/*--------------------------------*- C++ -*----------------------------------*\
| =========                 |                                                 |
| \\      /  F ield         | OpenFOAM: The Open Source CFD Toolbox           |
|  \\    /   O peration     | Version:  2512                                  |
|   \\  /    A nd           | Website:  www.openfoam.com                      |
|    \\/     M anipulation  |                                                 |
\*---------------------------------------------------------------------------*/
FoamFile
{
    version     2.0;
    format      ascii;
    arch        "LSB;label=32;scalar=64";
    class       volScalarField;
    location    "0.5";
    object      p;
}
// * * * * * * * * * * * * * * * * * * * * * * * * * * * * * * * * * * * * * //

dimensions      [0 2 -2 0 0 0 0];

internalField   nonuniform List<scalar> 
9200
(
-0.513449
-0.483071
-0.416482
-0.332615
-0.257134
-0.197754
-0.152873
-0.118686
-0.0923087
-0.0717742
-0.0556581
-0.0429039
-0.0327373
-0.0246122
-0.018064
-0.013002
-0.00864778
-0.0061422
-0.00335971
-0.000978395
-0.622829
-0.587371
-0.509762
-0.415105
-0.33026
-0.262788
-0.21069
-0.169996
-0.137786
-0.112042
-0.0912792
-0.0743839
-0.0605314
-0.049101
-0.0396481
-0.0317892
-0.0252967
-0.0200564
-0.015613
-0.0127002
-0.72653
-0.68561
-0.597068
-0.493369
-0.400691
-0.325931
-0.266952
-0.219905
-0.181944
-0.151054
-0.125708
-0.104734
-0.0872454
-0.0725729
-0.0601809
-0.0497068
-0.0407008
-0.0331717
-0.0264201
-0.0204994
-0.820704
-0.774372
-0.67574
-0.564946
-0.466023
-0.384979
-0.319752
-0.266823
-0.223484
-0.187747
-0.158061
-0.13321
-0.112256
-0.0944673
-0.0792752
-0.0662206
-0.054927
-0.0452093
-0.0364697
-0.0291596
-0.903633
-0.852401
-0.744728
-0.627871
-0.523615
-0.437181
-0.366569
-0.308574
-0.260594
-0.220637
-0.187137
-0.158849
-0.134795
-0.114205
-0.0964676
-0.0810902
-0.067678
-0.0559083
-0.0454635
-0.0362588
-0.974837
-0.919055
-0.802606
-0.679785
-0.570749
-0.47994
-0.405127
-0.343216
-0.291639
-0.248372
-0.211826
-0.180739
-0.154112
-0.131157
-0.111247
-0.0938696
-0.0786149
-0.065119
-0.053133
-0.0423402
-1.03281
-0.971974
-0.845828
-0.716773
-0.603562
-0.509676
-0.432247
-0.368007
-0.314329
-0.269119
-0.230735
-0.197885
-0.169554
-0.144942
-0.123428
-0.10451
-0.0877708
-0.0728499
-0.0595915
-0.0473626
-1.07389
-1.00721
-0.871485
-0.736718
-0.619731
-0.52333
-0.444078
-0.378526
-0.323972
-0.278239
-0.239519
-0.206397
-0.177775
-0.152804
-0.130848
-0.111393
-0.0939938
-0.0783271
-0.0641497
-0.0507483
-1.09403
-1.02192
-0.880394
-0.74308
-0.62372
-0.524959
-0.44336
-0.375731
-0.319655
-0.2731
-0.234114
-0.201138
-0.172962
-0.148634
-0.127416
-0.108702
-0.0919907
-0.0769056
-0.0629479
-0.0495378
-1.09247
-1.01614
-0.872306
-0.736298
-0.618111
-0.519783
-0.437652
-0.368708
-0.310893
-0.262796
-0.22216
-0.187851
-0.158814
-0.134124
-0.112975
-0.0946988
-0.078776
-0.0647457
-0.0519172
-0.0402873
0.127528
0.1439
0.162546
0.18003
0.190483
0.192605
0.188468
0.180599
0.170643
0.159571
0.148071
0.136641
0.125601
0.115136
0.105332
0.0962552
0.0878777
0.0802441
0.073291
0.0670513
0.130865
0.147409
0.166417
0.184355
0.195168
0.197482
0.193395
0.185473
0.175395
0.164162
0.152481
0.140867
0.129643
0.119009
0.109037
0.0998334
0.0913088
0.0836111
0.0766395
0.0703542
0.116485
0.13309
0.153309
0.173137
0.185955
0.190049
0.187432
0.180707
0.171602
0.161165
0.150139
0.139072
0.128307
0.118068
0.108423
0.0995352
0.0912468
0.0838311
0.0771474
0.0710194
0.0846096
0.101338
0.123592
0.146752
0.163185
0.170609
0.170842
0.16652
0.159442
0.150723
0.141163
0.131355
0.121675
0.112386
0.103557
0.095418
0.0877388
0.0809374
0.0748123
0.0689905
0.0359418
0.0530567
0.0781868
0.10614
0.127726
0.139926
0.144281
0.143467
0.139381
0.133225
0.125873
0.117978
0.109962
0.102134
0.094574
0.0875905
0.080869
0.0749934
0.0696659
0.0643593
-0.0283026
-0.0104173
0.0185057
0.0527169
0.0808881
0.0991549
0.108756
0.112425
0.112179
0.109331
0.104844
0.0994385
0.0935917
0.0876694
0.0817779
0.076315
0.0708899
0.0662801
0.0620056
0.0574691
-0.106466
-0.0874087
-0.0536466
-0.0118303
0.0241668
0.0495738
0.0653543
0.0743223
0.0786402
0.0797455
0.0786971
0.0762879
0.0730539
0.069408
0.0655002
0.0618002
0.0579041
0.0548184
0.0518344
0.0483988
-0.19649
-0.175817
-0.136076
-0.0854435
-0.0406185
-0.00727499
0.015358
0.0302221
0.0396504
0.0452146
0.0480725
0.0490881
0.0488608
0.0478287
0.0462065
0.044414
0.042163
0.0404886
0.0388015
0.0365959
-0.296084
-0.273162
-0.226048
-0.165333
-0.110824
-0.0689909
-0.0390762
-0.0179427
-0.0030585
0.00729231
0.0143661
0.0190976
0.0221589
0.0240083
0.0249947
0.0253166
0.0251116
0.0244944
0.0238767
0.0221601
-0.402801
-0.37668
-0.320492
-0.248417
-0.18352
-0.13288
-0.0954638
-0.0678393
-0.0472727
-0.0319064
-0.0203939
-0.0117368
-0.00520294
-0.000303794
0.00344574
0.00605934
0.0084068
0.00925261
0.0105743
0.00877503
0.0605968
0.0544015
0.0484968
0.0428884
0.0382092
0.0344388
0.031288
0.0286267
0.0263969
0.0245316
0.0229683
0.0216583
0.0205619
0.019647
0.0188873
0.0182616
0.0177519
0.0173414
0.0170138
0.0167537
0.016547
0.0163806
0.0162429
0.0161234
0.0160137
0.015906
0.0157936
0.0156705
0.0155313
0.0153711
0.0151857
0.0149718
0.014728
0.014456
0.0141584
0.0138362
0.0134869
0.0131052
0.0126833
0.0122117
0.0116783
0.0110683
0.010364
0.00954435
0.00858581
0.00746365
0.00615425
0.00463813
0.00291016
0.000983482
0.0644166
0.0586962
0.0517104
0.0450548
0.0400638
0.036155
0.0328026
0.0299561
0.0275828
0.0255982
0.023933
0.022537
0.0213674
0.0203888
0.019572
0.0188933
0.0183323
0.0178715
0.0174942
0.0171854
0.0169315
0.0167206
0.016542
0.016384
0.0162371
0.0160924
0.0159431
0.0157834
0.0156077
0.0154112
0.0151893
0.0149382
0.0146565
0.0143476
0.0140155
0.013662
0.0132847
0.012878
0.0124343
0.0119447
0.0113977
0.01078
0.0100748
0.00926244
0.00832034
0.00722399
0.00594906
0.0044757
0.00279546
0.000932701
0.0657304
0.0604202
0.0526525
0.0456487
0.0407859
0.0369174
0.0334939
0.0305976
0.028194
0.0261779
0.0244832
0.0230626
0.0218728
0.0208765
0.0200435
0.0193485
0.0187699
0.018289
0.0178891
0.0175549
0.017273
0.0170318
0.0168214
0.0166347
0.0164633
0.0162959
0.0161236
0.0159387
0.0157354
0.0155096
0.0152567
0.0149726
0.0146558
0.014312
0.013947
0.0135633
0.0131583
0.0127261
0.0122593
0.0117495
0.0111861
0.0105566
0.00984593
0.00903548
0.00810365
0.00702635
0.00577873
0.00434065
0.00270021
0.000891015
0.0643079
0.0595355
0.0516874
0.0450915
0.0407428
0.0370336
0.0336412
0.0307945
0.0284283
0.026428
0.0247412
0.0233259
0.0221394
0.0211459
0.0203156
0.0196231
0.0190463
0.018566
0.0181651
0.0178281
0.017541
0.0172917
0.0170696
0.0168658
0.0166725
0.0164861
0.0163012
0.0161067
0.0158924
0.0156509
0.0153775
0.0150686
0.0147231
0.0143502
0.0139574
0.013548
0.0131189
0.0126638
0.0121755
0.0116457
0.0110648
0.0104213
0.00970112
0.00888702
0.00795826
0.00689121
0.00566069
0.00424651
0.00263354
0.000862097
0.060508
0.0569056
0.0497146
0.0438226
0.039959
0.0364659
0.0332789
0.0306141
0.0283551
0.0264156
0.0247721
0.0233879
0.0222231
0.0212451
0.0204265
0.0197433
0.0191745
0.0187017
0.0183081
0.0179786
0.0176993
0.0174576
0.017242
0.0170423
0.0168496
0.0166567
0.0164573
0.01625
0.016034
0.0157956
0.0155215
0.0152025
0.0148391
0.0144464
0.0140343
0.0136069
0.0131602
0.0126876
0.0121817
0.0116348
0.0110379
0.0103802
0.00964862
0.0088269
0.00789503
0.00682966
0.00560535
0.00420197
0.00260158
0.000848453
0.0547476
0.0525266
0.0466377
0.0416573
0.0382419
0.0350415
0.0322564
0.0299592
0.0279479
0.0261633
0.02462
0.0232994
0.0221761
0.0212267
0.0204283
0.0197596
0.0192016
0.0187371
0.0183508
0.0180285
0.0177573
0.017525
0.0173205
0.0171333
0.0169537
0.0167726
0.016582
0.0163759
0.0161504
0.0159087
0.0156491
0.0153445
0.0149827
0.0145851
0.0141661
0.0137314
0.0132763
0.0127937
0.0122765
0.0117172
0.0111072
0.0104368
0.00969333
0.00886133
0.00792117
0.00684952
0.00562048
0.0042139
0.00260951
0.000852412
0.0464815
0.0455649
0.0422975
0.039611
0.036917
0.033766
0.031112
0.0290521
0.0272785
0.0256976
0.0243055
0.023087
0.0220308
0.0211231
0.0203485
0.0196921
0.0191395
0.0186769
0.0182911
0.01797
0.0177017
0.0174752
0.0172799
0.0171061
0.0169439
0.016784
0.0166175
0.0164355
0.016231
0.0159992
0.0157372
0.0154524
0.0151208
0.0147459
0.0143389
0.0139109
0.0134583
0.0129746
0.0124535
0.0118877
0.0112694
0.0105891
0.00983492
0.00899158
0.00803947
0.0069548
0.00571089
0.00428715
0.00266152
0.000876015
0.0359107
0.0368341
0.0358584
0.0353532
0.0340967
0.0316925
0.0294667
0.0277121
0.0262311
0.0249138
0.0237085
0.0226169
0.0216573
0.0208256
0.0201112
0.0195026
0.0189877
0.0185548
0.0181926
0.0178904
0.0176377
0.0174247
0.0172419
0.0170803
0.0169309
0.0167853
0.0166348
0.0164711
0.0162866
0.0160744
0.0158272
0.0155381
0.0152221
0.0148966
0.0145366
0.0141432
0.0137139
0.0132447
0.0127309
0.0121667
0.0115452
0.0108577
0.0100928
0.00923522
0.0082653
0.00715852
0.00588716
0.00442981
0.00276361
0.000922151
0.0224911
0.0265045
0.0300426
0.0317403
0.0315324
0.0303028
0.0288661
0.0272998
0.0257785
0.0244875
0.0233892
0.0224265
0.0215688
0.0208053
0.02013
0.0195376
0.0190223
0.0185774
0.0181954
0.0178687
0.0175894
0.0173493
0.0171407
0.0169557
0.016787
0.0166275
0.0164704
0.0163096
0.0161404
0.0159607
0.0157652
0.0155459
0.0152788
0.0149853
0.0146749
0.0143248
0.0139289
0.0134848
0.0129893
0.012438
0.0118249
0.0111417
0.0103771
0.00951541
0.00853602
0.00741278
0.00611585
0.00462142
0.00290577
0.000987546
0.00556738
0.00905537
0.0176507
0.0238467
0.0255958
0.0258047
0.0257439
0.025204
0.0243684
0.0234578
0.0225672
0.0217368
0.0209771
0.020289
0.0196717
0.0191236
0.0186416
0.0182217
0.0178589
0.0175478
0.0172822
0.0170556
0.0168617
0.016694
0.0165463
0.0164128
0.0162876
0.0161653
0.0160404
0.0159067
0.0157552
0.0155746
0.0154078
0.015233
0.0150172
0.0147403
0.0144012
0.0140008
0.0135379
0.0130094
0.0124097
0.0117304
0.0109592
0.0100793
0.00906812
0.00789741
0.00653564
0.0049578
0.00314668
0.00109525
-0.00240354
-0.00120432
0.00822088
0.0178175
0.0218162
0.0230289
0.0236718
0.0237179
0.0233109
0.0227223
0.0220661
0.0213983
0.0207506
0.0201401
0.0195765
0.0190649
0.0186072
0.018203
0.0178503
0.0175467
0.0172872
0.0170667
0.0168795
0.0167201
0.0165828
0.016462
0.0163524
0.0162481
0.0161425
0.0160278
0.015902
0.0157901
0.0156918
0.0155625
0.0153773
0.0151266
0.0148098
0.0144276
0.0139788
0.01346
0.0128652
0.012185
0.0114062
0.010511
0.00947557
0.00827094
0.00686508
0.00523044
0.00335142
0.00118878
-0.00641244
-0.00757407
0.00322611
0.0137333
0.0179681
0.0195657
0.0208791
0.0217201
0.0219433
0.0218026
0.0214788
0.0210569
0.020589
0.0201099
0.0196422
0.0191999
0.0187919
0.0184224
0.0180924
0.0178004
0.0175442
0.0173209
0.0171269
0.016958
0.01681
0.0166785
0.0165592
0.0164476
0.0163391
0.01623
0.0161235
0.0160266
0.0159247
0.0157874
0.0155973
0.0153455
0.0150298
0.0146494
0.0142022
0.0136844
0.013089
0.0124061
0.011622
0.010718
0.00967
0.0084485
0.00702121
0.0053582
0.00344012
0.00121682
-0.0073116
-0.01076
-0.000725437
0.010295
0.0150335
0.0169091
0.0185788
0.0198697
0.0205468
0.0208003
0.020802
0.0206411
0.0203778
0.0200565
0.0197085
0.0193554
0.0190117
0.0186869
0.0183864
0.0181125
0.0178657
0.0176451
0.0174486
0.0172736
0.0171167
0.0169745
0.0168435
0.0167198
0.0166
0.0164816
0.0163651
0.0162494
0.0161233
0.0159656
0.0157603
0.0154979
0.0151741
0.0147868
0.0143333
0.0138087
0.0132059
0.0125146
0.0117206
0.0108053
0.00974454
0.00850948
0.00706841
0.00539071
0.00345593
0.00121689
-0.00631254
-0.0116291
-0.00298826
0.00767863
0.0126313
0.0147479
0.0166657
0.0182668
0.0192865
0.0198587
0.0201364
0.0202084
0.0201371
0.0199711
0.0197466
0.01949
0.0192203
0.0189509
0.0186905
0.0184445
0.0182158
0.0180053
0.0178128
0.0176369
0.0174753
0.0173257
0.0171849
0.01705
0.0169179
0.0167864
0.0166539
0.0165178
0.0163694
0.016192
0.0159711
0.0156965
0.0153629
0.014967
0.0145048
0.0139711
0.013358
0.012655
0.0118475
0.0109168
0.00983922
0.00858635
0.00712742
0.00543179
0.00347945
0.00122407
-0.00399121
-0.010811
-0.00372144
0.00624056
0.0111086
0.01326
0.0152478
0.0170043
0.0182438
0.0190498
0.0195479
0.019817
0.019916
0.0198931
0.019786
0.0196239
0.0194286
0.0192161
0.0189981
0.0187824
0.018574
0.0183759
0.0181893
0.018014
0.0178493
0.0176932
0.0175438
0.0173985
0.0172548
0.0171104
0.0169631
0.0168092
0.0166411
0.0164455
0.0162093
0.0159225
0.0155789
0.015174
0.0147029
0.0141597
0.013536
0.0128207
0.0119991
0.0110522
0.00995655
0.00868422
0.00720509
0.0054885
0.00351458
0.00123607
-0.000868187
-0.00876599
-0.00320172
0.00583714
0.0103848
0.012413
0.0143444
0.0161336
0.0174818
0.0184345
0.0190896
0.0195116
0.0197509
0.0198516
0.01985
0.0197754
0.0196507
0.0194938
0.0193181
0.0191333
0.0189463
0.0187616
0.0185818
0.0184083
0.018241
0.0180792
0.0179214
0.0177659
0.0176105
0.0174529
0.0172906
0.0171193
0.0169324
0.0167187
0.0164667
0.016167
0.0158124
0.0153976
0.0149168
0.0143634
0.0137284
0.0130003
0.0121639
0.0112002
0.0100858
0.00879303
0.00729234
0.00555301
0.00355505
0.00124999
0.00281047
-0.00584947
-0.00169536
0.0063384
0.0104259
0.0122103
0.0139759
0.01569
0.0170465
0.018061
0.0188066
0.0193311
0.0196741
0.0198727
0.019959
0.0199605
0.0198994
0.0197941
0.0196587
0.0195041
0.0193385
0.0191677
0.0189955
0.0188242
0.018655
0.0184878
0.0183219
0.0181562
0.0179888
0.0178177
0.01764
0.0174515
0.017246
0.0170143
0.0167461
0.0164325
0.0160659
0.0156401
0.0151487
0.0145842
0.013937
0.0131952
0.0123432
0.0113619
0.0102277
0.00891335
0.00738957
0.00562559
0.00360111
0.00126615
0.00678615
-0.00240065
0.000532915
0.00758646
0.0111499
0.0126109
0.0141289
0.0156827
0.0169634
0.0179637
0.0187353
0.0193102
0.0197164
0.0199823
0.0201344
0.0201962
0.0201881
0.0201272
0.0200277
0.0199008
0.0197553
0.0195978
0.0194331
0.0192643
0.0190933
0.0189209
0.0187471
0.0185711
0.0183915
0.0182065
0.0180131
0.0178075
0.0175837
0.017334
0.0170493
0.016721
0.0163415
0.0159037
0.0154006
0.014824
0.0141639
0.0134075
0.0125391
0.0115391
0.0103841
0.00904693
0.00749839
0.00570755
0.00365373
0.0012849
0.0108602
0.0013451
0.00325495
0.00940687
0.0124406
0.0135427
0.0147644
0.016098
0.0172381
0.0181606
0.0189003
0.019476
0.0199043
0.0202047
0.0203971
0.0205002
0.020531
0.0205048
0.0204343
0.0203306
0.0202023
0.0200564
0.0198982
0.0197313
0.0195584
0.0193807
0.0191987
0.0190123
0.0188203
0.018621
0.0184119
0.018189
0.0179472
0.0176795
0.0173779
0.0170343
0.0166408
0.0161901
0.0156744
0.0150849
0.0144108
0.0136389
0.0127532
0.0117337
0.0105568
0.00919535
0.00762021
0.0058001
0.00371374
0.00130652
0.0149139
0.00521434
0.0062823
0.0116351
0.0141708
0.0149143
0.0158214
0.0169011
0.0178566
0.018653
0.0193133
0.0198457
0.0202575
0.0205599
0.0207659
0.0208891
0.0209426
0.0209387
0.0208884
0.0208014
0.020686
0.0205487
0.0203949
0.0202287
0.020053
0.0198694
0.019679
0.0194817
0.019277
0.0190632
0.0188381
0.018598
0.0183382
0.0180525
0.0177337
0.0173741
0.0169659
0.0165014
0.0159721
0.0153686
0.0146797
0.0138916
0.0129876
0.0119475
0.0107475
0.00936034
0.00775661
0.00590455
0.00378204
0.00133133
0.0188522
0.00907578
0.00946365
0.0141264
0.0162164
0.0166258
0.0172248
0.01804
0.0187872
0.019426
0.0199718
0.0204255
0.0207873
0.0210617
0.0212556
0.0213774
0.0214361
0.0214408
0.0214
0.0213218
0.0212132
0.0210803
0.0209281
0.0207605
0.0205804
0.02039
0.0201903
0.0199817
0.0197637
0.0195351
0.0192937
0.0190363
0.0187585
0.0184548
0.0181185
0.0177424
0.0173187
0.0168394
0.0162957
0.0156775
0.0149728
0.0141675
0.0132444
0.0121827
0.0109584
0.00954387
0.00790937
0.00602237
0.00385969
0.00135972
0.0226049
0.0128333
0.0126803
0.0167582
0.018464
0.0185782
0.018893
0.0194514
0.0199846
0.0204504
0.0208598
0.0212096
0.0214955
0.0217167
0.0218755
0.0219756
0.0220223
0.0220212
0.0219784
0.0218999
0.0217912
0.0216574
0.0215027
0.0213308
0.0211444
0.0209455
0.0207354
0.0205145
0.0202827
0.0200388
0.0197808
0.0195059
0.01921
0.0188882
0.0185342
0.0181411
0.0177014
0.0172066
0.0166476
0.0160137
0.0152926
0.0144692
0.013526
0.0124417
0.0111918
0.00974813
0.0080805
0.00615529
0.00394792
0.00139218
0.0261223
0.0164168
0.0158402
0.0194294
0.0208137
0.0206791
0.0207441
0.0210671
0.0213948
0.0216859
0.0219499
0.0221816
0.022374
0.0225234
0.0226285
0.0226895
0.0227083
0.0226878
0.0226315
0.0225431
0.0224266
0.0222858
0.022124
0.0219441
0.0217486
0.0215392
0.0213171
0.0210829
0.0208363
0.0205765
0.0203015
0.0200089
0.0196948
0.0193547
0.0189828
0.0185724
0.018116
0.0176051
0.0170301
0.0163799
0.0156415
0.0147993
0.0138351
0.0127271
0.0114502
0.00997559
0.00827228
0.00630525
0.00404816
0.00142926
0.0293671
0.0197746
0.0188722
0.0220577
0.0231805
0.0228453
0.022701
0.0228182
0.0229595
0.0230858
0.0232062
0.0233156
0.0234061
0.0234722
0.0235106
0.0235191
0.0234972
0.0234453
0.0233647
0.0232572
0.0231252
0.0229709
0.0227967
0.0226048
0.0223969
0.0221745
0.0219386
0.0216895
0.0214271
0.0211505
0.020858
0.0205472
0.0202148
0.0198563
0.0194662
0.0190382
0.0185648
0.0180373
0.0174458
0.0167787
0.0160224
0.0151607
0.0141746
0.0130419
0.0117365
0.010229
0.00848728
0.00647448
0.00416209
0.00147164
0.0323109
0.0228684
0.0217217
0.0245769
0.0254934
0.0250049
0.0246934
0.0246394
0.0246203
0.0245998
0.0245875
0.0245793
0.0245674
0.0245462
0.024511
0.0244587
0.0243868
0.0242942
0.0241805
0.0240457
0.0238908
0.0237169
0.023525
0.0233167
0.0230929
0.0228546
0.0226025
0.0223369
0.0220573
0.0217629
0.0214523
0.021123
0.0207719
0.0203948
0.0199865
0.0195408
0.0190501
0.0185057
0.0178973
0.0172129
0.0164382
0.0155564
0.0145478
0.0133892
0.012054
0.0105116
0.00872843
0.00666557
0.00429167
0.00152016
0.0349306
0.0256695
0.0243468
0.0269346
0.0276942
0.0270973
0.0266604
0.0264716
0.0263221
0.0261783
0.0260508
0.0259367
0.0258293
0.0257231
0.0256137
0.0254972
0.0253704
0.0252312
0.0250778
0.0249095
0.0247256
0.0245264
0.0243119
0.0240828
0.0238394
0.0235823
0.0233116
0.0230273
0.022729
0.0224159
0.0220862
0.0217379
0.0213678
0.0209721
0.0205455
0.020082
0.019574
0.0190127
0.0183873
0.0176854
0.0168921
0.0159899
0.0149581
0.0137727
0.0124062
0.0108267
0.008999
0.00688146
0.00443925
0.00157581
0.0372065
0.0281564
0.0267164
0.0290906
0.0297374
0.0290738
0.0285515
0.0282643
0.028016
0.0277756
0.0275545
0.0273513
0.0271605
0.0269776
0.0267985
0.0266194
0.0264371
0.0262488
0.0260524
0.0258462
0.025629
0.0254
0.0251587
0.0249049
0.0246385
0.0243594
0.0240676
0.0237626
0.023444
0.0231107
0.0227612
0.0223933
0.022004
0.0215895
0.0211448
0.0206637
0.0201386
0.0195606
0.0189185
0.0181993
0.0173875
0.0164646
0.0154092
0.0141962
0.0127969
0.0111781
0.00930263
0.0071255
0.00460758
0.00163983
0.0391255
0.0303178
0.0288126
0.0310189
0.0315917
0.0308991
0.0303287
0.0299776
0.0296617
0.0293525
0.0290617
0.0287892
0.028531
0.0282835
0.0280435
0.0278076
0.0275729
0.0273368
0.0270968
0.0268511
0.0265979
0.0263361
0.0260647
0.025783
0.0254905
0.0251867
0.0248713
0.0245437
0.024203
0.0238484
0.0234781
0.02309
0.0226813
0.022248
0.0217854
0.0212871
0.0207456
0.0201515
0.0194934
0.0187575
0.0179276
0.0169843
0.0159051
0.0146638
0.0132303
0.0115699
0.00964328
0.00740145
0.0047999
0.00171375
0.0406977
0.0321644
0.0306381
0.0327127
0.0332435
0.032555
0.0319692
0.0315854
0.0312311
0.0308795
0.0305429
0.0302221
0.0299143
0.0296169
0.0293275
0.0290437
0.0287629
0.0284828
0.0282014
0.0279166
0.0276269
0.0273309
0.0270273
0.0267154
0.0263943
0.0260634
0.0257222
0.0253699
0.0250056
0.0246283
0.0242364
0.0238277
0.0233994
0.0229477
0.0224677
0.0219531
0.0213962
0.0207872
0.0201143
0.019363
0.018516
0.017553
0.0164502
0.0151799
0.0137108
0.0120064
0.0100251
0.00771337
0.00501999
0.00179947
0.0419615
0.0337335
0.0322197
0.0341871
0.0346995
0.0340412
0.0334671
0.0330769
0.0327092
0.0323391
0.0319788
0.0316297
0.0312901
0.0309582
0.0306325
0.0303111
0.0299923
0.0296742
0.0293553
0.0290339
0.0287086
0.0283782
0.0280415
0.0276979
0.0273464
0.0269865
0.0266175
0.0262388
0.0258495
0.0254484
0.0250342
0.0246046
0.0241568
0.0236872
0.0231908
0.0226613
0.0220907
0.0214687
0.020783
0.0200182
0.019156
0.0181746
0.0170486
0.015749
0.0142427
0.0124916
0.0104521
0.00806534
0.00527204
0.00189933
0.0429741
0.0350802
0.0336025
0.0354752
0.0359832
0.035374
0.034832
0.0344558
0.0340951
0.0337264
0.0333613
0.0330018
0.0326466
0.0322948
0.0319452
0.031597
0.0312488
0.0308995
0.030548
0.0301932
0.0298342
0.02947
0.0291001
0.0287238
0.0283407
0.0279502
0.0275519
0.0271453
0.0267297
0.0263041
0.025867
0.0254165
0.0249499
0.0244635
0.0239523
0.0234098
0.0228279
0.0221959
0.0215004
0.0207253
0.0198506
0.0188529
0.0177049
0.0163755
0.0148301
0.0130292
0.0109273
0.0084607
0.00556038
0.00201624
0.0437903
0.0362616
0.0348373
0.0366186
0.0371289
0.0365818
0.0360866
0.0357395
0.035401
0.0350491
0.0346943
0.0343389
0.0339816
0.0336221
0.0332597
0.0328938
0.0325239
0.0321493
0.0317698
0.0313846
0.0309937
0.0305966
0.0301933
0.0297837
0.0293677
0.0289453
0.0285163
0.0280807
0.0276378
0.027187
0.0267271
0.0262562
0.0257718
0.0252702
0.0247466
0.0241944
0.0236048
0.0229669
0.0222663
0.0214854
0.0206025
0.0195918
0.0184234
0.0170637
0.0154762
0.0136206
0.0114512
0.00890033
0.00588843
0.0021537
0.0444573
0.0373303
0.0359749
0.0376621
0.0381768
0.0377007
0.0372632
0.0369562
0.0366513
0.0363276
0.0359944
0.0356535
0.035304
0.0349455
0.0345777
0.0342005
0.0338138
0.0334177
0.0330125
0.0325984
0.0321759
0.0317455
0.0313079
0.0308637
0.0304134
0.0299577
0.0294968
0.029031
0.0285603
0.0280842
0.0276019
0.0271117
0.0266113
0.0260973
0.0255647
0.025007
0.0244151
0.0237773
0.0230782
0.0222983
0.0214135
0.0203946
0.0192083
0.0178172
0.0161825
0.0142638
0.0120183
0.00937865
0.0062559
0.0023157
0.0449942
0.0383216
0.0370563
0.0386467
0.0391679
0.0387728
0.0384036
0.0381463
0.0378841
0.037597
0.0372928
0.0369729
0.0366363
0.0362827
0.0359121
0.0355249
0.0351217
0.0347033
0.0342709
0.0338258
0.0333694
0.0329032
0.0324288
0.0319476
0.0314609
0.0309701
0.0304761
0.0299795
0.0294808
0.02898
0.0284765
0.027969
0.0274555
0.0269328
0.0263962
0.0258391
0.0252521
0.0246228
0.0239344
0.0231651
0.0222873
0.0212674
0.0200662
0.018641
0.0169491
0.0149508
0.0126118
0.00987596
0.00665229
0.00250727
0.0453962
0.0392561
0.0381127
0.0396074
0.0401419
0.0398417
0.0395535
0.0393555
0.0391425
0.0388955
0.0386209
0.0383194
0.0379899
0.0376324
0.0372476
0.0368366
0.036401
0.0359428
0.0354646
0.0349688
0.0344585
0.0339364
0.0334055
0.0328686
0.0323284
0.0317872
0.0312471
0.0307098
0.0301766
0.0296482
0.0291248
0.0286056
0.0280888
0.0275713
0.0270485
0.0265131
0.0259553
0.0253612
0.0247117
0.0239818
0.0231388
0.022142
0.0209431
0.019489
0.017729
0.0156239
0.0131569
0.0103123
0.00701874
0.00272654
0.045632
0.0401981
0.039285
0.0407616
0.0414058
0.0413206
0.0412499
0.041264
0.0412728
0.0412607
0.0412338
0.0411934
0.0411387
0.0410694
0.0409848
0.0408845
0.0407673
0.0406322
0.0404776
0.0403018
0.0401028
0.0398784
0.0396262
0.0393438
0.0390286
0.0386777
0.0382885
0.0378579
0.0373827
0.0368598
0.0362854
0.0356558
0.0349665
0.0342128
0.0333893
0.0324903
0.0315089
0.0304374
0.0292666
0.0279851
0.0265786
0.0250277
0.0233065
0.0213815
0.0192127
0.0167609
0.0140017
0.0109216
0.00747845
0.00311329
0.0393894
0.0335518
0.0319031
0.0323254
0.032002
0.0310476
0.0301066
0.0292448
0.0283921
0.02754
0.0266974
0.025868
0.0250537
0.0242558
0.0234753
0.0227128
0.0219685
0.021242
0.0205328
0.0198402
0.0191631
0.0185004
0.0178509
0.0172134
0.0165867
0.0159697
0.0153613
0.0147605
0.0141666
0.0135788
0.0129966
0.0124197
0.011848
0.0112817
0.0107216
0.010169
0.00962587
0.00909537
0.00858178
0.00809057
0.00762793
0.00719965
0.00680884
0.00645212
0.00611414
0.00576412
0.00534328
0.00480222
0.00384545
0.00245467
0.0627326
0.0595295
0.0591089
0.0602729
0.0609077
0.0610299
0.0611013
0.0611709
0.0611856
0.0611374
0.0610323
0.0608738
0.0606649
0.0604089
0.0601095
0.0597705
0.0593956
0.0589885
0.0585528
0.0580919
0.0576089
0.0571066
0.0565877
0.0560544
0.0555087
0.0549521
0.0543859
0.0538111
0.0532282
0.0526374
0.0520385
0.0514309
0.0508135
0.0501847
0.0495421
0.0488827
0.0482019
0.0474935
0.0467483
0.0459527
0.0450854
0.0441128
0.0429798
0.041596
0.0398096
0.0373853
0.0338922
0.0289653
0.0208749
0.0103582
0.0272733
0.0240465
0.0234337
0.0240694
0.0241927
0.0238991
0.0235861
0.0232898
0.0229682
0.0226174
0.0222436
0.0218504
0.0214396
0.0210125
0.020571
0.0201166
0.0196506
0.0191739
0.0186871
0.0181909
0.0176856
0.0171712
0.0166477
0.0161148
0.0155722
0.0150191
0.0144548
0.0138784
0.0132888
0.012685
0.0120654
0.0114286
0.010773
0.0100964
0.0093966
0.00867079
0.00791544
0.0071257
0.00629494
0.0054137
0.00446806
0.00343722
0.00229107
0.000990307
-0.000516345
-0.00223964
-0.0042277
-0.00553824
-0.00698733
-0.00140899
0.0604635
0.0581499
0.0572685
0.0570716
0.0566572
0.0560497
0.0554262
0.0548067
0.0541754
0.0535313
0.0528772
0.0522148
0.0515457
0.0508717
0.050194
0.0495135
0.0488314
0.0481486
0.0474663
0.0467853
0.0461064
0.0454304
0.044758
0.0440896
0.0434259
0.0427672
0.0421139
0.0414661
0.0408241
0.0401876
0.0395568
0.0389314
0.0383111
0.0376954
0.0370837
0.0364747
0.0358666
0.0352565
0.0346395
0.0340073
0.0333451
0.0326278
0.031809
0.0308081
0.029442
0.0275568
0.023784
0.0210838
0.00431391
0.0216023
-0.0298912
-0.0366468
-0.0378757
-0.0353756
-0.0314317
-0.0270782
-0.0221507
-0.0159725
-0.0121546
-0.00318675
-0.0196007
-0.0236106
-0.0240877
-0.0222307
-0.0193068
-0.0172198
-0.0142226
-0.0116984
-0.0108296
-0.0051676
-0.00927614
-0.0115463
-0.0115975
-0.0104271
-0.00824322
-0.00810946
-0.00615633
-0.00612577
-0.00724231
-0.00305688
-0.000150682
-0.00133294
-0.00113475
-0.000655702
0.000870458
-0.000633045
0.00053905
-0.00124444
-0.00365375
-0.000293781
0.00819094
0.0076967
0.00789597
0.00781461
0.00882973
0.00631661
0.00703329
0.00429405
0.00107616
0.00341707
0.0156146
0.0156345
0.0158291
0.0154405
0.0161049
0.0131534
0.0134499
0.0100877
0.00605846
0.00733432
0.0222564
0.0226818
0.0228579
0.0222976
0.0226328
0.0194753
0.0192352
0.0154322
0.0109029
0.0114298
0.0281578
0.0289162
0.0290705
0.0284079
0.0284394
0.0252269
0.0245345
0.0205324
0.0157729
0.0156632
0.0333851
0.0344149
0.0345562
0.0338451
0.0336442
0.0304863
0.029456
0.0253639
0.0204852
0.01984
0.0379969
0.0392505
0.0393945
0.0386763
0.0383133
0.0352569
0.0339743
0.0298532
0.0249509
0.0238937
0.0420347
0.0434956
0.0436563
0.0429492
0.0424793
0.0395479
0.038094
0.0339977
0.0291447
0.02777
0.0455524
0.0471918
0.0473786
0.0467011
0.0461719
0.0433809
0.0418239
0.0377921
0.0330373
0.03142
0.0485854
0.0503709
0.0505919
0.0499607
0.0494113
0.046772
0.0451657
0.041228
0.0366079
0.0348095
0.0511652
0.0530698
0.0533279
0.0527536
0.0522134
0.0497337
0.0481202
0.0442997
0.0398414
0.0379111
0.0533243
0.0553199
0.055613
0.0551008
0.0545905
0.0522751
0.0506862
0.0469996
0.042723
0.0407012
0.055104
0.0571534
0.0574729
0.0570243
0.0565564
0.0544051
0.0528614
0.049318
0.0452377
0.043158
0.0565516
0.0586243
0.0589531
0.0585544
0.0581276
0.0561309
0.0546388
0.0512413
0.0473688
0.0452604
0.0577257
0.0597867
0.0601034
0.0597364
0.0593333
0.0574639
0.0560141
0.0527606
0.049104
0.0469915
0.0586708
0.0607099
0.0610039
0.0606458
0.0602297
0.0584455
0.0570181
0.0539001
0.0504582
0.0483583
0.0593785
0.0613746
0.0616372
0.0612877
0.0608726
0.0591669
0.0577339
0.0547275
0.0514817
0.0493983
0.0598219
0.0617487
0.0619736
0.0616423
0.0612525
0.0596542
0.0582362
0.0553258
0.0522463
0.0501693
0.059972
0.061824
0.06201
0.0616993
0.0613533
0.0598904
0.0585261
0.0557428
0.0528136
0.0507246
0.0598271
0.0615629
0.0617023
0.0614294
0.0611505
0.0598477
0.0585698
0.0559572
0.0532107
0.051103
0.0593424
0.0609618
0.0610518
0.0608092
0.0606061
0.0594832
0.0583198
0.0559197
0.0533941
0.0513009
0.0585457
0.0599768
0.0599914
0.0597844
0.0596673
0.0587355
0.057706
0.0555561
0.0532933
0.0512835
0.0574619
0.0587685
0.0586856
0.0584892
0.0584404
0.0576802
0.0567577
0.0548391
0.0528103
0.0509244
0.0553139
0.0557179
0.0556079
0.0553862
0.0552442
0.0543931
0.0532022
0.0509581
0.0484008
0.0455225
0.0629966
0.0650355
0.0645993
0.0646067
0.0652182
0.0655728
0.0658704
0.0656999
0.0655484
0.0653759
0.0378366
0.0359922
0.0359436
0.0361458
0.0362992
0.0359236
0.0351958
0.0338671
0.0323563
0.0306892
0.0612557
0.0630995
0.0638376
0.0639321
0.064394
0.0647632
0.0648213
0.0644262
0.063807
0.0627942
0.113664
0.118166
0.121361
0.12335
0.124566
0.125432
0.125798
0.125324
0.123719
0.120651
0.115665
0.108153
0.0973038
0.0820488
0.0609357
0.0320348
-0.00739162
-0.0607118
-0.127397
-0.175717
0.095569
0.0992356
0.0991203
0.0974647
0.0958152
0.0939028
0.0910914
0.0870261
0.0814119
0.073838
0.063755
0.0504556
0.0330209
0.0102523
-0.019443
-0.0581662
-0.108853
-0.17493
-0.255566
-0.31388
0.075745
0.0778511
0.0751054
0.0709984
0.0669622
0.0622943
0.0563185
0.048734
0.0392087
0.0272565
0.0122499
-0.00660678
-0.0303414
-0.0602908
-0.0982187
-0.146448
-0.208228
-0.28723
-0.382399
-0.45012
0.0556959
0.0555842
0.0508299
0.0448494
0.0385841
0.0312158
0.0221658
0.0111422
-0.00224566
-0.018546
-0.0384498
-0.0628254
-0.092782
-0.129749
-0.175599
-0.232798
-0.304791
-0.395395
-0.503645
-0.5789
0.0367385
0.0344428
0.0280021
0.0203851
0.0120797
0.00228592
-0.00949439
-0.0235856
-0.040445
-0.0606882
-0.085088
-0.114618
-0.150513
-0.194344
-0.248107
-0.314329
-0.396432
-0.498024
-0.61896
-0.699918
0.0188864
0.0143004
0.00610488
-0.0032285
-0.0136083
-0.0257822
-0.0401897
-0.0571871
-0.0772709
-0.101086
-0.129437
-0.163344
-0.204122
-0.253478
-0.313648
-0.387459
-0.478495
-0.590441
-0.725435
-0.807577
0.00387265
-0.00259131
-0.0121458
-0.0228924
-0.0350688
-0.0493515
-0.0661528
-0.0858945
-0.109144
-0.136609
-0.169155
-0.207842
-0.253994
-0.309285
-0.37591
-0.456748
-0.555082
-0.67302
-0.81775
-0.898355
-0.0107786
-0.0191287
-0.0298873
-0.0417762
-0.0552649
-0.0709456
-0.0892101
-0.110535
-0.135558
-0.165082
-0.200106
-0.24187
-0.291898
-0.352052
-0.424674
-0.512802
-0.619855
-0.745843
-0.893471
-0.975111
-0.0230504
-0.0333802
-0.0455785
-0.059109
-0.0745163
-0.0922405
-0.112645
-0.136195
-0.163477
-0.195232
-0.232398
-0.276178
-0.328127
-0.390276
-0.465404
-0.557042
-0.669679
-0.802861
-0.952227
-1.03379
-0.0298725
-0.0401694
-0.0525414
-0.0665862
-0.0828192
-0.101669
-0.123548
-0.148994
-0.178653
-0.21328
-0.253752
-0.301112
-0.356764
-0.422458
-0.501
-0.595576
-0.710794
-0.845515
-0.992616
-1.0722
0.224203