/*--------------------------------*- C++ -*----------------------------------*\
| =========                 |                                                 |
| \\      /  F ield         | OpenFOAM: The Open Source CFD Toolbox           |
|  \\    /   O peration     | Version:  2312                                  |
|   \\  /    A nd           | Website:  www.openfoam.com                      |
|    \\/     M anipulation  |                                                 |
\*---------------------------------------------------------------------------*/
FoamFile
{
    version     2.0;
    format      ascii;
    arch        "LSB;label=32;scalar=64";
    class       volVectorField;
    location    "120.95";
    object      U;
}
// * * * * * * * * * * * * * * * * * * * * * * * * * * * * * * * * * * * * * //

dimensions      [0 1 -1 0 0 0 0];

internalField   nonuniform List<vector> 
5478
(
(-0.0269002 0.0277108 -1.15699e-19)
(-0.0227987 0.0374405 0)
(0.0307815 0.0250476 1.79111e-19)
(0.140824 0.00210691 -3.15771e-19)
(0.312802 -0.0234902 2.08949e-19)
(0.529464 -0.0453358 -6.25244e-20)
(0.753419 -0.0602107 -1.06411e-19)
(0.948961 -0.0685498 0)
(1.09336 -0.0709926 0)
(1.18014 -0.070385 1.08196e-19)
(1.21895 -0.0658845 -5.62309e-20)
(1.21405 -0.0590854 -7.4855e-20)
(1.19401 -0.053508 -2.60949e-20)
(1.15995 -0.0399609 0)
(1.1192 -0.0355229 5.14317e-20)
(-0.023404 0.0188157 2.31808e-19)
(0.000669835 0.0197383 0)
(0.101017 0.00528746 0)
(0.28663 -0.0118347 -1.56243e-19)
(0.537877 -0.0215488 2.069e-19)
(0.798978 -0.0223734 5.99701e-20)
(1.01758 -0.0188819 -9.70754e-20)
(1.16646 -0.0155475 8.60806e-20)
(1.24262 -0.0151806 1.94534e-19)
(1.26285 -0.0167439 -1.6723e-19)
(1.244 -0.0190704 2.03491e-21)
(1.2132 -0.0202993 0)
(1.18028 -0.0195389 2.60481e-20)
(1.15299 -0.012301 0)
(1.13747 -0.0156817 0)
(-0.017355 0.0105701 -5.64837e-22)
(0.0448467 -0.000111781 -1.05723e-19)
(0.221736 -0.0124227 5.60363e-23)
(0.500221 -0.0110591 0)
(0.80067 0.00374937 -6.67714e-20)
(1.04419 0.021083 5.62148e-20)
(1.19762 0.032171 4.66651e-20)
(1.26592 0.0340561 0)
(1.27602 0.029478 -6.56585e-20)
(1.25513 0.022267 5.26387e-20)
(1.22891 0.0165607 4.17399e-20)
(1.20551 0.0134758 0)
(1.18759 0.0141391 0)
(1.17425 0.0155254 -7.40139e-20)
(1.16242 0.0170374 6.59258e-20)
(-0.00474234 0.00296443 -1.21916e-19)
(0.123492 -0.0165334 1.04581e-19)
(0.406017 -0.0117483 -9.05995e-20)
(0.751305 0.0182922 7.81881e-20)
(1.03259 0.0508035 1.32288e-19)
(1.20204 0.0709582 -1.10492e-19)
(1.27357 0.0761567 -4.6638e-20)
(1.28534 0.0714579 3.49824e-20)
(1.271 0.0631328 -3.39298e-20)
(1.2522 0.055563 0)
(1.2333 0.050294 0)
(1.21426 0.0463173 -5.86061e-20)
(1.19491 0.0438827 7.45806e-20)
(1.17457 0.0419414 -4.1393e-20)
(1.15303 0.0371022 0)
(0.0201649 -0.00481101 6.14418e-20)
(0.248225 -0.0215891 5.19988e-20)
(0.632366 0.0179842 -1.84711e-19)
(0.975526 0.0697886 1.77599e-21)
(1.18378 0.103034 -2.78763e-21)
(1.27362 0.114738 -1.18426e-21)
(1.29449 0.112807 4.26051e-20)
(1.28582 0.10537 3.62943e-20)
(1.26819 0.0969295 2.52224e-20)
(1.24664 0.0889771 -4.66956e-21)
(1.22355 0.0813131 -5.70445e-20)
(1.20142 0.0745488 0)
(1.18152 0.0695703 2.40638e-20)
(1.16526 0.0634034 -1.70795e-20)
(1.15472 0.0621557 3.15145e-20)
(0.0637082 -0.0110573 -1.28741e-19)
(0.417617 -0.00297781 1.39742e-19)
(0.848216 0.0722561 -4.73427e-20)
(1.13317 0.128651 3.64096e-20)
(1.26412 0.152548 -6.63878e-20)
(1.30183 0.155557 -4.94024e-20)
(1.29746 0.149066 1.11079e-21)
(1.27824 0.139232 0)
(1.25464 0.128585 5.1652e-20)
(1.23191 0.118098 -4.59325e-20)
(1.21226 0.108997 1.79913e-20)
(1.19537 0.101201 0)
(1.18085 0.0946241 1.08172e-20)
(1.16717 0.0883013 -1.82914e-20)
(1.1509 0.0845568 0)
(0.129681 -0.00984718 -1.59884e-20)
(0.604218 0.0461254 9.93922e-22)
(1.01694 0.139858 2.36183e-20)
(1.22946 0.189016 3.88717e-20)
(1.30121 0.201635 -2.95456e-20)
(1.3054 0.196481 4.97283e-20)
(1.28593 0.184947 -1.13234e-20)
(1.26179 0.172002 0)
(1.23955 0.159341 -3.03119e-20)
(1.21967 0.147814 2.13641e-21)
(1.20092 0.137028 2.5071e-20)
(1.18324 0.127104 0)
(1.16632 0.118066 -1.58289e-20)
(1.15046 0.108994 0)
(1.13771 0.105014 9.37894e-21)
(0.215481 0.00579312 -1.70916e-20)
(0.770745 0.118593 0)
(1.13359 0.21439 2.38301e-20)
(1.27928 0.250346 0)
(1.30756 0.250451 0)
(1.2922 0.237318 0)
(1.2672 0.221334 -9.60281e-21)
(1.2429 0.205468 0)
(1.22035 0.190266 6.11776e-21)
(1.19963 0.175683 0)
(1.18146 0.162303 -7.82535e-21)
(1.16598 0.150137 0)
(1.15329 0.139323 5.0063e-21)
(1.1424 0.129737 0)
(1.13045 0.123727 3.1884e-21)
(0.000995231 -0.120694 -1.22233e-20)
(-0.015632 -0.25598 0)
(-0.057511 -0.316403 1.92517e-20)
(-0.10363 -0.349037 0)
(-0.147669 -0.381436 0)
(-0.187338 -0.416785 0)
(-0.22003 -0.44871 -1.2728e-20)
(-0.24276 -0.470374 0)
(-0.252725 -0.475642 1.06603e-20)
(-0.248099 -0.459443 0)
(-0.227812 -0.41835 -1.77463e-20)
(-0.191997 -0.35011 0)
(-0.142872 -0.254112 1.43636e-20)
(-0.0831653 -0.130065 0)
(-0.0258815 0.0194383 1.10399e-20)
(0.00323561 -0.09568 6.10132e-20)
(-0.0163842 -0.205341 -4.35398e-20)
(-0.0659607 -0.2556 1.95294e-20)
(-0.119061 -0.285545 6.91523e-20)
(-0.169896 -0.319047 5.9273e-22)
(-0.217672 -0.358668 -5.56672e-20)
(-0.260904 -0.398954 3.76315e-20)
(-0.297438 -0.434039 0)
(-0.324842 -0.458096 3.09758e-20)
(-0.341192 -0.465561 2.98493e-22)
(-0.344618 -0.451882 -1.5489e-20)
(-0.332623 -0.413317 0)
(-0.304614 -0.34576 -3.72167e-20)
(-0.265039 -0.246989 0)
(-0.20982 -0.124366 -4.77948e-20)
(0.00149165 -0.0621544 9.8304e-20)
(-0.0192402 -0.145224 2.25771e-20)
(-0.0693668 -0.187998 -3.86992e-20)
(-0.120999 -0.216145 -1.04644e-19)
(-0.168351 -0.249399 6.19013e-20)
(-0.211029 -0.29051 5.6569e-20)
(-0.24813 -0.335162 -1.01076e-19)
(-0.278489 -0.378381 0)
(-0.301122 -0.415021 -7.84774e-20)
(-0.316146 -0.440208 6.97805e-20)
(-0.323481 -0.450064 2.81318e-20)
(-0.319741 -0.44071 0)
(-0.301242 -0.406204 2.2847e-20)
(-0.286553 -0.336911 -2.70667e-20)
(-0.223832 -0.249299 0)
(-0.00449861 -0.027339 5.07334e-20)
(-0.0252919 -0.0846844 -1.34563e-19)
(-0.0704008 -0.1213 1.59655e-19)
(-0.114256 -0.148085 -1.43363e-19)
(-0.150604 -0.180449 -6.52516e-20)
(-0.178238 -0.221582 5.86087e-20)
(-0.195759 -0.268058 5.09351e-20)
(-0.202233 -0.314962 4.58342e-20)
(-0.197738 -0.356747 -1.15549e-19)
(-0.184667 -0.388327 4.60757e-21)
(-0.167404 -0.406864 2.81532e-20)
(-0.149489 -0.411603 0)
(-0.102627 -0.396653 2.89694e-20)
(-0.116519 -0.350737 6.5276e-20)
(-0.0146346 -0.29959 -3.423e-20)
(-0.0134527 0.00319587 7.61278e-22)
(-0.0335327 -0.0299351 9.39243e-20)
(-0.0684116 -0.0605801 -8.3684e-20)
(-0.0979481 -0.0865276 7.25562e-20)
(-0.115291 -0.118258 1.32714e-19)
(-0.117547 -0.159231 -1.19121e-19)
(-0.102503 -0.206736 -5.37241e-20)
(-0.0701347 -0.255603 -1.36582e-19)
(-0.0228285 -0.299628 1.19867e-19)
(0.0344751 -0.332041 0)
(0.098236 -0.347325 0)
(0.142272 -0.357172 6.87863e-20)
(0.238646 -0.334989 -1.36931e-19)
(0.225152 -0.3005 4.16261e-20)
(0.380417 -0.244217 0)
(-0.0219276 0.0247511 -5.80764e-22)
(-0.0396414 0.0127093 -9.51882e-20)
(-0.0593244 -0.011534 2.54127e-19)
(-0.0667507 -0.0363551 -7.56413e-20)
(-0.0543018 -0.0675046 -6.74993e-20)
(-0.017726 -0.107661 6.05446e-20)
(0.0452443 -0.154174 5.37369e-20)
(0.131084 -0.201141 9.20181e-20)
(0.232578 -0.242023 -1.60636e-19)
(0.339292 -0.269975 6.36233e-20)
(0.441772 -0.278924 4.92799e-20)
(0.526859 -0.280511 0)
(0.634296 -0.247993 0)
(0.647989 -0.22663 5.47783e-20)
(0.792902 -0.167452 -4.87839e-20)
(-0.0273185 0.0346824 1.32917e-21)
(-0.040409 0.0380929 0)
(-0.0399414 0.0203852 0)
(-0.0178848 -0.00348759 1.57428e-19)
(0.0343413 -0.0347661 -6.87916e-20)
(0.121739 -0.0737304 6.22747e-20)
(0.242731 -0.116079 1.0812e-19)
(0.386474 -0.155305 -9.58679e-20)
(0.536845 -0.186214 7.89837e-20)
(0.678704 -0.202331 -6.36644e-20)
(0.794324 -0.206092 -1.43462e-21)
(0.897605 -0.194441 0)
(0.962446 -0.168805 2.60984e-20)
(1.00506 -0.140304 0)
(1.07086 -0.0960281 0)
(-0.0286979 0.0344368 -1.11559e-19)
(-0.0352117 0.0455448 0)
(-0.0113598 0.0324309 -1.78502e-19)
(0.0478062 0.00877475 3.15954e-19)
(0.151169 -0.0221332 -3.51053e-19)
(0.300701 -0.0567862 -6.1347e-20)
(0.482257 -0.0892058 1.09228e-19)
(0.670733 -0.114986 0)
(0.842615 -0.131207 0)
(0.977777 -0.136066 -1.13777e-19)
(1.07429 -0.133264 -3.398e-20)
(1.13324 -0.118152 7.78002e-20)
(1.14996 -0.1026 -2.61436e-20)
(1.16405 -0.0796831 0)
(1.13985 -0.0552314 -4.78099e-20)
(0.106288 0.290092 0)
(0.296697 0.603013 3.64496e-21)
(0.446163 0.71699 -3.36798e-21)
(0.399074 0.816877 0)
(0.245147 0.821301 0)
(0.467877 0.378382 -1.44026e-22)
(0.698467 -0.17211 0)
(0.83016 -0.471383 0)
(0.901213 -0.556256 6.60162e-23)
(0.881241 -0.5088 0)
(0.786257 -0.605518 0)
(0.724976 -0.504308 -7.12694e-23)
(0.787389 -0.199202 0)
(0.902291 0.0295948 -8.12315e-23)
(0.938272 0.398342 -8.9557e-23)
(0.955172 0.483227 0)
(0.984608 0.56414 -4.7957e-22)
(0.998851 0.412893 5.6498e-22)
(0.989121 -0.0371543 0)
(1.06475 -0.266944 5.18556e-22)
(1.09024 -0.582458 -6.04464e-22)
(1.07839 -0.504044 1.08508e-22)
(1.08359 0.0539836 -2.34482e-22)
(1.0767 0.267594 2.24056e-22)
(1.12063 0.590538 -2.15989e-22)
(1.21529 0.432074 0)
(1.07094 -0.491186 -2.1725e-22)
(1.05109 -0.544654 2.07726e-22)
(1.11466 0.176507 -1.2056e-22)
(0.994385 0.324263 0)
(1.00976 0.00680956 -8.882e-23)
(0.962206 -0.126769 0)
(0.960431 -0.0155877 -2.51153e-23)
(0.986659 0.0436105 -1.38977e-23)
(0.955908 0.00563376 1.35868e-24)
(0.958846 -0.0109572 -9.1195e-24)
(0.969339 -0.000924663 0)
(0.938693 0.00585452 2.46101e-24)
(-0.126111 0.118648 1.69126e-20)
(0.108379 0.46789 -1.14616e-22)
(0.238287 0.687119 -9.3831e-21)
(0.207222 0.869994 8.94938e-21)
(0.249547 0.76475 0)
(0.595837 0.253681 1.45149e-22)
(0.842531 -0.258885 -2.92923e-22)
(0.935832 -0.526066 0)
(0.966549 -0.572423 -6.65061e-23)
(0.925677 -0.485129 0)
(0.844885 -0.570016 0)
(0.780498 -0.509561 7.17731e-23)
(0.827949 -0.23087 0)
(0.882659 -0.00518769 2.82959e-21)
(0.918669 0.374505 -2.35886e-21)
(0.927915 0.463715 2.17869e-21)
(0.939393 0.555121 -2.07969e-21)
(0.99258 0.414093 -1.07759e-22)
(0.988922 -0.0374715 0)
(1.08548 -0.282583 0)
(1.11037 -0.58187 -1.17675e-22)
(1.06478 -0.506501 1.14215e-21)
(1.08946 0.0541581 -1.99914e-21)
(1.04637 0.252446 9.66222e-22)
(1.10103 0.570315 6.37138e-22)
(1.23518 0.438933 0)
(1.08353 -0.4641 4.40975e-22)
(1.04474 -0.555611 0)
(1.10259 0.178294 1.20985e-22)
(0.99607 0.328914 -2.32188e-22)
(1.02434 0.0108032 3.94484e-22)
(0.970328 -0.12344 -3.65499e-23)
(0.960308 -0.0177679 5.52732e-23)
(0.992942 0.0438255 2.45247e-24)
(0.963584 0.00756787 1.54344e-23)
(0.960004 -0.011638 -7.72212e-24)
(0.971821 0.000113346 -7.39485e-25)
(0.943839 0.00750978 7.99637e-25)
(-0.233478 -0.0371988 1.76934e-20)
(-0.0114756 0.328215 -3.16489e-20)
(0.0750537 0.635848 -2.26922e-22)
(0.13807 0.832122 1.37966e-20)
(0.354082 0.646808 2.77699e-22)
(0.746398 0.137953 -3.37604e-22)
(0.99121 -0.313583 2.97942e-22)
(1.03097 -0.54206 -4.30059e-22)
(1.00948 -0.567482 0)
(0.961099 -0.454424 6.28836e-21)
(0.875911 -0.534247 -5.99817e-21)
(0.823725 -0.526727 -1.46958e-22)
(0.884587 -0.262775 0)
(0.871424 -0.0282613 -5.36225e-21)
(0.902752 0.363491 4.94036e-21)
(0.904808 0.45846 -2.11814e-21)
(0.898993 0.542722 2.02116e-21)
(0.983734 0.412419 1.94311e-21)
(0.991753 -0.0307795 -1.68199e-21)
(1.09918 -0.289225 0)
(1.11912 -0.570818 0)
(1.03964 -0.511726 2.24034e-21)
(1.08861 0.0512472 -2.13916e-21)
(1.01559 0.241953 -1.76879e-21)
(1.07112 0.546027 3.28981e-24)
(1.24233 0.44746 1.59033e-21)
(1.09034 -0.425754 -8.92657e-23)
(1.03125 -0.561825 -6.55304e-22)
(1.08575 0.177071 1.42035e-21)
(0.994061 0.333257 -1.08561e-21)
(1.03493 0.0171683 4.87385e-23)
(0.976232 -0.117943 -1.2675e-22)
(0.957144 -0.0198987 4.20884e-23)
(0.996172 0.0433846 -4.02424e-23)
(0.969013 0.00993581 -1.02838e-23)
(0.958615 -0.0118991 -5.46068e-24)
(0.971639 0.000885881 1.87348e-23)
(0.947016 0.00898437 2.72537e-24)
(-0.110262 -0.154648 0)
(0.0167379 0.144166 4.375e-21)
(0.0954786 0.521123 -4.31664e-21)
(0.235671 0.722347 0)
(0.521907 0.520294 -2.85437e-22)
(0.901122 0.0426416 3.46873e-22)
(1.12661 -0.34232 0)
(1.12922 -0.5283 1.72168e-23)
(1.05011 -0.559039 -2.8461e-22)
(1.01145 -0.428734 0)
(0.916578 -0.491888 -5.41469e-21)
(0.838963 -0.550171 5.31321e-21)
(0.94227 -0.294792 -2.69337e-22)
(0.890944 -0.0529009 -5.38458e-21)
(0.899004 0.328924 5.13548e-21)
(0.868296 0.443368 2.81249e-22)
(0.843216 0.529942 0)
(0.959395 0.413334 -1.84321e-22)
(0.99442 -0.0212862 3.72296e-21)
(1.10571 -0.29302 7.99462e-23)
(1.12353 -0.555837 4.39219e-22)
(1.01 -0.517595 -3.18478e-21)
(1.08207 0.0377874 -3.86276e-21)
(0.984091 0.224701 4.76032e-21)
(1.03056 0.51195 -4.10596e-22)
(1.23291 0.453631 0)
(1.0928 -0.387562 -3.60774e-22)
(1.01507 -0.565859 6.639e-22)
(1.06409 0.1681 -1.45421e-21)
(0.986319 0.332982 1.1134e-21)
(1.04052 0.0227923 -1.3992e-22)
(0.979789 -0.111626 0)
(0.951343 -0.0223446 -4.3376e-23)
(0.99648 0.0421079 8.47457e-23)
(0.972143 0.012603 2.98636e-23)
(0.954926 -0.0117513 3.09409e-23)
(0.968993 0.00135794 -1.8748e-23)
(0.948316 0.0102383 1.47911e-25)
(0.249532 -0.167216 5.16422e-23)
(0.215558 0.0024646 -5.07443e-23)
(0.251531 0.357638 0)
(0.405811 0.587543 0)
(0.711522 0.413872 0)
(1.06033 -0.0152308 0)
(1.2392 -0.342124 1.60829e-20)
(1.22385 -0.47939 -2.71436e-20)
(1.08811 -0.531406 1.17618e-20)
(1.04964 -0.406645 0)
(0.977834 -0.430088 -5.40957e-21)
(0.841709 -0.567485 5.31588e-21)
(0.979445 -0.346953 5.35045e-21)
(0.919697 -0.0749908 -4.48652e-21)
(0.896512 0.321682 5.20394e-21)
(0.844744 0.451319 -5.24908e-21)
(0.80689 0.512224 -2.05408e-22)
(0.937844 0.40308 -3.09199e-21)
(1.00031 -0.011838 2.94535e-21)
(1.1057 -0.288738 4.15424e-22)
(1.12402 -0.534041 3.73185e-22)
(0.975766 -0.526632 4.43096e-21)
(1.06562 0.0235736 -4.74494e-21)
(0.954471 0.21774 -9.53885e-22)
(0.990375 0.479694 -3.70805e-22)
(1.21491 0.461207 -2.88257e-22)
(1.09049 -0.342714 0)
(0.996457 -0.566198 0)
(1.03913 0.158322 0)
(0.975724 0.333072 0)
(1.04254 0.0296404 3.70943e-22)
(0.981597 -0.103559 -2.18386e-22)
(0.943694 -0.0245083 8.86649e-23)
(0.994262 0.0401877 -2.6457e-22)
(0.973072 0.0155818 2.92937e-23)
(0.949331 -0.011169 6.37102e-24)
(0.964242 0.0015253 -2.38092e-23)
(0.947937 0.0112457 -6.9158e-24)
(0.700279 -0.106631 -5.4298e-23)
(0.610191 -0.0330348 -1.19001e-20)
(0.511603 0.213847 1.13926e-20)
(0.589505 0.432889 -1.19988e-20)
(0.894059 0.309703 1.14234e-20)
(1.21584 -0.0481899 3.61814e-20)
(1.32016 -0.320963 -3.36323e-20)
(1.28355 -0.416456 3.76509e-22)
(1.12374 -0.489093 -2.94742e-22)
(1.05839 -0.399673 0)
(1.03775 -0.366919 -1.77662e-22)
(0.85669 -0.553744 1.04753e-20)
(0.97336 -0.401152 -9.97334e-21)
(0.939533 -0.107312 -3.62031e-22)
(0.899334 0.277055 0)
(0.813592 0.436434 -4.3903e-21)
(0.753044 0.503235 7.12612e-21)
(0.900276 0.406856 -2.70731e-21)
(1.0029 0.00701939 0)
(1.10589 -0.277676 2.73405e-21)
(1.12153 -0.507966 4.51337e-22)
(0.946434 -0.532519 -3.66142e-21)
(1.0415 -0.00467727 -5.47461e-21)
(0.924684 0.200148 5.05504e-21)
(0.946234 0.440628 -2.63822e-21)
(1.18373 0.466084 6.94492e-22)
(1.08359 -0.298429 1.91857e-21)
(0.979341 -0.565342 -2.61706e-21)
(1.0121 0.139603 2.48972e-21)
(0.960853 0.328612 -3.89026e-22)
(1.0402 0.0357926 3.69848e-22)
(0.981701 -0.0948872 0)
(0.934895 -0.0267673 8.98661e-23)
(0.989909 0.0374541 -1.05529e-23)
(0.971957 0.018716 0)
(0.942337 -0.0102047 -3.01358e-23)
(0.957871 0.00137472 1.61424e-23)
(0.946167 0.0119857 -2.51265e-24)
(1.0046 -0.0507629 0)
(0.975565 -0.0102943 0)
(0.84993 0.149689 3.26664e-23)
(0.830486 0.334531 0)
(1.09445 0.232212 0)
(1.35235 -0.0498284 3.03542e-20)
(1.3689 -0.27552 -2.8958e-20)
(1.307 -0.350211 2.13916e-20)
(1.16207 -0.435307 -2.04354e-20)
(1.05786 -0.401053 0)
(1.06837 -0.320483 -1.70909e-22)
(0.901131 -0.515355 1.49525e-22)
(0.941502 -0.464405 -1.2213e-20)
(0.944589 -0.154723 -1.88026e-21)
(0.894524 0.274914 1.2695e-20)
(0.784225 0.459287 1.52324e-22)
(0.730366 0.487531 -1.02358e-22)
(0.885257 0.387347 5.10463e-21)
(1.00798 0.0107913 -5.00218e-21)
(1.11006 -0.263664 0)
(1.11344 -0.472916 0)
(0.922834 -0.540601 -2.81135e-22)
(1.01291 -0.0274089 0)
(0.893092 0.195903 3.77574e-21)
(0.911429 0.410898 -5.91755e-22)
(1.15896 0.474261 -2.41579e-21)
(1.07743 -0.246828 -2.10178e-21)
(0.965653 -0.563422 1.43869e-21)
(0.985402 0.122853 -2.81871e-22)
(0.945755 0.325402 0)
(1.03556 0.0412694 -1.93384e-22)
(0.981065 -0.0856683 1.83339e-22)
(0.926058 -0.0284841 5.1061e-23)
(0.984073 0.0343964 2.32076e-23)
(0.969153 0.0220471 -3.76796e-23)
(0.934601 -0.00888059 1.26396e-23)
(0.950473 0.000947524 0)
(0.943357 0.0124599 5.53658e-24)
(1.10947 -0.0367394 2.92956e-20)
(1.10671 -0.0181708 4.13028e-21)
(1.04494 0.0740237 -8.28292e-21)
(1.03433 0.221065 3.98992e-21)
(1.21435 0.175893 1.10837e-22)
(1.3832 0.0101542 -1.84623e-22)
(1.3569 -0.174964 0)
(1.30542 -0.263596 -1.81557e-22)
(1.1958 -0.362057 -1.40529e-22)
(1.07331 -0.388164 0)
(1.07753 -0.294013 -1.05682e-20)
(0.949032 -0.456712 1.00572e-20)
(0.898798 -0.486153 1.65817e-22)
(0.909489 -0.229827 1.46726e-20)
(0.869472 0.199578 -1.38904e-20)
(0.759493 0.433458 1.58975e-22)
(0.686798 0.484202 1.08247e-22)
(0.84096 0.401275 0)
(1.00199 0.0439628 5.50107e-21)
(1.12258 -0.23817 -5.2222e-21)
(1.10301 -0.435733 -3.51041e-21)
(0.910143 -0.541181 -1.50017e-21)
(0.974259 -0.0675819 4.84406e-21)
(0.861586 0.170709 -3.83414e-21)
(0.872702 0.366554 1.01122e-21)
(1.11088 0.472418 4.11454e-21)
(1.07169 -0.198311 -1.25623e-21)
(0.958242 -0.556789 2.81238e-21)
(0.958014 0.0975413 -2.04763e-21)
(0.926366 0.317351 0)
(1.02771 0.0485097 0)
(0.980269 -0.0752371 0)
(0.918323 -0.0302197 3.84432e-23)
(0.977295 0.0304449 -4.86293e-23)
(0.965056 0.0252722 3.69439e-23)
(0.926862 -0.00732545 -2.20993e-23)
(0.94267 0.000195435 -1.20432e-23)
(0.939887 0.0126528 0)
(1.10638 -0.00991508 0)
(1.09727 0.0101419 0)
(1.08557 0.0659241 0)
(1.12896 0.128128 0)
(1.23859 0.0917082 0)
(1.34223 -0.000773424 0)
(1.29987 -0.137499 0)
(1.27015 -0.194483 0)
(1.21557 -0.268434 0)
(1.0866 -0.342559 0)
(1.08852 -0.236939 0)
(0.996317 -0.385518 0)
(0.877732 -0.514416 0)
(0.8559 -0.286998 0)
(0.833641 0.192174 0)
(0.707914 0.47107 0)
(0.671484 0.46867 0)
(0.868334 0.357575 0)
(1.02237 0.0274231 0)
(1.14309 -0.213307 0)
(1.09902 -0.404537 0)
(0.888263 -0.552427 0)
(0.926065 -0.0947436 0)
(0.821142 0.174553 0)
(0.835828 0.33559 0)
(1.10333 0.489323 0)
(1.08407 -0.166644 0)
(0.955811 -0.545786 0)
(0.930863 0.0782799 0)
(0.906166 0.313816 0)
(1.02011 0.0494576 0)
(0.979541 -0.0632013 0)
(0.91103 -0.0301479 0)
(0.968659 0.0265594 0)
(0.95919 0.0296354 0)
(0.918202 -0.00493403 0)
(0.933192 -0.000828053 0)
(0.935292 0.0126824 0)
(1.1198 0.0158713 0)
(1.11688 0.0148237 0)
(1.10919 0.0362614 0)
(1.15129 0.0771941 0)
(1.19702 0.0329994 0)
(1.25565 -0.0192622 0)
(1.24973 -0.11341 0)
(1.20229 -0.201033 0)
(1.15647 -0.256523 0)
(1.06505 -0.304099 0)
(1.00753 -0.254473 0)
(0.942464 -0.377528 0)
(0.862063 -0.434786 0)
(0.777208 -0.20687 0)
(0.752904 0.255036 0)
(0.626276 0.505707 0)
(0.687057 0.424597 0)
(0.911818 0.273217 0)
(1.06297 -0.0507815 0)
(1.15856 -0.257684 0)
(1.05277 -0.366002 0)
(0.818872 -0.479544 0)
(0.867763 -0.0457249 0)
(0.726474 0.200765 0)
(0.776757 0.297402 0)
(1.10177 0.43016 0)
(1.09014 -0.1749 0)
(0.952489 -0.511085 0)
(0.900709 0.108799 0)
(0.873476 0.30182 0)
(1.01035 0.0350053 0)
(0.978147 -0.052162 0)
(0.90174 -0.0275358 0)
(0.956079 0.0218932 0)
(0.950755 0.034072 0)
(0.909688 -0.002313 0)
(0.923277 -0.00264958 0)
(0.930205 0.0122114 0)
(1.11724 0.0215905 0)
(1.12552 0.0238652 0)
(1.11826 0.0189564 0)
(1.14691 0.0343049 0)
(1.17106 0.00909332 0)
(1.19266 -0.0363095 0)
(1.20188 -0.0996496 0)
(1.17064 -0.139385 0)
(1.13133 -0.188306 0)
(1.07046 -0.243152 0)
(1.03118 -0.166455 0)
(0.993414 -0.289621 0)
(0.84064 -0.385466 0)
(0.674647 -0.184574 0)
(0.636924 0.300824 0)
(0.592369 0.514546 0)
(0.772172 0.326119 0)
(0.981909 0.16691 0)
(1.10149 -0.0777155 0)
(1.15259 -0.211759 0)
(1.04588 -0.2948 0)
(0.779801 -0.455794 0)
(0.786174 -0.0469298 0)
(0.632629 0.203714 0)
(0.719123 0.215363 0)
(1.09439 0.382284 0)
(1.12326 -0.137116 0)
(0.946741 -0.482163 0)
(0.874645 0.11139 0)
(0.848012 0.27908 0)
(1.0056 0.0237815 0)
(0.976233 -0.0376338 0)
(0.893763 -0.0244289 0)
(0.944463 0.0156887 0)
(0.942953 0.038493 0)
(0.904374 0.000844637 0)
(0.916278 -0.00481285 0)
(0.926701 0.0113161 0)
(1.10892 0.0259616 0)
(1.11922 0.0199188 0)
(1.12291 0.0118227 0)
(1.1302 0.0124352 0)
(1.14667 -0.0145911 0)
(1.15655 -0.0371951 0)
(1.15016 -0.0870011 0)
(1.12896 -0.131017 0)
(1.09745 -0.162202 0)
(1.03988 -0.216809 0)
(0.974591 -0.188098 0)
(0.965706 -0.271176 0)
(0.831776 -0.251345 0)
(0.643392 -0.068843 0)
(0.583919 0.305553 0)
(0.688403 0.427362 0)
(0.926734 0.222066 0)
(1.07025 0.102872 0)
(1.13873 -0.119966 0)
(1.11865 -0.22245 0)
(1.02562 -0.22579 0)
(0.767656 -0.356299 0)
(0.669475 0.0154676 0)
(0.569237 0.216348 0)
(0.68958 0.123508 0)
(1.06188 0.297274 0)
(1.14052 -0.136956 0)
(0.930742 -0.418858 0)
(0.821635 0.13538 0)
(0.817871 0.252687 0)
(1.00457 0.00174808 0)
(0.975346 -0.0232226 0)
(0.888693 -0.0191403 0)
(0.935569 0.00979651 0)
(0.936524 0.0429622 0)
(0.903326 0.00391454 0)
(0.913883 -0.0073618 0)
(0.925921 0.0100923 0)
(1.10071 0.0243731 0)
(1.10869 0.0174356 0)
(1.11271 0.00440514 0)
(1.11718 0.000652594 0)
(1.12384 -0.0232684 0)
(1.12249 -0.0393987 0)
(1.12093 -0.0751617 0)
(1.10224 -0.102164 0)
(1.07505 -0.120625 0)
(1.04642 -0.162454 0)
(0.985414 -0.109977 0)
(0.955796 -0.186478 0)
(0.827539 -0.165403 0)
(0.718001 -0.014364 0)
(0.691817 0.254617 0)
(0.876026 0.309621 0)
(1.05977 0.115275 0)
(1.11849 0.0435791 0)
(1.15195 -0.103046 0)
(1.09077 -0.163397 0)
(1.03197 -0.146589 0)
(0.829045 -0.273673 0)
(0.620826 0.0505644 0)
(0.626122 0.190003 0)
(0.719308 0.0207008 0)
(1.01784 0.214663 0)
(1.16064 -0.11352 0)
(0.92656 -0.355833 0)
(0.749764 0.158415 0)
(0.809105 0.214351 0)
(1.01705 -0.0221212 0)
(0.974012 -0.00512806 0)
(0.884227 -0.0128026 0)
(0.929742 0.00280366 0)
(0.933285 0.0467111 0)
(0.907907 0.00644228 0)
(0.917752 -0.0101708 0)
(0.929486 0.0087314 0)
(1.08872 0.0208194 0)
(1.09615 0.0132065 0)
(1.10013 0.00121707 0)
(1.10167 -0.00493878 0)
(1.10384 -0.0252759 0)
(1.09852 -0.0358498 0)
(1.09672 -0.0617587 0)
(1.07644 -0.0832564 0)
(1.05738 -0.0928463 0)
(1.02491 -0.135546 0)
(0.974754 -0.0934768 0)
(0.971417 -0.147459 0)
(0.86913 -0.0929776 0)
(0.819298 0.0256764 0)
(0.82969 0.178702 0)
(1.00525 0.187561 0)
(1.11081 0.0703151 0)
(1.11915 0.0443907 0)
(1.13135 -0.0971161 0)
(1.03908 -0.156159 0)
(1.001 -0.0983878 0)
(0.889917 -0.168485 0)
(0.67698 0.101025 0)
(0.797266 0.175778 0)
(0.835924 -0.0416311 0)
(0.98517 0.113018 0)
(1.15645 -0.112356 0)
(0.919974 -0.260305 0)
(0.695711 0.190205 0)
(0.848318 0.154955 0)
(1.0376 -0.05084 0)
(0.963828 0.0182944 0)
(0.883438 -0.00527955 0)
(0.931838 -0.00549938 0)
(0.935953 0.0496696 0)
(0.919346 0.00813012 0)
(0.929222 -0.0131932 0)
(0.938568 0.00741609 0)
(1.07723 0.016439 0)
(1.08252 0.0105956 0)
(1.08662 -0.00112527 0)
(1.08546 -0.00721505 0)
(1.0868 -0.0231328 0)
(1.07816 -0.0323027 0)
(1.07722 -0.048284 0)
(1.05749 -0.0677139 0)
(1.04702 -0.0659858 0)
(1.02295 -0.0988655 0)
(0.98565 -0.0592754 0)
(0.98248 -0.0910955 0)
(0.901837 -0.0469134 0)
(0.899071 0.018489 0)
(0.919825 0.11131 0)
(1.03664 0.119167 0)
(1.08571 0.034796 0)
(1.09145 0.0276834 0)
(1.11992 -0.0595913 0)
(1.02215 -0.097938 0)
(0.984343 -0.0490858 0)
(0.938319 -0.106426 0)
(0.785667 0.097227 0)
(0.966276 0.132656 0)
(0.982756 -0.0596568 0)
(0.98117 0.0664361 0)
(1.13117 -0.0969677 0)
(0.93145 -0.175481 0)
(0.723775 0.19558 0)
(0.927766 0.0847014 0)
(1.05267 -0.0676703 0)
(0.954624 0.0477431 0)
(0.905318 -0.00138084 0)
(0.949622 -0.0159985 0)
(0.947118 0.0519247 0)
(0.941293 0.00875447 0)
(0.948894 -0.0161818 0)
(0.952222 0.00647744 0)
(1.06631 0.0132287 0)
(1.06942 0.00794422 0)
(1.0737 -0.00118991 0)
(1.07025 -0.00774499 0)
(1.07269 -0.0182754 0)
(1.06179 -0.0272538 0)
(1.06338 -0.0356598 0)
(1.0449 -0.0509072 0)
(1.03892 -0.0463613 0)
(1.01978 -0.0710861 0)
(0.992018 -0.0422205 0)
(0.991345 -0.0635612 0)
(0.941957 -0.0241909 0)
(0.952088 0.0106794 0)
(0.957832 0.0629196 0)
(1.03524 0.069481 0)
(1.06113 0.0248371 0)
(1.05943 0.0228997 0)
(1.08286 -0.046613 0)
(1.01122 -0.0739272 0)
(0.98939 -0.0313765 0)
(0.972627 -0.0640165 0)
(0.886094 0.0773412 0)
(1.0377 0.089535 0)
(1.03546 -0.0518807 0)
(0.991656 0.0408372 0)
(1.08691 -0.0908972 0)
(0.932713 -0.0978209 0)
(0.818107 0.195615 0)
(1.00756 0.0283837 0)
(1.04596 -0.0700684 0)
(0.951649 0.0751169 0)
(0.951327 -0.00206993 0)
(0.973895 -0.0235586 0)
(0.962627 0.0543206 0)
(0.972704 0.00797401 0)
(0.972207 -0.0176517 0)
(0.96816 0.00663847 0)
(1.05657 0.0109523 0)
(1.0578 0.00633563 0)
(1.06217 -0.000204125 0)
(1.05775 -0.00661428 0)
(1.06018 -0.012891 0)
(1.05012 -0.0217601 0)
(1.05146 -0.0246067 0)
(1.03665 -0.0380926 0)
(1.03316 -0.0313245 0)
(1.01868 -0.0495334 0)
(1.00225 -0.0275676 0)
(1.00037 -0.0399516 0)
(0.9703 -0.0116169 0)
(0.982597 0.00406119 0)
(0.981406 0.0333304 0)
(1.02629 0.042319 0)
(1.0399 0.0115965 0)
(1.04418 0.0131969 0)
(1.05958 -0.0259108 0)
(1.01127 -0.0439234 0)
(0.995687 -0.0107978 0)
(0.988691 -0.0401215 0)
(0.939284 0.0469509 0)
(1.0491 0.0573524 0)
(1.03527 -0.0409857 0)
(1.00686 0.0410628 0)
(1.05818 -0.0648742 0)
(0.929404 -0.0569361 0)
(0.917156 0.16844 0)
(1.0615 -0.00342422 0)
(1.02513 -0.0544955 0)
(0.965128 0.0919476 0)
(1.00788 -0.00757301 0)
(0.992637 -0.0249872 0)
(0.984019 0.055668 0)
(1.00884 0.00619442 0)
(0.99485 -0.0161758 0)
(0.987134 0.00808388 0)
(1.04796 0.00953951 0)
(1.04814 0.00535847 0)
(1.05203 0.00121472 0)
(1.04753 -0.00493755 0)
(1.04979 -0.0079829 0)
(1.04154 -0.0162224 0)
(1.04238 -0.0159393 0)
(1.03184 -0.0270164 0)
(1.02882 -0.0200535 0)
(1.01991 -0.0333236 0)
(1.00848 -0.0171841 0)
(1.00763 -0.0264818 0)
(0.989508 -0.00662413 0)
(0.99985 0.000555728 0)
(0.995505 0.0154327 0)
(1.02137 0.0234288 0)
(1.03 0.00588176 0)
(1.0306 0.00788324 0)
(1.04021 -0.0161942 0)
(1.01176 -0.0295273 0)
(1.00051 -0.00577896 0)
(1.00463 -0.0242005 0)
(0.966098 0.0263936 0)
(1.04356 0.0395538 0)
(1.02075 -0.0300137 0)
(1.00711 0.0321841 0)
(1.05059 -0.0454977 0)
(0.939311 -0.0341655 0)
(0.977145 0.132858 0)
(1.07727 -0.0128363 0)
(0.998616 -0.0364867 0)
(0.991762 0.0887715 0)
(1.04935 -0.0116183 0)
(0.996568 -0.0194928 0)
(1.00624 0.0518387 0)
(1.03694 0.00442819 0)
(1.00967 -0.0118535 0)
(1.00425 0.00954213 0)
(1.04052 0.0085777 0)
(1.0402 0.00492578 0)
(1.04327 0.00250803 0)
(1.03977 -0.00288569 0)
(1.04124 -0.00387113 0)
(1.03552 -0.0111841 0)
(1.03528 -0.00915035 0)
(1.02881 -0.0185748 0)
(1.02566 -0.0118132 0)
(1.02093 -0.022235 0)
(1.01267 -0.0103743 0)
(1.01329 -0.0172927 0)
(1.00142 -0.00412523 0)
(1.00914 -0.00126512 0)
(1.00501 0.00609054 0)
(1.01827 0.0127558 0)
(1.02315 0.00141193 0)
(1.0237 0.00393588 0)
(1.02856 -0.00870909 0)
(1.01432 -0.0165055 0)
(1.0039 -0.00153701 0)
(1.01231 -0.0116863 0)
(0.981625 0.0123212 0)
(1.0341 0.0265996 0)
(1.01707 -0.0205565 0)
(1.00516 0.0257412 0)
(1.04538 -0.0221931 0)
(0.952816 -0.0216423 0)
(0.999452 0.0933147 0)
(1.07342 -0.00829482 0)
(0.983557 -0.0189044 0)
(1.01433 0.0720614 0)
(1.06191 -0.00917961 0)
(0.994454 -0.010469 0)
(1.02255 0.0421203 0)
(1.04869 0.00478067 0)
(1.0159 -0.00517595 0)
(1.01529 0.010483 0)
(1.03412 0.00789949 0)
(1.03384 0.00482958 0)
(1.03612 0.0036249 0)
(1.03367 -0.000914946 0)
(1.03445 -0.000803097 0)
(1.0308 -0.00693189 0)
(1.02999 -0.00439974 0)
(1.02643 -0.012055 0)
(1.02331 -0.00622945 0)
(1.02154 -0.0144943 0)
(1.01517 -0.00558078 0)
(1.01666 -0.0115453 0)
(1.0086 -0.00247179 0)
(1.01396 -0.00223713 0)
(1.01015 0.00179413 0)
(1.01729 0.00600553 0)
(1.01935 -0.000363218 0)
(1.0197 0.00244986 0)
(1.02101 -0.00571553 0)
(1.01536 -0.00815967 0)
(1.00577 -0.00182814 0)
(1.01617 -0.00500027 0)
(0.99373 0.00564593 0)
(1.02522 0.0172584 0)
(1.01686 -0.0116887 0)
(1.00115 0.0168932 0)
(1.03956 -0.00970057 0)
(0.972586 -0.0118028 0)
(1.0055 0.0614209 0)
(1.06008 -0.000546802 0)
(0.983538 -0.00774456 0)
(1.02527 0.0509238 0)
(1.05577 -0.00273619 0)
(0.997389 -0.00359872 0)
(1.03043 0.0294623 0)
(1.04726 0.00675099 0)
(1.01834 0.00086552 0)
(1.02125 0.0100143 0)
(1.02893 0.00736305 0)
(1.02877 0.00485641 0)
(1.03036 0.00437068 0)
(1.02875 0.000679153 0)
(1.02918 0.00130572 0)
(1.02693 -0.00364778 0)
(1.02609 -0.0011263 0)
(1.02417 -0.00730916 0)
(1.02168 -0.00244841 0)
(1.02117 -0.00916462 0)
(1.01662 -0.00240081 0)
(1.01817 -0.00770885 0)
(1.01257 -0.00111897 0)
(1.01624 -0.00255298 0)
(1.01291 0.000276178 0)
(1.01695 0.00265813 0)
(1.01679 -0.00136981 0)
(1.01766 0.00207087 0)
(1.01701 -0.00429599 0)
(1.01584 -0.00236046 0)
(1.0082 -0.00167869 0)
(1.01689 -0.000582769 0)
(1.0015 0.00305805 0)
(1.01973 0.0102423 0)
(1.01686 -0.00411592 0)
(1.00288 0.0109098 0)
(1.03219 -0.000505532 0)
(0.988046 -0.00306549 0)
(1.0085 0.0369548 0)
(1.04636 0.0063172 0)
(0.991606 0.000697538 0)
(1.02748 0.0338679 0)
(1.04458 0.0046595 0)
(1.0045 0.000975298 0)
(1.03194 0.0190331 0)
(1.04098 0.00982101 0)
(1.02022 0.00584646 0)
(1.02445 0.00945097 0)
(1.02471 0.00687302 0)
(1.02465 0.00484834 0)
(1.02578 0.00476145 0)
(1.02477 0.00186296 0)
(1.02508 0.00262907 0)
(1.02371 -0.00123663 0)
(1.02307 0.000935246 0)
(1.022 -0.00392855 0)
(1.02023 -3.66873e-05 0)
(1.02024 -0.00553409 0)
(1.01712 -0.000214777 0)
(1.01841 -0.00515079 0)
(1.01451 0.00013663 0)
(1.01703 -0.00241618 0)
(1.01417 0.000159984 0)
(1.01664 0.00106375 0)
(1.01556 -0.00152745 0)
(1.01637 0.00244891 0)
(1.01526 -0.00374527 0)
(1.01542 0.00140698 0)
(1.01009 -0.00215894 0)
(1.01645 0.00161535 0)
(1.00657 0.00231251 0)
(1.01706 0.00549154 0)
(1.01555 0.00148147 0)
(1.00619 0.0058082 0)
(1.02526 0.00348514 0)
(0.999692 0.00241616 0)
(1.01156 0.0206873 0)
(1.03451 0.010511 0)
(1.00063 0.00419992 0)
(1.02681 0.0209371 0)
(1.03519 0.0100197 0)
(1.0116 0.00261592 0)
(1.03085 0.011041 0)
(1.03511 0.0122124 0)
(1.022 0.00855641 0)
(1.02626 0.00822901 0)
(1.02129 0.00634349 0)
(1.02129 0.00474935 0)
(1.02216 0.0048549 0)
(1.02151 0.00263829 0)
(1.02182 0.00335247 0)
(1.02096 0.000412154 0)
(1.02061 0.00214514 0)
(1.01997 -0.00161067 0)
(1.01883 0.00143881 0)
(1.019 -0.00302857 0)
(1.01691 0.00121558 0)
(1.01797 -0.00328476 0)
(1.01512 0.00119353 0)