/*--------------------------------*- C++ -*----------------------------------*\
| =========                 |                                                 |
| \\      /  F ield         | OpenFOAM: The Open Source CFD Toolbox           |
|  \\    /   O peration     | Version:  2312                                  |
|   \\  /    A nd           | Website:  www.openfoam.com                      |
|    \\/     M anipulation  |                                                 |
\*---------------------------------------------------------------------------*/
FoamFile
{
    version     2.0;
    format      ascii;
    arch        "LSB;label=32;scalar=64";
    class       volVectorField;
    location    "136";
    object      U;
}
// * * * * * * * * * * * * * * * * * * * * * * * * * * * * * * * * * * * * * //

dimensions      [0 1 -1 0 0 0 0];

internalField   nonuniform List<vector> 
5478
(
(-0.0466001 0.0295405 -9.65951e-20)
(-0.0784419 0.0475397 0)
(-0.047285 0.0469152 1.43946e-19)
(0.0688335 0.0383974 -2.50907e-19)
(0.28023 0.0263378 1.62083e-19)
(0.556812 0.0166068 -4.88039e-20)
(0.844218 0.0107158 -8.30017e-20)
(1.09374 0.00566432 0)
(1.2743 -0.00255332 0)
(1.37395 -0.0175051 1.0937e-19)
(1.40178 -0.0390147 -4.97363e-20)
(1.38291 -0.0613724 -8.32109e-20)
(1.34697 -0.0945557 -3.21722e-20)
(1.32616 -0.0978852 0)
(1.29616 -0.160462 8.34929e-20)
(-0.0558201 0.0341391 1.94154e-19)
(-0.0623575 0.0442225 0)
(0.0359458 0.0324613 0)
(0.259873 0.0199982 -1.27482e-19)
(0.572774 0.0172536 1.67274e-19)
(0.888503 0.0227179 4.74504e-20)
(1.14029 0.0291423 -8.11939e-20)
(1.30019 0.0300687 7.1998e-20)
(1.37205 0.0219346 1.77753e-19)
(1.38279 0.00589772 -1.55427e-19)
(1.36648 -0.0126865 3.70621e-21)
(1.34737 -0.0353139 0)
(1.33417 -0.0503238 3.2116e-20)
(1.31061 -0.070088 0)
(1.27973 -0.0878479 0)
(-0.0564561 0.0311154 -5.67389e-22)
(-0.0168783 0.0307681 -9.17623e-20)
(0.184803 0.0184338 7.87749e-22)
(0.526866 0.0223237 0)
(0.881949 0.0393392 -5.72043e-20)
(1.14978 0.0555726 4.81988e-20)
(1.30316 0.0624395 4.03702e-20)
(1.36311 0.0579611 0)
(1.37083 0.0459161 -5.90503e-20)
(1.36101 0.031077 4.987e-20)
(1.34833 0.014348 4.18936e-20)
(1.3324 0.00107915 0)
(1.30663 -0.0170748 0)
(1.27965 -0.0259119 -8.63015e-20)
(1.25455 -0.0468487 7.68817e-20)
(-0.0458663 0.0219983 -1.07577e-19)
(0.0712972 0.0104444 9.04885e-20)
(0.407083 0.0177289 -7.81081e-20)
(0.814063 0.0502741 6.90983e-20)
(1.12319 0.0802749 1.1503e-19)
(1.29384 0.0947552 -9.61195e-20)
(1.36011 0.0942494 -4.03497e-20)
(1.37284 0.0852967 3.15705e-20)
(1.3656 0.0729573 -3.01321e-20)
(1.35023 0.058958 0)
(1.32924 0.0457092 0)
(1.30494 0.0293574 -5.95642e-20)
(1.2845 0.0177005 7.73937e-20)
(1.26574 0.00326046 -4.35385e-20)
(1.24537 -0.0115249 0)
(-0.0210348 0.00987954 5.45439e-20)
(0.215974 -0.00167478 4.58895e-20)
(0.666424 0.0452053 -1.65326e-19)
(1.0495 0.0976928 2.50283e-21)
(1.26746 0.126119 -1.7069e-21)
(1.35659 0.13245 -1.69835e-21)
(1.37715 0.126597 3.85768e-20)
(1.36849 0.115494 3.25901e-20)
(1.34862 0.102209 2.36517e-20)
(1.32623 0.0884527 -3.52567e-21)
(1.30562 0.0735874 -5.39299e-20)
(1.28803 0.0610799 0)
(1.26862 0.0479355 2.45091e-20)
(1.24691 0.034819 -1.82191e-20)
(1.22572 0.0257803 3.27161e-20)
(0.026115 -0.00235861 -1.18814e-19)
(0.413252 0.0129457 1.28197e-19)
(0.899634 0.0968079 -4.40603e-20)
(1.20765 0.152469 3.29503e-20)
(1.34331 0.172145 -6.08803e-20)
(1.37964 0.170963 -4.51304e-20)
(1.37249 0.160579 1.35848e-21)
(1.3517 0.146974 0)
(1.33001 0.132542 4.79507e-20)
(1.30996 0.117803 -4.26416e-20)
(1.29023 0.104217 1.70964e-20)
(1.26881 0.0899548 0)
(1.24845 0.0769324 1.04886e-20)
(1.23052 0.0641863 -1.84944e-20)
(1.21364 0.0542607 0)
(0.10038 -0.00530318 -1.4905e-20)
(0.623396 0.0629782 1.3712e-21)
(1.07677 0.162747 2.14585e-20)
(1.30295 0.210826 3.60864e-20)
(1.37529 0.219759 -2.75265e-20)
(1.37717 0.21088 4.62509e-20)
(1.35694 0.196282 -1.0472e-20)
(1.33324 0.180467 0)
(1.30977 0.164356 -2.82368e-20)
(1.28717 0.148661 1.87516e-21)
(1.26608 0.132954 2.35223e-20)
(1.24789 0.118652 0)
(1.23077 0.105136 -1.52794e-20)
(1.21346 0.0918392 0)
(1.19635 0.084392 9.34257e-21)
(0.197311 0.00831152 -1.64019e-20)
(0.804769 0.136866 0)
(1.1974 0.236931 2.27022e-20)
(1.3501 0.27145 0)
(1.37775 0.268433 0)
(1.36097 0.252555 0)
(1.33433 0.233882 -8.95412e-21)
(1.30789 0.214942 0)
(1.2843 0.196382 5.69931e-21)
(1.26367 0.178415 0)
(1.24494 0.161881 -7.35486e-21)
(1.22637 0.145848 0)
(1.20892 0.130746 4.78536e-21)
(1.19356 0.117637 0)
(1.1799 0.107929 3.11201e-21)
(-0.00381318 0.139477 -1.25641e-20)
(-0.0156319 0.300535 0)
(-0.0428822 0.372531 1.95197e-20)
(-0.0735697 0.405152 0)
(-0.100853 0.429987 0)
(-0.120655 0.452512 0)
(-0.12975 0.4668 -1.32814e-20)
(-0.125555 0.466322 0)
(-0.106244 0.446116 1.17488e-20)
(-0.0710522 0.402774 0)
(-0.021566 0.335338 -2.10328e-20)
(0.0398432 0.244734 0)
(0.11121 0.132403 1.83176e-20)
(0.175366 -0.00641589 0)
(0.25688 -0.161035 1.4886e-20)
(-0.0096254 0.129569 6.28528e-20)
(-0.0180097 0.304481 -4.43751e-20)
(-0.0277245 0.392858 1.93578e-20)
(-0.0384942 0.430598 6.95536e-20)
(-0.0439215 0.450468 8.65286e-22)
(-0.0389692 0.46256 -5.74109e-20)
(-0.0202417 0.463595 3.91764e-20)
(0.014073 0.448045 0)
(0.0640148 0.411901 3.69918e-20)
(0.129045 0.353715 2.86551e-21)
(0.206268 0.274415 -2.01199e-20)
(0.28398 0.169942 0)
(0.382581 0.0613497 -5.46316e-20)
(0.446097 -0.0803884 0)
(0.56154 -0.223224 -7.3806e-20)
(-0.0132746 0.10325 1.00366e-19)
(-0.0215815 0.277072 2.15476e-20)
(-0.0156266 0.381819 -3.87811e-20)
(-0.00579111 0.428767 -1.03399e-19)
(0.0116045 0.445991 6.08683e-20)
(0.0410425 0.448085 5.70728e-20)
(0.0854065 0.436588 -1.00769e-19)
(0.14566 0.408463 0)
(0.220288 0.361757 -9.41214e-20)
(0.306159 0.291637 8.36808e-20)
(0.401895 0.213069 3.9363e-20)
(0.487254 0.103105 0)
(0.60554 0.00658314 3.62971e-20)
(0.674736 -0.133957 -6.22307e-20)
(0.834322 -0.269991 0)
(-0.0137238 0.0693103 4.93278e-20)
(-0.026397 0.222892 -1.30327e-19)
(-0.0125982 0.335756 1.51704e-19)
(0.0131096 0.393283 -1.31942e-19)
(0.0502768 0.412466 -5.76468e-20)
(0.10088 0.408326 5.16236e-20)
(0.165972 0.387085 5.01855e-20)
(0.245297 0.348634 4.35002e-20)
(0.335439 0.297209 -1.2834e-19)
(0.433159 0.221787 -4.71767e-21)
(0.537909 0.15061 3.4191e-20)
(0.642757 0.0427796 0)
(0.783381 -0.0455743 6.25242e-20)
(0.884405 -0.197923 1.79798e-19)
(1.08874 -0.309438 -1.04407e-19)
(-0.0122982 0.0389673 -4.37961e-22)
(-0.0321306 0.157794 8.4672e-20)
(-0.0210261 0.262087 -7.31646e-20)
(0.0108304 0.322517 6.53367e-20)
(0.0601769 0.343997 1.12606e-19)
(0.125393 0.337735 -1.00173e-19)
(0.204804 0.312155 -4.37385e-20)
(0.296329 0.270188 -1.29008e-19)
(0.399561 0.218521 1.16676e-19)
(0.517494 0.148537 0)
(0.653384 0.0792729 0)
(0.808536 -0.0295683 1.31408e-19)
(0.985675 -0.11015 -2.98303e-19)
(1.1384 -0.25854 1.05872e-19)
(1.31028 -0.329496 0)
(-0.0126916 0.0200626 5.16967e-22)
(-0.040764 0.101084 -8.34701e-20)
(-0.0397452 0.180407 2.17938e-19)
(-0.0110837 0.229995 -6.30297e-20)
(0.0415121 0.247496 -5.5004e-20)
(0.114927 0.239641 4.85896e-20)
(0.209669 0.214092 4.37701e-20)
(0.329312 0.175306 7.9616e-20)
(0.478543 0.124012 -1.41512e-19)
(0.656566 0.0616171 6.60349e-20)
(0.855331 -0.0111518 6.10073e-20)
(1.06085 -0.095364 0)
(1.23851 -0.168977 0)
(1.37468 -0.268815 1.76241e-19)
(1.42394 -0.302134 -1.5648e-19)
(-0.0191657 0.0149523 -2.41739e-22)
(-0.0557714 0.0646802 0)
(-0.0648805 0.111999 0)
(-0.0388922 0.140994 1.20671e-19)
(0.0233747 0.148195 -5.38935e-20)
(0.126805 0.136666 4.59152e-20)
(0.277215 0.111074 8.31359e-20)
(0.472406 0.0766007 -7.37076e-20)
(0.698016 0.0318515 7.08954e-20)
(0.932809 -0.0125375 -6.60985e-20)
(1.14795 -0.0692872 -5.45186e-21)
(1.31802 -0.116641 0)
(1.42037 -0.171363 4.20978e-20)
(1.44234 -0.223426 0)
(1.39435 -0.235608 0)
(-0.0323515 0.0205362 -9.43698e-20)
(-0.0729164 0.0496777 0)
(-0.0770118 0.0682941 -1.41286e-19)
(-0.0284063 0.0758974 2.45634e-19)
(0.0861038 0.0705754 -2.6458e-19)
(0.270626 0.0549634 -4.5545e-20)
(0.510329 0.0346955 8.17141e-20)
(0.772483 0.0126599 0)
(1.02214 -0.010382 0)
(1.22663 -0.035526 -1.19379e-19)
(1.3633 -0.066924 -5.39379e-20)
(1.42503 -0.0937356 9.31218e-20)
(1.41604 -0.136465 -4.21873e-20)
(1.36621 -0.155389 0)
(1.32558 -0.180978 -1.02848e-19)
(0.387297 -0.453785 0)
(0.485252 -0.73288 3.96059e-21)
(0.588575 -0.768221 -3.6399e-21)
(0.529459 -0.739211 0)
(0.297034 -0.765676 0)
(0.395685 -0.405955 -9.23226e-23)
(0.609546 0.160656 0)
(0.741292 0.424707 0)
(0.868029 0.55291 5.84471e-23)
(0.840553 0.54384 0)
(0.717314 0.654661 0)
(0.69847 0.480219 -9.33109e-23)
(0.786594 0.0858495 0)
(0.954625 -0.0768712 -9.64999e-23)
(0.959583 -0.429917 -9.61782e-23)
(0.983172 -0.491795 0)
(1.00228 -0.549885 -4.82693e-22)
(0.987058 -0.373885 5.80137e-22)
(1.01626 0.102605 0)
(1.02562 0.303817 5.11176e-22)
(1.10474 0.612399 -5.97186e-22)
(1.08523 0.46689 1.18779e-22)
(1.05039 -0.060027 -2.28241e-22)
(1.12985 -0.275102 2.18088e-22)
(1.05934 -0.573457 -1.96308e-22)
(1.15453 -0.344227 0)
(1.16482 0.544212 -2.45879e-22)
(1.12424 0.572492 2.35101e-22)
(1.0723 -0.19398 -1.6875e-22)
(0.996087 -0.341697 0)
(1.02885 0.0433442 -7.17801e-23)
(0.985019 0.118414 0)
(0.970593 -0.00802589 -4.37001e-23)
(0.958882 -0.021879 -1.29308e-23)
(0.962776 0.00196193 1.28355e-24)
(0.95839 0.000891557 -9.371e-24)
(0.950142 -6.72932e-05 0)
(0.948499 0.00117836 2.24517e-24)
(0.677643 -0.511161 2.72627e-20)
(0.722372 -0.794536 -1.45414e-22)
(0.710999 -0.828745 -1.00663e-20)
(0.699665 -0.680142 9.60145e-21)
(0.471884 -0.684375 0)
(0.345244 -0.474097 9.30402e-23)
(0.505508 0.0495774 -1.15582e-22)
(0.676011 0.33103 0)
(0.834681 0.520409 -5.88909e-23)
(0.792469 0.58547 0)
(0.639777 0.691252 0)
(0.682488 0.46247 9.39838e-23)
(0.783945 0.0307207 0)
(0.994574 -0.116004 3.28914e-21)
(0.989125 -0.432024 -2.75818e-21)
(1.00205 -0.508229 2.33638e-21)
(1.0354 -0.553995 -2.23017e-21)
(0.983937 -0.379233 -1.1999e-22)
(1.01763 0.0944307 0)
(0.995678 0.279007 0)
(1.07699 0.597471 -1.18847e-22)
(1.0809 0.474822 9.28367e-22)
(1.04367 -0.0569652 -1.64117e-21)
(1.15063 -0.278807 8.10795e-22)
(1.06495 -0.571459 5.84213e-22)
(1.12391 -0.35837 0)
(1.15307 0.542269 6.17997e-22)
(1.13632 0.574609 0)
(1.09798 -0.177732 1.6934e-22)
(1.00406 -0.342441 -2.2102e-22)
(1.02823 0.0434349 3.61017e-22)
(0.99156 0.122485 -4.5852e-23)
(0.977699 -0.00613483 8.038e-23)
(0.967546 -0.0215947 3.48069e-24)
(0.970655 0.00214843 1.57358e-23)
(0.96356 0.00172598 -8.03508e-24)
(0.956479 0.00045016 -6.54328e-25)
(0.954607 0.00128887 6.48421e-25)
(0.932219 -0.53892 4.44922e-20)
(0.976507 -0.749225 -7.37288e-20)
(0.841815 -0.811225 1.03999e-20)
(0.785528 -0.641959 1.8762e-20)
(0.646769 -0.581142 1.58321e-22)
(0.404289 -0.495176 -1.12204e-22)
(0.479885 -0.0661091 1.17573e-22)
(0.640238 0.226278 -1.59789e-22)
(0.811021 0.489438 0)
(0.803898 0.625454 7.44879e-21)
(0.63794 0.720899 -7.10548e-21)
(0.706997 0.453901 -2.57654e-22)
(0.812778 -0.0177499 0)
(1.02745 -0.149615 -6.5237e-21)
(1.0234 -0.409662 6.02944e-21)
(1.02327 -0.510756 -2.40647e-21)
(1.06027 -0.552133 2.29622e-21)
(0.979268 -0.386967 2.71065e-21)
(1.01738 0.087457 -2.31883e-21)
(0.965043 0.263746 0)
(1.04444 0.582004 0)
(1.07397 0.484752 1.49129e-21)
(1.03904 -0.0466339 -1.42351e-21)
(1.16225 -0.276161 -1.54096e-21)
(1.0634 -0.560634 -4.78242e-22)
(1.08115 -0.377283 1.84464e-21)
(1.13436 0.533645 3.11068e-23)
(1.14253 0.580893 -7.01896e-22)
(1.11775 -0.15232 1.34663e-21)
(1.00882 -0.338373 -1.10339e-21)
(1.02429 0.0426344 5.94029e-23)
(0.995484 0.126152 -1.31452e-22)
(0.982307 -0.00359254 5.61281e-23)
(0.974093 -0.0211994 -5.3666e-23)
(0.976401 0.00254291 -1.04503e-23)
(0.966477 0.00268731 -5.9668e-24)
(0.960496 0.000920883 1.59049e-23)
(0.958472 0.0014107 2.30041e-24)
(1.1328 -0.563499 0)
(1.14548 -0.691074 2.85254e-20)
(0.983781 -0.729384 -2.80363e-20)
(0.812995 -0.608387 0)
(0.750256 -0.481478 -1.62725e-22)
(0.529761 -0.472965 1.15284e-22)
(0.542675 -0.176107 0)
(0.685302 0.108222 3.27423e-23)
(0.808436 0.428693 -1.99446e-22)
(0.751058 0.652953 0)
(0.587671 0.760148 -8.68965e-21)
(0.733359 0.456937 8.54801e-21)
(0.863512 -0.0536334 -5.73413e-22)
(1.05648 -0.182906 -6.68692e-21)
(1.06138 -0.392275 6.37568e-21)
(1.04996 -0.514329 3.22766e-22)
(1.07807 -0.551516 0)
(0.977631 -0.397186 -2.87313e-22)
(1.02099 0.0680183 5.19089e-21)
(0.936313 0.236913 -5.99589e-22)
(1.0017 0.55429 -9.79562e-22)
(1.05518 0.492011 -2.73954e-21)
(1.03487 -0.035135 -2.5154e-21)
(1.16433 -0.272123 3.03398e-21)
(1.06006 -0.54635 -3.78889e-22)
(1.03373 -0.395771 0)
(1.10551 0.504718 -6.64137e-22)
(1.13694 0.576036 7.11179e-22)
(1.13014 -0.128498 -1.25621e-21)
(1.01112 -0.333103 1.0136e-21)
(1.0174 0.0394193 -1.74065e-22)
(0.996521 0.12846 0)
(0.98431 -0.000960256 -5.5492e-23)
(0.978472 -0.0209402 1.00663e-22)
(0.979934 0.00305802 3.22344e-23)
(0.967156 0.0037528 3.22471e-23)
(0.962262 0.00133408 -1.59161e-23)
(0.960161 0.00153799 2.22705e-26)
(1.29522 -0.520465 5.55531e-22)
(1.206 -0.605756 9.62684e-22)
(1.06426 -0.612166 0)
(0.842356 -0.564904 0)
(0.791733 -0.429162 0)
(0.662262 -0.43615 0)
(0.624175 -0.27368 3.81701e-21)
(0.752896 -0.00428211 -9.04675e-21)
(0.82029 0.385895 5.59059e-21)
(0.766325 0.68542 0)
(0.661754 0.775278 -8.95718e-21)
(0.809989 0.46154 8.76663e-21)
(0.936347 -0.071482 9.40097e-21)
(1.0862 -0.208921 -7.93156e-21)
(1.09032 -0.367744 5.81825e-21)
(1.06719 -0.504551 -5.87638e-21)
(1.08053 -0.54471 -2.6974e-22)
(0.968275 -0.412532 -5.53943e-21)
(1.01579 0.0541295 5.27973e-21)
(0.904383 0.227538 6.14051e-22)
(0.96147 0.532484 4.66444e-22)
(1.03636 0.498531 2.07961e-21)
(1.03373 -0.0196407 -2.32169e-21)
(1.15894 -0.262086 -6.36227e-22)
(1.05749 -0.526017 -3.22887e-22)
(0.983102 -0.41781 -6.64e-22)
(1.07125 0.477109 0)
(1.12842 0.578899 0)
(1.13666 -0.0977127 0)
(1.01146 -0.323339 0)
(1.00852 0.0357023 4.68652e-22)
(0.995316 0.130468 -2.78542e-22)
(0.984119 0.00197648 1.07908e-22)
(0.980901 -0.0206256 -3.00469e-22)
(0.981348 0.00378424 3.24839e-23)
(0.965775 0.004952 6.11651e-24)
(0.962031 0.00170301 -2.02893e-23)
(0.959899 0.00167312 -5.81929e-24)
(1.3555 -0.428353 -5.85078e-22)
(1.22065 -0.494234 4.94473e-20)
(1.092 -0.504551 -4.75439e-20)
(0.914283 -0.498075 -2.47192e-20)
(0.813516 -0.40554 2.35431e-20)
(0.763334 -0.401907 1.23144e-20)
(0.695014 -0.340553 -1.14883e-20)
(0.777576 -0.118923 1.65491e-22)
(0.842949 0.287977 -2.21385e-22)
(0.756777 0.633431 0)
(0.623403 0.783857 -2.56763e-22)
(0.803974 0.506148 2.05406e-20)
(0.98213 -0.0493256 -1.95434e-20)
(1.11709 -0.212861 -4.80047e-22)
(1.11818 -0.340123 0)
(1.08685 -0.486642 -5.21741e-21)
(1.07752 -0.53573 9.9779e-21)
(0.954539 -0.427812 -4.44874e-21)
(1.00543 0.0234065 0)
(0.87794 0.199983 3.93719e-21)
(0.914946 0.494841 -1.80991e-21)
(1.00147 0.503365 -2.87863e-21)
(1.02903 0.000198088 -2.46058e-21)
(1.14981 -0.248931 2.38751e-21)
(1.05494 -0.502976 -4.05905e-21)
(0.939013 -0.435466 -1.75784e-21)
(1.02902 0.429594 6.05726e-21)
(1.10537 0.570478 -1.71384e-21)
(1.13406 -0.0721242 1.62932e-21)
(1.01055 -0.312941 -4.72638e-22)
(0.997666 0.0296231 4.49466e-22)
(0.991299 0.131026 0)
(0.981704 0.00479405 1.04649e-22)
(0.981514 -0.0204327 -1.72011e-23)
(0.980778 0.00462657 0)
(0.962626 0.0062207 -3.16985e-23)
(0.960192 0.00199906 1.31817e-23)
(0.958026 0.00180825 -2.10314e-24)
(1.31351 -0.329972 0)
(1.21757 -0.390965 0)
(1.10438 -0.422531 -1.57909e-22)
(0.992942 -0.438526 0)
(0.867133 -0.372567 0)
(0.815851 -0.367397 1.32254e-20)
(0.754681 -0.370362 -1.25818e-20)
(0.731378 -0.226747 1.43967e-20)
(0.79605 0.224372 -1.3643e-20)
(0.730978 0.650827 0)
(0.692907 0.77687 -2.02024e-22)
(0.892021 0.492171 2.76243e-22)
(1.03952 -0.0525602 -2.00464e-20)
(1.15132 -0.224142 4.19839e-21)
(1.13495 -0.319088 1.38523e-20)
(1.10009 -0.463008 1.77107e-22)
(1.07159 -0.51617 -1.23552e-22)
(0.935132 -0.45028 1.18382e-20)
(0.987195 0.00327852 -1.15921e-20)
(0.845077 0.195905 0)
(0.877877 0.474432 0)
(0.980034 0.505448 -1.23911e-22)
(1.02617 0.0127639 0)
(1.14314 -0.230297 2.31291e-21)
(1.04855 -0.472417 2.13274e-21)
(0.899291 -0.455985 -3.8262e-21)
(0.989245 0.390291 -5.27767e-21)
(1.08583 0.570691 3.44913e-21)
(1.12795 -0.0405401 -5.71443e-23)
(1.00999 -0.298845 0)
(0.986778 0.0241478 -3.01019e-22)
(0.986053 0.131658 2.8541e-22)
(0.977868 0.00752001 5.62772e-23)
(0.980647 -0.0202614 2.85391e-23)
(0.978531 0.00571993 -4.36992e-23)
(0.958173 0.00759372 1.13278e-23)
(0.95723 0.00225315 0)
(0.954966 0.00195573 4.56305e-24)
(1.27738 -0.255679 6.30955e-20)
(1.22756 -0.312045 4.9035e-20)
(1.13412 -0.354218 -8.09884e-21)
(1.0411 -0.398109 -6.44076e-20)
(0.939061 -0.352596 2.65446e-20)
(0.849282 -0.34353 -1.3058e-22)
(0.787695 -0.363363 0)
(0.689229 -0.31119 -9.9305e-23)
(0.687686 0.0155599 -1.46958e-22)
(0.705182 0.477775 0)
(0.668759 0.745776 -1.50439e-20)
(0.802395 0.589375 1.42061e-20)
(1.03023 0.0428906 3.17623e-22)
(1.18227 -0.189023 1.41665e-20)
(1.15421 -0.281624 -1.34493e-20)
(1.1199 -0.432291 1.63395e-22)
(1.06957 -0.489663 1.3146e-22)
(0.925301 -0.46489 0)
(0.955878 -0.0452578 1.22242e-20)
(0.813263 0.158895 -1.1576e-20)
(0.834091 0.424807 -3.0833e-21)
(0.930295 0.506875 1.32952e-21)
(1.0137 0.0442268 1.63393e-21)
(1.14505 -0.207288 -2.00729e-21)
(1.03397 -0.436053 -2.00936e-21)
(0.874845 -0.473328 1.02028e-20)
(0.942251 0.328416 -4.74284e-21)
(1.04747 0.556073 1.51597e-21)
(1.11312 -0.00602655 -1.11611e-21)
(1.00894 -0.283347 0)
(0.975089 0.0162094 0)
(0.977939 0.130599 0)
(0.972251 0.0105969 4.14274e-23)
(0.978373 -0.0201167 -5.21835e-23)
(0.974907 0.00674269 4.38051e-23)
(0.952946 0.00886542 -2.91808e-23)
(0.9536 0.00237481 -1.14667e-23)
(0.951137 0.00208947 0)
(1.26173 -0.173287 0)
(1.2278 -0.223784 0)
(1.16103 -0.235076 0)
(1.07419 -0.290285 0)
(1.00088 -0.266057 0)
(0.930419 -0.225666 0)
(0.846402 -0.269368 0)
(0.673173 -0.282062 0)
(0.541646 0.00259036 0)
(0.539572 0.481587 0)
(0.579258 0.684993 0)
(0.908009 0.502465 0)
(1.14157 -0.00809686 0)
(1.22523 -0.190216 0)
(1.16498 -0.227216 0)
(1.13928 -0.372719 0)
(1.07062 -0.470907 0)
(0.911237 -0.485647 0)
(0.91739 -0.0681742 0)
(0.779689 0.168394 0)
(0.797432 0.406428 0)
(0.901534 0.503679 0)
(1.0182 0.0390073 0)
(1.15944 -0.19004 0)
(1.01492 -0.420604 0)
(0.845324 -0.48449 0)
(0.904766 0.281304 0)
(1.01097 0.558006 0)
(1.10456 0.00996529 0)
(1.00629 -0.268091 0)
(0.963319 0.0114779 0)
(0.968964 0.131292 0)
(0.965135 0.0128347 0)
(0.974058 -0.019713 0)
(0.969168 0.00880949 0)
(0.946235 0.0107409 0)
(0.948703 0.00258177 0)
(0.945936 0.00233992 0)
(1.19825 -0.141527 0)
(1.16671 -0.196859 0)
(1.11233 -0.2231 0)
(1.03876 -0.272589 0)
(0.952275 -0.234945 0)
(0.889101 -0.23231 0)
(0.856281 -0.248613 0)
(0.734004 -0.143007 0)
(0.577913 0.10371 0)
(0.544435 0.447404 0)
(0.725736 0.52379 0)
(1.10469 0.320315 0)
(1.24352 -0.0915477 0)
(1.2426 -0.189406 0)
(1.14156 -0.238895 0)
(1.11618 -0.390707 0)
(1.00849 -0.415671 0)
(0.846787 -0.400717 0)
(0.854181 -0.00153737 0)
(0.673643 0.207073 0)
(0.73604 0.403827 0)
(0.878109 0.448085 0)
(1.04078 -0.029394 0)
(1.1561 -0.200333 0)
(0.96443 -0.364852 0)
(0.778765 -0.437267 0)
(0.845094 0.287247 0)
(0.947855 0.522309 0)
(1.09147 -0.00904378 0)
(0.993772 -0.245697 0)
(0.940567 0.0236467 0)
(0.95141 0.130712 0)
(0.954476 0.0106155 0)
(0.966202 -0.0206056 0)
(0.959741 0.0115158 0)
(0.937517 0.012556 0)
(0.942199 0.00237204 0)
(0.939225 0.00257432 0)
(1.15629 -0.102682 0)
(1.1394 -0.150602 0)
(1.09933 -0.150592 0)
(1.04553 -0.182408 0)
(0.976899 -0.159425 0)
(0.936813 -0.133271 0)
(0.873688 -0.154798 0)
(0.766406 -0.0687346 0)
(0.709733 0.138602 0)
(0.750384 0.356229 0)
(0.968056 0.316053 0)
(1.22612 0.194622 0)
(1.27399 -0.0890945 0)
(1.20635 -0.157809 0)
(1.14547 -0.173507 0)
(1.12358 -0.300526 0)
(0.978339 -0.34629 0)
(0.788858 -0.37858 0)
(0.750188 0.0245714 0)
(0.562589 0.220842 0)
(0.673766 0.334856 0)
(0.873946 0.368415 0)
(1.06736 -0.0537948 0)
(1.14529 -0.170447 0)
(0.948958 -0.312316 0)
(0.713929 -0.417468 0)
(0.74361 0.257787 0)
(0.885283 0.46935 0)
(1.09133 -0.0115347 0)
(0.980133 -0.2211 0)
(0.914551 0.0249007 0)
(0.934987 0.124903 0)
(0.94486 0.0100482 0)
(0.955779 -0.0206504 0)
(0.948227 0.0143572 0)
(0.92899 0.0142284 0)
(0.935527 0.00212834 0)
(0.932555 0.00292796 0)
(1.12047 -0.0742055 0)
(1.10979 -0.110797 0)
(1.07285 -0.115306 0)
(1.03886 -0.144618 0)
(0.976631 -0.123932 0)
(0.949829 -0.111421 0)
(0.913479 -0.105542 0)
(0.838273 -0.0219188 0)
(0.826749 0.105673 0)
(0.919201 0.246737 0)
(1.08947 0.189581 0)
(1.19813 0.112085 0)
(1.23761 -0.0777604 0)
(1.16303 -0.098477 0)
(1.11181 -0.181836 0)
(1.05171 -0.299011 0)
(0.918927 -0.256909 0)
(0.749066 -0.275872 0)
(0.616534 0.107612 0)
(0.544166 0.230658 0)
(0.674304 0.258963 0)
(0.894824 0.267217 0)
(1.09271 -0.122957 0)
(1.10491 -0.154974 0)
(0.940582 -0.22905 0)
(0.665171 -0.344755 0)
(0.628486 0.236708 0)
(0.857074 0.39326 0)
(1.09754 -0.0359795 0)
(0.95433 -0.187575 0)
(0.874883 0.0338955 0)
(0.913061 0.118148 0)
(0.933684 0.00680313 0)
(0.941956 -0.0212471 0)
(0.934041 0.0171298 0)
(0.920615 0.0153745 0)
(0.928911 0.00153083 0)
(0.926811 0.00323581 0)
(1.0903 -0.0520212 0)
(1.08702 -0.0830092 0)
(1.0592 -0.0799381 0)
(1.03752 -0.100655 0)
(0.991042 -0.0834053 0)
(0.975766 -0.0669966 0)
(0.942888 -0.0592871 0)
(0.907819 0.00364209 0)
(0.910967 0.0703554 0)
(0.977814 0.147563 0)
(1.09927 0.107621 0)
(1.13913 0.0907791 0)
(1.18007 -0.0750284 0)
(1.10889 -0.0791993 0)
(1.11607 -0.114341 0)
(1.04078 -0.206014 0)
(0.918504 -0.168106 0)
(0.800059 -0.2027 0)
(0.602687 0.148384 0)
(0.685477 0.196048 0)
(0.779953 0.158109 0)
(0.962867 0.169281 0)
(1.11798 -0.140263 0)
(1.05562 -0.113036 0)
(0.97422 -0.157549 0)
(0.68006 -0.277228 0)
(0.552828 0.198963 0)
(0.87135 0.294847 0)
(1.10589 -0.0439013 0)
(0.923117 -0.142898 0)
(0.828947 0.0403852 0)
(0.89567 0.105232 0)
(0.92926 0.00328316 0)
(0.928821 -0.0206578 0)
(0.919312 0.0194605 0)
(0.914659 0.0154678 0)
(0.924299 0.000557492 0)
(0.923602 0.00344528 0)
(1.07122 -0.0340851 0)
(1.07056 -0.0574271 0)
(1.04803 -0.052501 0)
(1.03796 -0.0693787 0)
(0.999659 -0.0546971 0)
(0.994473 -0.0457693 0)
(0.968645 -0.0363611 0)
(0.955541 0.0073667 0)
(0.965497 0.0366947 0)
(1.00199 0.0887103 0)
(1.07204 0.0563899 0)
(1.09578 0.0532601 0)
(1.1402 -0.0555225 0)
(1.05996 -0.0401238 0)
(1.08026 -0.116424 0)
(1.00805 -0.185852 0)
(0.920604 -0.0990124 0)
(0.867012 -0.112782 0)
(0.699241 0.159118 0)
(0.878356 0.147907 0)
(0.928778 0.10755 0)
(1.03598 0.102902 0)
(1.1311 -0.158786 0)
(0.988271 -0.0909527 0)
(0.996082 -0.086469 0)
(0.763085 -0.163443 0)
(0.560694 0.162255 0)
(0.914637 0.168026 0)
(1.10066 -0.0563272 0)
(0.894876 -0.0870182 0)
(0.808829 0.0443719 0)
(0.900649 0.0842848 0)
(0.938695 -0.00189246 0)
(0.924129 -0.01855 0)
(0.912299 0.0210772 0)
(0.917728 0.0139851 0)
(0.926843 -0.000926379 0)
(0.92636 0.00347422 0)
(1.05668 -0.020569 0)
(1.05778 -0.0379254 0)
(1.04134 -0.0334686 0)
(1.03718 -0.0453606 0)
(1.0087 -0.0352132 0)
(1.00973 -0.0291719 0)
(0.988816 -0.0210021 0)
(0.98901 0.00624469 0)
(0.993706 0.0180012 0)
(1.01279 0.0512647 0)
(1.05616 0.0224846 0)
(1.06442 0.0376071 0)
(1.09473 -0.0517934 0)
(1.04393 -0.0309515 0)
(1.07519 -0.0740573 0)
(0.993855 -0.116148 0)
(0.924722 -0.0480164 0)
(0.919 -0.0709748 0)
(0.823604 0.136605 0)
(0.99284 0.0853431 0)
(1.01461 0.0600976 0)
(1.06781 0.0640459 0)
(1.13202 -0.121278 0)
(0.952048 -0.0420262 0)
(0.996148 -0.0556567 0)
(0.88561 -0.082019 0)
(0.695233 0.131488 0)
(0.977915 0.0684866 0)
(1.0872 -0.0437926 0)
(0.90201 -0.0304804 0)
(0.847776 0.0368617 0)
(0.935198 0.0600633 0)
(0.964962 -0.00357132 0)
(0.938653 -0.0133028 0)
(0.926367 0.0219535 0)
(0.937569 0.0113976 0)
(0.942879 -0.00207092 0)
(0.94001 0.00368135 0)
(1.04647 -0.0111262 0)
(1.04867 -0.0231792 0)
(1.03724 -0.019525 0)
(1.03637 -0.028407 0)
(1.01618 -0.0210042 0)
(1.01915 -0.0186277 0)
(1.00299 -0.0131291 0)
(1.0087 0.00357273 0)
(1.0073 0.00461607 0)
(1.02199 0.0288636 0)
(1.04084 0.00360918 0)
(1.04788 0.0207704 0)
(1.06944 -0.0391615 0)
(1.02521 -0.0178314 0)
(1.05139 -0.0605079 0)
(0.990313 -0.0835789 0)
(0.955578 -0.0229516 0)
(0.951841 -0.0490292 0)
(0.913085 0.0989751 0)
(1.02898 0.0424064 0)
(1.02806 0.0496123 0)
(1.05917 0.0407883 0)
(1.09034 -0.104868 0)
(0.955574 -0.0119203 0)
(0.997475 -0.0500606 0)
(0.949699 -0.0254568 0)
(0.848904 0.122511 0)
(1.02761 0.00127451 0)
(1.05332 -0.0319972 0)
(0.928546 0.0147732 0)
(0.91655 0.029556 0)
(0.975904 0.0418957 0)
(0.992495 -0.00289769 0)
(0.962944 -0.00725377 0)
(0.955529 0.0224301 0)
(0.967657 0.00901691 0)
(0.967558 -0.00214368 0)
(0.962357 0.00436323 0)
(1.03939 -0.00454201 0)
(1.04183 -0.0126019 0)
(1.03444 -0.0105296 0)
(1.0349 -0.0164026 0)
(1.02087 -0.012639 0)
(1.0248 -0.0111529 0)
(1.01199 -0.00934557 0)
(1.01946 0.00188195 0)
(1.01455 -0.00268084 0)
(1.0252 0.0158396 0)
(1.03293 -0.00654596 0)
(1.03551 0.0118567 0)
(1.04861 -0.0312406 0)
(1.01912 -0.01494 0)
(1.04168 -0.0373587 0)
(0.991028 -0.0523126 0)
(0.981408 -0.00410912 0)
(0.971744 -0.0369391 0)
(0.959368 0.0697447 0)
(1.02816 0.0179801 0)
(1.01795 0.0319677 0)
(1.05773 0.0314781 0)
(1.05656 -0.0737694 0)
(0.971855 0.0175108 0)
(1.00593 -0.0428731 0)
(0.963973 -0.0104867 0)
(0.949971 0.0981024 0)
(1.05076 -0.0230947 0)
(1.01563 -0.00563092 0)
(0.962817 0.0358948 0)
(0.977569 0.0154398 0)
(1.00656 0.0309201 0)
(1.01485 0.00141919 0)
(0.987723 -0.00153666 0)
(0.987936 0.0218751 0)
(0.998289 0.00750233 0)
(0.993228 -0.000978135 0)
(0.987785 0.0054432 0)
(1.03388 -0.000294592 0)
(1.03677 -0.00554252 0)
(1.03154 -0.00472228 0)
(1.03327 -0.00853185 0)
(1.02327 -0.00715234 0)
(1.02725 -0.00612404 0)
(1.01739 -0.00695152 0)
(1.02387 0.000949193 0)
(1.01864 -0.0058326 0)
(1.02507 0.00812247 0)
(1.02863 -0.00979393 0)
(1.02648 0.00510162 0)
(1.0389 -0.0222491 0)
(1.01323 -0.0110112 0)
(1.03291 -0.0235927 0)
(0.994039 -0.0363648 0)
(0.997663 0.00241584 0)
(0.987446 -0.0289148 0)
(0.980831 0.046222 0)
(1.02949 0.00575606 0)
(1.00592 0.0219387 0)
(1.04902 0.0239405 0)
(1.03157 -0.0573791 0)
(0.985589 0.023918 0)
(1.02207 -0.0364908 0)
(0.967615 -0.00124 0)
(0.997755 0.0769711 0)
(1.04454 -0.0312727 0)
(0.992993 0.00771341 0)
(0.999445 0.0383689 0)
(1.00914 0.00729444 0)
(1.018 0.0266889 0)
(1.02735 0.00474718 0)
(1.00459 0.00168493 0)
(1.01124 0.019914 0)
(1.01955 0.00699875 0)
(1.01127 0.000809485 0)
(1.00788 0.00628826 0)
(1.02953 0.00218216 0)
(1.03246 -0.000985111 0)
(1.02897 -0.00121282 0)
(1.03093 -0.00333736 0)
(1.02404 -0.00377486 0)
(1.02713 -0.00272958 0)
(1.02038 -0.00506476 0)
(1.02444 0.000515256 0)
(1.02105 -0.00612326 0)
(1.02298 0.00361095 0)
(1.02645 -0.00935143 0)
(1.02065 0.0011219 0)
(1.03177 -0.0150804 0)
(1.01077 -0.00996215 0)
(1.02769 -0.0128095 0)
(0.999454 -0.0243276 0)
(1.00611 0.0052345 0)
(0.999502 -0.0200691 0)
(0.991136 0.0293513 0)
(1.02889 0.00179722 0)
(0.999205 0.0112129 0)
(1.04303 0.0194996 0)
(1.01918 -0.037947 0)
(0.994637 0.0245187 0)
(1.02837 -0.0233546 0)
(0.969362 0.00117325 0)
(1.01975 0.0531364 0)
(1.03427 -0.0233964 0)
(0.986556 0.0173029 0)
(1.0202 0.03282 0)
(1.0162 0.00438696 0)
(1.02075 0.0235761 0)
(1.03292 0.00725548 0)
(1.01264 0.00423791 0)
(1.02225 0.017095 0)
(1.02933 0.00728839 0)
(1.02024 0.00292576 0)
(1.01917 0.00686605 0)
(1.02612 0.0035221 0)
(1.0287 0.00168899 0)
(1.02645 0.000928538 0)
(1.02805 -0.000309955 0)
(1.02373 -0.00139443 0)
(1.02551 -0.000721848 0)
(1.0216 -0.00312766 0)
(1.02314 0.000254744 0)
(1.02191 -0.00477746 0)
(1.02077 0.00105381 0)
(1.02463 -0.00705575 0)
(1.01733 -0.0010967 0)
(1.02708 -0.00954688 0)
(1.01082 -0.00760651 0)
(1.02323 -0.00691918 0)
(1.00489 -0.0155342 0)
(1.00921 0.00414908 0)
(1.00777 -0.0129501 0)
(0.997116 0.0169531 0)
(1.02744 0.000680973 0)
(0.998733 0.00590123 0)
(1.03423 0.0141472 0)
(1.01341 -0.0240134 0)
(0.999915 0.0177402 0)
(1.02869 -0.0137222 0)
(0.978952 0.0028196 0)
(1.0252 0.0353858 0)
(1.02393 -0.01386 0)
(0.991132 0.0157135 0)
(1.02784 0.0247461 0)
(1.01585 0.00557978 0)
(1.02168 0.0189195 0)
(1.03317 0.0081286 0)
(1.01633 0.00570387 0)
(1.026 0.0133292 0)
(1.03156 0.00753473 0)
(1.0236 0.00455865 0)
(1.02395 0.00678812 0)
(1.02326 0.00418142 0)
(1.02527 0.00312346 0)
(1.02402 0.0022007 0)
(1.02515 0.0014103 0)
(1.02258 0.000299895 0)
(1.02339 0.000454229 0)
(1.02128 -0.00131271 0)
(1.0215 0.000186571 0)
(1.02133 -0.00282663 0)
(1.0192 -0.000137483 0)
(1.02246 -0.00445092 0)
(1.01617 -0.00180124 0)
(1.02316 -0.00563261 0)
(1.01188 -0.0054323 0)
(1.01996 -0.00395245 0)
(1.00886 -0.00904681 0)
(1.01109 0.00217733 0)
(1.01199 -0.00691036 0)
(1.00214 0.00886395 0)
(1.02392 0.0011332 0)
(1.00141 0.00287723 0)
(1.02694 0.00939673 0)
(1.01192 -0.0121213 0)
(1.00467 0.0118446 0)
(1.02494 -0.00494566 0)
(0.989454 0.00359128 0)
(1.02386 0.0222578 0)
(1.01891 -0.00424947 0)
(0.999068 0.013489 0)
(1.02672 0.0195489 0)
(1.01502 0.00768258 0)
(1.0222 0.0145712 0)
(1.03043 0.00960727 0)
(1.01846 0.00717526 0)
(1.0265 0.0102111 0)
(1.03031 0.00817842 0)
(1.02442 0.00611789 0)
(1.02549 0.00680126 0)
(1.02076 0.00439177 0)
(1.02227 0.00379293 0)
(1.02164 0.00294757 0)
(1.02241 0.00230122 0)
(1.02088 0.00150499 0)
(1.02125 0.00111251 0)
(1.02005 0.000254676 0)
(1.0199 0.000267562 0)
(1.0199 -0.000925421 0)
(1.01809 -0.000519216 0)
(1.02016 -0.00212216 0)
(1.01578 -0.00167549 0)
(1.02008 -0.0030455 0)
(1.013 -0.00330922 0)
(1.0177 -0.00248878 0)
(1.01134 -0.00439696 0)
(1.01225 0.000448831 0)
(1.01352 -0.00271101 0)
(1.00629 0.00397614 0)
(1.02023 0.00163353 0)
(1.0052 0.00190323 0)
(1.02128 0.00582744 0)
(1.01153 -0.00433203 0)
(1.00815 0.00668702 0)
(1.02068 0.000167555 0)
(0.999107 0.00361337 0)
(1.02076 0.0141109 0)
(1.01589 0.00196422 0)
(1.00579 0.00927682 0)
(1.02382 0.0153946 0)
(1.01522 0.00875885 0)
(1.02195 0.0105141 0)
(1.02706 0.0102466 0)
(1.02004 0.00739176 0)
(1.02596 0.0073294 0)
(1.02834 0.00838395 0)
(1.02451 0.00676609 0)
(1.02595 0.00634464 0)
(1.01859 0.00432515 0)
(1.01963 0.00400662 0)
(1.0194 0.00330021 0)
(1.0199 0.0027368 0)
(1.01903 0.00228893 0)
(1.01921 0.00153209 0)
(1.01847 0.00143187 0)
(1.01834 0.000473682 0)
(1.01821 0.000614456 0)
(1.01712 -0.00044446 0)
(1.01806 -0.000272156 0)
(1.01555 -0.0012102 0)
(1.01771 -0.00117816 0)
(1.01375 -0.00167347 0)
(1.01609 -0.0015415 0)
(1.01266 -0.00136391 0)
(1.0129 -0.00067482 0)