/*--------------------------------*- C++ -*----------------------------------*\
| =========                 |                                                 |
| \\      /  F ield         | OpenFOAM: The Open Source CFD Toolbox           |
|  \\    /   O peration     | Version:  2512                                  |
|   \\  /    A nd           | Website:  www.openfoam.com                      |
|    \\/     M anipulation  |                                                 |
\*---------------------------------------------------------------------------*/
FoamFile
{
    version     2.0;
    format      ascii;
    arch        "LSB;label=32;scalar=64";
    class       surfaceScalarField;
    location    "104.2";
    object      phi;
}
// * * * * * * * * * * * * * * * * * * * * * * * * * * * * * * * * * * * * * //

dimensions      [0 3 -1 0 0 0 0];

oriented        oriented;

internalField   nonuniform List<scalar> 
26232
(
-0.000286028
0.00208541
-0.00179939
-0.000311
0.00379367
-0.0037687
0.000547416
0.00352259
-0.004381
0.00287068
0.00125637
-0.00357964
0.00721294
-0.00322807
-0.00111418
0.0140954
-0.0101538
0.00327131
0.0238076
-0.0195211
0.00980888
0.0362097
-0.0309239
0.0185217
0.0506265
-0.0435491
0.0291323
0.0659397
-0.0563635
0.0410503
0.0808419
-0.0683699
0.0534677
0.0941461
-0.0788209
0.0655167
0.105051
-0.0873388
0.0764339
0.113289
-0.0939304
0.0856924
0.11911
-0.0989064
0.0930853
0.123108
-0.10273
0.0987318
0.125957
-0.105845
0.102997
0.128178
-0.108565
0.106343
0.13009
-0.111044
0.109132
0.131786
-0.113361
0.111665
0.133401
-0.115436
0.113822
0.134811
-0.117541
0.116131
0.135625
-0.118702
0.117889
-0.120602
0.120659
0.135568
-0.000118328
0.00220374
0.000286563
0.00338878
0.00190075
0.0019084
0.00540651
-0.00224939
0.0114304
-0.00925196
0.0203601
-0.0190835
0.0320717
-0.0312327
0.0457979
-0.04465
0.0602812
-0.0580324
0.0741326
-0.0702149
0.0862107
-0.080448
0.0958788
-0.0884891
0.103074
-0.0945344
0.108191
-0.0990466
0.111836
-0.102552
0.114588
-0.105482
0.116848
-0.108105
0.118839
-0.110556
0.120681
-0.112886
0.122435
-0.115115
0.124241
-0.117243
0.126014
-0.119314
0.128445
-0.121133
-0.123642
0.131485
8.61579e-05
0.00211758
0.00105476
0.00242018
0.00365225
-0.000689091
0.00861186
-0.00720901
0.0164687
-0.0171088
0.0272137
-0.0298285
0.0400696
-0.0440885
0.0536702
-0.0582506
0.0665408
-0.070903
0.0775643
-0.0812384
0.0862306
-0.0891142
0.092625
-0.0948835
0.097222
-0.0991314
0.100611
-0.102436
0.103285
-0.105226
0.105564
-0.107761
0.107625
-0.110167
0.109571
-0.112502
0.111469
-0.114783
0.113386
-0.117032
0.115342
-0.119199
0.11741
-0.121382
0.119606
-0.123329
-0.125542
0.121506
0.000293375
0.00182421
0.00190434
0.000809211
0.00562828
-0.00441303
0.0121573
-0.0137381
0.0216946
-0.026646
0.0335662
-0.0417002
0.0463427
-0.056865
0.0584409
-0.0703488
0.0687121
-0.0811743
0.0767009
-0.0892272
0.0825645
-0.0949778
0.0868007
-0.0991196
0.0899627
-0.102293
0.0924857
-0.104959
0.0946476
-0.107388
0.0966097
-0.109723
0.0984679
-0.112025
0.10028
-0.114314
0.102094
-0.116597
0.103925
-0.118864
0.105844
-0.121118
0.107857
-0.123395
0.110093
-0.125565
-0.12814
0.11269
0.000512679
0.00131153
0.00283231
-0.00151042
0.00777004
-0.00935076
0.0157999
-0.0217679
0.0265041
-0.0373502
0.038476
-0.0536721
0.0499926
-0.0683816
0.0597834
-0.0801396
0.0673521
-0.088743
0.072858
-0.0947332
0.0767971
-0.0989168
0.0797076
-0.10203
0.082012
-0.104598
0.0839858
-0.106932
0.0857905
-0.109193
0.0875148
-0.111447
0.0892051
-0.113715
0.0908915
-0.116
0.092593
-0.118299
0.0943434
-0.120614
0.0961727
-0.122947
0.098081
-0.125303
0.10015
-0.127634
-0.130148
0.102159
0.000763431
0.0005481
0.00385775
-0.00460474
0.0100079
-0.0155009
0.0192106
-0.0309706
0.0302612
-0.0484008
0.0413045
-0.0647155
0.0508436
-0.0779207
0.0582286
-0.0875246
0.0635519
-0.0940663
0.0672919
-0.0984732
0.0699921
-0.101617
0.0720876
-0.104126
0.0738632
-0.106373
0.0754789
-0.108548
0.077014
-0.110728
0.0785051
-0.112938
0.0799747
-0.115185
0.0814417
-0.117467
0.0829307
-0.119788
0.084463
-0.122146
0.0860603
-0.124545
0.0877485
-0.126991
0.0895792
-0.129464
-0.132112
0.091543
0.00105443
-0.000506329
0.00495924
-0.00850955
0.0121706
-0.0227123
0.0219647
-0.0407647
0.0324851
-0.0589212
0.0419211
-0.0741515
0.0493306
-0.0853301
0.0546467
-0.0928407
0.0582987
-0.0977182
0.06084
-0.101014
0.0627336
-0.103511
0.0642861
-0.105678
0.0656672
-0.107754
0.0669595
-0.10984
0.0682025
-0.111971
0.0694197
-0.114155
0.0706298
-0.116395
0.071851
-0.118688
0.073099
-0.121036
0.0743898
-0.123437
0.0757415
-0.125896
0.0771592
-0.128409
0.0786703
-0.130975
-0.133643
0.0802011
0.00137672
-0.00188305
0.00606028
-0.0131931
0.0140057
-0.0306577
0.023701
-0.05046
0.0330386
-0.0682588
0.0406298
-0.0817427
0.0461146
-0.090815
0.0498091
-0.0965352
0.052265
-0.100174
0.0539852
-0.102735
0.0553148
-0.10484
0.0564488
-0.106812
0.0574829
-0.108789
0.0584613
-0.110819
0.059407
-0.112917
0.0603344
-0.115083
0.0612557
-0.117316
0.062183
-0.119616
0.0631297
-0.121982
0.0641108
-0.124418
0.0651381
-0.126924
0.066229
-0.1295
0.0674036
-0.13215
-0.134883
0.0686439
0.00170945
-0.0035925
0.0070476
-0.0185313
0.0152721
-0.0388822
0.0242679
-0.0594559
0.0320945
-0.0760853
0.037911
-0.0875592
0.0418016
-0.0947056
0.044274
-0.0990076
0.0458719
-0.101772
0.0469961
-0.103859
0.0478821
-0.105726
0.0486471
-0.107577
0.0493438
-0.109485
0.0499962
-0.111471
0.0506182
-0.113539
0.0512214
-0.115686
0.0518177
-0.117912
0.0524196
-0.120218
0.0530396
-0.122602
0.0536884
-0.125067
0.0543771
-0.127612
0.0551138
-0.130236
0.055902
-0.132938
-0.135704
0.056723
0.00202187
-0.00561437
0.00779999
-0.0243094
0.015825
-0.0469072
0.0237264
-0.0673573
0.0299765
-0.0823354
0.0342308
-0.0918135
0.0368539
-0.0973287
0.0384079
-0.100562
0.0393616
-0.102726
0.0400094
-0.104507
0.0405028
-0.10622
0.0409098
-0.107984
0.0412597
-0.109835
0.0415678
-0.111779
0.0418455
-0.113816
0.0421029
-0.115943
0.0423503
-0.11816
0.0425976
-0.120465
0.0428548
-0.122859
0.0431321
-0.125345
0.0434394
-0.12792
0.0437869
-0.130584
0.0441818
-0.133333
-0.136151
0.0446288
0.00228318
-0.00789755
0.00822576
-0.030252
0.0156497
-0.0543312
0.022268
-0.0739755
0.0270314
-0.0870988
0.0299727
-0.0947548
0.0315988
-0.0989549
0.0324429
-0.101406
0.0328774
-0.10316
0.0331066
-0.104736
0.0332243
-0.106337
0.0332698
-0.10803
0.0332612
-0.109826
0.0332097
-0.111728
0.0331245
-0.113731
0.0330143
-0.115833
0.0328881
-0.118033
0.0327554
-0.120332
0.0326261
-0.12273
0.0325097
-0.125228
0.032416
-0.127826
0.0323509
-0.130519
0.0323128
-0.133295
-0.136142
0.0323036
0.00247155
-0.0103691
0.00829258
-0.036073
0.0148439
-0.0608825
0.0201396
-0.0792712
0.0235744
-0.0905337
0.025432
-0.0966124
0.0262618
-0.0997847
0.0265261
-0.10167
0.0265058
-0.10314
0.0263374
-0.104567
0.026078
-0.106078
0.0257512
-0.107703
0.025369
-0.109444
0.0249402
-0.111299
0.0244727
-0.113264
0.0239745
-0.115335
0.0234534
-0.117512
0.0229168
-0.119796
0.0223731
-0.122186
0.021831
-0.124686
0.0213006
-0.127295
0.0207921
-0.13001
0.0203131
-0.132816
0.0198749
-0.135704
0.000508219
0.00782517
-0.00833339
0.000913
0.0189892
-0.019394
0.000760256
0.0262021
-0.0260493
2.52857e-05
0.0302772
-0.0295422
-0.00109295
0.0324134
-0.0312952
-0.00235708
0.0335893
-0.0323252
-0.00356504
0.034312
-0.0331041
-0.00455911
0.0346781
-0.033684
-0.00521199
0.034554
-0.0339011
-0.00541531
0.0337317
-0.0335284
-0.00507937
0.0320145
-0.0323504
-0.00414117
0.0292547
-0.0301929
-0.00257354
0.0253669
-0.0269345
-0.000390796
0.0203291
-0.0225118
0.00236281
0.0141672
-0.0169208
0.00559844
0.0069471
-0.0101827
0.00916722
-0.00125807
-0.00231071
0.0131269
-0.0104165
0.00645678
0.0174042
-0.0206019
0.0163246
0.0220639
-0.0318922
0.0272325
0.0273387
-0.0444195
0.0391447
0.033443
-0.0577617
0.0516574
0.0406166
-0.071792
0.0646184
-0.0849966
0.0487147
0.0768985
0.000856478
0.0069687
0.00206846
0.0177772
0.00294469
0.0253258
0.00332732
0.0298945
0.00337241
0.0323683
0.00334168
0.0336201
0.00347818
0.0341755
0.00396331
0.0341929
0.00492082
0.0335965
0.00643172
0.0322208
0.00854223
0.029904
0.0112651
0.0265318
0.0145791
0.0220529
0.0184292
0.0164789
0.0227226
0.00987379
0.0273221
0.0023476
0.0322066
-0.0061425
0.0372685
-0.0154785
0.0425347
-0.025868
0.0480528
-0.0374103
0.0540919
-0.0504586
0.0606252
-0.064295
0.0678155
-0.0789824
-0.092393
0.075212
0.0011009
0.00586779
0.00301219
0.015866
0.00489468
0.0234433
0.00643256
0.0283567
0.00769264
0.0311082
0.00891744
0.0323953
0.0103665
0.0327265
0.0122391
0.0323203
0.0146589
0.0311767
0.0176862
0.0291935
0.021333
0.0262572
0.025573
0.0222919
0.0303465
0.0172794
0.0355627
0.0112627
0.0410837
0.0043528
0.0469033
-0.00347193
0.0528786
-0.0121178
0.0590151
-0.021615
0.0654547
-0.0323076
0.0722793
-0.0442349
0.0797796
-0.0579589
0.0876859
-0.0722013
0.095959
-0.0872554
-0.100136
0.103702
0.00120439
0.00466341
0.0035977
0.0134726
0.00632043
0.0207206
0.00892453
0.0257526
0.0113489
0.0286838
0.0137645
0.0299797
0.0164099
0.030081
0.0194874
0.0292428
0.0231233
0.0275408
0.0273685
0.0249483
0.0322129
0.0214128
0.0375996
0.0169052
0.0434356
0.0114435
0.0495917
0.00510656
0.0560342
-0.0020897
0.0626589
-0.0100966
0.0694747
-0.0189336
0.0766123
-0.0287526
0.0843537
-0.0400489
0.0927829
-0.0526642
0.102004
-0.0671799
0.111365
-0.0815621
0.120509
-0.0964002
-0.107783
0.128157
0.00116261
0.00350079
0.00374574
0.0108895
0.00700538
0.017461
0.0104342
0.0223238
0.0138445
0.0252735
0.0172965
0.0265277
0.0209639
0.0264136
0.0250226
0.0251841
0.0295912
0.0229722
0.0347144
0.0198251
0.0403699
0.0157572
0.0464842
0.0107909
0.0529443
0.00498331
0.0596986
-0.0016477
0.0667167
-0.00910782
0.0740069
-0.0173869
0.081812
-0.0267386
0.0904217
-0.0373624
0.100101
-0.0497278
0.110709
-0.0632725
0.121801
-0.0782718
0.132238
-0.0919995
0.141285
-0.105447
-0.113999
0.147501
0.00100074
0.00250006
0.00346754
0.00842271
0.00686963
0.0140589
0.0107377
0.0184557
0.0148053
0.0212059
0.0190186
0.0223144
0.0234558
0.0219764
0.0282329
0.020407
0.0334379
0.0177673
0.039102
0.014161
0.0451999
0.00965927
0.0516639
0.00432694
0.0584862
-0.00183906
0.0657006
-0.00886201
0.0734042
-0.0168115
0.0819125
-0.0258952
0.091582
-0.0364081
0.102633
-0.0484129
0.114885
-0.0619801
0.127652
-0.0760398
0.13977
-0.0903896
0.149942
-0.102172
0.157337
-0.112842
-0.117827
0.161165
0.000758985
0.00174107
0.00285153
0.00633016
0.00599566
0.0109148
0.00984097
0.0146104
0.014114
0.0169328
0.0186825
0.0177459
0.0235304
0.0171285
0.0286978
0.0152397
0.0342279
0.0122371
0.0401433
0.00824565
0.0464497
0.00335291
0.0532393
-0.00246269
0.0606376
-0.00923732
0.0688832
-0.0171076
0.0783484
-0.0262767
0.0893694
-0.0369161
0.102012
-0.0490505
0.11592
-0.062321
0.130128
-0.0761887
0.143411
-0.089322
0.154281
-0.10126
0.161903
-0.109794
0.165927
-0.116866
-0.118583
0.166684
0.000476307
0.00126477
0.00202349
0.00478298
0.00459226
0.008346
0.00798861
0.0112141
0.0119951
0.0129264
0.0164571
0.0132839
0.0213024
0.0122832
0.0265237
0.0100183
0.0321606
0.00660018
0.0382974
0.00210894
0.0451408
-0.00349049
0.0529379
-0.0102598
0.0620489
-0.0183483
0.0728343
-0.027893
0.085471
-0.0389135
0.0997803
-0.0512253
0.115076
-0.0643458
0.130267
-0.0775124
0.143914
-0.0898356
0.154834
-0.100242
0.162063
-0.10849
0.165763
-0.113493
0.166399
-0.117502
-0.117483
0.165299
0.000183742
0.00108102
0.00111338
0.00385334
0.00293317
0.0065262
0.00560437
0.00854286
0.00900604
0.0095247
0.0130285
0.00926145
0.0176269
0.00768475
0.0228489
0.00479631
0.0288564
0.000592704
0.0359331
-0.00496769
0.0444334
-0.0119909
0.0547305
-0.0205569
0.067045
-0.0306629
0.0812874
-0.0421354
0.0969421
-0.0545682
0.113066
-0.067349
0.12839
-0.0796696
0.141625
-0.0907477
0.151671
-0.0998814
0.158161
-0.106732
0.161187
-0.111516
0.16191
-0.114216
0.161125
-0.116717
-0.116575
0.160217
-8.56136e-05
0.00116664
0.000262998
0.00350473
0.00134415
0.00544505
0.00326529
0.00662172
0.00603856
0.00675143
0.00968757
0.00561244
0.0143185
0.00305379
0.0201637
-0.00104888
0.0275548
-0.00679835
0.0368693
-0.0142822
0.048359
-0.0234806
0.0620086
-0.0342064
0.0774111
-0.0460654
0.0937457
-0.05847
0.109872
-0.0706947
0.124519
-0.0819958
0.136562
-0.091712
0.145307
-0.0994928
0.150658
-0.105233
0.153282
-0.109355
0.15401
-0.112245
0.154148
-0.114354
0.153944
-0.116513
-0.116858
0.154227
-0.000281899
0.00144854
-0.000347956
0.00357079
0.000225003
0.00487209
0.00169357
0.00515316
0.00425424
0.00419076
0.00814253
0.00172415
0.0136741
-0.0024778
0.021216
-0.00859075
0.0310862
-0.0166685
0.0433686
-0.0265647
0.0577801
-0.0378921
0.0736196
-0.0500459
0.089838
-0.0622838
0.105209
-0.0738414
0.118573
-0.0840587
0.129085
-0.0925077
0.136437
-0.0990634
0.140901
-0.103957
0.143231
-0.107564
0.144362
-0.110485
0.144968
-0.112851
0.145807
-0.115193
0.146516
-0.117223
-0.118156
0.147814
-0.000350849
-0.000548757
-5.76716e-05
0.00151585
0.00459243
0.00958789
0.016919
0.0268499
0.0393137
0.0537994
0.069375
0.0848459
0.098996
0.110847
0.119874
0.126098
0.130031
0.132418
0.133986
0.135166
0.136136
0.137075
0.137741
0.140244
0.0549624
-0.126589
0.120342
0.0607619
-0.140211
0.134411
0.0643649
-0.147385
0.143782
0.0640487
-0.149582
0.149898
0.0592335
-0.15068
0.155496
0.0530731
-0.153959
0.16012
0.0512401
-0.156532
0.158365
0.0577807
-0.149323
0.142783
0.071675
-0.124113
0.110219
0.088434
-0.0805048
0.0637458
0.105073
-0.0237815
0.00714234
0.120477
0.0393477
-0.0547519
0.13396
0.0991052
-0.112588
0.144564
0.144508
-0.155112
0.151466
0.170653
-0.177555
0.15457
0.181755
-0.184858
0.155301
0.18463
-0.185361
0.155335
0.182717
-0.182751
0.154297
0.182411
-0.181373
0.150661
0.194418
-0.190783
0.144509
0.217522
-0.211369
0.138125
0.2289
-0.222516
0.133963
0.199612
-0.195449
0.133431
0.120706
-0.120174
0.13703
0.010735
-0.0143336
0.142791
-0.0953654
0.0896039
0.148662
-0.173755
0.167884
0.153666
-0.214929
0.209925
0.157072
-0.225666
0.22226
0.156838
-0.228744
0.228978
0.151486
-0.240889
0.246241
0.14142
-0.256049
0.266115
0.129367
-0.251562
0.263616
0.119458
-0.207113
0.217021
0.115384
-0.116828
0.120903
0.118472
0.00123414
-0.00432238
0.126857
0.111688
-0.120073
0.136082
0.190948
-0.200173
0.139524
0.23822
-0.241661
0.134592
0.278657
-0.273725
0.124872
0.297249
-0.287529
0.116405
0.275801
-0.267334
0.113648
0.183019
-0.180262
0.118824
0.0468813
-0.0520578
0.125792
-0.0770118
0.0700445
0.127973
-0.186677
0.184496
0.125081
-0.253611
0.256502
0.121338
-0.312932
0.316674
0.119641
-0.266949
0.268646
0.120423
-0.171992
0.17121
0.12079
-0.0127921
0.0124255
0.119535
0.188782
-0.187528
0.117881
0.270758
-0.269103
0.117547
0.366956
-0.366622
0.114962
0.238891
-0.236306
0.111405
0.00308809
0.000469254
0.107146
-0.146007
0.150265
0.104664
-0.382673
0.385155
0.101433
-0.226663
0.229895
0.0366139
-0.0331329
0.0767079
-0.128085
0.0779438
-0.141447
0.0783434
-0.147785
0.0766309
-0.14787
0.0705829
-0.144632
0.059976
-0.143353
0.0495078
-0.146064
0.0459409
-0.145756
0.0524598
-0.130632
0.0667306
-0.0947756
0.0845367
-0.0415876
0.103281
0.0206036
0.121178
0.0812085
0.136455
0.129231
0.147659
0.15945
0.154461
0.174953
0.158312
0.180779
0.160864
0.180165
0.162197
0.181078
0.161428
0.195187
0.158485
0.220465
0.15451
0.232875
0.150819
0.203302
0.148461
0.123063
0.148443
0.010754
0.150344
-0.0972668
0.152696
-0.176107
0.154527
-0.21676
0.155267
-0.226406
0.152899
-0.226376
0.145713
-0.233703
0.134234
-0.244571
0.121597
-0.238925
0.11226
-0.197776
0.109686
-0.114254
0.115373
-0.0044525
0.126496
0.100565
0.137555
0.179888
0.142256
0.233519
0.138542
0.282371
0.129464
0.306327
0.120599
0.284666
0.116261
0.187356
0.119901
0.0432414
0.126384
-0.0834945
0.128279
-0.188573
0.124642
-0.249973
0.120251
-0.308541
0.118917
-0.265616
0.119805
-0.17288
0.12123
-0.0142176
0.120601
0.189412
0.119645
0.271714
0.120013
0.366588
0.116645
0.24226
0.112416
0.00731733
0.107111
-0.140703
0.103975
-0.379537
0.102417
-0.225105
0.0395458
0.101497
-0.125881
0.097563
-0.137513
0.0924273
-0.142649
0.0872236
-0.142666
0.0806542
-0.138063
0.0694694
-0.132168
0.0544418
-0.131036
0.0421369
-0.133451
0.0396213
-0.128117
0.0483855
-0.10354
0.0650268
-0.058229
0.0859021
-0.000271732
0.107575
0.059536
0.127312
0.109493
0.142851
0.143911
0.153594
0.16421
0.160842
0.173531
0.166216
0.174791
0.170297
0.176997
0.172814
0.19267
0.173406
0.219873
0.172088
0.234193
0.168872
0.206518
0.164365
0.12757
0.160367
0.0147528
0.158144
-0.0950442
0.156891
-0.174854
0.155544
-0.215413
0.153719
-0.224582
0.149576
-0.222232
0.141177
-0.225304
0.12876
-0.232154
0.115578
-0.225743
0.106536
-0.188735
0.105471
-0.113189
0.113211
-0.0121924
0.126638
0.0871368
0.139477
0.16705
0.145765
0.227231
0.143699
0.284437
0.13553
0.314496
0.126368
0.293828
0.120313
0.193411
0.121851
0.0417034
0.127524
-0.0891672
0.129169
-0.190218
0.124793
-0.245597
0.119502
-0.30325
0.118354
-0.264468
0.119505
-0.17403
0.122046
-0.016759
0.12216
0.189298
0.121837
0.272037
0.122861
0.365564
0.118894
0.246226
0.114054
0.0121567
0.107771
-0.13442
0.103909
-0.375675
0.103884
-0.22508
0.0418276
0.123019
-0.120742
0.115814
-0.130308
0.106639
-0.133474
0.097032
-0.133059
0.0887891
-0.12982
0.0794746
-0.122853
0.0648809
-0.116443
0.0475489
-0.116119
0.0360535
-0.116621
0.0368379
-0.104324
0.0495837
-0.0709748
0.0701797
-0.0208678
0.0942036
0.0355121
0.117365
0.0863312
0.136677
0.124599
0.151179
0.149708
0.161796
0.162915
0.170034
0.166553
0.176948
0.170082
0.182838
0.18678
0.187145
0.215566
0.188888
0.23245
0.186743
0.208664
0.180355
0.133957
0.172451
0.0226572
0.166199
-0.0887921
0.161298
-0.169953
0.156813
-0.210928
0.152511
-0.220279
0.14679
-0.216512
0.137607
-0.216122
0.124831
-0.219377
0.111366
-0.212278
0.102344
-0.179713
0.10221
-0.113054
0.111515
-0.0214982
0.126938
0.0717145
0.141674
0.152313
0.149936
0.218969
0.149818
0.284555
0.142809
0.321505
0.133614
0.303023
0.125886
0.201139
0.12486
0.0427298
0.129232
-0.0935396
0.130615
-0.191601
0.125528
-0.240509
0.119144
-0.296866
0.118001
-0.263325
0.119473
-0.175502
0.123199
-0.0204851
0.124167
0.18833
0.12439
0.271814
0.126021
0.363933
0.121631
0.250617
0.116302
0.0174855
0.109119
-0.127237
0.104504
-0.37106
0.105845
-0.22642
0.0434168
0.138552
-0.111793
0.128036
-0.119792
0.116796
-0.122234
0.104917
-0.12118
0.0939991
-0.118902
0.0854142
-0.114268
0.075196
-0.106224
0.0592671
-0.10019
0.0423658
-0.0997199
0.0343364
-0.0962948
0.0402773
-0.0769157
0.0577685
-0.038359
0.0818994
0.0113812
0.106981
0.0612493
0.129259
0.102321
0.147134
0.131834
0.160929
0.14912
0.171872
0.15561
0.181353
0.160601
0.190298
0.177834
0.198227
0.207637
0.203156
0.227521
0.202511
0.20931
0.195454
0.141014
0.18441
0.0337009
0.174101
-0.0784825
0.165528
-0.16138
0.158103
-0.203504
0.151529
-0.213705
0.144511
-0.209494
0.134986
-0.206596
0.122328
-0.206719
0.108871
-0.198821
0.0996555
-0.170497
0.0998115
-0.11321
0.110055
-0.0317414
0.127037
0.0547324
0.143717
0.135633
0.154354
0.208332
0.1568
0.282109
0.151465
0.32684
0.14246
0.312029
0.133078
0.210521
0.128996
0.0468121
0.131489
-0.0960325
0.132529
-0.192641
0.12681
-0.23479
0.119175
-0.289231
0.117839
-0.261989
0.119659
-0.177321
0.124628
-0.0254542
0.126566
0.186391
0.127239
0.271142
0.129415
0.361756
0.124777
0.255255
0.119111
0.0231511
0.111142
-0.119268
0.105746
-0.365663
0.108283
-0.228957
0.044301
0.149414
-0.100043
0.13612
-0.106497
0.12307
-0.109184
0.110957
-0.109068
0.0992209
-0.107165
0.0893654
-0.104413
0.0818148
-0.0986738
0.0715846
-0.0899603
0.0559392
-0.0840745
0.0416923
-0.0820479
0.0386978
-0.0739212
0.049785
-0.0494462
0.0711073
-0.00994105
0.0961211
0.0362355
0.120161
0.0782808
0.140849
0.111145
0.157611
0.132358
0.171112
0.142108
0.182867
0.148847
0.194425
0.166276
0.205534
0.196529
0.213364
0.21969
0.214275
0.208399
0.207089
0.148199
0.194414
0.0463764
0.18105
-0.0651189
0.169308
-0.149638
0.159304
-0.193499
0.150716
-0.205116
0.142515
-0.201293
0.132919
-0.197
0.120891
-0.19469
0.107838
-0.185769
0.0983024
-0.160961
0.0980611
-0.112969
0.108496
-0.0421759
0.126586
0.0366422
0.145227
0.116992
0.158524
0.195035
0.163831
0.276801
0.160627
0.330044
0.152284
0.320372
0.14155
0.221255
0.134257
0.0541052
0.134252
-0.0960277
0.134785
-0.193174
0.128581
-0.228585
0.119585
-0.280236
0.117829
-0.260233
0.119974
-0.179466
0.126253
-0.0317337
0.12927
0.183375
0.130302
0.27011
0.132958
0.3591
0.128235
0.259979
0.12243
0.0289556
0.113816
-0.110654
0.107603
-0.359449
0.111152
-0.232507
0.044476
0.153662
-0.0870222
0.139944
-0.0927787
0.126358
-0.0955983
0.114241
-0.0969512
0.10343
-0.0963543
0.0932757
-0.0942582
0.085502
-0.0909
0.0796163
-0.0840747
0.0703367
-0.0747949
0.0564744
-0.0681856
0.0461013
-0.0635481
0.0480591
-0.0514039
0.0629087
-0.0247907
0.0857206
0.0134237
0.109987
0.0540143
0.132446
0.0886867
0.151562
0.113242
0.167241
0.126429
0.180841
0.135247
0.194456
0.152662
0.208343
0.182641
0.21917
0.208863
0.222135
0.205434
0.215451
0.154883
0.20183
0.0599979
0.186508
-0.0497967
0.172318
-0.135449
0.160156
-0.181336
0.149928
-0.194888
0.140733
-0.192099
0.131148
-0.187415
0.120079
-0.183621
0.107934
-0.173625
0.0981459
-0.151173
0.0968304
-0.111653
0.106603
-0.0519487
0.125236
0.0180098
0.14575
0.0964783
0.161992
0.178792
0.170702
0.268091
0.170386
0.33036
0.163164
0.327594
0.151152
0.233267
0.140511
0.0647468
0.137471
-0.092988
0.137227
-0.19293
0.13074
-0.222099
0.120357
-0.269853
0.11792
-0.257796
0.120318
-0.181863
0.127977
-0.0393935
0.132203
0.179149
0.133513
0.268799
0.136561
0.356052
0.13191
0.264629
0.126183
0.0346827
0.117099
-0.101569
0.110034
-0.352384
0.114397
-0.236869
0.0439403
0.152608
-0.0743314
0.140006
-0.0801764
0.127878
-0.0834698
0.116555
-0.0856287
0.106655
-0.0864538
0.0976192
-0.0852228
0.0892878
-0.0825686
0.0835527
-0.0783396
0.0794329
-0.0706751
0.0720138
-0.0607664
0.0610438
-0.0525781
0.0545094
-0.0448695
0.0597883
-0.0300696
0.0769903
-0.00377834
0.0997788
0.0312258
0.123133
0.0653323
0.14395
0.0924251
0.161072
0.109307
0.175648
0.120671
0.190426
0.137884
0.206263
0.166804
0.219536
0.195589
0.224704
0.200265
0.219431
0.160156
0.206289
0.0731401
0.190258
-0.0337659
0.174425
-0.119616
0.16052
-0.167431
0.148982
-0.183351
0.138986
-0.182103
0.129416
-0.177845
0.119425
-0.17363
0.108685
-0.162885
0.0990131
-0.141501
0.0961492
-0.108789
0.104308
-0.060108
0.12282
-0.000501492
0.145023
0.0742755
0.16418
0.159635
0.176254
0.256017
0.179074
0.327541
0.173842
0.332826
0.161075
0.246034
0.147556
0.0782654
0.141081
-0.0865128
0.139702
-0.19155
0.133159
-0.215556
0.121469
-0.258163
0.118071
-0.254397
0.120619
-0.184411
0.129683
-0.0484578
0.135255
0.173578
0.136786
0.267268
0.140137
0.352701
0.135707
0.269059
0.130296
0.0400933
0.120931
-0.0922047
0.112988
-0.344441
0.117957
-0.241838
0.0426945
0.149362
-0.0634761
0.138322
-0.069136
0.127696
-0.0728442
0.117692
-0.0756249
0.108481
-0.0772432
0.100466
-0.0772072
0.0932052
-0.075308
0.0868679
-0.0720022
0.0830574
-0.0668646
0.0808687
-0.0585777
0.0761881
-0.0478976
0.0688071
-0.0374885
0.065678
-0.0269406
0.0731716
-0.0112719
0.0908622
0.0135352
0.113264
0.0429309
0.135384
0.0703049
0.153981
0.0907101
0.169157
0.105494
0.18401
0.123032
0.20075
0.150064
0.216383
0.179956
0.22422
0.192428
0.220605
0.163771
0.20809
0.0856557
0.191952
-0.0176282
0.175303
-0.102966
0.160181
-0.152309
0.147715
-0.170885
0.137168
-0.171556
0.127554
-0.168232
0.118506
-0.164582
0.109493
-0.153871
0.10062
-0.132629
0.0962346
-0.104404
0.101936
-0.0658088
0.119129
-0.0176951
0.142603
0.050802
0.164907
0.13733
0.180865
0.240059
0.187158
0.321247
0.184186
0.335798
0.171265
0.258955
0.155042
0.0944891
0.144973
-0.0764441
0.142054
-0.188632
0.135673
-0.209175
0.122868
-0.245359
0.118248
-0.249777
0.120769
-0.186932
0.131279
-0.058968
0.138361
0.166495
0.140074
0.265556
0.143609
0.349166
0.139537
0.273131
0.134676
0.0449547
0.125245
-0.0827738
0.116402
-0.335599
0.121768
-0.247204
0.0407403
0.145338
-0.0545875
0.135961
-0.0597587
0.126538
-0.0634206
0.117578
-0.0666651
0.109204
-0.0688694
0.101652
-0.0696553
0.095259
-0.0689149
0.0897855
-0.0665287
0.0854487
-0.0625279
0.0835311
-0.0566601
0.083368
-0.0477344
0.0816533
-0.0357738
0.0778591
-0.0231464
0.077191
-0.0106038
0.0857288
0.00499739
0.102742
0.0259176
0.123427
0.0496197
0.142772
0.0713653
0.159165
0.0891012
0.174943
0.107254
0.192311
0.132696
0.208608
0.163659
0.2178
0.183236
0.216535
0.165037
0.20651
0.0956799
0.192021
-0.00313879
0.175273
-0.0862186
0.159164
-0.1362
0.145906
-0.157628
0.135039
-0.160688
0.125384
-0.158577
0.117001
-0.156199
0.109729
-0.146599
0.102422
-0.125322
0.0971811
-0.0991629
0.0998204
-0.0684482
0.114531
-0.0324057
0.138476
0.0268569
0.163323
0.112482
0.182722
0.220661
0.192616
0.311353
0.192548
0.335866
0.180932
0.270571
0.162848
0.112573
0.149089
-0.0626849
0.144145
-0.183689
0.138079
-0.203108
0.124454
-0.231734
0.11842
-0.243742
0.12074
-0.189252
0.132627
-0.0708553
0.141376
0.157746
0.143297
0.263635
0.146927
0.345535
0.143337
0.276721
0.139253
0.0490391
0.129964
-0.0734847
0.120215
-0.325849
0.12577
-0.25276
0.0380851
0.140329
-0.0471033
0.132018
-0.0514475
0.123551
-0.054953
0.11533
-0.0584442
0.10763
-0.0611694
0.100649
-0.0626747
0.0946444
-0.0629102
0.089923
-0.0618072
0.0863371
-0.058942
0.0840024
-0.0543255
0.0840192
-0.0477512
0.0863004
-0.038055
0.0881983
-0.0250443
0.0886293
-0.0110347
0.0909278
0.00269882
0.0987833
0.0180622
0.112717
0.0356861
0.128833
0.0552487
0.1446
0.0733344
0.161233
0.0906209
0.180421
0.113508
0.199609
0.144471
0.211927
0.170917
0.212436
0.164529
0.203638
0.104478
0.189335
0.0111643
0.173234
-0.0701182
0.156853
-0.119819
0.143227
-0.144001
0.132388
-0.14985
0.122837
-0.149025
0.11485
-0.148212
0.109006
-0.140756
0.103735
-0.12005
0.0987741
-0.0942024
0.0984972
-0.0681713
0.109471
-0.0433797
0.132562
0.00376657
0.160146
0.0848982
0.183743
0.197063
0.197119
0.297978
0.199331
0.333654
0.18935
0.280552
0.170458
0.131466
0.153211
-0.0454384
0.14585
-0.176327
0.140176
-0.197435
0.126253
-0.217811
0.118641
-0.23613
0.120424
-0.191036
0.133691
-0.0841224
0.144289
0.147149
0.146434
0.26149
0.15005
0.34192
0.147059
0.279712
0.143932
0.0521654
0.134997
-0.0645496
0.124384
-0.315236
0.129921
-0.258297
0.0347529
0.134161
-0.0410202
0.127035
-0.0443213
0.119778
-0.0476962
0.112534
-0.0512006
0.10568
-0.0543153
0.0995858
-0.0565802
0.0943372
-0.0576616
0.0899931
-0.0574631
0.0867818
-0.0557307
0.084582
-0.0521257
0.0836857
-0.0468549
0.0852145
-0.0395838
0.0890597
-0.0288895
0.0929328
-0.0149078
0.0959581
-0.000326459
0.100558
0.0134627
0.107909
0.0283343
0.117844
0.0453138
0.129516
0.0616629
0.143994
0.0761431
0.162523
0.0949791
0.182208
0.124786
0.195883
0.157242
0.200082
0.16033
0.196909
0.107651
0.187663
0.0204109
0.172334
-0.0547895
0.155303
-0.102788
0.14095
-0.129647
0.130057
-0.138957
0.120601
-0.139569
0.112684
-0.140296
0.10768
-0.135752
0.104292
-0.116663
0.100486
-0.0903955
0.0983176
-0.0660033
0.105093
-0.0501547
0.125112
-0.0162524
0.153222
0.0567874
0.180078
0.170208
0.197848
0.280208
0.203903
0.327599
0.196283
0.288172
0.177711
0.150037
0.157755
-0.025482
0.147664
-0.166237
0.142112
-0.191882
0.128496
-0.204195
0.119128
-0.226762
0.120114
-0.192021
0.134206
-0.0982145
0.146838
0.134517
0.149462
0.258866
0.152981
0.3384
0.150661
0.282033
0.148725
0.0541011
0.140278
-0.0561029
0.128905
-0.303862
0.134175
-0.263568
0.0307723
0.190234
-0.03516
-0.196094
0.185325
-0.0394119
0.180355
-0.0427262
0.174915
-0.0457608
0.16897
-0.0483704
0.162685
-0.0502957
0.156222
-0.0511984
0.149637
-0.0508775
0.143049
-0.0491434
0.136585
-0.0456618
0.13023
-0.0404996
0.124215
-0.0335689
0.119342
-0.0240162
0.116052
-0.0116175
0.113307
0.00241767
0.110172
0.0165977
0.107081
0.0314258
0.105646
0.0467489
0.10768
0.0596288
0.113716
0.0701068
0.121967
0.0867284
0.130582
0.116171
0.142905
0.144919
0.164845
0.13839
0.190008
0.0824876
0.204678
0.00574168
0.206556
-0.0566677
0.198774
-0.0950069
0.187414
-0.118287
0.175604
-0.127147
0.163888
-0.127854
0.152666
-0.129073
0.142977
-0.126063
0.133634
-0.107319
0.123805
-0.0805662
0.115074
-0.0572728
0.113772
-0.0488529
0.123263
-0.025743
0.137669
0.0423817
0.15128
0.156597
0.161553
0.269935
0.170515
0.318636
0.175803
0.282884
0.175805
0.150035
0.170064
-0.019741
0.164811
-0.160983
0.159202
-0.186273
0.144684
-0.189677
0.131747
-0.213826
0.125753
-0.186027
0.130051
-0.102512
0.134816
0.129751
0.133836
0.259846
0.137731
0.334505
0.140955
0.278809
0.143377
0.0516793
0.137617
-0.0503433
0.125526
-0.291771
0.126621
-0.264663
0.0283887
0.198449
-0.0304083
-0.2032
0.193469
-0.0344326
0.188378
-0.0376349
0.182934
-0.0403172
0.177093
-0.0425291
0.170927
-0.0441297
0.164598
-0.0448692
0.158265
-0.0445443
0.152073
-0.0429521
0.146231
-0.0398199
0.140879
-0.0351472
0.136097
-0.0287865
0.132151
-0.0200707
0.129553
-0.00901952
0.128375
0.00359629
0.127418
0.0175547
0.125775
0.0330681
0.124277
0.0482475
0.124488
0.0594173
0.126996
0.0675991
0.131418
0.082306
0.13977
0.107819
0.157755
0.126934
0.185335
0.110811
0.209859
0.0579631
0.220903
-0.00530219
0.218757
-0.0545219
0.208703
-0.0849527
0.196191
-0.105775
0.184169
-0.115125
0.172607
-0.116291
0.161425
-0.117892
0.151966
-0.116604
0.1437
-0.0990534
0.135325
-0.0721917
0.126413
-0.0483604
0.123185
-0.0456248
0.131351
-0.0339087
0.146912
0.02682
0.162845
0.140664
0.175231
0.257549
0.186248
0.307619
0.193038
0.276094
0.19353
0.149543
0.186633
-0.0128438
0.17892
-0.15327
0.172028
-0.179381
0.156625
-0.174275
0.14212
-0.199321
0.135264
-0.179171
0.140584
-0.107833
0.146648
0.123687
0.145396
0.261098
0.149427
0.330474
0.153661
0.274575
0.15714
0.0482004
0.15136
-0.0445633
0.137628
-0.27804
0.138057
-0.265092
0.025767
0.207237
-0.0265106
-0.211134
0.202631
-0.0298267
0.197794
-0.0327983
0.192707
-0.0352302
0.18731
-0.0371325
0.181628
-0.0384473
0.17577
-0.0390112
0.169871
-0.0386456
0.164079
-0.0371599
0.158563
-0.0343037
0.153468
-0.0300525
0.148972
-0.0242907
0.145387
-0.0164854
0.143243
-0.00687554
0.142666
0.00417384
0.143298
0.0169224
0.144432
0.0319335
0.145869
0.046811
0.147493
0.0577933
0.149182
0.0659104
0.152376
0.0791121
0.16232
0.097875
0.183667
0.105587
0.210701
0.0837764
0.229867
0.0387969
0.23513
-0.0105648
0.229984
-0.0493764
0.21941
-0.0743784
0.207179
-0.0935445
0.195569
-0.103515
0.184332
-0.105054
0.173033
-0.106593
0.163276
-0.106847
0.155359
-0.0911366
0.148154
-0.0649862
0.139196