/*--------------------------------*- C++ -*----------------------------------*\
| =========                 |                                                 |
| \\      /  F ield         | OpenFOAM: The Open Source CFD Toolbox           |
|  \\    /   O peration     | Version:  2312                                  |
|   \\  /    A nd           | Website:  www.openfoam.com                      |
|    \\/     M anipulation  |                                                 |
\*---------------------------------------------------------------------------*/
FoamFile
{
    version     2.0;
    format      ascii;
    arch        "LSB;label=32;scalar=64";
    class       surfaceScalarField;
    location    "3";
    object      phi;
}
// * * * * * * * * * * * * * * * * * * * * * * * * * * * * * * * * * * * * * //

dimensions      [0 3 -1 0 0 0 0];

oriented        oriented;

internalField   nonuniform List<scalar> 
64047
(
1.6085e-05
0.00109492
-0.001111
0.000279275
0.00275245
-0.00301564
0.00092211
0.00371721
-0.00436004
0.00203192
0.00381957
-0.00492939
0.00367563
0.00293006
-0.00457377
0.00591365
0.000956501
-0.00319452
0.00880065
-0.00215241
-0.000734583
0.0123726
-0.00639602
0.00282409
0.0166163
-0.0117011
0.00745743
0.0214406
-0.017895
0.0130707
0.0266596
-0.0246929
0.0194739
0.0320067
-0.0317167
0.0263696
0.0371818
-0.0385519
0.0333767
0.0419126
-0.0448217
0.0400909
0.0460063
-0.0502526
0.0461589
0.0493753
-0.0547068
0.0513377
0.0520327
-0.0581771
0.0555197
0.0540669
-0.0607565
0.0587223
0.0556083
-0.0625954
0.0610539
0.0567988
-0.0638623
0.0626718
0.0577692
-0.0647154
0.063745
0.0586272
-0.0652868
0.0644288
0.0594536
-0.0656774
0.064851
0.0603044
-0.0659594
0.0651086
0.0612156
-0.066182
0.0652708
0.0622084
-0.0663771
0.0653844
0.0632937
-0.0665655
0.0654802
0.0644763
-0.0667603
0.0655777
0.0657568
-0.0669701
0.0656896
0.0671339
-0.0672007
0.0658236
0.068605
-0.0674559
0.0659849
0.0701666
-0.0677379
0.0661762
0.071815
-0.0680489
0.0664006
0.0735427
-0.0683842
0.0666565
0.0753492
-0.0687517
0.0669453
0.0771698
-0.0691176
0.067297
-0.0694885
0.0676206
0.0790377
7.75746e-07
0.00109414
0.000241293
0.00251193
0.000884978
0.00307352
0.00205023
0.00265432
0.00383147
0.00114881
0.00630514
-0.00151717
0.0095214
-0.00536867
0.013482
-0.0103566
0.0181107
-0.0163298
0.0232336
-0.023018
0.028587
-0.0300463
0.0338588
-0.0369885
0.0387506
-0.0434437
0.0430367
-0.0491078
0.0465973
-0.0538132
0.0494205
-0.05753
0.0515804
-0.060337
0.0532024
-0.0623785
0.0544302
-0.0638231
0.0553998
-0.0648319
0.0562254
-0.065541
0.0569937
-0.0660551
0.0577657
-0.0664494
0.0585811
-0.0667748
0.0594639
-0.0670648
0.0604274
-0.0673406
0.0614781
-0.0676163
0.0626187
-0.0679008
0.0638491
-0.0682005
0.0651684
-0.06852
0.066575
-0.0688624
0.0680672
-0.0692301
0.0696429
-0.0696247
0.0713044
-0.0700456
0.0730528
-0.0705001
0.0749046
-0.0709694
-0.0715319
0.076948
8.7308e-06
0.00108541
0.00028045
0.00224021
0.000995319
0.00235865
0.00229326
0.00135637
0.0042849
-0.000842822
0.00704767
-0.00427994
0.0106081
-0.0089291
0.0149146
-0.0146632
0.019815
-0.0212302
0.0250571
-0.02826
0.0303246
-0.0353138
0.0352995
-0.0419634
0.039726
-0.0478702
0.0434524
-0.0528342
0.0464396
-0.0568004
0.0487425
-0.0598328
0.0504755
-0.0620701
0.0517783
-0.0636813
0.0527872
-0.064832
0.0536193
-0.0656639
0.054365
-0.0662868
0.0550895
-0.0667796
0.0558362
-0.0671961
0.0566323
-0.0675709
0.057494
-0.0679264
0.05843
-0.0682767
0.059445
-0.0686313
0.0605408
-0.0689966
0.0617178
-0.0693775
0.0629758
-0.0697779
0.0643141
-0.0702008
0.0657322
-0.0706482
0.06723
-0.0711225
0.0688081
-0.0716237
0.0704653
-0.0721572
0.0722097
-0.0727139
-0.0733256
0.0740034
3.63262e-05
0.00104908
0.000382767
0.00189377
0.00122679
0.00151463
0.00271857
-0.000135399
0.00497101
-0.00309526
0.00804549
-0.00735442
0.0119262
-0.0128098
0.0164947
-0.0192316
0.0215226
-0.0262581
0.0266998
-0.0334372
0.0316942
-0.0403082
0.0362212
-0.0464904
0.040094
-0.051743
0.0432408
-0.055981
0.0456913
-0.0592509
0.0475444
-0.0616859
0.0489323
-0.0634579
0.0499906
-0.0647396
0.0508392
-0.0656806
0.0515732
-0.066398
0.0522624
-0.0669759
0.0529541
-0.0674713
0.0536787
-0.0679207
0.0544547
-0.068347
0.055293
-0.0687646
0.0561993
-0.069183
0.0571767
-0.0696087
0.0582268
-0.0700466
0.05935
-0.0705008
0.0605466
-0.0709746
0.0618165
-0.0714707
0.0631598
-0.0719914
0.0645764
-0.0725391
0.0660667
-0.073114
0.067633
-0.0737236
0.0692714
-0.0743523
-0.0750516
0.0709974
7.67173e-05
0.000972367
0.000528694
0.00144179
0.00154266
0.000500658
0.00326803
-0.00186077
0.00580585
-0.00563307
0.00918436
-0.0107329
0.0133301
-0.0169556
0.0180516
-0.0239532
0.0230563
-0.0312628
0.0280054
-0.0383863
0.0325871
-0.0448899
0.0365775
-0.0504807
0.0398683
-0.0550338
0.0424603
-0.0585731
0.0444341
-0.0612247
0.0459131
-0.0631648
0.0470309
-0.0645757
0.0479095
-0.0656182
0.0486477
-0.0664189
0.0493188
-0.0670691
0.0499732
-0.0676303
0.0506437
-0.0681418
0.0513506
-0.0686276
0.0521063
-0.0691026
0.0529179
-0.0695763
0.0537899
-0.070055
0.0547246
-0.0705434
0.0557237
-0.0710457
0.0567879
-0.0715651
0.057918
-0.0721046
0.0591142
-0.0726669
0.0603769
-0.0732542
0.0617061
-0.0738683
0.0631023
-0.0745102
0.0645632
-0.0751845
0.0660909
-0.0758799
-0.0766399
0.0676792
0.000124007
0.00084836
0.000700425
0.000865374
0.00190881
-0.000707726
0.00388756
-0.00383952
0.00671154
-0.00845705
0.0103603
-0.0143816
0.0146917
-0.021287
0.0194449
-0.0287063
0.0242844
-0.0361024
0.028876
-0.0429778
0.0329575
-0.0489715
0.0363805
-0.0539037
0.0391121
-0.0577655
0.0412106
-0.0606715
0.0427874
-0.0628015
0.0439725
-0.0643499
0.0448889
-0.0654922
0.0456387
-0.066368
0.0462987
-0.067079
0.046923
-0.0676933
0.0475468
-0.0682542
0.0481929
-0.0687878
0.0488751
-0.0693098
0.049602
-0.0698295
0.0503789
-0.0703532
0.0512092
-0.0708853
0.0520951
-0.0714294
0.0530382
-0.0719887
0.0540394
-0.0725663
0.0550996
-0.0731648
0.0562192
-0.0737866
0.0573986
-0.0744336
0.0586381
-0.0751077
0.0599375
-0.0758097
0.0612965
-0.0765435
0.0627162
-0.0772995
-0.0781182
0.0641944
0.00017458
0.00067378
0.000885576
0.000154378
0.00229998
-0.00212213
0.00453498
-0.00607452
0.00762534
-0.0115474
0.0114885
-0.0182448
0.0159102
-0.0257087
0.0205728
-0.0333689
0.025127
-0.0406566
0.0292731
-0.0471239
0.0328176
-0.0525159
0.0356882
-0.0567743
0.0379153
-0.0599926
0.0395951
-0.0623513
0.0408522
-0.0640586
0.0418104
-0.0653081
0.0425755
-0.0662573
0.043229
-0.0670215
0.0438287
-0.0676786
0.0444129
-0.0682775
0.0450062
-0.0688475
0.0456237
-0.0694054
0.0462751
-0.0699612
0.0469664
-0.0705208
0.0477015
-0.0710884
0.0484835
-0.0716672
0.0493142
-0.0722601
0.0501954
-0.0728699
0.0511281
-0.073499
0.0521131
-0.0741499
0.0531513
-0.0748247
0.054243
-0.0755253
0.0553884
-0.076253
0.0565877
-0.077009
0.0578399
-0.0777957
0.0591466
-0.0786063
-0.0794752
0.0605036
0.000226842
0.000446938
0.00107691
-0.000695691
0.00269921
-0.00374442
0.00517901
-0.00855433
0.00849792
-0.0148663
0.0125025
-0.0222494
0.0169108
-0.030117
0.0213712
-0.0378294
0.0255497
-0.0448351
0.0292038
-0.050778
0.0322146
-0.0555267
0.0345776
-0.0591373
0.036369
-0.061784
0.0377054
-0.0636878
0.038711
-0.0650642
0.0394958
-0.0660929
0.0401464
-0.0669079
0.040725
-0.0676001
0.0412734
-0.068227
0.0418182
-0.0688223
0.042376
-0.0694053
0.0429574
-0.0699868
0.0435691
-0.0705728
0.0442157
-0.0711674
0.0449008
-0.0717734
0.0456267
-0.0723931
0.0463956
-0.073029
0.0472089
-0.0736832
0.0480679
-0.074358
0.0489735
-0.0750555
0.0499263
-0.0757776
0.0509269
-0.0765259
0.0519754
-0.0773016
0.0530723
-0.0781059
0.0542168
-0.0789402
0.055411
-0.0798004
-0.0807144
0.0566503
0.000280265
0.000166673
0.00127033
-0.00168576
0.00309427
-0.00556836
0.00579465
-0.0112547
0.00928877
-0.0183604
0.01335
-0.0263107
0.0176434
-0.0344104
0.0218097
-0.0419956
0.0255556
-0.048581
0.0287075
-0.0539299
0.0312171
-0.0580363
0.0331331
-0.0610534
0.0345604
-0.0632112
0.0356215
-0.0647489
0.0364308
-0.0658735
0.0370812
-0.0667433
0.0376404
-0.0674671
0.0381545
-0.0681142
0.038653
-0.0687255
0.0391543
-0.0693235
0.0396697
-0.0699208
0.0402067
-0.0705238
0.0407703
-0.0711365
0.0413643
-0.0717614
0.0419916
-0.0724007
0.0426546
-0.0730561
0.0433551
-0.0737295
0.0440946
-0.0744227
0.0448744
-0.0751377
0.0456953
-0.0758764
0.0465581
-0.0766404
0.0474633
-0.077431
0.0484112
-0.0782495
0.049402
-0.0790967
0.0504355
-0.0799737
0.0515133
-0.0808782
-0.0818315
0.0526303
0.000334577
-0.000167904
0.00146232
-0.0028135
0.00347418
-0.00758022
0.00635928
-0.0141398
0.00996352
-0.0219647
0.013993
-0.0303402
0.0180809
-0.0384983
0.0218867
-0.0458014
0.0251749
-0.0518692
0.0278421
-0.0565971
0.0298997
-0.0600939
0.0314337
-0.0625874
0.0325624
-0.0643399
0.033404
-0.0655905
0.0340584
-0.0665279
0.0346005
-0.0672854
0.0350818
-0.0679485
0.0355356
-0.068568
0.0359823
-0.0691722
0.0364346
-0.0697758
0.0369004
-0.0703865
0.037385
-0.0710084
0.0378925
-0.071644
0.0384261
-0.072295
0.0389884
-0.072963
0.0395815
-0.0736492
0.0402073
-0.0743553
0.0408672
-0.0750826
0.0415625
-0.075833
0.042294
-0.0766079
0.0430625
-0.0774089
0.0438686
-0.0782371
0.0447126
-0.0790935
0.0455947
-0.0799789
0.046515
-0.080894
0.0474749
-0.0818381
-0.0828262
0.0484696
0.000389246
-0.00055715
0.00164886
-0.00407312
0.00382753
-0.00975889
0.00685167
-0.0171639
0.0104943
-0.0256073
0.0144077
-0.0342537
0.0182176
-0.0423081
0.0216235
-0.0492073
0.024455
-0.0547008
0.0266732
-0.0588152
0.0283351
-0.0617558
0.0295489
-0.0638013
0.030435
-0.0652259
0.0311006
-0.0662561
0.0316292
-0.0670566
0.0320795
-0.0677356
0.0324895
-0.0683584
0.0328826
-0.0689612
0.0332732
-0.0695627
0.0336698
-0.0701724
0.0340782
-0.070795
0.0345028
-0.0714329
0.0349466
-0.0720879
0.0354126
-0.072761
0.035903
-0.0734534
0.0364199
-0.0741661
0.036965
-0.0749004
0.0375398
-0.0756574
0.0381455
-0.0764386
0.0387829
-0.0772453
0.0394528
-0.0780788
0.0401558
-0.0789401
0.0408923
-0.07983
0.0416626
-0.0807491
0.0424667
-0.0816981
0.0433058
-0.0826772
-0.0836959
0.0441755
0.000443319
-0.00100047
0.00182504
-0.00545484
0.00414244
-0.0120763
0.00725283
-0.0202743
0.0108611
-0.0292156
0.014585
-0.0379775
0.0180655
-0.0457887
0.021056
-0.0521978
0.0234511
-0.0570959
0.0252653
-0.0606294
0.0265874
-0.0630779
0.0275354
-0.0647493
0.0282235
-0.065914
0.0287448
-0.0667774
0.0291668
-0.0674786
0.0295342
-0.068103
0.0298746
-0.0686988
0.0302043
-0.0692909
0.0305334
-0.0698917
0.0308679
-0.070507
0.0312124
-0.0711394
0.03157
-0.0717906
0.0319436
-0.0724615
0.0323357
-0.073153
0.0327483
-0.073866
0.0331833
-0.0746012
0.0336425
-0.0753596
0.0341273
-0.0761421
0.0346387
-0.0769501
0.0351779
-0.0777845
0.0357455
-0.0786464
0.0363421
-0.0795368
0.0369682
-0.0804561
0.0376241
-0.081405
0.0383098
-0.0823838
0.0390263
-0.0833937
-0.0844393
0.0397697
0.000495426
-0.0014959
0.00198536
-0.00694477
0.00440747
-0.0144984
0.00754765
-0.0234145
0.0110536
-0.0327215
0.0145293
-0.0414532
0.01765
-0.0489093
0.0202288
-0.0547766
0.0222195
-0.0590865
0.0236777
-0.0620876
0.0247111
-0.0641114
0.0254382
-0.0654764
0.0259623
-0.066438
0.0263613
-0.0671765
0.0266886
-0.0678058
0.0269771
-0.0683916
0.0272469
-0.0689685
0.0275092
-0.0695533
0.0277713
-0.0701538
0.0280376
-0.0707733
0.0283116
-0.0714134
0.0285961
-0.072075
0.0288934
-0.0727588
0.0292059
-0.0734655
0.0295353
-0.0741954
0.0298835
-0.0749494
0.030252
-0.0757281
0.0306423
-0.0765324
0.0310555
-0.0773633
0.0314927
-0.0782216
0.0319545
-0.0791083
0.0324417
-0.080024
0.0329546
-0.080969
0.0334934
-0.0819438
0.0340584
-0.0829488
0.0346498
-0.0839851
-0.0850542
0.0352647
0.000544028
-0.00203992
0.00212435
-0.0085251
0.00461284
-0.0169869
0.00772636
-0.026528
0.0110705
-0.0360657
0.0142561
-0.0446388
0.0170046
-0.0516578
0.019189
-0.056961
0.0208129
-0.0607105
0.0219612
-0.0632359
0.02275
-0.0649002
0.0232917
-0.066018
0.0236762
-0.0668226
0.0239674
-0.0674676
0.024206
-0.0680444
0.0244164
-0.0686021
0.0246128
-0.0691649
0.0248033
-0.0697438
0.024993
-0.0703435
0.0251855
-0.0709658
0.0253835
-0.0716115
0.0255895
-0.072281
0.0258055
-0.0729749
0.0260336
-0.0736935
0.0262753
-0.0744372
0.0265324
-0.0752065
0.0268064
-0.0760021
0.0270986
-0.0768246
0.0274102
-0.0776748
0.0277422
-0.0785536
0.0280955
-0.0794616
0.0284706
-0.0803991
0.0288678
-0.0813663
0.0292874
-0.0823634
0.0297295
-0.0833909
0.0301943
-0.0844499
-0.0855391
0.0306792
0.000587548
-0.00262747
0.00223703
-0.0101746
0.00475129
-0.0195011
0.00778506
-0.0295618
0.0109193
-0.0392
0.0137882
-0.0475077
0.0161664
-0.054036
0.0179821
-0.0587767
0.0192783
-0.0620066
0.0201581
-0.0641157
0.0207383
-0.0654805
0.0211213
-0.066401
0.0213834
-0.0670846
0.0215753
-0.0676595
0.0217279
-0.068197
0.021859
-0.0687332
0.0219787
-0.0692845
0.0220927
-0.0698579
0.0222051
-0.0704558
0.0223186
-0.0710793
0.0224357
-0.0717285
0.0225584
-0.0724037
0.0226885
-0.073105
0.0228278
-0.0738328
0.0229779
-0.0745873
0.0231402
-0.0753689
0.0233162
-0.076178
0.023507
-0.0770155
0.023714
-0.0778818
0.0239381
-0.0787777
0.02418
-0.0797035
0.0244404
-0.0806594
0.0247195
-0.0816454
0.0250175
-0.0826614
0.0253347
-0.0837081
0.0256709
-0.0847862
-0.0858928
0.0260247
0.000624434
-0.00325191
0.00231929
-0.0118694
0.0048185
-0.0220004
0.0077253
-0.0324686
0.0106134
-0.0420881
0.0131529
-0.0500472
0.0151728
-0.0560559
0.0166493
-0.0602532
0.0176548
-0.0630121
0.0183016
-0.0647625
0.0187018
-0.0658807
0.0189457
-0.0666449
0.0190964
-0.0672353
0.0191937
-0.0677568
0.0192606
-0.068264
0.01931
-0.0687826
0.0193491
-0.0693236
0.0193824
-0.0698911
0.0194128
-0.0704863
0.0194428
-0.0711093
0.0194745
-0.0717602
0.0195097
-0.0724389
0.01955
-0.0731453
0.0195969
-0.0738797
0.0196518
-0.0746422
0.0197161
-0.0754331
0.019791
-0.076253
0.0198778
-0.0771022
0.0199775
-0.0779815
0.020091
-0.0788912
0.0202191
-0.0798316
0.0203623
-0.0808026
0.0205208
-0.0818039
0.0206949
-0.0828355
0.0208848
-0.083898
0.0210907
-0.0849921
-0.0861141
0.021312
0.000653214
-0.00390512
0.00236812
-0.0135843
0.00481321
-0.0244454
0.00755319
-0.0352086
0.0101702
-0.0447051
0.012378
-0.052255
0.0140579
-0.0577357
0.0152258
-0.0614212
0.015974
-0.0637603
0.0164175
-0.0652059
0.0166596
-0.0661229
0.0167782
-0.0667635
0.0168245
-0.0672817
0.0168292
-0.0677615
0.0168093
-0.0682441
0.0167742
-0.0687474
0.0167291
-0.0692786
0.0166775
-0.0698395
0.0166219
-0.0704307
0.0165644
-0.0710518
0.0165067
-0.0717025
0.0164505
-0.0723827
0.0163973
-0.0730921
0.0163483
-0.0738307
0.0163048
-0.0745987
0.0162681
-0.0753964
0.0162391
-0.076224
0.0162191
-0.0770822
0.0162088
-0.0779713
0.0162093
-0.0788917
0.0162212
-0.0798435
0.0162447
-0.0808262
0.0162803
-0.0818395
0.0163282
-0.0828833
0.0163887
-0.0839585
0.0164619
-0.0850653
-0.0862005
0.0165483
0.000673006
-0.00457813
0.00238247
-0.0152938
0.00473745
-0.0268004
0.00727828
-0.0377494
0.00960869
-0.0470355
0.0114904
-0.0541367
0.0128522
-0.0590975
0.0137414
-0.0623103
0.014262
-0.0642809
0.0145261
-0.06547
0.0146267
-0.0662235
0.0146294
-0.0667662
0.0145752
-0.0672275
0.0144875
-0.0676738
0.014379
-0.0681355
0.0142563
-0.0686248
0.0141236
-0.0691459
0.0139836
-0.0696995
0.0138383
-0.0702854
0.0136896
-0.0709031
0.013539
-0.071552
0.0133881
-0.0722317
0.013238
-0.072942
0.0130901
-0.0736828
0.0129453
-0.074454
0.0128047
-0.0752558
0.0126692
-0.0760886
0.0125398
-0.0769528
0.0124173
-0.0778488
0.0123024
-0.0787768
0.0121957
-0.0797368
0.0120977
-0.0807281
0.0120085
-0.0817503
0.0119286
-0.0828034
0.0118581
-0.083888
0.011797
-0.0850043
-0.0861497
0.0117463
0.000684589
-0.00526271
0.00236416
-0.0169734
0.00459677
-0.029033
0.00691346
-0.0400661
0.00895033
-0.0490724
0.0105178
-0.0557042
0.0115855
-0.0601652
0.0122237
-0.0629485
0.0125417
-0.0645989
0.0126451
-0.0655735
0.0126159
-0.0661943
0.0125086
-0.0666589
0.0123557
-0.0670745
0.0121748
-0.0674929
0.0119753
-0.067936
0.0117622
-0.0684118
0.0115387
-0.0689224
0.011307
-0.0694677
0.0110688
-0.0700472
0.0108257
-0.07066
0.0105792
-0.0713054
0.0103304
-0.071983
0.0100806
-0.0726922
0.00983077
-0.073433
0.00958187
-0.0742051
0.00933475
-0.0750087
0.00909025
-0.0758441
0.00884913
-0.0767116
0.00861208
-0.0776117
0.00837968
-0.0785444
0.00815249
-0.0795096
0.00793089
-0.0805065
0.00771526
-0.0815347
0.00750603
-0.0825941
0.00730367
-0.0836856
0.00710812
-0.0848087
0.00692054
-0.0859621
-0.000989778
0.000572949
0.000416829
-0.00308722
0.00119893
0.000898513
-0.00574859
0.00150637
0.00115499
-0.00864338
0.00162348
0.00127132
-0.0115825
0.00163303
0.00130607
-0.0144572
0.00158085
0.0012939
-0.0171955
0.00148685
0.00125146
-0.0197374
0.00135689
0.001185
-0.0220248
0.00119121
0.00109613
-0.0239985
0.000988712
0.000985055
-0.0255992
0.000748749
0.000851921
-0.0267684
0.000471888
0.000697293
-0.0274533
0.000162438
0.000522447
-0.0276038
-0.000180106
0.000330628
-0.0271803
-0.000547442
0.000123959
-0.026156
-0.000932658
-9.16166e-05
-0.0245157
-0.00132745
-0.000312908
-0.0222589
-0.00172237
-0.000534437
-0.0194005
-0.00210775
-0.000750599
-0.0159701
-0.00247424
-0.00095623
-0.0120097
-0.00281352
-0.00114679
-0.00757233
-0.00311877
-0.00131865
-0.00271825
-0.00338506
-0.00146902
0.0024872
-0.00360928
-0.00159617
0.00797912
-0.00379142
-0.00170051
0.0136931
-0.0039318
-0.00178216
0.0195685
-0.00403286
-0.00184259
0.0255504
-0.00409806
-0.00188379
0.03159
-0.00413151
-0.00190813
0.0376458
-0.00413759
-0.00191814
0.0436831
-0.00412095
-0.00191638
0.0496739
-0.00408552
-0.00190525
0.0555979
-0.00403686
-0.0018872
0.0614364
-0.0039745
-0.00186398
0.0671876
-0.0039129
-0.00183831
0.0728239
-0.00382597
-0.00181035
-0.003789
0.0783972
-0.00178425
-0.000959951
0.0015329
-0.00300777
0.00324675
-0.00561744
0.00411605
-0.00846415
0.00447018
-0.0113591
0.004528
-0.0141925
0.00441422
-0.016891
0.00418539
-0.019394
0.00385989
-0.0216429
0.00344003
-0.023578
0.0029239
-0.0251397
0.00231041
-0.0262693
0.00160151
-0.02691
0.000803117
-0.0270151
-7.50707e-05
-0.0265443
-0.00101822
-0.0254687
-0.00200822
-0.0237735
-0.00302267
-0.0214589
-0.00403692
-0.0185412
-0.00502552
-0.0150514
-0.00596398
-0.0110343
-0.00683065
-0.00654524
-0.00760782
-0.00164839
-0.00828191
0.00359143
-0.0088491
0.00910533
-0.00930531
0.0148278
-0.00965431
0.0206981
-0.0099031
0.0266613
-0.0100612
0.0326697
-0.01014
0.0386833
-0.0101512
0.0446695
-0.0101071
0.0506021
-0.0100181
0.056463
-0.00989781
0.0622356
-0.00974711
0.0679199
-0.00959716
0.073491
-0.00939705
-0.00929581
0.0789978
-0.00087968
0.00241258
-0.0027914
0.00515847
-0.00525743
0.00658208
-0.00796934
0.0071821
-0.01074
0.00729868
-0.0134568
0.007131
-0.0160438
0.00677239
-0.0184388
0.00625491
-0.0205825
0.00558374
-0.022415
0.00475637
-0.0238757
0.00377114
-0.024905
0.00263075
-0.0254455
0.0013437
-0.0254469
-7.36577e-05
-0.0248703
-0.00159487
-0.023684
-0.00319446
-0.021873
-0.00483372
-0.0194384
-0.00647149
-0.0163988
-0.0080651
-0.0127896
-0.00957327
-0.00866075
-0.0109595
-0.00407375
-0.0121948
0.000904496
-0.0132602
0.00619925
-0.0141439
0.0117393
-0.0148454
0.0174569
-0.0153719
0.0232903
-0.0157365
0.0291857
-0.0159567
0.035098
-0.0160523
0.0409907
-0.0160438
0.0468355
-0.015952
0.0526115
-0.0157941
0.0583056
-0.0155919
0.0639062
-0.0153478
0.0694173
-0.0151082
0.0748203
-0.0148001
-0.0146361
0.0801606
-0.000753996
0.00316658
-0.00244855
0.00685302
-0.00468224
0.00881577
-0.00717411
0.00967397
-0.00974092
0.0098655
-0.0122662
0.00965623
-0.0146699
0.00917616
-0.0168879
0.00847288
-0.01886
0.00755588
-0.0205262
0.00642256
-0.0218256
0.00507055
-0.0226978
0.00350287
-0.0230841
0.00173
-0.0229334
-0.000224342
-0.0222033
-0.00232496
-0.0208617
-0.00453602
-0.0188929
-0.00680255
-0.0162993
-0.00906508
-0.0131027
-0.0112617
-0.0093439
-0.0133321
-0.00507981
-0.0152235
-0.000379851
-0.0168948
0.00467896
-0.018319
0.0100175
-0.0194824
0.0155592
-0.0203871
0.0212338
-0.0210465
0.0269799
-0.0214825
0.0327461
-0.0217229
0.0384919
-0.0217981
0.0441867
-0.0217386
0.0498092
-0.0215745
0.0553454
-0.0213303
0.0607896
-0.021036
0.0661371
-0.0206953
0.0713966
-0.0203676
0.076558
-0.0199615
-0.01974
0.0816619
-0.00059141
0.00375799
-0.00199748
0.00825909
-0.00391665
0.0107349
-0.00610695
0.0118643
-0.00839264
0.0121512
-0.0106532
0.0119168
-0.0128036
0.0113266
-0.0147766
0.0104459
-0.0165116
0.0092908
-0.0179485
0.00785953
-0.0190272
0.00614922
-0.0196872
0.00416291
-0.0198688
0.00191157
-0.0195224
-0.00057078
-0.0186011
-0.00324624
-0.0170728
-0.0060643
-0.0149216
-0.00895373
-0.0121519
-0.0118348
-0.00878932
-0.0146243
-0.00488083
-0.0172406
-0.000492456
-0.0196119
0.00429697
-0.0216842
0.00940195
-0.023424
0.0147375
-0.024818
0.0202235
-0.0258731
0.0257891
-0.0266121
0.0313755
-0.0270689
0.0369366
-0.0272841
0.0424391
-0.0273006
0.0478607
-0.0271602
0.0531888
-0.0269026
0.0584183
-0.0265598
0.0635511
-0.0261688
0.0685903
-0.0257345
0.073549
-0.0253264
0.0784258
-0.0248383
-0.0245698
0.0832556
-0.000403681
0.00416167
-0.00146454
0.00931996
-0.00299766
0.012268
-0.00481148
0.0136781
-0.00674317
0.0140829
-0.00866935
0.013843
-0.0104993
0.0131565
-0.012162
0.0121087
-0.0135958
0.0107246
-0.0147418
0.00900544
-0.0155409
0.00694839
-0.0159345
0.00455648
-0.015863
0.00184009
-0.0152789
-0.00115487
-0.0141334
-0.00439176
-0.0123946
-0.00780314
-0.0100477
-0.0113006
-0.00710002
-0.0147825
-0.00357893
-0.0181454
0.000454938
-0.0212744
0.00492848
-0.0240855
0.00975523
-0.026511
0.0148421
-0.0285108
0.0200992
-0.0300751
0.0254459
-0.0312198
0.0308146
-0.0319807
0.0361529
-0.0324072
0.0414236
-0.0325548
0.0466034
-0.0324804
0.0516806
-0.0322373
0.0566527
-0.0318747
0.0615237
-0.0314309
0.0663032
-0.0309483
0.0710012
-0.0304325
0.0756343
-0.0299595
0.0802079
-0.0294119
-0.0291129
0.0847511
-0.00020512
0.00436679
-0.000883631
0.00999847
-0.00197484
0.0133593
-0.00334797
0.0150512
-0.00486022
0.0155951
-0.00638843
0.0153712
-0.0078363
0.0146044
-0.00912859
0.013401
-0.0102022
0.0117982
-0.0109992
0.00980244
-0.0114633
0.00741256
-0.011539
0.00463217
-0.0111685
0.00146953
-0.0103079
-0.00201545
-0.00890872
-0.00579093
-0.00694114
-0.00977071
-0.00438787
-0.0138539
-0.00126355
-0.0179068
0.00238453
-0.0217934
0.0065033
-0.0253932
0.0110074
-0.0285896
0.0158001
-0.0313036
0.0207839
-0.0334947
0.0258686
-0.0351598
0.0309775
-0.0363287
0.0360514
-0.0370546
0.0410488
-0.0374046
0.0459452
-0.0374512
0.0507299
-0.0372651
0.0554032
-0.0369105
0.0599728
-0.0364444
0.0644515
-0.0359096
0.068855
-0.0353518
0.0731985
-0.034776
0.0774999
-0.0342609
0.0817698
-0.0336818
-0.0333732
0.0860301
-1.13963e-05
0.00437818
-0.000294195
0.0102813
-0.000909592
0.0139747
-0.00179378
0.0159354
-0.00283295
0.0166343
-0.00390928
0.0164475
-0.00492276
0.0156178
-0.00579372
0.014272
-0.00645725
0.0124617
-0.00685666
0.0102018
-0.00693901
0.00749491
-0.00665292
0.00434608
-0.0059473
0.000763914
-0.0047771
-0.00318565
-0.00309813
-0.0074699
-0.000882398
-0.0119864
0.00186863
-0.0166049
0.00514431
-0.0211825
0.00890124
-0.0255504
0.0130601
-0.0295521
0.0175284
-0.0330579
0.0222049
-0.0359801
0.0269916
-0.0382813
0.0318036
-0.0399718
0.0365747
-0.0410998
0.0412596
-0.0417395
0.0458328
-0.0419777
0.050285
-0.0419035
0.05462
-0.0416001
0.05885
-0.0411404
0.0629919
-0.0405863
0.0670651
-0.0399828
0.0710892
-0.0393758
0.075082
-0.0387688
0.0790607
-0.0382396
0.083038
-0.0376591
-0.0373637
0.0870285
0.000161953
0.00421623
0.000259876
0.0101833
0.000128185
0.0141063
-0.000241697
0.0163053
-0.000771658
0.0171643
-0.00135658
0.0170324
-0.00189679
0.016158
-0.00230948
0.0146846
-0.00252793
0.0126802
-0.00249641
0.0101703
-0.00216521
0.00716372
-0.00148711
0.00366798
-0.000425231
-0.000297968
0.00107786
-0.00468874
0.00304994
-0.00944198
0.00551317
-0.0144497
0.00847247
-0.0195642
0.0118955
-0.0246056
0.0157235
-0.0293784
0.0198698
-0.0336983
0.0242321
-0.0374202
0.0287075
-0.0404554
0.0332038
-0.0427777
0.0376488
-0.0444168
0.0419938
-0.0454448
0.0462129
-0.0459587
0.0502999
-0.0460648
0.0542631
-0.0458666
0.0581198
-0.0454569
0.0618926
-0.0449133
0.0656053
-0.044299
0.0692809
-0.0436584
0.0729397
-0.0430346
0.0765998
-0.0424289
0.0802748
-0.0419146
0.0839779
-0.0413622
-0.0411011
0.0877153
0.000301952
0.00391428
0.00073783
0.00974746
0.00106403
0.0137801
0.00120628
0.016163
0.00119817
0.0171724
0.00112398
0.0171066
0.00107749
0.0162045
0.00114191
0.0146202
0.00138492
0.0124372
0.00186126
0.00969398
0.00261746
0.00640751
0.00369545
0.00259
0.00513505
-0.00173757
0.0069786
-0.00653229
0.00925557
-0.011719
0.0119809
-0.017175
0.0151433
-0.0227266
0.0186974
-0.0281597
0.0225653
-0.0332463
0.0266467
-0.0377797
0.030834
-0.0416075
0.0350283
-0.0446498
0.0391515
-0.0469009
0.0431522
-0.0484175
0.0470057
-0.0492982
0.05071
-0.0496629
0.0542797
-0.0496345
0.0577397
-0.0493266
0.0611191
-0.0488363
0.0644476
-0.0482417
0.0677519
-0.0476033
0.0710555
-0.046962
0.0743767
-0.0463558
0.0777311
-0.0457833
0.0811274
-0.0453109
0.084578
-0.0448128
-0.0446031
0.0880799
0.000399772
0.00351451
0.00110661
0.00904063
0.00183222
0.0130545
0.00244831
0.015547
0.00294387
0.0166768
0.00337475
0.0166757
0.00382107
0.0157582
0.00436123
0.0140801
0.00506173
0.0117367
0.00597662
0.0087791
0.00715131
0.00523282
0.00862583
0.00111547
0.0104418
-0.00355355
0.0126344
-0.00872492
0.0152288
-0.0143133
0.0182269
-0.0201731
0.021597
-0.0260967
0.0252696
-0.0318323
0.0291449
-0.0371215
0.0331095
-0.0417443
0.0370562
-0.0455541
0.0408994
-0.048493
0.0445846
-0.0505861
0.0480889
-0.0519218
0.0514165
-0.0526259
0.0545909
-0.0528373
0.0576464
-0.05269
0.0606211
-0.0523013
0.063552
-0.0517672
0.0664714
-0.0511611
0.0694055
-0.0505374
0.0723751
-0.0499316
0.075394
-0.0493747
0.0784742
-0.0488635
0.0816186
-0.0484553
0.0848381
-0.0480322
-0.0478862
0.0881212
0.000451691
0.00306282
0.00134391
0.00814841
0.00237995
0.0120185
0.00339667
0.0145302
0.00434249
0.015731
0.00524089
0.0157773
0.00615178
0.0148473
0.00714358
0.0130883
0.00827903
0.0106012
0.0096116
0.00744653
0.0111871
0.00365733
0.0130513
-0.000748719
0.0152442
-0.00574645
0.0177998
-0.0112805
0.020732
-0.0172456
0.0240208
-0.0234619
0.0276031
-0.029679
0.0313773
-0.0356065
0.0352206
-0.0409648
0.0390124
-0.0455362
0.0426562
-0.0491979
0.0460916
-0.0519284
0.0492968
-0.0537914
0.0522833
-0.0549083
0.0550853
-0.0554279
0.0577495
-0.0555015
0.0603258
-0.0552662
0.0628604
-0.054836
0.0653928
-0.0542995
0.0679539
-0.0537222
0.070566
-0.0531496
0.0732451
-0.0526108
0.0759995
-0.0521292
0.078837
-0.051701
0.0817551
-0.0513734
0.0847631
-0.0510402
-0.0509659
0.0878428
0.000459476
0.00260334
0.00144377
0.00716411
0.00268021
0.0107821
0.00399356
0.0132169
0.00530245
0.0144221
0.00659907
0.0144807
0.00791952
0.0135269
0.00931801
0.0116898
0.0108515
0.00906778
0.0125741
0.00572389
0.0145343
0.00169717
0.0167884
-0.00300289
0.0193759
-0.00833394
0.0223245
-0.0142291
0.0256259
-0.0205469
0.0292231
-0.0270591
0.0330106
-0.0334666
0.0368518
-0.0394477
0.040607
-0.04472
0.044162
-0.0490912
0.0474454
-0.0524813
0.0504335
-0.0549165
0.0531443
-0.0565021
0.055624
-0.057388
0.0579341
-0.0577379
0.0601383
-0.0577058
0.0622953
-0.0574232
0.0644533
-0.0569941
0.0666494
-0.0564957
0.0689097
-0.0559824
0.0712507
-0.0554905
0.0736826
-0.0550427
0.0762083
-0.0546549
0.0788319
-0.0543246
0.0815463
-0.0540878
0.0843602
-0.0538542
-0.0538556
0.0872499
0.000429366
0.00217397
0.00141611
0.00617736
0.00273588
0.0094623
0.00422365
0.0117291
0.00578334
0.0128624
0.00738281
0.0128812
0.00903559
0.0118741
0.010781
0.00994433
0.0126704
0.00717843
0.0147593
0.003635
0.017111
-0.000654515
0.0197774
-0.00566937
0.022801
-0.0113575
0.026187
-0.017615
0.029886
-0.024246
0.0337892
-0.0309622
0.0377434
-0.0374208
0.0415848
-0.0432891
0.0451741
-0.0483093
0.048422
-0.0523391
0.0512977
-0.055357
0.0538224
-0.0574413
0.0560541
-0.0587337
0.0580694
-0.0594033
0.0599484
-0.059617
0.061764
-0.0595214
0.0635758
-0.0592349
0.0654285
-0.0588468
0.0673531
-0.0584202
0.0693689
-0.0579982
0.0714861
-0.0576077
0.0737096
-0.0572661
0.0760377
-0.056983
0.0784722
-0.0567591
0.0810016
-0.0566172
0.0836364
-0.0564889
-0.0565667
0.0863475
0.00037043
0.00180354
0.00128398
0.00526381
0.00257913
0.00816715
0.00411916
0.0101891
0.00580975
0.0111718
0.00760603
0.011085
0.00950599
0.00997413
0.0115386
0.00791175
0.0137533
0.00496369
0.0162093
0.00117906
0.0189793
-0.00342451
0.0221108
-0.00880088
0.0256257
-0.0148724
0.0294846
-0.0214739
0.0335771
-0.0283385
0.0377351
-0.0351202
0.041768
-0.0414537
0.0455063
-0.0470273
0.0488356
-0.0516387
0.0517113
-0.0552147
0.0541527
-0.0577985
0.0562264
-0.0595149
0.0580237
-0.060531
0.0596413
-0.061021
0.0611678
-0.0611434
0.0626757
-0.0610293
0.0642193
-0.0607785
0.0658358
-0.0604633
0.0675483
-0.0601327
0.069369
-0.0598189
0.0713028
-0.0595415
0.07335
-0.0593134
0.0755063
-0.0591393
0.0777715
-0.0590244
0.0801309
-0.0589766
0.0825988
-0.0589568
-0.0591071
0.0851392
0.000293141
0.0015104
0.00107959
0.00447736
0.00226619
0.00698055
0.00375655
0.00869873
0.00547309
0.00945526
0.00737229
0.00918575
0.00944803
0.00789838
0.0117272
0.00563259
0.0142613
0.00242959
0.0171206
-0.00168021
0.0203609
-0.00666487
0.024016
-0.012456
0.0280562
-0.0189126
0.0323729
-0.0257907
0.0367864
-0.0327521
0.0410811
-0.0394149
0.0450553
-0.0454279
0.0485646
-0.0505367
0.0515436
-0.0546176
0.0540035
-0.0576747
0.0560144
-0.0598094
0.0576792
-0.0611797
0.0591101
-0.0619619
0.0604113
-0.0623221
0.061669
-0.0624012
0.0629484
-0.0623086
0.0642942
-0.0621243
0.0657344
-0.0619035
0.0672843
-0.0616826
0.0689501
-0.0614847
0.0707325
-0.061324
0.0726287
-0.0612095
0.0746333
-0.0611439
0.0767444
-0.0611355
0.078946
-0.0611782
0.081257
-0.0612677
-0.0614799
0.0836298
0.000208606
0.0013018
0.000840508
0.00384546
0.00186969
0.00595137
0.00324608
0.00732233
0.00492057
0.00778078
0.00686495
0.00724137
0.00908179
0.00568154
0.0116045
0.00310989
0.0144897
-0.00045563
0.017798
-0.00498847
0.0215635
-0.0104305
0.0257645
-0.016657
0.0302957
-0.0234437
0.0349699
-0.0304649
0.0395511
-0.0373333
0.0438076
-0.0436713
0.0475627
-0.049183
0.0507249
-0.053699
0.0532911
-0.0571838
0.055328
-0.0597117
0.0569453
-0.0614267
0.0582674
-0.0625018
0.0594127
-0.0631071
0.0604808
-0.0633902
0.0615479
-0.0634683
0.0626674
-0.0634282
0.0638733
-0.0633302
0.0651847
-0.0632149
0.0666104
-0.0631082
0.0681521
-0.0630264
0.0698077
-0.0629796
0.0715723
-0.0629741
0.073441
-0.0630125
0.075409
-0.0631035
0.0774637
-0.0632329
0.0796255
-0.0634295
-0.0636831
0.0818287