/*--------------------------------*- C++ -*----------------------------------*\
| =========                 |                                                 |
| \\      /  F ield         | OpenFOAM: The Open Source CFD Toolbox           |
|  \\    /   O peration     | Version:  2512                                  |
|   \\  /    A nd           | Website:  www.openfoam.com                      |
|    \\/     M anipulation  |                                                 |
\*---------------------------------------------------------------------------*/
FoamFile
{
    version     2.0;
    format      ascii;
    arch        "LSB;label=32;scalar=64";
    class       surfaceScalarField;
    location    "84";
    object      phi;
}
// * * * * * * * * * * * * * * * * * * * * * * * * * * * * * * * * * * * * * //

dimensions      [0 3 -1 0 0 0 0];

oriented        oriented;

internalField   nonuniform List<scalar> 
19380
(
0.874552
-4.91829e-05
0.874699
-0.00014743
0.87494
-0.000240478
0.875266
-0.000326282
0.875669
-0.000402813
0.876138
-0.00046888
0.876662
-0.000524519
0.877232
-0.000570111
0.877839
-0.000606595
0.878474
-0.000635094
0.879131
-0.000656707
0.879803
-0.000672428
0.880486
-0.000683115
0.881176
-0.000689502
0.881868
-0.000692207
0.88256
-0.000691748
0.883248
-0.000688542
0.883931
-0.000682922
0.884606
-0.000675148
0.885272
-0.000665425
0.885926
-0.000653919
0.886566
-0.000640775
0.887193
-0.00062613
0.887803
-0.000610121
0.888396
-0.000592896
0.88897
-0.000574615
0.889526
-0.000555447
0.890061
-0.000535569
0.890576
-0.000515163
0.891071
-0.00049441
0.891544
-0.000473436
0.891997
-0.000452368
0.892428
-0.000431371
0.892839
-0.00041059
0.893229
-0.000390154
0.893599
-0.000370165
0.89395
-0.000350711
0.894281
-0.000331861
0.894595
-0.000313671
-0.000296228
0.894891
0.844011
-9.6421e-05
0.844153
-0.000289232
0.844384
-0.000471944
0.844698
-0.000640547
0.845087
-0.000791039
0.845539
-0.000921054
0.846045
-0.00103072
0.846596
-0.00112073
0.847182
-0.00119292
0.847796
-0.00124949
0.848432
-0.00129259
0.849084
-0.00132416
0.849747
-0.00134586
0.850416
-0.00135913
0.851089
-0.00136516
0.851762
-0.00136495
0.852433
-0.00135931
0.853099
-0.00134886
0.853758
-0.00133412
0.854408
-0.00131548
0.855047
-0.00129325
0.855674
-0.00126771
0.856287
-0.00123913
0.856885
-0.00120779
0.857466
-0.00117397
0.858029
-0.00113799
0.858574
-0.0011002
0.8591
-0.00106094
0.859605
-0.00102058
0.86009
-0.000979497
0.860555
-0.000937938
0.860998
-0.000896167
0.861422
-0.000854509
0.861824
-0.000813258
0.862207
-0.000772672
0.86257
-0.000732958
0.862913
-0.000694297
0.863238
-0.000656827
0.863545
-0.000620664
-0.00058598
0.863835
0.814536
-0.00014149
0.814672
-0.000424832
0.814893
-0.000693731
0.815195
-0.000942254
0.815569
-0.0011645
0.816004
-0.00135672
0.816493
-0.00151922
0.817025
-0.00165294
0.817593
-0.00176056
0.818188
-0.00184528
0.818806
-0.00191025
0.81944
-0.00195831
0.820086
-0.00199188
0.82074
-0.00201306
0.821398
-0.00202356
0.822058
-0.00202484
0.822717
-0.00201803
0.823372
-0.00200405
0.824022
-0.00198359
0.824663
-0.00195721
0.825296
-0.00192537
0.825916
-0.00188845
0.826524
-0.00184685
0.827117
-0.00180095
0.827694
-0.00175121
0.828255
-0.0016981
0.828797
-0.00164213
0.829319
-0.00158383
0.829823
-0.00152377
0.830306
-0.00146249
0.830768
-0.00140046
0.83121
-0.00133804
0.831631
-0.00127572
0.832032
-0.00121394
0.832412
-0.00115312
0.832773
-0.00109356
0.833114
-0.00103555
0.833437
-0.000979302
0.833741
-0.000925007
-0.000872917
0.834028
0.78609
-0.000184225
0.786219
-0.00055386
0.786431
-0.000905369
0.78672
-0.00123094
0.787078
-0.00152283
0.787497
-0.00177582
0.787968
-0.00199011
0.788482
-0.00216712
0.789032
-0.00231023
0.78961
-0.00242357
0.790211
-0.00251123
0.79083
-0.00257687
0.791461
-0.00262366
0.792103
-0.00265427
0.79275
-0.00267093
0.793401
-0.00267545
0.794052
-0.00266925
0.794701
-0.00265349
0.795347
-0.00262901
0.795986
-0.0025965
0.796617
-0.0025565
0.797238
-0.0025095
0.797847
-0.00245599
0.798443
-0.0023965
0.799023
-0.0023316
0.799587
-0.00226193
0.800133
-0.00218819
0.80066
-0.0021111
0.801168
-0.00203142
0.801655
-0.0019499
0.802122
-0.00186726
0.802568
-0.00178397
0.802993
-0.00170069
0.803397
-0.00161802
0.803781
-0.00153652
0.804144
-0.00145665
0.804487
-0.0013788
0.804811
-0.00130328
0.805116
-0.00123035
-0.00116035
0.805404
0.758638
-0.000224469
0.75876
-0.000675928
0.758961
-0.00110633
0.759236
-0.001506
0.759578
-0.00186535
0.75998
-0.00217795
0.760433
-0.002443
0.760929
-0.00266309
0.761461
-0.00284199
0.762022
-0.00298472
0.762607
-0.00309622
0.763211
-0.00318093
0.76383
-0.00324269
0.764461
-0.00328473
0.765099
-0.00330969
0.765744
-0.00331969
0.766391
-0.00331639
0.767038
-0.00330109
0.767684
-0.00327475
0.768326
-0.00323813
0.768961
-0.00319182
0.769588
-0.00313638
0.770204
-0.00307237
0.770808
-0.00300044
0.771398
-0.00292129
0.771972
-0.00283574
0.772528
-0.00274466
0.773066
-0.00264897
0.773584
-0.00254968
0.774082
-0.00244774
0.774559
-0.00234414
0.775015
-0.00223956
0.775449
-0.00213477
0.775861
-0.00203055
0.776253
-0.00192766
0.776623
-0.00182669
0.776972
-0.00172819
0.777301
-0.00163256
0.777611
-0.00154016
-0.00145143
0.777902
0.732144
-0.000262061
0.732258
-0.000790628
0.732448
-0.00129601
0.732709
-0.00176668
0.733034
-0.00219124
0.733419
-0.0025622
0.733853
-0.00287722
0.73433
-0.00314016
0.734843
-0.00335529
0.735387
-0.00352835
0.735956
-0.00366508
0.736545
-0.00377064
0.737152
-0.0038495
0.737773
-0.00390538
0.738405
-0.00394125
0.739044
-0.00395946
0.73969
-0.00396182
0.740338
-0.00394973
0.740988
-0.00392419
0.741636
-0.00388597
0.742279
-0.00383564
0.742917
-0.00377378
0.743545
-0.00370103
0.744163
-0.00361811
0.744768
-0.00352587
0.745357
-0.00342526
0.74593
-0.00331738
0.746484
-0.00320335
0.747019
-0.00308442
0.747533
-0.0029618
0.748026
-0.00283674
0.748496
-0.00271025
0.748945
-0.00258319
0.749371
-0.00245653
0.749774
-0.00233124
0.750156
-0.00220811
0.750516
-0.00208784
0.750854
-0.00197095
0.751172
-0.00185791
-0.00174931
0.75147
0.706574
-0.000296845
0.706681
-0.000897533
0.706859
-0.00147375
0.707104
-0.00201214
0.707413
-0.00249949
0.707778
-0.00292714
0.708192
-0.00329179
0.708649
-0.00359717
0.709143
-0.00384898
0.709668
-0.00405341
0.71022
-0.00421692
0.710795
-0.00434535
0.711389
-0.00444374
0.712
-0.00451623
0.712624
-0.00456602
0.713261
-0.00459561
0.713906
-0.00460691
0.714557
-0.00460132
0.715213
-0.00457979
0.71587
-0.00454298
0.716526
-0.00449141
0.717177
-0.00442565
0.717823
-0.00434635
0.718459
-0.00425428
0.719084
-0.00415042
0.719694
-0.00403586
0.720289
-0.00391189
0.720865
-0.00377989
0.721422
-0.00364137
0.721958
-0.00349781
0.722472
-0.00335074
0.722963
-0.00320153
0.723431
-0.00305127
0.723876
-0.00290107
0.724297
-0.00275215
0.724694
-0.00260549
0.725068
-0.00246201
0.72542
-0.00232239
0.725749
-0.00218724
-0.00205728
0.726057
0.681898
-0.000328677
0.681997
-0.000996208
0.682162
-0.00163887
0.682391
-0.00224145
0.68268
-0.00278893
0.683025
-0.00327136
0.683418
-0.00368514
0.683853
-0.00403261
0.684326
-0.00432145
0.684831
-0.00455827
0.685364
-0.00475014
0.685922
-0.00490361
0.686503
-0.00502422
0.687103
-0.0051164
0.68772
-0.00518347
0.688353
-0.00522807
0.688998
-0.00525207
0.689653
-0.00525682
0.690317
-0.00524305
0.690985
-0.00521125
0.691655
-0.00516182
0.692325
-0.00509522
0.692991
-0.00501209
0.69365
-0.00491322
0.694299
-0.00479964
0.694936
-0.00467257
0.695557
-0.00453354
0.696162
-0.00438416
0.696746
-0.00422624
0.69731
-0.00406154
0.697851
-0.00389192
0.698369
-0.00371908
0.698862
-0.00354457
0.699331
-0.00336955
0.699774
-0.00319552
0.700192
-0.00302372
0.700586
-0.00285532
0.700954
-0.00269117
0.701299
-0.00253209
-0.00237894
0.701621
0.658083
-0.00035742
0.658173
-0.00108624
0.658325
-0.00179067
0.658537
-0.00245364
0.658806
-0.00305837
0.659128
-0.00359347
0.659498
-0.004055
0.659911
-0.00444489
0.66036
-0.00477071
0.660842
-0.00504077
0.661355
-0.00526256
0.661894
-0.00544333
0.662459
-0.005589
0.663047
-0.00570415
0.663656
-0.00579218
0.664283
-0.0058558
0.664928
-0.00589679
0.665588
-0.00591626
0.666259
-0.00591459
0.66694
-0.00589201
0.667627
-0.00584871
0.668317
-0.00578501
0.669006
-0.00570142
0.669691
-0.00559866
0.670369
-0.00547779
0.671037
-0.00534016
0.671691
-0.0051875
0.672329
-0.00502166
0.672947
-0.00484479
0.673544
-0.00465893
0.674119
-0.00446631
0.674669
-0.00426897
0.675193
-0.00406899
0.675691
-0.00386776
0.676163
-0.00366698
0.676607
-0.00346818
0.677025
-0.00327285
0.677416
-0.00308205
0.67778
-0.00289685
-0.00271832
0.67812
0.635099
-0.000382949
0.63518
-0.00116727
0.635318
-0.0019285
0.635512
-0.00264782
0.635761
-0.00330659
0.636059
-0.00389189
0.636403
-0.00439945
0.63679
-0.00483166
0.637214
-0.00519462
0.637672
-0.0054984
0.638161
-0.00575153
0.638679
-0.00596184
0.639226
-0.00613543
0.639798
-0.00627696
0.640396
-0.00638985
0.641017
-0.00647689
0.64166
-0.0065396
0.642322
-0.00657867
0.643002
-0.00659403
0.643695
-0.00658554
0.6444
-0.00655309
0.645112
-0.00649674
0.645827
-0.00641678
0.646542
-0.00631375
0.647253
-0.00618871
0.647956
-0.00604306
0.648647
-0.00587876
0.649323
-0.00569788
0.649981
-0.00550288
0.650619
-0.00529611
0.651232
-0.00508024
0.651821
-0.00485765
0.652383
-0.00463094
0.652917
-0.00440201
0.653423
-0.0041727
0.6539
-0.00394483
0.654347
-0.00372028
0.654766
-0.0035004
0.655155
-0.00328655
-0.00308004
0.655517
0.612918
-0.000405177
0.61299
-0.00123897
0.613113
-0.00205176
0.613288
-0.00282318
0.613514
-0.00353241
0.613787
-0.00416507
0.614105
-0.00471686
0.614463
-0.00519013
0.61486
-0.0055908
0.61529
-0.00592839
0.615752
-0.00621409
0.616246
-0.00645604
0.616771
-0.00666029
0.617326
-0.00683158
0.617909
-0.00697342
0.618521
-0.00708858
0.61916
-0.00717811
0.619823
-0.00724213
0.620509
-0.00727999
0.621215
-0.00729113
0.621937
-0.00727503
0.622671
-0.0072313
0.623414
-0.00715987
0.624161
-0.007061
0.624908
-0.00693569
0.625651
-0.00678536
0.626384
-0.00661213
0.627104
-0.00641822
0.627808
-0.00620644
0.628491
-0.00597946
0.629151
-0.00574039
0.629786
-0.00549203
0.630392
-0.00523746
0.63097
-0.00497925
0.631516
-0.00471955
0.632032
-0.00446038
0.632516
-0.00420409
0.632968
-0.00395238
0.633388
-0.00370697
-0.00346948
0.633778
0.591511
-0.000424056
0.591574
-0.00130104
0.591682
-0.00216004
0.591838
-0.00297905
0.59204
-0.00373467
0.592286
-0.00441159
0.592575
-0.00500559
0.592903
-0.00551827
0.593268
-0.00595584
0.593668
-0.00632808
0.594101
-0.00664713
0.594568
-0.00692246
0.595067
-0.00715981
0.5956
-0.00736417
0.596165
-0.00753913
0.596764
-0.0076873
0.597395
-0.007809
0.598057
-0.00790368
0.598747
-0.00797007
0.599463
-0.00800708
0.600201
-0.0080136
0.600958
-0.00798859
0.60173
-0.00793148
0.602511
-0.00784214
0.603297
-0.00772143
0.604082
-0.00757067
0.604862
-0.00739207
0.605632
-0.00718796
0.606387
-0.00696145
0.607123
-0.00671553
0.607836
-0.0064538
0.608524
-0.00617949
0.609183
-0.00589626
0.609811
-0.00560716
0.610406
-0.00531522
0.610968
-0.00502241
0.611496
-0.00473166
0.611988
-0.00444506
0.612446
-0.00416483
-0.00389293
0.61287
0.570852
-0.000439555
0.570904
-0.00135323
0.570997
-0.00225309
0.571133
-0.00311486
0.571311
-0.00391234
0.57153
-0.0046303
0.571788
-0.00526422
0.572084
-0.00581412
0.572415
-0.00628679
0.572781
-0.00669414
0.573182
-0.00704763
0.573617
-0.00735745
0.574087
-0.00762991
0.574593
-0.00787042
0.575136
-0.00808261
0.575718
-0.0082687
0.576337
-0.00842802
0.576993
-0.00855937
0.577683
-0.00866079
0.578407
-0.00873055
0.57916
-0.00876674
0.579939
-0.00876742
0.580739
-0.00873139
0.581554
-0.00865798
0.582381
-0.00854784
0.583212
-0.00840199
0.584043
-0.00822263
0.584867
-0.00801212
0.585679
-0.00777383
0.586475
-0.00751105
0.587249
-0.00722786
0.587997
-0.00692796
0.588717
-0.00661561
0.589404
-0.00629437
0.590057
-0.00596824
0.590674
-0.00563948
0.591254
-0.00531141
0.591795
-0.00498661
0.592298
-0.00466795
-0.00435777
0.592763
0.550914
-0.000451642
0.550956
-0.00139542
0.551034
-0.00233092
0.551149
-0.00323011
0.551302
-0.0040646
0.551492
-0.0048205
0.551719
-0.00549154
0.551981
-0.00607567
0.552276
-0.00658151
0.552604
-0.00702312
0.552969
-0.00741221
0.553369
-0.00775724
0.553805
-0.0080663
0.554281
-0.00834578
0.554797
-0.00859904
0.555356
-0.00882772
0.555958
-0.00903006
0.556603
-0.00920425
0.55729
-0.00934762
0.558017
-0.00945759
0.558781
-0.00953117
0.559579
-0.00956535
0.560406
-0.00955818
0.561256
-0.00950827
0.562124
-0.00941585
0.563004
-0.00928149
0.563888
-0.00910724
0.564772
-0.00889533
0.565647
-0.00864933
0.566509
-0.00837277
0.567351
-0.00807023
0.568169
-0.00774582
0.568958
-0.00740449
0.569714
-0.00705032
0.570434
-0.00668817
0.571116
-0.0063212
0.571757
-0.00595294
0.572357
-0.00558645
0.572914
-0.00522541
-0.00487265
0.573429
0.531672
-0.00046023
0.531705
-0.00142767
0.531767
-0.00239374
0.531861
-0.00332424
0.531988
-0.00419107
0.532149
-0.00498197
0.532344
-0.0056864
0.53257
-0.00630112
0.532826
-0.00683807
0.533116
-0.0073128
0.53344
-0.00773672
0.533801
-0.00811799
0.5342
-0.00846483
0.53464
-0.00878557
0.535124
-0.0090832
0.535655
-0.0093587
0.536234
-0.00960921
0.536862
-0.0098325
0.537539
-0.010025
0.538265
-0.010183
0.539036
-0.0103023
0.539849
-0.0103786
0.5407
-0.0104091
0.541583
-0.0103915
0.542493
-0.0103253
0.543422
-0.0102104
0.544363
-0.0100485
0.545309
-0.00984158
0.546253
-0.00959334
0.547188
-0.00930738
0.548106
-0.00898872
0.549002
-0.00864188
0.54987
-0.0082725
0.550705
-0.00788523
0.551503
-0.00748577
0.55226
-0.00707836
0.552974
-0.0066671
0.553643
-0.00625533
0.554265
-0.00584773
-0.00544768
0.55484
0.513102
-0.000465139
0.513125
-0.00145034
0.513173
-0.00244173
0.513245
-0.00339676
0.513346
-0.00429211
0.513479
-0.00511479
0.51364
-0.00584769
0.513828
-0.00648907
0.514045
-0.00705502
0.514294
-0.00756116
0.514575
-0.00801813
0.514892
-0.00843518
0.515249
-0.0088214
0.515648
-0.00918517
0.516095
-0.00952966
0.516592
-0.00985554
0.517141
-0.010159
0.517746
-0.0104375
0.518408
-0.0106863
0.519125
-0.0109004
0.519897
-0.0110742
0.52072
-0.011202
0.521591
-0.01128
0.522504
-0.0113046
0.523454
-0.0112744
0.524432
-0.0111885
0.525431
-0.0110479
0.526443
-0.0108541
0.527461
-0.0106107
0.528475
-0.0103212
0.529477
-0.00999115
0.53046
-0.00962524
0.531418
-0.00922982
0.532343
-0.00881014
0.53323
-0.00837285
0.534074
-0.00792298
0.534873
-0.00746617
0.535624
-0.00700554
0.536323
-0.00654701
-0.00609459
0.53697
0.49518
-0.000466096
0.495194
-0.00146421
0.495227
-0.00247482
0.495278
-0.00344752
0.495354
-0.0043689
0.495459
-0.00521901
0.495585
-0.00597441
0.495735
-0.00663878
0.495911
-0.00723134
0.496116
-0.00776632
0.496352
-0.008254
0.496623
-0.00870539
0.496933
-0.00913135
0.497287
-0.00953995
0.497691
-0.00993294
0.498147
-0.010312
0.498661
-0.0106725
0.499235
-0.0110119
0.499873
-0.0113239
0.500574
-0.0116022
0.50134
-0.0118395
0.502166
-0.0120287
0.503051
-0.0121649
0.50399
-0.0122429
0.504975
-0.0122601
0.506001
-0.0122142
0.507059
-0.0121055
0.508139
-0.0119348
0.509234
-0.0117052
0.510333
-0.0114201
0.511427
-0.0110851
0.512507
-0.0107051
0.513564
-0.0102871
0.514591
-0.00983689
0.51558
-0.00936215
0.516526
-0.00886861
0.517423
-0.00836384
0.518269
-0.00785098
0.519059
-0.00733708
-0.00682691
0.519791
0.477883
-0.000462783
0.477889
-0.00147029
0.477907
-0.00249244
0.477937
-0.00347724
0.477991
-0.00442323
0.478066
-0.00529423
0.478158
-0.00606603
0.478269
-0.00675022
0.478404
-0.00736631
0.478565
-0.00792677
0.478753
-0.00844229
0.478974
-0.00892625
0.479233
-0.00939096
0.479538
-0.00984454
0.479893
-0.0102876
0.480302
-0.0107218
0.480773
-0.0111427
0.481309
-0.0115479
0.481914
-0.0119294
0.482592
-0.0122795
0.483342
-0.0125895
0.484163
-0.0128505
0.485055
-0.0130563
0.486012
-0.0131998
0.487029
-0.013277
0.488098
-0.0132839
0.489213
-0.0132198
0.490362
-0.0130842
0.491537
-0.0128797
0.492725
-0.012609
0.493918
-0.0122777
0.495104
-0.0118906
0.496272
-0.0114553
0.497413
-0.010978
0.498518
-0.0104675
0.49958
-0.00993017
0.500591
-0.00937536
0.501548
-0.00880735
0.502444
-0.00823372
-0.00766018
0.503277
0.46119
-0.000454912
0.461189
-0.00146956
0.46119
-0.00249364
0.461201
-0.00348804
0.461235
-0.00445677
0.46128
-0.00533955
0.461337
-0.00612298
0.461411
-0.0068238
0.461504
-0.00745947
0.461619
-0.00804159
0.461758
-0.00858163
0.461928
-0.00909594
0.462134
-0.00959753
0.462384
-0.0100944
0.462684
-0.0105878
0.463041
-0.0110789
0.463461
-0.0115627
0.463951
-0.0120375
0.464515
-0.0124938
0.465159
-0.0129228
0.465883
-0.0133141
0.46669
-0.0136574
0.467578
-0.0139447
0.468545
-0.0141667
0.469586
-0.0143179
0.470694
-0.014392
0.471862
-0.0143871
0.473078
-0.014301
0.474334
-0.0141352
0.475616
-0.0138916
0.476914
-0.0135751
0.478214
-0.0131904
0.479504
-0.0127453
0.480772
-0.0122465
0.482008
-0.0117035
0.483202
-0.0111237
0.484344
-0.0105179
0.485429
-0.00989217
0.48645
-0.00925475
-0.00861219
0.487402
0.445079
-0.00044221
0.445072
-0.00146261
0.445056
-0.00247766
0.445052
-0.00348363
0.445065
-0.00446999
0.44508
-0.00535415
0.445104
-0.00614681
0.44514
-0.00685986
0.445191
-0.00751093
0.44526
-0.00811063
0.44535
-0.00867139
0.445467
-0.00921329
0.445619
-0.00974875
0.445811
-0.0102865
0.446051
-0.0108284
0.446349
-0.0113767
0.446712
-0.0119254
0.447147
-0.0124725
0.44766
-0.0130076
0.448259
-0.0135215
0.448947
-0.0140022
0.449728
-0.0144379
0.450602
-0.0148185
0.451568
-0.0151327
0.452622
-0.0153727
0.453761
-0.0155303
0.454975
-0.0156012
0.456255
-0.0155813
0.457591
-0.0154709
0.458969
-0.0152697
0.460376
-0.0149824
0.461798
-0.0146125
0.463221
-0.0141681
0.46463
-0.0136557
0.466013
-0.013086
0.467356
-0.0124668
0.468648
-0.0118104
0.469881
-0.011125
0.471047
-0.0104203
-0.00970312
0.472138
0.429531
-0.000424166
0.429518
-0.00144968
0.429485
-0.00244448
0.42947
-0.00346884
0.429461
-0.00446113
0.429445
-0.00533846
0.429438
-0.0061396
0.429437
-0.00685857
0.429448
-0.00752186
0.429471
-0.00813431
0.429512
-0.00871171
0.429576
-0.00927785
0.42967
-0.00984287
0.429802
-0.0104181
0.429979
-0.0110059
0.430212
-0.0116095
0.43051
-0.0122233
0.430882
-0.0128447
0.431336
-0.0134614
0.431879
-0.0140648
0.432519
-0.0146416
0.43326
-0.015179
0.434106
-0.0156645
0.435058
-0.0160846
0.436115
-0.0164293
0.437272
-0.0166876
0.438524
-0.0168531
0.439861
-0.0169188
0.441273
-0.016883
0.442747
-0.0167433
0.444267
-0.0165028
0.445819
-0.0161638
0.447385
-0.015734
0.448948
-0.0152193
0.450493
-0.0146312
0.452005
-0.013978
0.453468
-0.0132737
0.454871
-0.0125277
0.456203
-0.011753
-0.0109559
0.457456
0.414523
-0.000399382
0.414506
-0.00143189
0.414456
-0.00239474
0.414436
-0.00344867
0.4144
-0.00442592
0.414358
-0.00529557
0.414321
-0.00610271
0.414283
-0.00682064
0.414255
-0.00749459
0.414234
-0.00811328
0.414226
-0.0087037
0.414238
-0.00928969
0.414274
-0.00987888
0.414344
-0.010488
0.414456
-0.0111174
0.414619
-0.0117733
0.414846
-0.0124499
0.415147
-0.0131453
0.415531
-0.0138455
0.416008
-0.0145416
0.416586
-0.0152198
0.417273
-0.0158667
0.418077
-0.0164676
0.418999
-0.0170072
0.420042
-0.0174725
0.421205
-0.0178501
0.422482
-0.0181304
0.423867
-0.0183036
0.425349
-0.0183649
0.426915
-0.0183092
0.428549
-0.0181373
0.430235
-0.0178495
0.431953
-0.0174522
0.433684
-0.0169507
0.435409
-0.0163562
0.437109
-0.0156777
0.438766
-0.0149303
0.440363
-0.0141249
0.441888
-0.0132783
-0.0123966
0.443329
0.400037
-0.0003647
0.400018
-0.00141346
0.399952
-0.00232827
0.399931
-0.00342773
0.399863
-0.00435782
0.3998
-0.00523245
0.399732
-0.00603491
0.39966
-0.00674922
0.399597
-0.00743144
0.399533
-0.00804853
0.399478
-0.00864948
0.399438
-0.00924924
0.399416
-0.00985682
0.399423
-0.0104957
0.399467
-0.0111606
0.399559
-0.0118653
0.399709
-0.0126002
0.39993
-0.0133668
0.400235
-0.0141497
0.400634
-0.0149408
0.401138
-0.0157238
0.401757
-0.016486
0.402501
-0.0172114
0.403377
-0.0178827
0.404388
-0.0184845
0.405539
-0.0190004
0.406826
-0.0194173
0.408244
-0.0197221
0.409785
-0.0199061
0.411437
-0.0199609
0.413184
-0.0198838
0.415006
-0.0196725
0.416885
-0.0193308
0.418797
-0.0188626
0.420719
-0.0182784
0.422629
-0.0175872
0.424503
-0.016805
0.426323
-0.0159442
0.428069
-0.015025
-0.0140546
0.429727
0.38605
-0.000314924
0.38604
-0.00140339
0.385954
-0.0022418
0.385937
-0.00341085
0.385827
-0.00424823
0.385756
-0.00516095
0.385651
-0.00593039
0.385555
-0.00665254
0.385455
-0.0073318
0.38535
-0.00794314
0.385251
-0.00855116
0.38516
-0.00915759
0.385081
-0.00977787
0.385027
-0.0104417
0.385
-0.011134
0.385019
-0.0118839
0.385088
-0.0126694
0.385226
-0.0135041
0.385441
-0.0143648
0.38575
-0.0152506
0.386167
-0.0161404
0.386703
-0.017022
0.38737
-0.0178786
0.38818
-0.0186922
0.38914
-0.0194449
0.390258
-0.0201179
0.391534
-0.0206939
0.392968
-0.0211563
0.394554
-0.0214917
0.396281
-0.0216876
0.398133
-0.0217366
0.400093
-0.0216324
0.402138
-0.0213755
0.404242
-0.020967
0.40638
-0.0204155
0.408522
-0.0197294
0.410642
-0.0189249
0.412713
-0.0180159
0.414714
-0.0170255
-0.0159639
0.416623
0.372546
-0.000243835
0.372558
-0.00141532
0.372443
-0.00212669
0.372437
-0.00340509
0.372275
-0.00408646
0.372213
-0.00509851
0.372059
-0.00577704
0.371953
-0.00654662
0.37181
-0.00718784
0.371673
-0.00780644
0.371529
-0.0084073
0.37139
-0.00901878
0.371255
-0.00964286
0.371142
-0.0103284
0.371044
-0.0110366
0.37099
-0.0118299
0.370974
-0.0126532
0.371024
-0.0135546
0.371142
-0.0144826
0.371354
-0.0154625
0.371668
-0.0164544
0.372106
-0.0174599
0.372679
-0.0184512
0.373402
-0.0194153
0.374288
-0.0203314
0.375349
-0.0211786
0.376591
-0.0219362
0.378018
-0.0225834
0.379628
-0.0231015
0.381414
-0.0234731
0.383362
-0.0236847
0.385455
-0.023725
0.387668
-0.023589
0.389975
-0.0232739
0.392344
-0.0227848
0.394743
-0.0221283
0.397138
-0.0213198
0.399497
-0.0203744
0.401788
-0.0193171
-0.0181634
0.403988
0.359507
-0.00014637
0.359556
-0.00146374
0.359398
-0.00196964
0.359415
-0.00342151
0.359189
-0.00386064
0.359157
-0.00506654
0.358937
-0.00555684
0.358846
-0.00645564
0.35864
-0.00698167
0.358492
-0.00765898
0.358292
-0.00820712
0.358119
-0.00884548
0.357924
-0.00944762
0.357758
-0.0101625
0.357586
-0.0108653
0.357464
-0.0117074
0.357357
-0.0125457
0.357322
-0.0135198
0.357332
-0.0144934
0.357443
-0.0155731
0.357639
-0.0166504
0.357966
-0.0177864
0.358423
-0.0189083
0.35904
-0.0200324
0.359828
-0.0211191
0.360805
-0.0221564
0.361985
-0.0231161
0.363377
-0.0239753
0.364985
-0.0247093
0.366807
-0.0252947
0.368833
-0.025711
0.371048
-0.0259403
0.373429
-0.0259697
0.375946
-0.0257909
0.378564
-0.025403
0.381245
-0.0248093
0.383948
-0.0240227
0.386632
-0.0230585
0.389258
-0.0219431
-0.0206982
0.391793
0.346922
-2.14213e-05
0.347016
-0.00155768
0.346804
-0.00175802
0.346855
-0.00347245
0.346557
-0.0035623
0.346574
-0.00508418
0.346268
-0.00525093
0.34622
-0.00640737
0.345926
-0.00668788
0.3458
-0.0075324
0.34552
-0.00792736
0.345339
-0.00866454
0.345067
-0.0091759
0.344868
-0.00996287
0.344611
-0.0106092
0.344433
-0.0115293
0.344224
-0.0123362
0.344114
-0.0134094
0.344002
-0.0143823
0.344017
-0.0155877
0.344075
-0.0167083
0.344287
-0.0179984
0.344599
-0.0192208
0.345096
-0.0205291
0.345754
-0.0217773
0.346624
-0.023026
0.347708
-0.0242
0.349032
-0.0252997
0.350605
-0.0262817
0.352432
-0.0271216
0.354511
-0.0277902
0.356831
-0.0282601
0.35937
-0.0285094
0.3621
-0.0285208
0.364982
-0.0282848
0.367971
-0.0277988
0.371019
-0.0270702
0.374074
-0.0261134
0.377086
-0.0249548
-0.0236226
0.38001
0.33478
0.000125693
0.334917
-0.00169446
0.334648
-0.00148967
0.334739
-0.00356279
0.334369
-0.00319274
0.334445
-0.00515971
0.334043
-0.00484958
0.334058
-0.00642214
0.333655
-0.00628492
0.333582
-0.00745923
0.333194
-0.00753884
0.333042
-0.00851294
0.332665
-0.00879886
0.332466
-0.00976379
0.3321
-0.0102434
0.331896
-0.011325
0.331561
-0.0120013
0.3314
-0.0132481
0.33114
-0.0141229
0.33108
-0.0155273
0.330966
-0.016595
0.331079
-0.0181112
0.331205
-0.0193465
0.331582
-0.0209064
0.332061
-0.022256
0.332809
-0.0237737
0.333749
-0.0251401
0.334976
-0.0265269
0.336468
-0.0277742
0.338265
-0.0289178
0.340361
-0.029887
0.342758
-0.0306563
0.345439
-0.0311908
0.348377
-0.0314589
0.351533
-0.0314409
0.354857
-0.0311226
0.358289
-0.0305026
0.361768
-0.0295918
0.365227
-0.028414
-0.0270032
0.368608
0.323073
0.000283517
0.323237
-0.00185844
0.322926
-0.00117867
0.323046
-0.00368303
0.322621
-0.00276713
0.322745
-0.00528404
0.322258
-0.00436234
0.322336
-0.00649987
0.321822
-0.00577101
0.321817
-0.00745444
0.321303
-0.00702526
0.32121
-0.00841958
0.320701
-0.00828962
0.320539
-0.00960236
0.320033
-0.00973673
0.319843
-0.011135
0.319348
-0.0115068
0.319179
-0.0130795
0.31873
-0.0136731
0.31864
-0.0154379
0.3183
-0.016255
0.318359
-0.0181697
0.318229
-0.0192165
0.318525
-0.0212023
0.318736
-0.0224678
0.319383
-0.0244204
0.32009
-0.0258467
0.321215
-0.0276526
0.32255
-0.0291091
0.324288
-0.0306559
0.326346
-0.0319451
0.328785
-0.0330948
0.331579
-0.0339846
0.334709
-0.0345893
0.338144
-0.0348754
0.341825
-0.0348036
0.345685
-0.0343632
0.349648
-0.0335546
0.353629
-0.0323948
-0.0309234
0.357549
0.311788
0.000438359
0.311957
-0.00202695
0.311628
-0.000849848
0.311757
-0.00381155
0.311304
-0.00231438
0.31145
-0.0054299
0.310908
-0.00382034
0.311023
-0.00661541
0.310424
-0.00517204
0.310472
-0.00750249
0.309848
-0.00640051
0.309812
-0.00838366
0.30917
-0.00764787
0.30906
-0.0094928
0.3084
-0.00907639
0.308251
-0.0109861
0.307573
-0.0108285
0.307435
-0.0129418
0.306756
-0.0129945
0.306692
-0.0153731
0.306063
-0.0156263
0.306141
-0.0182475
0.305657
-0.0187328
0.30596
-0.0215055
0.305769
-0.0222764
0.306402
-0.0250537
0.306701
-0.026146
0.307794
-0.0287456
0.308802
-0.0301171
0.31051
-0.0323631
0.312402
-0.0338379
0.314874
-0.0355668
0.317718
-0.036828
0.32102
-0.0378919
0.324729
-0.0385841
0.328782
-0.0388563
0.333119
-0.0387008
0.337638
-0.0380729
0.342229
-0.0369865
-0.0354898
0.346796
0.300907
0.000580841
0.30106
-0.00217983
0.300739
-0.000529344
0.300851
-0.00392278
0.300407
-0.00187047
0.300536
-0.00555936
0.299985
-0.00326929
0.300095
-0.00672499
0.299459
-0.00453656
0.299517
-0.00756053
0.298826
-0.00570926
0.298812
-0.00836947
0.298075
-0.00691078
0.297992
-0.00940989
0.297206
-0.00829044
0.297084
-0.010864
0.29624
-0.00998457
0.296131
-0.0128324
0.295227
-0.0120907
0.2952
-0.015346
0.29426
-0.0146868
0.294396
-0.0183837
0.293493
-0.0178297
0.293885
-0.0218975
0.293157
-0.0215481
0.293913
-0.0258094
0.293575
-0.0258085
0.294819
-0.0299889
0.295172
-0.030471
0.297028
-0.0342183
0.298421
-0.0352317
0.301039
-0.0381845
0.303723
-0.0395124
0.307241
-0.0414095
0.311178
-0.0425207
0.315612
-0.0432906
0.320485
-0.0435739
0.325633
-0.0432211
0.330958
-0.0423108
-0.0408468
0.336315
0.290408
0.000709648
0.290534
-0.00230608
0.290241
-0.00023624
0.290315
-0.00399723
0.289913
-0.00146813
0.289989
-0.00563579
0.289477
-0.00275684
0.289532
-0.00677976
0.288917
-0.00392225
0.28893
-0.0075728
0.288234
-0.00501391
0.288185
-0.00831977
0.287416
-0.00614224
0.287304
-0.00929748
0.286457
-0.00744398
0.286306
-0.0107129
0.285364
-0.00904273
0.285224
-0.0126928
0.284166
-0.0110327
0.284115
-0.0152944
0.282932
-0.0135036
0.283068
-0.0185195
0.281789
-0.0165511
0.282233
-0.022341
0.280953
-0.0202686
0.281846
-0.0267026
0.280756
-0.0247184
0.282259
-0.031492
0.28167
-0.0298813
0.283941
-0.0364898
0.284313
-0.0356032
0.287447
-0.0413187
0.289352
-0.0414179
0.293398
-0.0454551
0.297237
-0.0463597
0.302195
-0.0482486
0.307634
-0.0490131
0.313469
-0.0490559
0.319727
-0.0485684
-0.0471745
0.326054
0.28027
0.000829586
0.280368
-0.00240335
0.280112
1.93677e-05
0.280141
-0.00402621
0.279803
-0.00112983
0.279801
-0.00563354
0.279365
-0.00232109
0.279325
-0.00673972
0.278784
-0.00338135
0.278699
-0.00748815
0.278062
-0.00437685
0.277919
-0.00817642
0.277189
-0.00541224
0.276983
-0.00909201
0.276155
-0.00661576
0.275902
-0.0104601
0.274956
-0.00809684
0.274696
-0.0124321
0.273602
-0.00993904
0.273404
-0.0150967
0.272129
-0.0122286
0.272102
-0.0184926
0.27063
-0.015079
0.270923
-0.0226339
0.269282
-0.0186277
0.270093
-0.0275128
0.268393
-0.0230187
0.269972
-0.033071
0.268453
-0.0283624
0.271083
-0.0391198
0.270177
-0.034697
0.274076
-0.0452181
0.274476
-0.0418183
0.279666
-0.050645
0.282371
-0.0490645
0.2886
-0.0544774
0.294217
-0.0546306
0.300963
-0.0558012
0.308451
-0.0560565
-0.0545914
0.315868
0.270484
0.000944215
0.270551
-0.00247038
0.270339
0.000231686
0.270322
-0.00400926
0.270059
-0.000866533
0.269966
-0.00554127
0.26963
-0.00198499
0.269472
-0.00658167
0.269042
-0.0029517
0.268826
-0.00727168
0.268297
-0.00384817
0.268017
-0.00789584
0.267385
-0.00478024
0.267036
-0.0087434
0.266295
-0.00587493
0.265881
-0.0100458
0.265018
-0.00723383
0.264554
-0.0119678
0.263546
-0.0089318
0.263074
-0.0146244
0.261889
-0.0110433
0.261495
-0.0180987
0.260091
-0.0136756
0.259929
-0.0224719
0.258276
-0.0169744
0.258589
-0.0278253
0.256698
-0.0211281
0.257817
-0.0341899
0.255811
-0.0263561
0.258223
-0.0415324
0.256361
-0.0328342
0.260607
-0.049465
0.259444
-0.0406551
0.265849
-0.0570496
0.266496
-0.0497121
0.274938
-0.062919
0.279167
-0.0588592
0.288401
-0.0650357
0.296914
-0.0645691
-0.0631849
0.305507
0.261044
0.00104915
0.261079
-0.0025057
0.260912
0.00039923
0.260853
-0.00395074
0.260658
-0.000671226
0.260487
-0.00537026
0.260244
-0.00174228
0.259979
-0.00631602
0.259663
-0.00263577
0.259317
-0.00692593
0.25891
-0.00344083
0.258487
-0.00747304
0.257975
-0.00426867
0.257473
-0.00824129
0.256849
-0.00525133
0.25626
-0.00945595
0.255519
-0.00649331
0.254829
-0.0112776
0.253971
-0.00807402
0.253172
-0.0138255
0.252198
-0.0100695
0.251305
-0.0172055
0.250213
-0.0125832
0.249294
-0.0215534
0.248058
-0.0157381
0.247312
-0.0270792
0.245875
-0.0196908
0.245751
-0.0340663
0.244049
-0.0246543
0.245252
-0.0427356
0.243332
-0.0309135
0.246742
-0.0528748
0.244861
-0.0387745
0.251528
-0.0637169
0.250408
-0.0485924
0.260835
-0.0733451
0.262447
-0.0604718
0.276009
-0.0785972
0.28359
-0.0721503
-0.0750959
0.295501
0.25195
0.00112798
0.251944
-0.00249921
0.251828
0.000515423
0.251721
-0.00384456
0.25159
-0.000539882
0.251353
-0.00513359
0.251188
-0.00157673
0.250842
-0.00597046
0.250614
-0.00240709
0.250177
-0.00648964
0.249858
-0.00312138
0.24934
-0.00695556
0.24891
-0.00383776
0.248311
-0.00764307
0.247756
-0.00469578
0.247064
-0.0087642
0.246379
-0.00580839
0.245566