/*--------------------------------*- C++ -*----------------------------------*\
| =========                 |                                                 |
| \\      /  F ield         | OpenFOAM: The Open Source CFD Toolbox           |
|  \\    /   O peration     | Version:  2312                                  |
|   \\  /    A nd           | Website:  www.openfoam.com                      |
|    \\/     M anipulation  |                                                 |
\*---------------------------------------------------------------------------*/
FoamFile
{
    version     2.0;
    format      ascii;
    arch        "LSB;label=32;scalar=64";
    class       volScalarField;
    location    "40";
    object      p;
}
// * * * * * * * * * * * * * * * * * * * * * * * * * * * * * * * * * * * * * //

dimensions      [0 2 -2 0 0 0 0];

internalField   nonuniform List<scalar> 
940
(
-0.325564
-0.296437
-0.283424
-0.26727
-0.242435
-0.219009
-0.333856
-0.308936
-0.26826
-0.233814
-0.205949
-0.177928
-0.328104
-0.280475
-0.236395
-0.188931
-0.160929
-0.131491
-0.244161
-0.258668
-0.283082
-0.284893
-0.295721
-0.267865
-0.292668
-0.286787
-0.322949
-0.291607
-0.311641
-0.253244
-0.29953
-0.279743
-0.309071
-0.293575
-0.279873
-0.265287
-0.248286
-0.253456
-0.247194
-0.240705
-0.231913
-0.198844
-0.162007
-0.144449
-0.0994531
-0.0196856
0.00599357
-0.00289536
-0.00663265
-0.00256304
-0.000827666
0.000324442
-0.20217
-0.228211
-0.227841
-0.235072
-0.291339
-0.286247
-0.140638
-0.0323858
-0.0261886
-0.0127095
-0.0121248
-0.010048
-0.00828182
-0.00373193
-0.00188469
-0.000492952
-0.234581
-0.210984
-0.218971
-0.21891
-0.264813
-0.301425
-0.177953
-0.0346324
-0.00516753
-0.0169158
-0.021429
-0.0143325
-0.00970319
-0.00471623
-0.00209246
-0.000126256
-0.211532
-0.213791
-0.212786
-0.206441
-0.232369
-0.261171
-0.165523
-0.0507069
-0.0185433
-0.0226647
-0.0246152
-0.0157592
-0.0106542
-0.00590375
-0.00276631
-0.000283177
-0.17582
-0.185804
-0.186466
-0.18418
-0.190854
-0.197449
-0.133513
-0.0555753
-0.027972
-0.0251242
-0.0230352
-0.0157167
-0.0114658
-0.00698684
-0.0035446
-0.000660169
-0.139365
-0.156111
-0.160704
-0.160238
-0.157689
-0.160644
-0.125566
-0.0687418
-0.0396497
-0.032672
-0.0277171
-0.0195657
-0.0130326
-0.00781059
-0.00376692
-0.000635648
-0.105754
-0.121743
-0.128228
-0.127945
-0.123076
-0.116878
-0.0967198
-0.0624451
-0.0404338
-0.0319614
-0.0251865
-0.0175586
-0.0132113
-0.00902387
-0.00463656
-0.000818987
-0.0755721
-0.0897879
-0.0986064
-0.10227
-0.101397
-0.0982095
-0.0891485
-0.0680437
-0.0493211
-0.0399843
-0.0327051
-0.0247214
-0.0178397
-0.0117035
-0.00621751
-0.00156908
-0.0491534
-0.05973
-0.0670596
-0.07008
-0.0692596
-0.0658455
-0.0594704
-0.0494594
-0.0396075
-0.0328246
-0.026233
-0.019456
-0.0148079
-0.0103122
-0.00527228
-0.000873384
-0.0329401
-0.0415369
-0.0486337
-0.0533826
-0.0558889
-0.0564434
-0.0552186
-0.05128
-0.0449132
-0.0387568
-0.0341384
-0.0288175
-0.0228248
-0.0163993
-0.00945016
-0.00270109
-0.00992795
-0.0158951
-0.0214409
-0.0257432
-0.0284558
-0.0297445
-0.029894
-0.0289893
-0.0272637
-0.0254228
-0.0228968
-0.0194585
-0.0158915
-0.0111639
-0.00549151
-0.000785642
-0.0047786
-0.00978823
-0.0147616
-0.0192372
-0.0229755
-0.0259157
-0.0281585
-0.0296716
-0.0301244
-0.0297926
-0.0286415
-0.0271115
-0.0244741
-0.0191405
-0.0109605
-0.00286661
0.00927792
0.00539298
0.000859379
-0.00364036
-0.00766798
-0.0110752
-0.013863
-0.0164384
-0.0184457
-0.0195466
-0.0200088
-0.0200333
-0.0181104
-0.012863
-0.00541791
-0.000434989
-0.11216
-0.148349
-0.18905
-0.0943937
-0.114725
-0.145297
-0.0726273
-0.0883135
-0.108844
-0.0568308
-0.0691685
-0.0830123
-0.0413533
-0.0495224
-0.0593805
-0.0254844
-0.0311343
-0.0381732
-0.0143335
-0.018665
-0.0245709
0.00150907
-0.00145439
-0.00489616
0.00769096
0.00385586
-0.000111107
0.020001
0.0160966
0.0126697
0.0510487
0.0498375
0.0454871
0.0176251
-0.00357343
-0.178311
-0.0104381
-0.029145
-0.0441328
-0.107993
-0.140389
-0.351439
-0.0782092
-0.104785
-0.130032
-0.189396
-0.234906
-0.368625
0.202981
0.244483
0.296121
0.356439
0.410971
0.443754
0.173094
0.201226
0.236261
0.279255
0.323096
0.329578
0.118018
0.129864
0.143106
0.151711
0.154189
0.0635761
0.0416229
0.0285146
0.0508673
0.0404916
0.0649729
0.0657207
0.0908654
0.109314
0.138031
0.168478
0.0484416
0.0337032
0.0554932
0.0443339
0.0664989
0.0664933
0.087822
0.103166
0.129421
0.149713
0.0546813
0.0394437
0.0588577
0.0488961
0.0678983
0.0702518
0.0900271
0.0998081
0.117987
0.115263
0.0598048
0.0444253
0.0615647
0.0516707
0.0664895
0.0692122
0.07928
0.0839893
0.0835969
0.0706854
0.0649985
0.0494672
0.0635345
0.0542055
0.0629343
0.0661515
0.0678941
0.0681697
0.0603386
0.0481771
0.0716184
0.0553472
0.0657849
0.0565821
0.0598691
0.0608654
0.0582536
0.0528163
0.0429102
0.0300606
0.0796842
0.0632101
0.0680814
0.0605279
0.0574433
0.0554026
0.0494077
0.040705
0.0297615
0.0179855
0.0895288
0.0744119
0.0703569
0.0643659
0.0558889
0.0505875
0.0419172
0.0319177
0.021119
0.0107274
0.102991
0.0890716
0.0765244
0.0699176
0.0584617
0.049654
0.0400085
0.0303289
0.020855
0.0121969
0.120847
0.103225
0.0818785
0.0731578
0.0601342
0.0490833
0.0387586
0.0293555
0.0208566
0.0133708
0.157378
0.128433
0.101415
0.0862317
0.071795
0.0590644
0.0483001
0.0392602
0.0315566
0.0249387
0.184779
0.139655
0.108409
0.0911665
0.0755268
0.0621201
0.0512823
0.0426035
0.0355786
0.0297204
0.333334
0.187666
0.144449
0.118936
0.0975812
0.0800833
0.0662876
0.0558607
0.0480135
0.0420572
0.044734
-0.0105683
-0.0667823
0.0273156
-0.0220288
-0.0626029
0.0137974
-0.0182461
-0.0491679
0.00439073
-0.0172034
-0.0401392
-0.00109602
-0.0163007
-0.0310792
0.00258726
-0.00846697
-0.0183324
0.0053114
-0.00303296
-0.0095767
0.0179686
0.0108489
0.00543592
0.0236951
0.0173515
0.0120057
0.0364138
0.0303062
0.0247089
-0.307836
-0.307772
-0.309101
-0.273117
-0.285086
-0.25629
-0.251204
-0.243894
-0.21474
-0.244523
-0.2136
-0.169778
-0.23166
-0.192733
-0.146535
-0.2239
-0.173142
-0.125264
-0.245821
-0.281996
-0.273377
-0.255722
-0.26552
-0.248315
-0.27903
-0.305165
-0.270514
-0.279578
-0.277075
-0.266956
-0.307034
-0.324581
-0.270112
-0.292239
-0.324719
-0.287365
-0.296218
-0.302165
-0.280979
-0.293781
-0.315119
-0.283885
-0.282843
-0.30354
-0.275457
-0.251114
-0.265431
-0.261683
-0.186092
-0.17494
-0.209347
-0.107232
-0.072023
-0.122486
-0.161901
-0.130535
-0.124815
-0.211476
-0.224298
-0.182824
-0.130089
-0.143204
-0.135726
-0.022621
-0.0205764
-0.0525047
0.0188773
0.0394435
0.000661178
-0.00102507
0.0164598
0.00793953
-0.00478949
-0.00173304
0.00118955
-0.000885382
-0.00138271
-0.00252169
0.000247618
-0.000221155
-0.000966061
0.00103914
0.000607512
-3.36669e-07
-0.244131
-0.186196
-0.1531
-0.119509
-0.0954847
-0.0820039
-0.0697646
-0.0684768
-0.0638282
-0.0656767
-0.258807
-0.20425
-0.172242
-0.132832
-0.106192
-0.0881474
-0.0730029
-0.0695161
-0.0643731
-0.0652046
-0.246504
-0.201951
-0.175159
-0.138197
-0.112967
-0.0924129
-0.0760522
-0.0704347
-0.0649473
-0.0646807
-0.222911
-0.188649
-0.164356
-0.135237
-0.113599
-0.0939124
-0.0780059
-0.0709587
-0.0653303
-0.0641693
-0.190614
-0.167078
-0.149646
-0.127054
-0.109412
-0.092465
-0.0782273
-0.0706824
-0.065307
-0.0635408
-0.133009
-0.133491
-0.128773
-0.114723
-0.102433
-0.0884154
-0.0765758
-0.0693575
-0.0647094
-0.0625885
-0.111477
-0.111728
-0.108698
-0.100887
-0.0927888
-0.0822975
-0.0731487
-0.0669837
-0.0633196
-0.0610859
-0.151101
-0.126979
-0.110886
-0.0935703
-0.0849768
-0.0747272
-0.0682892
-0.0632378
-0.0605868
-0.0585757
-0.116034
-0.0975944
-0.0931627
-0.0764774
-0.0746413
-0.0647143
-0.0621266
-0.0581218
-0.0565987
-0.0549721
-0.0515651
-0.0491773
-0.0518887
-0.0484908
-0.0541032
-0.0509254
-0.0533275
-0.0514088
-0.0509574
-0.0497004
-0.00402286
-0.0100239
-0.0185305
-0.0243882
-0.0336249
-0.0369607
-0.0427513
-0.043108
-0.043978
-0.0427671
0.00155416
-0.000902117
-0.00862648
-0.0140017
-0.0218335
-0.0264248
-0.032273
-0.0341538
-0.03548
-0.0342056
-0.00150014
-0.00394946
-0.00728144
-0.0109891
-0.0154982
-0.0192446
-0.0232269
-0.0251166
-0.0262225
-0.02506
-0.00410046
-0.00543656
-0.00663872
-0.00833695
-0.0106484
-0.0127968
-0.0153475
-0.0166791
-0.017636
-0.0166745
-0.00178877
-0.00264709
-0.00337925
-0.00456564
-0.00579452
-0.00704556
-0.00844346
-0.00928575
-0.00995218
-0.0093489
-0.000421222
-0.000736481
-0.000823748
-0.00132358
-0.00155186
-0.00208776
-0.00246095
-0.00280574
-0.00306157
-0.00291523
-0.113275
-0.101296
-0.0854225
-0.0788658
-0.0698562
-0.0661581
-0.0619993
-0.0640847
-0.0617273
-0.0668339
-0.15332
-0.123511
-0.102205
-0.0909288
-0.0780375
-0.0718277
-0.0653274
-0.0659929
-0.0626015
-0.0665938
-0.202688
-0.152362
-0.12204
-0.101919
-0.0844696
-0.0760072
-0.0673473
-0.0673537
-0.0632902
-0.0661621
0.052369
-0.00640461
-0.0683507
0.0558593
-0.0183762
-0.0895434
0.0564507
-0.0301531
-0.111393
0.0331425
-0.0885071
-0.169782
0.0190325
-0.114722
-0.21172
-0.148926
-0.325574
-0.353789
0.202659
0.175565
0.113807
0.244434
0.207376
0.134152
0.295751
0.247304
0.157365
0.357589
0.291047
0.1717
0.421389
0.334074
0.17772
0.470962
0.345289
0.0984814
0.0346907
0.0276439
0.0203627
0.0234365
0.0194829
0.0159929
0.0452057
0.0381844
0.0324489
0.0362214
0.0336669
0.031395
0.061514
0.0537162
0.051749
0.0625231
0.0579049
0.0569584
0.0900189
0.078739
0.0823674
0.107668
0.0968009
0.0903708
0.136992
0.125454
0.112778
0.167214
0.150123
0.106586
0.0132473
0.00579685
-0.00307823
-0.0141551
-0.0279847
-0.0452998
-0.066339
-0.104201
-0.125273
-0.262102
0.0122862
0.00869841
0.0035443
-0.00308742
-0.0125573
-0.0260016
-0.0401823
-0.0691623
-0.079731
-0.125431
0.0254098
0.0174784
0.00857164
-0.00156728
-0.0131844
-0.028716
-0.0404585
-0.0662815
-0.075475
-0.115662
0.0278565
0.0237296
0.0175456
0.00862714
-0.00223297
-0.0200404
-0.0339571
-0.060365
-0.0699463
-0.0979115
0.0439338
0.0345066
0.0234587
0.0103145
-0.00263639
-0.0202962
-0.0321818
-0.0560444
-0.0641778
-0.0853191
0.0500742
0.0417106
0.0302418
0.0150685
8.80602e-05
-0.0202431
-0.0327297
-0.0538912
-0.0609411
-0.078242
0.0656578
0.0496854
0.0333131
0.0142291
-0.00274906
-0.0227807
-0.0348668
-0.0535806
-0.0595612
-0.0742156
0.071216
0.0536485
0.0324772
0.0105445
-0.00770424
-0.0264888
-0.0377001
-0.0541997
-0.0592649
-0.071855
0.0724459
0.0492532
0.0258483
0.00346497
-0.0138726
-0.0307692
-0.0407247
-0.0550041
-0.0593529
-0.0702793
0.0669116
0.0420977
0.0169042
-0.00495537
-0.020435
-0.0351537
-0.0435775
-0.0557161
-0.0595109
-0.0692027
0.0466021
0.0239589
0.00507321
-0.0144141
-0.0275924
-0.0399073
-0.0465666
-0.0564673
-0.0596136
-0.0682801
-0.0105071
-0.0280531
-0.0291652
-0.0375793
-0.0416245
-0.0481537
-0.0512199
-0.0584251
-0.0599129
-0.0675713
-0.0632517
-0.0687387
-0.06064
-0.0609951
-0.0575803
-0.0581875
-0.0571195
-0.0614666
-0.0607531
-0.0670783
)
;

boundaryField
{
    outlet
    {
        type            fixedValue;
        value           uniform 0;
    }
    upperWall
    {
        type            symmetryPlane;
    }
    lowerWall
    {
        type            symmetryPlane;
    }
    inlet
    {
        type            zeroGradient;
    }
    cylinder
    {
        type            zeroGradient;
    }
    frontAndBack
    {
        type            empty;
    }
}


// ************************************************************************* //
