/*--------------------------------*- C++ -*----------------------------------*\
| =========                 |                                                 |
| \\      /  F ield         | OpenFOAM: The Open Source CFD Toolbox           |
|  \\    /   O peration     | Version:  2312                                  |
|   \\  /    A nd           | Website:  www.openfoam.com                      |
|    \\/     M anipulation  |                                                 |
\*---------------------------------------------------------------------------*/
FoamFile
{
    version     2.0;
    format      ascii;
    arch        "LSB;label=32;scalar=64";
    class       surfaceScalarField;
    location    "63";
    object      phi;
}
// * * * * * * * * * * * * * * * * * * * * * * * * * * * * * * * * * * * * * //

dimensions      [0 3 -1 0 0 0 0];

oriented        oriented;

internalField   nonuniform List<scalar> 
4490
(
-0.00270025
0.00895085
-0.0062506
0.00101646
0.00576183
-0.00947854
0.0226912
-0.0178877
-0.00378703
0.0661793
-0.0567562
0.0132681
0.125717
-0.100418
0.0408804
0.194742
-0.141406
0.0723809
0.270859
-0.178299
0.102182
0.336385
-0.208611
0.143085
0.408167
-0.234391
0.16261
-0.259038
0.214968
0.452236
0.00028888
0.00866197
0.0188441
-0.0127933
0.0637818
-0.0628255
0.124461
-0.117435
0.187727
-0.163684
0.244976
-0.198654
0.290031
-0.223355
0.322434
-0.241014
0.344666
-0.256624
-0.269884
0.355513
0.00621085
0.00245112
0.0442195
-0.050802
0.10054
-0.119146
0.153498
-0.170393
0.192591
-0.202777
0.216287
-0.222351
0.229839
-0.236906
0.240926
-0.252101
0.254547
-0.270246
-0.292827
0.27749
0.0170613
-0.0146102
0.0658766
-0.0996173
0.109787
-0.163057
0.137052
-0.197657
0.151013
-0.216738
0.160274
-0.231612
0.171351
-0.247983
0.185848
-0.266598
0.201628
-0.286025
-0.305329
0.21413
0.0278725
-0.0424827
0.0676085
-0.139353
0.0907126
-0.186161
0.101099
-0.208043
0.107516
-0.223156
0.113622
-0.237718
0.11867
-0.253031
0.121449
-0.269377
0.12314
-0.287717
0.125657
-0.307846
-0.00817151
-0.0139303
0.0221018
-0.02218
-0.0179114
0.0319199
-0.0387755
-0.0160279
0.0326234
-0.0566028
-0.0134924
0.0313197
-0.0747344
-0.00953529
0.0276669
-0.0915509
-0.00283598
0.0196524
-0.106318
0.00950094
0.0052658
-0.113209
0.0225866
-0.0156956
-0.118063
0.0469878
-0.042133
0.0697858
-0.112356
-0.0754933
-0.00711132
-0.00681901
-0.0187397
-0.00628302
-0.03218
-0.00258757
-0.0460558
0.000383409
-0.0593494
0.00375829
-0.0680388
0.00585342
-0.0751659
0.0166281
-0.0675462
0.014967
-0.0564208
0.0358623
0.0371273
-0.0237623
-0.00471876
-0.00210025
-0.0118697
0.000867878
-0.0192049
0.00474768
-0.0249362
0.00611474
-0.0270629
0.00588494
-0.0218995
0.000690044
-0.010109
0.00483756
0.0193091
-0.0144512
0.0566781
-0.00150662
-0.0312967
0.125102
-0.00405755
0.0019573
-0.00917046
0.00598079
-0.0123184
0.00789558
-0.01076
0.00455636
0.00152736
-0.00640238
0.0243397
-0.0221223
0.0636496
-0.0344724
0.120678
-0.07148
0.187863
-0.0686909
-0.123567
0.280133
-0.00429331
-0.00779106
-0.00368251
0.014142
0.04862
0.0988786
0.166588
0.238193
0.332112
0.423513
-0.0929877
0.125071
-0.144439
-0.065646
0.163195
-0.190537
-0.0303086
0.196087
-0.231425
0.014376
0.184278
-0.228963
0.0737684
0.116826
-0.176218
0.161886
-0.0327393
-0.0553779
0.265381
-0.242054
0.138559
0.336275
-0.358191
0.287297
0.276717
-0.31748
0.377037
0.226209
-0.388943
0.439451
0.322486
-0.373
0.276723
0.419992
-0.0193259
-0.0781802
0.445515
0.330475
-0.355998
0.43944
0.533908
-0.527832
0.46693
0.678417
-0.705908
0.490853
0.441725
-0.465648
0.460051
-0.323677
0.354479
0.443081
-0.960115
0.977085
0.471351
-0.419814
0.391544
0.471585
0.510368
-0.510601
0.426569
0.518325
-0.473309
0.373598
-0.101126
0.154097
0.348806
-0.579022
0.603815
0.340335
-0.0460168
0.054488
0.260282
-0.254653
0.0137241
0.0875845
0.0570764
0.119843
0.109886
0.143277
0.162865
0.1313
0.221769
0.0579219
0.283486
-0.0944568
0.316751
-0.275319
0.367711
-0.409151
0.374578
-0.324346
0.299885
-0.314251
0.316132
-0.389247
0.3894
-0.0925939
0.423185
0.29669
0.449424
0.507669
0.489116
0.638725
0.499395
0.431446
0.454343
-0.278626
0.424899
-0.93067
0.457317
-0.452233
0.470033
0.497652
0.430929
0.557429
0.375177
-0.0453747
0.343491
-0.547336
0.333413
-0.0359387
0.263793
0.155657
0.0570295
0.198279
0.0772211
0.251446
0.0901098
0.296938
0.0858085
0.336529
0.0183305
0.376966
-0.134893
0.36291
-0.261263
0.325622
-0.371863
0.338416
-0.33714
0.304253
-0.280088
0.305491
-0.390485
0.381026
-0.168128
0.411325
0.266391
0.431156
0.487838
0.46837
0.601511
0.482884
0.416932
0.44106
-0.236802
0.402623
-0.892232
0.436908
-0.486518
0.460241
0.474319
0.429328
0.588342
0.374445
0.00950797
0.336478
-0.509368
0.325406
-0.0248665
0.263885
0.293182
0.0439809
0.316601
0.0538017
0.353585
0.0531266
0.392153
0.0472397
0.409563
0.000920846
0.411524
-0.136854
0.386415
-0.236154
0.313193
-0.298641
0.277161
-0.301109
0.253934
-0.256861
0.252339
-0.38889
0.346463
-0.262252
0.409472
0.203381
0.434213
0.463096
0.457631
0.578094
0.460979
0.413583
0.412919
-0.188742
0.368936
-0.848249
0.405094
-0.522677
0.443407
0.436006
0.423086
0.608664
0.370493
0.0621004
0.327847
-0.466722
0.317079
-0.0140991
0.259133
0.422345
0.045149
0.427212
0.0489349
0.435723
0.0446154
0.45006
0.0329021
0.459175
-0.00819368
0.421538
-0.0992167
0.36625
-0.180867
0.310059
-0.24245
0.267102
-0.258152
0.235257
-0.225016
0.203345
-0.356977
0.279817
-0.338724
0.381367
0.101831
0.409944
0.434519
0.422636
0.565402
0.430331
0.405889
0.389174
-0.147585
0.34006
-0.799135
0.369564
-0.552181
0.41754
0.38803
0.40972
0.616484
0.364353
0.107467
0.318476
-0.420844
0.30846
-0.00408334
0.248518
0.486035
0.048666
-0.489552
0.49042
0.0445493
0.501632
0.0334037
0.510415
0.0241197
0.526396
-0.0241753
0.511699
-0.0845196
0.468494
-0.137662
0.433169
-0.207125
0.388733
-0.213715
0.365861
-0.202144
0.326384
-0.317501
0.286232
-0.298572
0.275146
0.112918
0.261431
0.448234
0.318208
0.508625
0.40644
0.317657
0.438497
-0.179641
0.394265
-0.754903
0.353687
-0.511603
0.352026
0.38969
0.362135
0.606376
0.344583
0.125018
0.294779
-0.37104
0.274583
0.0161123
0.238736
0.545976
0.042089
-0.539399
0.551868
0.0386576
0.562019
0.0232529
0.5716
0.0145386
0.569865
-0.0224401
0.551829
-0.0664838
0.519626
-0.105459
0.482408
-0.169907
0.433768
-0.165075
0.409601
-0.177978
0.373955
-0.281855
0.285648
-0.210265
0.222738
0.175828
0.244328
0.426643
0.372071
0.380882
0.490118
0.19961
0.50687
-0.196393
0.441855
-0.689888
0.386327
-0.456076
0.38377
0.392247
0.410037
0.58011
0.398588
0.136467
0.337982
-0.310434
0.313952
0.040142
0.223514
0.608439
0.0354237
-0.601774
0.615144
0.0319527
0.621414
0.016983
0.628297
0.00765591
0.625432
-0.019575
0.611415
-0.0524666
0.584953
-0.0789971
0.551654
-0.136608
0.514846
-0.128267
0.475786
-0.138918
0.411863
-0.217932
0.312559
-0.11096
0.259521
0.228867
0.331278
0.354886
0.480576
0.231585
0.589817
0.0903678
0.588166
-0.194742
0.498367
-0.600089
0.431031
-0.38874
0.429161
0.394118
0.466991
0.542279
0.463342
0.140117
0.391796
-0.238888
0.362535
0.0694034
0.200212
0.684698
0.0297003
-0.678975
0.689684
0.0269676
0.692913
0.0137535
0.695148
0.00542084
0.69045
-0.0148772
0.678312
-0.040328
0.654474
-0.0551589
0.619949
-0.102084
0.586281
-0.0945987
0.551058
-0.103694
0.486923
-0.153797
0.414316
-0.0383533
0.423851
0.219331
0.525421
0.253316
0.626703
0.130303
0.69008
0.0269914
0.669311
-0.173974
0.544967
-0.475744
0.444108
-0.287882
0.447305
0.390921
0.510933
0.478651
0.535497
0.115552
0.465514
-0.168905
0.434645
0.100272
0.167459
0.77053
0.0256819
-0.766512
0.774631
0.022867
0.775175
0.0132099
0.776506
0.00408891
0.769697
-0.00806773
0.758649
-0.0292797
0.741044
-0.0375543
0.710181
-0.0712209
0.683551
-0.067969
0.648361
-0.0685046
0.589465
-0.0949013
0.553116
-0.00200387
0.612025
0.160422
0.706835
0.158506
0.75186
0.0852777
0.773846
0.00500544
0.755991
-0.156118
0.611711
-0.331465
0.460455
-0.136625
0.465308
0.386068
0.57463
0.369329
0.634065
0.0561172
0.58679
-0.12163
0.568118
0.118945
0.133515
0.868831
0.0223548
-0.865504
0.871886
0.0198119
0.872148
0.0129487
0.870479
0.00575771
0.864718
-0.00230687
0.853423
-0.0179845
0.837662
-0.0217932
0.810912
-0.0444708
0.785824
-0.0428817
0.758079
-0.0407598
0.718284
-0.0551063
0.707538
0.00874225
0.766998
0.100963
0.837953
0.0875504
0.860223
0.0630074
0.857282
0.00794712
0.824642
-0.123478
0.692134
-0.198957
0.553608
0.00190127
0.590118
0.349558
0.716119
0.243327
0.762253
0.00998338
0.731405
-0.090782
0.742988
0.107362
0.100981
0.982371
0.0196802
-0.979696
0.984716
0.0174663
0.98424
0.0134252
0.982383
0.00761446
0.977223
0.00285284
0.967025
-0.00778631
0.955673
-0.0104408
0.934608
-0.0234058
0.915868
-0.0241421
0.896242
-0.0211338
0.866797
-0.0256608
0.867776
0.00776329
0.909021
0.0597174
0.946406
0.0501652
0.970666
0.0387481
0.970198
0.00841506
0.927235
-0.0805163
0.82739
-0.0991119
0.762331
0.06696
0.831921
0.279968
0.924486
0.150762
0.930828
0.003642
0.897135
-0.0570894
0.923151
0.0813461
0.0732617
1.11703
0.017256
-1.11461
1.11883
0.0156638
1.11889
0.0133692
1.11694
0.00955967
1.11287
0.00692724
1.10474
0.000344935
1.09539
-0.00108831
1.08097
-0.00899459
1.0659
-0.00906699
1.05301
-0.00824352
1.03593
-0.00858037
1.03656
0.0071283
1.06333
0.0329498
1.08467
0.0288308
1.09754
0.0258706
1.09492
0.0110355
1.05863
-0.0442275
0.996698
-0.0371758
0.994646
0.0690119
1.07221
0.202403
1.12399
0.0989864
1.10924
0.0183935
1.07212
-0.0199724
1.09574
0.0577232
0.0518702
1.27388
0.0153905
-1.27201
1.27523
0.0143105
1.27526
0.0133343
1.27406
0.0107597
1.27144
0.00955515
1.26641
0.00537619
1.26056
0.00475524
1.25146
0.000102454
1.2421
0.000300667
1.23412
-0.000265012
1.22417
0.00136744
1.22413
0.00717361
1.23761
0.0194638
1.24684
0.019607
1.25693
0.015779
1.25595
0.0120134
1.22887
-0.0171495
1.19253
-0.000830306
1.21192
0.049616
1.27485
0.139477
1.30339
0.0704484
1.28924
0.0325355
1.25946
0.00981571
1.27731
0.039872
0.033356
1.46386
0.0134714
-1.46194
1.46538
0.0127864
1.46614
0.0125787
1.46593
0.0109684
1.46479
0.0106958
1.46199
0.00817428
1.45849
0.00825716
1.45314
0.00545048
1.44748
0.00596549
1.44233
0.00488093
1.43763
0.00606375
1.43653
0.0082773
1.44333
0.0126594
1.44828
0.0146627
1.45236
0.0116965
1.44954
0.0148348
1.43551
-0.00312435
1.41734
0.0173425
1.43537
0.0315857
1.47937
0.0954785
1.49813
0.0516886
1.49602
0.0346447
1.47579
0.0300504
1.48633
0.0293275
0.0199302
1.68618
0.0115165
-1.68422
1.68787
0.0110952
1.68908
0.0113715
1.68976
0.0102805
1.68993
0.0105278
1.68926
0.00884528
1.68824
0.00928041
1.68626
0.00742373
1.68418
0.00804612
1.68204
0.0070286
1.68035
0.00774934
1.67986
0.00876755
1.68294
0.0095758
1.68497
0.0126402
1.68842
0.00824426
1.6876
0.0156533
1.68282
0.00165596
1.67532
0.0248395
1.68791
0.018996
1.71739
0.0660046
1.72995
0.0391205
1.73497
0.0296331
1.72452
0.0404973
1.73036
0.023481
0.00815826
1.95875
0.00930061
-1.95653
1.96081
0.00903254
1.96272
0.00946095
1.9642
0.00879883
1.9655
0.00923012
1.9661
0.00824349
1.96665
0.00872805
1.96638
0.00769638
1.96631
0.00811238
1.96567
0.00766777
1.96581
0.00761858
1.96579
0.00878046
1.96791
0.00745814
1.96903
0.0115217
1.97145
0.0058276
1.97128
0.0158149
1.97047
0.00247305
1.97143
0.0238747
1.97871
0.0117199
2.00321
0.0414997
2.01071
0.0316229
2.02039
0.019948
2.02212
0.038771
2.02239
0.0232086
0.00411075
2.30604
0.00662107
-2.30336
2.30865
0.00642104
2.31125
0.00686698
2.31363
0.00641794
2.31603
0.00682556
2.31804
0.00622986
2.3202
0.00657676
2.32182
0.00607258
2.32375
0.00618398
2.32513
0.00628717
2.32709
0.00565668
2.32843
0.00743989
2.3313
0.0045889
2.33257
0.0102547
2.33649
0.00190413
2.33748
0.0148225
2.34069
-0.000730406
2.34531
0.019254
2.3491
0.00792607
2.3698
0.0208053
2.37397
0.0274442
2.38485
0.00907033
2.39473
0.0288976
2.39318
0.0247497
0.00236385
2.70463
0.00346019
-2.70147
2.70774
0.00331033
2.71101
0.0035944
2.7141
0.00332925
2.71736
0.00356665
2.72028
0.0033085
2.72353
0.00332993
2.72618
0.00341932
2.72955
0.00281744
2.73192
0.00391151
2.73558
0.00200074
2.73801
0.00501325
2.74168
0.000910409
2.74527
0.00666839
2.74711
6.30813e-05
2.75412
0.00781901
2.7524
0.000980908
2.76482
0.00684014
2.76565
0.00709317
2.78129
0.00516219
2.79463
0.0141116
2.79795
0.00574482
2.8167
0.0101472
2.82485
0.0165992
0.00519366
3.41858
-3.41512
3.42189
3.42548
3.42881
3.43238
3.43569
3.43902
3.44244
3.44526
3.44917
3.45117
3.45618
3.45709
3.46376
3.46382
3.47164
3.47262
3.47946
3.48656
3.49172
3.50583
3.51157
3.52172
3.53832
0.412488
0.115552
-0.402384
0.431319
0.195299
0.433483
0.275326
0.457513
0.331484
0.420197
0.469254
0.107457
-0.461159
0.487061
0.177493
0.500048
0.262339
0.512584
0.318947
0.393382
0.536399
0.0978367
-0.526778
0.548646
0.165245
0.566854
0.244131
0.580763
0.305039
0.372371
0.612528
0.0871331
-0.601824
0.622998
0.154775
0.639884
0.227245
0.657892
0.287031
0.351287
0.698854
0.0773552
-0.689077
0.710682
0.142947
0.725946
0.211981
0.744481
0.268496
0.329257
0.797317
0.0682068
-0.788169
0.809133
0.131132
0.824768
0.196346
0.842554
0.25071
0.306306
0.911311
0.0602243
-0.903329
0.922494
0.119949
0.938574
0.180266
0.956627
0.232657
0.283237
1.04516
0.052729
-1.03767
1.05611
0.109001
1.07225
0.164127
1.09112
0.213791
0.259749
1.20042
0.0460302
-1.19372
1.21138
0.0980404
1.22766
0.147849
1.24764
0.193812
0.235378
1.38368
0.0394939
-1.37715
1.39574
0.0859879
1.41315
0.130436
1.43517
0.171791
0.208609
1.59983
0.0327732
-1.59311
1.61259
0.0732295
1.63125
0.111769
1.65516
0.147885
0.179547
1.85825
0.0260361
-1.85151
1.87256
0.0589139
1.89419
0.0901419
1.92249
0.119581
0.14551
2.19216
0.0182637
-2.18439
2.20844
0.0426352
2.23288
0.0657065
2.26482
0.0876366
0.10697
2.5671
0.00994983
-2.55879
2.58614
0.023592
2.61534
0.0365144
2.65416
0.0488157
0.0596588
3.24654
-3.23659
3.27013
3.30664
3.35546
0.188013
0.252897
-0.22805
-0.212859
0.160409
0.240485
-0.212882
0.131583
0.226556
-0.197729
0.105621
0.211955
-0.185994
0.0829392
0.200242
-0.177559
0.061401
0.191058
-0.16952
0.0405445
0.182876
-0.16202
0.0206643
0.177387
-0.157507
0.00449849
0.168455
-0.15229
0.115258
-0.11076
0.128275
0.279485
-0.154863
0.107756
0.261005
0.0882748
0.246037
0.068799
0.231431
0.050313
0.218728
0.0332494
0.208121
0.0178067
0.198319
0.00420773
0.190986
-0.00444721
0.17711
0.110811
0.0711904
0.297173
-0.0888789
0.0533976
0.278797
0.0383751
0.261059
0.0248763
0.24493
0.0129196
0.230684
0.00229829
0.218743
-0.00785349
0.208471
-0.0151621
0.198295
-0.0138844
0.175833
0.0969268
0.00196809
0.308433
-0.0132275
-0.00637212
0.287138
-0.0143091
0.268996
-0.0211905
0.251811
-0.0274881
0.236982
-0.0330988
0.224353
-0.0367302
0.212102
-0.0356186
0.197183
-0.0237781
0.163992
0.0731487
-0.0686679
0.0692545
-0.0692469
-0.0696277
-0.0708473
-0.0715835
-0.0703857
-0.0663268
-0.0553048
-0.030666
0.337646
0.0609913
-0.38532
-0.0133179
0.292852
0.0565766
-0.0117822
0.250437
0.0527699
-0.0103547
0.210097
0.0494075
-0.00906746
0.171556
0.0464478
-0.00790704
0.134458
0.0439769
-0.00687883
0.0984263
0.0420008
-0.00596913
0.0630648
0.0405249
-0.00516339
0.0276882
0.0399321
-0.00455554
0.0309497
-0.0032615
0.325284
0.107444
-0.371736
0.281389
0.100472
0.240018
0.0941406
0.201092
0.0883342
0.164237
0.0833023
0.128833
0.0793811
0.0943788
0.0764548
0.0603055
0.0745983
0.0261361
0.0741015
0.0570858
0.303203
0.150546
-0.346305
0.262273
0.141401
0.222977
0.133437
0.185505
0.125806
0.150395
0.118413
0.117229
0.112547
0.085345
0.108339
0.0541557
0.105788
0.0234265
0.104831
0.0805123
0.268562
0.191597
-0.309612
0.231366
0.178597
0.197634
0.167169
0.164573
0.158867
0.132187
0.150799
0.101723
0.143011
0.0729694
0.137092
0.0449546
0.133802
0.0184789
0.131306
0.0989913
0.226625
-0.263079
0.19234
0.16178
0.134653
0.107892
0.0813838
0.0564563
0.0327518
0.0117686
0.420661
0.379828
-0.382674
0.431904
0.316534
-0.327776
0.430531
0.21957
-0.218197
0.438932
0.183073
-0.191475
0.435732
0.141584
-0.138383
0.440774
0.113054
-0.118097
0.435934
0.0908618
-0.0860219
0.437872
0.0742948
-0.0762329
0.43195
0.0630236
-0.057102
0.430117
0.05145
-0.0496161
0.422646
0.046606
-0.039135
0.417168
0.0387504
-0.0332732
0.407457
0.0367177
-0.0270061
0.39811
0.031919
-0.0225724
0.031498
-0.0187077
0.416184
0.381459
0.425055
0.307663
0.422443
0.222181
0.429571
0.175944
0.425513
0.145642
0.429597
0.10897
0.424275
0.096184
0.425104
0.0734653
0.41917
0.068958
0.416894
0.0537261
0.40983
0.0536702
0.404124
0.0444555
0.394329
0.0465134
0.384858
0.04139
0.0446194
0.41064
0.388635
0.414777
0.303527
0.40974
0.227218
0.413899
0.171786
0.408216
0.151325
0.410225
0.106961
0.403764
0.102645
0.403126
0.0741027
0.39594
0.0761446
0.392954
0.0567123
0.384995
0.0616287
0.37875
0.0507007
0.368642
0.0566215
0.359218
0.0508144
0.0575317
0.404341
0.402108
0.402071
0.305797
0.393059
0.236229
0.3927
0.172145
0.384624
0.159401
0.383541
0.108044
0.375506
0.11068
0.372601
0.0770075
0.365636
0.0831099
0.360565
0.061783
0.352415
0.0697789
0.344659
0.0584564
0.333651
0.06763
0.323505
0.0609601
0.0714244
0.396738
0.423185
0.3876
0.314936
0.373283
0.250546
0.36712
0.178308
0.355801
0.17072
0.350361
0.113485
0.340418
0.120623
0.33389
0.0835349
0.325464
0.0915357
0.31725
0.0699976
0.307063
0.0799662
0.297299
0.0682199
0.285921
0.0790078
0.275502
0.0713789
0.0838481
0.369454
0.426468
0.372841
0.311548
0.369887
0.253501
0.372192
0.176003
0.368361
0.174551
0.369789
0.112057
0.365434
0.124978
0.364985
0.0839833
0.36037
0.0961511
0.359526
0.0708411
0.355291
0.0842013
0.354176
0.0693355
0.352751
0.0804322
0.355357
0.0687726
0.0768534
0.362352
0.425433
0.429352
0.428316
0.308665
0.425072
0.256745
0.428373
0.172703
0.423528
0.179395
0.4264
0.109184
0.42057
0.130809
0.420641
0.0839122
0.418014
0.0987779
0.415493
0.0733616
0.415135
0.0845601
0.413766
0.0707041
0.417244
0.0769537
0.418474
0.0675428
0.0699687
0.425359
0.489133
0.432406
0.494478
0.30332
0.488301
0.262922
0.492735
0.168268
0.488168
0.183962
0.490564
0.106789
0.486807
0.134566
0.484627
0.0860929
0.486929
0.0964749
0.483064
0.0772271
0.484541
0.083083
0.484663
0.0705817
0.488489
0.0731279
0.491625
0.0644072
0.0637793
0.497814
0.560249
0.437737
0.569479
0.294091
0.563966
0.268435
0.566475
0.165759
0.565265
0.185172
0.563464
0.10859
0.564859
0.13317
0.561329
0.0896235
0.565647
0.092157
0.563527
0.0793471
0.564761
0.0818484
0.567362
0.0679808
0.571634
0.0688564
0.576461
0.0595797
0.0573136
0.582927
0.643605
0.44405
0.651679
0.286017
0.65136
0.268754
0.651318
0.165801
0.654615
0.181875
0.649979
0.113226
0.653977
0.129172
0.651523
0.0920772
0.654172
0.0895082
0.655575
0.0779446
0.658211
0.0792122
0.661783
0.0644089
0.667151
0.0634881
0.672432
0.0542988
0.050971
0.678775
0.742974
0.447907
0.747373
0.281618
0.75139
0.264736
0.750666
0.166525
0.756724
0.175817
0.752708
0.117243
0.757476
0.124403
0.756794
0.0927594
0.758142
0.0881609
0.761383
0.0747036
0.766016
0.0745786
0.770023
0.0604019
0.775802
0.0577097
0.781253
0.0488475
0.044895
0.787329
0.857572
0.448532
0.860456
0.278734
0.866454
0.258738
0.865635
0.167345
0.873559
0.167893
0.872014
0.118787
0.878088
0.118329
0.879542
0.0913053
0.881933
0.08577
0.88571
0.0709267
0.891773
0.0685153
0.896233
0.0559418
0.902107
0.0518354
0.907209
0.043746
0.0395812
0.912523
0.989489
0.445211
0.989986
0.278237
0.999569
0.249155
0.999037
0.167877
1.00806
0.158868
1.00949
0.117356
1.01702
0.110804
1.0208
0.0875195
1.02594
0.0806386
1.03074
0.0661265
1.03756
0.0616966
1.04264
0.0508569
1.04845
0.0460244
1.05367
0.0385245
0.0342752
1.05898
1.14058
0.437857
1.14169
0.277119
1.15336
0.237488
1.1548
0.166432
1.16442
0.149249
1.1689
0.112878
1.17733
0.102371
1.18328
0.081575
1.19037
0.0735459
1.19636
0.0601393
1.20354
0.0545193
1.20931
0.0450819
1.21515
0.0401852
1.22017
0.033507
0.0295769
1.22487
1.31434
0.425723
1.3188
0.272658
1.33364
0.222643
1.33935
0.160723
1.35094
0.137662
1.35827
0.105544
1.36826
0.092386
1.37575
0.0740885
1.38417
0.0651265
1.39103
0.0532744
1.39854
0.0470058
1.40475
0.0388735
1.41087
0.0340666
1.41605
0.0283258
0.0247245
1.4209
1.51317
0.408939
1.523
0.262827
1.54068
0.204967
1.55268
0.148721
1.56667
0.123667
1.57773
0.0944888
1.5894
0.0807115
1.59919
0.064299
1.6087
0.0556177
1.61675
0.0452225
1.62446
0.0392961
1.63102
0.0323186
1.63701
0.0280696
1.64211
0.0232296
0.0201544
1.64668
1.74858
0.379881
1.76863
0.242773
1.79242
0.181182
1.81043
0.130704
1.82911
0.104988
1.84334
0.0802666
1.85735
0.0667019
1.8686
0.0530465
1.87933
0.0448895
1.88805
0.036501
1.89618
0.0311649
1.90282
0.0256727
1.9089
0.0219986
1.91386
0.018264
0.0156943
1.91832
2.02363
0.332185
2.06178
0.204623
2.09777
0.145193
2.12784
0.100631
2.1545
0.0783266
2.17586
0.0589021
2.19415
0.0484179
2.20896
0.0382309
2.2217
0.0321514
2.2322
0.026006
2.24125
0.0221076
2.24881
0.018118
2.25535
0.015458
2.26084
0.0127776
0.0109184
2.26561
2.35254
0.250221
2.40686
0.150299
2.45571
0.0963463
2.49392
0.0624199
2.52713
0.0451118
2.55296
0.0330815
2.57496
0.0264164
2.59234
0.0208516
2.60732
0.0171704
2.61923
0.0140952
2.62951
0.0118238
2.63782
0.0098145
2.64499
0.0082855
2.65086
0.00690389
0.00585555
2.65592
2.85938
3.00967
3.10602
3.16844
3.21355
3.24663
3.27305
3.2939
3.31107
3.32517
3.33699
3.34681
3.35509
3.362
3.36785
0.364857
-0.215364
0.375318
-0.165323
0.380651
-0.094212
0.392115
-0.0246914
0.0589854
0.43155
-0.221556
0.43705
-0.170823
0.441635
-0.0987967
0.449025
-0.0320813
0.0468511
0.503022
-0.226764
0.504505
-0.172306
0.510796
-0.105088
0.516213
-0.0374982
0.0362855
0.585171
-0.229008
0.585929
-0.173064
0.58988
-0.109039
0.594126
-0.0417444
0.0285876
0.676903
-0.227136
0.676353
-0.172514
0.678137
-0.110823
0.682427
-0.0460345
0.0219379
0.782117
-0.221924
0.779391
-0.169788
0.779353
-0.110785
0.782426
-0.0491074
0.0161951
0.904324
-0.213725
0.898919
-0.164383
0.896975
-0.108841
0.898339
-0.0504722
0.0112057
1.04726
-0.202008
1.03893
-0.15605
1.03463
-0.104545
1.03402
-0.0498595
0.00755635
1.20987
-0.187013
1.1988
-0.144974
1.19238
-0.0981334
1.19047
-0.0479444
0.00430164
1.40212
-0.168226
1.38794
-0.130794
1.37904
-0.0892337
1.37556
-0.0444628
0.00271085
1.62424
-0.145782
1.60714
-0.113703
1.59591
-0.0780039
1.59089
-0.0394426
0.000498157
1.89183
-0.119293
1.87139
-0.0932589
1.85785
-0.0644637
1.85135
-0.0329474
0.00034132
2.23352
-0.0872064
2.20868
-0.0684104
2.1915
-0.0472841
2.18319
-0.0246373
-0.000862358
2.61854
-0.0498267
2.58939
-0.0392589
2.56934
-0.0272285
2.55906
-0.0143596
-0.000588592
3.31802
3.27877
3.25154
3.23718
0.0104486
-0.000749271
-0.00969934
0.00673961
0.00370901
-0.00820543
0.014945
-0.0362184
0.028013
0.0330381
-0.0692565
-0.00532993
0.016551
-0.0119703
-0.0423087
0.0406877
-0.094452
0.0670883
-0.14075
0.0743108
0.0616677
-0.169379
-0.0524176
0.0621296
0.00683892
-0.113502
0.101773
-0.165071
0.118657
-0.194143
0.103383
0.0746498
-0.207125
-0.109048
0.127697
0.04348
-0.170879
0.163604
-0.205292
0.153071
-0.218653
0.116743
0.079394
-0.223397
-0.161636
0.199018
0.0903153
-0.209132
0.2111
-0.226173
0.170112
-0.233915
0.124485
0.0806855
-0.235207
-0.204396
0.262463
0.140951
-0.231896
0.2386
-0.24114
0.179356
-0.248257
0.131601
0.0800282
-0.2476
-0.234888
0.309445
0.187907
-0.247905
0.251617
-0.25684
0.188291
-0.263121
0.137883
0.0781882
-0.261281
-0.256563
0.336929
0.229079
-0.261411
0.256465
-0.273788
0.200667
-0.277603
0.141698
0.0761624
-0.275577
-0.266991
0.342759
0.261162
-0.277689
0.267163
-0.291595
0.214573
-0.29352
0.143624
0.075543
-0.292901
-0.279597
0.279581
0.342774
-0.300116
0.287682
-0.308758
0.223216
-0.313006
0.147872
0.0756721
-0.313135
0.0258696
-0.00376779
0.0227962
0.0030734
0.0159776
0.00681863
0.010675
0.00530259
0.00097567
0.0405225
-0.0123704
0.0393323
0.00426359
0.0305063
0.0156446
0.0206175
0.0151914
0.0096229
0.0431638
-0.0229107
0.0423849
0.00504243
0.0319781
0.0260514
0.0171322
0.0300373
0.033594
0.0419307
-0.0335218
0.0392798
0.00769339
0.0254503
0.0398809
0.00123985
0.0542477
0.0783139
0.0377767
-0.0436316
0.0319718
0.0134984
0.0113907
0.060462
-0.0277609
0.0933992
0.140868
0.0285621
-0.0525414
0.0194021
0.0226585
-0.0106934
0.0905575
-0.0669409
0.149647
0.214878
0.0130307
-0.0603063
-0.00253281
0.038222
-0.0465408
0.134565
-0.115379
0.218485
0.287406
-0.0122254
-0.0637765
-0.0342129
0.0602095
-0.0887101
0.189063
-0.16337
0.293145
0.353114
-0.0424243
-0.0634852
-0.0730879
0.0908731
-0.138253
0.254228
-0.21574
0.370633
0.398536
-0.0789807
-0.0599979
-0.115592
0.127485
-0.187001
0.325636
-0.249757
0.433389
0.42836
-0.141783
-0.0626543
-0.126903
0.112605
-0.115276
0.314009
-0.0927421
0.410855
0.401146
-0.0655287
-0.18981
-0.0633811
-0.165298
0.0880929
-0.141625
0.290336
-0.113545
0.382776
0.368101
-0.0804996
-0.228688
-0.0661181
-0.192395
0.0518004
-0.160817
0.258758
-0.13247
0.354429
0.332789
-0.0971587
-0.238169
-0.0569119
-0.197828
0.0114592
-0.15353
0.21446
-0.139664
0.340562
0.304059
-0.110934
-0.210073
-0.023057
-0.192626
-0.00598764
-0.123965
0.145799
-0.0965324
0.31313
0.302163
-0.0946364
-0.1396
0.0611654
-0.181245
0.0356576
-0.13802
0.102574
-0.081278
0.256388
0.297657
-0.0767714
0.0253103
0.174414
-0.0656538
0.126622
-0.102222
0.139142
-0.0826057
0.236771
0.288981
-0.0739304
0.248407
0.213304
0.213387
0.161641
0.163161
0.189368
0.126675
0.273258
0.333608
0.0820481
0.422104
0.168238
0.409941
0.173804
0.357387
0.241922
0.298629
0.332015
0.393021
0.239217
0.404676
0.203013
0.311284
0.267196
0.210815
0.342391
0.142338
0.400492
0.433185
0.102174
0.148479
0.331258
0.0472281
0.368447
-0.0239451
0.413564
-0.0582714
0.434818
0.432943
-0.0580298
-0.183527
0.436605
-0.240322
0.425242
-0.251557
0.424799
-0.218488
0.40175
0.375913
-0.161458
-0.389528
0.470135
-0.396986
0.432699
-0.39204
0.419853
-0.369493
0.379203
0.339772
-0.333352
-0.493173
0.435476
-0.430636
0.370162
-0.362393
0.351609
-0.314355
0.331165
0.32066
-0.295243
-0.70744
0.437008
-0.686142
0.348864
-0.616795
0.282263
-0.514179
0.228548
0.21264
-0.406158
-0.492675
0.464036
-0.552502
0.40869
-0.605095
0.334856
-0.629152
0.252605
0.183902
-0.600414
0.383255
0.43526
0.366001
0.425944
0.319129
0.381728
0.233626
0.338107
0.28478
0.132748
0.978897
0.433448
0.965817
0.439024
0.934528
0.413017
0.8785
0.394135
0.355815
0.807466
0.356847
0.468145
0.334242
0.461629
0.309771
0.437488
0.290053
0.413852
0.381177
0.264691
-0.507493
0.465037
-0.494552
0.448688
-0.483276
0.426212
-0.469681
0.400257
0.370716
-0.459219
-0.426579
0.418307
-0.382511
0.40462
-0.343867
0.387569
-0.310585
0.366975
0.344749
-0.284618
0.204073
0.36833
0.247404
0.36129
0.284029
0.350944
0.312859
0.338145
0.322196
0.335413
0.621066
0.351079
0.631164
0.351192
0.634236
0.347872
0.630233
0.342147
0.332817
0.619612
0.0594084
0.346158
0.060134
0.350466
0.0545914
0.353414
0.0418846
0.354854
0.354814
0.019888
-0.248412
-0.243292
-0.24111
-0.243141
-0.250879
-0.0465581
0.445631
-0.464602
-0.0323939
0.500316
-0.51448
-0.022818
0.562784
-0.57236
-0.0163847
0.631709
-0.638143
-0.012058
0.708577
-0.712904
-0.00940268
0.797854
-0.800509
-0.00789254
0.899905
-0.901415
-0.0072909
1.01514
-1.01574
-0.00699963
1.14518
-1.14547
-0.00689327
1.28822
-1.28833
-0.00627175
1.44681
-1.44743
-0.00564136
1.60947
-1.6101
-0.00420043
1.7707
-1.77214
-0.00228536
1.93631
-1.93822
1.7897
-1.79198
-0.0607346
0.425866
-0.0445095
0.484091
-0.0323609
0.550635
-0.0221356
0.621484
-0.0154856
0.701927
-0.0115516
0.79392
-0.00935464
0.897708
-0.00837998
1.01417
-0.00780343
1.1446
-0.00744878
1.28786
-0.00668012
1.44604
-0.0059027
1.60869
-0.00438267
1.76918
-0.00244965
1.93438
1.78725
-0.0762
0.404908
-0.0585021
0.466393
-0.0438631
0.535996
-0.0316957
0.609317
-0.0229161
0.693147
-0.016908
0.787912
-0.0130416
0.893842
-0.0108438
1.01197
-0.00955568
1.14331
-0.00868099
1.28699
-0.00760528
1.44496
-0.00655364
1.60764
-0.00480947
1.76744
-0.00279067
1.93236
1.78446
-0.0819196
0.375893
-0.0613047
0.445778
-0.04366
0.518351
-0.0305552
0.596212
-0.0221938
0.684786
-0.016661
0.782379
-0.0137035
0.890884
-0.0117622
1.01003
-0.0104827
1.14203
-0.0094194
1.28593
-0.00813323
1.44368
-0.00687817
1.60639
-0.00501183
1.76557
-0.00301037
1.93036
1.78145
-0.0784811
0.359738
-0.0628288
0.430126
-0.048534
0.504057
-0.037581
0.585259
-0.0287311
0.675936
-0.0224324
0.77608
-0.0177611
0.886213
-0.0148856
1.00715
-0.0127625
1.13991
-0.0111646
1.28433
-0.00940279
1.44192
-0.00777925
1.60476
-0.00559285
1.76338
-0.00346432
1.92823
1.77798
-0.0630232
0.34599
-0.0460771
0.41318
-0.0328601
0.49084
-0.0245555
0.576954
-0.0208292
0.67221
-0.0180774
0.773328
-0.0167733
0.884909
-0.0151181
1.0055
-0.0135846
1.13838
-0.0119057
1.28265
-0.00996521
1.43998
-0.00810478
1.6029
-0.00579456
1.76107
-0.00366708
1.9261
1.77431
-0.0504208
0.32248
-0.0337404
0.3965
-0.0259392
0.483038
-0.0233233
0.574338
-0.0212992
0.670186
-0.0206552
0.772684
-0.0192663
0.88352
-0.0180412
1.00427
-0.0160904
1.13643
-0.014072
1.28063
-0.0115862
1.43749
-0.00927827
1.60059
-0.0066056
1.7584
-0.00419719
1.92369
1.77012
0.0633149
0.341213
0.0323001
0.427514
0.00990638
0.505432
-0.00567165
0.589916
-0.0146576
0.679172
-0.0193471
0.777374
-0.0204171
0.88459
-0.0194841
1.00334
-0.0174624
1.13441
-0.0149414
1.27811
-0.0121222
1.43467
-0.00949295
1.59796
-0.00670376
1.75561
-0.00418212
1.92117
1.76593
0.174153
0.406277
0.105037
0.49663
0.0536245
0.556844
0.0208198
0.622721
-0.00107015
0.701062
-0.0127179
0.789022
-0.0194949
0.891367
-0.0211265
1.00497
-0.0200739
1.13335
-0.017488
1.27552
-0.0141955
1.43138
-0.0109925
1.59476
-0.00780371
1.75242
-0.00461091
1.91798
1.76132
0.0526274
0.455824
0.026792
0.522466
0.00142396
0.582212
-0.0178043
0.641949
-0.0278185
0.711076
-0.033189
0.794392
-0.031189
0.889367
-0.0279974
1.00178
-0.0233223
1.12868
-0.0188351
1.27104
-0.0145082
1.42705
-0.0108063
1.59106
-0.00749937
1.74912
-0.0040223
1.9145
1.7573
-0.0722544
0.470049
-0.0660473
0.516259
-0.0548207
0.570986
-0.0472785
0.634407
-0.0412888
0.705086
-0.0381897
0.791293
-0.0359767
0.887154
-0.0321482
0.99795
-0.0275228
1.12405
-0.0221881
1.2657
-0.0173071
1.42217
-0.0127888
1.58654
-0.00888521
1.74521
-0.00393243
1.90955
1.75337
-0.137559
0.446149
-0.125453
0.504153
-0.110175
0.555707
-0.0943862
0.618618
-0.0835417
0.694242
-0.0658676
0.773619
-0.0528264
0.874113
-0.0404232
0.985547
-0.0308141
1.11444
-0.022809
1.2577
-0.0165502
1.41591
-0.0115214
1.58151
-0.00774845
1.74144
-0.00233265
1.90413
1.75104
-0.289991
0.402789
-0.236597
0.45076
-0.193185