/*--------------------------------*- C++ -*----------------------------------*\
| =========                 |                                                 |
| \\      /  F ield         | OpenFOAM: The Open Source CFD Toolbox           |
|  \\    /   O peration     | Version:  2512                                  |
|   \\  /    A nd           | Website:  www.openfoam.com                      |
|    \\/     M anipulation  |                                                 |
\*---------------------------------------------------------------------------*/
FoamFile
{
    version     2.0;
    format      ascii;
    arch        "LSB;label=32;scalar=64";
    class       surfaceScalarField;
    location    "42";
    object      phi;
}
// * * * * * * * * * * * * * * * * * * * * * * * * * * * * * * * * * * * * * //

dimensions      [0 3 -1 0 0 0 0];

oriented        oriented;

internalField   nonuniform List<scalar> 
18180
(
-0.000343269
0.00267661
-0.00233334
0.000220439
0.00396319
-0.0045269
0.00282049
0.0017707
-0.00437076
0.00855189
-0.00428084
-0.00145056
0.0184582
-0.0146435
0.0047372
0.0330046
-0.0291162
0.0145697
0.0515442
-0.0464511
0.0279116
0.0723008
-0.0646978
0.0439412
0.0929025
-0.0818904
0.0612888
0.111098
-0.0965745
0.078379
0.125373
-0.10806
0.0937849
0.135301
-0.116427
0.1065
0.141512
-0.122347
0.116136
0.14528
-0.12672
0.122952
0.147951
-0.130324
0.127653
0.150321
-0.133591
0.131221
0.152778
-0.136478
0.134022
0.155124
-0.13933
0.136984
0.156586
-0.140762
0.1393
-0.142868
0.142616
0.156838
-7.73483e-05
0.00275396
0.00124664
0.00263921
0.00540486
-0.00238752
0.0137585
-0.0126345
0.0270526
-0.0279376
0.0445997
-0.0466633
0.0642827
-0.0661341
0.0834277
-0.0838428
0.0997944
-0.0982571
0.112208
-0.108988
0.120699
-0.116552
0.126202
-0.12193
0.129951
-0.126096
0.132935
-0.129705
0.135655
-0.133043
0.138216
-0.136152
0.140805
-0.139068
0.143296
-0.141821
0.146821
-0.144287
-0.147715
0.151668
0.000324889
0.00242907
0.00282254
0.000141558
0.00913144
-0.00869642
0.0204745
-0.0239776
0.0364655
-0.0439286
0.0548098
-0.0650076
0.0725319
-0.0838562
0.0873522
-0.0986631
0.0983456
-0.10925
0.105855
-0.116497
0.110927
-0.121624
0.114649
-0.125651
0.117738
-0.129186
0.120524
-0.13249
0.12313
-0.13565
0.125718
-0.13874
0.128397
-0.141747
0.131352
-0.144775
0.134663
-0.147598
-0.150615
0.137563
0.000780695
0.00164837
0.0047083
-0.00378605
0.0134567
-0.0174449
0.0273621
-0.037883
0.0442693
-0.0608357
0.0608705
-0.0816089
0.0746804
-0.0976661
0.0848286
-0.108811
0.0917699
-0.116192
0.0965327
-0.12126
0.100061
-0.125152
0.102945
-0.128535
0.105487
-0.131728
0.107864
-0.134866
0.110233
-0.13802
0.112682
-0.141188
0.115319
-0.144384
0.11816
-0.147617
0.121353
-0.150791
-0.154416
0.125153
0.00130112
0.00034725
0.00683832
-0.00932324
0.0178883
-0.0284948
0.033057
-0.0530517
0.048765
-0.0765437
0.0620449
-0.0948888
0.0717937
-0.107415
0.0783969
-0.115415
0.0828359
-0.120631
0.0860188
-0.124443
0.088547
-0.127681
0.0907678
-0.130756
0.0928777
-0.133838
0.0949902
-0.136979
0.0971456
-0.140175
0.0993809
-0.143424
0.101728
-0.146731
0.104197
-0.150085
0.106916
-0.15351
-0.157094
0.109594
0.00190306
-0.00155581
0.00910422
-0.0165244
0.0217176
-0.0411082
0.03643
-0.0677641
0.0495157
-0.0896294
0.0592603
-0.104633
0.0657804
-0.113935
0.0699977
-0.119632
0.072861
-0.123494
0.0750399
-0.126622
0.0769178
-0.129559
0.0786772
-0.132515
0.0803902
-0.135551
0.0820815
-0.13867
0.0837849
-0.141879
0.0855454
-0.145184
0.087406
-0.148592
0.0894365
-0.152116
0.0916952
-0.155768
-0.159611
0.0942122
0.00257234
-0.00412816
0.0112188
-0.0251709
0.0241964
-0.0540857
0.0371126
-0.0806803
0.0471761
-0.0996928
0.0539129
-0.11137
0.0580882
-0.11811
0.0607068
-0.12225
0.0625324
-0.12532
0.064001
-0.12809
0.065309
-0.130867
0.066535
-0.133741
0.0677207
-0.136736
0.0689083
-0.139858
0.0701358
-0.143106
0.0714298
-0.146478
0.0728144
-0.149976
0.0742918
-0.153593
0.0758718
-0.157348
-0.16121
0.0774703
0.00324857
-0.00737673
0.0127913
-0.0347137
0.0249467
-0.0662411
0.035457
-0.0911906
0.0427254
-0.106961
0.0471086
-0.115753
0.0496113
-0.120613
0.0511173
-0.123756
0.0521601
-0.126362
0.0529922
-0.128922
0.0537187
-0.131593
0.0543895
-0.134412
0.0550358
-0.137383
0.0556781
-0.1405
0.0563331
-0.143761
0.0570226
-0.147168
0.0577684
-0.150722
0.0586081
-0.154433
0.0595658
-0.158306
-0.16231
0.0606662
0.00384716
-0.0112239
0.0135434
-0.0444099
0.0240936
-0.0767913
0.0321139
-0.0992109
0.0370185
-0.111866
0.0396123
-0.118347
0.0408909
-0.121892
0.0415359
-0.124401
0.0418941
-0.126721
0.0421113
-0.12914
0.0422439
-0.131726
0.0423182
-0.134486
0.0423526
-0.137417
0.042368
-0.140516
0.0423892
-0.143782
0.0424403
-0.147219
0.0425468
-0.150829
0.0427197
-0.154606
0.0429475
-0.158534
-0.162578
0.0432153
0.00427451
-0.0154984
0.0133925
-0.0535279
0.0220003
-0.0853991
0.0277247
-0.104935
0.0307039
-0.114845
0.0319183
-0.119562
0.0322264
-0.1222
0.0321232
-0.124298
0.0318231
-0.126421
0.0314054
-0.128722
0.0309011
-0.131221
0.0303302
-0.133915
0.0297117
-0.136799
0.0290634
-0.139867
0.0284002
-0.143119
0.0277385
-0.146557
0.027097
-0.150187
0.0265037
-0.154013
0.0259929
-0.158023
0.0255858
-0.162171
0.000386344
0.0117911
-0.0121774
4.21286e-05
0.0252226
-0.0248783
-0.00132906
0.0317457
-0.0303745
-0.00335846
0.0341607
-0.0321313
-0.00566755
0.0346938
-0.0323847
-0.00794735
0.0343382
-0.0320584
-0.00997587
0.033204
-0.0311755
-0.0115899
0.031036
-0.029422
-0.0126687
0.0275359
-0.0264571
-0.01313
0.022463
-0.0220016
-0.012944
0.0156673
-0.0158534
-0.0121673
0.00709165
-0.0078683
-0.0107849
-0.00318847
0.0018061
-0.00861154
-0.0151938
0.0130204
-0.00564828
-0.0289025
0.0259392
-0.00174312
-0.0441492
0.040244
0.00332809
-0.0605846
0.0555134
0.00915464
-0.0769196
0.071093
0.0158115
-0.0929281
0.0862713
-0.106028
0.021845
0.0999949
0.0011427
0.0106484
0.00221003
0.0241552
0.00255498
0.0314008
0.00232591
0.0343898
0.00196215
0.0350575
0.00184864
0.0344517
0.00223132
0.0328213
0.00324221
0.0300251
0.0049411
0.025837
0.00731706
0.020087
0.0103052
0.0126792
0.0137674
0.00362946
0.0177248
-0.00714587
0.0221366
-0.0196056
0.0271501
-0.033916
0.0329214
-0.0499205
0.0398636
-0.0675268
0.0477981
-0.084854
0.0566955
-0.101826
-0.114782
0.0654489
0.00172746
0.00892093
0.0041804
0.0217023
0.00628057
0.0293006
0.00797019
0.0327002
0.00962951
0.0333982
0.0116657
0.0324155
0.0143445
0.0301425
0.0177822
0.0265875
0.0219794
0.0216398
0.0268515
0.0152149
0.0322221
0.00730852
0.0380253
-0.00217367
0.0442115
-0.0133321
0.0507833
-0.0261774
0.0579828
-0.0411155
0.0658824
-0.0578201
0.074761
-0.0764054
0.0840442
-0.0941373
0.0935884
-0.11137
-0.123752
0.102559
0.00199668
0.00692425
0.00545938
0.0182396
0.00908614
0.0256739
0.012546
0.0292403
0.0160562
0.029888
0.0199716
0.0285002
0.0245547
0.0255594
0.0299145
0.0212276
0.036028
0.0155263
0.0427866
0.00845628
0.0499518
0.000143373
0.0578186
-0.0100405
0.0662217
-0.0217352
0.0754364
-0.0353921
0.0857928
-0.0514719
0.0971473
-0.0691746
0.109245
-0.0885033
0.120806
-0.105698
0.131279
-0.121843
-0.131424
0.138951
0.00191495
0.0050093
0.00579277
0.0143618
0.010397
0.0210697
0.0151863
0.0244509
0.0201539
0.0249204
0.0255187
0.0231355
0.0314876
0.0195905
0.038156
0.0145591
0.0455052
0.00817718
0.0534021
0.000559358
0.0623288
-0.0087833
0.0719924
-0.0197042
0.0829378
-0.0326806
0.0954781
-0.0479323
0.109565
-0.0655584
0.124514
-0.0841243
0.139126
-0.103115
0.15184
-0.118412
0.16188
-0.131884
-0.13751
0.167966
0.00155358
0.00345572
0.00520148
0.0107139
0.0100268
0.0162443
0.0154349
0.0190429
0.0212297
0.0191256
0.0274607
0.0169044
0.0342469
0.0128043
0.0416882
0.00711782
0.0498066
5.87684e-05
0.0591941
-0.00882811
0.0698571
-0.0194462
0.0823878
-0.0322349
0.0970928
-0.0473856
0.113794
-0.064633
0.131399
-0.0831638
0.148405
-0.101131
0.162725
-0.117434
0.173235
-0.128922
0.179422
-0.138071
-0.139554
0.181466
0.00103283
0.00242289
0.00393864
0.00780804
0.00824413
0.0119388
0.013468
0.013819
0.0193434
0.0132502
0.0258237
0.0104242
0.0330215
0.00560643
0.0412123
-0.00107291
0.0509961
-0.00972503
0.0627202
-0.0205522
0.0769953
-0.0337214
0.0939692
-0.0492089
0.113048
-0.0664642
0.132882
-0.0844676
0.151406
-0.101688
0.166785
-0.116509
0.177291
-0.12794
0.183047
-0.134678
0.184324
-0.139347
-0.13827
0.18304
0.000465529
0.00195736
0.0023649
0.00590867
0.00567144
0.00863229
0.0101446
0.0093459
0.015641
0.00775376
0.0222573
0.00380785
0.0303871
-0.0025234
0.0406566
-0.0113424
0.0537022
-0.0227705
0.0698837
-0.0367338
0.0889534
-0.052791
0.109838
-0.0700931
0.130734
-0.0873604
0.149519
-0.103253
0.164237
-0.116406
0.173937
-0.126209
0.178498
-0.132501
0.179715
-0.135895
0.17849
-0.138122
-0.137404
0.177623
-3.66376e-05
0.001994
0.000910422
0.00496161
0.00322941
0.00631331
0.00704185
0.00553346
0.0125837
0.00221187
0.0203649
-0.00397328
0.0310752
-0.0132337
0.0452855
-0.0255527
0.0630165
-0.0405016
0.08348
-0.0571973
0.1051
-0.0744111
0.125786
-0.0907791
0.143457
-0.105031
0.156565
-0.116361
0.164591
-0.124432
0.168255
-0.129873
0.169
-0.133246
0.169012
-0.135907
0.168957
-0.138066
-0.13872
0.170273
-0.000339341
9.53739e-05
0.00203792
0.00612082
0.0130699
0.0236664
0.0383442
0.0567327
0.0775199
0.0987016
0.118075
0.133796
0.144901
0.151491
0.154712
0.156059
0.156835
0.157912
0.159147
0.163043
0.022038
-0.152817
0.152624
0.0195366
-0.166464
0.168966
0.0175841
-0.177931
0.179883
0.0215567
-0.185206
0.181234
0.0356132
-0.180236
0.16618
0.0592889
-0.154132
0.130457
0.0863777
-0.103249
0.0761598
0.111768
-0.0314254
0.00603511
0.134443
0.0510955
-0.073771
0.154007
0.127505
-0.147069
0.168081
0.180747
-0.19482
0.175129
0.209534
-0.216582
0.17792
0.21908
-0.221871
0.17849
0.216426
-0.216995
0.174567
0.221591
-0.217668
0.165302
0.248138
-0.238873
0.155492
0.2688
-0.25899
0.150396
0.233753
-0.228656
0.151792
0.126692
-0.128089
0.158948
-0.0178538
0.0106986
0.168714
-0.14384
0.134074
0.177756
-0.216542
0.207501
0.18343
-0.244328
0.238654
0.183391
-0.255322
0.255362
0.17353
-0.263908
0.273769
0.154071
-0.267935
0.287394
0.133983
-0.248682
0.26877
0.124939
-0.182397
0.191442
0.134331
-0.0731252
0.0637332
0.156967
0.0384117
-0.0610482
0.177411
0.12785
-0.148293
0.184633
0.215807
-0.22303
0.180406
0.31189
-0.307662
0.173904
0.360279
-0.353777
0.170966
0.289384
-0.286446
0.169492
0.108376
-0.106902
0.165043
-0.105718
0.110167
0.157935
-0.267562
0.27467
0.149374
-0.326327
0.334887
0.138127
-0.264217
0.275465
0.127064
-0.1315
0.142563
0.119907
0.0581525
-0.0509956
0.118033
0.200153
-0.198279
0.118167
0.302077
-0.302211
0.120316
0.247082
-0.249231
0.125831
0.150193
-0.155708
0.135692
-0.0332989
0.0234378
0.148045
-0.150983
0.138631
0.158993
-0.225371
0.214422
-0.20153
0.194536
0.0633281
-0.150696
0.0557818
-0.158918
0.0419498
-0.164099
0.0275758
-0.170832
0.0219412
-0.174601
0.0308796
-0.163071
0.0525743
-0.124943
0.0805202
-0.0593713
0.109814
0.0218017
0.137116
0.100204
0.158366
0.159496
0.172174
0.195726
0.180912
0.210342
0.186074
0.211263
0.186533
0.221132
0.182219
0.252452
0.176261
0.274758
0.171988
0.238026
0.170793
0.127887
0.172924
-0.0199846
0.177309
-0.148225
0.181442
-0.220676
0.182327
-0.245213
0.178761
-0.251757
0.167436
-0.252582
0.147004
-0.247504
0.126074
-0.227751
0.117839
-0.174163
0.130406
-0.0856925
0.156406
0.0124119
0.179505
0.104751
0.188825
0.206487
0.18621
0.314505
0.180439
0.36605
0.177239
0.292584
0.17434
0.111275
0.16744
-0.0988177
0.158008
-0.258129
0.149068
-0.317388
0.139168
-0.254317
0.129814
-0.122146
0.123375
0.064592
0.120699
0.202829
0.119365
0.30341
0.120047
0.246401
0.125216
0.145025
0.135251
-0.0433346
0.148258
-0.16399
0.160082
-0.237195
-0.208843
0.098037
-0.146174
0.0914323
-0.152313
0.0775481
-0.150215
0.0545538
-0.147838
0.0313631
-0.151411
0.0208106
-0.152518
0.0293937
-0.133526
0.0537263
-0.0837038
0.0863837
-0.0108557
0.119871
0.0667165
0.148257
0.13111
0.169319
0.174664
0.184467
0.195195
0.194946
0.200783
0.20062
0.215458
0.201777
0.251295
0.19984
0.276695
0.19584
0.242026
0.191053
0.132674
0.187434
-0.0163656
0.185962
-0.146753
0.185053
-0.219766
0.181672
-0.241832
0.175547
-0.245632
0.164131
-0.241166
0.1441
-0.227473
0.122345
-0.205997
0.113845
-0.165662
0.127483
-0.0993305
0.155924
-0.0160296
0.181592
0.0790835
0.193548
0.19453
0.1931
0.314953
0.188091
0.371058
0.184368
0.296307
0.179995
0.115648
0.170776
-0.0895982
0.158826
-0.24618
0.149232
-0.307794
0.140637
-0.245722
0.132976
-0.114485
0.127284
0.0702846
0.123933
0.20618
0.121152
0.306191
0.120427
0.247126
0.125247
0.140205
0.13541
-0.0534977
0.148896
-0.177476
0.161406
-0.249706
-0.216411
0.127471
-0.134694
0.116655
-0.141498
0.106356
-0.139915
0.0894905
-0.130973
0.0618794
-0.1238
0.0344226
-0.125062
0.0238282
-0.122932
0.0366458
-0.0965213
0.0660586
-0.0402686
0.101914
0.0308608
0.135377
0.0976471
0.162817
0.147224
0.184164
0.173848
0.200303
0.184645
0.211834
0.203927
0.218996
0.244133
0.221663
0.274027
0.219059
0.244631
0.211027
0.140705
0.201976
-0.00731389
0.194753
-0.139531
0.18911
-0.214123
0.181811
-0.234533
0.172912
-0.236732
0.162125
-0.23038
0.144468
-0.209816
0.122926
-0.184454
0.112534
-0.15527
0.125108
-0.111905
0.154758
-0.0456789
0.183372
0.0504687
0.198428
0.179475
0.200091
0.31329
0.195762
0.375388
0.19158
0.300489
0.18611
0.121118
0.174931
-0.0784193
0.160358
-0.231607
0.149748
-0.297184
0.14238
-0.238354
0.136482
-0.108587
0.131645
0.0751217
0.127745
0.21008
0.123536
0.3104
0.121448
0.249214
0.12595
0.135703
0.136216
-0.0637641
0.150007
-0.191267
0.162993
-0.262692
-0.22416
0.152642
-0.11937
0.135333
-0.124189
0.120453
-0.125035
0.109567
-0.120086
0.0936702
-0.107903
0.06656
-0.0979514
0.0403087
-0.0966808
0.0339884
-0.090201
0.0522713
-0.0585514
0.0856224
-0.00249028
0.121178
0.0620914
0.153274
0.115128
0.179759
0.147363
0.2007
0.163704
0.217628
0.186998
0.231288
0.230474
0.239487
0.265829
0.238939
0.245178
0.229898
0.149746
0.216277
0.00630665
0.203
-0.126253
0.192607
-0.20373
0.18228
-0.224206
0.170962
-0.225415
0.160769
-0.220187
0.146905
-0.195952
0.127336
-0.164885
0.114358
-0.142292
0.123172
-0.120719
0.152383
-0.07489
0.183808
0.0190432
0.202791
0.160493
0.207824
0.308256
0.20461
0.378603
0.199453
0.305645
0.192597
0.127974
0.179707
-0.0655293
0.162468
-0.214367
0.150453
-0.28517
0.144197
-0.232097
0.140205
-0.104596
0.136396
0.078931
0.132089
0.214387
0.126493
0.315996
0.123118
0.252588
0.127349
0.131472
0.137695
-0.0741097
0.151622
-0.205193
0.16486
-0.27593
-0.232007
0.164852
-0.102756
0.147866
-0.107203
0.130186
-0.107355
0.116195
-0.106096
0.107994
-0.0997019
0.096037
-0.0859946
0.0730247
-0.0736684
0.0516039
-0.0687803
0.0510095
-0.057957
0.0734155
-0.0248963
0.108196
0.0273105
0.143631
0.0796937
0.174101
0.116893
0.198325
0.139479
0.218892
0.166432
0.237384
0.211981
0.249954
0.25326
0.251584
0.243547
0.242626
0.158705
0.227293
0.0216397
0.209875
-0.108835
0.195222
-0.189077
0.182472
-0.211456
0.169061
-0.212003
0.158816
-0.209943
0.149371
-0.186506
0.134115
-0.149629
0.119486
-0.127663
0.122215
-0.123448
0.14841
-0.101085
0.182375
-0.0149213
0.205756
0.137111
0.214217
0.299795
0.212417
0.380403
0.206644
0.311418
0.198831
0.135787
0.184748
-0.051446
0.165047
-0.194666
0.151237
-0.27136
0.145877
-0.226737
0.143955
-0.102673
0.14142
0.0814655
0.136971
0.218837
0.130098
0.322869
0.125492
0.257195
0.129471
0.127493
0.139855
-0.0844938
0.153755
-0.219093
0.167019
-0.289194
-0.239865
0.165443
-0.0851583
0.149087
-0.0908473
0.134353
-0.0926207
0.120057
-0.0917995
0.10957
-0.0892156
0.105446
-0.0818705
0.0992577
-0.0674799
0.0834169
-0.0529394
0.0686748
-0.0432149
0.0722488
-0.0284704
0.0969397
0.00261961
0.131015
0.0456189
0.164177
0.0837302
0.191744
0.111913
0.215666
0.142509
0.238467
0.18918
0.25573
0.235996
0.259897
0.23938
0.251021
0.167581
0.234107
0.0385535
0.214282
-0.0890104
0.19633
-0.171125
0.182019
-0.197145
0.16732
-0.197304
0.156084
-0.198706
0.150096
-0.180519
0.140753
-0.140286
0.127004
-0.113915
0.123075
-0.119519
0.142972
-0.120982
0.178138
-0.0500871
0.206947
0.108302
0.220468
0.286274
0.220665
0.380206
0.214268
0.317816
0.204893
0.145162
0.18965
-0.0362034
0.167887
-0.172903
0.15198
-0.255453
0.147182
-0.221939
0.147521
-0.103013
0.146567
0.0824197
0.142209
0.223194
0.134233
0.330845
0.128554
0.262873
0.132314
0.123732
0.142685
-0.0948646
0.156401
-0.232809
0.169468
-0.302261
-0.247645
0.163168
-0.0707037
0.148289
-0.0759683
0.1348
-0.0791317
0.12326
-0.0802593
0.112524
-0.0784791
0.105241
-0.0745881
0.104497
-0.0667358
0.103403
-0.0518455
0.09492
-0.0347316
0.0869782
-0.0205285
0.0925527
-0.00295491
0.113944
0.0242277
0.141972
0.0557019
0.170438
0.0834471
0.199297
0.11365
0.228032
0.160446
0.249825
0.214203
0.257285
0.23192
0.251264
0.173602
0.237164
0.0526535
0.21726
-0.0691066
0.196499
-0.150364
0.180556
-0.181202
0.165321
-0.18207
0.152584
-0.185968
0.148175
-0.17611
0.14471
-0.136821
0.134507
-0.103712
0.125561
-0.110573
0.137012
-0.132433
0.170803
-0.0838777
0.204421
0.0746831
0.223228
0.267467
0.226237
0.377197
0.219713
0.32434
0.209699
0.155176
0.194071
-0.0205751
0.170821
-0.149653
0.152616
-0.237248
0.147951
-0.217275
0.150671
-0.105733
0.151715
0.0813759
0.1479
0.227009
0.139088
0.339657
0.132397
0.269564
0.135905
0.120224
0.146165
-0.105124
0.159539
-0.246183
0.172197
-0.314919
-0.255262
0.158719
-0.0591498
0.146628
-0.0638768
0.134529
-0.0670337
0.123782
-0.0695114
0.115099
-0.0697965
0.107767
-0.0672561
0.103714
-0.0626829
0.105314
-0.0534449
0.108584
-0.0380021
0.108973
-0.0209171
0.109773
-0.00375573
0.11497
0.0190308
0.127478
0.0431939
0.146153
0.064772
0.172967
0.0868366
0.207116
0.126296
0.237879
0.183441
0.251912
0.217887
0.248395
0.177118
0.2351
0.0659491
0.215479
-0.0494861
0.193424
-0.128309
0.17663
-0.164407
0.162148
-0.167588
0.148416
-0.172237
0.143711
-0.171405
0.14463
-0.137741
0.139385
-0.0984672
0.128473
-0.0996596
0.130466
-0.134427
0.159983
-0.113395
0.199359
0.0353076
0.225404
0.241423
0.23139
0.371211
0.224338
0.331392
0.213239
0.166275
0.197301
-0.00463767
0.17346
-0.125811
0.153041
-0.216828
0.147935
-0.212169
0.153148
-0.110946
0.156545
0.0779792
0.15358
0.229975
0.144245
0.348992
0.13684
0.276969
0.140185
0.116878
0.15024
-0.115178
0.163134
-0.259077
0.175192
-0.326978
-0.262637
0.153721
-0.0498279
0.143511
-0.0536671
0.133575
-0.0570979
0.124022
-0.0599578
0.115845
-0.0616199
0.109377
-0.0607876
0.104243
-0.0575488
0.102311
-0.051513
0.105228
-0.040919
0.110922
-0.0266113
0.116405
-0.00923938
0.12236
0.013076
0.127864
0.0376906
0.136006
0.0566297
0.152477
0.0703655
0.180068
0.0987046
0.210309
0.1532
0.230009
0.198187
0.236379
0.170748
0.232135
0.0701937
0.215843
-0.0331939
0.192402
-0.104868
0.173386
-0.145391
0.159147
-0.153349
0.144938
-0.158028
0.138365
-0.164832
0.141233
-0.140608
0.140566
-0.0978009
0.130433
-0.089526
0.125572
-0.129566
0.146962
-0.134785
0.187375
-0.0051051
0.221027
0.207771
0.233169
0.359069
0.227485
0.337076
0.215768
0.177992
0.200188
0.0109421
0.176085
-0.101708
0.153756
-0.194499
0.147527
-0.20594
0.154679
-0.118098
0.161105
0.0715528
0.159799
0.231281
0.15026
0.358531
0.142133
0.285097
0.1452
0.113811
0.154909
-0.124888
0.167166
-0.271335
0.178424
-0.338235
-0.269691
0.220333
-0.0411678
-0.228993
0.212719
-0.0460533
0.204983
-0.0493617
0.196686
-0.0516609
0.187788
-0.0527218
0.178677
-0.051677
0.169679
-0.0485511
0.160672
-0.0425053
0.152431
-0.032678
0.146271
-0.0204517
0.142378
-0.00534633
0.137986
0.0174683
0.133021
0.0426555
0.129909
0.0597416
0.130179
0.0700957
0.134242
0.0946411
0.146414
0.141029
0.174862
0.169738
0.214754
0.130857
0.244073
0.0408747
0.252347
-0.0414683
0.243675
-0.0961962
0.228941
-0.130658
0.214263
-0.138671
0.198498
-0.142263
0.184823
-0.151157
0.176654
-0.132438
0.170542
-0.0916895
0.162419
-0.0814033
0.154707
-0.121854
0.157456
-0.137535
0.171588
-0.0192367
0.183106
0.196253
0.191027
0.351147
0.199039
0.329064
0.206759
0.170272
0.206027
0.0116744
0.191398
-0.0870789
0.170165
-0.173266
0.15732
-0.193095
0.154468
-0.115246
0.151758
0.0742625
0.145063
0.237975
0.136959
0.366635
0.134244
0.287811
0.142402
0.105654
0.152914
-0.1354
0.161789
-0.28021
0.167482
-0.343928
-0.27208
0.232462
-0.0339809
-0.239649
0.224921
-0.038512
0.217143
-0.0415842
0.208964
-0.0434813
0.200475
-0.0442333
0.191987
-0.0431883
0.183862
-0.040427
0.176549
-0.0351922
0.170234
-0.0263628
0.165369
-0.0155863
0.16221
-0.00218787
0.161673
0.0180059
0.162475
0.0418527
0.163265
0.0589519
0.163026
0.0703345
0.164822
0.0928456
0.179786
0.126064
0.214056
0.135468
0.251179
0.0937342
0.271199
0.0208541
0.271326
-0.0415949
0.258578
-0.0834486
0.241823
-0.113902
0.226557
-0.123405
0.211471
-0.127176
0.198019
-0.137706
0.189835
-0.124254
0.185437
-0.0872918
0.179594
-0.0755599
0.170704
-0.112964
0.169305
-0.136135
0.181926
-0.0318582
0.197545
0.180634
0.20937
0.339322
0.218512
0.319922
0.2256
0.163184
0.225262
0.0120127
0.209142
-0.0709588
0.185335
-0.14946
0.171303
-0.179063
0.169765
-0.113708
0.168656
0.0753715
0.162343
0.244288
0.154031
0.374947
0.1515
0.290342
0.160507
0.096647
0.170947
-0.14584
0.178891
-0.288153
0.183102
-0.348139
-0.273509
0.246118
-0.0280895
-0.252009
0.239219
-0.0316135
0.232085
-0.0344497
0.224705
-0.0361019
0.217081
-0.0366089
0.209406
-0.0355135
0.201897
-0.0329176
0.195079
-0.028375
0.189465
-0.020748
0.185196
-0.0113176
0.182678
0.000329865
0.183625
0.0170596
0.188314
0.0371637
0.193857
0.0534083
0.198227
0.0659649
0.205088
0.0859843
0.224161
0.106991
0.255952
0.103678
0.28291
0.066776
0.292249
0.0115149
0.28708
-0.0364261
0.273758
-0.0701265
0.257919
-0.098063
0.243711
-0.109197
0.229469
-0.112934
0.215438
-0.123675
0.205945
-0.11476
0.201787
-0.0831342
0.19727
-0.0710429
0.18725
-0.102944
0.181652
-0.130537
0.192937
-0.0431436
0.212511
0.16106
0.228819
0.323014
0.239101
0.30964
0.245514
0.156771
0.245354
0.0121723
0.229063
-0.0546674
0.2027
-0.123097
0.186753
-0.163115
0.186775
-0.11373
0.187849
0.0742977
0.182385
0.249753
0.174112
0.38322
0.17215
0.292304
0.181934
0.0868635
0.191798
-0.155705
0.198198
-0.294553
0.200432
-0.350373
-0.273701
0.260198
-0.0226703
-0.265617
0.254098
-0.025513
0.247614
-0.0279656
0.240869
-0.0293571
0.233962
-0.029702
0.227144
-0.0286953
0.220549
-0.0263231
0.214588
-0.0224138
0.20982
-0.0159794
0.20644
-0.00793837
0.204576
0.00219398
0.205925
0.015711
0.211601
0.0314877
0.219167
0.0458419
0.227349
0.057783
0.239723
0.0736109
0.260717
0.0859971
0.286337
0.0780573
0.303735
0.0493778
0.306887
0.00836351
0.299928
-0.0294677
0.287407
-0.0576051
0.272476
-0.0831325
0.258527
-0.095248
0.24508
-0.099487
0.231813
-0.110408
0.221843
-0.104791
0.217684
-0.0789753
0.214766
-0.0681251
0.204693
-0.0928702
0.195045
-0.120889
0.2041
-0.0521985
0.227283
0.137877
0.248247
0.30205
0.25997
0.297917
0.265728
0.151013
0.266081
0.0118194
0.249866
-0.0384523
0.221254
-0.0944854
0.203398
-0.145259
0.205392
-0.115725
0.209536
0.0701539
0.205499
0.25379
0.197712
0.391006
0.1968
0.293216
0.207302
0.0763607
0.215983
-0.164385
0.220085
-0.298655
0.219692
-0.34998
-0.272318
0.275219
-0.0179089
-0.27998
0.269959
-0.0202532
0.264246
-0.0222524
0.258272
-0.0233829
0.252181
-0.0236115
0.246213
-0.0227273
0.240499
-0.0206089
0.235382
-0.0172972
0.231348
-0.0119448
0.228622
-0.00521316
0.227514
0.00330284
0.229067
0.0141572
0.234348
0.0262069
0.241941
0.0382486
0.251395
0.0483292
0.265585
0.0594208
0.285105
0.066477
0.304695
0.0584676
0.316528
0.0375447
0.317899
0.00699309
0.311922
-0.0234911
0.301328
-0.0470114
0.288317
-0.0701215
0.275678
-0.0826091
0.263258
-0.0870667
0.250764
-0.0979138
0.239984
-0.0940106
0.234619
-0.0736102
0.232722
-0.0662279
0.222887
-0.0830359
0.208967
-0.106969
0.214653
-0.0578844
0.240922
0.111608
0.267092
0.275879
0.280864
0.284146
0.285986
0.145891
0.287009
0.010797
0.271916
-0.0233596
0.241713
-0.0642831
0.22167
-0.125215
0.225731
-0.119786
0.233783
0.0621022
0.231941
0.255632
0.225387
0.39756
0.22608
0.292524
0.237045
0.065395
0.24371
-0.17105
0.244606
-0.299551
0.240927
-0.3463
-0.269034
0.291639
-0.0138774
-0.29567
0.287095
-0.0157097
0.282128
-0.017285
0.276929
-0.0181841
0.271638
-0.0183209
0.266485
-0.0175738
0.261609
-0.0157335
0.257285
-0.0129732
0.253932
-0.00859115
0.2518
-0.00308147
0.251293
0.00380984
0.252998
0.0124522
0.257646
0.0215594
0.26468
0.0312144
0.273895
0.0391144
0.286998
0.0463172
0.303128
0.0503478
0.31813
0.0434655
0.327417
0.0282572
0.328852
0.0055579
0.324467
-0.0191054
0.315769
-0.038314
0.304421
-0.0587735
0.29286
-0.0710476
0.280944
-0.0751508
0.269413
-0.0863827
0.259003
-0.0836012
0.252198
-0.066805
0.250649
-0.0646788
0.242045
-0.0744323
0.223582
-0.0885051
0.22362
-0.0579225
0.25318
0.0820487
0.285471
0.243588
0.301069
0.268548
0.305289
0.141671
0.30735
0.00873551
0.294507
-0.0105168
0.263914
-0.0336901
0.241789
-0.10309
0.247744
-0.125741
0.260356
0.0494904
0.261661
0.254327
0.257447
0.401774
0.260447
0.289524
0.271499
0.0543433
0.275163
-0.174713
0.271838
-0.296227
0.264194
-0.338656
-0.263536
0.309479
-0.0104149
-0.312942
0.30558
-0.0118101
0.301327
-0.0130323
0.296883
-0.0137399
0.292376
-0.0138144
0.288
-0.0131981
0.283928
-0.0116607
0.280354
-0.00939978
0.277662
-0.00589923
0.276047
-0.0014665
0.275934
0.00392345
0.277706
0.0106801
0.281774
0.0174912
0.288088
0.0249001
0.296344
0.0308589
0.307351
0.0353103
0.320143
0.0375555
0.331812
0.0317968
0.33947
0.0205988
0.341147
0.0038813
0.338098
-0.0160567
0.331182
-0.0313977
0.32139
-0.0489818
0.311375
-0.0610322
0.300328
-0.0641039
0.289324
-0.075379
0.279833
-0.0741101
0.271722
-0.0586942
0.268752
-0.0617088
0.261879
-0.0675586
0.240672
-0.0672989
0.231704
-0.0489543
0.259787
0.0539655
0.297083
0.206292
0.31622
0.249411
0.322273
0.135618
0.326859
0.00415001
0.317565
-0.00122284
0.288196
-0.00432098
0.264315
-0.0792094
0.271438
-0.132864
0.288977
0.0319512
0.294577
0.248727
0.294079
0.402272
0.300089
0.283514
0.310637
0.0437952
0.310117
-0.174194
0.301537
-0.287647
0.289372
-0.32649
-0.255598
0.328759
-0.00747069
-0.331703
0.325486
-0.008537
0.321924
-0.00947074
0.318207
-0.0100229
0.314455
-0.0100621
0.310819
-0.00956229
0.307482
-0.00832414
0.304594
-0.00651085
0.302482
-0.0037876
0.301319
-0.000303929
0.301449
0.00379343
0.303188
0.00894118
0.306711
0.0139685
0.312208
0.0194029
0.319292
0.0237755
0.328239
0.0263631
0.338303
0.0274912
0.34731
0.02279
0.353616
0.0142924
0.355347
0.00215014
0.353205
-0.0139144
0.347888
-0.0260805
0.33933
-0.040424
0.330513
-0.0522148
0.320625
-0.0542162
0.309839
-0.0645934
0.301488
-0.0657584
0.293361
-0.0505679
0.287823
-0.0561702
0.281885
-0.0616205
0.261515
-0.0469297
0.244009
-0.0314475
0.262839
0.0351356
0.301891
0.167239
0.328374
0.222929
0.33958
0.124412
0.34649
-0.00275975
0.340931
0.00433588
0.314577
0.0220328
0.289733
-0.0543649
0.296695
-0.139826
0.318679
0.0099672
0.32959
0.237816
0.334616
0.397246
0.344535
0.273595
0.353825
0.0345043
0.347923
-0.168291
0.333242
-0.272966
0.316248
-0.309497
-0.245133
0.349606
-0.00505015
-0.352026
0.346921
-0.00585199
0.344007
-0.00655696
0.340961
-0.00697661
0.337896
-0.00699747
0.334931
-0.00659749
0.33225
-0.0056434
0.329968
-0.00422854
0.328353
-0.00217298
0.327584
0.000465384
0.327855
0.00352292
0.329488
0.00730768
0.332497
0.0109595
0.337135
0.0147649
0.343055
0.0178555
0.350154
0.019264
0.358024
0.0196214
0.364917
0.0158968
0.369967
0.00924221
0.371627
0.000490433
0.369909
-0.0121963
0.365842
-0.0220138
0.358563
-0.033145
0.350689
-0.0443407
0.342314
-0.0458414
0.331853
-0.0541322
0.323966
-0.0578712
0.31687
-0.0434718
0.308991
-0.0482915
0.302572
-0.0552009
0.286647
-0.0310051
0.26652
-0.0113203
0.275652
0.0260034
0.313566
0.129325
0.346703
0.189792
0.360844
0.110271
0.366743
-0.00865876
0.364208
0.00687063
0.343071
0.04317
0.318468
-0.0297628
0.323042
-0.144399
0.347927
-0.0149184
0.365074
0.220669
0.377922
0.384399
0.392616
0.258901
0.399642
0.0274778
0.387231
-0.15588
0.366079
-0.251813
0.344422
-0.28784
-0.232282
0.372123
-0.00309754
-0.374076
0.369958
-0.00368654
0.367612
-0.00421154
0.365161
-0.00452579
0.362712
-0.00454815
0.36036
-0.00424518
0.358261
-0.003545
0.356514
-0.0024816
0.355316
-0.000974702
0.354834
0.000947715
0.355187
0.00316919
0.356655
0.00583977
0.359186
0.00842908
0.362974
0.0109763
0.367792
0.0130382
0.37332
0.0137353
0.379404
0.0135374
0.384642
0.0106593
0.388497
0.00538733
0.389976
-0.000989017
0.388518
-0.0107384
0.385335
-0.0188308
0.379357
-0.027167
0.372104
-0.0370873
0.365068
-0.0388052
0.355482
-0.0445468
0.347467
-0.0498561
0.341668
-0.037673
0.332955
-0.039578
0.325112
-0.0473582
0.314604
-0.0204974
0.298939
0.00434517
0.303134
0.0218081
0.3375
0.094959
0.37253
0.154763
0.385475
0.0973261
0.386761
-0.00994488
0.386267
0.0073642
0.37337
0.0560671
0.35082
-0.00721312
0.349655
-0.143234
0.37426
-0.0395232
0.398661
0.196268
0.421809
0.361251
0.441738
0.238973
0.445369
0.0238464
0.425951
-0.136462
0.39891
-0.224772
0.373434
-0.262364
-0.217466
0.39635
-0.00155166
-0.397896
0.394642
-0.00197908
0.392803
-0.00237213
0.390887
-0.00261021
0.388983
-0.00264388
0.387166
-0.00242837
0.385561
-0.00193973
0.384256
-0.00117689
0.383397
-0.000115663
0.383124
0.00122112
0.383512
0.00278103
0.384772
0.0045802
0.386857
0.00634383
0.389865
0.00796775
0.393679
0.00922449
0.397918
0.00949631
0.402513
0.0089431
0.406449
0.00672262
0.409253
0.0025832
0.410478
-0.00221415
0.409216
-0.0094764
0.40652
-0.0161344
0.401721
-0.0223681
0.395132
-0.0304984
0.389048
-0.0327209
0.380827
-0.0363259
0.372621
-0.04165
0.367623
-0.0326748
0.359613
-0.0315686
0.350495
-0.0382395
0.344231
-0.0142335
0.336068
0.0125076
0.338004
0.0198722
0.365625
0.0673379
0.399164
0.121224
0.410767
0.0857226
0.406452
-0.00563021
0.406589
0.00722777
0.404309
0.0583475
0.386302
0.0107929
0.375264
-0.132195
0.393184
-0.0574435
0.425155
0.164297
0.461895
0.324511
0.48758
0.213288
0.487021
0.0244052
0.461461
-0.110902
0.430496
-0.193807
0.402844
-0.234712
-0.201387
0.422384
-0.00037067
-0.423565
0.421079
-0.000674676
0.419673
-0.000965657
0.418213
-0.00114972
0.416768
-0.00119894
0.415403
-0.00106371
0.41421
-0.000746512
0.413265
-0.000232053
0.412681
0.000468064
0.412547
0.00135535
0.412931
0.00239689
0.41397
0.00354119
0.415641
0.00467306
0.417972
0.00563617
0.420894
0.00630256
0.424083
0.00630754
0.427454
0.00557196
0.430346
0.00383061
0.432313
0.000616091
0.433166
-0.00306632
0.432078