/*--------------------------------*- C++ -*----------------------------------*\
| =========                 |                                                 |
| \\      /  F ield         | OpenFOAM: The Open Source CFD Toolbox           |
|  \\    /   O peration     | Version:  2312                                  |
|   \\  /    A nd           | Website:  www.openfoam.com                      |
|    \\/     M anipulation  |                                                 |
\*---------------------------------------------------------------------------*/
FoamFile
{
    version     2.0;
    format      ascii;
    arch        "LSB;label=32;scalar=64";
    class       surfaceScalarField;
    location    "35";
    object      phi;
}
// * * * * * * * * * * * * * * * * * * * * * * * * * * * * * * * * * * * * * //

dimensions      [0 3 -1 0 0 0 0];

oriented        oriented;

internalField   nonuniform List<scalar> 
1810
(
0.00524736
0.0263607
-0.0316081
0.0972995
-0.0758304
-0.0162217
0.235479
-0.173996
0.0358168
0.382742
-0.268896
0.121633
0.572013
-0.352986
0.163715
-0.440101
0.303296
0.708818
0.0505907
-0.02423
0.187596
-0.212835
0.312716
-0.299116
0.412319
-0.368499
0.48779
-0.428457
-0.478676
0.526364
0.106724
-0.130954
0.185851
-0.291962
0.224906
-0.338172
0.238841
-0.382434
0.249996
-0.439612
0.273385
-0.502065
-0.0382482
0.0291457
0.00910255
-0.0809005
0.0329226
0.00972968
-0.13012
0.0404235
0.00879562
-0.158497
0.0271002
0.00127752
-0.194796
0.0402881
-0.00398955
0.00281328
-0.194063
-0.0035461
-0.00375864
0.0329043
-0.0111643
0.0403283
-0.00795243
0.0372116
0.0253348
-0.006187
0.0761929
-0.01057
-0.0978912
0.176897
0.0012962
0.0254028
0.0984312
0.213877
0.367022
0.572427
-0.186328
0.0182428
-0.0259777
-0.190657
0.0297877
-0.0254585
-0.177338
0.00925276
-0.0225717
-0.157117
-0.0192901
-0.00093082
-0.12909
-0.116022
0.0879942
-0.0777506
-0.0854946
0.0341552
-0.00241377
0.144569
-0.219906
0.178135
0.247321
-0.427869
0.432067
0.00708978
-0.261022
0.604627
-0.256147
0.0835858
0.684142
-0.387607
0.308093
0.719423
-0.336984
0.301703
0.734935
-0.300988
0.285476
0.734082
-0.206869
0.207722
0.716941
-0.220578
0.237719
-0.13248
0.14844
0.145783
0.0493572
0.13654
0.0390304
0.1215
0.0242935
0.11097
-0.00876049
0.107048
-0.112099
0.121496
-0.0999427
0.222884
0.0431805
0.418486
0.0517188
0.594536
-0.16896
0.653079
-0.31469
0.644412
-0.378939
0.647803
-0.340375
0.67729
-0.330475
0.712851
-0.24243
0.723786
-0.231513
-0.12821
0.544593
0.0771913
0.51645
0.0671728
0.493644
0.0470996
0.468045
0.016839
0.443401
-0.0874554
0.43081
-0.0873513
0.485512
-0.0115223
0.589287
-0.0520554
0.630662
-0.210335
0.601851
-0.285879
0.570611
-0.3477
0.566507
-0.336271
0.586575
-0.350542
0.623531
-0.279386
0.664105
-0.272087
-0.157382
0.686659
0.0917039
-0.701172
0.675128
0.0787039
0.66984
0.0523875
0.659621
0.0270583
0.633191
-0.0610256
0.606947
-0.0611073
0.622017
-0.0265925
0.64395
-0.0739876
0.617841
-0.184227
0.578528
-0.246566
0.556289
-0.325461
0.549632
-0.329614
0.546873
-0.347783
0.546431
-0.278944
0.550162
-0.275818
-0.161395
0.846011
0.0876605
-0.841968
0.846597
0.0781186
0.844937
0.0540475
0.836664
0.0353309
0.801156
-0.0255179
0.782142
-0.0420926
0.791907
-0.0363584
0.781221
-0.0633009
0.747995
-0.151001
0.716152
-0.214723
0.688916
-0.298224
0.677308
-0.318007
0.679067
-0.349542
0.68696
-0.286837
0.692349
-0.281206
-0.164305
1.02517
0.0784636
-1.01598
1.0308
0.0724924
1.03175
0.0530972
1.02915
0.0379347
0.999967
0.00366051
0.977094
-0.0192198
0.971659
-0.0309232
0.958907
-0.0505486
0.934099
-0.126193
0.903916
-0.184541
0.874373
-0.268681
0.852826
-0.296459
0.84141
-0.338127
0.842797
-0.288223
0.851668
-0.290078
-0.171374
1.24872
0.0690481
-1.2393
1.25306
0.0681529
1.25162
0.0545354
1.2444
0.0451556
1.22899
0.0190724
1.20941
0.000356564
1.19797
-0.0194824
1.18451
-0.0370882
1.15767
-0.0993518
1.12412
-0.150994
1.09332
-0.237877
1.07679
-0.279932
1.07101
-0.332348
1.0727
-0.289912
1.07588
-0.293253
-0.175324
1.52537
0.0566371
-1.51296
1.53623
0.0572854
1.54114
0.0496273
1.54199
0.0443055
1.53238
0.0286841
1.51276
0.0199754
1.49719
-0.003912
1.4783
-0.0182004
1.45152
-0.0725664
1.42269
-0.122168
1.38989
-0.205072
1.36222
-0.252268
1.34623
-0.316353
1.34288
-0.28656
1.34349
-0.293863
-0.17662
1.86749
0.0448389
-1.85569
1.87617
0.0486067
1.88107
0.0447236
1.88049
0.0448828
1.87567
0.0335075
1.86593
0.0297116
1.85289
0.00912631
1.83771
-0.00301272
1.8115
-0.046356
1.77699
-0.0876599
1.74345
-0.171533
1.72064
-0.229455
1.70342
-0.299135
1.69655
-0.279692
1.69252
-0.289829
-0.17746
2.31334
0.0332739
-2.30178
2.32451
0.0374386
2.33372
0.0355099
2.34036
0.0382431
2.34268
0.0311851
2.3394
0.0329977
2.32982
0.0187086
2.31455
0.0122542
2.29123
-0.0230348
2.26204
-0.0584712
2.22399
-0.13348
2.18811
-0.193575
2.15796
-0.268986
2.1405
-0.26223
2.1248
-0.274129
-0.167024
2.90313
0.0233281
-2.89318
2.91306
0.0275086
2.92206
0.0265039
2.92925
0.031056
2.93363
0.0268034
2.93543
0.0311945
2.93186
0.0222845
2.92408
0.0200301
2.90446
-0.0034124
2.87387
-0.0278787
2.83108
-0.0906925
2.7929
-0.155393
2.75491
-0.231004
2.72739
-0.234711
2.69765
-0.244387
-0.150303
3.65487
0.0120404
-3.64358
3.66737
0.0150093
3.67935
0.0145235
3.69209
0.0183097
3.70246
0.0164367
3.71244
0.0212147
3.71694
0.0177827
3.71733
0.0196387
3.70513
0.00879177
3.68037
-0.00311581
3.63052
-0.0408488
3.57209
-0.0969576
3.50703
-0.165944
3.45153
-0.179216
3.39177
-0.184623
-0.109476
4.95319
-4.94115
4.9682
4.98272
5.00103
5.01747
5.03869
5.05647
5.07611
5.0849
5.08178
5.04093
4.94398
4.77803
4.59882
4.41419
0.607091
0.253853
-0.587559
0.663204
0.470251
0.67085
0.756044
0.237107
-0.739298
0.793344
0.43295
0.622227
0.934089
0.214002
-0.910984
0.968614
0.398425
0.574866
1.14755
0.186409
-1.11996
1.18816
0.357818
0.523718
1.41121
0.158347
-1.38315
1.4548
0.314226
0.465562
1.74746
0.131055
-1.72017
1.79197
0.269718
0.401845
2.17928
0.103084
-2.15131
2.22974
0.219256
0.329808
2.7542
0.0740441
-2.72516
2.81096
0.162502
0.247586
3.46648
0.0404785
-3.43291
3.5376
0.0913803
0.141604
4.70817
-4.66769
4.79955
0.262099
0.453937
-0.396827
-0.319209
0.181088
0.412012
-0.331
0.114889
0.349839
-0.28364
0.0649316
0.320905
-0.270947
0.0207796
0.298816
-0.254664
0.231998
-0.211218
0.0744473
0.501454
-0.121965
0.0393839
0.447075
0.00328582
0.385937
-0.0139299
0.33812
-0.026135
0.311021
0.205863
-0.104882
0.104272
-0.0974196
-0.0939167
-0.0939681
-0.0749091
0.492677
0.150541
-0.625761
-0.0174566
0.373655
0.13528
-0.0162574
0.259974
0.126729
-0.0130483
0.161268
0.110677
-0.0119712
0.0714977
0.10235
-0.0125804
0.0830563
-0.0115585
0.4529
0.276282
-0.578642
0.357143
0.231036
0.263958
0.219915
0.167034
0.207601
0.0794376
0.189946
0.162494
0.340478
-0.461022
0.240514
0.176788
0.113442
0.0487245
0.71546
0.562318
-0.581418
0.695208
0.36946
-0.349209
0.722369
0.271553
-0.298713
0.720639
0.181042
-0.179312
0.73598
0.112829
-0.12817
0.717154
0.0913762
-0.0725502
0.710084
0.0575166
-0.0504466
0.68195
0.0643398
-0.0362062
0.659832
0.0484306
-0.0263123
0.0562407
-0.0221698
0.707088
0.551588
0.669185
0.407364
0.683622
0.257116
0.677962
0.186702
0.684508
0.106284
0.671579
0.104305
0.663683
0.0654131
0.638416
0.0896064
0.615204
0.0716427
0.0928032
0.661864
0.586082
0.632375
0.436853
0.614157
0.275334
0.605054
0.195805
0.601271
0.110067
0.575799
0.129777
0.556883
0.0843287
0.522351
0.124138
0.495033
0.0989608
0.126814
0.547881
0.590861
0.537944
0.446789
0.551552
0.261727
0.545826
0.20153
0.559711
0.0961818
0.546835
0.142653
0.540878
0.0902851
0.531316
0.1337
0.531479
0.0987976
0.117768
0.540526
0.689698
0.587215
0.660909
0.475579
0.687358
0.235278
0.680952
0.207937
0.690049
0.0870845
0.685937
0.146765
0.678454
0.0977683
0.683169
0.128985
0.681547
0.10042
0.106528
0.692786
0.864361
0.574497
0.846039
0.493901
0.859704
0.221612
0.854441
0.2132
0.849745
0.09178
0.85101
0.145501
0.852059
0.0967197
0.863362
0.117681
0.8708
0.0929822
0.0954747
0.881854
1.07084
0.560857
1.07817
0.486569
1.08136
0.218429
1.07419
0.220363
1.06214
0.103837
1.06392
0.143718
1.06929
0.0913508
1.08129
0.105678
1.0941
0.0801694
0.0813204
1.10826
1.3253
0.547925
1.34991
0.461966
1.3483
0.220038
1.35132
0.217338
1.33945
0.115711
1.34757
0.1356
1.35057
0.0883511
1.36297
0.0932743
1.37432
0.0688196
0.066572
1.38907
1.64328
0.533776
1.67952
0.425724
1.67972
0.219841
1.69374
0.203314
1.69054
0.118916
1.70419
0.121949
1.7105
0.0820461
1.72336
0.0804135
1.7338
0.0583764
0.0537296
1.74664
2.04421
0.511913
2.09577
0.374165
2.10415
0.211459
2.13017
0.177302
2.13699
0.112095
2.15625
0.10269
2.16774
0.0705541
2.18351
0.0646389
2.19513
0.0467588
0.0412157
2.20765
2.5617
0.460689
2.63088
0.304985
2.6619
0.180436
2.69963
0.139571
2.72308
0.0886509
2.74831
0.0774562
2.76681
0.0520522
2.7844
0.0470482
2.79791
0.0332523
0.0289873
2.81014
3.21388
0.363233
3.30312
0.21574
3.35593
0.127627
3.40731
0.0881861
3.44204
0.0539291
3.47539
0.0440985
3.49904
0.0284052
3.52036
0.0257304
3.53615
0.0174646
0.0152986
3.54984
4.23185
4.44759
4.57522
4.6634
4.71733
4.76143
4.78984
4.81557
4.83303
4.84833
0.538354
-0.317037
0.562556
-0.146166
0.0792694
0.704553
-0.328804
0.71435
-0.155963
0.0543218
0.887415
-0.334365
0.888463
-0.157012
0.0318012
1.10222
-0.328329
1.10317
-0.15796
0.0150151
1.37141
-0.310669
1.36971
-0.156264
0.00158135
1.71842
-0.282451
1.71013
-0.147973
-0.00845828
2.16647
-0.241277
2.14796
-0.129459
-0.0118082
2.75246
-0.183593
2.7235
-0.100507
-0.013466
3.47547
-0.109227
3.43608
-0.0611144
-0.0103
4.7391
4.67799
0.0157608
0.021509
-0.0372697
-0.0658163
0.0815771
0.103711
-0.169527
-0.135125
0.142888
0.0137458
-0.25681
0.203262
0.148362
-0.301461
-0.233171
0.289722
0.0863366
-0.325063
0.295154
0.160687
-0.337387
-0.326236
0.426531
0.189428
-0.38759
0.356508
0.16692
-0.393824
-0.40946
0.576533
0.259458
-0.434325
0.381373
0.175047
-0.442452
-0.465782
0.387036
0.655279
-0.476996
0.392587
0.197373
-0.499322
0.0431206
-0.034018
0.0398745
0.00324604
0.0026048
0.0463258
-0.0706142
0.0393451
0.0102267
0.0556958
0.0496621
-0.111481
0.0208444
0.0390445
0.162877
0.0199855
-0.130189
-0.0475369
0.106567
0.304768
0.016603
-0.150781
-0.0776726
0.200842
0.486553
-0.0305192
-0.123808
-0.192352
0.362675
0.681237
-0.0284442
-0.121342
-0.00898733
0.343218
0.666469
0.00578062
-0.0238061
-0.122994
-0.0216587
0.341071
0.657071
-0.0122614
-0.0324844
-0.113081
-0.0272225
0.335809
0.646003
-0.0161541
-0.0333707
-0.0806415
-0.0548078
0.357246
0.643078
-0.0518828
0.0139405
-0.00658774
-0.0331926
0.404379
0.660516
-0.0506309
-0.0477233
0.0752908
-0.107002
0.463658
0.65972
-0.106206
-0.237743
0.0931279
-0.273322
0.499237
0.640304
-0.253905
-0.461577
0.126836
-0.393063
0.430722
0.63992
-0.392679
-0.381381
0.247195
-0.267748
0.317089
0.586456
-0.214284
-0.0972364
0.428017
-0.112617
0.33247
0.493644
-0.0198049
0.187585
0.548524
0.109869
0.410186
0.473367
0.130146
0.253096
0.597131
0.177564
0.485718
0.524193
0.126737
0.261272
0.621334
0.197722
0.549268
0.583874
0.138041
0.193926
0.63513
0.145835
0.597359
0.628644
0.101065
0.221062
0.651786
0.18132
0.637102
0.658382
0.151582
0.139119
0.116657
0.0959734
0.0147751
0.700702
-0.709696
0.0160014
0.818845
-0.820071
0.0111403
0.98665
-0.981788
0.00523064
1.18519
-1.17928
-0.00181866
1.42324
-1.41619
-0.00661539
1.70636
-1.70157
-0.0095135
2.03848
-2.03558
-0.00899769
2.41133
-2.41185
-0.00556123
2.86843
-2.87187
2.83643
-2.84199
-0.00667116
0.695111
-0.00539931
0.817573
-0.00414993
0.9854
-0.00512879
1.18617
-0.00908976
1.4272
-0.012036
1.70931
-0.0134945
2.03994
-0.0109981
2.40883
-0.00531865
2.86275
2.83111
-0.0148025
0.69376
-0.0166062
0.819377
-0.0171379
0.985932
-0.0176827
1.18671
-0.0171524
1.42667
-0.0159743
1.70813
-0.014157
2.03812
-0.00902177
2.4037
-0.000755258
2.85449
2.83036
-0.0476238
0.689501
-0.0470099
0.818763
-0.043844
0.982766
-0.0397651
1.18264
-0.0332277
1.42013
-0.0270179
1.70192
-0.021304
2.03241
-0.012012
2.39441
0.000324285
2.84215
2.83068
-0.0575656
0.696435
-0.0612206
0.822418
-0.0614492
0.982995
-0.0508516
1.17204
-0.0406402
1.40992
-0.0298482
1.69113
-0.0194738
2.02203
-0.00513608
2.38007
0.0113674
2.82565
2.84205
-0.1176
0.70783
-0.108816
0.813634
-0.0919278
0.966106
-0.0751762
1.15529
-0.0581238
1.39287
-0.0415731
1.67458
-0.0255944
2.00606
-0.00592274
2.3604
0.0143826
2.80534
2.85643
-0.207915
0.661839
-0.166125
0.771845
-0.123657
0.923638
-0.0903766
1.12201
-0.0619401
1.36443
-0.0356577
1.6483
-0.01337
1.98377
0.0113321
2.3357
0.0338841
2.78279
2.89032
-0.304255
0.573415
-0.218968
0.686558
-0.162724
0.867394
-0.109881
1.06916
-0.0739024
1.32845
-0.0382097
1.6126
-0.0108879
1.95645
0.017635
2.30717
0.0394361
2.76099
2.92975
-0.180429
0.53956
-0.137048
0.643177
-0.102845
0.833191
-0.0660733
1.03239
-0.0346496
1.29703
-0.000545426
1.5785
0.0290467
1.92685
0.0552544
2.28097
0.0711959
2.74505
3.00095
0.0034282
0.516327
-0.0150878
0.661693
-0.012878
0.830981
-0.00991097
1.02942
0.0109853
1.27613
0.0312245
1.55826
0.0543859
1.90369
0.0710986
2.26425
0.0745743
2.74157
3.07552
0.131753
0.51472
0.109195
0.684251
0.0946622
0.845514
0.0888426
1.03524
0.0955515
1.26942
0.105065
1.54875
0.116603
1.89215
0.116403
2.26445
0.105147
2.75283
3.18067
0.113479
0.527978
0.110419
0.687311
0.113286
0.842647
0.115765
1.03276
0.122326
1.26286
0.126827
1.54425
0.130762
1.88822
0.120691
2.27452
0.0978698
2.77565
3.27854
0.127841
0.538178
0.136415
0.678737
0.14702
0.832042
0.155968
1.02382
0.161441
1.25739
0.16249
1.5432
0.158843
1.89187
0.13652
2.29685
0.0998404
2.81233
3.37838
0.100187
0.539057
0.109928
0.668995
0.119144
0.822827
0.126805
1.01616
0.131658
1.25253
0.131837
1.54302
0.127625
1.89608
0.108403
2.31607
0.0766388
2.84409
3.45502
0.151502
0.539137
0.153749
0.666748
0.1546
0.821976
0.153343
1.01741
0.151495
1.25438
0.143851
1.55066
0.1342
1.90573
0.107557
2.34271
0.0729149
2.87873
3.52793
0.0937936
0.0914425
0.0872492
0.0830061
0.0768461
0.0712757
0.0620552
0.0497592
0.0318818
0.183451
0.609899
-0.595977
0.154811
0.745224
-0.716584
0.125908
0.899658
-0.870755
0.0996253
1.08934
-1.06306
0.0774238
1.31974
-1.29753
0.0563662
1.5965
-1.57544
0.0369365
1.92432
-1.90489
0.0205844
2.28744
-2.27108
0.00357291
2.73113
-2.71412
2.71877
-2.7152
0.359945
0.642541
0.338129
0.767039
0.307102
0.930686
0.26872
1.12773
0.229761
1.35869
0.188669
1.63759
0.145259
1.96773
0.0978367
2.33486
0.0440352
2.78493
2.76281
0.588124
0.535092
0.483989
0.432435
0.374941
0.310968
0.243114
0.166125
0.0791896
0.406104
0.278673
-0.334665
-0.350112
0.475606
0.139748
-0.20925
-0.035309
0.0115937
0.378928
0.218292
-0.318547
0.428081
0.0905947
-0.0496799
0.344052
0.145399
-0.271159
0.385248
0.0493985
-0.0582552
0.303433
0.0794032
-0.237437
0.336662
0.0161691
-0.0589802
0.282279
0.0300764
-0.232952
0.31094
-0.0124922
-0.0495012
0.23152
-0.201444
0.219028
0.113484
0.492133
-0.623074
0.238592
0.451449
-0.576557
0.383374
-0.479446
0.0998617
0.376014
0.211133
0.340177
0.27596
0.0920962
0.270869
0.178172
0.254102
0.182972
0.0887083
0.17019
0.172441
0.170369
0.117976
0.0818178
0.0757915
0.171695
0.0804918
0.0567192
0.064233
0.144725
-0.600671
0.715611
-0.604489
0.700177
0.691765
-0.599896
-0.335248
0.70165
-0.337354
0.702282
0.695682
-0.341271
-0.328113
0.73105
-0.341719
0.715888
0.664462
-0.310498
-0.178261
0.729998
-0.168479
0.706106
0.638124
-0.142142
-0.141334
0.743162
-0.142631
0.707403
0.606931
-0.111437
-0.0501371
0.720749
-0.0227866
0.680053
0.57774
0.00640428
-0.0411322
0.711435
-0.0256955
0.664616
0.555997
-0.0039529
-0.00522657
0.680455
0.0246203
0.634769
0.525892
0.0547257
-0.00372406
0.657867
0.0207719
0.610273
0.508371
0.0382923
0.012623
0.0463394
0.0752646
-0.615279
0.568043
-0.628107
0.69888
-0.628652
0.852188
-0.621012
1.04956
-0.607461
1.29882
-0.586939
1.60861
-0.551439
1.98685
-0.489825
2.44886
-0.388214
3.01481
3.4804
-0.333442
0.560214
-0.316287
0.681725
-0.306312
0.842213
-0.302508
1.04576
-0.300227
1.29654
-0.30063
1.60901
-0.290473
1.97669
-0.268503
2.42689
-0.217004
2.96331
3.2634
-0.294808
0.544524
-0.288336
0.675253
-0.278844
0.832721
-0.263119
1.03003
-0.242397
1.27582
-0.218259
1.58488
-0.193122
1.95156
-0.160853
2.39462
-0.116393
2.91885
3.14701
-0.11234
0.514722
-0.086776
0.649689
-0.0829149
0.82886
-0.0874953
1.03461
-0.0973088
1.28563
-0.103606
1.59117
-0.106375
1.95432
-0.0953587
2.38361
-0.0687336
2.89223
3.07827
-0.107868
0.511153
-0.105177
0.646999
-0.0943911
0.818074
-0.0846336
1.02485
-0.0772255
1.27822
-0.0720729
1.58602
-0.0692376
1.95149
-0.061486
2.37586
-0.0473055
2.87805
3.03097
0.00960229
0.507955
0.00264888
0.653952
-0.00472229
0.825445
-0.0128035
1.03293
-0.0224052
1.28783
-0.0331495
1.59677
-0.040834
1.95917
-0.0411815
2.3762
-0.034244
2.87111
2.99672
-0.00830746
0.51231
-0.0141981
0.659843
-0.0198348
0.831082
-0.0213626
1.03446
-0.0204321
1.28689
-0.0231921
1.59953
-0.0280757
1.96406
-0.0290311
2.37716
-0.0270419
2.86912
2.96968
0.0543244
0.512711
0.0405469
0.67362
0.0270675
0.844561
0.0149506
1.04658
0.0026582
1.29919
-0.00797145
1.61015
-0.0172831
1.97337
-0.0212805
2.38116
-0.0212217
2.86906
2.94846
0.0281683
0.522835
0.0251748
0.676614
0.0192773
0.850459
0.0103054
1.05555
0.00102813
1.30846
-0.00602553
1.61721
-0.0128805
1.98022
-0.0156146
2.38389
-0.016713
2.87016
2.93175
0.0644431
0.533657
0.0476226
0.693434
0.0362907
0.861791
0.0237769
1.06806
0.0104487
1.32179
-0.000133609
1.62779
-0.00853877
1.98863
-0.0118906
2.38724
-0.0132205
2.87149
2.91853
-0.374316
0.557861
-0.383306
0.702424
-0.378546
0.857031
-0.366992
1.05651
-0.343903
1.2987
-0.30725
1.59114
-0.255596
1.93698
-0.190094
2.32174
-0.103243
2.78464
2.81528
-0.225444
0.574054
-0.219199
0.69618
-0.217425
0.855256
-0.216638
1.05572
-0.209192
1.29126
-0.192002
1.57395
-0.1636
1.90857
-0.12387
2.28201
-0.0694536
2.73022
2.74583
-0.0103287
-0.030733
-0.0462319
-0.0535711
-0.0598474
-0.0613414
-0.0576565
-0.0467299
-0.030632
)
;

boundaryField
{
    outlet
    {
        type            calculated;
        value           nonuniform List<scalar> 
26
(
0.700981
0.719516
0.693277
0.554174
0.695259
0.858737
1.07983
1.34478
1.69336
2.11436
2.68093
3.35094
4.30472
0.661107
0.659564
0.679065
0.541317
0.6691
0.826169
1.02166
1.26054
1.55623
1.91495
2.35501
2.89661
3.55982
)
;
    }
    upperWall
    {
        type            symmetryPlane;
        value           uniform 0;
    }
    lowerWall
    {
        type            symmetryPlane;
        value           uniform 0;
    }
    inlet
    {
        type            calculated;
        value           nonuniform List<scalar> 
26
(
-0.696359
-0.696359
-0.696359
-0.55266
-0.686053
-0.851642
-1.0572
-1.31237
-1.62913
-2.02235
-2.51048
-3.11642
-3.86862
-0.696359
-0.696359
-0.696359
-0.55266
-0.686053
-0.851642
-1.0572
-1.31237
-1.62913
-2.02235
-2.51048
-3.11642
-3.86862
)
;
    }
    cylinder
    {
        type            calculated;
        value           uniform 0;
    }
    frontAndBack
    {
        type            empty;
        value           nonuniform List<scalar> 0();
    }
}


// ************************************************************************* //
