/*--------------------------------*- C++ -*----------------------------------*\
| =========                 |                                                 |
| \\      /  F ield         | OpenFOAM: The Open Source CFD Toolbox           |
|  \\    /   O peration     | Version:  2512                                  |
|   \\  /    A nd           | Website:  www.openfoam.com                      |
|    \\/     M anipulation  |                                                 |
\*---------------------------------------------------------------------------*/
FoamFile
{
    version     2.0;
    format      ascii;
    arch        "LSB;label=32;scalar=64";
    class       surfaceScalarField;
    location    "90.25";
    object      phi;
}
// * * * * * * * * * * * * * * * * * * * * * * * * * * * * * * * * * * * * * //

dimensions      [0 3 -1 0 0 0 0];

oriented        oriented;

internalField   nonuniform List<scalar> 
26232
(
0.000277959
0.00116968
-0.00144764
0.000937729
0.00187426
-0.00253403
0.00207419
0.00110517
-0.00224163
0.00393468
-0.00105923
-0.000801265
0.00684445
-0.00463625
0.00172648
0.0111418
-0.0097023
0.00540495
0.0171169
-0.0163142
0.0103391
0.0249131
-0.0243875
0.0165912
0.0344406
-0.0336234
0.024096
0.0453417
-0.0435164
0.0326153
0.057037
-0.0534409
0.0417456
0.0688348
-0.062775
0.0509772
0.080068
-0.0710154
0.0597822
0.0902155
-0.0778521
0.0677045
0.0989786
-0.0831898
0.0744267
0.106305
-0.087128
0.0798012
0.112358
-0.0898979
0.0838451
0.117452
-0.0918054
0.0867115
0.121982
-0.0931454
0.0886158
0.126326
-0.094204
0.0898599
0.130811
-0.0951261
0.0906409
0.135744
-0.0961476
0.0912145
0.141051
-0.0972291
0.0919221
-0.0983851
0.0924766
0.14696
0.000265824
0.000903855
0.00109235
0.00104773
0.00266636
-0.000468836
0.00530512
-0.00369798
0.00938509
-0.00871622
0.0152626
-0.0155798
0.0231241
-0.0241757
0.0328539
-0.0341174
0.043987
-0.0447565
0.0557862
-0.0553156
0.0674105
-0.0650653
0.0781044
-0.0734689
0.0873463
-0.0802573
0.0949222
-0.085428
0.100921
-0.0891888
0.105661
-0.0918675
0.109583
-0.0938197
0.11314
-0.0953631
0.116717
-0.0967224
0.120585
-0.0980719
0.124906
-0.0994469
0.129758
-0.100999
0.135084
-0.102555
-0.104435
0.141134
0.000249335
0.00065452
0.001251
4.60698e-05
0.00333746
-0.0025553
0.00690818
-0.0072687
0.0123777
-0.0141858
0.0199868
-0.0231889
0.0296114
-0.0338003
0.0406876
-0.0451935
0.052326
-0.0563949
0.0635536
-0.0665432
0.0735626
-0.0750743
0.0818783
-0.0817846
0.0884102
-0.0867891
0.0933956
-0.0904134
0.0972719
-0.0930652
0.10053
-0.0951255
0.103597
-0.0968871
0.106769
-0.0985351
0.110219
-0.100173
0.114001
-0.101853
0.118139
-0.103585
0.122583
-0.105444
0.127349
-0.107321
-0.109484
0.132398
0.000277622
0.000376898
0.00156443
-0.00124074
0.00432461
-0.00531547
0.00903983
-0.0119839
0.016035
-0.0211809
0.0252255
-0.0323794
0.0359856
-0.0445604
0.047291
-0.0564989
0.0580484
-0.0671523
0.0674137
-0.0759085
0.0749712
-0.0826318
0.0807442
-0.0875576
0.0850763
-0.0911212
0.0884536
-0.0937907
0.0913421
-0.0959537
0.0940911
-0.0978745
0.096908
-0.099704
0.0998934
-0.10152
0.103084
-0.103363
0.106494
-0.105263
0.110145
-0.107236
0.114049
-0.109348
0.118239
-0.111511
-0.113973
0.122728
0.000380158
-3.25954e-06
0.0020978
-0.00295838
0.00572812
-0.00894579
0.011723
-0.0179788
0.0201195
-0.0295775
0.0303073
-0.0425672
0.0411576
-0.0554107
0.0514503
-0.0667917
0.0602851
-0.0759871
0.0672764
-0.0828998
0.0725187
-0.087874
0.076408
-0.0914469
0.0794306
-0.0941439
0.0820063
-0.0963663
0.0844225
-0.0983699
0.0868433
-0.100295
0.0893549
-0.102216
0.0920057
-0.104171
0.0948332
-0.106191
0.0978656
-0.108296
0.101134
-0.110504
0.104629
-0.112843
0.10837
-0.115252
-0.117934
0.112331
0.000554915
-0.000558175
0.00284815
-0.00525161
0.00747773
-0.0135754
0.0146926
-0.0251937
0.0240257
-0.0389106
0.0343095
-0.052851
0.044183
-0.0652841
0.0526367
-0.0752454
0.0592556
-0.0826059
0.0641507
-0.0877949
0.0677314
-0.0914548
0.0704713
-0.0941868
0.0727601
-0.0964326
0.0748591
-0.0984654
0.0769225
-0.100433
0.0790386
-0.102411
0.0812602
-0.104437
0.0836214
-0.106532
0.0861419
-0.108711
0.0888301
-0.110984
0.0916878
-0.113362
0.0946977
-0.115853
0.0978872
-0.118442
-0.12124
0.101193
0.000787361
-0.00134554
0.00375266
-0.00821691
0.00938394
-0.0192067
0.0175124
-0.0333221
0.0270667
-0.0484649
0.0365499
-0.0623343
0.0447684
-0.0735026
0.0511919
-0.0816689
0.0558871
-0.0873012
0.0592506
-0.0911584
0.061749
-0.0939532
0.0637672
-0.0962049
0.0655651
-0.0982305
0.0672978
-0.100198
0.0690517
-0.102187
0.0708729
-0.104233
0.0727854
-0.10635
0.074802
-0.108549
0.0769301
-0.110839
0.079177
-0.113231
0.0815481
-0.115733
0.0840447
-0.11835
0.0866798
-0.121077
-0.123972
0.0894116
0.00105911
-0.00240464
0.0047241
-0.0118819
0.0112006
-0.0256831
0.0197308
-0.0418523
0.0287652
-0.0574992
0.0368523
-0.0704214
0.0432372
-0.0798874
0.0478666
-0.0862984
0.0510977
-0.0905322
0.0533983
-0.093459
0.0551683
-0.0957232
0.0566813
-0.097718
0.0580984
-0.0996476
0.0595039
-0.101604
0.0609395
-0.103623
0.0624264
-0.105719
0.0639788
-0.107902
0.0656089
-0.110179
0.0673288
-0.112559
0.0691468
-0.115049
0.0710654
-0.117651
0.0730784
-0.120363
0.0751871
-0.123186
-0.126131
0.0773462
0.00135029
-0.00375493
0.00566179
-0.0161934
0.0126751
-0.0326964
0.0210233
-0.0502005
0.0289884
-0.0654643
0.0354616
-0.0768947
0.0401632
-0.084589
0.0433624
-0.0894976
0.0455243
-0.0926941
0.0470766
-0.0950113
0.0483195
-0.0969661
0.0494284
-0.0988269
0.050493
-0.100712
0.0515563
-0.102667
0.052641
-0.104707
0.0537624
-0.106841
0.0549327
-0.109072
0.0561618
-0.111408
0.0574559
-0.113853
0.0588175
-0.116411
0.060245
-0.119079
0.0617377
-0.121856
0.063295
-0.124743
-0.127733
0.0648967
0.00163701
-0.00539194
0.00645703
-0.0210134
0.0136043
-0.0398437
0.0212698
-0.0578661
0.0278876
-0.0720821
0.0327972
-0.0818042
0.0360878
-0.0878796
0.0381913
-0.0916012
0.0395677
-0.0940705
0.0405583
-0.0960019
0.0413673
-0.097775
0.042099
-0.0995586
0.0428028
-0.101416
0.0435032
-0.103367
0.0442149
-0.105419
0.0449481
-0.107574
0.0457113
-0.109836
0.0465116
-0.112208
0.0473549
-0.114697
0.0482449
-0.117301
0.0491832
-0.120017
0.0501699
-0.122842
0.0512018
-0.125775
-0.128803
0.0522718
0.00189239
-0.00728433
0.00701075
-0.0261318
0.0138834
-0.0467163
0.020538
-0.0645207
0.0257527
-0.0772969
0.0292769
-0.0853284
0.0314328
-0.0900356
0.0326978
-0.0928661
0.0334677
-0.0948404
0.0339926
-0.0965267
0.0344028
-0.0981853
0.0347593
-0.0999151
0.0350895
-0.101746
0.035408
-0.103686
0.0357242
-0.105735
0.0360465
-0.107896
0.0363825
-0.110172
0.0367393
-0.112565
0.0371221
-0.115079
0.0375336
-0.117712
0.0379739
-0.120457
0.0384414
-0.12331
0.0389316
-0.126265
-0.129316
0.0394449
0.00209386
-0.00937819
0.00726155
-0.0312995
0.013526
-0.0529808
0.0190139
-0.0700085
0.0229034
-0.0811863
0.0252541
-0.0876792
0.0265043
-0.0912857
0.0271043
-0.0934661
0.0273684
-0.0951046
0.0274696
-0.0966279
0.0274883
-0.098204
0.0274591
-0.0998859
0.0273981
-0.101685
0.0273151
-0.103603
0.0272178
-0.105638
0.0271129
-0.107791
0.0270065
-0.110065
0.0269038
-0.112463
0.0268087
-0.114984
0.0267244
-0.117628
0.0266537
-0.120387
0.0265977
-0.123254
0.0265537
-0.126221
0.026528
-0.129291
-0.000180903
-0.00477395
0.00495485
-0.000919229
-0.0123532
0.0130915
-0.00232915
-0.0177356
0.0191455
-0.00433403
-0.0212529
0.0232578
-0.00676496
-0.0237246
0.0261555
-0.00944713
-0.0259287
0.0286108
-0.0122475
-0.02831
0.0311104
-0.0150662
-0.0309877
0.0338064
-0.0178067
-0.0338895
0.03663
-0.020353
-0.0368631
0.0394094
-0.0225618
-0.0397231
0.0419319
-0.0242663
-0.0422631
0.0439676
-0.0252867
-0.0442617
0.0452821
-0.0254433
-0.0454935
0.0456501
-0.0245745
-0.0457447
0.044876
-0.0225645
-0.0448267
0.0428166
-0.0193397
-0.0425918
0.0393671
-0.0148931
-0.0389413
0.0344946
-0.00928597
-0.0338273
0.0282202
-0.00263291
-0.0272387
0.0205856
0.00481801
-0.0191339
0.0116829
0.0129219
-0.00955285
0.00144896
0.0214565
0.0014409
-0.00997554
0.0137426
0.0306937
-0.0229798
-0.000536627
-0.00423732
-0.00195498
-0.0109348
-0.00413532
-0.0155552
-0.00691086
-0.0184774
-0.0101149
-0.0205205
-0.0136248
-0.0224188
-0.0173644
-0.0245705
-0.0212768
-0.0270753
-0.0252936
-0.0298726
-0.0293166
-0.0328401
-0.0332116
-0.0358281
-0.0368109
-0.0386638
-0.0399201
-0.0411525
-0.0423301
-0.0430836
-0.0438337
-0.0442411
-0.0442436
-0.0444168
-0.0434106
-0.0434248
-0.0412424
-0.0411096
-0.0377159
-0.0373538
-0.03288
-0.0320746
-0.0267867
-0.0252271
-0.0195454
-0.0167942
-0.0114245
-0.00668002
0.00475838
-0.00244029
-0.000827527
-0.0034098
-0.0027648
-0.00899757
-0.00549632
-0.0128237
-0.00878801
-0.0151857
-0.0124875
-0.0168211
-0.016518
-0.0183883
-0.0208483
-0.0202402
-0.0254561
-0.0224675
-0.0303006
-0.0250281
-0.0353095
-0.0278312
-0.0403736
-0.030764
-0.0453463
-0.0336911
-0.0500463
-0.0364525
-0.054264
-0.0388659
-0.0577724
-0.0407327
-0.0603413
-0.0418479
-0.0617545
-0.0420115
-0.0618267
-0.0410374
-0.0604199
-0.0387606
-0.05745
-0.0350446
-0.0528828
-0.0297942
-0.0467343
-0.0229427
-0.0390437
-0.0143707
-0.00386068
-0.0304246
-0.00101957
-0.00239022
-0.00327984
-0.0067373
-0.00632345
-0.00978012
-0.00987001
-0.0116391
-0.0137772
-0.0129138
-0.0179953
-0.0141702
-0.0225152
-0.0157203
-0.0273294
-0.0176534
-0.0324112
-0.0199463
-0.037708
-0.0225344
-0.0431389
-0.025333
-0.048594
-0.0282361
-0.0539335
-0.031113
-0.0589893
-0.03381
-0.0635673
-0.0361547
-0.0674523
-0.0379629
-0.0704166
-0.0390473
-0.0722298
-0.0392242
-0.0726702
-0.0383201
-0.0715413
-0.0361735
-0.0687042
-0.0326313
-0.0640903
-0.0275566
-0.0576544
-0.0208066
-0.012259
-0.0492561
-0.00109453
-0.00129569
-0.00346939
-0.00436244
-0.00658811
-0.0066614
-0.0101405
-0.00808668
-0.0139855
-0.00906886
-0.0180816
-0.0100741
-0.0224217
-0.0113801
-0.0269928
-0.0130823
-0.03176
-0.015179
-0.0366653
-0.0176292
-0.0416301
-0.0203682
-0.0465593
-0.0233069
-0.0513445
-0.0263278
-0.0558665
-0.029288
-0.0599965
-0.0320248
-0.0635925
-0.0343669
-0.0664965
-0.0361432
-0.0685323
-0.0371884
-0.0694998
-0.0373526
-0.0691657
-0.0365075
-0.067281
-0.034516
-0.0636602
-0.0311774
-0.0581933
-0.0262735
-0.0204343
-0.050018
-0.00104946
-0.000246229
-0.00333366
-0.00207825
-0.00630031
-0.00369474
-0.00962249
-0.0047645
-0.0131503
-0.005541
-0.0168348
-0.00638968
-0.0206564
-0.00755846
-0.0245839
-0.0091548
-0.0285606
-0.0112024
-0.0325051
-0.0136846
-0.0363182
-0.0165552
-0.0398898
-0.0197352
-0.0431079
-0.0231097
-0.0458664
-0.0265295
-0.0480709
-0.0298202
-0.0496386
-0.0327993
-0.0504928
-0.035289
-0.0505625
-0.0371188
-0.0497566
-0.0381585
-0.0479548
-0.0383093
-0.045005
-0.0374657
-0.0402322
-0.0359503
-0.034303
-0.0322027
-0.0294315
-0.0253058
-0.000897352
0.000651123
-0.00289972
-7.58864e-05
-0.00550156
-0.0010929
-0.0083674
-0.00189866
-0.0113306
-0.0025778
-0.014317
-0.00340326
-0.0172808
-0.00459464
-0.0201625
-0.00627311
-0.0228762
-0.00848881
-0.0253118
-0.0112489
-0.0273452
-0.0145218
-0.0288485
-0.0182319
-0.0297022
-0.022256
-0.0298066
-0.0264252
-0.0290886
-0.0305381
-0.0275038
-0.0343841
-0.0250066
-0.0377861
-0.0215975
-0.0405279
-0.0172787
-0.0424773
-0.0119568
-0.0436312
-0.00570666
-0.0437159
0.00163265
-0.0432896
0.0108121
-0.0413821
-0.0403105
0.021691
-0.000661011
0.00131213
-0.00223065
0.00149375
-0.0042795
0.000955946
-0.00647923
0.000301067
-0.00864879
-0.000408231
-0.0106657
-0.00138637
-0.0124445
-0.00281583
-0.0138883
-0.00482926
-0.0148775
-0.00749961
-0.0152738
-0.0108527
-0.0149346
-0.0148611
-0.013729
-0.0194374
-0.011551
-0.024434
-0.00832871
-0.0296475
-0.0040338
-0.0348331
0.00132329
-0.0397412
0.00764585
-0.0441087
0.0149058
-0.0477879
0.0230777
-0.0506492
0.0321418
-0.0526953
0.0420485
-0.0536226
0.0532551
-0.0544963
0.0650294
-0.0531563
-0.054497
0.0792159
-0.000378284
0.00169042
-0.00140479
0.00252026
-0.0027713
0.00232245
-0.00417894
0.00170871
-0.00537957
0.000792406
-0.00623025
-0.000535696
-0.00659753
-0.00244855
-0.00634269
-0.0050841
-0.00531984
-0.00852246
-0.00337183
-0.0128007
-0.000358894
-0.017874
0.00382167
-0.023618
0.00921648
-0.0298288
0.0158055
-0.0362365
0.0235106
-0.0425383
0.0322083
-0.0484388
0.0417734
-0.0536738
0.0520558
-0.0580703
0.0629548
-0.0615483
0.0743562
-0.0640967
0.0863998
-0.0656662
0.0988855
-0.0669819
0.112259
-0.0665296
-0.0682603
0.126022
-0.000106282
0.0017967
-0.000570912
0.00298489
-0.00120314
0.00295469
-0.00172951
0.00223508
-0.00190456
0.000967457
-0.00151956
-0.000920699
-0.000398649
-0.00356946
0.00163078
-0.00711353
0.0047484
-0.0116401
0.00909224
-0.0171445
0.0147531
-0.0235348
0.0217458
-0.0306107
0.0299911
-0.0380742
0.0393202
-0.0455655
0.0494968
-0.0527148
0.0602579
-0.0591999
0.0713551
-0.0647709
0.0825929
-0.0693081
0.0938296
-0.072785
0.104966
-0.0752335
0.116199
-0.0768992
0.127082
-0.0778641
0.138749
-0.0781969
-0.079204
0.149693
0.000110226
0.00168647
0.00014587
0.00294924
0.000206494
0.00289406
0.000532865
0.00190871
0.0013815
0.000118821
0.00300534
-0.00254454
0.00562522
-0.00618934
0.00944846
-0.0109368
0.0146393
-0.016831
0.0212939
-0.0237991
0.02939
-0.0316308
0.0387659
-0.0399866
0.0491327
-0.0484409
0.0601155
-0.0565483
0.0713134
-0.0639127
0.0823585
-0.0702451
0.0929701
-0.0753825
0.102982
-0.0793203
0.112322
-0.0821247
0.121082
-0.0839941
0.129359
-0.0851752
0.137217
-0.085723
0.145241
-0.08622
-0.0862853
0.152322
0.000238836
0.000654048
0.00130648
0.00241392
0.00425922
0.00711963
0.0112694
0.0169239
0.0241889
0.0330052
0.0431199
0.0541105
0.0654518
0.076608
0.0871219
0.0966781
0.105141
0.112532
0.119023
0.124889
0.130355
0.135846
0.141548
0.14774
0.0424878
0.0415589
-0.053353
0.0533929
0.0718181
-0.0827232
0.0649617
0.100916
-0.112485
0.0760346
0.126306
-0.137379
0.0854155
0.144979
-0.15436
0.092988
0.155617
-0.163189
0.0988683
0.158742
-0.164622
0.101397
0.158466
-0.160995
0.0992705
0.16134
-0.159214
0.0951629
0.168237
-0.164129
0.0948653
0.169119
-0.168822
0.10191
0.150246
-0.15729
0.113997
0.107091
-0.119179
0.127347
0.0441994
-0.0575485
0.140068
-0.0301825
0.017461
0.150848
-0.102296
0.0915165
0.158533
-0.156221
0.148536
0.162594
-0.184425
0.180364
0.163016
-0.193207
0.192785
0.161414
-0.19399
0.195592
0.159607
-0.191359
0.193166
0.156642
-0.188792
0.191757
0.150435
-0.197746
0.203954
0.141308
-0.217913
0.22704
0.131968
-0.226768
0.236108
0.125205
-0.194852
0.201615
0.122953
-0.114968
0.11722
0.125938
-0.00539824
0.00241406
0.132463
0.0996997
-0.106225
0.141274
0.172055
-0.180867
0.149516
0.209291
-0.217533
0.154113
0.229569
-0.234166
0.152742
0.252389
-0.251018
0.145286
0.275905
-0.268448
0.134602
0.284841
-0.274157
0.124775
0.247387
-0.237561
0.119436
0.155279
-0.14994
0.120216
0.0200342
-0.0208146
0.126809
-0.107694
0.101101
0.134627
-0.195761
0.187944
0.136211
-0.238875
0.237291
0.129636
-0.265962
0.272537
0.120736
-0.283063
0.291962
0.115439
-0.247875
0.253173
0.117081
-0.165174
0.163531
0.122449
-0.0340912
0.0287233
0.126394
0.091337
-0.0952825
0.125783
0.217099
-0.216488
0.12361
0.302141
-0.299967
0.121717
0.302283
-0.30039
0.121513
0.244147
-0.243943
0.120534
0.054683
-0.0537042
0.118737
-0.116817
0.118615
0.115824
-0.267457
0.27037
0.114691
-0.344485
0.345618
0.114085
-0.205607
0.206213
0.114864
-0.177126
0.176347
0.111346
0.111937
-0.108419
0.108809
0.418435
-0.415897
0.175645
-0.172491
0.0131139
0.0260047
0.0287808
0.0561513
0.0452821
0.084415
0.0610468
0.110541
0.0757206
0.130305
0.0884531
0.142884
0.0978041
0.149391
0.102149
0.154122
0.102417
0.161072
0.103032
0.167622
0.108969
0.163182
0.120661
0.138554
0.133897
0.093855
0.145692
0.0324046
0.155507
-0.0399976
0.162585
-0.109375
0.166035
-0.159671
0.166141
-0.184531
0.163464
-0.19053
0.159253
-0.189779
0.155296
-0.187403
0.150642
-0.184138
0.142556
-0.18966
0.131412
-0.206769
0.120946
-0.216302
0.114606
-0.188512
0.113752
-0.114115
0.118978
-0.0106243
0.128458
0.0902201
0.140064
0.160449
0.150891
0.198464
0.157923
0.222537
0.158854
0.251457
0.153445
0.281314
0.144133
0.294153
0.134581
0.256939
0.12796
0.1619
0.12574
0.0222543
0.128844
-0.110798
0.134706
-0.201623
0.135788
-0.239958
0.128697
-0.25887
0.119467
-0.273834
0.114841
-0.243248
0.117199
-0.167532
0.122863
-0.0397557
0.12704
0.0871605
0.127262
0.216877
0.125458
0.303945
0.12371
0.304031
0.123216
0.24464
0.121516
0.0563835
0.118963
-0.114265
0.115067
-0.263562
0.114355
-0.343773
0.113716
-0.204967
0.11423
-0.17764
0.112367
0.113799
0.109818
0.420984
0.179547
-0.0124146
0.00799465
0.00727864
0.0364581
0.0280639
0.0636298
0.0481053
0.0905
0.0670284
0.111382
0.082973
0.126939
0.0943135
0.13805
0.100772
0.147663
0.104891
0.156953
0.111291
0.161222
0.123091
0.151381
0.138218
0.123428
0.151853
0.0802204
0.161839
0.0224181
0.16895
-0.0471084
0.172757
-0.113182
0.172375
-0.159288
0.168816
-0.180972
0.163465
-0.185179
0.157083
-0.183397
0.15119
-0.18151
0.145343
-0.178291
0.136213
-0.18053
0.123438
-0.193994
0.111552
-0.204417
0.105232
-0.182192
0.105878
-0.114761
0.113079
-0.0178255
0.124887
0.0784126
0.138986
0.14635
0.152344
0.185107
0.162014
0.212867
0.165645
0.247826
0.162743
0.284215
0.155092
0.301804
0.145863
0.266169
0.137928
0.169835
0.13258
0.0276024
0.131879
-0.110097
0.135319
-0.205064
0.135987
-0.240626
0.128594
-0.251477
0.118796
-0.264035
0.114402
-0.238854
0.117344
-0.170474
0.123519
-0.0459309
0.128158
0.0825221
0.129287
0.215748
0.12777
0.305461
0.126026
0.305776
0.125295
0.245371
0.12303
0.0586482
0.119793
-0.111027
0.114895
-0.258664
0.114428
-0.343306
0.113797
-0.204337
0.114021
-0.177863
0.113749
0.114071
0.111358
0.423374
0.184129
-0.0317587
-0.00950273
-0.010995
0.0156943
0.011076
0.0415589
0.0336163
0.0679597
0.0549606
0.0900381
0.0730497
0.10885
0.0868605
0.12424
0.097101
0.137423
0.106614
0.147441
0.119085
0.148751
0.135618
0.134848
0.152735
0.10631
0.166334
0.066622
0.175528
0.0132236
0.180762
-0.0523425
0.181561
-0.113981
0.177603
-0.15533
0.170684
-0.174053
0.162942
-0.177437
0.154876
-0.175331
0.147318
-0.173951
0.140443
-0.171416
0.131054
-0.171141
0.117561
-0.180502
0.104314
-0.191169
0.097367
-0.175245
0.0988199
-0.116214
0.107505
-0.0265108
0.121356
0.0645616
0.137599
0.130107
0.15332
0.169386
0.165861
0.200326
0.172763
0.240924
0.172779
0.284199
0.166901
0.307682
0.157914
0.275155
0.148761
0.178988
0.14056
0.0358034
0.135982
-0.105519
0.136482
-0.205563
0.136613
-0.240757
0.129194
-0.244058
0.118731
-0.253572
0.114115
-0.234238
0.117496
-0.173855
0.124344
-0.0527794
0.129665
0.0772016
0.13175
0.213663
0.130478
0.306733
0.128622
0.307632
0.127659
0.246334
0.125029
0.0612781
0.121221
-0.10722
0.115295
-0.252739
0.114922
-0.342932
0.114326
-0.203741
0.114231
-0.177769
0.115516
0.112787
0.113395
0.425494
0.189316
-0.0383565
-0.0211642
-0.0209412
-0.001721
-0.00197648
0.0225941
0.0203426
0.0456406
0.0420047
0.068376
0.0619195
0.0889353
0.079137
0.107022
0.0942963
0.122264
0.109504
0.132233
0.12708
0.131175
0.146562
0.115366
0.164244
0.0886289
0.177469
0.0533965
0.186229
0.00446354
0.190136
-0.0562493
0.188265
-0.11211
0.18121
-0.148275
0.171518
-0.164361
0.161847
-0.167766
0.152623
-0.166107
0.143927
-0.165256
0.136283
-0.163771
0.127083
-0.161942
0.113634
-0.167053
0.0993123
-0.176847
0.0912349
-0.167168
0.0927636
-0.117743
0.102478
-0.036225
0.117768
0.0492711
0.135554
0.112321
0.153288
0.151652
0.168745
0.184869
0.179236
0.230433
0.182805
0.28063
0.179391
0.311096
0.170703
0.283843
0.16018
0.18951
0.149334
0.0466498
0.141005
-0.0971905
0.138152
-0.202709
0.137508
-0.240113
0.130332
-0.236883
0.119211
-0.242451
0.113947
-0.228974
0.117566
-0.177474
0.125236
-0.0604497
0.131467
0.0709702
0.134607
0.210524
0.133557
0.307783
0.131442
0.309747
0.130225
0.247551
0.127447
0.0640567
0.123229
-0.103002
0.116247
-0.245756
0.115822
-0.342508
0.115289
-0.203207
0.114856
-0.177336
0.117664
0.10998
0.115893
0.427264
0.195026
-0.0213473
-0.0251227
-0.0124147
-0.0106536
0.0012507
0.00892873
0.0189632
0.0279281
0.0386133
0.0487259
0.0587656
0.068783
0.0784182
0.0873697
0.0974446
0.103237
0.116749
0.112929
0.137227
0.110697
0.157413
0.0951799
0.174227
0.0718149
0.186576
0.0410477
0.194744
-0.00370466
0.197189
-0.0586944
0.192812
-0.107733
0.183169
-0.138631
0.171359
-0.152551
0.160207
-0.156614
0.15023
-0.15613
0.140775
-0.1558
0.132495
-0.155492
0.123864
-0.153311
0.111375
-0.154564
0.0966122
-0.162084
0.0870551
-0.15761
0.08786
-0.118548
0.0978888
-0.0462537
0.113954
0.0332062
0.13262
0.0936552
0.151857
0.132415
0.170041
0.166684
0.184404
0.216071
0.191885
0.273149
0.191122
0.311859
0.183158
0.291807
0.171468
0.201201
0.158409
0.0597087
0.146733
-0.0855147
0.140256
-0.196232
0.138476
-0.238333
0.131784
-0.230191
0.12015
-0.230817
0.113858
-0.222683
0.117464
-0.18108
0.126084
-0.0690693
0.133427
0.0636272
0.13771
0.206241
0.136903
0.30859
0.134432
0.312218
0.132929
0.249055
0.130196
0.0667895
0.125778
-0.0985837
0.117719
-0.237697
0.117088
-0.341877
0.116662
-0.202781
0.115877
-0.176551
0.120148
0.105708
0.118803
0.42861
0.20116
0.0188233
-0.022255
0.0197998
-0.01163
0.0267978
0.00193075
0.0373046
0.0174213
0.0519331
0.0340975
0.0694031
0.051313
0.0887237
0.0680491
0.108937
0.0830238
0.129609
0.0922568
0.150201
0.0901053
0.168727
0.0766533
0.183376
0.0571666
0.194428
0.0299957
0.2016
-0.0108768
0.202206
-0.0593007
0.195254
-0.100782
0.183363
-0.12674
0.170061
-0.139249
0.157886
-0.144439
0.1475
-0.145744
0.137836
-0.146136
0.129065
-0.146722
0.120939
-0.145184
0.110076
-0.143701
0.0958691
-0.147877
0.0849421
-0.146684
0.0842135
-0.117819
0.0937649
-0.0558051
0.109917
0.0170541
0.128788
0.0747841
0.148817
0.112386
0.169252
0.14625
0.187443
0.19788
0.199339
0.261253
0.202163
0.309035
0.195769
0.298201
0.183255
0.213715
0.167732
0.0752312
0.153008
-0.0707901
0.14274
-0.185964
0.13938
-0.234973
0.133324
-0.224135
0.12145
-0.218943
0.113834
-0.215066
0.11709
-0.184336
0.126729
-0.0787076
0.135419
0.0549368
0.141025
0.200635
0.140518
0.309096
0.137562
0.315174
0.135693
0.250923
0.133197
0.0692857
0.128814
-0.0942009
0.119674
-0.228557
0.118666
-0.34087
0.118412
-0.202527
0.117268
-0.175407
0.122922
0.100054
0.122079
0.429453
0.207611
0.072233
-0.0152721
0.0678618
-0.00725883
0.0674458
0.00234674
0.0708166
0.0140505
0.0786666
0.0262474
0.0907354
0.0392442
0.10654
0.0522441
0.124939
0.0646249
0.144456
0.0727405
0.163175
0.0713858
0.178962
0.0608667
0.191418
0.0447099
0.201233
0.0201811
0.206792
-0.0164359
0.204856
-0.0573646
0.195333
-0.0912583
0.181723
-0.113131
0.167641
-0.125166
0.154995
-0.131793
0.14437
-0.135119
0.134831
-0.136596
0.125909
-0.1378
0.118059
-0.137335
0.109022
-0.134664
0.0964788
-0.135334
0.0848855
-0.13509
0.0820918
-0.115025
0.0902201
-0.0639335
0.105646
0.00162825
0.124023
0.0564069
0.144136
0.0922728
0.166223
0.124163
0.187884
0.176219
0.204095
0.245042
0.210381
0.302748
0.20563
0.302952
0.193208
0.226138
0.176713
0.0917264
0.159429
-0.0535062
0.145443
-0.171978
0.140087
-0.229617
0.134728
-0.218775
0.123002
-0.207218
0.113887
-0.205951
0.116355
-0.186805
0.127024
-0.089377
0.137263
0.0446979
0.144349
0.193549
0.144304
0.309141
0.140831
0.318646
0.138502
0.253253
0.136367
0.0714209
0.132269
-0.0901032
0.122065
-0.218353
0.120492
-0.339297
0.120497
-0.202531
0.118999
-0.173909
0.125914
0.0931387
0.125655
0.429712
0.214257
0.119593
-0.00884308
0.114944
-0.00260971
0.112021
0.00526965
0.111567
0.0145041
0.114116
0.0236987
0.120428
0.0329321
0.130621
0.042051
0.14435
0.0508965
0.160252
0.056838
0.175747
0.0558915
0.188725
0.0478887
0.199242
0.0341928
0.207171
0.0122514
0.209897
-0.0191613
0.204738
-0.0522054
0.192959
-0.0794799
0.178359
-0.0985308
0.164115
-0.110923
0.1515
-0.119178
0.140837
-0.124457
0.131572
-0.127331
0.122857
-0.129084
0.11513
-0.129608
0.107559
-0.127094
0.0973693
-0.125143
0.0863006
-0.124022
0.0815673
-0.110292
0.0875019
-0.0698681
0.101386
-0.0122562
0.118712
0.0390817
0.138084
0.0729002
0.160669
0.101578
0.185243
0.151645
0.206374
0.223911
0.217281
0.291841
0.214899
0.305333
0.202429
0.238608
0.184779
0.109376
0.165436
-0.0341629
0.148202
-0.154744
0.140508
-0.221924
0.135785
-0.214053
0.124681
-0.196113
0.114065
-0.195335
0.115204
-0.187944
0.126776
-0.100948
0.138825
0.0326486
0.147668
0.184706
0.148271
0.308539
0.144212
0.322705
0.141325
0.25614
0.139614
0.0731321
0.136059
-0.0865483
0.12484
-0.207133
0.12249
-0.336947
0.122853
-0.202895
0.121032
-0.172088
0.129074
0.0850959
0.129487
0.429299
0.220971
0.146576
-0.00572653
0.144944
-0.000977751
0.144355
0.00585867
0.145239
0.0136198
0.147567
0.0213708
0.1517
0.0287993
0.15817
0.0355807
0.167224
0.0418426
0.178276
0.0457866
0.189338
0.0448289
0.198728
0.0384986
0.206293
0.0266282
0.210984
0.00755989
0.209583
-0.0177596
0.201166
-0.0437884
0.187964
-0.0662785
0.173298
-0.0838644
0.159469
-0.0970938
0.147266
-0.106975
0.136756
-0.113946
0.127764
-0.11834
0.119532
-0.120853
0.112028
-0.122104
0.105377
-0.120443
0.0975144
-0.11728
0.0881134
-0.114621
0.0823813
-0.10456
0.0858322
-0.073319
0.0972982
-0.0237222
0.112925
0.0234547
0.130931
0.054894
0.153183
0.0793272
0.179392
0.125435
0.20404
0.199263
0.219333
0.276548
0.220258
0.304408
0.208707
0.250159
0.190963
0.12712
0.170764
-0.0139638
0.150835
-0.134815
0.140516
-0.211605
0.136247
-0.209784
0.126298
-0.186164
0.114401
-0.183437
0.113642
-0.187185
0.125794
-0.113101
0.139782
0.0186613
0.150659
0.173829
0.152323
0.306875
0.147851
0.327176
0.144242
0.259749
0.142916
0.0744586
0.1401
-0.0837321
0.127949
-0.194983
0.124584
-0.333582
0.125417
-0.203727
0.123331
-0.170002
0.132321
0.0761055
0.133481
0.42814
0.227607
0.151258
-0.00466234
0.151783
-0.00150356
0.154069
0.00357335
0.157784
0.00990454
0.162407
0.0167474
0.167758
0.0234486
0.174275
0.0290636
0.182116
0.0340022
0.190663
0.0372395
0.198526
0.0369657
0.204714
0.0323102
0.208663
0.0226793
0.208627
0.00759574
0.203738
-0.0128698
0.1936
-0.0336512
0.180471
-0.0531495
0.166705
-0.0700978
0.153738
-0.0841271
0.142184
-0.0954215
0.132048
-0.103809
0.123301
-0.109593
0.115599
-0.113151
0.108553
-0.115057
0.102457
-0.114347
0.0963523
-0.111176
0.0891306
-0.107399
0.0836448
-0.0990741
0.0851218
-0.0747959
0.094212
-0.0328125
0.10759
0.0100772
0.12341
0.0390731
0.144028
0.0587095
0.171081
0.0983822
0.200112
0.170232
0.220609
0.256051
0.224553
0.300465
0.213625
0.261087
0.19573
0.145016
0.174524
0.00724179
0.153009
-0.113299
0.140078
-0.198675
0.13594
-0.205645
0.127677
-0.177901
0.11499
-0.170751
0.111747
-0.183942
0.123968
-0.125322
0.140131
0.00249775
0.153407
0.160553
0.156384
0.303898
0.151534
0.332025
0.147189
0.264094
0.146159
0.0754883
0.144267
-0.0818396
0.131342
-0.182058
0.126773
-0.329013
0.128137
-0.205091
0.125852
-0.167717
0.135623
0.0663346
0.137613
0.42615
0.234034
0.14717
-0.00409318
0.147188
-0.00152119
0.148718
0.00204315
0.152031
0.0065922
0.157005
0.0117731
0.16338
0.0170737
0.170399
0.0220445
0.178054
0.0263474
0.186043
0.0292503
0.193089
0.0299196
0.19825
0.0271495
0.200817
0.0201123
0.200005
0.00840816
0.194124
-0.00698972
0.184528
-0.0240544
0.172724
-0.0413459
0.160331
-0.0577044
0.148325
-0.0721218
0.137371
-0.0844668
0.127673
-0.094112
0.119168
-0.101087
0.111833
-0.105816
0.105328
-0.108552
0.0996333
-0.108652
0.094532
-0.106075
0.0892251
-0.102092
0.0849135
-0.0947625
0.0853718
-0.0752542
0.0920798
-0.0395205
0.102782
-0.00062461
0.116165
0.0256899
0.13393
0.0409448
0.158832
0.0734801
0.188787
0.140277
0.214386
0.230452
0.224708
0.290142
0.217004
0.268791
0.199465
0.162554
0.178542
0.0281652
0.155605
-0.0903621
0.14
-0.18307
0.135327
-0.200972
0.12891
-0.171484
0.116019
-0.15786
0.110196
-0.178119
0.121448
-0.136574
0.139167
-0.0152214
0.155211
0.144509
0.160462
0.298647
0.155768
0.33672
0.150483
0.269379
0.149529
0.0764425
0.148543
-0.0808544
0.13503
-0.168545
0.129144
-0.323127
0.130983
-0.20693
0.128566
-0.165299
0.13888
0.0560199
0.141768
0.423262
0.240103
0.174022
-0.00165732
-0.176458
0.17198
0.000520523
0.170913
0.00310996
0.170977
0.00652859
0.172253
0.0104971
0.174672
0.0146548
0.178171
0.0185452
0.182763
0.0217558
0.188385
0.0236275
0.194781
0.023524
0.201423
0.0205078
0.207412
0.0141231
0.21155
0.00426976
0.213109
-0.00854809
0.21201
-0.0229559
0.208568
-0.0379041
0.203403
-0.0525393
0.196904
-0.0656231
0.189484
-0.0770458
0.181526
-0.0861541
0.173174
-0.0927356
0.164794
-0.0974364
0.156463
-0.10022
0.147941
-0.100131
0.139389
-0.097523
0.130742
-0.093444
0.120911
-0.0849323
0.111517
-0.0658602
0.106084
-0.0340869
0.107137
-0.00167769
0.113802
0.019025
0.124967
0.029779
0.138708
0.0597393
0.15408
0.124906
0.168656
0.215876
0.178917
0.279881
0.185071
0.262637
0.188997
0.158628
0.188123
0.0290397
0.180184
-0.0824235
0.169467
-0.172353
0.161201
-0.192706
0.151551
-0.161834
0.136652
-0.142961
0.125298
-0.166765
0.126345
-0.137621
0.132511
-0.0213872
0.138761
0.138258
0.13971
0.297699
0.137976
0.338453
0.140415
0.266941
0.147392
0.0694652
0.150864
-0.0843262
0.139575
-0.157256
0.130865
-0.314417
0.128739
-0.204804
0.122671
-0.159231
0.128204
0.0504866
0.131208
0.420259
0.244656
0.185232
0.000216784
-0.187106
0.184001
0.00175165
0.183272
0.00383936
0.18337
0.00643028
0.184476
0.0093905
0.186674
0.0124572
0.189962
0.0152569
0.194281
0.0174374
0.199429
0.018479
0.20506
0.0178931
0.210596
0.0149722
0.215358
0.0093604
0.218592
0.00103626
0.219686
-0.00964225
0.218587
-0.0218573
0.215409
-0.0347259
0.210474
-0.0476044
0.204109
-0.0592576
0.196683
-0.0696203
0.188754
-0.0782254
0.180584
-0.0845655
0.172301
-0.0891535
0.16417
-0.0920885
0.155975
-0.0919368
0.147422
-0.0889694
0.139217
-0.0852387
0.131104
-0.0768197
0.123365
-0.0581218
0.118094
-0.0288154
0.117997
-0.00158084
0.123568
0.0134543
0.133732
0.0196145
0.146961
0.0465112
0.163059
0.108807
0.179637
0.199298
0.192108
0.26741
0.199341
0.255405
0.203288
0.154681
0.203195
0.0291322
0.194457
-0.0736846
0.182034
-0.159931
0.172311
-0.182983
0.162676
-0.152199
0.147737
-0.128022
0.134997
-0.154025
0.135316
-0.13794
0.142485
-0.0285563
0.150846
0.129898
0.15315
0.295395
0.151719
0.339884
0.154095
0.264564
0.16149
0.0620698
0.165531
-0.0883663
0.152675
-0.1444
0.142027
-0.303769
0.139806
-0.202584
0.133193
-0.152618
0.138883
0.0447965
0.142604
0.416539
0.249122
0.197617
0.00180003
-0.1992
0.196533
0.0028353
0.195973
0.00439994
0.196119
0.00628415
0.197129
0.00837988
0.199076
0.0105104
0.201943
0.0123905
0.205637
0.0137428
0.209982
0.0141338
0.214676
0.013199
0.219255
0.0103941
0.223135
0.00548024
0.225716
-0.00154507
0.226604
-0.0105298