/*--------------------------------*- C++ -*----------------------------------*\
| =========                 |                                                 |
| \\      /  F ield         | OpenFOAM: The Open Source CFD Toolbox           |
|  \\    /   O peration     | Version:  2512                                  |
|   \\  /    A nd           | Website:  www.openfoam.com                      |
|    \\/     M anipulation  |                                                 |
\*---------------------------------------------------------------------------*/
FoamFile
{
    version     2.0;
    format      ascii;
    arch        "LSB;label=32;scalar=64";
    class       surfaceScalarField;
    location    "49.8";
    object      phi;
}
// * * * * * * * * * * * * * * * * * * * * * * * * * * * * * * * * * * * * * //

dimensions      [0 3 -1 0 0 0 0];

oriented        oriented;

internalField   nonuniform List<scalar> 
26232
(
0.000136021
0.00133492
-0.00147094
0.000550588
0.00244395
-0.00285852
0.00139814
0.00220877
-0.00305632
0.0029282
0.000709634
-0.0022397
0.00546011
-0.00206848
-0.000463437
0.00934232
-0.00620793
0.00232573
0.014903
-0.0117965
0.00623579
0.0223694
-0.0188328
0.0113664
0.0317769
-0.0271488
0.0177413
0.0429096
-0.0363893
0.0252566
0.055303
-0.0460565
0.0336631
0.0683109
-0.0555967
0.0425887
0.0812154
-0.0644961
0.0515916
0.0933471
-0.0723588
0.0602271
0.104189
-0.0789521
0.0681098
0.113448
-0.0842221
0.0749635
0.121076
-0.0882683
0.0806399
0.127243
-0.0913116
0.0851445
0.132309
-0.0936117
0.088546
0.136666
-0.095483
0.0911262
0.140774
-0.0970574
0.0929489
0.144963
-0.0987285
0.0945399
0.149198
-0.100109
0.0958738
-0.1019
0.0974537
0.153645
0.000148301
0.00118662
0.000739988
0.00185226
0.0020122
0.000936554
0.00429106
-0.00156923
0.0079622
-0.00573961
0.0134087
-0.0116544
0.0208964
-0.0192841
0.0304422
-0.0283786
0.0417355
-0.0384421
0.0541605
-0.0488142
0.0669129
-0.0588089
0.0791647
-0.0678485
0.0902229
-0.0755543
0.0996442
-0.0817801
0.107288
-0.0865962
0.1133
-0.0902338
0.118039
-0.0930071
0.121969
-0.0952415
0.125553
-0.097196
0.129149
-0.0990787
0.133032
-0.100941
0.137254
-0.10295
0.14199
-0.104846
-0.107212
0.147302
0.000163139
0.00102348
0.00096315
0.00105225
0.00275515
-0.00085545
0.0059591
-0.00477317
0.0110108
-0.0107913
0.0182268
-0.0188704
0.0276215
-0.0286788
0.0387962
-0.0395533
0.0509843
-0.0506302
0.0632341
-0.0610641
0.0746408
-0.0702156
0.0845398
-0.0777475
0.0926159
-0.0836303
0.0989122
-0.0880764
0.103753
-0.0914368
0.10761
-0.094091
0.110966
-0.0963632
0.114202
-0.0984777
0.117563
-0.100557
0.121151
-0.102667
0.124997
-0.104786
0.129065
-0.107018
0.133371
-0.109152
-0.111637
0.137795
0.000214219
0.000809259
0.00131781
-5.13399e-05
0.00379524
-0.00333288
0.00814307
-0.009121
0.0147548
-0.0174031
0.0236858
-0.0278014
0.0344855
-0.0394785
0.0462547
-0.0513225
0.0579079
-0.0622833
0.0684842
-0.0716405
0.0773727
-0.079104
0.0843939
-0.0847688
0.0897464
-0.0889827
0.0938606
-0.0921906
0.0972264
-0.0948026
0.100257
-0.0971211
0.103221
-0.0993274
0.106253
-0.10151
0.109403
-0.103706
0.112673
-0.105938
0.116098
-0.10821
0.119677
-0.110597
0.123496
-0.112971
-0.115707
0.127566
0.00032229
0.000486969
0.00186629
-0.00159534
0.00521357
-0.00668016
0.0108672
-0.0147746
0.018993
-0.0255289
0.0291631
-0.0379715
0.0403833
-0.0506987
0.0514377
-0.062377
0.0613008
-0.0721464
0.0693969
-0.0797366
0.0756466
-0.0853537
0.0803445
-0.0894667
0.0839588
-0.092597
0.0869461
-0.0951779
0.0896443
-0.0975009
0.0922527
-0.0997295
0.0948697
-0.101944
0.0975455
-0.104186
0.100316
-0.106477
0.103217
-0.108839
0.106289
-0.111283
0.109532
-0.113841
0.112993
-0.116432
-0.119317
0.116603
0.000493253
-6.28383e-06
0.0026076
-0.00370968
0.00696732
-0.0110399
0.0139212
-0.0217285
0.0231811
-0.0347888
0.033733
-0.0485234
0.0442326
-0.0611983
0.0535494
-0.0716937
0.061089
-0.079686
0.0668132
-0.0854608
0.0710577
-0.0895983
0.0742936
-0.0927026
0.076945
-0.0952484
0.0793094
-0.0975423
0.0815629
-0.0997543
0.0838024
-0.101969
0.0860856
-0.104228
0.0884506
-0.10655
0.090923
-0.108949
0.093515
-0.111431
0.096233
-0.114
0.0990583
-0.116666
0.102027
-0.119401
-0.122348
0.105058
0.000717089
-0.000723373
0.00350361
-0.0064962
0.00890811
-0.0164444
0.0169156
-0.029736
0.0266296
-0.0445029
0.0366028
-0.0584966
0.0455387
-0.0701342
0.0527404
-0.0788954
0.0581396
-0.0850851
0.0620702
-0.0893914
0.0649987
-0.0925267
0.0673377
-0.0950416
0.0693765
-0.0972872
0.0712897
-0.0994556
0.0731748
-0.101639
0.0750843
-0.103879
0.0770452
-0.106189
0.079071
-0.108576
0.0811685
-0.111047
0.083345
-0.113607
0.0856085
-0.116264
0.0879636
-0.119021
0.0904335
-0.121871
-0.12488
0.0929655
0.000984543
-0.00170792
0.00448471
-0.00999637
0.0108147
-0.0227744
0.0193969
-0.0383181
0.0287824
-0.0538885
0.0374545
-0.0671686
0.0445058
-0.0771855
0.0497522
-0.0841418
0.0534866
-0.0888195
0.0561713
-0.0920761
0.0582289
-0.0945844
0.0599604
-0.0967731
0.0615474
-0.0988742
0.0630867
-0.100995
0.0646249
-0.103178
0.066184
-0.105438
0.0677766
-0.107781
0.069414
-0.110214
0.0711089
-0.112742
0.0728727
-0.115371
0.0747124
-0.118104
0.0766267
-0.120935
0.0786224
-0.123866
-0.126912
0.0806549
0.0012768
-0.00298472
0.00545739
-0.014177
0.0124334
-0.0297505
0.0209919
-0.0468766
0.0294116
-0.0623081
0.0364552
-0.0742122
0.0417098
-0.0824401
0.0453707
-0.0878026
0.047887
-0.0913359
0.0497043
-0.0938934
0.0511491
-0.0960292
0.0524185
-0.0980426
0.0536146
-0.10007
0.054785
-0.102165
0.0559528
-0.104345
0.0571323
-0.106617
0.0583357
-0.108984
0.0595733
-0.111451
0.0608529
-0.114021
0.0621791
-0.116697
0.0635524
-0.119477
0.0649747
-0.122358
0.0664496
-0.125341
-0.128418
0.0679555
0.00157121
-0.00455593
0.00631291
-0.0189187
0.0135385
-0.036976
0.0215215
-0.0548597
0.0286138
-0.0694004
0.0340227
-0.0796211
0.0377475
-0.086165
0.0401899
-0.090245
0.0418194
-0.0929654
0.0430021
-0.0950761
0.0439641
-0.0969912
0.0448231
-0.0989016
0.045634
-0.100881
0.0464227
-0.102954
0.0472037
-0.105126
0.047987
-0.107401
0.0487809
-0.109778
0.0495924
-0.112263
0.0504281
-0.114857
0.0512934
-0.117562
0.052192
-0.120376
0.0531268
-0.123292
0.054097
-0.126311
-0.129418
0.0550964
0.0018408
-0.00639673
0.00694531
-0.0240232
0.0139937
-0.0440244
0.021014
-0.06188
0.0266711
-0.0750574
0.0306081
-0.0835581
0.0330972
-0.0886541
0.034613
-0.0917607
0.0355715
-0.0939239
0.0362447
-0.0957493
0.0367783
-0.0975249
0.0372405
-0.0993637
0.0376613
-0.101302
0.0380553
-0.103348
0.0384319
-0.105503
0.0387985
-0.107767
0.0391627
-0.110143
0.0395319
-0.112632
0.0399127
-0.115238
0.0403093
-0.117959
0.0407231
-0.120789
0.0411537
-0.123723
0.0415972
-0.126755
-0.129874
0.0420534
0.00206155
-0.00845829
0.00728095
-0.0292425
0.0137854
-0.0505289
0.0196425
-0.067737
0.0239193
-0.0793343
0.0266024
-0.0862412
0.0281086
-0.0901603
0.0289003
-0.0925524
0.0293125
-0.0943361
0.0295352
-0.0959721
0.0296586
-0.0976482
0.0297209
-0.099426
0.029739
-0.10132
0.0297225
-0.103331
0.0296785
-0.105459
0.0296139
-0.107703
0.0295347
-0.110063
0.0294464
-0.112544
0.029354
-0.115145
0.0292616
-0.117866
0.029173
-0.120701
0.029091
-0.123641
0.029013
-0.126677
0.0289435
-0.129804
-0.000257546
-0.0024032
0.00266075
-0.000961299
-0.00651639
0.00722014
-0.00208468
-0.00965992
0.0107833
-0.0035755
-0.0118189
0.0133097
-0.00536267
-0.0132744
0.0150616
-0.00737656
-0.0144009
0.0164148
-0.00956436
-0.0155061
0.0176939
-0.0118939
-0.0167714
0.019101
-0.0143474
-0.018269
0.0207225
-0.0169112
-0.0200055
0.0225693
-0.0195667
-0.0219571
0.0246127
-0.0222839
-0.0240841
0.0268013
-0.0250159
-0.0263321
0.0290642
-0.0276954
-0.0286278
0.0313073
-0.0302312
-0.0308742
0.03341
-0.0325085
-0.0329473
0.0352245
-0.0343889
-0.0346941
0.0365745
-0.0357151
-0.0359341
0.0372603
-0.0363203
-0.0364619
0.0370671
-0.0360405
-0.0360596
0.0357798
-0.0347204
-0.0345134
0.0331933
-0.032234
-0.0316111
0.0291247
-0.0285652
-0.027103
0.0234342
-0.0207999
-0.023745
0.0159797
-0.000411111
-0.00199209
-0.00142386
-0.00550364
-0.0029172
-0.00816657
-0.00479006
-0.00994602
-0.00695823
-0.0111062
-0.00936151
-0.0119976
-0.0119657
-0.0129019
-0.014757
-0.0139801
-0.0177329
-0.0152931
-0.0208925
-0.016846
-0.0242301
-0.0186195
-0.0277308
-0.0205834
-0.0313668
-0.0226961
-0.035094
-0.0249007
-0.0388473
-0.0271208
-0.0425378
-0.0292568
-0.0460485
-0.0311834
-0.0492344
-0.0327481
-0.0519253
-0.033771
-0.0539346
-0.0340503
-0.055072
-0.033376
-0.0551518
-0.0315314
-0.0539971
-0.0282577
-0.0232969
-0.0515001
-0.000529628
-0.00146246
-0.00177239
-0.00426088
-0.00352806
-0.0064109
-0.00565562
-0.00781846
-0.0080611
-0.00870076
-0.0106915
-0.00936724
-0.0135243
-0.0100691
-0.0165551
-0.0109493
-0.0197856
-0.0120626
-0.0232159
-0.0134157
-0.02684
-0.0149954
-0.0306438
-0.0167796
-0.0346035
-0.0187363
-0.0386842
-0.02082
-0.0428376
-0.0229674
-0.0469994
-0.025095
-0.0510861
-0.0270967
-0.0549902
-0.0288441
-0.0585761
-0.0301851
-0.0616855
-0.0309408
-0.0641516
-0.0309099
-0.0657804
-0.0299026
-0.0662872
-0.0277509
-0.0242328
-0.0653514
-0.000601976
-0.000860486
-0.00198178
-0.00288108
-0.00388281
-0.00450987
-0.00613452
-0.00556675
-0.00863484
-0.00620044
-0.0113338
-0.00666831
-0.0142136
-0.00718923
-0.0172706
-0.0078923
-0.0205017
-0.00883146
-0.0238978
-0.0100196
-0.0274404
-0.0114528
-0.0311013
-0.0131188
-0.0348423
-0.0149952
-0.0386166
-0.0170457
-0.0423688
-0.0192152
-0.0460358
-0.021428
-0.0495456
-0.0235869
-0.0528145
-0.0255751
-0.0557403
-0.0272594
-0.0581965
-0.0284846
-0.0600409
-0.0290656
-0.0611414
-0.028802
-0.0612868
-0.0276056
-0.0254819
-0.0600376
-0.000622318
-0.000238167
-0.00203986
-0.00146354
-0.00396659
-0.00258314
-0.00621249
-0.00332085
-0.00866722
-0.00374571
-0.0112786
-0.00405694
-0.0140269
-0.00444096
-0.0169023
-0.00501688
-0.0198908
-0.00584296
-0.022967
-0.00694339
-0.0260922
-0.0083276
-0.0292145
-0.00999648
-0.0322701
-0.0119397
-0.0351861
-0.0141297
-0.0378838
-0.0165175
-0.0402823
-0.0190295
-0.0423008
-0.0215684
-0.0438583
-0.0240176
-0.044868
-0.0262497
-0.0452327
-0.0281198
-0.0448089
-0.0294894
-0.0433603
-0.0302507
-0.0410527
-0.0299132
-0.029624
-0.0369106
-0.000589946
0.000351778
-0.00194503
-0.000108451
-0.00377756
-0.000750618
-0.00588636
-0.00121205
-0.00815031
-0.00148176
-0.0105071
-0.0017002
-0.0129263
-0.00202171
-0.0153826
-0.00256054
-0.0178417
-0.00338393
-0.0202529
-0.00453218
-0.0225484
-0.00603212
-0.0246445
-0.00790038
-0.0264455
-0.0101386
-0.0278496
-0.0127256
-0.0287551
-0.015612
-0.0290677
-0.018717
-0.0287056
-0.0219304
-0.0276026
-0.0251207
-0.025708
-0.0281443
-0.0229347
-0.0308932
-0.0193522
-0.0330718
-0.0145934
-0.0350094
-0.00878576
-0.0357209
-0.0363225
-0.00208728
-0.000509038
0.000860817
-0.00170718
0.00108969
-0.00332765
0.000869848
-0.00516647
0.000626769
-0.00708686
0.000438636
-0.00900336
0.000216304
-0.0108666
-0.000158518
-0.0126186
-0.000808533
-0.0141917
-0.00181075
-0.015497
-0.00322695
-0.0164259
-0.00510318
-0.0168555
-0.00747078
-0.0166564
-0.0103378
-0.0157032
-0.0136788
-0.0138856
-0.0174296
-0.0111148
-0.0214878
-0.00733287
-0.0257123
-0.00250655
-0.029947
0.00336317
-0.034014
0.0102423
-0.0377723
0.0180815
-0.040911
0.0270303
-0.0439583
0.0365915
-0.0452821
-0.047884
0.048153
-0.000387397
0.00124821
-0.00134434
0.00204664
-0.00264512
0.00217063
-0.00408588
0.00206753
-0.00551138
0.00186413
-0.00681023
0.00151516
-0.00787971
0.000910965
-0.00862178
-6.64676e-05
-0.00893663
-0.0014959
-0.00868258
-0.003481
-0.00771101
-0.00607475
-0.00586789
-0.00931389
-0.00300778
-0.0131979
0.000987825
-0.0176744
0.00619821
-0.0226399
0.0126539
-0.0279435
0.0203369
-0.0333954
0.0291851
-0.0387951
0.0391026
-0.0439315
0.0500094
-0.0486791
0.0617615
-0.0526631
0.074374
-0.0565708
0.0875491
-0.0584571
-0.0623944
0.10206
-0.000244232
0.00149245
-0.00090332
0.00270573
-0.00180008
0.00306738
-0.00273557
0.00300302
-0.00353165
0.00266021
-0.00403597
0.00201948
-0.0041065
0.000981494
-0.00360489
-0.000568077
-0.0023599
-0.00274089
-0.000204394
-0.00563651
0.00303777
-0.00931691
0.00752125
-0.0137974
0.0133549
-0.0190315
0.0205904
-0.0249099
0.0292056
-0.0312552
0.0391085
-0.0378463
0.0501366
-0.0444235
0.062085
-0.0507435
0.0747513
-0.0565977
0.0878645
-0.0617924
0.101401
-0.0661999
0.114894
-0.0700634
0.128885
-0.0724486
-0.0759162
0.142407
-0.000100729
0.00159317
-0.000439529
0.00304453
-0.000884281
0.00351214
-0.00124242
0.00336116
-0.00131374
0.00273153
-0.000905979
0.00161172
0.000170754
-9.52392e-05
0.00211437
-0.00251169
0.00512903
-0.00575555
0.00940615
-0.00991363
0.0151053
-0.0150161
0.0223229
-0.021015
0.0310663
-0.0277749
0.0412349
-0.0350785
0.0526237
-0.042644
0.0649479
-0.0501705
0.0778634
-0.0573391
0.0910386
-0.0639188
0.104134
-0.0696936
0.11689
-0.0745477
0.129228
-0.0785382
0.140703
-0.081538
0.152119
-0.0838649
-0.0858592
0.162062
2.0391e-05
0.00157278
-1.38868e-05
0.0030788
-2.19181e-06
0.00350044
0.000248583
0.00311039
0.000963406
0.0020167
0.00237558
0.000199546
0.0047307
-0.00245036
0.00826942
-0.00605041
0.0132175
-0.0107037
0.0197475
-0.0164436
0.0279356
-0.0232042
0.0377268
-0.0308061
0.0489192
-0.0389674
0.0611773
-0.0473365
0.0740697
-0.0555364
0.0871215
-0.0632223
0.0998786
-0.0700962
0.111966
-0.076006
0.123083
-0.0808104
0.133162
-0.0846272
0.142104
-0.0874799
0.150102
-0.0895363
0.157414
-0.091177
-0.091849
0.163404
0.000101844
0.00032213
0.000766255
0.00163695
0.00319021
0.00571549
0.00950091
0.0148169
0.0218545
0.0306675
0.0411264
0.052909
0.0655332
0.0784238
0.0909972
0.102738
0.113282
0.122421
0.130156
0.136655
0.142124
0.147128
0.151824
0.157429
-0.0137742
-0.0176126
0.00764181
-0.0029514
0.00205545
-0.0128782
0.00927194
0.0244033
-0.0366266
0.0220895
0.0502131
-0.0630307
0.0354816
0.0768063
-0.0901984
0.0489146
0.101707
-0.11514
0.0615083
0.122227
-0.134821
0.0717699
0.137014
-0.147276
0.0776751
0.146935
-0.15284
0.0780261
0.155105
-0.155456
0.0749767
0.16367
-0.16062
0.0740691
0.169037
-0.16813
0.0806134
0.161692
-0.168236
0.0948594
0.133816
-0.148062
0.112018
0.0857906
-0.102949
0.128263
0.0215946
-0.0378395
0.142312
-0.0519642
0.0379152
0.153371
-0.120716
0.109657
0.160937
-0.16848
0.160915
0.16448
-0.190576
0.187033
0.164646
-0.197645
0.19748
0.164057
-0.198765
0.199354
0.16416
-0.194487
0.194384
0.163478
-0.194061
0.194743
0.160587
-0.213352
0.216242
0.156678
-0.244831
0.24874
0.153859
-0.250022
0.252841
0.152729
-0.19474
0.195871
0.153116
-0.0824388
0.0820517
0.153657
0.0551322
-0.0556738
0.153232
0.180362
-0.179937
0.152655
0.264642
-0.264065
0.151558
0.299872
-0.298775
0.145906
0.315283
-0.309631
0.134587
0.340413
-0.329094
0.121102
0.357422
-0.343937
0.10844
0.325847
-0.313184
0.0986593
0.232586
-0.222805
0.0941737
0.0956307
-0.0911452
0.0951954
-0.0490445
0.0480228
0.100058
-0.168458
0.163596
0.107062
-0.242219
0.235215
0.112656
-0.270251
0.264656
0.111993
-0.27504
0.275703
0.105622
-0.275833
0.282205
0.100211
-0.26014
0.265551
0.100839
-0.203627
0.202998
0.107233
-0.11261
0.106217
0.116171
-0.0134083
0.00447038
0.124805
0.0683901
-0.0770246
0.132067
0.124091
-0.131352
0.136856
0.153987
-0.158776
0.137778
0.164392
-0.165315
0.134872
0.170296
-0.16739
0.133389
0.14381
-0.142327
0.137228
0.110586
-0.114425
0.144524
0.0362064
-0.0435027
0.152957
-0.00430629
-0.0041266
0.159306
-0.0517224
0.045374
-0.0649249
0.0629013
-0.0421798
-0.0269329
-0.0305156
-0.0096088
-0.0170141
0.0109017
-0.00205096
0.03525
0.0145334
0.060222
0.0308941
0.085346
0.0458021
0.107319
0.0578374
0.124979
0.0656524
0.13912
0.0698073
0.15095
0.0735861
0.159891
0.081596
0.161027
0.0963052
0.146983
0.114871
0.11525
0.132133
0.0685291
0.146155
0.00757256
0.156961
-0.0627703
0.163982
-0.127738
0.167132
-0.17163
0.166873
-0.190318
0.163994
-0.194766
0.160816
-0.195587
0.158817
-0.192487
0.156105
-0.19135
0.150604
-0.20785
0.143975
-0.238202
0.139919
-0.245967
0.139529
-0.19435
0.142145
-0.0850549
0.146008
0.0512696
0.149194
0.177176
0.152109
0.261727
0.15361
0.298371
0.149931
0.318962
0.140466
0.349878
0.127947
0.36994
0.114911
0.338883
0.103823
0.243675
0.097345
0.102108
0.096616
-0.0483155
0.100009
-0.171851
0.105913
-0.248124
0.11146
-0.275798
0.111855
-0.275434
0.10645
-0.270429
0.101168
-0.254858
0.101701
-0.20416
0.108109
-0.119018
0.116994
-0.0222932
0.125632
0.0597519
0.132979
0.116744
0.137246
0.149721
0.136935
0.164702
0.133511
0.173721
0.132824
0.144496
0.138203
0.105207
0.146365
0.0280447
0.154738
-0.0126793
0.160945
-0.0579292
-0.0668432
-0.058968
-0.0333162
-0.0491422
-0.0194346
-0.0366193
-0.00162116
-0.0216202
0.0202508
-0.0053388
0.0439406
0.0123451
0.0676621
0.0289661
0.090698
0.0435791
0.110366
0.0555203
0.127179
0.0659365
0.140534
0.07756
0.148267
0.0933827
0.145205
0.113618
0.126748
0.133991
0.0948766
0.150027
0.0524927
0.161395
-0.00379477
0.169237
-0.0706128
0.172745
-0.131246
0.171868
-0.170753
0.168162
-0.186612
0.162675
-0.189279
0.15718
-0.190092
0.153249
-0.188557
0.148893
-0.186993
0.141227
-0.200185
0.131882
-0.228856
0.126236
-0.240321
0.126684
-0.194798
0.1314
-0.0897709
0.138402
0.0442684
0.145368
0.17021
0.151846
0.255249
0.156097
0.29412
0.154753
0.320306
0.147528
0.357104
0.136402
0.381066
0.123141
0.352144
0.11045
0.256366
0.101572
0.110986
0.0986738
-0.0454172
0.100463
-0.17364
0.105155
-0.252816
0.110433
-0.281075
0.111764
-0.276765
0.107489
-0.266154
0.102426
-0.249794
0.102602
-0.204336
0.108792
-0.125208
0.117687
-0.0311889
0.126548
0.0508911
0.13394
0.109352
0.137426
0.146234
0.135865
0.166263
0.132305
0.177281
0.13275
0.144051
0.139587
0.0983703
0.148443
0.0191887
0.156606
-0.0208429
0.162475
-0.0637978
-0.0686205
-0.0574023
-0.0359515
-0.0513395
-0.0254975
-0.0422962
-0.0106644
-0.0297441
0.00769871
-0.0149672
0.0291637
0.00110309
0.0515919
0.0190391
0.0727621
0.0363327
0.0930725
0.0528522
0.110659
0.0692137
0.124172
0.0870102
0.130471
0.107787
0.124428
0.130332
0.104203
0.150241
0.0749681
0.164607
0.0381259
0.174238
-0.0134259
0.179714
-0.0760886
0.179968
-0.131499
0.175369
-0.166155
0.16857
-0.179812
0.160897
-0.181607
0.153403
-0.182598
0.147705
-0.182859
0.142042
-0.18133
0.132794
-0.190937
0.121031
-0.217093
0.113329
-0.23262
0.114071
-0.19554
0.121117
-0.0968171
0.131127
0.0342582
0.141701
0.159636
0.151674
0.245275
0.158742
0.287052
0.160046
0.319002
0.155263
0.361887
0.145419
0.390909
0.132173
0.365389
0.118256
0.270283
0.106939
0.122303
0.101484
-0.0399625
0.101447
-0.173603
0.104838
-0.256207
0.109614
-0.285851
0.111652
-0.278803
0.108564
-0.263066
0.103981
-0.245211
0.103777
-0.204133
0.109543
-0.130973
0.118467
-0.0401127
0.127615
0.0417423
0.134873
0.102094
0.137351
0.143756
0.134658
0.168956
0.131353
0.180586
0.133159
0.142245
0.141284
0.0902451
0.150639
0.00983339
0.158519
-0.0287222
0.163925
-0.0692042
-0.0702242
-0.0371042
-0.0357579
-0.0347287
-0.027873
-0.0293828
-0.0160102
-0.0202041
-0.00148008
-0.00855901
0.0175186
0.00610904
0.0369238
0.0230102
0.0558609
0.0414646
0.0746182
0.0607184
0.0914055
0.0805875
0.104303
0.101523
0.109536
0.12385
0.1021
0.145528
0.0825247
0.163102
0.0573938
0.175629
0.025599
0.184088
-0.0218843
0.187653
-0.0796536
0.184963
-0.128809
0.177166
-0.158357
0.167813
-0.170459
0.158536
-0.17233
0.14953
-0.173592
0.142319
-0.175648
0.135786
-0.174798
0.125636
-0.180787
0.11177
-0.203227
0.101473
-0.222323
0.101469
-0.195535
0.110187
-0.105535
0.123265
0.0211803
0.137579
0.145322
0.151229
0.231626
0.161374
0.276907
0.165769
0.314606
0.163951
0.363706
0.156019
0.398841
0.143004
0.378405
0.127617
0.28567
0.113535
0.136385
0.10508
-0.0315071
0.102911
-0.171435
0.1049
-0.258196
0.108989
-0.289941
0.111519
-0.281332
0.109528
-0.261075
0.105661
-0.241344
0.105325
-0.203797
0.11064
-0.136289
0.119527
-0.0489999
0.128846
0.032424
0.135692
0.0952482
0.137008
0.14244
0.133419
0.172545
0.130724
0.183281
0.134004
0.138965
0.143207
0.0810423
0.152857
0.000183424
0.160418
-0.0362834
0.165305
-0.0740913
-0.0716356
-0.00437927
-0.0334659
-0.00488875
-0.0273636
-0.00236686
-0.0185321
0.00345896
-0.0073059
0.0133116
0.00766603
0.0259302
0.0243052
0.0409402
0.0408509
0.0584378
0.0571206
0.0778203
0.0720229
0.0983034
0.0838202
0.119393
0.0884459
0.140342
0.0811515
0.158851
0.0640154
0.173196
0.0430486
0.184086
0.0147094
0.191567
-0.0293657
0.193111
-0.0811971
0.187712
-0.12341
0.177337
-0.147983
0.165994
-0.159116
0.155658
-0.161994
0.145706
-0.16364
0.137185
-0.167127
0.13003
-0.167642
0.119827
-0.170584
0.104735
-0.188134
0.0915333
-0.209122
0.0895099
-0.193512
0.0989888
-0.115013
0.114766
0.00540329
0.132612
0.127476
0.149813
0.214425
0.163432
0.263288
0.171141
0.306896
0.172199
0.362648
0.166161
0.404879
0.153827
0.390738
0.137636
0.301861
0.121118
0.152903
0.109462
-0.0198512
0.104837
-0.166809
0.105311
-0.25867
0.108527
-0.293157
0.111342
-0.284148
0.110297
-0.26003
0.10722
-0.238267
0.10711
-0.203687
0.112182
-0.141361
0.120965
-0.0577825
0.130189
0.0231998
0.136319
0.0891182
0.136421
0.142338
0.132248
0.176719
0.130457
0.185071
0.135229
0.134193
0.145289
0.0709824
0.155035
-0.00956299
0.162256
-0.0435044
0.166616
-0.0784507
-0.072855
0.0422258
-0.0275386
0.0379527
-0.0230905
0.0364634
-0.0170428
0.0381696
-0.00901214
0.0439369
0.00189876
0.0529537
0.0152884
0.0650929
0.0287117
0.0801345
0.042079
0.0977179
0.0544395
0.116829
0.0647089
0.136248
0.0690275
0.154385
0.0630143
0.169291
0.0491092
0.181018
0.0313212
0.19094
0.00478775
0.197281
-0.0357069
0.196362
-0.0802774
0.18825
-0.115298
0.175908
-0.135641
0.163163
-0.146371
0.1522
-0.15103
0.141877
-0.153317
0.132466
-0.157716
0.124783
-0.159959
0.115063
-0.160864
0.0998047
-0.172876
0.0840961
-0.193413
0.0789673
-0.188383
0.0879948
-0.124041
0.105793
-0.0123948
0.126802
0.106467
0.147337
0.193889
0.164308
0.246317
0.175928
0.295277
0.181007
0.35757
0.17771
0.408175
0.166067
0.402382
0.148724
0.319204
0.129589
0.172038
0.114505
-0.00476735
0.107159
-0.159464
0.106011
-0.257521
0.108203
-0.295349
0.111088
-0.287033
0.110865
-0.259807
0.10847
-0.235872
0.108814
-0.204031
0.113999
-0.146546
0.122686
-0.0664703
0.131536
0.0143506
0.136695
0.0839584
0.135636
0.143398
0.131225
0.18113
0.130567
0.185729
0.136773
0.127987
0.147479
0.0602769
0.157146
-0.0192298
0.163997
-0.0503555
0.16785
-0.0823035
-0.0738996
0.0947278
-0.0202069
0.0882669
-0.0166295
0.0833473
-0.0121233
0.0805903
-0.0062551
0.0808553
0.00163379
0.0846687
0.0114749
0.0920271
0.0213533
0.102781
0.0313248
0.116688
0.0405332
0.132887
0.0485094
0.149745
0.0521696
0.16508
0.0476795
0.177523
0.0366663
0.187855
0.0209886
0.197109
-0.00446569
0.201146
-0.0397443
0.197088
-0.076219
0.186437
-0.104647
0.172911
-0.122115
0.159484
-0.132944
0.148234
-0.13978
0.137992
-0.143075
0.128071
-0.147796
0.119987
-0.151875
0.111135
-0.152011
0.0968453
-0.158587
0.079619
-0.176187
0.0707535
-0.179518
0.0778298
-0.131117
0.0963882
-0.0309532
0.120003
0.0828528
0.143364
0.170528
0.163433
0.226247
0.17862
0.28009
0.187268
0.348921
0.187305
0.408138
0.1775
0.412188
0.159838
0.336866
0.138518
0.193359
0.120309
0.0134418
0.109878
-0.149034
0.106946
-0.254589
0.108023
-0.296426
0.110715
-0.289724
0.111234
-0.260327
0.10936
-0.233999
0.110099
-0.204769
0.115691
-0.152137
0.124421
-0.0752003
0.13272
0.00605106
0.136773
0.0799059
0.1347
0.14547
0.130404
0.185426
0.131047
0.185086
0.138582
0.120453
0.149735
0.0491234
0.159167
-0.0286614
0.165615
-0.056804
0.168998
-0.0856864
-0.0748012
0.136301
-0.0141007
0.131055
-0.0113832
0.126675
-0.0077437
0.123432
-0.00301239
0.121597
0.00346867
0.121952
0.0111201
0.124822
0.0184839
0.13066
0.025487
0.139537
0.0316561
0.151154
0.0368925
0.164204
0.0391193
0.176399
0.0354848
0.186662
0.0264025
0.195385
0.0122662
0.201863
-0.0109437
0.202271
-0.0401527
0.194906
-0.0688536
0.18237
-0.0921113
0.1685
-0.108246
0.155072
-0.119516
0.14374
-0.128448
0.133912
-0.133247
0.123924
-0.137808
0.115446
-0.143396
0.107499
-0.144065
0.0950297
-0.146118
0.0778272
-0.158984
0.0655266
-0.167217
0.069046
-0.134637
0.0871925
-0.0490997
0.112498
0.0575474
0.138243
0.144783
0.161332
0.203158
0.180383
0.26104
0.193559
0.335745
0.197342
0.404356
0.189481
0.420048
0.171023
0.355325
0.147751
0.21663
0.126022
0.035171
0.112816
-0.135828
0.107993
-0.249766
0.107932
-0.296365
0.110175
-0.291967
0.111349
-0.261501
0.109931
-0.23258
0.110774
-0.205612
0.116806
-0.158169
0.125779
-0.0841729
0.133543
-0.00171289
0.136523
0.0769259
0.133675
0.148317
0.129822
0.189279
0.131874
0.183034
0.140595
0.111732
0.152014
0.037705
0.161082
-0.0377294
0.167095
-0.0628173
0.170053
-0.0886441
-0.075602
0.157852
-0.00989093
0.15461
-0.00814096
0.152184
-0.0053173
0.150738
-0.00156676
0.150362
0.00384498
0.151445
0.0100368
0.15395
0.0159785
0.157933
0.0215044
0.163611
0.0259784
0.171141
0.0293618
0.179941
0.0303201
0.188275
0.0271507
0.195364
0.0193131
0.201065
0.00656512
0.203097
-0.0129754
0.199265
-0.0363205
0.189421
-0.0590105
0.176156
-0.078846
0.162755
-0.0948449
0.14997
-0.106732
0.138709
-0.117186
0.129384
-0.123923
0.119791
-0.128215
0.110969
-0.134574
0.103823
-0.136919
0.0936092
-0.135904
0.0778672
-0.143242
0.0634625
-0.152812
0.062544
-0.133718
0.078419
-0.0649747
0.104032
0.0319347
0.13132
0.117495
0.156495
0.177983
0.178479
0.239055
0.195334
0.318891
0.203353
0.396336
0.199456
0.423945
0.182737
0.372044
0.157261
0.242106
0.132819
0.0596132
0.116197
-0.119206
0.108962
-0.242531
0.107702
-0.295105
0.109364
-0.293629
0.111058
-0.263195
0.110192
-0.231715
0.110833
-0.206252
0.117021
-0.164357
0.126357
-0.0935094
0.133782
-0.0091377
0.135882
0.0748258
0.132568
0.151632
0.12947
0.192377
0.133004
0.179499
0.142757
0.101979
0.154266
0.0261956
0.16287
-0.046334
0.168424
-0.0683706
0.171006
-0.0912263
-0.0763514
0.160781
-0.00726798
0.158874
-0.00623417
0.157727
-0.00417034
0.157838
-0.00167749
0.15956
0.00212326
0.162478
0.0071189
0.166141
0.0123152
0.17056
0.017085
0.175912
0.0206264
0.182054
0.0232207
0.18848
0.0238934
0.194077
0.021554
0.198088
0.0153023
0.199834
0.00481862
0.197996
-0.0111373
0.191466
-0.02979
0.18101
-0.048555
0.168357
-0.0661923
0.15594
-0.0824285
0.144206
-0.0949979
0.13319
-0.106169
0.124274
-0.115007
0.115499
-0.11944
0.106524
-0.125599
0.0997831
-0.130178
0.0919518
-0.128073
0.0787755
-0.130066
0.0641699
-0.138207
0.0592842
-0.128832
0.0713862
-0.0770767
0.0961138
0.00720707
0.12425
0.0893588
0.151463
0.15077
0.176789
0.213729
0.197855
0.297825
0.209753
0.384438
0.207816
0.425882
0.191619
0.388241
0.165861
0.267865
0.138604
0.0868695
0.119466
-0.100067
0.110048
-0.233113
0.107567
-0.292624
0.108486
-0.294548
0.110413
-0.265121
0.11021
-0.231513
0.110486
-0.206528
0.116281
-0.170153
0.125851
-0.103079
0.133255
-0.0165419
0.134838
0.0732426
0.131457
0.155013
0.129378
0.194455
0.134402
0.174476
0.145019
0.0913619
0.156446
0.0147688
0.164511
-0.0543995
0.169592
-0.0734511
0.171852
-0.0934865
-0.0771034
0.155771
-0.00560957
0.154107
-0.00457074
0.153077
-0.00314008
0.15289
-0.00149011
0.15401
0.00100315
0.156641
0.00448802
0.160597
0.00835925
0.165594
0.0120872
0.171052
0.0151692
0.176828
0.0174438
0.182504
0.0182175
0.187196
0.0168623
0.190136
0.0123629
0.191066
0.0038883
0.187885
-0.00795616
0.181027
-0.0229328
0.171673
-0.0392001
0.160527
-0.0550465
0.149231
-0.0711326
0.138652
-0.0844187
0.128114
-0.0956309
0.119361
-0.106255
0.111576
-0.111655
0.102802
-0.116824
0.0960251
-0.123402
0.0901774
-0.122225
0.0798732
-0.119762
0.0665689
-0.124903
0.0594319
-0.121695
0.0668953
-0.0845401
0.0872045
-0.0131022
0.114113
0.0624505
0.14144
0.123443
0.168405
0.186764
0.193287
0.272943
0.210734
0.366991
0.214891
0.421725
0.202615
0.400517
0.176804
0.293675
0.147632
0.116041
0.124985
-0.0774197
0.112614
-0.220742
0.108388
-0.288398
0.108282
-0.294442
0.109923
-0.266762
0.110241
-0.231831
0.110127
-0.206414
0.114966
-0.174992
0.124355
-0.112468
0.131782
-0.0239688
0.133336
0.0716884
0.130253
0.158097
0.129411
0.195297
0.135992
0.167895
0.147353
0.0800009
0.158521
0.0036006
0.165987
-0.0618647
0.170594
-0.078059
0.17259
-0.095482
-0.0779143
0.182373
-0.00287801
-0.185105
0.1802
-0.00239798
0.178491
-0.0014303
0.177027
-2.62196e-05
0.176246
0.00178423
0.176429
0.00430422
0.177642
0.00714639
0.179792
0.00993763
0.18278
0.0121806
0.186547
0.0136769
0.191012
0.013753
0.195955
0.0119189
0.20069
0.00762754
0.204523
5.56593e-05
0.206723
-0.0101566
0.206599
-0.0228082
0.204487
-0.0370879
0.200417
-0.0509771
0.19468
-0.0653949
0.188211
-0.0779501
0.180381
-0.0878011
0.172067
-0.0979407
0.164202
-0.10379
0.154889
-0.107511
0.145453
-0.113965
0.137228
-0.114
0.126493
-0.109027
0.11104
-0.10945
0.094475
-0.10513
0.0841469
-0.074212
0.0856703
-0.0146257
0.0963662
0.0517546
0.110972
0.108837
0.124668
0.173069
0.135866
0.261745
0.14486
0.357997
0.151519
0.415066
0.154291
0.397745
0.153764
0.294203
0.152452
0.117353
0.151448
-0.0764157
0.149352
-0.218646
0.145695
-0.284741
0.14047
-0.289217
0.135282
-0.261574
0.130304
-0.226853
0.125256
-0.201366
0.123329
-0.173065
0.124979
-0.114117
0.125336
-0.0243266
0.121351
0.075674
0.116303
0.163145
0.117477
0.194123
0.127397
0.157975
0.140279
0.0671186
0.150708
-0.00682783
0.156215
-0.0673723
0.158491
-0.080335
0.158303
-0.095294
-0.0769103
0.192767
-0.00067919
-0.194966
0.190954
-0.00058511
0.189602
-7.82081e-05
0.188629
0.000946636
0.188065
0.00234836
0.188252
0.00411694
0.189312
0.00608592
0.191236
0.00801385
0.193963
0.00945434
0.197406
0.0102336
0.201326
0.00983287
0.205497
0.00774749
0.209386
0.00373924
0.212364
-0.00292227
0.213957
-0.0117499
0.213602
-0.0224537
0.211436
-0.0349216
0.207543
-0.0470837
0.201797
-0.0596495
0.195124
-0.0712763
0.187403
-0.0800805
0.178939
-0.0894764
0.170979
-0.0958307
0.161997
-0.0985291
0.152293
-0.10426
0.143541
-0.105248
0.132893
-0.0983791
0.118597
-0.095154
0.10404
-0.0905731
0.0949227
-0.0650946
0.0957763
-0.0154793
0.106124
0.0414068
0.120245
0.0947154
0.134009
0.159305
0.146206
0.249548
0.157108
0.347095
0.165945
0.40623
0.170164
0.393526
0.169757
0.294609
0.169108
0.118002
0.167978
-0.0752854
0.164547
-0.215216
0.15918
-0.279375
0.152565
-0.282601
0.146147
-0.255157
0.140677
-0.221383
0.135273
-0.195963
0.132159
-0.169951
0.132552
-0.11451
0.131883
-0.0236582
0.127408
0.080149
0.123096
0.167457
0.12653
0.190689
0.138613
0.145892
0.152316
0.0534155
0.162509
-0.0170214
0.167311
-0.0721743
0.168913
-0.0819366
0.168189
-0.0945698
-0.0756323
0.204098
0.00104389
-0.205821
0.202621
0.000891969
0.201384
0.00115882