/*--------------------------------*- C++ -*----------------------------------*\
| =========                 |                                                 |
| \\      /  F ield         | OpenFOAM: The Open Source CFD Toolbox           |
|  \\    /   O peration     | Version:  2512                                  |
|   \\  /    A nd           | Website:  www.openfoam.com                      |
|    \\/     M anipulation  |                                                 |
\*---------------------------------------------------------------------------*/
FoamFile
{
    version     2.0;
    format      ascii;
    arch        "LSB;label=32;scalar=64";
    class       volScalarField;
    location    "98";
    object      p;
}
// * * * * * * * * * * * * * * * * * * * * * * * * * * * * * * * * * * * * * //

dimensions      [0 2 -2 0 0 0 0];

internalField   nonuniform List<scalar> 
9800
(
0.0623671
0.0622653
0.0620713
0.0617943
0.0614421
0.0610219
0.0605403
0.0600031
0.0594155
0.0587827
0.0581097
0.0574013
0.0566625
0.0558983
0.0551133
0.0543123
0.0535001
0.0526811
0.0518597
0.0510396
0.0502247
0.0494183
0.0486233
0.0478425
0.0470782
0.0463323
0.0456065
0.0449022
0.0442204
0.0435618
0.0429271
0.0423165
0.0417302
0.0411682
0.0406303
0.0401162
0.0396253
0.0391573
0.0387115
0.0382872
0.0624687
0.0623676
0.0621749
0.0618996
0.0615495
0.0611315
0.0606522
0.060117
0.0595312
0.0588997
0.0582271
0.0575186
0.0567789
0.0560127
0.0552249
0.0544202
0.0536033
0.0527787
0.0519508
0.0511235
0.0503007
0.0494856
0.0486815
0.0478911
0.0471169
0.0463608
0.0456247
0.04491
0.0442179
0.0435491
0.0429044
0.0422841
0.0416883
0.0411172
0.0405705
0.0400479
0.0395492
0.0390736
0.0386207
0.0381897
0.0626608
0.062561
0.0623707
0.0620989
0.0617528
0.0613394
0.0608645
0.0603335
0.0597513
0.0591224
0.0584513
0.0577428
0.0570015
0.0562321
0.0554393
0.0546277
0.0538022
0.0529672
0.0521272
0.0512862
0.0504482
0.0496168
0.0487952
0.0479864
0.0471931
0.0464175
0.0456615
0.0449268
0.0442147
0.0435262
0.042862
0.0422227
0.0416085
0.0410195
0.0404557
0.0399168
0.0394025
0.0389122
0.0384454
0.0380013
0.0629322
0.0628345
0.062648
0.0623813
0.0620415
0.0616348
0.0611669
0.0606426
0.0600661
0.0594416
0.0587734
0.0580657
0.0573229
0.0565496
0.0557503
0.0549296
0.0540922
0.0532428
0.0523858
0.0515255
0.050666
0.0498111
0.0489644
0.048129
0.0473081
0.046504
0.045719
0.044955
0.0442136
0.043496
0.0428032
0.0421359
0.0414945
0.0408791
0.0402899
0.0397267
0.0391893
0.038677
0.0381895
0.037726
0.0632725
0.0631776
0.0629962
0.0627365
0.0624053
0.0620081
0.0615499
0.061035
0.060467
0.0598494
0.0591859
0.0584805
0.0577372
0.0569602
0.0561538
0.0553226
0.0544711
0.0536041
0.0527261
0.0518416
0.050955
0.0500702
0.0491913
0.0483217
0.0474649
0.0466238
0.0458009
0.0449985
0.0442186
0.0434626
0.0427319
0.0420273
0.0413496
0.0406991
0.040076
0.0394803
0.0389118
0.0383701
0.0378548
0.0373652
0.0636714
0.0635801
0.0634053
0.0631548
0.0628347
0.06245
0.0620048
0.0615025
0.0609462
0.0603386
0.0596827
0.0589819
0.0582397
0.0574601
0.0566471
0.0558049
0.0549381
0.0540513
0.0531493
0.0522367
0.0513181
0.0503978
0.0494801
0.0485691
0.0476687
0.0467821
0.0459125
0.0450625
0.0442345
0.0434306
0.0426524
0.0419011
0.0411776
0.0404826
0.0398166
0.0391796
0.0385716
0.0379924
0.0374416
0.0369185
0.0641192
0.0640323
0.0638658
0.0636267
0.0633207
0.0629518
0.0625232
0.0620374
0.0614965
0.0609026
0.0602578
0.0595648
0.0588266
0.0580467
0.0572285
0.0563761
0.0554938
0.0545863
0.0536583
0.0527146
0.0517599
0.050799
0.0498367
0.0488776
0.0479259
0.0469856
0.0460604
0.0451534
0.0442678
0.0434059
0.04257
0.0417617
0.0409824
0.040233
0.0395141
0.0388263
0.0381696
0.037544
0.0369492
0.0363847
0.0646066
0.0645252
0.0643686
0.0641435
0.0638546
0.0635051
0.063097
0.062632
0.0621111
0.0615353
0.060906
0.060225
0.0594946
0.0587177
0.0578972
0.0570365
0.0561399
0.0552118
0.0542569
0.0532801
0.0522864
0.0512807
0.0502686
0.0492549
0.0482448
0.0472427
0.0462529
0.0452794
0.0443259
0.0433956
0.0424912
0.041615
0.0407687
0.0399539
0.0391714
0.0384221
0.0377065
0.0370246
0.0363762
0.0357611
0.0651251
0.0650499
0.0649051
0.0646965
0.064428
0.0641017
0.0637187
0.0632791
0.0627831
0.0622307
0.0616221
0.0609582
0.0602407
0.0594714
0.0586525
0.0577869
0.0568784
0.0559313
0.0549501
0.0539395
0.0529046
0.051851
0.0507845
0.0497108
0.0486353
0.0475633
0.0465
0.0454501
0.0444182
0.0434083
0.0424238
0.0414676
0.0405423
0.0396499
0.0387918
0.0379692
0.037183
0.0364335
0.0357208
0.0350448
0.0656663
0.0655984
0.0654672
0.0652777
0.0650329
0.0647339
0.0643804
0.0639716
0.0635061
0.0629828
0.0624009
0.0617603
0.0610617
0.0603058
0.0594938
0.0586281
0.0577118
0.0567489
0.0557432
0.0546993
0.0536226
0.0525191
0.0513948
0.050256
0.0491087
0.0479591
0.0468133
0.045677
0.0445556
0.0434542
0.042377
0.0413279
0.0403102
0.0393267
0.0383794
0.0374702
0.0366003
0.0357704
0.034981
0.0342321
0.0662227
0.066163
0.0660472
0.0658795
0.0656619
0.0653941
0.0650749
0.0647022
0.0642734
0.0637855
0.0632369
0.0626269
0.0619545
0.0612189
0.0604205
0.0595609
0.0586427
0.0576686
0.0566419
0.055567
0.0544493
0.0532951
0.0521108
0.050903
0.0496782
0.0484437
0.0472065
0.0459735
0.0447512
0.0435457
0.0423623
0.0412059
0.040081
0.0389913
0.0379397
0.0369288
0.0359601
0.0350352
0.0341547
0.0333193
0.0667872
0.0667366
0.066638
0.0664947
0.0663075
0.066075
0.0657948
0.065464
0.0650779
0.0646322
0.0641246
0.0635531
0.0629151
0.0622081
0.0614314
0.0605859
0.0596731
0.0586943
0.057652
0.0565501
0.0553942
0.0541903
0.0529452
0.0516654
0.0503584
0.0490322
0.0476951
0.0463552
0.0450201
0.0436971
0.0423929
0.0411138
0.0398653
0.0386526
0.0374796
0.0363496
0.0352651
0.0342282
0.0332404
0.0323025
0.0673534
0.0673127
0.067233
0.0671166
0.0669629
0.0667694
0.0665333
0.0662499
0.0659125
0.0655162
0.0650579
0.0645338
0.0639391
0.0632699
0.0625245
0.0617029
0.0608047
0.0598296
0.0587789
0.0576563
0.0564668
0.0552164
0.0539112
0.0525582
0.0511654
0.0497419
0.048297
0.04684
0.04538
0.0439255
0.0424848
0.0410659
0.039676
0.0383214
0.0370075
0.0357389
0.0345191
0.0333509
0.0322366
0.0311778
0.0679153
0.0678854
0.0678262
0.0677391
0.0676215
0.0674708
0.0672837
0.0670527
0.0667699
0.0664304
0.0660303
0.0655631
0.0650213
0.0644002
0.0636973
0.0629109
0.0620382
0.061077
0.0600275
0.0588927
0.0576769
0.0563852
0.0550229
0.0535973
0.0521169
0.0505917
0.049032
0.0474483
0.045851
0.0442504
0.0426568
0.0410798
0.0395285
0.0380111
0.0365346
0.035105
0.0337273
0.0324056
0.0311428
0.0299417
0.0684677
0.0684493
0.0684123
0.0683562
0.068277
0.068173
0.0680392
0.0678653
0.0676427
0.0673679
0.067035
0.0666341
0.0661556
0.065594
0.0649462
0.0642078
0.0633732
0.0624381
0.0614018
0.0602661
0.0590339
0.0577086
0.0562948
0.0547995
0.0532318
0.0516024
0.0499222
0.0482029
0.0464563
0.0446948
0.0429306
0.0411757
0.0394413
0.0377378
0.036074
0.0344582
0.0328969
0.0313957
0.0299592
0.0285907
0.0690059
0.0689998
0.0689865
0.0689626
0.0689239
0.0688703
0.0687936
0.0686803
0.0685238
0.0683214
0.0680645
0.0677392
0.0673348
0.0668455
0.0662663
0.0655899
0.0648075
0.0639131
0.0629046
0.0617821
0.0605462
0.059198
0.0577412
0.0561823
0.0545305
0.0527964
0.0509918
0.0491291
0.047222
0.0452847
0.0433318
0.0413779
0.0394367
0.037521
0.0356423
0.0338113
0.0320368
0.0303266
0.0286867
0.027122
0.0695258
0.0695331
0.0695446
0.0695534
0.0695575
0.0695578
0.0695403
0.0694907
0.0694062
0.069284
0.0691108
0.06887
0.068551
0.0681475
0.0676515
0.0670519
0.0663375
0.0655006
0.0645373
0.0634449
0.0622209
0.060864
0.0593763
0.0577634
0.0560338
0.0541978
0.0522671
0.0502553
0.0481774
0.0460499
0.0438898
0.0417145
0.0395406
0.037384
0.0352594
0.0331804
0.0311589
0.0292052
0.0273275
0.0255328
0.0700238
0.0700458
0.0700827
0.0701242
0.0701739
0.0702304
0.0702728
0.0702899
0.0702836
0.0702482
0.0701655
0.0700178
0.0697957
0.0694916
0.0690937
0.068587
0.067958
0.0671975
0.0662991
0.0652566
0.0640635
0.0627158
0.0612134
0.0595603
0.0577633
0.0558315
0.0537765
0.0516123
0.0493553
0.0470241
0.0446383
0.0422181
0.0397837
0.0373545
0.0349493
0.0325852
0.0302778
0.0280407
0.0258853
0.0238208
0.0704969
0.0705353
0.0705975
0.0706719
0.07077
0.070883
0.0709849
0.0710723
0.0711496
0.0712063
0.0712201
0.0711741
0.0710601
0.0708683
0.0705831
0.0701861
0.0696616
0.0689985
0.0681872
0.0672169
0.0660773
0.0647608
0.0632645
0.0615896
0.0597402
0.0577234
0.0555499
0.0532337
0.0507922
0.0482455
0.0456159
0.0429267
0.040202
0.0374656
0.0347407
0.0320492
0.0294112
0.0268447
0.0243647
0.021984
0.0709427
0.0709995
0.0710861
0.0711941
0.071343
0.0715103
0.0716713
0.0718329
0.0719982
0.072151
0.0722664
0.0723301
0.0723346
0.0722671
0.0721087
0.0718387
0.0714391
0.0708959
0.0701956
0.0693228
0.0682627
0.0670039
0.0655395
0.0638665
0.0619852
0.0598998
0.0576188
0.0551556
0.0525277
0.0497565
0.0468663
0.0438839
0.0408375
0.037756
0.034668
0.0316011
0.0285811
0.0256314
0.0227721
0.0200204
0.0713592
0.071437
0.0715464
0.0716899
0.0718899
0.072107
0.0723281
0.0725675
0.0728233
0.073075
0.0732964
0.0734771
0.0736091
0.0736767
0.0736585
0.0735324
0.0732784
0.072879
0.0723157
0.0715682
0.0706173
0.069447
0.0680454
0.0664039
0.0645175
0.0623864
0.0600156
0.0574165
0.0546055
0.0516044
0.0484393
0.0451401
0.0417395
0.0382718
0.0347723
0.0312754
0.027814
0.0244183
0.0211152
0.0179279
0.0717445
0.0718467
0.0719773
0.0721588
0.0724068
0.0726686
0.0729526
0.0732719
0.0736195
0.0739716
0.0743025
0.0746064
0.0748733
0.0750853
0.0752201
0.075254
0.0751657
0.074934
0.0745352
0.0739435
0.0731348
0.0720882
0.0707855
0.0692113
0.0673541
0.0652079
0.0627729
0.0600562
0.0570721
0.0538413
0.0503908
0.046753
0.042965
0.0390674
0.0351026
0.0311135
0.0271418
0.0232266
0.0194034
0.0157032
0.0720972
0.0722288
0.0723789
0.0726004
0.0728892
0.0731927
0.0735431
0.0739421
0.0743819
0.074835
0.0752774
0.0757094
0.0761163
0.0764813
0.0767803
0.0769895
0.0770856
0.0770447
0.0768381
0.0764347
0.0758049
0.0749212
0.0737587
0.0722942
0.0705082
0.0683866
0.0659222
0.063116
0.0599774
0.0565245
0.0527836
0.0487886
0.0445808
0.0402068
0.0357174
0.0311654
0.0266034
0.0220819
0.0176476
0.013342
0.0724158
0.0725842
0.0727514
0.0730136
0.0733324
0.0736788
0.074098
0.0745748
0.0751069
0.0756593
0.0762148
0.0767778
0.077328
0.0778532
0.0783258
0.0787238
0.0790215
0.0791931
0.0792055
0.0790236
0.0786116
0.0779343
0.0769587
0.075653
0.0739883
0.0719407
0.069493
0.0666367
0.0633737
0.0597163
0.055688
0.0513227
0.0466643
0.0417658
0.0366866
0.0314912
0.0262456
0.0210149
0.0158603
0.0108375
0.0726999
0.0729142
0.0730947
0.0733966
0.0737334
0.0741288
0.0746152
0.0751678
0.0757908
0.0764394
0.0771088
0.0778036
0.0784988
0.0791902
0.0798425
0.0804417
0.0809552
0.0813598
0.0816164
0.0816885
0.0815335
0.0811092
0.0803727
0.0792817
0.0777973
0.0758835
0.0735104
0.0706573
0.067314
0.0634834
0.0591823
0.0544418
0.0493068
0.0438349
0.0380949
0.0321643
0.0261255
0.0200621
0.0140547
0.00817809
0.0729517
0.0732199
0.0734069
0.0737467
0.0740908
0.074546
0.0750917
0.0757209
0.0764297
0.0771715
0.0779545
0.0787799
0.0796202
0.0804818
0.081317
0.0821281
0.0828675
0.0835248
0.0840471
0.0844051
0.0845443
0.084421
0.0839795
0.0831667
0.0819307
0.0802212
0.0779942
0.0752125
0.07185
0.0678949
0.0633519
0.0582445
0.0526148
0.046523
0.0400463
0.0332764
0.026315
0.0192691
0.0122454
0.00534471
0.0731756
0.0735001
0.0736849
0.074062
0.0744066
0.0749327
0.0755246
0.0762352
0.0770184
0.077854
0.0787466
0.079701
0.0806847
0.0817183
0.0827363
0.0837686
0.0847388
0.0856677
0.0864716
0.0871477
0.0876136
0.0878404
0.0877484
0.0872844
0.0863734
0.0849521
0.0829571
0.0803321
0.0770307
0.0730202
0.068287
0.0628397
0.0567112
0.0499601
0.0426689
0.0349433
0.0269073
0.0186969
0.0104527
0.00231187
0.0733779
0.0737506
0.0739266
0.0743415
0.0746848
0.0752899
0.0759128
0.0767113
0.0775526
0.0784873
0.0794793
0.0805637
0.0816844
0.0828915
0.084088
0.0853495
0.0865494
0.0877687
0.0888615
0.0898893
0.0907054
0.091335
0.0916404
0.0916017
0.0910949
0.0900626
0.0884012
0.08604
0.0829019
0.0789296
0.0740824
0.0683454
0.061734
0.0542967
0.0461161
0.0373086
0.0280213
0.0184253
0.0087056
-0.000951288
0.0735649
0.0739651
0.0741327
0.0745844
0.0749309
0.0756153
0.0762581
0.0771476
0.0780312
0.0790719
0.0801482
0.0813659
0.082612
0.0839945
0.0853607
0.086858
0.0882802
0.0898081
0.091187
0.0926023
0.0937784
0.0948695
0.0956059
0.0960795
0.096046
0.0955243
0.094306
0.0923505
0.0895032
0.0856987
0.0808436
0.0748965
0.0678415
0.059707
0.0505674
0.0405432
0.0298009
0.0185511
0.00703546
-0.00449077
0.0737417
0.0741384
0.0743063
0.0747902
0.0751514
0.0759045
0.0765652
0.0775395
0.0784578
0.0796049
0.0807533
0.0821047
0.0834636
0.0850207
0.086546
0.0882812
0.0899158
0.0917653
0.0934208
0.0952573
0.0967887
0.098405
0.0995848
0.100672
0.101159
0.101292
0.100613
0.0992559
0.0968424
0.0934037
0.0886851
0.0826634
0.0752357
0.0664148
0.0562505
0.0448594
0.0324231
0.0191891
0.0054683
-0.00838991
0.0739108
0.0742679
0.0744511
0.0749589
0.0753516
0.0761529
0.0768395
0.0778815
0.0788386
0.0800807
0.081299
0.0827735
0.0842408
0.0859611
0.0876421
0.0896036
0.0914489
0.0936149
0.0955454
0.0978171
0.0997017
0.101893
0.103518
0.105323
0.106347
0.107307
0.107227
0.106714
0.104854
0.102089
0.0976736
0.0918493
0.0841689
0.0747477
0.0635016
0.0505702
0.0361455
0.0205066
0.00404633
-0.0127741
0.0740724
0.0743554
0.0745713
0.0750917
0.0755345
0.0763585
0.0770859
0.0781701
0.0791802
0.0804933
0.0817911
0.0833643
0.0849484
0.0868039
0.0886521
0.0908061
0.0928798
0.0953252
0.0975561
0.100232
0.102502
0.105264
0.107369
0.109943
0.111547
0.113479
0.114046
0.114648
0.113413
0.111737
0.107732
0.102615
0.0948094
0.0851492
0.0727911
0.0581975
0.0414053
0.0227995
0.00288817
-0.017778
0.0742239
0.0744057
0.0746691
0.0751918
0.0757012
0.0765229
0.0773069
0.0784063
0.0794865
0.0808416
0.0822343
0.0838733
0.0855903
0.0875415
0.0895789
0.0918735
0.0942102
0.096867
0.0994525
0.10245
0.105184
0.108428
0.111127
0.114402
0.11673
0.119635
0.121022
0.122883
0.122441
0.122215
0.118731
0.11497
0.107057
0.0980238
0.0844153
0.0685559
0.0488383
0.026592
0.00221869
-0.0235738
0.0743604
0.0744257
0.0747465
0.0752637
0.0758497
0.0766499
0.0775022
0.0785946
0.0797582
0.08113
0.082629
0.0843044
0.0861663
0.0881765
0.0904198
0.0928048
0.0954342
0.0982306
0.101225
0.104442
0.107737
0.111327
0.114775
0.118583
0.12188
0.125577
0.128144
0.131126
0.131981
0.133209
0.130747
0.128671
0.120865
0.113374
0.0982449
0.082581
0.0588238
0.0328907
0.00219735
-0.0305449
0.0744767
0.0744232
0.0748059
0.0753125
0.0759789
0.0767447
0.0776692
0.078742
0.0799926
0.0813657
0.0829716
0.0846656
0.0866706
0.088718
0.0911651
0.0936101
0.096535
0.0994249
0.102847
0.106213
0.110117
0.113951
0.118251
0.122456
0.126921
0.131224
0.135355
0.139189
0.142038
0.14441
0.144093
0.143337
0.136899
0.130834
0.11453
0.10022
0.07127
0.0440477
0.0026471
-0.0388943
0.0745693
0.0744053
0.0748493
0.075342
0.0760814
0.0768122
0.0778063
0.078855
0.0801876
0.0815555
0.0832594
0.0849649
0.0870987
0.0891762
0.0918053
0.0943033
0.0974938
0.100468
0.104284
0.107783
0.112275
0.116313
0.121489
0.126001
0.131755
0.136522
0.1425
0.147031
0.152412
0.155741
0.158698
0.158854
0.156095
0.150264
0.135541
0.120833
0.0872033
0.060392
0.00295465
-0.0460064
0.0746378
0.0743771
0.0748778
0.0753554
0.0761592
0.076857
0.0779124
0.078939
0.0803417
0.0817054
0.0834903
0.0852097
0.0874472
0.0895605
0.0923332
0.0948971
0.0982941
0.10138
0.1055
0.109179
0.11413
0.118451
0.124332
0.129273
0.136137
0.14152
0.149272
0.15461
0.162802
0.166985
0.174259
0.17511
0.178281
0.172336
0.163869
0.144778
0.112409
0.0793771
0.00527926
-0.0460424
0.0746833
0.0743423
0.0748921
0.0753549
0.0762128
0.0768824
0.0779887
0.0789974
0.0804563
0.0818194
0.0836666
0.0854045
0.0877193
0.0898759
0.0927532
0.0953964
0.0989417
0.102163
0.1065
0.110403
0.115677
0.120367
0.126742
0.13228
0.139914
0.146243
0.155238
0.161993
0.172271
0.178379
0.189394
0.19232
0.202316
0.196561
0.199749
0.175404
0.153815
0.100195
0.02078
-0.0458381
0.0747074
0.0743028
0.0748929
0.0753423
0.0762433
0.0768906
0.0780367
0.0790325
0.0805337
0.0818998
0.0837919
0.085552
0.0879201
0.0901248
0.0930729
0.0958015
0.0994478
0.102811
0.107299
0.111437
0.116942
0.122018
0.128749
0.134931
0.143123
0.15053
0.160403
0.168972
0.180641
0.189758
0.20304
0.210597
0.22467
0.224812
0.237546
0.214742
0.215089
0.130075
0.0585349
-0.109087
0.0747123
0.0742592
0.0748809
0.0753188
0.0762522
0.076883
0.0780583
0.0790458
0.0805766
0.0819485
0.0838701
0.0856542
0.088055
0.0903089
0.0932991
0.0961131
0.0998206
0.103323
0.107908
0.112269
0.117933
0.123369
0.130368
0.137136
0.145783
0.15417
0.164806
0.175058
0.187975
0.200087
0.215295
0.228426
0.245204
0.255904
0.272066
0.267479
0.279224
0.207196
0.172981
-0.240304
0.0378939
0.0375236
0.037159
0.0368005
0.0364484
0.0361028
0.035764
0.0354323
0.0351079
0.0347909
0.0377903
0.0374144
0.0370444
0.0366808
0.0363237
0.0359735
0.0356304
0.0352946
0.0349663
0.0346459
0.0375901
0.0372032
0.0368226
0.0364489
0.0360822
0.0357229
0.0353712
0.0350274
0.0346918
0.0343647
0.0372971
0.0368937
0.0364974
0.0361085
0.0357274
0.0353545
0.03499
0.0346343
0.0342877
0.0339505
0.0369123
0.0364869
0.0360692
0.03566
0.0352595
0.0348682
0.0344864
0.0341146
0.0337531
0.0334023
0.0364352
0.0359814
0.0355365
0.0351011
0.0346757
0.0342608
0.0338568
0.0334642
0.0330836
0.0327153
0.0358634
0.0353744
0.0348955
0.0344275
0.033971
0.0335266
0.0330949
0.0326765
0.0322719
0.0318817
0.0351934
0.0346614
0.0341409
0.033633
0.0331384
0.0326578
0.0321921
0.0317418
0.0313078
0.0308908
0.0344212
0.0338371
0.0332663
0.03271
0.0321691
0.0316447
0.0311376
0.0306487
0.030179
0.0297293
0.0335415
0.032895
0.0322637
0.0316493
0.0310528
0.0304755
0.0299185
0.0293831
0.0288702
0.028381
0.0325488
0.0318279
0.0311244
0.0304404
0.0297773
0.0291366
0.0285199
0.0279285
0.0273639
0.0268274
0.0314373
0.0306279
0.0298385
0.0290715
0.0283289
0.0276126
0.0269244
0.0262662
0.0256397
0.0250467
0.0302006
0.0292864
0.0283949
0.0275294
0.0266922
0.0258859
0.0251127
0.0243748
0.0236745
0.0230141
0.0288324
0.0277941
0.0267817
0.0257993
0.02485
0.0239367
0.0230623
0.0222298
0.0214419
0.0207013
0.0273257
0.026141
0.0249858
0.023865
0.0227827
0.0217427
0.0207484
0.0198036
0.0189117
0.0180762
0.0256737
0.0243164
0.0229924
0.0217081
0.0204685
0.0192784
0.0181423
0.0170646
0.0160498
0.0151021
0.0238691
0.0223084
0.0207853
0.0193079
0.0178825
0.0165151
0.0152113
0.0139768
0.012817
0.0117371
0.021904
0.0201039
0.0183461
0.0166408
0.0149961
0.0134196
0.0119181
0.0104989
0.00916852
0.00793348
0.0197697
0.0176877
0.0156532
0.0136793
0.0117761
0.0099533
0.00821933
0.00658313
0.00505284
0.00363637
0.0174563
0.0150422
0.0126817
0.0103911
0.00818352
0.006071
0.00406414
0.00217401
0.000410339
-0.0012171
0.0149517
0.0121462
0.00940101
0.00673727
0.0041714
0.00171881
-0.000607447
-0.00279363
-0.00482817
-0.00669941
0.0122408
0.00897281
0.00577351
0.00266976
-0.000317351
-0.00316845
-0.00586718
-0.00839683
-0.0107437
-0.0128941
0.00930409
0.00548808
0.0017513
-0.0018718
-0.00535402
-0.00867092
-0.0118023
-0.0147277
-0.0174316
-0.0198983
0.00611561
0.00164784
-0.00272723
-0.00696461
-0.0110288
-0.014889
-0.0185199
-0.0218978
-0.0250046
-0.0278238
0.00263938
-0.00260708
-0.00774296
-0.0127088
-0.0174574
-0.0219496
-0.0261537
-0.0300426
-0.0335966
-0.0368001
-0.00117638
-0.00735906
-0.0134061
-0.0192378
-0.0247911
-0.0300152
-0.034871
-0.0393279
-0.0433664
-0.0469753
-0.00540346
-0.0127229
-0.0198697
-0.0267351
-0.0332339
-0.0393001
-0.0448855
-0.0499579
-0.0545017
-0.0585155
-0.0101353
-0.0188524
-0.0273419
-0.0354513
-0.0430627
-0.05009
-0.056475
-0.0621881
-0.067225
-0.0716049
-0.0154997
-0.0259558
-0.0361043
-0.0457243
-0.0546487
-0.0627615
-0.0699961
-0.0763337
-0.0817972
-0.0864445
-0.0216964
-0.0343434
-0.0465627
-0.0580287
-0.0684974
-0.0778101
-0.0858957
-0.0927656
-0.0984997
-0.103228
-0.0290359
-0.0444962
-0.059338
-0.0730724
-0.0853358
-0.0959123
-0.104742
-0.111911
-0.117611
-0.122095
-0.0379295
-0.0570965
-0.0753489
-0.091911
-0.10622
-0.118005
-0.127275
-0.134282
-0.139421
-0.143133
-0.048879
-0.0730572
-0.0959112
-0.116055
-0.132604
-0.145305
-0.154404
-0.160493
-0.164285
-0.166447
-0.0626741
-0.0938756
-0.123073
-0.147624
-0.166325
-0.179198
-0.187069
-0.191123
-0.192488
-0.192069
-0.0811082
-0.122853
-0.16029
-0.189538
-0.209584
-0.221135
-0.226053
-0.226405
-0.223846
-0.219575
-0.110174
-0.168307
-0.214122
-0.246626
-0.265972
-0.273569
-0.272643
-0.266505
-0.257529
-0.247375
-0.161874
-0.243274
-0.295695
-0.326917
-0.340105
-0.339122
-0.328353
-0.311729
-0.292401
-0.272844
-0.234306
-0.345576
-0.412092
-0.433158
-0.428222
-0.413099
-0.390889
-0.361487
-0.328408
-0.296361
-0.323009
-0.424071
-0.560945
-0.558059
-0.500812
-0.449002
-0.406269
-0.368143
-0.332506
-0.29846
-0.770329
-0.469129
-0.582465
-0.576168
-0.544414
-0.4852
-0.42781
-0.377615
-0.336973
-0.303782
0.034464
0.0341254
0.0337893
0.0334564
0.0331276
0.0328038
0.0324857
0.0321743
0.0318704
0.0315749
0.0312885
0.0310121
0.0307462
0.0304917
0.0302489
0.0300185
0.0298004
0.0295951
0.0294023
0.0292219
0.0290531
0.0288955
0.0287477
0.0286089
0.0284768
0.0283502
0.028226
0.0281025
0.0279758
0.0278437
0.0277019
0.0275479
0.0273764
0.0271845
0.0269666
0.0267197
0.0264379
0.0261181
0.0257542
0.0253431
0.0248789
0.0243585
0.0237759
0.0231282
0.022409
0.0216164
0.0207434
0.0197889
0.0187454
0.0176133
0.0163853
0.0150634
0.0136416
0.0121241
0.0105074
0.0087975
0.00699373
0.00510238
0.0031229
0.00105894
0.0343158
0.0339741
0.0336353
0.0333003
0.0329698
0.0326448
0.0323262
0.0320148
0.0317117
0.0314176
0.0311334
0.03086
0.030598
0.0303483
0.030111
0.0298871
0.0296763
0.0294792
0.0292953
0.0291247
0.0289664
0.0288199
0.0286838
0.0285571
0.0284375
0.0283235
0.028212
0.0281011
0.0279868
0.0278668
0.0277366
0.0275936
0.0274323
0.0272498
0.0270404
0.026801
0.0265258
0.0262116
0.0258522
0.0254448
0.0249834
0.0244651
0.0238837
0.0232365
0.0225172
0.0217239
0.0208493
0.0198926
0.0188459
0.0177098
0.0164764
0.0151483
0.0137186
0.0121926
0.0105662
0.00884615
0.00703179
0.00512961
0.00313929
0.00106445
0.0340282
0.0336805
0.0333366
0.0329972
0.0326634
0.0323361
0.0320164
0.0317052
0.0314035
0.0311124
0.0308326
0.0305652
0.0303108
0.0300703
0.029844
0.0296327
0.0294363
0.0292552
0.029089
0.0289375
0.0287996
0.028675
0.0285616
0.0284586
0.0283632
0.0282738
0.0281869
0.0281004
0.02801
0.0279134
0.0278056
0.0276836
0.0275417
0.027377
0.0271836
0.0269584
0.0266955
0.0263916
0.0260407
0.0256398
0.0251835
0.0246687
0.0240895
0.0234432
0.0227236
0.0219288
0.0210513
0.0200905
0.0190378
0.0178939
0.0166504
0.0153102
0.0138658
0.0123232
0.0106782
0.0089385
0.00710406
0.00518131
0.00317079
0.00107496
0.0336044
0.0332478
0.0328961
0.0325503
0.0322116
0.0318809
0.0315595
0.0312486
0.0309492
0.0306625
0.0303894
0.030131
0.029888
0.0296615
0.0294517
0.0292595
0.0290846
0.0289276
0.0287877
0.0286648
0.0285576
0.0284653
0.0283858
0.0283179
0.0282584
0.0282053
0.0281547
0.0281041
0.0280489
0.0279864
0.027911
0.0278192
0.0277052
0.0275658
0.0273951
0.0271896
0.0269435
0.0266536
0.0263142
0.0259221
0.0254724
0.024962
0.0243856
0.0237402
0.0230199
0.0222229
0.0213413
0.0203747
0.0193136
0.0181587
0.016901
0.0155432
0.0140772
0.0125106
0.0108384
0.00907018
0.0072068
0.00525457
0.00321535
0.00108965
0.0330432
0.0326746
0.0323124
0.031958
0.0316125
0.0312774
0.0309538
0.0306433
0.0303471
0.0300664
0.0298025
0.0295564
0.0293291
0.0291215
0.0289342
0.0287678
0.0286223
0.0284978
0.0283936
0.0283093
0.0282433
0.0281946
0.0281606
0.0281396
0.0281278
0.028123
0.0281204
0.0281173
0.0281084
0.0280904
0.0280568
0.028004
0.0279256
0.0278183
0.0276757
0.0274944
0.0272686
0.0269953
0.0266692
0.0262871
0.0258445
0.0253387
0.024765
0.0241202
0.0233988
0.022599
0.0217121
0.0207387
0.0196671
0.0184987
0.0172229
0.0158424
0.0143483
0.01275
0.0110422
0.00923682
0.00733627
0.00534633
0.00327067
0.00110768
0.0323395
0.0319554
0.0315798
0.0312143
0.0308602
0.0305194
0.0301932
0.0298834
0.0295913
0.0293186
0.0290666
0.0288366
0.0286296
0.0284468
0.0282885
0.0281556
0.0280478
0.0279653
0.027907
0.0278723
0.027859
0.0278659
0.0278895
0.0279278
0.0279764
0.0280324
0.0280904
0.0281468
0.0281954
0.0282321
0.0282493
0.0282436
0.0282078
0.0281382
0.0280283
0.0278745
0.0276713
0.0274156
0.0271033
0.0267313
0.0262954
0.0257934
0.0252217
0.0245768
0.0238537
0.0230506
0.0221576
0.0211767
0.020093
0.0189093
0.0176122
0.0162041
0.0146753
0.0130374
0.0112853
0.00943394
0.00748863
0.00545329
0.00333429
0.00112818
0.0314851
0.0310816
0.0306893
0.0303099
0.0299452
0.0295973
0.029268
0.0289591
0.0286725
0.0284101
0.0281732
0.0279636
0.0277824
0.0276307
0.027509
0.0274181
0.0273577
0.0273277
0.027327
0.0273545
0.0274067
0.0274822
0.0275772
0.027689
0.027812
0.0279423
0.0280727
0.0282013
0.0283184
0.0284197
0.0284967
0.0285457
0.0285585
0.0285311
0.028457
0.0283323
0.0281527
0.0279142
0.0276148
0.0272512
0.0268207
0.0263207
0.0257497
0.0251035
0.024378
0.0235711
0.0226717
0.0216839
0.0205868
0.0193868
0.0180656
0.0166253
0.015055
0.0133692
0.0115636
0.00965702
0.00765995
0.00557146
0.00340341
0.00115044
0.0304686
0.0300413
0.0296284
0.0292321
0.0288545
0.028498
0.028165
0.0278576
0.027578
0.0273284
0.0271107
0.0269265
0.0267774
0.0266645
0.0265883
0.0265495
0.0265473
0.0265838
0.0266532
0.0267547
0.0268865
0.027046
0.027228
0.0274287
0.0276409
0.0278602
0.0280786
0.0282912
0.028488
0.028664
0.0288092
0.0289199
0.028986
0.0290039
0.028967
0.0288714
0.0287145
0.0284909
0.0282021
0.0278434
0.0274156
0.0269151
0.0263427
0.0256934
0.0249651
0.0241541
0.0232486
0.0222552
0.0211445
0.0199292
0.0185815
0.0171042
0.0154845
0.0137417
0.0118726
0.00990146
0.00784642
0.00569589
0.00347497
0.00117398
0.029276
0.0288198
0.028382
0.0279651
0.0275719
0.0272052
0.0268678
0.0265625
0.0262918
0.0260583
0.0258642
0.0257117
0.0256023
0.0255375
0.0255179
0.0255445
0.0256147
0.0257256
0.0258784
0.0260712
0.0263
0.0265607
0.026847
0.0271537
0.0274716
0.0277962
0.0281175
0.0284283
0.0287162
0.0289772
0.0291988
0.0293771
0.0294999
0.0295648
0.0295645
0.0294959
0.0293591
0.0291451
0.0288623
0.0285033
0.0280744
0.0275699
0.0269937
0.0263394
0.0256078
0.0247922
0.0238821
0.0228852
0.0217619
0.0205344
0.0191593
0.0176409
0.0159615
0.0141512
0.0122065
0.0101621
0.00804357
0.00582073
0.00354643
0.00119862
0.0278903
0.0273993
0.0269314
0.0264899
0.026078
0.0256992
0.0253569
0.0250543
0.0247948
0.0245812
0.0244163
0.0243023
0.0242415
0.0242361
0.024284
0.0243843
0.0245381
0.0247444
0.0250005
0.025304
0.025649
0.0260306
0.0264404
0.026872
0.0273146
0.0277628
0.0282026
0.0286258
0.0290175
0.0293742
0.0296795
0.0299302
0.0301113
0.0302232
0.0302563
0.0302095
0.0300834
0.0298746
0.0295923
0.0292258
0.028791
0.0282776
0.0276942
0.0270333
0.0262978
0.0254772
0.0245654
0.0235681
0.0224346
0.0212002
0.0197987
0.0182357
0.0164847
0.0145946
0.0125592
0.0104335
0.00824477
0.00593875
0.00361663
0.00122443
0.0262916
0.0257589
0.025255
0.024784
0.0243499
0.0239569
0.023609
0.0233103
0.0230648
0.0228757
0.0227466
0.02268
0.0226784
0.0227398
0.0228669
0.0230595
0.0233172
0.0236378
0.0240176
0.0244529
0.0249358
0.0254604
0.0260157
0.0265938
0.0271824
0.0277732
0.0283484
0.0289006
0.0294092
0.0298718
0.0302674
0.0305942
0.0308337
0.0309901
0.0310506
0.0310191
0.0308964
0.0306799
0.0303884
0.0300051
0.0295586
0.0290298
0.0284352
0.0277654
0.0270251
0.0261998
0.0252908
0.0242962
0.0231581
0.021925
0.0205002
0.0188879
0.0170504
0.0150671
0.012924
0.0107099
0.00844077
0.00604177
0.00368522
0.00125097
0.0244571
0.0238745
0.0233278
0.0228217
0.0223613
0.0219516
0.0215977
0.0213042
0.021076
0.0209172
0.0208316
0.020822
0.020888
0.0210322
0.0212562
0.0215603
0.0219424
0.0223994
0.0229263
0.0235177
0.0241635
0.0248561
0.0255818
0.0263313
0.027089
0.0278434
0.0285724
0.0292676
0.0299093
0.0304883
0.0309807
0.0313858
0.0316819
0.0318774
0.0319548
0.0319274
0.0317936
0.0315574
0.0312446
0.0308332
0.0303683
0.0298159
0.0292064
0.0285256
0.0277779
0.0269494
0.0260488
0.0250599
0.0239262
0.0227068
0.0212664
0.0195973
0.0176525
0.0155598
0.0132926
0.0109834
0.00861931
0.00612175
0.0037511
0.0012761
0.0223604
0.0217185
0.0211209
0.0205733
0.020082
0.0196529
0.0192923
0.0190058
0.0187994
0.0186774
0.0186442
0.0186999
0.0188491
0.0190938
0.0194353
0.0198727
0.0204029
0.0210219
0.0217229
0.0224982
0.0233355
0.024225
0.0251494
0.026098
0.0270503
0.0279916
0.0288968
0.0297547
0.0305419
0.031246
0.0318404
0.0323237
0.0326715
0.0328964
0.0329766
0.0329374
0.0327735
0.0325024
0.0321522
0.0316996
0.0312086
0.0306233
0.0299966
0.0293026
0.0285438
0.027714
0.0268276
0.0258465
0.0247304
0.0235419
0.022101
0.0203632
0.018282
0.0160603
0.0136523
0.0112409
0.00876654
0.00617157
0.00380931
0.00129461
0.0199716
0.0192593
0.0186014
0.0180049
0.0174773
0.0170258
0.0166581
0.0163809
0.0162011
0.0161231
0.0161502
0.0162867
0.0165367
0.0169023
0.0173843
0.0179806
0.0186867
0.0194974
0.0204035
0.0213949
0.0224564
0.0235753
0.0247304
0.0259087
0.0270834
0.0282374
0.029345
0.0303835
0.0313302
0.0321686
0.0328694
0.0334293
0.0338211
0.0340598
0.0341232
0.0340506
0.0338322
0.0335063
0.0330982
0.032591
0.0320653
0.0314367
0.0307939
0.0300842
0.0293036
0.0284816
0.0276091
0.0266376
0.025559
0.0244238
0.0230074
0.0211799
0.0189251
0.0165531
0.0139845
0.0114589
0.00886754
0.00618551
0.00384963
0.00129839
0.0172564
0.0164609
0.015732
0.0150779
0.014508
0.0140307
0.0136554
0.01339
0.0132418
0.0132157
0.0133171
0.013551
0.0139223
0.0144326
0.0150816
0.0158661
0.0167802
0.017817
0.018964
0.0202085
0.0215312
0.0229161
0.024338
0.0257796
0.0272065
0.028601
0.0299293
0.0311754
0.0322984
0.0332822
0.0340933
0.0347253
0.0351491
0.0353808
0.0354024
0.0352656
0.0349615
0.0345549
0.0340644
0.0334902
0.0329207
0.0322391
0.0315854
0.0308541
0.0300422
0.0292322
0.0283683
0.027409
0.0263936
0.025339
0.0239856
0.0220324
0.01956
0.0170155
0.0142604
0.0116022
0.00890379
0.0061533
0.00385568
0.00127887
0.014176
0.0132825
0.0124701
0.0117487
0.0111296
0.0106225
0.0102386
0.00998636
0.00987902
0.00991642
0.0101071
0.0104577
0.0109739
0.0116561
0.012503
0.0135098
0.014669
0.0159712
0.0174002
0.0189396
0.0205655
0.022258
0.0239861
0.0257277
0.027442
0.0291091
0.0306873
0.0321592
0.0334743
0.0346149
0.0355391
0.0362378
0.0366768
0.0368742
0.0368196