/*--------------------------------*- C++ -*----------------------------------*\
| =========                 |                                                 |
| \\      /  F ield         | OpenFOAM: The Open Source CFD Toolbox           |
|  \\    /   O peration     | Version:  2312                                  |
|   \\  /    A nd           | Website:  www.openfoam.com                      |
|    \\/     M anipulation  |                                                 |
\*---------------------------------------------------------------------------*/
FoamFile
{
    version     2.0;
    format      ascii;
    arch        "LSB;label=32;scalar=64";
    class       surfaceScalarField;
    location    "110.6";
    object      phi;
}
// * * * * * * * * * * * * * * * * * * * * * * * * * * * * * * * * * * * * * //

dimensions      [0 3 -1 0 0 0 0];

oriented        oriented;

internalField   nonuniform List<scalar> 
10785
(
0.000527681
0.00311157
-0.00363925
0.00238521
0.00265317
-0.0045107
0.00746209
-0.00375084
-0.00132603
0.018151
-0.0169186
0.00622966
0.0358752
-0.0367075
0.0189833
0.0598041
-0.0606857
0.0367567
0.0872962
-0.085226
0.0577338
0.115109
-0.107223
0.0794104
0.140459
-0.124774
0.099425
0.162067
-0.13762
0.116011
0.179177
-0.146251
0.129141
0.192731
-0.151713
0.138158
0.204239
-0.156131
0.144623
0.213812
-0.159126
0.149552
-0.163224
0.15212
0.224916
0.000763497
0.00234808
0.00434689
-0.000930226
0.0135036
-0.0129076
0.0305168
-0.0339318
0.0545874
-0.060778
0.0819578
-0.0880561
0.108286
-0.111554
0.130374
-0.129312
0.147075
-0.141475
0.158833
-0.149378
0.167301
-0.154719
0.174935
-0.159347
0.182836
-0.164032
0.192845
-0.169135
-0.17616
0.205782
0.00105448
0.0012936
0.00702426
-0.00690001
0.0213914
-0.0272748
0.0441418
-0.0566821
0.0704918
-0.087128
0.0949122
-0.112477
0.113962
-0.130604
0.127045
-0.142395
0.135629
-0.150059
0.142058
-0.155807
0.14857
-0.161231
0.156135
-0.166912
0.16508
-0.172977
0.175484
-0.179539
-0.186335
0.185659
0.00177568
-0.000482087
0.0112175
-0.0163418
0.030743
-0.0468003
0.0553982
-0.0813374
0.078167
-0.109897
0.0951711
-0.129481
0.106269
-0.141701
0.113494
-0.14962
0.119214
-0.155779
0.124999
-0.161592
0.131208
-0.16744
0.137769
-0.173472
0.144521
-0.179729
0.151313
-0.186332
-0.193565
0.158543
0.00303426
-0.00351635
0.0165591
-0.0298667
0.0384879
-0.068729
0.0600461
-0.102896
0.0761115
-0.125962
0.0863784
-0.139748
0.0929198
-0.148243
0.097842
-0.154542
0.1023
-0.160237
0.106587
-0.165879
0.110885
-0.171738
0.1154
-0.177987
0.12038
-0.184709
0.126176
-0.192129
-0.199907
0.132519
0.00480541
-0.00832176
0.0213807
-0.0464419
0.0416805
-0.0890289
0.0577063
-0.118921
0.067904
-0.13616
0.0739851
-0.145829
0.0779558
-0.152213
0.081037
-0.157624
0.0838027
-0.163003
0.0866431
-0.168719
0.0897836
-0.174878
0.0932908
-0.181495
0.0971478
-0.188566
0.101024
-0.196005
-0.203665
0.104782
0.00678133
-0.0151031
0.0239896
-0.0636503
0.0402199
-0.105259
0.050954
-0.129656
0.0569062
-0.142112
0.0600969
-0.149019
0.0620635
-0.15418
0.0636341
-0.159194
0.0651871
-0.164556
0.0668035
-0.170335
0.0684616
-0.176536
0.070171
-0.183204
0.0719481
-0.190343
0.0738995
-0.197957
-0.205874
0.0761088
0.00831351
-0.0234166
0.0236784
-0.0790151
0.0355012
-0.117082
0.0419168
-0.136071
0.0447071
-0.144902
0.0457692
-0.150082
0.0461976
-0.154608
0.0464035
-0.1594
0.0464726
-0.164625
0.0464587
-0.170321
0.0464511
-0.176529
0.0465198
-0.183273
0.0467126
-0.190536
0.0469642
-0.198208
0.0472926
-0.206203
-0.00137376
-0.0122216
0.0135953
-0.00529693
-0.0255607
0.0294839
-0.0111351
-0.0318206
0.0376587
-0.0181334
-0.0357397
0.042738
-0.0257123
-0.0400915
0.0476704
-0.0333696
-0.0452376
0.052895
-0.0404956
-0.0504909
0.0576169
-0.0463271
-0.0549987
0.0608302
-0.0500129
-0.0578423
0.0615282
-0.0507054
-0.0580652
0.0587576
-0.0477549
-0.0547778
0.0518273
-0.0406709
-0.0471483
0.0400643
-0.0294511
-0.0343337
0.0231139
-0.0138849
-0.015321
-0.000245221
0.00869802
0.00632089
-0.0289038
-0.00268514
-0.00953642
-0.00838886
-0.019857
-0.0159103
-0.0242991
-0.0247085
-0.0269415
-0.0345399
-0.0302602
-0.0451495
-0.034628
-0.0560972
-0.0395431
-0.0667247
-0.0443712
-0.0761876
-0.0483794
-0.0835168
-0.050736
-0.0876368
-0.0506578
-0.0872963
-0.0474887
-0.0814528
-0.0401773
-0.0699147
-0.0268591
-0.0096884
-0.0515283
-0.00335647
-0.00617995
-0.00978422
-0.0134293
-0.0177476
-0.0163358
-0.026759
-0.0179301
-0.0366957
-0.0203234
-0.0473757
-0.023948
-0.0584393
-0.0284795
-0.0693745
-0.033436
-0.0795252
-0.0382287
-0.0881175
-0.0421437
-0.0944057
-0.0443696
-0.0969507
-0.0449437
-0.093636
-0.043492
-0.0861508
-0.0343442
-0.0278921
-0.0679471
-0.00344256
-0.00273738
-0.00977767
-0.00709415
-0.0172832
-0.00883027
-0.0253948
-0.00981849
-0.0339209
-0.0117974
-0.0425511
-0.0153177
-0.0507593
-0.0202713
-0.0579202
-0.0262751
-0.0634405
-0.0327084
-0.0668026
-0.0387816
-0.067365
-0.0438072
-0.0654634
-0.0468453
-0.0580726
-0.0508829
-0.0485683
-0.0438485
-0.0462671
-0.0301933
-0.0030283
0.000290911
-0.008588
-0.00153444
-0.0148763
-0.00254194
-0.0211403
-0.00355453
-0.0269698
-0.00596787
-0.0318032
-0.0104844
-0.0348619
-0.0172126
-0.0353646
-0.0257724
-0.0326072
-0.0354658
-0.0262742
-0.0451146
-0.0165026
-0.0535787
-0.00239088
-0.060957
0.0143934
-0.0676672
0.0366614
-0.0661164
-0.0741255
0.0645197
-0.00221494
0.00250585
-0.00627442
0.00252503
-0.0104592
0.00164286
-0.0136835
-0.000330237
-0.0151715
-0.00447989
-0.0140321
-0.0116237
-0.00927181
-0.021973
-0.000285639
-0.0347585
0.0131076
-0.048859
0.0307348
-0.0627418
0.052117
-0.0749609
0.0769049
-0.085745
0.1038
-0.0945624
0.135741
-0.0980568
-0.107583
0.169198
-0.00106918
0.00357503
-0.00310826
0.00456412
-0.00449122
0.00302582
-0.00382526
-0.000996191
0.000215163
-0.00852031
0.00893712
-0.0203457
0.0227907
-0.0358266
0.0416557
-0.0536235
0.0647669
-0.0719703
0.0907886
-0.0887635
0.119036
-0.103208
0.148323
-0.115032
0.177028
-0.123267
0.209013
-0.130041
-0.135448
0.236878
-6.42231e-05
-1.08027e-05
0.00168899
0.00692246
0.0173855
0.0337965
0.0557038
0.0814907
0.108945
0.136193
0.162126
0.185252
0.206608
0.226119
0.242792
0.0610594
0.113659
-0.168397
0.104273
0.244795
-0.288009
0.108909
0.32499
-0.329626
0.0867717
0.399219
-0.377081
0.118068
0.328648
-0.359945
0.180126
0.0728569
-0.134915
0.224237
-0.169767
0.125657
0.249682
-0.298685
0.273239
0.252315
-0.31878
0.316147
0.228122
-0.314396
0.338589
0.205231
-0.378678
0.401569
0.218592
-0.295633
0.282273
0.250403
-0.114731
0.0829202
0.268656
0.0884624
-0.106715
0.275495
0.320408
-0.327248
0.28431
0.419138
-0.427952
0.288539
0.46896
-0.473189
0.288271
0.289547
-0.289278
0.293509
-0.0831492
0.0779106
0.304104
-0.335
0.324405
0.304734
-0.636705
0.636075
0.305981
-0.442797
0.441551
0.303624
0.115808
-0.113451
0.318261
0.364148
-0.378785
0.332876
0.764483
-0.779098
0.321206
0.418532
-0.406862
0.293431
-0.726074
0.753849
0.308268
-0.751928
0.737091
0.294749
0.417381
-0.403862
0.27182
0.491621
-0.468691
0.271408
-0.108964
0.109375
0.271002
-0.0917518
0.0921585
0.258525
-0.04295
0.0554267
0.259473
0.012349
-0.0132966
0.25482
0.0749828
-0.0703306
0.242638
0.015053
-0.00287015
0.244039
-0.000491629
-0.00090994
0.0209729
-0.0228298
0.00959076
0.0525398
0.0618239
0.192562
0.0790057
0.307808
0.0974562
0.380768
0.156981
0.269123
0.214093
0.0157447
0.243291
-0.198965
0.255503
-0.310897
0.252605
-0.315882
0.22912
-0.29091
0.207986
-0.357545
0.221177
-0.308824
0.247874
-0.141428
0.266616
0.0697204
0.27726
0.309765
0.284594
0.411804
0.29034
0.463213
0.289525
0.290362
0.290575
-0.0841997
0.297896
-0.34232
0.29339
-0.632199
0.298745
-0.448153
0.301453
0.1131
0.317799
0.347802
0.338925
0.743358
0.324656
0.4328
0.285144
-0.686562
0.300832
-0.767615
0.295918
0.422296
0.27471
0.512828
0.272487
-0.106741
0.271059
-0.0903239
0.257682
-0.029573
0.259818
0.0102131
0.256842
0.0779584
0.24429
0.0276055
0.244593
-0.000794427
0.0191565
-0.0164825
0.00107512
0.0437742
0.132305
0.0841696
0.267413
0.135514
0.329424
0.200237
0.204399
0.24492
-0.0289374
0.257602
-0.211647
0.253557
-0.306853
0.24657
-0.308894
0.223028
-0.267368
0.203298
-0.337815
0.221679
-0.327204
0.245247
-0.164997
0.262935
0.0520329
0.277153
0.295547
0.283168
0.405789
0.289872
0.456509
0.288332
0.291903
0.284775
-0.080643
0.28735
-0.344895
0.277304
-0.622153
0.287515
-0.458364
0.296224
0.104391
0.313106
0.330921
0.339652
0.716811
0.322999
0.449454
0.274455
-0.638019
0.290015
-0.783176
0.295095
0.417216
0.275823
0.5321
0.271698
-0.102615
0.26959
-0.0882158
0.255469
-0.0154526
0.2588
0.00688229
0.257899
0.0788595
0.245313
0.040191
0.244566
-4.74592e-05
0.0172812
-3.48258e-05
-0.0290834
0.0659254
0.0663449
0.127822
0.205516
0.189378
0.267868
0.242954
0.150823
0.271723
-0.0577064
0.269226
-0.20915
0.249089
-0.286715
0.23975
-0.299556
0.21783
-0.245448
0.19205
-0.312035
0.215106
-0.35026
0.244114
-0.194005
0.260238
0.0359084
0.272233
0.283552
0.274903
0.403119
0.283353
0.448059
0.283254
0.292002
0.276199
-0.0735876
0.273421
-0.342118
0.258547
-0.607279
0.273115
-0.472932
0.287553
0.0899531
0.303669
0.314805
0.334252
0.686228
0.316755
0.46695
0.262673
-0.583937
0.276526
-0.797028
0.291551
0.402192
0.274277
0.549374
0.268894
-0.0972319
0.266634
-0.0859564
0.252014
-0.000832811
0.256502
0.00239469
0.257966
0.077396
0.245717
0.0524392
0.244056
0.00161428
0.0152373
0.0656104
-0.0301741
0.108203
0.0237522
0.174217
0.139502
0.236554
0.205531
0.278216
0.109162
0.291584
-0.0710751
0.277421
-0.194986
0.244833
-0.254128
0.230557
-0.285279
0.215638
-0.230529
0.180394
-0.276791
0.197195
-0.367061
0.236563
-0.233373
0.256708
0.0157635
0.268973
0.271287
0.269321
0.402772
0.276702
0.440678
0.276391
0.292312
0.265794
-0.0629908
0.256665
-0.332988
0.237203
-0.587817
0.254837
-0.490567
0.276337
0.0684532
0.292424
0.298718
0.32559
0.653061
0.307758
0.484783
0.248711
-0.52489
0.261112
-0.809429
0.286327
0.376976
0.270919
0.564782
0.264488
-0.0908004
0.262477
-0.083946
0.24754
0.0141046
0.253093
-0.00315824
0.257072
0.0734166
0.245533
0.0639785
0.243174
0.00397321
0.0129017
0.154531
-0.0155077
0.168199
0.0100845
0.213528
0.0941733
0.268423
0.150635
0.302212
0.0753734
0.299362
-0.068225
0.274902
-0.170527
0.236277
-0.215502
0.214947
-0.263949
0.209468
-0.225051
0.17174
-0.239063
0.170268
-0.365589
0.218517
-0.281623
0.247285
-0.0130043
0.259559
0.259013
0.257408
0.404922
0.264988
0.433098
0.266726
0.290574
0.254162
-0.0504269
0.238827
-0.317653
0.215159
-0.564148
0.233838
-0.509245
0.26151
0.0407812
0.277775
0.282453
0.311977
0.618859
0.295587
0.501172
0.233476
-0.462779
0.244366
-0.820319
0.278497
0.342845
0.265139
0.57814
0.258441
-0.0841021
0.257151
-0.0826567
0.24224
0.0290164
0.24875
-0.00966866
0.255282
0.0668849
0.244802
0.0744579
0.242036
0.00673983
0.0101344
0.226506
-0.00513558
0.228597
0.00799291
0.257139
0.0656321
0.298621
0.109153
0.318182
0.0558126
0.298322
-0.0483651
0.263656
-0.135862
0.224455
-0.176301
0.196407
-0.2359
0.194859
-0.223503
0.164708
-0.208912
0.143963
-0.344844
0.189549
-0.327209
0.235139
-0.0585943
0.253295
0.240857
0.250451
0.407766
0.256126
0.427423
0.256184
0.290516
0.241293
-0.0355353
0.220585
-0.296945
0.192372
-0.535936
0.21106
-0.527933
0.245133
0.00670823
0.263671
0.263915
0.299597
0.582933
0.28317
0.517599
0.218454
-0.398062
0.227536
-0.829401
0.269874
0.300508
0.25825
0.589764
0.251399
-0.0772514
0.25098
-0.0822374
0.236357
0.0436385
0.243713
-0.0170243
0.252701
0.0578973
0.24358
0.0835782
0.24074
0.00958008
0.00677954
0.239311
-0.00165529
0.240896
0.00640854
0.264345
0.0421824
0.297673
0.0758254
0.308857
0.0446285
0.283451
-0.0229587
0.248704
-0.101115
0.213213
-0.14081
0.181557
-0.204245
0.177078
-0.219024
0.154433
-0.186267
0.122764
-0.313175
0.153081
-0.357526
0.206646
-0.112159
0.236298
0.211204
0.237662
0.406402
0.243195
0.421891
0.244203
0.289508
0.229018
-0.0203499
0.202404
-0.270332
0.170098
-0.50363
0.187127
-0.544962
0.224645
-0.0308091
0.245077
0.243482
0.282404
0.545606
0.26765
0.532354
0.204609
-0.335022
0.210864
-0.835656
0.259156
0.252216
0.249704
0.599216
0.243266
-0.0708131
0.24402
-0.082992
0.230085
0.0575742
0.238158
-0.0250979
0.249417
0.0466391
0.241913
0.0910816
0.239363
0.01213
0.00266616
0.431853
0.00648926
-0.439998
0.428889
0.00937217
0.445681
0.0253906
0.47977
0.0417363
0.508394
0.0160044
0.507481
-0.0220452
0.491061
-0.0846947
0.472864
-0.122614
0.437679
-0.16906
0.414417
-0.195761
0.397132
-0.168983
0.356075
-0.272118
0.330406
-0.331857
0.320288
-0.10204
0.286774
0.244719
0.265984
0.427192
0.311169
0.376705
0.381208
0.219469
0.423596
-0.0627381
0.427679
-0.274414
0.384478
-0.46043
0.347942
-0.508425
0.334065
-0.016932
0.324474
0.253073
0.376932
0.493148
0.41988
0.489406
0.392993
-0.308135
0.357355
-0.800018
0.366388
0.243183
0.367208
0.598396
0.380838
-0.0844433
0.376117
-0.0782714
0.349766
0.0839258
0.359387
-0.0347194
0.373317
0.0327097
0.360587
0.103811
0.353286
0.0194305
0.000620181
0.477002
0.0107609
-0.481274
0.476777
0.00959728
0.488744
0.0134238
0.509503
0.0209774
0.52609
-0.000582308
0.52861
-0.0245657
0.512586
-0.0686705
0.492077
-0.102105
0.46192
-0.138903
0.428259
-0.1621
0.405087
-0.145811
0.374851
-0.241882
0.341684
-0.29869
0.310159
-0.0705147
0.281517
0.273361
0.284922
0.423787
0.355379
0.306248
0.435152
0.139695
0.471985
-0.0995706
0.457164
-0.259593
0.393234
-0.3965
0.354496
-0.469687
0.330877
0.00668721
0.324737
0.259213
0.401872
0.416013
0.460712
0.430567
0.424279
-0.271702
0.380659
-0.756399
0.386189
0.237653
0.393251
0.591334
0.413329
-0.104521
0.407738
-0.0726809
0.378669
0.112996
0.389699
-0.0457502
0.40639
0.0160196
0.394062
0.116139
0.386025
0.0274676
-0.00144936
0.522989
0.0116998
-0.523928
0.522969
0.00961678
0.530248
0.00614467
0.543801
0.00742452
0.552042
-0.00882251
0.554303
-0.0268267
0.545513
-0.0598811
0.52616
-0.0827517
0.502621
-0.115364
0.479741
-0.139221
0.457986
-0.124055
0.410246
-0.194142
0.33923
-0.227675
0.290316
-0.0216001
0.281487
0.282189
0.334082
0.371192
0.426403
0.213927
0.495773
0.0703251
0.521145
-0.124943
0.495664
-0.234112
0.413943
-0.314779
0.354349
-0.410093
0.320351
0.040685
0.321024
0.258539
0.429977
0.30706
0.510115
0.350428
0.465557
-0.227144
0.405649
-0.69649
0.410207
0.233095
0.425048
0.576492
0.449895
-0.129367
0.442666
-0.0654524
0.411205
0.144456
0.424172
-0.0587164
0.443187
-0.00299563
0.430911
0.128415
0.422627
0.0357514
-0.00387554
0.567479
0.0111387
-0.566918
0.569487
0.00760847
0.572919
0.00271223
0.579942
0.000402242
0.585435
-0.0143156
0.582776
-0.0241685
0.573406
-0.0505105
0.558113
-0.0674588
0.532023
-0.0892734
0.503849
-0.111047
0.482149
-0.102355
0.440163
-0.152156
0.359817
-0.147329
0.306452
0.031764
0.338597
0.250045
0.433633
0.276155
0.522657
0.124903
0.565439
0.0275434
0.565877
-0.125381
0.529442
-0.197677
0.437935
-0.223271
0.348672
-0.32083
0.304314
0.0850432
0.327091
0.235762
0.457736
0.176415
0.555221
0.252943
0.506645
-0.178568
0.424626
-0.614471
0.42728
0.23044
0.459328
0.544445
0.492006
-0.162046
0.481917
-0.0553638
0.448673
0.177701
0.463715
-0.0737584
0.484062
-0.0233425
0.471175
0.141302
0.463509
0.0434173
-0.00728919
0.613809
0.00956264
-0.612233
0.615233
0.00618368
0.617617
0.000328643
0.620838
-0.00281836
0.622025
-0.0155026
0.619895
-0.0220387
0.611905
-0.0425207
0.598461
-0.0540143
0.579289
-0.0701019
0.556261
-0.0880186
0.526026
-0.0721209
0.479294
-0.105423
0.419092
-0.0871274
0.39732
0.0535364
0.460937
0.186428
0.554213
0.182879
0.611865
0.0672518
0.626316
0.0130915
0.612396
-0.111461
0.577905
-0.163186
0.493727
-0.139093
0.386477
-0.213581
0.339317
0.132203
0.374307
0.200772
0.496398
0.0543239
0.604278
0.145063
0.558477
-0.132766
0.444728
-0.500722
0.44136
0.233808
0.503471
0.482334
0.542851
-0.201425
0.52696
-0.039473
0.492629
0.212032
0.509895
-0.0910241
0.531199
-0.0446469
0.517149
0.155352
0.510294
0.0502729
-0.0119164
0.66238
0.00765905
-0.660476
0.663692
0.00487131
0.664862
-0.000841114
0.666048
-0.00400381
0.66506
-0.0145152
0.662041
-0.0190197
0.653195
-0.0336749
0.641235
-0.0420537
0.621879
-0.0507464
0.600565
-0.0667041
0.580368
-0.051924
0.545833
-0.0708877
0.506106
-0.0474003
0.509784
0.0498583
0.578896
0.117316
0.647606
0.114168
0.675738
0.0391199
0.673555
0.0152742
0.64593
-0.0838353
0.612416
-0.129672
0.550438
-0.0771143
0.465693
-0.128836
0.449713
0.148184
0.489177
0.161308
0.560229
-0.0167286
0.653615
0.0516769
0.614039
-0.0931912
0.475834
-0.362517
0.475855
0.233787
0.567732
0.390457
0.601963
-0.235656
0.574983
-0.0124932
0.544559
0.242455
0.565317
-0.111782
0.585616
-0.0649455
0.569312
0.171655
0.56347
0.0561152
-0.0179445
0.714499
0.00592065
-0.712761
0.71546
0.00391073
0.71586
-0.00124099
0.715807
-0.0039513
0.713234
-0.0119419
0.709928
-0.0157137
0.701574
-0.025321
0.691958
-0.0324369
0.677545
-0.0363343
0.659369
-0.0485278
0.643304
-0.0358594
0.615541
-0.0431243
0.59437
-0.0262296
0.610568
0.033661
0.661404
0.0664797
0.702049
0.073523
0.720048
0.0211209
0.724616
0.0107066
0.696466
-0.0556852
0.659462
-0.0926686
0.618456
-0.0361075
0.567833
-0.0782134
0.590496
0.125521
0.637929
0.113876
0.653189
-0.0319886
0.700651
0.00421449
0.674662
-0.067202
0.542617
-0.230472
0.550107
0.226296
0.654138
0.286427
0.665488
-0.247006
0.627698
0.0252971
0.610747
0.259406
0.632248
-0.133282
0.644482
-0.0771794
0.626647
0.189489
0.625274
0.0574884
-0.0261408
0.771191
0.00465498
-0.769925
0.771935
0.00316737
0.771612
-0.000918436
0.771011
-0.00335048
0.767983
-0.00891379
0.76467
-0.0124011
0.75759
-0.0182407
0.748851
-0.0236974
0.737827
-0.025311
0.722107
-0.0328079
0.711206
-0.0249576
0.694104
-0.0260227
0.683304
-0.0154295
0.69595
0.021015
0.728542
0.0338879
0.756425
0.0456394
0.764369
0.0131772
0.768718
0.00635748
0.746844
-0.0338113
0.719876
-0.0657
0.697593
-0.0138247
0.66946
-0.0500803
0.705696
0.0892843
0.744834
0.0747378
0.735545
-0.0226994
0.747855
-0.00809558
0.727735
-0.0470815
0.633376
-0.136113
0.659769
0.199903
0.747236
0.19896
0.725995
-0.225765
0.689957
0.0613358
0.696485
0.252877
0.709462
-0.146259
0.70595
-0.0736679
0.694729
0.20071
0.702596
0.0496222
-0.0344599
0.833448
0.0038266
-0.832619
0.833866
0.00274878
0.833313
-0.000364956
0.832308
-0.00234552
0.829524
-0.00613005
0.826104
-0.00898141
0.820348
-0.0124843
0.813064
-0.0164133
0.805027
-0.0172739
0.793567
-0.0213484
0.785969
-0.0173593
0.775019
-0.0150732
0.769441
-0.00985063
0.778525
0.0119309
0.79655
0.0158621
0.814625
0.0275646
0.820907
0.00689513
0.826216
0.00104909
0.809337
-0.0169326
0.788975
-0.0453385
0.775583
-0.000432551
0.75945
-0.0339473
0.79165
0.0570846
0.820166
0.0462219
0.810713
-0.0132466
0.806487
-0.00386966
0.785726
-0.0263202
0.730389
-0.0807765
0.777398
0.152895
0.835912
0.140446
0.787977
-0.177831
0.769663
0.07965
0.800684
0.221855
0.79396
-0.139534
0.774978
-0.0546859
0.782125
0.193563
0.796932
0.0348144
-0.0358627
0.902041
0.00327761
-0.901492
0.902221
0.00256787
0.901648
0.000208379
0.900482
-0.00117923
0.898183
-0.00383075
0.895056
-0.00585481
0.89074
-0.00816876
0.884974
-0.0106468
0.879147
-0.0114471
0.871075
-0.0132759
0.865328
-0.0116124
0.859093
-0.00883859
0.855991
-0.00674853
0.86151
0.00641174
0.871114
0.00625867
0.883575
0.0151032
0.886244
0.00422662
0.889432
-0.00213967
0.878751
-0.00625153
0.864844
-0.0314313
0.858782
0.00562953
0.848426
-0.023591
0.869201
0.0363091
0.887586
0.0278367
0.879698
-0.00535779
0.875885
-5.72822e-05
0.862059
-0.0124943
0.825834
-0.0445516
0.875259
0.10347
0.912157
0.103548
0.856336
-0.12201
0.86096
0.0750261
0.905691
0.177124
0.875709
-0.109552
0.851778
-0.0307545
0.882474
0.162867
0.895184
0.0221038
-0.0262925
0.977912
0.00291999
-0.977555
0.977911
0.00256895
0.977373
0.000746692
0.976259
-6.58139e-05
0.974488
-0.00205966
0.971891
-0.00325756
0.96869
-0.00496748
0.964419
-0.00637582
0.960125
-0.00715328
0.954778
-0.00792913
0.950632
-0.00746566
0.947012
-0.00521868
0.944898
-0.00463528
0.948356
0.00295425
0.952664
0.00195104
0.960329
0.00743731
0.961988
0.00256846
0.963588
-0.00373958
0.957689
-0.000353453
0.947931
-0.0216731
0.944887
0.00867377
0.938006
-0.0167102
0.950022
0.0242934
0.962815
0.0150439
0.958078
-0.000621407
0.953893
0.00412777
0.945339
-0.00393999
0.919924
-0.0191368
0.960158
0.063236
0.987384
0.0763221
0.935921
-0.0705464
0.952094
0.0588531
0.998242
0.130976
0.955807
-0.0671171
0.937658
-0.0126055
0.981817
0.118708
0.986342
0.0175786
-0.0100498
1.06159
0.00270956
-1.06138
1.06154
0.00261658
1.06109
0.00119813
1.06017
0.000855799
1.05885
-0.000738323
1.05687
-0.00127916
1.05459
-0.00268773
1.05154
-0.00331887
1.04855
-0.00416731
1.04503
-0.00440632
1.04205
-0.00448627
1.03991
-0.00308026
1.03827
-0.00299422
1.04022
0.00100063
1.04181
0.000364214
1.04634
0.00290706
1.04701
0.00189866
1.04708
-0.00380794
1.04436
0.00236082
1.03731
-0.0146169
1.0365
0.00947927
1.03235
-0.0125564
1.03844
0.0181978
1.04634
0.0071466
1.04282
0.0028987
1.04011
0.00684055
1.03749
-0.0013211
1.01967
-0.00132294
1.04585
0.0370597
1.06794
0.0542323
1.02797
-0.0305726
1.04472
0.0421002
1.08342
0.0922724
1.04281
-0.0265084
1.03361
-0.00339581
1.07644
0.0758778
1.07398
0.0200335
0.0061459
1.15379
0.00255175
-1.15364
1.15378
0.00263593
1.15345
0.0015218
1.15279
0.00151891
1.15187
0.000183614
1.15046
0.000126393
1.14891
-0.00113369
1.14681
-0.00121804
1.14478
-0.00214289
1.14244
-0.00206817
1.1404
-0.00244105
1.139
-0.00168542
1.13767
-0.00166237
1.13864
3.20575e-05
1.13884
0.000161905
1.14112
0.000629298
1.14135
0.00166978
1.14082
-0.00327766
1.13974
0.00343571
1.13491
-0.00978243
1.13508
0.00930386
1.13203
-0.00949916
1.13535
0.014875
1.14014
0.00235262
1.13804
0.00500588
1.13614
0.00873507
1.13569
-0.000868997
1.12407
0.0102931
1.14063
0.0205042
1.15785
0.0370139
1.12972
-0.00244617
1.14364
0.028178
1.17196
0.0639532
1.14087
0.0045875
1.13824
-0.00076475
1.17157
0.0425444
1.1664
0.0252017
0.0186956
1.25528
0.00240887
-1.25513
1.25531
0.00260149
1.25512
0.00171098
1.25471
0.00193217
1.2541
0.000791369
1.25315
0.00107288
1.25216
-0.000139451
1.25077
0.000175021
1.24946
-0.000835019
1.24793
-0.000535463
1.24654
-0.00105843
1.24558
-0.000722255
1.2445
-0.00058177
1.24483
-0.000297651
1.24448
0.000512203
1.24542
-0.000316522
1.24535
0.00174747
1.24451
-0.00243826
1.24426
0.0036851
1.24076
-0.00627963
1.24154
0.0085206
1.23925
-0.00721081
1.24117
0.0129579
1.24384
-0.000315682
1.24216
0.00667926
1.24157
0.00932449
1.2424
-0.0016987
1.23556
0.0171378
1.24557
0.0104928
1.25745
0.0251313
1.24005
0.0149571
1.25157
0.0166579
1.26981
0.0457112
1.24886
0.0255362
1.25033
-0.00223532
1.27332
0.0195619
1.2682
0.0303157
0.0270505
1.36674
0.00224956
-1.36659
1.36685
0.00249786
1.36678
0.00177846
1.36659
0.00212798
1.36624
0.00113705
1.36569
0.00162104
1.36508
0.00047078
1.36422
0.00103391
1.36341
-2.28062e-05
1.36244
0.000433719
1.36153
-0.000150172
1.36083
-2.36386e-05
1.36002
0.000234806
1.35996
-0.000238544
1.35945
0.00102241
1.35963
-0.000498931
1.3594
0.0019737
1.35851
-0.0015466
1.35861
0.00358601
1.35611
-0.00377435
1.35716
0.00747185
1.35525
-0.00530171
1.35662
0.011584
1.35806
-0.00175814
1.35704
0.00770403
1.35753
0.00883286
1.35797
-0.00213538
1.35462
0.0204801
1.36089
0.0042309
1.36856
0.0174542
1.35924
0.0242763
1.3681
0.00779735
1.37925
0.0345661
1.36713
0.0376583
1.37006
-0.00517303
1.38453
0.00509183
1.38083
0.0340204
0.0316404
1.48902
0.002058
-1.48883
1.4892
0.00231972
1.48924
0.00173728
1.48923
0.00213794
1.48909
0.00127701
1.48885
0.00185955
1.48854
0.000784841
1.48808
0.00149082
1.48763
0.000429701
1.48704
0.00101916
1.4865
0.000391024
1.486
0.000484273
1.48544
0.00078944
1.48517
3.00043e-05
1.48469
0.0015027
1.48448
-0.000290442
1.4842
0.00225754
1.48337
-0.000718933
1.48356
0.00339742
1.48174
-0.00195364
1.48287
0.00633756
1.48133
-0.00376036
1.48267
0.0102494
1.4834
-0.0024857
1.48275
0.00834947
1.48395
0.00763343
1.4838
-0.0019897
1.48319
0.0210929
1.48694
0.000486233
1.4913
0.013089
1.48797
0.0276031
1.49431
0.00146241
1.50092
0.0279594
1.49554
0.043033
1.49866
-0.00829375
1.50692
-0.00316654
1.50501
0.0359272
0.0331364
1.62306
0.00183252
-1.62283
1.62331
0.0020662
1.62344
0.00160641
1.62359
0.00198396
1.62361
0.00126497
1.62363
0.00184034
1.62352
0.000890078
1.62339
0.00162426
1.62319
0.000631337
1.62291
0.00129743
1.62263
0.000667345
1.62228
0.000837218
1.62194
0.00112772
1.6216
0.00036872
1.62122
0.00188656
1.62085
7.52409e-05
1.62053
0.00257429
1.61986
-4.28366e-05
1.62
0.00325685
1.61874
-0.000699557
1.61993
0.00515522
1.61863
-0.00246042
1.62034
0.00853999
1.62037
-0.00251878
1.62053
0.00818552
1.62205
0.0061214
1.62094
-0.000884921
1.6225
0.0195342
1.6242
-0.00121884
1.62668
0.0106139
1.62772
0.0265647
1.63111
-0.00193018
1.63565
0.0234246
1.63591
0.0427678
1.63752
-0.00990216
1.64096
-0.00661196
1.64151
0.035381
0.0319497
1.76978
0.00156032
-1.76951
1.77011
0.00173331
1.77034
0.0013806
1.77065
0.00167321
1.7708
0.00110933
1.77106
0.00158183
1.77114
0.000813363
1.7713
0.0014641
1.7713
0.000628449
1.7713
0.00129908
1.77123
0.000734612
1.77102
0.00104988
1.77087
0.00127431
1.77048
0.000767136
1.77021
0.00215433
1.76972
0.000559939
1.76938
0.00291641
1.76887
0.000470851
1.76887
0.00325389
1.76817
3.14868e-06
1.76935
0.00397009
1.76835
-0.00145636
1.77074
0.00614753
1.77011
-0.001888
1.77126
0.00703361
1.7726
0.00478722
1.77064
0.00106641
1.77405
0.0161298
1.77381
-0.000980681
1.77524
0.00918852
1.77959
0.022208
1.78027
-0.00260579
1.78408
0.0196111
1.78894
0.0379063
1.78827
-0.0092332
1.78797
-0.00630575
1.79107
0.0322809
0.0284187
1.93082
0.00124984
-1.93051
1.93119
0.0013605
1.93146
0.00110969
1.93185
0.00128517
1.93204
0.000915021
1.93243
0.0011939
1.93252
0.000720702
1.93287
0.00112043
1.93287
0.000628385
1.93307
0.00109498
1.93304
0.000769162
1.93297
0.00111795
1.93298
0.00126051
1.9326
0.00114755
1.93268
0.0020773
1.93218
0.00106004
1.93219
0.00290401
1.93195
0.000712626
1.93195
0.00325605
1.93194
1.42403e-05
1.93276
0.0031511
1.93208
-0.00078228
1.93473
0.00350204
1.93305
-0.00021286
1.93563
0.0044515
1.93612
0.00429864
1.93406
0.00313324
1.93936
0.0108216
1.93638
0.00200044
1.93787
0.00769941
1.94529
0.014789
1.94208
0.000606386
1.94706
0.0146281
1.95865
0.0263164
1.95208
-0.00265663
1.94581
-3.8776e-05
1.95409
0.0239983
0.0211415
2.10774
0.000961883
-2.10745
2.10805
0.00104825
2.10826
0.000894756
2.10854
0.00101119
2.10865
0.000804157
2.10888
0.000962146
2.10888
0.000723511
2.10907
0.000928971
2.10899
0.00070608
2.10914
0.000946842
2.1091
0.0008107
2.10919
0.00103003
2.10935
0.00109545
2.10937
0.00112679
2.10987
0.00157988
2.10987
0.0010575
2.11059
0.00218459
2.11067
0.000638975
2.11128
0.00264249
2.11131
-1.20145e-05
2.1118
0.0026562
2.11125
-0.000228708
2.11233
0.00241449
2.11122
0.000902957
2.11296
0.00270547
2.11362
0.00364502
2.1135
0.00325489
2.11773
0.0065917
2.11613
0.00359733
2.11764
0.0061854
2.12394
0.00849353
2.12111
0.00343899
2.12556
0.010173
2.13783
0.014044
2.13157
0.00360486
2.12536
0.00617423
2.13476
0.0145926
0.0133101
2.30067
0.00068125
-2.30039
2.30097
0.00074633
2.3012
0.000669522
2.30145
0.000757625
2.30161
0.00064482
2.30181
0.000762687
2.30191
0.000621727
2.30207
0.000767427
2.30215
0.000625608
2.30233
0.000776189
2.30245
0.000684152
2.3027
0.000783144
2.30297
0.000824635
2.30333
0.000769946
2.30385
0.0010552
2.30423
0.000682343
2.30506
0.0013527
2.30522
0.000480415
2.3062
0.00165532
2.30598
0.000215224
2.30673
0.00190187
2.30635
0.000149831
2.30667
0.00209468
2.30686
0.000714168
2.30733
0.00223712
2.30868
0.00229348
2.30983
0.00210554
2.312
0.00442373
2.31329
0.00230143
2.31487
0.00461316
2.31806
0.00530304
2.31859
0.00290476
2.32159
0.00716965
2.32805
0.00758901
2.3279
0.0037521
2.3279
0.00617503
2.33359
0.00890324
0.00833329
2.51143
0.000355179
-2.5111
2.51179
0.000387255
2.5121
0.000357997
2.51246
0.00039849
2.51275
0.000356008
2.5131
0.000406803
2.51337
0.000354523
2.51372
0.000414481
2.51399
0.000363039
2.51434
0.000422758
2.51463
0.000391918
2.51499
0.000427188
2.51536
0.000453849
2.51571
0.000417751
2.51621
0.000558108
2.51652
0.000370478
2.51717
0.000700322
2.51738
0.00027469
2.51818
0.000856179
2.51822
0.000170155
2.51915
0.000977695
2.5191
0.000191938
2.52015
0.00104518
2.52035
0.000513361
2.52148
0.00111312
2.52256
0.00121035
2.52347
0.00119462
2.52581
0.00208803
2.52673
0.0013822
2.52894
0.00240502
2.53181
0.00243111
2.53284
0.00187538
2.53641
0.00359806
2.54083
0.00317213
2.54191
0.00266292
2.54422
0.00387156
2.54903
0.00408684
0.00399447
2.74269
-2.74233
2.74308
2.74343
2.74383
2.74419
2.7446
2.74495
2.74536
2.74573
2.74615
2.74654
2.74697
2.74742
2.74784
2.7484
2.74877
2.74947
2.74974
2.7506
2.75077
2.75175
2.75194
2.75299
2.7535
2.75461
2.75582
2.75702
2.75911
2.76049
2.76289
2.76532
2.7672
2.7708
2.77397
2.77663
2.7805
2.78459
0.421649
0.0411807
-0.415537
0.427208
0.07055
0.432904
0.0990863
0.437411
0.128012
0.440755
0.1552
0.444534
0.181879
0.441274
0.209042
0.226192
0.453042
0.0357947
-0.447657
0.457733
0.0658592
0.46259
0.0942298
0.46734
0.123261
0.470624
0.151916
0.475287
0.177216
0.479189
0.20514
0.224107
0.488961
0.0314946
-0.484661
0.493148
0.0616723
0.497548
0.0898295
0.502323
0.118487
0.50758
0.146659
0.513288
0.171508
0.5204
0.198029
0.22058
0.528382
0.0278505
-0.524738
0.532445
0.0576094
0.537063
0.0852115
0.542119
0.11343
0.548294
0.140484
0.553767
0.166034
0.560793
0.191003
0.214455
0.572407
0.0247375
-0.569294
0.576308
0.053709
0.580773
0.080746
0.585652
0.108551
0.591544
0.134592
0.597435
0.160143
0.604727
0.183711
0.206949
0.620634
0.0219234
-0.61782
0.624285
0.0500572
0.628526
0.076505
0.633389
0.103689
0.639187
0.128794
0.645435
0.153895
0.652719
0.176428
0.199192
0.673531
0.0194311
-0.671039
0.676893
0.0466955
0.680871
0.072527
0.68564
0.0989195
0.69124
0.123195
0.697583
0.147552
0.704805
0.169206
0.191236
0.731377
0.0172688
-0.729214
0.734419
0.0436535
0.738154
0.0687916
0.742839
0.0942345
0.748382
0.117652
0.754773
0.14116
0.761901
0.162077
0.183211
0.794614
0.0154348
-0.79278
0.797432
0.0408357
0.801087
0.0651364
0.805755
0.0895667
0.811164
0.112243
0.817511
0.134813
0.824557
0.155031
0.17515
0.863896
0.0138371
-0.862299
0.86657
0.0381621
0.870089
0.061617
0.874599
0.0850568
0.879882
0.10696
0.886248
0.128447
0.893365
0.147914
0.167023
0.939599
0.0124811
-0.938243
0.942065
0.0356961
0.945472
0.0582102
0.949986
0.0805428
0.955442
0.101503
0.961972
0.121918