/*--------------------------------*- C++ -*----------------------------------*\
| =========                 |                                                 |
| \\      /  F ield         | OpenFOAM: The Open Source CFD Toolbox           |
|  \\    /   O peration     | Version:  2312                                  |
|   \\  /    A nd           | Website:  www.openfoam.com                      |
|    \\/     M anipulation  |                                                 |
\*---------------------------------------------------------------------------*/
FoamFile
{
    version     2.0;
    format      ascii;
    arch        "LSB;label=32;scalar=64";
    class       volScalarField;
    location    "103";
    object      p;
}
// * * * * * * * * * * * * * * * * * * * * * * * * * * * * * * * * * * * * * //

dimensions      [0 2 -2 0 0 0 0];

internalField   nonuniform List<scalar> 
5478
(
-0.628507
-0.622791
-0.616706
-0.611918
-0.609546
-0.607166
-0.600189
-0.584595
-0.558161
-0.521677
-0.477991
-0.429966
-0.380985
-0.329866
-0.279308
-0.64006
-0.634228
-0.627262
-0.619572
-0.610282
-0.596881
-0.577378
-0.55082
-0.517733
-0.479808
-0.438815
-0.396576
-0.353862
-0.311484
-0.272
-0.657463
-0.650467
-0.641195
-0.628501
-0.6098
-0.584876
-0.554915
-0.52125
-0.48508
-0.447362
-0.409025
-0.370637
-0.332923
-0.296204
-0.260619
-0.680382
-0.670299
-0.657299
-0.636656
-0.606981
-0.571725
-0.534206
-0.496156
-0.458298
-0.421021
-0.384505
-0.34908
-0.314896
-0.28222
-0.25167
-0.70915
-0.693112
-0.674252
-0.642728
-0.601674
-0.557886
-0.514957
-0.473996
-0.435145
-0.398237
-0.363181
-0.32987
-0.29825
-0.268509
-0.240024
-0.741053
-0.718281
-0.688993
-0.644432
-0.592945
-0.542431
-0.495547
-0.452564
-0.413035
-0.376505
-0.342573
-0.310943
-0.281451
-0.253901
-0.227743
-0.770062
-0.741886
-0.697788
-0.639329
-0.578975
-0.523263
-0.473481
-0.429107
-0.389291
-0.353279
-0.320471
-0.290446
-0.262885
-0.237514
-0.21344
-0.790228
-0.757046
-0.696128
-0.625004
-0.55753
-0.497954
-0.446299
-0.401265
-0.361657
-0.326525
-0.295109
-0.266857
-0.241407
-0.218274
-0.196919
-0.501184
-0.504399
-0.510559
-0.52184
-0.537803
-0.557046
-0.577421
-0.593865
-0.605019
-0.606407
-0.595114
-0.57071
-0.534658
-0.491916
-0.446645
-0.54192
-0.544464
-0.552897
-0.568366
-0.590032
-0.616314
-0.644687
-0.671164
-0.690374
-0.696765
-0.685576
-0.654027
-0.600086
-0.535473
-0.459917
-0.575546
-0.576545
-0.5853
-0.602103
-0.625837
-0.654756
-0.686188
-0.715963
-0.737749
-0.744763
-0.73032
-0.690801
-0.624003
-0.542109
-0.447775
-0.599039
-0.597666
-0.60469
-0.61982
-0.641983
-0.669479
-0.699628
-0.727902
-0.748218
-0.752331
-0.732754
-0.685441
-0.610775
-0.521039
-0.422776
-0.61245
-0.608634
-0.612371
-0.62337
-0.641102
-0.664227
-0.690079
-0.714563
-0.730617
-0.729454
-0.703995
-0.651255
-0.574854
-0.486741
-0.393554
-0.618262
-0.612732
-0.612631
-0.618276
-0.630206
-0.647627
-0.668349
-0.686888
-0.69534
-0.685689
-0.652455
-0.596848
-0.523644
-0.446342
-0.365697
-0.620273
-0.614121
-0.610755
-0.611455
-0.617917
-0.630156
-0.644429
-0.654087
-0.651568
-0.631083
-0.59092
-0.53455
-0.4684
-0.402283
-0.335711
-0.62249
-0.61651
-0.611142
-0.608504
-0.610771
-0.61689
-0.621995
-0.619546
-0.604259
-0.573734
-0.529822
-0.476215
-0.419004
-0.361715
-0.305236
-0.407445
-0.414738
-0.413028
-0.35188
-0.246043
-0.1824
-0.169013
-0.187967
-0.217661
-0.21466
-0.174361
-0.150587
-0.138522
-0.113199
-0.0975952
-0.116795
-0.138227
-0.135508
-0.108562
-0.1046
-0.124933
-0.134418
-0.10806
-0.116773
-0.133195
-0.170485
-0.170625
-0.16739
-0.0704794
-0.0496754
-0.0314916
-0.020398
-0.00510184
-0.00535686
-0.00559655
-0.000276111
-0.00154402
-0.000759684
-0.371551
-0.316509
-0.286367
-0.237849
-0.178375
-0.163755
-0.17421
-0.212313
-0.259168
-0.256579
-0.194795
-0.154826
-0.139835
-0.118117
-0.101485
-0.119846
-0.139828
-0.135302
-0.104253
-0.0947744
-0.11197
-0.125979
-0.110497
-0.128744
-0.152832
-0.180234
-0.152573
-0.146705
-0.0761373
-0.0561875
-0.0324364
-0.0203333
-0.00588209
-0.00542097
-0.00587419
-0.000649222
-0.00149361
-0.000659952
-0.322096
-0.220796
-0.164627
-0.115832
-0.107791
-0.142491
-0.171713
-0.221036
-0.282027
-0.285041
-0.210836
-0.156062
-0.138484
-0.123128
-0.106637
-0.123535
-0.141172
-0.134098
-0.0990816
-0.0848126
-0.0994462
-0.115995
-0.11095
-0.138002
-0.16975
-0.184926
-0.132529
-0.122371
-0.0797222
-0.0617269
-0.0332723
-0.020204
-0.00664246
-0.00557844
-0.00613071
-0.00103029
-0.0014437
-0.000570417
-0.283398
-0.160744
-0.0896797
-0.0359982
-0.052876
-0.121492
-0.156747
-0.206068
-0.279667
-0.289729
-0.220368
-0.156267
-0.134657
-0.124545
-0.111146
-0.127551
-0.143063
-0.133362
-0.0939823
-0.0755711
-0.08777
-0.105015
-0.109059
-0.143547
-0.183679
-0.185
-0.113489
-0.0971237
-0.0808894
-0.0658245
-0.0341251
-0.0200335
-0.00737028
-0.00584763
-0.00638289
-0.00137658
-0.00138721
-0.000493514
-0.269201
-0.145785
-0.0602895
-2.27097e-05
0.00106649
-0.0852228
-0.12786
-0.176802
-0.261524
-0.280665
-0.220428
-0.154007
-0.129359
-0.121145
-0.114235
-0.131454
-0.145632
-0.13193
-0.0889936
-0.0673339
-0.0774866
-0.0938129
-0.104988
-0.144934
-0.194413
-0.182256
-0.097628
-0.0725468
-0.0800941
-0.0680041
-0.0350761
-0.0198346
-0.00805543
-0.00623026
-0.00665612
-0.00170277
-0.00131712
-0.000429445
-0.261108
-0.158047
-0.0730026
0.00265456
0.0423845
-0.0188621
-0.0837699
-0.139878
-0.229146
-0.251275
-0.205297
-0.147725
-0.122463
-0.113177
-0.115008
-0.133133
-0.149075
-0.132435
-0.0858132
-0.0603674
-0.0686397
-0.0824302
-0.0984446
-0.142303
-0.200989
-0.177967
-0.0865187
-0.0502245
-0.0778329
-0.0683585
-0.0362079
-0.0196424
-0.00870642
-0.00670971
-0.00698566
-0.00201823
-0.00122657
-0.000376276
-0.254547
-0.166256
-0.0860403
-0.012557
0.0561169
0.0606239
-0.0245196
-0.106375
-0.200417
-0.233077
-0.194384
-0.144509
-0.117422
-0.102147
-0.112076
-0.13243
-0.150637
-0.13019
-0.0821415
-0.0547768
-0.0621732
-0.0713437
-0.0886505
-0.135086
-0.203421
-0.171035
-0.0794585
-0.0306635
-0.0741646
-0.0668681
-0.0374568
-0.0196254
-0.00934943
-0.00724006
-0.00740327
-0.00233803
-0.00111094
-0.000330601
-0.251088
-0.187723
-0.113609
-0.0443943
0.0253238
0.0817508
0.0321866
-0.0565489
-0.1482
-0.184695
-0.162531
-0.13176
-0.112229
-0.0904941
-0.103459
-0.127587
-0.158324
-0.131842
-0.0815375
-0.0502224
-0.0558638
-0.060238
-0.0778288
-0.123076
-0.201792
-0.163196
-0.0784308
-0.0143135
-0.0693421
-0.0641604
-0.0390395
-0.0192807
-0.00997237
-0.00778582
-0.00790703
-0.00266409
-0.000967825
-0.000289966
-0.223203
-0.175193
-0.102795
-0.0336233
0.0363805
0.115839
0.0969491
-0.014568
-0.110482
-0.144854
-0.125487
-0.106037
-0.0933883
-0.0763457
-0.0922908
-0.114944
-0.125776
-0.121933
-0.0778274
-0.0460648
-0.0523192
-0.0527732
-0.0704641
-0.113771
-0.189941
-0.149219
-0.0789728
-0.0134532
-0.0639393
-0.0586013
-0.0406316
-0.0204519
-0.0104245
-0.00840086
-0.00895762
-0.0030441
-0.000741682
-0.000239218
-0.171206
-0.136029
-0.0772079
-0.0202398
0.036804
0.0853111
0.0810336
0.0103495
-0.0590689
-0.0838387
-0.0786781
-0.0740212
-0.0678316
-0.0539006
-0.0724806
-0.106125
-0.132396
-0.108723
-0.0653154
-0.0366029
-0.0410032
-0.0402786
-0.0536968
-0.0971505
-0.17176
-0.133307
-0.0632521
-0.0109439
-0.0555129
-0.0562971
-0.0411226
-0.0214251
-0.0107327
-0.00944338
-0.00990698
-0.00349676
-0.000444081
-0.00016406
-0.134418
-0.113617
-0.071243
-0.0261488
0.0177974
0.055614
0.061273
0.0222881
-0.0227228
-0.0483007
-0.0499831
-0.0499588
-0.048232
-0.0340175
-0.0406161
-0.0690864
-0.0914743
-0.0773133
-0.0469898
-0.0301028
-0.0332773
-0.0286099
-0.0340849
-0.0697353
-0.138937
-0.0995331
-0.0402361
-0.00987613
-0.0459007
-0.0479991
-0.0396665
-0.0230406
-0.0110231
-0.0106341
-0.0115215
-0.00409541
-0.000110084
-6.29334e-05
-0.105458
-0.0925802
-0.0619515
-0.0271921
0.00455683
0.0299199
0.038356
0.0193538
-0.00735545
-0.0247657
-0.0264512
-0.0265356
-0.0234379
-0.0112169
-0.00898454
-0.0265224
-0.0450469
-0.0406546
-0.0313503
-0.0283527
-0.0220031
-0.0142451
-0.0111947
-0.0390651
-0.0986851
-0.0554296
-0.0153417
-0.0014904
-0.03254
-0.0384241
-0.0375723
-0.025313
-0.0111089
-0.011993
-0.0134989
-0.00490555
0.000227032
4.93555e-05
-0.0825107
-0.0750334
-0.0547393
-0.0301247
-0.00808449
0.010027
0.0190692
0.0126408
0.000273477
-0.0112192
-0.0134081
-0.0132679
-0.0113672
0.00103079
0.0167606
0.0179296
-0.00107222
-0.00955169
-0.017562
-0.0225195
-0.0161765
-0.00578611
0.00747709
-0.00812014
-0.055427
-0.0135134
0.0103637
0.00772064
-0.0161008
-0.0258081
-0.033749
-0.0282656
-0.0111456
-0.0136246
-0.0156495
-0.00595448
0.000451831
0.000134728
-0.0647653
-0.0606034
-0.0476322
-0.030702
-0.0150749
-0.00197344
0.00602929
0.00571327
0.00045451
-0.0042242
-0.00422865
-0.00168141
0.00270447
0.0118585
0.0257767
0.026614
0.0154639
0.00583984
-0.00537047
-0.0108579
-0.00450347
0.00233829
0.0159903
0.00469983
-0.0290903
0.00877956
0.0283843
0.0166844
0.00159223
-0.0104014
-0.0270322
-0.0297808
-0.0106067
-0.0154739
-0.0179118
-0.00732283
0.000529365
0.000169777
-0.0498305
-0.048019
-0.0403631
-0.0292016
-0.0181656
-0.00863211
-0.00177119
0.000887518
0.000812343
-0.000420423
0.000503221
0.00286836
0.00640425
0.0140748
0.0267522
0.0303371
0.0204487
0.0123652
0.00394128
-0.00280266
0.00192238
0.005319
0.018968
0.0123337
-0.0149126
0.0122724
0.0347725
0.0205872
0.0162915
0.00433862
-0.0177154
-0.028679
-0.00858027
-0.016764
-0.0202081
-0.00904731
0.000355878
0.000120735
-0.0380253
-0.0378482
-0.0333118
-0.0259576
-0.0182204
-0.0111916
-0.00554366
-0.0020263
-0.000127704
0.000654306
0.00262642
0.00578761
0.0101989
0.0159377
0.023698
0.0270774
0.020673
0.0143669
0.00893957
0.00532829
0.00827055
0.0093841
0.0177538
0.0153749
-0.00506455
0.0140523
0.0326715
0.0229521
0.0239185
0.0123859
-0.00863961
-0.0232646
-0.00510672
-0.015791
-0.0211501
-0.010438
-0.000544285
-8.38472e-05
-0.0287232
-0.0291521
-0.0265474
-0.021815
-0.016462
-0.0112844
-0.00682272
-0.00332615
-0.000630364
0.00131949
0.00375384
0.00648997
0.0099047
0.0139886
0.0190823
0.0221
0.0187493
0.0145967
0.0114207
0.00915568
0.0103323
0.0104543
0.0158309
0.0166471
0.00342338
0.0148436
0.0271592
0.0225973
0.0250765
0.0161659
-0.000799028
-0.0138554
-0.00138944
-0.0112937
-0.0184667
-0.00952928
-0.00181494
-0.000273233
-0.0209812
-0.0217378
-0.0203718
-0.0173125
-0.0136367
-0.00986388
-0.0064009
-0.00339224
-0.00071261
0.00144751
0.00380791
0.0062404
0.00931148
0.0125913
0.0156385
0.0179925
0.0165569
0.0141094
0.0122939
0.0109612
0.0121146
0.0124146
0.0146183
0.0159018
0.00892851
0.0149489
0.0227454
0.0212854
0.0229765
0.0174693
0.00526456
-0.00481812
0.0013751
-0.0045436
-0.0124764
-0.00590923
0.00194472
1.11474e-05
-0.0147388
-0.0156106
-0.0149248
-0.0129672
-0.010454
-0.00777615
-0.00516198
-0.00270752
-0.000365798
0.00166078
0.0038169
0.00596658
0.00837536
0.0108059
0.0127913
0.0145743
0.0144098
0.0132642
0.0123593
0.0116714
0.01214
0.0121747
0.0135573
0.0149703
0.0118409
0.0148976
0.0194852
0.0189849
0.020318
0.0171304
0.00874869
0.00119494
0.00338828
0.000810376
-0.00651118
-0.00194721
0.00212403
0.000417928
-0.00965606
-0.0104797
-0.0101901
-0.00897112
-0.00727604
-0.00537931
-0.00343647
-0.00154162
0.000339546
0.00206829
0.00383861
0.00559737
0.00745706
0.00935373
0.0108799
0.0122338
0.0126418
0.0123244
0.0119865
0.0117844
0.0123011
0.0125712
0.0131596
0.0141396
0.0129587
0.0145166
0.0171951
0.0169555
0.0174948
0.0158068
0.01015
0.00452447
0.00484948
0.00378635
-0.00215118
0.00068723
0.00220208
0.000643803
-0.00547739
-0.00623153
-0.00616936
-0.00540347
-0.0042574
-0.00294734
-0.00157024
-0.000163674
0.00126528
0.00263276
0.0040146
0.00541335
0.00686282
0.00830441
0.00953189
0.0105763
0.0112143
0.0114177
0.0114611
0.0115326
0.0118933
0.0121046
0.0125335
0.0133296
0.0130936
0.0138884
0.01532
0.0150764
0.0152171
0.0141358
0.0103274
0.00610233
0.0056441
0.00466872
0.000382945
0.00182421
0.00218858
0.000713292
-0.00209536
-0.00272543
-0.00276422
-0.00229709
-0.00155009
-0.000676991
0.000269667
0.00128249
0.00233822
0.00336802
0.0044011
0.00546245
0.00658819
0.00769832
0.00867095
0.00951642
0.0101881
0.0106174
0.0108614
0.0111108
0.01151
0.0118033
0.0121281
0.0126354
0.0127274
0.013116
0.0138105
0.0136371
0.0134551
0.0125606
0.00997367
0.00704953
0.00602958
0.00481739
0.00175714
0.00209897
0.00205297
0.000705872
0.000689214
0.000177063
7.67342e-05
0.000337991
0.000808051
0.00137743
0.00201179
0.00270945
0.00345385
0.00419834
0.00494965
0.00572819
0.00655878
0.00738573
0.00815397
0.00884435
0.00944939
0.00994494
0.0103027
0.0106156
0.0109947
0.0112612
0.0115389
0.0118953
0.0120636
0.0122796
0.0125412
0.0122975
0.0119742
0.0112042
0.00932653
0.00728804
0.00609974
0.00471586
0.00244875
0.00212948
0.00184201
0.000670958
0.00295538
0.00254344
0.00241934
0.00254996
0.00282899
0.00317837
0.00357952
0.00403704
0.00454004
0.00505171
0.0055715
0.00611501
0.00671762
0.00732961
0.00791808
0.00846141
0.00897526
0.00943229
0.0098031
0.0101226
0.0104698
0.0107327
0.0109649
0.0112139
0.0113378
0.0114281
0.0114867
0.0112149
0.0108136
0.0101427
0.00870768
0.00722519
0.00606926
0.00466025
0.00290825
0.00216008
0.00165737
0.000628934
0.00478524
0.00446492
0.00433697
0.00437999
0.00452406
0.00471755
0.00495281
0.00523501
0.00555573
0.00588731
0.00622828
0.00659345
0.00700888
0.00744309
0.00787371
0.00828148
0.00869178
0.00906944
0.00940712
0.00968617
0.00997798
0.0102054
0.0103832
0.010549
0.0106284
0.010627
0.0105726
0.0102853
0.00983694
0.00927569
0.00813914
0.00696493
0.00592064
0.00462435
0.00318189
0.00219884
0.00147454
0.0005676
0.00625553
0.00600738
0.00588235
0.00586811
0.00592087
0.00600706
0.00612522
0.00627953
0.00646511
0.00666222
0.00686949
0.00709906
0.00736945
0.0076587
0.00795576
0.00824246
0.00854517
0.00882712
0.00909155
0.00931565
0.00954054
0.00971666
0.00984576
0.00994143
0.00997331
0.00991471
0.00979487
0.00951898
0.00906445
0.00856343
0.00767233
0.00669227
0.00575127
0.00459391
0.003366
0.00229073
0.00141437
0.00053024
0.0074159
0.00722383
0.00710611
0.00705605
0.00704775
0.00706073
0.00709751
0.00716088
0.00724909
0.0073478
0.00745584
0.00758266
0.00773963
0.00791595
0.00810198
0.00828743
0.00849034
0.00868048
0.00886711
0.00902045
0.00917808
0.00929177
0.00937184
0.00940743
0.00939719
0.00930799
0.00914688
0.00889559
0.00845813
0.00798689
0.00725943
0.00643153
0.00557054
0.00455114
0.00352094
0.00244292
0.0014104
0.000501827
0.00830586
0.00815478
0.00804505
0.00797337
0.00792576
0.00789143
0.00787352
0.00787468
0.007894
0.00792283
0.00795993
0.00801185
0.00808489
0.00817389
0.00827225
0.00837529
0.00849209
0.00860275
0.0087134
0.00880162
0.0088946
0.0089503
0.00898146
0.00896959
0.00891715
0.00880226
0.00861161
0.00836396
0.00796126
0.00751581
0.00689805
0.00618261
0.00541022
0.00452489
0.00361072
0.00259114
0.00157844
0.000528208
0.00896408
0.0088409
0.00873731
0.00865246
0.00857993
0.00851598
0.0084626
0.0084225
0.00839479
0.00837529
0.00836376
0.0083624
0.00837654
0.0084007
0.0084352
0.00847389
0.00852394
0.00857075
0.0086176
0.00865112
0.00868589
0.00869204
0.00867959
0.00862935
0.00854081
0.00840791
0.0081983
0.00794229
0.00757238
0.00713767
0.00659021
0.00594493
0.00521955
0.00440265
0.00354922
0.00257762
0.00154502
0.000515592
0.0094074
0.00930109
0.00920171
0.00910928
0.00902288
0.00894143
0.00886721
0.00880099
0.00874365
0.00869321
0.00865047
0.00861515
0.00859003
0.00857132
0.00856208
0.0085562
0.00856096
0.00856162
0.00856555
0.00855667
0.00854815
0.00851916
0.00847126
0.00839427
0.00827798
0.00812739
0.00790816
0.00764669
0.00728876
0.00687092
0.00636006
0.00575466
0.00507586
0.00429922
0.00347012
0.00255314
0.00155281
0.00052391
0.00963259
0.00953487
0.00943833
0.00934323
0.00925094
0.00916183
0.00907808
0.00899957
0.00892811
0.00886239
0.00880442
0.00875185
0.00870725
0.00866669
0.00863464
0.00860562
0.00858492
0.00856177
0.00854071
0.00850983
0.00847622
0.00842747
0.00836027
0.00826755
0.00813648
0.00797455
0.00775215
0.00748502
0.00713772
0.00672424
0.00623142
0.00565007
0.00498947
0.00424033
0.00342815
0.00253187
0.00154644
0.000521125
-0.169942
-0.180869
-0.191562
-0.199787
-0.208164
-0.209933
-0.214602
-0.213768
-0.139694
-0.145511
-0.150948
-0.154731
-0.157782
-0.159303
-0.160763
-0.166281
-0.112297
-0.115256
-0.117303
-0.120157
-0.12266
-0.126084
-0.127154
-0.131339
-0.0907959
-0.0921023
-0.0929748
-0.0953989
-0.096757
-0.0987626
-0.0986711
-0.101707
-0.0720928
-0.0726798
-0.0728625
-0.0741353
-0.074378
-0.0753124
-0.0756415
-0.0787139
-0.0570004
-0.0569202
-0.0565939
-0.0570213
-0.0570529
-0.0578486
-0.0586346
-0.0614342
-0.0443913
-0.0439703
-0.0435045
-0.0436513
-0.0438202
-0.0445402
-0.045267
-0.047218
-0.0341254
-0.0336077
-0.0331478
-0.0331502
-0.0332246
-0.033568
-0.0339451
-0.035474
-0.0256929
-0.0251503
-0.0246383
-0.0244282
-0.0243215
-0.024498
-0.024976
-0.0264765
-0.0186869
-0.0181823
-0.0176942
-0.0174504
-0.0173792
-0.0175832
-0.0180447
-0.0191995
-0.0129328
-0.0125282
-0.0121311
-0.0119053
-0.011824
-0.0119423
-0.012293
-0.0132261
-0.00817994
-0.00787512
-0.00755988
-0.00735468
-0.00727698
-0.00737209
-0.00768003
-0.00843596
-0.00425794
-0.00405108
-0.00382924
-0.00367831
-0.00362027
-0.00368166
-0.00391151
-0.00449947
-0.00101428
-0.00089329
-0.000752138
-0.000647029
-0.000603781
-0.000654547
-0.000851233
-0.00132318
0.00165844
0.00170507
0.00177347
0.00182491
0.0018351
0.00178033
0.00162343
0.00127161
0.00383113
0.00382165
0.00383404
0.00384392
0.00383336
0.0037837
0.00366157
0.00339752
0.00559493
0.00554888
0.00552246
0.00550082
0.00546995
0.00541497
0.00531142
0.00511317
0.00700858
0.00693935
0.00688579
0.00683971
0.00679152
0.00673154
0.00664317
0.00649598
0.00812012
0.00803916
0.00796981
0.00790826
0.0078481
0.00778413
0.0077053
0.00759346
0.00897033
0.00888489
0.00880778
0.00873701
0.00866921
0.00860172
0.00852851
0.00843931
0.00959493
0.00950904
0.00942962
0.00935501
0.00928376
0.00921446
0.00914466
0.00906904
0.0100109
0.00992643
0.00984764
0.0097731
0.00970151
0.00963224
0.00956446
0.0094963
0.0102194
0.0101382
0.0100614
0.0099878
0.00991641
0.00984706
0.00977973
0.00971421
0.00579233
0.00750336
0.00814431
0.00709703
0.00389263
-0.00148027
-0.00915294
-0.0197477
-0.034381
-0.0546397
-0.0827208
-0.121722
-0.176616
-0.250855
-0.320705
-0.0220093
-0.0231919
-0.0272474
-0.0333422
-0.0412493
-0.0513035
-0.0641468
-0.0807101
-0.102253
-0.130464
-0.167671
-0.216997
-0.283603
-0.371354
-0.447847
-0.0484765
-0.0531792
-0.0619221
-0.0726703
-0.0849788
-0.0995323
-0.117321
-0.139436
-0.16723
-0.20251
-0.247791
-0.306251
-0.382212
-0.482216
-0.557356
-0.0757546
-0.0840584
-0.0964811
-0.110734
-0.126682
-0.145276
-0.167576
-0.194666
-0.227929
-0.269252
-0.321261
-0.387473
-0.470855
-0.575741
-0.647334
-0.103558
-0.115243
-0.130353
-0.147148
-0.166029
-0.188089
-0.214289
-0.24559
-0.2833
-0.329478
-0.386601
-0.458371
-0.546578
-0.650066
-0.716165
-0.13006
-0.144942
-0.162258
-0.181221
-0.202701
-0.227718
-0.257073
-0.291703
-0.332713
-0.382394
-0.443115
-0.517854
-0.607005
-0.705269
-0.763265
-0.154628
-0.17222
-0.191353
-0.212325
-0.236248
-0.263776
-0.295605
-0.332662
-0.376182
-0.427919
-0.490144
-0.564933
-0.651652
-0.741025
-0.789659
-0.177046
-0.196342
-0.217365
-0.240657
-0.266852
-0.296494
-0.33022
-0.368918
-0.413731
-0.466101
-0.527885
-0.600278
-0.681136
-0.757902
-0.797838
0.186519
0.201005
0.217331
0.235872
0.25663
0.279479
0.304327
0.331133
0.359816
0.390111
0.421416
0.452532
0.481427
0.504029
0.522484
0.178171
0.191254
0.206408
0.223986
0.243764
0.265452
0.288913
0.314113
0.340957
0.36913
0.397945
0.426094
0.45139
0.469785
0.484096
0.1656
0.176552
0.189949
0.206007
0.22417
0.243917
0.265029
0.287441
0.311013
0.335341
0.359607
0.382339
0.401087
0.41192
0.419111
0.148812
0.157095
0.168282
0.182267
0.198111
0.2151
0.232949
0.251548
0.27066
0.28972
0.307701
0.322893
0.332473
0.33246
0.330121
0.127971
0.133353
0.142217
0.153867
0.166843
0.180267
0.193873
0.207562
0.221021
0.233508
0.243737
0.249704
0.248179
0.234927
0.220252
0.103305
0.105246
0.111621
0.120812
0.130673
0.140167
0.149034
0.157155
0.164106
0.168966
0.170215
0.165558
0.151335
0.123058
0.0938558
0.0756789
0.0746789
0.0786355
0.0846593
0.090485
0.0952972
0.0989332
0.101124
0.101173
0.0978996
0.089528
0.0734669
0.0456733
0.00161691
-0.0427276
0.0431971
0.0411866
0.0442612
0.0471858
0.0484586
0.0479789
0.0458334
0.0416092
0.0343372
0.0225724
0.00428595
-0.023429
-0.0650666
-0.124842
-0.183422
0.0287303
0.0331576
0.0294715
0.0334059
0.0309757
0.0352611
0.033508
0.0378992
0.037256
0.0417289
0.0424808
0.0472751
0.0497717
0.0553651
0.0600192
0.0672478
0.0745725
0.0845065
0.0953279
0.10914
0.124835
0.144202
0.166391
0.0286619
0.0330526
0.0294031
0.0332754
0.0308875
0.0350978
0.0333847
0.03767
0.0370667
0.0414395
0.0421635
0.0468689
0.0492912
0.0547501
0.0592902
0.0663531
0.073306
0.0829591
0.0931572
0.106492
0.121083
0.139503
0.159966
0.0286035
0.0329222
0.0293527
0.0331166
0.030825
0.0349027
0.0332928
0.0374051
0.036911
0.0411176
0.0418777
0.0464267
0.048807
0.0540242
0.0584806
0.0653093
0.0718348
0.081183
0.0904888
0.103137
0.116157
0.133061
0.150604
0.0285542
0.0327683
0.0293197
0.0329332
0.0307843
0.034679
0.0332308
0.0371181
0.0367815
0.0407728
0.0416188
0.0460018
0.0483841
0.0534664
0.0577641
0.0643978
0.0703544
0.0793519
0.0874734
0.0991886
0.110001
0.124729
0.138158
0.0285147
0.0325949
0.0292961
0.0327295
0.0307627
0.0344323
0.0331828
0.0368114
0.036671
0.0403974
0.0413705
0.0454987
0.047871
0.0525752
0.0568585
0.0630564
0.0684876
0.0768156
0.0837476
0.0941828
0.102516
0.114348
0.122448
0.0284775
0.0324053
0.0292838
0.0325104
0.0307529
0.0341722
0.0331629
0.03652
0.0365792
0.0400515
0.0411807
0.0451385
0.0475479
0.0522338
0.0562176
0.0621278
0.0668737
0.0745939
0.0799167
0.0887888
0.0937214
0.102216
0.103954
0.0284495
0.0322012
0.0292761
0.0322841
0.0307524
0.0339025
0.0331309
0.0362
0.0364844
0.0396516
0.0409337
0.0445738
0.0469921
0.0511822
0.0551059
0.0602727
0.0646061
0.0711003
0.0752759
0.082005
0.0840665
0.0875945
0.0826922
0.0284188
0.0319903
0.0292725
0.0320601
0.0307563
0.0336564
0.0331528
0.0359665
0.0364228
0.0394109
0.0408554
0.0444182
0.0468437
0.0510743
0.0545628
0.0594827
0.0630001
0.0686553
0.0706056
0.0750168
0.072201
0.0719083
0.0577911
0.0283829
0.031712
0.0292762
0.0317426
0.0307498
0.0332508
0.0330691
0.0354925
0.0362331
0.0387738
0.0404003
0.0434531
0.0457688
0.0491906
0.0524293
0.0558542
0.0588922
0.0617962
0.0625858
0.0625908
0.0569614
0.0472722
0.0260113
0.0283457
0.0313334
0.0292852
0.0313126
0.0307107
0.0326786
0.032913
0.034738
0.0358129
0.0376982
0.0394552
0.0417454
0.0439597
0.0464663
0.0490768
0.0509533
0.052804
0.0531665
0.052225
0.048036
0.0409625
0.0284003
0.0118426
0.028325
0.0308752
0.0293089
0.0308013
0.030686
0.0320162
0.0327225
0.0339381
0.0352807
0.036621
0.0384023
0.0400285
0.0419623
0.0435724
0.0453256
0.04596
0.0463823
0.0449074
0.042118
0.0360748
0.0279417
0.0156485
0.00018095
0.0283214
0.0303276
0.0293491
0.0302198
0.0306242
0.0313783
0.0324117
0.0331821
0.0345869
0.0354828
0.0371536
0.0381343
0.0396767
0.040519
0.041232
0.0409093
0.039899
0.0370684
0.0329179
0.0260621
0.0174709
0.00596193
-0.00797841
0.0283376
0.0296834
0.0293673
0.0296719
0.0304388
0.030785
0.0319705
0.032387
0.0337102
0.0342982
0.035665
0.0361387
0.0371089
0.0373379
0.0369787
0.0358429
0.0337136
0.0299215
0.0250008
0.0180197
0.0096919
-0.000716368
-0.0130665
0.0283692
0.0290015
0.0292743
0.029176
0.0301587
0.0301955
0.0313883
0.031575
0.0326651
0.0330269
0.0339724
0.034007
0.0343767
0.0340414
0.0327737
0.0309187
0.0280764
0.0237735
0.0185888
0.0119277
0.00423985
-0.00498622
-0.0157301
0.0283734
0.0283398
0.0290552
0.0287169
0.0297636
0.029606
0.0306624
0.030726
0.0314716
0.0316522
0.0321301
0.0317561
0.0315724
0.0307109
0.0287813
0.0263911
0.0231844
0.0187734
0.0136456
0.0075418
0.00071354
-0.00721585
-0.0162865
0.0283232
0.0277139
0.0287268
0.028276
0.0292453
0.0290031
0.0298067
0.0298096
0.0301754
0.030164
0.0301942
0.0294416
0.0287841
0.0274803
0.0251383
0.0224293
0.0191152
0.0148892
0.0100673
0.004654
-0.00118867
-0.00777969
-0.0152314
0.028189
0.0271462
0.0282777
0.0278382
0.0286105
0.0283742
0.0288571
0.0288006
0.0288146
0.0285803
0.0282169
0.0271436
0.0261046
0.0244739
0.0219502
0.0191312
0.0158945
0.0120371
0.00771295
0.00305509
-0.0018079
-0.00714554
-0.0131423
0.0279543
0.026649
0.0277089
0.027386
0.0278811
0.0276798
0.0278522
0.0276932
0.0274152
0.026943
0.0262552
0.024946
0.0236273
0.0218001
0.0192735
0.0165218
0.0134993
0.0101002
0.00637299
0.00247271
-0.00149545
-0.00574033
-0.0104911
0.0276074
0.0262193
0.0270409
0.0268897
0.0271011
0.0269033
0.0268157
0.0265075
0.0259981
0.0253021
0.0243676
0.0229171
0.0214285
0.0195302
0.0171242
0.0145687
0.0118512
0.00893531
0.00581795
0.00262769
-0.000559294
-0.00389799
-0.00762488
0.0271454
0.0258425
0.0263118
0.0262903
0.0262982
0.0260518
0.0257624
0.0252834
0.0245921
0.0237195
0.0226136
0.0211096
0.0195591
0.0176962
0.0154851
0.0131999
0.0108352
0.00838668
0.00583454
0.00327145
0.000744675
-0.00186255
-0.00476819
0.0265771
0.025488
0.0255813
0.0255683
0.0254698
0.0251506
0.0247041
0.0240675
0.0232399
0.0222488
0.0210443
0.0195547
0.0180311
0.0162812
0.0143079
0.0123246
0.0103203
0.00829773
0.00623567
0.00420009
0.00221568
0.000190105
-0.00206327
0.0259251
0.0251048
0.0248989
0.0247624
0.0245968
0.0242065
0.0236492
0.0229003
0.0219829
0.0209299
0.0196935
0.0182662
0.0168295
0.0152441
0.0135293
0.0118477
0.0101809
0.00852867
0.00687371
0.00526565
0.00371411
0.00214297
0.000399472
0.0252179
0.0246204
0.0242575
0.0239846
0.0237057
0.0232355
0.0226091
0.0218024
0.0208506
0.019787
0.0185718
0.0172385
0.0159243
0.0145289
0.0130703
0.0116679
0.0102998
0.00895915
0.00763489
0.00636658
0.00515694
0.00394253
0.00259887
0.0244889
0.0240491
0.0236356
0.0232405
0.0228291
0.0222822
0.0216091
0.020785
0.0198462
0.0188196
0.0176731
0.0164585
0.0152826
0.0140763
0.0128515
0.0116925
0.0105765
0.00949127
0.0084305
0.00742771
0.00648438
0.00554784
0.0045179
0.0237632
0.0234189
0.0229967
0.0225241
0.0220052
0.0213922
0.0206856
0.0198692
0.0189748
0.0180184
0.0169756
0.0158977
0.0148642
0.0138308
0.0128055
0.0118476
0.0109363
0.0100562
0.00920332
0.00840619
0.00766778
0.00694616
0.00616266
0.0230604
0.0227693
0.0223471
0.0218342
0.0212524
0.020595
0.01987
0.0190766
0.0182395
0.0173661
0.0164399
0.0155035
0.0146099
0.0137286
0.0128685
0.0120724
0.0113246
0.0106082
0.00991885
0.00927933
0.00869539
0.00813733
0.00754527
0.0223963
0.0221318
0.0217144
0.0211872
0.0205802
0.0199058
0.0191802
0.0184185
0.017641
0.0168509
0.0160376
0.0152332
0.0144687
0.0137191
0.0129933
0.012324
0.011703
0.0111144
0.0105514
0.0100305
0.0095598
0.00912219
0.00867486
0.021793
0.0215435
0.0211325
0.0206042
0.019996
0.0193274
0.0186187
0.0178971
0.017176
0.0164583
0.0157407
0.0150472
0.0143953
0.0137609
0.0131475
0.0125791
0.0120549
0.0115628
0.0110946
0.0106603
0.01027
0.00991685
0.00957322
0.0212802
0.0210401
0.0206363
0.0201155
0.0195179
0.0188663
0.018183
0.017501
0.0168301
0.0161694
0.0155218
0.0149085
0.0143434
0.013806
0.0132898
0.0128072
0.0123607
0.0119442
0.0115489
0.0111794
0.0108458
0.0105504
0.0102799
0.0208913
0.0206562
0.0202606
0.0197507
0.0191665
0.0185346
0.0178766
0.017228
0.0166012
0.0159904
0.015395
0.0148338
0.0143254
0.0138574
0.0134125
0.0129874
0.0125855
0.0122094
0.0118587
0.0115358
0.0112454
0.0109897
0.0107632
0.0206785
0.0204479
0.0200539
0.0195457
0.018966
0.0183437
0.0176986
0.0170664
0.0164647
0.0158839
0.0153191
0.0147876
0.0143102
0.0138812
0.0134787
0.0130905
0.0127198
0.0123744
0.0120575
0.0117688
0.0115085
0.0112782
0.0110785
0.00254228
-0.023307
-0.0492513
-0.0725984
-0.0956126
-0.117682
-0.13828
-0.155627
-0.00661172
-0.0301521
-0.0561868
-0.0762997
-0.0923554
-0.107178
-0.120619
-0.131467
-0.0153595
-0.0341795
-0.0551574
-0.0702554
-0.0806004
-0.0904517
-0.0994698
-0.107088
-0.0217297
-0.0368239
-0.0522707
-0.0636426
-0.0710731
-0.0777959
-0.0834961
-0.0882073
-0.0253883
-0.0372828
-0.0476125
-0.055199
-0.0602798
-0.0645907
-0.0679519
-0.0707307
-0.0263905
-0.0354298
-0.0419013
-0.0465813
-0.0500686
-0.0529757
-0.0550609
-0.0565646
-0.0252332
-0.0319442
-0.0357162
-0.0383252
-0.0405918
-0.0425354
-0.0438134
-0.0445141
-0.0225627
-0.0275002
-0.0295057
-0.0307239
-0.0320809
-0.0333618
-0.0341608
-0.034425
-0.0190368
-0.022662
-0.0235802
-0.023921
-0.0246257
-0.0254533
-0.0259713
-0.0260472
-0.0151594
-0.0178221
-0.0181109
-0.0179395
-0.0181972
-0.0187013
-0.0190396
-0.0190328
-0.0112787
-0.0132335
-0.013185
-0.0127497
-0.0127232
-0.0130008
-0.0132268
-0.0132086
-0.00760203
-0.00903547
-0.00882869
-0.00829134
-0.00810492
-0.0082295
-0.00838154
-0.00837573
-0.00423987
-0.00528647
-0.00502527
-0.0044837
-0.0042266
-0.004258
-0.00436356
-0.00437794
-0.00125932
-0.0020198
-0.00175988
-0.00126042
-0.000980894
-0.000958521
-0.00103539
-0.00106979
0.00134072
0.000788323
0.00101992
0.00145153
0.00172049
0.00177186
0.0017134
0.0016594
0.00357487
0.00317675
0.00336613
0.00371378
0.00394353
0.00399781
0.00394569
0.00387475
0.00546403
0.00517777
0.00531872
0.0055785
0.00575459
0.00579587
0.00574446
0.00566435
0.00703529
0.00682996
0.00692308
0.00709935
0.0072168
0.00723497
0.00717872
0.00709296
0.00830806
0.00816093
0.00821175
0.00831459
0.00837513
0.00836525
0.0083003
0.00821115
0.00930829
0.00919899
0.00921351
0.00925536
0.00926578
0.0092282
0.00915365
0.00906262
0.0100834
0.0099925
0.00997129
0.00996079
0.00992767
0.00986439
0.00977961
0.00968656
0.0106058
0.0105232
0.0104767
0.0104309
0.0103686
0.0102878
0.0101958
0.0101015
0.0109349
0.0108377
0.0107536
0.0106708
0.0105832
0.0104909
0.0103971
0.0103058
-0.32021
-0.327568
-0.337748
-0.351085
-0.369133
-0.39316
-0.420813
-0.44612
-0.321056
-0.326682
-0.334337
-0.344704
-0.359173
-0.377806
-0.399745
-0.42093
-0.3186
-0.32363
-0.329521
-0.337465
-0.349062
-0.363684
-0.37786
-0.387247
-0.313189
-0.318061
-0.322678
-0.328115
-0.33513
-0.342461
-0.346905
-0.345177
-0.304169
-0.309021
-0.312133
-0.314125
-0.315444
-0.315345
-0.311972
-0.303023
-0.291517
-0.295922
-0.297028
-0.295434
-0.291992
-0.286703
-0.278357
-0.265108
-0.276274
-0.27956
-0.278473
-0.274004
-0.267505
-0.259137
-0.247878
-0.232149
-0.260111
-0.261734
-0.258483
-0.252023
-0.243761