/*--------------------------------*- C++ -*----------------------------------*\
| =========                 |                                                 |
| \\      /  F ield         | OpenFOAM: The Open Source CFD Toolbox           |
|  \\    /   O peration     | Version:  2312                                  |
|   \\  /    A nd           | Website:  www.openfoam.com                      |
|    \\/     M anipulation  |                                                 |
\*---------------------------------------------------------------------------*/
FoamFile
{
    version     2.0;
    format      ascii;
    arch        "LSB;label=32;scalar=64";
    class       surfaceScalarField;
    location    "88.3";
    object      phi;
}
// * * * * * * * * * * * * * * * * * * * * * * * * * * * * * * * * * * * * * //

dimensions      [0 3 -1 0 0 0 0];

oriented        oriented;

internalField   nonuniform List<scalar> 
10785
(
-0.00139744
0.00344289
-0.00204545
-0.00254614
0.00513096
-0.00398226
-0.000789808
0.00242837
-0.0041847
0.0065543
-0.00593871
-0.0014054
0.0217072
-0.0208008
0.00564781
0.0451047
-0.0409514
0.0175539
0.0751462
-0.0636486
0.0336072
0.108995
-0.0861249
0.0522757
0.143324
-0.106303
0.071975
0.175752
-0.123363
0.0909353
0.203105
-0.136848
0.109495
0.225265
-0.147099
0.12494
0.241238
-0.156047
0.140073
0.251034
-0.161646
0.15185
-0.171082
0.162426
0.25969
-0.000398607
0.0038415
0.000955213
0.00377714
0.0072574
-0.00387382
0.0216157
-0.020297
0.0446989
-0.0438839
0.0739595
-0.0702119
0.105256
-0.0949447
0.134586
-0.115455
0.159286
-0.131003
0.178053
-0.14213
0.191363
-0.150159
0.201401
-0.157137
0.209357
-0.164003
0.219742
-0.172031
-0.182514
0.231174
0.000430892
0.00341061
0.00461725
-0.000409216
0.0165649
-0.0158215
0.0379492
-0.0416813
0.065562
-0.0714967
0.0939413
-0.0985912
0.118558
-0.119561
0.137257
-0.134154
0.15025
-0.143996
0.159465
-0.151345
0.167572
-0.158266
0.176038
-0.165604
0.18584
-0.173804
0.195978
-0.182169
-0.190759
0.204222
0.0012517
0.00215891
0.00900193
-0.00815945
0.0269763
-0.0337959
0.0523755
-0.0670805
0.0782949
-0.0974161
0.0995574
-0.119854
0.114572
-0.134576
0.124621
-0.144203
0.132171
-0.151547
0.139304
-0.158479
0.146586
-0.165548
0.153939
-0.172957
0.160636
-0.180501
0.166903
-0.188436
-0.19746
0.173604
0.00239812
-0.000239213
0.0144637
-0.020225
0.0365132
-0.0558454
0.0604825
-0.0910497
0.0798711
-0.116805
0.0930303
-0.133013
0.101584
-0.14313
0.107897
-0.150516
0.113478
-0.157128
0.118675
-0.163676
0.123636
-0.170508
0.12846
-0.177781
0.133557
-0.185597
0.139259
-0.194138
-0.202842
0.144641
0.00402528
-0.0042645
0.0199748
-0.0361745
0.0418582
-0.0777288
0.0605279
-0.109719
0.0730925
-0.129369
0.0808538
-0.140774
0.0860067
-0.148283
0.0900062
-0.154515
0.093494
-0.160616
0.0968926
-0.167074
0.100397
-0.174013
0.104048
-0.181432
0.107756
-0.189305
0.111154
-0.197537
-0.206115
0.114427
0.00606819
-0.0103327
0.0237096
-0.0538159
0.0419394
-0.0959586
0.0547784
-0.122558
0.0623166
-0.136908
0.0665951
-0.145053
0.0693257
-0.151013
0.0714656
-0.156655
0.0734705
-0.162621
0.0754135
-0.169017
0.0772689
-0.175868
0.0790493
-0.183213
0.0807567
-0.191012
0.0825236
-0.199304
-0.207871
0.0842803
0.0079038
-0.0182365
0.0244217
-0.0703338
0.0380129
-0.10955
0.0459748
-0.13052
0.0498386
-0.140771
0.051614
-0.146828
0.0525531
-0.151952
0.0531746
-0.157277
0.0535824
-0.163029
0.0538283
-0.169263
0.0539657
-0.176006
0.0540218
-0.183269
0.0540943
-0.191085
0.0540873
-0.199297
0.0540242
-0.207808
-0.00224471
-0.0149988
0.0172435
-0.00712473
-0.0235644
0.0284444
-0.0136723
-0.0236474
0.0301949
-0.0213493
-0.0213584
0.0290355
-0.0297881
-0.0183334
0.0267722
-0.0386684
-0.0140992
0.0229796
-0.047668
-0.00787841
0.016878
-0.0562359
0.000828191
0.00773975
-0.0637608
0.0119452
-0.0044203
-0.0700731
0.0258842
-0.0195719
-0.0743157
0.0422323
-0.0379896
-0.0755002
0.0601122
-0.0589278
-0.0727913
0.0784338
-0.0811427
-0.0662943
0.0960424
-0.102539
0.109404
-0.0538429
-0.121855
-0.00284994
-0.0121488
-0.0082367
-0.0181776
-0.0151089
-0.0167752
-0.0231073
-0.0133599
-0.0318765
-0.00956423
-0.040957
-0.00501868
-0.0497281
0.000892673
-0.057438
0.0085381
-0.0635164
0.0180236
-0.0669132
0.029281
-0.0666343
0.0419534
-0.0617263
0.0552042
-0.0497893
0.0664968
-0.0325469
0.0788
0.0820727
-0.00521583
-0.0027586
-0.0093902
-0.00760832
-0.0133279
-0.0134849
-0.0108986
-0.0200959
-0.00674895
-0.0270504
-0.00260977
-0.0337747
0.0017057
-0.0395023
0.00662026
-0.0433515
0.0123872
-0.0443788
0.0190509
-0.041513
0.0264151
-0.0332442
0.0336846
-0.0196083
0.0415684
0.00217135
0.0447171
0.0292674
0.051704
0.0406227
0.0707174
-0.00237065
-0.00701955
-0.00630129
-0.00939723
-0.0106438
-0.00655607
-0.0150439
-0.00234882
-0.0192104
0.00155664
-0.0224189
0.00491428
-0.0238212
0.00802257
-0.0225042
0.0110702
-0.0174668
0.0140135
-0.00765859
0.0166069
0.00764434
0.0183817
0.0287104
0.0205023
0.0599216
0.0135059
0.0924644
0.0191612
-0.00528258
0.13837
-0.00212513
-0.00489442
-0.00546472
-0.00605764
-0.00869241
-0.00332837
-0.0113417
0.000300426
-0.0130056
0.00322059
-0.0130871
0.00499579
-0.0107752
0.00571064
-0.00514927
0.00544431
0.00467253
0.00419167
0.0198484
0.00143107
0.0409751
-0.00274503
0.0685631
-0.00708569
0.104216
-0.0221472
0.145819
-0.0224414
-0.0542931
0.194829
-0.00223178
-0.00266265
-0.00562057
-0.00266885
-0.0086412
-0.000307737
-0.0105284
0.00218765
-0.0107796
0.00347174
-0.00865126
0.00286747
-0.00309262
0.000151997
0.00703897
-0.00468728
0.0230507
-0.0118201
0.0454284
-0.0209466
0.0747261
-0.0320428
0.112491
-0.0448509
0.153124
-0.0627794
0.205166
-0.0744839
-0.10462
0.255493
-0.00246525
-0.000197398
-0.00610304
0.000968944
-0.00905517
0.00264439
-0.0101755
0.00330796
-0.00826972
0.00156597
-0.00194233
-0.00345992
0.0101225
-0.0119128
0.0289524
-0.0235172
0.0550465
-0.0379141
0.0874916
-0.0533917
0.126196
-0.0707468
0.169639
-0.0882943
0.213117
-0.106257
0.262807
-0.124174
-0.143293
0.30148
-0.00224285
-0.00525617
-0.00679648
-0.00489392
0.00231986
0.0164138
0.0381081
0.0668667
0.100928
0.138471
0.177219
0.213865
0.247681
0.275357
0.29449
-0.0168781
0.263296
-0.30026
0.0469251
0.24278
-0.306583
0.124271
0.0985535
-0.175899
0.187966
-0.108388
0.0446933
0.217854
-0.273127
0.243239
0.227905
-0.341875
0.331825
0.217448
-0.321823
0.33228
0.180288
-0.331633
0.368793
0.156678
-0.352129
0.375739
0.186745
-0.193434
0.163367
0.237627
0.0422997
-0.0931819
0.261176
0.1865
-0.21005
0.259827
0.32081
-0.319462
0.258303
0.415181
-0.413657
0.260512
0.394656
-0.396864
0.26933
0.264055
-0.272874
0.277481
-0.00128021
-0.00687085
0.285371
-0.293176
0.285286
0.291485
-0.47651
0.470396
0.297295
-0.51827
0.51246
0.302506
-0.238774
0.233563
0.302469
0.247402
-0.247366
0.31102
0.590538
-0.599088
0.320882
0.633988
-0.64385
0.306737
0.134813
-0.120668
0.285333
-0.653192
0.674596
0.298386
-0.671333
0.658281
0.29707
0.262048
-0.260733
0.277764
0.632325
-0.613019
0.257096
0.11732
-0.0966513
0.265614
-0.366365
0.357846
0.272461
-0.0635028
0.0566562
0.254787
0.2351
-0.217426
0.226561
0.164943
-0.136717
0.215085
-0.0931586
0.104635
0.229801
-0.165731
0.151015
0.229389
0.242802
-0.24239
0.197584
-0.187438
0.0535603
0.204519
0.1183
0.17804
0.17936
0.0374941
0.220286
-0.149314
0.230289
-0.283131
0.225257
-0.336843
0.212968
-0.309534
0.180403
-0.299068
0.153463
-0.325189
0.180188
-0.220158
0.233264
-0.0107767
0.262362
0.157403
0.263117
0.320054
0.256639
0.421659
0.257648
0.393647
0.270358
0.251345
0.2766
-0.00752215
0.280363
-0.296939
0.285154
-0.481301
0.289682
-0.522798
0.298027
-0.247119
0.303638
0.241792
0.31603
0.578146
0.327702
0.622315
0.309664
0.152851
0.278526
-0.622053
0.290977
-0.683785
0.298114
0.254911
0.281332
0.649107
0.256676
0.141976
0.2641
-0.373789
0.27392
-0.0733228
0.258102
0.250917
0.229987
0.193058
0.21788
-0.0810508
0.232659
-0.180511
0.232377
0.243084
0.207814
0.134717
0.14052
0.191003
0.121755
0.231303
-0.0028061
0.252333
-0.170344
0.246846
-0.277644
0.228527
-0.318525
0.212143
-0.293151
0.184645
-0.271569
0.158848
-0.299393
0.180092
-0.241402
0.229289
-0.0599737
0.258857
0.127835
0.262843
0.316068
0.253786
0.430717
0.253967
0.393466
0.269264
0.236048
0.273491
-0.0117495
0.271599
-0.295047
0.273741
-0.483443
0.276927
-0.525984
0.289048
-0.25924
0.301331
0.229509
0.317077
0.562401
0.329369
0.610023
0.308586
0.173634
0.26936
-0.582827
0.280071
-0.694497
0.296875
0.238107
0.283362
0.662621
0.254699
0.170639
0.260384
-0.379474
0.273637
-0.0865764
0.260383
0.264172
0.23288
0.220561
0.220116
-0.0682872
0.234961
-0.195355
0.235378
0.242667
0.217784
0.193451
0.0854385
0.241325
0.0738811
0.272667
-0.034148
0.278694
-0.176372
0.258521
-0.257471
0.229966
-0.28997
0.210947
-0.274132
0.186157
-0.246779
0.16164
-0.274876
0.182334
-0.262096
0.231266
-0.108905
0.261404
0.0976975
0.263917
0.313556
0.248982
0.445652
0.246773
0.395675
0.264682
0.218139
0.267772
-0.0148393
0.260432
-0.287707
0.258942
-0.481953
0.260429
-0.527471
0.2764
-0.275211
0.294655
0.211253
0.312403
0.544653
0.325
0.597425
0.302918
0.195716
0.258382
-0.538292
0.266332
-0.702446
0.292507
0.211932
0.282964
0.672164
0.251082
0.202521
0.254676
-0.383068
0.271641
-0.103541
0.261549
0.274263
0.235106
0.247005
0.221804
-0.0549854
0.236768
-0.210319
0.238336
0.2411
0.227203
0.235857
0.0444112
0.276238
0.0335
0.298882
-0.0567922
0.288665
-0.166155
0.256126
-0.224932
0.22186
-0.255704
0.204003
-0.256274
0.184494
-0.22727
0.156812
-0.247193
0.175837
-0.281121
0.230871
-0.16394
0.261396
0.0671721
0.264586
0.310366
0.249195
0.461043
0.2435
0.40137
0.259163
0.202475
0.260786
-0.0164624
0.247758
-0.274678
0.241114
-0.475309
0.240202
-0.526559
0.259509
-0.294518
0.285191
0.185571
0.305572
0.524272
0.317605
0.585393
0.294423
0.218898
0.245279
-0.489148
0.250313
-0.707479
0.286062
0.176183
0.281308
0.676918
0.246564
0.237265
0.247451
-0.383954
0.268084
-0.124174
0.26158
0.280767
0.236559
0.272025
0.222939
-0.0413652
0.238131
-0.225512
0.24119
0.238041
0.235823
0.28096
0.0189435
0.308505
0.00595565
0.314085
-0.062373
0.288299
-0.140369
0.248834
-0.185466
0.211528
-0.218398
0.19165
-0.236396
0.180658
-0.216278
0.149878
-0.216414
0.152887
-0.28413
0.213547
-0.2246
0.254852
0.0258676
0.262219
0.302999
0.247396
0.475866
0.239166
0.4096
0.252165
0.189476
0.25167
-0.015967
0.233754
-0.256763
0.221258
-0.462813
0.218025
-0.523326
0.239376
-0.315869
0.271105
0.153842
0.293518
0.501859
0.305601
0.573309
0.282949
0.24155
0.230847
-0.437046
0.232858
-0.709491
0.276495
0.132546
0.27706
0.676353
0.240804
0.27352
0.239033
-0.382183
0.263116
-0.148257
0.2605
0.283384
0.237191
0.295334
0.223513
-0.0276875
0.239063
-0.241062
0.243879
0.233225
0.243425
0.311685
0.00873855
0.321234
-0.00359338
0.306867
-0.0480054
0.272091
-0.105593
0.233914
-0.14729
0.199897
-0.184381
0.176395
-0.212895
0.170747
-0.21063
0.147296
-0.192963
0.127346
-0.264179
0.180423
-0.277677
0.24623
-0.0399395
0.268345
0.280883
0.256489
0.487723
0.24122
0.424869
0.244117
0.186579
0.239767
-0.0116168
0.21787
-0.234866
0.200452
-0.445395
0.194231
-0.517104
0.217021
-0.338659
0.256253
0.11461
0.281821
0.476292
0.293654
0.561476
0.270492
0.264712
0.216008
-0.382562
0.214901
-0.708384
0.265782
0.0816655
0.272058
0.670077
0.234656
0.310922
0.229994
-0.377522
0.256998
-0.175261
0.258369
0.282013
0.236989
0.316714
0.223511
-0.0142093
0.239529
-0.25708
0.24632
0.226435
0.249792
0.296241
0.00698719
0.295738
-0.00309015
0.277653
-0.0299198
0.248411
-0.0763506
0.217007
-0.115886
0.187806
-0.15518
0.162449
-0.187538
0.155867
-0.204047
0.143762
-0.180858
0.112958
-0.233375
0.138088
-0.302807
0.207864
-0.109715
0.255015
0.233733
0.257557
0.48518
0.23945
0.442975
0.236751
0.189278
0.229454
-0.00432007
0.203004
-0.208416
0.179434
-0.421825
0.170657
-0.508328
0.193053
-0.361055
0.235013
0.0726498
0.264017
0.447287
0.277938
0.547556
0.257207
0.285444
0.20195
-0.327305
0.196969
-0.703403
0.252173
0.0264623
0.264314
0.657936
0.227689
0.347547
0.220552
-0.370385
0.2498
-0.204509
0.255319
0.276494
0.236058
0.335975
0.222924
-0.00107515
0.239534
-0.27369
0.248462
0.217507
0.254691
0.495104
0.00311385
-0.491231
0.500649
-0.00863538
0.502011
-0.0312812
0.493294
-0.0676336
0.472648
-0.0952401
0.453539
-0.136071
0.421244
-0.155243
0.392939
-0.175742
0.381508
-0.169428
0.341916
-0.193783
0.304255
-0.265145
0.306118
-0.111578
0.290517
0.249333
0.276109
0.499587
0.316492
0.402593
0.386863
0.118907
0.426507
-0.0439638
0.432547
-0.214456
0.415491
-0.404769
0.374116
-0.466953
0.337767
-0.324705
0.327066
0.0833505
0.33369
0.440664
0.381102
0.500144
0.420813
0.245732
0.38771
-0.294202
0.34234
-0.658034
0.361355
0.00744764
0.372258
0.647033
0.356456
0.363348
0.359712
-0.37364
0.383745
-0.228542
0.380904
0.279335
0.357366
0.359514
0.343148
0.0131431
0.36197
-0.292513
0.370807
0.20867
0.263177
0.524991
0.00100739
-0.522885
0.526574
-0.0102178
0.524796
-0.0295034
0.515742
-0.0585794
0.495681
-0.0751791
0.472653
-0.113044
0.442815
-0.125405
0.40617
-0.139097
0.384272
-0.147529
0.358194
-0.167705
0.314945
-0.221897
0.285901
-0.0825335
0.279809
0.255425
0.306386
0.473011
0.380592
0.328387
0.451053
0.0484459
0.480352
-0.073263
0.47357
-0.207673
0.437336
-0.368535
0.379087
-0.408705
0.341404
-0.287022
0.329196
0.0955589
0.338231
0.431628
0.406978
0.431397
0.458989
0.193721
0.411808
-0.247021
0.359826
-0.606052
0.38103
-0.0137565
0.397968
0.630095
0.388848
0.372468
0.394115
-0.378907
0.418569
-0.252996
0.416509
0.281395
0.393819
0.382203
0.38048
0.0264821
0.40014
-0.312173
0.41153
0.19728
0.270898
0.556212
-0.000409938
-0.554795
0.557436
-0.0114409
0.553867
-0.025935
0.54599
-0.0507017
0.532746
-0.0619358
0.510674
-0.0909717
0.487384
-0.102114
0.46398
-0.115693
0.432281
-0.115831
0.390243
-0.125667
0.327901
-0.159555
0.276934
-0.0315665
0.286778
0.245581
0.374868
0.384921
0.474183
0.229072
0.524061
-0.00143289
0.53378
-0.0829818
0.518878
-0.192771
0.466131
-0.315787
0.382386
-0.32496
0.331254
-0.23589
0.317748
0.109065
0.341068
0.408308
0.439044
0.333422
0.504147
0.128617
0.447761
-0.190635
0.378505
-0.536795
0.402211
-0.0374631
0.427735
0.604571
0.427371
0.372831
0.433777
-0.385313
0.457512
-0.276731
0.455603
0.283304
0.434275
0.403532
0.421761
0.0389962
0.441622
-0.332035
0.455999
0.182903
0.276928
0.591127
-0.00171184
-0.589825
0.589937
-0.0102509
0.586344
-0.0223416
0.576953
-0.0413114
0.562626
-0.0476087
0.545171
-0.0735165
0.51957
-0.0765132
0.49443
-0.0905527
0.471341
-0.0927422
0.435593
-0.0899187
0.378353
-0.102316
0.32865
0.0181364
0.36927
0.204961
0.485617
0.268574
0.572929
0.14176
0.594737
-0.0232408
0.577656
-0.0659004
0.548672
-0.163788
0.486701
-0.253816
0.384755
-0.223014
0.311132
-0.162267
0.29864
0.121556
0.351145
0.355803
0.472129
0.212438
0.546867
0.0538791
0.485355
-0.129123
0.395503
-0.446943
0.4103
-0.05226
0.454601
0.56027
0.474928
0.352504
0.483467
-0.393851
0.502931
-0.296195
0.49981
0.286425
0.479584
0.423758
0.467697
0.0508828
0.486758
-0.351095
0.505174
0.164487
0.280086
0.62867
-0.00184883
-0.628533
0.627452
-0.00903323
0.622544
-0.0174337
0.614757
-0.0335245
0.603386
-0.0362378
0.588226
-0.0583564
0.568688
-0.0569752
0.54612
-0.0679844
0.52244
-0.0690623
0.487056
-0.0545346
0.446509
-0.0617694
0.430708
0.0339382
0.493294
0.142375
0.592028
0.16984
0.641642
0.0921463
0.642273
-0.0238718
0.622078
-0.045705
0.593384
-0.135094
0.533235
-0.193668
0.431496
-0.121274
0.349539
-0.08031
0.339433
0.131663
0.404224
0.291012
0.520526
0.096136
0.596532
-0.0221274
0.539873
-0.0724635
0.425483
-0.332553
0.424081
-0.0508582
0.492073
0.492278
0.537989
0.306588
0.5429
-0.398762
0.551292
-0.304587
0.544589
0.293128
0.528898
0.439449
0.519036
0.0607446
0.535355
-0.367414
0.558452
0.141389
0.278877
0.670917
-0.00143318
-0.671333
0.669336
-0.00745258
0.665063
-0.0131602
0.657815
-0.0262762
0.647945
-0.026368
0.633448
-0.0438593
0.617038
-0.040566
0.597351
-0.0482967
0.578857
-0.0505687
0.555503
-0.0311807
0.531178
-0.0374446
0.533658
0.0314583
0.587987
0.0880455
0.658269
0.0995584
0.686841
0.0635746
0.679247
-0.0162777
0.657031
-0.0234892
0.624391
-0.102454
0.578416
-0.147693
0.503697
-0.0465549
0.445736
-0.0223488
0.462172
0.115226
0.524711
0.228473
0.59288
0.0279666
0.647407
-0.0766538
0.600502
-0.0255588
0.476271
-0.208322
0.464362
-0.0389497
0.560662
0.395979
0.621119
0.24613
0.610173
-0.387815
0.604635
-0.299049
0.596298
0.301464
0.588199
0.447548
0.579016
0.0699281
0.588484
-0.376882
0.616549
0.113325
0.271499
0.718612
-0.00067954
-0.719366
0.717075
-0.00591513
0.713025
-0.0091108
0.706204
-0.0194549
0.698515
-0.0186788
0.686053
-0.0313969
0.674396
-0.0289093
0.658677
-0.0325777
0.64402
-0.035912
0.629235
-0.0163954
0.614512
-0.0227221
0.622971
0.0229997
0.660502
0.0505143
0.704112
0.0559482
0.720766
0.0469205
0.721368
-0.016879
0.710922
-0.0130438
0.672973
-0.0645044
0.631881
-0.106601
0.590686
-0.0053605
0.563705
0.00463258
0.604371
0.07456
0.666262
0.166582
0.683923
0.0103059
0.699515
-0.0922458
0.67345
0.000506444
0.571054
-0.105927
0.551457
-0.0193524
0.657183
0.290252
0.715759
0.187555
0.678849
-0.350906
0.654635
-0.274834
0.650104
0.305994
0.655442
0.442211
0.648218
0.0771518
0.646411
-0.375076
0.678597
0.0811396
0.25645
0.772777
0.00010956
-0.773566
0.770825
-0.00396256
0.767645
-0.00593131
0.76159
-0.0133996
0.755828
-0.0129168
0.745625
-0.0211938
0.736697
-0.0199817
0.72505
-0.0209306
0.713399
-0.0242606
0.705682
-0.00867846
0.69709
-0.01413
0.705491
0.0145988
0.726926
0.0290795
0.755202
0.0276723
0.768714
0.0334081
0.76345
-0.0116147
0.759178
-0.00877268
0.730638
-0.0359642
0.698459
-0.0744222
0.685026
0.00807261
0.675109
0.0145494
0.711159
0.03851
0.762194
0.115548
0.75963
0.0128697
0.748168
-0.0807831
0.73898
0.009694
0.679472
-0.0464187
0.662631
-0.00251095
0.752876
0.200006
0.799605
0.140826
0.738087
-0.289387
0.684032
-0.22078
0.688921
0.301106
0.727582
0.40355
0.730025
0.0747087
0.711163
-0.356213
0.742939
0.0493628
0.23298
0.833311
0.000834663
-0.834036
0.831488
-0.00213982
0.82906
-0.00350313
0.824097
-0.00843737
0.819687
-0.00850654
0.811882
-0.0133887
0.805148
-0.0132474
0.797258
-0.0130411
0.788585
-0.0155871
0.785018
-0.00511174
0.779042
-0.00815404
0.785713
0.0079273
0.798354
0.0164386
0.813082
0.0129446
0.824414
0.0220764
0.820647
-0.00784753
0.818762
-0.00688845
0.799071
-0.0162726
0.772283
-0.0476341
0.771135
0.00922011
0.768951
0.0167336
0.789445
0.0180159
0.831921
0.0730717
0.829194
0.0155964
0.806491
-0.0580796
0.80117
0.0150154
0.774106
-0.0193551
0.765969
0.00562582
0.832713
0.133263
0.866329
0.10721
0.790829
-0.213887
0.718151
-0.148103
0.745948
0.273309
0.824751
0.324747
0.828739
0.0707214
0.784266
-0.31174
0.811684
0.0219451
0.201549
0.901193
0.00138515
-0.901743
0.89965
-0.000596972
0.897792
-0.00164496
0.89407
-0.00471588
0.890646
-0.0050821
0.885213
-0.00795569
0.880083
-0.00811791
0.874959
-0.00791611
0.868651
-0.00927971
0.866757
-0.00321757
0.863157
-0.00455367
0.867166
0.0039181
0.874556
0.00904853
0.88172
0.00578028
0.890465
0.0133313
0.886364
-0.00374586
0.883892
-0.0044166
0.873741
-0.00612176
0.853417
-0.0273105
0.855316
0.00732179
0.858523
0.0135266
0.865884
0.0106545
0.894697
0.0442586
0.89652
0.0137732
0.875656
-0.0372149
0.87455
0.0161214
0.86293
-0.00773526
0.854962
0.0135934
0.900489
0.0877361
0.925257
0.0824413
0.852474
-0.141103
0.78852
-0.084149
0.845266
0.216562
0.941359
0.228654
0.935099
0.0769812
0.86289
-0.239531
0.878045
0.00679062
0.166264
0.97686
0.0018383
-0.977313
0.975691
0.000571516
0.974277
-0.000231325
0.971671
-0.00210965
0.969111
-0.00252199
0.965422
-0.00426623
0.961742
-0.00443836
0.958298
-0.00447217
0.954083
-0.00506449
0.952814
-0.00194855
0.950561
-0.00230132
0.952559
0.00192077
0.956725
0.00488194
0.959632
0.00287406
0.965073
0.00789012
0.962739
-0.00141207
0.960093
-0.00177075
0.955168
-0.00119658
0.941632
-0.0137743
0.942198
0.00675618
0.946659
0.00906541
0.949028
0.0082853
0.967532
0.0257543
0.971801
0.00950467
0.955555
-0.0209692
0.954375
0.017301
0.949946
-0.00330541
0.942523
0.0210156
0.972455
0.057804
0.990968
0.0639286
0.93159
-0.0817247
0.887528
-0.0400873
0.954869
0.149221
1.04148
0.142044
1.02839
0.0900742
0.943928
-0.155073
0.943374
0.00734485
0.131624
1.06071
0.00214109
-1.06101
1.0599
0.00138156
1.05888
0.000787344
1.05715
-0.000379539
1.05535
-0.000716862
1.05291
-0.00183361
1.05039
-0.00191463
1.0481
-0.00218101
1.04533
-0.00229835
1.04431
-0.000929705
1.04283
-0.000818923
1.04361
0.00114335
1.04558
0.00290969
1.04666
0.00179908
1.04961
0.00493322
1.04792
0.000283482
1.0457
0.000442958
1.04313
0.00137659
1.03506
-0.00570634
1.03515
0.00666826
1.03887
0.00534484
1.03997
0.00718241
1.05049
0.0152381
1.05394
0.00605111
1.04349
-0.010518
1.044
0.0167953
1.04201
-0.00131515
1.03596
0.0270634
1.0541
0.0396596
1.0668
0.0512278
1.02501
-0.0399275
0.998768
-0.0138477
1.0568
0.091193
1.12084
0.0780052
1.1081
0.102811
1.03475
-0.0817299
1.03019
0.0119097
0.0999645
1.15329
0.00229848
-1.15345
1.15281
0.001863
1.15215
0.00144899
1.15104
0.000727008
1.14983
0.000494673
1.14828
-0.000283996
1.14661
-0.000249394
1.14509
-0.000658002
1.14328
-0.000488201
1.14245
-0.000100865
1.14138
0.000251079
1.14147
0.00105325
1.14223
0.00215357
1.14234
0.001691
1.14369
0.00358079
1.1425
0.00147468
1.14106
0.00187773
1.1396
0.00283523
1.13513
-0.00123349
1.13524
0.00655735
1.13725
0.00333364
1.13813
0.00630763
1.14463
0.00874057
1.14672
0.00395985
1.14036
-0.00415802
1.14183
0.0153259
1.1401
0.000414285
1.13608
0.0310762
1.14771
0.028033
1.15608
0.0428575
1.12805
-0.0119006
1.11435
-0.000146515
1.15858
0.0469636
1.20128
0.0353064
1.19142
0.11267
1.13923
-0.0295397
1.13959
0.0115512
0.0728053
1.25519
0.00233908
-1.25523
1.25495
0.00210496
1.25457
0.00183254
1.25392
0.00137338
1.25315
0.00126173
1.2522
0.00067145
1.25112
0.0008289
1.25014
0.000324247
1.24898
0.000674066
1.24832
0.000557826
1.24755
0.0010221
1.2473
0.00129695
1.24744
0.00201698
1.24715
0.00198364
1.24768
0.00304936
1.24677
0.00237708
1.24586
0.00279212
1.24503
0.00366696
1.24257
0.00122495
1.24291
0.00621482
1.2439
0.00234616
1.24456
0.00564457
1.24842
0.00488205
1.24946
0.00292531
1.24584
-0.000545753
1.24817
0.0130005
1.24674
0.00184049
1.24444
0.0333806
1.25165
0.0208175
1.25659
0.0379193
1.23955
0.00513948
1.235
0.00440384
1.26724
0.0147231
1.29216
0.0103879
1.28603
0.118803
1.25398
0.00250574
1.25802
0.00751418
0.0515841
1.36709
0.00228278
-1.36703
1.36702
0.00217327
1.36684
0.00201014
1.36651
0.00170881
1.36607
0.00170097
1.36552
0.00122295
1.36487
0.00147666
1.36426
0.000938049
1.36353
0.00140116
1.36304
0.00104954
1.36249
0.00156575
1.36216
0.00162462
1.36208
0.0021048
1.36169
0.00237395
1.36182
0.0029129
1.36118
0.00302072
1.36063
0.0033377
1.36025
0.0040528
1.35888
0.0025972
1.35936
0.00573182
1.35978
0.00192224
1.36026
0.0051711
1.36268
0.00246278
1.36333
0.00227585
1.3612
0.00158126
1.36364
0.010556
1.36237
0.00311332
1.36185
0.0338997
1.36652
0.0161445
1.3699
0.0345463
1.36035
0.0146838
1.36108
0.00367302
1.38305
-0.00724544
1.39572
-0.0022806
1.39532
0.119201
1.37779
0.0200348
1.38143
0.00388182
0.0365269
1.4898
0.00216735
-1.48968
1.48983
0.00213805
1.48979
0.00205061
1.48965
0.00184745
1.48944
0.00191297
1.48916
0.00150611
1.4888
0.00182883
1.48846
0.00127931
1.48804
0.00182199
1.48774
0.00135247
1.4874
0.00190431
1.48716
0.0018706
1.48704
0.0022153
1.48674
0.00268171
1.48678
0.00287296
1.48636
0.00343465
1.48611
0.00359319
1.48596
0.00420283
1.48525
0.0033086
1.48575
0.00522488
1.48592
0.00175376
1.48634
0.00475338
1.48778
0.00101862
1.48816
0.00189652
1.4871
0.00264218
1.48945
0.00820833
1.48842
0.00414587
1.48944
0.0328741
1.49261
0.0129733
1.49483
0.0323336
1.4908
0.0187144
1.49465
-0.000179009
1.50874
-0.0213383
1.51293
-0.00646705
1.51749
0.114636
1.51023
0.0273003
1.51237
0.001737
0.0264258
1.6242
0.00203469
-1.62407
1.62429
0.00205115
1.62432
0.00201604
1.62429
0.00187535
1.62423
0.00197879
1.6241
0.00162714
1.62397
0.00196728
1.62382
0.00142999
1.62365
0.00199024
1.62353
0.00147002
1.6234
0.00203818
1.62333
0.00193275
1.62332
0.00222748
1.62322
0.00278005
1.62335
0.00275018
1.62315
0.00362805
1.62322
0.00352952
1.62319
0.00422646
1.62296
0.00354451
1.62348
0.00470133
1.62341
0.00182587
1.62393
0.00423637
1.62457
0.000371467
1.62465
0.00182286
1.62441
0.00287515
1.62626
0.00635868
1.62547
0.00493815
1.62856
0.0297813
1.63084
0.0106967
1.63324
0.0299371
1.63299
0.0189596
1.63745
-0.00463673
1.6431
-0.0269923
1.64261
-0.00597721
1.65402
0.103232
1.65267
0.0286529
1.65267
0.00172934
0.0195798
1.77139
0.0019339
-1.77129
1.77147
0.00196819
1.77152
0.00197153
1.77153
0.00186577
1.77154
0.00196577
1.7715
0.00166446
1.77153
0.00194564
1.7715
0.00145441
1.77156
0.00193462
1.77162
0.00141001
1.7717
0.00195058
1.77188
0.00175293
1.77203
0.00207828
1.77225
0.00256841
1.77253
0.00247018
1.77261
0.00354839
1.77301
0.00312491
1.77305
0.00418206
1.77327
0.00332918
1.77375
0.00421646
1.77352
0.00206428
1.77415
0.00359948
1.77404
0.000484403
1.77374
0.00211794
1.7741
0.00251918
1.77525
0.00520465
1.7749
0.00529196
1.78021
0.0244695
1.78189
0.00902182
1.78462
0.027205
1.78784
0.0157372
1.79168
-0.00847654
1.78912
-0.024427
1.78616
-0.00301851
1.80465
0.0847353
1.80616
0.027145
1.80398
0.00390934
0.0147219
1.93232
0.0018002
-1.93218
1.93245
0.00183211
1.93256
0.00186703
1.93262
0.00180487
1.93273
0.00185576
1.93271
0.00167798
1.93288
0.00178476
1.93284
0.00149055
1.93307
0.00170674
1.93314
0.00134022
1.9334
0.00169203
1.93374
0.00140968
1.93403
0.0017899
1.93469
0.00190746
1.93516
0.00199506
1.93588
0.00283672
1.93672
0.00228317
1.93716
0.00373943
1.93801
0.0024794
1.93831
0.00391259
1.93805
0.00232274
1.93833
0.00332628
1.93679
0.00202651
1.93599
0.00291161
1.93625
0.00226292
1.93577
0.00568769
1.937
0.0040541
1.94595
0.0155276
1.94755
0.00741489
1.95426
0.0205014
1.96115
0.0088466
1.9577
-0.00503419
1.94051
-0.00723292
1.93752
-2.69913e-05
1.96871
0.0535412
1.97517
0.0206895
1.97126
0.00781369
0.0116851
2.10827
0.00138886
-2.10786
2.10867
0.00142927
2.10908
0.00146006
2.10942
0.00146566
2.1098
0.00147645
2.11003
0.00144797
2.11036
0.0014465
2.11048
0.00137838
2.11077
0.00140811
2.11084
0.00127524
2.11112
0.00141299
2.11131
0.00122044
2.11162
0.00147572
2.11214
0.0013869
2.1126
0.00153522
2.11351
0.00193089
2.11421
0.00158565
2.11524
0.0027028
2.11602
0.00170343
2.11672
0.00321017
2.11697
0.00206991
2.11712
0.003178
2.11647
0.00268044
2.11606
0.00331632
2.11607
0.00225316
2.11608
0.00568159
2.11766
0.00247667
2.12453
0.00865428
2.12698
0.00496682
2.13525
0.0122306
2.13974
0.00435401
2.13276
0.00194522
2.11913
0.0063981
2.11702
0.00208374
2.14292
0.0276393
2.15438
0.00923387
2.15414
0.00804638
0.0103742
2.30135
0.000874267
-2.30083
2.30186
0.000919543
2.30239
0.000930164
2.30289
0.000962667
2.30339
0.000973416
2.30386
0.000986957
2.3043
0.00100719
2.30468
0.000995375
2.30505
0.00103579
2.30533
0.000996412
2.30568
0.00106332
2.30588
0.00102067
2.30626
0.0010969
2.30653
0.00111893
2.30692
0.001137
2.30751
0.00133997
2.30789
0.00121014
2.3089
0.00168956
2.3093
0.00130407
2.31041
0.00209827
2.31107
0.00141593
2.31182
0.00242418
2.31285
0.00165513
2.31353
0.00263254
2.31389
0.00189705
2.31582
0.00375021
2.31632
0.00197478
2.3191
0.00587949
2.32134
0.0027274
2.32657
0.0069968
2.32722
0.00370767
2.32608
0.00307979
2.32721
0.00526744
2.32633
0.00296176
2.33711
0.0168627
2.34415
0.00218966
2.34723
0.00497471
0.0081377
2.51292
0.000453443
-2.5125
2.51336
0.000478063
2.51381
0.000483956
2.51426
0.000505412
2.51473
0.000508216
2.51519
0.000525094
2.51567
0.000527149
2.51613
0.000537148
2.51662
0.000542517
2.51707
0.000543218
2.51758
0.000557152
2.51805
0.000555678
2.51857
0.000575306
2.51909
0.000599736
2.51963
0.000594208
2.52026
0.000704737
2.52085
0.0006224
2.52166
0.000883914
2.52228
0.000678801
2.52328
0.00109963
2.52391
0.000787964
2.52502
0.00130962
2.52575
0.000934016
2.52682
0.00155613
2.52772
0.000995867
2.52943
0.0020416
2.53036
0.00104504
2.5336
0.00264337
2.53497
0.00135138
2.53879
0.00318043
2.54056
0.00193611
2.5415
0.00214149
2.54268
0.00408253
2.54382
0.00183046
2.55394
0.00673809
2.55569
0.00043889
2.55798
0.00268371
0.00421356
2.74454
-2.74409
2.74502
2.7455
2.74601
2.74652
2.74704
2.74757
2.74811
2.74865
2.74919
2.74975
2.75031
2.75088
2.75148
2.75208
2.75278
2.7534
2.75429
2.75497
2.75606
2.75685
2.75816
2.7591
2.76065
2.76165
2.76369
2.76474
2.76738
2.76873
2.77191
2.77385
2.77599
2.78007
2.7819
2.78864
2.78908
2.79176
0.427221
0.0467791
-0.419976
0.435264
0.076237
0.442994
0.106697
0.451491
0.136144
0.460031
0.165064
0.470009
0.194245
0.481066
0.220117
0.249525
0.460171
0.0403252
-0.453717
0.467384
0.0690241
0.475026
0.099056
0.483017
0.128153
0.492565
0.155516
0.501555
0.185255
0.512633
0.209039
0.239273
0.496902
0.0347412
-0.491318
0.502889
0.0630373
0.509867
0.0920785
0.51662
0.121399
0.524944
0.147192
0.533175
0.177024
0.542951
0.199263
0.227429
0.536372
0.0297442
-0.531375
0.541448
0.0579608
0.547498
0.0860285
0.553905
0.114993
0.561143
0.139953
0.569851
0.168316
0.578971
0.190142
0.216576
0.579653
0.0255856
-0.575494
0.584084
0.0535296
0.589527
0.0805856
0.595731
0.108789
0.602565
0.133119
0.610602
0.160279
0.618776
0.181968
0.206819
0.626942
0.022034
-0.62339
0.630964
0.0495075
0.635823
0.0757263
0.641514
0.103098
0.647514
0.127118
0.654683
0.15311
0.662128
0.174524
0.197614
0.678786
0.0190871
-0.67584
0.682287
0.0460073
0.686394
0.0716191
0.691406
0.0980857
0.696693
0.121832
0.703598
0.146205
0.710744
0.167378
0.188993
0.735361
0.0168287
-0.733103
0.738363
0.0430056
0.741949
0.0680325
0.746765
0.0932699
0.752136
0.116461
0.758795
0.139546
0.765589
0.160583
0.181015
0.797565
0.0150166
-0.795753
0.800372
0.0401987
0.803901
0.0645032
0.808563
0.0886081
0.813624
0.1114
0.81968
0.13349
0.826344
0.153919
0.173324
0.866025
0.0135038
-0.864512
0.868573
0.0376508
0.87188
0.0611961
0.876144
0.0843445
0.881127
0.106417
0.887202
0.127415
0.894083
0.147038
0.165663
0.941046
0.0122581
-0.9398
0.943362
0.0353347
0.946635
0.0579231
0.950964
0.0800159
0.956263
0.101117
0.962479
0.1212
0.969497
0.140021
0.157847
1.02349
0.011156
-1.02238
1.02575
0.033072
1.02912
0.0545553
1.03357
0.0755607
1.03903
0.0956613
1.04543
0.114801
1.05277
0.132677
0.149605
1.11394
0.0101563
-1.11294
1.11618
0.0308271
1.11963
0.0511006
1.12426
0.0709391
1.13001