/*--------------------------------*- C++ -*----------------------------------*\
| =========                 |                                                 |
| \\      /  F ield         | OpenFOAM: The Open Source CFD Toolbox           |
|  \\    /   O peration     | Version:  2312                                  |
|   \\  /    A nd           | Website:  www.openfoam.com                      |
|    \\/     M anipulation  |                                                 |
\*---------------------------------------------------------------------------*/
FoamFile
{
    version     2.0;
    format      ascii;
    arch        "LSB;label=32;scalar=64";
    class       volVectorField;
    location    "4.75";
    object      U;
}
// * * * * * * * * * * * * * * * * * * * * * * * * * * * * * * * * * * * * * //

dimensions      [0 1 -1 0 0 0 0];

internalField   nonuniform List<vector> 
5478
(
(-0.0255518 0.0107709 -1.03649e-19)
(-0.0626009 0.0601184 0)
(-0.0332045 0.101218 1.52067e-19)
(0.0763833 0.111043 -2.66406e-19)
(0.27889 0.0967664 1.7716e-19)
(0.565233 0.0691236 -4.90647e-20)
(0.885754 0.033562 -9.61494e-20)
(1.16211 -0.00477548 0)
(1.33461 -0.0450123 0)
(1.3966 -0.0840416 1.19292e-19)
(1.38519 -0.115514 -6.04181e-20)
(1.3425 -0.134261 -8.29654e-20)
(1.29276 -0.150066 -2.80116e-20)
(1.2506 -0.140226 0)
(1.20067 -0.154937 5.63462e-20)
(-0.0410086 0.0134725 2.07063e-19)
(-0.0596591 0.0267718 0)
(0.0200248 0.0343885 0)
(0.229789 0.0348555 -1.32954e-19)
(0.5456 0.0347661 1.75684e-19)
(0.886135 0.0359679 5.25749e-20)
(1.16484 0.0333677 -9.16795e-20)
(1.33352 0.02029 8.12985e-20)
(1.39717 -0.00417183 1.96528e-19)
(1.39453 -0.0328738 -1.70152e-19)
(1.36371 -0.0572394 4.44774e-21)
(1.32477 -0.0758975 0)
(1.28673 -0.0855406 2.79611e-20)
(1.24793 -0.0860121 0)
(1.21322 -0.0978954 0)
(-0.0509214 0.0195634 -6.05216e-22)
(-0.0218134 0.0160851 -9.64949e-20)
(0.163376 0.0111272 6.62168e-22)
(0.50031 0.0217419 0)
(0.866722 0.0432944 -5.97651e-20)
(1.15189 0.0611828 5.09368e-20)
(1.3163 0.064528 4.31678e-20)
(1.38031 0.0523436 0)
(1.38701 0.0318427 -6.51545e-20)
(1.36899 0.0108189 5.3324e-20)
(1.34102 -0.00776674 4.27085e-20)
(1.3098 -0.0215907 0)
(1.27632 -0.0318252 0)
(1.24551 -0.0383315 -7.40286e-20)
(1.21432 -0.0448984 6.59544e-20)
(-0.0466699 0.0186116 -1.12414e-19)
(0.0606851 0.00598751 9.4865e-20)
(0.386761 0.0148748 -8.15044e-20)
(0.797401 0.0504754 7.2043e-20)
(1.11687 0.0831307 1.20128e-19)
(1.29678 0.097768 -1.01157e-19)
(1.36979 0.0951774 -4.31464e-20)
(1.38505 0.0830124 3.34643e-20)
(1.3743 0.0673506 -3.21145e-20)
(1.35165 0.0506406 0)
(1.32404 0.0352701 0)
(1.29435 0.0217454 -5.72662e-20)
(1.26589 0.0109474 7.30287e-20)
(1.23792 0.00505452 -4.04074e-20)
(1.21095 -0.00601949 0)
(-0.0248681 0.00983707 5.69541e-20)
(0.200402 -0.00193144 4.80216e-20)
(0.648774 0.0448875 -1.72617e-19)
(1.04008 0.0992163 2.67913e-21)
(1.26702 0.129116 -1.76502e-21)
(1.36276 0.136189 -1.59006e-21)
(1.38585 0.130146 4.02299e-20)
(1.37619 0.118 3.42697e-20)
(1.35408 0.103236 2.4023e-20)
(1.32868 0.0882227 -4.25798e-21)
(1.30278 0.0741711 -5.46298e-20)
(1.27767 0.0614815 0)
(1.25259 0.0519886 2.33166e-20)
(1.22814 0.0407878 -1.64322e-20)
(1.2057 0.0349947 3.01909e-20)
(0.0197198 -0.00155207 -1.23374e-19)
(0.395118 0.0127006 1.33402e-19)
(0.886484 0.0979966 -4.58739e-20)
(1.2047 0.156231 3.43616e-20)
(1.34793 0.177794 -6.34658e-20)
(1.38742 0.177325 -4.6973e-20)
(1.38068 0.166815 1.3361e-21)
(1.35915 0.152773 0)
(1.33505 0.137983 4.91751e-20)
(1.31091 0.123301 -4.37305e-20)
(1.28701 0.109354 1.72101e-20)
(1.26296 0.09695 0)
(1.23964 0.0852138 1.02574e-20)
(1.21761 0.0758317 -1.74495e-20)
(1.19664 0.0686517 0)
(0.090949 -0.00511423 -1.54708e-20)
(0.606341 0.0621384 1.35477e-21)
(1.06917 0.165921 2.23614e-20)
(1.30537 0.217357 3.76074e-20)
(1.38302 0.227944 -2.86573e-20)
(1.38653 0.219692 4.81108e-20)
(1.36562 0.205385 -1.08925e-20)
(1.33975 0.189704 0)
(1.31386 0.17379 -2.896e-20)
(1.2891 0.158216 2.08498e-21)
(1.2656 0.143665 2.38675e-20)
(1.24364 0.129913 0)
(1.22291 0.11824 -1.49916e-20)
(1.20326 0.106245 0)
(1.1852 0.0998895 8.77279e-21)
(0.185879 0.00728498 -1.69845e-20)
(0.792042 0.136927 0)
(1.19558 0.24254 2.36161e-20)
(1.35673 0.280604 0)
(1.38783 0.27928 0)
(1.37108 0.264029 0)
(1.343 0.245625 -9.29615e-21)
(1.31497 0.226889 0)
(1.28936 0.208609 5.86516e-21)
(1.26596 0.191124 0)
(1.24433 0.1747 -7.44542e-21)
(1.22389 0.159872 0)
(1.20477 0.145998 4.72908e-21)
(1.18739 0.134335 0)
(1.17097 0.1267 2.98679e-21)
(-0.0547787 0.00106675 -9.1588e-21)
(-0.19024 -0.00413477 0)
(-0.342111 -0.0115348 1.68897e-20)
(-0.461566 -0.0175094 0)
(-0.559746 -0.0226027 0)
(-0.627678 -0.0265116 0)
(-0.661775 -0.0291192 -1.40136e-20)
(-0.658349 -0.0302296 0)
(-0.617475 -0.0297292 9.6299e-21)
(-0.539962 -0.0274845 0)
(-0.431473 -0.0236622 -9.36255e-21)
(-0.299778 -0.0187393 0)
(-0.147761 -0.0143263 2.19633e-21)
(-0.00346226 -0.00522069 0)
(0.146665 -0.00495131 -9.05854e-22)
(-0.0634505 0.12189 4.74594e-20)
(-0.191352 0.159125 -3.61858e-20)
(-0.32918 0.139178 1.94288e-20)
(-0.435333 0.111677 7.12866e-20)
(-0.519789 0.0792379 2.8593e-21)
(-0.574009 0.0409334 -6.23698e-20)
(-0.594255 -0.00372454 4.22999e-20)
(-0.576998 -0.0540432 0)
(-0.523561 -0.10713 2.72397e-20)
(-0.434065 -0.15868 -6.55655e-21)
(-0.31531 -0.201035 -1.39737e-20)
(-0.178528 -0.227742 0)
(-0.0228396 -0.240288 -9.34122e-21)
(0.111992 -0.226153 0)
(0.265019 -0.226217 4.8618e-21)
(-0.0735009 0.212185 8.67313e-20)
(-0.178769 0.297782 2.20687e-20)
(-0.280532 0.27685 -3.62256e-20)
(-0.352693 0.23502 -1.13628e-19)
(-0.402612 0.18206 6.89416e-20)
(-0.423373 0.11701 7.10328e-20)
(-0.411956 0.0389298 -1.30473e-19)
(-0.364883 -0.052184 0)
(-0.286062 -0.153728 -8.9261e-20)
(-0.174069 -0.254703 7.93498e-20)
(-0.0380747 -0.337626 2.93797e-20)
(0.105835 -0.390722 0)
(0.257571 -0.411497 7.13711e-21)
(0.372501 -0.396316 -1.16127e-20)
(0.509052 -0.378927 0)
(-0.0774192 0.249338 5.04532e-20)
(-0.152922 0.38943 -1.33407e-19)
(-0.20548 0.385575 1.67469e-19)
(-0.230043 0.34013 -1.58424e-19)
(-0.231404 0.276463 -7.90545e-20)
(-0.204955 0.196491 7.59028e-20)
(-0.150784 0.0988779 6.74714e-20)
(-0.0688829 -0.0196938 6.49633e-20)
(0.0401157 -0.155518 -1.61282e-19)
(0.180245 -0.29209 1.22348e-20)
(0.335437 -0.403744 4.2762e-20)
(0.478633 -0.475764 0)
(0.603074 -0.498042 2.98182e-20)
(0.684004 -0.483849 3.51826e-20)
(0.771187 -0.443567 -2.09853e-20)
(-0.0698065 0.22581 1.95563e-21)
(-0.120082 0.415368 9.43223e-20)
(-0.125462 0.449276 -8.62605e-20)
(-0.100453 0.414926 8.16141e-20)
(-0.0516592 0.350563 1.56673e-19)
(0.0223607 0.267145 -1.49931e-19)
(0.115966 0.163702 -6.97752e-20)
(0.232743 0.0372755 -1.95879e-19)
(0.381516 -0.109049 1.72639e-19)
(0.553342 -0.259568 0)
(0.717352 -0.38422 0)
(0.844906 -0.464198 8.70695e-20)
(0.926575 -0.485285 -1.62966e-19)
(0.958389 -0.473683 4.95508e-20)
(0.982267 -0.420896 0)
(-0.0516471 0.156653 3.99431e-22)
(-0.0882113 0.361681 -9.52887e-20)
(-0.0623976 0.440976 2.59016e-19)
(0.000681902 0.434127 -7.76603e-20)
(0.090601 0.380519 -7.76842e-20)
(0.200344 0.300424 7.4093e-20)
(0.321052 0.199881 6.97783e-20)
(0.472912 0.0786089 1.2414e-19)
(0.668721 -0.065496 -2.14408e-19)
(0.873579 -0.212422 8.67211e-20)
(1.03429 -0.329887 6.7012e-20)
(1.12566 -0.398657 0)
(1.15311 -0.413179 0)
(1.1343 -0.402918 7.83876e-20)
(1.1095 -0.351721 -6.97355e-20)
(-0.0310374 0.0797794 -1.11611e-21)
(-0.0642509 0.249124 0)
(-0.0295511 0.348068 0)
(0.0500911 0.365374 1.50616e-19)
(0.161119 0.328851 -6.83219e-20)
(0.290746 0.26331 6.0065e-20)
(0.449121 0.176623 1.21847e-19)
(0.665662 0.065729 -1.08041e-19)
(0.917899 -0.0620511 1.04272e-19)
(1.13237 -0.180109 -8.68008e-20)
(1.25575 -0.267684 -6.86755e-21)
(1.29073 -0.311507 0)
(1.26534 -0.320155 3.21974e-20)
(1.21495 -0.311913 0)
(1.16993 -0.273056 0)
(-0.0198153 0.0285413 -1.06587e-19)
(-0.0554472 0.134753 0)
(-0.0276946 0.215174 -1.5633e-19)
(0.0521637 0.23683 2.75718e-19)
(0.178556 0.21552 -3.12048e-19)
(0.358761 0.168893 -6.59783e-20)
(0.607368 0.0995937 1.03358e-19)
(0.898833 0.0155354 0)
(1.15742 -0.0693027 0)
(1.31664 -0.141229 -1.35909e-19)
(1.36756 -0.193077 -4.39342e-20)
(1.3474 -0.216641 9.32364e-20)
(1.29439 -0.22812 -3.22621e-20)
(1.24196 -0.220977 0)
(1.19607 -0.201331 -5.83715e-20)
(0.342417 0.0171188 0)
(0.53184 0.0332535 -8.72089e-22)
(0.669049 0.041474 8.05705e-22)
(0.763462 0.0455277 0)
(0.826952 0.0474805 0)
(0.870115 0.0476517 1.83568e-23)
(0.899727 0.0473241 0)
(0.920323 0.0471423 0)
(0.93531 0.0471424 -7.26492e-24)
(0.946757 0.0472675 0)
(0.955701 0.047527 0)
(0.962755 0.047884 6.1934e-24)
(0.968386 0.0483017 0)
(0.972947 0.048791 3.70229e-24)
(0.97668 0.0493787 2.92103e-24)
(0.97976 0.0500833 0)
(0.982323 0.0509192 1.41363e-23)
(0.984475 0.0519027 -1.66329e-23)
(0.986295 0.0530515 0)
(0.987855 0.0543848 -8.24782e-24)
(0.989185 0.0559212 9.49587e-24)
(0.990378 0.0576963 -1.75799e-24)
(0.991336 0.0597365 2.34997e-24)
(0.992398 0.0620285 -2.24546e-24)
(0.992864 0.065032 1.47157e-24)
(0.994334 0.0666207 0)
(0.99363 0.0756278 1.69469e-25)
(0.996514 0.0624477 -1.62039e-25)
(0.994153 0.108906 -9.11227e-25)
(0.99775 0.0395073 0)
(0.995822 0.116305 -3.54591e-24)
(0.99925 0.140966 0)
(0.998668 0.0650992 -1.37765e-23)
(0.996445 -0.00760118 -7.30978e-24)
(0.996033 -0.0387883 7.73222e-25)
(0.996423 -0.0407531 -5.58444e-24)
(0.996897 -0.0381665 0)
(0.997412 -0.0201012 1.41261e-24)
(0.423052 -0.154045 -1.82667e-21)
(0.57765 -0.0805218 2.75278e-23)
(0.692691 -0.0345402 2.58931e-21)
(0.775158 -0.00540807 -2.46952e-21)
(0.832283 0.0139396 0)
(0.872083 0.0266426 -1.85006e-23)
(0.900282 0.033653 2.64861e-23)
(0.920313 0.0377971 0)
(0.935073 0.0404891 7.31954e-24)
(0.946488 0.0423994 0)
(0.955504 0.0439124 0)
(0.962648 0.0451723 -6.2377e-24)
(0.968363 0.0462418 0)
(0.973001 0.047201 -1.1341e-22)
(0.976803 0.0481299 9.58144e-23)
(0.979945 0.049088 -7.01933e-23)
(0.982562 0.0501172 6.70032e-23)
(0.984764 0.0512537 3.15492e-24)
(0.986632 0.0525259 0)
(0.988237 0.0539656 0)
(0.989613 0.0555919 1.86048e-24)
(0.990849 0.0574413 -1.32467e-23)
(0.991865 0.0595334 2.0686e-23)
(0.992959 0.0618602 -9.10055e-24)
(0.993526 0.0648866 -4.48827e-24)
(0.994959 0.0664818 0)
(0.994441 0.0755946 -7.02329e-25)
(0.997309 0.0622203 0)
(0.994766 0.109045 9.14433e-25)
(0.999132 0.0394179 -7.41839e-24)
(0.996697 0.115845 1.44832e-23)
(0.999229 0.141179 -9.5805e-24)
(0.999501 0.065545 2.02733e-23)
(0.99798 -0.00736698 1.10093e-24)
(0.997541 -0.0387645 8.42646e-24)
(0.997754 -0.0408048 -4.91824e-24)
(0.998139 -0.0382361 -4.25884e-25)
(0.998563 -0.0201439 4.69693e-25)
(0.601987 -0.276334 -4.09306e-21)
(0.687011 -0.167558 8.95735e-21)
(0.752934 -0.0952126 -3.19052e-22)
(0.806817 -0.0474028 -4.34516e-21)
(0.849178 -0.0153047 -4.52683e-23)
(0.880789 0.00615946 3.41332e-23)
(0.90413 0.020246 -2.69429e-23)
(0.921973 0.0288859 3.86767e-23)
(0.935747 0.0343466 0)
(0.946747 0.0380187 -6.43868e-22)
(0.955627 0.040671 6.14155e-22)
(0.962738 0.0426845 1.27471e-23)
(0.968453 0.0442783 0)
(0.97311 0.0456248 2.2398e-22)
(0.976948 0.0468511 -2.07679e-22)
(0.980132 0.04804 7.16183e-23)
(0.982796 0.0492474 -6.8338e-23)
(0.985045 0.0505215 -5.49688e-23)
(0.98696 0.051901 4.62824e-23)
(0.988612 0.0534296 0)
(0.990036 0.0551333 0)
(0.991315 0.057055 -2.38728e-23)
(0.992383 0.0592134 2.2791e-23)
(0.993505 0.0616002 1.50192e-23)
(0.994174 0.0646684 -3.58266e-24)
(0.995571 0.0662435 -1.03438e-23)
(0.995241 0.0754875 -1.09517e-25)
(0.998099 0.0618766 -1.80955e-25)
(0.995352 0.109095 1.41028e-23)
(1.00052 0.0393218 -1.69541e-23)
(0.997556 0.115175 8.08093e-24)
(0.999182 0.141388 -1.14095e-23)
(1.00032 0.0662334 2.1244e-23)
(0.999494 -0.00695433 -2.0312e-23)
(0.999031 -0.0386628 -6.28748e-24)
(0.999076 -0.0408273 -3.90202e-24)
(0.999378 -0.0382939 1.06478e-23)
(0.999715 -0.0201841 1.58868e-24)
(0.791359 -0.340405 0)
(0.804501 -0.222223 -2.90952e-21)
(0.821442 -0.138336 2.84954e-21)
(0.844864 -0.0783935 0)
(0.869495 -0.0375634 4.65305e-23)
(0.892061 -0.0110493 -3.50735e-23)
(0.910658 0.00676168 0)
(0.925233 0.0186686 -1.80488e-24)
(0.937233 0.0265504 2.91591e-23)
(0.947345 0.0320785 0)
(0.95583 0.0362135 4.92565e-22)
(0.9628 0.0393972 -4.82709e-22)
(0.968494 0.0418695 2.00435e-23)
(0.973183 0.0438407 2.29191e-22)
(0.977068 0.0454964 -2.18547e-22)
(0.980301 0.0469791 -9.88989e-24)
(0.983011 0.0483923 0)
(0.985306 0.049814 6.61253e-24)
(0.987268 0.051302 -8.31552e-23)
(0.988967 0.0529069 9.37353e-24)
(0.99044 0.0546635 7.84469e-24)
(0.991765 0.0566293 4.95629e-23)
(0.992892 0.0588287 3.46555e-23)
(0.994041 0.0612569 -4.26301e-23)
(0.994805 0.0644022 3.16372e-24)
(0.996164 0.0659503 0)
(0.99602 0.0753734 8.29919e-25)
(0.99888 0.0614228 1.83339e-25)
(0.99592 0.109113 -1.38037e-23)
(1.00189 0.0392303 1.66909e-23)
(0.998396 0.1143 -8.54113e-24)
(0.99916 0.141609 0)
(1.00113 0.0671878 -2.11984e-23)
(1.00096 -0.00636499 4.22654e-23)
(1.00048 -0.0384911 1.70159e-23)
(1.00038 -0.040827 1.97438e-23)
(1.00061 -0.0383437 -1.06553e-23)
(1.00087 -0.0202232 9.78777e-26)
(0.942332 -0.347595 1.15787e-22)
(0.902022 -0.244536 2.70081e-23)
(0.880615 -0.163604 0)
(0.88012 -0.10223 0)
(0.889432 -0.05716 0)
(0.902944 -0.0252867 0)
(0.916979 -0.00361229 -1.39282e-21)
(0.929239 0.0118143 2.45215e-21)
(0.939566 0.0217776 -1.12765e-21)
(0.948708 0.0285096 0)
(0.956672 0.0333939 4.90443e-22)
(0.963336 0.0370979 -4.83645e-22)
(0.968833 0.0399657 -3.22892e-22)
(0.973408 0.0422579 2.71863e-22)
(0.977247 0.0441771 -1.88128e-22)
(0.980479 0.0458717 1.89458e-22)
(0.983213 0.0474523 8.27646e-24)
(0.985545 0.0490051 1.02576e-22)
(0.987549 0.0505943 -9.77377e-23)
(0.989292 0.0522745 -9.56355e-24)
(0.990813 0.0540892 -8.05606e-24)
(0.992184 0.0560962 -4.3786e-23)
(0.99337 0.0583302 4.8127e-23)
(0.994554 0.0607831 9.03449e-24)
(0.995416 0.0639899 3.36908e-24)
(0.996741 0.0655047 2.37388e-24)
(0.996763 0.0751988 0)
(0.999642 0.0608526 0)
(0.996481 0.109087 0)
(1.0032 0.0391025 0)
(0.999214 0.113187 3.31144e-23)
(0.999223 0.141824 -2.3309e-23)
(1.00196 0.0683217 4.25037e-23)
(1.00235 -0.00564559 -1.38729e-22)
(1.00187 -0.0382657 1.71387e-23)
(1.00166 -0.0408132 3.94853e-24)
(1.00182 -0.0383917 -1.377e-23)
(1.00202 -0.0202628 -4.00788e-24)
(1.04057 -0.316834 -1.21919e-22)
(0.976155 -0.243317 4.69947e-21)
(0.930032 -0.176273 -4.51395e-21)
(0.911293 -0.120466 2.67472e-21)
(0.909385 -0.0752979 -2.54719e-21)
(0.915475 -0.0416155 -2.9651e-21)
(0.9248 -0.01729 2.75681e-21)
(0.933823 -0.000463823 -3.30686e-23)
(0.941831 0.0120864 2.9613e-23)
(0.949667 0.0211754 0)
(0.957012 0.0279457 1.79282e-23)
(0.963435 0.0331095 -7.9299e-22)
(0.968863 0.0370506 7.54897e-22)
(0.973443 0.0401076 1.67461e-23)
(0.977315 0.0425694 0)
(0.980588 0.0446489 1.67605e-22)
(0.983366 0.0465017 -2.86562e-22)
(0.985744 0.0482481 1.15198e-22)
(0.987794 0.0499781 0)
(0.989585 0.0517638 -6.4913e-23)
(0.991156 0.0536584 1.65978e-23)
(0.992575 0.0557238 5.98811e-23)
(0.993821 0.0579978 4.85876e-23)
(0.99504 0.0604619 -4.54141e-23)
(0.995995 0.0637264 2.44564e-23)
(0.997309 0.0651007 -8.25088e-24)
(0.997477 0.0751152 -1.54172e-23)
(1.00039 0.060233 -6.85751e-24)
(0.997033 0.109172 6.52161e-24)
(1.00443 0.0391249 -1.57131e-23)
(1.00002 0.111912 1.49408e-23)
(0.999399 0.1422 0)
(1.00279 0.069815 4.27386e-23)
(1.00364 -0.00469952 -1.50109e-25)
(1.00318 -0.0379778 0)
(1.0029 -0.0407942 -2.02275e-23)
(1.00302 -0.0384455 9.09584e-24)
(1.00318 -0.0203073 -1.54003e-24)
(1.09843 -0.269954 0)
(1.03092 -0.227033 0)
(0.972605 -0.174428 -3.17518e-23)
(0.940721 -0.124879 0)
(0.928013 -0.0823076 0)
(0.926376 -0.0486901 -2.54387e-21)
(0.931191 -0.022987 2.42958e-21)
(0.938433 -0.00451688 -1.99405e-21)
(0.945623 0.00908566 1.90394e-21)
(0.95229 0.0184702 0)
(0.95873 0.0254929 1.7315e-23)
(0.964514 0.0309624 -1.37332e-23)
(0.969503 0.0352336 6.58621e-22)
(0.973815 0.038596 -1.0372e-22)
(0.977551 0.0413097 -4.86834e-22)
(0.980771 0.043583 -5.58575e-24)
(0.983543 0.0455793 4.48418e-24)
(0.985939 0.0474309 -2.15593e-22)
(0.988024 0.0492386 2.11897e-22)
(0.989854 0.0510821 0)
(0.99147 0.0530184 0)
(0.992933 0.0551111 3.66741e-24)
(0.994233 0.0574134 0)
(0.995492 0.0598507 -3.76678e-23)
(0.996524 0.0631709 5.92385e-24)
(0.997841 0.0644334 2.44357e-23)
(0.998134 0.0747512 7.49394e-24)
(1.00111 0.0593727 -4.73936e-24)
(0.997611 0.10894 -1.37857e-24)
(1.00554 0.038877 0)
(1.00077 0.11042 -2.45601e-23)
(0.999783 0.142377 2.32858e-23)
(1.00366 0.0711313 2.16022e-23)
(1.0048 -0.0037646 1.65891e-23)
(1.00438 -0.0376674 -2.18861e-23)
(1.00409 -0.0407661 7.90074e-24)
(1.00419 -0.0384905 0)
(1.00434 -0.0203515 3.2627e-24)
(1.13352 -0.223557 3.57921e-20)
(1.0734 -0.206934 1.63317e-20)
(1.01274 -0.179985 -7.1152e-21)
(0.969775 -0.147174 -1.09952e-20)
(0.947347 -0.110385 2.88369e-21)
(0.938569 -0.0741054 1.3521e-23)
(0.938678 -0.0427987 0)
(0.942937 -0.0186624 1.53096e-23)
(0.948309 -0.0020928 1.35486e-23)
(0.954003 0.0100295 0)
(0.959862 0.0193689 1.03617e-21)
(0.965265 0.0265025 -9.86712e-22)
(0.96999 0.0319408 -1.15858e-23)
(0.974128 0.036112 -5.35225e-22)
(0.977768 0.0393896 5.07919e-22)
(0.980948 0.0420651 -5.85307e-24)
(0.983716 0.0443577 -4.75524e-24)
(0.986131 0.0464331 0)
(0.988246 0.0484118 -1.96192e-22)
(0.990115 0.0503871 1.85999e-22)
(0.991775 0.0524294 6.92977e-23)
(0.993283 0.0546025 -1.1792e-23)
(0.994634 0.056991 -5.46873e-23)
(0.995935 0.0594528 3.96914e-23)
(0.997047 0.0629233 -9.98898e-24)
(0.99839 0.0639631 -4.55259e-23)
(0.998769 0.0749351 1.48334e-23)
(1.00184 0.0584563 6.33187e-24)
(0.998188 0.109299 -4.43195e-24)
(1.00656 0.0391465 0)
(1.00155 0.108294 0)
(1.00026 0.143002 0)
(1.00451 0.0736213 2.15305e-23)
(1.00583 -0.00209747 -2.04576e-23)
(1.00547 -0.0371337 2.64694e-23)
(1.00524 -0.0406744 -1.68354e-23)
(1.00535 -0.0385064 -7.68089e-24)
(1.0055 -0.0203738 0)
(1.14896 -0.142244 0)
(1.10486 -0.136242 0)
(1.05074 -0.12394 0)
(1.00921 -0.106496 0)
(0.981458 -0.0865307 0)
(0.964688 -0.0643771 0)
(0.957256 -0.0424356 0)
(0.955997 -0.0226702 0)
(0.957709 -0.00698197 0)
(0.960875 0.0050286 0)
(0.964608 0.0145701 0)
(0.968443 0.0223668 0)
(0.972133 0.0285773 0)
(0.975614 0.0334382 0)
(0.978854 0.0372799 0)
(0.981796 0.0403925 0)
(0.984422 0.0430114 0)
(0.986755 0.045322 0)
(0.988829 0.0474658 0)
(0.990685 0.0495517 0)
(0.992354 0.0516691 0)
(0.993885 0.0538866 0)
(0.995272 0.0563018 0)
(0.996626 0.0587836 0)
(0.997772 0.0622909 0)
(0.999188 0.0632125 0)
(0.999592 0.0741981 0)
(1.0027 0.0576602 0)
(0.999277 0.10837 0)
(1.00752 0.0387653 0)
(1.0022 0.107139 0)
(1.00164 0.14231 0)
(1.00599 0.0739979 0)
(1.00691 -0.00150566 0)
(1.00661 -0.0368267 0)
(1.00656 -0.0406339 0)
(1.00674 -0.0385639 0)
(1.00692 -0.0204439 0)
(1.13099 -0.0963133 0)
(1.09784 -0.108525 0)
(1.05447 -0.106739 0)
(1.02085 -0.0940631 0)
(0.9966 -0.0753439 0)
(0.979232 -0.0560902 0)
(0.970683 -0.0374025 0)
(0.967972 -0.0197351 0)
(0.966647 -0.00508108 0)
(0.966671 0.00595179 0)
(0.968698 0.0145581 0)
(0.971636 0.0215628 0)
(0.974683 0.0272728 0)
(0.977681 0.031951 0)
(0.980535 0.0358257 0)
(0.983167 0.0390777 0)
(0.985565 0.0418764 0)
(0.987745 0.044371 0)
(0.989726 0.0466825 0)
(0.991533 0.0489108 0)
(0.993183 0.0511413 0)
(0.99472 0.0534381 0)
(0.99613 0.0559133 0)
(0.997522 0.0584037 0)
(0.998681 0.0618722 0)
(1.00023 0.0628883 0)
(1.00061 0.0736833 0)
(1.00387 0.0576887 0)
(1.0007 0.107799 0)
(1.00852 0.0383031 0)
(1.00345 0.107664 0)
(1.00381 0.142385 0)
(1.0078 0.0733179 0)
(1.00836 -0.00208879 0)
(1.00816 -0.0369696 0)
(1.00827 -0.0406279 0)
(1.0085 -0.0385666 0)
(1.00869 -0.0204379 0)
(1.11218 -0.0580271 0)
(1.09205 -0.0702781 0)
(1.05971 -0.0717032 0)
(1.03077 -0.0662286 0)
(1.00848 -0.0557895 0)
(0.992101 -0.0429203 0)
(0.982931 -0.0295513 0)
(0.977992 -0.01681 0)
(0.974724 -0.00547389 0)
(0.973641 0.00432569 0)
(0.97444 0.0127545 0)
(0.976072 0.0198796 0)
(0.978036 0.0257799 0)
(0.980228 0.0306059 0)
(0.98252 0.0345866 0)
(0.984774 0.0379466 0)
(0.986917 0.0408641 0)
(0.988924 0.0434751 0)
(0.990789 0.0458922 0)
(0.992526 0.0482112 0)
(0.994142 0.0505187 0)
(0.995674 0.0528795 0)
(0.997092 0.0554076 0)
(0.99853 0.0579429 0)
(0.999718 0.0614835 0)
(1.00142 0.0626166 0)
(1.00177 0.073346 0)
(1.00517 0.05765 0)
(1.00225 0.107417 0)
(1.00966 0.0380268 0)
(1.00502 0.108226 0)
(1.00618 0.14219 0)
(1.00984 0.0729937 0)
(1.00999 -0.0021337 0)
(1.00985 -0.0369686 0)
(1.01013 -0.0406478 0)
(1.01042 -0.0386191 0)
(1.01062 -0.0204726 0)
(1.0933 -0.0298841 0)
(1.08179 -0.0418553 0)
(1.05843 -0.0468246 0)
(1.03597 -0.0458302 0)
(1.0171 -0.0396144 0)
(1.00123 -0.0310391 0)
(0.992032 -0.0220281 0)
(0.987353 -0.0125182 0)
(0.983196 -0.00292958 0)
(0.9803 0.00548133 0)
(0.979752 0.0126532 0)
(0.980459 0.0189813 0)
(0.981617 0.0245099 0)
(0.98311 0.029238 0)
(0.984845 0.0332652 0)
(0.986674 0.0367291 0)
(0.988504 0.0397578 0)
(0.990289 0.0424707 0)
(0.992008 0.0449795 0)
(0.993655 0.0473812 0)
(0.995226 0.049763 0)
(0.996747 0.0521886 0)
(0.998177 0.0547773 0)
(0.999668 0.0573812 0)
(1.00089 0.0609702 0)
(1.00271 0.0621649 0)
(1.00305 0.0728189 0)
(1.00659 0.0573045 0)
(1.00393 0.106924 0)
(1.011 0.0375462 0)
(1.00677 0.108223 0)
(1.00868 0.141947 0)
(1.01208 0.0726232 0)
(1.01185 -0.00233267 0)
(1.01176 -0.0370543 0)
(1.01218 -0.040703 0)
(1.01253 -0.0386811 0)
(1.01273 -0.0205085 0)
(1.07696 -0.00956802 0)
(1.07073 -0.020116 0)
(1.05428 -0.0262219 0)
(1.03747 -0.027688 0)
(1.02228 -0.0249964 0)
(1.00812 -0.0197881 0)
(0.999659 -0.0136504 0)
(0.995048 -0.0069086 0)
(0.990378 0.000112772 0)
(0.986637 0.00695883 0)
(0.985102 0.0132266 0)
(0.984921 0.0188987 0)
(0.985293 0.023968 0)
(0.986117 0.028416 0)
(0.987319 0.0322985 0)
(0.988737 0.0357094 0)
(0.990257 0.0387463 0)
(0.991818 0.0415049 0)
(0.993383 0.0440773 0)
(0.994931 0.0465469 0)
(0.996447 0.0489935 0)
(0.997951 0.051478 0)
(0.999391 0.0541199 0)
(1.00093 0.0567681 0)
(1.00218 0.0603726 0)
(1.00411 0.0616102 0)
(1.00449 0.0722258 0)
(1.00815 0.0568326 0)
(1.00573 0.106409 0)
(1.01257 0.0369854 0)
(1.00871 0.108005 0)
(1.01128 0.14169 0)
(1.0145 0.072321 0)
(1.01396 -0.0024912 0)
(1.01389 -0.037145 0)
(1.01443 -0.0407739 0)
(1.01484 -0.0387528 0)
(1.01503 -0.0205488 0)
(1.06278 0.00526462 0)
(1.05954 -0.00358862 0)
(1.04834 -0.00967423 0)
(1.03655 -0.0123783 0)
(1.02499 -0.0118705 0)
(1.01261 -0.00911888 0)
(1.00486 -0.00547977 0)
(1.00088 -0.00112245 0)
(0.996425 0.0039936 0)
(0.992237 0.00930935 0)
(0.990036 0.0144264 0)
(0.989217 0.0192558 0)
(0.988984 0.023747 0)
(0.989244 0.0278347 0)
(0.989958 0.0315107 0)
(0.99098 0.0348181 0)
(0.99219 0.0378195 0)
(0.993519 0.0405846 0)
(0.994918 0.0431861 0)
(0.996357 0.0456957 0)
(0.99781 0.0481856 0)
(0.999291 0.0507126 0)
(1.00074 0.0533913 0)
(1.00231 0.0560709 0)
(1.0036 0.0596948 0)
(1.00564 0.0609713 0)
(1.00608 0.0715928 0)
(1.00986 0.0562364 0)
(1.00767 0.105882 0)
(1.0144 0.0363713 0)
(1.01085 0.107598 0)
(1.01399 0.141401 0)
(1.01713 0.0720634 0)
(1.01632 -0.00265613 0)
(1.01626 -0.0372658 0)
(1.01692 -0.0408692 0)
(1.01738 -0.0388367 0)
(1.01755 -0.0205942 0)
(1.05027 0.0152595 0)
(1.04925 0.00843605 0)
(1.04184 0.00315737 0)
(1.03394 5.00193e-05 0)
(1.02551 -0.000783042 0)
(1.01507 0.000223147 0)
(1.00844 0.00217962 0)
(1.00528 0.00487859 0)
(1.00124 0.00832115 0)
(0.996973 0.0122232 0)
(0.994423 0.0162365 0)
(0.993191 0.0202013 0)
(0.992526 0.0240336 0)
(0.992348 0.0276506 0)
(0.992658 0.0310112 0)
(0.993334 0.0341209 0)
(0.994261 0.0370094 0)
(0.995369 0.0397196 0)
(0.996604 0.0423038 0)
(0.997931 0.0448189 0)
(0.999318 0.0473268 0)
(1.00077 0.0498771 0)
(1.00222 0.0525789 0)
(1.00384 0.0552828 0)
(1.00518 0.0589264 0)
(1.00732 0.0602247 0)
(1.00784 0.0708797 0)
(1.01175 0.0554874 0)
(1.00976 0.105292 0)
(1.01648 0.0356687 0)
(1.0132 0.106952 0)
(1.01684 0.141035 0)
(1.01998 0.0718324 0)
(1.01898 -0.00282537 0)
(1.01892 -0.0374135 0)
(1.01966 -0.0409869 0)
(1.02016 -0.0389309 0)
(1.02031 -0.0206429 0)
(1.04035 0.0222284 0)
(1.04056 0.0172068 0)
(1.03551 0.0128763 0)
(1.03045 0.0098565 0)
(1.02462 0.00841005 0)
(1.016 0.00836541 0)
(1.01045 0.00913639 0)
(1.00814 0.0105342 0)
(1.00477 0.0126504 0)
(1.00078 0.0153499 0)
(0.998178 0.0183531 0)
(0.996759 0.0214859 0)
(0.995835 0.0246495 0)
(0.995355 0.0277556 0)
(0.995358 0.0307445 0)
(0.995751 0.0335949 0)
(0.996434 0.036311 0)
(0.997343 0.0389136 0)
(0.998427 0.0414364 0)
(0.999649 0.0439214 0)
(1.00097 0.0464189 0)
(1.0024 0.0489707 0)
(1.00386 0.0516797 0)
(1.00552 0.0543942 0)
(1.00692 0.0580505 0)
(1.00916 0.0593496 0)
(1.00977 0.0700597 0)
(1.01382 0.0545723 0)
(1.01203 0.1046 0)
(1.01883 0.0348547 0)
(1.0158 0.106054 0)
(1.01987 0.140571 0)
(1.02309 0.0716179 0)
(1.02196 -0.00300275 0)
(1.02189 -0.0375906 0)
(1.0227 -0.0411267 0)
(1.02323 -0.0390325 0)
(1.02333 -0.0206926 0)
(1.03238 0.027211 0)
(1.03308 0.0234283 0)
(1.02957 0.0199566 0)
(1.02663 0.0172787 0)
(1.02284 0.0156514 0)
(1.01577 0.0150174 0)
(1.01127 0.0150366 0)
(1.00985 0.0155916 0)
(1.00723 0.0167708 0)
(1.00368 0.0185195 0)
(1.00124 0.02065 0)
(0.999827 0.0230179 0)
(0.998812 0.0255318 0)
(0.998171 0.0281097 0)
(0.997976 0.0306874 0)
(0.998166 0.0332288 0)
(0.998662 0.0357206 0)
(0.99941 0.0381667 0)
(1.00037 0.0405845 0)
(1.0015 0.043002 0)
(1.00277 0.0454581 0)
(1.00418 0.047986 0)
(1.00564 0.0506821 0)
(1.00735 0.0533891 0)
(1.00882 0.0570479 0)
(1.01117 0.0583265 0)
(1.0119 0.0691067 0)
(1.0161 0.0534724 0)
(1.01451 0.103772 0)
(1.02145 0.0338997 0)
(1.01868 0.104889 0)
(1.02313 0.13998 0)
(1.0265 0.0714002 0)
(1.0253 -0.00319389 0)
(1.02521 -0.0377981 0)
(1.02606 -0.041286 0)
(1.0266 -0.0391355 0)
(1.02664 -0.0207389 0)
(1.02568 0.0305262 0)
(1.02675 0.0276913 0)
(1.02431 0.0249913 0)
(1.02287 0.0227459 0)
(1.02062 0.021173 0)
(1.01481 0.0202872 0)
(1.01125 0.0198929 0)
(1.01064 0.0199115 0)
(1.00876 0.0204372 0)
(1.00575 0.0214727 0)
(1.00362 0.0229003 0)
(1.00237 0.0246135 0)
(1.0014 0.0265402 0)
(1.00073 0.0286125 0)
(1.00045 0.030772 0)
(1.00052 0.0329791 0)
(1.00089 0.0352115 0)
(1.00153 0.0374618 0)
(1.00239 0.0397357 0)
(1.00346 0.0420498 0)
(1.00469 0.0444329 0)
(1.00609 0.0469093 0)
(1.00758 0.0495693 0)
(1.00934 0.0522478 0)
(1.01089 0.0558954 0)
(1.01336 0.0571305 0)
(1.01422 0.0679879 0)
(1.01861 0.0521595 0)
(1.01722 0.102766 0)
(1.02436 0.0327632 0)
(1.02185 0.103431 0)
(1.02667 0.139227 0)
(1.03026 0.071152 0)
(1.02906 -0.00340588 0)
(1.02895 -0.0380351 0)
(1.02981 -0.0414595 0)
(1.03033 -0.0392299 0)
(1.03026 -0.0207752 0)
(1.02023 0.0326857 0)
(1.02151 0.030577 0)
(1.01973 0.0284895 0)
(1.01934 0.0266546 0)
(1.01823 0.0252392 0)
(1.01343 0.0242898 0)
(1.01066 0.023697 0)
(1.01076 0.0234086 0)
(1.00957 0.0235157 0)
(1.00712 0.0240509 0)
(1.00538 0.0249448 0)
(1.00438 0.0261271 0)
(1.00358 0.0275494 0)
(1.00298 0.0291634 0)
(1.00271 0.0309227 0)
(1.00276 0.0327916 0)
(1.00308 0.0347463 0)
(1.00366 0.0367742 0)
(1.00448 0.0388733 0)
(1.00551 0.0410522 0)
(1.00672 0.0433313 0)
(1.00814 0.0457275 0)
(1.00966 0.0483257 0)
(1.0115 0.0509515 0)
(1.01313 0.0545695 0)
(1.01574 0.0557347 0)
(1.01675 0.0666697 0)
(1.02135 0.0505989 0)
(1.02017 0.101543 0)
(1.02758 0.0313945 0)
(1.02537 0.101646 0)
(1.03055 0.138265 0)
(1.03444 0.0708393 0)
(1.03328 -0.00364664 0)
(1.03315 -0.0382962 0)
(1.03398 -0.0416368 0)
(1.03446 -0.0392992 0)
(1.03423 -0.0207907 0)
(1.01575 0.0338177 0)
(1.0171 0.0322392 0)
(1.01576 0.0306361 0)
(1.01611 0.0291741 0)
(1.01585 0.0279662 0)
(1.01184 0.0270653 0)
(1.00972 0.0264082 0)
(1.01041 0.0259595 0)
(1.00984 0.0258066 0)
(1.00793 0.0259998 0)
(1.00661 0.0265017 0)
(1.00592 0.0272697 0)
(1.00535 0.0282778 0)
(1.00491 0.029497 0)
(1.00474 0.0308953 0)
(1.00484 0.0324454 0)
(1.00518 0.0341269 0)
(1.00576 0.0359264 0)
(1.00658 0.0378388 0)
(1.00761 0.039867 0)
(1.00884 0.0420255 0)
(1.0103 0.0443247 0)
(1.01188 0.0468448 0)
(1.0138 0.0494011 0)
(1.01555 0.0529759 0)
(1.01832 0.0540485 0)
(1.01949 0.0650616 0)
(1.02433 0.0487008 0)
(1.02339 0.100011 0)
(1.03113 0.0297 0)
(1.02926 0.0994303 0)
(1.03485 0.137025 0)
(1.03911 0.070385 0)
(1.03807 -0.00396242 0)
(1.0379 -0.038584 0)
(1.03865 -0.0418027 0)
(1.03902 -0.0393176 0)
(1.03857 -0.020769 0)
(1.01204 0.0346684 0)
(1.01343 0.0335089 0)
(1.0124 0.0323187 0)
(1.01327 0.0312071 0)
(1.01362 0.0302463 0)
(1.0102 0.0294876 0)
(1.00857 0.0288872 0)
(1.00974 0.0284166 0)
(1.00969 0.0281581 0)
(1.00828 0.0281695 0)
(1.00737 0.0284313 0)
(1.00702 0.0289182 0)
(1.00674 0.0296206 0)
(1.00653 0.0305251 0)
(1.00652 0.031613 0)
(1.00674 0.0328664 0)
(1.00717 0.0342711 0)
(1.00782 0.035817 0)
(1.00869 0.0374994 0)
(1.00977 0.0393202 0)
(1.01105 0.0412913 0)
(1.01257 0.0434195 0)
(1.01424 0.0457831 0)
(1.01626 0.0481882 0)
(1.01814 0.0516383 0)
(1.02109 0.0525321 0)
(1.02245 0.0635497 0)
(1.02757 0.0468057 0)
(1.0269 0.0984177 0)
(1.03502 0.0279572 0)
(1.03359 0.0969662 0)
(1.03963 0.135534 0)
(1.04438 0.0700222 0)
(1.04356 -0.00413181 0)
(1.04333 -0.0388065 0)
(1.04391 -0.0419047 0)
(1.0441 -0.0392376 0)
(1.04332 -0.020683 0)
(1.00902 0.0331322 0)
(1.01052 0.0321619 0)
(1.00974 0.0311449 0)
(1.01099 0.0301687 0)
(1.01178 0.0292973 0)
(1.00881 0.028586 0)
(1.00754 0.0279887 0)
(1.00906 0.027468 0)
(1.00943 0.027099 0)
(1.00844 0.0269442 0)
(1.00788 0.026994 0)
(1.00785 0.0272336 0)
(1.00784 0.027666 0)
(1.00786 0.0282919 0)
(1.00804 0.0291051 0)
(1.00841 0.0300987 0)
(1.00896 0.0312665 0)
(1.0097 0.0326039 0)
(1.01065 0.0341094 0)
(1.01181 0.035785 0)
(1.01318 0.0376414 0)
(1.01479 0.0396822 0)
(1.01657 0.0419837 0)
(1.01873 0.0443412 0)
(1.02078 0.0477821 0)
(1.02392 0.048609 0)
(1.02554 0.0597783 0)
(1.03095 0.0427186 0)
(1.03067 0.0948431 0)
(1.03925 0.024184 0)
(1.03816 0.0926937 0)
(1.04503 0.13257 0)
(1.05054 0.068199 0)
(1.04983 -0.00522096 0)
(1.04947 -0.0392474 0)
(1.04982 -0.0419736 0)
(1.04974 -0.0390143 0)
(1.04851 -0.0204983 0)
(1.00586 0.0356308 0)
(1.00723 0.035089 0)
(1.00661 0.0344996 0)
(1.00818 0.0339271 0)
(1.00942 0.0333661 0)
(1.00693 0.0328591 0)
(1.00601 0.0324044 0)
(1.00785 0.0319803 0)
(1.00863 0.0316505 0)
(1.00806 0.0314766 0)
(1.00788 0.0314583 0)
(1.00819 0.0315892 0)
(1.00851 0.0318789 0)
(1.00884 0.032335 0)
(1.0093 0.0329589 0)
(1.00992 0.0337495 0)
(1.01069 0.0347056 0)
(1.01163 0.0358261 0)
(1.01276 0.0371117 0)
(1.01408 0.0385653 0)
(1.01559 0.0401972 0)
(1.01735 0.0420097 0)
(1.01928 0.0440778 0)
(1.02162 0.0461884 0)