/*--------------------------------*- C++ -*----------------------------------*\
| =========                 |                                                 |
| \\      /  F ield         | OpenFOAM: The Open Source CFD Toolbox           |
|  \\    /   O peration     | Version:  2512                                  |
|   \\  /    A nd           | Website:  www.openfoam.com                      |
|    \\/     M anipulation  |                                                 |
\*---------------------------------------------------------------------------*/
FoamFile
{
    version     2.0;
    format      ascii;
    arch        "LSB;label=32;scalar=64";
    class       volVectorField;
    location    "37";
    object      U;
}
// * * * * * * * * * * * * * * * * * * * * * * * * * * * * * * * * * * * * * //

dimensions      [0 1 -1 0 0 0 0];

internalField   nonuniform List<vector> 
13248
(
(-0.0112407 0.0081525 3.10547e-20)
(-0.0246 0.0135932 0)
(-0.0321115 0.0119126 -5.42554e-20)
(-0.0319367 0.00754331 5.02401e-20)
(-0.0224458 0.0025905 4.65224e-20)
(-0.00199646 -0.00187315 0)
(0.0310331 -0.00511731 0)
(0.077916 -0.00649345 1.07081e-19)
(0.139211 -0.00539049 -1.35215e-21)
(0.214431 -0.00128001 -8.98252e-20)
(0.301875 0.0062115 7.95715e-20)
(0.398701 0.0172079 -4.90244e-20)
(0.501231 0.0315235 0)
(0.605413 0.0486535 -7.50515e-20)
(0.707232 0.0678572 1.36559e-19)
(0.803249 0.088157 -3.17362e-20)
(0.890487 0.108672 -5.28056e-20)
(0.967227 0.128203 4.92266e-20)
(1.03219 0.146307 0)
(1.08486 0.161628 0)
(1.12685 0.174526 0)
(1.15661 0.183777 0)
(1.179 0.189641 1.50912e-20)
(1.1951 0.193114 5.76142e-20)
(-0.0143854 0.0102329 -9.34939e-20)
(-0.0281965 0.0179071 5.92974e-20)
(-0.0305423 0.017658 -1.18503e-22)
(-0.0204857 0.0141138 -7.61525e-20)
(0.00338383 0.0098839 -4.6457e-20)
(0.0427089 0.00659017 -4.31293e-20)
(0.0989276 0.0054273 -7.82975e-20)
(0.172582 0.00732662 7.28884e-20)
(0.262696 0.0129585 0)
(0.366445 0.0226494 8.12537e-22)
(0.479332 0.0362881 1.80006e-21)
(0.595797 0.0532987 4.90932e-20)
(0.710036 0.0727127 0)
(0.816773 0.0933083 0)
(0.911822 0.113813 4.97617e-20)
(0.992397 0.132996 -9.25664e-20)
(1.05712 0.149983 5.31128e-20)
(1.10624 0.163888 -4.95158e-20)
(1.14046 0.174775 -2.17316e-20)
(1.16286 0.181828 -3.8774e-20)
(1.17431 0.186441 -1.68586e-20)
(1.1803 0.187235 -3.16933e-20)
(1.17996 0.186753 4.5294e-20)
(1.18136 0.184065 1.36396e-20)
(-0.0163254 0.0107854 0)
(-0.0282442 0.0190088 0)
(-0.0225249 0.0196806 2.74093e-20)
(0.00119218 0.0172722 2.51375e-20)
(0.0441548 0.0147712 -3.57289e-22)
(0.107706 0.0142844 -4.37985e-20)
(0.192273 0.0173429 0)
(0.296253 0.0249286 -3.61104e-20)
(0.415397 0.0373572 3.29305e-20)
(0.543096 0.0541897 -5.75354e-24)
(0.67147 0.0742953 -5.35635e-20)
(0.792778 0.0960753 -4.71089e-20)
(0.900603 0.117773 1.81598e-21)
(0.990603 0.137781 -3.57035e-20)
(1.06076 0.154869 8.66911e-20)
(1.11125 0.168299 0)
(1.1441 0.177896 -5.29619e-20)
(1.16243 0.183774 2.53605e-20)
(1.17039 0.186789 2.1708e-20)
(1.17148 0.186962 0)
(1.16976 0.186417 1.77339e-20)
(1.16712 0.183245 -6.33635e-20)
(1.16648 0.182205 5.91716e-20)
(1.16683 0.177723 3.98382e-20)
(-0.0169043 0.010049 -3.23832e-20)
(-0.0239014 0.0171932 -3.08951e-20)
(-0.00643652 0.0182562 2.79301e-20)
(0.0355153 0.0174571 0)
(0.102897 0.018103 0)
(0.195893 0.0226311 -3.6825e-22)
(0.312198 0.0325611 0)
(0.44586 0.0482755 -1.08082e-19)
(0.587644 0.0689178 9.86115e-20)
(0.726862 0.0926158 -1.19616e-19)
(0.853646 0.116982 2.67206e-20)
(0.9607 0.139683 0)
(1.04415 0.158907 4.16023e-20)
(1.10356 0.173618 -7.57329e-20)
(1.14131 0.183592 1.77756e-20)
(1.16171 0.18931 4.37898e-20)
(1.16985 0.191641 -2.33676e-21)
(1.17083 0.19169 -4.83889e-20)
(1.16852 0.19037 0)
(1.16614 0.188362 0)
(1.1643 0.18637 -1.70559e-20)
(1.16486 0.183568 1.53885e-20)
(1.16499 0.182263 5.60259e-20)
(1.16791 0.178011 -5.22929e-20)
(-0.0159748 0.00840258 -3.35965e-20)
(-0.0141557 0.0132823 -3.12417e-20)
(0.0198314 0.0146842 8.63973e-20)
(0.0856119 0.0166098 -5.21612e-20)
(0.183011 0.0225761 4.8322e-20)
(0.309107 0.0349462 8.72745e-20)
(0.456125 0.0543317 -6.04837e-20)
(0.611699 0.0793951 -7.1834e-20)
(0.761705 0.107314 1.96862e-21)
(0.893839 0.134727 8.96455e-20)
(1.00012 0.158698 0)
(1.07768 0.177342 2.33689e-20)
(1.12823 0.190042 0)
(1.15663 0.197277 -3.63962e-20)
(1.16924 0.20024 5.05752e-20)
(1.17227 0.200344 3.09165e-22)
(1.1708 0.198889 -1.29268e-20)
(1.16799 0.196717 2.36043e-20)
(1.16561 0.194379 2.05765e-20)
(1.16376 0.1918 -1.84144e-20)
(1.16261 0.189337 1.7048e-20)
(1.16142 0.185906 -1.53814e-20)
(1.15999 0.183545 0)
(1.16003 0.178533 -1.20974e-20)
(-0.0131903 0.00620963 3.35881e-20)
(0.00242449 0.00841182 3.24136e-20)
(0.0588472 0.011015 -2.89093e-20)
(0.154591 0.0177549 5.30172e-20)
(0.286334 0.031976 -4.91124e-20)
(0.444806 0.0548908 4.39448e-20)
(0.614192 0.0847543 -2.06727e-20)
(0.776116 0.117573 5.39997e-20)
(0.915196 0.148756 -3.3289e-20)
(1.02263 0.174659 5.73754e-20)
(1.09679 0.193403 -1.30255e-19)
(1.14172 0.204918 4.70529e-20)
(1.16457 0.210431 -4.01621e-20)
(1.17317 0.211754 3.7387e-20)
(1.17405 0.210615 3.15861e-20)
(1.17169 0.2083 2.72863e-20)
(1.16843 0.205494 -7.56712e-20)
(1.16522 0.202512 4.65256e-20)
(1.16212 0.19931 -2.05732e-20)
(1.15928 0.195931 5.39116e-20)
(1.15655 0.192325 -1.72616e-20)
(1.15435 0.188238 -4.28065e-20)
(1.15273 0.185094 3.94633e-20)
(1.15196 0.179606 1.2093e-20)
(-0.00792088 0.00377336 0)
(0.027582 0.00381375 2.36602e-22)
(0.113028 0.00961447 5.97467e-20)
(0.243996 0.0242198 -5.5081e-20)
(0.410499 0.0496694 -4.91507e-20)
(0.593574 0.0842403 9.0008e-20)
(0.769659 0.122643 -4.12257e-20)
(0.919032 0.158658 5.40415e-20)
(1.03129 0.187645 -1.34713e-21)
(1.10577 0.207636 -2.96443e-20)
(1.14864 0.21909 6.33155e-20)
(1.16904 0.22393 -9.206e-20)
(1.17578 0.22446 0)
(1.1755 0.222602 -1.74959e-20)
(1.17224 0.219605 -4.61312e-20)
(1.168 0.216094 1.44435e-20)
(1.16363 0.212333 5.36879e-22)
(1.15943 0.208385 -3.11168e-20)
(1.15569 0.204316 1.81759e-21)
(1.15248 0.200165 3.56075e-20)
(1.14993 0.195909 -1.58719e-20)
(1.14808 0.191659 -6.2544e-21)
(1.14631 0.187658 1.87082e-20)
(1.14582 0.182374 0)
(0.00064908 0.00141575 0)
(0.0630042 0.000830887 1.63886e-20)
(0.183684 0.0128923 -7.74373e-20)
(0.352141 0.0387969 2.77768e-20)
(0.547529 0.0771818 -2.57292e-20)
(0.740576 0.121684 -2.31097e-20)
(0.905179 0.163929 -4.02276e-20)
(1.02755 0.197663 1.9864e-20)
(1.10698 0.220454 1.70612e-20)
(1.15136 0.233128 0)
(1.17161 0.238218 3.72907e-20)
(1.17762 0.238502 -5.45794e-20)
(1.17643 0.236146 4.02484e-20)
(1.17218 0.232498 1.75033e-20)
(1.16695 0.228254 -1.41605e-20)
(1.16173 0.223748 -1.17028e-20)
(1.15691 0.219122 -1.08693e-20)
(1.15268 0.214457 3.23228e-20)
(1.14902 0.209767 0)
(1.14587 0.205049 1.61856e-20)
(1.14315 0.200262 1.37268e-20)
(1.14068 0.195476 -3.36761e-20)
(1.13864 0.19064 -2.33989e-20)
(1.13695 0.185302 2.14798e-20)
(0.0133346 -0.000421289 -1.90812e-20)
(0.109807 0.000993451 -7.24676e-22)
(0.270114 0.0231022 1.57605e-20)
(0.473293 0.0630723 4.33678e-20)
(0.685265 0.113604 1.2369e-20)
(0.871136 0.163663 -2.34807e-20)
(1.01051 0.204331 2.11767e-20)
(1.10065 0.231935 -1.82745e-20)
(1.15045 0.24731 3.20781e-20)
(1.17271 0.253551 1.34334e-20)
(1.1789 0.254027 -3.76126e-20)
(1.17706 0.251331 1.09604e-20)
(1.17191 0.247084 1.84209e-20)
(1.16584 0.242151 -9.00889e-21)
(1.1599 0.236948 0)
(1.15445 0.23165 1.31419e-20)
(1.14955 0.226323 2.20535e-20)
(1.14515 0.220972 3.75711e-21)
(1.14122 0.215596 -1.81598e-20)
(1.13776 0.210199 7.55593e-21)
(1.13476 0.204785 0)
(1.13231 0.199486 -5.92991e-21)
(1.13016 0.193967 -5.68004e-21)
(1.12853 0.188787 0)
(0.030734 -0.00111277 0)
(0.168007 0.00602972 9.28e-21)
(0.368983 0.0420506 1.69075e-20)
(0.598391 0.0969879 -4.428e-20)
(0.811419 0.156227 1.41009e-20)
(0.976349 0.206541 0)
(1.08474 0.241615 2.02311e-20)
(1.14505 0.261626 -2.78278e-20)
(1.1721 0.27014 -1.59633e-20)
(1.1797 0.271326 7.14086e-21)
(1.17766 0.268478 -1.11054e-20)
(1.17173 0.263677 2.67876e-20)
(1.16478 0.258035 1.32462e-20)
(1.15798 0.252069 -9.16203e-21)
(1.1517 0.245987 -8.72272e-22)
(1.146 0.239868 -2.44661e-20)
(1.14087 0.23374 1.10521e-20)
(1.13633 0.227633 -3.1684e-22)
(1.13236 0.22157 0)
(1.12896 0.215565 -7.56344e-21)
(1.12608 0.209651 0)
(1.12352 0.203789 1.7067e-20)
(1.12123 0.197738 -2.02716e-20)
(1.11904 0.192581 9.21805e-21)
(0.0530413 0.000112527 -5.36575e-21)
(0.236131 0.0176625 -2.36041e-20)
(0.474434 0.0706508 2.65229e-20)
(0.717477 0.138971 1.51954e-20)
(0.917567 0.202023 -7.15259e-21)
(1.05426 0.248175 1.16307e-20)
(1.13244 0.275616 -5.60117e-21)
(1.16855 0.288089 9.06151e-21)
(1.17958 0.290786 0)
(1.17807 0.288056 1.9797e-20)
(1.17149 0.282709 -8.43518e-22)
(1.16352 0.27625 -1.55747e-20)
(1.15568 0.269371 6.57857e-21)
(1.14845 0.262353 -7.32216e-21)
(1.14193 0.255314 -2.72335e-21)
(1.13612 0.248309 3.182e-21)
(1.13098 0.241375 -2.39578e-21)
(1.12646 0.234532 -1.30264e-20)
(1.12251 0.227789 7.91342e-21)
(1.11908 0.221161 1.59609e-21)
(1.11609 0.214643 1.39957e-21)
(1.11348 0.208178 1.22984e-21)
(1.11109 0.201729 0)
(1.10875 0.196344 0)
(0.0799928 0.00409803 5.37225e-21)
(0.311254 0.0372962 -4.94707e-21)
(0.579284 0.108653 -8.88037e-21)
(0.822559 0.186744 0)
(1.00028 0.248817 -3.55647e-21)
(1.10716 0.287932 -3.13024e-21)
(1.15923 0.307104 -5.19515e-21)
(1.17719 0.312696 0)
(1.1776 0.310565 0)
(1.17071 0.30469 0)
(1.16169 0.297246 0)
(1.15269 0.289237 0)
(1.14441 0.281079 -4.09625e-21)
(1.137 0.272937 1.84195e-21)
(1.13042 0.264878 3.17632e-21)
(1.1246 0.256936 1.48024e-21)
(1.11946 0.24913 3.59061e-21)
(1.11497 0.241476 0)
(1.11111 0.233994 -8.40343e-22)
(1.10783 0.226704 -8.14588e-22)
(1.10504 0.2196 -1.40178e-21)
(1.10258 0.212602 -1.23178e-21)
(1.10026 0.205821 0)
(1.09789 0.200018 8.72989e-22)
(0.000989423 -0.0637473 4.69272e-21)
(-0.00183007 -0.135847 -4.46559e-21)
(-0.0113479 -0.171428 -8.2711e-21)
(-0.0244568 -0.183908 0)
(-0.0393334 -0.183559 -1.07409e-20)
(-0.054958 -0.177189 3.36458e-21)
(-0.0707278 -0.16852 -6.1614e-21)
(-0.0863372 -0.159082 0)
(-0.101674 -0.14918 0)
(-0.116733 -0.138597 0)
(-0.131556 -0.126981 0)
(-0.146208 -0.11399 0)
(-0.160755 -0.0993142 1.67146e-22)
(-0.175264 -0.0826684 -4.02771e-21)
(-0.189791 -0.0637887 7.36155e-21)
(-0.204373 -0.042445 1.05756e-20)
(-0.21896 -0.0183491 3.13281e-21)
(-0.233398 0.00866363 0)
(-0.24792 0.0387727 3.08064e-21)
(-0.26262 0.0718183 -8.33539e-21)
(-0.277233 0.1078 -5.14606e-21)
(-0.291718 0.146623 -4.84798e-21)
(-0.306249 0.188234 0)
(-0.321226 0.232222 0)
(0.00412512 -0.0588628 -1.39065e-20)
(0.00365725 -0.123934 2.21223e-20)
(-0.00618231 -0.154907 -7.95989e-21)
(-0.0206876 -0.164603 -1.50376e-20)
(-0.0373305 -0.162742 2.10369e-20)
(-0.0547986 -0.155668 -1.29722e-20)
(-0.0723727 -0.146759 1.81878e-20)
(-0.0897162 -0.137322 1.09906e-20)
(-0.106715 -0.127517 0)
(-0.123361 -0.117045 -1.01005e-20)
(-0.13969 -0.105513 -1.12039e-22)
(-0.155749 -0.0925642 8.78058e-21)
(-0.171585 -0.0778911 1.19121e-20)
(-0.187234 -0.0612183 1.51004e-20)
(-0.202732 -0.0422757 -7.25656e-21)
(-0.217962 -0.0207971 -2.01119e-20)
(-0.232883 0.00338174 5.93115e-21)
(-0.247523 0.0303556 -2.26314e-20)
(-0.261808 0.0601231 0)
(-0.275666 0.0928022 5.45359e-21)
(-0.288853 0.128292 5.13874e-21)
(-0.30096 0.166426 4.84102e-21)
(-0.31205 0.207103 0)
(-0.324088 0.250015 0)
(0.00660299 -0.0525764 0)
(0.00805434 -0.10976 4.21174e-20)
(-0.00174905 -0.136226 -1.5641e-20)
(-0.0169354 -0.143542 1.47262e-20)
(-0.0344418 -0.140564 -4.0029e-20)
(-0.052717 -0.133073 0)
(-0.07094 -0.124127 -2.31205e-20)
(-0.0887374 -0.11486 1.04821e-20)
(-0.105979 -0.105343 -1.95135e-20)
(-0.12264 -0.0952195 8.57649e-21)
(-0.138732 -0.0840636 5.1366e-20)
(-0.154275 -0.0715039 -2.38429e-20)
(-0.169279 -0.057232 -3.76531e-20)
(-0.183709 -0.0409723 -1.33667e-20)
(-0.197476 -0.0224814 4.71287e-23)
(-0.210594 -0.00155963 4.81035e-20)
(-0.222999 0.0218713 -2.23881e-20)
(-0.234511 0.0479392 1.18871e-21)
(-0.244982 0.0766826 0)
(-0.254275 0.108089 -1.68082e-20)
(-0.26213 0.142047 0)
(-0.267858 0.178327 -1.66433e-20)
(-0.270853 0.216593 5.81677e-20)
(-0.274068 0.256434 3.70689e-22)
(0.00830176 -0.0455127 0)
(0.0111565 -0.0944881 -5.2692e-22)
(0.00168202 -0.116685 1.4888e-20)
(-0.0135364 -0.122014 -1.37268e-20)
(-0.0310723 -0.118268 1.3211e-20)
(-0.0491846 -0.110616 7.15079e-20)
(-0.0669582 -0.101816 -2.22183e-20)
(-0.0839771 -0.0928873 -2.01728e-20)
(-0.100086 -0.0838535 3.8149e-20)
(-0.115235 -0.0743279 -5.32907e-20)
(-0.129402 -0.0638556 1.59272e-20)
(-0.142566 -0.0520449 1.46663e-20)
(-0.154679 -0.0385805 0)
(-0.16569 -0.0232136 1.33845e-20)
(-0.175531 -0.00576242 0)
(-0.184093 0.0138999 2.08984e-20)
(-0.191247 0.0359215 -3.99459e-20)
(-0.196807 0.0603666 1.03224e-20)
(-0.200551 0.0872394 3.42555e-20)
(-0.202262 0.116487 1.67916e-20)
(-0.20176 0.148005 0)
(-0.198561 0.181634 -4.10294e-20)
(-0.191115 0.216917 1.3331e-20)
(-0.179735 0.252067 0)
(0.00918398 -0.038212 0)
(0.0128389 -0.0790869 -4.77193e-20)
(0.00382063 -0.0973783 -1.44986e-20)
(-0.0109646 -0.101153 -2.70699e-20)
(-0.02788 -0.0970313 2.50828e-20)
(-0.0450404 -0.0895325 -2.35587e-20)
(-0.0614465 -0.0811297 4.27062e-20)
(-0.0766385 -0.072765 1.99404e-20)
(-0.0904369 -0.0644604 -5.52497e-20)
(-0.102768 -0.0558293 3.34798e-20)
(-0.113584 -0.0463992 -4.67797e-20)
(-0.122825 -0.0357595 9.82512e-20)
(-0.130423 -0.0235906 -5.26022e-20)
(-0.13629 -0.00966118 2.31435e-20)
(-0.140322 0.00620827 6.43226e-20)
(-0.142388 0.0241453 -2.17552e-20)
(-0.142329 0.0442324 -1.82026e-20)
(-0.139958 0.0664968 -1.77422e-20)
(-0.135042 0.0909007 0)
(-0.127289 0.11734 -2.71176e-20)
(-0.116408 0.145716 -2.43416e-20)
(-0.102351 0.175824 3.55763e-20)
(-0.0861457 0.207007 4.38476e-20)
(-0.0575612 0.240608 -3.95512e-20)
(0.00925403 -0.0310535 0)
(0.0130031 -0.0642351 -6.1229e-20)
(0.00434372 -0.0790972 4.24384e-22)
(-0.00979235 -0.0818206 5.27574e-20)
(-0.0256897 -0.0778082 0)
(-0.0413703 -0.0708966 0)
(-0.0557655 -0.0632639 0)
(-0.0683769 -0.0557904 -1.91932e-20)
(-0.0790073 -0.04853 3.78502e-22)
(-0.0875723 -0.0411321 3.24615e-20)
(-0.0940127 -0.0331374 -4.47524e-20)
(-0.0982566 -0.0241196 3.59235e-22)
(-0.100211 -0.0137416 0)
(-0.0997722 -0.00175222 -2.31347e-20)
(-0.0968223 0.0120287 1.89083e-20)
(-0.0912294 0.0277184 -5.49197e-20)
(-0.082839 0.0453747 6.57853e-20)
(-0.0714917 0.0650067 1.26037e-20)
(-0.0570168 0.0865392 -1.79389e-21)
(-0.0391163 0.10985 -4.93575e-20)
(-0.0175822 0.134795 -2.08516e-20)
(0.00802342 0.16082 6.97326e-20)
(0.0349406 0.187789 -4.49472e-20)
(0.0794273 0.218538 0)
(0.00851156 -0.0242242 3.12644e-20)
(0.0115379 -0.0502747 3.04341e-20)
(0.00291988 -0.0622654 -2.76122e-20)
(-0.0105922 -0.0645195 -5.14285e-20)
(-0.0253257 -0.0612107 4.76526e-20)
(-0.0392721 -0.0554643 -4.37107e-20)
(-0.0513198 -0.0491337 6.05389e-20)
(-0.0609399 -0.0430246 -1.90232e-20)
(-0.0679249 -0.0372338 3.42688e-20)
(-0.0721975 -0.0314774 0)
(-0.0737006 -0.0253328 2.7207e-20)
(-0.0723661 -0.0183796 -5.1201e-20)
(-0.0681111 -0.0102692 4.61002e-20)
(-0.0608352 -0.000729917 -4.29117e-20)
(-0.0504355 0.0104398 0)
(-0.0368123 0.0233687 3.4228e-20)
(-0.0198393 0.0381275 5.86121e-20)
(0.000601491 0.0547154 -5.5705e-20)
(0.0245347 0.0730714 -2.34261e-20)
(0.0524681 0.092954 -2.20193e-20)
(0.0832204 0.114485 6.09387e-20)
(0.121371 0.136454 1.66693e-20)
(0.153992 0.160172 -1.57342e-20)
(0.216174 0.182325 1.47729e-20)
(0.00692424 -0.0177452 -3.12721e-20)
(0.0083235 -0.0372514 8.84771e-20)
(-0.000702224 -0.0469476 -2.70916e-20)
(-0.0137525 -0.0493368 5.0503e-20)
(-0.0273212 -0.0473745 -4.6795e-20)
(-0.0394474 -0.0434552 -1.14536e-22)
(-0.0490123 -0.0390694 1.97572e-20)
(-0.0554664 -0.0349123 7.1361e-20)
(-0.0585888 -0.0311048 -1.11929e-21)
(-0.0582966 -0.0274297 -3.11782e-20)
(-0.0545403 -0.0235189 0)
(-0.0472633 -0.018983 -2.36802e-20)
(-0.0363975 -0.0134651 4.56344e-20)
(-0.0218595 -0.0066614 3.95103e-20)
(-0.00357015 0.00166261 -1.91291e-20)
(0.0185241 0.0116737 -8.46396e-22)
(0.0444674 0.023472 -1.47543e-20)
(0.0744179 0.0370808 2.46582e-20)
(0.1077 0.0524615 2.34294e-20)
(0.146946 0.0692936 -2.09458e-20)
(0.184718 0.0879692 1.75643e-20)
(0.239122 0.106507 -1.58944e-20)
(0.272049 0.128183 0)
(0.357587 0.144111 -1.47707e-20)
(0.00444646 -0.011558 3.05883e-20)
(0.00331532 -0.0250427 -2.93699e-20)
(-0.00651479 -0.0329398 2.69251e-20)
(-0.0191825 -0.0359643 0)
(-0.0314771 -0.0358808 0)
(-0.0415609 -0.0343463 4.17905e-20)
(-0.0483334 -0.0324516 -3.92026e-20)
(-0.051207 -0.0307299 3.48477e-20)
(-0.0499069 -0.0292753 -1.62852e-19)
(-0.0442879 -0.0279078 5.13062e-22)
(-0.0342406 -0.026294 2.6708e-20)
(-0.0196512 -0.0240453 0)
(-0.000405468 -0.0207755 -4.27082e-20)
(0.0235863 -0.0161397 7.78381e-20)
(0.0523788 -0.00985105 -5.31352e-20)
(0.0859739 -0.00168794 -7.5614e-20)
(0.124219 0.00846088 2.86392e-21)
(0.167639 0.020757 4.84093e-20)
(0.213264 0.0347887 0)
(0.269717 0.0511405 0)
(0.314697 0.0682537 -1.75708e-20)
(0.394693 0.0874559 1.59001e-20)
(0.423002 0.106639 -5.77849e-20)
(0.544477 0.125357 5.3932e-20)
(0.00109541 -0.00564768 0)
(-0.00329248 -0.0135509 0)
(-0.014011 -0.0199476 -8.05872e-20)
(-0.0259665 -0.023838 2.49363e-20)
(-0.0363568 -0.0258374 2.56563e-22)
(-0.0434972 -0.0268687 4.20969e-20)
(-0.0462743 -0.0275877 0)
(-0.0439742 -0.0282939 -3.53909e-20)
(-0.0361293 -0.029003 3.24794e-20)
(-0.0223991 -0.0294931 -5.77176e-20)
(-0.00248175 -0.0293913 6.14619e-22)
(0.023864 -0.0282634 4.69327e-20)
(0.0567827 -0.0256742 -1.72409e-21)
(0.0962731 -0.0212308 3.55872e-20)
(0.14215 -0.0146094 -5.25901e-20)
(0.194084 -0.00558385 0)
(0.251227 0.00583972 5.16358e-20)
(0.314501 0.0200181 -7.1853e-20)
(0.377543 0.0356108 2.08006e-20)
(0.455305 0.0549145 0)
(0.510928 0.0725236 1.68823e-20)
(0.614938 0.096218 6.11967e-20)
(0.64208 0.113032 -5.71391e-20)
(0.789469 0.139704 -6.88354e-20)
(-0.00294071 -0.000155576 9.11649e-20)
(-0.0108892 -0.00290796 -1.15666e-19)
(-0.0219982 -0.00785423 1.85542e-23)
(-0.0321714 -0.0124507 2.48119e-20)
(-0.0390501 -0.0162444 -4.58272e-20)
(-0.0410525 -0.0194399 -4.21585e-20)
(-0.0369304 -0.0222185 7.68181e-20)
(-0.0257108 -0.0246226 -1.17891e-21)
(-0.00661116 -0.0264945 -6.51574e-20)
(0.0209904 -0.0274745 1.16537e-19)
(0.0574956 -0.0271079 -1.62786e-21)
(0.103008 -0.0249093 -4.84836e-20)
(0.157249 -0.0204313 0)
(0.219532 -0.0133238 0)
(0.288764 -0.00337951 -1.69141e-20)
(0.363651 0.0094307 -2.99353e-20)
(0.442302 0.0248903 -5.15239e-20)
(0.524425 0.0429174 4.80297e-20)
(0.604396 0.0622583 -2.08163e-20)
(0.691624 0.0841292 3.69068e-20)
(0.760233 0.104183 -1.76195e-20)
(0.858964 0.128388 3.11248e-20)
(0.8961 0.145212 -7.33061e-20)
(1.02378 0.171349 1.36605e-20)
(-0.00724416 0.00458314 3.0459e-20)
(-0.0184266 0.0063927 0)
(-0.0286947 0.00303522 5.38407e-20)
(-0.0350986 -0.00175175 -4.98569e-20)
(-0.0356853 -0.00659083 4.58864e-20)
(-0.0288598 -0.0110009 0)
(-0.0131496 -0.0147167 0)
(0.0127197 -0.0174599 -3.50381e-20)
(0.0497179 -0.0188163 1.32677e-21)
(0.0983663 -0.0182977 3.02324e-20)
(0.158555 -0.0154045 -2.5823e-20)
(0.229435 -0.00970479 4.87276e-20)
(0.309414 -0.000915212 0)
(0.396302 0.0110313 7.46147e-20)
(0.487495 0.0259848 -1.35666e-19)
(0.580302 0.0434697 9.16214e-20)
(0.672168 0.0630669 5.21192e-20)
(0.760503 0.0836637 -4.8585e-20)
(0.844024 0.105086 0)
(0.920616 0.125562 0)
(0.988424 0.145456 0)
(1.05352 0.163022 0)
(1.09489 0.178252 1.48785e-20)
(1.16361 0.191652 -5.86324e-20)
(-0.339419 0.284423 -3.24235e-21)
(-0.357922 0.347325 3.24e-21)
(-0.371746 0.409256 -9.42708e-23)
(-0.384378 0.470936 0)
(-0.390461 0.526699 -3.06537e-21)
(-0.389961 0.574104 5.99709e-21)
(-0.3785 0.607604 6.78695e-23)
(-0.353688 0.622389 -2.91407e-21)
(-0.312389 0.613091 0)
(-0.253907 0.576478 0)
(-0.179697 0.511485 -2.00738e-22)
(-0.0948562 0.422035 -2.06293e-22)
(-0.00626257 0.314618 -3.56006e-21)
(0.078516 0.197289 3.25259e-21)
(0.154388 0.0741339 0)
(0.219966 -0.0527449 0)
(0.273533 -0.188384 3.10175e-21)
(0.316282 -0.341738 -1.79886e-22)
(0.356718 -0.512769 -2.58393e-21)
(0.395342 -0.664144 -1.37566e-22)
(0.426864 -0.747586 0)
(0.43935 -0.758772 0)
(0.431519 -0.7173 0)
(0.435329 -0.634761 0)
(0.409324 -0.570367 0)
(0.311784 -0.557267 0)
(0.21849 -0.519985 1.81599e-22)
(0.213099 -0.379712 -2.72882e-22)
(0.279546 -0.167663 0)
(0.37683 0.0431401 0)
(0.476018 0.204338 -1.26328e-22)
(0.563034 0.301516 1.22747e-22)
(0.63079 0.341549 2.63005e-23)
(0.67438 0.346615 0)
(0.69361 0.330846 0)
(0.70593 0.30051 7.82709e-24)
(0.710582 0.263301 -7.60729e-24)
(0.689956 0.23252 0)
(0.654762 0.197988 3.56336e-24)
(0.645185 0.144653 -7.06644e-24)
(0.680465 0.0716806 3.09294e-24)
(0.741761 0.00183884 0)
(0.803485 -0.0515273 4.50482e-24)
(0.85139 -0.0814049 -4.38022e-24)
(0.882959 -0.0945282 0)
(0.901099 -0.0940265 0)
(0.9067 -0.0888769 4.85047e-24)
(0.902453 -0.0796299 -1.39807e-23)
(0.89143 -0.0697057 0)
(0.884468 -0.0542127 0)
(0.884774 -0.0362462 2.44739e-24)
(0.896939 -0.0149205 1.23291e-25)
(0.910789 0.00282453 3.05007e-25)
(0.928077 0.0173738 -1.42125e-24)
(0.937286 0.0251029 0)
(0.94879 0.029326 0)
(0.950426 0.0290949 0)
(0.958531 0.027394 0)
(0.957036 0.0249408 0)
(0.964636 0.021281 0)
(-0.341046 0.300672 -2.66112e-22)
(-0.350987 0.359695 -1.1628e-20)
(-0.356539 0.41769 -1.75471e-22)
(-0.357195 0.473395 1.10581e-20)
(-0.348775 0.521499 1.71608e-22)
(-0.331081 0.559408 0)
(-0.300435 0.58131 -1.18105e-20)
(-0.256151 0.583395 2.39776e-20)
(-0.196803 0.561359 -1.21712e-20)
(-0.124276 0.514234 1.32058e-20)
(-0.0410273 0.442842 -1.2622e-20)
(0.0474691 0.352065 1.37265e-20)
(0.134521 0.248412 -1.3337e-20)
(0.215289 0.137646 -4.43373e-22)
(0.288299 0.0221131 -1.40047e-20)
(0.351429 -0.0959794 1.36002e-20)
(0.40025 -0.221217 -1.28827e-20)
(0.43855 -0.368854 1.21249e-20)
(0.477303 -0.539468 -1.02511e-20)
(0.510723 -0.691006 1.79393e-20)
(0.526097 -0.770241 -7.77793e-21)
(0.527836 -0.766074 -3.07112e-22)
(0.504766 -0.716607 -3.02386e-21)
(0.481304 -0.63423 5.14047e-21)
(0.465906 -0.544203 -2.14019e-21)
(0.389748 -0.503882 8.33252e-23)
(0.274985 -0.483818 1.38792e-21)
(0.222069 -0.388527 7.78804e-23)
(0.257234 -0.20744 -2.53623e-21)
(0.339786 -0.00745685 2.23601e-21)
(0.43518 0.155181 -9.97689e-22)
(0.525738 0.261438 5.9967e-23)
(0.597981 0.314351 -2.63566e-23)
(0.643746 0.3321 2.07303e-23)
(0.670803 0.323078 0)
(0.691232 0.296851 0)
(0.689859 0.26836 -2.95812e-23)
(0.657373 0.244967 1.88813e-23)
(0.628255 0.205091 2.72239e-23)
(0.643991 0.136661 4.3377e-24)
(0.704007 0.0520547 -4.14194e-23)
(0.776832 -0.0201188 6.51742e-24)
(0.83909 -0.0692744 0)
(0.88183 -0.0932027 0)
(0.906721 -0.101303 0)
(0.919356 -0.0971329 0)
(0.922856 -0.0890578 -1.85481e-23)
(0.91909 -0.0775536 9.27252e-24)
(0.908113 -0.0668742 0)
(0.897473 -0.0524683 0)
(0.890801 -0.0367581 0)
(0.895317 -0.0172832 3.74211e-24)
(0.903493 -0.00041538 -3.247e-25)
(0.918135 0.0144667 2.91347e-24)
(0.926798 0.0227652 0)
(0.939586 0.0277604 0)
(0.942539 0.0279524 -1.47132e-24)
(0.952701 0.0265749 -3.48218e-24)
(0.95214 0.0242697 0)
(0.961425 0.0204744 0)
(-0.285046 0.303592 7.78993e-22)
(-0.287408 0.357766 -1.98535e-20)
(-0.284116 0.410936 2.11966e-20)
(-0.273914 0.459514 -1.98103e-20)
(-0.253589 0.499888 -1.72842e-22)
(-0.223158 0.528635 0)
(-0.180094 0.540102 -2.41012e-20)
(-0.124778 0.532018 2.35999e-20)
(-0.0566482 0.501709 1.95906e-22)
(0.0211829 0.449016 4.14862e-22)
(0.104901 0.376684 4.32117e-22)
(0.189933 0.288607 4.35392e-22)
(0.271412 0.190468 -2.92941e-20)
(0.3461 0.0867331 2.88912e-20)
(0.41383 -0.0208576 0)
(0.471467 -0.129558 8.74704e-22)
(0.514337 -0.242468 -2.63262e-20)
(0.551534 -0.382651 2.59539e-20)
(0.593988 -0.552217 0)
(0.627752 -0.700064 0)
(0.62964 -0.775707 -1.24916e-20)
(0.610329 -0.764829 2.08199e-20)
(0.579695 -0.705189 -1.41298e-20)
(0.533402 -0.627771 1.76857e-21)
(0.511276 -0.530534 6.77011e-21)
(0.464177 -0.459804 -5.06426e-21)
(0.353474 -0.435996 3.82847e-21)
(0.259206 -0.380117 -1.40618e-22)
(0.254929 -0.238535 -1.66314e-21)
(0.316997 -0.0550934 0)
(0.404357 0.105889 0)
(0.493468 0.220316 2.09392e-22)
(0.565638 0.28655 -2.94973e-22)
(0.615722 0.315536 -9.81664e-24)
(0.653668 0.312691 8.17908e-23)
(0.676176 0.294716 -7.94735e-23)
(0.662957 0.277948 0)
(0.625185 0.257696 9.91136e-24)
(0.614767 0.205594 1.48339e-22)
(0.659941 0.12062 -3.01853e-22)
(0.739117 0.0282681 1.24806e-22)
(0.816315 -0.0423615 1.30832e-23)
(0.874338 -0.085286 7.5416e-25)
(0.909925 -0.102756 -6.09688e-24)
(0.927804 -0.106113 -1.25271e-23)
(0.934669 -0.0990468 -1.63364e-23)
(0.935167 -0.0890436 1.85975e-23)
(0.931494 -0.07586 0)
(0.922204 -0.0641514 0)
(0.911356 -0.0499753 5.62748e-23)
(0.901223 -0.035845 -2.63027e-23)
(0.899835 -0.0181595 2.01244e-23)
(0.90239 -0.00261218 -2.45423e-23)
(0.913273 0.0120398 -2.52624e-23)
(0.920377 0.0204569 5.65745e-24)
(0.933435 0.0259833 -8.74154e-24)
(0.937392 0.0265028 6.82888e-24)
(0.949081 0.0254737 -2.931e-24)
(0.949528 0.0233613 0)
(0.960027 0.0195252 0)
(-0.182601 0.295381 -3.57635e-20)
(-0.179823 0.343587 -1.66148e-21)
(-0.168916 0.391042 3.52849e-20)
(-0.150808 0.432672 -3.12993e-22)
(-0.122342 0.465543 0)
(-0.0851478 0.486028 0)
(-0.0363957 0.49047 -4.783e-20)
(0.0237967 0.476601 -4.69048e-21)
(0.0937362 0.442561 7.59886e-20)
(0.169974 0.388564 1.64356e-21)
(0.249142 0.317789 -2.75579e-20)
(0.327393 0.233968 -2.87251e-20)
(0.401387 0.141899 2.87652e-20)
(0.468813 0.0449511 0)
(0.529774 -0.0555938 -2.91345e-20)
(0.581087 -0.155529 2.65236e-20)
(0.619061 -0.258282 0)
(0.65853 -0.39277 0)
(0.707265 -0.562198 2.07864e-20)
(0.739819 -0.705279 -3.69979e-21)
(0.733924 -0.770441 -1.55689e-20)
(0.693873 -0.75471 -8.78433e-21)
(0.650789 -0.688465 8.64952e-21)
(0.593655 -0.612661 -3.9989e-21)
(0.550098 -0.522925 1.31016e-21)
(0.523121 -0.430456 2.45812e-21)
(0.441597 -0.384437 1.65388e-22)
(0.325912 -0.351426 4.28252e-23)
(0.274784 -0.255702 0)
(0.308113 -0.0985589 6.60611e-22)
(0.382653 0.0579484 -6.5932e-22)
(0.465427 0.179609 3.42245e-23)
(0.537102 0.257408 0)
(0.595081 0.295501 -1.10979e-23)
(0.641065 0.300961 1.29812e-22)
(0.657073 0.296062 -2.9057e-22)
(0.631729 0.290626 -1.07947e-22)
(0.599936 0.266853 -9.17105e-23)
(0.617812 0.197701 2.76691e-22)
(0.690785 0.0981389 4.18131e-23)
(0.781727 0.00252107 -2.47863e-22)
(0.85721 -0.0631815 2.21112e-22)
(0.907622 -0.0987905 -3.54927e-24)
(0.934894 -0.109993 -3.24513e-23)
(0.946042 -0.109138 4.41261e-23)
(0.947789 -0.0997901 1.14199e-22)
(0.945092 -0.0886456 -3.15516e-23)
(0.940682 -0.0745113 -6.90012e-23)
(0.933043 -0.0619656 1.30339e-22)
(0.923814 -0.047528 -9.08256e-23)
(0.913285 -0.0342483 2.11417e-23)
(0.908633 -0.0179302 -2.66122e-23)
(0.906954 -0.0037699 -2.05218e-23)
(0.914032 0.0102446 4.0017e-23)
(0.919137 0.0183668 -1.36966e-24)
(0.931547 0.0241377 9.16748e-24)
(0.936095 0.0248513 0)
(0.948506 0.0241582 2.96313e-24)
(0.949863 0.0222727 -3.76772e-24)
(0.960842 0.0184914 0)
(-0.0503145 0.277843 3.17207e-20)
(-0.0444666 0.320068 -6.38729e-20)
(-0.0286079 0.361225 3.18117e-20)
(-0.00598893 0.397091 3.71802e-20)
(0.0261973 0.423846 -7.64175e-20)
(0.0669566 0.438807 -4.11283e-21)
(0.117468 0.439617 4.23804e-20)
(0.17685 0.423316 5.01647e-20)
(0.243646 0.388393 -4.91012e-20)
(0.314803 0.335815 0)
(0.387306 0.2684 -5.83977e-20)
(0.458177 0.18945 1.1646e-19)
(0.524732 0.103177 -5.80345e-20)
(0.584834 0.012575 0)
(0.638777 -0.0808802 0)
(0.683423 -0.17297 8.93103e-22)
(0.718338 -0.269329 -5.32644e-20)
(0.762126 -0.40022 5.17086e-20)
(0.816251 -0.56453 0)
(0.843435 -0.699817 3.40948e-20)
(0.826708 -0.753973 -5.6316e-20)
(0.774259 -0.733705 4.05957e-20)
(0.715443 -0.667947 -2.83321e-20)
(0.657726 -0.59097 3.66246e-21)
(0.596046 -0.513606 1.19536e-20)
(0.564984 -0.418842 -4.53801e-21)
(0.52078 -0.344265 -6.70598e-23)
(0.416213 -0.308343 -2.2158e-22)
(0.323651 -0.251844 1.36142e-22)
(0.314811 -0.132137 1.15644e-22)
(0.370114 0.0129067 1.78671e-23)
(0.445776 0.138358 9.57348e-23)
(0.518961 0.225002 -1.84894e-22)
(0.583569 0.272219 1.0851e-22)
(0.628862 0.290188 0)
(0.63221 0.301179 -2.27394e-22)
(0.600689 0.303207 2.32355e-22)
(0.587251 0.26916 -3.98298e-22)
(0.637875 0.181421 4.9578e-22)
(0.733014 0.0714886 -6.7236e-23)
(0.828376 -0.0229654 0)
(0.897477 -0.08133 -3.04795e-23)
(0.938066 -0.10933 3.36901e-23)
(0.95653 -0.114925 0)
(0.961404 -0.110626 -1.19089e-22)
(0.958979 -0.0995588 3.90476e-23)
(0.953544 -0.0877988 -3.4188e-23)
(0.947924 -0.0733165 -3.33396e-23)
(0.941175 -0.060348 0)
(0.933887 -0.0455586 0)
(0.924773 -0.032621 7.27577e-23)
(0.919328 -0.0171579 -1.07796e-22)
(0.915461 -0.00419925 5.70572e-23)
(0.919626 0.00903589 -1.70385e-23)
(0.92295 0.0165895 -2.56516e-23)
(0.934125 0.02235 -9.17736e-24)
(0.938887 0.0231287 1.41503e-23)
(0.951145 0.0227325 0)
(0.953195 0.0210953 6.17581e-24)
(0.963845 0.0174491 1.49566e-24)
(0.0902132 0.251283 2.85383e-20)
(0.10306 0.289996 -2.8195e-20)
(0.122074 0.326047 2.52515e-22)
(0.147231 0.357158 -2.47676e-22)
(0.180397 0.380044 2.91408e-22)
(0.221316 0.392258 -3.17016e-22)
(0.27028 0.391087 6.52492e-22)
(0.326441 0.374492 0)
(0.388273 0.341295 -7.69232e-22)
(0.453299 0.292237 8.20923e-22)
(0.518748 0.229639 8.63377e-22)
(0.582094 0.156273 -9.20151e-22)
(0.640892 0.0762213 0)
(0.693925 -0.00776728 0)
(0.741221 -0.0957498 9.01074e-22)
(0.779396 -0.182761 0)
(0.813729 -0.27687 -8.33478e-22)
(0.864411 -0.407925 0)
(0.922632 -0.564334 -3.98231e-20)
(0.943815 -0.685453 7.15732e-20)
(0.911903 -0.729421 -5.52517e-20)
(0.849205 -0.705923 2.36088e-20)
(0.777084 -0.645337 1.14991e-20)
(0.716187 -0.569241 -1.11624e-20)
(0.652608 -0.497451 -4.50312e-21)
(0.602431 -0.415197 4.29962e-21)
(0.577542 -0.32463 0)
(0.510503 -0.265976 -9.99747e-24)
(0.404997 -0.226465 0)
(0.346411 -0.148168 0)
(0.368328 -0.0271732 -8.96756e-22)
(0.433374 0.0955183 9.57166e-22)
(0.507904 0.188911 -6.76202e-23)
(0.573704 0.247796 -1.94953e-23)
(0.610663 0.282349 1.30339e-23)
(0.602177 0.30878 -2.26923e-22)
(0.575431 0.312206 2.203e-22)
(0.590739 0.26286 -6.20939e-22)
(0.673389 0.158259 5.48091e-22)
(0.783179 0.0432789 1.45622e-22)
(0.876282 -0.0461368 -3.59486e-22)
(0.935436 -0.0960105 1.20606e-22)
(0.965066 -0.116756 1.59611e-22)
(0.974895 -0.117685 0)
(0.9741 -0.110834 3.42846e-23)
(0.968371 -0.0986078 -9.07625e-23)
(0.960887 -0.0865784 1.15574e-22)
(0.954089 -0.0721314 3.3563e-23)
(0.947518 -0.0591414 0)
(0.941676 -0.0441636 -2.66874e-23)
(0.934508 -0.0313521 5.39689e-23)