/*--------------------------------*- C++ -*----------------------------------*\
| =========                 |                                                 |
| \\      /  F ield         | OpenFOAM: The Open Source CFD Toolbox           |
|  \\    /   O peration     | Version:  2312                                  |
|   \\  /    A nd           | Website:  www.openfoam.com                      |
|    \\/     M anipulation  |                                                 |
\*---------------------------------------------------------------------------*/
FoamFile
{
    version     2.0;
    format      ascii;
    arch        "LSB;label=32;scalar=64";
    class       surfaceScalarField;
    location    "23.5";
    object      phi;
}
// * * * * * * * * * * * * * * * * * * * * * * * * * * * * * * * * * * * * * //

dimensions      [0 3 -1 0 0 0 0];

oriented        oriented;

internalField   nonuniform List<scalar> 
26232
(
-0.000124918
0.00143227
-0.00130735
-0.000175047
0.00341349
-0.00336336
6.71716e-05
0.00458562
-0.00482784
0.000777582
0.00495202
-0.00566243
0.00213997
0.00449074
-0.00585313
0.00436391
0.00314741
-0.00537134
0.00769854
0.000840774
-0.00417541
0.0124194
-0.00251229
-0.00220858
0.018789
-0.00696613
0.000596543
0.0270074
-0.0125079
0.0042895
0.0371401
-0.0190393
0.00890653
0.0490868
-0.0263714
0.0144247
0.0625678
-0.0342437
0.0207627
0.0771444
-0.0423566
0.0277801
0.0922666
-0.0504041
0.0352818
0.10732
-0.0581128
0.0430594
0.121727
-0.0652532
0.0508457
0.134928
-0.0716983
0.0584974
0.146613
-0.0773393
0.0656544
0.156472
-0.082337
0.0724786
0.164646
-0.0865282
0.0783538
0.17117
-0.0906805
0.0841567
0.176199
-0.0937948
0.0887659
-0.0979845
0.0943705
0.179813
-0.000145968
0.00157823
-0.000184613
0.00345214
0.000177459
0.00422355
0.00120554
0.00392393
0.00318212
0.00251417
0.00641613
-8.66019e-05
0.0112232
-0.00396626
0.017875
-0.00916414
0.0265218
-0.015613
0.0371266
-0.0231126
0.0494311
-0.0313438
0.0629735
-0.0399138
0.0771463
-0.0484165
0.0912786
-0.0564888
0.104727
-0.063852
0.116957
-0.0703429
0.127617
-0.0759137
0.136568
-0.0806495
0.143929
-0.0847003
0.149929
-0.0883367
0.155095
-0.0916947
0.159603
-0.0951876
0.164252
-0.0984445
-0.102564
0.168831
-0.000104896
0.00168313
2.09885e-05
0.00332625
0.000733467
0.00351107
0.00239388
0.00226352
0.00537203
-0.000463982
0.0100322
-0.00474682
0.0166654
-0.0105994
0.0253895
-0.0178883
0.0360695
-0.026293
0.0482971
-0.0353402
0.0614446
-0.0444912
0.0747709
-0.0532401
0.087548
-0.0611936
0.0991762
-0.068117
0.109272
-0.0739481
0.117711
-0.0787814
0.124622
-0.0828253
0.13033
-0.0863571
0.13525
-0.0896202
0.139787
-0.0928738
0.144218
-0.0961263
0.14869
-0.0996589
0.153229
-0.102984
-0.106987
0.157652
-1.99785e-05
0.00170311
0.000389013
0.00291726
0.00165733
0.00224275
0.00421612
-0.000295259
0.00848964
-0.00473751
0.0148109
-0.0110681
0.023296
-0.0190845
0.0337382
-0.0283304
0.0455976
-0.0381524
0.0581025
-0.0478451
0.0704151
-0.0568039
0.0818027
-0.0646277
0.0917668
-0.0711578
0.100109
-0.076459
0.106921
-0.0807608
0.112514
-0.0843735
0.117296
-0.0876081
0.121644
-0.0907048
0.125842
-0.0938178
0.129983
-0.0970153
0.134139
-0.100282
0.138194
-0.103714
0.142248
-0.107037
-0.110914
0.146176
9.47716e-05
0.00160834
0.000884411
0.00212762
0.00286523
0.000261928
0.00652438
-0.00395441
0.0122609
-0.0104741
0.0202316
-0.0190387
0.0301993
-0.0290523
0.0415205
-0.0396516
0.0532981
-0.04993
0.0646197
-0.0591667
0.0747727
-0.0669569
0.0833738
-0.0732288
0.0903897
-0.0781736
0.0960635
-0.0821328
0.100781
-0.0854783
0.104932
-0.0885241
0.108804
-0.0914805
0.112563
-0.0944639
0.116264
-0.0975186
0.119917
-0.100669
0.123541
-0.103906
0.127127
-0.107299
0.130788
-0.110698
-0.114531
0.134404
0.000232255
0.00137608
0.00148558
0.000874294
0.00431365
-0.00256614
0.00919951
-0.00884028
0.016389
-0.0176635
0.0256765
-0.0283262
0.0363557
-0.0397316
0.0474193
-0.0507152
0.0578806
-0.0603913
0.0670401
-0.0683262
0.0746055
-0.0745223
0.0806597
-0.0792829
0.0855264
-0.0830403
0.0896037
-0.0862101
0.0932336
-0.0891083
0.0966414
-0.0919319
0.0999469
-0.094786
0.103201
-0.0977178
0.106434
-0.100751
0.109661
-0.103896
0.112912
-0.107157
0.116166
-0.110553
0.119474
-0.114006
-0.117772
0.122715
0.000400227
0.000975857
0.00219839
-0.000923873
0.00597003
-0.00633777
0.0120917
-0.014962
0.0204724
-0.0260442
0.0304114
-0.0382652
0.040808
-0.0501282
0.0505807
-0.0604879
0.0590041
-0.0688146
0.065827
-0.0751491
0.0711932
-0.0798885
0.0754602
-0.0835499
0.0790185
-0.0865986
0.0821786
-0.0893702
0.085139
-0.0920687
0.0880088
-0.0948017
0.0908423
-0.0976194
0.0936676
-0.100543
0.0964951
-0.103579
0.0993267
-0.106728
0.102162
-0.109993
0.104987
-0.113378
0.107846
-0.116865
-0.120578
0.110652
0.000604417
0.000371439
0.0030173
-0.00333676
0.00776223
-0.0110827
0.0149498
-0.0221495
0.0239941
-0.0350886
0.0337429
-0.0480139
0.0429865
-0.0593719
0.0509089
-0.0684103
0.0572342
-0.0751399
0.0621166
-0.0800315
0.0659235
-0.0836954
0.0690427
-0.0866691
0.0717764
-0.0893323
0.0743185
-0.0919123
0.0767766
-0.0945267
0.0792028
-0.0972279
0.0816187
-0.100035
0.0840293
-0.102954
0.0864352
-0.105985
0.0888391
-0.109132
0.0912478
-0.112401
0.0936651
-0.115795
0.0961143
-0.119314
-0.122996
0.0985322
0.000843227
-0.000471788
0.00390821
-0.00640175
0.00954656
-0.016721
0.0174315
-0.0300345
0.0264599
-0.0441169
0.0352761
-0.0568301
0.0428914
-0.0669872
0.0489246
-0.0744434
0.0534901
-0.0797054
0.0569501
-0.0834916
0.0596995
-0.0864448
0.0620496
-0.0890192
0.064201
-0.0914837
0.0662632
-0.0939745
0.0682871
-0.0965506
0.0702924
-0.0992332
0.0722855
-0.102028
0.0742699
-0.104938
0.0762497
-0.107965
0.0782299
-0.111112
0.0802138
-0.114385
0.0822017
-0.117783
0.0842014
-0.121314
-0.124965
0.0861702
0.00110582
-0.00157761
0.00480472
-0.0101006
0.0111254
-0.0230417
0.0192024
-0.0381114
0.0275822
-0.0524968
0.0350236
-0.0642715
0.0409393
-0.0729029
0.0453401
-0.0788442
0.0485613
-0.0829267
0.0510096
-0.0859398
0.0530174
-0.0884527
0.0548017
-0.0908036
0.0564809
-0.0931628
0.0581098
-0.0956035
0.0597111
-0.0981519
0.0612937
-0.100816
0.062862
-0.103597
0.0644189
-0.106495
0.0659668
-0.109513
0.0675084
-0.112654
0.0690465
-0.115923
0.0705861
-0.119323
0.0721285
-0.122856
-0.12649
0.0736541
0.0013751
-0.00295271
0.00561982
-0.0143454
0.0122998
-0.0297217
0.020051
-0.0458626
0.0273507
-0.0597965
0.0332868
-0.0702075
0.0376709
-0.0772871
0.0407685
-0.0819417
0.0429906
-0.0851487
0.0447003
-0.0876495
0.0461428
-0.0898952
0.0474546
-0.0921153
0.0487003
-0.0944085
0.0499072
-0.0968104
0.0510864
-0.0993311
0.0522426
-0.101972
0.0533783
-0.104732
0.0544959
-0.107613
0.0555988
-0.110616
0.0566911
-0.113746
0.0577766
-0.117009
0.0588575
-0.120404
0.0599278
-0.123927
-0.127538
0.0609753
0.00163079
-0.0045835
0.00626596
-0.0189805
0.0129301
-0.0363858
0.0199432
-0.0528757
0.0259648
-0.0658181
0.0304708
-0.0747136
0.0335727
-0.080389
0.0356578
-0.0840268
0.0371224
-0.0866133
0.038253
-0.0887801
0.0392156
-0.0908578
0.0400908
-0.0929906
0.0409132
-0.0952309
0.0416963
-0.0975936
0.0424459
-0.100081
0.0431651
-0.102691
0.043857
-0.105424
0.0445246
-0.10828
0.0451717
-0.111263
0.0458019
-0.114376
0.0464184
-0.117625
0.0470237
-0.121009
0.0476129
-0.124516
0.0481891
-0.128114
-0.000825561
0.000861519
-3.5958e-05
-0.00264894
0.00211947
-0.000296098
-0.00510807
0.00310106
-0.000641928
-0.00798487
0.00390615
-0.00102935
-0.0111602
0.00462649
-0.00145117
-0.014581
0.00533693
-0.00191609
-0.0182308
0.00608429
-0.0024345
-0.0221078
0.00689085
-0.00301384
-0.0262127
0.00776427
-0.00365941
-0.0305434
0.0087056
-0.00437494
-0.0350983
0.00971366
-0.00515867
-0.0398698
0.0107869
-0.00601538
-0.0448448
0.0119228
-0.00694784
-0.050006
0.0131179
-0.00795678
-0.0553313
0.0143672
-0.0090419
-0.0607934
0.015664
-0.0102019
-0.0663594
0.0169999
-0.0114339
-0.0719908
0.0183644
-0.012733
-0.0776429
0.0197455
-0.0140935
-0.0832655
0.0211274
-0.0155047
-0.0887999
0.0224885
-0.0169541
-0.0941782
0.0238091
-0.0184308
-0.0993419
0.0250869
-0.0199232
0.0263423
-0.104266
-0.021418
-0.000713897
0.00157542
-0.00232537
0.00373095
-0.004529
0.00530469
-0.00712609
0.00650324
-0.00999472
0.00749513
-0.0130684
0.00841057
-0.0163142
0.00933015
-0.0197152
0.0102918
-0.0232582
0.0113073
-0.0269286
0.012376
-0.030708
0.013493
-0.034573
0.0146519
-0.0384952
0.015845
-0.0424405
0.0170633
-0.0463694
0.0182961
-0.0502365
0.0195311
-0.0539902
0.0207536
-0.0575726
0.0219468
-0.0609191
0.023092
-0.0639606
0.0241688
-0.0666258
0.0251537
-0.0688313
0.0260147
-0.0704542
0.0267097
0.0273138
-0.0714257
-0.000525044
0.00210046
-0.00177314
0.00497904
-0.00353576
0.00706731
-0.00565273
0.00862022
-0.00800485
0.00984724
-0.0105097
0.0109155
-0.0131133
0.0119337
-0.0157783
0.0129568
-0.0184746
0.0140036
-0.0211725
0.0150739
-0.0238393
0.0161598
-0.0264374
0.01725
-0.0289245
0.018332
-0.0312527
0.0193914
-0.0333686
0.0204121
-0.0352134
0.0213759
-0.0367225
0.0222626
-0.0378253
0.0230497
-0.0384451
0.0237118
-0.0384981
0.0242219
-0.037896
0.0245516
-0.0365702
0.0246889
-0.0344682
0.0246077
0.0240701
-0.0312245
-0.000296692
0.00239715
-0.00108802
0.00577037
-0.00228166
0.00826095
-0.00377222
0.0101108
-0.00545416
0.0115292
-0.00723418
0.0126955
-0.00903701
0.0137365
-0.0108036
0.0147235
-0.0124853
0.0156853
-0.0140374
0.016626
-0.0154145
0.0175369
-0.0165685
0.018404
-0.0174471
0.0192106
-0.0179939
0.0199383
-0.0181483
0.0205664
-0.017845
0.0210726
-0.0170147
0.0214323
-0.0155848
0.0216198
-0.0134783
0.0216053
-0.0106165
0.02136
-0.00692005
0.0208551
-0.00226368
0.0200325
0.00338017
0.0189638
0.0173752
0.010075
-7.03867e-05
0.00246754
-0.000381578
0.00608156
-0.000952071
0.00883144
-0.00173846
0.0108972
-0.00266198
0.0124527
-0.00363006
0.0136636
-0.004553
0.0146595
-0.00535239
0.0155228
-0.0059613
0.0162942
-0.0063205
0.0169852
-0.006374
0.0175904
-0.00606585
0.0180959
-0.00533853
0.0184833
-0.00413223
0.018732
-0.00238496
0.0188192
-3.31872e-05
0.0187209
0.00298797
0.0184111
0.00674665
0.0178611
0.0113028
0.0170492
0.0167463
0.0159165
0.0230723
0.0145291
0.0305147
0.0125901
0.0388032
0.0106753
0.00744985
0.0487286
0.000117172
0.00235037
0.000236312
0.00596242
0.000260616
0.00880714
0.000174682
0.0109831
2.18891e-05
0.0126055
-0.000119349
0.0138048
-0.000157568
0.0146977
-3.37837e-06
0.0153686
0.000423715
0.0158672
0.00119501
0.0162139
0.00237498
0.0164104
0.00402412
0.0164467
0.00620087
0.0163066
0.00896255
0.0159703
0.0123656
0.0154161
0.0164659
0.0146206
0.0213151
0.0135619
0.026977
0.0121992
0.0334676
0.0105586
0.040934
0.00845017
0.0492245
0.00623862
0.0587902
0.00302441
0.0689553
0.000510169
-0.00466956
0.0810747
0.000241194
0.00210917
0.000681754
0.00552186
0.00118767
0.00830123
0.00170706
0.0104637
0.00224909
0.0120635
0.00286774
0.0131861
0.00364214
0.0139233
0.0046594
0.0143514
0.00600363
0.0145229
0.00775099
0.0144666
0.00996916
0.0141923
0.0127186
0.0136973
0.0160542
0.012971
0.0200269
0.0119975
0.0246849
0.0107581
0.0300769
0.00922867
0.0362442
0.00739461
0.0432688
0.00517458
0.0511326
0.00269479
0.0600674
-0.000484632
0.0698311
-0.0035251
0.0811893
-0.00833381
0.093146
-0.0114465
-0.0189008
0.107377
0.000291587
0.00181758
0.000905462
0.00490798
0.00171566
0.00749103
0.00266004
0.00951933
0.00372608
0.0109974
0.00494293
0.0119693
0.00636842
0.0124978
0.00807474
0.0126451
0.010137
0.0124607
0.0126263
0.0119773
0.0156072
0.0112113
0.0191385
0.010166
0.0232758
0.00883366
0.0280759
0.00719744
0.0336029
0.00523109
0.0399302
0.00290133
0.0471152
0.000209637
0.0553477
-0.00305789
0.0646745
-0.00663208
0.0753575
-0.0111675
0.0872317
-0.0153994
0.100945
-0.0220471
0.115647
-0.0261488
-0.035988
0.132735
0.000271467
0.00154612
0.000901666
0.00427779
0.00180737
0.00658533
0.00294226
0.00838444
0.00428929
0.00965039
0.00586083
0.0103978
0.00769384
0.0106648
0.00984179
0.0104971
0.0123671
0.00993538
0.0153367
0.00900766
0.0188219
0.00772613
0.0229017
0.00608621
0.0276692
0.00406615
0.0332315
0.00163515
0.0397326
-0.00127001
0.0473309
-0.00469701
0.0562156
-0.00867508
0.0664823
-0.0133246
0.0783404
-0.0184902
0.0917819
-0.024609
0.106995
-0.030612
0.123631
-0.0386839
0.141828
-0.0443459
-0.055333
0.161173
0.000193794
0.00135232
0.000704674
0.00376691
0.00151336
0.00577664
0.00260813
0.00728967
0.00398479
0.00827373
0.00565461
0.00872794
0.00764859
0.0086708
0.0100184
0.0081273
0.0128372
0.00711658
0.016202
0.00564289
0.0202375
0.0036906
0.0250958
0.00122787
0.0309652
-0.00180318
0.0380461
-0.00544578
0.0465223
-0.00974617
0.0565676
-0.0147423
0.0682872
-0.0203947
0.0817006
-0.026738
0.0967855
-0.0335751
0.113208
-0.0410316
0.131099
-0.0485033
0.14923
-0.0568141
0.168566
-0.0636828
-0.0733112
0.186545
8.06066e-05
0.00127172
0.000387326
0.00346019
0.000975519
0.00518845
0.00188056
0.00638463
0.00313066
0.00702363
0.00476369
0.0070949
0.00684124
0.00659324
0.00945964
0.0055089
0.0127571
0.00381908
0.0169135
0.00148654
0.0221453
-0.00154119
0.0286839
-0.00531073
0.0367356
-0.0098549
0.046462
-0.0151721
0.0579278
-0.021212
0.0710947
-0.0279092
0.0857832
-0.0350832
0.101729
-0.0426837
0.118503
-0.0503494
0.135656
-0.0581839
0.152769
-0.0656167
0.168994
-0.0730388
0.18478
-0.0794696
-0.0860606
0.19753
-3.5632e-05
6.11923e-05
0.000421802
0.001144
0.0023145
0.00403806
0.00645589
0.00975622
0.0141718
0.0199479
0.0273132
0.0364272
0.047335
0.0599429
0.0740127
0.0891629
0.104925
0.120739
0.136044
0.150339
0.163076
0.174194
0.18349
0.1918
-0.105034
0.031807
-0.0310395
-0.104469
0.0325849
-0.0331498
-0.102797
0.0329786
-0.0346507
-0.0996343
0.0326529
-0.0358152
-0.0951487
0.0315891
-0.0360747
-0.0891565
0.0297287
-0.0357208
-0.0817521
0.0268201
-0.0342245
-0.0728694
0.0229567
-0.0318394
-0.0626292
0.0179139
-0.0281541
-0.0510264
0.0117368
-0.0233396
-0.0382443
0.00431229
-0.0170943
-0.024377
-0.00441152
-0.00945581
-0.00964153
-0.0146487
-8.6828e-05
0.00611592
-0.0265136
0.0107562
0.0226909
-0.0401994
0.0236245
0.0400518
-0.0555841
0.0382231
0.0579785
-0.0722147
0.054288
0.0758854
-0.0884747
0.0705678
0.0928142
-0.10177
0.0848411
0.10773
-0.109793
0.0948772
0.11992
-0.111564
0.0993747
0.129296
-0.1078
0.0984234
0.136342
-0.100362
0.0933162
0.141728
-0.091026
0.0856403
0.146034
-0.0813087
0.0770023
0.149683
-0.0719281
0.0682798
0.152926
-0.0634839
0.0602409
0.155858
-0.0558041
0.052872
0.158494
-0.049338
0.0467015
0.160829
-0.0435588
0.041224
0.162883
-0.0391116
0.0370574
0.164697
-0.0350993
0.0332852
0.16633
-0.0324964
0.0308639
0.167832
-0.0300065
0.028504
0.169224
-0.0289397
0.027548
0.170505
-0.0276079
0.0263266
0.171649
-0.0276599
0.0265161
0.172641
-0.0270306
0.0260387
0.173446
-0.0276305
0.0268261
0.174057
-0.027113
0.0265016
0.174476
-0.0278633
0.0274443
0.174733
-0.027019
0.0267622
0.174857
-0.027632
0.0275082
0.17489
-0.0261299
0.0260969
0.174894
-0.0267733
0.0267695
0.174947
-0.0249066
0.0248527
0.175101
-0.0256115
0.0254581
0.175365
-0.0229774
0.0227131
0.175687
-0.0230122
0.02269
0.175999
-0.0191216
0.0188097
0.17624
-0.0186302
0.0183893
0.176368
-0.0137344
0.0136066
0.176376
-0.0132397
0.0132315
0.176265
-0.00756701
0.00767788
0.176052
-0.00710351
0.00731702
0.175744
-0.000600404
0.000908445
0.175367
-0.000170845
0.000547972
0.174923
0.00743901
-0.00699586
0.174437
0.00785762
-0.00737151
0.0168739
-0.0163339
-0.0705832
0.0309646
-0.068458
0.0304597
-0.0651703
0.0296909
-0.0606728
0.0281554
-0.0550236
0.0259399
-0.0481906
0.0228957
-0.0402295
0.0188589
-0.0311199
0.0138472
-0.0209861
0.00778005
-0.00972064
0.000471378
0.00211411
-0.00752246
0.0145998
-0.0168973
0.0278686
-0.0279174
0.0419337
-0.0405788
0.0567383
-0.055004
0.072148
-0.0709939
0.0877756
-0.0878422
0.102772
-0.103471
0.11598
-0.114978
0.126535
-0.120349
0.134294
-0.119323
0.139709
-0.113215
0.143524
-0.104177
0.146477
-0.0939797
0.14909
-0.0839208
0.151643
-0.0744819
0.154246
-0.0660864
0.156906
-0.0584646
0.159573
-0.0520044
0.162161
-0.0461469
0.164595
-0.0415459
0.166814
-0.037318
0.168791
-0.0344735
0.170524
-0.0317401
0.172019
-0.0304341
0.173281
-0.0288702
0.174315
-0.0286935
0.175138
-0.0278536
0.17575
-0.028243
0.176164
-0.0275272
0.176398
-0.0280973
0.176486
-0.0271068
0.176458
-0.0276041
0.176339
-0.0260109
0.176175
-0.0266091
0.176031
-0.0247627
0.175966
-0.0255465
0.176007
-0.0230189
0.176129
-0.0231338
0.176276
-0.0192689
0.1764
-0.018754
0.176453
-0.013787
0.176425
-0.0132117
0.176302
-0.007444
0.176097
-0.00689859
0.175804
-0.000307838
0.175451
0.000182543
0.175029
0.00786086
0.174567
0.00831983
0.0173957
-0.0293479
0.029088
-0.0265763
0.0276881
-0.0226892
0.0258038
-0.017869
0.0233352
-0.0120676
0.0201385
-0.00534777
0.0161758
0.00212503
0.0113861
0.0103752
0.00559696
0.0194333
-0.00127805
0.0288901
-0.00898535
0.0391616
-0.017794
0.0501353
-0.0278709
0.0617512
-0.0395333
0.0740654
-0.052893
0.0869932
-0.0679318
0.100255
-0.0842553
0.113178
-0.100765
0.124635
-0.114928
0.133507
-0.12385
0.139399
-0.126241
0.142798
-0.122722
0.144647
-0.115064
0.145865
-0.105395
0.147083
-0.0951978
0.148618
-0.0854558
0.150551
-0.0764147
0.15282
-0.0683553
0.155324
-0.0609685
0.157966
-0.054647
0.160644
-0.0488249
0.163265
-0.044167
0.165742
-0.0397948
0.16801
-0.0367417
0.170027
-0.033757
0.171768
-0.0321754
0.173223
-0.0303244
0.174395
-0.0298661
0.175312
-0.0287703
0.175994
-0.0289249
0.176461
-0.0279948
0.176747
-0.0283826
0.176885
-0.0272456
0.176912
-0.0276304
0.176833
-0.0259323
0.176679
-0.0264551
0.176495
-0.024579
0.176345
-0.0253957
0.176266
-0.0229399
0.176261
-0.0231286
0.176293
-0.0193017
0.176333
-0.0187942
0.176335
-0.0137882
0.17629
-0.0131674
0.176175
-0.00732881
0.176
-0.00672373
0.175748
-5.55914e-05
0.175445
0.000486035
0.175073
0.00823254
0.174665
0.00872772
0.0178673
0.0127259
0.0264371
0.0158985
0.0245156
0.019716
0.0219862
0.0241587
0.0188925
0.0292419
0.0150553
0.0350069
0.0104109
0.0413914
0.00500154
0.0484169
-0.00142851
0.0558476
-0.00870877
0.0638785
-0.0170163
0.0725199
-0.0264353
0.0818158
-0.0371668
0.0917567
-0.0494742
0.102297
-0.0634331
0.113218
-0.0788533
0.124001
-0.095038
0.133646
-0.11041
0.140943
-0.122225
0.145154
-0.128061
0.14659
-0.127677
0.146352
-0.122483
0.145624
-0.114336
0.145231
-0.105002
0.145545
-0.0955109
0.146599
-0.0865101
0.148274
-0.0780898
0.150424
-0.070505
0.152872
-0.0634172
0.155489
-0.0572636
0.158167
-0.051503
0.160819
-0.046819
0.163366
-0.0423419
0.165745
-0.039121
0.167906
-0.0359177
0.169813
-0.0340826
0.171441
-0.0319527
0.172789
-0.0312141
0.173875
-0.0298558
0.174724
-0.0297738
0.175354
-0.028625
0.175803
-0.0288318
0.176105
-0.0275472
0.176297
-0.0278224
0.176374
-0.0260095
0.176352
-0.0264326
0.176252
-0.0244796
0.176136
-0.0252793
0.176045
-0.0228486
0.176003
-0.0230872
0.175992
-0.0192909
0.176002
-0.0188037
0.175991
-0.0137775
0.175961
-0.0131374
0.175881
-0.007248
0.175761
-0.00660385
0.175574
0.000130631
0.175348
0.000712702
0.175055
0.00852526
0.174732
0.00905116
0.0182566
0.051648
0.0235177
0.0549733
0.0211903
0.0586033
0.0183562
0.062571
0.0149248
0.0669179
0.0107084
0.07168
0.00564878
0.0769073
-0.000225817
0.0824886
-0.00700983
0.0885438
-0.014764
0.0951063
-0.0235788
0.102255
-0.0335844
0.110018
-0.0449292
0.11832
-0.0577762
0.126927
-0.0720404
0.135381
-0.0873072
0.142963
-0.10262
0.148518
-0.115965
0.151142
-0.124849
0.150845
-0.127764
0.148656
-0.125489
0.145996
-0.119823
0.143933
-0.112274
0.142948
-0.104016
0.143074
-0.0956373
0.144111
-0.0875462
0.145798
-0.0797777
0.147938
-0.0726449
0.150374
-0.0658528
0.152957
-0.0598465
0.155591
-0.0541369
0.1582
-0.0494283
0.160719
-0.0448604
0.163094
-0.0414967
0.165282
-0.038105
0.167249
-0.03605
0.168968
-0.0336714
0.170433
-0.0326793
0.171653
-0.0310757
0.172652
-0.0307725
0.173441
-0.0294146
0.174059
-0.0294499
0.174535
-0.0280224
0.174908
-0.0281964
0.175169
-0.02627
0.175322
-0.0265858
0.175369
-0.0245266
0.175362
-0.0252722
0.175338
-0.0228249
0.175338
-0.0230866
0.175352
-0.0193048
0.175387
-0.0188394
0.175411
-0.0138007
0.175431
-0.0131581
0.175415
-0.00723212
0.175378
-0.00656653
0.175284
0.000224348
0.175162
0.000835246
0.174977
0.00871026
0.174767
0.00926042
0.0185321
0.0842676
0.0203248
0.0876447
0.0178132
0.091125
0.0148759
0.0946954
0.0113544
0.0984396
0.00696427
0.102395
0.00169342
0.106663
-0.0044938
0.111244
-0.0115907
0.116224
-0.0197437
0.121678
-0.0290334
0.127651
-0.0395575
0.134106
-0.0513845
0.140818
-0.0644875
0.147343
-0.0785659
0.152928
-0.0928916
0.156568
-0.106261
0.157354
-0.116751
0.15537
-0.122864
0.151491
-0.123886
0.1471
-0.121098
0.143424
-0.116146
0.14108
-0.109929
0.140128
-0.103065
0.140355
-0.0958637
0.141467
-0.0886588
0.143186
-0.0814962
0.145307
-0.0747659
0.1477
-0.0682462
0.150246
-0.0623922
0.152836
-0.0567274
0.155404
-0.0519958
0.157888
-0.0473446
0.160243
-0.0438515
0.162427
-0.0402892
0.164415
-0.0380383
0.166182
-0.0354381
0.167722
-0.0342197
0.169038
-0.0323915
0.170152
-0.0318866
0.171072
-0.0303346
0.171833
-0.0302109
0.172459
-0.0286479
0.172993
-0.0287308
0.173423
-0.0266999
0.173751
-0.0269141
0.173962
-0.0247379
0.1741
-0.0254093
0.174191
-0.0229165
0.174285
-0.0231802
0.174378
-0.0193977
0.174489
-0.018951
0.17459
-0.0139015
0.174698
-0.0132662
0.174779
-0.0073133
0.174853
-0.00664011
0.174879
0.00019793
0.174888
0.000826579
0.174839
0.00875902
0.174773
0.00932631
0.0186626
0.11064
0.0170621
0.113994
0.014459
0.117355
0.0115148
0.120688
0.00802178
0.12408
0.00357195
0.127717
-0.00194307
0.131441
-0.00821864
0.135421
-0.0155706
0.139696
-0.0240181
0.144289
-0.0336263
0.149132
-0.0444011
0.154041
-0.0562928
0.158604
-0.0690512
0.162225
-0.0821866
0.16412
-0.0947867
0.163487
-0.105628
0.160063
-0.113327
0.154558
-0.117359
0.148635
-0.117963
0.143521
-0.115984
0.139854
-0.112479
0.137739
-0.107814
0.136974
-0.102301
0.137275
-0.0961639
0.138378
-0.0897623
0.140052
-0.08317
0.142115
-0.0768284
0.144441
-0.0705725
0.146946
-0.064897
0.149517
-0.0592989
0.152076
-0.0545546
0.154564
-0.0498327
0.156936
-0.046223
0.159148
-0.0425018
0.16118
-0.04007
0.163007
-0.0372655
0.164628
-0.03584
0.166039
-0.0338028
0.167264
-0.0331117
0.168308
-0.0313787
0.169204
-0.0311071
0.169971
-0.0294142
0.170653
-0.029413
0.17124
-0.0272871
0.171737
-0.0274105
0.172117
-0.0251179
0.172415
-0.0257074
0.172651
-0.0231523
0.172875
-0.0234046
0.173088
-0.0196103
0.173316
-0.0191793
0.173533
-0.0141191
0.173764
-0.0134967
0.173974
-0.00752358
0.174187
-0.00685319
0.174362
2.33998e-05
0.174529
0.00065975
0.174644
0.00864329
0.17475
0.0092203
0.0186173
0.135434
0.014363
0.138377
0.0115161
0.141308
0.00858315
0.144249
0.00508129
0.147218
0.00060252
0.150337
-0.00506153
0.153527
-0.0114091
0.156803
-0.0188468
0.160137
-0.0273515
0.163434
-0.0369234
0.166502
-0.0474693
0.169018
-0.0588085
0.170511
-0.0705439
0.170404
-0.0820799
0.168189
-0.0925719
0.163628
-0.101067
0.157312
-0.107011
0.150285
-0.110332
0.143953
-0.11163
0.139091
-0.111123
0.135818
-0.109206
0.133957
-0.105953
0.133267
-0.101611
0.133525
-0.0964218
0.134537
-0.0907751
0.136126
-0.084759
0.138125
-0.0788268
0.140404
-0.0728517
0.142875
-0.0673685
0.145452
-0.0618756
0.148032
-0.0571349
0.150555
-0.0523556
0.152978
-0.0486455
0.155256
-0.0447796
0.157367
-0.0421813
0.159288
-0.0391867
0.161016
-0.0375681
0.162546
-0.035333
0.163902
-0.0344672
0.165087
-0.0325638
0.166132
-0.0321526
0.167051
-0.0303328
0.167889
-0.030251
0.168639
-0.0280368
0.169308
-0.0280799
0.169866
-0.0256762
0.170342
-0.0261826
0.170746
-0.0235563
0.17113
-0.023789
0.171496
-0.0199764
0.171876
-0.0195591
0.172245
-0.0144885
0.172631
-0.0138826
0.173002
-0.00789432
0.173383
-0.00723435
0.173734
-0.000327534
0.174086
0.000307977
0.174394
0.00833509
0.1747
0.00891454
0.0183663
0.16252
0.0130162
0.164332
0.00970473
0.166068
0.00684651
0.167819
0.00333029
0.169765
-0.00134324
0.171598
-0.00689483
0.173415
-0.0132255
0.175093
-0.0205252
0.176511
-0.0287697
0.177482
-0.037894
0.177755
-0.0477427
0.176999
-0.0580525
0.174864
-0.0684085
0.171046
-0.0782622
0.165514
-0.0870398
0.158641
-0.0941938
0.151326
-0.0996955
0.144462
-0.103468
0.138649
-0.105818
0.134276
-0.106749
0.131297
-0.106227
0.129533
-0.10419
0.128811
-0.100888
0.128983
-0.0965938
0.129903
-0.0916951
0.131417
-0.0862728
0.133373
-0.0807832
0.13563
-0.0751086
0.13809
-0.069828
0.140674
-0.0644602
0.143296
-0.0597567
0.145873
-0.0549327
0.148364
-0.0511358
0.150724
-0.0471402
0.152935
-0.0443925
0.154973
-0.041224
0.156832
-0.0394271
0.158504
-0.0370057
0.160013
-0.0359758
0.161361
-0.0339117
0.162577
-0.0333684
0.163668
-0.0314239
0.16468
-0.0312632
0.165609
-0.0289655
0.166466
-0.0289372
0.167219
-0.0264296
0.167891
-0.0268547
0.168489
-0.0241535
0.169061
-0.0243614
0.169612
-0.0205272
0.170175
-0.0201222
0.170729
-0.0150426
0.171302
-0.0144551
0.171864
-0.0084566
0.172441
-0.00781172
0.172998
-0.000884224
0.173561
-0.000255164
0.17409
0.00780666
0.174622
0.00838183
0.0178803
0.186581
0.0129796
0.186882
0.00940399
0.187016
0.00671282
0.187179
0.00316695
0.187273
-0.00143705
0.187191
-0.00681333
0.186875
-0.0129089
0.186216
-0.0198662
0.185042
-0.0275963
0.183168
-0.0360198
0.180399
-0.0449737
0.176545
-0.0541982
0.171502
-0.0633658
0.165322
-0.0720825
0.158326
-0.0800438
0.15109
-0.0869574
0.144234
-0.0928393
0.138173
-0.0974075
0.132989
-0.100634
0.128946
-0.102706
0.126081
-0.103363
0.124326
-0.102435
0.123564
-0.100127
0.123678
-0.0967075
0.12454
-0.0925568
0.126003
-0.0877367
0.127931
-0.0827112
0.130181
-0.0773586
0.132644
-0.0722903
0.135229
-0.0670454
0.137894
-0.0624215
0.14055
-0.0575887
0.143137
-0.0537229
0.145603
-0.0496066
0.147932
-0.0467216
0.150101
-0.0433929
0.152106
-0.0414319
0.153936
-0.038836
0.155614
-0.0376536
0.157141
-0.0354386
0.158544
-0.0347712
0.159825
-0.0327052
0.16103
-0.0324679
0.162156
-0.0300913
0.163218
-0.0299996
0.164185
-0.0273964
0.165074
-0.0277442
0.165889
-0.0249685
0.166677
-0.025149
0.167442
-0.0212922
0.168218
-0.0208987
0.168988
-0.0158126
0.169778
-0.0152447
0.170562
-0.00924083
0.171364
-0.00861395
0.172155
-0.00167451
0.172957
-0.00105748
0.173733
0.00703068
0.174519
0.0075955
0.0171306
0.197409
0.0131
0.196664
0.0101491
0.195619
0.0077579
0.194451
0.00433556
0.19285
0.000163613
0.191113
-0.00507616
0.188923
-0.0107192
0.186228
-0.0171713
0.182922
-0.0242899
0.178926
-0.0320239
0.174182
-0.0402302
0.168681
-0.0486968
0.162512
-0.0571969
0.155888
-0.0654584
0.149136
-0.0732916
0.142609
-0.080431
0.136521
-0.0867508
0.131033
-0.0919192
0.126342
-0.0959426
0.122594
-0.098958
0.119845
-0.100613
0.118113
-0.100703
0.117341
-0.099354
0.117435
-0.0968015
0.118278
-0.0934004
0.119734
-0.089192
0.121668
-0.0846459
0.123945
-0.0796356
0.126455
-0.0748
0.129103
-0.0696929
0.13183
-0.0651487
0.134576
-0.0603347
0.137288
-0.0564349
0.139895
-0.0522134
0.142373
-0.0492002
0.1447
-0.0457198
0.146872
-0.0436041
0.148879
-0.0408426
0.150742
-0.0395168
0.152463
-0.0371594
0.154067
-0.0363754
0.155553
-0.0341915
0.156966
-0.0338807
0.158305
-0.03143
0.159588
-0.0312822
0.160784
-0.028593
0.161909
-0.0288691
0.162964
-0.0260231
0.163991
-0.026176
0.164997
-0.0222982
0.166014
-0.0219157
0.167028
-0.016827
0.168063
-0.0162793
0.169098
-0.0102762
0.170153
-0.00966886
0.171205
-0.00272649
0.172273
-0.00212588
0.173324
0.0059797
0.17439
0.00652934
0.0160887
0.19177
0.0131294
0.190759
0.0111601
0.189633
0.00888474
0.188242
0.00572657
0.18664
0.00176545
0.184305
-0.00274172
0.181526
-0.00794037
0.178186
-0.013831
0.174258
-0.0203621
0.169721
-0.0274868
0.164601
-0.0351105
0.158985
-0.0430803
0.15302
-0.0512316
0.146907
-0.0593462
0.140862
-0.0672466
0.135095
-0.074664
0.129744
-0.0813993
0.12499
-0.0871656
0.120883
-0.0918353
0.11735
-0.0954256
0.11443
-0.0976931
0.112302
-0.0985755
0.111248
-0.0983003
0.111144
-0.0966966
0.111843
-0.0940997
0.113201
-0.0905498
0.115083
-0.0865279
0.117346
-0.0818993
0.119879
-0.0773325
0.122573
-0.0723875
0.125371
-0.0679463
0.128197
-0.0631603
0.130995
-0.0592338
0.133715
-0.0549329
0.136332
-0.0518169
0.138818
-0.0482059
0.141165
-0.0459519
0.143361
-0.043038
0.145423
-0.0415791
0.147353
-0.0390888
0.149172
-0.0381953
0.150879
-0.0358984
0.152516
-0.0355171
0.154083
-0.0329976
0.155601
-0.0327999
0.157043
-0.0300351
0.158419
-0.0302454
0.159733
-0.0273369
0.16102
-0.0274632
0.162291
-0.0235691
0.163573
-0.0231972
0.164857
-0.0181116
0.166162
-0.0175843
0.167476
-0.0115897
0.16881
-0.0110028
0.170151
-0.00406749
0.17151
-0.00348515
0.172864
0.00462609
0.174235
0.00515791
0.0147271
0.198822
0.0128576
-0.19855
0.199747
0.0102346
0.200821
0.00781126
0.201847
0.00470087
0.202588
0.0010239
0.203243
-0.00339661
0.203674
-0.00837156
0.203778
-0.0139352
0.203493
-0.0200763
0.202745
-0.026739
0.201479
-0.0338442
0.199676
-0.0412775
0.19735
-0.0489058
0.194544
-0.05654
0.191299
-0.064002
0.187691
-0.0710554
0.183786
-0.0774945
0.179728
-0.0831076
0.175602
-0.0877098
0.17145
-0.0912729
0.167438
-0.0936818
0.163664
-0.0948012
0.160205
-0.0948416
0.157196
-0.0936868
0.15468
-0.0915842
0.152676
-0.0885452
0.151174
-0.0850266
0.150143
-0.0808676
0.149526
-0.0767163
0.149268
-0.0721296
0.149304
-0.0679818
0.149584
-0.0634403
0.150054
-0.0597041
0.150666
-0.0555445
0.151365
-0.0525164
0.152108
-0.0489486
0.152857
-0.0467013
0.153578
-0.0437591
0.154253
-0.042254
0.15487
-0.0397052
0.155424
-0.03875
0.155912
-0.036386
0.156337
-0.0359421
0.156708
-0.0333682
0.157033
-0.0331253
0.157304
-0.0303064
0.157516
-0.0304568
0.157659
-0.0274805
0.15775
-0.0275542
0.157808
-0.0236266
0.157854
-0.0232437
0.157904
-0.018161
0.157966
-0.0176471
0.158043
-0.0116659
0.158135
-0.0110953
0.158243
-0.00417497
0.158365
-0.00360725
0.158491
0.00449996
0.158634
0.00501489
0.0145797
0.209007
0.0125746
-0.208724
0.209443
0.00979914
0.210292
0.00696196
0.211141
0.00385247
0.211918
0.000246069
0.212468
-0.00394636
0.212791
-0.00869471
0.212815
-0.0139591
0.212471
-0.0197318
0.211697
-0.0259649
0.210447
-0.0325941
0.208695
-0.0395259
0.206436
-0.0466467
0.203691
-0.0537954
0.200492
-0.060803
0.196906
-0.0674692
0.193013
-0.0736019
0.188926
-0.0790205
0.184777
-0.08356
0.180636
-0.0871323
0.176656
-0.0897022
0.172969
-0.0911138
0.169627
-0.0914995
0.166719
-0.0907788
0.164289
-0.089154
0.162339
-0.0865956
0.160858
-0.0835451
0.159813
-0.0798226
0.159156
-0.0760599
0.158838
-0.0718112
0.158806
-0.06795
0.159016
-0.0636506
0.159418
-0.0601061
0.159965
-0.0560906
0.160606
-0.0531582
0.161301
-0.0496437