/*--------------------------------*- C++ -*----------------------------------*\
| =========                 |                                                 |
| \\      /  F ield         | OpenFOAM: The Open Source CFD Toolbox           |
|  \\    /   O peration     | Version:  2512                                  |
|   \\  /    A nd           | Website:  www.openfoam.com                      |
|    \\/     M anipulation  |                                                 |
\*---------------------------------------------------------------------------*/
FoamFile
{
    version     2.0;
    format      ascii;
    arch        "LSB;label=32;scalar=64";
    class       volVectorField;
    location    "8.5";
    object      U;
}
// * * * * * * * * * * * * * * * * * * * * * * * * * * * * * * * * * * * * * //

dimensions      [0 1 -1 0 0 0 0];

internalField   nonuniform List<vector> 
9800
(
(1 -2.69786e-05 0)
(1.00011 -8.3389e-05 0)
(1.00032 -0.000142644 0)
(1.00064 -0.000202273 0)
(1.00105 -0.000259291 0)
(1.00154 -0.000316089 0)
(1.0021 -0.000370923 0)
(1.00273 -0.000418954 0)
(1.00341 -0.000463646 0)
(1.00412 -0.000505838 0)
(1.00487 -0.000542814 0)
(1.00564 -0.000575814 0)
(1.00642 -0.000606284 0)
(1.00722 -0.00063407 0)
(1.00802 -0.000659078 0)
(1.00882 -0.000682604 0)
(1.00962 -0.000704721 0)
(1.01042 -0.000723779 0)
(1.0112 -0.000740071 0)
(1.01198 -0.000754474 0)
(1.01274 -0.000766641 0)
(1.01348 -0.000776628 0)
(1.01421 -0.000784905 0)
(1.01492 -0.000791467 0)
(1.01562 -0.000796158 0)
(1.01629 -0.000798903 0)
(1.01693 -0.000799603 0)
(1.01756 -0.000798268 0)
(1.01816 -0.000795048 0)
(1.01874 -0.000790032 0)
(1.0193 -0.000783278 0)
(1.01983 -0.000774938 0)
(1.02033 -0.000765301 0)
(1.02082 -0.000754643 0)
(1.02128 -0.000743119 0)
(1.02171 -0.000730808 0)
(1.02212 -0.000717812 0)
(1.02252 -0.000704203 0)
(1.02289 -0.000690069 0)
(1.02324 -0.000675533 0)
(1 -8.01079e-05 0)
(1.00011 -0.000246764 0)
(1.00032 -0.000421215 0)
(1.00064 -0.000598762 0)
(1.00104 -0.000770451 0)
(1.00153 -0.000938079 0)
(1.0021 -0.00109724 0)
(1.00272 -0.00124248 0)
(1.0034 -0.0013768 0)
(1.00412 -0.00149876 0)
(1.00487 -0.00160948 0)
(1.00564 -0.00171174 0)
(1.00643 -0.00180326 0)
(1.00723 -0.0018859 0)
(1.00804 -0.00196219 0)
(1.00885 -0.00203148 0)
(1.00965 -0.00209441 0)
(1.01046 -0.00215112 0)
(1.01125 -0.00220101 0)
(1.01203 -0.00224407 0)
(1.0128 -0.00228096 0)
(1.01356 -0.00231253 0)
(1.0143 -0.00233862 0)
(1.01502 -0.00235883 0)
(1.01572 -0.00237312 0)
(1.0164 -0.00238128 0)
(1.01706 -0.00238336 0)
(1.0177 -0.00237976 0)
(1.01831 -0.00237061 0)
(1.0189 -0.00235606 0)
(1.01947 -0.0023367 0)
(1.02001 -0.00231293 0)
(1.02052 -0.00228502 0)
(1.02101 -0.00225341 0)
(1.02148 -0.00221873 0)
(1.02192 -0.00218142 0)
(1.02234 -0.00214181 0)
(1.02274 -0.00210025 0)
(1.02311 -0.00205715 0)
(1.02347 -0.00201288 0)
(1 -0.000130281 0)
(1.00011 -0.00040539 0)
(1.00032 -0.000688408 0)
(1.00063 -0.000976161 0)
(1.00103 -0.0012625 0)
(1.00152 -0.00153804 0)
(1.00209 -0.00179641 0)
(1.00272 -0.00203873 0)
(1.00339 -0.00226138 0)
(1.00411 -0.00246162 0)
(1.00487 -0.00264484 0)
(1.00564 -0.00281381 0)
(1.00644 -0.00296676 0)
(1.00725 -0.00310567 0)
(1.00807 -0.00323365 0)
(1.00889 -0.00334961 0)
(1.00971 -0.00345405 0)
(1.01053 -0.00354853 0)
(1.01134 -0.00363284 0)
(1.01214 -0.00370709 0)
(1.01293 -0.0037714 0)
(1.0137 -0.0038261 0)
(1.01446 -0.00387113 0)
(1.0152 -0.0039059 0)
(1.01592 -0.00393035 0)
(1.01663 -0.00394455 0)
(1.01731 -0.00394873 0)
(1.01796 -0.00394331 0)
(1.01859 -0.00392863 0)
(1.0192 -0.00390506 0)
(1.01978 -0.00387337 0)
(1.02034 -0.0038342 0)
(1.02087 -0.00378796 0)
(1.02138 -0.00373529 0)
(1.02186 -0.00367712 0)
(1.02232 -0.00361427 0)
(1.02275 -0.00354743 0)
(1.02316 -0.00347728 0)
(1.02355 -0.00340457 0)
(1.02391 -0.0033299 0)
(1 -0.00017752 0)
(1.0001 -0.00055597 0)
(1.00031 -0.000944734 0)
(1.00062 -0.00133797 0)
(1.00102 -0.00173365 0)
(1.00151 -0.00211468 0)
(1.00207 -0.00247246 0)
(1.0027 -0.00280712 0)
(1.00338 -0.00311433 0)
(1.0041 -0.0033948 0)
(1.00486 -0.00365175 0)
(1.00564 -0.00388679 0)
(1.00645 -0.00410224 0)
(1.00727 -0.00430018 0)
(1.0081 -0.00448113 0)
(1.00894 -0.00464556 0)
(1.00978 -0.00479508 0)
(1.01062 -0.00493049 0)
(1.01145 -0.00505178 0)
(1.01228 -0.00515979 0)
(1.01309 -0.00525405 0)
(1.01389 -0.00533362 0)
(1.01468 -0.00539894 0)
(1.01545 -0.00545026 0)
(1.01621 -0.00548741 0)
(1.01694 -0.00551025 0)
(1.01765 -0.00551863 0)
(1.01833 -0.00551261 0)
(1.019 -0.00549294 0)
(1.01963 -0.00546047 0)
(1.02024 -0.00541597 0)
(1.02083 -0.00536038 0)
(1.02138 -0.00529489 0)
(1.02191 -0.00522048 0)
(1.02242 -0.00513812 0)
(1.02289 -0.00504885 0)
(1.02335 -0.00495381 0)
(1.02377 -0.004854 0)
(1.02418 -0.0047503 0)
(1.02456 -0.00464355 0)
(1 -0.000223206 0)
(1.0001 -0.00069596 0)
(1.00031 -0.00118696 0)
(1.00061 -0.00168692 0)
(1.00101 -0.00218411 0)
(1.00149 -0.00266616 0)
(1.00205 -0.00312299 0)
(1.00267 -0.00354788 0)
(1.00335 -0.00393896 0)
(1.00408 -0.00429889 0)
(1.00484 -0.00463055 0)
(1.00563 -0.00493528 0)
(1.00645 -0.00521504 0)
(1.00728 -0.00547279 0)
(1.00813 -0.00570958 0)
(1.00899 -0.00592617 0)
(1.00985 -0.00612441 0)
(1.01071 -0.00630503 0)
(1.01158 -0.0064676 0)
(1.01243 -0.00661266 0)
(1.01328 -0.00674044 0)
(1.01412 -0.00684986 0)
(1.01495 -0.00694022 0)
(1.01576 -0.00701154 0)
(1.01655 -0.00706389 0)
(1.01732 -0.00709713 0)
(1.01807 -0.00711106 0)
(1.0188 -0.00710585 0)
(1.0195 -0.00708249 0)
(1.02017 -0.00704207 0)
(1.02082 -0.00698554 0)
(1.02144 -0.00691393 0)
(1.02203 -0.00682873 0)
(1.02259 -0.0067313 0)
(1.02312 -0.00662305 0)
(1.02363 -0.00650532 0)
(1.02411 -0.00637966 0)
(1.02456 -0.00624746 0)
(1.02498 -0.00611002 0)
(1.02538 -0.00596848 0)
(0.999999 -0.000265613 0)
(1.0001 -0.000829786 0)
(1.0003 -0.00141487 0)
(1.0006 -0.00201502 0)
(1.00099 -0.0026129 0)
(1.00146 -0.00319325 0)
(1.00201 -0.00374525 0)
(1.00263 -0.00426091 0)
(1.00331 -0.00473736 0)
(1.00404 -0.00517771 0)
(1.0048 -0.00558387 0)
(1.0056 -0.00595743 0)
(1.00643 -0.00630499 0)
(1.00728 -0.0066262 0)
(1.00815 -0.00692146 0)
(1.00903 -0.00719567 0)
(1.00992 -0.00744825 0)
(1.01081 -0.00767871 0)
(1.01171 -0.00788824 0)
(1.0126 -0.00807644 0)
(1.01349 -0.00824261 0)
(1.01437 -0.00838647 0)
(1.01525 -0.00850702 0)
(1.0161 -0.00860305 0)
(1.01694 -0.00867453 0)
(1.01777 -0.00872175 0)
(1.01857 -0.00874446 0)
(1.01934 -0.00874277 0)
(1.02009 -0.00871764 0)
(1.02081 -0.00867007 0)
(1.02151 -0.00860142 0)
(1.02217 -0.00851322 0)
(1.0228 -0.00840735 0)
(1.02341 -0.00828553 0)
(1.02398 -0.00814958 0)
(1.02452 -0.00800119 0)
(1.02503 -0.00784228 0)
(1.02551 -0.00767464 0)
(1.02597 -0.00750013 0)
(1.02639 -0.00732031 0)
(1 -0.000304283 0)
(1.00009 -0.000953908 0)
(1.00029 -0.00163013 0)
(1.00058 -0.00232372 0)
(1.00096 -0.00301913 0)
(1.00142 -0.00369538 0)
(1.00197 -0.004339 0)
(1.00258 -0.00494383 0)
(1.00325 -0.00550488 0)
(1.00398 -0.00602567 0)
(1.00474 -0.00650889 0)
(1.00555 -0.00695536 0)
(1.00639 -0.00737225 0)
(1.00725 -0.00776149 0)
(1.00814 -0.00812214 0)
(1.00904 -0.00845806 0)
(1.00996 -0.00877025 0)
(1.01089 -0.00905741 0)
(1.01182 -0.00932016 0)
(1.01276 -0.00955817 0)
(1.0137 -0.00976973 0)
(1.01463 -0.00995393 0)
(1.01556 -0.0101101 0)
(1.01647 -0.010237 0)
(1.01737 -0.0103335 0)
(1.01825 -0.0103995 0)
(1.01911 -0.0104349 0)
(1.01995 -0.0104399 0)
(1.02076 -0.0104156 0)
(1.02154 -0.0103628 0)
(1.02229 -0.0102832 0)
(1.02301 -0.0101785 0)
(1.02369 -0.0100512 0)
(1.02435 -0.00990344 0)
(1.02497 -0.00973752 0)
(1.02555 -0.00955573 0)
(1.02611 -0.00936051 0)
(1.02663 -0.00915399 0)
(1.02712 -0.00893842 0)
(1.02757 -0.00871571 0)
(0.999998 -0.000339695 0)
(1.00009 -0.00106745 0)
(1.00027 -0.00183111 0)
(1.00055 -0.00261416 0)
(1.00092 -0.00339877 0)
(1.00137 -0.00416804 0)
(1.00191 -0.00490378 0)
(1.00251 -0.00559524 0)
(1.00318 -0.00624065 0)
(1.00389 -0.00684236 0)
(1.00466 -0.00740301 0)
(1.00547 -0.00792652 0)
(1.00631 -0.0084169 0)
(1.00719 -0.00887734 0)
(1.00809 -0.00930914 0)
(1.00902 -0.00971334 0)
(1.00997 -0.0100908 0)
(1.01093 -0.0104421 0)
(1.01191 -0.0107669 0)
(1.01289 -0.0110635 0)
(1.01388 -0.0113294 0)
(1.01488 -0.0115631 0)
(1.01586 -0.0117633 0)
(1.01684 -0.0119282 0)
(1.01781 -0.0120562 0)
(1.01876 -0.0121465 0)
(1.01969 -0.0121991 0)
(1.0206 -0.0122145 0)
(1.02148 -0.0121935 0)
(1.02233 -0.0121373 0)
(1.02315 -0.0120481 0)
(1.02394 -0.0119278 0)
(1.02469 -0.0117788 0)
(1.0254 -0.0116037 0)
(1.02608 -0.0114059 0)
(1.02673 -0.0111879 0)
(1.02733 -0.0109528 0)
(1.0279 -0.0107031 0)
(1.02843 -0.0104415 0)
(1.02893 -0.0101704 0)
(0.999999 -0.000371543 0)
(1.00008 -0.00117246 0)
(1.00026 -0.00201445 0)
(1.00052 -0.00288169 0)
(1.00088 -0.00375386 0)
(1.00131 -0.00461113 0)
(1.00183 -0.00543543 0)
(1.00242 -0.00621221 0)
(1.00307 -0.00694137 0)
(1.00378 -0.00762525 0)
(1.00454 -0.00826446 0)
(1.00535 -0.00886584 0)
(1.0062 -0.00943477 0)
(1.00708 -0.00997186 0)
(1.008 -0.0104796 0)
(1.00895 -0.0109605 0)
(1.00993 -0.011413 0)
(1.01093 -0.0118371 0)
(1.01195 -0.0122326 0)
(1.01299 -0.012596 0)
(1.01403 -0.0129249 0)
(1.01509 -0.0132176 0)
(1.01614 -0.0134713 0)
(1.0172 -0.0136833 0)
(1.01824 -0.0138516 0)
(1.01927 -0.0139746 0)
(1.02029 -0.0140523 0)
(1.02128 -0.0140845 0)
(1.02224 -0.0140719 0)
(1.02318 -0.0140159 0)
(1.02408 -0.0139191 0)
(1.02495 -0.0137837 0)
(1.02578 -0.0136128 0)
(1.02657 -0.0134093 0)
(1.02732 -0.013177 0)
(1.02803 -0.0129191 0)
(1.0287 -0.0126392 0)
(1.02932 -0.0123407 0)
(1.02991 -0.0120269 0)
(1.03046 -0.011701 0)
(1 -0.000400436 0)
(1.00008 -0.00126546 0)
(1.00024 -0.00218009 0)
(1.00049 -0.00312719 0)
(1.00082 -0.00408296 0)
(1.00124 -0.00502403 0)
(1.00174 -0.00593102 0)
(1.00231 -0.00679176 0)
(1.00294 -0.00760363 0)
(1.00364 -0.00836763 0)
(1.00438 -0.0090881 0)
(1.00518 -0.00977183 0)
(1.00603 -0.0104215 0)
(1.00692 -0.0110403 0)
(1.00785 -0.0116315 0)
(1.00882 -0.0121955 0)
(1.00983 -0.0127316 0)
(1.01086 -0.0132389 0)
(1.01193 -0.0137149 0)
(1.01301 -0.0141569 0)
(1.01412 -0.0145614 0)
(1.01525 -0.0149247 0)
(1.01638 -0.0152431 0)
(1.01751 -0.015513 0)
(1.01865 -0.0157318 0)
(1.01977 -0.0158972 0)
(1.02088 -0.0160084 0)
(1.02197 -0.0160647 0)
(1.02303 -0.0160671 0)
(1.02406 -0.0160168 0)
(1.02506 -0.0159161 0)
(1.02603 -0.0157677 0)
(1.02695 -0.0155753 0)
(1.02783 -0.0153424 0)
(1.02866 -0.0150736 0)
(1.02945 -0.0147725 0)
(1.0302 -0.0144438 0)
(1.0309 -0.0140913 0)
(1.03155 -0.0137194 0)
(1.03216 -0.0133319 0)
(0.999999 -0.000425491 0)
(1.00007 -0.00134758 0)
(1.00022 -0.00232867 0)
(1.00045 -0.00334975 0)
(1.00076 -0.00438165 0)
(1.00116 -0.00540191 0)
(1.00163 -0.00638906 0)
(1.00217 -0.00733014 0)
(1.00278 -0.00822379 0)
(1.00345 -0.0090692 0)
(1.00419 -0.00987194 0)
(1.00497 -0.010639 0)
(1.00581 -0.0113726 0)
(1.0067 -0.0120779 0)
(1.00764 -0.0127582 0)
(1.00862 -0.0134128 0)
(1.00965 -0.0140411 0)
(1.01072 -0.0146419 0)
(1.01182 -0.0152111 0)
(1.01297 -0.0157449 0)
(1.01414 -0.0162384 0)
(1.01533 -0.0166863 0)
(1.01655 -0.0170835 0)
(1.01777 -0.0174251 0)
(1.019 -0.0177074 0)
(1.02023 -0.0179272 0)
(1.02144 -0.0180826 0)
(1.02264 -0.0181727 0)
(1.02382 -0.018198 0)
(1.02497 -0.0181594 0)
(1.02608 -0.0180596 0)
(1.02716 -0.0179018 0)
(1.02819 -0.0176902 0)
(1.02918 -0.0174285 0)
(1.03011 -0.0171221 0)
(1.031 -0.0167753 0)
(1.03184 -0.0163936 0)
(1.03262 -0.0159817 0)
(1.03336 -0.0155448 0)
(1.03404 -0.0150875 0)
(0.999999 -0.000446205 0)
(1.00006 -0.00141988 0)
(1.0002 -0.00245911 0)
(1.0004 -0.00354604 0)
(1.00069 -0.0046499 0)
(1.00106 -0.00574375 0)
(1.0015 -0.00680734 0)
(1.00201 -0.00782594 0)
(1.00259 -0.00879751 0)
(1.00324 -0.00972372 0)
(1.00394 -0.0106082 0)
(1.00471 -0.0114588 0)
(1.00553 -0.0122812 0)
(1.00641 -0.0130787 0)
(1.00735 -0.0138535 0)
(1.00834 -0.0146077 0)
(1.00938 -0.0153386 0)
(1.01048 -0.0160433 0)
(1.01163 -0.0167178 0)
(1.01282 -0.0173565 0)
(1.01406 -0.0179535 0)
(1.01533 -0.0185019 0)
(1.01662 -0.0189941 0)
(1.01795 -0.0194234 0)
(1.01928 -0.0197849 0)
(1.02062 -0.0200736 0)
(1.02196 -0.0202872 0)
(1.02328 -0.0204237 0)
(1.02459 -0.0204832 0)
(1.02587 -0.020466 0)
(1.02711 -0.0203752 0)
(1.02832 -0.0202137 0)
(1.02948 -0.0199862 0)
(1.0306 -0.019697 0)
(1.03166 -0.0193521 0)
(1.03266 -0.0189568 0)
(1.03361 -0.0185177 0)
(1.0345 -0.01804 0)
(1.03533 -0.0175304 0)
(1.0361 -0.016994 0)
(0.999999 -0.000463153 0)
(1.00005 -0.00148 0)
(1.00017 -0.00257094 0)
(1.00035 -0.00371709 0)
(1.00061 -0.004887 0)
(1.00094 -0.00604867 0)
(1.00135 -0.00718254 0)
(1.00182 -0.00827582 0)
(1.00237 -0.00932214 0)
(1.00298 -0.010325 0)
(1.00365 -0.0112908 0)
(1.00438 -0.0122274 0)
(1.00518 -0.0131404 0)
(1.00605 -0.0140332 0)
(1.00697 -0.0149091 0)
(1.00796 -0.0157698 0)
(1.00902 -0.0166126 0)
(1.01013 -0.0174342 0)
(1.01132 -0.0182288 0)
(1.01256 -0.0189884 0)
(1.01386 -0.0197055 0)
(1.0152 -0.0203711 0)
(1.01659 -0.0209759 0)
(1.01801 -0.0215109 0)
(1.01946 -0.0219696 0)
(1.02092 -0.0223454 0)
(1.02239 -0.0226343 0)
(1.02386 -0.0228328 0)
(1.02531 -0.0229405 0)
(1.02674 -0.0229574 0)
(1.02814 -0.0228861 0)
(1.0295 -0.0227289 0)
(1.03082 -0.0224911 0)
(1.03208 -0.0221774 0)
(1.03328 -0.0217949 0)
(1.03443 -0.0213494 0)
(1.03551 -0.0208491 0)
(1.03653 -0.0203 0)
(1.03747 -0.0197101 0)
(1.03836 -0.0190855 0)
(0.999998 -0.000475987 0)
(1.00004 -0.0015281 0)
(1.00014 -0.002665 0)
(1.0003 -0.00386322 0)
(1.00053 -0.00508978 0)
(1.00082 -0.00631384 0)
(1.00118 -0.00751427 0)
(1.00162 -0.00867578 0)
(1.00212 -0.00979208 0)
(1.00268 -0.0108698 0)
(1.00331 -0.0119166 0)
(1.004 -0.0129386 0)
(1.00477 -0.0139422 0)
(1.0056 -0.0149336 0)
(1.00651 -0.0159157 0)
(1.00748 -0.0168903 0)
(1.00854 -0.0178556 0)
(1.00967 -0.0188065 0)
(1.01088 -0.0197345 0)
(1.01217 -0.0206307 0)
(1.01352 -0.0214855 0)
(1.01494 -0.0222875 0)
(1.01642 -0.0230253 0)
(1.01794 -0.0236873 0)
(1.01951 -0.0242644 0)
(1.0211 -0.0247483 0)
(1.02272 -0.0251334 0)
(1.02434 -0.025414 0)
(1.02596 -0.0255884 0)
(1.02756 -0.0256551 0)
(1.02913 -0.0256165 0)
(1.03067 -0.0254744 0)
(1.03216 -0.0252347 0)
(1.0336 -0.0249022 0)
(1.03498 -0.024485 0)
(1.03629 -0.0239895 0)
(1.03753 -0.0234253 0)
(1.0387 -0.0227996 0)
(1.03979 -0.0221219 0)
(1.0408 -0.0213995 0)
(0.999999 -0.000484932 0)
(1.00003 -0.00156486 0)
(1.00011 -0.00274022 0)
(1.00024 -0.0039821 0)
(1.00043 -0.00525841 0)
(1.00068 -0.00654058 0)
(1.001 -0.00780134 0)
(1.00139 -0.00902333 0)
(1.00183 -0.0102049 0)
(1.00234 -0.0113538 0)
(1.00292 -0.0124774 0)
(1.00356 -0.0135831 0)
(1.00428 -0.0146785 0)
(1.00507 -0.0157713 0)
(1.00595 -0.016865 0)
(1.0069 -0.0179616 0)
(1.00795 -0.0190577 0)
(1.00908 -0.0201477 0)
(1.01031 -0.0212225 0)
(1.01162 -0.0222716 0)
(1.01303 -0.0232829 0)
(1.01451 -0.0242421 0)
(1.01608 -0.0251358 0)
(1.01771 -0.0259492 0)
(1.0194 -0.0266704 0)
(1.02114 -0.0272877 0)
(1.02291 -0.0277933 0)
(1.0247 -0.0281793 0)
(1.0265 -0.0284421 0)
(1.02829 -0.0285788 0)
(1.03006 -0.0285908 0)
(1.0318 -0.0284792 0)
(1.0335 -0.0282502 0)
(1.03514 -0.0279081 0)
(1.03672 -0.0274623 0)
(1.03823 -0.0269195 0)
(1.03966 -0.026291 0)
(1.04101 -0.0255847 0)
(1.04227 -0.0248124 0)
(1.04345 -0.0239822 0)
(0.999999 -0.000490142 0)
(1.00002 -0.00158957 0)
(1.00007 -0.00279635 0)
(1.00017 -0.00407477 0)
(1.00033 -0.00539448 0)
(1.00053 -0.00672765 0)
(1.0008 -0.00804049 0)
(1.00113 -0.00931648 0)
(1.00152 -0.0105583 0)
(1.00197 -0.0117731 0)
(1.00248 -0.0129695 0)
(1.00307 -0.0141565 0)
(1.00373 -0.0153421 0)
(1.00447 -0.016537 0)
(1.00529 -0.0177447 0)
(1.00621 -0.0189682 0)
(1.00723 -0.0202032 0)
(1.00835 -0.0214434 0)
(1.00958 -0.0226794 0)
(1.01091 -0.0238986 0)
(1.01236 -0.0250864 0)
(1.0139 -0.0262253 0)
(1.01555 -0.0272994 0)
(1.01729 -0.0282905 0)
(1.0191 -0.0291837 0)
(1.02098 -0.0299633 0)
(1.02292 -0.0306182 0)
(1.0249 -0.0311376 0)
(1.02689 -0.031516 0)
(1.0289 -0.0317482 0)
(1.03089 -0.0318344 0)
(1.03286 -0.031774 0)
(1.0348 -0.0315729 0)
(1.03668 -0.0312348 0)
(1.03849 -0.03077 0)
(1.04023 -0.0301853 0)
(1.04189 -0.0294941 0)
(1.04346 -0.0287047 0)
(1.04493 -0.0278316 0)
(1.04631 -0.0268838 0)
(0.999998 -0.000490876 0)
(1 -0.00160372 0)
(1.00004 -0.0028345 0)
(1.00011 -0.00414056 0)
(1.00022 -0.00549766 0)
(1.00037 -0.00687425 0)
(1.00059 -0.00823122 0)
(1.00086 -0.00955418 0)
(1.00119 -0.0108497 0)
(1.00156 -0.0121253 0)
(1.002 -0.0133901 0)
(1.00252 -0.0146531 0)
(1.00311 -0.0159253 0)
(1.00378 -0.0172217 0)
(1.00454 -0.0185446 0)
(1.0054 -0.0198983 0)
(1.00638 -0.0212787 0)
(1.00747 -0.0226788 0)
(1.00869 -0.024089 0)
(1.01003 -0.0254952 0)
(1.0115 -0.0268799 0)
(1.01309 -0.0282219 0)
(1.01481 -0.0295024 0)
(1.01664 -0.0306997 0)
(1.01858 -0.0317957 0)
(1.02061 -0.0327704 0)
(1.02272 -0.0336089 0)
(1.02489 -0.0342963 0)
(1.0271 -0.0348239 0)
(1.02934 -0.0351832 0)
(1.03159 -0.0353723 0)
(1.03382 -0.0353889 0)
(1.03602 -0.035238 0)
(1.03818 -0.0349223 0)
(1.04027 -0.0344527 0)
(1.04228 -0.0338355 0)
(1.04421 -0.0330864 0)
(1.04604 -0.0322139 0)
(1.04776 -0.0312358 0)
(1.04937 -0.0301617 0)
(0.999999 -0.000487048 0)
(0.999988 -0.00160806 0)
(0.999999 -0.00285444 0)
(1.00004 -0.00417926 0)
(1.0001 -0.00556972 0)
(1.00021 -0.00698171 0)
(1.00037 -0.0083726 0)
(1.00058 -0.00973531 0)
(1.00083 -0.0110788 0)
(1.00112 -0.0124086 0)
(1.00149 -0.013734 0)
(1.00192 -0.0150668 0)
(1.00242 -0.0164215 0)
(1.00301 -0.0178167 0)
(1.00369 -0.0192543 0)
(1.00449 -0.02074 0)
(1.0054 -0.02227 0)
(1.00644 -0.0238382 0)
(1.00763 -0.025434 0)
(1.00895 -0.027042 0)
(1.01043 -0.0286425 0)
(1.01206 -0.0302109 0)
(1.01383 -0.0317259 0)
(1.01575 -0.0331614 0)
(1.01781 -0.0344952 0)
(1.01998 -0.0357021 0)
(1.02227 -0.0367629 0)
(1.02464 -0.0376577 0)
(1.02709 -0.038374 0)
(1.02958 -0.0388988 0)
(1.0321 -0.0392276 0)
(1.03463 -0.0393545 0)
(1.03713 -0.0392835 0)
(1.0396 -0.0390149 0)
(1.04201 -0.0385602 0)
(1.04435 -0.0379248 0)
(1.04659 -0.0371268 0)
(1.04873 -0.0361745 0)
(1.05074 -0.0350897 0)
(1.05264 -0.0338821 0)
(0.999999 -0.000478233 0)
(0.99997 -0.00160322 0)
(0.999962 -0.00285617 0)
(0.999965 -0.00419288 0)
(0.999978 -0.0056128 0)
(1.00003 -0.00704916 0)
(1.00014 -0.0084648 0)
(1.00028 -0.00986038 0)
(1.00044 -0.0112439 0)
(1.00066 -0.0126203 0)
(1.00093 -0.0139984 0)
(1.00127 -0.0153943 0)
(1.00168 -0.0168269 0)
(1.00217 -0.018315 0)
(1.00276 -0.0198629 0)
(1.00346 -0.0214798 0)
(1.00429 -0.0231613 0)
(1.00527 -0.0249035 0)
(1.00639 -0.0266949 0)
(1.00768 -0.0285183 0)
(1.00914 -0.0303527 0)
(1.01078 -0.0321709 0)
(1.01259 -0.0339486 0)
(1.01458 -0.0356551 0)
(1.01674 -0.0372638 0)
(1.01906 -0.0387437 0)
(1.02151 -0.0400705 0)
(1.0241 -0.0412184 0)
(1.02678 -0.0421701 0)
(1.02955 -0.042907 0)
(1.03237 -0.0434201 0)
(1.03522 -0.0436993 0)
(1.03807 -0.0437458 0)
(1.0409 -0.0435571 0)
(1.04368 -0.0431447 0)
(1.04639 -0.0425124 0)
(1.049 -0.0416803 0)
(1.0515 -0.0406561 0)
(1.05388 -0.0394662 0)
(1.05612 -0.0381199 0)
(0.999999 -0.000463684 0)
(0.999951 -0.00159112 0)
(0.999924 -0.00283884 0)
(0.999888 -0.00418422 0)
(0.999849 -0.00562854 0)
(0.999856 -0.00707542 0)
(0.999902 -0.008509 0)
(0.999963 -0.00992984 0)
(1.00004 -0.0113455 0)
(1.00016 -0.0127606 0)
(1.00034 -0.0141817 0)
(1.00058 -0.0156326 0)
(1.00088 -0.0171356 0)
(1.00126 -0.0187094 0)
(1.00174 -0.0203621 0)
(1.00233 -0.0221066 0)
(1.00306 -0.0239383 0)
(1.00394 -0.0258576 0)
(1.00499 -0.027851 0)
(1.00621 -0.0299006 0)
(1.00763 -0.0319849 0)
(1.00925 -0.0340749 0)
(1.01108 -0.0361433 0)
(1.01311 -0.0381544 0)
(1.01536 -0.0400769 0)
(1.0178 -0.0418739 0)
(1.02042 -0.0435155 0)
(1.02321 -0.0449688 0)
(1.02615 -0.0462102 0)
(1.0292 -0.0472138 0)
(1.03235 -0.0479654 0)
(1.03555 -0.0484484 0)
(1.03879 -0.0486605 0)
(1.04202 -0.0485949 0)
(1.04522 -0.0482619 0)
(1.04836 -0.0476626 0)
(1.05141 -0.0468189 0)
(1.05434 -0.0457371 0)
(1.05714 -0.0444484 0)
(1.05978 -0.0429613 0)
(0.999998 -0.000442532 0)
(0.99993 -0.00157314 0)
(0.999886 -0.00280155 0)
(0.999804 -0.00415831 0)
(0.999717 -0.00561681 0)
(0.999678 -0.00706048 0)
(0.999659 -0.00850779 0)
(0.999637 -0.00994469 0)
(0.999625 -0.0113857 0)
(0.999654 -0.0128284 0)
(0.99973 -0.0142824 0)
(0.999854 -0.0157808 0)
(1.00003 -0.0173442 0)
(1.00029 -0.0189951 0)
(1.00064 -0.0207454 0)
(1.00111 -0.0226099 0)
(1.00171 -0.0245876 0)
(1.00247 -0.0266824 0)
(1.00341 -0.0288799 0)
(1.00454 -0.0311637 0)
(1.00588 -0.0335113 0)
(1.00745 -0.0358928 0)
(1.00927 -0.0382779 0)
(1.01132 -0.0406268 0)
(1.01362 -0.0429035 0)
(1.01616 -0.0450649 0)
(1.01894 -0.0470748 0)
(1.02193 -0.048892 0)
(1.02511 -0.0504852 0)
(1.02846 -0.0518199 0)
(1.03195 -0.0528749 0)
(1.03555 -0.0536254 0)
(1.03921 -0.0540633 0)
(1.0429 -0.0541758 0)
(1.04658 -0.0539701 0)
(1.05021 -0.0534437 0)
(1.05376 -0.0526193 0)
(1.0572 -0.0515014 0)
(1.0605 -0.0501258 0)
(1.06363 -0.0484999 0)
(0.999996 -0.00041303 0)
(0.999907 -0.0015515 0)
(0.999846 -0.00274334 0)
(0.999712 -0.00412119 0)
(0.999585 -0.00557459 0)
(0.9995 -0.00700634 0)
(0.99941 -0.00846424 0)
(0.999304 -0.00990669 0)
(0.999197 -0.0113662 0)
(0.99913 -0.0128242 0)
(0.999097 -0.0143022 0)
(0.999101 -0.0158387 0)
(0.999152 -0.0174505 0)
(0.999272 -0.0191686 0)
(0.99948 -0.0210056 0)
(0.999802 -0.0229811 0)
(1.00026 -0.0250968 0)
(1.00087 -0.0273611 0)
(1.00167 -0.0297607 0)
(1.00267 -0.0322823 0)
(1.00391 -0.0349026 0)
(1.00539 -0.0375914 0)
(1.00715 -0.040316 0)
(1.00918 -0.0430341 0)
(1.0115 -0.0457054 0)
(1.01411 -0.0482805 0)
(1.01702 -0.0507161 0)
(1.02019 -0.052962 0)
(1.02361 -0.0549776 0)
(1.02727 -0.0567183 0)
(1.03112 -0.0581532 0)
(1.03513 -0.0592476 0)
(1.03925 -0.059985 0)
(1.04345 -0.0603447 0)
(1.04767 -0.0603284 0)
(1.05188 -0.0599281 0)
(1.05601 -0.0591655 0)
(1.06004 -0.0580426 0)
(1.06393 -0.0565995 0)
(1.06763 -0.0548424 0)
(0.999991 -0.000372148 0)
(0.99988 -0.00153037 0)
(0.999801 -0.00266226 0)
(0.99961 -0.00408021 0)
(0.999457 -0.00549507 0)
(0.999321 -0.00691942 0)
(0.999156 -0.00837973 0)
(0.998965 -0.00981803 0)
(0.998761 -0.0112895 0)
(0.998595 -0.0127497 0)
(0.998449 -0.0142436 0)
(0.998325 -0.0158064 0)
(0.99824 -0.0174543 0)
(0.998213 -0.0192284 0)
(0.998265 -0.021138 0)
(0.998423 -0.0232131 0)
(0.998708 -0.0254558 0)
(0.999149 -0.0278798 0)
(0.999774 -0.030474 0)
(1.00062 -0.0332305 0)
(1.0017 -0.0361265 0)
(1.00306 -0.039134 0)
(1.00471 -0.0422174 0)
(1.00668 -0.0453335 0)
(1.00898 -0.0484378 0)
(1.01162 -0.0514756 0)
(1.01461 -0.0543964 0)
(1.01793 -0.0571411 0)
(1.02158 -0.0596579 0)
(1.02553 -0.0618904 0)
(1.02975 -0.0637955 0)
(1.0342 -0.0653257 0)
(1.03883 -0.0664535 0)
(1.04358 -0.067147 0)
(1.04842 -0.0673988 0)
(1.05327 -0.0671937 0)
(1.05808 -0.0665496 0)
(1.0628 -0.0654652 0)
(1.06738 -0.0639831 0)
(1.07177 -0.0621092 0)
(0.999983 -0.000315265 0)
(0.99985 -0.00151816 0)
(0.999748 -0.00255422 0)
(0.999501 -0.00404393 0)
(0.999337 -0.00536758 0)
(0.999136 -0.0068133 0)
(0.998902 -0.00825013 0)
(0.998622 -0.00968531 0)
(0.998322 -0.0111572 0)
(0.998059 -0.0126079 0)
(0.997791 -0.0141095 0)
(0.997538 -0.0156866 0)
(0.99731 -0.017356 0)
(0.997125 -0.0191746 0)
(0.99701 -0.0211399 0)
(0.996987 -0.0233017 0)
(0.997082 -0.0256548 0)
(0.997324 -0.0282256 0)
(0.997748 -0.0310019 0)
(0.998389 -0.033985 0)
(0.999284 -0.0371526 0)
(1.00046 -0.0404831 0)
(1.00196 -0.0439378 0)
(1.00381 -0.0474759 0)
(1.00604 -0.0510481 0)
(1.00865 -0.0545959 0)
(1.01168 -0.0580631 0)
(1.01511 -0.0613806 0)
(1.01895 -0.0644843 0)
(1.02318 -0.067306 0)
(1.02776 -0.0697861 0)
(1.03266 -0.0718617 0)
(1.03782 -0.0734899 0)
(1.04319 -0.0746242 0)
(1.04871 -0.0752435 0)
(1.0543 -0.0753225 0)
(1.05989 -0.0748716 0)
(1.06541 -0.0738845 0)
(1.07081 -0.0724037 0)
(1.07601 -0.0704361 0)
(0.999973 -0.000236522 0)
(0.999817 -0.00152838 0)
(0.999688 -0.00241119 0)
(0.99939 -0.00402295 0)
(0.999229 -0.00517799 0)
(0.998944 -0.0067092 0)
(0.998654 -0.00806248 0)
(0.998277 -0.00952477 0)
(0.997888 -0.0109637 0)
(0.997524 -0.0124075 0)
(0.997133 -0.0139009 0)
(0.996748 -0.0154838 0)
(0.996371 -0.0171569 0)
(0.996022 -0.0190107 0)
(0.995731 -0.0210084 0)
(0.995511 -0.0232465 0)
(0.995398 -0.0256853 0)
(0.995417 -0.0283902 0)
(0.995609 -0.0313278 0)
(0.996013 -0.0345254 0)
(0.99667 -0.0379514 0)
(0.99762 -0.0416015 0)
(0.998913 -0.0454305 0)
(1.00058 -0.0494083 0)
(1.00266 -0.0534771 0)
(1.00519 -0.0575791 0)
(1.00819 -0.0616525 0)
(1.01167 -0.065618 0)
(1.01566 -0.0694006 0)
(1.02012 -0.0729193 0)
(1.02505 -0.0760938 0)
(1.0304 -0.0788434 0)
(1.03612 -0.0811054 0)
(1.04215 -0.0828127 0)
(1.04842 -0.0839251 0)
(1.05484 -0.084403 0)
(1.06133 -0.0842434 0)
(1.06779 -0.0834318 0)
(1.07414 -0.0820074 0)
(1.0803 -0.0799783 0)
(0.999962 -0.000130169 0)
(0.999782 -0.00157622 0)
(0.999626 -0.00222053 0)
(0.999282 -0.00403024 0)
(0.999135 -0.00491093 0)
(0.998744 -0.00663432 0)
(0.998424 -0.00779473 0)
(0.997929 -0.00936454 0)
(0.997472 -0.0106908 0)
(0.996995 -0.0121698 0)
(0.996485 -0.0136096 0)
(0.995965 -0.0152108 0)
(0.995437 -0.0168542 0)
(0.994919 -0.0187458 0)
(0.994444 -0.0207386 0)
(0.994013 -0.0230533 0)
(0.993679 -0.025537 0)
(0.993449 -0.0283718 0)
(0.993385 -0.0314332 0)
(0.993512 -0.0348373 0)
(0.993888 -0.0384936 0)
(0.994556 -0.0424575 0)
(0.995576 -0.0466475 0)
(0.996986 -0.0510761 0)
(0.998856 -0.0556579 0)
(1.00121 -0.0603533 0)
(1.00411 -0.0650887 0)
(1.00757 -0.0697765 0)
(1.01162 -0.0743346 0)
(1.01626 -0.0786667 0)
(1.0215 -0.082669 0)
(1.02729 -0.0862424 0)
(1.03358 -0.0892973 0)
(1.04032 -0.0917394 0)
(1.04742 -0.0935031 0)
(1.05477 -0.0945279 0)
(1.06228 -0.0947881 0)
(1.06983 -0.0942563 0)
(1.07731 -0.0929636 0)
(1.08461 -0.0909183 0)
(0.999961 6.05399e-06 0)
(0.999742 -0.00167223 0)
(0.999576 -0.00196988 0)
(0.999178 -0.00407893 0)
(0.999062 -0.0045538 0)
(0.998534 -0.00661614 0)
(0.998224 -0.00742055 0)
(0.997577 -0.00924251 0)
(0.997092 -0.010308 0)
(0.996469 -0.0119338 0)
(0.995867 -0.0132113 0)
(0.995195 -0.0148981 0)
(0.994526 -0.0164318 0)
(0.993827 -0.0184024 0)
(0.993169 -0.0203171 0)
(0.992511 -0.0227404 0)
(0.991949 -0.0251918 0)
(0.991444 -0.0281831 0)
(0.991105 -0.0312921 0)
(0.990915 -0.0349203 0)
(0.990975 -0.0387423 0)
(0.991301 -0.0430305 0)
(0.991987 -0.047536 0)
(0.993062 -0.0524308 0)
(0.994636 -0.0575125 0)
(0.996722 -0.0628407 0)
(0.999418 -0.0682794 0)
(1.00276 -0.0737641 0)
(1.00679 -0.0791959 0)
(1.01153 -0.0844642 0)
(1.01701 -0.0894417 0)
(1.02319 -0.0940101 0)
(1.03005 -0.0980445 0)
(1.03752 -0.101417 0)
(1.04551 -0.104029 0)
(1.0539 -0.10579 0)
(1.06258 -0.106638 0)
(1.0714 -0.106526 0)
(1.08021 -0.105469 0)
(1.08887 -0.103471 0)
(0.999994 0.000165679 0)
(0.999681 -0.0018166 0)
(0.999569 -0.00165515 0)
(0.999061 -0.00417615 0)
(0.999033 -0.00410281 0)
(0.998301 -0.00667225 0)
(0.99808 -0.00692037 0)
(0.997206 -0.00919393 0)
(0.996775 -0.00978174 0)
(0.995935 -0.0117491 0)
(0.995307 -0.0126676 0)
(0.994429 -0.0145963 0)
(0.993665 -0.0158552 0)
(0.992746 -0.0180259 0)
(0.991933 -0.0197126 0)
(0.991013 -0.0223496 0)
(0.990241 -0.0246141 0)
(0.989416 -0.0278635 0)
(0.988809 -0.0308582 0)
(0.988244 -0.0348046 0)
(0.987972 -0.0386381 0)
(0.987883 -0.0433293 0)
(0.98819 -0.0480216 0)
(0.988832 -0.0534487 0)
(0.990031 -0.0589424 0)
(0.991723 -0.064972 0)
(0.994118 -0.0711024 0)
(0.997211 -0.0774745 0)
(1.0011 -0.0838632 0)
(1.00583 -0.0902028 0)
(1.01145 -0.0963176 0)
(1.01796 -0.102076 0)
(1.02534 -0.107306 0)
(1.03354 -0.111843 0)
(1.04247 -0.115548 0)
(1.05201 -0.118283 0)
(1.06202 -0.119935 0)
(1.07232 -0.120429 0)
(1.0827 -0.119746 0)
(1.093 -0.117885 0)
(1.00012 0.000337684 0)
(0.999546 -0.00199605 0)
(0.999669 -0.00128694 0)
(0.998877 -0.00431552 0)
(0.9991 -0.00356996 0)
(0.997999 -0.00680005 0)
(0.998042 -0.00629447 0)
(0.996778 -0.00923345 0)
(0.99657 -0.00909371 0)
(0.995353 -0.0116532 0)
(0.994854 -0.0119421 0)
(0.993634 -0.0143607 0)
(0.992899 -0.0150792 0)
(0.991651 -0.0176795 0)
(0.990779 -0.0188752 0)
(0.989503 -0.0219499 0)
(0.988598 -0.0237442 0)
(0.987359 -0.0274907 0)
(0.986549 -0.0300517 0)
(0.985498 -0.0345738 0)
(0.984941 -0.0380763 0)
(0.984311 -0.043427 0)
(0.984248 -0.0479745 0)
(0.984312 -0.0541715 0)
(0.985102 -0.0597935 0)
(0.986216 -0.0667341 0)
(0.988229 -0.0733725 0)
(0.990877 -0.0808186 0)
(0.994494 -0.0881455 0)
(0.999051 -0.0957471 0)
(1.00469 -0.103149 0)
(1.0114 -0.110335 0)
(1.01923 -0.117016 0)
(1.02814 -0.123005 0)
(1.03804 -0.128107 0)
(1.04883 -0.132113 0)
(1.06034 -0.134848 0)
(1.07235 -0.13619 0)
(1.0846 -0.136064 0)
(1.09685 -0.134455 0)
(1.00044 0.000509264 0)
(0.999229 -0.00218658 0)
(0.999987 -0.000889537 0)
(0.998509 -0.00447419 0)
(0.999374 -0.00298625 0)
(0.997523 -0.00697228 0)
(0.998211 -0.00557212 0)
(0.996195 -0.00934283 0)
(0.996571 -0.00826109 0)
(0.994633 -0.0116468 0)
(0.994598 -0.0110298 0)
(0.992723 -0.0142158 0)
(0.992317 -0.0140776 0)
(0.990461 -0.017411 0)
(0.989791 -0.0177618 0)
(0.987909 -0.0216106 0)
(0.987107 -0.0225169 0)
(0.98521 -0.0271619 0)
(0.98442 -0.0287699 0)
(0.982624 -0.034362 0)
(0.981995 -0.0368993 0)
(0.98054 -0.0434905 0)
(0.980283 -0.0471752 0)
(0.979468 -0.0547728 0)
(0.979966 -0.0597904 0)
(0.980167 -0.0682631 0)
(0.981848 -0.0747684 0)
(0.983691 -0.0838382 0)
(0.986992 -0.0916914 0)
(0.991055 -0.101005 0)
(0.996587 -0.109639 0)
(1.00329 -0.118633 0)
(1.01147 -0.127012 0)
(1.021 -0.134844 0)
(1.03188 -0.141745 0)
(1.04401 -0.147414 0)
(1.05719 -0.151609 0)
(1.07117 -0.154119 0)
(1.08564 -0.154798 0)
(1.10029 -0.153601 0)
(1.00107 0.000668106 0)
(0.998573 -0.00236422 0)
(1.00068 -0.000494826 0)
(0.997783 -0.0046205 0)
(1.00002 -0.0023971 0)
(0.996701 -0.00714339 0)
(0.99875 -0.00480918 0)
(0.995291 -0.00947223 0)
(0.996936 -0.00734164 0)
(0.993611 -0.0116852 0)
(0.9947 -0.00997789 0)
(0.991531 -0.0141315 0)
(0.992079 -0.0128802 0)
(0.989011 -0.0172102 0)
(0.989135 -0.0163823 0)
(0.986068 -0.0213461 0)
(0.985943 -0.0209168 0)
(0.982803 -0.0269266 0)
(0.98262 -0.0269516 0)
(0.979452 -0.034277 0)
(0.979357 -0.0349635 0)
(0.976403 -0.0437128 0)
(0.976539 -0.0453572 0)
(0.974144 -0.0555456 0)
(0.974881 -0.0585167 0)
(0.973425 -0.0699241 0)
(0.975228 -0.074742 0)
(0.97549 -0.0868963 0)
(0.978775 -0.0938404 0)
(0.981607 -0.106198 0)
(0.987144 -0.115127 0)
(0.993295 -0.12693 0)
(1.00177 -0.136816 0)
(1.01167 -0.147224 0)
(1.02353 -0.156361 0)
(1.03707 -0.164262 0)
(1.05209 -0.170475 0)
(1.06837 -0.174601 0)
(1.0855 -0.176463 0)
(1.10308 -0.175919 0)
(1.00211 0.000810803 0)
(0.997444 -0.00251302 0)
(1.00187 -0.000129857 0)