/*--------------------------------*- C++ -*----------------------------------*\
| =========                 |                                                 |
| \\      /  F ield         | OpenFOAM: The Open Source CFD Toolbox           |
|  \\    /   O peration     | Version:  2512                                  |
|   \\  /    A nd           | Website:  www.openfoam.com                      |
|    \\/     M anipulation  |                                                 |
\*---------------------------------------------------------------------------*/
FoamFile
{
    version     2.0;
    format      ascii;
    arch        "LSB;label=32;scalar=64";
    class       surfaceScalarField;
    location    "170";
    object      phi;
}
// * * * * * * * * * * * * * * * * * * * * * * * * * * * * * * * * * * * * * //

dimensions      [0 3 -1 0 0 0 0];

oriented        oriented;

internalField   nonuniform List<scalar> 
26232
(
-0.000128152
0.00113002
-0.00100187
-0.000367532
0.00182513
-0.00158575
-0.000379162
0.00144037
-0.00142874
0.000222063
6.90689e-05
-0.000670294
0.00182953
-0.00238364
0.000776177
0.00479791
-0.00606028
0.0030919
0.00944084
-0.0110909
0.00644796
0.0159785
-0.0174863
0.0109487
0.0244735
-0.025086
0.0165909
0.0347796
-0.033552
0.0232458
0.0465426
-0.0424188
0.0306558
0.0592489
-0.0511787
0.0384724
0.0723083
-0.0593712
0.0463118
0.085146
-0.0666517
0.053814
0.0972787
-0.0728245
0.0606918
0.108371
-0.0778499
0.0667572
0.118261
-0.0818174
0.0719278
0.126932
-0.0849129
0.0762418
0.134571
-0.0873735
0.0797348
0.14134
-0.0894763
0.0827067
0.147646
-0.0913677
0.085062
0.153736
-0.0934796
0.0873898
0.15979
-0.0955215
0.0894669
-0.0981815
0.0917322
0.16624
4.73763e-05
0.00108265
0.000281449
0.00159106
0.00101835
0.000703469
0.00265974
-0.00157233
0.00562141
-0.00534531
0.0102947
-0.0107336
0.016953
-0.0177492
0.0256565
-0.0261898
0.0361829
-0.0356124
0.048035
-0.045404
0.0605294
-0.0549133
0.0729322
-0.0635815
0.0845935
-0.0710325
0.0950488
-0.077107
0.104073
-0.0818487
0.111682
-0.0854585
0.118087
-0.0882223
0.123639
-0.0904652
0.12872
-0.0924542
0.13369
-0.0944467
0.138847
-0.096525
0.144266
-0.0988981
0.150035
-0.101291
-0.10424
0.156093
0.000148934
0.000933712
0.000768855
0.000971137
0.00221327
-0.000740943
0.00492468
-0.00428374
0.00935204
-0.00977267
0.01584
-0.0172215
0.0244716
-0.0263808
0.03496
-0.0366783
0.0466654
-0.0473178
0.0587398
-0.0574784
0.0703303
-0.0665037
0.0807615
-0.0740127
0.0896498
-0.0799208
0.0969328
-0.08439
0.102824
-0.0877398
0.107709
-0.0903442
0.112039
-0.0925516
0.116199
-0.0946259
0.120476
-0.0967308
0.124999
-0.09897
0.12979
-0.101315
0.134785
-0.103893
0.139938
-0.106444
-0.109445
0.145143
0.00021992
0.000713792
0.00119934
-8.28078e-06
0.00339195
-0.00293356
0.00728363
-0.00817542
0.0132973
-0.0157864
0.0215711
-0.0254953
0.0317859
-0.0365956
0.0431767
-0.048069
0.0547434
-0.0588845
0.0655376
-0.0682726
0.0748932
-0.0758593
0.0825358
-0.0816554
0.0885647
-0.0859498
0.0933409
-0.0891662
0.0973311
-0.09173
0.100968
-0.0939812
0.104559
-0.0961426
0.108266
-0.0983326
0.112141
-0.100606
0.116153
-0.102982
0.120303
-0.105465
0.124534
-0.108125
0.128903
-0.110813
-0.113932
0.13339
0.000305276
0.000408516
0.00171638
-0.00141938
0.00476465
-0.00598184
0.009963
-0.0133738
0.0175496
-0.0233729
0.0272341
-0.0351799
0.0381639
-0.0475253
0.0491976
-0.0591028
0.0592939
-0.0689808
0.067795
-0.0767737
0.0745196
-0.0825839
0.0796832
-0.086819
0.0837225
-0.089989
0.0871072
-0.0925509
0.0902104
-0.0948332
0.0932613
-0.0970321
0.0963665
-0.0992478
0.0995644
-0.10153
0.102864
-0.103906
0.106283
-0.1064
0.109842
-0.109024
0.113529
-0.111812
0.117392
-0.114675
-0.117886
0.121345
0.000447886
-3.93701e-05
0.00238902
-0.00336052
0.00642579
-0.0100186
0.0129511
-0.019899
0.0218026
-0.0322245
0.0321151
-0.0454923
0.0426209
-0.0580312
0.0521621
-0.068644
0.0600508
-0.0768694
0.0661494
-0.0828724
0.0707329
-0.0871673
0.0742616
-0.0903477
0.0771832
-0.0929106
0.0798259
-0.0951937
0.0823849
-0.0973922
0.08496
-0.0996072
0.0876028
-0.101891
0.0903412
-0.104269
0.0931954
-0.10676
0.0961669
-0.109372
0.0992513
-0.112109
0.102417
-0.114977
0.10568
-0.117939
-0.121147
0.108941
0.000650409
-0.000689779
0.00323146
-0.00594157
0.00830896
-0.0150961
0.0159631
-0.0275532
0.0254495
-0.0417109
0.0354158
-0.0554586
0.0445451
-0.0671605
0.052047
-0.0761459
0.0577575
-0.0825799
0.0619578
-0.0870726
0.0651084
-0.0903179
0.067643
-0.0928823
0.0698752
-0.0951428
0.0719958
-0.0973142
0.074109
-0.0995053
0.0762689
-0.101767
0.0785002
-0.104122
0.0808117
-0.10658
0.0831998
-0.109149
0.0856602
-0.111832
0.08819
-0.114638
0.0907815
-0.117568
0.0934543
-0.120611
-0.123845
0.0961523
0.000903669
-0.00159345
0.0041851
-0.009223
0.0102173
-0.0211283
0.0185616
-0.0358974
0.0278952
-0.0510445
0.0367093
-0.0642727
0.0440134
-0.0744647
0.0495296
-0.0816621
0.0534962
-0.0865464
0.0563648
-0.0899413
0.0585732
-0.0925263
0.0604433
-0.0947525
0.0621738
-0.0968733
0.0638719
-0.0990123
0.0655884
-0.101222
0.067344
-0.103523
0.0691461
-0.105924
0.0709982
-0.108432
0.0729054
-0.111056
0.0748726
-0.1138
0.0769001
-0.116666
0.0789807
-0.119649
0.0811161
-0.122747
-0.125976
0.083247
0.0011889
-0.00278234
0.00515571
-0.0131898
0.0118941
-0.0278666
0.0203404
-0.0443438
0.0288323
-0.0595364
0.0360753
-0.0715157
0.0415654
-0.0799548
0.0454358
-0.0855324
0.0481157
-0.0892264
0.0500588
-0.0918843
0.0516103
-0.0940778
0.0529847
-0.0961269
0.0542952
-0.0981839
0.055594
-0.100311
0.0569033
-0.102531
0.0582344
-0.104854
0.0595948
-0.107284
0.0609912
-0.109829
0.0624267
-0.112491
0.0639004
-0.115273
0.0654076
-0.118173
0.0669442
-0.121186
0.0685079
-0.124311
-0.127544
0.0700761
0.0014818
-0.00426414
0.0060315
-0.0177395
0.0130973
-0.0349324
0.0210719
-0.0523183
0.0282986
-0.0667631
0.0339055
-0.0771226
0.0378218
-0.0838711
0.0404171
-0.0881277
0.0421606
-0.0909698
0.0434332
-0.0931569
0.0444773
-0.0951219
0.0454217
-0.0970713
0.0463263
-0.0990885
0.047218
-0.101203
0.0481099
-0.103423
0.0490101
-0.105754
0.0499237
-0.108198
0.0508543
-0.110759
0.0518041
-0.113441
0.0527744
-0.116244
0.0537643
-0.119163
0.0547722
-0.122194
0.0557948
-0.125333
-0.128569
0.0568198
0.00175477
-0.00601891
0.00670235
-0.0226871
0.0136685
-0.0418985
0.0207464
-0.0593962
0.0265539
-0.0725707
0.0306617
-0.0812305
0.0332968
-0.0865062
0.0349222
-0.089753
0.0359628
-0.0920104
0.0367049
-0.0938991
0.0373055
-0.0957225
0.0378385
-0.0976043
0.0383364
-0.0995864
0.0388137
-0.10168
0.0392781
-0.103888
0.0397352
-0.106211
0.0401896
-0.108653
0.0406461
-0.111216
0.0411083
-0.113903
0.0415772
-0.116712
0.0420508
-0.119637
0.0425255
-0.122668
0.0429941
-0.125802
-0.12903
0.0434558
0.00198297
-0.00800188
0.00708726
-0.0277914
0.013571
-0.0483823
0.0195177
-0.0653429
0.0239358
-0.0769888
0.0267563
-0.0840509
0.0283712
-0.0881211
0.0292429
-0.0906248
0.0297176
-0.0924851
0.0299964
-0.0941778
0.0301761
-0.0959022
0.0302982
-0.0977265
0.0303803
-0.0996684
0.030431
-0.101731
0.0304561
-0.103913
0.0304608
-0.106216
0.0304494
-0.108641
0.0304255
-0.111192
0.0303916
-0.113869
0.030349
-0.11667
0.0302985
-0.119586
0.0302394
-0.122609
0.030168
-0.12573
0.0300865
-0.128949
0.000181082
-0.00832173
0.00814065
-4.97786e-05
-0.0189649
0.0191957
-0.00100673
-0.0250686
0.0260256
-0.00258416
-0.0281549
0.0297323
-0.00459421
-0.0296869
0.031697
-0.00684654
-0.0306897
0.0329421
-0.00918462
-0.0316216
0.0339596
-0.0114794
-0.0325213
0.0348161
-0.0136094
-0.0332203
0.0353503
-0.0154488
-0.0334895
0.0353289
-0.0168694
-0.0331047
0.0345253
-0.017752
-0.0318686
0.0327512
-0.0180009
-0.029622
0.0298709
-0.0175557
-0.026254
0.0258088
-0.0164152
-0.0217017
0.0205612
-0.0145997
-0.0159406
0.0141251
-0.0121755
-0.00898119
0.00655703
-0.0093267
-0.000828522
-0.00202028
-0.00583104
0.0081114
-0.0116071
-0.00174215
0.0181981
-0.022287
0.00310646
0.029239
-0.0340877
0.00878932
0.0410424
-0.0467253
0.0157368
0.053223
-0.0601705
0.0651689
0.0238686
-0.0733007
-0.000221532
-0.0081002
-0.00121001
-0.0179764
-0.00296962
-0.023309
-0.00536064
-0.0257638
-0.00820714
-0.0268404
-0.0113723
-0.0275246
-0.0147529
-0.028241
-0.0182538
-0.0290203
-0.0217679
-0.0297061
-0.0251675
-0.03009
-0.0283065
-0.0299657
-0.0310306
-0.0291444
-0.0331912
-0.0274614
-0.0346617
-0.0247835
-0.0353498
-0.0210136
-0.0351991
-0.0160913
-0.0341969
-0.00998336
-0.0323735
-0.00265192
-0.0296482
0.00538614
-0.0259344
0.0144842
-0.0211488
0.0244534
-0.0151464
0.0350401
-0.00784974
0.0459264
0.0568067
0.000512497
-0.000573613
-0.00752658
-0.00215355
-0.0163964
-0.00452879
-0.0209338
-0.00749176
-0.0228009
-0.0108966
-0.0234355
-0.0146607
-0.0237605
-0.01873
-0.0241718
-0.0230442
-0.0247061
-0.0275182
-0.0252322
-0.0320363
-0.0255719
-0.0364552
-0.0255469
-0.0406104
-0.0249892
-0.0443269
-0.0237449
-0.0474316
-0.0216788
-0.0497644
-0.0186808
-0.0511872
-0.0146685
-0.051584
-0.00958657
-0.0508605
-0.00337542
-0.0489918
0.00351739
-0.045811
0.0113035
-0.0412644
0.0199069
-0.0353167
0.0290923
-0.027935
0.0385447
0.048195
-0.0193234
-0.000848276
-0.00667831
-0.00285577
-0.014389
-0.00563471
-0.0181548
-0.00892628
-0.0195093
-0.0125994
-0.0197624
-0.0166068
-0.0197531
-0.0209288
-0.0198498
-0.0255333
-0.0201016
-0.0303584
-0.020407
-0.0353091
-0.0206212
-0.0402586
-0.0205973
-0.0450524
-0.0201955
-0.0495137
-0.0192836
-0.0534512
-0.0177413
-0.0566682
-0.0154638
-0.0589677
-0.012369
-0.0601568
-0.00839745
-0.0600231
-0.00350913
-0.0585325
0.00202675
-0.0555007
0.0082717
-0.0507669
0.015173
-0.0442485
0.022574
-0.0359619
0.030258
0.0377966
-0.0255634
-0.00104074
-0.00563757
-0.0033259
-0.0121038
-0.00633212
-0.0151486
-0.00975495
-0.0160865
-0.0134598
-0.0160575
-0.0174097
-0.0158032
-0.0215969
-0.0156625
-0.0259997
-0.0156988
-0.0305653
-0.0158414
-0.0352087
-0.0159778
-0.0398153
-0.0159908
-0.0442423
-0.0157684
-0.0483224
-0.0152035
-0.0518662
-0.0141975
-0.0546683
-0.0126617
-0.0565084
-0.0105289
-0.057151
-0.0077549
-0.0563191
-0.00434104
-0.0539609
-0.00033138
-0.0498637
0.00417446
-0.0438343
0.00914363
-0.0355094
0.0142491
-0.0253187
0.0200672
0.0246205
-0.0121425
-0.00115981
-0.00447776
-0.00360009
-0.00966351
-0.00670241
-0.0120463
-0.0101224
-0.0126665
-0.0137087
-0.0124712
-0.0174156
-0.0120963
-0.0212283
-0.0118498
-0.0251175
-0.0118096
-0.0290225
-0.0119364
-0.0328503
-0.0121499
-0.0364797
-0.0123615
-0.0397647
-0.0124833
-0.0425377
-0.0124305
-0.0446138
-0.0121214
-0.0457905
-0.011485
-0.0458564
-0.010463
-0.0445859
-0.0090254
-0.0417628
-0.00716415
-0.0371558
-0.00493839
-0.0305627
-0.00241863
-0.0219941
0.000575057
-0.0107926
0.00304759
0.00260498
0.00666965
0.00745245
0.019773
-0.00121419
-0.00326357
-0.00370699
-0.00717071
-0.00680503
-0.00894827
-0.0101342
-0.00933735
-0.0135218
-0.0090836
-0.0169026
-0.00871556
-0.0202431
-0.00850931
-0.0234962
-0.00855651
-0.0265825
-0.00885006
-0.0293898
-0.00934268
-0.0317775
-0.00997376
-0.0335834
-0.0106774
-0.0346306
-0.0113833
-0.0347317
-0.0120203
-0.0336947
-0.012522
-0.0313262
-0.0128315
-0.0274406
-0.012911
-0.0218478
-0.0127569
-0.0144072
-0.012379
-0.00488201
-0.0119439
0.00668819
-0.0109951
0.021198
-0.0114622
0.0371581
-0.00929043
-0.0130695
0.05768
-0.00120096
-0.00206261
-0.00363845
-0.00473322
-0.00662474
-0.00596198
-0.00976844
-0.00619365
-0.012874
-0.00597806
-0.0158489
-0.00574064
-0.0186305
-0.00572769
-0.0211417
-0.00604528
-0.0232729
-0.00671889
-0.0248809
-0.00773469
-0.0257963
-0.00905834
-0.0258342
-0.0106395
-0.0248053
-0.0124123
-0.0225259
-0.0142996
-0.0188238
-0.0162241
-0.0135381
-0.0181173
-0.00654166
-0.0199075
0.00228292
-0.0215815
0.0130205
-0.0231165
0.0258759
-0.0247993
0.0406011
-0.0257203
0.0579661
-0.0288272
0.0768321
-0.0281565
-0.0349635
0.0987261
-0.00110584
-0.000956777
-0.0033513
-0.00248776
-0.00607382
-0.00323947
-0.00887343
-0.00339403
-0.0115253
-0.00332621
-0.0138953
-0.00337067
-0.0158724
-0.00375055
-0.0173287
-0.00458893
-0.018105
-0.00594264
-0.0180144
-0.00782531
-0.016856
-0.0102167
-0.0144334
-0.0130622
-0.0105661
-0.0162796
-0.00511316
-0.0197526
0.00202542
-0.0233626
0.0109076
-0.0269994
0.0215606
-0.0305605
0.0339952
-0.0340161
0.048185
-0.0373063
0.0640234
-0.0406377
0.0816733
-0.0433702
0.10053
-0.0476834
0.121343
-0.0489694
-0.0562936
0.142673
-0.000919102
-3.76755e-05
-0.00280972
-0.000597136
-0.00506857
-0.000980623
-0.00729134
-0.00117126
-0.00921442
-0.00140313
-0.0106456
-0.00193949
-0.0114085
-0.00298764
-0.0113121
-0.00468537
-0.0101455
-0.00710922
-0.00769541
-0.0102754
-0.00376258
-0.0141495
0.0018067
-0.0186314
0.00909372
-0.0235666
0.0181229
-0.0287817
0.0288434
-0.0340831
0.0411562
-0.0393123
0.0549
-0.0443043
0.0699231
-0.0490392
0.0860307
-0.0534139
0.102917
-0.057524
0.120834
-0.0612876
0.138431
-0.0652803
0.157569
-0.068107
-0.0735617
0.174837
-0.00066401
0.000626334
-0.00204723
0.00078608
-0.0036439
0.000616052
-0.0050479
0.000232743
-0.00595904
-0.000491995
-0.00612155
-0.00177698
-0.00529337
-0.00381583
-0.00323522
-0.00674352
0.000281846
-0.0106263
0.00545088
-0.0154444
0.0123817
-0.0210803
0.0210896
-0.0273393
0.0314871
-0.0339641
0.0433818
-0.0406764
0.0565118
-0.0472132
0.0705695
-0.0533699
0.0852373
-0.0589722
0.100218
-0.0640201
0.115191
-0.0683865
0.129966
-0.0722996
0.144365
-0.0756866
0.157851
-0.0787663
0.171391
-0.0816468
-0.0846505
0.18248
-0.000375536
-0.00117521
-0.00198789
-0.00242544
-0.00214126
-0.000826342
0.0018058
0.00601099
0.0119757
0.019777
0.0293526
0.0404857
0.0528333
0.065971
0.0794496
0.0928369
0.105793
0.118014
0.129363
0.13977
0.149145
0.157769
0.165589
0.17267
0.0344431
0.106713
-0.117287
0.0437185
0.124098
-0.133374
0.0510394
0.136593
-0.143914
0.0546042
0.146008
-0.149573
0.0545879
0.153809
-0.153792
0.0541741
0.15918
-0.158766
0.0582146
0.157538
-0.161579
0.0698049
0.1425
-0.15409
0.0872316
0.111836
-0.129263
0.10566
0.068894
-0.0873221
0.122006
0.0163589
-0.0327052
0.136071
-0.0439023
0.0298377
0.147593
-0.103679
0.0921561
0.155605
-0.150312
0.142301
0.15976
-0.176524
0.172369
0.16035
-0.184824
0.184234
0.158421
-0.184632
0.186561
0.155883
-0.182307
0.184845
0.15314
-0.179417
0.18216
0.14828
-0.182372
0.187231
0.140225
-0.197648
0.205703
0.130816
-0.214093
0.223502
0.123476
-0.204089
0.211429
0.120782
-0.148354
0.151048
0.123875
-0.0546069
0.0515133
0.130748
0.0502961
-0.0571688
0.139068
0.13851
-0.146831
0.147358
0.192472
-0.200762
0.154322
0.213792
-0.220756
0.157783
0.22425
-0.227711
0.156037
0.244257
-0.242511
0.148953
0.269964
-0.26288
0.138579
0.278475
-0.268101
0.128604
0.243881
-0.233906
0.12263
0.154867
-0.148893
0.122479
0.0274264
-0.0272762
0.127351
-0.100082
0.0952104
0.134919
-0.191969
0.184402
0.138792
-0.238852
0.234979
0.134436
-0.262907
0.267263
0.124541
-0.278166
0.288061
0.115542
-0.265997
0.274996
0.112469
-0.196086
0.199159
0.116836
-0.082263
0.0778965
0.123409
0.0465037
-0.0530771
0.126171
0.161965
-0.164727
0.12426
0.255598
-0.253688
0.121163
0.31257
-0.309474
0.119366
0.282057
-0.280259
0.119748
0.185311
-0.185694
0.119443
0.0177803
-0.0174746
0.117555
-0.160052
0.161939
0.114448
-0.28395
0.287057
0.113036
-0.349252
0.350665
0.111014
-0.214577
0.216598
0.108098
-0.0218031
0.02472
0.104013
0.189703
-0.185618
0.101683
0.383202
-0.380873
0.0958445
0.175521
-0.169683
-0.0438694
0.0480259
0.0140855
0.0931398
0.0259778
0.112206
0.0358616
0.126709
0.043023
0.138847
0.049197
0.147635
0.0574736
0.150903
0.0707974
0.144214
0.0894651
0.123833
0.109971
0.0913302
0.127931
0.050934
0.14197
0.00232017
0.152908
-0.0548407
0.160683
-0.111454
0.164361
-0.15399
0.164157
-0.176321
0.161213
-0.18188
0.156551
-0.17997
0.151757
-0.177513
0.147239
-0.174899
0.140658
-0.175791
0.130529
-0.187519
0.119321
-0.202884
0.111476
-0.196244
0.109811
-0.14669
0.114805
-0.059601
0.124456
0.0406451
0.135687
0.12728
0.146727
0.181431
0.156201
0.204318
0.162147
0.218304
0.163033
0.243371
0.158299
0.274697
0.149375
0.2874
0.139609
0.253648
0.132365
0.162111
0.129409
0.0303823
0.130654
-0.101327
0.135329
-0.196644
0.137968
-0.241492
0.132954
-0.257893
0.122464
-0.267675
0.113771
-0.257304
0.111917
-0.194232
0.11707
-0.0874156
0.124014
0.0395597
0.127131
0.158848
0.125971
0.256759
0.123227
0.315314
0.12112
0.284164
0.12119
0.185241
0.120321
0.018649
0.117713
-0.157443
0.113534
-0.279771
0.111847
-0.347565
0.110701
-0.213431
0.108424
-0.0195258
0.106147
0.19198
0.103715
0.385634
0.096196
0.18304
-0.0390542
-0.00429743
0.0781138
0.0108997
0.0970086
0.0249428
0.112666
0.0382325
0.125557
0.0521121
0.133755
0.0683554
0.13466
0.0880744
0.124495
0.110141
0.101766
0.130957
0.0705146
0.147346
0.0345449
0.159083
-0.00941679
0.167305
-0.063063
0.171764
-0.115912
0.171543
-0.153769
0.167444
-0.172222
0.161519
-0.175955
0.154744
-0.173195
0.148052
-0.170821
0.142152
-0.168999
0.134693
-0.168332
0.123199
-0.176025
0.11015
-0.189836
0.101333
-0.187427
0.10033
-0.145687
0.106972
-0.0662437
0.118829
0.028788
0.132517
0.113592
0.146082
0.167867
0.158019
0.192381
0.16668
0.209643
0.170584
0.239466
0.168689
0.276592
0.161568
0.294521
0.152048
0.263168
0.143389
0.170769
0.137513
0.0362579
0.135006
-0.0988197
0.136389
-0.198027
0.137741
-0.242844
0.132428
-0.25258
0.121389
-0.256636
0.112553
-0.248468
0.111556
-0.193235
0.117456
-0.0933152
0.124977
0.0320384
0.128702
0.155123
0.128306
0.257155
0.125786
0.317834
0.123248
0.286701
0.12298
0.18551
0.121701
0.0199275
0.118469
-0.154212
0.113211
-0.274513
0.111122
-0.345477
0.110951
-0.21326
0.10934
-0.0179148
0.108755
0.192566
0.106393
0.387996
0.0973613
0.192072
-0.0335006
-0.00954557
0.062096
0.00800375
0.0794593
0.0260234
0.0946463
0.0447539
0.106827
0.064427
0.114082
0.085484
0.113603
0.107881
0.102098
0.130077
0.0795698
0.149153
0.0514384
0.163443
0.0202555
0.173676
-0.0196507
0.179932
-0.0693189
0.18122
-0.117199
0.177296
-0.149845
0.169789
-0.164715
0.161301
-0.167467
0.15295
-0.164844
0.144833
-0.162703
0.137604
-0.16177
0.129741
-0.160469
0.117995
-0.164279
0.103712
-0.175552
0.0934554
-0.17717
0.0922183
-0.14445
0.0997592
-0.0737846
0.113319
0.0152282
0.129144
0.0977672
0.144951
0.15206
0.159196
0.178136
0.170714
0.198124
0.178134
0.232046
0.179617
0.27511
0.174588
0.29955
0.165261
0.272495
0.155161
0.18087
0.146524
0.0448943
0.140422
-0.0927173
0.138184
-0.19579
0.137946
-0.242607
0.132625
-0.247259
0.121244
-0.245255
0.111897
-0.239122
0.11129
-0.192628
0.117917
-0.0999417
0.126229
0.023726
0.13079
0.150561
0.131162
0.256784
0.128773
0.320223
0.125689
0.289784
0.125068
0.186131
0.123528
0.0214673
0.119821
-0.150504
0.113494
-0.268186
0.110867
-0.342849
0.111637
-0.214031
0.110779
-0.0170569
0.111837
0.191508
0.109696
0.390137
0.0993345
0.202433
-0.0271754
0.00344582
0.0465076
0.0220258
0.0608793
0.0417515
0.0749207
0.0628858
0.0856924
0.0849769
0.091991
0.107385
0.0911946
0.129333
0.0801506
0.149188
0.0597149
0.165069
0.0355567
0.176905
0.00841951
0.185655
-0.0284002
0.190017
-0.0736806
0.188218
-0.1154
0.180913
-0.14254
0.17063
-0.154433
0.160176
-0.157012
0.150764
-0.155433
0.141901
-0.15384
0.133816
-0.153684
0.125816
-0.152469
0.114585
-0.153047
0.0998229
-0.16079
0.0879279
-0.165275
0.0855682
-0.14209
0.0932603
-0.0814766
0.107928
0.000560906
0.125391
0.0803036
0.142956
0.134495
0.15917
0.161922
0.173509
0.183786
0.184632
0.220923
0.19003
0.269712
0.187963
0.301617
0.179274
0.281184
0.167489
0.192655
0.156133
0.0562501
0.146669
-0.0832535
0.14067
-0.18979
0.138477
-0.240414
0.13334
-0.242122
0.121909
-0.233824
0.11177
-0.228983
0.111049
-0.191907
0.118311
-0.107204
0.127638
0.014399
0.133325
0.144874
0.134562
0.255548
0.132214
0.322571
0.128431
0.293567
0.127411
0.187151
0.125761
0.0231182
0.12174
-0.146484
0.114385
-0.260831
0.111061
-0.339525
0.112745
-0.215715
0.112661
-0.0169728
0.11533
0.188839
0.113585
0.391882
0.1021
0.213918
-0.0200774
0.0342405
0.0320402
0.0503954
0.0447243
0.0687243
0.0565918
0.0889422
0.0654745
0.110195
0.0707377
0.131166
0.0702244
0.150477
0.0608397
0.166536
0.0436557
0.17872
0.0233725
0.188481
-0.00134136
0.195532
-0.0354509
0.197534
-0.0756826
0.192623
-0.110489
0.182442
-0.132359
0.170164
-0.142155
0.158385
-0.145233
0.148279
-0.145327
0.139055
-0.144616
0.130389
-0.145018
0.122471
-0.144551
0.112484
-0.14306
0.0983078
-0.146615
0.0849239
-0.151891
0.080568
-0.137734
0.0875493
-0.0884579
0.102519
-0.0144088
0.121071
0.0617518
0.139862
0.115703
0.157597
0.144187
0.174427
0.166957
0.189317
0.206033
0.198974
0.260055
0.200174
0.300417
0.192798
0.28856
0.179755
0.205697
0.165871
0.0701344
0.153476
-0.0708591
0.143748
-0.180062
0.139173
-0.235839
0.134264
-0.237212
0.123181
-0.222741
0.112121
-0.217923
0.110756
-0.190542
0.118504
-0.114953
0.129066
0.00383669
0.136116
0.137824
0.138317
0.253347
0.136024
0.324864
0.131459
0.298132
0.129981
0.18863
0.128348
0.0247511
0.124184
-0.142319
0.11587
-0.252518
0.111672
-0.335327
0.114228
-0.218271
0.114912
-0.0176563
0.119144
0.184607
0.117996
0.39303
0.105626
0.226287
-0.0122382
0.0692657
0.0204544
0.0823536
0.0316365
0.0976774
0.041268
0.11505
0.0481015
0.133485
0.0523032
0.151565
0.0521447
0.167618
0.0447862
0.18028
0.0309942
0.189956
0.0136959
0.198212
-0.00959755
0.203428
-0.0406668
0.20244
-0.0746939
0.19432
-0.10237
0.18178
-0.119819
0.168304
-0.128679
0.155898
-0.132827
0.145426
-0.134855
0.136234
-0.135424
0.127346
-0.136131
0.119315
-0.13652
0.11078
-0.134526
0.0983789
-0.134213
0.0844239
-0.137936
0.0775665
-0.130877
0.0827859
-0.0936774
0.0971423
-0.0287651
0.11617
0.0427239
0.135654
0.0962191
0.154331
0.12551
0.173086
0.148202
0.191436
0.187682
0.205554
0.245936
0.210928
0.295044
0.205817
0.29367
0.192496
0.219018
0.175953
0.0866781
0.160633
-0.0555392
0.147277
-0.166706
0.139956
-0.228518
0.135133
-0.232389
0.124817
-0.212424
0.112907
-0.206013
0.110385
-0.18802
0.118347
-0.122914
0.130321
-0.00813713
0.139055
0.129091
0.142468
0.249934
0.14028
0.327051
0.134809
0.303603
0.132787
0.190652
0.131237
0.026301
0.12709
-0.138173
0.117916
-0.243343
0.112672
-0.330083
0.116022
-0.221621
0.117463
-0.0190977
0.123188
0.178882
0.122853
0.393365
0.10986
0.23928
-0.00372095
0.105035
0.014146
0.113796
0.0228753
0.125217
0.0298463
0.138642
0.0346764
0.153279
0.0376665
0.168039
0.0373843
0.181242
0.0315834
0.191739
0.0204975
0.200041
0.00539408
0.206627
-0.0161834
0.208813
-0.0428531
0.203985
-0.0698656
0.192923
-0.0913084
0.178925
-0.105821
0.1651
-0.114855
0.152746
-0.120472
0.142188
-0.124298
0.133138
-0.126374
0.124481
-0.127474
0.116369
-0.128407
0.108892
-0.127049
0.0990113
-0.124333
0.0859946
-0.124919
0.0769056
-0.121788
0.0792349
-0.0960067
0.0920887
-0.0416189
0.110732
0.0240802
0.130248
0.076704
0.149306
0.106452
0.169412
0.128097
0.190642
0.166453
0.20891
0.227668
0.218273
0.285681
0.215517
0.296426
0.202505
0.23203
0.184826
0.104357
0.16734
-0.0380534
0.150933
-0.150298
0.140713
-0.218299
0.135714
-0.22739
0.12654
-0.20325
0.114059
-0.193533
0.109946
-0.183907
0.117721
-0.13069
0.131202
-0.0216173
0.141849
0.118443
0.146698
0.245084
0.144873
0.328877
0.138523
0.309953
0.13584
0.193336
0.134403
0.0277377
0.130391
-0.134161
0.120468
-0.233421
0.114036
-0.32365
0.118068
-0.225653
0.120229
-0.0212586
0.127348
0.171764
0.128051
0.392662
0.114727
0.252604
0.00537532
0.144455
0.0123633
0.148912
0.018419
0.155961
0.0227964
0.164789
0.0258484
0.174903
0.0275532
0.185642
0.0266448
0.195484
0.0217416
0.203301
0.0126807
0.209379
-0.000683697
0.212402
-0.0192063
0.210069
-0.0405206
0.201428
-0.0612248
0.188504
-0.0783841
0.174234
-0.0915509
0.160773
-0.101393
0.148894
-0.108593
0.138559
-0.113963
0.129683
-0.117499
0.12149
-0.11928
0.113544
-0.120462
0.106578
-0.120083
0.099055
-0.116809
0.088406
-0.11427
0.078398
-0.11178
0.0773873
-0.094996
0.0876878
-0.0519194
0.105101
0.00666659
0.12407
0.0577349
0.142871
0.0876509
0.163299
0.107669
0.186571
0.143181
0.2091
0.205139
0.223459
0.271322
0.224305
0.295581
0.212015
0.24432
0.192807
0.123565
0.173291
-0.0185372
0.154481
-0.131488
0.141386
-0.205203
0.135847
-0.221851
0.128079
-0.195482
0.115468
-0.180921
0.10948
-0.177919
0.116496
-0.137706
0.131481
-0.0366019
0.144405
0.105519
0.151078
0.238411
0.149853
0.330102
0.142595
0.317211
0.139165
0.196766
0.137771
0.0291314
0.134002
-0.130392
0.123445
-0.222863
0.115718
-0.315924
0.120287
-0.230222
0.123144
-0.0241154
0.131536
0.163371
0.13349
0.390708
0.120141
0.265953
0.0149331
0.175289
0.0119116
0.178013
0.0156945
0.182423
0.0183865
0.187889
0.0203826
0.194247
0.0211948
0.200951
0.019941
0.206847
0.0158458
0.211101
0.00842656
0.21332
-0.0029023
0.211686
-0.0175728
0.205215
-0.0340493
0.19442
-0.05043
0.181356
-0.0653197
0.16797
-0.0781649
0.155453
-0.0888767
0.144281
-0.0974206
0.134377
-0.104059
0.12571
-0.108832
0.118013
-0.111584
0.110597
-0.113046
0.10388
-0.113366
0.0978764
-0.110806
0.0901244
-0.106518
0.0810509
-0.102706
0.0774613
-0.0914064
0.0844279
-0.058886
0.0994829
-0.00838839
0.11719
0.0400275
0.135145
0.0696959
0.155303
0.0875111
0.179532
0.118951
0.204637
0.180034
0.223113
0.252846
0.228017
0.290676
0.217643
0.254694
0.198274
0.142935
0.178206
0.00153059
0.157681
-0.110964
0.141837
-0.189359
0.135336
-0.21535
0.129154
-0.1893
0.11696
-0.168727
0.109024
-0.169983
0.114661
-0.143343
0.130859
-0.0528
0.146182
0.0901963
0.155073
0.229519
0.155072
0.330103
0.147176
0.325107
0.142787
0.201156
0.141365
0.0305531
0.137834
-0.126861
0.12675
-0.21178
0.117656
-0.30683
0.12261
-0.235176
0.12613
-0.0276349
0.135629
0.153873
0.139019
0.387317
0.125978
0.278993
0.0247722
0.183583
0.0108084
0.186348
0.0129296
0.189842
0.0148923
0.19397
0.0162547
0.198559
0.0166058
0.20295
0.01555
0.206291
0.0125048
0.207778
0.00694011
0.20663
-0.00175469
0.202381
-0.0133241
0.194553
-0.026221
0.184133
-0.0400103
0.172433
-0.053619
0.160547
-0.0662792
0.1492
-0.0775301
0.138794
-0.0870143
0.129433
-0.0946978
0.121074
-0.100473
0.113741
-0.10425
0.107022
-0.106327
0.100736
-0.107079
0.0954585
-0.105528
0.0900594
-0.101119
0.0831844
-0.0958311
0.0787173
-0.0869393
0.0826675
-0.0628363
0.0949666
-0.0206875
0.110773
0.0242208
0.127072
0.0533971
0.145831
0.0687518
0.170143
0.0946395
0.198359
0.151818
0.221757
0.229448
0.230749
0.281683
0.222283
0.263161
0.203021
0.162196
0.180911
0.0236407
0.159921
-0.0899733
0.141956
-0.171394
0.134112
-0.207506
0.129556
-0.184744
0.118419
-0.15759
0.10868
-0.160244
0.112148
-0.146811
0.129257
-0.0699086
0.147388
0.0720654
0.158863
0.218043
0.160332
0.328634
0.151902
0.333538
0.146613
0.206445
0.145026
0.0321401
0.141803
-0.123638
0.130329
-0.200307
0.119822
-0.296323
0.124965
-0.240318
0.129149
-0.0318196
0.139581
0.143441
0.144555
0.382344
0.13214
0.291408
0.0347081
0.174624
0.00885514
0.1771
0.0104535
0.180152
0.0118398
0.183602
0.0128047
0.187124
0.0130844
0.190324
0.0123493
0.192723
0.0101065
0.193769
0.00589414
0.1926
-0.000586367
0.188534
-0.00925749
0.182045
-0.019732
0.173564
-0.0315296
0.16378
-0.043835
0.153442
-0.0559419
0.143244
-0.0673318
0.133589
-0.0773589
0.124752
-0.0858613
0.116811
-0.0925318
0.109754
-0.0971931
0.103554
-0.100127
0.0978644
-0.101389
0.0929352
-0.100599
0.0888106
-0.0969948
0.0841915
-0.091212
0.0804396
-0.0831874
0.0822774
-0.064674
0.0912327
-0.0296427
0.104545
0.0109083
0.118818
0.0391248
0.135288
0.0522815
0.15737
0.0725572
0.185147
0.124042
0.211959
0.202636
0.227544
0.266098
0.224084
0.26662
0.205822
0.180458
0.184118
0.0453447
0.162477
-0.0683325
0.142626
-0.151543
0.13291
-0.19779
0.129555
-0.18139
0.119945
-0.14798
0.108796
-0.149094
0.1097
-0.147715
0.126331
-0.0865397
0.146802
0.0515941
0.161529
0.203317
0.165699
0.324464
0.157416
0.341821
0.150968
0.212893
0.149036
0.0340715
0.14596
-0.120562
0.134153
-0.188499
0.122272
-0.284442
0.127368
-0.245414
0.132128
-0.0365802
0.143248
0.132321
0.149919
0.375672
0.138472
0.302855
0.0444935
0.1884
0.00830885
-0.187853
0.189628
0.00922539
0.191461
0.0100068
0.193843
0.0104222
0.196716
0.0102115
0.199965
0.00910021
0.203342
0.0067292
0.206388
0.00284844
0.208747
-0.00294475
0.209982
-0.0104925
0.209812
-0.0195625
0.2081
-0.0298173
0.204913
-0.0406481
0.20043
-0.0514588
0.194929
-0.0618306
0.188548
-0.0709784
0.181505
-0.0788181
0.174048
-0.0850751
0.166246
-0.0893907
0.158403
-0.0922843
0.150519
-0.0935052
0.14228
-0.0923602
0.13421
-0.0889246
0.125864
-0.082866
0.116251
-0.0735746
0.107304
-0.0557274
0.103196
-0.0255345
0.105272
0.00883194
0.112876
0.0315215
0.124235
0.0409225
0.137314
0.0594779
0.151206
0.11015
0.165382
0.188459
0.178054
0.253427
0.186265
0.258409
0.19056
0.176163
0.19101
0.0448949
0.186336
-0.0636592
0.174834
-0.14004
0.163841
-0.186797
0.155702
-0.17325
0.142951
-0.135229
0.12854
-0.134684
0.121591
-0.140766
0.126772
-0.0917208
0.135258
0.0431082
0.141096
0.197478
0.143217
0.322343
0.14126
0.343778
0.144404
0.20975
0.150249
0.0282266
0.151178
-0.121491
0.140777
-0.178098
0.127024
-0.270689
0.126012
-0.244402
0.125383
-0.0359514
0.132084
0.12562
0.138928
0.368828
0.130963
0.31082
0.053319
0.199668
0.00788574
-0.199245
0.200648
0.00824537
0.202141
0.0085138
0.204131
0.00843263
0.206528
0.00781433
0.209192
0.00643628
0.211911
0.00401053
0.21446
0.000298665
0.216339
-0.0048235
0.217257
-0.0114109
0.216947
-0.0192522
0.215251
-0.0281215
0.212178
-0.0375751
0.207781
-0.0470616
0.202242
-0.0562917
0.19578
-0.0645161
0.188624
-0.0716623
0.181171
-0.0776218
0.173532
-0.0817525
0.16578
-0.084532
0.158154
-0.0858796
0.150295
-0.084501
0.142294
-0.0809235
0.134638
-0.0752093
0.127028
-0.0659651
0.119663
-0.0483623
0.115106
-0.0209778
0.116222
0.00771578
0.122582
0.0251615
0.132801
0.0307042
0.145218
0.0470609
0.159452
0.0959161
0.175064
0.172847
0.189975
0.238516
0.199829
0.248555
0.20444
0.171552
0.205419
0.0439161
0.200232
-0.0584715
0.187593
-0.127402
0.174919
-0.174124
0.166272
-0.164603
0.154064
-0.123021
0.139251
-0.119871
0.130652
-0.132167
0.135605
-0.0966738
0.145907
0.0328057
0.153948
0.189438
0.158095
0.318196
0.156775
0.345097
0.15955
0.206976
0.165454
0.0223222
0.165908
-0.121945
0.153978
-0.166168
0.138094
-0.254805
0.136954
-0.243262
0.136411
-0.0354083
0.143385
0.118647
0.15174
0.360472
0.144433
0.318128
0.062413
0.211281
0.0076216
-0.211017
0.212017
0.00750934
0.21323
0.00730062
0.214859
0.00680423
0.216821
0.00585209
0.218998
0.00425898
0.221184
0.00182423
0.223103
-0.00161992
0.224494
-0.00621428
0.225074
-0.0119908
0.224632
-0.0188101
0.222998
-0.0264883
0.220151
-0.0347276
0.21612
-0.043031
0.211042