/*--------------------------------*- C++ -*----------------------------------*\
| =========                 |                                                 |
| \\      /  F ield         | OpenFOAM: The Open Source CFD Toolbox           |
|  \\    /   O peration     | Version:  2312                                  |
|   \\  /    A nd           | Website:  www.openfoam.com                      |
|    \\/     M anipulation  |                                                 |
\*---------------------------------------------------------------------------*/
FoamFile
{
    version     2.0;
    format      ascii;
    arch        "LSB;label=32;scalar=64";
    class       volScalarField;
    location    "80.65";
    object      p;
}
// * * * * * * * * * * * * * * * * * * * * * * * * * * * * * * * * * * * * * //

dimensions      [0 2 -2 0 0 0 0];

internalField   nonuniform List<scalar> 
5478
(
-0.527281
-0.525562
-0.525549
-0.5269
-0.527646
-0.523691
-0.510763
-0.486362
-0.450839
-0.407096
-0.359185
-0.310524
-0.263808
-0.219597
-0.178228
-0.534752
-0.530937
-0.528003
-0.525218
-0.520056
-0.508643
-0.488398
-0.458956
-0.422161
-0.381051
-0.338552
-0.29678
-0.257153
-0.219664
-0.185308
-0.544441
-0.538728
-0.532679
-0.524866
-0.512237
-0.492545
-0.465553
-0.432673
-0.396152
-0.358229
-0.320513
-0.284146
-0.249611
-0.217249
-0.187136
-0.558297
-0.550116
-0.540204
-0.525761
-0.504261
-0.476334
-0.443966
-0.409155
-0.373528
-0.338218
-0.304006
-0.271355
-0.240577
-0.21185
-0.185252
-0.577049
-0.564689
-0.549904
-0.526804
-0.495711
-0.460541
-0.424204
-0.388203
-0.353256
-0.31977
-0.287952
-0.257968
-0.229808
-0.203644
-0.179169
-0.599861
-0.581529
-0.559502
-0.525914
-0.485547
-0.444383
-0.404981
-0.367976
-0.333392
-0.301115
-0.271059
-0.243102
-0.217165
-0.19316
-0.170504
-0.622707
-0.598626
-0.565417
-0.520209
-0.471683
-0.425764
-0.383975
-0.346182
-0.311863
-0.280585
-0.251992
-0.225823
-0.201837
-0.179857
-0.159273
-0.639562
-0.610729
-0.563774
-0.507031
-0.45177
-0.402228
-0.358795
-0.320613
-0.28676
-0.256535
-0.229408
-0.204972
-0.182978
-0.163166
-0.145006
-0.42145
-0.423737
-0.425383
-0.429277
-0.435894
-0.445253
-0.457309
-0.471841
-0.488434
-0.506577
-0.525602
-0.544437
-0.56128
-0.57374
-0.578959
-0.427662
-0.431707
-0.434843
-0.439968
-0.447269
-0.456099
-0.465517
-0.474249
-0.480925
-0.484495
-0.484345
-0.480037
-0.471345
-0.458707
-0.4404
-0.438784
-0.444076
-0.44883
-0.455586
-0.464168
-0.473284
-0.481036
-0.484938
-0.48241
-0.471582
-0.451569
-0.422249
-0.384507
-0.342309
-0.293292
-0.454621
-0.46028
-0.466571
-0.475069
-0.485251
-0.495303
-0.502392
-0.50281
-0.492818
-0.469913
-0.433143
-0.383701
-0.32054
-0.258634
-0.179024
-0.473494
-0.479553
-0.486387
-0.495893
-0.507124
-0.517865
-0.524273
-0.521523
-0.505395
-0.473324
-0.422951
-0.362879
-0.284421
-0.215851
-0.130105
-0.491961
-0.496746
-0.503618
-0.513355
-0.524634
-0.534541
-0.53912
-0.532173
-0.509998
-0.470397
-0.415022
-0.349307
-0.274021
-0.204107
-0.134632
-0.507547
-0.510436
-0.515855
-0.524204
-0.533244
-0.540193
-0.540205
-0.528072
-0.500512
-0.456966
-0.40138
-0.338355
-0.273268
-0.211542
-0.154886
-0.519002
-0.519589
-0.522617
-0.52756
-0.533079
-0.535274
-0.529294
-0.511045
-0.478744
-0.434055
-0.381376
-0.3252
-0.270252
-0.218716
-0.172171
-0.569228
-0.483959
-0.346749
-0.263458
-0.226895
-0.248637
-0.27473
-0.232914
-0.16349
-0.123247
-0.106286
-0.091991
-0.080659
-0.0951602
-0.118214
-0.121563
-0.0984247
-0.0889034
-0.108655
-0.130129
-0.117376
-0.0997364
-0.118454
-0.128046
-0.110379
-0.0983755
-0.0901064
-0.0312931
-0.00421285
-0.00717997
-0.0187144
-0.0232518
0.0052763
0.0247048
0.0222065
0.00721685
-0.0135709
-0.00919153
-0.414338
-0.368727
-0.286017
-0.248863
-0.242693
-0.284362
-0.318796
-0.263653
-0.179698
-0.125991
-0.105489
-0.0893071
-0.0732511
-0.0890317
-0.113713
-0.117936
-0.0940589
-0.0800738
-0.0958352
-0.117038
-0.112864
-0.106281
-0.133615
-0.141155
-0.11063
-0.0855955
-0.0786557
-0.0347013
-0.010808
-0.0118936
-0.0211088
-0.0253199
0.00409801
0.0244555
0.0217536
0.00545963
-0.0156619
-0.0104013
-0.252594
-0.217497
-0.184041
-0.193404
-0.229784
-0.305535
-0.343854
-0.279448
-0.188833
-0.126399
-0.104025
-0.0905066
-0.07152
-0.0857025
-0.109606
-0.113924
-0.0891467
-0.0710296
-0.083285
-0.10355
-0.106296
-0.109496
-0.145355
-0.151199
-0.108658
-0.0720191
-0.0657926
-0.0375681
-0.0170763
-0.0164854
-0.0232678
-0.0271107
0.00265982
0.0239915
0.0212995
0.00387207
-0.0175568
-0.0115401
-0.115653
-0.0637061
-0.0442387
-0.0938664
-0.190955
-0.304864
-0.343139
-0.279992
-0.190262
-0.125488
-0.101961
-0.0922299
-0.0744039
-0.0865574
-0.10723
-0.110578
-0.0846531
-0.0630089
-0.0719395
-0.0906104
-0.097716
-0.108939
-0.152797
-0.158206
-0.106068
-0.0594189
-0.0524968
-0.0393888
-0.0226654
-0.020708
-0.0252015
-0.0285383
0.0010106
0.0233504
0.0208484
0.00247613
-0.0192484
-0.0125959
-0.0447578
0.0224346
0.0699285
0.0103484
-0.126784
-0.269705
-0.316447
-0.262
-0.182924
-0.123254
-0.099161
-0.0903957
-0.0800866
-0.0908034
-0.10778
-0.107551
-0.0803796
-0.0565161
-0.0628711
-0.079203
-0.087989
-0.104911
-0.155708
-0.16175
-0.102834
-0.0487407
-0.0395586
-0.0399242
-0.0273062
-0.0243142
-0.0269694
-0.029744
-0.000821984
0.0219768
0.0203969
0.00125291
-0.0207504
-0.0135662
-0.052444
0.0346735
0.114224
0.0804951
-0.0637406
-0.212444
-0.268749
-0.23002
-0.166791
-0.119025
-0.0946362
-0.0833197
-0.085478
-0.094353
-0.109704
-0.108214
-0.0790318
-0.0520801
-0.0556107
-0.0691553
-0.077062
-0.0977086
-0.15409
-0.162682
-0.100224
-0.0410355
-0.0280995
-0.0393644
-0.0309151
-0.0272698
-0.0286388
-0.0301914
-0.00272097
0.0210493
0.0199354
0.000215654
-0.022067
-0.0144509
-0.0862873
-0.0101299
0.0978724
0.106094
0.00231934
-0.146506
-0.21338
-0.199819
-0.15319
-0.115981
-0.0909691
-0.0759189
-0.0844238
-0.0970594
-0.111268
-0.107051
-0.0767372
-0.0498893
-0.050781
-0.0616608
-0.0651619
-0.086838
-0.148414
-0.159436
-0.095909
-0.0361395
-0.0184343
-0.0375805
-0.0337527
-0.0292232
-0.0302767
-0.0364291
-0.00484649
0.0200713
0.0195052
-0.000678092
-0.0232214
-0.0152528
-0.119615
-0.06397
0.010593
0.0709149
0.0355803
-0.0663512
-0.134519
-0.145396
-0.126747
-0.103147
-0.0862649
-0.0701697
-0.0741207
-0.0963797
-0.122754
-0.112323
-0.0788484
-0.0495003
-0.045489
-0.0543747
-0.0537542
-0.0740941
-0.138586
-0.157219
-0.0926749
-0.0348539
-0.00910518
-0.0345328
-0.0359163
-0.030313
-0.0317862
-0.0359522
-0.00677942
0.0188417
0.0190187
-0.0013528
-0.0241809
-0.0159478
-0.116894
-0.077089
-0.0144434
0.0388548
0.0312262
-0.0364741
-0.0878995
-0.106283
-0.0977798
-0.0793872
-0.0691199
-0.0605494
-0.0617971
-0.087114
-0.0970527
-0.10401
-0.0765309
-0.050756
-0.0456187
-0.050633
-0.0446159
-0.0654011
-0.121642
-0.143258
-0.0842378
-0.0344499
-0.0138191
-0.0330377
-0.0362016
-0.0307288
-0.0333333
-0.0366019
-0.00835754
0.0178199
0.0185378
-0.00206391
-0.0252517
-0.0166827
-0.10553
-0.0733073
-0.0293896
0.00485615
0.00896995
-0.0230468
-0.0544677
-0.067835
-0.0628144
-0.0536943
-0.0495194
-0.0423451
-0.0454212
-0.0832268
-0.138361
-0.0976779
-0.0687093
-0.0497773
-0.0444467
-0.0371499
-0.0292136
-0.0461978
-0.100019
-0.125727
-0.0683922
-0.0235002
-0.0119155
-0.0313066
-0.0362745
-0.0332659
-0.0346113
-0.0367085
-0.0101827
0.0162823
0.0172182
-0.00310258
-0.0262314
-0.0172922
-0.0873186
-0.0691307
-0.0413695
-0.0171792
-0.00713221
-0.0173075
-0.034678
-0.0437468
-0.0439183
-0.038016
-0.0335409
-0.0264399
-0.0186077
-0.0388481
-0.0676124
-0.0589493
-0.0475141
-0.0470479
-0.0435091
-0.030113
-0.0163346
-0.0226413
-0.0666646
-0.0934291
-0.0410221
-0.0104686
-0.0141703
-0.0294646
-0.0351301
-0.0344929
-0.0347794
-0.036848
-0.012392
0.0142709
0.0155847
-0.00404859
-0.0266246
-0.0175204
-0.0695053
-0.0614106
-0.0439799
-0.0265801
-0.0165658
-0.0168416
-0.0230975
-0.026762
-0.0239145
-0.0189304
-0.0117037
-0.00463329
0.00606641
0.00472335
-0.0123204
-0.00918128
-0.017652
-0.0378882
-0.0332629
-0.014631
0.000123427
0.00355849
-0.0290838
-0.0573898
-0.0131673
0.00178596
-0.010487
-0.0248527
-0.0322547
-0.0337298
-0.0343868
-0.0367886
-0.014512
0.0118081
0.0135341
-0.00463374
-0.0261414
-0.0172054
-0.0542334
-0.0512192
-0.0406589
-0.028701
-0.0199244
-0.0156547
-0.0156958
-0.0158657
-0.0135752
-0.00959344
-0.00151043
0.00749996
0.0245782
0.0412813
0.0284295
0.0239125
0.00871467
-0.0168704
-0.0174451
-0.00549179
0.00887577
0.027192
0.0108975
-0.0232413
0.00638777
0.0126723
-0.00570125
-0.0172371
-0.0272751
-0.0305713
-0.0328054
-0.0361543
-0.0165338
0.00901452
0.011195
-0.00466929
-0.0245705
-0.0162192
-0.0406371
-0.0403142
-0.0344788
-0.0263991
-0.0189161
-0.0134515
-0.0108563
-0.00838241
-0.0038108
0.00138008
0.0108071
0.0196376
0.0332337
0.0510756
0.042601
0.033567
0.0222619
0.00265697
0.000568365
0.00950258
0.016851
0.0355457
0.0198345
-0.00976203
0.00842636
0.0184734
0.00503962
-0.00553493
-0.020171
-0.025164
-0.0292304
-0.0339403
-0.0177275
0.00605809
0.00861785
-0.00407441
-0.021689
-0.0143896
-0.028657
-0.0298559
-0.0268543
-0.0213484
-0.0154847
-0.0102384
-0.00610689
-0.00239461
0.00207062
0.00664273
0.01405
0.0222456
0.0337594
0.0480031
0.0449825
0.0358231
0.0271868
0.01625
0.0136806
0.0148796
0.0188906
0.0373866
0.0278213
-0.00122139
0.00568676
0.0189413
0.0105368
0.00787662
-0.00709688
-0.0129128
-0.0219663
-0.0308952
-0.0172234
0.00359398
0.00617886
-0.00276196
-0.0174847
-0.0117344
-0.0186998
-0.0203961
-0.0189459
-0.0153204
-0.0109159
-0.00633238
-0.00222789
0.00162482
0.00591659
0.0105034
0.0172142
0.0246475
0.0323646
0.0410995
0.0420722
0.0351488
0.0283069
0.0221007
0.0214946
0.0215814
0.0218837
0.0337294
0.0294587
0.00742907
0.00945424
0.0187424
0.0159527
0.0173826
0.0103517
0.00703134
-0.0107175
-0.0252993
-0.0134916
0.00241632
0.00469762
-0.000567228
-0.012254
-0.00838909
-0.0103359
-0.0120887
-0.0115494
-0.00918143
-0.00588455
-0.00217795
0.0014731
0.00504915
0.00888605
0.0129008
0.0178869
0.023297
0.0288221
0.0344881
0.0365952
0.0330462
0.0284025
0.0245941
0.0244479
0.0233629
0.022461
0.0303452
0.0298598
0.0158951
0.0143166
0.0189763
0.0192233
0.0224813
0.0233778
0.0225165
0.00272636
-0.0136795
-0.0054123
0.00316188
0.00437035
0.00210492
-0.00653628
-0.00459832
-0.00343148
-0.00505594
-0.00494522
-0.00336095
-0.000950615
0.00185374
0.00477712
0.00775368
0.0108795
0.0141148
0.0179119
0.0220246
0.0260208
0.0296952
0.0315526
0.0304252
0.0277971
0.0251924
0.0256634
0.025373
0.0238251
0.0278355
0.0287513
0.020855
0.0183271
0.0200041
0.0210104
0.0244528
0.0285745
0.0294037
0.0138752
-9.40215e-05
0.00445301
0.00590933
0.00581339
0.00482555
-0.00168494
-0.00161245
0.00218722
0.000845965
0.000769164
0.00175794
0.0034102
0.0054851
0.00773927
0.0100863
0.0125151
0.015038
0.0178368
0.0207932
0.0236052
0.0260862
0.0275961
0.0276716
0.0266412
0.0251179
0.0250804
0.025114
0.0238454
0.0257019
0.0267883
0.022906
0.0200703
0.0205964
0.0215642
0.0246382
0.0286947
0.0297918
0.0198164
0.00949273
0.0114332
0.00943559
0.00854568
0.00720069
0.00147993
0.000135987
0.00684032
0.00573389
0.0055295
0.00612258
0.00725355
0.00874043
0.0104026
0.012145
0.0139316
0.0157773
0.0177829
0.0198875
0.0219112
0.0236735
0.0249077
0.0254144
0.0252471
0.0245788
0.0245603
0.0248262
0.0241708
0.0244471
0.0250426
0.0234637
0.0215935
0.0213643
0.0218615
0.0241485
0.0271829
0.0278901
0.0213693
0.0144585
0.0146863
0.0116327
0.010296
0.00843474
0.00335337
0.00119613
0.0105663
0.00966551
0.00943181
0.00978681
0.0105245
0.011525
0.0126804
0.0139301
0.0152096
0.0165099
0.0179123
0.019384
0.0208214
0.0220929
0.0230581
0.023667
0.0239271
0.0237864
0.0237252
0.0238039
0.0235885
0.0234752
0.0236852
0.0231584
0.0220733
0.0215086
0.0216471
0.0230976
0.0250907
0.0253365
0.0209408
0.01609
0.0150717
0.0121627
0.0103536
0.00839688
0.00424397
0.00170409
0.0135463
0.0128549
0.0126263
0.0128006
0.0132421
0.0138823
0.0146564
0.0155122
0.0163893
0.0172704
0.0182124
0.0192186
0.0202216
0.0211216
0.0218636
0.0224409
0.0228178
0.0229212
0.0229862
0.0231009
0.0230541
0.0229305
0.0227964
0.0225583
0.0220198
0.021496
0.0213646
0.0220389
0.0230988
0.0229034
0.0198227
0.0162368
0.0142558
0.0119581
0.0101075
0.00776494
0.00443468
0.00195489
0.0159535
0.015412
0.0151836
0.0152328
0.0154693
0.0158515
0.0163368
0.0168871
0.0174509
0.0180201
0.0186299
0.0192943
0.0199743
0.0206048
0.0211512
0.0215997
0.0219698
0.0221513
0.0222751
0.022356
0.0223369
0.0222484
0.0220503
0.0218732
0.0215328
0.0210829
0.0205992
0.020822
0.021254
0.0207881
0.0184941
0.015739
0.0137145
0.0114954
0.00956545
0.007122
0.0043071
0.00182131
0.0178468
0.0174246
0.0172112
0.0171821
0.0172748
0.0174695
0.0177413
0.0180669
0.0184024
0.0187405
0.0191065
0.019517
0.0199569
0.020358
0.0207312
0.0210507
0.0213422
0.0215104
0.0216172
0.0216831
0.0216623
0.0215952
0.021396
0.0212024
0.0209166
0.0205453
0.0201012
0.0198372
0.0197653
0.0190594
0.0172523
0.015092
0.0131711
0.0110814
0.00906654
0.00663371
0.00412075
0.00170649
0.0193314
0.0190036
0.0188053
0.0187222
0.018715
0.0187794
0.0189004
0.0190636
0.0192316
0.0194
0.019588
0.0198104
0.0200595
0.0202869
0.0205049
0.0207063
0.0208994
0.0210103
0.0210735
0.0211028
0.0210575
0.0209731
0.0207736
0.0205639
0.0202567
0.0198926
0.0193998
0.0189041
0.0184988
0.017669
0.0161934
0.0144231
0.0126458
0.0106609
0.00863363
0.00626733
0.00389808
0.00152304
0.0204789
0.0202194
0.0200345
0.0199182
0.0198457
0.0198211
0.0198357
0.0198817
0.019931
0.019979
0.0200426
0.0201287
0.0202429
0.0203434
0.0204553
0.0205252
0.0206049
0.0206391
0.0206355
0.0206122
0.0205256
0.0204095
0.0201927
0.0199558
0.0196125
0.0192078
0.0187058
0.0181054
0.0175144
0.0166036
0.0152769
0.0137814
0.0121512
0.010273
0.00829081
0.00601427
0.00376409
0.00142186
0.0213459
0.0211361
0.0209643
0.0208286
0.0207145
0.0206291
0.020571
0.0205339
0.0205014
0.0204635
0.0204381
0.0204226
0.020432
0.020427
0.0204305
0.0204164
0.0204049
0.0203678
0.0202961
0.0202196
0.0200804
0.0199222
0.0196783
0.0194009
0.0190341
0.0185784
0.0180386
0.017402
0.0167084
0.0157982
0.0146254
0.0133227
0.0117862
0.00995087
0.00805292
0.00583525
0.00361529
0.00133276
0.0219831
0.0218061
0.0216449
0.0214986
0.0213606
0.0212354
0.0211304
0.0210345
0.0209478
0.0208489
0.0207633
0.020675
0.0206068
0.020527
0.0204507
0.0203703
0.0202769
0.0201825
0.0200396
0.0199106
0.0197131
0.0195077
0.0192342
0.0189082
0.0185423
0.0180586
0.017564
0.016866
0.0161044
0.0152257
0.0141202
0.0129116
0.0114277
0.00965347
0.00781586
0.00571206
0.00349511
0.00125194
0.0224349
0.0222746
0.0221187
0.0219671
0.0218162
0.0216693
0.0215317
0.0213981
0.02127
0.0211347
0.021005
0.0208725
0.020746
0.0206147
0.0204796
0.020345
0.020195
0.0200413
0.0198542
0.0196644
0.019429
0.0191738
0.0188662
0.0185006
0.0180976
0.0175884
0.0170318
0.0163504
0.0155655
0.0146694
0.0135864
0.0123812
0.0109496
0.00925733
0.00747217
0.00548072
0.00336071
0.00116267
0.0227229
0.022572
0.0224198
0.0222664
0.0221097
0.0219519
0.0217953
0.0216394
0.021485
0.0213278
0.0211707
0.0210102
0.0208478
0.0206811
0.0205084
0.020334
0.0201454
0.0199508
0.019728
0.0194948
0.019228
0.0189323
0.0185979
0.0182055
0.0177704
0.0172492
0.0166646
0.0159753
0.0151761
0.0142689
0.013211
0.0119951
0.0106166
0.00902138
0.00727568
0.00536963
0.00329202
0.00113021
0.0228668
0.022719
0.0225676
0.0224135
0.0222552
0.0220933
0.0219283
0.0217612
0.0215935
0.0214247
0.0212543
0.0210805
0.0209004
0.0207161
0.020523
0.020328
0.0201187
0.0199017
0.0196599
0.0194028
0.0191176
0.0188005
0.0184491
0.0180395
0.0175861
0.0170537
0.0164537
0.0157574
0.0149545
0.01404
0.01299
0.0117821
0.0104189
0.00885619
0.00714266
0.00527802
0.00324923
0.00110702
-0.122021
-0.131619
-0.139629
-0.145181
-0.148422
-0.145199
-0.139001
-0.127538
-0.0965205
-0.101836
-0.105765
-0.108016
-0.108279
-0.107356
-0.106152
-0.109015
-0.0737319
-0.0767718
-0.0784095
-0.0802042
-0.0812962
-0.0843146
-0.0857129
-0.0893954
-0.0559953
-0.0577262
-0.0588452
-0.0609777
-0.0625781
-0.0651367
-0.0654296
-0.0673178
-0.0412487
-0.0425783
-0.0435062
-0.044905
-0.0455591
-0.0464311
-0.0467806
-0.0497372
-0.0294002
-0.0301143
-0.0305255
-0.0310674
-0.0314477
-0.0323845
-0.0337809
-0.0366987
-0.0194736
-0.0197926
-0.0199748
-0.0203121
-0.0208233
-0.0217223
-0.0228971
-0.025146
-0.0113657
-0.0114565
-0.0114994
-0.0116698
-0.0120365
-0.0126863
-0.0136533
-0.0156039
-0.00462671
-0.0045949
-0.00453706
-0.00460573
-0.00486622
-0.00536547
-0.00616087
-0.00776547
0.000961943
0.001037
0.00113097
0.00112286
0.000975149
0.000635989
1.45619e-06
-0.00131672
0.00561692
0.00569308
0.00580358
0.00585039
0.00577134
0.0054899
0.00493096
0.00385758
0.00950423
0.00955546
0.00963618
0.00965948
0.00956813
0.0093348
0.00891684
0.00811795
0.0126925
0.0126951
0.0127231
0.0127268
0.0126726
0.012524
0.0122116
0.0115795
0.0153239
0.0152856
0.0152758
0.015261
0.0152044
0.0150673
0.0148005
0.0143096
0.0174583
0.017382
0.0173278
0.0172753
0.0172012
0.0170814
0.0168787
0.01652
0.0191553
0.0190539
0.0189714
0.018898
0.0188182
0.0187115
0.0185471
0.0182741
0.0204966
0.0203825
0.0202828
0.0201924
0.0201008
0.0199953
0.0198552
0.0196486
0.0215334
0.0214132
0.0213041
0.0212031
0.0211041
0.0210002
0.0208782
0.0207186
0.0223186
0.0221979
0.0220859
0.0219811
0.021878
0.0217749
0.0216631
0.0215338
0.0228915
0.0227736
0.0226636
0.0225599
0.0224566
0.022355
0.0222495
0.0221387
0.0232921
0.0231782
0.0230733
0.0229737
0.0228739
0.0227746
0.0226734
0.0225716
0.023548
0.0234362
0.0233342
0.023238
0.0231418
0.0230452
0.0229469
0.0228494
0.02367
0.0235605
0.0234614
0.0233686
0.0232762
0.0231826
0.0230863
0.02299
0.0442633
0.0463942
0.0477981
0.0481933
0.0470335
0.0441692
0.0394274
0.0322597
0.0216998
0.00635897
-0.015697
-0.0471855
-0.0925371
-0.15496
-0.212421
0.0189547
0.0183699
0.0155975
0.0113671
0.00578338
-0.00153364
-0.0111639
-0.0239061
-0.0408532
-0.0634994
-0.0939103
-0.134798
-0.190597
-0.265184
-0.328361
-0.00637814
-0.00978035
-0.0165356
-0.0249156
-0.0345579
-0.0460789
-0.0603119
-0.0781934
-0.100898
-0.13001
-0.167765
-0.216967
-0.280899
-0.36614
-0.427962
-0.0326119
-0.0390093
-0.0489802
-0.0604738
-0.0734083
-0.0886127
-0.106962
-0.129381
-0.157087
-0.191689
-0.235429
-0.291698
-0.362113
-0.45043
-0.50955
-0.0587276
-0.0682412
-0.080704
-0.0945705
-0.110222
-0.128595
-0.150454
-0.176582
-0.208345
-0.247333
-0.295438
-0.35649
-0.431031
-0.517213
-0.571751
-0.0833423
-0.0960676
-0.110549
-0.126392
-0.144431
-0.165519
-0.190332
-0.219228
-0.254056
-0.296068
-0.347378
-0.410498
-0.485451
-0.566445
-0.61424
-0.105845
-0.121434
-0.137456
-0.155271
-0.175591
-0.198973
-0.225998
-0.257369
-0.294181
-0.337879
-0.390324
-0.453046
-0.525195
-0.597779
-0.638169
-0.127217
-0.143463
-0.161307
-0.181262
-0.203733
-0.229124
-0.257949
-0.290888
-0.328804
-0.372933
-0.424712
-0.484865
-0.551014
-0.611975
-0.645846
0.196886
0.211461
0.227781
0.246233
0.266874
0.289618
0.314387
0.341134
0.369783
0.400081
0.431449
0.46272
0.491901
0.514984
0.534
0.191678
0.205231
0.220685
0.238392
0.258269
0.280126
0.303852
0.329399
0.35668
0.385414
0.414972
0.444119
0.470768
0.490941
0.50709
0.182309
0.194063
0.208015
0.224413
0.242903
0.263109
0.284846
0.308036
0.332547
0.358026
0.383745
0.408347
0.429556
0.443546
0.453785
0.168763
0.178145
0.190141
0.204717
0.221158
0.238903
0.257717
0.277495
0.298027
0.318823
0.338974
0.356927
0.370096
0.374775
0.376664
0.151157
0.157827
0.16766
0.18012
0.194
0.208551
0.223536
0.238861
0.254257
0.269085
0.282213
0.291832
0.294983
0.28782
0.279298
0.129723
0.133347
0.140854
0.150956
0.161904
0.17281
0.183431
0.193643
0.203076
0.210929
0.215858
0.215804
0.207438
0.186716
0.165494
0.105111
0.106057
0.111417
0.118678
0.125925
0.132487
0.138223
0.142899
0.145919
0.146256
0.14234
0.131854
0.111136
0.0760992
0.041367
0.0764359
0.0761268
0.0802878
0.0845984
0.0876901
0.0894239
0.0898394
0.0885768
0.0848121
0.0772959
0.0642437
0.0430733
0.0097422
-0.0395693
-0.0870323
0.0386536
0.0431075
0.0393753
0.0433607
0.0408571
0.045188
0.0434399
0.0478263
0.0471957
0.0516581
0.0524171
0.057234
0.0597079
0.0653021
0.0700089
0.0771709
0.0845822
0.0943852
0.105404
0.119244
0.135007
0.154372
0.176612
0.0386412
0.0430599
0.039364
0.0433022
0.0408566
0.0451103
0.0434274
0.0477348
0.0471657
0.0515382
0.0523394
0.0571026
0.0595539
0.0651004
0.0697603
0.0767636
0.0841355
0.0939541
0.104443
0.117983
0.133015
0.151778
0.172811
0.0386392
0.042987
0.0393696
0.043215
0.0408773
0.0450002
0.0434404
0.0476083
0.0471691
0.0513834
0.0522961
0.0569307
0.0593913
0.0647591
0.0694275
0.0763925
0.0833683
0.0928383
0.102762
0.115827
0.129679
0.147359
0.166069
0.0386461
0.0428912
0.0393878
0.0431027
0.0409176
0.0448638
0.0434749
0.0474546
0.0472008
0.0512139
0.0522809
0.0567738
0.0592819
0.0646027
0.0692051
0.0759288
0.0826715
0.0919722
0.101016
0.113401
0.125428
0.141294
0.156325
0.038661
0.0427755
0.0394446
0.0429701
0.0409771
0.0447052
0.0435478
0.0472816
0.0472438
0.0510108
0.0522655
0.0565278
0.0590751
0.0641175
0.0686876
0.0750803
0.0814713
0.0901711
0.0982797
0.109591
0.119517
0.13303
0.143407
0.0386815
0.0426424
0.0394892
0.0428229
0.0410491
0.0445333
0.0436343
0.0471174
0.0473234
0.0508531
0.0523184
0.0564241
0.0590691
0.0640797
0.0685349
0.0748613
0.0807611
0.0890702
0.0959174
0.105916
0.112878
0.12316
0.127473
0.0387093
0.0424953
0.0395435
0.0426661
0.0411277
0.0443524
0.0437049
0.046924
0.0473631
0.0506282
0.0522766
0.0561009
0.0588013
0.0636209
0.0678182
0.073531
0.0790949
0.0862595
0.0921741
0.100214
0.104657
0.110966
0.108991
0.0387362
0.042341
0.0395988
0.0425106
0.0412081
0.0441969
0.0438256
0.0468152
0.0474953
0.0505939
0.0524396
0.0561892
0.0589977
0.0638605
0.0677943
0.0735931
0.0785104
0.0851292
0.0892456
0.0951793
0.0953872
0.0968398
0.0866578
0.0387643
0.0421314
0.0396734
0.0422775
0.0412991
0.0439018
0.0438639
0.0464893
0.0474565
0.050177
0.0522121
0.0555411
0.0582951
0.0625561
0.0662348
0.0707773
0.0751614
0.0792207
0.082257
0.08386
0.0813546
0.0746353
0.0586577
0.0388075
0.0418387
0.039774
0.0419519
0.041371
0.0434682
0.0438628
0.045896
0.047226
0.0493976
0.0515352
0.0541985
0.056901
0.0602487
0.063434
0.0664773
0.0696833
0.0713801
0.072464
0.0704367
0.0660221
0.0565494
0.0437681
0.0388747
0.0414729
0.0398955
0.0415562
0.0414696
0.0429477
0.0438467
0.0452762
0.0469115
0.0485984
0.0507686
0.0528334
0.0553459
0.0577898
0.0602958
0.0621173
0.0639046
0.0639115
0.0628991
0.059104
0.0531096
0.043761
0.0320531
0.0389662
0.0410245
0.0400421
0.0410941
0.0415442
0.042453
0.043721
0.0447073
0.0464388
0.0477398
0.0498023
0.0513041
0.0535121
0.0551096
0.0567988
0.0576328
0.0579151
0.0566629
0.054066
0.0492493
0.0426012
0.0337792
0.0233986
0.0390846
0.0404889
0.040185
0.0406688
0.0414984
0.0420148
0.0434745
0.0441247
0.0457902
0.0468334
0.0485842
0.0496654
0.0513875
0.0522729
0.0530465
0.0530604
0.0520811
0.0498669
0.0463363
0.0411457
0.0345763
0.026535
0.0174471
0.0392266
0.0399163
0.0402251
0.0403039
0.0413698
0.0415934
0.0430943
0.0435227
0.0449805
0.0458463
0.0471703
0.0478747
0.0490393
0.0492821
0.0492255
0.0485214
0.0466839
0.0438242
0.039943
0.0348231
0.0286893
0.0215191
0.0135083
0.0393546
0.0393741
0.0401387
0.0399838
0.0411375
0.0411789
0.0425716
0.042895
0.044029
0.0447456
0.0456005
0.0459346
0.0465559
0.0462277
0.0454962
0.044217
0.0418928
0.0387286
0.0348159
0.0300426
0.0245234
0.0182537
0.0112356
0.039438
0.0388742
0.039953
0.0396884
0.0407883
0.0407591
0.0419185
0.042193
0.0429725
0.0435128
0.0439231
0.0438915
0.0440168
0.0432238
0.0419997
0.0403109
0.0377985
0.0346034
0.0308487
0.0265544
0.0217243
0.0163596
0.0103747
0.0394452
0.0384392
0.0396546
0.0394031
0.0403291
0.0403143
0.0411655
0.0413985
0.0418412
0.042154
0.0421811
0.0418164
0.0415094
0.0403753
0.0388414
0.0369261
0.0344125
0.0313802
0.0279261
0.0241623
0.0200515
0.0155821
0.0106136
0.0393594
0.0380808
0.0392431
0.0391081
0.0397794
0.0398089
0.0403496
0.0404993
0.040651
0.0407048
0.0404182
0.0397858
0.03913
0.0377759
0.0360968
0.0341152
0.0317169
0.0289629
0.0259092
0.022691
0.0192703
0.0156207
0.0115758
0.0391676
0.037796
0.0387378
0.0387692
0.039176
0.0392199
0.0394941
0.0395084
0.0394183
0.0392153
0.0386836
0.0378617
0.0369553
0.0354952
0.0337933
0.0318697
0.0296681
0.0272476
0.0246354
0.0219437
0.0191423
0.016201
0.0129534
0.0388652
0.0375695
0.0381726
0.038334
0.0385467
0.0385537
0.0386111
0.0384571
0.0381661
0.0377446
0.0370341
0.0360937
0.0350433
0.0335678
0.0319258
0.030145
0.0281913
0.0261168
0.0239338
0.0217223
0.0194559
0.0171079
0.0145283
0.0384585
0.0373726
0.0376022
0.0377766
0.0378885
0.037835
0.0377137
0.0373858
0.0369271
0.0363451
0.0355198
0.0345229
0.0334125
0.0319874
0.0304646
0.0288774
0.0271934
0.0254491
0.0236501
0.0218525
0.0200328
0.0181711
0.0161423
0.0379659
0.0371541
0.0370762
0.0371185
0.037175
0.0370669
0.0368104
0.0363359
0.0357402
0.0350556
0.034181
0.0331735
0.0320601
0.0307278
0.0293615
0.027992
0.0265779
0.0251329
0.0236576
0.0221965
0.0207351
0.0192617
0.0176771
0.0374153
0.0368417
0.0365902
0.0364804
0.0364286
0.0362485
0.0359035
0.0353297
0.0346394
0.0339013
0.0330317
0.0320529
0.0309725
0.0297483
0.0285486
0.0273992
0.0262439
0.0250657
0.0238563
0.0226591
0.0214775
0.02031
0.0190772
0.0368369
0.0364367
0.0361237
0.0358737
0.035682
0.0354157
0.0350058
0.0343812
0.0336439
0.0328933
0.0320712
0.031155
0.0301305
0.0290117
0.0279646
0.0270156
0.0260938
0.02515
0.0241622
0.023173
0.0222073
0.0212762
0.0203193
0.0362556
0.0359597
0.0356332
0.0352914
0.0349739
0.0346201
0.0341562
0.0335095
0.0327625
0.0320311
0.031279
0.0304466
0.0295023
0.0284898
0.0275729
0.0267851
0.0260532
0.0253062
0.0245074
0.0236907
0.0228938
0.0221418
0.0213941
0.0356917
0.0354501
0.0351168
0.0347275
0.0343236
0.0338883
0.0333802
0.0327354
0.0320031
0.0313072
0.0306304
0.0298878
0.0290405
0.0281405
0.0273344
0.0266643
0.0260696
0.0254769
0.0248384
0.0241712
0.0235122
0.0228961
0.0223042
0.0351536
0.0349343
0.0346005
0.0341928
0.0337382
0.0332439
0.0327062
0.0320728
0.0313664
0.0307107
0.0301058
0.0294536
0.0287083
0.0279208
0.0272102
0.0266218
0.026116
0.0256337
0.025125
0.0245869
0.0240432
0.0235296
0.0230499
0.0346626
0.0344514
0.0341116
0.0337009
0.0332284
0.0326967
0.0321395
0.0315285
0.0308551
0.0302335
0.0296887
0.0291216
0.0284748
0.0277924
0.027166
0.0266373
0.0261884
0.0257808
0.0253707
0.024938
0.0244891
0.024054
0.0236522
0.034241
0.0340377
0.0336926
0.0332747
0.032801
0.0322603
0.0316928
0.0310984
0.0304624
0.0298694
0.0293594
0.028857
0.0282988
0.0277083
0.0271533
0.0266722
0.0262662
0.0259135
0.0255755
0.0252216
0.0248462
0.0244744
0.0241364
0.0339171
0.0337198
0.0333746
0.0329458
0.0324764
0.0319499
0.0313783
0.0307915
0.0301981
0.0296366
0.0291403
0.0286777
0.028194
0.0276813
0.0271782
0.0267242
0.0263372
0.0260084
0.0257058
0.025397
0.0250712
0.0247471
0.0244529
0.0337406
0.0335473
0.033199
0.0327602
0.0322873
0.031764
0.0311921
0.0306142
0.0300475
0.0295057
0.0290155
0.028569
0.0281239
0.027657
0.02719
0.0267605
0.02639
0.0260755
0.0257932
0.0255151
0.0252275
0.0249401
0.024677
0.0401202
0.0180022
-0.00764036
-0.0312489
-0.0531352
-0.0738102
-0.0928324
-0.109021
0.0293244
0.00868586
-0.0157059
-0.0365029
-0.0526389
-0.0665311
-0.0787628
-0.0888118
0.0203006
0.00422596
-0.0159602
-0.0326361
-0.044005
-0.0532044
-0.061534
-0.0687533
0.0133352
0.000474761
-0.0157152
-0.0291446
-0.0377361
-0.0438599
-0.0490097
-0.0533078
0.00881141
-0.00131198
-0.0135618
-0.0235781
-0.0297683
-0.0336798
-0.0367873
-0.0394608
0.00594393
-0.00190923
-0.0104867
-0.0175991
-0.0221826
-0.0248871
-0.0268227
-0.0283702
0.00456866
-0.00143366
-0.00692971
-0.0115065
-0.0147754
-0.0167602
-0.018042
-0.0189179
0.00471495
0.000220099
-0.0031296
-0.0058695
-0.00809521
-0.0096071
-0.0105579
-0.0110917
0.00593873
0.00261283
0.000667111
-0.000854575
-0.00229171
-0.00341594
-0.00414597
-0.00450407
0.00779398
0.00534978
0.0042895
0.00354174
0.00267109
0.00186292
0.00129614
0.00102631
0.00994268
0.00815736
0.00764066
0.0073655
0.006883
0.0063215
0.00588249
0.00566184
0.0121641
0.0108696
0.0106737
0.0106687
0.0104395
0.0100651
0.00973278
0.00955005
0.0143155
0.0133897
0.0133729
0.0135039
0.0134232
0.013176
0.0129203
0.0127578
0.0162875
0.0156383
0.0157154
0.015907
0.0159137
0.0157566
0.01556
0.0154111
0.0180307
0.0175822
0.0177004
0.0179099
0.0179666
0.0178694
0.0177114
0.0175673
0.0195393
0.019235
0.0193619
0.0195547
0.0196226
0.0195547
0.0194194
0.0192783
0.0208162
0.020613
0.0207297
0.0208876
0.020943
0.0208844
0.020762
0.0206253
0.0218751
0.0217396
0.0218355
0.0219521
0.0219828
0.0219191
0.0217997
0.0216644
0.0227248
0.0226301
0.0227004
0.0227767
0.0227805
0.0227064
0.0225849
0.0224499
0.023392
0.0233141
0.0233536
0.0233915
0.0233687
0.0232823
0.0231566
0.0230213
0.0239209
0.0238416
0.0238396
0.0238338
0.0237823
0.0236827
0.0235536
0.0234189
0.0242648
0.024183
0.0241521
0.0241156
0.0240445
0.0239369
0.0238068
0.0236732
0.0244973
0.0243949
0.0243244
0.024254
0.024164
0.0240509
0.0239226
0.0237923
-0.382911
-0.393939
-0.409666
-0.429924
-0.455898
-0.488665
-0.523269
-0.552769
-0.381378
-0.391165
-0.404617
-0.42191
-0.443538
-0.469789
-0.499112
-0.524907
-0.375482
-0.385603
-0.398006
-0.413149
-0.43199
-0.452668
-0.470769
-0.481899
-0.367012
-0.378048
-0.389704
-0.401868
-0.414437
-0.425397
-0.431351
-0.429534
-0.358186
-0.369074
-0.378229
-0.385056
-0.389671
-0.391338
-0.388294
-0.378479
-0.35068
-0.358898
-0.363198
-0.363731
-0.361538
-0.356636
-0.347802
-0.333145
-0.34541
-0.348017
-0.345933
-0.34062
-0.333405
-0.324159
-0.311636
-0.294059
-0.342002
-0.336686
-0.327836
-0.317708
-0.306792
-0.294653
-0.279724
-0.260423
-0.338774
-0.324555
-0.309753
-0.295763
-0.282145
-0.267985
-0.251518
-0.231267
-0.333574
-0.311209
-0.29184
-0.274904
-0.259337
-0.243825
-0.226448
-0.205845
-0.324755
-0.296291
-0.273969
-0.25482
-0.238138
-0.221739
-0.204036
-0.183526
-0.311196
-0.28007
-0.255566
-0.235444
-0.218119
-0.201415
-0.183828
-0.16382
-0.295015
-0.261871
-0.23667
-0.216459
-0.198989
-0.182601
-0.16546
-0.146368
-0.273544
-0.241248
-0.217264
-0.197678
-0.180914
-0.164979
-0.148714
-0.130732
-0.248334
-0.220465
-0.197357
-0.179813
-0.163262
-0.148129
-0.132748
-0.116511
-0.41838
-0.416026
-0.411935
-0.405313
-0.396783
-0.387924
-0.380717
-0.378295
-0.418575
-0.413905
-0.40789
-0.400228
-0.391858
-0.384162
-0.378436
-0.376809
-0.418956