/*--------------------------------*- C++ -*----------------------------------*\
| =========                 |                                                 |
| \\      /  F ield         | OpenFOAM: The Open Source CFD Toolbox           |
|  \\    /   O peration     | Version:  2312                                  |
|   \\  /    A nd           | Website:  www.openfoam.com                      |
|    \\/     M anipulation  |                                                 |
\*---------------------------------------------------------------------------*/
FoamFile
{
    version     2.0;
    format      ascii;
    arch        "LSB;label=32;scalar=64";
    class       volScalarField;
    location    "14.5";
    object      p;
}
// * * * * * * * * * * * * * * * * * * * * * * * * * * * * * * * * * * * * * //

dimensions      [0 2 -2 0 0 0 0];

internalField   nonuniform List<scalar> 
9200
(
-0.232504
-0.286807
-0.327294
-0.305768
-0.23457
-0.145404
-0.0736232
-0.0451508
-0.0495108
-0.0786063
-0.123783
-0.172618
-0.219943
-0.273102
-0.317489
-0.345103
-0.356488
-0.360195
-0.351961
-0.336239
-0.37588
-0.457326
-0.533883
-0.494927
-0.382557
-0.262043
-0.1641
-0.113836
-0.102094
-0.114637
-0.141351
-0.173162
-0.207476
-0.234965
-0.259048
-0.278982
-0.283156
-0.28517
-0.28437
-0.280344
-0.537616
-0.601484
-0.696869
-0.663479
-0.513729
-0.376888
-0.275059
-0.212588
-0.187264
-0.181442
-0.188047
-0.198172
-0.210952
-0.228153
-0.235046
-0.242095
-0.252021
-0.248417
-0.241092
-0.234779
-0.611692
-0.658126
-0.742012
-0.717812
-0.571317
-0.433347
-0.330773
-0.267488
-0.232335
-0.214626
-0.207956
-0.208422
-0.207502
-0.210935
-0.220292
-0.22286
-0.22189
-0.221463
-0.215404
-0.207085
-0.597837
-0.626935
-0.64931
-0.651893
-0.555125
-0.446816
-0.360474
-0.302836
-0.265442
-0.242102
-0.227113
-0.21871
-0.215403
-0.212201
-0.208108
-0.20438
-0.201954
-0.199577
-0.196783
-0.192705
-0.530623
-0.532154
-0.57079
-0.565335
-0.506922
-0.431343
-0.365657
-0.317588
-0.283235
-0.257778
-0.240381
-0.228024
-0.217157
-0.208876
-0.203809
-0.19781
-0.188912
-0.180567
-0.173615
-0.167995
-0.496243
-0.417934
-0.52336
-0.502412
-0.458687
-0.404134
-0.352376
-0.310673
-0.279448
-0.255542
-0.234581
-0.218022
-0.207572
-0.198742
-0.190778
-0.184957
-0.178591
-0.171051
-0.163302
-0.155354
-0.515303
-0.453207
-0.467888
-0.449981
-0.415823
-0.376091
-0.33699
-0.30287
-0.275272
-0.253723
-0.236735
-0.220359
-0.203828
-0.190539
-0.17948
-0.170795
-0.163552
-0.156933
-0.150595
-0.143785
-0.458855
-0.501882
-0.443712
-0.402809
-0.373469
-0.344376
-0.315542
-0.287275
-0.261526
-0.23961
-0.22102
-0.207146
-0.194997
-0.182181
-0.170038
-0.158413
-0.147504
-0.139164
-0.130668
-0.123884
-0.343653
-0.387247
-0.395559
-0.369935
-0.344261
-0.317795
-0.292457
-0.268414
-0.245193
-0.223575
-0.204563
-0.188547
-0.175605
-0.165089
-0.15594
-0.147502
-0.139074
-0.130584
-0.123058
-0.115083
-0.247879
-0.248138
-0.281921
-0.336546
-0.407458
-0.488361
-0.579582
-0.681744
-0.794038
-0.916326
-1.05105
-1.19667
-1.34523
-1.48909
-1.61326
-1.7084
-1.76232
-1.76618
-1.7349
-1.64965
-0.25917
-0.255556
-0.292839
-0.346215
-0.415589
-0.495838
-0.586992
-0.689796
-0.805992
-0.937504
-1.08256
-1.23616
-1.39628
-1.55345
-1.68028
-1.77406
-1.83622
-1.838
-1.79932
-1.71751
-0.238133
-0.240243
-0.280617
-0.336192
-0.406929
-0.487687
-0.577262
-0.681481
-0.7998
-0.931155
-1.07818
-1.23181
-1.38709
-1.53907
-1.66495
-1.75434
-1.81612
-1.82602
-1.79521
-1.72686
-0.177378
-0.198581
-0.248748
-0.308796
-0.380134
-0.460182
-0.550849
-0.652749
-0.765605
-0.890441
-1.02649
-1.17078
-1.31189
-1.4492
-1.56978
-1.65917
-1.71754
-1.73408
-1.71698
-1.66336
-0.124618
-0.148454
-0.202612
-0.266393
-0.339567
-0.417746
-0.501854
-0.593936
-0.694284
-0.808899
-0.930607
-1.05838
-1.18624
-1.30983
-1.4186
-1.50512
-1.5619
-1.58538
-1.58742
-1.5602
-0.133417
-0.137906
-0.174067
-0.225451
-0.285701
-0.353312
-0.423928
-0.505492
-0.596308
-0.696883
-0.803968
-0.914993
-1.02689
-1.13465
-1.23387
-1.31474
-1.36332
-1.38883
-1.41024
-1.39064
-0.164418
-0.146688
-0.164808
-0.197884
-0.232408
-0.274854
-0.3255
-0.391201
-0.471739
-0.556888
-0.653782
-0.754377
-0.851096
-0.942512
-1.03232
-1.1014
-1.1396
-1.16522
-1.18968
-1.16282
-0.176254
-0.168202
-0.183057
-0.193337
-0.192429
-0.191183
-0.209643
-0.249818
-0.316098
-0.393198
-0.481525
-0.569223
-0.654571
-0.732825
-0.806629
-0.8611
-0.89578
-0.923932
-0.938923
-0.899547
-0.208893
-0.208673
-0.215106
-0.214474
-0.170519
-0.126888
-0.10615
-0.11206
-0.148392
-0.209395
-0.284304
-0.361747
-0.435823
-0.503363
-0.574319
-0.620939
-0.657247
-0.678284
-0.680974
-0.646305
-0.221287
-0.239494
-0.244216
-0.220929
-0.166126
-0.100747
-0.0525338
-0.0434137
-0.0643396
-0.105217
-0.156858
-0.228486
-0.299572
-0.354245
-0.40183
-0.447623
-0.479252
-0.48481
-0.478835
-0.455089
-1.48114
-1.2496
-0.976562
-0.716686
-0.497378
-0.326508
-0.200664
-0.106366
-0.036552
0.0106498
0.0393667
0.0548381
0.0622098
0.064511
0.0638223
0.061696
0.0587261
0.0544898
0.0494839
0.0444526
0.0396181
0.0348827
0.0303601
0.0263116
0.0227863
0.0196758
0.016827
0.0143041
0.0121822
0.0103576
0.0086518
0.00713874
0.0058001
0.00465128
0.00370826
0.00293344
0.00231693
0.00182092
0.00142595
0.0011201
0.000864035
0.000692963
0.000524142
0.00042911
0.000329105
0.00025504
0.000205147
0.000136607
8.35339e-05
2.11265e-05
-1.54859
-1.31315
-1.05006
-0.783558
-0.557014
-0.386396
-0.258526
-0.160369
-0.0834653
-0.0257954
0.0117909
0.0333167
0.0454468
0.0517065
0.0541392
0.0544572
0.053234
0.0503302
0.0462498
0.0419568
0.0378201
0.0336887
0.0295569
0.0257889
0.0224318
0.0194494
0.0167004
0.0142706
0.0122376
0.0104958
0.00878948
0.00726247
0.00588918
0.00470918
0.0037432
0.0029591
0.00233639
0.00183634
0.00143955
0.00112731
0.000876117
0.000697722
0.000534736
0.000435017
0.000336356
0.000262809
0.000210897
0.000142588
8.49749e-05
2.00467e-05
-1.5748
-1.33637
-1.07345
-0.817558
-0.595847
-0.419149
-0.289077
-0.191989
-0.118232
-0.0627599
-0.0215671
0.00760549
0.0265241
0.0376338
0.0435365
0.0462476
0.0468941
0.0457095
0.0428986
0.039341
0.0358031
0.0323027
0.0286733
0.0251403
0.021928
0.0190363
0.0164358
0.014156
0.0121841
0.0104546
0.00879686
0.00730829
0.00594526
0.00475768
0.00377708
0.00298398
0.00235372
0.00184955
0.00145216
0.00113535
0.000889479
0.000703471
0.00054732
0.000442183
0.000346083
0.000271974
0.000218295
0.000150106
8.86458e-05
1.75413e-05
-1.52004
-1.30007
-1.05401
-0.808932
-0.607475
-0.451737
-0.328734
-0.224283
-0.143064
-0.0866214
-0.0459163
-0.0153199
0.00727891
0.0229651
0.0325572
0.0377077
0.0400018
0.0402944
0.0388972
0.0364136
0.0335779
0.0306518
0.027537
0.0242887
0.021153
0.0183733
0.0159778
0.0139122
0.0120566
0.0103407
0.00866919
0.00723888
0.00592223
0.004764
0.00379499
0.00300855
0.00237775
0.00187056
0.00147164
0.00114885
0.0009071
0.000712211
0.000562047
0.000450339
0.000357734
0.000282266
0.000228771
0.000160074
9.58184e-05
1.95832e-05
-1.43641
-1.23695
-1.01727
-0.788439
-0.597811
-0.450719
-0.339884
-0.250171
-0.171251
-0.110023
-0.0644698
-0.0308886
-0.00698117
0.0102973
0.0222732
0.0294644
0.0334811
0.0351729
0.0349909
0.0334736
0.0313382
0.0289393
0.0263438
0.0235312
0.0206804
0.0179778
0.015642
0.0136892
0.0119203
0.010203
0.00857783
0.00715541
0.00587471
0.00474372
0.00378589
0.00300534
0.00237549
0.00186935
0.00147344
0.00115013
0.000915379
0.000716084
0.000574078
0.000458093
0.0003695
0.000293046
0.000239628
0.000171135
0.000104173
2.17003e-05
-1.25842
-1.1004
-0.932949
-0.748778
-0.591418
-0.460396
-0.348466
-0.257495
-0.184342
-0.1276
-0.0830996
-0.046925
-0.020243
-0.001272
0.0123134
0.0212409
0.0267425
0.0300365
0.0311806
0.030447
0.0288263
0.0269029
0.0247847
0.0223646
0.0196933
0.0171141
0.0149576
0.0132063
0.0116077
0.00998161
0.00841291
0.00701866
0.00579891
0.00472347
0.00379327
0.0030258
0.00239712
0.00188858
0.0014914
0.0011629
0.000930492
0.000723764
0.000586407
0.000464522
0.00037887
0.000300683
0.000247424
0.000179017
0.000109198
1.93498e-05
-1.01705
-0.917971
-0.806121
-0.671491
-0.557648
-0.459879
-0.370662
-0.290732
-0.216094
-0.149568
-0.100669
-0.0642317
-0.0368521
-0.0160252
0.000435167
0.0120871
0.0193794
0.0240973
0.0268482
0.0273605
0.0264619
0.0251163
0.0235875
0.0216598
0.0192852
0.0168409
0.0147003
0.0129773
0.0114395
0.00987099
0.00856597
0.00685963
0.0056724
0.00464208
0.00374124
0.00299382
0.0023753
0.00187401
0.0014835
0.00115723
0.000932004
0.000723065
0.000593962
0.000469269
0.000389142
0.000310315
0.000258686
0.000190259
0.000118673
2.59565e-05
-0.769561
-0.727017
-0.679735
-0.591248
-0.500388
-0.418661
-0.348315
-0.288018
-0.229754
-0.17473
-0.124693
-0.0837687
-0.0535886
-0.0317797
-0.0143664
-0.000381169
0.00978864
0.0169242
0.0213502
0.0231932
0.0231181
0.0223328
0.0213562
0.0199922
0.0180428
0.0158587
0.0139213
0.0123674
0.0110007
0.00959682
0.00823498
0.00667964
0.00558685
0.00460835
0.00372982
0.00299575
0.00237953
0.00188016
0.00148978
0.00116297
0.000939255
0.000728378
0.000602456
0.000475203
0.000397288
0.000317472
0.000265833
0.00019792
0.000124545
2.49773e-05
-0.559003
-0.559461
-0.554758
-0.513466
-0.462493
-0.403908
-0.341077
-0.280609
-0.225153
-0.179293
-0.138223
-0.0990806
-0.0647678
-0.0397069
-0.0217651
-0.00776994
0.00279025
0.0104364
0.0159586
0.0192737
0.0205123
0.0205153
0.0200159
0.019016
0.0173999
0.0154639
0.0136265
0.0120857
0.0107253
0.00935555
0.00793499
0.00644397
0.00544487
0.00451074
0.00366297
0.00295319
0.00235139
0.00186373
0.00147988
0.00115812
0.000937327
0.000728175
0.000605411
0.000478264
0.000403654
0.000323796
0.000272984
0.00020579
0.000131115
3.15372e-05
-0.425529
-0.442549
-0.448126
-0.430374
-0.402174
-0.370431
-0.332611
-0.289538
-0.243544
-0.199318
-0.159164
-0.122827
-0.0901909
-0.062294
-0.0397355
-0.0213497
-0.00781586
0.00143954
0.00836855
0.0132901
0.0158392
0.0168094
0.0170516
0.016882
0.0160099
0.0145123
0.0129267
0.011583
0.010366
0.00910058
0.00768701
0.00628087
0.00537256
0.00446409
0.00362326
0.00292516
0.00232852
0.00184945
0.00146764
0.00115224
0.000932188
0.000728578
0.000606933
0.000483156
0.000409179
0.000331475
0.000278964
0.000213834
0.00013828
3.97993e-05
-0.365849
-0.392935
-0.39108
-0.370811
-0.345127
-0.31793
-0.288387
-0.254734
-0.218415
-0.181651
-0.14521
-0.112247
-0.0845727
-0.0618799
-0.0428231
-0.0258127
-0.0117103
-0.00154191
0.00560145
0.0106351
0.0134753
0.014637
0.0151382
0.0153379
0.0148941
0.013605
0.0120014
0.0107053
0.00968224
0.00865007
0.00738179
0.00623539
0.00524024
0.00437127
0.00356573
0.00289038
0.00230837
0.00184028
0.00146027
0.00115384
0.000928899
0.000734017
0.000606755
0.00048885
0.000411899
0.000337731
0.000281962
0.000219345
0.000142234
4.66255e-05
-0.29857
-0.331371
-0.338075
-0.321372
-0.296383
-0.271054
-0.24661
-0.22177
-0.195351
-0.166834
-0.137471
-0.10936
-0.0838487
-0.0626577
-0.0452403
-0.0298276
-0.0168556
-0.00706468
0.000362319
0.00606
0.00962959
0.0111821
0.0120268
0.0127538
0.0128069
0.0118603
0.0105492
0.00954528
0.00877164
0.00794505
0.00688547
0.00477965
0.00481993
0.00404545
0.00332476
0.00271797
0.00218847
0.00175583
0.00140095
0.00111414
0.00089914
0.000718386
0.000594507
0.000486526
0.000412026
0.000341908
0.000287659
0.000225108
0.000149283
5.75799e-05
-0.248962
-0.280331
-0.290695
-0.280893
-0.26319
-0.24421
-0.225503
-0.204604
-0.180119
-0.154259
-0.129631
-0.106314
-0.0839231
-0.063853
-0.0462732
-0.0310614
-0.0191872
-0.0101456
-0.00290064
0.00277796
0.00667429
0.0088901
0.0102292
0.0111982
0.0114305
0.0107198
0.00968011
0.0088496
0.00817215
0.00741825
0.0065398
0.00638531
0.00460991
0.00377649
0.00309424
0.00252542
0.00203796
0.0016385
0.00131352
0.00104979
0.000853298
0.000688581
0.000575418
0.000476753
0.000408379
0.000342298
0.000291133
0.000229249
0.000154588
6.09597e-05
-0.214945
-0.239935
-0.25152
-0.246363
-0.230146
-0.21069
-0.192374
-0.175819
-0.15815
-0.138214
-0.117881
-0.098399
-0.0795657
-0.0622413
-0.0468079
-0.0329697
-0.0216147
-0.0129877
-0.00627929
-0.00072715
0.00346083
0.0059085
0.00730799
0.00854667
0.00929257
0.00901865
0.00819767
0.00754302
0.00708569
0.00655837
0.00585277
0.00526234
0.00418413
0.00341548
0.00280753
0.00230498
0.00187406
0.00151501
0.00122227
0.000982127
0.000802152
0.000652716
0.000548045
0.000459105
0.00039582
0.000335364
0.000285643
0.000227114
0.00015061
5.28574e-05
-0.184484
-0.205622
-0.21608
-0.212087
-0.20032
-0.187116
-0.173602
-0.159238
-0.143844
-0.127708
-0.111832
-0.0962828
-0.0797539
-0.0639221
-0.0498918
-0.0369753
-0.026201
-0.0175793
-0.0102143
-0.00414203
0.000292267
0.00297595
0.00475158
0.00640753
0.00745909
0.00729819
0.00668334
0.00637432
0.00623878
0.00592862
0.00536106
0.00485794
0.0037917
0.00307639
0.00253061
0.00208254
0.00170301
0.00138292
0.00112164
0.000904894
0.000742965
0.000611015
0.000516671
0.000440184
0.00038181
0.000328667
0.000280016
0.00022477
0.000147425
5.07271e-05
-0.158822
-0.176684
-0.186146
-0.185372
-0.1771
-0.165168
-0.152498
-0.140584
-0.129075
-0.116541
-0.102766
-0.0888443
-0.0742581
-0.0600059
-0.0473167
-0.0359159
-0.0262857
-0.0184602
-0.0119302
-0.00656978
-0.0021821
0.000871093
0.00271382
0.00437837
0.00571205
0.00602929
0.00569783
0.00540385
0.00529315
0.00501088
0.00452046
0.00394783
0.00324474
0.00266206
0.00220267
0.00182388
0.00150278
0.00122829
0.0010046
0.000818566
0.000680371
0.000569032
0.000487888
0.000423252
0.000372184
0.000325137
0.000279593
0.000226469
0.000150974
5.75157e-05
-0.137799
-0.15273
-0.161258
-0.161062
-0.154451
-0.145185
-0.135505
-0.12608
-0.11637
-0.10552
-0.0939448
-0.0826568
-0.0710398
-0.0597973
-0.0496799
-0.039573
-0.0302018
-0.0224076
-0.0157905
-0.0103112
-0.00588895
-0.0027013
-0.000498073
0.0015957
0.00333273
0.0038251
0.00363708
0.00375951
0.00404648
0.00406374
0.00377348
0.00332979
0.00273467
0.00223845
0.00185291
0.0015399
0.00128066
0.00105912
0.000878646
0.000727247
0.000612415
0.000522734
0.000454444
0.000403061
0.000361579
0.00031967
0.000281022
0.000228785
0.000156129
6.22814e-05
-0.119383
-0.13185
-0.139215
-0.139833
-0.135335
-0.128079
-0.120134
-0.112361
-0.104106
-0.0951561
-0.0860585
-0.0772021
-0.0676479
-0.057501
-0.0478224
-0.038484
-0.0300876
-0.0230202
-0.0168917
-0.0118085
-0.00752906
-0.00416035
-0.00189525
0.000133042
0.0019836
0.0027828
0.00281423
0.00291412
0.00319178
0.00324214
0.0029992
0.00260768
0.00215283
0.00176787
0.00146939
0.00123414
0.00104457
0.000877989
0.000739404
0.000621479
0.000531085
0.000465952
0.000412725
0.000378487
0.000346406
0.000312087
0.000281136
0.000229284
0.000159875
6.27661e-05
-0.103261
-0.113922
-0.120471
-0.121589
-0.118302
-0.112646
-0.106295
-0.0997291
-0.0930156
-0.0862593
-0.0790604
-0.0713075
-0.0628909
-0.0544248
-0.046664
-0.0389081
-0.0314206
-0.0249047
-0.0192191
-0.0144588
-0.0104357
-0.00721713
-0.00489529
-0.00264978
-0.00047892
0.000555034
0.000756454
0.00116544
0.00176899
0.00207935
0.00203843
0.00182001
0.00153114
0.00126274
0.00106251
0.000911648
0.000788404
0.000672902
0.000577664
0.000498706
0.000439088
0.000401775
0.000367067
0.000350433
0.000328857
0.000304054
0.000279302
0.000229929
0.000162939
6.29953e-05
-0.0894551
-0.0984953
-0.104283
-0.105618
-0.103381
-0.0989382
-0.0936927
-0.0886039
-0.0835431
-0.0778691
-0.0715195
-0.0652674
-0.0588542
-0.0520085
-0.0451463
-0.0381698
-0.0316112
-0.0258881
-0.0206742
-0.0161358
-0.0121704
-0.00882615
-0.00640346
-0.00415502
-0.00189292
-0.000643024
-0.000281028
0.000178212
0.000852858
0.00123731
0.00125533
0.00110866
0.000914091
0.00074833
0.000639468
0.000562454
0.000501212
0.000442946
0.000399923
0.000366504
0.000340353
0.000331988
0.000317497
0.000318457
0.000310647
0.000294611
0.000277401
0.000232192
0.000165843
6.44115e-05
-0.0774192
-0.0851137
-0.0901889
-0.0917134
-0.0902196
-0.0867485
-0.0827397
-0.0787056
-0.0743309
-0.0696543
-0.0648914
-0.0601125
-0.0546615
-0.0487208
-0.0430157
-0.0372813
-0.0317164
-0.0265647
-0.0216767
-0.0173928
-0.013646
-0.0105219
-0.00829503
-0.00613284
-0.0037771
-0.00236659
-0.00189498
-0.00131641
-0.000480932
8.10175e-05
0.000263122
0.000270974
0.00023237
0.000191023
0.000176684
0.00017832
0.000190269
0.000199187
0.000211722
0.000224092
0.00023208
0.000254588
0.000262554
0.000283195
0.000291127
0.000283892
0.000276668
0.000234941
0.000168749
6.65306e-05
-0.0669149
-0.0734881
-0.0779381
-0.0795397
-0.0786611
-0.0760359
-0.0727939
-0.0694562
-0.0660688
-0.0625631
-0.0587333
-0.0547142
-0.0502655
-0.045571
-0.0409615
-0.0360281
-0.0311371
-0.0266068
-0.0222827
-0.0184635
-0.0150033
-0.0119765
-0.00980342
-0.00772534
-0.00536802
-0.0038187
-0.00319543
-0.00250163
-0.00154918
-0.000879599
-0.000608045
-0.000503443
-0.000436825
-0.000380911
-0.000308241
-0.00022342
-0.000133504
-5.80095e-05
8.29948e-06
6.77243e-05
0.000113679
0.000170032
0.000203282
0.000245223
0.000269931
0.000273159
0.000276239
0.000237836
0.000172465
6.89458e-05
-0.0577304
-0.0633542
-0.0672513
-0.0688931
-0.0684848
-0.0664741
-0.0639337
-0.0613558
-0.0586951
-0.0558444
-0.0527406
-0.0496392
-0.0461708
-0.0423481
-0.0384847
-0.0343203
-0.0302582
-0.0264397
-0.0226126
-0.0191434
-0.0159369
-0.0130883
-0.0110772
-0.00913332
-0.00678578
-0.00512659
-0.00441307
-0.00368419
-0.0026835
-0.0019254
-0.00154811
-0.00132959
-0.001146
-0.000982767
-0.000813543
-0.000640891
-0.000474679
-0.000333606
-0.000210644
-9.99352e-05
-1.23386e-05
7.97779e-05
0.000140458
0.000204689
0.000247771
0.000262718
0.000275777
0.000241957
0.000177327
7.14773e-05
-0.0497116
-0.0545309
-0.0579686
-0.0596175
-0.0595494
-0.0580452
-0.0560682
-0.0540107
-0.0518732
-0.0496518
-0.04727
-0.0448685
-0.0420821
-0.0390054
-0.0359179
-0.0325023
-0.0291172
-0.025853
-0.0225039
-0.0194744
-0.0166011
-0.0139394
-0.0120614
-0.0102613
-0.00800613
-0.00633315
-0.00556443
-0.00478736
-0.00373398
-0.00290566
-0.00244783
-0.00214012
-0.00185682
-0.00159304
-0.00133025
-0.00107419
-0.000833
-0.000623312
-0.000439893
-0.000275744
-0.000144754
-1.53867e-05
7.46228e-05
0.000162503
0.000225396
0.000252809
0.000276238
0.000247872
0.000183222
7.42716e-05
-0.0427744
-0.0468962
-0.0498871
-0.051479
-0.051647
-0.0505398
-0.0490365
-0.0474164
-0.0457315
-0.0440208
-0.0421545
-0.0403136
-0.0381856
-0.0357743
-0.0332709
-0.0304332
-0.0276653
-0.0249798
-0.0221246
-0.0195026
-0.0169275
-0.0144731
-0.0127855
-0.0111784
-0.00904778
-0.00738144
-0.00656848
-0.00576841
-0.00470559
-0.00384647
-0.00333141
-0.00294712
-0.0025716
-0.00221134
-0.00185846
-0.00151979
-0.00120163
-0.000921293
-0.000676354
-0.000458112
-0.00028212
-0.000113839
7.22718e-06
0.000120039
0.000203634
0.000244335
0.000278526
0.000255609
0.000190376
7.74512e-05
-0.0367183
-0.0402213
-0.0428168
-0.0443519
-0.0446984
-0.043918
-0.0427762
-0.0414891
-0.0401816
-0.038872
-0.0374546
-0.0361244
-0.034471
-0.0325158
-0.030535
-0.0282822
-0.0260813
-0.0238763
-0.0214427
-0.0192115
-0.0169591
-0.0147479
-0.0132644
-0.0118463
-0.0098579
-0.00824681
-0.00743484
-0.00663879
-0.00559016
-0.00472715
-0.0041773
-0.00373151
-0.00327588
-0.00282835
-0.00238926
-0.0019686
-0.00157385
-0.00122352
-0.000916948
-0.000643777
-0.000421444
-0.000212989
-5.97664e-05
7.89607e-05
0.000183822
0.000238586
0.000283474
0.000265869
0.00019943
8.1776e-05
-0.0314414
-0.0344212
-0.0366783
-0.0381342
-0.0385837
-0.0380447
-0.0372118
-0.0362249
-0.0352172
-0.0342232
-0.0331433
-0.0321412
-0.0308667
-0.0294044
-0.0279084
-0.0260887
-0.0243297
-0.0225575
-0.0205333
-0.0186766
-0.0167243
-0.0147529
-0.0134884
-0.0122745
-0.0104503
-0.0089302
-0.00815059
-0.00738124
-0.00637176
-0.00553297
-0.00497196
-0.0044824
-0.00395979
-0.00343357
-0.00291268
-0.00241297
-0.00194371
-0.00152464
-0.00115627
-0.000827941
-0.000558844
-0.000309775
-0.000123995
4.0986e-05
0.000167381
0.000236016
0.000291542
0.000278324
0.000209846
8.45603e-05
-0.0268577
-0.0293825
-0.0313408
-0.032716
-0.0332288
-0.0328847
-0.0322968
-0.0315172
-0.0307356
-0.0299879
-0.0291699
-0.0284902
-0.0275827
-0.0264531
-0.0252504
-0.0238024
-0.0224851
-0.0211112
-0.0194487
-0.0179337
-0.0162648
-0.014538
-0.0135026
-0.0124907
-0.0108295
-0.00941632
-0.00869485
-0.00797931
-0.00703927
-0.00625593
-0.00570721
-0.00518802
-0.00460931
-0.00401407
-0.00341803
-0.00284344
-0.00230274
-0.00181648
-0.00138771
-0.00100467
-0.00068948
-0.000399522
-0.000181125
1.05858e-05
0.000158726
0.000241469
0.000307615
0.000298871
0.000226079
9.8087e-05
-0.0229074
-0.0250347
-0.0267194
-0.0279909
-0.0285149
-0.0283084
-0.0279072
-0.0273077
-0.0267364
-0.0262018
-0.0256131
-0.02517
-0.0244751
-0.0235871
-0.0226904
-0.0216009
-0.02063
-0.0195542
-0.0182011
-0.0169971
-0.0155884
-0.0141028
-0.0133076
-0.0125088
-0.0110267
-0.00974303
-0.00909799
-0.00844853
-0.00758734
-0.00687285
-0.00635611
-0.00583393
-0.00521422
-0.00455829
-0.0038937
-0.00325002
-0.00264072
-0.00209121
-0.00160453
-0.00117061
-0.000812958
-0.000485362
-0.000238677
-2.28053e-05
0.0001431
0.000237837
0.000311287
0.000308196
0.000224787
7.21361e-05
-0.0194825
-0.0212486
-0.0226871
-0.0238561
-0.0243751
-0.0242846
-0.0240397
-0.0235805
-0.0231644
-0.022779
-0.0223512
-0.0220874
-0.0215992
-0.0209565
-0.0203003
-0.0194716
-0.018784
-0.0179711
-0.0168882
-0.0159394
-0.0147401
-0.0134706
-0.0128985
-0.0122941
-0.0109915
-0.00986523
-0.00934072
-0.00880848
-0.00806765
-0.0074371
-0.00694671
-0.00639313
-0.00575018
-0.00505165
-0.00432372
-0.00361102
-0.00293264
-0.00231637
-0.00176854
-0.00127894
-0.000872937
-0.000503506
-0.000221365
2.08546e-05
0.00021183
0.000315165
0.000401601
0.000395912
0.000324171
0.0001697
-0.016488
-0.0179541
-0.0191953
-0.0202736
-0.0207698
-0.0207632
-0.0206287
-0.0202703
-0.0199792
-0.0197089
-0.0194093
-0.0192882
-0.0189434
-0.0184576
-0.0179716
-0.0173737
-0.0169491
-0.0163773
-0.0155537
-0.0148478
-0.0138416
-0.0127796
-0.0124137
-0.0119629
-0.0107924
-0.00978866
-0.00936197
-0.00893519
-0.00834768
-0.00786909
-0.00743661
-0.0068485
-0.00626868
-0.00556305
-0.004798
-0.00402647
-0.00328945
-0.00262074
-0.00202928
-0.00149904
-0.00106657
-0.00066691
-0.000369632
-0.000109551
9.30628e-05
0.000203697
0.000291245
0.000277473
0.000175333
2.12564e-05
-0.0139271
-0.0151255
-0.0161846
-0.0171593
-0.0176136
-0.0176729
-0.017629
-0.0173605
-0.0171774
-0.0169924
-0.0167861
-0.0167606
-0.0165092
-0.0161436
-0.0157972
-0.0153812
-0.0151414
-0.0147309
-0.0141106
-0.0136105
-0.0127751
-0.0119225
-0.0117909
-0.0115399
-0.0105539
-0.00972096
-0.00942798
-0.00911235
-0.00861311
-0.00819091
-0.00778369
-0.00695943
-0.0065236
-0.00577667
-0.00492071
-0.00408168
-0.00327994
-0.0025566
-0.00191029
-0.00133698
-0.000862014
-0.000429185
-0.000104493
0.000179031
0.00039634
0.000517135
0.000617984
0.000617672
0.000497843
0.000263651
-0.0117253
-0.0126772
-0.0135723
-0.0144414
-0.0148487
-0.014967
-0.0149966
-0.0148076
-0.0147187
-0.014596
-0.0144597
-0.0145014
-0.0143242
-0.0140668
-0.0138325
-0.0135627
-0.0134707
-0.0131823
-0.012717
-0.0123559
-0.0116345
-0.0109484
-0.0109792
-0.0108394
-0.00998504
-0.00931139
-0.00918445
-0.00910025
-0.00891648
-0.00880332
-0.0086903
-0.00871063
-0.00755789
-0.00653871
-0.00555901
-0.0046255
-0.00375767
-0.002982
-0.00230539
-0.00169819
-0.00121652
-0.000760859
-0.000434709
-0.000148993
8.09803e-05
0.00017401
0.000276557
0.000239065
0.000134465
-1.47947e-06
-0.009817
-0.0105639
-0.0113244
-0.0120865
-0.0124346
-0.0125886
-0.0126552
-0.0125205
-0.0125136
-0.0124475
-0.0123777
-0.0124656
-0.0123191
-0.0121241
-0.0119767
-0.0118405
-0.0118843
-0.0117214
-0.0114184
-0.0111834
-0.0105634
-0.0100514
-0.0102522
-0.0102076
-0.00946087
-0.00891285
-0.00886608
-0.00880516
-0.00862495
-0.00854111
-0.00841203
-0.00773868
-0.00705456
-0.00612642
-0.00512253
-0.00417159
-0.00327047
-0.00247982
-0.00177102
-0.00115258
-0.000649462
-0.000175266
0.000148363
0.000468199
0.000679491
0.000805213
0.000908702
0.000859416
0.000675827
0.000340146
-0.00821038
-0.00878358
-0.00943468
-0.010091
-0.0103927
-0.0105841
-0.0106716
-0.0105725
-0.010594
-0.0105306
-0.010501
-0.0106184
-0.0105065
-0.0103586
-0.0102431
-0.0101861
-0.0103095
-0.0102164
-0.010035
-0.0098833
-0.00934196
-0.00901903
-0.0094019
-0.00945751
-0.00884616
-0.00850883
-0.00871913
-0.0090117
-0.00921881
-0.00933336
-0.00917314
-0.00883709
-0.00790659
-0.00685499
-0.00576353
-0.00473475
-0.00378205
-0.00295939
-0.00224087
-0.00161066
-0.00112318
-0.000647115
-0.000336167
-4.59664e-05
0.000175343
0.000234069
0.000343436
0.000283946
0.000166335
2.53935e-05
-0.00684372
-0.00726572
-0.00782107
-0.00837099
-0.00863124
-0.00886642
-0.00896942
-0.00892213
-0.00899284
-0.00892948
-0.00892656
-0.00904527
-0.00895207
-0.00886237
-0.00878163
-0.0087795
-0.00894391
-0.00888081
-0.0087651
-0.00863274
-0.00811859
-0.00790552
-0.00831829
-0.00833563
-0.00778156
-0.00751935
-0.00771474
-0.00791964
-0.00811539
-0.00840561
-0.00850749
-0.00779932
-0.00688462
-0.00581512
-0.00472431
-0.00373765
-0.00279976
-0.00202913
-0.00130554
-0.000724687
-0.000232031
0.000232644
0.000502536
0.000853833
0.000988844
0.00111295
0.00118726
0.00102686
0.00082379
0.000395509
-0.00571524
-0.00600856
-0.00645226
-0.00687732
-0.00710134
-0.00735659
-0.00748505
-0.00750387
-0.00760138
-0.00753981
-0.00753372
-0.0076022
-0.00749869
-0.00744528
-0.00742447
-0.00749645
-0.00769176
-0.00769575
-0.00765911
-0.00751574
-0.00709674
-0.00713244
-0.00767988
-0.00770278
-0.00727433
-0.00731576
-0.00793266
-0.00862425
-0.00917716
-0.00949363
-0.00959782
-0.00858843
-0.00739769
-0.00619235
-0.00503742
-0.00402296
-0.00309652
-0.00236025
-0.00166809
-0.0011373
-0.000663509
-0.000258185
1.24473e-05
0.000285075
0.000412614
0.000492467
0.00052883
0.000440541
0.000343346
0.000107073
-0.00487629
-0.00509364
-0.00544425
-0.00575113
-0.00595162
-0.00620353
-0.00630019
-0.0063583
-0.00644961
-0.00637792
-0.00639435
-0.00641847
-0.00631949
-0.00625521
-0.00617294
-0.00625716
-0.00641084
-0.00634729
-0.00630298
-0.00609794
-0.00562426
-0.0056371
-0.00604748
-0.00595987
-0.00552743
-0.00546995
-0.00580061
-0.00622378
-0.00679238
-0.00713149
-0.00667417
-0.00636857
-0.00559318
-0.00455499
-0.00358878
-0.0026826
-0.00186171
-0.00124772
-0.000554528
-0.000196086
0.000361262
0.000605785
0.00092797
0.00119072
0.00120518
0.00139143
0.00125724
0.00109323
0.00090535
0.00038138
-0.00420901
-0.0043967
-0.00469592
-0.00494999
-0.00516457
-0.00541577
-0.00550569
-0.00556409
-0.00562523
-0.00555253
-0.00557209
-0.00559398
-0.00552386
-0.00547923
-0.00540482
-0.00546441
-0.00562122
-0.0056496
-0.00560095
-0.00533618
-0.00500471
-0.00516275
-0.00546455
-0.00528636
-0.00509619
-0.00559242
-0.00659966
-0.0074044
-0.00779381
-0.00770892
-0.00709653
-0.00606328
-0.0050967
-0.00401503
-0.00324163
-0.00237998
-0.00182616
-0.00121472
-0.000731047
-0.000376511
0.000152698
0.000242663
0.000714746
0.000709074
0.00085725
0.000978967
0.000747771
0.000745569
0.000573455
0.000171593
-0.0039042
-0.00400292
-0.00421363
-0.00444722
-0.00462428
-0.00487907
-0.00502382
-0.00507293
-0.00508117
-0.00499479
-0.00495683
-0.00492407
-0.00483652
-0.0047835
-0.00474931
-0.00468998
-0.00465764
-0.00468397
-0.0045217
-0.00399351
-0.00360969
-0.00364461
-0.00360085
-0.00306147
-0.00248089
-0.00227214
-0.00287697
-0.00405431
-0.00536962
-0.0056575
-0.00557127
-0.00455804
-0.00384366
-0.00269942
-0.0022192
-0.00135008
-0.000983718
-0.000436937
3.85038e-05
0.000202246
0.000832595
0.000683471
0.00126246
0.00111658
0.00127408
0.00143066
0.00104901
0.00113405
0.000832747
0.00024919
-0.108714
-0.117626
-0.135815
-0.147864
-0.163146
-0.186461
-0.200556
-0.231759
-0.269926
-0.313073
-0.103377
-0.109342
-0.127553
-0.138099
-0.15269
-0.170394
-0.183993
-0.205483
-0.224739
-0.255607
-0.0968161
-0.1006
-0.117079
-0.124834
-0.135693
-0.149659
-0.158044
-0.171838
-0.187452
-0.211007
-0.0895039
-0.0927105
-0.106217
-0.112249
-0.120327
-0.132308
-0.139584
-0.151984
-0.167657
-0.186303
-0.0819398
-0.0848156
-0.0951507
-0.100693
-0.107522
-0.118616
-0.127068
-0.136982
-0.149262
-0.163012
-0.0750314
-0.0779085
-0.0855948
-0.090831
-0.0969222
-0.105966
-0.11331
-0.11983
-0.128786
-0.140278
-0.0685554
-0.0712588
-0.0767065
-0.0814552
-0.0865674
-0.0929451
-0.0991191
-0.104484
-0.112064
-0.122508
-0.0623738
-0.0647744
-0.0686605
-0.0726452
-0.0770059
-0.0818423
-0.0873257
-0.0923686
-0.0986615
-0.107068
-0.0564462
-0.0585718
-0.061344
-0.0646017
-0.0685116
-0.0724406
-0.0770016
-0.0811979
-0.0860506
-0.0928982
-0.0512274
-0.0528258
-0.0548151
-0.0574092
-0.0607097
-0.0638518
-0.0674462
-0.070819
-0.0749075
-0.0808299
-0.0460479
-0.0473534
-0.048837
-0.0508172
-0.0534572
-0.0560449
-0.0590018
-0.0618332
-0.0653531
-0.0703038
-0.0412579
-0.042242
-0.0433601
-0.044846
-0.0469412
-0.0491338
-0.0516087
-0.0539461
-0.0568683
-0.0609753
-0.0368667
-0.0375622
-0.0383893
-0.0394786
-0.0411138
-0.0429556
-0.0450045
-0.0469079
-0.0493422
-0.0527605
-0.0328539
-0.0333157
-0.0338955
-0.0346405
-0.0358903
-0.0374271
-0.0391012
-0.0406621
-0.0427
-0.0455419
-0.0291725
-0.0294645
-0.0298333
-0.0302849
-0.0312342
-0.0325066
-0.0338648
-0.035165
-0.0368943
-0.0392674
-0.0257842
-0.025962
-0.0261728
-0.0263961
-0.0271169
-0.028168
-0.0292668
-0.0303629
-0.031818
-0.0337739
-0.0226713
-0.0227866
-0.0228839
-0.0229399
-0.0234873
-0.0243402
-0.0252125
-0.0261276
-0.0273365
-0.0289544
-0.0198213
-0.0199115
-0.0199297
-0.0198658
-0.0202773
-0.0209562
-0.0216456
-0.0224135
-0.0234122
-0.0247519
-0.0172223
-0.0173166
-0.01729
-0.0171438
-0.0174462
-0.0179727
-0.0185133
-0.0191586
-0.0199846
-0.0211119
-0.0148634
-0.0149821
-0.0149331
-0.0147309
-0.0149429
-0.0153447
-0.0157833
-0.0163403
-0.0170214
-0.0179652
-0.0127296
-0.0128801
-0.0128247
-0.0125995
-0.0127549
-0.0130645
-0.0134254
-0.0138859
-0.0144152
-0.0151991
-0.0108182
-0.011002
-0.010953
-0.0107318
-0.0108388
-0.0110641
-0.0113639
-0.0117396
-0.012151
-0.0128269
-0.00913102
-0.00933953
-0.00929622
-0.00908712
-0.00914674
-0.00930801
-0.00958114
-0.00989499
-0.0102134
-0.0108019
-0.00766126
-0.00788375
-0.00785281
-0.00767313
-0.00769294
-0.00781031
-0.0080628
-0.00829981
-0.00853172
-0.00904845
-0.00639008
-0.00661002
-0.00659263
-0.00645723
-0.00644599
-0.00653819
-0.00678347
-0.00694999
-0.0071216
-0.00758765
-0.00531102
-0.00550518
-0.00549986
-0.00540478
-0.00536723
-0.00546224
-0.00570372
-0.00581092
-0.00594604
-0.00636116