/*--------------------------------*- C++ -*----------------------------------*\
| =========                 |                                                 |
| \\      /  F ield         | OpenFOAM: The Open Source CFD Toolbox           |
|  \\    /   O peration     | Version:  2312                                  |
|   \\  /    A nd           | Website:  www.openfoam.com                      |
|    \\/     M anipulation  |                                                 |
\*---------------------------------------------------------------------------*/
FoamFile
{
    version     2.0;
    format      ascii;
    arch        "LSB;label=32;scalar=64";
    class       volScalarField;
    location    "24";
    object      p;
}
// * * * * * * * * * * * * * * * * * * * * * * * * * * * * * * * * * * * * * //

dimensions      [0 2 -2 0 0 0 0];

internalField   nonuniform List<scalar> 
940
(
-0.348449
-0.313746
-0.293879
-0.282104
-0.258038
-0.235698
-0.345936
-0.323849
-0.282556
-0.247239
-0.216985
-0.188055
-0.350028
-0.295196
-0.25173
-0.201262
-0.170855
-0.142215
-0.272467
-0.285584
-0.310485
-0.307421
-0.326211
-0.302355
-0.313859
-0.301317
-0.339481
-0.309784
-0.335411
-0.324484
-0.313973
-0.28857
-0.313014
-0.305916
-0.297386
-0.294295
-0.296863
-0.286709
-0.28184
-0.26996
-0.230447
-0.160559
-0.0494468
0.0228463
0.0434326
0.0371194
0.0240198
0.016189
0.0101685
0.00688746
0.00361331
0.00124748
-0.292976
-0.296099
-0.295539
-0.286524
-0.249739
-0.183258
-0.0791087
-0.00567026
0.0221643
0.0251865
0.0189882
0.0141526
0.0100464
0.00675844
0.00368658
0.00119551
-0.279246
-0.270081
-0.267711
-0.259947
-0.232673
-0.183823
-0.109558
-0.0430198
-0.0058084
0.00974083
0.012382
0.011087
0.00902563
0.00622166
0.00365187
0.00121375
-0.249164
-0.255465
-0.238558
-0.221693
-0.197893
-0.160055
-0.102868
-0.0474432
-0.0104106
0.00629254
0.0101885
0.0102906
0.00824199
0.00592778
0.00351084
0.00118332
-0.182498
-0.195796
-0.193577
-0.181557
-0.16211
-0.13277
-0.0911602
-0.0481139
-0.0158844
0.000744898
0.006704
0.00838941
0.00730866
0.00559308
0.00344393
0.00130097
-0.150777
-0.169916
-0.16637
-0.155326
-0.140213
-0.119445
-0.0891379
-0.0528507
-0.0226356
-0.00562718
0.00201842
0.00527734
0.00559057
0.00462733
0.00299264
0.000955658
-0.105367
-0.118571
-0.122582
-0.117394
-0.106413
-0.0903712
-0.0691618
-0.044784
-0.0220603
-0.00674919
0.00108188
0.00487458
0.0054656
0.00474624
0.00314435
0.0014068
-0.0765871
-0.0894595
-0.0952843
-0.0939239
-0.0878652
-0.0784026
-0.0652487
-0.0477501
-0.0291488
-0.0148276
-0.0058912
-0.000399605
0.00195872
0.00259878
0.00201875
0.000548393
-0.046636
-0.0556664
-0.0611682
-0.0617127
-0.0583533
-0.0520199
-0.0431542
-0.0323481
-0.0203094
-0.00957585
-0.00245782
0.00198047
0.00372963
0.00382051
0.00278452
0.0014254
-0.0314674
-0.0383479
-0.0431638
-0.0451289
-0.0446153
-0.0420269
-0.037633
-0.0315148
-0.0237264
-0.0158724
-0.00947052
-0.00431118
-0.00114882
0.000377079
0.000734997
0.000103273
-0.00834277
-0.0133678
-0.0177442
-0.0203139
-0.0210482
-0.020155
-0.0178186
-0.0144205
-0.0101067
-0.00532834
-0.00149394
0.00133644
0.00305371
0.00323682
0.00251328
0.00126135
-0.00341511
-0.00717803
-0.010815
-0.0132
-0.0143976
-0.0146956
-0.0138896
-0.0123053
-0.0100092
-0.00726822
-0.00502985
-0.00296022
-0.00106781
-0.000127405
0.000249785
-2.74079e-05
0.0110532
0.00835827
0.00500769
0.00231693
0.000934622
0.00035675
0.000412952
0.00105006
0.00208703
0.00306227
0.00348935
0.0034613
0.00353024
0.00289528
0.00207217
0.000831903
-0.12253
-0.159272
-0.20694
-0.102563
-0.122024
-0.151296
-0.0795181
-0.093364
-0.115488
-0.0617748
-0.0722263
-0.0853131
-0.044317
-0.0510593
-0.0607044
-0.027554
-0.0316046
-0.0371484
-0.0156234
-0.0188247
-0.0239878
0.000198901
-0.00183859
-0.00430864
0.00637105
0.00330836
0.000181058
0.0192902
0.0158345
0.0133848
0.0383161
0.036499
0.0315573
0.000790838
-0.0167291
-0.197496
-0.0237729
-0.0410507
-0.0582899
-0.124871
-0.153485
-0.371794
-0.0869845
-0.113545
-0.141486
-0.20679
-0.252376
-0.398694
0.192901
0.233432
0.283566
0.345429
0.410683
0.46278
0.165997
0.194354
0.230045
0.268812
0.305092
0.309309
0.10506
0.120763
0.138836
0.146661
0.147445
0.0541016
0.0338604
0.0280188
0.041482
0.0369203
0.0581386
0.0588532
0.0841298
0.100791
0.128876
0.158617
0.0403525
0.0338692
0.0458535
0.0413801
0.0599754
0.0600921
0.0807318
0.0967245
0.122338
0.143395
0.0463066
0.0398772
0.0495376
0.0453715
0.062055
0.0629212
0.0831355
0.0904524
0.108486
0.101826
0.0517715
0.0451842
0.0518386
0.0491479
0.0601973
0.0620646
0.0724541
0.0763481
0.074839
0.0622808
0.0571958
0.0504578
0.0541485
0.0517485
0.0576349
0.0589946
0.0609061
0.0605844
0.0516055
0.0391965
0.0637857
0.0572453
0.0567994
0.0540306
0.0557893
0.0543419
0.0498289
0.0461709
0.0358882
0.0222995
0.0720066
0.0654557
0.0603599
0.0567688
0.0543928
0.04993
0.0419564
0.0347486
0.0236966
0.0110241
0.0826881
0.075505
0.0646532
0.0598385
0.0530252
0.0462484
0.0357215
0.0260086
0.0159049
0.00568826
0.0973325
0.0880212
0.0727383
0.064821
0.0556754
0.0466747
0.0354269
0.0250923
0.0160388
0.0079081
0.116253
0.100999
0.0797248
0.0684317
0.0577683
0.0473011
0.0354555
0.0249233
0.0165812
0.00988977
0.154171
0.124901
0.0995923
0.0828239
0.0697789
0.0580015
0.0458511
0.0354467
0.0276874
0.0218864
0.182542
0.136901
0.107819
0.088512
0.0742932
0.0620599
0.0499575
0.0397458
0.0320408
0.0266554
0.331862
0.182618
0.145996
0.117661
0.0960713
0.0797523
0.0656325
0.0541939
0.0458807
0.0401493
0.0350301
-0.0237951
-0.076805
0.0175234
-0.0324333
-0.0719379
0.00565249
-0.0258488
-0.056977
-0.00320997
-0.0246543
-0.0462827
-0.00654404
-0.0219817
-0.035228
-0.00155814
-0.012864
-0.0217034
0.00245972
-0.00593568
-0.011911
0.0159
0.00896055
0.00355211
0.0218172
0.01607
0.0104192
0.0351483
0.0299258
0.0243147
-0.329023
-0.334819
-0.326755
-0.296961
-0.308629
-0.278782
-0.290003
-0.271821
-0.237586
-0.28874
-0.244962
-0.194442
-0.274043
-0.22466
-0.171222
-0.25759
-0.201457
-0.146241
-0.242502
-0.321033
-0.309344
-0.275032
-0.316474
-0.287206
-0.31397
-0.37157
-0.326626
-0.32893
-0.3465
-0.330616
-0.348526
-0.396317
-0.336029
-0.327661
-0.344913
-0.341273
-0.308561
-0.294596
-0.321737
-0.288437
-0.286487
-0.291724
-0.26593
-0.254436
-0.265992
-0.231278
-0.203436
-0.223659
-0.179012
-0.138876
-0.157194
-0.121617
-0.0874673
-0.104616
-0.0323603
-0.0268417
-0.0586526
0.0257723
0.0201377
-0.0121558
0.0449406
0.0418696
0.0206836
0.0374009
0.0361506
0.0250859
0.0251028
0.0248528
0.0205101
0.0163042
0.0148813
0.0133896
0.0103244
0.00940728
0.00856833
0.00657625
0.00560877
0.00536366
0.00341542
0.00304202
0.00274501
0.00118278
0.00112411
0.00103714
-0.258551
-0.202469
-0.157658
-0.122584
-0.0937146
-0.0784882
-0.066679
-0.0629982
-0.0584255
-0.0579311
-0.261876
-0.212019
-0.17207
-0.132631
-0.101455
-0.0827797
-0.06783
-0.0623636
-0.0567547
-0.055638
-0.238693
-0.192628
-0.165672
-0.12989
-0.103758
-0.0841327
-0.0682686
-0.0617175
-0.0553002
-0.0533662
-0.20547
-0.165903
-0.149484
-0.117006
-0.0992248
-0.0810737
-0.0667719
-0.0599453
-0.0532412
-0.0506303
-0.157673
-0.132445
-0.125907
-0.0988468
-0.0899532
-0.0736576
-0.0627642
-0.056404
-0.0500522
-0.0472917
-0.111097
-0.0970804
-0.097329
-0.0790822
-0.0771989
-0.0636243
-0.0571371
-0.0519199
-0.0465465
-0.0440191
-0.0686177
-0.062149
-0.0676552
-0.0591321
-0.061501
-0.0521857
-0.0500683
-0.0463411
-0.0424756
-0.0403854
-0.0245952
-0.0259812
-0.0370114
-0.0359804
-0.0434619
-0.0397746
-0.0418706
-0.039849
-0.0378457
-0.0365859
0.00894676
0.000972627
-0.011135
-0.015784
-0.0262871
-0.0277708
-0.03307
-0.0331179
-0.0330887
-0.0325642
0.0168263
0.00953332
0.000830016
-0.00532652
-0.0140171
-0.0181639
-0.0245297
-0.0264621
-0.0279153
-0.028143
0.0153639
0.0103722
0.00487551
-0.00060433
-0.00689438
-0.0116471
-0.0171654
-0.0202104
-0.0224853
-0.0233664
0.0106589
0.0079099
0.00467005
0.000877816
-0.00344382
-0.00752853
-0.0117818
-0.0150153
-0.0172892
-0.0186622
0.00701395
0.00540179
0.00356033
0.000997225
-0.0016465
-0.00502886
-0.00787981
-0.0110455
-0.0129425
-0.0143804
0.00456289
0.00360185
0.00275627
0.000950346
-0.000233568
-0.00373299
-0.00421674
-0.00752468
-0.00837001
-0.00990965
0.00239371
0.0019026
0.00142929
0.000522394
-0.000184202
-0.00174506
-0.00245182
-0.0043012
-0.00485325
-0.00600521
0.000885016
0.000656219
0.000597963
7.4017e-05
0.00013281
-0.000716713
-0.000643134
-0.00153265
-0.00161248
-0.00203559
-0.130503
-0.115514
-0.0964653
-0.0859045
-0.0756732
-0.0694123
-0.0646783
-0.0646429
-0.063263
-0.0651195
-0.172394
-0.137197
-0.110999
-0.0959284
-0.0814778
-0.0723575
-0.0660223
-0.0645674
-0.0618409
-0.0628752
-0.222534
-0.166373
-0.128197
-0.105464
-0.0852935
-0.0741147
-0.0661179
-0.0639148
-0.0602618
-0.0605193
0.0406325
-0.0212161
-0.0901923
0.044174
-0.0346288
-0.111548
0.0454603
-0.0447806
-0.131759
0.0233391
-0.106104
-0.188562
0.00954033
-0.13109
-0.229716
-0.162128
-0.345192
-0.36546
0.198364
0.168692
0.107718
0.240969
0.199812
0.127618
0.294224
0.238631
0.147666
0.357566
0.285632
0.161771
0.416062
0.335715
0.169075
0.452971
0.349337
0.0848575
0.027112
0.020121
0.0131453
0.0224122
0.0174737
0.0123917
0.0359243
0.029415
0.0241145
0.0328992
0.030301
0.0270615
0.0529659
0.0455202
0.041787
0.0565947
0.0514108
0.0503261
0.0816136
0.0712374
0.0736561
0.101866
0.0884355
0.0843948
0.132075
0.116887
0.106729
0.162562
0.142562
0.101962
0.00674761
0.000231142
-0.00798037
-0.0183587
-0.03159
-0.0485363
-0.0695028
-0.1076
-0.129106
-0.266153
0.00777461
0.00315552
-0.00290211
-0.0111401
-0.0218037
-0.0361229
-0.0507784
-0.0782028
-0.0878393
-0.131254
0.0180929
0.0118215
0.00364285
-0.00527747
-0.0167017
-0.0312925
-0.0440394
-0.0700187
-0.0799832
-0.118878
0.0237572
0.0185278
0.0113442
0.00149676
-0.0104028
-0.0269153
-0.0404208
-0.0650295
-0.0754956
-0.102722
0.0339649
0.0257051
0.0159852
0.00318922
-0.0104642
-0.0285478
-0.0417426
-0.0635145
-0.0735827
-0.0922788
0.0416188
0.0335101
0.0211175
0.00641876
-0.00870572
-0.0277208
-0.0415426
-0.0612725
-0.0712167
-0.085556
0.0558663
0.0398492
0.0230367
0.00499661
-0.0116449
-0.0299353
-0.0425361
-0.0597617
-0.0690126
-0.0812635
0.0631348
0.044406
0.0227575
0.00159596
-0.0160193
-0.0336133
-0.0450111
-0.0597212
-0.0678087
-0.0785113
0.0610148
0.038291
0.0148556
-0.00628155
-0.0227933
-0.0385831
-0.0487068
-0.0608357
-0.0677935
-0.0763921
0.0566311
0.0300708
0.00472954
-0.0155306
-0.0300681
-0.0436067
-0.0520788
-0.0619162
-0.0678581
-0.0744125
0.0336836
0.00981514
-0.00788041
-0.0252522
-0.0371653
-0.0479996
-0.054298
-0.0621096
-0.0669532
-0.0720629
-0.0249324
-0.0422606
-0.0416258
-0.0476265
-0.0499699
-0.0547102
-0.0569375
-0.0622608
-0.0652922
-0.069612
-0.0817173
-0.0831059
-0.073239
-0.0700745
-0.0650167
-0.0633861
-0.0613644
-0.0637043
-0.0643223
-0.0674027
)
;

boundaryField
{
    outlet
    {
        type            fixedValue;
        value           uniform 0;
    }
    upperWall
    {
        type            symmetryPlane;
    }
    lowerWall
    {
        type            symmetryPlane;
    }
    inlet
    {
        type            zeroGradient;
    }
    cylinder
    {
        type            zeroGradient;
    }
    frontAndBack
    {
        type            empty;
    }
}


// ************************************************************************* //
