/*--------------------------------*- C++ -*----------------------------------*\
| =========                 |                                                 |
| \\      /  F ield         | OpenFOAM: The Open Source CFD Toolbox           |
|  \\    /   O peration     | Version:  2312                                  |
|   \\  /    A nd           | Website:  www.openfoam.com                      |
|    \\/     M anipulation  |                                                 |
\*---------------------------------------------------------------------------*/
FoamFile
{
    version     2.0;
    format      ascii;
    arch        "LSB;label=32;scalar=64";
    class       volScalarField;
    location    "2";
    object      p;
}
// * * * * * * * * * * * * * * * * * * * * * * * * * * * * * * * * * * * * * //

dimensions      [0 2 -2 0 0 0 0];

internalField   nonuniform List<scalar> 
9200
(
-1.08307
-0.949177
-0.905665
-0.73216
-0.577792
-0.458
-0.368366
-0.298079
-0.242543
-0.198448
-0.162389
-0.133232
-0.109349
-0.0897853
-0.0730665
-0.0583095
-0.0460039
-0.0347044
-0.0265628
-0.0188309
-1.08296
-0.993127
-0.887498
-0.722635
-0.577681
-0.465822
-0.383464
-0.318329
-0.264866
-0.220817
-0.184619
-0.154002
-0.129032
-0.108174
-0.0908553
-0.0752551
-0.0620075
-0.0501652
-0.0402697
-0.0307447
-0.908789
-0.930179
-0.814371
-0.670666
-0.551431
-0.45684
-0.384668
-0.327265
-0.278988
-0.23811
-0.202725
-0.172089
-0.145795
-0.123707
-0.105138
-0.089013
-0.0749918
-0.0623448
-0.05125
-0.0411387
-0.567956
-0.684015
-0.680417
-0.599918
-0.518487
-0.444911
-0.382498
-0.329897
-0.285633
-0.248076
-0.215312
-0.186282
-0.160107
-0.137478
-0.117676
-0.100679
-0.0857886
-0.0724418
-0.0608333
-0.0499945
-0.393805
-0.497394
-0.566914
-0.541178
-0.490165
-0.434015
-0.381343
-0.332968
-0.289821
-0.252846
-0.221347
-0.193636
-0.1691
-0.146934
-0.127331
-0.109968
-0.0943567
-0.0807856
-0.0681091
-0.0577235
-0.456951
-0.484517
-0.525286
-0.510409
-0.47219
-0.424922
-0.379385
-0.336428
-0.295688
-0.258702
-0.225998
-0.19775
-0.172888
-0.151057
-0.131772
-0.11473
-0.0993796
-0.0855769
-0.0731933
-0.0618416
-0.580114
-0.540378
-0.536792
-0.507652
-0.467704
-0.420527
-0.375655
-0.334917
-0.297669
-0.262929
-0.231029
-0.202301
-0.176596
-0.153916
-0.133905
-0.116264
-0.100948
-0.0872425
-0.0747268
-0.0634145
-0.706189
-0.611911
-0.568005
-0.51732
-0.470651
-0.420139
-0.372982
-0.329672
-0.291849
-0.258739
-0.229044
-0.20224
-0.177864
-0.155728
-0.135718
-0.117898
-0.101993
-0.0880757
-0.0757871
-0.0637697
-0.809885
-0.672984
-0.601266
-0.527693
-0.472152
-0.41761
-0.370376
-0.325369
-0.284934
-0.249901
-0.219403
-0.19321
-0.170063
-0.149835
-0.131433
-0.114789
-0.0999524
-0.086722
-0.0745168
-0.0631313
-0.882042
-0.715137
-0.629006
-0.535033
-0.469241
-0.40707
-0.359633
-0.315823
-0.276642
-0.241661
-0.210209
-0.182791
-0.158793
-0.138226
-0.120039
-0.104199
-0.0901705
-0.0788812
-0.0671263
-0.0567164
0.0165726
0.00946275
0.018102
0.0421067
0.0799824
0.124387
0.154304
0.179863
0.192968
0.196415
0.19251
0.183882
0.172172
0.159333
0.146019
0.133169
0.120928
0.109487
0.0990409
0.0894199
-0.00565532
-0.0129493
-0.00477656
0.02025
0.0600609
0.10803
0.142278
0.169971
0.185176
0.190643
0.188398
0.180828
0.170154
0.157722
0.144777
0.132264
0.120005
0.108817
0.098422
0.088723
-0.0591648
-0.0658873
-0.0585577
-0.0307961
0.012074
0.069188
0.107935
0.138448
0.156626
0.165705
0.166919
0.162621
0.155169
0.145126
0.134354
0.123693
0.112664
0.10284
0.093381
0.0843034
-0.138704
-0.143214
-0.136956
-0.104384
-0.0537467
0.0075152
0.0545506
0.0889599
0.110865
0.124523
0.13052
0.131368
0.128827
0.122954
0.115946
0.108327
0.0996659
0.0921546
0.0843274
0.0764341
-0.234969
-0.235637
-0.228799
-0.190448
-0.132491
-0.0668149
-0.0122119
0.0275556
0.0549353
0.0734074
0.0850953
0.0917011
0.0948222
0.0942056
0.0918797
0.0879403
0.0823954
0.0776446
0.0718384
0.065563
-0.343926
-0.339097
-0.330058
-0.282124
-0.218592
-0.147671
-0.0857114
-0.0390619
-0.00469438
0.0188646
0.0366202
0.0483725
0.0569607
0.0618373
0.0642067
0.0644092
0.0624004
0.0603477
0.0568019
0.0525144
-0.465526
-0.451617
-0.441815
-0.379954
-0.308616
-0.230957
-0.161798
-0.107009
-0.0655015
-0.0355543
-0.012186
0.00439618
0.0176744
0.0276485
0.0341362
0.0388699
0.0406009
0.0411523
0.0403615
0.0377876
-0.594287
-0.568619
-0.575558
-0.483092
-0.397011
-0.31042
-0.234219
-0.172497
-0.124822
-0.0877562
-0.0596646
-0.0379594
-0.0210133
-0.00680464
0.0034626
0.0122827
0.0176078
0.020714
0.0235116
0.0227237
-0.752749
-0.703648
-0.733845
-0.591097
-0.477716
-0.377246
-0.293615
-0.227551
-0.175461
-0.133881
-0.101831
-0.0760103
-0.0561344
-0.0392022
-0.02548
-0.0139861
-0.00529552
0.000110976
0.00599637
0.00686263
-0.947055
-0.856443
-0.861329
-0.684408
-0.54191
-0.427192
-0.337482
-0.268041
-0.213404
-0.170391
-0.135494
-0.107718
-0.0854074
-0.0670478
-0.0511411
-0.0378994
-0.026659
-0.0183691
-0.0112429
-0.00875461
0.0790332
0.0685018
0.0595768
0.0528793
0.0474498
0.0423086
0.0378635
0.0343367
0.0313197
0.0286544
0.0263859
0.0244567
0.0227909
0.0213567
0.0201277
0.0190745
0.0181737
0.0174055
0.0167512
0.0161938
0.0157184
0.0153119
0.0149628
0.0146614
0.0143998
0.0141705
0.0139665
0.0137806
0.0136058
0.0134349
0.0132614
0.0130797
0.0128863
0.0126791
0.0124539
0.0122042
0.0119232
0.0116034
0.0112368
0.0108147
0.0103272
0.00976374
0.00911233
0.00835948
0.00749087
0.00648784
0.0053379
0.00401095
0.0025194
0.000865454
0.0784735
0.0683156
0.0604546
0.0544215
0.0484533
0.042882
0.0386324
0.0351959
0.0320228
0.0292612
0.0269633
0.0249857
0.0232656
0.0217907
0.0205278
0.0194431
0.0185134
0.0177185
0.0170395
0.0164596
0.0159639
0.0155393
0.0151738
0.0148569
0.0145793
0.0143336
0.0141135
0.0139127
0.0137247
0.0135416
0.0133554
0.0131601
0.0129534
0.0127347
0.0124991
0.0122396
0.0119493
0.0116207
0.0112456
0.0108153
0.0103201
0.00974923
0.00909103
0.00833218
0.00745826
0.00645187
0.00529805
0.00397419
0.00248347
0.000838645
0.0747011
0.0649767
0.0585787
0.0542108
0.0486536
0.0430948
0.0390422
0.0356628
0.0324549
0.0297238
0.0274405
0.0254286
0.0236715
0.0221679
0.0208772
0.0197661
0.018813
0.0179971
0.0172988
0.0167013
0.0161901
0.0157523
0.0153763
0.0150512
0.0147665
0.0145128
0.0142824
0.014069
0.0138677
0.0136721
0.013474
0.013266
0.0130468
0.0128173
0.0125718
0.0123028
0.0120033
0.0116657
0.0112818
0.0108427
0.0103389
0.00975961
0.00909321
0.00832666
0.00744542
0.00643342
0.00527333
0.00394991
0.00245714
0.000817072
0.0679949
0.058698
0.0545314
0.0523948
0.0479833
0.0427651
0.0389292
0.035688
0.0326142
0.029998
0.0277369
0.0257104
0.0239532
0.0224517
0.0211556
0.0200358
0.0190724
0.0182447
0.017534
0.0169238
0.0163998
0.0159497
0.0155625
0.0152286
0.0149382
0.0146825
0.0144517
0.0142366
0.0140298
0.0138237
0.0136113
0.0133891
0.0131586
0.0129197
0.012665
0.012387
0.0120791
0.0117335
0.0113418
0.0108948
0.010383
0.00979568
0.00912109
0.00834639
0.00745692
0.00643786
0.00526957
0.0039437
0.00244536
0.000803186
0.0579464
0.050069
0.0490371
0.0490747
0.0460745
0.0416461
0.0381929
0.035262
0.0325701
0.0302264
0.0280605
0.0260676
0.0243291
0.0228195
0.0214963
0.020345
0.0193522
0.0184995
0.0177683
0.0171413
0.0166027
0.0161389
0.0157381
0.0153903
0.0150875
0.0148225
0.0145873
0.0143746
0.0141743
0.0139731
0.013755
0.0135175
0.0132739
0.0130273
0.0127658
0.0124804
0.0121647
0.0118113
0.011412
0.0109577
0.0104385
0.00984377
0.00916161
0.00837931
0.007482
0.00645599
0.00527948
0.00395036
0.00244451
0.000795039
0.0466808
0.0415788
0.042811
0.0442985
0.0427475
0.0397358
0.0368391
0.0341846
0.0319203
0.0299051
0.0278863
0.0259891
0.0243313
0.0228792
0.0215987
0.0204794
0.0195081
0.0186679
0.0179427
0.0173172
0.0167768
0.0163083
0.0159006
0.015544
0.0152314
0.014956
0.0147127
0.0144961
0.0142977
0.0141074
0.0139025
0.0136675
0.0134149
0.0131563
0.0128851
0.0125932
0.0122724
0.0119139
0.0115092
0.011049
0.0105236
0.00992202
0.00923248
0.00844224
0.00753628
0.00650181
0.00531539
0.00397959
0.0024631
0.000798518
0.0332727
0.0316967
0.0360687
0.038334
0.0383957
0.0371203
0.0351813
0.0331004
0.0313457
0.0296955
0.0279129
0.026194
0.0246507
0.0232502
0.0219772
0.0208394
0.0198371
0.0189622
0.0182035
0.0175487
0.0169844
0.016497
0.0160744
0.0157057
0.0153813
0.0150938
0.0148384
0.0146082
0.0143957
0.0141908
0.013983
0.0137605
0.0135234
0.013268
0.012989
0.0126878
0.0123592
0.0119942
0.0115837
0.0111181
0.0105873
0.00998023
0.009285
0.00848886
0.00757661
0.00653624
0.00534294
0.00400386
0.00247868
0.000801846
0.0195613
0.0216428
0.0268269
0.0309627
0.032677
0.0330432
0.0321144
0.0308456
0.0297957
0.0286368
0.0271809
0.0256903
0.0243215
0.0230629
0.0219008
0.0208424
0.019893
0.0190512
0.0183123
0.0176691
0.017111
0.0166264
0.0162041
0.0158334
0.0155054
0.0152128
0.0149505
0.0147124
0.0144915
0.0142833
0.0140825
0.0138739
0.0136598
0.0134267
0.0131567
0.0128541
0.0125203
0.0121499
0.0117341
0.0112631
0.0107265
0.0101131
0.00941055
0.00860598
0.00768394
0.00663267
0.00542719
0.00407499
0.00253687
0.000831806
0.00737626
0.0134748
0.019434
0.0244943
0.0277181
0.0298121
0.0299778
0.0292
0.028553
0.0278209
0.026735
0.0254722
0.0242489
0.0230934
0.0219999
0.0209867
0.0200672
0.0192433
0.018512
0.0178678
0.0173024
0.0168069
0.0163729
0.0159915
0.0156546
0.0153542
0.0150829
0.0148356
0.0146063
0.0143913
0.0141805
0.0139585
0.0137298
0.0134867
0.0132218
0.0129257
0.0125951
0.0122252
0.0118084
0.0113355
0.0107966
0.0101805
0.00947478
0.00866652
0.00774016
0.00668397
0.00547326
0.00411686
0.00257096
0.000853004
-0.00323733
0.00356252
0.00783562
0.0115424
0.0182781
0.0231296
0.0249956
0.0255785
0.0260732
0.0262211
0.0257505
0.0249011
0.0239719
0.0230314
0.0220868
0.0211689
0.0203032
0.0195025
0.0187732
0.0181168
0.0175309
0.0170116
0.0165541
0.0161518
0.0157969
0.0154813
0.0151967
0.0149354
0.014691
0.0144559
0.0142187
0.0139947
0.0137871
0.0135714
0.0133251
0.0130387
0.0127125
0.0123439
0.0119268
0.0114526
0.0109115
0.0102926
0.00958326
0.00877038
0.00783827
0.00677486
0.00555658
0.00418948
0.00263891
0.000898298
-0.00374843
0.00297737
0.00639952
0.00799439
0.0133857
0.0193953
0.0215992
0.0221434
0.0231058
0.0240083
0.0241499
0.0237373
0.0231283
0.022432
0.0216736
0.0208957
0.0201353
0.0194134
0.0187427
0.0181292
0.017574
0.0170757
0.0166314
0.0162363
0.0158844
0.0155687
0.0152816
0.0150157
0.0147653
0.0145264
0.0143089
0.0141265
0.013953
0.0137508
0.0135056
0.0132196
0.0128944
0.0125269
0.0121107
0.0116374
0.0110968
0.0104777
0.00976747
0.00895224
0.00801615
0.0069452
0.00571937
0.00433151
0.00277421
0.000983159
-0.0150541
-0.00481213
0.0010794
0.00324494
0.00947919
0.0169784
0.0193207
0.0193818
0.0204872
0.021836
0.022309
0.0221727
0.0218628
0.0214527
0.0209355
0.020353
0.0197496
0.0191518
0.0185752
0.0180307
0.0175255
0.0170636
0.0166454
0.0162686
0.0159292
0.0156218
0.0153405
0.0150793
0.0148349
0.0146078
0.014408
0.0142312
0.0140459
0.0138284
0.0135748
0.0132865
0.0129611
0.0125941
0.0121789
0.011707
0.0111684
0.010552
0.00984464
0.00903236
0.00809905
0.0070292
0.00580424
0.00440953
0.00283942
0.00100874
-0.0169814
-0.00772998
-0.000289751
0.000653113
0.00653196
0.0142004
0.0165791
0.0164918
0.0177907
0.019623
0.0205
0.0206539
0.0206069
0.0204415
0.0201365
0.0197332
0.0192801
0.0188061
0.018329
0.0178635
0.0174209
0.0170081
0.0166279
0.01628
0.0159622
0.0156708
0.0154017
0.0151508
0.0149164
0.0147007
0.0145047
0.0143148
0.0141117
0.0138845
0.0136279
0.013338
0.0130107
0.0126411
0.0122229
0.0117478
0.011206
0.0105862
0.00987569
0.0090604
0.00812456
0.00705173
0.00582505
0.00442338
0.00283772
0.000999916
-0.0157922
-0.0105072
-0.00473275
-0.00267526
0.00338067
0.0113619
0.0142034
0.0142074
0.0155258
0.0175942
0.0187679
0.0191712
0.0193555
0.0194154
0.0193142
0.019086
0.0187813
0.0184317
0.0180584
0.0176791
0.0173068
0.0169503
0.0166142
0.0163002
0.0160082
0.0157364
0.0154822
0.0152431
0.0150182
0.0148074
0.014606
0.0144043
0.0141933
0.0139636
0.0137058
0.0134143
0.0130849
0.0127127
0.0122915
0.011813
0.0112674
0.0106436
0.00992892
0.00910904
0.00816841
0.00708968
0.00585733
0.00444406
0.00284632
0.00100609
-0.0160609
-0.0122052
-0.00647215
-0.00445905
0.00126548
0.00918728
0.0122613
0.0122728
0.0135161
0.0157156
0.0171415
0.0177708
0.0181531
0.0184072
0.0184896
0.0184254
0.0182639
0.0180381
0.0177705
0.0174797
0.01718
0.0168819
0.016592
0.0163142
0.0160501
0.0157996
0.0155618
0.0153352
0.0151189
0.0149112
0.0147075
0.0145023
0.0142887
0.014057
0.0137975
0.0135046
0.0131737
0.0127997
0.0123762
0.0118951
0.0113466
0.0107196
0.0100013
0.00917729
0.00823205
0.00714725
0.00590811
0.00448315
0.00287384
0.00102088
-0.0146027
-0.0111183
-0.00680641
-0.00560048
-0.000302957
0.00743885
0.010629
0.0106615
0.0118316
0.0140778
0.0156692
0.0164745
0.017019
0.0174363
0.01768
0.0177657
0.0177387
0.0176316
0.017467
0.0172636
0.0170369
0.0167987
0.0165573
0.0163181
0.0160844
0.0158576
0.015638
0.0154251
0.0152182
0.0150153
0.0148133
0.0146074
0.0143916
0.0141573
0.013896
0.0136017
0.0132694
0.0128937
0.0124681
0.0119844
0.0114331
0.0108028
0.0100809
0.00925283
0.0083028
0.00721171
0.00596514
0.00452856
0.00290523
0.00103437
-0.0108304
-0.00935847
-0.00651423
-0.00597792
-0.00113383
0.0062679
0.00941814
0.00943061
0.0105035
0.0127173
0.0143899
0.0153186
0.0159874
0.016534
0.0169115
0.0171272
0.0172212
0.0172238
0.0171565
0.0170379
0.0168836
0.0167061
0.0165147
0.0163162
0.0161151
0.0159141
0.0157145
0.0155167
0.0153204
0.0151242
0.0149254
0.0147198
0.0145023
0.0142659
0.014003
0.0137073
0.0133736
0.0129961
0.0125683
0.012082
0.0115276
0.0108939
0.0101681
0.00933542
0.00838004
0.00728197
0.00602693
0.00457781
0.00293846
0.00104778
-0.00803848
-0.00741141
-0.0054244
-0.00556097
-0.00132038
0.00562941
0.00864229
0.00858668
0.00953163
0.0116546
0.0133383
0.0143352
0.015087
0.015727
0.0162082
0.0165309
0.0167288
0.0168289
0.0168509
0.016812
0.0167274
0.0166096
0.0164685
0.0163117
0.0161445
0.0159708
0.0157926
0.0156113
0.0154269
0.0152386
0.0150441
0.0148401
0.0146221
0.0143843
0.0141201
0.0138232
0.013488
0.0131087
0.0126786
0.0121896
0.0116321
0.0109948
0.0102648
0.00942711
0.00846577
0.00735998
0.00609536
0.00463254
0.00297558
0.00106254
-0.00525869
-0.00497799
-0.00376723
-0.0046061
-0.000978764
0.00549193
0.00829627
0.00812171
0.00890904
0.0108986
0.0125367
0.0135498
0.0143426
0.0150402
0.015594
0.015998
0.01628
0.0164627
0.0165629
0.0165961
0.0165763
0.0165154
0.0164234
0.016308
0.0161753
0.0160296
0.015874
0.0157101
0.0155387
0.0153593
0.0151704
0.0149691
0.0147517
0.0145134
0.0142482
0.0139501
0.0136136
0.0132326
0.0128003
0.0123085
0.0117477
0.0111066
0.0103721
0.00952908
0.00856119
0.00744692
0.00617158
0.00469378
0.00301738
0.0010789
-0.00227388
-0.00235963
-0.00181887
-0.00325239
-0.000193848
0.00578914
0.00833964
0.00801303
0.00862177
0.0104467
0.0119951
0.0129795
0.013774
0.0144945
0.0150897
0.0155487
0.0158931
0.0161411
0.0163064
0.0164019
0.0164398
0.0164312
0.0163853
0.0163098
0.016211
0.0160935
0.0159607
0.015815
0.0156574
0.0154879
0.0153055
0.015108
0.0148923
0.0146541
0.0143884
0.0140894
0.0137516
0.0133689
0.0129344
0.0124399
0.0118757
0.0112306
0.0104914
0.00964252
0.00866746
0.00754386
0.00625662
0.00476235
0.00306441
0.00109711
0.000608896
0.000267243
0.000296373
-0.00162439
0.000923647
0.00643844
0.00872015
0.00822612
0.00864464
0.0102844
0.0117113
0.0126317
0.0133938
0.0141052
0.0147128
0.0152008
0.0155852
0.01588
0.0160954
0.0162414
0.0163284
0.0163656
0.0163614
0.016323
0.0162563
0.0161661
0.016056
0.0159285
0.0157852
0.0156263
0.0154512
0.0152584
0.0150451
0.0148078
0.014542
0.0142424
0.0139035
0.0135191
0.0130824
0.0125851
0.0120175
0.0113682
0.0106239
0.00976878
0.00878589
0.00765207
0.00635168
0.00483923
0.00311737
0.00111754
0.00331663
0.0028401
0.00247635
0.00016603
0.00227622
0.00736098
0.00937839
0.00871583
0.00894325
0.0103882
0.0116735
0.0125039
0.0132065
0.013882
0.0144758
0.0149684
0.0153711
0.0156939
0.0159435
0.0161272
0.0162529
0.016328
0.0163597
0.0163541
0.0163167
0.016252
0.0161635
0.0160539
0.0159247
0.0157766
0.0156094
0.0154219
0.0152117
0.0149759
0.0147104
0.0144104
0.0140705
0.0136846
0.0132458
0.0127457
0.0121745
0.0115209
0.0107712
0.00990939
0.00891799
0.00777299
0.00645811
0.00492557
0.00317714
0.00114061
0.00585903
0.005315
0.00464749
0.00203438
0.00378046
0.00848157
0.0102524
0.00943188
0.00947704
0.0107274
0.011861
0.0125852
0.0132089
0.0138272
0.0143855
0.0148615
0.0152626
0.0155953
0.0158633
0.0160711
0.0162242
0.0163283
0.0163887
0.0164106
0.0163985
0.0163565
0.0162877
0.0161948
0.0160792
0.0159418
0.0157826
0.0156006
0.015394
0.0151602
0.0148954
0.0145952
0.0142545
0.0138672
0.0134262
0.0129232
0.0123485
0.0116904
0.010935
0.010066
0.00906544
0.00790826
0.00657748
0.00502271
0.00324473
0.00116678
0.00823399
0.0076626
0.00675771
0.00391484
0.00536608
0.00973272
0.0112828
0.0103229
0.0102022
0.0112664
0.0122473
0.0128576
0.0133905
0.0139369
0.0144431
0.014885
0.0152674
0.0155937
0.015865
0.0160836
0.0162527
0.016376
0.0164572
0.0165002
0.0165086
0.0164855
0.0164338
0.0163556
0.0162524
0.016125
0.0159735
0.0157971
0.0155943
0.0153626
0.0150988
0.0147987
0.0144572
0.0140685
0.0136254
0.0131197
0.0125413
0.0118785
0.0111172
0.0102406
0.00923008
0.00805967
0.00671151
0.00513218
0.00332132
0.00119659
0.0104347
0.00986455
0.00877312
0.00576066
0.0069779
0.0110566
0.0124149
0.0113392
0.0110742
0.0119671
0.0128013
0.0132973
0.0137348
0.014201
0.0146439
0.015039
0.0153888
0.0156949
0.0159564
0.0161735
0.0163474
0.01648
0.0165737
0.0166309
0.016654
0.0166455
0.0166074
0.0165414
0.0164487
0.0163301
0.0161854
0.0160142
0.0158149
0.0155854
0.0153227
0.0150227
0.0146806
0.0142906
0.0138455
0.013337
0.0127549
0.0120873
0.0113198
0.010435
0.00941398
0.00822926
0.00686218
0.00525574
0.00340831
0.00123068
0.012463
0.0119139
0.0106731
0.00753901
0.00857384
0.0124062
0.0136012
0.012435
0.0120501
0.0127905
0.0134896
0.0138772
0.0142207
0.0146043
0.0149782
0.0153184
0.0156261
0.0159014
0.0161421
0.0163468
0.0165154
0.0166482
0.016746
0.0168102
0.016842
0.0168429
0.0168143
0.0167573
0.0166727
0.016561
0.016422
0.016255
0.0160588
0.0158313
0.0155694
0.0152695
0.0149268
0.0145355
0.0140884
0.0135771
0.0129914
0.0123188
0.0115449
0.0106517
0.00961936
0.00841925
0.00703168
0.0053954
0.00350734
0.00126981
0.0143273
0.0138108
0.0124452
0.0092269
0.0101223
0.0137434
0.0148014
0.01357
0.0130903
0.0136992
0.0142784
0.0145681
0.0148241
0.0151278
0.0154321
0.0157139
0.0159739
0.0162113
0.0164232
0.0166071
0.0167618
0.0168864
0.0169807
0.0170448
0.0170791
0.0170841
0.0170604
0.0170087
0.0169292
0.016822
0.0166869
0.016523
0.016329
0.0161028
0.0158415
0.0155415
0.0151981
0.0148054
0.0143564
0.0138424
0.013253
0.0125755
0.0117949
0.0108928
0.0098486
0.00863205
0.00722243
0.00555341
0.00362032
0.00131492
0.0160129
0.0155381
0.014066
0.0107975
0.0115922
0.0150327
0.0159783
0.0147071
0.0141584
0.0146578
0.0151348
0.0153405
0.0155195
0.0157503
0.0159887
0.0162131
0.0164238
0.0166198
0.0167979
0.0169551
0.0170892
0.0171989
0.0172829
0.0173404
0.0173711
0.0173747
0.0173513
0.0173007
0.0172229
0.0171176
0.0169841
0.0168215
0.0166284
0.0164026
0.0161414
0.0158409
0.0154966
0.0151026
0.0146516
0.014135
0.0135419
0.0128594
0.0120722
0.0111608
0.0101042
0.00887015
0.007437
0.00573226
0.00374947
0.00136713
0.0174879
0.0170643
0.0155067
0.0122253
0.0129564
0.0162435
0.0171001
0.0158152
0.0152232
0.0156356
0.016029
0.0161669
0.0162822
0.0164502
0.0166301
0.0168015
0.0169648
0.0171194
0.0172616
0.0173886
0.0174978
0.0175874
0.0176555
0.0177009
0.0177225
0.0177197
0.0176917
0.017638
0.0175582
0.0174515
0.0173171
0.0171538
0.01696
0.0167335
0.0164714
0.0161699
0.0158244
0.0154289
0.014976
0.0144568
0.0138603
0.013173
0.0123789
0.0114581
0.0103885
0.00913608
0.00767806
0.00593459
0.00389733
0.00142779
0.0187486
0.0183823
0.0167585
0.0135006
0.0142001
0.017355
0.0181437
0.0168706
0.0162604
0.0166074
0.0169363
0.0170235
0.01709
0.0172078
0.0173388
0.0174644
0.0175853
0.0177009
0.017808
0.0179037
0.0179857
0.0180517
0.0180998
0.0181285
0.0181363
0.0181222
0.0180851
0.0180241
0.0179384
0.0178271
0.0176889
0.0175225
0.0173261
0.0170973
0.0168333
0.0165302
0.0161831
0.015786
0.0153313
0.0148098
0.01421
0.013518
0.0127173
0.0117869
0.0107039
0.00943213
0.00794811
0.00616301
0.00406669
0.00149856
0.0198138
0.0195013
0.0178269
0.0146286
0.0153227
0.0183593
0.019097
0.0178597
0.0172549
0.0175563
0.0178389
0.0178925
0.0179259
0.0180068
0.0181001
0.0181888
0.018274
0.0183552
0.0184298
0.0184952
0.0185491
0.0185896
0.0186149
0.0186232
0.0186132
0.0185836
0.0185331
0.0184608
0.0183654
0.0182459
0.0181009
0.0179288
0.0177277
0.0174951
0.017228
0.0169223
0.0165733
0.0161745
0.0157182
0.0151947
0.0145921
0.0138959
0.0130886
0.0121484
0.0110517
0.00975971
0.00824882
0.00641946
0.0042602
0.00158116
0.0206983
0.0204286
0.0187211
0.0156194
0.0163287
0.0192537
0.0199543
0.0187761
0.0181991
0.0184733
0.0187266
0.0187633
0.0187789
0.0188366
0.0189039
0.0189656
0.0190226
0.0190752
0.019121
0.019158
0.0191844
0.0191987
0.0191992
0.0191845
0.0191535
0.0191048
0.0190374
0.01895
0.0188416
0.0187108
0.0185561
0.0183759
0.0181681
0.0179301
0.0176587
0.0173499
0.0169985
0.016598
0.0161404
0.0156154
0.0150105
0.0143103
0.0134966
0.0125462
0.0114349
0.0101213
0.00858254
0.00670634
0.0044815
0.00167874
0.0214007
0.0211713
0.0194499
0.0164798
0.0172209
0.0200373
0.0207125
0.0196164
0.0190891
0.0193534
0.0195936
0.0196296
0.0196425
0.0196902
0.0197428
0.0197864
0.0198224
0.019851
0.0198707
0.0198799
0.0198775
0.0198623
0.0198334
0.0197899
0.0197308
0.0196554
0.0195627
0.019452
0.0193223
0.0191724
0.0190012
0.0188069
0.0185877
0.018341
0.0180636
0.0177512
0.0173986
0.0169989
0.0165435
0.0160215
0.0154194
0.0147205
0.013905
0.0129483
0.011825
0.0104917
0.00892678
0.00700525
0.00471797
0.00178232
0.0219298
0.0217347
0.0200115
0.0172081
0.0179966
0.0207004
0.0213561
0.0203622
0.0199035
0.0201725
0.0204157
0.0204713
0.0205059
0.0205723
0.020644
0.0207087
0.0207682
0.0208226
0.0208704
0.0209098
0.0209394
0.0209573
0.0209619
0.0209513
0.0209238
0.0208776
0.0208107
0.0207215
0.020608
0.0204682
0.0203001
0.0201012
0.019869
0.0196005
0.019292
0.0189394
0.0185376
0.0180803
0.0175602
0.0169681
0.0162927
0.0155202
0.0146334
0.0136103
0.0124264
0.0110365
0.00941819
0.00742372
0.00506132
0.00196357
0.0223943
0.0221657
0.0203826
0.0177037
0.0184628
0.0209495
0.0214869
0.0205011
0.0200032
0.0201533
0.0202667
0.0202018
0.0201099
0.0200387
0.019966
0.0198826
0.0197911
0.0196933
0.0195892
0.0194786
0.0193615
0.0192376
0.0191065
0.0189678
0.0188209
0.0186651
0.0184996
0.0183235
0.0181358
0.0179353
0.0177207
0.0174902
0.0172421
0.016974
0.0166831
0.016366
0.0160184
0.0156352
0.0152098
0.014734
0.0141977
0.0135878
0.0128879
0.0120766
0.0111274
0.00999593
0.00863707
0.00690394
0.00466331
0.00178073
0.0242005
0.0244272
0.0229576
0.0206944
0.0216619
0.0241741
0.0248839
0.0242332
0.0240258
0.0243816
0.0246925
0.0248388
0.0249518
0.0250708
0.0251759
0.0252585
0.0253207
0.0253636
0.0253872
0.0253915
0.0253767
0.025343
0.0252906
0.0252194
0.0251295
0.0250209
0.0248932
0.0247461
0.0245789
0.0243907
0.0241802
0.0239459
0.0236857
0.0233968
0.0230758
0.0227182
0.0223186
0.0218698
0.0213626
0.0207855
0.0201232
0.0193569
0.0184609
0.0174063
0.0161478
0.0146435
0.0128205
0.0105003
0.00762667
0.00309609
0.0195499
0.0192157
0.0176221
0.0158066
0.016977
0.019282
0.0198348
0.0192066
0.0189849
0.0192287
0.0194078
0.0194306
0.0194141
0.0193928
0.0193517
0.0192864
0.0192006
0.0190972
0.0189781
0.0188447
0.0186985
0.0185408
0.0183725
0.0181943
0.0180066
0.0178095
0.0176029
0.0173864
0.0171592
0.0169203
0.0166684
0.0164018
0.0161183
0.0158155
0.0154901
0.0151383
0.0147552
0.0143347
0.0138691
0.013349
0.0127617
0.0120927
0.0113204
0.0104303
0.00937488
0.00818214
0.00671182
0.00514299
0.00315325
0.00098749
0.0292892
0.0292371
0.0278197
0.0261354
0.0269071
0.0287002
0.0291888
0.0287506
0.0285963
0.0287861
0.0289311
0.0289601
0.0289553
0.028941
0.0289062
0.0288475
0.0287673
0.0286678
0.0285502
0.0284157
0.0282656
0.0281012
0.0279235
0.0277334
0.0275317
0.027319
0.0270955
0.0268616
0.0266169
0.0263611
0.0260934
0.0258126
0.0255169
0.0252041
0.0248711
0.0245138
0.0241269
0.0237035
0.0232342
0.0227072
0.0221046
0.021409
0.0205751
0.0196106
0.0183351
0.0170094
0.0148308
0.012897
0.00906344
0.00374604
0.0209948
0.0212419
0.0202916
0.0192772
0.0203397
0.0220454
0.0224886
0.0221535
0.0220662
0.0222317
0.0223248
0.0223036
0.0222436
0.0221662
0.0220647
0.0219385
0.0217921
0.0216288
0.0214507
0.0212596
0.0210572
0.020845
0.020624
0.0203949
0.0201585
0.019915
0.0196641
0.0194056
0.0191389
0.018863
0.0185766
0.018278
0.017965
0.0176348
0.0172841
0.0169087
0.0165031
0.0160604
0.0155717
0.0150256
0.0144049
0.013697
0.0128534
0.0119162
0.0106681
0.00957613
0.00758853
0.00664003
0.00374626
0.00119549
0.0302113
0.0300051
0.0290526
0.0283624
0.0289357
0.029756
0.0298287
0.029492
0.0292738
0.0291679
0.0290214
0.028818
0.0285938
0.0283607
0.0281178
0.0278662
0.0276078
0.0273443
0.0270769
0.0268064
0.0265336
0.0262587
0.0259819
0.0257034
0.0254228
0.0251401
0.0248549
0.0245666
0.0242742
0.0239769
0.0236733
0.0233619
0.0230405
0.0227068
0.0223574
0.0219882
0.0215939
0.0211677
0.0206994
0.0201789
0.019577
0.0189018
0.0179923
0.0171513
0.0152603
0.0149992
0.0102548
0.0132904
0.0043382
0.00153207
-0.0482088
-0.0518886
-0.0518458
-0.0509805
-0.0493642
-0.0458734
-0.0383999
-0.0306977
-0.021342
-0.0110756
-0.0381225
-0.0396587
-0.039643
-0.0380239
-0.0384134
-0.0354699
-0.0314561
-0.0261148
-0.0212084
-0.0185333
-0.0295615
-0.0297043
-0.0296812
-0.0278757
-0.0297523
-0.0287902
-0.0275148
-0.0266282
-0.0237131
-0.0209103
-0.0221448
-0.021671
-0.0216551
-0.0199379
-0.0229733
-0.0235275
-0.0229129
-0.0236377
-0.0195348
-0.0164968
-0.0152972
-0.0142883
-0.0145862
-0.0131054
-0.0164844
-0.0174047
-0.0161422
-0.0170505
-0.0136822
-0.0135387
-0.00968934
-0.00866749
-0.0088659
-0.00736308
-0.0105538
-0.0114097
-0.00989335
-0.0125658
-0.0117544
-0.0127238
-0.00453599
-0.00336684
-0.00361844
-0.0021134
-0.00525094
-0.00659548
-0.00598247
-0.00986461
-0.00930655
-0.00891252
-0.000135361
0.000967705
0.000791872
0.00216352
-0.0011175
-0.00295026
-0.00262392
-0.00584596
-0.00475056
-0.00492052
0.00376071
0.00481223
0.00463958
0.00583614
0.00258551
0.000818644
0.00128488
-0.00165245
-0.00123036
-0.00209407
0.00711185
0.00809541
0.00799579
0.00910175
0.00601827
0.00433909
0.00458985
0.00157197
0.00167922
0.000833371
0.0100394
0.0109845
0.0109733
0.0120034
0.00904434
0.00738905
0.00744079
0.00455471
0.00465547
0.00375599
0.0125918
0.0135017
0.0135835
0.0145529
0.01172
0.0101387
0.0100973
0.00737771
0.00742246
0.00642206
0.0148255
0.0157044
0.0158852
0.0168212
0.0141243
0.0126346
0.0125204
0.0099321
0.00992827
0.00887556
0.0167994
0.0176521
0.0179259
0.0188375
0.0162742
0.0148752
0.0147025
0.0122446
0.0122267
0.0111474
0.0185742
0.0193905
0.0197367
0.0206281
0.0181977
0.0168904
0.0166763
0.0143509
0.0143342
0.0132366
0.0201617
0.0209353
0.0213368
0.0222101
0.019915
0.0187031
0.0184607
0.0162638
0.016255
0.0151458
0.0215561
0.0222883
0.0227318
0.0235747
0.0214116
0.0203033
0.0200519
0.0179888
0.0179982
0.0168853
0.022762
0.0234562
0.0239408
0.0247416
0.0226661
0.0216405
0.0213909
0.0194806
0.0195314
0.0184335
0.0237962
0.0244526
0.0249805
0.025738
0.0237218
0.0227329
0.0224556
0.0207011
0.0208153
0.0197546
0.0246763
0.0252721
0.0258333
0.0265875
0.0246587
0.023679
0.0233306
0.0217106
0.0218749
0.0208506
0.0254355
0.0259891
0.0265927
0.0273102
0.0254467
0.0244839
0.0240674
0.0225495
0.0227324
0.0217436
0.0261169
0.0266235
0.0272493
0.0279188
0.0261187
0.0251641
0.0246765
0.0232427
0.0234247
0.0224638
0.0268095
0.0274155
0.0278805
0.0284274
0.0266641
0.0256986
0.025143
0.0238007
0.0239548
0.0230048
0.0264822
0.0266418
0.0275229
0.0282706
0.026738
0.0258836
0.0253419
0.0241456
0.0242901
0.0233626
0.0270791
0.027298
0.0280232
0.0286259
0.0271175
0.0262525
0.0256553
0.0245612
0.0246485
0.0236904
0.027467
0.0276692
0.0283981
0.02902
0.0275
0.0265852
0.0259213
0.0250516
0.0253553
0.0248219
0.0257672
0.0252419
0.0253415
0.0258112
0.0245597
0.0237618
0.0230164
0.0220207
0.0217808
0.020669
0.0321501
0.0324824
0.0337778
0.0337365
0.0320134
0.0307405
0.0302057
0.0296869
0.0299613
0.0296227
0.0265694
0.0264069
0.0267209
0.0260207
0.0237473
0.0219771
0.0206549
0.0205804
0.0210605
0.0209758
0.0336888
0.0329367
0.0337533
0.035321
0.0344448
0.0325591
0.0314517
0.0307323
0.0305717
0.0302803
0.0737448
0.0767791
0.0795847
0.0824731
0.0848607
0.0866605
0.0865429
0.0852671
0.0831639
0.0800131
0.0756665
0.0685721
0.0596006
0.0471701
0.0304427
0.00729908
-0.0265258
-0.0725819
-0.125534
-0.242973
0.0577316
0.0607181
0.0614109
0.0610981
0.0604519
0.0594508
0.0568954
0.0535266
0.0490724
0.0426721
0.0334452
0.020369
0.0040732
-0.0167535
-0.0423954
-0.073988
-0.114321
-0.169426
-0.232381
-0.379868
0.0434572
0.0446667
0.0425785
0.0390603
0.0345854
0.0294646
0.0231736
0.0166238
0.00909949
-0.000325133
-0.0120046
-0.0273042
-0.0467982
-0.0725721
-0.105812
-0.148977
-0.201951
-0.270605
-0.338637
-0.507552
0.0282729
0.0287304
0.025898
0.0209103
0.0141858
0.00656115
-0.00237331
-0.0124308
-0.0249145
-0.0398533
-0.0570488
-0.0775558
-0.101635
-0.131217
-0.167486
-0.215278
-0.277683
-0.363555
-0.434328
-0.6267
0.00888231
0.00676583
0.00173332
-0.00497981
-0.0127314
-0.0205854
-0.0293123
-0.0397656
-0.0534198
-0.0705327
-0.0916195
-0.117568
-0.148367
-0.185934
-0.229398
-0.280654
-0.343493
-0.44381
-0.516143
-0.732192
-0.00733896
-0.01133
-0.0182103
-0.0271816
-0.0374264
-0.0477827
-0.0591964
-0.0722462
-0.0877659
-0.105963
-0.127611
-0.153987
-0.186221
-0.22758
-0.278807
-0.338638
-0.402961
-0.518375
-0.58814
-0.821983
-0.0186449
-0.0231236
-0.0306897
-0.0402748
-0.0513553
-0.0634513
-0.0778436
-0.094813
-0.114626
-0.137092
-0.162613
-0.191919
-0.225678
-0.2663
-0.317668
-0.384707
-0.449678
-0.582141
-0.651496
-0.885346
-0.0332303
-0.0399884
-0.0489661
-0.0591192
-0.069934
-0.0817006
-0.0958629
-0.112827
-0.133245
-0.157194
-0.185824
-0.219651
-0.258713
-0.302634
-0.352054
-0.425718
-0.482162
-0.620033
-0.695434
-0.925507
-0.0433493
-0.0518468
-0.0627078
-0.0746029
-0.0872592
-0.100998
-0.116868
-0.134871
-0.155334
-0.178502
-0.206069
-0.239014