/*--------------------------------*- C++ -*----------------------------------*\
| =========                 |                                                 |
| \\      /  F ield         | OpenFOAM: The Open Source CFD Toolbox           |
|  \\    /   O peration     | Version:  2512                                  |
|   \\  /    A nd           | Website:  www.openfoam.com                      |
|    \\/     M anipulation  |                                                 |
\*---------------------------------------------------------------------------*/
FoamFile
{
    version     2.0;
    format      ascii;
    arch        "LSB;label=32;scalar=64";
    class       volVectorField;
    location    "63.5";
    object      U;
}
// * * * * * * * * * * * * * * * * * * * * * * * * * * * * * * * * * * * * * //

dimensions      [0 1 -1 0 0 0 0];

internalField   nonuniform List<vector> 
9800
(
(1 -2.46676e-05 0)
(1.0001 -7.19957e-05 0)
(1.00028 -0.000118189 0)
(1.00054 -0.00016451 0)
(1.00088 -0.000211928 0)
(1.00128 -0.000261074 0)
(1.00175 -0.000312106 0)
(1.00228 -0.000364682 0)
(1.00288 -0.000418044 0)
(1.00353 -0.000471196 0)
(1.00424 -0.000523086 0)
(1.00499 -0.000572755 0)
(1.00578 -0.000619437 0)
(1.0066 -0.000662577 0)
(1.00744 -0.000701832 0)
(1.0083 -0.000737027 0)
(1.00917 -0.000768124 0)
(1.01004 -0.000795175 0)
(1.0109 -0.000818295 0)
(1.01176 -0.00083764 0)
(1.01261 -0.000853396 0)
(1.01344 -0.000865766 0)
(1.01426 -0.000874972 0)
(1.01505 -0.000881241 0)
(1.01582 -0.000884804 0)
(1.01656 -0.000885891 0)
(1.01728 -0.00088473 0)
(1.01798 -0.00088154 0)
(1.01864 -0.000876532 0)
(1.01928 -0.000869905 0)
(1.01989 -0.000861844 0)
(1.02047 -0.000852524 0)
(1.02103 -0.000842099 0)
(1.02156 -0.000830719 0)
(1.02206 -0.000818514 0)
(1.02254 -0.000805611 0)
(1.023 -0.000792115 0)
(1.02343 -0.000778136 0)
(1.02384 -0.000763759 0)
(1.02423 -0.000749077 0)
(1 -7.29654e-05 0)
(1.0001 -0.000212935 0)
(1.00028 -0.000349559 0)
(1.00054 -0.000486609 0)
(1.00087 -0.000627004 0)
(1.00127 -0.000772657 0)
(1.00174 -0.000924042 0)
(1.00227 -0.00108014 0)
(1.00286 -0.00123872 0)
(1.00352 -0.00139682 0)
(1.00422 -0.0015513 0)
(1.00497 -0.00169933 0)
(1.00577 -0.00183861 0)
(1.00659 -0.00196747 0)
(1.00744 -0.00208489 0)
(1.0083 -0.00219031 0)
(1.00917 -0.00228361 0)
(1.01005 -0.00236492 0)
(1.01093 -0.00243456 0)
(1.0118 -0.00249298 0)
(1.01265 -0.00254072 0)
(1.0135 -0.00257836 0)
(1.01432 -0.00260655 0)
(1.01513 -0.00262595 0)
(1.01591 -0.00263725 0)
(1.01666 -0.00264112 0)
(1.01739 -0.00263824 0)
(1.0181 -0.00262924 0)
(1.01877 -0.00261476 0)
(1.01942 -0.00259538 0)
(1.02005 -0.00257166 0)
(1.02064 -0.00254411 0)
(1.02121 -0.0025132 0)
(1.02175 -0.00247939 0)
(1.02226 -0.00244306 0)
(1.02275 -0.00240458 0)
(1.02322 -0.00236428 0)
(1.02366 -0.00232249 0)
(1.02407 -0.00227946 0)
(1.02447 -0.00223548 0)
(1 -0.000119037 0)
(1.0001 -0.00034725 0)
(1.00028 -0.000570058 0)
(1.00053 -0.000793791 0)
(1.00086 -0.00102335 0)
(1.00125 -0.00126198 0)
(1.00171 -0.00151046 0)
(1.00224 -0.00176714 0)
(1.00283 -0.00202834 0)
(1.00348 -0.00228919 0)
(1.00419 -0.00254454 0)
(1.00494 -0.00278968 0)
(1.00574 -0.00302078 0)
(1.00657 -0.00323507 0)
(1.00742 -0.00343077 0)
(1.0083 -0.00360696 0)
(1.00918 -0.00376335 0)
(1.01008 -0.00390009 0)
(1.01097 -0.00401767 0)
(1.01185 -0.00411675 0)
(1.01273 -0.00419819 0)
(1.01359 -0.00426292 0)
(1.01444 -0.00431195 0)
(1.01526 -0.00434635 0)
(1.01607 -0.00436721 0)
(1.01685 -0.00437561 0)
(1.0176 -0.00437264 0)
(1.01833 -0.00435937 0)
(1.01903 -0.0043368 0)
(1.0197 -0.0043059 0)
(1.02034 -0.00426759 0)
(1.02096 -0.00422272 0)
(1.02155 -0.00417208 0)
(1.02211 -0.00411641 0)
(1.02264 -0.00405636 0)
(1.02315 -0.00399257 0)
(1.02363 -0.00392559 0)
(1.02409 -0.00385596 0)
(1.02452 -0.00378413 0)
(1.02493 -0.00371059 0)
(1 -0.000162605 0)
(1.00009 -0.000474046 0)
(1.00027 -0.000778226 0)
(1.00052 -0.00108419 0)
(1.00084 -0.00139892 0)
(1.00123 -0.00172698 0)
(1.00168 -0.00206955 0)
(1.0022 -0.00242434 0)
(1.00279 -0.00278626 0)
(1.00344 -0.00314858 0)
(1.00414 -0.00350411 0)
(1.0049 -0.0038463 0)
(1.0057 -0.00416978 0)
(1.00653 -0.00447061 0)
(1.0074 -0.00474626 0)
(1.00829 -0.00499531 0)
(1.00919 -0.00521727 0)
(1.0101 -0.00541225 0)
(1.01101 -0.00558079 0)
(1.01192 -0.00572375 0)
(1.01283 -0.00584219 0)
(1.01372 -0.00593732 0)
(1.01459 -0.00601048 0)
(1.01545 -0.00606306 0)
(1.01628 -0.00609651 0)
(1.0171 -0.00611228 0)
(1.01788 -0.00611184 0)
(1.01864 -0.00609663 0)
(1.01938 -0.00606804 0)
(1.02008 -0.00602739 0)
(1.02076 -0.00597594 0)
(1.02141 -0.00591489 0)
(1.02202 -0.00584533 0)
(1.02261 -0.00576832 0)
(1.02318 -0.00568478 0)
(1.02371 -0.00559564 0)
(1.02422 -0.00550167 0)
(1.0247 -0.00540367 0)
(1.02516 -0.00530229 0)
(1.02559 -0.00519825 0)
(1 -0.000203439 0)
(1.00009 -0.000592615 0)
(1.00026 -0.000972912 0)
(1.0005 -0.0013563 0)
(1.00081 -0.00175194 0)
(1.00119 -0.00216579 0)
(1.00163 -0.00259952 0)
(1.00215 -0.00305023 0)
(1.00273 -0.00351138 0)
(1.00337 -0.00397441 0)
(1.00407 -0.00443016 0)
(1.00483 -0.0048702 0)
(1.00563 -0.00528761 0)
(1.00648 -0.00567721 0)
(1.00735 -0.00603565 0)
(1.00826 -0.00636098 0)
(1.00918 -0.0066524 0)
(1.01011 -0.00690986 0)
(1.01105 -0.0071339 0)
(1.012 -0.00732542 0)
(1.01293 -0.00748564 0)
(1.01386 -0.00761597 0)
(1.01477 -0.00771796 0)
(1.01567 -0.00779325 0)
(1.01655 -0.00784357 0)
(1.0174 -0.00787071 0)
(1.01823 -0.00787646 0)
(1.01903 -0.00786259 0)
(1.01981 -0.00783082 0)
(1.02056 -0.00778284 0)
(1.02128 -0.00772021 0)
(1.02197 -0.00764448 0)
(1.02263 -0.00755706 0)
(1.02326 -0.00745934 0)
(1.02386 -0.00735252 0)
(1.02443 -0.00723786 0)
(1.02497 -0.00711635 0)
(1.02549 -0.00698911 0)
(1.02598 -0.00685698 0)
(1.02644 -0.00672097 0)
(1 -0.00024134 0)
(1.00009 -0.0007023 0)
(1.00025 -0.00115307 0)
(1.00048 -0.00160869 0)
(1.00078 -0.00208071 0)
(1.00114 -0.00257655 0)
(1.00158 -0.00309843 0)
(1.00208 -0.00364287 0)
(1.00264 -0.00420195 0)
(1.00328 -0.00476526 0)
(1.00397 -0.0053217 0)
(1.00473 -0.005861 0)
(1.00554 -0.0063746 0)
(1.00639 -0.00685608 0)
(1.00728 -0.00730117 0)
(1.0082 -0.00770731 0)
(1.00914 -0.00807329 0)
(1.01011 -0.00839878 0)
(1.01108 -0.0086842 0)
(1.01205 -0.00893039 0)
(1.01303 -0.00913864 0)
(1.014 -0.0093104 0)
(1.01496 -0.00944734 0)
(1.0159 -0.00955125 0)
(1.01683 -0.00962409 0)
(1.01774 -0.00966785 0)
(1.01862 -0.0096846 0)
(1.01948 -0.0096764 0)
(1.02031 -0.00964525 0)
(1.02111 -0.00959315 0)
(1.02189 -0.00952198 0)
(1.02263 -0.00943364 0)
(1.02334 -0.00932983 0)
(1.02402 -0.00921232 0)
(1.02467 -0.00908259 0)
(1.02529 -0.00894225 0)
(1.02587 -0.00879257 0)
(1.02643 -0.00863502 0)
(1.02696 -0.00847065 0)
(1.02746 -0.00830081 0)
(1 -0.000276118 0)
(1.00008 -0.000802513 0)
(1.00024 -0.00131773 0)
(1.00046 -0.00184004 0)
(1.00074 -0.00238359 0)
(1.00109 -0.00295737 0)
(1.0015 -0.00356416 0)
(1.00198 -0.00420004 0)
(1.00254 -0.00485571 0)
(1.00316 -0.00551897 0)
(1.00385 -0.0061768 0)
(1.0046 -0.00681707 0)
(1.00541 -0.0074296 0)
(1.00627 -0.00800667 0)
(1.00717 -0.00854305 0)
(1.00811 -0.00903546 0)
(1.00907 -0.00948214 0)
(1.01006 -0.00988235 0)
(1.01107 -0.0102363 0)
(1.01208 -0.0105446 0)
(1.0131 -0.0108085 0)
(1.01412 -0.0110294 0)
(1.01513 -0.0112089 0)
(1.01613 -0.0113489 0)
(1.01712 -0.0114513 0)
(1.01809 -0.0115183 0)
(1.01904 -0.0115522 0)
(1.01996 -0.0115553 0)
(1.02085 -0.0115297 0)
(1.02172 -0.0114777 0)
(1.02256 -0.0114015 0)
(1.02337 -0.0113034 0)
(1.02414 -0.0111853 0)
(1.02488 -0.0110494 0)
(1.02559 -0.0108974 0)
(1.02627 -0.0107315 0)
(1.02691 -0.0105531 0)
(1.02752 -0.0103641 0)
(1.0281 -0.0101658 0)
(1.02864 -0.00995998 0)
(1 -0.000307585 0)
(1.00008 -0.000892742 0)
(1.00022 -0.00146598 0)
(1.00043 -0.00204914 0)
(1.00069 -0.00265897 0)
(1.00102 -0.00330632 0)
(1.00141 -0.00399446 0)
(1.00187 -0.00471919 0)
(1.00241 -0.0054699 0)
(1.00301 -0.00623268 0)
(1.00369 -0.00699259 0)
(1.00443 -0.00773564 0)
(1.00524 -0.00845004 0)
(1.0061 -0.00912679 0)
(1.00701 -0.00975966 0)
(1.00796 -0.0103445 0)
(1.00895 -0.0108788 0)
(1.00997 -0.0113615 0)
(1.01101 -0.0117922 0)
(1.01207 -0.0121715 0)
(1.01313 -0.0125002 0)
(1.01421 -0.0127793 0)
(1.01528 -0.0130105 0)
(1.01634 -0.0131955 0)
(1.01739 -0.0133362 0)
(1.01843 -0.0134348 0)
(1.01945 -0.0134935 0)
(1.02045 -0.0135148 0)
(1.02142 -0.013501 0)
(1.02237 -0.0134547 0)
(1.02328 -0.0133781 0)
(1.02417 -0.013274 0)
(1.02502 -0.0131446 0)
(1.02583 -0.0129923 0)
(1.02661 -0.0128194 0)
(1.02736 -0.0126283 0)
(1.02806 -0.0124208 0)
(1.02874 -0.0121994 0)
(1.02938 -0.0119655 0)
(1.02998 -0.0117215 0)
(1 -0.000335587 0)
(1.00007 -0.000972519 0)
(1.0002 -0.00159705 0)
(1.00039 -0.00223486 0)
(1.00063 -0.00290539 0)
(1.00094 -0.00362152 0)
(1.0013 -0.00438713 0)
(1.00174 -0.00519761 0)
(1.00225 -0.00604139 0)
(1.00284 -0.00690296 0)
(1.00349 -0.00776541 0)
(1.00422 -0.00861288 0)
(1.00502 -0.00943206 0)
(1.00588 -0.0102127 0)
(1.0068 -0.0109476 0)
(1.00776 -0.0116315 0)
(1.00877 -0.0122611 0)
(1.00981 -0.0128348 0)
(1.01089 -0.0133517 0)
(1.01199 -0.0138119 0)
(1.01311 -0.0142158 0)
(1.01424 -0.014564 0)
(1.01537 -0.0148577 0)
(1.0165 -0.0150983 0)
(1.01763 -0.0152877 0)
(1.01875 -0.0154278 0)
(1.01985 -0.0155209 0)
(1.02094 -0.0155692 0)
(1.022 -0.0155751 0)
(1.02303 -0.0155413 0)
(1.02403 -0.0154705 0)
(1.02501 -0.0153654 0)
(1.02594 -0.0152287 0)
(1.02685 -0.0150632 0)
(1.02771 -0.0148713 0)
(1.02854 -0.014656 0)
(1.02933 -0.0144196 0)
(1.03008 -0.014165 0)
(1.03079 -0.013894 0)
(1.03146 -0.0136094 0)
(1 -0.000360003 0)
(1.00006 -0.00104142 0)
(1.00018 -0.00171031 0)
(1.00035 -0.00239618 0)
(1.00057 -0.00312154 0)
(1.00084 -0.00390125 0)
(1.00118 -0.00473994 0)
(1.00159 -0.00563254 0)
(1.00207 -0.00656686 0)
(1.00262 -0.007526 0)
(1.00326 -0.008491 0)
(1.00397 -0.0094441 0)
(1.00475 -0.0103707 0)
(1.0056 -0.0112595 0)
(1.00652 -0.012102 0)
(1.00749 -0.0128917 0)
(1.00851 -0.0136248 0)
(1.00958 -0.0142986 0)
(1.01069 -0.0149121 0)
(1.01183 -0.0154644 0)
(1.013 -0.0159553 0)
(1.01419 -0.0163847 0)
(1.01539 -0.0167533 0)
(1.0166 -0.0170622 0)
(1.01781 -0.0173127 0)
(1.01901 -0.0175064 0)
(1.02021 -0.0176451 0)
(1.02139 -0.017731 0)
(1.02255 -0.0177664 0)
(1.02369 -0.0177541 0)
(1.02479 -0.0176967 0)
(1.02587 -0.0175973 0)
(1.02691 -0.0174586 0)
(1.02791 -0.017284 0)
(1.02888 -0.0170762 0)
(1.0298 -0.0168387 0)
(1.03068 -0.0165741 0)
(1.03152 -0.016286 0)
(1.03232 -0.0159766 0)
(1.03308 -0.0156495 0)
(1 -0.000380711 0)
(1.00006 -0.00109918 0)
(1.00016 -0.00180527 0)
(1.0003 -0.00253231 0)
(1.00049 -0.00330629 0)
(1.00074 -0.00414408 0)
(1.00104 -0.00505073 0)
(1.00141 -0.0060213 0)
(1.00185 -0.007043 0)
(1.00238 -0.00809778 0)
(1.00298 -0.00916453 0)
(1.00366 -0.0102239 0)
(1.00443 -0.0112602 0)
(1.00526 -0.0122609 0)
(1.00617 -0.0132163 0)
(1.00714 -0.0141187 0)
(1.00818 -0.0149635 0)
(1.00926 -0.0157473 0)
(1.0104 -0.0164685 0)
(1.01158 -0.0171251 0)
(1.0128 -0.0177161 0)
(1.01405 -0.0182404 0)
(1.01532 -0.0186982 0)
(1.01661 -0.0190898 0)
(1.0179 -0.0194158 0)
(1.0192 -0.0196772 0)
(1.0205 -0.0198752 0)
(1.02179 -0.0200117 0)
(1.02306 -0.0200885 0)
(1.02431 -0.0201086 0)
(1.02553 -0.0200743 0)
(1.02673 -0.019989 0)
(1.02788 -0.0198554 0)
(1.02901 -0.0196775 0)
(1.03009 -0.0194579 0)
(1.03112 -0.0192013 0)
(1.03212 -0.0189101 0)
(1.03306 -0.0185891 0)
(1.03397 -0.0182405 0)
(1.03482 -0.0178689 0)
(1 -0.000397624 0)
(1.00005 -0.00114565 0)
(1.00013 -0.00188152 0)
(1.00025 -0.00264269 0)
(1.00041 -0.00345886 0)
(1.00062 -0.00434876 0)
(1.00088 -0.00531758 0)
(1.00121 -0.00636135 0)
(1.00161 -0.0074668 0)
(1.00209 -0.00861426 0)
(1.00266 -0.00978091 0)
(1.00331 -0.0109463 0)
(1.00404 -0.0120939 0)
(1.00485 -0.0132099 0)
(1.00574 -0.0142829 0)
(1.00671 -0.0153045 0)
(1.00774 -0.0162693 0)
(1.00884 -0.0171733 0)
(1.01 -0.0180138 0)
(1.01122 -0.0187877 0)
(1.01248 -0.0194929 0)
(1.01379 -0.0201274 0)
(1.01513 -0.0206904 0)
(1.0165 -0.0211812 0)
(1.01789 -0.0215994 0)
(1.01929 -0.021945 0)
(1.02069 -0.0222184 0)
(1.0221 -0.0224208 0)
(1.02349 -0.0225536 0)
(1.02487 -0.0226194 0)
(1.02623 -0.0226203 0)
(1.02756 -0.0225597 0)
(1.02885 -0.0224403 0)
(1.03011 -0.0222665 0)
(1.03132 -0.0220412 0)
(1.03249 -0.0217697 0)
(1.03361 -0.0214548 0)
(1.03469 -0.0211021 0)
(1.03571 -0.0207141 0)
(1.03668 -0.0202968 0)
(1 -0.000410708 0)
(1.00004 -0.00118078 0)
(1.0001 -0.00193883 0)
(1.00019 -0.00272698 0)
(1.00032 -0.00357891 0)
(1.00048 -0.00451422 0)
(1.0007 -0.0055389 0)
(1.00099 -0.00665059 0)
(1.00134 -0.00783546 0)
(1.00177 -0.00907153 0)
(1.00229 -0.010335 0)
(1.0029 -0.0116053 0)
(1.00359 -0.0128651 0)
(1.00436 -0.0140986 0)
(1.00523 -0.0152932 0)
(1.00618 -0.0164397 0)
(1.00721 -0.0175326 0)
(1.00831 -0.0185669 0)
(1.00949 -0.0195387 0)
(1.01073 -0.0204435 0)
(1.01203 -0.021278 0)
(1.0134 -0.0220393 0)
(1.01481 -0.0227254 0)
(1.01626 -0.023334 0)
(1.01774 -0.0238634 0)
(1.01925 -0.0243121 0)
(1.02077 -0.0246796 0)
(1.0223 -0.0249662 0)
(1.02383 -0.0251723 0)
(1.02535 -0.0253001 0)
(1.02685 -0.0253509 0)
(1.02833 -0.0253284 0)
(1.02978 -0.0252345 0)
(1.03119 -0.0250747 0)
(1.03256 -0.0248514 0)
(1.03388 -0.0245711 0)
(1.03515 -0.0242365 0)
(1.03637 -0.0238547 0)
(1.03753 -0.0234281 0)
(1.03864 -0.0229643 0)
(1 -0.000419971 0)
(1.00003 -0.00120461 0)
(1.00007 -0.00197706 0)
(1.00013 -0.00278533 0)
(1.00022 -0.00366637 0)
(1.00034 -0.00463968 0)
(1.00051 -0.00571342 0)
(1.00074 -0.00688758 0)
(1.00104 -0.00814637 0)
(1.00142 -0.0094658 0)
(1.00188 -0.0108218 0)
(1.00243 -0.0121949 0)
(1.00307 -0.0135664 0)
(1.0038 -0.0149185 0)
(1.00463 -0.0162375 0)
(1.00555 -0.0175142 0)
(1.00656 -0.0187426 0)
(1.00765 -0.019917 0)
(1.00883 -0.0210318 0)
(1.0101 -0.0220813 0)
(1.01144 -0.0230613 0)
(1.01285 -0.0239672 0)
(1.01432 -0.0247958 0)
(1.01585 -0.0255427 0)
(1.01743 -0.0262046 0)
(1.01905 -0.0267782 0)
(1.02069 -0.0272616 0)
(1.02236 -0.0276537 0)
(1.02404 -0.0279537 0)
(1.02571 -0.028163 0)
(1.02738 -0.0282816 0)
(1.02903 -0.0283134 0)
(1.03065 -0.0282594 0)
(1.03224 -0.0281259 0)
(1.03378 -0.0279147 0)
(1.03527 -0.0276338 0)
(1.03672 -0.0272853 0)
(1.0381 -0.0268782 0)
(1.03943 -0.0264149 0)
(1.04069 -0.0259047 0)
(1 -0.000425525 0)
(1.00002 -0.00121715 0)
(1.00004 -0.00199624 0)
(1.00007 -0.00281839 0)
(1.00011 -0.00372136 0)
(1.00019 -0.00472459 0)
(1.00031 -0.0058407 0)
(1.00048 -0.00707139 0)
(1.00072 -0.00839731 0)
(1.00103 -0.00979349 0)
(1.00143 -0.0112374 0)
(1.00192 -0.0127098 0)
(1.00249 -0.0141909 0)
(1.00317 -0.0156608 0)
(1.00395 -0.0171058 0)
(1.00482 -0.0185167 0)
(1.0058 -0.0198873 0)
(1.00687 -0.0212104 0)
(1.00804 -0.0224796 0)
(1.00931 -0.0236877 0)
(1.01067 -0.0248296 0)
(1.01212 -0.0258992 0)
(1.01365 -0.0268912 0)
(1.01526 -0.0277989 0)
(1.01693 -0.0286169 0)
(1.01866 -0.0293401 0)
(1.02044 -0.0299643 0)
(1.02225 -0.0304868 0)
(1.02408 -0.030905 0)
(1.02593 -0.0312188 0)
(1.02777 -0.0314268 0)
(1.02961 -0.0315327 0)
(1.03142 -0.0315362 0)
(1.03321 -0.0314445 0)
(1.03495 -0.0312583 0)
(1.03664 -0.0309872 0)
(1.03828 -0.0306326 0)
(1.03986 -0.030206 0)
(1.04138 -0.0297088 0)
(1.04283 -0.0291532 0)
(1 -0.000427562 0)
(1 -0.0012182 0)
(1 -0.00199681 0)
(0.999997 -0.00282726 0)
(1 -0.00374401 0)
(1.00003 -0.00476892 0)
(1.00009 -0.00592123 0)
(1.0002 -0.0072015 0)
(1.00037 -0.00858626 0)
(1.00062 -0.0100518 0)
(1.00094 -0.011578 0)
(1.00135 -0.0131454 0)
(1.00185 -0.0147318 0)
(1.00246 -0.0163167 0)
(1.00317 -0.0178877 0)
(1.00399 -0.0194356 0)
(1.00491 -0.0209535 0)
(1.00595 -0.022433 0)
(1.0071 -0.0238669 0)
(1.00836 -0.0252471 0)
(1.00973 -0.0265677 0)
(1.01121 -0.0278204 0)
(1.01278 -0.0289979 0)
(1.01446 -0.0300906 0)
(1.01622 -0.031091 0)
(1.01806 -0.0319911 0)
(1.01996 -0.0327846 0)
(1.02193 -0.0334663 0)
(1.02393 -0.0340307 0)
(1.02596 -0.0344764 0)
(1.028 -0.0347996 0)
(1.03004 -0.0350035 0)
(1.03207 -0.0350861 0)
(1.03408 -0.0350553 0)
(1.03604 -0.0349102 0)
(1.03797 -0.0346625 0)
(1.03983 -0.034312 0)
(1.04163 -0.0338733 0)
(1.04337 -0.0333467 0)
(1.04502 -0.032748 0)
(1 -0.00042626 0)
(0.999991 -0.00120736 0)
(0.999964 -0.00197989 0)
(0.999922 -0.00281324 0)
(0.999889 -0.00373437 0)
(0.99987 -0.00477366 0)
(0.999867 -0.0059562 0)
(0.999904 -0.00727758 0)
(1.00001 -0.00871166 0)
(1.00018 -0.0102389 0)
(1.00042 -0.0118412 0)
(1.00074 -0.0134973 0)
(1.00116 -0.015183 0)
(1.00168 -0.0168782 0)
(1.00231 -0.0185733 0)
(1.00305 -0.0202589 0)
(1.00391 -0.0219274 0)
(1.00489 -0.0235691 0)
(1.00599 -0.0251769 0)
(1.00723 -0.0267419 0)
(1.00859 -0.0282575 0)
(1.01008 -0.0297129 0)
(1.01169 -0.0310988 0)
(1.01342 -0.0324023 0)
(1.01526 -0.0336135 0)
(1.01721 -0.0347212 0)
(1.01925 -0.035716 0)
(1.02136 -0.0365893 0)
(1.02354 -0.0373328 0)
(1.02576 -0.0379424 0)
(1.02801 -0.0384114 0)
(1.03029 -0.0387424 0)
(1.03255 -0.0389302 0)
(1.03481 -0.0389838 0)
(1.03703 -0.0388997 0)
(1.03921 -0.0386922 0)
(1.04133 -0.0383589 0)
(1.04339 -0.0379181 0)
(1.04537 -0.0373683 0)
(1.04727 -0.0367298 0)
(1 -0.000421597 0)
(0.999979 -0.00118413 0)
(0.999922 -0.00194743 0)
(0.999845 -0.0027773 0)
(0.999772 -0.00369277 0)
(0.999699 -0.0047411 0)
(0.99963 -0.00594711 0)
(0.999599 -0.00729924 0)
(0.999627 -0.00877294 0)
(0.999713 -0.0103541 0)
(0.999861 -0.0120251 0)
(1.00008 -0.0137617 0)
(1.00041 -0.0155387 0)
(1.00083 -0.0173383 0)
(1.00137 -0.0191534 0)
(1.00202 -0.0209748 0)
(1.00279 -0.0227945 0)
(1.00369 -0.0246024 0)
(1.00473 -0.0263915 0)
(1.00592 -0.0281528 0)
(1.00725 -0.0298786 0)
(1.00873 -0.0315559 0)
(1.01036 -0.0331733 0)
(1.01213 -0.0347146 0)
(1.01404 -0.0361673 0)
(1.01609 -0.0375158 0)
(1.01825 -0.0387477 0)
(1.02051 -0.0398497 0)
(1.02287 -0.0408098 0)
(1.0253 -0.0416207 0)
(1.02778 -0.0422719 0)
(1.0303 -0.0427644 0)
(1.03283 -0.0430891 0)
(1.03536 -0.0432559 0)
(1.03787 -0.0432574 0)
(1.04034 -0.0431112 0)
(1.04276 -0.0428114 0)
(1.04511 -0.0423812 0)
(1.04738 -0.0418163 0)
(1.04956 -0.0411426 0)
(1 -0.00041304 0)
(0.999964 -0.00114834 0)
(0.999875 -0.00190214 0)
(0.999767 -0.00271969 0)
(0.999655 -0.00362059 0)
(0.999523 -0.00467467 0)
(0.999387 -0.00589486 0)
(0.999288 -0.00726655 0)
(0.999237 -0.00877077 0)
(0.999232 -0.0103978 0)
(0.999278 -0.0121285 0)
(0.999398 -0.0139355 0)
(0.999614 -0.0157946 0)
(0.999929 -0.0176913 0)
(1.00035 -0.0196204 0)
(1.00088 -0.0215724 0)
(1.00155 -0.0235407 0)
(1.00235 -0.025516 0)
(1.00331 -0.0274919 0)
(1.00443 -0.0294588 0)
(1.0057 -0.0314084 0)
(1.00715 -0.0333257 0)
(1.00877 -0.0351974 0)
(1.01056 -0.037004 0)
(1.01253 -0.0387305 0)
(1.01465 -0.040356 0)
(1.01693 -0.0418644 0)
(1.01935 -0.0432366 0)
(1.02188 -0.0444565 0)
(1.02453 -0.0455121 0)
(1.02725 -0.0463883 0)
(1.03004 -0.0470832 0)
(1.03286 -0.0475832 0)
(1.0357 -0.0478979 0)
(1.03853 -0.0480155 0)
(1.04133 -0.0479565 0)
(1.04407 -0.0477108 0)
(1.04676 -0.0473073 0)
(1.04936 -0.0467375 0)
(1.05186 -0.0460349 0)
(1 -0.000399197 0)
(0.999946 -0.00110079 0)
(0.999823 -0.00184693 0)
(0.999689 -0.00263993 0)
(0.999536 -0.00352114 0)
(0.999342 -0.00457777 0)
(0.999143 -0.00579952 0)
(0.998974 -0.00718075 0)
(0.99884 -0.00870702 0)
(0.998736 -0.0103712 0)
(0.998675 -0.0121509 0)
(0.998684 -0.0140168 0)
(0.998782 -0.0159476 0)
(0.998972 -0.0179323 0)
(0.999262 -0.0199669 0)
(0.999666 -0.0220419 0)
(1.0002 -0.0241531 0)
(1.00089 -0.0262934 0)
(1.00173 -0.0284582 0)
(1.00274 -0.0306374 0)
(1.00394 -0.0328222 0)
(1.00532 -0.0349957 0)
(1.00691 -0.0371436 0)
(1.0087 -0.0392431 0)
(1.01069 -0.0412767 0)
(1.01288 -0.0432174 0)
(1.01526 -0.0450451 0)
(1.01782 -0.0467337 0)
(1.02054 -0.0482626 0)
(1.0234 -0.0496128 0)
(1.02638 -0.0507644 0)
(1.02945 -0.0517104 0)
(1.03259 -0.0524319 0)
(1.03577 -0.0529368 0)
(1.03895 -0.0532081 0)
(1.04212 -0.0532684 0)
(1.04525 -0.0531026 0)
(1.04831 -0.0527456 0)
(1.05129 -0.052184 0)
(1.05417 -0.0514602 0)
(1 -0.000377486 0)
(0.999922 -0.00104406 0)
(0.999765 -0.00178396 0)
(0.999612 -0.00253766 0)
(0.999414 -0.00339979 0)
(0.99916 -0.0044522 0)
(0.9989 -0.00566092 0)
(0.99866 -0.00704489 0)
(0.998438 -0.00858397 0)
(0.99823 -0.0102759 0)
(0.998057 -0.0120926 0)
(0.997948 -0.0140049 0)
(0.997919 -0.0159959 0)
(0.99797 -0.0180575 0)
(0.998115 -0.0201864 0)
(0.99837 -0.0223743 0)
(0.998758 -0.0246204 0)
(0.999295 -0.02692 0)
(0.999999 -0.0292714 0)
(1.00088 -0.0316656 0)
(1.00196 -0.0340934 0)
(1.00325 -0.036537 0)
(1.00477 -0.038981 0)
(1.00652 -0.0414001 0)
(1.00851 -0.0437739 0)
(1.01074 -0.0460696 0)
(1.0132 -0.0482628 0)
(1.01589 -0.0503188 0)
(1.01877 -0.0522121 0)
(1.02186 -0.0539144 0)
(1.0251 -0.0554002 0)
(1.02848 -0.0566548 0)
(1.03195 -0.0576536 0)
(1.03551 -0.0584001 0)
(1.03909 -0.0588713 0)
(1.04268 -0.0590906 0)
(1.04623 -0.0590371 0)
(1.04974 -0.0587513 0)
(1.05315 -0.0582147 0)
(1.05646 -0.0574791 0)
(1.00001 -0.000343791 0)
(0.999888 -0.000983531 0)
(0.999704 -0.00171333 0)
(0.999538 -0.00241432 0)
(0.999288 -0.00326266 0)
(0.99898 -0.0042972 0)
(0.998662 -0.00548047 0)
(0.998346 -0.00686356 0)
(0.998033 -0.00840371 0)
(0.997718 -0.010115 0)
(0.99743 -0.0119544 0)
(0.997198 -0.0139007 0)
(0.997032 -0.0159393 0)
(0.996932 -0.0180648 0)
(0.996919 -0.0202746 0)
(0.997009 -0.0225627 0)
(0.997227 -0.0249329 0)
(0.997591 -0.0273827 0)
(0.998125 -0.0299141 0)
(0.998846 -0.0325206 0)
(0.999777 -0.0351947 0)
(1.00094 -0.0379183 0)
(1.00235 -0.0406756 0)
(1.00402 -0.0434387 0)
(1.00597 -0.0461851 0)
(1.00821 -0.0488761 0)
(1.01072 -0.0514832 0)
(1.0135 -0.0539621 0)
(1.01655 -0.0562816 0)
(1.01985 -0.0584016 0)
(1.02335 -0.0602903 0)
(1.02705 -0.0619218 0)
(1.03089 -0.0632649 0)
(1.03486 -0.0643153 0)
(1.03888 -0.0650439 0)
(1.04295 -0.0654712 0)
(1.04699 -0.0655711 0)
(1.05099 -0.0653875 0)
(1.0549 -0.064897 0)
(1.05871 -0.0641612 0)
(1.00001 -0.000292277 0)
(0.99984 -0.000928211 0)
(0.999641 -0.00163125 0)
(0.999463 -0.00227484 0)
(0.999159 -0.00311321 0)
(0.998806 -0.00411055 0)
(0.998428 -0.00526237 0)
(0.998033 -0.00664151 0)
(0.997628 -0.0081681 0)
(0.997204 -0.00989303 0)
(0.996801 -0.0117372 0)
(0.99644 -0.0137077 0)
(0.996129 -0.0157781 0)
(0.99587 -0.0179536 0)
(0.995686 -0.0202285 0)
(0.995594 -0.0226022 0)
(0.995622 -0.0250825 0)
(0.99579 -0.0276696 0)
(0.996125 -0.0303706 0)
(0.996649 -0.0331816 0)
(0.997393 -0.036099 0)
(0.998383 -0.0391071 0)
(0.999644 -0.0421901 0)
(1.0012 -0.0453185 0)
(1.00306 -0.0484675 0)
(1.00525 -0.0515937 0)
(1.00777 -0.0546642 0)
(1.01063 -0.0576251 0)
(1.01381 -0.0604386 0)
(1.0173 -0.0630509 0)
(1.02107 -0.0654219 0)
(1.0251 -0.0675113 0)
(1.02933 -0.0692797 0)
(1.03374 -0.0707107 0)
(1.03826 -0.0717678 0)
(1.04285 -0.0724648 0)
(1.04745 -0.0727699 0)
(1.05204 -0.0727276 0)
(1.05653 -0.0723105 0)
(1.06092 -0.0715883 0)
(1.00002 -0.000215592 0)
(0.999776 -0.000891806 0)
(0.99958 -0.00152865 0)
(0.999384 -0.00212942 0)
(0.999028 -0.00294799 0)
(0.99864 -0.00389245 0)
(0.998196 -0.00501239 0)
(0.997724 -0.00638274 0)
(0.997227 -0.00787937 0)
(0.996693 -0.00961658 0)
(0.996176 -0.0114411 0)
(0.99568 -0.0134324 0)
(0.99522 -0.0155122 0)
(0.994792 -0.0177273 0)
(0.994429 -0.0200467 0)
(0.994141 -0.0224908 0)
(0.993961 -0.0250633 0)
(0.99391 -0.0277712 0)
(0.994018 -0.0306269 0)
(0.994312 -0.0336296 0)
(0.994828 -0.0367814 0)
(0.9956 -0.0400708 0)
(0.996662 -0.043485 0)
(0.998042 -0.0469944 0)
(0.999768 -0.0505724 0)
(1.00186 -0.0541716 0)
(1.00435 -0.0577548 0)
(1.00722 -0.0612596 0)
(1.0105 -0.0646402 0)
(1.01416 -0.0678281 0)
(1.01818 -0.0707729 0)
(1.02254 -0.0734161 0)
(1.02718 -0.0757073 0)
(1.03207 -0.0776132 0)
(1.03713 -0.0790878 0)
(1.04233 -0.0801328 0)
(1.04757 -0.0807098 0)
(1.05282 -0.0808594 0)
(1.05799 -0.080551 0)
(1.06305 -0.0798599 0)
(1.00003 -0.000104439 0)
(0.999694 -0.000893182 0)
(0.999526 -0.00139044 0)
(0.999297 -0.00199523 0)
(0.998902 -0.00275394 0)
(0.998483 -0.00365187 0)
(0.997966 -0.00473278 0)
(0.997422 -0.00609246 0)
(0.996831 -0.00753938 0)
(0.99619 -0.00929396 0)
(0.995562 -0.0110646 0)
(0.994926 -0.0130863 0)
(0.994317 -0.0151387 0)
(0.993713 -0.0173951 0)
(0.993164 -0.0197261 0)
(0.992667 -0.0222322 0)
(0.992265 -0.0248696 0)
(0.991973 -0.0276822 0)
(0.991827 -0.0306709 0)
(0.991858 -0.033848 0)
(0.992106 -0.037219 0)
(0.992612 -0.0407792 0)
(0.993419 -0.0445209 0)
(0.994566 -0.0484186 0)
(0.996091 -0.0524452 0)
(0.998027 -0.0565515 0)
(1.00041 -0.0606949 0)
(1.00325 -0.0648065 0)
(1.00656 -0.0688314 0)
(1.01035 -0.0726867 0)
(1.0146 -0.0763085 0)
(1.01928 -0.0796182 0)
(1.02434 -0.0825492 0)
(1.02974 -0.0850466 0)
(1.03541 -0.0870505 0)
(1.04128 -0.0885438 0)
(1.04725 -0.0894796 0)
(1.05327 -0.0898879 0)
(1.05924 -0.0897359 0)
(1.0651 -0.0890996 0)
(1.00004 4.81426e-05 0)
(0.999594 -0.000954566 0)
(0.999487 -0.0011962 0)
(0.9992 -0.00189538 0)
(0.998793 -0.00250809 0)
(0.998329 -0.00341239 0)
(0.997742 -0.00441485 0)
(0.997131 -0.00578328 0)
(0.996446 -0.00714501 0)
(0.995704 -0.00893753 0)
(0.994967 -0.0106028 0)
(0.994187 -0.0126875 0)
(0.993434 -0.0146486 0)
(0.992643 -0.0169764 0)
(0.991912 -0.019257 0)
(0.991188 -0.0218405 0)
(0.990558 -0.0244911 0)
(0.990002 -0.0274058 0)
(0.989581 -0.0304887 0)
(0.989316 -0.0338259 0)
(0.989257 -0.0373886 0)
(0.989448 -0.041205 0)
(0.989942 -0.0452594 0)
(0.990789 -0.0495427 0)
(0.992039 -0.054027 0)
(0.993741 -0.0586667 0)
(0.995939 -0.0634134 0)
(0.998666 -0.0681945 0)
(1.00195 -0.0729436 0)
(1.00581 -0.0775656 0)
(1.01024 -0.0819799 0)
(1.01521 -0.086086 0)
(1.0207 -0.0897962 0)
(1.02664 -0.0930281 0)
(1.03296 -0.0957011 0)
(1.03958 -0.0977724 0)
(1.0464 -0.0991803 0)
(1.05332 -0.0999373 0)
(1.06023 -0.100006 0)
(1.06704 -0.0994587 0)
(1.00007 0.000245601 0)
(0.999475 -0.0010923 0)
(0.999481 -0.000924587 0)
(0.999086 -0.00185465 0)
(0.998716 -0.00218247 0)
(0.998169 -0.00321053 0)
(0.997539 -0.00403564 0)
(0.996851 -0.00548213 0)
(0.996084 -0.00668196 0)
(0.995241 -0.00856951 0)
(0.994401 -0.0100432 0)
(0.993471 -0.0122646 0)
(0.992588 -0.0140229 0)
(0.991595 -0.0165066 0)
(0.990697 -0.0186146 0)
(0.98972 -0.0213498 0)
(0.988871 -0.0239021 0)
(0.988017 -0.0269654 0)
(0.987316 -0.0300546 0)
(0.986713 -0.0335676 0)
(0.986318 -0.0372602 0)
(0.986141 -0.0413296 0)
(0.986267 -0.0456586 0)
(0.986739 -0.0503229 0)
(0.987634 -0.0552536 0)
(0.989011 -0.0604441 0)
(0.990933 -0.0658261 0)
(0.993452 -0.0713367 0)
(0.996618 -0.0768908 0)
(1.00046 -0.0823861 0)
(1.005 -0.0877209 0)
(1.01022 -0.0927726 0)
(1.01611 -0.0974261 0)
(1.02261 -0.101567 0)
(1.02963 -0.105083 0)
(1.0371 -0.107899 0)
(1.04488 -0.109927 0)
(1.05285 -0.111154 0)
(1.06088 -0.111532 0)
(1.06884 -0.111122 0)
(1.00014 0.000484438 0)
(0.999326 -0.00130734 0)
(0.999536 -0.000564651 0)
(0.99894 -0.00189018 0)
(0.998694 -0.00175663 0)
(0.997983 -0.00308144 0)
(0.997385 -0.00356563 0)
(0.996567 -0.00522692 0)
(0.995767 -0.00612439 0)
(0.994794 -0.00822593 0)
(0.993885 -0.00936354 0)
(0.992779 -0.0118589 0)
(0.991801 -0.0132306 0)
(0.990569 -0.0160409 0)
(0.989549 -0.0177537 0)
(0.988268 -0.0208261 0)
(0.987245 -0.0230478 0)
(0.98603 -0.0264236 0)
(0.985078 -0.0293116 0)
(0.984069 -0.0331157 0)
(0.983339 -0.0367766 0)
(0.982717 -0.0411635 0)
(0.982438 -0.0456562 0)
(0.982447 -0.0507326 0)
(0.98291 -0.0560478 0)
(0.983851 -0.0618155 0)
(0.985389 -0.0678297 0)
(0.98758 -0.0741296 0)
(0.99051 -0.080559 0)
(0.994226 -0.0870441 0)
(0.998777 -0.0934394 0)
(1.00418 -0.0996093 0)
(1.01042 -0.1054 0)
(1.01746 -0.110661 0)
(1.02524 -0.115239 0)
(1.03363 -0.119012 0)
(1.04251 -0.121857 0)
(1.05172 -0.123718 0)
(1.06108 -0.124525 0)
(1.07042 -0.124322 0)
(1.00031 0.000750328 0)
(0.9991 -0.00158226 0)
(0.999705 -0.000125841 0)
(0.998712 -0.00199871 0)
(0.998776 -0.0012318 0)
(0.997724 -0.0030399 0)
(0.997328 -0.00298657 0)
(0.996236 -0.00504668 0)
(0.995543 -0.00544773 0)
(0.994325 -0.00794433 0)
(0.993461 -0.00853844 0)
(0.992081 -0.0115166 0)
(0.991116 -0.0122356 0)
(0.989543 -0.0156458 0)
(0.988516 -0.0166146 0)
(0.986809 -0.0203646 0)
(0.985738 -0.0218399 0)
(0.984019 -0.025897 0)
(0.982939 -0.0281502 0)
(0.981371 -0.0325858 0)
(0.980395 -0.0358199 0)
(0.979177 -0.0407919 0)
(0.978531 -0.0451321 0)
(0.977925 -0.0508042 0)
(0.977927 -0.0562849 0)
(0.978273 -0.0627515 0)
(0.979333 -0.069279 0)
(0.981025 -0.0764739 0)
(0.983587 -0.0837838 0)
(0.987017 -0.0914025 0)
(0.991453 -0.0989902 0)
(0.996911 -0.106487 0)
(1.00343 -0.113646 0)
(1.01099 -0.12029 0)
(1.01952 -0.126205 0)
(1.02892 -0.131214 0)
(1.03905 -0.135133 0)
(1.04971 -0.137855 0)
(1.06068 -0.139262 0)
(1.07171 -0.139368 0)
(1.0007 0.00102211 0)
(0.998703 -0.00188256 0)
(1.00008 0.000359735 0)
(0.99831 -0.00215451 0)
(0.999044 -0.000636449 0)
(0.9973 -0.00306882 0)
(0.997454 -0.00230976 0)
(0.995765 -0.00494061 0)
(0.995502 -0.00465135 0)
(0.993739 -0.00773746 0)
(0.993222 -0.00756124 0)
(0.991285 -0.0112612 0)
(0.990629 -0.0110215 0)
(0.988427 -0.0153665 0)
(0.987699 -0.0151543 0)
(0.985258 -0.0200506 0)
(0.984458 -0.0201896 0)
(0.981904 -0.0255241 0)
(0.981019 -0.0264268 0)
(0.978539 -0.0321634 0)
(0.977624 -0.0341977 0)
(0.975453 -0.0404175 0)
(0.974685 -0.0438623 0)
(0.973123 -0.0507108 0)
(0.972812 -0.0557255 0)
(0.972244 -0.0633492 0)
(0.972853 -0.0699265 0)
(0.973745 -0.0783642 0)
(0.975852 -0.0862976 0)
(0.978727 -0.0953416 0)
(0.982906 -0.10412 0)
(0.988222 -0.113247 0)
(0.994901 -0.122003 0)
(1.00288 -0.130377 0)
(1.01217 -0.137986 0)
(1.02265 -0.144595 0)
(1.03417 -0.149946 0)
(1.04652 -0.15384 0)
(1.05942 -0.156093 0)
(1.07253 -0.156667 0)
(1.00142 0.00127682 0)
(0.998002 -0.00216681 0)
(1.00078 0.000848191 0)
(0.997597 -0.00231631 0)
(0.999617 -1.90121e-05 0)
(0.996571 -0.00312588 0)
(0.997894 -0.00157994 0)
(0.994997 -0.00487435 0)
(0.995793 -0.0037743 0)
(0.992862 -0.00757845 0)
(0.993341 -0.00646771 0)
(0.990199 -0.0110679 0)
(0.990531 -0.00962391 0)
(0.987023 -0.0151845 0)
(0.9873 -0.013397 0)
(0.983415 -0.0198912 0)
(0.983619 -0.0180831 0)
(0.979482 -0.0253675 0)
(0.979546 -0.0240566 0)
(0.975372 -0.031994 0)
(0.975274 -0.0317288 0)
(0.971344 -0.040279 0)
(0.971173 -0.0415585 0)
(0.967848 -0.0507611 0)
(0.967842 -0.0539859 0)
(0.965592 -0.0639286 0)
(0.966194 -0.0693266 0)
(0.96559 -0.0800509 0)
(0.967462 -0.08762 0)
(0.969176 -0.098961 0)
(0.97311 -0.108345 0)
(0.977828 -0.119802 0)
(0.984576 -0.130096 0)
(0.992755 -0.140788 0)
(1.00275 -0.15047 0)
(1.01434 -0.159203 0)
(1.02741 -0.166485 0)
(1.04173 -0.171981 0)
(1.05696 -0.175442 0)
(1.07268 -0.176721 0)
(1.00258 0.00149528 0)
(0.996889 -0.00239284 0)
(1.00191 0.00129697 0)