/*--------------------------------*- C++ -*----------------------------------*\
| =========                 |                                                 |
| \\      /  F ield         | OpenFOAM: The Open Source CFD Toolbox           |
|  \\    /   O peration     | Version:  2312                                  |
|   \\  /    A nd           | Website:  www.openfoam.com                      |
|    \\/     M anipulation  |                                                 |
\*---------------------------------------------------------------------------*/
FoamFile
{
    version     2.0;
    format      ascii;
    arch        "LSB;label=32;scalar=64";
    class       surfaceScalarField;
    location    "35.2";
    object      phi;
}
// * * * * * * * * * * * * * * * * * * * * * * * * * * * * * * * * * * * * * //

dimensions      [0 3 -1 0 0 0 0];

oriented        oriented;

internalField   nonuniform List<scalar> 
10785
(
-0.00130529
0.00284111
-0.00153582
-0.00261227
0.00520727
-0.0039003
-0.00210827
0.00475663
-0.00526062
0.00203264
0.000735077
-0.00487599
0.01156
-0.00760163
-0.00192576
0.0277938
-0.0203923
0.00415853
0.0509343
-0.0366137
0.0134732
0.0800604
-0.0547451
0.0256189
0.113288
-0.0732759
0.0400481
0.148745
-0.0909824
0.0555258
0.183932
-0.107396
0.0722093
0.217414
-0.121695
0.0882124
0.24624
-0.134464
0.105639
0.271313
-0.144798
0.119725
-0.154662
0.139531
0.286443
-0.0007592
0.00360031
-0.000535754
0.00498382
0.00301371
0.00120716
0.0123395
-0.00859069
0.0291459
-0.024408
0.0531812
-0.0444276
0.0824647
-0.0658971
0.11413
-0.0864099
0.145257
-0.104404
0.173626
-0.119351
0.197417
-0.131186
0.216334
-0.140612
0.230509
-0.14864
0.241633
-0.155922
-0.164624
0.251595
-5.74669e-05
0.00365778
0.00234959
0.00257677
0.0102597
-0.00670293
0.0261065
-0.0244375
0.0495645
-0.0478661
0.0775844
-0.0724475
0.106225
-0.0945378
0.132155
-0.11234
0.153467
-0.125715
0.169664
-0.135548
0.181776
-0.143298
0.19168
-0.150516
0.201234
-0.158194
0.212135
-0.166823
-0.176893
0.224404
0.000689689
0.00296809
0.00590485
-0.00263839
0.0191807
-0.0199787
0.0408577
-0.0461145
0.0669778
-0.0739862
0.0925053
-0.097975
0.113915
-0.115948
0.130026
-0.128451
0.141632
-0.137321
0.150725
-0.144642
0.159274
-0.151847
0.168408
-0.159649
0.178146
-0.167932
0.188026
-0.176704
-0.18566
0.196794
0.00162128
0.00134681
0.0104206
-0.0114377
0.0288236
-0.0383818
0.0527245
-0.0700155
0.0757719
-0.0970336
0.0940734
-0.116276
0.10703
-0.128904
0.116187
-0.137608
0.123674
-0.144808
0.130864
-0.151832
0.138148
-0.159131
0.145274
-0.166775
0.152091
-0.174749
0.158781
-0.183394
-0.192554
0.165676
0.00291243
-0.00156562
0.0156542
-0.0241794
0.0365908
-0.0593184
0.0578738
-0.0912984
0.0744902
-0.11365
0.0857864
-0.127573
0.0934734
-0.136591
0.099491
-0.143626
0.104901
-0.150217
0.110036
-0.156968
0.115019
-0.164114
0.120028
-0.171784
0.125308
-0.180029
0.130793
-0.188879
-0.198
0.136238
0.00459043
-0.00615605
0.0202584
-0.0398474
0.0398744
-0.0789345
0.055894
-0.107318
0.0665417
-0.124298
0.073249
-0.13428
0.0778902
-0.141232
0.0816271
-0.147363
0.0850251
-0.153615
0.0883651
-0.160308
0.0917687
-0.167517
0.095215
-0.17523
0.0985917
-0.183406
0.10182
-0.192107
-0.20111
0.10493
0.00642738
-0.0125834
0.02274
-0.0561601
0.0385113
-0.0947057
0.0492643
-0.118071
0.0554952
-0.130529
0.059067
-0.137852
0.0614275
-0.143593
0.0633483
-0.149284
0.0651181
-0.155385
0.0667809
-0.161971
0.0683142
-0.16905
0.0697284
-0.176644
0.0711134
-0.184791
0.0724469
-0.193441
0.0738573
-0.202521
-0.00113541
-0.00501097
0.00614638
-0.00352242
-0.00593379
0.00832081
-0.00676727
-0.00331967
0.00656452
-0.0106371
0.000254348
0.00361551
-0.0149513
0.00409995
0.000214207
-0.0197141
0.00840849
-0.00364567
-0.0248241
0.0135203
-0.0084103
-0.0302018
0.0196327
-0.014255
-0.0357053
0.0268561
-0.0213526
-0.0411116
0.0352373
-0.029831
-0.046104
0.0447419
-0.0397496
-0.0502352
0.0551948
-0.0510635
-0.0530875
0.0664348
-0.0635826
-0.0542091
0.0778797
-0.0767581
0.088523
-0.0523237
-0.0904084
-0.00111101
-0.00389996
-0.00328964
-0.00375516
-0.00615827
-0.000451038
-0.00951894
0.00361502
-0.0131713
0.0077523
-0.0169139
0.0121511
-0.0205359
0.0171422
-0.0238088
0.0229056
-0.0264466
0.029494
-0.0280687
0.0368593
-0.0282378
0.0449111
-0.0263949
0.0533519
-0.021722
0.0617618
-0.0140006
0.0701583
0.0768226
-0.00230015
-0.000912922
-0.00298704
-0.00257278
-0.0020953
-0.00464066
0.00161684
-0.0069593
0.00593366
-0.00928516
0.0100782
-0.011281
0.014147
-0.0125807
0.0184419
-0.0128012
0.023126
-0.011526
0.0282188
-0.00831385
0.0336472
-0.00249506
0.0390923
0.00607044
0.0447864
0.0189204
0.0489119
0.0351213
0.0539574
0.0540197
0.0579242
-0.000685455
-0.00230159
-0.00177357
-0.00100719
-0.00290525
0.00274852
-0.00393028
0.00695869
-0.00460575
0.0107536
-0.00453128
0.0140725
-0.00323052
0.0171412
-0.000217883
0.0201134
0.00502173
0.0229791
0.0128079
0.0258611
0.024414
0.0274862
0.0385658
0.0306346
0.0588286
0.028649
0.0810641
0.0317219
0.02324
0.111844
-0.000589987
-0.0017116
-0.001356
-0.000241183
-0.00180582
0.00319834
-0.00172883
0.0068817
-0.000893774
0.00991858
0.00106504
0.0121137
0.00463123
0.013575
0.0103264
0.0144182
0.0187538
0.0145518
0.0300181
0.0145967
0.045797
0.0117073
0.0639077
0.012524
0.0896588
0.00289791
0.116349
0.00503189
-0.0137955
0.153384
-0.000740832
-0.000970766
-0.00164415
0.000662134
-0.00200981
0.003564
-0.00149158
0.00636348
0.000161289
0.00826571
0.00331813
0.00895688
0.00846454
0.00842856
0.016211
0.00667174
0.0273163
0.00344649
0.0423711
-0.000458095
0.0624157
-0.00833734
0.0872439
-0.0123043
0.119039
-0.0288976
0.15473
-0.0306586
-0.0578858
0.19882
-0.00110531
0.000134543
-0.00253608
0.0020929
-0.00334414
0.00437206
-0.00294955
0.00596889
-0.000841309
0.00615748
0.00362315
0.00449242
0.0113637
0.000688007
0.023339
-0.00530357
0.0404252
-0.0136396
0.0634225
-0.0234554
0.0915675
-0.0364824
0.127174
-0.0479108
0.165449
-0.067172
0.211645
-0.076855
-0.104092
0.257851
-0.00140127
-0.00320867
-0.00409723
-0.00300432
0.00122739
0.00987834
0.0240395
0.0443549
0.0707634
0.102834
0.138561
0.178862
0.217329
0.260199
0.295638
-0.0377731
0.205179
-0.21973
-0.0106546
0.226168
-0.253287
0.0313444
0.20295
-0.244949
0.0796706
0.134396
-0.182722
0.115689
0.0352004
-0.0712184
0.146672
-0.098262
0.0672788
0.178198
-0.269987
0.238461
0.191839
-0.385091
0.37145
0.183111
-0.408361
0.417089
0.176458
-0.365379
0.372033
0.156512
-0.267749
0.287695
0.108697
-0.179241
0.227055
0.0876748
-0.131343
0.152365
0.098961
-0.0610177
0.0497315
0.117854
0.00445545
-0.0233483
0.138702
0.0245334
-0.0453815
0.157957
0.0300814
-0.0493367
0.174941
0.00726458
-0.0242478
0.192634
-0.00741185
-0.0102819
0.206963
-0.0127442
-0.00158491
0.220678
-0.0238973
0.0101824
0.233528
-0.000567949
-0.0122819
0.243247
-0.00156506
-0.00815337
0.252637
0.0172773
-0.0266677
0.259153
0.0420191
-0.0485352
0.263465
0.031109
-0.0354207
0.266921
0.06521
-0.0686657
0.268173
0.0619765
-0.0632291
0.268619
0.0689905
-0.0694363
0.269468
0.0681739
-0.0690226
0.269012
0.116036
-0.11558
0.268627
0.0418733
-0.0414882
0.269247
0.104398
-0.105017
0.268003
0.129344
-0.1281
0.266854
0.0398238
-0.0386751
0.266572
0.117437
-0.117155
0.265257
0.13429
-0.132974
0.125141
-0.123427
0.024137
0.178742
0.0588426
0.191463
0.100408
0.161384
0.140524
0.09428
0.166416
0.00930779
0.190924
-0.12277
0.20865
-0.287713
0.211738
-0.388179
0.195803
-0.392425
0.179198
-0.348775
0.180636
-0.269187
0.157571
-0.156176
0.123147
-0.0969193
0.111158
-0.0490287
0.119827
-0.0042131
0.138402
0.0059583
0.159505
0.00897807
0.178876
-0.0121067
0.195942
-0.0244779
0.20785
-0.0246523
0.218079
-0.0341257
0.227252
-0.00974118
0.234726
-0.00903906
0.243574
0.00842891
0.250341
0.0352523
0.255708
0.0257426
0.260562
0.0603553
0.262883
0.0596562
0.264427
0.0674467
0.266415
0.0661851
0.26682
0.115631
0.267118
0.041575
0.268386
0.10313
0.267471
0.130258
0.266551
0.0407445
0.266459
0.117528
0.265264
0.135484
0.126762
0.0884695
0.148197
0.124432
0.1555
0.160797
0.125019
0.189
0.0660776
0.208306
-0.00999828
0.228818
-0.143282
0.232696
-0.29159
0.215105
-0.370588
0.192808
-0.370129
0.173344
-0.329311
0.177862
-0.273705
0.188719
-0.167032
0.174673
-0.0828736
0.156239
-0.0305941
0.154901
-0.00287554
0.167543
-0.00668325
0.185844
-0.00932337
0.203205
-0.0294673
0.216184
-0.0374572
0.223489
-0.0319566
0.228057
-0.0386946
0.231129
-0.0128131
0.233875
-0.0117852
0.239023
0.00328113
0.243638
0.0306379
0.248323
0.0210572
0.253212
0.0554663
0.256118
0.05675
0.258667
0.0648976
0.261851
0.0630018
0.263351
0.114131
0.264577
0.0403488
0.266668
0.101039
0.266262
0.130664
0.265746
0.0412607
0.266004
0.117271
0.265092
0.136396
0.128113
0.142387
0.117653
0.17557
0.122317
0.205314
0.0952759
0.22482
0.0465717
0.241119
-0.0262979
0.25464
-0.156803
0.248206
-0.285156
0.219517
-0.3419
0.189249
-0.33986
0.168197
-0.308259
0.165039
-0.270548
0.186406
-0.188399
0.202954
-0.0994216
0.204121
-0.0317612
0.204122
-0.00287574
0.211557
-0.014119
0.222962
-0.020728
0.233412
-0.0399175
0.240083
-0.044128
0.2426
-0.0344737
0.24265
-0.0387448
0.241101
-0.0112641
0.239596
-0.0102798
0.240291
0.00258555
0.241599
0.0293306
0.244139
0.0185168
0.24752
0.0520853
0.250063
0.0542068
0.25295
0.0620106
0.25684
0.0591124
0.259251
0.111719
0.26137
0.0382306
0.264275
0.0981333
0.264459
0.130481
0.264478
0.0412413
0.265222
0.116526
0.264744
0.136875
0.129023
0.180503
0.0905348
0.209503
0.0933166
0.233669
0.0711096
0.249224
0.0310163
0.266226
-0.0432993
0.27126
-0.161838
0.249408
-0.263304
0.215272
-0.307763
0.187067
-0.311655
0.167716
-0.288908
0.159097
-0.261929
0.173549
-0.202851
0.201233
-0.127106
0.223108
-0.0536357
0.235546
-0.0153141
0.244124
-0.0226969
0.250683
-0.0272867
0.254252
-0.0434869
0.25519
-0.0450656
0.254054
-0.0333381
0.251756
-0.0364467
0.248644
-0.00815146
0.245441
-0.00707717
0.24362
0.00440678
0.242525
0.0304256
0.242904
0.0181377
0.244289
0.0507002
0.245821
0.0526746
0.248329
0.0595026
0.252249
0.0551923
0.25511
0.108858
0.25784
0.0355007
0.261399
0.0945741
0.262157
0.129722
0.26279
0.0406083
0.264135
0.115181
0.264229
0.136782
0.129327
0.217566
0.0717895
0.239282
0.0715998
0.258137
0.0522549
0.273218
0.015935
0.284833
-0.0549141
0.276804
-0.153809
0.244776
-0.231276
0.206969
-0.269957
0.180123
-0.284809
0.165279
-0.274065
0.157737
-0.254386
0.163747
-0.208861
0.186707
-0.150066
0.216041
-0.0829692
0.23777
-0.0370429
0.25043
-0.0353571
0.256753
-0.0336096
0.257998
-0.0447326
0.257033
-0.0441
0.254702
-0.031007
0.252086
-0.0338312
0.249386
-0.00545111
0.246456
-0.00414706
0.244386
0.00647674
0.242652
0.0321588
0.242012
0.0187785
0.242154
0.0505582
0.242787
0.0520415
0.244659
0.0576303
0.248211
0.0516408
0.251103
0.105966
0.254114
0.0324899
0.258144
0.0905442
0.259425
0.128442
0.260716
0.0393167
0.262761
0.113136
0.263556
0.135988
0.128867
0.266232
0.063409
0.277507
0.0603242
0.286583
0.0431798
0.292662
0.0098557
0.291439
-0.0536908
0.267523
-0.129894
0.230233
-0.193985
0.19549
-0.235214
0.169553
-0.258872
0.155556
-0.260067
0.151353
-0.250183
0.156106
-0.213615
0.172604
-0.166564
0.198872
-0.109237
0.222562
-0.0607334
0.237496
-0.0502911
0.245231
-0.0413442
0.247351
-0.0468526
0.247658
-0.0444069
0.246508
-0.0298572
0.245079
-0.0324026
0.24385
-0.00422213
0.241973
-0.00226968
0.240868
0.00758194
0.239645
0.0333814
0.23911
0.0193133
0.239153
0.0505154
0.239503
0.0516911
0.240988
0.0561454
0.244219
0.0484096
0.246997
0.103188
0.250089
0.029398
0.254501
0.0861326
0.256282
0.126661
0.258274
0.037324
0.261116
0.110295
0.262734
0.13437
0.127493
0.29816
0.0608866
0.301791
0.0566935
0.302842
0.0421285
0.300209
0.0124884
0.284647
-0.0381287
0.253755
-0.0990009
0.216806
-0.157037
0.18416
-0.202568
0.160165
-0.234877
0.145242
-0.245145
0.138482
-0.243423
0.142857
-0.21799
0.15622
-0.179927
0.178527
-0.131543
0.200588
-0.0827946
0.216002
-0.065705
0.225372
-0.0507144
0.229535
-0.0510156
0.232142
-0.0470134
0.232935
-0.0306508
0.233188
-0.0326557
0.233578
-0.00461171
0.23302
-0.00171186
0.233263
0.00733917
0.23311
0.0335348
0.233334
0.0190884
0.234116
0.0497339
0.234852
0.0509545
0.23641
0.0545877
0.23964
0.0451794
0.24242
0.100408
0.245574
0.0262438
0.250401
0.0813058
0.252721
0.12434
0.255474
0.0345714
0.259214
0.106555
0.261774
0.131809
0.125064
0.490474
0.0546944
-0.484282
0.502155
0.0450124
0.515117
0.0291659
0.524827
0.00277882
0.523775
-0.0370765
0.508433
-0.0836593
0.484314
-0.132917
0.454998
-0.173251
0.425738
-0.205618
0.398591
-0.217997
0.375318
-0.22015
0.360875
-0.203547
0.353841
-0.172893
0.359052
-0.136754
0.372204
-0.0959469
0.385857
-0.0793579
0.396063
-0.0609204
0.400864
-0.0558169
0.401999
-0.0481478
0.39977
-0.0284224
0.395794
-0.0286798
0.391657
-0.000474396
0.387664
0.00228147
0.383976
0.0110273
0.380942
0.0365679
0.378839
0.0211918
0.376749
0.0518235
0.375801
0.0519029
0.376026
0.0543625
0.376479
0.0447267
0.377978
0.0989096
0.379851
0.0243706
0.381651
0.0795055
0.382765
0.123227
0.384067
0.0332688
0.385545
0.105077
0.386169
0.131186
0.124605
0.527067
0.0474721
-0.519845
0.535535
0.0365449
0.54448
0.020221
0.549835
-0.00257687
0.547241
-0.0344825
0.534432
-0.0708498
0.513635
-0.112121
0.487397
-0.147013
0.458777
-0.176998
0.432386
-0.191606
0.410293
-0.198056
0.397085
-0.19034
0.393322
-0.16913
0.399307
-0.142739
0.4108
-0.107439
0.422099
-0.0906569
0.430509
-0.069331
0.434317
-0.0596252
0.434746
-0.0485763
0.432487
-0.0261631
0.428867
-0.0250597
0.424741
0.00365095
0.421237
0.00578526
0.418495
0.01377
0.416485
0.038578
0.415398
0.0222787
0.414575
0.0526465
0.414456
0.0520215
0.414991
0.0538272
0.415278
0.0444402
0.416158
0.0980297
0.417188
0.0233403
0.418338
0.0783557
0.418964
0.122601
0.420115
0.0321178
0.421483
0.103708
0.422071
0.130598
0.124044
0.56307
0.0402481
-0.555846
0.570131
0.0294837
0.576408
0.0139441
0.579281
-0.00545015
0.576682
-0.0318837
0.567036
-0.061203
0.550816
-0.0959009
0.529462
-0.125659
0.506014
-0.15355
0.483821
-0.169413
0.464347
-0.178582
0.450244
-0.176237
0.443142
-0.162028
0.444688
-0.144285
0.452589
-0.11534
0.46172
-0.0997876
0.46894
-0.0765515
0.472529
-0.0632137
0.472943
-0.0489905
0.470752
-0.0239724
0.467265
-0.0215727
0.46356
0.00735594
0.460203
0.00914317
0.457504
0.0164689
0.455499
0.0405824
0.454638
0.0231395
0.454428
0.0528569
0.454862
0.0515877
0.455677
0.0530125
0.456093
0.0440238
0.456711
0.0974123
0.457255
0.0227957
0.458047
0.0775635
0.458383
0.122265
0.459432
0.0310687
0.460747
0.102394
0.461337
0.130007
0.123371
0.602742
0.0335745
-0.596068
0.608151
0.0240746
0.612144
0.0099509
0.613472
-0.00677845
0.610825
-0.0292365
0.602673
-0.0530509
0.588566
-0.0817945
0.570095
-0.107187
0.549622
-0.133077
0.53012
-0.149912
0.513506
-0.161968
0.501642
-0.164374
0.495462
-0.155847
0.495218
-0.144042
0.499832
-0.119954
0.505798
-0.105754
0.510839
-0.0815924
0.513462
-0.0658373
0.513774
-0.049302
0.512308
-0.0225069
0.509653
-0.0189176
0.506465
0.0105437
0.503116
0.0124923
0.500461
0.0191244
0.498366
0.0426765
0.497381
0.0241247
0.497351
0.0528871
0.497961
0.0509777
0.498855
0.0521184
0.499428
0.0434507
0.499963
0.0968771
0.500292
0.022467
0.501017
0.0768389
0.501245
0.122037
0.502272
0.030042
0.503621
0.101044
0.504279
0.12935
0.12256
0.644859
0.0282218
-0.639507
0.6492
0.0197343
0.652052
0.00709871
0.652478
-0.00720487
0.649645
-0.0264033
0.642747
-0.0461527
0.631698
-0.070745
0.617276
-0.0927659
0.601111
-0.116912
0.584818
-0.133619
0.569729
-0.146878
0.557756
-0.152401
0.550531
-0.148622
0.548356
-0.141866
0.550501
-0.122099
0.554469
-0.109722
0.558264
-0.0853872
0.560345
-0.0679183
0.560489
-0.0494458
0.558743
-0.0207614
0.555875
-0.0160499
0.552626
0.0137931
0.549577
0.0155414
0.547087
0.0216146
0.545119
0.0446443
0.544093
0.0251507
0.544038
0.0529423
0.544584
0.050431
0.545351
0.0513515
0.546003
0.0427993
0.546511
0.0963687
0.546806
0.022172
0.54768
0.075965
0.547921
0.121796
0.548986
0.0289765
0.550468
0.0995623
0.551263
0.128554
0.121584
0.691271
0.0235635
-0.686612
0.694836
0.0161691
0.696804
0.00513078
0.696657
-0.00705843
0.693972
-0.023718
0.68825
-0.0404303
0.679413
-0.0619088
0.667675
-0.0810278
0.653914
-0.103151
0.639761
-0.119466
0.626792
-0.133909
0.61624
-0.141849
0.609217
-0.141599
0.60606
-0.138709
0.606139
-0.122177
0.607776
-0.11136
0.609465
-0.0870761
0.609982
-0.0684355
0.609406
-0.0488697
0.607849
-0.0192042
0.605544
-0.0137449
0.603075
0.0162621
0.600381
0.018235
0.598143
0.023853
0.596289
0.0464981
0.595205
0.0262348
0.595122
0.0530261
0.595558
0.0499942
0.596166
0.0507439
0.596867
0.0420987
0.597313
0.0959225
0.597577
0.021908
0.598682
0.0748597
0.598936
0.121542
0.600026
0.0278861
0.601725
0.0978639
0.602707
0.127572
0.120435
0.742092
0.0197728
-0.738302
0.744848
0.0134134
0.746279
0.00369998
0.745973
-0.0067524
0.743637
-0.0213822
0.738957
-0.0357504
0.731876
-0.0548274
0.722573
-0.0717252
0.711581
-0.0921591
0.700045
-0.10793
0.689076
-0.12294
0.679586
-0.132359
0.672422
-0.134435
0.668082
-0.13437
0.666238
-0.120333
0.665993
-0.111115
0.666374
-0.0874568
0.666264
-0.068325
0.665412
-0.0480181
0.663442
-0.017234
0.66087
-0.0111729
0.658222
0.0189096
0.655552
0.0209056
0.653487
0.0259177
0.651771
0.0482144
0.650728
0.0272781
0.650636
0.0531179
0.650927
0.0497027
0.651365
0.0503064
0.652164
0.0412993
0.652604
0.0954822
0.652909
0.0216032
0.654401
0.0733679
0.654697
0.121246
0.655808
0.0267743
0.657829
0.0958428
0.65904
0.126361
0.1191
0.798252
0.0166888
-0.795168
0.800481
0.011184
0.801538
0.0026432
0.801163
-0.00637749
0.799204
-0.0194232
0.79541
-0.0319561
0.789815
-0.0492326
0.782444
-0.0643545
0.773705
-0.0834197
0.76425
-0.0984752
0.754887
-0.113576
0.746414
-0.123887
0.739387
-0.127408
0.734468
-0.12945
0.731503
-0.117368
0.729764
-0.109376
0.728476
-0.086169
0.726588
-0.0664366
0.724505
-0.0459352
0.722325
-0.0150543
0.720083
-0.00893106
0.717876
0.0211166
0.715616
0.0231659
0.713882
0.0276523
0.712356
0.0497404
0.71139
0.028244
0.711352
0.0531558
0.711571
0.0494832
0.711922
0.0499557
0.712862
0.0403589
0.713277
0.0950672
0.713557
0.0213238
0.71546
0.0714648
0.715741
0.120965
0.716836
0.0256791
0.719259
0.0934203
0.720723
0.124896
0.117569
0.860144
0.0142034
-0.857659
0.86191
0.00941861
0.862757
0.00179654
0.862455
-0.0060764
0.860917
-0.0178849
0.857962
-0.0290005
0.85363
-0.0449012
0.847907
-0.0586313
0.84106
-0.076573
0.833407
-0.090822
0.825535
-0.105704
0.818098
-0.11645
0.81146
-0.120769
0.806101
-0.124092
0.8019
-0.113167
0.798477
-0.105954
0.795769
-0.0834612
0.793244
-0.0639115
0.790932
-0.0436228
0.788264
-0.0123868
0.785588
-0.00625489
0.783377
0.0233281
0.781104
0.0254386
0.779578
0.0291786
0.778193
0.0511253
0.77731
0.0291269
0.777355
0.0531104
0.777479
0.0493594
0.777768
0.0496675
0.778885
0.0392415
0.779365
0.0945869
0.779703
0.0209863
0.782117
0.0690506
0.782446
0.120637
0.783573
0.0245512
0.786484
0.0905102
0.788226
0.123153
0.115777
0.928636
0.0121736
-0.926606
0.930084
0.00797126
0.930772
0.00110809
0.93057
-0.00587454
0.929408
-0.0167229
0.927154
-0.0267467
0.92383
-0.041577
0.919403
-0.0542042
0.914014
-0.0711837
0.907868
-0.084676
0.901278
-0.0991135
0.894714
-0.109887
0.888346
-0.114401
0.882602
-0.118347
0.87762
-0.108185
0.873339
-0.101673
0.869572
-0.0796934
0.865697
-0.0600367
0.862174
-0.0401
0.858943
-0.009156
0.856378
-0.00368983
0.854234
0.0254726
0.852196
0.0274766
0.850996
0.0303786
0.84984
0.0522813
0.849119
0.0298481
0.849352
0.0528772
0.849535
0.0491765
0.849876
0.0493258
0.851262
0.0378559
0.851852
0.0939965
0.852144
0.0206948
0.8551
0.0660941
0.855486
0.120251
0.85657
0.0234672
0.860027
0.0870536
0.862137
0.121043
0.113755
1.00418
0.0105258
-1.00253
1.00537
0.00677959
1.00598
0.000494814
1.0059
-0.00578959
1.00508
-0.0159043
1.00341
-0.0250744
1.00091
-0.039079
0.997518
-0.0508128
0.993309
-0.0669751
0.988373
-0.0797401
0.982811
-0.0935509
0.976954
-0.10403
0.970908
-0.108356
0.965077
-0.112516
0.959436
-0.102544
0.953962
-0.0961989
0.948921
-0.0746531
0.944151
-0.0552662
0.940191
-0.0361401
0.936628
-0.00559365
0.933745
-0.000806712
0.931733
0.0274852
0.929797
0.0294119
0.928875
0.0313013
0.927956
0.0532001
0.927401
0.0304025
0.927848
0.0524308
0.928044
0.0489806
0.928472
0.048898
0.930088
0.0362396
0.930811
0.0932737
0.931279
0.0202263
0.934735
0.062638
0.935246
0.11974
0.936494
0.0222198
0.940526
0.0830209
0.942976
0.118594
0.111271
1.08751
0.00915435
-1.08614
1.08852
0.00576928
1.08906
-4.77318e-05
1.08909
-0.00581192
1.08855
-0.0153645
1.08733
-0.0238612
1.08547
-0.0372157
1.08285
-0.0481912
1.0795
-0.0636284
1.07543
-0.0756717
1.07062
-0.0887412
1.06531
-0.0987172
1.0595
-0.102546
1.05348
-0.106494
1.04728
-0.0963419
1.04115
-0.0900751
1.03538
-0.0688778
1.02983
-0.0497183
1.02514
-0.0314465
1.02093
-0.00139009
1.01785
0.00227423
1.01585
0.0294831
1.01404
0.031223
1.01346
0.0318824
1.01287
0.053793
1.01255
0.0307252
1.01334
0.0516409
1.01376
0.0485553
1.01435
0.0483078
1.01635
0.0342449
1.01742
0.0922042
1.01771
0.0199301
1.02188
0.0584748
1.02267
0.118944
1.02374
0.0211491
1.02849
0.0782774
1.0315
0.11558
0.108535
1.17928
0.00801212
-1.17814
1.18015
0.00490212
1.18066
-0.000556599
1.18077
-0.00592075
1.18042
-0.0150192
1.17955
-0.0229894
1.17813
-0.0357962
1.17607
-0.0461322
1.17334
-0.060893
1.16987
-0.0722048
1.16557
-0.0844382
1.16051
-0.0936576
1.15464
-0.0966746
1.14824
-0.100097
1.14138
-0.0894789
1.13432
-0.0830125
1.12761
-0.0621684
1.12127
-0.0433844
1.11622
-0.0263971
1.11207
0.00276427
1.10906
0.00527767
1.10721
0.0313383
1.10566
0.0327707
1.10544
0.0321093
1.10523
0.0539993
1.10525
0.0307004
1.10645
0.0504473
1.10708
0.0479184
1.108
0.0473894
1.11033
0.0319133
1.11163
0.0909127
1.11237
0.0191835
1.11701
0.0538389
1.11802
0.117933
1.1195
0.0196665
1.1249
0.0728791
1.12838
0.112099
0.105006
1.28007
0.00705163
-1.27911
1.28081
0.00416279
1.28127
-0.00101302
1.2814
-0.00605217
1.28117
-0.0147872
1.28048
-0.0223014
1.27932
-0.03463
1.27755
-0.0443652
1.27513
-0.0584788
1.27196
-0.0690347
1.2679
-0.0803758
1.26297
-0.0887295
1.2571
-0.0908022
1.2505
-0.0934957
1.24322
-0.0822035
1.23567
-0.0754559
1.22835
-0.0548489
1.22143
-0.036464
1.21578
-0.020753
1.21121
0.00733926
1.20808
0.00840165
1.20663
0.0327975
1.2054
0.0339992
1.2057
0.0318074
1.20606
0.053643
1.2064
0.0303581
1.20811
0.0487334
1.20917
0.0468585
1.21038
0.0461789
1.2132
0.0290985
1.21521
0.0888977
1.21551
0.01889
1.22101
0.0483362
1.22273
0.116216
1.22372
0.0186731
1.23003
0.0665674
1.23435
0.10778
0.101208
1.39108
0.0061888
-1.39022
1.39178
0.00346619
1.39223
-0.00146281
1.3924
-0.0062197
1.3922
-0.014593
1.39159
-0.0216848
1.39045
-0.033492
1.38867
-0.0425885
1.38612
-0.0559248
1.38266
-0.0655751
1.3781
-0.0758165
1.37246
-0.0830934
1.36569
-0.0840266
1.35803
-0.0858407
1.34973
-0.0738982
1.3412
-0.066929
1.33332
-0.0469684
1.32617
-0.0293188
1.32092
-0.0154942
1.31683
0.0114245
1.31435
0.0108815
1.3134
0.0337471
1.31283
0.0345676
1.31378
0.0308627
1.31482
0.0526039
1.31586
0.0293094
1.31831
0.0462851
1.31986
0.0453134
1.32172
0.0443147
1.32502
0.0258031
1.32748
0.0864337
1.32858
0.0177889
1.33454
0.0423784
1.33675
0.11401
1.33838
0.0170384
1.34542
0.0595262
1.35056
0.102646
0.0961207
1.51244
0.0054234
-1.51167
1.51303
0.00287741
1.51337
-0.00181187
1.51346
-0.00630091
1.51316
-0.0142972
1.51244
-0.0209603
1.51114
-0.0321997
1.50916
-0.0406091
1.50635
-0.0531114
1.50252
-0.0617418
1.49752
-0.0708151
1.4913
-0.0768788
1.48388
-0.0766062
1.47549
-0.0774526
1.46647
-0.0648737
1.45735
-0.0578131
1.44899
-0.0386026
1.44159
-0.0219207
1.43605
-0.0099584
1.43237
0.0151105
1.43041
0.0128401
1.4305
0.0336557
1.4307
0.0343673
1.43258
0.0289869
1.43465
0.0505252
1.43609
0.0278744
1.43922
0.0431563
1.44141
0.0431174
1.44391
0.041822
1.4478
0.0219062
1.45153
0.082706
1.45183
0.0174858
1.45858
0.0356353
1.46213
0.110458
1.46287
0.0162936
1.47097
0.051429
1.47728
0.0963358
0.0906956
1.64678
0.00443717
-1.64579
1.64759
0.00206875
1.64801
-0.00223891
1.64803
-0.00631943
1.64738
-0.0136458
1.64604
-0.019617
1.64367
-0.0298303
1.64027
-0.0372056
1.63547
-0.0483212
1.62933
-0.0555996
1.62165
-0.0631287
1.61268
-0.0679124
1.6027
-0.0666235
1.59209
-0.0668434
1.58162
-0.0544087
1.57174
-0.0479292
1.56364
-0.0305075
1.55731
-0.0155901
1.55369
-0.00633772
1.55194
0.0168666
1.55183
0.0129518
1.55377
0.0317152
1.55575
0.0323818
1.55894
0.0257983
1.56261
0.0468532
1.56518
0.025303
1.56962
0.03872
1.57279
0.0399471
1.57617
0.0384435
1.58061
0.0174642
1.58568
0.0776355
1.58672
0.0164419
1.59356
0.0288
1.59894
0.10508
1.59996
0.0152712
1.60841
0.0429781
1.6166
0.0881516
0.0831232
1.79396
0.00307031
-1.7926
1.79504
0.000991584
1.79562
-0.00282286
1.79566
-0.00635609
1.79469
-0.0126788
1.79278
-0.0177088
1.78938
-0.0264209
1.78449
-0.0323154
1.77775
-0.0415834
1.76911
-0.046966
1.7587
-0.0527191
1.74703
-0.0562386
1.73473
-0.0543198
1.72257
-0.0546852
1.71148
-0.043325
1.70166
-0.0381014
1.69454
-0.023389
1.68969
-0.0107421
1.6871
-0.00374609
1.6874
0.0165624
1.6891
0.0112593
1.69275
0.0280561
1.69576
0.0293738
1.70031
0.0212482
1.70584
0.0413211
1.70847
0.0226727
1.71324
0.0339562
1.71716
0.0360213
1.72215
0.033459
1.72744
0.012173
1.73452
0.0705513
1.73436
0.0166073
1.74121
0.0219458
1.74898
0.0973146
1.74872
0.0155252
1.75827
0.0334349
1.76816
0.0782562
0.0749719
1.96055
-0.000450887
-1.95703
1.96349
-0.00194904
1.96522
-0.004548
1.96565
-0.00678717
1.96367
-0.0106937
1.95946
-0.0135033
1.9517
-0.0186581
1.94083
-0.0214523
1.92621
-0.0269609
1.90871
-0.0294634
1.88912
-0.0331301
1.86887
-0.0359897
1.85011
-0.0355599
1.83327
-0.0378418
1.82135
-0.0314078
1.81209
-0.0288366
1.80855
-0.0198555
1.80932
-0.0115103
1.81151
-0.00593241
1.81883
0.00923933
1.82501
0.00507662
1.83355
0.01952
1.84063
0.0222915
1.84675
0.0151272
1.8573
0.0307686
1.8607
0.0192729
1.86537
0.0292952
1.87269
0.0286929
1.87999
0.0261606
1.88389
0.00828004
1.89674
0.0576939
1.89551
0.0178409
1.89572
0.0217365
1.91295
0.080086
1.91288
0.015587
1.91706
0.0292623
1.93182
0.063493
0.0618872
2.12891
-0.00259
-2.12677
2.13044
-0.00347561
2.13078
-0.00488881
2.13001
-0.00602186
2.12717
-0.00784674
2.1227
-0.009033
2.11527
-0.0112343
2.10601
-0.012189
2.09364
-0.0145881
2.07984
-0.0156656
2.06445
-0.0177421
2.04831
-0.0198473
2.03346
-0.020709
2.01864
-0.0230262
2.00847
-0.0212406
2.00001
-0.0203704
1.99653
-0.0163808
1.99713
-0.0121036
1.99894
-0.00774186
2.00761
0.000565815
2.01237
0.000311108
2.02262
0.00927969
2.0324
0.0125072
2.03727
0.0102552
2.04942
0.0186154
2.05434
0.0143555
2.06109
0.0225424
2.07106
0.0187275
2.07651
0.0207145
2.07486
0.00993044
2.09442
0.0381261
2.09376
0.0185022
2.09197
0.0235245
2.12029
0.0517752
2.11881
0.017059
2.118
0.0300707
2.13605
0.0454521
0.0465238
2.3127
-0.00164599
-2.31365
2.31148
-0.00225248
2.30978
-0.003186
2.30774
-0.00398666
2.30514
-0.00524325
2.30232
-0.0062096
2.29884
-0.00775584
2.29546
-0.00880723
2.2913
-0.0104297
2.28711
-0.0114778
2.28204
-0.0126744
2.27581
-0.0136159
2.26882
-0.0137213
2.25999
-0.014192
2.25164
-0.0128887
2.24337
-0.012103
2.23676
-0.00976574
2.23197
-0.00731579
2.22914
-0.00491904
2.23035
-0.000637178
2.23035
0.000311943
2.23466
0.00496245
2.24026
0.00691182
2.24326
0.0072577
2.25005
0.0118268
2.2549
0.00950489
2.26248
0.0149587
2.26959
0.0116162
2.27423
0.0160737
2.27478
0.00937806
2.28922
0.0236928
2.29346
0.0142544
2.29969
0.0173027
2.32
0.0314653
2.32295
0.0141089
2.32953
0.0234889
2.34494
0.030044
0.0315403
2.52408
-0.000971542
-2.52475
2.52308
-0.00125047
2.52154
-0.00164719
2.51954
-0.00199417
2.51679
-0.00248712
2.51346
-0.00288036
2.50914
-0.00343739
2.50418
-0.00385104
2.49817
-0.00441102
2.49153
-0.00484051
2.48414
-0.00528393
2.47626
-0.00573363
2.46841
-0.00587412
2.46041
-0.00619163
2.45339
-0.00587356
2.447
-0.0057094
2.4422
-0.00496485
2.43892
-0.00404096
2.43713
-0.00312883
2.43786
-0.00136201
2.43887
-0.000702283
2.44257
0.00126461
2.44714
0.00233992
2.45147
0.00293401
2.45828
0.00501724
2.46344
0.00433559
2.47127
0.00712991
2.47748
0.00541356
2.48524
0.00831012
2.48932
0.00529579
2.50182
0.0111922
2.50797
0.00811128
2.51584
0.00943056
2.5325
0.0148052
2.53791
0.00869263
2.5485
0.0129068
2.56349
0.0150468
0.0165217
2.7556
-2.75657
2.75435
2.7527
2.7507
2.74822
2.74534
2.7419
2.73805
2.73364
2.7288
2.72351
2.71778
2.71191
2.70571
2.69984
2.69413
2.68917
2.68513
2.682
2.68063
2.67993
2.6812
2.68354
2.68647
2.69149
2.69582
2.70295
2.70837
2.71668
2.72197
2.73316
2.74128
2.75071
2.76551
2.7742
2.78711
2.80216
0.418702
0.0667516
-0.411597
0.426096
0.097537
0.434133
0.128201
0.44092
0.158889
0.451014
0.1867
0.457848
0.21757
0.469676
0.239766
0.271838
0.454604
0.0593195
-0.447172
0.461526
0.0906149
0.470284
0.119443
0.478295
0.150878
0.488367
0.176628
0.498294
0.207643
0.50774
0.23032
0.259734
0.494053
0.0528619
-0.487596
0.500593
0.0840755
0.508178
0.111858
0.516074
0.142982
0.52443
0.168272
0.534234
0.197839
0.543949
0.220605
0.247837
0.53629
0.0472284
-0.530656
0.54248
0.0778854
0.549155
0.105183
0.556998
0.135139
0.565017
0.160253
0.574768
0.188088
0.584701
0.210672
0.236469
0.582441
0.0423245
-0.577537
0.588397
0.0719292
0.594685
0.0988955
0.602266
0.127557
0.610074
0.152445
0.619193
0.17897
0.628668
0.201196
0.225631
0.63274
0.0378425
-0.628258
0.638213
0.0664559
0.644051
0.0930573
0.651076
0.120532
0.65845
0.145071
0.667051
0.170368
0.676178
0.19207
0.215196
0.687124
0.0339193
-0.6832
0.692075
0.0615051
0.69753
0.0876016
0.704114
0.113949
0.711224
0.13796
0.719491
0.162102
0.728305
0.183255
0.2052
0.746223
0.0303995
-0.742703
0.75075
0.0569778
0.755932
0.0824199
0.762183
0.107698
0.769052
0.131091
0.776978
0.154176
0.785513
0.174719
0.195545
0.810555
0.0272839
-0.80744
0.814683
0.0528505
0.819573
0.0775291
0.825498
0.101774
0.83215
0.124439
0.839835
0.146491
0.848217
0.166337
0.186103
0.88059
0.0245388
-0.877845
0.884381
0.0490597
0.889051
0.0728588
0.894771
0.096053
0.901325
0.117885
0.908903
0.138914
0.917243
0.157997
0.176739
0.957002
0.0221183
-0.954582
0.960528
0.0455342
0.965041
0.0683454
0.970636
0.0904579
0.977156
0.111365
0.984712
0.131358
0.99311
0.1496
0.167319
1.04041
0.0199837
-1.03827
1.04373
0.0422148
1.04814
0.0639303
1.0537
0.0849016
1.06028
0.104786
1.06794
0.123699
1.07652
0.141018
0.157696
1.13149
0.0180778
-1.12959
1.13468
0.0390309
1.13907
0.0595378
1.14468
0.0792867
1.15142
0.0980497
1.1593
0.115822