/*--------------------------------*- C++ -*----------------------------------*\
| =========                 |                                                 |
| \\      /  F ield         | OpenFOAM: The Open Source CFD Toolbox           |
|  \\    /   O peration     | Version:  2512                                  |
|   \\  /    A nd           | Website:  www.openfoam.com                      |
|    \\/     M anipulation  |                                                 |
\*---------------------------------------------------------------------------*/
FoamFile
{
    version     2.0;
    format      ascii;
    arch        "LSB;label=32;scalar=64";
    class       volVectorField;
    location    "2.65";
    object      U;
}
// * * * * * * * * * * * * * * * * * * * * * * * * * * * * * * * * * * * * * //

dimensions      [0 1 -1 0 0 0 0];

internalField   nonuniform List<vector> 
13248
(
(-0.0470955 0.0432619 6.59633e-20)
(-0.088519 0.101933 0)
(-0.0589711 0.127975 -1.11201e-19)
(0.0427086 0.114694 1.02949e-19)
(0.214563 0.0664249 9.58756e-20)
(0.444552 -0.00670532 0)
(0.701 -0.090277 0)
(0.940204 -0.16974 2.29461e-19)
(1.12784 -0.235206 -5.92664e-21)
(1.25099 -0.28219 -1.86478e-19)
(1.31535 -0.310703 1.5171e-19)
(1.3359 -0.323674 -9.30444e-20)
(1.3288 -0.325138 0)
(1.30702 -0.318908 -1.14129e-19)
(1.27922 -0.307952 1.99898e-19)
(1.25032 -0.294298 -4.61288e-20)
(1.22274 -0.279229 -6.25675e-20)
(1.19745 -0.263525 5.83361e-20)
(1.17471 -0.247604 0)
(1.15436 -0.232049 0)
(1.13651 -0.216207 0)
(1.11952 -0.202197 0)
(1.10712 -0.186853 1.00608e-20)
(1.0896 -0.173582 2.77726e-20)
(-0.046117 0.0360813 -1.98731e-19)
(-0.0707303 0.0739092 1.23522e-19)
(-0.0138254 0.0818066 -1.30581e-21)
(0.125774 0.0574385 -1.57363e-19)
(0.341433 0.00736033 -9.57404e-20)
(0.60607 -0.0567307 -9.06214e-20)
(0.871937 -0.121881 -1.65493e-19)
(1.09379 -0.178587 1.52589e-19)
(1.24862 -0.222134 0)
(1.33678 -0.251464 4.71921e-21)
(1.37248 -0.268019 7.49735e-21)
(1.37361 -0.274502 9.03385e-20)
(1.3555 -0.27379 0)
(1.32868 -0.2683 0)
(1.29932 -0.259779 6.94545e-20)
(1.2705 -0.249383 -1.29018e-19)
(1.24353 -0.237851 6.46383e-20)
(1.21884 -0.225658 -6.02664e-20)
(1.19648 -0.213152 -2.37891e-20)
(1.1763 -0.200568 -3.61984e-20)
(1.15814 -0.18784 -1.22339e-20)
(1.14168 -0.176217 -2.09454e-20)
(1.12756 -0.162102 3.54369e-20)
(1.11144 -0.155494 9.05927e-21)
(-0.0435571 0.0300441 0)
(-0.0441228 0.0500027 0)
(0.0506254 0.0427057 5.66974e-20)
(0.237324 0.0105415 5.20832e-20)
(0.49638 -0.0367891 -2.76757e-22)
(0.780507 -0.0876608 -9.29327e-20)
(1.03394 -0.133441 0)
(1.2216 -0.170027 -7.56473e-20)
(1.33663 -0.196404 6.59693e-20)
(1.39116 -0.213301 -1.31317e-21)
(1.40408 -0.222384 -9.91491e-20)
(1.39268 -0.225552 -8.02568e-20)
(1.36932 -0.224489 7.09637e-21)
(1.3414 -0.220479 -5.05093e-20)
(1.3128 -0.214423 1.30598e-19)
(1.28526 -0.206939 0)
(1.25951 -0.19846 -6.61744e-20)
(1.23575 -0.18932 3.23043e-20)
(1.214 -0.179735 2.37638e-20)
(1.19415 -0.169941 0)
(1.1762 -0.160002 1.62619e-20)
(1.15961 -0.150271 -5.24535e-20)
(1.14513 -0.140316 4.89824e-20)
(1.12968 -0.133528 2.60513e-20)
(-0.0375991 0.0236987 -7.04365e-20)
(-0.0059448 0.0281596 -6.72468e-20)
(0.135809 0.0099354 5.91983e-20)
(0.373622 -0.0244423 0)
(0.666492 -0.0636258 0)
(0.950335 -0.0991977 -1.84504e-21)
(1.17461 -0.127876 0)
(1.3216 -0.149314 -2.19704e-19)
(1.3993 -0.164187 1.95286e-19)
(1.42684 -0.173545 -2.30725e-19)
(1.42362 -0.178523 4.89785e-20)
(1.40432 -0.180154 0)
(1.3781 -0.179275 6.68921e-20)
(1.34994 -0.176516 -1.18748e-19)
(1.32216 -0.172331 2.76548e-20)
(1.29577 -0.167058 5.90038e-20)
(1.27109 -0.160962 -7.36333e-21)
(1.24824 -0.154253 -6.31887e-20)
(1.22717 -0.147103 0)
(1.20785 -0.13971 0)
(1.19013 -0.131957 -1.77102e-20)
(1.17386 -0.1248 1.48541e-20)
(1.15933 -0.116132 4.61263e-20)
(1.14416 -0.112123 -4.30732e-20)
(-0.0268475 0.0165125 -7.51e-20)
(0.0457607 0.00772465 -6.9138e-20)
(0.241118 -0.0161384 1.90239e-19)
(0.526816 -0.0460741 -1.13997e-19)
(0.836777 -0.0727452 1.05586e-19)
(1.10182 -0.0932309 1.868e-19)
(1.28727 -0.108312 -1.28672e-19)
(1.39349 -0.119225 -1.43834e-19)
(1.43903 -0.12689 9.0735e-21)
(1.44591 -0.131978 1.72e-19)
(1.43181 -0.134983 0)
(1.40819 -0.136282 4.04948e-20)
(1.3813 -0.136154 0)
(1.35408 -0.134811 -5.62008e-20)
(1.32774 -0.132427 7.72709e-20)
(1.30276 -0.129168 -1.10033e-23)
(1.27929 -0.125194 -1.78123e-20)
(1.25739 -0.120649 2.98482e-20)
(1.23706 -0.115685 2.54394e-20)
(1.21826 -0.110359 -2.14706e-20)
(1.20093 -0.104903 1.77015e-20)
(1.18495 -0.0992841 -1.48468e-20)
(1.17026 -0.0932939 0)
(1.15577 -0.090409 -1.07714e-20)
(-0.0105094 0.00880749 7.50809e-20)
(0.111811 -0.0102817 7.34633e-20)
(0.363646 -0.0335988 -6.40798e-20)
(0.686582 -0.0530357 1.18181e-19)
(0.994827 -0.0654162 -1.09464e-19)
(1.22814 -0.0731586 9.42791e-20)
(1.37225 -0.0787866 -4.5033e-20)
(1.44243 -0.0834668 1.08846e-19)
(1.46318 -0.087508 -6.65576e-20)
(1.45604 -0.0908568 1.059e-19)
(1.43556 -0.0933882 -2.35876e-19)
(1.40992 -0.0950259 8.3743e-20)
(1.38303 -0.0957603 -6.57033e-20)
(1.35657 -0.09563 6.11649e-20)
(1.3312 -0.0947069 4.74036e-20)
(1.30717 -0.0930834 3.80439e-20)
(1.28457 -0.0908609 -1.05551e-19)
(1.26344 -0.0881476 6.34982e-20)
(1.24376 -0.085022 -2.54345e-20)
(1.22551 -0.0816141 6.26741e-20)
(1.20861 -0.0778842 -2.01523e-20)
(1.19295 -0.0741405 -4.48293e-20)
(1.17852 -0.069887 4.04758e-20)
(1.16462 -0.0680494 1.07682e-20)
(0.0120718 0.00119856 0)
(0.19181 -0.0238922 1.22316e-21)
(0.497961 -0.0399659 1.36884e-19)
(0.842437 -0.0449242 -1.25708e-19)
(1.13283 -0.0438788 -1.08868e-19)
(1.32784 -0.0422661 1.96418e-19)
(1.43285 -0.0422271 -8.85878e-20)
(1.47335 -0.0438669 1.0852e-19)
(1.47572 -0.046534 -5.05358e-21)
(1.45913 -0.0495301 -5.69525e-20)
(1.43479 -0.0523683 1.13273e-19)
(1.40821 -0.0547757 -1.6295e-19)
(1.38172 -0.0566186 0)
(1.35619 -0.0578389 -2.87381e-20)
(1.33187 -0.0584306 -7.15384e-20)
(1.30884 -0.0584268 2.28968e-20)
(1.28714 -0.0578875 1.50602e-21)
(1.26679 -0.0568815 -4.09714e-20)
(1.24777 -0.0554959 4.889e-21)
(1.23006 -0.0537592 4.55792e-20)
(1.21359 -0.0517927 -1.83071e-20)
(1.19831 -0.049563 -6.4009e-21)
(1.18408 -0.0471936 2.11715e-20)
(1.17062 -0.0463394 0)
(0.041095 -0.0050748 0)
(0.283895 -0.0302756 3.78632e-20)
(0.636721 -0.0331779 -1.79266e-19)
(0.985922 -0.022532 6.32426e-20)
(1.24738 -0.0107505 -5.85828e-20)
(1.4028 -0.00341626 -5.02584e-20)
(1.47362 -0.000956441 -8.31355e-20)
(1.4911 -0.00199369 4.29283e-20)
(1.48072 -0.00494457 3.45727e-20)
(1.45834 -0.00865473 0)
(1.43205 -0.0124459 6.75242e-20)
(1.40527 -0.0159635 -9.66696e-20)
(1.37926 -0.0190365 7.02702e-20)
(1.35441 -0.0215859 2.87498e-20)
(1.33082 -0.0235891 -2.2119e-20)
(1.30851 -0.0250623 -1.6744e-20)
(1.28748 -0.0260446 -1.44299e-20)
(1.26775 -0.0265941 4.64082e-20)
(1.24931 -0.0267573 0)
(1.23211 -0.0265977 2.0602e-20)
(1.2161 -0.026119 1.57043e-20)
(1.20119 -0.0254346 -4.03708e-20)
(1.18729 -0.0246214 -2.50679e-20)
(1.17425 -0.0244436 2.33625e-20)
(0.0760187 -0.00895323 -4.44798e-20)
(0.384422 -0.0272778 -1.85242e-21)
(0.772181 -0.0126248 3.66814e-20)
(1.1116 0.012402 9.89549e-20)
(1.33818 0.0314403 2.58465e-20)
(1.45622 0.0411678 -5.08767e-20)
(1.49877 0.0435572 4.51665e-20)
(1.49909 0.0415104 -3.70173e-20)
(1.48007 0.0373151 6.29364e-20)
(1.45409 0.0323218 2.47853e-20)
(1.42669 0.0272134 -7.04509e-20)
(1.39991 0.0223195 1.95682e-20)
(1.37437 0.0177996 3.16946e-20)
(1.35019 0.0137433 -1.55755e-20)
(1.32734 0.0101969 0)
(1.30578 0.00716673 2.05444e-20)
(1.28548 0.00462959 3.31727e-20)
(1.26641 0.00254544 4.5457e-21)
(1.24856 0.000862813 -2.62941e-20)
(1.23189 -0.000447695 1.05093e-20)
(1.21635 -0.00144747 0)
(1.20186 -0.00217929 -7.56448e-21)
(1.18835 -0.00275411 -6.52603e-21)
(1.17566 -0.00330515 0)
(0.116084 -0.00938442 0)
(0.488659 -0.0132724 2.16924e-20)
(0.897709 0.0210886 3.9467e-20)
(1.21666 0.0577369 -1.00484e-19)
(1.40661 0.0804881 3.21299e-20)
(1.49148 0.0898165 0)
(1.51161 0.0902962 4.15282e-20)
(1.49966 0.0861186 -5.68284e-20)
(1.47507 0.0799607 -3.13643e-20)
(1.44709 0.0731721 1.35512e-20)
(1.41928 0.0663689 -2.03983e-20)
(1.39274 0.0598396 4.94854e-20)
(1.36768 0.0537179 2.30784e-20)
(1.34408 0.04808 -1.64636e-20)
(1.32187 0.042969 -2.15e-21)
(1.30094 0.0383904 -3.99938e-20)
(1.28126 0.0343269 1.77818e-20)
(1.26279 0.0307454 -2.14262e-22)
(1.24551 0.0276099 0)
(1.22939 0.0248782 -1.05195e-20)
(1.21437 0.0225127 0)
(1.20037 0.0204366 2.18518e-20)
(1.18732 0.0186854 -2.54123e-20)
(1.17505 0.017429 1.12803e-20)
(0.159943 -0.0054105 -1.22776e-20)
(0.59131 0.0124197 -5.48126e-20)
(1.00846 0.0665107 6.11112e-20)
(1.30014 0.111306 3.37988e-20)
(1.45458 0.134587 -1.62848e-20)
(1.51127 0.141352 2.4396e-20)
(1.51425 0.138666 -1.19426e-20)
(1.49378 0.131655 1.83032e-20)
(1.46571 0.123091 0)
(1.43662 0.114181 3.79819e-20)
(1.40869 0.105419 -2.06477e-21)
(1.38245 0.0970288 -2.90125e-20)
(1.3579 0.0891067 1.18856e-20)
(1.33495 0.081716 -1.28206e-20)
(1.31344 0.0749016 -4.49843e-21)
(1.29325 0.0686724 5.42105e-21)
(1.27428 0.0630129 -3.99696e-21)
(1.25649 0.0578985 -2.03818e-20)
(1.23985 0.0532933 1.24034e-20)
(1.22434 0.0491623 2.43615e-21)
(1.20993 0.0454544 2.06433e-21)
(1.19655 0.042144 1.7482e-21)
(1.18408 0.0393753 0)
(1.17232 0.0372981 0)
(0.205894 0.00369964 1.22925e-20)
(0.687417 0.0495212 -1.13986e-20)
(1.10138 0.121814 -2.02945e-20)
(1.36221 0.171167 0)
(1.48395 0.192286 -7.86955e-21)
(1.51755 0.194863 -6.6578e-21)
(1.50783 0.188131 -1.07059e-20)
(1.48172 0.177754 0)
(1.45168 0.166375 0)
(1.42222 0.155002 0)
(1.39455 0.144006 0)
(1.36881 0.133553 0)
(1.3449 0.123697 -7.5098e-21)
(1.32264 0.114472 3.38032e-21)
(1.30189 0.105909 5.56867e-21)
(1.28248 0.0980087 2.51968e-21)
(1.26429 0.0907514 6.05484e-21)
(1.24726 0.0841133 0)
(1.23136 0.0780621 -1.33705e-21)
(1.21658 0.0725566 -1.19253e-21)
(1.20291 0.0675561 -2.06754e-21)
(1.19025 0.063063 -1.75093e-21)
(1.17847 0.0593038 0)
(1.16741 0.0562662 1.15491e-21)
(-0.0220136 0.00867847 4.18424e-21)
(-0.086297 0.0132086 -4.14355e-21)
(-0.173143 0.0114567 -7.92329e-21)
(-0.249092 0.00774871 0)
(-0.307346 0.00358368 -1.07379e-20)
(-0.346886 -0.000677899 3.2774e-21)
(-0.366205 -0.00491392 -6.04476e-21)
(-0.364763 -0.00898266 0)
(-0.343195 -0.0126795 0)
(-0.302981 -0.0158922 0)
(-0.24638 -0.018436 0)
(-0.176508 -0.0201514 0)
(-0.0969506 -0.020957 -3.77536e-22)
(-0.0114393 -0.0208511 -3.16436e-22)
(0.0765163 -0.0199164 -6.73186e-22)
(0.163923 -0.0182806 -2.08863e-21)
(0.248333 -0.0160816 -8.87053e-22)
(0.328004 -0.0135368 0)
(0.401693 -0.010709 -9.69125e-22)
(0.468898 -0.00787475 2.68778e-21)
(0.52919 -0.00486215 1.66611e-21)
(0.583042 -0.00230373 1.51936e-21)
(0.63029 0.000782428 0)
(0.672207 0.00256152 0)
(-0.0264486 0.064975 -1.28997e-20)
(-0.0913219 0.107109 2.07229e-20)
(-0.174938 0.106907 -7.96597e-21)
(-0.246954 0.0898719 -1.56295e-20)
(-0.301176 0.0659374 2.16775e-20)
(-0.336621 0.0381789 -1.34954e-20)
(-0.351733 0.0079062 1.8556e-20)
(-0.345888 -0.0236157 1.13737e-20)
(-0.31996 -0.0547402 0)
(-0.27562 -0.0838413 -4.75969e-21)
(-0.215236 -0.109124 3.015e-21)
(-0.142178 -0.129156 4.14349e-21)
(-0.0602955 -0.143075 2.7522e-21)
(0.0264733 -0.150736 -1.87596e-22)
(0.114564 -0.152589 -9.35731e-22)
(0.201076 -0.149499 2.93797e-21)
(0.283669 -0.142465 -1.76071e-21)
(0.360853 -0.132759 6.26154e-21)
(0.431538 -0.121072 0)
(0.49559 -0.108844 -1.78117e-21)
(0.552533 -0.0957213 -1.66371e-21)
(0.603424 -0.0840558 -1.51717e-21)
(0.647549 -0.0710386 0)
(0.687322 -0.0621654 0)
(-0.0347216 0.114094 0)
(-0.0995994 0.192565 4.71027e-20)
(-0.175111 0.196223 -1.73178e-20)
(-0.237708 0.168223 1.62843e-20)
(-0.28244 0.126408 -4.84503e-20)
(-0.308381 0.0767335 0)
(-0.313967 0.0218017 -2.66078e-20)
(-0.298484 -0.0360167 1.33361e-20)
(-0.263023 -0.0937583 -2.20406e-20)
(-0.209583 -0.147958 1.03967e-20)
(-0.141039 -0.195108 3.46654e-20)
(-0.0613734 -0.232263 -1.59041e-20)
(0.0249313 -0.25772 -9.3772e-21)
(0.11359 -0.271511 1.16204e-21)
(0.200993 -0.274587 3.44454e-21)
(0.28447 -0.268735 -4.74403e-21)
(0.362081 -0.255985 3.38364e-21)
(0.432936 -0.238708 -9.14184e-22)
(0.496367 -0.218303 0)
(0.552995 -0.197215 5.09267e-21)
(0.602358 -0.174984 0)
(0.646506 -0.155256 5.57887e-21)
(0.683905 -0.133817 -1.879e-20)
(0.71879 -0.118801 4.47677e-22)
(-0.0450022 0.150813 0)
(-0.109498 0.262878 2.33089e-21)
(-0.173012 0.274175 2.06826e-20)
(-0.221434 0.239345 -2.01847e-20)
(-0.251729 0.183024 1.60695e-20)
(-0.263153 0.114267 1.02581e-19)
(-0.254237 0.037132 -3.10984e-20)
(-0.224452 -0.0448115 -2.98413e-20)
(-0.174973 -0.127515 4.79498e-20)
(-0.108494 -0.2052 -5.38833e-20)
(-0.0286463 -0.272595 1.98452e-20)
(0.059589 -0.324472 1.26721e-20)
(0.150739 -0.359191 0)
(0.239982 -0.376836 3.2531e-21)
(0.324191 -0.3791 0)
(0.401339 -0.368943 2.23923e-21)
(0.470251 -0.349637 5.30852e-21)
(0.530966 -0.324643 4.3165e-22)
(0.58351 -0.296126 -7.04337e-21)
(0.629444 -0.26725 -5.08791e-21)
(0.668373 -0.237555 0)
(0.703394 -0.211384 1.29002e-20)
(0.732069 -0.18367 -4.39385e-21)
(0.760526 -0.163914 0)
(-0.0549839 0.171689 0)
(-0.119035 0.31249 -6.84794e-20)
(-0.168196 0.335737 -2.31941e-20)
(-0.198912 0.299528 -4.22244e-20)
(-0.2107 0.233404 3.91264e-20)
(-0.203283 0.149598 -3.56858e-20)
(-0.175327 0.0538155 6.97493e-20)
(-0.12711 -0.0493657 2.732e-20)
(-0.0598078 -0.1541 -8.37044e-20)
(0.0228549 -0.252433 4.38811e-20)
(0.116131 -0.336465 -5.44546e-20)
(0.213509 -0.40023 1.01572e-19)
(0.307619 -0.441491 -4.70796e-20)
(0.394442 -0.460461 1.59313e-20)
(0.471591 -0.459994 2.26237e-20)
(0.538204 -0.444484 -8.4792e-21)
(0.594438 -0.41854 -7.26177e-21)
(0.641542 -0.386567 2.07686e-22)
(0.680464 -0.35144 0)
(0.713639 -0.316641 5.45526e-21)
(0.740743 -0.281772 6.55783e-21)
(0.765684 -0.251283 -8.72509e-21)
(0.785142 -0.219743 -1.21797e-20)
(0.806779 -0.196925 1.03013e-20)
(-0.0624846 0.175708 0)
(-0.126363 0.337667 -1.03923e-19)
(-0.160792 0.376367 -3.77555e-21)
(-0.172007 0.34465 8.96391e-20)
(-0.162566 0.274306 0)
(-0.133146 0.180435 0)
(-0.0829506 0.070486 0)
(-0.0125362 -0.0497086 -3.29248e-20)
(0.076258 -0.171858 3.93503e-21)
(0.178491 -0.286372 5.709e-20)
(0.285786 -0.382941 -5.53854e-20)
(0.390032 -0.45499 7.32556e-21)
(0.484231 -0.499245 0)
(0.564552 -0.516945 -1.59227e-20)
(0.630139 -0.512451 1.04553e-20)
(0.682058 -0.491579 -2.85848e-20)
(0.722305 -0.460123 1.51678e-20)
(0.753459 -0.423104 -1.65562e-21)
(0.777444 -0.383877 -4.90903e-21)
(0.797255 -0.345749 1.11644e-22)
(0.812572 -0.308459 5.82555e-22)
(0.827723 -0.276013 -9.9431e-21)
(0.838516 -0.243079 5.70204e-21)
(0.853722 -0.218874 0)
(-0.066031 0.164755 5.9323e-20)
(-0.130038 0.337475 5.2724e-20)
(-0.151459 0.392524 -5.22379e-20)
(-0.143602 0.370226 -9.85655e-20)
(-0.111947 0.301276 9.13252e-20)
(-0.0587633 0.20274 -8.97971e-20)
(0.0159127 0.0838338 1.26229e-19)
(0.111671 -0.047754 -3.44604e-20)
(0.224956 -0.18192 7.13607e-20)
(0.347585 -0.307138 0)
(0.468452 -0.41139 4.63993e-20)
(0.577184 -0.486406 -9.20103e-20)
(0.66711 -0.529679 5.52954e-20)
(0.736218 -0.543886 -5.14667e-20)
(0.786148 -0.534923 0)
(0.820434 -0.509796 2.18697e-20)
(0.843083 -0.475024 2.74823e-20)
(0.857843 -0.435763 -2.30163e-20)
(0.867413 -0.395476 -7.53159e-21)
(0.874814 -0.356834 6.16242e-22)
(0.879674 -0.319867 3.18057e-21)
(0.886259 -0.287603 5.59187e-22)
(0.889563 -0.255387 -1.12281e-21)
(0.899151 -0.231197 -2.23118e-22)
(-0.0653707 0.143176 -5.93368e-20)
(-0.129531 0.314418 1.73242e-19)
(-0.14109 0.382849 -5.42086e-20)
(-0.11677 0.372402 1.02248e-19)
(-0.0641474 0.309379 -9.47321e-20)
(0.013106 0.211274 -7.5952e-22)
(0.114092 0.0887033 4.35329e-20)
(0.237667 -0.0486588 1.63965e-19)
(0.37766 -0.189106 -6.00057e-21)
(0.521096 -0.318421 -6.8086e-20)
(0.65288 -0.423161 0)
(0.761484 -0.495288 -3.8964e-20)
(0.841997 -0.533727 7.54716e-20)
(0.89562 -0.542872 4.67663e-20)
(0.927289 -0.52992 -2.31732e-20)
(0.943139 -0.502501 2.56739e-21)
(0.948861 -0.467163 -8.63047e-21)
(0.948877 -0.428667 1.59357e-20)
(0.946224 -0.390181 7.53336e-21)
(0.943351 -0.353466 -4.64976e-21)
(0.939927 -0.319062 5.60732e-21)
(0.939598 -0.28848 -3.8137e-21)
(0.936842 -0.258653 0)
(0.941841 -0.235311 2.2329e-22)
(-0.0614783 0.116671 6.2969e-20)
(-0.12529 0.274591 -5.82198e-20)
(-0.13045 0.349515 5.48252e-20)
(-0.0930703 0.34952 0)
(-0.0215633 0.294451 0)
(0.0794949 0.200372 9.39739e-20)
(0.208719 0.0786303 -8.7227e-20)
(0.362905 -0.0591784 8.20279e-20)
(0.530519 -0.198826 -3.7533e-19)
(0.692119 -0.324034 4.67012e-21)
(0.829122 -0.421485 5.65251e-20)
(0.931065 -0.484904 0)
(0.996891 -0.515385 -6.70824e-20)
(1.03216 -0.51889 1.13984e-19)
(1.04524 -0.503231 -6.83826e-20)
(1.04429 -0.475834 -7.3595e-20)
(1.03587 -0.442544 1.09923e-20)
(1.02438 -0.407314 4.42466e-20)
(1.01263 -0.372676 0)
(1.00211 -0.339581 0)
(0.992792 -0.30911 -5.61052e-21)
(0.987019 -0.281015 3.81592e-21)
(0.979672 -0.254763 -1.26463e-20)
(0.980865 -0.232551 1.17986e-20)
(-0.0561807 0.0907599 0)
(-0.118445 0.22654 0)
(-0.119464 0.298954 -1.65277e-19)
(-0.0715561 0.304495 4.99632e-20)
(0.0177187 0.256185 -2.18299e-21)
(0.143967 0.167366 8.94162e-20)
(0.304572 0.0500046 0)
(0.491472 -0.0824264 -8.13522e-20)
(0.684062 -0.213091 7.54268e-20)
(0.856286 -0.325491 -1.26806e-19)
(0.989234 -0.408542 5.83405e-21)
(1.07689 -0.45896 8.72781e-20)
(1.12386 -0.480032 -1.1623e-20)
(1.14021 -0.478548 4.44906e-20)
(1.13682 -0.461968 -7.81195e-20)
(1.1227 -0.436695 0)
(1.10419 -0.407353 5.05478e-20)
(1.08502 -0.376922 -6.67336e-20)
(1.06736 -0.347128 1.75389e-20)
(1.05172 -0.318562 0)
(1.03858 -0.292409 1.05346e-20)
(1.02843 -0.267208 2.61463e-20)
(1.01793 -0.245142 -2.4416e-20)
(1.01581 -0.223896 -2.01165e-20)
(-0.0514267 0.0692746 1.92526e-19)
(-0.110194 0.178594 -2.41524e-19)
(-0.106589 0.240042 7.56382e-22)
(-0.0476397 0.244459 5.09706e-20)
(0.0613726 0.199349 -9.50527e-20)
(0.217201 0.115765 -9.12241e-20)
(0.413218 0.00583204 1.72701e-19)
(0.630635 -0.11479 1.44499e-21)
(0.838682 -0.228311 -1.48532e-19)
(1.0086 -0.320779 2.55304e-19)
(1.12633 -0.385032 -9.41895e-21)
(1.19319 -0.420949 -9.83345e-20)
(1.21973 -0.433206 0)
(1.21922 -0.428342 0)
(1.20334 -0.412599 -2.36638e-20)
(1.18056 -0.390857 -3.90339e-20)
(1.1561 -0.36639 -5.59703e-20)
(1.13271 -0.341258 5.21845e-20)
(1.11174 -0.31646 -1.7559e-20)
(1.09312 -0.292672 2.72457e-20)
(1.07761 -0.270452 -1.46555e-20)
(1.06393 -0.248589 1.33709e-20)
(1.05176 -0.230531 -3.87834e-20)
(1.04619 -0.209795 4.81604e-21)
(-0.0484263 0.0536574 6.47376e-20)
(-0.100754 0.13638 0)
(-0.0882967 0.181221 1.10387e-19)
(-0.0129889 0.17864 -1.02198e-19)
(0.122726 0.133176 9.51758e-20)
(0.314079 0.0542986 0)
(0.545037 -0.0448138 0)
(0.782676 -0.147098 -7.64155e-20)
(0.989737 -0.237511 5.08015e-21)
(1.14219 -0.306698 6.57564e-20)
(1.23534 -0.351639 -4.81083e-20)
(1.27839 -0.374448 9.59132e-20)
(1.28612 -0.379985 0)
(1.27271 -0.373635 1.14082e-19)
(1.24891 -0.359979 -1.98497e-19)
(1.22158 -0.34233 1.25039e-19)
(1.19449 -0.322801 5.98626e-20)
(1.1694 -0.302704 -5.58139e-20)
(1.14696 -0.2826 0)
(1.12697 -0.263285 0)
(1.11 -0.244373 0)
(1.09389 -0.226458 0)
(1.08144 -0.210901 7.72313e-21)
(1.07091 -0.191378 -2.44962e-20)
(0.714793 0.00668258 7.38994e-22)
(0.755335 0.0106695 -7.44335e-22)
(0.788461 0.0138 1.89687e-23)
(0.815443 0.0162741 0)
(0.837701 0.0180481 4.54566e-22)
(0.856575 0.0195103 -8.42683e-22)
(0.872898 0.0210905 3.52008e-23)
(0.886925 0.0223444 3.44219e-22)
(0.898913 0.0230721 0)
(0.909318 0.0235868 0)
(0.918497 0.0241689 1.45712e-23)
(0.926617 0.024808 1.31179e-23)
(0.933822 0.0254731 1.95516e-22)
(0.940244 0.0261758 -1.78358e-22)
(0.94598 0.0268965 0)
(0.951107 0.0276101 0)
(0.955702 0.0283138 -1.2896e-22)
(0.95983 0.0290137 5.9716e-24)
(0.963547 0.0297166 1.08773e-22)
(0.966901 0.0304297 6.58613e-24)
(0.969931 0.0311606 0)
(0.972674 0.0319162 0)
(0.975161 0.0327005 0)
(0.977418 0.0335175 0)
(0.979471 0.0343718 0)
(0.981341 0.0352677 0)
(0.983045 0.0362094 -2.57908e-23)
(0.9846 0.0372009 4.18378e-23)
(0.986022 0.0382468 0)
(0.987323 0.0393518 0)
(0.988515 0.0405217 2.88145e-23)
(0.989607 0.0417629 -2.79984e-23)
(0.990609 0.0430821 -1.33498e-23)
(0.991529 0.0444857 0)
(0.992376 0.0459799 0)
(0.993155 0.0475709 -2.35001e-23)
(0.993874 0.0492659 2.28402e-23)
(0.994538 0.0510738 0)
(0.995152 0.0530038 -2.08024e-23)
(0.995721 0.0550664 3.02687e-23)
(0.996249 0.0572725 -9.62858e-24)
(0.996741 0.0596331 0)
(0.997199 0.0621612 1.74476e-23)
(0.997628 0.0648701 -1.69653e-23)
(0.99803 0.067774 0)
(0.998408 0.0708882 0)
(0.998765 0.0742292 7.05856e-24)
(0.999104 0.0778143 -2.0367e-23)
(0.999427 0.0816617 0)
(0.999737 0.0857905 0)
(1.00004 0.0902204 5.26834e-24)
(1.00033 0.0949721 9.54258e-27)
(1.00061 0.100062 3.76147e-25)
(1.00088 0.105532 -3.76269e-24)
(1.00116 0.111294 0)
(1.00142 0.117806 0)
(1.0017 0.12352 0)
(1.00193 0.133099 0)
(1.00217 0.135308 0)
(1.00241 0.151139 0)
(0.726781 -0.0465699 7.05412e-23)
(0.764169 -0.0314033 2.60088e-21)
(0.794757 -0.0195672 -2.49531e-22)
(0.81986 -0.010663 -2.19648e-21)
(0.840777 -0.00406562 -2.8872e-23)
(0.859032 0.00117285 0)
(0.874908 0.00577467 1.38526e-21)
(0.888277 0.00969163 -2.61959e-21)
(0.89978 0.0126276 1.23421e-21)
(0.910009 0.0148264 -1.00292e-21)
(0.91911 0.0166895 9.59334e-22)
(0.927125 0.018367 -8.00415e-22)
(0.934249 0.0199269 7.78087e-22)
(0.940633 0.0213966 2.15756e-23)
(0.946352 0.0227623 6.13262e-22)
(0.951473 0.0240199 -5.95583e-22)
(0.95607 0.0251863 5.18533e-22)
(0.960203 0.0262831 -4.88269e-22)
(0.963925 0.0273289 4.52538e-22)
(0.967286 0.0283375 -8.54433e-22)
(0.970327 0.0293224 4.03268e-22)
(0.973083 0.0302968 2.31652e-23)
(0.975583 0.031271 3.43267e-22)
(0.977855 0.0322541 -6.57633e-22)
(0.979923 0.0332549 3.14922e-22)
(0.981808 0.0342804 -1.84298e-23)
(0.983528 0.0353372 -2.86143e-22)
(0.985099 0.0364317 -3.34331e-24)
(0.986537 0.03757 5.09615e-22)
(0.987855 0.0387572 -4.87139e-22)
(0.989064 0.0399991 2.34814e-22)
(0.990176 0.0413019 -2.79436e-23)
(0.991199 0.0426732 1.3378e-23)
(0.992141 0.0441213 -2.57274e-23)
(0.993009 0.0456553 0)
(0.99381 0.0472833 0)
(0.994552 0.0490128 9.05621e-23)
(0.99524 0.0508513 -6.61339e-23)
(0.99588 0.0528081 -6.24168e-23)
(0.996476 0.0548942 -8.94971e-24)
(0.997032 0.057121 8.73861e-23)
(0.997553 0.0595002 -1.84732e-23)
(0.998043 0.0620448 0)
(0.998504 0.0647684 0)
(0.998939 0.0676852 0)
(0.999353 0.0708109 0)
(0.999747 0.0741619 -2.87177e-23)
(1.00012 0.0777557 1.35157e-23)
(1.00049 0.0816105 0)
(1.00084 0.0857456 0)
(1.00118 0.0901807 0)
(1.00151 0.0949366 9.19615e-24)
(1.00184 0.100029 -7.25405e-25)
(1.00216 0.105501 7.93061e-24)
(1.00248 0.111264 0)
(1.00277 0.117779 0)
(1.0031 0.123487 -3.99766e-24)
(1.00335 0.133072 -9.37426e-24)
(1.00365 0.135274 0)
(1.00388 0.15111 0)
(0.751918 -0.0939095 4.434e-22)
(0.782986 -0.0696721 5.23055e-21)
(0.808057 -0.0507453 -4.39849e-21)
(0.828995 -0.03648 4.11395e-21)
(0.847133 -0.0255262 2.90809e-23)
(0.863744 -0.0166253 0)
(0.878834 -0.00913926 2.78245e-21)
(0.891588 -0.00300708 -2.71901e-21)
(0.902271 0.00174057 -1.81517e-23)
(0.911821 0.00563609 -3.18983e-23)
(0.920492 0.00895953 -2.88088e-23)
(0.928231 0.011712 -2.63901e-23)
(0.935164 0.0141717 1.4776e-21)
(0.941403 0.0164231 -1.45659e-21)
(0.947008 0.0184617 0)
(0.952048 0.0202993 -3.62024e-23)
(0.956593 0.0219609 1.04356e-21)
(0.960694 0.0234743 -1.02887e-21)
(0.964397 0.024872 0)
(0.967746 0.0261825 0)
(0.970781 0.0274287 8.07484e-22)
(0.973536 0.0286285 -1.54134e-21)
(0.976039 0.0297956 1.40528e-21)
(0.978318 0.0309446 -3.925e-23)
(0.980396 0.0320892 -1.23372e-21)
(0.982292 0.0332406 1.20689e-21)
(0.984024 0.0344081 -1.09417e-21)
(0.98561 0.0356011 4.36523e-23)
(0.987062 0.0368279 5.17633e-22)
(0.988395 0.0380957 0)
(0.98962 0.0394117 0)
(0.990747 0.0407815 -1.67248e-22)
(0.991787 0.0422118 2.17109e-22)
(0.992749 0.0437094 -4.56208e-26)
(0.993639 0.0452835 -1.97581e-22)
(0.994463 0.0469448 1.91985e-22)
(0.995228 0.0487048 0)
(0.99594 0.050573 -2.19779e-23)
(0.996605 0.0525573 -1.88813e-22)
(0.997227 0.0546679 3.64255e-22)
(0.997812 0.056916 -1.56236e-22)
(0.998362 0.0593142 -1.85811e-23)
(0.998882 0.0618761 1.75862e-22)
(0.999376 0.0646154 -1.36486e-22)
(0.999845 0.0675466 -3.21523e-23)
(1.00029 0.0706853 -3.04912e-23)
(1.00072 0.0740483 2.87944e-23)
(1.00114 0.0776531 0)
(1.00154 0.081518 0)
(1.00193 0.0856624 9.31609e-23)
(1.00232 0.090106 -4.47124e-23)
(1.00269 0.0948696 3.97352e-23)
(1.00306 0.0999692 -5.37055e-23)
(1.00342 0.105448 -6.16654e-23)
(1.00379 0.111215 1.4496e-23)
(1.00413 0.117736 -2.28403e-23)
(1.00449 0.123444 1.81223e-23)
(1.00477 0.133038 -7.73499e-24)
(1.00512 0.135237 0)
(1.00536 0.151083 0)
(0.785846 -0.132595 9.14346e-21)
(0.808762 -0.102268 -5.4513e-22)
(0.826638 -0.0785823 -8.11525e-21)
(0.842355 -0.0603035 6.12799e-23)
(0.857053 -0.0456179 0)
(0.871291 -0.0332969 0)
(0.884473 -0.0230726 5.38389e-21)
(0.895722 -0.0150025 -3.30388e-22)
(0.905592 -0.0085722 -6.88805e-21)
(0.914708 -0.00330985 1.77069e-22)
(0.922777 0.00101834 1.94062e-21)
(0.929932 0.00490257 1.56819e-21)
(0.936527 0.00834286 -1.57271e-21)
(0.942533 0.011357 0)
(0.94796 0.0140425 1.2369e-21)
(0.952865 0.0164499 -1.12815e-21)
(0.957304 0.018612 0)
(0.961324 0.0205596 0)
(0.964971 0.0223275 -9.05141e-22)
(0.968284 0.0239506 3.46096e-23)
(0.971295 0.0254646 7.94765e-22)
(0.974034 0.0268971 7.65523e-22)
(0.976527 0.0282662 -7.64816e-22)
(0.978803 0.0295887 6.80931e-22)
(0.980883 0.0308812 -3.56803e-23)
(0.982785 0.032159 -6.07043e-22)
(0.984526 0.0334353 -7.12403e-23)
(0.986123 0.034723 3.5562e-26)
(0.987589 0.0360326 0)
(0.988937 0.0373745 -4.91587e-22)
(0.990177 0.0387581 5.07113e-22)
(0.99132 0.0401911 -2.83581e-23)
(0.992377 0.0416814 0)
(0.993354 0.0432349 2.60936e-23)
(0.994262 0.0448586 -3.988e-22)
(0.995108 0.0465596 7.2209e-22)
(0.995897 0.0483494 4.17878e-23)
(0.996633 0.0502423 -4.42845e-24)
(0.997323 0.052251 -2.99989e-22)
(0.997972 0.0543856 -4.07543e-23)
(0.998584 0.0566551 3.10041e-22)
(0.999164 0.0590719 -2.63943e-22)
(0.999715 0.0616507 5.08927e-26)
(1.00024 0.0644056 -1.3454e-22)
(1.00074 0.0673512 1.63064e-22)
(1.00123 0.0705033 2.12846e-22)
(1.0017 0.0738789 -5.95549e-23)
(1.00215 0.0774955 -1.06896e-22)
(1.00259 0.0813719 2.03608e-22)
(1.00302 0.0855273 -1.44258e-22)
(1.00345 0.0899817 4.09862e-23)
(1.00387 0.0947559 -4.53794e-23)
(1.00428 0.099866 -3.87894e-23)
(1.00469 0.105355 9.35381e-23)
(1.00509 0.111132 -1.73987e-24)
(1.00548 0.117664 2.29388e-23)
(1.00588 0.123379 0)
(1.00619 0.132985 7.83883e-24)
(1.0066 0.135188 -1.08789e-23)
(1.00684 0.151054 0)
(0.824235 -0.162111 -7.14046e-21)
(0.838603 -0.12871 1.38893e-20)
(0.848733 -0.102608 -6.66724e-21)
(0.858783 -0.0816952 -6.55362e-21)
(0.869649 -0.0641809 1.25154e-20)
(0.88097 -0.049197 -3.86115e-22)
(0.891858 -0.0367529 -5.46516e-21)
(0.901501 -0.0266775 -4.64465e-21)
(0.910065 -0.0184552 4.54416e-21)
(0.918021 -0.0118735 0)
(0.925572 -0.00654044 3.51376e-21)
(0.932426 -0.00186849 -6.61735e-21)
(0.938468 0.00239081 3.11411e-21)
(0.944028 0.00623552 0)
(0.949177 0.00958757 0)
(0.953889 0.0125611 -3.68196e-23)
(0.958182 0.0152118 2.11753e-21)
(0.962089 0.0175827 -2.05582e-21)
(0.965647 0.0197211 0)
(0.968894 0.0216653 -1.76209e-21)
(0.971862 0.0234517 3.25754e-21)
(0.974573 0.025115 -3.05522e-21)
(0.977047 0.0266843 2.91895e-21)
(0.979309 0.028183 -3.71046e-23)
(0.981382 0.0296294 -2.60474e-21)
(0.983283 0.0310396 1.2676e-21)
(0.985029 0.0324291 3.60731e-23)
(0.986634 0.0338133 5.10812e-22)
(0.98811 0.0352057 -8.81344e-24)
(0.989471 0.0366193 -5.05464e-22)
(0.990727 0.0380648 -2.9969e-23)
(0.991887 0.0395534 4.56755e-22)
(0.992961 0.0410954 -8.81638e-22)
(0.993956 0.0426991 4.78316e-22)
(0.994882 0.0443728 0)
(0.995745 0.0461224 4.35968e-22)
(0.996553 0.0479538 -4.22856e-22)
(0.997314 0.0498759 3.1159e-22)
(0.998031 0.0519056 -3.8919e-22)
(0.998706 0.0540604 4.124e-23)
(0.999346 0.0563503 0)
(0.999955 0.058786 3.77444e-23)
(1.00054 0.0613815 -1.08022e-22)
(1.00109 0.0641513 0)
(1.00163 0.0671108 -3.22784e-22)
(1.00215 0.0702762 1.26677e-22)
(1.00266 0.0736642 -5.82729e-23)
(1.00315 0.0772928 -5.48771e-23)
(1.00363 0.0811809 0)
(1.00411 0.0853481 0)
(1.00457 0.0898143 1.28974e-22)
(1.00504 0.0946007 -1.99922e-22)
(1.00549 0.0997231 1.11029e-22)
(1.00594 0.105225 -3.54058e-23)
(1.00639 0.111015 -5.85377e-23)
(1.00682 0.117563 -2.29635e-23)
(1.00727 0.123289 3.64731e-23)
(1.00761 0.132912 0)
(1.00806 0.135126 1.74778e-23)
(1.00832 0.151021 3.991e-24)
(0.863956 -0.183171 -4.85767e-21)
(0.870182 -0.149488 4.80807e-21)
(0.872999 -0.123003 -4.78459e-23)
(0.877692 -0.100582 3.81448e-23)
(0.884555 -0.0808976 -4.63523e-23)
(0.892541 -0.0638873 4.32069e-23)
(0.900701 -0.0497021 -7.1006e-23)
(0.90843 -0.0379876 0)
(0.915661 -0.0282448 6.25871e-23)
(0.922483 -0.0202518 -5.81749e-23)
(0.928928 -0.0137322 -5.38234e-23)
(0.935105 -0.00832793 5.17025e-23)
(0.940868 -0.00350199 0)
(0.946003 0.000955267 0)
(0.950712 0.00500695 -3.92214e-23)
(0.955138 0.00856024 0)
(0.959225 0.0117033 3.38127e-23)
(0.962979 0.0145003 0)
(0.966423 0.0170075 1.79172e-21)
(0.96958 0.0192796 -3.471e-21)
(0.972479 0.0213583 3.24992e-21)
(0.975143 0.023273 -1.57437e-21)
(0.977587 0.0250529 -1.43716e-21)
(0.979831 0.0267293 1.395e-21)
(0.981892 0.0283295 1.32718e-21)
(0.983787 0.0298748 -1.28735e-21)
(0.985531 0.0313825 0)
(0.987139 0.0328687 -3.49073e-23)
(0.988623 0.0343487 0)
(0.989995 0.0358366 0)
(0.991264 0.0373453 -9.06786e-22)
(0.99244 0.0388881 9.3937e-22)
(0.993532 0.040476 -5.59163e-23)
(0.994547 0.0421211 -5.35859e-23)
(0.995492 0.0438344 5.14739e-23)
(0.996375 0.0456248 3.92785e-22)
(0.997202 0.0475009 -3.81321e-22)
(0.997982 0.0494658 4.0676e-22)
(0.998722 0.0515257 -3.50817e-22)
(0.999426 0.0536992 -8.3459e-23)
(1.00009 0.0560057 3.16926e-22)
(1.00073 0.0584593 3.31789e-23)
(1.00134 0.0610721 -2.21086e-22)
(1.00194 0.0638572 0)
(1.00251 0.0668305 1.31705e-22)
(1.00306 0.0700089 -1.83692e-22)
(1.0036 0.0734095 2.38871e-22)
(1.00414 0.0770504 5.52451e-23)
(1.00466 0.0809508 0)
(1.00518 0.0851304 -4.54793e-23)
(1.00569 0.0896096 9.0826e-23)
(1.00619 0.0944095 -9.41131e-26)
(1.0067 0.0995463 3.636e-23)
(1.00719 0.105064 -6.06711e-23)
(1.00768 0.110869 5.87776e-23)
(1.00816 0.117435 0)
(1.00865 0.123178 -3.64948e-23)
(1.00902 0.132822 0)
(1.00953 0.135052 0)
(1.00981 0.150985 -5.29781e-24)
(0.902934 -0.196679 2.4367e-21)
(0.901898 -0.16511 -2.4032e-21)
(0.898438 -0.139527 2.1896e-23)