/*--------------------------------*- C++ -*----------------------------------*\
| =========                 |                                                 |
| \\      /  F ield         | OpenFOAM: The Open Source CFD Toolbox           |
|  \\    /   O peration     | Version:  2312                                  |
|   \\  /    A nd           | Website:  www.openfoam.com                      |
|    \\/     M anipulation  |                                                 |
\*---------------------------------------------------------------------------*/
FoamFile
{
    version     2.0;
    format      ascii;
    arch        "LSB;label=32;scalar=64";
    class       volVectorField;
    location    "101.4";
    object      U;
}
// * * * * * * * * * * * * * * * * * * * * * * * * * * * * * * * * * * * * * //

dimensions      [0 1 -1 0 0 0 0];

internalField   nonuniform List<vector> 
5478
(
(-0.025919 0.0271942 -1.28732e-19)
(-0.0179888 0.0405182 0)
(0.0493267 0.0299611 1.97752e-19)
(0.180766 0.00511338 -3.48531e-19)
(0.379162 -0.024616 2.30935e-19)
(0.619456 -0.0518027 -6.846e-20)
(0.856741 -0.0730756 -1.18532e-19)
(1.052 -0.0889681 0)
(1.1825 -0.100732 0)
(1.24784 -0.109067 1.25788e-19)
(1.25961 -0.113827 -6.42731e-20)
(1.2333 -0.113052 -8.79052e-20)
(1.19536 -0.112845 -3.06848e-20)
(1.15158 -0.0998701 0)
(1.10298 -0.0991364 6.09172e-20)
(-0.0226387 0.0169575 2.57816e-19)
(0.00867726 0.0154225 0)
(0.128061 -0.00131869 0)
(0.342219 -0.0209176 -1.72655e-19)
(0.618955 -0.0329714 2.28599e-19)
(0.890868 -0.0370218 6.65026e-20)
(1.10398 -0.0382976 -1.08512e-19)
(1.23543 -0.0415131 9.62267e-20)
(1.29049 -0.0480381 2.20415e-19)
(1.29079 -0.0562603 -1.89951e-19)
(1.26011 -0.0630418 3.01711e-21)
(1.22342 -0.0671696 0)
(1.18824 -0.0673332 3.06293e-20)
(1.15979 -0.0583987 0)
(1.13952 -0.0620593 0)
(-0.0164369 0.00921654 -6.65835e-22)
(0.0598825 -0.00676961 -1.17875e-19)
(0.265988 -0.0224544 1.47715e-22)
(0.57435 -0.0224353 0)
(0.885535 -0.0100596 -7.4048e-20)
(1.12007 0.00282781 6.23614e-20)
(1.25421 0.00815464 5.18983e-20)
(1.30362 0.00458052 0)
(1.30085 -0.0042039 -7.40643e-20)
(1.27528 -0.0137501 5.98141e-20)
(1.24789 -0.0205384 4.77538e-20)
(1.22258 -0.0242828 0)
(1.20055 -0.0233925 0)
(1.1799 -0.0227922 -8.51404e-20)
(1.15907 -0.020421 7.58546e-20)
(-0.00207855 0.0016583 -1.36029e-19)
(0.149775 -0.0236054 1.16489e-19)
(0.468385 -0.0201468 -1.00798e-19)
(0.830232 0.00766792 8.70144e-20)
(1.10333 0.0349026 1.46833e-19)
(1.25423 0.0489911 -1.22652e-19)
(1.3098 0.0495462 -5.18707e-20)
(1.31294 0.0423387 3.92128e-20)
(1.29571 0.0330062 -3.78876e-20)
(1.27459 0.0249495 0)
(1.25137 0.0187002 0)
(1.22706 0.0142461 -6.66987e-20)
(1.20172 0.0108028 8.50251e-20)
(1.1776 0.010052 -4.72525e-20)
(1.15301 0.00547012 0)
(0.0264072 -0.00680398 6.85789e-20)
(0.288248 -0.0273824 5.80238e-20)
(0.702359 0.0118862 -2.06085e-19)
(1.04436 0.058342 2.13792e-21)
(1.23708 0.0849021 -3.05627e-21)
(1.31284 0.0920496 -1.36189e-21)
(1.32554 0.0880755 4.74583e-20)
(1.3123 0.0798636 4.05156e-20)
(1.29037 0.0708779 2.83481e-20)
(1.26443 0.0620099 -5.05139e-21)
(1.2381 0.0540231 -6.4307e-20)
(1.21339 0.0468779 0)
(1.19224 0.0427364 2.74015e-20)
(1.17355 0.0368648 -1.95322e-20)
(1.15966 0.0362661 3.60122e-20)
(0.0752303 -0.0134919 -1.438e-19)
(0.468955 -0.00532113 1.56092e-19)
(0.913835 0.0669493 -5.27874e-20)
(1.18961 0.116462 4.05187e-20)
(1.30772 0.135037 -7.38884e-20)
(1.33604 0.135277 -5.50162e-20)
(1.32541 0.127449 1.22527e-21)
(1.30174 0.116897 0)
(1.27527 0.105726 5.79893e-20)
(1.25083 0.0952473 -5.1568e-20)
(1.22919 0.0860359 2.0311e-20)
(1.20994 0.0785737 0)
(1.19154 0.0718341 1.23224e-20)
(1.17407 0.0659158 -2.08796e-20)
(1.15457 0.0626911 0)
(0.147159 -0.0115323 -1.78729e-20)
(0.65878 0.0473136 1.0674e-21)
(1.07506 0.135183 2.63818e-20)
(1.2775 0.177925 4.32669e-20)
(1.3389 0.186425 -3.28942e-20)
(1.33594 0.17916 5.54081e-20)
(1.31226 0.166752 -1.26026e-20)
(1.28556 0.153496 0)
(1.26096 0.140793 -3.41006e-20)
(1.2381 0.128928 2.32237e-21)
(1.2163 0.118018 2.83473e-20)
(1.19555 0.107798 0)
(1.1766 0.0990558 -1.8056e-20)
(1.15904 0.0902229 0)
(1.14439 0.0866943 1.08123e-20)
(0.238236 0.00598834 -1.902e-20)
(0.822591 0.121802 0)
(1.18459 0.210998 2.65247e-20)
(1.32091 0.241434 0)
(1.3414 0.238266 0)
(1.3213 0.223718 0)
(1.29303 0.20709 -1.07338e-20)
(1.2657 0.190747 0)
(1.24032 0.175027 6.88296e-21)
(1.21735 0.160184 0)
(1.19725 0.14665 -8.87449e-21)
(1.18003 0.134661 0)
(1.16485 0.123859 5.72744e-21)
(1.15122 0.114491 0)
(1.1372 0.109071 3.68273e-21)
(-0.00785583 -0.0321725 -1.2226e-20)
(-0.0344957 -0.117529 0)
(-0.0813816 -0.176911 1.93834e-20)
(-0.131062 -0.22132 0)
(-0.178611 -0.268876 0)
(-0.222402 -0.32408 0)
(-0.260129 -0.383472 -1.26755e-20)
(-0.288877 -0.44201 0)
(-0.30557 -0.493729 1.03285e-20)
(-0.307594 -0.53182 0)
(-0.293055 -0.548921 -1.65297e-20)
(-0.261115 -0.537987 0)
(-0.212039 -0.493773 1.30025e-20)
(-0.149931 -0.41237 0)
(-0.0777379 -0.297733 1.0089e-20)
(-0.0114288 -0.00287248 6.21925e-20)
(-0.0391902 -0.0638116 -4.51443e-20)
(-0.0872624 -0.114391 2.14723e-20)
(-0.136965 -0.156134 7.2416e-20)
(-0.184139 -0.203866 6.60553e-22)
(-0.227997 -0.261708 -5.77044e-20)
(-0.267017 -0.327224 3.84794e-20)
(-0.299239 -0.396407 0)
(-0.322818 -0.463908 3.17174e-20)
(-0.336532 -0.523161 -3.62501e-22)
(-0.339067 -0.566629 -1.64421e-20)
(-0.328792 -0.585638 0)
(-0.30558 -0.571853 -3.5857e-20)
(-0.273979 -0.520371 0)
(-0.214315 -0.434305 -4.50147e-20)
(-0.0177311 0.0272392 1.05145e-19)
(-0.0438331 -0.00825731 2.45056e-20)
(-0.0851084 -0.0502829 -4.07672e-20)
(-0.125843 -0.0891905 -1.12772e-19)
(-0.162274 -0.13525 6.7283e-20)
(-0.193225 -0.192592 6.24652e-20)
(-0.217294 -0.259786 -1.1314e-19)
(-0.233258 -0.333299 0)
(-0.241032 -0.408048 -8.7682e-20)
(-0.242411 -0.478092 7.79654e-20)
(-0.239588 -0.536838 3.26193e-20)
(-0.233146 -0.576616 0)
(-0.219101 -0.588852 2.28444e-20)
(-0.219817 -0.566649 -3.06262e-20)
(-0.160056 -0.512822 0)
(-0.0248806 0.0507985 5.66506e-20)
(-0.0473742 0.0394369 -1.48238e-19)
(-0.0769805 0.00637081 1.77477e-19)
(-0.1027 -0.0286851 -1.60704e-19)
(-0.120251 -0.0716984 -7.4184e-20)
(-0.128145 -0.126768 6.74356e-20)
(-0.124314 -0.192846 5.77657e-20)
(-0.107452 -0.265814 5.44152e-20)
(-0.0787137 -0.33942 -1.3894e-19)
(-0.0424288 -0.407262 4.77618e-21)
(-0.00512434 -0.462823 3.55934e-20)
(0.0239229 -0.50359 0)
(0.0686677 -0.517479 3.70599e-20)
(0.0411631 -0.515567 7.78862e-20)
(0.134581 -0.477067 -4.23266e-20)
(-0.0309441 0.0631833 1.37587e-21)
(-0.0489515 0.0720844 1.05666e-19)
(-0.062419 0.0486632 -9.42768e-20)
(-0.0677199 0.0181275 8.17489e-20)
(-0.0602139 -0.0216342 1.51099e-19)
(-0.036389 -0.0741589 -1.37184e-19)
(0.00624567 -0.138556 -6.28588e-20)
(0.0679484 -0.210164 -1.64093e-19)
(0.144221 -0.281606 1.44819e-19)
(0.227554 -0.344384 0)
(0.30991 -0.388156 0)
(0.372177 -0.419997 9.04243e-20)
(0.458748 -0.413121 -1.81365e-19)
(0.440252 -0.407453 5.68502e-20)
(0.568143 -0.352202 0)
(-0.0337601 0.0635097 -3.61258e-22)
(-0.0472472 0.0865183 -1.06774e-19)
(-0.0432522 0.0725211 2.86294e-19)
(-0.023918 0.0458918 -8.52713e-20)
(0.0147517 0.00826368 -7.69624e-20)
(0.0777528 -0.0418259 6.97899e-20)
(0.168022 -0.102832 6.28728e-20)
(0.282206 -0.16898 1.10137e-19)
(0.410033 -0.232876 -1.92339e-19)
(0.538591 -0.285374 7.78761e-20)
(0.648928 -0.319248 6.16985e-20)
(0.739341 -0.337137 0)
(0.819766 -0.325314 0)
(0.825509 -0.305503 8.16956e-20)
(0.922638 -0.261856 -7.27317e-20)
(-0.0328016 0.0543395 1.05585e-21)
(-0.0416299 0.0829445 0)
(-0.0206138 0.0754713 0)
(0.0252636 0.0505903 1.76288e-19)
(0.100815 0.0135892 -7.7375e-20)
(0.212232 -0.0343356 6.99312e-20)
(0.358479 -0.0897316 1.24685e-19)
(0.526131 -0.145372 -1.10555e-19)
(0.694583 -0.195061 9.46169e-20)
(0.843132 -0.23035 -7.79352e-20)
(0.953692 -0.25331 -3.43785e-21)
(1.03677 -0.25488 0)
(1.06997 -0.245953 3.31019e-20)
(1.08269 -0.221651 0)
(1.0961 -0.190318 0)
(-0.0294743 0.0405477 -1.25344e-19)
(-0.0325658 0.0652656 0)
(0.00657178 0.058783 -1.97813e-19)
(0.0856596 0.0342512 3.50064e-19)
(0.211888 -0.00140178 -3.9002e-19)
(0.385958 -0.043908 -7.00921e-20)
(0.590529 -0.0866637 1.22538e-19)
(0.794809 -0.124402 0)
(0.970529 -0.153576 0)
(1.09559 -0.172787 -1.35307e-19)
(1.17081 -0.181935 -4.33563e-20)
(1.1975 -0.17947 9.39294e-20)
(1.18365 -0.171691 -3.31637e-20)
(1.1658 -0.155281 0)
(1.11614 -0.132932 -6.09245e-20)
(0.0375453 -0.0733959 0)
(0.269924 0.376875 4.01645e-21)
(0.406993 0.667072 -3.71395e-21)
(0.593183 0.723686 0)
(0.547608 0.776937 0)
(0.368406 0.764695 -1.13599e-22)
(0.497705 0.375105 0)
(0.71825 -0.151296 0)
(0.843726 -0.457805 8.63556e-23)
(0.921529 -0.490419 0)
(0.886054 -0.53198 0)
(0.801609 -0.570354 -8.29871e-23)
(0.781308 -0.465169 0)
(0.861146 -0.20346 -6.96996e-23)
(0.924836 0.124353 -8.25491e-23)
(0.947193 0.387588 0)
(0.999608 0.559895 -5.11029e-22)
(1.00287 0.524051 5.94438e-22)
(0.985335 0.250498 0)
(1.04575 -0.0730396 5.24229e-22)
(1.07753 -0.47261 -6.05857e-22)
(1.07386 -0.538315 1.19191e-22)
(1.06788 -0.251523 -2.1124e-22)
(1.11325 0.081197 2.01848e-22)
(1.12078 0.552233 -2.28263e-22)
(1.19297 0.593245 0)
(1.12726 -0.190908 -2.10652e-22)
(1.02643 -0.613841 2.01415e-22)
(1.09403 -0.00907745 -1.04752e-22)
(1.0363 0.316977 0)
(0.919903 0.0638324 -7.7986e-23)
(0.924506 -0.126963 0)
(0.984209 0.0522242 -1.22781e-23)
(0.90758 0.0294487 -1.06329e-23)
(0.893714 -0.0541463 2.70614e-25)
(0.965493 0.0349783 -6.22561e-25)
(0.974962 0.0242615 0)
(0.893771 0.00112594 1.30611e-24)
(-0.187804 -0.233456 1.60643e-20)
(0.0706506 0.196254 -1.23319e-22)
(0.286434 0.492125 -9.16626e-21)
(0.495178 0.680062 8.74211e-21)
(0.406809 0.84664 0)
(0.355185 0.766733 1.14499e-22)
(0.60802 0.288059 -2.80877e-22)
(0.84574 -0.227998 0)
(0.924141 -0.51328 -8.69963e-23)
(0.977666 -0.503324 0)
(0.927598 -0.501673 0)
(0.845599 -0.553325 8.35736e-23)
(0.845068 -0.477843 0)
(0.880053 -0.22906 2.54576e-21)
(0.907872 0.10237 -2.11648e-21)
(0.921766 0.361627 2.48448e-21)
(0.964498 0.543702 -2.37161e-21)
(0.979254 0.525859 -1.07176e-22)
(0.973848 0.250483 0)
(1.05813 -0.0816575 0)
(1.09302 -0.474118 -1.23526e-22)
(1.07752 -0.540905 9.62977e-22)
(1.07627 -0.254775 -1.76107e-21)
(1.09274 0.0686917 8.9412e-22)
(1.1001 0.53622 7.01246e-22)
(1.20889 0.591032 0)
(1.14895 -0.164017 3.81764e-22)
(1.02409 -0.615018 0)
(1.08475 -0.0117776 1.05119e-22)
(1.03517 0.3273 -2.21144e-22)
(0.927815 0.0743895 3.65497e-22)
(0.930387 -0.13308 -2.47831e-23)
(0.996356 0.0523821 3.32348e-23)
(0.912287 0.0375101 3.81776e-24)
(0.89039 -0.0584364 9.08821e-24)
(0.9654 0.0296775 -1.65086e-24)
(0.978702 0.0283277 -3.86238e-25)
(0.901846 0.00553325 1.87636e-25)
(-0.250505 -0.359832 1.87349e-20)
(-0.0397578 -0.00980046 -3.27837e-20)
(0.149226 0.329989 8.47419e-22)
(0.315803 0.65008 1.29021e-20)
(0.268683 0.872868 1.83821e-22)
(0.39275 0.713251 -2.43586e-22)
(0.734384 0.199694 2.8571e-22)
(0.981119 -0.269513 -5.42789e-22)
(1.00473 -0.53236 0)
(1.02185 -0.503688 7.46336e-21)
(0.964371 -0.463877 -7.1192e-21)
(0.865194 -0.541338 -1.71817e-22)
(0.898401 -0.500712 0)
(0.908423 -0.250775 -4.97729e-21)
(0.898564 0.0903581 4.58353e-21)
(0.901136 0.347395 -2.454e-21)
(0.932152 0.529578 2.34171e-21)
(0.95912 0.524247 1.77906e-21)
(0.964315 0.251189 -1.51731e-21)
(1.06642 -0.0828501 0)
(1.10326 -0.464206 0)
(1.07105 -0.541339 1.83423e-21)
(1.07715 -0.260434 -1.75125e-21)
(1.06677 0.0551568 -2.04571e-21)
(1.07115 0.515235 1.63627e-22)
(1.21237 0.588446 1.71258e-21)
(1.16165 -0.127614 -8.91304e-23)
(1.01413 -0.606327 -6.13694e-22)
(1.06982 -0.0175368 1.29649e-21)
(1.03162 0.336666 -1.06303e-21)
(0.93399 0.0869508 4.12623e-23)
(0.933906 -0.138467 -1.1233e-22)
(1.0061 0.0522094 2.68834e-23)
(0.916385 0.0467398 -2.57042e-23)
(0.885126 -0.0621019 -4.1395e-24)
(0.962868 0.0238455 -2.8037e-25)
(0.980308 0.0318269 8.35618e-24)
(0.908581 0.009683 8.17634e-25)
(-0.0388748 -0.407786 0)
(-0.0143363 -0.188444 5.48729e-21)
(0.0836822 0.169034 -5.41687e-21)
(0.194886 0.567196 0)
(0.228746 0.808282 -1.88972e-22)
(0.484397 0.61073 2.50306e-22)
(0.858847 0.110493 0)
(1.10952 -0.293109 1.97475e-23)
(1.09588 -0.527707 -3.91884e-22)
(1.06541 -0.505149 0)
(1.02723 -0.423428 -6.19491e-21)
(0.895241 -0.52077 6.08261e-21)
(0.927088 -0.528671 -3.04724e-22)
(0.946546 -0.273857 -5.17937e-21)
(0.911477 0.0681043 4.93966e-21)
(0.883766 0.316558 3.29451e-22)
(0.883791 0.507456 0)
(0.921883 0.523961 -1.93121e-22)
(0.94833 0.256019 3.15344e-21)
(1.06848 -0.0809165 4.49231e-22)
(1.11181 -0.451353 1.91525e-22)
(1.06049 -0.541115 -2.9046e-21)
(1.07254 -0.269149 -3.85697e-21)
(1.0388 0.03769 4.74034e-21)
(1.03234 0.479844 -4.87909e-22)
(1.19862 0.578713 0)
(1.16404 -0.0911516 -3.00332e-22)
(1.00061 -0.593866 6.21744e-22)
(1.05015 -0.029776 -1.34444e-21)
(1.02395 0.341192 1.10548e-21)
(0.937054 0.0991035 -1.44129e-22)
(0.935126 -0.143945 0)
(1.01317 0.0511743 -2.96556e-23)
(0.919852 0.0568508 5.95531e-23)
(0.878847 -0.0650478 2.06403e-23)
(0.958486 0.0174914 6.27243e-24)
(0.980046 0.0346947 -8.36205e-24)
(0.914041 0.0135302 -2.25044e-25)
(0.395364 -0.30937 1.13161e-22)
(0.233925 -0.238616 4.96359e-23)
(0.174827 0.0129564 0)
(0.226162 0.440025 0)
(0.318096 0.715226 0)
(0.627485 0.519984 0)
(0.989248 0.0450444 1.77575e-20)
(1.21804 -0.295754 -3.21855e-20)
(1.18603 -0.487983 1.53898e-20)
(1.09036 -0.496572 0)
(1.07469 -0.384494 -5.98393e-21)
(0.940375 -0.47836 5.89044e-21)
(0.928956 -0.555978 5.53829e-21)
(0.970597 -0.31061 -4.65649e-21)
(0.928034 0.0540728 5.72739e-21)
(0.868952 0.31353 -5.79808e-21)
(0.846035 0.496078 -2.62854e-22)
(0.894506 0.515528 -2.78946e-21)
(0.937422 0.256075 2.65742e-21)
(1.06773 -0.0754563 3.72366e-22)
(1.11621 -0.43175 3.74929e-22)
(1.0465 -0.539166 3.49882e-21)
(1.05956 -0.279964 -3.74245e-21)
(1.0074 0.0244561 -1.18761e-21)
(0.989877 0.450526 -4.8942e-22)
(1.17702 0.574659 -2.97988e-22)
(1.15785 -0.0473183 0)
(0.984585 -0.576504 0)
(1.02659 -0.0441323 0)
(1.01502 0.345156 0)
(0.93843 0.112671 3.84344e-22)
(0.934937 -0.148474 -2.27081e-22)
(1.01779 0.0495428 6.53664e-23)
(0.922804 0.0677924 -1.95169e-22)
(0.872531 -0.0671242 2.25087e-23)
(0.953042 0.0107178 2.04567e-24)
(0.97831 0.0369278 -8.14138e-24)
(0.918359 0.0170489 -2.24627e-24)
(0.806079 -0.199833 -1.19008e-22)
(0.662662 -0.150767 -8.55356e-21)
(0.488745 -0.0565595 8.14881e-21)
(0.387186 0.284825 8.29022e-21)
(0.462363 0.5645 -7.89598e-21)
(0.784072 0.423691 2.74531e-20)
(1.12877 0.00953834 -2.54512e-20)
(1.29962 -0.27718 4.67035e-22)
(1.25622 -0.426251 -3.94705e-22)
(1.11157 -0.476437 0)
(1.0941 -0.36183 -2.07351e-22)
(0.992523 -0.421876 1.10293e-20)
(0.917668 -0.563489 -1.04983e-20)
(0.96606 -0.353162 -3.35007e-22)
(0.942241 0.0197792 0)
(0.862549 0.279538 -5.46943e-21)
(0.799697 0.469805 8.80966e-21)
(0.843882 0.513315 -3.3155e-21)
(0.917336 0.266744 0)
(1.06578 -0.063505 2.61844e-21)
(1.11759 -0.407459 -1.5332e-23)
(1.034 -0.534491 -3.0736e-21)
(1.0407 -0.293156 -5.37394e-21)
(0.978279 0.00498396 5.21454e-21)
(0.943172 0.406212 -3.23409e-21)
(1.13718 0.560059 1.41208e-21)
(1.14077 -0.00565599 1.71867e-21)
(0.970558 -0.558348 -2.1503e-21)
(1.00102 -0.064961 2.04547e-21)
(1.00261 0.343109 -4.85998e-22)
(0.936662 0.12606 4.62055e-22)
(0.933575 -0.152674 0)
(1.01997 0.04678 7.1864e-23)
(0.925204 0.0791889 -1.17755e-23)
(0.866966 -0.0683599 0)
(0.947372 0.00363478 -1.01737e-23)
(0.975581 0.0385546 5.75127e-24)
(0.921718 0.020223 -5.86777e-25)
(1.015 -0.145695 0)
(0.936169 -0.0830883 0)
(0.85995 -0.0185659 2.32173e-23)
(0.67693 0.226166 0)
(0.658648 0.465304 0)
(0.974177 0.350139 2.34078e-20)
(1.26943 -0.0154828 -2.23307e-20)
(1.35549 -0.253511 2.70735e-20)
(1.29879 -0.363624 -2.58649e-20)
(1.14361 -0.446436 0)
(1.09593 -0.353029 -1.98956e-22)
(1.03411 -0.367711 1.6282e-22)
(0.920564 -0.549224 -1.14099e-20)
(0.940274 -0.414471 -1.92733e-21)
(0.9451 -0.00747679 1.20154e-20)
(0.848374 0.289724 1.83777e-22)
(0.762414 0.470945 -1.37527e-22)
(0.819985 0.499946 5.06266e-21)
(0.910445 0.259301 -4.97936e-21)
(1.06929 -0.055147 0)
(1.1166 -0.377343 0)
(1.02195 -0.525425 -1.89097e-22)
(1.01551 -0.307049 0)
(0.944183 -0.00499172 5.06244e-21)
(0.897144 0.378051 -1.03324e-21)
(1.10565 0.558668 -3.02804e-21)
(1.12271 0.0376913 -1.48252e-21)
(0.960108 -0.537151 1.0238e-21)
(0.976026 -0.0850117 -2.534e-22)
(0.990664 0.342358 0)
(0.934173 0.139105 -2.50312e-22)
(0.932154 -0.156502 2.37292e-22)
(1.02013 0.0433663 4.52259e-23)
(0.92728 0.0908739 2.47816e-23)
(0.862755 -0.0688436 -4.0486e-23)
(0.94223 -0.00354994 -4.58107e-24)
(0.972382 0.039668 0)
(0.924341 0.0230608 1.54263e-24)
(1.06623 -0.125079 3.73392e-20)
(1.02772 -0.0869583 8.47555e-21)
(1.00854 -0.0524388 -1.54274e-20)
(0.892713 0.118775 2.0826e-20)
(0.858131 0.335861 -1.31509e-20)
(1.11553 0.297459 -7.40773e-23)
(1.33491 0.0443603 0)
(1.36948 -0.157885 -2.15909e-22)
(1.31547 -0.269134 -1.77663e-22)
(1.17733 -0.38874 0)
(1.10442 -0.339924 -1.2122e-20)
(1.05932 -0.322885 1.15363e-20)
(0.939992 -0.505446 1.60912e-22)
(0.903156 -0.455784 1.33502e-20)
(0.917448 -0.0847743 -1.26435e-20)
(0.83116 0.236434 1.95926e-22)
(0.726372 0.436704 1.45467e-22)
(0.761841 0.498376 0)
(0.880521 0.282896 4.96536e-21)
(1.07396 -0.0270726 -4.71438e-21)
(1.11901 -0.342201 -2.79126e-21)
(1.01045 -0.511463 -9.6783e-22)
(0.987502 -0.319727 3.61055e-21)
(0.909842 -0.0317563 -5.20143e-21)
(0.852537 0.324431 1.60035e-21)
(1.04794 0.535246 4.75915e-21)
(1.09778 0.0866786 -1.24982e-21)
(0.952973 -0.511589 2.11157e-21)
(0.952235 -0.111945 -1.52212e-21)
(0.975877 0.332967 0)
(0.929091 0.15456 0)
(0.930891 -0.158297 0)
(1.01874 0.0386147 4.02175e-23)
(0.929155 0.102641 -4.64923e-23)
(0.860196 -0.0683437 3.50259e-23)
(0.93809 -0.0110468 -2.91069e-23)
(0.969176 0.040292 -3.71413e-24)
(0.926457 0.0255758 0)
(1.07711 -0.0701533 0)
(1.04567 -0.0369393 0)
(1.01042 -0.0104515 0)
(0.984374 0.107696 0)
(1.02797 0.200531 0)
(1.23884 0.173861 0)
(1.35004 0.0157694 0)
(1.32333 -0.131972 0)
(1.29577 -0.186351 0)
(1.19441 -0.310985 0)
(1.1079 -0.298717 0)
(1.0871 -0.249156 0)
(0.976682 -0.460607 0)
(0.87292 -0.50119 0)
(0.875957 -0.12703 0)
(0.793648 0.258596 0)
(0.673851 0.457125 0)
(0.744589 0.47571 0)
(0.898506 0.24182 0)
(1.10027 -0.0284039 0)
(1.13054 -0.306877 0)
(0.993973 -0.507261 0)
(0.948989 -0.34474 0)
(0.87399 -0.0351939 0)
(0.810112 0.301205 0)
(1.0018 0.537712 0)
(1.09556 0.118449 0)
(0.943537 -0.492452 0)
(0.928182 -0.133748 0)
(0.961165 0.330421 0)
(0.921714 0.16643 0)
(0.930816 -0.161331 0)
(1.01386 0.0348797 0)
(0.929816 0.116658 0)
(0.859147 -0.0673401 0)
(0.933992 -0.0195084 0)
(0.965293 0.0407449 0)
(0.928695 0.0282832 0)
(1.08789 -0.0305384 0)
(1.07269 -0.00917173 0)
(1.0436 -0.0066424 0)
(1.04485 0.0768775 0)
(1.09773 0.120473 0)
(1.20252 0.0901017 0)
(1.27568 0.00566852 0)
(1.26195 -0.109219 0)
(1.21691 -0.189618 0)
(1.15764 -0.27996 0)
(1.06084 -0.271493 0)
(1.014 -0.273549 0)
(0.946236 -0.427957 0)
(0.83894 -0.413289 0)
(0.806544 -0.0532588 0)
(0.700174 0.3198 0)
(0.614863 0.466239 0)
(0.755218 0.420903 0)
(0.93801 0.160724 0)
(1.13217 -0.103915 0)
(1.12007 -0.3159 0)
(0.941752 -0.453117 0)
(0.885913 -0.285317 0)
(0.796325 0.0139176 0)
(0.725016 0.296592 0)
(0.963888 0.485319 0)
(1.09495 0.0889989 0)
(0.930235 -0.467691 0)
(0.907228 -0.115356 0)
(0.932238 0.337773 0)
(0.914004 0.163688 0)
(0.938161 -0.173682 0)
(1.00908 0.0351902 0)
(0.931178 0.133632 0)
(0.862779 -0.0683847 0)
(0.934039 -0.0293553 0)
(0.963753 0.0413279 0)
(0.932124 0.0310812 0)
(1.0886 -0.00830863 0)
(1.0884 0.00768961 0)
(1.07352 0.00927791 0)
(1.07288 0.0449178 0)
(1.11341 0.0626013 0)
(1.16128 0.0474696 0)
(1.20614 -0.0225383 0)
(1.207 -0.0929129 0)
(1.1812 -0.127538 0)
(1.13409 -0.220266 0)
(1.05957 -0.207175 0)
(1.05377 -0.185612 0)
(0.976682 -0.346703 0)
(0.785824 -0.381277 0)
(0.697215 -0.0270415 0)
(0.597181 0.37365 0)
(0.613292 0.430527 0)
(0.820356 0.311118 0)
(0.99818 0.0756249 0)
(1.13889 -0.10694 0)
(1.12409 -0.251149 0)
(0.918838 -0.411384 0)
(0.809781 -0.273204 0)
(0.691908 0.0323225 0)
(0.636576 0.252932 0)
(0.946684 0.4174 0)
(1.1234 0.105407 0)
(0.927419 -0.430792 0)
(0.886052 -0.126384 0)
(0.907084 0.327052 0)
(0.915238 0.162182 0)
(0.948573 -0.181672 0)
(1.00088 0.0341675 0)
(0.93166 0.150081 0)
(0.869479 -0.0686035 0)
(0.938071 -0.0397456 0)
(0.965352 0.0417707 0)
(0.936691 0.0337783 0)
(1.08726 0.00801207 0)
(1.08794 0.0153598 0)
(1.08779 0.00743575 0)
(1.08747 0.0286418 0)
(1.10719 0.0232817 0)
(1.13562 0.0137106 0)
(1.15991 -0.0252274 0)
(1.15316 -0.0833921 0)
(1.13452 -0.118328 0)
(1.10253 -0.182537 0)
(1.02018 -0.193501 0)
(0.992181 -0.217308 0)
(0.947375 -0.285928 0)
(0.763637 -0.239463 0)
(0.620679 0.0641487 0)
(0.578206 0.369918 0)
(0.732156 0.338001 0)
(0.942276 0.219882 0)
(1.07458 0.0157429 0)
(1.13437 -0.151965 0)
(1.10403 -0.229334 0)
(0.902569 -0.321773 0)
(0.724332 -0.191349 0)
(0.57988 0.0856531 0)
(0.577078 0.198104 0)
(0.928445 0.318287 0)
(1.13649 0.0845351 0)
(0.932717 -0.37831 0)
(0.850472 -0.109886 0)
(0.871814 0.319013 0)
(0.92096 0.150616 0)
(0.96403 -0.193198 0)
(0.990626 0.0355878 0)
(0.932581 0.167176 0)
(0.879987 -0.0700015 0)
(0.946531 -0.0512902 0)
(0.97201 0.0425007 0)
(0.943866 0.0366367 0)
(1.08183 0.0136955 0)
(1.08716 0.0181247 0)
(1.08823 0.00537957 0)
(1.08848 0.0164522 0)
(1.1015 0.00275498 0)
(1.11005 -0.0035429 0)
(1.12327 -0.0330246 0)
(1.1207 -0.0727461 0)
(1.1022 -0.0884366 0)
(1.08112 -0.146134 0)
(1.03372 -0.129867 0)
(0.993455 -0.133012 0)
(0.928595 -0.19833 0)
(0.784867 -0.157032 0)
(0.680104 0.0901634 0)
(0.716171 0.310541 0)
(0.915639 0.224772 0)
(1.05418 0.120025 0)
(1.12326 -0.0202633 0)
(1.1199 -0.124762 0)
(1.08975 -0.160272 0)
(0.924283 -0.23619 0)
(0.715389 -0.122455 0)
(0.565048 0.105701 0)
(0.596423 0.110323 0)
(0.90203 0.205088 0)
(1.14715 0.0857085 0)
(0.963737 -0.320912 0)
(0.809669 -0.0996339 0)
(0.836876 0.302721 0)
(0.94376 0.13478 0)
(0.982612 -0.200937 0)
(0.983417 0.0370778 0)
(0.939878 0.182402 0)
(0.895224 -0.0712432 0)
(0.958539 -0.0635649 0)
(0.983666 0.0433039 0)
(0.953737 0.0398896 0)
(1.07419 0.0156457 0)
(1.08142 0.0172899 0)
(1.08284 0.00269159 0)
(1.08392 0.00946407 0)
(1.09068 -0.00789141 0)
(1.09057 -0.0124729 0)
(1.09995 -0.0318168 0)
(1.08953 -0.0632206 0)
(1.07954 -0.0683879 0)
(1.05546 -0.117716 0)
(1.00968 -0.107135 0)
(0.985141 -0.119058 0)
(0.948204 -0.14427 0)
(0.841979 -0.0738079 0)
(0.78986 0.09358 0)
(0.875662 0.213313 0)
(1.0358 0.128478 0)
(1.10373 0.0889835 0)
(1.13111 -0.0157782 0)
(1.08043 -0.128109 0)
(1.04628 -0.133833 0)
(0.932627 -0.152372 0)
(0.773496 -0.0328384 0)
(0.68581 0.143124 0)
(0.731844 0.0493941 0)
(0.895032 0.0818923 0)
(1.13557 0.0530681 0)
(1.00203 -0.245663 0)
(0.775047 -0.0628438 0)
(0.81604 0.275378 0)
(0.985286 0.105174 0)
(1.00657 -0.202892 0)
(0.963432 0.0430686 0)
(0.939477 0.195597 0)
(0.915439 -0.0746941 0)
(0.971454 -0.0766336 0)
(0.994971 0.0449938 0)
(0.964705 0.04365 0)
(1.06567 0.0139101 0)
(1.07361 0.0154277 0)
(1.07484 0.00126694 0)
(1.07497 0.00407516 0)
(1.07968 -0.0106899 0)
(1.07366 -0.017115 0)
(1.08128 -0.0275169 0)
(1.0661 -0.0546105 0)
(1.06196 -0.0520002 0)
(1.04264 -0.0877822 0)
(1.01271 -0.07399 0)
(0.993842 -0.0744255 0)
(0.955828 -0.083972 0)
(0.89297 -0.0334311 0)
(0.88105 0.0597998 0)
(0.964712 0.142759 0)
(1.05507 0.0733604 0)
(1.07969 0.0510195 0)
(1.12259 -0.0075498 0)
(1.06375 -0.0843253 0)
(1.02611 -0.0748418 0)
(0.949261 -0.0884874 0)
(0.843872 -0.00278603 0)
(0.85906 0.14263 0)
(0.932827 0.0230961 0)
(0.939638 0.013324 0)
(1.10783 0.0375419 0)
(1.04037 -0.174964 0)
(0.792017 -0.025117 0)
(0.839269 0.22588 0)
(1.03572 0.0682346 0)
(1.02911 -0.191863 0)
(0.932904 0.055362 0)
(0.949204 0.20115 0)
(0.952014 -0.0815702 0)
(0.98726 -0.0902892 0)
(1.01083 0.04698 0)
(0.981081 0.0479836 0)
(1.05821 0.012333 0)
(1.06409 0.0126865 0)
(1.06646 0.00116715 0)
(1.06416 0.000776991 0)
(1.06921 -0.00984282 0)
(1.05972 -0.0172949 0)
(1.06655 -0.0224415 0)
(1.05168 -0.0430023 0)
(1.04868 -0.03777 0)
(1.03432 -0.0631852 0)
(1.00928 -0.0535208 0)
(0.998401 -0.053312 0)
(0.969697 -0.056308 0)
(0.94493 -0.0113469 0)
(0.935076 0.031333 0)
(0.991165 0.0859525 0)
(1.05083 0.0449106 0)
(1.0506 0.0378383 0)
(1.08963 -0.00166785 0)
(1.04009 -0.0670379 0)
(1.012 -0.0552107 0)
(0.977945 -0.047131 0)
(0.910178 0.00396152 0)
(0.962344 0.112803 0)
(1.04004 0.0185087 0)
(0.987052 -0.0141187 0)
(1.07191 0.0153739 0)
(1.03442 -0.117917 0)
(0.850663 0.018855 0)
(0.909538 0.176956 0)
(1.08059 0.0353998 0)
(1.03414 -0.168586 0)
(0.910152 0.0673792 0)
(0.994515 0.195669 0)
(1.0116 -0.0841825 0)
(1.00503 -0.100483 0)
(1.0196 0.0481176 0)
(0.993228 0.0523263 0)
(1.05131 0.010876 0)
(1.05476 0.0102291 0)
(1.05791 0.00182028 0)
(1.05456 -0.000588548 0)
(1.05865 -0.00734452 0)
(1.04975 -0.0150713 0)
(1.05382 -0.0168968 0)
(1.04219 -0.0322105 0)
(1.03834 -0.0278593 0)
(1.02962 -0.0432607 0)
(1.01026 -0.03786 0)
(1.00736 -0.032461 0)
(0.983117 -0.0343116 0)
(0.975714 -0.00123744 0)
(0.971142 0.013136 0)
(0.998946 0.052529 0)
(1.0376 0.0274736 0)
(1.0331 0.0202799 0)
(1.06622 0.00123464 0)
(1.03328 -0.0386006 0)
(1.00659 -0.029897 0)
(0.993093 -0.0190612 0)
(0.952932 -0.00316029 0)
(0.994914 0.0740625 0)
(1.06229 0.0141456 0)
(1.00894 -0.0141197 0)
(1.05001 0.0225305 0)
(1.01323 -0.0765183 0)
(0.909656 0.0316385 0)
(0.980345 0.128392 0)
(1.10423 0.0217404 0)
(1.02957 -0.130031 0)
(0.908614 0.0681346 0)
(1.05432 0.172361 0)
(1.07114 -0.0801204 0)
(1.00846 -0.0969977 0)
(0.999558 0.0527702 0)
(0.993465 0.0556055 0)
(1.04475 0.00975626 0)
(1.04653 0.00850497 0)
(1.04967 0.00257695 0)
(1.04628 -0.00040632 0)
(1.04894 -0.00493555 0)
(1.04237 -0.0112072 0)
(1.0435 -0.0122816 0)
(1.03651 -0.0222861 0)
(1.03114 -0.019648 0)
(1.02753 -0.0280139 0)
(1.01232 -0.0254236 0)
(1.01206 -0.0198611 0)
(0.995387 -0.0227083 0)
(0.993556 0.00185022 0)
(0.99326 0.00380942 0)
(1.00257 0.0298075 0)
(1.03079 0.0159931 0)
(1.02437 0.0125459 0)
(1.04365 0.00123891 0)
(1.0268 -0.0235161 0)
(1.00574 -0.0212492 0)
(1.00416 -0.00713043 0)
(0.982485 -0.00572877 0)
(1.00075 0.0478707 0)
(1.0532 0.0140598 0)
(1.0068 -0.0138563 0)
(1.03675 0.0214633 0)
(1.01173 -0.0505044 0)
(0.951397 0.0335526 0)
(1.00969 0.0878546 0)
(1.09541 0.0173498 0)
(1.02402 -0.0907801 0)
(0.924782 0.0536625 0)
(1.08848 0.136886 0)
(1.10027 -0.0660353 0)
(0.990465 -0.0773333 0)
(0.973607 0.056983 0)
(1.0025 0.0537594 0)
(1.03862 0.00876534 0)
(1.03968 0.00751859 0)
(1.04194 0.0031649 0)
(1.03959 0.000661598 0)
(1.04075 -0.00264306 0)
(1.03667 -0.00708834 0)
(1.03594 -0.0081013 0)
(1.03203 -0.0143027 0)
(1.02697 -0.0131133 0)
(1.02536 -0.0173954 0)
(1.01492 -0.0166447 0)
(1.015 -0.0117656 0)
(1.00529 -0.0144321 0)
(1.00338 0.00250888 0)
(1.00621 -0.000777964 0)
(1.00645 0.0177237 0)
(1.02465 0.00780674 0)
(1.02003 0.00753322 0)
(1.03069 0.000557634 0)
(1.02328 -0.0112677 0)
(1.00878 -0.0115707 0)
(1.00873 3.55259e-05 0)
(0.999183 -0.00421863 0)
(1.00122 0.029091 0)
(1.04287 0.0118936 0)
(1.00795 -0.00930355 0)
(1.0276 0.0255519 0)
(1.01411 -0.0311864 0)
(0.974021 0.0307489 0)
(1.01595 0.0556677 0)
(1.07391 0.0173956 0)
(1.02337 -0.0530104 0)
(0.945282 0.0357705 0)
(1.08823 0.0995828 0)
(1.09827 -0.0431684 0)
(0.973297 -0.0495998 0)
(0.973707 0.0513267 0)
(1.0245 0.0448504 0)
(1.03308 0.00800757 0)
(1.03394 0.00696176 0)
(1.03544 0.00376894 0)
(1.034 0.00196215 0)
(1.03431 -0.000637246 0)
(1.03177 -0.00348845 0)
(1.03058 -0.00466646 0)
(1.02826 -0.00826626 0)
(1.02446 -0.00802123 0)
(1.02347 -0.0101666 0)
(1.01711 -0.0101583 0)
(1.0166 -0.00654532 0)
(1.01149 -0.00913718 0)
(1.00943 0.00231552 0)
(1.01241 -0.0025182 0)
(1.00987 0.0105851 0)
(1.02148 0.00264556 0)
(1.01735 0.00582418 0)
(1.02357 -0.000474762 0)
(1.01941 -0.00469504 0)
(1.01136 -0.00659334 0)
(1.01081 0.00144903 0)
(1.00903 -0.00225106 0)
(1.00396 0.0177052 0)
(1.03372 0.0103934 0)
(1.008 -0.00615119 0)
(1.02122 0.0231622 0)
(1.01786 -0.020104 0)
(0.99007 0.0294219 0)
(1.01725 0.0336435 0)
(1.05238 0.015651 0)
(1.0253 -0.0259068 0)
(0.967531 0.0196194 0)
(1.07406 0.0688203 0)
(1.07946 -0.0189151 0)
(0.973764 -0.0259095 0)
(0.991368 0.0373269 0)
(1.03991 0.0332672 0)
(1.02839 0.00739245 0)
(1.02917 0.0066405 0)
(1.03008 0.00425489 0)
(1.02925 0.00308301 0)
(1.02922 0.000966306 0)
(1.02767 -0.000684263 0)
(1.02664 -0.00194661 0)
(1.02513 -0.00387053 0)
(1.02267 -0.00426586 0)
(1.02186 -0.00519877 0)
(1.01816 -0.00570558 0)
(1.01753 -0.00320094 0)
(1.0148 -0.00544436 0)
(1.01309 0.00204333 0)
(1.01528 -0.00266353 0)
(1.01243 0.00697017 0)
(1.01943 -0.000158103 0)
(1.01563 0.00499462 0)
(1.0203 -0.00121121 0)
(1.01685 -0.000548572 0)
(1.01385 -0.00296301 0)
(1.01221 0.00240771 0)
(1.01356 0.000379159 0)
(1.00669 0.0105606 0)
(1.02765 0.00916341 0)
(1.00975 -0.00254361 0)
(1.01901 0.0219151 0)
(1.01834 -0.0114912 0)
(1.0004 0.028345 0)
(1.01901 0.0186093 0)
(1.03832 0.0139588 0)
(1.02564 -0.00567021 0)
(0.986929 0.00846432 0)
(1.05958 0.0461454 0)
(1.0594 0.00231562 0)
(0.987269 -0.00871709 0)
(1.00755 0.0231631 0)
(1.04324 0.0238773 0)
(1.0245 0.00686979 0)
(1.02517 0.00636809 0)
(1.02572 0.00457103 0)
(1.0253 0.00390367 0)
(1.02519 0.00217289 0)
(1.02428 0.00133969 0)
(1.02351 5.96873e-05 0)
(1.02253 -0.000849111 0)
(1.02099 -0.00157575 0)
(1.02041 -0.0019343 0)
(1.01834 -0.00262045 0)
(1.01775 -0.00103649 0)
(1.01629 -0.00285426 0)
(1.01499 0.00194113 0)
(1.01641 -0.0021239 0)
(1.01391 0.00508509 0)
(1.01833 -0.00146595 0)
(1.01482 0.00493456 0)
(1.0187 -0.00171129 0)
(1.01525 0.00195533 0)
(1.0152 -0.00119954 0)
(1.01288 0.00235432 0)
(1.01559 0.00206535 0)
(1.00938 0.00621312 0)
(1.02336 0.00847205 0)
(1.01073 -0.000236181 0)
(1.01815 0.018662 0)
(1.01831 -0.00678624 0)
(1.0074 0.0269538 0)
(1.02046 0.00882675 0)
(1.02926 0.0119691 0)
(1.02438 0.00573239 0)
(1.00244 -0.000720987 0)
(1.04796 0.0315162 0)
(1.04398 0.0173744 0)
(1.00208 0.000270073 0)
(1.01772 0.0115669 0)
(1.04128 0.0168419 0)
(1.02125 0.0063782 0)
(1.02183 0.0060804 0)
(1.02218 0.00472926 0)
(1.02203 0.00440598 0)
(1.02191 0.0029937 0)
(1.02143 0.00265638 0)
(1.0209 0.00144198 0)
(1.02033 0.00110416 0)
(1.01938 0.000252713 0)
(1.01903 0.000164561 0)
(1.01786 -0.000563584 0)
(1.01747 0.000366827 0)
(1.01665 -0.00105063 0)
(1.01575 0.00200175 0)
(1.01666 -0.00136609 0)
(1.01467 0.00421793 0)
(1.01761 -0.00179286 0)