/*--------------------------------*- C++ -*----------------------------------*\
| =========                 |                                                 |
| \\      /  F ield         | OpenFOAM: The Open Source CFD Toolbox           |
|  \\    /   O peration     | Version:  2312                                  |
|   \\  /    A nd           | Website:  www.openfoam.com                      |
|    \\/     M anipulation  |                                                 |
\*---------------------------------------------------------------------------*/
FoamFile
{
    version     2.0;
    format      ascii;
    arch        "LSB;label=32;scalar=64";
    class       volScalarField;
    location    "45.4";
    object      p;
}
// * * * * * * * * * * * * * * * * * * * * * * * * * * * * * * * * * * * * * //

dimensions      [0 2 -2 0 0 0 0];

internalField   nonuniform List<scalar> 
5478
(
-0.34176
-0.341019
-0.337141
-0.331284
-0.324512
-0.317245
-0.31013
-0.303428
-0.297121
-0.29084
-0.284207
-0.275755
-0.266196
-0.253656
-0.239196
-0.349294
-0.347393
-0.34326
-0.337689
-0.330852
-0.322606
-0.313039
-0.302556
-0.291489
-0.279979
-0.267926
-0.255524
-0.242925
-0.229362
-0.215916
-0.360626
-0.356715
-0.351545
-0.345203
-0.336913
-0.325867
-0.31243
-0.297596
-0.2823
-0.267151
-0.252535
-0.238365
-0.224313
-0.210052
-0.195804
-0.3758
-0.369372
-0.362311
-0.353944
-0.342121
-0.326549
-0.308648
-0.29006
-0.271882
-0.254644
-0.238287
-0.222698
-0.207729
-0.193237
-0.17974
-0.395867
-0.386141
-0.376634
-0.364078
-0.346347
-0.325131
-0.302922
-0.281287
-0.260944
-0.242028
-0.224512
-0.208233
-0.192854
-0.178421
-0.164551
-0.421692
-0.407087
-0.394012
-0.374347
-0.348805
-0.321613
-0.295383
-0.271101
-0.248961
-0.228878
-0.210575
-0.193755
-0.178236
-0.163864
-0.150202
-0.451934
-0.43159
-0.411207
-0.381682
-0.347759
-0.314895
-0.285043
-0.258443
-0.234824
-0.213774
-0.19494
-0.178035
-0.162762
-0.148892
-0.13571
-0.48056
-0.455992
-0.423875
-0.38282
-0.341045
-0.303255
-0.270327
-0.241842
-0.217125
-0.195561
-0.176623
-0.15993
-0.145236
-0.132149
-0.120216
-0.386165
-0.387978
-0.38853
-0.389213
-0.390284
-0.391685
-0.393356
-0.395262
-0.397434
-0.400053
-0.403498
-0.408268
-0.414685
-0.424057
-0.435578
-0.374642
-0.37526
-0.374655
-0.373831
-0.373087
-0.372503
-0.372235
-0.372601
-0.374127
-0.377639
-0.384168
-0.394832
-0.405982
-0.427321
-0.448357
-0.365431
-0.364978
-0.363404
-0.361283
-0.35898
-0.356725
-0.354851
-0.353905
-0.354513
-0.35792
-0.3651
-0.377436
-0.39304
-0.417947
-0.44149
-0.357642
-0.356454
-0.354048
-0.350625
-0.346711
-0.342728
-0.339153
-0.336651
-0.336079
-0.338621
-0.344634
-0.357227
-0.3716
-0.395564
-0.417763
-0.350731
-0.349302
-0.346167
-0.341393
-0.335702
-0.329828
-0.324448
-0.320352
-0.3184
-0.320029
-0.325236
-0.337438
-0.351114
-0.372246
-0.391084
-0.344673
-0.343526
-0.339813
-0.333781
-0.326394
-0.318768
-0.311942
-0.30699
-0.304894
-0.306749
-0.31239
-0.323265
-0.33532
-0.349783
-0.361522
-0.34016
-0.339481
-0.335456
-0.328702
-0.320384
-0.312129
-0.305194
-0.300647
-0.299074
-0.30048
-0.304754
-0.311021
-0.317428
-0.323043
-0.324012
-0.338716
-0.338292
-0.33425
-0.327639
-0.319619
-0.312038
-0.30565
-0.301
-0.2983
-0.29693
-0.296705
-0.295672
-0.293215
-0.288323
-0.280914
-0.46725
-0.504667
-0.473148
-0.366074
-0.256759
-0.194781
-0.168826
-0.209575
-0.254498
-0.226339
-0.168021
-0.151126
-0.157622
-0.191336
-0.262819
-0.302218
-0.263854
-0.187234
-0.120174
-0.0734003
-0.0404049
-0.0227371
-0.0115391
-0.00436624
-0.00144657
9.69737e-05
0.00269284
0.00176679
0.00158904
0.00200754
0.000627339
-0.000339903
2.09651e-05
-0.000170305
-0.000541411
-0.000209499
2.1358e-05
-7.84547e-06
-0.496267
-0.548644
-0.51788
-0.40251
-0.279676
-0.196695
-0.154011
-0.175622
-0.208192
-0.188359
-0.151052
-0.153807
-0.172462
-0.214836
-0.29193
-0.332653
-0.284723
-0.197827
-0.123631
-0.0727179
-0.037759
-0.0189633
-0.00804664
-0.00169418
-0.000142085
0.00075246
0.00337049
0.00188656
0.00202921
0.00248089
0.000695931
-0.000118176
0.000171279
-0.0001201
-0.000500189
-0.000159094
4.83521e-05
-3.9778e-06
-0.488133
-0.550127
-0.523378
-0.408142
-0.281625
-0.195414
-0.143209
-0.139043
-0.159899
-0.143227
-0.129401
-0.151351
-0.181459
-0.232389
-0.315248
-0.356609
-0.30278
-0.207999
-0.127505
-0.0735617
-0.0370188
-0.0173036
-0.00627539
-7.90268e-05
0.000748726
0.00125055
0.00376061
0.00197758
0.00244406
0.00285624
0.000754397
0.00017756
0.000309574
-8.28837e-05
-0.000436113
-0.00010846
6.91472e-05
4.28693e-07
-0.453984
-0.515994
-0.493275
-0.388211
-0.270375
-0.191475
-0.133356
-0.113655
-0.123846
-0.102555
-0.105487
-0.142509
-0.182631
-0.240235
-0.323851
-0.369524
-0.315486
-0.217578
-0.132181
-0.0757404
-0.0376809
-0.0171819
-0.00595023
0.000424989
0.00118601
0.00153439
0.00378158
0.00205625
0.00276161
0.00306294
0.000834193
0.000514709
0.000428506
-5.64337e-05
-0.000346959
-5.78018e-05
8.18204e-05
5.42642e-06
-0.411101
-0.458738
-0.44192
-0.355613
-0.255713
-0.18716
-0.126904
-0.100189
-0.103832
-0.0775264
-0.0813319
-0.130762
-0.176125
-0.234585
-0.328169
-0.377644
-0.328682
-0.227579
-0.137515
-0.0788037
-0.0395167
-0.0180478
-0.00648348
9.69586e-05
0.00122972
0.00154918
0.00345121
0.0020728
0.00291932
0.00308099
0.000945986
0.00083556
0.000520962
-3.6624e-05
-0.000237955
-8.45593e-06
8.56321e-05
1.09565e-05
-0.364786
-0.391072
-0.378601
-0.316835
-0.239826
-0.182428
-0.126263
-0.0938391
-0.0932111
-0.073879
-0.0684139
-0.121947
-0.167036
-0.226273
-0.317848
-0.370116
-0.32885
-0.233715
-0.142486
-0.082075
-0.0420539
-0.0195357
-0.0074744
-0.000676604
0.00100323
0.00133762
0.00291756
0.00199743
0.00289699
0.00294878
0.00107177
0.00109152
0.000584591
-2.03509e-05
-0.000120745
3.7599e-05
8.14106e-05
1.68482e-05
-0.313241
-0.32876
-0.323779
-0.284863
-0.229367
-0.178849
-0.13135
-0.0909587
-0.086643
-0.0781703
-0.0718881
-0.11401
-0.151733
-0.206109
-0.304271
-0.365424
-0.336516
-0.242526
-0.149204
-0.0868551
-0.0455002
-0.0217859
-0.00886257
-0.00170373
0.000607931
0.000984388
0.00233935
0.0018373
0.00272155
0.00274979
0.00116788
0.00125825
0.000622981
-5.43186e-06
-8.68676e-06
7.78998e-05
7.12167e-05
2.30937e-05
-0.270767
-0.279938
-0.277373
-0.254798
-0.218813
-0.181605
-0.139646
-0.0974868
-0.0889296
-0.0768229
-0.0784892
-0.116096
-0.140442
-0.185969
-0.28134
-0.339681
-0.320455
-0.245053
-0.157003
-0.0933475
-0.0502123
-0.0248395
-0.0107793
-0.00297545
7.90797e-05
0.000581811
0.0018046
0.00161644
0.00243015
0.0025239
0.00127421
0.00134721
0.00064125
8.65244e-06
9.05727e-05
0.000110664
5.6663e-05
2.96276e-05
-0.248337
-0.257412
-0.248295
-0.224249
-0.191289
-0.160494
-0.123853
-0.0910246
-0.0802783
-0.0695186
-0.0719585
-0.0605046
-0.103577
-0.148537
-0.248994
-0.315558
-0.313748
-0.23231
-0.147196
-0.0875998
-0.0483337
-0.02462
-0.0112594
-0.00368344
-0.000386076
0.000215783
0.00141148
0.00135831
0.00212611
0.00227193
0.00124355
0.00142206
0.000647035
1.18919e-05
0.00019687
0.000144809
3.56237e-05
3.57432e-05
-0.193025
-0.205838
-0.197443
-0.17579
-0.149931
-0.127945
-0.102557
-0.0813917
-0.0727196
-0.0671129
-0.0658749
-0.0902882
-0.0995589
-0.123323
-0.210439
-0.282969
-0.274218
-0.203468
-0.130371
-0.0796156
-0.0462792
-0.0248964
-0.0121738
-0.00469874
-0.00113849
-0.000285314
0.000740689
0.000948165
0.00169259
0.00185876
0.00116322
0.00132525
0.00059173
2.86839e-05
0.000269058
0.000160723
1.97903e-05
3.98341e-05
-0.157241
-0.170489
-0.165435
-0.150558
-0.130473
-0.113158
-0.094343
-0.07132
-0.0593632
-0.0549921
-0.0476018
-0.06058
-0.0769664
-0.101026
-0.16847
-0.236863
-0.232799
-0.174537
-0.113827
-0.0715783
-0.0433582
-0.0245328
-0.0128121
-0.00564256
-0.00190585
-0.000782411
0.000211469
0.000592153
0.00128412
0.00150691
0.00104861
0.00119213
0.000553369
6.36067e-05
0.000298735
0.000169567
1.74743e-05
4.06058e-05
-0.126793
-0.137195
-0.134064
-0.121501
-0.104447
-0.0886392
-0.0739209
-0.0565228
-0.0456828
-0.040255
-0.029943
-0.0272751
-0.0254568
-0.0523874
-0.115668
-0.181895
-0.176631
-0.133369
-0.0914559
-0.0612882
-0.0399335
-0.0241351
-0.0133942
-0.00652371
-0.00269087
-0.00131935
-0.000320718
0.000192891
0.000879906
0.00116417
0.000872583
0.00103827
0.000520864
9.44509e-05
0.000300004
0.000173005
2.29333e-05
3.96397e-05
-0.0990737
-0.108282
-0.107291
-0.0989296
-0.0865062
-0.0744629
-0.0631387
-0.0481227
-0.0350955
-0.0252316
-0.0084195
0.0132008
0.0264468
0.00526648
-0.0582966
-0.115931
-0.121414
-0.100483
-0.074362
-0.0520503
-0.0352028
-0.0222411
-0.0130766
-0.00692157
-0.00324384
-0.00174778
-0.000756248
-0.000165163
0.000520127
0.000842255
0.000712145
0.000889922
0.000490311
0.000129934
0.000291714
0.000173337
3.6439e-05
3.98595e-05
-0.0773359
-0.0854866
-0.0856004
-0.0795082
-0.0700659
-0.0596304
-0.0492149
-0.0365262
-0.0236275
-0.0121741
0.0059992
0.0313039
0.0480549
0.0357947
-0.0156196
-0.0621317
-0.0746166
-0.0666574
-0.0534275
-0.0411467
-0.0303049
-0.020767
-0.0130762
-0.0074377
-0.00385479
-0.00219475
-0.00114889
-0.000504497
0.000167661
0.00053475
0.000530108
0.000730076
0.000443411
0.000155067
0.000272813
0.000168591
5.22642e-05
3.97941e-05
-0.0603491
-0.0664276
-0.0668587
-0.0625408
-0.0554379
-0.0471362
-0.0386651
-0.0285437
-0.0168618
-0.00499425
0.0109146
0.0303167
0.0438558
0.0373215
0.00445833
-0.0278249
-0.0434124
-0.045462
-0.0408976
-0.0335076
-0.0257627
-0.0184051
-0.0121104
-0.0073006
-0.00411056
-0.00251009
-0.0014809
-0.000809685
-0.000144604
0.000255341
0.000371107
0.000585255
0.000391074
0.000182559
0.000261667
0.000164526
6.93868e-05
4.24068e-05
-0.0457254
-0.0506268
-0.0515704
-0.0486359
-0.043331
-0.0368573
-0.0298577
-0.0217557
-0.0121407
-0.00208799
0.00984583
0.0229012
0.032205
0.0287545
0.00974918
-0.0112761
-0.0246667
-0.0284723
-0.0273765
-0.0241817
-0.0201734
-0.0155397
-0.0109284
-0.0070099
-0.00421002
-0.00269091
-0.00169642
-0.00103673
-0.000411529
5.47423e-06
0.000212056
0.000444253
0.000326129
0.000203073
0.000253863
0.000155779
8.48019e-05
4.41951e-05
-0.0341688
-0.0382498
-0.0391324
-0.0370006
-0.0330612
-0.0282013
-0.0227929
-0.0166602
-0.00941577
-0.00165679
0.0067168
0.0150052
0.0208659
0.0192691
0.0091156
-0.00330633
-0.012747
-0.0175742
-0.0190489
-0.0182957
-0.0161682
-0.0130678
-0.00962708
-0.00650635
-0.004173
-0.00282289
-0.00189076
-0.00123456
-0.000634661
-0.000207996
6.87626e-05
0.000317029
0.000257957
0.000220705
0.000250877
0.000148644
0.000104323
5.75648e-05
-0.0251879
-0.0281787
-0.0289012
-0.0275254
-0.0247837
-0.0212894
-0.0173045
-0.0128169
-0.00762231
-0.00201277
0.00359018
0.00870029
0.0122017
0.011734
0.0066418
-0.000374194
-0.00648728
-0.0104678
-0.0122895
-0.0124669
-0.0116593
-0.0100391
-0.00785255
-0.00560855
-0.00379635
-0.00270745
-0.00193197
-0.00134859
-0.000799351
-0.000385972
-4.64966e-05
0.000226825
0.000197742
0.000229952
0.000254087
0.000137788
0.000108041
4.9179e-05
-0.017845
-0.0201454
-0.0209147
-0.0200789
-0.0181798
-0.0157159
-0.0129153
-0.00980239
-0.00627456
-0.00250115
0.00118237
0.00432642
0.00642433
0.00651666
0.00421397
0.000566045
-0.00303468
-0.00565098
-0.00740243
-0.00823513
-0.00828908
-0.00758252
-0.00625998
-0.00474397
-0.00341415
-0.00257374
-0.0019386
-0.0014039
-0.000904328
-0.000508285
-0.000128459
0.000158365
0.000161668
0.000258751
0.000278056
0.000154046
0.000146933
8.47599e-05
-0.0120187
-0.0138619
-0.0145558
-0.0141049
-0.0128603
-0.0112296
-0.00937619
-0.00733042
-0.0050389
-0.00261815
-0.000264228
0.00167542
0.00297797
0.00327029
0.00235311
0.000625838
-0.00136488
-0.00313216
-0.00440924
-0.00514645
-0.00540699
-0.00519949
-0.00454489
-0.00367887
-0.00284258
-0.00229202
-0.00185388
-0.00143981
-0.000974926
-0.000608369
-0.000210935
0.000107571
0.000105394
0.000236066
0.000276398
0.000125256
0.000111698
4.93231e-05
-0.00752309
-0.00892704
-0.00952802
-0.00934471
-0.00862034
-0.0076118
-0.00644845
-0.00517759
-0.00376012
-0.00226395
-0.000849901
0.000329819
0.00115121
0.0014758
0.00124001
0.000566796
-0.000401108
-0.00131548
-0.00211476
-0.00272302
-0.00314526
-0.00329371
-0.00308813
-0.0026981
-0.00221903
-0.00190361
-0.00163588
-0.0012995
-0.00091074
-0.000565978
-0.000147621
0.00016364
0.000172356
0.000332478
0.000361894
0.000209729
0.000205318
0.000120476
-0.00397025
-0.00505993
-0.0056035
-0.00559577
-0.00523374
-0.00466829
-0.00399408
-0.00326509
-0.00244711
-0.00159562
-0.000742762
-7.6454e-05
0.000428554
0.000732746
0.000780934
0.000625858
0.000250861
-0.000141825
-0.00060142
-0.00100369
-0.00133037
-0.00157183
-0.00165338
-0.00169248
-0.00163262
-0.00157031
-0.00148199
-0.00138078
-0.000982862
-0.000632682
-0.000215517
0.000131575
0.000115679
0.00025949
0.000325591
0.000135478
0.000103692
4.58868e-05
-0.00116948
-0.00204155
-0.00254445
-0.00268031
-0.0025401
-0.00226298
-0.00191535
-0.00154604
-0.00112697
-0.000704259
-0.000275738
7.96165e-05
0.000411889
0.000668991
0.000822365
0.000907026
0.00083243
0.000715093
0.000509316
0.000292079
4.17807e-05
-0.000240321
-0.00044308
-0.000698662
-0.000834782
-0.000939388
-0.000942139
-0.000538142
-0.000518047
-0.000302192
8.50283e-05
0.000386133
0.000358296
0.000492457
0.000522883
0.000332755
0.000284318
0.000158611
0.000990156
0.000303259
-0.000135635
-0.000333187
-0.000343625
-0.00025788
-0.000118051
2.20812e-05
0.000190864
0.000335762
0.000461133
0.000456151
0.000804688
0.00105604
0.00123281
0.00141534
0.00147524
0.00153993
0.00149012
0.00140458
0.00126004
0.000945871
0.000601821
9.11216e-05
-0.00034498
-0.000589548
-0.00071417
-0.000858244
-0.00122372
-0.000357751
7.22336e-05
0.000376641
0.000304244
0.000360849
0.000425779
0.000198756
0.00010641
4.59597e-05
0.00274477
0.00219556
0.00181094
0.00158383
0.00148653
0.00146137
0.00148257
0.00150789
0.00157489
0.00165082
0.00179787
0.00201492
0.00190423
0.00190218
0.00195686
0.00209366
0.00216004
0.00227708
0.0022803
0.0023121
0.0023005
0.00210415
0.00180103
0.00122107
0.000700164
0.000349291
0.000192849
0.000537876
0.00121443
0.00073102
0.000746974
0.000892299
0.000755835
0.000769848
0.000773854
0.00051952
0.000380431
0.000194724
0.00407166
0.00363442
0.00330345
0.00308573
0.0029558
0.00287273
0.00282675
0.00277168
0.00274611
0.00270466
0.00269561
0.00267071
0.0026545
0.00267227
0.00271128
0.00285019
0.00292095
0.00303243
0.00306564
0.00314795
0.00323887
0.00304125
0.00267477
0.00199422
0.00132648
0.000956377
0.00080053
0.000799822
0.00104922
0.000905829
0.000829818
0.000883175
0.000724791
0.00059092
0.000604129
0.000347563
0.000146039
5.71674e-05
0.0052113
0.00485169
0.00456488
0.004351
0.00419913
0.00407332
0.00397855
0.00386861
0.00378538
0.00368609
0.00361597
0.0035351
0.00349114
0.00349058
0.00350618
0.00361801
0.0036868
0.00381258
0.00389535
0.00407158
0.00426699
0.00424547
0.00393753
0.00331694
0.00267269
0.00217797
0.00194305
0.00183414
0.00177284
0.00175192
0.0015367
0.00155898
0.00130567
0.00111436
0.00109918
0.000756311
0.000473127
0.000222926
0.00623866
0.00595657
0.00570846
0.00549403
0.00532469
0.00516569
0.00502794
0.00487615
0.00474527
0.00461844
0.00451008
0.00441556
0.00431737
0.00427385
0.0042241
0.00426516
0.00431492
0.00440055
0.00450514
0.00457957
0.00463156
0.00464519
0.00448507
0.00424428
0.00390989
0.00340834
0.00310972
0.00265303
0.0023394
0.00218908
0.00163767
0.00157137
0.00129578
0.000889372
0.000894769
0.000569591
0.00023081
9.27729e-05
0.00663539
0.00640863
0.00620443
0.00602038
0.00585869
0.00570246
0.00555278
0.00540229
0.00526127
0.0051254
0.00499763
0.00487894
0.00477543
0.00470778
0.00464603
0.00459872
0.0045593
0.00453636
0.00452546
0.00451947
0.00448135
0.00443916
0.00431489
0.00411359
0.00392987
0.00364731
0.00338093
0.00308433
0.00272395
0.00262863
0.0022511
0.00203489
0.00182971
0.00146069
0.0012993
0.000976051
0.000575957
0.000239194
0.00711489
0.00693777
0.00675864
0.00658202
0.00641685
0.00625586
0.0060995
0.00593996
0.00578623
0.00564172
0.0055058
0.00537792
0.00524794
0.00513747
0.00503317
0.00495977
0.00488623
0.00483794
0.00479139
0.00474386
0.00469267
0.00459638
0.00447653
0.00426766
0.00403217
0.00374348
0.00340827
0.00312113
0.00277775
0.00252654
0.00215093
0.00186595
0.00164491
0.00124911
0.00106293
0.000777785
0.000381038
0.000130733
0.00724898
0.00708796
0.00692388
0.00675847
0.0065953
0.00643418
0.00627537
0.00611772
0.0059615
0.00580962
0.00566278
0.00552529
0.00539182
0.00527114
0.00515255
0.00505235
0.00495775
0.00487506
0.00480123
0.00472079
0.00464394
0.00453059
0.00440619
0.00423539
0.00402142
0.00381042
0.00351392
0.00326388
0.0029253
0.00270731
0.00241641
0.00209135
0.00189663
0.00152412
0.00126171
0.00099009
0.00055117
0.000193405
-0.105613
-0.118347
-0.131575
-0.145167
-0.160732
-0.176017
-0.195239
-0.216944
-0.0897931
-0.099527
-0.109509
-0.120307
-0.131575
-0.14306
-0.154428
-0.168817
-0.0744552
-0.0812698
-0.0880443
-0.0957524
-0.103703
-0.11205
-0.121424
-0.134414
-0.0619264
-0.0667848
-0.0716597
-0.0773853
-0.0838171
-0.0909774
-0.0997861
-0.11036
-0.0508234
-0.054377
-0.0580593
-0.0625432
-0.0678375
-0.0734002
-0.0794128
-0.0866735
-0.0414337
-0.0439557
-0.0466475
-0.0498292
-0.0534205
-0.0569806
-0.0611239
-0.0671177
-0.0332338
-0.0348896
-0.0366207
-0.038652
-0.0410572
-0.0438137
-0.0475665
-0.0526663
-0.0260616
-0.0270678
-0.0281239
-0.0295505
-0.0315654
-0.0340374
-0.0368236
-0.0402644
-0.0198749
-0.0205273
-0.0212865
-0.0224168
-0.023874
-0.025379
-0.0270813
-0.0297253
-0.0146808
-0.0151083
-0.0155633
-0.0161943
-0.017
-0.0180169
-0.0195022
-0.0217827
-0.0101502
-0.0103882
-0.0106132
-0.011005
-0.011658
-0.0125834
-0.0137714
-0.0154087
-0.0063519
-0.00654129
-0.00672084
-0.00702161
-0.00748954
-0.00809244
-0.00888217
-0.0101106
-0.00321117
-0.00337646
-0.00350652
-0.00368741
-0.00397407
-0.00440174
-0.00504267
-0.00604456
-0.000602786
-0.000755289
-0.000872507
-0.00101773
-0.00124767
-0.00159351
-0.00209706
-0.0028579
0.00152574
0.00136332
0.00123324
0.00109991
0.000922055
0.000665989
0.000284282
-0.000303492
0.00321216
0.0030506
0.00291485
0.00278704
0.002636
0.00242879
0.00212305
0.00166233
0.00462012
0.00445142
0.00430536
0.00417669
0.00404171
0.00387076
0.0036268
0.00326815
0.00570368
0.005536
0.00538426
0.00525092
0.00512167
0.00497161
0.00476973
0.00448388
0.00668092
0.00650437
0.00634314
0.0062045
0.00607695
0.00594149
0.00577119
0.00554283
0.00739281
0.00722651
0.00707496
0.00694958
0.00684001
0.00673691
0.0066174
0.00646784
0.00776716
0.00762735
0.00748568
0.00735219
0.00722513
0.00710173
0.00697133
0.00682884
0.00804321
0.00791144
0.00777813
0.00765347
0.00754152
0.00744125
0.00734637
0.00724892
0.00815156
0.00804176
0.00792516
0.00780751
0.00769357
0.00758507
0.00748099
0.00737859
0.0519788
0.0551301
0.0578492
0.059422
0.0591959
0.0570731
0.0529138
0.0461579
0.0357999
0.02041
-0.00195642
-0.0339744
-0.0799653
-0.143215
-0.198467
0.0292812
0.0302198
0.0293141
0.0268366
0.0227405
0.0167316
0.00829715
-0.00336105
-0.0193542
-0.0411852
-0.0709057
-0.111182
-0.166017
-0.239771
-0.297244
0.00697094
0.00545496
0.000923793
-0.00519805
-0.0126917
-0.0221563
-0.0344011
-0.050351
-0.0711628
-0.0984028
-0.134246
-0.181355
-0.242958
-0.323089
-0.378639
-0.01564
-0.0199443
-0.0273513
-0.0361212
-0.0462799
-0.0586721
-0.074183
-0.0937234
-0.118426
-0.149841
-0.190394
-0.24247
-0.308848
-0.388863
-0.440774
-0.0386729
-0.0456193
-0.0549072
-0.0653818
-0.0775371
-0.0922898
-0.110397
-0.132692
-0.160253
-0.19451
-0.238047
-0.293205
-0.360637
-0.436654
-0.482828
-0.0612784
-0.0703561
-0.0808128
-0.0925336
-0.106244
-0.122779
-0.142729
-0.166854
-0.196227
-0.232234
-0.276922
-0.332146
-0.397548
-0.466325
-0.505503
-0.0829605
-0.0930828
-0.104358
-0.117196
-0.132258
-0.150061
-0.171142
-0.196226
-0.226285
-0.262533
-0.3065
-0.359335
-0.419622
-0.478113
-0.510866
-0.102783
-0.113588
-0.1257
-0.139543
-0.155569
-0.174172
-0.195785
-0.221026
-0.250729
-0.285866
-0.32748
-0.375814
-0.427868
-0.473645
-0.501665
0.185745
0.200361
0.216658
0.235049
0.255573
0.278108
0.30255
0.328849
0.356922
0.386509
0.417025
0.447316
0.475416
0.497447
0.515581
0.182356
0.196032
0.211441
0.229036
0.248735
0.270276
0.293498
0.318346
0.344729
0.372347
0.400539
0.428056
0.452801
0.47098
0.485358
0.174905
0.186852
0.20077
0.217052
0.235357
0.255203
0.276322
0.298618
0.32196
0.345981
0.369912
0.392361
0.410995
0.422178
0.43002
0.163397
0.17307
0.185058
0.199508
0.215756
0.233145
0.251341
0.270184
0.289442
0.308596
0.32669
0.342131
0.352258
0.353465
0.352651
0.147916
0.155074
0.165071
0.177535
0.191263
0.205442
0.219785
0.234172
0.2483
0.261473
0.272489
0.279489
0.279453
0.268601
0.256922
0.128807
0.132997
0.140866
0.151252
0.162293
0.173005
0.183108
0.192476
0.200727
0.207015
0.209933
0.207364
0.195921
0.171672
0.147468
0.106554
0.108445
0.114357
0.122044
0.129605
0.136271
0.141814
0.145967
0.148112
0.147188
0.141581
0.128943
0.105568
0.0675575
0.0307399
0.0806922
0.0816382
0.0866457
0.0916393
0.095296
0.0974126
0.0979823
0.0966168
0.0924535
0.0842018
0.0700392
0.0473805
0.0121966
-0.0391244
-0.0869879
0.0221449
0.0268495
0.0228793
0.0272272
0.0245489
0.0291633
0.0273606
0.0318043
0.0315173
0.0358687
0.0370799
0.0419965
0.0447002
0.0506043
0.055512
0.0630579
0.0706628
0.0810633
0.0924765
0.106658
0.122811
0.142616
0.165308
0.0221853
0.0268027
0.022932
0.027193
0.0245828
0.0291525
0.0274011
0.0318134
0.03158
0.0358986
0.0371703
0.0420438
0.0447926
0.0507118
0.0556623
0.0632927
0.0710696
0.0811912
0.0923441
0.10644
0.122074
0.141437
0.163071
0.0222363
0.0267296
0.023003
0.0271304
0.0246469
0.0291278
0.027468
0.0317919
0.0316728
0.0358895
0.0373365
0.0420666
0.0449121
0.0507616
0.0557162
0.0632829
0.0709284
0.08099
0.0916936
0.105431
0.120126
0.138529
0.158071
0.0222967
0.026633
0.0230946
0.0270418
0.0247408
0.0290489
0.0275551
0.0317484
0.0317854
0.0358553
0.0375385
0.042062
0.0450799
0.0508872
0.0557605
0.0636316
0.0708977
0.0808315
0.0907894
0.103957
0.117113
0.133868
0.150123
0.022365
0.0265165
0.0231805
0.0269312
0.0248544
0.0289472
0.0276592
0.031676
0.0319106
0.0358025
0.0376323
0.0419917
0.0451666
0.0508228
0.0557233
0.0630501
0.0702001
0.0797372
0.0889796
0.101179
0.112532
0.127067
0.138966
0.0224359
0.026384
0.0232738
0.0268046
0.0249758
0.0288464
0.0277807
0.0316195
0.0320395
0.0357814
0.0377291
0.0420285
0.0454738
0.0511531
0.0561185
0.0632644
0.0699928
0.0794263
0.0874552
0.0985622
0.107203
0.118738
0.125162
0.0225096
0.0262399
0.0233727
0.026671
0.0250952
0.0287176
0.0278958
0.0315137
0.0321604
0.0357095
0.037884
0.0419242
0.0454319
0.0508369
0.0555491
0.062173
0.0686561
0.077173
0.0843936
0.0936718
0.100137
0.107787
0.108496
0.02258
0.0260906
0.0234648
0.0265336
0.0252435
0.0286312
0.0280418
0.0315099
0.0323155
0.035783
0.0381084
0.0422668
0.0459568
0.0514303
0.0562226
0.0633434
0.0688153
0.0771972
0.0824214
0.0902008
0.0923896
0.0956227
0.088428
0.0226659
0.025887
0.0235905
0.0263214
0.0253565
0.028382
0.0281159
0.0312686
0.0323904
0.035682
0.0381135
0.0418646
0.0454704
0.050336
0.0547597
0.0605758
0.0655359
0.0716112
0.0757548
0.0795494
0.0791705
0.075176
0.0627958
0.0227784
0.0256027
0.0237426
0.0260197
0.0254876
0.0280526
0.028166
0.0308233
0.032229
0.0348067
0.0374711
0.0406561
0.0441681
0.0482373
0.0522584
0.0566726
0.0606831
0.0641599
0.0665219
0.0663686
0.0637138
0.056318
0.0459723
0.0229151
0.0252487
0.0239215
0.0256531
0.0256353
0.0276322
0.028189
0.0302984
0.0320093
0.0341247
0.0368535
0.0394577
0.0427319
0.0459825
0.0493561
0.0523562
0.0551728
0.0565784
0.056962
0.0546201
0.0501717
0.0425086
0.0328174
0.0230797
0.0248157
0.0241259
0.0252505
0.0257507
0.0272342
0.028133
0.029773
0.0316632
0.033342
0.0359433
0.0380747
0.0409149
0.0434087
0.0459989
0.0477834
0.0493094
0.0492082
0.0479032
0.0444175
0.0389202
0.0312116
0.022126
0.0232753
0.024312
0.0242805
0.0249186
0.0257784
0.026851
0.0279612
0.0292239
0.0311542
0.0325002
0.0347994
0.0365644
0.0388108
0.0406188
0.0423358
0.0430499
0.0433819
0.0421874
0.039688
0.0355749
0.029789
0.0223357
0.0136796
0.0234806
0.0238254
0.0243377
0.02462
0.0257282
0.0264714
0.027675
0.0286443
0.0304803
0.0315689
0.0334318
0.0348644
0.0364479
0.0375822
0.0384782
0.0382831
0.0376381
0.0356857
0.0325313
0.0281553
0.0224956
0.0155264
0.00749157
0.0236623
0.0233668
0.0243053
0.0243464
0.0255895
0.026095
0.0272533
0.028014
0.0296414
0.0305189
0.0318841
0.0329664
0.0339168
0.0344169
0.0345761
0.0336777
0.0323075
0.029894
0.0264997
0.0221262
0.0167993
0.0104693
0.00322042
0.0237913
0.0229574
0.024174
0.0240898
0.0253472
0.0257062
0.0266987
0.0273147
0.0286648
0.0293374
0.030194
0.0308815
0.0312975
0.0312358
0.0307719
0.0293899
0.0275674
0.0249214
0.0215325
0.0173661
0.0125154
0.00693891
0.000612907
0.0238474
0.022616
0.0239304
0.0238372
0.0250027
0.0252892
0.0260244
0.0265245
0.0275799
0.0280224
0.0284015
0.0287065
0.028678
0.0281628
0.027206
0.0255259
0.0234819
0.0208044
0.0175838
0.0137738
0.00948929
0.00470177
-0.000666669
0.0238117
0.022351
0.0235713
0.0235701
0.0245753
0.0248146
0.0252484
0.0256295
0.0264146
0.0265987
0.0265516
0.0265029
0.0261401
0.0252993
0.0239938
0.0221536
0.0200685
0.0175231
0.0145802
0.0112041
0.00751371
0.00349756
-0.000953585
0.0236754
0.0221569
0.0231063
0.0232603
0.0240964
0.0242669
0.0243875
0.0246326
0.0251993
0.0251147
0.0246907
0.0243443
0.0237593
0.0227227
0.021201
0.0193081
0.0173095
0.0150148
0.0124212
0.00949922
0.00637673
0.00306902
-0.000550537
0.0234271
0.0220281
0.0225644
0.0228625
0.0235968
0.0236434
0.0234571
0.0235479
0.0239547
0.0236378
0.0228859
0.0222948
0.0215947
0.0204774
0.0188549
0.0169857
0.0151505
0.013175
0.0109656
0.00847966
0.00586336
0.00317167
0.000275448
0.0230843
0.0219127
0.022011
0.0223442
0.0230726
0.0229789
0.0224886
0.0224132
0.0226994
0.0222167
0.0211972
0.0203972
0.0196663
0.0185772
0.0169645
0.0151729
0.0135304
0.0118859
0.0100604
0.00797941
0.00580125
0.00362459
0.0013339
0.0226497
0.021753
0.0214807
0.0217404
0.0224685
0.0222741
0.0215244
0.0212719
0.0214572
0.0208831
0.0196865
0.0187419
0.0180017
0.0170062
0.0154916
0.0138196
0.012365
0.011015
0.00953694
0.00782395
0.00602903
0.00427823
0.00247757
0.0221521
0.0215131
0.0209913
0.0211053
0.0217899
0.0215268
0.0205859
0.020174
0.0202618
0.0196481
0.0183654
0.0173197
0.016618
0.0157474
0.0143844
0.012871
0.0115936
0.0104847
0.00929591
0.0079038
0.0064423
0.005042
0.00363345
0.021623
0.0211819
0.0205282
0.0204846
0.0210555
0.0207462
0.0196939
0.0191501
0.0191502
0.018533
0.0172373
0.016149
0.0154747
0.0147298
0.0135536
0.012221
0.0111021
0.0101766
0.00922062
0.00811274
0.00695532
0.00585271
0.00474656
0.0210634
0.0207741
0.0200874
0.0198944
0.0203166
0.0199572
0.0188715
0.018238
0.0181513
0.0175424
0.0162904
0.0152232
0.0145879
0.0139566
0.0129785
0.0118351
0.0108513
0.0100518
0.00926934
0.00840146
0.00751085
0.00666083
0.00580345
0.0205371
0.0203042
0.0196145
0.019349
0.0195878
0.019177
0.0181247
0.0174509
0.0172843
0.0166971
0.0155474
0.0145442
0.0139427
0.0133979
0.0125836
0.0116131
0.0107475
0.010041
0.00939807
0.00872884
0.00805555
0.00739748
0.00671734
0.019997
0.0198172
0.0191833
0.0188575
0.018909
0.0184647
0.0174903
0.0167907
0.0165631
0.0160224
0.0149728
0.0140272
0.0134605
0.0129981
0.0123621
0.011548
0.0107754
0.010145
0.00963051
0.00914723
0.00866265
0.00815876
0.0076136
0.0195031
0.0193529
0.0188069
0.0183835
0.018261
0.0178652
0.0169748
0.0162056
0.0159398
0.0155427
0.0146437
0.0137193
0.0131244
0.0127553
0.0123053
0.0116471
0.0109382
0.0103426
0.00990975
0.00956207
0.00921004
0.00880643
0.00833952
0.0190805
0.0189417
0.0184641
0.0179814
0.0177437
0.0173793
0.0165544
0.0157366
0.0154131
0.0151124
0.0143756
0.0134753
0.0128044
0.0124375
0.0121332
0.011648
0.0110316
0.0104452
0.010013
0.009724
0.00949069
0.00923163
0.0089087
0.0187659
0.0186216
0.0181742
0.0176946
0.0173912
0.0169924
0.0162384
0.0154332
0.015022
0.0147708
0.0142436
0.0134428
0.0127003
0.0122497
0.0119869
0.0116689
0.0111901
0.0106348
0.0101535
0.00982571
0.00961946
0.00944933
0.00924315
0.0185866
0.0184451
0.0180364
0.0175182
0.0171271
0.0167647
0.0161237
0.0152946
0.0147551
0.0144877
0.0141359
0.0134893
0.0127315
0.0121429
0.0118118
0.0115739
0.0112388
0.0107795
0.0103061
0.0099351
0.00970513
0.00956787
0.00944645
0.0468361
0.0269305
0.00375874
-0.0166243
-0.0361652
-0.0554381
-0.0741826
-0.0910287
0.0348576
0.0166155
-0.00621496
-0.0256876
-0.0410669
-0.0546803
-0.0678277
-0.0793563
0.024006
0.00964073
-0.00990889
-0.026547
-0.0378239
-0.0472588
-0.0570194
-0.0664271
0.0144619
0.00297022
-0.0132219
-0.0272206
-0.0360752
-0.0429281
-0.0497306
-0.0562177
0.00636547
-0.00265608
-0.0147671
-0.0251397
-0.0318104
-0.0368556
-0.0417274
-0.0465372
0.000478738
-0.00688791
-0.0151903
-0.022325
-0.0273848
-0.0313572
-0.0349918
-0.0384036
-0.00323687
-0.00912756
-0.0145843
-0.0192191
-0.022887
-0.0259755
-0.0287257
-0.0311623
-0.00508677
-0.00969474
-0.0131551
-0.016013
-0.0185539
-0.0208936
-0.022968
-0.024698
-0.00552988
-0.00907058
-0.0111743
-0.0128207
-0.014494
-0.0162014
-0.0177381
-0.018967
-0.00499608
-0.00768309
-0.00889203
-0.0097411
-0.0107831
-0.0119988
-0.0131429
-0.0140471
-0.0038362
-0.00585329
-0.00649285
-0.00683448
-0.00742395
-0.00824917
-0.0090753
-0.00972625
-0.00233973
-0.00383502
-0.00412526
-0.00416144
-0.00443992
-0.00496825
-0.00555219
-0.0060319
-0.000708051
-0.00180088
-0.00189023
-0.00176292
-0.00184473
-0.00216468
-0.00257707
-0.00294623
0.000901027
0.000110133
0.000129085
0.000329263
0.000363582
0.00018665
-9.80304e-05
-0.00038047
0.00243282
0.00186813
0.00193656
0.00215279
0.00224295
0.00215607
0.00195799
0.00173072
0.00381224
0.00339117
0.00346704
0.00366237
0.00376318
0.00372102
0.00357882
0.00339587
0.00508915
0.00477593
0.00483706
0.00499248
0.00508185
0.00506277
0.00495533
0.00479701
0.00614728
0.00589469
0.00593001
0.00604242
0.00611052
0.00609495
0.00600642
0.00586831
0.0071602
0.00696147
0.00698287
0.00706373
0.00710897
0.00708529
0.00699464
0.00685292
0.00795245
0.00777082
0.0077576
0.00780031
0.00782135
0.00778861
0.00769614
0.00755859
0.00859698
0.00838299
0.00825388
0.00818387
0.008136
0.00808129
0.00800202
0.00789598
0.00901839
0.0088279
0.00865969
0.00852765
0.0084287
0.00834695
0.00826269
0.00816264
0.00930154
0.00913251
0.00892724
0.00873181
0.0085711
0.00844703
0.00834619
0.0082517
-0.511617
-0.51989
-0.531892
-0.548597
-0.570549
-0.596406
-0.621776
-0.640476
-0.508267
-0.515303