/*--------------------------------*- C++ -*----------------------------------*\
| =========                 |                                                 |
| \\      /  F ield         | OpenFOAM: The Open Source CFD Toolbox           |
|  \\    /   O peration     | Version:  2312                                  |
|   \\  /    A nd           | Website:  www.openfoam.com                      |
|    \\/     M anipulation  |                                                 |
\*---------------------------------------------------------------------------*/
FoamFile
{
    version     2.0;
    format      ascii;
    arch        "LSB;label=32;scalar=64";
    class       volVectorField;
    location    "39.5";
    object      U;
}
// * * * * * * * * * * * * * * * * * * * * * * * * * * * * * * * * * * * * * //

dimensions      [0 1 -1 0 0 0 0];

internalField   nonuniform List<vector> 
2300
(
(-0.0531725 0.0356596 0)
(-0.0644789 0.0487055 1.34598e-19)
(0.0163875 0.0449434 -7.32903e-20)
(0.198366 0.0492801 -2.96122e-20)
(0.443353 0.0656238 0)
(0.668636 0.0884501 -3.74959e-20)
(0.89311 0.123403 1.51941e-19)
(1.04311 0.14208 -2.65404e-20)
(1.1609 0.17293 7.37045e-20)
(1.25358 0.16947 -9.03983e-20)
(-0.0647566 0.0287916 5.72006e-20)
(-0.0118045 0.0250375 -4.53725e-20)
(0.229678 0.044297 7.27907e-20)
(0.553649 0.0896018 2.72277e-20)
(0.839478 0.139042 4.31597e-20)
(1.05854 0.185811 -1.13333e-19)
(1.18435 0.20889 -1.97151e-21)
(1.24232 0.222613 -1.97868e-21)
(1.24758 0.21402 0)
(1.21773 0.195082 1.56574e-20)
(-0.0563873 0.0124914 5.96359e-20)
(0.163583 0.017955 -2.04267e-21)
(0.58824 0.104533 -1.12161e-19)
(0.929694 0.185803 6.07427e-20)
(1.1344 0.239245 -4.35437e-20)
(1.21231 0.256607 1.0278e-19)
(1.21365 0.250251 -8.31242e-20)
(1.17571 0.229194 -6.00196e-20)
(1.141 0.204217 3.25135e-20)
(1.11902 0.188942 6.96262e-20)
(0.00950523 -0.00722453 1.61901e-20)
(0.49078 0.0871139 -4.88876e-20)
(0.925488 0.216357 4.01926e-20)
(1.13748 0.281666 0)
(1.18804 0.291015 1.02782e-20)
(1.17242 0.27561 3.0465e-20)
(1.14931 0.253582 -2.54307e-20)
(1.14643 0.240977 3.45109e-20)
(1.15826 0.229152 -2.79475e-21)
(1.1761 0.228035 -5.29775e-20)
(0.161963 0.0216109 1.70886e-20)
(0.796936 0.222856 0)
(1.09229 0.320491 0)
(1.16376 0.333308 0)
(1.16451 0.318827 -1.03086e-20)
(1.16032 0.302602 0)
(1.15803 0.289099 0)
(1.14681 0.271411 -7.31767e-21)
(1.13267 0.250455 6.13761e-21)
(1.10082 0.234234 -4.11615e-21)
(-0.0163724 -0.0259979 1.27249e-20)
(-0.0614925 -0.0418101 0)
(-0.11945 -0.0500358 0)
(-0.167181 -0.0567529 0)
(-0.207771 -0.0602694 -1.25483e-20)
(-0.241243 -0.0583322 0)
(-0.269796 -0.0480405 0)
(-0.287559 -0.0318602 1.56118e-20)
(-0.302764 -0.00238809 -1.30924e-20)
(-0.303462 0.0318875 1.10637e-20)
(-0.0162696 0.0164907 -3.81458e-20)
(-0.051059 0.0236425 4.25972e-20)
(-0.0926142 0.016823 -3.5047e-20)
(-0.124481 0.00549703 0)
(-0.14888 -0.00384376 1.25143e-20)
(-0.161514 -0.0121418 -4.13626e-20)
(-0.178745 -0.00567005 3.45211e-20)
(-0.164144 -0.0140555 -5.63605e-20)
(-0.171072 0.0216955 4.72632e-20)
(-0.126034 0.0255598 1.97033e-20)
(-0.0199751 0.0365188 -5.1834e-20)
(-0.045577 0.0609903 -2.27388e-22)
(-0.0665646 0.0601313 1.06047e-19)
(-0.0740965 0.048305 -5.85047e-20)
(-0.0808092 0.0356742 4.8509e-20)
(-0.0496505 0.0229 -1.20788e-19)
(-0.0633512 0.0252104 3.3471e-20)
(0.0294656 0.00994329 2.68443e-20)
(0.0220574 0.0251227 -4.42958e-20)
(0.166225 0.0374433 -3.24303e-20)
(-0.0268163 0.0402877 -5.26975e-20)
(-0.0507324 0.0715357 -4.36289e-20)
(-0.0582884 0.0745192 -7.10266e-20)
(-0.0407872 0.0672477 2.92389e-20)
(-0.0168375 0.0453725 -4.73897e-20)
(0.078246 0.0472599 4.0815e-20)
(0.100062 0.0229721 9.40779e-22)
(0.331706 0.035694 3.89763e-22)
(0.281457 0.0244862 8.27198e-20)
(0.602277 0.0597177 -5.29389e-20)
(-0.0381834 0.0379109 0)
(-0.0643068 0.0641453 4.37367e-20)
(-0.051897 0.0645159 7.15889e-20)
(0.0119483 0.059375 -8.85319e-20)
(0.129588 0.0405561 0)
(0.30738 0.0491804 1.16925e-19)
(0.43321 0.0429436 -9.46136e-20)
(0.696427 0.0680953 7.80037e-20)
(0.739061 0.0743793 -8.04418e-20)
(1.0307 0.115594 3.40782e-20)
(-0.313272 0.0789141 -7.8387e-21)
(-0.323962 0.143549 0)
(-0.329954 0.225264 2.0023e-22)
(-0.3198 0.293978 0)
(-0.291599 0.341864 2.00759e-22)
(-0.234403 0.3132 0)
(-0.136721 0.1971 6.84076e-21)
(0.000262181 -0.0532011 -6.36317e-21)
(0.129607 -0.381898 0)
(0.209114 -0.682748 -2.35643e-22)
(-0.0240284 -0.732148 0)
(0.243068 -0.26489 2.03683e-21)
(0.499361 0.260705 -2.51783e-22)
(0.705516 0.416151 -1.21394e-21)
(0.719512 0.414868 -9.07926e-23)
(0.607726 0.337919 4.3388e-23)
(0.692584 0.146051 0)
(0.821577 -0.0564257 0)
(0.877464 -0.14625 0)
(0.882447 -0.176401 0)
(0.87894 -0.154049 0)
(0.890971 -0.135923 -6.27928e-24)
(0.921455 -0.097307 5.87178e-24)
(0.952399 -0.0853009 -7.99287e-24)
(0.972136 -0.0605164 0)
(-0.127162 0.0741107 -2.61501e-20)
(-0.136272 0.143961 2.56511e-20)
(-0.122062 0.210541 -2.40431e-20)
(-0.0909741 0.256853 2.68059e-20)
(-0.0321429 0.284673 4.15825e-21)
(0.0702626 0.238778 -5.85945e-20)
(0.177966 0.106233 2.91062e-20)
(0.329833 -0.141948 0)
(0.452465 -0.437598 7.95424e-22)
(0.54004 -0.61634 2.3983e-22)
(0.263987 -0.691429 0)
(0.155005 -0.424134 -1.89417e-22)
(0.448048 0.106225 -1.70829e-22)
(0.636964 0.34684 2.42115e-21)
(0.564328 0.432714 -2.74108e-21)
(0.55278 0.331626 4.95366e-22)
(0.734163 0.104515 -7.13272e-22)
(0.873267 -0.0860894 3.0416e-23)
(0.919127 -0.156683 1.39061e-22)
(0.921927 -0.17609 4.29606e-22)
(0.912083 -0.152648 -1.07908e-22)
(0.907957 -0.137832 0)
(0.920669 -0.102528 0)
(0.940964 -0.0905819 -4.3181e-25)
(0.967889 -0.0629521 -3.97817e-24)
(0.145652 0.0543054 9.93085e-20)
(0.149823 0.100523 2.46826e-21)
(0.161085 0.15723 -4.54593e-20)
(0.207438 0.204331 0)
(0.263688 0.224824 -5.91929e-20)
(0.376041 0.187152 5.50374e-20)
(0.478423 0.0821759 0)
(0.624302 -0.14993 0)
(0.695477 -0.453356 -8.27613e-22)
(0.738227 -0.57862 0)
(0.624281 -0.552799 -3.01004e-22)
(0.239447 -0.444174 0)
(0.29291 -0.0201624 -2.54526e-21)
(0.396818 0.333232 1.86152e-22)
(0.380939 0.447409 7.58243e-22)
(0.555261 0.295612 1.31466e-21)
(0.805663 0.0587179 1.50005e-22)
(0.934304 -0.10772 1.57706e-22)
(0.953705 -0.161919 0)
(0.9404 -0.176557 6.08225e-23)
(0.930299 -0.152995 5.18234e-24)
(0.928727 -0.139113 0)
(0.935737 -0.105235 5.72473e-24)
(0.945273 -0.0946393 2.17979e-23)
(0.967631 -0.0657095 3.96666e-24)
(0.532804 0.0633231 4.04999e-22)
(0.497203 0.087107 0)
(0.475138 0.117721 0)
(0.499797 0.137491 -5.37437e-20)
(0.541784 0.143937 5.05711e-20)
(0.643561 0.102857 0)
(0.730691 0.00389735 4.7494e-22)
(0.860242 -0.176735 -9.69658e-22)
(0.965761 -0.42716 0)
(0.873415 -0.593425 2.18261e-20)
(0.821276 -0.476683 -1.99056e-20)
(0.517624 -0.321042 0)
(0.239857 -0.0557057 1.45081e-22)
(0.24901 0.286602 0)
(0.331913 0.383622 2.55188e-21)
(0.639791 0.214406 -2.41969e-21)
(0.896929 0.00762959 -1.69768e-21)
(0.991729 -0.120586 2.36487e-21)
(0.98561 -0.156991 -1.05601e-21)
(0.954629 -0.170535 0)
(0.93567 -0.151698 1.33352e-22)
(0.93396 -0.14084 -1.61593e-22)
(0.944344 -0.107665 -9.12316e-23)
(0.954742 -0.0974283 1.96028e-23)
(0.973304 -0.0676329 0)
(0.986906 0.108641 5.81239e-20)
(0.948362 0.113025 -5.38195e-20)
(0.899273 0.120944 0)
(0.883344 0.128171 -4.10407e-22)
(0.877245 0.125824 -4.41968e-22)
(0.92757 0.0959261 -6.2069e-20)
(1.00067 0.0329451 5.68494e-20)
(1.08757 -0.14268 -5.99194e-20)
(1.21369 -0.330093 1.02469e-19)
(1.11016 -0.479989 -4.26055e-20)
(0.891949 -0.485892 -6.23226e-21)
(0.732499 -0.303855 5.75109e-21)
(0.36244 -0.0351608 -4.43553e-21)
(0.24413 0.244727 4.1233e-21)
(0.422932 0.326194 -1.63797e-22)
(0.780292 0.156328 -9.25299e-23)
(0.991837 -0.019809 -3.00938e-21)
(1.03681 -0.122015 1.76514e-21)
(1.00784 -0.150311 1.09986e-21)
(0.970563 -0.164848 -4.70776e-22)
(0.946613 -0.150312 4.72751e-22)
(0.938983 -0.142884 7.35963e-23)
(0.946712 -0.111031 -5.44278e-23)
(0.95727 -0.1009 -2.25699e-23)
(0.976343 -0.0696205 0)
(1.23569 0.160242 0)
(1.22976 0.150864 0)
(1.20695 0.143115 0)
(1.20028 0.131361 0)
(1.20033 0.112717 0)
(1.22386 0.0524117 0)
(1.26147 -0.0015065 0)
(1.30688 -0.139151 0)
(1.28447 -0.28999 0)
(1.17768 -0.336409 0)
(0.966421 -0.319302 0)
(0.869084 -0.199086 0)
(0.64679 0.0190502 0)
(0.522831 0.195503 0)
(0.70876 0.21978 0)
(0.96867 0.0795214 0)
(1.07344 -0.0382244 0)
(1.06743 -0.109042 0)
(1.02418 -0.133159 0)
(0.98523 -0.15281 0)
(0.961 -0.144564 0)
(0.950813 -0.141424 0)
(0.953835 -0.112375 0)
(0.960829 -0.103304 0)
(0.978214 -0.071421 0)
(1.21479 0.155075 0)
(1.23249 0.143398 0)
(1.24713 0.130627 0)
(1.25685 0.11829 0)
(1.2799 0.0967989 0)
(1.30604 0.0462156 0)
(1.31697 -0.0141538 0)
(1.33947 -0.130805 0)
(1.2648 -0.222677 0)
(1.13484 -0.288542 0)
(0.97323 -0.319671 0)
(0.862408 -0.18312 0)
(0.788949 0.079347 0)
(0.799561 0.202849 0)
(0.964812 0.165778 0)
(1.09966 0.0402928 0)
(1.11822 -0.0485169 0)
(1.07872 -0.105734 0)
(1.03022 -0.127606 0)
(0.993072 -0.148613 0)
(0.970894 -0.142291 0)
(0.961656 -0.140927 0)
(0.963342 -0.113038 0)
(0.968113 -0.105006 0)
(0.982111 -0.072783 0)
(1.18758 0.140631 0)
(1.20737 0.126478 0)
(1.22645 0.112145 0)
(1.23689 0.0932087 0)
(1.25752 0.0723121 0)
(1.27109 0.0259237 0)
(1.28157 -0.0251402 0)
(1.27718 -0.100085 0)
(1.21617 -0.182308 0)
(1.14341 -0.204343 0)
(1.03492 -0.184967 0)
(0.902406 -0.112257 0)
(0.870684 0.0595268 0)
(0.960035 0.151447 0)
(1.08678 0.116945 0)
(1.14188 0.0257384 0)
(1.12469 -0.035788 0)
(1.08302 -0.0836399 0)
(1.04108 -0.108149 0)
(1.00549 -0.135635 0)
(0.981385 -0.135851 0)
(0.970102 -0.139029 0)
(0.970795 -0.113558 0)
(0.9751 -0.106724 0)
(0.986882 -0.0741425 0)
(1.17209 0.12657 0)
(1.19044 0.112798 0)
(1.20623 0.0963482 0)
(1.21555 0.0765355 0)
(1.22558 0.0548979 0)
(1.23653 0.0183578 0)
(1.23574 -0.0175926 0)
(1.22842 -0.0761277 0)
(1.19068 -0.120042 0)
(1.11591 -0.150393 0)
(1.04103 -0.162043 0)
(0.959304 -0.101606 0)
(0.939942 0.0299792 0)
(1.02053 0.0983125 0)
(1.10855 0.0838544 0)
(1.13546 0.0220759 0)
(1.11767 -0.0276253 0)
(1.08369 -0.0756681 0)
(1.04666 -0.102752 0)
(1.01266 -0.131394 0)
(0.988402 -0.133539 0)
(0.976057 -0.138855 0)
(0.975605 -0.115077 0)
(0.979609 -0.109033 0)
(0.990652 -0.0758102 0)
(1.15832 0.11096 0)
(1.1744 0.0973751 0)
(1.18779 0.0829348 0)
(1.1946 0.0632964 0)
(1.20073 0.044713 0)
(1.20397 0.0158394 0)
(1.20083 -0.014183 0)
(1.19262 -0.0506734 0)
(1.16374 -0.0876097 0)
(1.1225 -0.105561 0)
(1.07537 -0.0956154 0)
(1.01398 -0.0587371 0)
(0.994387 0.0225174 0)
(1.04391 0.068788 0)
(1.10087 0.0644269 0)
(1.12016 0.0214072 0)
(1.1101 -0.0156402 0)
(1.08458 -0.0565455 0)
(1.05292 -0.081909 0)
(1.02299 -0.113685 0)
(1.00056 -0.121949 0)
(0.987839 -0.133032 0)
(0.984585 -0.113191 0)
(0.986271 -0.109386 0)
(0.99511 -0.0765444 0)
(1.14404 0.0939561 0)
(1.15782 0.0820795 0)
(1.16866 0.0696901 0)
(1.17465 0.0528724 0)
(1.17798 0.037231 0)
(1.17929 0.0143352 0)
(1.17603 -0.0062419 0)
(1.16761 -0.0333878 0)
(1.14997 -0.0548841 0)
(1.11949 -0.0678967 0)
(1.08504 -0.0681308 0)
(1.04724 -0.0478624 0)
(1.03377 0.00539807 0)
(1.06098 0.0379569 0)
(1.0976 0.0423335 0)
(1.11198 0.0154538 0)
(1.10493 -0.0106411 0)
(1.08458 -0.0477742 0)
(1.05848 -0.0749359 0)
(1.03277 -0.110385 0)
(1.01213 -0.121903 0)
(1.00025 -0.134977 0)
(0.995735 -0.116256 0)
(0.996271 -0.113026 0)
(1.00191 -0.0792665 0)
(1.13164 0.0810517 0)
(1.14275 0.071029 0)
(1.15152 0.0609035 0)
(1.15615 0.0472546 0)
(1.15844 0.0344603 0)
(1.15833 0.0175607 0)
(1.15554 0.0019818 0)
(1.14921 -0.0166064 0)
(1.1379 -0.0306745 0)
(1.11906 -0.0411612 0)
(1.09953 -0.0380665 0)
(1.07663 -0.0253704 0)
(1.06486 0.00760871 0)
(1.07604 0.0285141 0)
(1.09693 0.0350925 0)
(1.10576 0.0175033 0)
(1.10139 -9.50727e-05 0)
(1.08718 -0.0323996 0)
(1.06729 -0.057608 0)
(1.04481 -0.0928629 0)
(1.02445 -0.107463 0)
(1.01127 -0.125 0)
(1.00508 -0.110906 0)
(1.00487 -0.110408 0)
(1.00828 -0.0778645 0)
(1.12327 0.0655522 0)
(1.13197 0.0571923 0)
(1.13906 0.0491122 0)
(1.14288 0.0380216 0)
(1.14495 0.0281123 0)
(1.14469 0.0151167 0)
(1.14322 0.00424473 0)
(1.13846 -0.00899874 0)
(1.13163 -0.0178467 0)
(1.12012 -0.0254479 0)
(1.10809 -0.0235473 0)
(1.09404 -0.018756 0)
(1.08613 0.000603982 0)
(1.08993 0.0131652 0)
(1.10166 0.0212559 0)
(1.10719 0.010762 0)
(1.10358 7.09339e-05 0)
(1.09214 -0.026556 0)
(1.07465 -0.049671 0)
(1.05484 -0.0865432 0)
(1.03577 -0.104785 0)
(1.02397 -0.125721 0)
(1.0161 -0.113497 0)
(1.01516 -0.114461 0)
(1.01626 -0.0818196 0)
(1.11741 0.0594436 0)
(1.12395 0.0527537 0)
(1.12956 0.0465662 0)
(1.13234 0.037958 0)
(1.13413 0.0305869 0)
(1.13371 0.0208319 0)
(1.13324 0.013395 0)
(1.13037 0.00377722 0)
(1.12732 -0.00145575 0)
(1.12098 -0.00727072 0)
(1.11495 -0.00571815 0)
(1.10739 -0.0034489 0)
(1.10317 0.00875651 0)
(1.10312 0.0161543 0)
(1.10813 0.0244051 0)
(1.11003 0.0180104 0)
(1.10721 0.0120715 0)
(1.09852 -0.0101765 0)
(1.08524 -0.0320003 0)
(1.0687 -0.0688071 0)
(1.0511 -0.0898752 0)
(1.03886 -0.114174 0)
(1.02949 -0.106386 0)
(1.02776 -0.109204 0)
(1.02556 -0.0771954 0)
(1.11782 0.0415838 0)
(1.12289 0.0360926 0)
(1.1276 0.0312753 0)
(1.13 0.0244556 0)
(1.132 0.0189839 0)
(1.13191 0.011517 0)
(1.13229 0.00641833 0)
(1.13048 -0.000762978 0)
(1.12916 -0.00404188 0)
(1.12548 -0.00873618 0)
(1.12266 -0.00755318 0)
(1.11841 -0.00703831 0)
(1.11639 0.000963298 0)
(1.11588 0.00478425 0)
(1.1185 0.0125979 0)
(1.11975 0.00940631 0)
(1.11765 0.00718798 0)
(1.11109 -0.0109328 0)
(1.09882 -0.0293867 0)
(1.08415 -0.0645968 0)
(1.06586 -0.087117 0)
(1.05437 -0.114374 0)
(1.04265 -0.10908 0)
(1.04088 -0.114181 0)
(1.03578 -0.083147 0)
(1.12012 0.0450926 0)
(1.12365 0.0408445 0)
(1.12758 0.0372331 0)
(1.12937 0.0319729 0)
(1.1315 0.0278927 0)
(1.1315 0.022083 0)
(1.13266 0.0183783 0)
(1.13183 0.0127872 0)
(1.13249 0.0105652 0)
(1.13114 0.00683787 0)
(1.13131 0.00778885 0)
(1.12991 0.0074531 0)
(1.13023 0.013424 0)
(1.1298 0.0157037 0)
(1.13127 0.0231057 0)
(1.13127 0.022219 0)
(1.12987 0.0229357 0)
(1.12475 0.00986285 0)
(1.11546 -0.0049542 0)
(1.10252 -0.0379526 0)
(1.08535 -0.0631918 0)
(1.07343 -0.0939143 0)
(1.06018 -0.0941692 0)
(1.05786 -0.101424 0)
(1.0493 -0.0716422 0)
(1.13194 0.0196865 0)
(1.1346 0.0163529 0)
(1.13785 0.0136133 0)
(1.1392 0.00956152 0)
(1.14124 0.00659159 0)
(1.14129 0.00220257 0)
(1.14263 -0.000328848 0)
(1.14206 -0.00441144 0)
(1.14294 -0.0057954 0)
(1.14202 -0.00842827 0)
(1.14252 -0.00741567 0)
(1.14178 -0.00767965 0)
(1.14284 -0.00261931 0)
(1.14352 -0.000733549 0)
(1.14554 0.00641895 0)
(1.14748 0.00754248 0)
(1.14795 0.0106784 0)
(1.14694 0.00143582 0)
(1.13972 -0.0107756 0)
(1.12953 -0.0412468 0)
(1.11011 -0.0668923 0)
(1.09729 -0.0999204 0)
(1.07907 -0.102628 0)
(1.07579 -0.11127 0)
(1.06205 -0.0816001 0)
(1.15843 0.0353188 0)
(1.15994 0.0328415 0)
(1.16285 0.0306612 0)
(1.16382 0.0275431 0)
(1.16616 0.0251347 0)
(1.16625 0.0215868 0)
(1.16806 0.019342 0)
(1.16777 0.0157686 0)
(1.16941 0.0141983 0)
(1.16933 0.0113472 0)
(1.17109 0.0116277 0)
(1.17144 0.0103077 0)
(1.17369 0.0137553 0)
(1.17491 0.0148169 0)
(1.17772 0.0205102 0)
(1.17966 0.0226713 0)
(1.18171 0.0269325 0)
(1.18227 0.0229548 0)
(1.17749 0.0185485 0)
(1.16812 -0.00140682 0)
(1.14792 -0.0241548 0)
(1.13311 -0.0582584 0)
(1.1107 -0.0692608 0)
(1.10588 -0.0820053 0)
(1.08519 -0.0568715 0)
(1.18385 -0.00213065 0)
(1.18497 -0.00342813 0)
(1.18751 -0.00473931 0)
(1.18808 -0.00650262 0)
(1.19022 -0.00806308 0)
(1.19008 -0.0101278 0)
(1.19168 -0.011701 0)
(1.19107 -0.0137307 0)
(1.19219 -0.014862 0)
(1.1915 -0.0165129 0)
(1.19234 -0.0160709 0)
(1.19202 -0.0168252 0)
(1.19334 -0.0137082 0)
(1.19448 -0.0123478 0)
(1.19701 -0.00684468 0)
(1.20101 -0.00327887 0)
(1.20443 0.00172068 0)
(1.20936 0.00310768 0)
(1.21071 0.0041372 0)
(1.21129 -0.0103334 0)
(1.1939 -0.0327591 0)
(1.17719 -0.0687657 0)
(1.14524 -0.0833798 0)
(1.13411 -0.0954503 0)
(1.10132 -0.0690055 0)
(1.30139 0.0248703 0)
(1.30219 0.0241779 0)
(1.30458 0.0235955 0)
(1.30516 0.0227247 0)
(1.3075 0.0219095 0)
(1.30757 0.0210086 0)
(1.30953 0.0198508 0)
(1.30877 0.0188081 0)
(1.31013 0.0174468 0)
(1.30864 0.0156483 0)
(1.30919 0.0151787 0)
(1.30764 0.0122889 0)
(1.30689 0.0125828 0)
(1.30637 0.0114428 0)
(1.30603 0.0106606 0)
(1.30742 0.0125684 0)
(1.30976 0.0162352 0)
(1.31565 0.0155505 0)
(1.31873 0.0184228 0)
(1.32832 0.0250904 0)
(1.32601 0.0281069 0)
(1.3227 0.0094086 0)
(1.27644 -0.0114077 0)
(1.24416 -0.0287867 0)
(1.16482 -0.0180502 0)
(1.07984 0.199803 3.39255e-22)
(1.1623 0.213517 2.78232e-20)
(1.14286 0.185445 -6.76679e-20)
(1.15965 0.186544 -3.0808e-22)
(1.23463 0.178493 0)
(1.0997 0.191284 2.33856e-21)
(1.12091 0.191313 -1.14808e-20)
(1.15811 0.181161 2.80435e-20)
(1.13859 0.168385 2.92726e-20)
(1.18923 0.172203 -3.70121e-20)
(1.11442 0.172044 0)
(1.10545 0.159743 2.64639e-22)
(1.14523 0.16307 1.76523e-20)
(1.13987 0.146338 -2.59801e-20)
(1.16125 0.154314 4.99777e-21)
(1.10894 0.156736 8.34837e-23)
(1.10843 0.140872 5.48475e-21)
(1.12778 0.147141 -1.55463e-20)
(1.13958 0.131401 1.58122e-20)
(1.14944 0.138948 2.36166e-20)
(1.10246 0.136959 0)
(1.11002 0.121901 -4.69008e-21)
(1.11741 0.128332 3.41146e-22)
(1.13186 0.114586 -2.54231e-20)
(1.13932 0.121222 0)
(1.10006 0.11909 -6.88547e-22)
(1.10799 0.105856 2.93345e-22)
(1.11159 0.110132 3.02482e-23)
(1.12287 0.0984399 9.87214e-21)
(1.12883 0.102397 -3.19619e-22)
(1.0988 0.103319 9.29571e-22)
(1.10537 0.0925905 0)
(1.10732 0.0948664 2.17581e-21)
(1.11589 0.0858266 0)
(1.11986 0.0877837 -6.59763e-21)
(1.09917 0.0863406 -6.07672e-22)
(1.10474 0.0783444 1.17593e-21)
(1.10556 0.0781009 -1.8961e-21)
(1.11224 0.0713602 0)
(1.11436 0.0710026 5.68605e-21)
(1.10003 0.0767497 2.21865e-22)
(1.10464 0.0707767 -1.1383e-21)
(1.1045 0.0696293 -6.98715e-22)
(1.10972 0.0645401 1.62555e-22)
(1.11055 0.0637848 -2.73006e-21)
(1.10533 0.0572909 0)
(1.10926 0.0529611 0)
(1.10855 0.0508246 1.09544e-21)
(1.11278 0.046967 0)
(1.11248 0.0451287 3.54802e-21)
(1.11198 0.0576814 0)
(1.1154 0.0544379 -3.51637e-23)
(1.11419 0.0523522 -1.51382e-22)
(1.11737 0.0494333 1.25029e-22)
(1.11612 0.0478065 -1.15865e-21)
(1.12548 0.0298278 0)
(1.12878 0.0274705 5.82602e-24)
(1.12715 0.0255544 -1.31162e-22)
(1.13038 0.0233642 -1.36769e-22)
(1.12849 0.0218118 -1.39256e-24)
(1.15441 0.0436543 -6.45719e-23)
(1.15766 0.0420644 1.31471e-22)
(1.15596 0.0402761 2.41472e-22)
(1.15853 0.0386661 -8.97688e-25)
(1.15597 0.0370425 -2.51705e-23)
(1.17798 0.00161963 7.11769e-23)
(1.18158 0.000525222 -9.91087e-24)
(1.18038 9.7485e-05 -2.47648e-22)
(1.18341 -0.000952665 9.5053e-23)
(1.18128 -0.00110558 -7.35164e-23)
(1.29477 0.0275655 0)
(1.29802 0.0273648 0)
(1.29762 0.0266369 -5.75319e-23)
(1.30035 0.0263075 0)
(1.29914 0.0253144 0)
(0.957456 0.261338 1.55425e-20)
(0.933202 0.27637 -1.85001e-20)
(0.903575 0.299173 1.10334e-20)
(0.894432 0.335483 -2.21881e-20)
(0.894219 0.381425 1.66056e-20)
(0.8877 0.429913 0)
(0.871688 0.490067 0)
(0.864405 0.567569 -1.32568e-20)
(0.843398 0.645074 -4.43165e-21)
(0.588979 0.54745 0)
(0.964719 0.256687 8.99024e-24)
(0.977781 0.285967 0)
(0.974511 0.313333 -1.62612e-21)
(0.968093 0.345332 -6.5163e-21)
(0.96202 0.383857 -1.04854e-20)
(0.96194 0.429875 2.76045e-22)
(0.967144 0.487191 -8.66749e-21)
(0.980046 0.559998 2.47291e-20)
(0.963443 0.60832 2.0486e-20)
(0.651666 0.471794 -5.40931e-20)
(1.02078 0.25988 -7.72049e-21)
(1.01063 0.280645 5.71001e-21)
(1.00526 0.30445 -5.18421e-21)
(1.01157 0.337694 -1.23427e-20)
(1.02781 0.377898 3.19417e-20)
(1.04063 0.418009 -1.56495e-20)
(1.05026 0.462427 3.60112e-20)
(1.06567 0.519448 -7.35882e-20)
(1.03315 0.537407 -1.21997e-20)
(0.646405 0.36326 5.92243e-20)
(1.04441 0.25468 -1.20663e-21)
(1.06857 0.277345 -2.34295e-21)
(1.07256 0.301324 1.52645e-20)
(1.07342 0.326469 -1.36472e-20)
(1.07659 0.354316 1.63502e-20)
(1.09066 0.388383 -7.64921e-21)
(1.11502 0.426933 0)
(1.13078 0.466041 3.67469e-20)
(1.04488 0.446239 -4.4669e-20)
(0.561854 0.242845 -1.78913e-20)
(1.09739 0.250204 5.71806e-21)
(1.08838 0.259819 4.78644e-21)
(1.08694 0.279526 -5.7069e-21)
(1.09956 0.304707 0)
(1.12596 0.334498 0)
(1.14846 0.359647 7.66502e-21)
(1.15977 0.381781 0)
(1.13656 0.393723 0)
(0.967182 0.341439 0)
(0.381962 0.120252 -1.79228e-20)
(0.798538 0.0863393 -1.33081e-22)
(0.769519 0.0885441 9.61666e-21)
(0.73294 0.0916206 -1.14675e-20)
(0.689965 0.0954491 0)
(0.635057 0.100393 0)
(0.571383 0.106937 -1.40931e-20)
(0.488103 0.116081 0)
(0.392568 0.128213 0)
(0.253708 0.147813 0)
(0.092697 0.132922 2.08471e-20)
(0.808407 0.128652 1.89913e-20)
(0.782582 0.137101 -3.56465e-20)
(0.74896 0.148678 4.25072e-20)
(0.709701 0.163209 -3.17167e-20)
(0.660427 0.181414 3.80019e-20)
(0.602941 0.203798 1.40566e-20)
(0.527406 0.233567 0)
(0.440769 0.270632 4.87484e-20)
(0.313271 0.326177 -5.92341e-20)
(0.144622 0.300101 -5.90607e-20)
(0.828799 0.173351 -2.14836e-20)
(0.808877 0.187022 3.08234e-20)
(0.777722 0.204327 -5.39737e-20)
(0.739278 0.22603 -7.64954e-20)
(0.69608 0.254911 9.99332e-20)
(0.650597 0.29059 -4.26161e-20)
(0.588941 0.337106 5.99278e-20)
(0.521413 0.394419 -1.10116e-19)
(0.416088 0.478598 4.25796e-22)
(0.234961 0.441041 5.50409e-20)
(0.855186 0.204377 2.80411e-20)
(0.845737 0.225818 -4.56123e-20)
(0.828539 0.251842 1.72302e-20)
(0.796735 0.27875 6.05825e-21)
(0.753419 0.312068 -7.4459e-20)
(0.715856 0.356219 3.04856e-20)
(0.671978 0.414966 -6.50621e-22)
(0.625722 0.48511 4.97063e-20)
(0.549977 0.58427 -1.74358e-20)
(0.353806 0.536323 -2.56103e-20)
(0.889421 0.230293 -2.71591e-20)
(0.868916 0.247732 3.23234e-20)
(0.858744 0.280966 -2.18376e-20)
(0.854285 0.319508 7.00903e-20)
(0.830697 0.358243 -1.14903e-20)
(0.798337 0.403185 0)
(0.766744 0.466891 2.00718e-20)
(0.745001 0.545636 -2.42867e-20)
(0.69998 0.640965 1.74755e-20)
(0.480528 0.573287 0)
(0.978941 0.153972 2.79067e-22)
(0.981579 0.150778 1.69015e-22)
(0.981953 0.126305 9.69424e-23)
(0.975428 0.117258 -1.09806e-22)
(0.97435 0.0932057 1.35165e-22)
(0.965562 0.0886842 0)
(0.963184 0.0749041 0)
(0.953349 0.0740201 -1.52549e-22)
(0.944975 0.0705098 8.50444e-22)
(0.931507 0.0715393 -2.10524e-21)
(0.916886 0.0734122 -2.2057e-22)
(0.898206 0.0745224 3.74822e-21)
(0.877821 0.0784971 -2.15216e-21)
(0.853275 0.079779 2.00476e-22)
(0.826952 0.0848932 -4.72661e-21)
(0.979662 0.156117 -5.50393e-22)
(0.976476 0.147481 -1.89463e-22)
(0.983288 0.129848 8.1076e-22)
(0.976683 0.114504 -2.05716e-22)
(0.977607 0.0985709 4.95982e-22)
(0.967546 0.0869262 -5.18475e-22)
(0.964005 0.0822093 -2.38342e-22)
(0.952761 0.0749582 1.5482e-22)
(0.943427 0.0806622 -2.0304e-22)
(0.930115 0.0767407 -4.8843e-21)
(0.915885 0.0876671 5.26856e-21)
(0.89847 0.0865809 7.81582e-21)
(0.879655 0.100692 -1.99187e-20)
(0.857062 0.103727 -1.90442e-21)
(0.833002 0.12242 -1.61959e-21)
(0.980195 0.158233 2.88445e-22)
(0.975079 0.14493 0)
(0.982767 0.131558 -3.91831e-22)
(0.978522 0.111722 -2.78828e-22)
(0.980107 0.102431 0)
(0.969337 0.0856042 -2.06362e-22)
(0.964624 0.0886789 2.45244e-22)
(0.952741 0.077106 0)
(0.941942 0.0913382 -7.58713e-21)
(0.929141 0.0843075 8.99078e-21)
(0.914313 0.104143 0)
(0.89927 0.102759 2.42134e-22)
(0.882228 0.126957 0)
(0.864739 0.131885 -2.67377e-20)
(0.845113 0.162844 6.36724e-20)
(0.980782 0.160261 0)
(0.974352 0.142125 5.6652e-23)
(0.983604 0.133632 4.89789e-22)
(0.980251 0.108028 0)
(0.98022 0.106406 1.46761e-21)
(0.97423 0.0842161 -1.45829e-21)
(0.962146 0.0943373 0)
(0.957799 0.0778837 -3.58069e-22)
(0.939039 0.0984103 6.7607e-22)
(0.934568 0.0868655 9.65619e-21)
(0.914724 0.113038 -1.14247e-20)
(0.90751 0.11014 -1.62718e-20)
(0.889171 0.142876 -1.78675e-21)
(0.878695 0.149298 2.34579e-20)
(0.864778 0.192163 2.02035e-22)
(0.982457 0.162283 0)
(0.97294 0.139464 -4.84742e-22)
(0.984812 0.133535 0)
(0.982203 0.105413 0)
(0.981476 0.107717 0)
(0.973956 0.0851552 -2.43081e-22)
(0.966428 0.0996373 0)
(0.953658 0.0836469 3.8389e-22)
(0.944756 0.108148 8.23009e-21)
(0.928928 0.0990158 -9.79123e-21)
(0.92426 0.13065 -1.36098e-20)
(0.906573 0.129069 1.56905e-20)
(0.907363 0.169959 1.98823e-20)
(0.891362 0.172833 -4.55412e-20)
(0.899991 0.228335 2.58227e-20)
(0.982833 0.163597 0)
(0.976239 0.137916 0)
(0.980616 0.134342 0)
(0.988295 0.102701 0)
(0.979745 0.110498 0)
(0.979502 0.0822769 0)
(0.965812 0.103117 0)
(0.964174 0.0817129 0)
(0.943157 0.11035 0)
(0.946539 0.0967848 0)
(0.923965 0.134 0)
(0.934242 0.126547 0)
(0.912772 0.17413 0)
(0.934328 0.171282 0)
(0.919947 0.228524 0)
(0.979695 0.164673 0)
(0.983711 0.136989 0)
(0.977384 0.135073 0)
(0.992048 0.100524 0)
(0.97914 0.113528 0)
(0.985662 0.0826961 0)
(0.963209 0.106736 0)
(0.975018 0.0856701 0)
(0.944515 0.114836 0)
(0.958683 0.102198 0)
(0.934511 0.136882 0)
(0.947965 0.1314 0)
(0.935718 0.170388 0)
(0.949976 0.170431 0)
(0.952806 0.20773 0)
(0.978211 0.165947 0)
(0.982506 0.13491 0)
(0.984878 0.136866 0)
(0.986664 0.0978985 0)
(0.986082 0.116638 0)
(0.986354 0.0838746 0)
(0.970655 0.109899 0)
(0.9759 0.0899439 0)
(0.958722 0.118715 0)
(0.961562 0.105882 0)
(0.955084 0.139324 0)
(0.956676 0.131637 0)
(0.960801 0.166634 0)
(0.96423 0.161603 0)
(0.976663 0.192668 0)
(0.982683 0.167945 0)
(0.974075 0.131173 0)
(0.991476 0.138954 0)
(0.983465 0.0951702 0)
(0.991154 0.118369 0)
(0.990111 0.0857677 0)
(0.981048 0.112522 0)
(0.980955 0.093664 0)
(0.973256 0.121703 0)
(0.973152 0.107826 0)
(0.970873 0.139263 0)
(0.975208 0.129107 0)
(0.977599 0.159589 0)
(0.987156 0.151268 0)
(0.992455 0.17707 0)
(0.98577 0.170568 0)
(0.974844 0.127581 0)
(0.98778 0.139898 0)
(0.989031 0.0931318 0)
(0.989236 0.117323 0)
(0.996914 0.0879527 0)
(0.987007 0.11393 0)
(0.991746 0.0964571 0)
(0.984891 0.122643 0)
(0.99075 0.109544 0)
(0.986125 0.136189 0)
(0.996607 0.125957 0)
(0.994995 0.149709 0)
(1.00926 0.141016 0)
(1.01007 0.160292 0)
(0.983269 0.172038 0)
(0.984679 0.125877 0)
(0.982684 0.138632 0)
(0.996453 0.0928935 0)
(0.986658 0.114312 0)
(1.00051 0.0896242 0)
(0.990587 0.113104 0)
(1.0007 0.0976812 0)
(0.995233 0.120431 0)
(1.00575 0.109897 0)
(1.00252 0.130085 0)
(1.01489 0.121608 0)
(1.01389 0.138087 0)
(1.02772 0.130432 0)
(1.0287 0.143447 0)
(0.979274 0.172503 0)
(0.993618 0.124682 0)
(0.982681 0.136326 0)
(1.00193 0.0936555 0)
(0.988477 0.111268 0)
(1.00323 0.0901375 0)
(0.995711 0.110176 0)
(1.00842 0.0966994 0)
(1.00515 0.115376 0)
(1.01771 0.107137 0)
(1.01703 0.121915 0)
(1.02932 0.11504 0)
(1.03012 0.126406 0)
(1.04227 0.119817 0)
(1.04411 0.128644 0)
(0.977312 0.170735 0)
(0.998252 0.124956 0)
(0.986291 0.13219 0)
(1.00629 0.0958758 0)
(0.994691 0.107111 0)
(1.00875 0.0903727 0)
(1.00423 0.103942 0)
(1.01769 0.0936187 0)
(1.01617 0.105995 0)
(1.02903 0.100146 0)
(1.03 0.109305 0)
(1.04168 0.104224 0)
(1.04353 0.110843 0)
(1.05442 0.10578 0)
(1.05689 0.110719 0)
(0.977431 0.168243 0)
(1.00052 0.124122 0)
(0.991059 0.127162 0)
(1.01058 0.0969182 0)
(1.00307 0.10426 0)
(1.01679 0.0907264 0)
(1.01457 0.100208 0)
(1.02798 0.0918067 0)
(1.02784 0.100391 0)
(1.0401 0.0953573 0)
(1.04151 0.101745 0)
(1.05228 0.0971313 0)
(1.0541 0.101605 0)
(1.06378 0.0970208 0)
(1.06578 0.100356 0)
(0.977684 0.164446 0)
(1.00299 0.122917 0)
(0.997244 0.117911 0)
(1.01758 0.0926383 0)
(1.01402 0.0932362 0)
(1.02859 0.0819669 0)
(1.02793 0.0857315 0)
(1.04141 0.0790703 0)
(1.04226 0.0829659 0)
(1.05404 0.0789313 0)
(1.05536 0.0818674 0)
(1.06542 0.0782053 0)
(1.06695 0.0799758 0)
(1.076 0.0764038 0)
(1.07767 0.0775951 0)
(0.978843 0.159232 0)
(1.00415 0.12274 0)
(1.00306 0.114884 0)
(1.02332 0.09566 0)
(1.02389 0.0943686 0)
(1.03897 0.0855289 0)
(1.04033 0.0869509 0)
(1.05375 0.0817059 0)
(1.05593 0.0835056 0)
(1.06714 0.0800566 0)
(1.06859 0.0814936 0)
(1.07761 0.0783206 0)
(1.07883 0.0790269 0)
(1.08685 0.075883 0)
(1.08813 0.0762569 0)
(0.97891 0.148775 0)
(1.01208 0.106957 0)
(1.01504 0.0918004 0)
(1.03807 0.0726854 0)
(1.03968 0.0672327 0)
(1.05612 0.0585765 0)
(1.05757 0.0572672 0)
(1.07167 0.0527047 0)
(1.07376 0.0524789 0)
(1.08531 0.0495392 0)
(1.08617 0.0496367 0)
(1.09504 0.0472147 0)
(1.09547 0.0471024 0)
(1.10325 0.0447529 0)
(1.10378 0.044538 0)
(0.979714 0.14591 0)
(1.02227 0.112766 0)
(1.03378 0.0988386 0)
(1.05949 0.0845057 0)
(1.06525 0.0773051 0)
(1.08331 0.0710233 0)
(1.08714 0.0678872 0)
(1.10165 0.0650184 0)
(1.10501 0.0631963 0)
(1.11655 0.0612497 0)
(1.11814 0.0600885 0)
(1.12651 0.0585005 0)
(1.1271 0.0575606 0)
(1.13403 0.0559767 0)
(1.13453 0.0551207 0)
(0.981462 0.0970952 0)
(1.0387 0.0582528 0)
(1.05429 0.0426568 0)
(1.08033 0.0275743 0)
(1.08693 0.0211537 0)
(1.10531 0.0157166 0)
(1.11002 0.013872 0)
(1.12454 0.0121691 0)
(1.12825 0.0117683 0)
(1.13967 0.0107247 0)
(1.14168 0.0106687 0)
(1.15 0.00968211 0)
(1.15075 0.0097934 0)
(1.15732 0.00869226 0)
(1.1576 0.00877858 0)
(0.982335 0.105847 0)
(1.13324 0.0787319 0)
(1.15705 0.0610095 0)
(1.19155 0.0518854 0)
(1.20193 0.0431903 0)
(1.22388 0.0405001 0)
(1.23028 0.0360655 0)
(1.24475 0.0353365 0)
(1.24916 0.0327585 0)
(1.25931 0.0326945 0)
(1.26201 0.0312255 0)
(1.26904 0.0311513 0)
(1.27042 0.0301657 0)
(1.27573 0.0300941 0)
(1.27644 0.0293272 0)
(0.958459 0.229094 0)
(0.963921 0.213674 4.9222e-25)
(1.03943 0.224374 8.8251e-21)
(1.02848 0.211017 -5.74713e-21)
(1.11093 0.224761 -2.13611e-22)
(0.966222 0.207495 -7.24889e-21)
(0.996137 0.205142 9.61053e-22)
(1.04104 0.213229 -4.13829e-21)
(1.0512 0.201623 4.75753e-21)
(1.09455 0.209682 -1.80494e-21)
(0.981671 0.186757 2.01196e-21)
(1.02001 0.190437 -8.44001e-22)
(1.03761 0.182772 -4.29262e-21)
(1.07538 0.180583 -4.05754e-21)
(1.08061 0.173858 0)
(1.00513 0.168809 3.67064e-21)
(1.03197 0.174243 -6.3437e-22)
(1.04886 0.162767 3.59832e-21)
(1.08093 0.166282 -3.01529e-21)
(1.0839 0.152691 5.70416e-23)
(1.0256 0.15207 0)
(1.04218 0.155499 1.43976e-21)
(1.06183 0.144356 5.71397e-23)
(1.08078 0.146973 2.64879e-21)
(1.09122 0.132707 0)
(1.0432 0.13599 -9.069e-24)
(1.05572 0.137299 -8.71873e-22)
(1.07253 0.128039 -4.48136e-23)
(1.08362 0.129182 1.58678e-22)
(1.09471 0.116675 4.498e-22)
(1.0564 0.121902 -9.91657e-23)
(1.06648 0.121258 0)
(1.07915 0.113281 -8.10432e-22)
(1.08634 0.112878 1.11852e-21)
(1.09549 0.10255 -7.94996e-22)
(1.06789 0.105303 8.54414e-23)
(1.07621 0.103306 4.77232e-22)
(1.08571 0.0969412 7.06234e-22)
(1.09023 0.0951958 -1.65788e-21)
(1.09727 0.0874179 5.16199e-22)
(1.07528 0.0954274 4.18186e-24)
(1.08209 0.0925379 -4.17738e-22)
(1.08985 0.0871062 2.54209e-22)
(1.09309 0.0846026 5.50002e-22)