/*--------------------------------*- C++ -*----------------------------------*\
| =========                 |                                                 |
| \\      /  F ield         | OpenFOAM: The Open Source CFD Toolbox           |
|  \\    /   O peration     | Version:  2312                                  |
|   \\  /    A nd           | Website:  www.openfoam.com                      |
|    \\/     M anipulation  |                                                 |
\*---------------------------------------------------------------------------*/
FoamFile
{
    version     2.0;
    format      ascii;
    arch        "LSB;label=32;scalar=64";
    class       volVectorField;
    location    "35.5";
    object      U;
}
// * * * * * * * * * * * * * * * * * * * * * * * * * * * * * * * * * * * * * //

dimensions      [0 1 -1 0 0 0 0];

internalField   nonuniform List<vector> 
32230
(
(-0.00830163 0.00754442 4.60035e-20)
(-0.0225999 0.0208885 -9.27907e-20)
(-0.0335873 0.0324764 0)
(-0.040388 0.0424335 -1.264e-19)
(-0.0425596 0.0508546 4.0268e-20)
(-0.0398833 0.0578066 -3.82576e-20)
(-0.0322601 0.063378 7.25393e-20)
(-0.0196476 0.0676965 -3.33989e-22)
(-0.00200807 0.0709367 3.26494e-20)
(0.020731 0.0733187 -1.25546e-19)
(0.0486991 0.0750986 -5.97819e-20)
(0.0820882 0.0765562 0)
(0.121137 0.0779761 1.09227e-19)
(0.166092 0.0796295 -2.09185e-19)
(0.217151 0.0817534 1.50636e-19)
(0.274388 0.0845384 -1.92965e-19)
(0.337688 0.0881123 -4.70063e-20)
(0.406683 0.0925266 8.92079e-20)
(0.480708 0.0977484 8.69337e-20)
(0.558783 0.10366 -8.31847e-20)
(0.639636 0.110061 0)
(0.721744 0.116683 -7.86811e-20)
(0.803415 0.123203 3.77774e-20)
(0.882878 0.12927 0)
(0.958391 0.134524 0)
(1.02835 0.138634 -3.36699e-20)
(1.09138 0.141307 -1.31967e-19)
(1.14643 0.142337 1.26368e-19)
(1.19286 0.141561 5.96468e-20)
(1.23044 0.139014 5.70823e-20)
(1.25937 0.134552 0)
(1.28028 0.128783 0)
(1.29402 0.120646 1.01225e-19)
(1.30186 0.113286 -1.43964e-19)
(1.30471 0.0998394 9.10683e-20)
(1.30363 0.0953544 -1.73142e-19)
(1.29983 0.0685664 8.25395e-20)
(-0.00919865 0.00754245 8.9272e-23)
(-0.0240291 0.0196833 4.63816e-20)
(-0.0347379 0.0292496 -4.41002e-20)
(-0.0405245 0.0368544 1.57577e-22)
(-0.0409788 0.0429051 8.04778e-20)
(-0.0358661 0.0476774 1.52899e-19)
(-0.0250081 0.0514134 -1.82033e-19)
(-0.00823729 0.0543491 6.94088e-20)
(0.0146365 0.0567332 6.43435e-23)
(0.0438433 0.0588348 6.26666e-20)
(0.0796469 0.0609397 -6.78174e-23)
(0.122312 0.0633362 5.70435e-20)
(0.172052 0.0662963 -1.63468e-19)
(0.228954 0.0700563 5.19751e-20)
(0.292895 0.0747911 1.9987e-19)
(0.363466 0.0805966 0)
(0.439915 0.0874731 4.62826e-20)
(0.521127 0.0953168 0)
(0.605639 0.10392 0)
(0.691701 0.112982 0)
(0.777372 0.122128 -4.04949e-20)
(0.860639 0.130938 1.54068e-19)
(0.939548 0.138979 -1.47921e-19)
(1.01234 0.145841 -4.5208e-22)
(1.07755 0.151167 2.41034e-19)
(1.13413 0.154691 -1.31373e-19)
(1.18149 0.156241 -1.274e-19)
(1.21953 0.155776 2.44008e-19)
(1.24863 0.153333 -2.33694e-19)
(1.26957 0.149112 1.08921e-19)
(1.28342 0.143256 -1.06643e-19)
(1.29145 0.136174 -4.94598e-20)
(1.29497 0.127875 0)
(1.29507 0.119128 1.37601e-19)
(1.29285 0.108973 -1.72478e-19)
(1.2887 0.101083 1.21648e-19)
(1.28431 0.08773 -3.73976e-20)
(-0.010295 0.00769699 -9.25116e-20)
(-0.0256216 0.0189394 0)
(-0.0356069 0.0268582 -1.3316e-19)
(-0.039617 0.0325154 1.27162e-19)
(-0.0373055 0.036621 1.61189e-19)
(-0.0284192 0.0396633 -7.67737e-20)
(-0.0126951 0.042045 -1.50161e-22)
(0.0101588 0.0441194 3.44292e-20)
(0.0404648 0.0462188 -2.08892e-22)
(0.0785518 0.0486667 -6.29486e-20)
(0.124704 0.051774 1.57062e-23)
(0.179084 0.0558224 5.71324e-20)
(0.241639 0.0610426 -5.46241e-20)
(0.312004 0.0675874 5.21903e-20)
(0.389424 0.0755065 -1.99604e-19)
(0.472712 0.0847289 0)
(0.560256 0.0950559 1.38117e-19)
(0.650087 0.106167 -8.81981e-20)
(0.739986 0.117639 -4.29289e-20)
(0.82764 0.12898 4.09035e-20)
(0.910806 0.139671 -5.11541e-22)
(0.987475 0.149211 0)
(1.05602 0.157159 7.21445e-22)
(1.1153 0.163176 7.0033e-20)
(1.16473 0.16705 -1.34151e-19)
(1.2043 0.168707 9.8017e-22)
(1.23451 0.168204 0)
(1.25631 0.165726 0)
(1.27093 0.161511 5.72095e-20)
(1.27978 0.155931 -5.45761e-20)
(1.28421 0.149157 -1.01161e-19)
(1.28551 0.141839 1.4633e-19)
(1.2846 0.133476 0)
(1.28225 0.125911 4.22609e-20)
(1.27889 0.116164 4.11821e-20)
(1.27464 0.110761 -3.28774e-21)
(1.27059 0.0984427 -7.14247e-20)
(-0.0114595 0.00787882 4.63447e-20)
(-0.0270421 0.0183911 4.70112e-20)
(-0.0356689 0.0249945 0)
(-0.0369421 0.029133 -8.49686e-20)
(-0.0305914 0.0317846 4.08048e-20)
(-0.0163553 0.0336408 2.25029e-22)
(0.00610274 0.035263 3.65555e-20)
(0.0371635 0.0371211 3.47534e-20)
(0.0772023 0.0396271 6.62652e-20)
(0.12651 0.0431478 -6.31876e-20)
(0.185189 0.0479961 -6.01801e-20)
(0.25303 0.0544088 0)
(0.329404 0.0625175 -1.91396e-22)
(0.413179 0.0723207 5.22459e-20)
(0.502697 0.0836648 4.98906e-20)
(0.595825 0.0962397 9.5712e-20)
(0.690078 0.109595 -1.37445e-19)
(0.782794 0.123173 -4.38483e-20)
(0.871348 0.13636 -4.23403e-20)
(0.953368 0.148544 4.06877e-20)
(1.02692 0.159173 -3.90929e-20)
(1.09065 0.167807 -3.68868e-20)
(1.14385 0.174156 3.60268e-20)
(1.18651 0.178096 6.81949e-20)
(1.21918 0.179664 -3.2211e-20)
(1.24294 0.179039 1.25315e-19)
(1.25915 0.176503 -1.48297e-19)
(1.26935 0.172393 -1.12862e-19)
(1.27499 0.167063 5.363e-20)
(1.27739 0.160844 1.53005e-19)
(1.27759 0.153999 0)
(1.27633 0.14682 4.51076e-20)
(1.27406 0.13927 0)
(1.27108 0.1321 -4.22341e-20)
(1.26751 0.123845 3.98775e-20)
(1.26336 0.118619 -7.34007e-20)
(1.2596 0.107867 -6.69897e-20)
(-0.0125366 0.00796671 4.6818e-20)
(-0.0279083 0.0177757 -9.41677e-20)
(-0.0343502 0.0233384 8.98169e-20)
(-0.031745 0.0263723 -8.58549e-20)
(-0.0199138 0.0280794 0)
(0.00140445 0.0293468 -3.86512e-20)
(0.0325729 0.030877 0)
(0.0739719 0.033243 3.51731e-20)
(0.125881 0.0369194 -6.66415e-20)
(0.188333 0.0422867 3.17949e-20)
(0.260963 0.0496127 6.01413e-20)
(0.342866 0.0590229 0)
(0.432516 0.0704687 1.09583e-19)
(0.527759 0.0837085 -5.22088e-20)
(0.625921 0.0983099 0)
(0.723991 0.113678 4.77407e-20)
(0.818884 0.129111 0)
(0.907719 0.143869 1.3122e-19)
(0.988077 0.157256 -1.25245e-19)
(1.0582 0.168688 3.97419e-20)
(1.1171 0.177749 0)
(1.1646 0.184222 1.46005e-19)
(1.20123 0.188088 -6.98372e-20)
(1.2281 0.189505 -9.92291e-20)
(1.24672 0.188758 9.48173e-20)
(1.25873 0.186212 3.06597e-20)
(1.26577 0.182249 2.9207e-20)
(1.26925 0.177236 8.19013e-20)
(1.27031 0.171473 -2.60185e-19)
(1.2698 0.165225 1.46518e-19)
(1.26824 0.158624 -4.67617e-20)
(1.26597 0.151926 -1.33861e-19)
(1.26316 0.144944 0)
(1.25992 0.138419 3.85668e-20)
(1.25631 0.130961 0)
(1.25232 0.126048 3.58107e-20)
(1.24876 0.116612 6.60251e-20)
(-0.0133662 0.00786604 4.726e-20)
(-0.0278249 0.0168764 -9.51556e-20)
(-0.0310824 0.0215946 -1.82218e-22)
(-0.0233043 0.0239025 8.62034e-20)
(-0.00442754 0.0251863 -4.10995e-20)
(0.0257728 0.0264953 0)
(0.0676021 0.0286521 0)
(0.12129 0.0323082 -3.51557e-20)
(0.186792 0.0379637 3.34171e-20)
(0.263589 0.0459563 2.43304e-22)
(0.350505 0.0564312 6.05411e-20)
(0.445612 0.0693061 -5.78894e-20)
(0.546244 0.0842533 -1.09805e-19)
(0.649153 0.100709 -1.04714e-19)
(0.750792 0.117923 2.00024e-19)
(0.847656 0.135037 -1.43238e-19)
(0.936644 0.151181 -4.5408e-20)
(1.01535 0.165583 0)
(1.08226 0.17764 1.65433e-19)
(1.13682 0.186982 -1.58015e-19)
(1.17937 0.193482 0)
(1.21099 0.197234 3.52685e-20)
(1.23324 0.198509 -4.15775e-22)
(1.24794 0.197685 -6.42452e-20)
(1.2569 0.195185 -3.12541e-20)
(1.26173 0.191412 0)
(1.26375 0.186722 0)
(1.26394 0.181392 2.68243e-20)
(1.26295 0.175635 -1.23955e-19)
(1.2612 0.1696 9.52027e-20)
(1.25894 0.163381 1.7864e-19)
(1.25629 0.157096 -8.52529e-20)
(1.25331 0.150674 0)
(1.25005 0.144568 -3.85506e-20)
(1.24656 0.137794 0)
(1.2428 0.133092 3.28004e-20)
(1.23946 0.124536 -3.22446e-20)
(-0.0138013 0.00751847 -4.78469e-20)
(-0.026419 0.0155493 0)
(-0.0253187 0.0195591 -5.28224e-22)
(-0.0109497 0.0214984 4.38883e-20)
(0.0166163 0.0228873 -2.67538e-22)
(0.0574938 0.0249037 -4.68987e-22)
(0.111791 0.0284582 -1.49859e-19)
(0.179362 0.0342356 3.56391e-20)
(0.259538 0.0426952 0)
(0.350884 0.0540395 6.43623e-20)
(0.451073 0.0681767 -3.44394e-22)
(0.556907 0.0847012 -2.91169e-20)
(0.66454 0.102914 -5.51274e-20)
(0.769847 0.121897 2.64389e-20)
(0.868888 0.14062 5.01652e-20)
(0.958342 0.158082 0)
(1.03584 0.173432 4.53874e-20)
(1.10015 0.186062 0)
(1.15116 0.195658 -4.54297e-22)
(1.18971 0.202189 3.91876e-20)
(1.21735 0.205865 -7.36521e-20)
(1.23604 0.207058 7.04956e-20)
(1.24781 0.206223 0)
(1.25451 0.203817 7.89598e-22)
(1.25774 0.200254 0)
(1.25867 0.19587 0)
(1.25817 0.19092 0)
(1.25676 0.185586 0)
(1.2548 0.179992 -7.13255e-20)
(1.25246 0.174228 9.18284e-20)
(1.24984 0.168348 4.16697e-20)
(1.24699 0.162436 -8.20103e-20)
(1.24393 0.156439 0)
(1.24067 0.150682 0)
(1.23725 0.144444 0)
(1.23363 0.139852 -9.64548e-20)
(1.23043 0.132059 6.09489e-20)
(-0.0137157 0.00691163 3.88384e-22)
(-0.0233469 0.0137485 -4.86463e-20)
(-0.0165503 0.0171635 4.63278e-20)
(0.00594545 0.0190985 7.89155e-22)
(0.0438872 0.0211556 1.45026e-22)
(0.0971591 0.0246012 7.99456e-20)
(0.165462 0.0303825 0)
(0.24797 0.0391417 7.18965e-20)
(0.343011 0.0511887 0)
(0.447873 0.0664574 -3.22669e-20)
(0.558817 0.0844818 0)
(0.671354 0.104428 -2.91351e-20)
(0.780731 0.125196 0)
(0.882514 0.14557 2.63178e-20)
(0.973128 0.1644 0)
(1.05023 0.180754 4.73795e-20)
(1.11284 0.194017 -4.48735e-20)
(1.16126 0.203935 -4.24852e-20)
(1.19681 0.210575 -4.07045e-20)
(1.22148 0.214255 -7.63028e-20)
(1.23751 0.215439 7.30267e-20)
(1.24707 0.214643 -3.40525e-20)
(1.25209 0.212355 6.47773e-20)
(1.25409 0.20899 -1.22553e-19)
(1.25417 0.204873 8.74818e-20)
(1.25309 0.200237 0)
(1.25132 0.195247 2.57082e-20)
(1.24914 0.190012 0)
(1.24669 0.184608 0)
(1.24405 0.17909 0)
(1.24125 0.173499 8.24605e-20)
(1.2383 0.167883 -7.89919e-20)
(1.23522 0.162225 0)
(1.232 0.156735 0)
(1.22868 0.150912 3.2119e-20)
(1.22522 0.146386 6.10843e-20)
(1.22214 0.139224 -3.00757e-20)
(-0.0130035 0.00606488 -9.85242e-20)
(-0.0182919 0.0115219 -3.1695e-22)
(-0.00429544 0.0144927 9.43431e-20)
(0.0279654 0.0168403 -1.33848e-19)
(0.0779673 0.020199 -1.66988e-22)
(0.145178 0.0258691 -4.06015e-20)
(0.228593 0.034751 -3.85281e-20)
(0.326322 0.0473228 -2.85599e-22)
(0.435298 0.0635917 -1.37902e-19)
(0.551244 0.0830612 1.63703e-19)
(0.668989 0.10477 -6.22994e-20)
(0.783068 0.127422 0)
(0.888459 0.149594 -8.3395e-20)
(0.981244 0.169962 1.05579e-19)
(1.05903 0.187493 -7.51966e-20)
(1.12104 0.201556 -4.73707e-20)
(1.16797 0.211949 4.48663e-20)
(1.20155 0.218833 8.45222e-20)
(1.22413 0.222626 0)
(1.23823 0.223881 3.74543e-20)
(1.24616 0.223169 3.53479e-20)
(1.2499 0.221008 6.90874e-22)
(1.25092 0.217821 -6.32588e-20)
(1.25028 0.213925 3.1264e-20)
(1.24869 0.209544 2.84141e-20)
(1.24656 0.204829 7.97079e-20)
(1.24412 0.199881 -7.67096e-20)
(1.24151 0.194766 2.3912e-20)
(1.23877 0.189533 -4.54283e-20)
(1.23594 0.184217 0)
(1.23301 0.178849 -5.98112e-20)
(1.22999 0.173462 7.61547e-20)
(1.22688 0.16806 -1.74498e-20)
(1.22369 0.162772 0)
(1.22044 0.157276 -3.2116e-20)
(1.21711 0.152778 0)
(1.21413 0.146138 -8.34895e-20)
(-0.0115618 0.00502469 4.97219e-20)
(-0.0109521 0.00900406 -2.7236e-22)
(0.0119017 0.0117734 5.12441e-22)
(0.0556344 0.0150509 0)
(0.1193 0.0204431 8.56953e-20)
(0.201676 0.0291999 -4.30004e-22)
(0.300671 0.0420471 -5.29974e-22)
(0.412907 0.0591273 1.09788e-19)
(0.533599 0.0799589 -7.00152e-20)
(0.65686 0.103471 -3.28658e-20)
(0.776414 0.128164 -3.13958e-20)
(0.886511 0.152372 8.84967e-20)
(0.982743 0.174558 -8.39328e-20)
(1.06254 0.193552 5.31636e-20)
(1.12524 0.208684 4.98438e-20)
(1.17184 0.219783 0)
(1.20445 0.227098 0)
(1.22576 0.231143 -6.28267e-20)
(1.23856 0.232555 7.82491e-20)
(1.24531 0.231968 -1.12339e-19)
(1.24805 0.229938 -1.04874e-19)
(1.24827 0.226901 9.99071e-20)
(1.24702 0.223179 3.0771e-20)
(1.24494 0.218992 0)
(1.24244 0.214486 -2.7295e-20)
(1.23972 0.209754 5.0997e-20)
(1.2369 0.204857 -7.88036e-22)
(1.23401 0.199838 -2.31641e-20)
(1.23108 0.19473 0)
(1.2281 0.18956 0)
(1.22508 0.184353 5.6998e-20)
(1.22201 0.179134 -5.55859e-20)
(1.2189 0.173919 1.74502e-20)
(1.21576 0.168781 0)
(1.2126 0.163534 0)
(1.20941 0.159031 0)
(1.20651 0.152839 0)
(-0.00928343 0.00385605 -5.10033e-20)
(-0.00103169 0.0063952 3.30965e-22)
(0.0324584 0.00934551 9.72651e-20)
(0.0893686 0.0142036 -4.63212e-20)
(0.168096 0.0224617 -8.77521e-20)
(0.266359 0.0351921 4.16692e-20)
(0.38054 0.0527648 -3.97496e-20)
(0.505404 0.0747786 7.49611e-20)
(0.634346 0.10009 0)
(0.760177 0.126991 0)
(0.876236 0.153536 3.13947e-20)
(0.97741 0.177918 2.94007e-20)
(1.06076 0.198773 -8.38517e-22)
(1.1256 0.215341 -2.68425e-20)
(1.17312 0.227461 4.91776e-20)
(1.20579 0.235448 -2.38617e-20)
(1.22663 0.239913 2.17136e-20)
(1.23868 0.241585 -4.13506e-20)
(1.24463 0.241172 5.84928e-20)
(1.24661 0.239277 9.05847e-20)
(1.24617 0.236365 -8.63802e-20)
(1.24435 0.232773 0)
(1.2418 0.228723 -3.07755e-20)
(1.23891 0.224362 -2.84974e-20)
(1.23588 0.21978 8.16463e-20)
(1.23279 0.215036 -4.401e-22)
(1.22971 0.210168 -8.39303e-22)
(1.22662 0.205208 -6.73689e-20)
(1.22353 0.200179 4.18412e-20)
(1.22044 0.195105 -4.00748e-20)
(1.21735 0.190006 0)
(1.21425 0.184905 -5.26494e-20)
(1.21114 0.179819 1.71233e-20)
(1.20805 0.17479 -6.13851e-20)
(1.20497 0.169727 5.88156e-20)
(1.20189 0.165195 0)
(1.19905 0.159381 -1.256e-20)
(-0.00605294 0.00263713 0)
(0.0117517 0.00394418 0)
(0.0577196 0.00762744 2.50568e-20)
(0.129404 0.0148577 -2.3746e-20)
(0.224218 0.0268841 8.85163e-20)
(0.338382 0.0444201 -6.369e-20)
(0.466328 0.0672544 2.00401e-20)
(0.600785 0.0942351 3.80514e-20)
(0.733574 0.123461 1.32993e-23)
(0.856909 0.152667 0)
(0.964698 0.179699 0)
(1.05336 0.202915 2.99264e-20)
(1.12198 0.221394 0)
(1.17183 0.234935 -7.8604e-20)
(1.20564 0.243903 2.5162e-20)
(1.2268 0.249002 -4.63821e-20)
(1.23867 0.251064 2.18685e-20)
(1.24417 0.250886 1.98797e-20)
(1.24559 0.249139 -5.79649e-20)
(1.24459 0.246332 1.74632e-20)
(1.24224 0.242828 1.63694e-20)
(1.23922 0.238862 -1.63157e-20)
(1.23593 0.234586 5.88961e-20)
(1.23254 0.230091 -8.46578e-20)
(1.22916 0.225435 1.29333e-20)
(1.22582 0.220657 2.49934e-20)
(1.22253 0.215784 -6.86464e-20)
(1.21928 0.21084 6.60043e-20)
(1.21607 0.205845 -2.00868e-20)
(1.21289 0.20082 0)
(1.20974 0.195782 -1.76997e-20)
(1.20663 0.190751 0)
(1.20355 0.185745 6.32397e-20)
(1.20051 0.180787 -3.01388e-20)
(1.19752 0.17585 1.37199e-20)
(1.19454 0.171269 0)
(1.19175 0.165777 1.2564e-20)
(-0.0017503 0.00145892 2.66424e-20)
(0.0276459 0.00193729 -5.38893e-20)
(0.0879098 0.0070834 2.53664e-20)
(0.175718 0.0175975 -9.45274e-22)
(0.287093 0.0343028 -4.56468e-20)
(0.416299 0.0573195 2.12985e-20)
(0.55554 0.085615 -4.06504e-20)
(0.695638 0.117144 0)
(0.827486 0.149293 -3.5948e-20)
(0.943676 0.17947 -1.70952e-20)
(1.03963 0.205638 0)
(1.1139 0.226615 -2.99337e-20)
(1.16766 0.242086 0)
(1.20386 0.252429 7.823e-20)
(1.22623 0.258437 -4.97438e-20)
(1.2385 0.261057 2.31038e-20)
(1.24391 0.261201 4.25679e-20)
(1.24497 0.259628 -8.9584e-22)
(1.2435 0.256915 -1.94328e-20)
(1.24065 0.253461 0)
(1.23717 0.249528 -1.63541e-20)
(1.23343 0.245279 -1.56597e-20)
(1.22966 0.24081 0)
(1.22594 0.236182 0)
(1.2223 0.231432 -1.2938e-20)
(1.21876 0.226589 -3.55953e-20)
(1.21531 0.221673 6.81732e-20)
(1.21193 0.216706 0)
(1.20862 0.211704 3.95138e-20)
(1.20538 0.206685 0)
(1.2022 0.201667 1.77059e-20)
(1.19908 0.196666 0)
(1.19603 0.1917 1.46775e-20)
(1.19306 0.186782 -4.30637e-20)
(1.19014 0.18192 -1.37247e-20)
(1.18725 0.177277 0)
(1.1845 0.172058 0)
(0.00373942 0.000426417 2.77995e-20)
(0.0468344 0.000690593 2.70526e-20)
(0.123083 0.00819663 0)
(0.22797 0.0229808 2.42616e-20)
(0.355676 0.0451992 -2.26804e-20)
(0.498132 0.0741114 4.40966e-20)
(0.645295 0.107663 -2.05689e-20)
(0.786609 0.1429 5.82793e-20)
(0.912989 0.176701 -6.6096e-22)
(1.01841 0.206489 -1.75917e-20)
(1.10047 0.230666 1.61117e-20)
(1.16002 0.248701 0)
(1.20007 0.260923 2.77203e-20)
(1.22469 0.268198 -6.55614e-20)
(1.23805 0.271605 2.47376e-20)
(1.24377 0.272193 4.50132e-20)
(1.2447 0.270843 -2.19519e-20)
(1.24286 0.268221 3.92233e-20)
(1.23955 0.264787 -7.45957e-20)
(1.23558 0.260839 -3.42378e-20)
(1.23138 0.25656 9.71476e-20)
(1.22718 0.252057 -1.56822e-20)
(1.22308 0.247395 0)
(1.21911 0.242613 0)
(1.21528 0.237739 2.45416e-20)
(1.21157 0.232795 -1.23114e-20)
(1.20798 0.2278 -1.13027e-20)
(1.2045 0.222771 -1.00179e-20)
(1.20112 0.217723 -1.94288e-20)
(1.19783 0.212674 -2.66102e-20)
(1.19463 0.207638 2.56773e-20)
(1.19154 0.202632 0)
(1.18853 0.197668 -7.21057e-21)
(1.18562 0.19276 5.6331e-22)
(1.18277 0.187927 0)
(1.17997 0.183214 0)
(1.17727 0.178221 1.1076e-20)
(0.010511 -0.000338024 -1.39162e-20)
(0.069403 0.00054537 2.79294e-20)
(0.163078 0.0114463 -2.66947e-20)
(0.285469 0.0314956 0)
(0.428484 0.0598928 -2.34638e-20)
(0.58154 0.0947765 2.22118e-20)
(0.732684 0.132972 2.0541e-20)
(0.870851 0.170766 -2.02913e-20)
(0.988032 0.204867 0)
(1.08037 0.233066 0)
(1.14793 0.254447 -1.61191e-20)
(1.19361 0.269195 0)
(1.22178 0.278213 0)
(1.23708 0.282716 -2.60309e-20)
(1.24363 0.283924 -1.20503e-20)
(1.24471 0.282876 3.34366e-20)
(1.24262 0.28036 -5.28152e-20)
(1.23889 0.276922 0)
(1.23443 0.272913 4.53178e-20)
(1.22974 0.268547 -8.78914e-22)
(1.22507 0.263948 -4.81103e-20)
(1.22055 0.259189 2.88351e-20)
(1.2162 0.254312 -6.81767e-22)
(1.21203 0.249347 -3.88179e-20)
(1.20804 0.244317 -2.38168e-20)
(1.2042 0.239238 5.3755e-22)
(1.20051 0.234128 2.09674e-20)
(1.19695 0.229001 -9.45395e-21)
(1.19351 0.223874 4.31314e-22)
(1.1902 0.21876 -1.68442e-20)
(1.18701 0.213674 5.64725e-20)
(1.18394 0.208629 -7.03739e-22)
(1.18099 0.203637 -2.13974e-20)
(1.17815 0.198711 -1.26487e-20)
(1.17537 0.193866 2.50656e-20)
(1.17265 0.189082 0)
(1.16999 0.184265 -1.10849e-20)
(0.0186239 -0.000698181 2.87638e-20)
(0.0953108 0.00185362 0)
(0.207495 0.0172805 0)
(0.347184 0.0435232 0)
(0.503704 0.0785144 0)
(0.664059 0.119075 0)
(0.815099 0.160963 0)
(0.946304 0.200011 0)
(1.05166 0.233144 0)
(1.12991 0.258823 -1.74793e-20)
(1.18346 0.276927 -1.62078e-20)
(1.21684 0.28832 0)
(1.23521 0.294349 0)
(1.24328 0.296432 1.29805e-20)
(1.24488 0.295811 3.56979e-20)
(1.24273 0.29344 -4.47119e-20)
(1.23863 0.289983 3.14145e-20)
(1.23368 0.285871 0)
(1.22847 0.281361 9.02172e-21)
(1.22331 0.276602 0)
(1.21832 0.27168 1.52703e-20)
(1.21355 0.266643 -3.63293e-20)
(1.20901 0.261523 -1.99056e-20)
(1.20468 0.256343 3.81088e-20)
(1.20056 0.251121 1.73341e-20)
(1.19662 0.245873 -2.74626e-20)
(1.19285 0.240615 -1.03615e-20)
(1.18923 0.235359 0)
(1.18577 0.23012 1.75572e-20)
(1.18245 0.22491 -8.11747e-23)
(1.17929 0.219743 -1.57159e-20)
(1.17626 0.214631 0)
(1.17338 0.209584 0)
(1.1706 0.204613 0)
(1.16791 0.199719 -5.79602e-21)
(1.16525 0.194865 1.63743e-20)
(1.16265 0.19017 -1.04943e-20)
(0.0280897 -0.000507611 0)
(0.124364 0.00496375 0)
(0.25568 0.0260924 0)
(0.411789 0.0593149 -1.30989e-20)
(0.579326 0.101008 2.03086e-22)
(0.743347 0.146599 -1.1315e-20)
(0.890475 0.191004 5.46282e-20)
(1.01178 0.230001 -1.07734e-20)
(1.10385 0.261096 -2.8674e-20)
(1.16807 0.283611 1.7491e-20)
(1.20886 0.298229 1.62191e-20)
(1.23181 0.306384 0)
(1.24237 0.309717 1.36423e-20)
(1.24503 0.309721 -1.30493e-20)
(1.24309 0.307573 0)
(1.23874 0.304102 -2.51517e-22)
(1.23331 0.299848 -1.5383e-20)
(1.22756 0.295135 0)
(1.22185 0.290148 1.72441e-20)
(1.21635 0.284992 -1.65029e-20)
(1.21111 0.279724 1.48828e-20)
(1.20616 0.27438 6.70958e-21)
(1.20147 0.268985 -2.62991e-20)
(1.19702 0.263557 0)
(1.1928 0.258111 5.75336e-21)
(1.18878 0.252663 5.36521e-21)
(1.18496 0.247225 0)
(1.18131 0.24181 -9.04981e-21)
(1.17784 0.23643 8.6671e-21)
(1.17455 0.231097 8.14489e-21)
(1.17142 0.225824 0)
(1.16846 0.220619 1.37383e-20)
(1.16564 0.215493 2.84241e-21)
(1.16295 0.210451 -1.22922e-20)
(1.16032 0.205482 -2.6281e-21)
(1.15775 0.200562 -2.56959e-21)
(1.15519 0.195934 1.24298e-20)
(0.0388591 0.000386446 3.93228e-21)
(0.156204 0.0102098 1.5221e-20)
(0.306734 0.0382057 7.0311e-21)
(0.477734 0.0789852 -2.01962e-20)
(0.653323 0.127156 1.2822e-20)
(0.817385 0.176839 -1.17505e-20)
(0.957397 0.222482 5.80697e-21)
(1.06684 0.260236 1.02378e-20)
(1.14518 0.288472 1.4264e-20)
(1.19622 0.307447 0)
(1.22585 0.318573 7.96028e-21)
(1.24026 0.32371 -7.61296e-21)
(1.24478 0.324654 0)
(1.24346 0.322872 3.15013e-21)
(1.23903 0.319422 0)
(1.23319 0.314999 0)
(1.22688 0.310025 -4.78287e-21)
(1.22059 0.304738 7.12077e-21)
(1.21453 0.29927 -8.41875e-21)
(1.20878 0.293694 8.05691e-21)
(1.20336 0.288051 0)
(1.19826 0.282368 0)
(1.19346 0.276664 1.57771e-20)
(1.18892 0.270955 -3.08492e-21)
(1.18463 0.265256 -2.68043e-21)
(1.18057 0.259577 0)
(1.17672 0.253931 -4.66775e-21)
(1.17307 0.248329 8.81709e-21)
(1.16962 0.242782 -2.15687e-21)
(1.16636 0.237301 0)
(1.16329 0.231896 0)
(1.16041 0.226576 1.62228e-21)
(1.15767 0.221349 -1.66398e-21)
(1.15506 0.216216 0)
(1.15252 0.211152 -1.45313e-21)
(1.15002 0.206176 -1.35816e-21)
(1.14751 0.201558 -2.41377e-21)
(0.0508505 0.00214564 -3.88182e-21)
(0.190371 0.0179102 0)
(0.359651 0.0538605 0)
(0.543467 0.1025 -6.84935e-21)
(0.723907 0.156596 -3.20807e-21)
(0.884675 0.209239 3.06643e-21)
(1.01511 0.254864 -5.58443e-21)
(1.11163 0.290377 0)
(1.17657 0.315188 -4.77483e-21)
(1.21568 0.330464 0)
(1.23587 0.338222 1.97922e-21)
(1.24344 0.3406 -3.71044e-21)
(1.24339 0.339432 3.40842e-21)
(1.23919 0.33609 -3.21497e-21)
(1.23303 0.331491 -1.46902e-21)
(1.22618 0.326198 0)
(1.21928 0.320532 0)
(1.21261 0.314667 2.28392e-21)
(1.20631 0.308696 0)
(1.20039 0.302669 9.46871e-22)
(1.19484 0.296617 -2.99374e-23)
(1.18964 0.290561 -2.71247e-23)
(1.18476 0.284516 -3.13674e-21)
(1.18017 0.278496 -3.60899e-21)
(1.17585 0.272512 2.68313e-21)
(1.17177 0.266575 0)
(1.16792 0.260694 0)
(1.1643 0.254879 0)
(1.16089 0.249141 -2.0084e-21)
(1.1577 0.243489 0)
(1.15471 0.237931 0)
(1.15192 0.232476 -8.42958e-22)
(1.14928 0.227128 -2.26206e-21)
(1.14677 0.221883 -6.7821e-22)
(1.14432 0.216714 -6.66813e-22)
(1.14191 0.211688 -1.22814e-21)
(1.13949 0.207035 0)
(-0.00113367 0.045875 -2.58742e-21)
(-0.00378101 0.114074 0)
(-0.00798074 0.163234 0)
(-0.0135825 0.19659 -4.7693e-21)
(-0.0203747 0.217426 2.25853e-21)
(-0.0281153 0.228881 -2.1592e-21)
(-0.0365392 0.233724 -4.17288e-21)
(-0.0454022 0.23421 0)
(-0.0545053 0.23204 -3.83448e-21)
(-0.0636988 0.228398 0)
(-0.0728781 0.224027 -1.75499e-21)
(-0.0819759 0.21934 1.67846e-21)
(-0.0909535 0.214517 -1.62541e-21)
(-0.0997932 0.209598 -3.17024e-21)
(-0.108491 0.204542 1.49831e-21)
(-0.117051 0.199271 0)
(-0.125484 0.193695 0)
(-0.133803 0.18772 2.74963e-21)
(-0.142023 0.181256 0)
(-0.150159 0.174216 -1.27482e-21)
(-0.158231 0.166514 -1.48649e-23)
(-0.166254 0.15807 -1.50969e-23)
(-0.174249 0.148805 -4.72344e-21)
(-0.182236 0.138644 -3.46215e-21)
(-0.190236 0.127515 4.44606e-21)
(-0.198271 0.115352 0)
(-0.206365 0.102093 0)
(-0.214542 0.0876827 0)
(-0.22283 0.0720717 -3.98879e-21)
(-0.231258 0.0552167 0)
(-0.239862 0.0370765 0)
(-0.248692 0.0176152 -5.48812e-21)
(-0.25771 -0.00320915 -1.86754e-21)
(-0.266953 -0.0253781 1.70391e-21)
(-0.276625 -0.0489038 -5.03996e-21)
(-0.286811 -0.073884 -3.31712e-21)
(-0.297105 -0.100285 0)
(-0.00285914 0.0463256 7.80936e-21)
(-0.00760415 0.116034 -1.05311e-20)
(-0.012528 0.167027 -5.03106e-21)
(-0.0179918 0.20224 2.40051e-20)
(-0.0241031 0.224749 -9.19489e-21)
(-0.0308252 0.237582 8.79879e-21)
(-0.038037 0.243476 -1.27345e-20)
(-0.045587 0.244707 8.13873e-21)
(-0.0533285 0.243027 1.16406e-20)
(-0.0611364 0.239678 7.45111e-21)
(-0.0689135 0.23546 -1.42926e-20)
(-0.0765908 0.230834 6.8544e-21)
(-0.0841238 0.226021 0)
(-0.0914875 0.221085 9.57261e-21)
(-0.0986712 0.216005 -6.13825e-21)
(-0.105674 0.210716 0)
(-0.112503 0.205133 1.74244e-20)
(-0.119167 0.199169 -1.38355e-20)
(-0.12568 0.192737 0)
(-0.132057 0.185751 0)
(-0.138316 0.178131 0)
(-0.144476 0.169797 0)
(-0.150558 0.160673 4.7993e-21)
(-0.156584 0.150686 1.38273e-20)
(-0.162578 0.139767 -4.44175e-21)
(-0.168564 0.127851 0)
(-0.174569 0.114878 8.69103e-21)
(-0.180618 0.100792 -1.67945e-20)
(-0.186739 0.0855477 1.20983e-20)
(-0.192965 0.0691035 0)
(-0.199328 0.0514278 0)
(-0.20586 0.0325015 3.6839e-21)
(-0.212572 0.0123268 -4.02455e-21)
(-0.219483 -0.00914247 0)
(-0.226793 -0.0319124 -3.84534e-21)
(-0.234625 -0.0559373 -3.75505e-21)
(-0.242151 -0.081119 -6.91742e-21)
(-0.00455332 0.0460676 0)
(-0.0114042 0.116403 0)
(-0.017064 0.168761 0)
(-0.0223779 0.205656 9.77835e-21)
(-0.0277543 0.229848 1.41367e-24)
(-0.0333587 0.244171 8.95531e-21)
(-0.0392185 0.251269 -2.57622e-20)
(-0.0452828 0.253397 -8.18414e-21)
(-0.0514644 0.252336 7.91617e-21)
(-0.0576688 0.249377 1.52612e-20)
(-0.0638103 0.245381 1.46856e-20)
(-0.0698205 0.240862 0)
(-0.0756498 0.236085 0)
(-0.0812666 0.231151 0)
(-0.086654 0.22606 0)
(-0.0918058 0.220764 -2.45985e-20)
(-0.0967243 0.21519 5.90855e-21)
(-0.101417 0.209257 0)
(-0.105897 0.202882 -2.23739e-20)
(-0.110178 0.195986 2.14117e-20)
(-0.114279 0.18849 -2.11351e-20)
(-0.118219 0.18032 1.00056e-20)
(-0.122023 0.171402 -1.47665e-22)
(-0.125712 0.161667 0)
(-0.129314 0.151047 9.58771e-21)
(-0.132855 0.13948 9.3607e-21)
(-0.136361 0.126906 0)
(-0.13986 0.113273 1.77166e-20)
(-0.143377 0.0985331 -1.6967e-20)
(-0.146942 0.0826475 1.70837e-20)
(-0.15058 0.0655892 0)
(-0.154313 0.0473446 -3.22928e-20)
(-0.158163 0.0279132 6.997e-21)
(-0.162192 0.00729508 3.02222e-20)
(-0.166498 -0.0145112 5.25571e-20)
(-0.171129 -0.0374031 -7.31674e-21)
(-0.175313 -0.0611382 -2.13071e-20)
(-0.00614341 0.0451026 8.22111e-23)
(-0.015036 0.115137 0)
(-0.0214318 0.168327 0)
(-0.0266013 0.206662 0)
(-0.0312251 0.232498 0)
(-0.0356558 0.248396 0)
(-0.0400687 0.256837 0)
(-0.0445185 0.260016 0)
(-0.0489843 0.25971 0)
(-0.0534091 0.257252 -1.5251e-20)
(-0.0577244 0.253557 -1.46756e-20)
(-0.0618655 0.249198 2.86544e-20)
(-0.0657808 0.244491 -2.74062e-20)
(-0.0694332 0.239577 1.3406e-20)
(-0.0728001 0.234488 -1.29009e-20)
(-0.0758706 0.229196 4.95674e-20)
(-0.0786433 0.223642 -1.17964e-20)
(-0.0811238 0.217755 0)
(-0.0833231 0.21146 1.14884e-20)
(-0.0852566 0.204682 0)
(-0.086943 0.197348 -2.17097e-20)
(-0.0884041 0.189388 -1.07651e-20)
(-0.0896644 0.180732 5.13349e-20)
(-0.0907507 0.171314 -1.93081e-20)
(-0.0916915 0.161068 -4.8915e-20)
(-0.0925165 0.149933 -1.01313e-20)
(-0.0932553 0.137849 1.79453e-20)
(-0.0939372 0.124762 0)
(-0.0945895 0.110621 -3.59623e-20)
(-0.095237 0.0953845 -1.30217e-22)
(-0.0958999 0.0790191 3.3704e-20)
(-0.0965902 0.0615071 -3.36827e-20)
(-0.0973116 0.0428467 3.22673e-20)
(-0.0980943 0.0230545 0)
(-0.0990383 0.00218232 -1.52348e-20)
(-0.100044 -0.019626 -1.58339e-20)
(-0.100522 -0.0419897 2.95284e-20)
(-0.00756367 0.0434705 -3.29752e-20)
(-0.018359 0.112266 -2.20531e-20)
(-0.0254775 0.165702 2.10799e-20)
(-0.0305302 0.205167 0)
(-0.0344229 0.232545 -1.9338e-20)
(-0.0376741 0.250052 -1.84047e-20)
(-0.0405979 0.259953 -1.76778e-20)
(-0.0433549 0.264325 5.07112e-20)
(-0.0459963 0.264917 0)
(-0.0485115 0.26308 0)
(-0.0508561 0.259779 -1.51068e-20)
(-0.0529737 0.255645 0)
(-0.0548142 0.25105 0)
(-0.0563379 0.246183 -2.69951e-20)
(-0.0575176 0.241112 -1.29613e-20)
(-0.0583383 0.235835 -1.29489e-20)
(-0.0587953 0.230313 -1.25231e-20)
(-0.0588924 0.224486 0)
(-0.0586399 0.218288 -3.48765e-20)
(-0.0580533 0.211654 -7.76961e-22)
(-0.0571527 0.204515 2.14074e-20)
(-0.0559617 0.196806 -4.3498e-22)
(-0.0545073 0.188463 -4.22602e-20)
(-0.0528195 0.179423 2.02745e-20)
(-0.0509302 0.169623 0)
(-0.0488727 0.159004 0)
(-0.0466803 0.147506 -4.68783e-22)
(-0.0443845 0.13507 5.67567e-20)
(-0.0420136 0.121641 8.18581e-22)
(-0.03959 0.107167 -7.13188e-20)
(-0.0371273 0.0916028 -5.33011e-20)
(-0.0346269 0.0749143 -1.51251e-21)
(-0.0320748 0.0570842 8.37525e-20)
(-0.0294648 0.0381227 1.00072e-19)
(-0.0267996 0.0180911 -6.38656e-20)
(-0.0237982 -0.00277854 0)
(-0.0200607 -0.0240761 -3.12707e-20)
(-0.0087569 0.0412381 -1.44357e-22)
(-0.021246 0.107889 2.24503e-20)
(-0.0290579 0.160945 0)
(-0.0340413 0.201159 2.04486e-20)
(-0.0372662 0.229902 5.82242e-20)
(-0.0393838 0.248995 -3.7182e-20)
(-0.0408315 0.260428 5.35622e-20)
(-0.0418727 0.266119 -8.53119e-20)
(-0.0426362 0.267746 -1.66487e-22)
(-0.0431622 0.266658 4.7302e-20)
(-0.0434381 0.263856 1.50993e-20)
(-0.0434251 0.260027 0)
(-0.0430792 0.255599 -2.84475e-20)
(-0.0423607 0.250815 4.08278e-20)
(-0.0412402 0.245784 -2.63277e-20)
(-0.0396997 0.240537 0)
(-0.0377319 0.235056 2.4737e-20)
(-0.0353389 0.2293 -4.88147e-20)
(-0.0325303 0.223214 -3.37688e-22)
(-0.029322 0.216742 4.62793e-20)
(-0.0257351 0.209824 -4.4772e-20)
(-0.0217952 0.2024 6.48119e-20)
(-0.0175308 0.194412 0)
(-0.0129739 0.185802 0)
(-0.00815826 0.176512 -4.11599e-20)
(-0.00311897 0.166484 -2.09466e-20)
(0.00210973 0.155656 5.78861e-20)
(0.00749758 0.143969 -1.8906e-20)
(0.013019 0.131358 -3.77392e-20)
(0.0186577 0.117757 9.24048e-20)
(0.0244095 0.103103 -8.8906e-20)
(0.0302857 0.0873306 0)
(0.0363253 0.0703905 -1.70569e-20)
(0.042576 0.052254 7.04826e-22)
(0.0490783 0.0329449 0)
(0.056226 0.0126956 0)
(0.0648458 -0.00798822 3.12253e-20)
(-0.00968029 0.0385002 -2.2426e-20)
(-0.0235942 0.10217 1.5382e-22)
(-0.0320524 0.154201 -6.4616e-20)
(-0.0370278 0.19472 2.21891e-22)
(-0.0396845 0.224569 3.92606e-20)
(-0.0407652 0.245147 1.88366e-20)
(-0.0408073 0.258128 -3.5921e-20)
(-0.0401684 0.265225 0)
(-0.039055 0.26801 -3.32097e-20)
(-0.0375651 0.267798 -1.58412e-20)
(-0.0357254 0.26561 3.0786e-20)
(-0.0335225 0.262177 -1.18533e-19)
(-0.0309246 0.257986 5.68349e-20)
(-0.0278976 0.25333 -2.80903e-20)
(-0.0244127 0.248369 5.31607e-20)
(-0.0204506 0.243169 2.60178e-20)
(-0.0160025 0.237741 0)
(-0.0110692 0.232063 -4.93394e-20)
(-0.0056594 0.226098 7.08847e-20)
(0.000211252 0.219798 0)
(0.00652152 0.213114 -2.24763e-20)
(0.0132459 0.205994 -2.21503e-20)
(0.0203559 0.198386 0)
(0.0278208 0.190238 0)
(0.0356088 0.181495 -2.07044e-20)
(0.0436892 0.172102 1.01742e-19)
(0.0520332 0.161998 -3.85011e-20)
(0.0606181 0.151121 0)
(0.0694288 0.139398 7.58776e-20)
(0.078461 0.126751 0)
(0.0877258 0.113095 3.66785e-20)
(0.0972523 0.0983367 0)
(0.107095 0.0823814 -1.06171e-19)
(0.117317 0.0651398 3.38842e-20)
(0.127993 0.0465564 -3.37587e-20)
(0.139504 0.0268282 0)
(0.153694 0.00665267 0)
(-0.010309 0.0353734 0)
(-0.0253333 0.0953342 0)
(-0.0343715 0.145704 2.16013e-20)