/*--------------------------------*- C++ -*----------------------------------*\
| =========                 |                                                 |
| \\      /  F ield         | OpenFOAM: The Open Source CFD Toolbox           |
|  \\    /   O peration     | Version:  2312                                  |
|   \\  /    A nd           | Website:  www.openfoam.com                      |
|    \\/     M anipulation  |                                                 |
\*---------------------------------------------------------------------------*/
FoamFile
{
    version     2.0;
    format      ascii;
    arch        "LSB;label=32;scalar=64";
    class       volVectorField;
    location    "56.65";
    object      U;
}
// * * * * * * * * * * * * * * * * * * * * * * * * * * * * * * * * * * * * * //

dimensions      [0 1 -1 0 0 0 0];

internalField   nonuniform List<vector> 
5478
(
(-0.0336597 0.0208664 -7.19223e-20)
(-0.0613145 0.0323329 0)
(-0.0508878 0.0297574 1.08645e-19)
(0.0135314 0.02422 -1.89437e-19)
(0.143717 0.0205255 1.21959e-19)
(0.334215 0.0220364 -3.7612e-20)
(0.558223 0.0306604 -6.08601e-20)
(0.784037 0.0439507 0)
(0.983585 0.0598925 0)
(1.14123 0.0707682 7.35043e-20)
(1.25053 0.0767363 -3.35972e-20)
(1.30315 0.0757105 -5.63433e-20)
(1.32505 0.0548785 -2.28158e-20)
(1.30169 0.0534033 0)
(1.26893 0.000365688 6.59821e-20)
(-0.0418508 0.025324 1.44454e-19)
(-0.0540544 0.0350297 0)
(0.00274481 0.0289669 0)
(0.144782 0.0236011 -9.52951e-20)
(0.367776 0.0281735 1.25192e-19)
(0.628674 0.0435967 3.51679e-20)
(0.875808 0.0645478 -5.87643e-20)
(1.0733 0.0848195 5.21027e-20)
(1.20619 0.0978196 1.25939e-19)
(1.27692 0.101593 -1.09859e-19)
(1.29499 0.096996 1.54411e-21)
(1.28743 0.0813512 0)
(1.26593 0.0696009 2.27771e-20)
(1.24871 0.0501886 0)
(1.25711 0.0330534 0)
(-0.0437274 0.0234865 -3.98708e-22)
(-0.0248502 0.0276897 -6.77332e-20)
(0.104507 0.0233259 3.78852e-22)
(0.348001 0.0317334 0)
(0.646584 0.0564392 -4.2283e-20)
(0.91865 0.086677 3.56016e-20)
(1.11626 0.111629 2.97067e-20)
(1.22951 0.124781 0)
(1.27418 0.125932 -4.22287e-20)
(1.27601 0.11865 3.54323e-20)
(1.26525 0.105441 2.97573e-20)
(1.25503 0.0955615 0)
(1.25182 0.0800411 0)
(1.25367 0.0725621 -6.50194e-20)
(1.24107 0.0537838 5.78915e-20)
(-0.0372971 0.0170622 -7.92404e-20)
(0.0367929 0.0137935 6.68298e-20)
(0.270265 0.0235269 -5.76727e-20)
(0.604855 0.0598571 5.07826e-20)
(0.913163 0.103565 8.49131e-20)
(1.12394 0.136208 -7.09856e-20)
(1.23247 0.151237 -2.96877e-20)
(1.2691 0.15156 2.30538e-20)
(1.27075 0.143914 -2.20836e-20)
(1.26492 0.132836 0)
(1.25897 0.123716 0)
(1.25222 0.110264 -4.37286e-20)
(1.24205 0.100744 5.70688e-20)
(1.22292 0.0863138 -3.22416e-20)
(1.20963 0.071271 0)
(-0.0194586 0.00848958 4.01488e-20)
(0.143485 0.00373881 3.36337e-20)
(0.4931 0.0468321 -1.21216e-19)
(0.854316 0.10973 1.70988e-21)
(1.10093 0.156229 -1.23231e-21)
(1.22431 0.177483 -1.21394e-21)
(1.26688 0.180036 2.8461e-20)
(1.27256 0.17343 2.39613e-20)
(1.26662 0.163375 1.7367e-20)
(1.25561 0.153028 -2.63446e-21)
(1.2416 0.139908 -3.94678e-20)
(1.22695 0.128461 0)
(1.21344 0.115606 1.80538e-20)
(1.20694 0.102341 -1.37053e-20)
(1.20169 0.0931121 2.43486e-20)
(0.01555 -7.3285e-05 -8.71615e-20)
(0.30106 0.0127228 9.40332e-20)
(0.724369 0.0966788 -3.23708e-20)
(1.04041 0.16792 2.4251e-20)
(1.20391 0.203014 -4.48451e-20)
(1.26413 0.211521 -3.33083e-20)
(1.2745 0.206768 1.01301e-21)
(1.26576 0.196579 0)
(1.25058 0.184585 3.5117e-20)
(1.23542 0.171061 -3.12287e-20)
(1.2232 0.158909 1.24986e-20)
(1.21348 0.1458 0)
(1.20507 0.13404 7.60859e-21)
(1.19272 0.121413 -1.36305e-20)
(1.17759 0.110906 0)
(0.0732645 -0.00303092 -1.08856e-20)
(0.489777 0.0529762 1.08078e-21)
(0.914182 0.161677 1.56669e-20)
(1.15691 0.22527 2.66041e-20)
(1.25336 0.246237 -2.03315e-20)
(1.27369 0.244671 3.41193e-20)
(1.26446 0.233986 -7.74639e-21)
(1.24801 0.22043 0)
(1.23274 0.20606 -2.05323e-20)
(1.21941 0.192452 1.41895e-21)
(1.20639 0.178187 1.69918e-20)
(1.19323 0.164863 0)
(1.17999 0.151529 -1.10195e-20)
(1.1703 0.13771 0)
(1.16414 0.129666 6.78573e-21)
(0.153245 0.00709416 -1.21631e-20)
(0.668813 0.120387 0)
(1.04934 0.233142 1.67755e-20)
(1.22076 0.281775 0)
(1.2674 0.288431 0)
(1.26328 0.277752 0)
(1.24601 0.262238 -6.56471e-21)
(1.22812 0.245759 0)
(1.21131 0.2295 4.13252e-21)
(1.19586 0.213064 0)
(1.18286 0.197679 -5.27568e-21)
(1.1725 0.182629 0)
(1.16434 0.168487 3.4068e-21)
(1.15517 0.155691 0)
(1.14337 0.145401 2.21004e-21)
(-0.00524007 -0.0593102 -1.05633e-20)
(-0.0300403 -0.0601444 0)
(-0.068693 -0.0297249 1.65406e-20)
(-0.109213 0.00250434 0)
(-0.148902 0.035284 0)
(-0.186778 0.0731496 0)
(-0.221657 0.117888 -1.01239e-20)
(-0.251975 0.169623 0)
(-0.275615 0.227447 7.96352e-21)
(-0.290164 0.289165 0)
(-0.29334 0.350932 -1.25462e-20)
(-0.2832 0.407647 0)
(-0.257636 0.454066 1.002e-20)
(-0.215806 0.484623 0)
(-0.150285 0.492202 8.44937e-21)
(-0.00133255 -0.0387978 5.16238e-20)
(-0.0235348 -0.0241809 -3.60353e-20)
(-0.0584206 0.0129764 1.47289e-20)
(-0.0945322 0.0477281 5.54921e-20)
(-0.128394 0.0795909 -7.99378e-23)
(-0.158149 0.113898 -4.36424e-20)
(-0.182108 0.152852 2.93865e-20)
(-0.198457 0.19606 0)
(-0.205058 0.242082 2.18812e-20)
(-0.199633 0.288481 -1.14345e-22)
(-0.180011 0.33241 -1.09877e-20)
(-0.143702 0.369349 0)
(-0.089532 0.392466 -2.82202e-20)
(-0.0214527 0.402594 0)
(0.0803248 0.388741 -4.26856e-20)
(0.000980744 -0.0235934 7.84301e-20)
(-0.0179208 0.00154125 1.7153e-20)
(-0.0458506 0.0441725 -3.11954e-20)
(-0.0728041 0.0813596 -8.02526e-20)
(-0.0953868 0.111625 4.66982e-20)
(-0.111281 0.14054 4.02947e-20)
(-0.118417 0.171385 -6.99212e-20)
(-0.114909 0.204262 0)
(-0.099088 0.237609 -5.38856e-20)
(-0.0684145 0.269439 4.79094e-20)
(-0.0219021 0.295406 2.02567e-20)
(0.0370995 0.315412 0)
(0.127276 0.320474 1.81916e-20)
(0.1999 0.315776 -3.187e-20)
(0.341319 0.272752 0)
(0.00205725 -0.014811 3.72064e-20)
(-0.0145898 0.0144363 -1.00679e-19)
(-0.0360504 0.0593437 1.16522e-19)
(-0.0529931 0.0980493 -1.00902e-19)
(-0.0624298 0.1267 -4.31409e-20)
(-0.0625022 0.149673 3.72634e-20)
(-0.0513955 0.17108 3.42075e-20)
(-0.0276342 0.192151 2.77128e-20)
(0.0102854 0.211944 -7.34611e-20)
(0.0594787 0.22854 4.1466e-22)
(0.136443 0.240587 1.85209e-20)
(0.195164 0.245994 0)
(0.332128 0.230492 3.10706e-20)
(0.381984 0.229587 9.47234e-20)
(0.572487 0.166307 -5.59466e-20)
(0.00171867 -0.0101779 -5.67039e-22)
(-0.0152667 0.0171019 6.40354e-20)
(-0.0338383 0.0582729 -5.57283e-20)
(-0.0436688 0.0945523 4.98269e-20)
(-0.0419112 0.119994 8.46284e-20)
(-0.0278495 0.136902 -7.28355e-20)
(-0.000832634 0.149052 -3.04566e-20)
(0.0395262 0.15831 -8.06027e-20)
(0.0957247 0.16678 7.09822e-20)
(0.160628 0.168168 0)
(0.263876 0.1716 0)
(0.329977 0.165768 6.62294e-20)
(0.515844 0.143616 -1.51773e-19)
(0.556124 0.134603 5.50276e-20)
(0.811702 0.0774711 0)
(-0.00140944 -0.00603155 4.05414e-23)
(-0.0221974 0.0156547 -6.37147e-20)
(-0.041976 0.0466983 1.65685e-19)
(-0.0490604 0.0742715 -4.80514e-20)
(-0.0401946 0.0923353 -4.15183e-20)
(-0.0148383 0.101902 3.55991e-20)
(0.0279269 0.106069 3.04749e-20)
(0.0901771 0.10696 5.02201e-20)
(0.174256 0.106865 -8.80944e-20)
(0.281578 0.10201 3.8053e-20)
(0.413996 0.0994771 3.38141e-20)
(0.546758 0.0862635 0)
(0.743876 0.0737542 0)
(0.843802 0.0519482 1.096e-19)
(1.1033 0.0178408 -9.73324e-20)
(-0.0092471 0.0011894 -1.37221e-22)
(-0.0363799 0.0170077 0)
(-0.0581588 0.0343592 0)
(-0.0615879 0.0487584 9.22125e-20)
(-0.0410199 0.0565727 -4.13258e-20)
(0.00806857 0.0588133 3.42127e-20)
(0.0896806 0.0574426 5.73101e-20)
(0.204566 0.0554646 -5.08153e-20)
(0.350067 0.0515359 4.3547e-20)
(0.519054 0.0535208 -3.80887e-20)
(0.691103 0.0474332 -5.41897e-22)
(0.881891 0.0473028 0)
(1.03965 0.0390107 2.66353e-20)
(1.18845 0.0211047 0)
(1.33116 0.00770905 0)
(-0.0214756 0.0114113 -7.03648e-20)
(-0.0530114 0.0237234 0)
(-0.0678448 0.0287451 -1.07334e-19)
(-0.0514604 0.0307204 1.8686e-19)
(0.00698114 0.0300074 -2.00618e-19)
(0.114666 0.0278491 -3.19453e-20)
(0.268641 0.0268023 5.97836e-20)
(0.454858 0.029568 0)
(0.658181 0.0346311 0)
(0.851817 0.0451407 -7.49548e-20)
(1.0324 0.0461835 -3.25618e-20)
(1.17823 0.0573613 5.87374e-20)
(1.27711 0.041076 -2.66815e-20)
(1.35781 0.0375486 0)
(1.35412 0.0114532 -7.90493e-20)
(-0.0695291 0.483424 0)
(0.140846 0.297165 4.8944e-21)
(0.36301 -0.0235009 -4.52762e-21)
(0.599376 -0.438354 0)
(0.653222 -0.744214 0)
(0.712896 -0.750961 -1.08325e-22)
(0.678005 -0.706625 0)
(0.487183 -0.698177 0)
(0.527723 -0.332209 7.37063e-23)
(0.65096 0.174141 0)
(0.771113 0.421813 0)
(0.851675 0.440382 -8.19406e-23)
(0.805353 0.499495 0)
(0.73125 0.527245 -4.93084e-23)
(0.711102 0.346116 -3.43939e-23)
(0.831102 0.11508 0)
(0.931864 -0.0173076 -3.15282e-22)
(0.904549 -0.232461 3.8269e-22)
(0.818349 -0.450827 0)
(0.857197 -0.392619 5.34639e-23)
(0.912831 -0.0379567 -6.81262e-23)
(0.909947 0.295933 5.47404e-24)
(0.825325 0.422186 -8.34692e-23)
(0.723845 0.333562 7.97579e-23)
(0.68376 0.0695627 -1.56968e-22)
(0.644591 -0.121195 0)
(0.659475 -0.229104 -9.92015e-23)
(0.690053 -0.234175 9.48516e-23)
(0.736777 -0.167436 -3.93222e-23)
(0.794963 -0.131262 0)
(0.824949 -0.0929215 -5.27269e-24)
(0.84249 -0.0554042 0)
(0.850031 -0.047867 6.24536e-24)
(0.867329 -0.0285519 5.08694e-24)
(0.893898 -0.00508499 -5.1258e-25)
(0.924601 0.00846695 3.43264e-24)
(0.945778 0.0223136 0)
(0.968727 0.0380778 -6.65967e-25)
(0.196543 0.365775 1.58097e-20)
(0.398489 0.168845 -1.4801e-22)
(0.593729 -0.15962 -1.87751e-20)
(0.830568 -0.516286 1.79046e-20)
(0.863262 -0.759158 0)
(0.798962 -0.757032 1.09159e-22)
(0.742329 -0.654139 -1.43111e-22)
(0.537269 -0.641305 0)
(0.470562 -0.366048 -7.42577e-23)
(0.581854 0.0972623 0)
(0.719716 0.353965 0)
(0.797657 0.428498 8.25319e-23)
(0.743226 0.530204 0)
(0.65937 0.550692 1.52713e-21)
(0.644765 0.329418 -1.28509e-21)
(0.795486 0.071579 1.14622e-21)
(0.936703 -0.0326625 -1.09408e-21)
(0.935874 -0.213132 -8.21627e-23)
(0.843241 -0.443841 0)
(0.875863 -0.412941 0)
(0.928597 -0.0521975 -6.42132e-24)
(0.918718 0.301687 2.30761e-22)
(0.832438 0.447652 -5.98519e-22)
(0.741466 0.35784 3.7672e-22)
(0.703532 0.0826812 5.13742e-22)
(0.669921 -0.118684 0)
(0.682536 -0.232589 2.62521e-22)
(0.70519 -0.2437 0)
(0.752182 -0.178981 3.94597e-23)
(0.823754 -0.140759 -4.17566e-23)
(0.869311 -0.0981911 5.08058e-23)
(0.889274 -0.0566713 4.84551e-24)
(0.887247 -0.0483716 -9.50293e-24)
(0.886733 -0.0306528 -1.8831e-25)
(0.897218 -0.00823489 -5.97177e-24)
(0.92069 0.00544292 3.32588e-24)
(0.938469 0.0196667 2.16984e-25)
(0.963532 0.0366737 -2.85633e-25)
(0.45914 0.243428 3.64667e-20)
(0.635359 0.0840141 -7.47064e-20)
(0.809365 -0.23921 1.37318e-21)
(0.995176 -0.5698 3.5493e-20)
(1.00144 -0.742123 3.42541e-22)
(0.871101 -0.715862 -2.09423e-22)
(0.785986 -0.594223 1.45565e-22)
(0.612722 -0.581726 -2.06758e-22)
(0.4726 -0.391542 0)
(0.53664 0.0206924 5.56443e-21)
(0.678766 0.301699 -5.30783e-21)
(0.781401 0.42758 -1.52822e-22)
(0.738184 0.552962 0)
(0.631561 0.571178 -3.69615e-21)
(0.622334 0.313959 3.43439e-21)
(0.783912 0.0197046 -1.32121e-21)
(0.946303 -0.0534586 1.26062e-21)
(0.969698 -0.18713 1.45492e-21)
(0.872401 -0.427782 -1.22395e-21)
(0.889374 -0.437503 0)
(0.941704 -0.0673976 0)
(0.927317 0.314814 4.77767e-22)
(0.845008 0.466804 -4.56139e-22)
(0.763445 0.37449 -1.35679e-21)
(0.724974 0.0955602 -1.54414e-22)
(0.694915 -0.115048 1.41958e-21)
(0.708072 -0.234432 1.50255e-23)
(0.725064 -0.251792 -3.31771e-22)
(0.764576 -0.190932 4.10542e-22)
(0.836737 -0.152459 -3.07838e-22)
(0.896401 -0.105835 -3.70337e-24)
(0.928904 -0.0585118 -1.82924e-24)
(0.92785 -0.0474786 -1.23143e-23)
(0.915276 -0.0304502 1.17742e-23)
(0.90816 -0.00959728 4.62975e-24)
(0.920801 0.0033154 2.52715e-24)
(0.931662 0.017231 -6.11029e-24)
(0.95744 0.0351766 -9.5364e-25)
(0.664344 0.131398 0)
(0.82869 0.0134727 3.71922e-20)
(1.03138 -0.276842 -3.65578e-20)
(1.15182 -0.570033 0)
(1.1069 -0.693008 -3.52051e-22)
(0.928281 -0.667727 2.15171e-22)
(0.81795 -0.541058 0)
(0.677164 -0.520834 2.01289e-23)
(0.542667 -0.406931 -1.37444e-22)
(0.564492 -0.0634293 0)
(0.687136 0.219488 -4.72128e-21)
(0.778037 0.388214 4.65849e-21)
(0.694129 0.578976 -3.10205e-22)
(0.585127 0.61613 -4.67135e-21)
(0.625636 0.316637 4.45371e-21)
(0.791479 -0.0261684 2.45107e-22)
(0.959743 -0.0815459 0)
(1.00505 -0.164448 -1.76068e-22)
(0.907526 -0.403404 1.78394e-21)
(0.89987 -0.457981 -1.00802e-21)
(0.951863 -0.095552 -1.90391e-22)
(0.938037 0.30619 -3.67033e-22)
(0.862877 0.486166 -1.83173e-21)
(0.788126 0.404887 2.24661e-21)
(0.750164 0.117082 -4.0278e-22)
(0.721734 -0.108162 0)
(0.733823 -0.235137 -2.83915e-22)
(0.747717 -0.258721 3.36131e-22)
(0.779203 -0.201857 -4.25364e-22)
(0.842778 -0.164607 3.20614e-22)
(0.906742 -0.115743 -1.69899e-23)
(0.953096 -0.0622733 0)
(0.96152 -0.0466841 1.21641e-23)
(0.946457 -0.0286588 -2.53127e-23)
(0.9253 -0.0090897 -1.24951e-23)
(0.926046 0.00246502 -1.32666e-23)
(0.927045 0.0153294 6.11459e-24)
(0.951311 0.0336955 -2.56517e-25)
(0.877613 0.0405805 4.31732e-22)
(1.01708 -0.06475 1.01905e-21)
(1.23164 -0.308014 0)
(1.28886 -0.528801 0)
(1.18749 -0.599317 0)
(0.991163 -0.590159 0)
(0.862381 -0.491658 7.15291e-21)
(0.742269 -0.467065 -1.21715e-20)
(0.615423 -0.421001 5.33423e-21)
(0.642121 -0.140668 0)
(0.716568 0.164017 -4.16211e-21)
(0.754296 0.404127 4.07018e-21)
(0.670773 0.621817 5.73437e-21)
(0.607323 0.633049 -4.80705e-21)
(0.672671 0.311004 5.23756e-21)
(0.821497 -0.0684897 -5.24197e-21)
(0.97383 -0.11691 -2.03294e-22)
(1.03388 -0.143321 -2.80287e-21)
(0.943991 -0.37102 2.67036e-21)
(0.909341 -0.477839 1.87777e-22)
(0.959963 -0.12777 4.64758e-23)
(0.951462 0.306613 1.02817e-21)
(0.884383 0.499101 -1.05331e-21)
(0.813863 0.419227 -6.94053e-22)
(0.777579 0.133183 -4.72463e-22)
(0.750974 -0.100876 -4.22929e-22)
(0.760316 -0.234659 0)
(0.770485 -0.2645 0)
(0.795764 -0.21139 0)
(0.849477 -0.175726 0)
(0.90857 -0.12663 3.16361e-23)
(0.96264 -0.0680831 -1.37446e-23)
(0.982878 -0.0471063 -2.3062e-23)
(0.973618 -0.0263977 8.70705e-23)
(0.945162 -0.00716838 -1.21783e-23)
(0.936005 0.00298777 -2.67637e-24)
(0.926033 0.0142392 9.04774e-24)
(0.9463 0.0323725 2.49357e-24)
(1.14359 -0.0211643 -4.54321e-22)
(1.24522 -0.12001 6.02965e-20)
(1.3796 -0.307943 -5.78854e-20)
(1.35246 -0.460609 -4.58787e-20)
(1.20988 -0.505397 4.36911e-20)
(1.0487 -0.515608 2.21788e-20)
(0.910703 -0.447158 -2.06629e-20)
(0.82267 -0.408669 1.86218e-22)
(0.677127 -0.428913 -1.36749e-22)
(0.708342 -0.221533 0)
(0.782155 0.0845787 -1.13955e-22)
(0.792396 0.335182 1.04215e-20)
(0.681393 0.601544 -9.92332e-21)
(0.596543 0.676434 -3.66591e-22)
(0.703891 0.349751 0)
(0.860453 -0.0773991 -4.91998e-21)
(0.991824 -0.146972 7.9365e-21)
(1.05849 -0.126585 -3.03123e-21)
(0.981979 -0.33146 0)
(0.920329 -0.48639 8.8976e-22)
(0.964977 -0.172834 -4.98291e-22)
(0.965338 0.277423 -5.53738e-22)
(0.906772 0.509505 -2.55348e-21)
(0.840997 0.457979 2.61093e-21)
(0.807542 0.16525 -3.88649e-21)
(0.783127 -0.0870435 4.54676e-22)
(0.788699 -0.231379 3.3847e-21)
(0.793475 -0.268572 -1.21012e-21)
(0.812474 -0.219647 1.15085e-21)
(0.858482 -0.185403 -1.17218e-22)
(0.909168 -0.13722 1.11455e-22)
(0.963458 -0.0751847 0)
(0.99259 -0.0490683 -2.10481e-23)
(0.993027 -0.0245985 -5.56042e-24)
(0.964021 -0.0045758 0)
(0.948947 0.00464884 1.42079e-23)
(0.929226 0.0140864 -5.84083e-24)
(0.943522 0.0313403 1.30689e-24)
(1.33877 -0.0454628 0)
(1.39517 -0.123824 0)
(1.42196 -0.253308 -1.85928e-22)
(1.34207 -0.364817 0)
(1.19866 -0.412979 0)
(1.08177 -0.449623 2.28203e-20)
(0.956567 -0.414555 -2.17186e-20)
(0.884285 -0.353142 1.08974e-20)
(0.755532 -0.409487 -1.03894e-20)
(0.721617 -0.316202 0)
(0.816851 0.0220862 -1.09545e-22)
(0.781738 0.34855 1.51471e-22)
(0.633445 0.638754 -1.22819e-20)
(0.629785 0.673903 -3.06877e-21)
(0.76765 0.34293 1.38653e-20)
(0.909437 -0.0951054 1.76647e-22)
(1.01267 -0.183208 -1.33253e-22)
(1.07425 -0.114389 5.98245e-21)
(1.01337 -0.286864 -5.87774e-21)
(0.93569 -0.494456 0)
(0.966796 -0.22066 0)
(0.981032 0.261336 -4.37232e-23)
(0.93233 0.514346 0)
(0.868972 0.467111 4.06614e-21)
(0.836443 0.18097 7.71186e-22)
(0.814994 -0.0755848 -3.98696e-21)
(0.817574 -0.227372 -3.07547e-21)
(0.81719 -0.271813 2.01496e-21)
(0.828927 -0.227516 -1.09828e-22)
(0.868321 -0.194369 0)
(0.91126 -0.147293 -2.96364e-23)
(0.961237 -0.0828901 2.80992e-23)
(0.994485 -0.0523948 -6.07602e-24)
(1.00425 -0.0237861 -1.20895e-23)
(0.979327 -0.00196697 1.21136e-23)
(0.962595 0.00701736 -5.57884e-24)
(0.936208 0.0148086 0)
(0.943686 0.0306821 -2.47518e-24)
(1.35042 -0.0381327 4.84686e-20)
(1.37057 -0.0863818 4.83466e-20)
(1.34965 -0.171843 -1.27856e-22)
(1.29228 -0.26664 -8.37054e-20)
(1.2033 -0.330278 3.83033e-20)
(1.11027 -0.393894 -2.22539e-22)
(1.00961 -0.396173 0)
(0.925457 -0.330358 -1.06027e-22)
(0.835281 -0.364904 -7.54493e-23)
(0.727163 -0.367729 0)
(0.784627 -0.101906 -9.15121e-21)
(0.778317 0.238685 8.62101e-21)
(0.6686 0.571568 1.73297e-22)
(0.638911 0.70367 1.5305e-20)
(0.76048 0.431272 -1.45443e-20)
(0.943659 -0.0528842 2.19909e-22)
(1.03964 -0.20439 1.41525e-22)
(1.09072 -0.115504 0)
(1.03743 -0.241964 5.26564e-21)
(0.954434 -0.474878 -4.99841e-21)
(0.968989 -0.283696 -8.74737e-22)
(0.993379 0.202698 -3.57258e-22)
(0.956251 0.51171 1.16357e-21)
(0.896874 0.512589 -4.28701e-21)
(0.867398 0.226945 -2.99514e-22)
(0.848725 -0.0539652 8.43472e-21)
(0.846991 -0.221113 -3.13467e-21)
(0.841564 -0.274383 1.66174e-21)
(0.845642 -0.234934 -1.24377e-21)
(0.878038 -0.202473 0)
(0.914751 -0.156551 0)
(0.959195 -0.0905517 0)
(0.992593 -0.0566065 -9.44744e-24)
(1.0089 -0.0241191 4.22949e-24)
(0.990113 9.39777e-05 -1.74213e-23)
(0.974917 0.00959195 1.08616e-23)
(0.945759 0.0161847 5.26109e-24)
(0.946876 0.0304101 0)
(1.28512 -0.024707 0)
(1.30085 -0.0650678 0)
(1.28835 -0.120107 0)
(1.25609 -0.195448 0)
(1.20789 -0.230195 0)
(1.13276 -0.28177 0)
(1.05541 -0.316494 0)
(0.983898 -0.251659 0)
(0.926639 -0.261489 0)
(0.783481 -0.343002 0)
(0.711901 -0.163601 0)
(0.701079 0.23046 0)
(0.618986 0.573041 0)
(0.639269 0.662949 0)
(0.862157 0.397084 0)
(1.02746 -0.0558618 0)
(1.06894 -0.218929 0)
(1.11217 -0.0985268 0)
(1.06757 -0.179464 0)
(0.979134 -0.442356 0)
(0.968495 -0.315075 0)
(1.00802 0.162147 0)
(0.991187 0.49685 0)
(0.934362 0.510625 0)
(0.906241 0.238995 0)
(0.888942 -0.0328513 0)
(0.883571 -0.200501 0)
(0.873112 -0.263501 0)
(0.867924 -0.233372 0)
(0.890502 -0.205834 0)
(0.920128 -0.163823 0)
(0.958025 -0.0980413 0)
(0.988872 -0.0615793 0)
(1.00929 -0.0250806 0)
(0.99837 0.00205665 0)
(0.987073 0.0126251 0)
(0.958925 0.0183815 0)
(0.953896 0.0304855 0)
(1.23733 -0.0258139 0)
(1.24644 -0.0714846 0)
(1.24302 -0.125783 0)
(1.20023 -0.186052 0)
(1.15685 -0.223321 0)
(1.09315 -0.280345 0)
(1.01049 -0.286156 0)
(0.922632 -0.245376 0)
(0.866967 -0.278792 0)
(0.822693 -0.271814 0)
(0.671821 -0.0524405 0)
(0.559164 0.295905 0)
(0.533396 0.567683 0)
(0.710335 0.571501 0)
(1.00634 0.278533 0)
(1.14032 -0.135668 0)
(1.12887 -0.239216 0)
(1.11714 -0.104067 0)
(1.05866 -0.192992 0)
(0.996244 -0.443932 0)
(0.994522 -0.301006 0)
(1.0256 0.177327 0)
(1.0181 0.510746 0)
(0.970038 0.528134 0)
(0.957556 0.242104 0)
(0.948429 -0.0489756 0)
(0.935551 -0.213099 0)
(0.914288 -0.269819 0)
(0.898979 -0.2377 0)
(0.910536 -0.211374 0)
(0.931798 -0.170533 0)
(0.962065 -0.104015 0)
(0.986449 -0.0661746 0)
(1.00544 -0.0263693 0)
(1.00108 0.00381424 0)
(0.994928 0.0158674 0)
(0.973019 0.0214316 0)
(0.96483 0.0311511 0)
(1.19784 -0.0230914 0)
(1.20529 -0.0653266 0)
(1.20127 -0.0950097 0)
(1.16704 -0.143681 0)
(1.13561 -0.162321 0)
(1.09033 -0.180457 0)
(1.01757 -0.207072 0)
(0.981336 -0.144376 0)
(0.896434 -0.169183 0)
(0.812304 -0.212026 0)
(0.703817 0.021335 0)
(0.592925 0.342554 0)
(0.641649 0.473613 0)
(0.910428 0.392628 0)
(1.17372 0.187067 0)
(1.21066 -0.125332 0)
(1.14962 -0.228517 0)
(1.14076 -0.070945 0)
(1.09559 -0.124874 0)
(1.0121 -0.409452 0)
(1.00773 -0.327783 0)
(1.04853 0.160361 0)
(1.05115 0.517807 0)
(1.01836 0.538216 0)
(1.01856 0.252671 0)
(1.01118 -0.0337362 0)
(0.987975 -0.192885 0)
(0.954715 -0.255189 0)
(0.928217 -0.232813 0)
(0.928322 -0.212959 0)
(0.941395 -0.176465 0)
(0.966086 -0.110236 0)
(0.985391 -0.0707688 0)
(1.00077 -0.0283292 0)
(0.999829 0.00439442 0)
(0.997035 0.0180086 0)
(0.982782 0.0240413 0)
(0.975238 0.0319661 0)
(1.1628 -0.0205556 0)
(1.16694 -0.0536271 0)
(1.15955 -0.0818696 0)
(1.13796 -0.114579 0)
(1.09708 -0.13669 0)
(1.06918 -0.153919 0)
(1.00556 -0.177868 0)
(0.962583 -0.135264 0)
(0.932855 -0.134146 0)
(0.844745 -0.153707 0)
(0.760318 0.0748476 0)
(0.750232 0.337839 0)
(0.879545 0.345663 0)
(1.09549 0.242008 0)
(1.24757 0.121774 0)
(1.23441 -0.120724 0)
(1.15509 -0.205024 0)
(1.1269 -0.0661674 0)
(1.09256 -0.12931 0)
(1.02412 -0.401179 0)
(1.01639 -0.328881 0)
(1.06334 0.150551 0)
(1.07861 0.519684 0)
(1.05682 0.550163 0)
(1.07602 0.254808 0)
(1.07681 -0.0393325 0)
(1.04138 -0.192725 0)
(0.994217 -0.250811 0)
(0.957419 -0.230157 0)
(0.947846 -0.213529 0)
(0.952688 -0.180795 0)
(0.971112 -0.115264 0)
(0.985742 -0.0744222 0)
(0.997305 -0.0299666 0)
(0.997462 0.00464686 0)
(0.99598 0.0193294 0)
(0.987765 0.0258486 0)
(0.982696 0.0326041 0)
(1.12983 -0.0190291 0)
(1.13465 -0.0457106 0)
(1.12693 -0.0652674 0)
(1.11102 -0.0881088 0)
(1.08196 -0.105811 0)
(1.05861 -0.106163 0)
(1.01896 -0.118674 0)
(0.976046 -0.0907374 0)
(0.960471 -0.0646287 0)
(0.889899 -0.0793794 0)
(0.822945 0.0772066 0)
(0.891282 0.26862 0)
(1.03099 0.23083 0)
(1.14961 0.140002 0)
(1.23839 0.101048 0)
(1.21266 -0.0788724 0)
(1.12481 -0.175382 0)
(1.11568 -0.042404 0)
(1.1164 -0.0790017 0)
(1.0323 -0.367096 0)
(1.00754 -0.345109 0)
(1.05786 0.138741 0)
(1.07365 0.521509 0)
(1.08284 0.544467 0)
(1.13355 0.25035 0)
(1.13789 -0.026783 0)
(1.08979 -0.16575 0)
(1.02974 -0.226921 0)
(0.982948 -0.217993 0)
(0.964902 -0.210064 0)
(0.962953 -0.183174 0)
(0.975742 -0.119263 0)
(0.986239 -0.0773657 0)
(0.994955 -0.0313122 0)
(0.99531 0.00486846 0)
(0.994189 0.020232 0)
(0.989549 0.0270626 0)
(0.986836 0.0330764 0)
(1.10421 -0.0167824 0)
(1.10852 -0.0356872 0)
(1.10198 -0.0501127 0)
(1.0906 -0.065689 0)
(1.0686 -0.0776281 0)
(1.04684 -0.0787573 0)
(1.02188 -0.0846741 0)
(0.985313 -0.0689187 0)
(0.974626 -0.0400529 0)
(0.941869 -0.0373049 0)
(0.895361 0.0579368 0)
(0.965015 0.178419 0)
(1.07502 0.152717 0)
(1.12619 0.0905371 0)
(1.18073 0.0767351 0)
(1.18264 -0.0473118 0)
(1.0983 -0.135011 0)
(1.07686 -0.0552143 0)
(1.11557 -0.0870657 0)
(1.03604 -0.333672 0)
(0.963834 -0.34259 0)
(1.02689 0.108338 0)
(1.06771 0.493085 0)
(1.10849 0.527174 0)
(1.17798 0.244943 0)
(1.18667 -0.0225428 0)
(1.13176 -0.152056 0)
(1.06363 -0.211205 0)
(1.00961 -0.207892 0)
(0.983702 -0.205841 0)
(0.974511 -0.184219 0)
(0.981012 -0.12237 0)
(0.986987 -0.0798338 0)
(0.993247 -0.0325833 0)
(0.993407 0.00483951 0)
(0.992574 0.0206336 0)
(0.989794 0.0275831 0)
(0.988629 0.0331977 0)
(1.0845 -0.0137698 0)
(1.08714 -0.0275625 0)
(1.08238 -0.037832 0)
(1.07353 -0.0484654 0)
(1.05815 -0.0562296 0)
(1.042 -0.0557796 0)
(1.02579 -0.0554604 0)
(1.00283 -0.0438321 0)
(0.992435 -0.0181263 0)
(0.978477 -0.00737108 0)
(0.953878 0.0459163 0)
(0.99725 0.113339 0)
(1.06952 0.103922 0)
(1.09673 0.0622875 0)
(1.12774 0.056332 0)
(1.14077 -0.0285577 0)
(1.08314 -0.0988405 0)
(1.05771 -0.0513832 0)
(1.09719 -0.0709829 0)
(1.02626 -0.276541 0)
(0.892996 -0.316953 0)
(0.915869 0.0893311 0)
(0.975423 0.46428 0)
(1.07226 0.489764 0)
(1.18613 0.222269 0)
(1.2129 -0.0118376 0)
(1.16134 -0.117378 0)
(1.09124 -0.176313 0)
(1.03415 -0.186002 0)
(1.0025 -0.19519 0)
(0.987058 -0.18146 0)
(0.987588 -0.123058 0)
(0.988662 -0.0808355 0)
(0.992362 -0.0331061 0)
(0.991904 0.00523806 0)
(0.991322 0.0212375 0)
(0.989404 0.028209 0)
(0.989121 0.0334321 0)
(1.06852 -0.0110924 0)
(1.07038 -0.0208261 0)
(1.06748 -0.0276451 0)
(1.06143 -0.0346469 0)
(1.05099 -0.0387081 0)
(1.0396 -0.0379201 0)
(1.02855 -0.035501 0)
(1.01425 -0.0268932 0)
(1.00592 -0.00874948 0)
(1.00125 0.00241744 0)
(0.992226 0.0345376 0)
(1.0151 0.0696161 0)
(1.05705 0.0698139 0)
(1.07504 0.0445805 0)
(1.09226 0.0390557 0)
(1.10546 -0.0160837 0)
(1.06477 -0.0638377 0)
(1.03477 -0.0562872 0)
(1.06387 -0.0768617 0)
(1.01359 -0.208958 0)
(0.846937 -0.243249 0)
(0.787431 0.0871696 0)
(0.863015 0.397934 0)
(1.03852 0.40702 0)
(1.1914 0.180074 0)
(1.22169 -0.0107922 0)
(1.16638 -0.0974288 0)
(1.09558 -0.155659 0)
(1.0417 -0.172081 0)
(1.0113 -0.187534 0)
(0.994522 -0.179021 0)
(0.992102 -0.123252 0)
(0.989701 -0.0814271 0)
(0.991438 -0.0336712 0)
(0.990367 0.00516617 0)
(0.990089 0.0212173 0)
(0.988679 0.0281639 0)
(0.989056 0.0332226 0)
(1.0562 -0.00876058 0)
(1.05795 -0.0153807 0)
(1.05648 -0.0197858 0)
(1.05225 -0.0244302 0)
(1.04532 -0.0263835 0)
(1.03782 -0.0256417 0)
(1.03062 -0.0221979 0)
(1.02254 -0.015728 0)
(1.01749 -0.00247121 0)
(1.01544 0.00752154 0)
(1.01273 0.0269601 0)
(1.02512 0.0444244 0)
(1.04698 0.048637 0)
(1.05885 0.0333183 0)
(1.06767 0.0288224 0)
(1.07384 -0.0103421 0)
(1.05208 -0.0376398 0)
(1.02825 -0.0452788 0)
(1.03048 -0.0677723 0)
(0.992139 -0.139909 0)
(0.857342 -0.150524 0)
(0.772977 0.0857508 0)
(0.862295 0.288874 0)
(1.0609 0.288601 0)
(1.19698 0.126801 0)
(1.21399 -0.00218675 0)
(1.16258 -0.0592278 0)
(1.10096 -0.11721 0)
(1.05336 -0.146159 0)
(1.0237 -0.172827 0)
(1.00422 -0.172387 0)
(0.997963 -0.1207 0)
(0.991574 -0.080157 0)
(0.991117 -0.0331032 0)
(0.989096 0.0058927 0)
(0.988942 0.0218002 0)
(0.987715 0.0286549 0)
(0.988667 0.0334345 0)
(1.04727 -0.00693139 0)
(1.04862 -0.0116401 0)
(1.04789 -0.0143887 0)
(1.04516 -0.0175147 0)
(1.04098 -0.017989 0)
(1.03634 -0.0171367 0)
(1.03174 -0.0135951 0)
(1.02729 -0.00853956 0)
(1.02411 0.000836116 0)
(1.02335 0.00831749 0)
(1.0231 0.0214106 0)
(1.02942 0.0298166 0)
(1.03998 0.0359423 0)
(1.04669 0.0255154 0)
(1.05168 0.0240084 0)
(1.05282 -0.00297671 0)
(1.03763 -0.0192894 0)
(1.02166 -0.0333535 0)
(1.01375 -0.0522704 0)
(0.982396 -0.0846428 0)
(0.897286 -0.0798781 0)
(0.848913 0.0766607 0)
(0.932951 0.18549 0)
(1.0882 0.189314 0)
(1.17602 0.091642 0)
(1.17972 0.00928658 0)
(1.13958 -0.0344803 0)
(1.09297 -0.0971238 0)
(1.05626 -0.133167 0)
(1.03079 -0.164217 0)
(1.01096 -0.167315 0)
(1.00251 -0.117875 0)
(0.993048 -0.0784225 0)
(0.99072 -0.0326514 0)
(0.987766 0.00593777 0)
(0.987631 0.0215144 0)
(0.986526 0.0281338 0)
(0.988134 0.0327393 0)
(1.0403 -0.00583111 0)
(1.04139 -0.00934336 0)
(1.0413 -0.0108625 0)
(1.03986 -0.0128975 0)
(1.03736 -0.0125229 0)
(1.03458 -0.0116383 0)
(1.03173 -0.00828267 0)
(1.02933 -0.00426581 0)
(1.02748 0.00289485 0)
(1.02712 0.00857704 0)
(1.02721 0.018276 0)
(1.03027 0.0223003 0)
(1.03491 0.0292674 0)
(1.03817 0.0217014 0)
(1.03966 0.0227036 0)
(1.0386 0.00295812 0)
(1.02896 -0.00594878 0)
(1.01794 -0.0199276 0)
(1.00724 -0.0347558 0)
(0.98512 -0.0452474 0)
(0.938058 -0.0400693 0)
(0.924263 0.0582014 0)
(0.984403 0.110275 0)
(1.08345 0.121797 0)
(1.13697 0.0680171 0)
(1.14117 0.0192525 0)
(1.11588 -0.010144 0)
(1.08356 -0.0719889 0)
(1.05632 -0.11326 0)
(1.03517 -0.149855 0)
(1.01585 -0.158367 0)
(1.00605 -0.112303 0)
(0.994035 -0.0745344 0)
(0.990314 -0.0305174 0)
(0.98646 0.00744937 0)
(0.986366 0.022472 0)
(0.985199 0.0287628 0)
(0.987477 0.0331149 0)
(1.03484 -0.00535874 0)
(1.03591 -0.00802887 0)
(1.03619 -0.00871838 0)
(1.03547 -0.0100872 0)
(1.03404 -0.00927525 0)
(1.03247 -0.00828151 0)
(1.03074 -0.00514172 0)
(1.02949 -0.0017331 0)
(1.02834 0.0042142 0)
(1.02814 0.00861202 0)
(1.02803 0.0167078 0)
(1.02936 0.0189013 0)
(1.03088 0.0262245 0)
(1.03212 0.0203389 0)
(1.0319 0.0235065 0)
(1.03012 0.00868526 0)
(1.02337 0.00397757 0)
(1.01597 -0.00904826 0)
(1.00662 -0.020896 0)
(0.99377 -0.0223086 0)
(0.97015 -0.023028 0)
(0.971533 0.0381635 0)
(1.0075 0.0592388 0)
(1.06756 0.0772793 0)
(1.10065 0.0511832 0)
(1.1063 0.0240475 0)
(1.09269 0.00376922 0)
(1.07241 -0.0586047 0)
(1.05424 -0.102632 0)
(1.03782 -0.140479 0)
(1.01933 -0.15068 0)
(1.00881 -0.106547 0)
(0.994868 -0.0705047 0)
(0.989722 -0.029044 0)
(0.985035 0.0074351 0)
(0.984896 0.0216456 0)
(0.983779 0.0273476 0)
(0.986748 0.0314269 0)
(1.03063 -0.00541138 0)
(1.03154 -0.00754276 0)
(1.03192 -0.00771293 0)
(1.03167 -0.00861411 0)
(1.03092 -0.00747355 0)
(1.03008 -0.00633184 0)
(1.02902 -0.00327363 0)
(1.0284 -0.000157904 0)
(1.0276 0.00522353 0)
(1.02751 0.00895544 0)
(1.02711 0.0164026 0)
(1.02763 0.0178688 0)
(1.02767 0.025561 0)
(1.02794 0.0207092 0)
(1.02682 0.0254855 0)
(1.02523 0.013306 0)
(1.02059 0.0110302 0)
(1.01624 -0.000543256 0)
(1.0092 -0.011159 0)
(1.00319 -0.00996882 0)
(0.992038 -0.0171295 0)
(0.99824 0.0229009 0)
(1.01793 0.0267663 0)
(1.05411 0.0478243 0)
(1.07407 0.0380344 0)
(1.08029 0.0252147 0)
(1.07393 0.0131308 0)
(1.06242 -0.0474773 0)
(1.05104 -0.0916158 0)
(1.03829 -0.129465 0)
(1.02047 -0.141215 0)
(1.00942 -0.0984717 0)
(0.993894 -0.0638636 0)
(0.988353 -0.0249352 0)
(0.983228 0.010273 0)
(0.983397 0.02351 0)
(0.982148 0.0285485 0)
(0.985956 0.0323117 0)
(1.02716 -0.00579046 0)
(1.02792 -0.00754762 0)
(1.02838 -0.0073905 0)
(1.02839 -0.00792823 0)
(1.02803 -0.00658875 0)
(1.02761 -0.00528789 0)
(1.02693 -0.00225662 0)
(1.02666 0.000782229 0)
(1.02604 0.00590491 0)
(1.02605 0.00940247 0)
(1.02548 0.0165536 0)
(1.02568 0.0179156 0)
(1.02512 0.0257759 0)
(1.02508 0.0217085 0)
(1.0238 0.027323 0)
(1.02276 0.0168745 0)
(1.01957 0.0156961 0)
(1.01744 0.00504188 0)
(1.01254 -0.00558338 0)
(1.01107 -0.004597 0)
(1.00565 -0.0166369 0)
(1.01287 0.0112598 0)
(1.02284 0.00621746 0)
(1.04503 0.0285634 0)
(1.05625 0.0288058 0)
(1.06123 0.0247458 0)
(1.05915 0.0175321 0)
(1.05292 -0.0411809 0)
(1.04625 -0.0842644 0)
(1.03677 -0.119936 0)
(1.01984 -0.13151 0)
(1.00918 -0.0906144 0)
(0.992989 -0.0583927 0)
(0.986644 -0.0231027 0)
(0.98125 0.00952131 0)
(0.981634 0.0214515 0)
(0.98061 0.0255419 0)
(0.985149 0.0289225 0)
(1.02417 -0.00645674 0)
(1.02477 -0.00794136 0)
(1.02518 -0.00751268 0)
(1.0253 -0.00777638 0)
(1.02511 -0.00623069 0)
(1.02494 -0.00475065 0)
(1.02445 -0.00161691 0)
(1.02442 0.00146143 0)
(1.02389 0.0066084 0)
(1.02406 0.0100287 0)
(1.02342 0.0172467 0)
(1.0237 0.0185481 0)
(1.02295 0.0267479 0)
(1.02318 0.0229684 0)
(1.02194 0.0292278 0)
(1.02179 0.0194734 0)
(1.01952 0.0187941 0)
(1.01923 0.00850589 0)