/*--------------------------------*- C++ -*----------------------------------*\
| =========                 |                                                 |
| \\      /  F ield         | OpenFOAM: The Open Source CFD Toolbox           |
|  \\    /   O peration     | Version:  2312                                  |
|   \\  /    A nd           | Website:  www.openfoam.com                      |
|    \\/     M anipulation  |                                                 |
\*---------------------------------------------------------------------------*/
FoamFile
{
    version     2.0;
    format      ascii;
    arch        "LSB;label=32;scalar=64";
    class       surfaceScalarField;
    location    "10";
    object      phi;
}
// * * * * * * * * * * * * * * * * * * * * * * * * * * * * * * * * * * * * * //

dimensions      [0 3 -1 0 0 0 0];

oriented        oriented;

internalField   nonuniform List<scalar> 
18180
(
0.00161642
-0.0191165
0.0175001
0.0129621
-0.00304349
-0.00830223
0.0274177
0.0120983
-0.0265539
0.0392872
0.0211736
-0.0330431
0.0447144
0.027771
-0.0331982
0.0495939
0.0307474
-0.0356269
0.0705651
0.00940307
-0.0303742
0.104697
-0.0367059
0.00257384
0.137157
-0.0839849
0.0515249
0.156517
-0.116325
0.0969658
0.163324
-0.131359
0.124551
0.164422
-0.137587
0.136489
0.164633
-0.140331
0.140121
0.165064
-0.142155
0.141724
0.165602
-0.143683
0.143145
0.168868
-0.146536
0.14327
0.170702
-0.148531
0.146696
0.169254
-0.149034
0.150482
0.171948
-0.150689
0.147995
-0.153118
0.15636
0.168706
0.000358434
-0.019475
0.00520365
-0.00788871
0.0135724
0.00372963
0.0257371
0.00900889
0.0372995
0.0162085
0.0593711
0.00867583
0.0967651
-0.0279909
0.133131
-0.0730714
0.155634
-0.106488
0.162415
-0.123107
0.160995
-0.129938
0.156585
-0.133177
0.152119
-0.135865
0.148622
-0.138658
0.146498
-0.141559
0.144184
-0.144222
0.142095
-0.146442
0.143506
-0.150445
0.146303
-0.153486
-0.155859
0.149044
-0.00233354
-0.0171414
0.000304506
-0.0105267
0.0113193
-0.00728521
0.0213477
-0.00101949
0.0410821
-0.00352584
0.0797955
-0.0300376
0.119485
-0.0676801
0.143954
-0.0975408
0.15041
-0.112944
0.147265
-0.119962
0.141553
-0.124225
0.137344
-0.128968
0.135162
-0.133683
0.134406
-0.137902
0.134287
-0.141439
0.135093
-0.145027
0.137779
-0.149128
0.139358
-0.152023
0.139266
-0.153394
-0.157308
0.140716
-0.00552731
-0.0116141
-0.0063873
-0.00966676
-0.00177889
-0.0118936
0.0185388
-0.0213372
0.0582707
-0.0432577
0.0989596
-0.0707265
0.123041
-0.0917613
0.128969
-0.103469
0.126825
-0.110801
0.124263
-0.1174
0.123603
-0.123565
0.124753
-0.130119
0.125411
-0.134341
0.12574
-0.13823
0.126657
-0.142357
0.12766
-0.14603
0.128319
-0.149788
0.129533
-0.153238
0.133327
-0.157188
-0.161839
0.137858
-0.0140192
0.00240507
-0.0170633
-0.00662267
0.004871
-0.0338279
0.0435163
-0.0599825
0.0784946
-0.078236
0.0979071
-0.0901389
0.103645
-0.0974987
0.104763
-0.104587
0.106144
-0.112181
0.107262
-0.118519
0.107553
-0.123857
0.10649
-0.129056
0.105285
-0.133136
0.104625
-0.137571
0.103644
-0.141375
0.103243
-0.145629
0.103775
-0.15032
0.104201
-0.153663
0.104546
-0.157534
-0.160186
0.102893
-0.0154455
0.0178506
0.0046113
-0.0266795
0.0367302
-0.0659469
0.0601681
-0.0834204
0.0726676
-0.0907355
0.078167
-0.0956383
0.0828774
-0.102209
0.0876674
-0.109377
0.0906002
-0.115114
0.0921307
-0.120049
0.0926916
-0.124417
0.0930535
-0.129418
0.093335
-0.133417
0.093559
-0.137795
0.0945376
-0.142354
0.095602
-0.146694
0.0953797
-0.150098
0.096074
-0.154358
0.0968745
-0.158334
-0.162974
0.0996621
0.0023101
0.0155405
0.0278184
-0.0521878
0.0412729
-0.0794013
0.0518394
-0.0939869
0.0593628
-0.098259
0.0666342
-0.10291
0.0719007
-0.107476
0.0740064
-0.111483
0.0750168
-0.116124
0.0753871
-0.120419
0.0759795
-0.12501
0.076713
-0.130151
0.0770091
-0.133714
0.0772723
-0.138058
0.0769706
-0.142052
0.0768728
-0.146596
0.0780521
-0.151277
0.0788583
-0.155164
0.079645
-0.159121
-0.162791
0.0794619
0.00664985
0.00889066
0.029493
-0.075031
0.0427553
-0.0926636
0.049307
-0.100539
0.0545447
-0.103497
0.0575254
-0.10589
0.0588953
-0.108846
0.0601671
-0.112755
0.0611634
-0.11712
0.06182
-0.121076
0.0619005
-0.12509
0.0611212
-0.129372
0.0606762
-0.133269
0.0603156
-0.137697
0.0596045
-0.141341
0.0586312
-0.145622
0.0566478
-0.149294
0.0553094
-0.153825
0.0548761
-0.158688
-0.162321
0.0544069
0.0228448
-0.0139541
0.034385
-0.0865712
0.0419957
-0.100274
0.0442076
-0.10275
0.0438355
-0.103125
0.044578
-0.106633
0.04615
-0.110418
0.0474129
-0.114018
0.0483819
-0.118089
0.0486617
-0.121356
0.0484466
-0.124875
0.0488165
-0.129742
0.0486447
-0.133097
0.0476894
-0.136742
0.0470996
-0.140751
0.0468158
-0.145339
0.0470334
-0.149511
0.0465458
-0.153338
0.0456223
-0.157764
-0.162334
0.0456345
0.0309564
-0.0449105
0.0330297
-0.0886445
0.0298796
-0.0971242
0.0305541
-0.103425
0.0330978
-0.105668
0.0350144
-0.108549
0.0357803
-0.111183
0.0357372
-0.113975
0.0352567
-0.117609
0.0347621
-0.120861
0.0343499
-0.124463
0.0328798
-0.128272
0.0317157
-0.131933
0.0311172
-0.136144
0.029496
-0.13913
0.0272792
-0.143122
0.0254781
-0.14771
0.0236875
-0.151547
0.0225275
-0.156604
0.0205371
-0.160343
-0.0108613
0.0717637
-0.0609024
-0.0226094
0.0705547
-0.0588066
-0.0359802
0.0646382
-0.0512674
-0.0498588
0.0622945
-0.0484159
-0.0622919
0.0582281
-0.0457951
-0.0737156
0.0525588
-0.0411351
-0.0840435
0.0463508
-0.0360229
-0.0932556
0.0384069
-0.0291948
-0.101384
0.0299921
-0.0218636
-0.108123
0.0198578
-0.013119
-0.113697
0.00875079
-0.00317623
-0.117549
-0.00282237
0.00667396
-0.118873
-0.015798
0.0171222
-0.119428
-0.0267896
0.0273448
-0.116775
-0.0406273
0.0379738
-0.113947
-0.0497396
0.0469115
-0.107288
-0.0628263
0.0561677
-0.101065
-0.0672641
0.0610404
-0.0902469
-0.0775837
0.066766
-0.0796939
-0.0758021
0.0652491
-0.00840347
0.0801672
-0.0168918
0.079043
-0.0259382
0.0736846
-0.0336127
0.069969
-0.0410412
0.0656566
-0.0478446
0.0593622
-0.0532113
0.0517176
-0.05729
0.0424856
-0.0594261
0.0321281
-0.0599725
0.0204042
-0.0574487
0.00622706
-0.0533258
-0.00694525
-0.0443185
-0.0248053
-0.0347131
-0.0363951
-0.0221296
-0.0532108
-0.00903189
-0.0628372
0.00698587
-0.078844
0.0208643
-0.0811425
0.0355568
-0.0922762
-0.0966985
0.0525613
-0.000273556
0.0804408
-0.00539787
0.0841673
-0.0103622
0.078649
-0.0149433
0.0745502
-0.0194255
0.0701388
-0.0216095
0.0615461
-0.022138
0.052246
-0.0210286
0.0413762
-0.0170347
0.0281343
-0.0106987
0.0140682
-0.000653353
-0.00381831
0.0108719
-0.0184705
0.0262788
-0.0402122
0.0438543
-0.0539706
0.0622921
-0.0716485
0.0817984
-0.0823436
0.099388
-0.0964336
0.124324
-0.106079
0.140883
-0.108835
-0.115752
0.159936
0.00215445
0.0782863
0.000816356
0.0855054
0.000416862
0.0790485
-0.000666786
0.0756338
0.00125612
0.0682159
0.00336763
0.0594346
0.0070158
0.0485979
0.0125321
0.0358599
0.0209945
0.0196718
0.031619
0.00344382
0.0469457
-0.019145
0.0634951
-0.0350199
0.0814613
-0.0581784
0.101745
-0.0742544
0.119911
-0.0898143
0.141527
-0.10396
0.15841
-0.113317
0.17053
-0.118199
0.186132
-0.124437
-0.126908
0.197288
0.00993574
0.0683506
0.0137829
0.0816583
0.0164123
0.0764191
0.0201173
0.0719287
0.0226957
0.0656375
0.0257073
0.0564231
0.0325048
0.0418003
0.0402065
0.0281582
0.0496999
0.0101783
0.063393
-0.0102492
0.0761471
-0.0318991
0.0940267
-0.0528996
0.110074
-0.0742256
0.126098
-0.0902784
0.143163
-0.106879
0.156463
-0.11726
0.167695
-0.124549
0.176942
-0.127446
0.184921
-0.132416
-0.134147
0.192161
0.0130612
0.0552894
0.0217071
0.0730123
0.0269321
0.0711941
0.0302221
0.0686387
0.0361998
0.0596598
0.0431739
0.049449
0.0506777
0.0342965
0.0603653
0.0184706
0.0693779
0.00116575
0.0802947
-0.021166
0.0908559
-0.0424603
0.105533
-0.0675762
0.1197
-0.0883929
0.136729
-0.107308
0.152751
-0.122901
0.163464
-0.127972
0.171309
-0.132395
0.181192
-0.137328
0.18711
-0.138335
-0.135298
0.188261
0.0226752
0.0326142
0.0316542
0.0640333
0.0369779
0.0658705
0.0440061
0.0616105
0.0508376
0.0528283
0.0563886
0.043898
0.0632312
0.0274539
0.0712881
0.0104137
0.0765791
-0.0041252
0.0825192
-0.0271061
0.0955737
-0.0555148
0.114064
-0.0860665
0.134193
-0.108522
0.154813
-0.127928
0.167755
-0.135843
0.1791
-0.139317
0.189938
-0.143233
0.195648
-0.143038
0.201146
-0.143833
-0.141698
0.207546
0.0274981
0.00511612
0.0426733
0.0488581
0.0507879
0.0577559
0.0570235
0.0553749
0.0599824
0.0498694
0.0671438
0.0367366
0.0729531
0.0216446
0.0703624
0.0130043
0.0717477
-0.00551046
0.0850104
-0.0403688
0.109643
-0.080147
0.134796
-0.11122
0.157731
-0.131458
0.171609
-0.141805
0.178608
-0.142843
0.185499
-0.146207
0.186585
-0.144319
0.189009
-0.145463
0.189565
-0.144389
-0.144058
0.191926
0.0155125
-0.0103964
0.0371282
0.0272424
0.0519566
0.0429275
0.0603926
0.0469389
0.0689104
0.0413516
0.0737203
0.0319266
0.0664769
0.028888
0.063947
0.0155342
0.0801445
-0.021708
0.108233
-0.0684573
0.135602
-0.107516
0.154921
-0.130538
0.164263
-0.1408
0.164691
-0.142234
0.165108
-0.14326
0.163076
-0.144175
0.159892
-0.141135
0.16236
-0.147931
0.165073
-0.147102
-0.147951
0.168967
0.00710372
0.0260439
0.0424175
0.0563133
0.0644667
0.0607664
0.0592803
0.0773883
0.107205
0.135714
0.152749
0.158699
0.158021
0.15751
0.157395
0.15649
0.162051
0.164602
0.165495
0.173904
-0.0573891
-0.109603
0.0911897
-0.0332496
-0.112576
0.0884365
-0.0100862
-0.11632
0.0931564
0.025272
-0.109156
0.0737976
0.0589385
-0.0982118
0.0645453
0.0897524
-0.0802293
0.0494154
0.115688
-0.062882
0.0369465
0.137089
-0.0479398
0.0265383
0.15398
-0.0355084
0.0186181
0.166915
-0.0265978
0.013663
0.177349
-0.0217882
0.0113537
0.186452
-0.019282
0.0101794
0.19422
-0.0164261
0.00865769
0.199931
-0.0127897
0.00707863
0.203378
-0.0105408
0.00709381
0.20541
-0.0117831
0.00975162
0.207233
-0.0159134
0.0140895
0.20943
-0.0196561
0.0174593
0.211845
-0.0196421
0.017227
0.214122
-0.0147343
0.012458
0.216092
-0.00605033
0.00408004
0.217815
0.00427594
-0.00599918
0.219322
0.0143834
-0.0158898
0.220575
0.0231613
-0.0244145
0.221551
0.0302295
-0.0312059
0.222264
0.0357325
-0.0364456
0.222755
0.0400317
-0.0405222
0.223066
0.0434904
-0.0438021
0.223235
0.046387
-0.0465551
0.223285
0.0489122
-0.0489629
0.223238
0.0511907
-0.0511433
0.223107
0.0533133
-0.0531824
0.222905
0.0553369
-0.0551353
0.222642
0.0573364
-0.0570727
0.222323
0.0593096
-0.0589904
0.221951
0.061413
-0.0610417
0.221535
0.0634203
-0.0630039
0.221067
0.0659578
-0.0654895
0.220564
0.0678663
-0.0673637
0.220001
0.0715502
-0.0709874
0.21942
0.0727135
-0.0721329
0.218767
0.0789174
-0.0782635
0.218104
0.0782842
-0.0776212
0.217377
0.0882986
-0.0875722
0.216611
0.0861633
-0.0853968
0.215827
0.0988855
-0.0981018
0.214966
0.0983684
-0.097507
0.214096
0.111826
-0.110956
0.213171
0.114031
-0.113106
0.130181
-0.129183
0.0519032
-0.108945
0.0467142
-0.107387
0.0448913
-0.114497
0.0577319
-0.121996
0.0787256
-0.119206
0.102305
-0.103809
0.123933
-0.0845102
0.143316
-0.067323
0.1593
-0.0514917
0.171032
-0.0383305
0.179509
-0.0302647
0.186896
-0.0266687
0.194133
-0.0236636
0.200199
-0.018855
0.203891
-0.014233
0.205549
-0.0134414
0.206791
-0.0171548
0.208971
-0.0218363
0.21214
-0.0228111
0.215408
-0.0180028
0.218001
-0.00864287
0.219759
0.00251818
0.220985
0.0131569
0.221878
0.0222685
0.222547
0.0295602
0.223033
0.0352462
0.223359
0.039706
0.223549
0.0433009
0.223627
0.0463087
0.223615
0.0489243
0.223527
0.0512783
0.223373
0.0534673
0.223158
0.0555518
0.222886
0.057609
0.222561
0.0596343
0.222186
0.0617875
0.221768
0.0638389
0.221299
0.0664271
0.220796
0.0683683
0.220237
0.0721093
0.21966
0.0732909
0.219012
0.079565
0.218352
0.0789442
0.217629
0.0890217
0.216867
0.0869255
0.216075
0.0996774
0.215218
0.0992262
0.214328
0.112715
0.213394
0.114965
0.131202
0.165422
-0.11443
0.159225
-0.101191
0.139053
-0.0943241
0.119153
-0.102096
0.111957
-0.11201
0.117075
-0.108927
0.1274
-0.094835
0.139718
-0.0796407
0.15294
-0.0647142
0.164726
-0.0501157
0.173533
-0.0390716
0.180584
-0.0337204
0.187679
-0.0307581
0.194471
-0.0256474
0.199166
-0.0189277
0.201148
-0.0154236
0.201932
-0.0179385
0.203727
-0.0236322
0.207453
-0.0265371
0.212211
-0.0227603
0.216507
-0.0129385
0.21942
-0.00039521
0.221119
0.0114579
0.221991
0.021396
0.222446
0.0291061
0.222713
0.0349791
0.222889
0.0395295
0.222999
0.0431906
0.223042
0.0462657
0.223016
0.0489508
0.222921
0.0513731
0.222764
0.0536243
0.222553
0.0557629
0.222292
0.0578697
0.221987
0.0599396
0.221639
0.0621356
0.221254
0.0642239
0.220825
0.0668565
0.220367
0.0688262
0.219856
0.0726197
0.21933
0.0738166
0.218741
0.0801541
0.218142
0.079544
0.217481
0.0896821
0.216787
0.0876199
0.216052
0.100413
0.215264
0.100013
0.214422
0.113558
0.213549
0.115838
0.132179
0.191918
-0.10906
0.191321
-0.100594
0.188992
-0.0919947
0.178095
-0.0911994
0.161624
-0.0955392
0.150104
-0.0974065
0.146529
-0.09126
0.147619
-0.0807316
0.153004
-0.0700987
0.161062
-0.0581739
0.168569
-0.0465782
0.174528
-0.03968
0.180561
-0.0367913
0.187492
-0.0325776
0.193684
-0.0251201
0.197213
-0.0189529
0.19833
-0.0190551
0.199269
-0.0245714
0.202085
-0.0293527
0.20691
-0.0275856
0.212242
-0.0182701
0.216478
-0.004631
0.219097
0.00883843
0.220411
0.0200821
0.220948
0.0285693
0.221133
0.0347943
0.221195
0.0394673
0.221223
0.0431625
0.221235
0.0462532
0.221225
0.0489609
0.221181
0.0514172
0.221095
0.053711
0.220961
0.0558962
0.220781
0.0580499
0.22056
0.0601611
0.220296
0.0623987
0.219998
0.0645227
0.219658
0.0671962
0.219295
0.0691892
0.218885
0.0730295
0.218463
0.0742385
0.217983
0.0806346
0.217496
0.0800309
0.21695
0.0902278
0.216382
0.0881879
0.215763
0.101032
0.215111
0.100666
0.214381
0.114287
0.213635
0.116584
0.133038
0.183022
-0.0999209
0.173523
-0.0910953
0.169592
-0.088064
0.171637
-0.0932446
0.169641
-0.0935427
0.163242
-0.0910078
0.158766
-0.0867837
0.15743
-0.079396
0.158728
-0.0713961
0.163111
-0.0625569
0.16874
-0.0522074
0.172918
-0.0438578
0.176331
-0.0402043
0.181032
-0.0372787
0.186679
-0.0307677
0.190998
-0.0232715
0.192883
-0.0209404
0.193681
-0.0253688
0.195712
-0.0313838
0.200044
-0.0319179
0.205768
-0.023994
0.211181
-0.0100436
0.214965
0.00505364
0.217136
0.017911
0.218136
0.0275693
0.21852
0.0344105
0.21866
0.0393279
0.218724
0.0430981
0.218763
0.0462142
0.21878
0.0489438
0.218768
0.051429
0.218725
0.0537543
0.21865
0.0559714
0.218542
0.0581579
0.218406
0.060297
0.218242
0.0625631
0.218054
0.0647099
0.217836
0.0674145
0.217603
0.0694227
0.217331
0.0733011
0.217056
0.0745134
0.216733
0.0809573
0.216411
0.0803533
0.216037
0.0906019
0.21565
0.0885749
0.215208
0.101474
0.21475
0.101124
0.214201
0.114836
0.213651
0.117134
0.133714
0.174495
-0.0861545
0.16963
-0.0862306
0.168067
-0.0865009
0.167704
-0.0928822
0.167673
-0.0935113
0.165014
-0.0883484
0.161131
-0.082901
0.158073
-0.0763375
0.156822
-0.0701454
0.159195
-0.0649305
0.164315
-0.0573266
0.168885
-0.0484281
0.171847
-0.0431667
0.175313
-0.040744
0.180269
-0.0357242
0.184807
-0.0278091
0.186973
-0.0231062
0.187349
-0.0257452
0.188401
-0.0324357
0.192
-0.0355165
0.197823
-0.0298178
0.204049
-0.0162694
0.208872
0.000230359
0.211962
0.0148212
0.213544
0.0259874
0.214218
0.0337364
0.214488
0.0390577
0.214644
0.0429425
0.214793
0.0460655
0.21495
0.048787
0.215099
0.0512798
0.215223
0.0536297
0.215315
0.05588
0.215373
0.0580999
0.215403
0.0602667
0.215405
0.0625612
0.215388
0.0647268
0.215347
0.0674559
0.215298
0.0694709
0.21522
0.07338
0.215144
0.0745892
0.215027
0.0810737
0.21492
0.0804607
0.214766
0.0907556
0.214616
0.0887258
0.214405
0.101684
0.2142
0.101329
0.213894
0.115142
0.2136
0.117427
0.134136
0.195244
-0.073853
0.187115
-0.0781014
0.182797
-0.0821825
0.175726
-0.0858109
0.169174
-0.0869592
0.165054
-0.0842287
0.162626
-0.0804728
0.160662
-0.0743736
0.157627
-0.0671111
0.155398
-0.0627007
0.156592
-0.0585204
0.159736
-0.0515723
0.16245
-0.0458808
0.165687
-0.0439809
0.17093
-0.0409676
0.176672
-0.0335512
0.18016
-0.0265945
0.180828
-0.026413
0.180897
-0.0325043
0.183141
-0.0377604
0.18839
-0.035067
0.195189
-0.0230686
0.201378
-0.00595871
0.20571
0.0104892
0.208243
0.0234547
0.209493
0.0324861
0.210053
0.0384982
0.210325
0.0426699
0.210517
0.0458735
0.210706
0.0485988
0.210908
0.0510776
0.21112
0.0534178
0.21133
0.0556699
0.211531
0.057899
0.211722
0.0600751
0.2119
0.0623832
0.212073
0.0645543
0.212231
0.0672974
0.212395
0.0693067
0.212541
0.0732348
0.212704
0.0744255
0.212839
0.0809385
0.212998
0.0803021
0.213119
0.0906343
0.213259
0.0885866
0.213343
0.101599
0.213448
0.101224
0.213454
0.115136
0.213482
0.1174
0.134229
0.192191
-0.0741185
0.189734
-0.0756446
0.182391
-0.0748398
0.169901
-0.0733208
0.157306
-0.0743639
0.149183
-0.0761053
0.145498
-0.0767882
0.14589
-0.0747654
0.147476
-0.0686968
0.148051
-0.0632765
0.149707
-0.0601756
0.152861
-0.054727
0.155182
-0.0482017
0.157178
-0.0459769
0.161346
-0.045135
0.167227
-0.0394328
0.171638
-0.0310054
0.172906
-0.0276812
0.172608
-0.0322055
0.173774
-0.0389272
0.178106
-0.039399
0.184789
-0.0297516
0.191698
-0.0128669
0.197036
0.0051503
0.200492
0.0199995
0.202401
0.0305771
0.203425
0.0374739
0.204064
0.042031
0.204577
0.04536
0.205056
0.0481205
0.205519
0.0506145
0.205968
0.0529685
0.206402
0.0552358
0.206825
0.0574757
0.207245
0.0596558
0.207658
0.0619704
0.208075
0.0641368
0.208489
0.0668836
0.208921
0.0688749
0.209344
0.0728121
0.209795
0.0739737
0.210229
0.0805045
0.210698
0.0798339
0.211141
0.0901906
0.211616
0.0881115
0.212046
0.101169
0.212512
0.100757
0.212884
0.114764
0.213291
0.116993
0.133939
0.161325
-0.0664768
0.154459
-0.0687788
0.148527
-0.0689076
0.143501
-0.0682942
0.139802
-0.0706651
0.136409
-0.0727128
0.132592
-0.0729712
0.130886
-0.0730588
0.132607
-0.0704183
0.135346
-0.0660151
0.138867
-0.0636971
0.143842
-0.0597013
0.14792
-0.0522801
0.149886
-0.0479433
0.152636
-0.0478847
0.157922
-0.0447185
0.163203
-0.0362866
0.165494
-0.0299718
0.165164
-0.0318758
0.165211
-0.0389745
0.168266
-0.0424543
0.174445
-0.0359305
0.181893
-0.0203149
0.188317
-0.00127391
0.192894
0.015423
0.19558
0.0278908
0.197004
0.03605
0.197796
0.0412393
0.198375
0.0447808
0.198933
0.0475621
0.199525
0.0500224
0.200149
0.0523447
0.200792
0.0545925
0.201446
0.056822
0.202111
0.0589912
0.202782
0.061299
0.203472
0.063447
0.204168
0.0661874
0.204897
0.068146
0.205627
0.0720822
0.206407
0.0731939
0.207179
0.0797325
0.208008
0.0790046
0.208822
0.0893769
0.209689
0.0872444
0.210519
0.100339
0.211405
0.0998715
0.212208
0.113962
0.213047
0.116154
0.133181
0.160753
-0.0533259
0.148215
-0.056241
0.139931
-0.0606238
0.135641
-0.0640039
0.133057
-0.0680819
0.130051
-0.0697063
0.12517
-0.0680909
0.120693
-0.0685813
0.119061
-0.0687862
0.119227
-0.0661811
0.120625
-0.0650955
0.125238
-0.0643137
0.131109
-0.0581516
0.134732
-0.0515663
0.137632
-0.050784
0.142848
-0.0499353
0.14911
-0.042548
0.152966
-0.0338276
0.153632
-0.0325428
0.153719
-0.0390611
0.156325
-0.0450607
0.16226
-0.0418652
0.169898
-0.0279526
0.177134
-0.00850994
0.182698
0.00985909
0.186418
0.0241708
0.18869
0.0337779
0.190088
0.0398408
0.191072
0.0437972
0.191914
0.0467203
0.192739
0.0491972
0.193586
0.0514983
0.194463
0.0537147
0.195369
0.0559166
0.196302
0.058058
0.197258
0.0603433
0.198249
0.0624551
0.199263
0.0651739
0.200329
0.0670801
0.20141
0.0710014
0.20256
0.0720436
0.203715
0.0785773
0.204946
0.0777738
0.206178
0.0881446
0.207477
0.0859458
0.208765
0.0990511
0.210112
0.0985239
0.211406
0.112668
0.212731
0.114829
0.1319
0.242061
-0.0457226
-0.249664
0.237497
-0.0516769
0.232717
-0.0558443
0.226581
-0.0578675
0.219398
-0.0608993
0.21247
-0.0627779
0.20645
-0.062071
0.200799
-0.0629309
0.195633
-0.0636195
0.191145
-0.0616936
0.187045
-0.0609949
0.183892
-0.0611611
0.182057
-0.0563162
0.18047
-0.0499792
0.179179
-0.0494936
0.17916
-0.0499163
0.180098
-0.0434863
0.1807
-0.0344294
0.180619
-0.0324613
0.180577
-0.0390189
0.181343
-0.0458272
0.183064
-0.0435859
0.185205
-0.0300935
0.187097
-0.0104019
0.18804
0.00891591
0.18836
0.0238507
0.188353
0.0337851
0.188273
0.0399205
0.188237
0.0438337
0.188277
0.0466794
0.188386
0.0490888
0.188545
0.0513389
0.188746
0.0535143
0.188974
0.0556885
0.189215
0.0578167
0.189466
0.0600926
0.189718
0.0622035
0.18998
0.0649115
0.190231
0.0668295
0.190502
0.0707303
0.190747
0.0717984
0.191024
0.0783005
0.191276
0.0775211
0.191542
0.0878794
0.191825
0.0856625
0.192069
0.0988069
0.192378
0.0982155
0.192618
0.112427
0.192936
0.114511
0.131645
0.248604
-0.0384925
-0.255834
0.241378
-0.0444516
0.234611
-0.0490773
0.228019
-0.0512752
0.221934
-0.0548141
0.216779
-0.0576235
0.212757
-0.0580483
0.209868
-0.0600421
0.207137
-0.0608887
0.203714
-0.0582705
0.199886
-0.0571669
0.196396
-0.0576711
0.193771
-0.0536915
0.191863
-0.0480705
0.190598
-0.0482286
0.190359
-0.0496773
0.19091
-0.0440377
0.191557
-0.0350763
0.192085
-0.0329894
0.192786
-0.0397198
0.194009
-0.0470501
0.195773
-0.0453498
0.19774
-0.032061
0.199376
-0.0120374
0.200572
0.00772001
0.20117
0.0232522
0.201364
0.0335908
0.201374
0.0399106
0.201361
0.0438467
0.201399
0.0466417
0.201503
0.0489849
0.201663
0.0511792
0.201867
0.05331
0.202103
0.0554522
0.202357
0.057563
0.202623
0.0598261
0.202894
0.0619328
0.203177
0.0646288
0.203452
0.0665544
0.203747
0.070435
0.204023
0.0715221
0.204326
0.0779975
0.204616
0.0772312
0.204908
0.0875877
0.205234
0.0853365
0.205506
0.098535
0.20586
0.0978616
0.206133
0.112154
0.206485
0.114159
0.131334
0.261477
-0.0334206
-0.266549
0.256164
-0.0391379
0.2508
-0.0437135
0.245408
-0.0458835
0.240799
-0.0502046
0.236396
-0.0532212
0.231223
-0.0528747
0.226049
-0.0548683
0.221528
-0.0563681
0.217564
-0.0543066
0.214625
-0.054228
0.21292
-0.0559661
0.211876
-0.0526473
0.210781
-0.0469749
0.209764
-0.0472114
0.209551
-0.0494642
0.210119
-0.0446064
0.210604
-0.0355616
0.210512
-0.032897
0.210191
-0.0393986
0.210299
-0.047158
0.211124
-0.0461747
0.212471
-0.0334082
0.213921
-0.0134872
0.214855
0.00678545
0.21535
0.0227575
0.215504
0.0334364
0.215495
0.0399194
0.215459
0.0438834
0.215469
0.046631
0.215553
0.0489013
0.215704
0.0510287
0.215906
0.0531071
0.216148
0.0552105
0.216413
0.0572978
0.216696
0.0595437
0.216987
0.0616415
0.217293
0.0643229
0.217597
0.0662505
0.217919
0.0701126
0.218231
0.0712101
0.218562
0.0776666
0.218894
0.076899
0.219216
0.0872657
0.219587
0.0849655
0.219897
0.0982251
0.220291
0.0974673
0.220615
0.11183
0.221012
0.113762
0.130979
0.27628
-0.0295218
-0.280178
0.271291
-0.0341497
0.266391
-0.0388127
0.261469
-0.0409616
0.256296
-0.0450319
0.251276
-0.0482011
0.246809
-0.0484076
0.242593
-0.050653
0.238323
-0.0520979
0.234449
-0.0504319
0.23125
-0.0510295
0.228344
-0.05306
0.225875
-0.0501788
0.224152
-0.0452518
0.223043
-0.0461017
0.2225
-0.0489219
0.222316
-0.044422
0.222168
-0.035414
0.22214
-0.0328687
0.22269
-0.0399482
0.223982
-0.0484498
0.225719
-0.0479125
0.227429
-0.0351175
0.228723
-0.0147815
0.229649
0.00585978
0.230158
0.0222486
0.230375
0.0332194
0.230426
0.0398679
0.23043
0.0438792
0.230461
0.0466
0.230552
0.0488105
0.230707
0.0508734
0.230916
0.0528983
0.231166
0.0549608
0.231444
0.0570193
0.231746
0.059242
0.232062
0.0613257
0.232394
0.0639911
0.232729
0.0659151
0.23308
0.069762
0.233432
0.0708578
0.233792
0.0773062
0.234173
0.076518
0.234529
0.0869097
0.23495
0.0845451
0.235307
0.097868
0.235743
0.0970311
0.236131
0.111443
0.236574
0.113318
0.130582
0.290955
-0.0257762
-0.294701
0.287146
-0.0303404
0.282609
-0.0342753
0.278018
-0.0363709
0.273554
-0.0405678
0.268913
-0.0435599
0.264162
-0.043657
0.260086
-0.046577
0.256903
-0.0489148
0.253613
-0.0471415
0.250257
-0.0476738
0.247643
-0.0504461
0.245771
-0.0483067
0.244071
-0.043552
0.24241
-0.0444402
0.241433
-0.0479456
0.241366
-0.0443544
0.241515
-0.0355631
0.241421
-0.0327752
0.24128
-0.039807
0.241443
-0.0486132
0.242191
-0.0486602
0.243402
-0.0363287
0.244676
-0.0160556
0.245567
0.0049696
0.246079
0.0217359
0.246309
0.0329894
0.246387
0.0397902
0.246418
0.043848
0.24647
0.0465486
0.246574
0.0487062
0.24674
0.0507072
0.246959
0.052679
0.247222
0.0546987
0.247518
0.0567228
0.247842
0.0589179
0.248184
0.0609841
0.248542
0.0636323
0.248912
0.0655457
0.249295
0.0693789
0.249692
0.0704605
0.250088
0.0769105
0.250523
0.0760827
0.250919
0.0865138
0.251396
0.0840683
0.251805
0.0974593
0.252296
0.0965401
0.252746
0.110993
0.253242
0.112822
0.130119
0.306292
-0.0226816
-0.309387
0.303403
-0.0274509
0.299484
-0.0303568
0.295101
-0.0319873
0.291159
-0.0366257
0.287132
-0.0395333
0.283166
-0.0396909
0.279427
-0.0428379
0.275553
-0.0450414
0.271722
-0.0433105
0.26858
-0.0445318
0.26598
-0.047846
0.263417
-0.0457436
0.261331
-0.0414663
0.260053
-0.0431621
0.25928
-0.0471727
0.258708
-0.0437816
0.258222
-0.0350771
0.257966
-0.0325195
0.258228
-0.0400689
0.259009
-0.0493946
0.260055
-0.0497061
0.261123
-0.0373962
0.26202
-0.0169526
0.262687
0.00430229
0.263101
0.0213221
0.26332
0.0327703
0.263424
0.0396865
0.263489
0.043783
0.263569
0.0464683
0.263694
0.048581
0.263876
0.0505255
0.26411
0.0524454
0.264388
0.0544205
0.264704
0.0564069
0.26505
0.0585713
0.265419
0.0606151
0.265809
0.0632424
0.266218
0.0651369
0.26664
0.0689574
0.267087
0.0700134
0.267525
0.0764726
0.268018
0.0755889
0.268463
0.0860693
0.269002
0.0835291
0.269469
0.096992
0.270027
0.0959824
0.27054
0.11048
0.271103
0.112259
0.129579
0.323221
-0.0205687
-0.325334
0.320419
-0.0246492
0.316737
-0.0266749
0.313361
-0.0286108
0.310184
-0.0334495
0.306445
-0.0357941
0.302493
-0.035739
0.298726
-0.0390703
0.295262
-0.0415773
0.29199
-0.0400392
0.288872
-0.0414136
0.286193
-0.0451666
0.28399
-0.0435413
0.282106
-0.0395825
0.280499
-0.041555
0.279272
-0.0459451
0.278551
-0.0430608
0.27814
-0.0346658
0.277838
-0.0322178
0.277773
-0.0400036
0.278083
-0.0497048
0.278729
-0.0503525
0.279544
-0.038211
0.280326
-0.0177348
0.280924
0.00370443
0.281309
0.0209366
0.281531
0.0325486
0.281657
0.0395607
0.281749
0.0436915
0.281852
0.0463646
0.281997
0.0484366
0.282194
0.0503282
0.282443
0.0521964
0.282738
0.054125
0.283075
0.0560701
0.283447
0.0581989
0.28385
0.060213
0.284276
0.0628155
0.284729
0.0646839
0.285194
0.0684928
0.285696
0.0695113
0.286183
0.0759862
0.286741
0.0750301
0.287243
0.0855678
0.287851
0.082921
0.288388
0.0964551
0.289018
0.095352
0.289604
0.109894
0.290249
0.111614
0.128958
0.341201
-0.0188621
-0.342907
0.338781
-0.0222299
0.335645
-0.0235388
0.332724
-0.0256899
0.329867
-0.0305919
0.326293
-0.0322207
0.322704
-0.03215
0.319575
-0.0359409
0.316315
-0.038317
0.312994
-0.0367189
0.31018
-0.0385991
0.307729
-0.0427158
0.305192
-0.041004
0.302885
-0.0372758
0.301325
-0.0399945
0.30028
-0.0449003
0.29936
-0.0421411
0.298548
-0.0338538
0.298041
-0.0317102
0.298024
-0.0399865
0.298445
-0.0501261
0.299053
-0.0509608
0.299654
-0.0388119
0.300167
-0.0182481
0.300563
0.00330853
0.30084
0.0206599
0.301025
0.0323639
0.301154
0.0394312
0.301265
0.0435807
0.301391
0.0462383
0.301556
0.0482716
0.301771
0.0501137
0.302037
0.0519298
0.302354
0.0538084
0.302717
0.0557073
0.30312
0.0577953
0.30356
0.0597731
0.304028
0.0623479
0.304529
0.0641821
0.305043
0.0679795
0.305607
0.0689472
0.306149
0.0754441
0.306781
0.0743979
0.307347
0.0850016
0.308034
0.082234
0.308651
0.0958386
0.309362
0.094641
0.310037
0.109219
0.310774
0.110877
0.128249
0.360438
-0.0172438
-0.362056
0.358227
-0.0200183
0.355508
-0.02082
0.353179
-0.0233608
0.350655
-0.0280685
0.347406
-0.0289717
0.34425
-0.028994
0.341394
-0.0330848
0.338338
-0.035261
0.335273
-0.0336538
0.332542
-0.0358679
0.330038
-0.040212
0.327655
-0.0386213
0.325578
-0.0351988
0.323959
-0.0383752
0.322649
-0.0435901
0.321527
-0.0410191
0.320681
-0.0330084
0.320205
-0.0312343
0.320121
-0.0399019
0.32034
-0.0503452
0.320684
-0.0513052
0.32102
-0.0391477
0.321307
-0.0185353
0.321542
0.00307351
0.321726
0.0204758
0.321873
0.0322173
0.321999
0.0393048
0.322125
0.043455
0.322272
0.0460913
0.322457
0.0480864
0.322691
0.0498797
0.32298
0.0516409
0.323324
0.0534653
0.323717
0.0553139
0.324155
0.0573568
0.324637
0.0592918
0.32515
0.0618345
0.325707
0.0636251
0.326276
0.0674102
0.32691
0.0683135
0.327516
0.0748378
0.328231
0.0736829
0.328872
0.0843612
0.329649
0.0814563
0.330355
0.0951334
0.33116
0.0938351
0.331937
0.108443
0.332778
0.110035
0.127435
0.38084
-0.015956
-0.382128
0.378945
-0.018124
0.376783
-0.0186579
0.374965
-0.021542
0.372699
-0.0258025
0.369667
-0.0259401
0.366882
-0.0262084
0.364422
-0.0306254
0.361589
-0.0324276
0.358714
-0.0307789
0.356302
-0.0334563
0.354013
-0.0379227
0.351567
-0.0361757
0.349355
-0.0329862
0.347744
-0.0367648
0.346499
-0.0423444
0.345292
-0.0398121
0.344224
-0.0319402
0.34358
-0.0305904
0.34343
-0.0397521
0.343593
-0.050508
0.3438
-0.0515125
0.343917
-0.0392645
0.343969
-0.0185871
0.344016
0.00302623
0.344083
0.0204085
0.344174
0.0321265
0.344286
0.039193
0.34442
0.0433209
0.344584
0.0459268
0.34479
0.0478802
0.345049
0.0496216
0.345365
0.051325
0.345738
0.0530921
0.346166
0.054886
0.346644
0.0568788
0.347172
0.0587629
0.347739
0.0612682
0.348359
0.0630052
0.348992
0.066777
0.349704
0.0676014
0.350384
0.0741579
0.351192
0.0728748
0.351918
0.0836357
0.352799
0.0805753
0.353604
0.0943277
0.354522
0.0929179
0.355411
0.107554
0.356374
0.109072
0.126499
0.402953
-0.0151557
-0.403754
0.401342
-0.0165129
0.399543
-0.0168588
0.39806
-0.0200593
0.395991
-0.0237333
0.393275
-0.0232235
0.390927
-0.0238608
0.388785
-0.0284838
0.386188
-0.0298306
0.383562
-0.0281529
0.381322
-0.0312165
0.379079
-0.0356789
0.376706
-0.0338028
0.374674
-0.030954
0.373173
-0.0352644
0.371839
-0.0410104
0.370441
-0.0384142
0.369258
-0.0307564
0.368602
-0.0299347
0.368456
-0.0396059
0.368524
-0.0505761
0.368532
-0.0515203
0.368394
-0.0391274
0.368197
-0.01839
0.36805
0.00317357
0.367993
0.0204656
0.368019
0.0321004
0.368108
0.0391042
0.368244
0.043185
0.368423
0.0457474
0.368652
0.0476514
0.368937
0.0493364
0.369283
0.050979
0.36969
0.0526848
0.370159
0.0544176
0.370683
0.0563539
0.371267
0.058179
0.371894
0.0606413
0.372586
0.0623139
0.373292
0.0660706
0.374093
0.0668002
0.374857
0.0733939
0.375771
0.0719605
0.376594
0.082813
0.377593
0.0795761
0.378514
0.0934072
0.379559
0.0918725
0.380577
0.106536
0.38168
0.107968
0.125424
0.426821
-0.0142603
-0.427717
0.425247
-0.0149386
0.423802
-0.0154139
0.422648
-0.018905
0.420801
-0.021887
0.418406
-0.0208282
0.416441
-0.0218963
0.414561
-0.0266032
0.412122
-0.0273919
0.409705
-0.0257354
0.407752
-0.0292633
0.405729
-0.0336559
0.403448
-0.031522
0.401473
-0.028979
0.400028
-0.0338197