/*--------------------------------*- C++ -*----------------------------------*\
| =========                 |                                                 |
| \\      /  F ield         | OpenFOAM: The Open Source CFD Toolbox           |
|  \\    /   O peration     | Version:  2312                                  |
|   \\  /    A nd           | Website:  www.openfoam.com                      |
|    \\/     M anipulation  |                                                 |
\*---------------------------------------------------------------------------*/
FoamFile
{
    version     2.0;
    format      ascii;
    arch        "LSB;label=32;scalar=64";
    class       surfaceScalarField;
    location    "33";
    object      phi;
}
// * * * * * * * * * * * * * * * * * * * * * * * * * * * * * * * * * * * * * //

dimensions      [0 3 -1 0 0 0 0];

oriented        oriented;

internalField   nonuniform List<scalar> 
10785
(
-0.000121489
0.00336103
-0.00323955
0.000705035
0.00606165
-0.00688818
0.00338491
0.00518272
-0.00786259
0.00915449
0.000451088
-0.00622067
0.0195747
-0.0085757
-0.00184452
0.0359427
-0.0218773
0.00550932
0.0586189
-0.0386315
0.0159553
0.0868275
-0.0574497
0.0292412
0.118912
-0.076941
0.0448563
0.152856
-0.0957236
0.0617802
0.186172
-0.113138
0.0798207
0.217705
-0.128269
0.0967367
0.244026
-0.141555
0.115234
0.266759
-0.151318
0.128586
-0.161434
0.148875
0.279318
-0.000201876
0.00356291
0.00114415
0.00471562
0.0058107
0.000516167
0.0159244
-0.00966265
0.0330567
-0.025708
0.0571032
-0.0459238
0.0862187
-0.0677469
0.11766
-0.088891
0.14846
-0.107741
0.17631
-0.123574
0.19945
-0.136277
0.217426
-0.146245
0.230235
-0.154364
0.240327
-0.161411
-0.168941
0.247834
9.62474e-05
0.00346666
0.00293626
0.00187561
0.0113514
-0.00789893
0.0276077
-0.025919
0.0513755
-0.0494759
0.079684
-0.0742323
0.108637
-0.0967004
0.134827
-0.115081
0.156186
-0.1291
0.172122
-0.13951
0.18344
-0.147594
0.191924
-0.154729
0.199753
-0.162194
0.208421
-0.170079
-0.179442
0.218922
0.000707695
0.00275897
0.00611556
-0.00353226
0.0196898
-0.0214732
0.041705
-0.0479342
0.0682057
-0.0759766
0.0941454
-0.100172
0.115892
-0.118447
0.132093
-0.131282
0.143411
-0.140418
0.151763
-0.147862
0.159232
-0.155063
0.167358
-0.162855
0.176313
-0.171149
0.186056
-0.179822
-0.189221
0.195836
0.00165488
0.00110409
0.0106172
-0.0124946
0.0292698
-0.0401257
0.0534588
-0.0721232
0.0768101
-0.0993279
0.0953436
-0.118706
0.108344
-0.131448
0.117307
-0.140244
0.124403
-0.147514
0.131179
-0.154638
0.138187
-0.16207
0.145138
-0.169807
0.151702
-0.177713
0.158119
-0.186239
-0.194914
0.163811
0.00297555
-0.00187146
0.0158973
-0.0254164
0.0370443
-0.0612727
0.058528
-0.0936068
0.0752923
-0.116092
0.086644
-0.130057
0.0942959
-0.1391
0.100226
-0.146174
0.105541
-0.152829
0.110533
-0.15963
0.115215
-0.166753
0.119718
-0.174309
0.124484
-0.18248
0.129515
-0.191269
-0.200584
0.135185
0.0046736
-0.00654506
0.0205277
-0.0412705
0.0403137
-0.0810587
0.0564556
-0.109749
0.0671864
-0.126823
0.0739475
-0.136818
0.0786098
-0.143762
0.0823153
-0.149879
0.0855878
-0.156102
0.0887224
-0.162765
0.0919214
-0.169952
0.0953027
-0.177691
0.0987107
-0.185888
0.102065
-0.194623
-0.203585
0.105065
0.0065216
-0.0130667
0.0230131
-0.057762
0.038936
-0.0969816
0.0498062
-0.120619
0.0561309
-0.133148
0.0597629
-0.14045
0.0621422
-0.146141
0.0640479
-0.151785
0.0658076
-0.157862
0.0674855
-0.164443
0.0690412
-0.171508
0.0704029
-0.179052
0.0716928
-0.187178
0.0729286
-0.195859
0.0742831
-0.204939
-0.00149577
0.00560401
-0.00410825
-0.00470219
0.00988839
-0.00668197
-0.00895546
0.011148
-0.00689473
-0.0138832
0.0111065
-0.00617878
-0.0193349
0.0104997
-0.00504799
-0.0253067
0.00952876
-0.00355703
-0.0318755
0.00819295
-0.00162414
-0.0391001
0.00644508
0.000779517
-0.0470409
0.00422182
0.00371899
-0.0557857
0.00141597
0.00732888
-0.0655344
-0.00189662
0.0116453
-0.0764011
-0.00584434
0.016711
-0.0884068
-0.0105551
0.0225609
-0.101596
-0.0159666
0.0291557
-0.0219993
-0.116122
0.0365251
-0.000874461
0.00647847
-0.00309453
0.0121085
-0.00623871
0.0142922
-0.00994581
0.0148136
-0.0140096
0.0145636
-0.0183663
0.0138854
-0.0230359
0.0128626
-0.028079
0.0114882
-0.0335853
0.00972812
-0.0397016
0.00753231
-0.0464655
0.00486726
-0.0540401
0.00173023
-0.0624833
-0.00211191
-0.0721924
-0.00625749
-0.0116696
-0.0825222
-0.000125035
0.00660351
-0.00103558
0.013019
-0.00264293
0.0158995
-0.00464718
0.0168179
-0.00679106
0.0167074
-0.00892314
0.0160175
-0.0109771
0.0149165
-0.0129364
0.0134475
-0.0148137
0.0116054
-0.0166634
0.00938201
-0.018378
0.00658179
-0.0202955
0.00364772
-0.0218015
-0.000605852
-0.0238209
-0.0042381
-0.0104286
-0.0250619
0.000528055
0.00607545
0.000907904
0.0126392
0.000928569
0.0158789
0.000758558
0.0169879
0.000658275
0.0168077
0.000838369
0.0158374
0.00143854
0.0143164
0.00255146
0.0123346
0.00425084
0.00990606
0.00658291
0.00704994
0.00987037
0.00329433
0.0136915
-0.000173378
0.0194086
-0.00632303
0.0257628
-0.0105922
-0.0192389
0.034573
0.000914189
0.00516126
0.00225283
0.0113005
0.00363191
0.0144998
0.00508962
0.0155302
0.00682327
0.0150741
0.00905827
0.0136024
0.0119998
0.0113748
0.0158491
0.00848533
0.0208953
0.00485985
0.0272496
0.000695633
0.0360182
-0.00547425
0.0462111
-0.0103664
0.0607221
-0.020834
0.0761603
-0.0260304
-0.0409577
0.0978791
0.000959189
0.00420208
0.00270295
0.00955675
0.00486329
0.0123394
0.00741094
0.0129825
0.010498
0.0119871
0.0143889
0.00971146
0.0194498
0.00631387
0.0261554
0.00177976
0.0352394
-0.00422415
0.0472561
-0.0113211
0.0632318
-0.02145
0.0828375
-0.029972
0.108155
-0.0461514
0.135329
-0.0532049
-0.0756232
0.169995
0.000696482
0.00350559
0.00226958
0.00798366
0.00456596
0.0100431
0.00763452
0.00991395
0.0117602
0.00786139
0.0174925
0.00397918
0.0256521
-0.0018458
0.0372308
-0.00979896
0.0529825
-0.0199758
0.0736663
-0.0320048
0.0991267
-0.0469104
0.129645
-0.0604902
0.16395
-0.080456
0.202206
-0.0914617
-0.115549
0.242132
0.000266048
0.00136153
0.003542
0.00723528
0.0132522
0.0227407
0.0368501
0.0562923
0.0811729
0.110948
0.143859
0.180105
0.214883
0.252007
0.285333
-0.127835
-0.0472211
0.0589342
-0.137999
-0.0625342
0.0726986
-0.146429
-0.0755604
0.0839904
-0.151499
-0.0889922
0.094062
-0.15158
-0.0977384
0.0978199
-0.145198
-0.101796
0.0954132
-0.131143
-0.0970586
0.0830036
-0.109374
-0.0825421
0.0607735
-0.0810556
-0.056401
0.0280824
-0.0488939
-0.0170314
-0.0151303
-0.0151872
0.0320511
-0.0657578
0.0161717
0.0934739
-0.124833
0.0418121
0.159769
-0.185409
0.0566511
0.217863
-0.232702
0.0549098
0.250528
-0.248786
0.0476442
0.258167
-0.250901
0.0645615
0.211961
-0.228879
0.111784
0.118213
-0.165435
0.164069
0.0117228
-0.0640075
0.202863
-0.0665454
0.0277507
0.224794
-0.115995
0.0940636
0.234948
-0.137456
0.127302
0.238692
-0.148641
0.144898
0.239759
-0.147796
0.146728
0.240009
-0.146998
0.146749
0.240746
-0.13708
0.136343
0.24291
-0.129802
0.127638
0.246457
-0.112909
0.109363
0.250565
-0.102976
0.0988687
0.254462
-0.0875969
0.0836999
0.257703
-0.0843564
0.0811153
0.259926
-0.0731328
0.0709095
0.260944
-0.0746541
0.0736361
0.260721
-0.0646955
0.0649181
0.259832
-0.0708533
0.0717429
0.258616
-0.0597406
0.0609565
0.257723
-0.0665935
0.0674869
-0.0473078
0.0479249
-0.0976111
-0.0321322
-0.113551
-0.0465942
-0.129526
-0.0595853
-0.14498
-0.0735381
-0.157473
-0.0852457
-0.16533
-0.0939391
-0.165996
-0.096392
-0.158121
-0.0904169
-0.140886
-0.0736359
-0.115295
-0.042623
-0.0841872
0.000943506
-0.0520513
0.0613381
-0.0239118
0.131629
-0.0064148
0.200366
0.00419505
0.239918
0.0281671
0.234195
0.0780455
0.162083
0.138285
0.0579734
0.18644
-0.0364318
0.216296
-0.096402
0.230951
-0.130649
0.236755
-0.14326
0.238519
-0.150405
0.239121
-0.148398
0.239709
-0.147586
0.240674
-0.138045
0.242488
-0.131617
0.245395
-0.115816
0.249107
-0.106689
0.252958
-0.0914481
0.256453
-0.0878506
0.259165
-0.0758457
0.260897
-0.0763857
0.261475
-0.0652739
0.261195
-0.0705732
0.260315
-0.05886
0.259335
-0.065614
-0.046507
-0.0376984
-0.0194957
-0.053505
-0.0307876
-0.0709921
-0.0420982
-0.0904405
-0.0540897
-0.110141
-0.0655457
-0.128674
-0.0754057
-0.143421
-0.0816452
-0.151812
-0.0820254
-0.150986
-0.074462
-0.139817
-0.0537923
-0.118668
-0.020205
-0.0912104
0.03388
-0.0615294
0.101948
-0.0338749
0.172712
-0.00218534
0.208228
0.0472087
0.184801
0.109758
0.0995336
0.165997
0.00173426
0.20377
-0.0742048
0.224315
-0.116947
0.23306
-0.139394
0.235909
-0.146109
0.236494
-0.150991
0.236742
-0.148645
0.23748
-0.148324
0.238908
-0.139473
0.241068
-0.133776
0.24396
-0.118709
0.247424
-0.110152
0.250999
-0.0950235
0.254357
-0.0912082
0.257172
-0.0786613
0.259346
-0.0785592
0.260644
-0.0665724
0.261142
-0.0710707
0.260932
-0.0586499
0.260328
-0.06501
-0.0458836
0.025118
-0.0100406
0.0129119
-0.0185816
-0.00151135
-0.0276749
-0.017997
-0.037604
-0.0364423
-0.0471004
-0.0561491
-0.0556989
-0.0757246
-0.0620698
-0.0929773
-0.0647727
-0.10457
-0.0628696
-0.107152
-0.05121
-0.0987012
-0.0286558
-0.0783354
0.0135142
-0.0497447
0.0733577
-0.0152986
0.138266
0.0300015
0.162928
0.0869293
0.127873
0.145077
0.0413863
0.18903
-0.042219
0.215468
-0.100643
0.227856
-0.129335
0.231963
-0.1435
0.232557
-0.146703
0.23222
-0.150654
0.232209
-0.148634
0.233005
-0.14912
0.234764
-0.141232
0.237421
-0.136433
0.240799
-0.122088
0.244603
-0.113956
0.248373
-0.098794
0.251841
-0.0946763
0.254799
-0.0816191
0.257283
-0.0810433
0.259124
-0.068413
0.26031
-0.0722571
0.260823
-0.0591622
0.260824
-0.0650112
-0.045704
0.088102
-0.000263566
0.0774934
-0.00797297
0.0651751
-0.0153566
0.0511852
-0.0236141
0.0358841
-0.0317993
0.0194677
-0.0392825
0.001817
-0.0444191
-0.0145889
-0.0483667
-0.0292504
-0.0482081
-0.0386631
-0.0417973
-0.039287
-0.0280319
-0.026467
0.000694281
-0.00236318
0.0492539
0.0344702
0.101432
0.0799507
0.117448
0.130969
0.0768541
0.17602
-0.00366413
0.206145
-0.0723444
0.221594
-0.116092
0.227141
-0.134882
0.227776
-0.144135
0.226844
-0.145772
0.225939
-0.149749
0.225817
-0.148513
0.226736
-0.150038
0.228752
-0.143249
0.231782
-0.139463
0.235646
-0.125952
0.239982
-0.118292
0.24429
-0.103101
0.248248
-0.0986348
0.251672
-0.0850429
0.254642
-0.0840132
0.257071
-0.0708419
0.258941
-0.0741274
0.260207
-0.0604286
0.260949
-0.0657532
-0.0461738
0.159705
0.010026
0.148209
0.00352385
0.135538
-0.00268571
0.12168
-0.00975698
0.106945
-0.0170642
0.0917901
-0.0241272
0.0766928
-0.0293218
0.061922
-0.0335959
0.0486994
-0.0349856
0.0382443
-0.0313422
0.0337313
-0.0235189
0.0392825
-0.0048569
0.0594333
0.0291031
0.0903567
0.070509
0.129087
0.0787173
0.169176
0.0367653
0.199452
-0.0339401
0.216395
-0.089288
0.222516
-0.122212
0.222866
-0.135233
0.221127
-0.142395
0.219275
-0.143921
0.218116
-0.148589
0.218044
-0.148441
0.219183
-0.151177
0.221512
-0.145578
0.224885
-0.142836
0.229138
-0.130205
0.23393
-0.123084
0.238792
-0.107963
0.243377
-0.103219
0.247483
-0.0891492
0.251152
-0.0876823
0.254332
-0.0740216
0.256998
-0.0767935
0.259121
-0.0625521
0.260746
-0.0673781
-0.0474835
0.232523
0.0196355
0.221015
0.015032
0.207768
0.0105609
0.193792
0.00421899
0.17922
-0.00249167
0.163986
-0.00889308
0.148889
-0.0142254
0.133713
-0.01842
0.120304
-0.021576
0.109329
-0.0203677
0.101783
-0.0159729
0.102834
-0.00590732
0.116088
0.0158489
0.141091
0.0455061
0.171121
0.0486874
0.198207
0.00967873
0.214284
-0.050017
0.219647
-0.0946509
0.218648
-0.121213
0.215484
-0.132069
0.212264
-0.139175
0.209882
-0.14154
0.208642
-0.147349
0.208738
-0.148536
0.210197
-0.152637
0.212955
-0.148335
0.216799
-0.14668
0.221544
-0.13495
0.226838
-0.128378
0.232273
-0.113398
0.237513
-0.108459
0.242376
-0.0940129
0.246853
-0.0921585
0.250905
-0.0780737
0.254485
-0.0803737
0.257588
-0.0656552
0.260238
-0.0700277
-0.0498134
0.27875
0.0262182
0.270233
0.0235485
0.260828
0.0199658
0.250027
0.01502
0.237878
0.00965745
0.225205
0.0037804
0.212497
-0.00151748
0.199033
-0.00495639
0.185722
-0.00826473
0.173767
-0.00841309
0.163584
-0.0057893
0.15927
-0.0015936
0.164789
0.0103296
0.182583
0.0277129
0.204311
0.0269587
0.219303
-0.00531261
0.221788
-0.0525019
0.217211
-0.0900744
0.210841
-0.114843
0.205367
-0.126595
0.201394
-0.135202
0.198911
-0.139057
0.197841
-0.146279
0.198207
-0.148901
0.200007
-0.154437
0.203189
-0.151517
0.207537
-0.151028
0.212857
-0.140269
0.218761
-0.134282
0.224874
-0.119512
0.230853
-0.114438
0.23655
-0.0997101
0.241907
-0.0975155
0.246916
-0.0830828
0.251501
-0.0849583
0.255688
-0.0698422
0.259477
-0.0738169
-0.0533187
0.312294
0.0293665
-0.315442
0.310294
0.0255483
0.307684
0.022576
0.303806
0.0188977
0.298853
0.0146106
0.292288
0.010345
0.28449
0.00628048
0.275696
0.00383794
0.265842
0.00158898
0.255937
0.00149157
0.246405
0.00374345
0.238903
0.00590781
0.237764
0.0114687
0.2458
0.0196774
0.261501
0.011257
0.274878
-0.0186895
0.279417
-0.05704
0.27613
-0.0867882
0.268622
-0.107334
0.259864
-0.117837
0.251592
-0.126931
0.24483
-0.132294
0.239645
-0.141094
0.236008
-0.145265
0.233595
-0.152024
0.232401
-0.150323
0.23218
-0.150807
0.232938
-0.141027
0.234401
-0.135746
0.236368
-0.121479
0.238451
-0.11652
0.240497
-0.101756
0.242352
-0.0993709
0.243999
-0.0847295
0.245275
-0.0862345
0.246198
-0.0707655
0.246732
-0.0743504
-0.0535985
0.33574
0.0295178
-0.335891
0.335223
0.0260658
0.334858
0.0229403
0.333811
0.0199451
0.331791
0.0166308
0.32849
0.0136457
0.324408
0.0103624
0.319757
0.00848861
0.314492
0.00685435
0.309284
0.00670007
0.304716
0.00831106
0.300894
0.00972923
0.300956
0.0114067
0.307156
0.0134777
0.315591
0.00282213
0.319514
-0.0226127
0.316247
-0.053773
0.307439
-0.0779797
0.296141
-0.0960369
0.285173
-0.106868
0.275975
-0.117733
0.268928
-0.125248
0.26364
-0.135806
0.259833
-0.141458
0.257221
-0.149411
0.255819
-0.148921
0.255435
-0.150423
0.256062
-0.141654
0.257434
-0.137118
0.259345
-0.12339
0.261413
-0.118587
0.26348
-0.103823
0.265371
-0.101262
0.267058
-0.0864164
0.268369
-0.087545
0.269325
-0.0717222
0.26989
-0.0749149
-0.0539104
0.360101
0.0290381
-0.359622
0.360182
0.0259849
0.360137
0.0229855
0.359696
0.0203858
0.358741
0.0175862
0.357213
0.0151737
0.355063
0.0125126
0.352755
0.0107963
0.350171
0.00943846
0.347743
0.00912831
0.346253
0.00980047
0.345335
0.0106474
0.346678
0.0100643
0.351299
0.00885669
0.355387
-0.00126617
0.354161
-0.0213871
0.346966
-0.0465773
0.336101
-0.067115
0.324413
-0.0843492
0.313797
-0.0962515
0.30484
-0.108776
0.297495
-0.117903
0.291534
-0.129846
0.286957
-0.13688
0.283695
-0.14615
0.281807
-0.147033
0.281095
-0.149711
0.281505
-0.142065
0.282741
-0.138354
0.284578
-0.125227
0.286621
-0.120631
0.28871
-0.105912
0.290639
-0.103191
0.292367
-0.0881444
0.293705
-0.0888835
0.294688
-0.0727045
0.295272
-0.0754992
-0.0542471
0.388571
0.0279509
-0.387484
0.388915
0.0256412
0.388913
0.0229874
0.388632
0.0206671
0.387975
0.0182426
0.386962
0.0161874
0.385521
0.0139534
0.383964
0.0123529
0.382396
0.011007
0.381124
0.0104005
0.380741
0.0101834
0.381027
0.0103608
0.382466
0.00862515
0.385503
0.00581987
0.387274
-0.00303714
0.384342
-0.0184545
0.376578
-0.0388141
0.366151
-0.0566881
0.355108
-0.0733058
0.344676
-0.0858198
0.335347
-0.0994463
0.327367
-0.109923
0.320851
-0.12333
0.315891
-0.131921
0.31238
-0.142639
0.31029
-0.144944
0.309393
-0.148813
0.309628
-0.142299
0.310705
-0.139431
0.312421
-0.126942
0.314388
-0.122598
0.316456
-0.10798
0.31839
-0.105126
0.320143
-0.0898967
0.321497
-0.0902383
0.322501
-0.0737084
0.323102
-0.0760995
-0.0546049
0.419734
0.026641
-0.418425
0.420453
0.0249227
0.420733
0.0227068
0.420718
0.0206824
0.420364
0.0185968
0.41972
0.0168318
0.418743
0.0149298
0.417593
0.0135029
0.41651
0.01209
0.415603
0.0113078
0.415365
0.0104211
0.415826
0.00989948
0.416776
0.00767528
0.418207
0.00438936
0.418508
-0.00333863
0.415289
-0.0152349
0.40825
-0.031775
0.398849
-0.0472878
0.388575
-0.0630311
0.378444
-0.0756894
0.369098
-0.0901002
0.360948
-0.101772
0.354163
-0.116546
0.348824
-0.126582
0.344849
-0.138663
0.342278
-0.142372
0.340948
-0.147483
0.340837
-0.142188
0.341646
-0.140241
0.343171
-0.128468
0.345008
-0.124434
0.34701
-0.109982
0.348909
-0.107025
0.350655
-0.0916432
0.352004
-0.0915865
0.353017
-0.0747219
0.353627
-0.0767092
-0.0549793
0.453523
0.0251573
-0.452039
0.454628
0.0238173
0.455292
0.0220428
0.455608
0.0203668
0.455615
0.01859
0.455348
0.0170983
0.454809
0.0154694
0.454084
0.0142277
0.453341
0.0128332
0.452676
0.0119726
0.452401
0.0106959
0.452526
0.00977441
0.452856
0.00734498
0.453195
0.00405094
0.452537
-0.00268054
0.449296
-0.011994
0.442976
-0.0254551
0.434401
-0.0387126
0.424745
-0.0533749
0.414938
-0.0658828
0.405666
-0.0808285
0.397368
-0.0934745
0.390229
-0.109407
0.384434
-0.120786
0.379991
-0.13422
0.377008
-0.13939
0.375342
-0.145816
0.37497
-0.141817
0.375567
-0.140838
0.376936
-0.129837
0.378654
-0.126152
0.38059
-0.111918
0.38244
-0.108875
0.384166
-0.093369
0.385493
-0.0929133
0.386506
-0.0757348
0.387118
-0.0773214
-0.0553642
0.49061
0.0234602
-0.488913
0.491959
0.0224684
0.49293
0.0210718
0.493563
0.0197337
0.493908
0.0182451
0.493988
0.017018
0.493841
0.0156168
0.493495
0.0145735
0.493058
0.0132706
0.492608
0.012422
0.492275
0.0110293
0.492115
0.00993434
0.491965
0.0074947
0.491513
0.00450288
0.490128
-0.00129509
0.486797
-0.00866307
0.480988
-0.0196463
0.473159
-0.0308832
0.464212
-0.0444278
0.454951
-0.0566222
0.445965
-0.0718421
0.437648
-0.0851578
0.430243
-0.102002
0.424046
-0.114588
0.419158
-0.129332
0.415735
-0.135967
0.413649
-0.143731
0.412905
-0.141073
0.413173
-0.141106
0.414281
-0.130944
0.415793
-0.127664
0.417596
-0.11372
0.419344
-0.110624
0.421012
-0.0950373
0.422288
-0.094189
0.42328
-0.0767268
0.423879
-0.0779209
-0.0557487
0.531356
0.0216728
-0.529569
0.53286
0.0209644
0.534054
0.0198779
0.534952
0.0188354
0.535587
0.0176105
0.535974
0.0166313
0.536152
0.0154389
0.536128
0.014597
0.535967
0.0134321
0.535707
0.0126822
0.53539
0.0113458
0.53503
0.0102944
0.534501
0.00802326
0.533524
0.00548065
0.531638
0.000590257
0.528205
-0.00522993
0.52283
-0.0142714
0.515719
-0.0237722
0.507478
-0.0361866
0.498712
-0.0478558
0.489916
-0.0630463
0.481523
-0.0767656
0.473867
-0.0943452
0.46733
-0.108052
0.462053
-0.124055
0.458235
-0.132149
0.455755
-0.141251
0.454657
-0.139975
0.454601
-0.141049
0.455442
-0.131786
0.456727
-0.128949
0.458363
-0.115357
0.459973
-0.112233
0.461547
-0.0966122
0.462744
-0.0953852
0.463688
-0.0776714
0.46425
-0.0784827
-0.0561148
0.576082
0.0198594
-0.574269
0.577694
0.0193531
0.579061
0.018511
0.580174
0.0177219
0.581052
0.0167322
0.581705
0.0159783
0.582156
0.0149884
0.582409
0.014344
0.582489
0.0133521
0.582401
0.0127704
0.582143
0.0116034
0.581683
0.0107547
0.580918
0.00878845
0.579612
0.00678585
0.577438
0.00276509
0.573993
-0.00178552
0.568999
-0.00927708
0.562482
-0.0172556
0.55482
-0.0285237
0.546502
-0.0395381
0.537974
-0.0545183
0.529697
-0.0684889
0.521985
-0.0866333
0.51521
-0.101277
0.509554
-0.118398
0.505294
-0.127888
0.502356
-0.138313
0.500833
-0.138453
0.500386
-0.140603
0.500904
-0.132304
0.501905
-0.129949
0.503325
-0.116777
0.504738
-0.113646
0.506173
-0.0980476
0.507242
-0.096454
0.508112
-0.0785412
0.508606
-0.0789767
-0.056437
0.625229
0.0180286
-0.623398
0.626906
0.0176764
0.628392
0.017025
0.629669
0.0164443
0.630746
0.0156552
0.631621
0.015103
0.632304
0.0143059
0.63279
0.0138576
0.63308
0.0130623
0.633158
0.0126924
0.632998
0.0117634
0.632534
0.0112193
0.631671
0.00965123
0.630225
0.00823122
0.627949
0.00504182
0.62457
0.00159312
0.619884
-0.00459095
0.613858
-0.0112299
0.606751
-0.0214167
0.598926
-0.0317126
0.590747
-0.0463393
0.582609
-0.0603508
0.574804
-0.0788291
0.567756
-0.094229
0.561715
-0.112357
0.557039
-0.123212
0.553674
-0.134948
0.551746
-0.136524
0.550912
-0.139768
0.551083
-0.132475
0.551774
-0.13064
0.552927
-0.117929
0.554104
-0.114823
0.555343
-0.0992865
0.556243
-0.097354
0.556976
-0.0792737
0.557364
-0.0793652
-0.0566819
0.679298
0.0162053
-0.677475
0.681008
0.0159668
0.682572
0.0154604
0.683972
0.0150446
0.685205
0.0144218
0.686262
0.014046
0.68714
0.013428
0.687824
0.0131744
0.688299
0.0125872
0.688535
0.0124558
0.688495
0.0118032
0.688111
0.0116041
0.687263
0.0104993
0.685797
0.00969668
0.683548
0.00729122
0.68033
0.00481061
0.675975
-0.000236274
0.670449
-0.00570319
0.663886
-0.0148543
0.656541
-0.0243667
0.648682
-0.0384809
0.640683
-0.0523518
0.632842
-0.070988
0.625613
-0.087
0.619259
-0.106003
0.614193
-0.118147
0.610388
-0.131143
0.608021
-0.134157
0.606741
-0.138489
0.606528
-0.132262
0.606845
-0.130957
0.607694
-0.118778
0.60856
-0.11569
0.609566
-0.100292
0.61022
-0.0980074
0.610797
-0.0798515
0.610988
-0.0795561
-0.056816
0.738872
0.0144219
-0.737089
0.740581
0.0142583
0.742186
0.0138551
0.743667
0.0135638
0.745016
0.0130731
0.746217
0.0128448
0.747259
0.0123856
0.748119
0.0123148
0.748772
0.0119344
0.749177
0.0120498
0.749288
0.0116927
0.749032
0.01186
0.748307
0.0112241
0.747009
0.0109952
0.744972
0.00932783
0.742022
0.00776047
0.738006
0.00378041
0.732922
-0.000619262
0.726838
-0.00877061
0.719925
-0.0174534
0.712389
-0.0309453
0.704568
-0.0445304
0.696731
-0.0631518
0.689336
-0.0796049
0.682662
-0.0993285
0.677192
-0.112677
0.672941
-0.126892
0.670134
-0.131351
0.668422
-0.136777
0.667795
-0.131635
0.667718
-0.130879
0.668191
-0.119251
0.668696
-0.116195
0.669372
-0.100968
0.669738
-0.0983736
0.670037
-0.0801509
0.670044
-0.0795634
-0.056737
0.804595
0.0126844
-0.802858
0.80629
0.0125639
0.807915
0.0122299
0.809448
0.0120305
0.810879
0.011642
0.812191
0.011533
0.813368
0.0112087
0.814384
0.0112986
0.81521
0.0111083
0.815804
0.0114564
0.816103
0.0113933
0.816034
0.0119289
0.815499
0.0117594
0.814375
0.012119
0.81254
0.0111628
0.809897
0.0104041
0.806364
0.00731345
0.801889
0.00385495
0.796358
-0.0032396
0.789932
-0.0110274
0.782741
-0.0237535
0.775097
-0.0368866
0.767242
-0.0552969
0.759663
-0.072026
0.752652
-0.0923177
0.746763
-0.106788
0.742036
-0.122165
0.738775
-0.12809
0.736591
-0.134594
0.735541
-0.130585
0.735023
-0.130361
0.735099
-0.119327
0.735167
-0.116262
0.735457
-0.101258
0.735381
-0.0982976
0.735383
-0.0801535
0.73496
-0.0791405
-0.0564844
0.877374
0.0110176
-0.875708
0.879022
0.0109167
0.880628
0.0106238
0.882177
0.0104814
0.883658
0.0101606
0.885056
0.0101358
0.886349
0.00991479
0.887517
0.0101313
0.888521
0.0101042
0.889327
0.0106505
0.88987
0.0108498
0.890094
0.0117047
0.8899
0.0119539
0.88921
0.0128089
0.887876
0.0124964
0.885783
0.0124972
0.882731
0.0103657
0.878636
0.00794977
0.873454
0.00194272
0.867415
-0.00498849
0.860509
-0.0168475
0.85299
-0.029368
0.845079
-0.0473854
0.837286
-0.0642334
0.829919
-0.0849506
0.823597
-0.100465
0.818386
-0.116954
0.814651
-0.124355
0.81199
-0.131933
0.810476
-0.129071
0.809473
-0.129358
0.80908
-0.118935
0.808639
-0.115821
0.808461
-0.10108
0.80794
-0.0977766
0.807476
-0.0796898
0.806723
-0.0783877
-0.0557414
0.957985
0.00941384
-0.956381
0.959586
0.00931594
0.961173
0.00903666
0.962729
0.00892513
0.964246
0.0086431
0.96571
0.00867177
0.967105
0.00851978
0.968408
0.00882864
0.969585
0.00892701
0.9706
0.00963575
0.971389
0.0100605
0.971894
0.0111998
0.972014
0.011834
0.971656
0.0131668
0.970682
0.0134707
0.969003
0.0141762
0.966498
0.0128703
0.963106
0.0113423
0.958787
0.00626146
0.953486
0.00031235
0.946995
-0.0103568
0.939682
-0.0220544
0.931706
-0.0394094
0.923627
-0.0561541
0.915767
-0.0770907
0.908859
-0.0935582
0.903015
-0.111109
0.89871
-0.120051
0.89551
-0.128732
0.893515
-0.127076
0.891988
-0.12783
0.891077
-0.118024
0.890001
-0.114744
0.889201
-0.100281
0.887929
-0.0965041
0.886904
-0.0786653
0.885407
-0.076891
-0.0547697
1.04816
0.00792564
-1.04667
1.04967
0.00780462
1.05119
0.00751865
1.05271
0.00740804
1.05421
0.0071358
1.05571
0.00717405
1.05718
0.00705089
1.05862
0.00738791
1.05999
0.00755573
1.06129
0.00833762
1.06244
0.00890938
1.06343
0.0102134
1.06412
0.0111377
1.06449
0.0128039
1.06432
0.0136331
1.06355
0.0149496
1.06189
0.0145265
1.05923
0.0140057
1.05529
0.0102059
1.05001
0.00558637
1.04364
-0.00398011
1.03627
-0.0146936
1.02803
-0.0311673
1.01948
-0.0476059
1.01098
-0.0685896
1.00339
-0.0859638
0.996848
-0.104568
0.991923
-0.115125
0.988153
-0.124962
0.985621
-0.124544
0.983511
-0.125721
0.981982
-0.116495
0.980209
-0.112971
0.97871
-0.0987815
0.976735
-0.0945291
0.974975
-0.0769051
0.972828
-0.0747446
-0.0528356
1.14816
0.00647771
-1.14671
1.14963
0.00633346
1.15113
0.00601582
1.15267
0.00587536
1.15423
0.00557111
1.15582
0.00558156
1.15744
0.00543945
1.15906
0.00576307
1.16067
0.00594723
1.16225
0.00675605
1.16374
0.00742065
1.16511
0.00884641
1.16623
0.0100092
1.16707
0.0119717
1.16742
0.0132837
1.16719
0.015172
1.16617
0.015547
1.16425
0.0159335
1.1612
0.0132467
1.15704
0.00975365
1.15157
0.00148804
1.14464
-0.00776762
1.13637
-0.0228943
1.1274
-0.03864
1.11808
-0.0592631
1.10946
-0.077347
1.1018
-0.0969078
1.0959
-0.109226
1.09127
-0.120332
1.08806
-0.12133
1.0852
-0.122868
1.08295
-0.114239
1.0802
-0.110226
1.0777
-0.0962758
1.07446
-0.0912959
1.07166
-0.0741069
1.06834
-0.0714188
-0.0505787
1.26293
0.00524973
-1.26171
1.2642
0.00506245
1.2655
0.00471534
1.26685
0.00453279
1.26823
0.00419267
1.26968
0.00413118
1.27118
0.00393364
1.27279
0.00415071
1.27447
0.00426962
1.27627
0.00495344
1.27812
0.00557319
1.28007
0.00690309
1.28196
0.00811398
1.28382
0.0101157
1.28538
0.0117164
1.2866
0.0139602
1.28708
0.0150616
1.28665
0.0163641
1.28481
0.0150897
1.2814
0.0131641
1.27593
0.00695092
1.26877
-0.000605598
1.25993
-0.0140552
1.24991
-0.0286217
1.23909
-0.0484384
1.22877
-0.0670243
1.21947
-0.0876082
1.21217
-0.101928
1.20647
-0.114634
1.20238
-0.117239
1.1987
-0.119191
1.19548
-0.111017
1.19158
-0.106323
1.18786
-0.092561
1.18339
-0.0868243
1.17939
-0.0701046
1.17483
-0.0668608
-0.0466767
1.39168
0.00403695
-1.39047
1.39293
0.00381441
1.39423
0.00341159
1.39561
0.00315144
1.39708
0.00272167
1.39867
0.00254141
1.40038
0.00223004
1.40224
0.0022892
1.40422
0.00228225
1.40639
0.00278333
1.40867
0.00329534
1.41111
0.00446438
1.41356
0.00566084
1.41605
0.00762906
1.41833
0.00944167
1.42032
0.0119662
1.42167
0.0137113
1.42219
0.0158407
1.4214
0.0158841
1.41912
0.0154462
1.41492
0.0111446
1.40889
0.0054319
1.40031
-0.00547617
1.38987
-0.018181
1.37774
-0.036317
1.36558
-0.0548578
1.35399
-0.0760205
1.34457
-0.0925084
1.33701
-0.107075
1.33147
-0.1117
1.32632
-0.11404
1.32161
-0.106302
1.31591
-0.100628
1.31034
-0.0869862
1.30362
-0.0801069
1.29763
-0.0641129
1.29104
-0.0602749
-0.0421041
1.54352
0.00322153
-1.54271
1.54435
0.00298785
1.54516
0.00259811
1.546
0.0023096
1.54686
0.00186885
1.54781
0.00159279
1.54883
0.00120277
1.55006
0.00105858
1.55147
0.000874042
1.55322
0.00103862
1.55525
0.00125845
1.55775
0.00197181
1.56059
0.00281669
1.56391
0.00430827
1.56748
0.00586848
1.57128
0.00816837
1.57493
0.0100621
1.5782
0.0125747
1.5804
0.0136856
1.58108
0.0147603
1.57942
0.0128108
1.57513
0.00971854
1.5674
0.00225365
1.55664
-0.00742065
1.54249
-0.0221651
1.52653
-0.0388999
1.51021
-0.0597058
1.4962
-0.0784986
1.48492
-0.0957881
1.47655
-0.103332
1.46915
-0.106635
1.46225
-0.0994072
1.45408
-0.092461
1.44591
-0.0788121
1.43666
-0.0708592
1.42847
-0.0559169
1.41979
-0.0515957
-0.0351825
1.73392
0.00251049
-1.73321
1.7346
0.00230031
1.73525
0.00194933
1.73593
0.00163026
1.73662
0.00118366
1.73742
0.000786922
1.73832
0.000305354
1.73946
-8.46473e-05
1.74076
-0.000423224
1.74243
-0.000625112
1.74441
-0.000721808
1.74692
-0.000545754
1.74992
-0.000178809
1.75349
0.000737098
1.75751
0.00185283
1.762
0.00366998
1.76668
0.00538645
1.77134
0.00791131
1.77537
0.00965472
1.77822
0.0119132
1.7789
0.0121352
1.77676
0.011854
1.77058
0.00843702
1.76001
0.00314979
1.74402
-0.00617785
1.72457
-0.0194477
1.70331
-0.0384527
1.68368
-0.0588663
1.66663
-0.0787399
1.65294
-0.0896373
1.6402
-0.0938996
1.62787
-0.0870751
1.61412
-0.0787135
1.60084
-0.0655285
1.58659
-0.056612
1.57421
-0.0435333
1.56159
-0.0389765
-0.02648
1.94761
0.00158153
-1.94668
1.94842
0.00148468
1.94904
0.0013278
1.94952
0.001151
1.94977
0.000931748
1.94989
0.00066682
1.9498
0.000394497
1.94965
7.11509e-05
1.94949
-0.000262075
1.94948
-0.000620144
1.94969
-0.000927465
1.95031
-0.0011635
1.95144
-0.00130851
1.95342
-0.00125091
1.95632
-0.00104709
1.96037
-0.000371559
1.96548
0.000274817
1.97175
0.00164255
1.97854
0.00285547
1.98574
0.00471533
1.99219
0.00568881
1.99669
0.00735145
1.99784
0.007284
1.99551
0.00547961
1.98706
0.00228029
1.97028
-0.00267556
1.94425
-0.0124187
1.91315
-0.0277702
1.88203
-0.0476171
1.85502
-0.062621
1.8304
-0.0692832
1.80801
-0.064684
1.78623
-0.0569356
1.76657
-0.0458668
1.747
-0.0370397
1.72999
-0.0265243
1.71382
-0.0228085
-0.0151884
2.3263
-2.32472
2.32779
2.32911
2.33027
2.3312
2.33186
2.33226
2.33233
2.33207
2.33145
2.33052
2.32936
2.32805
2.3268
2.32575
2.32538
2.32565
2.3273
2.33015
2.33487
2.34056
2.34791
2.35519
2.36067
2.36295
2.36028
2.34786
2.32009
2.27247
2.20985
2.14057
2.07588
2.01895
1.97308
1.93604
1.90951
1.88671
0.266911
0.0699726
-0.2626
0.27272
0.0992565
0.277013
0.130892
0.283005
0.157818
0.289993
0.188849
0.293473
0.215441
0.30375
0.237558
0.267626
0.290286
0.0654738
-0.285788
0.295537
0.0940056
0.30154
0.124889
0.306411
0.152948
0.314828
0.180432
0.320343
0.209926
0.326279
0.231621
0.258013
0.316453
0.0607193
-0.311698
0.320731
0.089727
0.32703
0.11859
0.331898
0.14808
0.338601
0.173729
0.345864
0.202663
0.351457
0.226028
0.249849
0.344312
0.0561016
-0.339694
0.348455
0.0855835
0.353971
0.113074
0.359595
0.142456
0.365234
0.16809
0.372763
0.195134
0.379737
0.219054
0.242102
0.374725
0.0519659
-0.370589
0.379113
0.0811953
0.384086
0.108101
0.390027
0.136515
0.395964
0.162153
0.403095
0.188003
0.410598
0.211551
0.234276
0.408113
0.0481608
-0.404308
0.41256
0.0767485
0.417504
0.103157
0.423323
0.130696
0.429581
0.155896
0.436425
0.181158
0.443957
0.204019
0.226194
0.444753
0.0445643
-0.441157
0.44909
0.072412
0.454027
0.0982204
0.459687
0.125036
0.46601
0.149573
0.472958
0.17421
0.480614
0.196363
0.217895
0.484784
0.0411508
-0.481371
0.489009
0.0681873
0.493915
0.0933138
0.499617
0.119334
0.506043
0.143147
0.513223
0.16703
0.521061
0.188525
0.209387
0.528632
0.0379079
-0.525389
0.532797
0.0640225
0.537698
0.0884127
0.543505
0.113527
0.550052
0.1366
0.557421
0.159661
0.565477
0.180469
0.200595
0.576742
0.0348236
-0.573658
0.580846
0.0599193
0.585751
0.0835075
0.591644