/*--------------------------------*- C++ -*----------------------------------*\
| =========                 |                                                 |
| \\      /  F ield         | OpenFOAM: The Open Source CFD Toolbox           |
|  \\    /   O peration     | Version:  2512                                  |
|   \\  /    A nd           | Website:  www.openfoam.com                      |
|    \\/     M anipulation  |                                                 |
\*---------------------------------------------------------------------------*/
FoamFile
{
    version     2.0;
    format      ascii;
    arch        "LSB;label=32;scalar=64";
    class       surfaceScalarField;
    location    "51";
    object      phi;
}
// * * * * * * * * * * * * * * * * * * * * * * * * * * * * * * * * * * * * * //

dimensions      [0 3 -1 0 0 0 0];

oriented        oriented;

internalField   nonuniform List<scalar> 
19380
(
0.874546
-4.36409e-05
0.874669
-0.000122379
0.874862
-0.000193132
0.87512
-0.000258599
0.875441
-0.0003205
0.875821
-0.000379948
0.876258
-0.000437652
0.876752
-0.000493119
0.877297
-0.000545456
0.877891
-0.00059357
0.878527
-0.000636422
0.8792
-0.000673214
0.879904
-0.000703479
0.880631
-0.000727078
0.881375
-0.00074415
0.88213
-0.00075504
0.88289
-0.000760227
0.88365
-0.00076026
0.884406
-0.000755719
0.885153
-0.000747176
0.885889
-0.000735189
0.886609
-0.000720283
0.887312
-0.000702951
0.887995
-0.000683645
0.888658
-0.000662777
0.889299
-0.00064072
0.889917
-0.000617805
0.890511
-0.000594328
0.891082
-0.000570546
0.891628
-0.000546689
0.892151
-0.000522929
0.892651
-0.000499389
0.893127
-0.00047619
0.89358
-0.00045345
0.894012
-0.000431262
0.894421
-0.0004097
0.89481
-0.000388815
0.895179
-0.00036865
0.895528
-0.000349229
-0.000330617
0.895859
0.844005
-8.54688e-05
0.844123
-0.000239595
0.844307
-0.000378067
0.844555
-0.000506269
0.844862
-0.000627658
0.845227
-0.000744412
0.845647
-0.000857969
0.846121
-0.000967326
0.846647
-0.00107071
0.847219
-0.00116595
0.847833
-0.00125097
0.848484
-0.00132416
0.849166
-0.00138459
0.84987
-0.00143193
0.850593
-0.00146643
0.851326
-0.00148875
0.852066
-0.00149982
0.852806
-0.00150069
0.853543
-0.0014925
0.854272
-0.00147635
0.854991
-0.00145335
0.855695
-0.00142452
0.856383
-0.00139083
0.857052
-0.00135317
0.857702
-0.00131235
0.85833
-0.0012691
0.858936
-0.00122408
0.85952
-0.00117789
0.86008
-0.00113103
0.860618
-0.00108396
0.861132
-0.00103704
0.861623
-0.0009905
0.862091
-0.000944597
0.862537
-0.000899566
0.862962
-0.000855592
0.863365
-0.00081283
0.863747
-0.000771384
0.86411
-0.000731345
0.864454
-0.000692766
-0.000655775
0.864779
0.814531
-0.000125208
0.814642
-0.000350793
0.814817
-0.000553514
0.815052
-0.000741483
0.815345
-0.000919966
0.815692
-0.001092
0.816094
-0.00125981
0.816549
-0.00142189
0.817054
-0.00157556
0.817605
-0.00171754
0.818199
-0.00184471
0.818829
-0.00195464
0.819491
-0.00204585
0.820177
-0.00211782
0.820881
-0.00217086
0.821598
-0.00220589
0.822323
-0.00222422
0.823049
-0.00222739
0.823774
-0.00221703
0.824492
-0.00219476
0.825201
-0.00216219
0.825897
-0.00212081
0.826579
-0.00207206
0.827243
-0.00201723
0.827888
-0.00195754
0.828513
-0.00189407
0.829116
-0.00182781
0.829698
-0.00175963
0.830257
-0.0016903
0.830794
-0.00162051
0.831308
-0.00155081
0.831799
-0.0014816
0.832268
-0.00141323
0.832714
-0.00134606
0.833139
-0.00128039
0.833542
-0.00121645
0.833925
-0.00115442
0.834289
-0.00109444
0.834632
-0.0010366
-0.000981093
0.834958
0.786085
-0.000162661
0.78619
-0.000455365
0.786355
-0.000718491
0.786576
-0.000962988
0.786852
-0.00119602
0.787181
-0.00142142
0.787564
-0.00164192
0.787998
-0.0018558
0.788481
-0.00205934
0.789012
-0.00224814
0.789585
-0.00241797
0.790196
-0.00256555
0.790839
-0.0026888
0.791508
-0.00278694
0.792198
-0.00286028
0.792902
-0.00290993
0.793615
-0.00293754
0.794333
-0.00294507
0.79505
-0.00293458
0.795764
-0.00290818
0.796469
-0.00286793
0.797164
-0.00281578
0.797846
-0.0027536
0.798512
-0.00268307
0.79916
-0.0026058
0.799789
-0.00252322
0.800398
-0.00243664
0.800986
-0.00234723
0.801551
-0.00225602
0.802095
-0.00216392
0.802616
-0.00207172
0.803114
-0.00197998
0.80359
-0.00188918
0.804044
-0.00179981
0.804476
-0.00171227
0.804886
-0.0016269
0.805276
-0.00154397
0.805645
-0.00146367
0.805994
-0.00138615
-0.00131169
0.806325
0.758632
-0.000197649
0.75873
-0.000552746
0.758883
-0.000872114
0.75909
-0.00116962
0.759348
-0.00145441
0.759658
-0.00173141
0.760019
-0.00200298
0.760432
-0.00226787
0.760893
-0.00252111
0.761402
-0.00275709
0.761955
-0.00297047
0.762546
-0.00315704
0.763172
-0.00331408
0.763825
-0.00344045
0.764501
-0.00353639
0.765194
-0.00360314
0.765899
-0.00364262
0.766611
-0.00365711
0.767326
-0.00364908
0.768039
-0.00362103
0.768746
-0.00357547
0.769445
-0.00351476
0.770133
-0.00344114
0.770807
-0.00335671
0.771464
-0.00326342
0.772104
-0.00316306
0.772725
-0.00305726
0.773325
-0.00294747
0.773904
-0.002835
0.774461
-0.002721
0.774996
-0.00260649
0.775508
-0.00249227
0.775998
-0.00237896
0.776465
-0.00226715
0.77691
-0.00215737
0.777333
-0.00205011
0.777735
-0.00194571
0.778116
-0.00184447
0.778476
-0.00174659
-0.00165244
0.778817
0.732138
-0.000230002
0.732228
-0.000642418
0.732369
-0.00101356
0.73256
-0.00136031
0.7328
-0.00169384
0.733089
-0.00202046
0.733427
-0.00234163
0.733816
-0.0026567
0.734254
-0.00295953
0.734741
-0.00324325
0.735271
-0.00350132
0.735843
-0.00372853
0.73645
-0.00392145
0.737088
-0.00407852
0.737752
-0.00419983
0.738435
-0.00428666
0.739134
-0.0043411
0.739842
-0.00436567
0.740557
-0.00436318
0.741272
-0.0043365
0.741985
-0.0042885
0.742692
-0.00422188
0.74339
-0.00413928
0.744077
-0.00404312
0.744749
-0.00393572
0.745405
-0.00381919
0.746043
-0.00369549
0.746662
-0.00356637
0.747261
-0.00343339
0.747838
-0.00329798
0.748392
-0.00316138
0.748925
-0.00302469
0.749435
-0.00288868
0.749922
-0.0027541
0.750386
-0.00262158
0.750827
-0.00249179
0.751247
-0.00236516
0.751645
-0.00224213
0.752021
-0.00212297
-0.00200818
0.752377
0.706569
-0.000259557
0.706651
-0.000723916
0.706779
-0.00114206
0.706953
-0.00153403
0.707172
-0.00191309
0.707438
-0.00228685
0.707753
-0.00265658
0.708117
-0.00302071
0.708531
-0.00337299
0.708993
-0.00370503
0.7095
-0.00400903
0.710051
-0.00427871
0.710639
-0.00450984
0.711261
-0.00470038
0.711911
-0.00485022
0.712585
-0.00496053
0.713277
-0.00503348
0.713984
-0.00507174
0.714699
-0.00507841
0.715419
-0.00505663
0.71614
-0.00500958
0.716858
-0.00494025
0.717571
-0.00485158
0.718274
-0.00474633
0.718965
-0.00462714
0.719643
-0.00449645
0.720304
-0.00435649
0.720947
-0.00420934
0.72157
-0.00405682
0.722173
-0.00390065
0.722754
-0.00374231
0.723312
-0.00358318
0.723848
-0.00342428
0.72436
-0.00326653
0.724849
-0.0031107
0.725315
-0.0029576
0.725758
-0.00280784
0.726178
-0.002662
0.726575
-0.00252045
-0.00238383
0.726951
0.681893
-0.000286162
0.681966
-0.000796817
0.68208
-0.00125692
0.682236
-0.00168987
0.682434
-0.00211095
0.682676
-0.00252911
0.682966
-0.00294613
0.683303
-0.00335822
0.68369
-0.00375959
0.684125
-0.00414048
0.684608
-0.00449166
0.685135
-0.00480566
0.685703
-0.00507744
0.686307
-0.00530445
0.686943
-0.00548624
0.687606
-0.00562377
0.688292
-0.00571917
0.688995
-0.0057752
0.689712
-0.00579516
0.690438
-0.00578237
0.691168
-0.00574021
0.6919
-0.00567191
0.692629
-0.00558065
0.693352
-0.00546949
0.694066
-0.00534134
0.694769
-0.00519895
0.695457
-0.00504481
0.696129
-0.00488129
0.696783
-0.0047105
0.697417
-0.00453446
0.698029
-0.0043549
0.69862
-0.0041735
0.699187
-0.00399157
0.699731
-0.00381027
0.70025
-0.00363051
0.700746
-0.00345329
0.701218
-0.00327937
0.701665
-0.00310956
0.702089
-0.00294432
-0.0027845
0.70249
0.658078
-0.000309693
0.658142
-0.00086074
0.658242
-0.00135758
0.658379
-0.00182695
0.658555
-0.00228636
0.658772
-0.00274604
0.659034
-0.00320814
0.659343
-0.00366766
0.659701
-0.00411732
0.660108
-0.00454737
0.660563
-0.0049468
0.661064
-0.00530687
0.661608
-0.00562176
0.662192
-0.00588834
0.662812
-0.0061057
0.663462
-0.00627444
0.66414
-0.00639657
0.664839
-0.00647487
0.665557
-0.00651274
0.666288
-0.00651358
0.667029
-0.00648086
0.667775
-0.00641792
0.668522
-0.00632817
0.669268
-0.00621488
0.670008
-0.00608122
0.670739
-0.00593014
0.671459
-0.0057644
0.672164
-0.00558664
0.672853
-0.00539925
0.673523
-0.00520457
0.674172
-0.0050046
0.6748
-0.00480133
0.675405
-0.00459635
0.675986
-0.00439119
0.676542
-0.0041869
0.677074
-0.00398472
0.67758
-0.00378556
0.678061
-0.00359051
0.678517
-0.00340015
-0.00321558
0.678948
0.635094
-0.000330039
0.635149
-0.000915388
0.635235
-0.00144355
0.635352
-0.00194457
0.635504
-0.00243839
0.635695
-0.00293649
0.635928
-0.00344099
0.636207
-0.00394683
0.636534
-0.00444425
0.63691
-0.00492332
0.637335
-0.00537172
0.637807
-0.0057794
0.638325
-0.00613977
0.638886
-0.00644903
0.639486
-0.00670563
0.640121
-0.0069097
0.640788
-0.00706309
0.641481
-0.00716855
0.642198
-0.00722945
0.642933
-0.00724907
0.643684
-0.0072309
0.644444
-0.00717831
0.645211
-0.00709485
0.64598
-0.00698393
0.646747
-0.00684887
0.64751
-0.00669278
0.648264
-0.00651863
0.649007
-0.00632932
0.649735
-0.00612752
0.650446
-0.00591588
0.651138
-0.00569668
0.651809
-0.00547224
0.652457
-0.00524443
0.653082
-0.00501522
0.65368
-0.00478588
0.654254
-0.00455794
0.654801
-0.00433245
0.655321
-0.0041108
0.655815
-0.00389378
-0.00368277
0.656282
0.612913
-0.000347106
0.612958
-0.000960579
0.613029
-0.00151446
0.613127
-0.00204216
0.613255
-0.00256632
0.613418
-0.00309946
0.61362
-0.00364341
0.613866
-0.00419329
0.614161
-0.00473844
0.614503
-0.00526593
0.614895
-0.00576349
0.615336
-0.00621997
0.615824
-0.00662803
0.616358
-0.00698293
0.616934
-0.00728233
0.617551
-0.00752587
0.618203
-0.00771528
0.618887
-0.00785311
0.6196
-0.00794255
0.620338
-0.00798661
0.621096
-0.00798868
0.62187
-0.00795209
0.622655
-0.00788044
0.623448
-0.00777715
0.624245
-0.00764555
0.625041
-0.00748888
0.625833
-0.00731023
0.626616
-0.00711276
0.627388
-0.00689935
0.628145
-0.006673
0.628885
-0.00643621
0.629604
-0.00619172
0.630301
-0.00594163
0.630975
-0.00568841
0.631622
-0.00543364
0.632244
-0.00517922
0.632837
-0.00492632
0.633403
-0.00467672
0.633941
-0.00443139
-0.00419211
0.63445
0.591506
-0.000360835
0.591542
-0.000996219
0.591598
-0.00157003
0.591675
-0.00211936
0.591778
-0.00266973
0.591913
-0.00323409
0.592084
-0.00381416
0.592296
-0.00440563
0.592555
-0.00499715
0.592862
-0.00557291
0.593217
-0.0061191
0.593622
-0.00662519
0.594077
-0.00708281
0.59458
-0.00748597
0.595129
-0.00783149
0.595722
-0.0081186
0.596356
-0.00834887
0.597027
-0.0085245
0.597733
-0.00864829
0.598469
-0.00872288
0.599232
-0.00875147
0.600017
-0.00873723
0.60082
-0.00868368
0.601637
-0.00859405
0.602463
-0.00847165
0.603294
-0.00831965
0.604125
-0.00814126
0.604952
-0.00793981
0.605771
-0.00771837
0.606578
-0.00748023
0.60737
-0.00722811
0.608144
-0.00696517
0.608896
-0.00669379
0.609624
-0.00641694
0.610327
-0.00613657
0.611003
-0.00585507
0.611651
-0.00557378
0.612269
-0.00529487
0.612857
-0.00501954
-0.00475006
0.613415
0.570847
-0.000371212
0.570873
-0.0010223
0.570913
-0.00161008
0.57097
-0.0021761
0.571049
-0.00274845
0.571154
-0.00333969
0.571292
-0.00395227
0.57147
-0.00458282
0.571691
-0.00521831
0.571959
-0.00584129
0.572276
-0.00643578
0.572642
-0.00699171
0.57306
-0.0075002
0.573527
-0.00795372
0.574044
-0.00834833
0.574609
-0.00868294
0.575219
-0.00895889
0.575872
-0.0091778
0.576566
-0.00934197
0.577296
-0.00945353
0.57806
-0.00951545
0.578854
-0.00953058
0.579672
-0.00950219
0.580511
-0.00943315
0.581366
-0.00932655
0.582232
-0.00918544
0.583104
-0.00901302
0.583977
-0.00881273
0.584846
-0.0085877
0.585707
-0.0083415
0.586556
-0.00807701
0.587389
-0.00779789
0.588202
-0.00750673
0.588992
-0.00720711
0.589757
-0.00690126
0.590494
-0.0065923
0.591202
-0.00628173
0.591879
-0.00597224
0.592525
-0.00566517
-0.00536347
0.593138
0.550909
-0.000378291
0.550926
-0.00103883
0.55095
-0.00163454
0.550987
-0.00221271
0.551041
-0.0028025
0.551117
-0.00341575
0.551222
-0.00405718
0.551363
-0.00472407
0.551545
-0.00540057
0.551772
-0.006068
0.552047
-0.00671062
0.552372
-0.00731641
0.552748
-0.00787632
0.553175
-0.00838155
0.553655
-0.00882773
0.554185
-0.00921349
0.554766
-0.00953973
0.555396
-0.0098073
0.556072
-0.0100179
0.556791
-0.0101732
0.557552
-0.0102757
0.558349
-0.0103279
0.559179
-0.0103325
0.560038
-0.0102918
0.56092
-0.0102086
0.56182
-0.0100856
0.562733
-0.00992597
0.563653
-0.00973303
0.564575
-0.00950988
0.565494
-0.00926032
0.566405
-0.00898732
0.567302
-0.00869506
0.568181
-0.00838629
0.56904
-0.00806531
0.569873
-0.00773454
0.570679
-0.00739803
0.571454
-0.00705746
0.572198
-0.0067162
0.572909
-0.00637569
-0.00603967
0.573585
0.531668
-0.000382204
0.531674
-0.00104571
0.531684
-0.00164359
0.531701
-0.00222987
0.53173
-0.00283192
0.531776
-0.00346207
0.531848
-0.00412897
0.531953
-0.00482889
0.532095
-0.00554256
0.532278
-0.0062513
0.532508
-0.00694026
0.532788
-0.00759626
0.533119
-0.00820739
0.533502
-0.00876487
0.533939
-0.0092645
0.53443
-0.00970455
0.534976
-0.0100852
0.535575
-0.0104066
0.536226
-0.0106696
0.536929
-0.0108755
0.537679
-0.0110263
0.538475
-0.0111237
0.539312
-0.0111698
0.540187
-0.0111661
0.541093
-0.0111149
0.542026
-0.0110185
0.54298
-0.0108796
0.543948
-0.0107014
0.544925
-0.0104868
0.545904
-0.0102397
0.54688
-0.00996308
0.547846
-0.00966167
0.548798
-0.00933829
0.549731
-0.00899805
0.55064
-0.00864349
0.551522
-0.00827973
0.552373
-0.00790865
0.553191
-0.0075346
0.553975
-0.00715896
-0.00678648
0.554722
0.513098
-0.000383121
0.513095
-0.00104267
0.513089
-0.00163785
0.513088
-0.00222855
0.513093
-0.00283674
0.51311
-0.00347907
0.513149
-0.00416825
0.513217
-0.0048969
0.513318
-0.00564316
0.513456
-0.00638992
0.513639
-0.00712289
0.51387
-0.00782753
0.514152
-0.00848971
0.514487
-0.00909931
0.514876
-0.00965353
0.515322
-0.0101502
0.515825
-0.0105889
0.516387
-0.0109685
0.517007
-0.0112898
0.517685
-0.0115531
0.518419
-0.0117601
0.519207
-0.0119113
0.520045
-0.0120081
0.52093
-0.0120508
0.521856
-0.0120413
0.522819
-0.011981
0.523811
-0.0118722
0.524827
-0.0117175
0.52586
-0.0115194
0.526902
-0.011282
0.527947
-0.0110079
0.528988
-0.0107025
0.530018
-0.0103685
0.531032
-0.010012
0.532024
-0.00963545
0.53299
-0.00924526
0.533924
-0.00884351
0.534826
-0.00843583
0.53569
-0.00802342
-0.00761229
0.536516
0.495177
-0.00038113
0.495164
-0.00102929
0.495144
-0.00161855
0.495125
-0.00220961
0.495106
-0.0028171
0.495095
-0.00346805
0.495102
-0.00417592
0.495133
-0.0049278
0.495192
-0.00570175
0.495285
-0.00648315
0.495419
-0.00725734
0.4956
-0.00800771
0.495829
-0.008719
0.49611
-0.00938077
0.496447
-0.00998999
0.496841
-0.0105447
0.497296
-0.0110438
0.497813
-0.0114857
0.498394
-0.0118706
0.499039
-0.0121981
0.499748
-0.0124691
0.50052
-0.0126829
0.501352
-0.0128399
0.50224
-0.0129394
0.503181
-0.0129824
0.504169
-0.012969
0.505198
-0.0129009
0.50626
-0.0127799
0.507349
-0.0126079
0.508456
-0.0123889
0.509573
-0.012125
0.510692
-0.0118221
0.511807
-0.0114827
0.512909
-0.0111139
0.513991
-0.0107181
0.515049
-0.010303
0.516076
-0.00987083
0.517069
-0.0094289
0.518024
-0.00897821
-0.00852618
0.518938
0.477881
-0.000376018
0.477857
-0.00100519
0.477826
-0.00158762
0.47779
-0.00217352
0.477747
-0.00277373
0.47771
-0.00343116
0.477687
-0.0041527
0.47768
-0.00492148
0.477697
-0.00571848
0.477745
-0.00653089
0.47783
-0.00734273
0.477958
-0.00813505
0.478131
-0.00889218
0.478355
-0.00960462
0.478634
-0.0102692
0.478971
-0.0108823
0.479371
-0.0114434
0.479836
-0.0119505
0.480369
-0.0124036
0.480972
-0.0128014
0.481647
-0.013144
0.482393
-0.0134293
0.48321
-0.0136566
0.484095
-0.0138238
0.485043
-0.0139309
0.486051
-0.0139765
0.487111
-0.0139613
0.488217
-0.0138858
0.48936
-0.0137513
0.490532
-0.0135611
0.491724
-0.0133169
0.492927
-0.0130247
0.494131
-0.0126866
0.495328
-0.0123108
0.496509
-0.0118994
0.497668
-0.0114619
0.498797
-0.0110001
0.499892
-0.0105237
0.500947
-0.0100333
-0.00953808
0.501959
0.461189
-0.000366976
0.461154
-0.000970532
0.461114
-0.00154737
0.461061
-0.00212021
0.460995
-0.00270852
0.460935
-0.00337086
0.460881
-0.00409876
0.460838
-0.0048785
0.460814
-0.00569424
0.460817
-0.00653355
0.460852
-0.00737862
0.460926
-0.00820823
0.461041
-0.00900733
0.461204
-0.00976754
0.46142
-0.0104859
0.461696
-0.0111575
0.462033
-0.0117811
0.462438
-0.0123554
0.462915
-0.0128803
0.463467
-0.0133538
0.464098
-0.0137749
0.464809
-0.0141402
0.465601
-0.014448
0.466471
-0.0146944
0.467418
-0.014878
0.468438
-0.0149958
0.469524
-0.0150472
0.470669
-0.0150309
0.471864
-0.0149472
0.473102
-0.0147983
0.47437
-0.0145852
0.475659
-0.0143139
0.476958
-0.0139857
0.478257
-0.0136099
0.479546
-0.0131881
0.480816
-0.0127315
0.482057
-0.0122418
0.483265
-0.011731
0.484431
-0.0111997
-0.0106589
0.485552
0.445077
-0.000352267
0.445033
-0.000926576
0.444986
-0.00149999
0.444915
-0.00204943
0.444831
-0.00262479
0.44475
-0.00328892
0.444665
-0.00401399
0.444587
-0.00480055
0.444523
-0.00563034
0.444481
-0.00649204
0.444468
-0.00736505
0.444486
-0.0082265
0.444542
-0.00906315
0.444642
-0.00986737
0.444792
-0.0106362
0.444999
-0.0113644
0.445269
-0.0120508
0.445606
-0.0126932
0.446018
-0.0132922
0.44651
-0.0138454
0.447086
-0.0143511
0.44775
-0.0148045
0.448505
-0.0152027
0.44935
-0.0155398
0.450286
-0.0158133
0.451307
-0.0160175
0.452411
-0.0161506
0.453589
-0.0162088
0.454833
-0.0161914
0.456133
-0.0160987
0.457479
-0.0159308
0.458858
-0.0156927
0.460257
-0.0153855
0.461666
-0.0150185
0.463071
-0.0145932
0.464462
-0.0141224
0.465828
-0.0136074
0.46716
-0.013063
0.46845
-0.0124898
-0.0119012
0.469692
0.429525
-0.000328912
0.429475
-0.000876499
0.429422
-0.00144666
0.429334
-0.00196162
0.429236
-0.00252679
0.429133
-0.00318543
0.429018
-0.00389895
0.428907
-0.00469042
0.428805
-0.00552813
0.428721
-0.00640797
0.428659
-0.00730242
0.428622
-0.0081899
0.428618
-0.00905908
0.428653
-0.00990253
0.428734
-0.0107175
0.428869
-0.0114986
0.429064
-0.0122459
0.429327
-0.0129567
0.429666
-0.0136309
0.430087
-0.0142665
0.430597
-0.0148615
0.431203
-0.0154099
0.431908
-0.0159077
0.432715
-0.0163471
0.433626
-0.016724
0.434638
-0.0170298
0.435749
-0.0172612
0.436951
-0.0174113
0.438238
-0.0174779
0.439598
-0.0174587
0.44102
-0.0173528
0.442491
-0.0171634
0.443996
-0.0168907
0.445521
-0.0165442
0.447053
-0.0161246
0.448577
-0.0156461
0.450079
-0.0151101
0.45155
-0.0145337
0.452978
-0.0139179
-0.013279
0.454356
0.414512
-0.00029244
0.414462
-0.000826423
0.414401
-0.00138634
0.414299
-0.00185907
0.41419
-0.00241803
0.414063
-0.00305894
0.41392
-0.00375595
0.413781
-0.00455122
0.413642
-0.00538882
0.413518
-0.00628394
0.413407
-0.0071912
0.413316
-0.00809964
0.413253
-0.00899516
0.413222
-0.00987231
0.413233
-0.0107281
0.413291
-0.0115572
0.413407
-0.0123616
0.413589
-0.0131385
0.413847
-0.0138884
0.414188
-0.0146077
0.414621
-0.015295
0.415155
-0.0159439
0.415797
-0.0165494
0.416552
-0.017102
0.417423
-0.0175955
0.418412
-0.0180186
0.419517
-0.0183659
0.420733
-0.0186271
0.422053
-0.018798
0.423467
-0.0188727
0.424963
-0.0188487
0.426526
-0.0187268
0.428141
-0.0185059
0.429792
-0.0181944
0.43146
-0.0177927
0.433129
-0.0173157
0.434784
-0.0167646
0.436409
-0.0161591
0.437992
-0.0155008
-0.0148091
0.439522
0.400016
-0.000236771
0.399976
-0.00078665
0.399904
-0.00131404
0.399792
-0.00174749
0.399673
-0.00229853
0.399522
-0.00290862
0.399355
-0.00358893
0.39919
-0.00438571
0.399015
-0.00521382
0.398854
-0.00612351
0.398695
-0.00703149
0.398554
-0.00795872
0.39843
-0.00887147
0.398335
-0.0097775
0.398274
-0.0106669
0.398255
-0.0115384
0.398289
-0.0123949
0.398383
-0.0132331
0.398551
-0.0140563
0.398803
-0.0148595
0.399148
-0.0156406
0.399598
-0.0163936
0.400162
-0.0171131
0.400848
-0.0177883
0.401664
-0.018411
0.402612
-0.0189674
0.403696
-0.0194491
0.404911
-0.0198422
0.406253
-0.02014
0.407712
-0.0203321
0.409277
-0.0204138
0.410932
-0.0203821
0.412661
-0.0202344
0.414443
-0.0199767
0.416259
-0.0196089
0.418089
-0.0191455
0.419913
-0.0185881
0.421712
-0.0179581
0.423469
-0.0172584
-0.0165117
0.425172
0.386018
-0.000154603
0.386003
-0.000771882
0.385909
-0.00121954
0.385799
-0.00163721
0.385662
-0.00216204
0.385492
-0.00273834
0.385304
-0.00340094
0.385115
-0.00419691
0.384906
-0.00500463
0.384714
-0.00593124
0.384505
-0.00682274
0.384319
-0.00777263
0.384134
-0.00868709
0.383978
-0.00962159
0.383844
-0.0105328
0.383748
-0.0114426
0.383697
-0.0123431
0.383701
-0.0132371
0.383773
-0.0141284
0.383925
-0.0150117
0.384172
-0.0158874
0.384524
-0.0167459
0.384995
-0.0175839
0.385596
-0.018389
0.386337
-0.0191521
0.387226
-0.0198567
0.388269
-0.0204917
0.389465
-0.0210389
0.390814
-0.0214885
0.392306
-0.0218248
0.393933
-0.0220401
0.395677
-0.0221261
0.397521
-0.0220782
0.399442
-0.0218983
0.401418
-0.0215852
0.403425
-0.0211519
0.405437
-0.0206004
0.407432
-0.0199531
0.409388
-0.0192146
-0.018411
0.411288
0.372501
-3.8792e-05
0.372529
-0.000799312
0.372397
-0.0010875
0.372303
-0.00154376
0.372136
-0.00199443
0.371959
-0.00256139
0.371747
-0.00318929
0.371541
-0.00399126
0.371297
-0.0047608
0.37108
-0.00571364
0.37082
-0.00656304
0.370598
-0.00755036
0.370349
-0.00843851
0.37014
-0.00941277
0.36993
-0.0103223
0.369762
-0.0112743
0.369621
-0.0122024
0.369534
-0.0131498
0.369504
-0.0140993
0.369551
-0.0150581
0.369687
-0.0160234
0.369929
-0.0169877
0.370291
-0.0179465
0.370789
-0.0188862
0.371435
-0.0197988
0.372244
-0.0206651
0.373223
-0.0214711
0.37438
-0.0221955
0.375715
-0.0228235
0.377224
-0.0233344
0.378899
-0.0237154
0.380726
-0.0239525
0.382685
-0.0240368
0.384752
-0.0239653
0.386901
-0.0237343
0.389102
-0.0233535
0.391327
-0.0228251
0.393545
-0.0221712
0.395729
-0.0213987
-0.0205373
0.397855
0.35945
0.000115635
0.359535
-0.000884487
0.359348
-0.000900097
0.359291
-0.00148651
0.359072
-0.00177625
0.358912
-0.0024007
0.358664
-0.00294172
0.358456
-0.00378306
0.358171
-0.00447573
0.35794
-0.00548252
0.357623
-0.00624668
0.357379
-0.00730628
0.357058
-0.00811732
0.356812
-0.00916664
0.356516
-0.0100258
0.356288
-0.0110462
0.356049
-0.0119639
0.355877
-0.0129778
0.355738
-0.0139603
0.355677
-0.0149971
0.355692
-0.0160379
0.355811
-0.0171068
0.356048
-0.0181841
0.356424
-0.0192616
0.356955
-0.0203301
0.357659
-0.0213686
0.35855
-0.0223621
0.35964
-0.023286
0.360937
-0.0241201
0.362441
-0.0248385
0.364148
-0.0254221
0.366045
-0.0258498
0.368114
-0.0261063
0.370331
-0.0261819
0.372665
-0.0260683
0.375082
-0.0257705
0.377546
-0.0252892
0.38002
-0.0246451
0.382468
-0.0238473
-0.0229286
0.38486
0.346854
0.000307825
0.347004
-0.00103423
0.346748
-0.000644016
0.346744
-0.00148241
0.346459
-0.00149097
0.346339
-0.00228118
0.346036
-0.00263891
0.345848
-0.00359462
0.345507
-0.00413458
0.345282
-0.00525776
0.344897
-0.00586153
0.344653
-0.00706241
0.344244
-0.00770786
0.343986
-0.00890944
0.343584
-0.00962322
0.343323
-0.0107854
0.342966
-0.0116067
0.34273
-0.0127422
0.342462
-0.0136923
0.342305
-0.0148398
0.34218
-0.0159127
0.342175
-0.017102
0.342264
-0.0182737
0.342503
-0.0194999
0.342894
-0.0207212
0.343467
-0.0219424
0.344241
-0.0231358
0.345236
-0.0242804
0.346463
-0.0253475
0.347933
-0.0263088
0.349647
-0.0271357
0.351597
-0.0277999
0.353768
-0.0282772
0.356135
-0.0285486
0.358665
-0.0285984
0.361319
-0.0284245
0.364053
-0.0280237
0.366822
-0.0274137
0.369579
-0.026605
-0.0256329
0.372284
0.334706
0.00052934
0.334912
-0.00124107
0.334588
-0.000319735
0.334643
-0.00153689
0.334285
-0.00113321
0.334223
-0.00221897
0.333849
-0.00226501
0.333702
-0.00344779
0.333288
-0.00372055
0.333093
-0.00506307
0.332623
-0.00539128
0.332406
-0.00684576
0.331887
-0.00718892
0.331654
-0.00867632
0.331116
-0.00908453
0.330866
-0.0105354
0.330351
-0.0110924
0.330097
-0.0124884
0.329659
-0.0132538
0.329441
-0.0146222
0.329138
-0.0156093
0.329029
-0.0169933
0.328935
-0.0181792
0.329035
-0.0196006
0.329245
-0.0209313
0.329672
-0.0223691
0.330291
-0.0237547
0.331158
-0.0251477
0.332278
-0.0264677
0.33368
-0.0277107
0.335367
-0.0288228
0.337344
-0.0297761
0.339598
-0.0305319
0.342109
-0.0310595
0.344843
-0.0313325
0.347756
-0.0313377
0.350797
-0.0310639
0.353907
-0.0305235
0.357028
-0.0297265
-0.0287104
0.360106
0.322996
0.000764462
0.323237
-0.0014823
0.322863
5.45215e-05
0.322964
-0.00163803
0.322545
-0.000713934
0.322538
-0.00221197
0.322093
-0.0018208
0.321996
-0.00335007
0.321504
-0.00322899
0.321354
-0.00491242
0.32079
-0.00482782
0.32062
-0.00667613
0.319977
-0.00654553
0.319799
-0.00849813
0.319096
-0.00838145
0.318904
-0.0103434
0.318187
-0.0103754
0.317978
-0.0122795
0.317307
-0.0125832
0.317101
-0.0144156
0.316546
-0.0150548
0.316396
-0.0168432
0.316044
-0.0178267
0.316046
-0.0196028
0.316002
-0.0208874
0.316291
-0.0226582
0.316684
-0.0241482
0.317408
-0.0258716
0.318362
-0.0274217
0.319663
-0.0290108
0.321275
-0.0304356
0.323244
-0.0317447
0.325553
-0.0328411
0.328193
-0.033699
0.331133
-0.0342725
0.334325
-0.0345301
0.337711
-0.0344497
0.341218
-0.0340311
0.344771
-0.0332792
-0.0322372
0.348298
0.311714
0.000993643
0.311957
-0.00172526
0.311563
0.00044841
0.311684
-0.00175873
0.31123
-0.000260618
0.311257
-0.00223847
0.310764
-0.00132762
0.310702
-0.00328809
0.310149
-0.00267669
0.310035
-0.0047981
0.309393
-0.00418534
0.309266
-0.00654971
0.308509
-0.00578795
0.30839
-0.00837928
0.307521
-0.00751303
0.307408
-0.0102302
0.306466
-0.00943368
0.306348
-0.0121609
0.305395
-0.0116298
0.305271
-0.0142925
0.304385
-0.0141688
0.304289
-0.0167471
0.30357
-0.0171076
0.303575
-0.0196075
0.303148
-0.0204606
0.303377
-0.0228873
0.303402
-0.0241725
0.30402
-0.0264904
0.30468
-0.0280814
0.305876
-0.0302072
0.307321
-0.0318801
0.309258
-0.0336819
0.311568
-0.0351507
0.314314
-0.0364453
0.31745
-0.037409
0.320935
-0.0380144
0.324709
-0.0382236
0.32868
-0.038002
0.33275
-0.0373493
-0.0363135
0.336826
0.300845
0.00119852
0.301054
-0.00193447
0.300675
0.000826913
0.300781
-0.00186466
0.30033
0.000190476
0.300357
-0.00226497
0.29985
-0.00082066
0.299795
-0.00323296
0.299216
-0.00209796
0.29911
-0.00469246
0.298426
-0.00350105
0.298312
-0.00643528
0.297483
-0.00495957
0.297389
-0.00828473
0.2964
-0.00652474
0.296334
-0.0101641
0.295204
-0.00830358
0.29516
-0.0121166
0.293936
-0.0104061
0.293908
-0.0142649
0.292665
-0.0129255
0.292673
-0.0167546
0.291512
-0.0159467
0.29161
-0.0197061
0.29067
-0.0195206
0.290968
-0.023185
0.29043
-0.0236349
0.291089
-0.0271492
0.291192
-0.028184
0.292396
-0.0314113
0.293423
-0.0329074
0.295379
-0.0356372
0.297536
-0.0373084
0.300402
-0.0393112
0.303691
-0.0406978
0.307476
-0.0417996
0.311682
-0.0424292
0.316183
-0.0425032
0.320886
-0.0420525
-0.0410771
0.325649
0.290369
0.00136634
0.290514
-0.00208025
0.290182
0.00115967
0.290242
-0.00192483
0.289828
0.000604691
0.289821
-0.00225872
0.289337
-0.000336061
0.289257
-0.0031534
0.288691
-0.0015316
0.28856
-0.00456118
0.287881
-0.00282202
0.287733
-0.00628735
0.286897
-0.00412437
0.286764
-0.00815089
0.28574
-0.00550101
0.285639
-0.0100638
0.28442
-0.00708432
0.28436
-0.012056
0.282966
-0.00901273
0.282948
-0.0142471
0.281432
-0.011409
0.281478
-0.0168001
0.279919
-0.0143886
0.280084
-0.0198709
0.278609
-0.0180455
0.279001
-0.023577
0.277793
-0.0224268
0.278582
-0.0279386
0.277902
-0.0275035
0.279306
-0.0328149
0.279518
-0.0331198
0.281733
-0.0378523
0.283284
-0.0388593
0.286461
-0.0424878
0.289663
-0.0438998
0.293851
-0.0459877
0.2985
-0.0470789
0.303595
-0.0475977
0.309101
-0.0475586
-0.0466953
0.314719
0.280266
0.00149089
0.280329
-0.00214292
0.280064
0.00142448
0.280057
-0.00191824
0.279706
0.000956165
0.279644
-0.00219678
0.279208
9.94832e-05
0.279083
-0.00302803
0.278558
-0.00100664
0.278376
-0.0043795
0.277741
-0.00218713
0.277521
-0.00606692
0.276741
-0.00334404
0.276502
-0.00791187
0.275538
-0.00453758
0.275303
-0.00982838
0.274127
-0.00590895
0.273915
-0.011844
0.272518
-0.00761483
0.272347
-0.0140765
0.270743
-0.00980492
0.270646
-0.016703
0.268879
-0.0126219
0.268924
-0.0199158
0.267078
-0.0161999
0.267391
-0.0238895
0.265611
-0.0206472
0.266401
-0.0287282
0.264926
-0.0260283
0.266485
-0.0343738
0.26568
-0.0323147
0.268315
-0.0404876
0.268724
-0.0392688
0.272623
-0.0463859
0.275
-0.0462768
0.280118
-0.0511061
0.284917
-0.0518783
0.290831
-0.0535109
0.297363
-0.054091
-0.0532992
0.303967
0.270519
0.00157064
0.270491
-0.00211449
0.270307
0.00160785
0.270225
-0.00183595
0.269951
0.00122972
0.269821
-0.00206668
0.269452
0.000469115
0.269269
-0.00284595
0.268803
-0.000539769
0.26856
-0.00413679
0.267991
-0.0016187
0.267679
-0.00575433
0.266995
-0.00266018
0.266607
-0.00752386
0.265783
-0.00371374
0.265327
-0.0093724
0.264327
-0.00490924
0.263826
-0.0113424
0.262612
-0.00640141
0.262097
-0.0135616
0.260646
-0.00835297
0.260167
-0.0162244
0.258471
-0.0109261
0.258113
-0.0195578
0.256207
-0.0142935
0.256108
-0.0237911
0.25408
-0.0186189
0.254477
-0.029125
0.252507
-0.0240587
0.253817
-0.0356835
0.252184
-0.0306824
0.254946
-0.0432493
0.254118
-0.038441
0.258794
-0.0510615
0.259632
-0.0471145
0.266373
-0.0578477
0.270215
-0.05572
0.278144
-0.0614396
0.285562
-0.0615095
-0.0610355
0.293298
0.261113
0.00160623
0.261005
-0.00200606
0.2609
0.00171278
0.260746
-0.00168148
0.26055
0.0014255
0.260353
-0.00187017
0.260051
0.000771305
0.259814
-0.00260928
0.259406
-0.000131619
0.25911
-0.00384035
0.258603
-0.00111197
0.258215
-0.00536597
0.257618
-0.00206327
0.257103
-0.00700924
0.256416
-0.00302612
0.255752
-0.00870862
0.254958
-0.00411523
0.254139
-0.0105236
0.25321
-0.00547263
0.252246
-0.0125979
0.25115
-0.00725696
0.250075
-0.0151488
0.248778
-0.00962881
0.247663
-0.0184431
0.246135
-0.0127657
0.245142
-0.0227981
0.243391
-0.0168673
0.242832
-0.0285665
0.240917
-0.0221436
0.241288
-0.0360546
0.239415
-0.0288092
0.241473
-0.045307
0.239951
-0.0369195
0.244702
-0.0558122
0.24414
-0.0465526
0.252356
-0.0660637
0.254195
-0.0575593
0.265683
-0.072927
0.272459
-0.0682861
-0.071698
0.283122
0.25204
0.00159499
0.251869
-0.00183458
0.25183
0.00175125
0.251616
-0.00146724
0.251485
0.00155652
0.251235
-0.00161992
0.250991
0.00101563
0.25071
-0.00232858
0.250353
0.000225639
0.250015
-0.00350301
0.249559
-0.000655209
0.24912
-0.00492751
0.248583
-0.00152604
0.247995
-0.00642151
0.247386
-0.00241727
0.246611
-0.00793314
0.245923
-0.00342783
0.244934