/*--------------------------------*- C++ -*----------------------------------*\
| =========                 |                                                 |
| \\      /  F ield         | OpenFOAM: The Open Source CFD Toolbox           |
|  \\    /   O peration     | Version:  2312                                  |
|   \\  /    A nd           | Website:  www.openfoam.com                      |
|    \\/     M anipulation  |                                                 |
\*---------------------------------------------------------------------------*/
FoamFile
{
    version     2.0;
    format      ascii;
    arch        "LSB;label=32;scalar=64";
    class       volScalarField;
    location    "45.15";
    object      p;
}
// * * * * * * * * * * * * * * * * * * * * * * * * * * * * * * * * * * * * * //

dimensions      [0 2 -2 0 0 0 0];

internalField   nonuniform List<scalar> 
5478
(
-0.350048
-0.349083
-0.344877
-0.338724
-0.331901
-0.324966
-0.318543
-0.312772
-0.307422
-0.301872
-0.295547
-0.286878
-0.276775
-0.263254
-0.247564
-0.357883
-0.355794
-0.351412
-0.345628
-0.33873
-0.330628
-0.321392
-0.311342
-0.300658
-0.289373
-0.277311
-0.264723
-0.25168
-0.237402
-0.223069
-0.3697
-0.365616
-0.360257
-0.353742
-0.345296
-0.334143
-0.320684
-0.305887
-0.29064
-0.275481
-0.260757
-0.246296
-0.231795
-0.21697
-0.202084
-0.385496
-0.378891
-0.371657
-0.36307
-0.35091
-0.334981
-0.316801
-0.298025
-0.279692
-0.262276
-0.245662
-0.229756
-0.214403
-0.199459
-0.185449
-0.406286
-0.396315
-0.386636
-0.373691
-0.355399
-0.333639
-0.310993
-0.28901
-0.268368
-0.249162
-0.23135
-0.214737
-0.198977
-0.184129
-0.169824
-0.432915
-0.417939
-0.404565
-0.384262
-0.357969
-0.330114
-0.303344
-0.278621
-0.256101
-0.235665
-0.217009
-0.199835
-0.183959
-0.169218
-0.155168
-0.463803
-0.443103
-0.422078
-0.391666
-0.356884
-0.323298
-0.292852
-0.265755
-0.241702
-0.220259
-0.201062
-0.183808
-0.168186
-0.15397
-0.140435
-0.49274
-0.467881
-0.434829
-0.392697
-0.350007
-0.311467
-0.277918
-0.248914
-0.223745
-0.201776
-0.182463
-0.165423
-0.150409
-0.137009
-0.124765
-0.387316
-0.38887
-0.389266
-0.389871
-0.390993
-0.392645
-0.39486
-0.397737
-0.401466
-0.406352
-0.41284
-0.421461
-0.43266
-0.446274
-0.461063
-0.378266
-0.378597
-0.377933
-0.377251
-0.376901
-0.377047
-0.377945
-0.380045
-0.384016
-0.390654
-0.400845
-0.415213
-0.434167
-0.458503
-0.482809
-0.370943
-0.370153
-0.368537
-0.366642
-0.364888
-0.36361
-0.363221
-0.364259
-0.367785
-0.3747
-0.385946
-0.402769
-0.423347
-0.451609
-0.478216
-0.364406
-0.362829
-0.360335
-0.357078
-0.353681
-0.350683
-0.348634
-0.348253
-0.350457
-0.35637
-0.36618
-0.382525
-0.400843
-0.427067
-0.45025
-0.358207
-0.356412
-0.353079
-0.348296
-0.342957
-0.337922
-0.333943
-0.331855
-0.332513
-0.337258
-0.346025
-0.36145
-0.378427
-0.40107
-0.419738
-0.352468
-0.351094
-0.347055
-0.340796
-0.333556
-0.326582
-0.321
-0.31792
-0.318287
-0.322982
-0.331593
-0.344947
-0.358648
-0.373627
-0.383291
-0.348211
-0.347251
-0.342899
-0.335677
-0.327411
-0.319679
-0.31387
-0.311038
-0.311597
-0.315303
-0.321562
-0.329295
-0.335973
-0.340934
-0.339284
-0.346863
-0.346175
-0.341776
-0.33476
-0.326724
-0.319561
-0.314123
-0.310868
-0.309785
-0.309895
-0.310735
-0.310043
-0.306998
-0.300969
-0.291694
-0.493995
-0.5186
-0.465872
-0.351127
-0.250702
-0.198734
-0.179394
-0.234146
-0.266205
-0.216804
-0.164709
-0.156144
-0.167483
-0.212696
-0.284537
-0.302123
-0.251039
-0.172987
-0.108866
-0.0653449
-0.0349259
-0.0196077
-0.00949687
-0.00309581
-0.000749465
0.000646415
0.00298316
0.00195409
0.00173884
0.002027
0.000645989
-0.000305712
9.26113e-05
-0.000137222
-0.000497783
-0.000156304
4.35941e-05
-3.53019e-06
-0.5297
-0.566733
-0.511321
-0.384877
-0.267952
-0.194661
-0.156079
-0.198855
-0.218592
-0.184154
-0.154639
-0.162588
-0.185237
-0.238887
-0.315709
-0.331977
-0.269998
-0.181671
-0.111112
-0.0639207
-0.0318941
-0.0156061
-0.00600742
-0.000601725
0.000421286
0.00126629
0.00363638
0.00208246
0.00220528
0.00247832
0.000714054
-8.29293e-05
0.000239421
-8.75119e-05
-0.000454423
-0.000104543
6.98222e-05
-6.18571e-08
-0.52381
-0.566787
-0.516448
-0.390273
-0.269258
-0.188398
-0.140053
-0.157424
-0.164595
-0.144918
-0.139301
-0.163432
-0.196483
-0.259091
-0.340009
-0.356201
-0.28658
-0.190115
-0.114005
-0.0642493
-0.0309472
-0.0137282
-0.00414992
0.000953519
0.00124507
0.00174254
0.00401682
0.00218687
0.00264587
0.00283968
0.000777771
0.000216209
0.00036955
-4.89048e-05
-0.000387923
-5.39116e-05
9.00057e-05
4.11541e-06
-0.485129
-0.529947
-0.485298
-0.36971
-0.258054
-0.182392
-0.128476
-0.124588
-0.122275
-0.108732
-0.11904
-0.156479
-0.199004
-0.266154
-0.349672
-0.366351
-0.299123
-0.19865
-0.117865
-0.0660722
-0.0314336
-0.0134558
-0.00373481
0.00149346
0.00167701
0.00201809
0.00404502
0.00228389
0.0029845
0.00304814
0.000864958
0.000559022
0.000476822
-1.9335e-05
-0.000296079
-4.92352e-06
0.000102277
9.13449e-06
-0.436853
-0.469927
-0.434938
-0.339374
-0.243986
-0.17841
-0.120733
-0.104701
-0.0991972
-0.0699232
-0.0965363
-0.146117
-0.192179
-0.261513
-0.355601
-0.393145
-0.313165
-0.207623
-0.122456
-0.0688713
-0.0330765
-0.0141852
-0.0041886
0.00124645
0.00174923
0.00203087
0.0037367
0.00232321
0.00315842
0.00308439
0.000986395
0.000887489
0.000556682
4.77134e-06
-0.000184269
4.11897e-05
0.00010593
1.49654e-05
-0.380946
-0.399376
-0.374257
-0.305349
-0.230008
-0.174992
-0.11771
-0.0953661
-0.0904934
-0.0659521
-0.0851422
-0.136794
-0.182234
-0.251329
-0.343989
-0.381334
-0.314864
-0.213637
-0.126928
-0.0719505
-0.0354574
-0.0155416
-0.00509801
0.000561445
0.00156274
0.00181812
0.00322825
0.00227045
0.00315039
0.00298057
0.00112436
0.00115189
0.000609543
2.57619e-05
-6.42769e-05
8.29729e-05
0.000101798
2.14205e-05
-0.323903
-0.335728
-0.322477
-0.278041
-0.220928
-0.171181
-0.122067
-0.090011
-0.0837712
-0.0723805
-0.0736128
-0.126997
-0.164711
-0.229203
-0.331221
-0.377086
-0.322431
-0.221862
-0.133112
-0.0764629
-0.0387058
-0.0176159
-0.0063759
-0.000364358
0.00121707
0.00146574
0.00267311
0.00212953
0.00298802
0.00281292
0.00123596
0.0013272
0.000641059
4.52455e-05
5.0379e-05
0.000118697
9.19564e-05
2.84491e-05
-0.279992
-0.287464
-0.279915
-0.25243
-0.213667
-0.175771
-0.131528
-0.0934302
-0.0848856
-0.0742168
-0.0808234
-0.126504
-0.149129
-0.206751
-0.305175
-0.347497
-0.310706
-0.226323
-0.14084
-0.0825179
-0.0431566
-0.0204614
-0.00813419
-0.00150017
0.000752973
0.00107102
0.00215729
0.00192377
0.00270966
0.00261787
0.00134693
0.00142412
0.000656769
6.37027e-05
0.000151937
0.00014709
7.79885e-05
3.59738e-05
-0.254972
-0.263346
-0.250804
-0.221821
-0.187174
-0.155414
-0.116887
-0.0849781
-0.0768438
-0.0654732
-0.0737279
-0.0824667
-0.111565
-0.168533
-0.271465
-0.325229
-0.298775
-0.212661
-0.131536
-0.0774259
-0.0417089
-0.0204478
-0.00868522
-0.00220807
0.000320846
0.000716721
0.001784
0.0016753
0.00242531
0.0023896
0.00134191
0.00150872
0.000661068
7.24488e-05
0.000261307
0.000176367
5.76938e-05
4.34606e-05
-0.19764
-0.20937
-0.198351
-0.173552
-0.146633
-0.123619
-0.0971265
-0.0767002
-0.0687822
-0.060183
-0.0622609
-0.0818068
-0.0994708
-0.137001
-0.229365
-0.291996
-0.260258
-0.185231
-0.116494
-0.0707405
-0.0403732
-0.0209958
-0.0096707
-0.00321355
-0.000386349
0.000223162
0.00112562
0.00128301
0.0019954
0.0020137
0.00128472
0.00142089
0.000615141
9.65463e-05
0.000334932
0.00018963
4.33428e-05
4.87438e-05
-0.160188
-0.172772
-0.166365
-0.149182
-0.12769
-0.109752
-0.088455
-0.0655398
-0.0540039
-0.0470399
-0.0396666
-0.0501768
-0.0694335
-0.106624
-0.183905
-0.24377
-0.219599
-0.158419
-0.101901
-0.0638594
-0.0380984
-0.0209523
-0.010429
-0.00416564
-0.00111013
-0.000251878
0.000618118
0.000941129
0.00160323
0.00169308
0.00119039
0.00129751
0.000592254
0.000136475
0.000365212
0.000198922
4.22765e-05
5.02471e-05
-0.128914
-0.13866
-0.134335
-0.120042
-0.101741
-0.0852955
-0.0691429
-0.0507298
-0.0397422
-0.0320949
-0.0179428
-0.00770004
-0.0121945
-0.0539596
-0.130052
-0.184903
-0.164758
-0.120667
-0.082649
-0.055299
-0.0355856
-0.020939
-0.0111575
-0.00508041
-0.00186988
-0.000771395
0.000101692
0.000557103
0.0012026
0.00137678
0.00103126
0.00115609
0.000575908
0.000171252
0.000367326
0.00020443
4.87396e-05
4.98409e-05
-0.100453
-0.10908
-0.107252
-0.0976815
-0.0841782
-0.0714428
-0.0586184
-0.0421657
-0.0286609
-0.016769
0.0047332
0.0290288
0.0359458
0.00023103
-0.0704234
-0.117356
-0.1145
-0.0925291
-0.0677703
-0.047247
-0.0315275
-0.0194608
-0.0110496
-0.00555056
-0.00241809
-0.00119068
-0.000323068
0.000212353
0.000863558
0.0010792
0.000889303
0.00102086
0.000561386
0.000211006
0.00035976
0.000207578
6.32444e-05
5.03887e-05
-0.0782075
-0.0859322
-0.0853195
-0.0783213
-0.0679384
-0.0567297
-0.045267
-0.0313903
-0.0178565
-0.00486816
0.0171075
0.0413497
0.0526973
0.0286071
-0.0253239
-0.0645612
-0.0714614
-0.0620824
-0.0494239
-0.037876
-0.0275306
-0.0184416
-0.0112424
-0.0061308
-0.00302
-0.00162128
-0.000702607
-0.000116453
0.000511952
0.000792388
0.000723486
0.000874032
0.000529864
0.000240617
0.000341905
0.000206117
8.0155e-05
5.05398e-05
-0.0608313
-0.0665569
-0.0664413
-0.0614483
-0.0535961
-0.0446391
-0.0353858
-0.0242967
-0.012012
0.000519894
0.0174935
0.0361516
0.0459543
0.031439
-0.00274867
-0.0309124
-0.0430443
-0.0434519
-0.0383989
-0.0310763
-0.0235716
-0.0164727
-0.0105264
-0.00612244
-0.00331853
-0.00194755
-0.00103221
-0.00041259
0.000219331
0.000532779
0.000581383
0.000741216
0.000491709
0.000273097
0.000331862
0.000205065
9.83139e-05
5.32838e-05
-0.0460391
-0.0506501
-0.0511468
-0.0476673
-0.0417831
-0.0347628
-0.0271909
-0.0184151
-0.00830328
0.00219551
0.0140951
0.0262041
0.0329709
0.024995
0.0050347
-0.0138669
-0.0245999
-0.0274624
-0.0259532
-0.022676
-0.0186429
-0.0140393
-0.00959328
-0.00595168
-0.00345543
-0.00213801
-0.00124812
-0.000635025
-3.62054e-05
0.000299836
0.00043698
0.000610954
0.000439468
0.000298865
0.000325133
0.00019902
0.000114958
5.52098e-05
-0.0343083
-0.0381506
-0.0386914
-0.0361599
-0.0318119
-0.0265551
-0.0207537
-0.0141928
-0.00662001
0.0012677
0.00936873
0.0168899
0.0211466
0.017212
0.00638691
-0.00504709
-0.0133611
-0.0173277
-0.0183123
-0.0172916
-0.0150257
-0.0118782
-0.00851621
-0.00558766
-0.00348353
-0.00229508
-0.00144749
-0.000827715
-0.000245417
0.000100962
0.000305577
0.00049249
0.00038229
0.000321476
0.00032298
0.000194393
0.000135781
6.86556e-05
-0.0252541
-0.0280449
-0.0285289
-0.026864
-0.023831
-0.0200564
-0.0158107
-0.0110753
-0.00571448
-0.000128647
0.0052328
0.00981884
0.0123855
0.0107219
0.00514112
-0.00156172
-0.00711172
-0.0104456
-0.0118852
-0.0118311
-0.0108824
-0.00916661
-0.00697686
-0.00483856
-0.0031856
-0.00222019
-0.00150741
-0.000944618
-0.000372092
-6.49853e-05
0.000200183
0.000408897
0.000329798
0.000334905
0.000326731
0.000184843
0.000140351
6.02842e-05
-0.0178303
-0.0199854
-0.020572
-0.0195474
-0.0174602
-0.0148222
-0.0118664
-0.00861835
-0.0050127
-0.0012784
0.002219
0.00502604
0.0066097
0.00611307
0.00349984
-6.18647e-05
-0.00336922
-0.00566585
-0.0071819
-0.00782977
-0.00774589
-0.00692838
-0.00557041
-0.00410828
-0.00288017
-0.00212649
-0.00153177
-0.0010085
-0.000392549
-0.000190031
0.000121041
0.000344264
0.000299758
0.000366765
0.000350577
0.000202513
0.000180421
9.58971e-05
-0.0120108
-0.0137501
-0.0143089
-0.0137069
-0.0123495
-0.010615
-0.00866988
-0.0065498
-0.00422346
-0.00183267
0.000405774
0.00214985
0.00318889
0.00319628
0.00210149
0.000388805
-0.0014662
-0.00306552
-0.00421546
-0.00484608
-0.00500777
-0.00471835
-0.00402506
-0.0031798
-0.00239956
-0.00189961
-0.00148143
-0.00110869
-0.000944584
-0.000337821
3.72024e-05
0.000294732
0.000244219
0.000344792
0.000348017
0.000172318
0.000144787
6.03559e-05
-0.00752761
-0.00885793
-0.00937407
-0.00910077
-0.00829369
-0.00721282
-0.00599166
-0.00468177
-0.0032609
-0.00183083
-0.000406853
0.000685385
0.00138132
0.00157215
0.00124851
0.000563354
-0.00035621
-0.00120366
-0.00194506
-0.00249756
-0.00286348
-0.00294712
-0.00270096
-0.00230857
-0.00185031
-0.00155718
-0.00127597
-0.000908219
-0.000362842
-0.000239013
0.000107046
0.000347866
0.000310234
0.000439684
0.000430708
0.000256569
0.000238748
0.000131258
-0.00399432
-0.00503793
-0.00553126
-0.00548066
-0.00504568
-0.00441822
-0.00369042
-0.00291278
-0.00204875
-0.001143
-0.000364298
0.000243569
0.000681568
0.000917052
0.000919692
0.000747833
0.000385093
1.71631e-05
-0.000426419
-0.000804969
-0.00110735
-0.00131991
-0.00138527
-0.00142179
-0.00135639
-0.00128357
-0.00115041
-0.000977228
-0.000751201
-0.000318746
3.73177e-05
0.000310801
0.000243934
0.000360106
0.000390617
0.000176882
0.00013443
5.63522e-05
-0.00120578
-0.00203097
-0.00247017
-0.00257827
-0.00241309
-0.0021042
-0.00172201
-0.00131515
-0.000858556
-0.000404164
3.93811e-05
0.000395258
0.000684211
0.000891873
0.00101371
0.00108046
0.00100301
0.000891589
0.000676626
0.000461694
0.00021151
-5.87702e-05
-0.000257969
-0.000511018
-0.000630236
-0.000718921
-0.000678757
-0.000256356
3.9707e-05
5.88515e-05
0.000326606
0.000543862
0.000473208
0.00058361
0.000579935
0.000371375
0.000313631
0.00016815
0.00089502
0.000223465
-0.000203176
-0.000351331
-0.000324618
-0.000204568
-3.32015e-05
0.000141045
0.000350839
0.000550344
0.000766127
0.000937152
0.00110491
0.00126836
0.00141129
0.00157799
0.00163327
0.00169936
0.00163787
0.00154931
0.00138601
0.00105375
0.000690999
0.000173699
-0.00023106
-0.000431666
-0.000463575
-0.000377816
-0.000243835
1.91974e-05
0.000274798
0.000504796
0.000391176
0.000433333
0.000474806
0.000227193
0.000130018
5.48617e-05
0.00263384
0.00209699
0.00172189
0.00151541
0.00143526
0.00142475
0.001454
0.00148176
0.00153972
0.00158383
0.00165906
0.00171667
0.00179841
0.00189517
0.00200875
0.00217398
0.00225567
0.00238318
0.00239322
0.00243508
0.00240434
0.00217783
0.00183343
0.00123107
0.00072906
0.000393357
0.000245906
0.00049825
0.000798477
0.000704211
0.000803396
0.000951319
0.000809394
0.000822927
0.000808378
0.000541824
0.000400469
0.000201788
0.00398674
0.00359169
0.0032415
0.0030135
0.00287831
0.00279457
0.00274641
0.00268931
0.0026607
0.00261334
0.0026
0.00257413
0.00259379
0.00264707
0.00272352
0.00288617
0.00297506
0.00310591
0.00314648
0.003246
0.00331115
0.00306089
0.00263974
0.00192751
0.00127951
0.000923473
0.000758561
0.000673761
0.000706873
0.000768507
0.00079482
0.000893171
0.000737773
0.000616024
0.000628771
0.000356905
0.000157711
6.32801e-05
0.00498099
0.00460541
0.00435614
0.00417296
0.00404288
0.00393532
0.00385242
0.00375214
0.00367862
0.00358897
0.0035327
0.00346678
0.00344417
0.00345967
0.00349063
0.0035984
0.0036776
0.00384025
0.00395665
0.00416249
0.00433813
0.00425711
0.00388066
0.00322228
0.00258393
0.0020997
0.00186051
0.00172008
0.00159448
0.00162353
0.00146872
0.00153514
0.00129139
0.00112288
0.00110977
0.000756069
0.000479666
0.000226897
0.00603719
0.00576044
0.00552274
0.00532021
0.00516305
0.00501523
0.00488828
0.0047469
0.00462945
0.00451456
0.00442115
0.00434099
0.00426438
0.00424047
0.00421642
0.00429971
0.00436618
0.00445139
0.00455515
0.00462589
0.00466858
0.00465803
0.00446751
0.0042006
0.00383813
0.00332145
0.00299906
0.00250304
0.00220818
0.00206468
0.0015508
0.00153206
0.00125332
0.00087858
0.000900791
0.000558721
0.000229526
9.58856e-05
0.00643862
0.00621967
0.00602488
0.0058511
0.00569973
0.00555325
0.00541373
0.00527384
0.00514422
0.00501967
0.00490397
0.00479805
0.0047101
0.00465699
0.00460423
0.00458126
0.0045562
0.00454148
0.00453604
0.00453067
0.00448693
0.0044328
0.00429052
0.00407729
0.0038836
0.00358658
0.00330956
0.00299738
0.00263821
0.00255439
0.00218434
0.00199475
0.00179554
0.00144202
0.00129313
0.00096687
0.000572626
0.000239831
0.00693008
0.0067594
0.00658771
0.00641973
0.00626383
0.00611206
0.00596508
0.00581536
0.00567328
0.00554103
0.0054182
0.00530326
0.00518799
0.00509397
0.00501102
0.0049423
0.00487338
0.00483046
0.00478555
0.00473848
0.00468213
0.00457659
0.00444386
0.00422141
0.00397551
0.00367432
0.00333559
0.00304723
0.00270761
0.00245879
0.00208601
0.00182055
0.00160459
0.00122063
0.00105085
0.000763061
0.000372433
0.000130273
0.00706545
0.00691128
0.00675471
0.00659742
0.00644297
0.00629094
0.00614163
0.00599384
0.00584809
0.00570731
0.00557225
0.00544675
0.00532592
0.005218
0.00511
0.00501772
0.00492943
0.00485254
0.00478164
0.00470251
0.00462355
0.00450503
0.00437445
0.00419329
0.0039738
0.00375531
0.00345507
0.00320297
0.00286501
0.00265488
0.00236327
0.00205126
0.00186294
0.00149538
0.00124805
0.0009768
0.00054087
0.000191846
-0.109732
-0.122529
-0.135937
-0.14974
-0.16557
-0.181319
-0.200746
-0.223392
-0.0933002
-0.10302
-0.113083
-0.123931
-0.13522
-0.146914
-0.158128
-0.173007
-0.0774431
-0.0841835
-0.0909513
-0.0986416
-0.106551
-0.114939
-0.124086
-0.137175
-0.0644574
-0.0691965
-0.0739985
-0.0796528
-0.085951
-0.0930896
-0.101883
-0.112543
-0.0529267
-0.0563592
-0.0599401
-0.0643713
-0.0696215
-0.0751987
-0.0810998
-0.0882038
-0.0431565
-0.0455708
-0.0481886
-0.0513231
-0.0548189
-0.0582261
-0.0621451
-0.0680349
-0.0346317
-0.0361854
-0.0378157
-0.0397355
-0.0419879
-0.0446172
-0.0483072
-0.0533367
-0.0271473
-0.0280442
-0.0289961
-0.0303414
-0.0322881
-0.0347104
-0.0373987
-0.0407102
-0.020728
-0.0212943
-0.021976
-0.0230394
-0.024417
-0.0258223
-0.0274099
-0.0299689
-0.0153475
-0.0156975
-0.0160746
-0.0166326
-0.0173635
-0.0183143
-0.019738
-0.0219542
-0.010662
-0.0108342
-0.0109959
-0.0113324
-0.0119318
-0.012802
-0.0139201
-0.0154843
-0.00676044
-0.00689758
-0.00702435
-0.00727421
-0.00768904
-0.00823924
-0.00897694
-0.0101605
-0.00354061
-0.00366232
-0.00374762
-0.00388648
-0.00413415
-0.00452612
-0.00513092
-0.006097
-0.000880565
-0.00099931
-0.0010816
-0.00119343
-0.0013914
-0.00170648
-0.00218003
-0.00291399
0.00128003
0.00114428
0.00104289
0.00093827
0.000787903
0.000556909
0.00019843
-0.000367984
0.00298272
0.00284066
0.0027261
0.00261951
0.00248827
0.00229794
0.00200626
0.00155597
0.00439829
0.00424428
0.00411519
0.00400428
0.00388608
0.00372939
0.00349721
0.00314744
0.00548309
0.00532709
0.00519025
0.00507399
0.00496271
0.00482972
0.00464432
0.00437476
0.00643805
0.00626566
0.00611052
0.00597862
0.00585665
0.00572379
0.00555275
0.00532035
0.00715621
0.00699438
0.00684873
0.00673014
0.00662679
0.00652868
0.00641214
0.00626475
0.00753774
0.00740087
0.00726287
0.00713394
0.00701164
0.00689287
0.00676636
0.00662752
0.00782022
0.00769182
0.00756279
0.00744335
0.00733704
0.00724232
0.00715241
0.00705927
0.00793332
0.00782699
0.00771411
0.00760063
0.00749119
0.00738732
0.00728776
0.00718971
0.0485463
0.0516164
0.0542252
0.0556432
0.0552286
0.052894
0.0485026
0.0414903
0.0308424
0.0151164
-0.00764709
-0.0401465
-0.0867455
-0.150743
-0.206762
0.0256487
0.0264935
0.0254432
0.0227837
0.0184832
0.0122495
0.00356386
-0.00837961
-0.0247006
-0.0469126
-0.0770875
-0.117916
-0.173451
-0.248084
-0.306417
0.00324754
0.0015843
-0.0031478
-0.00948886
-0.0172107
-0.0269205
-0.0394415
-0.0557078
-0.0768843
-0.104551
-0.140906
-0.188648
-0.251026
-0.332239
-0.388623
-0.0194382
-0.0239374
-0.0315818
-0.0406019
-0.0510186
-0.0636874
-0.0795048
-0.0994004
-0.124517
-0.156394
-0.197513
-0.250323
-0.317575
-0.398762
-0.451494
-0.0426201
-0.0497788
-0.0593135
-0.0700511
-0.0824861
-0.0975366
-0.11598
-0.138667
-0.166701
-0.201451
-0.245627
-0.301579
-0.369979
-0.447219
-0.494171
-0.0653627
-0.0746811
-0.0853996
-0.097395
-0.11141
-0.12826
-0.148573
-0.17311
-0.202975
-0.239558
-0.284939
-0.341012
-0.40745
-0.477475
-0.517315
-0.0871833
-0.097581
-0.109134
-0.122254
-0.137627
-0.15578
-0.177246
-0.20276
-0.233332
-0.270202
-0.314901
-0.368627
-0.430008
-0.489729
-0.522972
-0.107161
-0.118252
-0.130663
-0.144809
-0.161161
-0.18013
-0.202145
-0.227834
-0.258061
-0.293827
-0.336193
-0.385448
-0.438627
-0.485547
-0.513897
0.184545
0.199135
0.215408
0.233768
0.254252
0.276736
0.301122
0.327361
0.355372
0.384892
0.415339
0.445557
0.473579
0.495532
0.513596
0.180894
0.194496
0.209845
0.227389
0.247032
0.268507
0.291655
0.316421
0.342718
0.370241
0.398329
0.425729
0.450341
0.468372
0.482611
0.173163
0.185002
0.198837
0.215053
0.233288
0.253051
0.274076
0.296268
0.319499
0.343397
0.367189
0.389479
0.407923
0.418885
0.426527
0.161373
0.170914
0.182802
0.197169
0.21333
0.23062
0.248702
0.267421
0.286543
0.305545
0.323465
0.338703
0.348585
0.349492
0.348416
0.145619
0.152635
0.16252
0.174883
0.188502
0.202559
0.216767
0.231006
0.244972
0.257963
0.268768
0.275521
0.275183
0.263958
0.251917
0.126245
0.130269
0.138018
0.148296
0.159216
0.169786
0.179731
0.188926
0.196985
0.203057
0.205723
0.202855
0.191048
0.166344
0.141676
0.103773
0.105471
0.111236
0.118788
0.126206
0.132712
0.138078
0.142036
0.143961
0.142785
0.136883
0.12389
0.100077
0.0615232
0.0241442
0.0776423
0.0784144
0.0832885
0.0881314
0.0916143
0.093539
0.0939021
0.0923118
0.0878966
0.0793542
0.0648481
0.0417733
0.00607089
-0.0458925
-0.0944207
0.0218235
0.0265105
0.0225546
0.0268676
0.0240981
0.0287951
0.0269972
0.031441
0.0311347
0.0356273
0.036685
0.0415668
0.0442566
0.0501301
0.0549901
0.0624813
0.0701066
0.0803005
0.0916206
0.105841
0.121961
0.141648
0.164142
0.021861
0.0264604
0.0226039
0.0268265
0.0241547
0.0287798
0.027029
0.0314447
0.0311949
0.0355915
0.0367617
0.0416004
0.0443339
0.0502152
0.0551205
0.0626216
0.07027
0.0803559
0.0914314
0.105485
0.121028
0.140261
0.161727
0.0219093
0.026384
0.022672
0.0267575
0.0242389
0.0287359
0.0270875
0.0314174
0.03128
0.0355466
0.0368898
0.0416096
0.0444406
0.0502429
0.0550924
0.0625498
0.0701182
0.0801124
0.0907063
0.10436
0.118921
0.137167
0.156503
0.0219667
0.0262841
0.0227512
0.0266634
0.0243395
0.0286544
0.0271665
0.0313674
0.0313824
0.0354828
0.0370684
0.0415977
0.0445967
0.0503651
0.0551164
0.0626756
0.0699655
0.0798618
0.0896978
0.102748
0.115729
0.132296
0.148319
0.0220319
0.0261647
0.0228349
0.0265479
0.0244547
0.0285452
0.0272627
0.0312882
0.0314969
0.0354035
0.0372688
0.0415228
0.044666
0.0502757
0.0550076
0.0619032
0.069246
0.0787348
0.0878207
0.0998736
0.11101
0.12531
0.136922
0.0221001
0.0260295
0.0229237
0.026417
0.0245772
0.028442
0.0273769
0.0312211
0.0316132
0.035366
0.0373475
0.0415436
0.0449754
0.0505793
0.0554224
0.0628294
0.0690499
0.0783314
0.0861649
0.0970944
0.105482
0.116776
0.122901
0.0221712
0.0258826
0.0230201
0.0262797
0.0246981
0.028308
0.0274862
0.0311092
0.0317243
0.0352841
0.037391
0.0414068
0.0448573
0.050254
0.0548888
0.0615939
0.0677163
0.0760603
0.0830481
0.0921319
0.0983087
0.105631
0.106038
0.022239
0.0257304
0.0231097
0.0261394
0.0248467
0.028219
0.0276245
0.0310904
0.031862
0.0353425
0.0376169
0.0417296
0.0454286
0.0508258
0.0554958
0.0625307
0.0677492
0.0759315
0.0809069
0.0884597
0.0903221
0.0933209
0.0857593
0.022322
0.0255236
0.0232322
0.0259233
0.0249596
0.0279635
0.0276949
0.0308465
0.031928
0.0352047
0.0376129
0.0412924
0.0448821
0.0496968
0.0539911
0.0597068
0.0644381
0.0703142
0.0741937
0.0777801
0.0770425
0.0727765
0.0598828
0.0224309
0.0252349
0.0233802
0.0256184
0.025091
0.0276295
0.0277367
0.030391
0.0317558
0.0343382
0.0369446
0.0400812
0.0435763
0.0476521
0.0514807
0.0557508
0.0595496
0.0628218
0.0649443
0.0645511
0.0615844
0.05391
0.0431798
0.0225636
0.0248765
0.0235549
0.0252488
0.0252364
0.0272009
0.0277507
0.0298585
0.0315258
0.0336205
0.0363074
0.0388491
0.0420958
0.0454805
0.0485223
0.0513738
0.0540003
0.0552069
0.055389
0.0528121
0.0481107
0.0401982
0.0301705
0.0227241
0.0244391
0.0237542
0.0248444
0.0253484
0.0268021
0.0276848
0.0293241
0.031166
0.0328214
0.0353746
0.0374352
0.0401876
0.042368
0.0450582
0.0467488
0.0481229
0.0478276
0.046356
0.0426707
0.0369543
0.0290331
0.0196399
0.0229153
0.0239313
0.0239032
0.0245109
0.0253729
0.026412
0.0275038
0.0287645
0.0306467
0.0319606
0.0342132
0.0359021
0.0380501
0.0396879
0.0413639
0.0419869
0.0421978
0.0408242
0.038183
0.0339056
0.0279369
0.0203173
0.0114173
0.0231159
0.0234409
0.0239544
0.0242105
0.0253187
0.0260304
0.0272093
0.0281746
0.0299644
0.0310127
0.0328306
0.0341898
0.0356801
0.0367073
0.0375103
0.0372175
0.0364714
0.0343642
0.0310892
0.0265834
0.0207783
0.0136694
0.00543878
0.0232931
0.0229783
0.0239158
0.023935
0.025176
0.025648
0.0267796
0.027535
0.0291188
0.0299483
0.0312736
0.0322901
0.0331548
0.0335739
0.0336277
0.0326332
0.0311772
0.0286392
0.0251429
0.0206664
0.0152318
0.00879354
0.00140018
0.0234178
0.022565
0.0237778
0.0236767
0.0249296
0.0252535
0.026218
0.0268285
0.0281377
0.0287561
0.0295785
0.0302162
0.0305489
0.0304178
0.0298538
0.0283874
0.0264917
0.0237501
0.0202788
0.016033
0.0111108
0.00546048
-0.000963893
0.0234697
0.0222197
0.0235275
0.0234228
0.0245816
0.0248307
0.0255378
0.0260337
0.027051
0.0274346
0.027784
0.0280358
0.0279455
0.02737
0.0263273
0.0245804
0.0224773
0.0197297
0.0164474
0.0125802
0.00825305
0.00342212
-0.0020071
0.0234302
0.0219508
0.0231616
0.0231548
0.0241515
0.0243506
0.0247572
0.0251377
0.0258869
0.0260092
0.0259385
0.0258539
0.0254345
0.0245376
0.0231618
0.0212749
0.0191476
0.0165533
0.0135667
0.0101526
0.00644195
0.00240847
-0.00207366
0.0232905
0.0217529
0.0226902
0.0228446
0.0236711
0.0237975
0.0238934
0.024144
0.0246765
0.0245284
0.024087
0.0237204
0.0230892
0.0220005
0.0204215
0.0185012
0.0164791
0.0141535
0.01153
0.00858471
0.00545901
0.00215409
-0.00147475
0.0230393
0.0216203
0.0221423
0.0224475
0.0231716
0.0231693
0.0229616
0.0230664
0.0234419
0.0230603
0.0222958
0.0217002
0.0209662
0.0198004
0.0181309
0.0162512
0.0144118
0.0124211
0.0101908
0.00769103
0.00508338
0.00240897
-0.000481765
0.0226942
0.0214978
0.021583
0.0219316
0.0226497
0.022502
0.021993
0.0219408
0.0222014
0.0216537
0.0206231
0.0198375
0.0190827
0.0179492
0.0162971
0.0145083
0.012879
0.011233
0.00939262
0.00730267
0.00514001
0.00298977
0.000713918
0.0222584
0.0213351
0.0210466
0.0213293
0.0220504
0.0217982
0.0210302
0.0208097
0.0209777
0.0203389
0.0191265
0.0181992
0.0174585
0.0164255
0.014879
0.0132197
0.0117918
0.0104511
0.00896327
0.00724425
0.00546771
0.00374762
0.00196681
0.02176
0.021094
0.0205527
0.0206999
0.0213782
0.0210556
0.0200963
0.0197233
0.0198025
0.0191278
0.0178258
0.0168097
0.0161203
0.0152116
0.013829
0.012333
0.0110898
0.00999697
0.00880229
0.00740631
0.00596366
0.00459456
0.00320751
0.02123
0.0207629
0.0200932
0.0200811
0.0206501
0.0202829
0.0192125
0.0187119
0.0187123
0.0180404
0.0167236
0.0156741
0.0150245
0.0142702
0.0130633
0.0117424
0.0106569
0.00975011
0.00879192
0.0076826
0.0065425
0.00546772
0.00438144
0.0206698
0.0203558
0.0196487
0.019492
0.019916
0.0195044
0.018402
0.0178124
0.0177326
0.0170792
0.0158201
0.0147844
0.0141728
0.0135301
0.0125347
0.0114041
0.0104519
0.00967223
0.00889215
0.00802661
0.00715158
0.00632406
0.00548223
0.0201422
0.0198882
0.0191847
0.0189481
0.0191902
0.0187362
0.0176704
0.0170371
0.0168815
0.0162571
0.0150985
0.0141304
0.0135538
0.0130046
0.0121788
0.0112181
0.0103795
0.00969358
0.00905844
0.00839507
0.00773504
0.00709346
0.00642395
0.0196009
0.0194039
0.018759
0.0184588
0.0185136
0.0180368
0.0170515
0.0163875
0.016175
0.0156056
0.0145505
0.0136372
0.0130929
0.0126305
0.0119836
0.0111795
0.0104302
0.00982235
0.0093217
0.00884669
0.00837058
0.00787492
0.00733416
0.0191056
0.0189433
0.0183883
0.0179834
0.0178697
0.0174519
0.0165489
0.0158105
0.0155677
0.0151493
0.0142354
0.0133292
0.0127649
0.01241
0.0119574
0.0112993
0.010604
0.0100294
0.0096146
0.00927685
0.00892947
0.00852818
0.00806269
0.0186824
0.0185358
0.0180511
0.0175819
0.0173562
0.0169784
0.0161396
0.0153465
0.0150503
0.0147404
0.0139888
0.0130986
0.0124562
0.0121124
0.0118106
0.0113202
0.0107075
0.0101358
0.00972237
0.00944679
0.00922012
0.0089628
0.00864026
0.018368
0.0182183
0.0177661
0.0172974
0.0170052
0.0165993
0.0158349
0.0150473
0.0146632
0.014417
0.0138781
0.0130767
0.012355
0.0119303
0.0116801
0.0113602
0.0108781
0.0103282
0.00986174
0.00955068
0.0093563
0.00919137
0.00898567
0.0181887
0.0180441
0.0176312
0.0171201
0.0167416
0.0163798
0.0157286
0.0149077
0.0143943
0.0141415
0.0137852
0.0131333
0.0123852
0.0118203
0.0115094
0.0112768
0.010938
0.0104786
0.0100139
0.00965803
0.0094425
0.00931411
0.00919603
0.0435276
0.0233677
0.000121824
-0.0202437
-0.039877
-0.059238
-0.0781394
-0.0950675
0.0317458
0.0133434
-0.00959089
-0.0290774
-0.0444648
-0.0581388
-0.0713645
-0.0828318
0.0210449
0.00651559
-0.0131243
-0.0296749
-0.0408489
-0.0502835
-0.0600662
-0.069437
0.0116576
4.1478e-05
-0.0161542
-0.0299736
-0.0386907
-0.0455412
-0.0523602
-0.0588282
0.00375793
-0.00544155
-0.017399
-0.0275327
-0.034082
-0.0391206
-0.0439725
-0.0487403
-0.00184124
-0.00933862
-0.0174801
-0.0243996
-0.0293412
-0.033285
-0.0368747
-0.0402293
-0.00525216
-0.0112218
-0.0165363
-0.0209939
-0.0245506
-0.027593
-0.0302859
-0.0326561
-0.0068002
-0.0114499
-0.0147881
-0.0175011
-0.0199416
-0.0222233
-0.0242313
-0.0258839
-0.00696166
-0.0105203
-0.0125213
-0.0140484
-0.0156335
-0.0172801
-0.0187515
-0.0199068
-0.00617499
-0.00886643
-0.00999039
-0.0107409
-0.0117062
-0.0128646
-0.01395
-0.0147889
-0.00479624
-0.00681138
-0.0073826
-0.00764218
-0.00816427
-0.00893627
-0.00970949
-0.0103028
-0.00311771
-0.00460926
-0.00484657
-0.00481543
-0.00503555
-0.00551711
-0.00605716
-0.00649096
-0.00133916
-0.00242891
-0.00247923
-0.00229819
-0.00233012
-0.00260918
-0.00298474
-0.00331662
0.000385167
-0.000403813
-0.000357262
-0.000115942
-4.08224e-05
-0.000183098
-0.000437223
-0.000689988
0.00200553
0.00144138
0.00152793
0.00177401
0.00189614
0.00183763
0.00166434
0.0014604
0.00344768
0.00302651
0.00311393
0.00333042
0.00345579
0.00343652
0.00331412
0.00314869
0.00476815
0.00445385
0.00452218
0.00469273
0.00480088
0.00479966
0.00470744
0.00456215
0.00585312
0.00559922
0.00563953
0.00576332
0.00584596
0.00584437
0.00576732
0.00563834
0.00687895
0.00667899
0.00670371
0.00679197
0.00684647
0.00683099
0.00674587
0.00660723
0.00767616
0.00749649
0.00748827
0.00753771
0.0075661
0.00753989
0.00745244
0.00731854
0.00832895
0.00811692
0.00799271
0.00792931
0.00788857
0.00784027
0.0077661
0.00766372
0.00875946
0.00856938
0.00840523
0.00827984
0.00818822
0.00811287
0.00803338
0.00793674
0.00905104
0.0088821
0.00867924
0.00848859
0.00833395
0.00821589
0.00812021
0.00802989
-0.505298
-0.513423
-0.52488
-0.540847
-0.56192
-0.586964
-0.611773
-0.630198
-0.502373
-0.509097