/*--------------------------------*- C++ -*----------------------------------*\
| =========                 |                                                 |
| \\      /  F ield         | OpenFOAM: The Open Source CFD Toolbox           |
|  \\    /   O peration     | Version:  2312                                  |
|   \\  /    A nd           | Website:  www.openfoam.com                      |
|    \\/     M anipulation  |                                                 |
\*---------------------------------------------------------------------------*/
FoamFile
{
    version     2.0;
    format      ascii;
    arch        "LSB;label=32;scalar=64";
    class       volScalarField;
    location    "5.5";
    object      p;
}
// * * * * * * * * * * * * * * * * * * * * * * * * * * * * * * * * * * * * * //

dimensions      [0 2 -2 0 0 0 0];

internalField   nonuniform List<scalar> 
13248
(
-0.417423
-0.41623
-0.41251
-0.406977
-0.400988
-0.396235
-0.394056
-0.395331
-0.399858
-0.406354
-0.412795
-0.41693
-0.416841
-0.411379
-0.400352
-0.384418
-0.364688
-0.342319
-0.318279
-0.293413
-0.26808
-0.243099
-0.217296
-0.191421
-0.421156
-0.420121
-0.416726
-0.411778
-0.406384
-0.401691
-0.398786
-0.398096
-0.399163
-0.400746
-0.401211
-0.399042
-0.393244
-0.38352
-0.37018
-0.353874
-0.335325
-0.3152
-0.294064
-0.272372
-0.250487
-0.228726
-0.206974
-0.186246
-0.428841
-0.427202
-0.423807
-0.419261
-0.414229
-0.409465
-0.405484
-0.402293
-0.399344
-0.395726
-0.390494
-0.382974
-0.372908
-0.36041
-0.34581
-0.329521
-0.311954
-0.293492
-0.274454
-0.255176
-0.235835
-0.216787
-0.197879
-0.179298
-0.439623
-0.436808
-0.432959
-0.428324
-0.423215
-0.417846
-0.412181
-0.405948
-0.398769
-0.390286
-0.380273
-0.36868
-0.355611
-0.341254
-0.325833
-0.309571
-0.292687
-0.275383
-0.25787
-0.240334
-0.22295
-0.20596
-0.189204
-0.173216
-0.452904
-0.448635
-0.443974
-0.438833
-0.433071
-0.426346
-0.418215
-0.408434
-0.39706
-0.384338
-0.37056
-0.355985
-0.340807
-0.325166
-0.309165
-0.292896
-0.276455
-0.259954
-0.243507
-0.227239
-0.211267
-0.195707
-0.180506
-0.165927
-0.468649
-0.462826
-0.457178
-0.451126
-0.443951
-0.434845
-0.423333
-0.409594
-0.394246
-0.377971
-0.361291
-0.344518
-0.327796
-0.311177
-0.294678
-0.278318
-0.262127
-0.246154
-0.230457
-0.215101
-0.200151
-0.185673
-0.171644
-0.158292
-0.486981
-0.479599
-0.472811
-0.465304
-0.455685
-0.443017
-0.427328
-0.409469
-0.390507
-0.371293
-0.352336
-0.333862
-0.315926
-0.298511
-0.281579
-0.2651
-0.24906
-0.233459
-0.218309
-0.203629
-0.189443
-0.17576
-0.162591
-0.150019
-0.507816
-0.498879
-0.490684
-0.480928
-0.46764
-0.450348
-0.430012
-0.408123
-0.385947
-0.364267
-0.343444
-0.323577
-0.304636
-0.286545
-0.269225
-0.252611
-0.236654
-0.221318
-0.206581
-0.192428
-0.178843
-0.165821
-0.153369
-0.141455
-0.530582
-0.520129
-0.510092
-0.497032
-0.478876
-0.456248
-0.431165
-0.405517
-0.380508
-0.356711
-0.334301
-0.313249
-0.293451
-0.274783
-0.257134
-0.240407
-0.224523
-0.209416
-0.195033
-0.181326
-0.168257
-0.155799
-0.143931
-0.132535
-0.554269
-0.542322
-0.529808
-0.512254
-0.488274
-0.460025
-0.430386
-0.40133
-0.373823
-0.348179
-0.324389
-0.302317
-0.281791
-0.262645
-0.244735
-0.227933
-0.212134
-0.197247
-0.183194
-0.169906
-0.157325
-0.145409
-0.134095
-0.123229
-0.577414
-0.563973
-0.548125
-0.524944
-0.494544
-0.460728
-0.426876
-0.394781
-0.365081
-0.337833
-0.312866
-0.289945
-0.268838
-0.249339
-0.231269
-0.214473
-0.198819
-0.184196
-0.170504
-0.157655
-0.145582
-0.134227
-0.123484
-0.113215
-0.598246
-0.583278
-0.563108
-0.53335
-0.496296
-0.457193
-0.419553
-0.384813
-0.353252
-0.324681
-0.298782
-0.275231
-0.25374
-0.234058
-0.215975
-0.199306
-0.1839
-0.169625
-0.156358
-0.144004
-0.132494
-0.121766
-0.111695
-0.102202
-0.29138
-0.304169
-0.317192
-0.335574
-0.359598
-0.387724
-0.418326
-0.449595
-0.479527
-0.505972
-0.526701
-0.539516
-0.542365
-0.533532
-0.511951
-0.477446
-0.430746
-0.37313
-0.30699
-0.235778
-0.163525
-0.0945215
-0.0324302
0.0200814
-0.304707
-0.316359
-0.328898
-0.347071
-0.371102
-0.399474
-0.430578
-0.462616
-0.493594
-0.521374
-0.543742
-0.558507
-0.563605
-0.557245
-0.538268
-0.506432
-0.462336
-0.406825
-0.341888
-0.270663
-0.197163
-0.125895
-0.0611997
-0.00551693
-0.32971
-0.339053
-0.350548
-0.368192
-0.392065
-0.420706
-0.452548
-0.485831
-0.518589
-0.548701
-0.573968
-0.592202
-0.601356
-0.599627
-0.585549
-0.559831
-0.521012
-0.469581
-0.406983
-0.335864
-0.260263
-0.184823
-0.115396
-0.0539198
-0.360072
-0.366211
-0.376177
-0.392915
-0.416233
-0.444727
-0.476881
-0.510989
-0.545125
-0.577199
-0.605055
-0.626575
-0.639808
-0.643223
-0.635744
-0.615366
-0.582351
-0.536254
-0.477381
-0.407323
-0.330767
-0.252212
-0.178251
-0.111772
-0.389056
-0.391452
-0.399402
-0.414676
-0.436696
-0.464114
-0.495463
-0.529092
-0.563134
-0.595555
-0.624251
-0.647192
-0.662564
-0.668829
-0.664766
-0.649384
-0.621821
-0.581095
-0.526827
-0.460242
-0.385176
-0.306566
-0.23143
-0.163345
-0.411489
-0.410111
-0.415684
-0.428567
-0.448123
-0.473107
-0.502076
-0.533442
-0.565437
-0.596142
-0.623593
-0.645926
-0.661483
-0.668712
-0.666774
-0.654669
-0.631242
-0.595169
-0.545657
-0.483481
-0.412259
-0.337071
-0.264869
-0.19934
-0.425146
-0.42069
-0.423377
-0.432827
-0.448487
-0.469403
-0.494274
-0.521624
-0.549841
-0.577197
-0.601931
-0.622355
-0.63678
-0.644501
-0.644161
-0.634608
-0.614505
-0.582268
-0.537034
-0.479635
-0.41393
-0.344927
-0.279013
-0.21928
-0.430505
-0.424253
-0.424
-0.42913
-0.439487
-0.45469
-0.473839
-0.495726
-0.518982
-0.542129
-0.56363
-0.58184
-0.596096
-0.604592
-0.605908
-0.598575
-0.580906
-0.551298
-0.509411
-0.456781
-0.397766
-0.336886
-0.279424
-0.227279
-0.429868
-0.42338
-0.420764
-0.421471
-0.425872
-0.434364
-0.446763
-0.462403
-0.480315
-0.499302
-0.518
-0.53559
-0.549969
-0.559319
-0.561769
-0.555354
-0.538338
-0.509802
-0.470564
-0.423156
-0.371991
-0.320478
-0.272454
-0.228282
-0.426024
-0.420595
-0.416636
-0.413815
-0.412948
-0.415165
-0.421125
-0.430905
-0.444077
-0.459836
-0.47709
-0.493774
-0.50769
-0.516509
-0.517911
-0.510006
-0.491768
-0.463569
-0.427339
-0.386089
-0.343382
-0.301283
-0.262378
-0.225471
-0.421347
-0.417607
-0.413271
-0.408336
-0.403926
-0.401675
-0.402953
-0.408502
-0.418341
-0.431628
-0.446686
-0.461183
-0.472494
-0.478055
-0.475815
-0.464694
-0.444823
-0.417672
-0.385452
-0.350734
-0.315615
-0.281381
-0.249834
-0.218966
-0.417843
-0.415702
-0.411557
-0.405834
-0.399842
-0.395379
-0.394205
-0.397241
-0.404488
-0.414885
-0.42644
-0.436622
-0.442852
-0.443037
-0.436018
-0.421788
-0.401366
-0.376423
-0.348617
-0.319533
-0.289991
-0.261125
-0.233689
-0.207353
0.0636681
0.0992186
0.119134
0.127315
0.127323
0.122135
0.114101
0.104821
0.0952781
0.0860482
0.0774523
0.0696429
0.062651
0.0564471
0.0509845
0.0461563
0.0420094
0.0383524
0.0351024
0.0322496
0.0297754
0.0275885
0.0256465
0.0239233
0.0223971
0.0210439
0.0198411
0.0187695
0.0178126
0.0169565
0.0161891
0.0154995
0.0148779
0.0143156
0.0138047
0.0133377
0.0129082
0.0125101
0.0121377
0.011786
0.0114499
0.0111247
0.0108058
0.0104887
0.0101688
0.00984129
0.00950141
0.00914324
0.0087625
0.00834998
0.00790463
0.00740731
0.00687075
0.00625024
0.0055865
0.00480614
0.00394756
0.00299213
0.00185986
0.000671591
0.0442868
0.0838621
0.1075
0.118422
0.120528
0.117
0.110248
0.102
0.0932945
0.084721
0.0766269
0.0691901
0.0624679
0.056461
0.0511418
0.0464962
0.0423236
0.0386893
0.0354429
0.0326031
0.0301745
0.0279918
0.0260447
0.0243127
0.0227788
0.0214175
0.0202054
0.0191231
0.0181545
0.0172861
0.0165061
0.0158039
0.0151699
0.0145952
0.0140719
0.0135928
0.0131513
0.0127413
0.0123572
0.0119938
0.0116463
0.0113098
0.0109798
0.0106518
0.0103211
0.00998287
0.00963244
0.00926393
0.00887281
0.00845035
0.00799449
0.00748817
0.00694022
0.00631227
0.00563614
0.00484812
0.00398066
0.0030109
0.00187724
0.000670104
0.00254363
0.0504812
0.081749
0.098278
0.104667
0.104842
0.101106
0.0951699
0.0882565
0.0810887
0.0740782
0.067457
0.0613404
0.0557811
0.0507891
0.0463431
0.042362
0.0388075
0.0356891
0.0327462
0.0305012
0.0283401
0.026395
0.0246605
0.0231278
0.0217659
0.0205497
0.0194605
0.018483
0.0176046
0.0168138
0.0161005
0.0154552
0.0148692
0.0143345
0.0138441
0.0133912
0.0129699
0.0125746
0.0122001
0.0118415
0.0114942
0.0111535
0.0108148
0.0104736
0.010125
0.00976433
0.00938576
0.0089845
0.00855233
0.00808614
0.007571
0.00701174
0.00637649
0.00568796
0.00489224
0.00401585
0.00303137
0.00189595
0.000669186
-0.0507294
0.00495343
0.0450859
0.0689717
0.0813248
0.0865058
0.0872038
0.0847915
0.0805176
0.0753607
0.0699088
0.0644862
0.0592776
0.0543928
0.0498927
0.0457958
0.0420809
0.0387311
0.0357748
0.0332835
0.0307557
0.0285983
0.026683
0.0249534
0.0234359
0.0220845
0.0208716
0.0197808
0.0187983
0.0179126
0.0171132
0.0163905
0.0157353
0.015139
0.0145938
0.0140927
0.0136291
0.013197
0.0127909
0.0124057
0.0120365
0.0116786
0.0113275
0.0109785
0.0106271
0.0102685
0.00989789
0.00950954
0.00909842
0.0086568
0.00818048
0.00765669
0.00708623
0.00644374
0.0057428
0.00493934
0.00405375
0.00305433
0.00191638
0.000669211
-0.101362
-0.0429028
0.00359748
0.0346125
0.053392
0.0641291
0.0695569
0.0713804
0.0705216
0.0679236
0.064392
0.0604424
0.0563686
0.052346
0.0484894
0.0448685
0.0415126
0.0384389
0.0356541
0.0331413
0.0307791
0.0287605
0.0268968
0.0251862
0.0237027
0.0223723
0.0211697
0.0200822
0.0190985
0.0182085
0.017403
0.0166729
0.0160093
0.0154041
0.0148495
0.0143385
0.0138648
0.0134225
0.0130062
0.0126107
0.0122313
0.0118632
0.011502
0.011143
0.0107817
0.0104134
0.0100331
0.00963533
0.00921466
0.00876386
0.00827766
0.00774536
0.00716387
0.00651419
0.00580092
0.00498963
0.0040945
0.00308011
0.00193855
0.000670373
-0.139927
-0.0841147
-0.0362895
-0.000481748
0.0239293
0.0399145
0.0499562
0.0557345
0.0585055
0.0589506
0.0577184
0.0554719
0.0526924
0.0496709
0.0465854
0.0435491
0.0406326
0.037882
0.0353263
0.0329682
0.0307462
0.0287538
0.0270111
0.0253127
0.0239178
0.0226242
0.0214403
0.0203623
0.0193817
0.0184908
0.0176819
0.0169466
0.0162766
0.0156638
0.0151009
0.0145811
0.0140981
0.0136462
0.0132202
0.0128149
0.0124256
0.0120477
0.0116767
0.0113081
0.0109373
0.0105595
0.0101699
0.00976294
0.009333
0.00887329
0.00837746
0.00783681
0.00724449
0.00658763
0.00586216
0.005043
0.00413795
0.00310883
0.00196229
0.000672824
-0.164864
-0.114659
-0.0701885
-0.0329767
-0.00471736
0.0155381
0.0296629
0.0391542
0.0451127
0.048483
0.0498494
0.0496166
0.0483226
0.0464198
0.0442017
0.0418392
0.0394403
0.03708
0.0348081
0.0326589
0.0306358
0.028746
0.0270125
0.0252891
0.0240829
0.0228477
0.0216887
0.020624
0.0196494
0.01876
0.0179499
0.0172115
0.0165367
0.0159178
0.0153478
0.01482
0.0143285
0.0138678
0.0134326
0.013018
0.0126193
0.012232
0.0118516
0.0114737
0.0110936
0.0107067
0.010308
0.00989213
0.00945324
0.00898489
0.00847967
0.00793077
0.00732792
0.00666383
0.00592638
0.00509931
0.00418389
0.00314055
0.00198741
0.0006768
-0.179063
-0.13501
-0.0964297
-0.0608962
-0.0309278
-0.00780984
0.00951998
0.0222567
0.0312044
0.037141
0.0408128
0.0427508
0.0432054
0.0426046
0.0413667
0.0397585
0.0379438
0.0360329
0.0341007
0.0322035
0.0303805
0.0286629
0.0270597
0.0258445
0.0242281
0.0230222
0.0219011
0.020858
0.0198952
0.019012
0.0182047
0.0174662
0.0167889
0.0161656
0.0155897
0.015055
0.0145558
0.0140869
0.0136431
0.0132198
0.0128122
0.0124159
0.0120265
0.0116395
0.0112505
0.0108547
0.0104472
0.0100227
0.00957515
0.00909842
0.00858411
0.00802704
0.007414
0.00674257
0.00599346
0.00515844
0.00423213
0.0031754
0.00201375
0.000682658
-0.186413
-0.147857
-0.11547
-0.0835469
-0.0538594
-0.029381
-0.00989648
0.00542093
0.0170042
0.0253758
0.0311734
0.0349564
0.0371972
0.0380835
0.0379913
0.0372541
0.036108
0.0347158
0.0331867
0.0316018
0.0300205
0.0284909
0.0270468
0.025726
0.0244786
0.023192
0.0220991
0.0210788
0.0201269
0.019251
0.0184482
0.0177115
0.0170333
0.016407
0.0158263
0.0152857
0.0147797
0.0143033
0.0138516
0.01342
0.0130039
0.012599
0.012201
0.0118054
0.0114077
0.0110034
0.0105874
0.0101544
0.00969849
0.00921362
0.00869055
0.00812543
0.0075026
0.00682365
0.00606328
0.00522024
0.0042825
0.00321353
0.00204114
0.000690877
-0.189597
-0.156519
-0.128861
-0.100894
-0.0729923
-0.0486009
-0.0280345
-0.0108916
0.00284464
0.0134067
0.0212504
0.0268557
0.0306547
0.0329862
0.0341252
0.034359
0.0339577
0.0331284
0.0320247
0.030769
0.0294486
0.0281253
0.0268407
0.0256179
0.0244011
0.0233228
0.0222456
0.0212594
0.020325
0.0194643
0.018673
0.0179431
0.0172674
0.0166403
0.0160567
0.0155114
0.0149996
0.0145165
0.0140575
0.0136182
0.0131942
0.0127812
0.0123749
0.0119711
0.0115652
0.0111526
0.0107284
0.0102873
0.00982313
0.0093303
0.00879883
0.00822572
0.00759363
0.00690685
0.00613578
0.00528459
0.00433481
0.00325507
0.00206941
0.000702107
-0.189354
-0.16259
-0.138532
-0.113154
-0.0875412
-0.0643982
-0.0437736
-0.0255924
-0.010298
0.00199627
0.0115158
0.0186352
0.0237951
0.0274422
0.0297722
0.031034
0.0315037
0.0313914
0.030826
0.0299611
0.0289201
0.0277988
0.0266595
0.0255381
0.0244165
0.023331
0.0223688
0.0214343
0.0205181
0.0196716
0.0188908
0.0181677
0.0174951
0.0168683
0.0162826
0.0157334
0.0152164
0.0147271
0.0142613
0.0138147
0.0133831
0.0129624
0.0125482
0.0121364
0.0117225
0.0113019
0.0108698
0.0104208
0.00994871
0.00944805
0.00890857
0.00832755
0.00768681
0.00699189
0.0062108
0.00535135
0.00438888
0.0033002
0.00209854
0.000717275
-0.18675
-0.169413
-0.149361
-0.125796
-0.102473
-0.081075
-0.0615321
-0.043316
-0.0269467
-0.0129076
-0.00132254
0.00790036
0.0149961
0.0202962
0.0240732
0.0265374
0.0279548
0.0286138
0.0287403
0.0284458
0.0278534
0.0270762
0.0261932
0.0252551
0.0242857
0.0232993
0.0223548
0.0214834
0.0206193
0.0198307
0.0190807
0.0183737
0.0177092
0.0170854
0.0164994
0.0159477
0.0154265
0.0149319
0.01446
0.0140067
0.0135681
0.01314
0.0127184
0.012299
0.0118775
0.0114493
0.0110095
0.0105529
0.0100732
0.00956494
0.0090178
0.0084291
0.0077803
0.00707718
0.00628683
0.00541923
0.0044436
0.00334812
0.00212762
0.000737355
-0.169299
-0.163787
-0.145198
-0.122071
-0.0998607
-0.0798306
-0.0617
-0.044988
-0.0297969
-0.0164905
-0.00527627
0.00383988
0.0110218
0.0165474
0.0206593
0.0235701
0.0254999
0.0266581
0.0272014
0.0272493
0.0269374
0.0263916
0.0257013
0.0249217
0.0240858
0.0232266
0.0223471
0.0215076
0.0207378
0.0199606
0.0192323
0.0185403
0.0178872
0.0172714
0.0166903
0.016141
0.01562
0.015124
0.0146492
0.014192
0.0137487
0.0133152
0.0128877
0.0124621
0.0120341
0.0115991
0.0111523
0.0106886
0.0102018
0.00968589
0.00913189
0.00853422
0.00787954
0.00716469
0.00636886
0.00548901
0.00450125
0.00339862
0.00215586
0.000759652
-0.152228
-0.150187
-0.133996
-0.112627
-0.0923423
-0.0746598
-0.0589992
-0.0445082
-0.0310328
-0.0188945
-0.00838365
0.000364428
0.00742088
0.0130303
0.0173909
0.020621
0.0228782
0.0243567
0.0252131
0.0255673
0.0255426
0.0252539
0.0247851
0.0241913
0.0235101
0.0227744
0.0220147
0.0212444
0.0205504
0.0198776
0.0192108
0.0185665
0.0179493
0.0173604
0.0167991
0.016264
0.0157528
0.015263
0.0147917
0.0143357
0.0138917
0.0134562
0.0130256
0.0125958
0.0121631
0.0117227
0.0112702
0.0108004
0.0103073
0.00978461
0.00922424
0.00861886
0.00795858
0.00723374
0.00643365
0.00554175
0.00454688
0.00343495
0.0021758
0.000773262
-0.137046
-0.136033
-0.123091
-0.104786
-0.0869188
-0.0712619
-0.057433
-0.0445745
-0.0324177
-0.0212157
-0.0112794
-0.00283234
0.00411459
0.00977823
0.0143155
0.0177772
0.020299
0.0220778
0.0232495
0.023908
0.0241631
0.024125
0.0238751
0.0234697
0.0229525
0.0223607
0.0217266
0.0210826
0.0204484
0.019815
0.0191946
0.0185891
0.0180032
0.017439
0.0168968
0.016376
0.0158751
0.0153922
0.0149249
0.0144706
0.0140265
0.0135892
0.0131555
0.0127217
0.0122841
0.0118382
0.0113797
0.0109034
0.0104034
0.00987336
0.00930603
0.00869263
0.00802604
0.00729158
0.00648641
0.0055833
0.00458193
0.00346081
0.00218796
0.000780451
-0.121549
-0.121868
-0.112029
-0.0966941
-0.0810404
-0.0670817
-0.0547859
-0.0434171
-0.032603
-0.0224723
-0.013281
-0.00529179
0.0013968
0.00696583
0.0115557
0.0151636
0.0178884
0.019918
0.0213646
0.0222931
0.0228016
0.0229974
0.0229583
0.0227386
0.0223834
0.0219325
0.0214173
0.020863
0.0202999
0.0197346
0.0191684
0.0186065
0.0180553
0.0175182
0.0169969
0.0164916
0.0160019
0.0155265
0.0150638
0.0146115
0.0141673
0.0137283
0.0132916
0.0128537
0.0124109
0.0119593
0.0114944
0.011011
0.0105036
0.0099657
0.00939095
0.00876901
0.00809548
0.007351
0.00653961
0.00562553
0.00461596
0.00348617
0.00219914
0.000786575
-0.106738
-0.108496
-0.101123
-0.0883831
-0.0748401
-0.0625535
-0.0517298
-0.0417657
-0.0322368
-0.023174
-0.0147624
-0.00727488
-0.000894553
0.00451746
0.00909779
0.0127954
0.0156636
0.0178858
0.0195606
0.0207234
0.0214578
0.0218682
0.0220275
0.0219852
0.0217858
0.0214703
0.021073
0.0206228
0.0201434
0.0196437
0.0191325
0.0186164
0.0181022
0.0175945
0.017096
0.016608
0.0161309
0.0156642
0.015207
0.0147575
0.0143139
0.0138736
0.0134341
0.0129922
0.0125445
0.0120871
0.0116157
0.011125
0.0106102
0.0100644
0.0094821
0.0088515
0.00817065
0.00741602
0.00659763
0.00567263
0.00465356
0.00351508
0.00221331
0.000794071
-0.0935516
-0.0959823
-0.0904533
-0.0799577
-0.0684053
-0.0577398
-0.0482916
-0.0395988
-0.0312492
-0.0232108
-0.0155975
-0.00866631
-0.00266043
0.00251994
0.00701188
0.0107244
0.0136647
0.0160149
0.0178673
0.0192262
0.0201558
0.0207575
0.0210994
0.021225
0.0211767
0.0209963
0.0207184
0.0203693
0.0199711
0.0195399
0.0190862
0.0186181
0.018143
0.0176665
0.0171926
0.0167235
0.0162604
0.0158036
0.0153528
0.0149069
0.0144645
0.0140235
0.0135815
0.0131359
0.0126833
0.0122201
0.0117421
0.0112443
0.0107222
0.0101686
0.0095786
0.0089392
0.00825069
0.00748593
0.00665987
0.00572412
0.0046947
0.00354729
0.00223071
0.000802214
-0.0813433
-0.0840464
-0.0800376
-0.0715247
-0.061805
-0.0526613
-0.0444929
-0.0369636
-0.0296994
-0.0226347
-0.0158274
-0.00950031
-0.00392498
0.000964474
0.00530226
0.00896484
0.0119154
0.0143348
0.0163152
0.0178312
0.0189241
0.0196912
0.020197
0.0204772
0.0205706
0.0205179
0.0203528
0.0201019
0.0197874
0.0194266
0.0190318
0.018613
0.0181785
0.0177349
0.0172871
0.0168382
0.0163903
0.0159445
0.0155011
0.0150595
0.0146188
0.0141775
0.0137335
0.0132843
0.0128269
0.012358
0.0118734
0.0113687
0.0108392
0.0102775
0.00967948
0.00903107
0.00833447
0.00755956
0.00672511
0.00577873
0.00473813
0.00358157
0.00224982
0.000809675
-0.0696969
-0.0727668
-0.0700446
-0.0632332
-0.055142
-0.0473872
-0.0403984
-0.0339323
-0.027662
-0.0215129
-0.0154994
-0.00979965
-0.00469259
-0.000140004
0.0039883
0.00754331
0.0104473
0.0128792
0.0149366
0.0165684
0.0177893
0.0186916
0.0193371
0.0197543
0.0199766
0.0200428
0.0199854
0.0198299
0.0195978
0.0193072
0.0189716
0.0186029
0.0182101
0.0178006
0.0173801
0.0169527
0.0165212
0.0160873
0.0156521
0.0152155
0.0147772
0.014336
0.0138902
0.0134376
0.0129757
0.0125011
0.0120101
0.0114983
0.010961
0.010391
0.00978458
0.00912696
0.00842183
0.00763664
0.00679309
0.00583605
0.00478347
0.00361732
0.00226982
0.00081652
-0.0589699
-0.0622856
-0.0605618
-0.0551708
-0.0484979
-0.0419845
-0.0360651
-0.0305657
-0.0252054
-0.0199096
-0.0146567
-0.00958453
-0.00497121
-0.00079443
0.00307711
0.00647421
0.00928101
0.011673
0.013757
0.0154609
0.0167728
0.0177786
0.0185388
0.0190741
0.0194108
0.0195848
0.0196267
0.0195608
0.0194078
0.019186
0.018909
0.0185903
0.0182396
0.0178649
0.0174727
0.0170676
0.0166533
0.0162323
0.015806
0.0153751
0.0149397
0.014499
0.0140517
0.0135961
0.0131297
0.0126495
0.0121521
0.0116329
0.0110878
0.0105093
0.0098942
0.00922718
0.0085131
0.00771751
0.00686417
0.00589634
0.00483111
0.00365467
0.00229116
0.000823544
-0.0492211
-0.0525272
-0.0515675
-0.0473703
-0.0419247
-0.0365077
-0.0315495
-0.0269263
-0.0223951
-0.0178845
-0.0133479
-0.00889172
-0.00478686
-0.00101384
0.00256529
0.00576414
0.00843022
0.0107348
0.0127973
0.014531
0.0158984
0.0169766
0.0178243
0.0184552
0.0188885
0.0191561
0.0192868
0.0193031
0.0192245
0.0190688
0.0188481
0.0185784
0.0182695
0.0179297
0.017566
0.0171839
0.0167875
0.0163798
0.0159631
0.0155385
0.0151064
0.0146666
0.0142182
0.0137597
0.0132889
0.0128032
0.0122992
0.0117727
0.0112196
0.0106324
0.0100085
0.00933194
0.00860852
0.00780239
0.00693868
0.0059599
0.00488143
0.00369396
0.00231436
0.000831077
-0.0401346
-0.0434131
-0.0430767
-0.0398759
-0.0354809
-0.0310234
-0.0269199
-0.023082
-0.0192977
-0.015503
-0.0116341
-0.00777033
-0.00417276
-0.000817353
0.00244477
0.00541307
0.00790139
0.0100778
0.0120767
0.0138011
0.0151884
0.016306
0.017212
0.0179144
0.0184248
0.0187706
0.018978
0.019067
0.0190555
0.018962
0.0187937
0.0185711
0.0183028
0.0179973
0.017662
0.0173028
0.0169245
0.0165307
0.0161239
0.0157059
0.0152775
0.0148389
0.0143896
0.0139284
0.0134534
0.0129621
0.0124517
0.0119177
0.0113565
0.0107606
0.0101277
0.00944131
0.00870817
0.00789136
0.00701676
0.0060268
0.00493459
0.00373539
0.0023395
0.000839105
-0.0317224
-0.0349785
-0.0351175
-0.0327248
-0.029218
-0.0255917
-0.0222393
-0.0190967
-0.0159783
-0.0128294
-0.0095738
-0.00626863
-0.00316486
-0.000230197
0.00269891
0.00541244
0.00769479
0.00971056
0.0116091
0.0132863
0.0146586
0.0157842
0.0167202
0.0174695
0.0180362
0.0184429
0.0187127
0.0188628
0.0189089
0.0188642
0.0187509
0.0185732
0.0183433
0.0180705
0.0177627
0.017426
0.0170657
0.0166857
0.016289
0.0158778
0.0154534
0.0150162
0.0145662
0.0141023
0.0136232
0.0131265
0.0126095
0.012068
0.0114987
0.0108939
0.0102517
0.00955533
0.00881215
0.00798448
0.00709854
0.00609711
0.00499072
0.00377908
0.00236648
0.0008477
-0.0240859
-0.0272022
-0.027664
-0.0259247
-0.0231692
-0.0202594
-0.0175604
-0.0150256
-0.012494
-0.00992165
-0.00722332
-0.00443755
-0.00180598
0.000714219
0.00330416
0.00574829
0.00780452
0.00963342
0.0113998
0.0129969
0.0143231
0.0154273
0.0163654
0.0171365
0.0177378
0.0181869
0.0185036
0.0187025
0.018797
0.0188006
0.0187289
0.0185903
0.0183953
0.018153
0.0178709
0.0175557
0.0172126
0.0168461
0.0164594
0.0160549
0.0156345
0.0151988
0.0147481
0.0142817
0.0137985
0.0132963
0.0127727
0.0122237
0.011646
0.0110322
0.0103805
0.00967405
0.00892054
0.0080818
0.00718414
0.00617092
0.00504996
0.00382514
0.00239537
0.000856998
-0.0170679
-0.0199926
-0.0206918
-0.01949
-0.0173671
-0.015067
-0.0129285
-0.0109199
-0.00890107
-0.0068386
-0.00464051
-0.0023307
-0.000142583
0.00197834
0.00423199
0.00639987
0.00821676
0.00983994
0.0114498
0.0129395
0.0141919
0.0152473
0.0161613
0.0169297
0.0175435
0.0180157
0.0183631
0.0185972
0.0187291
0.0187705
0.0187339
0.0186285
0.0184639
0.0182486
0.0179899
0.0176943
0.0173673
0.0170134
0.016636
0.016238
0.0158213
0.015387
0.0149356
0.0144666
0.0139792
0.0134715
0.0129413
0.0123847
0.0117986
0.0111756
0.0105143
0.00979751
0.00903341
0.0081834
0.0072737
0.00624835
0.00511246
0.00387375
0.00242622
0.000867093
-0.0105573
-0.0133236
-0.0142051
-0.0134338
-0.0118314
-0.0100436
-0.00838299
-0.00682639
-0.00525108
-0.00363386
-0.00187907
4.11113e-07
0.0017785
0.00352183
0.00544919
0.00734124
0.00891301
0.010319
0.0117545
0.0131145
0.0142693
0.015252
0.0161181
0.0168609
0.0174661
0.0179422
0.0183032
0.0185579
0.0187146
0.0187829
0.0187734
0.0186944
0.0185547
0.0183619
0.0181233
0.0178448
0.017532
0.0171893
0.0168204
0.0164281
0.0160147
0.0155815
0.0151291
0.0146574
0.0141657
0.0136524
0.0131153
0.012551
0.0119564
0.0113241
0.0106529
0.00992571
0.00915081
0.00828932
0.00736731
0.0063295
0.00517833
0.00392509
0.00245913
0.000878045
-0.00458136
-0.00718341
-0.00817995
-0.00774411
-0.00656768
-0.00520881
-0.00395248
-0.00278053
-0.0015852
-0.000353403
0.00101238
0.00250737
0.00391153
0.00530339
0.00692008
0.00854314
0.00987054
0.011054
0.0123034
0.0135171
0.0145554
0.0154454
0.0162425
0.0169386
0.0175153
0.0179769
0.0183346
0.0185948
0.0187632
0.0188465
0.018855
0.0187947
0.0186733
0.0184979
0.0182751
0.0180105
0.0177094
0.017376
0.017014
0.0166265
0.0162156
0.0157828
0.015329
0.0148543
0.0143581
0.0138389
0.0132949
0.0127226
0.0121193
0.0114776
0.0107965
0.0100587
0.00927278
0.0083996
0.00746506
0.00641448
0.00524769
0.00397934
0.00249415
0.000889907
0.000901857
-0.0015122
-0.00257157
-0.00239977
-0.00157413
-0.000573787
0.00034214
0.00118847
0.00206027
0.00296144
0.0039896
0.00514485
0.00621201
0.00728131
0.00860747
0.00997349
0.0110625
0.012024
0.0130812
0.0141376
0.0150456
0.0158266
0.0165372
0.0171685
0.0176984
0.0181281
0.0184664
0.0187173
0.0188841
0.0189718
0.018987
0.0189362
0.0188257
0.0186617
0.0184497
0.018195
0.0179023
0.0175758
0.0172189
0.0168345
0.016425
0.0159918
0.015536
0.0150577
0.0145565
0.0140312
0.0134801
0.0128997
0.0122875
0.0116362
0.0109449
0.0101963
0.0093993
0.00851424
0.00756703
0.00650338
0.00532065
0.00403668
0.00253138
0.000902727
0.00598612
0.00374854
0.00265113
0.00261208
0.00314953
0.00385181
0.00448318
0.00505637
0.00565527
0.00627524
0.00701279
0.00787083
0.00863811
0.00941562
0.010474
0.0115985
0.0124594
0.0132043
0.014069
0.0149623
0.0157304
0.0163908
0.017001
0.0175521
0.0180194
0.0184018
0.0187057
0.0189329
0.0190848
0.0191645
0.019176
0.0191254
0.0190178
0.0188582
0.0186515
0.018402
0.018114
0.0177912
0.0174369
0.0170538
0.0166441
0.0162094
0.0157506
0.015268
0.0147614
0.0142295
0.0136708
0.013082
0.0124607
0.0117996
0.0110981
0.0103386
0.00953034
0.00863324
0.00767324
0.00659631
0.0053973
0.00409726
0.00257094
0.000916553
0.0107017
0.00862363
0.00750913
0.00730576
0.00760934
0.00806583
0.00846084
0.00880626
0.0091764
0.00955889
0.0100484
0.0106488
0.0111519
0.0116683
0.0124832
0.0133842
0.014031
0.0145687
0.0152445
0.0159732
0.0165966
0.0171286
0.0176282
0.0180874
0.0184794
0.0188008
0.0190568
0.0192475
0.0193717
0.0194305
0.0194278
0.0193679
0.0192548
0.0190924
0.0188846
0.0186351
0.0183474
0.0180248
0.0176702
0.017286
0.0168743
0.0164365
0.0159735
0.0154858
0.014973
0.0144339
0.0138672
0.0132697
0.012639
0.0119679
0.011256
0.0104853
0.00966583
0.00875655
0.00778369
0.00669333
0.00547774
0.00416128
0.00261295
0.000931435
0.0150689
0.0131462
0.0120357
0.011706
0.0118191
0.0120718
0.0122701
0.0124259
0.0126054
0.0127889
0.0130683
0.013447
0.0137192
0.0140044
0.0146006
0.0152978
0.0157466
0.0160895
0.0165835
0.0171501
0.0176277
0.0180274
0.0184098
0.0187678
0.0190737
0.0193228
0.0195199
0.0196638
0.019751
0.0197776
0.0197485
0.0196688
0.0195414
0.0193686
0.0191532
0.018898
0.0186058
0.0182793
0.017921
0.0175329
0.0171169
0.0166742
0.0162057
0.0157115
0.0151915
0.0146446
0.0140693
0.0134626
0.0128222
0.0121408
0.0114184
0.0106365
0.00980563
0.00888408
0.00789837
0.00679447
0.00556201
0.00422887
0.00265752
0.000947429
0.0191332
0.0173561
0.0162604
0.0158318
0.0157889
0.0158729
0.0159079
0.0159066
0.0159279
0.0159456
0.016048
0.0162372
0.0163093
0.0163919
0.0167936
0.0173075
0.017576
0.0177387
0.0180615
0.0184722
0.0188074
0.0190753
0.0193378
0.0195895
0.0198023
0.0199699
0.0200948
0.0201769
0.0202136
0.0201981
0.0201359
0.0200288
0.0198798
0.0196898
0.0194604
0.0191937
0.0188919
0.0185571
0.0181913
0.0177963
0.0173733
0.0169236
0.0164477
0.0159458
0.0154175
0.0148617
0.0142772
0.0136606
0.0130101
0.0123181
0.011585
0.0107917
0.00994958
0.00901569
0.00801719
0.00689974
0.00565016
0.0043002
0.00270481
0.000964591
0.0229321
0.0212875
0.0202121
0.0197048
0.0195325
0.0194756
0.0193744
0.0192425
0.0191324
0.019012
0.0189655
0.0189926
0.0188916
0.0187969
0.0190265
0.0193763
0.0194823
0.0194809
0.019645
0.0199094
0.0201092
0.0202511
0.0203987
0.0205488
0.0206731
0.020765
0.0208257
0.020851
0.0208444
0.0207373
0.0206097
0.0204594
0.0202771
0.0200605
0.0198096
0.0195249
0.019208
0.0188602
0.0184829
0.0180775
0.0176448
0.0171856
0.0167004
0.016189
0.0156511
0.0150854
0.0144907
0.0138637
0.0132026
0.0124997
0.0117556
0.0109508
0.0100974
0.00915115
0.00813999
0.00700909
0.00574216
0.00437539
0.00275493
0.00098298
0.0264728
0.0249567
0.0239143
0.0233504
0.0230724
0.0228969
0.0226818
0.0224414
0.0222222
0.0219867
0.0218145
0.0217025
0.0214508
0.0211992
0.0212731
0.0214718
0.0214263
0.0212687
0.0212773
0.0213933
0.0214515
0.0214565
0.0214731
0.0215001
0.0215105
0.0214988
0.0214708
0.0214216
0.0212568
0.0211752
0.0210603
0.0209037
0.0207057
0.0204685
0.0201956
0.01989
0.0195539
0.0191891
0.0187966
0.0183774
0.017932
0.0174609
0.0169641
0.0164415
0.0158924
0.0153156
0.0147097
0.0140715
0.0133992
0.0126849
0.0119297
0.0111133
0.0102487
0.00929016
0.00826655
0.00712239
0.00583792
0.00445452
0.00280799
0.00100263
0.0297897
0.028382
0.0273718
0.0267708
0.0264162
0.02615
0.0258455
0.0255214
0.0252201
0.0248988
0.0246318
0.0244128
0.0240442
0.0236706
0.0236233
0.0237053
0.0235436
0.0232659
0.0231548
0.023158
0.0231108
0.0230157
0.022939
0.022882
0.0228196
0.0227487
0.0226745
0.0225969
0.0224108
0.0221656
0.0218983
0.0216108
0.0213087
0.0209933
0.0206626
0.0203137
0.0199443
0.0195528
0.0191383
0.0187001
0.018238
0.0177515
0.0172405
0.0167042
0.016142
0.0155525
0.0149342
0.0142837
0.0135996
0.0128735
0.012107
0.0112788
0.0104032
0.00943236
0.00839658
0.00723945
0.00593727
0.00453764
0.00286405
0.00102359
0.0328557
0.0315214
0.030509
0.0298441
0.029403
0.02905
0.0286607
0.0282519
0.0278659
0.027458
0.0270962
0.0267694
0.0262825
0.0257832
0.0256065
0.0255597
0.0252675
0.024852
0.0245978
0.0244585
0.0242701
0.0240326
0.0238117
0.0236089
0.0233965
0.0231688
0.0229241
0.022533
0.0223477
0.0221676
0.0219768
0.0217688
0.0215348
0.0212692
0.0209699
0.0206376
0.0202738
0.0198805
0.0194596
0.0190123
0.0185393
0.0180411
0.0175177
0.0169688
0.0163938
0.0157914
0.0151604
0.0144975
0.0138013
0.0130633
0.0122855
0.0114456
0.0105595
0.00957659
0.00852914
0.00735951
0.00603952
0.00462436
0.00292283
0.0010454
0.0360585
0.0349311
0.0340292
0.0333626
0.032842
0.0323915
0.0319266
0.0314607
0.0310163
0.0305429
0.0301084
0.0297004
0.0291266
0.0285377
0.028271
0.0281382
0.0277638
0.0272645
0.0269255
0.0267074
0.0264484
0.0261473
0.025871
0.0256255
0.0253898
0.0251659
0.0249945
0.024757
0.0244358
0.0240777
0.0236858
0.0232689
0.0228355
0.0223913
0.0219389
0.0214783
0.0210081
0.0205262
0.0200305
0.0195194
0.0189919
0.0184467
0.017883
0.0172995
0.0166949
0.0160669
0.0154139
0.0147316
0.0140184
0.013265
0.0124737
0.0116204
0.0107226
0.00972695
0.00866728
0.00748518
0.00614632
0.00471654
0.00298567
0.00107
0.037949
0.0366564
0.0356584
0.0349824
0.0345084
0.0340897
0.033607