/*--------------------------------*- C++ -*----------------------------------*\
| =========                 |                                                 |
| \\      /  F ield         | OpenFOAM: The Open Source CFD Toolbox           |
|  \\    /   O peration     | Version:  2312                                  |
|   \\  /    A nd           | Website:  www.openfoam.com                      |
|    \\/     M anipulation  |                                                 |
\*---------------------------------------------------------------------------*/
FoamFile
{
    version     2.0;
    format      ascii;
    arch        "LSB;label=32;scalar=64";
    class       surfaceScalarField;
    location    "5.5";
    object      phi;
}
// * * * * * * * * * * * * * * * * * * * * * * * * * * * * * * * * * * * * * //

dimensions      [0 3 -1 0 0 0 0];

oriented        oriented;

internalField   nonuniform List<scalar> 
26232
(
-0.000323765
0.00132432
-0.00100056
-0.000314702
0.00287811
-0.00288717
0.000581029
0.00328098
-0.00417671
0.00276225
0.00225172
-0.00443295
0.0066345
-0.000584516
-0.00328773
0.0125873
-0.00554117
-0.000411588
0.0210417
-0.0128023
0.00434787
0.0321379
-0.0222573
0.0111611
0.0456158
-0.0334534
0.0199755
0.0607234
-0.0456386
0.030531
0.07631
-0.0579031
0.0423166
0.0910603
-0.0693577
0.0546074
0.1038
-0.0793035
0.0665643
0.113786
-0.0873647
0.0773786
0.120894
-0.0935484
0.0864397
0.125592
-0.0981869
0.0934895
0.128677
-0.101762
0.0986764
0.130913
-0.104697
0.102461
0.132836
-0.107251
0.105328
0.13467
-0.109576
0.107742
0.136592
-0.111621
0.109699
0.138553
-0.113718
0.111757
0.140239
-0.114988
0.113303
-0.117012
0.115637
0.141613
-0.000317415
0.00164174
-0.000257347
0.00281804
0.000893203
0.00213043
0.00376641
-0.00062148
0.00893251
-0.00575062
0.0168492
-0.0134579
0.027619
-0.0235721
0.0408144
-0.0354527
0.055465
-0.048104
0.0702591
-0.0604327
0.0838685
-0.0715125
0.0952783
-0.0807676
0.104019
-0.0880443
0.110221
-0.0935662
0.114455
-0.0977828
0.117438
-0.10117
0.119757
-0.104081
0.121775
-0.106715
0.12369
-0.109166
0.125598
-0.111484
0.127659
-0.113682
0.129798
-0.115857
0.132565
-0.117755
-0.120377
0.135929
-0.000122893
0.00176463
0.000407468
0.00228768
0.00238447
0.000153427
0.00654347
-0.00478048
0.013473
-0.0126802
0.023353
-0.0233379
0.035723
-0.035942
0.0494913
-0.049221
0.0632384
-0.0618512
0.0756429
-0.0728372
0.0858327
-0.0817023
0.0935462
-0.088481
0.0990677
-0.0935658
0.102987
-0.0974856
0.105915
-0.10071
0.1083
-0.103556
0.110414
-0.106194
0.11241
-0.108711
0.114388
-0.111144
0.116431
-0.113527
0.118583
-0.115834
0.120893
-0.118166
0.123429
-0.120291
-0.122771
0.125823
0.000135747
0.00162888
0.00133263
0.0010908
0.00441281
-0.00292675
0.0101072
-0.0104749
0.0187757
-0.0213487
0.0300593
-0.0346216
0.0428324
-0.0487151
0.05559
-0.0619786
0.066993
-0.0732541
0.0762522
-0.0820964
0.0832268
-0.0886769
0.0882669
-0.0935212
0.0919316
-0.0972305
0.0947398
-0.100294
0.0970574
-0.103028
0.0991081
-0.105606
0.101029
-0.108114
0.102904
-0.110587
0.104801
-0.11304
0.106749
-0.115475
0.108812
-0.117898
0.111002
-0.120356
0.113424
-0.122712
-0.125482
0.116134
0.000388579
0.0012403
0.00232005
-0.000840677
0.00661075
-0.00721744
0.0138339
-0.017698
0.0238585
-0.0313732
0.035624
-0.0463871
0.047544
-0.0606352
0.0581995
-0.0726341
0.0667973
-0.0818519
0.0732343
-0.0885335
0.0778777
-0.0933202
0.0812605
-0.096904
0.0838594
-0.0998293
0.0860107
-0.102445
0.0879239
-0.104941
0.0897222
-0.107405
0.091475
-0.109867
0.093226
-0.112338
0.095004
-0.114818
0.0968403
-0.117312
0.0987687
-0.119826
0.100784
-0.122371
0.10297
-0.124899
-0.127658
0.105146
0.000642797
0.000597507
0.00334537
-0.00354325
0.00885504
-0.0127271
0.0173684
-0.0262113
0.0280402
-0.0420451
0.0392361
-0.0575829
0.0493802
-0.0707794
0.0575712
-0.080825
0.0636649
-0.0879457
0.0680155
-0.092884
0.0711459
-0.0964506
0.0735248
-0.0992829
0.0754831
-0.101788
0.0772204
-0.104182
0.0788437
-0.106564
0.0804063
-0.108967
0.0819397
-0.111401
0.083468
-0.113866
0.0850172
-0.116367
0.0866117
-0.118906
0.0882722
-0.121486
0.0900196
-0.124118
0.0919031
-0.126782
-0.129634
0.0938793
0.000922023
-0.000324516
0.00442205
-0.00704328
0.0110376
-0.0193426
0.0203431
-0.0355169
0.0307878
-0.0524897
0.0405842
-0.0673794
0.0485969
-0.0787921
0.0545431
-0.0867711
0.0587224
-0.092125
0.0616515
-0.0958131
0.0638111
-0.0986102
0.0655435
-0.101015
0.0670515
-0.103296
0.0684392
-0.10557
0.0697578
-0.107883
0.071037
-0.110246
0.0722994
-0.112663
0.0735658
-0.115133
0.074855
-0.117656
0.0761829
-0.120234
0.0775665
-0.12287
0.0790102
-0.125562
0.0805405
-0.128312
-0.131181
0.0820879
0.00123096
-0.00155548
0.00550869
-0.011321
0.0129526
-0.0267865
0.0223836
-0.044948
0.0318506
-0.0619567
0.0398547
-0.0753835
0.0458422
-0.0847796
0.04999
-0.0909188
0.0527938
-0.0949288
0.0547593
-0.0977786
0.056259
-0.10011
0.0575157
-0.102272
0.0586431
-0.104423
0.0596953
-0.106622
0.0606999
-0.108888
0.0616744
-0.111221
0.0626331
-0.113622
0.06359
-0.11609
0.0645592
-0.118625
0.0655554
-0.12123
0.0665896
-0.123904
0.0676763
-0.126649
0.0688342
-0.12947
-0.132383
0.0700362
0.00155534
-0.00311082
0.00650799
-0.0162736
0.0143579
-0.0346364
0.0232711
-0.0538612
0.0313206
-0.0700062
0.0375137
-0.0815766
0.0417875
-0.0890535
0.0445721
-0.0937034
0.0463966
-0.0967533
0.0476796
-0.0990616
0.0486805
-0.101111
0.0495333
-0.103125
0.0502999
-0.10519
0.0510084
-0.107331
0.0516748
-0.109554
0.0523116
-0.111858
0.0529313
-0.114241
0.0535467
-0.116705
0.0541703
-0.119249
0.0548123
-0.121872
0.0554829
-0.124575
0.0561903
-0.127356
0.05694
-0.13022
-0.133158
0.0577148
0.00186568
-0.0049765
0.00730038
-0.0217083
0.0150799
-0.0424159
0.0230116
-0.0617928
0.0295011
-0.0764957
0.0340636
-0.0861391
0.0369645
-0.0919544
0.0387294
-0.0954684
0.0398326
-0.0978564
0.0405872
-0.0998163
0.0411614
-0.101685
0.0416326
-0.103596
0.0420341
-0.105591
0.0423825
-0.107679
0.0426892
-0.109861
0.0429648
-0.112133
0.0432195
-0.114496
0.0434637
-0.116949
0.0437072
-0.119492
0.0439594
-0.122124
0.0442286
-0.124844
0.044524
-0.127652
0.0448518
-0.130548
-0.133521
0.0452146
0.0021306
-0.0071071
0.00778635
-0.0273641
0.0150697
-0.0496993
0.0217728
-0.068496
0.0267528
-0.0814756
0.029931
-0.0893173
0.0317532
-0.0937765
0.0327397
-0.0964549
0.0332749
-0.0983916
0.0335783
-0.10012
0.0337539
-0.101861
0.0338458
-0.103688
0.0338732
-0.105618
0.0338476
-0.107654
0.0337782
-0.109791
0.0336737
-0.112029
0.0335432
-0.114366
0.0333954
-0.116802
0.0332392
-0.119336
0.0330826
-0.121968
0.0329335
-0.124695
0.0327973
-0.127515
0.0326731
-0.130424
-0.133412
0.0325641
0.00232662
-0.00943373
0.00792054
-0.032958
0.0144018
-0.0561806
0.0197991
-0.0738932
0.0234135
-0.08509
0.0254469
-0.0913508
0.0264138
-0.0947434
0.0267757
-0.0968168
0.0268255
-0.0984413
0.02671
-0.100004
0.0264923
-0.101643
0.0261977
-0.103393
0.0258386
-0.105259
0.0254234
-0.107239
0.0249597
-0.109328
0.0244551
-0.111524
0.0239172
-0.113828
0.0233532
-0.116238
0.0227707
-0.118754
0.0221773
-0.121374
0.0215807
-0.124098
0.0209891
-0.126924
0.0204084
-0.129843
0.0198472
-0.132851
-0.00322944
0.0027049
0.000524541
-0.00928337
0.00502852
0.00102541
-0.0164933
0.00596145
0.00124852
-0.0242012
0.00634976
0.00135808
-0.0322016
0.00656608
0.00143431
-0.0404044
0.00670436
0.0014985
-0.048707
0.00675322
0.00154941
-0.0569728
0.00668346
0.00158231
-0.0650314
0.00646599
0.00159256
-0.0726804
0.00607315
0.00157584
-0.0796874
0.00547873
0.00152833
-0.085792
0.00465816
0.00144638
-0.090707
0.00358855
0.00132649
-0.0941198
0.00224533
0.00116743
-0.0956837
0.000597559
0.000966346
-0.095168
-0.00123158
0.000715923
-0.0922864
-0.00333719
0.000455634
-0.0867625
-0.00569073
0.000166783
-0.0784287
-0.00821368
-0.000120144
-0.0672503
-0.0107828
-0.000395587
-0.0533343
-0.0132635
-0.000652369
-0.0369679
-0.0154947
-0.000871751
-0.0186557
-0.0172768
-0.00103541
-0.0190703
0.00158485
-0.0011702
-0.00278872
0.00549361
-0.00822791
0.0104677
-0.0148361
0.0125697
-0.0219498
0.0134634
-0.0293221
0.0139384
-0.0368383
0.0142205
-0.0443849
0.0142998
-0.0518202
0.0141188
-0.0589732
0.013619
-0.0656457
0.0127456
-0.0716155
0.0114485
-0.0766382
0.0096809
-0.0804497
0.00740008
-0.0827664
0.00456204
-0.0832386
0.00106967
-0.0817442
-0.00272598
-0.0780005
-0.00708089
-0.0717216
-0.0119696
-0.0627217
-0.0172136
-0.0509582
-0.0225464
-0.0365582
-0.0276635
-0.0197985
-0.0322544
-0.00123016
-0.0358452
-0.0393106
0.0190101
-0.00193373
0.00742734
-0.00613079
0.0146648
-0.0115017
0.0179406
-0.0173936
0.0193552
-0.0234817
0.0200265
-0.0295991
0.0203379
-0.0356118
0.0203126
-0.0413714
0.0198785
-0.0467085
0.0189561
-0.0514364
0.0174735
-0.0553578
0.0153698
-0.0582726
0.0125958
-0.0599794
0.00910684
-0.0602687
0.00485134
-0.0589168
-0.000282168
-0.0558689
-0.0057739
-0.050771
-0.0121788
-0.0434138
-0.0193267
-0.0336018
-0.0270256
-0.0212597
-0.0348885
-0.00651888
-0.0424043
0.0102107
-0.048984
0.0284123
-0.0540468
-0.0585431
0.0476448
-0.000838339
0.00826568
-0.00332182
0.0171483
-0.0069331
0.0215519
-0.0110953
0.0235174
-0.0153936
0.0243248
-0.0195821
0.0245265
-0.0234919
0.0242224
-0.0269658
0.0233523
-0.02984
0.0218303
-0.0319478
0.0195813
-0.0331281
0.0165502
-0.0332355
0.0127032
-0.0321491
0.00802038
-0.0297522
0.00245443
-0.0262249
-0.0038094
-0.0211216
-0.0108773
-0.0144157
-0.0188847
-0.00592244
-0.0278199
0.00451184
-0.0374599
0.0168907
-0.0472673
0.0311646
-0.0566782
0.046864
-0.0646834
0.0635053
-0.070688
-0.0752495
0.0802117
0.000268694
0.00799699
-0.000272438
0.0176894
-0.00179068
0.0230701
-0.00388033
0.0256071
-0.00608633
0.0265308
-0.00807642
0.0265166
-0.00963064
0.0257766
-0.0105816
0.0243033
-0.0107812
0.0220299
-0.0100959
0.018896
-0.00841584
0.0148701
-0.00566735
0.00995467
-0.00182142
0.00417444
0.00304939
-0.00241638
0.00900063
-0.00976064
0.0160573
-0.017934
0.0242663
-0.0270937
0.0337422
-0.0372958
0.044662
-0.0483797
0.0569518
-0.0595572
0.0703799
-0.0701063
0.0842681
-0.0785716
0.0983624
-0.0847824
-0.0884194
0.111532
0.00113669
0.0068603
0.00241875
0.0164073
0.00309996
0.0223889
0.00323987
0.0254672
0.00322653
0.0265441
0.0034456
0.0262975
0.00417335
0.0250488
0.00559326
0.0228834
0.0078307
0.0197925
0.010969
0.0157577
0.0150493
0.0107897
0.0200549
0.00494907
0.0259207
-0.00169133
0.0326527
-0.0091484
0.0401788
-0.0172867
0.048539
-0.0262942
0.0578612
-0.0364159
0.0682621
-0.0476967
0.0797211
-0.0598387
0.0918626
-0.0716987
0.104156
-0.0823995
0.115814
-0.0902301
0.126725
-0.0956936
-0.0977259
0.136032
0.00160948
0.00525081
0.00426406
0.0137528
0.00687213
0.0197808
0.00913979
0.0231995
0.011244
0.0244399
0.0135146
0.0240269
0.0162425
0.0223209
0.0196224
0.0195035
0.023758
0.0156569
0.0286771
0.0108386
0.0343356
0.00513123
0.0406578
-0.00137317
0.0477252
-0.00875873
0.0553752
-0.0167984
0.0637569
-0.0256684
0.0730856
-0.0356229
0.083534
-0.0468643
0.0950213
-0.0591839
0.107044
-0.0718613
0.11878
-0.0834346
0.129406
-0.0930261
0.138339
-0.0991629
0.145738
-0.103092
-0.103434
0.151446
0.00165233
0.00359849
0.00494505
0.01046
0.00881306
0.0159128
0.0127195
0.019293
0.0165794
0.02058
0.0205545
0.0200518
0.0248592
0.0180162
0.0296538
0.0147089
0.0350099
0.0103008
0.0409089
0.00493954
0.0472999
-0.00125975
0.0543464
-0.00841969
0.0619171
-0.0163294
0.0702968
-0.0251782
0.0798155
-0.035187
0.0907039
-0.0465113
0.1028
-0.0589599
0.115417
-0.0718015
0.127421
-0.0838655
0.137764
-0.0937768
0.14576
-0.101022
0.151478
-0.104882
0.155553
-0.107167
-0.106449
0.158569
0.00136718
0.0022313
0.00452491
0.00730231
0.00871159
0.0117261
0.0133643
0.0146403
0.0182133
0.015731
0.0232225
0.0150426
0.0284633
0.0127755
0.0340137
0.00915849
0.0399137
0.00440082
0.0462176
-0.00136433
0.0531691
-0.00821129
0.0608128
-0.0160634
0.0695686
-0.0250852
0.0798143
-0.0354238
0.0916916
-0.0470644
0.104846
-0.0596656
0.118318
-0.0724322
0.130796
-0.0842792
0.141011
-0.0940804
0.148392
-0.101158
0.152998
-0.105628
0.155753
-0.107637
0.157575
-0.108989
-0.1082
0.159325
0.000904464
0.00132684
0.003345
0.00486177
0.00696009
0.00811105
0.0113399
0.0102605
0.0161783
0.0108926
0.0213227
0.00989816
0.0267448
0.00735341
0.0325071
0.00339621
0.0387899
-0.00188203
0.0459036
-0.00847798
0.054151
-0.0164588
0.0639774
-0.0258897
0.0756415
-0.0367492
0.0890012
-0.0487836
0.103362
-0.0614247
0.117523
-0.0738269
0.130073
-0.0849822
0.139868
-0.0940747
0.146432
-0.100644
0.150225
-0.10495
0.1521
-0.107504
0.153371
-0.108908
0.154569
-0.110187
-0.110007
0.156376
0.000389684
0.000937157
0.00183632
0.00341514
0.00434706
0.00560032
0.00775014
0.00685745
0.0118579
0.00678485
0.0165858
0.00517029
0.0219949
0.00194425
0.0283331
-0.002942
0.0359816
-0.00953051
0.0453585
-0.0178549
0.0567409
-0.0278412
0.0700763
-0.0392251
0.0848242
-0.0514972
0.0999617
-0.063921
0.114162
-0.0756249
0.126123
-0.0857883
0.134987
-0.0938461
0.140633
-0.0997208
0.143697
-0.103708
0.145259
-0.106513
0.146232
-0.108476
0.147554
-0.11023
0.149093
-0.111726
-0.112328
0.151415
-6.34009e-05
0.000464564
0.00188817
0.00431267
0.0078098
0.0125685
0.0188606
0.0270797
0.0375247
0.0502009
0.0646763
0.0800586
0.0951256
0.108583
0.119398
0.127099
0.13193
0.134669
0.136289
0.137519
0.138741
0.140268
0.141845
0.145154
0.0268103
-0.0235183
-0.0017072
0.0494454
-0.0209609
-0.00167414
0.0695213
-0.0184661
-0.00160976
0.087164
-0.0161107
-0.00153199
0.102475
-0.0138475
-0.00146396
0.115623
-0.0117358
-0.00141191
0.126844
-0.00983781
-0.0013835
0.136384
-0.00815724
-0.00138208
0.144463
-0.00666847
-0.00141028
0.151271
-0.00533971
-0.00146901
0.156976
-0.00415625
-0.0015487
0.161728
-0.00311431
-0.00163748
0.165666
-0.00219678
-0.00174125
0.168919
-0.00137367
-0.00187931
0.171601
-0.000618751
-0.00206292
0.173815
7.02727e-05
-0.00228453
0.175658
0.000682029
-0.00252487
0.177194
0.00123699
-0.00277287
0.178486
0.00172836
-0.00302076
0.17958
0.00219237
-0.00328654
0.180515
0.00265428
-0.00358895
0.181315
0.00314036
-0.0039401
0.181997
0.00365979
-0.0043418
0.182574
0.00421256
-0.00478998
0.183058
0.0047962
-0.00527998
0.183458
0.00540985
-0.00580966
0.183782
0.00605515
-0.00637973
0.184039
0.006736
-0.00699311
0.184236
0.00745762
-0.00765403
0.184377
0.00822573
-0.00836736
0.184469
0.00904637
-0.00913829
0.184516
0.00992595
-0.0099725
0.184521
0.0108712
-0.0108762
0.184487
0.0118895
-0.011856
0.184418
0.0129886
-0.0129194
0.184316
0.014177
-0.0140746
0.184182
0.0154642
-0.0153306
0.184019
0.0168604
-0.0166974
0.183828
0.0183768
-0.0181859
0.183611
0.0200261
-0.0198086
0.183368
0.0218218
-0.0215789
0.1831
0.0237795
-0.0235121
0.18281
0.0259161
-0.0256252
0.182496
0.0282506
-0.0279368
0.18216
0.0308041
-0.0304682
0.181802
0.0336004
-0.0332428
0.181424
0.0366652
-0.0362865
0.181024
0.0400295
-0.03963
0.180604
0.0437192
-0.0432993
0.180164
0.0477945
-0.047354
0.179704
0.0522164
-0.0517567
0.179222
0.0572688
-0.056787
0.178725
0.0623351
-0.0618384
0.178199
0.0691493
-0.0686225
0.177668
0.0739504
-0.07342
0.177097
0.0844975
-0.0839264
0.176521
0.0873398
-0.0867637
0.175922
0.102872
-0.102273
0.175289
0.105259
-0.104625
0.12321
-0.122556
0.0414533
-0.0459614
0.0617161
-0.0412237
0.0796956
-0.0364457
0.0953882
-0.0318033
0.108966
-0.0274249
0.120599
-0.0233688
0.130528
-0.0197677
0.138998
-0.0166267
0.146215
-0.0138859
0.152355
-0.0114791
0.15756
-0.00936138
0.161953
-0.00750759
0.165648
-0.00589176
0.168752
-0.00447707
0.171358
-0.00322488
0.173538
-0.00211015
0.175352
-0.00113198
0.176863
-0.000273487
0.178153
0.000437905
0.179251
0.00109415
0.180197
0.00170805
0.181012
0.00232549
0.181713
0.00295952
0.18231
0.00361488
0.182815
0.00429116
0.183237
0.00498848
0.183583
0.00570907
0.183861
0.00645758
0.184079
0.00724009
0.184241
0.00806316
0.184354
0.00893362
0.184421
0.0098586
0.184447
0.0108455
0.184435
0.0119021
0.184386
0.0130367
0.184305
0.0142583
0.184193
0.0155766
0.184051
0.0170021
0.183881
0.0185464
0.183685
0.0202221
0.183464
0.0220433
0.183218
0.0240254
0.182948
0.0261857
0.182656
0.0285432
0.18234
0.0311193
0.182003
0.0339376
0.181644
0.0370243
0.181263
0.0404102
0.180861
0.0441214
0.180437
0.0482185
0.179992
0.0526614
0.179523
0.057738
0.179036
0.0628216
0.178517
0.0696687
0.17799
0.0744773
0.177418
0.0850698
0.176838
0.0879201
0.176222
0.103487
0.175575
0.105906
0.123896
0.0649659
-0.0632825
0.080968
-0.0572258
0.0952936
-0.0507713
0.107803
-0.0443124
0.118592
-0.038214
0.127902
-0.0326791
0.135883
-0.0277489
0.142726
-0.0234689
0.148612
-0.0197725
0.153695
-0.0165617
0.15809
-0.0137566
0.161888
-0.0113056
0.165166
-0.00916984
0.167992
-0.00730296
0.17042
-0.0056529
0.172498
-0.00418798
0.174269
-0.00290365
0.17579
-0.00179433
0.177074
-0.00084597
0.178164
4.36671e-06
0.179126
0.000745604
0.179962
0.00148962
0.180689
0.0022332
0.181316
0.00298761
0.181853
0.00375431
0.182307
0.00453415
0.182687
0.00532944
0.182999
0.0061453
0.183251
0.00698846
0.183447
0.00786625
0.183595
0.00878625
0.183697
0.0097563
0.183758
0.0107844
0.183781
0.0118789
0.18377
0.0130485
0.183725
0.0143027
0.18365
0.0156515
0.183547
0.0171058
0.183416
0.0186773
0.183259
0.0203789
0.183077
0.0222249
0.182872
0.024231
0.182643
0.0264145
0.182392
0.0287946
0.182118
0.0313929
0.181823
0.0342331
0.181505
0.0373415
0.181166
0.0407492
0.180806
0.0444823
0.180422
0.0486019
0.180017
0.0530665
0.179587
0.0581685
0.179137
0.0632713
0.178652
0.0701533
0.178157
0.0749726
0.177613
0.0856142
0.177058
0.0884744
0.176458
0.104087
0.175829
0.106535
0.124581
0.090498
-0.0735688
0.100722
-0.0674502
0.110327
-0.0603758
0.119063
-0.0530487
0.12683
-0.045981
0.133695
-0.039544
0.139792
-0.0338456
0.145158
-0.0288347
0.149873
-0.024488
0.154033
-0.0207213
0.157715
-0.0174386
0.160978
-0.0145693
0.163872
-0.0120636
0.166437
-0.00986813
0.168705
-0.00792064
0.170694
-0.00617703
0.17242
-0.00462938
0.173911
-0.00328548
0.175203
-0.00213816
0.176341
-0.00113357
0.177304
-0.000217643
0.178171
0.000623153
0.178931
0.00147275
0.179597
0.00232136
0.180177
0.00317514
0.180675
0.00403555
0.1811
0.00490435
0.181459
0.00578669
0.181758
0.00668984
0.182002
0.00762175
0.182198
0.00859066
0.182349
0.00960506
0.18246
0.0106736
0.182534
0.0118051
0.182573
0.0130088
0.182581
0.0142946
0.18256
0.0156729
0.182511
0.0171548
0.182436
0.0187524
0.182336
0.0204789
0.182212
0.0223486
0.182066
0.0243776
0.181897
0.0265831
0.181707
0.0289849
0.181495
0.0316044
0.181262
0.0344657
0.181009
0.0375951
0.180734
0.041024
0.180438
0.0447784
0.180119
0.0489204
0.179779
0.0534068
0.179413
0.0585349
0.179026
0.0636578
0.178604
0.0705758
0.178168
0.075408
0.177681
0.0861014
0.177183
0.0889727
0.176629
0.104641
0.176049
0.107115
0.125233
0.114381
-0.0764172
0.118322
-0.0713914
0.122808
-0.064862
0.127532
-0.0577721
0.132295
-0.0507443
0.136911
-0.0441607
0.141287
-0.0382209
0.145429
-0.0329766
0.149271
-0.0283299
0.152791
-0.0242417
0.155998
-0.0206459
0.158911
-0.0174818
0.161551
-0.0147035
0.163942
-0.0122596
0.166105
-0.0100831
0.168045
-0.00811719
0.169763
-0.00634727
0.171265
-0.00478823
0.172572
-0.00344478
0.173723
-0.00228471
0.174755
-0.00124962
0.175642
-0.000263831
0.176448
0.000666607
0.177162
0.00160728
0.177794
0.00254349
0.178348
0.00348175
0.17883
0.00442219
0.179247
0.00536955
0.179605
0.0063315
0.179911
0.00731652
0.180168
0.00833334
0.180382
0.00939102
0.180557
0.0104988
0.180696
0.0116661
0.180802
0.0129026
0.180878
0.0142186
0.180926
0.0156249
0.180948
0.017133
0.180945
0.0187551
0.180919
0.0205048
0.180871
0.0223966
0.180802
0.0244467
0.180713
0.0266728
0.180603
0.0290945
0.180474
0.0317336
0.180325
0.0346144
0.180157
0.0377634
0.179968
0.0412122
0.17976
0.0449869
0.17953
0.0491504
0.179279
0.0536579
0.179002
0.0588116
0.178705
0.0639546
0.178372
0.0709091
0.178024
0.0757553
0.177623
0.0865026
0.177211
0.0893852
0.176734
0.105118
0.176236
0.107612
0.125816
0.132974
-0.0733596
0.13167
-0.0700868
0.131798
-0.0649903
0.133056
-0.0590301
0.135189
-0.0528768
0.137898
-0.0468697
0.140891
-0.041214
0.143964
-0.0360502
0.147074
-0.0314401
0.150117
-0.0272845
0.153007
-0.0235359
0.155701
-0.0201753
0.158189
-0.0171914
0.160483
-0.0145544
0.162601
-0.0122002
0.164539
-0.0100552
0.166283
-0.00809133
0.167825
-0.00633098
0.169179
-0.00479802
0.17037
-0.00347598
0.171431
-0.00231108
0.172402
-0.00123491
0.173244
-0.000175462
0.174018
0.000833391
0.174713
0.00184913
0.175332
0.00286198
0.175883
0.00387145
0.176371
0.00488174
0.176802
0.0059008
0.177181
0.00693751
0.177513
0.00800087
0.177804
0.00910044
0.178057
0.010246
0.178275
0.0114474
0.178463
0.012715
0.178622
0.0140595
0.178755
0.0154919
0.178864
0.0170241
0.17895
0.0186688
0.179015
0.0204396
0.17906
0.0223514
0.179087
0.0244204
0.179095
0.0266648
0.179085
0.0291042
0.179058
0.0317608
0.179013
0.0346589
0.178952
0.0378253
0.178872
0.0412921
0.178774
0.0450851
0.178656
0.0492685
0.178518
0.0537954
0.178356
0.0589737
0.178175
0.0641359
0.177957
0.0711263
0.177726
0.0759868
0.17744
0.0867889
0.177143
0.089682
0.176774
0.105487
0.17639
0.107996
0.126299
0.144699
-0.0666127
0.13994
-0.0653277
0.137069
-0.0621201
0.135845
-0.0578058
0.136009
-0.0530404
0.137198
-0.0480594
0.139064
-0.0430798
0.141327
-0.0383125
0.143777
-0.03389
0.146353
-0.0298608
0.148961
-0.0261441
0.151488
-0.0227025
0.153875
-0.0195777
0.156113
-0.0167925
0.158216
-0.0143034
0.160181
-0.0120202
0.161982
-0.00989227
0.163594
-0.00794258
0.165014
-0.00621853
0.166268
-0.00473013
0.167389
-0.0034315
0.168404
-0.00225039
0.169349
-0.00112039
0.170176
6.50242e-06
0.170947
0.00107794
0.171643
0.00216555
0.172274
0.00324114
0.172844
0.0043117
0.173359
0.00538571
0.173824
0.00647232
0.174245
0.00758045
0.174625
0.00872009
0.174969
0.00990151
0.175282
0.0111352
0.175565
0.0124318
0.175822
0.0138024
0.176055
0.0152587
0.176267
0.0168127
0.176458
0.0184774
0.176631
0.0202667
0.176787
0.0221957
0.176926
0.024281
0.17705
0.0265408
0.177159
0.0289952
0.177254
0.0316664
0.177333
0.0345791
0.177399
0.0377601
0.177449
0.041242
0.177483
0.0450507
0.1775
0.0492515
0.1775
0.0537955
0.177477
0.0589966
0.177437
0.064176
0.177362
0.071201
0.177274
0.0760748
0.177131
0.086932
0.17698
0.0898336
0.17675
0.105716
0.176511
0.108235
0.126646
0.15028
-0.0583235
0.143856
-0.0589045
0.139301
-0.0575648
0.136509
-0.0550139
0.13529
-0.0518217
0.135305
-0.0480735
0.13621
-0.0439848
0.137728
-0.0398313
0.13964
-0.0358016
0.141771
-0.0319923
0.144043
-0.0284162
0.146388
-0.0250467
0.148688
-0.0218779
0.150891
-0.018996
0.152998
-0.0164099
0.155003
-0.0140251
0.156876
-0.0117653
0.158578
-0.00964513
0.160092
-0.00773273
0.161433
-0.00607026
0.162632
-0.0046314
0.163724
-0.00334176
0.16473
-0.00212646
0.165666
-0.000929733
0.166508
0.000235641
0.167293
0.00138151
0.168013
0.0025204
0.168677
0.00364746
0.16929
0.00477358
0.169854
0.00590804
0.170375
0.00705905
0.170859
0.00823676
0.171308
0.00945194
0.171728
0.0107155
0.172121
0.0120387
0.17249
0.013433
0.172839
0.0149104
0.173168
0.0164833
0.17348
0.0181651
0.173777
0.0199698
0.17406
0.021913
0.17433
0.0240113
0.174587
0.0262833
0.174833
0.0287492
0.175068
0.0314315
0.175292
0.0343552
0.175504
0.0375474
0.175705
0.041041
0.175894
0.044862
0.176069
0.0490771
0.176229
0.0536349
0.17637
0.0588561
0.176496
0.0640497
0.176589
0.0711075
0.176672
0.075992
0.1767
0.0869039
0.176723
0.0898113
0.176663
0.105776
0.176599
0.108299
0.126825
0.151228
-0.0502265
0.144488
-0.0521646
0.139201
-0.0522771
0.135501
-0.051314
0.133323
-0.049644
0.132403
-0.0471529
0.132474
-0.0440559
0.133304
-0.0406619
0.134676
-0.0371735
0.136414
-0.0337305
0.138391
-0.0303924
0.140512
-0.0271684
0.142715
-0.0240805
0.144887
-0.0211682
0.146998
-0.018521
0.149037
-0.0160644
0.150977
-0.013705
0.152775
-0.0114427
0.1544
-0.00935768
0.155852
-0.00752274
0.157157
-0.00593671
0.158349
-0.00453296
0.159449
-0.00322665
0.160482
-0.00196247
0.161428
-0.000711146
0.16231
0.000500156
0.163131
0.00169867
0.163899
0.00287997
0.164618
0.00405454
0.165292
0.00523417
0.165925
0.00642551
0.166523
0.00763869
0.16709
0.00888493
0.16763
0.0101756
0.168146
0.0115225
0.168642
0.0129375
0.16912
0.0144328
0.169581
0.0160215
0.17003
0.0177168
0.170466
0.0195335
0.170892
0.0214871
0.171308
0.0235947
0.171717
0.025875
0.172117
0.0283484
0.172511
0.0310379
0.172898
0.0339686
0.173277
0.0371678
0.173649
0.0406691
0.174013
0.044498
0.174367
0.0487234
0.174711
0.0532909
0.175038
0.0585288
0.175356
0.0637324
0.175642
0.0708206
0.175922
0.075712
0.176149
0.0866775
0.176373
0.0895868
0.176514
0.105635
0.176655
0.108157
0.126803
0.149325
-0.0431757
0.14292
-0.0457592
0.137355
-0.0467122
0.133121
-0.0470806
0.130247
-0.0467695
0.128573
-0.0454785
0.12793
-0.0434132
0.128145
-0.0408766
0.129025
-0.0380537
0.130386
-0.0350915
0.132092
-0.0320987
0.134048
-0.0291238
0.13614
-0.0261728
0.138263
-0.0232909
0.140356
-0.020614
0.142405
-0.0181141
0.144394
-0.0156938
0.146279
-0.0133277
0.148017
-0.0110958
0.149592
-0.00909747
0.151016
-0.0073608
0.152319
-0.00583554
0.153528
-0.00443552
0.154656
-0.00309126
0.155725
-0.00177948
0.156705
-0.000480056
0.157641
0.000762537
0.158524
0.0019965
0.159362
0.0032166
0.160158
0.00443859
0.160916
0.00566768
0.161641
0.00691378
0.162337
0.00818833
0.16301
0.00950323
0.163662
0.0108706
0.164296
0.0123029
0.164916
0.0138127
0.165525
0.0154133
0.166123
0.0171185
0.166713
0.018943
0.167298
0.0209029
0.167877
0.0230154
0.168452
0.0252995
0.169025
0.027776
0.169595
0.030468
0.170162
0.0334009
0.170728
0.0366024
0.17129
0.0401066
0.17185
0.0439385
0.172404
0.0481695
0.172953
0.0527418
0.173489
0.0579922
0.174021
0.0632005
0.174526
0.0703162
0.175029
0.0752089
0.17548
0.0862266
0.175934
0.0891325
0.176304
0.105266
0.176679
0.107782
0.126547
0.145377
-0.0371382
0.139294
-0.039676
0.133727
-0.0411452
0.129266
-0.0426196
0.125939
-0.043442
0.123724
-0.0432636
0.122547
-0.0422358
0.122284
-0.0406139
0.122772
-0.0385425
0.123833
-0.0361521
0.125306
-0.0335717
0.12706
-0.0308779
0.128987
-0.0281003
0.131012
-0.0253156
0.133052
-0.022654
0.135077
-0.0201385
0.137089
-0.0177064
0.139063
-0.0153016
0.140937
-0.0129693
0.142666
-0.0108264
0.144239
-0.00893374
0.145675
-0.00727177
0.147004
-0.00576504
0.148251
-0.00433814
0.149424
-0.00295248
0.150548
-0.00160352
0.151588
-0.000277398
0.152601
0.000983207
0.153568
0.00224921
0.154493
0.00351351
0.155383
0.00477774
0.156244
0.0060534
0.157079
0.00735264
0.157895
0.00868801
0.158693
0.0100721
0.159478
0.0115178
0.160253
0.013038
0.16102
0.0146463
0.161781
0.0163569
0.16254
0.0181847
0.163296
0.0201462
0.164053
0.0222587
0.164811
0.0245418
0.165571
0.0270161
0.166333
0.0297054
0.167099
0.0326351
0.167868
0.0358334
0.16864
0.0393351
0.169414
0.0431645
0.170188
0.0473955
0.170963
0.0519666
0.17173
0.0572248
0.1725
0.0624312
0.173245
0.0695711
0.173996
0.0744577
0.174697
0.0855258
0.175407
0.088422
0.176035
0.104638
0.176672
0.107144
0.126024
0.140313
-0.0322977
0.134948
-0.0343109
0.129955
-0.0361521
0.125379
-0.0380433
0.121431
-0.0394938
0.118431
-0.0402643
0.11653
-0.0403341
0.115621
-0.0397058
0.115566
-0.0384871
0.116203
-0.0367888
0.117364
-0.0347333
0.118921
-0.0324343
0.120765
-0.0299447
0.122789
-0.0273394
0.124888
-0.0247534
0.126994
-0.0222445
0.129077
-0.0197897
0.131125
-0.0173495
0.133111
-0.0149554
0.134988
-0.012703
0.136726
-0.0106718
0.138327
-0.00887273
0.139813
-0.00725103
0.141209
-0.0057343
0.142531
-0.00427459
0.143785
-0.00285735
0.144992
-0.00148432
0.146117
-0.000141396
0.147228
0.00113754
0.1483
0.00244163
0.149338
0.00373957
0.150348
0.00504345
0.151336
0.00636516
0.152306
0.00771802
0.153263
0.00911533
0.15421
0.0105704
0.155151
0.0120967
0.156089
0.0137082
0.157027
0.0154193
0.157966
0.0172455
0.158909
0.0192034
0.159857
0.0213107
0.160812
0.0235871
0.161774
0.0260537
0.162745
0.0287343
0.163725
0.031655
0.164715
0.034844
0.165713
0.038337
0.16672
0.0421576
0.167733
0.0463826
0.168753
0.0509459
0.169772
0.0562062
0.1708
0.061403
0.171808
0.0685634
0.172831
0.0734347
0.173805
0.0845512
0.174797
0.0874301
0.175711
0.103725
0.176635
0.10622
0.125203
0.189742
-0.0273886
-0.194651
0.185775
-0.0303445
0.182046
-0.0324226
0.178223
-0.0342208
0.17436
-0.0356308
0.170616
-0.0365198
0.167112
-0.0368302
0.163942
-0.0365358
0.161152
-0.0356974
0.158767
-0.0344032
0.15678
-0.0327469
0.155176
-0.0308298
0.153942
-0.0287104
0.153052
-0.0264492
0.152446
-0.0241483
0.152066
-0.0218637
0.151866
-0.0195904
0.151834
-0.0173171
0.151954
-0.0150749
0.152191
-0.0129399
0.1525
-0.0109812
0.152842
-0.00921472
0.153192
-0.00760124
0.15354
-0.00608258
0.153883
-0.00461764
0.154218
-0.00319219
0.154545
-0.00181106
0.15488
-0.000476847
0.15517
0.000847903
0.155451
0.00216105
0.155718
0.00347247
0.155972
0.00478913
0.156213
0.006124
0.156441
0.0074899
0.156657
0.00889973
0.156861
0.0103665
0.157054
0.0119037
0.157237
0.013525
0.157411
0.015245
0.157578
0.017079
0.157738
0.0190437
0.157892
0.0211567
0.158041
0.0234378
0.158186
0.0259083
0.158329
0.0285918
0.158469
0.0315144
0.158609
0.0347045
0.158748
0.0381977
0.158888
0.0420178
0.159029
0.0462413
0.159172
0.0508034
0.159319
0.0560593
0.159464
0.0612572
0.15962
0.0684082
0.15977
0.073284
0.159926
0.0843954
0.160095
0.0872616
0.160232
0.103587
0.160413
0.106039
0.125068
0.198731
-0.0235894
-0.20253
0.194975
-0.0265884
0.191342
-0.0287895
0.187671
-0.0305496
0.183991
-0.0319511
0.180414
-0.0329428
0.177047
-0.0334636
0.173973
-0.0334611
0.17124
-0.0329651
0.168881
-0.0320436
0.166898
-0.0307647
0.165276
-0.0292073
0.163991
-0.027425
0.163017
-0.0254762
0.16232
-0.0234507
0.161849
-0.0213928
0.161557
-0.019298
0.161417
-0.0171779
0.161422
-0.0150801
0.161553
-0.0130707
0.161775
-0.0112028
0.16205
-0.00948944
0.16235
-0.00790168
0.162662
-0.00639484
0.162982
-0.00493709
0.163306
-0.00351601
0.163624
-0.00212921
0.163921
-0.000774186
0.164218
0.000550539
0.164504
0.00187593
0.164778
0.00319848
0.165039
0.00452801
0.165287
0.00587586
0.165522
0.00725443
0.165746
0.00867637
0.165958
0.0101545
0.166159
0.0117022
0.166351
0.013333
0.166535
0.0150615
0.166711
0.016903
0.16688
0.0188741
0.167044
0.0209926
0.167204
0.0232781
0.16736
0.025752
0.167514
0.0284379
0.167666
0.0313622
0.167818
0.034553
0.16797
0.0380458
0.168123
0.0418648
0.168278
0.0460863
0.168435
0.0506465
0.168596
0.0558979
0.168758
0.0610953
0.168928
0.0682384
0.169097
0.0731147
0.169267
0.0842254
0.169455
0.0870737
0.169609
0.103434
0.169806
0.105842
0.124915
0.208304