/*--------------------------------*- C++ -*----------------------------------*\
| =========                 |                                                 |
| \\      /  F ield         | OpenFOAM: The Open Source CFD Toolbox           |
|  \\    /   O peration     | Version:  2312                                  |
|   \\  /    A nd           | Website:  www.openfoam.com                      |
|    \\/     M anipulation  |                                                 |
\*---------------------------------------------------------------------------*/
FoamFile
{
    version     2.0;
    format      ascii;
    arch        "LSB;label=32;scalar=64";
    class       volScalarField;
    location    "152";
    object      p;
}
// * * * * * * * * * * * * * * * * * * * * * * * * * * * * * * * * * * * * * //

dimensions      [0 2 -2 0 0 0 0];

internalField   nonuniform List<scalar> 
5478
(
-0.590935
-0.587718
-0.586322
-0.586834
-0.587664
-0.584529
-0.572524
-0.548525
-0.512353
-0.466735
-0.415901
-0.363502
-0.312524
-0.263154
-0.21612
-0.598515
-0.593705
-0.589624
-0.585728
-0.579708
-0.567565
-0.546504
-0.515934
-0.477494
-0.43421
-0.389017
-0.3441
-0.300874
-0.259449
-0.221323
-0.609575
-0.603198
-0.595997
-0.586594
-0.571912
-0.550032
-0.520945
-0.486048
-0.447477
-0.407296
-0.367051
-0.327869
-0.290289
-0.254748
-0.221326
-0.625432
-0.616501
-0.605255
-0.58837
-0.563679
-0.532585
-0.497431
-0.460163
-0.422195
-0.384523
-0.347853
-0.312643
-0.279248
-0.247872
-0.218738
-0.646382
-0.63278
-0.616159
-0.589628
-0.554513
-0.515663
-0.476181
-0.43743
-0.399964
-0.36406
-0.329874
-0.29755
-0.267084
-0.238687
-0.212023
-0.671033
-0.651078
-0.626108
-0.588145
-0.543322
-0.498271
-0.455556
-0.415675
-0.378499
-0.343821
-0.311505
-0.281395
-0.253401
-0.22742
-0.202866
-0.69458
-0.668873
-0.631468
-0.581149
-0.528012
-0.478177
-0.433054
-0.392369
-0.355483
-0.321878
-0.291134
-0.262951
-0.237072
-0.213315
-0.191013
-0.710952
-0.680381
-0.628203
-0.566089
-0.506239
-0.452849
-0.406159
-0.365159
-0.328825
-0.296382
-0.267243
-0.240959
-0.217253
-0.195829
-0.176155
-0.442913
-0.446308
-0.448878
-0.453244
-0.459844
-0.468391
-0.478374
-0.489072
-0.499777
-0.51014
-0.52028
-0.530473
-0.540686
-0.550657
-0.557966
-0.462631
-0.467756
-0.472589
-0.479634
-0.489067
-0.499915
-0.510629
-0.519134
-0.523273
-0.521513
-0.513382
-0.499466
-0.481421
-0.461465
-0.438069
-0.487155
-0.49324
-0.500117
-0.509834
-0.522396
-0.536068
-0.548242
-0.555418
-0.553854
-0.540759
-0.514972
-0.47695
-0.428384
-0.376583
-0.316681
-0.513844
-0.519957
-0.528356
-0.540475
-0.555161
-0.571189
-0.584582
-0.590519
-0.583833
-0.560846
-0.520118
-0.463225
-0.388516
-0.318814
-0.224632
-0.539036
-0.544172
-0.552836
-0.565758
-0.581862
-0.598053
-0.610698
-0.613856
-0.601489
-0.569509
-0.517476
-0.449818
-0.365571
-0.285769
-0.195547
-0.559694
-0.563024
-0.570546
-0.582263
-0.596716
-0.611024
-0.62054
-0.618845
-0.600267
-0.561334
-0.503678
-0.432634
-0.352307
-0.274481
-0.199051
-0.574458
-0.575498
-0.580608
-0.589431
-0.600114
-0.610128
-0.614094
-0.605773
-0.580613
-0.53713
-0.479074
-0.411727
-0.341762
-0.274046
-0.210722
-0.584041
-0.582751
-0.584547
-0.588919
-0.595226
-0.599483
-0.596164
-0.580113
-0.54871
-0.503016
-0.447482
-0.387163
-0.327275
-0.27049
-0.21771
-0.561734
-0.509969
-0.370507
-0.270806
-0.230713
-0.236104
-0.263488
-0.259325
-0.21061
-0.157786
-0.14207
-0.122854
-0.106216
-0.116219
-0.144189
-0.149513
-0.129899
-0.111716
-0.121184
-0.140187
-0.140631
-0.126175
-0.135439
-0.135673
-0.138781
-0.180424
-0.199629
-0.14203
-0.0881016
-0.0698077
-0.0452201
-0.0280482
-0.0121644
-0.00866532
-0.0071282
-0.00466877
-0.0023397
-0.00073247
-0.418689
-0.375979
-0.285263
-0.249212
-0.233981
-0.258325
-0.30433
-0.29291
-0.23026
-0.163307
-0.141316
-0.125295
-0.103815
-0.114345
-0.141793
-0.146542
-0.127428
-0.105001
-0.109472
-0.130197
-0.131339
-0.130793
-0.148044
-0.1452
-0.143502
-0.16185
-0.164069
-0.141177
-0.0990363
-0.0715194
-0.0414939
-0.0271654
-0.0130661
-0.00896783
-0.00698707
-0.00459796
-0.00234921
-0.000738482
-0.272534
-0.224889
-0.18471
-0.202334
-0.212613
-0.261473
-0.324903
-0.309301
-0.239741
-0.165385
-0.138774
-0.128269
-0.10443
-0.114299
-0.140481
-0.143305
-0.124157
-0.0978817
-0.0966663
-0.119654
-0.12106
-0.133112
-0.156758
-0.152633
-0.145583
-0.142917
-0.127622
-0.135508
-0.106824
-0.0719237
-0.03722
-0.0259449
-0.0139166
-0.00923692
-0.0068192
-0.00454154
-0.00235706
-0.000743913
-0.158381
-0.0910399
-0.0587392
-0.109677
-0.159466
-0.247729
-0.324074
-0.309582
-0.238139
-0.165839
-0.135963
-0.127874
-0.106435
-0.117154
-0.142027
-0.141043
-0.120865
-0.0909321
-0.0837917
-0.109024
-0.110111
-0.132541
-0.161102
-0.158038
-0.145328
-0.125393
-0.0931215
-0.126185
-0.110851
-0.071444
-0.0327225
-0.0244831
-0.0146512
-0.00946261
-0.00663826
-0.0044461
-0.00236273
-0.000748355
-0.0976198
-0.00876376
0.0735698
0.0136624
-0.0815883
-0.211036
-0.300158
-0.290649
-0.225739
-0.163492
-0.131038
-0.121762
-0.108744
-0.122226
-0.147567
-0.138765
-0.11681
-0.0843704
-0.0725205
-0.0989623
-0.0991188
-0.12904
-0.16138
-0.160855
-0.143674
-0.110368
-0.0625733
-0.114684
-0.111332
-0.0700865
-0.0282655
-0.022836
-0.0152015
-0.00963107
-0.00645382
-0.00434861
-0.00236495
-0.00075138
-0.10809
-0.00159683
0.113656
0.109677
-0.00936614
-0.160542
-0.246657
-0.255815
-0.204115
-0.156727
-0.123628
-0.112177
-0.10854
-0.126066
-0.154637
-0.139425
-0.114531
-0.0796132
-0.0634309
-0.0893578
-0.0878091
-0.122066
-0.158237
-0.161817
-0.141665
-0.100172
-0.0380662
-0.101866
-0.108984
-0.0681884
-0.0241856
-0.0210895
-0.0155432
-0.00974707
-0.00627884
-0.00425604
-0.00236367
-0.000752921
-0.130513
-0.0433734
0.0834716
0.133801
0.0581621
-0.0990428
-0.230467
-0.228273
-0.187912
-0.150021
-0.117715
-0.104185
-0.101164
-0.127736
-0.15595
-0.137206
-0.110241
-0.0754445
-0.0568983
-0.0815433
-0.076336
-0.110726
-0.15237
-0.159167
-0.138349
-0.0922079
-0.038741
-0.0875637
-0.10479
-0.0651414
-0.0207429
-0.0193161
-0.0156672
-0.00979006
-0.00611316
-0.00416161
-0.00235501
-0.00075242
-0.15892
-0.0899442
-0.00117394
0.0876871
0.0743346
-0.0248172
-0.120894
-0.165259
-0.151577
-0.129388
-0.109382
-0.0965307
-0.0873396
-0.122929
-0.155613
-0.139573
-0.110549
-0.074819
-0.0519618
-0.0722137
-0.0661349
-0.0969579
-0.14368
-0.156665
-0.135557
-0.0891561
-0.0248826
-0.0721465
-0.0991148
-0.0621516
-0.017768
-0.0174315
-0.015525
-0.00981675
-0.00598208
-0.00408065
-0.00234594
-0.000751418
-0.147808
-0.100279
-0.0213099
0.0518952
0.0666377
-0.00484038
-0.0837136
-0.117875
-0.117998
-0.100682
-0.0897604
-0.081726
-0.0763475
-0.1101
-0.13728
-0.128101
-0.101744
-0.0734342
-0.0526741
-0.0701031
-0.0580635
-0.0849524
-0.131055
-0.14507
-0.124384
-0.0857139
-0.0199183
-0.0589648
-0.0901761
-0.0569072
-0.015611
-0.0155377
-0.0150256
-0.00960942
-0.00578883
-0.00395541
-0.00230685
-0.000741141
-0.127828
-0.0899026
-0.0359312
0.0115043
0.0270797
-0.00614902
-0.0498676
-0.0761749
-0.0788028
-0.0706966
-0.0672271
-0.0607367
-0.0571443
-0.0957565
-0.132416
-0.119773
-0.0861437
-0.0619657
-0.0489039
-0.0592808
-0.0416701
-0.0625978
-0.113453
-0.131288
-0.106733
-0.065175
-0.00108075
-0.0426523
-0.0796335
-0.0502706
-0.0116452
-0.013281
-0.0141192
-0.00919989
-0.00547747
-0.00377261
-0.00224152
-0.000721245
-0.107594
-0.0849357
-0.0498079
-0.0170119
-0.000344443
-0.0108756
-0.0339862
-0.0499888
-0.0569169
-0.0522509
-0.0498139
-0.0440605
-0.032671
-0.0537875
-0.083724
-0.0873133
-0.0621572
-0.0474248
-0.0445202
-0.0494327
-0.0305874
-0.0386524
-0.0818834
-0.101648
-0.0787876
-0.0355411
0.00956797
-0.0239883
-0.0628784
-0.0401819
-0.00832478
-0.0113461
-0.0128286
-0.0085859
-0.00515853
-0.00359458
-0.00216568
-0.000696169
-0.087861
-0.0760178
-0.05329
-0.0310473
-0.01716
-0.0166598
-0.0265077
-0.0345121
-0.0370309
-0.0323946
-0.0273288
-0.0212788
-0.00997006
-0.0148819
-0.0270452
-0.0418184
-0.0387313
-0.035309
-0.03799
-0.0350165
-0.0163899
-0.011607
-0.0465132
-0.0700365
-0.0512282
-0.00734481
0.0231763
-0.0017323
-0.0427928
-0.0290086
-0.00675259
-0.00963769
-0.0111913
-0.00784593
-0.00484649
-0.00341261
-0.00207735
-0.000663832
-0.0718866
-0.0665082
-0.0525991
-0.0374655
-0.0261975
-0.0208522
-0.0227408
-0.0246818
-0.0261369
-0.0224815
-0.0175603
-0.0101598
0.0055318
0.0193075
0.0220896
-0.0023042
-0.0186466
-0.0219035
-0.0254224
-0.0201918
-0.00693554
0.010769
-0.00873546
-0.037178
-0.0287298
0.0135101
0.0264837
0.0192789
-0.0177428
-0.0157857
-0.00614125
-0.00790383
-0.00920487
-0.00697284
-0.00450244
-0.00321912
-0.00197836
-0.000621981
-0.0578711
-0.055849
-0.0477828
-0.0377048
-0.028604
-0.0223047
-0.0204958
-0.0189489
-0.0172157
-0.012272
-0.00513319
0.00227561
0.0146837
0.0292617
0.0335065
0.0168128
-0.00313015
-0.00917306
-0.0102109
-0.00434568
0.00304174
0.0193797
0.00928968
-0.0191256
-0.0177753
0.0203553
0.0326645
0.0346745
0.00393408
-0.00291589
-0.00519778
-0.00574752
-0.00708965
-0.00607374
-0.00411146
-0.00300477
-0.0018729
-0.000574674
-0.0454986
-0.045645
-0.0412753
-0.0344694
-0.0275381
-0.0216256
-0.0179347
-0.0144866
-0.0117349
-0.00729629
-0.00182064
0.00491476
0.0156453
0.0280157
0.0319555
0.0216274
0.0071977
0.00115801
-0.000521562
0.00337721
0.00729102
0.0216804
0.0184757
-0.00537168
-0.0085419
0.0183405
0.0286783
0.0398153
0.0164984
0.00524313
-0.00373467
-0.00369338
-0.00542817
-0.00525228
-0.00364147
-0.00275037
-0.00174808
-0.000521436
-0.0353816
-0.0364334
-0.0340877
-0.0296159
-0.0244961
-0.0194493
-0.0155108
-0.0117002
-0.00848546
-0.00407753
0.00136069
0.00771232
0.015335
0.0228211
0.0264458
0.020355
0.0113824
0.00659468
0.00566076
0.00938447
0.0113343
0.0184821
0.0157878
0.00378253
-0.000112203
0.015628
0.0258292
0.0348825
0.0181308
0.00740602
-0.00152475
-0.0020504
-0.004307
-0.00443113
-0.00308933
-0.00244694
-0.00159004
-0.000466963
-0.0269262
-0.0282672
-0.0271484
-0.0242225
-0.0204633
-0.0164276
-0.0128322
-0.00919672
-0.00592906
-0.00201854
0.00216679
0.00689685
0.012333
0.0172522
0.0204665
0.0175348
0.0125813
0.00955384
0.00834746
0.0100627
0.0116467
0.0154755
0.0149513
0.00910902
0.0058212
0.0136278
0.0219142
0.0284382
0.018582
0.00845958
0.000918482
-0.00076212
-0.00318517
-0.00348575
-0.00249505
-0.00207541
-0.00136887
-0.000402671
-0.0198936
-0.0212715
-0.0207876
-0.0188386
-0.0161131
-0.0130615
-0.0101044
-0.0070371
-0.00419401
-0.00102819
0.00232869
0.00607831
0.0100726
0.0132562
0.0156551
0.0147068
0.0122863
0.0104762
0.0101199
0.0114044
0.0122951
0.0138122
0.0132996
0.0109352
0.0093288
0.0136514
0.0189253
0.0224697
0.0171372
0.00901377
0.0029088
0.000330929
-0.00206459
-0.00250822
-0.00191517
-0.00167451
-0.00112425
-0.000338678
-0.0141283
-0.0153126
-0.0151395
-0.0138882
-0.0119971
-0.00977437
-0.0074559
-0.00502982
-0.00269213
-0.000192837
0.00243657
0.00521192
0.00806809
0.01031
0.012079
0.012297
0.011455
0.0105946
0.0103929
0.0107597
0.0114639
0.0123248
0.0124032
0.0116302
0.0108899
0.012634
0.0159431
0.0181004
0.0154054
0.00934775
0.00425702
0.00138705
-0.000926363
-0.0015615
-0.00133116
-0.00123363
-0.000853039
-0.000262517
-0.00930939
-0.0103218
-0.0103482
-0.00956953
-0.00825298
-0.00666745
-0.00493318
-0.00311658
-0.00130329
0.000571098
0.00253479
0.00459099
0.00665528
0.00840625
0.00977958
0.0104313
0.0104224
0.0101581
0.01033
0.0107171
0.0111943
0.0118287
0.011753
0.0115633
0.0113815
0.0125651
0.0141457
0.0147936
0.0133622
0.00925655
0.00520229
0.00236168
0.000109076
-0.000725807
-0.000775889
-0.000806138
-0.000589702
-0.000187014
-0.00539883
-0.00623734
-0.00633831
-0.00585158
-0.00496542
-0.00388071
-0.00264166
-0.00133184
8.7131e-06
0.00137977
0.00280978
0.00432087
0.00581945
0.00716953
0.00825911
0.00901558
0.00945534
0.00960147
0.00988804
0.0102335
0.0105471
0.0109043
0.0110338
0.0111019
0.0110547
0.0115966
0.0123104
0.0123933
0.0114852
0.00882304
0.00569645
0.00313967
0.00101483
1.09811e-05
-0.000261998
-0.000402562
-0.000333853
-0.000109926
-0.00222232
-0.00287737
-0.00301431
-0.002742
-0.00218143
-0.00145775
-0.000599128
0.000328006
0.00128495
0.00225096
0.00325676
0.0043492
0.00543993
0.00646292
0.00733577
0.00805734
0.00863268
0.00897006
0.00931573
0.00968504
0.00998112
0.0102629
0.010395
0.010519
0.0105224
0.0107873
0.0110924
0.0107864
0.00998188
0.00824492
0.00594759
0.0037722
0.00183783
0.000693486
0.000221307
-2.77675e-05
-8.83324e-05
-2.67836e-05
0.000384544
-0.000131802
-0.000288415
-0.000153987
0.000184601
0.000641499
0.00120579
0.00183392
0.00248546
0.00314575
0.00383654
0.0045999
0.0053846
0.00613945
0.00682298
0.00744505
0.00799749
0.00840427
0.00876118
0.00911251
0.00937855
0.00960322
0.00973036
0.00984874
0.00984387
0.0098645
0.00988109
0.00949993
0.00879763
0.00757789
0.0058987
0.00414819
0.00248103
0.00129184
0.000646686
0.000284011
0.000109934
3.98723e-05
0.00248266
0.00208322
0.00192823
0.00197218
0.0021526
0.00241925
0.00276691
0.00317084
0.00359826
0.00403142
0.00448718
0.00500291
0.00555299
0.00609724
0.00661244
0.00708927
0.00755447
0.00793607
0.00825582
0.00856475
0.00880763
0.00899275
0.00909875
0.00917274
0.00914157
0.00907208
0.00896002
0.00856007
0.00793255
0.00699245
0.0057492
0.00437271
0.00297248
0.001825
0.00105723
0.000577451
0.000292079
0.000106237
0.00416703
0.00386189
0.00371347
0.00369582
0.00376704
0.00390178
0.00409574
0.00433559
0.00459309
0.00485541
0.00513814
0.00546796
0.00583459
0.00619993
0.00655892
0.00691338
0.00727043
0.00758298
0.00784387
0.00809423
0.00829077
0.00843103
0.008508
0.00854179
0.00848858
0.0083563
0.00815829
0.00778065
0.00723261
0.00647673
0.00551408
0.00442314
0.00327338
0.00223686
0.00142265
0.000839342
0.000440557
0.000151665
0.00550307
0.00526821
0.00512933
0.00507338
0.00507254
0.00511663
0.00520159
0.00532274
0.00545689
0.00559722
0.00575431
0.00594771
0.00617327
0.00640271
0.00663572
0.00687324
0.00712333
0.00734466
0.00753343
0.00771047
0.00785126
0.00794542
0.00798498
0.00798005
0.00789893
0.00774499
0.00752108
0.0071647
0.00668057
0.00605137
0.00528008
0.00439889
0.00345153
0.00253653
0.00173102
0.00107978
0.000582972
0.000195752
0.00654639
0.00636353
0.0062346
0.00615532
0.00610722
0.0060908
0.00610053
0.00613887
0.00618498
0.00623882
0.0063042
0.00639727
0.00651507
0.00663833
0.0067703
0.00690702
0.0070583
0.00719288
0.00731115
0.00741731
0.0074999
0.00754432
0.00754332
0.00750502
0.00740107
0.00723535
0.00699913
0.00666693
0.00623878
0.00569849
0.00505648
0.00432181
0.0035232
0.00272187
0.001958
0.00128217
0.00071312
0.000233599
0.00733929
0.0071921
0.007072
0.00697908
0.00690244
0.00684654
0.00680661
0.0067873
0.00677289
0.00676624
0.0067676
0.00678891
0.00682737
0.00687117
0.00692464
0.00698203
0.00705329
0.00711266
0.00716553
0.00720795
0.00723351
0.00723144
0.00719273
0.00712347
0.00699871
0.00682399
0.00658836
0.00627607
0.00588933
0.00541309
0.00485961
0.00423143
0.00353985
0.00282957
0.00211633
0.00143873
0.000823908
0.000268831
0.00791618
0.00779216
0.00767946
0.00757881
0.00748629
0.00740513
0.00733426
0.00727586
0.00722223
0.00717442
0.00713304
0.00710456
0.00708697
0.00707497
0.00706936
0.00706901
0.00707653
0.00707929
0.00707728
0.00706759
0.00704596
0.00700245
0.00693285
0.00683432
0.00669434
0.00651085
0.00627536
0.00598074
0.0056213
0.00519393
0.00469923
0.004141
0.00352619
0.00287834
0.0022109
0.00154638
0.000906474
0.000297061
0.00829768
0.00818772
0.00808002
0.00797603
0.00787528
0.00778036
0.00769118
0.00760927
0.00753129
0.0074583
0.00739015
0.00733003
0.00727659
0.00722802
0.00718404
0.00714412
0.00710868
0.00707126
0.00703058
0.00698344
0.00692672
0.00685335
0.00675861
0.00663963
0.00648613
0.00629587
0.00606086
0.0057763
0.00543627
0.00503831
0.00458114
0.00406822
0.00350258
0.00289599
0.00226194
0.00161142
0.000959913
0.000317045
0.00848992
0.00838678
0.00828209
0.00817741
0.00807382
0.00797321
0.00787589
0.00778289
0.00769334
0.0076082
0.00752706
0.00745125
0.00737983
0.00731287
0.00724929
0.00718885
0.00713045
0.00707173
0.00701029
0.00694289
0.00686706
0.00677701
0.00666852
0.00653758
0.00637651
0.0061822
0.00594673
0.00566767
0.00533689
0.00495411
0.0045167
0.00402544
0.00348537
0.00289964
0.00228243
0.00164173
0.000985735
0.000326942
-0.151223
-0.160946
-0.169197
-0.174872
-0.178114
-0.174552
-0.169027
-0.157273
-0.123334
-0.12843
-0.132145
-0.13427
-0.134249
-0.133456
-0.131589
-0.133452
-0.0984292
-0.101182
-0.102376
-0.104233
-0.105186
-0.107968
-0.108052
-0.110788
-0.0790521
-0.080459
-0.0810775
-0.0831107
-0.08406
-0.0860932
-0.0853851
-0.087013
-0.0627211
-0.0636945
-0.0641149
-0.0653444
-0.0654117
-0.0659143
-0.0655313
-0.0683244
-0.0496755
-0.0500447
-0.0499953
-0.0502732
-0.0500752
-0.0507436
-0.0517341
-0.0546591
-0.038739
-0.0387397
-0.0385263
-0.0386508
-0.0388417
-0.039665
-0.0405709
-0.0426047
-0.0298662
-0.0297055
-0.0294861
-0.0295173
-0.0296534
-0.0301381
-0.0308177
-0.0325924
-0.022532
-0.0222992
-0.0220398
-0.0219678
-0.0220531
-0.0224132
-0.0230452
-0.0245437
-0.0164598
-0.0162295
-0.0159909
-0.0158884
-0.0159189
-0.0161455
-0.0166629
-0.017897
-0.0114095
-0.0112107
-0.0109906
-0.0108499
-0.0108414
-0.0110363
-0.011514
-0.0125289
-0.00718318
-0.00703563
-0.00687059
-0.00677064
-0.00679091
-0.00695707
-0.00731355
-0.00807216
-0.00368795
-0.00360932
-0.00351363
-0.00344762
-0.00344652
-0.00354235
-0.00380668
-0.00441057
-0.000776516
-0.000755175
-0.000710265
-0.000674623
-0.000684458
-0.000777901
-0.00100419
-0.00147356
0.00161361
0.00158508
0.00157796
0.00157015
0.0015379
0.0014553
0.00128558
0.000942595
0.00355196
0.00348866
0.00344533
0.00340965
0.00336591
0.00329196
0.00315706
0.00289993
0.00511304
0.00502878
0.00496153
0.00490433
0.00484669
0.00477285
0.0046616
0.00447188
0.00635111
0.00625559
0.00617407
0.00610291
0.00603581
0.00596241
0.00586838
0.0057267
0.00731882
0.00721876
0.00713027
0.00705125
0.00697821
0.00690459
0.0068215
0.00671235
0.00805408
0.00795366
0.00786287
0.00778063
0.0077049
0.00763166
0.00755556
0.00746718
0.00858585
0.00848861
0.008399
0.00831679
0.00824059
0.00816812
0.0080963
0.00802035
0.00893058
0.00883954
0.0087539
0.00867382
0.00859855
0.00852697
0.00845751
0.00838816
0.00909645
0.00901372
0.00893332
0.00885592
0.00878162
0.00871037
0.00864155
0.0085745
0.019414
0.0212936
0.0223826
0.0223103
0.0205463
0.0169774
0.0114416
0.00337201
-0.00823558
-0.0248197
-0.0483852
-0.0817635
-0.129522
-0.194929
-0.255937
-0.00703431
-0.00791351
-0.0111826
-0.0160682
-0.0224084
-0.0305671
-0.0411452
-0.0549807
-0.073209
-0.0973758
-0.129621
-0.172799
-0.231576
-0.309599
-0.376952
-0.0331857
-0.0370578
-0.0445398
-0.0537698
-0.0643338
-0.0768626
-0.0922324
-0.111417
-0.135644
-0.166561
-0.206476
-0.258319
-0.325864
-0.41516
-0.481412
-0.0601747
-0.0672821
-0.0781629
-0.0906585
-0.104665
-0.121046
-0.140735
-0.164693
-0.194165
-0.230846
-0.277115
-0.336307
-0.410788
-0.504221
-0.567505
-0.0871253
-0.0974986
-0.111
-0.125999
-0.142871
-0.16259
-0.185991
-0.213943
-0.247698
-0.289008
-0.340055
-0.40445
-0.483328
-0.575217
-0.633722
-0.112647
-0.126258
-0.141895
-0.159013
-0.178422
-0.20102
-0.227494
-0.258615
-0.29559
-0.340206
-0.394666
-0.461635
-0.541311
-0.628186
-0.679608
-0.136108
-0.152376
-0.169807
-0.189027
-0.210877
-0.235968
-0.264893
-0.298441
-0.337746
-0.384336
-0.440199
-0.507101
-0.584322
-0.662804
-0.706233
-0.157701
-0.175337
-0.194656
-0.21615
-0.240299
-0.267544
-0.298432
-0.333698
-0.374305
-0.421543
-0.476988
-0.541565
-0.613027
-0.679724
-0.715919
0.182022
0.19664
0.213049
0.231632
0.252432
0.275359
0.300333
0.327309
0.356209
0.386778
0.418429
0.449981
0.479421
0.502686
0.521799
0.17577
0.189255
0.204718
0.222503
0.242488
0.264465
0.288321
0.314014
0.341454
0.370354
0.400072
0.42935
0.456071
0.476192
0.492202
0.165316
0.1769
0.190786
0.207202
0.225738
0.245989
0.267768
0.291004
0.315562
0.341077
0.366801
0.391349
0.4124
0.426056
0.435889
0.150643
0.159759
0.171612
0.186131
0.202537
0.220238
0.238995
0.258706
0.279158
0.299841
0.319821
0.337503
0.350242
0.354234
0.355418
0.131887
0.138207
0.14783
0.160159
0.173913
0.188311
0.203113
0.21823
0.233387
0.247922
0.260668
0.269767
0.272188
0.263956
0.254258
0.109268
0.112418
0.119636
0.12954
0.140278
0.150925
0.161237
0.171093
0.18011
0.187462
0.191765
0.190897
0.181445
0.159214
0.136273
0.083477
0.0838427
0.0888269
0.0957818
0.10269
0.108851
0.114132
0.118295
0.120717
0.120333
0.115523
0.103899
0.0816988
0.0446732
0.00764486
0.0534258
0.0525269
0.0563552
0.0602842
0.062889
0.0640496
0.0638296
0.0618597
0.0572807
0.048794
0.0345518
0.011884
-0.0233691
-0.0751801
-0.125554
0.0245023
0.0288839
0.0252239
0.029122
0.0266574
0.0309378
0.0291058
0.0334988
0.0328263
0.0372557
0.0379634
0.042739
0.045168
0.050721
0.055343
0.0624518
0.069791
0.0796308
0.0905061
0.104307
0.120041
0.139429
0.161714
0.0244712
0.0288146
0.0251955
0.0290375
0.0266258
0.0308337
0.0290309
0.0333596
0.0327438
0.0370636
0.0378115
0.0425131
0.044887
0.0503541
0.0549318
0.0619533
0.0690437
0.0786618
0.0890756
0.102533
0.117429
0.136109
0.157028
0.0244505
0.0287199
0.0251854
0.0289243
0.0266226
0.030699
0.0291331
0.033187
0.0326924
0.0368408
0.0376752
0.042255
0.0446083
0.049888
0.0544198
0.0611207
0.0679823
0.0773459
0.087035
0.0999359
0.113512
0.130978
0.149382
0.0244391
0.0286018
0.0251925
0.028787
0.0266528
0.0305324
0.0291196
0.0329901
0.0326714
0.0365971
0.037573
0.042004
0.0443719
0.0495614
0.0540003
0.0605479
0.0670298
0.0761362
0.0848454
0.0969734
0.108598
0.124127
0.138687
0.0244359
0.0284641
0.0252089
0.0286294
0.0266774
0.0303403
0.0291369
0.0327734
0.0326638
0.0363231
0.0374727
0.0416754
0.0440377
0.0489839
0.0533372
0.0594942
0.0655992
0.074062
0.0817495
0.0927275
0.102115
0.11513
0.124802
0.024438
0.0283107
0.025242
0.0284552
0.0267193
0.0301365
0.0291733
0.032565
0.0326843
0.0360852
0.0374456
0.0414708
0.0438997
0.0488207
0.0529833
0.0590109
0.06459
0.0725588
0.078901
0.08844
0.0947488
0.104429
0.107888
0.0244492
0.0281432
0.0252759
0.0282726
0.026772
0.029923
0.0292027
0.0323292
0.0326824
0.0357938
0.0373231
0.0410646
0.0435
0.04803
0.0521127
0.0575081
0.0627276
0.0694936
0.0748503
0.0823471
0.0860036
0.0914375
0.0883453
0.0244588
0.0279682
0.0253128
0.0280909
0.0268302
0.0297373
0.0292735
0.0321696
0.0327411
0.0356784
0.0374143
0.041047
0.0435605
0.0481534
0.0518719
0.0572548
0.0617924
0.0678689
0.0713454
0.0765804
0.0759028
0.0765456
0.0651233
0.0244671
0.0277341
0.0253667
0.0278273
0.0268871
0.029402
0.0292649
0.0318189
0.0326716
0.0351758
0.0370934
0.0402577
0.0427126
0.0467281
0.0501328
0.054215
0.0582127
0.0616567
0.0640379
0.0648629
0.0614252
0.0534538
0.0357482
0.024486
0.0274108
0.0254386
0.027463
0.0269256
0.02893
0.0292103
0.0311203
0.0323772
0.0343269
0.036332
0.0388488
0.0411992
0.0442862
0.0471538
0.0497195
0.0525054
0.0535532
0.0540228
0.0511297
0.0458847
0.0352616
0.0212125
0.0245265
0.0270125
0.0255308
0.0270243
0.0269883
0.0283723
0.029127
0.0304477
0.0320032
0.0334504
0.0354649
0.0373581
0.0395084
0.0416826
0.0438391
0.0451752
0.046517
0.0458942
0.0442831
0.0396584
0.0329298
0.0225342
0.009569
0.024589
0.0265294
0.0256466
0.0265267
0.0270099
0.0278483
0.0289372
0.029806
0.0314628
0.0325238
0.034402
0.0357392
0.0375628
0.0388702
0.0401826
0.0405407
0.0403797
0.0385174
0.0353486
0.0297924
0.0224673
0.0127362
0.00120254
0.0246771
0.0259548
0.0257379
0.0260771
0.0269161
0.0273634
0.0286295
0.0291624
0.0307467
0.0315444
0.0330939
0.0340038
0.0353324
0.0359094
0.0363083
0.0358609
0.0344562
0.0316661
0.0276119
0.021791
0.0146244
0.00582903
-0.00426309
0.0247857
0.0253593
0.0257224
0.0256772
0.0267326
0.0268903
0.0281903
0.0284984
0.0298625
0.0304888
0.0315898
0.0321245
0.0329068
0.032814
0.0324073
0.0312689
0.0290246
0.025651
0.0212947
0.0156529
0.00900473
0.00121096
-0.00765263
0.0248667
0.0247885
0.0255971
0.025316
0.0264402
0.0264241
0.0276063
0.0278078
0.0288415
0.0293163
0.0299378
0.030109
0.0303662
0.0296772
0.0286385
0.0269727
0.0242616
0.020653
0.0163177
0.0111131
0.0051631
-0.00161221
-0.00928621
0.0248978
0.0242606
0.0253667
0.0249782
0.0260301
0.02595
0.0268946
0.0270432
0.0277176
0.0280179
0.0281901
0.0279996
0.0277938
0.0266347
0.0251395
0.0231286
0.0202567
0.0166798
0.0125666
0.00793038
0.00277153
-0.00296402
-0.0094108
0.0248519
0.0237968
0.0250197
0.0246499
0.0255105
0.0254513
0.0260867
0.026186
0.0265241
0.0266068
0.0263933
0.0258705
0.025281
0.0237963
0.0220154
0.0198457
0.0170175
0.0136604
0.00991709
0.00590006
0.0015592
-0.00316199
-0.00844387
0.0247112
0.0234079
0.024558
0.0243124
0.0249009
0.0248901
0.0252229
0.0252281
0.02528
0.0251226
0.024597
0.0238058
0.0229188
0.0212504
0.019345
0.0171695
0.014517
0.0114925
0.00821089
0.00481627
0.00124834
-0.00256041
-0.00681341
0.0244634
0.0230917
0.0240019
0.0239345
0.0242451
0.0242436
0.024326
0.024186
0.0240007
0.023613
0.0228544
0.0218723
0.0207816
0.0190588
0.0171559
0.0150849
0.0126898
0.0100536
0.00726402
0.00445678
0.00157264
-0.00145973
-0.00484199
0.0241054
0.0228325
0.0233873
0.0234581
0.02357
0.0235183
0.0234072
0.0230988
0.0227151
0.0221357
0.021219
0.020122
0.018927
0.0172463
0.0154353
0.0135415
0.0114451
0.0092065
0.0068901
0.00460767
0.00230672
-8.35488e-05
-0.00274661
0.0236456
0.0225994
0.0227757
0.0228586
0.0228684
0.022735
0.0224732
0.0220108
0.0214633
0.0207432
0.019737
0.0185962
0.0173754
0.015801
0.0141451
0.0124683
0.0106772
0.00881226
0.00692055
0.00508805
0.00326913
0.00139807
-0.00068056
0.0231063
0.0223352
0.0222147
0.0221796
0.0221237
0.0218999
0.0215288
0.0209565
0.0202865
0.0194759
0.0184407
0.0173095
0.0161218
0.014695
0.0132296
0.0117806
0.0102775
0.00874549
0.00721832
0.0057577
0.00432445
0.00286173
0.0012443
0.0225156
0.0219683
0.0216923
0.0215245
0.0213552
0.0210378
0.0205871
0.0199519
0.0192127
0.0183595
0.0173396
0.0162595
0.0151482
0.0138877
0.0126212
0.0113917
0.0101468
0.00890073
0.00767673
0.00651698
0.00538949
0.00424687
0.00299042
0.0219044
0.0215131
0.0211833
0.0208924
0.0205939
0.0201885
0.0196763
0.0190116
0.0182508
0.0174002
0.0164331
0.0154348
0.014426
0.0133326
0.0122554
0.0112242
0.0101994
0.00918891
0.00820898
0.00728783
0.00639945
0.00550623
0.00453372
0.0212954
0.0209969
0.0206506
0.0202766
0.0198716
0.0193903
0.0188297
0.0181566
0.0174086
0.0165962
0.0157089
0.0148125
0.0139203
0.012986
0.0120783
0.0112164
0.01037
0.00954494
0.00875468
0.00801831
0.00731529
0.00661652
0.00586616
0.0207028
0.0204533
0.020101
0.0196794
0.0192052
0.0186685
0.0180748
0.0174069
0.0166901
0.0159352
0.0151406
0.0143539
0.013582
0.0127946
0.0120348
0.011313
0.0106076
0.00992512
0.00927789
0.0086805
0.00811836
0.00756844
0.00699043
0.0201398
0.0199139
0.0195593
0.019114
0.0186042
0.0180388
0.0174309
0.0167788
0.0161025
0.0154125
0.0147103
0.0140263
0.0133616
0.0126962
0.0120561
0.0114467
0.0108556
0.0102878
0.00975295
0.00926214
0.00880572
0.00836798
0.00792119
0.0196236
0.0194091
0.0190556
0.0186023
0.0180797
0.0175073
0.0169034
0.0162765
0.0156442
0.0150171
0.0143965
0.013798
0.0132205
0.012652
0.0121075
0.0115899
0.0110922
0.0106172
0.010171
0.00976123
0.00938311
0.00902721
0.00867604
0.0191805
0.0189734
0.0186237
0.0181716
0.0176501
0.0170844
0.0164948
0.015895
0.0153012
0.014724
0.0141649
0.0136309
0.0131204
0.0126272
0.0121593
0.0117183
0.0112995
0.010902
0.0105273
0.010179
0.00985709
0.00955872
0.00927573
0.0188401
0.0186366
0.018293
0.0178483
0.017335
0.016782
0.016211
0.0156379
0.0150762
0.0145362
0.0140206
0.0135321
0.0130684
0.0126264
0.0122097
0.0118193
0.0114521
0.0111057
0.0107798
0.0104767
0.0101975
0.0099419
0.00970656
0.0186555
0.0184562
0.0181135
0.0176683
0.017156
0.016607
0.016044
0.0154822
0.014935
0.014414
0.0139248
0.0134669
0.0130357
0.0126275
0.0122429
0.011883
0.011547
0.0112328
0.0109403
0.0106708
0.010426
0.0102064
0.0100112
0.0156777
-0.00776714
-0.0342886
-0.058213
-0.0805603
-0.101815
-0.121319
-0.13793
0.00525997
-0.0165082
-0.0416877
-0.0627013
-0.0788694
-0.0930298
-0.105496
-0.115729
-0.00353422
-0.0206061
-0.0413502
-0.0577122
-0.0687959
-0.0781235
-0.0864575
-0.0936977
-0.0100624
-0.0237299
-0.0400871
-0.05297
-0.061145
-0.0673088
-0.0723953
-0.0766882
-0.0140981
-0.0249514
-0.0368991
-0.0461861
-0.0519171
-0.0557773
-0.0587549
-0.0613143
-0.0163301
-0.0247245
-0.0327288
-0.0390173
-0.0431612
-0.0457915
-0.0476054
-0.049016
-0.0167571
-0.0230702
-0.0280514
-0.0319429
-0.0348154
-0.0366826
-0.0378207
-0.0385264
-0.0156365
-0.0203054
-0.0232379
-0.0254561
-0.0273463
-0.0287101
-0.0295082
-0.0298779
-0.0135167
-0.0169435
-0.0185625
-0.0196913
-0.0208603
-0.0218395
-0.0224278
-0.022627
-0.0108744
-0.0133805
-0.0141925
-0.0146424
-0.0153035
-0.0159815
-0.0164265
-0.0165613
-0.00805116
-0.00987885
-0.0102126
-0.0102623
-0.0105828
-0.0110358
-0.0113786
-0.0114896
-0.00525438
-0.00658313
-0.0066485
-0.00648438
-0.00658928
-0.00687651
-0.00713562
-0.00723247
-0.00261352
-0.00357075
-0.00349749
-0.00324022
-0.00322405
-0.00340125
-0.00359999
-0.00369571
-0.000229861
-0.000911916
-0.000775299
-0.000485817
-0.000397104
-0.000494803
-0.000646253
-0.000744953
0.00187156
0.00138764
0.00154342
0.00182714
0.00195282
0.00190674
0.00178587
0.00167978
0.00369265
0.00335245
0.00350032
0.00374829
0.00387399
0.00385237
0.00375099
0.00364124
0.00523958
0.00500177
0.00512657
0.00532474
0.00542929
0.00541385
0.00532419
0.00521467
0.00652735
0.00636093
0.00645594
0.00660082
0.00667402
0.00665236
0.00656693
0.00645832
0.00757906
0.0074589
0.00752096
0.00761432
0.00765341
0.0076196
0.0075343
0.00742712
0.00841763
0.00832198
0.00834837
0.00839367
0.00839966
0.00835227
0.00826565
0.00816076
0.00907182
0.00898181
0.0089673
0.00896478
0.0089377
0.00887636
0.00878863
0.008688
0.00953572
0.00944084
0.00938628
0.00933955
0.00928176
0.00920732
0.00911954
0.00902524
0.00985902
0.00974233
0.0096343
0.00953523
0.00944268
0.00935388
0.00926685
0.00918099
-0.370052
-0.38022
-0.394822
-0.413746
-0.438336
-0.469643
-0.503802
-0.533575
-0.369101
-0.377896
-0.390132
-0.406088
-0.426502
-0.451604
-0.480227
-0.506304
-0.363737
-0.372766
-0.38391
-0.397749
-0.415535
-0.435705
-0.453976
-0.465902
-0.355314
-0.365412
-0.37601
-0.387302
-0.399418
-0.410496
-0.417092
-0.416279
-0.345817
-0.356265
-0.365029
-0.371715
-0.376488
-0.378616
-0.376335
-0.367537
-0.336914
-0.345642
-0.35051
-0.351623
-0.350028
-0.345797
-0.337784
-0.32414
-0.329898
-0.334306