/*--------------------------------*- C++ -*----------------------------------*\
| =========                 |                                                 |
| \\      /  F ield         | OpenFOAM: The Open Source CFD Toolbox           |
|  \\    /   O peration     | Version:  2312                                  |
|   \\  /    A nd           | Website:  www.openfoam.com                      |
|    \\/     M anipulation  |                                                 |
\*---------------------------------------------------------------------------*/
FoamFile
{
    version     2.0;
    format      ascii;
    arch        "LSB;label=32;scalar=64";
    class       volScalarField;
    location    "33.5";
    object      p;
}
// * * * * * * * * * * * * * * * * * * * * * * * * * * * * * * * * * * * * * //

dimensions      [0 2 -2 0 0 0 0];

internalField   nonuniform List<scalar> 
32230
(
-0.359221
-0.358723
-0.358084
-0.357297
-0.356408
-0.355507
-0.354689
-0.354043
-0.353645
-0.353556
-0.353817
-0.354452
-0.355469
-0.35686
-0.358597
-0.360637
-0.36292
-0.365366
-0.367876
-0.370338
-0.372627
-0.374609
-0.376153
-0.377135
-0.377444
-0.376996
-0.375733
-0.373627
-0.370683
-0.366926
-0.362421
-0.357195
-0.351384
-0.344843
-0.337855
-0.32945
-0.320138
-0.360676
-0.360255
-0.359592
-0.35871
-0.357678
-0.356595
-0.355563
-0.354678
-0.354022
-0.35366
-0.353637
-0.353978
-0.354687
-0.355747
-0.35712
-0.358746
-0.360547
-0.362422
-0.364258
-0.365929
-0.367309
-0.368271
-0.368706
-0.368519
-0.367644
-0.366041
-0.363698
-0.36063
-0.356869
-0.35246
-0.347455
-0.341886
-0.335795
-0.329122
-0.321946
-0.313904
-0.305895
-0.362469
-0.362087
-0.361373
-0.360383
-0.359205
-0.357947
-0.356716
-0.355612
-0.354721
-0.354108
-0.353817
-0.353869
-0.354259
-0.354958
-0.355912
-0.357042
-0.358251
-0.359426
-0.360446
-0.36119
-0.361543
-0.361408
-0.36071
-0.3594
-0.357454
-0.354875
-0.351686
-0.347922
-0.343626
-0.338835
-0.333594
-0.327909
-0.321826
-0.315284
-0.308404
-0.300991
-0.293639
-0.364724
-0.364322
-0.363525
-0.362411
-0.361084
-0.359657
-0.358241
-0.356936
-0.355826
-0.354974
-0.354417
-0.354165
-0.354199
-0.354473
-0.354915
-0.355432
-0.355916
-0.356251
-0.356326
-0.356038
-0.355307
-0.354073
-0.352305
-0.349995
-0.347155
-0.343814
-0.340006
-0.33577
-0.331139
-0.326142
-0.320804
-0.315134
-0.309164
-0.302859
-0.296352
-0.289472
-0.282859
-0.367542
-0.367055
-0.366137
-0.364877
-0.36339
-0.361793
-0.360197
-0.358699
-0.357376
-0.356281
-0.355437
-0.35484
-0.354452
-0.354211
-0.35403
-0.353808
-0.353439
-0.352823
-0.351873
-0.350523
-0.348732
-0.346484
-0.343781
-0.340646
-0.337108
-0.3332
-0.328955
-0.3244
-0.319558
-0.314448
-0.309085
-0.303476
-0.29765
-0.291588
-0.2854
-0.278961
-0.272808
-0.371008
-0.370358
-0.369275
-0.367842
-0.366178
-0.364402
-0.362621
-0.360925
-0.359376
-0.358013
-0.356839
-0.35583
-0.35493
-0.354062
-0.353134
-0.352053
-0.350731
-0.349098
-0.347106
-0.34473
-0.341966
-0.338831
-0.33535
-0.331554
-0.327473
-0.323136
-0.318564
-0.313775
-0.308782
-0.303596
-0.298227
-0.292684
-0.286987
-0.281127
-0.275195
-0.269086
-0.263271
-0.375174
-0.374293
-0.372994
-0.371354
-0.369487
-0.367513
-0.365532
-0.363616
-0.361812
-0.360133
-0.35856
-0.357045
-0.35552
-0.353903
-0.352113
-0.350078
-0.347745
-0.345086
-0.342092
-0.338774
-0.335158
-0.331274
-0.327155
-0.322827
-0.318316
-0.313637
-0.308805
-0.303827
-0.298712
-0.293465
-0.288094
-0.282605
-0.277015
-0.271318
-0.265586
-0.259731
-0.254163
-0.380085
-0.378901
-0.377336
-0.375452
-0.373352
-0.371154
-0.368943
-0.366773
-0.364661
-0.362591
-0.360521
-0.358384
-0.356107
-0.353622
-0.350874
-0.347828
-0.344476
-0.340828
-0.336911
-0.33276
-0.328411
-0.323897
-0.319246
-0.314477
-0.309604
-0.304637
-0.29958
-0.294436
-0.28921
-0.283904
-0.278524
-0.273073
-0.267565
-0.261994
-0.256417
-0.25076
-0.245376
-0.385778
-0.384221
-0.382343
-0.380177
-0.377811
-0.375355
-0.372875
-0.370393
-0.367894
-0.36533
-0.362636
-0.359741
-0.356585
-0.353128
-0.349358
-0.345287
-0.340947
-0.33638
-0.331634
-0.326753
-0.321773
-0.31672
-0.311614
-0.306463
-0.301275
-0.29605
-0.29079
-0.285495
-0.280164
-0.274798
-0.269401
-0.263974
-0.258526
-0.253055
-0.2476
-0.242102
-0.23686
-0.392284
-0.390292
-0.388056
-0.385574
-0.382909
-0.380154
-0.377347
-0.374473
-0.371475
-0.36828
-0.364813
-0.361015
-0.35686
-0.352356
-0.347538
-0.342462
-0.337191
-0.331787
-0.326303
-0.320781
-0.315248
-0.309722
-0.304211
-0.298719
-0.293244
-0.287783
-0.282335
-0.276895
-0.271462
-0.266035
-0.260613
-0.255199
-0.249795
-0.244401
-0.239042
-0.233674
-0.228543
-0.399631
-0.397149
-0.394519
-0.391692
-0.38869
-0.385583
-0.38237
-0.378988
-0.375345
-0.371353
-0.366947
-0.362108
-0.35686
-0.351265
-0.345406
-0.339369
-0.333236
-0.327073
-0.320928
-0.314833
-0.308805
-0.302852
-0.296974
-0.291167
-0.285427
-0.279747
-0.274121
-0.268544
-0.263012
-0.257523
-0.252073
-0.246663
-0.241291
-0.235958
-0.230677
-0.225419
-0.220378
-0.407838
-0.40482
-0.401767
-0.398567
-0.395188
-0.391658
-0.387926
-0.383883
-0.379414
-0.374438
-0.368931
-0.362931
-0.356527
-0.34983
-0.342959
-0.336018
-0.329091
-0.322236
-0.315492
-0.308875
-0.302394
-0.296048
-0.289829
-0.283729
-0.27774
-0.271854
-0.26606
-0.260354
-0.254728
-0.249177
-0.243697
-0.238285
-0.232938
-0.227655
-0.222439
-0.217276
-0.212308
-0.416906
-0.413313
-0.409816
-0.406218
-0.402406
-0.398352
-0.393952
-0.389058
-0.383556
-0.377406
-0.370651
-0.363403
-0.35581
-0.348026
-0.340188
-0.332401
-0.32474
-0.317249
-0.30995
-0.302851
-0.295949
-0.289235
-0.282697
-0.276323
-0.270102
-0.264022
-0.258073
-0.252245
-0.24653
-0.240921
-0.235411
-0.229995
-0.224669
-0.219429
-0.214272
-0.209193
-0.204288
-0.426802
-0.422609
-0.418654
-0.414624
-0.410303
-0.405591
-0.400331
-0.394365
-0.387615
-0.380114
-0.371995
-0.363444
-0.354662
-0.345824
-0.337068
-0.328489
-0.320144
-0.31206
-0.304245
-0.296694
-0.289397
-0.282338
-0.275501
-0.268871
-0.262434
-0.256175
-0.250081
-0.244141
-0.238345
-0.232684
-0.227148
-0.22173
-0.216424
-0.211224
-0.206124
-0.201125
-0.196276
-0.437452
-0.432648
-0.428222
-0.423718
-0.41878
-0.413236
-0.406894
-0.399619
-0.391413
-0.382415
-0.372854
-0.362984
-0.353035
-0.343187
-0.333566
-0.324244
-0.315257
-0.306617
-0.298317
-0.290342
-0.282674
-0.275292
-0.268178
-0.261311
-0.254674
-0.248252
-0.242028
-0.235988
-0.230122
-0.224415
-0.218859
-0.213444
-0.208161
-0.203002
-0.19796
-0.193038
-0.188248
-0.448729
-0.443318
-0.438411
-0.433367
-0.427673
-0.421086
-0.413415
-0.404601
-0.394766
-0.384172
-0.373138
-0.361965
-0.350892
-0.340087
-0.329651
-0.319631
-0.310043
-0.300879
-0.292123
-0.28375
-0.275736
-0.268055
-0.260684
-0.253601
-0.246785
-0.240216
-0.233877
-0.227752
-0.221826
-0.216086
-0.210518
-0.205112
-0.199856
-0.194741
-0.18976
-0.184914
-0.180183
-0.460447
-0.454449
-0.44904
-0.443363
-0.436735
-0.428866
-0.419622
-0.409071
-0.397485
-0.38525
-0.372755
-0.360323
-0.348183
-0.336477
-0.325274
-0.314598
-0.304444
-0.29479
-0.285606
-0.276862
-0.268527
-0.260572
-0.252967
-0.245689
-0.238712
-0.232015
-0.225579
-0.219383
-0.213412
-0.207649
-0.202079
-0.19669
-0.191468
-0.186403
-0.181487
-0.176713
-0.172042
-0.472362
-0.465802
-0.459855
-0.453419
-0.445646
-0.436246
-0.425203
-0.412758
-0.399346
-0.385461
-0.371539
-0.3579
-0.344748
-0.332191
-0.320267
-0.308974
-0.298289
-0.288176
-0.278595
-0.26951
-0.260882
-0.252679
-0.244866
-0.237417
-0.230302
-0.223499
-0.216983
-0.210734
-0.204734
-0.198962
-0.193404
-0.188044
-0.182867
-0.17786
-0.173016
-0.168317
-0.163714
-0.484192
-0.477114
-0.470594
-0.463261
-0.454118
-0.44293
-0.429863
-0.415371
-0.40006
-0.384513
-0.369187
-0.354383
-0.340266
-0.326904
-0.314304
-0.302436
-0.29126
-0.280727
-0.270788
-0.261398
-0.252514
-0.244096
-0.236109
-0.228519
-0.221296
-0.214414
-0.207845
-0.201568
-0.195561
-0.189803
-0.184277
-0.178964
-0.17385
-0.16892
-0.164165
-0.159555
-0.155053
-0.279994
-0.280997
-0.281592
-0.282017
-0.28245
-0.282962
-0.283591
-0.284362
-0.285287
-0.286369
-0.287607
-0.289001
-0.290549
-0.292251
-0.294113
-0.296092
-0.298227
-0.300512
-0.302944
-0.305523
-0.308251
-0.31113
-0.314162
-0.317349
-0.320693
-0.324199
-0.327868
-0.331705
-0.335715
-0.339902
-0.344275
-0.348843
-0.353612
-0.358597
-0.363833
-0.369345
-0.375046
-0.286788
-0.287688
-0.288251
-0.288695
-0.289191
-0.289806
-0.290581
-0.291537
-0.292683
-0.294021
-0.295549
-0.297263
-0.299161
-0.30124
-0.303496
-0.30592
-0.308512
-0.311268
-0.314184
-0.31726
-0.320486
-0.323858
-0.327371
-0.331017
-0.334787
-0.338672
-0.342661
-0.346741
-0.3509
-0.355124
-0.3594
-0.363717
-0.368059
-0.372415
-0.376785
-0.381161
-0.385447
-0.293725
-0.294484
-0.294994
-0.295442
-0.295986
-0.296692
-0.297599
-0.298724
-0.300076
-0.301653
-0.303452
-0.305467
-0.307696
-0.310131
-0.312768
-0.3156
-0.318622
-0.321828
-0.32521
-0.328752
-0.33245
-0.336293
-0.340264
-0.344348
-0.348526
-0.352776
-0.357073
-0.361389
-0.365694
-0.369956
-0.374143
-0.378221
-0.382156
-0.385904
-0.389425
-0.392696
-0.395678
-0.300688
-0.301276
-0.301712
-0.30215
-0.302726
-0.303507
-0.304527
-0.305803
-0.307338
-0.30913
-0.311174
-0.313464
-0.315992
-0.318753
-0.321739
-0.324942
-0.328354
-0.331965
-0.335766
-0.339741
-0.343874
-0.348141
-0.352532
-0.357016
-0.361565
-0.366146
-0.370723
-0.375252
-0.379688
-0.38398
-0.388077
-0.391928
-0.395478
-0.398653
-0.401371
-0.403598
-0.405412
-0.307559
-0.307951
-0.308295
-0.308707
-0.309299
-0.310133
-0.311244
-0.312644
-0.314335
-0.316313
-0.318569
-0.321097
-0.323888
-0.326935
-0.330228
-0.333758
-0.337514
-0.341482
-0.34565
-0.350001
-0.354516
-0.359169
-0.363924
-0.368755
-0.37363
-0.378501
-0.38332
-0.38803
-0.392571
-0.396875
-0.400872
-0.404492
-0.407665
-0.410295
-0.412255
-0.413494
-0.414257
-0.314214
-0.314396
-0.314635
-0.315005
-0.315594
-0.31646
-0.317635
-0.31913
-0.320944
-0.323071
-0.325502
-0.328226
-0.331236
-0.334522
-0.338073
-0.341878
-0.345924
-0.350196
-0.354677
-0.359346
-0.36418
-0.369151
-0.374225
-0.379359
-0.384503
-0.389623
-0.394645
-0.399505
-0.404126
-0.408425
-0.412314
-0.415705
-0.418508
-0.420616
-0.421868
-0.422175
-0.421941
-0.320544
-0.320508
-0.320633
-0.320947
-0.321513
-0.322386
-0.323596
-0.325153
-0.327054
-0.32929
-0.331851
-0.334727
-0.337906
-0.341379
-0.345133
-0.349157
-0.353435
-0.357951
-0.362685
-0.367614
-0.37271
-0.377943
-0.383274
-0.388658
-0.394044
-0.399358
-0.404547
-0.409527
-0.41421
-0.418495
-0.422277
-0.425444
-0.427889
-0.429494
-0.430088
-0.42951
-0.42821
-0.326447
-0.3262
-0.326205
-0.326451
-0.326975
-0.327829
-0.329043
-0.330625
-0.332571
-0.334873
-0.337518
-0.340494
-0.343791
-0.347396
-0.351297
-0.35548
-0.359929
-0.364628
-0.369553
-0.37468
-0.37998
-0.385417
-0.390949
-0.396528
-0.402094
-0.407579
-0.412907
-0.417988
-0.422721
-0.42699
-0.430672
-0.433634
-0.435741
-0.436865
-0.436851
-0.435448
-0.43275
-0.331848
-0.331404
-0.33129
-0.331456
-0.331918
-0.332727
-0.333912
-0.33548
-0.33743
-0.33975
-0.342429
-0.345454
-0.348813
-0.352493
-0.356481
-0.360763
-0.365322
-0.37014
-0.375194
-0.380457
-0.385898
-0.39148
-0.397158
-0.402878
-0.408578
-0.414182
-0.419614
-0.424769
-0.429534
-0.433773
-0.437353
-0.440119
-0.441909
-0.442571
-0.441956
-0.439768
-0.43569
-0.336691
-0.336074
-0.335845
-0.335924
-0.336308
-0.337044
-0.338165
-0.339681
-0.341588
-0.343878
-0.346539
-0.349558
-0.352923
-0.356619
-0.360635
-0.364954
-0.369561
-0.374435
-0.379553
-0.384888
-0.390407
-0.39607
-0.40183
-0.407632
-0.413409
-0.419084
-0.424552
-0.429717
-0.434453
-0.438616
-0.442051
-0.444587
-0.446041
-0.44624
-0.444979
-0.442092
-0.436727
-0.340949
-0.34019
-0.339855
-0.339842
-0.340131
-0.34077
-0.341794
-0.343215
-0.345034
-0.347243
-0.349834
-0.352792
-0.356105
-0.35976
-0.363743
-0.368038
-0.372629
-0.377495
-0.382611
-0.38795
-0.393477
-0.399151
-0.404921
-0.410727
-0.416498
-0.422147
-0.427573
-0.432659
-0.437269
-0.441251
-0.444434
-0.446638
-0.447658
-0.447339
-0.44535
-0.441984
-0.435266
-0.344618
-0.343753
-0.343327
-0.343219
-0.343399
-0.343917
-0.344811
-0.346097
-0.347782
-0.349862
-0.352329
-0.355172
-0.358377
-0.361932
-0.365823
-0.370034
-0.374546
-0.379339
-0.384387
-0.389661
-0.395123
-0.40073
-0.406428
-0.412148
-0.417816
-0.423337
-0.428601
-0.43348
-0.437828
-0.441481
-0.444257
-0.445978
-0.446405
-0.445492
-0.442629
-0.438886
-0.430969
-0.347718
-0.346788
-0.346286
-0.346084
-0.346146
-0.346521
-0.347254
-0.348369
-0.349876
-0.351778
-0.354071
-0.356744
-0.359787
-0.363187
-0.366928
-0.370996
-0.37537
-0.380028
-0.384943
-0.390082
-0.395406
-0.400864
-0.406398
-0.41194
-0.417398
-0.422672
-0.427642
-0.432168
-0.436094
-0.439251
-0.441445
-0.442526
-0.442193
-0.4406
-0.436795
-0.432594
-0.423807
-0.350293
-0.349338
-0.34878
-0.348486
-0.34842
-0.348635
-0.349181
-0.350089
-0.351379
-0.353059
-0.35513
-0.357585
-0.360415
-0.363607
-0.367148
-0.371019
-0.375199
-0.379665
-0.384386
-0.389326
-0.394439
-0.399673
-0.404961
-0.410222
-0.415359
-0.42026
-0.424793
-0.428811
-0.432149
-0.434639
-0.436081
-0.436372
-0.435162
-0.432784
-0.428108
-0.423277
-0.413963
-0.352403
-0.351463
-0.350866
-0.350485
-0.350286
-0.350327
-0.350663
-0.351336
-0.352374
-0.353794
-0.355602
-0.357796
-0.360369
-0.36331
-0.366604
-0.370232
-0.374173
-0.378398
-0.38287
-0.387552
-0.392394
-0.397331
-0.402286
-0.407168
-0.411869
-0.416264
-0.420211
-0.423557
-0.426136
-0.427792
-0.428338
-0.427714
-0.425599
-0.422374
-0.41702
-0.411461
-0.401887
-0.354125
-0.353238
-0.352619
-0.352155
-0.351819
-0.351675
-0.351785
-0.352201
-0.352962
-0.354092
-0.355604
-0.357503
-0.359785
-0.362439
-0.365451
-0.368802
-0.372462
-0.376402
-0.380589
-0.384966
-0.389475
-0.394041
-0.398575
-0.402972
-0.407108
-0.410849
-0.414044
-0.41654
-0.418185
-0.418845
-0.418382
-0.41677
-0.413811
-0.40983
-0.40411
-0.398046
-0.388619
-0.355555
-0.354749
-0.354121
-0.353577
-0.353103
-0.352767
-0.352641
-0.352787
-0.353252
-0.354073
-0.355269
-0.356851
-0.358818
-0.361162
-0.363868
-0.366912
-0.370268
-0.373897
-0.377751
-0.381769
-0.385878
-0.389989
-0.393995
-0.397775
-0.401195
-0.40411
-0.406373
-0.407843
-0.408393
-0.407925
-0.406375
-0.403753
-0.400029
-0.395479
-0.389742
-0.383734
-0.37509
-0.356801
-0.356097
-0.355468
-0.354843
-0.354229
-0.353698
-0.353332
-0.353201
-0.353365
-0.353867
-0.354737
-0.35599
-0.357631
-0.359647
-0.362029
-0.364749
-0.367772
-0.37105
-0.374522
-0.378115
-0.381736
-0.385279
-0.388623
-0.391632
-0.394166
-0.396085
-0.397256
-0.397562
-0.396919
-0.395269
-0.392618
-0.388995
-0.384517
-0.379409
-0.373688
-0.368059
-0.360588
-0.357982
-0.357388
-0.356758
-0.356053
-0.355297
-0.354572
-0.353968
-0.353563
-0.353429
-0.353616
-0.354162
-0.355087
-0.356397
-0.35809
-0.360144
-0.362525
-0.365189
-0.368076
-0.371109
-0.374192
-0.377218
-0.380062
-0.382591
-0.384668
-0.386158
-0.386938
-0.386908
-0.385991
-0.384148
-0.381365
-0.377693
-0.373156
-0.367926
-0.362028
-0.355777
-0.349559
-0.342997
-0.381883
-0.390245
-0.399346
-0.409124
-0.419671
-0.430963
-0.442999
-0.455714
-0.469021
-0.482785
-0.496827
-0.510921
-0.524821
-0.538298
-0.551066
-0.562823
-0.573269
-0.582086
-0.588903
-0.593266
-0.594562
-0.592175
-0.585074
-0.572258
-0.552574
-0.524549
-0.487583
-0.441886
-0.389293
-0.332984
-0.276825
-0.22422
-0.177361
-0.137132
-0.103439
-0.0756629
-0.0530459
-0.0348983
-0.0206476
-0.00972542
-0.00145359
0.00496387
0.01023
0.0147282
0.0184594
0.0211628
0.0226732
0.0229834
0.0222641
0.02082
0.01896
0.0169419
0.0149388
0.0130468
0.011313
0.0097532
0.00836626
0.00714308
0.00607095
0.00513764
0.00432988
0.00363723
0.00304765
0.00255261
0.00214061
0.00180426
0.00153175
0.00131606
0.00114511
0.0010121
0.000904869
0.000817256
0.00073859
0.00066436
0.00058742
0.000506442
0.000421331
0.00033274
0.000248233
0.000167344
0.000104832
5.19338e-05
2.83248e-05
1.16327e-05
3.05435e-05
4.29796e-05
9.03663e-05
0.000104467
0.000154855
0.000141059
0.000175615
0.000104904
9.17855e-05
-0.390396
-0.396151
-0.402416
-0.409069
-0.416305
-0.424165
-0.432751
-0.442097
-0.452221
-0.463081
-0.474584
-0.486575
-0.498848
-0.511155
-0.523193
-0.534624
-0.545081
-0.554164
-0.561438
-0.566404
-0.568388
-0.566565
-0.560183
-0.548193
-0.52991
-0.503422
-0.468779
-0.426048
-0.377031
-0.324411
-0.271692
-0.22201
-0.177479
-0.13902
-0.106684
-0.0800244
-0.0584501
-0.0413598
-0.028123
-0.0179956
-0.0100459
-0.00333935
0.00274104
0.0083251
0.0131702
0.0167794
0.019001
0.0198495
0.0195576
0.0184704
0.0169215
0.0151752
0.0134088
0.0117229
0.0101685
0.008766
0.00751813
0.00641897
0.00545814
0.00462452
0.00390591
0.00329209
0.00277176
0.0023365
0.00197573
0.00168226
0.00144545
0.00125851
0.00111069
0.000995377
0.000901873
0.000824132
0.000752971
0.000683862
0.000610883
0.000532551
0.00044937
0.000362035
0.000277943
0.000197227
0.000133647
8e-05
5.39766e-05
3.59463e-05
5.12369e-05
6.22495e-05
0.00010527
0.000118702
0.000164011
0.000150561
0.000178652
0.000109717
8.79677e-05
-0.398983
-0.402216
-0.405708
-0.409237
-0.413084
-0.417349
-0.422222
-0.427839
-0.434325
-0.441749
-0.450127
-0.459397
-0.469426
-0.48
-0.490826
-0.501544
-0.511736
-0.520922
-0.528587
-0.53417
-0.537003
-0.536044
-0.530649
-0.519898
-0.502917
-0.478571
-0.446973
-0.407736
-0.362943
-0.314546
-0.265858
-0.21967
-0.178012
-0.141794
-0.111227
-0.0860496
-0.0658549
-0.0500669
-0.0379161
-0.0284388
-0.0204646
-0.0130513
-0.00579462
0.00114317
0.00729888
0.011898
0.0149325
0.0164192
0.0166421
0.0159807
0.0147914
0.013349
0.0118386
0.0103694
0.0090001
0.00775751
0.00664998
0.00567527
0.00482574
0.00409162
0.00346189
0.00292665
0.00247543
0.00209992
0.0017905
0.00154019
0.00133951
0.00118192
0.00105797
0.000961248
0.000882443
0.000815621
0.00075302
0.000690088
0.00062216
0.000547543
0.00046747
0.00038251
0.000300057
0.000220568
0.000156974
0.000103368
7.56692e-05
5.67866e-05
6.88934e-05
7.87175e-05
0.000117591
0.000130549
0.000170957
0.00015821
0.000179977
0.00011346
8.3608e-05
-0.407362
-0.408259
-0.409141
-0.409693
-0.410232
-0.410919
-0.412004
-0.41371
-0.416258
-0.419827
-0.424549
-0.43048
-0.437587
-0.445737
-0.454688
-0.464105
-0.473553
-0.482509
-0.490378
-0.496529
-0.500319
-0.50076
-0.496519
-0.487434
-0.472496
-0.450882
-0.422426
-0.38713
-0.347505
-0.303786
-0.259584
-0.217307
-0.178953
-0.145337
-0.116897
-0.0935324
-0.0750451
-0.0607695
-0.0497589
-0.0407816
-0.0324874
-0.0240542
-0.0153602
-0.00680936
0.000605073
0.00648508
0.0104612
0.0127008
0.0135336
0.0133667
0.0125819
0.011471
0.0102328
0.0089888
0.00780885
0.00672819
0.00576177
0.00491165
0.00417327
0.00353837
0.00299728
0.00254046
0.00215832
0.00184269
0.00158492
0.00137821
0.00121426
0.00108676
0.000987545
0.000910421
0.000847393
0.000792654
0.000739772
0.000684187
0.000622438
0.000552627
0.000476747
0.000395172
0.000315397
0.000238029
0.000175323
0.000122427
9.37307e-05
7.44245e-05
8.38062e-05
9.26545e-05
0.000127663
0.000140284
0.000176031
0.000164228
0.00017991
0.000116254
7.89346e-05
-0.415154
-0.413927
-0.41239
-0.410178
-0.40761
-0.404895
-0.40232
-0.400168
-0.398722
-0.398252
-0.398989
-0.401113
-0.404706
-0.409745
-0.416082
-0.423455
-0.431479
-0.439641
-0.447313
-0.453785
-0.458341
-0.460153
-0.457682
-0.450704
-0.438356
-0.419997
-0.39541
-0.3648
-0.329721
-0.291497
-0.252159
-0.214199
-0.179558
-0.148819
-0.122924
-0.101783
-0.0854437
-0.0729704
-0.0632317
-0.0546772
-0.0458698
-0.0362116
-0.0258401
-0.0154535
-0.00655338
0.000578737
0.00561423
0.00871999
0.0102514
0.0106425
0.0103019
0.00954613
0.00859354
0.00758212
0.00659515
0.00567806
0.00485333
0.00412782
0.00350036
0.00296441
0.00251174
0.00213327
0.00182028
0.00156479
0.00135906
0.00119652
0.00106999
0.000973407
0.000899855
0.00084337
0.000797231
0.000755776
0.000713808
0.000666791
0.000612373
0.000548491
0.000477855
0.000400638
0.000324487
0.000250056
0.00018905
0.000137474
0.000108417
8.90876e-05
9.6218e-05
0.000104298
0.000135767
0.000148152
0.000179526
0.000168814
0.000178733
0.000118213
7.41347e-05
-0.422029
-0.418888
-0.415123
-0.410398
-0.404985
-0.399135
-0.393157
-0.387376
-0.382114
-0.377708
-0.37446
-0.372631
-0.372394
-0.373832
-0.376908
-0.381491
-0.387291
-0.393882
-0.400665
-0.406914
-0.411857
-0.414828
-0.414701
-0.409544
-0.400085
-0.385348
-0.365066
-0.339438
-0.309517
-0.276515
-0.242335
-0.209087
-0.178742
-0.151089
-0.128331
-0.109984
-0.0964014
-0.0861262
-0.0778674
-0.0697399
-0.0603344
-0.0493352
-0.0369658
-0.0249617
-0.0143313
-0.00578799
0.000437113
0.00450814
0.00681332
0.00781875
0.00795807
0.00757797
0.00692265
0.00615016
0.00535942
0.00460733
0.00392471
0.00332371
0.00280689
0.00236958
0.00200514
0.00170499
0.00146132
0.00126631
0.00111315
0.000995445
0.000907109
0.000842357
0.00079545
0.000760684
0.000732559
0.000705587
0.000675722
0.000638489
0.000592543
0.000535703
0.000471325
0.000399406
0.000327754
0.000257021
0.00019846
0.00014877
0.000119957
0.000100985
0.000106344
0.000113863
0.00014215
0.000154379
0.000181706
0.000172158
0.000176704
0.00011945
6.93596e-05
-0.427768
-0.422916
-0.417113
-0.41015
-0.402207
-0.393562
-0.38453
-0.375471
-0.366718
-0.358649
-0.351599
-0.345921
-0.341855
-0.339566
-0.339094
-0.340406
-0.343319
-0.347542
-0.352574
-0.357771
-0.362364
-0.365722
-0.366933
-0.364173
-0.35756
-0.346528
-0.330708
-0.310151
-0.285598
-0.258108
-0.229385
-0.20117
-0.174907
-0.151325
-0.132543
-0.117533
-0.107408
-0.0997787
-0.0932067
-0.0855692
-0.0755613
-0.0631163
-0.0488333
-0.0350114
-0.0226291
-0.0125381
-0.00501583
0.000100522
0.00323891
0.0049022
0.00555366
0.00556836
0.00522101
0.00469339
0.00410199
0.00351628
0.00297613
0.00249949
0.00209294
0.00175395
0.00147754
0.00125572
0.0010816
0.000947499
0.000847493
0.000775385
0.000726114
0.000694158
0.000674927
0.000662986
0.000654008
0.000642701
0.000626107
0.000599837
0.000563473
0.000514747
0.000457601
0.000391877
0.000325548
0.000259226
0.000203804
0.000156538
0.000128542
0.0001103
0.000114367
0.00012154
0.000147026
0.000159166
0.000182804
0.000174432
0.000174049
0.00012007
6.47248e-05
-0.43238
-0.425862
-0.418219
-0.409378
-0.399264
-0.388203
-0.376486
-0.364495
-0.352681
-0.341406
-0.33097
-0.321792
-0.314151
-0.308241
-0.304167
-0.302022
-0.301689
-0.303008
-0.305575
-0.308925
-0.312354
-0.315318
-0.3171
-0.316418
-0.311707
-0.304097
-0.292541
-0.27691
-0.257686
-0.23578
-0.212657
-0.189769
-0.16842
-0.149546
-0.135113
-0.124755
-0.118211
-0.113504
-0.108766
-0.101723
-0.0911068
-0.0769751
-0.0611845
-0.0455037
-0.0312973
-0.0195712
-0.0106838
-0.0044658
-0.000452431
0.00189938
0.00308884
0.00351715
0.00348871
0.00321202
0.00282318
0.00240528
0.00200797
0.00165549
0.00135883
0.00111779
0.000929209
0.000785741
0.000681399
0.00060869
0.000562502
0.000536801
0.000527519
0.000529376
0.00053889
0.000550897
0.000562201
0.000567722
0.000565537
0.00055136
0.000525644
0.000486053
0.000437067
0.000378387
0.000318157
0.000256921
0.000205292
0.00016096
0.000134337
0.000117187
0.000120442
0.000127486
0.000150572
0.000162686
0.000183017
0.000175788
0.000170962
0.000120166
6.03133e-05
-0.435276
-0.427568
-0.418248
-0.408206
-0.396279
-0.383211
-0.369121
-0.354462
-0.340119
-0.326204
-0.312892
-0.300634
-0.289895
-0.280774
-0.273412
-0.26799
-0.264414
-0.262644
-0.262365
-0.263348
-0.264935
-0.266711
-0.26799
-0.267891
-0.264945
-0.260195
-0.25233
-0.241183
-0.227008
-0.210549
-0.193032
-0.175714
-0.159867
-0.146444
-0.136948
-0.131254
-0.12854
-0.126828
-0.124009
-0.117691
-0.106402
-0.0909426
-0.0738503
-0.0562657
-0.0401832
-0.0267897
-0.0165062
-0.00915571
-0.00424153
-0.00118049
0.000563384
0.00142245
0.00172488
0.00170592
0.00152322
0.00127478
0.00102077
0.00079228
0.000605066
0.000461579
0.000360579
0.000295464
0.000261159
0.000250331
0.000258644
0.0002802
0.000311865
0.000348585
0.000387935
0.000425021
0.00045774
0.000481226
0.000494557
0.000493555
0.000479506
0.000450011
0.000410067
0.000359227
0.000305833
0.000250314
0.000203101
0.000162192
0.000137478
0.000121774
0.000124693
0.00013183
0.000152932
0.000165081
0.000182508
0.000176354
0.000167604
0.000119818
5.61818e-05
-0.435851
-0.428031
-0.417625
-0.406082
-0.392784
-0.378116
-0.362047
-0.345244
-0.329363
-0.313347
-0.297583
-0.282508
-0.269352
-0.257593
-0.247472
-0.239143
-0.232695
-0.228059
-0.224976
-0.223477
-0.222887
-0.22296
-0.223087
-0.222685
-0.220785
-0.218015
-0.213081
-0.205716
-0.196033
-0.184607
-0.172485
-0.160663
-0.150478
-0.142886
-0.138378
-0.137217
-0.138133
-0.139259
-0.138379
-0.132894
-0.120671
-0.105123
-0.0864125
-0.067005
-0.0491096
-0.0340894
-0.0224231
-0.0139367
-0.0081108
-0.00432878
-0.00201911
-0.000717804
-7.2268e-05
0.000174505
0.000202246
0.000125278
1.51696e-05
-8.94685e-05
-0.000167687
-0.000214079
-0.000227781
-0.00021457
-0.000178604
-0.00012706
-6.35512e-05
6.12644e-06
7.97115e-05
0.000152357
0.000222644
0.000285939
0.000341196
0.000383758
0.000413682
0.000426888
0.000425481
0.000406985
0.00037692
0.000334664
0.000288801
0.000239592
0.000197391
0.000160368
0.000138085
0.00012417
0.000127229
0.000134679
0.000154227
0.000166467
0.000181415
0.00017624
0.000164108
0.000119095
5.23699e-05
-0.43384
-0.42586
-0.415154
-0.402963
-0.388844
-0.373044
-0.355858
-0.337821
-0.319724
-0.301838
-0.284109
-0.266751
-0.25282
-0.238926
-0.226536
-0.215564
-0.20687
-0.199871
-0.19438
-0.19057
-0.187888
-0.186189
-0.184966
-0.183898
-0.182342
-0.18065
-0.177868
-0.173458
-0.167524
-0.160434
-0.153197
-0.146314
-0.141462
-0.139668
-0.13964
-0.142431
-0.146656
-0.15036
-0.151361
-0.14689
-0.133133
-0.118628
-0.0985478
-0.0774768
-0.0579163
-0.0413698
-0.0283764
-0.0187776
-0.0120443
-0.0075367
-0.00465406
-0.00290318
-0.00190489
-0.00138356
-0.00114009
-0.00104303
-0.00100834
-0.000989137
-0.000958799
-0.000908583
-0.00083533
-0.000743862
-0.000637413
-0.000523009
-0.000403605
-0.000284927
-0.000168431
-5.87853e-05
4.35478e-05
0.000134178
0.000213086
0.000275815
0.00032338
0.000351786
0.000363953
0.000357308
0.000337916
0.00030494
0.000267271
0.000224926
0.000188305
0.000155611
0.000136267
0.000124473
0.000128142
0.000136122
0.000154554
0.000166941
0.000179852
0.000175536
0.000160583
0.000118052
4.89078e-05
-0.428427
-0.420557
-0.410273
-0.398184
-0.383871
-0.367631
-0.349918
-0.331214
-0.311971
-0.292728
-0.273738
-0.255396
-0.238659
-0.223289
-0.209114
-0.196532
-0.186921
-0.17811
-0.170724
-0.164738
-0.160287
-0.157036
-0.154517
-0.152599
-0.151143
-0.149948
-0.148769
-0.146505
-0.143536
-0.139873
-0.136621
-0.133766
-0.134744
-0.136233
-0.140423
-0.146587
-0.153671
-0.159708
-0.162503
-0.15959
-0.150272
-0.131389
-0.109908
-0.087446
-0.0664491
-0.048535
-0.0343102
-0.0236483
-0.0160271
-0.0107969
-0.00733751
-0.00513098
-0.00377428
-0.00297048
-0.00250509
-0.00223057
-0.00204965
-0.00190634
-0.00176776
-0.0016214
-0.00146158
-0.00129197
-0.00111488
-0.000937159
-0.000761168
-0.000592601
-0.000432188
-0.00028445
-0.000148948
-2.98484e-05
7.38249e-05
0.000157799
0.000224034
0.000268604
0.000295249
0.000301268
0.000293309
0.000270269
0.000241425
0.000206467
0.000175974
0.000148028
0.000132119
0.000122765
0.00012751
0.000136233
0.000153997
0.000166581
0.000177912
0.000174316
0.000157119
0.000116733
4.58229e-05
-0.419632
-0.41174
-0.402581
-0.391434
-0.377617
-0.361638
-0.344058
-0.325238
-0.305593
-0.285672
-0.26591
-0.246796
-0.228738
-0.212039
-0.196695
-0.18291
-0.171096
-0.16099
-0.152008
-0.1454
-0.139771
-0.135268
-0.131684
-0.128867
-0.127284
-0.126174
-0.126467
-0.125539
-0.12482
-0.123705
-0.123192
-0.124867
-0.128425
-0.133586
-0.140843
-0.149632
-0.158979
-0.167015
-0.171406
-0.169615
-0.160379
-0.142288
-0.120156
-0.0967008
-0.074571
-0.0554995
-0.0401749
-0.0285227
-0.0200473
-0.0141052
-0.0100679
-0.00740043
-0.00567931
-0.00458767
-0.00389415
-0.00343786
-0.00310859
-0.00284044
-0.0025937
-0.00235157
-0.00210557
-0.00185803
-0.00161025
-0.00136885
-0.00113567
-0.000916388
-0.000711102
-0.00052421
-0.000354441
-0.000205757
-7.62251e-05
3.00496e-05
0.000115964
0.000177632
0.000219631
0.000239094
0.000243302
0.000230827
0.000211417
0.000184342
0.000160508
0.000137713
0.000125727
0.00011912
0.000125405
0.000135073
0.000152625
0.000165453
0.000175671
0.000172641
0.000153791
0.000115171
4.31462e-05
-0.40792
-0.399746
-0.392136
-0.382581
-0.369865
-0.354793
-0.338059
-0.319881
-0.300576
-0.280672
-0.260666
-0.241037
-0.222216
-0.204583
-0.188335
-0.173761
-0.1608
-0.149554
-0.139675
-0.131446
-0.124641
-0.119103
-0.114724
-0.110479
-0.108317
-0.10813
-0.111124
-0.110495
-0.110993
-0.11175
-0.114017
-0.117991
-0.123946
-0.131684
-0.141068
-0.151684
-0.162639
-0.172231
-0.177996
-0.176993
-0.168541
-0.151316
-0.129081
-0.105086
-0.0821743
-0.0621948
-0.0459301
-0.0333786
-0.0240934
-0.0174555
-0.0128415
-0.00970801
-0.00761605
-0.0062311
-0.00530506
-0.00466301
-0.0041831
-0.00378926
-0.00343439
-0.00309689
-0.0027652
-0.00244004
-0.00212166
-0.00181638
-0.00152559
-0.00125495
-0.001004
-0.000777035
-0.000572034
-0.000392768
-0.000236391
-0.000106852
-3.36135e-07
7.92914e-05
0.000137452
0.000171083
0.000188143
0.000186816
0.000177416
0.000158691
0.000142026
0.000124768
0.000117178
0.000113614
0.000121896
0.000132708
0.000150503
0.000163617
0.000173199
0.000170564
0.000150661
0.000113392
4.09171e-05
-0.393884
-0.385368
-0.379529
-0.371913
-0.36071
-0.347074
-0.33178
-0.314871
-0.296573
-0.277392
-0.257819
-0.238292
-0.219231
-0.201053
-0.18408
-0.168618
-0.154788
-0.14266
-0.132013
-0.123149
-0.115562
-0.109457
-0.104124
-0.099809
-0.0976501
-0.0970387
-0.0982822
-0.0990717
-0.100791
-0.103406
-0.107474
-0.113289
-0.121011
-0.130371
-0.141138
-0.152886
-0.164841
-0.175512
-0.182379
-0.181827
-0.174727
-0.158465
-0.136576
-0.112489
-0.0891639
-0.0685431
-0.0515135
-0.0381675
-0.0281288
-0.0208208
-0.0156384
-0.0120387
-0.00957279
-0.00789118
-0.00673028
-0.00590076
-0.00526915
-0.00474947
-0.00428703
-0.00385491
-0.00343829
-0.00303599
-0.00264724
-0.00227799
-0.00192927
-0.0016067
-0.00130939
-0.00104155
-0.000800472
-0.000589739
-0.000405649
-0.000251999
-0.000124074
-2.57327e-05
4.92952e-05
9.77228e-05
0.000128236
0.000138571
0.000139694
0.000129735
0.000120705
0.000109336
0.000106593
0.000106347
0.000117068
0.000129211
0.000147703
0.000161141
0.000170563
0.000168142
0.000147785
0.000111424
3.91913e-05
-0.379013
-0.36973
-0.36562
-0.359947
-0.350432