/*--------------------------------*- C++ -*----------------------------------*\
| =========                 |                                                 |
| \\      /  F ield         | OpenFOAM: The Open Source CFD Toolbox           |
|  \\    /   O peration     | Version:  2312                                  |
|   \\  /    A nd           | Website:  www.openfoam.com                      |
|    \\/     M anipulation  |                                                 |
\*---------------------------------------------------------------------------*/
FoamFile
{
    version     2.0;
    format      ascii;
    arch        "LSB;label=32;scalar=64";
    class       surfaceScalarField;
    location    "41.65";
    object      phi;
}
// * * * * * * * * * * * * * * * * * * * * * * * * * * * * * * * * * * * * * //

dimensions      [0 3 -1 0 0 0 0];

oriented        oriented;

internalField   nonuniform List<scalar> 
10785
(
6.16568e-05
0.00396653
-0.00402819
0.00259324
0.00463188
-0.00716346
0.00968228
-0.00208459
-0.00500445
0.0238512
-0.0171766
0.00300765
0.0463388
-0.0397848
0.0172972
0.0754999
-0.0665696
0.0374086
0.10745
-0.0934744
0.0615238
0.137674
-0.117307
0.0870833
0.16249
-0.136243
0.111427
0.180152
-0.150061
0.1324
0.190591
-0.159471
0.149031
0.196401
-0.16612
0.16031
0.199642
-0.171971
0.16873
0.202117
-0.175881
0.173405
-0.182024
0.178967
0.205174
0.000167061
0.00379947
0.00413969
0.000659246
0.0154802
-0.0134251
0.0363022
-0.0379986
0.0643988
-0.0678815
0.0945556
-0.0967264
0.121584
-0.120502
0.142188
-0.137911
0.155726
-0.149782
0.163667
-0.158002
0.168751
-0.164555
0.173564
-0.170933
0.178799
-0.177206
0.1864
-0.183481
-0.190685
0.195061
0.000876106
0.00292336
0.00780643
-0.00627108
0.024894
-0.0305127
0.0505945
-0.063699
0.0784254
-0.0957123
0.10241
-0.120711
0.119691
-0.137784
0.13066
-0.148881
0.137611
-0.156733
0.14306
-0.16345
0.148551
-0.170045
0.154195
-0.176577
0.159957
-0.182968
0.165717
-0.189241
-0.195169
0.170201
0.00202735
0.000896016
0.0131121
-0.0173558
0.0349522
-0.0523528
0.0604888
-0.0892357
0.0824345
-0.117658
0.0978733
-0.13615
0.107679
-0.147589
0.114246
-0.155447
0.119528
-0.162015
0.124347
-0.16827
0.128724
-0.174422
0.132785
-0.180638
0.136836
-0.18702
0.141268
-0.193673
-0.200934
0.147033
0.00357664
-0.00268062
0.0188979
-0.0326771
0.0418152
-0.0752701
0.062751
-0.110171
0.077568
-0.132475
0.0868722
-0.145454
0.0928588
-0.153576
0.0972305
-0.159819
0.100802
-0.165586
0.103935
-0.171403
0.10702
-0.177507
0.110349
-0.183967
0.114008
-0.190679
0.118101
-0.197766
-0.204837
0.122004
0.00554475
-0.00822538
0.0234413
-0.0505737
0.0436094
-0.0954381
0.0587095
-0.125271
0.0680224
-0.141788
0.0734535
-0.150885
0.0768633
-0.156986
0.0793816
-0.162337
0.0815983
-0.167803
0.0838226
-0.173627
0.0861144
-0.179799
0.0884047
-0.186257
0.0907289
-0.193003
0.0930353
-0.200072
-0.207372
0.0955699
0.00756205
-0.0157874
0.0253212
-0.0683329
0.0410661
-0.111183
0.0510187
-0.135224
0.0563034
-0.147073
0.0590112
-0.153593
0.0606162
-0.158591
0.0618296
-0.163551
0.062877
-0.16885
0.0637784
-0.174528
0.0645687
-0.180589
0.0653717
-0.18706
0.066293
-0.193924
0.0673871
-0.201166
-0.208701
0.0687166
0.00896307
-0.0247505
0.0243609
-0.0837307
0.0356622
-0.122484
0.0414893
-0.141051
0.0438397
-0.149423
0.0445797
-0.154333
0.0446868
-0.158698
0.0444909
-0.163355
0.0440986
-0.168458
0.0436007
-0.174031
0.0430776
-0.180066
0.0425576
-0.18654
0.0420642
-0.193431
0.0416572
-0.200759
0.0414337
-0.208478
-0.0012626
0.0105027
-0.00924008
-0.00418557
0.0176863
-0.0147633
-0.00822678
0.0190034
-0.0149622
-0.0130526
0.0185597
-0.0137339
-0.0184319
0.0177405
-0.0123612
-0.0241987
0.0164014
-0.0106346
-0.0301785
0.0139975
-0.00801769
-0.036146
0.00997315
-0.00400569
-0.0415663
0.00375646
0.00166386
-0.0461425
-0.00471767
0.00929387
-0.0494567
-0.0158884
0.0192025
-0.051013
-0.0297504
0.0313067
-0.050488
-0.0458091
0.0452841
-0.0477448
-0.0630843
0.0603412
-0.0808675
-0.0426691
0.0757917
-0.000546835
0.0110495
-0.0024507
0.0195901
-0.00534609
0.0218987
-0.00879954
0.0220132
-0.012479
0.02142
-0.0161715
0.020094
-0.0196736
0.0174996
-0.0227193
0.0130188
-0.0249774
0.00601459
-0.0259689
-0.00372621
-0.0254031
-0.0164541
-0.0229092
-0.0322443
-0.0185183
-0.0502
-0.012006
-0.0695966
-0.0882454
-0.00462815
0.00039684
0.0106527
4.87528e-05
0.0199382
-0.00103561
0.0229831
-0.00228559
0.0232632
-0.00323682
0.0223712
-0.00356608
0.0204232
-0.00299374
0.0169273
-0.00119985
0.0112249
0.00217383
0.00264091
0.00765065
-0.00920303
0.0154762
-0.0242797
0.0263679
-0.043136
0.039054
-0.0628861
0.0543256
-0.0848682
-0.104028
0.0701078
0.00126183
0.00939084
0.00256501
0.018635
0.00363891
0.0219092
0.00496799
0.0219341
0.00715273
0.0201865
0.0106657
0.0169103
0.0159072
0.0116857
0.0232791
0.00385309
0.0332582
-0.00733821
0.0465318
-0.0224766
0.0630243
-0.0407722
0.0832046
-0.0633162
0.105599
-0.0852806
0.12945
-0.10872
-0.128251
0.153674
0.00177959
0.00761125
0.00443211
0.0159825
0.0074118
0.0189295
0.0111026
0.0182433
0.0161443
0.0151447
0.0231474
0.00990711
0.0326709
0.00216229
0.0456366
-0.00911266
0.0625543
-0.0242559
0.083756
-0.0436782
0.10872
-0.0657365
0.136515
-0.0911114
0.164741
-0.113506
0.192682
-0.136661
-0.152081
0.216512
0.00177026
0.00584099
0.00503575
0.012717
0.009228
0.0147373
0.0146382
0.0128331
0.0219893
0.00779366
0.0321602
-0.000263816
0.0466319
-0.0123094
0.0659369
-0.0284177
0.090444
-0.048763
0.118991
-0.0722254
0.150264
-0.0970094
0.180889
-0.121736
0.209005
-0.141623
0.232495
-0.16015
-0.168477
0.248891
0.00126663
0.00457436
0.00432158
0.00966208
0.00895598
0.0101029
0.0156812
0.00610784
0.0257295
-0.00225461
0.0408309
-0.0153652
0.0618055
-0.033284
0.0886133
-0.0552255
0.11966
-0.07981
0.15191
-0.104475
0.182682
-0.127782
0.207728
-0.146781
0.227583
-0.161478
0.23916
-0.171727
-0.175098
0.245781
0.000546172
0.00304479
0.00814321
0.0172587
0.0323013
0.0543447
0.0825845
0.114442
0.146059
0.173984
0.195233
0.208762
0.216014
0.217692
0.22156
-0.0290095
-0.210936
0.197277
-0.00717693
-0.254529
0.232697
0.0277229
-0.280679
0.245779
0.0858042
-0.240118
0.182036
0.152195
-0.0642389
-0.00215234
0.199494
0.189307
-0.236605
0.22565
0.384874
-0.41103
0.227168
0.435541
-0.437059
0.1988
0.49583
-0.467462
0.177353
0.562865
-0.541418
0.175031
0.396802
-0.394481
0.179368
0.0418249
-0.0461618
0.188297
-0.261639
0.25271
0.191712
-0.40678
0.403365
0.184023
-0.438378
0.446067
0.181543
-0.393809
0.396288
0.174873
-0.317031
0.323701
0.156961
-0.216767
0.234679
0.148083
-0.141111
0.149989
0.156444
-0.0780344
0.0696731
0.169973
-0.0180916
0.00456273
0.184678
-0.016314
0.00160867
0.199912
-0.00570577
-0.00952755
0.211787
-0.0222936
0.0104186
0.223304
-0.0239471
0.0124303
0.234474
-0.023774
0.0126032
0.243575
0.00647164
-0.0155717
0.252027
-0.00965866
0.00120584
0.259113
0.0566055
-0.0636916
0.262331
0.0409254
-0.044143
0.265334
0.0448125
-0.0478155
0.266433
0.117891
-0.11899
0.265851
0.0540035
-0.0534212
0.266239
0.091574
-0.0919621
0.265772
0.123208
-0.122742
0.264541
0.091406
-0.0901748
0.263793
0.0919929
-0.0912445
0.117169
-0.116101
-0.00712117
-0.208443
-0.00963663
-0.252014
-0.00181017
-0.288505
0.0381026
-0.28003
0.104887
-0.131023
0.171341
0.122853
0.226687
0.329527
0.247196
0.415033
0.22886
0.514166
0.211256
0.580469
0.203934
0.404125
0.19928
0.0464792
0.197198
-0.259558
0.197021
-0.406603
0.18838
-0.429737
0.182489
-0.387918
0.183777
-0.318319
0.175806
-0.208796
0.166096
-0.131401
0.167583
-0.0795215
0.17825
-0.0287579
0.193172
-0.0312363
0.207785
-0.0203185
0.218037
-0.0325461
0.226037
-0.0319465
0.233117
-0.0308545
0.239146
0.000442919
0.246409
-0.0169219
0.253681
0.0493339
0.257264
0.0373418
0.261398
0.0406792
0.263404
0.115885
0.263412
0.0539956
0.264599
0.090387
0.264733
0.123074
0.263919
0.0922199
0.263513
0.0923992
0.118039
0.0540722
-0.192408
0.028477
-0.226418
0.00237933
-0.262408
0.00617297
-0.283824
0.0603259
-0.185176
0.141542
0.0416366
0.22548
0.245589
0.264632
0.375881
0.261665
0.517133
0.248149
0.593984
0.231569
0.420705
0.216527
0.061521
0.206101
-0.249132
0.198088
-0.39859
0.189024
-0.420672
0.181023
-0.379918
0.184358
-0.321653
0.190041
-0.214478
0.190138
-0.131499
0.191869
-0.0812525
0.200601
-0.0374895
0.21405
-0.0446857
0.226136
-0.0324043
0.233343
-0.0397533
0.236632
-0.0352357
0.238067
-0.0322893
0.239178
-0.000667576
0.243014
-0.0207578
0.248427
0.0439202
0.251412
0.0343569
0.256081
0.0360104
0.258886
0.11308
0.259748
0.0531334
0.261995
0.0881395
0.262995
0.122075
0.26286
0.0923542
0.263018
0.0922414
0.118519
0.134911
-0.173645
0.100263
-0.19177
0.048505
-0.21065
0.00736673
-0.242686
0.0256619
-0.203471
0.10707
-0.0397713
0.213535
0.139124
0.274576
0.31484
0.281174
0.510535
0.26955
0.605608
0.250772
0.439483
0.22903
0.0832628
0.213766
-0.233868
0.200921
-0.385745
0.19018
-0.409931
0.180892
-0.37063
0.180987
-0.321748
0.193243
-0.226734
0.205621
-0.143877
0.215528
-0.0911595
0.225814
-0.0477755
0.237252
-0.0561245
0.246031
-0.0411829
0.249953
-0.0436757
0.249564
-0.0348464
0.24658
-0.0293054
0.243305
0.00260806
0.242968
-0.0204215
0.245131
0.0417577
0.24655
0.0329376
0.250726
0.0318345
0.253791
0.110015
0.255488
0.0514365
0.258786
0.0848417
0.260747
0.120114
0.261464
0.0916363
0.262353
0.0913531
0.118439
0.195944
-0.153077
0.169081
-0.164907
0.118112
-0.159681
0.0506057
-0.175179
0.0211947
-0.17406
0.0722715
-0.0908481
0.175963
0.0354319
0.261034
0.22977
0.292868
0.4787
0.295139
0.603337
0.274271
0.46035
0.24252
0.115014
0.219299
-0.210648
0.20014
-0.366585
0.18633
-0.396121
0.17729
-0.36159
0.176087
-0.320545
0.188812
-0.239459
0.206944
-0.162009
0.224904
-0.10912
0.239252
-0.0621238
0.250254
-0.0671257
0.257292
-0.0482211
0.259526
-0.0459101
0.2578
-0.0331204
0.253311
-0.0248162
0.248059
0.00786035
0.244814
-0.0171767
0.243945
0.042626
0.243515
0.0333684
0.246403
0.0289459
0.249103
0.107315
0.251366
0.0491733
0.255447
0.0807614
0.258265
0.117295
0.259877
0.0900249
0.261582
0.0896484
0.117663
0.22089
-0.125076
0.1972
-0.141217
0.169404
-0.131885
0.115129
-0.120905
0.0549681
-0.113898
0.0504329
-0.0863129
0.120173
-0.0343079
0.219142
0.130801
0.276815
0.421027
0.291747
0.588406
0.279739
0.472359
0.253292
0.141461
0.224151
-0.181507
0.199311
-0.341745
0.181964
-0.378774
0.171409
-0.351035
0.169162
-0.318298
0.180866
-0.251164
0.199158
-0.180301
0.220015
-0.129976
0.237073
-0.0791824
0.248733
-0.0787857
0.256144
-0.0556317
0.258954
-0.0487197
0.258141
-0.0323076
0.25472
-0.021395
0.249935
0.0126453
0.24591
-0.0131526
0.243487
0.045049
0.241763
0.0350931
0.243294
0.027415
0.245317
0.105292
0.247821
0.0466689
0.252333
0.0762498
0.255791
0.113838
0.258229
0.0875869
0.260765
0.0871119
0.116089
0.218938
-0.0982332
0.191409
-0.113688
0.172757
-0.113233
0.15563
-0.103778
0.115017
-0.0732853
0.070571
-0.0418666
0.08104
-0.0447769
0.166728
0.0451126
0.255863
0.331892
0.296679
0.54759
0.289801
0.479236
0.256537
0.174725
0.221064
-0.146034
0.192132
-0.312813
0.172883
-0.359525
0.162137
-0.340289
0.159398
-0.315559
0.169342
-0.261108
0.186616
-0.197574
0.207153
-0.150513
0.225056
-0.0970847
0.237402
-0.0911326
0.24604
-0.0642694
0.250466
-0.0531453
0.251649
-0.0334909
0.250525
-0.0202706
0.247523
0.0156473
0.244378
-0.0100082
0.242052
0.0473751
0.239994
0.0371517
0.240756
0.026653
0.242266
0.103782
0.244826
0.0441093
0.249528
0.0715472
0.253423
0.109942
0.256585
0.0844252
0.259938
0.0837586
0.113631
0.200924
-0.0775972
0.17869
-0.0914543
0.158383
-0.0929255
0.148344
-0.0937386
0.14139
-0.0663314
0.111335
-0.0118121
0.0808924
-0.0143341
0.11781
0.00819481
0.213802
0.235901
0.278164
0.483228
0.285211
0.472188
0.260821
0.199116
0.224903
-0.110116
0.189401
-0.277312
0.165931
-0.336055
0.153917
-0.328275
0.149403
-0.311044
0.156808
-0.268513
0.171725
-0.212492
0.190979
-0.169767
0.20879
-0.114896
0.221729
-0.104072
0.23163
-0.07417
0.237683
-0.0591987
0.240842
-0.0366498
0.242064
-0.0214928
0.241148
0.0165633
0.239641
-0.00850154
0.238559
0.0484572
0.237036
0.0386752
0.237895
0.0257942
0.239377
0.102299
0.24201
0.0414761
0.246872
0.0666859
0.251116
0.105698
0.254934
0.0806079
0.259101
0.079591
0.110208
0.430749
-0.0515306
-0.456815
0.40617
-0.0668753
0.374388
-0.061144
0.341981
-0.0613311
0.320037
-0.0443877
0.285297
0.0229283
0.220541
0.0504219
0.167092
0.0616441
0.183951
0.219041
0.258097
0.409082
0.373769
0.356517
0.467185
0.105699
0.488403
-0.131334
0.463172
-0.252081
0.423739
-0.296621
0.387543
-0.292079
0.359279
-0.282781
0.344942
-0.254176
0.344086
-0.211636
0.354488
-0.180169
0.369423
-0.12983
0.382385
-0.117035
0.39167
-0.0834546
0.396064
-0.0635929
0.396728
-0.0373136
0.394207
-0.0189718
0.390507
0.0202638
0.385614
-0.00360859
0.380491
0.0535795
0.376796
0.0423707
0.373725
0.0288652
0.372322
0.103701
0.373589
0.0402098
0.375928
0.0643465
0.378238
0.103388
0.380536
0.0783097
0.382876
0.0772517
0.108758
0.460359
-0.0308896
-0.481
0.437393
-0.0439095
0.413655
-0.0374055
0.387615
-0.0352913
0.36803
-0.0248032
0.358709
0.0322495
0.340587
0.0685438
0.306933
0.0952986
0.312945
0.213028
0.397059
0.324969
0.508348
0.245228
0.567075
0.0469721
0.556843
-0.121102
0.51023
-0.205468
0.459558
-0.245949
0.422191
-0.254711
0.39831
-0.2589
0.387285
-0.243152
0.386706
-0.211056
0.39466
-0.188123
0.40695
-0.14212
0.418111
-0.128195
0.426206
-0.0915503
0.43019
-0.067576
0.430648
-0.0377726
0.428527
-0.0168503
0.425543
0.0232477
0.421734
0.000200121
0.418205
0.0571084
0.415518
0.045058
0.413494
0.0308898
0.412298
0.104897
0.412921
0.0395864
0.414389
0.0628786
0.415662
0.102115
0.417236
0.0767356
0.419092
0.075395
0.107481
0.497975
-0.0170214
-0.511843
0.479692
-0.0256272
0.463092
-0.020805
0.443266
-0.0154654
0.423022
-0.00455987
0.419961
0.0353107
0.421715
0.0667905
0.422034
0.0949795
0.45366
0.181402
0.537949
0.24068
0.617687
0.16549
0.639183
0.0254764
0.610352
-0.0922714
0.564192
-0.159308
0.521917
-0.203675
0.487107
-0.219901
0.459205
-0.230999
0.441951
-0.225897
0.435886
-0.204991
0.439321
-0.191558
0.448292
-0.151091
0.457497
-0.1374
0.464519
-0.0985723
0.467943
-0.0710001
0.468287
-0.0381165
0.466524
-0.0150871
0.463592
0.0261801
0.46033
0.00346151
0.457619
0.0598194
0.455655
0.0470219
0.454829
0.0317162
0.454302
0.105424
0.454651
0.0392377
0.45568
0.0618494
0.456248
0.101547
0.457208
0.0757764
0.458636
0.0739668
0.106352
0.538146
-0.00672095
-0.548447
0.523694
-0.0111751
0.510813
-0.0079234
0.49783
-0.00248274
0.485454
0.00781663
0.486178
0.0345861
0.492444
0.060525
0.504025
0.0833981
0.548251
0.137176
0.623054
0.165877
0.675039
0.113505
0.676356
0.024159
0.643809
-0.0597247
0.601432
-0.11693
0.560682
-0.162925
0.526241
-0.185459
0.500865
-0.205623
0.486336
-0.211368
0.481759
-0.200414
0.484837
-0.194636
0.492373
-0.158627
0.500154
-0.145182
0.506158
-0.104576
0.50938
-0.074223
0.509901
-0.0386371
0.508337
-0.0135233
0.505664
0.0288539
0.502556
0.0065695
0.500252
0.0621228
0.498537
0.0487367
0.498456
0.0317971
0.498466
0.105414
0.49871
0.0389942
0.499614
0.0609453
0.499863
0.101298
0.500467
0.0751723
0.501647
0.0727865
0.105273
0.583837
0.000182327
-0.59074
0.574407
-0.00174528
0.565686
0.000798213
0.557243
0.00596002
0.549832
0.0152273
0.552369
0.0320497
0.560544
0.0523491
0.574746
0.0691963
0.613932
0.0979907
0.668039
0.111769
0.701078
0.0804664
0.70161
0.0236274
0.680803
-0.0389176
0.650142
-0.0862696
0.617555
-0.130338
0.588098
-0.156002
0.563708
-0.181234
0.546979
-0.194638
0.538692
-0.192128
0.537945
-0.193889
0.542387
-0.163069
0.548112
-0.150906
0.552808
-0.109272
0.555231
-0.0766466
0.555407
-0.0388132
0.554086
-0.0122018
0.551591
0.0313489
0.548798
0.0093619
0.546747
0.0641745
0.545114
0.0503698
0.545309
0.0316022
0.545538
0.105185
0.545705
0.0388268
0.546604
0.060046
0.546808
0.101094
0.5473
0.074681
0.548423
0.0716633
0.104131
0.635269
0.00449488
-0.639582
0.629596
0.00392846
0.624079
0.00631539
0.619625
0.0104136
0.616638
0.0182145
0.619876
0.0288115
0.628724
0.0435013
0.642634
0.0552857
0.670701
0.069924
0.706621
0.0758487
0.730404
0.0566836
0.732736
0.0212954
0.718373
-0.024555
0.693539
-0.0614357
0.666059
-0.102858
0.640773
-0.130716
0.619805
-0.160266
0.605068
-0.179901
0.596988
-0.184048
0.594861
-0.191763
0.596924
-0.165132
0.60028
-0.154263
0.603307
-0.112298
0.604831
-0.0781709
0.604863
-0.0388449
0.603734
-0.0110729
0.601632
0.0334509
0.599227
0.0117676
0.597522
0.0658787
0.595953
0.0519394
0.596243
0.0313118
0.596525
0.104903
0.596593
0.0387588
0.597515
0.0591238
0.597789
0.100821
0.598269
0.0742009
0.599439
0.0704931
0.102847
0.692718
0.00672716
-0.69495
0.68974
0.00690659
0.686872
0.00918253
0.685194
0.0120924
0.685048
0.0183604
0.688691
0.0251684
0.696898
0.0352942
0.709108
0.0430753
0.728245
0.0507875
0.751224
0.0528699
0.767421
0.0404865
0.770445
0.0182715
0.761746
-0.0158563
0.745164
-0.0448536
0.724995
-0.0826887
0.70414
-0.109861
0.684882
-0.141008
0.669908
-0.164927
0.660393
-0.174533
0.656222
-0.187592
0.65624
-0.165149
0.657911
-0.155934
0.659592
-0.11398
0.660162
-0.0787406
0.65955
-0.0382326
0.658306
-0.00982878
0.656242
0.0355144
0.654138
0.0138712
0.652758
0.0672596
0.651251
0.0534458
0.651605
0.0309578
0.651883
0.104626
0.651843
0.0387982
0.652883
0.0580843
0.653325
0.100379
0.65386
0.0736653
0.655161
0.0691924
0.101351
0.755459
0.00736506
-0.756097
0.7546
0.00776566
0.753901
0.00988161
0.754054
0.0119394
0.755528
0.0168857
0.75939
0.0213074
0.766341
0.028343
0.7761
0.0333165
0.789227
0.0376599
0.804017
0.0380797
0.815018
0.0294857
0.817845
0.0154445
0.81242
-0.0104317
0.800204
-0.0326367
0.783777
-0.0662624
0.766527
-0.0926114
0.750521
-0.125001
0.737677
-0.152083
0.728677
-0.165532
0.723652
-0.182568
0.721684
-0.163181
0.720899
-0.155149
0.720577
-0.113657
0.71983
-0.0779935
0.718667
-0.0370699
0.71747
-0.00863169
0.715627
0.0373569
0.713918
0.0155808
0.712957
0.0682202
0.711539
0.0548644
0.712061
0.0304357
0.71239
0.104296
0.712252
0.0389369
0.713492
0.0568439
0.714109
0.0997625
0.714674
0.0730999
0.716131
0.067735
0.0996148
0.824163
0.00680794
-0.823606
0.82469
0.00723889
0.825368
0.0092039
0.826644
0.0106635
0.828932
0.0145976
0.832711
0.0175285
0.838379
0.0226745
0.845824
0.0258717
0.854784
0.0287001
0.86413
0.0287337
0.871208
0.0224077
0.873228
0.0134242
0.869555
-0.00675831
0.860959
-0.024041
0.849205
-0.0545085
0.836049
-0.0794556
0.822855
-0.111807
0.811347
-0.140575
0.80215
-0.156336
0.795778
-0.176195
0.792033
-0.159436
0.789626
-0.152742
0.787916
-0.111948
0.786021
-0.0760979
0.784022
-0.0350708
0.782429
-0.00703942
0.780551
0.0392358
0.77905
0.0170809
0.778471
0.0687994
0.777105
0.0562304
0.777833
0.0297079
0.778236
0.103893
0.778025
0.0391471
0.779582
0.0552874
0.780445
0.0988993
0.781096
0.0724489
0.782772
0.0660595
0.0975397
0.898953
0.00558517
-0.89773
0.900264
0.00592798
0.901771
0.00769691
0.903675
0.00875908
0.90624
0.0120323
0.909699
0.0140697
0.914209
0.018165
0.919663
0.0204178
0.925753
0.0226092
0.931717
0.0227703
0.936141
0.0179833
0.937379
0.0121868
0.934943
-0.00432276
0.928952
-0.0180499
0.920257
-0.0458135
0.909947
-0.069146
0.899086
-0.100945
0.889095
-0.130584
0.880537
-0.147778
0.873953
-0.169611
0.868953
-0.154436
0.864598
-0.148387
0.860974
-0.108324
0.857635
-0.0727583
0.854799
-0.0322348
0.852996
-0.00523677
0.851107
0.0411254
0.84989
0.018297
0.849738
0.0689516
0.848485
0.0574841
0.849563
0.0286296
0.850224
0.103232
0.849974
0.0393972
0.851932
0.0533296
0.853056
0.0977749
0.853789
0.0717166
0.855718
0.0641302
0.0951837
0.980147
0.00396899
-0.978531
0.98188
0.00419482
0.983771
0.00580615
0.985924
0.00660537
0.988447
0.00950987
0.991467
0.0110494
0.995007
0.0146251
0.998968
0.0164566
1.0031
0.0184757
1.00687
0.0190058
1.00956
0.0152926
1.01022
0.0115266
1.00845
-0.00255973
1.00415
-0.0137413
0.997736
-0.0394036
0.989965
-0.0613754
0.981446
-0.0924259
0.97321
-0.122349
0.965291
-0.139859
0.958083
-0.162402
0.95163
-0.147984
0.945644
-0.142401
0.940588
-0.103268
0.935994
-0.0681635
0.932349
-0.0285902
0.930124
-0.00301217
0.928193
0.0430567
0.927167
0.0193229
0.927419
0.0686999
0.926317
0.0585864
0.927731
0.0272152
0.9286
0.102363
0.928417
0.0395804
0.930827
0.0509189
0.932297
0.0963058
0.93317
0.0708436
0.93541
0.0618902
0.0922868
1.06832
0.00221062
-1.06656
1.07019
0.00233011
1.07216
0.00382847
1.0743
0.00446358
1.07663
0.00718728
1.07918
0.00849461
1.08194
0.0118689
1.08481
0.0135825
1.08763
0.0156628
1.09002
0.0166065
1.09164
0.013679
1.09188
0.0112824
1.09055
-0.00123067
1.08746
-0.0106473
1.08285
-0.0347992
1.0771
-0.0556236
1.0703
-0.0856268
1.06319
-0.115238
1.05569
-0.132361
1.04835
-0.155058
1.04113
-0.140768
1.03381
-0.135078
1.02723
-0.0966841
1.02133
-0.0622654
1.01671
-0.0239696
1.014
-0.000298409
1.01203
0.0450265
1.01119
0.0201614
1.01198
0.0679057
1.01104
0.0595296
1.01292
0.0253381
1.01437
0.100912
1.01416
0.0397899
1.0171
0.0479719
1.01898
0.0944244
1.02005
0.0697736
1.02262
0.0593243
0.0891235
1.1641
0.000477774
-1.16237
1.16592
0.000514722
1.16781
0.00193808
1.16978
0.00249188
1.17183
0.0051361
1.17395
0.00637377
1.1761
0.00972072
1.17819
0.0114889
1.18013
0.0137266
1.18166
0.0150761
1.18263
0.0127129
1.18266
0.0112491
1.18164
-0.000214903
1.17945
-0.0084535
1.17614
-0.0314911
1.17185
-0.0513316
1.16648
-0.0802562
1.1605
-0.109259
1.15347
-0.125327
1.14561
-0.147199
1.13706
-0.13222
1.12798
-0.126003
1.11999
-0.0886857
1.11297
-0.0552454
1.10791
-0.018912
1.10516
0.00245328
1.10319
0.0469886
1.10267
0.020684
1.10391
0.0666629
1.10335
0.0600984
1.10574
0.0229454
1.10756
0.099094
1.10766
0.039682
1.11122
0.0444184
1.11359
0.0920554
1.1149
0.0684604
1.11793
0.0562976
0.0850901
1.26829
-0.00112151
-1.26669
1.26995
-0.00114536
1.27165
0.00023569
1.27339
0.000758519
1.27512
0.00339804
1.27686
0.00464002
1.27853
0.00804795
1.28009
0.00992983
1.28146
0.0123521
1.28248
0.0140571
1.28309
0.0121076
1.28302
0.0113201
1.28225
0.000550556
1.28061
-0.0068123
1.27808
-0.0289657
1.27478
-0.0480314
1.27035
-0.0758175
1.265
-0.103917
1.25813
-0.118449
1.24994
-0.139012
1.24067
-0.122947
1.2306
-0.115933
1.22137
-0.0794553
1.21329
-0.0471687
1.20725
-0.0128719
1.20417
0.00553605
1.20252
0.0486382
1.20224
0.0209573
1.20437
0.0645313
1.2041
0.0603742
1.20699
0.0200489
1.20989
0.0962001
1.20996
0.0396116
1.21411
0.0402651
1.21714
0.089029
1.21876
0.0668354
1.22212
0.0529376
0.0808571
1.38174
-0.00248386
-1.38037
1.38312
-0.00253366
1.38454
-0.00118482
1.38597
-0.000667999
1.38739
0.00198235
1.38876
0.00326684
1.39007
0.00673435
1.39127
0.00873327
1.39233
0.011296
1.39312
0.0132661
1.39364
0.0115837
1.39371
0.0112493
1.39327
0.000997062
1.39221
-0.00575841
1.39038
-0.0271376
1.38771
-0.0453548
1.3836
-0.0717067
1.37802
-0.0983361
1.37026
-0.110691
1.3605
-0.129259
1.34941
-0.111852
1.33747
-0.103997
1.3272
-0.0691829
1.31863
-0.0385995
1.31315
-0.00738922
1.31059
0.00809957
1.30948
0.0497453
1.30995
0.0204866
1.31283
0.0616484
1.31335
0.0598545
1.31699
0.0164085
1.32059
0.0926025
1.32127
0.0389334
1.32622
0.0353145
1.33003
0.0852136
1.33208
0.0647856
1.33609
0.0489328
0.0752924
1.50545
-0.00358034
-1.50436
1.50655
-0.00363243
1.50766
-0.0022917
1.50875
-0.00175508
1.50983
0.000896884
1.51088
0.00222119
1.51189
0.00572352
1.51282
0.00779978
1.51367
0.0104493
1.51435
0.0125877
1.51482
0.011107
1.51497
0.0111034
1.51466
0.00130803
1.51385
-0.00495503
1.51226
-0.0255404
1.50973
-0.0428272
1.5056
-0.0675744
1.49964
-0.0923782
1.4911
-0.102151
1.48017
-0.118332
1.46777
-0.0994472
1.45473
-0.0909619
1.44361
-0.0580593
1.43467
-0.0296649
1.42882
-0.00153455
1.42673
0.0101886
1.42686
0.0496135
1.42797
0.0193755
1.43224
0.0573861
1.43336
0.0587318
1.43737
0.0123968
1.44278
0.0871955
1.44356
0.0381497
1.44906
0.0298129
1.45381
0.0804624
1.45625
0.062351
1.4605
0.0446824
0.0696139
1.64011
-0.00405041
-1.63964
1.64057
-0.00409126
1.64107
-0.00278927
1.64158
-0.00226874
1.6422
0.000277786
1.64287
0.00154939
1.6437
0.00489899
1.64462
0.00687439
1.64569
0.00938117
1.64683
0.0114501
1.64797
0.00997
1.64894
0.0101251
1.64938
0.000874154
1.64913
-0.0047074
1.6474
-0.0238095
1.64387
-0.0393007
1.63745
-0.0611518
1.62796
-0.0828858
1.61546
-0.0896565
1.60048
-0.103347
1.58535
-0.0843191
1.57058
-0.0761951
1.55962
-0.0470944
1.55197
-0.0220178
1.54871
0.00172072
1.54878
0.0101246
1.55107
0.0473238
1.55381
0.0166348
1.55986
0.0513311
1.56273
0.0558673
1.56734
0.00778305
1.57451
0.0800297
1.57626
0.036401
1.58226
0.0238051
1.58865
0.0740756
1.59187
0.0591337
1.59661
0.0399398
0.062159
1.78692
-0.00382281
-1.78715
1.78666
-0.0038321
1.78645
-0.00257726
1.78629
-0.00210883
1.78635
0.000217708
1.78658
0.0013121
1.78724
0.0042401
1.78822
0.00589293
1.78968
0.00792819
1.79152
0.00960293
1.79352
0.00797266
1.79565
0.00800001
1.79687
-0.000345199
1.79737
-0.0052091
1.79568
-0.0221264
1.79091
-0.0345305
1.78199
-0.0522247
1.76865
-0.0695495
1.75186
-0.0728611
1.73329
-0.0847768
1.71631
-0.0673459
1.70108
-0.0609615
1.69138
-0.0373931
1.68584
-0.0164852
1.6843
0.00326465
1.68592
0.00850705
1.69098
0.0422587
1.69493
0.0126895
1.70253
0.0437345
1.70606
0.0523338
1.71029
0.00354764
1.7206
0.0697212
1.72288
0.034125
1.7292
0.0174835
1.73681
0.0664632
1.74031
0.0556327
1.74511
0.035147
0.0545468
1.94295
-0.000791988
-1.94598
1.93993
-0.000817425
1.93734
1.27522e-05
1.93513
0.000103672
1.93395
0.0013962
1.93358
0.00168854
1.93475
0.00306604
1.93712
0.0035231
1.94105
0.00399824
1.94641
0.00424619
1.95217
0.0022123
1.95888
0.00128892
1.96344
-0.0049079
1.96651
-0.00827562
1.96355
-0.0191654
1.95361
-0.0245982
1.93523
-0.0338449
1.90939
-0.0437097
1.88144
-0.044903
1.85303
-0.0563664
1.83251
-0.0468293
1.8167
-0.0451501
1.81016
-0.0308592
1.81167
-0.0179925
1.81627
-0.00133025
1.82229
0.00248609
1.83506
0.0294832
1.8413
0.00645454
1.85122
0.0338102
1.86004
0.0435185
1.86078
0.00280515
1.87687
0.0536347
1.88408
0.0269121
1.88551
0.0160489
1.89577
0.0562064
1.9024
0.0490068
1.90583
0.0317183
0.0457594
2.11763
0.00184432
-2.12026
2.11499
0.00182243
2.11289
0.00210709
2.11105
0.00194831
2.11023
0.00221422
2.11
0.00191652
2.11113
0.00193884
2.11318
0.00147016
2.11634
0.000842271
2.12058
1.29088e-06
2.12457
-0.00177701
2.12917
-0.00331052
2.13115
-0.00688171
2.13195
-0.00908192
2.12689
-0.0141073
2.11806
-0.01576
2.10347
-0.0192554
2.0835
-0.0237475
2.06358
-0.0249818
2.03998
-0.0327672
2.02323
-0.0300748
2.00931
-0.0312343
2.00187
-0.0234134
2.00234
-0.0184634
2.00644
-0.00543591
2.01168
-0.00274716
2.02697
0.0141878
2.02951
0.0039157
2.04189
0.0214317
2.05761
0.0278001
2.0529
0.00751607
2.0716
0.0349364
2.07964
0.0188663
2.07633
0.01936
2.0921
0.0404364
2.10459
0.0365205
2.10748
0.028826
0.0378219
2.31561
0.00133804
-2.31511
2.31608
0.00135052
2.3167
0.00148734
2.31722
0.00143171
2.31789
0.0015476
2.31842
0.00138598
2.319
0.00135638
2.31944
0.00102986
2.31966
0.000627505
2.31963
2.95001e-05
2.31894
-0.00108924
2.31777
-0.00213807
2.31516
-0.00427523
2.31194
-0.00585845
2.30683
-0.00900145
2.30231
-0.0112344
2.29736
-0.0143128
2.291
-0.017386
2.28432
-0.0182982
2.27277
-0.0212148
2.26141
-0.0187231
2.24926
-0.0190814
2.23938
-0.0135362
2.23259
-0.0116743
2.23062
-0.00346256
2.23054
-0.00266447
2.2372
0.00752317
2.23729
0.00383243
2.24608
0.012635
2.25745
0.0164296
2.2574
0.00757104
2.26985
0.0224897
2.27511
0.0136045
2.2783
0.0161668
2.293
0.0257393
2.30565
0.023866
2.31326
0.0212225
0.0266829
2.5262
0.000953741
-2.52581
2.52658
0.000966671
2.52705
0.00101322
2.52752
0.000971368
2.52809
0.000971602
2.52863
0.000847438
2.52925
0.000739676
2.52978
0.000500712
2.53021
0.000193718
2.53043
-0.000191258
2.53013
-0.000793295
2.52936
-0.00136171
2.52742
-0.00233849
2.52465
-0.00308308
2.51996
-0.00431361
2.51388
-0.00516084
2.50581
-0.00624202
2.4958
-0.00736936
2.48529
-0.00779005
2.47318
-0.00910343
2.46282
-0.00836949
2.45273
-0.00898681
2.44592
-0.00672312
2.44077
-0.00652423
2.43996
-0.00265536
2.43982
-0.00252774
2.4452
0.00214814
2.4477
0.00132729
2.45532
0.00501661
2.46459
0.00715785
2.46789
0.00427367
2.48009
0.0102906
2.48655
0.00714589
2.49373
0.00898483
2.507
0.0124733
2.51854
0.0123214
2.52806
0.0117056
0.0143503
2.75796
-2.75701
2.75893
2.75994
2.76092
2.76189
2.76273
2.76347
2.76397
2.76417
2.76398
2.76318
2.76182
2.75948
2.7564
2.75209
2.74693
2.74068
2.73331
2.72552
2.71642
2.70805
2.69907
2.69234
2.68582
2.68316
2.68063
2.68278
2.68411
2.68913
2.69628
2.70056
2.71085
2.71799
2.72698
2.73945
2.75177
2.76348
0.425572
0.035471
-0.419609
0.432057
0.0622321
0.436899
0.0907275
0.444013
0.11489
0.447108
0.143938
0.454042
0.163266
0.456905
0.192199
0.205264
0.454392
0.0311324
-0.450053
0.459912
0.056712
0.463673
0.0869662
0.468784
0.10978
0.471708
0.141015
0.474719
0.160256
0.478761
0.188157
0.203024
0.488484
0.0277629
-0.485114
0.492209
0.0529867
0.49544
0.083735
0.498119
0.107101
0.502082
0.137051
0.504922
0.157416
0.509214
0.183865
0.200396
0.525915
0.0247839
-0.522936
0.52834
0.0505622
0.531843
0.0802312
0.534629
0.104315
0.539052
0.132628
0.542126
0.154342
0.54598
0.18001
0.197929
0.568377
0.0221831
-0.565777
0.570521
0.0484183
0.574163
0.0765894
0.577084
0.101394
0.580966
0.128745
0.583772
0.151537
0.587675
0.176107
0.194864
0.615863
0.0198846
-0.613564
0.617986
0.0462945
0.621174
0.0734016
0.623788
0.0987809
0.627353
0.12518
0.630754
0.148136
0.635601
0.17126
0.190883
0.668439
0.0180155
-0.66657
0.670408
0.0443261
0.673305
0.0705038
0.676331
0.0957557
0.680702
0.120809
0.685233
0.143606
0.690371
0.166122
0.186304
0.726713
0.0163718
-0.725069
0.728908
0.042131
0.732136
0.0672753
0.735864
0.092028
0.740531
0.116141
0.745184
0.138953
0.750544
0.160762
0.180751
0.79128
0.0147573
-0.789665
0.793681
0.0397294
0.796977
0.0639803
0.800852
0.0881522
0.805588
0.111406
0.810877
0.133664
0.817077
0.154562
0.174222
0.862186
0.0132066
-0.860636
0.86467
0.037246
0.868077
0.0605725
0.872355
0.0838743
0.877626
0.106135
0.883646
0.127643
0.890435
0.147772
0.166927
0.939977
0.0116761
-0.938446
0.942603
0.0346192
0.946247
0.0569294
0.950908
0.0792127
0.956547
0.100497
0.963053
0.121137
0.970416
0.140409
0.158813
1.02513
0.0101569
-1.02361
1.02785
0.0318931
1.03168
0.0531022
1.03664
0.0742493
1.04266
0.0944788
1.04971
0.114093
1.05769
0.132424
0.149942
1.11816
0.00866463
-1.11667
1.12096
0.0290909
1.12498
0.0490878
1.13025
0.0689822
1.13666
0.0880626
1.14422
0.106538
1.15279
0.123851
0.140362
1.21974
0.00720885
-1.21828