/*--------------------------------*- C++ -*----------------------------------*\
| =========                 |                                                 |
| \\      /  F ield         | OpenFOAM: The Open Source CFD Toolbox           |
|  \\    /   O peration     | Version:  2312                                  |
|   \\  /    A nd           | Website:  www.openfoam.com                      |
|    \\/     M anipulation  |                                                 |
\*---------------------------------------------------------------------------*/
FoamFile
{
    version     2.0;
    format      ascii;
    arch        "LSB;label=32;scalar=64";
    class       volScalarField;
    location    "69.5";
    object      p;
}
// * * * * * * * * * * * * * * * * * * * * * * * * * * * * * * * * * * * * * //

dimensions      [0 2 -2 0 0 0 0];

internalField   nonuniform List<scalar> 
2300
(
-0.425674
-0.415736
-0.404193
-0.399527
-0.401335
-0.405639
-0.402888
-0.38873
-0.354376
-0.307648
-0.443321
-0.429988
-0.417783
-0.403353
-0.389089
-0.373802
-0.354405
-0.327603
-0.294609
-0.263115
-0.477469
-0.452783
-0.431948
-0.403393
-0.372864
-0.342962
-0.313618
-0.284386
-0.254704
-0.222938
-0.513029
-0.48142
-0.438931
-0.393143
-0.350931
-0.313394
-0.279784
-0.248851
-0.219807
-0.192038
-0.529879
-0.4968
-0.432369
-0.372171
-0.321242
-0.278668
-0.242567
-0.211458
-0.184673
-0.159436
-0.381129
-0.384878
-0.393893
-0.410342
-0.432096
-0.456692
-0.479853
-0.494623
-0.498354
-0.476382
-0.410692
-0.412093
-0.423471
-0.445164
-0.475892
-0.512562
-0.553911
-0.583811
-0.605546
-0.580973
-0.426819
-0.423698
-0.43111
-0.449215
-0.478022
-0.513408
-0.556338
-0.588685
-0.608082
-0.586403
-0.428887
-0.420512
-0.418576
-0.42578
-0.445593
-0.474879
-0.51043
-0.535564
-0.544269
-0.512013
-0.424121
-0.413241
-0.40355
-0.403793
-0.417053
-0.43856
-0.456459
-0.461957
-0.449513
-0.408508
-0.438382
-0.37029
-0.304437
-0.26174
-0.273247
-0.31963
-0.255257
-0.173231
-0.143285
-0.114881
-0.103282
-0.134362
-0.171839
-0.138944
-0.0781992
-0.0899825
-0.133537
-0.168986
-0.156438
-0.153072
-0.0677266
-0.00527823
-0.0170966
-0.0099442
0.000726406
-0.528923
-0.4462
-0.334931
-0.235069
-0.201178
-0.191548
-0.124015
-0.109025
-0.136391
-0.120553
-0.111235
-0.145265
-0.170805
-0.143739
-0.0897956
-0.11451
-0.180313
-0.20388
-0.145674
-0.127549
-0.0716396
-0.012871
-0.0162259
-0.00604547
0.000874805
-0.528484
-0.451069
-0.329347
-0.198197
-0.126141
-0.0983027
-0.0485585
-0.059148
-0.128821
-0.133522
-0.131712
-0.158108
-0.164437
-0.139311
-0.0935457
-0.12651
-0.214419
-0.221097
-0.129694
-0.0974017
-0.0729125
-0.019133
-0.0156595
-0.00252242
0.00107881
-0.445649
-0.399924
-0.318454
-0.213473
-0.110926
-0.0424073
0.00504326
0.0005113
-0.0775519
-0.132462
-0.155794
-0.184368
-0.170783
-0.135876
-0.0916784
-0.121793
-0.228697
-0.217219
-0.115347
-0.116582
-0.0710068
-0.0236973
-0.0154561
4.25428e-05
0.00126611
-0.361702
-0.335767
-0.282319
-0.215553
-0.145266
-0.0845143
-0.0174669
0.0278189
0.0241388
-0.098075
-0.148075
-0.172358
-0.158243
-0.127256
-0.0819877
-0.0994766
-0.225702
-0.196958
-0.104855
-0.0855109
-0.0625496
-0.0254007
-0.0152665
0.00176725
0.00147084
-0.299015
-0.291729
-0.242237
-0.182744
-0.120041
-0.0622687
-0.00611917
0.0674995
0.13937
-0.0086066
-0.1352
-0.16972
-0.13611
-0.105391
-0.0674426
-0.0864779
-0.199965
-0.165802
-0.0963076
-0.0722658
-0.0536414
-0.0250993
-0.0150674
0.00247346
0.00164399
-0.219839
-0.220602
-0.184506
-0.135569
-0.0858386
-0.0388236
0.0127555
0.100106
0.125329
0.0214318
-0.110724
-0.127737
-0.103522
-0.0802472
-0.0487257
-0.0655675
-0.168941
-0.146163
-0.0780695
-0.0548677
-0.0439833
-0.0242094
-0.0147925
0.00305737
0.00174079
-0.171171
-0.176952
-0.151397
-0.114331
-0.0734471
-0.0310984
0.00657201
0.0512464
0.102239
0.0372411
-0.0601208
-0.0830009
-0.0711211
-0.0565696
-0.0301778
-0.0330765
-0.121025
-0.108034
-0.047659
-0.0386375
-0.0329451
-0.0212756
-0.0133812
0.00324643
0.00172282
-0.125504
-0.128637
-0.112057
-0.083372
-0.0513418
-0.0188549
0.01348
0.0504683
0.0797811
0.0482639
-0.0175594
-0.0445414
-0.0406859
-0.0304737
-0.0113638
-0.00654851
-0.0570327
-0.0381618
-0.0129104
-0.0217569
-0.0178093
-0.0168664
-0.0112926
0.00326587
0.00167081
-0.0852132
-0.0901599
-0.0822597
-0.0635124
-0.0408461
-0.0161649
0.00691514
0.0315797
0.0533395
0.0412162
0.00444605
-0.0163641
-0.0202915
-0.0121904
0.00425037
0.0164372
0.0109604
0.0286074
0.0164525
-0.00611214
0.000551462
-0.00871677
-0.0076495
0.00288965
0.00154009
-0.0555377
-0.060951
-0.0565389
-0.0438632
-0.0280249
-0.0106716
0.00635537
0.0219261
0.0347713
0.0319639
0.0137485
-0.000138553
-0.00297613
0.00598925
0.0182385
0.027037
0.0380541
0.0498237
0.0302131
0.00858392
0.019922
0.00649346
-0.00283993
0.000942099
0.00102133
-0.0312558
-0.0358198
-0.0344093
-0.0273114
-0.0174132
-0.00620838
0.00497369
0.0147987
0.0232849
0.0242561
0.0171359
0.0112047
0.0082458
0.0135369
0.0241814
0.0322706
0.0440194
0.051258
0.0359351
0.0194322
0.0309726
0.0166618
0.0008403
-0.000689877
0.000786043
-0.012145
-0.0164535
-0.0170205
-0.0135177
-0.00767814
-0.000820461
0.0061515
0.0122119
0.0173818
0.0193603
0.017686
0.0153531
0.0154281
0.0204779
0.0289705
0.034239
0.0410584
0.0469064
0.0368098
0.0258116
0.0313074
0.0184498
0.00276698
-0.000537196
0.000790097
0.00470813
0.000830421
-0.000653141
0.000598433
0.00362402
0.00743253
0.0114367
0.0150359
0.0183293
0.0201525
0.0200607
0.0204483
0.021085
0.0241654
0.0298401
0.0336811
0.0376412
0.041849
0.0355607
0.028215
0.0295862
0.020592
0.00682812
0.00220025
0.00153696
0.0158878
0.0122861
0.0102331
0.00999449
0.0110887
0.0128451
0.0148448
0.0167497
0.0184757
0.0197855
0.0206641
0.0217405
0.0229351
0.0253647
0.0292335
0.0321446
0.0338469
0.0358457
0.0324316
0.0278893
0.0264645
0.0196877
0.00861955
0.00323011
0.00142005
0.0291709
0.0262407
0.0240268
0.0228712
0.0226688
0.0230361
0.0236688
0.0243342
0.0249841
0.0255216
0.0258368
0.026283
0.0269294
0.0280555
0.029922
0.0317523
0.0326129
0.0328817
0.0303576
0.0269104
0.0249932
0.0194946
0.0109953
0.00543515
0.00212858
0.0342951
0.0313888
0.0291299
0.0276938
0.0269255
0.0265399
0.0263225
0.0261701
0.0260518
0.0259922
0.0259455
0.0261475
0.0265172
0.0273154
0.028201
0.0291258
0.0292646
0.0288723
0.0273691
0.024738
0.0224849
0.0176428
0.0108498
0.00573375
0.00195061
0.0454862
0.0432476
0.0410581
0.0391744
0.0376705
0.0364676
0.0354622
0.0345607
0.0337066
0.0329262
0.0321296
0.0314961
0.0308591
0.030532
0.0301599
0.0299568
0.0293505
0.028314
0.0267124
0.0240611
0.0217466
0.0176732
0.0120383
0.00712848
0.00250853
0.0466433
0.0445358
0.04253
0.0407513
0.0391624
0.0377579
0.0364122
0.0351758
0.0339488
0.0328445
0.0317765
0.03085
0.0300377
0.0292984
0.0287434
0.0279482
0.0272678
0.0259373
0.024437
0.0222229
0.0195588
0.0161936
0.0112531
0.00667881
0.00235698
0.0525955
0.0507541
0.04882
0.0468789
0.0450027
0.0432168
0.0414989
0.0398934
0.0382988
0.0368564
0.0353628
0.0340815
0.0327463
0.031589
0.0304597
0.0291789
0.0281024
0.0263099
0.0247748
0.0222553
0.0195526
0.016505
0.0117153
0.0072703
0.00265356
-0.135225
-0.16323
-0.187418
-0.224629
-0.253827
-0.111465
-0.129457
-0.147394
-0.168636
-0.188358
-0.0860825
-0.0968394
-0.109369
-0.121896
-0.139461
-0.0636978
-0.0705123
-0.07967
-0.0908565
-0.107418
-0.0438547
-0.0489276
-0.0565125
-0.0646081
-0.0733106
-0.0267473
-0.0299369
-0.0342432
-0.0385656
-0.0449251
-0.0107535
-0.0123694
-0.0147832
-0.0182959
-0.0238155
0.00336282
0.00238676
0.000343323
-0.00273342
-0.00669603
0.0160677
0.0151397
0.0137029
0.0117425
0.00891771
0.0262885
0.0256883
0.0244313
0.0223937
0.0196207
0.0370046
0.0360497
0.0348584
0.0334453
0.0316916
0.0437469
0.0428673
0.0415737
0.0396929
0.0372279
0.052868
0.0515932
0.0502561
0.0488577
0.0473359
0.0561306
0.054445
0.0526964
0.050805
0.0487662
0.06149
0.0595684
0.0577666
0.0560454
0.054328
0.0376816
0.0376912
0.0352361
0.0290714
0.0171404
-0.0021687
-0.0330282
-0.0817651
-0.153564
-0.284997
-0.00209212
-0.00919766
-0.0212438
-0.037235
-0.0590771
-0.0896357
-0.133403
-0.199102
-0.286281
-0.424775
-0.0431069
-0.0571067
-0.0756275
-0.0981317
-0.127544
-0.166843
-0.219205
-0.294293
-0.390414
-0.511343
-0.0830974
-0.103529
-0.125828
-0.152668
-0.18653
-0.230429
-0.287942
-0.364581
-0.45693
-0.545509
-0.124216
-0.145921
-0.170903
-0.200451
-0.236586
-0.281398
-0.337996
-0.409103
-0.489418
-0.542241
0.206091
0.228014
0.253768
0.283945
0.318418
0.356815
0.397758
0.439677
0.475194
0.50153
0.191385
0.209399
0.231387
0.257517
0.28676
0.318367
0.350904
0.382435
0.404079
0.413369
0.165942
0.177681
0.194187
0.214468
0.235937
0.257052
0.276015
0.290668
0.289873
0.271157
0.132277
0.137272
0.147106
0.159247
0.170631
0.179064
0.181687
0.175679
0.148851
0.0901754
0.0877634
0.0886585
0.0938278
0.0970255
0.0963837
0.0905876
0.0759524
0.0479051
-0.00401038
-0.104814
0.0586918
0.0672951
0.0603766
0.0680187
0.0654533
0.0734905
0.0746246
0.0834595
0.0901864
0.101098
0.113042
0.128192
0.144562
0.163941
0.184749
0.062042
0.0710333
0.0632339
0.0710449
0.0678597
0.075551
0.0763611
0.084607
0.0906133
0.100654
0.111383
0.125398
0.139554
0.156955
0.17426
0.0654751
0.0745045
0.0661428
0.0737449
0.0702653
0.0773011
0.0779146
0.0856527
0.090929
0.100663
0.109615
0.12224
0.13221
0.146064
0.156514
0.0689571
0.077726
0.0690988
0.0761198
0.0726497
0.0786707
0.079336
0.0858682
0.0903676
0.0987449
0.105531
0.115106
0.121324
0.129331
0.131581
0.0724895
0.080731
0.072038
0.0781536
0.0747891
0.0797541
0.0806946
0.0864707
0.090487
0.0980542
0.101463
0.108232
0.107008
0.109341
0.0979185
0.0758689
0.0835656
0.0748474
0.0799559
0.0767685
0.0804786
0.0814651
0.0858794
0.0882323
0.0932312
0.0944126
0.0956689
0.0910589
0.0821824
0.0636634
0.0793257
0.0864103
0.0778232
0.0816872
0.0788822
0.0809348
0.0820348
0.0843887
0.0853694
0.0874379
0.0865864
0.0828156
0.0763109
0.0635325
0.0481618
0.0833454
0.0895896
0.0813123
0.0835366
0.0812794
0.0813186
0.0823022
0.0825653
0.0820786
0.0814781
0.0783398
0.0717728
0.0636271
0.0511497
0.0364287
0.0880654
0.0931164
0.0854161
0.0856013
0.0838269
0.0820473
0.0823047
0.0807641
0.0787189
0.0757412
0.0707937
0.062909
0.0536545
0.0417974
0.0279907
0.0936332
0.0970364
0.0903139
0.088143
0.0864574
0.0832782
0.0821514
0.0791271
0.0756262
0.0706492
0.0644439
0.0560903
0.0464541
0.0355058
0.0232017
0.100293
0.101549
0.0959587
0.0914689
0.0892282
0.0849919
0.0821298
0.0777871
0.0730384
0.0667182
0.0596962
0.0514334
0.0422784
0.0324211
0.0217726
0.108402
0.107027
0.102199
0.0957256
0.0923227
0.0871876
0.0826155
0.0770176
0.0713566
0.0645097
0.0571743
0.0493427
0.0412142
0.0326876
0.0238237
0.118242
0.113953
0.108995
0.10109
0.0960379
0.0899691
0.0838731
0.0772645
0.0709442
0.063942
0.056673
0.0493766
0.0422869
0.0350844
0.0276869
0.130186
0.122694
0.116677
0.107816
0.100902
0.0939164
0.086817
0.079611
0.0728345
0.0659902
0.0591385
0.0525218
0.0464287
0.0405746
0.0347532
0.144942
0.133873
0.125336
0.115114
0.106173
0.0978148
0.0898481
0.082208
0.0751404
0.0684131
0.0619891
0.0559285
0.0504563
0.0454021
0.0405406
0.163498
0.149486
0.13789
0.126581
0.116071
0.106338
0.0973141
0.0891231
0.0817905
0.0751735
0.069142
0.0636334
0.0587265
0.0543428
0.0502749
0.186909
0.164586
0.14775
0.13374
0.121851
0.11115
0.101469
0.0928652
0.0853056
0.0787123
0.0729333
0.0678431
0.0633778
0.0594581
0.0559448
0.229932
0.195826
0.171878
0.153926
0.138981
0.125986
0.114667
0.104886
0.0964918
0.0893197
0.0831774
0.0779295
0.0734455
0.069609
0.0662699
0.261253
0.208522
0.179808
0.159854
0.143441
0.129476
0.117546
0.10748
0.0990448
0.0919395
0.0859209
0.0808557
0.0766069
0.0730817
0.0701419
0.415801
0.258967
0.21796
0.187806
0.163799
0.144595
0.129269
0.117038
0.107252
0.0993839
0.0929275
0.0876207
0.0832587
0.0797006
0.0767926
0.0357544
-0.00203231
-0.0400596
-0.0726217
-0.107527
0.0269196
-0.00773737
-0.0433601
-0.0682046
-0.0916295
0.0187206
-0.00856945
-0.0364644
-0.0562356
-0.0724497
0.0123451
-0.00972827
-0.0298363
-0.0453581
-0.0551848
0.00953385
-0.00753176
-0.0208038
-0.0316584
-0.0380543
0.00996724
-0.00300867
-0.0115971
-0.0186637
-0.0230606
0.0140967
0.00443908
-0.00115741
-0.00546224
-0.0084563
0.0194671
0.0121588
0.0087111
0.00642729
0.0046802
0.0283018
0.0225732
0.0199646
0.0184877
0.0172066
0.0352434
0.0306998
0.0287386
0.0277715
0.0269456
0.0459183
0.0419358
0.0398307
0.0387758
0.0379297
0.0523482
0.048999
0.0468951
0.0455689
0.0445839
0.06295
0.0596964
0.0572513
0.0555414
0.0541768
0.0673699
0.0645481
0.0619893
0.0597733
0.0578614
0.0740723
0.071239
0.0684923
0.0659261
0.0636013
-0.358718
-0.375959
-0.403186
-0.422977
-0.429941
-0.356412
-0.364857
-0.378519
-0.39378
-0.393966
-0.351166
-0.353708
-0.35415
-0.349265
-0.332369
-0.338604
-0.332038
-0.32119
-0.303404
-0.276546
-0.315247
-0.302091
-0.284615
-0.261604
-0.230422
-0.283744
-0.268255
-0.248749
-0.224553
-0.192554
-0.249304
-0.234285
-0.215512
-0.19217
-0.161079
-0.216484
-0.202359
-0.185722
-0.164347
-0.135202
-0.186111
-0.173784
-0.160011
-0.140473
-0.11407
-0.158945
-0.150098
-0.136959
-0.11921
-0.0959854
-0.35462
-0.338614
-0.332504
-0.335138
-0.345301
-0.358001
-0.341743
-0.335561
-0.338275
-0.347106
-0.362177
-0.342896
-0.335202
-0.337768
-0.345811
-0.369024
-0.343043
-0.331675
-0.332893
-0.339323
-0.375585
-0.338303
-0.322127
-0.321209
-0.321753
-0.37907
-0.325771
-0.297269
-0.291817
-0.292809
-0.376367
-0.307081
-0.282173
-0.265574
-0.258227
-0.363403
-0.269583
-0.217513
-0.218567
-0.222374
-0.3434
-0.239954
-0.195724
-0.181971
-0.189881
-0.311738
-0.188216
-0.149886
-0.15757
-0.16932
-0.286134
-0.177072
-0.116831
-0.133489
-0.154927
-0.256048
-0.172059
-0.129373
-0.127385
-0.140226
-0.24343
-0.186371
-0.147984
-0.135335
-0.134418
-0.257984
-0.234664
-0.19796
-0.164052
-0.141322
-0.3226
-0.31866
-0.279795
-0.22494
-0.156992
-0.398302
-0.392252
-0.346021
-0.276117
-0.190192
-0.331503
-0.340849
-0.303011
-0.252479
-0.181109
-0.213222
-0.215296
-0.195309
-0.175955
-0.14599
-0.151973
-0.141755
-0.130132
-0.121195
-0.10952
-0.122574
-0.109628
-0.0960968
-0.0868025
-0.0793787
-0.107993
-0.104156
-0.0882453
-0.0671591
-0.0427298
-0.127372
-0.129188
-0.128771
-0.120856
-0.0854999
-0.156653
-0.165329
-0.175411
-0.163109
-0.156009
-0.121136
-0.108674
-0.111115
-0.112781
-0.118817
-0.0631116
-0.0469422
-0.0395142
-0.0359271
-0.0427352
-0.0590862
-0.0308265
-0.0155757
-0.0101291
-0.0145164
-0.0868406
-0.0511518
-0.0284199
-0.0164703
-0.00912171
-0.126289
-0.0839641
-0.0479753
-0.0191546
0.00619197
-0.157532
-0.148089
-0.129428
-0.104433
-0.0749602
-0.168574
-0.173856
-0.166427
-0.148472
-0.122642
-0.0607795
-0.0524639
-0.0452755
-0.0392576
-0.0357479
-0.00142404
0.00448018
0.00746866
0.00775899
0.00561104
-0.0183427
-0.0194388
-0.020365
-0.0207475
-0.0200492
-0.0138641
-0.0173743
-0.0200847
-0.0218192
-0.0222526
0.0006445
0.000620295
0.00060558
0.000478566
0.000180458
-0.144908
-0.123775
-0.102749
-0.0826972
-0.0634954
-0.047614
-0.0353266
-0.0255564
-0.0199748
-0.0149401
-0.0148734
-0.0120301
-0.015241
-0.0134109
-0.0156896
-0.144657
-0.126651
-0.109773
-0.0898694
-0.0704443
-0.0536029
-0.0398338
-0.0286895
-0.0219034
-0.0157416
-0.0152611
-0.0115713
-0.0146508
-0.0128078
-0.0148626
-0.134743
-0.12066
-0.107973
-0.090233
-0.0723641
-0.0559664
-0.0420396
-0.0305018
-0.0230937
-0.0163953
-0.0153996
-0.0112575
-0.0140074
-0.0121964
-0.0140374
-0.130425
-0.115191
-0.10215
-0.0857526
-0.0693859
-0.0544301
-0.0413992
-0.0304879
-0.0231833
-0.0165232
-0.0151531
-0.0109694
-0.0133252
-0.0115395
-0.013218
-0.133581
-0.112861
-0.0961041
-0.0789286
-0.0637201
-0.0500579
-0.0383962
-0.0286449
-0.0220304
-0.0158852
-0.0144288
-0.0105199
-0.0125512
-0.0108001
-0.0123801
-0.148119
-0.115309
-0.0921589
-0.0724087
-0.0568952
-0.0442759
-0.0338337
-0.0254785
-0.0197964
-0.0144789
-0.0132401
-0.00979018
-0.0116466
-0.00995792
-0.0115027
-0.144491
-0.111488
-0.0858028
-0.0650902
-0.0495332
-0.0376247
-0.0283624
-0.0214368
-0.016827
-0.0124946
-0.0116844
-0.00877597
-0.0106095
-0.00902749
-0.0105682
-0.117021
-0.0903615
-0.0697836
-0.0510862
-0.0388277
-0.0290101
-0.021898
-0.0167932
-0.0134558
-0.0101606
-0.00992942
-0.00757317
-0.00948665
-0.00803551
-0.00956772
-0.0880453
-0.0623337
-0.0496484
-0.0333627
-0.0258653
-0.0181798
-0.0142252
-0.0111982
-0.00955721
-0.00743358
-0.00796444
-0.00617523
-0.00826429
-0.00697683
-0.00850198
-0.059925
-0.0379395
-0.02542
-0.0103558
-0.00993847
-0.00457944
-0.00563411
-0.00460297
-0.00524253
-0.00434864
-0.00579925
-0.00457334
-0.00691505
-0.00587293
-0.0073779
-0.0230681
-0.00683589
0.00551299
0.0143392
0.0104783
0.0106593
0.00450055
0.00283643
-0.000402259
-0.000841836
-0.00335147
-0.00274006
-0.00541574
-0.00468329
-0.00620278
-0.0200564
0.0146223
0.0388979
0.0396125
0.0307561
0.0233607
0.0141067
0.00991359
0.00437286
0.00270663
-0.000818082
-0.000818576
-0.00385299
-0.00348785
-0.00500996
0.0075542
0.0104223
0.0427413
0.0425939
0.0361082
0.0285244
0.0191832
0.0148343
0.00823707
0.00597417
0.00165923
0.00113752
-0.00224038
-0.00229011
-0.00377226
-0.0802668
-0.035525
0.00196729
0.0191211
0.0227951
0.0223132
0.0185058
0.0156101
0.0105548
0.00861828
0.00398477
0.00306608
-0.000651197
-0.00107527
-0.002566
-0.0492207
-0.0463433
-0.0318855
-0.0114671
0.00416055
0.012689
0.0149819
0.015368
0.0121694
0.0106435
0.00610581
0.00492914
0.000988314
0.000228209
-0.00130437
-0.0212538
-0.0184999
-0.0110161
0.000920957
0.00997025
0.0153352
0.0169956
0.0175842
0.0144511
0.0129095
0.00811427
0.0066002
0.00248367
0.0014355
-0.000114644
-0.00647223
0.00351698
0.0109366
0.0191846
0.0203259
0.0235848
0.0214768
0.0216438
0.0169857
0.0152858
0.0100264
0.00828995
0.0039301
0.00277361
0.00107915
0.0188474
0.0314012
0.0398284
0.0481899
0.0484287
0.0444642
0.036866
0.0299823
0.0221251
0.0175239
0.0116605
0.00939254
0.00502075
0.00422808
0.0022084
-0.0474562
-0.0168253
0.0139625
0.037132
0.0476682
0.0399023
0.036456
0.0290463
0.022901
0.0183374
0.0126137
0.0101349
0.00591215
0.00567166
0.00330528
-0.0956024
-0.0725388
-0.0414908
-0.013355
0.00814573
0.0160314
0.0200701
0.0197785
0.0176908
0.0155992
0.0118028
0.00988511
0.00623825
0.00599444
0.00360838
-0.0302495
-0.0224777
-0.0144086
-0.00971587
-0.00421796
0.00260329
0.00758854
0.0111058
0.0116106
0.0118767
0.00970592
0.00855952
0.00588185
0.00524915
0.00358934
-0.0014087
-0.00740481
-0.0126461
-0.0123193
-0.00405338
0.00678949
0.0138601
0.016539
0.0118662
0.0113942
0.00861922
0.00745382
0.00518547
0.00387439
0.00316039
-0.0184884
-0.0160215
-0.012389
-0.00639565
0.00214783
0.0106816
0.0140155
0.0136956
0.0119535
0.0102362
0.00748438
0.00572026
0.00406704
0.00229109
0.00257534
-0.0219258
-0.0215297
-0.0206086
-0.0188065
-0.0152654
-0.0101869
-0.00552404
-0.00109874
0.00318683
0.00562426
0.00556424
0.00494833
0.00393866
0.00185006
0.00219033
-0.000339391
-0.000942021
-0.00179845
-0.00340735
-0.00616877
-0.0098293
-0.0114701
-0.00812639
-0.00315923
0.000453539
0.00190016
0.00218785
0.00189059
0.00079417
0.000790546
-0.0809987
-0.0675389
-0.0538273
-0.0438051
-0.0352855
-0.0285716
-0.0231766
-0.0190086
-0.0163777
-0.0144491
-0.015059
-0.0138733
-0.0174613
-0.0166868
-0.0197497
-0.0998091
-0.080288
-0.0621985
-0.0492342
-0.0387663
-0.0306011
-0.024301
-0.019692
-0.0167094
-0.0147705
-0.0150318
-0.0138634
-0.0171237
-0.0160908
-0.0189912
-0.113959
-0.0906684
-0.0700381
-0.055074
-0.0427365
-0.0327272
-0.0253099
-0.0200133
-0.0167029
-0.0146488
-0.0147236
-0.0136173
-0.0166655
-0.015447
-0.0181992
-0.128593
-0.102351
-0.0793522
-0.0626321
-0.0480982
-0.036202
-0.027481
-0.0210152
-0.0172031
-0.0145333
-0.0144739
-0.0131838
-0.0162002
-0.014764
-0.017384
-0.134193
-0.111381
-0.0901258
-0.0715164
-0.0545587
-0.0407482
-0.0305169
-0.0226442
-0.0181896
-0.0145262
-0.0144924
-0.0126084
-0.0157355
-0.0140591
-0.0165322
0.083882
0.0480443
0.00905396
-0.0299397
-0.0652217
0.0893106
0.047545
0.0033428
-0.0413505
-0.0806181
0.0937153
0.0433676
-0.00717656
-0.0562347
-0.099091
0.0968599
0.0364407
-0.0213975
-0.0751146
-0.121795
0.0965479
0.0253619
-0.0410191
-0.100422
-0.150884
0.0907499
0.00786579
-0.0684504
-0.134018
-0.188091
0.0760615
-0.0205761
-0.107554
-0.179967
-0.236196
0.0486791
-0.0660289
-0.165911
-0.244097
-0.298857
0.000140118
-0.130625
-0.243426
-0.324533
-0.372703
-0.0936353
-0.245107
-0.351326
-0.411103
-0.430392
0.211017
0.20473
0.188076
0.160933
0.123424
0.234318
0.226206
0.204775
0.173232
0.131254
0.26132
0.251492
0.226065
0.190296
0.144461
0.292639
0.281282
0.251648
0.209824
0.157422
0.328433
0.315247
0.28039
0.229806
0.16767
0.368468
0.352648
0.311165
0.249323
0.174377
0.411571
0.392043
0.342033
0.266522
0.175553
0.456556
0.432032
0.370891
0.278748
0.168006
0.496843
0.46561
0.389029
0.275298
0.140336
0.529368
0.49003
0.394836
0.253077
0.0811203
0.0554111
0.0521706
0.0489366
0.0456614
0.0423527
0.06335
0.0592906
0.0551873
0.0510903
0.0470208
0.0575706
0.0548195
0.0521781
0.0495927
0.0468726
0.0646977
0.0611735
0.0576542
0.0544292
0.051451
0.0631077
0.0608769
0.0586342
0.0565134
0.0544604
0.0710519
0.0682534
0.0654914
0.0626898
0.0607665
0.0727598
0.0708521
0.0687723
0.0666334
0.0652678
0.0817501
0.079557
0.0778793
0.0749526
0.0744016
0.0890376
0.0871315
0.0856664
0.0826373
0.0823625
0.100268
0.0982974
0.0976092
0.0927919
0.0928016
0.112597
0.10987
0.108941
0.102859
0.102644
0.128516
0.125633
0.124682
0.117198
0.114868
0.145729
0.141941
0.138516
0.12913
0.120606
0.166083
0.162264
0.157257
0.144189
0.1289
0.188157
0.183337
0.17338
0.152916
0.124964
0.0392855
0.0361543
0.0324562
0.0280671
0.0228055
0.0164767
0.00883111
-0.00047224
-0.0118935
-0.0259888
-0.0432969
-0.0647998
-0.103144
-0.123512
-0.262023
0.0430453
0.0389638
0.0343662
0.0291743
0.023322
0.0167071
0.00917381
0.00054414
-0.00947814
-0.0215885
-0.0364997
-0.0496143
-0.0776116
-0.0825233
-0.124995
0.0441959
0.0413547
0.0378575
0.0336426
0.0285694
0.0224515
0.0151744
0.00665911
-0.00310497
-0.0142993
-0.0285087
-0.0386634
-0.0623312
-0.0675927
-0.102903
0.0479828
0.044439
0.04051
0.0360915
0.0310089
0.0251622
0.0183654
0.0104652
0.00142353
-0.00864413
-0.0224576
-0.0310836
-0.0527172
-0.0577815
-0.0821805
0.052001
0.0491981
0.0456891
0.0413854
0.0362229
0.0300454
0.0228004
0.0144508
0.00511035
-0.00426009
-0.0178088
-0.0255265
-0.0448687
-0.0493438
-0.0654097
0.0574442
0.0538235
0.0496986
0.0449299
0.0393743
0.0329325
0.0255277
0.0170491
0.00751908
-0.00131561
-0.0144697
-0.0214738
-0.0385303
-0.0422094
-0.0539186
0.0624885
0.0592023
0.0549015
0.0496081
0.0433496
0.0361245
0.0280278
0.0190432
0.0090939
0.0005249
-0.0122147
-0.0185761
-0.0334568
-0.0365439
-0.0462445
0.0704179
0.0655968
0.0601943
0.0539707
0.0466527
0.0383546
0.0294044
0.0200008
0.00971149
0.00146776
-0.0107032
-0.0164637
-0.0295575
-0.0322555
-0.040881
0.0781426
0.0724363
0.065467
0.0573608
0.048477
0.0390423
0.0294221
0.0199693
0.00960896
0.00182636
-0.00963396
-0.0149069
-0.0265727
-0.0290564
-0.0368204
0.0855885
0.0773078
0.0687737
0.0593171
0.0491276
0.0386959
0.0283761
0.018976
0.00874831
0.00154589
-0.00903781
-0.0138732
-0.024331
-0.0267001
-0.0336323
0.0944168
0.0837322
0.0724085
0.0602385
0.048444
0.0371997
0.0264419
0.0173002
0.00740722
0.000817729
-0.00881975
-0.013238
-0.0226578
-0.0249208
-0.0310831
0.0995201
0.0854986
0.072212
0.0583549
0.0456234
0.0340899
0.0234658
0.0149493
0.00576121
-0.000163589
-0.00882191
-0.0128667
-0.0213971
-0.0235525
-0.0290369
0.102497
0.0861983
0.0699231
0.0547717
0.0416406
0.03018
0.0199719
0.0122139
0.00391639
-0.00130561
-0.00896899
-0.0126867
-0.0204079
-0.0224773
-0.0273811
0.0999015
0.081145
0.0641428
0.0490306
0.0363493
0.0256103
0.0162378
0.00929162
0.00201367
-0.002515
-0.00920206
-0.0126372
-0.0196133
-0.021618
-0.0260306
0.091731
0.0735898
0.0565444
0.0423432
0.0305591
0.0208732
0.0125563
0.00645259
0.000202998
-0.00368695
-0.00944311
-0.012624
-0.0189299
-0.0208929
-0.0249157
0.0762697
0.0612915
0.0472418
0.0348484
0.0244117
0.0160481
0.0089905
0.00380997
-0.00141908
-0.00471247
-0.00960344
-0.0125032
-0.0182246
-0.020167
-0.0238881
0.043687
0.0307754
0.0246756
0.0176167
0.0118025
0.00702434
0.0027396
-0.00040929
-0.00405581
-0.00626798
-0.0102739
-0.0124181
-0.0176681
-0.0193455
-0.0228991
0.00718036
-0.00190106
-0.00225901
-0.00463941
-0.00509159
-0.0054873
-0.00613415
-0.00650834
-0.00801301
-0.00872791
-0.0117525
-0.012733
-0.0175301
-0.018576
-0.0220238
-0.0267892
-0.0292974
-0.0249514
-0.0232649
-0.0197104
-0.0167285
-0.0144306
-0.0124551
-0.0119631
-0.0112876
-0.0133353
-0.0132232
-0.0175898
-0.0178923
-0.0212337
-0.0565773
-0.050824
-0.0415748
-0.0359847
-0.0295988
-0.0245208
-0.020297
-0.0168524
-0.0149434
-0.0133278
-0.0145218
-0.0136549
-0.0176171
-0.0172806
-0.0204925
)
;

boundaryField
{
    outlet
    {
        type            fixedValue;
        value           uniform 0;
    }
    upperWall
    {
        type            symmetryPlane;
    }
    lowerWall
    {
        type            symmetryPlane;
    }
    inlet
    {
        type            zeroGradient;
    }
    cylinder
    {
        type            zeroGradient;
    }
    frontAndBack
    {
        type            empty;
    }
}


// ************************************************************************* //
