/*--------------------------------*- C++ -*----------------------------------*\
| =========                 |                                                 |
| \\      /  F ield         | OpenFOAM: The Open Source CFD Toolbox           |
|  \\    /   O peration     | Version:  2312                                  |
|   \\  /    A nd           | Website:  www.openfoam.com                      |
|    \\/     M anipulation  |                                                 |
\*---------------------------------------------------------------------------*/
FoamFile
{
    version     2.0;
    format      ascii;
    arch        "LSB;label=32;scalar=64";
    class       surfaceScalarField;
    location    "49.2";
    object      phi;
}
// * * * * * * * * * * * * * * * * * * * * * * * * * * * * * * * * * * * * * //

dimensions      [0 3 -1 0 0 0 0];

oriented        oriented;

internalField   nonuniform List<scalar> 
10785
(
0.000117647
0.00343345
-0.0035511
0.00116677
0.00450188
-0.00555101
0.00474969
0.000719676
-0.0043026
0.0130354
-0.00858953
0.00030384
0.0278837
-0.0238596
0.00901121
0.0497047
-0.0440857
0.0222648
0.0770579
-0.0668206
0.0394674
0.107348
-0.0893852
0.0590951
0.137521
-0.10953
0.0793571
0.165386
-0.126095
0.0982299
0.189092
-0.13878
0.115074
0.208194
-0.147662
0.12856
0.223307
-0.154472
0.139358
0.234697
-0.158943
0.147553
-0.163321
0.154391
0.243627
0.000366675
0.00306678
0.00289726
0.00197129
0.0100262
-0.00640924
0.0243034
-0.0228667
0.0463702
-0.0459264
0.0739863
-0.0717018
0.10337
-0.0962039
0.130761
-0.116776
0.153653
-0.132423
0.171068
-0.143509
0.183369
-0.151081
0.19256
-0.156853
0.200204
-0.162116
0.208547
-0.167286
-0.174532
0.219758
0.000674734
0.00239204
0.00529781
-0.00265178
0.0172721
-0.0183836
0.0380532
-0.0436478
0.0647614
-0.0726346
0.0923297
-0.0992701
0.116379
-0.120253
0.134671
-0.135068
0.147248
-0.145
0.155746
-0.152008
0.162638
-0.157973
0.169847
-0.164062
0.178282
-0.17055
0.188622
-0.177626
-0.185113
0.199202
0.00131822
0.00107383
0.00907897
-0.0104125
0.0266483
-0.0359529
0.0514465
-0.068446
0.0770146
-0.0982026
0.0982605
-0.120516
0.113341
-0.135334
0.123217
-0.144944
0.130187
-0.15197
0.13648
-0.1583
0.143208
-0.164701
0.150483
-0.171336
0.158028
-0.178096
0.165512
-0.185109
-0.192366
0.172765
0.0024275
-0.00135367
0.0142711
-0.0222561
0.0358077
-0.0574895
0.0595062
-0.0921446
0.0789787
-0.117675
0.0923135
-0.133851
0.100866
-0.143886
0.10697
-0.151049
0.112338
-0.157338
0.117546
-0.163508
0.122642
-0.169797
0.127637
-0.176331
0.132767
-0.183226
0.138418
-0.19076
-0.198752
0.144804
0.00403197
-0.00538565
0.0196393
-0.0378634
0.0412121
-0.0790623
0.0598976
-0.11083
0.0726346
-0.130412
0.0805289
-0.141745
0.0857445
-0.149102
0.0898004
-0.155105
0.0933458
-0.160883
0.0967225
-0.166885
0.100208
-0.173282
0.104025
-0.180148
0.108278
-0.187479
0.112772
-0.195253
-0.203166
0.117186
0.00600793
-0.0113936
0.0233608
-0.0552163
0.041534
-0.0972355
0.054503
-0.123799
0.0622169
-0.138126
0.0666478
-0.146176
0.0694869
-0.151941
0.0716902
-0.157308
0.0737532
-0.162946
0.0758746
-0.169006
0.07808
-0.175488
0.0803196
-0.182388
0.0825588
-0.189718
0.0848153
-0.19751
-0.205598
0.087247
0.00780918
-0.0192028
0.0241969
-0.071604
0.0378635
-0.110902
0.0459952
-0.131931
0.0500261
-0.142157
0.0519276
-0.148078
0.0529729
-0.152986
0.0537337
-0.158069
0.0543517
-0.163564
0.0548421
-0.169497
0.0552469
-0.175893
0.0556641
-0.182805
0.056201
-0.190255
0.0568418
-0.198151
0.0576447
-0.206401
-0.00136202
-0.0076765
0.00903852
-0.00469107
-0.0163671
0.0196961
-0.00945131
-0.0205607
0.0253209
-0.0152091
-0.0228641
0.0286219
-0.0217049
-0.0251817
0.0316775
-0.028779
-0.0281516
0.0352257
-0.0362518
-0.0316539
0.0391268
-0.0438499
-0.0353396
0.0429376
-0.0511897
-0.0387601
0.0460999
-0.057796
-0.0413515
0.0479578
-0.0631287
-0.0424587
0.0477913
-0.0665697
-0.0413822
0.0448232
-0.0674603
-0.0373209
0.0382115
-0.0653768
-0.0293551
0.0272716
-0.0169734
-0.059541
0.0111376
-0.00204693
-0.00562957
-0.00633825
-0.0120757
-0.0119997
-0.0148992
-0.0186417
-0.0162221
-0.0261482
-0.0176752
-0.0344855
-0.0198144
-0.0435751
-0.0225643
-0.0532358
-0.0256789
-0.0631568
-0.0288391
-0.0729011
-0.0316072
-0.0819145
-0.0334453
-0.089461
-0.0338356
-0.0947726
-0.0320093
-0.0975652
-0.0265624
-0.018931
-0.0956076
-0.00232653
-0.00330304
-0.00691515
-0.00748713
-0.0126938
-0.00912053
-0.0192569
-0.00965907
-0.0265072
-0.0104248
-0.0343986
-0.0119231
-0.0428123
-0.0141505
-0.0515321
-0.0169592
-0.0602296
-0.0201416
-0.0684532
-0.0233836
-0.0757704
-0.0261281
-0.0814373
-0.0281687
-0.0838238
-0.0296228
-0.0846499
-0.0257363
-0.0246914
-0.0788895
-0.00226955
-0.00103349
-0.00665219
-0.00310449
-0.0119974
-0.00377533
-0.017843
-0.00381343
-0.0240277
-0.00424018
-0.030412
-0.0055388
-0.0367164
-0.00784608
-0.0425261
-0.0111495
-0.0473493
-0.0153183
-0.0506487
-0.0200842
-0.0517006
-0.0250762
-0.0509017
-0.0289676
-0.0451037
-0.0354208
-0.0376024
-0.0332376
-0.0396766
-0.0226172
-0.00196918
0.000935684
-0.00576799
0.000694329
-0.0102519
0.000708554
-0.0148523
0.000787016
-0.0192032
0.000110734
-0.0229992
-0.0017428
-0.0256463
-0.00519901
-0.0264266
-0.0103692
-0.0245676
-0.0171773
-0.0194812
-0.0251706
-0.0108294
-0.033728
0.00238794
-0.042185
0.0188075
-0.0518404
0.0396166
-0.0540467
-0.0682504
0.0681904
-0.00146474
0.00240042
-0.00434414
0.00357373
-0.00749819
0.00386261
-0.010141
0.00342983
-0.0116423
0.00161199
-0.0111672
-0.00221781
-0.00785115
-0.00851511
-0.00080363
-0.0174167
0.0106482
-0.0286291
0.0267916
-0.0413141
0.0474953
-0.0544316
0.072387
-0.0670768
0.101387
-0.08084
0.133328
-0.0859883
-0.105039
0.170117
-0.000864654
0.00326508
-0.00253253
0.0052416
-0.00385766
0.00518774
-0.00375592
0.00332809
-0.00110475
-0.00103918
0.00529308
-0.00861564
0.0165158
-0.0197378
0.0330583
-0.0339592
0.0548417
-0.0504125
0.0810287
-0.0675012
0.110818
-0.084221
0.143084
-0.0993422
0.17537
-0.113127
0.211545
-0.122163
-0.135824
0.24233
-0.000286025
-0.000595433
0.000289706
0.00392164
0.0118937
0.0255428
0.0452724
0.0704083
0.0993529
0.130082
0.160934
0.190152
0.216384
0.241773
0.260341
-0.0284412
0.00912081
-0.0402206
0.00946912
0.114674
-0.152584
0.0372571
0.220137
-0.247925
0.0323794
0.321215
-0.316338
0.0330445
0.360712
-0.361377
0.087868
0.23419
-0.289014
0.158134
0.0113249
-0.0815904
0.208407
-0.164701
0.114427
0.238057
-0.261127
0.231477
0.235104
-0.272016
0.274969
0.195016
-0.290613
0.330702
0.162723
-0.327639
0.359932
0.186442
-0.251506
0.227787
0.237048
-0.0251559
-0.0254503
0.262199
0.239052
-0.264203
0.251214
0.461471
-0.450486
0.226655
0.584575
-0.560016
0.202918
0.479177
-0.455441
0.185753
0.192206
-0.175041
0.178615
-0.132867
0.140005
0.178071
-0.333185
0.333729
0.183386
-0.394607
0.389292
0.189468
-0.327545
0.321463
0.190983
-0.270577
0.269062
0.192535
-0.164694
0.163143
0.198597
-0.121447
0.115385
0.209535
-0.099512
0.0885742
0.218144
-0.041975
0.0333659
0.225197
-0.0787451
0.0716919
0.234838
-0.0313559
0.0217146
0.24204
-0.015056
0.00785409
0.249513
-0.0158607
0.00838755
0.256436
0.0435575
-0.0504804
0.259723
0.0619192
-0.065206
0.26151
0.0614766
-0.063263
0.262281
0.0990132
-0.0997846
0.261933
0.110305
-0.109958
0.109817
-0.108846
-0.0727101
-0.0137767
-0.0349433
0.0769074
-0.000899739
0.186093
0.0200496
0.300266
0.0602717
0.32049
0.132323
0.162139
0.192581
-0.048933
0.221654
-0.193774
0.236448
-0.275921
0.234396
-0.269964
0.197362
-0.25358
0.158749
-0.289026
0.177057
-0.269813
0.234437
-0.0825359
0.270244
0.203245
0.268358
0.463357
0.245448
0.607485
0.216567
0.508058
0.193547
0.215226
0.183006
-0.122327
0.180306
-0.330485
0.183299
-0.3976
0.193112
-0.337358
0.202184
-0.27965
0.208159
-0.170669
0.215336
-0.128624
0.224244
-0.108421
0.229746
-0.0474762
0.232931
-0.0819305
0.237559
-0.0359837
0.240932
-0.0184289
0.246614
-0.0215435
0.253268
0.0369036
0.256798
0.0583895
0.259185
0.0590891
0.260605
0.0975937
0.260845
0.110065
0.110381
-0.0632601
-0.0294061
-0.0280988
0.0417461
0.0122253
0.145769
0.0559904
0.256501
0.111087
0.265393
0.173194
0.100031
0.220306
-0.0960444
0.235053
-0.208521
0.234427
-0.275294
0.232762
-0.268299
0.203383
-0.224201
0.162322
-0.247964
0.170676
-0.278168
0.231392
-0.143252
0.277624
0.157013
0.285019
0.455962
0.265911
0.626593
0.233177
0.540792
0.20283
0.245573
0.186807
-0.106305
0.182109
-0.325787
0.183329
-0.39882
0.192464
-0.346493
0.206303
-0.293488
0.219222
-0.183588
0.23038
-0.139782
0.239929
-0.117969
0.244178
-0.0517251
0.244394
-0.0821463
0.243873
-0.035463
0.242528
-0.0170836
0.24494
-0.0239562
0.249958
0.0318855
0.253113
0.0552344
0.255973
0.0562299
0.25816
0.0954062
0.259269
0.108956
0.11026
-0.0157732
-0.0362501
0.0172833
0.00868954
0.0671086
0.0959436
0.1234
0.200209
0.175071
0.213722
0.21342
0.0616826
0.242349
-0.124973
0.2449
-0.211073
0.228894
-0.259288
0.226512
-0.265917
0.209167
-0.206856
0.170167
-0.208964
0.166727
-0.274728
0.224547
-0.201072
0.279371
0.102189
0.29873
0.436604
0.284952
0.640371
0.24966
0.576085
0.213245
0.281988
0.19086
-0.0839195
0.182627
-0.317554
0.182911
-0.399104
0.189861
-0.353442
0.204114
-0.307742
0.221794
-0.201268
0.237036
-0.155024
0.249399
-0.130332
0.255074
-0.0573998
0.254786
-0.0818586
0.251371
-0.0320474
0.246323
-0.0120363
0.245062
-0.0226952
0.247381
0.0295669
0.249434
0.0531818
0.252387
0.0532766
0.255237
0.0925562
0.257356
0.106837
0.109241
0.0601212
-0.028181
0.0748503
-0.00603951
0.118147
0.0526468
0.176739
0.141618
0.228724
0.161738
0.25188
0.038526
0.258833
-0.131925
0.249646
-0.201886
0.222181
-0.231823
0.215925
-0.259661
0.210478
-0.201409
0.176992
-0.175479
0.161144
-0.258879
0.211973
-0.251901
0.278593
0.0355679
0.312568
0.40263
0.304821
0.648118
0.266368
0.614537
0.223196
0.325161
0.193923
-0.0546465
0.181666
-0.305298
0.180798
-0.398235
0.186156
-0.3588
0.198714
-0.3203
0.217497
-0.220052
0.234586
-0.172112
0.249715
-0.145462
0.258305
-0.0659899
0.259876
-0.0834295
0.256687
-0.0288578
0.250344
-0.00569391
0.246412
-0.0187624
0.245912
0.0300663
0.246443
0.0526507
0.249063
0.0506569
0.252297
0.0893226
0.255384
0.103749
0.107217
0.153013
-0.011077
0.149519
-0.00254528
0.170978
0.0311876
0.212234
0.100361
0.261336
0.112635
0.279006
0.0208565
0.267666
-0.120585
0.249685
-0.183905
0.215508
-0.197647
0.201249
-0.245402
0.205993
-0.206153
0.181166
-0.150652
0.154494
-0.232208
0.19399
-0.291397
0.268364
-0.0388063
0.315621
0.355373
0.319235
0.644503
0.284017
0.649756
0.23468
0.374497
0.198015
-0.0179815
0.180025
-0.287308
0.176674
-0.394884
0.180924
-0.36305
0.191746
-0.331123
0.209685
-0.237991
0.226608
-0.189036
0.243067
-0.161921
0.254287
-0.0772098
0.258629
-0.0877713
0.257811
-0.0280403
0.252533
-0.000415274
0.24771
-0.0139395
0.245262
0.0325141
0.244419
0.0534935
0.246473
0.0486029
0.249798
0.0859979
0.253676
0.0998708
0.10419
0.228253
0.00300044
0.220229
0.00547825
0.227766
0.0236507
0.253146
0.0749821
0.2884
0.077381
0.2937
0.0155567
0.26534
-0.0922252
0.240308
-0.158873
0.207151
-0.16449
0.183672
-0.221922
0.193795
-0.216276
0.181864
-0.138722
0.145959
-0.196303
0.165064
-0.310501
0.250116
-0.123858
0.318643
0.286846
0.33259
0.630555
0.29608
0.686266
0.240868
0.429709
0.197544
0.0253427
0.175801
-0.265565
0.170083
-0.389166
0.17361
-0.366577
0.183223
-0.340736
0.200042
-0.254809
0.216219
-0.205213
0.232868
-0.17857
0.245745
-0.0900859
0.252492
-0.0945186
0.254689
-0.0302376
0.251825
0.00244862
0.247754
-0.00986793
0.244716
0.0355519
0.243148
0.0550615
0.244735
0.0470159
0.248012
0.0827207
0.252469
0.0954138
0.100237
0.252867
0.0104744
0.245377
0.0129676
0.250587
0.0184405
0.269261
0.0563082
0.29156
0.0550824
0.290835
0.0162814
0.255544
-0.0569336
0.227707
-0.131037
0.199809
-0.136592
0.169258
-0.191371
0.176
-0.223018
0.176265
-0.138987
0.139474
-0.159512
0.137674
-0.308701
0.215719
-0.201903
0.300898
0.201667
0.336098
0.595355
0.31246
0.709904
0.255376
0.486793
0.203597
0.0771219
0.173933
-0.235901
0.164373
-0.379606
0.166023
-0.368227
0.173756
-0.348469
0.189431
-0.270484
0.204668
-0.22045
0.221236
-0.195138
0.234997
-0.103848
0.243427
-0.102948
0.248332
-0.0351423
0.248158
0.00262211
0.245873
-0.00758311
0.243535
0.0378907
0.242104
0.0564926
0.243615
0.0455042
0.246939
0.0793974
0.251838
0.090514
0.0954394
0.449568
0.0171657
-0.456259
0.44298
0.0195556
0.443401
0.0180197
0.461351
0.0383582
0.487347
0.0290856
0.503142
0.000487039
0.489714
-0.0435062
0.468037
-0.109359
0.450755
-0.119311
0.41574
-0.156356
0.397007
-0.204284
0.390162
-0.132143
0.356769
-0.126119
0.326581
-0.278514
0.349292
-0.224613
0.38213
0.168829
0.387155
0.59033
0.375916
0.721143
0.374025
0.488684
0.37772
0.0734274
0.374979
-0.233161
0.363069
-0.367696
0.350563
-0.35572
0.343766
-0.341672
0.348794
-0.275513
0.359446
-0.231102
0.372679
-0.20837
0.384153
-0.115321
0.390995
-0.10979
0.39289
-0.0370372
0.390537
0.00497466
0.385036
-0.00208252
0.377749
0.0451777
0.372256
0.0619862
0.370272
0.0474881
0.370513
0.0791562
0.373436
0.087591
0.0923128
0.487631
0.0217815
-0.492247
0.486365
0.0208218
0.486768
0.0176167
0.501351
0.0237748
0.515794
0.0146428
0.522163
-0.00588206
0.516531
-0.0378743
0.49441
-0.087238
0.475479
-0.10038
0.447574
-0.12845
0.419418
-0.176128
0.405739
-0.118463
0.385126
-0.105506
0.364943
-0.25833
0.372161
-0.231831
0.402421
0.138568
0.419033
0.573719
0.420686
0.71949
0.432371
0.476999
0.444598
0.0612008
0.435836
-0.224399
0.415051
-0.346911
0.396637
-0.337306
0.386852
-0.331886
0.389508
-0.278169
0.398089
-0.239683
0.409413
-0.219694
0.419445
-0.125353
0.425515
-0.11586
0.427674
-0.0391963
0.426469
0.00618006
0.422685
0.00170095
0.417073
0.0507895
0.412407
0.0666527
0.410243
0.0496519
0.40968
0.079719
0.411403
0.0858683
0.0899626
0.529298
0.0243395
-0.531856
0.529755
0.0203645
0.53067
0.016702
0.538869
0.0155758
0.548263
0.00524891
0.550518
-0.00813698
0.546927
-0.0342833
0.531144
-0.0714552
0.513221
-0.0824567
0.492865
-0.108094
0.469455
-0.152719
0.460775
-0.109783
0.438431
-0.0831622
0.405503
-0.225403
0.410036
-0.236364
0.436412
0.112192
0.457313
0.552818
0.478104
0.698699
0.506883
0.448221
0.51772
0.0503635
0.504209
-0.210889
0.476505
-0.319206
0.450791
-0.311592
0.434813
-0.315909
0.43317
-0.276526
0.43909
-0.245604
0.448847
-0.229451
0.457931
-0.134438
0.463353
-0.121282
0.465538
-0.0413815
0.464463
0.00725506
0.461689
0.00447526
0.457806
0.0546718
0.454483
0.069976
0.452907
0.0512282
0.45229
0.0803359
0.453097
0.0850607
0.0884078
0.572977
0.0242446
-0.572882
0.573662
0.0196803
0.574681
0.0156824
0.578969
0.0112878
0.583036
0.00118195
0.58397
-0.00907057
0.57924
-0.0295539
0.563445
-0.0556598
0.548287
-0.0672984
0.530742
-0.0905499
0.501757
-0.123734
0.493575
-0.1016
0.489268
-0.0788561
0.459682
-0.195816
0.451553
-0.228235
0.482968
0.0807771
0.512238
0.523548
0.544871
0.666066
0.586198
0.406894
0.601307
0.0352545
0.577576
-0.187158
0.539578
-0.281208
0.507831
-0.279844
0.48815
-0.296228
0.482854
-0.27123
0.485621
-0.24837
0.492891
-0.23672
0.500429
-0.141976
0.505146
-0.125999
0.507167
-0.0434024
0.505937
0.00848509
0.503599
0.00681354
0.500897
0.0573739
0.498644
0.072229
0.497786
0.0520856
0.497517
0.0806052
0.497842
0.0847355
0.0874095
0.618521
0.022987
-0.617264
0.61915
0.0190512
0.620305
0.0145279
0.622021
0.0095719
0.623222
-1.86413e-05
0.622591
-0.00844046
0.617221
-0.0241838
0.606366
-0.0448049
0.593992
-0.0549237
0.578492
-0.0750499
0.553288
-0.09853
0.538919
-0.0872313
0.531546
-0.0714828
0.49578
-0.16005
0.463596
-0.196052
0.475728
0.0686458
0.518109
0.481166
0.594
0.590175
0.666903
0.33399
0.68322
0.0189372
0.654678
-0.158615
0.611858
-0.238389
0.574661
-0.242647
0.549359
-0.270926
0.538964
-0.260835
0.537774
-0.247181
0.542028
-0.240974
0.547483
-0.147431
0.551081
-0.129597
0.552819
-0.0451404
0.551488
0.00981539
0.549408
0.00889427
0.547391
0.0593903
0.545734
0.0738866
0.545336
0.0524836
0.545412
0.080529
0.545564
0.0845837
0.0866772
0.66695
0.0213552
-0.665318
0.667776
0.0182255
0.668487
0.0138172
0.669096
0.00896287
0.668179
0.000898322
0.666504
-0.00676579
0.661152
-0.0188318
0.650388
-0.0340409
0.638624
-0.0431593
0.623274
-0.0596999
0.600625
-0.0758816
0.586968
-0.0735737
0.578977
-0.0634918
0.535635
-0.116708
0.467168
-0.127585
0.454036
0.0817783
0.530683
0.404519
0.664128
0.456731
0.754369
0.243749
0.76276
0.0105464
0.720602
-0.116457
0.66966
-0.187447
0.630094
-0.203082
0.60504
-0.245871
0.594374
-0.250169
0.592068
-0.244875
0.59468
-0.243586
0.598561
-0.151311
0.601149
-0.132185
0.602535
-0.0465259
0.601241
0.0111088
0.599463
0.010672
0.597962
0.0608921
0.596639
0.0752094
0.596446
0.0526763
0.59674
0.0802353
0.596857
0.0844662
0.086019
0.719279
0.0197235
-0.717647
0.720078
0.0174259
0.720341
0.0135545
0.719981
0.0093228
0.718239
0.00264082
0.715445
-0.00397192
0.709849
-0.0132361
0.700778
-0.0249703
0.690819
-0.0332005
0.677713
-0.0465932
0.658087
-0.0562553
0.64239
-0.0578772
0.628196
-0.0492977
0.585412
-0.0739244
0.518702
-0.0608754
0.51144
0.0890407
0.618126
0.297832
0.76072
0.314137
0.83391
0.170559
0.829145
0.0153116
0.786506
-0.0738184
0.739547
-0.140487
0.701384
-0.164919
0.674768
-0.219255
0.660618
-0.236019
0.654637
-0.238894
0.654094
-0.243044
0.655534
-0.152751
0.656486
-0.133137
0.657132
-0.0471717
0.655708
0.0125328
0.654134
0.0122453
0.65304
0.0619867
0.651923
0.076326
0.651795
0.0528048
0.652235
0.0797947
0.652404
0.0842972
0.0853052
0.776206
0.0183774
-0.77486
0.776793
0.0168385
0.776749
0.0135989
0.775863
0.0102086
0.77371
0.0047937
0.770513
-0.000774906
0.765308
-0.00803104
0.757524
-0.0171861
0.748037
-0.0237136
0.735809
-0.0343657
0.719267
-0.0397128
0.704733
-0.0433436
0.690975
-0.0355393
0.659139
-0.0420885
0.616575
-0.0183115
0.628459
0.0771562
0.730362
0.195929
0.840581
0.203919
0.887089
0.124051
0.875883
0.0265173
0.838877
-0.0368127
0.799628
-0.101238
0.766975
-0.132266
0.742987
-0.195267
0.728851
-0.221883
0.721082
-0.231126
0.7182
-0.240162
0.717399
-0.15195
0.716697
-0.132435
0.716603
-0.0470779
0.715033
0.0141032
0.713675
0.0136033
0.713025
0.0626371
0.712136
0.077215
0.712085
0.0528554
0.71271
0.0791695
0.712997
0.08401
0.0844918
0.838547
0.0173409
-0.83751
0.838933
0.016452
0.838669
0.0138629
0.837558
0.0113202
0.835341
0.00701088
0.832128
0.0024375
0.827204
-0.00310644
0.820423
-0.0104056
0.812192
-0.0154823
0.802055
-0.0242291
0.789392
-0.0270491
0.777173
-0.0311253
0.76542
-0.0237862
0.745971
-0.0226396
0.726777
0.000882276
0.747623
0.0563101
0.821682
0.121871
0.894386
0.131215
0.926378
0.0920585
0.921469
0.0314267
0.897011
-0.0123548
0.867386
-0.0716139
0.839664
-0.104544
0.817383
-0.172986
0.80278
-0.20728
0.793357
-0.221702
0.788424
-0.235229
0.785465
-0.148991
0.782963
-0.129933
0.78189
-0.0460042
0.779933
0.0160596
0.778643
0.0148932
0.778359
0.0629215
0.777662
0.0779121
0.777714
0.0528034
0.778579
0.0783045
0.779044
0.0835451
0.0834668
0.907219
0.0165927
-0.906471
0.907427
0.0162437
0.907034
0.014256
0.905889
0.0124653
0.903793
0.0091064
0.900793
0.00543747
0.896565
0.00112145
0.891027
-0.00486708
0.884331
-0.00878597
0.876197
-0.0160952
0.866711
-0.0175633
0.857537
-0.0219518
0.849335
-0.0155837
0.839744
-0.0130485
0.834584
0.00604172
0.853708
0.0371869
0.901245
0.074333
0.9486
0.0838602
0.97288
0.0677787
0.972826
0.0314805
0.957319
0.00315236
0.935848
-0.0501423
0.914442
-0.0831384
0.896024
-0.154568
0.882644
-0.193899
0.87209
-0.211148
0.864956
-0.228095
0.859618
-0.143654
0.855123
-0.125437
0.853012
-0.0438932
0.850601
0.0184701
0.849335
0.0161597
0.849447
0.0628088
0.849042
0.0783178
0.849295
0.0525494
0.850535
0.0770653
0.8513
0.0827795
0.0822732
0.98303
0.0160409
-0.982478
0.983141
0.0161332
0.982721
0.0146759
0.981687
0.0134993
0.979908
0.0108857
0.977397
0.00794823
0.973958
0.00455995
0.969621
-0.000529619
0.964459
-0.00362406
0.958484
-0.0101202
0.951955
-0.011034
0.945864
-0.0158609
0.941005
-0.0107252
0.937277
-0.00932033
0.938543
0.00477617
0.95349
0.0222391
0.983128
0.0446956
1.01342
0.0535657
1.0314
0.0497974
1.03437
0.0285134
1.02573
0.0117947
1.01165
-0.0360652
0.995788
-0.0672749
0.980399
-0.13918
0.967868
-0.181368
0.956469
-0.199749
0.947626
-0.219252
0.940215
-0.136243
0.933854
-0.119076
0.930721
-0.0407603
0.927756
0.0214352
0.926498
0.0174174
0.926952
0.0623548
0.92678
0.0784899
0.927338
0.051991
0.928964
0.0754393
0.930035
0.0817085
0.0806566
1.06681
0.0156375
-1.0664
1.06687
0.0160702
1.06653
0.0150197
1.06571
0.0143117
1.06434
0.0122588
1.06241
0.00987983
1.05984
0.00712807
1.05669
0.00262508
1.05304
1.71655e-05
1.04901
-0.00608636
1.04484
-0.00686202
1.04125
-0.0122686
1.03897
-0.00844797
1.0385
-0.00885463
1.04196
0.00131944
1.05286
0.0113424
1.07139
0.0261592
1.09075
0.0342113
1.1036
0.0369468
1.10729
0.0248248
1.10274
0.0163389
1.09359
-0.0269104
1.08215
-0.0558341
1.07009
-0.127124
1.05921
-0.17049
1.04756
-0.188097
1.03724
-0.208936
1.02786
-0.126859
1.01961
-0.110823
1.0153
-0.0364555
1.01177
0.0249681
1.01043
0.0187534
1.01132
0.0614693
1.01157
0.078237
1.01247
0.0510934
1.01469
0.0732199
1.01625
0.0801475
0.0788547
1.15922
0.0152747
-1.15886
1.15935
0.0159416
1.15917
0.0151942
1.15865
0.0148306
1.15774
0.0131738
1.15644
0.0111774
1.15474
0.00883504
1.15267
0.00468664
1.15033
0.00236574
1.14788
-0.0036386
1.14555
-0.00453334
1.14379
-0.0105056
1.14321
-0.00787238
1.1442
-0.00984641
1.14792
-0.00239893
1.15561
0.00365515
1.1672
0.0145712
1.17925
0.0221525
1.18792
0.0282829
1.19124
0.0215038
1.18926
0.018321
1.18391
-0.0215681
1.1766
-0.0485181
1.1674
-0.117928
1.15759
-0.160679
1.1452
-0.175702
1.1331
-0.196835
1.12178
-0.11554
1.11184
-0.100891
1.10696
-0.0315697
1.10302
0.0289036
1.10187
0.0199099
1.10321
0.0601257
1.10382
0.0776274
1.10526
0.0496532
1.10805
0.0704321
1.11009
0.0781057
0.0763005
1.26113
0.0148725
-1.26073
1.26137
0.0157078
1.26139
0.0151717
1.26118
0.0150354
1.26072
0.0136361
1.26002
0.0118795
1.25906
0.00979555
1.25792
0.00582139
1.25664
0.00365026
1.25541
-0.00240732
1.25438
-0.00350175
1.25381
-0.00994084
1.25416
-0.00822214
1.25564
-0.0113256
1.25891
-0.00566296
1.26415
-0.00158949
1.27136
0.0073563
1.27882
0.0146944
1.28448
0.0226274
1.28711
0.0188736
1.28634
0.0190861
1.28333
-0.0185578
1.27854
-0.04373
1.27138
-0.11076
1.26262
-0.151924
1.25009
-0.163166
1.23691
-0.183657
1.22397
-0.102599
1.21249
-0.089414
1.20656
-0.0256429
1.20243
0.0330434
1.20131
0.0210206
1.20338
0.0580628
1.20471
0.0762913
1.20665
0.0477163
1.21028
0.0667979
1.21302
0.0753736
0.0736072
1.37325
0.0143546
-1.37274
1.37368
0.0152816
1.37398
0.0148719
1.37414
0.0148713
1.37414
0.0136371
1.374
0.0120257
1.3737
0.0100949
1.37331
0.00621139
1.37286
0.00409758
1.37245
-0.00199695
1.37223
-0.00327966
1.37229
-0.0100036
1.37301
-0.0089434
1.37437
-0.0126818
1.37683
-0.0081271
1.38025
-0.00500514
1.38465
0.00295339
1.38911
0.0102353
1.39275
0.0189896
1.39471
0.0169148
1.39489
0.0188991
1.39362
-0.0172798
1.39091
-0.0410225
1.38468
-0.104533
1.37531
-0.142555
1.36085
-0.148705
1.34529
-0.168093
1.33095
-0.0882588
1.31845
-0.0769175
1.31308
-0.0202686
1.3093
0.0368157
1.30896
0.0213607
1.31197
0.0550548
1.31403
0.0742303
1.3168
0.0449519
1.32132
0.0622791
1.32485
0.0718431
0.0697073
1.49631
0.0136855
-1.49564
1.49695
0.0146407
1.49752
0.0143029
1.49802
0.0143696
1.49843
0.0132309
1.49875
0.0117007
1.49899
0.00986218
1.49916
0.00604165
1.49928
0.00397242
1.49943
-0.00214146
1.49969
-0.00354106
1.50006
-0.0103737
1.50082
-0.00970964
1.50185
-0.0137095
1.5035
-0.00977147
1.50549
-0.0069974
1.50803
0.00041504
1.51062
0.00764019
1.51285
0.0167598
1.51425
0.0155209
1.51475
0.0183908
1.51426
-0.0167863
1.51241
-0.0391713
1.50633
-0.098458
1.49612
-0.132339
1.48036
-0.132951
1.46333
-0.151065
1.44775
-0.0726755
1.43465
-0.0638124
1.42918
-0.0148012
1.42648
0.0395142
1.4267
0.0211432
1.4309
0.050856
1.43422
0.0709089
1.43774
0.0414255
1.4434
0.0566244
1.44782
0.0674248
0.065753
1.63165
0.0125275
-1.63049
1.63284
0.0134518
1.634
0.0131454
1.63513
0.0132343
1.63618
0.012183
1.63713
0.0107506
1.63795
0.00904129
1.63859
0.00540152
1.63909
0.00347512
1.63932
-0.00237404
1.6395
-0.00371799
1.63937
-0.0102483
1.63944
-0.00977633
1.63933
-0.0136006
1.63965
-0.0100962
1.64013
-0.00747293
1.64132
-0.00077309
1.64285
0.00610893
1.64481
0.014801
1.64681
0.0135155
1.64901
0.0161962
1.64927
-0.0170491
1.64656
-0.0364599
1.63673
-0.0886256
1.62138
-0.116989
1.60103
-0.112606
1.58046
-0.130493
1.56516
-0.0573773
1.55277
-0.0514182
1.5501
-0.0121339
1.55018
0.0394321
1.55237
0.0189596
1.55866
0.0445627
1.56382
0.0657488
1.56841
0.0368319
1.57543
0.0496024
1.58128
0.0615782
0.0600783
1.77917
0.0109434
-1.77759
1.78087
0.0117509
1.78259
0.0114303
1.78432
0.0115005
1.78601
0.0104953
1.78755
0.00920724
1.78895
0.0076397
1.79002
0.00432933
1.7908
0.00269394
1.79109
-0.00266059
1.79103
-0.00365918
1.79029
-0.00950716
1.78948
-0.00896445
1.78805
-0.0121694
1.78695
-0.00899574
1.78589
-0.00641319
1.78593
-0.000812657
1.78696
0.00507607
1.78908
0.0126781
1.79243
0.0101657
1.79683
0.0117987
1.79785
-0.0180656
1.79385
-0.0324651
1.77963
-0.0744059
1.75823
-0.0955838
1.73387
-0.0882462
1.7116
-0.108224
1.69728
-0.04306
1.68651
-0.0406466
1.68634
-0.011962
1.68985
0.0359167
1.69298
0.0158309
1.70057
0.0369734
1.70739
0.0589269
1.71305
0.0311737
1.72159
0.0410657
1.72846
0.0547064
0.054458
1.94266
0.00713107
-1.93884
1.94682
0.00759086
1.951
0.00724368
1.95523
0.00727095
1.95924
0.00648706
1.96275
0.00569694
1.96568
0.00471228
1.96734
0.00266453
1.96797
0.00206936
1.96661
-0.00130067
1.96395
-0.000998304
1.95898
-0.00454132
1.95342
-0.00339957
1.94648
-0.00523252
1.94055
-0.00306922
1.93626
-0.00211699
1.93471
0.000734126
1.93682
0.00296258
1.94256
0.00694213
1.95209
0.000634824
1.96377
0.00012369
1.96507
-0.0193669
1.95556
-0.0229614
1.9285
-0.0473395
1.89241
-0.0595
1.86053
-0.0563601
1.83176
-0.0794624
1.82177
-0.0330606
1.8158
-0.0346818
1.81989
-0.016055
1.83349
0.0223171
1.83935
0.00997871
1.84787
0.0284496
1.86064
0.046153
1.86845
0.0233634
1.878
0.0315216
1.88699
0.0457101
0.0468076
2.12086
0.00320039
-2.11693
2.12508
0.00336328
2.12918
0.00315311
2.13327
0.0031726
2.13693
0.00282567
2.14005
0.00258557
2.14244
0.00231889
2.14344
0.0016679
2.14362
0.00188814
2.14152
0.000792392
2.13876
0.00176472
2.13363
0.000585192
2.12837
0.001868
2.12211
0.00102674
2.11685
0.00218783
2.11342
0.00131885
2.1119
0.00225242
2.11394
0.000924152
2.11911
0.00177002
2.12482
-0.00507991
2.13151
-0.00656745
2.12847
-0.0163243
2.12138
-0.0158695
2.10095
-0.0269091
2.07489
-0.0334427
2.05301
-0.0344746
2.02393
-0.0503836
2.01724
-0.0263726
2.01078
-0.0282236
2.00936
-0.0146371
2.02489
0.00678519
2.02961
0.00526398
2.03863
0.0194312
2.05591
0.0288691
2.06171
0.0175634
2.06844
0.0247891
2.08006
0.0340993
0.0368868
2.31146
0.00173805
-2.31
2.313
0.0018216
2.3144
0.00175515
2.31578
0.00178912
2.31692
0.00168903
2.31788
0.00162127
2.31863
0.00156933
2.31897
0.00133509
2.31938
0.00147053
2.31914
0.00103194
2.31943
0.00148088
2.31912
0.000890165
2.31935
0.00164306
2.31936
0.00101307
2.31966
0.00189049
2.31984
0.00114065
2.32011
0.00198032
2.32059
0.000446128
2.32147
0.000888406
2.31923
-0.00284591
2.31618
-0.00351068
2.31009
-0.0102377
2.30688
-0.0126601
2.29997
-0.0199988
2.29087
-0.0243432
2.27995
-0.023555
2.25935
-0.0297763
2.24981
-0.0168408
2.23906
-0.0174656
2.23266
-0.0082449
2.23704
0.00240591
2.23895
0.00335917
2.24631
0.0120679
2.25798
0.0171964
2.26243
0.0131169
2.26883
0.0183853
2.28026
0.0226776
0.0247766
2.5217
0.00061536
-2.52058
2.52288
0.00064398
2.52401
0.000625092
2.52515
0.000646997
2.52621
0.000635455
2.52719
0.000643448
2.52808
0.000678633
2.52875
0.00065807
2.52943
0.000797941
2.52973
0.000725518
2.5302
0.00101725
2.53021
0.000875322
2.53056
0.00129377
2.53053
0.0010465
2.53093
0.00148365
2.5311
0.000978472
2.53178
0.00129813
2.53197
0.000254857
2.53259
0.000268545
2.53155
-0.00180213
2.53033
-0.00229975
2.52524
-0.00514339
2.51858
-0.00599782
2.50713
-0.00855379
2.49321
-0.0104208
2.47996
-0.0103072
2.46345
-0.0132591
2.45527
-0.00866285
2.44693
-0.00913005
2.44372
-0.00503632
2.44681
-0.000682011
2.44941
0.000758414
2.45668
0.00480205
2.46648
0.00739147
2.47301
0.00658939
2.48203
0.00936293
2.49346
0.0112484
0.0129271
2.75232
-2.75171
2.75297
2.75359
2.75424
2.75488
2.75552
2.7562
2.75686
2.75765
2.75838
2.7594
2.76027
2.76157
2.76261
2.7641
2.76508
2.76637
2.76663
2.7669
2.76509
2.76279
2.75765
2.75165
2.7431
2.73268
2.72237
2.70911
2.70045
2.69132
2.68628
2.6856
2.68636
2.69116
2.69855
2.70514
2.71451
2.72575
0.423183
0.0510357
-0.416574
0.429446
0.0809843
0.436053
0.110579
0.441454
0.139403
0.44705
0.167169
0.452656
0.193596
0.452537
0.219877
0.239905
0.454975
0.0451873
-0.449126
0.460473
0.0754861
0.466129
0.104922
0.47211
0.133422
0.476773
0.162506
0.482793
0.187576
0.488001
0.214669
0.235659
0.491427
0.0404836
-0.486723
0.496283
0.0706293
0.501407
0.0997985
0.506749
0.12808
0.512748
0.156507
0.518724
0.1816
0.526351
0.207042
0.230154
0.531342
0.0363709
-0.527229
0.53572
0.0662513
0.540901
0.0946172
0.546082
0.122899
0.552661
0.149929
0.558625
0.175635
0.565857
0.19981
0.223129
0.575624
0.0328696
-0.572123
0.579755
0.0621207
0.584665
0.0897066
0.589772
0.117793
0.595953
0.143748
0.602246
0.169342
0.609526
0.19253
0.215391
0.624123
0.0296914
-0.620945
0.627992
0.0582518
0.632513
0.0851864
0.637656
0.112649
0.643591
0.137813
0.650112
0.162821
0.657439
0.185203
0.207512
0.677112
0.0269308
-0.674351
0.680725
0.0546385
0.684913
0.0809987
0.68998
0.107582
0.695721
0.132072
0.702281
0.156261
0.709582
0.177901
0.199447
0.735007
0.0245219
-0.732598
0.738332
0.051314
0.74231
0.0770201
0.747278
0.102614
0.752947
0.126403
0.759497
0.149711
0.766751
0.170648
0.191338
0.798324
0.0224118
-0.796214
0.801399
0.0482391
0.805252
0.0731667
0.810085
0.0977815
0.815657
0.120831
0.822143
0.143224
0.829369
0.163422
0.183197
0.867598
0.0205607
-0.865747
0.870464
0.0453732
0.874193
0.0694377
0.878906
0.0930684
0.884459
0.115279
0.890972
0.136711
0.898266
0.156128
0.174992
0.943398
0.0189347
-0.941772
0.946079
0.0426922
0.949731
0.0657864
0.954418
0.0883808
0.960057
0.10964
0.966673
0.130096
0.974112
0.148689
0.166626
1.02634
0.0175136
-1.02492
1.02891
0.0401228
1.0326
0.0620961
1.0374
0.0835758
1.04322
0.103825
1.05003
0.123277
1.05774
0.14098
0.157966
1.1172
0.0162117
-1.1159
1.11977
0.03756
1.12355
0.0583108
1.1285