/*--------------------------------*- C++ -*----------------------------------*\
| =========                 |                                                 |
| \\      /  F ield         | OpenFOAM: The Open Source CFD Toolbox           |
|  \\    /   O peration     | Version:  2312                                  |
|   \\  /    A nd           | Website:  www.openfoam.com                      |
|    \\/     M anipulation  |                                                 |
\*---------------------------------------------------------------------------*/
FoamFile
{
    version     2.0;
    format      ascii;
    arch        "LSB;label=32;scalar=64";
    class       surfaceScalarField;
    location    "36.5";
    object      phi;
}
// * * * * * * * * * * * * * * * * * * * * * * * * * * * * * * * * * * * * * //

dimensions      [0 3 -1 0 0 0 0];

oriented        oriented;

internalField   nonuniform List<scalar> 
26232
(
-0.000161433
0.00100999
-0.000848553
-0.000263424
0.00250045
-0.00239845
-6.6748e-05
0.00344686
-0.00364354
0.000600462
0.00378724
-0.00445445
0.00189783
0.00344849
-0.00474586
0.00399574
0.00234554
-0.00444346
0.00709918
0.000386367
-0.0034898
0.0114516
-0.00251659
-0.00183581
0.0173128
-0.00642834
0.000567131
0.0249195
-0.0113691
0.00376242
0.0344273
-0.0172961
0.00778824
0.0458653
-0.024095
0.012657
0.059108
-0.0315864
0.0183437
0.0738689
-0.0395455
0.0247845
0.0897272
-0.0477212
0.0318629
0.106139
-0.0558697
0.0394582
0.122543
-0.0637462
0.047342
0.138277
-0.0711923
0.0554581
0.152888
-0.0779772
0.0633664
0.165748
-0.0842092
0.071349
0.176759
-0.0894728
0.0784623
0.185404
-0.0946022
0.0859567
0.191746
-0.0980562
0.0917146
-0.102693
0.0994914
0.194947
-0.000203543
0.00121353
-0.000352548
0.00264945
-0.000134773
0.00322909
0.000711395
0.00294108
0.00244932
0.00171056
0.00536684
-0.000571972
0.00977159
-0.00401839
0.0159582
-0.00870319
0.0241427
-0.0146128
0.0343946
-0.021621
0.0465897
-0.0294912
0.0604017
-0.037907
0.0753321
-0.0465167
0.0907662
-0.0549796
0.106044
-0.0629992
0.12053
-0.0703558
0.133691
-0.0769072
0.145123
-0.0826238
0.154679
-0.087533
0.162285
-0.0918158
0.168357
-0.0955448
0.172922
-0.0991675
0.177219
-0.102353
-0.106413
0.18094
-0.000175489
0.00138902
-0.000203854
0.00267781
0.000296658
0.00272857
0.00168606
0.00155168
0.00433545
-0.000938828
0.00862171
-0.00485823
0.0148783
-0.010275
0.0233036
-0.0171285
0.0338756
-0.0251848
0.0463092
-0.0340546
0.060079
-0.043261
0.0744958
-0.0523238
0.0888114
-0.0608323
0.102324
-0.0684924
0.114474
-0.0751488
0.124907
-0.0807886
0.133515
-0.0855158
0.140439
-0.0895474
0.146005
-0.0930985
0.150683
-0.0964945
0.154906
-0.0997673
0.159102
-0.103364
0.163441
-0.106692
-0.110835
0.167863
-8.75352e-05
0.00147655
0.000160604
0.00242968
0.00119273
0.00169645
0.0034614
-0.000716988
0.00741734
-0.00489477
0.0134485
-0.0108894
0.0217603
-0.0185868
0.032259
-0.0276272
0.0445115
-0.0374374
0.0578104
-0.0473534
0.0713122
-0.0567628
0.0841984
-0.06521
0.0958136
-0.0724476
0.10576
-0.0784386
0.113935
-0.0833243
0.120509
-0.0873621
0.125857
-0.0908645
0.130421
-0.0941111
0.134647
-0.0973243
0.138771
-0.100618
0.143002
-0.103999
0.147199
-0.107561
0.15143
-0.110923
-0.11491
0.155505
4.00887e-05
0.00143646
0.000682809
0.00178696
0.00244804
-6.87828e-05
0.00585845
-0.0041274
0.0113761
-0.0104124
0.0192526
-0.0187659
0.0293636
-0.0286978
0.0411563
-0.0394198
0.0537624
-0.0500435
0.0662164
-0.0598074
0.0776775
-0.0682239
0.0875896
-0.0751221
0.0957488
-0.0806069
0.102281
-0.0849709
0.107541
-0.0885845
0.111979
-0.0917996
0.115992
-0.0948771
0.119855
-0.0979741
0.123675
-0.101145
0.127461
-0.104404
0.131181
-0.107719
0.134764
-0.111143
0.138369
-0.114528
-0.118327
0.141786
0.0001898
0.00124666
0.00132144
0.000655317
0.0039786
-0.00272594
0.00870624
-0.00885504
0.0158477
-0.0175538
0.0253106
-0.0282288
0.0364686
-0.0398558
0.0483159
-0.0512671
0.0597798
-0.0615074
0.0700144
-0.070042
0.0785692
-0.0767788
0.0854088
-0.0819616
0.090813
-0.0860111
0.0952124
-0.0893704
0.0990275
-0.0923996
0.102559
-0.095331
0.105968
-0.0982857
0.109301
-0.101307
0.11257
-0.104414
0.115775
-0.10761
0.118956
-0.1109
0.122135
-0.114322
0.125379
-0.117772
-0.121561
0.128612
0.000364869
0.000881796
0.00206927
-0.00104908
0.00573723
-0.00639391
0.0118368
-0.0149546
0.0203909
-0.0261079
0.0307754
-0.0386133
0.0418756
-0.0509561
0.0525056
-0.0618971
0.0617925
-0.0707943
0.0693543
-0.0776038
0.075264
-0.0826885
0.0798802
-0.0865778
0.0836433
-0.0897742
0.086924
-0.0926511
0.0899594
-0.095435
0.0928705
-0.0982422
0.0957088
-0.101124
0.0985046
-0.104103
0.101281
-0.10719
0.104056
-0.110384
0.106844
-0.113689
0.109615
-0.117092
0.112419
-0.120577
-0.124276
0.115134
0.000573593
0.000308203
0.00292828
-0.00340377
0.00766304
-0.0111287
0.0149986
-0.0222902
0.0244317
-0.0355409
0.0347937
-0.0489753
0.0447642
-0.0609266
0.053385
-0.070518
0.0602738
-0.077683
0.0655449
-0.0828749
0.0695852
-0.0867288
0.072829
-0.0898216
0.0756208
-0.092566
0.0781782
-0.0952085
0.0806195
-0.0978763
0.0830041
-0.100627
0.0853624
-0.103482
0.0877066
-0.106448
0.0900367
-0.10952
0.0923503
-0.112698
0.0946424
-0.115981
0.0969224
-0.119372
0.0992236
-0.122878
-0.126537
0.101485
0.000820099
-0.000511896
0.0038768
-0.00646047
0.00962097
-0.0168728
0.0178201
-0.0304894
0.02737
-0.0450908
0.0368065
-0.0584119
0.0450029
-0.0691229
0.0514845
-0.0769995
0.0563404
-0.0825389
0.0599569
-0.0864914
0.0627698
-0.0895417
0.0651248
-0.0921766
0.0672441
-0.0946852
0.0692501
-0.0972145
0.0712015
-0.0998277
0.0731213
-0.102547
0.0750146
-0.105376
0.0768806
-0.108314
0.0787219
-0.111361
0.0805454
-0.114521
0.0823636
-0.117799
0.0841842
-0.121193
0.0860171
-0.124711
-0.128344
0.0878241
0.00109695
-0.00160885
0.00485191
-0.0102154
0.0113969
-0.0234178
0.0198989
-0.0389914
0.0288117
-0.0540036
0.0367551
-0.0663553
0.0430485
-0.0754164
0.0476794
-0.0816304
0.0510067
-0.0858661
0.0534748
-0.0889595
0.055449
-0.0915159
0.0571678
-0.0938954
0.0587614
-0.0962788
0.0602894
-0.0987424
0.061774
-0.101312
0.0632228
-0.103995
0.0646399
-0.106793
0.0660305
-0.109704
0.0673995
-0.11273
0.0687521
-0.115874
0.0700891
-0.119136
0.0714143
-0.122518
0.0727306
-0.126027
-0.129627
0.0740139
0.00138684
-0.00299569
0.00575824
-0.0145868
0.0127536
-0.0304132
0.0209562
-0.0471939
0.0287041
-0.0617515
0.0349792
-0.0726303
0.0395616
-0.0799989
0.0427361
-0.0848049
0.0449506
-0.0880807
0.0466013
-0.0906102
0.0479546
-0.0928693
0.0491575
-0.0950983
0.0502781
-0.0973993
0.0513437
-0.0998081
0.0523656
-0.102334
0.0533491
-0.104979
0.0542977
-0.107741
0.0552135
-0.11062
0.0560993
-0.113616
0.0569589
-0.116733
0.0577982
-0.119975
0.0586238
-0.123344
0.0594294
-0.126833
-0.130409
0.0602111
0.00166715
-0.00466284
0.00649219
-0.0194119
0.0135129
-0.0374339
0.0209291
-0.0546101
0.0272727
-0.0680951
0.0319677
-0.0773254
0.035136
-0.0831672
0.0372003
-0.0868692
0.0385908
-0.0894712
0.0396163
-0.0916357
0.0404536
-0.0937066
0.0411873
-0.095832
0.0418525
-0.0980646
0.0424632
-0.100419
0.0430248
-0.102896
0.04354
-0.105494
0.0440114
-0.108213
0.0444426
-0.111051
0.0448386
-0.114012
0.0452057
-0.1171
0.0455489
-0.120319
0.0458691
-0.123664
0.0461617
-0.127125
0.0464308
-0.130678
-0.000137908
0.00330481
-0.0031669
-0.000598181
0.00820176
-0.00774149
-0.0013943
0.0117194
-0.0109233
-0.0024925
0.0140766
-0.0129784
-0.00383364
0.0155948
-0.0142537
-0.00535657
0.0166067
-0.0150838
-0.00701173
0.0173765
-0.0157213
-0.00876495
0.0180708
-0.0163175
-0.010595
0.0187704
-0.0169403
-0.0124888
0.0194977
-0.0176039
-0.0144369
0.0202436
-0.0182955
-0.0164312
0.0209844
-0.0189901
-0.0184635
0.0216895
-0.0196571
-0.020526
0.0223243
-0.0202619
-0.0226113
0.0228509
-0.0207656
-0.0247137
0.0232279
-0.0211254
-0.0268306
0.0234111
-0.0212942
-0.0289635
0.023354
-0.0212211
-0.0311204
0.0230088
-0.0208519
-0.0333169
0.0223284
-0.0201319
-0.0355757
0.0212654
-0.0190065
-0.0379336
0.0197684
-0.0174106
-0.0404717
0.0177878
-0.0152497
0.0153348
-0.0433494
-0.0124571
6.95102e-06
0.00329786
-0.000145277
0.00835399
-0.000553938
0.012128
-0.00123338
0.014756
-0.00214441
0.0165059
-0.00322522
0.0176876
-0.0044133
0.0185645
-0.00565803
0.0193155
-0.00692284
0.0200352
-0.00818198
0.0207568
-0.00941596
0.0214776
-0.0106083
0.0221767
-0.0117439
0.0228251
-0.0128091
0.0233895
-0.0137918
0.0238337
-0.014683
0.0241191
-0.0154773
0.0242054
-0.0161742
0.0240509
-0.0167791
0.0236137
-0.0173036
0.0228528
-0.017769
0.0217308
-0.0182049
0.0202043
-0.0186731
0.018256
0.0158987
-0.0192369
0.000148476
0.00314938
0.000316749
0.00818572
0.00033796
0.0121068
0.000143234
0.0149508
-0.000256457
0.0169056
-0.000803397
0.0182345
-0.00142617
0.0191873
-0.00205839
0.0199477
-0.00264681
0.0206236
-0.00315137
0.0212614
-0.00354152
0.0218678
-0.00379263
0.0224278
-0.00388382
0.0229163
-0.0037973
0.023303
-0.00351885
0.0235552
-0.00303856
0.0236388
-0.00235183
0.0235186
-0.00146005
0.0231591
-0.000370635
0.0225243
0.000904455
0.0215777
0.00235685
0.0202784
0.0039658
0.0185953
0.00572967
0.0164921
0.0139651
0.00766328
0.000270712
0.00287867
0.000741643
0.00771478
0.00119322
0.0116553
0.00151075
0.0146332
0.00167182
0.0167445
0.0017178
0.0181885
0.00172137
0.0191837
0.00176019
0.0199089
0.0019024
0.0204814
0.00220223
0.0209616
0.00270136
0.0213687
0.00343218
0.021697
0.00442041
0.0219281
0.00568631
0.0220371
0.00724483
0.0219967
0.009105
0.0217786
0.0112691
0.0213545
0.0137321
0.0206961
0.0164812
0.0197752
0.0194972
0.0185617
0.0227467
0.0170289
0.0262204
0.0151216
0.0298417
0.0128708
0.0100643
0.0337425
0.000359347
0.00251932
0.00107992
0.00699421
0.00192011
0.0108151
0.00273096
0.0138224
0.00345555
0.0160199
0.00411152
0.0175326
0.00476168
0.0185336
0.00548585
0.0191847
0.00636146
0.0196058
0.00745421
0.0198688
0.00881606
0.0200068
0.0104869
0.0200262
0.0124969
0.0199181
0.0148685
0.0196654
0.0176172
0.019248
0.0207517
0.0186442
0.0242733
0.0178328
0.0281782
0.0167913
0.0324496
0.0155037
0.0370852
0.0139261
0.0420237
0.0120904
0.0473369
0.00980847
0.0528386
0.00736907
0.00401634
0.0588866
0.000405729
0.0021136
0.00129449
0.00610545
0.00243562
0.00967393
0.00366671
0.0125913
0.0049038
0.0147828
0.00613676
0.0162996
0.0074087
0.0172616
0.00879053
0.0178029
0.0103598
0.0180365
0.0121877
0.0180409
0.0143333
0.0178612
0.0168427
0.0175169
0.0197504
0.0170103
0.0230816
0.0163342
0.0268534
0.0154761
0.0310773
0.0144203
0.035757
0.0131532
0.0409033
0.0116449
0.0464945
0.00991261
0.0526027
0.00781792
0.0591106
0.00558248
0.0663236
0.00259548
0.073764
-7.13714e-05
-0.00472246
0.0825028
0.000407571
0.00170602
0.00136578
0.00514724
0.00268382
0.00835589
0.00421032
0.0110648
0.00584929
0.0131438
0.00756701
0.0145819
0.00938226
0.0154464
0.0113477
0.0158375
0.0135307
0.0158534
0.0159992
0.0155724
0.0188131
0.0150473
0.0220214
0.0143086
0.0256619
0.0133698
0.0297635
0.0122327
0.0343481
0.0108915
0.0394374
0.00933096
0.0450463
0.00754432
0.0512292
0.00546203
0.0579596
0.00318216
0.0654124
0.000365199
0.0734202
-0.00242536
0.0827282
-0.00671252
0.0924133
-0.00975645
-0.01656
0.104251
0.00036792
0.00133811
0.00129283
0.00422233
0.00264399
0.00700473
0.00430291
0.00940588
0.00618022
0.0112665
0.00822977
0.0125323
0.010449
0.0132272
0.0128685
0.0134179
0.0155384
0.0131836
0.018515
0.0125958
0.0218531
0.0117092
0.0256014
0.0105603
0.0298028
0.00916842
0.0344976
0.00753789
0.0397281
0.00566089
0.0455515
0.00350764
0.0520098
0.00108602
0.0592553
-0.00178346
0.06732
-0.00488254
0.0766073
-0.00892219
0.0867585
-0.0125765
0.0988253
-0.0187793
0.111581
-0.0225118
-0.0321527
0.127173
0.000292677
0.00104543
0.00108971
0.00342529
0.00233104
0.0057634
0.00394577
0.00779115
0.00586755
0.00934474
0.00805205
0.0103478
0.0104846
0.0107946
0.0131781
0.0107244
0.0161658
0.0101959
0.0194933
0.00926829
0.0232134
0.00798912
0.0273852
0.00638856
0.0320777
0.00447597
0.0373718
0.00224373
0.04336
-0.000327322
0.0502131
-0.00334546
0.0580798
-0.00678061
0.0671437
-0.0108474
0.0775574
-0.0152962
0.0895972
-0.020962
0.103221
-0.0262002
0.118814
-0.0343724
0.135756
-0.0394535
-0.0513496
0.154953
0.000188828
0.0008566
0.000781567
0.00283256
0.00179238
0.00475259
0.00320462
0.00637891
0.00498607
0.00756329
0.00710827
0.00822562
0.00955956
0.00834332
0.0123506
0.00793335
0.0155154
0.00703109
0.0191114
0.00567224
0.0232214
0.00387921
0.0279523
0.00165763
0.0334467
-0.00101844
0.0398877
-0.00419728
0.0474733
-0.00791295
0.0563817
-0.0122538
0.0668117
-0.0172107
0.0789154
-0.0229511
0.0928103
-0.0291911
0.108392
-0.0365432
0.125851
-0.0436594
0.144374
-0.0528958
0.164512
-0.059591
-0.0714983
0.18466
6.60828e-05
0.000790517
0.00040782
0.00249082
0.00111363
0.00404678
0.00222298
0.00526955
0.00374647
0.00603981
0.00568881
0.00628328
0.00806747
0.00596467
0.0109263
0.00507453
0.0143452
0.00361221
0.018444
0.00157342
0.0233877
-0.00106453
0.0293829
-0.0043375
0.0366426
-0.0082782
0.0453702
-0.0129249
0.0557375
-0.0182802
0.0678451
-0.0243614
0.0816877
-0.0310534
0.0971724
-0.0384358
0.114091
-0.0461094
0.132021
-0.0544733
0.150854
-0.0624923
0.16945
-0.0714917
0.188582
-0.0787235
-0.0880154
0.205099
-5.80359e-05
3.43279e-05
0.000437572
0.00125267
0.00254662
0.00438644
0.00686131
0.0101
0.0142794
0.0196152
0.0263389
0.0346584
0.0447239
0.0565835
0.0701662
0.085263
0.101552
0.118574
0.135831
0.152706
0.168676
0.183141
0.196133
0.207609
-0.0457957
0.013958
-0.0115117
-0.048278
0.00617166
-0.00368934
-0.0509566
-0.0026284
0.00530697
-0.0537793
-0.0135674
0.0163901
-0.0568879
-0.0259829
0.0290916
-0.0603306
-0.0401632
0.0436059
-0.0640302
-0.055948
0.0596475
-0.0678848
-0.0731335
0.0769881
-0.0717055
-0.0912851
0.0951059
-0.0751727
-0.109787
0.113254
-0.0776891
-0.127875
0.130391
-0.0782211
-0.144596
0.145128
-0.0753854
-0.158473
0.155637
-0.0678263
-0.16731
0.159751
-0.0548371
-0.168434
0.155445
-0.0370332
-0.159435
0.141631
-0.0164954
-0.139483
0.118945
0.00440451
-0.109905
0.0890052
0.0240604
-0.0733301
0.0536742
0.0413136
-0.0291913
0.0119381
0.0570484
0.0238187
-0.0395535
0.0726983
0.0848441
-0.100494
0.087339
0.143048
-0.157689
0.099218
0.184099
-0.195978
0.106894
0.203049
-0.210726
0.111244
0.203603
-0.207953
0.112734
0.193134
-0.194624
0.112214
0.178905
-0.178385
0.113063
0.159834
-0.160684
0.113576
0.138331
-0.138845
0.108127
0.123694
-0.118245
0.0989625
0.116289
-0.107125
0.0956681
0.101614
-0.0983195
0.103259
0.0719024
-0.0794929
0.118017
0.0317662
-0.0465242
0.133582
-0.00664318
-0.00892206
0.146069
-0.0379487
0.0254614
0.154504
-0.0594237
0.0509887
0.159439
-0.0743184
0.0693834
0.161948
-0.0834823
0.0809733
0.163004
-0.0907027
0.0896466
0.163313
-0.095071
0.0947621
0.163311
-0.0992632
0.0992648
0.163233
-0.100519
0.100598
0.163202
-0.101636
0.101667
0.163268
-0.0991655
0.0990996
0.163498
-0.0970382
0.0968086
0.163926
-0.0909923
0.0905639
0.164608
-0.0864137
0.0857322
0.16552
-0.0781757
0.0772631
0.166647
-0.0733007
0.0721742
0.167843
-0.0649023
0.0637065
0.169011
-0.0620738
0.0609052
0.170004
-0.0555969
0.0546045
0.17079
-0.0561373
0.0553516
0.171308
-0.0509694
0.0504508
0.17151
-0.0528921
0.0526905
0.171463
-0.047627
0.0476735
0.171106
-0.0498436
0.0502007
-0.0449471
0.0453551
-0.0210746
0.0157957
-0.0233776
0.00847463
-0.0261527
0.00014669
-0.0290582
-0.0106619
-0.0323536
-0.0226875
-0.036172
-0.0363449
-0.0404158
-0.0517041
-0.0450788
-0.0684706
-0.0502129
-0.086151
-0.0559019
-0.104098
-0.0620884
-0.121688
-0.068215
-0.138469
-0.0729843
-0.153703
-0.0742676
-0.166027
-0.0697766
-0.172925
-0.0584232
-0.170788
-0.0411649
-0.156742
-0.0209492
-0.130121
-0.00112805
-0.0931513
0.0186306
-0.0489499
0.0376283
0.00482101
0.0563417
0.0661307
0.0744987
0.124891
0.089668
0.168929
0.100553
0.192164
0.107135
0.197021
0.109433
0.190836
0.110433
0.177905
0.111744
0.158523
0.108431
0.141644
0.0989413
0.133184
0.0915619
0.123669
0.0948083
0.0983674
0.108012
0.0586985
0.124681
0.0150974
0.139509
-0.0214715
0.150341
-0.0487803
0.157179
-0.0662615
0.160909
-0.078049
0.162618
-0.0851906
0.163188
-0.0912728
0.163226
-0.0951088
0.163092
-0.0991299
0.162974
-0.100401
0.16297
-0.101632
0.163109
-0.0993041
0.163432
-0.0973608
0.163947
-0.091508
0.164693
-0.0871594
0.165652
-0.0791348
0.16682
-0.0744691
0.168075
-0.0661568
0.169306
-0.0633053
0.170368
-0.0566586
0.171207
-0.0569763
0.171793
-0.0515549
0.172072
-0.053172
0.172114
-0.0476683
0.17186
-0.04959
-0.0445668
0.00660303
0.016856
0.00449708
0.0105806
0.00200776
0.00263601
-0.00122379
-0.00743031
-0.00478071
-0.0191305
-0.00881626
-0.0323093
-0.0131441
-0.0473763
-0.0177178
-0.0638969
-0.0226624
-0.0812065
-0.0283158
-0.0984442
-0.0352932
-0.114711
-0.0441751
-0.129587
-0.0545263
-0.143352
-0.0644479
-0.156105
-0.070638
-0.166735
-0.0697231
-0.171703
-0.0601504
-0.166314
-0.0435299
-0.146741
-0.0234946
-0.113187
-0.00364167
-0.0688029
0.0176676
-0.0164883
0.0395291
0.0442692
0.0607812
0.103639
0.0791893
0.150521
0.093048
0.178305
0.101288
0.188781
0.105362
0.186762
0.108266
0.175001
0.107771
0.159018
0.0999317
0.149484
0.0898006
0.143315
0.0878194
0.12565
0.0976473
0.0885395
0.114211
0.0421344
0.130938
-0.0016294
0.144343
-0.0348767
0.153502
-0.0579386
0.158946
-0.0717057
0.161681
-0.0807842
0.162739
-0.0862487
0.162912
-0.0914456
0.162724
-0.094921
0.162481
-0.0988864
0.162333
-0.100254
0.162358
-0.101657
0.162569
-0.0995149
0.162989
-0.0977809
0.163609
-0.0921282
0.164446
-0.0879958
0.165473
-0.0801625
0.166688
-0.0756836
0.167989
-0.0674574
0.169269
-0.0645856
0.170394
-0.0577838
0.171297
-0.0578795
0.171965
-0.052223
0.172353
-0.0535595
0.172512
-0.0478278
0.172411
-0.0494886
-0.0442759
0.0327878
0.0178106
0.0310655
0.0123029
0.0286833
0.0050182
0.0254973
-0.00424433
0.0219919
-0.0156251
0.0180984
-0.0284158
0.014011
-0.043289
0.00987636
-0.0597622
0.00566986
-0.077
0.00107204
-0.0938464
-0.00465942
-0.108979
-0.012693
-0.121554
-0.0240415
-0.132004
-0.0385975
-0.141549
-0.0538288
-0.151504
-0.0650955
-0.160436
-0.0676937
-0.163716
-0.0597449
-0.15469
-0.0432957
-0.129636
-0.0227951
-0.0893035
-0.00142602
-0.0378574
0.0229994
0.0198438
0.0465123
0.0801264
0.0674612
0.129572
0.0836571
0.16211
0.094215
0.178223
0.101115
0.179862
0.10439
0.171726
0.100252
0.163157
0.0899769
0.159758
0.0833271
0.149965
0.0881785
0.120798
0.102803
0.0739153
0.120561
0.0243762
0.1363
-0.0173682
0.148081
-0.0466576
0.155703
-0.0655614
0.159952
-0.0759546
0.161854
-0.0826856
0.162368
-0.0867632
0.162204
-0.0912814
0.161821
-0.094538
0.161481
-0.0985465
0.161311
-0.100084
0.16137
-0.101715
0.161656
-0.0998006
0.162176
-0.0983011
0.162909
-0.0928612
0.163854
-0.0889408
0.164975
-0.0812832
0.166258
-0.0769668
0.167619
-0.0688183
0.168958
-0.0659245
0.170156
-0.0589817
0.17114
-0.0588633
0.171905
-0.0529883
0.17242
-0.0540744
0.172716
-0.0481244
0.172795
-0.049567
-0.0441196
0.0580985
0.0185987
0.0570181
0.0133832
0.0552058
0.00683049
0.0525035
-0.00154204
0.0493946
-0.0125161
0.0458326
-0.0248538
0.0419808
-0.0394371
0.0380141
-0.0557955
0.0340265
-0.0730124
0.029825
-0.0896449
0.0249738
-0.104128
0.0185771
-0.115157
0.00904965
-0.122476
-0.00471658
-0.127783
-0.0228115
-0.133409
-0.0426015
-0.140646
-0.0582728
-0.148045
-0.0637992
-0.149164
-0.0566635
-0.136771
-0.0395677
-0.106399
-0.017419
-0.0600061
0.00745403
-0.00502919
0.0332178
0.0543627
0.05602
0.10677
0.0744505
0.143679
0.0876991
0.164975
0.0960877
0.171473
0.0972855
0.170528
0.0901401
0.170302
0.0813644
0.168534
0.0809274
0.150402
0.0917584
0.109967
0.108907
0.0567668
0.126379
0.00690382
0.140681
-0.03167
0.15084
-0.056817
0.157075
-0.0717962
0.160285
-0.0791639
0.161474
-0.0838746
0.161525
-0.086815
0.161072
-0.0908278
0.160519
-0.0939849
0.160095
-0.0981229
0.159911
-0.0998997
0.160009
-0.101813
0.160375
-0.100167
0.161001
-0.0989273
0.161855
-0.0937146
0.162921
-0.0900072
0.164155
-0.0825169
0.165532
-0.0783438
0.166977
-0.0702638
0.168398
-0.0673455
0.16969
-0.0602735
0.170778
-0.0599516
0.171661
-0.0538709
0.172322
-0.0547357
0.172773
-0.0485751
0.173048
-0.0498426
-0.0441324
0.0827222
0.0183794
0.0826206
0.0134849
0.081913
0.00753802
0.080246
0.00012498
0.0782618
-0.0105319
0.0756861
-0.0222781
0.072592
-0.036343
0.0690443
-0.0522478
0.0650772
-0.0690453
0.0606649
-0.0852325
0.0556196
-0.099083
0.0495673
-0.109105
0.0417623
-0.114671
0.0305327
-0.116554
0.0138273
-0.116704
-0.00788527
-0.118934
-0.0311639
-0.124766
-0.0501411
-0.130187
-0.0573953
-0.129517
-0.0503636
-0.113431
-0.031839
-0.0785307
-0.0078177
-0.0290505
0.0195979
0.0269471
0.0446068
0.0817612
0.0653608
0.122925
0.0803026
0.150033
0.0879449
0.163831
0.0868725
0.171601
0.0800589
0.177116
0.0763686
0.172224
0.0825183
0.144252
0.0972701
0.0952156
0.115159
0.0388783
0.131441
-0.00937903
0.144148
-0.0443763
0.152732
-0.0654007
0.157696
-0.0767602
0.159989
-0.0814574
0.160566
-0.0844517
0.160225
-0.0864737
0.159524
-0.0901273
0.158825
-0.0932856
0.15833
-0.0976283
0.158138
-0.0997078
0.158282
-0.101957
0.158735
-0.100621
0.159476
-0.0996676
0.160459
-0.0946983
0.161659
-0.0912071
0.163023
-0.0838806
0.164516
-0.0798372
0.166072
-0.0718191
0.167602
-0.0688754
0.169013
-0.0616853
0.170234
-0.061172
0.171258
-0.0548956
0.172088
-0.0555651
0.172712
-0.0491997
0.1732
-0.0503302
-0.0443427
0.105592
0.0170377
0.106587
0.0124907
0.107001
0.00712338
0.106747
0.000379036
0.105774
-0.00955874
0.104172
-0.0206762
0.10188
-0.0340505
0.0988534
-0.0492216
0.0950912
-0.0652831
0.0906113
-0.0807527
0.0853548
-0.0938265
0.0791493
-0.102899
0.0716692
-0.107191
0.0621419
-0.107026
0.0492613
-0.103823
0.0308453
-0.100518
0.00605472
-0.0999754
-0.0194938
-0.104638
-0.0399813
-0.10903
-0.047969
-0.105443
-0.0405663
-0.0859334
-0.0214617
-0.048155
0.00374792
0.00173747
0.0305609
0.0549482
0.0529215
0.100564
0.0688241
0.13413
0.0760551
0.1566
0.0755563
0.1721
0.0729019
0.17977
0.0758197
0.169307
0.0871356
0.132936
0.103721
0.0786299
0.121101
0.0214987
0.135826
-0.0241044
0.146769
-0.0553193
0.153807
-0.0724381
0.157596
-0.0805494
0.159083
-0.0829448
0.159142
-0.0845103
0.158474
-0.0858056
0.157569
-0.0892224
0.156748
-0.0924648
0.156197
-0.0970771
0.156006
-0.0995171
0.156201
-0.102151
0.156749
-0.101169
0.157613
-0.100531
0.158738
-0.0958234
0.160085
-0.092554
0.161595
-0.0853906
0.163226
-0.081468
0.164914
-0.073508
0.166579
-0.0705403
0.168137
-0.0632429
0.169517
-0.0625523
0.170711
-0.0560893
0.171732
-0.0565859
0.172553
-0.0500209
0.173269
-0.0510459
-0.0447764
0.128829
0.0153821
0.130349
0.0109711
0.131397
0.0060748
0.131981
-0.000204655
0.131644
-0.00922224
0.130619
-0.0196509
0.128666
-0.0320972
0.125661
-0.046217
0.121537
-0.0611591
0.116341
-0.0755566
0.110236
-0.0877212
0.103425
-0.0960886
0.0960096
-0.0997755
0.087742
-0.0987587
0.0778067
-0.0938877
0.0643532
-0.0870641
0.0455596
-0.0811817
0.0202594
-0.0793379
-0.0068779
-0.0818924
-0.0273627
-0.0849585
-0.0349821
-0.078314
-0.0274138
-0.0557233
-0.00904222
-0.0166341
0.014818
0.0310879
0.0376407
0.0777418
0.0547907
0.11698
0.0639842
0.147406
0.0672561
0.168828
0.0707137
0.176313
0.0794285
0.160592
0.0937631
0.118602
0.110585
0.0618078
0.126632
0.00545185
0.13947
-0.0369429
0.148548
-0.0643973
0.154069
-0.0779591
0.156781
-0.0832613
0.157573
-0.0837366
0.157207
-0.0841439
0.156279
-0.0848784
0.155214
-0.0881573
0.154299
-0.0915493
0.153707
-0.0964853
0.153527
-0.0993374
0.153781
-0.102405
0.154431
-0.101819
0.155427
-0.101527
0.156705
-0.0971016
0.158213
-0.0940624
0.159887
-0.0870641
0.161675
-0.0832567
0.163521
-0.0753533
0.165345
-0.0723648
0.167074
-0.0649713
0.16864
-0.0641183
0.170029
-0.0574786
0.171265
-0.057822
0.172307
-0.0510631
0.173269
-0.0520073
-0.0454582
0.155654
0.0146809
0.156552
0.0100729
0.157043
0.00558375
0.157136
-0.000297792
0.156488
-0.00857407
0.155049
-0.0182116
0.15253
-0.029579
0.148722
-0.0424083
0.143487
-0.0559245
0.136872
-0.0689414
0.129148
-0.079997
0.120786
-0.0877268
0.11236
-0.0913496
0.10432
-0.0907184
0.0965626
-0.0861307
0.0878374
-0.0783389
0.0758555
-0.0691998
0.0580509
-0.0615333
0.0343384
-0.0581799
0.0079173
-0.0585374
-0.0116183
-0.0587785
-0.0182084
-0.0491332
-0.0110243
-0.0238182
0.00536097
0.0147027
0.0258712
0.0572315
0.043572
0.0992796
0.0559608
0.135018
0.0643507
0.160438
0.0733929
0.16727
0.0859847
0.148
0.101499
0.103088
0.117549
0.0457573
0.131513
-0.00851146
0.142279
-0.0477092
0.149434
-0.0715527
0.153499
-0.0820234
0.155247
-0.0850101
0.155461
-0.08395
0.154766
-0.0834488
0.153648
-0.0837611
0.152469
-0.086978
0.151488
-0.0905679
0.150872
-0.0958702
0.150714
-0.0991793
0.151035
-0.102726
0.151794
-0.102578
0.152932
-0.102664
0.154375
-0.0985452
0.15606
-0.095747
0.157914
-0.0889187
0.159882
-0.085224
0.161906
-0.0773778
0.163914
-0.0743726
0.165837
-0.0668942
0.167613
-0.065894
0.169223
-0.0590891
0.170697
-0.0592962
0.171985
-0.0523511
0.173211
-0.053233
-0.0464122
0.183795
0.0155462
0.18317
0.0106979
0.182104
0.00664965
0.180775
0.00103165
0.178681
-0.00648075
0.175749
-0.0152796
0.171721
-0.0255507
0.166327
-0.0370142
0.15941
-0.0490075
0.151047
-0.0605788
0.141603
-0.0705527
0.131678
-0.0778022
0.121996
-0.0816675
0.113244
-0.0819664
0.105883
-0.0787695
0.0997437
-0.0721994
0.0934165
-0.0628726
0.084031
-0.0521478
0.0688133
-0.0429623
0.047713
-0.0374371
0.0246327
-0.0356982
0.00709346
-0.031594
0.00175972
-0.0184845
0.00924383
0.00721855
0.0239146
0.0425608
0.0405694
0.0826247
0.0554619
0.120125
0.0680918
0.147808
0.0808369
0.154525
0.0949679
0.133869
0.10993
0.0881254
0.124254
0.0314339
0.135848
-0.0201058
0.144189
-0.05605
0.149371
-0.0767354
0.152061
-0.0847134
0.152977
-0.0859261
0.152739
-0.0837116
0.151817
-0.0825268
0.150584
-0.0825283
0.149342
-0.0857352
0.148326
-0.0895524
0.147707
-0.0952512
0.147582
-0.0990543
0.147977
-0.103121
0.148853
-0.103455
0.150142
-0.103952
0.151763
-0.100166
0.153638
-0.0976225
0.155692
-0.0909721
0.157858
-0.0873906
0.160085
-0.0796042
0.162299
-0.076587
0.16444
-0.0690351
0.166448
-0.0679025
0.168304
-0.060945
0.170039
-0.0610306
0.171597
-0.053909
0.173106
-0.0547424
-0.0476618
0.20408
0.0165654
0.202217
0.0125611
0.199747
0.00911982
0.196802
0.00397611
0.19313
-0.00280879
0.188359
-0.0105084
0.182419
-0.0196112
0.175138
-0.0297328
0.166455
-0.0403247
0.156533
-0.050657
0.145817
-0.0598365
0.134972
-0.0669572
0.124721
-0.071416
0.115616
-0.0728614
0.108088
-0.0712416
0.102739
-0.066851
0.0992818
-0.0594149
0.096115
-0.048981
0.0904468
-0.0372941
0.0796805
-0.0266708
0.0629756
-0.0189932
0.044568
-0.0131864
0.0312474
-0.00516389
0.0275837
0.0108823
0.0340095
0.036135
0.0469599
0.0696743
0.0620478
0.105037
0.076587
0.133269
0.0902933
0.140819
0.104272
0.11989
0.118148
0.0742495
0.130236
0.0193459
0.139121
-0.0289904
0.144943
-0.0618719
0.148223
-0.0800157
0.149701
-0.0861912
0.149957
-0.0861824
0.149414
-0.0831687
0.148378
-0.0814905
0.14711
-0.0812602
0.145858
-0.0844833
0.144843
-0.0885373
0.144241
-0.0946493
0.144161
-0.0989742
0.144638
-0.103598
0.145638
-0.104454
0.147084
-0.105399
0.148891
-0.101973
0.15097
-0.0997011
0.153237
-0.0932399
0.155621
-0.0897746
0.158071
-0.0820534
0.160513
-0.0790297
0.162895
-0.0714166
0.165158
-0.0701653
0.167283
-0.06307
0.169299
-0.0630465
0.17115
-0.0557606
0.172963
-0.0565549
-0.0492299
0.207144
0.0170299
0.205147
0.0145587
0.202714
0.011552
0.199584
0.00710636
0.195577
0.0011986
0.190405
-0.00533652
0.18392
-0.0131263
0.176035
-0.0218481
0.166798
-0.0310871
0.156455
-0.0403141
0.145509
-0.0488904
0.134652
-0.0561008
0.124606
-0.0613697
0.115944
-0.0641991
0.108993
-0.0642912
0.103774
-0.0616316
0.100359
-0.0560002
0.0987966
-0.0474183
0.0977254
-0.0362229
0.0945602
-0.0235056
0.0870361
-0.0114691
0.0755385
-0.00168885
0.0629726
0.00740206
0.0549984
0.0188564
0.0546851
0.0364483
0.0620983
0.0622611
0.0743781
0.0927574
0.0881551
0.119492
0.10201
0.126964
0.115566
0.106334
0.12747
0.0623459
0.136584
0.0102319
0.142056
-0.0344624
0.145076
-0.0648919
0.146455
-0.0813952
0.14681
-0.0865462
0.146494
-0.085866
0.145709
-0.0823838
0.144603
-0.0803843
0.143331
-0.0799878
0.142094
-0.0832466
0.141097
-0.08754
0.140525
-0.0940778
0.140498
-0.0989473
0.141064
-0.104164
0.14219
-0.10558
0.143798
-0.107007
0.145797
-0.103972
0.148087
-0.101991
0.15058
-0.0957326
0.153195
-0.0923902
0.155884
-0.0847421
0.158574
-0.0817194
0.161215
-0.0740584
0.163753
-0.0727025
0.166168
-0.0654855
0.168486
-0.0653644
0.170654
-0.0579286
0.172789
-0.0586899
-0.051139
0.212476
0.0169137
-0.21236
0.213367
0.0136671
0.214315
0.0106046
0.214942
0.00647893
0.214607
0.0015337
0.213916
-0.00464513
0.212332
-0.0115427
0.209579
-0.0190951
0.205557
-0.0270648
0.20023
-0.034987
0.193693
-0.0423533
0.18619
-0.0485986
0.178051
-0.0532307
0.169642
-0.0557893
0.161304
-0.0559537
0.15322
-0.0535471
0.145666
-0.0484464
0.138931
-0.0406833
0.132989
-0.030281
0.126859
-0.0173756
0.118664
-0.00327402
0.106887
0.0100876
0.0923535
0.0219358
0.0779746
0.0332353
0.067692
0.0467308
0.0641729
0.0657802
0.0680571
0.0888732
0.0796156
0.107933
0.0982087
0.108371
0.120714
0.0838284
0.142021
0.0410395
0.157895
-0.00564205
0.167864
-0.0444313
0.17231
-0.0693379
0.172745
-0.0818304
0.170772
-0.0845738
0.167692
-0.0827858
0.164348
-0.0790397
0.161165
-0.0772007
0.158323
-0.0771464
0.155875
-0.0807985
0.153842
-0.0855068
0.152217
-0.0924534
0.151006
-0.0977356
0.150182
-0.10334
0.149728
-0.105126
0.149589
-0.106868
0.149738
-0.104121
0.150117
-0.10237
0.150703
-0.0963184
0.151432
-0.0931195
0.152285
-0.0855951
0.153192
-0.0826262
0.154116
-0.0749825
0.154984
-0.0735705
0.15577
-0.0662713
0.15648
-0.066074
0.157063
-0.0585123
0.157617
-0.0592432
-0.051492
0.221627
0.0164467
-0.22116
0.222035
0.0132596
0.222727
0.00991222
0.223053
0.0061528
0.223007
0.00158002
0.222114
-0.00375234
0.220337
-0.00976562
0.217538
-0.0162955
0.213584
-0.023111
0.208466
-0.0298688
0.202279
-0.036167
0.195221
-0.0415401
0.187565
-0.0455747
0.179621
-0.0478452
0.171721
-0.0480544
0.164175
-0.0460009
0.15726
-0.0415315
0.151176
-0.0345992
0.146105
-0.0252096
0.141928
-0.0131983
0.137635
0.00101842
0.131466
0.0162565
0.122583
0.0308196
0.11204
0.0437781
0.103026
0.0557448
0.0991489
0.0696572
0.102649
0.0853732
0.114174
0.0964081
0.131885
0.0906595
0.151685
0.0640289
0.169216
0.0235085
0.181565
-0.0179911
0.18786
-0.0507264
0.189052
-0.0705301
0.186906
-0.0796845
0.183172
-0.0808394
0.179021
-0.0786344
0.175057
-0.0750764
0.1715
-0.0736436
0.168402
-0.0740478
0.165749