/*--------------------------------*- C++ -*----------------------------------*\
| =========                 |                                                 |
| \\      /  F ield         | OpenFOAM: The Open Source CFD Toolbox           |
|  \\    /   O peration     | Version:  2312                                  |
|   \\  /    A nd           | Website:  www.openfoam.com                      |
|    \\/     M anipulation  |                                                 |
\*---------------------------------------------------------------------------*/
FoamFile
{
    version     2.0;
    format      ascii;
    arch        "LSB;label=32;scalar=64";
    class       volVectorField;
    location    "36.5";
    object      U;
}
// * * * * * * * * * * * * * * * * * * * * * * * * * * * * * * * * * * * * * //

dimensions      [0 1 -1 0 0 0 0];

internalField   nonuniform List<vector> 
13248
(
(-0.0125935 0.00980785 3.92113e-20)
(-0.0322509 0.0252762 0)
(-0.0442447 0.0370367 -6.80472e-20)
(-0.0462761 0.0463324 6.30095e-20)
(-0.0372686 0.0536861 5.77401e-20)
(-0.0164897 0.0593964 0)
(0.0168552 0.0639965 0)
(0.0636398 0.0682158 1.33887e-19)
(0.124693 0.0728901 -2.47144e-22)
(0.200469 0.0788131 -1.14999e-19)
(0.290598 0.0865693 1.07483e-19)
(0.393545 0.0964017 -6.67289e-20)
(0.506512 0.10817 0)
(0.625658 0.121331 -1.20177e-19)
(0.7464 0.135061 2.25724e-19)
(0.864088 0.148223 -5.33028e-20)
(0.973859 0.159869 -1.02133e-19)
(1.07227 0.168327 9.52102e-20)
(1.15518 0.174267 0)
(1.22191 0.173018 0)
(1.26985 0.173256 0)
(1.30113 0.156381 0)
(1.31533 0.156827 3.31278e-20)
(1.31881 0.116529 1.26667e-19)
(-0.0160081 0.0108515 -1.17686e-19)
(-0.0365082 0.0239928 7.42551e-20)
(-0.0454697 0.0313399 -4.17538e-22)
(-0.0410562 0.0359915 -9.48818e-20)
(-0.0219069 0.0395458 -5.76629e-20)
(0.0133398 0.0430485 -5.3271e-20)
(0.0661391 0.0475019 -9.69365e-20)
(0.137547 0.0538663 9.02539e-20)
(0.22758 0.0629442 0)
(0.334612 0.0751919 3.0081e-23)
(0.455124 0.0905521 -1.8974e-22)
(0.583953 0.1084 6.64539e-20)
(0.714937 0.127618 0)
(0.8417 0.146739 0)
(0.95842 0.164235 8.35912e-20)
(1.06029 0.17858 -1.55893e-19)
(1.14412 0.188702 9.77312e-20)
(1.20815 0.193822 -9.11125e-20)
(1.25265 0.193581 -4.15105e-20)
(1.27925 0.188777 -7.94739e-20)
(1.29086 0.179096 -3.52599e-20)
(1.29209 0.166733 -6.73487e-20)
(1.28572 0.153834 9.40655e-20)
(1.27972 0.135826 2.7994e-20)
(-0.0194832 0.0118681 0)
(-0.0391776 0.0234394 0)
(-0.0415008 0.0280342 3.40623e-20)
(-0.0252803 0.030106 3.10555e-20)
(0.011044 0.0322346 -5.86196e-22)
(0.0691744 0.0362066 -5.43596e-20)
(0.150272 0.0434431 0)
(0.2538 0.0549388 -4.49283e-20)
(0.3766 0.0710458 4.18079e-20)
(0.512755 0.0913012 2.29002e-22)
(0.654363 0.114428 -7.13429e-20)
(0.792846 0.138548 -6.63942e-20)
(0.920284 0.161529 -1.10835e-22)
(1.03045 0.181353 -5.78179e-20)
(1.11937 0.196463 1.34684e-19)
(1.18563 0.205831 0)
(1.2301 0.209532 -9.32296e-20)
(1.25582 0.207336 4.45807e-20)
(1.26705 0.201789 4.14671e-20)
(1.26882 0.191166 0)
(1.2657 0.182168 3.56968e-20)
(1.26136 0.167133 -1.25969e-19)
(1.25796 0.160693 1.17638e-19)
(1.25562 0.143531 7.86882e-20)
(-0.0221041 0.0121718 -4.02705e-20)
(-0.0381825 0.0222397 -3.84506e-20)
(-0.0293905 0.025494 3.47823e-20)
(0.00473717 0.0271178 0)
(0.0656329 0.0305125 0)
(0.154338 0.0380683 -7.74876e-22)
(0.26973 0.0513106 0)
(0.406979 0.0706551 -1.36724e-19)
(0.557395 0.0952066 1.26163e-19)
(0.709921 0.122893 -1.54968e-19)
(0.853439 0.150943 3.56653e-20)
(0.978829 0.176525 0)
(1.08023 0.197304 6.08717e-20)
(1.15546 0.211858 -1.12975e-19)
(1.20576 0.219732 2.66924e-20)
(1.23504 0.221581 7.25517e-20)
(1.2488 0.21837 -8.06167e-22)
(1.2529 0.212059 -8.08983e-20)
(1.25234 0.203387 0)
(1.25063 0.194226 0)
(1.24901 0.184793 -3.12727e-20)
(1.24847 0.174242 2.86697e-20)
(1.24606 0.167552 1.07541e-19)
(1.24597 0.15308 -1.00374e-19)
(-0.0230943 0.0114008 -4.16754e-20)
(-0.031657 0.0195465 -3.88876e-20)
(-0.00649749 0.0226175 1.07563e-19)
(0.0520193 0.0260013 -6.50364e-20)
(0.144391 0.0336917 6.02495e-20)
(0.268937 0.0482616 1.0911e-19)
(0.419171 0.0705121 -7.60107e-20)
(0.583265 0.0991726 -9.23088e-20)
(0.746441 0.131232 1.05482e-21)
(0.894732 0.162869 1.16876e-19)
(1.01802 0.190527 0)
(1.11143 0.211711 3.25217e-20)
(1.17521 0.225375 0)
(1.21361 0.231825 -5.48289e-20)
(1.23315 0.232418 7.67993e-20)
(1.24078 0.228812 8.58618e-22)
(1.24236 0.222839 -2.09526e-20)
(1.2417 0.215407 4.02696e-20)
(1.2406 0.207656 3.51562e-20)
(1.2392 0.199108 -3.21751e-20)
(1.23734 0.190975 3.12588e-20)
(1.23414 0.181172 -2.86568e-20)
(1.2304 0.17421 0)
(1.22672 0.161693 -2.23992e-20)
(-0.0218529 0.00961328 4.1665e-20)
(-0.017883 0.015402 4.02731e-20)
(0.0296944 0.0195821 -3.60106e-20)
(0.119215 0.0273593 6.62968e-20)
(0.248361 0.0428224 -6.14139e-20)
(0.409319 0.0677138 5.54899e-20)
(0.586953 0.100606 -2.61082e-20)
(0.762 0.137405 6.92372e-20)
(0.916943 0.172997 -4.29885e-20)
(1.04047 0.202997 7.70239e-20)
(1.12891 0.224834 -1.77107e-19)
(1.18515 0.237996 6.4868e-20)
(1.21619 0.243596 -5.83971e-20)
(1.23037 0.243623 5.4362e-20)
(1.23508 0.240087 4.86624e-20)
(1.23544 0.234623 4.39981e-20)
(1.23413 0.228045 -1.21772e-19)
(1.23213 0.220948 7.57263e-20)
(1.22952 0.21321 -3.51511e-20)
(1.22643 0.205211 9.40352e-20)
(1.2228 0.196889 -3.00133e-20)
(1.21946 0.187995 -7.67118e-20)
(1.21599 0.181057 7.1039e-20)
(1.21353 0.169869 2.23909e-20)
(-0.0178332 0.00713083 0)
(0.00485871 0.0107014 3.32431e-22)
(0.0815762 0.0179668 7.45913e-20)
(0.207984 0.033451 -6.87281e-20)
(0.375489 0.0602547 -6.19387e-20)
(0.566089 0.0973815 1.1388e-19)
(0.755239 0.139631 -5.23719e-20)
(0.920536 0.180207 7.01267e-20)
(1.04857 0.213594 -1.02362e-21)
(1.13649 0.237048 -3.9301e-20)
(1.18951 0.250597 8.72261e-20)
(1.21693 0.256104 -1.28173e-19)
(1.22834 0.256085 0)
(1.23122 0.25274 -2.58006e-20)
(1.23019 0.247584 -7.03443e-20)
(1.22754 0.241375 2.17421e-20)
(1.22423 0.234544 4.74408e-22)
(1.22064 0.227186 -5.18779e-20)
(1.21708 0.219548 1.62437e-21)
(1.21365 0.211685 5.99428e-20)
(1.2105 0.20371 -2.77283e-20)
(1.20736 0.195701 -1.11856e-20)
(1.204 0.188399 3.28944e-20)
(1.20129 0.178745 0)
(-0.0103806 0.00442304 0)
(0.0382208 0.00692636 2.04164e-20)
(0.150793 0.0202536 -9.63004e-20)
(0.317429 0.0472391 3.48467e-20)
(0.51856 0.0878464 -3.22775e-20)
(0.724144 0.136175 -2.94107e-20)
(0.904885 0.183263 -5.2029e-20)
(1.04327 0.221798 2.524e-20)
(1.13605 0.248457 2.21388e-20)
(1.19016 0.263626 0)
(1.21688 0.269837 5.16666e-20)
(1.22699 0.270115 -7.72963e-20)
(1.22842 0.266915 5.73049e-20)
(1.22594 0.261821 2.58119e-20)
(1.22197 0.255671 -2.19085e-20)
(1.21765 0.248918 -1.91227e-20)
(1.21345 0.241759 -1.81335e-20)
(1.20955 0.234375 5.20317e-20)
(1.20586 0.226794 0)
(1.20227 0.219105 2.75905e-20)
(1.19861 0.21127 2.42687e-20)
(1.19495 0.203481 -5.85655e-20)
(1.19143 0.195846 -4.18053e-20)
(1.18813 0.187274 3.83545e-20)
(0.0012353 0.00205815 -2.35078e-20)
(0.0834597 0.00588281 -8.57238e-22)
(0.237236 0.0291577 1.96027e-20)
(0.442611 0.0709934 5.43914e-20)
(0.665408 0.12528 1.5939e-20)
(0.867335 0.180573 -3.00148e-20)
(1.02335 0.226655 2.71756e-20)
(1.12745 0.258731 -2.3893e-20)
(1.18728 0.277127 4.28171e-20)
(1.21599 0.284958 1.85476e-20)
(1.22604 0.285882 -5.18889e-20)
(1.22648 0.282822 1.54831e-20)
(1.22275 0.277651 2.69775e-20)
(1.21765 0.271392 -1.3006e-20)
(1.21241 0.264565 0)
(1.20747 0.257396 2.03655e-20)
(1.20284 0.250008 3.53644e-20)
(1.19845 0.242427 6.82342e-21)
(1.19423 0.23471 -2.97563e-20)
(1.19018 0.226899 1.2821e-20)
(1.1864 0.219043 0)
(1.18294 0.211389 -1.04371e-20)
(1.17962 0.20355 -1.00933e-20)
(1.17677 0.196042 0)
(0.0176627 0.000712034 0)
(0.14091 0.00952252 1.1418e-20)
(0.338167 0.0469843 2.09404e-20)
(0.574609 0.105237 -5.55892e-20)
(0.80258 0.169982 1.76629e-20)
(0.984791 0.226507 0)
(1.10828 0.266956 2.6506e-20)
(1.17958 0.290769 -3.66106e-20)
(1.21361 0.301483 -2.13911e-20)
(1.22521 0.303597 9.66575e-21)
(1.22532 0.3008 -1.59387e-20)
(1.22058 0.295485 3.798e-20)
(1.21435 0.288955 1.95842e-20)
(1.20804 0.281836 -1.30989e-20)
(1.20209 0.274386 -8.48718e-22)
(1.19658 0.266722 -3.81996e-20)
(1.19146 0.258901 1.7457e-20)
(1.18674 0.25099 -4.3457e-22)
(1.18238 0.243037 0)
(1.17837 0.235097 -1.28338e-20)
(1.17464 0.227223 0)
(1.17109 0.21947 3.02942e-20)
(1.16778 0.211505 -3.64241e-20)
(1.16447 0.20468 1.66955e-20)
(0.0392319 0.00118947 -6.58775e-21)
(0.209483 0.0197833 -2.92075e-20)
(0.448013 0.0750734 3.28786e-20)
(0.702739 0.148602 1.91567e-20)
(0.920041 0.218623 -8.93742e-21)
(1.07325 0.271348 1.50925e-20)
(1.16398 0.303719 -7.17956e-21)
(1.20817 0.319261 1.20242e-20)
(1.22373 0.323505 0)
(1.22452 0.321272 2.75519e-20)
(1.21902 0.31578 -8.43578e-22)
(1.21159 0.308789 -2.22952e-20)
(1.20404 0.301123 9.70831e-21)
(1.19697 0.293126 -1.11922e-20)
(1.19052 0.284952 -4.49844e-21)
(1.18467 0.27668 4.87966e-21)
(1.17936 0.26837 -3.92678e-21)
(1.17449 0.260061 -2.16967e-20)
(1.17001 0.251787 1.32648e-20)
(1.16587 0.243586 2.8047e-21)
(1.16208 0.235496 2.51339e-21)
(1.15866 0.227547 2.25444e-21)
(1.15548 0.219578 0)
(1.15239 0.213091 0)
(0.0658378 0.00437253 6.59573e-21)
(0.28656 0.0383003 -6.10709e-21)
(0.559382 0.113453 -1.10381e-20)
(0.817848 0.198683 0)
(1.01318 0.268649 -4.47913e-21)
(1.13464 0.314218 -4.02387e-21)
(1.19649 0.337705 -6.83017e-21)
(1.22003 0.345709 0)
(1.22317 0.344653 0)
(1.21743 0.339029 0)
(1.20883 0.331374 0)
(1.19994 0.322886 0)
(1.19165 0.314062 -6.1643e-21)
(1.18417 0.305109 2.80089e-21)
(1.17745 0.296119 4.96229e-21)
(1.1714 0.287143 2.32133e-21)
(1.16592 0.278215 5.88309e-21)
(1.16096 0.26937 0)
(1.15648 0.26065 -1.48057e-21)
(1.15249 0.252102 -1.42778e-21)
(1.14895 0.243758 -2.51735e-21)
(1.14574 0.235606 -2.258e-21)
(1.14276 0.227628 0)
(1.13969 0.221088 1.70731e-21)
(-0.00235814 0.0564931 4.77065e-21)
(-0.00812854 0.134872 -4.52845e-21)
(-0.017754 0.185451 -8.38096e-21)
(-0.030072 0.214479 0)
(-0.0440016 0.229027 -1.0793e-20)
(-0.0586579 0.235378 3.32391e-21)
(-0.0733695 0.238008 -6.26134e-21)
(-0.0877084 0.239479 0)
(-0.101439 0.240891 0)
(-0.114447 0.242477 0)
(-0.126678 0.244063 0)
(-0.138103 0.245331 0)
(-0.148706 0.245929 -2.26434e-23)
(-0.158474 0.245498 -4.03999e-21)
(-0.167405 0.243686 7.88853e-21)
(-0.175507 0.240143 1.12572e-20)
(-0.182807 0.234536 3.72404e-21)
(-0.189355 0.226546 0)
(-0.195232 0.215882 3.2634e-21)
(-0.200546 0.202301 -9.42014e-21)
(-0.205434 0.185605 -6.14205e-21)
(-0.210125 0.165556 -5.92371e-21)
(-0.214998 0.14182 0)
(-0.220137 0.114411 0)
(-0.00534158 0.0573936 -1.43766e-20)
(-0.0136734 0.139506 2.26883e-20)
(-0.0224058 0.194477 -8.49562e-21)
(-0.03225 0.227345 -1.5632e-20)
(-0.0430236 0.244598 2.16826e-20)
(-0.0542484 0.252461 -1.35379e-20)
(-0.0654178 0.255641 1.88116e-20)
(-0.0761199 0.257014 1.18713e-20)
(-0.0860661 0.257951 0)
(-0.0950728 0.258859 -1.04982e-20)
(-0.103027 0.259659 -3.19507e-22)
(-0.109859 0.260078 9.05715e-21)
(-0.115522 0.259787 1.32835e-20)
(-0.119988 0.258448 1.7011e-20)
(-0.12325 0.255731 -7.47156e-21)
(-0.125322 0.25132 -2.26515e-20)
(-0.126242 0.244918 7.74095e-21)
(-0.126077 0.236252 -2.83144e-20)
(-0.124919 0.225087 0)
(-0.122885 0.211239 6.3653e-21)
(-0.120145 0.194584 6.13208e-21)
(-0.116969 0.175009 5.91405e-21)
(-0.113585 0.152555 0)
(-0.109496 0.12758 0)
(-0.00809716 0.0556473 0)
(-0.0190268 0.13869 4.6144e-20)
(-0.0269321 0.197075 -1.70621e-20)
(-0.034164 0.233866 1.57458e-20)
(-0.0413728 0.254362 -4.39914e-20)
(-0.0485459 0.264319 0)
(-0.0554179 0.268467 -2.55924e-20)
(-0.06164 0.269953 1.18976e-20)
(-0.0668991 0.270453 -2.25215e-20)
(-0.0709589 0.270619 1.07444e-20)
(-0.0736592 0.270525 6.04267e-20)
(-0.0748994 0.269986 -2.81374e-20)
(-0.0746227 0.268724 -4.53944e-20)
(-0.0728065 0.26644 -1.81964e-20)
(-0.0694598 0.262845 -9.28769e-22)
(-0.0646231 0.257662 6.31503e-20)
(-0.0583698 0.250637 -2.98762e-20)
(-0.0508056 0.241539 -4.12873e-22)
(-0.0420574 0.230171 0)
(-0.0322521 0.216373 -2.77061e-20)
(-0.0216061 0.200009 0)
(-0.0103304 0.181002 -2.63603e-20)
(0.00150045 0.159481 9.98021e-20)
(0.0149756 0.135996 1.82595e-21)
(-0.0102741 0.0514995 0)
(-0.0236032 0.13248 1.48846e-22)
(-0.0309027 0.192841 1.72376e-20)
(-0.0356704 0.233247 -1.59956e-20)
(-0.0392544 0.257322 1.46236e-20)
(-0.042092 0.269924 8.24978e-20)
(-0.0442127 0.27554 -2.55679e-20)
(-0.0454134 0.277462 -2.40655e-20)
(-0.0454161 0.277667 4.51203e-20)
(-0.043968 0.277103 -6.42037e-20)
(-0.0408831 0.276064 1.9902e-20)
(-0.0360462 0.274508 1.91637e-20)
(-0.0294036 0.272246 0)
(-0.0209517 0.269042 1.7293e-20)
(-0.0107309 0.26466 0)
(0.0011775 0.258873 3.21457e-20)
(0.014653 0.251475 -6.29002e-20)
(0.0295374 0.242281 1.26097e-20)
(0.04564 0.231125 5.67069e-20)
(0.0627519 0.217849 2.76762e-20)
(0.0806352 0.202294 0)
(0.0990679 0.184278 -7.98455e-20)
(0.117647 0.163869 2.45212e-20)
(0.139568 0.141289 0)
(-0.0116265 0.0454875 0)
(-0.0269121 0.121532 -5.60573e-20)
(-0.0339599 0.182015 -1.72097e-20)
(-0.0367349 0.225187 -3.19567e-20)
(-0.0370081 0.252774 2.96088e-20)
(-0.0355987 0.268406 -2.75012e-20)
(-0.0328647 0.276005 5.16456e-20)
(-0.0288265 0.278806 2.45532e-20)
(-0.0233215 0.279011 -6.7589e-20)
(-0.0161411 0.277869 4.30559e-20)
(-0.00711058 0.275943 -6.06888e-20)
(0.00387917 0.273387 1.34623e-19)
(0.0168683 0.270147 -7.21967e-20)
(0.0318356 0.266078 3.48035e-20)
(0.0487073 0.261013 1.01381e-19)
(0.0673638 0.254785 -3.00064e-20)
(0.0876456 0.247244 -2.87564e-20)
(0.109363 0.23825 -2.9029e-20)
(0.132285 0.227693 0)
(0.156249 0.215405 -5.74395e-20)
(0.180784 0.201384 -5.79183e-20)
(0.206664 0.185183 7.76785e-20)
(0.230332 0.166982 1.05122e-19)
(0.263817 0.147152 -9.81104e-20)
(-0.0120674 0.0383485 0)
(-0.0286822 0.107033 -7.49946e-20)
(-0.0358774 0.1655 1.05849e-22)
(-0.0373762 0.210002 6.40131e-20)
(-0.0350126 0.240464 0)
(-0.0298423 0.259119 0)
(-0.0225288 0.269057 0)
(-0.0133689 0.273211 -2.43511e-20)
(-0.00239886 0.273843 -5.66161e-22)
(0.0104676 0.272438 4.21447e-20)
(0.0253364 0.269828 -6.13376e-20)
(0.0422768 0.266398 -6.3288e-22)
(0.0612993 0.262265 0)
(0.0823547 0.257408 -3.47885e-20)
(0.105342 0.251745 3.41609e-20)
(0.130122 0.245174 -9.45741e-20)
(0.156511 0.237602 1.24134e-19)
(0.184391 0.228909 3.29142e-20)
(0.213343 0.219086 4.34404e-21)
(0.244046 0.207839 -1.09526e-19)
(0.274107 0.195336 -5.36139e-20)
(0.309854 0.181024 1.85622e-19)
(0.336315 0.164567 -1.24946e-19)
(0.387083 0.147696 0)
(-0.011687 0.0308947 3.97668e-20)
(-0.028941 0.0905478 3.75268e-20)
(-0.0366459 0.144839 -3.4516e-20)
(-0.0376907 0.188747 -6.37552e-20)
(-0.0336222 0.220779 5.90691e-20)
(-0.0255316 0.241846 -5.48094e-20)
(-0.0142971 0.254068 7.61734e-20)
(-0.000491072 0.25986 -2.44018e-20)
(0.0155951 0.261341 4.4366e-20)
(0.0338492 0.260092 0)
(0.054239 0.257147 4.0117e-20)
(0.0767434 0.253105 -7.37541e-20)
(0.101316 0.248268 7.23876e-20)
(0.127876 0.242755 -6.73804e-20)
(0.156305 0.236586 0)
(0.186508 0.229725 6.26973e-20)
(0.218245 0.222135 1.22448e-19)
(0.251948 0.213687 -1.14765e-19)
(0.286094 0.204381 -5.57287e-20)
(0.324917 0.19396 -5.75641e-20)
(0.358566 0.182422 1.57633e-19)
(0.40928 0.169746 5.27237e-20)
(0.436525 0.154773 -4.72853e-20)
(0.512635 0.138662 4.72125e-20)
(-0.0107419 0.0238848 -3.97766e-20)
(-0.0280503 0.0737636 1.12044e-19)
(-0.0365476 0.12202 -3.45847e-20)
(-0.0379108 0.163181 6.34608e-20)
(-0.0331469 0.19491 -5.87961e-20)
(-0.0231914 0.217088 -2.66316e-22)
(-0.00900438 0.230913 2.50602e-20)
(0.00862626 0.23817 9.36075e-20)
(0.0291505 0.240663 7.74589e-22)
(0.0522163 0.239904 -4.1217e-20)
(0.0776016 0.237008 0)
(0.105156 0.232719 -3.71965e-20)
(0.134767 0.227494 6.92135e-20)
(0.166353 0.22159 6.76223e-20)
(0.199845 0.215122 -3.14944e-20)
(0.235424 0.208128 -8.30592e-22)
(0.272663 0.200564 -2.98734e-20)
(0.313544 0.192585 5.60049e-20)
(0.353692 0.18368 5.5738e-20)
(0.405778 0.174745 -5.39191e-20)
(0.444606 0.163832 5.06561e-20)
(0.520172 0.153113 -4.88761e-20)
(0.548217 0.138969 0)
(0.661501 0.123844 -4.72109e-20)
(-0.00962452 0.0179295 3.95525e-20)
(-0.0266865 0.0582259 -3.73749e-20)
(-0.0361851 0.0991428 3.42715e-20)
(-0.0384533 0.135532 0)
(-0.0338617 0.164821 0)
(-0.0230721 0.186276 5.32968e-20)
(-0.00700091 0.200385 -4.98955e-20)
(0.0134471 0.208334 4.61364e-20)
(0.0375243 0.211531 -2.15622e-19)
(0.0646736 0.211295 -3.26755e-22)
(0.0945174 0.208705 3.75933e-20)
(0.126839 0.204564 0)
(0.16158 0.199425 -6.89631e-20)
(0.198853 0.193654 1.29985e-19)
(0.238828 0.18745 -9.27578e-20)
(0.282291 0.18106 -1.5113e-19)
(0.328963 0.174331 -3.68939e-21)
(0.38275 0.167846 1.06745e-19)
(0.435943 0.159932 0)
(0.509027 0.153469 0)
(0.561287 0.142831 -5.06763e-20)
(0.668648 0.135984 4.88944e-20)
(0.70367 0.121638 -1.87982e-19)
(0.856881 0.111971 1.7532e-19)
(-0.00882085 0.0134485 0)
(-0.0257464 0.0451309 0)
(-0.0363926 0.078078 -1.02548e-19)
(-0.0398526 0.108122 3.18325e-20)
(-0.035922 0.132988 3.8348e-22)
(-0.0249679 0.151755 5.31312e-20)
(-0.00776878 0.164497 0)
(0.0147884 0.171953 -4.53496e-20)
(0.0419193 0.175174 4.28201e-20)
(0.0730549 0.175259 -7.88388e-20)
(0.107905 0.173194 -4.15201e-22)
(0.146476 0.169781 7.07346e-20)
(0.189081 0.165648 1.3125e-21)
(0.236357 0.161269 6.54391e-20)
(0.289074 0.156959 -8.93493e-20)
(0.348322 0.152851 0)
(0.413807 0.14878 1.12835e-19)
(0.488866 0.145017 -1.5951e-19)
(0.566051 0.140245 5.05831e-20)
(0.662009 0.137089 0)
(0.739404 0.129254 4.67839e-20)
(0.864516 0.127599 1.87043e-19)
(0.916607 0.113725 -1.74643e-19)
(1.07969 0.112227 -2.10921e-19)
(-0.00883763 0.0106572 1.17547e-19)
(-0.0261299 0.035213 -1.48192e-19)
(-0.0379273 0.0602319 3.84987e-22)
(-0.042392 0.0830507 3.15442e-20)
(-0.0389136 0.1021 -5.76128e-20)
(-0.0275845 0.116634 -5.32577e-20)
(-0.00892566 0.126625 9.7455e-20)
(0.0164373 0.132592 1.77756e-22)
(0.0480322 0.135372 -8.37058e-20)
(0.0856968 0.135914 1.56174e-19)
(0.129655 0.135132 1.33358e-21)
(0.180494 0.133837 -6.82086e-20)
(0.238988 0.132649 0)
(0.30585 0.131939 0)
(0.381432 0.131951 -2.97964e-20)
(0.465796 0.132405 -5.55277e-20)
(0.55776 0.133789 -1.09394e-19)
(0.656656 0.134439 1.01976e-19)
(0.758472 0.136199 -5.06266e-20)
(0.865144 0.135541 9.65723e-20)
(0.962675 0.134509 -4.44859e-20)
(1.07297 0.132905 9.04935e-20)
(1.13988 0.122618 -2.0516e-19)
(1.26055 0.122075 4.09339e-20)
(-0.0100635 0.00953874 3.91792e-20)
(-0.0283684 0.0286932 0)
(-0.0409041 0.0464577 6.79917e-20)
(-0.0453503 0.0620409 -6.29577e-20)
(-0.0408619 0.0748661 5.76916e-20)
(-0.027198 0.0846274 0)
(-0.00436413 0.0914731 0)
(0.0276716 0.0959422 -4.44132e-20)
(0.0691836 0.0988285 1.44599e-22)
(0.120721 0.101018 3.82339e-20)
(0.182944 0.103341 -3.6067e-20)
(0.256324 0.106443 6.72435e-20)
(0.340802 0.11072 0)
(0.435551 0.116258 1.22279e-19)
(0.538743 0.12302 -2.30281e-19)
(0.647929 0.130215 1.64038e-19)
(0.759616 0.138199 1.05945e-19)
(0.870426 0.14395 -9.87604e-20)
(0.976607 0.151124 0)
(1.07389 0.150782 0)
(1.16068 0.155009 0)
(1.23295 0.145267 0)
(1.28673 0.141815 4.01376e-20)
(1.3379 0.127736 -1.45656e-19)
(-0.225653 0.0795776 -3.83203e-21)
(-0.238345 0.0303217 3.84318e-21)
(-0.249725 -0.0233866 -1.2922e-22)
(-0.263173 -0.0861586 0)
(-0.276861 -0.153592 -3.89549e-21)
(-0.292714 -0.226637 7.58037e-21)
(-0.309763 -0.303474 -2.83365e-23)
(-0.328088 -0.38254 -3.55364e-21)
(-0.346948 -0.46113 0)
(-0.365507 -0.535783 0)
(-0.381808 -0.602314 -1.84229e-22)
(-0.391802 -0.655634 -1.67517e-22)
(-0.388965 -0.68905 -2.5435e-21)
(-0.365326 -0.694762 2.32213e-21)
(-0.314329 -0.665712 0)
(-0.234823 -0.598268 0)
(-0.133999 -0.496173 2.2083e-21)
(-0.0252335 -0.369359 9.53733e-23)
(0.077861 -0.227925 -2.04392e-21)
(0.169152 -0.0701304 -1.31412e-22)
(0.253014 0.109392 0)
(0.337072 0.306435 0)
(0.417477 0.481276 0)
(0.485086 0.589401 0)
(0.531295 0.622423 0)
(0.559244 0.600619 0)
(0.577875 0.547966 1.2646e-22)
(0.578794 0.490335 -2.06178e-22)
(0.577496 0.427286 0)
(0.592695 0.355851 0)
(0.586812 0.299423 -5.02987e-23)
(0.538128 0.270657 4.88747e-23)
(0.493948 0.238611 2.0718e-23)
(0.507842 0.176525 0)
(0.578681 0.0882832 0)
(0.667985 0.00222957 2.60255e-23)
(0.746996 -0.0671561 -2.5294e-23)
(0.803833 -0.112839 0)
(0.839801 -0.142025 1.93452e-23)
(0.859747 -0.157384 -2.82165e-23)
(0.86996 -0.167237 8.40643e-24)
(0.87463 -0.170655 0)
(0.876984 -0.173067 -1.24794e-23)
(0.878453 -0.170051 1.21344e-23)
(0.880095 -0.16674 0)
(0.882173 -0.157748 0)
(0.88499 -0.149632 -3.53277e-24)
(0.888978 -0.135989 9.83367e-24)
(0.894125 -0.12512 0)
(0.901108 -0.109644 0)
(0.908982 -0.0995756 -1.59506e-24)
(0.918648 -0.085438 4.53e-26)
(0.927489 -0.0792786 -2.13418e-25)
(0.937338 -0.068962 8.02032e-25)
(0.944351 -0.0676964 0)
(0.952501 -0.0597811 0)
(0.956487 -0.0603688 0)
(0.961838 -0.0529033 0)
(0.962801 -0.0538663 0)
(0.965521 -0.0472312 0)
(-0.10411 0.0961284 -4.01966e-22)
(-0.11447 0.0456787 -1.7561e-20)
(-0.120946 -0.00648737 -4.19024e-22)
(-0.130841 -0.0681273 1.68139e-20)
(-0.140484 -0.134345 2.75582e-22)
(-0.152979 -0.206153 0)
(-0.167393 -0.282147 -1.57751e-20)
(-0.183963 -0.36056 3.07407e-20)
(-0.20302 -0.438784 -1.49622e-20)
(-0.225774 -0.513733 1.29296e-20)
(-0.253337 -0.582415 -1.23712e-20)
(-0.284627 -0.64171 1.03313e-20)
(-0.314759 -0.68667 -1.00504e-20)
(-0.334507 -0.710122 -2.70101e-22)
(-0.331687 -0.703049 -8.12839e-21)
(-0.296138 -0.65693 7.89375e-21)
(-0.226621 -0.568755 -7.91288e-21)
(-0.133821 -0.444475 7.45733e-21)
(-0.034896 -0.297719 -8.22703e-21)
(0.0545697 -0.135123 1.59514e-20)
(0.137174 0.0488322 -7.72875e-21)
(0.225262 0.245649 -4.0877e-22)
(0.314744 0.423257 -5.15556e-21)
(0.394928 0.541898 8.83615e-21)
(0.457297 0.589613 -3.71878e-21)
(0.504772 0.579804 1.3264e-22)
(0.531905 0.539582 1.39564e-21)
(0.539388 0.488067 -2.96691e-22)
(0.555798 0.421208 -1.67646e-21)
(0.566337 0.356672 1.27244e-21)
(0.530659 0.318623 -5.48467e-22)
(0.473131 0.292883 5.78363e-23)
(0.461571 0.239059 -2.07621e-23)
(0.519148 0.151155 4.6808e-23)
(0.614233 0.0517201 0)
(0.707515 -0.0317011 0)
(0.780691 -0.0922699 -1.08576e-22)
(0.829521 -0.12891 7.9132e-23)
(0.85849 -0.151108 6.15484e-23)
(0.873385 -0.161984 2.18485e-24)
(0.880219 -0.169337 -8.13647e-23)
(0.882798 -0.171575 1.58578e-23)
(0.883816 -0.173564 0)
(0.884484 -0.170502 0)
(0.885583 -0.167329 0)
(0.887416 -0.158529 0)
(0.890061 -0.150673 1.55644e-23)
(0.893954 -0.137307 -6.40419e-24)
(0.898846 -0.126768 0)
(0.90552 -0.111585 0)
(0.913038 -0.101781 0)
(0.92245 -0.0877171 -2.30468e-24)
(0.931267 -0.081485 4.79551e-25)
(0.94101 -0.0709134 -1.8147e-24)
(0.948224 -0.0693502 0)
(0.956101 -0.0611064 0)
(0.960561 -0.0613195 6.57295e-25)
(0.965697 -0.0535826 1.33456e-24)
(0.967375 -0.0542171 0)
(0.969957 -0.0475012 0)
(0.0267322 0.106783 1.88819e-21)
(0.0205776 0.0610573 -3.60159e-20)
(0.0176305 0.00925445 3.81309e-20)
(0.0104769 -0.0486085 -3.55853e-20)
(0.00441439 -0.113209 -2.77542e-22)
(-0.00427976 -0.183874 0)
(-0.0143306 -0.259262 -3.453e-20)
(-0.0256929 -0.337034 3.37982e-20)
(-0.0388348 -0.413951 2.33814e-22)
(-0.0560925 -0.486368 4.43969e-22)
(-0.08143 -0.551346 3.95864e-22)
(-0.117953 -0.607698 3.45608e-22)
(-0.166091 -0.654866 -1.84726e-20)
(-0.220811 -0.68967 1.82103e-20)
(-0.268694 -0.704283 0)
(-0.291384 -0.685846 4.05863e-22)
(-0.274471 -0.623974 -1.36771e-20)
(-0.217134 -0.515452 1.35106e-20)
(-0.134325 -0.370518 0)
(-0.0469624 -0.204385 0)
(0.0344528 -0.019663 -1.35118e-20)
(0.120378 0.177748 2.49964e-20)
(0.215004 0.357421 -2.04178e-20)
(0.306928 0.486052 2.26652e-21)
(0.385885 0.548044 1.16084e-20)
(0.446195 0.554819 -8.57575e-21)
(0.479652 0.529029 5.8763e-21)
(0.504972 0.480068 -7.0598e-22)
(0.531042 0.416536 -1.88411e-21)
(0.517837 0.370252 0)
(0.460087 0.345076 0)
(0.42185 0.305319 3.66578e-22)
(0.457073 0.222258 -4.8165e-22)
(0.549716 0.115093 1.06642e-23)
(0.656291 0.0132526 3.37056e-22)
(0.746803 -0.0629818 -3.27496e-22)
(0.81228 -0.113723 0)
(0.853283 -0.141832 2.65045e-23)
(0.875955 -0.157934 2.06861e-22)
(0.886416 -0.165111 -3.82966e-22)
(0.890264 -0.17053 1.56367e-22)
(0.890931 -0.171958 1.7581e-23)
(0.89067 -0.173757 -1.38667e-22)
(0.890522 -0.170801 1.06228e-22)
(0.891036 -0.167871 2.21771e-23)
(0.89253 -0.159336 1.89479e-23)
(0.894927 -0.151777 -1.56058e-23)
(0.898676 -0.138691 0)
(0.903365 -0.12845 0)
(0.909769 -0.113526 -3.33889e-23)
(0.91692 -0.103961 1.54543e-23)
(0.925899 -0.0899802 -1.11799e-23)
(0.934473 -0.0836799 1.3455e-23)
(0.943891 -0.0728719 1.36488e-23)
(0.951154 -0.0710024 -3.19368e-24)
(0.958716 -0.0624523 4.34422e-24)
(0.963529 -0.0623116 -3.12462e-24)
(0.968559 -0.0543152 1.23852e-24)
(0.970828 -0.0546475 0)
(0.97359 -0.0477765 0)
(0.154579 0.112365 -7.73055e-20)
(0.155069 0.073292 -2.47028e-21)
(0.155321 0.0240884 7.53738e-20)
(0.152875 -0.0304971 -5.96451e-22)
(0.148968 -0.093534 0)
(0.144238 -0.163524 0)
(0.138894 -0.239119 -7.24738e-20)
(0.133142 -0.317529 1.78112e-21)
(0.126666 -0.394504 9.70352e-20)
(0.117745 -0.464896 -2.74007e-21)
(0.102227 -0.523678 -2.73933e-20)
(0.0746066 -0.569373 -2.02733e-20)
(0.0291135 -0.605522 2.03547e-20)
(-0.0379991 -0.636242 0)
(-0.120269 -0.661568 -1.31518e-20)
(-0.199291 -0.669042 1.20116e-20)
(-0.24967 -0.64205 0)
(-0.252332 -0.565659 0)
(-0.207123 -0.439629 1.15146e-20)
(-0.133492 -0.276763 3.8116e-22)
(-0.0519385 -0.0924475 -1.0837e-20)
(0.0330645 0.102174 -1.02222e-20)
(0.125908 0.285408 1.00872e-20)
(0.222883 0.423782 -6.46497e-21)
(0.311639 0.501545 1.63772e-21)
(0.380471 0.526942 4.45235e-21)
(0.429554 0.512166 3.50043e-22)
(0.473425 0.468401 1.31254e-24)
(0.488612 0.42106 0)
(0.447507 0.395136 1.43491e-21)
(0.392556 0.367893 -1.48567e-21)
(0.397014 0.30115 7.16291e-23)
(0.477351 0.191267 0)
(0.591636 0.0743159 -5.81348e-23)
(0.700583 -0.0239079 7.94633e-22)
(0.784988 -0.0908217 -1.33304e-21)
(0.842252 -0.131774 1.39037e-23)
(0.875814 -0.152098 6.872e-23)
(0.892715 -0.162908 3.94095e-22)
(0.899135 -0.167019 4.38542e-23)
(0.900228 -0.17094 -3.00087e-22)
(0.899074 -0.171843 2.57917e-22)
(0.897549 -0.173637 -1.3182e-24)
(0.896553 -0.170918 9.92596e-23)
(0.896443 -0.16832 -1.18752e-22)
(0.897535 -0.160115 -1.30352e-22)
(0.899616 -0.15289 3.71473e-23)
(0.903146 -0.140102 4.9469e-23)
(0.907616 -0.130148 -8.82444e-23)
(0.913763 -0.115458 5.65924e-23)
(0.920588 -0.106096 -1.14865e-23)
(0.929107 -0.0921935 1.57113e-23)
(0.937363 -0.0858249 1.09697e-23)
(0.94636 -0.0748018 -2.08074e-23)
(0.953568 -0.0726313 6.38745e-25)
(0.96079 -0.0637981 -4.25924e-24)
(0.965812 -0.063334 0)
(0.970771 -0.0550902 -1.19233e-24)
(0.973454 -0.0551601 1.36425e-24)
(0.976536 -0.0480764 0)
(0.277729 0.119321 7.92667e-20)
(0.285724 0.0825375 -1.57607e-19)
(0.290838 0.0382222 7.75359e-20)
(0.294489 -0.0138287 8.09435e-20)
(0.296537 -0.074959 -1.5906e-19)
(0.298217 -0.144123 3.82812e-22)
(0.299519 -0.219943 7.60679e-20)
(0.300034 -0.299746 6.97198e-20)
(0.298777 -0.378478 -6.81968e-20)
(0.294504 -0.449296 0)
(0.284445 -0.505372 -4.88977e-20)
(0.264356 -0.542533 8.86311e-20)
(0.229407 -0.562856 -3.99765e-20)
(0.170802 -0.575972 0)
(0.0836136 -0.591442 0)
(-0.0256286 -0.607714 3.5385e-22)
(-0.134269 -0.610603 -1.79036e-20)
(-0.210706 -0.575212 1.73823e-20)
(-0.230853 -0.487353 0)
(-0.194366 -0.346382 1.84797e-20)
(-0.125282 -0.167613 -3.51195e-20)
(-0.0395425 0.022813 3.32261e-20)
(0.0538946 0.208449 -2.98136e-20)
(0.150681 0.356148 2.46014e-21)
(0.243278 0.449135 1.89585e-20)
(0.321856 0.490796 -8.17556e-21)
(0.387223 0.487325 -1.7211e-22)
(0.431058 0.459679 -1.90828e-21)
(0.421346 0.436811 1.80262e-22)
(0.369143 0.422059 1.75199e-21)
(0.345753 0.377165 9.29846e-23)
(0.401152 0.280195 -1.507e-21)
(0.515065 0.15186 2.80154e-21)
(0.639531 0.0332405 -1.46356e-21)
(0.745583 -0.0581443 0)
(0.822317 -0.115044 -8.32466e-22)
(0.871165 -0.146686 7.93948e-22)
(0.897526 -0.159995 -4.31246e-22)
(0.908976 -0.166232 5.40901e-22)
(0.91161 -0.167823 -4.95761e-23)
(0.910107 -0.170617 0)
(0.907201 -0.171243 -3.72827e-23)
(0.904421 -0.1732 9.59802e-23)
(0.902551 -0.17084 0)
(0.901783 -0.168662 2.2539e-22)
(0.902428 -0.160851 -9.1939e-23)
(0.904149 -0.153994 3.31049e-23)
(0.907403 -0.141523 2.80711e-23)
(0.911614 -0.131852 0)
(0.917485 -0.11738 0)
(0.924005 -0.108188 -4.05203e-23)
(0.932084 -0.094352 5.78205e-23)
(0.940014 -0.0879102 -2.9385e-23)
(0.948581 -0.0766896 8.6078e-24)
(0.955678 -0.0742273 1.26678e-23)
(0.962577 -0.0651288 4.26383e-24)
(0.967689 -0.0643727 -6.12205e-24)
(0.972586 -0.0558911 0)
(0.975518 -0.0557415 -2.26732e-24)
(0.978938 -0.0484064 -3.32429e-25)
(0.398985 0.122586 7.99788e-20)
(0.413555 0.0871873 -7.90616e-20)
(0.426956 0.046347 6.33415e-22)
(0.438605 -0.00240035 -6.25736e-22)
(0.449132 -0.0602414 6.32406e-22)
(0.460094 -0.12707 -6.20786e-22)
(0.470778 -0.20151 1.1887e-21)
(0.48006 -0.280878 0)
(0.486346 -0.359724 -1.04131e-21)
(0.487016 -0.430313 9.32961e-22)
(0.478845 -0.485195 8.07989e-22)
(0.45879 -0.518771 -6.95783e-22)
(0.424499 -0.530172 0)
(0.372167 -0.526596 0)
(0.296676 -0.519417 3.31815e-22)
(0.190405 -0.522674 0)
(0.0581705 -0.534648 -1.9754e-22)
(-0.075939 -0.532058 0)
(-0.174172 -0.491728 -1.19256e-20)
(-0.206443 -0.393414 2.40557e-20)
(-0.176282 -0.241155 -2.48641e-20)
(-0.10375 -0.0571805 1.25034e-20)
(-0.0111821 0.12351 1.0815e-20)
(0.0870949 0.282921 -1.04978e-20)
(0.183026 0.389977 -7.39828e-21)
(0.269151 0.448099 7.12824e-21)
(0.336285 0.463047 0)
(0.363333 0.460877 1.36315e-22)
(0.337422 0.459057 0)
(0.303026 0.440363 0)
(0.329303 0.36912 3.61611e-21)
(0.42946 0.246998 -3.76525e-21)
(0.564137 0.1093 2.30946e-22)
(0.691127 -0.0063913 1.66275e-22)
(0.791088 -0.0888249 -1.52041e-22)
(0.859136 -0.13566 -8.22434e-22)
(0.899307 -0.158667 7.98415e-22)
(0.918572 -0.165753 -6.10948e-22)
(0.9248 -0.168087 5.24941e-22)
(0.923846 -0.167632 1.02797e-22)
(0.91988 -0.16961 -3.36189e-22)
(0.915282 -0.170165 -6.45736e-24)
(0.911264 -0.17243 2.17907e-22)
(0.908503 -0.170544 0)
(0.90705 -0.168873 -9.89063e-23)
(0.90721 -0.16152 1.14482e-22)
(0.908539 -0.155067 -1.51079e-22)
(0.91148 -0.142934 -2.82591e-23)
(0.915398 -0.133546 0)
(0.920971 -0.119282 1.50289e-23)
(0.927182 -0.110236 -3.29352e-23)
(0.934842 -0.0964562 2.43266e-25)
(0.942447 -0.0899365 -9.49902e-24)
(0.950612 -0.0785325 1.33481e-23)
(0.957568 -0.0757893 -1.27892e-23)
(0.964185 -0.066438 0)
(0.969307 -0.0654173 6.12567e-24)
(0.974151 -0.0567038 0)
(0.977202 -0.0563738 0)
(0.980922 -0.0487642 4.89048e-25)
(0.523699 0.116271 -7.95387e-20)
(0.543386 0.0837824 7.8035e-20)
(0.565061 0.0466416 -6.16097e-22)
(0.585978 0.00146576 6.41481e-22)