/*--------------------------------*- C++ -*----------------------------------*\
| =========                 |                                                 |
| \\      /  F ield         | OpenFOAM: The Open Source CFD Toolbox           |
|  \\    /   O peration     | Version:  2312                                  |
|   \\  /    A nd           | Website:  www.openfoam.com                      |
|    \\/     M anipulation  |                                                 |
\*---------------------------------------------------------------------------*/
FoamFile
{
    version     2.0;
    format      ascii;
    arch        "LSB;label=32;scalar=64";
    class       volScalarField;
    location    "57.5";
    object      p;
}
// * * * * * * * * * * * * * * * * * * * * * * * * * * * * * * * * * * * * * //

dimensions      [0 2 -2 0 0 0 0];

internalField   nonuniform List<scalar> 
13248
(
-0.429327
-0.428875
-0.426556
-0.422807
-0.418275
-0.413628
-0.409627
-0.406865
-0.405727
-0.406207
-0.407918
-0.410159
-0.412026
-0.412574
-0.410973
-0.406652
-0.399383
-0.389266
-0.376562
-0.361768
-0.344681
-0.326185
-0.303967
-0.279294
-0.434044
-0.433432
-0.431089
-0.427544
-0.423343
-0.419023
-0.415118
-0.412009
-0.409805
-0.408297
-0.407006
-0.40529
-0.402485
-0.398044
-0.391635
-0.383184
-0.372798
-0.360679
-0.347016
-0.331891
-0.315385
-0.297516
-0.277965
-0.258299
-0.441398
-0.440237
-0.437668
-0.434178
-0.430168
-0.425981
-0.421865
-0.417888
-0.413916
-0.409659
-0.404752
-0.398846
-0.39169
-0.38318
-0.373354
-0.362326
-0.350207
-0.337099
-0.32301
-0.308084
-0.292205
-0.275684
-0.258256
-0.240334
-0.451113
-0.44904
-0.446001
-0.442293
-0.438176
-0.433729
-0.428845
-0.42329
-0.416827
-0.409299
-0.400661
-0.390961
-0.380322
-0.368893
-0.356803
-0.344131
-0.330922
-0.317185
-0.302962
-0.288262
-0.273113
-0.257734
-0.241832
-0.226387
-0.462994
-0.459773
-0.456004
-0.451812
-0.447212
-0.441941
-0.435538
-0.427617
-0.418086
-0.407129
-0.395083
-0.382306
-0.369086
-0.355608
-0.341958
-0.328167
-0.314225
-0.300128
-0.285858
-0.271439
-0.256896
-0.242311
-0.227602
-0.213244
-0.477132
-0.472589
-0.467934
-0.462994
-0.457411
-0.450533
-0.441689
-0.430652
-0.41772
-0.40348
-0.388538
-0.373357
-0.358214
-0.343236
-0.328452
-0.313839
-0.299363
-0.284987
-0.2707
-0.256496
-0.242386
-0.228429
-0.214543
-0.201154
-0.493737
-0.487763
-0.482105
-0.47608
-0.468802
-0.459307
-0.447076
-0.432373
-0.415985
-0.398781
-0.381433
-0.364348
-0.347713
-0.331571
-0.315898
-0.300641
-0.285747
-0.271174
-0.25689
-0.242873
-0.229124
-0.215625
-0.202373
-0.189587
-0.512924
-0.505461
-0.498636
-0.491006
-0.481065
-0.467855
-0.451468
-0.432847
-0.413158
-0.393338
-0.373963
-0.355304
-0.337435
-0.320329
-0.303923
-0.288142
-0.272921
-0.258197
-0.243925
-0.23007
-0.216601
-0.203496
-0.190765
-0.178463
-0.534538
-0.525552
-0.517272
-0.507264
-0.493515
-0.475618
-0.454631
-0.432116
-0.409385
-0.387256
-0.36612
-0.346095
-0.327156
-0.309224
-0.292201
-0.275993
-0.260516
-0.245696
-0.23147
-0.217782
-0.204585
-0.191839
-0.179543
-0.167617
-0.557974
-0.547476
-0.537286
-0.523863
-0.505159
-0.481907
-0.456211
-0.430001
-0.404501
-0.380301
-0.357587
-0.33634
-0.316454
-0.297803
-0.28026
-0.26371
-0.24805
-0.233189
-0.219046
-0.20555
-0.192633
-0.180248
-0.168359
-0.156809
-0.582218
-0.570204
-0.557435
-0.539381
-0.514741
-0.485799
-0.455507
-0.425863
-0.397843
-0.371766
-0.34763
-0.325295
-0.304587
-0.285333
-0.267379
-0.250583
-0.234824
-0.219995
-0.206002
-0.192755
-0.180178
-0.168206
-0.156757
-0.14567
-0.605851
-0.59231
-0.576055
-0.552151
-0.52086
-0.486159
-0.451512
-0.418731
-0.388448
-0.360711
-0.33534
-0.31209
-0.290722
-0.271019
-0.252792
-0.235878
-0.220133
-0.205435
-0.191673
-0.178752
-0.16659
-0.155126
-0.144257
-0.133852
-0.41328
-0.413329
-0.413039
-0.413404
-0.415061
-0.418239
-0.423025
-0.429504
-0.437799
-0.448051
-0.460384
-0.47486
-0.491433
-0.509896
-0.529843
-0.550638
-0.571411
-0.591086
-0.608455
-0.622239
-0.631236
-0.634237
-0.629805
-0.616711
-0.423292
-0.422407
-0.42186
-0.422201
-0.424097
-0.42775
-0.43328
-0.440811
-0.450509
-0.462566
-0.477151
-0.494358
-0.514142
-0.53627
-0.560274
-0.585429
-0.610754
-0.635012
-0.656922
-0.674868
-0.687564
-0.693334
-0.690962
-0.678073
-0.431301
-0.429483
-0.42859
-0.428852
-0.430754
-0.434581
-0.440469
-0.44854
-0.458969
-0.471961
-0.487694
-0.506255
-0.527586
-0.55142
-0.577243
-0.604282
-0.631512
-0.657692
-0.681447
-0.701286
-0.715676
-0.722732
-0.721531
-0.708576
-0.436773
-0.434139
-0.432826
-0.432784
-0.434392
-0.437981
-0.443705
-0.451677
-0.462053
-0.475019
-0.49073
-0.509255
-0.530507
-0.554198
-0.579799
-0.606534
-0.633396
-0.6592
-0.682698
-0.702108
-0.716598
-0.723472
-0.722435
-0.708989
-0.439571
-0.436339
-0.434564
-0.433991
-0.434948
-0.437826
-0.442819
-0.45004
-0.459619
-0.471701
-0.486408
-0.503773
-0.523688
-0.545856
-0.569758
-0.59465
-0.619617
-0.643568
-0.665258
-0.683314
-0.696585
-0.701994
-0.69955
-0.683876
-0.439945
-0.436415
-0.434195
-0.432919
-0.432899
-0.434615
-0.438346
-0.444243
-0.452424
-0.462998
-0.476048
-0.491575
-0.509457
-0.529401
-0.55093
-0.573344
-0.595867
-0.617448
-0.637094
-0.652869
-0.663844
-0.66664
-0.661112
-0.641414
-0.438441
-0.434948
-0.432374
-0.43032
-0.429113
-0.429338
-0.431403
-0.435549
-0.441928
-0.450642
-0.461746
-0.475218
-0.490921
-0.508558
-0.527709
-0.547791
-0.568027
-0.587219
-0.604156
-0.616923
-0.624278
-0.622851
-0.612334
-0.587465
-0.435751
-0.43261
-0.429827
-0.427046
-0.424619
-0.423228
-0.423436
-0.425623
-0.430027
-0.436785
-0.445953
-0.4575
-0.471292
-0.486919
-0.50411
-0.522143
-0.539997
-0.556314
-0.569743
-0.578117
-0.58008
-0.572732
-0.555983
-0.526009
-0.432593
-0.430042
-0.427214
-0.423855
-0.420356
-0.417471
-0.415907
-0.416202
-0.418719
-0.423668
-0.431125
-0.441028
-0.4532
-0.467387
-0.482771
-0.498424
-0.513165
-0.525413
-0.533718
-0.535991
-0.531449
-0.518002
-0.496409
-0.46407
-0.429661
-0.427819
-0.425075
-0.421336
-0.417046
-0.413
-0.410015
-0.408771
-0.409763
-0.413283
-0.419435
-0.428119
-0.438951
-0.451292
-0.464173
-0.476387
-0.486491
-0.492998
-0.494634
-0.49014
-0.479673
-0.462259
-0.43976
-0.409391
-0.427656
-0.426498
-0.423902
-0.419977
-0.415246
-0.41051
-0.406643
-0.404425
-0.404423
-0.406953
-0.412033
-0.419359
-0.428292
-0.437897
-0.446977
-0.454234
-0.458296
-0.458179
-0.453051
-0.442916
-0.428354
-0.409759
-0.389554
-0.364182
-0.427323
-0.426673
-0.424235
-0.420296
-0.415498
-0.410582
-0.406408
-0.403778
-0.403195
-0.404867
-0.408625
-0.41393
-0.419915
-0.425492
-0.429482
-0.430809
-0.428609
-0.422532
-0.412393
-0.398909
-0.382191
-0.363481
-0.343732
-0.322338
-0.591818
-0.546956
-0.490209
-0.426858
-0.365042
-0.312087
-0.27302
-0.251247
-0.24946
-0.267896
-0.301462
-0.338145
-0.361082
-0.354767
-0.315339
-0.256382
-0.198153
-0.154322
-0.127348
-0.114755
-0.113611
-0.121626
-0.140781
-0.175427
-0.219283
-0.252487
-0.254082
-0.225201
-0.179895
-0.136084
-0.106956
-0.0949004
-0.0956289
-0.113193
-0.15621
-0.207694
-0.231496
-0.207648
-0.160866
-0.119895
-0.096371
-0.0939742
-0.114324
-0.145514
-0.166996
-0.16569
-0.146743
-0.121801
-0.100634
-0.0866587
-0.0776395
-0.0664899
-0.0518204
-0.0373886
-0.0270058
-0.0215329
-0.0174743
-0.0134687
-0.00944025
-0.001805
-0.652267
-0.601885
-0.536126
-0.461878
-0.388551
-0.324261
-0.27436
-0.242172
-0.230282
-0.239641
-0.26691
-0.301599
-0.326191
-0.323281
-0.289641
-0.237082
-0.18528
-0.146872
-0.123995
-0.115147
-0.117831
-0.130179
-0.155298
-0.197281
-0.24812
-0.285286
-0.28533
-0.250777
-0.199173
-0.14986
-0.11562
-0.0991943
-0.0959462
-0.108857
-0.147131
-0.195749
-0.218295
-0.195929
-0.15344
-0.117627
-0.0989827
-0.101842
-0.128147
-0.164785
-0.188655
-0.184923
-0.160044
-0.127569
-0.0991149
-0.0794087
-0.0668635
-0.0541444
-0.0401681
-0.0276475
-0.0200508
-0.0172199
-0.0153166
-0.0128634
-0.00966312
-0.00212798
-0.68222
-0.631511
-0.561829
-0.480313
-0.39786
-0.323688
-0.264446
-0.223265
-0.201193
-0.200036
-0.218354
-0.247977
-0.273672
-0.276856
-0.251427
-0.20855
-0.16566
-0.133797
-0.115722
-0.111106
-0.117904
-0.134741
-0.165431
-0.213686
-0.27016
-0.311135
-0.311619
-0.272628
-0.21551
-0.161298
-0.12233
-0.101526
-0.0941325
-0.101908
-0.133942
-0.178219
-0.19938
-0.179823
-0.142758
-0.112709
-0.0994325
-0.107972
-0.140412
-0.182473
-0.208973
-0.203393
-0.172868
-0.133102
-0.0976873
-0.0726392
-0.0568856
-0.0427222
-0.0294174
-0.0184085
-0.0133442
-0.0129908
-0.0132222
-0.012372
-0.00998285
-0.00250263
-0.681168
-0.631543
-0.563646
-0.480609
-0.393681
-0.31437
-0.249263
-0.20097
-0.170457
-0.157784
-0.164263
-0.185155
-0.208796
-0.21789
-0.202409
-0.171541
-0.139104
-0.114571
-0.101855
-0.101768
-0.112533
-0.133101
-0.167847
-0.220679
-0.281915
-0.327109
-0.329853
-0.289044
-0.22794
-0.16975
-0.12686
-0.102048
-0.0904661
-0.092832
-0.117891
-0.156859
-0.176783
-0.160479
-0.129497
-0.105382
-0.0974047
-0.111617
-0.150053
-0.197612
-0.22719
-0.220536
-0.184937
-0.1383
-0.0963529
-0.0663868
-0.0477118
-0.0321989
-0.0192342
-0.00966795
-0.0068948
-0.00885426
-0.011207
-0.012019
-0.010421
-0.00293427
-0.651877
-0.604061
-0.541948
-0.462711
-0.377609
-0.298624
-0.232201
-0.180343
-0.143207
-0.121515
-0.115561
-0.124479
-0.141548
-0.153087
-0.146834
-0.128547
-0.106771
-0.0896968
-0.082349
-0.086722
-0.101223
-0.124702
-0.161731
-0.217139
-0.281915
-0.331237
-0.339003
-0.29938
-0.236113
-0.174955
-0.129196
-0.100943
-0.0856025
-0.0826185
-0.100247
-0.133183
-0.152016
-0.139285
-0.114339
-0.0958484
-0.092827
-0.112139
-0.156315
-0.209424
-0.242528
-0.235854
-0.196055
-0.143133
-0.0951323
-0.0606813
-0.0393602
-0.0225876
-0.00977831
-0.00144791
-0.000705397
-0.00481517
-0.00928651
-0.0118267
-0.0109999
-0.00342804
-0.603496
-0.557329
-0.503294
-0.432082
-0.354112
-0.280296
-0.216154
-0.16384
-0.123224
-0.0941001
-0.0777969
-0.0749545
-0.0822017
-0.0917366
-0.0916243
-0.0839111
-0.0713136
-0.0609736
-0.0586051
-0.0671539
-0.0850619
-0.110611
-0.148072
-0.203099
-0.269303
-0.322882
-0.336711
-0.302169
-0.239253
-0.176786
-0.129364
-0.0985256
-0.0801305
-0.072229
-0.0825716
-0.109084
-0.12657
-0.11735
-0.097977
-0.084502
-0.085734
-0.109611
-0.159052
-0.217225
-0.254302
-0.248767
-0.205933
-0.14754
-0.0940602
-0.0555743
-0.0318781
-0.0139286
-0.00113153
0.00622037
0.00522796
-0.000877389
-0.00747403
-0.0118117
-0.0117407
-0.00398984
-0.543831
-0.499866
-0.455273
-0.394492
-0.32679
-0.261649
-0.202812
-0.152377
-0.11078
-0.0774449
-0.0529465
-0.0392069
-0.036169
-0.0404177
-0.0453191
-0.0410516
-0.0352358
-0.0305019
-0.0324992
-0.0446104
-0.0652897
-0.0921645
-0.128495
-0.18046
-0.245189
-0.302686
-0.325213
-0.296786
-0.237292
-0.175516
-0.127552
-0.095152
-0.0744077
-0.0625717
-0.0660829
-0.0861589
-0.101978
-0.0960503
-0.0812438
-0.0718789
-0.0766225
-0.103983
-0.157787
-0.220921
-0.262101
-0.259036
-0.214329
-0.151456
-0.0931426
-0.0510873
-0.0253079
-0.00627128
0.00666823
0.0133174
0.0109067
0.00295516
-0.00578121
-0.0119885
-0.0126647
-0.00462691
-0.478614
-0.438905
-0.404616
-0.355757
-0.299691
-0.244312
-0.192195
-0.145066
-0.104117
-0.0693006
-0.0404419
-0.0185429
-0.00560614
-0.00167879
-0.00325141
-0.00284472
-0.00137979
-0.00065098
-0.00616392
-0.0210007
-0.0435187
-0.070788
-0.105068
-0.15268
-0.213423
-0.272833
-0.304493
-0.283115
-0.230273
-0.171413
-0.124047
-0.0909706
-0.0686842
-0.0541874
-0.0518375
-0.0655804
-0.079487
-0.0795675
-0.06501
-0.0587315
-0.0659352
-0.0956549
-0.152856
-0.220004
-0.265424
-0.265793
-0.220891
-0.154757
-0.0923351
-0.0471947
-0.019655
0.000349914
0.0135941
0.0198297
0.0163206
0.00667181
-0.00421632
-0.0123654
-0.013791
-0.00534765
-0.417125
-0.383858
-0.358561
-0.32055
-0.275839
-0.229971
-0.184692
-0.141611
-0.102127
-0.0669795
-0.0363137
-0.010262
0.0102984
0.0228861
0.027157
0.027702
0.0277394
0.026034
0.0184902
0.00218509
-0.0211499
-0.0481212
-0.079892
-0.122413
-0.178303
-0.236918
-0.273187
-0.264302
-0.219594
-0.16498
-0.119167
-0.0861044
-0.063074
-0.0468231
-0.0403357
-0.0480748
-0.0594474
-0.0603274
-0.0497925
-0.0457694
-0.0541403
-0.0848535
-0.143761
-0.215195
-0.264805
-0.271349
-0.225555
-0.157302
-0.0915666
-0.0438411
-0.0148808
0.00594002
0.0196351
0.0257421
0.0214621
0.0102681
-0.0027894
-0.0129532
-0.0151383
-0.00616144
-0.367981
-0.341912
-0.322649
-0.29255
-0.256809
-0.218943
-0.179877
-0.141141
-0.104004
-0.0694096
-0.0380625
-0.0103777
0.0136351
0.0327301
0.0441305
0.0486089
0.0500099
0.0468143
0.0385508
0.0223434
-0.000339001
-0.0259899
-0.0549231
-0.0925241
-0.141641
-0.196849
-0.237632
-0.238045
-0.203933
-0.155943
-0.11322
-0.0810719
-0.057888
-0.0407292
-0.0312962
-0.0340118
-0.0425176
-0.0439025
-0.0365971
-0.0336398
-0.0422367
-0.0726451
-0.131949
-0.205593
-0.259288
-0.269247
-0.227441
-0.159095
-0.0910531
-0.041158
-0.0110304
0.0104947
0.0247933
0.0310472
0.0263005
0.0137165
-0.00150268
-0.0137473
-0.0167138
-0.00707572
-0.332368
-0.313412
-0.297085
-0.271766
-0.242279
-0.210389
-0.17626
-0.141026
-0.105968
-0.0724592
-0.0412202
-0.0128227
0.0125686
0.0347569
0.0522203
0.0625235
0.0665317
0.0634602
0.0555355
0.0400898
0.0187339
-0.00512207
-0.0308384
-0.0634464
-0.107728
-0.160862
-0.203182
-0.215252
-0.189578
-0.147768
-0.108231
-0.0772079
-0.0540302
-0.0362188
-0.0244427
-0.0230308
-0.0288686
-0.0307725
-0.0252616
-0.022639
-0.0299177
-0.0587903
-0.117427
-0.192872
-0.250933
-0.264275
-0.227793
-0.160578
-0.0911499
-0.039317
-0.00816839
0.0139575
0.0290138
0.0357378
0.0308574
0.01704
-0.000358455
-0.0147624
-0.0185329
-0.00810079
-0.304778
-0.294372
-0.279736
-0.257812
-0.233532
-0.20752
-0.179169
-0.148702
-0.117071
-0.0853683
-0.0545729
-0.025541
0.00115719
0.025072
0.0452155
0.0599651
0.0687804
0.0725504
0.0674208
0.0545268
0.0359426
0.0146404
-0.00893494
-0.0376533
-0.0748965
-0.120907
-0.162025
-0.178495
-0.165059
-0.133764
-0.0999573
-0.0712026
-0.0488884
-0.0312277
-0.0180932
-0.0136392
-0.0171508
-0.0196415
-0.0163126
-0.0133706
-0.0198641
-0.045646
-0.101269
-0.176624
-0.237196
-0.254487
-0.223831
-0.159407
-0.0896901
-0.0368471
-0.00536493
0.0168355
0.0324709
0.0395955
0.0349715
0.0201627
0.000653586
-0.0159599
-0.020572
-0.00924221
-0.271704
-0.276086
-0.260917
-0.237323
-0.212235
-0.186996
-0.160866
-0.13316
-0.104151
-0.0747913
-0.0460532
-0.0187975
0.00661079
0.0299506
0.0499976
0.0650267
0.0751587
0.0807863
0.0793007
0.0692741
0.0535635
0.0359036
0.0160823
-0.00978154
-0.0483535
-0.0982602
-0.142882
-0.160394
-0.143854
-0.114776
-0.0848348
-0.0593937
-0.0393645
-0.0234432
-0.0113225
-0.00597923
-0.00752809
-0.00964518
-0.00678051
-0.00329754
-0.00715597
-0.029627
-0.0831402
-0.15868
-0.2233
-0.246287
-0.218871
-0.153773
-0.0841282
-0.0320675
-0.00155358
0.0199376
0.0357628
0.0434976
0.038907
0.0232064
0.00160165
-0.0172976
-0.022794
-0.0104816
-0.23758
-0.245589
-0.232866
-0.209983
-0.185862
-0.162773
-0.139831
-0.115717
-0.0901887
-0.063963
-0.0380029
-0.0131333
0.0100788
0.0313122
0.0498809
0.0646097
0.0753987
0.082345
0.0828966
0.075674
0.0634121
0.0498276
0.0341175
0.0101222
-0.0305532
-0.082091
-0.123246
-0.133931
-0.118654
-0.0941818
-0.0694744
-0.0480373
-0.0306842
-0.0164183
-0.00524559
0.000233985
-0.000362845
-0.00214014
-0.000144596
0.00347945
0.00173325
-0.0178332
-0.0680588
-0.142513
-0.209814
-0.235526
-0.209641
-0.146313
-0.0780882
-0.0274528
0.00178413
0.0224469
0.038452
0.0462786
0.0421815
0.0256981
0.00215342
-0.0189157
-0.0251393
-0.0116724
-0.208622
-0.217046
-0.207272
-0.187342
-0.165609
-0.144747
-0.124277
-0.102915
-0.0801703
-0.056498
-0.0327622
-0.00984344
0.0116623
0.0315215
0.0491344
0.0636896
0.0742187
0.0815519
0.0835453
0.0785406
0.0690334
0.0586504
0.0457758
0.0218829
-0.0187791
-0.0656826
-0.098941
-0.106389
-0.0945789
-0.0756123
-0.055787
-0.0377209
-0.0226002
-0.010071
-1.49085e-05
0.00562536
0.00597652
0.00450206
0.00583423
0.00914675
0.00811001
-0.00966677
-0.057186
-0.129578
-0.194649
-0.220748
-0.198004
-0.137772
-0.071744
-0.022856
0.00491882
0.0246376
0.0407888
0.0490546
0.0451285
0.0277042
0.00221186
-0.0208899
-0.0277291
-0.0129634
-0.183306
-0.190723
-0.183273
-0.166232
-0.146725
-0.1277
-0.109163
-0.0901007
-0.0699204
-0.0488234
-0.0275032
-0.00673465
0.0128913
0.031117
0.0474482
0.0608541
0.0712327
0.0788355
0.0819007
0.0788656
0.0717946
0.0637626
0.0526634
0.0300778
-0.0064354
-0.0462157
-0.0730206
-0.0793731
-0.0712834
-0.0573979
-0.0422221
-0.0276173
-0.0148056
-0.00396784
0.00481901
0.0101402
0.0111159
0.0100024
0.0107266
0.0136579
0.013309
-0.00315807
-0.0483385
-0.115923
-0.176225
-0.202937
-0.183499
-0.127278
-0.0644754
-0.0180207
0.00791927
0.0265092
0.0427492
0.0514791
0.0477669
0.0293515
0.00196327
-0.0231472
-0.0306007
-0.014363
-0.159504
-0.166525
-0.160895
-0.146422
-0.129174
-0.112114
-0.0955716
-0.0787706
-0.0610733
-0.0424799
-0.0234934
-0.00479114
0.0130307
0.0296473
0.0446786
0.0572668
0.0672547
0.0748117
0.0785626
0.0771825
0.0721582
0.0656665
0.0558222
0.036565
0.00662981
-0.0254416
-0.0467553
-0.0539404
-0.0501155
-0.0410885
-0.0300332
-0.018437
-0.00766163
0.00157174
0.00913561
0.0140903
0.0155197
0.0146632
0.0147065
0.0169672
0.0173711
0.00247855
-0.0389795
-0.0995657
-0.155017
-0.181784
-0.166092
-0.115095
-0.0565849
-0.0130844
0.0107862
0.0280863
0.0443132
0.0534778
0.0500573
0.0307214
0.00148851
-0.0257054
-0.0337466
-0.0158459
-0.138005
-0.144799
-0.140451
-0.128151
-0.113098
-0.0980247
-0.0833888
-0.0686158
-0.0531153
-0.0367809
-0.0199704
-0.00326791
0.0127721
0.0277978
0.041486
0.0531716
0.0626248
0.0699338
0.0741225
0.074098
0.0707537
0.0654438
0.0568613
0.0413946
0.0182679
-0.00654125
-0.0240175
-0.0324052
-0.0320663
-0.0266776
-0.0188423
-0.00989371
-0.00102915
0.00670418
0.0130303
0.017447
0.0191785
0.0185958
0.0179916
0.0193826
0.0202762
0.00770157
-0.028532
-0.0817436
-0.131813
-0.157858
-0.146058
-0.101184
-0.0479825
-0.00803998
0.0135202
0.0293779
0.0454614
0.0549946
0.0519215
0.0317565
0.000719025
-0.0285518
-0.0370963
-0.0173728
-0.119186
-0.125214
-0.121781
-0.11138
-0.0983636
-0.0851738
-0.0723247
-0.0594057
-0.0458962
-0.0316356
-0.0168752
-0.00209908
0.0122014
0.0256666
0.0380063
0.0487471
0.057585
0.0645077
0.0688824
0.0698399
0.0677929
0.063571
0.0564523
0.0444261
0.0270255
0.00802682
-0.00637702
-0.0151591
-0.0169998
-0.014289
-0.00899745
-0.0022954
0.00484719
0.0112572
0.0164992
0.0203632
0.0222493
0.0219094
0.0208242
0.0213119
0.0224261
0.0123765
-0.0185762
-0.0641036
-0.107504
-0.131791
-0.123793
-0.0858538
-0.0389123
-0.00301481
0.0161049
0.0304114
0.0461837
0.0559639
0.0532358
0.0323208
-0.000391837
-0.0315982
-0.0405403
-0.018887
-0.10186
-0.10729
-0.104729
-0.0960258
-0.0848529
-0.0734059
-0.0622251
-0.0510104
-0.0393075
-0.0269403
-0.0140867
-0.0011379
0.0114927
0.0234654
0.0344974
0.0442452
0.0523948
0.058843
0.0631862
0.0647861
0.0637508
0.0605885
0.0549221
0.0456053
0.0324799
0.017943
0.00656441
-0.00199434
-0.00488892
-0.00393996
-0.00046286
0.0044607
0.0100749
0.0153015
0.0195857
0.0228688
0.0247684
0.024587
0.023139
0.0230164
0.0241683
0.015983
-0.0103082
-0.0474063
-0.0827827
-0.104394
-0.0999008
-0.0694934
-0.0295238
0.00191798
0.0185216
0.0312062
0.0464633
0.0562898
0.0538507
0.0323249
-0.00180672
-0.0347046
-0.0439184
-0.0203082
-0.0859256
-0.0910607
-0.0892576
-0.082011
-0.0724768
-0.062618
-0.0529668
-0.0433011
-0.0332347
-0.0225956
-0.0114969
-0.000244405
0.0108094
0.0213536
0.0311354
0.0398766
0.0473043
0.0532482
0.0574359
0.0594283
0.0591681
0.0569271
0.0525129
0.0453186
0.0353885
0.0239931
0.0124866
0.00755786
0.00471128
0.00461705
0.00679431
0.010331
0.0146076
0.0187956
0.022325
0.0250581
0.0268027
0.0266857
0.0248931
0.0242769
0.0252363
0.0183119
-0.00368632
-0.0318827
-0.0585315
-0.0769069
-0.0755099
-0.0527456
-0.0201256
0.00662531
0.0207526
0.0317864
0.0462789
0.0558705
0.0536274
0.0317305
-0.00344246
-0.0376673
-0.0470016
-0.0215331
-0.0717431
-0.0764416
-0.0751898
-0.0691967
-0.0611222
-0.0526944
-0.0444269
-0.0361658
-0.0275833
-0.0185075
-0.00900235
0.000690325
0.0102712
0.0194694
0.0280649
0.035828
0.0425211
0.0479517
0.0519092
0.0540956
0.0543935
0.052922
0.0496057
0.0441703
0.036763
0.0282356
0.0200387
0.0150888
0.01227
0.0115581
0.0128255
0.015357
0.018537
0.0218113
0.0247447
0.0270249
0.0284555
0.0282606
0.0261834
0.0250978
0.0253485
0.0194014
0.00185085
-0.017705
-0.0358831
-0.0508161
-0.0522431
-0.0362989
-0.0109744
0.0110034
0.0227801
0.0322034
0.0456138
0.0546083
0.0524526
0.0305271
-0.00516564
-0.0402008
-0.0494948
-0.0224404
-0.0588853
-0.0631012
-0.0623328
-0.057464
-0.0506941
-0.0435452
-0.0365191
-0.0295195
-0.0222653
-0.0145887
-0.00652066
0.00174807
0.00996395
0.0179291
0.0254142
0.0322368
0.0381944
0.0431044
0.0467916
0.0490441
0.0497421
0.0489213
0.0465671
0.0425896
0.0371864
0.0309767
0.0250043
0.0207116
0.0181183
0.0171308
0.017779
0.0195767
0.021905
0.0244022
0.026831
0.0287758
0.0298714
0.0295309
0.0272858
0.0259295
0.0253543
0.0194312
0.00602473
-0.00556211
-0.0156705
-0.0270932
-0.0307798
-0.0208719
-0.0023669
0.0149618
0.0245705
0.0325264
0.0445073
0.0524386
0.0502561
0.0287753
-0.00675928
-0.0419447
-0.0510413
-0.022887
-0.0470311
-0.0509796
-0.050661
-0.0467492
-0.0411006
-0.0350733
-0.0291518
-0.0232782
-0.0172078
-0.0107769
-0.00399305
0.00299173
0.0100025
0.0168086
0.023262
0.0291951
0.0344401
0.0388358
0.0422329
0.0444736
0.0454523
0.0451637
0.0436232
0.0408365
0.0370059
0.0325984
0.0283179
0.0248148
0.0225653
0.021527
0.0217805
0.0230434
0.024754
0.026638
0.0286205
0.0302854
0.0311253
0.0307107
0.0285836
0.0271112
0.0260554
0.0189679
0.00914389
0.00468388
0.00156408
-0.00706114
-0.0125305
-0.00727526
0.00546019
0.0185035
0.0261363
0.0328116
0.043065
0.0494183
0.0469922
0.0265644
-0.00790924
-0.0424498
-0.0512391
-0.0227271
-0.0363669
-0.0400835
-0.0401105
-0.0369618
-0.0322643
-0.0272183
-0.0222721
-0.0173915
-0.012363
-0.00703153
-0.00138601
0.00447063
0.0103653
0.0161413
0.0216527
0.0267635
0.0313361
0.0352333
0.0383282
0.0404991
0.0416616
0.0417911
0.0409151
0.0390793
0.0364633
0.0334435
0.0305928
0.0277211
0.0258661
0.0249276
0.0249731
0.025859
0.027126
0.0285575
0.0301622
0.0315591
0.0322402
0.0318653
0.0301585
0.0287947
0.0277807
0.0215584
0.0150765
0.0150043
0.0152453
0.00797395
0.00168354
0.00408803
0.0123954
0.0216956
0.0275764
0.0331885
0.0414347
0.0457401
0.0429106
0.0242228
-0.00818024
-0.0412728
-0.0497261
-0.021842
-0.026756
-0.0301388
-0.0304083
-0.0279586
-0.0241283
-0.0199603
-0.0158692
-0.0118422
-0.0077072
-0.00332667
0.0013261
0.00617548
0.0110923
0.0159424
0.0206036
0.0249643
0.028912
0.0323321
0.0351201
0.0371806
0.038447
0.0388889
0.0385301
0.0374276
0.0357195
0.0336768
0.0317089
0.029624
0.0282521
0.0275143
0.0274854
0.0281214
0.0290772
0.0301836
0.0314907
0.032645
0.0332154
0.0330062
0.0318879
0.0309671
0.0307216
0.0281853
0.0246263
0.0256876
0.0253605
0.0185257
0.012499
0.0133507
0.018407
0.0246159
0.0290722
0.0339191
0.0399658
0.0418605
0.0386305
0.0223646
-0.00709056
-0.0380589
-0.046228
-0.0201518
-0.0179168
-0.0210273
-0.0215265
-0.0196817
-0.0165994
-0.0131877
-0.00983515
-0.00655414
-0.00320008
0.000354561
0.00414505
0.00811822
0.0121736
0.0162028
0.0201052
0.0237887
0.0271625
0.0301339
0.032618
0.0345364
0.0358385
0.0364971
0.0365253
0.0359703
0.0349151
0.0334886
0.0316811
0.0307795
0.0299492
0.0294589
0.0294397
0.0299251
0.0306721
0.0315474
0.0326239
0.033586
0.034088
0.0341039
0.0335788
0.0332085
0.033908
0.0339528
0.0334188
0.0341555
0.0321382
0.0258973
0.0207623
0.0207008
0.0234454
0.0272609
0.0307035
0.0351667
0.039327
0.0386749
0.0349069
0.0215233
-0.00416414
-0.032511
-0.0406243
-0.0176613
-0.00983363
-0.0127363
-0.0134207
-0.0120725
-0.00962092
-0.00685925
-0.00414568
-0.00150731
0.00117589
0.00402011
0.00706662
0.0102813
0.0135868
0.0168961
0.0201274
0.0232058
0.0260588
0.0286123
0.0307979
0.0325527
0.0338377
0.0346289
0.0349313
0.034783
0.0342433
0.0334221
0.0324622
0.0317486
0.0312171
0.030931
0.0309584
0.0313576
0.0319711
0.0326856
0.0335832
0.0344114
0.0348928
0.0351169
0.0350669
0.0351703
0.0363503
0.0378814
0.038696
0.0388857
0.0361314
0.0309332
0.0268335
0.0262253
0.0274973
0.0296747
0.0324874
0.0367588
0.0400267
0.0374682
0.0332853
0.0226947
0.000845522
-0.0249013
-0.0332598
-0.0145191
-0.00249605
-0.0051841
-0.00599263
-0.00505025
-0.00313426
-0.00093171
0.00123184
0.00331983
0.00543098
0.00766965
0.0100804
0.0126436
0.0153012
0.0179841
0.0206263
0.0231679
0.0255518
0.0277191
0.029616
0.0311934
0.0324179
0.0332709
0.0337529
0.0338917
0.0337344
0.0333634
0.0328961
0.032473
0.0321764
0.032056
0.0321443
0.032498
0.033029
0.0336361
0.0343947
0.0351335
0.0356261
0.0360142
0.0363177
0.036739
0.0380103
0.0398239
0.0409799
0.0408534
0.0382061
0.0341459
0.0309813
0.0300901
0.0306055
0.0318751
0.0343256
0.0384938
0.0419447
0.0393193
0.0359867
0.0271446
0.00737246
-0.0162289
-0.0248466
-0.0109797
0.00419896
0.00172726
0.000835978
0.00144393
0.00290571
0.00463014
0.00632403
0.00794429
0.00957095
0.0112967
0.0131674
0.0151749
0.0172766
0.019418
0.0215471
0.0236159
0.0255799
0.0273934
0.0290143
0.0304041
0.0315353
0.0323935
0.0329758
0.0333011
0.0334045
0.0333408
0.0331907
0.033025
0.0329186
0.0329315
0.0330826
0.0334152
0.0338925
0.0344305
0.035083
0.0357542
0.0362691
0.0367693
0.0372609
0.037852
0.0389792
0.0405621
0.041624
0.0413396
0.0391106
0.0360473
0.0336396
0.0327674
0.0329177
0.0337605
0.0360434
0.0400236
0.0442887
0.0439553
0.0425018
0.0339238
0.0142731
-0.00735074
-0.0161072
-0.00734631
0.010352
0.00807973
0.00712911
0.00745892
0.00853628
0.00985438
0.0111501
0.0123756
0.0135947
0.0148888
0.0163041
0.0178408
0.0194687
0.0211458
0.0228306
0.0244854
0.0260758
0.0275669
0.0289262
0.0301241
0.0311381
0.0319555
0.0325739
0.0330028
0.033266
0.0334
0.0334582
0.0334887
0.0335218
0.0336358
0.0338422
0.0341672
0.0346045
0.0350948
0.0356645
0.0362739
0.036797
0.0373002
0.037895
0.0385407
0.0394552
0.0406538
0.0414575
0.0411226
0.0393664
0.0370949
0.0352762
0.0345201
0.0345609
0.0352532
0.0373304
0.0410601
0.0458334
0.0477526
0.0476316
0.0395238
0.0203322
0.000956986
-0.00796064
-0.0040041
0.0160309
0.0139259
0.0129291
0.0130304
0.0137881
0.0147661
0.0157276
0.0166221
0.0175001
0.0184333
0.0194667
0.020607
0.0218335
0.023114
0.0244161
0.02571
0.0269697
0.0281689
0.0292826
0.0302881
0.031168
0.0319112
0.0325142
0.0329811
0.0333268
0.0335724
0.0337495
0.0338807
0.0340416
0.0342324
0.034479
0.0347997
0.035202
0.0356516
0.0361548
0.0367041
0.0372219
0.0377134
0.0382832
0.0388913
0.0395949
0.0404226
0.0409467
0.0406147
0.0392809
0.0376013
0.0362373
0.0356035
0.0356392
0.0362951
0.0381686
0.0414763
0.0461726
0.0490171
0.0492675
0.0419483
0.024655
0.00771571
-0.00134959
-0.00130751
0.0212473
0.0193015
0.0182856
0.0182077
0.0187017
0.0193939
0.0200738
0.0206907
0.0212842
0.0219169
0.0226316
0.0234394
0.0243271
0.0252702
0.0262436
0.0272243
0.0281925
0.0291285
0.0300138
0.030831
0.0315667
0.0322113
0.0327614
0.0332173
0.0335871
0.0338829
0.0341258
0.0343385
0.0345474
0.034777
0.0350406
0.0353507
0.0357168
0.0361235
0.0365678
0.0370528
0.0375164
0.0379791
0.038479
0.0389974
0.0395152
0.0400429
0.0403304
0.0400157
0.0390161
0.0377704
0.036742
0.0362198
0.0362728
0.0368633
0.038468
0.041198
0.0452253
0.047729
0.0476195
0.0413162
0.0268789
0.0123113
0.00329324
0.000598495
0.0260669
0.0242761
0.023257
0.0230338
0.0233064
0.0237572
0.0242003
0.0245854
0.0249427
0.0253262
0.0257759
0.0263058
0.0269084
0.0275657
0.028258
0.0289676
0.0296798
0.03038
0.0310547
0.0316907
0.0322779
0.0328084
0.0332784
0.0336866
0.0340375
0.034337
0.0345973
0.0348337
0.0350638
0.0353032
0.0355643
0.0358545
0.0361786
0.0365392
0.0369238
0.0373308
0.0377362
0.0381339
0.0385413
0.0389459
0.0393038
0.0396078
0.0397167
0.0394159
0.0386599
0.0377218
0.036935
0.036496
0.0365382
0.0370151
0.0382666
0.0403406
0.0432789
0.0450673
0.0444063
0.038927
0.0272612
0.0149124
0.00620666
0.00180035
0.0305416
0.0288865
0.0278705
0.0275297
0.027619
0.0278682
0.0281134
0.0283057
0.0284676
0.0286451
0.0288752
0.0291731
0.0295362
0.0299511
0.0304031
0.0308784
0.0313661
0.0318557
0.0323376
0.032802
0.0332414
0.0336493
0.0340226
0.0343591
0.0346601
0.0349276
0.0351683
0.0353911
0.0356074
0.0358274
0.0360626
0.0363175
0.0366
0.0369009
0.0372197
0.0375539
0.0378849
0.0382053
0.0385131
0.0388007
0.0390229
0.0391642
0.039144
0.0388475
0.0382547
0.0375243
0.0368993
0.0365063
0.0364982
0.036812
0.037687
0.0390725
0.0409145
0.0418607
0.0406739
0.0358222
0.0264353
0.0160461
0.00783455
0.00245932
0.0347046
0.0331757
0.0321731
0.0317401
0.0316771
0.0317564
0.0318344
0.0318647
0.0318638
0.0318708
0.0319192
0.0320246
0.0321874
0.0323979
0.0326451
0.0329184
0.0332099
0.0335122
0.0338186
0.034122
0.034417
0.0346986
0.0349643
0.0352113
0.0354398
0.03565
0.0358456
0.0360311
0.0362138
0.0363998
0.0365957
0.0368038
0.0370262
0.0372607
0.0375047
0.0377559
0.0380015
0.0382333
0.038439
0.0386136
0.0387183
0.0387383
0.0386254
0.0383233
0.0378288
0.0372284
0.0367012
0.0363158
0.0362244
0.0363366
0.0368333
0.0375742
0.0384769
0.0386201
0.0369812
0.0326132
0.0249654
0.0162276
0.00861044
0.00278894
0.0385407
0.0371302
0.0361487
0.0356439
0.0354557
0.035393
0.0353317
0.0352281
0.0350938
0.0349613
0.0348604
0.0348065
0.0348019
0.0348401
0.0349128
0.0350119
0.0351322
0.0352681
0.0354155
0.0355692
0.0357255
0.0358803
0.0360318
0.0361771
0.0363162
0.0364477
0.0365737
0.0366961
0.0368191
0.0369467
0.0370823
0.0372289
0.0373853
0.0375532
0.0377242
0.0378984
0.0380606
0.0382072
0.0383189
0.0383936
0.0383985
0.0383237
0.0381382
0.0378174
0.0373705
0.0368367
0.0363534
0.0359349
0.0357315
0.0356194
0.0357525
0.0359269
0.036067
0.0355453
0.033556
0.0295658
0.023177
0.015763
0.00880221
0.00285985
0.0421869
0.0408841
0.0399268
0.0393648
0.039071
0.038887
0.0387065
0.0384893
0.0382429
0.0379942
0.0377693
0.0375828
0.0374384
0.0373316
0.0372566
0.0372071
0.0371797
0.0371704
0.0371771
0.0371958
0.0372246
0.0372602
0.0373015
0.0373459
0.0373933
0.0374417
0.0374917
0.0375432
0.0375983
0.0376582
0.0377243
0.0377973
0.0378756
0.0379589
0.038041
0.0381212
0.0381866
0.0382354
0.038247
0.0382215
0.0381306
0.0379702
0.0377188
0.0373661
0.0369281
0.0364126
0.0359286
0.0354485
0.0351143
0.034779
0.0345701
0.0342645
0.0337946
0.0327501
0.0305061
0.0268254
0.021369
0.015009
0.00868109
0.00285685