/*--------------------------------*- C++ -*----------------------------------*\
| =========                 |                                                 |
| \\      /  F ield         | OpenFOAM: The Open Source CFD Toolbox           |
|  \\    /   O peration     | Version:  2512                                  |
|   \\  /    A nd           | Website:  www.openfoam.com                      |
|    \\/     M anipulation  |                                                 |
\*---------------------------------------------------------------------------*/
FoamFile
{
    version     2.0;
    format      ascii;
    arch        "LSB;label=32;scalar=64";
    class       volScalarField;
    location    "158.95";
    object      p;
}
// * * * * * * * * * * * * * * * * * * * * * * * * * * * * * * * * * * * * * //

dimensions      [0 2 -2 0 0 0 0];

internalField   nonuniform List<scalar> 
13248
(
-0.307731
-0.30947
-0.309943
-0.309651
-0.308493
-0.306027
-0.301753
-0.29533
-0.286504
-0.275221
-0.261701
-0.246443
-0.230157
-0.213641
-0.197638
-0.182735
-0.16929
-0.157477
-0.147226
-0.138496
-0.130963
-0.124535
-0.118766
-0.113186
-0.312312
-0.313028
-0.312915
-0.312219
-0.310754
-0.308044
-0.303625
-0.297079
-0.288131
-0.276763
-0.263261
-0.248186
-0.232257
-0.216205
-0.200648
-0.18603
-0.172604
-0.160471
-0.149609
-0.139925
-0.131202
-0.123289
-0.115775
-0.108661
-0.317744
-0.317334
-0.316357
-0.314895
-0.312747
-0.309485
-0.3046
-0.297619
-0.288255
-0.276532
-0.262814
-0.247714
-0.231941
-0.216158
-0.200886
-0.18648
-0.173124
-0.160883
-0.149689
-0.139466
-0.130019
-0.121264
-0.113012
-0.105273
-0.323891
-0.322333
-0.320313
-0.317864
-0.314817
-0.310753
-0.305092
-0.297299
-0.287111
-0.274657
-0.26042
-0.245077
-0.229325
-0.213753
-0.198781
-0.184649
-0.171465
-0.159227
-0.14789
-0.137385
-0.127583
-0.118496
-0.109869
-0.101907
-0.331137
-0.328445
-0.325301
-0.321793
-0.317709
-0.312564
-0.30569
-0.29656
-0.285053
-0.271501
-0.256534
-0.240866
-0.225128
-0.209779
-0.195099
-0.181229
-0.168216
-0.156053
-0.144701
-0.134102
-0.12419
-0.114923
-0.10616
-0.09809
-0.340016
-0.335998
-0.331875
-0.327303
-0.321982
-0.315321
-0.306633
-0.295571
-0.282313
-0.267433
-0.251656
-0.235642
-0.21988
-0.204679
-0.190205
-0.176531
-0.163672
-0.151608
-0.140304
-0.129712
-0.119778
-0.110474
-0.101689
-0.0935939
-0.351091
-0.345781
-0.340521
-0.334725
-0.32778
-0.318976
-0.307803
-0.294308
-0.279038
-0.262747
-0.246138
-0.229735
-0.213867
-0.198711
-0.184349
-0.170802
-0.158059
-0.146095
-0.134873
-0.124348
-0.11448
-0.105214
-0.0965014
-0.0884425
-0.364498
-0.357754
-0.351299
-0.343993
-0.334826
-0.323134
-0.308877
-0.292634
-0.275262
-0.257558
-0.240102
-0.223249
-0.207177
-0.191961
-0.177617
-0.164131
-0.151475
-0.13961
-0.128492
-0.118077
-0.108315
-0.0991569
-0.090582
-0.0825921
-0.380053
-0.371822
-0.363992
-0.354674
-0.342494
-0.327183
-0.30943
-0.290332
-0.270893
-0.251817
-0.233504
-0.216138
-0.199777
-0.184418
-0.170029
-0.156567
-0.143981
-0.132219
-0.121228
-0.110954
-0.101346
-0.0923544
-0.0839602
-0.0760873
-0.397225
-0.387505
-0.377984
-0.365914
-0.349849
-0.330347
-0.308928
-0.287036
-0.265636
-0.245243
-0.226065
-0.208143
-0.191441
-0.175894
-0.161429
-0.147975
-0.135461
-0.12382
-0.112987
-0.102897
-0.0934898
-0.0847175
-0.0765361
-0.0688223
-0.415076
-0.403894
-0.392194
-0.376443
-0.355682
-0.331654
-0.3066
-0.282066
-0.258834
-0.237194
-0.217177
-0.198704
-0.18166
-0.16593
-0.151405
-0.137985
-0.125578
-0.114102
-0.103477
-0.0936316
-0.0844997
-0.0760243
-0.0681267
-0.0606901
-0.432304
-0.419708
-0.405149
-0.384725
-0.358636
-0.329974
-0.301445
-0.274478
-0.249585
-0.226822
-0.206059
-0.187111
-0.1698
-0.153961
-0.139449
-0.126137
-0.113914
-0.102679
-0.0923419
-0.0828221
-0.0740543
-0.0659774
-0.0585009
-0.0515406
-0.500774
-0.501144
-0.501031
-0.503119
-0.508214
-0.516375
-0.527427
-0.54108
-0.55688
-0.574155
-0.592006
-0.60933
-0.624837
-0.637286
-0.644548
-0.646348
-0.641551
-0.629446
-0.609788
-0.582919
-0.549828
-0.51186
-0.4729
-0.434764
-0.470589
-0.47171
-0.471344
-0.472209
-0.475331
-0.480779
-0.488367
-0.497802
-0.508648
-0.520295
-0.531946
-0.542632
-0.551207
-0.556403
-0.557665
-0.55395
-0.544698
-0.529643
-0.508957
-0.483361
-0.454142
-0.422997
-0.392285
-0.365022
-0.440288
-0.441912
-0.441216
-0.440898
-0.442035
-0.444689
-0.448651
-0.453596
-0.45909
-0.464575
-0.469373
-0.472665
-0.473583
-0.470969
-0.465052
-0.45505
-0.440738
-0.422289
-0.40029
-0.375786
-0.350312
-0.325685
-0.303483
-0.286063
-0.411543
-0.413473
-0.412557
-0.411339
-0.410835
-0.411071
-0.411799
-0.412665
-0.413227
-0.412974
-0.411332
-0.407662
-0.401289
-0.392136
-0.379795
-0.364219
-0.345662
-0.324724
-0.302359
-0.279836
-0.25868
-0.240817
-0.22754
-0.217796
-0.385481
-0.387615
-0.386686
-0.384981
-0.383368
-0.381809
-0.380022
-0.377632
-0.374197
-0.369254
-0.36249
-0.353492
-0.341803
-0.327343
-0.310204
-0.290727
-0.26954
-0.247566
-0.225985
-0.20623
-0.18969
-0.177585
-0.172524
-0.171226
-0.362695
-0.365019
-0.364302
-0.362523
-0.360354
-0.357669
-0.354156
-0.349444
-0.343078
-0.334457
-0.324624
-0.311877
-0.296472
-0.278581
-0.258574
-0.237064
-0.21492
-0.193268
-0.173337
-0.15642
-0.14423
-0.136586
-0.13719
-0.141309
-0.34342
-0.34598
-0.34563
-0.34407
-0.341772
-0.33851
-0.333966
-0.327845
-0.319914
-0.310126
-0.296952
-0.281548
-0.263826
-0.244032
-0.222691
-0.200583
-0.178649
-0.158154
-0.14035
-0.126035
-0.117436
-0.112978
-0.116768
-0.123739
-0.327779
-0.330613
-0.330674
-0.329448
-0.32724
-0.323731
-0.318578
-0.311501
-0.302271
-0.290682
-0.276427
-0.259737
-0.240872
-0.220287
-0.19868
-0.176966
-0.156202
-0.137516
-0.122248
-0.110712
-0.105225
-0.103453
-0.109044
-0.117149
-0.315956
-0.319035
-0.319442
-0.318522
-0.316477
-0.312922
-0.307491
-0.299908
-0.289979
-0.277577
-0.262684
-0.245494
-0.226398
-0.205915
-0.18502
-0.164609
-0.145769
-0.129529
-0.116985
-0.108367
-0.105034
-0.105376
-0.110993
-0.118688
-0.308194
-0.311373
-0.312008
-0.311339
-0.309498
-0.306081
-0.300717
-0.29313
-0.283151
-0.270717
-0.255901
-0.238964
-0.220391
-0.200886
-0.181359
-0.162787
-0.146165
-0.132372
-0.122028
-0.11549
-0.112801
-0.113539
-0.117125
-0.12226
-0.304563
-0.307581
-0.308314
-0.307892
-0.306339
-0.303252
-0.29831
-0.291166
-0.28164
-0.269674
-0.255382
-0.239116
-0.221447
-0.203156
-0.185159
-0.168368
-0.153584
-0.141423
-0.13214
-0.125871
-0.122255
-0.121155
-0.121553
-0.123067
-0.304782
-0.307328
-0.308082
-0.30779
-0.306515
-0.303849
-0.299326
-0.292654
-0.283598
-0.272098
-0.258314
-0.242668
-0.225819
-0.208586
-0.191823
-0.176296
-0.162558
-0.150953
-0.141498
-0.13413
-0.128511
-0.12441
-0.121509
-0.119908
-0.393743
-0.358993
-0.339651
-0.338096
-0.353638
-0.381739
-0.413977
-0.439848
-0.447518
-0.425708
-0.37382
-0.30643
-0.242201
-0.193333
-0.162387
-0.147171
-0.144868
-0.153374
-0.17431
-0.213201
-0.267697
-0.316872
-0.333116
-0.310545
-0.258846
-0.201497
-0.155586
-0.128079
-0.116482
-0.118951
-0.13978
-0.180247
-0.225164
-0.247897
-0.230086
-0.186342
-0.14012
-0.106535
-0.0889001
-0.0879051
-0.100918
-0.113928
-0.112602
-0.0980501
-0.0821347
-0.0707476
-0.0671422
-0.0698115
-0.0737414
-0.0710025
-0.0625457
-0.0498065
-0.0424273
-0.0373666
-0.0331718
-0.0235155
-0.0204873
-0.0178443
-0.0200341
-0.00566196
-0.339253
-0.324518
-0.323775
-0.337972
-0.364435
-0.397199
-0.429256
-0.453389
-0.459769
-0.436761
-0.383448
-0.314548
-0.248584
-0.197391
-0.163186
-0.14382
-0.137221
-0.141163
-0.156115
-0.18672
-0.232084
-0.27543
-0.292479
-0.274172
-0.231223
-0.182585
-0.143838
-0.121843
-0.114952
-0.12253
-0.149717
-0.197125
-0.24786
-0.273719
-0.254253
-0.205192
-0.151736
-0.110642
-0.0863439
-0.0787666
-0.085375
-0.0935253
-0.0914857
-0.0807984
-0.070298
-0.0652517
-0.0681838
-0.077144
-0.0851638
-0.0827676
-0.0722746
-0.0541622
-0.040654
-0.0293154
-0.0215349
-0.0141454
-0.0151117
-0.0215787
-0.0277929
-0.0084909
-0.277145
-0.283354
-0.300425
-0.328767
-0.363318
-0.39798
-0.428428
-0.450128
-0.454812
-0.431612
-0.378989
-0.311031
-0.246178
-0.195371
-0.160081
-0.137917
-0.126977
-0.126103
-0.134985
-0.157031
-0.192697
-0.229586
-0.24719
-0.234663
-0.200827
-0.160735
-0.128881
-0.112245
-0.109829
-0.122242
-0.155206
-0.208383
-0.263998
-0.293342
-0.273886
-0.220834
-0.161183
-0.113301
-0.0830769
-0.069757
-0.070814
-0.0747638
-0.0718259
-0.0640695
-0.0582185
-0.059317
-0.06892
-0.0843414
-0.0965052
-0.0941476
-0.0815101
-0.0582617
-0.0388416
-0.0214446
-0.0100696
-0.00495574
-0.0096379
-0.0251264
-0.0352823
-0.0113589
-0.224663
-0.24569
-0.276054
-0.313596
-0.352479
-0.387111
-0.416177
-0.434185
-0.436354
-0.412045
-0.361193
-0.297195
-0.236492
-0.188141
-0.153391
-0.130056
-0.116057
-0.110344
-0.113201
-0.127108
-0.153463
-0.183457
-0.200898
-0.194041
-0.169038
-0.136876
-0.111317
-0.0994749
-0.100919
-0.117131
-0.15428
-0.212096
-0.272286
-0.305427
-0.287632
-0.232436
-0.168034
-0.114469
-0.0791434
-0.061042
-0.0575245
-0.0579306
-0.0538462
-0.0480681
-0.0459898
-0.052892
-0.0691466
-0.0911982
-0.107643
-0.104895
-0.0900905
-0.062006
-0.0370279
-0.0139468
0.00107504
0.00392648
-0.00411775
-0.0282856
-0.0423493
-0.0142509
-0.185332
-0.214245
-0.250783
-0.291786
-0.331555
-0.364491
-0.388902
-0.407113
-0.407311
-0.382496
-0.334762
-0.276848
-0.222224
-0.177706
-0.144308
-0.120656
-0.104928
-0.0958845
-0.0932612
-0.0994206
-0.116914
-0.139997
-0.156188
-0.153724
-0.136948
-0.111929
-0.0918861
-0.0840187
-0.0885531
-0.107351
-0.146892
-0.207771
-0.27173
-0.30875
-0.294633
-0.239628
-0.172188
-0.114362
-0.074794
-0.0527889
-0.0455901
-0.0431642
-0.0377084
-0.0329808
-0.0336708
-0.0458021
-0.0686623
-0.0975553
-0.118436
-0.114867
-0.0979178
-0.0653437
-0.0352509
-0.00699548
0.0117489
0.0124001
0.00141346
-0.0308875
-0.0488482
-0.0171351
-0.158159
-0.188062
-0.224642
-0.264695
-0.303104
-0.335388
-0.359431
-0.373505
-0.370763
-0.345938
-0.302895
-0.252756
-0.205416
-0.165677
-0.134319
-0.110688
-0.0937876
-0.082506
-0.0763197
-0.0762162
-0.0853306
-0.101345
-0.115127
-0.11514
-0.105907
-0.0869968
-0.0716039
-0.0668633
-0.0736959
-0.0939113
-0.134006
-0.195591
-0.262464
-0.303219
-0.294612
-0.241979
-0.17349
-0.113143
-0.0702664
-0.0451774
-0.0350571
-0.0305041
-0.0235412
-0.0189942
-0.0214284
-0.0381087
-0.0672976
-0.10313
-0.128707
-0.123899
-0.104885
-0.0682157
-0.0335424
-0.00074996
0.0218139
0.0203625
0.00692456
-0.0327793
-0.0546413
-0.0199674
-0.140884
-0.167819
-0.20046
-0.236728
-0.271619
-0.301463
-0.323891
-0.334264
-0.329033
-0.305819
-0.269268
-0.22784
-0.188095
-0.153345
-0.124489
-0.10132
-0.0835172
-0.0705164
-0.0616291
-0.0572654
-0.0595179
-0.0685912
-0.0795526
-0.0884755
-0.0773057
-0.0631604
-0.0515993
-0.0491065
-0.057443
-0.0781653
-0.116908
-0.176486
-0.244038
-0.28886
-0.286456
-0.238871
-0.171919
-0.110989
-0.0658272
-0.0383484
-0.0258953
-0.0198789
-0.0114357
-0.00640408
-0.00955711
-0.0297158
-0.0649018
-0.10782
-0.138315
-0.131792
-0.110929
-0.0705645
-0.0319059
0.00466168
0.0311343
0.0277286
0.0123717
-0.0338544
-0.0596138
-0.0226906
-0.132886
-0.15403
-0.18001
-0.210844
-0.242535
-0.2659
-0.283612
-0.290728
-0.284568
-0.265037
-0.236274
-0.203692
-0.17132
-0.141493
-0.115315
-0.0930695
-0.0748412
-0.0605529
-0.049664
-0.0421328
-0.0391691
-0.04201
-0.048429
-0.0548662
-0.0503207
-0.0411966
-0.0328075
-0.0318645
-0.040957
-0.0611606
-0.0973746
-0.153043
-0.218486
-0.266864
-0.271014
-0.230714
-0.167596
-0.10793
-0.0616174
-0.0323751
-0.0180289
-0.011115
-0.00145203
0.00458595
0.00167128
-0.0209183
-0.0613858
-0.111125
-0.146976
-0.138221
-0.116002
-0.0723182
-0.030308
0.009179
0.0395981
0.0344225
0.0176831
-0.03403
-0.0636682
-0.0252405
-0.130984
-0.143777
-0.161238
-0.183812
-0.205904
-0.226991
-0.240229
-0.245378
-0.240782
-0.226907
-0.206241
-0.181721
-0.155876
-0.130573
-0.107066
-0.0860118
-0.0677802
-0.0526521
-0.0403728
-0.0307006
-0.0241278
-0.0217947
-0.0234206
-0.0271584
-0.0265062
-0.0214283
-0.0158462
-0.015945
-0.0251024
-0.0443812
-0.0769814
-0.126625
-0.188864
-0.23932
-0.25717
-0.218951
-0.160846
-0.103865
-0.0576059
-0.0272
-0.0113397
-0.00393507
0.00647282
0.0137468
0.0119637
-0.0115122
-0.0564668
-0.113244
-0.154615
-0.144768
-0.120165
-0.07342
-0.0287393
0.012783
0.0471107
0.0404117
0.0227772
-0.0333013
-0.066748
-0.027554
-0.128319
-0.133062
-0.144253
-0.160023
-0.174631
-0.188684
-0.198613
-0.203485
-0.201846
-0.193661
-0.179863
-0.161952
-0.141639
-0.120455
-0.0996223
-0.0800455
-0.0622739
-0.0467742
-0.0336049
-0.0225556
-0.0137247
-0.00769765
-0.00500291
-0.00556138
-0.00736396
-0.00438692
-0.00123637
-0.00213428
-0.010874
-0.0287208
-0.0574151
-0.10098
-0.156881
-0.206643
-0.227229
-0.200808
-0.151164
-0.0987825
-0.0540094
-0.0229371
-0.00583372
0.00184072
0.0124604
0.0209809
0.0208987
-0.00219354
-0.0503426
-0.11315
-0.160636
-0.153207
-0.123269
-0.0738768
-0.02732
0.0153239
0.0536137
0.0456596
0.0275423
-0.0316536
-0.0688126
-0.0295701
-0.123096
-0.124182
-0.131135
-0.139588
-0.148189
-0.157527
-0.165879
-0.171214
-0.17225
-0.168315
-0.159484
-0.146516
-0.130564
-0.112866
-0.0945155
-0.0764786
-0.0594386
-0.0439134
-0.030147
-0.0181261
-0.00779652
0.000641526
0.00674779
0.00967592
0.00998972
0.0109685
0.0111596
0.00946999
0.00138365
-0.0146706
-0.0390923
-0.0752857
-0.125175
-0.173818
-0.198059
-0.184085
-0.141766
-0.0940189
-0.0515945
-0.0201086
-0.00164147
0.00640454
0.0165342
0.0261544
0.0287597
0.00752482
-0.0424967
-0.111716
-0.165189
-0.169589
-0.125547
-0.0738215
-0.0260585
0.0167052
0.0589729
0.0502238
0.0319337
-0.0291969
-0.0698771
-0.0312511
-0.118362
-0.119979
-0.123085
-0.125785
-0.129058
-0.134118
-0.139393
-0.143579
-0.145422
-0.143975
-0.138841
-0.130157
-0.118416
-0.10437
-0.0888441
-0.0727132
-0.0567448
-0.0416122
-0.027643
-0.0150371
-0.00392613
0.00573368
0.0141159
0.0201157
0.0223233
0.0212842
0.020632
0.0183335
0.0112811
-0.00367332
-0.0244957
-0.0535424
-0.0958645
-0.139367
-0.162355
-0.156682
-0.126881
-0.0859181
-0.0473984
-0.017019
0.00222189
0.0108689
0.0200433
0.0293754
0.0341222
0.0160651
-0.0335256
-0.107012
-0.165937
-0.168812
-0.125982
-0.0724197
-0.0239323
0.0181577
0.0632377
0.0539671
0.0357927
-0.0259255
-0.0699307
-0.0324943
-0.114005
-0.118992
-0.120674
-0.121254
-0.121292
-0.123263
-0.126381
-0.128951
-0.129646
-0.127564
-0.122315
-0.114016
-0.103094
-0.0901829
-0.0759988
-0.0612659
-0.0465785
-0.0324954
-0.0192981
-0.00710936
0.00380549
0.013486
0.0224956
0.0300365
0.0342396
0.0341417
0.0296026
0.025592
0.0196889
0.00854907
-0.00781438
-0.0320388
-0.0694775
-0.111529
-0.139075
-0.140085
-0.111312
-0.0732798
-0.0382966
-0.010514
0.00734628
0.0155765
0.024044
0.033661
0.0409775
0.0258244
-0.0226068
-0.100086
-0.165545
-0.17015
-0.123589
-0.068464
-0.0202137
0.0206397
0.0671354
0.0572259
0.0392614
-0.021968
-0.0692716
-0.0332747
-0.107027
-0.112993
-0.113948
-0.111432
-0.110821
-0.110977
-0.112139
-0.113152
-0.112723
-0.110017
-0.10473
-0.0969988
-0.0871923
-0.0758128
-0.0633528
-0.0503323
-0.0371965
-0.0243777
-0.0121134
-0.000560129
0.00993012
0.0192902
0.027997
0.0354477
0.0395684
0.0383311
0.034446
0.0300641
0.0245696
0.01537
0.0021803
-0.0169529
-0.0488091
-0.0885568
-0.11601
-0.117059
-0.0929045
-0.0595657
-0.0291096
-0.0047782
0.0116272
0.0195209
0.0273692
0.0367477
0.0446492
0.0319545
-0.0143619
-0.0935097
-0.163252
-0.161962
-0.118632
-0.0633649
-0.0162076
0.0226614
0.0699394
0.0591785
0.0416223
-0.0180392
-0.0679587
-0.0336113
-0.0974053
-0.10444
-0.105876
-0.103595
-0.10111
-0.0995828
-0.099221
-0.0990918
-0.0979904
-0.0951087
-0.0901323
-0.0831548
-0.0744497
-0.0643836
-0.0532983
-0.0415715
-0.02957
-0.0176879
-0.00620838
0.00473675
0.0148811
0.0239804
0.0323307
0.0395965
0.0439405
0.0429307
0.0381897
0.0331638
0.0280192
0.0201714
0.00857775
-0.00744282
-0.0333313
-0.0656671
-0.0900482
-0.0939421
-0.0751897
-0.0469142
-0.0205801
0.00059252
0.0154686
0.0227989
0.0301529
0.0392876
0.0473571
0.0356708
-0.00901231
-0.0874512
-0.157947
-0.157239
-0.112051
-0.0574766
-0.0120539
0.0241909
0.0719164
0.060238
0.0429558
-0.014157
-0.065717
-0.0335037
-0.0876879
-0.095075
-0.0969076
-0.0946127
-0.0913678
-0.0888968
-0.0875101
-0.0865127
-0.0848831
-0.0818543
-0.0770806
-0.0706009
-0.0626422
-0.0535324
-0.0435572
-0.0330041
-0.0221678
-0.0113381
-0.000745881
0.00940908
0.0189092
0.0275253
0.0353625
0.0420988
0.0463577
0.0457147
0.0409434
0.0358077
0.0313603
0.0248515
0.0143251
0.00108512
-0.0170924
-0.0413867
-0.0645667
-0.0713217
-0.0574253
-0.0340018
-0.0118059
0.00578653
0.0188528
0.0254598
0.0324323
0.0410465
0.049237
0.0382316
-0.00431563
-0.0791579
-0.148716
-0.149005
-0.103443
-0.0505616
-0.00753704
0.0254498
0.0728761
0.0604688
0.0435867
-0.00996782
-0.0624384
-0.0328969
-0.0777018
-0.084931
-0.0869209
-0.0850097
-0.0816776
-0.0787346
-0.0766407
-0.0749671
-0.0729024
-0.0697631
-0.065212
-0.0592624
-0.0520977
-0.0439738
-0.0351058
-0.025687
-0.0159203
-0.00605219
0.00372012
0.0131816
0.0220887
0.0301916
0.0375012
0.0435911
0.0475528
0.0473666
0.0430213
0.0382379
0.0346509
0.029185
0.0198466
0.0105877
7.92161e-05
-0.0185184
-0.0407728
-0.049572
-0.0403459
-0.0219562
-0.0035595
0.0106825
0.0218808
0.0275665
0.0341823
0.0420574
0.0499914
0.039976
0.00127252
-0.067481
-0.134948
-0.136579
-0.0927246
-0.0429069
-0.00290637
0.0264208
0.0726584
0.0598659
0.0437698
-0.00529985
-0.058099
-0.0317364
-0.0673886
-0.0746112
-0.0769099
-0.0752569
-0.0720197
-0.0688881
-0.066401
-0.0643161
-0.0620088
-0.0588998
-0.0546638
-0.0492557
-0.0427944
-0.0354829
-0.027502
-0.0190094
-0.0101726
-0.00121056
0.0077152
0.0163915
0.0245765
0.032028
0.0387765
0.0443121
0.0479207
0.048166
0.0446161
0.0405313
0.0378724
0.033752
0.0266928
0.0214648
0.0158899
0.000793334
-0.020198
-0.0298571
-0.0244819
-0.0106754
0.00427843
0.015352
0.0245808
0.0292147
0.0354106
0.0423996
0.0496891
0.0411223
0.00768327
-0.0530286
-0.116675
-0.119696
-0.0799918
-0.0347472
0.00171495
0.0271979
0.0711574
0.0584292
0.0435638
-0.000312139
-0.0527334
-0.0299874
-0.0574922
-0.0644397
-0.0668172
-0.0654533
-0.0624583
-0.0593798
-0.0567793
-0.0545282
-0.0521422
-0.049133
-0.0451944
-0.0402513
-0.0343948
-0.0278061
-0.0206533
-0.0130725
-0.00517144
0.00288324
0.0109601
0.0188651
0.0263722
0.0331963
0.0393763
0.0444333
0.0477697
0.0484449
0.0459103
0.0428021
0.041201
0.0393782
0.0357858
0.0334341
0.0293376
0.0156712
-0.00316216
-0.0122979
-0.0100247
-0.000546513
0.0112637
0.0197118
0.0270271
0.0305675
0.0362132
0.042273
0.0482385
0.0413378
0.0138411
-0.0369652
-0.0946074
-0.0985863
-0.0655011
-0.0264258
0.00606344
0.0278438
0.0683388
0.056155
0.0429405
0.00477079
-0.0463965
-0.0276322
-0.048021
-0.0544509
-0.0568578
-0.0558327
-0.0531775
-0.0503
-0.0477578
-0.0454917
-0.0431239
-0.0402499
-0.0366067
-0.0321217
-0.0268653
-0.0209855
-0.0146132
-0.0078554
-0.000788846
0.00644334
0.0137237
0.0208685
0.0276861
0.0338854
0.0394947
0.0441271
0.0472569
0.0483389
0.0469089
0.044961
0.044413
0.0447796
0.0445966
0.0440594
0.0396117
0.0268178
0.0109622
0.00285021
0.00262561
0.00835252
0.0173542
0.0237346
0.0292725
0.0317896
0.036724
0.0418887
0.0460565
0.0405602
0.0192047
-0.0205075
-0.0702431
-0.07428
-0.049791
-0.0182473
0.00994784
0.0284511
0.0642431
0.0530739
0.0419717
0.0098128
-0.0391619
-0.0246687
-0.0388547
-0.0448494
-0.0473007
-0.0465967
-0.0442964
-0.0416808
-0.0392854
-0.0370997
-0.0348324
-0.0321533
-0.0288398
-0.0248194
-0.0201363
-0.0149041
-0.00923
-0.00321635
0.00307026
0.00951246
0.0160166
0.0224172
0.0285622
0.0341788
0.0392527
0.0435064
0.0464878
0.0479316
0.0475261
0.0466908
0.0470666
0.0488514
0.0504952
0.0507482
0.046244
0.0351253
0.0223594
0.0152408
0.0132232
0.0159311
0.0224483
0.0272826
0.0313104
0.0330101
0.0371278
0.0414582
0.0436419
0.0392353
0.0238001
-0.00508414
-0.0459158
-0.0498045
-0.0336303
-0.0104587
0.013246
0.0291426
0.0590566
0.0493967
0.0408518
0.0147393
-0.0311471
-0.0210022
-0.0303127
-0.0358537
-0.038251
-0.0377972
-0.0358439
-0.0335212
-0.0313335
-0.0293069
-0.0272138
-0.0247783
-0.0218071
-0.0182305
-0.0140774
-0.00944361
-0.00442408
0.00088892
0.00644441
0.0121488
0.0179268
0.023629
0.0291302
0.0341995
0.0387799
0.0426937
0.0455648
0.0472943
0.0477305
0.0478122
0.0488104
0.0510422
0.0530907
0.0535839
0.0497851
0.0409188
0.0308147
0.0245614
0.0216049
0.0221983
0.0266279
0.03029
0.033115
0.0342092
0.0375166
0.0411752
0.0416612
0.0380753
0.0277349
0.00789999
-0.023926
-0.0265629
-0.0179759
-0.00320501
0.0160277
0.0301187
0.0533039
0.0455779
0.0398308
0.01949
-0.0225417
-0.016909
-0.0224827
-0.0274584
-0.0297176
-0.0294773
-0.027863
-0.0258541
-0.0239162
-0.0220957
-0.0202135
-0.01804
-0.0154095
-0.0122587
-0.00860889
-0.00454148
-0.000135402
0.00453088
0.00941417
0.0144366
0.0195366
0.0245853
0.0294787
0.0340327
0.038165
0.041764
0.0445466
0.0464747
0.0475289
0.0482777
0.0495893
0.051736
0.053593
0.0540167
0.0510696
0.0443574
0.0364595
0.0310805
0.0279138
0.0272411
0.0299967
0.0327081
0.0346655
0.0353365
0.0378767
0.0410195
0.0406741
0.0374946
0.0308652
0.0175669
-0.00589834
-0.00677393
-0.00400481
0.00339227
0.0185083
0.0314628
0.0479811
0.0423975
0.0391979
0.0239907
-0.0136223
-0.0123708
-0.0151989
-0.0196435
-0.0217791
-0.0217305
-0.0204292
-0.0187254
-0.0170418
-0.0154387
-0.0137801
-0.0118764
-0.00958363
-0.00684288
-0.00366872
-0.00012782
0.00371307
0.00778479
0.0120485
0.0164412
0.0209127
0.0253567
0.0296866
0.033756
0.0374804
0.0407804
0.0434655
0.0455044
0.0469478
0.0481195
0.0495287
0.0513937
0.052894
0.0531335
0.0508968
0.0459684
0.0398958
0.035378
0.0324342
0.0311597
0.0326745
0.0345683
0.0359325
0.0363193
0.0382081
0.0408684
0.0405492
0.037446
0.0330626
0.0239189
0.00744232
0.00791828
0.00723332
0.00925599
0.0208741
0.0329077
0.0442277
0.0407206
0.0392123
0.027985
-0.00487435
-0.00760176
-0.00850031
-0.0124829
-0.0144959
-0.0145949
-0.0135606
-0.0121312
-0.0106899
-0.00930686
-0.0078781
-0.00624332
-0.00427624
-0.00192186
0.000810439
0.00386602
0.00718607
0.0107107
0.0144059
0.0182213
0.0221166
0.0260048
0.0298156
0.0334315
0.0367779
0.0397861
0.0423445
0.0444114
0.0460511
0.04744
0.04883
0.0503793
0.0515307
0.0516159
0.0499304
0.0463714
0.0417598
0.0378471
0.0355196
0.0340901
0.034751
0.035951
0.0369033
0.0370815
0.0384875
0.0406574
0.0407288
0.0380392
0.0349203
0.0282222
0.0167655
0.0173551
0.015425
0.0144287
0.0232786
0.0341725
0.0425775
0.0412499
0.0398986
0.0309264
0.00292259
-0.00302984
-0.00245946
-0.00598707
-0.00783572
-0.00803205
-0.00722721
-0.00605168
-0.00484571
-0.00368123
-0.00247669
-0.00109775
0.000564
0.00255958
0.00488418
0.00749346
0.010336
0.013361
0.0165387
0.019828
0.0231979
0.0265773
0.0299114
0.0331032
0.0360941
0.0388186
0.0412145
0.0432346
0.0449268
0.0463821
0.0477002
0.0489715
0.0498457
0.0498548
0.0485923
0.0460518
0.0426372
0.0396105
0.0375806
0.0361835
0.0362954
0.0369472
0.037597
0.0376256
0.0386905
0.0404329
0.0407987
0.038867
0.0365747
0.0314235
0.0233005
0.0230588
0.0210497
0.0189332
0.0254281
0.0349374
0.042494
0.0429648
0.0405646
0.0321402
0.00887513
0.000752767
0.00298373
-9.3423e-05
-0.00176185
-0.00203093
-0.0014326
-0.00049274
0.00049385
0.0014562
0.0024537
0.0035959
0.00497607
0.00664288
0.00859555
0.0107987
0.0132079
0.0157802
0.0184896
0.0213023
0.0241959
0.0271115
0.0300076
0.0328034
0.035457
0.0379045
0.0401089
0.0420215
0.0436717
0.0450947
0.0463173
0.0473725
0.0480492
0.0480511
0.0471183
0.0453277
0.0428477
0.0405619
0.0388512
0.0375829
0.0373761
0.0376275
0.0380424
0.0379848
0.0387952
0.0401765
0.0406172
0.0393537
0.037633
0.0335932
0.027632
0.0265598
0.0249514
0.0227236
0.0271932
0.0351199
0.0425481
0.0435526
0.0400732
0.0312504
0.0124429
0.00328513
0.0079193
0.00523934
0.00372232
0.00338843
0.00381323
0.00455388
0.00535076
0.0061325
0.00694117
0.0078677
0.00899336
0.010364
0.0119819
0.0138195
0.0158391
0.0180041
0.0202925
0.0226763
0.0251391
0.0276334
0.0301292
0.0325575
0.0348886
0.0370632
0.0390583
0.0408257
0.0423737
0.0437081
0.044825
0.0457225
0.046267
0.0463036
0.0456337
0.0443916
0.0426174
0.0409047
0.0395233
0.038423
0.0380575
0.0380433
0.0382705
0.0381709
0.0387676
0.0398236
0.0401537
0.0391947
0.0379419
0.0348028
0.0302124
0.0287302
0.0275533
0.0256588
0.0284702
0.0347755
0.0416972
0.042347
0.0380219
0.0290419
0.0138787
0.00451378
0.012348
0.0100058
0.00863203
0.0082643
0.00855408
0.00912679
0.00975579
0.0103738
0.0110122
0.0117466
0.0126466
0.0137541
0.0150744
0.0165864
0.0182588
0.0200603
0.0219722
0.023972
0.0260481
0.0281622
0.0302922
0.0323812
0.034406
0.0363137
0.0380887
0.0396868
0.0411016
0.0423215
0.0433284
0.0441129
0.0445749
0.0446597
0.0442027
0.0433589
0.04211
0.0408384
0.0397548
0.0388298
0.0384035
0.0382312
0.0383092
0.0381914
0.0385858
0.0393293
0.0394829
0.0386562
0.0376789
0.0352815
0.0316145
0.0300122
0.0291281
0.0276681
0.0292388
0.0339592
0.0397304
0.0397666
0.0352269
0.0265821
0.0140718
0.00484153
0.0162674
0.0142441
0.0130241
0.01265
0.0128271
0.01325
0.013729
0.0142028
0.0146926
0.0152594
0.0159622
0.0168393
0.0178981
0.019123
0.0204884
0.021968
0.0235462
0.0252049
0.0269355
0.0287084
0.0305065
0.0322833
0.0340196
0.0356711
0.0372243
0.03864
0.0399063
0.0410028
0.0419016
0.0425999
0.0430118
0.0431429
0.0428579
0.0422986
0.0414378
0.0405025
0.0396687
0.0389099
0.0384768
0.0382222
0.0381856
0.0380476
0.0382446
0.0386366
0.0386347
0.0379335
0.037057
0.0352327
0.0322951
0.030683
0.0299341
0.0288328
0.0295653
0.0328614
0.0371296
0.0367383
0.0322714
0.0242623
0.0136568
0.00473057
0.0197606
0.0180303
0.0169538
0.0165699
0.0166483
0.0169428
0.0172951
0.0176463
0.0180086
0.0184307
0.0189635
0.0196411
0.0204727
0.0214473
0.0225442
0.0237417
0.0250263
0.0263838
0.0278081
0.0292765
0.0307751
0.0322674
0.0337366
0.0351468
0.0364841
0.0377168
0.0388273
0.0397975
0.0405923
0.041217
0.0415967
0.0417636
0.0416135
0.0412555
0.0406745
0.0399941
0.0393588
0.0387472
0.0383351
0.0380451
0.0379222
0.0377518
0.0377815
0.0379147
0.037777
0.0371267
0.0362569
0.0348304
0.0325116
0.030938
0.0301938
0.0293465
0.0295209
0.0315496
0.0343631
0.0336645
0.0293645
0.0220962
0.0129505
0.00446454
0.0228707
0.0213839
0.0204264
0.0200434
0.0200536
0.0202447
0.0204876
0.0207323
0.0209849
0.0212837
0.0216717
0.0221791
0.0228158
0.0235743
0.0244386
0.0253906
0.0264191
0.0275129
0.0286672
0.0298658
0.0310969
0.0323325
0.0335573
0.0347429
0.0358751
0.0369299
0.0378859
0.0387304
0.0394267
0.0399823
0.0403359
0.0405237
0.0404725
0.0402549
0.0398702
0.039382
0.0388971
0.0384082
0.0380292
0.0377263
0.0375401
0.0373302
0.037223
0.0371591
0.0368965
0.0362782
0.0354026
0.0342147
0.0323971
0.0309019
0.0300903
0.029373
0.0291616
0.0301436
0.0316813
0.0307174
0.0266085
0.0200572
0.0121029
0.00415872
0.0256019
0.0243328
0.0234914
0.0231251
0.0230877
0.0231871
0.0233329
0.0234843
0.0236438
0.0238398
0.0241066
0.0244705
0.0249418
0.025516
0.0261806
0.0269211
0.0277278
0.0285923
0.0295109
0.0304721
0.0314664
0.0324726
0.0334763
0.0344556
0.0353965
0.0362825
0.0370909
0.0378127
0.0384134
0.038901
0.0392274
0.0394207
0.0394343
0.0393119
0.0390604
0.0387112
0.038338
0.0379447
0.0376006
0.0372938
0.0370596
0.0368144
0.0365938
0.0363868
0.0360202
0.0354127
0.0345498
0.0334862
0.0320353
0.030649
0.0297364
0.0290336
0.028547
0.0286874
0.0291848
0.027971
0.0240708
0.0181603
0.0111904
0.00384846
0.0279954
0.0269168
0.0261748
0.0258109
0.0257127
0.0257641
0.0258443
0.025924
0.0260078
0.0261189
0.0262857
0.0265305
0.0268633
0.0272819
0.0277768
0.0283366
0.0289531
0.02962
0.0303346
0.0310889
0.0318751
0.0326773
0.0334829
0.0342753
0.0350415
0.0357704
0.0364401
0.0370436
0.0375518
0.03797
0.038263
0.0384481
0.0384974
0.0384345
0.0382675
0.0380129
0.0377159
0.037398
0.0370822
0.0367751
0.0364992
0.0361986
0.0359119
0.0356048
0.0351602
0.0345433
0.0337087
0.0327093
0.0314889
0.0302208
0.0292102
0.0284329
0.0277318
0.0272413
0.0269203
0.0254655
0.0217863
0.0164278
0.0102623
0.00354299
0.030099
0.0291837
0.0285328
0.0281851
0.0280553
0.0280376
0.0280611
0.0280843
0.0281055
0.0281456
0.0282291
0.0283751
0.0285927
0.0288811
0.0292331
0.0296398
0.0300947
0.0305928
0.0311319
0.0317071
0.0323124
0.0329357
0.0335661
0.0341902
0.0347942
0.035382
0.0359236
0.0364149
0.0368335
0.0371805
0.0374318
0.0375967
0.0376579
0.0376268
0.0375093
0.0373163
0.037075
0.0367935
0.0365025
0.0361972
0.0358922
0.0355632
0.035207
0.0348205
0.0343199
0.0336817
0.0328742
0.0319144
0.0308163
0.0296468
0.0285626
0.0276553
0.0267708
0.0258389
0.0248959
0.0232171
0.0197575
0.014872
0.00935757
0.00324575
0.0319326
0.031158
0.0305885
0.0302593
0.0301051
0.030043
0.0300132
0.0299866
0.0299596
0.0299421
0.0299564
0.0300203
0.0301422
0.0303222
0.0305548
0.0308329
0.0311513
0.0315062
0.0318961
0.032318
0.0327672
0.0332353
0.0337137
0.0341929
0.0346637
0.0351106
0.0355301
0.0359144
0.036245
0.0365202
0.036723
0.036857
0.0369109
0.0368899
0.0367958
0.0366368
0.0364258
0.0361736
0.035891
0.0355833
0.0352528
0.034893
0.0344883
0.0340404
0.0334978
0.0328361
0.0320419
0.0311102
0.0300672
0.0289551
0.0278248
0.0267738
0.0257209
0.0244963
0.023101
0.021221
0.0179688
0.0134939
0.00850589
0.00296072
0.0335235
0.0328688
0.0323702
0.0320583
0.0318846
0.031785
0.0317123
0.0316433
0.0315739
0.0315154
0.0314793
0.0314787
0.0315229
0.0316136
0.031747
0.0319179
0.0321218
0.0323563
0.0326203
0.0329116
0.033227
0.0335607
0.0339048
0.0342512
0.034595
0.0349271
0.0352389
0.0355246
0.0357708
0.0359746
0.0361238
0.0362186
0.0362506
0.0362223
0.0361317
0.0359853
0.0357865
0.035545
0.0352636
0.0349484
0.0345966
0.0342072
0.0337657
0.0332708
0.0326926
0.0320094
0.031214
0.0302983
0.0292761
0.0281801
0.0270198
0.0258428
0.024631
0.0232167
0.021515
0.0194654
0.0163994
0.0122858
0.00772778
0.00269351
0.034897
0.0343429
0.0339054
0.0336108
0.0334236
0.0332954
0.0331895
0.033087
0.0329838
0.0328867
0.0328075
0.0327575
0.032742
0.0327622
0.0328144
0.0328966
0.0330057
0.0331398
0.033298
0.0334792
0.0336808
0.0338987
0.0341271
0.0343614
0.0345942
0.0348212
0.0350345
0.0352292
0.0353952
0.0355289
0.0356212
0.035671
0.035671
0.0356221
0.0355202
0.0353694
0.0351682
0.0349242
0.0346361
0.0343084
0.0339364
0.0335203
0.0330477
0.0325162
0.031906
0.0312025
0.030397
0.0294829
0.0284654
0.0273582
0.0261691
0.0248972
0.0235436
0.0220023
0.0201156
0.0179356
0.0150266
0.0112341
0.00703552
0.00244958
0.0360755
0.0356055
0.0352203