/*--------------------------------*- C++ -*----------------------------------*\
| =========                 |                                                 |
| \\      /  F ield         | OpenFOAM: The Open Source CFD Toolbox           |
|  \\    /   O peration     | Version:  2312                                  |
|   \\  /    A nd           | Website:  www.openfoam.com                      |
|    \\/     M anipulation  |                                                 |
\*---------------------------------------------------------------------------*/
FoamFile
{
    version     2.0;
    format      ascii;
    arch        "LSB;label=32;scalar=64";
    class       volScalarField;
    location    "184";
    object      p;
}
// * * * * * * * * * * * * * * * * * * * * * * * * * * * * * * * * * * * * * //

dimensions      [0 2 -2 0 0 0 0];

internalField   nonuniform List<scalar> 
5478
(
-0.622267
-0.616721
-0.610448
-0.605307
-0.602578
-0.600191
-0.593868
-0.579675
-0.555237
-0.520971
-0.479394
-0.433133
-0.385476
-0.335135
-0.284991
-0.634112
-0.628388
-0.62139
-0.61358
-0.604245
-0.591107
-0.572334
-0.54696
-0.515352
-0.478985
-0.439446
-0.398449
-0.356706
-0.314993
-0.275932
-0.651791
-0.644865
-0.635631
-0.623029
-0.604552
-0.580075
-0.550831
-0.518121
-0.483043
-0.446436
-0.409135
-0.371633
-0.334635
-0.298453
-0.26323
-0.674961
-0.664934
-0.65206
-0.631687
-0.602406
-0.567673
-0.530811
-0.493522
-0.456473
-0.420003
-0.384236
-0.34948
-0.315852
-0.283614
-0.253405
-0.704197
-0.688083
-0.669433
-0.638275
-0.597675
-0.554405
-0.512049
-0.471695
-0.433466
-0.397165
-0.362677
-0.329866
-0.298674
-0.269286
-0.241059
-0.736529
-0.71369
-0.684654
-0.640481
-0.589435
-0.539392
-0.492995
-0.450504
-0.411462
-0.375403
-0.341905
-0.31067
-0.281521
-0.254254
-0.228326
-0.766023
-0.737825
-0.693948
-0.635841
-0.575882
-0.520576
-0.471197
-0.427222
-0.387795
-0.352155
-0.319695
-0.289987
-0.262709
-0.237584
-0.21371
-0.786658
-0.753514
-0.692766
-0.621934
-0.554791
-0.495554
-0.444231
-0.399519
-0.360225
-0.325397
-0.294267
-0.266277
-0.241062
-0.218132
-0.196963
-0.504402
-0.507356
-0.513411
-0.524823
-0.541144
-0.561008
-0.582212
-0.601335
-0.615982
-0.620847
-0.612712
-0.590386
-0.554308
-0.509466
-0.459529
-0.543522
-0.54572
-0.553755
-0.569023
-0.590734
-0.617484
-0.647168
-0.676666
-0.698726
-0.709445
-0.703362
-0.676968
-0.626076
-0.563509
-0.483695
-0.575175
-0.575541
-0.583671
-0.599897
-0.623243
-0.652174
-0.684332
-0.716046
-0.740901
-0.75278
-0.744607
-0.711844
-0.650677
-0.57285
-0.478992
-0.596589
-0.59452
-0.600705
-0.61493
-0.636302
-0.663331
-0.693628
-0.723129
-0.746719
-0.75618
-0.743671
-0.703894
-0.635418
-0.549444
-0.45225
-0.608221
-0.603811
-0.606626
-0.616513
-0.633198
-0.655588
-0.681382
-0.706985
-0.726189
-0.730331
-0.711838
-0.666411
-0.595655
-0.51115
-0.418223
-0.612793
-0.6069
-0.60597
-0.610499
-0.621326
-0.637987
-0.658608
-0.678429
-0.689987
-0.685163
-0.657863
-0.607897
-0.538695
-0.463574
-0.383932
-0.614132
-0.607867
-0.603882
-0.603653
-0.609188
-0.620811
-0.635266
-0.646353
-0.646754
-0.630323
-0.594728
-0.542315
-0.478835
-0.414057
-0.347753
-0.616145
-0.610231
-0.604487
-0.601203
-0.602794
-0.608592
-0.61416
-0.613238
-0.600453
-0.573035
-0.532215
-0.481175
-0.425801
-0.369722
-0.313677
-0.404711
-0.391427
-0.405208
-0.359813
-0.251003
-0.189431
-0.168798
-0.182534
-0.212059
-0.221477
-0.175908
-0.158148
-0.143977
-0.122662
-0.102607
-0.122121
-0.143049
-0.149833
-0.115368
-0.109039
-0.126333
-0.152225
-0.117783
-0.124311
-0.144075
-0.187684
-0.182074
-0.184158
-0.0874307
-0.0632424
-0.0392374
-0.0248504
-0.0147417
-0.00893893
-0.0063505
-0.004166
-0.00229709
-0.000731711
-0.38707
-0.315571
-0.281615
-0.244871
-0.177622
-0.166362
-0.170393
-0.200906
-0.250281
-0.263932
-0.196824
-0.162197
-0.144886
-0.126512
-0.108625
-0.126969
-0.146841
-0.151428
-0.109707
-0.0992176
-0.111521
-0.136479
-0.119554
-0.132939
-0.161476
-0.198662
-0.160696
-0.156829
-0.0915739
-0.068739
-0.0383611
-0.0231554
-0.0147859
-0.0092636
-0.00634101
-0.00410695
-0.00228939
-0.000734899
-0.349059
-0.233223
-0.167662
-0.120158
-0.102707
-0.141742
-0.165971
-0.204995
-0.271267
-0.291455
-0.213794
-0.163447
-0.143161
-0.129068
-0.11594
-0.132416
-0.15031
-0.151168
-0.103358
-0.0887176
-0.0975765
-0.119706
-0.118506
-0.138519
-0.177252
-0.203659
-0.13736
-0.126643
-0.0928402
-0.0726995
-0.0370748
-0.021383
-0.014737
-0.00956516
-0.00631838
-0.00404114
-0.00227863
-0.000737132
-0.311592
-0.179859
-0.0969108
-0.0359692
-0.052689
-0.119899
-0.152073
-0.187316
-0.265951
-0.292213
-0.223976
-0.163602
-0.139416
-0.127408
-0.122126
-0.137416
-0.153767
-0.150798
-0.0976409
-0.0784152
-0.0853226
-0.103155
-0.114725
-0.14042
-0.189917
-0.202914
-0.115192
-0.0965653
-0.0911455
-0.0747812
-0.0356168
-0.0196981
-0.0145857
-0.00982138
-0.00628491
-0.00397239
-0.0022649
-0.000738078
-0.292476
-0.168805
-0.0728916
-0.00278513
-0.00385427
-0.0822947
-0.127219
-0.157728
-0.243777
-0.278914
-0.224458
-0.160893
-0.134162
-0.121645
-0.126292
-0.140659
-0.157326
-0.14967
-0.0923912
-0.0685088
-0.0750418
-0.0876655
-0.108826
-0.138163
-0.199005
-0.198457
-0.0964473
-0.0679878
-0.0872148
-0.0747258
-0.0340817
-0.0184343
-0.0143234
-0.0100029
-0.00624073
-0.00390282
-0.00224795
-0.000737455
-0.277901
-0.177174
-0.0877815
-0.0105006
0.0252195
-0.0146032
-0.086373
-0.121512
-0.208932
-0.247536
-0.208111
-0.153534
-0.1272
-0.112247
-0.127256
-0.139972
-0.165023
-0.150809
-0.089602
-0.0594232
-0.0665834
-0.0733114
-0.100572
-0.132101
-0.203752
-0.19199
-0.0826342
-0.0425835
-0.0816363
-0.0729073
-0.0326403
-0.0165972
-0.0139436
-0.0101139
-0.00619126
-0.003837
-0.00222907
-0.000735324
-0.265812
-0.181391
-0.100008
-0.0251386
0.0363555
0.0563312
-0.0264783
-0.0881235
-0.181842
-0.228562
-0.196235
-0.149039
-0.122322
-0.101049
-0.123452
-0.135571
-0.159882
-0.148496
-0.0859655
-0.0518773
-0.0605684
-0.0603437
-0.089338
-0.122141
-0.204241
-0.182631
-0.0728838
-0.0205664
-0.0745023
-0.0693974
-0.0312093
-0.014929
-0.0135021
-0.0101125
-0.00612728
-0.00377203
-0.00220566
-0.000731145
-0.260448
-0.198349
-0.125807
-0.0547396
0.00838886
0.06622
0.0286004
-0.0434693
-0.133616
-0.180387
-0.163531
-0.133847
-0.116706
-0.0902861
-0.113181
-0.127066
-0.162856
-0.150239
-0.086019
-0.0450639
-0.0554111
-0.0482699
-0.0770224
-0.107468
-0.200565
-0.172329
-0.0695672
-0.00268371
-0.0662409
-0.0649658
-0.0301095
-0.0134218
-0.0129417
-0.0101082
-0.00608045
-0.00372226
-0.00218556
-0.00072664
-0.230536
-0.184533
-0.112713
-0.0424777
0.0230994
0.10662
0.098412
-0.00198757
-0.0990339
-0.14304
-0.127595
-0.106973
-0.0962769
-0.0769549
-0.0979224
-0.115289
-0.144879
-0.139612
-0.0834075
-0.0398557
-0.0503919
-0.0411461
-0.0663807
-0.0968966
-0.185157
-0.155194
-0.0662195
0.000941111
-0.0567324
-0.0578159
-0.0281083
-0.0124968
-0.0122128
-0.00976067
-0.00593612
-0.0036377
-0.00213887
-0.000712849
-0.17604
-0.142394
-0.0840666
-0.0269301
0.0286102
0.0806442
0.0829471
0.0176176
-0.0515906
-0.0810945
-0.0793588
-0.0738895
-0.0699554
-0.054195
-0.0728087
-0.105115
-0.138838
-0.123429
-0.0713044
-0.033461
-0.0367615
-0.0298576
-0.046696
-0.0798317
-0.159782
-0.135608
-0.0436589
0.00777923
-0.0430031
-0.0527812
-0.0243676
-0.0108119
-0.0111865
-0.00918847
-0.00568308
-0.00350021
-0.00206527
-0.000690253
-0.138292
-0.118528
-0.0766948
-0.0314235
0.0119712
0.052932
0.0628949
0.0264522
-0.0183653
-0.0455128
-0.0499092
-0.0499219
-0.0492428
-0.0349372
-0.0385254
-0.0624723
-0.0811239
-0.0832986
-0.0512204
-0.0312032
-0.0278569
-0.0200206
-0.0258598
-0.0541169
-0.122654
-0.0975793
-0.0154451
0.0144827
-0.0282067
-0.0423088
-0.0195876
-0.00971671
-0.0101191
-0.00843112
-0.00538964
-0.00336587
-0.00198466
-0.000664163
-0.1083
-0.0960356
-0.0655718
-0.0304489
0.00200422
0.0283971
0.0394722
0.0219042
-0.00536899
-0.0230413
-0.0264688
-0.0268451
-0.0238985
-0.0124728
-0.00644764
-0.0212446
-0.0377969
-0.0394094
-0.0327979
-0.0323181
-0.0204867
-0.00748935
-0.00368454
-0.0293557
-0.0803323
-0.0497199
0.0105643
0.0255149
-0.0110102
-0.0303189
-0.0152787
-0.00905099
-0.00889672
-0.00751966
-0.00507366
-0.00322695
-0.00188944
-0.000632419
-0.0846439
-0.0775056
-0.0573453
-0.0325417
-0.0100984
0.00895798
0.0194237
0.0138689
0.000740292
-0.0105271
-0.0132743
-0.0138969
-0.0116901
-0.000530509
0.0174392
0.0183467
0.00393933
-0.00458335
-0.0165208
-0.027042
-0.0163876
-0.0016901
0.012153
-0.00695806
-0.038919
-0.0059144
0.0306154
0.0319696
0.00665795
-0.0150221
-0.0107515
-0.00866167
-0.00749243
-0.006449
-0.00471642
-0.00306882
-0.00177667
-0.000595228
-0.0664659
-0.0625249
-0.0495731
-0.0324696
-0.0164505
-0.00270117
0.00597635
0.00644917
0.00145681
-0.00379472
-0.00424278
-0.00248095
0.00227649
0.0104564
0.0252381
0.0246574
0.0168103
0.00992128
-0.00265115
-0.00806052
-0.00271412
0.0058042
0.0178462
0.00111653
-0.0125051
0.0166787
0.0385232
0.0344732
0.0201318
-0.00125552
-0.00660271
-0.0072161
-0.00586593
-0.0053816
-0.00432558
-0.00286934
-0.00164262
-0.000552492
-0.0512978
-0.049573
-0.0418974
-0.0306624
-0.0193377
-0.00930651
-0.00205243
0.0010993
0.00102429
-0.000434877
0.000292038
0.00208393
0.00567955
0.0127585
0.0258136
0.0281927
0.0208219
0.0152682
0.0068392
0.00215334
0.00318458
0.00839377
0.0197203
0.0102447
0.00102571
0.0201643
0.0353322
0.0321648
0.0264933
0.00720123
-0.00358154
-0.00552477
-0.00437522
-0.00446316
-0.00387427
-0.00259748
-0.00148534
-0.000503687
-0.0393037
-0.0391118
-0.0345182
-0.0269964
-0.0191583
-0.0119031
-0.00607722
-0.00225756
-0.000390317
0.000366551
0.00217517
0.0050003
0.00953106
0.0148613
0.0228393
0.0253517
0.0206074
0.0162637
0.0110355
0.00837591
0.00967495
0.0116373
0.0186396
0.0133806
0.00701188
0.0189881
0.0293298
0.0295103
0.0252765
0.00943378
-0.00122404
-0.00354421
-0.00324836
-0.00367902
-0.003314
-0.00224819
-0.00130746
-0.000447235
-0.0298838
-0.0302921
-0.0276168
-0.0227922
-0.0173929
-0.0120615
-0.00747968
-0.00382411
-0.00113116
0.000821045
0.00320733
0.00580421
0.00922929
0.0130359
0.0182655
0.0209556
0.0185045
0.0157698
0.0126747
0.0112796
0.0112358
0.0120607
0.0167563
0.0152613
0.0110605
0.0174864
0.0237042
0.0257186
0.0225575
0.0107564
0.0012415
-0.00159623
-0.00216754
-0.00284332
-0.00263826
-0.00184032
-0.00110092
-0.000375647
-0.022071
-0.0228065
-0.0213773
-0.0182709
-0.0145006
-0.0106764
-0.00714604
-0.00403
-0.00133746
0.000873186
0.00317443
0.00558233
0.00863171
0.0117821
0.0149907
0.017275
0.0163458
0.0147545
0.0130859
0.0123648
0.0128834
0.0132133
0.0154367
0.0152522
0.0131026
0.0163344
0.020965
0.0222656
0.0195525
0.0110728
0.0033271
1.56712e-05
-0.00118036
-0.00199067
-0.00195566
-0.00143033
-0.000888667
-0.000305916
-0.0157711
-0.0166249
-0.0158884
-0.0138907
-0.011303
-0.00860135
-0.00593892
-0.00341975
-0.00105981
0.00101026
0.00314203
0.00531601
0.00773709
0.0101386
0.0122448
0.0140862
0.0141941
0.0135297
0.012803
0.0124436
0.0124824
0.0128404
0.0142141
0.014708
0.01381
0.0152963
0.017332
0.0184671
0.0169405
0.0110412
0.00488474
0.00146304
-0.000177792
-0.00113274
-0.00128295
-0.00100032
-0.000646249
-0.000220315
-0.0106581
-0.0114655
-0.0111374
-0.00989116
-0.00814692
-0.00622193
-0.00424144
-0.00230216
-0.00039743
0.00137643
0.00314837
0.00495138
0.00683638
0.00875594
0.0103814
0.0118074
0.0124058
0.0123444
0.0121533
0.0121729
0.0125279
0.0127858
0.0135161
0.0138739
0.0135693
0.0142834
0.0153194
0.0158365
0.0146176
0.0106205
0.00589981
0.00268963
0.000788129
-0.000330014
-0.000667322
-0.000593765
-0.00041159
-0.000142454
-0.00646162
-0.00720107
-0.00711158
-0.00632559
-0.00514231
-0.00380464
-0.00239398
-0.000955881
0.000498314
0.00190676
0.003305
0.00475328
0.00623791
0.00773818
0.00903269
0.0101517
0.0108996
0.0112389
0.0113749
0.0115641
0.0117966
0.0120525
0.0125193
0.0129276
0.0128805
0.0131791
0.0135086
0.0135094
0.0125772
0.00994933
0.00644524
0.0036247
0.00166924
0.000410421
-0.000108397
-0.000214718
-0.000184238
-6.33918e-05
-0.00307145
-0.00368852
-0.00370765
-0.00322235
-0.00244696
-0.00154966
-0.000573675
0.00046653
0.00154234
0.00260922
0.00366565
0.00477183
0.00592027
0.00707016
0.00810609
0.00900808
0.00976319
0.0102709
0.0105755
0.0108851
0.0112134
0.0114711
0.0117957
0.012043
0.0120412
0.0121227
0.0121802
0.0119068
0.0110364
0.00921663
0.00668389
0.00432116
0.00245677
0.00111855
0.000422152
0.00014182
3.27101e-05
1.68989e-05
-0.000286867
-0.000786551
-0.000871783
-0.000594978
-0.000102656
0.000488973
0.00114475
0.00186371
0.0026269
0.00339956
0.00417049
0.00498212
0.0058445
0.00671209
0.00752243
0.00824942
0.00890865
0.00945099
0.00983636
0.0101781
0.0105018
0.0107316
0.0109644
0.0111394
0.0111376
0.01109
0.0109402
0.0105445
0.00978283
0.00845163
0.00661119
0.00471847
0.00305407
0.00174046
0.00090406
0.000455221
0.000211416
7.84325e-05
0.00197416
0.00157415
0.00146183
0.00160574
0.00190209
0.00227107
0.0026902
0.00316583
0.00368618
0.00422209
0.00476157
0.00533261
0.00595642
0.00659737
0.00720939
0.00778019
0.00831973
0.00880885
0.00918806
0.00951072
0.00981263
0.0100286
0.010193
0.0102968
0.0102668
0.0101567
0.00994423
0.00952545
0.00884139
0.0078029
0.00643551
0.00494138
0.00350519
0.00227147
0.00135714
0.000761903
0.000384045
0.000138857
0.00379279
0.00348363
0.0033656
0.00341992
0.00357775
0.00378754
0.00403758
0.00433402
0.00466925
0.00501961
0.00537818
0.00576418
0.00619628
0.00664999
0.00709139
0.00751679
0.00793324
0.00832725
0.00865116
0.0089279
0.00918103
0.00935844
0.00946955
0.00952444
0.00947308
0.00932405
0.00907028
0.00865847
0.00806072
0.0072287
0.00616621
0.00497848
0.00377219
0.00265787
0.00173938
0.00104428
0.000538671
0.00018199
0.00524557
0.0050077
0.00489128
0.00488679
0.00495025
0.00504963
0.00517925
0.0053447
0.00554137
0.00575186
0.00597182
0.0062153
0.00649616
0.00679886
0.00709961
0.00739671
0.0076952
0.00798529
0.00823255
0.00844429
0.0086316
0.00876191
0.0088313
0.00884344
0.00876892
0.00860522
0.00834888
0.00796478
0.00743714
0.00674808
0.00589705
0.00493673
0.00392597
0.00293591
0.00204796
0.0013007
0.000695398
0.000228147
0.00638636
0.00620295
0.00609232
0.00605029
0.00605006
0.00607362
0.00611918
0.00619155
0.00628774
0.0063955
0.00651221
0.00664776
0.00681246
0.00699558
0.00718192
0.00737026
0.00756471
0.00775676
0.00792284
0.0080643
0.00818513
0.00826351
0.0082898
0.00826587
0.00817383
0.00800253
0.00774865
0.00739397
0.00692748
0.00634226
0.00563637
0.00483576
0.00397538
0.00310007
0.00226344
0.00150594
0.000837265
0.000269898
0.00725993
0.00711559
0.00701096
0.00694505
0.00690317
0.00687649
0.0068652
0.00687289
0.00689777
0.006932
0.00697435
0.00703095
0.00710866
0.00720067
0.00729764
0.00739893
0.00750678
0.00761482
0.00770693
0.00778308
0.00784231
0.00786951
0.00785646
0.00780049
0.00768924
0.00751245
0.00726599
0.0069381
0.0065196
0.00600933
0.00540438
0.00471848
0.00397179
0.00319105
0.00240893
0.00165917
0.000955268
0.000309263
0.0078999
0.00778175
0.00768225
0.0076018
0.00753387
0.00747522
0.00742688
0.00739132
0.00736754
0.00735149
0.00734239
0.00734385
0.00735926
0.00738514
0.00741616
0.00745187
0.00749262
0.00753425
0.0075664
0.00758758
0.00759504
0.00757847
0.00753072
0.00744712
0.00731894
0.00713727
0.00689605
0.0065884
0.00620602
0.00574812
0.00521214
0.00460499
0.00393795
0.00322715
0.00249292
0.00175874
0.00103785
0.000339528
0.00832416
0.00822255
0.00812701
0.00803875
0.00795614
0.00787918
0.00780892
0.0077469
0.00769271
0.00764496
0.00760328
0.00756931
0.0075442
0.00752648
0.00751354
0.00750474
0.00749918
0.00749425
0.00748369
0.00746482
0.00743421
0.00738514
0.00731066
0.00720633
0.0070643
0.00687755
0.00663971
0.00634483
0.00598642
0.00556223
0.00507022
0.00451339
0.00389797
0.00323429
0.00253516
0.00181619
0.00108829
0.000359835
0.00853968
0.00844625
0.00835318
0.00826192
0.0081731
0.00808812
0.00800785
0.00793322
0.0078642
0.00780085
0.00774306
0.00769138
0.00764572
0.00760575
0.00757009
0.00753809
0.00750798
0.00747818
0.00744459
0.00740395
0.00735242
0.0072853
0.00719589
0.00707962
0.00692959
0.00673951
0.00650293
0.00621439
0.00586818
0.00546106
0.00499131
0.00445978
0.00387065
0.00323143
0.00255077
0.00184137
0.00111185
0.000369687
-0.17027
-0.181414
-0.19245
-0.201126
-0.210267
-0.212947
-0.218665
-0.219591
-0.140336
-0.146333
-0.152067
-0.156252
-0.15962
-0.161531
-0.163391
-0.169702
-0.113113
-0.116212
-0.118426
-0.121398
-0.124084
-0.127827
-0.129334
-0.134128
-0.0917264
-0.0930995
-0.0940729
-0.0966394
-0.0982171
-0.10049
-0.100686
-0.104044
-0.0731074
-0.0737504
-0.0740145
-0.0754094
-0.0757915
-0.07688
-0.0773402
-0.0806027
-0.0581002
-0.0580389
-0.0577494
-0.0582614
-0.0583674
-0.0592649
-0.0600945
-0.0630103
-0.0454586
-0.0450686
-0.044626
-0.0448311
-0.045024
-0.0457906
-0.0465327
-0.0486019
-0.0352089
-0.0346981
-0.0342353
-0.0342633
-0.0343552
-0.0347439
-0.0351593
-0.0367304
-0.0267697
-0.0262249
-0.0257116
-0.0255123
-0.0254241
-0.0256128
-0.0261001
-0.027605
-0.0197548
-0.0192408
-0.0187503
-0.0185018
-0.0184393
-0.0186419
-0.0191162
-0.0202746
-0.0139891
-0.0135719
-0.0131702
-0.0129368
-0.0128614
-0.012977
-0.0133323
-0.0142604
-0.00922771
-0.00890983
-0.00858751
-0.00837371
-0.00829497
-0.0083837
-0.00869034
-0.00944308
-0.00529818
-0.0050783
-0.00484667
-0.00468628
-0.00462475
-0.00468164
-0.00490879
-0.00549249
-0.00204869
-0.00191618
-0.00176465
-0.00165074
-0.00160268
-0.0016487
-0.00184101
-0.00230845
0.000626084
0.000682271
0.000760625
0.0008208
0.0008369
0.000786774
0.000633924
0.000286331
0.00279596
0.0027943
0.00281569
0.00283385
0.00282929
0.00278431
0.0026665
0.0024072
0.00455058
0.00451082
0.00449246
0.00447875
0.00445429
0.0044046
0.00430558
0.00411211
0.00595006
0.00588551
0.0058391
0.00580078
0.00575943
0.00570497
0.00562097
0.00547813
0.0070504
0.00697138
0.00690729
0.00685238
0.00679883
0.00674011
0.00666543
0.0065571
0.00789385
0.00780738
0.00773281
0.00766714
0.00760522
0.00754305
0.00747399
0.00738821
0.0085084
0.00842038
0.00834126
0.00826987
0.00820319
0.00813882
0.00807303
0.0080009
0.00890856
0.00882395
0.00874525
0.00867224
0.00860354
0.008538
0.00847383
0.00840909
0.00910369
0.00902636
0.00895132
0.00887911
0.00880979
0.00874344
0.00867949
0.00861743
0.00581949
0.00762401
0.008374
0.00746333
0.00439968
-0.000839089
-0.00838114
-0.0188441
-0.033344
-0.05347
-0.081423
-0.120305
-0.175099
-0.249279
-0.319104
-0.0218626
-0.0229343
-0.0268604
-0.0328149
-0.0405838
-0.0505038
-0.0632129
-0.0796402
-0.101047
-0.129128
-0.166209
-0.215423
-0.281942
-0.369657
-0.446166
-0.0482574
-0.0528205
-0.0614216
-0.0720317
-0.0842033
-0.0986172
-0.116263
-0.138236
-0.16589
-0.201035
-0.24619
-0.304535
-0.38042
-0.480378
-0.555628
-0.0754823
-0.0836249
-0.0959024
-0.11002
-0.125829
-0.144277
-0.166426
-0.193364
-0.226477
-0.267657
-0.319533
-0.385615
-0.468914
-0.573802
-0.645488
-0.103269
-0.114785
-0.129749
-0.146401
-0.165128
-0.187027
-0.213065
-0.244203
-0.281744
-0.327763
-0.384742
-0.456362
-0.544477
-0.647965
-0.714116
-0.129792
-0.1445
-0.161671
-0.180465
-0.201774
-0.226614
-0.25579
-0.290242
-0.331054
-0.380553
-0.441097
-0.515672
-0.604695
-0.702924
-0.760928
-0.154433
-0.171843
-0.190844
-0.21158
-0.235323
-0.262651
-0.294271
-0.331115
-0.374416
-0.425933
-0.487937
-0.56252
-0.649066
-0.738358
-0.786956
-0.176926
-0.196064
-0.21691
-0.239995
-0.265964
-0.295365
-0.32884
-0.367281
-0.411834
-0.463933
-0.525443
-0.59757
-0.678198
-0.754839
-0.794717
0.185065
0.199566
0.215905
0.234459
0.255231
0.278093
0.302954
0.329771
0.358466
0.388771
0.420087
0.451214
0.480121
0.502738
0.52121
0.17689
0.190008
0.205194
0.222805
0.242622
0.264348
0.287849
0.313086
0.339969
0.368181
0.397039
0.425232
0.450576
0.469022
0.483382
0.164494
0.1755
0.188948
0.20506
0.223286
0.243098
0.264274
0.28675
0.310386
0.33478
0.359115
0.38192
0.400746
0.411662
0.418928
0.147884
0.156241
0.167496
0.181553
0.197478
0.214552
0.232489
0.251175
0.270375
0.289526
0.307602
0.322891
0.332575
0.332668
0.330422
0.127221
0.13269
0.141641
0.153387
0.166465
0.179992
0.1937
0.207491
0.221055
0.233651
0.243994
0.250078
0.248673
0.235541
0.220976
0.102737
0.104774
0.111246
0.120551
0.130535
0.140152
0.149138
0.157374
0.164442
0.169422
0.170795
0.166263
0.152168
0.124011
0.0949195
0.0752608
0.0743875
0.0784645
0.084614
0.090571
0.0955156
0.0992814
0.101601
0.101777
0.0986327
0.0903903
0.0744572
0.0467878
0.00284117
-0.0414109
0.0429863
0.0410982
0.0442905
0.0473491
0.0487616
0.0484174
0.0464032
0.0423107
0.0351719
0.0235408
0.00538542
-0.0222041
-0.0637266
-0.123413
-0.181932
0.0270791
0.0314989
0.0278313
0.0317448
0.029328
0.0336179
0.0318393
0.0362343
0.035581
0.0400789
0.0408278
0.0456441
0.0481382
0.0537254
0.0584272
0.0656755
0.0729772
0.0828859
0.0937487
0.107585
0.123304
0.142696
0.164913
0.0270165
0.0313973
0.0277676
0.0316205
0.0292458
0.0334605
0.0317246
0.0360126
0.0354084
0.0398019
0.0405197
0.0452629
0.0476869
0.0531652
0.057729
0.0648042
0.071743
0.0813992
0.0916258
0.104997
0.119631
0.138099
0.158627
0.026964
0.0312702
0.0277221
0.0314675
0.0291893
0.0332713
0.0316337
0.0357551
0.0352688
0.0394924
0.0402455
0.0448406
0.0472247
0.0524165
0.0569465
0.0637929
0.0703073
0.0796802
0.0890147
0.10171
0.11479
0.131763
0.149411
0.0269206
0.03112
0.0276921
0.0312895
0.0291547
0.033054
0.03159
0.0354753
0.035154
0.039159
0.0399995
0.0444411
0.0468292
0.0519437
0.0562589
0.0628921
0.0688566
0.0778911
0.0860405
0.0978159
0.108712
0.123536
0.137115
0.0268863
0.0309502
0.0276774
0.0310913
0.0291392
0.0328134
0.0315483
0.0351756
0.0350581
0.0387948
0.0397638
0.0439575
0.046307
0.0509849
0.055389
0.0615936
0.0670273
0.0754032
0.0823706
0.0928862
0.101322
0.113275
0.121561
0.0268531
0.0307636
0.0276698
0.0308781
0.0291358
0.0325591
0.0315383
0.0348903
0.0349787
0.0384554
0.0395927
0.0436276
0.046053
0.0507332
0.0547303
0.0606523
0.0654406
0.0732144
0.0785792
0.0875542
0.0926054
0.10126
0.103229
0.0268468
0.0305629
0.0276693
0.0306573
0.0291416
0.0322957
0.031514
0.0345801
0.0348998
0.0380645
0.0393554
0.0430757
0.0454795
0.0496493
0.053656
0.0588323
0.0632171
0.0697693
0.0739948
0.0808498
0.0830426
0.0867621
0.082096
0.0268203
0.0303556
0.0276701
0.0304382
0.0291507
0.0320553
0.0315466
0.0343347
0.0348444
0.037829
0.0393049
0.0429516
0.0453339
0.049585
0.0531541
0.0580463
0.0616438
0.0673558
0.0693695
0.0739421
0.071251
0.0712014
0.0572984
0.0267903
0.0300813
0.0276796
0.0301277
0.0291539
0.0316558
0.031472
0.033914
0.0346788
0.0371907
0.038855
0.0419776
0.0442544
0.0477204
0.0510457
0.0544398
0.057595
0.0605441
0.0614158
0.0615656
0.0560547
0.0466041
0.0255308
0.0267612
0.0297078
0.0276958
0.0297058
0.0291246
0.0310928
0.0313256
0.0331745
0.0342809
0.0361376
0.0379208
0.040325
0.0424698
0.0450221
0.0477242
0.0495479
0.0515326
0.0519309
0.0510937
0.0470317
0.0400834
0.0277187
0.0113079
0.0267494
0.0292548
0.0277265
0.0292026
0.0291146
0.0304442
0.0311392
0.032402
0.0337761
0.0350753
0.0368811
0.0386168
0.0404769
0.0421325
0.0439938
0.0445739
0.0451407
0.0437109
0.0410164
0.0350933
0.0270551
0.0148984
-0.000462351
0.0267553
0.0287123
0.0277746
0.0286328
0.0290623
0.0298248
0.0308363
0.0316289
0.0331
0.0339591
0.0356478
0.0367583
0.0382131
0.0390864
0.0399248
0.0395493
0.0386671
0.0359055
0.0318155
0.0250572
0.016541
0.00512373
-0.00875162
0.0267824
0.0280729
0.0277941
0.0281037
0.0288904
0.0292476
0.0304061
0.0308436
0.0322414
0.0327957
0.034176
0.0347863
0.0356712
0.0359059
0.0356932
0.0345141
0.0324766
0.0287681
0.0238904
0.0169826
0.00871518
-0.00164254
-0.0139665
0.026825
0.027408
0.027703
0.0276191
0.0286218
0.028676
0.0298392
0.0300437
0.0312086
0.0315464
0.0325047
0.0326738
0.0329669
0.0326126
0.0315042
0.0296229
0.0268264
0.0226144
0.0174675
0.0108532
0.00320214
-0.00599664
-0.0167322
0.0268349
0.0267638
0.0274982
0.0271679
0.0282364
0.0281043
0.0291296
0.0292086
0.0300266
0.0301907
0.0306839
0.0304384
0.0301913
0.0292862
0.0275156
0.0251281
0.0219245
0.0175903
0.0125057
0.00643543
-0.000376455
-0.00828833
-0.017349
0.0267893
0.0261572
0.0271837
0.0267362
0.0277278
0.0275163
0.028291
0.0283109
0.0287412
0.0287179
0.0287685
0.0281338
0.0274291
0.026067
0.0238687
0.0211961
0.0178579
0.0136784
0.00890654
0.00352739
-0.00230811
-0.00889265
-0.0163391
0.0266616
0.0256092
0.0267483
0.0263108
0.0271044
0.0268961
0.0273569
0.0273232
0.0273937
0.0271491
0.0268106
0.0258395
0.0247704
0.023083
0.020676
0.0179179
0.0146505
0.0108068
0.00653056
0.00191386
-0.00294133
-0.00828278
-0.0142811
0.0264343
0.0251307
0.0261943
0.0258725
0.0263868
0.0262129
0.0263689
0.0262374
0.0260079
0.0255257
0.0248666
0.0236422
0.0223098
0.0204392
0.0179992
0.015318
0.0122739
0.0088646
0.0051729
0.00131903
-0.00263371
-0.00688578
-0.0116448
0.0260957
0.0247203
0.0255421
0.0253935
0.0256217
0.0254483
0.0253501
0.025071
0.0246034
0.0238982
0.0229937
0.0216149
0.0201264
0.0181997
0.015854
0.0133674
0.0106427
0.00770588
0.00460831
0.00146349
-0.00169802
-0.00504049
-0.00877921
0.0256435
0.0243624
0.0248299
0.0248082
0.0248347
0.0246078
0.0243135
0.0238651
0.02321
0.0223301
0.0212531
0.0198115
0.0182721
0.0163922
0.0142209
0.0119971
0.00963846
0.00716949
0.00462519
0.00210142
-0.000392916
-0.00299666
-0.00591324
0.0250868
0.0240262
0.0241189
0.0241007
0.0240209
0.0237171
0.02327
0.0226644
0.0218694
0.0208745
0.0196976
0.0182628
0.0167583
0.0149999
0.0130505
0.0111176
0.00912969
0.00709478
0.00503594
0.00303173
0.00108101
-0.000934457
-0.00319557
0.0244488
0.0236577
0.0234565
0.0233186
0.0231669
0.0227825
0.0222273
0.0215092
0.020622
0.0195696
0.01836
0.0169812
0.015569
0.0139818
0.0122789
0.0106334
0.00898887
0.00733717
0.00568937
0.00410737
0.0025862
0.00102803
-0.000719871
0.0237584
0.0231839
0.0228335
0.0225619
0.0222936
0.0218283
0.0212019
0.0204203
0.0194945
0.0184358
0.0172483
0.0159594
0.0146738
0.0132832
0.0118294
0.0104489
0.00910357
0.00777729
0.00647029
0.00522683
0.00404141
0.00283763
0.0014912
0.0230482
0.022625
0.0222246
0.0218345
0.0214358
0.0208961
0.0202224
0.0194152
0.0184943
0.0174738
0.0163551
0.015181
0.0140366
0.0128431
0.0116238
0.0104781
0.00938257
0.008321
0.00728729
0.00631011
0.00538398
0.00445161
0.00341692
0.0223426
0.0220103
0.021597
0.0211294
0.0206257
0.0200237
0.0193196
0.0185143
0.0176289
0.0166785
0.0156615
0.0146185
0.0136181
0.012608
0.0115975
0.0106528
0.00975871
0.0089028
0.00807888
0.00730532
0.0065769
0.0058514
0.00505909
0.0216582
0.021375
0.0209595
0.0204505
0.0198826
0.0192391
0.0185215
0.0177342
0.0168991
0.0160324
0.0151308
0.0142253
0.0133671
0.0125235
0.0116938
0.0109177
0.0101828
0.00948133
0.00881099
0.0081861
0.00760345
0.0070339
0.00642796
0.0210105
0.0207525
0.0203392
0.0198135
0.0192164
0.0185568
0.0178438
0.0170871
0.0163095
0.0155286
0.0147409
0.0139654
0.0132349
0.012528
0.0118414
0.011197
0.0105866
0.0100057
0.00945374
0.00894127
0.00846782
0.00801482
0.00754915
0.0204197
0.0201752
0.0197679
0.019242
0.0186391
0.0179835
0.0172907
0.0165747
0.0158573
0.0151561
0.0144689
0.0138034
0.0131766
0.0125752
0.0119971
0.0114541
0.0109413
0.0104559
0.00999734
0.00957233
0.00918142
0.00881431
0.00845098
0.0199136
0.0196786
0.0192804
0.0187641
0.0181702
0.01753
0.0168643
0.0161895
0.0155255
0.0148887
0.0142782
0.0136948
0.0131455
0.0126238
0.0121288
0.0116658
0.0112322
0.0108251
0.0104425
0.0100861
0.00975688
0.00945153
0.00916138
0.0195265
0.0192967
0.0189086
0.0184067
0.0178292
0.0172099
0.0165729
0.0159361
0.0153157
0.0147243
0.0141635
0.0136335
0.0131368
0.0126704
0.0122325
0.0118242
0.0114439
0.0110895
0.0107592
0.0104529
0.0101706
0.00991149
0.00967255
0.0193158
0.019092
0.0187076
0.0182094
0.0176371
0.0170258
0.0164007
0.0157799
0.0151791
0.014611
0.0140804
0.0135865
0.0131268
0.0126972
0.0122948
0.0119191
0.0115704
0.0112481
0.0109519
0.0106814
0.0104369
0.0102182
0.0100247
0.00236584
-0.0232904
-0.0491929
-0.072527
-0.0955286
-0.117637
-0.138315
-0.155779
-0.0068798
-0.0302685
-0.0563044
-0.0764787
-0.0925317
-0.107417
-0.12095
-0.131938
-0.0157989
-0.0344955
-0.0555067
-0.0706872
-0.0810154
-0.090924
-0.100006
-0.107735
-0.0223542
-0.0373374
-0.0527773
-0.0642155
-0.0716546
-0.0784485
-0.0842146
-0.0890342
-0.0261766
-0.0379875
-0.0483031
-0.0559346
-0.0610339
-0.0654093
-0.0688104
-0.0716532
-0.0273214
-0.0362959
-0.0427379
-0.0474384
-0.0509418
-0.0539144
-0.0560559
-0.0576603
-0.026251
-0.0329196
-0.0366588
-0.0392707
-0.0415394
-0.0435188
-0.0448112
-0.0455309
-0.023642
-0.0285509
-0.0305242
-0.0317363
-0.0330876
-0.0343911
-0.0351995
-0.0354937
-0.0201564
-0.0237589
-0.0246466
-0.0249759
-0.025671
-0.0265086
-0.0270312
-0.0271194
-0.0163018
-0.0189443
-0.0192043
-0.0190171
-0.0192647
-0.019769
-0.0201082
-0.0201018
-0.0124291
-0.014367
-0.0142916
-0.013837
-0.0137995
-0.0140715
-0.0142954
-0.0142704
-0.00874917
-0.0101706
-0.00993916
-0.00938065
-0.00918183
-0.0092985
-0.00944625
-0.00943159
-0.00537786
-0.00641787
-0.0061357
-0.0055714
-0.00529906
-0.00532138
-0.0054216
-0.00542749
-0.00238567
-0.00314374
-0.00286728
-0.00234534
-0.00204738
-0.00201393
-0.00208491
-0.00211264
0.000227725
-0.000323067
-7.85422e-05
0.00037174
0.000657668
0.000720318
0.000668364
0.000619971
0.00247054
0.00207519
0.00227549
0.00263801
0.00288166
0.00294578
0.00289984
0.00283373
0.0043584
0.00407714
0.00422972
0.00450299
0.00469072
0.00473963
0.00469269
0.00461575
0.00591469
0.00571586
0.00582374
0.00601588
0.00614566
0.00617054
0.00611696
0.00603218
0.00717425
0.00703156
0.00709878
0.00722092
0.00729685
0.00729507
0.00723225
0.00714192
0.00817277
0.00806277
0.0080906
0.0081523
0.00818076
0.00815401
0.0080825
0.00798932
0.00894645
0.00884761
0.00883222
0.00883751
0.00882263
0.0087734
0.00869537
0.00860274
0.00949558
0.00939383
0.00933484
0.00928864
0.00923526
0.00916699
0.00908551
0.00899726
0.00987108
0.00974854
0.00963241
0.00952772
0.00943355
0.00934658
0.0092636
0.00918287
-0.327008
-0.334425
-0.344495
-0.357637
-0.375426
-0.399194
-0.426441
-0.451386
-0.327923
-0.33357
-0.341117
-0.351294
-0.36555
-0.383911
-0.405481
-0.426265
-0.325736
-0.330679
-0.336381
-0.344105
-0.355434
-0.369731
-0.383559
-0.392607
-0.320758
-0.325362
-0.329647
-0.334755
-0.34143
-0.348413
-0.352527
-0.350501
-0.312147
-0.316546
-0.319161
-0.320707
-0.321624
-0.321168
-0.317481
-0.30826
-0.299703
-0.303486
-0.303973
-0.30186
-0.297991
-0.292352
-0.283718
-0.270226