/*--------------------------------*- C++ -*----------------------------------*\
| =========                 |                                                 |
| \\      /  F ield         | OpenFOAM: The Open Source CFD Toolbox           |
|  \\    /   O peration     | Version:  2312                                  |
|   \\  /    A nd           | Website:  www.openfoam.com                      |
|    \\/     M anipulation  |                                                 |
\*---------------------------------------------------------------------------*/
FoamFile
{
    version     2.0;
    format      ascii;
    arch        "LSB;label=32;scalar=64";
    class       volScalarField;
    location    "36";
    object      p;
}
// * * * * * * * * * * * * * * * * * * * * * * * * * * * * * * * * * * * * * //

dimensions      [0 2 -2 0 0 0 0];

internalField   nonuniform List<scalar> 
9200
(
-0.0613513
-0.0907688
-0.121198
-0.150462
-0.180635
-0.195641
-0.177891
-0.123605
-0.051707
0.0336315
0.100778
0.143104
0.156563
0.138181
0.106515
0.0638689
0.0189751
-0.0191173
-0.0481238
-0.0687963
0.0249711
-0.00901122
-0.0583731
-0.115075
-0.169525
-0.228124
-0.253905
-0.224738
-0.153064
-0.06613
0.0113991
0.0613717
0.0806342
0.0822143
0.0682392
0.0484199
0.0270883
0.00558111
-0.00844265
-0.0234061
0.0248366
0.0076406
-0.031922
-0.0895513
-0.142785
-0.209467
-0.256959
-0.242938
-0.17639
-0.0945575
-0.0231735
0.0221314
0.0432261
0.0512699
0.0505746
0.0428731
0.0335492
0.0210572
0.00799505
5.4628e-05
0.0225116
0.0152082
-0.000430746
-0.0340229
-0.0722695
-0.115779
-0.15896
-0.164142
-0.119555
-0.0598546
-0.0113812
0.017157
0.0323721
0.0402075
0.0432397
0.0409295
0.036294
0.0304852
0.0252265
0.0211346
0.0319321
0.0388476
0.0498046
0.0515483
0.0304087
-0.00874861
-0.0492621
-0.0689504
-0.054094
-0.0253939
0.00155721
0.0185407
0.0289978
0.0366436
0.0408449
0.0422266
0.0433947
0.0425511
0.0378158
0.033021
0.0365678
0.0432129
0.0748891
0.0788162
0.0638352
0.0328687
0.000921424
-0.0186405
-0.016203
-0.00125762
0.0150442
0.0273348
0.0362171
0.0421511
0.0474188
0.0492589
0.0478015
0.0481197
0.0488761
0.0476943
0.0139088
0.00462228
0.0276958
0.0553978
0.0529451
0.035417
0.0199394
0.0106357
0.0117424
0.0203553
0.0315724
0.0400925
0.0458388
0.0508352
0.0541695
0.0574722
0.0595131
0.0590836
0.0583817
0.0583102
-0.0284197
-0.00214066
0.00197597
0.029571
0.0416536
0.0407215
0.0364705
0.0333115
0.0339945
0.0387529
0.0454816
0.0521665
0.0563946
0.0598381
0.063971
0.0671212
0.0686947
0.0693134
0.0683763
0.0680888
-0.0476546
-0.0418218
-0.00416109
0.0252182
0.04064
0.0463948
0.0477168
0.0481592
0.0498966
0.0543544
0.0599567
0.0658873
0.0709338
0.0733728
0.0741453
0.0760535
0.0791255
0.0813545
0.0814502
0.0800797
0.000424483
-0.0438462
0.000931432
0.0319673
0.0466113
0.0547314
0.0596077
0.0632569
0.0664832
0.0700853
0.0745807
0.078588
0.0825843
0.0868312
0.0895163
0.0891995
0.0885723
0.0896639
0.0911251
0.0916057
-1.89795
-1.69892
-1.73963
-1.74896
-1.80501
-1.84979
-1.87287
-1.84919
-1.76105
-1.59796
-1.39076
-1.18738
-1.01557
-0.883669
-0.778558
-0.682667
-0.62896
-0.555455
-0.511114
-0.488341
-1.71324
-1.52415
-1.54574
-1.56134
-1.59956
-1.6267
-1.63075
-1.60141
-1.52239
-1.38913
-1.23353
-1.08906
-0.972713
-0.889871
-0.830433
-0.779392
-0.783328
-0.773564
-0.772149
-0.799256
-1.47499
-1.31329
-1.3169
-1.3282
-1.35962
-1.37447
-1.36056
-1.31607
-1.24072
-1.14345
-1.04441
-0.959814
-0.8973
-0.866728
-0.868396
-0.881988
-0.953848
-1.0288
-1.08272
-1.1313
-1.22218
-1.09254
-1.07767
-1.07483
-1.08904
-1.08591
-1.06961
-1.02833
-0.965306
-0.892615
-0.83184
-0.793262
-0.776623
-0.785139
-0.868852
-0.952083
-1.06121
-1.18731
-1.31133
-1.37084
-0.981646
-0.883347
-0.860925
-0.854462
-0.851901
-0.836581
-0.810019
-0.768572
-0.714991
-0.661229
-0.620866
-0.605101
-0.62199
-0.663054
-0.754611
-0.900316
-1.04729
-1.20487
-1.39797
-1.50845
-0.751269
-0.682145
-0.666348
-0.662613
-0.654619
-0.635086
-0.600101
-0.550412
-0.495948
-0.449151
-0.419505
-0.409972
-0.4253
-0.473241
-0.550625
-0.683197
-0.865297
-1.04451
-1.23282
-1.36069
-0.550352
-0.505993
-0.501509
-0.49975
-0.487816
-0.462895
-0.423508
-0.365997
-0.306996
-0.255929
-0.216591
-0.220511
-0.223234
-0.259399
-0.324248
-0.42297
-0.562359
-0.697198
-0.821241
-0.899703
-0.381418
-0.36
-0.36579
-0.372326
-0.363199
-0.334665
-0.286458
-0.220044
-0.14885
-0.0878446
-0.0277732
-0.0231211
-0.0316392
-0.059563
-0.120663
-0.200287
-0.300873
-0.409861
-0.505568
-0.561723
-0.248203
-0.237828
-0.251954
-0.273079
-0.272559
-0.248393
-0.195378
-0.119728
-0.0355205
0.0445683
0.101427
0.137271
0.123308
0.102738
0.046911
-0.0210789
-0.108576
-0.195421
-0.26606
-0.309935
-0.160783
-0.169121
-0.180648
-0.197045
-0.207037
-0.192124
-0.148881
-0.0802801
0.00433347
0.0927054
0.143395
0.185929
0.183811
0.165231
0.118777
0.0605228
-0.0106839
-0.0713412
-0.124232
-0.160022
-0.40144
-0.350768
-0.263255
-0.200954
-0.153031
-0.120804
-0.110381
-0.117011
-0.133912
-0.16721
-0.213248
-0.286832
-0.429237
-0.698441
-1.12625
-1.53272
-1.64008
-1.3663
-0.884218
-0.490533
-0.299067
-0.211509
-0.16159
-0.153916
-0.143848
-0.0902695
-0.0684238
-0.12071
-0.243734
-0.468044
-0.659856
-0.643932
-0.42646
-0.216623
-0.0989365
-0.0496341
-0.0377744
-0.0387802
-0.0468328
-0.0485505
-0.0470005
-0.0425985
-0.0343202
-0.0240344
-0.0151969
-0.00903419
-0.00504955
-0.00190118
0.000200332
0.000374041
-0.717036
-0.648678
-0.501414
-0.372068
-0.272003
-0.201288
-0.164494
-0.150084
-0.153818
-0.172403
-0.208643
-0.265526
-0.375799
-0.595241
-0.932666
-1.30321
-1.41112
-1.1964
-0.805394
-0.484742
-0.336623
-0.272511
-0.25521
-0.25982
-0.234513
-0.142715
-0.103842
-0.14661
-0.256021
-0.474939
-0.668508
-0.650327
-0.440888
-0.242567
-0.126837
-0.077138
-0.0653489
-0.0614153
-0.0647449
-0.0597617
-0.0531709
-0.0456659
-0.0358043
-0.0246906
-0.0152496
-0.00884765
-0.00488581
-0.00199593
-9.25523e-05
0.000272337
-1.0927
-0.974412
-0.782099
-0.56989
-0.407528
-0.289602
-0.222267
-0.184405
-0.169813
-0.172885
-0.190271
-0.231867
-0.304165
-0.449228
-0.687774
-0.991459
-1.09935
-0.969093
-0.686758
-0.474703
-0.375707
-0.344502
-0.350544
-0.371443
-0.328449
-0.212251
-0.147627
-0.170986
-0.261951
-0.46159
-0.649752
-0.637456
-0.444943
-0.260847
-0.15434
-0.108329
-0.0974139
-0.0946077
-0.084431
-0.0719695
-0.0600918
-0.0492729
-0.0376643
-0.0256065
-0.0154856
-0.00874998
-0.00479456
-0.0021262
-0.000374192
0.000160359
-1.33018
-1.2061
-0.993171
-0.730588
-0.516757
-0.362554
-0.267943
-0.210843
-0.181355
-0.168485
-0.170162
-0.191152
-0.227982
-0.314279
-0.455703
-0.659394
-0.769293
-0.719802
-0.557495
-0.441455
-0.386424
-0.401173
-0.436023
-0.488966
-0.440476
-0.301356
-0.202084
-0.195635
-0.260706
-0.434959
-0.609749
-0.601698
-0.437892
-0.278656
-0.181403
-0.141738
-0.132627
-0.122596
-0.105169
-0.0850935
-0.0676808
-0.0533003
-0.0398064
-0.0267644
-0.015951
-0.00881043
-0.00481219
-0.00230559
-0.000643485
5.19539e-05
-1.52324
-1.38881
-1.18398
-0.892603
-0.625114
-0.425907
-0.305421
-0.230364
-0.18897
-0.164092
-0.148531
-0.160908
-0.171748
-0.215676
-0.2984
-0.404877
-0.487689
-0.499816
-0.420565
-0.377456
-0.381528
-0.440313
-0.521465
-0.599026
-0.559045
-0.389504
-0.256659
-0.219539
-0.253822
-0.39508
-0.552497
-0.551274
-0.419392
-0.283928
-0.20571
-0.178648
-0.172392
-0.154596
-0.12791
-0.0994832
-0.0760526
-0.0577937
-0.0422286
-0.028128
-0.0166127
-0.00901028
-0.00492662
-0.00253539
-0.000897749
-6.20654e-05
-1.34022
-1.2941
-1.16877
-0.919903
-0.663489
-0.459228
-0.328076
-0.241568
-0.189287
-0.158435
-0.131358
-0.132405
-0.128104
-0.147755
-0.193819
-0.228047
-0.289349
-0.319939
-0.287044
-0.297591
-0.348813
-0.445326
-0.57037
-0.675843
-0.642305
-0.458324
-0.304642
-0.237966
-0.245735
-0.353352
-0.485437
-0.493585
-0.390863
-0.288543
-0.231322
-0.217442
-0.216727
-0.191492
-0.153932
-0.115553
-0.08518
-0.0626635
-0.0448585
-0.0296644
-0.0174439
-0.00933246
-0.00511906
-0.00278833
-0.00113994
-0.000169055
-0.87345
-0.924315
-0.91033
-0.771284
-0.596352
-0.437369
-0.322219
-0.242461
-0.18459
-0.150476
-0.117438
-0.109624
-0.0924381
-0.0984493
-0.123232
-0.105389
-0.140453
-0.17827
-0.172094
-0.21043
-0.294873
-0.423236
-0.596593
-0.730399
-0.719504
-0.520701
-0.346928
-0.250281
-0.232138
-0.305925
-0.413044
-0.432085
-0.358245
-0.283345
-0.250637
-0.258891
-0.267659
-0.235277
-0.184553
-0.133739
-0.0950331
-0.0678349
-0.0476575
-0.0313302
-0.0183922
-0.00974982
-0.00536899
-0.00305558
-0.00138588
-0.000276393
-0.531048
-0.594466
-0.638034
-0.583527
-0.494421
-0.398051
-0.309576
-0.23847
-0.182256
-0.142743
-0.106946
-0.0962841
-0.0732938
-0.0608594
-0.0792095
-0.0543794
-0.0745598
-0.0898106
-0.0916879
-0.12548
-0.211145
-0.36176
-0.570657
-0.714055
-0.717633
-0.545968
-0.365554
-0.254128
-0.220467
-0.260771
-0.342403
-0.367165
-0.320458
-0.27217
-0.268526
-0.301124
-0.324343
-0.287185
-0.220478
-0.154495
-0.105662
-0.0731572
-0.0505281
-0.0330655
-0.0194002
-0.0102093
-0.00564454
-0.0033215
-0.00163935
-0.000380337
-0.305604
-0.374991
-0.439535
-0.441473
-0.404401
-0.348717
-0.289345
-0.232294
-0.177879
-0.137151
-0.0988556
-0.0799755
-0.0595257
-0.0352074
-0.0387154
-0.022085
-0.0301159
-0.0405897
-0.0402322
-0.0527983
-0.132642
-0.281382
-0.498712
-0.697085
-0.760398
-0.602498
-0.399794
-0.258291
-0.206006
-0.219082
-0.27619
-0.302062
-0.278762
-0.257327
-0.27532
-0.343284
-0.387042
-0.34436
-0.262103
-0.179398
-0.118219
-0.0791761
-0.0537572
-0.0350442
-0.0206129
-0.0107666
-0.00597352
-0.00357443
-0.00189653
-0.000480844
-0.165744
-0.211476
-0.256139
-0.275952
-0.282015
-0.268678
-0.240673
-0.209558
-0.172765
-0.140226
-0.103933
-0.0800219
-0.0594735
-0.0307839
-0.020633
-0.000170417
0.00733404
-0.0018396
-0.00562744
-0.0115165
-0.0633045
-0.187265
-0.414565
-0.621461
-0.684492
-0.580861
-0.396955
-0.248887
-0.182653
-0.177667
-0.212892
-0.246234
-0.234917
-0.235957
-0.277571
-0.382638
-0.45091
-0.41066
-0.310339
-0.207149
-0.131368
-0.0850582
-0.0568071
-0.0369217
-0.0218104
-0.011399
-0.00636845
-0.0038553
-0.00217078
-0.000584282
-0.124878
-0.175636
-0.214342
-0.219982
-0.217289
-0.207963
-0.189346
-0.166858
-0.137649
-0.107813
-0.0811873
-0.0573804
-0.0401246
-0.0180453
-0.00281972
0.0152721
0.0252023
0.0207587
0.016139
0.0264228
0.00430981
-0.0923254
-0.299498
-0.519667
-0.603995
-0.51756
-0.35059
-0.212841
-0.149291
-0.137647
-0.157463
-0.173234
-0.189777
-0.204667
-0.26345
-0.408797
-0.512484
-0.474996
-0.350533
-0.226932
-0.139053
-0.0876904
-0.057955
-0.0376236
-0.0222441
-0.0117069
-0.00660778
-0.00406803
-0.00240565
-0.000662602
-0.0830016
-0.122701
-0.147135
-0.164189
-0.163194
-0.156269
-0.141285
-0.124401
-0.106454
-0.0837293
-0.060415
-0.0394074
-0.0224487
-0.00420478
0.0110207
0.0283229
0.0343014
0.027532
0.0282826
0.0413026
0.0323395
-0.035296
-0.230557
-0.466015
-0.5407
-0.442462
-0.2933
-0.181859
-0.122012
-0.0968634
-0.104775
-0.128302
-0.146547
-0.168131
-0.247542
-0.436763
-0.577456
-0.536542
-0.389974
-0.246098
-0.146759
-0.0904291
-0.05914
-0.0383499
-0.0227124
-0.0120264
-0.00683853
-0.00427201
-0.00261652
-0.000736285
-0.0515312
-0.0889662
-0.117115
-0.125363
-0.12377
-0.118461
-0.109624
-0.0980729
-0.0847009
-0.0658466
-0.048577
-0.0324547
-0.0118129
0.00943558
0.023285
0.0376522
0.0450111
0.0403509
0.0402111
0.0488475
0.0503529
-0.010435
-0.197755
-0.40047
-0.454415
-0.367777
-0.242001
-0.149683
-0.0971071
-0.0645785
-0.0585209
-0.0777003
-0.104661
-0.131948
-0.233844
-0.473102
-0.648551
-0.604838
-0.430682
-0.264766
-0.154182
-0.0930277
-0.0602002
-0.0390282
-0.0232046
-0.0123665
-0.00710048
-0.0044845
-0.00281629
-0.000819272
-0.0311774
-0.0601479
-0.080584
-0.0900758
-0.0909432
-0.0867368
-0.078821
-0.0682441
-0.0576843
-0.0437216
-0.0300481
-0.0142728
0.00236304
0.014055
0.0262947
0.0392231
0.0442555
0.0451287
0.0453852
0.0518598
0.0574337
0.00292831
-0.148178
-0.303728
-0.354364
-0.282838
-0.188609
-0.115187
-0.0735344
-0.0376864
-0.0234145
-0.0426987
-0.0681234
-0.0987892
-0.22439
-0.514265
-0.720201
-0.669217
-0.468076
-0.281073
-0.160809
-0.0953757
-0.060988
-0.0395172
-0.0235949
-0.0126674
-0.00734987
-0.00469554
-0.0030063
-0.000895842
-0.0125332
-0.0356116
-0.0522909
-0.0617062
-0.0633694
-0.0599505
-0.0548788
-0.047524
-0.0401091
-0.0307374
-0.020592
-0.00805021
0.00758089
0.0205906
0.0328407
0.0413468
0.0506551
0.0488738
0.0423957
0.042592
0.0433262
0.00870846
-0.0829568
-0.180751
-0.233005
-0.195054
-0.138546
-0.103055
-0.0643627
-0.0194761
0.00386819
-0.0105866
-0.0365924
-0.0675808
-0.214277
-0.550373
-0.785457
-0.727827
-0.499877
-0.294496
-0.166525
-0.097725
-0.0617355
-0.0399116
-0.0239479
-0.0129641
-0.00760169
-0.00488557
-0.00318646
-0.000971795
0.00238209
-0.0165606
-0.0305145
-0.0378945
-0.0405753
-0.0384549
-0.0354816
-0.0303063
-0.023319
-0.0161364
-0.00748947
0.00301396
0.0151269
0.0247256
0.0323428
0.0378924
0.0391682
0.0448489
0.0397305
0.036881
0.0362308
0.019073
-0.0229542
-0.0836796
-0.138706
-0.122791
-0.078585
-0.0427679
-0.0354721
-0.00798376
0.0219673
0.00421527
-0.0137257
-0.0374761
-0.197307
-0.576863
-0.832902
-0.766461
-0.519283
-0.302826
-0.170852
-0.0997837
-0.0623742
-0.0401883
-0.0242285
-0.0132095
-0.00781551
-0.00507632
-0.00335325
-0.00105877
0.0133373
-0.00111324
-0.0125641
-0.0189069
-0.0219114
-0.0209067
-0.018677
-0.0151348
-0.00964392
-0.00460813
0.00157664
0.00921621
0.0178386
0.0268156
0.0330302
0.0365891
0.0406157
0.0435383
0.039949
0.0373641
0.0370505
0.0304862
0.015384
-0.0238159
-0.067822
-0.0707212
-0.0544039
-0.0395175
-0.0403175
-0.0196269
0.0238527
0.0328949
0.0129195
-0.00676925
-0.178484
-0.585793
-0.853843
-0.779191
-0.521207
-0.302541
-0.172608
-0.101356
-0.0629337
-0.0403734
-0.0244955
-0.0135014
-0.00806779
-0.00522516
-0.00346835
-0.00109596
0.0225567
0.0114914
0.00195132
-0.0035968
-0.00646178
-0.00626506
-0.00466591
-0.00266909
0.00104048
0.00501377
0.00913148
0.0151987
0.0218287
0.0284308
0.0335481
0.0362129
0.0390862
0.0417868
0.0407011
0.0377773
0.0361756
0.0321867
0.0257556
0.00413453
-0.0270317
-0.0375122
-0.00890139
0.01725
-0.000310261
-0.00701446
-0.00760017
-0.0114378
0.00772038
0.0123176
-0.156194
-0.571552
-0.83922
-0.758113
-0.503706
-0.291654
-0.168645
-0.100465
-0.062674
-0.0401992
-0.0244947
-0.0136712
-0.00825999
-0.00542935
-0.00364236
-0.00120748
0.0305037
0.0217486
0.0138227
0.00872621
0.00616177
0.00570203
0.00652269
0.00791029
0.0100606
0.0130685
0.0158671
0.019963
0.025049
0.0289625
0.0337137
0.0360016
0.0375167
0.0405166
0.0397548
0.037385
0.0356157
0.032847
0.0298351
0.00999895
-0.0111945
-0.0135888
-0.00968368
-0.0104738
0.00321987
0.0414661
0.0964196
0.0265233
0.0223195
0.0260648
-0.133679
-0.527874
-0.779365
-0.703564
-0.467502
-0.272679
-0.159589
-0.0960065
-0.0605605
-0.0392667
-0.0241437
-0.0136402
-0.00832858
-0.00546975
-0.00364393
-0.00117166
0.0370037
0.0297219
0.0233519
0.0189546
0.0165656
0.015647
0.0158019
0.0167659
0.0177612
0.0196387
0.0215855
0.0238708
0.02767
0.0301259
0.033612
0.0360821
0.0364602
0.038331
0.0386884
0.0365458
0.0343071
0.0317548
0.0278817
0.014682
0.00143538
-0.0002878
0.00373477
0.0182606
0.00747001
0.0150593
0.016066
-0.0120704
-0.0119587
0.0182437
-0.11729
-0.450517
-0.674243
-0.608227
-0.40872
-0.244417
-0.147745
-0.0904509
-0.0577314
-0.0381915
-0.0240584
-0.0138253
-0.00840941
-0.00555058
-0.00380121
-0.00130994
0.0420842
0.0363601
0.0312491
0.0273586
0.0248894
0.0237339
0.0233592
0.0238338
0.0242731
0.0251288
0.0264305
0.027487
0.0299854
0.0316359
0.0338969
0.0362121
0.0359737
0.0367837
0.0375467
0.036127
0.033168
0.0304191
0.0281707
0.018236
0.00840647
0.00497874
0.00537513
0.00358536
0.0039075
0.0179441
0.0201358
-0.0237517
-0.0390672
-0.00853832
-0.106133
-0.345765
-0.521937
-0.487574
-0.337114
-0.207492
-0.1273
-0.0782705
-0.0505664
-0.0346404
-0.022753
-0.0135755
-0.00850018
-0.00565703
-0.00372686
-0.00121449
0.0464783
0.0418861
0.0374838
0.0339827
0.0315469
0.030393
0.029669
0.0296176
0.0297783
0.0297839
0.0305082
0.0308109
0.0319588
0.0332919
0.0346666
0.0362675
0.0358322
0.0361467
0.0367028
0.0352149
0.0330514
0.0309594
0.0279054
0.0211806
0.015664
0.0155387
0.0154477
0.0120307
0.0077112
0.0170633
0.00185999
-0.0359307
-0.0645684
-0.0703919
-0.106621
-0.224749
-0.348361
-0.347338
-0.257384
-0.169396
-0.111641
-0.0728124
-0.0477716
-0.0327002
-0.0215152
-0.012884
-0.00821101
-0.0055025
-0.00371905
-0.00128145
0.0497952
0.0460632
0.0424262
0.0394201
0.037114
0.0357084
0.0348456
0.0344107
0.0342488
0.0338287
0.0339073
0.0336831
0.0339675
0.0348824
0.0355443
0.0365252
0.0360815
0.0356516
0.0357954
0.0347309
0.0331307
0.0310507
0.0281572
0.0240853
0.0201433
0.0178027
0.0178557
0.0165521
0.0150192
0.0234617
0.0104159
-0.0210963
-0.0468071
-0.0664499
-0.0745524
-0.105792
-0.193512
-0.221986
-0.183711
-0.129976
-0.0919991
-0.0664497
-0.0464507
-0.0317121
-0.0208957
-0.0126253
-0.00783099
-0.00528081
-0.00360133
-0.0012442
0.0522171
0.0493693
0.0464115
0.0437497
0.0415196
0.039981
0.0390329
0.0383398
0.0379582
0.037283
0.0367739
0.0362853
0.0359148
0.0362534
0.036602
0.0370419
0.0363892
0.0355338
0.0354384
0.0344141
0.0331295
0.0315804
0.0289006
0.0261871
0.0235242
0.0223737
0.0246979
0.0214989
0.019281
0.0242055
0.0195153
-0.0013044
-0.0133886
-0.0184127
-0.0123245
-0.0244463
-0.0919027
-0.133194
-0.126457
-0.0976009
-0.0700584
-0.0494187
-0.0350386
-0.026284
-0.0186222
-0.0120899
-0.00784398
-0.00529699
-0.00348654
-0.00116843
0.0542079
0.0520137
0.0495464
0.0471416
0.0450459
0.0434755
0.0424557
0.0416688
0.0410306
0.0401535
0.039311
0.0384889
0.0376892
0.0376573
0.0377573
0.0377126
0.0369512
0.0358313
0.0353176
0.0344831
0.0335083
0.0319976
0.0296139
0.0278801
0.0260949
0.0248433
0.0245784
0.0224882
0.0216141
0.0271653
0.0243053
0.0114838
0.00739533
0.0078096
0.0219498
0.00864608
-0.0412352
-0.0775975
-0.0841756
-0.0732199
-0.0599138
-0.047784
-0.0357689
-0.0255008
-0.0170862
-0.0105057
-0.00677548
-0.00471053
-0.00328465
-0.00117774
0.0556735
0.0539377
0.0518593
0.0497407
0.0478517
0.0463437
0.0452677
0.0443654
0.0435317
0.0425628
0.0414844
0.0403768
0.0394003
0.0390672
0.0389154
0.0385856
0.0376437
0.0363261
0.0356285
0.034844
0.0338164
0.0325363
0.0306506
0.0291735
0.0277085
0.0263072
0.026091
0.0248938
0.0236911
0.0253776
0.0243038
0.0170879
0.0146044
0.0181856
0.0287303
0.0190945
-0.0138386
-0.0441934
-0.0550102
-0.0511993
-0.0412341
-0.0322072
-0.0247463
-0.0190477
-0.0141148
-0.00946585
-0.0063584
-0.0044711
-0.00297845
-0.000984731
0.056649
0.055356
0.0536726
0.0518231
0.050045
0.0485538
0.0474529
0.0465308
0.0456052
0.0445121
0.0432981
0.0420818
0.0410057
0.0404085
0.0400495
0.0395341
0.0384382
0.0370617
0.0361707
0.0353332
0.0344402
0.0332623
0.0314929
0.0301324
0.0290273
0.0279206
0.0273545
0.0259982
0.0244871
0.0250449
0.0246875
0.0206391
0.0188511
0.0216739
0.027156
0.0201779
-0.00108273
-0.0213665
-0.0323049
-0.0343705
-0.0326622
-0.0289519
-0.0235128
-0.0180434
-0.0128345
-0.00841145
-0.00560201
-0.00397939
-0.00274121
-0.000992356
0.0572984
0.0563282
0.0549473
0.0533133
0.0516971
0.0503207
0.0492333
0.0482579
0.0472473
0.0461274
0.0448964
0.0435855
0.042386
0.0416358
0.0411654
0.0405284
0.0393279
0.0378855
0.0368926
0.0360681
0.0351218
0.0338858
0.0323799
0.0312107
0.0302051
0.0291355
0.0281925
0.0268827
0.0256004
0.0254189
0.0249224
0.0224686
0.0208756
0.0219634
0.0238086
0.0190095
0.00610709
-0.00944088
-0.0198856
-0.0225983
-0.0210911
-0.0184676
-0.0152766
-0.0122061
-0.00925361
-0.006413
-0.00443881
-0.00324855
-0.0022454
-0.000755004
0.0576156
0.0569167
0.055835
0.0544286
0.0529516
0.0516473
0.0505858
0.0496049
0.0485782
0.047438
0.0461725
0.0448397
0.0436324
0.0428089
0.0422217
0.0414976
0.0402433
0.0387704
0.0377275
0.0368306
0.0358316
0.0346669
0.0333281
0.0321737
0.0311303
0.0300843
0.0290448
0.0277936
0.0265567
0.0258654
0.0251644
0.0234664
0.0219036
0.0216956
0.0215297
0.0178136
0.00928219
-0.00105384
-0.00861798
-0.0120597
-0.0135642
-0.0138586
-0.0124344
-0.0102487
-0.00777712
-0.00543654
-0.00371364
-0.00271431
-0.00187054
-0.000663811
0.0578697
0.0572674
0.0563124
0.0550665
0.0537642
0.0526222
0.0516507
0.0506664
0.0495908
0.0484445
0.0472354
0.0459575
0.0447455
0.0438409
0.0431789
0.0424194
0.0411382
0.0396473
0.0385606
0.0376361
0.0366299
0.0354563
0.0341694
0.0330352
0.0319741
0.0309495
0.0298584
0.0285625
0.0273135
0.0263993
0.0254739
0.0239674
0.0224847
0.0215349
0.0201113
0.0170404
0.0116278
0.00425211
-0.00226221
-0.0056596
-0.00738658
-0.00799389
-0.00731125
-0.00609532
-0.00471968
-0.00334262
-0.00236847
-0.00186764
-0.00135289
-0.000470844
0.0578699
0.0573578
0.0565719
0.055526
0.0543974
0.0533554
0.0524076
0.0514118
0.0503432
0.0492542
0.0481152
0.0468846
0.0456748
0.0447246
0.0440175
0.0432397
0.0419674
0.0404814
0.0393845
0.0384508
0.0373982
0.0362025
0.0349693
0.0338473
0.0327607
0.0317146
0.0305665
0.0292493
0.0279905
0.0269163
0.0257939
0.0243446
0.022884
0.021455
0.0195165
0.0169786
0.0131649
0.00757651
0.00275513
-9.77309e-06
-0.00199366
-0.00344118
-0.00374324
-0.00339489
-0.00274534
-0.00198562
-0.00136147
-0.00107427
-0.000777289
-0.000278037
0.0578476
0.0574147
0.0567159
0.0557564
0.0547207
0.0537751
0.0529075
0.0519574
0.0509106
0.0498528
0.048774
0.0476174
0.0464476
0.045479
0.0447421
0.043968
0.0427245
0.0412616
0.040162
0.0392043
0.0381183
0.0369178
0.0357152
0.0345908
0.0334757
0.0323927
0.0312087
0.0298828
0.0285795
0.0274074
0.0261776
0.0246847
0.0231897
0.0215944
0.0195172
0.0172596
0.0143731
0.010247
0.006503
0.00402768
0.00190564
0.000192984
-0.000499609
-0.000570056
-0.000450193
-0.000257947
-0.00015799
-0.000297504
-0.000285014
-6.98306e-05
0.0577287
0.0573071
0.056662
0.0557974
0.0548793
0.0540445
0.0532497
0.0523297
0.0512969
0.0502794
0.0492858
0.0482236
0.0471024
0.0461152
0.0453451
0.0445779
0.04338
0.0419544
0.0408524
0.0398819
0.0387839
0.0375795
0.0363956
0.0352641
0.0341221
0.0330061
0.0317911
0.0304546
0.0291227
0.0278888
0.0265758
0.0250399
0.0235362
0.0218781
0.0198181
0.0178189
0.0154223
0.0121254
0.00916693
0.00709624
0.00506725
0.0032928
0.00232618
0.00183101
0.00148517
0.00126115
0.00106758
0.000686657
0.000360918
7.94235e-05
0.0575715
0.057168
0.0565704
0.0557787
0.0549447
0.0541843
0.0534383
0.0525495
0.0515511
0.0505862
0.0496668
0.048681
0.0476038
0.0466193
0.0458391
0.0450782
0.0439214
0.042552
0.0414675
0.0404848
0.0393754
0.0381727
0.0370071
0.0358649
0.0347014
0.0335561
0.032318
0.0309834
0.029631
0.0283501
0.0269872
0.025441
0.0239299
0.0222688
0.0203185
0.0185158
0.0164326
0.0137008
0.0113396
0.00953849
0.00759665
0.00583407
0.00473432
0.00399534
0.00329719
0.00268684
0.00210532
0.00141261
0.000933654
0.000406674
0.0574286
0.0570154
0.0564253
0.0556662
0.0548916
0.0541982
0.0535047
0.0526534
0.0516901
0.0507728
0.0499266
0.049027
0.0480032
0.0470155
0.0462251
0.0454744
0.0443586
0.0430523
0.0419927
0.0409974
0.0398826
0.0386898
0.0375403
0.0363898
0.035209
0.0340413
0.0327933
0.0314647
0.0301045
0.0287971
0.0273975
0.025853
0.02436
0.022725
0.0208949
0.0192574
0.0173634
0.0150048
0.0130187
0.0114197
0.00960772
0.00792527
0.00674756
0.00581671
0.00490863
0.00408502
0.00330002
0.00236834
0.00143372
0.000411163
0.05725
0.0568341
0.0562673
0.0555422
0.054799
0.0541385
0.0534885
0.0526978
0.0517874
0.0509012
0.0500904
0.0492604
0.0483062
0.0473345
0.0465115
0.0457585
0.0447049
0.0434689
0.0424181
0.0414176
0.0403156
0.0391361
0.0379984
0.0368393
0.0356552
0.0344663
0.0332189
0.0319027
0.0305442
0.0292165
0.0278001
0.0262741
0.0248008
0.0232124
0.0214978
0.0199737
0.0181943
0.0161264
0.0144118
0.0129221
0.0112019
0.00958683
0.00839483
0.00737173
0.00632026
0.00528255
0.00425901
0.00321867
0.00224026
0.000908986
0.0570505
0.0566401
0.0561091
0.0554268
0.054696
0.0540257
0.0533901
0.0526663
0.0518363
0.0509787
0.0501714
0.0493849
0.0485068
0.0475865
0.0467346
0.0459295
0.0449437
0.0438145
0.0427532
0.0417361
0.0406616
0.0394974
0.0383629
0.0372063
0.0360181
0.0348227
0.0335787
0.0322767
0.0309311
0.0295864
0.0281583
0.0266567
0.0252135
0.0236522
0.0220415
0.020572
0.0188907
0.0170403
0.0154908
0.0140939
0.012504
0.0110032
0.00979504
0.00866477
0.00751971
0.00637512
0.0052225
0.00393356
0.00245003
0.000731186
0.0568972
0.0565051
0.0560017
0.0553308
0.0545911
0.0539133
0.0533049
0.0526402
0.0518673
0.0510281
0.0502244
0.049485
0.0486687
0.047772
0.0468898
0.0460579
0.0451217
0.0440717
0.0430041
0.0419897
0.0409446
0.0397962
0.038659
0.0375069
0.0363196
0.0351105
0.0338833
0.032597
0.0312604
0.0299039
0.0284839
0.0270046
0.0255903
0.0240721
0.0225225
0.0210999
0.0194854
0.0177951
0.0163383
0.0149907
0.0134745
0.0120151
0.0108436
0.00974678
0.00861815
0.007382
0.00621416
0.00512165
0.00373896
0.00143404
0.0567291
0.0563798
0.0558774
0.0551709
0.0544041
0.0537558
0.0532249
0.0526294
0.0518442
0.0509631
0.0501929
0.049544
0.0488044
0.047868
0.0469024
0.0461142
0.0452746
0.044202
0.043127
0.0421878
0.0411389
0.0399696
0.0388441
0.0377056
0.0365116
0.0353125
0.0340803
0.0328196
0.0314845
0.0301113
0.0287107
0.027255
0.025858
0.0243569
0.0228791
0.02146
0.0199106
0.0183329
0.0169162
0.015612
0.0141539
0.0127716
0.0116257
0.0104566
0.00925605
0.00798243
0.00683573
0.00560061
0.0037152
0.00113809
0.0566999
0.0564346
0.0559108
0.0551229
0.0543018
0.0537008
0.0532575
0.0527264
0.0519097
0.0509406
0.0502064
0.049652
0.048975
0.0479888
0.0469067
0.0461772
0.0454578
0.0443056
0.0431809
0.0423251
0.0412856
0.0400922
0.0389852
0.0378671
0.0366509
0.0354483
0.0342218
0.0329619
0.0316318
0.0302572
0.028855
0.0274117
0.0260277
0.0245438
0.0230881
0.0216625
0.0201705
0.0186461
0.0172464
0.0159856
0.0145422
0.0132221
0.0121501
0.0110558
0.00979822
0.00871841
0.00798599
0.00725334
0.00550344
0.00191397
0.0901486
0.0780085
0.0680931
0.0571844
0.0445849
0.0287859
0.0134697
-0.0110642
-0.0395725
-0.0795663
0.0874702
0.0762943
0.0668271
0.0555864
0.0432893
0.029533
0.0141521
-0.00327426
-0.0189381
-0.0441618
0.0853769
0.0756497
0.0668843
0.0579436
0.0486759
0.0385868
0.0281434
0.0169029
0.00288227
-0.0168294
0.0836181
0.0750228
0.0679426
0.0607979
0.0532982
0.0448983
0.0355578
0.0252255
0.00935678
-0.00657339
0.0824755
0.075155
0.0691046
0.0626617
0.0556146
0.0472633
0.0372276
0.0287793
0.0161213
0.00527036
0.0814195
0.0748194
0.069215
0.0634543
0.0569707
0.049663
0.041277
0.0361005
0.0265632
0.0166198
0.0804293
0.0743851
0.0694543
0.0647105
0.0593447
0.053769
0.0467404
0.0417218
0.0335926
0.0244515
0.079547
0.0741768
0.0698183
0.0659594
0.0612944
0.0566147
0.0500676
0.0447112
0.038509
0.0312962
0.0788111
0.0740302
0.0700252
0.066654
0.0624213
0.0580676
0.0526703
0.0480114
0.0435534
0.0378759
0.077832
0.0737104
0.0700606
0.0670162
0.0633387
0.0596391
0.0555533
0.0516913
0.0479302
0.0432034
0.0767384
0.0732324
0.0701306
0.0673868
0.064378
0.0612646
0.0578102
0.0543219
0.0507943
0.0469107
0.0756727
0.0726939
0.0701451
0.0676921
0.0650512
0.0622095
0.0590847
0.055973
0.0530686
0.0501326
0.0746713
0.0720404
0.0698887
0.0677228
0.065341
0.0628413
0.0601949
0.0575828
0.0552004
0.0527997
0.0737104
0.0713346
0.0694605
0.067612
0.0655794
0.0634207
0.0611021
0.0587233
0.0565429
0.0545304
0.0727804
0.0706342
0.0689459
0.0673619
0.0656393
0.0636952
0.0615297
0.0593002
0.0573701
0.0558577
0.0718914
0.0699291
0.0683597
0.066962
0.0654949
0.0637713
0.0617562
0.0596888
0.0580187
0.0568815
0.0710339
0.069199
0.0677024
0.0664263
0.0651789
0.0636693
0.0618055
0.0598942
0.0584333
0.0575239
0.07018
0.0684273
0.0669715
0.0658061
0.0647525
0.0634624
0.0617768
0.060018
0.0587098
0.0579469
0.0693167
0.0676402
0.0662433
0.0651957
0.0643141
0.0631927
0.0616308
0.0599794
0.0587713
0.058104
0.0684253
0.0668388
0.0655003
0.0645405
0.0637702
0.0627735
0.0613633
0.0598911
0.058841
0.0582754
0.0674829
0.0659974
0.0647436
0.0638847
0.0632318
0.0623798
0.0611347
0.0598109
0.0588318
0.0582639
0.0665312
0.0651732
0.0640349
0.0632801
0.0627204
0.0619713
0.0608466
0.059635
0.058722
0.0581902
0.0656236
0.0643985
0.0633686
0.0626947
0.0622054
0.0615491
0.0605478
0.0594573
0.0586077
0.0580821
0.0647788
0.0636848
0.0627545
0.0621393
0.0616972
0.0611148
0.060223
0.0592411
0.0584468
0.0579287
0.064008
0.063029
0.0621934
0.0616338
0.061229
0.0607045
0.0599138
0.0590431
0.0583112
0.0578025
0.0633697
0.0624894
0.061719
0.0611859
0.0608074
0.0603398
0.0596451
0.0588693
0.0581746
0.0576515
0.0628384
0.0620707
0.0613367
0.0607742
0.060374
0.0599559
0.059387
0.0587211
0.0580499
0.0574875
0.062447
0.0617918
0.0610736
0.060458
0.0600323
0.0596473
0.0591829
0.0586044
0.0579488
0.0573552
0.0621842
0.0615372
0.0607937
0.0601776
0.0597893
0.0594672
0.0590456
0.0584392
0.0577362
0.0571368
0.0621369
0.0614026
0.0605623
0.0599778
0.0596909
0.0594589
0.0590449
0.0583435
0.0575799
0.0570003
0.205599
0.21155
0.217673
0.2245
0.23144
0.238795
0.245947
0.252558
0.258918
0.264525
0.2697
0.272554
0.273915
0.273084
0.270183
0.263259
0.251857
0.234671
0.212061
0.152855
0.197376
0.203307
0.20849
0.213571
0.218876
0.224034
0.228451
0.232512
0.236307
0.239844
0.243126
0.244683
0.243913
0.240266
0.234331
0.22396
0.207063
0.181595
0.158024
0.0831111
0.187581
0.193241
0.197615
0.201481
0.205324
0.209044
0.2123
0.214808
0.216144
0.216793
0.216554
0.215749
0.213555
0.207761
0.199207
0.186247
0.168274
0.135927
0.110395
0.0321053
0.176903
0.181654
0.18476
0.187287
0.189538
0.191726
0.193901
0.195746
0.197071
0.197414
0.195088
0.191017
0.18577
0.178165
0.167263
0.152223
0.134358
0.0977951
0.073672
-0.009472
0.16521
0.16876
0.170756
0.172367
0.173745
0.17506
0.175718
0.175675
0.175341
0.174653
0.172532
0.168254
0.161395
0.152692
0.140426
0.124149
0.106551
0.0709644
0.0477063
-0.0296382
0.153113
0.155558
0.15676
0.157541
0.158409
0.15895
0.159469
0.158948
0.157273
0.154955
0.151668
0.147124
0.140023
0.131231
0.11938
0.103389
0.0860373
0.0556685
0.0322552
-0.031431
0.139796
0.141585
0.142432
0.143063
0.143758
0.143489
0.142812
0.142019
0.139709
0.136026
0.132437
0.127801
0.120999
0.111916
0.0999212
0.0855882
0.0709083
0.0496463
0.03394
-0.0116028
0.126941
0.127912
0.127912
0.128024
0.128121
0.128527
0.127661
0.126217
0.124286
0.120054
0.114889
0.109783
0.104096
0.0970094
0.0865962
0.0736883
0.0607813
0.0470801
0.0448823
0.0230289
0.114761
0.11587
0.116359
0.115955
0.114444
0.113424
0.112649
0.110709
0.108133
0.10551