/*--------------------------------*- C++ -*----------------------------------*\
| =========                 |                                                 |
| \\      /  F ield         | OpenFOAM: The Open Source CFD Toolbox           |
|  \\    /   O peration     | Version:  2312                                  |
|   \\  /    A nd           | Website:  www.openfoam.com                      |
|    \\/     M anipulation  |                                                 |
\*---------------------------------------------------------------------------*/
FoamFile
{
    version     2.0;
    format      ascii;
    arch        "LSB;label=32;scalar=64";
    class       surfaceScalarField;
    location    "23";
    object      phi;
}
// * * * * * * * * * * * * * * * * * * * * * * * * * * * * * * * * * * * * * //

dimensions      [0 3 -1 0 0 0 0];

oriented        oriented;

internalField   nonuniform List<scalar> 
10785
(
-0.000514753
0.00396247
-0.00344772
-1.63489e-05
0.00716069
-0.0076591
0.002856
0.00624975
-0.0091221
0.00983022
0.000628748
-0.00760296
0.0226106
-0.0101559
-0.00262446
0.0422429
-0.0257548
0.00612248
0.0683519
-0.0446618
0.0185528
0.0993688
-0.0650135
0.0339966
0.132656
-0.085069
0.0517821
0.165955
-0.103542
0.0702426
0.196374
-0.119918
0.0894989
0.222416
-0.133226
0.107184
0.242573
-0.145072
0.124916
0.256497
-0.15319
0.139265
-0.16272
0.155583
0.263635
-0.000410296
0.00437277
0.000977592
0.0057728
0.00650051
0.00072683
0.0185683
-0.011439
0.0383809
-0.0299685
0.0647873
-0.0521612
0.0949391
-0.0748136
0.125403
-0.0954769
0.153159
-0.112826
0.176269
-0.126652
0.193632
-0.13728
0.206388
-0.145983
0.215296
-0.153981
0.223992
-0.161885
-0.172283
0.233555
0.000146869
0.0042259
0.00353423
0.00238544
0.0134318
-0.00917071
0.0317484
-0.0297557
0.0569332
-0.0551533
0.0849494
-0.0801774
0.111563
-0.101427
0.133831
-0.117745
0.150693
-0.129688
0.162701
-0.13866
0.171888
-0.146467
0.180232
-0.154326
0.189241
-0.16299
0.199557
-0.172201
-0.182439
0.209714
0.000935793
0.00329011
0.00729352
-0.00397228
0.0224612
-0.0243384
0.0453946
-0.0526891
0.0709904
-0.0807491
0.0942196
-0.103407
0.112383
-0.119591
0.125382
-0.130744
0.134804
-0.139109
0.14281
-0.146666
0.150716
-0.154373
0.158938
-0.162548
0.166962
-0.171015
0.174513
-0.179752
-0.189139
0.181212
0.00199629
0.00129382
0.0120672
-0.0140432
0.0315431
-0.0438143
0.0548368
-0.0759827
0.0757464
-0.101659
0.0914481
-0.119108
0.102337
-0.130479
0.110296
-0.138703
0.117109
-0.145922
0.123524
-0.153082
0.129653
-0.160502
0.135407
-0.168302
0.140976
-0.176584
0.146847
-0.185622
-0.19525
0.152958
0.00340456
-0.00211074
0.0171257
-0.0277644
0.0377744
-0.0644631
0.0573363
-0.0955445
0.0719022
-0.116225
0.0816702
-0.128876
0.0884559
-0.137265
0.0938385
-0.144086
0.0985708
-0.150654
0.102997
-0.157508
0.107345
-0.16485
0.111802
-0.172759
0.116456
-0.181238
0.121067
-0.190233
-0.199524
0.12534
0.00511513
-0.00722587
0.0210409
-0.0436901
0.0394652
-0.0828873
0.0538333
-0.109913
0.0631858
-0.125577
0.0690818
-0.134772
0.0731915
-0.141375
0.076525
-0.147419
0.079601
-0.15373
0.082618
-0.160525
0.0855923
-0.167824
0.0884645
-0.175631
0.0911708
-0.183944
0.093778
-0.19284
-0.202101
0.0963552
0.00681166
-0.0140375
0.0226433
-0.0595218
0.0371572
-0.0974013
0.0467508
-0.119506
0.0522226
-0.131049
0.0553721
-0.137922
0.0575091
-0.143512
0.0592741
-0.149185
0.060854
-0.15531
0.0622694
-0.16194
0.0635409
-0.169096
0.0647244
-0.176815
0.0659183
-0.185138
0.0670704
-0.193992
0.0682148
-0.203245
-0.00339328
0.00340317
-9.8866e-06
-0.00974572
0.00700744
-0.000655
-0.0174992
0.00940271
-0.00164921
-0.0260186
0.0114045
-0.00288513
-0.0351047
0.0134345
-0.0043484
-0.0446813
0.0156267
-0.00605002
-0.0546691
0.0179869
-0.00799918
-0.0649635
0.0204969
-0.0102025
-0.0754329
0.0231265
-0.0126572
-0.0859537
0.025839
-0.0153182
-0.0963758
0.0286028
-0.0181807
-0.10648
0.0313215
-0.0212175
-0.116028
0.0339298
-0.0243811
-0.124785
0.0363699
-0.0276131
0.0384299
-0.132198
-0.0310171
-0.002336
0.00573917
-0.00707118
0.0117426
-0.013019
0.0153505
-0.0194902
0.0178756
-0.0261248
0.0200691
-0.0327182
0.0222201
-0.0390934
0.0243621
-0.045057
0.0264606
-0.0503957
0.0284652
-0.0548516
0.0302949
-0.0581354
0.0318866
-0.0600397
0.0332259
-0.0598125
0.0337026
-0.0580292
0.0345866
0.033062
-0.0526613
-0.000911077
0.00665024
-0.00332847
0.01416
-0.00667691
0.018699
-0.0103158
0.0215145
-0.013722
0.0234753
-0.0165278
0.0250259
-0.0184468
0.0262812
-0.0192024
0.0272162
-0.0185071
0.0277699
-0.016124
0.0279118
-0.0114444
0.027207
-0.00473011
0.0265116
0.00536342
0.0236091
0.0182138
0.0217362
0.0158151
0.0354606
0.000368766
0.00628148
0.000317366
0.0142114
-0.000210686
0.019227
-0.00076814
0.022072
-0.000796214
0.0235033
0.00019666
0.024033
0.00259879
0.023879
0.00672762
0.0230874
0.0129766
0.0215209
0.0213398
0.0195486
0.0328918
0.015655
0.0464877
0.0129156
0.0650713
0.00502553
0.0851678
0.00163966
-0.0120586
0.113042
0.00110468
0.0051768
0.0027727
0.0125434
0.00462079
0.0173789
0.00680203
0.0198908
0.0097368
0.0205686
0.0139013
0.0198685
0.0197163
0.0180641
0.0274993
0.0153044
0.0377095
0.0113107
0.0504191
0.00683902
0.0668574
-0.000783303
0.0861367
-0.00636369
0.11157
-0.020408
0.13925
-0.02604
-0.0482197
0.175411
0.00115249
0.00402431
0.00342745
0.0102684
0.00646986
0.0143365
0.0102685
0.0160921
0.0150549
0.0157822
0.0212085
0.0137149
0.0292117
0.0100609
0.0396272
0.00488885
0.0532724
-0.00233454
0.0709807
-0.0108693
0.0932354
-0.023038
0.12097
-0.0340979
0.153672
-0.0531106
0.191772
-0.0641402
-0.0907105
0.234263
0.000644399
0.00337991
0.00241748
0.00849535
0.00531701
0.011437
0.00939756
0.0120115
0.0149948
0.0101849
0.022795
0.0059147
0.0337969
-0.000940945
0.0490634
-0.0103777
0.0694263
-0.0226974
0.095432
-0.036875
0.126235
-0.0538408
0.162922
-0.0707853
0.200924
-0.0911124
0.244196
-0.107413
-0.130192
0.283678
-6.78112e-05
0.000768446
0.00308334
0.00749193
0.0150524
0.0270896
0.0447014
0.0683203
0.0974049
0.130773
0.166431
0.20283
0.236633
0.268485
0.293875
-0.131617
0.0446041
-0.0451852
-0.12644
0.0444893
-0.0496666
-0.117871
0.0428659
-0.0514344
-0.104307
0.0382123
-0.0517765
-0.0865689
0.0290807
-0.0468187
-0.0636896
0.0161907
-0.03907
-0.0368809
-0.00266628
-0.0241424
-0.00658927
-0.0257211
-0.0045705
0.0265496
-0.0541753
0.0210364
0.0621371
-0.0882309
0.0526434
0.0992734
-0.126288
0.0891516
0.135416
-0.158214
0.122071
0.166872
-0.174038
0.142583
0.191336
-0.16961
0.145145
0.209189
-0.151774
0.133922
0.222341
-0.12777
0.114618
0.232076
-0.105139
0.0954038
0.239405
-0.0848355
0.077506
0.245121
-0.0711105
0.065395
0.249778
-0.0591717
0.0545148
0.253657
-0.0541135
0.0502346
0.25682
-0.0475352
0.0443719
0.25928
-0.0482283
0.0457686
0.260986
-0.0434961
0.0417902
0.261862
-0.045902
0.0450259
0.262012
-0.0403502
0.0401996
0.261746
-0.0438193
0.0440861
0.26161
-0.0387602
0.0388959
0.26188
-0.0426121
0.0423424
0.262576
-0.0352458
0.0345493
0.26344
-0.0370059
0.0361424
0.264143
-0.0250565
0.0243529
0.264505
-0.0256524
0.0252903
0.264433
-0.0101905
0.0102625
0.263967
-0.0103032
0.010769
0.263169
0.00781581
-0.0070175
0.262148
0.00824512
-0.00722413
0.0307427
-0.0294914
-0.0475813
0.039524
-0.0396129
0.0365209
-0.0282818
0.0315348
-0.013681
0.0236115
0.0041089
0.0112908
0.024802
-0.00450239
0.0476447
-0.0255089
0.0731258
-0.0512023
0.100505
-0.0815548
0.129572
-0.117297
0.158963
-0.15568
0.184801
-0.184052
0.203648
-0.192885
0.215993
-0.181955
0.224168
-0.159949
0.230869
-0.134471
0.237534
-0.111804
0.244265
-0.0915656
0.250496
-0.0773419
0.255869
-0.0645443
0.260159
-0.0584037
0.263268
-0.0506445
0.265335
-0.0502953
0.266569
-0.0447296
0.267057
-0.0463901
0.266847
-0.0401407
0.266092
-0.0430645
0.265228
-0.0378957
0.264581
-0.0419656
0.264318
-0.0349822
0.264372
-0.0370605
0.264503
-0.0251874
0.264568
-0.0257175
0.26439
-0.0100117
0.263965
-0.00987825
0.263256
0.00852449
0.262367
0.00913463
0.0318773
0.0422192
0.0327655
0.0508285
0.0279116
0.0612054
0.021158
0.073596
0.0112209
0.0877211
-0.00283422
0.103854
-0.0206349
0.121587
-0.0432422
0.141198
-0.0708137
0.16237
-0.102726
0.184325
-0.139252
0.204208
-0.175563
0.217684
-0.197528
0.223304
-0.198506
0.224263
-0.182913
0.224443
-0.160129
0.226077
-0.136105
0.229794
-0.115521
0.235086
-0.0968579
0.241052
-0.0833082
0.246922
-0.0704142
0.25216
-0.0636416
0.25638
-0.0548642
0.259582
-0.0534975
0.26196
-0.0471072
0.263664
-0.0480947
0.264659
-0.0411354
0.264955
-0.0433608
0.264776
-0.0377167
0.264419
-0.0416086
0.264102
-0.0346645
0.263956
-0.0369153
0.263887
-0.0251176
0.263877
-0.0257077
0.263748
-0.00988299
0.263501
-0.00963076
0.263024
0.00900079
0.26242
0.00973914
0.0327263
0.119918
0.025889
0.12807
0.0197594
0.137149
0.0120788
0.147053
0.00131716
0.158051
-0.0138322
0.170196
-0.0327798
0.183378
-0.0564244
0.197411
-0.0848469
0.211708
-0.117023
0.224294
-0.151838
0.231466
-0.182735
0.230836
-0.196898
0.224433
-0.192102
0.217529
-0.176009
0.213923
-0.156523
0.214376
-0.136557
0.217985
-0.11913
0.22345
-0.102323
0.229695
-0.0895533
0.235881
-0.0766001
0.241605
-0.0693653
0.246516
-0.059776
0.25057
-0.0575512
0.253876
-0.0504129
0.256621
-0.05084
0.258767
-0.0432812
0.260268
-0.044862
0.261153
-0.0386017
0.26162
-0.0420757
0.261827
-0.0348714
0.262
-0.0370881
0.262134
-0.0252516
0.262336
-0.0259098
0.262467
-0.0100136
0.262561
-0.00972504
0.262473
0.00908828
0.262309
0.00990343
0.0331211
0.181998
0.0193019
0.189071
0.0126869
0.196273
0.00487661
0.204363
-0.00677282
0.212662
-0.0221318
0.221447
-0.0415649
0.230421
-0.0653981
0.238868
-0.093294
0.245517
-0.123671
0.247496
-0.153818
0.240665
-0.175903
0.227745
-0.183979
0.214675
-0.179032
0.205975
-0.167308
0.202974
-0.153522
0.204578
-0.138162
0.209072
-0.123624
0.214972
-0.108223
0.221454
-0.096036
0.22772
-0.082866
0.233506
-0.0751512
0.238584
-0.0648539
0.242909
-0.0618766
0.246524
-0.0540279
0.249644
-0.05396
0.2523
-0.0459372
0.25447
-0.0470321
0.256087
-0.0402181
0.257262
-0.0432513
0.258076
-0.0356852
0.258764
-0.0377756
0.259341
-0.0258286
0.259974
-0.0265427
0.260555
-0.0105955
0.261153
-0.0103226
0.261611
0.00863036
0.262039
0.00947547
0.0328965
0.238334
0.0152313
0.242644
0.00837646
0.24707
0.00045108
0.251549
-0.0112522
0.255953
-0.0265359
0.259928
-0.0455398
0.262709
-0.0681786
0.263132
-0.0937174
0.259586
-0.120125
0.24968
-0.143913
0.233296
-0.159519
0.214725
-0.165408
0.20141
-0.165717
0.195073
-0.160971
0.194227
-0.152676
0.196978
-0.140913
0.201804
-0.12845
0.207667
-0.114086
0.213892
-0.102261
0.219962
-0.0889362
0.225636
-0.0808253
0.23071
-0.0699275
0.235137
-0.066304
0.238918
-0.0578084
0.242254
-0.0572958
0.245224
-0.0489076
0.247831
-0.0496384
0.249985
-0.0423726
0.25175
-0.0450168
0.253168
-0.0371026
0.254453
-0.0390608
0.255622
-0.0269975
0.256847
-0.0277678
0.258046
-0.0117949
0.259296
-0.0115721
0.260451
0.00747539
0.261617
0.00830959
0.0318921
0.284764
0.0141454
0.284964
0.0081763
0.284317
0.00109894
0.283473
-0.0104084
0.281687
-0.0247501
0.278341
-0.042194
0.272632
-0.0624694
0.263656
-0.084741
0.250436
-0.106905
0.232763
-0.12624
0.213738
-0.140494
0.198053
-0.149723
0.188507
-0.156171
0.184452
-0.156915
0.184235
-0.15246
0.186684
-0.143363
0.190996
-0.132762
0.196419
-0.119508
0.202364
-0.108206
0.208431
-0.0950028
0.214384
-0.0867786
0.219892
-0.0754358
0.224812
-0.0712238
0.229115
-0.0621119
0.232977
-0.0611573
0.236501
-0.0524322
0.239699
-0.052836
0.2425
-0.0451734
0.244949
-0.0474661
0.247083
-0.0392361
0.249096
-0.041074
0.25101
-0.0289117
0.252982
-0.0297396
0.254958
-0.0137711
0.257004
-0.0136184
0.259006
0.00547388
0.26105
0.00626542
0.0299529
0.292684
0.0153367
0.290623
0.0102376
0.288386
0.00333593
0.284093
-0.00611563
0.277832
-0.0184893
0.269438
-0.0337999
0.258496
-0.0515272
0.244773
-0.071018
0.228576
-0.0907084
0.211549
-0.109213
0.196442
-0.125387
0.185119
-0.1384
0.176576
-0.147628
0.171444
-0.151784
0.170088
-0.151103
0.171624
-0.144899
0.175441
-0.136579
0.180784
-0.124852
0.187049
-0.11447
0.193626
-0.10158
0.200126
-0.0932791
0.206237
-0.0815463
0.211854
-0.076841
0.21692
-0.067178
0.221551
-0.0657884
0.225866
-0.056747
0.229849
-0.0568197
0.233483
-0.0488074
0.236777
-0.0507593
0.239797
-0.0422564
0.242693
-0.0439698
0.245519
-0.0317381
0.248389
-0.0326095
0.251302
-0.0166843
0.254285
-0.0166009
0.257283
0.00247572
0.260342
0.00320634
0.0269281
0.31219
0.0143071
-0.311161
0.314452
0.00797621
0.316539
0.00124817
0.318348
-0.00792447
0.318933
-0.019074
0.31783
-0.0326967
0.314734
-0.0484319
0.309396
-0.0656799
0.302089
-0.0834012
0.293551
-0.100674
0.284651
-0.116487
0.275569
-0.129318
0.266343
-0.138402
0.257343
-0.142785
0.249386
-0.143146
0.242999
-0.138512
0.238371
-0.13195
0.235572
-0.122053
0.234288
-0.113186
0.23425
-0.101542
0.235013
-0.0940425
0.236358
-0.082891
0.237901
-0.0783837
0.239471
-0.0687484
0.240903
-0.0672206
0.242237
-0.0580803
0.24343
-0.0580129
0.24442
-0.0497979
0.24512
-0.0514585
0.245542
-0.0426787
0.245755
-0.044183
0.245883
-0.0318661
0.246004
-0.0327308
0.246178
-0.016858
0.246409
-0.0168317
0.246688
0.00219662
0.247024
0.00287008
0.0265672
0.335977
0.0131409
-0.334811
0.337308
0.0066452
0.339253
-0.00069617
0.340634
-0.009306
0.341133
-0.0195724
0.340148
-0.0317121
0.337413
-0.0456969
0.332787
-0.0610539
0.326501
-0.0771148
0.31871
-0.0928839
0.30965
-0.107427
0.299748
-0.119416
0.289727
-0.128382
0.280229
-0.133286
0.272036
-0.134953
0.265724
-0.132201
0.261337
-0.127563
0.258744
-0.11946
0.257618
-0.11206
0.257643
-0.101567
0.258399
-0.0947991
0.259655
-0.0841466
0.261109
-0.079838
0.262592
-0.0702315
0.263977
-0.068605
0.265268
-0.0593715
0.266443
-0.0591879
0.267421
-0.0507759
0.268133
-0.0521712
0.26857
-0.0431149
0.268814
-0.0444272
0.268961
-0.032013
0.269111
-0.0328811
0.269301
-0.0170483
0.269553
-0.0170833
0.26986
0.00188986
0.270219
0.00251112
0.0261612
0.361542
0.0113237
-0.359725
0.363171
0.00501629
0.364692
-0.00221749
0.365745
-0.0103588
0.365969
-0.0197967
0.364971
-0.0307142
0.362428
-0.0431539
0.358177
-0.0568028
0.352332
-0.0712695
0.344985
-0.0855369
0.336411
-0.0988527
0.327162
-0.110166
0.317877
-0.119097
0.309153
-0.124562
0.301517
-0.127317
0.295371
-0.126054
0.290753
-0.122945
0.287614
-0.116321
0.285818
-0.110264
0.285147
-0.100896
0.285301
-0.0949538
0.286061
-0.0849067
0.287154
-0.0809303
0.288375
-0.0714524
0.289588
-0.0698181
0.290762
-0.0605452
0.291853
-0.0602794
0.292769
-0.0516919
0.293442
-0.0528444
0.29386
-0.0435331
0.294102
-0.044669
0.294257
-0.0321676
0.294417
-0.0330412
0.294624
-0.0172555
0.294893
-0.017352
0.29523
0.00155237
0.295615
0.00212599
0.0257051
0.389434
0.00912179
-0.387232
0.391049
0.00340175
0.392236
-0.00340449
0.392923
-0.0110461
0.392911
-0.0197849
0.391878
-0.0296806
0.389521
-0.040797
0.385661
-0.0529429
0.380234
-0.0658429
0.373377
-0.0786801
0.365423
-0.0908982
0.356784
-0.101528
0.348013
-0.110325
0.339642
-0.116191
0.332073
-0.119748
0.325704
-0.119685
0.320742
-0.117983
0.317189
-0.112768
0.314995
-0.10807
0.31397
-0.0998715
0.313839
-0.0948227
0.314361
-0.0854282
0.315282
-0.0818513
0.316375
-0.0725459
0.317509
-0.0709519
0.318624
-0.0616608
0.319669
-0.0613243
0.320544
-0.0525667
0.321189
-0.0534889
0.321593
-0.0439379
0.321836
-0.0449114
0.321997
-0.0323292
0.322164
-0.0332078
0.322384
-0.0174759
0.322662
-0.0176296
0.323028
0.00118676
0.323436
0.00171727
0.0251949
0.419396
0.00716317
-0.417438
0.420956
0.00184212
0.421974
-0.00442238
0.422511
-0.0115834
0.422372
-0.0196463
0.421321
-0.0286294
0.419131
-0.0386064
0.415605
-0.0494175
0.410658
-0.0608953
0.40443
-0.072452
0.397204
-0.0836727
0.38933
-0.0936538
0.381222
-0.102217
0.373292
-0.108261
0.36593
-0.112386
0.359509
-0.113265
0.354329
-0.112802
0.350425
-0.108864
0.347806
-0.105451
0.346326
-0.0983912
0.345773
-0.0942704
0.345907
-0.0855617
0.346518
-0.082462
0.34737
-0.0733979
0.348336
-0.0719179
0.349328
-0.0626529
0.350276
-0.0622723
0.351073
-0.0533642
0.351661
-0.0540767
0.352037
-0.0443141
0.352269
-0.0451429
0.352435
-0.0324949
0.3526
-0.0333731
0.35283
-0.0177061
0.353108
-0.0179075
0.353499
0.000795915
0.353927
0.0012892
0.0246279
0.452025
0.00529717
-0.450159
0.453512
0.000354168
0.454488
-0.00539764
0.454913
-0.0120089
0.454669
-0.0194016
0.453607
-0.0275683
0.451561
-0.0365598
0.448371
-0.0462278
0.443959
-0.0564837
0.438382
-0.0668748
0.431856
-0.0771465
0.424627
-0.086425
0.417025
-0.0946145
0.409454
-0.10069
0.402325
-0.105257
0.395962
-0.106903
0.390694
-0.107534
0.38659
-0.104759
0.383666
-0.102528
0.381813
-0.0965375
0.380883
-0.093341
0.380649
-0.0853279
0.380938
-0.0827505
0.38152
-0.0739799
0.382275
-0.0726729
0.383103
-0.0634806
0.383918
-0.063088
0.384615
-0.0540611
0.385129
-0.0545902
0.385464
-0.0446495
0.385673
-0.0453521
0.385834
-0.0326559
0.38599
-0.033529
0.386227
-0.0179428
0.386497
-0.0181774
0.386911
0.000382184
0.387354
0.00084584
0.0240024
0.487811
0.00352814
-0.486042
0.489137
-0.00097181
0.490022
-0.00628274
0.490354
-0.0123408
0.490061
-0.0191087
0.489036
-0.0265437
0.487155
-0.0346782
0.484293
-0.0433661
0.480378
-0.0525686
0.475415
-0.0619115
0.469527
-0.0712592
0.462929
-0.0798269
0.455939
-0.0876245
0.448892
-0.0936428
0.442174
-0.0985393
0.436038
-0.100767
0.430771
-0.102267
0.426482
-0.10047
0.423243
-0.099288
0.420973
-0.0942682
0.419616
-0.0919841
0.418962
-0.0846733
0.41888
-0.0826684
0.419142
-0.0742422
0.419641
-0.0731715
0.420262
-0.0641015
0.420907
-0.063733
0.421473
-0.0546272
0.421886
-0.0550033
0.422166
-0.04493
0.422339
-0.0455248
0.42249
-0.0328071
0.422623
-0.0336615
0.422859
-0.0181795
0.423115
-0.0184333
0.423551
-5.34616e-05
0.424008
0.000388676
0.0233154
0.526998
0.00196806
-0.525438
0.52819
-0.00216409
0.52896
-0.00705283
0.529229
-0.0126093
0.528925
-0.0188046
0.527961
-0.0255801
0.526247
-0.0329638
0.523686
-0.0408053
0.520221
-0.0491035
0.515831
-0.057521
0.510585
-0.0660133
0.504659
-0.0739013
0.498331
-0.0812967
0.491848
-0.0871597
0.485535
-0.0922262
0.479616
-0.094848
0.47438
-0.0970307
0.469958
-0.0960481
0.466472
-0.0958026
0.46386
-0.0916556
0.462125
-0.0902491
0.46108
-0.0836289
0.460632
-0.08222
0.460562
-0.0741727
0.460776
-0.0733855
0.461161
-0.064486
0.461607
-0.0641791
0.462021
-0.0550412
0.462311
-0.0552938
0.462506
-0.0451246
0.462614
-0.045633
0.462727
-0.0329201
0.46283
-0.0337641
0.46306
-0.0184099
0.463294
-0.0186667
0.463733
-0.000493264
0.4642
-7.75597e-05
0.0225601
0.57004
0.000599281
-0.568671
0.571083
-0.00320764
0.571748
-0.00771789
0.571964
-0.0128246
0.571664
-0.0185049
0.57078
-0.0246958
0.569239
-0.0314231
0.566969
-0.038535
0.563921
-0.046056
0.560068
-0.0536679
0.555457
-0.0614024
0.550201
-0.0686455
0.54452
-0.0756151
0.538602
-0.0812415
0.53273
-0.0863548
0.527112
-0.0892296
0.522018
-0.0919367
0.517567
-0.0915975
0.513918
-0.0921534
0.511021
-0.0887582
0.508939
-0.088167
0.507505
-0.0821947
0.506671
-0.0813861
0.506235
-0.0737375
0.506118
-0.0732679
0.506216
-0.0645837
0.506409
-0.0643725
0.506626
-0.0552578
0.506748
-0.0554164
0.506848
-0.0452239
0.50686
-0.0456452
0.506926
-0.0329863
0.506945
-0.033783
0.507146
-0.0186112
0.507343
-0.0188632
0.507813
-0.00096324
0.508326
-0.000591011
0.0217555
0.617464
-0.000534226
-0.61633
0.618356
-0.00410007
0.618912
-0.00827329
0.61907
-0.0129831
0.618777
-0.0182121
0.617975
-0.0238934
0.616605
-0.0300535
0.614609
-0.0365386
0.611949
-0.043396
0.608595
-0.0503146
0.604582
-0.0573893
0.599964
-0.0640272
0.594911
-0.0705622
0.589573
-0.0759033
0.584193
-0.0809746
0.578933
-0.0839704
0.574051
-0.087054
0.569641
-0.0871879
0.565898
-0.0884102
0.562773
-0.0856332
0.56038
-0.0857739
0.558571
-0.0803857
0.557353
-0.0801679
0.556538
-0.0729228
0.556062
-0.0727921
0.555832
-0.0643537
0.555737
-0.0642773
0.555713
-0.0552343
0.555646
-0.0553487
0.555571
-0.0451494
0.55548
-0.0455545
0.555453
-0.0329593
0.555445
-0.0337747
0.555612
-0.0187778
0.555766
-0.0190178
0.556202
-0.00139913
0.556634
-0.00102243
0.0208401
0.669844
-0.0014898
-0.668889
0.670575
-0.00483079
0.671017
-0.00871545
0.671118
-0.0130837
0.670831
-0.0179253
0.670107
-0.0231695
0.6689
-0.0288464
0.667159
-0.0347979
0.664856
-0.0410931
0.661959
-0.0474176
0.658489
-0.0539188
0.654464
-0.0600026
0.65002
-0.0661174
0.645259
-0.0711431
0.640388
-0.0761033
0.635526
-0.0791086
0.63091
-0.0824378
0.626609
-0.0828874
0.622841
-0.0846415
0.619552
-0.0823444
0.616895
-0.0831172
0.614742
-0.0782325
0.613147
-0.0785728
0.611947
-0.0717226
0.611093
-0.071938
0.610513
-0.0637736
0.610081
-0.0638457
0.609792
-0.0549455
0.609458
-0.0550141
0.60923
-0.0449221
0.608929
-0.0452536
0.608793
-0.0328232
0.608577
-0.0335583
0.608682
-0.0188825
0.608752
-0.0190884
0.609266
-0.00191325
0.609851
-0.00160716
0.019889
0.727885
-0.00223428
-0.727141
0.728442
-0.00538761
0.728756
-0.00902956
0.728781
-0.0131091
0.728481
-0.0176249
0.727813
-0.0225012
0.726741
-0.0277748
0.725222
-0.0332785
0.723233
-0.0391043
0.72074
-0.044925
0.717759
-0.0509378
0.714289
-0.0565325
0.710423
-0.0622512
0.706224
-0.0669445
0.701871
-0.0717504
0.697434
-0.0746708
0.693131
-0.0781353
0.688995
-0.0787517
0.685264
-0.0809105
0.681866
-0.0789461
0.678995
-0.0802467
0.676522
-0.0757592
0.674557
-0.0766071
0.672952
-0.0701176
0.671697
-0.0706835
0.670716
-0.0627931
0.669918
-0.063047
0.669298
-0.0543255
0.668698
-0.0544146
0.668203
-0.0444267
0.66775
-0.0448005
0.667451
-0.0325242
0.667216
-0.0333233
0.667221
-0.018888
0.667243
-0.0191103
0.667595
-0.0022651
0.667915
-0.00192701
0.0188291
0.792176
-0.00282249
-0.791588
0.792594
-0.00580555
0.792803
-0.00923865
0.792766
-0.0130724
0.792455
-0.0173136
0.791834
-0.0218806
0.790878
-0.0268185
0.789549
-0.031949
0.787831
-0.0373862
0.78569
-0.042784
0.783137
-0.0483856
0.780153
-0.0535487
0.776807
-0.0589042
0.773122
-0.0632597
0.769254
-0.0678822
0.765229
-0.0706458
0.761255
-0.0741618
0.757325
-0.0748216
0.753687
-0.0772723
0.750252
-0.0755112
0.74724
-0.0772345
0.744514
-0.073034
0.742215
-0.0743081
0.740228
-0.0681305
0.738545
-0.0690003
0.737149
-0.0613969
0.735894
-0.0617923
0.734898
-0.0533288
0.733895
-0.0534117
0.733122
-0.0436535
0.732321
-0.0439995
0.731801
-0.0320044
0.731214
-0.0327368
0.731122
-0.0187956
0.730947
-0.0189351
0.731522
-0.00284029
0.732175
-0.00258024
0.0176433
0.863996
-0.00317448
-0.863644
0.864209
-0.00601884
0.864246
-0.00927571
0.864082
-0.0129083
0.863697
-0.0169283
0.863062
-0.0212455
0.862158
-0.0259151
0.860954
-0.0307448
0.859441
-0.0358726
0.857582
-0.0409252
0.855392
-0.0461957
0.852835
-0.0509921
0.849971
-0.0560395
0.846777
-0.0600657
0.843389
-0.0644943
0.83978
-0.0670365
0.836152
-0.0705338
0.832433
-0.0711026
0.82889
-0.0737302
0.825395
-0.0720156
0.822224
-0.0740635
0.819215
-0.0700256
0.816574
-0.0716666
0.814169
-0.0657257
0.812067
-0.0668986
0.810227
-0.059556
0.808544
-0.0601097
0.807141
-0.0519262
0.805784
-0.0520543
0.804668
-0.0425379
0.803624
-0.0429555
0.802875
-0.031255
0.802208
-0.0320694
0.801925
-0.0185129
0.801704
-0.0187146
0.801856
-0.00299215
0.80198
-0.00270388
0.0165103
0.943594
-0.00341242
-0.943356
0.943699
-0.0061235
0.943653
-0.00922996
0.943429
-0.012684
0.943011
-0.0165101
0.942378
-0.0206128
0.941523
-0.0250599
0.940418
-0.0296404
0.939063
-0.0345173
0.93742
-0.0392825
0.935507
-0.0442827
0.933278
-0.0487625
0.930786
-0.0535479
0.927979
-0.057259
0.924983
-0.061498
0.921728
-0.0637814
0.918416
-0.0672222
0.914929
-0.0676154
0.911542
-0.0703426
0.90808
-0.0685545
0.90484
-0.0708226
0.901632
-0.0668183
0.898673
-0.0687078
0.89586
-0.0629123
0.893242
-0.0642805
0.890886
-0.0571996
0.888592
-0.0578161
0.88665
-0.0499843
0.884701
-0.0501057
0.883126
-0.0409627
0.881556
-0.0413854
0.880436
-0.030135
0.879287
-0.0309206
0.878855
-0.0180805
0.878294
-0.0181533
0.878917
-0.0036158
0.879594
-0.00338011
0.0149774
1.03402
-0.00329849
-1.03413
1.0338
-0.00591004
1.03346
-0.00888953
1.03298
-0.0121979
1.03234
-0.0158737
1.03154
-0.0198108
1.03057
-0.0240935
1.02942
-0.0284863
1.02808
-0.0331842
1.02653
-0.0377327
1.02479
-0.0425427
1.0228
-0.0467674
1.02061
-0.0513559
1.01812
-0.0547743
1.01547
-0.0588498
1.01252
-0.0608287
1.00948
-0.064178
1.00614
-0.0642763
1.00282
-0.0670215
0.999259
-0.0649964
0.995832
-0.0673959
0.992296
-0.0632823
0.988952
-0.065364
0.985669
-0.0596296
0.982548
-0.0611592
0.97969
-0.0543417
0.97687
-0.0549959
0.974462
-0.0475766
0.972038
-0.0476812
0.970031
-0.0389561
0.968096
-0.0394502
0.966618
-0.0286574
0.965254
-0.0295562
0.96449
-0.0173166
0.963821
-0.0174842
0.963651
-0.00344646
0.963478
-0.00320619
0.0138295
1.13384
-0.00319383
-1.13395
1.13359
-0.00565596
1.13319
-0.00849077
1.13264
-0.0116474
1.13194
-0.0151717
1.13107
-0.0189462
1.13006
-0.0230764
1.12887
-0.0273012
1.12754
-0.0318521
1.12603
-0.0362207
1.12437
-0.0408883
1.1225
-0.0448984
1.12048
-0.0493369
1.11819
-0.0524804
1.11576
-0.056419
1.113
-0.0580657
1.11013
-0.0613143
1.10689
-0.0610356
1.10362
-0.0637535
1.09998
-0.0613543
1.0964
-0.0638103
1.09254
-0.0594253
1.08877
-0.0615922
1.08493
-0.0557882
1.08112
-0.0573548
1.07756
-0.050785
1.07389
-0.0513207
1.07071
-0.0443955
1.06737
-0.0443453
1.06469
-0.0362713
1.06196
-0.0367253
1.06
-0.0266952
1.058
-0.0275597
1.05706
-0.0163741
1.05596
-0.0163789
1.05653
-0.00401565
1.05714
-0.00382048
0.0118744
1.25105
-0.00247192
-1.25177
1.25022
-0.0048275
1.24926
-0.00753081
1.24815
-0.0105406
1.24691
-0.0139245
1.24552
-0.0175573
1.24401
-0.0215718
1.24239
-0.0256749
1.24068
-0.030142
1.23885
-0.0343947
1.23696
-0.0390031
1.23493
-0.0428677
1.23284
-0.0472386
1.2305
-0.0501496
1.22809
-0.0540032
1.22532
-0.0552957
1.22245
-0.0584415
1.21909
-0.0576755
1.21563
-0.0602999
1.21165
-0.0573759
1.20764
-0.0597999
1.20323
-0.0550099
1.19882
-0.0571845
1.1943
-0.0512696
1.18974
-0.0527894
1.18545
-0.0464991
1.18101
-0.046884
1.17722
-0.0406023
1.1733
-0.040429
1.17006
-0.0330232
1.16682
-0.0334917
1.16427
-0.0241406
1.16185
-0.0251386
1.16034
-0.0148709
1.15894
-0.0149722
1.15836
-0.00343508
1.15778
-0.00324298
0.010706
1.38127
-0.00186885
-1.38187
1.38043
-0.00398761
1.37937
-0.00647031
1.3781
-0.00927135
1.37664
-0.0124634
1.37499
-0.0159133
1.37319
-0.019773
1.37125
-0.0237286
1.3692
-0.0280938
1.36704
-0.0322324
1.36483
-0.0368001
1.36251
-0.0405449
1.36016
-0.0448871
1.35758
-0.0475713
1.35493
-0.0513576
1.35189
-0.0522474
1.34873
-0.0552821
1.34495
-0.0538952
1.34106
-0.0564155
1.33645
-0.0527613
1.33176
-0.055108
1.32646
-0.0497187
1.32113
-0.0518492
1.31555
-0.0456886
1.30977
-0.0470106
1.30442
-0.0411489
1.29866
-0.0411269
1.29379
-0.0357259
1.28838
-0.0350282
1.28407
-0.0287076
1.27962
-0.0290471
1.27645
-0.0209638
1.27321
-0.0219007
1.27157
-0.0132285
1.2697
-0.0131051
1.26999
-0.00372934
1.27041
-0.00365421
0.0083221
1.53981
-0.00033166
-1.54134
1.53805
-0.00223408
1.53603
-0.00444644
1.53371
-0.00695734
1.53111
-0.00985819
1.52823
-0.0130335
1.52511
-0.0166526
1.52179
-0.0204113
1.51834
-0.0246454
1.51481
-0.0287016
1.51129
-0.0332767
1.50776
-0.037021
1.50431
-0.0414369
1.50079
-0.0440463
1.49728
-0.0478466
1.49346
-0.0484278
1.48948
-0.0513053
1.48489
-0.0493007
1.48001
-0.0515424
1.47436
-0.0471027
1.46847
-0.049225
1.46196
-0.0432092
1.45528
-0.0451618
1.44841
-0.0388266
1.44138
-0.0399765
1.43478
-0.0345491
1.4278
-0.0341504
1.42183
-0.0297501
1.41564
-0.0288361
1.41061
-0.0236807
1.40558
-0.02402
1.40165
-0.0170366
1.39777
-0.0180121
1.39535
-0.0108137
1.39287
-0.010623
1.39185
-0.00270589
1.39083
-0.00263789
0.00704068
1.73415
0.00116919
-1.73565
1.73218
-0.000263402
1.72966
-0.00193411
1.72665
-0.00394074
1.72311
-0.00632341
1.71911
-0.00902816
1.71463
-0.0121776
1.70979
-0.0155657
1.7046
-0.0194562
1.6992
-0.0233058
1.69364
-0.0277134
1.68804
-0.0314218
1.68238
-0.0357814
1.67669
-0.0383517
1.67085
-0.0420095
1.66472
-0.0422991
1.65824
-0.0448207
1.65112
-0.0421845
1.64348
-0.0438993
1.63515
-0.0387753
1.62631
-0.0403794
1.61709
-0.0339896
1.60746
-0.035537
1.59822
-0.0295835
1.58831
-0.0300703
1.57967
-0.025907
1.57031
-0.0247925
1.56271
-0.0221444
1.55449
-0.0206188
1.54769
-0.0168835
1.54099
-0.0173181
1.53594
-0.0119896
1.53089
-0.0129616
1.52828
-0.00819909
1.52526
-0.00760678
1.525
-0.00243935
1.52497
-0.00261262
0.00432454
1.96138
0.00230952
-1.96253
1.95951
0.0016158
1.95683
0.000742338
1.95329
-0.000405167
1.94881
-0.00184143
1.94335
-0.00356784
1.93682
-0.00564943
1.9293
-0.00803983
1.92076
-0.0109157
1.91142
-0.0139672
1.90138
-0.017679
1.89107
-0.0211035
1.88053
-0.0252511
1.87026
-0.0280749
1.85986
-0.0316065
1.8497
-0.0321461
1.83907
-0.0341913
1.82834
-0.031454
1.81681
-0.0323663
1.80538
-0.0273413
1.79294
-0.0279392
1.78108
-0.0221364
1.76869
-0.023141
1.7572
-0.0180939
1.74489
-0.0177677
1.73448
-0.0154966
1.72383
-0.014141
1.71459
-0.0129024
1.70455
-0.0105766
1.69622
-0.00855102
1.68867
-0.00976916
1.68345
-0.00677489
1.67842
-0.00793072
1.67533
-0.00510791
1.67168
-0.00396228
1.67022
-0.000975979
1.66869
-0.00108084
0.00273275
2.3563
-2.35399
2.35792
2.35866
2.35826
2.35642
2.35285
2.3472
2.33916
2.32824
2.31428
2.2966
2.27549
2.25024
2.22217
2.19056
2.15841
2.12422
2.09277
2.0604
2.03306
2.00512
1.98299
1.95984
1.94175
1.92398
1.90849
1.89435
1.88144
1.87087
1.86232
1.85255
1.84577
1.83784
1.83273
1.82877
1.82779
1.82671
0.264978
0.0636389
-0.260402
0.269637
0.0916968
0.275102
0.119875
0.279947
0.148113
0.286833
0.174327
0.29341
0.203136
0.300883
0.226082
0.253357
0.288397
0.0589429
-0.283701
0.293086
0.0870073
0.298883
0.114078
0.304694
0.142302
0.311561
0.16746
0.319314
0.195384
0.326478
0.218917
0.245024
0.314272
0.0544971
-0.309827
0.318829
0.0824506
0.324251
0.108656
0.330046
0.136506
0.336303
0.161203
0.343511
0.188176
0.350999
0.211429
0.236299
0.342129
0.0503357
-0.337968
0.346506
0.0780737
0.351621
0.103542
0.357232
0.130895
0.36337
0.155065
0.3705
0.181046
0.378356
0.203573
0.227423
0.372609
0.046506
-0.368779
0.376889
0.0737941
0.381847
0.0985834
0.387509
0.125232
0.393795
0.148779
0.401007
0.173834
0.408751
0.195829
0.218736
0.405899
0.0429601
-0.402353
0.410118
0.0695748
0.414938
0.0937641
0.420604
0.119566
0.426779
0.142604
0.433855
0.166758
0.441484
0.1882
0.210061
0.442269
0.0396996
-0.439009
0.446364
0.0654806
0.450969
0.089159
0.456511
0.114024
0.462567
0.136548
0.469633
0.159692
0.477331
0.180502
0.201351
0.482017
0.036711
-0.479029
0.48593
0.0615674
0.490392
0.084698
0.495863
0.108552