/*--------------------------------*- C++ -*----------------------------------*\
| =========                 |                                                 |
| \\      /  F ield         | OpenFOAM: The Open Source CFD Toolbox           |
|  \\    /   O peration     | Version:  2312                                  |
|   \\  /    A nd           | Website:  www.openfoam.com                      |
|    \\/     M anipulation  |                                                 |
\*---------------------------------------------------------------------------*/
FoamFile
{
    version     2.0;
    format      ascii;
    arch        "LSB;label=32;scalar=64";
    class       volVectorField;
    location    "23";
    object      U;
}
// * * * * * * * * * * * * * * * * * * * * * * * * * * * * * * * * * * * * * //

dimensions      [0 1 -1 0 0 0 0];

internalField   nonuniform List<vector> 
5478
(
(-0.0324849 0.0239032 -6.14088e-20)
(-0.0613182 0.0478096 0)
(-0.0543626 0.0582803 9.20511e-20)
(-0.00715065 0.0622353 -1.61007e-19)
(0.0857986 0.06408 1.05069e-19)
(0.225306 0.0682832 -3.11101e-20)
(0.400665 0.0774494 -5.45578e-20)
(0.591944 0.0908925 0)
(0.780558 0.106772 0)
(0.944936 0.121184 7.93572e-20)
(1.08143 0.129347 -3.39788e-20)
(1.17448 0.13681 -6.33965e-20)
(1.23078 0.120249 -2.70417e-20)
(1.25536 0.125018 0)
(1.24366 0.0737569 8.60745e-20)
(-0.0395696 0.0240401 1.23254e-19)
(-0.0582894 0.0395233 0)
(-0.020926 0.0426591 0)
(0.0804063 0.0448996 -8.11873e-20)
(0.246314 0.0537869 1.06888e-19)
(0.456124 0.0720569 3.09062e-20)
(0.675434 0.0967883 -5.46007e-20)
(0.874105 0.122483 4.84099e-20)
(1.03055 0.143619 1.27444e-19)
(1.13918 0.15528 -1.1282e-19)
(1.19852 0.158685 2.03663e-21)
(1.21911 0.148556 0)
(1.21656 0.136497 2.69938e-20)
(1.20021 0.117661 0)
(1.18969 0.0967677 0)
(-0.0430625 0.022205 -3.89139e-22)
(-0.0378644 0.030699 -5.78966e-20)
(0.0543197 0.0328682 4.44254e-22)
(0.236127 0.0444363 0)
(0.477898 0.0711417 -3.67028e-20)
(0.724118 0.106495 3.1656e-20)
(0.930201 0.140455 2.73018e-20)
(1.07434 0.165293 0)
(1.1569 0.176891 -4.20635e-20)
(1.18959 0.177394 3.6913e-20)
(1.19269 0.166887 3.23449e-20)
(1.18616 0.156371 0)
(1.18085 0.138853 0)
(1.18316 0.132268 -8.06084e-20)
(1.1902 0.112159 7.20177e-20)
(-0.0395835 0.0173629 -6.78531e-20)
(0.0089382 0.0195146 5.70448e-20)
(0.182781 0.0310299 -4.92186e-20)
(0.451295 0.0656153 4.39239e-20)
(0.729863 0.113014 7.41732e-20)
(0.950385 0.15605 -6.35223e-20)
(1.08951 0.184511 -2.72816e-20)
(1.15743 0.196133 2.28149e-20)
(1.17883 0.19552 -2.111e-20)
(1.18033 0.186822 0)
(1.17935 0.178204 0)
(1.18022 0.166065 -4.97732e-20)
(1.18204 0.157354 6.6218e-20)
(1.17996 0.145235 -3.81613e-20)
(1.17401 0.12884 0)
(-0.0259579 0.0104129 3.44066e-20)
(0.0923338 0.0107352 2.88908e-20)
(0.365886 0.0479884 -1.04554e-19)
(0.68504 0.110406 1.48506e-21)
(0.936356 0.166825 -4.18251e-22)
(1.08622 0.202066 -8.85872e-22)
(1.15405 0.216175 2.67102e-20)
(1.17511 0.216683 2.30216e-20)
(1.1784 0.21029 1.79716e-20)
(1.17747 0.202635 -1.54431e-21)
(1.17421 0.1923 -4.17624e-20)
(1.16868 0.182253 0)
(1.16117 0.170125 2.09268e-20)
(1.15511 0.157587 -1.71598e-20)
(1.15188 0.145926 2.99418e-20)
(0.00168954 0.00343857 -7.50129e-20)
(0.218607 0.0153592 8.10647e-20)
(0.575309 0.090664 -2.82277e-20)
(0.882103 0.168683 2.15804e-20)
(1.06602 0.21769 -3.98029e-20)
(1.14886 0.238348 -3.09818e-20)
(1.17526 0.241729 7.05036e-22)
(1.17832 0.236846 0)
(1.17326 0.22893 3.57467e-20)
(1.16531 0.218517 -3.17884e-20)
(1.15768 0.208086 1.3404e-20)
(1.15218 0.196456 0)
(1.14971 0.186109 8.80353e-21)
(1.1484 0.17447 -1.63822e-20)
(1.14669 0.165005 0)
(0.0478387 0.000146652 -9.38989e-21)
(0.37943 0.0451265 9.41171e-22)
(0.765464 0.152251 1.34923e-20)
(1.01753 0.228257 2.35577e-20)
(1.13543 0.262725 -1.86958e-20)
(1.17385 0.271136 3.17307e-20)
(1.17725 0.267263 -7.16886e-21)
(1.16903 0.258548 0)
(1.15927 0.247661 -2.10179e-20)
(1.15161 0.236796 1.00563e-21)
(1.14585 0.225393 1.81383e-20)
(1.14079 0.214445 0)
(1.13515 0.202953 -1.2781e-20)
(1.1296 0.190665 0)
(1.12371 0.182428 8.75027e-21)
(0.113741 0.00680797 -1.05585e-20)
(0.546208 0.102625 0)
(0.910864 0.222643 1.47965e-20)
(1.09916 0.286053 0)
(1.16561 0.305331 0)
(1.17513 0.303198 0)
(1.16608 0.293428 -6.30719e-21)
(1.15451 0.281347 0)
(1.14448 0.26898 4.20049e-21)
(1.13557 0.256249 0)
(1.12764 0.243813 -5.72459e-21)
(1.12132 0.231235 0)
(1.11753 0.219283 3.97282e-21)
(1.11566 0.207915 0)
(1.1144 0.199942 2.79058e-21)
(-0.0146848 0.0191007 -6.63779e-21)
(-0.0564691 0.0385431 0)
(-0.114835 0.0503288 1.07584e-20)
(-0.169499 0.0601933 0)
(-0.218993 0.0703257 0)
(-0.264145 0.081139 0)
(-0.304818 0.0924997 -7.61201e-21)
(-0.340945 0.104203 0)
(-0.37243 0.116 6.57665e-21)
(-0.399257 0.127571 0)
(-0.421313 0.138787 -1.14064e-20)
(-0.438235 0.149308 0)
(-0.449849 0.158829 9.875e-21)
(-0.456319 0.1671 0)
(-0.457986 0.174275 8.52987e-21)
(-0.016283 0.0499461 3.35178e-20)
(-0.0523861 0.0933251 -2.41928e-20)
(-0.0998358 0.111094 1.10981e-20)
(-0.143528 0.119853 3.95637e-20)
(-0.181445 0.12669 6.5285e-22)
(-0.213765 0.133562 -3.28323e-20)
(-0.240195 0.14058 2.24308e-20)
(-0.260573 0.147537 0)
(-0.274732 0.154189 2.0151e-20)
(-0.282557 0.160253 1.09744e-21)
(-0.284031 0.165526 -1.07408e-20)
(-0.278728 0.169645 0)
(-0.266063 0.171728 -2.93524e-20)
(-0.246526 0.173922 0)
(-0.218514 0.170527 -4.31567e-20)
(-0.0192725 0.0669957 5.54788e-20)
(-0.0488108 0.129864 1.26479e-20)
(-0.0810511 0.156237 -2.18041e-20)
(-0.108987 0.166154 -5.98903e-20)
(-0.130763 0.170414 3.54996e-20)
(-0.145842 0.173324 3.35726e-20)
(-0.15371 0.175849 -5.99649e-20)
(-0.154168 0.177967 0)
(-0.147153 0.179501 -5.29499e-20)
(-0.132443 0.180235 4.70798e-20)
(-0.109912 0.179622 2.21271e-20)
(-0.0818677 0.178589 0)
(-0.0408077 0.173227 1.94656e-20)
(-0.00245388 0.170681 -3.58132e-20)
(0.0665227 0.160359 0)
(-0.0217109 0.0688239 2.89291e-20)
(-0.0462015 0.143391 -7.59489e-20)
(-0.0633965 0.180125 8.99858e-20)
(-0.0742069 0.194533 -8.01058e-20)
(-0.0781521 0.198325 -3.61731e-20)
(-0.0746072 0.198087 3.27523e-20)
(-0.0630285 0.196407 3.02042e-20)
(-0.0431735 0.193955 2.73368e-20)
(-0.0150845 0.190653 -7.71845e-20)
(0.0194864 0.186864 -1.87313e-21)
(0.0677716 0.180574 2.07496e-20)
(0.108366 0.175079 0)
(0.187445 0.164985 3.69938e-20)
(0.221393 0.154423 1.0762e-19)
(0.342524 0.140819 -6.41519e-20)
(-0.0223639 0.0591555 3.42689e-22)
(-0.0445171 0.134712 5.18953e-20)
(-0.0509263 0.179184 -4.5545e-20)
(-0.0472277 0.199645 4.02464e-20)
(-0.0347209 0.205565 7.20059e-20)
(-0.0137249 0.204087 -6.4917e-20)
(0.0156236 0.19915 -2.90975e-20)
(0.0526919 0.192477 -8.21792e-20)
(0.10033 0.184825 7.38448e-20)
(0.146407 0.176063 0)
(0.22503 0.166458 0)
(0.263384 0.15626 7.99248e-20)
(0.394551 0.142832 -1.82463e-19)
(0.414968 0.130356 6.62377e-20)
(0.597901 0.110233 0)
(-0.021695 0.0447149 2.12556e-22)
(-0.0443319 0.110938 -5.16118e-20)
(-0.046322 0.155449 1.36993e-19)
(-0.0339653 0.17857 -4.0205e-20)
(-0.0099544 0.186239 -3.58596e-20)
(0.0241085 0.184523 3.21894e-20)
(0.0676048 0.177843 2.91122e-20)
(0.119347 0.168579 5.27504e-20)
(0.186319 0.158827 -9.35018e-20)
(0.252662 0.147653 4.29222e-20)
(0.363625 0.137588 3.95422e-20)
(0.427972 0.124949 0)
(0.604411 0.11385 0)
(0.6428 0.0983053 1.31291e-19)
(0.874053 0.083684 -1.17202e-19)
(-0.0219309 0.0321699 1.23606e-22)
(-0.0474127 0.0832809 0)
(-0.0503316 0.119129 0)
(-0.034907 0.138346 7.96591e-20)
(-0.00363365 0.144483 -3.54003e-20)
(0.0427037 0.142289 3.0832e-20)
(0.105702 0.135921 5.60949e-20)
(0.187056 0.128485 -4.97422e-20)
(0.290424 0.120084 4.67128e-20)
(0.40957 0.114804 -4.29676e-20)
(0.550671 0.106242 -1.5768e-21)
(0.683471 0.102036 0)
(0.853748 0.0952852 3.19253e-20)
(0.948051 0.0836026 0)
(1.14352 0.0795173 0)
(-0.0255625 0.0253915 -6.0006e-20)
(-0.054711 0.0612267 0)
(-0.0582337 0.0837389 -9.12645e-20)
(-0.0366543 0.0948675 1.59753e-19)
(0.0111823 0.0976803 -1.74531e-19)
(0.0887369 0.0962398 -3.09862e-20)
(0.198465 0.0941299 5.45029e-20)
(0.336654 0.0944311 0)
(0.495991 0.0950685 0)
(0.664339 0.102352 -8.26335e-20)
(0.825217 0.100965 -3.98735e-20)
(0.980888 0.11204 6.71426e-20)
(1.10008 0.100942 -3.19779e-20)
(1.20206 0.103331 0)
(1.2772 0.0867289 -1.01406e-19)
(-0.454058 0.180132 0)
(-0.448173 0.179092 6.28597e-21)
(-0.421813 0.170822 -5.99622e-21)
(-0.386505 0.15396 0)
(-0.328301 0.123261 -1.77283e-22)
(-0.2616 0.0841791 0)
(-0.171162 0.0304342 2.99862e-22)
(-0.074602 -0.0326222 0)
(0.0378349 -0.105904 -2.20001e-22)
(0.159852 -0.186917 2.27244e-21)
(0.291344 -0.270228 -2.16838e-21)
(0.423848 -0.334561 -6.77867e-23)
(0.541181 -0.360479 0)
(0.632175 -0.341468 -1.14073e-23)
(0.702343 -0.295052 -4.26814e-23)
(0.754351 -0.237926 0)
(0.795245 -0.186693 0)
(0.825003 -0.143259 0)
(0.850267 -0.114289 4.1183e-23)
(0.867978 -0.0905803 0)
(0.886069 -0.0792584 0)
(0.898712 -0.0667466 3.91508e-23)
(0.912532 -0.0650866 -7.97259e-23)
(0.920705 -0.0563879 -2.802e-23)
(0.92938 -0.0571659 0)
(0.932544 -0.0483656 0)
(0.935956 -0.0502363 0)
(0.937249 -0.0424453 0)
(0.941331 -0.0441791 1.78659e-23)
(0.946551 -0.0347229 1.44236e-23)
(0.953641 -0.034586 -1.15542e-23)
(0.960951 -0.0224475 -5.05343e-24)
(0.967141 -0.0219934 3.23675e-24)
(0.972746 -0.00875341 0)
(0.976188 -0.00857635 8.91599e-25)
(0.979698 0.00484754 -8.54117e-25)
(0.981072 0.00481599 1.44635e-25)
(0.983863 0.019306 -1.38211e-25)
(-0.19061 0.171523 -1.24131e-21)
(-0.174211 0.154749 2.52229e-20)
(-0.133705 0.13376 0)
(-0.0878875 0.103375 3.82614e-22)
(-0.0247034 0.0617715 -1.8872e-22)
(0.0474044 0.0135913 0)
(0.133299 -0.0480823 -3.02032e-22)
(0.226354 -0.117745 1.59034e-20)
(0.328058 -0.193197 -1.54809e-20)
(0.436954 -0.275463 3.73142e-22)
(0.553796 -0.358479 0)
(0.660599 -0.414015 6.82412e-23)
(0.738444 -0.422434 0)
(0.783951 -0.384616 -1.07393e-24)
(0.809438 -0.323426 4.2953e-23)
(0.826794 -0.25783 7.44649e-23)
(0.844315 -0.201832 -1.51346e-21)
(0.863614 -0.155272 1.44486e-21)
(0.88475 -0.12386 1.12498e-21)
(0.903368 -0.098033 -1.17532e-21)
(0.920875 -0.0848591 -5.12557e-23)
(0.933552 -0.0707249 3.63226e-22)
(0.944565 -0.067792 -3.72081e-22)
(0.950796 -0.0581055 -2.29809e-22)
(0.956632 -0.0579766 3.56713e-22)
(0.95827 -0.048455 -1.54992e-22)
(0.959443 -0.0499062 -2.78046e-23)
(0.958205 -0.0423249 0)
(0.958564 -0.0445467 -5.38028e-23)
(0.959701 -0.0356613 -1.44649e-23)
(0.962752 -0.0358446 1.15833e-23)
(0.966854 -0.023744 4.49367e-23)
(0.970778 -0.0231379 -3.8211e-23)
(0.975097 -0.00966088 1.31584e-24)
(0.977813 -0.00925216 1.14521e-24)
(0.981087 0.00436884 1.18293e-23)
(0.982313 0.00444763 7.57365e-24)
(0.985143 0.0190388 -5.62752e-25)
(0.100967 0.147824 5.29532e-20)
(0.128411 0.125304 -5.093e-20)
(0.170122 0.096252 0)
(0.218823 0.0581698 5.06945e-20)
(0.279313 0.00985491 -4.76029e-20)
(0.346382 -0.0447486 7.06582e-22)
(0.422168 -0.110174 0)
(0.50591 -0.18289 5.65121e-22)
(0.594789 -0.260806 0)
(0.691429 -0.344797 -7.71463e-22)
(0.78953 -0.423375 -1.50078e-20)
(0.860335 -0.463749 1.43162e-20)
(0.887689 -0.451428 3.86486e-21)
(0.88256 -0.398692 -4.02499e-21)
(0.86698 -0.33085 4.44105e-22)
(0.855493 -0.264689 -7.5502e-23)
(0.853666 -0.210074 0)
(0.861367 -0.164601 1.21846e-21)
(0.875948 -0.133548 -9.75905e-22)
(0.893215 -0.10707 6.23302e-23)
(0.910838 -0.0924359 -4.31798e-23)
(0.926195 -0.0764315 -6.08778e-22)
(0.93911 -0.0718107 5.84531e-22)
(0.948642 -0.060876 4.00242e-22)
(0.956888 -0.0597864 -4.22995e-22)
(0.962235 -0.0493898 0)
(0.966164 -0.0501184 2.80403e-23)
(0.967435 -0.0422416 4.45955e-23)
(0.96835 -0.0445329 -9.75565e-23)
(0.968898 -0.0359492 7.37295e-23)
(0.970125 -0.0364402 9.50443e-23)
(0.972294 -0.0245014 -2.57715e-23)
(0.974446 -0.0239372 -4.5231e-23)
(0.977615 -0.0103789 1.43841e-23)
(0.979571 -0.00985096 1.59698e-23)
(0.982559 0.00391275 -2.38282e-23)
(0.983592 0.00407414 6.00705e-24)
(0.986435 0.0187656 -1.14427e-24)
(0.367116 0.120494 3.91647e-22)
(0.404774 0.0918744 5.29861e-20)
(0.448769 0.0600185 -1.03705e-19)
(0.496535 0.0195052 4.99351e-20)
(0.551978 -0.0311323 7.50824e-22)
(0.613299 -0.0898019 -7.25194e-22)
(0.681676 -0.156908 0)
(0.756597 -0.232134 0)
(0.833797 -0.311233 0)
(0.914763 -0.39192 -2.27312e-20)
(0.981728 -0.460383 2.14531e-20)
(1.00214 -0.481542 4.1048e-22)
(0.97374 -0.450881 -4.47116e-22)
(0.92462 -0.390979 7.57391e-23)
(0.882607 -0.325681 3.73072e-23)
(0.858271 -0.265334 0)
(0.851139 -0.216122 -1.78001e-21)
(0.85542 -0.173371 1.63094e-21)
(0.86773 -0.143243 -1.271e-22)
(0.883282 -0.116479 0)
(0.900066 -0.100768 9.68057e-23)
(0.91548 -0.0832206 0)
(0.929431 -0.0771075 6.61641e-23)
(0.940651 -0.0650388 -4.94258e-23)
(0.950692 -0.0630704 4.34085e-23)
(0.95862 -0.0518196 0)
(0.965247 -0.0516776 0)
(0.969519 -0.0431363 -2.1163e-22)
(0.972351 -0.0450465 2.57453e-22)
(0.973991 -0.0363412 -1.94871e-23)
(0.975011 -0.0368885 -1.0425e-22)
(0.976498 -0.0250139 -7.01829e-23)
(0.977628 -0.0245229 1.24919e-22)
(0.980026 -0.0109475 -2.88543e-23)
(0.981348 -0.0103735 -2.00269e-23)
(0.984074 0.00348725 0)
(0.984901 0.00370449 -7.13706e-24)
(0.987742 0.0184887 0)
(0.61314 0.0905389 -4.06772e-22)
(0.65068 0.0618024 0)
(0.695308 0.0283847 8.19322e-22)
(0.742317 -0.012996 -8.05494e-22)
(0.795876 -0.0648348 -1.51845e-21)
(0.85392 -0.124685 7.02482e-22)
(0.917618 -0.193054 4.09506e-20)
(0.982996 -0.267551 -7.6068e-20)
(1.04489 -0.343372 3.42109e-20)
(1.09612 -0.414492 0)
(1.1118 -0.460582 1.24584e-21)
(1.07715 -0.46247 -4.24122e-22)
(1.00868 -0.424728 -6.65562e-21)
(0.940788 -0.370696 6.75118e-21)
(0.895314 -0.317073 -3.97929e-23)
(0.872168 -0.26689 -4.37458e-22)
(0.866226 -0.22432 -7.58944e-22)
(0.869503 -0.184511 2.66409e-21)
(0.879647 -0.154135 -1.45541e-21)
(0.892265 -0.126314 1.56933e-21)
(0.906768 -0.109402 -2.29527e-23)
(0.919892 -0.0903696 -1.29916e-22)
(0.932727 -0.0827919 -1.06428e-21)
(0.942868 -0.0695299 2.05918e-22)
(0.952234 -0.0667103 0)
(0.959763 -0.0547355 0)
(0.966656 -0.053839 0)
(0.971819 -0.0446101 0)
(0.975417 -0.0459889 1.73177e-22)
(0.977689 -0.0369519 -1.29914e-22)
(0.978671 -0.0373763 -1.37699e-22)
(0.979891 -0.0254581 8.51262e-23)
(0.980401 -0.0250065 -8.66546e-23)
(0.982305 -0.0114313 5.30966e-23)
(0.983116 -0.0108445 1.79973e-23)
(0.985623 0.00308519 7.46227e-24)
(0.986241 0.00334207 4.82419e-24)
(0.989067 0.0182089 0)
(0.880503 0.0630207 0)
(0.906787 0.0352895 1.02787e-19)
(0.944354 0.00493814 -9.75275e-20)
(0.984836 -0.035825 -1.00096e-19)
(1.02985 -0.0871112 9.61036e-20)
(1.07851 -0.14535 -5.10851e-23)
(1.12867 -0.210488 6.80932e-22)
(1.17292 -0.279554 0)
(1.20426 -0.346242 -6.02668e-20)
(1.21007 -0.401254 5.78803e-20)
(1.16974 -0.426572 -6.49282e-22)
(1.0955 -0.418932 2.54303e-20)
(1.01917 -0.390851 -4.1521e-20)
(0.959994 -0.353501 6.29275e-21)
(0.923931 -0.313744 9.12059e-21)
(0.90487 -0.272076 1.87855e-23)
(0.898033 -0.2335 -4.0737e-23)
(0.898001 -0.195245 0)
(0.903648 -0.164319 0)
(0.911569 -0.135137 -1.69453e-23)
(0.922173 -0.116985 -1.09828e-23)
(0.932175 -0.0968374 6.60573e-23)
(0.942688 -0.0881008 -5.75318e-23)
(0.950942 -0.0737682 -5.44414e-23)
(0.95867 -0.0701396 6.23632e-22)
(0.964843 -0.0575421 -5.9322e-22)
(0.970784 -0.0560192 -5.5408e-23)
(0.9756 -0.0461776 0)
(0.978949 -0.0470301 3.69459e-23)
(0.981206 -0.0376196 0)
(0.981897 -0.0378644 1.39827e-22)
(0.982891 -0.0258599 -1.0602e-22)
(0.982928 -0.02542 0)
(0.984498 -0.0118511 -1.93929e-23)
(0.984884 -0.0112659 3.9121e-23)
(0.987212 0.0027043 -1.48221e-23)
(0.98762 0.00299142 0)
(0.990419 0.0179262 2.37142e-24)
(1.14258 0.0521886 -1.82135e-22)
(1.15684 0.0254323 0)
(1.18006 -0.00687351 -9.97051e-20)
(1.20379 -0.0485704 9.48506e-20)
(1.23072 -0.0977828 9.37796e-20)
(1.25773 -0.153723 -8.9958e-20)
(1.27981 -0.213327 0)
(1.28888 -0.272786 -7.20681e-20)
(1.27876 -0.325453 6.85545e-20)
(1.23762 -0.362401 0)
(1.16627 -0.376687 3.38793e-22)
(1.09223 -0.371178 7.62641e-22)
(1.03456 -0.36026 -1.91852e-22)
(0.991818 -0.339094 -1.24969e-20)
(0.960394 -0.309076 1.17567e-20)
(0.938129 -0.272952 2.66223e-21)
(0.92533 -0.237698 -2.5571e-21)
(0.919593 -0.201505 1.2849e-21)
(0.920088 -0.172267 -1.22093e-21)
(0.924023 -0.14322 -1.04791e-22)
(0.931406 -0.123861 -1.14611e-21)
(0.939489 -0.102222 1.98222e-21)
(0.948575 -0.0923343 -9.48395e-22)
(0.956125 -0.0771408 6.91591e-22)
(0.963076 -0.0729139 -1.24884e-22)
(0.968768 -0.0599296 -5.88354e-22)
(0.974122 -0.0579514 -3.63183e-22)
(0.97875 -0.0476463 4.21474e-22)
(0.981816 -0.0480295 -3.78017e-23)
(0.984073 -0.0382864 3.05415e-23)
(0.984526 -0.0383399 1.17176e-22)
(0.985446 -0.0262549 2.64726e-23)
(0.985163 -0.0258037 -5.40718e-23)
(0.98656 -0.0122484 -1.23974e-23)
(0.986615 -0.0116485 0)
(0.988822 0.00233605 4.23783e-24)
(0.989033 0.00265573 -1.25259e-23)
(0.991803 0.0176417 2.47757e-24)
(1.27568 0.0564651 9.54945e-20)
(1.28151 0.0364338 0)
(1.29206 0.0115936 9.45641e-20)
(1.30265 -0.0219701 -1.82739e-19)
(1.31015 -0.0655735 8.78975e-20)
(1.31543 -0.115448 0)
(1.31359 -0.168333 0)
(1.29896 -0.221624 0)
(1.26709 -0.269454 0)
(1.21676 -0.307021 0)
(1.15916 -0.332282 -3.62072e-22)
(1.10734 -0.346475 -3.30488e-20)
(1.06441 -0.349956 3.13175e-20)
(1.02663 -0.33878 1.38903e-22)
(0.992206 -0.316525 0)
(0.96347 -0.285211 0)
(0.944126 -0.252301 3.39267e-23)
(0.933096 -0.216646 0)
(0.929546 -0.186452 1.19957e-21)
(0.930821 -0.155334 -1.10757e-21)
(0.936134 -0.133874 9.17413e-22)
(0.942671 -0.110205 1.78712e-23)
(0.950576 -0.0984717 -8.12993e-22)
(0.957785 -0.081695 0)
(0.964496 -0.0763411 6.56052e-22)
(0.970287 -0.0626012 -1.09504e-21)
(0.975523 -0.059976 4.85948e-22)
(0.98031 -0.0491032 -2.35106e-23)
(0.983359 -0.0489915 0)
(0.98586 -0.0389013 -3.12817e-23)
(0.9863 -0.0387699 -2.53913e-23)
(0.987379 -0.0266007 -9.57851e-23)
(0.986969 -0.0261285 5.50063e-23)
(0.988376 -0.0126001 1.25284e-23)
(0.988224 -0.0120006 0)
(0.990394 0.00198166 -6.53415e-24)
(0.990448 0.00234481 0)
(0.993211 0.0173709 -2.40978e-24)
(1.24832 0.0568118 0)
(1.26505 0.0332261 0)
(1.27424 0.00892452 0)
(1.27851 -0.0223293 0)
(1.28053 -0.0577621 0)
(1.27979 -0.0967926 0)
(1.27305 -0.137827 0)
(1.25769 -0.178568 0)
(1.23276 -0.215557 0)
(1.20051 -0.247112 0)
(1.16485 -0.271764 0)
(1.12815 -0.28692 0)
(1.09045 -0.291977 0)
(1.05236 -0.287624 0)
(1.01705 -0.275806 0)
(0.986555 -0.255022 0)
(0.963969 -0.231911 0)
(0.949227 -0.204388 0)
(0.941943 -0.180364 0)
(0.939652 -0.153931 0)
(0.942013 -0.136004 0)
(0.946534 -0.114337 0)
(0.953083 -0.103115 0)
(0.959541 -0.0862021 0)
(0.965765 -0.0803597 0)
(0.971373 -0.0661579 0)
(0.976381 -0.0629311 0)
(0.98118 -0.0514828 0)
(0.984195 -0.0507425 0)
(0.986922 -0.0401838 0)
(0.987428 -0.0396734 0)
(0.988741 -0.0273091 0)
(0.988327 -0.0266778 0)
(0.989842 -0.0130959 0)
(0.989605 -0.0123935 0)
(0.991811 0.00158448 0)
(0.99178 0.00200925 0)
(0.994554 0.0170619 0)
(1.22446 0.0547546 0)
(1.24264 0.0278182 0)
(1.25124 9.51349e-05 0)
(1.25456 -0.029761 0)
(1.25521 -0.0620366 0)
(1.25325 -0.0976159 0)
(1.24714 -0.135802 0)
(1.23514 -0.17464 0)
(1.21624 -0.211757 0)
(1.19055 -0.244742 0)
(1.15938 -0.271151 0)
(1.12351 -0.288047 0)
(1.08527 -0.295538 0)
(1.04797 -0.291717 0)
(1.01462 -0.279358 0)
(0.9866 -0.258071 0)
(0.966514 -0.234295 0)
(0.953824 -0.206567 0)
(0.947841 -0.182747 0)
(0.946068 -0.156578 0)
(0.94834 -0.138253 0)
(0.952243 -0.116178 0)
(0.957903 -0.104571 0)
(0.963478 -0.0873757 0)
(0.968933 -0.0812763 0)
(0.973958 -0.0669246 0)
(0.978387 -0.0636351 0)
(0.982808 -0.052033 0)
(0.985473 -0.0510987 0)
(0.988153 -0.040304 0)
(0.988567 -0.0396706 0)
(0.990017 -0.0272413 0)
(0.989566 -0.026671 0)
(0.991201 -0.0131153 0)
(0.990889 -0.0124951 0)
(0.993153 0.00144362 0)
(0.993056 0.00179649 0)
(0.995871 0.0168227 0)
(1.20562 0.0458817 0)
(1.22381 0.0205067 0)
(1.2325 -0.00560505 0)
(1.2347 -0.0331726 0)
(1.23389 -0.0628458 0)
(1.23084 -0.0946592 0)
(1.22494 -0.128027 0)
(1.21484 -0.161234 0)
(1.19911 -0.192609 0)
(1.17748 -0.219365 0)
(1.15049 -0.240052 0)
(1.11948 -0.253098 0)
(1.0872 -0.258473 0)
(1.05575 -0.255444 0)
(1.02749 -0.247229 0)
(1.0032 -0.232289 0)
(0.984585 -0.215412 0)
(0.971376 -0.194084 0)
(0.963685 -0.17534 0)
(0.959682 -0.15278 0)
(0.959495 -0.136921 0)
(0.961219 -0.116532 0)
(0.964953 -0.105837 0)
(0.969074 -0.0889992 0)
(0.973332 -0.0829288 0)
(0.977544 -0.0684855 0)
(0.981218 -0.0650162 0)
(0.985119 -0.0531277 0)
(0.987285 -0.0518601 0)
(0.989773 -0.0407564 0)
(0.989985 -0.0399158 0)
(0.991487 -0.0273877 0)
(0.990938 -0.0268001 0)
(0.992652 -0.0132888 0)
(0.992251 -0.0127199 0)
(0.994573 0.00120253 0)
(0.994411 0.00154803 0)
(0.997275 0.0165542 0)
(1.18893 0.0388941 0)
(1.2054 0.0154532 0)
(1.21352 -0.009596 0)
(1.21505 -0.035625 0)
(1.21339 -0.0629665 0)
(1.20992 -0.0914391 0)
(1.2044 -0.120716 0)
(1.19563 -0.149917 0)
(1.18253 -0.177928 0)
(1.16444 -0.202698 0)
(1.14161 -0.223451 0)
(1.11527 -0.238227 0)
(1.08751 -0.247146 0)
(1.06 -0.248479 0)
(1.03478 -0.244055 0)
(1.01245 -0.231928 0)
(0.99444 -0.216799 0)
(0.981029 -0.196272 0)
(0.972637 -0.177872 0)
(0.967806 -0.155536 0)
(0.966571 -0.13971 0)
(0.967369 -0.119247 0)
(0.970122 -0.108297 0)
(0.973501 -0.0911201 0)
(0.977037 -0.0846945 0)
(0.980781 -0.0699798 0)
(0.98392 -0.0662707 0)
(0.987461 -0.0541061 0)
(0.989219 -0.052537 0)
(0.991572 -0.0411589 0)
(0.991603 -0.0401453 0)
(0.993164 -0.0275358 0)
(0.992509 -0.0269475 0)
(0.994288 -0.0134589 0)
(0.993774 -0.0129146 0)
(0.996131 0.000965118 0)
(0.995885 0.00128923 0)
(0.99879 0.0162477 0)
(1.17252 0.0310401 0)
(1.18707 0.00938058 0)
(1.19465 -0.013945 0)
(1.19613 -0.0380615 0)
(1.19442 -0.0629202 0)
(1.19103 -0.0883043 0)
(1.18587 -0.114243 0)
(1.17823 -0.139988 0)
(1.16724 -0.164811 0)
(1.15228 -0.18711 0)
(1.13349 -0.205845 0)
(1.11164 -0.219038 0)
(1.08838 -0.226769 0)
(1.06491 -0.227459 0)
(1.04279 -0.223329 0)
(1.02257 -0.212915 0)
(1.00565 -0.200655 0)
(0.992412 -0.183507 0)
(0.983518 -0.168598 0)
(0.977817 -0.149365 0)
(0.975387 -0.135995 0)
(0.974954 -0.117348 0)
(0.976446 -0.107661 0)
(0.978819 -0.0912357 0)
(0.981434 -0.0852431 0)
(0.984557 -0.0707369 0)
(0.987056 -0.0670853 0)
(0.990165 -0.0548142 0)
(0.991463 -0.0530616 0)
(0.993647 -0.0414825 0)
(0.993469 -0.0403335 0)
(0.995079 -0.0276586 0)
(0.994298 -0.0270727 0)
(0.996133 -0.0136305 0)
(0.995482 -0.0131202 0)
(0.997859 0.000696878 0)
(0.997514 0.0010068 0)
(1.00044 0.0159022 0)
(1.15748 0.0232768 0)
(1.17047 0.00369814 0)
(1.17738 -0.017509 0)
(1.17879 -0.0395169 0)
(1.17715 -0.0620387 0)
(1.1739 -0.0848828 0)
(1.16919 -0.108011 0)
(1.16259 -0.13075 0)
(1.15344 -0.152664 0)
(1.14125 -0.172387 0)
(1.12595 -0.189259 0)
(1.10793 -0.201546 0)
(1.08836 -0.209654 0)
(1.06803 -0.212147 0)
(1.04843 -0.211013 0)
(1.03025 -0.204048 0)
(1.01476 -0.195218 0)
(1.00225 -0.180814 0)
(0.993357 -0.168001 0)
(0.987251 -0.150177 0)
(0.983986 -0.137711 0)
(0.982603 -0.119505 0)
(0.983004 -0.10998 0)
(0.984471 -0.0934329 0)
(0.986173 -0.0872131 0)
(0.988656 -0.0724299 0)
(0.990476 -0.0684783 0)
(0.993149 -0.0558599 0)
(0.993976 -0.0537664 0)
(0.995996 -0.0419126 0)
(0.995585 -0.040589 0)
(0.997231 -0.0278312 0)
(0.996296 -0.0272142 0)
(0.998182 -0.0138131 0)
(0.99738 -0.013329 0)
(0.999766 0.00040252 0)
(0.99931 0.000706628 0)
(1.00225 0.0155183 0)
(1.14435 0.0164024 0)
(1.15552 -0.00141777 0)
(1.16153 -0.0207231 0)
(1.16286 -0.0407417 0)
(1.16139 -0.0611711 0)
(1.15844 -0.081739 0)
(1.15429 -0.102367 0)
(1.14868 -0.122486 0)
(1.14112 -0.14183 0)
(1.13118 -0.159328 0)
(1.11877 -0.174605 0)
(1.10398 -0.186106 0)
(1.08763 -0.19433 0)
(1.07039 -0.197554 0)
(1.05357 -0.197519 0)
(1.03773 -0.191785 0)
(1.02388 -0.184518 0)
(1.0122 -0.171859 0)
(1.00334 -0.160926 0)
(0.996845 -0.144927 0)
(0.992787 -0.134128 0)
(0.990492 -0.117242 0)
(0.989832 -0.10874 0)
(0.990428 -0.0928592 0)
(0.99122 -0.0871084 0)
(0.99306 -0.072627 0)
(0.994181 -0.0688329 0)
(0.996413 -0.0562221 0)
(0.996743 -0.0540359 0)
(0.998598 -0.0420816 0)
(0.997928 -0.0406932 0)
(0.999609 -0.027937 0)
(0.998495 -0.0273381 0)
(1.00042 -0.0140049 0)
(0.999447 -0.0135073 0)
(1.00184 0.000161149 0)
(1.00128 0.000434634 0)
(1.00422 0.0151079 0)
(1.13248 0.0101346 0)
(1.14203 -0.0061507 0)
(1.14732 -0.023652 0)
(1.14856 -0.0417663 0)
(1.14728 -0.0602279 0)
(1.14467 -0.078709 0)
(1.14107 -0.0971573 0)
(1.13635 -0.115028 0)
(1.13014 -0.132208 0)
(1.12208 -0.147763 0)
(1.11206 -0.161556 0)
(1.10004 -0.17217 0)
(1.08661 -0.180169 0)
(1.07224 -0.183699 0)
(1.058 -0.184658 0)
(1.04423 -0.180413 0)
(1.03181 -0.175217 0)
(1.02099 -0.164769 0)
(1.01233 -0.156051 0)
(1.00573 -0.141894 0)
(1.00118 -0.13269 0)
(0.998251 -0.116884 0)
(0.996724 -0.109164 0)
(0.996585 -0.0936623 0)
(0.996531 -0.088119 0)
(0.997775 -0.0736758 0)
(0.998207 -0.0697941 0)
(1.00003 -0.0570041 0)
(0.999863 -0.054581 0)
(1.00155 -0.0424372 0)
(1.00056 -0.0408805 0)
(1.00223 -0.0280611 0)
(1.0009 -0.027407 0)
(1.00287 -0.014176 0)
(1.00172 -0.0137334 0)
(1.00411 -0.000275427 0)
(1.00339 -1.47131e-05 0)
(1.00635 0.0146191 0)
(1.12214 0.00457926 0)
(1.13025 -0.0102407 0)
(1.13483 -0.0261195 0)
(1.13595 -0.0425313 0)
(1.13485 -0.0592303 0)
(1.1326 -0.0758805 0)
(1.12953 -0.0924451 0)
(1.1256 -0.108397 0)
(1.12054 -0.123725 0)
(1.11405 -0.137576 0)
(1.10603 -0.150011 0)
(1.09636 -0.159688 0)
(1.08549 -0.167331 0)
(1.07364 -0.171029 0)
(1.06167 -0.1728 0)
(1.04985 -0.169762 0)
(1.0389 -0.166149 0)
(1.02913 -0.157317 0)
(1.02093 -0.150245 0)
(1.01442 -0.137496 0)
(1.00957 -0.129636 0)
(1.00617 -0.114854 0)
(1.00389 -0.107988 0)
(1.0031 -0.0930208 0)
(1.00221 -0.0878699 0)
(1.00287 -0.0736732 0)
(1.00259 -0.0699074 0)
(1.00399 -0.0571383 0)
(1.00327 -0.0546531 0)
(1.00479 -0.042506 0)
(1.00347 -0.040946 0)
(1.00513 -0.028178 0)
(1.00352 -0.0275137 0)
(1.00547 -0.0143414 0)
(1.00409 -0.0137957 0)
(1.00651 -0.000375904 0)
(1.00574 -7.1359e-05 0)
(1.0087 0.0142031 0)
(1.11352 -0.000277476 0)
(1.12026 -0.0138253 0)
(1.12415 -0.0282777 0)
(1.12515 -0.0431819 0)
(1.12421 -0.0583201 0)
(1.12228 -0.0733631 0)
(1.11968 -0.0882902 0)
(1.11645 -0.102589 0)
(1.11235 -0.116329 0)
(1.10717 -0.128698 0)
(1.1008 -0.139915 0)
(1.09309 -0.148674 0)
(1.08438 -0.155904 0)
(1.07472 -0.15961 0)
(1.06478 -0.161929 0)
(1.05479 -0.159736 0)
(1.04528 -0.157358 0)
(1.03662 -0.149842 0)
(1.029 -0.144276 0)
(1.02274 -0.132849 0)
(1.01773 -0.126341 0)
(1.01403 -0.112597 0)
(1.01112 -0.106666 0)
(1.00981 -0.0923094 0)
(1.00816 -0.0876124 0)
(1.00829 -0.0737121 0)
(1.0073 -0.0700596 0)
(1.00832 -0.0573211 0)
(1.00703 -0.0547125 0)
(1.00835 -0.0425074 0)
(1.00662 -0.0408411 0)
(1.00826 -0.0281528 0)
(1.00638 -0.0274991 0)
(1.00842 -0.0145688 0)
(1.00684 -0.0141297 0)
(1.0092 -0.00107312 0)
(1.00815 -0.00082458 0)
(1.01108 0.0134512 0)
(1.1065 -0.00419679 0)
(1.11208 -0.0166522 0)
(1.11535 -0.0298758 0)
(1.11622 -0.043479 0)
(1.11543 -0.0572794 0)
(1.11378 -0.0709514 0)
(1.11159 -0.0844933 0)
(1.10894 -0.0973982 0)
(1.10565 -0.109805 0)
(1.10154 -0.120907 0)
(1.09653 -0.131068 0)
(1.09043 -0.138983 0)
(1.08352 -0.145776 0)
(1.07571 -0.14935 0)
(1.06756 -0.151988 0)
(1.05924 -0.150355 0)
(1.05109 -0.148937 0)
(1.04355 -0.14245 0)
(1.03658 -0.138174 0)
(1.03069 -0.127851 0)
(1.02567 -0.122554 0)
(1.02183 -0.109728 0)
(1.01843 -0.104703 0)
(1.01673 -0.0909508 0)
(1.01436 -0.0867619 0)
(1.01405 -0.0732229 0)
(1.01238 -0.0697903 0)
(1.01305 -0.057189 0)
(1.01115 -0.0545727 0)
(1.01231 -0.0424295 0)
(1.01014 -0.0407186 0)
(1.0117 -0.0280321 0)
(1.0094 -0.0272719 0)
(1.01133 -0.0144077 0)
(1.00944 -0.0138193 0)
(1.0119 -0.000806442 0)
(1.01094 -0.000456915 0)
(1.01393 0.0132865 0)
(1.10136 -0.00770859 0)
(1.10588 -0.0192349 0)
(1.10856 -0.0314151 0)
(1.10927 -0.043905 0)
(1.10857 -0.0565639 0)
(1.10716 -0.0690622 0)
(1.1053 -0.0814266 0)
(1.10312 -0.0931417 0)
(1.10047 -0.104414 0)
(1.09722 -0.114422 0)
(1.0933 -0.123657 0)
(1.08851 -0.130785 0)
(1.08307 -0.137112 0)
(1.07685 -0.140433 0)
(1.07025 -0.143216 0)
(1.06342 -0.141917 0)
(1.0565 -0.141219 0)
(1.05005 -0.135507 0)
(1.04378 -0.132312 0)
(1.03837 -0.122902 0)
(1.03343 -0.118669 0)
(1.02958 -0.10665 0)
(1.02577 -0.102442 0)
(1.02381 -0.0892618 0)
(1.02078 -0.0855158 0)
(1.02008 -0.0723267 0)
(1.01772 -0.0690868 0)
(1.01809 -0.0567137 0)
(1.01558 -0.0541261 0)
(1.01656 -0.0421602 0)
(1.01391 -0.040546 0)
(1.01545 -0.0281853 0)
(1.01286 -0.0275769 0)
(1.0149 -0.0150618 0)
(1.01282 -0.0145875 0)
(1.01509 -0.00203593 0)
(1.01361 -0.00184491 0)
(1.01645 0.0118486 0)
(1.09785 -0.00971674 0)
(1.1015 -0.0204765 0)
(1.10369 -0.0318045 0)
(1.10427 -0.0433886 0)
(1.10367 -0.055126 0)
(1.10246 -0.066678 0)
(1.10088 -0.0781049 0)
(1.09907 -0.0888658 0)
(1.09694 -0.0992388 0)
(1.09436 -0.108359 0)
(1.0913 -0.116842 0)
(1.08755 -0.12329 0)
(1.08329 -0.129192 0)
(1.07837 -0.132204 0)
(1.07303 -0.135038 0)
(1.06748 -0.133866 0)
(1.06164 -0.13368 0)
(1.05619 -0.128444 0)
(1.05061 -0.126116 0)
(1.04577 -0.117375 0)
(1.04101 -0.114113 0)
(1.03733 -0.102774 0)
(1.03322 -0.0994049 0)
(1.03117 -0.0867822 0)
(1.02755 -0.0835739 0)
(1.02653 -0.0707652 0)
(1.02349 -0.0677633 0)
(1.02358 -0.055586 0)
(1.02035 -0.0529811 0)
(1.02116 -0.0411001 0)
(1.01792 -0.0393656 0)
(1.01935 -0.0270034 0)
(1.01618 -0.0262047 0)
(1.01808 -0.0139033 0)
(1.01554 -0.0132831 0)
(1.01806 -0.000993631 0)
(1.01689 -0.000596621 0)
(1.01997 0.0124449 0)
(1.0967 -0.0124522 0)
(1.0995 -0.0225367 0)
(1.10116 -0.0331222 0)
(1.10153 -0.0439195 0)
(1.10093 -0.054861 0)
(1.09982 -0.0655967 0)
(1.09841 -0.0762185 0)
(1.09686 -0.0861591 0)
(1.0951 -0.0957598 0)
(1.09303 -0.104106 0)
(1.09062 -0.111929 0)
(1.08768 -0.117749 0)
(1.08436 -0.123233 0)
(1.0805 -0.125893 0)
(1.07624 -0.128685 0)
(1.07182 -0.127505 0)
(1.06693 -0.127664 0)
(1.0624 -0.122712 0)
(1.05741 -0.121019 0)
(1.05311 -0.112739 0)
(1.04848 -0.110213 0)
(1.04498 -0.099403 0)
(1.04056 -0.0966893 0)
(1.03848 -0.0846076 0)
(1.03432 -0.0819065 0)
(1.03312 -0.0696078 0)
(1.02941 -0.0669291 0)
(1.02936 -0.0552569 0)
(1.02553 -0.0528641 0)
(1.02619 -0.0414063 0)
(1.02246 -0.0399435 0)
(1.02385 -0.0280721 0)
(1.02037 -0.0275466 0)
(1.02233 -0.0156225 0)
(1.01963 -0.0151268 0)
(1.02177 -0.0032353 0)
(1.01981 -0.0030689 0)
(1.02245 0.00970425 0)
(1.09691 -0.0116625 0)
(1.0991 -0.0212401 0)
(1.1004 -0.0312801 0)
(1.10067 -0.0415045 0)
(1.10012 -0.0518828 0)
(1.09915 -0.0620433 0)
(1.09791 -0.0721186 0)
(1.09657 -0.0814924 0)
(1.09508 -0.090581 0)
(1.09338 -0.0983802 0)
(1.09145 -0.105762 0)
(1.08911 -0.111093 0)
(1.08647 -0.116278 0)