/*--------------------------------*- C++ -*----------------------------------*\
| =========                 |                                                 |
| \\      /  F ield         | OpenFOAM: The Open Source CFD Toolbox           |
|  \\    /   O peration     | Version:  2312                                  |
|   \\  /    A nd           | Website:  www.openfoam.com                      |
|    \\/     M anipulation  |                                                 |
\*---------------------------------------------------------------------------*/
FoamFile
{
    version     2.0;
    format      ascii;
    arch        "LSB;label=32;scalar=64";
    class       volVectorField;
    location    "160.1";
    object      U;
}
// * * * * * * * * * * * * * * * * * * * * * * * * * * * * * * * * * * * * * //

dimensions      [0 1 -1 0 0 0 0];

internalField   nonuniform List<vector> 
5478
(
(-0.0268835 0.0193114 -8.81675e-20)
(-0.0384306 0.0213557 0)
(-0.0153605 0.00865096 1.36526e-19)
(0.0580388 -0.0070133 -2.3976e-19)
(0.191734 -0.0209148 1.56642e-19)
(0.377419 -0.028374 -4.81544e-20)
(0.587043 -0.0274192 -7.80452e-20)
(0.789719 -0.0190924 0)
(0.961604 -0.0047101 0)
(1.0896 0.010345 7.60467e-20)
(1.17794 0.0255078 -3.95131e-20)
(1.21588 0.0389564 -5.31377e-20)
(1.23391 0.0413806 -1.94309e-20)
(1.22323 0.0524286 0)
(1.19414 0.0372166 4.48364e-20)
(-0.0293277 0.0201891 1.76897e-19)
(-0.0241839 0.0233365 0)
(0.0440111 0.0121391 0)
(0.190012 0.000795838 -1.19196e-19)
(0.407599 -0.00143929 1.5736e-19)
(0.65525 0.00700168 4.47215e-20)
(0.883957 0.0218472 -7.16927e-20)
(1.06151 0.0380798 6.35677e-20)
(1.1755 0.0508973 1.42015e-19)
(1.23349 0.058685 -1.21928e-19)
(1.24294 0.0622279 6.67193e-22)
(1.23069 0.0593559 0)
(1.20789 0.0576754 1.93968e-20)
(1.18219 0.0534522 0)
(1.18011 0.0455581 0)
(-0.0268801 0.0155072 -3.88469e-22)
(0.0089712 0.0130785 -8.12509e-20)
(0.145312 0.00551404 7.76616e-23)
(0.384405 0.010109 0)
(0.670353 0.0301059 -5.12077e-20)
(0.927246 0.0558039 4.29115e-20)
(1.11085 0.0773701 3.53829e-20)
(1.21267 0.0894578 0)
(1.24962 0.0922033 -4.83021e-20)
(1.24439 0.0889636 3.86097e-20)
(1.22638 0.0822593 3.06863e-20)
(1.20848 0.0780353 0)
(1.19699 0.0726546 0)
(1.19621 0.0717568 -5.73261e-20)
(1.19317 0.0648496 5.10435e-20)
(-0.0179158 0.00866307 -9.40174e-20)
(0.0724962 -0.000921667 8.04221e-20)
(0.306878 0.00629033 -6.96597e-20)
(0.629835 0.0394659 6.03091e-20)
(0.923866 0.0799469 1.01726e-19)
(1.12326 0.110242 -8.46349e-20)
(1.22381 0.124273 -3.53598e-20)
(1.25455 0.12493 2.62662e-20)
(1.24952 0.118819 -2.56305e-20)
(1.23672 0.110675 0)
(1.22469 0.105133 0)
(1.21435 0.0982634 -4.4073e-20)
(1.205 0.0943697 5.62729e-20)
(1.18892 0.0869796 -3.1296e-20)
(1.17265 0.078948 0)
(0.00154338 0.00118442 4.74385e-20)
(0.17902 -0.00828573 4.00035e-20)
(0.522316 0.0318897 -1.42682e-19)
(0.86944 0.0914575 1.47395e-21)
(1.10453 0.135635 -2.07225e-21)
(1.22032 0.155821 -1.10583e-21)
(1.25735 0.158188 3.27451e-20)
(1.25763 0.152145 2.758e-20)
(1.24719 0.143662 1.90998e-20)
(1.23292 0.135834 -3.67213e-21)
(1.21671 0.126803 -4.2925e-20)
(1.20014 0.118967 0)
(1.18329 0.110746 1.80977e-20)
(1.17245 0.102261 -1.29717e-20)
(1.16777 0.0970888 2.37251e-20)
(0.0375788 -0.00540035 -1.00359e-19)
(0.333216 0.00426569 1.08716e-19)
(0.745483 0.0839859 -3.70267e-20)
(1.04895 0.151813 2.81989e-20)
(1.20372 0.185166 -5.16807e-20)
(1.25826 0.19312 -3.81655e-20)
(1.26455 0.188612 1.02724e-21)
(1.25299 0.179403 0)
(1.23516 0.168968 3.91177e-20)
(1.21691 0.157643 -3.47862e-20)
(1.20116 0.14767 1.35136e-20)
(1.18844 0.137825 0)
(1.17965 0.129515 7.99754e-21)
(1.17003 0.120221 -1.36639e-20)
(1.15606 0.114231 0)
(0.0953316 -0.00617601 -1.24659e-20)
(0.515993 0.0470061 9.51416e-22)
(0.928562 0.15074 1.82747e-20)
(1.16096 0.211127 3.04069e-20)
(1.25097 0.230766 -2.30425e-20)
(1.26752 0.229008 3.86509e-20)
(1.25568 0.218757 -8.8067e-21)
(1.23646 0.20599 0)
(1.21839 0.192811 -2.2883e-20)
(1.20284 0.180751 1.73581e-21)
(1.18875 0.168858 1.87024e-20)
(1.17549 0.15791 0)
(1.16157 0.147119 -1.16415e-20)
(1.14935 0.136621 0)
(1.14158 0.1302 6.81611e-21)
(0.174212 0.00595388 -1.35848e-20)
(0.688727 0.115806 0)
(1.0584 0.223566 1.88333e-20)
(1.22187 0.269367 0)
(1.26401 0.274993 0)
(1.25701 0.264148 0)
(1.23736 0.248904 -7.39657e-21)
(1.21765 0.233133 0)
(1.19946 0.217964 4.61972e-21)
(1.18264 0.203008 0)
(1.16783 0.189091 -5.79349e-21)
(1.15561 0.175845 0)
(1.14693 0.163701 3.63979e-21)
(1.13905 0.15263 0)
(1.12811 0.144842 2.27927e-21)
(0.00680491 -0.194441 -1.27406e-20)
(-0.00776711 -0.33989 0)
(-0.0497828 -0.373376 1.9962e-20)
(-0.0956745 -0.372932 0)
(-0.139879 -0.367337 0)
(-0.179821 -0.356422 0)
(-0.213015 -0.333454 -1.33723e-20)
(-0.237523 -0.293544 0)
(-0.252165 -0.234035 1.11954e-20)
(-0.256565 -0.154177 0)
(-0.251136 -0.0550313 -1.81409e-20)
(-0.236176 0.06144 0)
(-0.208834 0.18982 1.37022e-20)
(-0.17507 0.321273 0)
(-0.124006 0.451225 9.44317e-21)
(0.0159596 -0.170964 6.2077e-20)
(0.00039413 -0.291014 -4.32086e-20)
(-0.0499599 -0.314302 1.76054e-20)
(-0.105167 -0.310763 6.78855e-20)
(-0.159297 -0.306494 5.67518e-22)
(-0.210963 -0.300875 -5.56268e-20)
(-0.258272 -0.287106 3.8248e-20)
(-0.299097 -0.260135 0)
(-0.331265 -0.216874 2.98886e-20)
(-0.352879 -0.155885 -2.18596e-22)
(-0.362096 -0.0775889 -1.41983e-20)
(-0.357836 0.0159996 0)
(-0.340335 0.12185 -3.32356e-20)
(-0.30663 0.236253 0)
(-0.251899 0.347064 -3.87642e-20)
(0.021673 -0.138562 9.30805e-20)
(0.00705524 -0.233692 2.04719e-20)
(-0.0446977 -0.250075 -3.74853e-20)
(-0.10007 -0.2444 -9.77948e-20)
(-0.152385 -0.240245 5.69849e-20)
(-0.200757 -0.237783 5.08541e-20)
(-0.243924 -0.230854 -8.82181e-20)
(-0.280213 -0.214644 0)
(-0.307473 -0.18612 -6.76702e-20)
(-0.323776 -0.143726 6.01691e-20)
(-0.327897 -0.0870696 2.21327e-20)
(-0.31702 -0.0192292 0)
(-0.282825 0.049755 1.9529e-20)
(-0.254969 0.139283 -2.05769e-20)
(-0.161983 0.207895 0)
(0.0225267 -0.103568 4.35496e-20)
(0.00860091 -0.176053 -1.19453e-19)
(-0.040682 -0.188604 1.38957e-19)
(-0.0907996 -0.182733 -1.21479e-19)
(-0.13422 -0.179072 -5.30053e-20)
(-0.170007 -0.179129 4.63605e-20)
(-0.197234 -0.177824 4.31458e-20)
(-0.214792 -0.170698 3.41486e-20)
(-0.221265 -0.15483 -8.59383e-20)
(-0.213703 -0.128678 4.52538e-21)
(-0.191048 -0.0916702 1.93566e-20)
(-0.172271 -0.0426835 0)
(-0.0818858 0.000684448 1.94444e-20)
(-0.0627064 0.0792759 4.87167e-20)
(0.0857645 0.0966856 -2.51518e-20)
(0.0176441 -0.0696331 -7.33051e-22)
(0.00203518 -0.122488 7.59349e-20)
(-0.0438891 -0.134646 -6.68918e-20)
(-0.0870005 -0.132112 6.02579e-20)
(-0.119206 -0.131538 1.04623e-19)
(-0.139012 -0.135426 -9.12278e-20)
(-0.145231 -0.139927 -3.84483e-20)
(-0.136584 -0.141054 -9.75562e-20)
(-0.112868 -0.136321 8.4755e-20)
(-0.0749178 -0.123844 0)
(-0.00725418 -0.0950039 0)
(0.0319219 -0.0663759 4.43461e-20)
(0.183869 -0.0458991 -8.95241e-20)
(0.183126 0.0273135 2.72604e-20)
(0.412949 0.0351602 0)
(0.00718883 -0.0382572 -4.07833e-22)
(-0.0123805 -0.0740768 -7.64694e-20)
(-0.0538177 -0.0881508 1.99702e-19)
(-0.0874835 -0.0918954 -5.85099e-20)
(-0.10442 -0.0970478 -5.16504e-20)
(-0.101054 -0.106362 4.48956e-20)
(-0.0750198 -0.116922 3.84657e-20)
(-0.0256456 -0.125079 6.08206e-20)
(0.0461808 -0.12783 -1.05328e-19)
(0.134369 -0.122999 4.03495e-20)
(0.244312 -0.102599 3.06841e-20)
(0.330723 -0.0827218 0)
(0.519522 -0.0592187 0)
(0.539047 -0.0163931 4.10986e-20)
(0.787476 0.00888446 -3.65694e-20)
(-0.00670513 -0.0107531 5.84757e-22)
(-0.0292384 -0.0310536 0)
(-0.0600359 -0.0466839 0)
(-0.0741459 -0.0566773 1.16927e-19)
(-0.060679 -0.0680671 -5.14527e-20)
(-0.0139964 -0.0823063 4.48123e-20)
(0.0673937 -0.0960946 7.3733e-20)
(0.178423 -0.105463 -6.53776e-20)
(0.311476 -0.107853 5.13628e-20)
(0.453403 -0.0986264 -4.03776e-20)
(0.593657 -0.0827536 4.26478e-22)
(0.73314 -0.0596818 0)
(0.871767 -0.0307066 1.79373e-20)
(0.95589 -0.00572445 0)
(1.11408 0.0263495 0)
(-0.019273 0.00939021 -8.50274e-20)
(-0.0395774 0.00269826 0)
(-0.0487664 -0.0121341 -1.35074e-19)
(-0.0275293 -0.0265454 2.37613e-19)
(0.036592 -0.0421923 -2.59713e-19)
(0.147869 -0.0570137 -4.20554e-20)
(0.298674 -0.0672088 7.82606e-20)
(0.471176 -0.0697801 0)
(0.648184 -0.0640176 0)
(0.80909 -0.0482432 -7.61447e-20)
(0.94875 -0.0319077 -2.23185e-20)
(1.06687 -0.00473115 5.24962e-20)
(1.13869 0.010834 -1.79659e-20)
(1.21008 0.0329885 0)
(1.23459 0.0442637 -4.32775e-20)
(-0.0422415 0.636925 0)
(0.0446294 0.829473 3.18945e-21)
(0.00682745 0.872786 -2.95559e-21)
(0.271539 0.486463 0)
(0.572251 -0.0346429 0)
(0.787266 -0.46624 -1.42525e-22)
(0.812421 -0.614174 0)
(0.854151 -0.565203 0)
(0.793502 -0.627538 5.26327e-23)
(0.637607 -0.566391 0)
(0.622896 -0.39311 0)
(0.815404 0.0135365 -8.43476e-23)
(0.891561 0.244678 0)
(0.922789 0.41919 -9.22981e-23)
(0.95126 0.629096 -7.54458e-23)
(0.940069 0.453204 0)
(0.9573 0.34298 -5.35483e-22)
(1.02069 -0.0497777 6.46961e-22)
(1.03166 -0.444435 0)
(1.07807 -0.460116 4.46995e-22)
(1.04827 -0.542651 -5.49808e-22)
(1.09275 -0.0421239 9.17096e-23)
(1.07502 0.419887 -2.17076e-22)
(1.07731 0.420265 2.07421e-22)
(1.14581 0.466168 -2.15489e-22)
(1.18048 -0.128 0)
(1.07333 -0.755698 -2.1605e-22)
(1.13815 -0.145137 2.06583e-22)
(1.08246 0.484876 -1.52758e-22)
(1.0373 0.187644 0)
(1.01615 -0.175715 -1.14367e-22)
(0.999857 -0.078666 0)
(0.995457 0.0511334 -3.87559e-23)
(0.9872 0.026514 -1.66463e-23)
(0.98708 -0.00664746 1.4693e-24)
(0.978314 -0.00140561 -9.49878e-24)
(0.981053 0.00503108 0)
(0.970943 0.00284873 3.03711e-24)
(-0.184774 0.540388 1.35007e-20)
(-0.0295628 0.763062 -9.13143e-23)
(0.0956191 0.748381 -1.26167e-20)
(0.465437 0.307763 1.20307e-20)
(0.7548 -0.177929 0)
(0.927386 -0.528565 1.43623e-22)
(0.912152 -0.642466 -1.97326e-22)
(0.915195 -0.565919 0)
(0.84576 -0.586091 -5.30237e-23)
(0.706723 -0.529907 0)
(0.671144 -0.433323 0)
(0.805006 -0.0450747 8.49496e-23)
(0.882887 0.208108 0)
(0.892192 0.387463 2.80706e-21)
(0.923483 0.61146 -2.36976e-21)
(0.898982 0.451482 1.83197e-21)
(0.93888 0.329728 -1.74865e-21)
(1.04513 -0.0542538 -1.36535e-22)
(1.03528 -0.450761 0)
(1.10913 -0.465508 0)
(1.05413 -0.545253 -1.08681e-22)
(1.0768 -0.0463623 1.19816e-21)
(1.07227 0.411711 -1.90048e-21)
(1.04699 0.406204 8.40416e-22)
(1.14007 0.453954 6.0059e-22)
(1.20229 -0.114311 0)
(1.06852 -0.748304 4.67652e-22)
(1.11803 -0.150063 0)
(1.0741 0.486368 1.533e-22)
(1.04893 0.192779 -2.79596e-22)
(1.02749 -0.172574 4.90166e-22)
(1.00159 -0.0781921 -4.22225e-23)
(0.998695 0.0518645 7.22292e-23)
(0.993434 0.0270462 4.1385e-24)
(0.993663 -0.00616112 1.84165e-23)
(0.984812 -0.00106467 -8.32826e-24)
(0.988674 0.00541299 -7.5875e-25)
(0.978934 0.00342828 6.9336e-25)
(-0.103431 0.40129 1.43751e-20)
(0.0891625 0.616808 -3.17682e-20)
(0.313112 0.591556 -7.40551e-21)
(0.674813 0.183061 2.37612e-20)
(0.94606 -0.258228 4.01608e-22)
(1.07138 -0.541633 -3.04522e-22)
(1.01156 -0.634635 2.00703e-22)
(0.97681 -0.541103 -2.65376e-22)
(0.890662 -0.536344 0)
(0.770269 -0.499229 5.26421e-21)
(0.753077 -0.466085 -5.02132e-21)
(0.818023 -0.106074 -1.36031e-22)
(0.875467 0.194307 0)
(0.851145 0.389968 -5.30457e-21)
(0.888965 0.610552 4.91439e-21)
(0.858775 0.455205 -1.72559e-21)
(0.921487 0.313573 1.64646e-21)
(1.0632 -0.0492543 2.38636e-21)
(1.03972 -0.444646 -2.04994e-21)
(1.12956 -0.468002 0)
(1.05137 -0.545378 0)
(1.05361 -0.0571745 2.29144e-21)
(1.0663 0.407276 -2.18787e-21)
(1.01797 0.398707 -1.45882e-21)
(1.12702 0.442041 -1.24146e-22)
(1.21342 -0.0933643 1.40366e-21)
(1.05683 -0.73022 -3.50797e-23)
(1.08981 -0.159114 -8.57166e-22)
(1.06207 0.485869 1.62074e-21)
(1.05595 0.201139 -1.19717e-21)
(1.03452 -0.165291 5.33765e-23)
(0.99976 -0.0769645 -1.54965e-22)
(0.998291 0.0520225 5.75422e-23)
(0.996165 0.0275445 -5.50179e-23)
(0.996677 -0.00553904 -1.15347e-23)
(0.988065 -0.000794307 -5.84914e-24)
(0.992983 0.0056902 1.79637e-23)
(0.984064 0.00397392 2.93699e-24)
(0.128995 0.24087 0)
(0.308568 0.432194 1.36765e-20)
(0.539856 0.439807 -1.34562e-20)
(0.87217 0.0860034 0)
(1.11296 -0.316143 -4.12753e-22)
(1.18589 -0.532615 3.12874e-22)
(1.07906 -0.610466 0)
(1.01271 -0.519828 6.59846e-24)
(0.933586 -0.486639 -2.07909e-22)
(0.812632 -0.477233 0)
(0.818504 -0.49654 -4.75083e-21)
(0.858257 -0.156023 4.66984e-21)
(0.906884 0.161381 -3.48533e-22)
(0.834095 0.356167 -5.21915e-21)
(0.841563 0.593793 4.97732e-21)
(0.81054 0.457983 1.95595e-22)
(0.899872 0.296944 0)
(1.07162 -0.0450334 -2.43247e-22)
(1.04925 -0.436442 3.99355e-21)
(1.14165 -0.470319 8.97769e-23)
(1.04284 -0.541885 1.03181e-21)
(1.02888 -0.077036 -3.86217e-21)
(1.05311 0.388327 -3.02908e-21)
(0.984989 0.38338 3.72936e-21)
(1.10472 0.426496 -3.46468e-22)
(1.21221 -0.071535 0)
(1.04446 -0.709937 -4.43002e-22)
(1.0554 -0.173969 8.68443e-22)
(1.04248 0.475923 -1.61327e-21)
(1.05563 0.205891 1.18438e-21)
(1.03683 -0.157209 -1.84926e-22)
(0.994614 -0.0761252 0)
(0.994506 0.0511972 -5.81215e-23)
(0.995462 0.027797 1.03696e-22)
(0.996156 -0.00490554 3.46469e-23)
(0.988123 -0.000631572 3.34128e-23)
(0.993951 0.00583398 -1.79763e-23)
(0.986265 0.0044594 -6.17238e-26)
(0.442652 0.120344 9.39178e-23)
(0.537517 0.274759 2.22278e-22)
(0.728364 0.30067 0)
(1.06171 0.010718 0)
(1.2573 -0.324838 0)
(1.27118 -0.479345 0)
(1.1422 -0.55129 1.06189e-20)
(1.03122 -0.494186 -1.81446e-20)
(0.981926 -0.44026 7.98871e-21)
(0.862481 -0.443981 0)
(0.840106 -0.533225 -4.98923e-21)
(0.906126 -0.229364 4.91362e-21)
(0.943296 0.144869 6.32422e-21)
(0.820578 0.36837 -5.32017e-21)
(0.808485 0.594168 3.883e-21)
(0.783343 0.45635 -3.90127e-21)
(0.888045 0.272322 -1.91784e-22)
(1.0757 -0.0385431 -3.90154e-21)
(1.06006 -0.42033 3.71666e-21)
(1.14087 -0.46687 4.14662e-22)
(1.02749 -0.53786 5.10868e-22)
(0.994585 -0.100931 4.47477e-21)
(1.03431 0.380925 -4.91247e-21)
(0.957595 0.37797 -6.40559e-22)
(1.08164 0.413189 -2.757e-22)
(1.20245 -0.0433848 -1.97014e-22)
(1.0329 -0.684916 0)
(1.01541 -0.190944 0)
(1.02242 0.467532 0)
(1.05167 0.214072 0)
(1.03568 -0.145751 4.88851e-22)
(0.98698 -0.074514 -2.87309e-22)
(0.987991 0.0499808 1.17066e-22)
(0.991685 0.0280283 -3.13854e-22)
(0.992387 -0.00419313 3.36086e-23)
(0.98524 -0.000544035 6.67424e-24)
(0.991742 0.00585271 -2.3055e-23)
(0.985613 0.00486931 -7.32549e-24)
(0.814969 0.0502687 -9.87833e-23)
(0.818911 0.158917 1.83954e-20)
(0.952737 0.177287 -1.76156e-20)
(1.24549 -0.0438148 -4.01803e-20)
(1.36632 -0.30342 3.82529e-20)
(1.31689 -0.414022 2.97093e-20)
(1.2013 -0.478664 -2.76615e-20)
(1.05249 -0.465695 2.65575e-22)
(1.01216 -0.409317 -2.18578e-22)
(0.938285 -0.392873 0)
(0.827415 -0.541893 -1.7429e-22)
(0.905594 -0.302063 1.20558e-20)
(0.965122 0.104988 -1.14809e-20)
(0.81426 0.339196 -3.78971e-22)
(0.753002 0.582108 0)
(0.737201 0.468584 -3.44788e-21)
(0.873429 0.266166 6.67045e-21)
(1.07523 -0.0254059 -3.00056e-21)
(1.07368 -0.401163 0)
(1.13062 -0.460389 3.39054e-21)
(1.01087 -0.530617 1.00793e-21)
(0.957875 -0.133702 -4.92202e-21)
(1.00631 0.349176 -4.23526e-21)
(0.923997 0.363212 3.79657e-21)
(1.05249 0.401135 -1.78677e-21)
(1.1853 -0.0149111 -3.44542e-22)
(1.02421 -0.657537 2.31995e-21)
(0.973774 -0.21207 -3.27155e-21)
(0.994736 0.445989 3.11222e-21)
(1.03982 0.21841 -3.71861e-22)
(1.03041 -0.134879 3.53525e-22)
(0.977343 -0.0734446 0)
(0.979169 0.0478345 1.17709e-22)
(0.985158 0.0280169 -2.9205e-23)
(0.98578 -0.00351383 0)
(0.979801 -0.000580443 -3.41218e-23)
(0.986677 0.00572952 1.51701e-23)
(0.982324 0.00518256 -2.81803e-24)
(1.13105 0.0366493 0)
(1.10832 0.0917498 0)
(1.19629 0.0944633 -7.34606e-23)
(1.37855 -0.0594707 0)
(1.41169 -0.248079 0)
(1.31425 -0.342779 2.76028e-20)
(1.22218 -0.406365 -2.63007e-20)
(1.08121 -0.427808 1.61757e-20)
(1.01522 -0.400003 -1.54205e-20)
(1.00093 -0.341991 0)
(0.850183 -0.517063 -1.53597e-22)
(0.862804 -0.406333 1.93835e-22)
(0.980943 0.0633602 -1.40164e-20)
(0.80976 0.360793 1.78115e-21)
(0.723602 0.597265 1.07737e-20)
(0.735999 0.456733 1.05281e-22)
(0.880995 0.235485 -9.68591e-23)
(1.07816 -0.0219975 7.16039e-21)
(1.08734 -0.379495 -7.0163e-21)
(1.11621 -0.442887 0)
(0.995848 -0.524155 0)
(0.914619 -0.165128 -3.85118e-22)
(0.974322 0.337921 0)
(0.89624 0.357278 2.41266e-21)
(1.02958 0.390899 -3.63139e-22)
(1.17023 0.0124553 -1.5341e-21)
(1.01435 -0.625719 -3.66088e-21)
(0.931685 -0.232508 2.47623e-21)
(0.970216 0.43207 -3.20106e-22)
(1.02734 0.224987 0)
(1.02332 -0.121625 -2.69476e-22)
(0.967127 -0.071636 2.555e-22)
(0.969016 0.0458073 7.50919e-23)
(0.97659 0.0281022 2.82723e-23)
(0.976992 -0.00279607 -4.1725e-23)
(0.972343 -0.000640878 1.33245e-23)
(0.979233 0.0055155 0)
(0.976747 0.00540038 5.73129e-24)
(1.241 0.0371607 2.65199e-20)
(1.23774 0.0537704 2.03854e-20)
(1.29307 0.0547409 2.60434e-21)
(1.36822 -0.0275954 -4.65184e-20)
(1.36695 -0.154462 2.44307e-20)
(1.28852 -0.251731 -2.2828e-22)
(1.22779 -0.335224 0)
(1.12033 -0.37701 -1.43134e-22)
(1.01944 -0.393293 -1.16531e-22)
(1.02816 -0.316755 0)
(0.902044 -0.451942 -1.1703e-20)
(0.807104 -0.468823 1.10648e-20)
(0.927851 -0.0463334 2.45998e-22)
(0.797708 0.298243 1.25926e-20)
(0.701102 0.574566 -1.19324e-20)
(0.697714 0.485361 1.11799e-22)
(0.865646 0.253035 1.02592e-22)
(1.07821 0.0110796 0)
(1.10077 -0.344165 6.27086e-21)
(1.10503 -0.423791 -5.94779e-21)
(0.980702 -0.50691 -5.22367e-21)
(0.873545 -0.207795 -4.98107e-22)
(0.928311 0.28923 5.52448e-21)
(0.862791 0.34033 -2.38768e-21)
(0.992049 0.379685 7.00752e-22)
(1.15816 0.0506825 3.09957e-21)
(1.00368 -0.587013 -1.15198e-21)
(0.894905 -0.25691 3.65483e-21)
(0.938375 0.399532 -2.67785e-21)
(1.0067 0.231092 0)
(1.01305 -0.107592 0)
(0.95668 -0.0698495 0)
(0.957814 0.0426381 4.214e-23)
(0.96642 0.0278643 -7.22636e-23)
(0.966669 -0.00220524 4.41103e-23)
(0.963429 -0.000881266 -2.80545e-23)
(0.969953 0.00513322 -1.28003e-23)
(0.969318 0.00548142 0)
(1.20184 0.0353661 0)
(1.22875 0.0313636 0)
(1.26 0.0210235 0)
(1.28843 -0.0281701 0)
(1.3056 -0.114699 0)
(1.25301 -0.185602 0)
(1.21682 -0.251133 0)
(1.16025 -0.285501 0)
(1.03117 -0.3425 0)
(1.04651 -0.262266 0)
(0.960334 -0.388 0)
(0.776647 -0.509768 0)
(0.844768 -0.121193 0)
(0.774746 0.306955 0)
(0.676698 0.603624 0)
(0.719711 0.454204 0)
(0.914637 0.194283 0)
(1.10219 0.00587701 0)
(1.11282 -0.304959 0)
(1.10541 -0.406459 0)
(0.945853 -0.512684 0)
(0.839793 -0.231548 0)
(0.88068 0.277922 0)
(0.813093 0.331702 0)
(0.978364 0.370562 0)
(1.1777 0.0745963 0)
(0.988728 -0.557823 0)
(0.862384 -0.271339 0)
(0.906641 0.382557 0)
(0.987684 0.233839 0)
(1.00051 -0.0977432 0)
(0.944483 -0.0665042 0)
(0.944431 0.0410552 0)
(0.953299 0.0281798 0)
(0.952861 -0.00134205 0)
(0.951181 -0.00102478 0)
(0.956832 0.00476951 0)
(0.958461 0.00553481 0)
(1.19133 0.0322638 0)
(1.20351 0.0158141 0)
(1.22665 -0.00169872 0)
(1.23521 -0.0577252 0)
(1.2401 -0.112876 0)
(1.2112 -0.173483 0)
(1.15367 -0.266277 0)
(1.10547 -0.263069 0)
(1.012 -0.31355 0)
(0.948631 -0.289034 0)
(0.900113 -0.348225 0)
(0.7615 -0.408519 0)
(0.736325 -0.0468144 0)
(0.649171 0.368867 0)
(0.633049 0.610142 0)
(0.7783 0.385302 0)
(0.983701 0.111403 0)
(1.13541 -0.0745578 0)
(1.12139 -0.335689 0)
(1.07268 -0.373865 0)
(0.854566 -0.428397 0)
(0.775413 -0.174595 0)
(0.798362 0.303815 0)
(0.732459 0.315272 0)
(0.961294 0.302991 0)
(1.17614 0.0339084 0)
(0.959951 -0.511013 0)
(0.822917 -0.230262 0)
(0.86499 0.378875 0)
(0.961394 0.211552 0)
(0.983616 -0.0934558 0)
(0.925916 -0.0575288 0)
(0.923952 0.0407394 0)
(0.934531 0.0268257 0)
(0.934044 -0.00144621 0)
(0.934074 -0.00155954 0)
(0.938331 0.00398831 0)
(0.94277 0.00525145 0)
(1.171 0.0277357 0)
(1.18057 0.00259797 0)
(1.19827 -0.0169029 0)
(1.19963 -0.0468938 0)
(1.18894 -0.105661 0)
(1.18029 -0.126901 0)
(1.13869 -0.186347 0)
(1.08136 -0.198539 0)
(1.0536 -0.228667 0)
(0.977773 -0.19059 0)
(0.926843 -0.261237 0)
(0.758905 -0.362134 0)
(0.62219 -0.0220378 0)
(0.554576 0.387048 0)
(0.666873 0.549569 0)
(0.917464 0.2773 0)
(1.06406 0.0213594 0)
(1.15466 -0.0791074 0)
(1.13025 -0.268498 0)
(1.04979 -0.309588 0)
(0.79758 -0.385136 0)
(0.688802 -0.175213 0)
(0.694954 0.300879 0)
(0.680309 0.264256 0)
(0.940952 0.232503 0)
(1.18295 0.0483863 0)
(0.960511 -0.45015 0)
(0.770764 -0.224807 0)
(0.814609 0.34771 0)
(0.94102 0.191277 0)
(0.968839 -0.085259 0)
(0.906504 -0.0508202 0)
(0.903108 0.0377172 0)
(0.915956 0.0256116 0)
(0.914473 -0.000967867 0)
(0.915468 -0.00190296 0)
(0.917955 0.00311112 0)
(0.924875 0.0047309 0)
(1.14668 0.0199607 0)
(1.16177 0.000707793 0)
(1.16286 -0.0228801 0)
(1.16658 -0.0509849 0)
(1.15575 -0.08925 0)
(1.12919 -0.113736 0)
(1.11192 -0.169751 0)
(1.05027 -0.17085 0)
(1.01907 -0.215596 0)
(0.943901 -0.198464 0)
(0.923549 -0.215717 0)
(0.796665 -0.225377 0)
(0.622572 0.0796034 0)
(0.617227 0.335744 0)
(0.810436 0.38957 0)
(1.07235 0.169139 0)
(1.13359 -0.00617362 0)
(1.15861 -0.107119 0)
(1.10623 -0.271139 0)
(0.995221 -0.236775 0)
(0.778558 -0.276888 0)
(0.589422 -0.114811 0)
(0.592415 0.305897 0)
(0.681252 0.201715 0)
(0.917608 0.136477 0)
(1.16464 0.0139145 0)
(0.964076 -0.369579 0)
(0.69582 -0.172811 0)
(0.742371 0.319231 0)
(0.933707 0.156583 0)
(0.959612 -0.079252 0)
(0.88393 -0.0399985 0)
(0.878991 0.0363374 0)
(0.897603 0.0239349 0)
(0.896282 -0.000909057 0)
(0.897799 -0.00233606 0)
(0.898302 0.00210366 0)
(0.906923 0.00390926 0)
(1.12346 0.0153228 0)
(1.13633 -0.00426514 0)
(1.13762 -0.0233875 0)
(1.13499 -0.0459324 0)
(1.12578 -0.0764272 0)
(1.10365 -0.0900591 0)
(1.09248 -0.130477 0)
(1.03997 -0.122329 0)
(1.03104 -0.152515 0)
(0.954527 -0.12446 0)
(0.924389 -0.133612 0)
(0.822369 -0.145595 0)
(0.721773 0.0953132 0)
(0.799735 0.249621 0)
(0.969226 0.256915 0)
(1.15143 0.0857089 0)
(1.13483 -0.0306949 0)
(1.14568 -0.0747966 0)
(1.1006 -0.195582 0)
(0.980663 -0.156391 0)
(0.847558 -0.186391 0)
(0.597138 -0.069268 0)
(0.605871 0.259197 0)
(0.76773 0.11825 0)
(0.90911 0.0530808 0)
(1.14759 0.0111519 0)
(0.986226 -0.287322 0)
(0.643538 -0.12815 0)
(0.708679 0.272911 0)
(0.959197 0.118156 0)
(0.96267 -0.0651427 0)
(0.86725 -0.0262748 0)
(0.864238 0.0331995 0)
(0.890924 0.0209789 0)
(0.889419 -0.000708148 0)
(0.889133 -0.00244742 0)
(0.887194 0.00117102 0)
(0.895243 0.00290907 0)
(1.10325 0.0110165 0)
(1.1142 -0.00523782 0)
(1.1131 -0.0202659 0)
(1.11063 -0.0396343 0)
(1.1011 -0.0602399 0)
(1.08287 -0.0718362 0)
(1.07254 -0.101933 0)
(1.02637 -0.0945261 0)
(1.02176 -0.124797 0)
(0.953996 -0.0997387 0)
(0.951233 -0.0951385 0)
(0.877344 -0.0826152 0)
(0.830148 0.0857098 0)
(0.923771 0.159484 0)
(1.03056 0.147772 0)
(1.15277 0.0571737 0)
(1.10815 -0.00321396 0)
(1.10817 -0.0745079 0)
(1.05985 -0.179003 0)
(0.946221 -0.108919 0)
(0.910885 -0.0885435 0)
(0.704498 0.00112825 0)
(0.741324 0.214979 0)
(0.924127 0.0695776 0)
(0.933948 -0.0210058 0)
(1.11046 -0.0265746 0)
(1.00935 -0.185058 0)
(0.647851 -0.0568073 0)
(0.738542 0.201542 0)
(0.997605 0.0685418 0)
(0.972106 -0.047154 0)
(0.871574 -0.00835899 0)
(0.876348 0.0284553 0)
(0.906252 0.016592 0)
(0.903517 -0.000240959 0)
(0.899152 -0.00187185 0)
(0.895186 0.000724993 0)
(0.89946 0.0020331 0)
(1.08544 0.00899655 0)
(1.09394 -0.00610653 0)
(1.09219 -0.0163436 0)
(1.08926 -0.0323452 0)
(1.08099 -0.0470343 0)
(1.06561 -0.0551519 0)
(1.05739 -0.0771513 0)
(1.02342 -0.0680637 0)
(1.02244 -0.0874165 0)
(0.969833 -0.0646224 0)
(0.972393 -0.0552707 0)
(0.920143 -0.0409639 0)
(0.904676 0.0494649 0)
(0.980703 0.0951575 0)
(1.0278 0.0949699 0)
(1.10588 0.0294073 0)
(1.08027 -0.00566144 0)
(1.09291 -0.0436267 0)
(1.04704 -0.109241 0)
(0.934864 -0.0635517 0)
(0.949237 -0.0415014 0)
(0.833599 0.0199307 0)
(0.890182 0.144048 0)
(1.05508 0.0380598 0)
(0.987918 -0.0295745 0)
(1.06334 -0.0312196 0)
(1.03223 -0.104766 0)
(0.745093 -0.00515819 0)
(0.828265 0.125636 0)
(1.03355 0.0312275 0)
(0.991978 -0.0221591 0)
(0.909339 0.00695695 0)
(0.920533 0.0212919 0)
(0.944028 0.0123992 0)
(0.94042 0.00141937 0)
(0.931634 -0.000255636 0)
(0.927187 0.00122922 0)
(0.925564 0.00186342 0)
(1.07012 0.0077073 0)
(1.07673 -0.00559366 0)
(1.07402 -0.0116152 0)
(1.07284 -0.0250328 0)
(1.06447 -0.0340337 0)
(1.05427 -0.0407643 0)
(1.04613 -0.0547124 0)
(1.02253 -0.0474567 0)
(1.02086 -0.0625631 0)
(0.983782 -0.0419436 0)
(0.986835 -0.0409674 0)
(0.957865 -0.0187152 0)
(0.954109 0.025591 0)
(0.99581 0.0525161 0)
(1.02313 0.0549206 0)
(1.0739 0.0185994 0)
(1.05254 0.00264444 0)
(1.06039 -0.0403222 0)
(1.03135 -0.0765238 0)
(0.956451 -0.0441055 0)
(0.975206 -0.0229255 0)
(0.924296 0.0295794 0)
(0.973774 0.0891833 0)
(1.07441 0.0242728 0)
(1.01386 -0.0221515 0)
(1.03271 -0.0451541 0)
(1.01817 -0.0533363 0)
(0.859192 0.0420119 0)
(0.93106 0.0776 0)
(1.04707 0.00422485 0)
(1.00347 -0.0015755 0)
(0.956652 0.0192819 0)
(0.971686 0.0161195 0)
(0.983667 0.00963422 0)
(0.980512 0.00353767 0)
(0.970734 0.00196806 0)
(0.968099 0.00256765 0)
(0.962942 0.00252072 0)
(1.05732 0.00719205 0)
(1.06278 -0.00403851 0)
(1.05964 -0.00707822 0)
(1.0598 -0.0179056 0)
(1.05148 -0.0235253 0)
(1.04614 -0.0285279 0)
(1.03696 -0.0380826 0)
(1.02406 -0.0320031 0)
(1.01909 -0.0433135 0)
(0.998056 -0.0256713 0)
(0.999467 -0.02856 0)
(0.981195 -0.00676783 0)
(0.984985 0.0096482 0)
(1.00327 0.0285182 0)
(1.02035 0.0317075 0)
(1.04622 0.00782088 0)
(1.04072 0.000896798 0)
(1.04488 -0.0263528 0)
(1.02074 -0.040097 0)
(0.979974 -0.0253386 0)
(0.985797 -0.0125794 0)
(0.965155 0.0225635 0)
(1.00253 0.0485164 0)
(1.05579 0.0157198 0)
(1.0255 -0.00511178 0)
(1.02247 -0.029327 0)
(0.99445 -0.0265277 0)
(0.936355 0.0435888 0)
(1.00146 0.0429102 0)
(1.0411 0.000811162 0)
(1.00599 0.0149754 0)
(0.994743 0.0214682 0)
(1.0094 0.0107783 0)
(1.01142 0.00886804 0)
(1.00926 0.00573024 0)
(1.00163 0.00373481 0)
(1.00111 0.00375305 0)
(0.995853 0.00349689 0)
(1.04718 0.00697681 0)
(1.05172 -0.0020728 0)
(1.04806 -0.00337577 0)
(1.04969 -0.0118819 0)
(1.04163 -0.0150701 0)
(1.04028 -0.0189378 0)
(1.03085 -0.0251801 0)
(1.02535 -0.0204169 0)
(1.01884 -0.0292249 0)
(1.00818 -0.0147733 0)
(1.00731 -0.0210256 0)
(0.99676 -0.00243397 0)
(1.00236 0.00128284 0)
(1.00663 0.0141418 0)
(1.02109 0.0156028 0)
(1.03069 0.00299007 0)
(1.03135 0.00152919 0)
(1.03013 -0.0203403 0)
(1.01496 -0.0229382 0)
(0.996257 -0.017825 0)
(0.994617 -0.00826598 0)
(0.987893 0.0164186 0)
(1.01041 0.0274583 0)
(1.03394 0.0109228 0)
(1.02169 -8.70638e-05 0)
(1.02023 -0.0222469 0)
(0.993803 -0.0131416 0)
(0.978831 0.0382644 0)
(1.02213 0.0264835 0)
(1.02565 0.00222047 0)
(1.01051 0.0197726 0)
(1.01777 0.0190082 0)
(1.025 0.00863604 0)
(1.02306 0.00922581 0)
(1.02307 0.00683876 0)
(1.01841 0.00467778 0)
(1.01873 0.0044743 0)
(1.01524 0.00423763 0)
(1.03903 0.00675165 0)
(1.04264 1.61412e-06 0)
(1.03938 -0.000589679 0)
(1.04169 -0.00673216 0)
(1.03457 -0.00872377 0)
(1.03558 -0.0115083 0)
(1.02672 -0.0157138 0)
(1.02592 -0.0124761 0)
(1.01871 -0.018788 0)
(1.01469 -0.00883297 0)
(1.0125 -0.0145771 0)
(1.0064 -0.0011453 0)
(1.01131 -0.0025472 0)
(1.00976 0.006738 0)
(1.02103 0.00649975 0)
(1.02071 8.85071e-05 0)
(1.02611 0.000133693 0)
(1.02221 -0.0132728 0)
(1.01384 -0.0108016 0)
(1.00571 -0.0105665 0)
(1.00064 -0.00304351 0)
(0.999809 0.0104938 0)
(1.01177 0.0150617 0)
(1.02389 0.00787625 0)
(1.01986 0.00334568 0)
(1.01812 -0.00914169 0)
(0.996801 -0.00372822 0)
(0.996998 0.026226 0)
(1.02475 0.0175934 0)
(1.01767 0.00727054 0)
(1.01421 0.0202773 0)
(1.0252 0.0158107 0)
(1.02721 0.00806655 0)
(1.02608 0.00954164 0)
(1.02729 0.00747295 0)
(1.02453 0.00537935 0)
(1.0249 0.00495634 0)
(1.02319 0.00479694 0)
(1.03267 0.00645123 0)
(1.03544 0.00185934 0)
(1.03292 0.00138905 0)
(1.03507 -0.0028116 0)
(1.02951 -0.00419616 0)
(1.03127 -0.00622415 0)
(1.02409 -0.00897599 0)
(1.02521 -0.00714043 0)
(1.01887 -0.0113722 0)
(1.01819 -0.00516653 0)
(1.01527 -0.00956571 0)
(1.01236 -0.00104753 0)
(1.01525 -0.00338308 0)
(1.01209 0.00253377 0)
(1.02039 0.0016071 0)
(1.01644 -0.000937939 0)
(1.02239 -0.000265197 0)
(1.0172 -0.00843911 0)
(1.01381 -0.00527498 0)
(1.00954 -0.00641454 0)
(1.00543 -0.00125834 0)
(1.00739 0.00635307 0)
(1.01161 0.00889442 0)
(1.01856 0.00584802 0)
(1.01606 0.00319965 0)
(1.01613 -0.00384663 0)
(1.00404 0.000348469 0)
(1.00613 0.0184957 0)
(1.02154 0.0134081 0)
(1.01473 0.00843721 0)
(1.01696 0.0165535 0)
(1.02629 0.0131975 0)
(1.02595 0.00804306 0)
(1.0262 0.00883518 0)
(1.02777 0.00711939 0)
(1.02617 0.00549519 0)
(1.02638 0.00491675 0)
(1.02566 0.0048459 0)
(1.02775 0.00613187 0)
(1.02967 0.00324579 0)
(1.02801 0.00263248 0)
(1.02964 -2.10699e-05 0)
(1.0258 -0.0011485 0)
(1.02739 -0.00252967 0)
(1.02223 -0.00437185 0)
(1.0237 -0.00356886 0)
(1.01886 -0.00617441 0)
(1.01939 -0.0029232 0)
(1.01671 -0.00566765 0)
(1.01539 -0.00102728 0)
(1.01668 -0.00285716 0)
(1.01395 0.000464664 0)
(1.01911 -0.000200934 0)
(1.01484 -0.00135767 0)
(1.01951 -0.000626675 0)
(1.015 -0.00494978 0)
(1.01426 -0.0024202 0)
(1.01166 -0.00306896 0)
(1.00897 0.000203246 0)
(1.01084 0.00430436 0)
(1.01167 0.00549847 0)
(1.01662 0.00482251 0)
(1.01476 0.00395998 0)
(1.01528 0.000984683 0)
(1.00825 0.00371451 0)
(1.01003 0.0129192 0)
(1.01962 0.0107484 0)
(1.01523 0.00974666 0)
(1.01798 0.0141465 0)
(1.02465 0.0118204 0)
(1.02444 0.0083407 0)
(1.02568 0.00843034 0)
(1.02699 0.0071787 0)
(1.02615 0.00587595 0)
(1.0263 0.00515166 0)
(1.02609 0.00509402 0)
(1.02383 0.00580127 0)
(1.0251 0.00413043 0)
(1.02418 0.00338756 0)
(1.02526 0.00183743 0)
(1.0229 0.000820173 0)
(1.02396 -6.01728e-05 0)
(1.02061 -0.00138929 0)
(1.02173 -0.0011551 0)
(1.01851 -0.00275867 0)
(1.01921 -0.00132413 0)
(1.01712 -0.0028612 0)
(1.01659 -0.000815907 0)
(1.01686 -0.0017149 0)
(1.01503 -0.000413249 0)
(1.01775 -0.000457312 0)
(1.0146 -0.00128587 0)
(1.0175 -0.000386961 0)
(1.01423 -0.00254921 0)
(1.0144 -0.00100868 0)
(1.0125 -0.000877636 0)
(1.01119 0.000455154 0)
(1.01255 0.00340501 0)
(1.01209 0.00369253 0)
(1.01533 0.00410516 0)
(1.01364 0.00383142 0)
(1.01468 0.00220887 0)
(1.01148 0.00465128 0)
(1.01262 0.00951105 0)
(1.01791 0.00891113 0)
(1.01573 0.00903244 0)
(1.01837 0.0110141 0)
(1.02302 0.0102398 0)
(1.02318 0.00802948 0)
(1.02483 0.00746536 0)
(1.02587 0.00661525 0)
(1.0257 0.00566489 0)
(1.0258 0.00491339 0)
(1.0259 0.0049279 0)
(1.02066 0.00541359 0)
(1.0215 0.00457875 0)
(1.02108 0.00373502 0)
(1.02175 0.00296696 0)
(1.02041 0.00196685 0)
(1.02105 0.00150486 0)
(1.01906 0.000445749 0)
(1.01976 0.000440919 0)
(1.01777 -0.000556979 0)
(1.0183 -0.000185689 0)