/*--------------------------------*- C++ -*----------------------------------*\
| =========                 |                                                 |
| \\      /  F ield         | OpenFOAM: The Open Source CFD Toolbox           |
|  \\    /   O peration     | Version:  2512                                  |
|   \\  /    A nd           | Website:  www.openfoam.com                      |
|    \\/     M anipulation  |                                                 |
\*---------------------------------------------------------------------------*/
FoamFile
{
    version     2.0;
    format      ascii;
    arch        "LSB;label=32;scalar=64";
    class       surfaceScalarField;
    location    "58.8";
    object      phi;
}
// * * * * * * * * * * * * * * * * * * * * * * * * * * * * * * * * * * * * * //

dimensions      [0 3 -1 0 0 0 0];

oriented        oriented;

internalField   nonuniform List<scalar> 
26232
(
-0.000122867
0.00118438
-0.00106151
-0.000313207
0.00210033
-0.00190999
-0.000267562
0.00196072
-0.00200636
0.000360494
0.000848117
-0.00147617
0.00193105
-0.00130642
-0.000264138
0.00480191
-0.0046318
0.00176093
0.00930083
-0.00925831
0.00475939
0.0156819
-0.0152274
0.00884633
0.0240535
-0.0224333
0.0140616
0.0343252
-0.0306034
0.0203317
0.0461929
-0.0393305
0.0274628
0.0591735
-0.0481421
0.0351615
0.0726778
-0.0565817
0.0430774
0.0860988
-0.0642769
0.0508559
0.0988938
-0.0709803
0.0581853
0.11065
-0.0765887
0.0648323
0.12113
-0.08113
0.0706502
0.130248
-0.0847417
0.075624
0.138151
-0.087624
0.079721
0.144992
-0.0900588
0.0832181
0.151173
-0.0921644
0.0859825
0.156986
-0.0944398
0.0886273
0.16258
-0.0964948
0.0909007
-0.0992042
0.0934016
0.168383
1.23506e-05
0.00117203
0.000210761
0.00190192
0.000903539
0.00126794
0.00247126
-0.000719602
0.00532106
-0.00415622
0.00984729
-0.00915803
0.0163509
-0.0157619
0.0249408
-0.0238173
0.0354553
-0.0329478
0.0474523
-0.0426004
0.0602793
-0.0521575
0.0731955
-0.0610584
0.0855054
-0.0688916
0.0966684
-0.0754399
0.10637
-0.080682
0.114543
-0.084762
0.121341
-0.0879276
0.127087
-0.0904875
0.132177
-0.0927144
0.136996
-0.094878
0.141908
-0.0970759
0.147013
-0.0995446
0.152496
-0.101979
-0.105021
0.158313
0.000104475
0.00106755
0.000653606
0.00135279
0.00200179
-8.02388e-05
0.00459476
-0.00331257
0.00887556
-0.00843702
0.0152098
-0.0154923
0.0237271
-0.0242792
0.0342051
-0.0342953
0.0460632
-0.044806
0.0584827
-0.0550199
0.0705947
-0.0642695
0.0816649
-0.0721286
0.0912223
-0.078449
0.0991126
-0.0833302
0.105477
-0.0870461
0.110664
-0.0899494
0.115126
-0.0923891
0.119283
-0.0946453
0.123466
-0.0968966
0.12785
-0.0992627
0.13249
-0.101716
0.137335
-0.104389
0.142353
-0.106996
-0.110071
0.147403
0.000179143
0.000888409
0.00108258
0.000449351
0.0031668
-0.00216446
0.00691824
-0.00706401
0.012779
-0.0142977
0.02093
-0.0236433
0.0311194
-0.0344687
0.0426455
-0.0458213
0.0545353
-0.0566958
0.0658162
-0.0663008
0.0757532
-0.0742065
0.0839815
-0.0803569
0.0905175
-0.084985
0.0956704
-0.0884831
0.0998954
-0.0912711
0.103647
-0.0937009
0.10727
-0.0960124
0.110961
-0.0983361
0.114796
-0.100732
0.118749
-0.103216
0.122822
-0.105788
0.126952
-0.10852
0.131207
-0.111251
-0.114419
0.135554
0.000276098
0.000612312
0.00160738
-0.000881927
0.0045434
-0.00510048
0.00960102
-0.0121216
0.0170595
-0.0217562
0.0266979
-0.0332817
0.037732
-0.0455027
0.0490483
-0.0571376
0.0595756
-0.0672231
0.068583
-0.0753082
0.0758027
-0.0814262
0.0813823
-0.0859365
0.0857274
-0.08933
0.0893123
-0.0920681
0.092536
-0.0944948
0.0956556
-0.0968204
0.0987954
-0.0991522
0.102001
-0.101542
0.105282
-0.104012
0.108654
-0.106588
0.112146
-0.10928
0.115753
-0.112127
0.119534
-0.115033
-0.118293
0.123408
0.000421336
0.000190975
0.00228758
-0.00274817
0.0062109
-0.00902381
0.0126139
-0.0185246
0.0214006
-0.030543
0.0317807
-0.0436617
0.0425194
-0.0562415
0.0524292
-0.0670474
0.0607494
-0.0755433
0.0672635
-0.0818223
0.0721923
-0.086355
0.0759788
-0.089723
0.0790807
-0.0924319
0.0818472
-0.0948347
0.084491
-0.0971386
0.0871209
-0.0994503
0.0897919
-0.101823
0.092535
-0.104285
0.0953749
-0.106852
0.0983199
-0.109533
0.101372
-0.112333
0.104502
-0.115256
0.107731
-0.118262
-0.121515
0.110954
0.000623158
-0.000432183
0.00312991
-0.00525492
0.00810484
-0.0139987
0.015683
-0.0261027
0.0251987
-0.0400587
0.0353442
-0.0538073
0.0447802
-0.0656774
0.0526476
-0.0749149
0.0587108
-0.0816065
0.0632059
-0.0863173
0.0665814
-0.0897305
0.0692806
-0.0924222
0.071633
-0.0947842
0.0738414
-0.0970432
0.0760175
-0.0993146
0.0782202
-0.101653
0.0804781
-0.104081
0.0828035
-0.10661
0.0851953
-0.109244
0.0876499
-0.111988
0.0901646
-0.114847
0.0927334
-0.117825
0.0953806
-0.120909
-0.124183
0.0980481
0.000874391
-0.00130657
0.00408508
-0.00846561
0.0100418
-0.0199555
0.0183798
-0.0344408
0.0278372
-0.0495161
0.0368983
-0.0628683
0.0445122
-0.0732914
0.0503341
-0.0807367
0.0545601
-0.0858326
0.0576304
-0.0893876
0.0599896
-0.0920897
0.0619727
-0.0944053
0.0637892
-0.0966008
0.065554
-0.098808
0.067323
-0.101084
0.0691192
-0.103449
0.0709509
-0.105913
0.0728216
-0.108481
0.0747367
-0.111159
0.0767027
-0.113954
0.0787235
-0.116868
0.080795
-0.119896
0.0829222
-0.123036
-0.126307
0.0850469
0.00115889
-0.00246547
0.00506603
-0.0123727
0.011772
-0.0266614
0.0202868
-0.0429556
0.0289667
-0.0581959
0.0364704
-0.070372
0.0422301
-0.0790511
0.0463354
-0.0848421
0.0492007
-0.0886979
0.0512837
-0.0914706
0.0529412
-0.0937473
0.0543988
-0.0958628
0.0557773
-0.0979793
0.057133
-0.100164
0.0584895
-0.10244
0.059858
-0.104818
0.0612465
-0.107301
0.0626624
-0.109897
0.0641104
-0.112607
0.0655915
-0.115435
0.067102
-0.118379
0.0686386
-0.121433
0.0702001
-0.124598
-0.127868
0.0717608
0.00145375
-0.00391921
0.00596369
-0.0168827
0.0130484
-0.0337462
0.0211505
-0.0510577
0.02859
-0.0656354
0.0344359
-0.0762179
0.0385698
-0.083185
0.0413403
-0.0876126
0.043217
-0.0905746
0.0445909
-0.0928445
0.0457155
-0.0948718
0.0467271
-0.0968744
0.0476894
-0.0989417
0.0486307
-0.101105
0.0495646
-0.103374
0.0504995
-0.105752
0.051441
-0.108243
0.052393
-0.110849
0.0533583
-0.113572
0.0543384
-0.116415
0.0553338
-0.119374
0.0563445
-0.122444
0.0573674
-0.125621
-0.128893
0.0583922
0.00173178
-0.005651
0.00666668
-0.0218176
0.0137
-0.0407794
0.0209385
-0.0582963
0.0269541
-0.0716509
0.0312653
-0.0805292
0.0340703
-0.08599
0.0358265
-0.0893688
0.0369663
-0.0917144
0.0377869
-0.093665
0.038453
-0.095538
0.0390431
-0.0974645
0.0395914
-0.09949
0.0401131
-0.101627
0.0406161
-0.103877
0.0411058
-0.106242
0.0415869
-0.108724
0.0420645
-0.111326
0.0425429
-0.114051
0.0430239
-0.116896
0.0435067
-0.119857
0.0439876
-0.122925
0.0444594
-0.126093
-0.129355
0.0449213
0.00196781
-0.0076188
0.00708939
-0.0269392
0.0136761
-0.0473662
0.0197935
-0.0644136
0.0243994
-0.0762568
0.0273867
-0.0835165
0.0291336
-0.0877369
0.0301057
-0.0903408
0.0306584
-0.0922672
0.0310017
-0.0940083
0.0312377
-0.095774
0.0314103
-0.0976371
0.0315377
-0.0996174
0.0316288
-0.101718
0.0316892
-0.103937
0.0317241
-0.106277
0.0317381
-0.108738
0.031735
-0.111323
0.0317179
-0.114034
0.0316886
-0.116867
0.0316484
-0.119817
0.0315969
-0.122873
0.0315293
-0.126025
0.0314501
-0.129275
-7.19755e-05
-0.00608493
0.0061569
-0.000590505
-0.0138657
0.0143842
-0.00164521
-0.0184175
0.0194722
-0.00317627
-0.0207643
0.0222953
-0.00507565
-0.0219085
0.0238079
-0.00724625
-0.022594
0.0247646
-0.00961902
-0.0232276
0.0256004
-0.012146
-0.0239425
0.0264695
-0.0147856
-0.0247114
0.027351
-0.0174889
-0.0254349
0.0281382
-0.0201921
-0.0259842
0.0286874
-0.0228155
-0.0262138
0.0288372
-0.0252672
-0.0259648
0.0284165
-0.027448
-0.0250722
0.027253
-0.0292609
-0.0233746
0.0251876
-0.0306197
-0.0207255
0.0220844
-0.0314557
-0.0170007
0.0178367
-0.0317219
-0.0121008
0.0123669
-0.0314033
-0.00594293
0.00562433
-0.0304896
0.0013353
-0.00224901
-0.0288034
0.00959979
-0.011286
-0.0263034
0.0190151
-0.021515
-0.0229318
0.0294316
-0.0328032
0.0406589
-0.0187452
-0.0448455
-0.000326898
-0.00575803
-0.0013158
-0.0128768
-0.00289498
-0.0168383
-0.00494816
-0.0187111
-0.00737066
-0.019486
-0.0100943
-0.0198704
-0.0130834
-0.0202385
-0.0163189
-0.020707
-0.0197828
-0.0212475
-0.0234468
-0.0217709
-0.0272645
-0.0221665
-0.0311676
-0.0223107
-0.0350649
-0.0220675
-0.0388456
-0.0212915
-0.0423854
-0.0198348
-0.0455548
-0.0175561
-0.0482268
-0.0143287
-0.0502847
-0.0100429
-0.0516372
-0.00459037
-0.0521182
0.00181627
-0.0516797
0.00916127
-0.0502135
0.0175489
-0.0476181
0.0268362
0.036981
-0.0439402
-0.000536496
-0.00522153
-0.00188507
-0.0115282
-0.00383922
-0.0148842
-0.00623434
-0.016316
-0.00896724
-0.0167531
-0.0119896
-0.016848
-0.0152864
-0.0169418
-0.0188539
-0.0171395
-0.0226859
-0.0174155
-0.0267651
-0.0176917
-0.0310574
-0.0178742
-0.0355069
-0.0178612
-0.0400321
-0.0175423
-0.0445249
-0.0167987
-0.0488529
-0.0155068
-0.0528634
-0.0135457
-0.0563883
-0.0108038
-0.0592525
-0.00717871
-0.0612676
-0.00257521
-0.0622172
0.00276585
-0.0620937
0.0090377
-0.0607356
0.0161908
-0.0579369
0.0240375
0.0325362
-0.0534921
-0.00069085
-0.00453069
-0.00228689
-0.00993217
-0.0044745
-0.0126966
-0.00704897
-0.0137415
-0.00990175
-0.0139004
-0.0129907
-0.013759
-0.0163059
-0.0136266
-0.0198438
-0.0136016
-0.0235946
-0.0136646
-0.0275371
-0.0137492
-0.031635
-0.0137763
-0.0358335
-0.0136627
-0.0400549
-0.0133209
-0.0441951
-0.0126585
-0.0481217
-0.0115802
-0.0516748
-0.00999255
-0.0546673
-0.00781137
-0.0568766
-0.00496938
-0.0580263
-0.0014255
-0.0580369
0.00277643
-0.056658
0.00765877
-0.0536916
0.0132244
-0.0490573
0.0194032
0.0255785
-0.0420996
-0.000792532
-0.00373815
-0.0025394
-0.0081853
-0.00484809
-0.0103879
-0.00748011
-0.0111095
-0.0103151
-0.0110653
-0.013306
-0.0107681
-0.0164363
-0.0104963
-0.0196921
-0.0103459
-0.0230479
-0.0103088
-0.0264639
-0.0103332
-0.029885
-0.0103552
-0.0332392
-0.0103085
-0.0364355
-0.0101246
-0.0393611
-0.00973296
-0.0418788
-0.00906249
-0.0438276
-0.00804373
-0.0450213
-0.00661765
-0.0452453
-0.00474535
-0.0442455
-0.00242534
-0.0418742
0.000405101
-0.0379011
0.00368573
-0.0318566
0.00717995
-0.0239783
0.0115248
0.0150638
-0.0134635
-0.00084999
-0.00288816
-0.00267157
-0.00636372
-0.0050196
-0.00803987
-0.00762876
-0.00850032
-0.0103638
-0.00833027
-0.0131664
-0.00796555
-0.0160084
-0.00765425
-0.0188611
-0.00749329
-0.0216803
-0.00748962
-0.0244032
-0.0076103
-0.0269486
-0.00780976
-0.0292183
-0.00803879
-0.0310966
-0.00824627
-0.0324507
-0.00837888
-0.0331326
-0.00838063
-0.0329765
-0.00819979
-0.0318033
-0.00779087
-0.0294282
-0.00712047
-0.0256675
-0.00618597
-0.0202366
-0.00502588
-0.013085
-0.00346582
-0.00362633
-0.00227873
0.00787748
2.10282e-05
-6.56388e-05
0.0230069
-0.000869587
-0.00201858
-0.00270254
-0.00453076
-0.00502534
-0.00571708
-0.00755391
-0.00597175
-0.0101378
-0.00574642
-0.012704
-0.00539928
-0.0152096
-0.00514865
-0.0176092
-0.0050937
-0.0198393
-0.00525954
-0.0218136
-0.00563598
-0.0234243
-0.00619912
-0.0245442
-0.00691885
-0.0250311
-0.0077594
-0.0247307
-0.00867928
-0.0234802
-0.00963113
-0.0211128
-0.0105671
-0.0174599
-0.0114438
-0.012349
-0.0122314
-0.00563572
-0.0128992
0.00291573
-0.0135773
0.0132028
-0.0137529
0.0261169
-0.0151928
0.0403318
-0.0141939
-0.0182632
0.0585293
-0.000849935
-0.00116864
-0.00262698
-0.00275371
-0.00485219
-0.00349187
-0.00722986
-0.00359408
-0.00959264
-0.00338364
-0.011847
-0.00314489
-0.0139263
-0.00306941
-0.0157581
-0.00326182
-0.0172485
-0.0037692
-0.0182763
-0.00460819
-0.0186962
-0.00577923
-0.018345
-0.00727002
-0.0170504
-0.00905399
-0.0146399
-0.0110897
-0.0109452
-0.0133259
-0.00581587
-0.0156964
0.000875021
-0.0181347
0.00924642
-0.0206028
0.0193649
-0.0230177
0.0314325
-0.0256449
0.0452235
-0.0275439
0.0613658
-0.031335
0.0788681
-0.0316962
-0.0385291
0.0991341
-0.000782817
-0.000385826
-0.00241742
-0.00111911
-0.0044411
-0.0014682
-0.00655003
-0.00148515
-0.00855222
-0.00138145
-0.0103213
-0.00137585
-0.0117474
-0.00164322
-0.0127097
-0.00229953
-0.0130614
-0.00341752
-0.0126288
-0.00504077
-0.0112203
-0.00718776
-0.00864074
-0.0098496
-0.00470786
-0.0129869
0.000732212
-0.0165298
0.0077856
-0.0203793
0.0165313
-0.0244421
0.0269898
-0.0285932
0.0391589
-0.032772
0.053003
-0.0368618
0.0683905
-0.0410324
0.0854319
-0.0445853
0.103586
-0.0494893
0.123408
-0.0515183
-0.0588722
0.143751
-0.00066141
0.000275584
-0.00204692
0.000266406
-0.00372939
0.000214267
-0.00539779
0.000183257
-0.00681974
4.04982e-05
-0.00782758
-0.000368016
-0.00824643
-0.00122437
-0.00788971
-0.00265625
-0.00655103
-0.0047562
-0.00401287
-0.00757892
-6.77861e-05
-0.0111328
0.00545641
-0.0153738
0.0126739
-0.0202044
0.0216272
-0.0254831
0.0322851
-0.0310372
0.0445485
-0.0367054
0.0582513
-0.042296
0.0732148
-0.0477355
0.089225
-0.0528721
0.105933
-0.0577403
0.123531
-0.0621839
0.140769
-0.0667271
0.159266
-0.0700152
-0.0755819
0.175976
-0.000489027
0.000764611
-0.00152058
0.00129796
-0.00271534
0.00140902
-0.00375304
0.00122096
-0.00437237
0.000659831
-0.00431889
-0.000421496
-0.00336882
-0.00217444
-0.00127517
-0.0047499
0.00220304
-0.00823441
0.00727668
-0.0126526
0.0140934
-0.0179496
0.0227071
-0.0239875
0.033061
-0.0305583
0.0449894
-0.0374115
0.0582367
-0.0442844
0.0724824
-0.0509512
0.0873754
-0.057189
0.102582
-0.0629415
0.117734
-0.0680244
0.132593
-0.0725996
0.146969
-0.0765593
0.160336
-0.0800946
0.173589
-0.0832682
-0.0863856
0.184393
-0.000296899
-0.000908932
-0.00150627
-0.00176149
-0.0013658
-2.63578e-05
0.00255859
0.00665502
0.0124823
0.0201614
0.0296747
0.0408487
0.0533678
0.0668123
0.0807131
0.0945942
0.108055
0.120738
0.132434
0.143053
0.152476
0.161009
0.168641
0.175657
-0.0108079
0.0714079
-0.0793453
-0.00301319
0.0928397
-0.100634
0.00438072
0.112128
-0.119521
0.0100828
0.129169
-0.134871
0.013877
0.143162
-0.146957
0.0172891
0.152897
-0.156309
0.023191
0.15653
-0.162432
0.0346051
0.150407
-0.161821
0.0524435
0.130812
-0.14865
0.0740428
0.0982352
-0.119835
0.0946496
0.0571182
-0.077725
0.111703
0.00908764
-0.026141
0.125758
-0.0469275
0.0328727
0.137148
-0.104982
0.0935923
0.145221
-0.151982
0.143909
0.149655
-0.178627
0.174193
0.150379
-0.186601
0.185877
0.148481
-0.185753
0.187651
0.146061
-0.181967
0.184388
0.142813
-0.177457
0.180704
0.136217
-0.18069
0.187287
0.126126
-0.195921
0.206012
0.116539
-0.205832
0.215419
0.112085
-0.180541
0.184996
0.114844
-0.108664
0.105905
0.124005
-0.00980178
0.000640428
0.13559
0.0841876
-0.0957728
0.145793
0.153567
-0.16377
0.153819
0.193332
-0.201358
0.160576
0.204284
-0.211042
0.164562
0.204835
-0.208821
0.163465
0.224728
-0.223632
0.157369
0.26425
-0.258154
0.148776
0.282466
-0.273873
0.140973
0.239096
-0.231293
0.137318
0.130732
-0.127077
0.139868
-0.0100571
0.00750627
0.14817
-0.134815
0.126514
0.157918
-0.209953
0.200205
0.161303
-0.249767
0.246383
0.155653
-0.296263
0.301912
0.146028
-0.341752
0.351377
0.13859
-0.317803
0.32524
0.134985
-0.186565
0.19017
0.133654
0.000667388
0.000663728
0.130722
0.17065
-0.167717
0.124429
0.280362
-0.274069
0.115831
0.333727
-0.325129
0.1072
0.316637
-0.308007
0.100365
0.251842
-0.245007
0.0962102
0.130844
-0.126688
0.0945788
-0.00214654
0.00377794
0.0956066
-0.140153
0.139125
0.0979958
-0.247747
0.245358
0.10247
-0.272999
0.268525
0.105503
-0.278713
0.27568
0.107672
-0.153884
0.151715
0.112456
-0.0885508
0.083767
0.117833
0.0471182
-0.0524951
0.134719
-0.138264
-0.0343482
0.061816
-0.0243212
0.0828126
-0.0140678
0.101874
-0.00402186
0.119123
0.00630386
0.132837
0.0182996
0.140901
0.0334258
0.141404
0.0527702
0.131063
0.075531
0.108051
0.0983964
0.0753698
0.117443
0.0380716
0.131676
-0.00514542
0.142533
-0.0577841
0.15041
-0.11286
0.154401
-0.155973
0.154699
-0.178925
0.15208
-0.183982
0.147433
-0.181106
0.142699
-0.177233
0.137852
-0.17261
0.1299
-0.172738
0.118095
-0.184116
0.106808
-0.194545
0.101833
-0.175566
0.105433
-0.112264
0.116482
-0.020851
0.130286
0.0703842
0.142827
0.141026
0.15344
0.18272
0.162536
0.195188
0.168694
0.198677
0.170222
0.2232
0.166945
0.267527
0.160294
0.289116
0.152896
0.246494
0.147834
0.135794
0.147237
-0.00945966
0.151486
-0.139065
0.157964
-0.216432
0.159145
-0.250948
0.151618
-0.288735
0.140667
-0.330801
0.133363
-0.310499
0.130975
-0.184177
0.13123
0.000412167
0.129588
0.172292
0.124023
0.285927
0.115593
0.342157
0.10648
0.32575
0.0990329
0.259289
0.0944624
0.135414
0.0928754
-0.000559537
0.0940483
-0.141326
0.0967688
-0.250468
0.102724
-0.278954
0.107074
-0.283063
0.10988
-0.15669
0.115001
-0.0936724
0.119398
0.0427219
0.132088
-0.0431268
0.0514507
-0.0308381
0.070524
-0.01718
0.088216
-0.00267894
0.104622
0.0141182
0.11604
0.0326808
0.122338
0.0534596
0.120625
0.0762305
0.108292
0.0997006
0.0845809
0.120954
0.0541161
0.137254
0.0217716
0.148684
-0.0165749
0.156851
-0.0659517
0.161746
-0.117755
0.162158
-0.156385
0.158625
-0.175392
0.153106
-0.178463
0.146386
-0.174387
0.139736
-0.170583
0.133792
-0.166665
0.125396
-0.164342
0.112512
-0.171233
0.0994664
-0.1815
0.0934053
-0.169505
0.0974113
-0.11627
0.109518
-0.0329575
0.124941
0.0549614
0.139627
0.12634
0.15274
0.169606
0.164141
0.183788
0.172594
0.190224
0.176995
0.218799
0.176808
0.267714
0.17224
0.293685
0.165172
0.253562
0.158546
0.14242
0.154779
-0.00569309
0.154973
-0.139258
0.158143
-0.219602
0.157396
-0.2502
0.148367
-0.279706
0.136165
-0.318599
0.128938
-0.303272
0.127886
-0.183125
0.129572
-0.00127366
0.129175
0.17269
0.124342
0.29076
0.116103
0.350396
0.106482
0.335371
0.098258
0.267513
0.0931622
0.14051
0.0916716
0.000931092
0.0929763
-0.142631
0.0957652
-0.253256
0.102869
-0.286058
0.108644
-0.288838
0.112339
-0.160384
0.117731
-0.0990642
0.121004
0.0394485
0.130394
-0.0317738
0.0411249
-0.018709
0.0574591
-0.00349691
0.0730039
0.0150054
0.0861192
0.0349604
0.0960846
0.0565328
0.100766
0.079033
0.0981245
0.101598
0.085727
0.12287
0.0633087
0.140697
0.0362892
0.153891
0.00857762
0.163463
-0.0261462
0.169783
-0.0722727
0.171768
-0.119739
0.168572
-0.153189
0.161526
-0.168345
0.153418
-0.170355
0.145244
-0.166213
0.137211
-0.16255
0.13022
-0.159674
0.122068
-0.156191
0.109345
-0.15851
0.0949569
-0.167111
0.0870889
-0.161637
0.0904349
-0.119616
0.102785
-0.045308
0.119348
0.0383984
0.135918
0.10977
0.15128
0.154244
0.164822
0.170246
0.175702
0.179344
0.183267
0.211234
0.186325
0.264656
0.183942
0.296068
0.17719
0.260314
0.169032
0.150579
0.162333
0.00100525
0.15868
-0.135606
0.158506
-0.219427
0.155965
-0.24766
0.145769
-0.26951
0.132447
-0.305278
0.125125
-0.29595
0.125437
-0.183436
0.128626
-0.00446231
0.129452
0.171863
0.125394
0.294817
0.117371
0.358419
0.107229
0.345514
0.0980407
0.276701
0.0922282
0.146322
0.0908573
0.00230204
0.0924047
-0.144178
0.0951122
-0.255964
0.102912
-0.293858
0.110068
-0.295995
0.114901
-0.165217
0.120514
-0.104677
0.122572
0.0373905
0.129609
-0.00382596
0.0314874
0.00964674
0.0439864
0.025693
0.0569577
0.043787
0.0680252
0.0638482
0.0760234
0.0851638
0.0794505
0.10651
0.076778
0.126602
0.0656348
0.144041
0.0458698
0.157526
0.0228045
0.167786
-0.00168207
0.175778
-0.0341387
0.180513
-0.0770074
0.179578
-0.118804
0.173045
-0.146657
0.163195
-0.158495
0.153044
-0.160205
0.143899
-0.157068
0.135181
-0.153832
0.127433
-0.151926
0.119649
-0.148407
0.107992
-0.146852
0.0931011
-0.152221
0.0830227
-0.151558
0.0845762
-0.121169
0.0963813
-0.0571132
0.113525
0.0212546
0.13155
0.0917451
0.148768
0.137026
0.164247
0.154767
0.177495
0.166096
0.188205
0.200524
0.194721
0.258141
0.194944
0.295845
0.188913
0.266345
0.179195
0.160297
0.169671
0.0105287
0.162428
-0.128362
0.158955
-0.215954
0.15481
-0.243515
0.143811
-0.258511
0.129477
-0.290944
0.121832
-0.288305
0.123323
-0.184928
0.128172
-0.00931065
0.130386
0.169649
0.127194
0.29801
0.119406
0.366207
0.108712
0.356207
0.098412
0.287002
0.0916677
0.153066
0.0903356
0.00363415
0.0922752
-0.146118
0.0949035
-0.258592
0.102918
-0.301872
0.111231
-0.304308
0.117383
-0.171369
0.1232
-0.110495
0.124024
0.0365671
0.129657
0.0332818
0.0212125
0.0453369
0.0319313
0.0597048
0.0425898
0.0760837
0.0516463
0.0941313
0.0579757
0.11307
0.0605113
0.13157
0.0582788
0.148145
0.0490595
0.161493
0.032522
0.171317
0.0129799
0.179395
-0.0097597
0.186099
-0.0408423
0.188797
-0.0797055
0.184829
-0.114836
0.175361
-0.137188
0.163507
-0.146641
0.152019
-0.148716
0.142251
-0.1473
0.133301
-0.144882
0.125016
-0.14364
0.117647
-0.141039
0.107821
-0.137025
0.0936584
-0.138059
0.0815251
-0.139425
0.0801985
-0.119842
0.09048
-0.0673947
0.107531
0.00420355
0.126471
0.0728052
0.145051
0.118446
0.162107
0.13771
0.177564
0.150639
0.191418
0.18667
0.201307
0.248251
0.20402
0.293132
0.199091
0.271274
0.188803
0.170585
0.176647
0.0226852
0.166099
-0.117814
0.159429
-0.209285
0.153766
-0.237852
0.14233
-0.247075
0.127175
-0.27579
0.118975
-0.280104
0.121428
-0.187381
0.12799
-0.0158732
0.131754
0.165885
0.129615
0.300148
0.122227
0.373596
0.111053
0.367381
0.0995275
0.298527
0.0916061
0.160988
0.0900815
0.00515868
0.0925021
-0.148538
0.0951847
-0.261275
0.102998
-0.309685
0.112077
-0.313388
0.119607
-0.178898
0.12564
-0.116528
0.125294
0.0369134
0.130409
0.0669829
0.0127589
0.0770436
0.0218707
0.08922
0.0304134
0.103332
0.037534
0.118756
0.0425517
0.134727
0.0445405
0.150174
0.0428317
0.163741
0.035493
0.174343
0.0219203
0.182375
0.00494778
0.189503
-0.0168883
0.194803
-0.0461418
0.194673
-0.0795759
0.187425
-0.107589
0.17542
-0.125183
0.16227
-0.133491
0.150145
-0.136592
0.140076
-0.137231
0.131331
-0.136137
0.122901
-0.135211
0.11555
-0.133688
0.107665
-0.12914
0.0957083
-0.126102
0.0827019
-0.126419
0.0779394
-0.11508
0.0855368
-0.074992
0.101622
-0.0118818
0.120801
0.0536262
0.140099
0.099148
0.158305
0.119504
0.175677
0.133268
0.192359
0.169989
0.205683
0.234926
0.211391
0.287424
0.207824
0.274841
0.197167
0.181242
0.182961
0.0368915
0.169429
-0.104282
0.159821
-0.199677
0.152747
-0.230778
0.141179
-0.235507
0.12545
-0.260061
0.116462
-0.271116
0.119566
-0.190484
0.12791
-0.0242171
0.133507
0.160288
0.132661
0.300993
0.125737
0.380521
0.114139
0.378979
0.101442
0.311224
0.0922006
0.170229
0.0901676
0.00719169
0.0930165
-0.151387
0.0959431
-0.264201
0.103269
-0.317011
0.112622
-0.322741
0.121437
-0.187713
0.127707
-0.122798
0.126333
0.0382876
0.131694
0.102736
0.00915719
0.108585
0.0160212
0.117095
0.0219033
0.127701
0.0269284
0.139709
0.0305434
0.15244
0.0318096
0.165072
0.0301996
0.176444
0.0241214
0.185464
0.0129001
0.192975
-0.0025628
0.198825
-0.0227388
0.20128
-0.0485969
0.197249
-0.0755442
0.186863
-0.0972032
0.17323
-0.111549
0.159649
-0.119911
0.14757
-0.124512
0.137417
-0.127078
0.128914
-0.127635
0.12083
-0.127126
0.113435
-0.126293
0.106853
-0.122558
0.097855
-0.117104
0.0858836
-0.114447
0.0783044
-0.107501
0.0822555
-0.078943
0.0960793
-0.0257056
0.114716
0.0349889
0.134085
0.0797796
0.152909
0.100681
0.171711
0.114465
0.190855
0.150845
0.207283
0.218498
0.215644
0.279063
0.213573
0.276912
0.203128
0.191687
0.187909
0.0521112
0.172145
-0.0885184
0.159996
-0.187528
0.151636
-0.222418
0.140187
-0.224058
0.124187
-0.244061
0.114228
-0.261157
0.117596
-0.193853
0.12767
-0.0342905
0.135265
0.152693
0.136067
0.300191
0.129987
0.386601
0.118245
0.39072
0.104419
0.32505
0.0936634
0.180985
0.090746
0.0101091
0.0937987
-0.15444
0.097123
-0.267526
0.103819
-0.323706
0.11294
-0.331863
0.122801
-0.197574
0.129312
-0.129309
0.127114
0.0404859
0.133309
0.14368
0.00922874
0.145786
0.0139153
0.150239
0.0174504
0.156598
0.0205686
0.164402
0.0227396
0.173194
0.0230182
0.182366
0.0210275
0.190916
0.0155713
0.197669
0.00614661
0.202932
-0.00782605
0.205652
-0.0254585
0.203707
-0.0466514
0.195668
-0.0675053
0.183144
-0.0846793
0.16909
-0.0974958
0.155831
-0.106651
0.144247
-0.112929
0.134322
-0.117152
0.125989
-0.119302
0.118438
-0.119575
0.111237
-0.119092
0.105201
-0.116522
0.0988212
-0.110724
0.0895436
-0.10517
0.0809863
-0.0989435
0.0810942
-0.0790509
0.0917352
-0.0363465
0.108752
0.0179722
0.127369
0.061162
0.146067
0.0819834
0.165639
0.0948922
0.186825
0.129659
0.206445
0.198879
0.21819
0.267319
0.218231
0.276871
0.208045
0.201873
0.191663
0.0684926
0.174127
-0.0709817
0.159839
-0.173241
0.150341
-0.212919
0.139197
-0.212914
0.123241
-0.228105
0.112203
-0.250119
0.115364
-0.197014
0.127165
-0.0460907
0.137116
0.142741
0.139864
0.297443
0.134661
0.391805
0.122884
0.402497
0.10821
0.339723
0.0960609
0.193135
0.0919158
0.0142542
0.0948713
-0.157395
0.0986395
-0.271294
0.104683
-0.32975
0.113136
-0.340316
0.123693
-0.20813
0.130412
-0.136028
0.127635
0.0432629
0.135028
0.1752
0.0100042
0.176342
0.0127739
0.178877
0.0149154
0.182549
0.0168962
0.18727
0.0180184
0.192603
0.0176854
0.198091
0.0155397
0.20301
0.010652
0.20651
0.00264642
0.207897
-0.00921285
0.206234
-0.0237948
0.200075
-0.0404929
0.189564
-0.0569937
0.176617
-0.0717332
0.16333
-0.084208
0.150987
-0.0943086
0.140103
-0.102044
0.130624
-0.107673
0.122478
-0.111156
0.115395
-0.112492
0.108763
-0.11246
0.102952
-0.110711
0.0980672
-0.105839
0.0919212
-0.0990237
0.0846198
-0.0916421
0.0821466
-0.0765778
0.0891068
-0.0433068
0.103447
0.00363238
0.120457
0.0441521
0.138272
0.0641675
0.157873
0.0752915
0.180077
0.107455
0.201894
0.177061
0.216583
0.25263
0.218971
0.274482
0.209833
0.211011
0.193786
0.08454
0.175289
-0.0524851
0.159222
-0.157174
0.1487
-0.202397
0.138031
-0.202245
0.122458
-0.212532
0.110371
-0.238033
0.112869
-0.199512
0.126048
-0.0592698
0.138392
0.130397
0.143535
0.292299
0.139932
0.395408
0.128678
0.413751
0.113269
0.355132
0.0995247
0.206879
0.0938599
0.019919
0.0962848
-0.15982
0.100408
-0.275417
0.105861
-0.335203
0.113335
-0.34779
0.124174
-0.21897
0.131004
-0.142858
0.127912
0.0463547
0.136616
0.184679
0.00971817
0.186278
0.0111753
0.188406
0.0127874
0.191226
0.0140754
0.19473
0.0145146
0.198356
0.0140594
0.201686
0.0122099
0.204027
0.00831028
0.204568
0.00210571
0.202988
-0.00763258
0.198434
-0.0192414
0.190493
-0.0325509
0.179958
-0.0464587
0.16818
-0.0599559
0.156328
-0.0723561
0.145146
-0.0831263
0.134998
-0.0918961
0.126028
-0.098704
0.118202
-0.103329
0.11143
-0.105721
0.10547
-0.1065
0.10013
-0.105371
0.0958085
-0.101518
0.0918991
-0.0951143
0.0871467
-0.0868897
0.0842457
-0.0736768
0.0882913
-0.0473524
0.0998195
-0.00789581
0.114486
0.0294853
0.13032
0.0483342
0.148644
0.056967
0.171517
0.0845824
0.196221
0.152357
0.214269
0.234582
0.218967
0.269785
0.210704
0.219274
0.194473
0.100771
0.175262
-0.0332741
0.157992
-0.139905
0.146645
-0.19105
0.1366
-0.192199
0.121756
-0.197689
0.108801
-0.225078
0.11006
-0.200771
0.124476
-0.0736864
0.139565
0.115308
0.147285
0.28458
0.145157
0.397536
0.13435
0.424559
0.118582
0.3709
0.103753
0.221708
0.0965036
0.0271686
0.098084
-0.161401
0.10244
-0.279773
0.107399
-0.340162
0.113698
-0.354088
0.124369
-0.22964
0.131131
-0.14962
0.127986
0.0494998
0.137838
0.176943
0.00843285
0.178471
0.00964649
0.180525
0.0107335
0.183098
0.0115027
0.185849
0.0117633
0.188565
0.0113441
0.19092
0.00985448
0.192425
0.0068054
0.192775
0.00175526
0.190522
-0.00537883
0.185908
-0.0146277
0.178902
-0.0255451
0.170043
-0.0375994
0.160058
-0.0499707
0.149679
-0.0619778
0.139598
-0.0730455
0.130189
-0.0824869
0.121697
-0.0902113
0.114283
-0.0959161
0.107776
-0.0992138
0.102211
-0.100934
0.0974882
-0.100649
0.0934378
-0.0974674
0.090366
-0.0920424
0.0878181
-0.0843418
0.0861519
-0.0720106
0.0886013
-0.0498018
0.0966945
-0.015989
0.108946
0.0172336
0.122595
0.0346855
0.138757
0.0408055
0.159657
0.0636815
0.184461
0.127553
0.206017
0.213025
0.214949
0.260854
0.208997
0.225226
0.194167
0.115601
0.175289
-0.0143962
0.156933
-0.121549
0.144689
-0.178806
0.135206
-0.182716
0.121169
-0.183652
0.107621
-0.211529
0.107453
-0.200603
0.121773
-0.088007
0.139282
0.0978001
0.150248
0.273614
0.151001
0.396782
0.141503
0.434057
0.125457
0.386946
0.109122
0.238042
0.100067
0.0362237
0.100448
-0.161781
0.104885
-0.28421
0.109374
-0.344651
0.114362
-0.359077
0.124406
-0.239684
0.130862
-0.156076
0.12791
0.0524519
0.138471
0.190599
0.008326
-0.190492
0.191411
0.00883476
0.192729
0.00941458
0.194522
0.00971002
0.196745
0.00954036
0.199376
0.00871336
0.202318
0.00691272
0.205257
0.00386618
0.207776
-0.000764276
0.20957
-0.00717235
0.210195
-0.0152526
0.209394
-0.0247445
0.207081
-0.0352862
0.203355
-0.0462448
0.198391
-0.0570137
0.192447
-0.0671015
0.185729
-0.0757686
0.178392
-0.082875
0.170773
-0.0882967
0.162944
-0.0913849
0.155096
-0.0930864
0.147468
-0.0930197
0.139602
-0.0896021
0.131842
-0.084282
0.124604
-0.0771036
0.116796
-0.0642025
0.109288
-0.042294
0.106139
-0.0128404
0.109424
0.0139485
0.118463
0.0256465
0.129803
0.0294657
0.140435
0.0530496
0.15058
0.117408
0.16118
0.202426
0.171581
0.250452
0.181731
0.215077
0.189326
0.108006
0.189989
-0.015059
0.183261
-0.114821
0.173232
-0.168778
0.16226
-0.171744
0.14803
-0.169422
0.131992
-0.19549
0.121498
-0.190109
0.119966
-0.0864748
0.122267
0.0954982
0.123858
0.272024
0.122703
0.397937
0.118047
0.438713
0.111028
0.393965
0.104953
0.244117
0.104052
0.0371251
0.108269
-0.165999
0.112688
-0.288629
0.114446
-0.346409
0.114037
-0.358668
0.118284
-0.24393
0.120309
-0.158102
0.115991
0.0567704
0.138911
0.201728
0.00822012
-0.201622
0.202292
0.00827066
0.203372
0.00833483
0.204902
0.00817962
0.206824
0.00761904
0.209055
0.00648178
0.211456
0.00451233
0.213848
0.0014737
0.215903
-0.00281903
0.21726
-0.0085296
0.217599
-0.0155912
0.216704
-0.0238497
0.214431
-0.0330134
0.210802
-0.0426154
0.205907
-0.0521186
0.199908
-0.0611028
0.193106
-0.0689664
0.185712
-0.0754807
0.178112
-0.0806967
0.170518
-0.0837918
0.162856
-0.0854239
0.155473
-0.0856364
0.14815
-0.0822792
0.140662
-0.0767939
0.133994
-0.0704359
0.128088
-0.0582967
0.122278
-0.0364835
0.118388
-0.00895071
0.119734
0.0126021
0.126484
0.0188972
0.136363
0.0195866
0.146809
0.0426033
0.157817
0.1064
0.169705
0.190537
0.181638
0.23852
0.193347
0.203368
0.202199
0.0991538
0.202889
-0.0157496
0.195038
-0.10697
0.183629
-0.157368
0.171702
-0.159817
0.157021
-0.154741
0.140742
-0.179211
0.129996
-0.179363
0.128521
-0.0850005
0.132048
0.0919713
0.135115
0.268957
0.135233
0.397819
0.131421
0.442525
0.124545
0.400841
0.118064
0.250598
0.116838
0.0383511
0.120182
-0.169343
0.124042
-0.292489
0.124981
-0.347348
0.12304
-0.356727
0.125962
-0.246852
0.127081
-0.159221
0.122678
0.0611738
0.138715
0.213117
0.00814532
-0.213042
0.213581
0.00780654
0.214482
0.00743362
0.215763
0.00689857
0.217358