/*--------------------------------*- C++ -*----------------------------------*\
| =========                 |                                                 |
| \\      /  F ield         | OpenFOAM: The Open Source CFD Toolbox           |
|  \\    /   O peration     | Version:  2512                                  |
|   \\  /    A nd           | Website:  www.openfoam.com                      |
|    \\/     M anipulation  |                                                 |
\*---------------------------------------------------------------------------*/
FoamFile
{
    version     2.0;
    format      ascii;
    arch        "LSB;label=32;scalar=64";
    class       surfaceScalarField;
    location    "5";
    object      phi;
}
// * * * * * * * * * * * * * * * * * * * * * * * * * * * * * * * * * * * * * //

dimensions      [0 3 -1 0 0 0 0];

oriented        oriented;

internalField   nonuniform List<scalar> 
26232
(
-0.000258751
0.00202811
-0.00176935
-0.000205175
0.00359976
-0.00365333
0.000776473
0.00315831
-0.00413996
0.00325793
0.000670261
-0.00315172
0.00778138
-0.00408464
-0.000438814
0.0148647
-0.0113169
0.0042336
0.0247558
-0.020992
0.0111009
0.0372626
-0.0326497
0.0201429
0.0516506
-0.045426
0.031038
0.0667606
-0.058259
0.043149
0.0812817
-0.0701534
0.0556323
0.0940674
-0.0803925
0.0676067
0.104392
-0.0886469
0.0783222
0.112075
-0.0949735
0.0872908
0.117433
-0.0997179
0.0943599
0.121085
-0.103352
0.0997002
0.123688
-0.106308
0.103706
0.125731
-0.108879
0.106836
0.127505
-0.111207
0.109432
0.129105
-0.113365
0.111765
0.130658
-0.115282
0.113729
0.132064
-0.117213
0.115807
0.132913
-0.118238
0.117389
-0.119911
0.119885
0.132938
-9.97767e-05
0.00212788
0.000367701
0.00313228
0.00209022
0.00143579
0.00574346
-0.00298298
0.0119434
-0.0102846
0.0210447
-0.0204182
0.0328646
-0.0328119
0.0465734
-0.0463585
0.0608769
-0.0597295
0.0743934
-0.0717755
0.086032
-0.0817919
0.0952304
-0.0895909
0.101997
-0.0954131
0.106766
-0.0997431
0.110153
-0.103105
0.112714
-0.105913
0.114827
-0.108421
0.116703
-0.110755
0.118461
-0.112964
0.120164
-0.115068
0.121949
-0.117068
0.123742
-0.119006
0.126209
-0.120705
-0.123063
0.129361
0.000102538
0.00202534
0.00112827
0.00210654
0.00382815
-0.00126408
0.00892925
-0.00808408
0.0169393
-0.0182946
0.0277917
-0.0312706
0.0406425
-0.0456627
0.0540893
-0.0598053
0.0666711
-0.0723114
0.0773264
-0.0824308
0.0856152
-0.0900807
0.0916787
-0.0956544
0.0960155
-0.09975
0.0992096
-0.102937
0.101735
-0.10563
0.103895
-0.108073
0.10586
-0.110386
0.10773
-0.112626
0.109573
-0.114807
0.111457
-0.116951
0.113404
-0.119015
0.115485
-0.121088
0.11772
-0.122939
-0.125033
0.11969
0.000311877
0.00171347
0.00198239
0.000436032
0.00580848
-0.00509018
0.0124656
-0.0147412
0.0221064
-0.0279355
0.033988
-0.0431522
0.0466401
-0.0583147
0.0584939
-0.0716592
0.0684571
-0.0822745
0.0761383
-0.0901121
0.081739
-0.0956813
0.0857701
-0.0996855
0.0887763
-0.102756
0.0911771
-0.105338
0.0932394
-0.107692
0.0951196
-0.109953
0.0969115
-0.112178
0.098673
-0.114387
0.100453
-0.116587
0.10227
-0.118768
0.104191
-0.120936
0.106229
-0.123126
0.108505
-0.125216
-0.127689
0.111162
0.00053529
0.00117818
0.00291923
-0.00194791
0.00795565
-0.0101266
0.0160826
-0.0228682
0.0268149
-0.0386678
0.0386957
-0.0550329
0.05001
-0.0696291
0.0595406
-0.0811897
0.0668508
-0.0895847
0.0721377
-0.095399
0.0759068
-0.0994505
0.0786889
-0.102468
0.080894
-0.104961
0.0827881
-0.107232
0.0845271
-0.109432
0.086197
-0.111623
0.0878433
-0.113825
0.0894967
-0.116041
0.0911783
-0.118268
0.0929218
-0.120512
0.0947591
-0.122773
0.0966902
-0.125057
0.0987922
-0.127318
-0.129756
0.100859
0.000789701
0.000388475
0.00395027
-0.00510848
0.0101853
-0.0163616
0.0194346
-0.0321175
0.0304319
-0.0496651
0.0413155
-0.0659165
0.0506346
-0.0789482
0.0577961
-0.0883513
0.062929
-0.0947176
0.0665221
-0.0989921
0.0691131
-0.102042
0.0711261
-0.104481
0.0728362
-0.106671
0.074397
-0.108793
0.0758846
-0.110919
0.0773356
-0.113074
0.0787733
-0.115262
0.0802183
-0.117486
0.0816959
-0.119746
0.0832289
-0.122045
0.0848393
-0.124384
0.0865535
-0.126771
0.0884233
-0.129188
-0.131774
0.0904409
0.00108242
-0.000693944
0.00504984
-0.0090759
0.0123189
-0.0236307
0.0220999
-0.0418985
0.0325063
-0.0600714
0.0417599
-0.0751701
0.048973
-0.0861613
0.0541175
-0.0934958
0.0576365
-0.0982366
0.0600804
-0.101436
0.0619022
-0.103863
0.0633985
-0.105977
0.0647327
-0.108005
0.0659845
-0.110045
0.0671929
-0.112128
0.0683821
-0.114263
0.0695716
-0.116452
0.0707801
-0.118694
0.0720241
-0.12099
0.0733199
-0.123341
0.0746854
-0.125749
0.0761263
-0.128212
0.0776685
-0.13073
-0.133348
0.0792431
0.00140483
-0.00209877
0.00614009
-0.0138112
0.014106
-0.0315966
0.0237361
-0.0515286
0.0329311
-0.0692665
0.0403508
-0.0825899
0.0456775
-0.091488
0.0492468
-0.097065
0.0516113
-0.100601
0.0532655
-0.10309
0.054545
-0.105143
0.0556381
-0.10707
0.0566371
-0.109004
0.0575853
-0.110993
0.0585056
-0.113048
0.0594129
-0.11517
0.0603201
-0.117359
0.06124
-0.119614
0.0621865
-0.121936
0.0631748
-0.124329
0.0642171
-0.126791
0.0653305
-0.129325
0.0665352
-0.131934
-0.134627
0.0678139
0.00173518
-0.00383395
0.00710787
-0.0191838
0.0153141
-0.0398028
0.024212
-0.0604264
0.0318943
-0.0769488
0.0375649
-0.0882605
0.0413347
-0.0952577
0.0437176
-0.0994479
0.0452517
-0.102135
0.046329
-0.104167
0.0471779
-0.105992
0.0479115
-0.107804
0.0485809
-0.109674
0.0492101
-0.111622
0.0498131
-0.113651
0.0504022
-0.115759
0.0509897
-0.117947
0.0515886
-0.120213
0.0522116
-0.122559
0.0528695
-0.124987
0.0535729
-0.127495
0.0543299
-0.130082
0.0551439
-0.132748
-0.13548
0.0559966
0.00204313
-0.00587708
0.00783454
-0.0249753
0.0158095
-0.0477778
0.0236003
-0.0682173
0.0297195
-0.083068
0.0338563
-0.0923973
0.0363891
-0.0977905
0.0378785
-0.100937
0.038786
-0.103043
0.0393985
-0.10478
0.0398627
-0.106456
0.0402446
-0.108185
0.0405727
-0.110002
0.0408627
-0.111912
0.0411261
-0.113914
0.0413736
-0.116007
0.0416156
-0.118189
0.0418624
-0.12046
0.042124
-0.122821
0.0424109
-0.125274
0.0427326
-0.127817
0.0430994
-0.130449
0.0435186
-0.133168
-0.135956
0.0439949
0.00229841
-0.00817549
0.00823268
-0.0309095
0.0155867
-0.0551318
0.0220955
-0.0747261
0.0267471
-0.0877195
0.0295962
-0.0952464
0.0311548
-0.0993491
0.0319511
-0.101734
0.0323504
-0.103442
0.0325514
-0.104981
0.0326452
-0.10655
0.03267
-0.10821
0.0326439
-0.109976
0.032578
-0.111846
0.0324819
-0.113818
0.0323646
-0.115889
0.0322353
-0.118059
0.0321037
-0.120328
0.0319797
-0.122697
0.0318729
-0.125167
0.0317928
-0.127737
0.0317455
-0.130402
0.0317296
-0.133152
-0.135973
0.0317469
0.00247982
-0.0106553
0.0082741
-0.0367038
0.0147466
-0.0616044
0.0199419
-0.0799214
0.0232841
-0.0910618
0.02507
-0.0970322
0.0258485
-0.100128
0.0260758
-0.101961
0.0260272
-0.103393
0.0258353
-0.104789
0.0255557
-0.10627
0.0252116
-0.107866
0.0248148
-0.109579
0.0243743
-0.111406
0.0238984
-0.113342
0.0233951
-0.115386
0.0228722
-0.117536
0.0223378
-0.119794
0.0217997
-0.122159
0.0212668
-0.124634
0.0207492
-0.127219
0.0202572
-0.12991
0.0197984
-0.132693
0.0193834
-0.135558
0.000472813
0.00817787
-0.00865068
0.000782694
0.0194249
-0.0197348
0.000514357
0.0263955
-0.0261272
-0.000322889
0.0301276
-0.0292904
-0.00152107
0.0319184
-0.0307203
-0.00284969
0.0327508
-0.0314222
-0.00411597
0.033096
-0.0318297
-0.00517088
0.03302
-0.0319651
-0.00589638
0.0323813
-0.0316558
-0.00619639
0.0309837
-0.0306837
-0.00599703
0.0286545
-0.0288539
-0.00525386
0.0252744
-0.0260175
-0.00395883
0.0207847
-0.0220798
-0.00214477
0.015184
-0.0169981
0.000113448
0.00851443
-0.0107727
0.00275712
0.00082028
-0.00346395
0.00580136
-0.00784216
0.00479792
0.009175
-0.0174713
0.0140976
0.0129342
-0.0281487
0.0243895
0.0172207
-0.0398739
0.0355874
0.0222941
-0.052579
0.0475056
0.0282506
-0.0656374
0.0596808
0.03531
-0.0786738
0.0716144
-0.0901404
0.0430452
0.0824052
0.000836468
0.0073414
0.00196045
0.0183009
0.00271533
0.0256406
0.00298318
0.0298597
0.00293689
0.0319647
0.00283561
0.0328521
0.00290926
0.0330223
0.00332364
0.0326057
0.00418686
0.0315181
0.00556438
0.0296062
0.00748584
0.026733
0.00994721
0.022813
0.0129112
0.0178208
0.0163082
0.011787
0.0200372
0.00478534
0.0240224
-0.00316489
0.0281815
-0.0120013
0.0325014
-0.0217912
0.0370672
-0.0327145
0.0419931
-0.0447997
0.0475328
-0.0581187
0.0536256
-0.0717301
0.0603766
-0.0854248
-0.0971111
0.0673473
0.00110147
0.00623993
0.00295035
0.016452
0.00472157
0.0238694
0.00614054
0.0284408
0.00730158
0.0308037
0.0084507
0.031703
0.00983414
0.0316389
0.0116311
0.0308087
0.0139452
0.029204
0.0168188
0.0267326
0.0202488
0.0233031
0.0241956
0.0188662
0.0285877
0.0134287
0.0333202
0.0070545
0.0382814
-0.000175892
0.043462
-0.0083454
0.0487829
-0.0173222
0.0542904
-0.0272987
0.0601568
-0.0385809
0.0664655
-0.0511084
0.0733996
-0.0650529
0.0805969
-0.0789274
0.0879208
-0.0927487
-0.103708
0.0945172
0.00122582
0.0050141
0.00359433
0.0140835
0.00623324
0.0212305
0.00872743
0.0259466
0.0110492
0.0284819
0.0133818
0.0293703
0.0159556
0.0290652
0.0189528
0.0278115
0.0224776
0.0256792
0.0265618
0.0226484
0.0311804
0.0186844
0.0362664
0.0137802
0.0417216
0.00797353
0.0473966
0.00137947
0.0533837
-0.00616296
0.0594885
-0.0144502
0.0658538
-0.0236875
0.0726349
-0.0340799
0.0800748
-0.0460208
0.0881654
-0.059199
0.0968468
-0.0737342
0.105409
-0.0874901
0.113485
-0.100824
-0.110212
0.119989
0.00120068
0.00381342
0.00380161
0.0114826
0.00702092
0.0180112
0.0103662
0.0226013
0.013681
0.0251671
0.0170451
0.0260063
0.020632
0.0254783
0.0246028
0.0238407
0.0290556
0.0212263
0.0340161
0.0176879
0.0394481
0.0132524
0.0452711
0.00795729
0.0513579
0.00188664
0.0578085
-0.00507111
0.0644517
-0.0128062
0.0714664
-0.0214649
0.0791055
-0.0313265
0.0876106
-0.042585
0.0970928
-0.055503
0.107229
-0.0693348
0.117424
-0.0839293
0.126607
-0.0966736
0.134209
-0.108426
-0.11516
0.139157
0.00104894
0.00276448
0.00357317
0.00895837
0.00698848
0.0145959
0.0108184
0.0187714
0.0148162
0.0211693
0.0189487
0.0218738
0.0233012
0.0211257
0.0279831
0.0191588
0.0330681
0.0161413
0.0385731
0.0121829
0.0444651
0.00736041
0.0506682
0.00175419
0.0572969
-0.00474201
0.0642935
-0.0120677
0.0718903
-0.0204031
0.0804042
-0.0299788
0.0901269
-0.0410492
0.101114
-0.0535719
0.112979
-0.0673686
0.124881
-0.0812362
0.13567
-0.0947186
0.144242
-0.105245
0.150079
-0.114264
-0.117789
0.152708
0.000811395
0.00195309
0.00299225
0.00677751
0.00620355
0.0113846
0.0100693
0.0149057
0.0143195
0.016919
0.0188362
0.0173571
0.0236135
0.0163484
0.028693
0.0140793
0.0341145
0.0107198
0.0398984
0.00639904
0.0460476
0.00121117
0.052753
-0.00495118
0.0600827
-0.0120718
0.068364
-0.0203489
0.0779485
-0.0299876
0.0890838
-0.0411141
0.101675
-0.0536408
0.115175
-0.0670717
0.128505
-0.0806984
0.140443
-0.093174
0.149725
-0.104001
0.155816
-0.111337
0.158647
-0.117094
-0.117944
0.158802
0.00052948
0.00142361
0.00218543
0.00512156
0.00486668
0.00870333
0.00834379
0.0114286
0.0123883
0.0128745
0.0168505
0.012895
0.0216676
0.0115313
0.026842
0.00890492
0.0324249
0.00513695
0.0385035
0.00032041
0.0453641
-0.0056494
0.0532147
-0.0128017
0.0624494
-0.0213065
0.0733845
-0.031284
0.086096
-0.0426991
0.10026
-0.055278
0.115052
-0.0684329
0.129304
-0.0813236
0.141633
-0.0930273
0.15103
-0.102571
0.156834
-0.109805
0.159442
-0.113944
0.159479
-0.117131
-0.116655
0.158189
0.000236633
0.00118697
0.00128623
0.00407196
0.00325022
0.00673934
0.00605284
0.00862597
0.00955473
0.0093726
0.0136441
0.00880556
0.0182851
0.00689035
0.0235409
0.00364915
0.0295927
-0.000914888
0.036766
-0.00685292
0.0453901
-0.0142735
0.055831
-0.0232426
0.0682508
-0.0337263
0.0824617
-0.0454949
0.0978374
-0.0580748
0.113346
-0.0707865
0.127703
-0.0827898
0.139694
-0.0933151
0.14841
-0.101744
0.153697
-0.107857
0.155871
-0.111979
0.156099
-0.114172
0.155175
-0.116207
-0.115771
0.154291
-3.41358e-05
0.00122111
0.000436751
0.00360108
0.0016787
0.00549739
0.00376403
0.00654064
0.00668826
0.00644836
0.0104708
0.00502305
0.0152255
0.00213566
0.0211964
-0.00232182
0.0287324
-0.00845082
0.0381999
-0.0163204
0.0498142
-0.0258879
0.0634973
-0.0369256
0.0787603
-0.0489893
0.0947078
-0.0614424
0.11016
-0.0735269
0.12387
-0.0844966
0.134815
-0.0937348
0.142463
-0.100963
0.146896
-0.106177
0.148883
-0.109844
0.149275
-0.112372
0.149273
-0.11417
0.14906
-0.115994
-0.116111
0.149401
-0.000234881
0.00145599
-0.000185258
0.00355145
0.000544748
0.00476739
0.00218842
0.00489697
0.00492948
0.00370729
0.00899779
0.00095474
0.0147069
-0.00357348
0.0224294
-0.0100443
0.0324605
-0.0184819
0.0448439
-0.0287038
0.0592351
-0.0402791
0.0748695
-0.05256
0.0906542
-0.064774
0.105361
-0.0761492
0.117883
-0.0860494
0.127486
-0.0940989
0.133993
-0.100242
0.137795
-0.104764
0.139685
-0.108068
0.140564
-0.110722
0.14104
-0.112849
0.141788
-0.114918
0.142492
-0.116697
-0.117393
0.143773
-0.000313363
-0.000415241
0.000212186
0.00195744
0.00522592
0.0104143
0.0179417
0.0280403
0.0405964
0.0550416
0.0703948
0.0854415
0.0989897
0.110131
0.118442
0.124043
0.127507
0.129578
0.130942
0.131985
0.132866
0.133755
0.134447
0.13694
0.0485009
-0.130593
0.125137
0.0521786
-0.140561
0.136884
0.0522681
-0.145676
0.145586
0.0484788
-0.148796
0.152585
0.0433362
-0.152682
0.157825
0.0418411
-0.155779
0.157274
0.0480518
-0.150976
0.144765
0.0619055
-0.130732
0.116878
0.0793474
-0.0930863
0.0756443
0.0967315
-0.0418907
0.0245066
0.112889
0.0174126
-0.0335702
0.127318
0.0777033
-0.0921322
0.139212
0.128209
-0.140103
0.147711
0.161126
-0.169625
0.152356
0.176987
-0.181632
0.153861
0.182457
-0.183962
0.154065
0.182184
-0.182388
0.153638
0.179957
-0.17953
0.151295
0.185307
-0.182963
0.146143
0.204497
-0.199346
0.139691
0.224389
-0.217937
0.134638
0.215872
-0.210819
0.132759
0.158974
-0.157094
0.134795
0.060396
-0.0624319
0.14014
-0.049857
0.0445118
0.146463
-0.141494
0.135172
0.151871
-0.198941
0.193534
0.156047
-0.221955
0.217778
0.157896
-0.224696
0.222847
0.155407
-0.230251
0.23274
0.147852
-0.246467
0.254022
0.136582
-0.256664
0.267935
0.124976
-0.237049
0.248655
0.117132
-0.17214
0.179983
0.116037
-0.0672044
0.0682997
0.121404
0.0509807
-0.0563482
0.130751
0.149293
-0.15864
0.138436
0.212572
-0.220257
0.138772
0.254777
-0.255113
0.13151
0.288075
-0.280812
0.121461
0.296264
-0.286215
0.114261
0.249045
-0.241844
0.114035
0.13638
-0.136154
0.120601
-0.000810981
-0.00575592
0.126499
-0.120423
0.114525
0.126702
-0.211357
0.211155
0.122837
-0.279293
0.283157
0.11954
-0.304366
0.307664
0.118554
-0.243053
0.244039
0.119374
-0.123474
0.122654
0.119052
0.0554771
-0.0551544
0.11726
0.220556
-0.218764
0.115457
0.317068
-0.315264
0.114501
0.328726
-0.32777
0.111522
0.154433
-0.151454
0.10783
-0.0431777
0.0468691
0.102561
-0.245936
0.251205
0.100631
-0.375552
0.377482
0.0956961
-0.103134
0.108069
0.0804575
-0.0769422
0.0689091
-0.132155
0.0700557
-0.141708
0.0690652
-0.144685
0.0637321
-0.143462
0.0538467
-0.142797
0.0433214
-0.145253
0.0386072
-0.146262
0.0436218
-0.135747
0.0570457
-0.10651
0.0747226
-0.0595676
0.0938045
-0.00166924
0.112351
0.0591565
0.128962
0.111599
0.142055
0.148032
0.150732
0.168311
0.155674
0.177514
0.158693
0.179165
0.160648
0.178002
0.160905
0.185051
0.158932
0.20647
0.155477
0.227844
0.151891
0.219458
0.149187
0.161677
0.148239
0.0613438
0.149615
-0.0512329
0.152199
-0.144078
0.154287
-0.20103
0.155516
-0.223184
0.154993
-0.224172
0.1505
-0.225758
0.141186
-0.237153
0.128779
-0.244257
0.11709
-0.225361
0.110308
-0.165358
0.111189
-0.0680852
0.119392
0.0427781
0.131212
0.137472
0.140504
0.20328
0.142123
0.253158
0.136027
0.294171
0.126348
0.305943
0.118295
0.257097
0.116224
0.138452
0.121483
-0.00607004
0.126994
-0.125934
0.12679
-0.211153
0.122052
-0.274556
0.11845
-0.300764
0.117813
-0.242416
0.119091
-0.124753
0.119731
0.0548373
0.118689
0.221597
0.117707
0.31805
0.116642
0.32979
0.112909
0.158166
0.108467
-0.0387356
0.101651
-0.23912
0.100166
-0.374067
0.0971738
-0.100142
0.0838603
0.0913469
-0.128984
0.0873397
-0.137701
0.0830554
-0.140401
0.0773547
-0.137762
0.0671132
-0.132555
0.0522884
-0.130429
0.0385818
-0.132555
0.0333582
-0.130523
0.0395502
-0.112702
0.0546898
-0.0747072
0.0747098
-0.0216892
0.0966932
0.037173
0.117683
0.0906087
0.135285
0.130431
0.148128
0.155468
0.156772
0.16887
0.162889
0.173048
0.167572
0.173318
0.170859
0.181764
0.172421
0.204908
0.172219
0.228046
0.170267
0.22141
0.166546
0.165399
0.162255
0.0656345
0.159402
-0.04838
0.158088
-0.142763
0.156834
-0.199777
0.155162
-0.221511
0.152463
-0.221474
0.14648
-0.219775
0.136036
-0.226709
0.122783
-0.231004
0.11087
-0.213447
0.104938
-0.159426
0.1076
-0.0707467
0.118137
0.032241
0.132119
0.12349
0.143101
0.192298
0.146411
0.249847
0.141873
0.29871
0.132799
0.315016
0.123953
0.265944
0.119751
0.142653
0.123124
-0.00944316
0.128052
-0.130863
0.127502
-0.210602
0.121824
-0.268878
0.117646
-0.296587
0.117269
-0.242039
0.119146
-0.126629
0.120872
0.0531109
0.120637
0.221833
0.120403
0.318285
0.119269
0.330924
0.114896
0.162539
0.10981
-0.0336498
0.101538
-0.230848
0.100302
-0.372831
0.0992124
-0.099053
0.0870549
0.11373
-0.122725
0.105516
-0.129486
0.0964246
-0.13131
0.0883003
-0.129637
0.0797006
-0.123955
0.0662081
-0.116936
0.0483573
-0.114704
0.0339075
-0.116073
0.0305878
-0.109383
0.0399486
-0.084068
0.0584106
-0.0401512
0.0819424
0.0136413
0.106067
0.0664841
0.127408
0.10909
0.144093
0.138783
0.15635
0.156613
0.165563
0.163836
0.173004
0.165876
0.179344
0.175425
0.184505
0.199746
0.187804
0.224747
0.188002
0.221212
0.1838
0.169601
0.176278
0.073156
0.169387
-0.0414884
0.164184
-0.137561
0.159565
-0.195157
0.155079
-0.217026
0.150332
-0.216727
0.143166
-0.212609
0.132133
-0.215677
0.118535
-0.217406
0.106418
-0.20133
0.100862
-0.15387
0.104764
-0.0746491
0.117192
0.0198135
0.133153
0.107529
0.146092
0.179359
0.151481
0.244458
0.148745
0.301446
0.140559
0.323202
0.131169
0.275334
0.12474
0.149082
0.125653
-0.0103563
0.129661
-0.134871
0.128817
-0.209757
0.122169
-0.26223
0.117179
-0.291597
0.116949
-0.241808
0.119499
-0.129179
0.122419
0.0501909
0.123033
0.221218
0.123478
0.317839
0.12231
0.332092
0.117419
0.167431
0.111848
-0.0280787
0.102206
-0.221206
0.101007
-0.371632
0.101773
-0.0998196
0.0899597
0.129794
-0.113362
0.119279
-0.118971
0.107653
-0.119685
0.096233
-0.118217
0.0870664
-0.114789
0.0777352
-0.107605
0.0630484
-0.100017
0.0447565
-0.0977812
0.0322992
-0.0969254
0.0330498
-0.0848186
0.0467942
-0.0538956
0.069242
-0.00880653
0.0945919
0.0411342
0.118529
0.085153
0.138535
0.118777
0.154182
0.140966
0.166364
0.151654
0.17638
0.155861
0.185464
0.166341
0.193986
0.191224
0.200745
0.217989
0.203188
0.218768
0.199252
0.173537
0.189841
0.082567
0.179169
-0.0308163
0.170019
-0.128411
0.162167
-0.187305
0.155088
-0.209947
0.148513
-0.210152
0.140551
-0.204647
0.129415
-0.20454
0.11591
-0.203902
0.10368
-0.1891
0.098073
-0.148263
0.102545
-0.0791215
0.116246
0.00611292
0.133913
0.0898623
0.149003
0.164269
0.156964
0.236497
0.156668
0.301742
0.14978
0.33009
0.140018
0.285096
0.131258
0.157843
0.129138
-0.00823652
0.131762
-0.137495
0.130658
-0.208653
0.123068
-0.254639
0.117045
-0.285574
0.116818
-0.241582
0.120082
-0.132443
0.124296
0.0459772
0.125804
0.219711
0.126862
0.316781
0.125693
0.333262
0.120401
0.172722
0.114546
-0.0222237
0.103646
-0.210306
0.102232
-0.370218
0.104819
-0.102407
0.0925043
0.140365
-0.101019
0.127594
-0.1062
0.115368
-0.107459
0.103307
-0.106156
0.0924025
-0.103884
0.0842828
-0.0994852
0.075469
-0.0912037
0.0610127
-0.0833248
0.044413
-0.0803257
0.0358594
-0.076265
0.0415497
-0.0595859
0.0591791
-0.0264359
0.0834491
0.0168643
0.10835
0.0602519
0.130777
0.0963496
0.149422
0.122321
0.164408
0.136667
0.176799
0.143469
0.188271
0.154869
0.199713
0.179782
0.209561
0.208141
0.214184
0.214145
0.210873
0.176847
0.200566
0.0928743
0.187504
-0.0177543
0.175149
-0.116057
0.164463
-0.176619
0.155127
-0.20061
0.146895
-0.20192
0.138297
-0.196049
0.127493
-0.193737
0.114584
-0.190993
0.102454
-0.17697
0.0964175
-0.142227
0.10069
-0.0833941
0.114952
-0.00814897
0.134039
0.0707756
0.151423
0.146885
0.162254
0.225665
0.164711
0.299285
0.159603
0.335198
0.149909
0.294791
0.139085
0.168667
0.133568
-0.00271986
0.134266
-0.138193
0.1329
-0.207288
0.124481
-0.24622
0.117225
-0.278318
0.116828
-0.241185
0.120809
-0.136424
0.126403
0.0403826
0.128846
0.217268
0.13047
0.315156
0.129345
0.334387
0.123758
0.178309
0.117847
-0.016313
0.105846
-0.198304
0.103939
-0.368311
0.108288
-0.106756
0.0946102
0.145566
-0.0877826
0.131888
-0.0925214
0.119095
-0.0946661
0.107797
-0.0948576
0.097155
-0.0932427
0.088207
-0.0905372
0.0821288
-0.0851254
0.0747961
-0.0759922
0.061977
-0.0675066
0.0484152
-0.0627032
0.044183
-0.0553537
0.0536488
-0.0359017
0.0739775
-0.00346454
0.0979889
0.0362405
0.121544
0.0727947
0.142343
0.101522
0.159592
0.119418
0.173879
0.129183
0.187148
0.1416
0.200955
0.165975
0.213728
0.195368
0.220878
0.206995
0.218789
0.178936
0.208262
0.103401
0.193793
-0.00328534
0.179204
-0.101468
0.166194
-0.163609
0.154992
-0.189408
0.145409
-0.192337
0.136279
-0.186919
0.125993
-0.18345
0.114138
-0.179137
0.102489
-0.165321
0.0957866
-0.135524
0.0991058
-0.0867133
0.112976
-0.0220196
0.133138
0.0506139
0.152863
0.12716
0.166938
0.21159
0.172774
0.29345
0.170157
0.337815
0.160797
0.30415
0.148032
0.181432
0.138848
0.00646412
0.137077
-0.136422
0.135377
-0.205588
0.126334
-0.237177
0.117699
-0.269682
0.116907
-0.240394
0.121577
-0.141093
0.128646
0.0333132
0.132077
0.213837
0.134216
0.313017
0.133177
0.335426
0.127404
0.184082
0.121672
-0.0105807
0.108777
-0.185409
0.106113
-0.365648
0.11211
-0.112753
0.0961874
0.145676
-0.0752701
0.133362
-0.0802068
0.121447
-0.0827515
0.110769
-0.0841792
0.101402
-0.0838755
0.092606
-0.0817416
0.0857208
-0.0782402
0.0816671
-0.0719384
0.0764045
-0.062244
0.0663604
-0.052659
0.0563536
-0.045347
0.0556007
-0.0351487
0.0673146
-0.0151785
0.0882046
0.0153506
0.111822
0.049177
0.134207
0.0791378
0.153147
0.100478
0.16855
0.11378
0.182654
0.127495
0.197842
0.150788
0.212767
0.180443
0.222249
0.197514
0.221958
0.179228
0.212358
0.113002
0.197865
0.0112075
0.182031
-0.0856344
0.167255
-0.148833
0.154527
-0.176681
0.143881
-0.181691
0.134308
-0.177346
0.124562
-0.173704
0.114055
-0.16863
0.103402
-0.154669
0.0961002
-0.128222
0.0976863
-0.0882994
0.110291
-0.0346241
0.131034
0.0298705
0.152989
0.105205
0.170256
0.194323
0.179454
0.284251
0.179733
0.337536
0.171656
0.312227
0.157473
0.195615
0.144832
0.0191049
0.140101
-0.13169
0.137907
-0.203395
0.128523
-0.227793
0.11845
-0.259609
0.116996
-0.23894
0.122281
-0.146378
0.130907
0.0246873
0.135381
0.209363
0.137992
0.310406
0.137116
0.336302
0.13126
0.189938
0.125927
-0.00524808
0.112392
-0.171874
0.108747
-0.362003
0.11621
-0.120216
0.0971395
0.143385
-0.0643641
0.132611
-0.0694325
0.122293
-0.0724335
0.11258
-0.0744664
0.103976
-0.0752714
0.0964379
-0.0742038
0.0896064
-0.0714087
0.0847636
-0.0670956
0.082597
-0.0600774
0.0798754
-0.0499374
0.0734967
-0.0389682
0.0671656
-0.0288177
0.0686044
-0.0166173
0.0815146
0.0024405
0.101907
0.0287847
0.124702
0.0563426
0.14531
0.07987
0.161923
0.0971662
0.176368
0.113051
0.191964
0.135191
0.208466
0.163942
0.220361
0.185619
0.222097
0.177491
0.213796
0.121303
0.199273
0.0257302
0.183212
-0.0695732
0.167386
-0.133006
0.153553
-0.162848
0.142191
-0.170329
0.132281
-0.167436
0.122934
-0.164357
0.113804
-0.1595
0.104666
-0.145531
0.0972681
-0.120824
0.0967146
-0.0877459
0.107035
-0.0449446
0.127433
0.00947282
0.151359
0.0812794
0.17223
0.173451
0.185308
0.271174
0.188718
0.334127
0.182482
0.318463
0.167289
0.210808
0.151201
0.0351925
0.143245
-0.123734
0.140306
-0.200456
0.130912
-0.218398
0.119454
-0.248151
0.117037
-0.236523
0.122805
-0.152147
0.133093
0.0143995
0.138702
0.203754
0.141721
0.307388
0.14107
0.336952
0.135251
0.195758
0.130512
-0.000509227
0.116627
-0.157989
0.111823
-0.357198
0.120513
-0.128906
0.0973683
0.140469
-0.0554325
0.131139
-0.060102
0.121954
-0.0632488
0.113313
-0.0658254
0.105325
-0.0672837
0.0983618
-0.0672402
0.0924939
-0.0655408
0.0876098
-0.0622115
0.0846719
-0.0571395
0.0843835
-0.0496489
0.0842817
-0.0388664
0.081528
-0.0260641
0.0784509
-0.0135402
0.0813808
-0.000489317
0.0937453
0.0164202
0.11258
0.0375074
0.132706
0.0597447
0.150417
0.0794546
0.166212
0.0972564
0.182866
0.118537
0.200122
0.146686
0.213035
0.172706
0.216736
0.17379
0.210936
0.127103
0.198805
0.0378617
0.183322
-0.0540903
0.166801
-0.116486
0.151968
-0.148015
0.140081
-0.158443
0.130001
-0.157355
0.120898
-0.155254
0.112925
-0.151527
0.105621
-0.138227
0.0989694
-0.114172
0.0965055
-0.0852819
0.103625
-0.0520643
0.122558
-0.00945953
0.147771
0.0560655
0.171617
0.149606
0.188294
0.254496
0.195136
0.327284
0.19146
0.322139
0.176701
0.225566
0.158076
0.0538183
0.146447
-0.112105
0.142398
-0.196407
0.133319
-0.209319
0.120651
-0.235484
0.116983
-0.232855
0.123044
-0.158208
0.135069
0.00237466
0.141913
0.19691
0.145302
0.303999
0.144972
0.337282
0.139329
0.201402
0.135336
0.00348301
0.121401
-0.144053
0.115314
-0.351112
0.124944
-0.138536
0.0967804
0.136231
-0.0478904
0.127982
-0.0518527
0.119648
-0.0549153
0.111705
-0.0578821
0.104372
-0.0599506
0.0978572
-0.0607257
0.0925476
-0.0602312
0.0885276
-0.0581914
0.0856664
-0.0542783
0.0846353
-0.0486179
0.0862551
-0.0404863
0.0891282
-0.0289372
0.0906124
-0.0150244
0.0917278
-0.00160468
0.0955218
0.0126262
0.105493
0.0275363
0.11993
0.0453077
0.135315
0.0640691
0.151101
0.0814712
0.169178
0.100459
0.188995
0.126869
0.205073
0.156628
0.211167
0.167696
0.206938
0.131332
0.19571
0.0490896
0.180979
-0.0393597
0.164559
-0.100066
0.149319
-0.132775
0.13727
-0.146393
0.127314
-0.147399
0.11841
-0.14635
0.111244
-0.144361
0.105716
-0.1327
0.100622
-0.109078
0.09723
-0.0818902
0.100784
-0.0556179
0.116582
-0.0252581
0.142242
0.030406
0.169669
0.122178
0.190528
0.233637
0.200375
0.317437
0.198626
0.323889
0.185238
0.238955
0.164733
0.0743226
0.149557
-0.096929
0.144008
-0.190858
0.135575
-0.200886
0.122065
-0.221974
0.116847
-0.227636
0.122868
-0.164229
0.136798
-0.0115553
0.145008
0.1887
0.148689
0.300318
0.14875
0.33722
0.143452
0.2067
0.140283
0.00665146
0.126608
-0.130378
0.119199
-0.343702
0.129447
-0.148783
0.0953025
0.13081
-0.0417608
0.123735
-0.0447778
0.116617
-0.047797
0.109592
-0.0508577
0.103078
-0.0534358
0.0973977
-0.0550459
0.0925883
-0.0554218
0.0888122
-0.0544153
0.0861993
-0.0516654
0.0846865
-0.0471051
0.0850931
-0.0408928
0.0882352
-0.0320793
0.0928799
-0.0196691
0.0964815
-0.00520628
0.100266
0.0088415
0.105496
0.022306
0.113216
0.0375885
0.123084
0.054201
0.135378
0.0691768
0.151586
0.0842514
0.170785
0.107669
0.18738
0.140033
0.196297
0.15878
0.197798
0.129831
0.192479
0.0544086
0.179864
-0.026745
0.163303
-0.083504
0.147252
-0.116724
0.134787
-0.133928
0.124963
-0.137574
0.116139
-0.137527
0.109307
-0.137528
0.105084
-0.128477
0.101785
-0.105779
0.0985672
-0.078672
0.0991797
-0.0562304
0.110608
-0.0366868
0.134374
0.00664012
0.163304
0.0932491
0.188054
0.208887
0.202286
0.303205
0.204006
0.322169
0.192305
0.250655
0.171556
0.0950717
0.153094
-0.0784666
0.14556
-0.183325
0.137796
-0.193122
0.123875
-0.208052
0.116934
-0.220695
0.122508
-0.169804
0.137933
-0.0269806
0.147801
0.178833
0.151813
0.296306
0.152346
0.336687
0.147576
0.21147
0.145359
0.00886807
0.132173
-0.117193
0.123482
-0.335011
0.133969
-0.15927
0.0928797
0.187659
-0.0356949
-0.193725
0.182558
-0.0396768
0.177412
-0.0426509
0.171822
-0.0452673
0.165771
-0.0473853
0.15944
-0.0487151
0.152965
-0.0489463
0.146438
-0.0478882
0.140017
-0.0452446
0.133739
-0.040827
0.127676
-0.0348303
0.122356
-0.0267593
0.118524
-0.0158363
0.116085
-0.00276792
0.113535
0.0113915
0.110427
0.0254145
0.107582
0.0404332
0.107067
0.0547161
0.110437
0.0658071
0.117012
0.0776763
0.124676
0.100005
0.134979
0.12973
0.154355
0.139403
0.181232
0.102954
0.201608
0.0340331
0.208466
-0.0336028
0.203956
-0.0789946
0.193441
-0.106209
0.181671
-0.122158
0.170041
-0.125945
0.158576
-0.126061
0.148038
-0.12699
0.13862
-0.119059
0.129063
-0.0962219
0.119406
-0.0690155
0.11287
-0.0496937
0.115508
-0.039325
0.127719
-0.00557063
0.142618
0.0783501
0.155382
0.196122
0.16515
0.293438
0.173364
0.313954
0.177389
0.246631
0.175087
0.0973734
0.168483
-0.0718624
0.163555
-0.178397
0.155279
-0.184847
0.139794
-0.192567
0.128027
-0.208928
0.125157
-0.166933
0.131263
-0.0330874
0.134063
0.176034
0.1355
0.294869
0.138878
0.333309
0.14003
0.210319
0.141569
0.00732832
0.131113
-0.106736
0.120039
-0.323938
0.126159
-0.16539
0.0911285
0.195978
-0.0307699
-0.200903
0.190837
-0.0345361
0.185594
-0.037408
0.180033
-0.0397062
0.174122
-0.0414746
0.167955
-0.042548
0.161701
-0.0426918
0.15552
-0.0417073
0.149603
-0.0393275
0.144144
-0.0353685
0.13922
-0.029906
0.134988
-0.0225276
0.131886
-0.0127342
0.130187
-0.00106848
0.12968
0.0118983
0.128812
0.0262824
0.127431
0.0418146
0.126835
0.0553122
0.128068
0.0645742
0.131111
0.0746333
0.137022
0.0940938
0.150942
0.115809
0.176072
0.114273
0.203377
0.0756488
0.219765
0.0176455
0.221852
-0.0356902
0.214413
-0.0715553
0.202418
-0.0942139
0.190084
-0.109824
0.178572
-0.114433
0.167253
-0.114743
0.156753
-0.11649
0.147895
-0.110201
0.139698
-0.0880251
0.131124
-0.0604411
0.123676
-0.0422458
0.124325
-0.0399735
0.135852
-0.0170977
0.152544
0.0616573
0.167651
0.181015
0.179467
0.281623
0.189621
0.303799
0.194778
0.241475
0.192714
0.0994374
0.184297
-0.0634452
0.177083
-0.171183
0.167864
-0.175628
0.151314
-0.176016
0.137998
-0.195612
0.134761
-0.163697
0.14228
-0.040606
0.145986
0.172328
0.147174
0.293681
0.151256
0.329228
0.153221
0.208353
0.155535
0.00501442
0.144722
-0.0959221
0.131699
-0.310916
0.137648
-0.171339
0.0887975
0.204943
-0.0267015
-0.209012
0.200171
-0.0297642
0.195204
-0.0324409
0.190023
-0.0345254
0.184578
-0.0360288
0.178904
-0.0368748
0.173118
-0.0369054
0.167363
-0.0359524
0.161819
-0.0337837
0.156661
-0.0302097
0.15202
-0.0252651
0.148135
-0.0186426
0.145409
-0.010009
0.144254
8.72765e-05
0.144577
0.0115746
0.145859
0.0250004
0.147685
0.0399884
0.149944
0.0530533
0.152234
0.0622848
0.155007
0.07186
0.161903
0.0871978
0.178616
0.0990966
0.203749
0.0891405
0.225932
0.0534658
0.235652
0.00792502
0.233497
-0.0335356
0.224793
-0.0628505
0.213087
-0.0825086
0.201172
-0.0979086
0.19009
-0.103351
0.178955
-0.103608
0.168199
-0.105733
0.159235
-0.101238