/*--------------------------------*- C++ -*----------------------------------*\
| =========                 |                                                 |
| \\      /  F ield         | OpenFOAM: The Open Source CFD Toolbox           |
|  \\    /   O peration     | Version:  2512                                  |
|   \\  /    A nd           | Website:  www.openfoam.com                      |
|    \\/     M anipulation  |                                                 |
\*---------------------------------------------------------------------------*/
FoamFile
{
    version     2.0;
    format      ascii;
    arch        "LSB;label=32;scalar=64";
    class       volScalarField;
    location    "32.45";
    object      p;
}
// * * * * * * * * * * * * * * * * * * * * * * * * * * * * * * * * * * * * * //

dimensions      [0 2 -2 0 0 0 0];

internalField   nonuniform List<scalar> 
13248
(
-0.26374
-0.263622
-0.262307
-0.260051
-0.257139
-0.253907
-0.250759
-0.248129
-0.246396
-0.245849
-0.246673
-0.248917
-0.252513
-0.257283
-0.26296
-0.269214
-0.275669
-0.282002
-0.287788
-0.292971
-0.296934
-0.300117
-0.301167
-0.300831
-0.265698
-0.265572
-0.264175
-0.261848
-0.258909
-0.255663
-0.252482
-0.249743
-0.247785
-0.246849
-0.247063
-0.248431
-0.25083
-0.254041
-0.257765
-0.261679
-0.265455
-0.268835
-0.271593
-0.273607
-0.274716
-0.274971
-0.274111
-0.273415
-0.269521
-0.269096
-0.267478
-0.265041
-0.262069
-0.258827
-0.255617
-0.25274
-0.250456
-0.248941
-0.248273
-0.248416
-0.249229
-0.250495
-0.251962
-0.2534
-0.25461
-0.25549
-0.25591
-0.255891
-0.255249
-0.25411
-0.252358
-0.250814
-0.275176
-0.274157
-0.272143
-0.269449
-0.26632
-0.26297
-0.259606
-0.256424
-0.253587
-0.251211
-0.249342
-0.247942
-0.246903
-0.246086
-0.245359
-0.244617
-0.243794
-0.242822
-0.24163
-0.24016
-0.238267
-0.236081
-0.233427
-0.23124
-0.282583
-0.280696
-0.27809
-0.274953
-0.271495
-0.267854
-0.264113
-0.26034
-0.256619
-0.253038
-0.249659
-0.246505
-0.243563
-0.240811
-0.238219
-0.235747
-0.23334
-0.230928
-0.228433
-0.225799
-0.222949
-0.219957
-0.216721
-0.213986
-0.291745
-0.288797
-0.285421
-0.281687
-0.27771
-0.273516
-0.269037
-0.26424
-0.259192
-0.254034
-0.248915
-0.243961
-0.239256
-0.234836
-0.230698
-0.2268
-0.223087
-0.219495
-0.215963
-0.212433
-0.208854
-0.205245
-0.201529
-0.198274
-0.302833
-0.298664
-0.294412
-0.289943
-0.285196
-0.28003
-0.274262
-0.267868
-0.261021
-0.253995
-0.24705
-0.240381
-0.234098
-0.228238
-0.222783
-0.217691
-0.2129
-0.208347
-0.20397
-0.199712
-0.195533
-0.191413
-0.187328
-0.183662
-0.316036
-0.310529
-0.305325
-0.299939
-0.294015
-0.287248
-0.279493
-0.270917
-0.261903
-0.252862
-0.244114
-0.235851
-0.228156
-0.221034
-0.214447
-0.208334
-0.20263
-0.197267
-0.192186
-0.187335
-0.182672
-0.178155
-0.1738
-0.169802
-0.331419
-0.32449
-0.318233
-0.311613
-0.303885
-0.294726
-0.284285
-0.273074
-0.261693
-0.250619
-0.240149
-0.230415
-0.221442
-0.213194
-0.205607
-0.198608
-0.192124
-0.186086
-0.18043
-0.175099
-0.170042
-0.165214
-0.160642
-0.156351
-0.348724
-0.340363
-0.332866
-0.324485
-0.314124
-0.301756
-0.288079
-0.273986
-0.260195
-0.247151
-0.235056
-0.223955
-0.21381
-0.204545
-0.196074
-0.18831
-0.181168
-0.174574
-0.168455
-0.162747
-0.15739
-0.15234
-0.147594
-0.143064
-0.36736
-0.357588
-0.348524
-0.337608
-0.323672
-0.307396
-0.290155
-0.273113
-0.256973
-0.242055
-0.228438
-0.216074
-0.204866
-0.1947
-0.185466
-0.177058
-0.169384
-0.162355
-0.155895
-0.149928
-0.144387
-0.139223
-0.134381
-0.12973
-0.386348
-0.375226
-0.364094
-0.349664
-0.331237
-0.310559
-0.289628
-0.2697
-0.251338
-0.234687
-0.219687
-0.206202
-0.194075
-0.183154
-0.173303
-0.1644
-0.156335
-0.149012
-0.142342
-0.136245
-0.130654
-0.125516
-0.12074
-0.116218
-0.256481
-0.257916
-0.258723
-0.259569
-0.260828
-0.262637
-0.265057
-0.26812
-0.27185
-0.276279
-0.281444
-0.287389
-0.29416
-0.301803
-0.310361
-0.319871
-0.330356
-0.341827
-0.354277
-0.367663
-0.381906
-0.396925
-0.412656
-0.428886
-0.259776
-0.26066
-0.261197
-0.261896
-0.263088
-0.264917
-0.267453
-0.270736
-0.274806
-0.279712
-0.285512
-0.292269
-0.300051
-0.308921
-0.318936
-0.330137
-0.342549
-0.356169
-0.370966
-0.386873
-0.403793
-0.42159
-0.440056
-0.45898
-0.263158
-0.263401
-0.263622
-0.264137
-0.265212
-0.266998
-0.26957
-0.272975
-0.27726
-0.282485
-0.288721
-0.296046
-0.304534
-0.314257
-0.325271
-0.337612
-0.351293
-0.366289
-0.382539
-0.399941
-0.418356
-0.43762
-0.457455
-0.477262
-0.266128
-0.265706
-0.265588
-0.26587
-0.266748
-0.268392
-0.270874
-0.274247
-0.278562
-0.283884
-0.29029
-0.297862
-0.306678
-0.316809
-0.328301
-0.341186
-0.355454
-0.371059
-0.387914
-0.405885
-0.424794
-0.444425
-0.464514
-0.484421
-0.268298
-0.267278
-0.266803
-0.266795
-0.267387
-0.268748
-0.270973
-0.274121
-0.278245
-0.283413
-0.2897
-0.297188
-0.305955
-0.316064
-0.327557
-0.340448
-0.354714
-0.370292
-0.387076
-0.404907
-0.423621
-0.442877
-0.462789
-0.481962
-0.269457
-0.267982
-0.26717
-0.266815
-0.267002
-0.267917
-0.269685
-0.272384
-0.276078
-0.280833
-0.286726
-0.293833
-0.302226
-0.311962
-0.323074
-0.335562
-0.349393
-0.364483
-0.380741
-0.397921
-0.416041
-0.434368
-0.453704
-0.471646
-0.269589
-0.267859
-0.266764
-0.266022
-0.265694
-0.265994
-0.267092
-0.269104
-0.272119
-0.276215
-0.281469
-0.287954
-0.295733
-0.304854
-0.31534
-0.327176
-0.340333
-0.354678
-0.370219
-0.386464
-0.40385
-0.420879
-0.439407
-0.455873
-0.268842
-0.267085
-0.265792
-0.264662
-0.263748
-0.263296
-0.263534
-0.264642
-0.266753
-0.269975
-0.274395
-0.280087
-0.287108
-0.295495
-0.30526
-0.316363
-0.328808
-0.342342
-0.35716
-0.3724
-0.389227
-0.405018
-0.422742
-0.437264
-0.26748
-0.265917
-0.264526
-0.263043
-0.261533
-0.26027
-0.259546
-0.259613
-0.260673
-0.262882
-0.266354
-0.271173
-0.277396
-0.285054
-0.294151
-0.304533
-0.316335
-0.329205
-0.343538
-0.357952
-0.374082
-0.388579
-0.405046
-0.417543
-0.265841
-0.264639
-0.263239
-0.261466
-0.259416
-0.257386
-0.255724
-0.254758
-0.254763
-0.255957
-0.258496
-0.262483
-0.267964
-0.27495
-0.28344
-0.293405
-0.304673
-0.316866
-0.330223
-0.343623
-0.358243
-0.371504
-0.385959
-0.396604
-0.26433
-0.26357
-0.262211
-0.260214
-0.257727
-0.255069
-0.252629
-0.250797
-0.249918
-0.250269
-0.252042
-0.255364
-0.260292
-0.266793
-0.274747
-0.283989
-0.294272
-0.305309
-0.316857
-0.328499
-0.340377
-0.351613
-0.363273
-0.371947
-0.263447
-0.263092
-0.261773
-0.25961
-0.256825
-0.253749
-0.250796
-0.248394
-0.246931
-0.246721
-0.247977
-0.250796
-0.255169
-0.260992
-0.268064
-0.276134
-0.28484
-0.293924
-0.302849
-0.311589
-0.319558
-0.327046
-0.334221
-0.340715
-0.448067
-0.469302
-0.489717
-0.508444
-0.525468
-0.536903
-0.544216
-0.546556
-0.543012
-0.532574
-0.51432
-0.487751
-0.453251
-0.412449
-0.368186
-0.324342
-0.285376
-0.254912
-0.23374
-0.21898
-0.20401
-0.180224
-0.143382
-0.0978069
-0.0523765
-0.0155369
0.00983659
0.025242
0.0335614
0.0372917
0.0378392
0.0362412
0.0341499
0.0328227
0.0326114
0.0328068
0.0327287
0.0319813
0.0304882
0.02845
0.0260268
0.0233985
0.0206363
0.0179374
0.0154385
0.0133502
0.0116352
0.010342
0.00924307
0.00825374
0.0073191
0.00639244
0.00548755
0.00461461
0.00378693
0.00302711
0.00230985
0.00165602
0.00099157
0.000360635
-0.481787
-0.504574
-0.526578
-0.545822
-0.56188
-0.574926
-0.581732
-0.583334
-0.578639
-0.566395
-0.545377
-0.514717
-0.474444
-0.425869
-0.37141
-0.315127
-0.262652
-0.219286
-0.187143
-0.164868
-0.147376
-0.126752
-0.0973455
-0.0626155
-0.0277849
-0.000130484
0.0185037
0.029025
0.0336171
0.0343125
0.0324312
0.029511
0.0276276
0.0276264
0.02895
0.0304203
0.031171
0.0309516
0.0298212
0.0280595
0.0258771
0.0234723
0.0209338
0.0184066
0.0159938
0.0138895
0.0120743
0.0106789
0.00946635
0.00839704
0.00740363
0.00644055
0.00551185
0.00462608
0.0037917
0.00303118
0.00231428
0.00166287
0.000997196
0.000364738
-0.502983
-0.526178
-0.549461
-0.56919
-0.586187
-0.599544
-0.605108
-0.606496
-0.601234
-0.587936
-0.565089
-0.531504
-0.486941
-0.432341
-0.36972
-0.303422
-0.23938
-0.184532
-0.141478
-0.110689
-0.0898467
-0.0719409
-0.0513701
-0.0278882
-0.00382731
0.0145647
0.0262163
0.031574
0.0320738
0.0294493
0.0252945
0.0217659
0.0209254
0.0226887
0.0255833
0.0281691
0.0296116
0.0298364
0.029031
0.0275284
0.0255715
0.0233714
0.0210393
0.0186905
0.0164084
0.0143489
0.012638
0.0110157
0.00969592
0.00854271
0.00748292
0.00648016
0.00552641
0.00462965
0.00378967
0.00303002
0.00231449
0.00166646
0.00100079
0.00036745
-0.509807
-0.535091
-0.558452
-0.579224
-0.596727
-0.609875
-0.61701
-0.618745
-0.613647
-0.600106
-0.57636
-0.540904
-0.493048
-0.433476
-0.364868
-0.29137
-0.218658
-0.155231
-0.102323
-0.0621726
-0.0366613
-0.0187533
-0.00471937
0.00866662
0.0211136
0.0302199
0.034479
0.0341544
0.029883
0.0235355
0.0173246
0.0138839
0.0146449
0.0182362
0.0225363
0.0260238
0.0280331
0.0286432
0.0281402
0.0268886
0.0251496
0.0231397
0.0209893
0.0188042
0.0166612
0.0146752
0.0129423
0.0113006
0.00990587
0.00867807
0.00755403
0.00651262
0.00553484
0.00462883
0.00378399
0.00302552
0.00231163
0.00166704
0.0010024
0.000368521
-0.506819
-0.532609
-0.556564
-0.578156
-0.596508
-0.610415
-0.618765
-0.621462
-0.617223
-0.604241
-0.580546
-0.544341
-0.494621
-0.432062
-0.359648
-0.281977
-0.204871
-0.134941
-0.0746328
-0.0256359
0.00485312
0.0265718
0.0387605
0.045549
0.048575
0.0485011
0.0448264
0.0380226
0.0279922
0.0174287
0.00944394
0.00667601
0.00907492
0.0143749
0.0198145
0.023988
0.0264436
0.0273903
0.0271723
0.0261667
0.024643
0.0228159
0.0208283
0.0187872
0.016771
0.0148647
0.013141
0.0115095
0.0100735
0.00878966
0.00761283
0.00653837
0.00554017
0.00462662
0.00377766
0.00301968
0.00230716
0.00166512
0.00100231
0.000367837
-0.49454
-0.520381
-0.545356
-0.567789
-0.586858
-0.601873
-0.611509
-0.61536
-0.612161
-0.600092
-0.5771
-0.541313
-0.491621
-0.428617
-0.355313
-0.276411
-0.197728
-0.125197
-0.0619234
-0.00935484
0.0296583
0.0569012
0.0715306
0.0764703
0.0747962
0.0679462
0.0570078
0.0429693
0.0265112
0.0117973
0.00258241
0.000839796
0.00466514
0.0112072
0.0174314
0.0220685
0.0248578
0.0260989
0.026149
0.0253829
0.0240714
0.0224238
0.020589
0.018678
0.0167722
0.0149403
0.0132456
0.0116395
0.0101893
0.00887066
0.00765715
0.00655792
0.00554449
0.00462499
0.00377281
0.00301416
0.00230251
0.00166149
0.00100102
0.000365535
-0.476418
-0.501828
-0.527662
-0.550683
-0.570226
-0.586079
-0.596925
-0.601729
-0.599528
-0.588473
-0.566541
-0.531945
-0.483718
-0.422561
-0.351471
-0.275068
-0.198374
-0.12624
-0.0619926
-0.00788627
0.034883
0.0668285
0.0866866
0.0947339
0.0931877
0.083503
0.067539
0.0471182
0.0252511
0.00740649
-0.00241881
-0.00342509
0.00154672
0.0087829
0.0153913
0.0202753
0.023294
0.0247849
0.0250861
0.0245523
0.0234477
0.021977
0.0202903
0.018502
0.0166956
0.0149318
0.0132704
0.0117019
0.0102562
0.00892131
0.00768697
0.00657166
0.00554841
0.00462447
0.00377018
0.00300987
0.00229859
0.00165692
0.000999035
0.000361972
-0.45492
-0.478832
-0.505109
-0.52848
-0.548009
-0.564074
-0.575931
-0.581338
-0.57987
-0.569769
-0.549191
-0.516562
-0.471118
-0.413663
-0.346895
-0.275391
-0.20338
-0.134963
-0.0723968
-0.0178159
0.027032
0.0617013
0.0852397
0.0974072
0.0989109
0.0903122
0.0727867
0.0491324
0.0243545
0.00502036
-0.00495812
-0.00558186
-0.000227474
0.00707465
0.0136745
0.0186183
0.0217809
0.0234697
0.0239971
0.0236851
0.0227815
0.021485
0.0199436
0.0182747
0.0165624
0.014864
0.0132333
0.0117138
0.0102824
0.00894551
0.00770327
0.00657961
0.00555126
0.00462445
0.00376925
0.00300686
0.00229563
0.00165199
0.000996722
0.000357626
-0.431532
-0.45212
-0.478032
-0.501433
-0.520616
-0.536607
-0.548421
-0.554596
-0.553902
-0.544934
-0.526176
-0.496332
-0.454903
-0.402725
-0.342056
-0.276938
-0.211085
-0.148189
-0.0885056
-0.0349386
0.0107162
0.0476473
0.074503
0.0903261
0.0951599
0.0895603
0.073541
0.0499205
0.0247471
0.00514247
-0.00491819
-0.00569288
-0.000754547
0.00600887
0.0122524
0.0170943
0.0203332
0.0221828
0.0229068
0.0227971
0.0220832
0.0209558
0.0195567
0.0180056
0.0163857
0.0147536
0.0131575
0.0116935
0.010277
0.00894772
0.00770717
0.00658146
0.00555181
0.00462378
0.00376885
0.00300461
0.00229332
0.00164701
0.000994219
0.000353003
-0.406287
-0.422215
-0.446339
-0.468235
-0.486232
-0.501589
-0.513515
-0.519959
-0.519916
-0.512333
-0.496033
-0.470001
-0.433928
-0.388487
-0.335399
-0.277907
-0.218843
-0.161992
-0.10665
-0.055272
-0.0101565
0.0274367
0.0563366
0.0754965
0.0845363
0.0824388
0.0701412
0.0495555
0.0265066
0.00793782
-0.00262465
-0.00413945
-0.000333316
0.00544088
0.0110735
0.0156685
0.0189142
0.0209067
0.0218251
0.0219071
0.0213708
0.0204035
0.0191407
0.017704
0.0161743
0.0146108
0.0130579
0.0116546
0.0102453
0.00893097
0.00769926
0.00657668
0.00554872
0.00462132
0.00376767
0.00300239
0.00229103
0.0016421
0.000991551
0.000348595
-0.37744
-0.390971
-0.413003
-0.432291
-0.448944
-0.464338
-0.476186
-0.484005
-0.4857
-0.480469
-0.467361
-0.44559
-0.414991
-0.37596
-0.329715
-0.278601
-0.225275
-0.173687
-0.122602
-0.0736182
-0.0290192
0.00911164
0.0396424
0.0610015
0.0729966
0.0743941
0.0661268
0.0492293
0.0290724
0.0112818
0.000821059
-0.00158049
0.000656676
0.00516239
0.0100352
0.0142864
0.0174862
0.0195836
0.0206982
0.020988
0.020638
0.0198334
0.018706
0.0173821
0.015941
0.0144488
0.0129468
0.0115885
0.0101915
0.00889971
0.00768152
0.00656596
0.00554189
0.00461697
0.00376541
0.00300011
0.00228862
0.00163751
0.00098885
0.000345031
-0.347226
-0.360102
-0.376419
-0.390588
-0.40385
-0.417445
-0.42955
-0.437347
-0.440897
-0.439324
-0.431333
-0.416155
-0.39349
-0.363403
-0.326515
-0.283976
-0.23748
-0.190112
-0.142859
-0.0976955
-0.0548407
-0.0166424
0.0152818
0.0396344
0.0551391
0.0618724
0.0591464
0.0480594
0.0321321
0.0162192
0.00579048
0.00180754
0.00242786
0.00543537
0.00936796
0.013155
0.0162216
0.0183556
0.0195747
0.0200296
0.0198537
0.0192122
0.0182243
0.0170184
0.0156697
0.0142547
0.0128173
0.0114518
0.010109
0.00885234
0.00765488
0.00654996
0.00553168
0.00461019
0.00376096
0.00299648
0.00228488
0.00163247
0.000985343
0.000342587
-0.324893
-0.344334
-0.357096
-0.367419
-0.378356
-0.389917
-0.400241
-0.406985
-0.409749
-0.407849
-0.400302
-0.386315
-0.365597
-0.338302
-0.305002
-0.266785
-0.225173
-0.182232
-0.139278
-0.0977901
-0.0586497
-0.0234753
0.00620129
0.0292325
0.0446951
0.0524495
0.0516032
0.0431957
0.0299896
0.0163016
0.00727869
0.00331158
0.00339126
0.00579994
0.0091884
0.0125701
0.0153938
0.0174335
0.018675
0.0192087
0.0191417
0.0186193
0.0177464
0.0166462
0.0153872
0.0140494
0.0126742
0.0113084
0.0100384
0.00877379
0.00759045
0.00649881
0.00549133
0.00458022
0.00373805
0.00297933
0.00227104
0.00162162
0.000977787
0.000339454
-0.302801
-0.325408
-0.33853
-0.34683
-0.354682
-0.363002
-0.370665
-0.375903
-0.377594
-0.374928
-0.367225
-0.353966
-0.335004
-0.310519
-0.281024
-0.247394
-0.210752
-0.172566
-0.134204
-0.0969879
-0.0617874
-0.0298568
-0.00259294
0.0189264
0.0338752
0.0418087
0.0425646
0.0367635
0.0267161
0.0161563
0.00839694
0.00474794
0.0045217
0.00636244
0.0091609
0.0120829
0.0146164
0.0165136
0.0177174
0.0182829
0.0182935
0.0178684
0.0171006
0.0161008
0.0149347
0.0136773
0.0123696
0.0110659
0.00981228
0.00862599
0.00747799
0.00641409
0.00542729
0.00453199
0.00370241
0.00295244
0.00225125
0.00160574
0.000967163
0.000334058
-0.282181
-0.305294
-0.31843
-0.325252
-0.330598
-0.336281
-0.341888
-0.345992
-0.347017
-0.344112
-0.336809
-0.324827
-0.308078
-0.286652
-0.260885
-0.231411
-0.199114
-0.165193
-0.13086
-0.0972663
-0.0653603
-0.0362369
-0.0111072
0.00900716
0.0233766
0.031659
0.033789
0.030331
0.0232209
0.0150766
0.00883065
0.00564145
0.00521265
0.00659897
0.00892141
0.0114654
0.013753
0.0155278
0.0167057
0.0173091
0.0173984
0.0170708
0.0164085
0.0155109
0.0144408
0.0132699
0.0120379
0.0108093
0.00961855
0.00845847
0.00734545
0.00631117
0.00534822
0.00447128
0.00365717
0.00291809
0.0022261
0.00158587
0.000954236
0.000327836
-0.263369
-0.284728
-0.29727
-0.303288
-0.307166
-0.311168
-0.315314
-0.318313
-0.318774
-0.315821
-0.309037
-0.298232
-0.283347
-0.264457
-0.24181
-0.215883
-0.187422
-0.157401
-0.126845
-0.0967763
-0.0681129
-0.0417913
-0.0188313
-0.000147463
0.0136263
0.0221776
0.0254471
0.0239519
0.0190123
0.0132939
0.00851418
0.00590619
0.00546985
0.00657843
0.00854596
0.0107776
0.0128495
0.0145128
0.0156645
0.0163024
0.0164668
0.0162355
0.0156788
0.0148857
0.0139153
0.0128355
0.0116855
0.0105264
0.00938354
0.0082704
0.00719752
0.00619572
0.005259
0.00440256
0.00360553
0.00287892
0.00219733
0.0015638
0.000940316
0.000321703
-0.244618
-0.264271
-0.276099
-0.281631
-0.284689
-0.287553
-0.290467
-0.292492
-0.292469
-0.289563
-0.283347
-0.273652
-0.260456
-0.243847
-0.224027
-0.201375
-0.176474
-0.150085
-0.123066
-0.0963025
-0.0706365
-0.0468967
-0.0259514
-0.0086004
0.00458071
0.0132938
0.0175069
0.0176558
0.0148566
0.0110012
0.00759159
0.00565458
0.00535104
0.0063039
0.00801068
0.00999482
0.0118884
0.0134562
0.0145863
0.0152586
0.015496
0.0153592
0.0149075
0.0142198
0.0133506
0.0123636
0.0112963
0.0102082
0.00912257
0.00806143
0.00703205
0.00606582
0.00515805
0.00432454
0.00354646
0.00283418
0.00216447
0.00153929
0.000925147
0.00031541
-0.22637
-0.244551
-0.255542
-0.260618
-0.263102
-0.265123
-0.26709
-0.268378
-0.268019
-0.265241
-0.259617
-0.250988
-0.239358
-0.22482
-0.207546
-0.187829
-0.166113
-0.143004
-0.119211
-0.0954937
-0.0726034
-0.051274
-0.0322428
-0.0161968
-0.00365593
0.00510639
0.0100716
0.0115967
0.0105533
0.00832963
0.00616756
0.00492745
0.00485822
0.00577038
0.00731418
0.00911697
0.0108685
0.0123574
0.0134713
0.0141778
0.0144859
0.0144416
0.0140935
0.0135111
0.0127439
0.0118517
0.0108711
0.00985891
0.00883571
0.00782946
0.00684694
0.0059195
0.00504365
0.00423567
0.00347877
0.00278285
0.00212676
0.00151172
0.000908257
0.000308739
-0.209202
-0.225718
-0.235787
-0.2404
-0.242439
-0.243867
-0.245183
-0.24595
-0.245371
-0.24276
-0.237718
-0.230099
-0.219912
-0.207246
-0.192244
-0.175135
-0.156267
-0.136117
-0.115265
-0.0943512
-0.0740285
-0.0549386
-0.0377105
-0.0229293
-0.0110554
-0.00233873
0.00319649
0.00582733
0.00621552
0.00539033
0.0043455
0.00380106
0.00404058
0.00500222
0.00646012
0.00813736
0.0097826
0.011212
0.0123176
0.01306
0.0134373
0.0134834
0.0132375
0.0127602
0.0120963
0.0113015
0.0104107
0.0094771
0.00852059
0.00757287
0.00664091
0.00575558
0.00491475
0.00413504
0.00340169
0.00272427
0.0020837
0.0014807
0.000889409
0.00030166
-0.192834
-0.207728
-0.216906
-0.221086
-0.222785
-0.223808
-0.224683
-0.225099
-0.224398
-0.221987
-0.217512
-0.21084
-0.201974
-0.19099
-0.178012
-0.163223
-0.146893
-0.129398
-0.111207
-0.092851
-0.0748862
-0.0578664
-0.0423283
-0.0287676
-0.0175842
-0.00900896
-0.00307972
0.000408516
0.00194728
0.00229658
0.00223181
0.00234868
0.00293426
0.00401099
0.00544985
0.00705575
0.0086311
0.0100208
0.0111265
0.0119065
0.0123517
0.0124862
0.0123409
0.0119686
0.0114087
0.0107126
0.00991357
0.00906157
0.00817617
0.00729072
0.00641302
0.00557306
0.0047704
0.00402177
0.00331446
0.00265781
0.00203481
0.00144589
0.000868432
0.000294125
-0.177217
-0.190679
-0.199016
-0.202793
-0.204226
-0.204964
-0.205538
-0.205722
-0.204982
-0.202802
-0.198875
-0.19308
-0.185411
-0.175936
-0.164758
-0.152025
-0.137949
-0.122824
-0.107024
-0.0909853
-0.0751735
-0.0600594
-0.0460992
-0.0337108
-0.0232384
-0.0148941
-0.00873045
-0.00460614
-0.00216686
-0.000858335
-8.47583e-05
0.000640425
0.00158731
0.00282692
0.00429997
0.00587875
0.00741486
0.00878298
0.00989735
0.0107178
0.0112303
0.0114516
0.0114055
0.0111371
0.0106811
0.010085
0.0093798
0.00861231
0.00780174
0.00698191
0.00616234
0.00537088
0.00460959
0.00389496
0.00321631
0.00258283
0.00197962
0.00140693
0.00084511
0.000286019
-0.162546
-0.174638
-0.182165
-0.18557
-0.186794
-0.187332
-0.187695
-0.187739
-0.187011
-0.185086
-0.181688
-0.176695
-0.170105
-0.161977
-0.152397
-0.141482
-0.129399
-0.116377
-0.102714
-0.0887613
-0.0749045
-0.0615376
-0.0490448
-0.0377777
-0.0280304
-0.0199963
-0.0137418
-0.00917989
-0.00606238
-0.00398987
-0.00251373
-0.00124636
5.26515e-05
0.00147944
0.00302349
0.00461063
0.00613526
0.00749987
0.00863237
0.00949644
0.010076
0.0103823
0.0104332
0.0102673
0.00991502
0.00941961
0.00880986
0.00812928
0.0073968
0.00664624
0.00588797
0.00514809
0.0044314
0.00375371
0.00310647
0.00249869
0.0019176
0.00136343
0.000819198
0.000277212
-0.148799
-0.159579
-0.166348
-0.169421
-0.170481
-0.170875
-0.171105
-0.171074
-0.170414
-0.168753
-0.165843
-0.161576
-0.155952
-0.14902
-0.140852
-0.13154
-0.121212
-0.110049
-0.0982841
-0.086199
-0.0741075
-0.062335
-0.0512015
-0.0410019
-0.0319873
-0.0243327
-0.0181139
-0.0132855
-0.0096812
-0.00702043
-0.00497633
-0.00324636
-0.0016229
-6.53289e-07
0.00163986
0.00326338
0.00479953
0.00617605
0.00733479
0.00824533
0.00889162
0.00928097
0.00942658
0.00936173
0.00911243
0.00871778
0.00820438
0.00761271
0.00696117
0.00628271
0.00558611
0.00490386
0.00423498
0.00359722
0.00298418
0.00240475
0.00184824
0.001315
0.000790449
0.000267578
-0.1359
-0.1455
-0.151577
-0.154351
-0.155281
-0.15558
-0.15573
-0.155674
-0.155105
-0.153699
-0.151235
-0.147622
-0.14286
-0.136987
-0.13006
-0.122153
-0.113366
-0.103838
-0.0937512
-0.0833284
-0.0728221
-0.0624973
-0.0526182
-0.0434312
-0.03515
-0.02793
-0.0218513
-0.0169013
-0.0129782
-0.00989187
-0.00740912
-0.0052985
-0.0033878
-0.00157549
0.000173643
0.00185141
0.00341576
0.00481648
0.00600858
0.00696816
0.00768068
0.00815116
0.0083892
0.00842322
0.00827556
0.00798126
0.00756467
0.00706328
0.00649494
0.00589134
0.00526244
0.0046379
0.00401965
0.00342475
0.00284876
0.00230043
0.00177105
0.00126127
0.00075862
0.000256998
-0.123888
-0.132413
-0.137851
-0.140353
-0.14118
-0.141417
-0.141519
-0.141464
-0.140998
-0.139832
-0.137774
-0.134749
-0.130749
-0.125804
-0.119964
-0.113285
-0.105845
-0.0977488
-0.0891379
-0.0801868
-0.0710965
-0.0620806
-0.053355
-0.0451237
-0.037567
-0.0308213
-0.0249686
-0.0200218
-0.0159259
-0.0125568
-0.0097526
-0.00734281
-0.00519174
-0.00320834
-0.00135053
0.000390904
0.00199476
0.0034289
0.00465987
0.00567027
0.00644806
0.00699734
0.00732501
0.0074552
0.00740714
0.00721226
0.00689258
0.00648227
0.00599867
0.00547216
0.00491343
0.00434968
0.00378483
0.00323568
0.00269959
0.00218516
0.00168557
0.00120185
0.00072348
0.000245364
-0.112762
-0.120292
-0.12514
-0.127395
-0.128142
-0.128343
-0.128424
-0.128385
-0.128016
-0.127068
-0.125381
-0.122878
-0.119546
-0.115412
-0.110518
-0.104907
-0.0986373
-0.0917899
-0.0844714
-0.0768173
-0.0689863
-0.0611484
-0.0534784
-0.0461431
-0.0392937
-0.03305
-0.0274932
-0.0226518
-0.0185037
-0.0149734
-0.0119551
-0.00932829
-0.00699008
-0.00486307
-0.00290521
-0.00109829
0.000550492
0.0020232
0.0032962
0.00435797
0.00519943
0.00582456
0.00623849
0.00646182
0.00651082
0.0064135
0.00618998
0.00587123
0.00547354
0.00502578
0.00453916
0.00403882
0.0035301
0.00302955
0.00253618
0.00205848
0.00159137
0.00113641
0.000684814
0.000232577
-0.102469
-0.109098
-0.113409
-0.115442
-0.116124
-0.116306
-0.116384
-0.116374
-0.116096
-0.115351
-0.113991
-0.111939
-0.109186
-0.105758
-0.101682
-0.0969939
-0.0917386
-0.0859748
-0.0797829
-0.073267
-0.0665508
-0.0597682
-0.0530588
-0.0465585
-0.0403933
-0.0346675
-0.0294578
-0.0248014
-0.0206995
-0.0171129
-0.0139775
-0.0112115
-0.00874052
-0.00650283
-0.00446134
-0.00259467
-0.000901469
0.000610832
0.00192649
0.00303879
0.00394141
0.00463884
0.00513506
0.00544773
0.00559078
0.00558877
0.00545964
0.00523177
0.00492065
0.00455315
0.00414029
0.00370535
0.00325525
0.00280603
0.00235815
0.00191999
0.0014881
0.00106465
0.000642426
0.000218555
-0.0929791
-0.0987999
-0.102623
-0.104455
-0.105083
-0.105256
-0.105338
-0.105357
-0.105172
-0.104608
-0.103525
-0.101863
-0.0996146
-0.0967932
-0.0934219
-0.0895292
-0.0851476
-0.0803196
-0.0751058
-0.0695845
-0.0638507
-0.0580087
-0.0521696
-0.0464427
-0.0409325
-0.035728
-0.0308994
-0.0264888
-0.0225131
-0.018958
-0.0157892
-0.0129546
-0.0104046
-0.0080932
-0.0059906
-0.00407604
-0.00234393
-0.000794882
0.000561215
0.00172148
0.00268167
0.00344687
0.0040208
0.00441844
0.00465146
0.0047419
0.00470548
0.00456711
0.00434168
0.0040549
0.00371738
0.00334953
0.00296056
0.00256508
0.00216531
0.00176943
0.00137548
0.000986295
0.000596141
0.000203216
-0.0842668
-0.0893588
-0.0927392
-0.0943868
-0.0949695
-0.095142
-0.0952346
-0.0952867
-0.0951781
-0.0947615
-0.0939192
-0.0925981
-0.0907812
-0.0884776
-0.0857097
-0.0824982
-0.0788655
-0.0748425
-0.0704741
-0.065818
-0.060946
-0.055939
-0.0508842
-0.045869
-0.0409787
-0.0362883
-0.0318612
-0.0277408
-0.0239529
-0.0204994
-0.0173673
-0.0145275
-0.01195
-0.00960339
-0.00746579
-0.00551966
-0.00375859
-0.00217928
-0.000787757
0.000415762
0.00142874
0.00225647
0.00290239
0.00337991
0.00369844
0.00387713
0.00393048
0.00388069
0.00374045
0.00353341
0.00327105
0.00297287
0.00264651
0.002307
0.0019577
0.00160673
0.00125341
0.00090123
0.000545879
0.000186512
-0.07629
-0.0807275
-0.083707
-0.0851871
-0.0857307
-0.0859063
-0.0860121
-0.0860942
-0.0860558
-0.0857658
-0.0851302
-0.0840929
-0.0826375
-0.0807751
-0.0785212
-0.0758888
-0.0728949
-0.0695617
-0.0659209
-0.0620141
-0.0578952
-0.0536259
-0.0492742
-0.0449089
-0.0405991
-0.0364076
-0.0323903
-0.0285889
-0.0250333
-0.021736
-0.0186985
-0.0159084
-0.0133507
-0.0110063
-0.00886161
-0.0069035
-0.00512692
-0.00352712
-0.00210776
-0.000867511
0.000191903
0.001076
0.0017878
0.00233884
0.00273743
0.00300022
0.00313919
0.00317446
0.0031185
0.00299215
0.00280481
0.00257571
0.0023134
0.00203249
0.00173561
0.00143187
0.00112177
0.000809302
0.000491525
0.000168528
-0.0690044
-0.0728585
-0.0754773
-0.0768051
-0.0773138
-0.0774945
-0.0776145
-0.0777222
-0.0777403
-0.0775568
-0.0770924
-0.0762909
-0.0751435
-0.0736554
-0.0718347
-0.0696921
-0.0672408
-0.0644955
-0.0614777
-0.058217
-0.0547532
-0.0511325
-0.0474074
-0.0436315
-0.0398604
-0.0361457
-0.0325355
-0.0290683
-0.0257753
-0.0226748
-0.0197777
-0.0170828
-0.0145864
-0.0122794
-0.0101557
-0.00820703
-0.00643094
-0.00482283
-0.00338564
-0.00211714
-0.00101877
-8.57221e-05
0.000685029
0.00130329
0.00177535
0.00211653
0.00233756
0.0024545
0.00247838
0.00243023
0.00231952
0.00216213
0.00196527
0.00174251
0.0014994
0.00124511
0.000980639
0.000710478
0.000432916
0.000148663
-0.0623704
-0.0657058
-0.0680004
-0.0691895
-0.0696665
-0.0698531
-0.069987
-0.0701178
-0.0701846
-0.0700922
-0.0697607
-0.0691573
-0.0682669
-0.0670881
-0.0656291
-0.0638995
-0.0619068
-0.0596598
-0.057173
-0.0544671
-0.0515708
-0.0485177
-0.0453478
-0.0421027
-0.0388265
-0.0355609
-0.0323468
-0.0292182
-0.0262056
-0.0233296
-0.0206068
-0.0180433
-0.0156434
-0.0134053
-0.0113293
-0.00941194
-0.00765371
-0.00605135
-0.00460794
-0.00332147
-0.00219337
-0.0012195
-0.000397744
0.000280343
0.000819803
0.00123317
0.00153018
0.00172587
0.00182826
0.00185466
0.00181614
0.00172856
0.00159793
0.00143741
0.00125116
0.00104821
0.000831549
0.000605889
0.00037107
0.000128797
-0.0563471
-0.0592217
-0.0612254
-0.0622882
-0.0627359
-0.062928
-0.0630735
-0.0632214
-0.0633226
-0.0632963
-0.0630763
-0.0626424
-0.0619627
-0.0610416
-0.0598876
-0.0585046
-0.0568966
-0.0550693
-0.053033
-0.0508013
-0.0483938
-0.0458347
-0.043154
-0.0403834
-0.0375574
-0.0347096
-0.0318739
-0.0290795
-0.0263546
-0.0237199
-0.0211948
-0.0187899
-0.0165145
-0.0143722
-0.0123681
-0.0105029
-0.00878007
-0.00719823
-0.00576156
-0.00446836
-0.00332083
-0.0023161
-0.00145201
-0.000721983
-0.000123319
0.000356228
0.000724178
0.000991642
0.00116874
0.00127245
0.0013051
0.0012815
0.00121617
0.00111533
0.000986957
0.000838021
0.000671203
0.000493251
0.000303619
0.000104492
-0.0508919
-0.0533591
-0.0551028
-0.0560509
-0.0564713
-0.0566686
-0.0568251
-0.0569884
-0.0571213
-0.0571573
-0.0570391
-0.0567215
-0.0562086
-0.0554991
-0.0545951
-0.0534984
-0.0522111
-0.0507364
-0.0490803
-0.0472513
-0.0452629
-0.0431316
-0.0408794
-0.0385298
-0.0361099
-0.0336459
-0.0311657
-0.0286937
-0.0262551
-0.0238693
-0.0215562
-0.0193286
-0.017199
-0.0151744
-0.013263
-0.0114688
-0.00979826
-0.00825175
-0.00683467
-0.00554677
-0.00439065
-0.00336475
-0.00246842
-0.00169595
-0.00104518
-0.000507732
-7.64177e-05
0.000259984
0.000505805
0.000674987
0.000782629
0.000835899
0.000834804
0.000796914
0.000722315
0.000625243
0.000509593
0.000379067
0.000237055
8.53079e-05
-0.0459652
-0.0480731
-0.049585
-0.050429
-0.0508235
-0.0510241
-0.0511886
-0.051361
-0.0515126
-0.0515874
-0.0515364
-0.0513312
-0.0509622
-0.0504272
-0.049728
-0.0488681
-0.0478486
-0.0466691
-0.0453326
-0.0438442
-0.0422131
-0.0404502
-0.0385711
-0.0365927
-0.0345358
-0.0324205
-0.0302694
-0.0281024
-0.0259415
-0.0238039
-0.0217089
-0.0196697
-0.0177003
-0.0158096
-0.014008
-0.0123015
-0.0106987
-0.00920168
-0.00781749
-0.00654675
-0.00539293
-0.00435662
-0.00343725
-0.00263088
-0.00193824
-0.00135013
-0.000860758
-0.000464222
-0.00015491
8.2109e-05
0.000244108
0.000348504
0.000410973
0.000430276
0.000426218
0.000390525
0.000328643
0.000250996
0.000158083
5.39885e-05
-0.0415288
-0.0433208
-0.0446263
-0.0453758
-0.0457456
-0.0459484
-0.0461191
-0.0462979
-0.0464634
-0.0465696
-0.0465748
-0.0464522
-0.0461951
-0.045801
-0.0452723
-0.0446088
-0.0438103
-0.0428756
-0.041806
-0.0406039
-0.0392755
-0.0378274
-0.0362706
-0.034617
-0.0328821
-0.0310808
-0.0292308
-0.0273482
-0.0254515
-0.0235557
-0.021678
-0.0198313
-0.0180298
-0.0162835
-0.0146037
-0.0129978
-0.0114756
-0.0100409
-0.00870157
-0.00745986
-0.00631994
-0.00528349
-0.0043514
-0.00352126
-0.00279353
-0.00216254
-0.00162371
-0.0011702
-0.000799005
-0.000498026
-0.000255086
-7.10947e-05
5.49269e-05
0.000143174
0.000170961
0.00017682
0.000165871
0.000137073
9.48516e-05
3.95852e-05
-0.0375475
-0.0390627
-0.0401852
-0.0408493
-0.0411957
-0.0413996
-0.0415746
-0.0417571
-0.041931
-0.0420588
-0.042106
-0.0420504
-0.0418831
-0.0416034
-0.0412121
-0.0407081
-0.0400908
-0.0393583
-0.0385108
-0.0375486
-0.0364753
-0.0352947
-0.0340142
-0.0326418
-0.0311888
-0.0296662
-0.0280877
-0.0264659
-0.0248163
-0.0231509
-0.0214852
-0.0198302
-0.0181999
-0.0166042
-0.0150546
-0.0135589
-0.0121281
-0.0107666
-0.00948381
-0.00828278
-0.00716795
-0.00614303
-0.00520909
-0.00436481
-0.00361367
-0.00295016
-0.00237107
-0.00187358