/*--------------------------------*- C++ -*----------------------------------*\
| =========                 |                                                 |
| \\      /  F ield         | OpenFOAM: The Open Source CFD Toolbox           |
|  \\    /   O peration     | Version:  2512                                  |
|   \\  /    A nd           | Website:  www.openfoam.com                      |
|    \\/     M anipulation  |                                                 |
\*---------------------------------------------------------------------------*/
FoamFile
{
    version     2.0;
    format      ascii;
    arch        "LSB;label=32;scalar=64";
    class       volScalarField;
    location    "56";
    object      p;
}
// * * * * * * * * * * * * * * * * * * * * * * * * * * * * * * * * * * * * * //

dimensions      [0 2 -2 0 0 0 0];

internalField   nonuniform List<scalar> 
13248
(
-0.314458
-0.31503
-0.313896
-0.311528
-0.308124
-0.303815
-0.298852
-0.293485
-0.288127
-0.283087
-0.278597
-0.274784
-0.271645
-0.269043
-0.266737
-0.264429
-0.261831
-0.258745
-0.254983
-0.250685
-0.245369
-0.239567
-0.231581
-0.221855
-0.319066
-0.319077
-0.317677
-0.315284
-0.312081
-0.308142
-0.303583
-0.298575
-0.293308
-0.287946
-0.282623
-0.277414
-0.272324
-0.267293
-0.262221
-0.25702
-0.251628
-0.246003
-0.240105
-0.233799
-0.226931
-0.219342
-0.210563
-0.201723
-0.325655
-0.324826
-0.3229
-0.320234
-0.316969
-0.313133
-0.308703
-0.303648
-0.297961
-0.2917
-0.284978
-0.277931
-0.270689
-0.263356
-0.256019
-0.248734
-0.241499
-0.234286
-0.226947
-0.219446
-0.21154
-0.20332
-0.194581
-0.185746
-0.333962
-0.332074
-0.329406
-0.326209
-0.322633
-0.318602
-0.313884
-0.308223
-0.301488
-0.293745
-0.285221
-0.276215
-0.267024
-0.25788
-0.248929
-0.240215
-0.231719
-0.223358
-0.215071
-0.206767
-0.198342
-0.189894
-0.181119
-0.172815
-0.344058
-0.340974
-0.337411
-0.333539
-0.329418
-0.324794
-0.319188
-0.3122
-0.303749
-0.294079
-0.283622
-0.272833
-0.262077
-0.251583
-0.241452
-0.231697
-0.222276
-0.213136
-0.204197
-0.1954
-0.186689
-0.178065
-0.169434
-0.161263
-0.356287
-0.351893
-0.34738
-0.342717
-0.337734
-0.331913
-0.324606
-0.315503
-0.304788
-0.292979
-0.280666
-0.268339
-0.256316
-0.244756
-0.233708
-0.223154
-0.213045
-0.203316
-0.193907
-0.184767
-0.175848
-0.167155
-0.158595
-0.150539
-0.371003
-0.365202
-0.359697
-0.354049
-0.347681
-0.339819
-0.329912
-0.31803
-0.304743
-0.290778
-0.276754
-0.263085
-0.249985
-0.237533
-0.225724
-0.214519
-0.203857
-0.193681
-0.183934
-0.174563
-0.165532
-0.156794
-0.148334
-0.140352
-0.388355
-0.38108
-0.374485
-0.367476
-0.358933
-0.348048
-0.334749
-0.319676
-0.303729
-0.287695
-0.272098
-0.257213
-0.243143
-0.229892
-0.217418
-0.205662
-0.194557
-0.184038
-0.174043
-0.16452
-0.155416
-0.146692
-0.138343
-0.130412
-0.408186
-0.399399
-0.391498
-0.382497
-0.370772
-0.355927
-0.338704
-0.320298
-0.30176
-0.283781
-0.266717
-0.250696
-0.235722
-0.221741
-0.208678
-0.196455
-0.184991
-0.174214
-0.164055
-0.15445
-0.145341
-0.136683
-0.128462
-0.120609
-0.429881
-0.419611
-0.410031
-0.398124
-0.382146
-0.36264
-0.341274
-0.319598
-0.298611
-0.278811
-0.260365
-0.243272
-0.227454
-0.212808
-0.199229
-0.186617
-0.174877
-0.163924
-0.153676
-0.14406
-0.135008
-0.12647
-0.118401
-0.110665
-0.452424
-0.4407
-0.428858
-0.412932
-0.391744
-0.367185
-0.341696
-0.31692
-0.293653
-0.272159
-0.252431
-0.234354
-0.217779
-0.20256
-0.18856
-0.175655
-0.163734
-0.152696
-0.142451
-0.132913
-0.12401
-0.11568
-0.107835
-0.100344
-0.474388
-0.461248
-0.446333
-0.425242
-0.398135
-0.368401
-0.338966
-0.31133
-0.285997
-0.262986
-0.242131
-0.223216
-0.206028
-0.190377
-0.176092
-0.163026
-0.15105
-0.140046
-0.129911
-0.120554
-0.111903
-0.103894
-0.0964201
-0.0893866
-0.385716
-0.387345
-0.387936
-0.388254
-0.38868
-0.389338
-0.390278
-0.391518
-0.393071
-0.394961
-0.397231
-0.399955
-0.403245
-0.407259
-0.412206
-0.418345
-0.425972
-0.435383
-0.446842
-0.460524
-0.476427
-0.494192
-0.513003
-0.532238
-0.373955
-0.374962
-0.374996
-0.374631
-0.374205
-0.373853
-0.373647
-0.373632
-0.373863
-0.374433
-0.375483
-0.377214
-0.379891
-0.38384
-0.389434
-0.397081
-0.407183
-0.420068
-0.435926
-0.454741
-0.476316
-0.499896
-0.524566
-0.548745
-0.363691
-0.364037
-0.363563
-0.362621
-0.361476
-0.360278
-0.35912
-0.358075
-0.357239
-0.356759
-0.356846
-0.357784
-0.359957
-0.363784
-0.369723
-0.378222
-0.389688
-0.40442
-0.422475
-0.443698
-0.467607
-0.493246
-0.519935
-0.544989
-0.354592
-0.354347
-0.353442
-0.35202
-0.350264
-0.348332
-0.346344
-0.344404
-0.342642
-0.341247
-0.340479
-0.340591
-0.342148
-0.345547
-0.351267
-0.359754
-0.371359
-0.38629
-0.404533
-0.4257
-0.449459
-0.474295
-0.50028
-0.524349
-0.346341
-0.345673
-0.344444
-0.342635
-0.340341
-0.337726
-0.334946
-0.332147
-0.329489
-0.327184
-0.325513
-0.324825
-0.325566
-0.328196
-0.333174
-0.340905
-0.35169
-0.365619
-0.382734
-0.402317
-0.42439
-0.446854
-0.470261
-0.490802
-0.338737
-0.337873
-0.336451
-0.334335
-0.331551
-0.32826
-0.324665
-0.320969
-0.317379
-0.314138
-0.311543
-0.309956
-0.309796
-0.311506
-0.315513
-0.322171
-0.331767
-0.344275
-0.359869
-0.377605
-0.39781
-0.418244
-0.439818
-0.458074
-0.331704
-0.330892
-0.329412
-0.32707
-0.323842
-0.319879
-0.315434
-0.310786
-0.306212
-0.302005
-0.298489
-0.296029
-0.295031
-0.295911
-0.299064
-0.304804
-0.313393
-0.324753
-0.339074
-0.355306
-0.374109
-0.392428
-0.411489
-0.426012
-0.325296
-0.324764
-0.323336
-0.320844
-0.317238
-0.312658
-0.3074
-0.301822
-0.296289
-0.291166
-0.286822
-0.283646
-0.28204
-0.282405
-0.285113
-0.290426
-0.298567
-0.309409
-0.322822
-0.337827
-0.354367
-0.369838
-0.384692
-0.394157
-0.3197
-0.319614
-0.318296
-0.315714
-0.31183
-0.306766
-0.300865
-0.294546
-0.288259
-0.282452
-0.277563
-0.27402
-0.272234
-0.27258
-0.275349
-0.280695
-0.28857
-0.298665
-0.310528
-0.323197
-0.336005
-0.347115
-0.355853
-0.358668
-0.315285
-0.315666
-0.314478
-0.311859
-0.307843
-0.302502
-0.296284
-0.289615
-0.283015
-0.277004
-0.272072
-0.268658
-0.26712
-0.267703
-0.270512
-0.275463
-0.282269
-0.290404
-0.29927
-0.307899
-0.315749
-0.321412
-0.324231
-0.321461
-0.31262
-0.313339
-0.31224
-0.309637
-0.30565
-0.300422
-0.294278
-0.287769
-0.28139
-0.275682
-0.271093
-0.26798
-0.266588
-0.266994
-0.269093
-0.272611
-0.277036
-0.281834
-0.2863
-0.289831
-0.2922
-0.292703
-0.291919
-0.287353
-0.312258
-0.313064
-0.311995
-0.30949
-0.305735
-0.300874
-0.295202
-0.289253
-0.283425
-0.278157
-0.273836
-0.270709
-0.268869
-0.268243
-0.268581
-0.269511
-0.270508
-0.271197
-0.27097
-0.269858
-0.267452
-0.2641
-0.260427
-0.255697
-0.556789
-0.58168
-0.598798
-0.605438
-0.598467
-0.573616
-0.52595
-0.45538
-0.373636
-0.297928
-0.239609
-0.202682
-0.186102
-0.185595
-0.198342
-0.226987
-0.269987
-0.310957
-0.325218
-0.304459
-0.255184
-0.201171
-0.15762
-0.128859
-0.114899
-0.113564
-0.123079
-0.147764
-0.192651
-0.247054
-0.283521
-0.275603
-0.229449
-0.174364
-0.135112
-0.116456
-0.114943
-0.138558
-0.184985
-0.223028
-0.223719
-0.191409
-0.148461
-0.114043
-0.0972348
-0.0967846
-0.104063
-0.109814
-0.108641
-0.1034
-0.0955284
-0.0851782
-0.0727448
-0.058135
-0.0466913
-0.0364714
-0.0288458
-0.0226971
-0.0141728
-0.00368205
-0.577414
-0.604824
-0.624589
-0.62989
-0.622651
-0.597499
-0.548732
-0.475662
-0.390051
-0.309638
-0.246581
-0.204155
-0.180279
-0.172392
-0.17779
-0.197506
-0.231327
-0.267132
-0.282713
-0.266401
-0.226307
-0.181241
-0.144043
-0.119509
-0.109241
-0.111312
-0.124258
-0.152906
-0.201944
-0.259335
-0.297382
-0.289161
-0.241229
-0.182851
-0.139177
-0.116236
-0.110275
-0.128165
-0.168985
-0.203889
-0.206044
-0.179114
-0.143361
-0.116378
-0.106557
-0.112379
-0.124131
-0.13143
-0.127911
-0.117913
-0.104574
-0.0888074
-0.0715872
-0.0537005
-0.0408332
-0.0310171
-0.0247984
-0.0202969
-0.0131164
-0.00338995
-0.57335
-0.599226
-0.616518
-0.626348
-0.620631
-0.596532
-0.549039
-0.477071
-0.391463
-0.309639
-0.244849
-0.199944
-0.171772
-0.157351
-0.15484
-0.164869
-0.188295
-0.216957
-0.232991
-0.222928
-0.19302
-0.157259
-0.126506
-0.106534
-0.100083
-0.105382
-0.121368
-0.153055
-0.204701
-0.263899
-0.303327
-0.296377
-0.248251
-0.18787
-0.140732
-0.113955
-0.103749
-0.115877
-0.150437
-0.181819
-0.185608
-0.164746
-0.136708
-0.117689
-0.115653
-0.128428
-0.145104
-0.154241
-0.148271
-0.133064
-0.113965
-0.0927633
-0.0709248
-0.0499059
-0.0356313
-0.026096
-0.0211168
-0.0180253
-0.0121789
-0.0031478
-0.549312
-0.5748
-0.594707
-0.604597
-0.599474
-0.576291
-0.52984
-0.460208
-0.378335
-0.300209
-0.23689
-0.191279
-0.160804
-0.142197
-0.133391
-0.134261
-0.147005
-0.167198
-0.181725
-0.177732
-0.157395
-0.130415
-0.105958
-0.0904513
-0.0874937
-0.0956227
-0.113809
-0.146908
-0.199418
-0.259858
-0.300643
-0.296438
-0.249945
-0.189018
-0.139729
-0.109903
-0.095849
-0.102407
-0.130719
-0.158367
-0.163722
-0.14883
-0.128602
-0.117956
-0.124114
-0.144282
-0.166545
-0.177983
-0.169608
-0.148784
-0.123641
-0.0970137
-0.0707605
-0.0467646
-0.0311349
-0.0217555
-0.0178234
-0.0158752
-0.0113576
-0.00296647
-0.513215
-0.537976
-0.559825
-0.570135
-0.565159
-0.542285
-0.497267
-0.431637
-0.356414
-0.285268
-0.226265
-0.181302
-0.149208
-0.127504
-0.114128
-0.10827
-0.111339
-0.122588
-0.133624
-0.134968
-0.121245
-0.102093
-0.0835098
-0.0720835
-0.0721625
-0.0826778
-0.102236
-0.135131
-0.186319
-0.246538
-0.289009
-0.288698
-0.246032
-0.186393
-0.136387
-0.104369
-0.0872408
-0.0886248
-0.110855
-0.134624
-0.141445
-0.13196
-0.119303
-0.116732
-0.131178
-0.159504
-0.188054
-0.202317
-0.191781
-0.16503
-0.133565
-0.101527
-0.071077
-0.0442602
-0.0273632
-0.018021
-0.0149205
-0.0138377
-0.010642
-0.00285539
-0.475972
-0.496038
-0.517695
-0.527422
-0.521421
-0.498101
-0.455348
-0.396124
-0.33021
-0.267818
-0.214614
-0.171793
-0.138915
-0.114815
-0.0977984
-0.0867695
-0.0823106
-0.0852114
-0.091201
-0.0936575
-0.086139
-0.0738978
-0.0604877
-0.0526724
-0.0552691
-0.0676863
-0.0879511
-0.119285
-0.166872
-0.224705
-0.26885
-0.273589
-0.236525
-0.180218
-0.130971
-0.097745
-0.078388
-0.075274
-0.0918587
-0.111744
-0.119712
-0.114478
-0.10873
-0.113762
-0.136652
-0.173317
-0.20885
-0.226729
-0.214528
-0.181725
-0.143693
-0.106255
-0.0718334
-0.0423508
-0.0242932
-0.0148865
-0.012389
-0.0119049
-0.0100155
-0.00282232
-0.437099
-0.452213
-0.470486
-0.478215
-0.470311
-0.447236
-0.408852
-0.358485
-0.303545
-0.250659
-0.20362
-0.163659
-0.13086
-0.105049
-0.0852885
-0.0703884
-0.0603132
-0.0561618
-0.0566786
-0.0578284
-0.0541464
-0.0471084
-0.0381409
-0.0334773
-0.0379981
-0.0517387
-0.0721346
-0.100854
-0.143093
-0.196372
-0.241408
-0.252284
-0.222404
-0.171046
-0.123863
-0.090495
-0.069705
-0.0628754
-0.0743434
-0.0905288
-0.0981486
-0.0967977
-0.0969205
-0.108963
-0.139875
-0.185411
-0.228621
-0.25073
-0.237551
-0.198768
-0.153973
-0.111129
-0.0729406
-0.0409629
-0.0218567
-0.0123119
-0.0101935
-0.010071
-0.0094589
-0.00287349
-0.397356
-0.404055
-0.418489
-0.423303
-0.414254
-0.393775
-0.362377
-0.322457
-0.278686
-0.235003
-0.194037
-0.157375
-0.125496
-0.0987041
-0.0769573
-0.0593187
-0.0453451
-0.035769
-0.0309462
-0.0292849
-0.0284531
-0.0227433
-0.017502
-0.0155627
-0.0214089
-0.0358485
-0.0559467
-0.0816654
-0.117657
-0.164781
-0.209476
-0.226373
-0.204604
-0.159466
-0.115411
-0.0828439
-0.0613203
-0.0519163
-0.0587835
-0.0715282
-0.0780359
-0.0793565
-0.0841704
-0.10257
-0.141073
-0.194916
-0.246053
-0.273575
-0.260306
-0.215962
-0.164304
-0.116042
-0.0742643
-0.0399861
-0.0199448
-0.0102197
-0.00828135
-0.00833069
-0.00895181
-0.00301333
-0.352472
-0.352749
-0.364411
-0.367207
-0.359316
-0.343921
-0.320871
-0.291109
-0.257126
-0.221397
-0.18599
-0.152684
-0.122406
-0.0955133
-0.0724544
-0.0529686
-0.0364629
-0.0232469
-0.0138983
-0.00830579
-0.0052264
-0.00137966
0.000497683
0.000322932
-0.0062306
-0.0207094
-0.0401654
-0.0627035
-0.0921127
-0.132439
-0.175159
-0.199567
-0.184496
-0.146124
-0.105988
-0.074956
-0.0534067
-0.0424475
-0.0454908
-0.0550483
-0.0601621
-0.0627303
-0.0706102
-0.0943118
-0.139572
-0.201824
-0.261696
-0.294944
-0.282547
-0.233052
-0.174563
-0.120931
-0.0757324
-0.0393311
-0.0184204
-0.00849552
-0.00658552
-0.00667632
-0.00847329
-0.00324169
-0.308723
-0.30677
-0.316374
-0.318032
-0.312549
-0.302412
-0.286487
-0.264758
-0.238456
-0.209243
-0.178866
-0.148933
-0.120611
-0.0944153
-0.0708312
-0.0501357
-0.0320512
-0.0166563
-0.00432236
0.00487251
0.0108959
0.0136142
0.0147944
0.0131255
0.00655952
-0.00702215
-0.025429
-0.0453352
-0.0689993
-0.101403
-0.140681
-0.168259
-0.161064
-0.131179
-0.0960878
-0.0673158
-0.0462806
-0.0342056
-0.034254
-0.0412861
-0.0447853
-0.0473302
-0.0570366
-0.0847939
-0.135941
-0.205532
-0.273273
-0.313779
-0.303294
-0.249721
-0.184874
-0.125999
-0.0774689
-0.039033
-0.0171966
-0.00700187
-0.00502692
-0.00509682
-0.00800095
-0.00355287
-0.275359
-0.274396
-0.281052
-0.281447
-0.277818
-0.2713
-0.26034
-0.244406
-0.223944
-0.19998
-0.173889
-0.14707
-0.120686
-0.0955232
-0.0720926
-0.0507748
-0.0316041
-0.0146293
-0.000217034
0.0116716
0.0205452
0.025222
0.0258411
0.0232691
0.0170171
0.00468262
-0.0124277
-0.0293969
-0.0474765
-0.0739613
-0.109621
-0.137952
-0.140095
-0.117346
-0.0870052
-0.0606771
-0.040347
-0.0271319
-0.0244015
-0.0296872
-0.0323057
-0.033624
-0.0429293
-0.0730336
-0.129634
-0.206257
-0.283142
-0.330699
-0.3231
-0.26615
-0.195554
-0.131353
-0.0793651
-0.0389723
-0.0161977
-0.00563519
-0.0035242
-0.00356865
-0.00751082
-0.00393682
-0.251298
-0.253066
-0.255294
-0.252917
-0.249172
-0.24417
-0.236473
-0.225176
-0.210006
-0.191318
-0.169886
-0.146746
-0.122905
-0.099225
-0.0764353
-0.0550951
-0.0354165
-0.017529
-0.00192651
0.0112694
0.0223909
0.0301751
0.032762
0.0299999
0.0247498
0.0147486
-0.00100357
-0.0165574
-0.0304987
-0.0500073
-0.0783644
-0.103556
-0.11238
-0.0989179
-0.0750799
-0.0522418
-0.0335913
-0.0202023
-0.0153768
-0.01867
-0.0214791
-0.0222905
-0.0308174
-0.061108
-0.12067
-0.203251
-0.287429
-0.343139
-0.339604
-0.281131
-0.204648
-0.135009
-0.0799009
-0.0381779
-0.0149022
-0.00419635
-0.00199396
-0.00208297
-0.00698395
-0.00437859
-0.230475
-0.241738
-0.241528
-0.236139
-0.229707
-0.222954
-0.214893
-0.204225
-0.190241
-0.173061
-0.153363
-0.13211
-0.110258
-0.0884945
-0.0674141
-0.0474891
-0.0288728
-0.0116656
0.00363677
0.0167851
0.028243
0.0372145
0.0404866
0.0370206
0.0312516
0.0234907
0.0115556
-0.00140629
-0.012503
-0.0301627
-0.0590739
-0.0872674
-0.0963822
-0.0827747
-0.0613467
-0.0411599
-0.0247381
-0.0128962
-0.00791587
-0.00944077
-0.0106422
-0.00803662
-0.0158431
-0.0454884
-0.107276
-0.19587
-0.289046
-0.354262
-0.356601
-0.291545
-0.208841
-0.135129
-0.078265
-0.0362302
-0.0129467
-0.0023398
-0.000298364
-0.000584972
-0.00640743
-0.00484657
-0.206541
-0.220498
-0.221483
-0.214929
-0.206773
-0.198987
-0.190971
-0.18124
-0.168816
-0.153598
-0.136151
-0.117317
-0.0978745
-0.0783641
-0.0592673
-0.040985
-0.0236697
-0.00757484
0.00679286
0.0192653
0.0303105
0.039105
0.0425526
0.0400293
0.0349245
0.0290746
0.0201648
0.010018
0.00140347
-0.014991
-0.0437794
-0.0706697
-0.0772318
-0.0652588
-0.0473113
-0.03059
-0.0167346
-0.00618332
-0.00105579
-0.00149737
-0.0019605
0.000232153
-0.00503853
-0.0332144
-0.0955329
-0.188369
-0.29035
-0.363229
-0.36558
-0.29876
-0.211512
-0.134601
-0.0763975
-0.0341734
-0.0109053
-0.000445803
0.0013992
0.000833128
-0.00580891
-0.00525511
-0.184515
-0.198996
-0.200973
-0.194743
-0.186425
-0.178552
-0.170911
-0.162171
-0.151273
-0.137924
-0.122494
-0.105672
-0.088154
-0.0704154
-0.0528638
-0.0358904
-0.0196776
-0.00449199
0.0092442
0.0212426
0.031723
0.0403442
0.044122
0.0421666
0.0379698
0.0343118
0.0287893
0.0214627
0.0136667
-0.00219076
-0.0292751
-0.0531681
-0.0586439
-0.0492532
-0.0348637
-0.0210917
-0.00942396
-0.000208678
0.00492466
0.00557772
0.00591759
0.00833891
0.00348621
-0.0241105
-0.0869289
-0.18366
-0.292084
-0.369235
-0.373494
-0.304139
-0.21305
-0.133402
-0.0741106
-0.0317521
-0.00844301
0.00186172
0.00336401
0.00229288
-0.00509929
-0.00559697
-0.165274
-0.178369
-0.180893
-0.175626
-0.167786
-0.160049
-0.152636
-0.144557
-0.13478
-0.122907
-0.109163
-0.0941248
-0.0784085
-0.0624417
-0.0465616
-0.0310836
-0.0161518
-0.00206771
0.0107726
0.0221611
0.0320993
0.0402128
0.0444095
0.0435126
0.040691
0.0393932
0.0377968
0.0337568
0.0261761
0.00983619
-0.0159646
-0.0364284
-0.0409271
-0.0339432
-0.0228704
-0.0119876
-0.00249828
0.00536728
0.0102753
0.0116186
0.012403
0.0149979
0.010619
-0.0166794
-0.0801287
-0.179442
-0.291162
-0.371711
-0.377586
-0.306481
-0.212508
-0.130964
-0.0710638
-0.0288147
-0.00549791
0.00465896
0.00568252
0.0038623
-0.00424907
-0.00585245
-0.146957
-0.15887
-0.161737
-0.15742
-0.150262
-0.142883
-0.135791
-0.128332
-0.119623
-0.109221
-0.097196
-0.0839484
-0.0699879
-0.0556931
-0.0413378
-0.0272182
-0.0134865
-0.000431118
0.0115442
0.0222932
0.0317099
0.0394746
0.0439293
0.0442475
0.0429661
0.0435176
0.0447765
0.0431574
0.0358174
0.0194313
-0.00345096
-0.0198941
-0.0243039
-0.0201308
-0.0122397
-0.00387903
0.00368789
0.0102735
0.0149184
0.0167935
0.01771
0.0201615
0.0164534
-0.00989276
-0.0729428
-0.172452
-0.285875
-0.369393
-0.376921
-0.305103
-0.209605
-0.127203
-0.0672639
-0.0253452
-0.00202001
0.00799472
0.00840515
0.00556869
-0.00326971
-0.00598752
-0.129819
-0.140824
-0.14378
-0.140197
-0.133794
-0.126991
-0.120414
-0.113644
-0.105946
-0.0968547
-0.0863202
-0.0746232
-0.0621911
-0.04938
-0.0364482
-0.023669
-0.0111824
0.000783526
0.0118382
0.0218708
0.0307664
0.0382264
0.0427714
0.0442268
0.0442911
0.045855
0.0481931
0.0475383
0.0410593
0.0268685
0.00848933
-0.00483477
-0.00987566
-0.00819873
-0.00287045
0.0034188
0.00928431
0.0146174
0.018857
0.0210363
0.0217661
0.0235852
0.020762
-0.00357213
-0.0640802
-0.161589
-0.275663
-0.36124
-0.37036
-0.299165
-0.20379
-0.121831
-0.0626015
-0.0213514
0.00195816
0.0118542
0.0115226
0.00739822
-0.00217811
-0.00595835
-0.114295
-0.124161
-0.127011
-0.124054
-0.118449
-0.112351
-0.106399
-0.10032
-0.093513
-0.0855447
-0.0763215
-0.0660407
-0.0550522
-0.0436781
-0.0321406
-0.0206634
-0.00938462
0.00150802
0.0116542
0.0209351
0.0292862
0.0367279
0.0410044
0.0433567
0.0444812
0.046478
0.0488716
0.0486482
0.0436009
0.0325779
0.0184122
0.00739908
0.00194607
0.00175446
0.00503047
0.00966272
0.0141057
0.0183256
0.0221466
0.0244957
0.0248147
0.0255394
0.02355
0.00243847
-0.0535379
-0.147553
-0.260378
-0.346235
-0.356432
-0.287952
-0.19476
-0.114786
-0.0571389
-0.0169272
0.00631871
0.0161131
0.0149493
0.00931563
-0.000997484
-0.00572491
-0.0999918
-0.108713
-0.111461
-0.109101
-0.104275
-0.0988883
-0.0935708
-0.0881562
-0.0821636
-0.0752104
-0.0671829
-0.0582104
-0.0485647
-0.0385204
-0.0282717
-0.018014
-0.00789268
0.00193821
0.0111734
0.0196564
0.0272471
0.0334066
0.0385754
0.0417212
0.0436616
0.0458429
0.0480503
0.0481661
0.0443909
0.0361087
0.0253714
0.016276
0.011023
0.00972052
0.0114915
0.0148925
0.018237
0.021439
0.0248218
0.0272717
0.0271217
0.0264094
0.0250812
0.00785088
-0.0425067
-0.131298
-0.239866
-0.323616
-0.335143
-0.270963
-0.182249
-0.105972
-0.0509359
-0.0122527
0.0108223
0.0205098
0.0184987
0.0112463
0.000228527
-0.00525727
-0.0867233
-0.0945524
-0.0972277
-0.0953737
-0.0912351
-0.0865083
-0.0818101
-0.077046
-0.071821
-0.0657956
-0.0588457
-0.0510538
-0.04263
-0.0338079
-0.0247635
-0.015664
-0.00664703
0.00215817
0.010501
0.0182065
0.0251558
0.0311624
0.0359896
0.0395422
0.0420258
0.0442792
0.0462569
0.0465424
0.0437286
0.03763
0.029633
0.0222872
0.0176867
0.0159284
0.0166309
0.0190434
0.0215957
0.02395
0.0268542
0.029387
0.0290395
0.0268203
0.0257825
0.012305
-0.0320619
-0.113403
-0.214118
-0.293121
-0.305908
-0.248034
-0.166306
-0.0955111
-0.0441305
-0.00759113
0.0150727
0.0246209
0.0218427
0.0130483
0.0014516
-0.00453569
-0.0746773
-0.0817003
-0.0842395
-0.0827801
-0.079247
-0.0751434
-0.0710483
-0.0669082
-0.0623932
-0.0572048
-0.0512196
-0.04449
-0.0371804
-0.0294855
-0.0215605
-0.0135437
-0.00556124
0.00226955
0.00974901
0.0166976
0.0229515
0.0280899
0.0332087
0.0369906
0.03977
0.0420287
0.0437917
0.0441611
0.0421415
0.0377641
0.0319132
0.026119
0.0223378
0.020558
0.0205796
0.0222051
0.0241826
0.0258815
0.028266
0.0306733
0.0304642
0.0273059
0.0260482
0.0156723
-0.0224731
-0.0942354
-0.183902
-0.255562
-0.269286
-0.219547
-0.14722
-0.0836464
-0.0368795
-0.00316618
0.0185974
0.0278599
0.0245026
0.0145297
0.00265854
-0.00354711
-0.0638441
-0.0700085
-0.0723515
-0.0712351
-0.0682688
-0.0647555
-0.0612249
-0.0576585
-0.0537881
-0.0493541
-0.0442359
-0.0384634
-0.0321648
-0.0254985
-0.0185999
-0.0115855
-0.00456587
0.00235334
0.00901722
0.0152706
0.0209906
0.0260298
0.0305788
0.0342731
0.0371302
0.0393553
0.0409682
0.0414188
0.040065
0.037017
0.0328311
0.0284104
0.0254129
0.0238574
0.0234989
0.0244917
0.0260359
0.0272652
0.0291032
0.0311569
0.0309779
0.0276153
0.0261966
0.0182683
-0.0140326
-0.0749486
-0.150579
-0.212106
-0.226369
-0.186502
-0.125701
-0.0708448
-0.0294612
0.000864251
0.0210706
0.0297052
0.0260447
0.0155492
0.00388577
-0.00231751
-0.0539605
-0.0593514
-0.061535
-0.0607396
-0.0582862
-0.0552996
-0.0522736
-0.0492251
-0.0459372
-0.0421808
-0.0378382
-0.0329215
-0.0275301
-0.0217938
-0.0158301
-0.00973655
-0.00360623
0.00246922
0.00836975
0.013967
0.0191625
0.0238559
0.0280176
0.0315219
0.0343267
0.0364921
0.0380165
0.0385679
0.037767
0.0357385
0.032838
0.0296077
0.0272808
0.0260351
0.025545
0.0260426
0.0272097
0.0281836
0.0294321
0.0309319
0.030457
0.027162
0.0258515
0.0195288
-0.00768221
-0.0570592
-0.116065
-0.165344
-0.179834
-0.150828
-0.102856
-0.0576739
-0.0222167
0.00432773
0.0223555
0.0299864
0.0263454
0.0160933
0.00513588
-0.000986386
-0.0449505
-0.0497328
-0.0517937
-0.0512572
-0.0492284
-0.0466972
-0.044124
-0.0415451
-0.0387798
-0.0356255
-0.0319699
-0.027812
-0.0232296
-0.0183295
-0.0132113
-0.00795598
-0.0026391
0.00266037
0.00784778
0.0128186
0.0174854
0.021762
0.0255732
0.0288468
0.0315292
0.0336157
0.0350932
0.0357639
0.0354142
0.0341626
0.0322452
0.0299919
0.0282515
0.0273015
0.0268509
0.0270132
0.0278108
0.02863
0.0293824
0.0301715
0.028984
0.0257066
0.0232257
0.0183417
-0.00373672
-0.0410367
-0.0826738
-0.118843
-0.132892
-0.114868
-0.0800788
-0.0447848
-0.0154825
0.00708454
0.0225524
0.0289843
0.0256134
0.0161885
0.00625069
0.000219433
-0.0369217
-0.0411385
-0.0430239
-0.0426653
-0.0409989
-0.0388807
-0.036721
-0.0345627
-0.032258
-0.0296315
-0.0265791
-0.0230911
-0.0192272
-0.0150739
-0.0107139
-0.00621395
-0.00163623
0.00295378
0.00748022
0.0118559
0.0160028
0.0198474
0.0233101
0.0263333
0.0288589
0.0308565
0.0323077
0.0330972
0.0331106
0.0324468
0.0312696
0.02979
0.0285607
0.0278618
0.027519
0.0275122
0.0279878
0.0286208
0.0290716
0.0292288
0.0274092
0.0238656
0.0211622
0.0153473
-0.00235155
-0.0284225
-0.0531457
-0.0759237
-0.0890753
-0.0814789
-0.0589295
-0.0328317
-0.00949638
0.00910185
0.021923
0.0271336
0.0241635
0.0158573
0.00703114
0.00113763
-0.0297726
-0.0334031
-0.0350938
-0.0348936
-0.033561
-0.0318147
-0.0300177
-0.0282242
-0.0263191
-0.0241523
-0.0216277
-0.0187279
-0.0154964
-0.012003
-0.00831631
-0.00449223
-0.000580687
0.00336508
0.007283
0.011102
0.0147523
0.0181697
0.0212859
0.0240481
0.0263995
0.0283015
0.0297302
0.0306219
0.0309178
0.0306938
0.0300693
0.0291797
0.0283813
0.0278997
0.0276655
0.027611
0.0278542
0.0282723
0.0285121
0.0281945
0.026151
0.0225212
0.0195065
0.0121282
-0.00288768
-0.0191672
-0.0292482
-0.0410483
-0.053415
-0.0536185
-0.0407144
-0.0223204
-0.00438402
0.0104593
0.0207646
0.0248446
0.0222901
0.0151569
0.00741127
0.00172684
-0.023273
-0.0264277
-0.027982
-0.0279274
-0.0268756
-0.0254409
-0.0239537
-0.0224771
-0.0209197
-0.0191512
-0.0170831
-0.0146931
-0.0120127
-0.00909784
-0.00600535
-0.00278127
0.000534497
0.0038995
0.00726348
0.0105677
0.0137523
0.0167616
0.0195393
0.0220388
0.0242062
0.0260014
0.0274003
0.0283681
0.0288756
0.0289758
0.0287543
0.0283048
0.0278522
0.0275623
0.0274215
0.0273724
0.0274754
0.0276913
0.027748
0.0271458
0.0252094
0.0219486
0.0187874
0.0124289
0.00030749
-0.00866772
-0.0108223
-0.0170803
-0.0284016
-0.0326469
-0.0258581
-0.0134359
-0.000152066
0.0113027
0.01934
0.0224211
0.0202343
0.0142023
0.0074493
0.00204457
-0.0174616
-0.0202303
-0.02165
-0.0216896
-0.0208607
-0.0196918
-0.0184763
-0.0172763
-0.0160177
-0.0145892
-0.0129117
-0.0109609
-0.00875813
-0.00634756
-0.0037755
-0.00107976
0.00170788
0.00455394
0.00741821
0.0102532
0.0130081
0.0156344
0.0180863
0.0203273
0.0223054
0.0239837
0.0253398
0.0263513
0.027005
0.0273364
0.0274038
0.0272743
0.0270887
0.0269602
0.0269018
0.0268753
0.0269041
0.0269661
0.0268694
0.0261923
0.0244563
0.0218221
0.0192391
0.0151192
0.00758772
0.00329759
0.00322141
-0.00185362
-0.0117608
-0.0173931
-0.0141389
-0.00620161
0.00323949
0.0117733
0.0178425
0.020063
0.0181633
0.0131107
0.00724301
0.00216876
-0.0123619
-0.0147346
-0.0159894
-0.0160909
-0.0154546
-0.0145208
-0.013542
-0.0125785
-0.0115735
-0.010434
-0.00908947
-0.00751417
-0.00572183
-0.00374681
-0.00162662
0.000607854
0.00293138
0.005318
0.00773604
0.0101474
0.0125101
0.0147835
0.0169291
0.0189186
0.0207047
0.0222563
0.0235515
0.024574
0.0253183
0.0258057
0.0260732
0.0261687
0.0261824
0.0261849
0.0261981
0.026201
0.0261945
0.0261606
0.0259646
0.0253026
0.0238835
0.0218759
0.0199969
0.0176986
0.0141685
0.0125851
0.0122688
0.00744237
-0.000714573
-0.00597711
-0.00518686
-0.000526591
0.00587448
0.0119895
0.0163969
0.0178856
0.0162077
0.0119689
0.00687824
0.00216657
-0.00778238
-0.00981365
-0.0109325
-0.0110913
-0.0106211
-0.00988763
-0.00910955
-0.00834612
-0.00755502
-0.00665834
-0.00559404
-0.00433667
-0.00289411
-0.00129255
0.000438228
0.00227322
0.00419227
0.00617555
0.00819859
0.0102313
0.0122408
0.0141951
0.0160674
0.0178038
0.0193956
0.020811
0.0220284
0.0230328
0.0238194
0.0244014
0.0248016
0.0250484
0.0252052
0.025309
0.0253826
0.025416
0.0254017
0.0253229
0.0250932
0.0245119
0.0234229
0.0219756
0.0206826
0.0194594
0.0179283
0.017406
0.0168151
0.012725
0.00640902
0.00192858
0.0013418
0.003761
0.00785771
0.012034
0.0150741
0.0159487
0.0144137
0.0108275
0.00640513
0.00208352
-0.00370607
-0.00545486
-0.00645504
-0.00665151
-0.00631295
-0.00574439
-0.00513441
-0.00453906
-0.00392702
-0.0032335
-0.00240414
-0.00141444
-0.00026789
0.00101605
0.00241379
0.00390516
0.00547427
0.0071062
0.00878238
0.0104794
0.0121709
0.0138304
0.0154324
0.0169475
0.0183549
0.0196307
0.0207558
0.0217171
0.0225084
0.0231362
0.0236145
0.0239624
0.0242122
0.0243887
0.0245098
0.0245729
0.0245699
0.024486
0.024261
0.023787
0.0229841
0.0219677
0.0210824
0.0203816
0.0196875
0.0194369
0.0186831
0.0154845
0.0107709
0.0071017
0.00589052
0.00687762
0.00929705
0.0119663
0.0139063
0.0142712
0.0128172
0.00974659
0.00588649
0.0019529
-0.000111943
-0.00160838
-0.00249327
-0.00270944
-0.00247509
-0.0020427
-0.00157458
-0.00112174
-0.000660257
-0.000135938
0.000498144
0.00126473
0.00216295
0.00317851
0.00429323
0.00549119
0.00675993
0.00808827
0.0094623
0.0108642
0.012273
0.0136663
0.01502
0.0163291
0.0175594
0.0186936
0.0197155
0.0206131
0.0213794
0.0220163
0.02253
0.022932
0.0232359
0.023463
0.0236212
0.023713
0.0237314
0.0236602
0.023467
0.0230978
0.0225198
0.0218129
0.0211904
0.0207164
0.0203106
0.0200396
0.0192081
0.016768
0.0132957
0.0103546
0.00894854
0.00905353
0.0102915
0.0118222
0.0128965
0.0128422
0.0114279
0.00875375
0.00536346
0.00180122
0.00305818
0.00178643
0.00100721
0.000777738
0.000929317
0.00125005
0.00159985
0.00193478
0.00227291
0.00265828
0.0031311
0.00371245
0.0044037
0.00519431
0.0060704
0.00701957
0.00803209
0.00909975
0.0102127
0.0113577
0.012519
0.0136792
0.014822
0.0159267
0.0169838
0.0179755
0.0188861
0.0197047
0.0204236
0.0210408
0.0215578
0.0219793
0.0223127
0.0225685
0.0227525
0.0228653
0.0229024
0.022853
0.0227018
0.0224239
0.0220092
0.0215087
0.0210449
0.0206631
0.0203203
0.0199533
0.019108
0.0172309
0.0146553
0.012312
0.0109301
0.0104964
0.0109283
0.0116227
0.0120322
0.0116399
0.0102392
0.00786539
0.00486652
0.00164674
0.00585455
0.00477789
0.00409317
0.00385535
0.00393229
0.00415601
0.00441314
0.00465816
0.00490075
0.00517084
0.00551105
0.00593983
0.00645954
0.00706277
0.00773892
0.00847861
0.0092743
0.0101199
0.0110084
0.0119303
0.0128732
0.0138218
0.0147698
0.0156977
0.0165951
0.0174483
0.0182447
0.0189743
0.0196293
0.0202056
0.0207015
0.0211179
0.0214579
0.0217251
0.0219211
0.0220464
0.0220993
0.0220738
0.0219627
0.0217547
0.0214504
0.0210794
0.0207076
0.0203584
0.0200015
0.01955
0.0187284
0.0172462
0.0152895
0.0133882
0.0119353
0.0113715
0.0112844
0.0113814
0.0112931
0.0106357
0.00923442
0.00708728
0.00441087
0.00149914
0.00831309
0.00740214
0.00680074
0.00656107
0.00658074
0.00672386
0.00689448
0.00705501
0.00721332
0.00740301
0.00764433
0.00795397
0.00833401
0.00878286
0.00929311
0.00985783
0.0104715
0.0111297
0.0118271
0.0125557
0.0133094
0.0140791
0.0148508
0.0156161
0.0163641
0.0170846
0.0177669
0.0184023
0.018983
0.0195038
0.0199615
0.0203544
0.0206818
0.0209438
0.0211405
0.0212716
0.0213355
0.0213287
0.0212479
0.0210886
0.0208541
0.0205599
0.0202389
0.0198977
0.0195128
0.0190093
0.0182285
0.0170206
0.0154893
0.0139402
0.0126736
0.0118823
0.0114326
0.0111082
0.0106571
0.00979838
0.00839231
0.0064172
0.00400485
0.00136409
0.0104608
0.00969396
0.00916961
0.00893474
0.00891068
0.00898927
0.00909222
0.00918755
0.00927954
0.00939038
0.0095427
0.00975141
0.0100225
0.0103498
0.0107267
0.011148
0.0116104
0.0121111
0.0126471
0.0132149
0.0138057
0.0144139
0.0150311
0.0156497
0.0162612
0.0168572
0.0174291
0.0179688
0.0184695
0.0189258
0.0193334
0.0196887
0.0199894
0.0202339
0.0204209
0.0205489
0.0206162
0.0206202
0.020559
0.0204301
0.0202368
0.0199856
0.0196902
0.0193486
0.0189426
0.0184169
0.0176836
0.0166661
0.0154251
0.014135
0.0129954
0.0121029
0.0114208
0.0108105
0.0101033
0.00909848
0.00768975
0.00584775
0.00365024
0.00124396
0.0123336
0.0116916
0.0112357
0.0110081
0.0109498
0.0109763
0.0110241
0.0110661
0.0111042
0.0111558
0.0112398
0.0113686
0.0115463
0.0117703
0.0120357
0.0123385
0.0126759
0.0130464
0.0134478
0.0138772
0.0143297
0.0148002
0.0152826
0.0157712
0.0162594
0.0167406
0.0172076
0.0176538
0.0180731
0.01846
0.0188098
0.0191186
0.0193831
0.0196003
0.0197679