/*--------------------------------*- C++ -*----------------------------------*\
| =========                 |                                                 |
| \\      /  F ield         | OpenFOAM: The Open Source CFD Toolbox           |
|  \\    /   O peration     | Version:  2512                                  |
|   \\  /    A nd           | Website:  www.openfoam.com                      |
|    \\/     M anipulation  |                                                 |
\*---------------------------------------------------------------------------*/
FoamFile
{
    version     2.0;
    format      ascii;
    arch        "LSB;label=32;scalar=64";
    class       volVectorField;
    location    "113.95";
    object      U;
}
// * * * * * * * * * * * * * * * * * * * * * * * * * * * * * * * * * * * * * //

dimensions      [0 1 -1 0 0 0 0];

internalField   nonuniform List<vector> 
13248
(
(-0.0254907 0.0202994 6.8802e-20)
(-0.0470359 0.0374859 0)
(-0.0412364 0.0410197 -1.18392e-19)
(-0.00504968 0.0365779 1.0962e-19)
(0.0650853 0.0262559 1.01103e-19)
(0.172425 0.0113378 0)
(0.317025 -0.00657824 0)
(0.492712 -0.0259714 2.34968e-19)
(0.686245 -0.0453957 -5.91977e-22)
(0.879664 -0.063913 -2.00969e-19)
(1.05475 -0.081237 1.8408e-19)
(1.19732 -0.0975568 -1.14202e-19)
(1.29985 -0.113199 0)
(1.36226 -0.128341 -1.84551e-19)
(1.39067 -0.142907 3.37256e-19)
(1.39465 -0.156661 -8.09048e-20)
(1.38383 -0.169319 -1.30175e-19)
(1.36532 -0.180601 1.21377e-19)
(1.34301 -0.190246 0)
(1.31853 -0.198488 0)
(1.2928 -0.203334 0)
(1.26436 -0.212061 0)
(1.23928 -0.205338 2.75991e-20)
(1.20171 -0.229393 8.83989e-20)
(-0.0286618 0.0211899 -2.07313e-19)
(-0.0434353 0.0347669 1.30696e-19)
(-0.0199314 0.0328151 -7.82373e-22)
(0.0437963 0.0223346 -1.67188e-19)
(0.150913 0.00705406 -1.00956e-19)
(0.301727 -0.0102542 -9.43906e-20)
(0.489077 -0.027324 -1.71225e-19)
(0.696228 -0.0424983 1.59704e-19)
(0.900675 -0.0551656 0)
(1.08097 -0.0657705 1.07518e-21)
(1.22241 -0.0753452 1.49981e-21)
(1.31952 -0.0848973 1.11536e-19)
(1.3754 -0.0949888 0)
(1.39892 -0.105645 0)
(1.40079 -0.116526 1.17005e-19)
(1.39021 -0.127165 -2.18391e-19)
(1.37322 -0.1371 1.22002e-19)
(1.35292 -0.146072 -1.13755e-19)
(1.3308 -0.153772 -4.70684e-20)
(1.3076 -0.160159 -8.1336e-20)
(1.2837 -0.165196 -2.99425e-20)
(1.2602 -0.168559 -5.49274e-20)
(1.23602 -0.168214 8.49879e-20)
(1.2113 -0.174616 2.23969e-20)
(-0.0294162 0.020005 0)
(-0.0322833 0.0289673 0)
(0.0159314 0.0227061 6.02611e-20)
(0.115619 0.00866211 5.49789e-20)
(0.267161 -0.00800716 -9.41339e-22)
(0.46321 -0.0234411 -9.7264e-20)
(0.684051 -0.0353059 0)
(0.901805 -0.0432063 -7.93227e-20)
(1.09057 -0.0483544 7.24763e-20)
(1.23436 -0.0526029 -6.88632e-22)
(1.32942 -0.0574945 -1.18877e-19)
(1.38181 -0.0637679 -1.04951e-19)
(1.40277 -0.0713843 3.86561e-21)
(1.40389 -0.0798575 -7.97148e-20)
(1.39406 -0.0886082 1.94467e-19)
(1.37865 -0.0971564 0)
(1.36041 -0.105194 -1.15434e-19)
(1.34068 -0.11252 5.66562e-20)
(1.32022 -0.118822 4.70203e-20)
(1.29922 -0.124485 0)
(1.27852 -0.127731 3.55576e-20)
(1.25675 -0.13233 -1.15051e-19)
(1.2364 -0.130478 1.0744e-19)
(1.21326 -0.1385 6.07997e-20)
(-0.027103 0.0168816 -7.24527e-20)
(-0.0117152 0.0198718 -6.91515e-20)
(0.0687245 0.0102693 6.20077e-20)
(0.21194 -0.00445695 0)
(0.411209 -0.0181408 0)
(0.645225 -0.0269639 -1.64757e-21)
(0.880095 -0.0304361 0)
(1.08338 -0.0305924 -2.38117e-19)
(1.23601 -0.0301699 2.16579e-19)
(1.33486 -0.0311819 -2.62137e-19)
(1.38829 -0.0344149 5.88004e-20)
(1.40948 -0.0396701 0)
(1.4109 -0.0462965 9.0342e-20)
(1.40153 -0.0536275 -1.642e-19)
(1.38671 -0.0611645 3.89457e-20)
(1.36925 -0.0685744 9.35241e-20)
(1.35057 -0.0756212 -6.53798e-21)
(1.33136 -0.0820482 -1.00226e-19)
(1.31185 -0.0878364 0)
(1.2924 -0.0924854 0)
(1.27271 -0.0964291 -3.2394e-20)
(1.25343 -0.0995612 2.81192e-20)
(1.23462 -0.0992459 9.51971e-20)
(1.21467 -0.106503 -8.88907e-20)
(-0.0212036 0.0123806 -7.56927e-20)
(0.0201489 0.00865669 -7.03298e-20)
(0.140866 -0.00259711 1.94141e-19)
(0.333045 -0.0141289 -1.17079e-19)
(0.576116 -0.0199868 1.08443e-19)
(0.830866 -0.0188492 1.94575e-19)
(1.05555 -0.0136133 -1.34778e-19)
(1.22471 -0.00819193 -1.57636e-19)
(1.33371 -0.00521338 5.51873e-21)
(1.39228 -0.00550561 1.95332e-19)
(1.41555 -0.00864474 0)
(1.41747 -0.0137402 4.98787e-20)
(1.40798 -0.0199616 0)
(1.39306 -0.026713 -7.71491e-20)
(1.37587 -0.0335973 1.07487e-19)
(1.35789 -0.0403408 1.22355e-21)
(1.33971 -0.0467204 -2.65638e-20)
(1.32148 -0.0526346 4.8623e-20)
(1.30334 -0.0578407 4.08053e-20)
(1.28522 -0.0624865 -3.56476e-20)
(1.26744 -0.0661207 3.23787e-20)
(1.24985 -0.0693735 -2.81056e-20)
(1.23261 -0.0705911 0)
(1.21512 -0.076412 -2.02455e-20)
(-0.0110272 0.00716787 7.56736e-20)
(0.065107 -0.00274719 7.3294e-20)
(0.233633 -0.0126382 -6.51076e-20)
(0.475343 -0.0162492 1.19862e-19)
(0.749109 -0.0106325 -1.11019e-19)
(1.00184 0.000737947 9.8253e-20)
(1.19666 0.0121996 -4.64535e-20)
(1.3238 0.0200015 1.18558e-19)
(1.39296 0.0230798 -7.28171e-20)
(1.42133 0.0221063 1.23087e-19)
(1.42516 0.0183405 -2.78323e-19)
(1.41616 0.0129252 9.98702e-20)
(1.40137 0.0066637 -8.45961e-20)
(1.38439 6.03439e-05 7.87539e-20)
(1.36676 -0.00657731 6.55577e-20)
(1.349 -0.0130478 5.5846e-20)
(1.33126 -0.0192297 -1.53747e-19)
(1.31363 -0.0249709 9.42444e-20)
(1.29614 -0.0302547 -4.07985e-20)
(1.27897 -0.0348677 1.03203e-19)
(1.26209 -0.0389122 -3.32286e-20)
(1.24561 -0.0423321 -7.70944e-20)
(1.22963 -0.0442774 7.02961e-20)
(1.2137 -0.0495598 2.02392e-20)
(0.00424566 0.00189374 0)
(0.124407 -0.012124 7.62417e-22)
(0.345766 -0.0162463 1.3589e-19)
(0.630136 -0.00753835 -1.25127e-19)
(0.914813 0.0104551 -1.10851e-19)
(1.14537 0.0295559 2.01935e-19)
(1.30072 0.0438316 -9.19999e-20)
(1.38772 0.0514425 1.17884e-19)
(1.42537 0.0532213 -3.68741e-21)
(1.43303 0.0509428 -6.37938e-20)
(1.42506 0.0462594 1.34427e-19)
(1.41018 0.0403262 -1.94839e-19)
(1.39277 0.0338274 0)
(1.37471 0.0271365 -3.64896e-20)
(1.35668 0.0204672 -9.5268e-20)
(1.33891 0.0139586 2.98358e-20)
(1.32148 0.00773919 1.50516e-21)
(1.30444 0.00188085 -6.12491e-20)
(1.28782 -0.00349274 5.00073e-21)
(1.2716 -0.00838945 6.9355e-20)
(1.25581 -0.0127236 -2.98289e-20)
(1.24048 -0.0164233 -1.07296e-20)
(1.2255 -0.0196323 3.41776e-20)
(1.21081 -0.0242266 0)
(0.0253358 -0.00269549 0)
(0.198086 -0.0170539 3.7334e-20)
(0.472594 -0.0102543 -1.75903e-19)
(0.785478 0.0132849 6.29637e-20)
(1.06101 0.0417449 -5.83208e-20)
(1.25721 0.0649525 -5.13556e-20)
(1.37229 0.0790912 -8.80286e-20)
(1.42561 0.0848166 4.40007e-20)
(1.44033 0.0845317 3.71698e-20)
(1.43466 0.0806468 0)
(1.41994 0.0748827 7.89251e-20)
(1.402 0.0682407 -1.14901e-19)
(1.38336 0.0612381 8.46159e-20)
(1.36493 0.0541449 3.65054e-20)
(1.347 0.0471241 -2.90542e-20)
(1.32958 0.0402976 -2.35831e-20)
(1.31265 0.0337488 -2.15151e-20)
(1.29617 0.0275655 6.50972e-20)
(1.28013 0.0217818 0)
(1.26456 0.0164699 3.11143e-20)
(1.24946 0.011671 2.51689e-20)
(1.23482 0.00737102 -6.30676e-20)
(1.22064 0.00350666 -4.14113e-20)
(1.20695 -0.000514441 3.82309e-20)
(0.052585 -0.00571511 -4.29281e-20)
(0.284472 -0.0151059 -1.43643e-21)
(0.606464 0.00735886 3.57943e-20)
(0.930173 0.0455734 9.76446e-20)
(1.1816 0.0809928 2.68881e-20)
(1.33916 0.104863 -5.1745e-20)
(1.41812 0.116703 4.65526e-20)
(1.44532 0.119531 -3.95879e-20)
(1.44428 0.11683 6.87004e-20)
(1.43039 0.11122 2.8466e-20)
(1.41186 0.104254 -7.98265e-20)
(1.3923 0.0967187 2.31112e-20)
(1.37303 0.0889953 3.86149e-20)
(1.35441 0.0812813 -1.88658e-20)
(1.33648 0.0737013 0)
(1.31919 0.0663448 2.70523e-20)
(1.30253 0.0592908 4.49181e-20)
(1.28648 0.052595 7.21943e-21)
(1.27104 0.0463201 -3.65626e-20)
(1.25619 0.0405001 1.50433e-20)
(1.24189 0.0351632 0)
(1.22809 0.0302986 -1.13989e-20)
(1.21474 0.0257148 -1.0382e-20)
(1.20174 0.0217695 0)
(0.0857737 -0.00616798 0)
(0.380024 -0.00415852 2.08084e-20)
(0.738512 0.0371146 3.79987e-20)
(1.05659 0.0876274 -9.89486e-20)
(1.27548 0.126141 3.13909e-20)
(1.39546 0.147885 0)
(1.44446 0.155994 4.35786e-20)
(1.45248 0.155389 -5.98131e-20)
(1.44104 0.150111 -3.41235e-20)
(1.42222 0.142659 1.51871e-20)
(1.40158 0.13431 -2.35384e-20)
(1.38118 0.125652 5.6809e-20)
(1.36162 0.116952 2.789e-20)
(1.34299 0.108356 -1.93466e-20)
(1.32524 0.0999635 -1.95715e-21)
(1.3083 0.0918545 -5.10843e-20)
(1.29212 0.0840887 2.30093e-20)
(1.27663 0.0767208 -4.65868e-22)
(1.26178 0.0697869 0)
(1.24755 0.0633237 -1.5058e-20)
(1.23389 0.0573537 0)
(1.22074 0.0518095 3.29158e-20)
(1.20804 0.0467351 -3.8747e-20)
(1.19576 0.0428129 1.74304e-20)
(0.12404 -0.00304121 -1.1715e-20)
(0.479689 0.0172147 -5.26089e-20)
(0.860811 0.0782354 5.87219e-20)
(1.16086 0.137467 3.33247e-20)
(1.34415 0.175575 -1.59048e-20)
(1.43054 0.193143 2.50071e-20)
(1.45596 0.19666 -1.2132e-20)
(1.45044 0.192364 1.93869e-20)
(1.43235 0.184405 0)
(1.41065 0.174965 4.21593e-20)
(1.38885 0.165031 -1.78641e-21)
(1.36803 0.155019 -3.31577e-20)
(1.34837 0.145119 1.40132e-20)
(1.32983 0.135441 -1.55981e-20)
(1.31228 0.126063 -5.84353e-21)
(1.29564 0.117043 6.70457e-21)
(1.27983 0.108427 -5.14011e-21)
(1.26481 0.100254 -2.72638e-20)
(1.25054 0.0925628 1.66121e-20)
(1.23699 0.0853803 3.37206e-21)
(1.22407 0.0787009 2.93011e-21)
(1.21173 0.0724861 2.54556e-21)
(1.19985 0.0668777 0)
(1.18832 0.0624671 0)
(0.166005 0.00456225 1.17292e-20)
(0.577819 0.049525 -1.08932e-20)
(0.967686 0.129236 -1.95538e-20)
(1.24178 0.193275 0)
(1.3901 0.228115 -7.77228e-21)
(1.44803 0.240086 -6.69116e-21)
(1.45562 0.238504 -1.10835e-20)
(1.44087 0.230361 0)
(1.41869 0.219579 0)
(1.39539 0.207944 0)
(1.37306 0.196179 0)
(1.35214 0.18457 0)
(1.3326 0.173241 -8.83179e-21)
(1.31431 0.162268 3.98926e-21)
(1.29714 0.151709 6.83117e-21)
(1.28099 0.141604 3.14665e-21)
(1.26577 0.13198 7.74085e-21)
(1.25141 0.122873 0)
(1.23783 0.114307 -1.81684e-21)
(1.22499 0.106287 -1.68228e-21)
(1.21281 0.0987999 -2.93469e-21)
(1.20123 0.0918281 -2.54954e-21)
(1.19015 0.0856471 0)
(1.17949 0.0806467 1.79018e-21)
(-0.00117933 0.149536 8.20867e-21)
(-0.000369811 0.332763 -7.74885e-21)
(-0.004489 0.428027 -1.43206e-20)
(-0.0149236 0.46523 0)
(-0.0288587 0.471884 -1.86683e-20)
(-0.0435129 0.465445 5.74132e-21)
(-0.0567579 0.453245 -1.12036e-20)
(-0.0671674 0.436157 0)
(-0.0738327 0.412455 0)
(-0.0762215 0.380148 0)
(-0.0741159 0.337891 0)
(-0.0676023 0.285174 0)
(-0.0570721 0.222272 -4.47258e-23)
(-0.0432143 0.150064 -8.3455e-21)
(-0.0270006 0.0698077 1.65856e-20)
(-0.00921136 -0.0171017 2.34904e-20)
(0.00997854 -0.109255 7.63194e-21)
(0.029989 -0.20596 0)
(0.0510152 -0.306314 6.11907e-21)
(0.0740682 -0.408643 -1.72872e-20)
(0.0994393 -0.510075 -1.03529e-20)
(0.129142 -0.604954 -9.08922e-21)
(0.157193 -0.689595 0)
(0.19541 -0.753544 0)
(-0.00790184 0.138573 -2.4826e-20)
(-0.0112684 0.322521 3.90369e-20)
(-0.0101156 0.427034 -1.47689e-20)
(-0.0115783 0.473007 -2.71604e-20)
(-0.0150548 0.484546 3.76235e-20)
(-0.0184446 0.479057 -2.42113e-20)
(-0.0197558 0.464975 3.36466e-20)
(-0.0175295 0.444323 2.19709e-20)
(-0.0109078 0.416192 0)
(0.000424709 0.379123 -2.09355e-20)
(0.0163497 0.332164 -1.58915e-21)
(0.0364106 0.275151 1.81012e-20)
(0.0598597 0.208661 2.74804e-20)
(0.085705 0.133785 3.58357e-20)
(0.112807 0.0518547 -1.57446e-20)
(0.140322 -0.0356723 -4.75735e-20)
(0.167676 -0.128074 1.55389e-20)
(0.194706 -0.225332 -5.68386e-20)
(0.221897 -0.327333 0)
(0.250514 -0.432806 1.15589e-20)
(0.27994 -0.539531 1.03353e-20)
(0.313754 -0.639102 9.07393e-21)
(0.340035 -0.729254 0)
(0.381473 -0.793488 0)
(-0.0130097 0.121564 0)
(-0.0208513 0.29881 8.01233e-20)
(-0.0154956 0.410152 -2.963e-20)
(-0.00834659 0.465344 2.76801e-20)
(-0.00117163 0.483144 -7.70431e-20)
(0.0070765 0.479794 0)
(0.0179403 0.464633 -4.69373e-20)
(0.0327349 0.441097 2.16237e-20)
(0.0522256 0.409423 -4.25015e-20)
(0.0765608 0.368899 2.05996e-20)
(0.105373 0.319047 1.20735e-19)
(0.137916 0.260033 -5.63261e-20)
(0.173154 0.192641 -9.40244e-20)
(0.209786 0.118055 -3.774e-20)
(0.246823 0.0376929 -1.6586e-21)
(0.283446 -0.0471988 1.29997e-19)
(0.319291 -0.136573 -6.10783e-20)
(0.354966 -0.230948 -2.99036e-23)
(0.391369 -0.33138 0)
(0.430314 -0.436026 -4.79368e-20)
(0.468835 -0.543932 0)
(0.511703 -0.642431 -3.51884e-20)
(0.538786 -0.733226 1.29154e-19)
(0.581902 -0.793137 -6.43545e-21)
(-0.0160134 0.100656 0)
(-0.0282342 0.263645 2.12871e-22)
(-0.0206381 0.377666 2.9859e-20)
(-0.00650501 0.441272 -2.80227e-20)
(0.0103685 0.466393 2.51666e-20)
(0.0296788 0.46676 1.4615e-19)
(0.0521667 0.451953 -4.57136e-20)
(0.0787507 0.426729 -4.38123e-20)
(0.109998 0.392658 8.44427e-20)
(0.145901 0.349972 -1.24185e-19)
(0.185899 0.298752 3.77883e-20)
(0.229023 0.239452 3.75698e-20)
(0.273973 0.172949 0)
(0.319518 0.10029 3.55179e-20)
(0.36491 0.0230997 0)
(0.409673 -0.0582759 6.31601e-20)
(0.454196 -0.144599 -1.21285e-19)
(0.500335 -0.236756 2.8915e-20)
(0.549261 -0.336617 1.05063e-19)
(0.60268 -0.440205 4.78824e-20)
(0.654421 -0.54762 0)
(0.708434 -0.640232 -1.07908e-19)
(0.738705 -0.725661 3.54652e-20)
(0.781774 -0.77058 0)
(-0.0168762 0.078563 0)
(-0.0328534 0.220977 -9.71235e-20)
(-0.0254107 0.332005 -2.9544e-20)
(-0.00701575 0.401301 -5.53934e-20)
(0.0174033 0.433656 5.13196e-20)
(0.0462004 0.439103 -4.84955e-20)
(0.079032 0.426435 9.24176e-20)
(0.116108 0.401202 4.61553e-20)
(0.157595 0.366196 -1.23811e-19)
(0.20325 0.32268 8.12137e-20)
(0.252351 0.271406 -1.15983e-19)
(0.303802 0.213157 2.58359e-19)
(0.356112 0.148642 -1.40127e-19)
(0.408708 0.0795466 6.6908e-20)
(0.461446 0.0063242 1.95851e-19)
(0.514632 -0.0716537 -6.11748e-20)
(0.57024 -0.155829 -5.64229e-20)
(0.630955 -0.246781 -5.5894e-20)
(0.696809 -0.346183 0)
(0.76693 -0.446779 -8.88173e-20)
(0.831171 -0.549137 -7.27112e-20)
(0.889973 -0.630207 1.11696e-19)
(0.91748 -0.704597 1.13098e-19)
(0.948845 -0.732183 -1.03335e-19)
(-0.0160316 0.0579031 0)
(-0.034715 0.175926 -1.28936e-19)
(-0.0296165 0.277794 5.50886e-22)
(-0.0102145 0.348112 1.09855e-19)
(0.0186237 0.385695 0)
(0.0543057 0.3964 0)
(0.0953698 0.387254 0)
(0.141091 0.363784 -4.40023e-20)
(0.190993 0.329562 -2.21271e-21)
(0.244454 0.286741 7.59319e-20)
(0.300592 0.236736 -1.15604e-19)
(0.358159 0.180446 -2.22486e-21)
(0.416921 0.119394 0)
(0.477047 0.0542001 -6.68804e-20)
(0.539203 -0.0161422 6.2204e-20)
(0.606097 -0.0924144 -1.75247e-19)
(0.680154 -0.176151 2.22868e-19)
(0.762448 -0.266419 4.86584e-20)
(0.848877 -0.362944 -5.14565e-21)
(0.933753 -0.45544 -1.74255e-19)
(1.00317 -0.544582 -7.1841e-20)
(1.05543 -0.606712 2.17234e-19)
(1.06972 -0.663091 -1.37344e-19)
(1.07798 -0.668894 0)
(-0.0142774 0.0406472 6.81482e-20)
(-0.0345442 0.133578 6.44768e-20)
(-0.033241 0.221101 -5.87972e-20)
(-0.0157853 0.286766 -1.08379e-19)
(0.0140368 0.32564 1.00405e-19)
(0.0533159 0.339893 -9.34226e-20)
(0.0997434 0.334311 1.2963e-19)
(0.151676 0.313664 -4.3681e-20)
(0.207912 0.281686 7.68618e-20)
(0.267479 0.241028 0)
(0.329478 0.193452 7.14167e-20)
(0.394081 0.140567 -1.3072e-19)
(0.462151 0.083071 1.32069e-19)
(0.535344 0.0200177 -1.22931e-19)
(0.616479 -0.0491852 0)
(0.707728 -0.125088 1.12479e-19)
(0.808338 -0.207632 2.06813e-19)
(0.913881 -0.293541 -1.95769e-19)
(1.01427 -0.380109 -8.48676e-20)
(1.10015 -0.456524 -7.71989e-20)
(1.1574 -0.524606 2.1398e-19)
(1.18754 -0.563742 4.92026e-20)
(1.17825 -0.600348 -5.19263e-20)
(1.15921 -0.588994 3.77137e-20)
(-0.0125977 0.0278782 -6.81655e-20)
(-0.0337006 0.0978447 1.90857e-19)
(-0.0367098 0.167969 -5.88736e-20)
(-0.0230831 0.223808 1.07173e-19)
(0.0049558 0.259124 -9.92888e-20)
(0.0447625 0.273604 -7.31297e-22)
(0.0936692 0.269988 4.18365e-20)
(0.149503 0.251921 1.58119e-19)
(0.210771 0.222769 2.78025e-21)
(0.276795 0.185164 -7.07428e-20)
(0.348185 0.141038 0)
(0.426539 0.091343 -6.53868e-20)
(0.514354 0.0356814 1.22669e-19)
(0.614017 -0.0261104 1.20058e-19)
(0.726032 -0.0939139 -5.67869e-20)
(0.847266 -0.166778 -3.17559e-21)
(0.970418 -0.242197 -5.10694e-20)
(1.08483 -0.315888 8.66843e-20)
(1.17809 -0.384012 8.48758e-20)
(1.24198 -0.438731 -7.51338e-20)
(1.26859 -0.482985 5.86095e-20)
(1.26671 -0.50251 -4.97129e-20)
(1.232 -0.523374 0)
(1.19424 -0.504829 -3.77419e-20)
(-0.0119767 0.0198656 6.7367e-20)
(-0.0338197 0.0708677 -6.36953e-20)
(-0.0407975 0.122962 5.8208e-20)
(-0.0313453 0.165567 0)
(-0.00618668 0.193074 0)
(0.0327312 0.204082 8.90807e-20)
(0.0831163 0.199915 -8.35091e-20)
(0.143268 0.183109 7.76707e-20)
(0.212663 0.156303 -3.64853e-19)
(0.292246 0.12159 -1.67738e-21)
(0.384123 0.0802486 6.49157e-20)
(0.490582 0.032695 0)
(0.612323 -0.0205864 -1.20797e-19)
(0.746916 -0.0788349 2.26746e-19)
(0.887989 -0.140454 -1.61466e-19)
(1.02547 -0.203225 -2.49959e-19)
(1.14764 -0.263645 4.02248e-21)
(1.24291 -0.318633 1.61206e-19)
(1.30373 -0.364677 0)
(1.32851 -0.398781 0)
(1.31995 -0.423891 -5.86421e-20)
(1.29228 -0.431313 4.97422e-20)
(1.24502 -0.4454 -1.49599e-19)
(1.20486 -0.425097 1.39559e-19)
(-0.0131701 0.0162575 0)
(-0.0361355 0.0530465 0)
(-0.0458123 0.0884805 -1.74005e-19)
(-0.0389053 0.116726 5.45152e-20)
(-0.0148855 0.133942 1.05679e-21)
(0.0255266 0.138745 8.97782e-20)
(0.0815241 0.131717 0)
(0.153233 0.114447 -7.66932e-20)
(0.241968 0.0886993 7.24657e-20)
(0.349524 0.0559141 -1.35796e-19)
(0.476605 0.0171742 -1.51988e-21)
(0.620998 -0.0264729 1.22928e-19)
(0.776538 -0.0737298 1.69661e-21)
(0.93336 -0.122975 1.09404e-19)
(1.07935 -0.172133 -1.53292e-19)
(1.20234 -0.219117 0)
(1.29291 -0.261321 1.65903e-19)
(1.34602 -0.297522 -2.34048e-19)
(1.36388 -0.32541 6.37198e-20)
(1.35288 -0.346104 0)
(1.3238 -0.360204 4.79205e-20)
(1.28786 -0.364861 1.63727e-19)
(1.24485 -0.376408 -1.52904e-19)
(1.21234 -0.3591 -1.43572e-19)
(-0.0163619 0.016159 2.00832e-19)
(-0.0405397 0.0432548 -2.53466e-19)
(-0.0502597 0.0647844 9.83789e-22)
(-0.0415379 0.0796347 5.40326e-20)
(-0.0126998 0.086161 -9.82476e-20)
(0.0373875 0.0836745 -8.97374e-20)
(0.110195 0.0724233 1.6537e-19)
(0.207473 0.0534766 1.24087e-22)
(0.330208 0.0281799 -1.42783e-19)
(0.476697 -0.00211107 2.69808e-19)
(0.641063 -0.0360224 2.44845e-21)
(0.813163 -0.0721412 -1.18317e-19)
(0.980012 -0.109056 0)
(1.12816 -0.145386 0)
(1.2463 -0.1798 -4.91904e-20)
(1.32759 -0.211126 -8.36409e-20)
(1.37115 -0.23821 -1.52106e-19)
(1.38189 -0.260994 1.4182e-19)
(1.3695 -0.278245 -6.37966e-20)
(1.34299 -0.292901 1.01998e-19)
(1.31217 -0.301502 -5.53291e-20)
(1.27926 -0.308531 6.84804e-20)
(1.24568 -0.316231 -1.72688e-19)
(1.21822 -0.302889 2.9362e-20)
(-0.0209223 0.0180952 6.72968e-20)
(-0.0451506 0.0391649 0)
(-0.0502777 0.0501523 1.16952e-19)
(-0.0324918 0.0539614 -1.08289e-19)
(0.0112062 0.051166 9.83778e-20)
(0.0837537 0.0417245 0)
(0.187507 0.0262595 0)
(0.32281 0.00601976 -7.77061e-20)
(0.485491 -0.0176017 -3.94729e-22)
(0.66589 -0.0431834 6.66802e-20)
(0.849949 -0.069482 -6.22179e-20)
(1.02198 -0.0955726 1.16382e-19)
(1.16793 -0.120826 0)
(1.27817 -0.144781 1.95091e-19)
(1.34919 -0.167015 -3.58039e-19)
(1.38388 -0.187125 2.48072e-19)
(1.3901 -0.204815 1.40198e-19)
(1.37782 -0.220103 -1.30722e-19)
(1.35588 -0.232501 0)
(1.32934 -0.243785 0)
(1.30223 -0.24956 0)
(1.27165 -0.259026 0)
(1.24374 -0.259003 3.21876e-20)
(1.21588 -0.256482 -1.00335e-19)
(0.219524 -0.806838 -3.65286e-21)
(0.237044 -0.841029 3.67777e-21)
(0.235568 -0.858382 -8.86896e-23)
(0.214964 -0.870448 0)
(0.18984 -0.870423 -2.22706e-21)
(0.184451 -0.830546 4.38271e-21)
(0.218351 -0.722542 1.75393e-22)
(0.292341 -0.541165 -2.26373e-21)
(0.386281 -0.306893 0)
(0.480003 -0.0433823 0)
(0.565245 0.227906 -1.44819e-22)
(0.638959 0.469682 -1.27223e-22)
(0.696335 0.639226 -1.67931e-21)
(0.737817 0.720664 1.53048e-21)
(0.763938 0.736748 0)
(0.773866 0.722278 0)
(0.776803 0.693083 7.54189e-22)
(0.778677 0.666903 2.01463e-23)
(0.770304 0.677891 -6.8361e-22)
(0.742217 0.728744 -5.35597e-23)
(0.704323 0.75133 0)
(0.680076 0.65403 0)
(0.681754 0.408445 0)
(0.703025 0.07425 0)
(0.737679 -0.244967 0)
(0.773937 -0.472043 0)
(0.80026 -0.587579 2.67491e-22)
(0.819946 -0.610328 -4.47066e-22)
(0.83592 -0.594953 0)
(0.831053 -0.60461 0)
(0.797009 -0.634762 -2.07627e-22)
(0.737222 -0.633758 2.01751e-22)
(0.67247 -0.541446 1.21754e-22)
(0.624771 -0.347954 0)
(0.615289 -0.0816886 0)
(0.632844 0.175167 2.62193e-22)
(0.679097 0.360323 -2.54828e-22)
(0.727578 0.459615 0)
(0.746716 0.512511 1.29274e-22)
(0.712927 0.551868 -1.86671e-22)
(0.658188 0.52672 6.81979e-23)
(0.611221 0.414965 0)
(0.606389 0.189711 -1.57134e-22)
(0.633632 -0.0349253 1.52788e-22)
(0.687226 -0.222556 0)
(0.696532 -0.359511 0)
(0.681223 -0.434912 -3.73427e-23)
(0.655589 -0.463779 1.0328e-22)
(0.650378 -0.326263 0)
(0.651069 -0.152074 0)
(0.667696 0.0919283 -2.59887e-23)
(0.652564 0.319582 4.51951e-24)
(0.64576 0.395806 -8.43759e-25)
(0.637614 0.412478 2.28255e-23)
(0.646997 0.184491 0)
(0.622337 -0.0672889 0)
(0.606828 -0.269843 0)
(0.581416 -0.441605 0)
(0.580461 -0.147504 0)
(0.540144 0.0828258 0)
(0.389971 -0.843035 -3.89697e-22)
(0.397946 -0.860634 -1.27369e-20)
(0.39177 -0.847474 1.93003e-21)
(0.360403 -0.82938 1.00818e-20)
(0.305714 -0.82255 1.21032e-22)
(0.24842 -0.809163 0)
(0.218226 -0.746843 -7.88422e-21)
(0.234169 -0.605796 1.62904e-20)
(0.288649 -0.390682 -8.40413e-21)
(0.363351 -0.130107 8.97493e-21)
(0.445577 0.143943 -8.57007e-21)
(0.526437 0.393414 6.95968e-21)
(0.599559 0.576999 -6.74288e-21)
(0.662198 0.677876 -1.4122e-22)
(0.708962 0.714225 -3.58741e-21)
(0.738038 0.713334 3.48393e-21)
(0.758635 0.689708 -2.92548e-21)
(0.775065 0.668479 2.75457e-21)
(0.778945 0.688346 -3.37005e-21)
(0.764075 0.748046 7.23047e-21)
(0.74322 0.772941 -3.83631e-21)
(0.737037 0.670063 -3.37858e-22)
(0.751805 0.413137 -6.59024e-21)
(0.778524 0.0659684 1.28473e-20)
(0.809839 -0.263382 -6.26135e-21)
(0.837141 -0.492056 3.09942e-22)
(0.850767 -0.602878 3.27487e-21)
(0.853836 -0.620175 -6.75665e-22)
(0.854048 -0.595938 -4.05141e-21)
(0.837645 -0.592421 3.28112e-21)
(0.793523 -0.610147 -1.48947e-21)
(0.725067 -0.602686 1.73825e-22)
(0.651448 -0.514069 -1.22008e-22)
(0.596736 -0.334604 2.43279e-22)
(0.58419 -0.0863424 0)
(0.607124 0.155395 0)
(0.662661 0.336314 -7.03526e-22)
(0.719329 0.444543 5.42689e-22)
(0.74329 0.513977 3.85563e-22)
(0.715958 0.566795 1.0862e-22)
(0.668243 0.545674 -5.93768e-22)
(0.624169 0.426837 1.84759e-22)
(0.619678 0.188939 0)
(0.64431 -0.0483561 0)
(0.700841 -0.233092 0)
(0.710811 -0.360021 0)
(0.692464 -0.429031 1.64842e-22)
(0.66168 -0.459602 -6.7028e-23)
(0.652839 -0.325925 0)
(0.652074 -0.154688 0)
(0.664596 0.0909162 0)
(0.652572 0.321071 -3.71338e-23)
(0.649628 0.397164 4.74501e-25)
(0.643759 0.412543 -4.31955e-23)
(0.656204 0.187642 0)
(0.629996 -0.0638358 0)
(0.610766 -0.264248 2.50917e-23)
(0.578371 -0.439986 4.83588e-23)
(0.581769 -0.143929 0)
(0.548079 0.085948 0)
(0.567275 -0.845677 -5.62679e-21)
(0.550422 -0.86425 -2.98291e-20)
(0.528976 -0.839894 2.02993e-20)
(0.494531 -0.793188 -1.89877e-20)
(0.435197 -0.757582 -1.21891e-22)
(0.351304 -0.74489 0)
(0.270713 -0.720769 -1.28607e-20)
(0.226867 -0.632856 1.25557e-20)
(0.231885 -0.458425 1.22129e-22)
(0.27484 -0.217679 1.94696e-22)
(0.343007 0.0500061 1.93443e-22)
(0.424931 0.302005 2.19765e-22)
(0.510186 0.497417 -9.58722e-21)
(0.589972 0.618018 9.45181e-21)
(0.654614 0.676101 0)
(0.701906 0.690857 1.61234e-22)
(0.73999 0.675577 -5.41514e-21)
(0.771499 0.660554 5.34592e-21)
(0.789179 0.688164 0)
(0.789152 0.75573 0)
(0.78529 0.784996 -1.0203e-20)
(0.796253 0.682382 2.24381e-20)
(0.82424 0.423161 -2.52636e-20)
(0.856599 0.0717041 2.42126e-22)
(0.884411 -0.264476 2.40142e-20)
(0.902399 -0.496362 -2.0406e-20)
(0.903596 -0.605506 1.47027e-20)
(0.891091 -0.621124 -1.96836e-21)
(0.875792 -0.591646 -4.53865e-21)
(0.849055 -0.576377 0)
(0.797522 -0.582816 0)
(0.722308 -0.571416 1.08377e-21)
(0.640773 -0.489038 -1.36462e-21)
(0.579767 -0.324832 -4.70515e-23)
(0.563559 -0.0953618 1.772e-21)
(0.59071 0.131117 -1.72185e-21)
(0.653138 0.308092 0)
(0.716227 0.426373 1.41675e-22)
(0.745622 0.513365 1.10323e-21)
(0.726353 0.580951 -2.336e-21)
(0.686529 0.565408 1.10344e-21)
(0.646293 0.441047 2.25882e-22)
(0.642335 0.192109 -2.14681e-21)
(0.66204 -0.0586165 1.63778e-21)
(0.718831 -0.242136 3.31003e-22)
(0.729706 -0.35931 2.395e-22)
(0.708092 -0.421774 -1.65278e-22)
(0.671035 -0.455042 0)
(0.658042 -0.326501 0)
(0.656041 -0.157656 -2.83529e-22)
(0.665161 0.0885814 1.41948e-22)
(0.656471 0.32179 -1.13979e-22)
(0.656868 0.397792 2.25407e-22)
(0.65278 0.412388 4.23371e-22)
(0.668384 0.191585 -7.21473e-23)
(0.641371 -0.0595101 2.0181e-22)
(0.618961 -0.257011 -1.48503e-22)
(0.578987 -0.438176 6.44074e-23)
(0.586856 -0.142166 0)
(0.559559 0.0888129 0)
(0.748964 -0.815077 -5.86649e-20)
(0.708528 -0.830803 1.05494e-20)
(0.66075 -0.81184 4.52891e-20)
(0.609223 -0.760868 -2.65719e-22)
(0.554029 -0.697452 0)
(0.473804 -0.658082 0)
(0.369655 -0.645488 -1.9405e-20)
(0.276081 -0.608683 -1.02586e-21)
(0.227373 -0.4943 2.95124e-20)
(0.229378 -0.295773 5.1937e-22)
(0.273363 -0.0489669 -1.06834e-20)
(0.347002 0.197231 -8.87399e-21)
(0.435872 0.401123 8.86349e-21)
(0.525549 0.541044 0)
(0.603512 0.621561 -5.12418e-21)
(0.666694 0.653438 4.68605e-21)
(0.72085 0.64827 0)
(0.766557 0.639451 0)
(0.797307 0.672447 6.07271e-21)
(0.811612 0.74609 1.60782e-21)
(0.824425 0.782542 -7.02182e-21)
(0.85141 0.689377 -1.2116e-20)
(0.890954 0.439472 1.21978e-20)
(0.930356 0.0884375 -1.36849e-20)
(0.958661 -0.254362 1.68148e-21)
(0.969301 -0.491242 1.1252e-20)
(0.958649 -0.599769 9.3851e-22)
(0.931525 -0.614696 6.23797e-24)
(0.901254 -0.583024 0)
(0.86463 -0.558749 2.60845e-21)
(0.807173 -0.554 -2.66736e-21)
(0.727765 -0.538079 1.47221e-22)
(0.640131 -0.463139 0)
(0.573347 -0.316689 -1.98889e-22)
(0.552972 -0.108153 2.84815e-21)
(0.582572 0.10274 -4.90057e-21)
(0.649233 0.276326 1.40239e-22)
(0.717876 0.405162 1.68947e-22)
(0.753808 0.508195 1.50937e-21)
(0.742542 0.590546 2.48748e-22)
(0.7111 0.583393 -3.09515e-21)
(0.676957 0.45686 2.59392e-21)
(0.674734 0.199442 -4.75828e-23)
(0.687764 -0.065409 1.60702e-21)
(0.741322 -0.250336 -1.89436e-21)
(0.752888 -0.358087 -1.60158e-21)
(0.727897 -0.412919 4.83289e-22)
(0.683623 -0.4492 3.93277e-22)
(0.665845 -0.327584 -6.56033e-22)
(0.662821 -0.161199 4.04125e-22)
(0.669298 0.0846289 -1.24592e-22)
(0.663919 0.321626 4.74973e-23)
(0.667238 0.39789 9.20363e-23)
(0.664438 0.412192 -6.63056e-22)
(0.683223 0.196218 -1.79373e-23)
(0.65624 -0.0545203 -2.55782e-22)
(0.631441 -0.248261 0)
(0.583346 -0.436008 -6.39451e-23)
(0.595409 -0.142158 -7.52393e-23)
(0.574323 0.0913242 0)
(0.897397 -0.767809 5.49721e-20)
(0.841763 -0.771061 -9.75166e-20)
(0.779183 -0.751077 4.23595e-20)
(0.706137 -0.715664 2.69541e-20)
(0.640099 -0.655471 -4.73755e-20)
(0.57583 -0.588764 3.75995e-21)
(0.485794 -0.553306 1.64395e-20)
(0.37312 -0.53936 1.3316e-20)
(0.278435 -0.486036 -1.30578e-20)
(0.234054 -0.349089 0)
(0.243969 -0.14151 -1.39527e-20)
(0.298214 0.0874789 2.60757e-20)
(0.38024 0.293624 -1.22572e-20)
(0.471344 0.449978 0)
(0.55745 0.552212 0)
(0.633426 0.602666 1.28239e-22)
(0.701723 0.61007 -7.5284e-21)
(0.760237 0.608419 7.30874e-21)
(0.802377 0.64535 0)
(0.829517 0.723108 1.38011e-20)
(0.857952 0.767593 -3.04782e-20)
(0.899482 0.689467 3.87226e-20)
(0.948246 0.45789 -4.70807e-20)
(0.994813 0.116132 -1.16654e-21)
(1.0276 -0.229367 4.8249e-20)
(1.03437 -0.47216 -2.26592e-20)
(1.0134 -0.583109 -4.72404e-22)
(0.973282 -0.599731 -4.1822e-21)
(0.929122 -0.568606 1.17807e-21)
(0.884111 -0.539014 3.11238e-21)
(0.822826 -0.525774 1.35226e-22)
(0.741339 -0.505852 -1.79255e-21)
(0.649224 -0.438018 3.75302e-21)
(0.576727 -0.309712 -2.18454e-21)
(0.551123 -0.123371 0)
(0.581011 0.071174 -2.17924e-21)
(0.649853 0.24041 2.06759e-21)
(0.723203 0.378764 -1.31179e-21)
(0.766244 0.498722 1.62247e-21)
(0.764357 0.597539 -2.28178e-22)
(0.743373 0.59995 0)
(0.716695 0.474065 -4.76162e-22)
(0.716655 0.211287 1.62603e-21)
(0.721756 -0.0673021 0)
(0.768106 -0.25655 3.3971e-21)
(0.77985 -0.355941 -1.48588e-21)
(0.751626 -0.402307 3.45767e-22)
(0.699339 -0.441837 2.15754e-22)
(0.675993 -0.329089 0)
(0.672135 -0.165447 0)
(0.676783 0.0789735 -1.71356e-22)
(0.674603 0.320177 3.71641e-22)
(0.680561 0.397175 -3.32014e-22)
(0.678483 0.411753 1.36547e-22)
(0.70039 0.201313 5.16498e-22)
(0.674309 -0.0489972 2.56057e-22)
(0.648142 -0.238057 -4.39366e-22)
(0.591528 -0.433226 0)
(0.607043 -0.143851 6.78681e-23)
(0.5921 0.0933822 4.97265e-23)
(1.00829 -0.701684 5.10113e-20)
(0.93794 -0.703995 -5.04069e-20)
(0.869905 -0.678789 2.92975e-22)
(0.792838 -0.647241 -2.1081e-22)
(0.713916 -0.607807 1.75623e-22)
(0.647312 -0.544983 -1.35095e-22)
(0.581126 -0.479982 1.72701e-22)
(0.488442 -0.448776 0)
(0.377343 -0.429715 -9.50816e-23)
(0.290077 -0.360206 8.29287e-23)
(0.256919 -0.211946 8.16327e-23)
(0.280506 -0.0139936 -1.65828e-22)
(0.344497 0.183826 0)
(0.427386 0.34983 0)
(0.514891 0.469597 4.71813e-23)
(0.599648 0.537856 0)
(0.679742 0.559367 -5.36066e-23)
(0.7492 0.566191 0)
(0.800908 0.606183 -8.59733e-21)
(0.838894 0.686258 1.96661e-20)
(0.879983 0.740672 -2.58341e-20)
(0.932955 0.683452 1.46256e-20)
(0.990701 0.476175 2.27543e-20)
(1.04682 0.150281 -2.20834e-20)
(1.08814 -0.194282 -2.23718e-20)
(1.09547 -0.44313 2.16106e-20)
(1.0666 -0.558549 0)
(1.01584 -0.578319 3.06905e-22)
(0.959122 -0.549643 0)
(0.905784 -0.517493 0)
(0.842382 -0.498047 2.94795e-21)
(0.761399 -0.474314 -3.05714e-21)
(0.667106 -0.41252 1.37224e-22)
(0.588966 -0.301957 2.33396e-22)
(0.556481 -0.139307 -1.77104e-22)
(0.584179 0.0373253 -1.38771e-21)
(0.653575 0.201012 1.34725e-21)
(0.731095 0.348012 -1.31061e-21)
(0.782272 0.482235 1.12065e-21)
(0.789579 0.59629 4.39126e-22)
(0.778694 0.612799 -3.39847e-21)
(0.761469 0.492273 -1.54252e-21)
(0.765844 0.227861 3.08805e-21)
(0.763624 -0.0633607 0)
(0.798965 -0.260301 -1.63296e-21)
(0.809896 -0.353158 1.29098e-21)
(0.778944 -0.389937 -1.77959e-21)
(0.718121 -0.432438 -2.17196e-22)
(0.688167 -0.330617 0)
(0.683652 -0.170486 1.26392e-23)
(0.687309 0.0713301 -3.60925e-23)
(0.688061 0.317407 -2.92906e-23)
(0.696488 0.396192 -1.07769e-22)
(0.694595 0.411348 5.83479e-22)
(0.719552 0.206787 -5.52394e-22)
(0.695237 -0.0431529 0)
(0.668886 -0.226539 4.39625e-22)
(0.6036 -0.429611 0)
(0.62135 -0.147139 0)
(0.612587 0.0949473 -5.74585e-23)
(1.08011 -0.615733 -4.74596e-20)
(1.00275 -0.622212 4.65773e-20)
(0.93074 -0.608401 -2.5792e-22)
(0.857171 -0.580217 2.16125e-22)
(0.781326 -0.548828 0)
(0.708212 -0.508512 0)