/*--------------------------------*- C++ -*----------------------------------*\
| =========                 |                                                 |
| \\      /  F ield         | OpenFOAM: The Open Source CFD Toolbox           |
|  \\    /   O peration     | Version:  2312                                  |
|   \\  /    A nd           | Website:  www.openfoam.com                      |
|    \\/     M anipulation  |                                                 |
\*---------------------------------------------------------------------------*/
FoamFile
{
    version     2.0;
    format      ascii;
    arch        "LSB;label=32;scalar=64";
    class       volVectorField;
    location    "48.5";
    object      U;
}
// * * * * * * * * * * * * * * * * * * * * * * * * * * * * * * * * * * * * * //

dimensions      [0 1 -1 0 0 0 0];

internalField   nonuniform List<vector> 
32230
(
(-0.0105818 0.00885652 4.51007e-20)
(-0.0281067 0.0217496 -9.10875e-20)
(-0.0423541 0.0302494 0)
(-0.0520726 0.035939 -1.24299e-19)
(-0.0565225 0.0397664 3.95322e-20)
(-0.0551549 0.0423001 -3.76274e-20)
(-0.0474227 0.0439251 7.10253e-20)
(-0.032751 0.0449203 -5.43635e-22)
(-0.0105264 0.045491 3.16089e-20)
(0.0198688 0.0458315 -1.22033e-19)
(0.0590393 0.0461352 -5.78032e-20)
(0.107504 0.0465973 0)
(0.165602 0.047407 1.0316e-19)
(0.233374 0.0487265 -1.96638e-19)
(0.310451 0.0506713 1.39979e-19)
(0.395959 0.0532915 -1.77822e-19)
(0.488468 0.0565562 -4.2201e-20)
(0.586011 0.0603448 8.09093e-20)
(0.68616 0.0644495 7.71383e-20)
(0.786183 0.0685875 -7.38096e-20)
(0.883227 0.0724248 0)
(0.974549 0.0756078 -6.74823e-20)
(1.05772 0.0777991 3.25094e-20)
(1.13084 0.078713 0)
(1.19264 0.0781443 0)
(1.24261 0.0759891 -2.77214e-20)
(1.281 0.0722442 -1.0666e-19)
(1.30868 0.0670099 1.0214e-19)
(1.32709 0.0604378 4.7359e-20)
(1.33792 0.052773 4.48044e-20)
(1.34294 0.0441317 0)
(1.3438 0.0350011 0)
(1.34175 0.024719 7.64793e-20)
(1.33776 0.0156009 -1.0855e-19)
(1.33229 0.00188256 6.72643e-20)
(1.32501 -0.00308138 -1.27084e-19)
(1.31697 -0.029062 6.01891e-20)
(-0.0126761 0.010009 1.83619e-22)
(-0.0318626 0.0235352 4.55884e-20)
(-0.0457378 0.0316361 -4.33882e-20)
(-0.0534246 0.0362865 2.43315e-23)
(-0.0543504 0.0387414 7.91928e-20)
(-0.0480026 0.0398139 1.50568e-19)
(-0.0337835 0.0400817 -1.79137e-19)
(-0.0110182 0.0399661 6.8223e-20)
(0.0210018 0.0397887 2.29102e-22)
(0.0629448 0.0398207 6.09278e-20)
(0.115344 0.0403026 -4.74068e-22)
(0.178467 0.0414473 5.52252e-20)
(0.252181 0.0434256 -1.56325e-19)
(0.335815 0.0463462 5.04335e-20)
(0.428069 0.0502348 1.88504e-19)
(0.526989 0.0550154 0)
(0.630033 0.0605028 4.24406e-20)
(0.734217 0.0664074 0)
(0.836344 0.0723566 0)
(0.933267 0.0779292 0)
(1.02216 0.0826999 -3.50693e-20)
(1.10078 0.0862852 1.33778e-19)
(1.16759 0.0883847 -1.26916e-19)
(1.22195 0.0888113 4.17868e-22)
(1.26401 0.0875027 2.00879e-19)
(1.29471 0.0845175 -1.09015e-19)
(1.31552 0.0800085 -1.03016e-19)
(1.32826 0.0742015 1.96119e-19)
(1.33481 0.0673279 -1.86164e-19)
(1.33691 0.0596621 8.50263e-20)
(1.33596 0.0513494 -8.3236e-20)
(1.33298 0.0426798 -3.79706e-20)
(1.32863 0.0335626 0)
(1.32318 0.0244947 1.02878e-19)
(1.317 0.0146264 -1.279e-19)
(1.30937 0.00698681 8.94593e-20)
(1.30267 -0.00597621 -2.70065e-20)
(-0.0146025 0.0108612 -9.12994e-20)
(-0.0349334 0.0247963 0)
(-0.0476076 0.032611 -1.31539e-19)
(-0.0521386 0.0365291 1.25627e-19)
(-0.0481184 0.0380393 1.59339e-19)
(-0.0350693 0.0381605 -7.57572e-20)
(-0.0123651 0.0376374 -2.83123e-22)
(0.0207085 0.0370232 3.38138e-20)
(0.0648441 0.0367422 -2.18104e-22)
(0.120573 0.0371358 -6.18519e-20)
(0.188096 0.0384791 -3.27026e-23)
(0.267109 0.0409776 5.57069e-20)
(0.356641 0.0447477 -5.33173e-20)
(0.454962 0.049793 4.98138e-20)
(0.559579 0.0559848 -1.89991e-19)
(0.667362 0.0630564 0)
(0.774775 0.0706168 1.28202e-19)
(0.87819 0.0781851 -8.16201e-20)
(0.974236 0.0852427 -3.84054e-20)
(1.06012 0.0912928 3.70888e-20)
(1.13386 0.0959189 -2.86303e-22)
(1.19446 0.0988293 0)
(1.2419 0.099882 5.16924e-22)
(1.27704 0.0990845 5.90153e-20)
(1.30142 0.0965724 -1.12658e-19)
(1.31694 0.0925706 7.46832e-22)
(1.32566 0.0873487 0)
(1.32945 0.0811825 0)
(1.32987 0.0743084 4.54648e-20)
(1.32808 0.0669606 -4.2867e-20)
(1.32484 0.0592019 -7.81564e-20)
(1.32063 0.0513961 1.12813e-19)
(1.31561 0.0430324 0)
(1.30998 0.0355823 3.17175e-20)
(1.30368 0.0262378 3.01426e-20)
(1.29663 0.0211138 -3.16237e-21)
(1.28984 0.00887444 -5.1918e-20)
(-0.0161973 0.0113078 4.58374e-20)
(-0.0369389 0.0252581 4.67112e-20)
(-0.0474456 0.0327586 0)
(-0.0475997 0.0361475 -8.42733e-20)
(-0.0371445 0.0370702 4.05367e-20)
(-0.0156486 0.0367108 3.47788e-22)
(0.0174927 0.0359548 3.61671e-20)
(0.0629265 0.03547 3.43439e-20)
(0.121154 0.0357679 6.55647e-20)
(0.192313 0.03724 -6.23868e-20)
(0.275943 0.0401636 -5.92692e-20)
(0.370791 0.0446865 0)
(0.4747 0.0508009 -5.05609e-22)
(0.584632 0.0583239 5.0556e-20)
(0.696857 0.0668965 4.75671e-20)
(0.807281 0.0760108 9.01843e-20)
(0.91187 0.0850648 -1.29121e-19)
(1.00708 0.0934363 -4.06533e-20)
(1.0902 0.100563 -3.8572e-20)
(1.15964 0.106009 3.65706e-20)
(1.21493 0.109512 -3.46512e-20)
(1.2567 0.110992 -3.23273e-20)
(1.2864 0.110538 3.10404e-20)
(1.30603 0.108362 5.7624e-20)
(1.31778 0.10475 -2.74515e-20)
(1.32373 0.100003 1.03035e-19)
(1.32567 0.0944047 -1.21888e-19)
(1.32496 0.0881884 -9.05476e-20)
(1.32253 0.0815384 4.38595e-20)
(1.31899 0.0745859 1.21073e-19)
(1.31469 0.0674333 0)
(1.3098 0.0601758 3.47249e-20)
(1.30441 0.0527885 0)
(1.29857 0.0457407 -3.16974e-20)
(1.29236 0.0378864 2.95645e-20)
(1.28554 0.0328206 -5.3736e-20)
(1.27933 0.0220865 -4.80027e-20)
(-0.0173387 0.011307 4.66168e-20)
(-0.0375647 0.0247673 -9.36649e-20)
(-0.0448161 0.0318123 8.93869e-20)
(-0.0392809 0.0347776 -8.54434e-20)
(-0.0208507 0.035405 0)
(0.0108342 0.0350121 -3.83878e-20)
(0.0562706 0.0345985 0)
(0.115877 0.0349248 3.49999e-20)
(0.189714 0.0365625 -6.61177e-20)
(0.277183 0.0399098 3.15361e-20)
(0.37677 0.0451794 5.92287e-20)
(0.4859 0.05237 0)
(0.600976 0.0612468 1.07041e-19)
(0.71764 0.0713488 -5.05193e-20)
(0.831215 0.0820351 0)
(0.93725 0.0925671 4.54948e-20)
(1.03204 0.102212 0)
(1.11301 0.110342 1.21266e-19)
(1.17893 0.116515 -1.1532e-19)
(1.2299 0.120508 3.5927e-20)
(1.26711 0.122317 0)
(1.29253 0.122113 1.27667e-19)
(1.3085 0.120185 -6.08577e-20)
(1.31737 0.116868 -8.43053e-20)
(1.32122 0.11249 8.01984e-20)
(1.32171 0.107335 2.54227e-20)
(1.32006 0.101627 2.39067e-20)
(1.31707 0.0955347 6.57297e-20)
(1.31324 0.0891719 -2.07976e-19)
(1.30887 0.0826403 1.15777e-19)
(1.30408 0.0759722 -3.74024e-20)
(1.29898 0.0693185 -1.03543e-19)
(1.29355 0.062519 0)
(1.28784 0.0561588 2.90102e-20)
(1.28187 0.049057 0)
(1.2755 0.0442819 2.62249e-20)
(1.26962 0.0349046 4.7728e-20)
(-0.0179501 0.0108737 4.72506e-20)
(-0.0365611 0.0233167 -9.51049e-20)
(-0.0393228 0.0297017 -2.47602e-22)
(-0.0266805 0.0322955 8.60407e-20)
(0.00133617 0.0329124 -4.0969e-20)
(0.044952 0.0329663 0)
(0.104418 0.0335429 0)
(0.179684 0.0354606 -3.49817e-20)
(0.270022 0.0392941 3.32108e-20)
(0.37368 0.045362 3.39206e-22)
(0.487681 0.0536944 5.98453e-20)
(0.607859 0.0640122 -5.72225e-20)
(0.72919 0.0757443 -1.07386e-19)
(0.846365 0.0880997 -1.01309e-19)
(0.954474 0.100186 1.92855e-19)
(1.04962 0.111149 -1.37116e-19)
(1.12936 0.120295 -4.28177e-20)
(1.19282 0.127181 0)
(1.2406 0.131635 1.51274e-19)
(1.27443 0.133735 -1.43477e-19)
(1.29669 0.13374 0)
(1.30999 0.132009 3.06135e-20)
(1.31678 0.128923 -1.18248e-21)
(1.31911 0.124833 -5.54057e-20)
(1.31857 0.120025 -2.63365e-20)
(1.31625 0.114715 0)
(1.31287 0.109057 0)
(1.30884 0.103158 2.17419e-20)
(1.30442 0.0970968 -9.8885e-20)
(1.2997 0.0909264 7.58379e-20)
(1.29473 0.0846979 1.39211e-19)
(1.28954 0.0784661 -6.62345e-20)
(1.28412 0.0722053 0)
(1.27849 0.0662231 -2.8998e-20)
(1.27266 0.0597452 0)
(1.26655 0.0551357 2.4067e-20)
(1.2609 0.046602 -2.33202e-20)
(-0.0179779 0.0100696 -4.80516e-20)
(-0.0337132 0.0210082 0)
(-0.0305783 0.0265445 -6.90795e-22)
(-0.00926118 0.0288626 4.40263e-20)
(0.0300451 0.0298158 -2.92564e-22)
(0.087321 0.0308891 -5.05743e-22)
(0.162348 0.0332145 -1.4983e-19)
(0.254262 0.0376014 3.55825e-20)
(0.361102 0.0445225 0)
(0.479517 0.0540739 6.41113e-20)
(0.604771 0.0659479 -5.6822e-22)
(0.731132 0.0794607 -2.88997e-20)
(0.852584 0.0936551 -5.39627e-20)
(0.963673 0.107464 2.61793e-20)
(1.06025 0.119894 4.86775e-20)
(1.13991 0.130179 0)
(1.20211 0.137872 4.2801e-20)
(1.24788 0.142857 0)
(1.27942 0.145296 -4.01765e-22)
(1.29946 0.145532 3.5474e-20)
(1.31084 0.143996 -6.53361e-20)
(1.31609 0.141114 6.25374e-20)
(1.31728 0.13726 0)
(1.31591 0.132724 6.16286e-22)
(1.31301 0.127721 0)
(1.30923 0.122397 0)
(1.30496 0.116852 0)
(1.30039 0.111154 0)
(1.29561 0.105351 -5.68542e-20)
(1.29067 0.0994876 7.33229e-20)
(1.28557 0.0935905 3.22607e-20)
(1.28033 0.0877156 -6.38404e-20)
(1.27494 0.0818362 0)
(1.26942 0.0761792 0)
(1.26377 0.0701952 0)
(1.25796 0.065663 -7.0485e-20)
(1.25255 0.0579184 4.44541e-20)
(-0.0173702 0.00896786 4.93145e-22)
(-0.0287866 0.0180245 -4.89604e-20)
(-0.0181632 0.0226342 4.6569e-20)
(0.0135587 0.0248841 9.88014e-22)
(0.065934 0.0266469 1.2535e-22)
(0.138502 0.0294435 8.02319e-20)
(0.230239 0.034383 0)
(0.339008 0.0421475 7.20456e-20)
(0.461132 0.0529447 0)
(0.591326 0.066467 -3.21856e-20)
(0.72311 0.0819238 0)
(0.849665 0.0981757 -2.88312e-20)
(0.964862 0.113953 0)
(1.06416 0.128096 2.56638e-20)
(1.14509 0.139743 0)
(1.20734 0.148432 4.52124e-20)
(1.25231 0.154095 -4.23004e-20)
(1.28259 0.156975 -3.95404e-20)
(1.30125 0.157503 -3.73854e-20)
(1.31134 0.156181 -6.86953e-20)
(1.31551 0.153488 6.57472e-20)
(1.31583 0.149823 -3.00609e-20)
(1.3138 0.145495 5.60272e-20)
(1.31043 0.140718 -1.05363e-19)
(1.30631 0.13564 7.45359e-20)
(1.3018 0.130355 0)
(1.29708 0.124927 2.12616e-20)
(1.29222 0.119399 0)
(1.28727 0.113807 0)
(1.28223 0.108178 0)
(1.2771 0.102543 6.43045e-20)
(1.27187 0.0969331 -6.15996e-20)
(1.26655 0.0913516 0)
(1.26115 0.0859332 0)
(1.25567 0.0803167 2.39315e-20)
(1.25009 0.0758247 4.45784e-20)
(1.24485 0.0687327 -2.20961e-20)
(-0.0160513 0.00764405 -9.9724e-20)
(-0.0215133 0.0145966 -3.89651e-22)
(-0.00161785 0.0183687 9.53217e-20)
(0.0423678 0.0209298 -1.34899e-19)
(0.109576 0.0241407 -2.31859e-22)
(0.19879 0.0294945 -4.09486e-20)
(0.307725 0.0379576 -3.88272e-20)
(0.432454 0.0499093 -3.46178e-22)
(0.567198 0.0650881 -1.3835e-19)
(0.704712 0.082616 1.63839e-19)
(0.837256 0.10116 -6.22312e-20)
(0.957851 0.119213 0)
(1.06136 0.135402 -8.17966e-20)
(1.14511 0.148733 1.02913e-19)
(1.20883 0.1587 -7.28009e-20)
(1.25423 0.165266 -4.52063e-20)
(1.28425 0.168751 4.22957e-20)
(1.30229 0.169676 7.86527e-20)
(1.31164 0.168621 0)
(1.31507 0.166125 3.39701e-20)
(1.31475 0.16263 3.16496e-20)
(1.3122 0.158465 5.73012e-22)
(1.30839 0.153858 -5.48097e-20)
(1.30394 0.148959 2.75567e-20)
(1.29916 0.143862 2.44891e-20)
(1.29424 0.138628 6.65867e-20)
(1.28925 0.133298 -6.3766e-20)
(1.28421 0.127903 1.92824e-20)
(1.27913 0.122467 -3.68931e-20)
(1.274 0.117017 0)
(1.26883 0.111574 -4.66065e-20)
(1.26362 0.106165 5.94802e-20)
(1.25836 0.100801 -1.33669e-20)
(1.25306 0.0955624 0)
(1.24774 0.0902334 -2.39292e-20)
(1.24238 0.0857549 0)
(1.2373 0.0791985 -6.02221e-20)
(-0.0139135 0.00616949 5.04491e-20)
(-0.0115857 0.0109738 -3.44716e-22)
(0.0195211 0.0142008 6.51583e-22)
(0.0776697 0.017652 0)
(0.161292 0.0231127 8.65648e-20)
(0.267978 0.031936 -5.29851e-22)
(0.393645 0.0447668 -6.82197e-22)
(0.532124 0.0614601 1.10565e-19)
(0.675429 0.0810912 -7.05237e-20)
(0.814798 0.102133 -3.29277e-20)
(0.942177 0.122799 -3.13428e-20)
(1.05158 0.141443 8.75059e-20)
(1.13984 0.156874 -8.25128e-20)
(1.2066 0.168493 5.20413e-20)
(1.25375 0.176268 4.8044e-20)
(1.28454 0.180583 0)
(1.3027 0.182051 0)
(1.3118 0.181345 -5.8449e-20)
(1.31482 0.179079 7.14481e-20)
(1.31405 0.175747 -1.02348e-19)
(1.31105 0.171713 -9.35431e-20)
(1.30686 0.167227 8.87286e-20)
(1.30207 0.162446 2.68843e-20)
(1.29702 0.157471 0)
(1.29187 0.152362 -2.32448e-20)
(1.28671 0.147159 4.26053e-20)
(1.28154 0.14189 -1.18168e-21)
(1.27638 0.13658 -1.92346e-20)
(1.27122 0.13125 0)
(1.26606 0.12592 0)
(1.2609 0.120611 4.44853e-20)
(1.25573 0.115343 -4.35592e-20)
(1.25056 0.110133 1.33672e-20)
(1.2454 0.105025 0)
(1.24024 0.0999066 0)
(1.23507 0.0954071 0)
(1.23012 0.0893137 0)
(-0.0108212 0.00461432 -5.20506e-20)
(0.00132059 0.00741701 4.17778e-22)
(0.045663 0.0106053 9.90404e-20)
(0.119777 0.015719 -4.71333e-20)
(0.220999 0.0243533 -8.92172e-20)
(0.345195 0.0375475 4.23033e-20)
(0.485965 0.0553924 -4.0409e-20)
(0.634683 0.0769933 7.59336e-20)
(0.7815 0.10065 0)
(0.917053 0.124258 0)
(1.03416 0.145819 3.13426e-20)
(1.12884 0.163852 2.88963e-20)
(1.2004 0.177595 -1.33452e-21)
(1.25076 0.18697 -2.63963e-20)
(1.28342 0.19241 4.70718e-20)
(1.30249 0.194622 -2.29875e-20)
(1.31185 0.194383 2.02033e-20)
(1.31476 0.192402 -3.84702e-20)
(1.3137 0.189245 5.39724e-20)
(1.31034 0.185325 8.1826e-20)
(1.30579 0.180923 -7.78382e-20)
(1.30066 0.176214 0)
(1.2953 0.171305 -2.68882e-20)
(1.2899 0.166263 -2.42816e-20)
(1.28451 0.161128 6.98684e-20)
(1.27917 0.155927 -6.31664e-22)
(1.27388 0.150684 -1.21155e-21)
(1.26863 0.145418 -5.54838e-20)
(1.26341 0.140147 3.36359e-20)
(1.25823 0.13489 -3.2216e-20)
(1.25308 0.129665 0)
(1.24796 0.12449 -4.07454e-20)
(1.24287 0.119381 1.33093e-20)
(1.23782 0.114362 -4.61212e-20)
(1.23281 0.109392 4.41906e-20)
(1.22781 0.104856 0)
(1.22299 0.0991453 -9.10365e-21)
(-0.00662619 0.00305672 0)
(0.0175078 0.00420593 0)
(0.0770958 0.00806854 2.56949e-20)
(0.168713 0.0157771 -2.43203e-20)
(0.288111 0.0285591 9.01984e-20)
(0.428867 0.0469025 -6.49902e-20)
(0.581922 0.0700878 2.04017e-20)
(0.736376 0.0963074 3.86622e-20)
(0.881341 0.123119 -2.06344e-23)
(1.00805 0.148078 0)
(1.11128 0.169296 0)
(1.18964 0.185736 2.96547e-20)
(1.24488 0.197206 0)
(1.28069 0.20415 -7.61799e-20)
(1.30154 0.207368 2.44604e-20)
(1.31173 0.207759 -4.41374e-20)
(1.31487 0.206148 2.05783e-20)
(1.31368 0.203196 1.82704e-20)
(1.31005 0.199385 -5.3486e-20)
(1.30514 0.195038 1.567e-20)
(1.29966 0.190358 1.43078e-20)
(1.29398 0.185467 -1.46322e-20)
(1.28827 0.180437 5.12214e-20)
(1.28263 0.175312 -7.34545e-20)
(1.27708 0.170122 1.10381e-20)
(1.27161 0.164888 2.10387e-20)
(1.26622 0.15963 -5.6836e-20)
(1.26091 0.154365 5.43953e-20)
(1.25566 0.14911 -1.62705e-20)
(1.25048 0.14388 0)
(1.24537 0.138694 -1.39557e-20)
(1.24032 0.133565 0)
(1.23534 0.128511 4.83448e-20)
(1.23042 0.123545 -2.2963e-20)
(1.22555 0.118665 1.02285e-20)
(1.22072 0.114073 0)
(1.216 0.108685 9.10662e-21)
(-0.00118618 0.0015918 2.74481e-20)
(0.037212 0.0016491 -5.55629e-20)
(0.113923 0.00708628 2.61057e-20)
(0.224148 0.0184285 -1.15111e-21)
(0.361505 0.0362897 -4.68346e-20)
(0.516821 0.060324 2.17572e-20)
(0.678349 0.0887766 -4.15218e-20)
(0.833575 0.118895 0)
(0.971739 0.1477 -3.63863e-20)
(1.08584 0.172745 -1.72191e-20)
(1.17332 0.192566 0)
(1.23542 0.206746 -2.9663e-20)
(1.27591 0.215682 0)
(1.29961 0.220254 7.57472e-20)
(1.31131 0.221495 -4.80878e-20)
(1.31507 0.220375 2.19797e-20)
(1.31397 0.21768 3.98178e-20)
(1.31013 0.213985 -1.2643e-21)
(1.3049 0.209673 -1.80714e-20)
(1.29904 0.204985 0)
(1.293 0.200066 -1.46804e-20)
(1.28696 0.194998 -1.38795e-20)
(1.28102 0.18983 0)
(1.2752 0.184596 0)
(1.26952 0.179318 -1.1042e-20)
(1.26395 0.174015 -2.97482e-20)
(1.2585 0.168705 5.6964e-20)
(1.25314 0.163402 0)
(1.24789 0.158123 3.20106e-20)
(1.24272 0.152883 0)
(1.23766 0.147696 1.39606e-20)
(1.23268 0.142578 0)
(1.2278 0.13754 1.10951e-20)
(1.22301 0.132594 -3.2715e-20)
(1.21827 0.127756 -1.02321e-20)
(1.21358 0.1231 0)
(1.20897 0.117974 0)
(0.0056183 0.00033581 2.88676e-20)
(0.0605634 8.78873e-05 2.79149e-20)
(0.156016 0.00815831 0)
(0.285367 0.0242101 2.49703e-20)
(0.43958 0.0479389 -2.32657e-20)
(0.606491 0.0778778 4.53852e-20)
(0.772079 0.111112 -2.10325e-20)
(0.923269 0.144085 5.94407e-20)
(1.05067 0.173616 -9.0918e-22)
(1.14991 0.197614 -1.78595e-20)
(1.22128 0.215263 1.61017e-20)
(1.26835 0.226821 0)
(1.29628 0.233206 2.70597e-20)
(1.31037 0.235598 -6.36855e-20)
(1.31526 0.235143 2.39026e-20)
(1.3145 0.232787 4.25728e-20)
(1.31057 0.229229 -2.08756e-20)
(1.30503 0.224938 3.62728e-20)
(1.29879 0.220208 -6.87819e-20)
(1.29234 0.215214 -3.09288e-20)
(1.28593 0.210056 8.72313e-20)
(1.27964 0.204793 -1.40791e-20)
(1.27352 0.19946 0)
(1.26758 0.194083 0)
(1.26179 0.188681 2.08307e-20)
(1.25615 0.183272 -1.06339e-20)
(1.25065 0.177872 -9.53054e-21)
(1.24528 0.172495 -8.22557e-21)
(1.24003 0.167155 -1.57416e-20)
(1.2349 0.161866 -2.10811e-20)
(1.2299 0.156643 2.04343e-20)
(1.22502 0.151497 0)
(1.22026 0.14644 -5.52145e-21)
(1.21559 0.141484 4.40075e-22)
(1.21099 0.136643 0)
(1.20643 0.131915 0)
(1.20194 0.126997 7.98671e-21)
(0.0138683 -0.000572575 -1.44504e-20)
(0.087555 -0.00010835 2.90062e-20)
(0.202985 0.0117714 -2.77234e-20)
(0.351287 0.0335655 0)
(0.520376 0.0637138 -2.4228e-20)
(0.695206 0.099397 2.28833e-20)
(0.860325 0.136574 2.09665e-20)
(1.00335 0.171182 -2.0885e-20)
(1.1173 0.200236 0)
(1.20083 0.222283 0)
(1.2569 0.237269 -1.61096e-20)
(1.29082 0.246083 0)
(1.30849 0.250043 0)
(1.31522 0.250501 -2.5271e-20)
(1.31518 0.248608 -1.15767e-20)
(1.31133 0.24523 3.16747e-20)
(1.30552 0.240953 -4.97788e-20)
(1.29888 0.236148 0)
(1.292 0.231033 4.14777e-20)
(1.28515 0.225732 -1.16297e-21)
(1.27848 0.220316 -4.33771e-20)
(1.27201 0.214827 2.5425e-20)
(1.26575 0.209294 -8.99822e-22)
(1.2597 0.203739 -3.37313e-20)
(1.25384 0.198178 -2.02157e-20)
(1.24815 0.192627 7.02656e-22)
(1.24263 0.187102 1.75639e-20)
(1.23726 0.181615 -7.65457e-21)
(1.23204 0.176181 5.54462e-22)
(1.22697 0.170811 -1.32597e-20)
(1.22204 0.165519 4.4398e-20)
(1.21727 0.160315 -8.84547e-22)
(1.21262 0.155209 -1.65332e-20)
(1.20807 0.150212 -9.38352e-21)
(1.20361 0.14533 1.87602e-20)
(1.19919 0.14053 0)
(1.19482 0.135762 -7.99314e-21)
(0.0235941 -0.000979435 3.00335e-20)
(0.11802 0.00143726 0)
(0.254172 0.0183688 0)
(0.420512 0.0468134 0)
(0.601743 0.0836289 0)
(0.780462 0.124533 0)
(0.940938 0.164567 0)
(1.07268 0.199569 0)
(1.17176 0.227107 0)
(1.23987 0.246556 -1.76252e-20)
(1.28215 0.258627 -1.61953e-20)
(1.30502 0.264736 0)
(1.3146 0.266467 0)
(1.31585 0.265229 1.25996e-20)
(1.31233 0.262108 3.4177e-20)
(1.30636 0.257853 -4.25096e-20)
(1.29933 0.252942 2.96495e-20)
(1.29197 0.247655 0)
(1.28465 0.242152 8.29431e-21)
(1.27752 0.236521 0)
(1.27065 0.230815 1.36306e-20)
(1.26404 0.225065 -3.23062e-20)
(1.25769 0.219295 -1.72975e-20)
(1.25156 0.213524 3.311e-20)
(1.24565 0.207768 1.46783e-20)
(1.23994 0.202041 -2.32689e-20)
(1.23441 0.196357 -8.61881e-21)
(1.22906 0.190728 0)
(1.22389 0.185166 1.41077e-20)
(1.21889 0.179684 -2.42707e-22)
(1.21406 0.174293 -1.24501e-20)
(1.2094 0.169001 0)
(1.20487 0.163818 0)
(1.20046 0.158752 0)
(1.19613 0.153796 -4.28436e-21)
(1.19185 0.14892 1.18654e-20)
(1.18761 0.144241 -7.59231e-21)
(0.0347647 -0.000723088 0)
(0.15162 0.00508746 0)
(0.308667 0.0283211 0)
(0.491414 0.0641271 -1.36733e-20)
(0.681522 0.107523 2.53841e-22)
(0.860131 0.152818 -1.16585e-20)
(1.01249 0.194504 5.6403e-20)
(1.13093 0.228744 -1.12054e-20)
(1.21484 0.253944 -2.92493e-20)
(1.26859 0.27038 1.76373e-20)
(1.29893 0.279461 1.62067e-20)
(1.31283 0.282999 0)
(1.3162 0.282715 1.33062e-20)
(1.31344 0.279986 -1.27279e-20)
(1.30749 0.275786 0)
(1.30009 0.270745 -2.93627e-22)
(1.29223 0.265234 -1.45152e-20)
(1.28439 0.259464 0)
(1.27676 0.253549 1.57606e-20)
(1.26943 0.247556 -1.50831e-20)
(1.26242 0.241521 1.32802e-20)
(1.25571 0.235471 5.79601e-21)
(1.24927 0.229427 -2.31021e-20)
(1.2431 0.223404 0)
(1.23716 0.217418 4.91105e-21)
(1.23145 0.211482 4.5195e-21)
(1.22595 0.205608 0)
(1.22064 0.199806 -7.36308e-21)
(1.21554 0.19409 7.0517e-21)
(1.21063 0.188468 6.4913e-21)
(1.20591 0.182951 0)
(1.20136 0.177546 1.05415e-20)
(1.19697 0.172262 2.00658e-21)
(1.19269 0.167101 -9.2879e-21)
(1.1885 0.162045 -1.87108e-21)
(1.18436 0.157093 -1.75224e-21)
(1.18024 0.152441 8.93166e-21)
(0.0472799 0.000359879 4.14912e-21)
(0.187837 0.0111766 1.60059e-20)
(0.365338 0.0419103 7.36809e-21)
(0.562247 0.0855331 -2.11586e-20)
(0.757714 0.135091 1.34234e-20)
(0.932579 0.183729 -1.21862e-20)
(1.07423 0.225846 6.04818e-21)
(1.17838 0.258327 1.05007e-20)
(1.24762 0.280588 1.45096e-20)
(1.28853 0.293796 0)
(1.30885 0.299936 7.91465e-21)
(1.31562 0.30108 -7.5694e-21)
(1.31431 0.29898 0)
(1.30868 0.294918 3.05431e-21)
(1.30103 0.289739 0)
(1.29267 0.283952 0)
(1.28425 0.277843 -4.44351e-21)
(1.27607 0.271567 6.66873e-21)
(1.26822 0.265206 -7.68958e-21)
(1.26075 0.258809 7.35908e-21)
(1.25363 0.252405 0)
(1.24685 0.246017 0)
(1.24037 0.239661 1.37659e-20)
(1.23418 0.233353 -2.7011e-21)
(1.22824 0.227104 -2.28067e-21)
(1.22256 0.220928 0)
(1.2171 0.214833 -3.84292e-21)
(1.21186 0.208831 7.20827e-21)
(1.20684 0.202932 -1.766e-21)
(1.20204 0.197145 0)
(1.19744 0.191478 0)
(1.19303 0.185938 1.24569e-21)
(1.18878 0.180529 -1.27024e-21)
(1.18465 0.17525 0)
(1.18059 0.170078 -1.07552e-21)
(1.1766 0.165052 -9.89319e-22)
(1.17261 0.16037 -1.71796e-21)
(0.0610063 0.00243653 -4.09184e-21)
(0.226071 0.0200073 0)
(0.422999 0.0593156 0)
(0.631378 0.110908 -7.19051e-21)
(0.828702 0.165916 -3.35039e-21)
(0.99675 0.216733 3.20248e-21)
(1.12596 0.258149 -5.77403e-21)
(1.21563 0.288074 0)
(1.27123 0.307003 -4.85651e-21)
(1.30096 0.316914 0)
(1.31305 0.320229 1.96654e-21)
(1.31428 0.319159 -3.66925e-21)
(1.3095 0.315404 3.33764e-21)
(1.30181 0.310116 -3.13268e-21)
(1.293 0.304008 -1.41669e-21)
(1.28399 0.297481 0)
(1.27519 0.290751 0)
(1.26677 0.283932 2.12105e-21)
(1.25878 0.277082 0)
(1.25121 0.270239 8.53243e-22)
(1.24403 0.263426 -3.67522e-23)
(1.23721 0.256661 -3.33131e-23)
(1.23073 0.249959 -2.74947e-21)
(1.22455 0.243331 -3.11576e-21)
(1.21865 0.236789 2.28296e-21)
(1.21301 0.230343 0)
(1.20763 0.224001 0)
(1.20249 0.217772 0)
(1.19758 0.211666 -1.61459e-21)
(1.1929 0.20569 0)
(1.18845 0.199851 0)
(1.18419 0.194153 -6.53757e-22)
(1.1801 0.188602 -1.71231e-21)
(1.17612 0.183186 -4.98247e-22)
(1.17223 0.177888 -4.85189e-22)
(1.16839 0.172788 -8.82562e-22)
(1.16456 0.168028 0)
(-0.000913923 0.00948003 -3.15415e-21)
(-0.00464948 0.0357606 0)
(-0.0114188 0.0640933 0)
(-0.0201259 0.0907572 -5.83419e-21)
(-0.0302483 0.113703 2.80633e-21)
(-0.041476 0.132317 -2.68294e-21)
(-0.0535089 0.147019 -5.10403e-21)
(-0.0660615 0.158813 0)
(-0.0788839 0.168892 -4.67426e-21)
(-0.0917731 0.17835 0)
(-0.104578 0.188034 -2.16192e-21)
(-0.117195 0.198499 2.06766e-21)
(-0.129559 0.210054 -1.98813e-21)
(-0.14163 0.222828 -3.78414e-21)
(-0.153375 0.236831 1.82511e-21)
(-0.164761 0.252012 0)
(-0.175748 0.268276 0)
(-0.186278 0.2855 3.21754e-21)
(-0.196281 0.303528 0)
(-0.205663 0.322169 -1.50971e-21)
(-0.21431 0.341185 -1.12976e-23)
(-0.222083 0.360283 -1.23336e-23)
(-0.228819 0.379108 -5.3909e-21)
(-0.234327 0.397239 -3.90745e-21)
(-0.238394 0.414182 5.05383e-21)
(-0.240781 0.429376 0)
(-0.241239 0.442204 0)
(-0.239511 0.452002 0)
(-0.235351 0.458094 -4.55538e-21)
(-0.228538 0.459815 0)
(-0.218894 0.456554 0)
(-0.206309 0.447789 -6.40671e-21)
(-0.190746 0.433134 -2.15308e-21)
(-0.172243 0.412381 2.0346e-21)
(-0.150898 0.385495 -5.97622e-21)
(-0.126919 0.352566 -3.93974e-21)
(-0.100855 0.313964 0)
(-0.00124515 0.0115095 9.43298e-21)
(-0.00543253 0.0407946 -1.26708e-20)
(-0.0120084 0.0715553 -6.06805e-21)
(-0.0201105 0.1003 2.90202e-20)
(-0.0293436 0.125046 -1.10861e-20)
(-0.0394834 0.145167 1.06011e-20)
(-0.0503067 0.161052 -1.51133e-20)
(-0.0615854 0.173691 9.63671e-21)
(-0.0731017 0.184297 1.38884e-20)
(-0.0846612 0.19401 8.88567e-21)
(-0.096104 0.203738 -1.70077e-20)
(-0.107308 0.214096 8.13906e-21)
(-0.118186 0.22544 0)
(-0.12867 0.237926 1.12722e-20)
(-0.138706 0.251574 -7.17228e-21)
(-0.14824 0.266327 0)
(-0.157205 0.282074 1.98595e-20)
(-0.165523 0.298668 -1.59276e-20)
(-0.173096 0.315924 0)
(-0.1798 0.333617 0)
(-0.185492 0.351471 0)
(-0.190001 0.369154 0)
(-0.193133 0.386271 5.24229e-21)
(-0.194672 0.402363 1.54933e-20)
(-0.194386 0.416903 -5.0486e-21)
(-0.192034 0.429312 0)
(-0.187376 0.438964 9.6586e-21)
(-0.180192 0.445215 -1.86986e-20)
(-0.170291 0.447428 1.36e-20)
(-0.157532 0.445006 0)
(-0.141836 0.437431 0)
(-0.123211 0.424302 4.27216e-21)
(-0.101725 0.4053 -4.42909e-21)
(-0.0774976 0.380352 0)
(-0.0507017 0.349538 -4.32596e-21)
(-0.0216528 0.313164 -4.26392e-21)
(0.00952956 0.272027 -8.05312e-21)
(-0.00167164 0.0128907 0)
(-0.00642927 0.0442842 0)
(-0.0128607 0.076917 0)
(-0.0203482 0.107449 1.14688e-20)
(-0.0286252 0.133897 -4.14596e-24)
(-0.0375533 0.155557 1.04695e-20)
(-0.0469905 0.172725 -2.99778e-20)
(-0.0567738 0.186325 -9.62895e-21)
(-0.0667254 0.197546 9.09234e-21)
(-0.0766668 0.207552 1.73993e-20)
(-0.0864338 0.217302 1.66467e-20)
(-0.0958859 0.227474 0)
(-0.104909 0.238478 0)
(-0.113407 0.250507 0)
(-0.121298 0.263602 0)
(-0.128498 0.277705 -2.70433e-20)
(-0.134917 0.292694 6.43281e-21)
(-0.140448 0.308399 0)
(-0.144966 0.324608 -2.42226e-20)
(-0.148325 0.341064 2.31806e-20)
(-0.150355 0.357459 -2.26024e-20)
(-0.150867 0.373431 1.05428e-20)
(-0.149654 0.388558 -1.35268e-22)
(-0.146494 0.402357 0)
(-0.141164 0.414295 9.9446e-21)
(-0.133446 0.423796 9.72171e-21)
(-0.123144 0.430262 0)
(-0.110092 0.433092 1.89789e-20)
(-0.0941727 0.431715 -1.81752e-20)
(-0.0753234 0.425618 1.81683e-20)
(-0.0535421 0.414379 0)
(-0.0290112 0.397673 -3.58188e-20)
(-0.00187022 0.375321 7.57981e-21)
(0.0277392 0.347299 3.38569e-20)
(0.0594865 0.313704 5.96891e-20)
(0.0931729 0.274808 -7.76337e-21)
(0.129275 0.231462 -2.4281e-20)
(-0.00212872 0.0136135 -4.72168e-23)
(-0.0075137 0.0461776 0)
(-0.0138563 0.080064 0)
(-0.0207625 0.112016 0)
(-0.0280768 0.139997 0)
(-0.035736 0.163174 0)
(-0.043677 0.181692 0)
(-0.0518048 0.196353 0)
(-0.0599888 0.20828 0)
(-0.0680746 0.218627 -1.73875e-20)
(-0.0759005 0.228389 -1.66352e-20)
(-0.0833119 0.238301 3.16396e-20)
(-0.0901691 0.248832 -3.02615e-20)
(-0.0963476 0.260226 1.43978e-20)
(-0.101733 0.27255 -1.40477e-20)
(-0.106212 0.285759 5.35808e-20)
(-0.109667 0.299723 -1.28621e-20)
(-0.111968 0.314259 0)
(-0.112968 0.329132 1.17771e-20)
(-0.112503 0.344063 0)
(-0.110389 0.358719 -2.2271e-20)
(-0.106431 0.372726 -1.07702e-20)
(-0.100427 0.385645 5.24718e-20)
(-0.0921697 0.396995 -2.00597e-20)
(-0.0814628 0.406254 -4.99397e-20)
(-0.0681298 0.412874 -1.06109e-20)
(-0.0520272 0.416301 1.86197e-20)
(-0.0330576 0.415997 0)
(-0.0111783 0.411467 -3.73966e-20)
(0.013591 0.40228 -1.14133e-21)
(0.0411483 0.38809 3.53839e-20)
(0.0713076 0.368654 -3.61302e-20)
(0.103841 0.343929 3.46102e-20)
(0.138475 0.313917 0)
(0.174858 0.278743 -1.70352e-20)
(0.212371 0.238766 -1.74537e-20)
(0.253438 0.194211 3.27852e-20)
(-0.00255422 0.0137149 -3.6653e-20)
(-0.00856022 0.0465239 -2.46388e-20)
(-0.0148725 0.0810043 2.35516e-20)
(-0.0212726 0.113936 0)
(-0.0276815 0.1432 -2.13652e-20)
(-0.0340879 0.167796 -2.04805e-20)
(-0.0404975 0.187675 -1.95297e-20)
(-0.0468817 0.203467 5.59747e-20)
(-0.0531614 0.216182 0)
(-0.0592155 0.226931 0)
(-0.0648948 0.236714 -1.61983e-20)
(-0.070039 0.246315 0)
(-0.0744892 0.256264 0)
(-0.0780942 0.266855 -2.85701e-20)
(-0.0807103 0.278201 -1.37912e-20)
(-0.0821968 0.290274 -1.30755e-20)
(-0.082411 0.302955 -1.25552e-20)
(-0.0812028 0.316053 0)
(-0.0784116 0.329324 -3.55036e-20)
(-0.0738663 0.342475 -4.19499e-22)
(-0.0673747 0.355168 2.17409e-20)
(-0.05875 0.367017 3.27061e-22)
(-0.047816 0.377592 -4.14073e-20)
(-0.0343922 0.386426 1.95109e-20)
(-0.0183198 0.393026 0)
(0.000526171 0.396887 0)
(0.0222285 0.39751 2.21163e-22)
(0.0468171 0.394424 5.60145e-20)
(0.0742613 0.387207 1.13359e-21)
(0.104465 0.375508 -7.16668e-20)
(0.137259 0.359064 -5.49864e-20)
(0.172406 0.337726 -2.34172e-21)
(0.209617 0.311467 8.64264e-20)
(0.248474 0.280384 1.04909e-19)
(0.288948 0.244594 -6.74946e-20)
(0.328905 0.204636 0)
(0.374755 0.160049 -3.289e-20)
(-0.00289759 0.0132684 9.2665e-23)
(-0.00946299 0.045458 2.43344e-20)
(-0.0158042 0.079858 0)
(-0.0218049 0.113264 2.21714e-20)
(-0.0274218 0.14347 6.3826e-20)
(-0.0326687 0.169293 -4.06003e-20)
(-0.0375947 0.190461 5.79275e-20)
(-0.0422276 0.207401 -9.24616e-20)
(-0.0465428 0.220965 5.11643e-23)
(-0.0504609 0.232174 5.04368e-20)
(-0.0538573 0.24201 1.61902e-20)
(-0.0565786 0.25128 0)
(-0.0584572 0.260566 -2.94145e-20)
(-0.0593237 0.270222 4.25323e-20)
(-0.0590116 0.280409 -2.69361e-20)
(-0.0573577 0.291136 0)
(-0.0541998 0.302303 2.50024e-20)
(-0.0493738 0.313727 -4.78351e-20)
(-0.0427116 0.325168 -1.37888e-22)
(-0.0340414 0.336333 4.45302e-20)
(-0.0231879 0.346889 -4.29015e-20)
(-0.00998194 0.356453 6.2197e-20)
(0.00573068 0.364616 0)
(0.024089 0.370941 0)
(0.0452017 0.374976 -3.89126e-20)
(0.0691376 0.376266 -1.96119e-20)
(0.0959163 0.374372 5.52362e-20)
(0.1255 0.36889 -1.83866e-20)
(0.157789 0.359471 -3.56896e-20)
(0.192616 0.345837 9.04231e-20)
(0.229747 0.327793 -8.71791e-20)
(0.268864 0.305257 0)
(0.309706 0.278224 -1.74097e-20)
(0.351479 0.246874 -6.42895e-22)
(0.395109 0.21126 0)
(0.435887 0.172066 0)
(0.485412 0.128342 3.28406e-20)
(-0.00312466 0.0123779 -2.40619e-20)
(-0.0101449 0.0431918 -8.10918e-23)
(-0.0165704 0.0768552 -6.92319e-20)
(-0.0223091 0.110185 -1.129e-22)
(-0.0272998 0.140898 4.21417e-20)
(-0.031546 0.167647 1.99796e-20)
(-0.0351149 0.189937 -3.82975e-20)
(-0.0380746 0.207961 0)
(-0.0404505 0.222383 -3.4649e-20)
(-0.0422101 0.234098 -1.67303e-20)
(-0.0432652 0.244027 3.17306e-20)
(-0.0434835 0.252978 -1.21094e-19)
(-0.0427048 0.261567 5.79868e-20)
(-0.0407546 0.270204 -2.75281e-20)
(-0.0374548 0.279103 5.3043e-20)
(-0.0326287 0.288319 2.52099e-20)
(-0.0261025 0.297788 0)
(-0.0177061 0.30735 -4.6997e-20)
(-0.0072726 0.316782 6.772e-20)
(0.0053604 0.325805 0)
(0.0203472 0.334099 -2.12173e-20)
(0.0378291 0.341308 -2.01696e-20)
(0.057926 0.34705 0)
(0.0807306 0.350928 0)
(0.106298 0.352535 -1.86497e-20)
(0.134639 0.351473 9.35461e-20)
(0.165708 0.347366 -3.58044e-20)
(0.199403 0.339876 0)
(0.235557 0.328722 7.05322e-20)
(0.273932 0.313691 0)
(0.314261 0.294646 3.40456e-20)
(0.356082 0.271562 0)
(0.399369 0.244442 -1.01867e-19)
(0.442607 0.213526 3.19356e-20)
(0.488275 0.178696 -3.23778e-20)
(0.528706 0.141104 0)
(0.580802 0.0987751 0)
(-0.00322117 0.0111676 0)
(-0.0105691 0.0399967 0)
(-0.0171317 0.0723192 2.30198e-20)
(-0.0227622 0.104998 -2.19625e-20)
(-0.0273313 0.135713 -1.31266e-22)