/*--------------------------------*- C++ -*----------------------------------*\
| =========                 |                                                 |
| \\      /  F ield         | OpenFOAM: The Open Source CFD Toolbox           |
|  \\    /   O peration     | Version:  2512                                  |
|   \\  /    A nd           | Website:  www.openfoam.com                      |
|    \\/     M anipulation  |                                                 |
\*---------------------------------------------------------------------------*/
FoamFile
{
    version     2.0;
    format      ascii;
    arch        "LSB;label=32;scalar=64";
    class       volScalarField;
    location    "174.55";
    object      p;
}
// * * * * * * * * * * * * * * * * * * * * * * * * * * * * * * * * * * * * * //

dimensions      [0 2 -2 0 0 0 0];

internalField   nonuniform List<scalar> 
13248
(
-0.553267
-0.552235
-0.549146
-0.544745
-0.53988
-0.535032
-0.531171
-0.528439
-0.526392
-0.524068
-0.520239
-0.513756
-0.50385
-0.490281
-0.47331
-0.45349
-0.431456
-0.407771
-0.382892
-0.357214
-0.330793
-0.304174
-0.275652
-0.246298
-0.562698
-0.561084
-0.557931
-0.553799
-0.549175
-0.544401
-0.53965
-0.534652
-0.528797
-0.521341
-0.511638
-0.499322
-0.484375
-0.467067
-0.447812
-0.427037
-0.405106
-0.382316
-0.3589
-0.33504
-0.310895
-0.286567
-0.261925
-0.238004
-0.574855
-0.572238
-0.568675
-0.564429
-0.559653
-0.554221
-0.54771
-0.53955
-0.529279
-0.516692
-0.501861
-0.485065
-0.466686
-0.447099
-0.426614
-0.405467
-0.383835
-0.361868
-0.339682
-0.317444
-0.295172
-0.273145
-0.251062
-0.229079
-0.58939
-0.585527
-0.581244
-0.576489
-0.570959
-0.563966
-0.554668
-0.542545
-0.527634
-0.510403
-0.491488
-0.47148
-0.450824
-0.429807
-0.408601
-0.387308
-0.366002
-0.344746
-0.323622
-0.302692
-0.282052
-0.261847
-0.241868
-0.22271
-0.606336
-0.60107
-0.595864
-0.59018
-0.583108
-0.573449
-0.560316
-0.543689
-0.524302
-0.503159
-0.481145
-0.45887
-0.436676
-0.414722
-0.393065
-0.371723
-0.350708
-0.330042
-0.309753
-0.289893
-0.270509
-0.251658
-0.233244
-0.215442
-0.625864
-0.619118
-0.612801
-0.605638
-0.595985
-0.582418
-0.564561
-0.543225
-0.519759
-0.495407
-0.471024
-0.447075
-0.423751
-0.401097
-0.379098
-0.357721
-0.336941
-0.316745
-0.297135
-0.278119
-0.259717
-0.241955
-0.224774
-0.208374
-0.648026
-0.63975
-0.632042
-0.622615
-0.60912
-0.590479
-0.567352
-0.541416
-0.514357
-0.487368
-0.461103
-0.435832
-0.411612
-0.388402
-0.366134
-0.344741
-0.324164
-0.304361
-0.2853
-0.266963
-0.249337
-0.232397
-0.216135
-0.20057
-0.672516
-0.662686
-0.653145
-0.640395
-0.621745
-0.59717
-0.568625
-0.538411
-0.508223
-0.47901
-0.451168
-0.424785
-0.399806
-0.376124
-0.353631
-0.332228
-0.311829
-0.292365
-0.273776
-0.256014
-0.239035
-0.22281
-0.207323
-0.192494
-0.69859
-0.687182
-0.675184
-0.657853
-0.632916
-0.601998
-0.568234
-0.534167
-0.501254
-0.470119
-0.440912
-0.413564
-0.387931
-0.363857
-0.341195
-0.319815
-0.299603
-0.280464
-0.262312
-0.245072
-0.228678
-0.21308
-0.19823
-0.183961
-0.725041
-0.712014
-0.696727
-0.673557
-0.641575
-0.604333
-0.565754
-0.528276
-0.49298
-0.46016
-0.429755
-0.401569
-0.375386
-0.351001
-0.32823
-0.306914
-0.286914
-0.26811
-0.250395
-0.233673
-0.21786
-0.202892
-0.188678
-0.175022
-0.750243
-0.73552
-0.715921
-0.685826
-0.646454
-0.603181
-0.560265
-0.519791
-0.482419
-0.448145
-0.416723
-0.387855
-0.361258
-0.336679
-0.3139
-0.292731
-0.273009
-0.254592
-0.237354
-0.221182
-0.205986
-0.191685
-0.17815
-0.16521
-0.772295
-0.755747
-0.730761
-0.692896
-0.646132
-0.597285
-0.550547
-0.507505
-0.468398
-0.432947
-0.40075
-0.371414
-0.344593
-0.319989
-0.297348
-0.276453
-0.257118
-0.239182
-0.222498
-0.206944
-0.192431
-0.178882
-0.166156
-0.154144
-0.523307
-0.521527
-0.520877
-0.522964
-0.528696
-0.538246
-0.551535
-0.568396
-0.588515
-0.611331
-0.635974
-0.661283
-0.685863
-0.708203
-0.726809
-0.740215
-0.747162
-0.745615
-0.735102
-0.714664
-0.683883
-0.643144
-0.594793
-0.540652
-0.541424
-0.538272
-0.537415
-0.539723
-0.545961
-0.556328
-0.570713
-0.588896
-0.610521
-0.634988
-0.661391
-0.688529
-0.714985
-0.739237
-0.759779
-0.775122
-0.78386
-0.784488
-0.775606
-0.755771
-0.723951
-0.679826
-0.625886
-0.56373
-0.553986
-0.549576
-0.548197
-0.550169
-0.556142
-0.566356
-0.58068
-0.598838
-0.620431
-0.644842
-0.671177
-0.698271
-0.724753
-0.749161
-0.770041
-0.785917
-0.795464
-0.79714
-0.789181
-0.769609
-0.736912
-0.690204
-0.632214
-0.564459
-0.560884
-0.555506
-0.553369
-0.55442
-0.559273
-0.568293
-0.581391
-0.598267
-0.618495
-0.641463
-0.666318
-0.691964
-0.717113
-0.740375
-0.760193
-0.775568
-0.784882
-0.786405
-0.778078
-0.757528
-0.723114
-0.673974
-0.613453
-0.543275
-0.562819
-0.556937
-0.553944
-0.553592
-0.556556
-0.563423
-0.574259
-0.588814
-0.606671
-0.627242
-0.649736
-0.673166
-0.696434
-0.717437
-0.736084
-0.750458
-0.758872
-0.759304
-0.749383
-0.726535
-0.689441
-0.637912
-0.576124
-0.506326
-0.561054
-0.555224
-0.551462
-0.54947
-0.550042
-0.554058
-0.561854
-0.573348
-0.5882
-0.605873
-0.625635
-0.646575
-0.666816
-0.686857
-0.704176
-0.717148
-0.72387
-0.721895
-0.70876
-0.682179
-0.64188
-0.588802
-0.527882
-0.461352
-0.557071
-0.551815
-0.54754
-0.543995
-0.542092
-0.542997
-0.547396
-0.555482
-0.567087
-0.581761
-0.598824
-0.616975
-0.636251
-0.65447
-0.669912
-0.680562
-0.684046
-0.677749
-0.659674
-0.628547
-0.585687
-0.533136
-0.475936
-0.415775
-0.552285
-0.547977
-0.543524
-0.538791
-0.534769
-0.532842
-0.534032
-0.538866
-0.547409
-0.559338
-0.573946
-0.590694
-0.607909
-0.62379
-0.636206
-0.642712
-0.640858
-0.628585
-0.605032
-0.57045
-0.527436
-0.478335
-0.427417
-0.3752
-0.547898
-0.544704
-0.540373
-0.534943
-0.529463
-0.525425
-0.524108
-0.526333
-0.532412
-0.542146
-0.554868
-0.569319
-0.583697
-0.5958
-0.603166
-0.603449
-0.594828
-0.576483
-0.548938
-0.513706
-0.473663
-0.430452
-0.387164
-0.342672
-0.54495
-0.542811
-0.53878
-0.53313
-0.526949
-0.521744
-0.518907
-0.519424
-0.523709
-0.531488
-0.541788
-0.552973
-0.562906
-0.569232
-0.569748
-0.562864
-0.54789
-0.525302
-0.496445
-0.463231
-0.42779
-0.391045
-0.355099
-0.317399
-0.544401
-0.543077
-0.539399
-0.533918
-0.527726
-0.522261
-0.518829
-0.518341
-0.521068
-0.526492
-0.533316
-0.539667
-0.543422
-0.542627
-0.535901
-0.522718
-0.503426
-0.479124
-0.451108
-0.420882
-0.389487
-0.357784
-0.327319
-0.295284
-0.547071
-0.546127
-0.542802
-0.537748
-0.531958
-0.526912
-0.523349
-0.521972
-0.522752
-0.524867
-0.526872
-0.527034
-0.523741
-0.515883
-0.503063
-0.485579
-0.4642
-0.439879
-0.413431
-0.385702
-0.356942
-0.328155
-0.299695
-0.271605
-0.476981
-0.410213
-0.355258
-0.31609
-0.295336
-0.294269
-0.312589
-0.34482
-0.378633
-0.398125
-0.390067
-0.350319
-0.291168
-0.23155
-0.185285
-0.156015
-0.141966
-0.140797
-0.150742
-0.173726
-0.21626
-0.277216
-0.33546
-0.361129
-0.337401
-0.280197
-0.215013
-0.161722
-0.128487
-0.111966
-0.109524
-0.124672
-0.157577
-0.193206
-0.207436
-0.187862
-0.150326
-0.115533
-0.0938938
-0.0871997
-0.0970508
-0.116385
-0.127891
-0.119067
-0.100919
-0.0819707
-0.0681794
-0.061178
-0.0600418
-0.0590409
-0.0539594
-0.0458176
-0.0419608
-0.0424595
-0.0437451
-0.0344416
-0.0262303
-0.0150438
-0.0104373
-0.00251963
-0.490957
-0.414776
-0.350272
-0.301162
-0.270288
-0.259237
-0.268047
-0.293143
-0.32421
-0.345312
-0.341103
-0.30876
-0.25863
-0.208114
-0.169283
-0.145251
-0.13542
-0.138197
-0.152133
-0.179795
-0.227996
-0.294285
-0.356349
-0.383884
-0.358248
-0.296581
-0.226065
-0.167394
-0.129076
-0.107842
-0.100252
-0.108778
-0.134192
-0.163946
-0.175884
-0.159674
-0.129296
-0.102704
-0.088531
-0.0891917
-0.106953
-0.133843
-0.149792
-0.139041
-0.115362
-0.0901573
-0.0703427
-0.0574655
-0.0511643
-0.047512
-0.0424694
-0.0385809
-0.0405294
-0.0477698
-0.0543626
-0.0449014
-0.0340236
-0.0151718
-0.0040332
0.000317152
-0.485284
-0.403747
-0.334172
-0.278266
-0.238982
-0.217273
-0.214458
-0.229116
-0.253891
-0.27527
-0.277104
-0.254858
-0.216479
-0.176836
-0.146067
-0.127725
-0.12245
-0.129214
-0.146661
-0.177609
-0.228715
-0.29734
-0.361709
-0.392395
-0.368807
-0.305792
-0.231923
-0.169573
-0.127314
-0.102002
-0.0896101
-0.0919318
-0.110144
-0.134338
-0.144609
-0.131675
-0.107974
-0.0888087
-0.0816854
-0.0898697
-0.115866
-0.150552
-0.171376
-0.15902
-0.129258
-0.097574
-0.0720268
-0.0538365
-0.0426325
-0.0363318
-0.031097
-0.0313605
-0.0389019
-0.0526794
-0.0644493
-0.0550338
-0.0415806
-0.0155678
0.00229124
0.00303615
-0.461421
-0.379984
-0.311114
-0.253197
-0.208598
-0.178765
-0.164216
-0.165738
-0.180285
-0.198302
-0.205949
-0.192921
-0.167172
-0.13888
-0.116401
-0.1039
-0.103079
-0.113376
-0.133275
-0.165324
-0.21606
-0.284403
-0.350713
-0.385145
-0.367473
-0.30681
-0.232055
-0.168012
-0.123296
-0.0949893
-0.0785489
-0.0752305
-0.0868985
-0.105953
-0.114862
-0.104972
-0.0869191
-0.074061
-0.0732044
-0.0885494
-0.122701
-0.165421
-0.191532
-0.178211
-0.142295
-0.104043
-0.0731395
-0.0503221
-0.0346005
-0.0257038
-0.0199897
-0.0241722
-0.037016
-0.0570497
-0.073826
-0.0646727
-0.0488008
-0.016302
0.00846224
0.00562708
-0.426174
-0.349808
-0.28572
-0.229386
-0.183263
-0.148012
-0.124376
-0.11406
-0.116252
-0.126051
-0.133967
-0.129445
-0.115264
-0.097373
-0.0826107
-0.0754852
-0.0786027
-0.091862
-0.113407
-0.144922
-0.192616
-0.257391
-0.323685
-0.363084
-0.353641
-0.299307
-0.226984
-0.163133
-0.117324
-0.0871723
-0.0678921
-0.0597297
-0.0654395
-0.0798255
-0.0876006
-0.0802825
-0.0666002
-0.0586567
-0.0630203
-0.084594
-0.126511
-0.177235
-0.208951
-0.195819
-0.154229
-0.109507
-0.0736715
-0.0469438
-0.0271858
-0.0158109
-0.00927632
-0.0169946
-0.0348169
-0.0607706
-0.0823409
-0.0736623
-0.055601
-0.0174217
0.0143981
0.00808692
-0.386599
-0.318884
-0.262493
-0.209985
-0.164379
-0.127011
-0.097384
-0.0770281
-0.0676441
-0.067458
-0.0718185
-0.0726947
-0.0655361
-0.0558631
-0.0475313
-0.045041
-0.051513
-0.0671628
-0.0897279
-0.119638
-0.162373
-0.220564
-0.284066
-0.328436
-0.328777
-0.283875
-0.21714
-0.155489
-0.109817
-0.0788473
-0.0577594
-0.0460681
-0.0465572
-0.0566323
-0.0634499
-0.0584155
-0.0476014
-0.043004
-0.0513208
-0.0780948
-0.126827
-0.184784
-0.222406
-0.210897
-0.16473
-0.1139
-0.0736269
-0.0437278
-0.0204986
-0.00680972
0.000886615
-0.00985913
-0.0322624
-0.0637311
-0.0898731
-0.0818539
-0.0619009
-0.0189413
0.0200236
0.0104049
-0.349122
-0.290822
-0.242688
-0.195447
-0.151954
-0.114428
-0.0823745
-0.0558877
-0.036838
-0.0266211
-0.0238222
-0.0241802
-0.0210813
-0.0173584
-0.0137451
-0.0148467
-0.0239145
-0.0411293
-0.063986
-0.0918076
-0.129004
-0.179487
-0.237972
-0.285481
-0.29625
-0.262526
-0.203519
-0.14584
-0.101463
-0.0704696
-0.0484634
-0.0342177
-0.0304459
-0.036695
-0.042667
-0.0394948
-0.030335
-0.0277234
-0.0387351
-0.0690303
-0.1231
-0.187555
-0.231006
-0.222797
-0.173504
-0.117223
-0.0730465
-0.0406672
-0.0146142
0.00116345
0.0103525
-0.00277928
-0.029355
-0.0658831
-0.0963464
-0.0891365
-0.067623
-0.0208365
0.0252723
0.0125662
-0.3182
-0.268965
-0.227841
-0.185679
-0.145041
-0.108269
-0.0755838
-0.0468318
-0.0223419
-0.00365729
0.00742324
0.0115981
0.0130404
0.0152322
0.0160431
0.0126239
0.00195982
-0.01586
-0.0381683
-0.0636484
-0.0956186
-0.138024
-0.189669
-0.238234
-0.257645
-0.236301
-0.186774
-0.134667
-0.0926927
-0.0623815
-0.0401922
-0.0243245
-0.0171485
-0.0200581
-0.0251731
-0.0237418
-0.0151494
-0.0135048
-0.0257434
-0.0580415
-0.115563
-0.18489
-0.234069
-0.23023
-0.180097
-0.119467
-0.0719781
-0.0377209
-0.00954441
0.00801622
0.0189583
0.00415993
-0.026109
-0.0671469
-0.101705
-0.0954022
-0.0726906
-0.0230297
0.0300626
0.0145534
-0.294405
-0.253039
-0.217685
-0.179991
-0.142613
-0.107561
-0.0750372
-0.0453366
-0.0188358
0.00427403
0.022686
0.0339705
0.038813
0.0410736
0.0398389
0.035455
0.0245969
0.00734075
-0.0136839
-0.0368898
-0.0644452
-0.0996595
-0.144086
-0.19126
-0.217931
-0.208353
-0.16837
-0.122543
-0.0837515
-0.0547145
-0.0329248
-0.0163208
-0.00660717
-0.00653635
-0.0106431
-0.00989173
-0.00248956
-0.000905604
-0.0129644
-0.0454034
-0.104005
-0.177402
-0.231944
-0.235423
-0.184362
-0.120623
-0.0704469
-0.0348613
-0.00525221
0.0137065
0.026603
0.0110058
-0.0225738
-0.0676231
-0.105962
-0.10061
-0.0770428
-0.0254587
0.0342856
0.016347
-0.276755
-0.242157
-0.211296
-0.177322
-0.143165
-0.110323
-0.0788693
-0.0492871
-0.0221848
0.00229323
0.0237562
0.04095
0.0522068
0.0568848
0.0567966
0.0522208
0.0420972
0.0266405
0.00794539
-0.0128229
-0.0368374
-0.0656892
-0.102381
-0.146616
-0.172291
-0.176821
-0.147559
-0.109378
-0.0748324
-0.0477001
-0.0268064
-0.010255
0.00114379
0.00391107
0.0010923
0.000968822
0.00721452
0.00957551
-0.00120326
-0.0324038
-0.0902467
-0.164242
-0.223916
-0.233549
-0.184986
-0.120651
-0.0685876
-0.0322374
-0.00186305
0.0182216
0.033123
0.0175745
-0.0188111
-0.0671641
-0.109064
-0.104637
-0.0806223
-0.0280948
0.0377948
0.0179282
-0.262637
-0.235165
-0.207723
-0.176325
-0.144518
-0.113559
-0.0836586
-0.0545211
-0.0268708
-0.00145216
0.0213642
0.0408018
0.0558881
0.0671189
0.0694748
0.0665681
0.0578407
0.0441489
0.027837
0.00929233
-0.0122655
-0.0368004
-0.0686618
-0.110706
-0.153478
-0.152546
-0.130012
-0.098166
-0.0676391
-0.0424288
-0.0224063
-0.00622714
0.00622
0.0114185
0.0101192
0.0090779
0.0140439
0.0178645
0.00976787
-0.0187693
-0.0743433
-0.148284
-0.211925
-0.225182
-0.183313
-0.120279
-0.0669785
-0.0300491
0.000578361
0.0213464
0.038524
0.0240842
-0.014837
-0.0661057
-0.111162
-0.107676
-0.083382
-0.0306613
0.0404399
0.01928
-0.25002
-0.232519
-0.209616
-0.181749
-0.153389
-0.12531
-0.097358
-0.0694988
-0.042173
-0.0161762
0.00784472
0.0291172
0.0468539
0.0593071
0.0694466
0.0725072
0.068272
0.0583412
0.0454161
0.0293623
0.00927377
-0.0121911
-0.0383724
-0.074065
-0.107584
-0.116864
-0.105041
-0.0824224
-0.0578393
-0.0357841
-0.0172006
-0.00185945
0.0107589
0.0175465
0.0175528
0.0156571
0.019025
0.0235367
0.0174452
-0.00695744
-0.0579785
-0.128871
-0.193564
-0.210552
-0.176211
-0.117491
-0.0644187
-0.0271355
0.00342483
0.0238391
0.0421486
0.0299747
-0.0107479
-0.0640175
-0.111911
-0.109203
-0.0850344
-0.0323504
0.0422754
0.0203937
-0.222871
-0.217962
-0.196129
-0.167883
-0.139808
-0.113158
-0.0872799
-0.0615238
-0.0360875
-0.0116879
0.0112916
0.0322542
0.0497942
0.0635592
0.0726208
0.0781265
0.0775033
0.070252
0.0599519
0.0483225
0.0331519
0.0122772
-0.0182811
-0.0575945
-0.0901376
-0.0961857
-0.0839514
-0.0642697
-0.0434696
-0.0246389
-0.00846757
0.00501999
0.0163751
0.0232003
0.0239354
0.0216074
0.0236493
0.0299523
0.0271842
0.00683451
-0.0407033
-0.109389
-0.176027
-0.198592
-0.167674
-0.110015
-0.0579012
-0.0219759
0.00737164
0.0272193
0.0513724
0.0361877
-0.00625131
-0.0613647
-0.112156
-0.110145
-0.0852778
-0.0330466
0.0433637
0.0212383
-0.197224
-0.195796
-0.176388
-0.149695
-0.123447
-0.0993171
-0.076391
-0.0535457
-0.0306657
-0.00844791
0.0124156
0.0314267
0.047694
0.0604192
0.0709067
0.0776644
0.0788657
0.0741673
0.06696
0.0593642
0.0479173
0.0268955
-0.00550278
-0.042531
-0.0669772
-0.0710969
-0.0611276
-0.0458295
-0.0297031
-0.0145725
-0.000817969
0.0109438
0.02081
0.0269559
0.027916
0.0255419
0.0265755
0.0319698
0.0319486
0.0148935
-0.0283
-0.0932386
-0.159058
-0.183281
-0.154635
-0.100667
-0.0508591
-0.0168639
0.0109492
0.029737
0.0528892
0.0401717
-0.00314665
-0.0591731
-0.11172
-0.109268
-0.0841876
-0.0333841
0.0435981
0.0217245
-0.175612
-0.174707
-0.158681
-0.135292
-0.111637
-0.0897443
-0.0690328
-0.0484163
-0.0276205
-0.00722453
0.0121078
0.0298792
0.0453435
0.0579631
0.068039
0.0750161
0.0773228
0.0745983
0.0696158
0.0642124
0.0542702
0.0342144
0.00528442
-0.0243723
-0.0437038
-0.0476026
-0.0414833
-0.0305796
-0.0181447
-0.00589498
0.00573092
0.0158919
0.0245338
0.0301465
0.0312842
0.028754
0.0287779
0.0340558
0.0344998
0.0189622
-0.0209708
-0.0804262
-0.140041
-0.163614
-0.139116
-0.090328
-0.0437246
-0.0120605
0.014174
0.0315896
0.0546793
0.042752
-0.00152267
-0.0574745
-0.110207
-0.107281
-0.0819779
-0.0333253
0.0429756
0.0219092
-0.154986
-0.154748
-0.14175
-0.121507
-0.100284
-0.0803714
-0.0616084
-0.0431109
-0.0244844
-0.0060454
0.0115996
0.0279254
0.0422766
0.054208
0.0639485
0.071056
0.0743168
0.0733685
0.0700961
0.0657881
0.0571617
0.0406413
0.0175818
-0.00594397
-0.0216719
-0.0266771
-0.0238975
-0.0165272
-0.00730652
0.00217031
0.011727
0.0203526
0.0276614
0.0324323
0.0336299
0.0310711
0.0302269
0.0349527
0.0360024
0.0215961
-0.0149917
-0.0663478
-0.118113
-0.141187
-0.121011
-0.0784233
-0.0361574
-0.00731016
0.0172006
0.0327922
0.0554642
0.044337
-0.000454853
-0.0552897
-0.1074
-0.104053
-0.078504
-0.0325855
0.0414503
0.0217749
-0.135843
-0.136554
-0.12602
-0.108625
-0.0898329
-0.0719778
-0.0551759
-0.0387205
-0.022158
-0.00563488
0.0103268
0.0252129
0.0384981
0.0498159
0.0591675
0.0662571
0.0702279
0.0707583
0.0689638
0.0656736
0.0589062
0.0462667
0.0283426
0.00981304
-0.00326838
-0.00913325
-0.00904299
-0.00473154
0.00186181
0.0090955
0.0168202
0.0240879
0.03028
0.0341823
0.0352748
0.0326714
0.0310937
0.0348665
0.036177
0.0234074
-0.00804925
-0.0500352
-0.0945506
-0.116448
-0.100996
-0.0654625
-0.02851
-0.00289746
0.0198508
0.0333838
0.0550035
0.0450206
0.000657882
-0.0522376
-0.103131
-0.0994
-0.07367
-0.0310987
0.0390083
0.02128
-0.118955
-0.120121
-0.11151
-0.096627
-0.0801643
-0.0643362
-0.0494019
-0.034825
-0.0201765
-0.00548944
0.00883558
0.0223314
0.0345341
0.0451107
0.0539703
0.0608975
0.0653238
0.0669746
0.0664017
0.0640612
0.0588947
0.049358
0.0358002
0.0215003
0.0104721
0.00441355
0.00291655
0.00516112
0.00979795
0.015196
0.0212647
0.0272453
0.0324063
0.035425
0.0362898
0.0337382
0.0315691
0.034185
0.0352397
0.0248133
-0.000582747
-0.0334468
-0.0706454
-0.0907285
-0.079937
-0.0517822
-0.0208353
0.00121098
0.0220733
0.0334305
0.0530967
0.0447205
0.00179841
-0.0483081
-0.0971946
-0.0932187
-0.0674872
-0.0287393
0.0357341
0.0203857
-0.103694
-0.105062
-0.098085
-0.0854617
-0.0711863
-0.0572988
-0.0441423
-0.0313212
-0.0184443
-0.00547504
0.007282
0.0194128
0.0305091
0.0402726
0.0485608
0.0552077
0.0598354
0.0621965
0.0625114
0.0610206
0.057214
0.0501958
0.0401699
0.0292823
0.0202565
0.0146436
0.0124297
0.0132416
0.0163287
0.0202744
0.0249294
0.0297457
0.0340637
0.0363536
0.0368704
0.0345512
0.0320223
0.0334527
0.033566
0.0254246
0.00593112
-0.0179013
-0.0475383
-0.0652992
-0.0588732
-0.038012
-0.013357
0.00495149
0.0237853
0.0331068
0.049635
0.0432583
0.00276747
-0.0433457
-0.0893396
-0.085401
-0.0600633
-0.0254925
0.0317888
0.0190661
-0.0896938
-0.0913181
-0.0857626
-0.0751443
-0.0628652
-0.0507865
-0.0392957
-0.0280959
-0.0168405
-0.0054668
0.00579349
0.0165965
0.0265845
0.0355126
0.0431901
0.049481
0.0541249
0.0569122
0.057901
0.0571929
0.0545348
0.0494756
0.0421795
0.0340606
0.0269175
0.0220463
0.0196502
0.0196097
0.0215925
0.0244534
0.0279575
0.0317119
0.0352602
0.03701
0.0371653
0.0352194
0.0326575
0.0331594
0.0318237
0.025255
0.0113221
-0.00375376
-0.0261668
-0.041482
-0.0389297
-0.0248279
-0.00620908
0.00838917
0.0250059
0.0326558
0.0447192
0.0405928
0.00367501
-0.0369793
-0.0793034
-0.0759029
-0.0516563
-0.021421
0.0274252
0.0173318
-0.0770859
-0.0788864
-0.0745102
-0.0656348
-0.0551465
-0.0447188
-0.0347554
-0.0250396
-0.0152742
-0.00537762
0.00448384
0.0140244
0.0229459
0.0310163
0.0380683
0.04396
0.0485001
0.0515182
0.052991
0.0529373
0.051242
0.0477384
0.0425801
0.0366702
0.0312088
0.0272112
0.0249896
0.0245175
0.0257064
0.0277378
0.0303398
0.0331888
0.036038
0.0374002
0.0373058
0.0357875
0.0334526
0.0334123
0.0311569
0.0250183
0.0161288
0.00863145
-0.00753232
-0.0206458
-0.021278
-0.0129279
0.000423839
0.011548
0.0258242
0.0323094
0.0389988
0.0372236
0.00506444
-0.0287789
-0.0669352
-0.0648201
-0.0426825
-0.0167189
0.0229477
0.0152471
-0.0657611
-0.0676135
-0.0642166
-0.0568591
-0.0479629
-0.0390196
-0.030443
-0.0220839
-0.0136808
-0.00513545
0.0034354
0.0117955
0.0196954
0.0269273
0.0333408
0.0387988
0.0431521
0.0462589
0.048062
0.0485541
0.0476844
0.0454256
0.0419236
0.0377706
0.0337658
0.0306356
0.02874
0.0281119
0.0287859
0.0302162
0.0321476
0.0342637
0.0364901
0.0375495
0.0373537
0.0362548
0.0343243
0.0340714
0.031901
0.0262698
0.0212897
0.0188782
0.00722776
-0.00414082
-0.00714374
-0.00277434
0.00639811
0.0144498
0.0263804
0.0320786
0.0338994
0.0341305
0.00779144
-0.0184905
-0.0524074
-0.0524984
-0.0336778
-0.0116946
0.0186878
0.0129453
-0.0554939
-0.0573779
-0.0548055
-0.0487547
-0.0412589
-0.0336466
-0.0263261
-0.0191918
-0.0120119
-0.00468475
0.00270794
0.00997492
0.0169091
0.0233317
0.0291094
0.0341158
0.0382293
0.0413335
0.0433583
0.0442875
0.0440964
0.042829
0.040612
0.0378374
0.0350247
0.0327039
0.0312105
0.0306155
0.0309879
0.0319864
0.033424
0.034971
0.0366859
0.0375071
0.0373211
0.036609
0.0351577
0.0349566
0.0337384
0.029849
0.0275385
0.0268355
0.0176799
0.00779362
0.00393795
0.00560136
0.0115905
0.017091
0.0267774
0.0317528
0.0309498
0.032364
0.0126202
-0.00649912
-0.0365771
-0.0396563
-0.02521
-0.00675552
0.0149895
0.0106305
-0.0462308
-0.0481136
-0.0462119
-0.0412755
-0.0350084
-0.0285791
-0.022375
-0.0163256
-0.0102327
-0.00399798
0.00232789
0.00859488
0.0146335
0.0202901
0.0254496
0.0300016
0.0338411
0.0368732
0.0390268
0.0402872
0.0406373
0.0401425
0.0389115
0.0372227
0.0353704
0.0337618
0.0326776
0.0322101
0.0324333
0.0331415
0.0342332
0.0353603
0.0366764
0.0373352
0.0372001
0.0368335
0.0358607
0.0358066
0.0359997
0.0342258
0.0336067
0.0324781
0.0246538
0.0161709
0.0123561
0.0123164
0.0159216
0.019483
0.0270504
0.0312536
0.030614
0.0323992
0.0194022
0.00574754
-0.0210475
-0.0272661
-0.017671
-0.00237865
0.0121795
0.00857701
-0.0379109
-0.0397337
-0.0383709
-0.0343808
-0.0291776
-0.0237821
-0.0185587
-0.0134663
-0.0083366
-0.00307219
0.00230024
0.00766205
0.0128815
0.0178262
0.0223961
0.0264987
0.0300418
0.0329502
0.035156
0.0366469
0.0374059
0.0375
0.0370186
0.0361768
0.0350619
0.0340585
0.0333625
0.0330714
0.0332578
0.0337858
0.0346425
0.0354799
0.0364901
0.0370595
0.0369968
0.0368971
0.0363673
0.0363915
0.0366811
0.0373111
0.037539
0.0357492
0.0290604
0.021982
0.0185278
0.0175026
0.0193769
0.0215919
0.0272055
0.030705
0.0319152
0.032633
0.0259315
0.0157799
-0.00782115
-0.0163742
-0.011211
0.00103731
0.0103846
0.00705417
-0.0304063
-0.0321423
-0.0312117
-0.0280204
-0.0237358
-0.0192418
-0.0148756
-0.0106193
-0.00633079
-0.00191667
0.0026115
0.00716025
0.0116413
0.015933
0.019949
0.0236141
0.0268492
0.0295956
0.0317883
0.033419
0.0344692
0.0349934
0.0350446
0.0347273
0.0342867
0.0338051
0.0334652
0.0333642
0.0335812
0.0340125
0.0347137
0.0353708
0.0361563
0.0366785
0.0367106
0.0367815
0.0366333
0.0367924
0.0374713
0.0385295
0.0389742
0.0370862
0.0316054
0.0258538
0.0228383
0.0213235
0.022031
0.0233433
0.0273376
0.0303497
0.0330524
0.0319992
0.0300227
0.0219768
0.00167891
-0.00781615
-0.00578919
0.00337891
0.00944595
0.00615788
-0.0236304
-0.0252777
-0.0246954
-0.0221736
-0.0186718
-0.0149517
-0.0113249
-0.00779138
-0.00423151
-0.000557407
0.00323225
0.00708097
0.0108896
0.0145826
0.0180817
0.0213274
0.0242504
0.0268059
0.0289347
0.0306295
0.0318682
0.032694
0.0331399
0.0332859
0.0332723
0.0331879
0.0331485
0.0332275
0.0335097
0.0339069
0.0345088
0.0350659
0.0356976
0.0361848
0.0363231
0.036486
0.0366125
0.0368804
0.0375175
0.0385418
0.0388421
0.0371731
0.0328532
0.0282655
0.0256709
0.0240112
0.0240026
0.0246878
0.0275352
0.0301745
0.0330043
0.0314002
0.0311578
0.0243609
0.0074289
-0.00167218
-0.00135643
0.00485293
0.0088472
0.00562409
-0.0175507
-0.0190949
-0.0187751
-0.0167996
-0.0139563
-0.0108978
-0.00790744
-0.00499654
-0.00206466
0.000969183
0.00411715
0.00734376
0.0105666
0.013723
0.0167479
0.019597
0.0222115
0.0245567
0.0265807
0.0282751
0.0296147
0.030634
0.031352
0.031823
0.0321273
0.0323403
0.0325428
0.0327812
0.0331389
0.0335436
0.0340863
0.0345911
0.0351279
0.0355813
0.0358133
0.0360223
0.0362997
0.0365468
0.0370742
0.0378756
0.0379421
0.0365503
0.033243
0.029636
0.0274102
0.0258154
0.0254063
0.0256458
0.0277561
0.0299947
0.0320394
0.0307678
0.0307409
0.0247558
0.0108339
0.00257002
0.00202879
0.00586399
0.00807736
0.00497651
-0.0121552
-0.0135525
-0.0134117
-0.0118725
-0.00957861
-0.00708352
-0.00463885
-0.00225926
0.000136132
0.00262378
0.00522625
0.0079101
0.0106162
0.0132927
0.0158873
0.0183669
0.0206817
0.0228051
0.0246922
0.0263345
0.0277071
0.0288322
0.0297139
0.0304039
0.0309361
0.0313657
0.0317526
0.0321235
0.0325519
0.0329852
0.0334967
0.0339753
0.0344582
0.03488
0.035174
0.0354061
0.0357109
0.0359863
0.0363348
0.0368632
0.0367336
0.0355823
0.0330894
0.0302877
0.0283751
0.0269319
0.0263434
0.0262785
0.0278475
0.0295719
0.0306985
0.0298679
0.0294842
0.0242645
0.0129355
0.00550409
0.00433914
0.00547693
0.0070681
0.00413965
-0.00727892
-0.00856463
-0.00857374
-0.00739949
-0.00556663
-0.00354056
-0.00154388
0.000395038
0.00234382
0.00437207
0.00650355
0.00871996
0.0109745
0.013227
0.0154352
0.0175737
0.0196023
0.0214996
0.0232283
0.0247799
0.0261316
0.0272935
0.0282676
0.0290831
0.0297641
0.0303412
0.0308596
0.0313327
0.0318193
0.0322862
0.0327838
0.0332488
0.033701
0.034097
0.0344219
0.0346698
0.0349558
0.0352169
0.0354147
0.0356968
0.0354423
0.0344825
0.0326025
0.0304424
0.0288007
0.0274877
0.0268942
0.0266274
0.0276824
0.0288673
0.0292445
0.0285463
0.0277701
0.0233256
0.0142177
0.00757769
0.00591324
0.00601662
0.00611325
0.00329561
-0.00290537
-0.00406908
-0.00418705
-0.00330893
-0.00185788
-0.000227184
0.0013847
0.00294947
0.0045221
0.00616362
0.00789777
0.00971492
0.0115796
0.0134605
0.0153241
0.0171512
0.0189105
0.0205849
0.0221436
0.023576
0.0248605
0.0260102
0.0270157
0.027893
0.0286574
0.0293244
0.029927
0.0304713
0.0309996
0.0314939
0.031986
0.0324422
0.0328741
0.0332495
0.0335791
0.0338321
0.0340763
0.0342969
0.0343887
0.0344841
0.0341654
0.033358
0.0319215
0.0302547
0.0288606
0.0277152
0.0271196
0.0267144
0.027258
0.0279401
0.0278436
0.0269941
0.0259031
0.0221759
0.0149042
0.00903047
0.00697833
0.0063251
0.00534633
0.00259587
0.000999499
-4.98049e-05
-0.000240542
0.000405632
0.00154519
0.00284718
0.00413816
0.0053896
0.00664667
0.00796324
0.00936286
0.0108413
0.0123717
0.0139297
0.0154887
0.0170349
0.0185443
0.0200028
0.0213866
0.0226853
0.0238796
0.024972
0.0259603
0.026849
0.0276456
0.028356
0.0290024
0.0295877
0.0301394
0.0306498
0.031137
0.0315834
0.031998
0.0323556
0.0326719
0.0329189
0.0331214
0.0332896
0.0333103
0.0332818
0.0329397
0.0322543
0.0311354
0.0298337
0.0286603
0.0276409
0.0270298
0.02655
0.0266482
0.0269105
0.0265093
0.0254302
0.024088
0.020958
0.0151552
0.0100019
0.00768954
0.00648722
0.00482221
0.0020906
0.00446248
0.00353672
0.0033093
0.00377483
0.00465802
0.0056855
0.00670872
0.0076997
0.00869448
0.00974007
0.0108595
0.0120518
0.0132972
0.0145763
0.0158683
0.017163
0.0184434
0.0196978
0.0209068
0.0220606
0.0231459
0.0241579
0.025095
0.0259566
0.0267458
0.0274627
0.0281198
0.0287187
0.0292758
0.0297883
0.0302659
0.030699
0.0310945
0.0314339
0.0317279
0.0319586
0.0321239
0.0322418
0.0322179
0.0321156
0.0317751
0.0311863
0.0302963
0.0292565
0.0282678
0.0273489
0.0267285
0.0261962
0.0259396
0.0258392
0.0252369
0.0239792
0.0224413
0.0197581
0.0151039
0.0105993
0.00813572
0.00655683
0.00448209
0.00176322
0.00755482
0.00674391
0.00649358
0.00681421
0.00748802
0.00828983
0.00909226
0.00986823
0.0106464
0.0114673
0.0123531
0.0133052
0.0143084
0.0153479
0.0164077
0.0174799
0.0185523
0.0196164
0.0206568
0.0216641
0.0226285
0.0235441
0.0244071
0.0252147
0.0259666
0.0266607
0.0273021
0.0278914
0.0284366
0.0289373
0.029398
0.0298126
0.0301852
0.0305031
0.0307707
0.0309785
0.0311119
0.0311883
0.0311376
0.030995
0.0306697
0.030157
0.0294313
0.0285774
0.0277301
0.0269
0.026249
0.0256695
0.0251719
0.0247665
0.0240161
0.0226656
0.0209977
0.0186225
0.0148503
0.0109125
0.00838212
0.00656592
0.00426981
0.00156396
0.0103012
0.00959237
0.00933382
0.00954414
0.0100503
0.0106675
0.011288
0.011887
0.0124871
0.0131228
0.0138145
0.0145655
0.0153642
0.0161992
0.0170586
0.0179357
0.0188218
0.0197113
0.0205926
0.0214572
0.0222965
0.0231059
0.0238804
0.024616
0.02531
0.0259593
0.0265643
0.0271246
0.0276429
0.0281192
0.0285545
0.0289441
0.029289
0.0295816
0.0298198
0.0300029
0.0301097
0.0301528
0.0300856
0.0299235
0.0296184
0.0291653
0.0285552
0.027835
0.0270872
0.0263297
0.0256494
0.0250167
0.0243685
0.0237273
0.0228531
0.0214795
0.0197505
0.0175751
0.0144648
0.0110173
0.00848168
0.00652566
0.00413278
0.00144616
0.0127278
0.0121165
0.0118626
0.0119887
0.0123594
0.0128253
0.0132965
0.0137505
0.0142049
0.0146888
0.0152202
0.0158036
0.0164307
0.017092
0.0177788
0.0184866
0.0192088
0.0199406
0.0206739
0.0214024
0.0221185
0.0228189
0.023497
0.0241494
0.0247719
0.0253611
0.0259144
0.0264309
0.0269098
0.0273505
0.0277518
0.0281102
0.0284242
0.0286886
0.0288997
0.029052
0.0291349
0.0291512
0.0290727
0.0289024
0.0286159
0.0282095
0.0276784
0.0270528
0.0263744
0.0256689
0.0249712
0.0242849
0.0235435
0.0227411
0.02176
0.0203995
0.0186725
0.0166274
0.0139976
0.0109718
0.00847212
0.00644011
0.00403294
0.00137614
0.0148716
0.0143481
0.0141046
0.0141664
0.0144286
0.0147714
0.0151207
0.0154564
0.0157922
0.0161521
0.0165522
0.0169965
0.0174796
0.0179944
0.0185339
0.0190954
0.0196743
0.020267
0.0208666
0.0214692
0.0220701
0.0226594
0.0232378
0.023801
0.024344
0.0248635
0.025355
0.0258169
0.0262467
0.0266432
0.0270035
0.0273246
0.027603
0.0278335
0.0280131
0.0281387
0.0281994
0.0281939
0.0281054
0.0279321
0.0276598
0.0272881
0.0268105
0.0262489
0.0256202
0.0249482
0.0242434
0.0235134
0.0227094
0.021811
0.0207472
0.0194067
0.0177299
0.0157812
0.0134867
0.0108171
0.00838235
0.00631512
0.00394482
0.0013317
0.0167569
0.0163113
0.0160827
0.0160965
0.0162724
0.0165155
0.0167654
0.0170049
0.0172444
0.0175037
0.0177961
0.018126
0.0184893
0.0188807
0.0192954
0.0197312
0.0201853
0.0206553
0.0211359
0.0216224
0.0221105
0.022599
0.0230802
0.0235546
0.0240155
0.0244602
0.0248839
0.0252846
0.0256588
0.0260045
0.0263184
0.0265973
0.0268355
0.0270307
0.0271782
0.0272756
0.0273131
0.0272879
0.0271889
0.0270132
0.0267506
0.0264019
0.0259603
0.02544
0.0248468
0.0241962
0.0234888
0.0227302
0.0218824
0.0209323
0.0198179
0.0184927
0.0168912
0.0150299
0.0129606
0.0105834
0.0082374
0.00615986
0.00385222
0.0012983