/*--------------------------------*- C++ -*----------------------------------*\
| =========                 |                                                 |
| \\      /  F ield         | OpenFOAM: The Open Source CFD Toolbox           |
|  \\    /   O peration     | Version:  2312                                  |
|   \\  /    A nd           | Website:  www.openfoam.com                      |
|    \\/     M anipulation  |                                                 |
\*---------------------------------------------------------------------------*/
FoamFile
{
    version     2.0;
    format      ascii;
    arch        "LSB;label=32;scalar=64";
    class       volVectorField;
    location    "178.5";
    object      U;
}
// * * * * * * * * * * * * * * * * * * * * * * * * * * * * * * * * * * * * * //

dimensions      [0 1 -1 0 0 0 0];

internalField   nonuniform List<vector> 
5478
(
(-0.0338871 0.0187449 -7.07853e-20)
(-0.065791 0.027959 0)
(-0.0613231 0.0243966 1.07063e-19)
(-8.7455e-05 0.0196808 -1.86318e-19)
(0.131842 0.0175201 1.19233e-19)
(0.328873 0.0204712 -3.72042e-20)
(0.562239 0.0302799 -5.87413e-20)
(0.797129 0.0445149 0)
(1.00404 0.0607281 0)
(1.16656 0.0712112 6.89736e-20)
(1.27365 0.0759863 -3.16239e-20)
(1.32533 0.0719822 -5.27699e-20)
(1.33836 0.0488972 -2.12585e-20)
(1.30593 0.0452919 0)
(1.2815 -0.00823636 6.07998e-20)
(-0.04357 0.0258055 1.42146e-19)
(-0.0596607 0.0358033 0)
(-0.00618624 0.0294375 0)
(0.136558 0.0241128 -9.36139e-20)
(0.365713 0.028922 1.22865e-19)
(0.63548 0.0446102 3.418e-20)
(0.890445 0.0656852 -5.65212e-20)
(1.09258 0.0856353 5.01136e-20)
(1.22678 0.0978678 1.19442e-19)
(1.29404 0.100471 -1.03949e-19)
(1.31005 0.0940526 1.41464e-21)
(1.29873 0.0776317 0)
(1.27702 0.0649713 2.12224e-20)
(1.26828 0.0458133 0)
(1.27541 0.0254366 0)
(-0.0460538 0.0247306 -3.76017e-22)
(-0.0311184 0.030414 -6.65818e-20)
(0.0968327 0.0261253 3.27715e-22)
(0.345059 0.0344083 0)
(0.652508 0.0591193 -4.14378e-20)
(0.932309 0.0891371 3.47246e-20)
(1.13375 0.113357 2.87804e-20)
(1.2472 0.125438 0)
(1.2893 0.125431 -4.01767e-20)
(1.29039 0.117194 3.34738e-20)
(1.27908 0.103822 2.79419e-20)
(1.2703 0.0935184 0)
(1.2694 0.0772986 0)
(1.26441 0.0678472 -5.96351e-20)
(1.24578 0.0491153 5.30984e-20)
(-0.0400507 0.0182228 -7.78847e-20)
(0.0301355 0.0163158 6.57091e-20)
(0.265105 0.026247 -5.66956e-20)
(0.607966 0.0630936 4.98374e-20)
(0.92453 0.107104 8.31807e-20)
(1.13963 0.13927 -6.92216e-20)
(1.2489 0.153284 -2.87621e-20)
(1.2845 0.152525 2.20142e-20)
(1.28615 0.144125 -2.12439e-20)
(1.27975 0.132629 0)
(1.27318 0.122689 0)
(1.26458 0.108355 -4.06394e-20)
(1.24936 0.0978563 5.28613e-20)
(1.23078 0.0838692 -2.97346e-20)
(1.22227 0.0671632 0)
(-0.0226222 0.00934136 3.94632e-20)
(0.137359 0.0053719 3.30115e-20)
(0.492645 0.0494798 -1.19007e-19)
(0.86252 0.113625 1.68218e-21)
(1.11448 0.160365 -1.30511e-21)
(1.23968 0.180935 -1.25259e-21)
(1.2823 0.182491 2.75602e-20)
(1.28777 0.174996 2.30506e-20)
(1.28048 0.164146 1.64558e-20)
(1.26805 0.152912 -2.73445e-21)
(1.25249 0.139224 -3.71919e-20)
(1.23688 0.12746 0)
(1.22582 0.114414 1.66976e-20)
(1.21911 0.100055 -1.24472e-20)
(1.20832 0.0910379 2.21824e-20)
(0.0119413 0.000513236 -8.57385e-20)
(0.297234 0.013934 9.24513e-20)
(0.728828 0.0999652 -3.18227e-20)
(1.05145 0.17239 2.37192e-20)
(1.21793 0.207379 -4.39366e-20)
(1.27888 0.215125 -3.23427e-20)
(1.28888 0.209469 1.05942e-21)
(1.27894 0.198389 0)
(1.26296 0.185625 3.33867e-20)
(1.24726 0.171622 -2.96901e-20)
(1.23485 0.158979 1.17388e-20)
(1.22475 0.145253 0)
(1.21301 0.132838 6.99637e-21)
(1.19822 0.120317 -1.24566e-20)
(1.18615 0.10881 0)
(0.069653 -0.00288207 -1.07043e-20)
(0.489802 0.0544681 1.09651e-21)
(0.922072 0.165601 1.53819e-20)
(1.16917 0.230006 2.61057e-20)
(1.26705 0.250649 -1.9831e-20)
(1.28727 0.248309 3.31919e-20)
(1.27737 0.236774 -7.54086e-21)
(1.26048 0.22247 0)
(1.24451 0.207473 -1.94919e-20)
(1.23021 0.193186 1.45507e-21)
(1.21582 0.17834 1.59468e-20)
(1.20129 0.16466 0)
(1.18919 0.151059 -1.01143e-20)
(1.18076 0.136723 0)
(1.17117 0.128861 6.03186e-21)
(0.150525 0.00702409 -1.20076e-20)
(0.672506 0.122848 0)
(1.05925 0.237617 1.65112e-20)
(1.23326 0.286634 0)
(1.28031 0.292774 0)
(1.27587 0.281323 0)
(1.25808 0.265061 -6.34036e-21)
(1.23932 0.247867 0)
(1.22168 0.230928 3.93034e-21)
(1.20565 0.213973 0)
(1.19253 0.198128 -4.9261e-21)
(1.18207 0.182601 0)
(1.17185 0.168118 3.11405e-21)
(1.16046 0.155114 0)
(1.15024 0.144125 1.96877e-21)
(-0.00586513 -0.106796 -1.16482e-20)
(-0.0387884 -0.125609 0)
(-0.0900499 -0.0892339 1.82681e-20)
(-0.142995 -0.0448382 0)
(-0.193547 0.00410111 0)
(-0.240314 0.0628255 0)
(-0.281588 0.132539 -1.1352e-20)
(-0.314716 0.212696 0)
(-0.336941 0.300627 8.89174e-21)
(-0.345483 0.390905 0)
(-0.338014 0.47545 -1.37105e-20)
(-0.313221 0.545306 0)
(-0.267975 0.593625 1.06931e-20)
(-0.204478 0.611343 0)
(-0.102823 0.592122 8.76384e-21)
(0.000779088 -0.0773857 5.63396e-20)
(-0.0286024 -0.0760712 -3.89975e-20)
(-0.0765589 -0.0318593 1.53305e-20)
(-0.126347 0.0146251 6.00258e-20)
(-0.172863 0.0608968 -2.80268e-23)
(-0.213446 0.112377 -4.76845e-20)
(-0.245493 0.17093 3.24075e-20)
(-0.265979 0.235648 0)
(-0.271639 0.303794 2.33287e-20)
(-0.259651 0.370309 -3.76839e-22)
(-0.227345 0.429518 -1.14694e-20)
(-0.171358 0.473775 0)
(-0.0951481 0.492472 -2.9663e-20)
(-9.0492e-06 0.483892 0)
(0.139878 0.443566 -4.44203e-20)
(0.00542777 -0.0537973 8.33998e-20)
(-0.0181198 -0.0380072 1.80955e-20)
(-0.0568229 0.0130803 -3.35172e-20)
(-0.0957662 0.0622311 -8.52565e-20)
(-0.12951 0.105206 4.9343e-20)
(-0.154576 0.148247 4.22919e-20)
(-0.167893 0.194357 -7.2751e-20)
(-0.166606 0.242828 0)
(-0.148151 0.290985 -5.53896e-20)
(-0.108903 0.335469 4.9245e-20)
(-0.0490579 0.369275 2.0333e-20)
(0.0316702 0.387683 0)
(0.144383 0.391124 1.89609e-20)
(0.239788 0.363161 -3.27629e-20)
(0.420638 0.285853 0)
(0.00841199 -0.0387153 3.84697e-20)
(-0.0103613 -0.0164214 -1.05149e-19)
(-0.0397822 0.0379165 1.21007e-19)
(-0.0655743 0.0897083 -1.04075e-19)
(-0.0828458 0.130635 -4.39498e-20)
(-0.0885955 0.16553 3.76364e-20)
(-0.08004 0.198762 3.52651e-20)
(-0.0547921 0.231101 2.74035e-20)
(-0.011254 0.260739 -7.24365e-20)
(0.0494983 0.282868 5.68928e-22)
(0.138008 0.301223 1.79035e-20)
(0.220862 0.295576 0)
(0.370847 0.281484 3.07698e-20)
(0.443662 0.257882 9.71355e-20)
(0.664295 0.165555 -5.72586e-20)
(0.00932314 -0.0297392 -9.15084e-22)
(-0.008254 -0.00878692 6.51794e-20)
(-0.0332422 0.0410348 -5.65894e-20)
(-0.0496887 0.0905144 5.11257e-20)
(-0.0527177 0.128149 8.54909e-20)
(-0.0407478 0.155681 -7.28396e-20)
(-0.012847 0.177064 -2.97311e-20)
(0.0318009 0.193756 -7.86327e-20)
(0.0940858 0.208985 6.89911e-20)
(0.172232 0.210853 0)
(0.278878 0.219437 0)
(0.374868 0.199757 6.42476e-20)
(0.555311 0.179463 -1.48923e-19)
(0.631529 0.149527 5.43302e-20)
(0.898689 0.0696418 0)
(0.00616616 -0.0218885 1.46937e-24)
(-0.0152561 -0.00678335 -6.48288e-20)
(-0.0417894 0.0300086 1.67408e-19)
(-0.0554463 0.0681558 -4.83378e-20)
(-0.0509315 0.0966591 -4.15738e-20)
(-0.0269352 0.114832 3.52318e-20)
(0.0167763 0.125882 2.9749e-20)
(0.0824349 0.131559 4.74038e-20)
(0.172211 0.135218 -8.26663e-20)
(0.289969 0.130566 3.53325e-20)
(0.427887 0.128312 3.15207e-20)
(0.589457 0.106512 0)
(0.778807 0.0903877 0)
(0.923858 0.052054 1.07303e-19)
(1.17159 0.00473225 -9.52563e-20)
(-0.00354979 -0.010587 -4.63313e-22)
(-0.033161 -0.001106 0)
(-0.0633226 0.0183658 0)
(-0.0746911 0.0391411 9.10358e-20)
(-0.0596718 0.0537629 -4.11026e-20)
(-0.0125109 0.0618893 3.30594e-20)
(0.0710852 0.0651757 5.41728e-20)
(0.191658 0.0662128 -4.80326e-20)
(0.347087 0.0639124 4.06183e-20)
(0.525951 0.0664224 -3.53662e-20)
(0.715519 0.0574392 -5.26968e-22)
(0.918144 0.0544092 0)
(1.08382 0.0391091 2.51849e-20)
(1.25364 0.0129834 0)
(1.36773 -0.0100394 0)
(-0.0188542 0.0046666 -6.98495e-20)
(-0.054629 0.0121141 0)
(-0.0780655 0.0165651 -1.0597e-19)
(-0.0687663 0.0211802 1.83932e-19)
(-0.0133233 0.0240983 -1.96031e-19)
(0.0964097 0.025473 -3.00341e-20)
(0.257129 0.0270104 5.73547e-20)
(0.453516 0.031585 0)
(0.667396 0.0377602 0)
(0.872976 0.0481946 -6.98961e-20)
(1.06365 0.0480498 -3.05475e-20)
(1.21093 0.0570961 5.49648e-20)
(1.31624 0.0352523 -2.52295e-20)
(1.38285 0.028072 0)
(1.36251 -0.00410376 -7.37003e-20)
(0.00617303 0.535203 0)
(0.282075 0.197297 4.79992e-21)
(0.572967 -0.226977 -4.43273e-21)
(0.742874 -0.610695 0)
(0.746455 -0.735632 0)
(0.770362 -0.697856 -8.73281e-23)
(0.653503 -0.639791 0)
(0.488577 -0.636625 0)
(0.570807 -0.255392 6.45109e-23)
(0.721479 0.194601 0)
(0.885926 0.331934 0)
(0.911525 0.518923 -1.01591e-22)
(0.865523 0.531884 0)
(0.85086 0.564401 -6.74254e-23)
(0.907121 0.330599 -6.14396e-23)
(0.93663 -0.0295784 0)
(1.02493 -0.249212 -6.18185e-22)
(1.03296 -0.605319 7.33988e-22)
(1.05498 -0.491362 0)
(1.00929 -0.286819 4.94119e-22)
(1.07399 0.0372151 -6.07287e-22)
(1.09395 0.584606 1.18025e-22)
(1.07877 0.467909 -2.10273e-22)
(1.08315 0.222846 2.00919e-22)
(1.16942 -0.0883151 -2.12861e-22)
(1.0776 -0.717157 0)
(1.15757 -0.344249 -2.33969e-22)
(1.11917 0.538277 2.2372e-22)
(1.06825 0.384946 -1.31574e-22)
(1.03322 -0.201626 0)
(1.00095 -0.177323 -8.62435e-23)
(0.996949 0.0517287 0)
(0.985262 0.0515915 -4.14785e-23)
(0.974953 -0.00639595 -1.50111e-23)
(0.973367 -0.00694237 1.3713e-24)
(0.970796 0.00274726 -9.45696e-24)
(0.969541 0.00296702 0)
(0.967123 0.00258689 2.71651e-24)
(0.281996 0.383124 1.64732e-20)
(0.533398 0.0375929 -1.52996e-22)
(0.781697 -0.373885 -1.63224e-20)
(0.916052 -0.670633 1.55662e-20)
(0.859748 -0.741407 0)
(0.816223 -0.675311 8.80029e-23)
(0.706629 -0.575705 -1.33435e-22)
(0.560991 -0.602222 0)
(0.536761 -0.314787 -6.49931e-23)
(0.690756 0.103359 0)
(0.851537 0.280672 0)
(0.882888 0.51028 1.02324e-22)
(0.80908 0.533568 0)
(0.778665 0.550291 2.17636e-21)
(0.889275 0.312468 -1.82729e-21)
(0.9432 -0.0468354 2.47489e-21)
(1.05898 -0.266682 -2.3623e-21)
(1.04872 -0.609048 -1.44639e-22)
(1.06663 -0.491226 0)
(1.02461 -0.289615 0)
(1.04358 0.0195522 -1.33983e-22)
(1.08887 0.575252 1.09619e-21)
(1.06619 0.465064 -1.68487e-21)
(1.07184 0.21636 7.36385e-22)
(1.19309 -0.0882063 5.92797e-22)
(1.07732 -0.708064 0)
(1.12881 -0.352298 5.2528e-22)
(1.10567 0.538986 0)
(1.07749 0.387599 1.3204e-22)
(1.04741 -0.193767 -2.82212e-22)
(1.0033 -0.176729 4.45776e-22)
(0.995933 0.0525209 -4.44127e-23)
(0.987467 0.0529179 7.67774e-23)
(0.979348 -0.00558727 4.03662e-24)
(0.977002 -0.00669347 1.71982e-23)
(0.974614 0.00298539 -8.28201e-24)
(0.973105 0.00315338 -7.3743e-25)
(0.971432 0.00269885 6.92245e-25)
(0.536684 0.246993 3.78849e-20)
(0.776158 -0.0465712 -7.54725e-20)
(0.98386 -0.430118 5.11733e-21)
(1.05114 -0.672802 3.1341e-20)
(0.954 -0.711717 2.65835e-22)
(0.865466 -0.636159 -1.73304e-22)
(0.763007 -0.526169 1.35724e-22)
(0.668737 -0.566502 -2.19295e-22)
(0.572671 -0.368737 0)
(0.697328 0.0100502 5.65084e-21)
(0.820837 0.235503 -5.39019e-21)
(0.861928 0.533828 -1.97175e-22)
(0.782061 0.571971 0)
(0.734027 0.541254 -4.25895e-21)
(0.87674 0.293591 3.93803e-21)
(0.956232 -0.0573803 -2.43887e-21)
(1.08869 -0.268739 2.32698e-21)
(1.05719 -0.598124 2.43807e-21)
(1.06627 -0.493799 -2.06446e-21)
(1.03812 -0.292537 0)
(1.00739 0.000411407 0)
(1.07792 0.565803 1.88774e-21)
(1.05208 0.469344 -1.80213e-21)
(1.05844 0.213727 -1.45031e-21)
(1.20554 -0.0812175 -3.17559e-22)
(1.07447 -0.68924 1.58025e-21)
(1.09006 -0.36425 3.55944e-23)
(1.0877 0.536216 -1.10233e-21)
(1.08244 0.394944 1.26284e-21)
(1.05658 -0.179307 -1.10156e-21)
(1.00224 -0.173955 6.02224e-23)
(0.991792 0.0528993 -1.43526e-22)
(0.986469 0.0541286 5.55206e-23)
(0.980742 -0.00455325 -5.30849e-23)
(0.977699 -0.00635104 -1.11655e-23)
(0.975547 0.0032267 -5.98378e-24)
(0.973794 0.0033251 1.75236e-23)
(0.972885 0.00277253 2.66814e-24)
(0.741301 0.130306 0)
(0.986295 -0.121294 3.61787e-20)
(1.17604 -0.445982 -3.55621e-20)
(1.18658 -0.629611 0)
(1.06027 -0.655152 -2.73218e-22)
(0.928674 -0.594398 1.78061e-22)
(0.827685 -0.485365 0)
(0.752501 -0.525475 1.46359e-23)
(0.653832 -0.411781 -1.61615e-22)
(0.752647 -0.07341 0)
(0.842722 0.172704 -6.20253e-21)
(0.876275 0.493811 6.11702e-21)
(0.741773 0.577125 -3.37961e-22)
(0.684288 0.524705 -4.43969e-21)
(0.863141 0.270657 4.23283e-21)
(0.969808 -0.0723322 2.94369e-22)
(1.10892 -0.272371 0)
(1.06696 -0.584389 -2.8086e-22)
(1.06004 -0.500284 4.37576e-21)
(1.04764 -0.297887 8.74482e-22)
(0.973817 -0.0240747 4.41641e-22)
(1.05483 0.536744 -4.40271e-21)
(1.02835 0.465829 -2.22311e-21)
(1.03995 0.210238 2.68049e-21)
(1.20562 -0.0732249 -3.409e-22)
(1.0713 -0.666994 0)
(1.0463 -0.377764 -5.73687e-22)
(1.05999 0.518426 1.11691e-21)
(1.07797 0.395045 -1.18339e-21)
(1.06001 -0.165064 1.02315e-21)
(0.998088 -0.17122 -1.83907e-22)
(0.984828 0.0519461 0)
(0.982399 0.0547614 -5.42866e-23)
(0.979208 -0.00356103 9.76229e-23)
(0.975593 -0.00602577 3.33796e-23)
(0.973718 0.00342907 3.31998e-23)
(0.97174 0.00346701 -1.75359e-23)
(0.971578 0.00280614 -3.98426e-26)
(0.961411 0.0309302 4.28734e-22)
(1.18948 -0.192105 1.03483e-21)
(1.32726 -0.441927 0)
(1.26363 -0.563073 0)
(1.12746 -0.575135 0)
(0.980505 -0.543009 0)
(0.89377 -0.449048 7.47467e-21)
(0.814431 -0.47829 -1.34149e-20)
(0.71062 -0.454159 6.31207e-21)
(0.83033 -0.166853 0)
(0.879926 0.121998 -6.26597e-21)
(0.840815 0.536733 6.15746e-21)
(0.709968 0.640166 5.66245e-21)
(0.682396 0.521135 -4.75875e-21)
(0.872275 0.242709 4.8347e-21)
(0.990084 -0.0851596 -4.90922e-21)
(1.1236 -0.264217 -2.80618e-22)
(1.07887 -0.55952 -4.27661e-21)
(1.05035 -0.506814 4.07511e-21)
(1.04744 -0.303265 5.78598e-22)
(0.934081 -0.0460218 7.41454e-22)
(1.02436 0.519866 3.05047e-21)
(1.00892 0.473105 -3.53744e-21)
(1.02368 0.21155 -5.60333e-22)
(1.19689 -0.0593219 -2.6387e-22)
(1.06516 -0.638704 -3.2617e-22)
(0.995785 -0.394128 0)
(1.03056 0.503416 0)
(1.07063 0.401516 0)
(1.05952 -0.145781 0)
(0.991736 -0.166478 4.99073e-22)
(0.975802 0.0507612 -2.98046e-22)
(0.975821 0.0553078 1.06396e-22)
(0.975128 -0.00242412 -2.96213e-22)
(0.971041 -0.00562163 3.28939e-23)
(0.969413 0.00363535 6.50892e-24)
(0.967233 0.00359697 -2.20595e-23)
(0.96775 0.00280836 -6.69648e-24)
(1.22645 -0.047788 -4.5121e-22)
(1.3714 -0.216783 5.71373e-20)
(1.40733 -0.38191 -5.48827e-20)
(1.28837 -0.469658 -3.9086e-20)
(1.15318 -0.496248 3.7223e-20)
(1.02304 -0.497332 2.06519e-20)
(0.932206 -0.418637 -1.92303e-20)
(0.880675 -0.41846 2.07498e-22)
(0.731003 -0.478475 -1.80709e-22)
(0.845751 -0.251687 0)
(0.911482 0.052648 -2.03368e-22)
(0.860894 0.475047 1.34061e-20)
(0.709119 0.640095 -1.27641e-20)
(0.67573 0.532183 -3.16369e-22)
(0.876033 0.242992 0)
(1.00917 -0.0836817 -5.13372e-21)
(1.13521 -0.250842 9.26697e-21)
(1.08952 -0.532221 -3.92985e-21)
(1.04038 -0.513027 0)
(1.03705 -0.31015 5.03794e-21)
(0.900618 -0.074725 -2.70613e-22)
(0.982201 0.472226 -5.57965e-21)
(0.973707 0.468423 -2.29961e-21)
(1.00294 0.213826 2.20523e-21)
(1.18117 -0.0435269 -2.25249e-21)
(1.05468 -0.606849 -1.62197e-21)
(0.94643 -0.409506 4.3066e-21)
(0.991874 0.468611 -3.09221e-21)
(1.05233 0.40047 2.94049e-21)
(1.05344 -0.129049 -4.10125e-22)
(0.983624 -0.162207 3.89959e-22)
(0.964981 0.0482657 0)
(0.966982 0.0552686 1.0481e-22)
(0.968821 -0.00139068 -1.99275e-23)
(0.964452 -0.00526255 0)
(0.963006 0.00379561 -3.35101e-23)
(0.960675 0.00369479 1.4445e-23)
(0.961761 0.00277722 -2.47524e-24)
(1.39371 -0.0733635 0)
(1.43104 -0.183341 0)
(1.38793 -0.298407 -1.70319e-22)
(1.28171 -0.374413 0)
(1.16515 -0.419495 0)
(1.06498 -0.450726 2.11882e-20)
(0.953291 -0.401921 -2.01653e-20)
(0.934433 -0.362871 1.2984e-20)
(0.783919 -0.460821 -1.23691e-20)
(0.795159 -0.361317 0)
(0.91618 -0.0310796 -2.42052e-22)
(0.858436 0.491129 2.50682e-22)
(0.695641 0.690227 -1.1945e-20)
(0.712384 0.524081 1.28803e-22)
(0.905097 0.214939 1.04981e-20)
(1.03136 -0.0988242 1.67066e-22)
(1.14543 -0.238667 -1.37504e-22)
(1.09533 -0.498761 7.81322e-21)
(1.0297 -0.513511 -7.66185e-21)
(1.01582 -0.318403 0)
(0.860111 -0.0959304 0)
(0.938511 0.452345 -3.26892e-22)
(0.947734 0.472599 0)
(0.989721 0.214419 1.97803e-21)
(1.16788 -0.025422 3.22732e-22)
(1.03956 -0.567374 -1.78892e-21)
(0.897996 -0.428641 -6.28417e-21)
(0.957451 0.442854 4.1918e-21)
(1.03639 0.404458 -1.61468e-22)
(1.04559 -0.107468 0)
(0.975446 -0.156226 -3.11213e-22)
(0.953663 0.0462937 2.95092e-22)
(0.956846 0.0553458 6.16767e-23)
(0.96094 -0.000379473 2.97123e-23)
(0.956402 -0.00482213 -4.10999e-23)
(0.955003 0.00399913 1.22388e-23)
(0.952576 0.00380386 0)
(0.954067 0.00273043 5.1994e-24)
(1.36478 -0.0548837 4.51921e-20)
(1.35958 -0.114805 4.49422e-20)
(1.32155 -0.20946 -9.57229e-22)
(1.26567 -0.290931 -7.55543e-20)
(1.18287 -0.352142 3.42148e-20)
(1.1005 -0.403031 -1.96745e-22)
(0.986553 -0.391566 0)
(0.958885 -0.339049 -1.16959e-22)
(0.870749 -0.406382 -9.27319e-23)
(0.74695 -0.402969 0)
(0.822134 -0.174887 -1.76027e-20)
(0.805006 0.360986 1.66406e-20)
(0.697294 0.666426 1.98719e-22)
(0.690959 0.573939 1.1438e-20)
(0.894583 0.267552 -1.08726e-20)
(1.04305 -0.0690455 1.64758e-22)
(1.16024 -0.209631 1.46037e-22)
(1.10199 -0.458202 0)
(1.02139 -0.509507 8.73772e-21)
(0.989418 -0.319066 -8.27621e-21)
(0.825359 -0.136289 -6.33967e-21)
(0.881491 0.386497 2.59026e-21)
(0.902476 0.464458 3.54578e-21)
(0.966211 0.226435 -1.71746e-21)
(1.16079 0.00426707 1.00173e-22)
(1.0237 -0.521893 5.08178e-21)
(0.863021 -0.447158 -2.55884e-21)
(0.915342 0.394355 3.45189e-21)
(1.00778 0.402931 -2.56726e-21)
(1.03272 -0.0864677 0)
(0.96681 -0.149723 0)
(0.941724 0.0426706 0)
(0.945462 0.0546923 3.958e-23)
(0.951861 0.000578145 -5.85677e-23)
(0.947414 -0.0044854 4.52149e-23)
(0.945925 0.00408136 -2.96471e-23)
(0.943478 0.00382965 -1.22805e-23)
(0.94517 0.00264 0)
(1.29667 -0.0356587 0)
(1.30803 -0.0801748 0)
(1.29193 -0.152692 0)
(1.24945 -0.211459 0)
(1.19059 -0.249561 0)
(1.12993 -0.298869 0)
(1.0292 -0.322527 0)
(0.986999 -0.271687 0)
(0.958454 -0.327379 0)
(0.757906 -0.40824 0)
(0.693052 -0.245372 0)
(0.752599 0.316075 0)
(0.668964 0.678474 0)
(0.733741 0.536704 0)
(0.980189 0.216806 0)
(1.07545 -0.0901769 0)
(1.17712 -0.175545 0)
(1.1093 -0.403474 0)
(1.01543 -0.51014 0)
(0.946418 -0.34239 0)
(0.802253 -0.141739 0)
(0.83412 0.367984 0)
(0.847253 0.461304 0)
(0.955319 0.209509 0)
(1.1788 0.0218048 0)
(1.00902 -0.493398 0)
(0.830774 -0.457302 0)
(0.879585 0.359477 0)
(0.984022 0.406801 0)
(1.02071 -0.0743391 0)
(0.956483 -0.142264 0)
(0.928516 0.0419627 0)
(0.932052 0.0550322 0)
(0.940155 0.00145169 0)
(0.935693 -0.00377455 0)
(0.933956 0.00449479 0)
(0.931597 0.00403221 0)
(0.93335 0.0025891 0)
(1.24061 -0.034061 0)
(1.2536 -0.0904827 0)
(1.23511 -0.152856 0)
(1.18982 -0.191977 0)
(1.13805 -0.261107 0)
(1.0734 -0.285322 0)
(0.99446 -0.280936 0)
(0.907441 -0.299691 0)
(0.881225 -0.312013 0)
(0.764471 -0.275185 0)
(0.598438 -0.152045 0)
(0.600503 0.37484 0)
(0.589638 0.675424 0)
(0.834697 0.427874 0)
(1.07548 0.120367 0)
(1.13544 -0.13789 0)
(1.18492 -0.22399 0)
(1.0799 -0.405029 0)
(0.969379 -0.443454 0)
(0.859434 -0.264446 0)
(0.721831 -0.087708 0)
(0.759498 0.386357 0)
(0.782481 0.431371 0)
(0.953265 0.144033 0)
(1.16976 -0.0185417 0)
(0.977687 -0.443098 0)
(0.768871 -0.405493 0)
(0.835884 0.361903 0)
(0.946387 0.375671 0)
(1.00545 -0.0761754 0)
(0.938356 -0.126666 0)
(0.907421 0.0473882 0)
(0.913332 0.05294 0)
(0.924758 0.00048182 0)
(0.920447 -0.00333483 0)
(0.918317 0.00478374 0)
(0.916389 0.00401214 0)
(0.918102 0.00240482 0)
(1.19662 -0.0345191 0)
(1.21199 -0.0689676 0)
(1.19013 -0.118126 0)
(1.16224 -0.150376 0)
(1.1293 -0.174888 0)
(1.06062 -0.205456 0)
(1.02258 -0.19982 0)
(0.966752 -0.181289 0)
(0.880087 -0.22531 0)
(0.772062 -0.190991 0)
(0.630644 -0.0999376 0)
(0.552083 0.339737 0)
(0.687681 0.556087 0)
(1.0083 0.285257 0)
(1.17354 0.0439656 0)
(1.17085 -0.146656 0)
(1.16853 -0.16566 0)
(1.0948 -0.315675 0)
(0.939047 -0.393123 0)
(0.767301 -0.231593 0)
(0.611834 -0.0748509 0)
(0.660321 0.365128 0)
(0.75369 0.369921 0)
(0.957552 0.0885086 0)
(1.16063 -0.00159852 0)
(0.987335 -0.379175 0)
(0.701512 -0.387051 0)
(0.762061 0.328308 0)
(0.912588 0.34057 0)
(0.99857 -0.0707313 0)
(0.91977 -0.113987 0)
(0.887273 0.0471384 0)
(0.89767 0.0498907 0)
(0.910249 0.000425208 0)
(0.905014 -0.00248093 0)
(0.90265 0.00515478 0)
(0.901355 0.00406851 0)
(0.902653 0.00229779 0)
(1.15958 -0.0264837 0)
(1.16937 -0.0610475 0)
(1.15471 -0.0963514 0)
(1.12675 -0.120766 0)
(1.09246 -0.153988 0)
(1.04743 -0.171664 0)
(0.994063 -0.17932 0)
(0.955286 -0.167609 0)
(0.90603 -0.184615 0)
(0.814199 -0.107982 0)
(0.737372 -0.0114862 0)
(0.681272 0.290956 0)
(0.895587 0.372748 0)
(1.12538 0.145764 0)
(1.2122 0.0211953 0)
(1.18218 -0.123849 0)
(1.11158 -0.176458 0)
(1.06239 -0.292277 0)
(0.883188 -0.28773 0)
(0.69384 -0.126516 0)
(0.536874 -0.0270286 0)
(0.569944 0.332254 0)
(0.775295 0.284338 0)
(0.961126 0.00639845 0)
(1.13061 -0.0287454 0)
(0.994072 -0.296589 0)
(0.639283 -0.309791 0)
(0.666335 0.297643 0)
(0.902552 0.285445 0)
(1.00154 -0.0724709 0)
(0.896065 -0.09392 0)
(0.861846 0.0504649 0)
(0.883749 0.0460342 0)
(0.897874 -0.000640261 0)
(0.891067 -0.00164311 0)
(0.889027 0.00548316 0)
(0.888839 0.0040415 0)
(0.889803 0.00218837 0)
(1.12574 -0.0242165 0)
(1.13643 -0.0479213 0)
(1.1189 -0.0759997 0)
(1.10474 -0.0943803 0)
(1.07362 -0.114394 0)
(1.04287 -0.123913 0)
(1.00494 -0.122607 0)
(0.968386 -0.106969 0)
(0.932797 -0.11597 0)
(0.852244 -0.0436241 0)
(0.833494 0.00687394 0)
(0.833169 0.196986 0)
(1.02834 0.242985 0)
(1.14425 0.088653 0)
(1.17204 0.00077926 0)
(1.15696 -0.100583 0)
(1.08392 -0.106376 0)
(1.07549 -0.206062 0)
(0.88697 -0.200297 0)
(0.735875 -0.0487379 0)
(0.617273 -0.00074839 0)
(0.608268 0.25055 0)
(0.871775 0.180249 0)
(0.975448 -0.0440778 0)
(1.09931 -0.02608 0)
(1.03129 -0.216108 0)
(0.627315 -0.24404 0)
(0.617723 0.245506 0)
(0.931614 0.220308 0)
(1.01689 -0.0624691 0)
(0.878222 -0.0687546 0)
(0.845328 0.0506818 0)
(0.885226 0.0395127 0)
(0.897841 -0.00122774 0)
(0.887235 -0.000295273 0)
(0.885261 0.00563483 0)
(0.886293 0.00389311 0)
(0.886434 0.00212105 0)
(1.09878 -0.018827 0)
(1.10919 -0.0375732 0)
(1.09439 -0.0564028 0)
(1.08454 -0.0698707 0)
(1.0591 -0.0851241 0)
(1.03524 -0.0910367 0)
(1.00491 -0.0923461 0)
(0.977705 -0.0813469 0)
(0.954771 -0.0801117 0)
(0.9037 -0.0203848 0)
(0.915191 0.00752365 0)
(0.912783 0.126275 0)
(1.04999 0.139156 0)
(1.1113 0.0482701 0)
(1.12852 0.0187655 0)
(1.11784 -0.0714737 0)
(1.03631 -0.108524 0)
(1.04895 -0.175793 0)
(0.889931 -0.118159 0)
(0.817858 0.0211274 0)
(0.779366 0.0409261 0)
(0.763181 0.191291 0)
(1.00589 0.109591 0)
(1.01266 -0.0812431 0)
(1.0459 -0.0528867 0)
(1.0532 -0.126615 0)
(0.682211 -0.137405 0)
(0.643117 0.177332 0)
(0.971905 0.13536 0)
(1.02899 -0.0520701 0)
(0.877441 -0.0363408 0)
(0.855378 0.0481258 0)
(0.909612 0.0298578 0)
(0.915992 -0.00126037 0)
(0.901914 0.0017771 0)
(0.899746 0.00570031 0)
(0.901851 0.00372881 0)
(0.900435 0.0021944 0)
(1.07886 -0.0138511 0)
(1.0867 -0.0277218 0)
(1.07412 -0.0402473 0)
(1.06829 -0.0514149 0)
(1.048 -0.0600475 0)
(1.03162 -0.0648809 0)
(1.0109 -0.0635746 0)
(0.990476 -0.0528614 0)
(0.977418 -0.050058 0)
(0.945817 -0.00543068 0)
(0.961076 0.00497945 0)
(0.955271 0.071684 0)
(1.0471 0.0814081 0)
(1.0679 0.0316866 0)
(1.08205 0.00411619 0)
(1.10023 -0.0513264 0)
(1.02959 -0.0581323 0)
(1.03053 -0.111453 0)
(0.903384 -0.0658693 0)
(0.88893 0.0314137 0)
(0.914627 0.039559 0)
(0.905207 0.120539 0)
(1.08694 0.0575542 0)
(1.05565 -0.057033 0)
(1.00148 -0.0445267 0)
(1.0527 -0.0714351 0)
(0.812528 -0.0541253 0)
(0.757222 0.114519 0)
(1.01251 0.068744 0)
(1.04106 -0.0310053 0)
(0.910975 -0.00612001 0)
(0.901626 0.0396115 0)
(0.954261 0.0193174 0)
(0.952367 0.000571394 0)
(0.938179 0.0044831 0)
(0.935127 0.00566738 0)
(0.937303 0.00364534 0)
(0.933615 0.00253677 0)
(1.06286 -0.00890103 0)
(1.06813 -0.0195182 0)
(1.05981 -0.0269155 0)
(1.05571 -0.0357327 0)
(1.04074 -0.0402133 0)
(1.03025 -0.0439408 0)
(1.01465 -0.042233 0)
(1.0021 -0.035265 0)
(0.992671 -0.0317642 0)
(0.975047 -0.00383231 0)
(0.989602 0.000740344 0)
(0.981114 0.041905 0)
(1.0365 0.038566 0)
(1.04763 0.0187265 0)
(1.0577 0.00409826 0)
(1.0639 -0.0367483 0)
(1.01793 -0.0457066 0)
(1.0208 -0.0809521 0)
(0.937626 -0.0341222 0)
(0.942748 0.018491 0)
(0.977906 0.0329984 0)
(0.977878 0.0827261 0)
(1.08072 0.0269869 0)
(1.04951 -0.0367641 0)
(0.995866 -0.0440316 0)
(1.02634 -0.0471689 0)
(0.909838 0.00872597 0)
(0.890707 0.0832269 0)
(1.03698 0.0219873 0)
(1.03371 -0.0154196 0)
(0.952634 0.0191279 0)
(0.959551 0.0335006 0)
(0.996568 0.0115442 0)
(0.988056 0.00322739 0)
(0.978469 0.00733689 0)
(0.975904 0.0060405 0)
(0.977456 0.0040515 0)
(0.972759 0.00328181 0)
(1.05106 -0.00487458 0)
(1.05437 -0.0123297 0)
(1.04899 -0.0168004 0)
(1.04613 -0.0235703 0)
(1.03554 -0.0258006 0)
(1.02899 -0.0288353 0)
(1.01788 -0.0274673 0)
(1.01076 -0.0226708 0)
(1.00399 -0.0204926 0)
(0.995904 -0.00256386 0)
(1.00315 -0.00179801 0)
(0.999093 0.0218526 0)
(1.03017 0.0173956 0)
(1.03121 0.0100979 0)
(1.04195 -0.00174084 0)
(1.04401 -0.025643 0)
(1.01945 -0.0247528 0)
(1.01258 -0.0476753 0)
(0.965981 -0.0157068 0)
(0.975052 0.00954965 0)
(0.990595 0.0228454 0)
(1.00322 0.0508933 0)
(1.06029 0.012154 0)
(1.03751 -0.0125849 0)
(1.00656 -0.0239107 0)
(1.00211 -0.0299237 0)
(0.955856 0.0197585 0)
(0.977706 0.051561 0)
(1.0414 0.00893235 0)
(1.01614 0.0032359 0)
(0.985174 0.0274635 0)
(1.00485 0.0240008 0)
(1.02263 0.00781356 0)
(1.01133 0.00645028 0)
(1.00787 0.00890239 0)
(1.0068 0.0060553 0)
(1.0074 0.00447431 0)
(1.00331 0.00403177 0)
(1.04222 -0.00147704 0)
(1.04404 -0.00674053 0)
(1.0409 -0.00956262 0)
(1.03894 -0.014394 0)
(1.03183 -0.0157281 0)
(1.02794 -0.0179025 0)
(1.02017 -0.0171598 0)
(1.0165 -0.0142449 0)
(1.01143 -0.0131023 0)
(1.00771 -0.00269192 0)
(1.01137 -0.00348926 0)
(1.00885 0.0105756 0)
(1.02527 0.00525817 0)
(1.02431 0.00401349 0)
(1.03255 -0.0025297 0)
(1.02868 -0.0173212 0)
(1.01737 -0.0162953 0)
(1.00988 -0.0309699 0)
(0.985318 -0.00795946 0)
(0.993376 0.00249685 0)
(0.997206 0.0147396 0)
(1.01163 0.0328946 0)
(1.03878 0.00498116 0)
(1.02412 -0.00449693 0)
(1.01445 -0.0166375 0)
(1.00027 -0.0195238 0)
(0.982256 0.0223721 0)
(1.00722 0.0339967 0)
(1.0289 0.00514817 0)
(1.00933 0.00995022 0)
(1.00789 0.0258636 0)
(1.02494 0.0184013 0)
(1.02946 0.00798633 0)
(1.0215 0.00826715 0)
(1.02264 0.00892556 0)
(1.02231 0.00609618 0)
(1.02206 0.00499263 0)
(1.01946 0.00461092 0)
(1.03527 0.000961792 0)
(1.03651 -0.00247279 0)
(1.03479 -0.00451628 0)
(1.03355 -0.00769006 0)
(1.02902 -0.00886133 0)
(1.02654 -0.0102724 0)
(1.02149 -0.0103328 0)
(1.0194 -0.00856563 0)
(1.01599 -0.00846051 0)
(1.01428 -0.00255334 0)
(1.01544 -0.00355442 0)
(1.01407 0.0037227 0)
(1.02233 0.00064598 0)
(1.02004 0.000279355 0)
(1.02555 -0.00348408 0)
(1.0211 -0.0115655 0)
(1.01701 -0.00960033 0)
(1.01024 -0.0175056 0)
(0.997654 -0.00347468 0)
(1.00328 0.00141913 0)
(1.00121 0.00929555 0)
(1.01436 0.0191978 0)
(1.02715 0.0032181 0)
(1.01897 0.00102294 0)
(1.0168 -0.0063796 0)
(1.00102 -0.00835626 0)
(0.995316 0.0169335 0)
(1.01557 0.0211535 0)
(1.02113 0.00820062 0)
(1.0096 0.0142109 0)
(1.01636 0.0214816 0)
(1.0279 0.0150067 0)
(1.02872 0.00903739 0)
(1.02494 0.00904948 0)
(1.02713 0.00857267 0)
(1.02694 0.00629274 0)
(1.02651 0.00545186 0)
(1.02524 0.00501786 0)
(1.02995 0.00266921 0)
(1.0309 0.000454479 0)
(1.03003 -0.00109806 0)
(1.02926 -0.00316585 0)
(1.02652 -0.00426533 0)
(1.02487 -0.00524361 0)
(1.02181 -0.00568658 0)
(1.02044 -0.00486577 0)
(1.01835 -0.00511591 0)
(1.01717 -0.00220912 0)
(1.01752 -0.00300229 0)
(1.01638 0.000591879 0)
(1.02012 -0.00127954 0)
(1.01824 -0.00130388 0)
(1.02129 -0.00302981 0)
(1.01747 -0.0070959 0)
(1.01587 -0.00579793 0)
(1.01118 -0.00996657 0)
(1.00457 -0.00172141 0)
(1.00832 0.000394048 0)
(1.00588 0.00552162 0)
(1.01444 0.0114756 0)
(1.01953 0.00236802 0)
(1.01555 0.00199054 0)
(1.01589 -0.00262116 0)
(1.00561 -0.00286912 0)
(1.00447 0.01313 0)
(1.01564 0.0149191 0)
(1.01648 0.00816819 0)
(1.01251 0.0127213 0)
(1.01926 0.016963 0)
(1.0261 0.0131803 0)
(1.02682 0.00925214 0)
(1.02576 0.00849459 0)
(1.0276 0.00773226 0)
(1.0275 0.00617517 0)
(1.02723 0.00547059 0)
(1.02668 0.00502651 0)
(1.02578 0.00373198 0)
(1.02656 0.00229828 0)
(1.02616 0.00109675 0)
(1.02575 -0.000275869 0)
(1.02415 -0.00122176 0)
(1.02307 -0.00198957 0)
(1.02124 -0.00253031 0)
(1.02028 -0.00236509 0)
(1.01903 -0.00271098 0)
(1.01817 -0.00153353 0)
(1.01807 -0.00203 0)
(1.0171 -0.000586537 0)
(1.01873 -0.00151743 0)
(1.01714 -0.0015295 0)
(1.01858 -0.00246809 0)
(1.01578 -0.00426972 0)
(1.01513 -0.00348692 0)
(1.01241 -0.00520058 0)
(1.0088 -0.000690205 0)
(1.011 0.000682196 0)
(1.00889 0.0035412 0)
(1.01406 0.00679687 0)
(1.01624 0.00261678 0)
(1.01454 0.00314453 0)
(1.01506 0.00114857 0)
(1.00858 0.00160078 0)
(1.00884 0.00993105 0)
(1.01554 0.0111144 0)
(1.01589 0.00880877 0)
(1.01459 0.0122059 0)
(1.01918 0.0141697 0)
(1.02392 0.0119107 0)
(1.02533 0.00947639 0)
(1.0255 0.00841615 0)
(1.0268 0.00751645 0)
(1.02695 0.00633302 0)
(1.02687 0.00571437 0)
(1.02673 0.00523954 0)
(1.0224 0.00429655 0)
(1.02305 0.00331576 0)
(1.02294 0.00244022 0)
(1.02279 0.00144853 0)
(1.02186 0.00073012 0)
(1.02116 2.64993e-05 0)
(1.02007 -0.000424604 0)
(1.01943 -0.000665622 0)
(1.01869 -0.000957309 0)
(1.01803 -0.000692149 0)
(1.01781 -0.00104972 0)
(1.017 -0.000538226 0)
(1.01759 -0.00113909 0)
(1.01639 -0.0010905 0)
(1.01692 -0.00168454 0)
(1.01512 -0.00227554 0)
(1.01465 -0.00187792 0)
(1.01316 -0.00242113 0)
(1.01108 -0.000120601 0)
(1.01227 0.000809293 0)
(1.011 0.00243302 0)
(1.01367 0.00438873 0)
(1.01442 0.00261181 0)
(1.0138 0.00312315 0)
(1.01419 0.0023989 0)
(1.01114 0.00308997 0)
(1.01177 0.0078987 0)
(1.01507 0.00903498 0)
(1.01544 0.00789034 0)
(1.01585 0.0100725 0)
(1.01899 0.0114782 0)
(1.0223 0.010407 0)
(1.02385 0.0088808 0)
(1.02475 0.00772566 0)
(1.02577 0.00683052 0)
(1.02621 0.00596394 0)
(1.02624 0.00544477 0)
(1.02641 0.00503923 0)
(1.01964 0.00447713 0)
(1.02017 0.00378472 0)
(1.0202 0.00317291 0)
(1.0202 0.0024103 0)
(1.01969 0.00190785 0)
(1.01929 0.00125274 0)
(1.01862 0.000946256 0)
(1.01823 0.000500153 0)
(1.01777 0.000307014 0)
(1.01732 0.000113247 0)
(1.01706 -0.000103891 0)
(1.01646 -8.06437e-05 0)
(1.0166 -0.000458716 0)