/*--------------------------------*- C++ -*----------------------------------*\
| =========                 |                                                 |
| \\      /  F ield         | OpenFOAM: The Open Source CFD Toolbox           |
|  \\    /   O peration     | Version:  2312                                  |
|   \\  /    A nd           | Website:  www.openfoam.com                      |
|    \\/     M anipulation  |                                                 |
\*---------------------------------------------------------------------------*/
FoamFile
{
    version     2.0;
    format      ascii;
    arch        "LSB;label=32;scalar=64";
    class       volScalarField;
    location    "31.5";
    object      p;
}
// * * * * * * * * * * * * * * * * * * * * * * * * * * * * * * * * * * * * * //

dimensions      [0 2 -2 0 0 0 0];

internalField   nonuniform List<scalar> 
940
(
-0.311323
-0.279245
-0.274412
-0.268103
-0.252775
-0.24478
-0.329713
-0.302863
-0.263417
-0.234717
-0.213543
-0.191626
-0.313457
-0.278378
-0.237297
-0.192344
-0.166228
-0.141418
-0.253899
-0.266919
-0.291916
-0.294513
-0.31738
-0.30081
-0.291199
-0.282371
-0.322268
-0.291861
-0.349057
-0.314086
-0.295792
-0.273722
-0.301886
-0.291294
-0.298018
-0.309703
-0.289885
-0.281002
-0.264713
-0.230123
-0.183399
-0.154429
-0.133414
-0.0981462
-0.0384209
0.00277113
0.0133979
0.0141404
0.00930811
0.00575086
0.00312328
0.00150328
-0.286353
-0.286887
-0.272018
-0.238468
-0.160277
-0.137603
-0.150144
-0.122932
-0.0558935
-0.0106252
0.00218245
0.00624026
0.00541017
0.00363245
0.00267376
0.00113125
-0.294481
-0.284492
-0.27081
-0.243447
-0.185242
-0.149497
-0.155948
-0.131192
-0.0739212
-0.0270667
-0.00675598
0.00197473
0.00358216
0.00317682
0.00240644
0.000907259
-0.253547
-0.263859
-0.25064
-0.230585
-0.185349
-0.148289
-0.143067
-0.119003
-0.0712092
-0.0310118
-0.0105016
-9.8104e-05
0.00260976
0.00301717
0.00218083
0.000934599
-0.197007
-0.210927
-0.199288
-0.181684
-0.159551
-0.135215
-0.123777
-0.104091
-0.0671469
-0.033762
-0.0146903
-0.00429683
8.63582e-05
0.00164491
0.00171499
0.00084335
-0.155612
-0.175716
-0.176906
-0.167735
-0.149662
-0.128319
-0.114608
-0.0981522
-0.0688943
-0.0388503
-0.018473
-0.00675739
-0.00151542
0.000745412
0.00116177
0.000591512
-0.115142
-0.12986
-0.132144
-0.125187
-0.115592
-0.105659
-0.0949648
-0.0807737
-0.0587609
-0.035986
-0.0196623
-0.00908027
-0.00297435
0.00028282
0.00115459
0.000762368
-0.0832852
-0.0981045
-0.106569
-0.107946
-0.104028
-0.0958879
-0.0862809
-0.0759336
-0.0614502
-0.0429101
-0.0260094
-0.0142511
-0.00686859
-0.00246723
-0.000531743
4.73364e-05
-0.0532663
-0.0636232
-0.0702478
-0.0719717
-0.070522
-0.0677455
-0.0633917
-0.0563703
-0.0459807
-0.0330754
-0.0209212
-0.0115254
-0.00500248
-0.000853122
0.000761906
0.000700789
-0.0371771
-0.0459924
-0.0530231
-0.0573475
-0.0589912
-0.0583213
-0.0564557
-0.0528589
-0.0474043
-0.0390476
-0.0288631
-0.0191117
-0.0112095
-0.00564296
-0.00239036
-0.000582841
-0.013188
-0.0192301
-0.0248336
-0.0291404
-0.0319307
-0.0333316
-0.0334335
-0.0323098
-0.0293885
-0.0241884
-0.0174371
-0.0105619
-0.00463705
-0.000649804
0.000968494
0.0007495
-0.00728865
-0.0123282
-0.0173416
-0.021996
-0.0260573
-0.0290507
-0.0310578
-0.031897
-0.0313081
-0.0287531
-0.0237135
-0.0171488
-0.0104811
-0.0053681
-0.00229761
-0.000618794
0.00650249
0.00221301
-0.00206547
-0.00618735
-0.0104021
-0.0143852
-0.0172072
-0.0184691
-0.0184941
-0.016474
-0.0119034
-0.00626487
-0.00136177
0.00140657
0.00200489
0.00092429
-0.124081
-0.162828
-0.216528
-0.105223
-0.126557
-0.161123
-0.0824615
-0.0978905
-0.12117
-0.0645656
-0.076432
-0.0921037
-0.0470137
-0.0551108
-0.0659433
-0.0296414
-0.0352067
-0.0421785
-0.0173998
-0.0219338
-0.028353
-0.00104048
-0.00429101
-0.00802336
0.00609817
0.00215588
-0.0023041
0.0186769
0.0146579
0.0106947
0.0381706
0.0338616
0.0286485
-0.00731951
-0.0293388
-0.213396
-0.0214477
-0.0438267
-0.0573898
-0.123735
-0.157799
-0.353556
-0.0876354
-0.113263
-0.139126
-0.194646
-0.236294
-0.350391
0.192068
0.230112
0.276649
0.332899
0.385003
0.415486
0.162386
0.185902
0.215921
0.250883
0.2828
0.272848
0.104037
0.114997
0.125815
0.126737
0.121039
0.0079858
0.0355271
0.024998
0.0457028
0.0346496
0.060102
0.0629961
0.0872942
0.106117
0.13265
0.160756
0.0419407
0.0304169
0.050625
0.0388724
0.0613962
0.0645896
0.0833159
0.100953
0.12437
0.142719
0.0479463
0.03586
0.0541097
0.0436503
0.0651929
0.068113
0.0863217
0.0959573
0.110284
0.104929
0.0529922
0.0413698
0.0565178
0.0466618
0.0642837
0.0657335
0.07597
0.0798833
0.0764124
0.0620629
0.0582008
0.0464501
0.0580745
0.0495611
0.0613475
0.0626559
0.0640312
0.0641879
0.0538523
0.0404626
0.0648138
0.0526337
0.0600364
0.052972
0.0578347
0.0573872
0.0541819
0.0490697
0.037597
0.0236544
0.0730381
0.0609343
0.0625438
0.0569717
0.0548947
0.0528401
0.0464152
0.0372181
0.0252206
0.0125693
0.0833325
0.0719604
0.0658654
0.0605115
0.0532589
0.048387
0.0394749
0.0289077
0.0173705
0.00635562
0.0975264
0.0858667
0.0729475
0.0660027
0.0554177
0.0472338
0.0378994
0.0280122
0.0178233
0.00852055
0.116222
0.0991639
0.0791066
0.0690241
0.0568673
0.0466921
0.0370429
0.0276066
0.0182954
0.00999873
0.153786
0.123516
0.0987386
0.0825697
0.0681428
0.0565366
0.0466661
0.0377655
0.0293536
0.0219375
0.182232
0.134467
0.10556
0.0875403
0.0718594
0.0596022
0.0497274
0.0413376
0.033716
0.0270351
0.33095
0.180974
0.143026
0.11641
0.0937807
0.0767557
0.0642275
0.0546006
0.0468204
0.0403123
0.0329302
-0.0225577
-0.0776609
0.0176801
-0.031412
-0.071878
0.00587588
-0.0271204
-0.0583975
-0.001945
-0.0244277
-0.0473753
-0.00618582
-0.0221994
-0.036479
-0.00144037
-0.0127201
-0.0223531
0.00168027
-0.0064612
-0.0127039
0.0148457
0.00815853
0.0029783
0.0208375
0.0151795
0.0103064
0.034004
0.0279762
0.0230338
-0.338732
-0.32494
-0.334495
-0.304827
-0.303475
-0.267968
-0.277121
-0.263082
-0.228711
-0.264937
-0.229584
-0.182499
-0.247417
-0.204692
-0.158095
-0.231714
-0.18146
-0.134202
-0.249601
-0.307681
-0.297314
-0.266384
-0.292606
-0.270931
-0.296687
-0.341734
-0.296687
-0.299949
-0.310016
-0.294157
-0.322433
-0.339549
-0.284678
-0.290368
-0.319622
-0.288414
-0.279439
-0.26311
-0.273519
-0.28628
-0.287445
-0.258334
-0.282872
-0.296732
-0.269488
-0.269348
-0.285842
-0.267403
-0.253418
-0.296449
-0.266388
-0.208863
-0.248257
-0.247658
-0.118784
-0.0908276
-0.141404
-0.0625848
0.00331112
-0.0234488
-0.0100618
0.0345544
0.0378615
0.0136051
0.0219069
0.0273231
0.0197009
0.0208391
0.0184519
0.0174736
0.015889
0.0122892
0.0103513
0.00993098
0.00869944
0.0061599
0.00545268
0.00466599
0.00322145
0.0028234
0.00251729
0.00148892
0.00107924
0.000960421
-0.239585
-0.189515
-0.157948
-0.126832
-0.101768
-0.0890882
-0.0760822
-0.0739832
-0.0703331
-0.0714987
-0.250143
-0.204487
-0.176339
-0.139826
-0.1122
-0.0943996
-0.0787853
-0.0744032
-0.0697578
-0.0701332
-0.246404
-0.205146
-0.179625
-0.145605
-0.11826
-0.0976876
-0.0810234
-0.0744185
-0.0689723
-0.0683635
-0.236856
-0.200172
-0.173141
-0.142445
-0.117979
-0.0976805
-0.0816123
-0.0736386
-0.0675647
-0.0662049
-0.227405
-0.187651
-0.1609
-0.132715
-0.111949
-0.093802
-0.0797037
-0.0718485
-0.0654721
-0.0635082
-0.203872
-0.166148
-0.141911
-0.117607
-0.101253
-0.0863673
-0.0752569
-0.0684477
-0.062378
-0.0599618
-0.127563
-0.112891
-0.105318
-0.0919555
-0.0847977
-0.0749464
-0.0682901
-0.0629967
-0.0579563
-0.0553817
-0.0459917
-0.0467527
-0.0612622
-0.0580494
-0.0637976
-0.0601297
-0.0589785
-0.0558924
-0.0523261
-0.0499451
0.00313342
0.00278546
-0.0293354
-0.0266888
-0.0434914
-0.044093
-0.0482875
-0.0474586
-0.0458552
-0.0438306
0.0148381
0.00589283
-0.00682415
-0.013626
-0.0257306
-0.0303221
-0.0370387
-0.0383033
-0.0386681
-0.0371707
0.013053
0.00697716
3.78687e-05
-0.0066791
-0.0147265
-0.020127
-0.0267279
-0.0294181
-0.0312917
-0.0304566
0.00911245
0.00569622
0.00166009
-0.00286038
-0.00845101
-0.0130059
-0.0182868
-0.0213164
-0.0237571
-0.0236854
0.00670813
0.00429009
0.00176896
-0.00133188
-0.00494372
-0.00843306
-0.0123426
-0.0150268
-0.0173303
-0.0177513
0.0036541
0.00242643
0.0012028
-0.000752561
-0.0027521
-0.00514954
-0.00767353
-0.00987087
-0.0117319
-0.0122427
0.00198468
0.00130767
0.000767517
-0.000386891
-0.00125217
-0.00276082
-0.00402709
-0.00548943
-0.00655597
-0.00713277
0.000781791
0.000518871
0.000405716
-8.68631e-05
-0.000255257
-0.000873659
-0.0011847
-0.00176984
-0.00209646
-0.00235906
-0.12217
-0.110992
-0.0945391
-0.0876218
-0.0781738
-0.0740089
-0.0695731
-0.0710009
-0.0705757
-0.0744232
-0.160896
-0.132569
-0.110444
-0.0991102
-0.0855238
-0.0792183
-0.0724062
-0.0723509
-0.0706824
-0.0737808
-0.205223
-0.157891
-0.128689
-0.109795
-0.0916325
-0.0833039
-0.0740769
-0.0733437
-0.0707201
-0.0728229
0.0514605
-0.0113686
-0.0763016
0.0594068
-0.0193178
-0.0979546
0.0631805
-0.0292781
-0.117384
0.0510762
-0.0782469
-0.177065
0.0383241
-0.103184
-0.216124
-0.112526
-0.316743
-0.37555
0.197693
0.1728
0.117615
0.238579
0.2053
0.14026
0.289138
0.245493
0.16418
0.349473
0.292808
0.182598
0.409206
0.344868
0.19531
0.451944
0.375166
0.14355
0.0287921
0.0218079
0.014657
0.0202731
0.016268
0.012006
0.0390185
0.03159
0.0259621
0.0310181
0.0272786
0.0249218
0.0549519
0.0471975
0.044957
0.0594823
0.0543705
0.0517181
0.0844323
0.0744663
0.0764195
0.104705
0.0917537
0.089704
0.133724
0.121021
0.112034
0.163064
0.146687
0.109405
0.00784339
0.000697227
-0.00801887
-0.0187232
-0.0324098
-0.0495738
-0.0706198
-0.108743
-0.130153
-0.267535
0.00772552
0.00361723
-0.0018863
-0.00928555
-0.0190089
-0.0329783
-0.0472825
-0.0757626
-0.0859816
-0.130931
0.0198002
0.0129401
0.00434524
-0.00599835
-0.0178234
-0.033524
-0.0452993
-0.0713616
-0.0801689
-0.120442
0.0216346
0.0183848
0.0116402
0.00306379
-0.00846721
-0.0254395
-0.039356
-0.0650281
-0.0739815
-0.102175
0.0365491
0.0268758
0.0160212
0.00370642
-0.00954886
-0.0266366
-0.038853
-0.061625
-0.0698453
-0.0907582
0.0491838
0.0356082
0.0250734
0.00773733
-0.00694811
-0.0273556
-0.0401729
-0.0609948
-0.0685011
-0.0844606
0.0584014
0.0406298
0.0260716
0.00587889
-0.0100155
-0.0303424
-0.0424763
-0.0612076
-0.068101
-0.080837
0.0677998
0.0476684
0.0250086
0.00196436
-0.0152053
-0.0341901
-0.0449342
-0.0613219
-0.0677295
-0.078799
0.0678234
0.0422631
0.0177354
-0.0051683
-0.0217741
-0.0386583
-0.0477795
-0.0617495
-0.0677114
-0.0776234
0.0618036
0.0347259
0.00849782
-0.0131102
-0.0285116
-0.043153
-0.0509793
-0.0628056
-0.0682582
-0.0769148
0.042514
0.0162451
-0.00370291
-0.0226066
-0.0358461
-0.0479317
-0.0543887
-0.064061
-0.0688507
-0.0762763
-0.0171039
-0.0367041
-0.0374833
-0.0456862
-0.0498527
-0.0561168
-0.05918
-0.0661504
-0.0694748
-0.0756655
-0.0727125
-0.0787859
-0.0703051
-0.0702895
-0.0663106
-0.0662823
-0.0650072
-0.068881
-0.070217
-0.07501
)
;

boundaryField
{
    outlet
    {
        type            fixedValue;
        value           uniform 0;
    }
    upperWall
    {
        type            symmetryPlane;
    }
    lowerWall
    {
        type            symmetryPlane;
    }
    inlet
    {
        type            zeroGradient;
    }
    cylinder
    {
        type            zeroGradient;
    }
    frontAndBack
    {
        type            empty;
    }
}


// ************************************************************************* //
