/*--------------------------------*- C++ -*----------------------------------*\
| =========                 |                                                 |
| \\      /  F ield         | OpenFOAM: The Open Source CFD Toolbox           |
|  \\    /   O peration     | Version:  2512                                  |
|   \\  /    A nd           | Website:  www.openfoam.com                      |
|    \\/     M anipulation  |                                                 |
\*---------------------------------------------------------------------------*/
FoamFile
{
    version     2.0;
    format      ascii;
    arch        "LSB;label=32;scalar=64";
    class       volVectorField;
    location    "23.1";
    object      U;
}
// * * * * * * * * * * * * * * * * * * * * * * * * * * * * * * * * * * * * * //

dimensions      [0 1 -1 0 0 0 0];

internalField   nonuniform List<vector> 
13248
(
(-0.0128148 0.0106803 3.15769e-20)
(-0.0300626 0.0253982 0)
(-0.0381957 0.0349633 -5.47065e-20)
(-0.0362629 0.0410386 5.06563e-20)
(-0.023753 0.0447501 4.65732e-20)
(-5.07576e-05 0.0469994 0)
(0.0356961 0.0486906 0)
(0.0844491 0.050743 1.08646e-19)
(0.146989 0.0540519 -1.73691e-22)
(0.223494 0.0593841 -9.33398e-20)
(0.313131 0.0672317 8.69383e-20)
(0.413878 0.0777462 -5.3972e-20)
(0.522618 0.0907036 0)
(0.635467 0.105512 -9.55475e-20)
(0.748118 0.121335 1.78826e-19)
(0.856518 0.137068 -4.22468e-20)
(0.956603 0.151804 -7.95999e-20)
(1.0458 0.164056 7.42048e-20)
(1.12112 0.174125 0)
(1.18214 0.178633 0)
(1.22778 0.183018 0)
(1.25907 0.175474 0)
(1.27645 0.177009 2.58225e-20)
(1.2865 0.152286 9.95777e-20)
(-0.0153561 0.0109584 -9.49008e-20)
(-0.0327791 0.0232864 5.98743e-20)
(-0.0374741 0.0293235 -3.30301e-22)
(-0.0285248 0.0321131 -7.65465e-20)
(-0.00497417 0.0335527 -4.65104e-20)
(0.0344128 0.0350718 -4.30737e-20)
(0.0909294 0.0379143 -7.85296e-20)
(0.165327 0.0431546 7.30594e-20)
(0.257114 0.0516077 0)
(0.36407 0.0636547 8.51447e-23)
(0.482188 0.0791348 -7.40737e-23)
(0.606114 0.0973397 5.35532e-20)
(0.72989 0.117119 0)
(0.847715 0.137039 0)
(0.954606 0.15565 6.5852e-20)
(1.04675 0.171556 -1.22779e-19)
(1.12186 0.183801 7.63031e-20)
(1.17909 0.191619 -7.11359e-20)
(1.21898 0.194866 -3.23158e-20)
(1.24369 0.193738 -6.17564e-20)
(1.25537 0.1886 -2.75331e-20)
(1.25856 0.180374 -5.27314e-20)
(1.25493 0.171038 7.3454e-20)
(1.25197 0.158613 2.20258e-20)
(-0.0178032 0.0112524 0)
(-0.0334808 0.0217134 0)
(-0.0309596 0.0254821 2.74967e-20)
(-0.00954706 0.0266005 2.50704e-20)
(0.0319863 0.0277074 -4.63406e-22)
(0.0950536 0.0308022 -4.394e-20)
(0.180285 0.0374107 0)
(0.286385 0.0485189 -3.63763e-20)
(0.409401 0.064386 3.37148e-20)
(0.54288 0.0844229 4.97004e-23)
(0.678863 0.107268 -5.73396e-20)
(0.809244 0.131048 -5.30179e-20)
(0.92699 0.153729 1.54747e-22)
(1.02697 0.173466 -4.54906e-20)
(1.10633 0.188888 1.06466e-19)
(1.16455 0.19916 0)
(1.20314 0.204338 -7.28784e-20)
(1.22524 0.204413 3.48901e-20)
(1.23497 0.201288 3.2282e-20)
(1.23675 0.193992 0)
(1.23459 0.187427 2.77925e-20)
(1.23161 0.176197 -9.858e-20)
(1.23003 0.171233 9.20594e-20)
(1.22936 0.158468 6.23037e-20)
(-0.0193537 0.0109411 -3.27324e-20)
(-0.0302659 0.019483 -3.12546e-20)
(-0.0158778 0.0220608 2.81556e-20)
(0.0241083 0.0232421 0)
(0.0907902 0.0263525 0)
(0.184569 0.0338049 -6.06108e-22)
(0.303314 0.0470527 0)
(0.441119 0.0663378 -1.10141e-19)
(0.588622 0.090571 1.01458e-19)
(0.734828 0.117575 -1.24481e-19)
(0.869396 0.144626 2.85974e-20)
(0.984446 0.169081 0)
(1.07549 0.188881 4.81914e-20)
(1.14153 0.20287 -8.92622e-20)
(1.18464 0.210809 2.11164e-20)
(1.20903 0.213384 5.68293e-20)
(1.22004 0.21159 -7.90282e-22)
(1.22307 0.207072 -6.31975e-20)
(1.22245 0.200635 0)
(1.22135 0.193695 0)
(1.22056 0.186565 -2.43706e-20)
(1.22153 0.178564 2.237e-20)
(1.22077 0.173342 8.43853e-20)
(1.22314 0.162479 -7.87615e-20)
(-0.0193165 0.00974599 -3.40781e-20)
(-0.0214092 0.0159487 -3.16485e-20)
(0.0103002 0.0183209 8.7502e-20)
(0.0753861 0.0215845 -5.26918e-20)
(0.173778 0.029504 4.88131e-20)
(0.302615 0.0444592 8.81122e-20)
(0.453964 0.0669314 -6.13148e-20)
(0.615064 0.0953175 -7.40515e-20)
(0.771274 0.126445 1.05672e-21)
(0.909768 0.156587 9.35935e-20)
(1.02209 0.182488 0)
(1.10503 0.202047 2.57464e-20)
(1.16009 0.214564 0)
(1.19214 0.220563 -4.30966e-20)
(1.20772 0.221424 6.03609e-20)
(1.21333 0.218732 7.28887e-22)
(1.21419 0.21408 -1.63244e-20)
(1.21355 0.208303 3.14117e-20)
(1.21294 0.202261 2.73107e-20)
(1.2123 0.195609 -2.49822e-20)
(1.2116 0.189196 2.43598e-20)
(1.20987 0.181374 -2.236e-20)
(1.20768 0.175599 0)
(1.20609 0.165641 -1.74856e-20)
(-0.0170874 0.00774597 3.40696e-20)
(-0.0051519 0.0113426 3.29855e-20)
(0.0501181 0.0148532 -2.93049e-20)
(0.146848 0.0227956 5.38134e-20)
(0.281569 0.038833 -4.98495e-20)
(0.444646 0.0641841 4.4771e-20)
(0.619567 0.0968672 -2.10899e-20)
(0.787177 0.132516 5.5557e-20)
(0.931499 0.166162 -3.44423e-20)
(1.04341 0.193865 6.12255e-20)
(1.12123 0.213577 -1.40444e-19)
(1.16911 0.225198 5.12495e-20)
(1.19448 0.230036 -4.58784e-20)
(1.2054 0.230054 4.27084e-20)
(1.20857 0.227108 3.79828e-20)
(1.20844 0.222612 3.41891e-20)
(1.2072 0.217255 -9.45905e-20)
(1.20561 0.211471 5.8829e-20)
(1.20363 0.205148 -2.73068e-20)
(1.20141 0.198546 7.29037e-20)
(1.19878 0.191592 -2.33258e-20)
(1.19656 0.184136 -5.9419e-20)
(1.19438 0.178155 5.50474e-20)
(1.19319 0.16887 1.74794e-20)
(-0.0120372 0.00523809 0)
(0.0203013 0.00663156 2.93859e-22)
(0.105915 0.0134329 6.09536e-20)
(0.239699 0.0293671 -5.6141e-20)
(0.411036 0.0567456 -5.02134e-20)
(0.599913 0.0937078 9.21238e-20)
(0.781602 0.134577 -4.22745e-20)
(0.935613 0.172737 5.61342e-20)
(1.05133 0.203287 -9.80774e-22)
(1.1283 0.224158 -3.12775e-20)
(1.17308 0.235841 6.88905e-20)
(1.1952 0.240357 -1.00941e-19)
(1.20371 0.24012 0)
(1.20529 0.237119 -2.00694e-20)
(1.20387 0.232645 -5.4577e-20)
(1.20132 0.227322 1.68586e-20)
(1.19837 0.221474 3.86208e-22)
(1.19532 0.215172 -3.9888e-20)
(1.19244 0.208605 1.31642e-21)
(1.18979 0.201822 4.61416e-20)
(1.18757 0.194902 -2.14049e-20)
(1.18556 0.187965 -8.59083e-21)
(1.18331 0.181444 2.51921e-20)
(1.18204 0.173223 0)
(-0.00342511 0.00265168 0)
(0.0566119 0.00326316 1.6733e-20)
(0.178993 0.0164859 -7.91915e-20)
(0.352073 0.0440249 2.84588e-20)
(0.553594 0.0845638 -2.63607e-20)
(0.752573 0.131342 -2.38433e-20)
(0.921761 0.175532 -4.17804e-20)
(1.04713 0.210633 2.04187e-20)
(1.12837 0.234186 1.77499e-20)
(1.17397 0.247111 0)
(1.19533 0.252063 4.06152e-20)
(1.20258 0.251901 -6.03573e-20)
(1.20277 0.248821 4.47492e-20)
(1.19995 0.244174 2.00782e-20)
(1.19611 0.238655 -1.67911e-20)
(1.19214 0.23263 -1.4526e-20)
(1.18843 0.226259 -1.38809e-20)
(1.18511 0.219685 3.98889e-20)
(1.18209 0.212932 0)
(1.1793 0.206053 2.10158e-20)
(1.17656 0.199033 1.84632e-20)
(1.17383 0.191995 -4.46314e-20)
(1.17127 0.18499 -3.19588e-20)
(1.16883 0.17736 2.92307e-20)
(0.00952751 0.000522169 -1.95921e-20)
(0.104887 0.00296586 -8.0999e-22)
(0.268601 0.0265042 1.61546e-20)
(0.477895 0.0685114 4.46516e-20)
(0.696367 0.121328 1.28603e-20)
(0.887278 0.173335 -2.43693e-20)
(1.02971 0.215312 2.19673e-20)
(1.12141 0.243607 -1.9111e-20)
(1.17201 0.259219 3.3963e-20)
(1.19491 0.265396 1.45612e-20)
(1.20186 0.265593 -4.0667e-20)
(1.20097 0.262422 1.20821e-20)
(1.19688 0.257497 2.08086e-20)
(1.19191 0.251672 -1.01054e-20)
(1.18703 0.245371 0)
(1.18253 0.238777 1.5593e-20)
(1.17843 0.231983 2.67913e-20)
(1.17462 0.225007 5.04127e-21)
(1.17107 0.217894 -2.24721e-20)
(1.16778 0.210676 9.57127e-21)
(1.16479 0.203403 0)
(1.16213 0.196246 -7.76685e-21)
(1.15954 0.188872 -7.63302e-21)
(1.15736 0.181922 0)
(0.0274183 -0.000449745 0)
(0.165116 0.00765456 9.54164e-21)
(0.371195 0.0454926 1.74254e-20)
(0.607543 0.102815 -4.57247e-20)
(0.826484 0.164225 1.4589e-20)
(0.99505 0.21599 0)
(1.10512 0.251792 2.12278e-20)
(1.16605 0.272037 -2.9255e-20)
(1.19339 0.280507 -1.69383e-20)
(1.20137 0.281489 7.6425e-21)
(1.1999 0.278307 -1.22572e-20)
(1.19472 0.273034 2.93743e-20)
(1.18859 0.26676 1.49734e-20)
(1.1826 0.259991 -1.01362e-20)
(1.17708 0.252935 -7.37018e-22)
(1.17203 0.245683 -2.87492e-20)
(1.16744 0.238283 1.31026e-20)
(1.16331 0.230795 -4.18371e-22)
(1.1596 0.223263 0)
(1.1563 0.21573 -9.58084e-21)
(1.1533 0.208248 0)
(1.15041 0.200786 2.24005e-20)
(1.14765 0.193148 -2.68356e-20)
(1.14476 0.186539 1.22985e-20)
(0.0504387 0.000547722 -5.55785e-21)
(0.235733 0.0191598 -2.43899e-20)
(0.480545 0.0744247 2.74583e-20)
(0.730528 0.145281 1.57742e-20)
(0.935358 0.210166 -7.40004e-21)
(1.07431 0.25725 1.21753e-20)
(1.15319 0.284989 -5.83672e-21)
(1.18939 0.297428 9.56431e-21)
(1.20048 0.299945 0)
(1.19922 0.296952 2.13981e-20)
(1.19309 0.291254 -7.67648e-22)
(1.18568 0.28433 -1.71113e-20)
(1.17843 0.276849 7.36297e-21)
(1.17177 0.269088 -8.37632e-21)
(1.16578 0.26117 -3.26316e-21)
(1.16041 0.253165 3.67081e-21)
(1.15563 0.245126 -2.85671e-21)
(1.15134 0.237087 -1.5899e-20)
(1.14749 0.229076 9.67969e-21)
(1.14402 0.221125 2.00607e-21)
(1.14085 0.213253 1.79041e-21)
(1.13794 0.205424 1.60092e-21)
(1.13512 0.197634 0)
(1.13228 0.191054 0)
(0.0783192 0.00439223 5.56458e-21)
(0.313645 0.0389495 -5.12496e-21)
(0.589052 0.113009 -9.20757e-21)
(0.838602 0.193549 0)
(1.01975 0.257011 -3.69094e-21)
(1.12781 0.296619 -3.27353e-21)
(1.17995 0.315801 -5.46525e-21)
(1.19774 0.321213 0)
(1.19812 0.31884 0)
(1.1914 0.312674 0)
(1.18269 0.304865 0)
(1.17408 0.296391 0)
(1.1662 0.287655 -4.60251e-21)
(1.15917 0.27882 2.07746e-21)
(1.15292 0.269961 3.66425e-21)
(1.14737 0.261121 1.72346e-21)
(1.14242 0.25233 4.26898e-21)
(1.13803 0.243622 0)
(1.13418 0.235032 -1.04687e-21)
(1.1308 0.226597 -1.03253e-21)
(1.1278 0.218324 -1.79324e-21)
(1.12498 0.210144 -1.60345e-21)
(1.12223 0.202215 0)
(1.11932 0.195362 1.18794e-21)
(-0.00430682 -0.0209635 3.57215e-21)
(-0.0218639 -0.0452931 -3.44188e-21)
(-0.0520963 -0.0580664 -6.43606e-21)
(-0.0860427 -0.0638678 0)
(-0.120472 -0.0662594 -8.54269e-21)
(-0.154515 -0.0673263 2.66496e-21)
(-0.1879 -0.067925 -5.07686e-21)
(-0.2206 -0.0682343 0)
(-0.252663 -0.0681838 0)
(-0.284126 -0.0676555 0)
(-0.314995 -0.0665416 0)
(-0.345254 -0.0647517 0)
(-0.37487 -0.0622125 1.14081e-22)
(-0.403786 -0.0588686 -3.75473e-21)
(-0.431935 -0.0546874 7.28323e-21)
(-0.459267 -0.0496581 1.0651e-20)
(-0.485749 -0.0437672 3.39673e-21)
(-0.511302 -0.0370205 0)
(-0.535809 -0.0294605 3.25454e-21)
(-0.559146 -0.0211518 -9.09798e-21)
(-0.58121 -0.0121529 -5.82813e-21)
(-0.601999 -0.00248769 -5.59597e-21)
(-0.621634 0.00780117 0)
(-0.640096 0.0184172 0)
(-0.00427319 -0.00580108 -1.07285e-20)
(-0.0213171 -0.0138095 1.7137e-20)
(-0.0505687 -0.0186479 -6.30606e-21)
(-0.0834066 -0.021044 -1.20711e-20)
(-0.116701 -0.0222279 1.68468e-20)
(-0.149579 -0.0229653 -1.07502e-20)
(-0.181748 -0.0234861 1.50434e-20)
(-0.21316 -0.02375 9.56306e-21)
(-0.243844 -0.0236515 0)
(-0.27382 -0.023096 -9.05018e-21)
(-0.303082 -0.0220097 -5.22295e-22)
(-0.331602 -0.0203335 7.84395e-21)
(-0.359335 -0.0180215 1.15949e-20)
(-0.386222 -0.0150421 1.51484e-20)
(-0.412192 -0.0113835 -6.78923e-21)
(-0.437139 -0.00705163 -2.06085e-20)
(-0.460932 -0.00204232 6.77158e-21)
(-0.483477 0.00363017 -2.52941e-20)
(-0.504676 0.00991281 0)
(-0.52435 0.0167231 6.05254e-21)
(-0.542255 0.0239642 5.81933e-21)
(-0.558276 0.0315704 5.58746e-21)
(-0.572751 0.0394953 0)
(-0.586247 0.0474841 0)
(-0.00537514 0.0078822 0)
(-0.0220276 0.0150989 3.43634e-20)
(-0.0487412 0.0180795 -1.27342e-20)
(-0.078436 0.0193125 1.20919e-20)
(-0.108434 0.019604 -3.36071e-20)
(-0.137898 0.01939 0)
(-0.166482 0.0190451 -2.02919e-20)
(-0.194064 0.0188471 9.28399e-21)
(-0.220615 0.0189627 -1.81278e-20)
(-0.246107 0.0194817 8.58865e-21)
(-0.270496 0.020456 5.01346e-20)
(-0.293721 0.0219212 -2.32795e-20)
(-0.315706 0.0239028 -3.85962e-20)
(-0.336363 0.0264165 -1.54532e-20)
(-0.355589 0.0294691 -8.86509e-22)
(-0.373261 0.0330569 5.4045e-20)
(-0.38924 0.037152 -2.55806e-20)
(-0.403394 0.041697 2.75101e-22)
(-0.415604 0.0466308 0)
(-0.4257 0.0518688 -2.2857e-20)
(-0.433365 0.0572875 0)
(-0.438219 0.0627283 -2.20352e-20)
(-0.440524 0.0680695 8.15703e-20)
(-0.442076 0.0732743 1.10648e-21)
(-0.007176 0.0185277 0)
(-0.0235422 0.0387307 1.53648e-22)
(-0.0466129 0.0492833 1.29546e-20)
(-0.0716265 0.0545935 -1.22213e-20)
(-0.0966271 0.0568956 1.09526e-20)
(-0.120883 0.0575958 6.38836e-20)
(-0.144006 0.0576375 -1.99035e-20)
(-0.165796 0.0575835 -1.9064e-20)
(-0.186142 0.0577187 3.62091e-20)
(-0.204963 0.0581681 -5.21957e-20)
(-0.222174 0.0589831 1.59679e-20)
(-0.237685 0.0601865 1.56823e-20)
(-0.251398 0.061788 0)
(-0.263206 0.0637876 1.45211e-20)
(-0.272991 0.0661758 0)
(-0.280626 0.068932 2.63882e-20)
(-0.285973 0.0720174 -5.17782e-20)
(-0.288892 0.0753776 1.09238e-20)
(-0.28926 0.0789441 4.63647e-20)
(-0.286968 0.0826358 2.28302e-20)
(-0.281844 0.0863522 0)
(-0.273406 0.0899218 -6.31913e-20)
(-0.260873 0.0929618 1.95933e-20)
(-0.245991 0.0948932 0)
(-0.00912896 0.0253017 0)
(-0.0253015 0.0553255 -4.19494e-20)
(-0.0442309 0.072824 -1.31832e-20)
(-0.0636947 0.0826149 -2.44269e-20)
(-0.0826087 0.087574 2.26339e-20)
(-0.100447 0.0897188 -2.1318e-20)
(-0.116841 0.0904589 4.07081e-20)
(-0.131535 0.09067 1.98081e-20)
(-0.144353 0.0908231 -5.38808e-20)
(-0.155159 0.0911374 3.4799e-20)
(-0.16384 0.0917015 -4.91853e-20)
(-0.170289 0.0925466 1.09583e-19)
(-0.174407 0.093678 -5.88983e-20)
(-0.176091 0.0950859 2.83599e-20)
(-0.175239 0.0967484 8.25308e-20)
(-0.171745 0.0986298 -2.48954e-20)
(-0.165496 0.10068 -2.34465e-20)
(-0.156393 0.102842 -2.36184e-20)
(-0.144335 0.10504 0)
(-0.129201 0.107203 -4.4922e-20)
(-0.110887 0.109317 -4.42971e-20)
(-0.0896328 0.111156 6.03106e-20)
(-0.0666278 0.112334 7.95562e-20)
(-0.0300924 0.114178 -7.40135e-20)
(-0.0106992 0.0280631 0)
(-0.0267029 0.064135 -5.69495e-20)
(-0.0416249 0.0873647 -3.62064e-22)
(-0.0554352 0.101677 4.89328e-20)
(-0.0678961 0.109814 0)
(-0.0787697 0.113964 0)
(-0.087797 0.115804 0)
(-0.094738 0.116482 -1.94618e-20)
(-0.0993907 0.116696 -6.98418e-22)
(-0.101592 0.116822 3.3901e-20)
(-0.101212 0.117038 -4.97682e-20)
(-0.0981497 0.117419 -6.42388e-22)
(-0.0923191 0.117989 0)
(-0.0836478 0.11874 -2.83445e-20)
(-0.0720728 0.119647 2.7393e-20)
(-0.0575421 0.120669 -7.62054e-20)
(-0.039991 0.121757 9.90622e-20)
(-0.0193653 0.122838 2.52472e-20)
(0.00430503 0.123858 2.45824e-21)
(0.0312136 0.124658 -8.54421e-20)
(0.060856 0.125345 -4.09604e-20)
(0.0953312 0.125285 1.40219e-19)
(0.126765 0.1242 -9.38179e-20)
(0.181214 0.12753 0)
(-0.0115354 0.0273915 3.04612e-20)
(-0.0273082 0.0656191 2.85353e-20)
(-0.0388847 0.0926782 -2.67191e-20)
(-0.0476775 0.11087 -4.96401e-20)
(-0.0540784 0.122243 4.59941e-20)
(-0.0581534 0.128742 -4.3402e-20)
(-0.0598356 0.132044 6.04753e-20)
(-0.0589925 0.133438 -1.94925e-20)
(-0.0554715 0.133818 3.5655e-20)
(-0.0491356 0.133737 0)
(-0.0398772 0.133508 3.2654e-20)
(-0.0276209 0.133293 -5.99592e-20)
(-0.0123195 0.133162 5.87094e-20)
(0.00605339 0.133133 -5.46484e-20)
(0.02751 0.133191 0)
(0.0520445 0.133309 5.02059e-20)
(0.0796129 0.133435 9.66107e-20)
(0.11041 0.13344 -9.06831e-20)
(0.143779 0.133359 -4.32374e-20)
(0.181632 0.132914 -4.39549e-20)
(0.218437 0.132314 1.20569e-19)
(0.267827 0.131477 3.91706e-20)
(0.299589 0.128521 -3.55054e-20)
(0.376035 0.129191 3.47611e-20)
(-0.0115624 0.0243556 -3.04686e-20)
(-0.0270115 0.061286 8.70755e-20)
(-0.036252 0.0897499 -2.69308e-20)
(-0.0412285 0.110359 4.9859e-20)
(-0.0426508 0.124257 -4.6196e-20)
(-0.0408153 0.132888 -2.44104e-22)
(-0.035871 0.137688 1.99806e-20)
(-0.0278659 0.139914 7.58157e-20)
(-0.0167845 0.14054 9.3288e-22)
(-0.00258944 0.140254 -3.33541e-20)
(0.0147518 0.139503 0)
(0.0352552 0.138554 -3.02045e-20)
(0.0589174 0.137557 5.62481e-20)
(0.0857224 0.136576 5.44764e-20)
(0.115693 0.135599 -2.54978e-20)
(0.148853 0.134659 -7.70456e-22)
(0.184837 0.133721 -2.36528e-20)
(0.224795 0.132828 4.36723e-20)
(0.265561 0.131827 4.32395e-20)
(0.315698 0.131006 -4.137e-20)
(0.356162 0.129427 3.82705e-20)
(0.425073 0.128875 -3.65457e-20)
(0.453778 0.12546 0)
(0.55624 0.124882 -3.47504e-20)
(-0.0110097 0.0202119 3.09024e-20)
(-0.0261277 0.0533278 -2.91046e-20)
(-0.0341741 0.0806547 2.70204e-20)
(-0.0368234 0.101573 0)
(-0.0347897 0.116463 0)
(-0.0284842 0.126226 4.2945e-20)
(-0.0182366 0.131948 -4.00071e-20)
(-0.00428923 0.134704 3.75548e-20)
(0.0131995 0.135429 -1.75129e-19)
(0.0341336 0.13486 -3.15209e-22)
(0.0584635 0.133533 3.06171e-20)
(0.0861836 0.131814 0)
(0.117321 0.129944 -5.57318e-20)
(0.151873 0.128074 1.04704e-19)
(0.189981 0.126355 -7.4434e-20)
(0.232102 0.124943 -1.19482e-19)
(0.277585 0.123731 -2.011e-21)
(0.329425 0.123145 8.32687e-20)
(0.380018 0.122114 0)
(0.447631 0.122724 0)
(0.494661 0.120963 -3.82837e-20)
(0.590074 0.123265 3.65579e-20)
(0.61787 0.119721 -1.39092e-19)
(0.754252 0.12297 1.29755e-19)
(-0.0103517 0.0161282 0)
(-0.0253615 0.0441155 0)
(-0.0332622 0.0681329 -8.11482e-20)
(-0.0349673 0.0870883 2.51394e-20)
(-0.0309846 0.100959 7.08805e-23)
(-0.021725 0.110257 4.26567e-20)
(-0.00760405 0.115747 0)
(0.0110285 0.118292 -3.67695e-20)
(0.0339341 0.118732 3.48039e-20)
(0.061009 0.1178 -6.41871e-20)
(0.0922824 0.116095 -3.14286e-22)
(0.127916 0.114106 5.73101e-20)
(0.168239 0.112234 7.74859e-22)
(0.213661 0.110818 5.20377e-20)
(0.264483 0.110039 -7.16382e-20)
(0.32124 0.110008 0)
(0.382986 0.110594 8.78969e-20)
(0.453174 0.112321 -1.24115e-19)
(0.52227 0.113757 3.88486e-20)
(0.610512 0.117775 0)
(0.674519 0.118362 3.54041e-20)
(0.790356 0.125577 1.39902e-19)
(0.827271 0.122783 -1.30628e-19)
(0.982094 0.132888 -1.57621e-19)
(-0.0101746 0.0129724 9.33808e-20)
(-0.0255563 0.0356787 -1.17882e-19)
(-0.0339996 0.0549865 2.03268e-22)
(-0.0355431 0.0701459 2.51806e-20)
(-0.0304029 0.0811697 -4.62292e-20)
(-0.018867 0.0884373 -4.27907e-20)
(-0.00123987 0.0925501 7.88892e-20)
(0.0222845 0.0942519 3.55399e-22)
(0.0516985 0.0943371 -6.79724e-20)
(0.0872327 0.093565 1.27058e-19)
(0.129338 0.092641 1.00663e-21)
(0.178551 0.0921647 -5.53705e-20)
(0.235348 0.0925777 0)
(0.299995 0.0941806 0)
(0.372358 0.0971227 -2.37286e-20)
(0.452013 0.101331 -4.37527e-20)
(0.537327 0.106953 -8.51048e-20)
(0.62834 0.113193 7.9334e-20)
(0.719344 0.120484 -3.88811e-20)
(0.817445 0.12757 7.34651e-20)
(0.900613 0.133806 -3.39713e-20)
(1.00678 0.141621 6.82472e-20)
(1.05905 0.141761 -1.55252e-19)
(1.18449 0.151505 3.07219e-20)
(-0.0109532 0.011175 3.12461e-20)
(-0.02722 0.0293145 0)
(-0.0361438 0.0434917 5.44551e-20)
(-0.0370903 0.0539768 -5.04235e-20)
(-0.0299479 0.0612142 4.62916e-20)
(-0.0146765 0.0657288 0)
(0.00886762 0.068179 0)
(0.0410499 0.0693486 -3.60998e-20)
(0.08245 0.0700676 4.14406e-23)
(0.133742 0.0711462 3.106e-20)
(0.195474 0.0732954 -2.91681e-20)
(0.267772 0.0770421 5.45053e-20)
(0.350103 0.0826949 0)
(0.441166 0.0903025 9.74365e-20)
(0.538888 0.0997499 -1.82772e-19)
(0.640735 0.110372 1.29541e-19)
(0.743706 0.122207 8.24536e-20)
(0.844669 0.133061 -7.68625e-20)
(0.941149 0.145017 0)
(1.02966 0.152187 0)
(1.10861 0.161826 0)
(1.17867 0.162293 0)
(1.22764 0.16568 3.05437e-20)
(1.28814 0.161473 -1.12709e-19)
(-0.659663 0.0304431 -3.75159e-21)
(-0.679868 0.0430779 3.74813e-21)
(-0.694103 0.0567761 -1.15046e-22)
(-0.705856 0.0698827 0)
(-0.711672 0.0825249 -3.53292e-21)
(-0.713905 0.0942444 6.81156e-21)
(-0.709917 0.104557 -8.17731e-23)
(-0.70113 0.113293 -3.10867e-21)
(-0.6855 0.119816 0)
(-0.663685 0.123779 0)
(-0.633949 0.124334 -1.48073e-22)
(-0.596365 0.120646 -1.31665e-22)
(-0.549487 0.111559 -1.77501e-21)
(-0.493093 0.0963485 1.61268e-21)
(-0.426065 0.0746155 0)
(-0.348106 0.0454045 0)
(-0.259913 0.00886886 4.47372e-22)
(-0.162625 -0.0318786 -2.57255e-22)
(-0.0584857 -0.0713746 -1.65748e-22)
(0.0491155 -0.103442 7.57316e-24)
(0.153634 -0.124039 0)
(0.249352 -0.131594 0)
(0.333754 -0.127982 0)
(0.405553 -0.116206 0)
(0.466046 -0.0999548 0)
(0.517475 -0.0809722 0)
(0.562813 -0.0615348 -1.33191e-22)
(0.604519 -0.041858 2.16538e-22)
(0.644111 -0.0238569 0)
(0.68235 -0.00684583 0)
(0.718341 0.00678952 1.03869e-22)
(0.752015 0.0188822 -1.00926e-22)
(0.781981 0.026431 -4.14327e-23)
(0.80854 0.0326729 0)
(0.830867 0.0346346 0)
(0.849982 0.0363757 -5.09417e-23)
(0.865753 0.0345011 4.9511e-23)
(0.879349 0.0336053 0)
(0.890894 0.0298906 -3.29507e-23)
(0.901156 0.0281216 4.70767e-23)
(0.910237 0.0239892 -1.29842e-23)
(0.91861 0.022756 0)
(0.926188 0.0192436 1.82447e-23)
(0.933365 0.0194593 -1.77403e-23)
(0.940015 0.0167382 0)
(0.946813 0.0182269 0)
(0.953558 0.0161999 5.01737e-24)
(0.960605 0.0186727 -1.40372e-23)
(0.967305 0.0172585 0)
(0.973653 0.0202939 0)
(0.978978 0.0189489 2.64804e-24)
(0.98366 0.0223526 -1.47398e-26)
(0.987105 0.0209596 3.22007e-25)
(0.990205 0.0248037 -1.48527e-24)
(0.992193 0.0236789 0)
(0.994256 0.0279443 0)
(0.995295 0.0271323 0)
(0.996859 0.0318705 0)
(0.997294 0.0313789 0)
(0.998721 0.0365751 0)
(-0.600018 0.0559928 -3.46654e-22)
(-0.621996 0.0614185 -1.484e-20)
(-0.631708 0.0697311 -9.39465e-23)
(-0.641326 0.0758675 1.39759e-20)
(-0.64236 0.0827277 2.16038e-22)
(-0.639726 0.0878601 0)
(-0.629477 0.0922472 -1.24849e-20)
(-0.613655 0.0946139 2.42639e-20)
(-0.590058 0.0951071 -1.17788e-20)
(-0.559586 0.0927817 1.02012e-20)
(-0.520814 0.087133 -9.75751e-21)
(-0.474058 0.0772825 8.02399e-21)
(-0.418124 0.062588 -7.81478e-21)
(-0.352991 0.041816 -2.07721e-22)
(-0.278961 0.0135391 -4.71997e-21)
(-0.196789 -0.0226354 4.58357e-21)
(-0.106768 -0.0652712 -2.34772e-21)
(-0.00827394 -0.109476 2.21741e-21)
(0.096346 -0.149129 -1.63505e-22)
(0.201307 -0.177736 -5.38621e-22)
(0.29996 -0.19166 6.63944e-22)
(0.387381 -0.189642 8.66023e-23)
(0.4615 -0.175106 1.81832e-21)
(0.521568 -0.152661 -3.59532e-21)
(0.569235 -0.1276 1.77676e-21)
(0.60633 -0.10245 -1.01072e-22)
(0.635953 -0.0792599 -1.48163e-21)
(0.660554 -0.0576912 8.37005e-23)
(0.683318 -0.0389566 2.34444e-21)
(0.705714 -0.0216628 -2.05218e-21)
(0.728874 -0.00761076 9.43942e-22)
(0.75225 0.00548954 -9.61945e-23)
(0.77546 0.0145163 4.15201e-23)
(0.797772 0.0223204 -7.21539e-23)
(0.818623 0.0258427 0)
(0.837562 0.0290088 0)
(0.854607 0.028343 1.76791e-22)
(0.869741 0.0284297 -1.31473e-22)
(0.883275 0.0255028 -9.70439e-23)
(0.895204 0.0243626 -6.89883e-25)
(0.905885 0.0207283 1.23644e-22)
(0.915342 0.019909 -2.23887e-23)
(0.923806 0.0167323 0)
(0.931427 0.0172122 0)
(0.938425 0.0146432 0)
(0.945361 0.0161919 0)
(0.952295 0.0141912 -2.13143e-23)
(0.959531 0.0167303 9.16667e-24)
(0.966478 0.0154729 0)
(0.9731 0.0187473 0)
(0.978653 0.0176739 0)
(0.98355 0.0213512 4.11038e-24)
(0.987123 0.0201887 -6.76522e-25)
(0.990355 0.0242214 3.27294e-24)
(0.992394 0.0232381 0)
(0.99455 0.0276119 0)
(0.995608 0.0268698 -1.33957e-24)
(0.997249 0.0316673 -3.03711e-24)
(0.997691 0.0312037 0)
(0.999195 0.036435 0)
(-0.443768 0.0785809 1.16777e-21)
(-0.467606 0.0765429 -2.86399e-20)
(-0.471026 0.079298 2.94246e-20)
(-0.477211 0.0788488 -2.74733e-20)
(-0.473499 0.0794798 -2.17574e-22)
(-0.466415 0.0783208 0)
(-0.451664 0.0764709 -2.57923e-20)
(-0.431136 0.0727125 2.5235e-20)
(-0.403206 0.0672302 1.80153e-22)
(-0.368508 0.0591613 3.41813e-22)
(-0.32621 0.0482326 3.15417e-22)
(-0.276236 0.0337605 2.75566e-22)
(-0.218693 0.0135019 -1.51505e-20)
(-0.154493 -0.013235 1.49205e-20)
(-0.083995 -0.0469371 0)
(-0.00591488 -0.0874158 3.11911e-22)
(0.080722 -0.132962 -5.86335e-21)
(0.173481 -0.179019 5.75663e-21)
(0.269379 -0.218692 0)
(0.363308 -0.244601 0)
(0.449028 -0.251803 2.06187e-21)
(0.522243 -0.240702 -5.015e-21)
(0.582245 -0.216483 6.11989e-21)
(0.629798 -0.18495 1.00703e-22)
(0.667157 -0.151708 -6.53521e-21)
(0.695991 -0.120068 6.40746e-21)
(0.718523 -0.0921866 -5.62191e-21)
(0.735549 -0.0676638 3.8034e-22)
(0.749655 -0.0474824 2.4279e-21)
(0.761806 -0.0297383 0)
(0.774549 -0.0158735 0)
(0.787703 -0.00333483 -5.39083e-22)
(0.802328 0.00578169 7.10946e-22)
(0.817356 0.0139505 2.75024e-25)
(0.833296 0.0180898 -4.7445e-22)
(0.848634 0.0220059 4.61011e-22)
(0.863772 0.0221408 0)
(0.877585 0.0229963 -4.05232e-23)
(0.890595 0.0208012 -2.99017e-22)
(0.90199 0.0203193 5.44572e-22)
(0.912354 0.017267 -2.21412e-22)
(0.92123 0.0169517 -2.23279e-23)
(0.929154 0.0141954 1.8487e-22)
(0.935993 0.015 -1.42146e-22)
(0.942267 0.0126195 -2.87339e-23)
(0.948357 0.0142346 -2.47795e-23)
(0.954566 0.0122444 2.13711e-23)
(0.961141 0.0148224 0)
(0.967587 0.013695 0)
(0.973866 0.0171916 5.2166e-23)
(0.979178 0.0163812 -2.45381e-23)
(0.983958 0.0203317 1.92092e-23)
(0.987441 0.0193995 -2.39787e-23)
(0.99067 0.0236245 -2.51715e-23)
(0.992682 0.0227822 5.89432e-24)
(0.994887 0.0272678 -8.35752e-24)
(0.99594 0.0265953 6.27772e-24)
(0.997648 0.0314549 -2.61743e-24)
(0.998091 0.0310189 0)
(0.99967 0.0362876 0)
(-0.238824 0.0992255 -5.88938e-20)
(-0.260076 0.0875253 -1.06313e-21)
(-0.261497 0.0858375 5.65252e-20)
(-0.263328 0.0797971 -4.46299e-22)
(-0.257663 0.0739084 0)
(-0.247738 0.0668443 0)
(-0.231649 0.0590544 -5.26235e-20)
(-0.209758 0.0497256 5.48766e-22)
(-0.181544 0.0387495 7.21455e-20)
(-0.146818 0.026185 -1.2589e-21)
(-0.105356 0.0107483 -2.15499e-20)
(-0.0586655 -0.00881431 -1.77317e-20)
(-0.00646212 -0.0335773 1.7803e-20)
(0.0540347 -0.0643156 0)
(0.121173 -0.101153 -1.19474e-20)
(0.193425 -0.143509 1.09372e-20)
(0.272375 -0.190782 0)
(0.356657 -0.239251 0)
(0.441958 -0.278988 2.13923e-21)
(0.521279 -0.301002 -1.94744e-21)
(0.588904 -0.301021 -1.60556e-22)
(0.642508 -0.281316 2.42756e-21)
(0.683493 -0.248795 -2.43819e-21)
(0.714684 -0.210497 3.18892e-21)
(0.739281 -0.171766 -3.23015e-23)
(0.759377 -0.135727 -2.97958e-21)
(0.77693 -0.104358 -3.44592e-22)
(0.79159 -0.0769906 -8.35191e-24)
(0.804377 -0.0547205 0)
(0.814827 -0.0356926 -1.90887e-21)
(0.824743 -0.0211546 1.96254e-21)
(0.833823 -0.00860195 -9.67704e-23)
(0.84377 3.28894e-05 0)
(0.853607 0.00824161 7.27732e-23)
(0.864891 0.012435 -9.50514e-22)
(0.875974 0.0165431 1.63724e-21)
(0.887718 0.017044 5.10646e-24)
(0.898563 0.0183603 -7.68319e-23)
(0.90922 0.0167131 -5.25913e-22)
(0.918452 0.0167867 -6.05331e-23)
(0.926962 0.0142703 3.93896e-22)
(0.934019 0.0144294 -3.37707e-22)
(0.940329 0.0120739 -1.32143e-25)
(0.945561 0.0131838 -1.26395e-22)
(0.950372 0.0109744 1.51712e-22)
(0.954975 0.0126286 1.68453e-22)
(0.95981 0.010607 -4.84762e-23)
(0.965102 0.0131669 -6.95062e-23)
(0.970453 0.0121063 1.27062e-22)
(0.975875 0.0157671 -8.48612e-23)
(0.98053 0.0151711 1.9862e-23)
(0.984888 0.0193604 -2.50388e-23)
(0.98807 0.0186327 -1.87779e-23)
(0.991163 0.0230359 3.83975e-23)
(0.993065 0.0223237 -1.11445e-24)
(0.995274 0.0269177 8.33747e-24)
(0.996297 0.0263113 0)
(0.998058 0.0312338 2.59547e-24)
(0.998496 0.0308247 -3.41423e-24)
(1.00015 0.0361327 0)
(-0.0186149 0.11216 5.90334e-20)
(-0.0345176 0.0989151 -1.16282e-19)
(-0.0338718 0.0901081 5.67535e-20)
(-0.0341756 0.0798058 5.79346e-20)
(-0.0282227 0.0688567 -1.13535e-19)
(-0.0177778 0.0565614 2.47237e-22)
(-0.00237034 0.0434483 5.41782e-20)
(0.0178425 0.0293026 5.12339e-20)
(0.0440646 0.0143644 -5.01198e-20)
(0.0756473 -0.00248828 0)
(0.112201 -0.0225499 -4.2337e-20)
(0.154622 -0.0467973 7.98726e-20)
(0.202613 -0.0740912 -3.76195e-20)
(0.256951 -0.106173 0)
(0.31768 -0.145212 0)
(0.38428 -0.190457 3.52745e-22)
(0.457234 -0.240711 -1.63296e-20)
(0.533677 -0.290095 1.58527e-20)
(0.606556 -0.327888 0)
(0.667914 -0.344628 2.07173e-21)
(0.713634 -0.3372 -5.65863e-22)
(0.744494 -0.309919 -4.75964e-21)
(0.764561 -0.271127 8.31723e-21)
(0.778464 -0.228346 7.48797e-22)
(0.789695 -0.186613 -1.09248e-20)
(0.800172 -0.148294 5.53687e-21)
(0.811611 -0.115347 1.68443e-22)
(0.823423 -0.0866064 2.16429e-21)
(0.835597 -0.0629223 -1.59467e-22)
(0.846925 -0.0425967 -2.03143e-21)
(0.85799 -0.0270136 -1.09686e-22)
(0.867788 -0.013575 1.44917e-21)
(0.877697 -0.00469701 -2.67219e-21)
(0.886589 0.00379333 1.37161e-21)
(0.895933 0.00815889 0)
(0.904698 0.0124387 9.32478e-22)
(0.913904 0.0132039 -8.93959e-22)
(0.922195 0.0148468 5.33918e-22)
(0.93038 0.0136132 -6.67624e-22)
(0.937296 0.0141252 6.04141e-23)
(0.943647 0.0120438 0)
(0.948729 0.0125856 4.50255e-23)
(0.953256 0.01055 -1.16719e-22)
(0.956855 0.0119052 0)
(0.960142 0.0098289 -2.76496e-22)
(0.963227 0.0114937 1.12681e-22)
(0.966554 0.00940275 -4.30326e-23)
(0.970389 0.0118894 -3.69605e-23)
(0.9744 0.0108238 0)
(0.978716 0.0145732 0)
(0.982479 0.0141213 6.58926e-23)
(0.986223 0.0184928 -9.69272e-23)
(0.988958 0.0179258 5.09829e-23)
(0.991813 0.0224791 -1.54069e-23)
(0.993539 0.0218767 -2.35183e-23)
(0.995711 0.0265694 -8.34647e-24)
(0.996679 0.0260223 1.25598e-23)
(0.998481 0.0310064 0)
(0.998907 0.0306222 5.54225e-24)
(1.00063 0.0359707 1.23724e-24)
(0.189951 0.118755 5.88273e-20)
(0.186756 0.10773 -5.81048e-20)
(0.188235 0.0942641 4.59023e-22)
(0.191154 0.0809769 -4.48053e-22)
(0.1969 0.0664029 4.49737e-22)
(0.206211 0.050551 -4.4057e-22)
(0.219521 0.0332262 8.53268e-22)
(0.237732 0.0151711 0)
(0.260199 -0.00387261 -7.9379e-22)
(0.286776 -0.0253505 7.54854e-22)
(0.318611 -0.0489602 7.10385e-22)
(0.355789 -0.0755062 -6.46333e-22)
(0.398495 -0.106157 0)
(0.447735 -0.141776 0)
(0.503535 -0.18342 4.81077e-22)
(0.565205 -0.230576 0)
(0.631919 -0.281958 -3.33863e-22)
(0.699032 -0.33058 0)
(0.756615 -0.364114 -7.65982e-21)
(0.79642 -0.373957 1.12432e-20)
(0.817589 -0.359242 -3.65026e-21)
(0.824904 -0.326169 2.05421e-22)
(0.825021 -0.283801 -3.68815e-21)
(0.823534 -0.239212 3.58002e-21)
(0.823627 -0.196956 5.0375e-21)
(0.826139 -0.158112 -4.89662e-21)
(0.83198 -0.124827 0)
(0.840474 -0.0957771 -1.35312e-22)
(0.850976 -0.0715794 0)
(0.862162 -0.0504737 0)
(0.873992 -0.0340126 -3.02717e-21)
(0.885191 -0.0196305 3.13914e-21)
(0.896387 -0.00971812 -1.62283e-22)
(0.906374 -0.00111257 -1.45141e-22)
(0.915959 0.00400696 1.23378e-22)
(0.924497 0.00881263 8.24267e-22)
(0.93282 0.01002 -8.00208e-22)
(0.939986 0.0120672 6.9923e-22)
(0.946739 0.0112492 -5.99313e-22)
(0.952265 0.012163 -1.21733e-22)
(0.957168 0.0104529 3.97447e-22)
(0.96097 0.0113025 2.13335e-24)
(0.964289 0.00951123 -2.54597e-22)
(0.966844 0.0110611 0)
(0.969085 0.00909604 1.16332e-22)
(0.971101 0.0107704 -1.39124e-22)
(0.973233 0.00860245 1.83855e-22)
(0.975842 0.0109891 3.72082e-23)
(0.978614 0.00986595 0)
(0.98186 0.0136386 -2.38343e-23)
(0.984701 0.0132619 4.9535e-23)
(0.987784 0.0177556 2.51797e-26)
(0.990014 0.0172999 1.61142e-23)
(0.992583 0.021969 -2.42525e-23)
(0.994091 0.0214517 2.35693e-23)
(0.996196 0.0262293 0)