/*--------------------------------*- C++ -*----------------------------------*\
| =========                 |                                                 |
| \\      /  F ield         | OpenFOAM: The Open Source CFD Toolbox           |
|  \\    /   O peration     | Version:  2512                                  |
|   \\  /    A nd           | Website:  www.openfoam.com                      |
|    \\/     M anipulation  |                                                 |
\*---------------------------------------------------------------------------*/
FoamFile
{
    version     2.0;
    format      ascii;
    arch        "LSB;label=32;scalar=64";
    class       volVectorField;
    location    "136.05";
    object      U;
}
// * * * * * * * * * * * * * * * * * * * * * * * * * * * * * * * * * * * * * //

dimensions      [0 1 -1 0 0 0 0];

internalField   nonuniform List<vector> 
13248
(
(-0.0263596 0.02008 4.47118e-20)
(-0.057816 0.0397093 0)
(-0.0712585 0.0461491 -7.7092e-20)
(-0.0627544 0.0467245 7.13841e-20)
(-0.0283906 0.0445699 6.56078e-20)
(0.0359171 0.040988 0)
(0.133425 0.0365009 0)
(0.264221 0.031747 1.4781e-19)
(0.423522 0.0275001 -1.15824e-21)
(0.601481 0.0240444 -1.25209e-19)
(0.784494 0.0212081 1.14816e-19)
(0.957992 0.0183368 -7.09594e-20)
(1.10917 0.0144945 0)
(1.22903 0.00877237 -1.21154e-19)
(1.31366 0.000623776 2.24439e-19)
(1.36447 -0.00999548 -5.36434e-20)
(1.38746 -0.0226701 -9.33387e-20)
(1.39139 -0.0366963 8.70281e-20)
(1.3848 -0.0514236 0)
(1.37388 -0.0671592 0)
(1.36095 -0.080072 0)
(1.34498 -0.100969 0)
(1.32732 -0.101693 2.31732e-20)
(1.30191 -0.142771 7.99994e-20)
(-0.0316047 0.0230163 -1.34849e-19)
(-0.0609713 0.0432863 8.52264e-20)
(-0.0614588 0.0481235 -5.45456e-22)
(-0.0307852 0.0455892 -1.08993e-19)
(0.0346095 0.039923 -6.55119e-20)
(0.137982 0.0334961 -6.11978e-20)
(0.27933 0.0279274 -1.09743e-19)
(0.452284 0.0243727 1.03084e-19)
(0.643493 0.0232611 0)
(0.835341 0.0240991 4.54022e-22)
(1.01035 0.0256478 1.52791e-21)
(1.15509 0.0263602 7.14457e-20)
(1.26245 0.0248995 0)
(1.33209 0.0205232 0)
(1.36945 0.0132085 8.00907e-20)
(1.38338 0.00343987 -1.49551e-19)
(1.38326 -0.00795501 8.7237e-20)
(1.37618 -0.0204014 -8.13394e-20)
(1.36596 -0.0331618 -3.47113e-20)
(1.3537 -0.0457759 -6.26708e-20)
(1.33905 -0.0585033 -2.44894e-20)
(1.32358 -0.0698222 -4.57822e-20)
(1.30514 -0.0796861 6.80194e-20)
(1.28994 -0.0948399 1.8469e-20)
(-0.0343708 0.0231058 0)
(-0.0572283 0.0416946 0)
(-0.0393221 0.0449787 3.92683e-20)
(0.020348 0.0407899 3.57243e-20)
(0.12431 0.0341992 -7.5574e-22)
(0.272494 0.0286154 -6.36222e-20)
(0.45734 0.0262108 0)
(0.661924 0.0276735 -5.10393e-20)
(0.863859 0.0321095 4.73831e-20)
(1.04219 0.0375493 4.28604e-22)
(1.18288 0.0418041 -7.75546e-20)
(1.28099 0.0432379 -6.94498e-20)
(1.33987 0.0411653 1.86877e-21)
(1.36839 0.0358137 -5.47973e-20)
(1.37714 0.0279465 1.31869e-19)
(1.37514 0.0184778 0)
(1.36803 0.00814104 -8.21598e-20)
(1.35835 -0.00263751 4.01222e-20)
(1.347 -0.0131512 3.46769e-20)
(1.33413 -0.0244669 0)
(1.32093 -0.0332983 2.74316e-20)
(1.30623 -0.0459123 -9.01215e-20)
(1.29195 -0.0500785 8.41609e-20)
(1.27572 -0.065688 4.96741e-20)
(-0.0345006 0.0208378 -4.75787e-20)
(-0.0455028 0.0352709 -4.55017e-20)
(-0.00291893 0.0366766 4.05811e-20)
(0.0929845 0.0323842 0)
(0.241832 0.0281606 0)
(0.435584 0.0278517 -1.51048e-21)
(0.653989 0.0327399 0)
(0.86902 0.0414553 -1.56903e-19)
(1.0551 0.0510874 1.43159e-19)
(1.19692 0.0587294 -1.73229e-19)
(1.2914 0.0625606 3.87664e-20)
(1.3451 0.0621538 0)
(1.36944 0.0581423 6.11289e-20)
(1.37587 0.0515985 -1.11604e-19)
(1.37285 0.0435226 2.64392e-20)
(1.36522 0.0346049 6.54696e-20)
(1.35519 0.0251974 -3.5581e-21)
(1.34385 0.0156683 -7.0621e-20)
(1.33164 0.00579556 0)
(1.31917 -0.003419 0)
(1.30584 -0.0129208 -2.38744e-20)
(1.29243 -0.0217885 2.09883e-20)
(1.27797 -0.0274916 7.34658e-20)
(1.26414 -0.0411671 -6.85896e-20)
(-0.0317874 0.0170727 -5.02007e-20)
(-0.0242587 0.0257612 -4.63958e-20)
(0.0506395 0.0257432 1.28001e-19)
(0.190184 0.0239317 -7.69251e-20)
(0.386674 0.0262837 7.12537e-20)
(0.61778 0.0353493 1.28084e-19)
(0.849119 0.0493783 -8.92264e-20)
(1.04853 0.0642106 -1.0575e-19)
(1.19772 0.0759603 3.25401e-21)
(1.29437 0.0825697 1.30589e-19)
(1.34746 0.0839313 0)
(1.37037 0.0811456 3.38533e-20)
(1.37536 0.0756175 0)
(1.371 0.0684775 -5.28975e-20)
(1.36219 0.0604329 7.37569e-20)
(1.35143 0.0518571 8.84248e-22)
(1.33993 0.0430419 -1.85422e-20)
(1.32815 0.0340382 3.4513e-20)
(1.31627 0.0253288 2.89648e-20)
(1.30398 0.0164996 -2.55298e-20)
(1.29162 0.0085205 2.38637e-20)
(1.27889 0.000158469 -2.09787e-20)
(1.26615 -0.00595345 0)
(1.25366 -0.0165964 -1.50352e-20)
(-0.0256639 0.0125303 5.01881e-20)
(0.00851092 0.015288 4.88892e-20)
(0.124139 0.0157854 -4.29838e-20)
(0.31261 0.0203224 7.93462e-20)
(0.551877 0.033363 -7.34931e-20)
(0.801764 0.0534205 6.55769e-20)
(1.02086 0.0747692 -3.10834e-20)
(1.18483 0.0919758 7.94375e-20)
(1.29015 0.1024 -4.91101e-20)
(1.34724 0.106138 8.35474e-20)
(1.37137 0.104773 -1.89252e-19)
(1.37617 0.100126 6.81463e-20)
(1.37107 0.0935933 -5.78796e-20)
(1.36158 0.0860345 5.38824e-20)
(1.35048 0.077922 4.52433e-20)
(1.33895 0.0695458 3.88617e-20)
(1.32729 0.0610303 -1.07017e-19)
(1.31553 0.0525962 6.58054e-20)
(1.30356 0.0441283 -2.89605e-20)
(1.29157 0.0360286 7.36904e-20)
(1.27941 0.0280198 -2.37956e-20)
(1.2673 0.0203677 -5.54913e-20)
(1.25505 0.0141729 5.06968e-20)
(1.24305 0.00451737 1.50305e-20)
(-0.0152175 0.0077488 0)
(0.0547263 0.00590171 6.58385e-22)
(0.218616 0.0104488 9.09877e-20)
(0.455752 0.0257936 -8.35909e-20)
(0.723307 0.0516603 -7.44684e-20)
(0.968367 0.0808206 1.36027e-19)
(1.15574 0.105365 -6.2146e-20)
(1.27727 0.121293 8.01473e-20)
(1.34352 0.128555 -2.41038e-21)
(1.37173 0.129184 -4.35657e-20)
(1.37765 0.125564 9.18041e-20)
(1.37232 0.119543 -1.3331e-19)
(1.36219 0.112276 0)
(1.35041 0.104388 -2.50359e-20)
(1.33824 0.0962006 -6.55416e-20)
(1.32605 0.0878604 2.04777e-20)
(1.31393 0.0794999 9.81218e-22)
(1.30192 0.0711384 -4.26223e-20)
(1.29008 0.0629856 3.27025e-21)
(1.27833 0.0549724 4.84347e-20)
(1.26674 0.0473144 -2.11585e-20)
(1.25525 0.0400506 -7.52436e-21)
(1.24381 0.0332251 2.38586e-20)
(1.23275 0.0250758 0)
(0.00050987 0.00328424 0)
(0.115495 -0.00030517 2.50502e-20)
(0.332004 0.0130093 -1.18861e-19)
(0.609533 0.0426589 4.26751e-20)
(0.884683 0.0803443 -3.9527e-20)
(1.10515 0.114463 -3.5308e-20)
(1.25235 0.138229 -6.04404e-20)
(1.33447 0.150729 3.02792e-20)
(1.37062 0.154317 2.5467e-20)
(1.37952 0.152109 0)
(1.37468 0.146642 5.41898e-20)
(1.36406 0.139528 -7.89751e-20)
(1.35152 0.131631 5.80913e-20)
(1.33862 0.123361 2.50471e-20)
(1.3259 0.114908 -1.99137e-20)
(1.3135 0.106399 -1.61544e-20)
(1.30142 0.097905 -1.48686e-20)
(1.28962 0.0895455 4.48159e-20)
(1.278 0.0813213 0)
(1.26659 0.0733611 2.14627e-20)
(1.25534 0.0656787 1.74091e-20)
(1.24425 0.0583256 -4.36579e-20)
(1.23329 0.0513362 -2.88404e-20)
(1.22257 0.0441304 2.64603e-20)
(0.0222372 -0.000135654 -2.96129e-20)
(0.190458 -0.00107412 -1.38215e-21)
(0.458642 0.0259731 2.43665e-20)
(0.761191 0.070967 6.73295e-20)
(1.02409 0.11693 1.88631e-20)
(1.20901 0.151676 -3.60229e-20)
(1.31649 0.17197 3.22581e-20)
(1.36637 0.1801 -2.73446e-20)
(1.38112 0.180063 4.76084e-20)
(1.37788 0.175381 1.95969e-20)
(1.36698 0.168371 -5.51545e-20)
(1.35356 0.160284 1.58888e-20)
(1.33973 0.151712 2.64818e-20)
(1.32622 0.142923 -1.29687e-20)
(1.31318 0.134062 0)
(1.30059 0.125216 1.85139e-20)
(1.2884 0.11647 3.05813e-20)
(1.27656 0.107862 4.83525e-21)
(1.26508 0.09948 -2.48597e-20)
(1.25394 0.0913578 1.0124e-20)
(1.24311 0.0835685 0)
(1.23255 0.0761275 -7.63029e-21)
(1.2222 0.0688675 -7.10061e-21)
(1.21205 0.0622334 0)
(0.0501595 -0.00157544 0)
(0.277331 0.00585487 1.44357e-20)
(0.590059 0.050554 2.64787e-20)
(0.899592 0.109141 -6.8954e-20)
(1.13635 0.158931 2.20681e-20)
(1.28275 0.190897 0)
(1.3555 0.206175 3.05359e-20)
(1.38095 0.209669 -4.19471e-20)
(1.38132 0.206267 -2.37292e-20)
(1.37072 0.199388 1.04889e-20)
(1.35642 0.190934 -1.62423e-20)
(1.34148 0.18181 3.92089e-20)
(1.32695 0.172417 1.90873e-20)
(1.31308 0.162938 -1.33283e-20)
(1.29986 0.153474 -1.41305e-21)
(1.28724 0.144105 -3.46145e-20)
(1.27517 0.134892 1.55591e-20)
(1.2636 0.125902 -3.98179e-22)
(1.25246 0.11717 0)
(1.24172 0.108762 -1.0134e-20)
(1.23133 0.100706 0)
(1.22122 0.0929389 2.18375e-20)
(1.21132 0.0855468 -2.55254e-20)
(1.20155 0.0792572 1.14525e-20)
(0.0838049 -2.67239e-05 -8.41466e-21)
(0.371925 0.022268 -3.70928e-20)
(0.717098 0.0864886 4.17265e-20)
(1.01772 0.155058 2.36725e-20)
(1.22118 0.204536 -1.12144e-20)
(1.33112 0.231376 1.77416e-20)
(1.37568 0.240896 -8.58576e-21)
(1.38354 0.239828 1.36206e-20)
(1.37459 0.233304 0)
(1.35963 0.224342 2.9324e-20)
(1.34341 0.214398 -1.34617e-21)
(1.32762 0.204098 -2.28859e-20)
(1.31267 0.193707 9.58874e-21)
(1.2986 0.183354 -1.0572e-20)
(1.28532 0.173122 -3.86435e-21)
(1.27273 0.163077 4.55263e-21)
(1.26078 0.153275 -3.40293e-21)
(1.24938 0.143754 -1.80777e-20)
(1.23852 0.134563 1.09752e-20)
(1.22815 0.125747 2.18032e-21)
(1.21822 0.11731 1.87898e-21)
(1.20866 0.109216 1.61842e-21)
(1.19935 0.101651 0)
(1.19017 0.0952057 0)
(0.122127 0.00548605 8.42486e-21)
(0.468825 0.0491574 -7.78725e-21)
(0.832179 0.132484 -1.39729e-20)
(1.1125 0.20676 0)
(1.28071 0.252588 -5.53648e-21)
(1.35872 0.27282 -4.81558e-21)
(1.38152 0.276302 -7.88446e-21)
(1.37721 0.270824 0)
(1.36241 0.261298 0)
(1.34493 0.250215 0)
(1.32766 0.238624 0)
(1.31142 0.226944 0)
(1.29631 0.215353 -6.00866e-21)
(1.28221 0.20394 2.70474e-21)
(1.26903 0.192766 4.59232e-21)
(1.25665 0.181881 2.11905e-21)
(1.24499 0.171324 5.11955e-21)
(1.23401 0.161138 0)
(1.22363 0.151349 -1.16607e-21)
(1.21379 0.141994 -1.09583e-21)
(1.20443 0.133055 -1.88193e-21)
(1.19545 0.124509 -1.62096e-21)
(1.18674 0.116688 0)
(1.1782 0.109887 1.08922e-21)
(-0.00220483 0.0615083 6.32204e-21)
(-0.00823367 0.173913 -5.98525e-21)
(-0.0201008 0.260931 -1.1055e-20)
(-0.0378615 0.320057 0)
(-0.0592823 0.359894 -1.43015e-20)
(-0.0816355 0.391408 4.45483e-21)
(-0.102751 0.421736 -8.30154e-21)
(-0.121219 0.453148 0)
(-0.136105 0.484785 0)
(-0.146601 0.514512 0)
(-0.151884 0.539882 0)
(-0.15112 0.558461 0)
(-0.143556 0.567976 1.64389e-22)
(-0.128608 0.566416 -6.06407e-21)
(-0.105951 0.552264 1.20788e-20)
(-0.0756111 0.524599 1.78115e-20)
(-0.0379517 0.483203 5.91391e-21)
(0.00593174 0.428534 0)
(0.0550777 0.36167 5.45712e-21)
(0.108279 0.284097 -1.55374e-20)
(0.163354 0.197856 -9.99094e-21)
(0.220248 0.104704 -9.47947e-21)
(0.272151 0.00608821 0)
(0.328504 -0.099268 0)
(-0.00433613 0.0601015 -1.88665e-20)
(-0.0109943 0.175326 2.98071e-20)
(-0.0175594 0.269745 -1.09183e-20)
(-0.0276888 0.336644 -2.02816e-20)
(-0.0408383 0.381472 2.82755e-20)
(-0.0548077 0.414224 -1.76093e-20)
(-0.0673421 0.442698 2.46248e-20)
(-0.0766441 0.470214 1.52889e-20)
(-0.0814604 0.496599 0)
(-0.0808848 0.519957 -1.4605e-20)
(-0.0741663 0.537893 -9.57753e-22)
(-0.0606509 0.548058 1.26318e-20)
(-0.0398989 0.548369 1.88181e-20)
(-0.0116856 0.537167 2.52657e-20)
(0.0239349 0.513344 -1.085e-20)
(0.066517 0.476432 -3.48206e-20)
(0.115255 0.426627 1.21366e-20)
(0.168974 0.364734 -4.43908e-20)
(0.226241 0.292351 0)
(0.286206 0.211214 1.04279e-20)
(0.343926 0.123004 9.97301e-21)
(0.406211 0.0307164 9.46262e-21)
(0.455664 -0.0639639 0)
(0.517978 -0.164707 0)
(-0.00596234 0.0533985 0)
(-0.0137325 0.164692 5.8398e-20)
(-0.0160032 0.263427 -2.16221e-20)
(-0.0187161 0.337981 2.00879e-20)
(-0.0230708 0.389128 -5.51329e-20)
(-0.0278045 0.42444 0)
(-0.030895 0.451654 -3.23011e-20)
(-0.030384 0.475195 1.47124e-20)
(-0.0247533 0.496004 -2.81277e-20)
(-0.0129749 0.512863 1.29903e-20)
(0.00562406 0.523712 7.90562e-20)
(0.0314514 0.526418 -3.68179e-20)
(0.0646482 0.519134 -6.29396e-20)
(0.105059 0.500526 -2.60159e-20)
(0.152212 0.469814 -2.44228e-21)
(0.205282 0.426853 9.26334e-20)
(0.263113 0.372128 -4.42608e-20)
(0.32453 0.306952 6.42128e-22)
(0.386774 0.232361 0)
(0.45124 0.151514 -4.05969e-20)
(0.508125 0.0654038 0)
(0.57425 -0.0217549 -3.87625e-20)
(0.616503 -0.110972 1.41376e-19)
(0.685486 -0.207002 -6.215e-22)
(-0.00658962 0.0430642 0)
(-0.0156418 0.144014 -3.80598e-22)
(-0.0154798 0.242465 2.09886e-20)
(-0.01239 0.322828 -1.92819e-20)
(-0.00868572 0.380775 1.82632e-20)
(-0.00423958 0.4202 1.00032e-19)
(0.00225492 0.447565 -3.11312e-20)
(0.0125309 0.467869 -2.87539e-20)
(0.0281692 0.483309 5.51845e-20)
(0.0502991 0.493777 -8.01259e-20)
(0.0795674 0.497935 2.39456e-20)
(0.116201 0.494094 2.36706e-20)
(0.160053 0.480736 0)
(0.210625 0.456791 2.35609e-20)
(0.267079 0.421735 0)
(0.32826 0.37575 4.29111e-20)
(0.392581 0.319213 -8.88161e-20)
(0.459077 0.254363 1.79029e-20)
(0.522962 0.180535 8.07191e-20)
(0.589614 0.104867 4.05514e-20)
(0.644019 0.0231398 0)
(0.712896 -0.0578709 -1.09087e-19)
(0.750607 -0.144566 3.46904e-20)
(0.834663 -0.239888 0)
(-0.0060877 0.0312437 0)
(-0.0162426 0.117036 -6.79226e-20)
(-0.0158974 0.209708 -2.04196e-20)
(-0.0097601 0.291923 -3.81087e-20)
(-0.000172218 0.355312 3.53067e-20)
(0.0121393 0.399627 -3.29932e-20)
(0.0275137 0.428886 6.05948e-20)
(0.0470049 0.447636 2.92358e-20)
(0.0718697 0.458877 -7.97581e-20)
(0.103136 0.463694 5.08262e-20)
(0.141392 0.461786 -7.26818e-20)
(0.186743 0.45221 1.60001e-19)
(0.238838 0.433948 -8.73281e-20)
(0.296899 0.406293 4.18203e-20)
(0.359744 0.36888 1.27684e-19)
(0.425953 0.322433 -3.88413e-20)
(0.493515 0.266497 -3.52808e-20)
(0.561276 0.205128 -3.92441e-20)
(0.626194 0.135501 0)
(0.693548 0.0674101 -7.51141e-20)
(0.749189 -0.0118911 -7.32257e-20)
(0.826675 -0.0877436 1.01318e-19)
(0.873812 -0.177974 1.28447e-19)
(0.984179 -0.273528 -1.17371e-19)
(-0.00472948 0.0200047 0)
(-0.0156647 0.0883603 -8.82445e-20)
(-0.0172268 0.170175 9.21793e-22)
(-0.0112913 0.248776 7.51469e-20)
(0.000846993 0.313827 0)
(0.0182855 0.361707 0)
(0.0405886 0.393562 0)
(0.0679286 0.412512 -2.77509e-20)
(0.100863 0.421503 -4.44596e-22)
(0.13997 0.422362 4.71521e-20)
(0.185564 0.415767 -7.09278e-20)
(0.23755 0.401662 -1.18699e-21)
(0.295366 0.379696 0)
(0.358013 0.349697 -4.18027e-20)
(0.424191 0.311484 3.95526e-20)
(0.492221 0.266163 -1.11714e-19)
(0.56084 0.213142 1.51722e-19)
(0.630044 0.157283 3.97878e-20)
(0.699437 0.0920228 5.46567e-21)
(0.773511 0.0287169 -1.34979e-19)
(0.847842 -0.0520009 -6.32544e-20)
(0.945075 -0.124721 2.17064e-19)
(1.01923 -0.221652 -1.41727e-19)
(1.14884 -0.308642 0)
(-0.00314532 0.0109364 4.58773e-20)
(-0.0148118 0.0623023 4.40075e-20)
(-0.0198938 0.129877 -3.96733e-20)
(-0.0170628 0.199392 -7.2845e-20)
(-0.00599152 0.260673 6.7487e-20)
(0.0129088 0.308309 -6.09192e-20)
(0.0389171 0.341113 8.41209e-20)
(0.0714933 0.360451 -2.74009e-20)
(0.110385 0.368506 4.79086e-20)
(0.155468 0.36718 0)
(0.206524 0.357719 4.15479e-20)
(0.263094 0.340798 -7.62905e-20)
(0.324436 0.316759 7.83181e-20)
(0.3897 0.285961 -7.28976e-20)
(0.458109 0.248561 0)
(0.529805 0.205896 7.10231e-20)
(0.605678 0.156674 1.39152e-19)
(0.687043 0.104035 -1.32152e-19)
(0.777154 0.0404534 -6.33979e-20)
(0.876722 -0.0215286 -6.74703e-20)
(0.984943 -0.102844 1.83085e-19)
(1.10106 -0.170028 5.37711e-20)
(1.1971 -0.264381 -5.04245e-20)
(1.3081 -0.32715 4.42496e-20)
(-0.00222848 0.005039 -4.58888e-20)
(-0.0152673 0.0420327 1.27898e-19)
(-0.024984 0.0941867 -3.93183e-20)
(-0.0271851 0.150614 7.14573e-20)
(-0.0199874 0.202788 -6.62024e-20)
(-0.00302177 0.245112 -5.57284e-23)
(0.0231454 0.275152 2.72501e-20)
(0.0576269 0.292887 9.68088e-20)
(0.0995664 0.299563 -6.50772e-22)
(0.148241 0.296753 -4.32248e-20)
(0.203076 0.285868 0)
(0.263705 0.26802 -3.71054e-20)
(0.330116 0.24397 7.05327e-20)
(0.403033 0.214352 7.07319e-20)
(0.483921 0.179285 -3.30472e-20)
(0.574675 0.139006 -2.10602e-21)
(0.677004 0.0921307 -3.34531e-20)
(0.791278 0.0407962 6.08638e-20)
(0.915652 -0.0193686 6.34062e-20)
(1.04407 -0.0779087 -6.09615e-20)
(1.16907 -0.149856 5.23535e-20)
(1.27781 -0.20407 -4.82287e-20)
(1.35785 -0.280431 0)
(1.40933 -0.312493 -4.42833e-20)
(-0.00299222 0.00283349 4.46143e-20)
(-0.0188131 0.0292919 -4.2539e-20)
(-0.0337716 0.0667454 3.85693e-20)
(-0.041623 0.108252 0)
(-0.0394349 0.147679 0)
(-0.0261401 0.180363 5.68255e-20)
(-0.00189379 0.203729 -5.36469e-20)
(0.0325931 0.217078 4.64542e-20)
(0.0765695 0.221019 -2.19203e-19)
(0.129692 0.216742 -9.60665e-23)
(0.192289 0.205529 3.7181e-20)
(0.265492 0.188407 0)
(0.351055 0.16601 -6.92216e-20)
(0.450691 0.138592 1.31548e-19)
(0.565296 0.106217 -9.53288e-20)
(0.693956 0.0687048 -1.59591e-19)
(0.833173 0.0266052 -4.95033e-21)
(0.976797 -0.0193404 1.11187e-19)
(1.11578 -0.0691261 0)
(1.24057 -0.117162 0)
(1.3393 -0.170514 -5.23749e-20)
(1.40533 -0.207665 4.82517e-20)
(1.43295 -0.2599 -1.58035e-19)
(1.42381 -0.270313 1.47309e-19)
(-0.00626171 0.00434784 0)
(-0.0265216 0.0244495 0)
(-0.0463638 0.0493088 -1.14907e-19)
(-0.0586569 0.076262 3.6085e-20)
(-0.0600148 0.101864 1.35309e-21)
(-0.0486246 0.122907 5.80136e-20)
(-0.0238386 0.137529 0)
(0.0148262 0.144925 -4.7213e-20)
(0.0680167 0.145475 4.34383e-20)
(0.13708 0.139892 -7.86248e-20)
(0.223668 0.129001 -5.04211e-22)
(0.329001 0.113484 7.0215e-20)
(0.453029 0.0938458 1.97832e-21)
(0.593494 0.070294 6.72422e-20)
(0.7455 0.0433309 -9.05452e-20)
(0.901636 0.0127898 0)
(1.05286 -0.0198094 1.15938e-19)
(1.18883 -0.055357 -1.64813e-19)
(1.30039 -0.0906382 4.90838e-20)
(1.3799 -0.125964 0)
(1.42342 -0.16032 4.13815e-20)
(1.43493 -0.184701 1.55838e-19)
(1.41824 -0.219469 -1.45536e-19)
(1.38855 -0.222458 -1.49516e-19)
(-0.0120782 0.00887375 1.31063e-19)
(-0.0375982 0.0264954 -1.65673e-19)
(-0.0601264 0.041861 6.43494e-22)
(-0.0728221 0.0565582 3.52785e-20)
(-0.0721755 0.0697075 -6.38001e-20)
(-0.0553146 0.0799151 -5.77572e-20)
(-0.019944 0.0861914 1.03083e-19)
(0.0361324 0.0880012 -2.38702e-21)
(0.115058 0.085407 -8.69399e-20)
(0.217943 0.0789057 1.58741e-19)
(0.344384 0.0692029 1.13292e-22)
(0.491189 0.0568436 -6.88438e-20)
(0.652166 0.0421506 0)
(0.818654 0.0252282 0)
(0.980425 0.00622878 -3.03992e-20)
(1.12699 -0.0150766 -5.56774e-20)
(1.24904 -0.0377558 -1.08034e-19)
(1.33941 -0.0628738 1.00716e-19)
(1.39585 -0.0864857 -4.91374e-20)
(1.41918 -0.112611 8.45063e-20)
(1.41803 -0.13347 -4.38576e-20)
(1.4014 -0.154833 6.61398e-20)
(1.37926 -0.179215 -1.57963e-19)
(1.35783 -0.183953 2.95894e-20)
(-0.0193523 0.0148071 4.37493e-20)
(-0.0491833 0.0328432 0)
(-0.0700089 0.0422561 7.62446e-20)
(-0.0761944 0.0481817 -7.06011e-20)
(-0.063941 0.0520279 6.38843e-20)
(-0.0294544 0.0540253 0)
(0.0310444 0.053841 0)
(0.119957 0.0512526 -4.76579e-20)
(0.23805 0.0466555 1.14709e-21)
(0.38269 0.0407772 4.11483e-20)
(0.547152 0.0339483 -3.79574e-20)
(0.721506 0.0262705 6.98429e-20)
(0.893911 0.0175398 0)
(1.05243 0.00734859 1.24406e-19)
(1.18673 -0.00475266 -2.324e-19)
(1.28969 -0.0189844 1.64332e-19)
(1.35834 -0.0351108 1.00353e-19)
(1.39463 -0.053008 -9.3564e-20)
(1.40513 -0.0704556 0)
(1.39847 -0.0907424 0)
(1.38501 -0.105104 0)
(1.36807 -0.128976 0)
(1.35248 -0.140727 2.95868e-20)
(1.33391 -0.15537 -9.58613e-20)
(0.381119 -0.224024 -5.43758e-21)
(0.437246 -0.391015 5.46843e-21)
(0.492653 -0.568305 -1.51633e-22)
(0.542742 -0.72604 0)
(0.579437 -0.833395 -3.02223e-21)
(0.60105 -0.8766 5.33366e-21)
(0.606062 -0.872567 -3.91696e-22)
(0.598278 -0.840937 -1.88183e-21)
(0.591369 -0.790568 0)
(0.580375 -0.749351 0)
(0.549073 -0.745867 -8.58262e-23)
(0.504106 -0.755398 -9.04356e-23)
(0.476991 -0.701934 -1.96009e-21)
(0.493564 -0.529139 1.80571e-21)
(0.546902 -0.252343 0)
(0.614857 0.0686631 0)
(0.681467 0.360435 1.72331e-21)
(0.737685 0.55998 -3.09688e-22)
(0.781292 0.654949 -1.25476e-21)
(0.80686 0.681509 -5.40723e-23)
(0.817972 0.671656 0)
(0.827116 0.642354 0)
(0.830159 0.63113 0)
(0.81308 0.669729 0)
(0.776884 0.721252 0)
(0.735349 0.696876 0)
(0.705997 0.533791 4.28161e-22)
(0.695434 0.246875 -7.00667e-22)
(0.703895 -0.0811058 0)
(0.725038 -0.347378 0)
(0.755399 -0.497459 -3.2271e-22)
(0.786919 -0.555528 3.13566e-22)
(0.806415 -0.573561 1.02822e-22)
(0.794453 -0.589156 0)
(0.746358 -0.598037 0)
(0.676824 -0.557779 2.03533e-22)
(0.620373 -0.422101 -1.97821e-22)
(0.594895 -0.1909 0)
(0.61031 0.0652058 2.04855e-22)
(0.656805 0.269701 -2.8267e-22)
(0.708211 0.389214 6.54187e-23)
(0.71473 0.468778 0)
(0.681201 0.510325 -1.0615e-22)
(0.636938 0.476687 1.03216e-22)
(0.619839 0.343013 0)
(0.630613 0.126772 0)
(0.66724 -0.0787264 -4.91367e-23)
(0.681816 -0.274023 1.41988e-22)
(0.673853 -0.400116 0)
(0.651926 -0.441173 0)
(0.649832 -0.365811 -2.66737e-23)
(0.64668 -0.141214 4.08648e-24)
(0.650396 0.0779134 -2.71523e-24)
(0.628544 0.328714 1.4227e-23)
(0.624805 0.422574 0)
(0.615013 0.304932 0)
(0.61708 0.147873 0)
(0.564175 -0.213758 0)
(0.558603 -0.33204 0)
(0.536163 -0.083547 0)
(0.561838 -0.283676 -5.45781e-22)
(0.61098 -0.448884 -2.11366e-20)
(0.662551 -0.623865 2.12403e-21)
(0.703248 -0.773284 1.77548e-20)
(0.718896 -0.867743 2.1297e-22)
(0.713376 -0.894371 0)
(0.695393 -0.87116 -7.7674e-21)
(0.664698 -0.829075 1.42337e-20)
(0.632395 -0.775744 -6.46298e-21)
(0.604774 -0.723872 5.42224e-21)
(0.56555 -0.704433 -5.17966e-21)
(0.508551 -0.711976 5.78625e-21)
(0.455971 -0.682206 -5.58483e-21)
(0.43816 -0.545884 -1.95528e-22)
(0.464524 -0.296762 -7.61358e-21)
(0.522001 0.00967292 7.39403e-21)
(0.591255 0.298536 -6.22104e-21)
(0.659885 0.50682 5.88061e-21)
(0.720006 0.619131 -3.95065e-21)
(0.761786 0.662554 6.89819e-21)
(0.789658 0.661479 -2.98677e-21)
(0.813861 0.637193 -1.44098e-22)
(0.829625 0.634002 -2.42048e-21)
(0.825011 0.682974 5.05572e-21)
(0.801879 0.742604 -2.6272e-21)
(0.77372 0.720795 2.29756e-22)
(0.756555 0.553117 5.00541e-21)
(0.754756 0.255387 5.33884e-22)
(0.766085 -0.0848904 -9.62143e-21)
(0.782315 -0.361239 8.25944e-21)
(0.800561 -0.514881 -3.62967e-21)
(0.81645 -0.567933 2.88395e-22)
(0.822157 -0.574454 -1.03035e-22)
(0.801161 -0.575053 1.59685e-22)
(0.745535 -0.572352 0)
(0.668427 -0.530614 0)
(0.604586 -0.404848 -7.82378e-22)
(0.576084 -0.190483 5.78536e-22)
(0.595259 0.0488314 5.18635e-22)
(0.64768 0.24825 -2.32909e-23)
(0.701645 0.377282 -6.08114e-22)
(0.709901 0.472275 1.00145e-22)
(0.681329 0.522778 0)
(0.639832 0.488093 0)
(0.623009 0.346095 0)
(0.635124 0.120623 0)
(0.676439 -0.0869362 2.59094e-22)
(0.69433 -0.275173 -9.42931e-23)
(0.6838 -0.396991 0)
(0.656678 -0.437685 0)
(0.650891 -0.365525 0)
(0.645633 -0.14147 -2.9572e-23)
(0.649076 0.0786888 1.57876e-23)
(0.630494 0.330795 -3.43456e-23)
(0.632008 0.42381 0)
(0.623912 0.3066 0)
(0.627051 0.152748 3.94818e-23)
(0.568221 -0.205889 1.2713e-22)
(0.556567 -0.331331 0)
(0.543231 -0.0814318 0)
(0.721624 -0.321835 -1.1331e-21)
(0.768087 -0.482782 -4.42939e-20)
(0.819668 -0.648276 3.72781e-20)
(0.853119 -0.782368 -3.48543e-20)
(0.851638 -0.859858 -2.14477e-22)
(0.82054 -0.87552 0)
(0.777991 -0.844974 -1.57082e-20)
(0.729679 -0.799855 1.53325e-20)
(0.679303 -0.751138 9.16251e-23)
(0.636316 -0.696288 1.50778e-22)
(0.590188 -0.661172 1.38641e-22)
(0.525194 -0.66126 1.60291e-22)
(0.453239 -0.650227 -1.0947e-20)
(0.406222 -0.5527 1.08276e-20)
(0.403892 -0.339957 0)
(0.443912 -0.0557737 3.57983e-22)
(0.511597 0.224983 -1.07901e-20)
(0.589874 0.440748 1.06407e-20)
(0.662988 0.570819 0)
(0.719079 0.632088 0)
(0.762656 0.641877 -4.93304e-21)
(0.801424 0.624085 9.46292e-21)
(0.830549 0.628226 -9.14626e-21)
(0.839461 0.686853 -6.96605e-22)
(0.830822 0.756689 1.18936e-20)
(0.816601 0.741629 -1.53894e-20)
(0.812063 0.574067 1.79252e-20)
(0.819706 0.271339 1.87793e-22)
(0.833473 -0.0762464 -1.04426e-20)
(0.844028 -0.361453 0)
(0.850109 -0.520635 0)
(0.85057 -0.572299 1.45892e-21)
(0.842614 -0.571352 -1.98701e-21)
(0.813915 -0.558975 -8.56853e-24)
(0.752826 -0.545629 1.06131e-21)
(0.669022 -0.504126 -1.03128e-21)
(0.598591 -0.390243 0)
(0.567307 -0.193717 1.82657e-22)
(0.588852 0.0290852 1.27439e-21)
(0.644692 0.224615 -2.233e-21)
(0.700261 0.364374 9.05784e-22)
(0.711313 0.475009 8.07378e-23)
(0.688301 0.53519 -1.14972e-21)
(0.648985 0.500699 9.15775e-22)
(0.631971 0.351096 3.21964e-22)
(0.644527 0.116013 3.36584e-22)
(0.689568 -0.0944522 -2.59783e-22)
(0.710941 -0.275019 0)
(0.698234 -0.392525 0)
(0.664872 -0.433424 -4.23903e-22)
(0.654918 -0.36588 1.92499e-22)
(0.647792 -0.142584 -1.023e-22)
(0.651484 0.0784934 1.3425e-22)
(0.636132 0.331294 1.97305e-22)
(0.642568 0.424987 -6.03482e-23)
(0.635995 0.308083 1.7665e-22)
(0.640796 0.158596 -1.9277e-22)
(0.577091 -0.196238 1.31646e-22)
(0.558567 -0.331182 0)
(0.553734 -0.0805563 0)
(0.870022 -0.356233 -8.6896e-20)
(0.920499 -0.513273 5.73869e-21)
(0.971925 -0.664462 7.66745e-20)
(0.992015 -0.778062 -5.12523e-22)
(0.971036 -0.833181 0)
(0.919256 -0.835033 0)
(0.855941 -0.801244 -3.02013e-20)
(0.792753 -0.75543 4.5421e-21)
(0.729513 -0.713541 3.40125e-20)
(0.673467 -0.665792 -1.10186e-21)
(0.622675 -0.619007 -8.85685e-21)
(0.557196 -0.602038 -8.01647e-21)
(0.474148 -0.599402 8.00623e-21)
(0.401899 -0.541381 0)
(0.371115 -0.375959 -1.02384e-20)
(0.389901 -0.124447 9.30044e-21)
(0.44929 0.14254 0)
(0.530109 0.363046 0)
(0.611181 0.510242 5.94426e-21)
(0.679268 0.589942 -9.33636e-22)
(0.737146 0.612011 -4.55221e-21)
(0.789269 0.601403 -4.25517e-21)
(0.831375 0.611333 4.24272e-21)
(0.854975 0.677515 -5.39834e-21)
(0.861399 0.758174 -1.39253e-21)
(0.860603 0.754528 6.47925e-21)
(0.869088 0.594624 1.16846e-21)
(0.886458 0.292961 7.91245e-24)
(0.90329 -0.0593957 0)
(0.909082 -0.353037 8.17706e-21)
(0.903888 -0.518434 -8.37448e-21)
(0.889446 -0.569956 2.98785e-22)
(0.86738 -0.564697 0)
(0.830984 -0.542383 -1.53025e-22)
(0.76674 -0.518196 1.80198e-21)
(0.677921 -0.47648 -3.40285e-21)
(0.601322 -0.376358 -4.38718e-22)
(0.567087 -0.199772 -1.77577e-24)
(0.589467 0.00702895 1.69821e-21)
(0.646804 0.199082 2.25547e-22)
(0.704127 0.349201 -1.3935e-21)
(0.71869 0.474472 1.17184e-21)
(0.700836 0.546255 4.10002e-24)
(0.664116 0.514493 1.2487e-21)
(0.64766 0.358593 -1.53708e-21)
(0.659735 0.113153 -2.44441e-21)
(0.706838 -0.101755 6.67475e-22)
(0.731461 -0.274347 8.33498e-22)
(0.717048 -0.386726 -1.37916e-21)
(0.6765 -0.427775 7.79779e-22)
(0.661822 -0.36641 -9.78644e-23)
(0.653043 -0.144749 1.75893e-22)
(0.657415 0.0771047 6.16125e-23)
(0.645167 0.330242 -2.35947e-22)
(0.656154 0.426108 -3.50139e-23)
(0.650991 0.309439 -2.12421e-22)
(0.658045 0.165158 0)
(0.59089 -0.184945 -1.26552e-22)
(0.564625 -0.331348 9.67713e-23)
(0.567412 -0.0808361 0)
(1.02192 -0.38972 8.09901e-20)
(1.07085 -0.53387 -1.529e-19)
(1.1109 -0.658134 7.12096e-20)
(1.1079 -0.74329 5.48013e-20)
(1.06199 -0.778265 -9.81583e-20)
(0.992973 -0.772096 7.90104e-21)
(0.917781 -0.742997 3.48983e-20)
(0.847921 -0.702817 2.29625e-20)
(0.780397 -0.665547 -2.24595e-20)
(0.71501 -0.629135 0)
(0.658694 -0.58409 -1.43327e-20)
(0.597685 -0.550936 2.73473e-20)
(0.515078 -0.542123 -1.30803e-20)
(0.426431 -0.51287 0)
(0.368577 -0.398377 0)
(0.362798 -0.189768 2.83673e-22)
(0.407221 0.0560083 -1.40018e-20)
(0.482814 0.27686 1.35941e-20)
(0.565777 0.439121 0)
(0.641972 0.536896 8.15054e-21)
(0.711409 0.572753 -1.47396e-20)
(0.775695 0.570155 1.39347e-20)
(0.83097 0.583809 -1.50495e-20)
(0.868499 0.655107 -1.94809e-21)
(0.888792 0.747543 2.22062e-20)
(0.903224 0.760551 -1.2588e-20)
(0.924973 0.616247 -5.84006e-22)
(0.950888 0.323485 -1.01998e-20)
(0.971463 -0.0300748 3.57791e-22)
(0.974244 -0.332218 9.90494e-21)
(0.959428 -0.505696 4.37262e-22)
(0.931417 -0.559584 -4.1108e-21)
(0.89578 -0.553064 6.78121e-21)
(0.851906 -0.52496 -2.97623e-21)
(0.786766 -0.491868 0)
(0.694856 -0.449137 -1.63309e-21)
(0.611963 -0.362823 1.61057e-21)
(0.573734 -0.207711 -1.43071e-21)
(0.595331 -0.0176822 1.76722e-21)
(0.65282 0.17037 -1.26619e-22)
(0.712234 0.330964 0)
(0.73145 0.471873 -1.34725e-22)
(0.720043 0.556091 6.0175e-22)
(0.687023 0.528567 0)
(0.671423 0.368389 3.91916e-21)
(0.681714 0.112708 -1.458e-21)
(0.728429 -0.108275 6.49672e-22)
(0.755555 -0.272906 5.38482e-22)
(0.740031 -0.379383 0)
(0.691459 -0.420555 0)
(0.671416 -0.366993 -2.84379e-22)
(0.661131 -0.148014 2.50529e-22)
(0.666591 0.0744095 -6.82112e-23)
(0.657334 0.327459 -6.94067e-23)
(0.672455 0.426884 1.6838e-22)
(0.66854 0.310547 2.1265e-22)
(0.678411 0.172028 -5.55917e-22)
(0.609588 -0.172077 0)
(0.574745 -0.331537 -1.82215e-22)
(0.583982 -0.0821702 1.05042e-23)
(1.17846 -0.416715 7.36342e-20)
(1.20962 -0.536824 -7.28809e-20)
(1.22394 -0.628016 5.18694e-22)
(1.19409 -0.684592 -3.97351e-22)
(1.12806 -0.70596 3.69739e-22)
(1.04932 -0.699684 -2.98892e-22)
(0.969885 -0.679584 4.44222e-22)
(0.896429 -0.650101 0)
(0.829338 -0.616495 -2.86625e-22)
(0.761355 -0.585673 2.31666e-22)
(0.698022 -0.548307 1.90564e-22)
(0.640643 -0.506856 -1.95258e-22)
(0.568419 -0.483944 0)
(0.476206 -0.467713 0)
(0.39588 -0.399951 1.34791e-22)
(0.362296 -0.243072 0)
(0.385041 -0.0270417 -1.39642e-22)
(0.448446 0.186511 0)
(0.527844 0.359633 -7.06033e-21)
(0.608007 0.473803 1.28062e-20)
(0.686087 0.523767 -1.1102e-20)
(0.760208 0.529552 5.26947e-21)
(0.825847 0.546184 6.69173e-21)
(0.876301 0.62075 -6.49546e-21)
(0.912315 0.723098 -1.15649e-20)
(0.94099 0.753923 1.13431e-20)
(0.973533 0.630935 0)
(1.00794 0.355978 5.95407e-22)
(1.03349 0.00841478 0)
(1.03631 -0.30105 0)
(1.01505 -0.484262 1.10852e-20)
(0.97559 -0.542729 -1.15894e-20)
(0.927212 -0.537238 3.85965e-22)
(0.874967 -0.506613 2.71099e-22)
(0.810763 -0.466321 -1.58404e-22)
(0.718835 -0.421236 -1.07903e-21)
(0.629791 -0.348115 1.04759e-21)
(0.58546 -0.216039 -1.31981e-21)
(0.604639 -0.0445694 1.114e-21)
(0.661584 0.138971 2.10155e-22)
(0.723966 0.308672 -8.88695e-22)
(0.748858 0.4631 -5.00854e-22)
(0.743504 0.562305 8.48436e-22)
(0.715508 0.543762 0)
(0.702903 0.38153 -1.61786e-21)
(0.711 0.115807 2.44034e-21)
(0.754468 -0.113495 -3.1858e-21)
(0.782778 -0.270966 -5.42083e-22)
(0.766863 -0.370534 0)
(0.709636 -0.411394 9.96082e-23)
(0.683474 -0.367316 -2.99186e-22)
(0.671736 -0.152435 -3.34135e-23)
(0.67864 0.070306 6.41464e-23)
(0.672226 0.323083 8.74489e-23)
(0.691083 0.427615 -1.38077e-22)
(0.6882 0.311413 0)
(0.701413 0.178991 5.56246e-22)
(0.63297 -0.15776 0)
(0.588904 -0.331458 0)
(0.603154 -0.0844307 1.08049e-24)
(1.31216 -0.419379 -6.55067e-20)
(1.31094 -0.508048 6.43862e-20)
(1.293 -0.568307 -4.06724e-22)
(1.24042 -0.605152 4.07373e-22)
(1.16601 -0.621531 0)
(1.08838 -0.621442 0)
(1.01371 -0.611564 -4.55182e-22)
(0.941311 -0.594356 0)