/*--------------------------------*- C++ -*----------------------------------*\
| =========                 |                                                 |
| \\      /  F ield         | OpenFOAM: The Open Source CFD Toolbox           |
|  \\    /   O peration     | Version:  2312                                  |
|   \\  /    A nd           | Website:  www.openfoam.com                      |
|    \\/     M anipulation  |                                                 |
\*---------------------------------------------------------------------------*/
FoamFile
{
    version     2.0;
    format      ascii;
    arch        "LSB;label=32;scalar=64";
    class       volScalarField;
    location    "61.25";
    object      p;
}
// * * * * * * * * * * * * * * * * * * * * * * * * * * * * * * * * * * * * * //

dimensions      [0 2 -2 0 0 0 0];

internalField   nonuniform List<scalar> 
5478
(
-0.553845
-0.549998
-0.54714
-0.546067
-0.54706
-0.547892
-0.544638
-0.533594
-0.512593
-0.481698
-0.443334
-0.399992
-0.355589
-0.309431
-0.26378
-0.561585
-0.556742
-0.55204
-0.54792
-0.543733
-0.536732
-0.524123
-0.50431
-0.477224
-0.444455
-0.408008
-0.370052
-0.331765
-0.293599
-0.257724
-0.573441
-0.567313
-0.5604
-0.552255
-0.540922
-0.524699
-0.503097
-0.476568
-0.446319
-0.413715
-0.380022
-0.346085
-0.312575
-0.279917
-0.248302
-0.590297
-0.58193
-0.571808
-0.557659
-0.537361
-0.511848
-0.482936
-0.452088
-0.420293
-0.388272
-0.356487
-0.32537
-0.295197
-0.266189
-0.238911
-0.612484
-0.599868
-0.585326
-0.562688
-0.532383
-0.498601
-0.464208
-0.430408
-0.397625
-0.365993
-0.335591
-0.306472
-0.278605
-0.252242
-0.226971
-0.639121
-0.620376
-0.598649
-0.565198
-0.524972
-0.484269
-0.445663
-0.409667
-0.376119
-0.344757
-0.315366
-0.28777
-0.261853
-0.237515
-0.214266
-0.665949
-0.641465
-0.608049
-0.562298
-0.513194
-0.466945
-0.425108
-0.387469
-0.3534
-0.322352
-0.293894
-0.267701
-0.243506
-0.221137
-0.199877
-0.686694
-0.657503
-0.609544
-0.55142
-0.494865
-0.44432
-0.400182
-0.361529
-0.327352
-0.296868
-0.269483
-0.244754
-0.222404
-0.20216
-0.183425
-0.419945
-0.423395
-0.426079
-0.429998
-0.435568
-0.442244
-0.4496
-0.456813
-0.462859
-0.466762
-0.467948
-0.466533
-0.463309
-0.459554
-0.45635
-0.444665
-0.448719
-0.453308
-0.460166
-0.469122
-0.479692
-0.491502
-0.502615
-0.510816
-0.51362
-0.508951
-0.495762
-0.473836
-0.44613
-0.413528
-0.470886
-0.474905
-0.480828
-0.490002
-0.502357
-0.517283
-0.532756
-0.547481
-0.557738
-0.559411
-0.548816
-0.524328
-0.483749
-0.434874
-0.371156
-0.495642
-0.498939
-0.505373
-0.515791
-0.529968
-0.54712
-0.565473
-0.58214
-0.592857
-0.592407
-0.574372
-0.540946
-0.485011
-0.420371
-0.340082
-0.516319
-0.518304
-0.524271
-0.534493
-0.548658
-0.565867
-0.584222
-0.599776
-0.607839
-0.602445
-0.578859
-0.536638
-0.474536
-0.402752
-0.323398
-0.531586
-0.53191
-0.536321
-0.544772
-0.556987
-0.571973
-0.587429
-0.599405
-0.602423
-0.590785
-0.561388
-0.51422
-0.452445
-0.384135
-0.311864
-0.541668
-0.54032
-0.54234
-0.547763
-0.5565
-0.567602
-0.578626
-0.584757
-0.580605
-0.561885
-0.527225
-0.478972
-0.4213
-0.362036
-0.29976
-0.548173
-0.545406
-0.54476
-0.546666
-0.551552
-0.55827
-0.56314
-0.561334
-0.548638
-0.522887
-0.485059
-0.437986
-0.386471
-0.334793
-0.283509
-0.470344
-0.503565
-0.458469
-0.359471
-0.258944
-0.205798
-0.20162
-0.222762
-0.229311
-0.183355
-0.144171
-0.1181
-0.097505
-0.0911861
-0.0973747
-0.115668
-0.117044
-0.0932355
-0.0742322
-0.0842253
-0.0970934
-0.0888604
-0.037191
-0.00236661
-0.00655488
-0.020658
-0.0448931
-0.0725482
-0.0779195
-0.0661864
-0.042996
-0.0194044
-0.00589433
0.000231543
0.0030208
0.0030935
0.00194655
0.000836603
-0.38528
-0.380253
-0.335116
-0.276812
-0.230712
-0.206856
-0.220513
-0.261099
-0.265893
-0.200632
-0.145725
-0.11483
-0.0905361
-0.0790652
-0.0862722
-0.108845
-0.111591
-0.087052
-0.0675669
-0.0751288
-0.0903063
-0.0877677
-0.0400186
-0.00288732
-0.00747852
-0.0241912
-0.0522147
-0.0813682
-0.0841494
-0.0692349
-0.0443394
-0.0199033
-0.00602078
0.000226217
0.00307238
0.0031669
0.0020035
0.000893994
-0.299216
-0.257121
-0.205398
-0.174695
-0.17801
-0.18744
-0.220712
-0.283905
-0.286783
-0.21081
-0.144391
-0.111419
-0.0873841
-0.0723401
-0.0772223
-0.101225
-0.105218
-0.0819713
-0.0623947
-0.0672544
-0.0844429
-0.0863679
-0.0438753
-0.00414135
-0.00832135
-0.0272533
-0.0591417
-0.0898124
-0.0903159
-0.0724556
-0.0459436
-0.0206804
-0.00633794
5.87127e-05
0.00297287
0.00314389
0.00203614
0.000942825
-0.231143
-0.162449
-0.0940748
-0.0500165
-0.0792356
-0.131112
-0.198266
-0.284289
-0.28805
-0.212765
-0.142082
-0.10809
-0.0858255
-0.0699687
-0.0714384
-0.0942062
-0.0994508
-0.0785536
-0.0587689
-0.0606214
-0.0796868
-0.0846707
-0.0482294
-0.00578732
-0.00909407
-0.0298383
-0.0651594
-0.0975155
-0.0962498
-0.0757613
-0.0477441
-0.0216827
-0.00681608
-0.000235374
0.00273973
0.00302705
0.00203967
0.000973895
-0.212294
-0.105531
-0.0272115
0.0488248
0.0435772
-0.0481774
-0.155309
-0.26121
-0.26897
-0.203064
-0.137153
-0.103767
-0.0842024
-0.070941
-0.0706607
-0.0904238
-0.0938124
-0.0769452
-0.0568969
-0.0556467
-0.0761615
-0.0830879
-0.0526659
-0.00799986
-0.00913131
-0.031502
-0.070691
-0.104634
-0.101969
-0.0790974
-0.0496836
-0.0228494
-0.00742618
-0.0006141
0.00240851
0.00283214
0.00200895
0.00098016
-0.216778
-0.112194
-0.0242778
0.0764625
0.125138
0.0214957
-0.109957
-0.218099
-0.232565
-0.182686
-0.129049
-0.0985133
-0.0804873
-0.0730277
-0.0725732
-0.0908098
-0.0911993
-0.078302
-0.0569436
-0.0520983
-0.0732424
-0.081791
-0.0571067
-0.010958
-0.00935253
-0.0328147
-0.0746655
-0.110338
-0.107025
-0.0822989
-0.0516922
-0.024139
-0.00814477
-0.00104979
0.00201953
0.00258263
0.00194034
0.00095942
-0.221227
-0.130321
-0.0514629
0.0502316
0.136815
0.0787326
-0.0585317
-0.171946
-0.199481
-0.165788
-0.123027
-0.0949454
-0.0756377
-0.0716471
-0.0776297
-0.0929132
-0.0878917
-0.0808097
-0.0602682
-0.0509298
-0.0715532
-0.0809015
-0.0615663
-0.0161762
-0.00830113
-0.0326082
-0.0783634
-0.115634
-0.111796
-0.085513
-0.0539266
-0.0256632
-0.00900849
-0.00154884
0.00159722
0.0022999
0.00183299
0.000914631
-0.230641
-0.162395
-0.0926165
-0.0145255
0.0803038
0.0822904
-0.00107931
-0.0991211
-0.142916
-0.130696
-0.107931
-0.0896694
-0.0697683
-0.0646414
-0.0800078
-0.108095
-0.0882302
-0.0871489
-0.0657223
-0.0507941
-0.0694849
-0.0796088
-0.0615539
-0.0224655
-0.00875573
-0.0323554
-0.079903
-0.118584
-0.115343
-0.0886107
-0.0560942
-0.027188
-0.00987603
-0.00205418
0.0011764
0.00200453
0.00169093
0.000851584
-0.207954
-0.163339
-0.0970767
-0.0268959
0.0487086
0.0759706
0.0136689
-0.0623471
-0.100552
-0.0984864
-0.0848573
-0.0735979
-0.0599708
-0.0550888
-0.0738176
-0.0673181
-0.0823817
-0.0944291
-0.0779778
-0.0543857
-0.0695093
-0.0830648
-0.0606599
-0.0244566
-0.00299992
-0.0298021
-0.0817717
-0.123143
-0.120107
-0.0904402
-0.0567381
-0.0278044
-0.0104061
-0.00248959
0.000736402
0.00165056
0.00148959
0.000758927
-0.168948
-0.135447
-0.0826909
-0.032005
0.0152807
0.0371403
0.0078779
-0.0374138
-0.0632435
-0.064715
-0.0586333
-0.0548323
-0.0456336
-0.0434186
-0.0746446
-0.106711
-0.0898394
-0.106636
-0.0952365
-0.060665
-0.0661401
-0.0783538
-0.0605412
-0.0274032
-0.0144634
-0.0351719
-0.0856588
-0.127225
-0.122312
-0.0908385
-0.0567519
-0.0283471
-0.0110523
-0.00305138
0.000196559
0.00119924
0.00120249
0.000616979
-0.138313
-0.11982
-0.0834325
-0.0452995
-0.0115185
0.00862155
-0.00040185
-0.0248364
-0.0417707
-0.0450551
-0.043936
-0.0420628
-0.0328217
-0.0252645
-0.0546432
-0.0842329
-0.0849908
-0.113921
-0.114277
-0.0683631
-0.0628207
-0.0730888
-0.0600435
-0.0336075
-0.0233758
-0.0425489
-0.0891679
-0.128309
-0.122656
-0.0898942
-0.0561179
-0.0286927
-0.011665
-0.00362181
-0.000327757
0.000757241
0.00089873
0.00046866
-0.11093
-0.100968
-0.0765731
-0.0488954
-0.0252392
-0.00978196
-0.0086976
-0.0198695
-0.0290544
-0.029088
-0.0261994
-0.0231574
-0.0158276
-0.00826709
-0.0267569
-0.0425697
-0.055447
-0.106829
-0.126601
-0.0739498
-0.0583469
-0.063593
-0.056087
-0.0422163
-0.0375234
-0.05115
-0.0896247
-0.124716
-0.118726
-0.0865212
-0.0542239
-0.0285194
-0.0121252
-0.00415904
-0.000826039
0.000332312
0.000574811
0.000323952
-0.0891132
-0.084964
-0.0701465
-0.0509047
-0.0338373
-0.0211673
-0.0157109
-0.0180274
-0.0217016
-0.0205872
-0.0181152
-0.0157696
-0.00469851
0.0087909
0.0104645
0.0188096
-0.000246977
-0.0767126
-0.114086
-0.0718631
-0.0543345
-0.0548126
-0.0503871
-0.0515918
-0.0552132
-0.0599738
-0.0853784
-0.115407
-0.110808
-0.0806874
-0.0510521
-0.0277773
-0.0123953
-0.00463116
-0.00128686
-6.56681e-05
0.00030675
0.000196141
-0.0715357
-0.0698662
-0.0606667
-0.0477348
-0.035325
-0.0255592
-0.0191202
-0.0174782
-0.0173157
-0.0138734
-0.00905495
-0.00387003
0.00697597
0.020428
0.0286175
0.0410622
0.0338541
-0.0352022
-0.0766081
-0.0578184
-0.0453327
-0.0409736
-0.0401721
-0.0590047
-0.0700887
-0.0654612
-0.0760289
-0.100277
-0.0975281
-0.0718633
-0.0463362
-0.0262905
-0.012389
-0.00499669
-0.00169431
-0.000428549
-2.22203e-05
7.98297e-05
-0.0563912
-0.0566082
-0.0514925
-0.0430775
-0.0340934
-0.0263301
-0.0202933
-0.0162396
-0.0136205
-0.00979338
-0.00496383
-0.000630618
0.00919768
0.022309
0.0321192
0.0401909
0.0395142
-0.00539221
-0.0397407
-0.0397247
-0.03617
-0.0309905
-0.0276888
-0.0596396
-0.0818505
-0.0657426
-0.0602898
-0.0782627
-0.0796485
-0.0607447
-0.0403942
-0.0241015
-0.0120704
-0.00522636
-0.0020351
-0.000748484
-0.000229151
-1.47652e-05
-0.0442153
-0.0453731
-0.042556
-0.0370201
-0.0305873
-0.0245742
-0.0192756
-0.0148506
-0.0115316
-0.00755438
-0.00242464
0.00294682
0.0112859
0.0215852
0.0279949
0.0321663
0.0315037
0.00745366
-0.0157669
-0.0234356
-0.0252433
-0.0182748
-0.0132736
-0.0473407
-0.0750508
-0.0544592
-0.0400822
-0.0549965
-0.0604456
-0.0488002
-0.0338763
-0.0213804
-0.0114218
-0.00528577
-0.0022874
-0.00101857
-0.000514182
-0.000101984
-0.0343445
-0.0357607
-0.034304
-0.030731
-0.0262238
-0.0216181
-0.0172445
-0.0131876
-0.00958077
-0.00571809
-0.00110584
0.00343174
0.0093642
0.0167796
0.0215068
0.0235552
0.0224773
0.0106765
-0.00367093
-0.0114988
-0.0150226
-0.00943012
-0.00346468
-0.0223959
-0.0381254
-0.027422
-0.0199678
-0.035443
-0.0444909
-0.0375177
-0.0272474
-0.0181376
-0.0103297
-0.00509408
-0.00240891
-0.00120889
-0.000647055
-0.000160402
-0.0262362
-0.0276644
-0.0270034
-0.0246898
-0.0215287
-0.0180812
-0.0146223
-0.0112279
-0.00797821
-0.00468572
-0.000933161
0.00301385
0.00752122
0.0125421
0.016004
0.017052
0.0158235
0.00999453
0.0017759
-0.00444592
-0.00700211
-0.00299901
0.00251116
-0.00210741
-0.00820046
-0.0034778
-0.00565037
-0.0210183
-0.0290221
-0.0265445
-0.0206227
-0.0147519
-0.00907068
-0.00479409
-0.00245887
-0.00134538
-0.000976776
-0.00021311
-0.0196208
-0.0209111
-0.0206675
-0.0191633
-0.016968
-0.0144985
-0.0118975
-0.0092255
-0.00654404
-0.00382052
-0.000839297
0.00228476
0.00549057
0.00877753
0.011203
0.0119973
0.0111625
0.00827599
0.00380114
1.60696e-07
-0.00174949
0.000715204
0.00503443
0.00619752
0.00399474
0.00676025
0.00107532
-0.0113889
-0.0183546
-0.0184668
-0.0152961
-0.0116642
-0.00768106
-0.00433093
-0.00240252
-0.00136695
-0.000288666
-0.00018606
-0.0142527
-0.0153416
-0.0153261
-0.0143938
-0.012935
-0.0111721
-0.00924445
-0.00722013
-0.00514751
-0.00304277
-0.000834752
0.00148306
0.00379158
0.00601497
0.00772211
0.0084651
0.00807423
0.0066475
0.00444411
0.00237492
0.00146833
0.00284647
0.00574049
0.00747069
0.00698738
0.00819533
0.0030729
-0.00587376
-0.0110357
-0.0118719
-0.0105132
-0.00857038
-0.00607334
-0.00367529
-0.00222976
-0.00138733
-0.000784572
-0.000245884
-0.00988486
-0.0107935
-0.0109061
-0.0103346
-0.00934672
-0.00813487
-0.00678676
-0.00534137
-0.0038366
-0.00229507
-0.000705999
0.000963011
0.00260691
0.00415286
0.00541247
0.00601527
0.00597349
0.00538492
0.00440779
0.00339172
0.00304101
0.0036712
0.00533214
0.00666504
0.0067392
0.00698388
0.00307575
-0.00289274
-0.00650111
-0.00798933
-0.00708135
-0.00613011
-0.00469285
-0.00304649
-0.00201682
-0.00133705
-0.000570614
-0.000202907
-0.00637983
-0.00710974
-0.00726578
-0.00693469
-0.00630975
-0.00552457
-0.00462341
-0.00362555
-0.00257511
-0.00149637
-0.000403749
0.000741196
0.00187481
0.00294125
0.00381088
0.00436787
0.00456533
0.0044175
0.00408312
0.00368641
0.00360998
0.00394602
0.00477498
0.00556593
0.00560413
0.00538851
0.0026487
-0.00114757
-0.0033208
-0.00397732
-0.00407817
-0.00379851
-0.00320709
-0.00230062
-0.00174173
-0.00129301
-0.000836791
-0.000272405
-0.00355462
-0.00412905
-0.00431024
-0.00415563
-0.00379247
-0.00330727
-0.00272922
-0.00207412
-0.00138052
-0.000667965
4.72087e-05
0.000805267
0.00156447
0.00229552
0.002902
0.00336941
0.00364831
0.00373269
0.00372795
0.00361936
0.00366789
0.00382313
0.00418885
0.00454688
0.00445671
0.00409877
0.00224861
-4.91039e-05
-0.00131236
-0.00190487
-0.00196969
-0.00202223
-0.0019528
-0.00152793
-0.00132929
-0.00108409
-0.000516099
-0.000164438
-0.0012834
-0.00174226
-0.00193448
-0.001895
-0.00171022
-0.00143852
-0.00109886
-0.000698352
-0.000271459
0.000169309
0.000602792
0.00107367
0.00155657
0.00204425
0.00246979
0.00281924
0.00309378
0.00324973
0.00337275
0.00338158
0.00347559
0.00354083
0.00365759
0.00381206
0.00361011
0.00327985
0.00203911
0.00069963
9.56982e-05
-0.00033693
-0.000318741
-0.000482017
-0.000865651
-0.000912505
-0.00102186
-0.000953464
-0.000663686
-0.000221513
0.000513002
0.000152503
-3.32428e-05
-6.87799e-05
-9.63568e-06
0.000110605
0.000282084
0.000501021
0.000738435
0.000985972
0.00122538
0.00149771
0.00178004
0.00208163
0.0023486
0.0026005
0.00282796
0.00298744
0.00314374
0.00319213
0.00328437
0.00328981
0.00329737
0.00332704
0.00310148
0.00284447
0.00205144
0.00130714
0.00102994
0.000686517
0.000832213
0.000756583
0.0002989
-8.64559e-06
-0.000386314
-0.000529353
-0.000220666
-4.8971e-05
0.00193937
0.0016513
0.00147221
0.00138967
0.00136916
0.00139124
0.00144967
0.0015445
0.00164778
0.00176009
0.00185988
0.00198936
0.00212611
0.0022918
0.00244549
0.00259292
0.00275286
0.00287513
0.00301817
0.00305868
0.00312233
0.00309835
0.0030433
0.00305904
0.00286306
0.00269919
0.00221108
0.00179447
0.00178032
0.00148571
0.00170564
0.00169142
0.00106932
0.000555879
7.22635e-05
-0.000174431
-0.0001885
-6.02735e-05
0.00305944
0.00282842
0.00266074
0.00255301
0.00248041
0.00243735
0.00241678
0.00242829
0.00244216
0.00246446
0.00247616
0.00251163
0.00255603
0.00261354
0.00269084
0.00276223
0.00286894
0.00294608
0.00304884
0.00307918
0.00309565
0.00306823
0.00297727
0.00297936
0.002841
0.00272521
0.00249246
0.00226463
0.00235585
0.00239337
0.00245191
0.00250723
0.00204776
0.00144933
0.00088914
0.000505113
0.000356361
0.000148393
0.00393864
0.00375739
0.0036048
0.0034849
0.00337957
0.00329868
0.00322881
0.00318379
0.00313877
0.00310269
0.00306618
0.00304319
0.00303996
0.00303343
0.00304896
0.00305524
0.00310689
0.00313155
0.00316281
0.00319723
0.00315115
0.00317449
0.00306016
0.00305969
0.00298186
0.0028368
0.00279744
0.00256021
0.00261435
0.00267289
0.00256756
0.00265765
0.00243966
0.00199044
0.00156395
0.00109987
0.000580291
0.000191243
0.00451935
0.00436362
0.00422233
0.00409883
0.00398137
0.00387544
0.0037745
0.00368825
0.00360571
0.00353105
0.00346096
0.0034006
0.00335042
0.00330532
0.00327094
0.00324773
0.00323304
0.00322121
0.00319813
0.00318833
0.00313628
0.00311378
0.00304153
0.00298088
0.00291559
0.00279338
0.0027579
0.00264062
0.00259314
0.00260495
0.00250518
0.00249293
0.00232161
0.00198341
0.0016407
0.00125427
0.000787822
0.000278208
0.00494958
0.00481395
0.0046816
0.00455609
0.00443242
0.00431468
0.004199
0.0040905
0.00398415
0.00388561
0.00379051
0.00370532
0.00362465
0.00355221
0.00348343
0.00342546
0.00337194
0.00332754
0.00327495
0.00323431
0.00318318
0.00314
0.00308429
0.00301905
0.00296617
0.00287109
0.00283299
0.00273949
0.00269669
0.00267633
0.00259286
0.00255296
0.00235636
0.00204598
0.00167294
0.00121031
0.000749518
0.000249145
0.00515351
0.00502391
0.00489429
0.00476839
0.00464277
0.00452003
0.00439661
0.0042782
0.00416157
0.00405365
0.00394768
0.00385149
0.00375529
0.00366986
0.00358353
0.0035106
0.00343773
0.00337599
0.00331082
0.00324993
0.00319186
0.00312854
0.00307534
0.00299941
0.00294996
0.00286156
0.00281328
0.00274551
0.0026679
0.00263738
0.00252839
0.00245689
0.00229201
0.00201268
0.00168042
0.0012415
0.000776905
0.000274037
-0.159415
-0.171075
-0.182072
-0.191338
-0.200015
-0.203327
-0.205906
-0.20445
-0.132523
-0.139531
-0.145663
-0.150757
-0.154014
-0.155839
-0.157788
-0.164179
-0.107989
-0.112068
-0.114903
-0.118156
-0.120565
-0.125031
-0.12827
-0.134591
-0.0882076
-0.0904703
-0.0920303
-0.0950701
-0.0975402
-0.101386
-0.103072
-0.106671
-0.0713977
-0.0729846
-0.0741641
-0.0764305
-0.0777914
-0.0794429
-0.0799673
-0.083393
-0.0577739
-0.0586156
-0.059128
-0.0600685
-0.0604514
-0.0614734
-0.0630108
-0.0667145
-0.0461275
-0.0463974
-0.0464764
-0.0469342
-0.0475084
-0.0487475
-0.0502281
-0.052696
-0.036518
-0.0365158
-0.0364994
-0.0368109
-0.037278
-0.0380081
-0.0389089
-0.04088
-0.0285793
-0.028442
-0.0283104
-0.0283923
-0.0286174
-0.0290773
-0.029867
-0.0315781
-0.0219329
-0.0217405
-0.0215493
-0.0215169
-0.0216418
-0.0219894
-0.0226451
-0.0240164
-0.0163898
-0.0162106
-0.0160214
-0.0159407
-0.0159978
-0.0162452
-0.0167611
-0.0178512
-0.0117691
-0.0116325
-0.0114717
-0.0113845
-0.0114176
-0.0116069
-0.0120151
-0.0128687
-0.00794811
-0.00786362
-0.00775842
-0.00770099
-0.00772384
-0.00785393
-0.00815574
-0.00880963
-0.00479715
-0.00476727
-0.00471477
-0.0046808
-0.00469429
-0.00479129
-0.00503336
-0.00554659
-0.00220444
-0.00221936
-0.00221532
-0.00221912
-0.00225421
-0.00234792
-0.00254377
-0.0029299
-0.000112867
-0.000163567
-0.000199888
-0.000236059
-0.000286032
-0.000369738
-0.000522708
-0.000811661
0.00157426
0.00150043
0.0014385
0.00137936
0.00131316
0.00122616
0.0010931
0.000869941
0.00290989
0.0028221
0.00274316
0.00266691
0.0025879
0.00249845
0.00238228
0.00220978
0.00397141
0.00387144
0.00378044
0.00369333
0.00360581
0.003514
0.00340767
0.00326931
0.00474982
0.00464677
0.00455512
0.00446927
0.00438358
0.00429689
0.00420358
0.00409659
0.00530295
0.00519986
0.00510953
0.00502514
0.00493908
0.00485022
0.00475577
0.00465593
0.00568683
0.00557433
0.00547803
0.00539364
0.00531324
0.0052334
0.00515026
0.00506463
0.00588478
0.00577124
0.00567087
0.00558388
0.00550398
0.00542634
0.00534574
0.00526273
0.0160851
0.0180111
0.0190962
0.0187949
0.0166013
0.0124601
0.0062221
-0.0027074
-0.0153751
-0.0332646
-0.0584152
-0.0936791
-0.14376
-0.212047
-0.27441
-0.0106561
-0.011479
-0.0147334
-0.0197344
-0.0263308
-0.0348684
-0.045954
-0.0604482
-0.0795129
-0.104723
-0.138257
-0.182914
-0.243319
-0.324206
-0.39136
-0.0367903
-0.0406471
-0.0481443
-0.0574097
-0.0680601
-0.0807527
-0.0963907
-0.115977
-0.14075
-0.172364
-0.213166
-0.266111
-0.334377
-0.425942
-0.490912
-0.0636853
-0.0708079
-0.0816542
-0.0940651
-0.107987
-0.124327
-0.144032
-0.168092
-0.197784
-0.234776
-0.28137
-0.341244
-0.416287
-0.509366
-0.57145
-0.0908353
-0.101172
-0.114458
-0.129153
-0.145718
-0.165154
-0.188281
-0.215981
-0.249576
-0.290834
-0.341495
-0.406041
-0.48458
-0.574849
-0.631741
-0.116727
-0.130217
-0.145436
-0.162011
-0.180859
-0.202881
-0.228738
-0.259171
-0.295542
-0.339525
-0.393289
-0.459405
-0.537779
-0.622279
-0.671637
-0.140845
-0.156909
-0.173583
-0.192019
-0.213029
-0.237204
-0.265136
-0.297605
-0.335733
-0.381081
-0.435593
-0.50082
-0.575828
-0.651167
-0.692466
-0.163791
-0.180606
-0.198943
-0.21938
-0.242364
-0.268313
-0.297767
-0.331454
-0.370322
-0.415677
-0.469029
-0.531131
-0.599466
-0.662318
-0.696691
0.184287
0.198835
0.215166
0.233644
0.254284
0.276972
0.301619
0.328178
0.356567
0.386525
0.417461
0.448203
0.476756
0.499151
0.517528
0.177197
0.190481
0.205734
0.223293
0.242987
0.264564
0.287896
0.312935
0.339585
0.36754
0.396136
0.424108
0.449326
0.467863
0.482453
0.165953
0.177241
0.190827
0.206927
0.225065
0.244779
0.265861
0.288237
0.311762
0.336048
0.360313
0.383141
0.402167
0.413602
0.421507
0.150536
0.159292
0.170779
0.184907
0.20083
0.217899
0.23585
0.254565
0.273812
0.293053
0.311309
0.326946
0.337255
0.338456
0.337393
0.131091
0.13706
0.146312
0.158205
0.171395
0.18507
0.198977
0.213011
0.226863
0.239828
0.250687
0.257535
0.257277
0.245935
0.233432
0.107858
0.110632
0.117509
0.127009
0.137183
0.147081
0.156454
0.165176
0.172833
0.178552
0.180888
0.177666
0.165399
0.139906
0.11394
0.081621
0.0815894
0.0861904
0.0927223
0.0990868
0.104541
0.108933
0.112005
0.1131
0.111106
0.104351
0.0903821
0.0653578
0.0250932
-0.0148088
0.0509529
0.0498185
0.0534206
0.0569608
0.0590265
0.0595117
0.0584723
0.0555059
0.0497057
0.0397254
0.0236687
-0.00118957
-0.0391127
-0.0939814
-0.146712
0.0235509
0.0284912
0.0246376
0.0284677
0.0262708
0.0304948
0.0288131
0.0332548
0.0327368
0.037273
0.0381661
0.0431087
0.0457739
0.0515026
0.0562842
0.0636656
0.0711606
0.0812184
0.0923085
0.106302
0.122199
0.141714
0.164043
0.0235061
0.0284085
0.0245835
0.0283775
0.0262048
0.0303705
0.0287382
0.033074
0.0326183
0.0370543
0.0379371
0.0427964
0.0454159
0.0510406
0.0557883
0.0630308
0.0703041
0.0801148
0.0906518
0.104256
0.119193
0.137899
0.158683
0.0234711
0.0283017
0.0245457
0.0282589
0.0261653
0.0302123
0.0286965
0.0328581
0.0325326
0.0368026
0.037742
0.0424794
0.0450514
0.0504787
0.0551163
0.0620958
0.069115
0.078654
0.0884155
0.101418
0.114945
0.132312
0.150405
0.0234444
0.0281727
0.0245229
0.0281163
0.0261404
0.0300254
0.0286788
0.0326207
0.0324749
0.0365309
0.037574
0.0421674
0.0447209
0.0500824
0.0546488
0.061551
0.0680156
0.0772692
0.0859613
0.0981364
0.109613
0.124956
0.139083
0.0234265
0.0280247
0.0245125
0.0279538
0.0261549
0.0298161
0.0286793
0.0323619
0.0324342
0.0362239
0.0374163
0.0417674
0.0443426
0.0493199
0.0538703
0.0603184
0.0663785
0.0750035
0.0826392
0.0936117
0.102768
0.115459
0.124537
0.0234107
0.0278603
0.0245118
0.0277753
0.026167
0.0295971
0.0286998
0.0321212
0.0324192
0.0359579
0.0373161
0.0415194
0.04414
0.0492227
0.053497
0.0597755
0.0651704
0.0733034
0.0794723
0.0889765
0.0949284
0.104295
0.107092
0.0234091
0.0276822
0.0245184
0.0275878
0.0261894
0.0293661
0.0287108
0.0318465
0.0323847
0.0356238
0.037152
0.0410521
0.0436353
0.0482648
0.052533
0.0580826
0.0630997
0.0700342
0.0751605
0.0825779
0.0857999
0.0906425
0.0868998
0.0234009
0.0274986
0.0245239
0.0274
0.026224
0.0291661
0.0287661
0.0316739
0.0324136
0.0354676
0.0371674
0.0410107
0.0436752
0.0483649
0.0522141
0.05773
0.0619665
0.0682343
0.0712792
0.0764707
0.0751621
0.0755983
0.0634687
0.0233879
0.0272532
0.0245428
0.0271246
0.0262395
0.0288081
0.0287332
0.0312474
0.0322802
0.0349235
0.0367999
0.0402148
0.0427583
0.0465804
0.0502143
0.0543263
0.0580456
0.0616396
0.0635502
0.0643817
0.0602915
0.0519901
0.0333706
0.0233778
0.026916
0.024571
0.0267393
0.0262309
0.0283049
0.0286239
0.0305653
0.0319245
0.0339191
0.0359176
0.0385514
0.0410153
0.0440137
0.047044
0.0496111
0.0521239
0.0532431
0.0532708
0.0501333
0.0442898
0.0331179
0.0183684
0.0233874
0.0264996
0.0246138
0.0262783
0.0262337
0.0277072
0.0284969
0.0298133
0.031467
0.032928
0.03494
0.0369877
0.0391593
0.0412586
0.0434855
0.0447479
0.0458327
0.0451004
0.0431442
0.0381294
0.0309576
0.0199861
0.00632262
0.0234176
0.0259948
0.0246723
0.0257439
0.026227
0.0270945
0.0282535
0.0291273
0.0308359
0.0318687
0.0337599
0.0351985
0.0369777
0.0382771
0.0395222
0.0397606
0.0393971
0.0372838
0.0338548
0.0278995
0.0201451
0.00984684
-0.00243536
0.023472
0.0253905
0.0247371
0.0252041
0.0261141
0.0265445
0.0278647
0.028397
0.0300231
0.030777
0.0323341
0.0332791
0.0345076
0.0351313
0.0353632
0.0347361
0.0331706
0.030077
0.0257627
0.0195254
0.0119228
0.00258174
-0.00828256
0.0235528
0.0247077
0.0247161
0.0247374
0.0258855
0.0259962
0.0273317
0.027654
0.0290428
0.0295801
0.0307021
0.0312052
0.0318519
0.0318367
0.0311922
0.029796
0.0274198
0.0237541
0.0190872
0.0130211
0.00594957
-0.00240022
-0.0120032
0.0236247
0.0240456
0.0245663
0.0243143
0.0255398
0.0254547
0.0266586
0.0268705
0.0279095
0.0282716
0.0289097
0.0289879
0.0290926
0.0284935
0.0271623
0.0251843
0.0223442
0.0184725
0.0138063
0.00817125
0.00180155
-0.00551044
-0.0138445
0.0236481
0.0234165
0.0243058
0.0239185
0.0250716
0.0249043
0.0258513
0.0260108
0.0266695
0.0268376
0.0270077
0.0266799
0.0263191
0.0252351
0.0234194
0.0210679
0.0180424
0.0142408
0.00980665
0.00473747
-0.000828404
-0.00703624
-0.0140387
0.0235964
0.0228427
0.0239259
0.0235307
0.0244812
0.0243301
0.0249486
0.0250545
0.0253581
0.0252901
0.0250431
0.024361
0.0236235
0.0221822
0.0200746
0.0175491
0.0145412
0.0109975
0.00696691
0.00254289
-0.00217956
-0.00730852
-0.0130423
0.0234494
0.0223355
0.0234255
0.0231324
0.0237908
0.023687
0.0239871
0.023993
0.0239973
0.023669
0.0230686
0.0221152
0.0210975
0.0194358
0.0172042
0.0146698
0.0118264
0.0086507
0.00512918
0.00137331
-0.00254484
-0.00670043
-0.0113098
0.0231917
0.0218959
0.0228231
0.0226934
0.0230421
0.0229558
0.0229923
0.0228483
0.0226012
0.0220224
0.0211476
0.0200191
0.0188207
0.0170622
0.0148339
0.0124154
0.00983731
0.00708489
0.0041048
0.0009874
-0.00221152
-0.00553663
-0.00919511
0.0228169
0.0215111
0.0221513
0.0221701
0.0222616
0.0221319
0.0219821
0.0216686
0.021194
0.0204006
0.0193383
0.0181281
0.0168536
0.0151002
0.0129602
0.0107326
0.00847652
0.00616356
0.00370609
0.00115904
-0.0014292
-0.00407216
-0.00694875
0.0223284
0.0211588
0.0214597
0.0215364
0.0214529
0.0212376
0.0209645
0.0205054
0.019822
0.0188529
0.0176876
0.0164783
0.015219
0.0135453
0.0115445
0.00954268
0.00762587
0.00574038
0.00376033
0.00169974
-0.000391624
-0.00249108
-0.00473731
0.0217416
0.020791
0.0207959
0.0208126
0.0206084
0.0202912
0.019945
0.019389
0.018537
0.0174277
0.0162227
0.0150776
0.0139081
0.0123673
0.0105353
0.00876
0.00716344
0.0056688
0.00411048
0.00245675
0.000759712
-0.000918467
-0.0026666
0.021086
0.0203518
0.0201743
0.0200891
0.0197412
0.0193047
0.0189208
0.018332
0.0173763
0.016169
0.0149648
0.0139196
0.012886
0.0115157
0.00987313
0.00830775
0.00698617
0.00582497
0.00462631
0.0033124
0.00192974
0.000572794
-0.000793971
0.020386
0.019836
0.0195861
0.0193848
0.0188795
0.0183286
0.0179175
0.0173394
0.016354
0.0151059
0.0139273
0.0129881
0.0121034
0.0109228
0.00948197
0.00811027
0.00701214
0.00611477
0.00520666
0.00417407
0.00305036
0.00194567
0.000867972
0.0196758
0.0192577
0.018992
0.0186902
0.0180654
0.0174235
0.0169756
0.0164155
0.0154577
0.0142378
0.0131087
0.0122661
0.0115196
0.0105247
0.00928639
0.00809911
0.00718118
0.00647984
0.00578922
0.00497782
0.00406677
0.00316661
0.00231304
0.0189894
0.0186632
0.0183825
0.0180038
0.0173158
0.0166136
0.0161287
0.0155771
0.0146812
0.0135516
0.0124895
0.0117269
0.0110968
0.0102679
0.00921773
0.00819863
0.00742766
0.00686912
0.00633727
0.00569607
0.00495545
0.00421745
0.00353562
0.018334
0.0180661
0.017784
0.0173559
0.0166517
0.0159173
0.0153873
0.0148388
0.0140349
0.013028
0.0120426
0.0113353
0.0107982
0.0101173
0.00923382
0.00835689
0.00769534
0.00723722
0.00682346
0.00632218
0.00572567
0.00511921
0.00456657
0.0177466
0.0175177
0.0172182
0.0167644
0.0160855
0.0153378
0.0147572
0.0142149
0.0135157
0.0126415
0.0117297
0.0110598
0.0105989
0.0100452
0.00930195
0.0085323
0.00794124
0.00755244
0.0072348
0.00685547
0.00637761
0.00586426
0.00538859
0.0172563
0.0170379
0.0167246
0.0162626
0.0156171
0.0148853
0.0142642
0.0137229
0.013105
0.0123355
0.0115032
0.0108729
0.0104602
0.0100042
0.00938169
0.00870117
0.00814556
0.00778604
0.00753979
0.00727516
0.00691966
0.00649899
0.00608674
0.0168853
0.0166684
0.0163518
0.0158869
0.0152639
0.0145622
0.0139262
0.0133858
0.0128154
0.0121188
0.0113741
0.0107842
0.0103854
0.00999777
0.00948004
0.00887396
0.00832683
0.0079442
0.00770452
0.00750679
0.00725939
0.00693856
0.00658767
0.0166843
0.0164717
0.0161406
0.0156632
0.015059
0.0143837
0.0137327
0.013176
0.012644
0.0120182
0.0113148
0.0107136
0.0103103
0.00997986
0.00955004
0.00900332
0.00845695
0.0080375
0.00778093
0.00762203
0.00746208
0.00724108
0.00696788
0.0125106
-0.0114731
-0.0380571
-0.0618797
-0.0846161
-0.106545
-0.127137
-0.144739
0.00195045
-0.0203488
-0.0459855
-0.067251
-0.0839167
-0.0987643
-0.112251
-0.123444
-0.00724932
-0.0249361
-0.0462603
-0.0628725
-0.0742967
-0.0843158
-0.0936833
-0.101968
-0.0142813
-0.0285735
-0.0454597
-0.0585613
-0.0670106
-0.0738451
-0.0798085
-0.0848995
-0.0188939
-0.030406
-0.0426356
-0.0519827
-0.0578981
-0.0623188
-0.0660295
-0.0692927
-0.0214006
-0.0303772
-0.0385902
-0.0448983
-0.0491762
-0.0522426
-0.0546393
-0.0566067
-0.0219535
-0.0287417
-0.0338721
-0.0377843
-0.0407637
-0.042942
-0.0444967
-0.0455954
-0.0208207
-0.0258725
-0.0288959
-0.031119
-0.0330864
-0.0346557
-0.0357208
-0.036331
-0.0185789
-0.0223149
-0.0239888
-0.0251017
-0.0263126
-0.0274251
-0.0281888
-0.0285521
-0.0157454
-0.0184979
-0.0193422
-0.019761
-0.0204323
-0.0211911
-0.0217447
-0.0219759
-0.0126923
-0.0147096
-0.0150637
-0.0150768
-0.0153835
-0.0158759
-0.0162775
-0.0164419
-0.00966666
-0.0111328
-0.0112106
-0.0110092
-0.0110853
-0.0113838
-0.0116708
-0.0117996
-0.00681842
-0.00786938
-0.00780299
-0.00751262
-0.00746163
-0.00763152
-0.00783926
-0.00795289
-0.00423276
-0.00496715
-0.00483174
-0.00452654
-0.00441973
-0.00451233
-0.00466606
-0.00476996
-0.00195724
-0.00245408
-0.00229023
-0.0020055
-0.00188418
-0.00193485
-0.00205365
-0.00215203
4.15502e-06
-0.000325162
-0.000156698
9.24063e-05
0.000204458
0.000168634
6.39889e-05
-3.79869e-05
0.0016739
0.00146121
0.00161843
0.00182368
0.00191248
0.00187562
0.00177397
0.00166591
0.00306119
0.00292595
0.00306162
0.00321972
0.00327749
0.00322956
0.00312478
0.00301125
0.00421014
0.00412529
0.00423785
0.00435481
0.00438324
0.0043208
0.00420754
0.00408462
0.00509624
0.00502815
0.00510993
0.00519105
0.00519596
0.00512136
0.00499991
0.00486931
0.0058197
0.00572702
0.00574837
0.00577998
0.00576013
0.00567831
0.00555583
0.00542396
0.00633008
0.00620752
0.00617563
0.00616865
0.00613677
0.00606047
0.00594602
0.00581487
0.00671996
0.00654493
0.00642589
0.00635041
0.00628916
0.0062164
0.00612028
0.00600554
-0.333439
-0.34158
-0.353558
-0.369373
-0.390174
-0.417077
-0.447212
-0.474112
-0.332894
-0.339762
-0.349543
-0.36254
-0.379579
-0.400776
-0.425227
-0.448193