/*--------------------------------*- C++ -*----------------------------------*\
| =========                 |                                                 |
| \\      /  F ield         | OpenFOAM: The Open Source CFD Toolbox           |
|  \\    /   O peration     | Version:  2312                                  |
|   \\  /    A nd           | Website:  www.openfoam.com                      |
|    \\/     M anipulation  |                                                 |
\*---------------------------------------------------------------------------*/
FoamFile
{
    version     2.0;
    format      ascii;
    arch        "LSB;label=32;scalar=64";
    class       volVectorField;
    location    "39.5";
    object      U;
}
// * * * * * * * * * * * * * * * * * * * * * * * * * * * * * * * * * * * * * //

dimensions      [0 1 -1 0 0 0 0];

internalField   nonuniform List<vector> 
940
(
(-0.130899 0.0397194 1.25863e-19)
(0.170157 0.0473263 0)
(0.60612 0.100679 7.27533e-20)
(0.904002 0.114511 -5.28902e-20)
(1.09874 0.160596 -6.50758e-20)
(1.28067 0.156438 4.79539e-20)
(-0.0586943 0.0361879 -1.67684e-19)
(0.774635 0.130834 5.92093e-21)
(1.11141 0.230135 -4.48048e-20)
(1.24522 0.250977 4.83633e-20)
(1.28416 0.239651 0)
(1.22323 0.22402 -3.40518e-20)
(0.448773 0.238487 -1.96615e-20)
(1.12878 0.288122 -9.82448e-21)
(1.19301 0.351015 4.80678e-20)
(1.13885 0.258694 -2.72398e-20)
(1.08973 0.234291 1.23872e-20)
(1.09252 0.207178 0)
(-0.0889037 0.0602223 1.61926e-20)
(-0.178327 0.0111732 -1.15808e-20)
(-0.264016 -0.0274481 1.18418e-21)
(-0.267495 -0.0801847 4.18489e-20)
(-0.30896 -0.0731446 -2.05637e-20)
(-0.234044 -0.110755 0)
(-0.0815509 0.141172 3.63538e-20)
(-0.0581486 0.136045 2.34171e-21)
(-0.136058 0.0965837 2.11928e-20)
(0.0546738 0.0415006 -1.60358e-21)
(-0.00725628 -0.0208181 -4.2047e-20)
(0.297033 -0.032993 4.80835e-20)
(-0.120131 0.10727 -3.88164e-20)
(-0.0539421 0.143296 0)
(0.0747567 0.0703984 -7.95014e-20)
(0.479966 0.0775349 5.77953e-20)
(0.48629 0.0222448 7.66446e-20)
(0.913059 0.0820776 -5.64314e-20)
(-0.253446 -0.0461068 0)
(-0.243639 0.0276585 1.65868e-20)
(-0.256086 0.0264996 -3.50222e-22)
(-0.22948 0.0926817 -2.56168e-20)
(-0.199866 0.0452504 1.62832e-20)
(-0.123191 -0.151751 -4.51589e-21)
(-0.0976963 -0.262513 0)
(0.0196381 -0.0307993 -1.91666e-21)
(0.130494 0.279666 1.70962e-21)
(0.285011 0.265955 5.14901e-23)
(0.648371 0.0319614 2.08454e-23)
(0.861541 -0.116613 0)
(0.935382 -0.163786 0)
(0.974972 -0.118945 0)
(1.02303 -0.102504 0)
(1.01344 -0.0632537 -2.27661e-25)
(0.154907 -0.0171654 -3.63775e-20)
(0.152098 0.0241145 3.35761e-20)
(0.128349 0.0320961 -2.98043e-20)
(0.117063 0.0669514 3.05174e-20)
(0.146246 0.0419633 -2.66521e-20)
(0.22298 -0.115418 0)
(0.209863 -0.24491 0)
(0.06228 -0.0809612 5.90197e-23)
(0.165329 0.157389 0)
(0.526696 0.125879 9.05861e-22)
(0.865202 -0.0455909 -8.743e-22)
(0.952899 -0.129349 -7.54366e-23)
(0.915955 -0.154786 0)
(0.908582 -0.121634 1.61784e-23)
(0.951534 -0.104383 0)
(0.996284 -0.0600745 2.2718e-25)
(0.867987 0.0599683 -3.16514e-22)
(0.749336 0.0594195 0)
(0.735391 0.039159 6.63803e-20)
(0.685017 0.0689402 -5.84335e-20)
(0.640013 0.0446668 -6.50821e-20)
(0.82106 -0.130765 5.69857e-20)
(0.856677 -0.232561 0)
(0.563746 -0.0927709 -6.5503e-23)
(0.586083 0.0359329 -1.23896e-21)
(0.881531 0.00318201 1.09005e-21)
(1.0306 -0.10141 0)
(1.00783 -0.133037 8.0245e-23)
(0.962165 -0.150329 -1.41093e-22)
(0.931326 -0.127031 1.06862e-22)
(0.91994 -0.119888 0)
(0.957804 -0.0709049 0)
(1.25263 0.124922 0)
(1.20552 0.138724 0)
(1.18918 0.0975168 0)
(1.15671 0.0928751 0)
(1.13519 0.0457622 0)
(1.17147 -0.10317 0)
(1.09816 -0.137037 0)
(0.945521 -0.0307314 0)
(0.984848 0.013641 0)
(1.09806 -0.0175427 0)
(1.09173 -0.0785152 0)
(1.03259 -0.107031 0)
(0.999748 -0.135558 0)
(0.987668 -0.116976 0)
(0.982492 -0.113147 0)
(0.985558 -0.0698677 0)
(1.2085 0.127516 0)
(1.21125 0.126746 0)
(1.22408 0.0939366 0)
(1.21785 0.0741976 0)
(1.22192 0.0458051 0)
(1.22542 -0.0708616 0)
(1.10712 -0.11903 0)
(1.03119 -0.0418527 0)
(1.07269 -0.0110119 0)
(1.10397 -0.0298784 0)
(1.07605 -0.0791942 0)
(1.0304 -0.106131 0)
(0.984088 -0.138351 0)
(0.966206 -0.124015 0)
(0.970354 -0.120126 0)
(0.987941 -0.0726575 0)
(1.17609 0.120246 0)
(1.18835 0.111035 0)
(1.20342 0.0859284 0)
(1.20279 0.064877 0)
(1.20597 0.0370904 0)
(1.20617 -0.0253882 0)
(1.13817 -0.0537242 0)
(1.07479 -0.0200538 0)
(1.08057 -0.00984534 0)
(1.09608 -0.0202663 0)
(1.0754 -0.0598462 0)
(1.04214 -0.0822588 0)
(1.01067 -0.113661 0)
(0.985608 -0.10832 0)
(0.971958 -0.1135 0)
(0.984162 -0.0721832 0)
(1.14737 0.112949 0)
(1.16442 0.100612 0)
(1.17476 0.0843439 0)
(1.17746 0.0629485 0)
(1.17409 0.0445022 0)
(1.16571 0.00880658 0)
(1.13286 -0.0291775 0)
(1.096 -0.0138521 0)
(1.09161 -0.0148781 0)
(1.09629 -0.0227228 0)
(1.07738 -0.0527119 0)
(1.04495 -0.0782173 0)
(1.01747 -0.11977 0)
(1.00255 -0.116213 0)
(0.999008 -0.121413 0)
(1.00238 -0.0763677 0)
(1.12171 0.0835745 0)
(1.13764 0.0778484 0)
(1.14785 0.0625552 0)
(1.15641 0.0523377 0)
(1.15579 0.0346852 0)
(1.15833 0.0193611 0)
(1.14488 -0.00266585 0)
(1.12195 -0.00267872 0)
(1.10983 -0.00682456 0)
(1.1046 -0.0128763 0)
(1.08876 -0.0415234 0)
(1.06523 -0.0598113 0)
(1.03865 -0.096464 0)
(1.01688 -0.101105 0)
(1.00771 -0.112945 0)
(1.0069 -0.0746338 0)
(1.10958 0.0756973 0)
(1.1214 0.0720014 0)
(1.12876 0.0623354 0)
(1.1345 0.0555551 0)
(1.13537 0.0420421 0)
(1.13542 0.033949 0)
(1.12984 0.0138218 0)
(1.12196 0.011678 0)
(1.11358 0.00307016 0)
(1.11191 -0.0002684 0)
(1.0968 -0.0223591 0)
(1.07408 -0.0440537 0)
(1.05399 -0.0894134 0)
(1.03686 -0.0986115 0)
(1.02826 -0.113902 0)
(1.02391 -0.0741953 0)
(1.1133 0.0423096 0)
(1.12225 0.0415709 0)
(1.12808 0.0338542 0)
(1.13475 0.0309981 0)
(1.13691 0.0215274 0)
(1.1409 0.0188986 0)
(1.13955 0.00946469 0)
(1.13811 0.00892921 0)
(1.13247 0.00214867 0)
(1.12746 7.14026e-05 0)
(1.11923 -0.0195943 0)
(1.1038 -0.0369839 0)
(1.08372 -0.0771994 0)
(1.05962 -0.0916027 0)
(1.04928 -0.110248 0)
(1.03396 -0.0765368 0)
(1.12974 0.0514573 0)
(1.13657 0.0512268 0)
(1.13996 0.0456674 0)
(1.14615 0.0435532 0)
(1.14712 0.0363493 0)
(1.15131 0.0346851 0)
(1.1503 0.0267012 0)
(1.15282 0.0261077 0)
(1.14999 0.0190119 0)
(1.15066 0.0188464 0)
(1.14545 0.00673303 0)
(1.13236 -0.00645215 0)
(1.1153 -0.0463253 0)
(1.09298 -0.0660852 0)
(1.08199 -0.0906352 0)
(1.06215 -0.060713 0)
(1.14791 0.00403568 0)
(1.1536 0.00474753 0)
(1.1565 0.00188188 0)
(1.16247 0.00239242 0)
(1.16423 -0.000521035 0)
(1.1695 0.000303777 0)
(1.17008 -0.00199746 0)
(1.17466 0.000151502 0)
(1.17479 -0.000607661 0)
(1.17596 0.00120015 0)
(1.17665 -0.00322571 0)
(1.16953 -0.0117998 0)
(1.15731 -0.0472 0)
(1.12785 -0.0713665 0)
(1.11208 -0.0943224 0)
(1.07583 -0.0686447 0)
(1.25713 0.0297394 0)
(1.26113 0.0292661 0)
(1.2631 0.0271495 0)
(1.26775 0.0263188 0)
(1.26916 0.0242111 0)
(1.27351 0.0245158 0)
(1.2745 0.0228139 0)
(1.27926 0.022389 0)
(1.28195 0.0231328 0)
(1.28691 0.0222615 0)
(1.29105 0.0203249 0)
(1.29428 0.0271936 0)
(1.2983 0.0140557 0)
(1.26521 -0.00557319 0)
(1.23359 -0.0311076 0)
(1.14841 -0.0201866 0)
(1.11125 0.173901 -8.61578e-21)
(1.14415 0.18861 5.23261e-20)
(1.22931 0.172684 0)
(1.13653 0.178694 6.96555e-21)
(1.12946 0.157278 -4.29397e-21)
(1.16953 0.168373 -4.20621e-20)
(1.11497 0.146288 0)
(1.1302 0.123486 -1.18268e-20)
(1.14263 0.1444 8.27362e-21)
(1.09504 0.127936 1.74047e-22)
(1.11113 0.106151 -1.83347e-22)
(1.12378 0.125684 2.032e-20)
(1.08994 0.0972906 6.12463e-22)
(1.09887 0.078502 0)
(1.10476 0.0928104 0)
(1.09399 0.0866572 -6.00595e-22)
(1.09936 0.0731414 1.66371e-21)
(1.09978 0.0819314 0)
(1.103 0.0530945 -9.87216e-23)
(1.10857 0.0432876 -1.4281e-21)
(1.10641 0.0485607 0)
(1.12549 0.0603162 -1.17315e-24)
(1.12849 0.0535325 2.09392e-22)
(1.12688 0.0561917 0)
(1.14227 0.00836306 4.31194e-23)
(1.14607 0.00325264 -2.08717e-23)
(1.14518 0.006971 -9.8626e-23)
(1.25407 0.0342414 0)
(1.25604 0.0322761 0)
(1.25634 0.0317173 6.7464e-23)
(1.03725 0.267207 -1.07749e-20)
(1.02631 0.295059 1.46481e-20)
(0.914148 0.315853 5.99245e-21)
(0.873733 0.413257 -8.53134e-21)
(0.953268 0.498861 0)
(0.779408 0.65119 -7.90582e-20)
(0.979341 0.227554 2.02403e-21)
(0.997789 0.284958 0)
(1.01876 0.32342 1.52462e-20)
(1.0357 0.453719 5.60092e-21)
(1.08736 0.447811 2.3981e-20)
(0.855265 0.528261 -3.1797e-20)
(1.15342 0.262895 0)
(1.16642 0.292488 8.31996e-21)
(1.10474 0.279869 -1.91652e-20)
(1.09115 0.359065 1.50918e-20)
(1.1903 0.335159 -5.50028e-21)
(0.878998 0.387084 -1.97621e-20)
(0.798604 0.0833635 0)
(0.749307 0.0935018 1.94617e-20)
(0.663555 0.104205 -4.2618e-20)
(0.532861 0.117408 4.33585e-20)
(0.377077 0.154848 1.98974e-20)
(0.152945 0.168182 -2.78109e-20)
(0.833433 0.145043 3.40822e-20)
(0.789931 0.170222 3.14864e-20)
(0.790104 0.231921 2.62285e-20)
(0.705826 0.272281 -5.03017e-20)
(0.561073 0.338576 4.35611e-21)
(0.335362 0.425941 -6.77596e-20)
(0.899196 0.205624 2.62822e-20)
(0.777417 0.214188 -3.5731e-20)
(0.739683 0.286094 -4.7659e-20)
(0.784117 0.411812 3.99919e-20)
(0.742552 0.501517 0)
(0.513195 0.608312 8.53161e-21)
(1.01923 0.16463 2.92733e-22)
(0.981724 0.109616 -1.60429e-22)
(0.961777 0.110235 -5.96039e-23)
(0.956044 0.0975214 0)
(0.935659 0.0934693 -9.36455e-22)
(0.949807 0.0890313 1.29253e-21)
(0.920746 0.0766213 0)
(0.915292 0.0826826 1.76426e-22)
(0.876425 0.0725155 0)
(0.848733 0.0836065 0)
(0.983919 0.156084 -2.91837e-22)
(1.04634 0.128742 0)
(0.934014 0.101452 -7.07464e-22)
(0.980596 0.112341 1.19198e-21)
(0.939194 0.0857629 2.50437e-22)
(0.956569 0.101669 -1.52343e-22)
(0.929392 0.0731882 0)
(0.921527 0.098391 -1.86485e-22)
(0.890114 0.089097 -1.98325e-20)
(0.867965 0.127738 -3.74606e-21)
(0.996679 0.148376 5.9572e-22)
(0.986443 0.13189 -7.55982e-22)
(1.01407 0.112931 0)
(0.935364 0.110941 0)
(0.974229 0.087774 -2.73353e-22)
(0.945137 0.113761 0)
(0.947037 0.0836382 -1.95361e-20)
(0.925644 0.133521 5.23664e-20)
(0.914448 0.126653 -7.15952e-20)
(0.904131 0.196189 4.59475e-20)
(1.03322 0.150869 0)
(0.938635 0.127869 0)
(1.01447 0.111168 0)
(0.947452 0.123939 0)
(0.957762 0.0746282 0)
(0.952102 0.117995 0)
(0.958551 0.076004 0)
(0.946893 0.139248 0)
(0.961723 0.124764 0)
(0.959307 0.201089 0)
(1.03065 0.149271 0)
(0.978802 0.135894 0)
(0.949118 0.105112 0)
(0.979135 0.131904 0)
(0.940033 0.0736935 0)
(0.96936 0.116794 0)
(0.957938 0.0837462 0)
(0.979232 0.127581 0)
(0.977743 0.126368 0)
(0.998985 0.171222 0)
(0.98873 0.142491 0)
(1.02061 0.150155 0)
(0.949824 0.10372 0)
(0.992077 0.135246 0)
(0.970334 0.0735262 0)
(0.985996 0.110527 0)
(0.981716 0.0780184 0)
(0.995372 0.116913 0)
(0.994554 0.112217 0)
(1.01152 0.147716 0)
(0.974024 0.136621 0)
(1.00589 0.156055 0)
(0.997371 0.10301 0)
(0.999773 0.137274 0)
(1.01204 0.0731764 0)
(1.00508 0.110952 0)
(1.01235 0.0800546 0)
(1.00729 0.11749 0)
(1.01832 0.103231 0)
(1.02045 0.13309 0)
(0.987608 0.135776 0)
(0.982674 0.151085 0)
(1.0215 0.0958493 0)
(1.00765 0.128316 0)
(1.03435 0.0728631 0)
(1.01889 0.102214 0)
(1.03327 0.0771237 0)
(1.02697 0.104058 0)
(1.04111 0.090195 0)
(1.0409 0.107999 0)
(0.996454 0.135524 0)
(0.978427 0.145767 0)
(1.0267 0.0961269 0)
(1.01319 0.123874 0)
(1.04213 0.0821187 0)
(1.0312 0.103585 0)
(1.04785 0.0844823 0)
(1.04381 0.10188 0)
(1.05796 0.0887417 0)
(1.05784 0.101173 0)
(1.00085 0.128597 0)
(0.982427 0.12496 0)
(1.03582 0.079366 0)
(1.02202 0.0945529 0)
(1.0526 0.0642496 0)
(1.04518 0.0768111 0)
(1.06411 0.0603065 0)
(1.0614 0.070472 0)
(1.07517 0.0591442 0)
(1.07437 0.0661142 0)
(0.998742 0.134903 0)
(0.999153 0.123429 0)
(1.04855 0.0920117 0)
(1.04549 0.0976531 0)
(1.07163 0.0771839 0)
(1.07196 0.0837506 0)
(1.08845 0.071797 0)
(1.08899 0.0772714 0)
(1.1002 0.0683742 0)
(1.10096 0.0717279 0)
(0.998957 0.089106 0)
(1.01615 0.0676324 0)
(1.06483 0.0380515 0)
(1.06431 0.0405386 0)
(1.08847 0.0207161 0)
(1.09089 0.027236 0)
(1.10636 0.0154307 0)
(1.10752 0.0210386 0)
(1.11785 0.0132089 0)
(1.1184 0.0165397 0)
(0.988588 0.108227 0)
(1.12455 0.0788398 0)
(1.15407 0.0639409 0)
(1.17934 0.0572365 0)
(1.19312 0.0485487 0)
(1.2075 0.0470211 0)
(1.21841 0.0430472 0)
(1.22532 0.0419393 0)
(1.23198 0.039345 0)
(1.23519 0.0384734 0)
(0.987438 0.20018 -1.52636e-20)
(1.00276 0.176268 -4.36563e-21)
(1.10883 0.212564 5.33249e-21)
(1.00616 0.176405 5.14929e-21)
(1.06158 0.181846 -6.92304e-22)
(1.09811 0.183692 -4.31104e-21)
(1.0204 0.14582 3.06937e-21)
(1.05907 0.149867 2.28551e-21)
(1.0844 0.13364 0)
(1.03677 0.119202 2.54748e-21)
(1.05764 0.131309 -8.12843e-23)
(1.07902 0.110089 7.71995e-23)
(1.05609 0.0949325 -3.70224e-22)
(1.06943 0.104443 0)
(1.08449 0.0846542 -4.52742e-22)
(1.07096 0.088978 0)
(1.08059 0.0949147 5.02585e-23)
(1.09155 0.0792364 3.19377e-22)
(1.08716 0.0567116 0)
(1.0937 0.0597383 -3.37276e-23)
(1.10365 0.0488473 -3.77068e-23)
(1.11106 0.0646268 -8.4057e-22)
(1.11738 0.0655559 2.85682e-22)
(1.12468 0.0579383 3.82441e-23)
(1.12752 0.0103154 9.71653e-22)
(1.13353 0.0115146 -1.68226e-22)
(1.14049 0.00545253 1.13547e-22)
(1.24019 0.0366485 -3.72685e-22)
(1.24661 0.0365449 0)
(1.25083 0.0347429 0)
(-0.14268 -0.0343911 -1.21172e-19)
(-0.0268942 -0.0655867 1.17978e-19)
(0.54236 -0.245929 1.8737e-20)
(0.267519 -0.0312699 0)
(0.841236 -0.130503 -5.6825e-21)
(1.14114 -0.246935 -1.33871e-20)
(0.685246 -0.0865711 -6.73837e-20)
(1.11704 -0.208377 4.18788e-20)
(1.16289 -0.296606 -2.87674e-20)
(0.960663 -0.0973772 7.16355e-20)
(1.25043 -0.213952 -2.76383e-20)
(1.11223 -0.209788 2.54282e-20)
(1.1938 -0.139207 6.6075e-20)
(1.24201 -0.193069 -2.94928e-20)
(1.04557 -0.189795 -1.15783e-20)
(1.30275 -0.102765 -4.86919e-20)
(1.11323 -0.150728 3.48034e-20)
(1.07733 -0.151819 0)
(-0.0818109 -0.129625 -1.63497e-20)
(-0.0814909 -0.156488 -7.25965e-20)
(-0.131464 -0.112198 3.54334e-20)
(-0.153928 -0.115688 -1.32229e-20)
(-0.0320155 -0.184717 -1.69268e-21)
(-0.0553512 -0.149799 0)
(-0.220338 -0.107514 1.70804e-20)
(-0.0931973 -0.175586 -2.14691e-20)
(0.139059 -0.106375 7.31381e-20)
(-0.207726 -0.0686626 -4.25748e-20)
(0.152466 -0.144792 3.08415e-20)
(0.535829 -0.0897573 -2.61046e-20)
(-0.238978 -0.103734 2.11013e-20)
(0.0816605 -0.111177 0)
(0.622135 -0.0685467 -8.05646e-20)
(-0.141545 -0.0550195 0)
(0.52024 -0.0787117 -6.64707e-20)
(1.06142 -0.0582566 5.93228e-20)
(-0.123546 0.00484026 0)
(0.433166 -0.0276013 5.06726e-20)
(1.03085 -0.018676 0)
(-0.107296 0.0160592 -1.896e-20)
(0.507046 0.023983 -4.28317e-20)
(1.04499 0.0188775 0)
(-0.128222 0.0654975 1.38758e-21)
(0.479675 0.0601489 3.83137e-20)
(1.05955 0.0619484 -3.16554e-22)
(-0.0602036 0.116466 2.50156e-20)
(0.549705 0.126895 -2.32948e-20)
(1.05343 0.110614 0)
(-0.10317 0.103866 -1.35769e-20)
(0.517718 0.148547 2.04088e-20)
(1.10745 0.147847 3.75523e-20)
(0.0521738 -0.0477888 3.18031e-21)
(0.553675 0.0225313 0)
(1.01619 0.0969239 -3.28674e-20)
(0.0867834 -0.158059 0)
(0.600652 -0.0290649 0)
(1.0661 0.0135199 0)
(0.486246 0.0574434 2.73495e-21)
(0.907966 0.238374 0)
(1.25848 0.208162 0)
(0.617756 0.282013 -2.43942e-21)
(1.06889 0.291258 0)
(1.09726 0.359705 5.93565e-21)
(0.472406 0.350631 -3.19524e-23)
(1.01676 0.20577 1.05116e-21)
(1.11636 0.24752 -5.22326e-21)
(0.510252 0.169159 9.38139e-23)
(0.66238 0.112762 -1.00209e-21)
(0.963655 0.0571691 0)
(0.704132 -0.0308768 0)
(0.599533 -0.00924424 -7.87707e-23)
(0.745388 -0.0202267 8.37969e-23)
(0.843431 -0.12155 0)
(0.670391 -0.105323 0)
(0.692416 -0.0786685 -7.29769e-24)
(0.890186 -0.0990621 0)
(0.749375 -0.0969001 -4.13514e-24)
(0.776354 -0.0677591 1.06624e-23)
(0.911414 -0.0948022 0)
(0.799893 -0.09184 0)
(0.841496 -0.0663386 0)
(0.933982 -0.0608396 6.08056e-24)
(0.890018 -0.0566088 -6.06795e-24)
(0.921392 -0.042616 0)
(1.26437 -0.059657 0)
(1.1972 -0.0471479 0)
(1.15157 -0.0389063 0)
(1.10417 -0.0279938 0)
(1.06214 -0.0169101 0)
(1.02747 0.0025528 0)
(0.992398 0.00243004 0)
(0.948928 0.0249841 0)
(0.910093 0.0039994 0)
(0.735463 0.0354302 0)
(1.25373 -0.00573272 0)
(1.20901 -0.00029139 0)
(1.16729 -0.0122362 0)
(1.1117 -0.00727485 0)
(1.07159 -0.00328696 0)
(1.03222 0.0115619 0)
(0.993865 0.00932451 0)
(0.947327 0.0289457 0)
(0.907557 0.0078744 0)
(0.724797 0.0355152 0)
(1.25878 0.024186 0)
(1.19943 0.0400624 0)
(1.16196 0.0127474 0)
(1.11847 0.0177523 0)
(1.07866 0.0100943 0)
(1.03823 0.0186452 0)
(0.998767 0.0120243 0)
(0.950988 0.0276762 0)
(0.910831 0.00566968 0)
(0.729472 0.0291236 0)
(1.20661 0.0746082 0)
(1.18575 0.0616344 0)
(1.14678 0.042927 0)
(1.11028 0.0380287 0)
(1.07571 0.0288392 0)
(1.03656 0.0328386 0)
(0.997568 0.0225504 0)
(0.947219 0.0332206 0)
(0.906287 0.00989775 0)
(0.716447 0.0283919 0)
(1.2031 0.10379 0)
(1.14754 0.100814 0)
(1.13318 0.0553695 0)
(1.10106 0.0554382 0)
(1.07354 0.03739 0)
(1.03678 0.0394692 0)
(0.998969 0.0242061 0)
(0.949401 0.0309245 0)
(0.908735 0.00575248 0)
(0.72338 0.0177003 0)
(1.15937 0.0733746 0)
(1.12034 0.0893371 0)
(1.09944 0.0728617 0)
(1.09032 0.0754078 0)
(1.06163 0.0576326 0)
(1.02881 0.0548881 0)
(0.991914 0.0362752 0)
(0.941206 0.037948 0)
(0.900507 0.00953255 0)
(0.709355 0.0146405 0)
(1.14953 0.0723669 0)
(1.13397 0.069886 0)
(1.10667 0.0812889 0)
(1.07764 0.0770916 0)
(1.05506 0.0647455 0)
(1.02197 0.0579056 0)
(0.988327 0.0357419 0)
(0.940066 0.0333433 0)
(0.900052 9.30268e-05 0)
(0.71901 -0.000813936 0)
(1.27205 0.164375 0)
(1.11892 0.173294 0)
(1.10966 0.120065 0)
(1.06543 0.120933 0)
(1.04058 0.0813191 0)
(1.00644 0.0728403 0)
(0.974572 0.0436518 0)
(0.924889 0.0372822 0)
(0.885506 -0.00114494 0)
(0.708297 -0.00284452 0)
(1.12262 0.212861 0)
(1.06716 0.218809 0)
(1.05118 0.144662 0)
(1.03235 0.132248 0)
(1.01309 0.0840307 0)
(0.990252 0.0692383 0)
(0.963107 0.0339649 0)
(0.917235 0.0251834 0)
(0.88037 -0.0177 0)
(0.721868 -0.0180002 0)
(0.915949 0.192624 0)
(0.93419 0.174351 0)
(0.960148 0.126007 0)
(0.96192 0.109362 0)
(0.970898 0.0709075 0)
(0.956113 0.059088 0)
(0.940309 0.022678 0)
(0.894042 0.0165807 0)
(0.861615 -0.0294994 0)
(0.722588 -0.0182472 0)
(0.88754 0.0259037 0)
(0.879959 0.0417496 0)
(0.914014 0.0196016 0)
(0.92546 0.0344137 0)
(0.942453 0.00833366 0)
(0.933424 0.0151591 0)
(0.923572 -0.018653 0)
(0.88311 -0.0118119 0)
(0.857266 -0.0510533 0)
(0.745102 -0.0262883 0)
(0.853352 -0.0679315 0)
(0.916993 -0.0403559 0)
(0.940702 -0.0481902 0)
(0.940679 -0.0203926 0)
(0.937656 -0.0375333 0)
(0.923304 -0.0198557 0)
(0.909266 -0.0488492 0)
(0.870242 -0.0302684 0)
(0.849374 -0.0625155 0)
(0.763683 -0.0248505 0)
(0.844474 -0.0895918 0)
(0.949502 -0.0706777 0)
(0.968948 -0.0794619 0)
(0.958718 -0.0583765 0)
(0.941793 -0.0754932 0)
(0.924524 -0.0545149 0)
(0.907042 -0.078316 0)
(0.874248 -0.0510104 0)
(0.855384 -0.0708416 0)
(0.797209 -0.0228596 0)
(0.899408 -0.0615399 0)
(0.968445 -0.0508436 0)
(0.971959 -0.0619013 0)
(0.958693 -0.0517083 0)
(0.942681 -0.0692114 0)
(0.925267 -0.0517395 0)
(0.910085 -0.0724074 0)
(0.881856 -0.0442107 0)
(0.867088 -0.0609223 0)
(0.827317 -0.0115284 0)
(0.925009 -0.0609603 0)
(0.959114 -0.0551959 0)
(0.954985 -0.0656059 0)
(0.946151 -0.0571792 0)
(0.93509 -0.0732242 0)
(0.924184 -0.0550662 0)
(0.911584 -0.0742704 0)
(0.891899 -0.0436116 0)
(0.8796 -0.0576093 0)
(0.853925 -0.00673728 0)
(0.951978 -0.0408408 0)
(0.958736 -0.0372267 0)
(0.952801 -0.042494 0)
(0.947111 -0.0352186 0)
(0.939218 -0.0448546 0)
(0.932161 -0.0298125 0)
(0.921623 -0.0449351 0)
(0.909427 -0.0186846 0)
(0.899115 -0.0370207 0)
(0.885466 0.00585229 0)
(1.17159 -0.134372 9.16424e-21)
(1.14082 -0.103985 -7.40906e-21)
(1.08749 -0.0636668 0)
(1.05434 -0.040759 -2.37581e-22)
(1.02934 -0.0235936 -1.23701e-21)
(1.00519 -0.00222887 1.25802e-21)
(0.977719 -0.000347268 3.80504e-22)
(0.937841 0.0263243 3.1668e-22)
(0.901126 0.00283592 4.96187e-22)
(0.734852 0.0408208 0)
(1.09342 -0.11653 -5.45919e-20)
(1.1086 -0.0903893 3.78869e-21)
(1.08954 -0.0570408 1.32943e-20)
(1.05945 -0.0366193 2.5027e-22)
(1.03182 -0.0177702 0)
(1.00703 0.000955968 -2.64262e-22)
(0.978672 0.000544978 1.22687e-21)
(0.9389 0.0246876 -2.25599e-21)
(0.901692 0.00102548 1.04714e-21)
(0.736891 0.0387142 0)
(1.22724 -0.10431 7.37891e-20)
(1.1616 -0.0778709 -1.35349e-20)
(1.12541 -0.0591342 -6.74098e-21)
(1.08578 -0.0397239 -4.35949e-20)
(1.05034 -0.0220442 1.57983e-20)
(1.01972 0.000654328 0)
(0.988198 0.00247056 0)
(0.945565 0.0266325 2.05321e-21)
(0.907186 0.00561815 -3.76139e-21)
(0.731746 0.0391468 8.39174e-22)
(0.836093 -0.190487 1.10301e-20)
(0.931754 -0.173902 -2.07809e-21)
(1.04461 -0.194976 0)
(0.956336 -0.260063 -1.49949e-20)
(0.913061 -0.235888 -3.83809e-21)
(1.10446 -0.252344 -7.42513e-21)
(0.949249 -0.310771 -7.97236e-21)
(0.985816 -0.280847 -7.34073e-21)
(1.11073 -0.262747 1.72623e-20)
(0.858646 -0.388281 1.09608e-20)
(1.01088 -0.409972 -5.64469e-21)
(1.06917 -0.335326 -9.59967e-22)
(0.90859 -0.46385 0)
(1.07772 -0.421723 -2.37758e-20)
(1.15854 -0.299067 -1.36271e-20)
(0.75909 -0.630515 7.10106e-20)
(0.867512 -0.52653 -1.31605e-20)
(0.875104 -0.363286 1.90655e-20)
(0.799705 -0.0125607 0)
(0.819839 -0.0795485 -3.4074e-20)
(0.878703 -0.155088 -2.58949e-20)
(0.745308 -0.0275952 -1.93951e-20)
(0.763279 -0.109421 0)
(0.866511 -0.195883 3.52074e-20)
(0.673141 -0.0517712 4.25097e-20)
(0.705042 -0.161789 -5.23673e-20)
(0.753616 -0.237608 3.16618e-20)
(0.567731 -0.0749066 -6.98398e-20)
(0.653511 -0.229591 5.18196e-20)
(0.72117 -0.337408 -4.3531e-20)
(0.414418 -0.117266 1.55863e-20)
(0.539037 -0.317304 -4.63763e-21)
(0.721986 -0.464743 0)
(0.179082 -0.117512 2.89738e-20)
(0.322069 -0.402233 1.1565e-19)
(0.514768 -0.593973 -3.67472e-21)
(1.0017 0.164409 -2.01461e-22)
(0.971034 0.16651 2.00841e-22)
(0.91727 0.155989 -2.26847e-22)
(0.969748 0.108656 -2.82432e-23)
(0.951339 0.0933746 1.69092e-22)
(1.00628 0.108708 2.87892e-22)
(0.968048 0.104083 2.94722e-23)
(0.995866 0.115041 1.54104e-22)
(1.00367 0.106174 3.59916e-22)
(0.952547 0.0893377 0)
(0.960899 0.0721612 -8.61285e-22)
(0.977618 0.0676891 0)
(0.943069 0.0985198 8.87268e-22)
(0.960857 0.10899 -1.95505e-22)
(0.983968 0.0896564 2.13387e-22)
(0.941539 0.0717493 -1.21854e-21)
(0.940227 0.0540626 -1.25148e-22)
(0.905035 0.0357055 2.9118e-22)
(0.924041 0.0664281 0)
(0.929197 0.0778948 0)
(0.922248 0.0363387 1.76606e-20)
(0.907555 0.0374617 -1.67688e-22)
(0.900675 0.014948 1.77245e-22)
(0.853883 -0.0254603 -4.80117e-20)
(0.878458 0.0251483 0)
(0.880323 0.0125015 1.94318e-20)
(0.884562 -0.0527151 3.2057e-20)
(0.842435 0.0024446 0)
(0.839713 -0.0491628 4.21725e-21)
(0.838045 -0.124832 0)
(0.909282 0.16015 0)
(0.953838 0.163322 0)
(0.962493 0.16462 0)
(0.964176 0.163111 0)
(0.963666 0.161143 0)
(0.96667 0.15592 0)
(0.96987 0.146195 0)
(0.975314 0.145037 0)
(0.980277 0.097562 0)
(0.982322 0.113791 0)
(1.07809 0.107047 0)
(1.03829 0.101217 0)
(1.00489 0.0956844 0)
(0.994575 0.0964592 0)
(0.99144 0.0956503 0)
(0.984806 0.0998529 0)
(0.975707 0.0926078 0)
(0.959678 0.103228 0)
(0.94319 0.0664403 0)
(0.830285 0.0835957 0)
(0.924354 0.109604 0)
(0.924073 0.115167 0)
(0.949532 0.114338 0)
(0.95576 0.108478 0)
(0.954114 0.0983956 0)
(0.954833 0.0944617 0)
(0.944949 0.0735424 0)
(0.936439 0.0816686 0)
(0.92014 0.0367062 0)
(0.810419 0.0616331 0)
(1.05381 0.0618117 0)
(1.03278 0.0501307 0)
(0.985773 0.0461307 0)
(0.973006 0.0450484 0)
(0.97128 0.0450915 0)
(0.972178 0.0531301 0)
(0.961 0.0437982 0)
(0.946184 0.060202 0)
(0.926289 0.0211145 0)
(0.794454 0.0448163 0)
(0.909621 0.0812926 0)
(0.902565 0.0689253 0)
(0.933141 0.066797 0)
(0.94475 0.061095 0)
(0.946088 0.0514074 0)
(0.948718 0.048207 0)
(0.93891 0.0314839 0)
(0.926932 0.0476512 0)
(0.906504 0.0102401 0)
(0.77506 0.0408891 0)
(0.953372 0.0105331 0)
(0.979268 0.000948042 0)
(0.974924 -0.00207524 0)
(0.965172 0.000303575 0)
(0.96323 0.00557279 0)
(0.965213 0.0214331 0)
(0.95549 0.0159905 0)
(0.935286 0.0387993 0)
(0.911593 0.00639883 0)
(0.768819 0.035887 0)
(0.864335 0.0381988 0)
(0.891406 0.0237265 0)
(0.928965 0.00728163 0)
(0.946646 0.00402799 0)
(0.955114 0.00474319 0)
(0.95633 0.0161314 0)
(0.946462 0.00938253 0)
(0.926253 0.0328379 0)
(0.90163 0.0014831 0)
(0.761858 0.0363559 0)
(0.904748 -0.0583643 0)
(0.92712 -0.0535296 0)
(0.950754 -0.0443254 0)
(0.968553 -0.0294546 0)
(0.97579 -0.0198631 0)
(0.972298 0.00304526 0)
(0.960606 0.00235659 0)
(0.934697 0.0297871 0)
(0.907683 0.00178386 0)
(0.758972 0.0354267 0)
(0.84958 -0.0491844 0)
(0.90196 -0.0428004 0)
(0.946879 -0.0409034 0)
(0.964915 -0.0300723 0)
(0.971639 -0.0226411 0)
(0.968024 9.21918e-05 0)
(0.955496 -0.000267195 0)
(0.929542 0.0269886 0)
(0.90201 -0.00110218 0)
(0.755366 0.0372803 0)
(0.913381 -0.143162 0)
(0.939723 -0.103824 0)
(0.962535 -0.0814542 0)
(0.982008 -0.053829 0)
(0.989311 -0.0370834 0)
(0.982562 -0.00856193 0)
(0.96685 -0.00426742 0)
(0.93561 0.0252698 0)
(0.906815 0.000517474 0)
(0.753149 0.0372246 0)
(0.870614 -0.135705 0)
(0.934224 -0.111719 4.65254e-21)
(0.973199 -0.0828783 -4.95478e-21)
(0.986115 -0.0480263 9.83515e-22)
(0.987072 -0.0323804 0)
(0.979132 -0.00671884 0)
(0.962708 -0.00534766 0)
(0.931327 0.0244132 -6.03023e-22)
(0.901974 -0.00121343 5.54407e-22)
(0.750292 0.0385116 -8.22954e-22)
(1.05415 -0.137073 5.26023e-21)
(1.05686 -0.115889 1.43226e-21)
(1.02627 -0.0764295 -3.43431e-21)
(1.01227 -0.0498352 1.45248e-22)
(1.00271 -0.0343737 0)
(0.988595 -0.00662283 -2.03837e-22)
(0.967796 -0.00376252 -1.68299e-21)
(0.932496 0.025669 2.54353e-21)
(0.90046 0.000386755 -9.59282e-22)
(0.742035 0.0396706 0)
(1.02067 -0.140765 -5.63196e-21)
(1.02056 -0.108584 4.55313e-21)
(1.03058 -0.0680449 0)
(1.02257 -0.0424438 -1.37946e-22)
(1.0103 -0.0248549 1.05137e-21)
(0.992655 -0.00279212 -6.58022e-22)
(0.968556 -0.00306899 3.24132e-22)
(0.932629 0.0240741 2.92115e-22)
(0.89869 -0.00114982 4.81313e-22)
(0.741534 0.0395314 0)
)
;

boundaryField
{
    outlet
    {
        type            zeroGradient;
    }
    upperWall
    {
        type            symmetryPlane;
    }
    lowerWall
    {
        type            symmetryPlane;
    }
    inlet
    {
        type            fixedValue;
        value           uniform (0.9848 0.1736 0);
    }
    cylinder
    {
        type            fixedValue;
        value           uniform (0 0 0);
    }
    frontAndBack
    {
        type            empty;
    }
}


// ************************************************************************* //
