/*--------------------------------*- C++ -*----------------------------------*\
| =========                 |                                                 |
| \\      /  F ield         | OpenFOAM: The Open Source CFD Toolbox           |
|  \\    /   O peration     | Version:  2312                                  |
|   \\  /    A nd           | Website:  www.openfoam.com                      |
|    \\/     M anipulation  |                                                 |
\*---------------------------------------------------------------------------*/
FoamFile
{
    version     2.0;
    format      ascii;
    arch        "LSB;label=32;scalar=64";
    class       volVectorField;
    location    "81.85";
    object      U;
}
// * * * * * * * * * * * * * * * * * * * * * * * * * * * * * * * * * * * * * //

dimensions      [0 1 -1 0 0 0 0];

internalField   nonuniform List<vector> 
5478
(
(-0.0272941 0.0249646 -1.30839e-19)
(-0.0217211 0.0399213 0)
(0.0504225 0.0316922 1.99087e-19)
(0.194881 0.00744173 -3.50421e-19)
(0.412595 -0.0220357 2.31844e-19)
(0.672105 -0.0494968 -6.83295e-20)
(0.922867 -0.0722054 -1.19768e-19)
(1.12291 -0.0911843 0)
(1.24924 -0.108585 0)
(1.30402 -0.124173 1.33669e-19)
(1.30107 -0.137512 -6.68602e-20)
(1.26484 -0.143869 -9.46925e-20)
(1.21681 -0.152789 -3.32752e-20)
(1.17185 -0.138698 0)
(1.11958 -0.15436 6.81544e-20)
(-0.0263871 0.0171494 2.62158e-19)
(0.005898 0.0139812 0)
(0.137003 -0.00441871 0)
(0.37254 -0.0246032 -1.7441e-19)
(0.669244 -0.0364153 2.30635e-19)
(0.950883 -0.040777 6.70907e-20)
(1.1626 -0.043642 -1.10614e-19)
(1.28503 -0.0502814 9.80931e-20)
(1.329 -0.0611802 2.28194e-19)
(1.31991 -0.0747761 -1.97195e-19)
(1.28603 -0.08574 3.92669e-21)
(1.24831 -0.0949358 0)
(1.21457 -0.0968258 3.32149e-20)
(1.18401 -0.0929871 0)
(1.15895 -0.0963988 0)
(-0.020986 0.0109271 -7.09383e-22)
(0.0619558 -0.00767576 -1.2072e-19)
(0.289393 -0.0255461 3.27854e-22)
(0.621006 -0.0259895 0)
(0.941349 -0.014711 -7.53611e-20)
(1.17124 -0.00414617 6.34297e-20)
(1.29434 -0.00198221 5.2867e-20)
(1.33404 -0.00855646 0)
(1.32636 -0.0201902 -7.63375e-20)
(1.30119 -0.0315848 6.21565e-20)
(1.27454 -0.0408824 5.00155e-20)
(1.24878 -0.0462561 0)
(1.22214 -0.0486504 0)
(1.19628 -0.0490931 -8.96284e-20)
(1.16756 -0.050354 7.98658e-20)
(-0.00576884 0.00335204 -1.39707e-19)
(0.159921 -0.0246857 1.1919e-19)
(0.505886 -0.0218898 -1.03005e-19)
(0.881482 0.00444688 8.91261e-20)
(1.15102 0.0283599 1.49738e-19)
(1.29166 0.0389099 -1.24957e-19)
(1.33926 0.0370829 -5.28404e-20)
(1.33913 0.0284933 4.01957e-20)
(1.32156 0.0184633 -3.87535e-20)
(1.29902 0.00899451 0)
(1.27305 0.0011759 0)
(1.24474 -0.00552045 -6.90817e-20)
(1.21663 -0.0106432 8.82151e-20)
(1.19009 -0.0125972 -4.89889e-20)
(1.16421 -0.0184899 0)
(0.025076 -0.00619819 7.05096e-20)
(0.308846 -0.0284085 5.95641e-20)
(0.746117 0.0110232 -2.11895e-19)
(1.09025 0.0542355 2.46762e-21)
(1.2754 0.0769137 -3.05447e-21)
(1.34413 0.0815807 -1.53665e-21)
(1.35274 0.0764176 4.85098e-20)
(1.33692 0.0675262 4.141e-20)
(1.31224 0.0574813 2.90182e-20)
(1.2841 0.0475091 -5.10148e-21)
(1.25641 0.0383556 -6.59202e-20)
(1.23131 0.0303518 0)
(1.20922 0.025701 2.82821e-20)
(1.18877 0.0189734 -2.00889e-20)
(1.17187 0.0180338 3.69413e-20)
(0.0776244 -0.0138385 -1.4865e-19)
(0.498536 -0.00470666 1.61217e-19)
(0.956271 0.0662525 -5.45017e-20)
(1.22934 0.111967 4.15424e-20)
(1.3412 0.12755 -7.59196e-20)
(1.36429 0.126019 -5.63081e-20)
(1.34995 0.117187 1.31699e-21)
(1.32382 0.105832 0)
(1.29627 0.0941172 5.92736e-20)
(1.27119 0.0831329 -5.27102e-20)
(1.24842 0.0733198 2.08035e-20)
(1.22697 0.0652102 0)
(1.20572 0.0573946 1.25496e-20)
(1.18547 0.0509756 -2.13607e-20)
(1.16351 0.0470969 0)
(0.153973 -0.0119538 -1.85014e-20)
(0.691965 0.0498142 1.1534e-21)
(1.11452 0.134895 2.71973e-20)
(1.31296 0.174161 4.45459e-20)
(1.36881 0.18021 -3.37709e-20)
(1.36185 0.171539 5.68321e-20)
(1.33587 0.158456 -1.29208e-20)
(1.30778 0.144784 0)
(1.28157 0.131586 -3.48094e-20)
(1.25659 0.119051 2.39357e-21)
(1.2327 0.107464 2.8891e-20)
(1.21029 0.0965556 0)
(1.19023 0.087561 -1.83635e-20)
(1.17176 0.0784287 0)
(1.15623 0.0748874 1.0892e-20)
(0.249316 0.00637333 -1.97204e-20)
(0.855692 0.125504 0)
(1.22068 0.2116 2.74284e-20)
(1.35283 0.239073 0)
(1.36912 0.233957 0)
(1.34622 0.218378 0)
(1.31581 0.201137 -1.09908e-20)
(1.28643 0.184127 0)
(1.25938 0.167749 7.02636e-21)
(1.23525 0.152463 0)
(1.21409 0.138515 -9.03392e-21)
(1.1956 0.126286 0)
(1.1786 0.114949 5.80765e-21)
(1.16293 0.105354 0)
(1.14701 0.0999383 3.70844e-21)
(-0.0134147 0.0692859 -1.23591e-20)
(-0.0449676 0.057233 0)
(-0.091287 0.0137479 1.96717e-20)
(-0.138669 -0.0310239 0)
(-0.184361 -0.0814116 0)
(-0.227616 -0.142368 0)
(-0.266467 -0.214454 -1.31009e-20)
(-0.298662 -0.296072 0)
(-0.321726 -0.383344 1.06277e-20)
(-0.333536 -0.469739 0)
(-0.33257 -0.546647 -1.64069e-20)
(-0.317304 -0.604947 0)
(-0.286406 -0.635771 1.19839e-20)
(-0.242809 -0.63041 0)
(-0.165763 -0.589367 8.56118e-21)
(-0.0210501 0.0941696 6.36753e-20)
(-0.0502978 0.104484 -4.65573e-20)
(-0.0888607 0.0698545 2.2787e-20)
(-0.127318 0.0285078 7.55303e-20)
(-0.162873 -0.0204984 9.42837e-22)
(-0.194608 -0.081934 -6.07382e-20)
(-0.221963 -0.156813 4.03669e-20)
(-0.243469 -0.244127 0)
(-0.257727 -0.3404 3.44254e-20)
(-0.264376 -0.439432 -6.85253e-22)
(-0.264223 -0.533053 -1.8661e-20)
(-0.259441 -0.611602 0)
(-0.245894 -0.666841 -3.63077e-20)
(-0.235839 -0.687698 0)
(-0.185698 -0.671997 -3.98929e-20)
(-0.0289049 0.109626 1.10098e-19)
(-0.0532674 0.141276 2.53873e-20)
(-0.0774862 0.116687 -4.23623e-20)
(-0.098777 0.0798922 -1.18881e-19)
(-0.115657 0.0343859 7.12072e-20)
(-0.126396 -0.0241146 6.76303e-20)
(-0.129563 -0.0971683 -1.22772e-19)
(-0.12434 -0.183636 0)
(-0.110048 -0.279774 -9.93885e-20)
(-0.0883004 -0.379253 8.83735e-20)
(-0.0623369 -0.474476 3.81712e-20)
(-0.0426639 -0.557096 0)
(-0.0134466 -0.616835 2.43057e-20)
(-0.0286615 -0.653583 -3.63552e-20)
(0.0279254 -0.652454 0)
(-0.0349426 0.11143 5.95124e-20)
(-0.0541102 0.160312 -1.5519e-19)
(-0.061497 0.147038 1.86022e-19)
(-0.0620699 0.115723 -1.68193e-19)
(-0.0552158 0.073858 -7.78718e-20)
(-0.0389643 0.0190175 7.14314e-20)
(-0.0109346 -0.0508769 6.28152e-20)
(0.0307702 -0.13454 5.95679e-20)
(0.0861054 -0.22745 -1.58011e-19)
(0.150812 -0.322077 3.35653e-21)
(0.221384 -0.406457 4.18312e-20)
(0.275913 -0.480249 0)
(0.348359 -0.516882 4.70328e-20)
(0.336378 -0.550447 9.82744e-20)
(0.417809 -0.526988 -5.53476e-20)
(-0.0374097 0.100086 1.28246e-21)
(-0.0524866 0.159087 1.09319e-19)
(-0.0440254 0.157063 -9.71812e-20)
(-0.0235261 0.131809 8.53716e-20)
(0.00852806 0.0935672 1.57195e-19)
(0.0548088 0.041422 -1.43831e-19)
(0.118492 -0.0255762 -6.6069e-20)
(0.202054 -0.106555 -1.79914e-19)
(0.303264 -0.196314 1.60071e-19)
(0.415531 -0.286056 0)
(0.52447 -0.361451 0)
(0.613302 -0.424582 1.13019e-19)
(0.703028 -0.447232 -2.31168e-19)
(0.71446 -0.460411 7.442e-20)
(0.796358 -0.422371 0)
(-0.0358873 0.0798974 6.5845e-23)
(-0.0482343 0.139454 -1.09796e-19)
(-0.0270143 0.145557 2.9395e-19)
(0.0130542 0.125207 -8.72119e-20)
(0.0707111 0.0889268 -7.9378e-20)
(0.150179 0.039081 7.24492e-20)
(0.256495 -0.024573 6.60898e-20)
(0.389648 -0.0997495 1.18147e-19)
(0.540179 -0.179984 -2.06722e-19)
(0.69352 -0.254316 8.63295e-20)
(0.822443 -0.317151 7.0522e-20)
(0.926358 -0.357626 0)
(0.989452 -0.376225 0)
(1.00795 -0.376555 1.11549e-19)
(1.03214 -0.344102 -9.92784e-20)
(-0.0319671 0.0571413 5.99498e-22)
(-0.0420671 0.107342 0)
(-0.0109261 0.115111 0)
(0.0482309 0.0960033 1.77521e-19)
(0.137111 0.0607216 -7.81767e-20)
(0.262227 0.012833 7.04923e-20)
(0.424613 -0.0463317 1.28648e-19)
(0.612111 -0.110621 -1.14067e-19)
(0.80164 -0.173319 1.01906e-19)
(0.966028 -0.226156 -8.6405e-20)
(1.08322 -0.266949 -5.77425e-21)
(1.15736 -0.290068 0)
(1.17042 -0.293468 3.86388e-20)
(1.16511 -0.293293 0)
(1.12472 -0.25594 0)
(-0.028546 0.0378454 -1.28067e-19)
(-0.0344852 0.0716712 0)
(0.00928259 0.0739157 -1.98809e-19)
(0.0975183 0.0530798 3.51252e-19)
(0.236932 0.0185357 -3.91054e-19)
(0.428328 -0.0247293 -7.166e-20)
(0.652219 -0.0707009 1.23786e-19)
(0.874175 -0.114061 0)
(1.06107 -0.151434 0)
(1.18794 -0.181241 -1.4664e-19)
(1.25406 -0.203338 -5.09235e-20)
(1.26126 -0.212251 1.03863e-19)
(1.23031 -0.21789 -3.8715e-20)
(1.18581 -0.211829 0)
(1.12712 -0.188766 -7.35094e-20)
(-0.116204 -0.476644 0)
(0.159512 -0.076482 4.17873e-21)
(0.364489 0.367214 -3.87219e-21)
(0.489917 0.69359 0)
(0.63867 0.726501 0)
(0.627791 0.730251 -8.5035e-23)
(0.452304 0.748221 0)
(0.51331 0.42208 0)
(0.688737 -0.0904231 1.02468e-22)
(0.836982 -0.400427 0)
(0.91748 -0.451301 0)
(0.866434 -0.499762 -8.35184e-23)
(0.826269 -0.546446 0)
(0.828923 -0.451487 -5.24978e-23)
(0.872659 -0.217429 -5.45771e-23)
(0.937261 0.132997 0)
(0.972132 0.420636 -5.00525e-22)
(1.00337 0.552095 5.8551e-22)
(1.01304 0.512352 0)
(1.04048 0.207261 4.63409e-22)
(1.05732 -0.242688 -5.51559e-22)
(1.06248 -0.523191 1.17069e-22)
(1.044 -0.494847 -1.82652e-22)
(1.09239 -0.114323 1.74531e-22)
(1.1202 0.433605 -2.00106e-22)
(1.10351 0.563975 0)
(1.05419 0.0963008 -1.0936e-22)
(0.97558 -0.357529 1.04564e-22)
(1.00864 -0.232145 -1.43624e-23)
(1.02662 0.154435 0)
(0.937342 0.237569 -1.93469e-23)
(0.816969 0.0536181 0)
(0.787568 -0.125746 -1.28178e-23)
(0.844136 -0.0405563 3.60051e-23)
(0.889057 0.0774234 -5.45127e-24)
(0.889639 0.163831 3.81308e-23)
(0.774107 0.0825153 0)
(0.756461 -0.0643364 3.06094e-23)
(-0.244359 -0.586306 1.44115e-20)
(-0.0360953 -0.258967 -1.19612e-22)
(0.155466 0.190625 -8.92597e-21)
(0.402253 0.542383 8.51275e-21)
(0.612303 0.662153 0)
(0.559866 0.779471 8.57105e-23)
(0.436302 0.776309 -1.98365e-22)
(0.60324 0.369887 0)
(0.800922 -0.158136 -1.03232e-22)
(0.904288 -0.461403 0)
(0.973342 -0.461546 0)
(0.912403 -0.476477 8.41096e-23)
(0.869421 -0.544697 0)
(0.888451 -0.462292 1.81884e-21)
(0.891778 -0.23685 -1.5194e-21)
(0.922948 0.109817 2.20147e-21)
(0.951839 0.399064 -2.1015e-21)
(0.970504 0.539555 -1.08281e-22)
(0.987594 0.506889 0)
(1.04296 0.207469 0)
(1.06524 -0.238954 -1.14656e-22)
(1.07072 -0.522821 8.52915e-22)
(1.04091 -0.497653 -1.5365e-21)
(1.06873 -0.125957 7.77585e-22)
(1.09974 0.422734 6.34816e-22)
(1.10558 0.564538 0)
(1.06976 0.113812 2.06352e-22)
(0.984265 -0.353009 0)
(1.01583 -0.241021 1.44126e-23)
(1.03487 0.159143 -3.95128e-23)
(0.951346 0.254739 8.31561e-23)
(0.832471 0.0673893 -3.42847e-23)
(0.805453 -0.12816 4.88667e-23)
(0.857151 -0.0484767 6.88603e-24)
(0.899734 0.074353 -4.40631e-23)
(0.901737 0.170636 2.94487e-23)
(0.793266 0.0914374 -3.28059e-24)
(0.770455 -0.0629218 7.3576e-24)
(-0.109515 -0.633523 1.86628e-20)
(-0.0886054 -0.425191 -3.21583e-20)
(0.0476753 -0.027153 2.67037e-21)
(0.34127 0.35535 1.0639e-20)
(0.535821 0.617284 1.37998e-22)
(0.466556 0.836222 -1.58603e-22)
(0.437638 0.779664 2.01806e-22)
(0.701739 0.318868 -4.98464e-22)
(0.927145 -0.189652 0)
(0.979925 -0.48955 9.19075e-21)
(1.02287 -0.463405 -8.76666e-21)
(0.952914 -0.443756 -1.68595e-22)
(0.886977 -0.544558 0)
(0.93347 -0.480256 -3.69059e-21)
(0.915787 -0.250916 3.40852e-21)
(0.909477 0.0932384 -2.22549e-21)
(0.932969 0.386508 2.12373e-21)
(0.941958 0.530001 1.66635e-21)
(0.963963 0.498105 -1.39777e-21)
(1.04254 0.209873 0)
(1.0687 -0.223736 0)
(1.07159 -0.513527 1.51491e-21)
(1.03137 -0.497896 -1.44628e-21)
(1.03524 -0.141469 -1.90944e-21)
(1.07229 0.408452 3.52403e-22)
(1.10314 0.566614 1.42632e-21)
(1.08062 0.138104 -3.62666e-23)
(0.988112 -0.34177 -2.87797e-22)
(1.01754 -0.251027 2.63021e-22)
(1.04005 0.161191 -2.20868e-22)
(0.964721 0.271021 5.82004e-23)
(0.848548 0.0818966 -8.05975e-23)
(0.822396 -0.129724 -1.61807e-23)
(0.869881 -0.0562277 1.5471e-23)
(0.909858 0.0708844 4.17585e-23)
(0.914104 0.176662 1.64041e-23)
(0.813505 0.100253 5.44178e-23)
(0.785612 -0.0611265 4.2472e-23)
(0.263372 -0.544996 0)
(0.0676834 -0.477493 6.93287e-21)
(0.0457061 -0.220306 -6.83715e-21)
(0.249692 0.163861 0)
(0.387548 0.548747 -1.41866e-22)
(0.349638 0.823903 1.63e-22)
(0.451244 0.724657 0)
(0.791495 0.254071 1.23509e-23)
(1.0505 -0.2072 -4.88494e-22)
(1.0622 -0.498584 0)
(1.07075 -0.469194 -6.48832e-21)
(1.01885 -0.404974 6.35953e-21)
(0.911518 -0.533234 -2.91224e-22)
(0.958345 -0.504038 -3.94557e-21)
(0.947057 -0.267501 3.76274e-21)
(0.911222 0.0667355 2.90054e-22)
(0.914772 0.355182 0)
(0.900193 0.512594 -2.06063e-22)
(0.926313 0.489222 2.22081e-21)
(1.03234 0.215317 3.97592e-22)
(1.06891 -0.205458 3.95015e-22)
(1.06959 -0.502441 -2.34091e-21)
(1.02071 -0.496945 -3.32106e-21)
(0.997498 -0.160532 4.05526e-21)
(1.03716 0.379149 -4.68124e-22)
(1.08915 0.557613 0)
(1.08319 0.16113 -1.74425e-22)
(0.988058 -0.327599 2.9158e-22)
(1.01421 -0.263051 -3.14499e-22)
(1.04192 0.158735 2.69389e-22)
(0.976549 0.285743 -7.68221e-23)
(0.864354 0.0972442 0)
(0.838126 -0.130447 1.06712e-23)
(0.882446 -0.0638863 -5.9988e-23)
(0.919951 0.0669979 -8.46162e-23)
(0.926112 0.181951 -1.1911e-22)
(0.833748 0.108935 -5.4456e-23)
(0.801514 -0.0589708 6.89817e-24)
(0.68721 -0.382745 2.03256e-22)
(0.447074 -0.360125 1.80686e-22)
(0.234302 -0.29638 0)
(0.231182 -0.0156101 0)
(0.294526 0.461542 0)
(0.312675 0.788765 0)
(0.513533 0.659459 1.37788e-20)
(0.882619 0.188168 -2.93356e-20)
(1.15484 -0.211713 1.66269e-20)
(1.14522 -0.473744 0)
(1.09591 -0.469389 -6.37861e-21)
(1.06583 -0.365542 6.29394e-21)
(0.942328 -0.502404 4.81024e-21)
(0.959915 -0.528974 -4.04097e-21)
(0.967876 -0.291739 4.65142e-21)
(0.912256 0.0485457 -4.73226e-21)
(0.893428 0.349592 -2.8134e-22)
(0.867405 0.507642 -2.60837e-21)
(0.896403 0.475411 2.48526e-21)
(1.02195 0.217773 2.16711e-22)
(1.06826 -0.182072 2.78577e-22)
(1.06409 -0.485605 2.51795e-21)
(1.00843 -0.494263 -2.73636e-21)
(0.954528 -0.180507 -1.08441e-21)
(0.995791 0.353379 -4.95482e-22)
(1.07283 0.55542 -2.5652e-22)
(1.08152 0.189694 0)
(0.985676 -0.307723 0)
(1.00625 -0.275348 0)
(1.0406 0.153213 0)
(0.986866 0.298607 2.85737e-22)
(0.879619 0.112868 -1.98102e-22)
(0.852556 -0.130315 -9.64977e-24)
(0.894752 -0.0714117 3.6491e-22)
(0.930394 0.0628145 -8.21873e-23)
(0.937321 0.186317 -5.43609e-24)
(0.853439 0.117298 -5.82702e-23)
(0.817926 -0.0565248 -9.34922e-23)
(0.951706 -0.326751 -2.13888e-22)
(0.808894 -0.222574 2.71223e-21)
(0.621823 -0.205244 -2.65549e-21)
(0.4165 -0.106283 1.45932e-20)
(0.331006 0.30227 -1.39019e-20)
(0.361544 0.670386 1.06433e-20)
(0.607518 0.581647 -9.82829e-21)
(0.987019 0.148545 4.29768e-22)
(1.23912 -0.192794 -4.90034e-22)
(1.22264 -0.420351 0)
(1.12136 -0.458638 -2.36589e-22)
(1.09394 -0.335843 1.02595e-20)
(0.981478 -0.456011 -9.76583e-21)
(0.951389 -0.544299 -2.66435e-22)
(0.969543 -0.321931 0)
(0.918399 0.0125867 -5.46109e-21)
(0.881985 0.309334 9.23382e-21)
(0.826587 0.487717 -3.65819e-21)
(0.850022 0.468741 0)
(1.00246 0.229022 1.70663e-21)
(1.0674 -0.15358 1.34176e-22)
(1.05853 -0.464832 -2.14942e-21)
(0.997899 -0.48958 -4.17823e-21)
(0.914103 -0.201948 4.17851e-21)
(0.951321 0.308302 -3.14135e-21)
(1.04281 0.53668 1.52476e-21)
(1.06923 0.215049 1.50143e-21)
(0.980984 -0.286029 -7.50738e-22)
(0.994742 -0.288577 7.1396e-22)
(1.03646 0.141817 -2.24533e-22)
(0.995504 0.309677 2.13505e-22)
(0.89372 0.129895 0)
(0.865737 -0.128846 2.18981e-24)
(0.906531 -0.0789919 -1.33321e-22)
(0.941256 0.0581841 0)
(0.94757 0.190258 1.06405e-22)
(0.872477 0.125503 5.16773e-23)
(0.83476 -0.0538229 -7.46672e-23)
(1.05209 -0.271645 0)
(0.93695 -0.179889 0)
(0.867919 -0.117468 -1.47081e-23)
(0.74871 -0.0520461 0)
(0.528593 0.239414 0)
(0.491053 0.582167 1.79238e-21)
(0.760208 0.503011 -1.77011e-21)
(1.11942 0.0918858 2.79092e-20)
(1.30873 -0.19268 -2.66192e-20)
(1.27702 -0.372507 0)
(1.15169 -0.443653 -2.23411e-22)
(1.10565 -0.318492 1.67084e-22)
(1.01669 -0.405908 -8.96962e-21)
(0.94928 -0.543772 -7.13129e-22)
(0.954198 -0.365681 8.66635e-21)
(0.916162 -0.0117534 1.73088e-22)
(0.864892 0.312941 -1.53611e-22)
(0.79285 0.492686 4.8167e-21)
(0.823256 0.449929 -4.77145e-21)
(0.991209 0.224103 0)
(1.06991 -0.126858 0)
(1.05314 -0.43757 -1.1329e-22)
(0.989144 -0.481758 0)
(0.872998 -0.221017 4.72331e-21)
(0.903826 0.276072 -7.97283e-22)
(1.01654 0.531377 -2.98953e-21)
(1.05629 0.242469 -8.86602e-22)
(0.976118 -0.259492 5.96532e-22)
(0.9815 -0.301836 -9.07551e-23)
(1.03016 0.129154 0)
(1.00169 0.31785 -2.43866e-22)
(0.9064 0.145633 2.31193e-22)
(0.877803 -0.127259 7.51909e-23)
(0.91735 -0.0864031 -1.05917e-22)
(0.952384 0.0536379 7.47417e-23)
(0.956819 0.193085 -3.35631e-23)
(0.890943 0.132955 0)
(0.85198 -0.0510115 9.52235e-23)
(1.06673 -0.222164 4.50681e-20)
(0.986315 -0.173335 1.55988e-20)
(0.936091 -0.137117 -1.44301e-20)
(0.912862 -0.0976298 1.36823e-20)
(0.741116 0.121731 -1.33352e-20)
(0.644366 0.456335 1.01753e-22)
(0.885897 0.468026 0)
(1.20676 0.141944 -1.80551e-22)
(1.35293 -0.106774 -2.05649e-22)
(1.31157 -0.278563 0)
(1.18462 -0.399274 -1.28222e-20)
(1.11967 -0.300196 1.22178e-20)
(1.04399 -0.35666 1.40531e-22)
(0.958406 -0.519415 8.87714e-21)
(0.929511 -0.399196 -8.42033e-21)
(0.894748 -0.0796373 1.76241e-22)
(0.845625 0.253021 1.6267e-22)
(0.763296 0.468213 0)
(0.771461 0.452036 3.10445e-21)
(0.966161 0.245642 -2.94629e-21)
(1.07519 -0.0879381 -1.73967e-21)
(1.05223 -0.407181 -3.25957e-22)
(0.98128 -0.466995 1.98675e-21)
(0.841902 -0.242577 -4.76163e-21)
(0.850953 0.216259 1.2833e-21)
(0.975281 0.501913 4.69422e-21)
(1.03084 0.27128 -1.24164e-21)
(0.969368 -0.229194 7.39146e-22)
(0.967487 -0.31447 -5.33699e-22)
(1.02172 0.108198 0)
(1.00726 0.324876 0)
(0.917846 0.165264 0)
(0.88907 -0.123108 -4.93909e-23)
(0.92711 -0.0947308 -8.10607e-23)
(0.963431 0.047867 -1.5209e-22)
(0.965455 0.195997 1.40621e-22)
(0.909195 0.140629 2.65912e-24)
(0.869613 -0.0478996 0)
(1.07974 -0.13752 0)
(1.03023 -0.0936046 0)
(0.960916 -0.06863 0)
(0.926502 -0.0275396 0)
(0.855992 0.122849 0)
(0.882278 0.307041 0)
(1.15294 0.300273 0)
(1.33092 0.0568394 0)
(1.35774 -0.0987159 0)
(1.31062 -0.191192 0)
(1.19607 -0.334574 0)
(1.12991 -0.252439 0)
(1.07479 -0.279635 0)
(0.983161 -0.494415 0)
(0.902954 -0.441915 0)
(0.86233 -0.106543 0)
(0.813446 0.264977 0)
(0.708096 0.488156 0)
(0.743974 0.420857 0)
(0.986228 0.213226 0)
(1.0976 -0.064177 0)
(1.05884 -0.379068 0)
(0.969138 -0.469073 0)
(0.816255 -0.252037 0)
(0.81057 0.185127 0)
(0.933756 0.492053 0)
(1.01061 0.293846 0)
(0.963203 -0.211879 0)
(0.951566 -0.323558 0)
(1.00941 0.089223 0)
(1.01073 0.328508 0)
(0.926846 0.181268 0)
(0.901788 -0.117701 0)
(0.937765 -0.100633 0)
(0.976609 0.0429226 0)
(0.975029 0.197364 0)
(0.931593 0.147435 0)
(0.891833 -0.0442612 0)
(1.07871 -0.0822268 0)
(1.04458 -0.0609607 0)
(1.00363 -0.0423507 0)
(0.972539 -0.01518 0)
(0.955109 0.109241 0)
(1.02367 0.201557 0)
(1.19942 0.178815 0)
(1.29596 0.0345162 0)
(1.29043 -0.0789519 0)
(1.2396 -0.188083 0)
(1.15925 -0.292697 0)
(1.07168 -0.230816 0)
(1.01944 -0.305584 0)
(0.960268 -0.458277 0)
(0.857134 -0.352314 0)
(0.791904 -0.043919 0)
(0.726292 0.314335 0)
(0.626216 0.509822 0)
(0.747408 0.354557 0)
(1.01163 0.127103 0)
(1.10759 -0.112194 0)
(1.04757 -0.369186 0)
(0.928067 -0.399526 0)
(0.760369 -0.189321 0)
(0.7317 0.188192 0)
(0.862454 0.463071 0)
(0.989558 0.266188 0)
(0.959947 -0.211444 0)
(0.941348 -0.324504 0)
(0.999126 0.0886735 0)
(1.00863 0.340752 0)
(0.935664 0.192322 0)
(0.920178 -0.123131 0)
(0.953253 -0.110151 0)
(0.993561 0.0390297 0)
(0.986953 0.200285 0)
(0.960366 0.155133 0)
(0.920292 -0.0404684 0)
(1.07665 -0.0388048 0)
(1.0581 -0.031302 0)
(1.03896 -0.0107486 0)
(1.01427 0.0110321 0)
(1.01374 0.0720619 0)
(1.06587 0.11369 0)
(1.16461 0.111258 0)
(1.2186 -0.00225452 0)
(1.22627 -0.0653809 0)
(1.20199 -0.123474 0)
(1.12983 -0.237027 0)
(1.07173 -0.169659 0)
(1.06179 -0.217551 0)
(0.96911 -0.386379 0)
(0.782297 -0.31652 0)
(0.682363 -0.0171093 0)
(0.624426 0.358493 0)
(0.60917 0.4819 0)
(0.809047 0.236973 0)
(1.03402 0.0547586 0)
(1.12178 -0.0854946 0)
(1.06703 -0.31943 0)
(0.901242 -0.362058 0)
(0.688728 -0.159541 0)
(0.63958 0.164589 0)
(0.808391 0.404241 0)
(0.996884 0.250604 0)
(0.97054 -0.194396 0)
(0.929736 -0.333614 0)
(0.992211 0.0730016 0)
(1.00895 0.344053 0)
(0.945426 0.205496 0)
(0.937414 -0.122973 0)
(0.967105 -0.118961 0)
(1.00996 0.0360691 0)
(0.999883 0.203361 0)
(0.992541 0.162553 0)
(0.951937 -0.0355114 0)
(1.0728 -0.0127158 0)
(1.06573 -0.00837026 0)
(1.05236 0.00116088 0)
(1.04359 0.010301 0)
(1.04863 0.0475156 0)
(1.073 0.0547694 0)
(1.13521 0.0593485 0)
(1.16573 -0.00800928 0)
(1.16498 -0.0580562 0)
(1.15219 -0.110107 0)
(1.10013 -0.192236 0)
(1.0281 -0.162985 0)
(1.00067 -0.2467 0)
(0.93261 -0.310137 0)
(0.734273 -0.178129 0)
(0.603185 0.0486479 0)
(0.589636 0.349538 0)
(0.713778 0.418649 0)
(0.939067 0.151163 0)
(1.07609 -0.0177167 0)
(1.11308 -0.118899 0)
(1.06111 -0.278373 0)
(0.870672 -0.257356 0)
(0.605789 -0.0776726 0)
(0.562596 0.14507 0)
(0.79809 0.330246 0)
(1.02811 0.212894 0)
(0.996988 -0.182764 0)
(0.925563 -0.329676 0)
(0.97544 0.0634553 0)
(0.995176 0.349263 0)
(0.952351 0.214572 0)
(0.957194 -0.127682 0)
(0.980923 -0.130509 0)
(1.02648 0.0305514 0)
(1.01588 0.203703 0)
(1.0283 0.168004 0)
(0.986452 -0.030689 0)
(1.06925 0.0029607 0)
(1.06711 0.00357511 0)
(1.06421 0.00871203 0)
(1.05587 0.00912275 0)
(1.06475 0.0315587 0)
(1.07609 0.0210036 0)
(1.10675 0.0312744 0)
(1.12524 -0.0219164 0)
(1.12532 -0.052043 0)
(1.11656 -0.0787978 0)
(1.07847 -0.159999 0)
(1.03985 -0.0987765 0)
(1.0005 -0.155789 0)
(0.912317 -0.227759 0)
(0.761308 -0.0877472 0)
(0.668707 0.0725341 0)
(0.704167 0.280459 0)
(0.891472 0.305504 0)
(1.05962 0.0575642 0)
(1.11019 -0.0422605 0)
(1.10721 -0.0820677 0)
(1.06664 -0.220523 0)
(0.895298 -0.168574 0)
(0.625245 -0.0112678 0)
(0.570516 0.0881333 0)
(0.820245 0.221076 0)
(1.0757 0.179957 0)
(1.03909 -0.154667 0)
(0.924157 -0.324897 0)
(0.959466 0.0507263 0)
(0.98438 0.348989 0)
(0.9675 0.219593 0)
(0.98069 -0.130861 0)
(0.991925 -0.139655 0)
(1.03719 0.0270687 0)
(1.02921 0.202394 0)
(1.06436 0.171906 0)
(1.02238 -0.0247404 0)
(1.06614 0.0119728 0)
(1.06447 0.00928598 0)
(1.06834 0.0121041 0)
(1.05975 0.00541371 0)
(1.07015 0.0205858 0)
(1.0721 0.00296723 0)
(1.08645 0.0112542 0)
(1.10171 -0.0229345 0)
(1.08748 -0.0475206 0)
(1.09429 -0.0582228 0)
(1.04973 -0.127509 0)
(1.00926 -0.0842061 0)
(1.00046 -0.135771 0)
(0.924337 -0.168953 0)
(0.827262 -0.00437879 0)
(0.791913 0.0777067 0)
(0.86214 0.178049 0)
(1.02883 0.212442 0)
(1.11553 0.0329559 0)
(1.1151 -0.0457367 0)
(1.07942 -0.0828439 0)
(1.02481 -0.187054 0)
(0.914364 -0.0720616 0)
(0.742933 0.0788559 0)
(0.693836 0.0544379 0)
(0.860209 0.106374 0)
(1.10327 0.127899 0)
(1.0889 -0.121909 0)
(0.924413 -0.301629 0)
(0.937412 0.0373478 0)
(0.974656 0.344084 0)
(0.987502 0.221833 0)
(1.00864 -0.134097 0)
(1.00062 -0.150489 0)
(1.04442 0.019386 0)
(1.04409 0.196191 0)
(1.10212 0.173053 0)
(1.05881 -0.0186663 0)
(1.06091 0.0161057 0)
(1.06003 0.0106794 0)
(1.06635 0.0132523 0)
(1.06005 0.00320938 0)
(1.06596 0.0127295 0)
(1.06797 -0.00390073 0)
(1.06926 -0.000983757 0)
(1.08226 -0.0192614 0)
(1.06321 -0.0454733 0)
(1.07138 -0.040329 0)
(1.04116 -0.0950848 0)
(1.00909 -0.0591522 0)
(1.00894 -0.0758418 0)
(0.930353 -0.110715 0)
(0.883323 0.0204831 0)
(0.898879 0.060214 0)
(0.94924 0.103284 0)
(1.06255 0.144639 0)
(1.10652 0.00615127 0)
(1.09904 -0.0312204 0)
(1.08105 -0.0280818 0)
(1.00463 -0.136713 0)
(0.923662 -0.0336329 0)
(0.889397 0.116515 0)
(0.88558 0.0389968 0)
(0.932324 0.0253755 0)
(1.10117 0.0846996 0)
(1.11907 -0.0828893 0)
(0.939092 -0.255723 0)
(0.881084 0.0342332 0)
(0.928238 0.329726 0)
(1.00839 0.210133 0)
(1.04476 -0.13497 0)
(1.00598 -0.154029 0)
(1.0402 0.0134707 0)
(1.05122 0.18548 0)
(1.13243 0.171196 0)
(1.09029 -0.0116613 0)
(1.05511 0.0168764 0)
(1.05532 0.0111371 0)
(1.06037 0.0123333 0)
(1.05741 0.0030837 0)
(1.05838 0.00707138 0)
(1.06227 -0.0044747 0)
(1.0556 -0.00694016 0)
(1.06715 -0.0151919 0)
(1.04967 -0.0365747 0)
(1.05249 -0.0287051 0)
(1.03661 -0.0656578 0)
(1.0012 -0.0464972 0)
(1.00998 -0.0498998 0)
(0.956458 -0.0747245 0)
(0.928912 0.0209366 0)
(0.960638 0.0402528 0)
(0.977519 0.051031 0)
(1.0569 0.100239 0)
(1.08465 0.00787688 0)
(1.05329 -0.0281169 0)
(1.06816 -0.0126734 0)
(1.01316 -0.0984442 0)
(0.934839 -0.0226866 0)
(0.974975 0.116285 0)
(1.01164 0.0397877 0)
(0.991352 -0.00653109 0)
(1.07036 0.0477231 0)
(1.10465 -0.0582513 0)
(0.955868 -0.195753 0)
(0.833512 0.0447057 0)
(0.904197 0.297058 0)
(1.06126 0.181566 0)
(1.09241 -0.132143 0)
(1.01074 -0.151424 0)
(1.02553 0.00569025 0)
(1.05053 0.167919 0)
(1.15546 0.16466 0)
(1.1151 -0.00529788 0)
(1.04868 0.0160081 0)
(1.05022 0.0110754 0)
(1.05298 0.0107489 0)
(1.0527 0.00387995 0)
(1.051 0.00406577 0)
(1.05434 -0.00312536 0)
(1.04724 -0.00794514 0)
(1.05327 -0.0110436 0)
(1.04164 -0.0272991 0)
(1.03904 -0.021132 0)
(1.03207 -0.042782 0)
(1.00547 -0.0339035 0)
(1.01179 -0.0273096 0)
(0.979466 -0.0428134 0)
(0.960093 0.0125469 0)
(0.991492 0.0272684 0)
(0.990093 0.0271807 0)
(1.03735 0.0617673 0)
(1.06781 0.00504614 0)
(1.03435 -0.0196338 0)
(1.05286 0.00466072 0)
(1.02324 -0.0564954 0)
(0.948867 -0.0185478 0)
(0.997061 0.0872382 0)
(1.049 0.0318493 0)
(1.01736 -0.0125936 0)
(1.04309 0.0317366 0)
(1.07519 -0.0333359 0)
(0.966009 -0.1333 0)
(0.847387 0.0530768 0)
(0.952039 0.236623 0)
(1.13406 0.141883 0)
(1.13137 -0.113964 0)
(1.00898 -0.131043 0)
(1.00287 -0.000563808 0)
(1.04534 0.141332 0)
(1.16311 0.153646 0)
(1.12479 0.00222784 0)
(1.04249 0.0144733 0)
(1.04466 0.0107541 0)
(1.04616 0.00953902 0)
(1.0466 0.00480087 0)
(1.04451 0.00313848 0)
(1.04621 -0.00120566 0)
(1.04104 -0.00607669 0)
(1.0429 -0.00743741 0)
(1.0362 -0.0181903 0)
(1.03159 -0.0143584 0)
(1.02841 -0.0263683 0)
(1.01085 -0.0218688 0)
(1.0116 -0.0171026 0)
(0.996614 -0.0241758 0)
(0.982782 0.00615728 0)
(1.00397 0.0151672 0)
(1.00168 0.0145951 0)
(1.0262 0.035495 0)
(1.05092 0.00477733 0)
(1.02306 -0.0132842 0)
(1.03458 0.00420763 0)
(1.02964 -0.0321319 0)
(0.972201 -0.0125127 0)
(1.0005 0.0603471 0)
(1.0483 0.02701 0)
(1.02063 -0.00733995 0)
(1.02216 0.0192472 0)
(1.05231 -0.0185703 0)
(0.978394 -0.0857488 0)
(0.897389 0.045223 0)
(1.00866 0.164944 0)
(1.16252 0.107739 0)
(1.1405 -0.082901 0)
(1.00032 -0.099803 0)
(0.972088 -0.00807141 0)
(1.01836 0.108743 0)
(1.13764 0.138573 0)
(1.11586 0.00759004 0)
(1.03708 0.0129387 0)
(1.0391 0.0102626 0)
(1.04003 0.00876713 0)
(1.04036 0.0055829 0)
(1.03886 0.00342596 0)
(1.03929 0.000899419 0)
(1.03592 -0.00334272 0)
(1.03579 -0.00368453 0)
(1.03159 -0.0111103 0)
(1.02785 -0.00841182 0)
(1.02509 -0.0156607 0)
(1.01526 -0.0131103 0)
(1.01375 -0.0100624 0)
(1.00665 -0.0127744 0)
(0.998692 0.00300336 0)
(1.01027 0.00762322 0)
(1.00895 0.00848843 0)
(1.02095 0.0190603 0)
(1.03731 0.00240849 0)
(1.02167 -0.00655412 0)
(1.02578 0.00613158 0)
(1.02768 -0.014748 0)
(0.991699 -0.00260906 0)
(1.00288 0.0412951 0)
(1.03778 0.0199209 0)
(1.02218 0.00153938 0)
(1.01526 0.0147617 0)
(1.03673 -0.00871811 0)
(0.993115 -0.050154 0)
(0.941349 0.0358254 0)
(1.02613 0.103381 0)
(1.13779 0.0794101 0)
(1.12326 -0.0468098 0)
(0.995392 -0.0569192 0)
(0.957155 -0.00755717 0)
(0.992172 0.0750668 0)
(1.10558 0.117285 0)
(1.10382 0.0095535 0)
(1.03233 0.0116213 0)
(1.03397 0.00978467 0)
(1.03464 0.00832436 0)
(1.03489 0.00634542 0)
(1.03381 0.00421846 0)
(1.03378 0.00284226 0)
(1.03141 -0.00061378 0)
(1.03084 -0.000500399 0)
(1.02798 -0.00561087 0)
(1.02547 -0.00372445 0)
(1.02326 -0.00844432 0)
(1.01792 -0.00657302 0)
(1.01589 -0.00555221 0)
(1.01255 -0.00648094 0)
(1.00805 0.00150453 0)
(1.01398 0.00303473 0)
(1.01311 0.00442846 0)
(1.01931 0.00951992 0)
(1.02828 0.00146195 0)
(1.01981 -0.00331884 0)
(1.02131 0.00524284 0)
(1.02383 -0.00624192 0)
(1.00427 0.00236825 0)
(1.00935 0.029043 0)
(1.02891 0.0155019 0)
(1.02008 0.00796189 0)
(1.01467 0.0114219 0)
(1.02784 -0.00531534 0)
(1.00347 -0.0298968 0)
(0.973375 0.0260023 0)
(1.03026 0.0602468 0)
(1.10034 0.0597685 0)
(1.09289 -0.0183237 0)
(0.998906 -0.0210029 0)
(0.974219 -0.00685932 0)
(0.998063 0.0444248 0)
(1.09171 0.0942073 0)
(1.09408 0.00757481 0)
(1.02819 0.0105305 0)
(1.02951 0.00931751 0)
(1.03001 0.00807689 0)
(1.0302 0.00690872 0)
(1.02944 0.00503386 0)
(1.02931 0.00444093 0)
(1.02774 0.00162006 0)
(1.02721 0.00213298 0)
(1.02517 -0.0017 0)
(1.02376 -0.00011132 0)
(1.02192 -0.00366366 0)
(1.01927 -0.00223988 0)
(1.0174 -0.00249804 0)
(1.0159 -0.00288496 0)
(1.01325 0.000976502 0)
(1.01631 0.000754123 0)
(1.01546 0.00241356 0)
(1.01853 0.00396089 0)
(1.02314 0.00101128 0)
(1.01915 -0.00122503 0)
(1.01957 0.00499577 0)
(1.02141 4.41879e-05 0)
(1.01091 0.00645285 0)
(1.01367 0.0218117 0)
(1.0236 0.0132673 0)
(1.01899 0.012714 0)
(1.01653 0.00999347 0)
(1.02444 -0.00211193 0)
(1.00981 -0.0160271 0)
(0.994113 0.0183257 0)
(1.03207 0.0303504 0)
(1.073 0.0468481 0)
(1.06883 0.00435515 0)
(1.00665 0.00542508 0)
(1.00063 -0.00688718 0)
(1.01519 0.0202748 0)
(1.08244 0.0751978 0)
(1.08283 0.0075041 0)
(1.02468 0.00960251 0)
(1.02572 0.00883256 0)
(1.02607 0.00784378 0)
(1.02627 0.00723085 0)
(1.02576 0.00567414 0)
(1.02572 0.00560339 0)
(1.02465 0.00328892 0)
(1.02435 0.00403398 0)
(1.02291 0.000970551 0)
(1.02224 0.00242684 0)
(1.02081 -0.000583926 0)
(1.01969 0.000633454 0)
(1.01808 -0.000439935 0)
(1.01763 -0.000787421 0)
(1.01581 0.00101744 0)
(1.01748 -0.000358158 0)
(1.01667 0.00142173 0)
(1.01825 0.000971103 0)
(1.0203 0.000751498 0)
(1.01852 -8.37327e-05 0)
(1.01856 0.0041575 0)
(1.01962 0.00306108 0)
(1.01439 0.00816078 0)
(1.01652 0.0173835 0)
(1.02066 0.0122906 0)
(1.01836 0.0150261 0)
(1.01766 0.00828896 0)
(1.02274 -0.00120535 0)
(1.0143 -0.00944622 0)
(1.00781 0.0101786 0)
(1.03305 0.0108688 0)
(1.0535 0.0395572 0)
(1.05183 0.0185274 0)
(1.01378 0.0181035 0)
(1.02001 -0.0114231 0)
(1.02522 0.00374019 0)
(1.06848 0.0616232 0)
(1.0693 0.00628539 0)
(1.02168 0.00875363 0)
(1.02251 0.00830524 0)
(1.02278 0.00754311 0)
(1.02304 0.00733656 0)
(1.02269 0.00604249 0)
(1.0228 0.00634969 0)
(1.02206 0.00436711 0)
(1.02202 0.00534145 0)
(1.02099 0.00268788 0)
(1.02085 0.0041389 0)
(1.01973 0.00139365 0)
(1.01948 0.00245524 0)
(1.01815 0.000989983 0)
(1.01829 0.000463789 0)
(1.01686 0.00132544 0)
(1.01799 -0.000787394 0)
(1.01709 0.00110955 0)
(1.01803 -0.00047663 0)
(1.01871 0.000554275 0)
(1.01806 0.000650182 0)
(1.01793 0.00365909 0)
(1.01878 0.00479547 0)