/*--------------------------------*- C++ -*----------------------------------*\
| =========                 |                                                 |
| \\      /  F ield         | OpenFOAM: The Open Source CFD Toolbox           |
|  \\    /   O peration     | Version:  2312                                  |
|   \\  /    A nd           | Website:  www.openfoam.com                      |
|    \\/     M anipulation  |                                                 |
\*---------------------------------------------------------------------------*/
FoamFile
{
    version     2.0;
    format      ascii;
    arch        "LSB;label=32;scalar=64";
    class       volScalarField;
    location    "60.5";
    object      p;
}
// * * * * * * * * * * * * * * * * * * * * * * * * * * * * * * * * * * * * * //

dimensions      [0 2 -2 0 0 0 0];

internalField   nonuniform List<scalar> 
940
(
-0.365602
-0.324606
-0.312453
-0.311039
-0.296027
-0.269801
-0.372829
-0.344489
-0.299454
-0.265125
-0.237097
-0.202826
-0.367756
-0.315532
-0.265952
-0.213518
-0.18251
-0.145492
-0.309577
-0.322536
-0.352166
-0.360433
-0.400509
-0.359481
-0.360458
-0.346012
-0.396568
-0.389135
-0.466145
-0.442979
-0.341946
-0.312895
-0.344728
-0.35932
-0.376035
-0.382445
-0.328352
-0.290394
-0.265448
-0.224941
-0.232049
-0.239959
-0.247865
-0.0527427
-0.1135
-0.0304094
-0.132707
-0.107935
-0.0574321
0.00196541
-0.00339137
0.00463598
-0.364365
-0.332424
-0.271377
-0.269259
-0.23374
-0.0893639
-0.265529
-0.111139
-0.0961896
0.0116272
-0.12522
-0.133089
-0.0543972
0.00976819
-3.72853e-05
0.00424882
-0.340208
-0.318826
-0.250748
-0.21141
-0.117198
0.0584765
-0.128683
-0.159275
-0.0842733
0.040273
-0.0872544
-0.123432
-0.0501002
0.0140611
0.00847821
0.00278971
-0.259088
-0.260361
-0.198499
-0.143401
-0.0591516
0.157423
0.0850988
-0.197251
-0.0512221
0.0668429
-0.0639396
-0.131144
-0.043711
0.0201074
0.014615
0.000753135
-0.170776
-0.176191
-0.134906
-0.0874409
-0.0154238
0.101561
0.0414772
-0.167176
-0.0304352
0.0189578
-0.0631593
-0.115789
-0.035944
0.0215171
0.0150374
-0.000481673
-0.123426
-0.131671
-0.10625
-0.0633552
-0.0213962
0.0758315
0.0559681
-0.0959851
-0.0130194
0.0335046
-0.0486446
-0.0936281
-0.0305661
0.0162899
0.0132893
-0.000626173
-0.067496
-0.0695829
-0.0563258
-0.0277255
0.0061471
0.0436466
0.0532206
-0.0357835
0.00408202
0.0157883
-0.0382642
-0.064964
-0.0195955
0.0144718
0.0129427
0.00055435
-0.0359838
-0.0431269
-0.0415129
-0.026308
-0.00981047
0.012713
0.0257465
-0.0168986
-0.0060892
0.00677066
-0.0259766
-0.0451321
-0.018447
0.00680259
0.00939666
0.000517396
-0.00275951
-0.00712912
-0.0070861
-0.000707845
0.00747123
0.0154067
0.0207884
0.00622545
0.00441847
0.00642606
-0.0134871
-0.0244072
-0.00827069
0.00720356
0.00973264
0.00200193
0.00983148
0.00417083
0.000788505
0.000339548
0.00195186
0.00373367
0.00572709
0.00104188
-0.00298984
-0.00070476
-0.00856352
-0.0162481
-0.00969382
0.00035668
0.00442164
0.000802851
0.0307187
0.0266519
0.0231246
0.0206063
0.0192769
0.0181093
0.0169421
0.0140207
0.00992927
0.00765176
0.00199
-0.00294735
-0.00061026
0.00426578
0.00649723
0.00235922
0.033455
0.029387
0.0253572
0.0216705
0.0184273
0.0154707
0.0125695
0.00962911
0.00606167
0.00359382
0.00100918
-0.00219876
-0.00217417
-0.000769049
0.00185991
0.00107067
0.0451408
0.0416371
0.0376971
0.0335775
0.0295637
0.0257435
0.0220085
0.0183756
0.014391
0.0110898
0.0076495
0.00462735
0.00340567
0.00281939
0.00387658
0.00210749
-0.117342
-0.159423
-0.21399
-0.0903459
-0.107874
-0.141311
-0.0595196
-0.0667483
-0.0912249
-0.033543
-0.038794
-0.053337
-0.0107653
-0.0148676
-0.0226178
0.00938435
0.00696112
0.00380266
0.0226229
0.0205404
0.0164801
0.0377567
0.0361746
0.0340751
0.0435382
0.0405278
0.0372464
0.0546053
0.0512749
0.0482328
0.0429684
0.036328
0.0262815
-0.0108089
-0.0352321
-0.230931
-0.0149243
-0.0412155
-0.0627036
-0.135238
-0.173238
-0.403795
-0.0884123
-0.121815
-0.150075
-0.217572
-0.268908
-0.41701
0.205482
0.242663
0.289775
0.346238
0.396602
0.42433
0.175084
0.197183
0.226287
0.260788
0.295044
0.287311
0.113725
0.125112
0.13448
0.134973
0.130373
0.0174861
0.0651601
0.0488745
0.0725959
0.0596509
0.0833031
0.0842523
0.106424
0.123007
0.148395
0.175113
0.0718195
0.0538669
0.0776504
0.0630086
0.0851839
0.0854217
0.102983
0.118548
0.140126
0.15736
0.0779385
0.0595312
0.0814046
0.0670475
0.0882505
0.0873482
0.104653
0.111456
0.124888
0.117247
0.0832137
0.0646324
0.0843227
0.069728
0.0867487
0.0864869
0.0933866
0.0963504
0.0899098
0.0755009
0.0885444
0.0698009
0.0866608
0.0722858
0.0840408
0.0844142
0.0814297
0.0822205
0.0685281
0.0553086
0.0952254
0.0760247
0.0893865
0.0754295
0.0813449
0.0801997
0.072206
0.0697303
0.0568162
0.0412037
0.103379
0.0843689
0.0919628
0.0807095
0.0790905
0.076559
0.0656395
0.0596745
0.0489128
0.0337401
0.113451
0.095965
0.093822
0.0863894
0.0778138
0.0739605
0.0622286
0.0525229
0.0435229
0.0315809
0.127035
0.111756
0.100389
0.0931654
0.081824
0.0747136
0.0642081
0.0535921
0.0458349
0.0375526
0.144733
0.127637
0.106382
0.0978163
0.0852665
0.075388
0.0656652
0.0560411
0.0486023
0.0422633
0.181606
0.154252
0.126713
0.111997
0.0987285
0.0871612
0.0771604
0.068237
0.0611146
0.0555705
0.208088
0.168382
0.135759
0.117352
0.103092
0.0915447
0.0817736
0.0736049
0.0668602
0.0614475
0.357334
0.214664
0.171732
0.146251
0.126195
0.110284
0.0977459
0.0880732
0.0805245
0.0746151
0.042275
-0.0126799
-0.0723812
0.0296667
-0.017517
-0.0612921
0.0219124
-0.00993161
-0.0388577
0.0172083
-0.00502143
-0.0209222
0.0176543
0.0029951
-0.00425518
0.0272577
0.0169753
0.0124386
0.0349409
0.0279499
0.0244574
0.0498009
0.0439698
0.0400901
0.0562693
0.0510956
0.046887
0.0690521
0.0634229
0.0586045
-0.384977
-0.367265
-0.372051
-0.352622
-0.343627
-0.298369
-0.30977
-0.28874
-0.246936
-0.266986
-0.234836
-0.185878
-0.220524
-0.190749
-0.148751
-0.175892
-0.153186
-0.115727
-0.294668
-0.3247
-0.341539
-0.302875
-0.319613
-0.321612
-0.315877
-0.338844
-0.328167
-0.298184
-0.286358
-0.286436
-0.28175
-0.253794
-0.238283
-0.23582
-0.196753
-0.196722
-0.203436
-0.155354
-0.168832
-0.185966
-0.137086
-0.137524
-0.21384
-0.189821
-0.144546
-0.168417
-0.20013
-0.177627
-0.171672
-0.148979
-0.148727
-0.303816
-0.28341
-0.194478
-0.153751
-0.0967044
-0.0938244
-0.0125133
0.022188
0.0189484
-0.140883
-0.0914568
-0.0508453
-0.0743705
-0.0914096
-0.0961284
-0.096412
-0.0626971
-0.0582762
-0.0541886
-0.023813
-0.0228561
-0.0337867
-0.0184284
-0.0178772
-0.00255616
-0.015648
-0.0180512
-0.00453287
-0.00656248
-0.0062683
0.00378618
0.0030825
0.00229076
-0.177465
-0.123073
-0.0967598
-0.0681543
-0.0474863
-0.036803
-0.0286153
-0.029851
-0.0267027
-0.0309568
-0.154127
-0.122031
-0.105933
-0.073414
-0.053081
-0.0394445
-0.0294784
-0.0295249
-0.0262149
-0.0297217
-0.136895
-0.11054
-0.096597
-0.0702234
-0.0542241
-0.0399633
-0.0302484
-0.0290112
-0.0257123
-0.0283868
-0.145879
-0.106385
-0.0855563
-0.0625167
-0.0500153
-0.0375705
-0.0301002
-0.0281012
-0.025072
-0.0270168
-0.11961
-0.0801374
-0.0690398
-0.0468531
-0.0416533
-0.0318615
-0.0286847
-0.0265503
-0.0241614
-0.0255979
-0.109974
-0.0707582
-0.0463548
-0.0291134
-0.0303009
-0.0241824
-0.0255608
-0.0242502
-0.0228641
-0.02407
-0.0123089
0.00356122
0.000602315
0.00365215
-0.0178021
-0.0159125
-0.0223009
-0.021661
-0.0211646
-0.0223585
0.0616243
0.0564814
0.0370025
0.02832
-0.00472559
-0.00745642
-0.0181736
-0.018825
-0.0192881
-0.0204829
-0.0116078
0.0051163
0.00905741
0.00769977
-0.00482655
-0.00853065
-0.0154419
-0.0166114
-0.0172939
-0.0184243
-0.0987485
-0.084349
-0.0646371
-0.032588
-0.0280952
-0.0170118
-0.01756
-0.0159016
-0.0154812
-0.0163018
-0.0526984
-0.0458481
-0.0376591
-0.027929
-0.024265
-0.0177611
-0.0175361
-0.0149985
-0.0145406
-0.0145893
-0.0181756
-0.0213165
-0.0175875
-0.018951
-0.0164529
-0.0154505
-0.0147373
-0.0134992
-0.0140154
-0.0131061
-0.0159672
-0.0178185
-0.0145952
-0.0158851
-0.013256
-0.0134628
-0.0122357
-0.0116251
-0.0135289
-0.0120194
-0.0171695
-0.0153259
-0.0128213
-0.0117496
-0.00961725
-0.00963774
-0.0090377
-0.00889964
-0.0120212
-0.0109488
-0.00544874
-0.00473502
-0.00447972
-0.00515993
-0.00449721
-0.00597507
-0.00606176
-0.00685238
-0.00919391
-0.00917554
0.00120182
0.000499683
-0.000332313
-0.00141335
-0.00138089
-0.00278339
-0.00285328
-0.00366961
-0.00389706
-0.00387254
-0.0961874
-0.0784376
-0.0577652
-0.0457861
-0.0361304
-0.0306144
-0.0266076
-0.0291514
-0.0279946
-0.0339607
-0.122178
-0.0906284
-0.0656954
-0.0511213
-0.0391264
-0.0325104
-0.0279403
-0.0298597
-0.0277443
-0.0330988
-0.142998
-0.105587
-0.0759929
-0.0572117
-0.0420873
-0.0341097
-0.0282926
-0.0300285
-0.0272527
-0.0321097
0.0610471
-0.00300579
-0.0621184
0.0645188
-0.0170802
-0.0910138
0.0646766
-0.032885
-0.119394
0.0450993
-0.0904051
-0.191519
0.0283133
-0.120253
-0.238926
-0.134946
-0.34267
-0.40743
0.210096
0.18654
0.128312
0.24956
0.216756
0.147579
0.297867
0.255797
0.170686
0.357628
0.299456
0.186541
0.423073
0.344106
0.194079
0.480131
0.365138
0.128251
0.058456
0.0513853
0.0441126
0.0441333
0.0407226
0.0370666
0.0668126
0.0595921
0.0537838
0.055865
0.0536422
0.0508665
0.0785863
0.0707787
0.0681316
0.0816951
0.0771316
0.0761252
0.104309
0.0952873
0.0966213
0.122785
0.111272
0.10594
0.150129
0.139521
0.127528
0.177087
0.163414
0.120736
0.037083
0.029893
0.0211209
0.0100932
-0.00349554
-0.0205384
-0.041064
-0.0782473
-0.098645
-0.235088
0.0334857
0.029819
0.0248
0.0187062
0.00983336
-0.00301356
-0.0164338
-0.0447373
-0.0551679
-0.0999891
0.0465485
0.0385206
0.0301764
0.0209041
0.00996966
-0.00474212
-0.0157897
-0.040368
-0.048113
-0.0872045
0.0475481
0.0443064
0.0384329
0.0300595
0.019401
0.00334118
-0.00929294
-0.033831
-0.0418078
-0.0700069
0.0602575
0.0516167
0.042657
0.0314053
0.0199034
0.00361494
-0.00731963
-0.0296139
-0.0373216
-0.0574189
0.070726
0.0611477
0.0493398
0.0338392
0.0203979
0.00296233
-0.0075797
-0.0269131
-0.0338625
-0.0495339
0.0789092
0.0641936
0.0502722
0.0331049
0.0183578
0.000967308
-0.00891686
-0.0254634
-0.031544
-0.0448977
0.0864504
0.068371
0.0482059
0.0290056
0.0150217
-0.00136461
-0.0104446
-0.0247643
-0.0300415
-0.0419931
0.0862405
0.0628324
0.0409415
0.0216137
0.0087559
-0.00486495
-0.0122823
-0.0246396
-0.0292791
-0.0400462
0.0771734
0.0530874
0.0314743
0.0144444
0.00277008
-0.00832507
-0.0143129
-0.0248453
-0.0289799
-0.0386054
0.0560259
0.0338236
0.0185781
0.00527837
-0.00352246
-0.011927
-0.0165159
-0.0251451
-0.0287569
-0.0372367
-0.00413589
-0.0160081
-0.0111766
-0.0136751
-0.0141218
-0.0177496
-0.0196215
-0.0261362
-0.0283803
-0.0358967
-0.0522144
-0.0504062
-0.039003
-0.0339022
-0.0274337
-0.025358
-0.0235674
-0.0278199
-0.0281476
-0.0348519
)
;

boundaryField
{
    outlet
    {
        type            fixedValue;
        value           uniform 0;
    }
    upperWall
    {
        type            symmetryPlane;
    }
    lowerWall
    {
        type            symmetryPlane;
    }
    inlet
    {
        type            zeroGradient;
    }
    cylinder
    {
        type            zeroGradient;
    }
    frontAndBack
    {
        type            empty;
    }
}


// ************************************************************************* //
