/*--------------------------------*- C++ -*----------------------------------*\
| =========                 |                                                 |
| \\      /  F ield         | OpenFOAM: The Open Source CFD Toolbox           |
|  \\    /   O peration     | Version:  2512                                  |
|   \\  /    A nd           | Website:  www.openfoam.com                      |
|    \\/     M anipulation  |                                                 |
\*---------------------------------------------------------------------------*/
FoamFile
{
    version     2.0;
    format      ascii;
    arch        "LSB;label=32;scalar=64";
    class       surfaceScalarField;
    location    "192.05";
    object      phi;
}
// * * * * * * * * * * * * * * * * * * * * * * * * * * * * * * * * * * * * * //

dimensions      [0 3 -1 0 0 0 0];

oriented        oriented;

internalField   nonuniform List<scalar> 
26232
(
0.000309989
0.00100675
-0.00131674
0.0012674
0.00155863
-0.00251604
0.00295228
0.000530273
-0.00221515
0.00556506
-0.00215016
-0.000462622
0.00940508
-0.00654196
0.00270194
0.0148207
-0.012719
0.00730331
0.0220882
-0.0206753
0.0134078
0.0312586
-0.0302007
0.0210303
0.0420497
-0.0408189
0.0300277
0.0538462
-0.0518366
0.0400401
0.0658196
-0.0624846
0.0505112
0.077115
-0.0720787
0.0607832
0.0870378
-0.0801445
0.0702217
0.0951856
-0.0864786
0.0783309
0.101496
-0.0911381
0.084828
0.106204
-0.0943743
0.089666
0.109744
-0.0965347
0.0929944
0.11262
-0.0979767
0.0951005
0.115302
-0.0989818
0.0963005
0.118155
-0.0997844
0.0969311
0.121401
-0.100447
0.0972011
0.125218
-0.101146
0.0973283
0.129324
-0.101703
0.0975973
-0.102166
0.0978066
0.133683
0.000224779
0.000781968
0.00118677
0.000596641
0.00314743
-0.00143039
0.00643491
-0.00543764
0.0114407
-0.0115477
0.0184879
-0.0197662
0.0276355
-0.0298229
0.0385315
-0.0410968
0.0504239
-0.0527112
0.0623365
-0.0637491
0.0733201
-0.0734683
0.0826749
-0.0814335
0.0900782
-0.0875479
0.0955957
-0.0919961
0.0995912
-0.0951336
0.102579
-0.0973622
0.105079
-0.0990348
0.107508
-0.100405
0.110153
-0.101627
0.113158
-0.10279
0.116616
-0.103905
0.120556
-0.105085
0.125042
-0.106189
-0.107596
0.130473
0.000209997
0.000571971
0.00132741
-0.00052077
0.00378703
-0.00389001
0.00804609
-0.0096967
0.0144986
-0.0180002
0.0232469
-0.0285145
0.0338995
-0.0404756
0.0455826
-0.0527798
0.0571829
-0.0643115
0.0676775
-0.0742438
0.0763903
-0.082181
0.0831009
-0.0881441
0.0880013
-0.0924482
0.0915457
-0.0955406
0.0942673
-0.0978552
0.096632
-0.0997268
0.0989653
-0.101368
0.101455
-0.102895
0.104192
-0.104364
0.107216
-0.105813
0.110569
-0.107259
0.114252
-0.108768
0.118334
-0.110271
-0.111982
0.122719
0.000285658
0.000286313
0.00175084
-0.00198595
0.00496842
-0.00710759
0.0104445
-0.0151728
0.0183964
-0.025952
0.0284718
-0.0385899
0.0397197
-0.0517234
0.0508997
-0.0639598
0.0609106
-0.0743224
0.0690895
-0.0824227
0.0752942
-0.0883858
0.0797977
-0.0926475
0.0830855
-0.095736
0.0856576
-0.0981127
0.0879054
-0.100103
0.0900786
-0.1019
0.0923157
-0.103605
0.0946934
-0.105272
0.0972641
-0.106935
0.100075
-0.108624
0.103171
-0.110355
0.10659
-0.112187
0.110364
-0.114045
-0.116159
0.114541
0.000443155
-0.000156842
0.00243209
-0.00397488
0.00660686
-0.0112824
0.013371
-0.021937
0.0225327
-0.0351137
0.0331499
-0.0492072
0.0438671
-0.0624406
0.0534694
-0.0735621
0.0612569
-0.0821099
0.0671119
-0.0882777
0.0713383
-0.0926122
0.0744202
-0.0957295
0.0768219
-0.0981377
0.0788888
-0.10018
0.080839
-0.102053
0.0828015
-0.103863
0.0848572
-0.105661
0.0870629
-0.107478
0.089464
-0.109336
0.0920884
-0.111249
0.0949656
-0.113232
0.0980847
-0.115306
0.101466
-0.117426
-0.119767
0.105074
0.000661259
-0.0008181
0.00329916
-0.00661278
0.00851249
-0.0164957
0.0163934
-0.0298179
0.0261569
-0.0448772
0.0363748
-0.059425
0.0456683
-0.0717341
0.0532215
-0.0811153
0.0588728
-0.0877612
0.0629161
-0.092321
0.0658259
-0.095522
0.0680506
-0.0979542
0.0699218
-0.100009
0.0716512
-0.101909
0.0733653
-0.103767
0.0751393
-0.105637
0.0770191
-0.107541
0.0790341
-0.109493
0.0812025
-0.111504
0.0835396
-0.113586
0.0860577
-0.11575
0.088758
-0.118007
0.0916795
-0.120348
-0.122871
0.0947833
0.000921763
-0.00173986
0.00427046
-0.00996147
0.010454
-0.0226793
0.0190388
-0.0384027
0.028648
-0.0544864
0.0377032
-0.0684803
0.0451706
-0.0792015
0.0507582
-0.0867029
0.0547073
-0.0917102
0.0574802
-0.0950939
0.0595298
-0.0975716
0.0611955
-0.0996199
0.0626937
-0.101507
0.0641484
-0.103364
0.0656267
-0.105246
0.0671648
-0.107175
0.068786
-0.109162
0.0705083
-0.111215
0.0723499
-0.113346
0.0743275
-0.115563
0.0764538
-0.117876
0.078735
-0.120288
0.081184
-0.122797
-0.125455
0.0837681
0.00120945
-0.00294932
0.00525978
-0.0140118
0.0121847
-0.0296042
0.0209076
-0.0471256
0.0296965
-0.0632752
0.0371913
-0.0759751
0.0428548
-0.084865
0.046813
-0.0906611
0.0495039
-0.0944011
0.0513972
-0.0969872
0.0528564
-0.0990309
0.0541131
-0.100877
0.0552955
-0.102689
0.056469
-0.104537
0.0576683
-0.106445
0.0589159
-0.108422
0.0602308
-0.110477
0.0616302
-0.112615
0.0631286
-0.114844
0.0647356
-0.11717
0.0664553
-0.119596
0.0682859
-0.122119
0.0702343
-0.124745
-0.127486
0.0722659
0.00150664
-0.00445596
0.00616915
-0.0186743
0.0134743
-0.0369093
0.021772
-0.0554234
0.0293213
-0.0708245
0.0351896
-0.0818435
0.0392835
-0.0889588
0.041976
-0.0933537
0.0437535
-0.0961786
0.0450175
-0.0982512
0.0460291
-0.100042
0.0469318
-0.101779
0.0477974
-0.103555
0.0486622
-0.105402
0.0495481
-0.107331
0.0504716
-0.109346
0.0514462
-0.111451
0.0524831
-0.113652
0.0535914
-0.115952
0.0547774
-0.118356
0.0560445
-0.120863
0.0573969
-0.123471
0.0588355
-0.126184
-0.128993
0.0603421
0.00178944
-0.0062454
0.00689387
-0.0237787
0.0141606
-0.044176
0.0216045
-0.0628673
0.0277506
-0.0769706
0.0321194
-0.0862122
0.0349292
-0.0917687
0.0366585
-0.0950829
0.0377555
-0.0972756
0.0385281
-0.0990239
0.03915
-0.100664
0.0397065
-0.102336
0.0402384
-0.104087
0.0407675
-0.105931
0.0413078
-0.107871
0.0418711
-0.109909
0.0424682
-0.112048
0.0431093
-0.114293
0.043803
-0.116646
0.0445556
-0.119109
0.0453705
-0.121678
0.0462492
-0.12435
0.0471897
-0.127124
-0.129992
0.0481889
0.00203117
-0.00827658
0.00734559
-0.0290931
0.0141875
-0.0510179
0.0205292
-0.069209
0.0252876
-0.081729
0.0283598
-0.0892844
0.030145
-0.0935539
0.0311303
-0.0960683
0.0316872
-0.0978325
0.032036
-0.0993727
0.0322869
-0.100915
0.0324897
-0.102539
0.032668
-0.104265
0.0328357
-0.106099
0.0330035
-0.108039
0.0331815
-0.110087
0.0333789
-0.112246
0.0336039
-0.114518
0.0338631
-0.116905
0.034161
-0.119407
0.0345001
-0.122017
0.0348822
-0.124732
0.0353054
-0.127548
-0.130459
0.0357726
0.00221109
-0.0104877
0.00748069
-0.0343628
0.0136078
-0.0571451
0.0187526
-0.0743537
0.0222341
-0.0852105
0.0242187
-0.0912691
0.0251825
-0.0945177
0.0255662
-0.096452
0.0256583
-0.0979245
0.0256091
-0.0993235
0.0254864
-0.100792
0.0253195
-0.102372
0.0251231
-0.104069
0.0249074
-0.105883
0.024681
-0.107813
0.0244515
-0.109858
0.0242261
-0.11202
0.0240112
-0.114303
0.0238128
-0.116707
0.0236355
-0.11923
0.0234843
-0.121866
0.0233633
-0.124611
0.023272
-0.127456
0.0232186
-0.130406
-0.000705426
-0.000213089
0.000918515
-0.0022824
-0.00306897
0.00464595
-0.004532
-0.00636804
0.00861764
-0.00731992
-0.00929786
0.0120858
-0.010516
-0.0118937
0.0150898
-0.0140052
-0.0145275
0.0180167
-0.0176997
-0.0175096
0.021204
-0.0215259
-0.0209684
0.0247946
-0.0254005
-0.0249045
0.0287792
-0.0292133
-0.0292585
0.0330714
-0.0328214
-0.0339363
0.0375444
-0.0360493
-0.0388076
0.0420355
-0.0386933
-0.0437017
0.0463458
-0.0405289
-0.0484066
0.0502422
-0.0413217
-0.0526736
0.0534663
-0.0408424
-0.0562261
0.0557468
-0.0388843
-0.0587738
0.0568157
-0.035287
-0.0600298
0.0564324
-0.0299542
-0.0597317
0.0543989
-0.0228815
-0.0576656
0.0505929
-0.014117
-0.0536796
0.0449151
-0.00383046
-0.0476978
0.0374113
0.00763371
-0.0396806
0.0282165
-0.029727
0.0201672
0.0171935
-0.00087564
0.000662551
-0.00280725
-0.00113736
-0.00547297
-0.00370233
-0.00867829
-0.00609253
-0.0122976
-0.00827435
-0.0162558
-0.0105693
-0.0205097
-0.0132557
-0.0250211
-0.0164571
-0.0297347
-0.0201909
-0.0345669
-0.0244263
-0.0394021
-0.0291011
-0.0440917
-0.034118
-0.0484552
-0.0393382
-0.0522826
-0.0445793
-0.0553396
-0.0496166
-0.057377
-0.0541886
-0.0581459
-0.058005
-0.057419
-0.0607567
-0.0550191
-0.0621317
-0.050848
-0.0618367
-0.0448965
-0.0596311
-0.0372433
-0.055351
-0.0280624
-0.0488615
-0.0400691
-0.0177203
-0.000919481
0.00158203
-0.002966
0.000909165
-0.00575461
-0.00091372
-0.00904953
-0.00279762
-0.012731
-0.00459283
-0.0167494
-0.00655097
-0.0210909
-0.00891415
-0.025741
-0.011807
-0.0306668
-0.0152651
-0.0358123
-0.0192809
-0.0410963
-0.0238172
-0.0464127
-0.0288016
-0.0516301
-0.0341208
-0.056591
-0.0396184
-0.0611106
-0.045097
-0.064976
-0.0503232
-0.0679496
-0.0550314
-0.0697783
-0.058928
-0.0702126
-0.0616973
-0.0690389
-0.0630104
-0.0661154
-0.0625546
-0.0613983
-0.0600681
-0.0549262
-0.0553336
-0.0482231
-0.0467722
-0.000827871
0.0024099
-0.00275143
0.00283272
-0.00537479
0.00170964
-0.00844246
0.000270052
-0.0118417
-0.00119359
-0.0155161
-0.00287653
-0.019466
-0.00496431
-0.0236779
-0.00759509
-0.028123
-0.0108199
-0.0327549
-0.014649
-0.0375124
-0.0190597
-0.0423232
-0.0239908
-0.0471085
-0.0293355
-0.0517855
-0.0349414
-0.0562664
-0.0406161
-0.0604517
-0.0461379
-0.0642165
-0.0512666
-0.0673914
-0.055753
-0.0697502
-0.0593386
-0.0710184
-0.0617422
-0.0709194
-0.0626536
-0.0692181
-0.0617694
-0.0656758
-0.0588758
-0.0540371
-0.0598619
-0.000620331
0.00303023
-0.00219768
0.00441007
-0.00441061
0.00392257
-0.00700711
0.00286655
-0.00982253
0.00162183
-0.0127992
0.00010014
-0.0159604
-0.0018031
-0.0192601
-0.0042954
-0.022659
-0.007421
-0.0261003
-0.0112077
-0.0295146
-0.0156454
-0.0328274
-0.020678
-0.0359698
-0.0261931
-0.0388905
-0.0320207
-0.0415651
-0.0379415
-0.044002
-0.043701
-0.0462365
-0.0490321
-0.0483014
-0.0536881
-0.0501739
-0.057466
-0.0517283
-0.0601879
-0.0527221
-0.0616598
-0.0527941
-0.0616974
-0.0516299
-0.06004
-0.0574737
-0.0481933
-0.000340085
0.00337032
-0.00141868
0.00548866
-0.00302447
0.00552836
-0.00491652
0.0047586
-0.00693384
0.00363915
-0.00901287
0.00217917
-0.0110565
0.000240549
-0.0130903
-0.00226165
-0.0150346
-0.00547664
-0.0168165
-0.00942577
-0.0183497
-0.0141122
-0.019543
-0.0194847
-0.0203124
-0.0254237
-0.020599
-0.0317341
-0.020372
-0.0381685
-0.0196561
-0.0444169
-0.0185354
-0.0501528
-0.0171616
-0.0550619
-0.0157144
-0.0589133
-0.0143425
-0.0615597
-0.0131446
-0.0628576
-0.0117585
-0.0630835
-0.0102182
-0.0615804
-0.0591469
-0.00854502
-3.9719e-05
0.00341004
-0.000542237
0.00599118
-0.00143292
0.00641905
-0.00250649
0.00583217
-0.00358654
0.0047192
-0.00456545
0.00315808
-0.00537681
0.00105191
-0.00593885
-0.00169961
-0.00619446
-0.00522103
-0.00605529
-0.00956494
-0.0054219
-0.0147456
-0.00419444
-0.0207122
-0.00228768
-0.0273305
0.000357553
-0.0343793
0.00373346
-0.0415444
0.00778177
-0.0484652
0.0123912
-0.0547622
0.0174395
-0.0601102
0.0227769
-0.0642507
0.0282444
-0.0670272
0.0337238
-0.068337
0.0390709
-0.0684307
0.0443294
-0.0668388
-0.0649269
0.0501094
0.000228771
0.00318127
0.000292807
0.00592715
0.000131811
0.00658005
-9.63021e-05
0.00606028
-0.000212542
0.00483544
-8.04132e-05
0.00302595
0.000396188
0.00057531
0.00132996
-0.00263338
0.00280755
-0.00669862
0.00493578
-0.0116932
0.0078186
-0.0176284
0.0115416
-0.0244352
0.0161517
-0.0319406
0.021635
-0.0398626
0.0279123
-0.0478216
0.0348392
-0.0553921
0.0422385
-0.0621616
0.0499175
-0.0677892
0.0577428
-0.072076
0.065622
-0.0749063
0.0735731
-0.0762881
0.0817192
-0.0765768
0.0901528
-0.0752724
-0.0743616
0.0995876
0.000420565
0.0027607
0.000956428
0.00539128
0.00145387
0.0060826
0.00201018
0.00550397
0.00279648
0.00404914
0.00397326
0.00184917
0.00568295
-0.00113438
0.00805448
-0.00500491
0.0112155
-0.00985967
0.01529
-0.0157676
0.0203786
-0.022717
0.0265246
-0.0305812
0.0336817
-0.0390978
0.0416982
-0.0478791
0.0503319
-0.0564554
0.0592907
-0.0643508
0.0682853
-0.0711562
0.0770847
-0.0765886
0.0855559
-0.0805471
0.0936506
-0.0830011
0.101548
-0.0841853
0.109236
-0.0842646
0.117293
-0.0833303
-0.0823978
0.12533
0.000513283
0.00224742
0.0013709
0.00453367
0.00237742
0.00507608
0.0035878
0.00429359
0.00515981
0.00247713
0.00726926
-0.000260288
0.0101237
-0.00398882
0.0138866
-0.0087678
0.0187305
-0.0147035
0.024784
-0.0218211
0.0320879
-0.0300209
0.0405502
-0.0390435
0.0499274
-0.048475
0.0598478
-0.0577996
0.0698734
-0.066481
0.0795815
-0.0740589
0.0886366
-0.0802113
0.0968567
-0.0848086
0.104195
-0.0878853
0.110779
-0.0895854
0.116858
-0.0902638
0.122567
-0.0899739
0.128593
-0.0893563
-0.0883245
0.13452
0.00050631
0.00174111
0.00151206
0.00352792
0.00284912
0.00373902
0.00456252
0.00258019
0.00680297
0.000236685
0.00982835
-0.00328566
0.0138477
-0.0080082
0.0191066
-0.0140267
0.0257773
-0.0213742
0.033903
-0.0299468
0.0433369
-0.0394549
0.0537251
-0.0494317
0.0645497
-0.0592995
0.0752214
-0.0684713
0.0851939
-0.0764535
0.094062
-0.0829271
0.101627
-0.0877761
0.107904
-0.0910863
0.113082
-0.0930627
0.117512
-0.0940157
0.12151
-0.0942621
0.125493
-0.0939569
0.129772
-0.0936354
-0.0926752
0.134123
0.000424374
0.00143625
0.00296012
0.00507768
0.00801631
0.012034
0.0174336
0.0244372
0.0330907
0.043184
0.0542404
0.0655919
0.0765141
0.0863737
0.0947483
0.101487
0.106706
0.11072
0.113958
0.116873
0.119812
0.123183
0.127145
0.132277
0.0374512
-0.0218375
0.00455346
0.0518171
0.00764586
-0.0220117
0.065924
0.0387598
-0.0528667
0.0790446
0.0741375
-0.0872581
0.0915367
0.108638
-0.12113
0.102647
0.136796
-0.147907
0.110844
0.15512
-0.163316
0.115625
0.164434
-0.169216
0.118393
0.166699
-0.169467
0.119934
0.164183
-0.165724
0.118993
0.163435
-0.162493
0.115271
0.17049
-0.166768
0.111869
0.179661
-0.176259
0.11311
0.173318
-0.17456
0.119757
0.137136
-0.143783
0.129417
0.0712418
-0.0809012
0.140056
-0.0127368
0.00209757
0.149951
-0.095378
0.085483
0.1578
-0.156747
0.148898
0.162349
-0.188728
0.184179
0.163275
-0.200029
0.199104
0.162501
-0.201874
0.202648
0.161239
-0.198142
0.199403
0.157824
-0.19747
0.200885
0.150815
-0.211319
0.218328
0.141356
-0.232113
0.241572
0.1319
-0.230229
0.239685
0.124568
-0.180479
0.18781
0.121933
-0.0850228
0.0876581
0.125014
0.0285575
-0.0316389
0.132742
0.125337
-0.133066
0.141941
0.187794
-0.196993
0.14896
0.222782
-0.229801
0.150473
0.247343
-0.248855
0.145173
0.272112
-0.266812
0.135081
0.288731
-0.278638
0.124406
0.269576
-0.258901
0.117371
0.192212
-0.185177
0.11691
0.0639828
-0.0635216
0.123052
-0.0737186
0.0675764
0.131245
-0.173572
0.165379
0.133302
-0.230411
0.228353
0.127849
-0.267596
0.273049
0.120307
-0.286214
0.293756
0.116241
-0.257797
0.261864
0.117273
-0.163365
0.162332
0.121299
-0.0356827
0.0316569
0.123156
0.110741
-0.112598
0.12209
0.233611
-0.232544
0.119812
0.310956
-0.308678
0.118531
0.308454
-0.307173
0.117824
0.184601
-0.183894
0.116377
0.0227393
-0.0212926
0.112134
-0.189659
0.193901
0.11005
-0.330479
0.332563
0.107949
-0.297279
0.299381
0.104682
-0.194173
0.19744
0.0988682
0.123153
-0.117339
0.0964232
0.294859
-0.292414
0.104584
-0.100634
-0.000331579
-0.0392262
0.0184346
-0.0111203
0.0371412
0.0200532
0.0549904
0.0562883
0.0727046
0.090924
0.088869
0.120632
0.102012
0.141977
0.111954
0.154493
0.119519
0.159134
0.124515
0.159187
0.126096
0.161854
0.125401
0.171185
0.126135
0.178927
0.131083
0.16837
0.138917
0.129301
0.147258
0.0629016
0.155011
-0.0204905
0.161136
-0.101503
0.164791
-0.160403
0.165616
-0.189553
0.16351
-0.197923
0.160058
-0.198421
0.156683
-0.194767
0.151504
-0.192291
0.142483
-0.202298
0.131167
-0.220797
0.121076
-0.220138
0.114696
-0.174099
0.113787
-0.0841139
0.119631
0.0227134
0.130281
0.114688
0.14219
0.175885
0.151615
0.213357
0.155247
0.243711
0.151895
0.275464
0.143322
0.297304
0.133225
0.279673
0.125366
0.200071
0.122235
0.0671132
0.125156
-0.0766393
0.131577
-0.179993
0.133108
-0.231942
0.127057
-0.261545
0.119088
-0.278245
0.115501
-0.25421
0.117205
-0.165069
0.121498
-0.0399753
0.123966
0.108273
0.12356
0.234017
0.121933
0.312583
0.120503
0.309884
0.119364
0.18574
0.117317
0.0247864
0.111753
-0.184094
0.109191
-0.327917
0.106908
-0.294997
0.104673
-0.191938
0.100917
0.126909
0.0975537
0.298222
0.109748
-0.0297034
-0.056295
-0.0106386
-0.0301851
0.0102611
-0.00084657
0.0322079
0.0343416
0.054029
0.0691029
0.0747355
0.0999254
0.0929995
0.123713
0.108374
0.139119
0.120553
0.146955
0.128713
0.151028
0.13281
0.157756
0.135281
0.168714
0.139993
0.174215
0.148129
0.160233
0.156758
0.120673
0.163424
0.0562349
0.168341
-0.025407
0.171119
-0.104282
0.170921
-0.160204
0.168207
-0.186839
0.163434
-0.19315
0.157635
-0.192622
0.152376
-0.189508
0.146052
-0.185968
0.135764
-0.192009
0.12278
-0.207813
0.111772
-0.20913
0.106135
-0.168462
0.107082
-0.085061
0.115155
0.0146405
0.128198
0.101645
0.142655
0.161428
0.154558
0.201453
0.160619
0.23765
0.159674
0.276409
0.152993
0.303985
0.143704
0.288962
0.13505
0.208725
0.129113
0.0730508
0.128368
-0.0758943
0.132494
-0.184119
0.13354
-0.232988
0.127039
-0.255043
0.118376
-0.269582
0.114869
-0.250703
0.117216
-0.167416
0.121997
-0.0447558
0.125285
0.104985
0.125577
0.233725
0.124484
0.313675
0.122864
0.311505
0.121327
0.187277
0.118825
0.0272882
0.112082
-0.177352
0.10891
-0.324745
0.106465
-0.292552
0.105271
-0.190744
0.103464
0.128717
0.0993624
0.302324
0.116039
-0.0474503
-0.0687066
-0.0295555
-0.0480799
-0.00967878
-0.0207233
0.0145317
0.0101311
0.0388653
0.0447693
0.063297
0.0754937
0.0858441
0.101166
0.105353
0.11961
0.120652
0.131656
0.130945
0.140734
0.137212
0.151489
0.14283
0.163095
0.151302
0.165743
0.162092
0.149444
0.171389
0.111377
0.177295
0.0503292
0.180241
-0.028353
0.180054
-0.104095
0.176271
-0.156421
0.170243
-0.180811
0.163108
-0.186015
0.155395
-0.184909
0.148426
-0.182539
0.14122
-0.178762
0.130458
-0.181247
0.116456
-0.193812
0.104422
-0.197095
0.0989637
-0.163004
0.1012
-0.0872973
0.111064
0.00477625
0.126107
0.0866017
0.142828
0.144708
0.157326
0.186956
0.166321
0.228655
0.168209
0.274521
0.163594
0.308599
0.155161
0.297395
0.145849
0.218037
0.137343
0.0815572
0.132752
-0.0713034
0.134017
-0.185383
0.134451
-0.233422
0.127701
-0.248293
0.118202
-0.260084
0.114401
-0.246902
0.117297
-0.170313
0.122745
-0.0502036
0.127019
0.100711
0.12806
0.232685
0.127406
0.314329
0.125535
0.313376
0.123646
0.189165
0.120866
0.030068
0.113107
-0.169593
0.109227
-0.320865
0.106606
-0.28993
0.106418
-0.190557
0.106518
0.128617
0.101836
0.307005
0.123363
-0.0462662
-0.0706337
-0.0365683
-0.0577778
-0.0208402
-0.0364514
-5.54295e-05
-0.0106536
0.025612
0.0191019
0.0518983
0.0492074
0.0771441
0.0759197
0.0992144
0.0975399
0.116591
0.114279
0.128836
0.128489
0.137654
0.142671
0.146766
0.153983
0.158783
0.153726
0.171719
0.136507
0.181748
0.101347
0.187698
0.0443801
0.189674
-0.0303299
0.187142
-0.101563
0.180327
-0.149605
0.171422
-0.171906
0.162307
-0.1769
0.15319
-0.175792
0.144934
-0.174283
0.137162
-0.170989
0.126508
-0.170593
0.112142
-0.179446
0.099157
-0.18411
0.0934101
-0.157257
0.0963976
-0.0902848
0.107381
-0.00620756
0.123735
0.0702481
0.14225
0.126193
0.15931
0.169896
0.171514
0.216451
0.176778
0.269256
0.174927
0.31045
0.167572
0.30475
0.157502
0.228107
0.146593
0.0924661
0.138181
-0.0628914
0.136103
-0.183306
0.135693
-0.233013
0.128912
-0.241512
0.118534
-0.249706
0.114073
-0.242441
0.117382
-0.173622
0.123658
-0.05648
0.129089
0.0952798
0.130963
0.230811
0.130663
0.314629
0.128452
0.315587
0.126239
0.191378
0.123414
0.0328939
0.114797
-0.160976
0.110142
-0.31621
0.107302
-0.287091
0.10803
-0.191285
0.110043
0.126605
0.104951
0.312097
0.131606
-0.018637
-0.0605417
-0.0221674
-0.0542474
-0.016613
-0.0420058
-0.00374834
-0.0235183
0.0163721
-0.00101854
0.0400991
0.0254803
0.0647495
0.0512694
0.0875177
0.0747717
0.106575
0.0952216
0.121437
0.113627
0.133827
0.130281
0.147072
0.140739
0.16255
0.138248
0.177437
0.12162
0.188555
0.0902297
0.195145
0.0377901
0.196627
-0.0318117
0.192251
-0.0971869
0.183009
-0.140363
0.171752
-0.16065
0.161011
-0.16616
0.150926
-0.165707
0.141674
-0.165031
0.133524
-0.162839
0.123557
-0.160626
0.10966
-0.165549
0.0960082
-0.170458
0.0895337
-0.150782
0.0926853
-0.0934364
0.103873
-0.0173951
0.120833
0.053288
0.140546
0.10648
0.159959
0.150483
0.175612
0.200798
0.184603
0.260265
0.18566
0.309393
0.179692
0.310718
0.169088
0.238711
0.156301
0.105253
0.144415
-0.0510048
0.138675
-0.177566
0.137088
-0.231426
0.130496
-0.23492
0.119315
-0.238525
0.113845
-0.23697
0.117401
-0.177179
0.12462
-0.0636987
0.131361
0.0885391
0.134158
0.228014
0.134172
0.314615
0.131554
0.318205
0.129041
0.19389
0.126409
0.0355266
0.117104
-0.151671
0.111629
-0.310736
0.108521
-0.283983
0.110011
-0.192774
0.113963
0.122653
0.108665
0.317394
0.140633
0.0350899
-0.0455223
0.0211908
-0.0403483
0.0131574
-0.0339723
0.013446
-0.0238069
0.0217101
-0.00928263
0.0370502
0.0101402
0.0565332
0.0317864
0.0773091
0.0539958
0.0968992
0.0756315
0.114157
0.09637
0.130133
0.114305
0.147138
0.123733
0.165197
0.12019
0.181273
0.105544
0.19326
0.0782432
0.200577
0.0304726
0.201618
-0.0328524
0.195491
-0.0910603
0.184195
-0.129067
0.171148
-0.147602
0.159137
-0.154149
0.148497
-0.155067
0.13871
-0.155244
0.130198
-0.154327
0.121105
-0.151534
0.108464
-0.152907
0.0947564
-0.156751
0.0872792
-0.143305
0.0898547
-0.0960119
0.100654
-0.028194
0.117377
0.0365644
0.13751
0.0863466
0.158791
0.129202
0.177883
0.181706
0.191036
0.247112
0.195781
0.304648
0.191911
0.314588
0.18113
0.249492
0.166337
0.120046
0.151253
-0.03592
0.141669
-0.167982
0.138486
-0.228244
0.132263
-0.228696
0.120487
-0.226748
0.113691
-0.230175
0.117246
-0.180733
0.125497
-0.0719499
0.133731
0.0803049
0.137597
0.224148
0.137893
0.314319
0.134791
0.321307
0.131996
0.196686
0.129767
0.0377549
0.119965
-0.141869
0.113646
-0.304416
0.110222
-0.28056
0.112269
-0.19482
0.118193
0.116729
0.112927
0.32266
0.150289
0.0889292
-0.0348639
0.0771182
-0.0285373
0.0651584
-0.0220125
0.0558425
-0.0144909
0.051616
-0.00505612
0.0539849
0.0077713
0.0633763
0.0223949
0.0779513
0.0394208
0.0952051
0.0583777
0.113091
0.0784844
0.131218
0.0961779
0.150189
0.104762
0.168814
0.101565
0.184695
0.0896629
0.19697
0.0659685
0.204538
0.0229043
0.204706
-0.0330201
0.196761
-0.0831158
0.183764
-0.11607
0.169549
-0.133387
0.156701
-0.141301
0.145726
-0.144092
0.13579
-0.145308
0.127056
-0.145593
0.118736
-0.143214
0.107893
-0.142064
0.0950173
-0.143876
0.0866195
-0.134907
0.08792
-0.0973124
0.0976734
-0.0379474
0.113352
0.0208859
0.133065
0.0666339
0.155633
0.106633
0.177932
0.159407
0.195147
0.229898
0.203416
0.296378
0.201642
0.316362
0.191693
0.259441
0.176194
0.135545
0.15843
-0.0181554
0.144959
-0.154512
0.139747
-0.223032
0.134008
-0.222957
0.121977
-0.214717
0.113612
-0.221809
0.11682
-0.183942
0.126142
-0.081272
0.136027
0.0704204
0.14111
0.219065
0.141753
0.313676
0.138146
0.324914
0.135051
0.199781
0.133428
0.0393776
0.123314
-0.131754
0.116133
-0.297236
0.112363
-0.276789
0.114726
-0.197183
0.122628
0.108827
0.117662
0.327627
0.160392
0.118862
-0.028396
0.113098
-0.0227732
0.107039
-0.0159539
0.100594
-0.00804548
0.0949481
0.000589245
0.0909323
0.0117871
0.0904261
0.0229011
0.0954951
0.0343518
0.106059
0.0478136
0.120773
0.0637712
0.138088
0.0788627
0.156522
0.086328
0.173867
0.0842196
0.188669
0.0748605
0.200576
0.0540621
0.207345
0.0161355
0.205847
-0.0315228
0.196018
-0.0732865
0.181719
-0.10177
0.166884
-0.118553
0.153651
-0.128068
0.142537
-0.132978
0.132738
-0.135509
0.123989
-0.136844
0.116193
-0.135418
0.107176
-0.133047
0.0959559
-0.132655
0.0872142
-0.126166
0.086876
-0.0969743
0.0950619
-0.0461332
0.109116
0.00683212
0.127527
0.0482228
0.150211
0.0839493
0.175134
0.134483
0.19702
0.208013
0.209853
0.283545
0.210657
0.315559
0.20128
0.268818
0.185368
0.151457
0.165497
0.0017151
0.148383
-0.137398
0.140754
-0.215402
0.135521
-0.217724
0.123691
-0.202887
0.113636
-0.211755
0.116031
-0.186337
0.126384
-0.0916241
0.138145
0.058659
0.14467
0.21254
0.145705
0.312641
0.141557
0.329061
0.138172
0.203166
0.137297
0.0402521
0.127072
-0.121528
0.119015
-0.289179
0.114892
-0.272666
0.117327
-0.199618
0.127174
0.0989793
0.122794
0.332007
0.170747
0.130151
-0.0240276
0.12749
-0.0201115
0.126022
-0.0144857
0.125248
-0.00727238
0.12426
0.00157815
0.123517
0.0125298
0.123341
0.0230772
0.124785
0.0329073
0.129681
0.0429174
0.138703
0.0547499
0.151683
0.0658827
0.166609
0.0714018
0.180924
0.0699043
0.193695
0.0620899
0.204146
0.0436108
0.208977
0.011305
0.204864
-0.0274105
0.193151
-0.0615729
0.178039
-0.0866585
0.16309
-0.103604
0.149879
-0.114857
0.13876
-0.121859
0.129218
-0.125968
0.120721
-0.128347
0.113295
-0.127991
0.105758
-0.12551
0.0966114
-0.123509
0.088452
-0.118006
0.086717
-0.0952393
0.0929527
-0.0523689
0.104808
-0.00502318
0.12118
0.031851
0.143019
0.0621095
0.16949
0.108013
0.194846
0.182657
0.211871
0.266519
0.216005
0.311425
0.208096
0.276727
0.192461
0.167092
0.17186
0.022316
0.151749
-0.117286
0.14137
-0.205023
0.136544
-0.212899
0.125464
-0.191807
0.11379
-0.200081
0.114857
-0.187404
0.126018
-0.102786
0.139791
0.0448866
0.148034
0.204296
0.149714
0.31096
0.145113
0.333663
0.141363
0.206916
0.141348
0.0402675
0.131171
-0.111352
0.122205
-0.280213
0.11776
-0.268221
0.120033
-0.201892
0.131715
0.0872974
0.128214
0.335508
0.181134
0.130721
-0.0206253
0.128881
-0.0182721
0.128565
-0.0141698
0.130153
-0.00886001
0.133883
-0.00215221
0.138649
0.00776387
0.143234
0.0184924
0.147414
0.0287272
0.152544
0.0377878
0.160059
0.0472344
0.169835
0.0561069
0.180618
0.0606193
0.190835
0.0596874
0.200015
0.0529092
0.206725
0.0369009
0.207014
0.0110162
0.200197
-0.0205934
0.187389
-0.0487652
0.172415
-0.0716839
0.157979
-0.0891687
0.145236
-0.102114
0.134347
-0.110969
0.125084
-0.116705
0.117016
-0.120279
0.109973
-0.120948
0.103453
-0.118991
0.0962516
-0.116307
0.0894406
-0.111195
0.0871218
-0.0929204
0.0916229
-0.05687
0.101183
-0.0145833
0.114859
0.0181753
0.134373
0.0425955
0.161294
0.081092
0.190925
0.153026
0.213226
0.244217
0.220399
0.304252
0.213318
0.283808
0.198176
0.182234
0.176644
0.0438478
0.15466
-0.0953017
0.141515
-0.191878
0.136872
-0.208256
0.127132
-0.182067
0.114186
-0.187134
0.113317
-0.186535
0.124932
-0.1144
0.140995
0.0288235
0.151228
0.194063
0.153642
0.308546
0.14863
0.338675
0.144543
0.211003
0.145458
0.0393526
0.135526
-0.10142
0.125668
-0.270356
0.120933
-0.263486
0.122827
-0.203786
0.136178
0.0739466
0.133839
0.337847
0.191331
0.129614
-0.0179629
0.127255
-0.015913
0.126201
-0.0131153
0.126751
-0.00940993
0.128892
-0.00429313
0.133698
0.00295785
0.140405
0.0117852
0.148247
0.0208849
0.156268
0.0297668
0.16511
0.0383929
0.175198
0.0460181
0.185097
0.0507206
0.193739
0.0510449
0.200708
0.0459406
0.204498
0.0331114
0.202983
0.0125302
0.194354
-0.0119639
0.181539
-0.0359503
0.167172
-0.0573171
0.153296
-0.0752926
0.140963
-0.0897813
0.130322
-0.100328
0.121224
-0.107606
0.113536
-0.112591
0.106907
-0.114318
0.100983
-0.113067
0.0951661
-0.110491
0.0899485
-0.105978
0.0879184
-0.0908903
0.0911005
-0.0600521
0.0983274
-0.0218102
0.109231
0.00727152
0.125424
0.0264025
0.149793
0.0567233
0.18029
0.122528
0.207397
0.217111
0.220533
0.291116
0.216948
0.287393
0.202593
0.196589
0.181608
0.0648326
0.157987
-0.071681
0.141985
-0.175876
0.136912
-0.203183
0.12877
-0.173926
0.11511
-0.173474
0.111947
-0.183372
0.123068
-0.125521
0.141081
0.0108108
0.153837
0.181307
0.15764
0.304743
0.152458
0.343856
0.147888
0.215572
0.149702
0.0375387
0.140129
-0.0918459
0.129443
-0.25967
0.124422
-0.258464
0.125717
-0.205081
0.140445
0.0592183
0.139536
0.338756
0.201105
0.168531
-0.0132422
-0.173252
0.164515
-0.0118964
0.160999
-0.00959994
0.157977
-0.00638716
0.155621
-0.00193787
0.154747
0.00383177
0.155648
0.0108848
0.158032
0.0185006
0.161621
0.0261782
0.166622
0.033392
0.173307
0.0393326
0.181528
0.0425003
0.190899
0.0416734
0.200959
0.0358806
0.210015
0.0240555
0.215455
0.00708972
0.21624
-0.0127489
0.213114
-0.0328242
0.207301
-0.0515034
0.199767
-0.0677591
0.191326
-0.0813399
0.182397
-0.0913993
0.173243
-0.0984526
0.16432
-0.103669
0.155413
-0.105411
0.146452
-0.104106
0.137514
-0.101552
0.128009
-0.0964728
0.11804
-0.0809213
0.110304
-0.0523156
0.10769
-0.0191966
0.111276
0.00368552
0.12041
0.0172683
0.134055
0.0430787
0.15042
0.106163
0.165551
0.20198
0.176108
0.280559
0.182803
0.280698
0.187857
0.191535
0.186939
0.0657499
0.179335
-0.0640768
0.16872
-0.165261
0.161182
-0.195645
0.150481
-0.163224
0.134395
-0.157388
0.124925
-0.173902
0.125553
-0.126149
0.132832
0.00353145
0.137189
0.176951
0.137969
0.303962
0.136942
0.344884
0.140176
0.212338
0.148094
0.0296209
0.142959
-0.0867109
0.1322
-0.248912
0.124209
-0.250473
0.120444
-0.201316
0.130774
0.0488885
0.13078
0.33875
0.209164
0.179229
-0.00964915
-0.182822
0.175953
-0.00862022
0.172991
-0.00663821
0.170495
-0.00389106
0.168877
-0.000319731
0.168282
0.0044261
0.169164
0.0100034
0.17158
0.0160841
0.17557
0.0221881
0.181152
0.0278099
0.188229
0.0322561
0.196372
0.0343576
0.205
0.0330446
0.21322
0.0276613
0.219688
0.0175869
0.223141
0.00363679
0.222983
-0.0125908
0.219773
-0.0296141
0.21422
-0.0459504
0.206895
-0.0604337
0.198525
-0.0729697
0.189772
-0.0826471
0.18079
-0.0894703
0.171995
-0.0948732
0.163408
-0.0968243
0.154561
-0.0952594
0.145674
-0.0926659
0.137262
-0.0880607
0.129054
-0.072713
0.122202
-0.0454633
0.118991
-0.015986
0.121541
0.00113553
0.129449
0.00936091
0.142346
0.0301813
0.159584
0.0889249
0.176927
0.184637
0.189742
0.267744
0.19764
0.2728
0.202886
0.18629
0.202542
0.0660932
0.194214
-0.0557488
0.181726
-0.152773
0.17268
-0.186599
0.16191
-0.152455
0.145349
-0.140827
0.134483
-0.163035
0.134631
-0.126298
0.143511
-0.0053486
0.149587
0.170875
0.151134
0.302415
0.150261
0.345757
0.153609
0.20899
0.162722
0.020508
0.157152
-0.0811409
0.144625
-0.236384
0.135673
-0.241521
0.130978
-0.196621
0.142279
0.0375879
0.14349
0.337539
0.217165
0.191068
-0.00653905
-0.194178
0.188147
-0.00569923
0.185646
-0.00413683
0.18364
-0.00188484
0.182273
0.00104659
0.181937
0.00476212
0.182837
0.00910359
0.185131
0.0137902
0.188856
0.0184633
0.194004
0.022662
0.200423
0.0258372
0.207671
0.027109
0.215103
0.025613
0.221881
0.0208832
0.226991
0.0124772
0.229627
0.0010006
0.229464
-0.0124274
0.226725