/*--------------------------------*- C++ -*----------------------------------*\
| =========                 |                                                 |
| \\      /  F ield         | OpenFOAM: The Open Source CFD Toolbox           |
|  \\    /   O peration     | Version:  2312                                  |
|   \\  /    A nd           | Website:  www.openfoam.com                      |
|    \\/     M anipulation  |                                                 |
\*---------------------------------------------------------------------------*/
FoamFile
{
    version     2.0;
    format      ascii;
    arch        "LSB;label=32;scalar=64";
    class       volScalarField;
    location    "7";
    object      p;
}
// * * * * * * * * * * * * * * * * * * * * * * * * * * * * * * * * * * * * * //

dimensions      [0 2 -2 0 0 0 0];

internalField   nonuniform List<scalar> 
9200
(
-0.519752
-0.518079
-0.520575
-0.525728
-0.544467
-0.581116
-0.644957
-0.723857
-0.769535
-0.763491
-0.724617
-0.674937
-0.622984
-0.572207
-0.52496
-0.4781
-0.431251
-0.387101
-0.342604
-0.29488
-0.479149
-0.473418
-0.466653
-0.451204
-0.454656
-0.482762
-0.547536
-0.618007
-0.643597
-0.623221
-0.587926
-0.554987
-0.522359
-0.487727
-0.452869
-0.416891
-0.379575
-0.342537
-0.307731
-0.278238
-0.433599
-0.422996
-0.397482
-0.350471
-0.325372
-0.357062
-0.426352
-0.486955
-0.5034
-0.492021
-0.476656
-0.462303
-0.44338
-0.418851
-0.392136
-0.365528
-0.337569
-0.30893
-0.279513
-0.250825
-0.404578
-0.393768
-0.336544
-0.272499
-0.253707
-0.286925
-0.349219
-0.398662
-0.415365
-0.413618
-0.407368
-0.398664
-0.385311
-0.36686
-0.346313
-0.324517
-0.302474
-0.280333
-0.257804
-0.23624
-0.397682
-0.406008
-0.345032
-0.270773
-0.265996
-0.296886
-0.334149
-0.361346
-0.370811
-0.367003
-0.358928
-0.349937
-0.338774
-0.324577
-0.3073
-0.288657
-0.269697
-0.250663
-0.232119
-0.213899
-0.513586
-0.473811
-0.408164
-0.351025
-0.328212
-0.326584
-0.334766
-0.340927
-0.339605
-0.332565
-0.323322
-0.313788
-0.302784
-0.290097
-0.275917
-0.26005
-0.243131
-0.226827
-0.211357
-0.195923
-0.577052
-0.570925
-0.456414
-0.383371
-0.350101
-0.33462
-0.328314
-0.324766
-0.318905
-0.309577
-0.298119
-0.286288
-0.274325
-0.261959
-0.249543
-0.236671
-0.222752
-0.207958
-0.193464
-0.179507
-0.53122
-0.601932
-0.476066
-0.396831
-0.361164
-0.339884
-0.325173
-0.313296
-0.301457
-0.288631
-0.275386
-0.262305
-0.249293
-0.235647
-0.221955
-0.209056
-0.196468
-0.184244
-0.172115
-0.159932
-0.438845
-0.475429
-0.450154
-0.395373
-0.360304
-0.335332
-0.315498
-0.298415
-0.283108
-0.268401
-0.253967
-0.240223
-0.227218
-0.2149
-0.202713
-0.190305
-0.178295
-0.166611
-0.155433
-0.144428
-0.403718
-0.410559
-0.425569
-0.389951
-0.356143
-0.327474
-0.304669
-0.28422
-0.265085
-0.247367
-0.231269
-0.216394
-0.202576
-0.189678
-0.177839
-0.16695
-0.156338
-0.146048
-0.136313
-0.126745
-0.432896
-0.452216
-0.488036
-0.538533
-0.605925
-0.693323
-0.801064
-0.922013
-1.04228
-1.1422
-1.19815
-1.19522
-1.13687
-1.02591
-0.868599
-0.678864
-0.473309
-0.278705
-0.0993256
0.0506786
-0.507851
-0.520242
-0.55234
-0.605836
-0.6831
-0.785766
-0.912557
-1.05401
-1.19358
-1.30979
-1.37873
-1.38709
-1.33437
-1.22245
-1.05595
-0.856271
-0.633986
-0.423844
-0.241684
-0.0789747
-0.580057
-0.589272
-0.623207
-0.680741
-0.766814
-0.883692
-1.02589
-1.18064
-1.33134
-1.45724
-1.53456
-1.55152
-1.49959
-1.38797
-1.21456
-1.00587
-0.78738
-0.574016
-0.383765
-0.217004
-0.644195
-0.645392
-0.68196
-0.738335
-0.82628
-0.945463
-1.08804
-1.24025
-1.38384
-1.50038
-1.57038
-1.58175
-1.52786
-1.41354
-1.24978
-1.05121
-0.844058
-0.643146
-0.462627
-0.310358
-0.669597
-0.672457
-0.708906
-0.765146
-0.84725
-0.954066
-1.08005
-1.21146
-1.33173
-1.42312
-1.47391
-1.4772
-1.42729
-1.32358
-1.17745
-1.00407
-0.822716
-0.646586
-0.488538
-0.354402
-0.65382
-0.662693
-0.703747
-0.757807
-0.826043
-0.910383
-1.00619
-1.10234
-1.18678
-1.24916
-1.28357
-1.28375
-1.24688
-1.16911
-1.05373
-0.911546
-0.762362
-0.617209
-0.487947
-0.377181
-0.606177
-0.629249
-0.672936
-0.720844
-0.776152
-0.837078
-0.900099
-0.96317
-1.02048
-1.06594
-1.0964
-1.1045
-1.08126
-1.02385
-0.934224
-0.818897
-0.698568
-0.57703
-0.468372
-0.380087
-0.558512
-0.587589
-0.632983
-0.675389
-0.715146
-0.757461
-0.808259
-0.859437
-0.903774
-0.943768
-0.973697
-0.981123
-0.956612
-0.901108
-0.819789
-0.722568
-0.62665
-0.537084
-0.455221
-0.377216
-0.541585
-0.572946
-0.600067
-0.626033
-0.660774
-0.705772
-0.753045
-0.800888
-0.852245
-0.895802
-0.910975
-0.894124
-0.849804
-0.787466
-0.712153
-0.633257
-0.5539
-0.481613
-0.422964
-0.366119
-0.540149
-0.550908
-0.560771
-0.580031
-0.613078
-0.652607
-0.703657
-0.770315
-0.833663
-0.857308
-0.840072
-0.79599
-0.737671
-0.674507
-0.611662
-0.551666
-0.491785
-0.433706
-0.379377
-0.330705
0.162792
0.212802
0.227701
0.217213
0.195619
0.171021
0.147348
0.126218
0.108314
0.0933483
0.0808741
0.0706992
0.0622173
0.0546438
0.0476317
0.0415315
0.0362865
0.031721
0.0277797
0.0243987
0.0214939
0.0190063
0.0168795
0.0150544
0.0134859
0.0121399
0.0109857
0.0099954
0.00914481
0.00841378
0.00778463
0.00724038
0.00676618
0.0063503
0.00598401
0.00565687
0.00535781
0.00507772
0.00481267
0.00455078
0.00429137
0.00401263
0.00372891
0.00339887
0.00305291
0.00264594
0.00217262
0.00166841
0.0010301
0.00034475
0.0622452
0.14559
0.177526
0.179384
0.168106
0.151351
0.133146
0.115948
0.100895
0.0881149
0.0775015
0.0686896
0.0609451
0.0538261
0.0472812
0.0413147
0.0361141
0.0315877
0.0276895
0.0243227
0.0214189
0.0189371
0.0168176
0.0149978
0.0134342
0.012094
0.0109454
0.00995978
0.00911311
0.00838469
0.00775719
0.00721572
0.00674499
0.00633141
0.00596651
0.00564043
0.00534227
0.00506349
0.00479934
0.00453891
0.00427944
0.00400346
0.00371866
0.00339301
0.00304625
0.00264059
0.00217286
0.00166053
0.00103023
0.000339049
-0.0702819
0.0400617
0.0997074
0.121721
0.125742
0.122189
0.113483
0.102218
0.0908737
0.080814
0.0723632
0.0651211
0.0584063
0.0519785
0.0461804
0.040526
0.0356315
0.0313213
0.027557
0.0242493
0.0213721
0.0189077
0.0167972
0.0149799
0.0134165
0.0120759
0.0109272
0.00994121
0.00909394
0.00836567
0.00773788
0.00719524
0.00672464
0.00631412
0.00595284
0.005628
0.00532968
0.00505191
0.00478925
0.00453117
0.00427211
0.00399928
0.00371297
0.00339197
0.00304353
0.00263964
0.00217688
0.00165645
0.00103412
0.000331207
-0.178131
-0.0701796
0.00904855
0.0528086
0.073995
0.0837943
0.0867356
0.0842803
0.0783602
0.0716431
0.0654898
0.0600433
0.0548596
0.0495881
0.0443963
0.0391065
0.0346852
0.0306804
0.0270825
0.0238712
0.0210667
0.018666
0.0166071
0.0148279
0.0132931
0.0119748
0.0108441
0.00987408
0.00904042
0.00832287
0.00770423
0.00716848
0.00670116
0.00629397
0.00593842
0.00561901
0.00532406
0.00504873
0.00478778
0.00453241
0.00427457
0.00400582
0.00371903
0.00340312
0.0030538
0.00265145
0.00219411
0.00166471
0.00104919
0.000333986
-0.238441
-0.149086
-0.0711792
-0.0131371
0.0223049
0.0433907
0.0558893
0.0616863
0.0626059
0.0604065
0.0571175
0.0537119
0.0502435
0.0463719
0.0419751
0.03736
0.0337656
0.0301544
0.0267999
0.0237257
0.0209854
0.0186085
0.0165557
0.0147769
0.013242
0.011926
0.0107992
0.00983312
0.00900446
0.00829208
0.00767744
0.00714567
0.00668181
0.00627638
0.0059211
0.00560253
0.00531044
0.00503895
0.00478047
0.0045275
0.00427028
0.00400512
0.00371744
0.00340709
0.00305603
0.00265733
0.00220369
0.00166844
0.00105862
0.000328169
-0.273974
-0.192668
-0.126016
-0.0652559
-0.0218563
0.00642643
0.0257513
0.0380935
0.0444874
0.0469869
0.0471995
0.0463115
0.0447776
0.0424865
0.0394503
0.0367606
0.0322982
0.0289237
0.0258444
0.0229846
0.02042
0.0181911
0.0162563
0.0145628
0.0130845
0.011803
0.0106979
0.00974704
0.00893017
0.00822977
0.00762769
0.00710668
0.00665269
0.00625712
0.00590821
0.00559226
0.00530284
0.00503594
0.00478228
0.00453432
0.00427965
0.00401862
0.00373079
0.00342463
0.00307296
0.00267516
0.00222598
0.00168286
0.00107669
0.000333174
-0.300482
-0.229392
-0.172796
-0.114359
-0.064454
-0.0293967
-0.00430419
0.0137818
0.0254618
0.0319131
0.0352403
0.0369528
0.0377269
0.0376232
0.0363634
0.0341005
0.0311755
0.0282126
0.0254208
0.0227141
0.0202079
0.0179949
0.0160699
0.0143921
0.0129327
0.0116722
0.0105861
0.00965252
0.00885108
0.00816284
0.00757215
0.00706208
0.00661716
0.00623009
0.00588883
0.00557858
0.0052927
0.00502782
0.0047754
0.00452996
0.00427742
0.00402099
0.00373423
0.0034339
0.00308166
0.00268858
0.00224145
0.00169647
0.00109263
0.000337138
-0.303688
-0.246056
-0.199317
-0.152137
-0.104321
-0.0654153
-0.0354657
-0.0124236
0.00470494
0.0162547
0.0228464
0.0267779
0.0294431
0.0311845
0.0315987
0.0305856
0.029041
0.0263046
0.0240867
0.0217955
0.0195894
0.0175888
0.0158077
0.0142206
0.0128152
0.0115848
0.0105155
0.00958966
0.00879301
0.0081088
0.00752155
0.00701599
0.00657857
0.00620028
0.00586604
0.00556148
0.00528066
0.00502036
0.00477168
0.00453014
0.00427992
0.00402716
0.00374084
0.00344441
0.00309123
0.00270083
0.00225389
0.00170745
0.00110216
0.000337241
-0.307965
-0.260689
-0.215817
-0.172423
-0.129779
-0.0914369
-0.0591776
-0.0332477
-0.0130851
0.00166549
0.0120466
0.0187093
0.0230833
0.0262695
0.0281858
0.0284172
0.0271716
0.025158
0.0232024
0.0210857
0.0189839
0.0170648
0.0153666
0.0138606
0.0125262
0.0113545
0.0103312
0.00943962
0.00866933
0.00800709
0.00743906
0.00695
0.00652844
0.0061644
0.00584164
0.00554749
0.0052757
0.00502248
0.00477931
0.00454264
0.00429659
0.00404784
0.00376465
0.00347127
0.00312029
0.00273114
0.00228605
0.00173815
0.001131
0.000362674
-0.296068
-0.271533
-0.23616
-0.19713
-0.159594
-0.12544
-0.0935185
-0.0658649
-0.0424106
-0.0227575
-0.00755983
0.00284059
0.00992075
0.0157491
0.0204893
0.023129
0.0236499
0.0233876
0.0218605
0.020232
0.018474
0.0167577
0.0151761
0.0137367
0.0124387
0.0112877
0.0102779
0.00939503
0.00862763
0.00796716
0.00740015
0.00690964
0.00648889
0.00612784
0.00580853
0.00551907
0.00525263
0.00500461
0.00476611
0.00453422
0.00429219
0.00404789
0.00376718
0.00347832
0.00312676
0.00274398
0.00229351
0.00175348
0.00114093
0.000370549
-0.264617
-0.258471
-0.22741
-0.190216
-0.154517
-0.121947
-0.0935215
-0.0686265
-0.0470635
-0.0290784
-0.0144329
-0.00364046
0.0039459
0.0101768
0.015639
0.0193199
0.0208103
0.0207666
0.0200369
0.0187487
0.0173167
0.0158552
0.0144852
0.0132152
0.0120465
0.0109922
0.0100533
0.0092228
0.00849406
0.00786241
0.00731552
0.00683887
0.0064308
0.00608225
0.00577501
0.00549742
0.00524252
0.00500465
0.00477484
0.00454941
0.00431383
0.00407254
0.00379783
0.00350846
0.00316147
0.00277727
0.00232362
0.00178411
0.0011631
0.000398005
-0.23113
-0.230907
-0.207058
-0.174015
-0.142067
-0.113813
-0.0899854
-0.0687178
-0.0500509
-0.0343697
-0.0202776
-0.00888774
-0.00122529
0.00514799
0.0110874
0.0149613
0.016678
0.0173154
0.0172185
0.0166303
0.0156258
0.0145186
0.0134322
0.0123822
0.0113861
0.010469
0.0096391
0.00889606
0.0082368
0.00765905
0.00715482
0.00671363
0.00633491
0.00601219
0.00572762
0.00546769
0.00522559
0.00499691
0.00477455
0.00455496
0.00432567
0.00408785
0.0038196
0.0035304
0.00318986
0.0028035
0.00235204
0.00181043
0.00118948
0.000426976
-0.203147
-0.20557
-0.188765
-0.162644
-0.136496
-0.11206
-0.09087
-0.0720454
-0.0547526
-0.0400188
-0.0266857
-0.0153455
-0.00739303
-0.00057724
0.0062143
0.0110974
0.0134419
0.0145195
0.0149226
0.0146508
0.0139645
0.0131385
0.0123073
0.0114724
0.0106507
0.0098744
0.00915992
0.00851138
0.00792926
0.00741419
0.00696148
0.00656458
0.00622198
0.00592519
0.00565728
0.00540843
0.00517552
0.00495538
0.00474133
0.00452854
0.00430607
0.00407184
0.00380973
0.00352117
0.00318629
0.00280114
0.0023504
0.00181553
0.00118883
0.00042147
-0.176588
-0.18031
-0.169952
-0.149738
-0.127347
-0.10558
-0.0864936
-0.0696797
-0.0542027
-0.0415203
-0.0298529
-0.0186664
-0.0106643
-0.00434451
0.00226
0.00721296
0.00971452
0.0111497
0.0121266
0.0124296
0.0121389
0.0116472
0.0110998
0.010495
0.00985793
0.00923338
0.00864473
0.00809883
0.00760123
0.00715356
0.00675528
0.00640566
0.00609716
0.00581898
0.00556477
0.00533165
0.00511503
0.00490893
0.00470633
0.00450182
0.00428688
0.00405646
0.00380075
0.00351203
0.00318296
0.00279651
0.00234488
0.00181566
0.00117361
0.000408559
-0.151604
-0.157339
-0.151352
-0.135942
-0.11761
-0.0992007
-0.0828864
-0.0686741
-0.0552281
-0.0439989
-0.0337802
-0.0235117
-0.0156324
-0.00919759
-0.00219786
0.00336598
0.00629758
0.00811591
0.00956771
0.0102727
0.0103192
0.010116
0.00983245
0.00945683
0.00901146
0.00854692
0.00809049
0.00765335
0.00724428
0.00686764
0.00652873
0.0062255
0.00594664
0.00569109
0.0054631
0.00525682
0.00506147
0.00487054
0.00467962
0.00448392
0.00427711
0.00405156
0.00380237
0.00351471
0.00319083
0.0028029
0.00235189
0.00182226
0.00117108
0.000415323
-0.130238
-0.136857
-0.133825
-0.122331
-0.107776
-0.0926935
-0.0787792
-0.066418
-0.0545925
-0.0446014
-0.0355423
-0.0260128
-0.0183318
-0.0122122
-0.00549843
0.000109407
0.00316229
0.00513919
0.0069161
0.00803153
0.00841531
0.00850843
0.00849711
0.0083575
0.00810831
0.00780653
0.0074861
0.00716212
0.00684583
0.00654658
0.00626987
0.00601257
0.00577198
0.00555474
0.00536194
0.00518215
0.00500562
0.00482931
0.0046511
0.00446575
0.00426841
0.00404917
0.00380711
0.00352235
0.00320301
0.00281663
0.0023651
0.00183516
0.00118317
0.000426986
-0.112301
-0.118522
-0.117354
-0.109201
-0.0979687
-0.0856216
-0.0739354
-0.0634585
-0.0531647
-0.0442369
-0.0362905
-0.0280013
-0.0211173
-0.0153911
-0.00883954
-0.00311391
0.000116704
0.00228696
0.00438107
0.0058517
0.00654047
0.00689485
0.00712867
0.00721094
0.00715244
0.00701351
0.00683253
0.00662632
0.0064089
0.00619173
0.00597995
0.00577694
0.00558737
0.00541385
0.00525257
0.00509589
0.00493917
0.00478037
0.00461727
0.0044439
0.00425704
0.00404502
0.00381058
0.00352946
0.00321465
0.00283101
0.00237732
0.00185095
0.00119605
0.000431118
-0.0961346
-0.102229
-0.102555
-0.0968605
-0.088174
-0.0782202
-0.0685698
-0.0597205
-0.0509325
-0.0433599
-0.0365844
-0.0292778
-0.0229828
-0.017629
-0.0113898
-0.0057789
-0.00253477
-0.000314135
0.00195642
0.00370964
0.00467043
0.00526516
0.00572819
0.00602445
0.00615467
0.00617934
0.00613974
0.00605461
0.00593959
0.00580743
0.00566712
0.00552705
0.00539102
0.00525808
0.00512752
0.00499761
0.00486516
0.00472674
0.00458027
0.00441996
0.00424438
0.00404046
0.00381396
0.00353709
0.0032269
0.00284578
0.00239059
0.00186784
0.001206
0.000432897
-0.0819484
-0.087966
-0.0890391
-0.0850681
-0.0785445
-0.0706926
-0.0629574
-0.0557605
-0.0483537
-0.0418608
-0.0359633
-0.0295433
-0.0240677
-0.0193385
-0.0135323
-0.00812366
-0.00492682
-0.00268981
-0.000299805
0.00167115
0.00286257
0.00366648
0.00433254
0.00482545
0.00513466
0.00531745
0.00541676
0.00545264
0.00544131
0.00539789
0.00533435
0.00525906
0.00517536
0.00508488
0.00499042
0.0048919
0.00478607
0.00466938
0.00454078
0.00439483
0.00423155
0.00403677
0.00381868
0.00354695
0.00324133
0.00286309
0.0024071
0.00188568
0.00121717
0.00043676
-0.0699967
-0.0753317
-0.0768044
-0.0742223
-0.0695072
-0.0634921
-0.0573416
-0.0513866
-0.0451231
-0.0397281
-0.0347829
-0.0292359
-0.0245525
-0.0204574
-0.0151279
-0.0100095
-0.00694574
-0.00476858
-0.00234405
-0.000230464
0.00114344
0.0021241
0.00296551
0.00363352
0.00410738
0.00443929
0.00467234
0.0048269
0.00491961
0.00496688
0.00498121
0.00497111
0.00494234
0.00489908
0.00484464
0.00477937
0.00470139
0.00460798
0.00449888
0.00436877
0.0042189
0.00403432
0.00382522
0.00355942
0.00325853
0.0028837
0.00242678
0.00190563
0.00123152
0.00044206
-0.0595118
-0.0641899
-0.0659127
-0.0644015
-0.0611335
-0.0564456
-0.0514697
-0.0467191
-0.0416597
-0.0372764
-0.033137
-0.0283457
-0.0244132
-0.0209878
-0.0162057
-0.0114614
-0.00860184
-0.00654209
-0.00414556
-0.00195535
-0.000449193
0.000670947
0.00165553
0.0024722
0.00309198
0.0035605
0.00391905
0.00418748
0.00438199
0.00451882
0.00461081
0.00466762
0.00469674
0.00470317
0.00469039
0.00465989
0.0046115
0.00454319
0.00445519
0.00434227
0.00420686
0.00403348
0.003834
0.00357484
0.00327897
0.00290772
0.00244988
0.00192861
0.00124864
0.000448085
-0.0500669
-0.0543427
-0.0562665
-0.0554922
-0.0531982
-0.049601
-0.0458303
-0.042207
-0.0380748
-0.0344831
-0.0310733
-0.0269977
-0.0237746
-0.021011
-0.0168019
-0.0124837
-0.00988832
-0.00799201
-0.00567224
-0.00346788
-0.00188422
-0.000664852
0.00042943
0.00136623
0.00210999
0.00269913
0.00317174
0.00354616
0.00383734
0.00406079
0.00422957
0.0043539
0.00444175
0.00449873
0.00452899
0.00453503
0.00451791
0.00447617
0.0044106
0.00431611
0.00419617
0.00403493
0.00384569
0.00359379
0.00330326
0.00293566
0.00247704
0.00195504
0.00126836
0.00045508
-0.0419035
-0.0458279
-0.0477937
-0.0474683
-0.0459809
-0.0433701
-0.0405178
-0.0376533
-0.0342785
-0.0314554
-0.0287241
-0.0252894
-0.0227298
-0.0205964
-0.0169439
-0.0130796
-0.0108018
-0.00911534
-0.006909
-0.00474175
-0.00313178
-0.00185472
-0.000685578
0.000341012
0.00118389
0.00187449
0.00244667
0.0029164
0.00329676
0.00360208
0.00384492
0.00403531
0.00418133
0.0042891
0.00436336
0.00440716
0.00442243
0.00440838
0.00436633
0.00429135
0.00418779
0.00403951
0.00386114
0.003617
0.00333215
0.00296822
0.00250887
0.00198538
0.00129104
0.000463318
-0.0350605
-0.0384432
-0.040306
-0.0403369
-0.0394571
-0.0374987
-0.0353272
-0.0331816
-0.0305383
-0.0283683
-0.0261882
-0.023322
-0.0213722
-0.0198213
-0.0167065
-0.013297
-0.0113484
-0.00990051
-0.00784389
-0.0057598
-0.00416964
-0.00287488
-0.0016655
-0.000579973
0.000335749
0.0011065
0.00176138
0.00231332
0.00277313
0.00315336
0.00346542
0.00371874
0.00392118
0.00407903
0.00419725
0.00427921
0.00432747
0.00434181
0.00432407
0.0042694
0.00418298
0.00404832
0.00388136
0.00364538
0.00336651
0.00300623
0.00254598
0.00202031
0.00131711
0.000472937
-0.0289014
-0.0318666
-0.033641
-0.0339002
-0.0334578
-0.0320737
-0.0305509
-0.0290062
-0.0269166
-0.0252621
-0.0235495
-0.0211866
-0.0197839
-0.0187541
-0.0161375
-0.0131738
-0.01155
-0.0103041
-0.00846372
-0.00651077
-0.00498284
-0.00370697
-0.00249008
-0.00137555
-0.000413489
0.000414948
0.00113395
0.0017531
0.00228052
0.00272659
0.00310118
0.00341268
0.00366837
0.00387426
0.0040353
0.00415495
0.00423616
0.00427906
0.004286
0.00425209
0.00418331
0.00406271
0.00390759
0.00367999
0.00340732
0.00305058
0.00258909
0.00206055
0.00134703
0.000484074
-0.0234901
-0.0261569
-0.0278371
-0.0282478
-0.0281419
-0.0272016
-0.0261613
-0.0250562
-0.0234113
-0.0221992
-0.0208832
-0.0189555
-0.0180405
-0.017477
-0.015308
-0.0127677
-0.0114822
-0.0104906
-0.00882475
-0.00701007
-0.00556925
-0.00434064
-0.00314448
-0.0020283
-0.00104522
-0.000181563
0.000582194
0.0012522
0.00183377
0.0023349
0.00276358
0.00312687
0.00343108
0.00368165
0.00388321
0.0040391
0.00415239
0.00422338
0.00425481
0.00424168
0.00419071
0.00408432
0.00394129
0.0037221
0.00345574
0.00310231
0.00263906
0.00210692
0.00138131
0.000496902
-0.018923
-0.0212482
-0.0227648
-0.0232418
-0.0233641
-0.0227575
-0.0221113
-0.0213747
-0.0201048
-0.0192548
-0.0182542
-0.0167003
-0.0162186
-0.0160601
-0.0142875
-0.0121333
-0.0111588
-0.0104037
-0.00892777
-0.00726635
-0.00593134
-0.00477155
-0.00361929
-0.00252515
-0.00154406
-0.000666549
0.000122722
0.000826693
0.00144794
0.00199202
0.0024649
0.00287205
0.0032186
0.00350911
0.00374768
0.00393726
0.00408086
0.00417869
0.0042338
0.0042409
0.00420749
0.00411507
0.00398413
0.00377313
0.00351299
0.00316254
0.00269677
0.00216023
0.0014205
0.000511521
-0.0148889
-0.0169218
-0.018288
-0.0188131
-0.0191126
-0.0187774
-0.018457
-0.018007
-0.0170272
-0.0164615
-0.0157106
-0.0144772
-0.0143757
-0.0145593
-0.0131237
-0.0113143
-0.0106241
-0.0100872
-0.0087981
-0.00729548
-0.00607755
-0.00500143
-0.00391063
-0.00285782
-0.00189848
-0.00102639
-0.000229771
0.000491539
0.00113764
0.00171175
0.00221782
0.00265966
0.00304104
0.00336546
0.00363629
0.0038559
0.00402703
0.00414961
0.00422685
0.00425304
0.00423644
0.00415734
0.00403816
0.00383486
0.00358065
0.00323273
0.00276333
0.00222161
0.00146531
0.000528381
-0.0113685
-0.0131695
-0.0143944
-0.0149436
-0.0153602
-0.0152225
-0.0151586
-0.0149332
-0.0141881
-0.0138487
-0.0132894
-0.0123276
-0.0125546
-0.013021
-0.0118681
-0.010362
-0.00992615
-0.00958417
-0.0084684
-0.00712045
-0.00602298
-0.00503833
-0.00402044
-0.00302313
-0.0021013
-0.00125097
-0.000463231
0.000259852
0.000916307
0.0015073
0.00203491
0.00250128
0.00290881
0.00325988
0.00355694
0.00380168
0.00399639
0.00414057
0.00423747
0.00428074
0.00427951
0.00421241
0.00410428
0.00390766
0.0036589
0.00331274
0.00283851
0.00229071
0.00151516
0.000545672
-0.00832181
-0.00991149
-0.0109959
-0.0115578
-0.012054
-0.0120655
-0.0122052
-0.0121484
-0.0115869
-0.0114224
-0.0110074
-0.0102785
-0.0107889
-0.0114855
-0.0105709
-0.00933218
-0.00911125
-0.00892895
-0.00796775
-0.00676677
-0.00578647
-0.00489408
-0.00395434
-0.0030215
-0.00214867
-0.00133319
-0.000568248
0.000142537
0.000795689
0.00139074
0.00192819
0.00240869
0.00283335
0.00320338
0.00352031
0.00378498
0.00399914
0.00416162
0.00427568
0.004334
0.0043467
0.00429022
0.00419228
0.00400119
0.00375678
0.0034116
0.00293005
0.00237567
0.00157604
0.000572103
-0.00563575
-0.00704714
-0.00801164
-0.00859229
-0.00915014
-0.00928693
-0.00959359
-0.00965916
-0.00924062
-0.00920555
-0.00888703
-0.00835241
-0.00910051
-0.00997362
-0.00925589
-0.00825632
-0.00822228
-0.00817088
-0.00733997
-0.00626895
-0.00539412
-0.00458683
-0.00372293
-0.00285646
-0.00203802
-0.00126584
-0.000534768
0.000150518
0.000785577
0.00136885
0.00189974
0.00237799
0.00280383
0.00317775
0.00350067
0.00377288
0.00399577
0.00416763
0.00429175
0.00435984
0.00438289
0.00433526
0.00424672
0.0040628
0.00382287
0.00348352
0.0029937
0.00244135
0.00161493
0.000561454
-0.00328885
-0.00453529
-0.0053712
-0.00595143
-0.00653721
-0.00677267
-0.00723129
-0.00741107
-0.00712916
-0.0072098
-0.00697405
-0.00662145
-0.0075762
-0.00857424
-0.00800138
-0.00719759
-0.00729679
-0.00735749
-0.0066248
-0.00565487
-0.00486622
-0.00412913
-0.00332867
-0.00251739
-0.00174233
-0.00100213
-0.000293133
0.000378966
0.00100873
0.00159333
0.00213086
0.00261975
0.00305902
0.00344797
0.00378647
0.00407376
0.00431051
0.00449389
0.00462726
0.00470015
0.00472633
0.0046734
0.00458266
0.00437958
0.00413372
0.00375893
0.00325271
0.00265605
0.00182281
0.000711373
-0.00125928
-0.00239023
-0.00313317
-0.00371324
-0.00427772
-0.00453725
-0.00506422
-0.00529144
-0.0050992
-0.00525086
-0.00506765
-0.00488939
-0.00605762
-0.00721743
-0.00684469
-0.00627978
-0.00666539
-0.0066661
-0.00599524
-0.00513559
-0.00443996
-0.00378697
-0.00307425
-0.00235201
-0.00166245
-0.00100321
-0.000370451
0.000231003
0.000796526
0.00132374
0.00181094
0.00225663
0.00265974
0.00301936
0.00333509
0.00360584
0.00383188
0.00401008
0.00414323
0.00422104
0.0042556
0.00421742
0.0041398
0.00396496
0.00372642
0.0034023
0.00287733
0.0023289
0.00143997
0.000423469
0.000596542
-0.000452025
-0.00116537
-0.00181079
-0.00241035
-0.00275548
-0.0033625
-0.00358539
-0.00343398
-0.00361545
-0.00342756
-0.00333724
-0.00455099
-0.00561834
-0.00521081
-0.00467068
-0.0047357
-0.00497033
-0.00440835
-0.00362507
-0.00298555
-0.00237069
-0.00169384
-0.00100581
-0.000345173
0.000290096
0.000902733
0.00148778
0.00204057
0.00255848
0.00303939
0.00348139
0.00388286
0.00424239
0.00455889
0.0048307
0.00505741
0.00523503
0.00536648
0.00543811
0.00546802
0.00541071
0.00533037
0.00511045
0.00488118
0.00447997
0.00396534
0.00335182
0.00236005
0.000988988
0.00234878
0.00143972
0.000800412
0.000101951
-0.000526295
-0.000971547
-0.00172352
-0.00204801
-0.00201281
-0.00227446
-0.00219031
-0.00237622
-0.00390118
-0.00519215
-0.00498827
-0.00464539
-0.00517105
-0.00524447
-0.00467262
-0.00393465
-0.00332883
-0.00275091
-0.00212761
-0.00150535
-0.000916302
-0.000356295
0.000178827
0.000686353
0.00116379
0.00161018
0.00202471
0.00240649
0.00275454
0.00306794
0.00334554
0.00358608
0.00378806
0.00394894
0.00406804
0.00413732
0.00416355
0.00411956
0.00403541
0.0038478
0.00359537
0.00324913
0.00268896
0.0021368
0.00130901
0.000335084
0.0037211
0.00295295
0.00245693
0.00188359
0.00138031
0.00093799
0.000237747
-7.18948e-06
-3.32687e-05
-0.000256827
-4.10392e-05
-0.000238472
-0.00169679
-0.0027956
-0.00261653
-0.00244407
-0.00262545
-0.00264892
-0.0020297
-0.00129806
-0.0007096
-0.000150621
0.000439481
0.00101957
0.00156526
0.00208199
0.00257386
0.0030391
0.00347614
0.00388461
0.00426399
0.00461376
0.00493276
0.00522059
0.00547477
0.00569582
0.00587803
0.00602462
0.00612452
0.00618247
0.00618971
0.00612812
0.00604143
0.0058031
0.00560442
0.00514387
0.00462441
0.00394276
0.00268076
0.00113873
0.00480805
0.00398949
0.00332904
0.00259695
0.00203411
0.00144666
0.000614705
0.000359731
0.000357727
8.64294e-05
-1.32468e-05
-0.000743585
-0.00256961
-0.00377681
-0.00358865
-0.00331066
-0.00370342
-0.00362295
-0.00298111
-0.00223791
-0.00162176
-0.0010476
-0.000472336
6.89555e-05
0.000560786
0.00101267
0.001432
0.00182088
0.00218112
0.0025149
0.00282355
0.00310806
0.00336796
0.00360389
0.0038125
0.00399649
0.00414574
0.00427124
0.00434682
0.00440287
0.00438514
0.00434435
0.00421233
0.00400718
0.00373133
0.00330074
0.00280442
0.00219417
0.00141029
0.000453748
0.00655936
0.00602052
0.00555387
0.00500647
0.00454905
0.00396352
0.00334964
0.00319641
0.00303386
0.00285547
0.00298459
0.00235864
0.00073885
-0.000336939
-0.000434877
-0.000436989
-0.000606213
-0.000360345
0.000333764
0.00104049
0.00161768
0.00214219
0.00264416
0.00310135
0.0035081
0.00387516
0.00421062
0.00451853
0.00480208
0.00506456
0.00530733
0.00553274
0.00573808
0.00592845
0.0060909
0.00624554
0.0063478
0.00646941
0.00647719
0.00657716
0.00644574
0.00652059
0.00625427
0.00617229
0.00591165
0.00530491
0.00501162
0.00385657
0.00276068
0.00125352
0.00680294
0.00623835
0.00580926
0.0052862
0.00478971
0.00404847
0.0032895
0.00313583
0.00302217
0.00262903
0.00204462
0.000566948
-0.00141712
-0.00227361
-0.0019239
-0.00165153
-0.0013374
-0.000743243
8.64173e-05
0.000821353
0.00137874
0.00184437
0.00225631
0.00260961
0.00291052
0.00317432
0.0034115
0.00362808
0.00382823
0.00401555
0.00419121
0.00435762
0.004511
0.00465716
0.00478013
0.00490423
0.00497539
0.00508171
0.00505852
0.0051693
0.00498341
0.00512616
0.00470549
0.00478651
0.00418038
0.00389059
0.00355607
0.00245667
0.00207209
0.000824539
0.00882156
0.00833062
0.007687
0.00754767
0.00750947
0.00690935
0.0064064
0.00641836
0.00655443
0.00672195
0.00647727
0.00513519
0.00323617
0.00188991
0.00130639
0.0012603
0.00156212
0.00219575
0.00290944
0.00348659
0.0039006
0.00420935
0.00444921
0.00463587
0.00478554
0.00491422
0.00503229
0.00514584
0.00525765
0.00537072
0.0054823
0.00559757
0.00570169
0.00581871
0.00589138
0.0060212
0.00600241
0.0062008
0.00595722
0.00637422
0.00568822
0.00652186
0.00528618
0.0063159
0.00515353
0.00510311
0.00502624
0.00310297
0.00312947
0.00136739
-0.118036
-0.133008
-0.147179
-0.163686
-0.179665
-0.193247
-0.214425
-0.22183
-0.243657
-0.249619
-0.108703
-0.120399
-0.132477
-0.144466
-0.159057
-0.168032
-0.185221
-0.188927
-0.200131
-0.211088
-0.0987201
-0.107881
-0.117436
-0.126714
-0.137847
-0.145119
-0.155552
-0.159518
-0.169956
-0.185805
-0.0898003
-0.0968537
-0.104077
-0.111794
-0.119618
-0.126051
-0.133354
-0.141934
-0.152211
-0.164706
-0.0807531
-0.0862471
-0.0915541
-0.0983479
-0.10438
-0.111365
-0.118785
-0.126872
-0.132365
-0.139976
-0.072497
-0.0768575
-0.0809013
-0.0868396
-0.0918061
-0.0981433
-0.103273
-0.107589
-0.111082
-0.118848
-0.0644801
-0.06791
-0.0711491
-0.0758621
-0.0795276
-0.0839825
-0.0872826
-0.0906551
-0.0956905
-0.103176
-0.0570819
-0.0597257
-0.0622369
-0.0657446
-0.0684093
-0.0717059
-0.0749609
-0.0791359
-0.0837851
-0.0887649
-0.0500424
-0.0520652
-0.0540445
-0.0568074
-0.0590644
-0.0621007
-0.0654209
-0.0684163
-0.0709724
-0.0749617
-0.04361
-0.0451897
-0.0467942
-0.0490564
-0.050949
-0.0533067
-0.0556407
-0.0573832
-0.0597191
-0.0639851
-0.0376632
-0.0388928
-0.0402085
-0.0419666
-0.0432304
-0.0448893
-0.0468088
-0.0485242
-0.0512373
-0.0548501
-0.0322615
-0.0331566
-0.0341914
-0.035509
-0.0363777
-0.0378778
-0.0398441
-0.0414681
-0.0435398
-0.0461631
-0.027351
-0.0279574
-0.0288123
-0.0298873
-0.0305806
-0.031925
-0.0335144
-0.034503
-0.0360937
-0.038461
-0.0229469
-0.0233362
-0.0240539
-0.0248875
-0.0252818
-0.0263085
-0.0275469
-0.0283663
-0.0300665
-0.0322735
-0.0189642
-0.0191759
-0.0197495
-0.0203448
-0.020525
-0.0214598
-0.0226335
-0.0234313
-0.0249895
-0.0267157
-0.0153363
-0.0154305
-0.0159127
-0.0163601
-0.0164506
-0.0173235
-0.018296
-0.0188657
-0.0202237
-0.021669
-0.012052
-0.0120818
-0.0125027
-0.0128157
-0.012801
-0.0135588
-0.0143295
-0.0148138
-0.0161759
-0.0174588
-0.00907085
-0.00905386
-0.00942302
-0.00963256
-0.00957224
-0.0102832
-0.010932
-0.0113873
-0.0127069
-0.0137542
-0.00636821
-0.00633178
-0.00668184
-0.00682352
-0.00674487
-0.00740287
-0.00791058
-0.00831945
-0.00959075
-0.0104621
-0.0039397
-0.00389987
-0.00423381
-0.00430957
-0.00421866
-0.00482488
-0.00521398
-0.00561469
-0.00686381
-0.00759733
-0.00174781
-0.00170936
-0.00202553
-0.00205269
-0.00198072
-0.00254971
-0.00283753
-0.00324188
-0.00445406
-0.00505361
0.000221444
0.000257285
-4.17854e-05
-3.17813e-05
1.0501e-05
-0.000520078
-0.000719683
-0.00113939
-0.00231082
-0.00280288
0.00197532
0.00200084
0.00171953
0.00176555
0.00177719
0.0012903
0.00116844
0.000724705
-0.000403183
-0.000814281
0.00359234
0.003583
0.0033148
0.00337294
0.00333114
0.0028929
0.00284916
0.00239502
0.00134666
0.00102288
0.00510006
0.00509026
0.00483045
0.00489106
0.00478231
0.00438586
0.00439438
0.00392157
0.00298223
0.00274961
0.00627161
0.0062436
0.00603781
0.0061272
0.00599188
0.0056775
0.0057282
0.00520753
0.00432919
0.00412334
0.00745369
0.00738428
0.0071952
0.00726578
0.00705702
0.00679397
0.00684782
0.00630479
0.00553754
0.00531868
0.00861359
0.00850449
0.008362
0.00838145
0.00812813
0.00797469
0.00805547
0.00758158
0.00703636
0.00692198
0.00904879
0.00897982
0.00889374
0.00887518
0.0086462
0.00858299
0.00863025
0.00814272
0.00763284
0.00736349
0.00992103
0.00976911
0.00945728
0.00958174
0.00953717
0.00941353
0.00960664
0.00955131
0.00919116
0.00897533
0.0656194
0.0687287
0.0716315
0.0750612
0.0784632
0.0807679
0.0819746
0.0819866
0.0816343
0.0799781