/*--------------------------------*- C++ -*----------------------------------*\
| =========                 |                                                 |
| \\      /  F ield         | OpenFOAM: The Open Source CFD Toolbox           |
|  \\    /   O peration     | Version:  2512                                  |
|   \\  /    A nd           | Website:  www.openfoam.com                      |
|    \\/     M anipulation  |                                                 |
\*---------------------------------------------------------------------------*/
FoamFile
{
    version     2.0;
    format      ascii;
    arch        "LSB;label=32;scalar=64";
    class       surfaceScalarField;
    location    "19.5";
    object      phi;
}
// * * * * * * * * * * * * * * * * * * * * * * * * * * * * * * * * * * * * * //

dimensions      [0 3 -1 0 0 0 0];

oriented        oriented;

internalField   nonuniform List<scalar> 
18180
(
0.000301579
0.00156016
-0.00186174
0.00166687
0.00182388
-0.00318917
0.00455466
-0.000761034
-0.00212675
0.00961005
-0.00637861
0.00132322
0.0175572
-0.015183
0.00723581
0.0288682
-0.0270237
0.0157126
0.0433556
-0.0411551
0.0266678
0.060057
-0.0563202
0.0396188
0.0774813
-0.0711105
0.0536863
0.0940369
-0.0843379
0.0677823
0.108427
-0.0952517
0.0808615
0.119921
-0.103609
0.092115
0.128443
-0.109615
0.101093
0.134465
-0.113764
0.107743
0.138846
-0.116666
0.112284
0.142451
-0.118895
0.11529
0.146097
-0.120726
0.11708
0.15029
-0.122655
0.118462
0.154691
-0.12405
0.119649
-0.125657
0.120986
0.159362
0.000270175
0.00128998
0.00194788
0.00014617
0.00586467
-0.00467782
0.0129026
-0.0134165
0.0236794
-0.0259598
0.0379672
-0.0413115
0.0545276
-0.0577156
0.0715212
-0.0733138
0.0871409
-0.0867302
0.100114
-0.0973106
0.109946
-0.105084
0.116895
-0.110559
0.121737
-0.114456
0.125435
-0.117463
0.128843
-0.120073
0.132504
-0.122557
0.13678
-0.125002
0.141637
-0.127512
0.147418
-0.129831
-0.13273
0.154491
0.000410112
0.00087987
0.00279541
-0.00223912
0.00828613
-0.0101685
0.0177783
-0.0229087
0.0311873
-0.0393687
0.0470858
-0.0572101
0.0632911
-0.0739208
0.0777954
-0.0878181
0.0893947
-0.0983295
0.0978625
-0.105778
0.103751
-0.110972
0.107991
-0.114799
0.111492
-0.117958
0.114888
-0.120859
0.118494
-0.123678
0.122409
-0.126473
0.126652
-0.129245
0.131199
-0.132059
0.136179
-0.134811
-0.137864
0.141313
0.000719206
0.000160664
0.00418121
-0.00570113
0.011645
-0.0176323
0.0234707
-0.0347344
0.0382893
-0.0541873
0.0536095
-0.0725302
0.0671705
-0.0874819
0.0777741
-0.0984217
0.0853707
-0.105926
0.0906662
-0.111074
0.0945914
-0.114897
0.0979043
-0.118112
0.101044
-0.121097
0.104198
-0.124013
0.107443
-0.126923
0.11084
-0.12987
0.11449
-0.132894
0.118489
-0.136058
0.122979
-0.139301
-0.14291
0.128024
0.00116025
-0.000999589
0.00596504
-0.0105059
0.0154229
-0.0270902
0.028685
-0.0479965
0.043086
-0.0685883
0.0559797
-0.0854239
0.0659899
-0.097492
0.0730759
-0.105508
0.0779691
-0.110819
0.0815506
-0.114655
0.0844846
-0.117831
0.0871493
-0.120777
0.089738
-0.123686
0.0923718
-0.126646
0.0951514
-0.129703
0.0981616
-0.13288
0.101465
-0.136198
0.105056
-0.139648
0.108965
-0.14321
-0.147037
0.113092
0.00169918
-0.00269877
0.00793954
-0.0167463
0.0188958
-0.0380464
0.032178
-0.0612787
0.0446288
-0.0810391
0.0544078
-0.0952029
0.0612704
-0.104355
0.0658854
-0.110123
0.069113
-0.114047
0.0716192
-0.117161
0.0738084
-0.12002
0.0759045
-0.122873
0.0780333
-0.125815
0.0802665
-0.12888
0.0826395
-0.132076
0.0851677
-0.135408
0.0878505
-0.138881
0.0906904
-0.142488
0.093745
-0.146265
-0.150214
0.0969222
0.00229589
-0.00499466
0.00982107
-0.0242715
0.0213338
-0.0495592
0.0333311
-0.073276
0.0431587
-0.0908668
0.0500711
-0.102115
0.0545628
-0.108846
0.0574953
-0.113055
0.0595961
-0.116148
0.061326
-0.118891
0.062928
-0.121622
0.0645133
-0.124458
0.0661278
-0.12743
0.0677941
-0.130546
0.0695345
-0.133816
0.0713753
-0.137249
0.0733424
-0.140848
0.0754684
-0.144614
0.0777512
-0.148547
-0.15264
0.0801763
0.00289369
-0.00788835
0.0112734
-0.0326511
0.0222925
-0.0605783
0.0322619
-0.0832453
0.0394936
-0.0980985
0.0440815
-0.106703
0.0468423
-0.111607
0.0485901
-0.114803
0.0498659
-0.117424
0.0509498
-0.119975
0.051961
-0.122634
0.0529495
-0.125447
0.0539475
-0.128428
0.0549865
-0.131585
0.0560949
-0.134925
0.0572916
-0.138446
0.0585866
-0.142143
0.0599769
-0.146004
0.0614653
-0.150036
-0.154221
0.0630467
0.00341921
-0.0113076
0.0120312
-0.0412631
0.0217649
-0.070312
0.0294912
-0.0909716
0.0344501
-0.103057
0.0372324
-0.109485
0.038719
-0.113094
0.0395676
-0.115652
0.0401358
-0.117992
0.0405809
-0.12042
0.0409684
-0.123021
0.0413326
-0.125811
0.0416969
-0.128792
0.0420785
-0.131966
0.0424892
-0.135335
0.0429399
-0.138897
0.043441
-0.142644
0.0440066
-0.14657
0.044637
-0.150666
-0.154925
0.0453414
0.00379548
-0.015103
0.0119938
-0.0494615
0.0200289
-0.0783471
0.0256087
-0.0965514
0.0286789
-0.106128
0.0300597
-0.110866
0.0305442
-0.113578
0.0306199
-0.115727
0.030512
-0.117884
0.0303097
-0.120218
0.0300478
-0.122759
0.0297442
-0.125507
0.029413
-0.128461
0.0290689
-0.131622
0.0287279
-0.134994
0.0284056
-0.138574
0.0281176
-0.142356
0.0278756
-0.146328
0.0276879
-0.150479
0.0275621
-0.154799
-0.000768361
0.00425127
-0.00348291
-0.00255491
0.00554018
-0.00375363
-0.0050866
0.00389472
-0.00136303
-0.0081686
0.00131866
0.00176334
-0.0117236
-0.0015608
0.0051158
-0.015718
-0.00483905
0.00883346
-0.020162
-0.00871719
0.0131612
-0.0250721
-0.0133297
0.0182398
-0.0304515
-0.0187424
0.0241219
-0.0362816
-0.0249809
0.030811
-0.0425139
-0.0320276
0.0382599
-0.0490597
-0.0398035
0.0463493
-0.0557739
-0.0481505
0.0548646
-0.0624316
-0.0568208
0.0634784
-0.0687089
-0.0654732
0.0717505
-0.0741841
-0.0736746
0.0791499
-0.0783594
-0.0809118
0.085087
-0.0806743
-0.0866127
0.0889276
-0.080576
-0.0901093
0.090011
-0.0907927
-0.0776756
0.0878923
-0.000620629
0.0048719
-0.00222648
0.00714603
-0.0045728
0.00624105
-0.00746653
0.00421239
-0.0107794
0.00175204
-0.0145255
-0.00109296
-0.0187146
-0.00452802
-0.023363
-0.00868134
-0.0284726
-0.0136328
-0.0340319
-0.0194216
-0.0400214
-0.0260381
-0.0464211
-0.0334038
-0.0532099
-0.0413616
-0.0603507
-0.0496801
-0.0677577
-0.0580662
-0.0752659
-0.0661663
-0.082603
-0.0735747
-0.0893161
-0.0798996
-0.0947021
-0.0847233
-0.087597
-0.0978977
-0.000356161
0.00522806
-0.00154632
0.00833619
-0.00341663
0.00811135
-0.00577509
0.00657085
-0.00851375
0.0044907
-0.0115622
0.00195551
-0.0149592
-0.00113106
-0.0186997
-0.00494079
-0.0227521
-0.00958037
-0.0270657
-0.0151081
-0.0315794
-0.0215243
-0.0362433
-0.0287399
-0.0410443
-0.0365606
-0.046028
-0.0446964
-0.0513006
-0.0527936
-0.0570074
-0.0604595
-0.0632559
-0.0673262
-0.0700898
-0.0730657
-0.0772742
-0.0775388
-0.0811542
-0.083717
-2.90904e-05
0.00525715
-0.000646935
0.00895404
-0.00183492
0.00929933
-0.0034221
0.00815804
-0.00527239
0.00634098
-0.00732682
0.00400995
-0.00951112
0.00105324
-0.0118338
-0.00261808
-0.0142054
-0.00720877
-0.0165204
-0.0127931
-0.0186563
-0.0193884
-0.0204987
-0.0268976
-0.0219765
-0.0350827
-0.0230793
-0.0435936
-0.023917
-0.0519559
-0.0246624
-0.0597141
-0.0257339
-0.0662546
-0.027193
-0.0716067
-0.0300365
-0.0746953
-0.077022
-0.0341688
0.000296703
0.00496045
0.000315456
0.00893528
-7.68277e-05
0.00969161
-0.000736896
0.0088181
-0.0015013
0.00710538
-0.00225372
0.00476237
-0.00290791
0.00170743
-0.0033376
-0.00218839
-0.00342046
-0.00712592
-0.00299368
-0.0132199
-0.00188936
-0.0204927
2.55998e-05
-0.0288126
0.00281933
-0.0378765
0.00643675
-0.047211
0.0107641
-0.0562833
0.0154905
-0.0644404
0.0205448
-0.071309
0.0252013
-0.0762632
0.0301171
-0.079611
-0.080119
0.0332142
0.000560405
0.00440004
0.00117235
0.00832333
0.00159211
0.00927186
0.00191813
0.00849209
0.00234398
0.00667953
0.00305592
0.00405043
0.00422125
0.000542103
0.00606535
-0.00403249
0.00879192
-0.00985249
0.0126201
-0.0170481
0.0177169
-0.0255895
0.0241532
-0.0352488
0.0318711
-0.0455944
0.0406723
-0.0560122
0.0502689
-0.0658799
0.0603065
-0.074478
0.0704101
-0.0814127
0.0805754
-0.0864285
0.0900542
-0.0890898
-0.090416
0.100351
0.000714808
0.00368524
0.00178817
0.00724997
0.00292064
0.00813939
0.00418523
0.0072275
0.00580299
0.00506177
0.00803385
0.00181957
0.0111734
-0.00259741
0.0155176
-0.00837668
0.0213568
-0.0156917
0.0289029
-0.0245942
0.0382201
-0.0349067
0.0491772
-0.0462059
0.061437
-0.0578542
0.0745206
-0.0690958
0.0879216
-0.0792809
0.101123
-0.0876793
0.11394
-0.0942293
0.126056
-0.0985452
0.13787
-0.100903
-0.101973
0.149427
0.000735094
0.00295014
0.00206832
0.00591674
0.00373397
0.00647375
0.00581277
0.00514869
0.00856956
0.00230498
0.0123789
-0.0019898
0.0176555
-0.00787393
0.0247825
-0.0155038
0.0340357
-0.024945
0.045452
-0.0360105
0.0587614
-0.0482161
0.0734106
-0.0608551
0.0886393
-0.0730829
0.103689
-0.0841457
0.117839
-0.093431
0.130712
-0.100552
0.142189
-0.105706
0.152156
-0.108513
0.161614
-0.110361
-0.110185
0.169826
0.00063127
0.00231887
0.00202108
0.00452693
0.00403994
0.00445489
0.00684558
0.00234305
0.0108185
-0.00166794
0.016478
-0.00764926
0.0243151
-0.0157111
0.0346743
-0.0258629
0.0475433
-0.037814
0.0624704
-0.0509376
0.0786222
-0.0643679
0.0949503
-0.0771832
0.110416
-0.088549
0.124212
-0.0979413
0.135823
-0.105042
0.145308
-0.110036
0.152772
-0.113171
0.159028
-0.114768
0.164474
-0.115807
-0.114949
0.169239
0.000457138
0.0017949
0.00412304
0.0077893
0.0133572
0.0214206
0.0323773
0.0461332
0.0620054
0.0788501
0.0953437
0.110275
0.12282
0.132621
0.139863
0.145117
0.149026
0.15272
0.156562
0.162598
-0.0640769
-0.122836
0.109237
-0.0461133
-0.107834
0.0898705
-0.0259735
-0.084048
0.0639082
-0.00547085
-0.0530131
0.0325105
0.0128211
-0.0162512
-0.00204075
0.0279534
0.025435
-0.0405673
0.0403971
0.0726872
-0.0851309
0.0527225
0.125021
-0.137346
0.0656375
0.175976
-0.188891
0.078871
0.212796
-0.226029
0.0900459
0.227072
-0.238247
0.0902792
0.228511
-0.228744
0.0777317
0.234882
-0.222334
0.0668083
0.236555
-0.225632
0.0705695
0.201149
-0.20491
0.087145
0.117909
-0.134485
0.110183
0.00725024
-0.0302886
0.13356
-0.0933146
0.069938
0.152722
-0.160033
0.140872
0.165479
-0.188509
0.175752
0.172619
-0.190536
0.183395
0.175843
-0.179401
0.176177
0.176791
-0.164831
0.163883
0.176656
-0.150264
0.1504
0.175916
-0.135406
0.136146
0.174989
-0.119948
0.120874
0.174801
-0.104946
0.105135
0.176195
-0.0885814
0.0871876
0.179243
-0.0705395
0.0674917
0.183421
-0.0501202
0.0459415
0.188215
-0.034008
0.029214
0.193253
-0.023501
0.0184635
0.198253
-0.0236686
0.0186682
0.202816
-0.0251182
0.0205555
0.206625
-0.0272308
0.0234215
0.209505
-0.0185497
0.0156694
0.211573
-0.00593023
0.00386239
0.213068
0.0149565
-0.0164514
0.214143
0.0325132
-0.0335884
0.214894
0.0511139
-0.0518644
0.215343
0.0618775
-0.0623264
0.215511
0.0730877
-0.0732557
0.215432
0.0769678
-0.0768894
0.215154
0.0839043
-0.0836254
0.214712
0.084992
-0.0845506
0.214146
0.0902485
-0.0896822
0.21349
0.0911548
-0.0904988
0.212735
0.0961149
-0.0953604
0.211927
0.0978781
-0.0970697
0.103125
-0.102223
-0.0939409
-0.126793
-0.0830895
-0.118685
-0.0666404
-0.100497
-0.0462811
-0.0733724
-0.025486
-0.0370463
-0.00560907
0.00555803
0.0137307
0.0533474
0.0332322
0.105519
0.0529711
0.156237
0.0718697
0.193897
0.083914
0.215028
0.083961
0.228464
0.0778667
0.240976
0.0789189
0.235503
0.0913955
0.188672
0.110325
0.0989792
0.130617
-0.0130412
0.149348
-0.112046
0.163333
-0.174019
0.171747
-0.196923
0.175864
-0.194652
0.177368
-0.180904
0.177447
-0.16491
0.177157
-0.149975
0.17682
-0.135069
0.176289
-0.119417
0.176201
-0.104858
0.177669
-0.0900494
0.180949
-0.0738195
0.185236
-0.0544078
0.189696
-0.0384674
0.194016
-0.0278214
0.198275
-0.0279272
0.202404
-0.0292471
0.206141
-0.0309683
0.209159
-0.021567
0.211417
-0.0081886
0.213068
0.0133055
0.214254
0.0313272
0.215058
0.0503097
0.215519
0.0614165
0.215667
0.0729403
0.21556
0.0770741
0.215248
0.0842162
0.214784
0.0854566
0.214196
0.090836
0.213529
0.0918216
0.212766
0.0968784
0.211955
0.0986892
0.104029
-0.0934237
-0.117086
-0.0955554
-0.116554
-0.0895129
-0.10654
-0.0762242
-0.0866611
-0.057406
-0.0558646
-0.0355028
-0.0163452
-0.012326
0.0301706
0.0128243
0.0803688
0.038184
0.130877
0.0603443
0.171737
0.0743934
0.200979
0.0799302
0.222927
0.085419
0.235487
0.0983279
0.222594
0.116471
0.170529
0.134899
0.080551
0.151148
-0.0292894
0.164338
-0.125236
0.172881
-0.182561
0.176846
-0.200889
0.17798
-0.195786
0.177893
-0.180818
0.177218
-0.164234
0.176636
-0.149394
0.176546
-0.134978
0.176532
-0.119404
0.176675
-0.105
0.178044
-0.0914187
0.18128
-0.0770553
0.185642
-0.0587697
0.189968
-0.0427936
0.193784
-0.0316374
0.197415
-0.0315583
0.201191
-0.0330228
0.204994
-0.0347713
0.208325
-0.0248979
0.210892
-0.010756
0.212724
0.011474
0.213985
0.0300656
0.214801
0.0494945
0.215254
0.0609627
0.215389
0.0728056
0.215284
0.0771792
0.214981
0.0845187
0.214545
0.0858932
0.213992
0.0913887
0.213374
0.0924395
0.212665
0.0975882
0.211916
0.0994378
0.104866
-0.0539588
-0.0972963
-0.0707952
-0.0997174
-0.0805033
-0.0968315
-0.0809962
-0.0861681
-0.0717883
-0.0650725
-0.0550706
-0.0330629
-0.0327329
0.00783296
-0.00704351
0.0546794
0.0209194
0.102914
0.0461137
0.146543
0.0653659
0.181727
0.0810141
0.207279
0.0994723
0.217029
0.121965
0.200101
0.142571
0.149923
0.158604
0.0645179
0.170531
-0.041217
0.178208
-0.132913
0.181296
-0.185649
0.180882
-0.200474
0.179078
-0.193983
0.177415
-0.179155
0.176036
-0.162854
0.175118
-0.148476
0.175072
-0.134932
0.175482
-0.119813
0.175968
-0.105487
0.17731
-0.0927598
0.180392
-0.080138
0.184724
-0.0631016
0.188978
-0.0470475
0.192442
-0.0351011
0.195536
-0.0346529
0.198964
-0.0364507
0.202865
-0.0386721
0.206635
-0.028668
0.209693
-0.0138141
0.211838
0.00932867
0.213239
0.0286649
0.214082
0.0486514
0.214536
0.0605085
0.214676
0.0726661
0.214604
0.0772513
0.214354
0.0847686
0.213996
0.086251
0.213534
0.0918506
0.213025
0.0929491
0.212431
0.0981818
0.21181
0.100059
0.10557
0.0115139
-0.0755961
-0.0118441
-0.0763594
-0.0331377
-0.0755379
-0.0485206
-0.0707853
-0.0544868
-0.0591062
-0.0500922
-0.0374574
-0.0358358
-0.00642342
-0.0142547
0.0330982
0.0114589
0.0772006
0.0387964
0.119205
0.0641018
0.156421
0.0893038
0.182077
0.117335
0.188998
0.145145
0.172291
0.166612
0.128456
0.180137
0.0509937
0.187854
-0.0489345
0.190308
-0.135368
0.188083
-0.183423
0.183465
-0.195857
0.178928
-0.189445
0.175777
-0.176005
0.173737
-0.160814
0.172489
-0.147228
0.17238
-0.134823
0.173086
-0.120519
0.173918
-0.106319
0.175306
-0.0941477
0.178257
-0.083089
0.182567
-0.0674122
0.186859
-0.0513388
0.190155
-0.0383978
0.192829
-0.0373267
0.195875
-0.0394965
0.199773
-0.0425695
0.203967
-0.0328628
0.207621
-0.0174676
0.210235
0.00671473
0.211899
0.0270011
0.212843
0.0477068
0.213341
0.060011
0.21352
0.0724863
0.21352
0.0772517
0.213368
0.0849203
0.21314
0.0864792
0.212825
0.0921658
0.212482
0.0932919
0.212067
0.0985973
0.211637
0.100488
0.106072
0.0832636
-0.0585085
0.0630776
-0.0561734
0.0398048
-0.0522651
0.0161701
-0.0471505
-0.00327026
-0.0396659
-0.0128747
-0.027853
-0.0115333
-0.00776487
-4.48303e-05
0.0216098
0.0217955
0.0553603
0.047242
0.0937587
0.0744839
0.129179
0.10384
0.152721
0.135606
0.157232
0.164799
0.143098
0.186125
0.10713
0.199053
0.0380659
0.203852
-0.0537338
0.200936
-0.132451
0.193218
-0.175705
0.184576
-0.187215
0.177549
-0.182417
0.17303
-0.171486
0.170374
-0.158158
0.168795
-0.145649
0.168529
-0.134558
0.169415
-0.121405
0.170553
-0.107457
0.172002
-0.0955972
0.174828
-0.0859148
0.179143
-0.0717275
0.183596
-0.055792
0.186933
-0.0417348
0.189355
-0.0397486
0.19204
-0.0421813
0.195828
-0.0463577
0.200348
-0.0373824
0.204608
-0.0217281
0.207804
0.00351839
0.209869
0.0249367
0.211024
0.0465512
0.211639
0.0593961
0.211914
0.0722119
0.212032
0.0771329
0.212028
0.0849247
0.211981
0.0865263
0.211868
0.0922788
0.21175
0.0934101
0.211574
0.0987735
0.211399
0.100662
0.106306
0.137116
-0.0461981
0.123808
-0.0428647
0.10829
-0.0367477
0.0903615
-0.029222
0.0713471
-0.0206514
0.0543095
-0.0108154
0.0439889
0.00255577
0.0440697
0.021529
0.0550491
0.0443809
0.074668
0.0741398
0.0988849
0.104962
0.126243
0.125363
0.155708
0.127766
0.182299
0.116507
0.201697
0.0877324
0.212956
0.0268066
0.214966
-0.0557436
0.207674
-0.125159
0.195641
-0.163673
0.183858
-0.175432
0.174769
-0.173329
0.169062
-0.165779
0.165897
-0.154994
0.164062
-0.143814
0.163603
-0.134099
0.164579
-0.12238
0.165994
-0.108872
0.167509
-0.0971118
0.170179
-0.0885846
0.174474
-0.0760233
0.179159
-0.0604768
0.182702
-0.0452777
0.185047
-0.042094
0.187453
-0.0445871
0.191087
-0.0499919
0.195838
-0.0421327
0.200672
-0.0265626
0.204517
-0.000326401
0.207102
0.0223519
0.208588
0.0450654
0.209412
0.0585716
0.20985
0.0717735
0.210144
0.0768396
0.210339
0.0847291
0.210525
0.0863405
0.21067
0.0921344
0.210832
0.0932476
0.210955
0.0986505
0.211097
0.10052
0.106209
0.160742
-0.0371148
0.152516
-0.0346383
0.144841
-0.0290729
0.137024
-0.0214053
0.127684
-0.0113108
0.116599
0.000269626
0.104935
0.0142199
0.0979886
0.0284749
0.0988907
0.0434788
0.109967
0.063064
0.128421
0.0865079
0.151016
0.102768
0.175223
0.103559
0.197322
0.0944083
0.214469
0.0705857
0.224058
0.0172175
0.222512
-0.0541981
0.210923
-0.11357
0.195365
-0.148114
0.181297
-0.161364
0.170678
-0.16271
0.163927
-0.159027
0.160291
-0.151358
0.158274
-0.141797
0.157626
-0.133451
0.158625
-0.12338
0.160325
-0.110572
0.161951
-0.0987375
0.164439
-0.0910726
0.168655
-0.0802393
0.173597
-0.0654193
0.177471
-0.0491516
0.179889
-0.0445124
0.182108
-0.0468055
0.185588
-0.0534715
0.190515
-0.0470606
0.195871
-0.0319185
0.200398
-0.00485299
0.20359
0.0191603
0.205519
0.0431362
0.206651
0.0574397
0.207331
0.0710933
0.20786
0.0763106
0.208311
0.0842782
0.208781
0.08587
0.209237
0.0916784
0.209735
0.09275
0.210215
0.0981704
0.210733
0.100003
0.105716
0.16245
-0.0303255
0.157016
-0.0292048
0.15334
-0.0253967
0.151669
-0.0197345
0.151508
-0.0111493
0.152338
-0.000560414
0.151604
0.0149536
0.148923
0.0311553
0.147529
0.0448733
0.152493
0.0580996
0.1637
0.075301
0.179084
0.0873837
0.195566
0.0870777
0.211108
0.0788662
0.224075
0.0576186
0.229232
0.0120606
0.223673
-0.048639
0.208623
-0.0985204
0.191035
-0.130526
0.175993
-0.146322
0.164724
-0.151441
0.157311
-0.151614
0.153343
-0.14739
0.151279
-0.139733
0.15052
-0.132691
0.15152
-0.12438
0.153541
-0.112592
0.155398
-0.100595
0.157745
-0.0934195
0.161813
-0.0843074
0.166988
-0.0705936
0.171294
-0.0534582
0.17393
-0.0471483
0.176048
-0.0489234
0.179368
-0.0567912
0.184414
-0.0521065
0.190249
-0.0377543
0.195516
-0.0101197
0.199375
0.015301
0.201842
0.04067
0.203369
0.0559119
0.204368
0.0700947
0.205194
0.0754849
0.205955
0.0835165
0.206761
0.0850646
0.207581
0.0908583
0.208465
0.0918652
0.209359
0.097277
0.210308
0.0990531
0.104768
0.157727
-0.0254544
0.152825
-0.0243034
0.149301
-0.0218719
0.148009
-0.0184429
0.149292
-0.0124324
0.152384
-0.00365232
0.158412
0.00892598
0.165626
0.0239409
0.172373
0.0381263
0.17969
0.0507828
0.190324
0.0646675
0.202691
0.0750157
0.214413
0.0753559
0.225123
0.0681569
0.233699
0.0490426
0.235293
0.0104665
0.224569
-0.0379155
0.206345
-0.0802963
0.18706
-0.11124
0.171216
-0.130479
0.159585
-0.13981
0.151589
-0.143618
0.146914
-0.142716
0.144385
-0.137204
0.143245
-0.131551
0.143989
-0.125124
0.146142
-0.114745
0.14822
-0.102673
0.150448
-0.095648
0.154282
-0.088141
0.159585
-0.0758964
0.164326
-0.0581998
0.167275
-0.0500971
0.169377
-0.051025
0.172564
-0.0599779
0.177716
-0.0572587
0.184
-0.0440391
0.18991
-0.016029
0.194489
0.0107213
0.197571
0.0375885
0.19958
0.053903
0.200975
0.0686998
0.20216
0.0743003
0.203288
0.0823884
0.204477
0.0838754
0.205712
0.0896232
0.207033
0.0905441
0.208393
0.0959172
0.209828
0.0976179
0.103307
0.204246
-0.0187344
-0.210966
0.198418
-0.0184753
0.193041
-0.0164952
0.188028
-0.0134304
0.183875
-0.00827878
0.180946
-0.000723218
0.180598
0.00927329
0.18235
0.022189
0.185405
0.0350717
0.189397
0.0467904
0.195895
0.0581702
0.206081
0.0648295
0.218525
0.0629121
0.23344
0.0532413
0.249718
0.0327649
0.260923
-0.000738894
0.262497
-0.0394891
0.255723
-0.0735225
0.244579
-0.100097
0.232213
-0.118113
0.220224
-0.12782
0.209426
-0.132821
0.200381
-0.13367
0.192958
-0.129781
0.186853
-0.125446
0.182235
-0.120506
0.178967
-0.111477
0.176474
-0.10018
0.174701
-0.0938746
0.1742
-0.08764
0.174887
-0.0765841
0.17597
-0.0592823
0.176854
-0.0509813
0.177826
-0.0519967
0.179437
-0.061589
0.181846
-0.0596673
0.184527
-0.0467208
0.186785
-0.0182869
0.188157
0.00934909
0.188763
0.0369829
0.18893
0.053736
0.188928
0.0687016
0.18896
0.0742685
0.189045
0.0823029
0.189231
0.0836899
0.189448
0.0894057
0.189721
0.0902712
0.189993
0.0956454
0.190295
0.0973162
0.103017
0.219158
-0.013457
-0.224435
0.214146
-0.0134629
0.209552
-0.0119013
0.205326
-0.00920424
0.201962
-0.00491486
0.200059
0.00117944
0.2001
0.00923252
0.202947
0.0193422
0.208267
0.0297516
0.21555
0.0395066
0.225466
0.0482547
0.237533
0.0527626
0.250195
0.0502499
0.263209
0.0402271
0.274462
0.021512
0.279614
-0.00589044
0.27707
-0.0369451
0.268732
-0.0651847
0.257181
-0.0885462
0.244715
-0.105646
0.232879
-0.115984
0.222484
-0.122426
0.213842
-0.125028
0.206699
-0.122638
0.200764
-0.119511
0.196181
-0.115923
0.192852
-0.108148
0.190289
-0.0976173
0.188427
-0.0920128
0.18775
-0.0869625
0.188225
-0.0770598
0.189155
-0.0602123
0.189959
-0.0517846
0.190855
-0.0528926
0.192376
-0.0631104
0.194707
-0.0619979
0.197408
-0.0494217
0.199722
-0.0206012
0.201232
0.00783882
0.201919
0.0362962
0.202111
0.0535437
0.202097
0.0687155
0.202108
0.0742576
0.20218
0.0822315
0.202364
0.0835057
0.202593
0.0891769
0.202885
0.0899787
0.203185
0.0953455
0.203518
0.0969833
0.10269
0.235457
-0.00920979
-0.239705
0.231189
-0.00919489
0.227352
-0.00806402
0.223968
-0.00582027
0.221282
-0.00222917
0.219861
0.00260075
0.220258
0.00883598
0.223184
0.016416
0.228612
0.0243229
0.236343
0.0317758
0.24662
0.0379779
0.258485
0.0408972
0.270381
0.0383548
0.281385
0.0292226
0.289512
0.013385
0.292181
-0.00855949
0.289073
-0.0338365
0.281563
-0.0576748
0.271472
-0.0784551
0.260565
-0.0947394
0.249917
-0.105337
0.240033
-0.112541
0.231302
-0.116298
0.223754
-0.11509
0.217288
-0.113044
0.212167
-0.110803
0.208404
-0.104384
0.20551
-0.0947237
0.203353
-0.0898554
0.202378
-0.0859878
0.202607
-0.0772882
0.203378
-0.0609839
0.2041
-0.0525063
0.204919
-0.0537118
0.206339
-0.0645301
0.208558
-0.0642172
0.211213
-0.0520764
0.213576
-0.0229643
0.215178
0.00623708
0.215941
0.0355334
0.21617
0.0533147
0.216157
0.0687283
0.216157
0.0742571
0.21622
0.0821692
0.216406
0.0833192
0.216648
0.0889349
0.216963
0.0896639
0.217294
0.0950143
0.217662
0.0966152
0.102321
0.252527
-0.00562921
-0.256107
0.24896
-0.00562817
0.245782
-0.00488583
0.243127
-0.003166
0.241276
-0.000377545
0.240511
0.00336504
0.241258
0.00808915
0.244014
0.0136599
0.248898
0.0194397
0.255836
0.0248371
0.264874
0.02894
0.275282
0.0304897
0.285757
0.0278796
0.295035
0.019945
0.301455
0.00696502
0.303493
-0.010598
0.300903
-0.0312461
0.294494
-0.0512655
0.285646
-0.0696074
0.275716
-0.0848092
0.265611
-0.0952326
0.255977
-0.102907
0.247381
-0.107702
0.239952
-0.107661
0.233584
-0.106677
0.228471
-0.105689
0.224632
-0.100545
0.221622
-0.091714
0.2193
-0.087533
0.218093
-0.084781
0.218085
-0.0772806
0.218681
-0.0615795
0.219296
-0.0531219
0.220027
-0.0544427
0.221345
-0.0658479
0.223449
-0.0663213
0.226029
-0.0546558
0.228386
-0.0253216
0.230046
0.00457681
0.230878
0.0347016
0.231155
0.053038
0.231159
0.0687243
0.231161
0.0742543
0.231223
0.0821074
0.231417
0.0831254
0.231676
0.0886755
0.232017
0.089323
0.232384
0.0946476
0.232792
0.0962074
0.101906
0.270271
-0.00279171
-0.273108
0.267533
-0.00288996
0.265086
-0.00243949
0.263133
-0.00121252
0.261904
0.000851891
0.261638
0.00363057
0.262628
0.00709934
0.265214
0.0110737
0.269533
0.0151203
0.275547
0.0188238
0.283207
0.0212793
0.291961
0.0217357
0.300733
0.0191076
0.308375
0.0123035
0.313619
0.0017205
0.315425
-0.0124043
0.313471
-0.029292
0.308291
-0.0460851
0.300853
-0.0621694
0.29217
-0.0761259
0.283027
-0.0860903
0.27406
-0.0939394
0.265827
-0.0994687
0.258486
-0.10032
0.251988
-0.100179
0.246593
-0.100294
0.242433
-0.0963853
0.239136
-0.0884172
0.236546
-0.0849428
0.235049
-0.0832843
0.234764
-0.0769954
0.235146
-0.0619617
0.235631
-0.0536065
0.236264
-0.0550756
0.237474
-0.0670578
0.239443
-0.0682906
0.241905
-0.0571185
0.24421
-0.0276261
0.245894
0.00289253
0.246785
0.0338112
0.247117
0.0527053
0.247155
0.0686868
0.247175
0.074234
0.247249
0.0820339
0.247458
0.0829166
0.247741
0.0883922
0.248113
0.088951
0.248521
0.0942397
0.248974
0.095754
0.101436
0.289114
-0.000753187
-0.291152
0.287144
-0.000920722
0.285375
-0.00067059
0.284027
0.000135833
0.283292
0.00158729
0.28339
0.00353245
0.284528
0.00596136
0.286938
0.00866378
0.290742
0.0113158
0.295903
0.013663
0.302283
0.0148991
0.309437
0.0145819
0.3166
0.0119442
0.322852
0.0060519
0.327129
-0.0025564
0.328776
-0.0140512
0.327407
-0.0279229
0.323246
-0.0419244
0.316905
-0.0558282
0.309176
-0.0683972
0.300794
-0.0777082
0.292369
-0.0855145
0.284449
-0.0915486
0.277249
-0.0931203
0.27079
-0.0937196
0.265345
-0.0948489
0.261075
-0.0921152
0.257647
-0.0849893
0.254898
-0.082194
0.253182
-0.0815689
0.252652
-0.0764651
0.252822
-0.0621319
0.253165
-0.0539494
0.253692
-0.0556021
0.254788
-0.0681538
0.256609
-0.0701113
0.258921
-0.0594309
0.261127
-0.0298323
0.262795
0.00122488
0.263725
0.0328809
0.264117
0.052314
0.264202
0.0686012
0.264257
0.074179
0.264357
0.0819337
0.264592
0.0826819
0.264908
0.0880759
0.265319
0.0885406
0.265775
0.0937836
0.266281
0.0952481
0.100905
0.309316
0.000630812
-0.3107
0.307943
0.000452058
0.306736
0.000536606
0.305871
0.00100047
0.305535
0.00192358
0.3059
0.00316753
0.307116
0.00474558
0.309334
0.00644495
0.312631
0.008019
0.31697
0.00932421
0.322212
0.00965692
0.328014
0.00878019
0.333797
0.00616131
0.338822
0.00102708
0.342313
-0.00604773
0.34373
-0.0154683
0.342703
-0.0268964
0.339266
-0.0384868
0.333865
-0.050427
0.327144
-0.0616763
0.319677
-0.0702415
0.311961
-0.077798
0.304497
-0.0840854
0.297541
-0.0861643
0.291166
-0.0873439
0.285659
-0.0893419
0.281228
-0.0876846
0.277612
-0.0813728
0.274662
-0.0792444
0.272698
-0.0796054
0.271894
-0.0756603
0.27182
-0.0620585
0.271995
-0.0541242
0.2724
-0.0560067
0.273373
-0.0691272
0.275031
-0.0717689
0.277162
-0.0615628
0.279226
-0.0318959
0.280834
-0.000382798
0.281779
0.0319359
0.282225
0.051868
0.282369
0.0684564
0.282475
0.0740734
0.282618
0.0817907
0.282891
0.0824085
0.283252
0.0877157
0.283709
0.0880827
0.284222
0.0932705
0.28479
0.0946808
0.100303
0.33069
0.00156723
-0.331627
0.329794
0.00134854
0.32908
0.00125073
0.328657
0.00142289
0.328661
0.0019195
0.329225
0.00260418
0.330458
0.00351253
0.332464
0.0044387
0.335287
0.0051959
0.3389
0.00571121
0.343176
0.00538121
0.347825
0.00413075
0.35242
0.00156713
0.35637
-0.00292371
0.359159
-0.00883677
0.360292
-0.016601
0.359455
-0.0260597
0.356622
-0.0356529
0.352078
-0.0458832
0.346245
-0.0558432
0.339542
-0.0635388
0.332426
-0.0706821
0.325393
-0.0770525
0.318718
-0.0794895
0.31251
-0.0811357
0.30705
-0.0838824
0.302561
-0.0831949
0.298833
-0.0776449
0.295742
-0.0761538
0.293575
-0.0774383
0.292517
-0.0746023
0.292198
-0.0617398
0.292194
-0.0541196
0.292466
-0.0562791
0.293308
-0.0699689
0.29479
-0.0732507
0.296716
-0.0634893
0.2986
-0.0337798
0.300107
-0.00188934
0.301039
0.0310041
0.30153
0.0513768
0.30174
0.0682467
0.301909
0.0739039
0.30211
0.0815901
0.302434
0.0820838
0.30285
0.0873
0.303366
0.0875672
0.303945
0.0926907
0.304584
0.0940421
0.09962
0.353216
0.00202125
-0.35367
0.352815
0.00174974
0.35253
0.00153618
0.352457
0.00149492
0.352716
0.00166108
0.353408
0.00191258
0.354614
0.00230619
0.356409
0.00264362
0.358809
0.00279606
0.361782
0.00273803
0.365221
0.0019421
0.368892
0.000459371
0.372475
-0.00201527
0.375559
-0.00600777
0.377699
-0.0109769
0.378543
-0.0174447
0.377819
-0.0253363
0.375437
-0.0332708
0.371547
-0.0419933
0.366438
-0.050734
0.360461
-0.0575619
0.354017
-0.0642378
0.347522
-0.0705571
0.34122
-0.0731875
0.335242
-0.0751578
0.329867
-0.0785079
0.325334
-0.0786617
0.321501
-0.0738115
0.318281
-0.0729343
0.315925
-0.0750823
0.314618
-0.0732945
0.314044
-0.0611662
0.313847
-0.0539228
0.313978
-0.0564104
0.314681
-0.0706715
0.315975
-0.0745448
0.317674
-0.0651885
0.319347
-0.0354524
0.320717
-0.00325984
0.321608
0.0301134
0.322131
0.0508536
0.322407
0.0679708
0.32265
0.0736615
0.322921
0.0813192
0.323309
0.0816955
0.323792
0.0868173
0.324376
0.0869833
0.325033
0.0920333
0.325754
0.0933209
0.0988439
0.377152
0.00208355
-0.377214
0.377095
0.00180718
0.377112
0.00151876
0.3773
0.0013068
0.377745
0.00121635
0.378516
0.00114125
0.379671
0.00115125
0.38126
0.00105495
0.383275
0.000780594
0.385688
0.000324923
0.388433
-0.000802103
0.391293
-0.00240131
0.394048
-0.00477046
0.396385
-0.00834435
0.397968
-0.0125599
0.398534
-0.0180104
0.397834
-0.0246364
0.395755
-0.0311919
0.392399
-0.0386369
0.387955
-0.0462908
0.382672
-0.0522786
0.376867
-0.0584325
0.370882
-0.0645727
0.364949
-0.0672544
0.359235
-0.0694435
0.35401
-0.0732828
0.349501
-0.0741526
0.345617
-0.0699274
0.342314
-0.0696316
0.339807
-0.0725753
0.338268
-0.0717559
0.337439
-0.0603372
0.337043
-0.0535267
0.337028
-0.0563949
0.337586
-0.0712291
0.33868
-0.0756391
0.340132
-0.0666404
0.341565
-0.0368857
0.342768
-0.00446315
0.343592
0.02929
0.344132
0.0503137
0.344471
0.0676315
0.344792
0.0733404
0.345144
0.0809678
0.345607
0.0812321
0.346169
0.0862556
0.346833
0.0863189
0.34758
0.0912865
0.348396
0.0925047
0.097961
0.402466
0.00192601
-0.402308
0.402654
0.00161944
0.402913
0.00125974
0.403298
0.000921951
0.403869
0.000644577
0.404673
0.000337596
0.405743
8.15919e-05
0.407129
-0.00033111
0.408813
-0.00090403
0.410779
-0.00164072
0.412922
-0.00294501
0.415107
-0.00458655
0.417179
-0.00684183
0.418896
-0.0100621
0.420002
-0.0136658
0.420299
-0.018307
0.419574
-0.0239117
0.417728
-0.0293454
0.414818
-0.0357276
0.410936
-0.0424089
0.406251
-0.047593
0.401032
-0.0532143
0.395561
-0.0591013
0.390038
-0.0617311
0.384645
-0.0640505
0.379625
-0.0682628
0.375182
-0.0697097
0.371278
-0.0660239
0.367925
-0.0662779
0.365298
-0.0699483
0.363546
-0.0700048
0.362464
-0.0592551
0.361866
-0.0529287
0.361704
-0.0562324
0.362115
-0.0716408
0.363001
-0.0765248