/*--------------------------------*- C++ -*----------------------------------*\
| =========                 |                                                 |
| \\      /  F ield         | OpenFOAM: The Open Source CFD Toolbox           |
|  \\    /   O peration     | Version:  2512                                  |
|   \\  /    A nd           | Website:  www.openfoam.com                      |
|    \\/     M anipulation  |                                                 |
\*---------------------------------------------------------------------------*/
FoamFile
{
    version     2.0;
    format      ascii;
    arch        "LSB;label=32;scalar=64";
    class       volVectorField;
    location    "123.4";
    object      U;
}
// * * * * * * * * * * * * * * * * * * * * * * * * * * * * * * * * * * * * * //

dimensions      [0 1 -1 0 0 0 0];

internalField   nonuniform List<vector> 
13248
(
(-0.0216793 0.0173883 7.51994e-20)
(-0.0368718 0.0316356 0)
(-0.0241598 0.0338139 -1.2949e-19)
(0.0189911 0.027735 1.19895e-19)
(0.0956369 0.0151264 1.10616e-19)
(0.208258 -0.0025521 0)
(0.356084 -0.0235637 0)
(0.532197 -0.0460415 2.59049e-19)
(0.722845 -0.0683619 -6.75746e-22)
(0.910123 -0.0894818 -2.21483e-19)
(1.07649 -0.109019 2.01873e-19)
(1.2089 -0.127053 -1.25304e-19)
(1.30116 -0.14379 0)
(1.35436 -0.159308 -1.98353e-19)
(1.37525 -0.173483 3.6093e-19)
(1.37335 -0.186091 -8.6564e-20)
(1.35785 -0.196883 -1.36063e-19)
(1.33543 -0.205664 1.26867e-19)
(1.30982 -0.212244 0)
(1.28272 -0.21696 0)
(1.25511 -0.218051 0)
(1.22528 -0.222091 0)
(1.1996 -0.212329 2.73713e-20)
(1.16108 -0.228799 8.53097e-20)
(-0.0239397 0.0175429 -2.26412e-19)
(-0.031366 0.0266675 1.42634e-19)
(-0.00101206 0.0221745 -8.22664e-22)
(0.069067 0.00969623 -1.82449e-19)
(0.181676 -0.00749713 -1.10457e-19)
(0.336332 -0.0267683 -1.03083e-19)
(0.524717 -0.045736 -1.87625e-19)
(0.729408 -0.0626954 1.74466e-19)
(0.928062 -0.0770403 0)
(1.10021 -0.0891962 1.42772e-21)
(1.23254 -0.100117 1.62298e-21)
(1.32091 -0.110685 1.21493e-19)
(1.36934 -0.121328 0)
(1.38695 -0.13198 0)
(1.38424 -0.142268 1.24426e-19)
(1.36997 -0.151738 -2.3217e-19)
(1.34986 -0.159988 1.27911e-19)
(1.3269 -0.166796 -1.19264e-19)
(1.30254 -0.171961 -4.88651e-20)
(1.27749 -0.17543 -8.31545e-20)
(1.25207 -0.177255 -2.99816e-20)
(1.22731 -0.177331 -5.45949e-20)
(1.20275 -0.173312 8.57278e-20)
(1.17673 -0.176288 2.23544e-20)
(-0.0240617 0.0162507 0)
(-0.0186036 0.0201133 0)
(0.0368025 0.0106467 6.57314e-20)
(0.142666 -0.00561679 6.00015e-20)
(0.298811 -0.0239651 -9.94687e-22)
(0.496663 -0.040738 -1.0565e-19)
(0.715509 -0.0537511 0)
(0.927659 -0.0627395 -8.67028e-20)
(1.10851 -0.0689589 7.87153e-20)
(1.24378 -0.0742037 -1.16869e-21)
(1.33109 -0.0798947 -1.29001e-19)
(1.37724 -0.0866452 -1.13277e-19)
(1.39348 -0.0943352 4.59323e-21)
(1.39102 -0.102453 -8.48251e-20)
(1.3783 -0.110433 2.0794e-19)
(1.36042 -0.117829 0)
(1.33998 -0.124356 -1.21374e-19)
(1.31825 -0.129848 5.96599e-20)
(1.29598 -0.134029 4.88146e-20)
(1.27344 -0.137261 0)
(1.25146 -0.138084 3.63477e-20)
(1.22896 -0.139641 -1.16974e-19)
(1.20806 -0.135656 1.09236e-19)
(1.18481 -0.14021 6.09618e-20)
(-0.021168 0.0133031 -7.86903e-20)
(0.00354253 0.0111678 -7.50323e-20)
(0.0916953 -0.00178693 6.74683e-20)
(0.24087 -0.0187 0)
(0.443243 -0.0338327 0)
(0.676204 -0.0437181 -1.4101e-21)
(0.905885 -0.0481305 0)
(1.10142 -0.049194 -2.57944e-19)
(1.2458 -0.0495931 2.34382e-19)
(1.33741 -0.0512367 -2.83695e-19)
(1.38526 -0.0548272 6.36341e-20)
(1.4024 -0.0601313 0)
(1.40085 -0.0665014 9.68687e-20)
(1.38912 -0.0732883 -1.75752e-19)
(1.37226 -0.0800059 4.16911e-20)
(1.35293 -0.0863272 9.89852e-20)
(1.33251 -0.0920249 -7.47758e-21)
(1.31171 -0.0968648 -1.05843e-19)
(1.29084 -0.100829 0)
(1.27026 -0.103532 0)
(1.24981 -0.105255 -3.36458e-20)
(1.2299 -0.106235 2.90676e-20)
(1.21093 -0.103702 9.72419e-20)
(1.19054 -0.108338 -9.08019e-20)
(-0.0146037 0.00904191 -8.18395e-20)
(0.0370032 0.000512811 -7.61472e-20)
(0.165758 -0.0138816 2.10327e-19)
(0.363084 -0.0273881 -1.2689e-19)
(0.606889 -0.0345844 1.17531e-19)
(0.857504 -0.0345699 2.10725e-19)
(1.07482 -0.0303739 -1.45663e-19)
(1.23583 -0.0258299 -1.69764e-19)
(1.33771 -0.0234605 6.13012e-21)
(1.3909 -0.0240518 2.10659e-19)
(1.41041 -0.0272012 0)
(1.40966 -0.0320622 5.35064e-20)
(1.39815 -0.0378386 0)
(1.38152 -0.0439479 -8.23555e-20)
(1.36278 -0.0499961 1.14689e-19)
(1.34335 -0.0557109 1.27486e-21)
(1.32384 -0.0608792 -2.81468e-20)
(1.30443 -0.0654013 5.12062e-20)
(1.28525 -0.0690833 4.29509e-20)
(1.26627 -0.072023 -3.7391e-20)
(1.24777 -0.0739434 3.36296e-20)
(1.2297 -0.0753053 -2.90535e-20)
(1.21214 -0.0747656 0)
(1.19431 -0.0786613 -2.09307e-20)
(-0.00367595 0.00406915 8.18188e-20)
(0.0834692 -0.0101591 7.90329e-20)
(0.259862 -0.0227877 -7.04724e-20)
(0.505053 -0.0281518 1.29452e-19)
(0.776733 -0.0239587 -1.19902e-19)
(1.02305 -0.013937 1.05864e-19)
(1.20993 -0.00362122 -4.99892e-20)
(1.32986 0.00339947 1.2773e-19)
(1.39352 0.00609555 -7.82923e-20)
(1.41811 0.00507537 1.32111e-19)
(1.41937 0.0015102 -2.98507e-19)
(1.40852 -0.00352277 1.06969e-19)
(1.39223 -0.00925282 -9.04316e-20)
(1.37393 -0.0151861 8.41862e-20)
(1.35506 -0.0210157 6.979e-20)
(1.33615 -0.0265408 5.92225e-20)
(1.31733 -0.0316393 -1.63034e-19)
(1.29873 -0.0361784 9.9818e-20)
(1.2804 -0.0401293 -4.29434e-20)
(1.26252 -0.0433476 1.08322e-19)
(1.24514 -0.0458736 -3.48618e-20)
(1.22831 -0.0477596 -8.05761e-20)
(1.21216 -0.0481723 7.34051e-20)
(1.19613 -0.0518352 2.0924e-20)
(0.0123704 -0.000937 0)
(0.143999 -0.0186712 6.92531e-22)
(0.372391 -0.0250866 1.46137e-19)
(0.657909 -0.018053 -1.34699e-19)
(0.938073 -0.00171167 -1.19107e-19)
(1.16128 0.0158585 2.16855e-19)
(1.30932 0.0290093 -9.87409e-20)
(1.39053 0.0359964 1.26416e-19)
(1.42415 0.0375823 -3.9876e-21)
(1.42914 0.0354171 -6.83321e-20)
(1.41935 0.0310474 1.43935e-19)
(1.40307 0.0255641 -2.08434e-19)
(1.38448 0.0196233 0)
(1.36533 0.0135915 -3.89344e-20)
(1.34628 0.0076826 -1.01484e-19)
(1.32754 0.00203697 3.18123e-20)
(1.30923 -0.00322371 1.64224e-21)
(1.2914 -0.00802591 -6.4822e-20)
(1.27412 -0.0122729 5.45803e-21)
(1.25737 -0.0159549 7.33045e-20)
(1.24118 -0.019043 -3.13459e-20)
(1.22556 -0.0214535 -1.1278e-20)
(1.21041 -0.0233561 3.60236e-20)
(1.19556 -0.0267284 0)
(0.0341683 -0.00518844 0)
(0.218444 -0.0225946 4.01246e-20)
(0.498488 -0.0177311 -1.8866e-19)
(0.810092 0.00402014 6.7436e-20)
(1.07967 0.0305954 -6.24639e-20)
(1.26869 0.0522264 -5.48151e-20)
(1.37762 0.0653532 -9.4074e-20)
(1.42653 0.0706123 4.69709e-20)
(1.43833 0.0702667 3.97635e-20)
(1.43074 0.0665801 0)
(1.41464 0.0611705 8.43265e-20)
(1.39558 0.054985 -1.22629e-19)
(1.37594 0.048521 9.0339e-20)
(1.35658 0.0420442 3.8951e-20)
(1.33777 0.0357181 -3.09407e-20)
(1.31954 0.0296638 -2.50637e-20)
(1.30188 0.0239649 -2.28077e-20)
(1.28476 0.0186975 6.91646e-20)
(1.26818 0.0138983 0)
(1.25216 0.00961041 3.29476e-20)
(1.23673 0.005882 2.65732e-20)
(1.22184 0.00267456 -6.6648e-20)
(1.2075 -0.000118117 -4.36114e-20)
(1.19374 -0.00310615 4.032e-20)
(0.0619755 -0.0077872 -4.57735e-20)
(0.304972 -0.0195278 -1.33747e-21)
(0.630563 0.00118654 3.82893e-20)
(0.951063 0.0373851 1.0404e-19)
(1.19609 0.0707812 2.85495e-20)
(1.34726 0.0931402 -5.50269e-20)
(1.42132 0.104114 4.95889e-20)
(1.44523 0.106605 -4.22375e-20)
(1.44206 0.103923 7.3216e-20)
(1.42673 0.0985402 3.03829e-20)
(1.40708 0.0919225 -8.50872e-20)
(1.38657 0.0848179 2.46632e-20)
(1.36643 0.0775922 4.11787e-20)
(1.347 0.0704404 -2.01213e-20)
(1.32832 0.063486 0)
(1.31034 0.0568174 2.88174e-20)
(1.29306 0.0505078 4.78306e-20)
(1.27647 0.0446099 7.66835e-21)
(1.26057 0.0391733 -3.8909e-20)
(1.24535 0.0342331 1.60158e-20)
(1.23075 0.029801 0)
(1.21675 0.025849 -1.2125e-20)
(1.20326 0.022188 -1.09839e-20)
(1.19019 0.0191303 0)
(0.095517 -0.00774313 0)
(0.399973 -0.00742109 2.21505e-20)
(0.760056 0.0320973 4.03631e-20)
(1.07377 0.0803669 -1.05117e-19)
(1.28649 0.116832 3.326e-20)
(1.40112 0.137191 0)
(1.44632 0.144575 4.62816e-20)
(1.4519 0.143727 -6.3504e-20)
(1.43887 0.138502 -3.63212e-20)
(1.41891 0.131269 1.6202e-20)
(1.39733 0.123236 -2.50512e-20)
(1.3761 0.114962 6.04932e-20)
(1.35577 0.106706 2.97316e-20)
(1.33643 0.0986081 -2.06159e-20)
(1.31802 0.0907675 -2.08044e-21)
(1.30049 0.083261 -5.44813e-20)
(1.28378 0.076146 2.45408e-20)
(1.26783 0.0694698 -4.76341e-22)
(1.25262 0.0632662 0)
(1.23807 0.0575598 -1.60315e-20)
(1.22416 0.0523637 0)
(1.2108 0.0475993 3.50609e-20)
(1.19796 0.0433032 -4.13004e-20)
(1.1856 0.0401224 1.85785e-20)
(0.13389 -0.00406686 -1.23465e-20)
(0.498431 0.0150595 -5.56963e-20)
(0.879426 0.0741854 6.20304e-20)
(1.17463 0.131017 3.52209e-20)
(1.3524 0.167146 -1.68385e-20)
(1.43445 0.18348 2.64583e-20)
(1.45698 0.186393 -1.28461e-20)
(1.44963 0.181912 2.05701e-20)
(1.43031 0.17401 0)
(1.40767 0.164758 4.48036e-20)
(1.38507 0.155094 -1.87181e-21)
(1.36351 0.145413 -3.52808e-20)
(1.34318 0.135898 1.49293e-20)
(1.32401 0.126654 -1.66351e-20)
(1.3059 0.117758 -6.24807e-21)
(1.28874 0.109264 7.14899e-21)
(1.27249 0.101213 -5.49573e-21)
(1.25708 0.0936383 -2.91319e-20)
(1.24247 0.086571 1.77581e-20)
(1.22863 0.0800347 3.61303e-21)
(1.21549 0.0740135 3.14151e-21)
(1.20295 0.0684658 2.73092e-21)
(1.19095 0.0635384 0)
(1.17936 0.0597836 0)
(0.175698 0.00410274 1.23615e-20)
(0.594838 0.0483406 -1.1489e-20)
(0.983321 0.125972 -2.0623e-20)
(1.25259 0.187545 0)
(1.39618 0.220532 -8.20995e-21)
(1.45068 0.23142 -7.04976e-21)
(1.45608 0.229331 -1.17166e-20)
(1.43994 0.221032 0)
(1.41678 0.210291 0)
(1.39269 0.198804 0)
(1.36965 0.18726 0)
(1.34808 0.175927 0)
(1.32795 0.164924 -9.40987e-21)
(1.30911 0.154325 4.25159e-21)
(1.29144 0.144181 7.29118e-21)
(1.27484 0.134528 3.35798e-21)
(1.25923 0.125392 8.27743e-21)
(1.24453 0.1168 0)
(1.23068 0.108772 -1.94915e-21)
(1.2176 0.101311 -1.80018e-21)
(1.20522 0.0943925 -3.14642e-21)
(1.19347 0.0880006 -2.73519e-21)
(1.18227 0.0823898 0)
(1.17156 0.077938 1.92948e-21)
(-0.0033164 0.151284 8.31436e-21)
(-0.00913781 0.311227 -7.87394e-21)
(-0.0219685 0.378282 -1.45914e-20)
(-0.03962 0.392498 0)
(-0.0592132 0.382115 -1.9082e-20)
(-0.0787075 0.36174 5.83737e-21)
(-0.0967195 0.336038 -1.15174e-20)
(-0.112323 0.30479 0)
(-0.124964 0.266486 0)
(-0.134347 0.219876 0)
(-0.140383 0.164349 0)
(-0.143196 0.0999316 0)
(-0.143218 0.027171 -2.15132e-22)
(-0.140502 -0.0531671 -8.18038e-21)
(-0.134912 -0.139639 1.61732e-20)
(-0.126963 -0.230763 2.23866e-20)
(-0.116715 -0.324709 7.23893e-21)
(-0.104107 -0.419352 0)
(-0.0892054 -0.511873 5.41305e-21)
(-0.0724966 -0.59887 -1.52775e-20)
(-0.0552443 -0.676999 -8.93637e-21)
(-0.0382446 -0.743632 -7.69398e-21)
(-0.0260216 -0.798143 0)
(-0.0119685 -0.839588 0)
(-0.010279 0.146305 -2.52965e-20)
(-0.0191803 0.312365 3.98015e-20)
(-0.026188 0.38894 -1.52305e-20)
(-0.0347886 0.410105 -2.80233e-20)
(-0.0440093 0.402959 3.87337e-20)
(-0.0523333 0.382869 -2.51059e-20)
(-0.0584377 0.355621 3.47903e-20)
(-0.0614451 0.321854 2.30256e-20)
(-0.0609241 0.280553 0)
(-0.0567986 0.23075 -2.12998e-20)
(-0.0492665 0.172032 -1.38951e-21)
(-0.0387619 0.104573 1.8385e-20)
(-0.0259604 0.0290452 2.79264e-20)
(-0.0112475 -0.0534267 3.5654e-20)
(0.00512998 -0.141772 -1.58031e-20)
(0.0228839 -0.234839 -4.63562e-20)
(0.0419918 -0.331147 1.47665e-20)
(0.0626881 -0.428543 -5.38747e-20)
(0.085401 -0.523746 0)
(0.110069 -0.612262 1.02102e-20)
(0.134857 -0.689411 8.92118e-21)
(0.159429 -0.750488 7.68092e-21)
(0.17509 -0.796184 0)
(0.195386 -0.821746 0)
(-0.0160241 0.134275 0)
(-0.0281905 0.300168 8.33842e-20)
(-0.0295387 0.385169 -3.08263e-20)
(-0.028695 0.414258 2.88683e-20)
(-0.026784 0.411525 -8.10139e-20)
(-0.023091 0.392562 0)
(-0.0166101 0.364394 -4.96225e-20)
(-0.00658236 0.328822 2.30634e-20)
(0.00729344 0.285583 -4.53542e-20)
(0.0248899 0.23414 2.23705e-20)
(0.0457285 0.17434 1.27043e-19)
(0.0690479 0.106503 -5.93049e-20)
(0.0939355 0.0313078 -9.68682e-20)
(0.119871 -0.0501625 -3.8331e-20)
(0.146496 -0.137286 -7.6529e-22)
(0.173609 -0.229497 1.29848e-19)
(0.201606 -0.326016 -6.05214e-20)
(0.23103 -0.42499 -6.84072e-22)
(0.261973 -0.523082 0)
(0.294208 -0.614743 -4.39087e-20)
(0.324818 -0.694456 0)
(0.355 -0.754071 -2.9003e-20)
(0.37272 -0.795299 1.07335e-19)
(0.401509 -0.804518 -5.86965e-21)
(-0.019863 0.116656 0)
(-0.0353543 0.275261 6.4323e-22)
(-0.032285 0.366188 3.17154e-20)
(-0.0228092 0.403487 -3.00636e-20)
(-0.0101333 0.406475 2.63728e-20)
(0.00537792 0.389952 1.56775e-19)
(0.0241566 0.361941 -4.90177e-20)
(0.0466912 0.325532 -4.75194e-20)
(0.0731177 0.281421 9.08841e-20)
(0.103132 0.22963 -1.32983e-19)
(0.136053 0.170266 4.1058e-20)
(0.170897 0.103704 4.04252e-20)
(0.206995 0.0307051 0)
(0.243749 -0.0479869 3.68585e-20)
(0.280963 -0.132328 0)
(0.319159 -0.222273 6.52679e-20)
(0.359122 -0.317447 -1.20628e-19)
(0.401322 -0.416032 3.08819e-20)
(0.444621 -0.514494 1.01905e-19)
(0.487642 -0.605939 4.38578e-20)
(0.524442 -0.68559 0)
(0.557994 -0.742757 -9.17021e-20)
(0.570977 -0.783203 3.03438e-20)
(0.597602 -0.788476 0)
(-0.0215009 0.0958244 0)
(-0.0399982 0.240225 -1.0332e-19)
(-0.0345045 0.333001 -3.17702e-20)
(-0.0183778 0.377467 -5.961e-20)
(0.00356458 0.386942 5.52276e-20)
(0.029737 0.374261 -5.22623e-20)
(0.0597364 0.347788 1.00861e-19)
(0.0935674 0.311737 5.02825e-20)
(0.131112 0.267841 -1.35073e-19)
(0.171907 0.216792 8.87209e-20)
(0.215158 0.159015 -1.26136e-19)
(0.260087 0.0949388 2.81187e-19)
(0.306234 0.0253786 -1.51648e-19)
(0.353416 -0.0497047 7.2142e-20)
(0.402194 -0.130664 2.06794e-19)
(0.453855 -0.21784 -6.5285e-20)
(0.509305 -0.310874 -6.06375e-20)
(0.568194 -0.407169 -5.69763e-20)
(0.627183 -0.502602 0)
(0.682874 -0.588438 -8.20066e-20)
(0.726402 -0.661361 -6.19402e-20)
(0.761074 -0.708357 9.9791e-20)
(0.767262 -0.741486 9.35012e-20)
(0.783356 -0.737952 -8.58054e-20)
(-0.0211185 0.074486 0)
(-0.0418351 0.199244 -1.38897e-19)
(-0.0360993 0.288637 -9.2685e-23)
(-0.0160959 0.337498 1.1868e-19)
(0.0126279 0.352997 0)
(0.0473999 0.34504 0)
(0.0868379 0.321453 0)
(0.130258 0.287079 -4.8602e-20)
(0.177161 0.244531 -2.56062e-21)
(0.226946 0.195157 8.4276e-20)
(0.278849 0.139561 -1.27012e-19)
(0.332684 0.0787134 -1.8962e-21)
(0.388713 0.0126368 0)
(0.447564 -0.0593266 -7.2108e-20)
(0.510898 -0.13781 6.62909e-20)
(0.580154 -0.222993 -1.86527e-19)
(0.654957 -0.313744 2.29525e-19)
(0.732328 -0.405962 4.52011e-20)
(0.805569 -0.494771 -1.09161e-20)
(0.868795 -0.570375 -1.68366e-19)
(0.912404 -0.631616 -6.62165e-20)
(0.940025 -0.66424 1.90825e-19)
(0.936251 -0.686795 -1.20004e-19)
(0.936562 -0.667326 0)
(-0.0193254 0.0550492 7.39408e-20)
(-0.0411801 0.157214 6.95309e-20)
(-0.0369807 0.237881 -6.39335e-20)
(-0.0160018 0.286896 -1.1851e-19)
(0.0164761 0.306315 1.09792e-19)
(0.0571059 0.302761 -1.03583e-19)
(0.103621 0.282753 1.44016e-19)
(0.1546 0.251109 -4.848e-20)
(0.209135 0.21091 8.60869e-20)
(0.266524 0.163781 0)
(0.326947 0.111183 8.01027e-20)
(0.391114 0.0534998 -1.4681e-19)
(0.460128 -0.0100721 1.45673e-19)
(0.536091 -0.0800778 -1.35593e-19)
(0.620496 -0.156822 0)
(0.712695 -0.239374 1.19672e-19)
(0.808562 -0.324962 2.13353e-19)
(0.900827 -0.408158 -2.01785e-19)
(0.979667 -0.483854 -8.40804e-20)
(1.03831 -0.543373 -7.14592e-20)
(1.06904 -0.588051 2.0034e-19)
(1.07775 -0.605966 4.34185e-20)
(1.05625 -0.618387 -4.7276e-20)
(1.03564 -0.593776 3.24494e-20)
(-0.0170098 0.0391772 -7.39595e-20)
(-0.039 0.118611 2.07877e-19)
(-0.0373325 0.186318 -6.41906e-20)
(-0.0176598 0.230739 1.17663e-19)
(0.0157614 0.250626 -1.09008e-19)
(0.0594587 0.249696 -1.11224e-21)
(0.110664 0.232801 4.65494e-20)
(0.167533 0.204156 1.78629e-19)
(0.229033 0.166713 3.58325e-21)
(0.295494 0.122696 -7.98194e-20)
(0.368136 0.0730899 0)
(0.448724 0.0174121 -7.31861e-20)
(0.539489 -0.0444876 1.37325e-19)
(0.641392 -0.112597 1.3147e-19)
(0.752534 -0.185907 -6.26547e-20)
(0.867211 -0.261873 -3.35265e-21)
(0.976393 -0.33635 -5.33318e-20)
(1.06965 -0.404112 8.8535e-20)
(1.13749 -0.460877 8.40878e-20)
(1.1761 -0.501042 -7.22803e-20)
(1.18276 -0.527761 5.55375e-20)
(1.16832 -0.53214 -4.59739e-20)
(1.12866 -0.536555 0)
(1.09225 -0.506697 -3.24675e-20)
(-0.0151515 0.0276685 7.36246e-20)
(-0.036713 0.0865987 -6.94187e-20)
(-0.037687 0.139032 6.36855e-20)
(-0.0203646 0.174811 0)
(0.012376 0.191339 0)
(0.0575218 0.190303 9.94139e-20)
(0.112527 0.174977 -9.31647e-20)
(0.175973 0.148655 8.801e-20)
(0.248075 0.11403 -4.1271e-19)
(0.330223 0.0727295 -1.80744e-21)
(0.4246 0.0250496 7.33312e-20)
(0.532901 -0.0285743 0)
(0.654573 -0.0875439 -1.33966e-19)
(0.785468 -0.150588 2.49777e-19)
(0.917637 -0.215272 -1.76259e-19)
(1.04031 -0.278373 -2.646e-19)
(1.14245 -0.335889 8.21375e-21)
(1.21502 -0.384476 1.67107e-19)
(1.25407 -0.421435 0)
(1.26148 -0.444916 0)
(1.24194 -0.458626 -5.5567e-20)
(1.20889 -0.456116 4.59995e-20)
(1.1603 -0.458187 -1.35149e-19)
(1.12149 -0.430634 1.26103e-19)
(-0.0146117 0.0205718 0)
(-0.0356721 0.0626766 0)
(-0.0384328 0.0995641 -1.9066e-19)
(-0.0226877 0.124254 5.94156e-20)
(0.0101773 0.134362 5.60739e-22)
(0.058332 0.13052 9.91964e-20)
(0.120571 0.114808 0)
(0.197089 0.089579 -8.60483e-20)
(0.289382 0.0567369 8.19357e-20)
(0.399235 0.0174049 -1.52954e-19)
(0.526779 -0.027378 -1.40977e-21)
(0.668914 -0.0764562 1.37202e-19)
(0.818488 -0.12826 5.38687e-22)
(0.964952 -0.180692 1.17688e-19)
(1.09625 -0.231184 -1.67601e-19)
(1.2013 -0.277241 0)
(1.27285 -0.316287 1.71955e-19)
(1.30863 -0.347211 -2.41638e-19)
(1.31298 -0.368559 6.44269e-20)
(1.29309 -0.381753 0)
(1.25876 -0.387858 4.67635e-20)
(1.21972 -0.384943 1.54154e-19)
(1.17435 -0.387015 -1.43963e-19)
(1.14145 -0.363638 -1.30288e-19)
(-0.015829 0.0173074 2.20216e-19)
(-0.0363538 0.0467486 -2.77757e-19)
(-0.0386873 0.0694859 9.29932e-22)
(-0.0211488 0.0825368 5.91956e-20)
(0.0165208 0.0846536 -1.08156e-19)
(0.0744484 0.0761931 -9.95224e-20)
(0.153505 0.0585014 1.84608e-19)
(0.255187 0.0332314 1.33079e-21)
(0.380219 0.00192462 -1.60025e-19)
(0.526469 -0.033962 3.02671e-19)
(0.687506 -0.0729077 2.69526e-21)
(0.852742 -0.113298 -1.32099e-19)
(1.00914 -0.153447 0)
(1.1438 -0.191683 0)
(1.24672 -0.226465 -5.31148e-20)
(1.31289 -0.256557 -8.88094e-20)
(1.34328 -0.28098 -1.58095e-19)
(1.34396 -0.299834 1.47406e-19)
(1.32451 -0.312451 -6.45032e-20)
(1.29312 -0.321334 1.01133e-19)
(1.25852 -0.324293 -5.55448e-20)
(1.22272 -0.324279 6.4247e-20)
(1.18693 -0.325387 -1.65463e-19)
(1.1597 -0.306081 2.70534e-20)
(-0.0185105 0.0167799 7.37957e-20)
(-0.0375966 0.0372887 0)
(-0.0354428 0.0483479 1.28153e-19)
(-0.00960005 0.0508624 -1.18659e-19)
(0.0418578 0.0450294 1.08301e-19)
(0.121059 0.0314953 0)
(0.229816 0.0114845 0)
(0.367836 -0.0134308 -8.62331e-20)
(0.530422 -0.0415699 -5.58419e-22)
(0.707495 -0.0713012 7.39278e-20)
(0.884876 -0.101208 -6.83519e-20)
(1.04724 -0.130188 1.28807e-19)
(1.18143 -0.157439 0)
(1.27917 -0.182354 2.10544e-19)
(1.33843 -0.20445 -3.84325e-19)
(1.36326 -0.223349 2.64328e-19)
(1.36191 -0.23887 1.46132e-19)
(1.34392 -0.251108 -1.36255e-19)
(1.31744 -0.259789 0)
(1.28713 -0.266522 0)
(1.25697 -0.267801 0)
(1.2243 -0.271404 0)
(1.19535 -0.267083 3.0819e-20)
(1.16758 -0.258213 -9.4706e-20)
(-0.0140198 -0.874909 -3.18862e-21)
(-0.0150365 -0.890108 3.20331e-21)
(0.00159247 -0.868742 -8.29471e-23)
(0.0464929 -0.798513 0)
(0.120326 -0.667987 -2.74867e-21)
(0.21802 -0.485172 5.52853e-21)
(0.323857 -0.268194 1.55184e-22)
(0.422673 -0.0304969 -2.84696e-21)
(0.510207 0.218735 0)
(0.587033 0.454265 0)
(0.649151 0.634286 -1.18476e-22)
(0.694946 0.732618 -9.29286e-23)
(0.726666 0.759998 -1.19846e-21)
(0.74233 0.749878 1.09333e-21)
(0.747376 0.723068 0)
(0.750399 0.691277 0)
(0.746911 0.684164 8.85489e-22)
(0.72595 0.721396 1.42501e-22)
(0.691051 0.760166 -9.05737e-22)
(0.665578 0.707978 -8.40271e-23)
(0.668007 0.507131 0)
(0.692354 0.188964 0)
(0.728971 -0.15226 0)
(0.769927 -0.417632 0)
(0.804816 -0.571378 0)
(0.823541 -0.628863 0)
(0.836605 -0.620402 1.96424e-22)
(0.843626 -0.598847 -3.2242e-22)
(0.829506 -0.617331 0)
(0.787143 -0.653982 0)
(0.726525 -0.636507 -2.82009e-22)
(0.664678 -0.512983 2.74028e-22)
(0.626043 -0.285124 1.6523e-22)
(0.621502 -0.0102776 0)
(0.647997 0.239324 0)
(0.691928 0.401847 2.08748e-22)
(0.741106 0.488477 -2.02884e-22)
(0.754936 0.532718 0)
(0.722561 0.565193 1.37324e-22)
(0.663518 0.54407 -2.07957e-22)
(0.616116 0.417564 8.99211e-23)
(0.600647 0.201821 0)
(0.631473 -0.0486861 -1.5225e-22)
(0.678169 -0.225914 1.48038e-22)
(0.706657 -0.360247 0)
(0.684366 -0.444027 0)
(0.66042 -0.457899 -3.70847e-23)
(0.643454 -0.38162 1.02814e-22)
(0.651491 -0.179346 0)
(0.658242 0.0291458 0)
(0.66531 0.264642 -2.55031e-23)
(0.645902 0.403624 3.303e-24)
(0.645444 0.406827 2.77182e-25)
(0.640867 0.302841 2.67223e-23)
(0.642107 0.00369066 0)
(0.610775 -0.207577 0)
(0.600295 -0.373353 0)
(0.583502 -0.382533 0)
(0.568548 0.00436409 0)
(0.531934 0.134327 0)
(0.176093 -0.849854 -3.22216e-22)
(0.138941 -0.867171 -1.119e-20)
(0.0992963 -0.86653 1.01087e-21)
(0.0773834 -0.830514 9.51791e-21)
(0.0887707 -0.737389 1.27175e-22)
(0.135679 -0.579545 0)
(0.208183 -0.370001 -9.88335e-21)
(0.292067 -0.127869 1.96771e-20)
(0.37812 0.127814 -9.79603e-21)
(0.46209 0.371236 7.95457e-21)
(0.538928 0.564008 -7.60563e-21)
(0.606258 0.680662 5.0074e-21)
(0.660271 0.729141 -4.85412e-21)
(0.696403 0.736018 -1.05559e-22)
(0.720667 0.717502 -3.25266e-21)
(0.740297 0.690745 3.15884e-21)
(0.750197 0.691818 -3.58061e-21)
(0.742145 0.738317 3.36265e-21)
(0.724093 0.779951 -5.13085e-21)
(0.718782 0.721921 1.11727e-20)
(0.737792 0.510437 -5.99392e-21)
(0.771495 0.180336 -4.5558e-22)
(0.808829 -0.171428 -6.48868e-21)
(0.841662 -0.441581 1.15452e-20)
(0.864204 -0.589988 -5.09251e-21)
(0.86819 -0.639302 2.06109e-22)
(0.863996 -0.624891 2.25351e-21)
(0.856565 -0.594415 -2.81159e-22)
(0.832027 -0.600051 -3.33222e-21)
(0.779057 -0.625898 3.22602e-21)
(0.709156 -0.604585 -1.61782e-21)
(0.638492 -0.487398 2.39911e-22)
(0.593254 -0.275327 -1.65577e-22)
(0.587627 -0.0192342 2.7974e-22)
(0.619865 0.217293 0)
(0.674633 0.377425 0)
(0.732281 0.47411 -5.94911e-22)
(0.752979 0.53504 4.48238e-22)
(0.727275 0.580946 4.53537e-22)
(0.676626 0.564465 2.10981e-22)
(0.634219 0.431924 -7.77766e-22)
(0.618936 0.202369 2.2596e-22)
(0.646467 -0.0609415 0)
(0.691814 -0.239802 0)
(0.722461 -0.362091 0)
(0.696544 -0.437813 0)
(0.668147 -0.451896 1.40353e-22)
(0.647566 -0.380533 -6.6812e-23)
(0.652538 -0.181685 0)
(0.656848 0.026525 0)
(0.662927 0.265124 0)
(0.647996 0.405435 -4.67755e-23)
(0.651034 0.407422 -7.74901e-24)
(0.648535 0.30411 -4.88829e-23)
(0.650894 0.00807007 0)
(0.616489 -0.204054 0)
(0.600551 -0.368975 1.88212e-23)
(0.579287 -0.381166 1.50598e-23)
(0.572514 0.0091171 0)
(0.539339 0.137443 0)
(0.374935 -0.811679 -4.57306e-21)
(0.333987 -0.809904 -2.41258e-20)
(0.26631 -0.808796 1.75068e-20)
(0.189272 -0.798886 -1.63867e-20)
(0.13293 -0.750722 -1.28086e-22)
(0.117409 -0.638944 0)
(0.140299 -0.458673 -1.56847e-20)
(0.193748 -0.228916 1.53037e-20)
(0.266376 0.0249899 1.3568e-22)
(0.350828 0.271354 1.86465e-22)
(0.439077 0.474643 1.57652e-22)
(0.523988 0.609855 1.60545e-22)
(0.59644 0.681224 -6.9655e-21)
(0.651222 0.706779 6.87011e-21)
(0.694011 0.69888 0)
(0.730018 0.67928 1.68593e-22)
(0.753695 0.688284 -6.91924e-21)
(0.75967 0.742489 6.83515e-21)
(0.758666 0.787377 0)
(0.772221 0.728349 0)
(0.806889 0.515384 -1.46757e-20)
(0.849857 0.183381 2.94624e-20)
(0.888864 -0.172828 -2.76082e-20)
(0.914557 -0.447381 2.5384e-21)
(0.9247 -0.593727 1.82547e-20)
(0.914903 -0.638469 -1.38778e-20)
(0.894529 -0.622052 9.68571e-21)
(0.872889 -0.585391 -1.02688e-21)
(0.83984 -0.578578 -3.28943e-21)
(0.7793 -0.595015 0)
(0.701578 -0.573287 0)
(0.623093 -0.465195 1.47396e-21)
(0.571695 -0.269657 -1.85578e-21)
(0.564018 -0.0327911 -5.14474e-23)
(0.600651 0.190404 1.59711e-21)
(0.664068 0.348489 -1.55188e-21)
(0.728492 0.455834 0)
(0.756554 0.534717 1.30519e-22)
(0.739363 0.595585 1.37282e-21)
(0.697971 0.585422 -3.11802e-21)
(0.661933 0.448617 1.52133e-21)
(0.647481 0.207347 2.81557e-22)
(0.669652 -0.0685343 -2.06359e-21)
(0.71049 -0.25164 1.5527e-21)
(0.742666 -0.362539 2.6438e-22)
(0.713489 -0.430253 1.85589e-22)
(0.679474 -0.445389 -1.40724e-22)
(0.654368 -0.380165 0)
(0.6565 -0.184828 0)
(0.658949 0.0233127 -2.81457e-22)
(0.664557 0.264319 1.45654e-22)
(0.653669 0.406695 -1.5059e-22)
(0.659678 0.40751 2.98374e-22)
(0.659062 0.305812 5.04416e-22)
(0.663083 0.0136894 -8.18506e-23)
(0.626237 -0.199488 1.84232e-22)
(0.604939 -0.363153 -1.12874e-22)
(0.578567 -0.380729 2.45723e-23)
(0.580564 0.0122801 0)
(0.550348 0.140788 0)
(0.556627 -0.785381 -4.61193e-20)
(0.516527 -0.755729 8.64366e-21)
(0.455161 -0.722565 3.52179e-20)
(0.363273 -0.707225 -2.24098e-22)
(0.257639 -0.693646 0)
(0.176137 -0.638982 0)
(0.139954 -0.513549 -2.14795e-20)
(0.148905 -0.319899 -1.46394e-21)
(0.194789 -0.0836413 3.21424e-20)
(0.268346 0.156704 -1.01319e-21)
(0.358923 0.366674 -9.40513e-21)
(0.453493 0.519662 -6.31076e-21)
(0.539272 0.614652 6.30259e-21)
(0.610096 0.660372 0)
(0.669862 0.665559 -4.94454e-21)
(0.720987 0.654412 4.49164e-21)
(0.757316 0.669904 0)
(0.776035 0.729169 0)
(0.790996 0.777846 9.5718e-21)
(0.821496 0.725006 2.5979e-21)
(0.868274 0.52268 -1.11346e-20)
(0.919774 0.19711 -1.49185e-20)
(0.964697 -0.162219 1.49014e-20)
(0.987638 -0.44239 -1.12048e-20)
(0.986477 -0.58853 2.72841e-21)
(0.963337 -0.629575 7.84178e-21)
(0.928119 -0.612614 5.92459e-22)
(0.892906 -0.573379 1.28125e-23)
(0.851928 -0.555733 0)
(0.786086 -0.561834 2.40802e-21)
(0.703116 -0.539635 -2.47132e-21)
(0.618324 -0.442755 1.96513e-22)
(0.561111 -0.266468 0)
(0.550497 -0.0504128 -2.31383e-22)
(0.589498 0.158851 2.60107e-21)
(0.6589 0.315548 -4.39343e-21)
(0.72927 0.433974 -5.06199e-23)
(0.765709 0.529619 -1.81282e-22)
(0.757273 0.604811 1.70287e-21)
(0.725121 0.603388 3.51421e-22)
(0.697851 0.466279 -4.1008e-21)
(0.685894 0.216686 3.47344e-21)
(0.701658 -0.0713331 -4.69814e-23)
(0.73454 -0.261838 1.3329e-21)
(0.766843 -0.362547 -1.56104e-21)
(0.734904 -0.421296 -1.21324e-21)
(0.69426 -0.437443 3.7441e-22)
(0.663714 -0.379802 3.23817e-22)
(0.663229 -0.18888 -5.62032e-22)
(0.664393 0.0190604 3.72484e-22)
(0.669982 0.26205 -1.66356e-22)
(0.662573 0.407552 3.90454e-23)
(0.67113 0.40736 1.42314e-22)
(0.672174 0.30797 -8.17078e-22)
(0.678397 0.0202437 2.91654e-24)
(0.639878 -0.194041 -2.21917e-22)
(0.613583 -0.355871 0)
(0.581253 -0.381092 -2.54335e-23)
(0.592281 0.0138781 -8.54233e-23)
(0.564766 0.144235 0)
(0.722411 -0.744828 4.28317e-20)
(0.663929 -0.71948 -7.47328e-20)
(0.606403 -0.664245 3.18323e-20)
(0.532239 -0.610875 1.88423e-20)
(0.428488 -0.586904 -3.32697e-20)
(0.309132 -0.570566 1.58086e-21)
(0.213588 -0.512565 1.26878e-20)
(0.167466 -0.379945 1.29561e-20)
(0.173328 -0.182833 -1.27158e-20)
(0.223143 0.0406081 0)
(0.302824 0.249311 -1.02639e-20)
(0.394975 0.416225 1.84127e-20)
(0.486306 0.53262 -8.27853e-21)
(0.568968 0.598587 0)
(0.64344 0.619181 0)
(0.708129 0.61876 1.40964e-22)
(0.755773 0.640949 -1.07794e-20)
(0.786054 0.703642 1.04653e-20)
(0.815852 0.756258 0)
(0.861254 0.713895 2.22026e-20)
(0.918501 0.529173 -4.67463e-20)
(0.978426 0.217702 5.24346e-20)
(1.03187 -0.138621 -5.32591e-20)
(1.05657 -0.422365 3.78067e-21)
(1.04657 -0.570653 3.69861e-20)
(1.01131 -0.611166 -1.57913e-20)
(0.9631 -0.595633 -2.9486e-22)
(0.915766 -0.556993 -2.74779e-21)
(0.868602 -0.532001 5.81516e-22)
(0.799906 -0.529234 2.22932e-21)
(0.713686 -0.506884 1.33835e-22)
(0.623969 -0.421322 -2.33993e-21)
(0.560892 -0.265105 4.83905e-21)
(0.545924 -0.0707943 -2.77065e-21)
(0.584846 0.123695 0)
(0.658014 0.278231 -1.94765e-21)
(0.733596 0.406093 1.8595e-21)
(0.778544 0.519373 -1.68738e-21)
(0.780434 0.610987 2.08345e-21)
(0.759377 0.619731 -3.71618e-22)
(0.741974 0.485169 0)
(0.733238 0.23071 -5.99641e-22)
(0.742142 -0.067932 1.63692e-21)
(0.763897 -0.268833 0)
(0.794363 -0.36156 2.55198e-21)
(0.760461 -0.410774 -1.13738e-21)
(0.712312 -0.427851 2.57001e-22)
(0.675393 -0.379252 1.43064e-22)
(0.672431 -0.193916 0)
(0.672894 0.0136133 0)
(0.678993 0.25811 -2.78102e-22)
(0.674499 0.407529 6.54979e-22)
(0.68512 0.406742 -5.48482e-22)
(0.687565 0.310277 2.59349e-22)
(0.696542 0.0274546 6.08301e-22)
(0.657187 -0.187745 2.22155e-22)
(0.626545 -0.347115 -3.08899e-22)
(0.58723 -0.382026 0)
(0.607169 0.0138414 9.97239e-23)
(0.582381 0.14768 4.27353e-23)
(0.865585 -0.669527 4.02169e-20)
(0.791882 -0.655874 -3.9709e-20)
(0.721636 -0.619149 2.13462e-22)
(0.654106 -0.555157 -1.40709e-22)
(0.577966 -0.491581 1.13473e-22)
(0.473659 -0.460744 -8.57303e-23)
(0.351962 -0.442986 6.94739e-23)
(0.252954 -0.383174 0)
(0.207141 -0.250594 -4.03202e-23)
(0.218263 -0.0638516 4.18967e-23)
(0.27407 0.13168 3.70196e-23)
(0.354311 0.305502 -1.06073e-22)
(0.442756 0.437951 0)
(0.531323 0.522034 0)
(0.616548 0.55879 3.9369e-23)
(0.691447 0.570721 0)
(0.746896 0.599724 -9.40954e-23)
(0.785721 0.664465 0)
(0.827841 0.721682 -1.42228e-20)
(0.886032 0.694741 3.2377e-20)
(0.953098 0.533524 -4.05729e-20)
(1.02317 0.241449 2.22455e-20)
(1.08855 -0.107404 2.41849e-20)
(1.11937 -0.392692 -2.34727e-20)
(1.10378 -0.544209 -1.58316e-20)
(1.05809 -0.586056 1.52262e-20)
(0.999136 -0.572897 0)
(0.940577 -0.536971 1.85615e-22)
(0.887638 -0.507822 0)
(0.818852 -0.497438 0)
(0.73202 -0.474276 2.85993e-21)
(0.639122 -0.399499 -2.92631e-21)
(0.570027 -0.263422 1.88418e-22)
(0.548822 -0.0919832 2.8172e-22)
(0.585055 0.0858085 -1.68662e-22)
(0.659966 0.236957 -1.26959e-21)
(0.740321 0.373474 1.23256e-21)
(0.794364 0.501974 -1.85547e-21)
(0.806765 0.608111 1.62e-21)
(0.795653 0.630951 7.42953e-22)
(0.789272 0.504105 -4.66332e-21)
(0.786385 0.249006 -1.00418e-21)
(0.789859 -0.0578589 3.60881e-21)
(0.798373 -0.271963 0)
(0.824463 -0.359849 -1.21947e-21)
(0.789687 -0.398814 8.82769e-22)
(0.733504 -0.416116 -1.23286e-21)
(0.689156 -0.37804 -1.4402e-22)
(0.683738 -0.199957 0)
(0.684096 0.00663591 4.63018e-23)
(0.691216 0.252279 -4.79742e-23)
(0.689038 0.407152 -1.70919e-23)
(0.70124 0.406191 -2.18192e-22)
(0.704879 0.312832 7.16636e-22)
(0.717191 0.0351224 -6.59594e-22)
(0.677882 -0.180768 0)
(0.643805 -0.336886 3.0908e-22)
(0.596416 -0.383283 0)
(0.624691 0.0121588 0)
(0.602938 0.151057 -5.24125e-23)
(0.959801 -0.598147 -3.83868e-20)
(0.885603 -0.58019 3.76476e-20)
(0.813216 -0.553228 -1.92193e-22)
(0.739427 -0.514123 1.44253e-22)
(0.673202 -0.449815 0)
(0.604862 -0.379835 0)