/*--------------------------------*- C++ -*----------------------------------*\
| =========                 |                                                 |
| \\      /  F ield         | OpenFOAM: The Open Source CFD Toolbox           |
|  \\    /   O peration     | Version:  2312                                  |
|   \\  /    A nd           | Website:  www.openfoam.com                      |
|    \\/     M anipulation  |                                                 |
\*---------------------------------------------------------------------------*/
FoamFile
{
    version     2.0;
    format      ascii;
    arch        "LSB;label=32;scalar=64";
    class       volVectorField;
    location    "122.05";
    object      U;
}
// * * * * * * * * * * * * * * * * * * * * * * * * * * * * * * * * * * * * * //

dimensions      [0 1 -1 0 0 0 0];

internalField   nonuniform List<vector> 
5478
(
(-0.0256945 0.02555 -1.35501e-19)
(-0.0170708 0.0391684 0)
(0.0558356 0.0290182 2.07235e-19)
(0.198243 0.00333154 -3.65015e-19)
(0.411422 -0.0277528 2.41712e-19)
(0.665076 -0.0565736 -7.14433e-20)
(0.909886 -0.0799316 -1.24396e-19)
(1.10508 -0.0985837 0)
(1.22871 -0.114203 0)
(1.28321 -0.126682 1.35051e-19)
(1.28263 -0.135908 -6.82867e-20)
(1.2476 -0.13828 -9.50496e-20)
(1.20276 -0.141746 -3.33732e-20)
(1.15702 -0.128168 0)
(1.10595 -0.133059 6.76892e-20)
(-0.023383 0.0162228 2.71376e-19)
(0.010999 0.0126561 0)
(0.140569 -0.00597363 0)
(0.371103 -0.0268271 -1.811e-19)
(0.662112 -0.0396382 2.39662e-19)
(0.939607 -0.0447654 6.97195e-20)
(1.14931 -0.0478762 -1.1422e-19)
(1.27151 -0.0538308 1.0129e-19)
(1.31622 -0.06332 2.33761e-19)
(1.30799 -0.0745324 -2.01756e-19)
(1.27345 -0.0833045 3.5293e-21)
(1.23538 -0.0893211 0)
(1.20027 -0.0899088 3.33127e-20)
(1.17048 -0.081805 0)
(1.14745 -0.0854105 0)
(-0.01731 0.00921283 -7.04314e-22)
(0.0662233 -0.00965876 -1.2434e-19)
(0.289139 -0.0273826 2.05446e-22)
(0.61445 -0.02813 0)
(0.931169 -0.0170312 -7.78558e-20)
(1.1605 -0.00632355 6.55444e-20)
(1.28462 -0.0036365 5.45965e-20)
(1.3252 -0.00950003 0)
(1.31737 -0.0199966 -7.83893e-20)
(1.29081 -0.0303812 6.35926e-20)
(1.26324 -0.0379714 5.10098e-20)
(1.23695 -0.0421133 0)
(1.21174 -0.0420425 0)
(1.18755 -0.0418511 -9.18664e-20)
(1.16138 -0.0401422 8.18563e-20)
(-0.00201333 0.00162133 -1.43567e-19)
(0.162496 -0.0265643 1.22837e-19)
(0.501825 -0.0238298 -1.06233e-19)
(0.872805 0.00262823 9.17095e-20)
(1.14161 0.0270694 1.54482e-19)
(1.28328 0.0382387 -1.28995e-19)
(1.33159 0.0368429 -5.45685e-20)
(1.3312 0.028691 4.14278e-20)
(1.31286 0.0190606 -3.99465e-20)
(1.29019 0.0105355 0)
(1.26455 0.00372659 0)
(1.23723 -0.00148508 -7.1222e-20)
(1.20963 -0.00545489 9.0931e-20)
(1.18349 -0.00606531 -5.05994e-20)
(1.15795 -0.0108549 0)
(0.0284678 -0.00745016 7.23961e-20)
(0.308952 -0.0298149 6.12386e-20)
(0.739956 0.0093341 -2.17511e-19)
(1.08191 0.0530077 2.34883e-21)
(1.2673 0.076337 -3.18999e-21)
(1.33655 0.0814237 -1.48104e-21)
(1.34536 0.0765447 5.00324e-20)
(1.32966 0.0679383 4.27349e-20)
(1.30532 0.0584959 3.00368e-20)
(1.27734 0.0491799 -5.22432e-21)
(1.24964 0.0408342 -6.82397e-20)
(1.22422 0.0335926 0)
(1.20212 0.0296167 2.92796e-20)
(1.1822 0.0237228 -2.09584e-20)
(1.1662 0.0233984 3.85915e-20)
(0.0802815 -0.0145672 -1.5191e-19)
(0.496243 -0.00596409 1.64885e-19)
(0.949616 0.0648796 -5.57143e-20)
(1.22156 0.111065 4.27062e-20)
(1.33362 0.127103 -7.78957e-20)
(1.35721 0.125925 -5.80076e-20)
(1.34335 0.117378 1.29837e-21)
(1.31749 0.106375 0)
(1.28984 0.0949858 6.13988e-20)
(1.26461 0.0844178 -5.46e-20)
(1.24193 0.0751328 2.15733e-20)
(1.221 0.0675884 0)
(1.20056 0.0606112 1.31576e-20)
(1.18096 0.0547499 -2.23442e-20)
(1.15964 0.0515218 0)
(0.155682 -0.0123273 -1.88881e-20)
(0.688271 0.0485423 1.11269e-21)
(1.1077 0.133643 2.78612e-20)
(1.30552 0.173253 4.56229e-20)
(1.36174 0.179668 -3.469e-20)
(1.35524 0.171273 5.84538e-20)
(1.32951 0.158399 -1.32871e-20)
(1.30153 0.144929 0)
(1.27558 0.132053 -3.61477e-20)
(1.25106 0.119942 2.41539e-21)
(1.2276 0.108802 3.01299e-20)
(1.20549 0.0984194 0)
(1.1855 0.0897437 -1.9291e-20)
(1.16714 0.0810346 0)
(1.15173 0.0778016 1.16256e-20)
(0.249988 0.0061732 -2.00665e-20)
(0.85128 0.124188 0)
(1.21389 0.21024 2.79796e-20)
(1.34572 0.237933 0)
(1.36231 0.233069 0)
(1.33978 0.217688 0)
(1.30977 0.200643 -1.13418e-20)
(1.28082 0.183903 0)
(1.25407 0.16783 7.29624e-21)
(1.23007 0.15281 0)
(1.20908 0.139171 -9.44694e-21)
(1.19082 0.1272 0)
(1.17429 0.116289 6.12686e-21)
(1.15914 0.107014 0)
(1.14361 0.101753 3.96036e-21)
(-0.0120447 0.0215429 -1.2711e-20)
(-0.0434904 -0.0294696 0)
(-0.0926339 -0.084467 2.02158e-20)
(-0.143788 -0.13283 0)
(-0.192908 -0.186042 0)
(-0.238664 -0.248813 0)
(-0.27878 -0.319358 -1.3319e-20)
(-0.31038 -0.393972 0)
(-0.330441 -0.467314 1.07643e-20)
(-0.336375 -0.532152 0)
(-0.326409 -0.579711 -1.67814e-20)
(-0.299245 -0.601317 0)
(-0.253942 -0.589584 1.26739e-20)
(-0.194353 -0.538784 0)
(-0.11186 -0.451685 9.5435e-21)
(-0.0181594 0.0511871 6.52633e-20)
(-0.0489604 0.0244388 -4.76779e-20)
(-0.0943334 -0.0216844 2.31707e-20)
(-0.139926 -0.0672178 7.69331e-20)
(-0.182974 -0.120159 8.38829e-22)
(-0.222724 -0.184669 -6.14697e-20)
(-0.257499 -0.260208 4.08535e-20)
(-0.285429 -0.343922 0)
(-0.305034 -0.430927 3.40355e-20)
(-0.315733 -0.514256 -7.20321e-22)
(-0.317295 -0.585366 -1.80532e-20)
(-0.309157 -0.6347 0)
(-0.290172 -0.653876 -3.65989e-20)
(-0.265502 -0.634734 0)
(-0.203803 -0.57822 -4.34916e-20)
(-0.0254644 0.0756724 1.1218e-19)
(-0.0519059 0.0732393 2.60794e-20)
(-0.0858339 0.0368337 -4.329e-20)
(-0.1178 -0.00436565 -1.20972e-19)
(-0.14447 -0.0540964 7.24039e-20)
(-0.16522 -0.116893 6.79606e-20)
(-0.179006 -0.192391 -1.23399e-19)
(-0.184132 -0.277962 0)
(-0.180467 -0.368645 -9.70571e-20)
(-0.170322 -0.457617 8.63013e-20)
(-0.157725 -0.537374 3.66445e-20)
(-0.146864 -0.60049 0)
(-0.128528 -0.639856 2.39107e-20)
(-0.139904 -0.644179 -3.40094e-20)
(-0.0794251 -0.618977 0)
(-0.0321681 0.0886285 6.07727e-20)
(-0.0530342 0.107732 -1.58667e-19)
(-0.0705941 0.0818814 1.90292e-19)
(-0.082858 0.0460326 -1.72378e-19)
(-0.0873715 0.00036107 -7.98303e-20)
(-0.0817151 -0.058856 7.29558e-20)
(-0.0636145 -0.131489 6.31486e-20)
(-0.0319645 -0.214734 5.97989e-20)
(0.0126106 -0.302229 -1.55253e-19)
(0.0654806 -0.385774 4.49043e-21)
(0.118887 -0.456674 4.05885e-20)
(0.155985 -0.514432 0)
(0.215233 -0.537041 4.26779e-20)
(0.185004 -0.556599 8.95424e-20)
(0.269498 -0.524332 -4.96984e-20)
(-0.0360864 0.0880872 1.44034e-21)
(-0.0518528 0.12319 1.12594e-19)
(-0.0521709 0.108503 -1.00334e-19)
(-0.042131 0.0780775 8.76394e-20)
(-0.0196269 0.0361659 1.61854e-19)
(0.0185645 -0.0195795 -1.47629e-19)
(0.0753102 -0.089733 -6.77069e-20)
(0.151489 -0.170795 -1.80382e-19)
(0.243444 -0.255243 1.59747e-19)
(0.343342 -0.333459 0)
(0.438654 -0.393415 0)
(0.512796 -0.439008 1.04984e-19)
(0.597557 -0.439353 -2.1184e-19)
(0.591638 -0.446002 6.74512e-20)
(0.692719 -0.386691 0)
(-0.0360551 0.0762047 -1.58313e-22)
(-0.0475955 0.119106 -1.13461e-19)
(-0.0321091 0.114063 3.0408e-19)
(0.000654091 0.0885585 -9.04218e-20)
(0.0523246 0.0491294 -8.20774e-20)
(0.127532 -0.0040394 7.47216e-20)
(0.230139 -0.0704225 6.77242e-20)
(0.357874 -0.145065 1.19535e-19)
(0.499715 -0.220228 -2.08749e-19)
(0.640743 -0.285614 8.55718e-20)
(0.758093 -0.334487 6.87107e-20)
(0.851665 -0.362516 0)
(0.918222 -0.364984 0)
(0.92591 -0.349926 1.00102e-19)
(0.985338 -0.314051 -8.91029e-20)
(-0.0327235 0.0580362 7.92876e-22)
(-0.0406093 0.0988078 0)
(-0.0113616 0.0983569 0)
(0.0445754 0.0746662 1.85329e-19)
(0.130525 0.036291 -8.15454e-20)
(0.253134 -0.0145067 7.35023e-20)
(0.411801 -0.0750552 1.32599e-19)
(0.592421 -0.13799 -1.17571e-19)
(0.772005 -0.196519 1.02696e-19)
(0.925634 -0.24172 -8.56426e-20)
(1.03517 -0.27426 -4.78004e-21)
(1.10754 -0.284861 0)
(1.1251 -0.282683 3.72666e-20)
(1.12382 -0.267018 0)
(1.10632 -0.23575 0)
(-0.02856 0.039653 -1.32557e-19)
(-0.0314535 0.0693729 0)
(0.0129704 0.0666446 -2.07318e-19)
(0.100414 0.0426156 3.66621e-19)
(0.237744 0.00570663 -4.08479e-19)
(0.425053 -0.0394811 -7.4163e-20)
(0.642638 -0.0861345 1.28776e-19)
(0.856539 -0.128622 0)
(1.03536 -0.16327 0)
(1.15655 -0.188858 -1.46667e-19)
(1.22098 -0.204254 -4.88835e-20)
(1.23216 -0.207798 1.028e-19)
(1.20469 -0.205249 -3.73386e-20)
(1.17039 -0.193136 0)
(1.1137 -0.170271 -7.0285e-20)
(-0.0162128 -0.264348 0)
(0.251346 0.196649 4.20302e-21)
(0.402958 0.597825 -3.88959e-21)
(0.548999 0.730764 0)
(0.659312 0.728544 0)
(0.492235 0.794525 -1.00878e-22)
(0.445704 0.581938 0)
(0.631393 0.110712 0)
(0.81484 -0.353293 9.79736e-23)
(0.900533 -0.464686 0)
(0.928091 -0.481568 0)
(0.840232 -0.581917 -8.997e-23)
(0.817203 -0.488205 0)
(0.845674 -0.379768 -6.59356e-23)
(0.926122 0.0103401 -7.68541e-23)
(0.939691 0.278647 0)
(0.997113 0.483076 -5.59223e-22)
(1.02455 0.619643 6.53768e-22)
(0.996792 0.312648 0)
(1.01556 0.0501742 5.17596e-22)
(1.10983 -0.328056 -6.18595e-22)
(1.06369 -0.659734 1.22218e-22)
(1.09075 -0.280352 -2.21719e-22)
(1.07567 -0.00643059 2.11861e-22)
(1.11605 0.402924 -2.17996e-22)
(1.18085 0.724533 0)
(1.14506 -0.0209616 -2.42514e-22)
(1.01217 -0.634505 2.31879e-22)
(1.0959 -0.14956 -9.75001e-23)
(1.01735 0.288771 0)
(1.00571 0.138576 -8.8048e-23)
(0.973651 -0.090011 0)
(0.950531 -0.0561187 -2.91104e-23)
(0.982694 0.0298246 -1.25755e-23)
(0.961584 0.01708 1.37113e-24)
(0.954704 -0.0072703 -9.42546e-24)
(0.971243 -0.00413574 0)
(0.944161 0.00415029 2.84062e-24)
(-0.221481 -0.417177 1.56133e-20)
(0.0494842 0.0122666 -1.25771e-22)
(0.253943 0.411706 -8.91704e-21)
(0.505244 0.611046 8.50417e-21)
(0.573109 0.746179 0)
(0.421079 0.850813 1.0168e-22)
(0.50454 0.545422 -2.47135e-22)
(0.755165 0.029069 0)
(0.906598 -0.414765 -9.87013e-23)
(0.954162 -0.502087 0)
(0.984288 -0.460706 0)
(0.868847 -0.562354 9.0606e-23)
(0.879069 -0.494071 0)
(0.885761 -0.399153 2.38072e-21)
(0.918145 -0.00883708 -1.98017e-21)
(0.923255 0.255086 2.59262e-21)
(0.957039 0.460563 -2.47485e-21)
(1.00048 0.616229 -1.20571e-22)
(0.979109 0.32027 0)
(1.01721 0.0371672 0)
(1.13613 -0.329614 -1.23488e-22)
(1.05011 -0.659126 1.05849e-21)
(1.0984 -0.281135 -1.86493e-21)
(1.0585 -0.0147185 9.20059e-22)
(1.0838 0.382546 6.80378e-22)
(1.19623 0.718994 0)
(1.16471 0.00471962 4.37239e-22)
(1.02061 -0.632738 0)
(1.08547 -0.153514 9.78415e-23)
(1.01217 0.292417 -2.39618e-22)
(1.01636 0.141922 4.00274e-22)
(0.985355 -0.0853811 -4.19984e-23)
(0.951859 -0.0573294 6.41562e-23)
(0.987084 0.0289665 1.8433e-24)
(0.970047 0.0189082 1.50551e-23)
(0.957397 -0.00765939 -7.76681e-24)
(0.973071 -0.00359652 -7.93279e-25)
(0.948685 0.00560495 8.63666e-25)
(-0.207144 -0.519636 1.91123e-20)
(-0.0429524 -0.207543 -3.27258e-20)
(0.151766 0.207222 1.4165e-21)
(0.400734 0.512361 1.19669e-20)
(0.421345 0.775136 1.68847e-22)
(0.361521 0.869915 -2.03799e-22)
(0.58423 0.484889 2.51403e-22)
(0.885987 -0.0288884 -5.59589e-22)
(1.00986 -0.434522 0)
(1.00501 -0.522575 8.39608e-21)
(1.03357 -0.433303 -8.00897e-21)
(0.886129 -0.536992 -1.84268e-22)
(0.918626 -0.512381 0)
(0.928646 -0.417193 -4.74522e-21)
(0.916722 -0.0231328 4.37421e-21)
(0.913664 0.243759 -2.58528e-21)
(0.919948 0.443522 2.46699e-21)
(0.9804 0.608213 1.88997e-21)
(0.966022 0.328292 -1.592e-21)
(1.01802 0.0283592 0)
(1.15393 -0.318899 0)
(1.03178 -0.651249 1.93833e-21)
(1.09596 -0.286751 -1.8507e-21)
(1.04016 -0.0203658 -2.01667e-21)
(1.04249 0.356319 -1.01637e-23)
(1.20042 0.71002 1.86284e-21)
(1.17475 0.0393417 -8.52657e-23)
(1.02336 -0.617855 -6.78613e-22)
(1.07012 -0.158454 1.20667e-21)
(1.00316 0.294081 -1.03928e-21)
(1.02285 0.146 5.39195e-23)
(0.994456 -0.0785452 -1.31176e-22)
(0.950493 -0.0578106 4.4986e-23)
(0.988329 0.0274564 -4.30131e-23)
(0.976133 0.0208634 -1.04586e-23)
(0.957686 -0.00752857 -5.10684e-24)
(0.972186 -0.00317022 1.93526e-23)
(0.951119 0.00687947 3.14333e-24)
(0.0941531 -0.512006 0)
(0.0134454 -0.357572 5.89747e-21)
(0.0951774 0.010395 -5.82205e-21)
(0.271118 0.402373 0)
(0.277718 0.739174 -1.73585e-22)
(0.348274 0.808298 2.09439e-22)
(0.673817 0.395723 0)
(1.00583 -0.08144 1.73066e-23)
(1.12038 -0.431024 -4.49003e-22)
(1.0572 -0.535764 0)
(1.0915 -0.408683 -6.64237e-21)
(0.935805 -0.498035 6.52203e-21)
(0.940402 -0.531356 -3.12289e-22)
(0.966471 -0.438024 -5.03179e-21)
(0.934706 -0.0433514 4.79904e-21)
(0.914088 0.21766 3.3651e-22)
(0.875879 0.413803 0)
(0.940644 0.597427 -2.26473e-22)
(0.945484 0.339927 2.96067e-21)
(1.01349 0.0241393 4.83265e-22)
(1.16427 -0.305293 3.43653e-22)
(1.01701 -0.640856 -2.89978e-21)
(1.08665 -0.298145 -3.77389e-21)
(1.02229 -0.029618 4.62488e-21)
(0.993339 0.319291 -4.88435e-22)
(1.1863 0.691081 0)
(1.1732 0.0733568 -3.61042e-22)
(1.02392 -0.599293 6.87514e-22)
(1.05139 -0.167703 -1.23596e-21)
(0.989705 0.290598 1.06471e-21)
(1.02421 0.148256 -1.42398e-22)
(1.00058 -0.0709901 0)
(0.946733 -0.0579821 -4.63136e-23)
(0.986664 0.0251394 8.75683e-23)
(0.979798 0.0228211 3.02558e-23)
(0.95574 -0.00690054 3.10941e-23)
(0.968804 -0.00288401 -1.93662e-23)
(0.951577 0.00793837 1.716e-25)
(0.543488 -0.360662 1.66392e-22)
(0.316502 -0.333075 1.13491e-22)
(0.184866 -0.144933 0)
(0.247668 0.263209 0)
(0.25881 0.674221 0)
(0.42226 0.733717 0)
(0.787661 0.317469 1.71717e-20)
(1.11195 -0.121203 -3.28897e-20)
(1.22063 -0.399092 1.67656e-20)
(1.10272 -0.524478 0)
(1.11637 -0.39008 -6.39036e-21)
(0.991658 -0.445075 6.29133e-21)
(0.949562 -0.538911 5.54501e-21)
(0.979013 -0.468825 -4.65614e-21)
(0.952435 -0.0667405 5.72267e-21)
(0.913561 0.216167 -5.80093e-21)
(0.838638 0.403501 -3.02967e-22)
(0.908758 0.582576 -2.94776e-21)
(0.932471 0.346435 2.80826e-21)
(1.00988 0.0212167 3.57732e-22)
(1.16652 -0.28419 3.57909e-22)
(1.00605 -0.626549 3.44461e-21)
(1.06812 -0.313169 -3.71756e-21)
(1.0026 -0.0335152 -1.11365e-21)
(0.940567 0.283577 -5.0808e-22)
(1.16724 0.675718 -4.08141e-22)
(1.16447 0.113664 0)
(1.02289 -0.575327 0)
(1.02959 -0.176892 0)
(0.973548 0.286491 0)
(1.02177 0.15077 3.79211e-22)
(1.0043 -0.0619131 -2.23864e-22)
(0.94131 -0.0573446 9.44732e-23)
(0.982614 0.0222453 -2.73026e-22)
(0.981161 0.0248053 3.01885e-23)
(0.951869 -0.00576138 6.33882e-24)
(0.963301 -0.00273102 -2.40394e-23)
(0.950287 0.00876002 -7.82168e-24)
(0.880763 -0.262292 -1.75047e-22)
(0.737522 -0.198076 -3.61482e-21)
(0.527 -0.153605 3.40775e-21)
(0.37951 0.122928 1.17561e-20)
(0.351487 0.528399 -1.11987e-20)
(0.539648 0.6199 2.22319e-20)
(0.924589 0.255046 -2.0593e-20)
(1.21077 -0.135424 4.85509e-22)
(1.29527 -0.346535 -4.49977e-22)
(1.1536 -0.489233 0)
(1.12136 -0.380386 -2.22165e-22)
(1.04023 -0.392663 1.12339e-20)
(0.958622 -0.524233 -1.06932e-20)
(0.961571 -0.497551 -3.33653e-22)
(0.961129 -0.105972 0)
(0.917741 0.184991 -5.93528e-21)
(0.805824 0.370916 9.94956e-21)
(0.852426 0.564729 -3.91479e-21)
(0.90316 0.361249 0)
(1.0056 0.0295964 2.51052e-21)
(1.16353 -0.258225 1.87258e-23)
(1.00081 -0.608351 -2.97748e-21)
(1.04527 -0.331403 -5.00398e-21)
(0.98077 -0.0438319 4.8377e-21)
(0.89115 0.241019 -3.79846e-21)
(1.12673 0.644913 1.16738e-21)
(1.14444 0.149711 2.53398e-21)
(1.0236 -0.550985 -1.98979e-21)
(1.00744 -0.189236 1.89268e-21)
(0.954009 0.276685 -4.5447e-22)
(1.01501 0.151502 4.32093e-22)
(1.00551 -0.0525581 0)
(0.934856 -0.0562682 9.54217e-23)
(0.976729 0.0186663 -1.42692e-23)
(0.980396 0.0266824 0)
(0.946486 -0.00417965 -2.87948e-23)
(0.956182 -0.00274098 1.63333e-23)
(0.947571 0.00932426 -3.23565e-24)
(1.02379 -0.212511 0)
(0.931191 -0.136779 0)
(0.864089 -0.0830215 3.94145e-24)
(0.678976 0.105675 0)
(0.534631 0.444803 0)
(0.71152 0.531571 1.50561e-20)
(1.0897 0.198866 -1.4386e-20)
(1.3033 -0.143911 2.88298e-20)
(1.34093 -0.300682 -2.75371e-20)
(1.20123 -0.446172 0)
(1.12517 -0.374429 -2.10882e-22)
(1.06798 -0.351473 1.78647e-22)
(0.97829 -0.487478 -1.10313e-20)
(0.933808 -0.531836 -2.15533e-21)
(0.954134 -0.155738 1.18923e-20)
(0.912852 0.1869 1.90632e-22)
(0.773514 0.375698 -1.62328e-22)
(0.819146 0.551964 5.43716e-21)
(0.890469 0.359005 -5.37307e-21)
(1.00904 0.0270524 0)
(1.15981 -0.228223 0)
(0.996112 -0.585134 -1.74184e-22)
(1.01753 -0.349722 0)
(0.953789 -0.0471619 4.87302e-21)
(0.841433 0.207319 -2.87926e-22)
(1.09906 0.632039 -3.58092e-21)
(1.12804 0.189462 -1.90156e-21)
(1.02701 -0.52162 1.29219e-21)
(0.986614 -0.199637 -2.1555e-22)
(0.935163 0.268933 0)
(1.00631 0.151798 -2.01233e-22)
(1.00527 -0.0430386 1.90774e-22)
(0.928492 -0.054599 5.42983e-23)
(0.9698 0.0148563 2.49847e-23)
(0.977859 0.0285675 -4.03528e-23)
(0.940162 -0.0021582 1.0754e-23)
(0.948077 -0.00286984 0)
(0.943828 0.00963719 6.39872e-24)
(1.05332 -0.178345 4.3083e-20)
(0.993892 -0.136307 1.27964e-20)
(0.97087 -0.110622 -1.56936e-20)
(0.879441 0.0189905 1.7904e-20)
(0.733892 0.308771 -1.38168e-20)
(0.87478 0.437875 -2.63155e-24)
(1.20024 0.221122 0)
(1.34706 -0.0627492 -2.15502e-22)
(1.35771 -0.204565 -1.93786e-22)
(1.23332 -0.369966 0)
(1.1405 -0.353135 -1.30179e-20)
(1.08429 -0.316778 1.2381e-20)
(1.004 -0.436951 1.55145e-22)
(0.913118 -0.535906 1.28076e-20)
(0.921651 -0.229489 -1.21354e-20)
(0.894325 0.132191 2.05379e-22)
(0.751488 0.333513 1.71809e-22)
(0.762684 0.527594 0)
(0.842557 0.382932 4.74842e-21)
(1.00627 0.0514116 -4.50918e-21)
(1.16373 -0.19231 -2.64743e-21)
(0.991471 -0.554846 -7.69325e-22)
(0.985523 -0.365831 3.28106e-21)
(0.921551 -0.0604152 -4.98085e-21)
(0.800087 0.155559 8.52846e-22)
(1.04836 0.590023 6.19727e-21)
(1.09976 0.228654 -1.89405e-21)
(1.03068 -0.489578 1.81715e-21)
(0.969094 -0.211454 -1.30436e-21)
(0.913092 0.25363 0)
(0.993769 0.151731 0)
(1.00363 -0.0326003 0)
(0.923239 -0.0523154 4.00064e-23)
(0.96259 0.0103604 -5.15501e-23)
(0.973937 0.0301415 3.95841e-23)
(0.933565 0.000130153 -2.42565e-23)
(0.939659 -0.00318657 -1.23588e-23)
(0.939486 0.00968368 0)
(1.07109 -0.106551 0)
(1.02924 -0.0657677 0)
(0.973629 -0.0488932 0)
(0.93547 0.0555373 0)
(0.911458 0.204403 0)
(1.09723 0.265266 0)
(1.31865 0.127538 0)
(1.34195 -0.0804671 0)
(1.33187 -0.13983 0)
(1.24005 -0.282883 0)
(1.14766 -0.309246 0)
(1.09785 -0.249801 0)
(1.04493 -0.376946 0)
(0.906146 -0.549566 0)
(0.883884 -0.287254 0)
(0.85205 0.13489 0)
(0.702496 0.359871 0)
(0.720137 0.522103 0)
(0.84174 0.347686 0)
(1.02631 0.0305519 0)
(1.18342 -0.158087 0)
(0.983052 -0.526228 0)
(0.9481 -0.393696 0)
(0.87656 -0.0611128 0)
(0.774267 0.129332 0)
(1.0001 0.57374 0)
(1.0939 0.258224 0)
(1.03863 -0.466222 0)
(0.953974 -0.215798 0)
(0.891936 0.245991 0)
(0.982119 0.148219 0)
(1.00194 -0.0226239 0)
(0.918653 -0.0480318 0)
(0.953936 0.00600985 0)
(0.968038 0.0325269 0)
(0.925931 0.00332831 0)
(0.929627 -0.0035682 0)
(0.933939 0.00954433 0)
(1.07594 -0.0581842 0)
(1.05585 -0.0330549 0)
(1.0143 -0.030086 0)
(0.99669 0.0449128 0)
(1.02323 0.141438 0)
(1.14099 0.150226 0)
(1.26384 0.0749162 0)
(1.28225 -0.0566374 0)
(1.25022 -0.137761 0)
(1.19017 -0.263919 0)
(1.10752 -0.267254 0)
(1.02868 -0.265911 0)
(1.00573 -0.376373 0)
(0.869494 -0.468102 0)
(0.831961 -0.206678 0)
(0.758978 0.201033 0)
(0.622084 0.393406 0)
(0.697438 0.492426 0)
(0.868262 0.273467 0)
(1.06596 -0.0556941 0)
(1.17495 -0.19059 0)
(0.94116 -0.479609 0)
(0.902626 -0.331337 0)
(0.795682 -0.0103034 0)
(0.696319 0.121254 0)
(0.954232 0.534713 0)
(1.09251 0.21126 0)
(1.04537 -0.453045 0)
(0.940158 -0.176464 0)
(0.857839 0.251641 0)
(0.963734 0.130128 0)
(0.999033 -0.0182872 0)
(0.912969 -0.0421743 0)
(0.942126 0.00153623 0)
(0.958884 0.0348386 0)
(0.917825 0.00705505 0)
(0.919259 -0.00446355 0)
(0.927912 0.00889113 0)
(1.07737 -0.0250502 0)
(1.07122 -0.010841 0)
(1.05116 -0.00062185 0)
(1.03726 0.0345496 0)
(1.06595 0.0777885 0)
(1.12864 0.0856931 0)
(1.19564 0.0329392 0)
(1.21531 -0.0667893 0)
(1.20266 -0.0887267 0)
(1.16525 -0.202068 0)
(1.08399 -0.211439 0)
(1.06213 -0.187428 0)
(1.03797 -0.286596 0)
(0.842904 -0.419259 0)
(0.741945 -0.190567 0)
(0.638663 0.261026 0)
(0.576807 0.394943 0)
(0.728319 0.397018 0)
(0.93788 0.174557 0)
(1.08546 -0.0900643 0)
(1.16846 -0.137275 0)
(0.959947 -0.421653 0)
(0.848928 -0.320176 0)
(0.706381 0.0155262 0)
(0.603587 0.0788879 0)
(0.917161 0.459303 0)
(1.11899 0.204804 0)
(1.05421 -0.415138 0)
(0.925817 -0.158028 0)
(0.829915 0.241204 0)
(0.952162 0.109947 0)
(0.997215 -0.0106874 0)
(0.908275 -0.0343062 0)
(0.931282 -0.00382907 0)
(0.949767 0.036717 0)
(0.912164 0.011392 0)
(0.911975 -0.00549432 0)
(0.923695 0.00784277 0)
(1.07776 -0.00254675 0)
(1.07395 0.00424496 0)
(1.06771 0.00397494 0)
(1.06466 0.0240347 0)
(1.07789 0.0390532 0)
(1.114 0.035825 0)
(1.1531 0.0121669 0)
(1.16269 -0.0578019 0)
(1.14545 -0.0859489 0)
(1.13212 -0.171255 0)
(1.04739 -0.175951 0)
(1.00929 -0.219781 0)
(0.977846 -0.266734 0)
(0.831608 -0.289448 0)
(0.668578 -0.0820333 0)
(0.568645 0.298792 0)
(0.653817 0.335809 0)
(0.840502 0.298822 0)
(1.03963 0.102517 0)
(1.10628 -0.142751 0)
(1.13356 -0.145126 0)
(0.977455 -0.342139 0)
(0.780085 -0.228807 0)
(0.616075 0.0861769 0)
(0.548484 0.0377699 0)
(0.873077 0.362207 0)
(1.12773 0.152083 0)
(1.06214 -0.378064 0)
(0.891333 -0.109773 0)
(0.789904 0.237308 0)
(0.942738 0.0817774 0)
(0.996306 -0.00632928 0)
(0.905675 -0.02488 0)
(0.923375 -0.00855668 0)
(0.941788 0.0387264 0)
(0.909918 0.0156548 0)
(0.909466 -0.00685029 0)
(0.922585 0.00645939 0)
(1.07392 0.00813888 0)
(1.07565 0.0111616 0)
(1.07461 0.00617666 0)
(1.07255 0.0154744 0)
(1.08327 0.0161391 0)
(1.09918 0.010145 0)
(1.11627 -0.00490767 0)
(1.12808 -0.0588743 0)
(1.10962 -0.0618933 0)
(1.10279 -0.141362 0)
(1.0457 -0.126112 0)
(1.02662 -0.136786 0)
(0.95 -0.179027 0)
(0.844172 -0.202785 0)
(0.702422 -0.027411 0)
(0.664942 0.278149 0)
(0.835076 0.241053 0)
(0.978716 0.179771 0)
(1.11791 0.0393208 0)
(1.11376 -0.132587 0)
(1.10054 -0.0947942 0)
(1.02009 -0.262745 0)
(0.764287 -0.154999 0)
(0.626736 0.122356 0)
(0.59968 -0.0217485 0)
(0.827145 0.24351 0)
(1.12852 0.117115 0)
(1.07575 -0.328639 0)
(0.840184 -0.0618936 0)
(0.752628 0.225188 0)
(0.950257 0.0463388 0)
(0.998912 -0.00045299 0)
(0.903338 -0.0133005 0)
(0.918063 -0.0136254 0)
(0.936362 0.0400362 0)
(0.912471 0.01931 0)
(0.913347 -0.00855199 0)
(0.926177 0.00490435 0)
(1.06898 0.0134838 0)
(1.07205 0.0130872 0)
(1.07412 0.00554245 0)
(1.07258 0.00873112 0)
(1.08039 0.00365273 0)
(1.08391 -0.00529403 0)
(1.09552 -0.0119603 0)
(1.0967 -0.0539606 0)
(1.08251 -0.0493731 0)
(1.07972 -0.112955 0)
(1.01457 -0.0996346 0)
(1.0117 -0.125807 0)
(0.955159 -0.143022 0)
(0.890242 -0.117196 0)
(0.785372 0.0215557 0)
(0.816681 0.207688 0)
(0.985269 0.143388 0)
(1.06149 0.120329 0)
(1.14297 0.0296674 0)
(1.09657 -0.128595 0)
(1.04115 -0.0925654 0)
(1.02152 -0.190719 0)
(0.784488 -0.0620448 0)
(0.744412 0.165461 0)
(0.769289 -0.0398678 0)
(0.826783 0.130451 0)
(1.11493 0.047583 0)
(1.07406 -0.269545 0)
(0.783726 0.0141479 0)
(0.757176 0.19975 0)
(0.980982 -0.000356142 0)
(0.997843 0.00773952 0)
(0.90114 0.000761171 0)
(0.919784 -0.019179 0)
(0.936816 0.0406376 0)
(0.921494 0.0219983 0)
(0.925036 -0.0106892 0)
(0.935675 0.00332584 0)
(1.06267 0.0142878 0)
(1.06582 0.0124603 0)
(1.07002 0.00525166 0)
(1.06697 0.00333641 0)
(1.07369 -0.00139017 0)
(1.07069 -0.0132024 0)
(1.07752 -0.0139022 0)
(1.07389 -0.0481684 0)
(1.06129 -0.0398891 0)
(1.06202 -0.0855518 0)
(1.01328 -0.0706314 0)
(1.01769 -0.0835112 0)
(0.959369 -0.0833437 0)
(0.920101 -0.0654157 0)
(0.866023 0.0181135 0)
(0.923401 0.138848 0)
(1.03424 0.0847286 0)
(1.05799 0.0691689 0)
(1.12658 0.0171186 0)
(1.08842 -0.0846985 0)
(1.01601 -0.0450514 0)
(1.02126 -0.126728 0)
(0.830528 -0.0223883 0)
(0.882307 0.151082 0)
(0.960512 -0.0458001 0)
(0.897219 0.0721859 0)
(1.09595 0.01434 0)
(1.06398 -0.206803 0)
(0.778984 0.0712534 0)
(0.828115 0.151541 0)
(1.02054 -0.0425069 0)
(0.993356 0.0245984 0)
(0.915115 0.0144228 0)
(0.939203 -0.027064 0)
(0.947236 0.0402808 0)
(0.940919 0.0234821 0)
(0.946002 -0.01311 0)
(0.950593 0.0020375 0)
(1.05668 0.0139333 0)
(1.05824 0.0106149 0)
(1.06379 0.00513554 0)
(1.05909 0.000224456 0)
(1.06549 -0.00313426 0)
(1.05888 -0.0148348 0)
(1.06336 -0.0140357 0)
(1.05806 -0.0389235 0)
(1.04785 -0.0303221 0)
(1.0479 -0.0625806 0)
(1.01095 -0.0495179 0)
(1.01302 -0.0634301 0)
(0.971607 -0.0559702 0)
(0.957687 -0.0372258 0)
(0.924068 0.012085 0)
(0.967405 0.0808452 0)
(1.03756 0.0488688 0)
(1.04221 0.0498216 0)
(1.0885 0.0127666 0)
(1.05789 -0.0645414 0)
(1.00701 -0.0342649 0)
(1.0218 -0.0857461 0)
(0.892099 -0.00198914 0)
(0.9695 0.112682 0)
(1.03543 -0.0394649 0)
(0.958214 0.0504646 0)
(1.07201 -0.0158074 0)
(1.02685 -0.15035 0)
(0.825559 0.118319 0)
(0.930077 0.105939 0)
(1.04366 -0.0680714 0)
(0.982565 0.0448801 0)
(0.949575 0.0229327 0)
(0.969574 -0.0335307 0)
(0.962231 0.0408291 0)
(0.969651 0.0234342 0)
(0.972225 -0.0146472 0)
(0.96837 0.00183355 0)
(1.0503 0.0128429 0)
(1.05082 0.00869842 0)
(1.05615 0.00527037 0)
(1.05166 -0.00115068 0)
(1.05631 -0.00253913 0)
(1.04962 -0.0139358 0)
(1.05212 -0.0114509 0)
(1.04599 -0.0303313 0)
(1.03891 -0.0228054 0)
(1.03685 -0.0446904 0)
(1.01302 -0.0342487 0)
(1.01501 -0.0425962 0)
(0.98519 -0.032671 0)
(0.981465 -0.0194945 0)
(0.962398 0.00422531 0)
(0.98867 0.047396 0)
(1.02624 0.0283745 0)
(1.02974 0.0281089 0)
(1.06324 0.0093557 0)
(1.04364 -0.0403714 0)
(1.00764 -0.0120755 0)
(1.01814 -0.050107 0)
(0.932794 -0.00427546 0)
(1.00466 0.076347 0)
(1.04077 -0.036107 0)
(0.989188 0.0424082 0)
(1.0627 -0.00872153 0)
(0.990168 -0.105751 0)
(0.890097 0.125457 0)
(1.01759 0.0660109 0)
(1.04566 -0.0699568 0)
(0.976904 0.0639097 0)
(0.998974 0.0231776 0)
(0.997159 -0.0358291 0)
(0.980529 0.041997 0)
(1.00422 0.021713 0)
(0.99853 -0.0139858 0)
(0.988506 0.00313612 0)
(1.04387 0.0115615 0)
(1.04391 0.00718176 0)
(1.04844 0.00543939 0)
(1.0446 -0.00122891 0)
(1.04756 -0.00130406 0)
(1.0423 -0.0112666 0)
(1.04282 -0.00837069 0)
(1.03837 -0.022387 0)
(1.0323 -0.0158739 0)
(1.03095 -0.0308334 0)
(1.01493 -0.0221627 0)
(1.01612 -0.0283911 0)
(0.996015 -0.020959 0)
(0.997114 -0.0110572 0)
(0.986195 -9.04217e-05 0)
(0.999123 0.025345 0)
(1.02183 0.0152024 0)
(1.02292 0.0164763 0)
(1.04191 0.00672807 0)
(1.03217 -0.0271587 0)
(1.00509 -0.00769812 0)
(1.02266 -0.0295902 0)
(0.961126 -0.00650654 0)
(1.01597 0.0527218 0)
(1.03071 -0.0261852 0)
(0.990979 0.0319198 0)
(1.05875 -0.00568669 0)
(0.978431 -0.0746709 0)
(0.94089 0.109248 0)
(1.0619 0.0417785 0)
(1.02705 -0.0577166 0)
(0.982307 0.0682606 0)
(1.04251 0.0177584 0)
(1.00841 -0.0310753 0)
(0.997244 0.0403909 0)
(1.03303 0.0183413 0)
(1.01635 -0.0108326 0)
(1.00556 0.00503444 0)
(1.0378 0.0102654 0)
(1.03788 0.00615596 0)
(1.04101 0.00555341 0)
(1.03849 -0.000628952 0)
(1.03986 0.000338588 0)
(1.03657 -0.00823139 0)
(1.0356 -0.00496144 0)
(1.03299 -0.0157538 0)
(1.02771 -0.0101856 0)
(1.02728 -0.0206397 0)
(1.01614 -0.0142089 0)
(1.01762 -0.018417 0)
(1.00456 -0.0131837 0)
(1.00616 -0.00628558 0)
(1.00048 -0.00237371 0)
(1.00625 0.0134277 0)
(1.01807 0.00750684 0)
(1.0195 0.00818028 0)
(1.02872 0.00416583 0)
(1.02698 -0.0152859 0)
(1.00571 -0.00332058 0)
(1.02298 -0.0129584 0)
(0.979743 -0.00721776 0)
(1.01522 0.0346818 0)
(1.02649 -0.017802 0)
(0.991982 0.0218416 0)
(1.05281 0.00452668 0)
(0.980062 -0.0477864 0)
(0.965707 0.0800348 0)
(1.07197 0.0290758 0)
(1.0095 -0.0375549 0)
(0.994668 0.059348 0)
(1.06136 0.0135163 0)
(1.00779 -0.0205197 0)
(1.0098 0.0340865 0)
(1.04708 0.0150799 0)
(1.02355 -0.00506798 0)
(1.01588 0.00707348 0)
(1.03236 0.00915316 0)
(1.03259 0.00556928 0)
(1.03467 0.00563785 0)
(1.03321 0.000395096 0)
(1.03353 0.00173911 0)
(1.03173 -0.00523614 0)
(1.03004 -0.00214331 0)
(1.02901 -0.0104424 0)
(1.02438 -0.00570727 0)
(1.02487 -0.013508 0)
(1.01707 -0.00832223 0)
(1.01855 -0.011801 0)
(1.01004 -0.00808118 0)
(1.0116 -0.00411358 0)
(1.00804 -0.00278419 0)
(1.01074 0.00650105 0)
(1.01632 0.00266558 0)
(1.01793 0.00486108 0)
(1.02047 0.0014313 0)
(1.02292 -0.00746005 0)
(1.00626 -0.00282809 0)
(1.02117 -0.00560755 0)
(0.994326 -0.00541518 0)
(1.01249 0.021511 0)
(1.02503 -0.00927399 0)
(0.992342 0.0139143 0)
(1.04214 0.00654156 0)
(0.99186 -0.0277402 0)
(0.980463 0.0532617 0)
(1.06298 0.0228897 0)
(1.00242 -0.0201406 0)
(1.00622 0.0430993 0)
(1.05917 0.0120053 0)
(1.00764 -0.0100996 0)
(1.01829 0.0242234 0)
(1.04769 0.0127027 0)
(1.02478 0.000774435 0)
(1.02111 0.00799672 0)
(1.02774 0.00820087 0)
(1.02809 0.0052472 0)
(1.02943 0.0056442 0)
(1.02859 0.00136979 0)
(1.02851 0.00280334 0)
(1.02757 -0.00275757 0)
(1.02597 6.28373e-05 0)
(1.02563 -0.00640473 0)
(1.02211 -0.00240263 0)
(1.02286 -0.00848205 0)
(1.01749 -0.00425008 0)
(1.01888 -0.00751613 0)
(1.0132 -0.00457247 0)
(1.01461 -0.00281679 0)
(1.01189 -0.00251712 0)
(1.0136 0.00338541 0)
(1.01513 -7.87414e-05 0)
(1.0169 0.0035004 0)
(1.01635 -0.000556647 0)
(1.01996 -0.00226057 0)
(1.00827 -0.00180689 0)
(1.01909 -0.00121791 0)
(1.00289 -0.00205745 0)
(1.01131 0.0121553 0)
(1.02252 -0.00268054 0)
(0.997509 0.00895645 0)
(1.03275 0.00790385 0)
(1.001 -0.0109034 0)
(0.991635 0.0324497 0)
(1.04933 0.0189123 0)
(1.00379 -0.0059809 0)
(1.01358 0.0289846 0)
(1.04865 0.0129489 0)
(1.01077 -0.00177603 0)
(1.02289 0.0154519 0)
(1.04227 0.0120551 0)
(1.0246 0.00601245 0)
(1.02391 0.008652 0)
(1.02392 0.00737881 0)
(1.02425 0.00503577 0)
(1.02515 0.00552147 0)
(1.02468 0.00219368 0)
(1.02455 0.00350368 0)
(1.02407 -0.000809561 0)
(1.02285 0.00159567 0)
(1.02279 -0.00348128 0)
(1.02028 -7.35713e-05 0)
(1.02103 -0.00510706 0)
(1.01742 -0.00139755 0)
(1.01862 -0.00475246 0)
(1.01474 -0.00206316 0)
(1.01596 -0.00193007 0)
(1.01372 -0.00184084 0)
(1.01484 0.00210034 0)
(1.01473 -0.00152531 0)
(1.01599 0.00351548 0)
(1.0147 -0.00192083 0)
(1.01764 0.00108195 0)
(1.00989 -0.00136642 0)
(1.01726 0.000380024 0)
(1.00771 0.000695093 0)
(1.01203 0.00584914 0)
(1.01928 0.00221281 0)
(1.00308 0.00557234 0)
(1.02499 0.00668374 0)
(1.00731 -0.000669498 0)
(1.00148 0.0180941 0)
(1.03694 0.0163082 0)
(1.00745 0.00218332 0)
(1.01789 0.0174581 0)
(1.03855 0.013885 0)
(1.01489 0.00293661 0)
(1.02499 0.00821328 0)
(1.03646 0.0118056 0)
(1.02456 0.00921217 0)
(1.02559 0.0083468 0)
(1.02074 0.00661872 0)
(1.02102 0.00482276 0)
(1.02171 0.0052854 0)
(1.02143 0.00277044 0)
(1.02139 0.00386341 0)
(1.02112 0.000576254 0)
(1.02032 0.00254739 0)
(1.02037 -0.00144034 0)
(1.01867 0.00143308 0)
(1.01936 -0.00279878 0)
(1.01688 0.000501229 0)
(1.018 -0.00287353 0)
(1.01516 -0.000276974 0)
(1.01634 -0.00116879 0)