/*--------------------------------*- C++ -*----------------------------------*\
| =========                 |                                                 |
| \\      /  F ield         | OpenFOAM: The Open Source CFD Toolbox           |
|  \\    /   O peration     | Version:  2512                                  |
|   \\  /    A nd           | Website:  www.openfoam.com                      |
|    \\/     M anipulation  |                                                 |
\*---------------------------------------------------------------------------*/
FoamFile
{
    version     2.0;
    format      ascii;
    arch        "LSB;label=32;scalar=64";
    class       surfaceScalarField;
    location    "7";
    object      phi;
}
// * * * * * * * * * * * * * * * * * * * * * * * * * * * * * * * * * * * * * //

dimensions      [0 3 -1 0 0 0 0];

oriented        oriented;

internalField   nonuniform List<scalar> 
26232
(
-0.000208555
0.00116264
-0.00095408
-7.78861e-05
0.00285632
-0.00298699
0.000781509
0.0037369
-0.00459629
0.00262083
0.0035539
-0.00539322
0.00567146
0.00204314
-0.00509377
0.0102305
-0.00106593
-0.00349316
0.0166254
-0.00596771
-0.000427195
0.0252463
-0.0127537
0.0041328
0.0362724
-0.0213338
0.0103078
0.0495958
-0.0313993
0.0180759
0.0647288
-0.0424414
0.0273083
0.0808316
-0.0538224
0.0377197
0.0968356
-0.064871
0.048867
0.111627
-0.0749796
0.0601883
0.124254
-0.0836976
0.0710699
0.134131
-0.0908076
0.0809313
0.141179
-0.0963643
0.0893163
0.145815
-0.100669
0.0960329
0.14888
-0.104143
0.101078
0.151154
-0.107251
0.104978
0.153366
-0.110043
0.107831
0.155477
-0.113053
0.110941
0.157053
-0.114849
0.113273
-0.117812
0.117095
0.157769
-0.000307119
0.00146975
-0.000352213
0.00290141
0.00043212
0.00295257
0.00250892
0.0014771
0.00635057
-0.00179851
0.0124081
-0.0071235
0.021035
-0.0145946
0.0323036
-0.0240223
0.0458723
-0.0349025
0.0609736
-0.0465006
0.0765353
-0.058003
0.0913865
-0.0686736
0.104491
-0.077975
0.115153
-0.0856425
0.12316
-0.0917037
0.128789
-0.0964374
0.132684
-0.100259
0.135592
-0.103578
0.138113
-0.106664
0.140496
-0.109634
0.142901
-0.112448
0.145061
-0.115213
0.147757
-0.117545
-0.120791
0.150737
-0.000207382
0.00167714
1.75362e-05
0.0026765
0.00133133
0.00163877
0.00437512
-0.00156669
0.00973062
-0.00715402
0.0178129
-0.0152058
0.0286597
-0.0254414
0.0417867
-0.0371493
0.0562271
-0.0493429
0.07075
-0.0610235
0.084157
-0.07141
0.0955507
-0.0800674
0.104509
-0.0869333
0.111121
-0.0922545
0.115875
-0.0964577
0.119427
-0.0999895
0.122355
-0.103187
0.125009
-0.106232
0.127516
-0.109171
0.129927
-0.112046
0.132273
-0.114793
0.134674
-0.117614
0.13724
-0.12011
-0.123123
0.139572
-2.68161e-06
0.00167982
0.000743185
0.00193063
0.00298072
-0.000598766
0.00740789
-0.00599385
0.014565
-0.0143112
0.0245645
-0.0252053
0.0368804
-0.0377573
0.050414
-0.0506829
0.063819
-0.0627479
0.0758963
-0.0731009
0.0858878
-0.0814015
0.0935902
-0.0877698
0.0992816
-0.0926247
0.10351
-0.0964824
0.10684
-0.0997878
0.10968
-0.10283
0.112247
-0.105754
0.11463
-0.108615
0.116906
-0.111447
0.119124
-0.114264
0.121402
-0.117071
0.123713
-0.119925
0.126205
-0.122602
-0.125803
0.128885
0.000220583
0.00145924
0.00161782
0.000533389
0.00496514
-0.00394608
0.0109389
-0.0119676
0.0198141
-0.0231864
0.0311337
-0.0365248
0.0437278
-0.0503513
0.0561418
-0.0630968
0.0671519
-0.073758
0.0760881
-0.082037
0.0828833
-0.0881968
0.0879059
-0.0927924
0.0916939
-0.0964128
0.0947287
-0.0995172
0.0973309
-0.10239
0.0996799
-0.105179
0.101876
-0.10795
0.103999
-0.110737
0.106097
-0.113545
0.108209
-0.116375
0.110353
-0.119216
0.112513
-0.122085
0.11481
-0.124899
-0.128
0.117007
0.000451553
0.00100768
0.0025624
-0.00157746
0.00711287
-0.00849655
0.0145931
-0.0194478
0.0247416
-0.033335
0.0364021
-0.0481854
0.0480052
-0.0619543
0.058241
-0.0733327
0.0664466
-0.0819636
0.07261
-0.0882004
0.0771319
-0.0927187
0.0805337
-0.0961941
0.0832552
-0.0991343
0.0855888
-0.101851
0.0877057
-0.104507
0.0897025
-0.107176
0.0916343
-0.109882
0.0935245
-0.112628
0.0953886
-0.115409
0.0972395
-0.118226
0.0991033
-0.12108
0.101003
-0.123984
0.102998
-0.126895
-0.130024
0.105022
0.000705091
0.000302591
0.00358665
-0.00445902
0.00934111
-0.014251
0.0180346
-0.0281412
0.0286759
-0.0439763
0.0395991
-0.0591086
0.0493249
-0.0716801
0.0570898
-0.0810977
0.062854
-0.0877278
0.0670135
-0.0923598
0.0700823
-0.0957875
0.0724937
-0.0986056
0.0745389
-0.101179
0.0763861
-0.103698
0.0781217
-0.106243
0.0797854
-0.108839
0.0813948
-0.111492
0.0829668
-0.1142
0.0845217
-0.116964
0.0860819
-0.119786
0.0876686
-0.122666
0.0892819
-0.125597
0.0909609
-0.128574
-0.131681
0.092618
0.000994303
-0.000691711
0.00467682
-0.00814153
0.0114906
-0.0210648
0.0208399
-0.0374906
0.0310767
-0.0542132
0.040478
-0.0685099
0.0480488
-0.0792509
0.0536233
-0.0866722
0.0575544
-0.0916588
0.0603565
-0.0951619
0.0624798
-0.0979108
0.0642312
-0.100357
0.0657854
-0.102734
0.0672272
-0.10514
0.0685938
-0.107609
0.0699044
-0.11015
0.071175
-0.112762
0.0724203
-0.115445
0.0736528
-0.118197
0.0748837
-0.121017
0.0761208
-0.123903
0.0773795
-0.126856
0.0786843
-0.129879
-0.132994
0.0799971
0.00131274
-0.00200445
0.00575951
-0.0125883
0.0133114
-0.0286167
0.0226244
-0.0468035
0.0317464
-0.0633352
0.0393084
-0.0760718
0.0448894
-0.0848319
0.0487375
-0.0905203
0.0513589
-0.0942802
0.053234
-0.097037
0.0547012
-0.099378
0.0559539
-0.10161
0.0570856
-0.103865
0.0581376
-0.106192
0.0591296
-0.108601
0.0600746
-0.111095
0.0609822
-0.11367
0.0618621
-0.116325
0.0627257
-0.11906
0.0635849
-0.121876
0.0644527
-0.124771
0.0653389
-0.127742
0.0662508
-0.130791
-0.133909
0.0671659
0.00163805
-0.0036425
0.00671951
-0.0176698
0.0145558
-0.036453
0.0232095
-0.0554572
0.0308409
-0.0709667
0.0366026
-0.0818334
0.0405284
-0.0887577
0.0430775
-0.0930694
0.0447623
-0.095965
0.0459683
-0.0982429
0.0469233
-0.100333
0.0477404
-0.102427
0.048469
-0.104594
0.0491307
-0.106854
0.0497371
-0.109208
0.0502964
-0.111654
0.0508179
-0.114191
0.0513116
-0.116819
0.0517876
-0.119536
0.0522544
-0.122343
0.052719
-0.125236
0.0531902
-0.128214
0.0536753
-0.131276
-0.134408
0.0541738
0.0019393
-0.0055818
0.00743639
-0.0231669
0.0150753
-0.0440919
0.0226513
-0.0630332
0.0287048
-0.0770202
0.0328768
-0.0860055
0.0354895
-0.0913703
0.0370663
-0.0946463
0.0380515
-0.0969502
0.0387256
-0.0989171
0.0392332
-0.100841
0.0396379
-0.102831
0.039966
-0.104922
0.0402295
-0.107117
0.0404369
-0.109415
0.0405962
-0.111813
0.0407155
-0.114311
0.0408029
-0.116906
0.0408667
-0.1196
0.0409151
-0.122391
0.0409566
-0.125277
0.0409972
-0.128254
0.0410362
-0.131315
-0.134448
0.0410771
0.00218898
-0.00777078
0.00782574
-0.0288036
0.0148617
-0.0511278
0.0211598
-0.0693314
0.0257214
-0.0815818
0.0285599
-0.0888439
0.0301425
-0.0929529
0.0309685
-0.0954722
0.0313895
-0.0973712
0.0315985
-0.0991261
0.0316831
-0.100925
0.0316785
-0.102827
0.0315998
-0.104843
0.0314555
-0.106973
0.0312525
-0.109212
0.0309971
-0.111558
0.0306962
-0.11401
0.0303571
-0.116567
0.0299874
-0.11923
0.0295947
-0.121999
0.0291864
-0.124869
0.0287687
-0.127836
0.0283447
-0.130891
0.0279274
-0.134031
-0.00306271
0.00185186
0.00121085
-0.00884997
0.00349031
0.00229695
-0.0158045
0.00419783
0.00275666
-0.0233126
0.0045421
0.00296605
-0.0311954
0.00478469
0.00309806
-0.0393948
0.00499997
0.00319945
-0.0478499
0.00518586
0.00326927
-0.0564746
0.0053259
0.0032988
-0.0651584
0.00540371
0.00328005
-0.0737688
0.0054041
0.0032063
-0.0821543
0.00531317
0.00307237
-0.0901475
0.00511845
0.00287477
-0.0975679
0.00480868
0.00261168
-0.104224
0.00437324
0.00228238
-0.109911
0.003801
0.00188661
-0.114412
0.00307822
0.00142284
-0.117482
0.00218623
0.000883671
-0.118832
0.00110244
0.000247554
-0.118224
-0.000189924
-0.000418268
-0.115457
-0.00159738
-0.00116975
-0.110198
-0.00322844
-0.00203008
-0.102194
-0.00501626
-0.00298789
-0.0913064
-0.00686794
-0.00401976
-0.00855476
-0.0777481
-0.00500355
-0.00275117
0.00460303
-0.00809604
0.00883518
-0.0146101
0.0107118
-0.0216757
0.0116077
-0.029081
0.0121901
-0.0367454
0.0126643
-0.0445938
0.0130343
-0.0525293
0.0132614
-0.0604322
0.0133066
-0.0681633
0.0131352
-0.0755676
0.0127175
-0.0824782
0.0120291
-0.0887205
0.0110509
-0.0941141
0.00976688
-0.0984745
0.00816134
-0.101615
0.00621843
-0.103338
0.00390924
-0.10338
0.00114479
-0.101702
-0.00186832
-0.0980202
-0.00527883
-0.0920325
-0.0092161
-0.0834481
-0.0136007
-0.0720636
-0.0182525
-0.0228274
-0.0577909
-0.00202651
0.00662953
-0.00630735
0.013116
-0.0117473
0.0161518
-0.0177344
0.0175948
-0.0239846
0.0184403
-0.0303648
0.0190444
-0.0367726
0.0194422
-0.0430935
0.0195823
-0.0491942
0.0194073
-0.0549265
0.0188675
-0.0601321
0.017923
-0.0646476
0.0165446
-0.0683113
0.0147146
-0.0709695
0.0124251
-0.0724838
0.00967564
-0.0727284
0.00646297
-0.0715765
0.00275734
-0.0690579
-0.00137373
-0.0650509
-0.00587539
-0.0593494
-0.0109803
-0.0517977
-0.0167678
-0.0421363
-0.0232621
-0.0301828
-0.0302059
-0.0378729
-0.0151374
-0.00104325
0.00767278
-0.00378305
0.0158558
-0.00763237
0.0200011
-0.0120372
0.0219997
-0.0166301
0.0230332
-0.0212028
0.0236172
-0.0256165
0.0238558
-0.0297407
0.0237065
-0.0334362
0.0231028
-0.0365559
0.0219872
-0.0389502
0.0203173
-0.0404729
0.0180674
-0.0409892
0.0152309
-0.0403832
0.0118191
-0.0385623
0.00785469
-0.0354586
0.00335932
-0.0311168
-0.00158446
-0.0255599
-0.00693069
-0.0186299
-0.0128053
-0.010384
-0.0192262
-0.000671055
-0.0264808
0.0103572
-0.0342904
0.0230445
-0.0428932
-0.052617
0.0377886
-1.23366e-06
0.00767402
-0.000957684
0.0168123
-0.00287519
0.0219186
-0.00536001
0.0244845
-0.00800153
0.0256747
-0.0105101
0.0261258
-0.0126998
0.0260455
-0.0144285
0.0254352
-0.0155641
0.0242384
-0.0159794
0.0224025
-0.0155542
0.0198921
-0.0141812
0.0166944
-0.0117716
0.0128213
-0.00826098
0.00830849
-0.00361626
0.00320998
0.0021265
-0.00238344
0.00894043
-0.0083984
0.0168141
-0.0148043
0.0257685
-0.0217598
0.0356964
-0.0291541
0.0468413
-0.0376257
0.0591662
-0.0466153
0.0727064
-0.0564333
-0.0675303
0.0876197
0.00085153
0.00682249
0.00164132
0.0160225
0.00178521
0.0217747
0.00138641
0.0248833
0.000807263
0.0262538
0.000392645
0.0265404
0.000387539
0.0260506
0.000955825
0.024867
0.00221384
0.0229804
0.00425516
0.0203612
0.0071537
0.0169935
0.0109608
0.0128873
0.0156999
0.00808224
0.0213472
0.00266112
0.0278855
-0.00332828
0.0352693
-0.00976724
0.0434714
-0.0166005
0.0524647
-0.0237976
0.0624165
-0.0317116
0.073311
-0.0400486
0.0855271
-0.0498417
0.098724
-0.0598122
0.113116
-0.0708249
-0.0819915
0.127577
0.00138124
0.00544124
0.00355552
0.0138482
0.00558011
0.0197501
0.00723126
0.0232321
0.00869385
0.0247912
0.0102785
0.0249557
0.0122553
0.0240738
0.0148109
0.0223113
0.0180624
0.0197289
0.0220732
0.0163503
0.0268634
0.0122033
0.0324171
0.00733364
0.0386486
0.00185075
0.0456025
-0.00429273
0.0531735
-0.0108993
0.0613248
-0.0179185
0.0701638
-0.0254395
0.0798673
-0.0335011
0.0907218
-0.0425662
0.102849
-0.0521759
0.116408
-0.0634001
0.130645
-0.0740497
0.14558
-0.08576
-0.0953528
0.158941
0.00152299
0.00391825
0.00446201
0.0109092
0.0078325
0.0163796
0.011168
0.0198967
0.0144174
0.0215418
0.0177528
0.0216203
0.0213952
0.0204315
0.025521
0.0181855
0.0302344
0.0150155
0.0355674
0.0110173
0.041489
0.00628178
0.0478882
0.00093445
0.0549169
-0.00517797
0.0623916
-0.0117674
0.0703854
-0.0188931
0.0791196
-0.0266526
0.0888847
-0.0352047
0.100042
-0.0446587
0.112686
-0.0552103
0.126737
-0.0662268
0.141494
-0.078157
0.155892
-0.0884474
0.169243
-0.0991112
-0.105361
0.179251
0.00134589
0.00257236
0.00434817
0.00790692
0.00824786
0.0124799
0.0125233
0.0156213
0.0169435
0.0171215
0.0215017
0.0170621
0.0262945
0.0156387
0.0314257
0.0130543
0.0369589
0.00948232
0.042906
0.00507023
0.0491372
5.05196e-05
0.0560213
-0.00594962
0.0633461
-0.0125027
0.0713927
-0.0198141
0.0804891
-0.0279895
0.0910126
-0.0371761
0.10318
-0.0473724
0.116992
-0.0584705
0.131827
-0.0700449
0.146983
-0.0813828
0.160923
-0.0920975
0.172823
-0.100347
0.181617
-0.107905
-0.110438
0.186695
0.000978213
0.00159415
0.00347043
0.00541471
0.00705749
0.00889285
0.0113311
0.0113477
0.0160057
0.0124469
0.020946
0.0121218
0.0261235
0.0104612
0.0315589
0.00761888
0.0372949
0.00374636
0.0434213
-0.0010562
0.0502663
-0.00679448
0.0578292
-0.0135125
0.0665867
-0.0212603
0.0769032
-0.0301306
0.0890175
-0.0401038
0.102871
-0.0510301
0.117987
-0.0624876
0.133529
-0.0740127
0.148266
-0.0847822
0.16119
-0.0943072
0.170986
-0.101893
0.177811
-0.107172
0.181177
-0.111272
-0.111991
0.18273
0.000534211
0.00105994
0.00218946
0.00375946
0.00487183
0.00621047
0.00836794
0.00785154
0.0124596
0.00835529
0.0170053
0.00757601
0.0219702
0.00549632
0.0274224
0.00216669
0.0335684
-0.00239959
0.0407321
-0.00821996
0.0492833
-0.0153457
0.0595626
-0.0237917
0.0717815
-0.0334792
0.0858335
-0.0441826
0.101235
-0.0555054
0.117129
-0.0669241
0.132422
-0.0777804
0.145945
-0.0875356
0.156725
-0.0955626
0.164323
-0.101905
0.168684
-0.106254
0.171166
-0.109653
0.172068
-0.112174
-0.113482
0.173559
0.000105857
0.00087833
0.00249251
0.00495084
0.00821235
0.0122952
0.0173643
0.0236638
0.031572
0.041428
0.0533906
0.0673186
0.0827064
0.0987122
0.114277
0.128284
0.13982
0.148317
0.153833
0.156905
0.158482
0.15977
0.160868
0.164482
-0.0548094
-0.0151041
-0.00783456
-0.0298192
-0.0159313
-0.00905899
-0.00446283
-0.0155258
-0.00983049
0.02038
-0.0145685
-0.0102743
0.043651
-0.0130512
-0.0102197
0.0647629
-0.0112566
-0.00985529
0.0834232
-0.00934606
-0.00931429
0.0995733
-0.00742169
-0.00872836
0.113373
-0.00561967
-0.00818016
0.125087
-0.00400234
-0.00771171
0.135013
-0.0025877
-0.00733766
0.143433
-0.00135901
-0.00706126
0.150581
-0.000270358
-0.00687747
0.156684
0.000659219
-0.00676286
0.161881
0.00152208
-0.00671837
0.166285
0.00231542
-0.00671972
0.169994
0.00304454
-0.00675359
0.173095
0.00372093
-0.00682191
0.175661
0.00437877
-0.00694475
0.177769
0.00502123
-0.00712913
0.179492
0.00563803
-0.00736142
0.1809
0.00621405
-0.0076217
0.182055
0.00674385
-0.00789895
0.183011
0.00724407
-0.00819991
0.183808
0.00774457
-0.00854189
0.184475
0.00827274
-0.00894003
0.185032
0.00884401
-0.0094003
0.18549
0.00946245
-0.00992085
0.185861
0.0101261
-0.0104967
0.186152
0.0108324
-0.0111239
0.186373
0.011581
-0.0118015
0.186529
0.0123746
-0.0125313
0.186629
0.0132183
-0.0133177
0.186677
0.0141184
-0.0141661
0.186677
0.0150823
-0.0150832
0.186636
0.0161181
-0.0160763
0.186555
0.0172347
-0.0171535
0.186437
0.0184416
-0.0183241
0.186285
0.0197494
-0.0195979
0.186102
0.0211695
-0.0209861
0.185889
0.0227144
-0.0225009
0.185646
0.0243981
-0.024156
0.185377
0.026236
-0.0259666
0.185082
0.0282456
-0.02795
0.184761
0.0304451
-0.0301243
0.184416
0.0328596
-0.0325145
0.184047
0.0355012
-0.0351325
0.183655
0.0384333
-0.0380412
0.183241
0.0415832
-0.0411696
0.182803
0.0452541
-0.0448161
0.182348
0.0488245
-0.0483696
0.181863
0.0538294
-0.053344
0.181371
0.0572025
-0.0567103
0.180839
0.0649025
-0.0643705
0.180303
0.0668999
-0.0663649
0.179738
0.0785391
-0.0779737
0.179147
0.0795779
-0.0789864
0.178547
0.0937192
-0.0931191
0.177916
0.0962941
-0.0956634
0.112467
-0.111807
-0.0368864
-0.0360086
-0.0140726
-0.0387451
0.00932174
-0.0389201
0.0322541
-0.0375009
0.0537974
-0.0345945
0.0732616
-0.0307208
0.0904159
-0.0265004
0.105274
-0.0222802
0.117942
-0.0182867
0.128668
-0.014729
0.137739
-0.0116581
0.145433
-0.00905327
0.152011
-0.00684822
0.157628
-0.00495822
0.162444
-0.003294
0.16656
-0.00180054
0.17004
-0.000435299
0.172999
0.000762382
0.175484
0.0018935
0.177551
0.00295384
0.179256
0.0039337
0.180656
0.00481344
0.18181
0.00558956
0.18277
0.00628486
0.183574
0.00693993
0.184253
0.00759422
0.184824
0.00827313
0.185299
0.0089871
0.185688
0.00973729
0.185998
0.0105221
0.186237
0.0113417
0.186413
0.0121993
0.186531
0.0131004
0.186597
0.0140523
0.186616
0.0150631
0.186592
0.0161416
0.18653
0.0172974
0.186431
0.0185406
0.186298
0.0198822
0.186133
0.021334
0.185939
0.0229089
0.185716
0.0246211
0.185465
0.0264863
0.185189
0.028522
0.184887
0.0307468
0.184561
0.0331859
0.184211
0.0358514
0.183837
0.0388073
0.183441
0.0419795
0.183019
0.0456757
0.182579
0.0492642
0.182108
0.054301
0.181627
0.0576831
0.181104
0.0654253
0.180577
0.0674276
0.180012
0.079104
0.179423
0.0801669
0.178811
0.0943307
0.178172
0.0969337
0.113151
0.00126309
-0.0524091
0.018557
-0.056039
0.0372886
-0.0576517
0.0559985
-0.0562109
0.073751
-0.052347
0.0899011
-0.0468709
0.104085
-0.0406843
0.116361
-0.0345566
0.126854
-0.0287795
0.135719
-0.0235943
0.143196
-0.0191343
0.149519
-0.0153767
0.154902
-0.0122307
0.15952
-0.00957662
0.163511
-0.00728532
0.166978
-0.00526689
0.170011
-0.00346837
0.172616
-0.00184343
0.17483
-0.000319621
0.176749
0.00103429
0.178366
0.00231677
0.179723
0.00345696
0.180858
0.00445369
0.181815
0.00532821
0.182628
0.00612684
0.183323
0.00689893
0.183917
0.00767916
0.18442
0.00848425
0.184839
0.00931821
0.185181
0.0101801
0.185453
0.0110699
0.185661
0.011991
0.185813
0.0129493
0.185912
0.0139527
0.185965
0.0150099
0.185976
0.0161307
0.185948
0.0173252
0.185885
0.0186041
0.185788
0.0199789
0.185661
0.0214617
0.185503
0.023066
0.185319
0.024806
0.185107
0.0266977
0.18487
0.028759
0.184608
0.0310085
0.184323
0.0334718
0.184013
0.0361607
0.18368
0.0391404
0.183325
0.0423347
0.182944
0.0460565
0.182545
0.0496634
0.182113
0.0547328
0.181671
0.0581252
0.181185
0.0659112
0.180693
0.0679195
0.180158
0.0796391
0.179602
0.080723
0.17901
0.0949224
0.178394
0.0975498
0.113825
0.0465249
-0.0611453
0.0577516
-0.0672657
0.0702391
-0.0701392
0.0830773
-0.069049
0.0955211
-0.0647908
0.107081
-0.0584309
0.117445
-0.0510479
0.126504
-0.0436159
0.134458
-0.0367337
0.141364
-0.0304997
0.147292
-0.0250626
0.152369
-0.0204541
0.156733
-0.0165942
0.160507
-0.0133505
0.163796
-0.0105743
0.16668
-0.00815072
0.169218
-0.00600713
0.17147
-0.00409496
0.173494
-0.00234377
0.175228
-0.000700019
0.176759
0.000785764
0.178071
0.00214577
0.17919
0.00333466
0.180148
0.00436958
0.180976
0.00529937
0.181695
0.00617973
0.18232
0.00705358
0.182861
0.00794394
0.183321
0.00885765
0.183707
0.00979397
0.184025
0.0107525
0.18428
0.011736
0.184479
0.0127507
0.184627
0.0138046
0.184729
0.0149075
0.18479
0.0160696
0.184814
0.0173018
0.184802
0.0186153
0.184759
0.0200221
0.184686
0.0215349
0.184585
0.0231672
0.184457
0.0249338
0.184304
0.0268508
0.184126
0.0289365
0.183925
0.0312096
0.183701
0.0336959
0.183454
0.0364072
0.183185
0.0394099
0.182894
0.0426254
0.182579
0.0463723
0.182245
0.0499973
0.181879
0.055099
0.181502
0.0585022
0.18108
0.0663326
0.180653
0.068347
0.180177
0.080115
0.179684
0.0812159
0.179143
0.0954628
0.178583
0.09811
0.114456
0.0906784
-0.0642041
0.0958115
-0.0723988
0.101958
-0.0762861
0.108431
-0.0755217
0.114969
-0.0713292
0.12142
-0.0648817
0.127618
-0.0572454
0.133429
-0.0494268
0.138798
-0.0421029
0.143837
-0.0355392
0.148454
-0.0296797
0.152594
-0.0245936
0.156272
-0.0202723
0.159534
-0.0166121
0.162425
-0.0134661
0.164993
-0.0107183
0.167285
-0.00829926
0.169341
-0.00615104
0.171197
-0.00419974
0.17289
-0.00239254
0.174359
-0.000683311
0.175665
0.000839394
0.176792
0.00220802
0.177768
0.00339375
0.178621
0.00444563
0.179374
0.00542682
0.180041
0.00638714
0.180628
0.00735639
0.181141
0.00834489
0.181583
0.00935211
0.181959
0.0103767
0.182274
0.0114209
0.182534
0.0124903
0.182745
0.0135936
0.182912
0.0147407
0.183039
0.0159427
0.183129
0.0172111
0.183187
0.0185577
0.183214
0.0199949
0.183213
0.0215359
0.183186
0.0231946
0.183134
0.024986
0.183058
0.0269265
0.18296
0.0290348
0.18284
0.0313296
0.182698
0.0338372
0.182536
0.0365692
0.182353
0.0395932
0.18215
0.0428283
0.181924
0.046599
0.18168
0.050241
0.181405
0.055374
0.181119
0.0587876
0.18079
0.0666623
0.180455
0.068682
0.180067
0.0805024
0.179668
0.0816155
0.17921
0.0959203
0.178738
0.0985819
0.11501
0.126947
-0.0635741
0.126913
-0.0723651
0.127409
-0.0767824
0.128194
-0.0763064
0.129441
-0.0725762
0.131336
-0.0667763
0.133867
-0.0597771
0.136893
-0.0524523
0.140215
-0.0454249
0.143654
-0.0389788
0.14718
-0.0332051
0.150609
-0.0280224
0.15382
-0.0234839
0.156781
-0.0195731
0.159485
-0.0161699
0.161931
-0.0131649
0.164135
-0.0105032
0.166133
-0.00814813
0.167961
-0.00602852
0.16963
-0.00406151
0.171163
-0.00221558
0.172479
-0.000476715
0.173653
0.00103347
0.174672
0.00237534
0.175568
0.0035495
0.176367
0.00462771
0.177085
0.00566902
0.17773
0.00671106
0.178306
0.00776889
0.178816
0.00884268
0.179262
0.00993013
0.179651
0.0110323
0.179987
0.0121545
0.180275
0.0133052
0.180521
0.0144948
0.180729
0.0157348
0.180903
0.0170373
0.181045
0.0184149
0.18116
0.0198805
0.181248
0.0214475
0.181312
0.0231304
0.181354
0.0249442
0.181375
0.026906
0.181375
0.0290344
0.181356
0.0313484
0.181319
0.033875
0.181263
0.0366252
0.181188
0.0396682
0.181095
0.0429206
0.180981
0.0467131
0.180852
0.0503699
0.180694
0.0555326
0.180526
0.0589552
0.180315
0.0668731
0.180101
0.0688963
0.179831
0.080772
0.179555
0.081892
0.179212
0.0962634
0.17886
0.0989338
0.115453
0.155249
-0.0598816
0.150761
-0.0678776
0.145888
-0.0719089
0.141723
-0.0721411
0.138669
-0.0695225
0.13698
-0.0650879
0.136689
-0.0594857
0.137588
-0.0533511
0.139364
-0.0472008
0.141701
-0.0413159
0.14433
-0.0358338
0.147157
-0.0308493
0.150005
-0.0263322
0.152752
-0.0223205
0.155341
-0.0187587
0.15774
-0.0155636
0.159936
-0.0126996
0.161944
-0.0101562
0.163799
-0.00788346
0.165524
-0.00578613
0.1671
-0.00379185
0.168544
-0.00192044
0.169761
-0.000183654
0.170859
0.00127696
0.171823
0.00258632
0.172684
0.00376599
0.173467
0.00488649
0.174181
0.00599687
0.174831
0.00711891
0.175419
0.00825452
0.175948
0.00940082
0.176423
0.0105578
0.176848
0.01173
0.177227
0.0129256
0.177567
0.0141552
0.177871
0.0154309
0.178143
0.0167652
0.178386
0.0181713
0.178604
0.0196625
0.178799
0.0212529
0.178972
0.0229571
0.179126
0.0247907
0.179261
0.0267707
0.179379
0.0289162
0.179481
0.0312464
0.179567
0.0337888
0.179638
0.0365541
0.179693
0.0396132
0.179734
0.0428798
0.179756
0.0466914
0.179766
0.05036
0.179748
0.0555501
0.179725
0.0589789
0.179659
0.0669385
0.179593
0.0689623
0.17947
0.080895
0.179346
0.0820161
0.179149
0.0964608
0.178948
0.0991341
0.115751
0.172582
-0.0532126
0.164847
-0.0601426
0.156419
-0.0634806
0.14884
-0.0645626
0.143016
-0.0636978
0.139088
-0.06116
0.136977
-0.0573751
0.136419
-0.0527928
0.137045
-0.0478265
0.138501
-0.0427722
0.140491
-0.0378236
0.142765
-0.0331232
0.145235
-0.0288023
0.147779
-0.0248643
0.150271
-0.0212506
0.152643
-0.0179356
0.154856
-0.0149134
0.156908
-0.012208
0.158821
-0.00979593
0.160617
-0.00758213
0.162293
-0.005468
0.163805
-0.00343306
0.165176
-0.00155426
0.166332
0.000120957
0.167386
0.00153216
0.168329
0.00282325
0.169192
0.00402366
0.169989
0.00519939
0.170726
0.00638173
0.171406
0.00757498
0.172031
0.0087762
0.172604
0.0099845
0.17313
0.0112035
0.173615
0.0124411
0.174062
0.013708
0.174476
0.0150166
0.174862
0.0163798
0.175222
0.0178115
0.175559
0.0193253
0.175876
0.0209358
0.176175
0.022658
0.176458
0.0245079
0.176726
0.0265027
0.17698
0.0286618
0.177222
0.0310045
0.177452
0.0335591
0.17767
0.0363356
0.177876
0.0394072
0.178072
0.042684
0.178252
0.0465113
0.178425
0.0501877
0.178573
0.0554022
0.178718
0.0588334
0.178824
0.0668326
0.178933
0.0688529
0.178985
0.080843
0.179042
0.0819592
0.179021
0.0964815
0.179004
0.0991519
0.115872
0.178103
-0.044621
0.168608
-0.0506479
0.159012
-0.0538845
0.150312
-0.0558626
0.143426
-0.0568111
0.138503
-0.0562373
0.135417
-0.0542897
0.133905
-0.0512801
0.133653
-0.0475754
0.134363
-0.0434819
0.135763
-0.0392239
0.137624
-0.0349841
0.139745
-0.030923
0.142054
-0.0271738
0.144435
-0.0236313
0.146778
-0.0202784
0.149017
-0.0171523
0.15112
-0.0143107
0.153094
-0.0117703
0.15496
-0.00944855
0.156723
-0.00723072
0.158358
-0.00506776
0.159826
-0.00302237
0.161138
-0.00119103
0.162288
0.000382377
0.163336
0.00177467
0.164294
0.00306592
0.165186
0.00430749
0.166021
0.00554706
0.166802
0.00679395
0.167532
0.00804591
0.168215
0.00930147
0.168855
0.0105635
0.169457
0.0118395
0.170024
0.0131402
0.170563
0.0144782
0.171075
0.0158671
0.171566
0.0173208
0.172038
0.0188537
0.172493
0.0204806
0.172934
0.022217
0.173363
0.0240792
0.173781
0.0260847
0.174189
0.0282532
0.17459
0.0306042
0.174982
0.0331666
0.175368
0.0359499
0.175745
0.0390296
0.176117
0.0423119
0.176478
0.0461509
0.176835
0.0498301
0.177172
0.0550656
0.177511
0.058494
0.177814
0.0665302
0.178125
0.0685417
0.17838
0.0805882
0.178645
0.0816936
0.178832
0.0962948
0.179027
0.0989573
0.115781
0.174375
-0.0362662
0.165331
-0.0416033
0.156452
-0.0450054
0.148415
-0.0478262
0.141614
-0.0500099
0.136341
-0.0509641
0.132656
-0.0506052
0.130414
-0.0490378
0.129422
-0.046583
0.129473
-0.0435333
0.130347
-0.040098
0.131821
-0.0364575
0.133698
-0.0328003
0.135827
-0.0293031
0.138075
-0.0258787
0.140357
-0.0225607
0.142604
-0.0193989
0.144755
-0.0164617
0.146782
-0.0137972
0.148697
-0.0113639
0.150518
-0.00905178
0.152237
-0.00678693
0.153822
-0.00460741
0.155254
-0.00262329
0.156525
-0.000888253
0.157693
0.000607065
0.158774
0.00198504
0.15978
0.0033013
0.160728
0.00459934
0.161624
0.00589756
0.162473
0.00719706
0.163278
0.00849638
0.164044
0.00979778
0.164774
0.0111085
0.165475
0.0124394
0.16615
0.0138031
0.166804
0.0152137
0.167439
0.0166856
0.168059
0.0182335
0.168667
0.0198727
0.169265
0.0216188
0.169856
0.0234888
0.17044
0.0255003
0.17102
0.0276736
0.171596
0.0300279
0.172169
0.0325932
0.172741
0.0353781
0.17331
0.038461
0.173878
0.0417432
0.17444
0.0455893
0.175005
0.0492652
0.175553
0.0545179
0.17611
0.0579367
0.176633
0.0660069
0.177172
0.0680031
0.177657
0.0801036
0.178158
0.0811923
0.178582
0.0958709
0.179018
0.0985213
0.115447
0.16687
-0.0295768
0.159266
-0.0339996
0.151587
-0.0373265
0.144484
-0.0407229
0.138111
-0.043637
0.132814
-0.0456671
0.128791
-0.0465821
0.126034
-0.0462812
0.124497
-0.0450461
0.124058
-0.0430944
0.124528
-0.0405681
0.125698
-0.0376276
0.127336
-0.0344381
0.129212
-0.0311791
0.131258
-0.0279243
0.133411
-0.024714
0.135601
-0.0215887
0.137773
-0.0186344
0.139871
-0.0158947
0.141857
-0.0133503
0.143747
-0.0109414
0.145545
-0.008585
0.147238
-0.00630041
0.148796
-0.00418165
0.150219
-0.00231055
0.151486
-0.000660555
0.152687
0.000783917
0.153822
0.00216697
0.154894
0.00352745
0.155915
0.00487663
0.156891
0.0062209
0.157827
0.00756017
0.158728
0.00889682
0.159598
0.0102381
0.160443
0.0115948
0.161266
0.01298
0.162072
0.014408
0.162864
0.0158936
0.163645
0.0174519
0.16442
0.0190985
0.165189
0.0208495
0.165956
0.0227221
0.166722
0.0247344
0.167488
0.0269069
0.168257
0.0292591
0.169028
0.0318218
0.169804
0.0346024
0.170582
0.0376828
0.171367
0.0409586
0.17215
0.0448065
0.172943
0.0484718
0.173724
0.0537376
0.174522
0.0571385
0.175289
0.0652395
0.17608
0.0672124
0.17682
0.0793631
0.177583
0.0804298
0.178273
0.0951808
0.178978
0.0978162
0.114837
0.159318
-0.0244135
0.153038
-0.0277194
0.146711
-0.0309994
0.140461
-0.0344733
0.134473
-0.0376485
0.129024
-0.0402185
0.124345
-0.0419023
0.120841
-0.0427779
0.118609
-0.0428139
0.117525
-0.0420099
0.117444
-0.0404873
0.118182
-0.0383657
0.119526
-0.0357821
0.12127
-0.0329229
0.123276
-0.0299309
0.125463
-0.0269005
0.127739
-0.0238652
0.129998
-0.0208933
0.132168
-0.018065
0.134239
-0.0154207
0.136221
-0.0129237
0.13813
-0.0104935
0.139953
-0.00812361
0.141668
-0.00589708
0.143247
-0.00388937
0.144708
-0.00212102
0.146025
-0.000532991
0.147291
0.000900723
0.148504
0.00231397
0.149669
0.00371157
0.150791
0.00509912
0.151875
0.00647648
0.152926
0.00784601
0.153949
0.00921488
0.15495
0.010594
0.155933
0.0119967
0.156903
0.0134377
0.157864
0.0149324
0.15882
0.0164961
0.159774
0.0181449
0.160728
0.0198955
0.161685
0.0217652
0.162647
0.0237725
0.163615
0.0259383
0.164592
0.0282822
0.165578
0.030836
0.166574
0.0336059
0.167579
0.0366775
0.168598
0.0399399
0.169621
0.0437838
0.170662
0.0474302
0.171695
0.0527046
0.172756
0.0560778
0.173789
0.0642063
0.174855
0.0661467
0.175876
0.078342
0.176924
0.0793819
0.177908
0.0941966
0.178908
0.0968161
0.113921
0.201473
-0.0199451
-0.205941
0.197765
-0.0240117
0.194113
-0.027348
0.190165
-0.0305252
0.185924
-0.0334067
0.181548
-0.0358428
0.177251
-0.037605
0.17312
-0.0386474
0.169272
-0.0389662
0.1658
-0.0385379
0.162754
-0.0374407
0.160169
-0.035781
0.158057
-0.0336697
0.156393
-0.0312593
0.155139
-0.0286767
0.154236
-0.025998
0.153641
-0.02327
0.153315
-0.0205668
0.153208
-0.017958
0.15326
-0.0154727
0.153424
-0.0130883
0.15368
-0.0107496
0.154014
-0.00845772
0.154406
-0.00628922
0.154829
-0.00431236
0.15525
-0.00254115
0.15568
-0.000963212
0.156063
0.000517454
0.156425
0.00195224
0.156767
0.0033692
0.157094
0.00477266
0.157405
0.00616478
0.157702
0.00754948
0.157983
0.00893366
0.158249
0.010328
0.1585
0.0117454
0.158738
0.0132005
0.158962
0.0147083
0.159174
0.0162841
0.159375
0.017944
0.159566
0.0197044
0.159748
0.0215828
0.159923
0.0235976
0.160092
0.0257698
0.160255
0.028119
0.160414
0.0306769
0.16057
0.03345
0.160724
0.0365233
0.160876
0.0397877
0.161031
0.0436296
0.161181
0.0472794
0.16134
0.0525455
0.161493
0.0559252
0.161656
0.0640434
0.161822
0.0659806
0.161977
0.0781872
0.162165
0.0791933
0.162316
0.0940459
0.162508
0.0966245
0.113762
0.209846
-0.0164682
-0.213323
0.206326
-0.0204917
0.202829
-0.0238504
0.199111
-0.0268076
0.19516
-0.0294558
0.191058
-0.0317409
0.186979
-0.0335258
0.183037
-0.034705
0.179319
-0.0352487
0.175925
-0.0351433
0.172921
-0.0344373
0.170349
-0.0332093
0.168223
-0.0315436
0.166526
-0.0295619
0.165217
-0.0273681
0.164246
-0.0250264
0.163572
-0.0225962
0.163157
-0.0201514
0.162951
-0.0177524
0.162903
-0.0154246
0.162969
-0.0131545
0.163129
-0.0109095
0.163374
-0.00870317
0.16369
-0.0066052
0.164056
-0.00467833
0.164448
-0.00293294
0.164822
-0.00133703
0.165189
0.000150611
0.165545
0.00159601
0.165889
0.00302507
0.166221
0.00444066
0.16654
0.00584606
0.166845
0.00724466
0.167135
0.00864326
0.167411
0.0100522
0.167672
0.011484
0.16792
0.0129529
0.168155
0.0144737
0.168377
0.0160615
0.168589
0.0177321
0.168791
0.0195022
0.168985
0.0213891
0.169172
0.0234112
0.169352
0.0255895
0.169527
0.0279436
0.169699
0.0305053
0.169868
0.0332812
0.170035
0.0363558
0.170201
0.0396217
0.170369
0.0434615
0.170535
0.0471132
0.170709
0.0523722
0.170879
0.0557549
0.171056
0.0638663
0.171242
0.065795
0.171412
0.0780166
0.17162
0.0789856
0.171789
0.0938764
0.171999