/*--------------------------------*- C++ -*----------------------------------*\
| =========                 |                                                 |
| \\      /  F ield         | OpenFOAM: The Open Source CFD Toolbox           |
|  \\    /   O peration     | Version:  2312                                  |
|   \\  /    A nd           | Website:  www.openfoam.com                      |
|    \\/     M anipulation  |                                                 |
\*---------------------------------------------------------------------------*/
FoamFile
{
    version     2.0;
    format      ascii;
    arch        "LSB;label=32;scalar=64";
    class       volVectorField;
    location    "166.95";
    object      U;
}
// * * * * * * * * * * * * * * * * * * * * * * * * * * * * * * * * * * * * * //

dimensions      [0 1 -1 0 0 0 0];

internalField   nonuniform List<vector> 
5478
(
(-0.0440073 0.0270251 -8.4326e-20)
(-0.0791699 0.044127 0)
(-0.0610247 0.044504 1.25802e-19)
(0.0316783 0.0398694 -2.18912e-19)
(0.212826 0.0337901 1.40669e-19)
(0.463439 0.0302034 -4.28184e-20)
(0.738525 0.0310802 -7.12965e-20)
(0.992791 0.0334366 0)
(1.19403 0.0335407 0)
(1.32431 0.0256346 9.45804e-20)
(1.38296 0.0103912 -4.23712e-20)
(1.3855 -0.0105282 -7.28214e-20)
(1.35266 -0.0442624 -2.87066e-20)
(1.32583 -0.0486777 0)
(1.30683 -0.115077 7.77702e-20)
(-0.0541232 0.0327396 1.69493e-19)
(-0.0681354 0.0449047 0)
(0.0100778 0.0366753 0)
(0.201944 0.0283353 -1.11095e-19)
(0.487392 0.0296914 1.45665e-19)
(0.794129 0.0400454 4.10288e-20)
(1.05614 0.0526124 -7.01565e-20)
(1.23879 0.0602786 6.22074e-20)
(1.33645 0.0584154 1.54156e-19)
(1.36559 0.0466972 -1.34935e-19)
(1.35683 0.029615 3.07963e-21)
(1.33644 0.00695322 0)
(1.3265 -0.00878332 2.8657e-20)
(1.3142 -0.0319526 0)
(1.29301 -0.0516005 0)
(-0.0560864 0.0305765 -5.05262e-22)
(-0.0301075 0.0345752 -8.01557e-20)
(0.1409 0.0262198 6.66194e-22)
(0.450646 0.0326604 0)
(0.796105 0.0537016 -4.99568e-20)
(1.07633 0.0758291 4.20969e-20)
(1.25184 0.0888506 3.52426e-20)
(1.33153 0.0894972 0)
(1.34927 0.0799918 -5.12597e-20)
(1.34256 0.0661765 4.34379e-20)
(1.33212 0.0493357 3.6688e-20)
(1.32384 0.0359223 0)
(1.30622 0.0162692 0)
(1.28201 0.00707417 -7.74296e-20)
(1.25762 -0.0151254 6.89655e-20)
(-0.0477632 0.0223958 -9.40945e-20)
(0.0470696 0.0161789 7.90196e-20)
(0.344754 0.0250322 -6.81684e-20)
(0.73529 0.0605181 6.04212e-20)
(1.0545 0.096663 1.006e-19)
(1.24466 0.117469 -8.40937e-20)
(1.32633 0.121405 -3.52235e-20)
(1.34653 0.114176 2.75868e-20)
(1.34374 0.102672 -2.6338e-20)
(1.33351 0.0886942 0)
(1.31869 0.0758101 0)
(1.2973 0.0588874 -5.25295e-20)
(1.27762 0.0470041 6.84352e-20)
(1.26153 0.0306755 -3.85559e-20)
(1.24702 0.0143066 0)
(-0.0260432 0.01118 4.7734e-20)
(0.177558 0.00343292 4.00584e-20)
(0.597105 0.0505981 -1.44609e-19)
(0.982364 0.108814 2.21993e-21)
(1.21611 0.144081 -1.40164e-21)
(1.31895 0.154958 -1.53977e-21)
(1.34795 0.150995 3.3874e-20)
(1.34547 0.140821 2.85396e-20)
(1.33042 0.127727 2.07416e-20)
(1.31102 0.114276 -3.07823e-21)
(1.29165 0.0989086 -4.72566e-20)
(1.27663 0.0859767 0)
(1.26182 0.0716579 2.16112e-20)
(1.24405 0.0579506 -1.61616e-20)
(1.22452 0.048183 2.88736e-20)
(0.0160043 -9.39094e-05 -1.04295e-19)
(0.36286 0.0150696 1.12467e-19)
(0.835394 0.101744 -3.87828e-20)
(1.1529 0.164292 2.89261e-20)
(1.30147 0.189298 -5.35571e-20)
(1.34759 0.19091 -3.96849e-20)
(1.34699 0.181849 1.24254e-21)
(1.32989 0.168577 0)
(1.31036 0.15431 4.19967e-20)
(1.29283 0.139201 -3.73468e-20)
(1.27684 0.125504 1.4973e-20)
(1.25883 0.110776 0)
(1.24027 0.0975619 9.14075e-21)
(1.22402 0.083769 -1.62451e-20)
(1.21015 0.0726101 0)
(0.0838402 -0.0037474 -1.30834e-20)
(0.569655 0.0614216 1.2999e-21)
(1.02012 0.167133 1.87759e-20)
(1.25676 0.221605 3.18074e-20)
(1.33955 0.234621 -2.42819e-20)
(1.3483 0.227767 4.07599e-20)
(1.33193 0.213825 -9.23223e-21)
(1.31125 0.198254 0)
(1.29103 0.18218 -2.46721e-20)
(1.27124 0.166607 1.6739e-21)
(1.25205 0.150659 2.04822e-20)
(1.23565 0.136015 0)
(1.22135 0.121784 -1.328e-20)
(1.20681 0.107929 0)
(1.19144 0.0999075 8.10872e-21)
(0.175329 0.00803827 -1.45476e-20)
(0.753957 0.133438 0)
(1.14806 0.240152 2.00945e-20)
(1.3103 0.280198 0)
(1.34553 0.280323 0)
(1.33357 0.265803 0)
(1.31046 0.247768 -7.86931e-21)
(1.28681 0.229185 0)
(1.2653 0.210885 4.97716e-21)
(1.24673 0.192845 0)
(1.2306 0.176204 -6.38514e-21)
(1.21474 0.159997 0)
(1.19916 0.1448 4.13444e-21)
(1.18543 0.130975 0)
(1.17369 0.120421 2.67894e-21)
(-0.00645632 0.0726306 -1.16259e-20)
(-0.0270811 0.191905 0)
(-0.0628015 0.262407 1.80828e-20)
(-0.101435 0.306082 0)
(-0.13688 0.346346 0)
(-0.165857 0.389189 0)
(-0.185364 0.430522 -1.17252e-20)
(-0.192276 0.464521 0)
(-0.183658 0.485333 1.00434e-20)
(-0.15754 0.487249 0)
(-0.11289 0.466131 -1.7781e-20)
(-0.049211 0.418958 0)
(0.0275529 0.342531 1.58557e-20)
(0.116678 0.235964 0)
(0.201999 0.110376 1.36736e-20)
(-0.00824139 0.075927 5.76029e-20)
(-0.0243865 0.20967 -4.04582e-20)
(-0.0452123 0.293789 1.71458e-20)
(-0.0673852 0.341576 6.26562e-20)
(-0.0847387 0.377204 3.9492e-22)
(-0.0926188 0.410225 -5.06666e-20)
(-0.0875429 0.438297 3.43948e-20)
(-0.0669389 0.455834 0)
(-0.029053 0.457661 3.08598e-20)
(0.0274095 0.439905 2.30844e-21)
(0.100813 0.398489 -1.66679e-20)
(0.18748 0.331299 0)
(0.292184 0.246614 -4.7123e-20)
(0.38238 0.127641 0)
(0.496951 0.0194441 -6.91635e-20)
(-0.00932859 0.0640311 9.02486e-20)
(-0.0230068 0.199736 1.94392e-20)
(-0.0291092 0.297439 -3.5141e-20)
(-0.0327291 0.352699 -9.21498e-20)
(-0.0295182 0.385048 5.39909e-20)
(-0.014771 0.407547 4.91464e-20)
(0.014921 0.421805 -8.63092e-20)
(0.0615665 0.424351 0)
(0.125384 0.410839 -7.82268e-20)
(0.204778 0.376303 6.9548e-20)
(0.303056 0.327145 3.28214e-20)
(0.393985 0.243568 0)
(0.52361 0.164709 3.12525e-20)
(0.597846 0.0401614 -5.495e-20)
(0.750145 -0.0472007 0)
(-0.00857857 0.0432063 4.37621e-20)
(-0.0235587 0.164694 -1.16399e-19)
(-0.021204 0.268603 1.34998e-19)
(-0.00941044 0.332471 -1.16948e-19)
(0.0128726 0.365513 -5.04739e-20)
(0.0483767 0.380247 4.45589e-20)
(0.0991727 0.382104 4.27494e-20)
(0.166294 0.370166 3.63502e-20)
(0.248711 0.346932 -1.06174e-19)
(0.341985 0.297941 -4.09288e-21)
(0.451696 0.251226 2.82292e-20)
(0.547813 0.159922 0)
(0.695082 0.0987547 5.3752e-20)
(0.778421 -0.0311073 1.61274e-19)
(0.97368 -0.117723 -9.44295e-20)
(-0.00694146 0.0226503 -5.20533e-22)
(-0.0264319 0.117379 7.49197e-20)
(-0.0251752 0.212686 -6.47625e-20)
(-0.00661186 0.277682 5.77814e-20)
(0.028223 0.311214 9.85142e-20)
(0.0789642 0.32142 -8.63911e-20)
(0.145077 0.315276 -3.70356e-20)
(0.225692 0.293862 -1.07218e-19)
(0.319367 0.26504 9.65963e-20)
(0.428293 0.21316 0)
(0.55077 0.168988 0)
(0.693999 0.0802601 1.11621e-19)
(0.857895 0.0201826 -2.57405e-19)
(1.00784 -0.104547 9.29415e-20)
(1.21583 -0.184524 0)
(-0.00764983 0.00988457 3.53621e-22)
(-0.0341742 0.0747963 -7.39853e-20)
(-0.0415277 0.146977 1.92564e-19)
(-0.0254168 0.199731 -5.56168e-20)
(0.0129992 0.226865 -4.80796e-20)
(0.0716556 0.232139 4.18674e-20)
(0.150443 0.221738 3.70619e-20)
(0.252201 0.199232 6.56127e-20)
(0.380841 0.166577 -1.16443e-19)
(0.539584 0.123015 5.43659e-20)
(0.71817 0.0707854 5.08626e-20)
(0.922479 0.000427203 0)
(1.10927 -0.0571243 0)
(1.28493 -0.157681 1.63607e-19)
(1.41249 -0.201293 -1.45188e-19)
(-0.0147867 0.00842995 -3.39499e-22)
(-0.0502901 0.048601 0)
(-0.0674534 0.0913696 0)
(-0.0547258 0.122775 1.05473e-19)
(-0.00910276 0.137336 -4.73785e-20)
(0.0735551 0.136234 3.93617e-20)
(0.19932 0.123153 6.94502e-20)
(0.368408 0.102582 -6.15753e-20)
(0.573224 0.0726156 5.82476e-20)
(0.794914 0.0422695 -5.4419e-20)
(1.01776 -0.00139251 -3.67931e-21)
(1.21091 -0.0399705 0)
(1.35929 -0.0888683 3.75673e-20)
(1.44394 -0.145459 0)
(1.43914 -0.167113 0)
(-0.0288873 0.0163801 -8.26225e-20)
(-0.0701161 0.0408174 0)
(-0.083494 0.0577039 -1.23744e-19)
(-0.0514609 0.0678789 2.14632e-19)
(0.0395398 0.0692476 -2.29585e-19)
(0.19587 0.0623439 -3.80477e-20)
(0.408754 0.0514843 6.96517e-20)
(0.653755 0.0397382 0)
(0.900331 0.0263732 0)
(1.12022 0.0124509 -1.01601e-19)
(1.28809 -0.0122938 -4.745e-20)
(1.39156 -0.0306531 8.07141e-20)
(1.42626 -0.0751741 -3.76439e-20)
(1.39655 -0.0948182 0)
(1.35067 -0.126882 -9.68754e-20)
(0.351365 -0.150254 0)
(0.51888 -0.544297 4.60323e-21)
(0.582838 -0.80172 -4.2332e-21)
(0.657818 -0.750169 0)
(0.623733 -0.71839 0)
(0.38991 -0.726128 -8.78924e-23)
(0.47578 -0.293309 0)
(0.638108 0.149315 0)
(0.819072 0.460241 6.24378e-23)
(0.882161 0.482595 0)
(0.85957 0.573545 0)
(0.76024 0.637801 -8.28908e-23)
(0.7491 0.339848 0)
(0.881196 0.148041 -7.92369e-23)
(0.974234 -0.222399 -8.77422e-23)
(0.97526 -0.427711 0)
(1.02389 -0.534166 -5.03827e-22)
(1.01479 -0.557535 5.97696e-22)
(1.01335 -0.11658 0)
(1.02368 0.138717 5.32808e-22)
(1.09427 0.509186 -6.19479e-22)
(1.10485 0.615469 1.24786e-22)
(1.06322 0.122065 -2.27753e-22)
(1.11672 -0.140582 2.17621e-22)
(1.10315 -0.504084 -1.98224e-22)
(1.12461 -0.570837 0)
(1.17701 0.323245 -2.42832e-22)
(1.1012 0.66383 2.3219e-22)
(1.08672 -0.0275926 -1.47357e-22)
(1.01751 -0.354528 0)
(1.01664 -0.0286645 -7.49626e-23)
(0.997543 0.121672 0)
(0.990476 0.016183 -4.10437e-23)
(0.97937 -0.0255741 -1.31746e-23)
(0.982027 0.000999587 1.18763e-24)
(0.976725 0.008138 -8.56229e-24)
(0.978547 0.00388827 0)
(0.973531 0.00260184 2.62474e-24)
(0.623783 -0.24647 2.56744e-20)
(0.800244 -0.593498 -1.66039e-22)
(0.81066 -0.826237 -1.22383e-20)
(0.7417 -0.787883 1.16728e-20)
(0.734829 -0.656432 0)
(0.487209 -0.658697 8.85717e-23)
(0.424563 -0.347531 -1.20583e-22)
(0.557557 0.03786 0)
(0.769391 0.380999 -6.29108e-23)
(0.851875 0.469763 0)
(0.777771 0.609066 0)
(0.69744 0.657446 8.34917e-23)
(0.709894 0.31208 0)
(0.89039 0.097532 2.86054e-21)
(1.00628 -0.235741 -2.38944e-21)
(0.995121 -0.441465 2.49868e-21)
(1.0589 -0.544481 -2.38507e-21)
(1.02068 -0.559853 -1.17358e-22)
(1.02012 -0.117135 0)
(1.00493 0.117815 0)
(1.06114 0.489446 -1.2957e-22)
(1.10091 0.614179 9.3016e-22)
(1.05212 0.12946 -1.61154e-21)
(1.12902 -0.146553 7.86111e-22)
(1.12171 -0.500734 5.70041e-22)
(1.09576 -0.57869 0)
(1.15504 0.322182 6.43694e-22)
(1.10448 0.661167 0)
(1.10532 -0.0155492 1.47873e-22)
(1.02549 -0.35125 -2.51428e-22)
(1.01302 -0.0281778 3.97627e-22)
(0.999214 0.122878 -4.37626e-23)
(0.995942 0.0175882 7.5943e-23)
(0.983857 -0.0250903 3.92382e-24)
(0.986567 0.00110746 1.53404e-23)
(0.981883 0.00834239 -7.42302e-24)
(0.983983 0.00399675 -6.94507e-25)
(0.980165 0.00285908 6.33642e-25)
(0.858674 -0.32076 4.66201e-20)
(1.0056 -0.62252 -8.06602e-20)
(1.01381 -0.770469 1.08061e-20)
(0.835676 -0.755266 2.28996e-20)
(0.789364 -0.597153 1.80687e-22)
(0.602276 -0.583918 -1.35118e-22)
(0.464159 -0.383111 1.22654e-22)
(0.542488 -0.0760757 -1.54695e-22)
(0.729888 0.296089 0)
(0.850158 0.465605 6.83475e-21)
(0.774118 0.642141 -6.51982e-21)
(0.694217 0.681147 -1.97665e-22)
(0.714384 0.293818 0)
(0.905864 0.0457283 -5.78102e-21)
(1.03762 -0.233681 5.33629e-21)
(1.02246 -0.43649 -2.52411e-21)
(1.08605 -0.543297 2.40842e-21)
(1.02124 -0.560895 2.56686e-21)
(1.02326 -0.121349 -2.19364e-21)
(0.986347 0.103834 0)
(1.02177 0.470649 0)
(1.09111 0.61401 1.48744e-21)
(1.04229 0.14275 -1.41985e-21)
(1.13348 -0.146921 -1.4886e-21)
(1.1325 -0.487729 -5.29418e-22)
(1.05593 -0.58604 1.83023e-21)
(1.12459 0.313315 3.82071e-23)
(1.10268 0.661726 -7.24732e-22)
(1.11768 0.00540724 1.25849e-21)
(1.02923 -0.342176 -1.10067e-21)
(1.00583 -0.0278938 5.9209e-23)
(0.997557 0.12331 -1.35439e-22)
(0.997891 0.0194874 5.15258e-23)
(0.985093 -0.024253 -4.92655e-23)
(0.987745 0.00115513 -9.88966e-24)
(0.983859 0.00849504 -5.35687e-24)
(0.986079 0.00403887 1.60409e-23)
(0.983698 0.00304392 2.5285e-24)
(1.09198 -0.36384 0)
(1.16166 -0.626462 3.2865e-20)
(1.12673 -0.70646 -3.23017e-20)
(0.92084 -0.693168 0)
(0.812768 -0.546012 -1.85712e-22)
(0.69853 -0.510313 1.38829e-22)
(0.561618 -0.399628 0)
(0.616662 -0.180781 2.49187e-23)
(0.750798 0.192047 -1.54258e-22)
(0.855761 0.431544 0)
(0.709577 0.662344 -7.0265e-21)
(0.644874 0.708165 6.90239e-21)
(0.734267 0.280632 -4.60493e-22)
(0.928031 -0.0015446 -6.08805e-21)
(1.06522 -0.237226 5.80451e-21)
(1.05123 -0.433763 3.30141e-22)
(1.1038 -0.541996 0)
(1.01617 -0.56261 -2.74392e-22)
(1.02611 -0.13475 5.18734e-21)
(0.97208 0.0820612 -5.15309e-23)
(0.976277 0.437286 -8.95033e-22)
(1.0655 0.605858 -3.25512e-21)
(1.02978 0.156053 -2.30437e-21)
(1.12939 -0.145478 2.76368e-21)
(1.13788 -0.471867 -3.45982e-22)
(1.01308 -0.589702 0)
(1.08551 0.287649 -6.97615e-22)
(1.08984 0.64917 7.34323e-22)
(1.12147 0.0228924 -1.16353e-21)
(1.0291 -0.331614 1.00751e-21)
(0.995588 -0.0297338 -1.83001e-22)
(0.992573 0.122102 0)
(0.996254 0.0212317 -4.90412e-23)
(0.98319 -0.0233514 9.02268e-23)
(0.985711 0.00104291 3.06687e-23)
(0.982775 0.00856091 2.97636e-23)
(0.984941 0.00399976 -1.60521e-23)
(0.984142 0.00314341 -6.54278e-26)
(1.30265 -0.377714 5.63102e-22)
(1.29495 -0.558633 1.06296e-21)
(1.17481 -0.60226 0)
(0.992935 -0.602616 0)
(0.841401 -0.507289 0)
(0.775566 -0.458232 0)
(0.662899 -0.411661 5.15223e-21)
(0.704258 -0.275978 -9.7274e-21)
(0.798817 0.0937193 4.86998e-21)
(0.854977 0.431187 0)
(0.709908 0.713098 -7.18765e-21)
(0.698356 0.734553 7.05974e-21)
(0.802142 0.278232 8.03068e-21)
(0.96911 -0.0402357 -6.76541e-21)
(1.08954 -0.236192 5.76677e-21)
(1.07493 -0.41748 -5.83473e-21)
(1.10995 -0.528244 -2.6594e-22)
(1.00261 -0.564491 -5.13169e-21)
(1.01874 -0.151743 4.89097e-21)
(0.951916 0.0718863 6.69816e-22)
(0.929775 0.415351 5.83791e-22)
(1.03951 0.60076 2.03126e-21)
(1.0201 0.172927 -2.32936e-21)
(1.12049 -0.137815 -6.0571e-22)
(1.13786 -0.448411 -2.69257e-22)
(0.969068 -0.594125 -6.34646e-22)
(1.03986 0.259642 0)
(1.07653 0.644343 0)
(1.11979 0.0470024 0)
(1.02618 -0.315886 0)
(0.983206 -0.0314568 4.8586e-22)
(0.985099 0.120529 -2.8632e-22)
(0.991546 0.0233018 9.33636e-23)
(0.978634 -0.022189 -2.70899e-22)
(0.980884 0.000882757 3.05146e-23)
(0.978945 0.00858416 5.79527e-24)
(0.980857 0.00390314 -1.96328e-23)
(0.981669 0.00316012 -6.296e-24)
(1.40736 -0.345078 -5.9291e-22)
(1.34206 -0.456407 5.42891e-20)
(1.18987 -0.496561 -5.21945e-20)
(1.05402 -0.516301 -2.89172e-20)
(0.901749 -0.463017 2.75406e-20)
(0.830327 -0.418587 1.56601e-20)
(0.756618 -0.406355 -1.45851e-20)
(0.729986 -0.353772 1.66554e-22)
(0.831457 -0.0127647 -1.66338e-22)
(0.881965 0.348173 0)
(0.719459 0.663495 -2.31458e-22)
(0.664617 0.754776 1.62701e-20)
(0.815922 0.311051 -1.54816e-20)
(1.00256 -0.0449208 -4.49653e-22)
(1.11226 -0.225496 0)
(1.1004 -0.396597 -5.20226e-21)
(1.11486 -0.508793 9.60123e-21)
(0.990358 -0.56456 -4.1569e-21)
(1.00489 -0.178423 0)
(0.932828 0.0488687 4.6543e-21)
(0.884749 0.372946 -1.83372e-21)
(0.993939 0.584181 -3.67389e-21)
(1.00256 0.189922 -2.13338e-21)
(1.10968 -0.126436 2.11132e-21)
(1.13085 -0.422788 -3.64881e-21)
(0.932085 -0.592797 -2.12749e-21)
(0.990363 0.216676 6.10731e-21)
(1.05077 0.623964 -1.8459e-21)
(1.10836 0.0664865 1.75492e-21)
(1.02102 -0.300469 -4.61888e-22)
(0.969221 -0.0351465 4.3923e-22)
(0.974999 0.117381 0)
(0.983922 0.0251885 8.91354e-23)
(0.971869 -0.0209981 -1.02092e-23)
(0.973756 0.000584777 0)
(0.972788 0.00852865 -2.95106e-23)
(0.97426 0.00373888 1.28543e-23)
(0.976588 0.00308931 -2.43654e-24)
(1.37656 -0.267536 0)
(1.30792 -0.350485 0)
(1.19162 -0.399894 -1.68699e-22)
(1.08399 -0.447254 0)
(0.971603 -0.41983 0)
(0.874358 -0.379461 1.60243e-20)
(0.824027 -0.377951 -1.52462e-20)
(0.727858 -0.409099 1.27432e-20)
(0.779762 -0.136917 -1.21066e-20)
(0.85912 0.32719 0)
(0.68024 0.705674 -2.18567e-22)
(0.712994 0.766559 2.20926e-22)
(0.883993 0.304981 -1.69897e-20)
(1.05002 -0.0655918 1.41294e-21)
(1.13304 -0.223976 1.37808e-20)
(1.11825 -0.3776 1.78006e-22)
(1.11527 -0.478383 -1.20518e-22)
(0.981145 -0.56411 1.03849e-20)
(0.983189 -0.206803 -1.01672e-20)
(0.905571 0.0409239 0)
(0.841797 0.353804 0)
(0.963175 0.578274 -1.6314e-22)
(0.990278 0.203125 0)
(1.10399 -0.111895 1.97778e-21)
(1.11779 -0.38865 1.87409e-21)
(0.902426 -0.59331 -3.28685e-21)
(0.942381 0.177355 -5.76687e-21)
(1.03127 0.616887 3.77506e-21)
(1.09521 0.0900743 -6.86393e-23)
(1.0155 -0.28119 0)
(0.955468 -0.0377516 -3.01405e-22)
(0.963892 0.114702 2.85782e-22)
(0.974433 0.0271711 4.60966e-23)
(0.963665 -0.0197466 2.7955e-23)
(0.964993 0.000339738 -3.90912e-23)
(0.964864 0.00849326 9.99691e-24)
(0.965708 0.00356657 0)
(0.969332 0.00295095 4.88509e-24)
(1.31139 -0.197656 5.94248e-20)
(1.27647 -0.27277 4.98988e-20)
(1.20907 -0.321698 -6.11395e-21)
(1.11188 -0.387802 -7.06672e-20)
(1.02136 -0.391712 2.99735e-20)
(0.923052 -0.358958 -1.52742e-22)
(0.85915 -0.34771 0)
(0.76057 -0.398297 -9.27162e-23)
(0.678633 -0.267976 -1.12225e-22)
(0.76985 0.134462 0)
(0.709897 0.568191 -1.45231e-20)
(0.714376 0.769143 1.37604e-20)
(0.838474 0.403973 2.60644e-22)
(1.06423 -0.00603464 1.37176e-20)
(1.15296 -0.189138 -1.3029e-20)
(1.13889 -0.344878 1.70791e-22)
(1.12071 -0.445681 1.28187e-22)
(0.978464 -0.554546 0)
(0.95661 -0.240291 1.20904e-20)
(0.872909 0.0087321 -1.14468e-20)
(0.799145 0.297583 -4.10017e-21)
(0.908765 0.552473 2.13446e-21)
(0.960553 0.229277 1.81881e-21)
(1.10386 -0.089636 -1.66291e-21)
(1.10263 -0.350657 -1.67601e-21)
(0.882634 -0.586401 9.2783e-21)
(0.892613 0.12062 -4.5111e-21)
(0.995957 0.586182 1.87623e-21)
(1.07252 0.116322 -1.39693e-21)
(1.00886 -0.26113 0)
(0.942109 -0.0421901 0)
(0.950829 0.109979 0)
(0.963093 0.0291224 3.5878e-23)
(0.954516 -0.0184226 -4.24824e-23)
(0.955197 -0.00012328 4.18827e-23)
(0.955744 0.00831533 -2.81375e-23)
(0.955807 0.00331124 -1.07385e-23)
(0.9604 0.00272503 0)
(1.28897 -0.129914 0)
(1.26645 -0.201915 0)
(1.21312 -0.222573 0)
(1.14067 -0.266609 0)
(1.05695 -0.301431 0)
(0.985401 -0.271665 0)
(0.932832 -0.244589 0)
(0.825505 -0.327953 0)
(0.620239 -0.285714 0)
(0.603819 0.107302 0)
(0.601466 0.560213 0)
(0.669377 0.741848 0)
(0.939022 0.333638 0)
(1.14584 -0.0462161 0)
(1.1747 -0.171808 0)
(1.15142 -0.28916 0)
(1.13172 -0.40152 0)
(0.967788 -0.552195 0)
(0.924648 -0.273528 0)
(0.836222 0.0102055 0)
(0.767474 0.285812 0)
(0.863391 0.546648 0)
(0.949037 0.219486 0)
(1.11839 -0.0787459 0)
(1.09489 -0.329711 0)
(0.846069 -0.584178 0)
(0.852926 0.0782216 0)
(0.964258 0.57989 0)
(1.05556 0.13026 0)
(0.999492 -0.245239 0)
(0.92846 -0.0432496 0)
(0.936647 0.107926 0)
(0.949181 0.0309684 0)
(0.942737 -0.0167954 0)
(0.942327 -0.000246677 0)
(0.943592 0.00844816 0)
(0.942554 0.00316806 0)
(0.947957 0.00245738 0)
(1.22307 -0.111542 0)
(1.20579 -0.179389 0)
(1.15047 -0.206239 0)
(1.09615 -0.266802 0)
(1.01367 -0.271246 0)
(0.92997 -0.251024 0)
(0.880891 -0.272305 0)
(0.830844 -0.251739 0)
(0.668061 -0.135076 0)
(0.531157 0.167534 0)
(0.530565 0.516058 0)
(0.772513 0.599951 0)
(1.10181 0.184606 0)
(1.22299 -0.103902 0)
(1.18605 -0.186575 0)
(1.14099 -0.316038 0)
(1.08515 -0.388932 0)
(0.898547 -0.470884 0)
(0.861444 -0.19841 0)
(0.738375 0.0620314 0)
(0.689784 0.304826 0)
(0.814349 0.5127 0)
(0.957028 0.153058 0)
(1.12442 -0.116567 0)
(1.05874 -0.293516 0)
(0.768668 -0.518459 0)
(0.793343 0.093133 0)
(0.901458 0.55297 0)
(1.03282 0.105977 0)
(0.983863 -0.226819 0)
(0.906011 -0.0286345 0)
(0.913972 0.105979 0)
(0.930485 0.028787 0)
(0.92736 -0.0163608 0)
(0.925006 -0.000405983 0)
(0.927155 0.00833615 0)
(0.924918 0.00274587 0)
(0.930932 0.00193508 0)
(1.17714 -0.0841469 0)
(1.16876 -0.137987 0)
(1.13009 -0.152711 0)
(1.09215 -0.176992 0)
(1.0188 -0.189568 0)
(0.973717 -0.160707 0)
(0.920512 -0.162286 0)
(0.82659 -0.168475 0)
(0.726242 -0.0559773 0)
(0.649712 0.194712 0)
(0.70175 0.375131 0)
(0.986484 0.393097 0)
(1.23157 0.0936636 0)
(1.23833 -0.107811 0)
(1.17979 -0.150889 0)
(1.14221 -0.234904 0)
(1.07505 -0.301835 0)
(0.867347 -0.42458 0)
(0.770644 -0.177495 0)
(0.616131 0.0914414 0)
(0.593527 0.273544 0)
(0.777305 0.431986 0)
(0.981009 0.10397 0)
(1.12069 -0.107131 0)
(1.05099 -0.240807 0)
(0.717397 -0.47643 0)
(0.696805 0.0662953 0)
(0.830102 0.500973 0)
(1.02937 0.0949568 0)
(0.970511 -0.204905 0)
(0.882872 -0.0232099 0)
(0.894252 0.0991299 0)
(0.914476 0.0277182 0)
(0.912066 -0.0150531 0)
(0.906826 -0.000421972 0)
(0.909855 0.00828298 0)
(0.906607 0.00253649 0)
(0.912588 0.00141881 0)
(1.13839 -0.0639306 0)
(1.13478 -0.104403 0)
(1.09782 -0.116098 0)
(1.07005 -0.146943 0)
(1.01032 -0.150652 0)
(0.969096 -0.137918 0)
(0.934657 -0.133867 0)
(0.878553 -0.108216 0)
(0.800989 -0.0137062 0)
(0.797255 0.170244 0)
(0.909391 0.254628 0)
(1.09711 0.237613 0)
(1.23108 0.0307875 0)
(1.20684 -0.0662035 0)
(1.15837 -0.12392 0)
(1.08375 -0.246859 0)
(1.0085 -0.260328 0)
(0.840952 -0.313627 0)
(0.663273 -0.078074 0)
(0.546591 0.1407 0)
(0.563989 0.232503 0)
(0.779735 0.329659 0)
(1.01276 0.0190177 0)
(1.09384 -0.128125 0)
(1.0366 -0.173357 0)
(0.692973 -0.377874 0)
(0.58779 0.0615739 0)
(0.788691 0.431952 0)
(1.04329 0.0595858 0)
(0.955826 -0.176468 0)
(0.848573 -0.00819088 0)
(0.870838 0.0932613 0)
(0.901313 0.0246463 0)
(0.898478 -0.0139789 0)
(0.889287 -0.000101752 0)
(0.893359 0.00824614 0)
(0.890418 0.00231029 0)
(0.895939 0.000817105 0)
(1.10514 -0.047367 0)
(1.10414 -0.0786513 0)
(1.07798 -0.086614 0)
(1.06024 -0.103844 0)
(1.0123 -0.105505 0)
(0.990517 -0.0896081 0)
(0.952846 -0.0813282 0)
(0.923613 -0.0563514 0)
(0.874635 0.00943705 0)
(0.892616 0.112635 0)
(0.996715 0.144997 0)
(1.09973 0.16102 0)
(1.18141 0.0190912 0)
(1.13895 -0.0642473 0)
(1.13783 -0.0854074 0)
(1.07796 -0.161565 0)
(0.99978 -0.171971 0)
(0.882797 -0.227761 0)
(0.66706 -0.012838 0)
(0.642899 0.149805 0)
(0.678186 0.158699 0)
(0.861335 0.211005 0)
(1.05802 -0.0283444 0)
(1.05929 -0.113721 0)
(1.04919 -0.109296 0)
(0.740798 -0.290459 0)
(0.526169 0.0427765 0)
(0.797072 0.33668 0)
(1.06836 0.037049 0)
(0.946622 -0.136717 0)
(0.817818 0.0052229 0)
(0.861214 0.0821532 0)
(0.903963 0.0205353 0)
(0.89603 -0.0115475 0)
(0.881469 0.000799249 0)
(0.886021 0.00790819 0)
(0.884837 0.0020474 0)
(0.888263 0.000279852 0)
(1.08202 -0.0338963 0)
(1.08368 -0.05534 0)
(1.06142 -0.0597927 0)
(1.05234 -0.0732433 0)
(1.01372 -0.0724542 0)
(1.00135 -0.0634231 0)
(0.971384 -0.0553737 0)
(0.957246 -0.0329817 0)
(0.932868 0.00874442 0)
(0.954762 0.0652228 0)
(1.01346 0.0851366 0)
(1.06729 0.0938485 0)
(1.13917 0.00194094 0)
(1.09188 -0.0261521 0)
(1.09625 -0.0689527 0)
(1.0398 -0.15863 0)
(0.976331 -0.135097 0)
(0.919508 -0.132912 0)
(0.743439 0.044078 0)
(0.811956 0.140196 0)
(0.860846 0.118777 0)
(0.975632 0.134787 0)
(1.10421 -0.064496 0)
(1.01225 -0.119421 0)
(1.03484 -0.0573046 0)
(0.837849 -0.160762 0)
(0.559126 0.0417571 0)
(0.836224 0.213348 0)
(1.0823 0.00504756 0)
(0.943954 -0.088441 0)
(0.816755 0.0217879 0)
(0.880083 0.0649149 0)
(0.926996 0.0144563 0)
(0.911729 -0.00761494 0)
(0.894336 0.00259216 0)
(0.898159 0.00728483 0)
(0.899324 0.00180571 0)
(0.898482 4.57927e-05 0)
(1.06463 -0.0228813 0)
(1.0663 -0.0366957 0)
(1.05045 -0.0408886 0)
(1.04548 -0.0489265 0)
(1.01723 -0.0480326 0)
(1.01166 -0.0426614 0)
(0.989079 -0.0330166 0)
(0.984026 -0.0193841 0)
(0.972542 0.00816348 0)
(0.985098 0.0366493 0)
(1.01997 0.0441319 0)
(1.04926 0.0562962 0)
(1.09264 -0.00339109 0)
(1.05765 -0.0270562 0)
(1.08453 -0.0477669 0)
(1.0335 -0.0948114 0)
(0.963461 -0.0791662 0)
(0.94189 -0.078229 0)
(0.837326 0.0494191 0)
(0.937102 0.0996859 0)
(0.980285 0.0712542 0)
(1.03738 0.0756696 0)
(1.12789 -0.0473744 0)
(0.993137 -0.0786615 0)
(1.00231 -0.0330994 0)
(0.945245 -0.0747631 0)
(0.71839 0.0460316 0)
(0.908007 0.11393 0)
(1.08613 -0.00688823 0)
(0.962081 -0.0390273 0)
(0.865575 0.0296737 0)
(0.928548 0.0438251 0)
(0.966881 0.00983027 0)
(0.947045 -0.0019692 0)
(0.931641 0.00477713 0)
(0.932851 0.00651506 0)
(0.935408 0.00196782 0)
(0.92963 0.000533786 0)
(1.05182 -0.014574 0)
(1.0533 -0.0227409 0)
(1.04362 -0.0258774 0)
(1.0397 -0.0313527 0)
(1.02197 -0.0296726 0)
(1.01769 -0.0280193 0)
(1.00308 -0.0194825 0)
(1.00146 -0.0130382 0)
(0.99494 0.00452983 0)
(1.00467 0.0168536 0)
(1.02129 0.023121 0)
(1.0366 0.0269192 0)
(1.06736 -0.00746418 0)
(1.03977 -0.0143484 0)
(1.05402 -0.0394618 0)
(1.02024 -0.0695049 0)
(0.975868 -0.0554323 0)
(0.964918 -0.0451377 0)
(0.911532 0.0365074 0)
(0.991506 0.0575309 0)
(1.01752 0.0549867 0)
(1.04254 0.0466067 0)
(1.09362 -0.0427788 0)
(0.993759 -0.0526319 0)
(0.991929 -0.0314694 0)
(0.984692 -0.0238324 0)
(0.87339 0.0614508 0)
(0.98027 0.0522709 0)
(1.06607 -0.018883 0)
(0.976304 2.34178e-05 0)
(0.93242 0.0374289 0)
(0.980611 0.0280603 0)
(1.00192 0.00710037 0)
(0.983015 0.00352476 0)
(0.974411 0.00717517 0)
(0.973803 0.00620772 0)
(0.976225 0.00264268 0)
(0.968541 0.00166893 0)
(1.04324 -0.00819958 0)
(1.04346 -0.0125263 0)
(1.03899 -0.0154834 0)
(1.03498 -0.0188779 0)
(1.02511 -0.0177233 0)
(1.02123 -0.0181114 0)
(1.01288 -0.011293 0)
(1.01207 -0.0096328 0)
(1.00857 0.00202238 0)
(1.01437 0.00601404 0)
(1.0218 0.00997527 0)
(1.03106 0.0114854 0)
(1.04463 -0.00807332 0)
(1.03038 -0.0130295 0)
(1.03992 -0.0283334 0)
(1.01596 -0.0398169 0)
(0.989101 -0.0313715 0)
(0.979509 -0.0246625 0)
(0.957541 0.0240826 0)
(1.00233 0.0329486 0)
(1.01645 0.0358565 0)
(1.04163 0.0276404 0)
(1.06314 -0.0246295 0)
(1.001 -0.0219623 0)
(0.995068 -0.0217516 0)
(0.985673 -0.00977298 0)
(0.959355 0.0483473 0)
(1.02198 0.0245461 0)
(1.0363 -0.00738489 0)
(0.984085 0.0205718 0)
(0.986643 0.0312545 0)
(1.01657 0.0167508 0)
(1.02173 0.00807756 0)
(1.00791 0.00760972 0)
(1.00634 0.00807589 0)
(1.00543 0.005972 0)
(1.00663 0.00347654 0)
(1.00009 0.00289518 0)
(1.03684 -0.00345094 0)
(1.03636 -0.00570807 0)
(1.03518 -0.00825585 0)
(1.03122 -0.0105402 0)
(1.02682 -0.00988418 0)
(1.02278 -0.0111643 0)
(1.0189 -0.00645879 0)
(1.01758 -0.00720753 0)
(1.01582 0.000277428 0)
(1.01905 5.68289e-05 0)
(1.0216 0.00344486 0)
(1.02665 0.00234265 0)
(1.03261 -0.00742766 0)
(1.02562 -0.00907999 0)
(1.02745 -0.0198454 0)
(1.01307 -0.0251921 0)
(0.998886 -0.0204276 0)
(0.991166 -0.0144445 0)
(0.982891 0.0135457 0)
(1.00716 0.0174304 0)
(1.01362 0.0245774 0)
(1.03233 0.0171035 0)
(1.03856 -0.0170745 0)
(1.00654 -0.0113835 0)
(1.00573 -0.0168 0)
(0.990606 -0.00161604 0)
(0.992586 0.038258 0)
(1.02613 0.0119369 0)
(1.01666 -0.00163163 0)
(0.998143 0.0246163 0)
(1.01512 0.0247336 0)
(1.02741 0.0129569 0)
(1.02688 0.00974506 0)
(1.02062 0.00902843 0)
(1.02229 0.00794179 0)
(1.02151 0.00602264 0)
(1.0217 0.00422716 0)
(1.0175 0.00377729 0)
(1.03184 -0.000130092 0)
(1.03121 -0.00125968 0)
(1.03176 -0.00349916 0)
(1.02831 -0.00491716 0)
(1.0269 -0.00500913 0)
(1.023 -0.00630972 0)
(1.02187 -0.00366145 0)
(1.01983 -0.00507221 0)
(1.01955 -0.000686298 0)
(1.02034 -0.00217156 0)
(1.02112 9.18377e-05 0)
(1.02383 -0.00159953 0)
(1.02484 -0.00581832 0)
(1.02206 -0.00791347 0)
(1.02081 -0.0129937 0)
(1.01349 -0.014785 0)
(1.00538 -0.0119268 0)
(1.00011 -0.007287 0)
(0.996961 0.00763496 0)
(1.00906 0.0102308 0)
(1.01208 0.0143478 0)
(1.02616 0.0106245 0)
(1.02654 -0.00803503 0)
(1.01014 -0.00304569 0)
(1.00979 -0.00766129 0)
(0.994694 0.00154393 0)
(1.00568 0.0252887 0)
(1.02443 0.00877967 0)
(1.00999 0.00622041 0)
(1.00696 0.0228213 0)
(1.02233 0.0187953 0)
(1.02688 0.011879 0)
(1.02702 0.0109283 0)
(1.02523 0.00935365 0)
(1.0269 0.0076349 0)
(1.02659 0.00623441 0)
(1.02643 0.00489298 0)
(1.02414 0.00443401 0)
(1.02779 0.00206049 0)
(1.02741 0.00136395 0)
(1.02845 -0.000410835 0)
(1.0258 -0.00142007 0)
(1.02576 -0.00192135 0)
(1.02242 -0.00300758 0)
(1.02265 -0.00184302 0)
(1.02031 -0.00316102 0)
(1.02079 -0.000914407 0)
(1.02017 -0.00251284 0)
(1.02049 -0.00104727 0)
(1.0213 -0.0027924 0)
(1.0208 -0.00438008 0)
(1.01998 -0.00577589 0)
(1.01726 -0.00800182 0)
(1.01417 -0.00855919 0)
(1.00872 -0.00704789 0)
(1.00618 -0.00386317 0)
(1.00438 0.0038629 0)
(1.01099 0.00564716 0)
(1.01218 0.00858464 0)
(1.02003 0.00664772 0)
(1.01959 -0.00382738 0)
(1.01117 -0.000686881 0)
(1.01209 -0.00341233 0)
(1.00196 0.00348665 0)
(1.01026 0.0178175 0)
(1.01959 0.00735883 0)
(1.00978 0.00711895 0)
(1.01291 0.0179388 0)
(1.02264 0.015294 0)
(1.02429 0.0113646 0)
(1.02607 0.0103338 0)
(1.02636 0.00859971 0)
(1.02736 0.00701276 0)
(1.02734 0.00606443 0)
(1.02722 0.00502381 0)
(1.02603 0.00459328 0)
(1.02439 0.00339096 0)
(1.02432 0.00280873 0)
(1.02532 0.00149824 0)
(1.02357 0.000693274 0)
(1.02388 7.5618e-05 0)
(1.02139 -0.000820097 0)
(1.02194 -0.000502375 0)
(1.0199 -0.00158062 0)
(1.02055 -0.000614905 0)
(1.0194 -0.00186649 0)
(1.01955 -0.00116684 0)
(1.01947 -0.00244333 0)
(1.01859 -0.00297894 0)
(1.01825 -0.00390388 0)
(1.01569 -0.00486726 0)
(1.01455 -0.00475069 0)
(1.01095 -0.0039655 0)
(1.01011 -0.00174838 0)
(1.00847 0.00219573 0)
(1.0121 0.0034426 0)
(1.01239 0.00506617 0)
(1.0167 0.00438363 0)
(1.01664 -0.000432073 0)
(1.01205 0.00156719 0)
(1.01282 0.000541114 0)
(1.00648 0.00463111 0)
(1.01223 0.0121052 0)
(1.01782 0.00766247 0)
(1.0118 0.00866535 0)
(1.01509 0.0147951 0)
(1.02101 0.0130134 0)
(1.02266 0.0109383 0)
(1.02503 0.0100754 0)
(1.02592 0.00846642 0)
(1.02659 0.00691329 0)
(1.02684 0.00618149 0)
(1.02681 0.00539079 0)
(1.02626 0.00492883 0)
(1.02146 0.0040901 0)
(1.02166 0.00350224 0)
(1.02243 0.00264082 0)
(1.02142 0.00187773 0)
(1.02169 0.00136674 0)
(1.02004 0.000556706 0)
(1.02048 0.000533274 0)
(1.019 -0.000333681 0)
(1.01949 -4.62779e-05 0)
(1.01839 -0.000919139 0)
(1.01844 -0.000766785 0)
(1.01798 -0.00145624 0)
(1.01726 -0.00192177 0)
(1.01695 -0.00213458 0)
(1.01506 -0.00284467 0)
(1.01465 -0.00225542 0)
(1.01224 -0.00202562 0)
(1.01216 -0.000617081 0)
(1.01069 0.00145887 0)
(1.01283 0.00211103 0)
(1.01268 0.00342708 0)
(1.01469 0.00300544 0)
(1.01483 0.00110316 0)
(1.01243 0.0022029 0)
(1.01326 0.00192267 0)
(1.01006 0.00494007 0)
(1.01318 0.00890895 0)
(1.01612 0.00729006 0)
(1.0133 0.00783069 0)
(1.01638 0.0113876 0)
(1.01983 0.0110299 0)
(1.02143 0.0098391 0)
(1.0237 0.00901591 0)
(1.02501 0.00775314 0)
(1.02564 0.00633311 0)
(1.02609 0.00578313 0)
(1.0261 0.00521307 0)
(1.02602 0.00481989 0)
(1.019 0.00434714 0)
(1.01931 0.00373453 0)
(1.01984 0.00325094 0)
(1.01935 0.00249177 0)
(1.01951 0.0021814 0)
(1.01854 0.00141246 0)
(1.01877 0.00132106 0)
(1.01784 0.000607544 0)
(1.0181 0.000576861 0)
(1.01729 3.95502e-05 0)
(1.01724 -0.000185115 0)
(1.01678 -0.000364996 0)
(1.01626 -0.00101113 0)
(1.01595 -0.00067638 0)
(1.01471 -0.00148859 0)
(1.0145 -0.000633159 0)
(1.01298 -0.000831942 0)