/*--------------------------------*- C++ -*----------------------------------*\
| =========                 |                                                 |
| \\      /  F ield         | OpenFOAM: The Open Source CFD Toolbox           |
|  \\    /   O peration     | Version:  2312                                  |
|   \\  /    A nd           | Website:  www.openfoam.com                      |
|    \\/     M anipulation  |                                                 |
\*---------------------------------------------------------------------------*/
FoamFile
{
    version     2.0;
    format      ascii;
    arch        "LSB;label=32;scalar=64";
    class       volVectorField;
    location    "34";
    object      U;
}
// * * * * * * * * * * * * * * * * * * * * * * * * * * * * * * * * * * * * * //

dimensions      [0 1 -1 0 0 0 0];

internalField   nonuniform List<vector> 
5478
(
(-0.0289577 0.0170075 -5.36198e-20)
(-0.0610311 0.0325547 0)
(-0.0656744 0.0380323 8.03417e-20)
(-0.0321688 0.0417592 -1.39655e-19)
(0.0481034 0.0468385 8.95227e-20)
(0.177391 0.0556038 -2.74176e-20)
(0.346287 0.0701619 -4.48914e-20)
(0.536189 0.0899106 0)
(0.728628 0.113031 0)
(0.902026 0.135052 6.14825e-20)
(1.05211 0.151159 -2.61694e-20)
(1.16085 0.165085 -4.95674e-20)
(1.23315 0.155198 -2.17568e-20)
(1.2724 0.16081 0)
(1.26857 0.114167 7.23685e-20)
(-0.0388245 0.0219068 1.076e-19)
(-0.0622551 0.0345694 0)
(-0.0351376 0.0352773 0)
(0.0537059 0.0373211 -7.02025e-20)
(0.208765 0.0474996 9.21416e-20)
(0.412841 0.0682591 2.59131e-20)
(0.632908 0.0969735 -4.46312e-20)
(0.838238 0.128147 3.95697e-20)
(1.00571 0.155927 1.01798e-19)
(1.12787 0.174523 -8.99007e-20)
(1.20027 0.184527 1.15644e-21)
(1.23136 0.179093 0)
(1.2361 0.170303 2.17178e-20)
(1.22013 0.151181 0)
(1.211 0.131857 0)
(-0.0439744 0.0222802 -3.03026e-22)
(-0.0458906 0.0313998 -5.06764e-20)
(0.0344768 0.0330194 3.50389e-22)
(0.204318 0.0442262 0)
(0.440802 0.0717663 -3.16878e-20)
(0.690607 0.109853 2.69913e-20)
(0.906799 0.148333 2.29318e-20)
(1.06392 0.178762 0)
(1.15899 0.196116 -3.38749e-20)
(1.20077 0.201403 2.95163e-20)
(1.20839 0.19436 2.58308e-20)
(1.203 0.185205 0)
(1.19548 0.168984 0)
(1.19818 0.161237 -6.57261e-20)
(1.2058 0.142083 5.8496e-20)
(-0.0420003 0.0181741 -5.94896e-20)
(-0.00409742 0.0223277 4.99427e-20)
(0.155841 0.0336065 -4.30271e-20)
(0.417377 0.0684006 3.82553e-20)
(0.701228 0.118523 6.41032e-20)
(0.934689 0.166201 -5.42744e-20)
(1.08799 0.199791 -2.29136e-20)
(1.1667 0.215839 1.87151e-20)
(1.19341 0.218219 -1.75245e-20)
(1.19567 0.211143 0)
(1.19364 0.203357 0)
(1.19325 0.191666 -4.01605e-20)
(1.19595 0.183756 5.34775e-20)
(1.19449 0.170814 -3.07939e-20)
(1.18603 0.156478 0)
(-0.0302607 0.0114301 3.01891e-20)
(0.0736442 0.0135378 2.52132e-20)
(0.335382 0.0505671 -9.14254e-20)
(0.658301 0.115948 1.38797e-21)
(0.923629 0.177842 -4.77124e-22)
(1.088 0.218367 -9.47715e-22)
(1.16528 0.236006 2.26449e-20)
(1.18991 0.238165 1.92034e-20)
(1.19334 0.232318 1.47459e-20)
(1.1919 0.224973 -1.51352e-21)
(1.1884 0.215091 -3.39654e-20)
(1.18333 0.205433 0)
(1.17503 0.193898 1.68402e-20)
(1.16722 0.180817 -1.37918e-20)
(1.16458 0.170479 2.39013e-20)
(-0.00517417 0.00447938 -6.61885e-20)
(0.195515 0.0169193 7.13978e-20)
(0.54948 0.094173 -2.48411e-20)
(0.868737 0.178365 1.86872e-20)
(1.067 0.233318 -3.46694e-20)
(1.15908 0.257414 -2.64597e-20)
(1.18932 0.261957 7.68934e-22)
(1.19342 0.257224 0)
(1.18846 0.24929 2.94007e-20)
(1.18009 0.238909 -2.61452e-20)
(1.17177 0.228479 1.08601e-20)
(1.16487 0.216809 0)
(1.16108 0.206253 6.96977e-21)
(1.15923 0.19399 -1.30546e-20)
(1.15404 0.185146 0)
(0.0383646 0.000623204 -8.2687e-21)
(0.356698 0.0454198 9.17906e-22)
(0.749902 0.15839 1.17961e-20)
(1.01549 0.241336 2.063e-20)
(1.14329 0.279986 -1.61647e-20)
(1.1867 0.289921 2.72682e-20)
(1.19198 0.286164 -6.17163e-21)
(1.18395 0.277123 0)
(1.17345 0.265734 -1.72095e-20)
(1.16482 0.254352 9.70371e-22)
(1.15806 0.242487 1.4591e-20)
(1.15229 0.23112 0)
(1.14561 0.219345 -1.00649e-20)
(1.13791 0.206566 0)
(1.13221 0.19871 6.77602e-21)
(0.10276 0.00636235 -9.44118e-21)
(0.529328 0.103524 0)
(0.904821 0.23134 1.30983e-20)
(1.10384 0.300448 0)
(1.17657 0.322173 0)
(1.18865 0.320441 0)
(1.18 0.310097 -5.3322e-21)
(1.16797 0.2972 0)
(1.15732 0.284008 3.44335e-21)
(1.14773 0.270522 0)
(1.13909 0.257407 -4.56023e-21)
(1.13159 0.244166 0)
(1.12623 0.231361 3.09128e-21)
(1.12333 0.219156 0)
(1.11925 0.210376 2.13276e-21)
(-0.00395545 0.00869184 -7.69548e-21)
(-0.0185618 0.0565082 0)
(-0.0417375 0.100705 1.20333e-20)
(-0.0669803 0.134827 0)
(-0.09184 0.16467 0)
(-0.115225 0.195846 0)
(-0.136564 0.230166 -7.43386e-21)
(-0.155316 0.267165 0)
(-0.170751 0.305644 6.01244e-21)
(-0.181975 0.344004 0)
(-0.188098 0.380333 -1.00418e-20)
(-0.188012 0.412517 0)
(-0.180181 0.438036 8.75813e-21)
(-0.162907 0.453944 0)
(-0.136869 0.458666 7.97705e-21)
(-0.00436958 0.0166839 3.79475e-20)
(-0.0195267 0.0735737 -2.66336e-20)
(-0.0399553 0.123806 1.11758e-20)
(-0.061324 0.160693 4.11148e-20)
(-0.0813425 0.190345 2.16255e-23)
(-0.098474 0.219354 -3.24856e-20)
(-0.111623 0.250266 2.18291e-20)
(-0.119812 0.282737 0)
(-0.122117 0.315573 1.76056e-20)
(-0.117556 0.34696 6.09848e-22)
(-0.104981 0.37507 -9.20686e-21)
(-0.0836059 0.397545 0)
(-0.0530055 0.412752 -2.56128e-20)
(-0.0121497 0.419727 0)
(0.0454054 0.412784 -4.12384e-20)
(-0.00496182 0.0193817 5.87825e-20)
(-0.0204413 0.0806147 1.28152e-20)
(-0.0367446 0.136099 -2.31547e-20)
(-0.0517917 0.176305 -6.01575e-20)
(-0.0638791 0.20572 3.51464e-20)
(-0.0714489 0.231385 3.09366e-20)
(-0.0731469 0.257037 -5.40912e-20)
(-0.0675378 0.283207 0)
(-0.0536826 0.30886 -4.45333e-20)
(-0.0305641 0.332196 3.95956e-20)
(0.00163659 0.351224 1.79212e-20)
(0.0445394 0.365553 0)
(0.100233 0.369769 1.68466e-20)
(0.154619 0.368427 -3.09599e-20)
(0.246715 0.352064 0)
(-0.00510327 0.0171493 2.82909e-20)
(-0.0211789 0.0767377 -7.59629e-20)
(-0.0338882 0.134736 8.8139e-20)
(-0.0420805 0.178059 -7.64818e-20)
(-0.0447306 0.207864 -3.2936e-20)
(-0.0407995 0.23029 2.87624e-20)
(-0.0291634 0.249968 2.66728e-20)
(-0.00859837 0.268667 2.23413e-20)
(0.0217101 0.285681 -6.17689e-20)
(0.0609742 0.300963 -1.07375e-21)
(0.115748 0.309767 1.61211e-20)
(0.166512 0.317933 0)
(0.254952 0.311906 2.98438e-20)
(0.304248 0.307583 9.33928e-20)
(0.430678 0.281395 -5.56204e-20)
(-0.00486008 0.0122405 -3.53222e-22)
(-0.0223913 0.0644021 4.86375e-20)
(-0.0338967 0.119538 -4.22757e-20)
(-0.0369351 0.163059 3.782e-20)
(-0.0308301 0.192778 6.45676e-20)
(-0.0153962 0.212616 -5.6154e-20)
(0.00956497 0.226876 -2.38526e-20)
(0.043812 0.23807 -6.56968e-20)
(0.090888 0.246732 5.84816e-20)
(0.137973 0.253965 0)
(0.220137 0.25482 0)
(0.262705 0.258572 6.25845e-20)
(0.396764 0.245065 -1.45682e-19)
(0.427109 0.242968 5.35863e-20)
(0.607917 0.209649 0)
(-0.00547978 0.0078141 1.3664e-22)
(-0.0260044 0.048949 -4.82525e-20)
(-0.0394149 0.0945799 1.25688e-19)
(-0.0406008 0.132205 -3.64294e-20)
(-0.0287727 0.158105 -3.16545e-20)
(-0.00460936 0.174067 2.74119e-20)
(0.0312407 0.183503 2.3867e-20)
(0.0776235 0.189015 4.05862e-20)
(0.140478 0.192675 -7.12215e-20)
(0.204295 0.194508 3.1907e-20)
(0.314408 0.193402 2.94059e-20)
(0.376716 0.192728 0)
(0.561298 0.181966 0)
(0.601477 0.176666 1.09398e-19)
(0.849789 0.151163 -9.72563e-20)
(-0.0092046 0.00688171 -3.42358e-22)
(-0.0348114 0.0365283 0)
(-0.0521364 0.0677003 0)
(-0.0535364 0.0935745 6.93172e-20)
(-0.0373701 0.111201 -3.13193e-20)
(-0.00332964 0.121552 2.55329e-20)
(0.0498852 0.127335 4.40234e-20)
(0.123772 0.131369 -3.90374e-20)
(0.221636 0.133976 3.52239e-20)
(0.337855 0.139003 -3.19427e-20)
(0.480134 0.139501 -9.50401e-22)
(0.615514 0.143756 0)
(0.801366 0.140646 2.5123e-20)
(0.902674 0.136302 0)
(1.12987 0.126207 0)
(-0.0176687 0.0106106 -5.32468e-20)
(-0.048824 0.0312462 0)
(-0.0664225 0.0474917 -8.00514e-20)
(-0.0610995 0.0601326 1.38971e-19)
(-0.0279044 0.0690885 -1.48743e-19)
(0.0377084 0.0755743 -2.40216e-20)
(0.13811 0.0818903 4.43418e-20)
(0.269959 0.0907245 0)
(0.427047 0.100172 0)
(0.596876 0.116158 -6.23055e-20)
(0.765352 0.123216 -3.05946e-20)
(0.933139 0.141427 5.12457e-20)
(1.06971 0.136608 -2.51636e-20)
(1.18901 0.143531 0)
(1.28949 0.126116 -8.73275e-20)
(-0.102863 0.45803 0)
(0.0096417 0.38879 5.16392e-21)
(0.12639 0.239432 -4.78482e-21)
(0.269953 0.0442886 0)
(0.354842 -0.177909 0)
(0.462823 -0.407441 -2.90666e-22)
(0.531599 -0.600466 0)
(0.576815 -0.675733 0)
(0.568328 -0.580121 6.61942e-23)
(0.567433 -0.458936 0)
(0.302633 -0.359958 0)
(0.183904 -0.220866 3.60142e-23)
(0.220602 -0.0851634 0)
(0.323174 0.0202919 2.25248e-23)
(0.396163 0.0499969 1.83524e-23)
(0.477742 0.0404349 0)
(0.55323 0.025084 1.38664e-22)
(0.613834 -0.00421978 -1.63763e-22)
(0.683945 -0.0061587 0)
(0.733616 -0.0108366 -8.97056e-23)
(0.783062 -0.00692443 1.01876e-22)
(0.834714 0.0153828 -1.83641e-23)
(0.862836 0.0101179 2.13179e-23)
(0.901827 0.0331803 -2.03697e-23)
(0.924006 0.0376786 1.45615e-23)
(0.938084 0.0310395 0)
(0.956728 0.0546657 7.28445e-24)
(0.96029 0.040622 -6.96508e-24)
(0.966273 0.0469428 4.67134e-24)
(0.973149 0.0494582 0)
(0.977518 0.0611308 6.11859e-24)
(0.977447 0.0217112 0)
(0.987133 0.0684503 3.77977e-24)
(0.989108 0.0530344 1.73082e-24)
(0.985808 0.0181876 -2.00616e-25)
(0.993775 0.0657692 1.36407e-24)
(0.994447 0.0569735 0)
(0.993745 0.0505561 -2.14928e-25)
(0.107668 0.399098 1.53535e-20)
(0.233877 0.313132 -1.48129e-22)
(0.35445 0.164719 -2.21078e-20)
(0.480238 -0.015505 2.10838e-20)
(0.56195 -0.222629 0)
(0.676701 -0.460227 2.92896e-22)
(0.767411 -0.631466 -4.25446e-22)
(0.782953 -0.676943 0)
(0.694565 -0.59593 -6.66833e-23)
(0.704233 -0.433222 0)
(0.591122 -0.279297 0)
(0.383237 -0.178155 -3.62684e-23)
(0.31595 -0.0947592 0)
(0.328265 -0.0084252 -7.5304e-22)
(0.397921 0.0223879 6.42163e-22)
(0.481008 0.0107312 -5.56742e-22)
(0.563132 4.69315e-05 5.31422e-22)
(0.636245 -0.0253495 3.15632e-23)
(0.694339 -0.0242989 0)
(0.735316 -0.0241367 0)
(0.77106 -0.0199357 1.97086e-23)
(0.809231 0.00460948 -1.32179e-22)
(0.832397 0.00155706 1.98899e-22)
(0.869668 0.0252904 -8.392e-23)
(0.894219 0.0327449 -4.44278e-23)
(0.911915 0.0272516 0)
(0.935406 0.051871 -1.61904e-23)
(0.942691 0.039341 0)
(0.952817 0.0456673 -4.68777e-24)
(0.963252 0.0481676 1.37313e-23)
(0.970976 0.0606621 -2.54923e-23)
(0.973798 0.0208644 4.01192e-24)
(0.984831 0.0674683 -6.93152e-24)
(0.988051 0.0531359 -1.36261e-25)
(0.985786 0.0178398 -2.16544e-24)
(0.993772 0.0651985 1.09386e-24)
(0.994551 0.0569819 6.62654e-26)
(0.994231 0.050574 -8.98861e-26)
(0.313784 0.326453 3.65258e-20)
(0.44319 0.239879 -7.58571e-20)
(0.55864 0.106328 -4.04712e-21)
(0.663603 -0.0568475 4.17127e-20)
(0.761503 -0.257769 6.38601e-22)
(0.891225 -0.496711 -5.51525e-22)
(0.9501 -0.653145 4.3271e-22)
(0.929735 -0.660953 -5.2756e-22)
(0.838995 -0.569238 0)
(0.754029 -0.430289 1.16093e-21)
(0.759924 -0.252865 -1.10743e-21)
(0.641934 -0.121816 6.4911e-23)
(0.549255 -0.0681795 0)
(0.483922 -0.0173948 1.51038e-21)
(0.531987 -0.00354092 -1.40406e-21)
(0.603104 -0.01895 5.10539e-22)
(0.671719 -0.0252455 -4.87142e-22)
(0.740921 -0.0444406 -5.26054e-22)
(0.775315 -0.0372654 4.4877e-22)
(0.799458 -0.0320606 0)
(0.813539 -0.027302 0)
(0.825614 -0.00174076 -2.40045e-22)
(0.836476 -0.0046286 2.29166e-22)
(0.858478 0.0182715 1.41697e-22)
(0.876966 0.0279484 -2.87935e-23)
(0.892855 0.0228138 -1.02091e-22)
(0.91513 0.0482937 -6.28343e-25)
(0.925004 0.0373228 2.68827e-23)
(0.938403 0.043555 -5.45735e-23)
(0.952315 0.0461493 4.85713e-23)
(0.963655 0.0596658 -5.11276e-24)
(0.96995 0.0196414 1.08725e-23)
(0.982311 0.0662009 -5.83679e-24)
(0.986878 0.0531211 5.58074e-24)
(0.985773 0.0174368 1.57793e-24)
(0.993772 0.0645712 6.48578e-25)
(0.994617 0.0569633 -1.97707e-24)
(0.994703 0.0505773 -2.88665e-25)
(0.492745 0.256896 0)
(0.61475 0.177976 3.91327e-20)
(0.728602 0.0632445 -3.84822e-20)
(0.831095 -0.0916283 0)
(0.954633 -0.298118 -6.56323e-22)
(1.08267 -0.516804 5.66629e-22)
(1.08995 -0.636131 0)
(0.986063 -0.634276 1.51153e-23)
(0.894102 -0.541178 -3.07831e-22)
(0.794894 -0.42386 0)
(0.794649 -0.271353 8.18677e-22)
(0.782946 -0.10886 -8.47167e-22)
(0.768978 -0.0405896 1.16853e-22)
(0.715783 -0.00912788 1.40997e-21)
(0.739611 -0.0175927 -1.34447e-21)
(0.78813 -0.0395879 -5.44955e-23)
(0.826322 -0.0437593 0)
(0.871477 -0.0574856 5.70161e-23)
(0.880494 -0.0444249 -8.55342e-22)
(0.887159 -0.0348442 7.7046e-23)
(0.884827 -0.0288868 8.5627e-23)
(0.874435 -0.00285768 5.22567e-22)
(0.873382 -0.00661518 3.26342e-22)
(0.875491 0.0145608 -4.01582e-22)
(0.882542 0.0249454 3.09928e-23)
(0.891771 0.0192293 0)
(0.905846 0.0450427 1.72083e-23)
(0.915281 0.0350713 -2.72369e-23)
(0.928935 0.0409149 5.60389e-23)
(0.944222 0.0435799 -4.98704e-23)
(0.957827 0.0581868 1.28454e-23)
(0.967175 0.018067 0)
(0.980163 0.0646638 6.04873e-24)
(0.985854 0.0529975 -1.20092e-23)
(0.985856 0.0169746 -4.58121e-24)
(0.993811 0.0638874 -4.43862e-24)
(0.994659 0.0569198 1.97847e-24)
(0.99516 0.0505648 -3.94975e-26)
(0.66103 0.19497 4.61327e-22)
(0.773992 0.122747 1.10148e-21)
(0.889327 0.018821 0)
(1.00561 -0.128582 0)
(1.14772 -0.326263 0)
(1.22687 -0.510525 0)
(1.17248 -0.586257 2.10136e-20)
(1.0354 -0.570101 -3.43389e-20)
(0.908033 -0.505335 1.41209e-20)
(0.818542 -0.417481 0)
(0.789748 -0.298224 -8.13947e-23)
(0.816603 -0.140985 1.29627e-22)
(0.871041 -0.0513252 -1.80795e-21)
(0.883504 -0.00928824 1.51681e-21)
(0.916872 -0.0214974 -9.66629e-22)
(0.950432 -0.0472713 9.77236e-22)
(0.961896 -0.05098 5.04595e-23)
(0.977088 -0.0616417 8.72258e-22)
(0.965099 -0.0456441 -8.31128e-22)
(0.957079 -0.0339183 -9.29313e-23)
(0.946468 -0.0269952 -8.19517e-23)
(0.926047 -0.000461681 -4.31343e-22)
(0.919511 -0.00545953 4.77614e-22)
(0.908464 0.0142218 8.472e-23)
(0.90562 0.0242536 3.19591e-23)
(0.907714 0.0174252 2.38958e-23)
(0.910939 0.0430319 0)
(0.917295 0.0332444 0)
(0.928136 0.0383469 0)
(0.941929 0.0408975 0)
(0.955476 0.0564826 -3.62916e-23)
(0.966527 0.0163101 2.2181e-23)
(0.978975 0.0629591 -1.25783e-23)
(0.985253 0.0528078 3.93792e-23)
(0.986123 0.0164691 -4.67058e-24)
(0.993923 0.0631602 -8.54851e-25)
(0.994696 0.0568568 2.99272e-24)
(0.995605 0.0505352 7.42867e-25)
(0.884755 0.137273 -4.85527e-22)
(0.974725 0.0752658 7.15937e-20)
(1.08145 -0.0143779 -6.87004e-20)
(1.19684 -0.154978 -7.62847e-20)
(1.30649 -0.326073 7.26322e-20)
(1.31053 -0.462369 5.78207e-20)
(1.19758 -0.519358 -5.38145e-20)
(1.06067 -0.510564 5.44866e-22)
(0.951891 -0.466305 -3.45819e-22)
(0.869441 -0.404545 0)
(0.809422 -0.319515 -5.7149e-23)
(0.816075 -0.186051 -1.5936e-21)
(0.886084 -0.0891862 1.51713e-21)
(0.947786 -0.0329569 9.46993e-23)
(1.00276 -0.033416 0)
(1.03548 -0.0523564 8.7773e-22)
(1.03779 -0.0519123 -1.65988e-21)
(1.03578 -0.0597224 7.31845e-22)
(1.01459 -0.043503 0)
(0.998496 -0.0316694 -6.27018e-22)
(0.984646 -0.0249304 1.47767e-22)
(0.962648 0.00179674 5.94967e-22)
(0.955178 -0.00363527 4.5354e-22)
(0.939958 0.0152421 -4.23864e-22)
(0.9324 0.0250343 2.35914e-22)
(0.93048 0.0172154 -4.39914e-23)
(0.925578 0.0424101 -1.90811e-22)
(0.928363 0.0322779 1.01467e-22)
(0.935212 0.0363968 -9.64944e-23)
(0.945588 0.0385639 3.07522e-23)
(0.957057 0.0548959 -2.92401e-23)
(0.968204 0.0146195 0)
(0.978994 0.0612357 -1.30811e-23)
(0.985214 0.0526146 9.49585e-25)
(0.98661 0.0159491 0)
(0.994128 0.062411 4.52788e-24)
(0.994742 0.0567823 -1.97392e-24)
(0.996039 0.050487 2.45384e-25)
(1.14654 0.103703 0)
(1.20392 0.0452265 0)
(1.27308 -0.0385343 -2.47215e-22)
(1.34905 -0.162776 0)
(1.3851 -0.300305 0)
(1.32215 -0.400282 5.63975e-20)
(1.20265 -0.449969 -5.37032e-20)
(1.08379 -0.460128 3.12119e-20)
(0.993211 -0.436895 -2.97684e-20)
(0.927387 -0.386526 0)
(0.86506 -0.321466 -1.2634e-22)
(0.839308 -0.21327 3.23882e-23)
(0.883659 -0.123485 2.1385e-21)
(0.95195 -0.0595249 2.56328e-22)
(1.01554 -0.0444851 -2.16375e-21)
(1.05081 -0.0543424 -2.85822e-23)
(1.05604 -0.0497864 2.24418e-23)
(1.05195 -0.0556373 -1.54592e-21)
(1.03334 -0.0395291 1.51635e-21)
(1.01717 -0.0279628 0)
(1.00372 -0.0220705 0)
(0.984021 0.00424887 3.42811e-23)
(0.977052 -0.00173536 0)
(0.962374 0.0164236 -3.44125e-22)
(0.953801 0.0260493 4.48479e-23)
(0.950826 0.01751 2.31538e-22)
(0.94235 0.0424459 1.81124e-22)
(0.942805 0.0319028 -1.19495e-22)
(0.946426 0.0350474 1.11023e-23)
(0.953073 0.0367502 0)
(0.961557 0.0536256 2.38427e-23)
(0.971604 0.0131452 -2.26049e-23)
(0.980054 0.0596073 -7.43112e-24)
(0.985708 0.0524971 -4.16735e-24)
(0.987288 0.015435 6.36151e-24)
(0.994423 0.0616512 -1.53025e-24)
(0.994809 0.0567081 0)
(0.996467 0.0504236 -6.14705e-25)
(1.29722 0.0972749 5.35117e-20)
(1.32117 0.0545706 6.21373e-20)
(1.35557 -0.00904474 6.07372e-21)
(1.38048 -0.104168 -1.26837e-19)
(1.36344 -0.213459 6.19222e-20)
(1.2962 -0.308565 -4.81373e-22)
(1.21135 -0.379631 0)
(1.12442 -0.415219 -3.08516e-22)
(1.03906 -0.420814 -2.14907e-22)
(0.972729 -0.388992 0)
(0.919887 -0.339199 -6.80847e-21)
(0.880931 -0.252323 6.55595e-21)
(0.896676 -0.172418 -1.5023e-23)
(0.946822 -0.101228 -1.71435e-21)
(1.0022 -0.0683693 1.62658e-21)
(1.03674 -0.0657496 -2.48261e-23)
(1.048 -0.0544334 -2.38131e-23)
(1.04873 -0.0566661 0)
(1.03676 -0.0402315 -1.50289e-21)
(1.02371 -0.0273044 1.42473e-21)
(1.0117 -0.0217835 6.22763e-22)
(0.995006 0.00499689 -1.04794e-22)
(0.98862 -0.000292487 -4.93853e-22)
(0.976116 0.0170891 3.55175e-22)
(0.968111 0.027464 -7.79608e-23)
(0.965431 0.0182037 -4.62686e-22)
(0.956829 0.0428866 1.64236e-22)
(0.956415 0.0323343 -1.23743e-22)
(0.958274 0.0344761 9.14758e-23)
(0.961938 0.0354638 0)
(0.967524 0.0529656 0)
(0.975847 0.0120795 0)
(0.9818 0.058077 -6.49276e-24)
(0.986616 0.0525417 7.27748e-24)
(0.988092 0.0149805 -6.49597e-24)
(0.994795 0.0608983 4.21207e-24)
(0.994912 0.0566218 1.80815e-24)
(0.996891 0.0503508 0)
(1.27566 0.0835512 0)
(1.30372 0.0408381 0)
(1.32033 -0.0168826 0)
(1.32239 -0.0890475 0)
(1.30435 -0.165717 0)
(1.2662 -0.234956 0)
(1.21154 -0.29271 0)
(1.14728 -0.323803 0)
(1.07988 -0.333722 0)
(1.01777 -0.313052 0)
(0.971695 -0.286215 0)
(0.934419 -0.226194 0)
(0.929313 -0.168773 0)
(0.95443 -0.114208 0)
(0.993277 -0.0794335 0)
(1.02308 -0.0702467 0)
(1.03785 -0.0533264 0)
(1.0423 -0.052599 0)
(1.0361 -0.0367965 0)
(1.02613 -0.0236468 0)
(1.01474 -0.0194786 0)
(1.0014 0.00642464 0)
(0.994965 0.00108334 0)
(0.985165 0.0171937 0)
(0.978639 0.0274791 0)
(0.976356 0.0180021 0)
(0.969973 0.0424957 0)
(0.969847 0.0318572 0)
(0.970938 0.0334989 0)
(0.972371 0.0342261 0)
(0.975306 0.0517553 0)
(0.981119 0.0109715 0)
(0.984403 0.056675 0)
(0.988144 0.052145 0)
(0.989164 0.0144347 0)
(0.995313 0.0600832 0)
(0.995123 0.0564352 0)
(0.997416 0.0502026 0)
(1.23763 0.0714839 0)
(1.26216 0.02518 0)
(1.27493 -0.0282571 0)
(1.27395 -0.0878238 0)
(1.25804 -0.155453 0)
(1.22751 -0.220861 0)
(1.18387 -0.280936 0)
(1.12833 -0.316848 0)
(1.06905 -0.336177 0)
(1.01543 -0.322786 0)
(0.976514 -0.298274 0)
(0.952023 -0.241272 0)
(0.95274 -0.186757 0)
(0.97154 -0.136679 0)
(0.997979 -0.100058 0)
(1.01855 -0.0869735 0)
(1.02873 -0.0650991 0)
(1.0306 -0.0589351 0)
(1.02456 -0.0377062 0)
(1.01584 -0.0212879 0)
(1.00571 -0.0154682 0)
(0.995023 0.0108151 0)
(0.98936 0.00460568 0)
(0.983177 0.020671 0)
(0.979793 0.0297059 0)
(0.97954 0.0195477 0)
(0.977225 0.0437707 0)
(0.978619 0.032022 0)
(0.980438 0.0333216 0)
(0.981065 0.0341668 0)
(0.982417 0.051091 0)
(0.98593 0.010264 0)
(0.987184 0.0562152 0)
(0.989904 0.0518635 0)
(0.990295 0.0136923 0)
(0.995971 0.0595741 0)
(0.995462 0.0563221 0)
(0.998053 0.0499757 0)
(1.2069 0.0539496 0)
(1.22919 0.0143007 0)
(1.23761 -0.0319961 0)
(1.23372 -0.0825728 0)
(1.22021 -0.137278 0)
(1.1974 -0.186271 0)
(1.16533 -0.230162 0)
(1.12517 -0.255373 0)
(1.08139 -0.270308 0)
(1.03836 -0.260458 0)
(1.00407 -0.247292 0)
(0.977533 -0.212362 0)
(0.97142 -0.175617 0)
(0.981947 -0.137437 0)
(1.00037 -0.102948 0)
(1.0163 -0.0861633 0)
(1.02485 -0.0591897 0)
(1.02668 -0.0491973 0)
(1.02114 -0.0283428 0)
(1.01341 -0.0131829 0)
(1.00461 -0.0097679 0)
(0.995697 0.0141403 0)
(0.990204 0.00626118 0)
(0.984553 0.0212945 0)
(0.981444 0.0298279 0)
(0.981203 0.0191514 0)
(0.980746 0.0434162 0)
(0.982755 0.0314453 0)
(0.985106 0.0329176 0)
(0.985663 0.0339958 0)
(0.98652 0.0506699 0)
(0.988726 0.00995416 0)
(0.989023 0.0559151 0)
(0.991259 0.0515698 0)
(0.991194 0.0131268 0)
(0.996572 0.0591738 0)
(0.995875 0.0561547 0)
(0.998743 0.0496977 0)
(1.17976 0.0441193 0)
(1.19684 0.00807296 0)
(1.20321 -0.0331848 0)
(1.19958 -0.0760002 0)
(1.18808 -0.121773 0)
(1.1698 -0.163174 0)
(1.14453 -0.204376 0)
(1.1131 -0.231655 0)
(1.0788 -0.254503 0)
(1.04528 -0.253663 0)
(1.01946 -0.24774 0)
(0.99941 -0.219212 0)
(0.991751 -0.187356 0)
(0.995053 -0.152513 0)
(1.00493 -0.117438 0)
(1.01388 -0.0978967 0)
(1.01901 -0.0681393 0)
(1.02004 -0.0561529 0)
(1.01598 -0.0326503 0)
(1.0111 -0.0146801 0)
(1.0045 -0.00911356 0)
(0.997029 0.0159854 0)
(0.991668 0.0083964 0)
(0.986347 0.0228735 0)
(0.98324 0.0306927 0)
(0.982564 0.0190817 0)
(0.98266 0.0427809 0)
(0.984599 0.0305826 0)
(0.98692 0.0321512 0)
(0.987626 0.0335684 0)
(0.988366 0.0502868 0)
(0.989944 0.00968122 0)
(0.989971 0.0555309 0)
(0.992224 0.0513846 0)
(0.991799 0.0125553 0)
(0.997054 0.0586359 0)
(0.996377 0.0559359 0)
(0.999505 0.0493705 0)
(1.15433 0.0321737 0)
(1.16834 0.00105557 0)
(1.17367 -0.0343642 0)
(1.17061 -0.0709504 0)
(1.16106 -0.11018 0)
(1.14692 -0.145242 0)
(1.12824 -0.180803 0)
(1.10564 -0.203676 0)
(1.08079 -0.223557 0)
(1.05494 -0.223663 0)
(1.03344 -0.221039 0)
(1.01554 -0.200856 0)
(1.00629 -0.177586 0)
(1.00493 -0.149419 0)
(1.00958 -0.117375 0)
(1.01473 -0.0968172 0)
(1.01837 -0.0645714 0)
(1.01889 -0.0493885 0)
(1.01529 -0.0243907 0)
(1.00988 -0.00637096 0)
(1.00309 -0.0024438 0)
(0.996832 0.0210813 0)
(0.991984 0.0119358 0)
(0.987571 0.0252645 0)
(0.984803 0.0322667 0)
(0.983895 0.0197391 0)
(0.98405 0.0429794 0)
(0.985494 0.0304779 0)
(0.987341 0.0320414 0)
(0.988221 0.0335684 0)
(0.988858 0.0501665 0)
(0.99026 0.00951117 0)
(0.99041 0.05519 0)
(0.992977 0.0512479 0)
(0.992167 0.0118838 0)
(0.997516 0.058052 0)
(0.997013 0.055692 0)
(1.00035 0.0489693 0)
(1.13319 0.0239639 0)
(1.1443 -0.00285117 0)
(1.14831 -0.0333705 0)
(1.14586 -0.064793 0)
(1.13833 -0.0987557 0)
(1.12757 -0.128499 0)
(1.11352 -0.160187 0)
(1.0968 -0.180804 0)
(1.07808 -0.201903 0)
(1.05826 -0.2056 0)
(1.04091 -0.208278 0)
(1.0261 -0.19405 0)
(1.01725 -0.176137 0)
(1.01315 -0.151826 0)
(1.01401 -0.121509 0)
(1.01468 -0.10081 0)
(1.01523 -0.0677637 0)
(1.01389 -0.0518356 0)
(1.01001 -0.0264065 0)
(1.00626 -0.00762909 0)
(1.00149 -0.0027606 0)
(0.996877 0.0210462 0)
(0.992639 0.0122651 0)
(0.988944 0.0252773 0)
(0.986438 0.0320223 0)
(0.985267 0.018943 0)
(0.985504 0.0416924 0)
(0.98651 0.0291836 0)
(0.98783 0.0309955 0)
(0.988901 0.0327808 0)
(0.989318 0.0496689 0)
(0.990552 0.00914246 0)
(0.990889 0.0546384 0)
(0.993809 0.0510574 0)
(0.992459 0.0111784 0)
(0.998094 0.057413 0)
(0.997814 0.0553676 0)
(1.00131 0.0484883 0)
(1.1142 0.0165998 0)
(1.12303 -0.00696681 0)
(1.12642 -0.0335943 0)
(1.12481 -0.0608511 0)
(1.11908 -0.0907314 0)
(1.11108 -0.116694 0)
(1.10076 -0.14533 0)
(1.08864 -0.164093 0)
(1.07494 -0.184656 0)
(1.0601 -0.189649 0)
(1.0464 -0.194582 0)
(1.03416 -0.183608 0)
(1.02561 -0.16978 0)
(1.01932 -0.149056 0)
(1.01724 -0.120646 0)
(1.01555 -0.100008 0)
(1.01498 -0.0654536 0)
(1.01323 -0.0478215 0)
(1.01005 -0.0211474 0)
(1.00591 -0.00128917 0)
(1.00048 0.00322426 0)
(0.996536 0.02641 0)
(0.992451 0.0167289 0)
(0.989443 0.028615 0)
(0.987334 0.0345787 0)
(0.985991 0.0205465 0)
(0.986401 0.0426311 0)
(0.986942 0.0298251 0)
(0.987732 0.031375 0)
(0.989109 0.0328847 0)
(0.989448 0.0497931 0)
(0.99062 0.00897437 0)
(0.991322 0.0540343 0)
(0.994695 0.0509708 0)
(0.992696 0.0104614 0)
(0.998813 0.0566184 0)
(0.998755 0.0549666 0)
(1.00237 0.0479563 0)
(1.09828 0.0110433 0)
(1.1053 -0.00961683 0)
(1.10806 -0.0329552 0)
(1.10705 -0.0568426 0)
(1.10273 -0.083509 0)
(1.09692 -0.106382 0)
(1.08926 -0.132655 0)
(1.08055 -0.149686 0)
(1.07046 -0.169758 0)
(1.05945 -0.175488 0)
(1.04883 -0.182263 0)
(1.03849 -0.174007 0)
(1.03055 -0.163305 0)
(1.02373 -0.145125 0)
(1.02049 -0.117926 0)
(1.01662 -0.0978544 0)
(1.0139 -0.0637706 0)
(1.01006 -0.0461633 0)
(1.00606 -0.0201917 0)
(1.00265 -0.00109816 0)
(0.998463 0.00301178 0)
(0.995775 0.0260405 0)
(0.992164 0.0163237 0)
(0.989902 0.0278654 0)
(0.988182 0.0337806 0)
(0.986717 0.0192856 0)
(0.987385 0.041086 0)
(0.987648 0.0284509 0)
(0.988094 0.0301402 0)
(0.989767 0.0318218 0)
(0.98998 0.049251 0)
(0.990988 0.00836082 0)
(0.991953 0.0530736 0)
(0.995735 0.0508245 0)
(0.992975 0.00961182 0)
(0.999684 0.0555815 0)
(0.999807 0.0544614 0)
(1.00354 0.0473008 0)
(1.08457 0.00627862 0)
(1.09016 -0.0121925 0)
(1.09247 -0.0330394 0)
(1.09199 -0.0543449 0)
(1.08887 -0.0785393 0)
(1.08473 -0.0990528 0)
(1.07918 -0.123471 0)
(1.07302 -0.138959 0)
(1.06564 -0.15842 0)
(1.05753 -0.164172 0)
(1.04919 -0.171911 0)
(1.04058 -0.165223 0)
(1.03368 -0.156108 0)
(1.02666 -0.139815 0)
(1.022 -0.114053 0)
(1.01625 -0.0950309 0)
(1.01274 -0.0608854 0)
(1.00889 -0.0426599 0)
(1.00529 -0.0162728 0)
(1.00178 0.00385038 0)
(0.997273 0.00779816 0)
(0.995071 0.0304315 0)
(0.991627 0.0203158 0)
(0.989852 0.0309085 0)
(0.988484 0.0364462 0)
(0.986946 0.0210928 0)
(0.987838 0.0422252 0)
(0.987841 0.0294225 0)
(0.988007 0.0306479 0)
(0.98998 0.0318474 0)
(0.99018 0.0495692 0)
(0.991223 0.00817774 0)
(0.99245 0.0521861 0)
(0.996727 0.0510385 0)
(0.993287 0.00889272 0)
(1.00067 0.0545225 0)
(1.0009 0.0540681 0)
(1.00481 0.0467439 0)
(1.07317 0.00256662 0)
(1.07759 -0.0141265 0)
(1.07949 -0.0329796 0)
(1.07937 -0.0522159 0)
(1.07711 -0.0744573 0)
(1.07421 -0.093081 0)
(1.07016 -0.115952 0)
(1.06579 -0.130133 0)
(1.06033 -0.148871 0)
(1.05433 -0.154361 0)
(1.04776 -0.162446 0)
(1.04068 -0.156526 0)
(1.03447 -0.1485 0)
(1.02732 -0.133672 0)
(1.02237 -0.108806 0)
(1.01621 -0.0902864 0)
(1.01211 -0.0564278 0)
(1.00679 -0.0387346 0)
(1.0026 -0.0136414 0)
(0.999373 0.00545753 0)
(0.995209 0.00838666 0)
(0.9937 0.0305919 0)
(0.990624 0.0201642 0)
(0.98942 0.0301374 0)
(0.988493 0.0357339 0)
(0.986957 0.0198646 0)
(0.988166 0.0406678 0)
(0.988165 0.0281646 0)
(0.988218 0.0292529 0)
(0.990486 0.0303441 0)
(0.990731 0.0487106 0)
(0.991709 0.00713076 0)
(0.993003 0.0503689 0)
(0.99787 0.0505933 0)
(0.993704 0.00757186 0)
(1.00165 0.052657 0)
(1.00206 0.0529841 0)
(1.00617 0.0455551 0)
(1.06347 -0.000631327 0)
(1.06698 -0.0159729 0)
(1.06855 -0.0333181 0)
(1.06868 -0.0509727 0)
(1.06707 -0.0717166 0)
(1.06508 -0.0888391 0)
(1.06209 -0.110452 0)
(1.05901 -0.123442 0)
(1.05494 -0.141371 0)
(1.0504 -0.14631 0)
(1.04521 -0.154186 0)
(1.03916 -0.148561 0)
(1.03362 -0.140928 0)
(1.02681 -0.126772 0)
(1.02173 -0.102271 0)
(1.01476 -0.0844327 0)
(1.01005 -0.0514009 0)
(1.00455 -0.0340577 0)
(1.0005 -0.00932794 0)
(0.997476 0.00980584 0)
(0.993519 0.0120297 0)
(0.992422 0.0339064 0)
(0.989657 0.0232312 0)
(0.988871 0.0323247 0)
(0.988251 0.0380431 0)
(0.986855 0.0213796 0)
(0.988293 0.0417635 0)
(0.988226 0.0294086 0)
(0.988192 0.0299499 0)
(0.990747 0.0305409 0)
(0.990887 0.0496344 0)
(0.992194 0.00727485 0)
(0.993472 0.0496611 0)
(0.998854 0.0515813 0)
(0.994199 0.00728012 0)
(1.00284 0.0516993 0)
(1.00319 0.053099 0)
(1.00767 0.0453938 0)
(1.05532 -0.00322934 0)
(1.05811 -0.0174834 0)
(1.05937 -0.0336508 0)
(1.05964 -0.0500304 0)
(1.05847 -0.0695826 0)
(1.05712 -0.0854449 0)
(1.05484 -0.105991 0)
(1.05261 -0.117828 0)
(1.0494 -0.134931 0)
(1.04587 -0.139061 0)
(1.04153 -0.146426 0)
(1.03631 -0.14065 0)
(1.03142 -0.132931 0)
(1.02484 -0.119243 0)
(1.01988 -0.095209 0)
(1.01283 -0.0782715 0)
(1.00824 -0.0460766 0)
(1.00249 -0.0296356 0)
(0.998134 -0.00638638 0)
(0.995204 0.0119371 0)
(0.991318 0.0129267 0)
(0.990669 0.0340763 0)
(0.988228 0.0230337 0)
(0.987792 0.0311725 0)
(0.987718 0.036964 0)
(0.986342 0.0197951 0)
(0.988175 0.0394979 0)
(0.988296 0.0275907 0)
(0.988255 0.02765 0)
(0.991064 0.0279378 0)
(0.991431 0.0476121 0)
(0.992735 0.00527935 0)
(0.993801 0.0461667 0)
(1.00012 0.0500873 0)
(0.994764 0.00489807 0)
(1.00372 0.0482153 0)
(1.00445 0.0506494 0)
(1.00917 0.0429405 0)
(1.04844 -0.00545622 0)
(1.05065 -0.0188948 0)
(1.05165 -0.0341392 0)
(1.05194 -0.0495238 0)
(1.05106 -0.0681067 0)
(1.0501 -0.0829271 0)
(1.0483 -0.102533 0)
(1.04659 -0.113315 0)
(1.04393 -0.129545 0)
(1.04101 -0.132704 0)
(1.03718 -0.139316 0)
(1.03244 -0.132933 0)
(1.02774 -0.12472 0)
(1.02127 -0.110946 0)
(1.0163 -0.0867042 0)
(1.00909 -0.0701999 0)
(1.00446 -0.0385 0)
(0.99877 -0.0228779 0)
(0.994851 -0.000810452 0)
(0.992293 0.0169803 0)
(0.988863 0.0166948 0)
(0.988531 0.0375073 0)
(0.986506 0.0261224 0)
(0.986538 0.0333908 0)
(0.986735 0.039712 0)
(0.98569 0.0217196 0)
(0.987824 0.0412419 0)
(0.988054 0.0296601 0)
(0.988096 0.029182 0)
(0.991348 0.0288746 0)
(0.991371 0.0498337 0)
(0.993452 0.00632634 0)
(0.994274 0.0463196 0)
(1.00108 0.0525001 0)
(0.995401 0.00559432 0)
(1.00522 0.0479827 0)
(1.00562 0.0519279 0)
(1.01099 0.043781 0)
(1.04241 -0.00729229 0)
(1.04414 -0.0200587 0)
(1.04487 -0.0345404 0)
(1.04516 -0.0490871 0)
(1.04441 -0.0667861 0)
(1.04366 -0.0806695 0)
(1.04208 -0.0992724 0)
(1.04064 -0.109031 0)
(1.03828 -0.124201 0)
(1.03567 -0.12638 0)
(1.03221 -0.132063 0)
(1.02779 -0.125161 0)
(1.02353 -0.116522 0)
(1.01725 -0.102873 0)
(1.01263 -0.0790821 0)
(1.00555 -0.0635614 0)
(1.00114 -0.0333756 0)
(0.995551 -0.0190819 0)
(0.991439 0.00105583 0)
(0.98923 0.0176927 0)
(0.986064 0.0159657 0)
(0.98627 0.0356514 0)
(0.984793 0.0240868 0)
(0.98502 0.0301604 0)
(0.985995 0.0365522 0)
(0.984878 0.0183768 0)
(0.987435 0.0368468 0)
(0.988014 0.0261599 0)
(0.988104 0.024903 0)
(0.991541 0.0243213 0)
(0.991998 0.0455226 0)
(0.994074 0.00273057 0)
(0.9943 0.0402334 0)
(1.00251 0.0488615 0)
(0.996108 0.00157362 0)
(1.00582 0.0419281 0)
(1.00694 0.0471378 0)
(1.01257 0.0391424 0)
(1.03758 -0.00868415 0)
(1.0389 -0.0208903 0)
(1.03942 -0.0347199 0)
(1.03959 -0.0485201 0)
(1.03887 -0.0654816 0)
(1.03811 -0.0784264 0)
(1.03652 -0.0961641 0)
(1.03495 -0.104714 0)
(1.03243 -0.118844 0)
(1.02961 -0.119579 0)
(1.02584 -0.124068 0)
(1.02119 -0.115921 0)
(1.01657 -0.106191 0)
(1.01014 -0.0920336 0)
(1.00538 -0.0677119 0)
(0.998459 -0.0528564 0)