/*--------------------------------*- C++ -*----------------------------------*\
| =========                 |                                                 |
| \\      /  F ield         | OpenFOAM: The Open Source CFD Toolbox           |
|  \\    /   O peration     | Version:  2512                                  |
|   \\  /    A nd           | Website:  www.openfoam.com                      |
|    \\/     M anipulation  |                                                 |
\*---------------------------------------------------------------------------*/
FoamFile
{
    version     2.0;
    format      ascii;
    arch        "LSB;label=32;scalar=64";
    class       volScalarField;
    location    "53.5";
    object      p;
}
// * * * * * * * * * * * * * * * * * * * * * * * * * * * * * * * * * * * * * //

dimensions      [0 2 -2 0 0 0 0];

internalField   nonuniform List<scalar> 
9800
(
0.0551095
0.0549915
0.054767
0.0544474
0.0540432
0.053564
0.0530183
0.0524139
0.0517584
0.0510588
0.0503217
0.0495533
0.0487597
0.047947
0.0471208
0.0462865
0.0454492
0.0446136
0.0437841
0.0429646
0.0421588
0.0413697
0.0405999
0.0398516
0.0391269
0.0384271
0.0377535
0.0371067
0.0364875
0.0358959
0.035332
0.0347955
0.0342861
0.0338033
0.0333464
0.0329147
0.0325074
0.0321235
0.0317622
0.0314224
0.0552274
0.0551096
0.0548856
0.0545665
0.0541628
0.0536839
0.0531382
0.0525335
0.051877
0.0511756
0.0504359
0.049664
0.0488661
0.048048
0.0472155
0.046374
0.0455286
0.0446841
0.043845
0.0430154
0.0421988
0.0413985
0.0406173
0.0398574
0.039121
0.0384095
0.0377243
0.0370662
0.0364359
0.0358336
0.0352594
0.0347131
0.0341944
0.0337028
0.0332376
0.0327981
0.0323835
0.031993
0.0316255
0.03128
0.0554506
0.0553334
0.0551103
0.0547923
0.0543897
0.0539118
0.0533664
0.0527611
0.0521029
0.0513986
0.0506544
0.0498763
0.0490703
0.0482423
0.0473981
0.0465431
0.0456825
0.0448212
0.0439639
0.0431148
0.0422777
0.041456
0.0406528
0.0398706
0.0391115
0.0383775
0.03767
0.0369899
0.0363382
0.0357151
0.0351209
0.0345555
0.0340186
0.0335098
0.0330284
0.0325738
0.0321451
0.0317415
0.0313619
0.0310054
0.0557674
0.0556511
0.0554295
0.0551134
0.054713
0.0542368
0.0536925
0.0530871
0.0524273
0.0517194
0.0509694
0.0501831
0.0493663
0.0485249
0.0476645
0.0467906
0.0459086
0.0450236
0.0441404
0.0432633
0.0423967
0.0415442
0.0407091
0.0398943
0.0391023
0.0383353
0.0375949
0.0368826
0.0361992
0.0355455
0.0349217
0.034328
0.0337642
0.0332298
0.0327244
0.0322472
0.0317976
0.0313744
0.0309769
0.030604
0.0561665
0.0560516
0.0558323
0.0555194
0.0551223
0.0546493
0.0541074
0.053503
0.0528424
0.0521312
0.0513751
0.0505796
0.0497503
0.0488927
0.0480126
0.0471156
0.0462071
0.0452922
0.0443761
0.0434635
0.042559
0.0416667
0.0407903
0.0399331
0.039098
0.0382877
0.0375041
0.0367491
0.0360239
0.0353295
0.0346664
0.0340349
0.033435
0.0328665
0.0323289
0.0318215
0.0313436
0.0308944
0.0304727
0.0300776
0.0566373
0.0565244
0.0563086
0.0560002
0.0556083
0.0551404
0.0546029
0.0540014
0.0533414
0.0526281
0.0518666
0.0510619
0.0502193
0.0493442
0.0484422
0.0475187
0.0465794
0.0456296
0.0446746
0.0437196
0.0427695
0.0418289
0.0409021
0.0399929
0.0391047
0.0382407
0.0374034
0.0365951
0.0358174
0.0350718
0.034359
0.0336797
0.0330342
0.0324223
0.0318437
0.0312978
0.030784
0.0303013
0.0298488
0.0294254
0.0571699
0.0570596
0.0568486
0.0565466
0.056162
0.0557018
0.0551712
0.0545752
0.0539183
0.053205
0.0524398
0.0516272
0.0507719
0.0498789
0.0489537
0.0480018
0.0470287
0.0460399
0.0450409
0.0440374
0.0430346
0.0420379
0.0410519
0.0400811
0.0391297
0.0382014
0.0372994
0.0364266
0.0355853
0.0347772
0.0340037
0.0332658
0.032564
0.0318986
0.0312693
0.0306758
0.0301175
0.0295934
0.0291026
0.028644
0.0577547
0.0576479
0.0574431
0.0571496
0.056775
0.0563254
0.0558051
0.055218
0.0545675
0.0538573
0.0530912
0.0522729
0.0514067
0.0504969
0.0495489
0.0485678
0.0475591
0.0465284
0.0454814
0.044424
0.0433623
0.0423019
0.0412483
0.0402066
0.0391817
0.0381782
0.0372001
0.0362511
0.035334
0.0344513
0.0336049
0.0327963
0.0320267
0.0312964
0.0306057
0.0299543
0.0293416
0.0287671
0.0282295
0.027728
0.0583826
0.0582802
0.0580833
0.0578007
0.0574391
0.0570035
0.0564974
0.0559232
0.0552833
0.0545803
0.0538173
0.0529971
0.052123
0.0511989
0.0502297
0.0492201
0.0481755
0.0471011
0.0460032
0.0448879
0.0437618
0.0426309
0.0415015
0.0403796
0.0392709
0.038181
0.0371149
0.036077
0.0350711
0.0341004
0.0331677
0.0322753
0.0314246
0.0306168
0.0298523
0.0291311
0.028453
0.0278175
0.0272235
0.02667
0.0590452
0.0589481
0.058761
0.0584919
0.0581465
0.0577289
0.0572412
0.0566846
0.0560603
0.0553698
0.0546149
0.0537975
0.0529199
0.0519855
0.0509984
0.0499627
0.0488831
0.047765
0.0466146
0.0454385
0.0442435
0.0430362
0.0418234
0.0406122
0.0394094
0.0382217
0.0370549
0.0359147
0.0348057
0.0337324
0.0326986
0.0317073
0.0307607
0.0298607
0.0290082
0.0282037
0.0274473
0.0267386
0.0260768
0.0254609
0.0597344
0.0596435
0.0594682
0.0592153
0.0588896
0.0584941
0.0580295
0.0574957
0.0568928
0.0562209
0.0554803
0.0546716
0.0537963
0.0528572
0.0518571
0.0507993
0.0496876
0.0485273
0.0473246
0.0460863
0.0448192
0.0435303
0.0422273
0.0409183
0.0396113
0.0383139
0.0370334
0.0357763
0.0345489
0.0333569
0.0322053
0.0310982
0.0300389
0.02903
0.0280731
0.0271695
0.0263196
0.0255234
0.0247804
0.0240896
0.0604426
0.060359
0.0601974
0.0599635
0.0596611
0.059292
0.0588555
0.05835
0.0577747
0.0571285
0.0564094
0.0556165
0.0547509
0.0538142
0.0528078
0.0517335
0.0505943
0.0493953
0.0481425
0.0468424
0.0455014
0.0441273
0.0427283
0.0413137
0.0398926
0.0384738
0.0370657
0.0356766
0.0343141
0.0329857
0.0316978
0.0304559
0.0292645
0.0281273
0.027047
0.0260257
0.0250646
0.0241641
0.023324
0.0225436
0.0611627
0.0610875
0.0609415
0.0607293
0.060454
0.0601158
0.0597122
0.0592408
0.0587002
0.0580872
0.0573974
0.0566287
0.0557815
0.054856
0.0538516
0.0527683
0.0516084
0.0503765
0.0490779
0.0477182
0.0463037
0.0448422
0.043343
0.0418162
0.0402718
0.0387199
0.0371703
0.0356329
0.0341176
0.0326333
0.0311885
0.0297902
0.0284446
0.0271569
0.0259311
0.0247706
0.0236772
0.0226524
0.0216963
0.0208086
0.0618883
0.0618225
0.0616938
0.0615061
0.0612616
0.0609586
0.0605926
0.0601615
0.0596629
0.0590908
0.0584387
0.0577038
0.0568853
0.0559814
0.0549886
0.0539057
0.0527342
0.0514777
0.05014
0.0487254
0.0472398
0.0456913
0.0440896
0.0424454
0.0407696
0.0390734
0.0373682
0.0356661
0.0339788
0.0323177
0.030693
0.0291141
0.0275891
0.0261252
0.0247282
0.0234029
0.0221526
0.0209795
0.0198848
0.0188687
0.0626133
0.0625577
0.0624481
0.0622876
0.0620777
0.0618134
0.0614897
0.0611054
0.0606562
0.0601326
0.059527
0.0588365
0.0580586
0.0571877
0.0562179
0.0551468
0.0539752
0.0527049
0.0513375
0.0498755
0.0483241
0.0466914
0.0449873
0.0432226
0.0414089
0.0395583
0.037684
0.0358003
0.0339212
0.0320604
0.0302308
0.0284441
0.0267111
0.0250413
0.0234431
0.0219232
0.0204865
0.0191368
0.0178763
0.0167061
0.0633323
0.0632878
0.0631986
0.0630685
0.0628963
0.0626735
0.0623968
0.0620661
0.0616732
0.0612054
0.0606556
0.060021
0.0592961
0.0584709
0.0575371
0.0564915
0.0553338
0.0540629
0.0526777
0.0511789
0.0495705
0.0478599
0.0460566
0.044171
0.0422149
0.0402015
0.0381457
0.0360639
0.0339725
0.031888
0.0298258
0.0278011
0.0258276
0.0239182
0.022084
0.0203342
0.0186764
0.017116
0.015657
0.0143019
0.0640405
0.0640075
0.0639404
0.0638437
0.0637114
0.0635324
0.0633078
0.0630369
0.0627063
0.0623017
0.0618177
0.0612508
0.0605913
0.0598251
0.0589421
0.0579381
0.0568105
0.0555548
0.0541669
0.0526452
0.0509923
0.0492141
0.0473184
0.0453149
0.043215
0.0410329
0.038785
0.0364895
0.0341654
0.0318317
0.0295075
0.0272114
0.0249611
0.0227732
0.0206626
0.0186418
0.0167215
0.0149098
0.0132131
0.0116356
0.0647334
0.0647123
0.0646693
0.064609
0.0645173
0.0643841
0.064217
0.064011
0.0637478
0.063414
0.063006
0.0625184
0.0619365
0.0612431
0.0604272
0.0594829
0.0584038
0.0571817
0.0558092
0.0542824
0.0526017
0.0507702
0.0487935
0.0466792
0.0444383
0.0420852
0.0396372
0.0371143
0.0345376
0.0319291
0.0293115
0.0267077
0.0241401
0.0216297
0.0191959
0.0168558
0.0146241
0.0125127
0.0105309
0.00868549
0.0654068
0.0653983
0.0653822
0.0653603
0.0653082
0.0652235
0.0651187
0.0649813
0.06479
0.0645348
0.0642131
0.0638155
0.0633229
0.0627164
0.0619847
0.0611196
0.0601097
0.0589422
0.0576067
0.0560966
0.0544089
0.0525433
0.0505017
0.0482894
0.0459154
0.0433935
0.0407416
0.0379804
0.0351329
0.0322242
0.0292809
0.0263305
0.0234007
0.0205179
0.0177074
0.0149917
0.0123908
0.00992155
0.00759753
0.00542922
0.0660569
0.0660625
0.0660769
0.0660935
0.0660791
0.0660463
0.0660073
0.0659405
0.0658261
0.0656572
0.0654307
0.065133
0.064741
0.0642358
0.0636059
0.0628397
0.0619209
0.0608318
0.0595585
0.0580908
0.0564216
0.054546
0.0524617
0.0501699
0.0476771
0.0449949
0.0421404
0.0391342
0.0360009
0.0327683
0.0294667
0.0261288
0.0227879
0.0194772
0.0162286
0.0130718
0.0100336
0.00713724
0.00440223
0.00184392
0.0666799
0.066703
0.0667519
0.0668046
0.0668256
0.0668488
0.0668768
0.0668824
0.0668499
0.0667741
0.0666506
0.0664609
0.0661806
0.0657911
0.0652804
0.0646329
0.0638276
0.0628429
0.0616603
0.0602648
0.0586442
0.0567884
0.0546896
0.0523441
0.049754
0.0469275
0.0438786
0.0406271
0.0371977
0.0336204
0.0299292
0.0261617
0.0223575
0.0185572
0.0148011
0.0111274
0.00757172
0.00416583
0.000936915
-0.00209293
0.0672722
0.0673192
0.067406
0.0674892
0.0675448
0.0676273
0.0677212
0.0678017
0.0678557
0.0678785
0.067864
0.0677894
0.0676311
0.0673712
0.0669963
0.066487
0.0658179
0.0649645
0.0639034
0.0626136
0.0610769
0.0592764
0.0571982
0.0548325
0.0521752
0.0492289
0.046003
0.042514
0.0387855
0.0348481
0.0307388
0.0264998
0.0221773
0.0178203
0.0134785
0.00920075
0.00503383
0.00102025
-0.00280243
-0.00640287
0.0678308
0.067912
0.0680374
0.0681437
0.0682344
0.0683779
0.0685355
0.0686948
0.0688381
0.0689634
0.0690622
0.0691086
0.0690821
0.068964
0.0687406
0.0683879
0.0678779
0.067183
0.0662751
0.0651276
0.0637144
0.062011
0.059996
0.0576519
0.0549669
0.0519359
0.048561
0.044853
0.0408318
0.0365269
0.0319765
0.0272265
0.0223298
0.0173437
0.0123293
0.007348
0.00246014
-0.00227774
-0.00681442
-0.011106
0.0683536
0.0684826
0.0686435
0.0687651
0.0688928
0.0690967
0.0693162
0.069559
0.0697911
0.0700227
0.0702366
0.0704093
0.0705228
0.0705571
0.0704993
0.0703203
0.0699917
0.0694822
0.0687596
0.067792
0.0665455
0.0649868
0.063085
0.0608136
0.058151
0.0550818
0.0515987
0.0477036
0.0434092
0.0387406
0.0337348
0.0284397
0.0229136
0.0172229
0.0114404
0.00564235
-9.41112e-05
-0.00569472
-0.0110903
-0.0162199
0.0688402
0.0690322
0.0692199
0.069352
0.0695183
0.0697809
0.0700615
0.0703916
0.070709
0.071051
0.0713784
0.0716831
0.0719423
0.0721381
0.072258
0.072268
0.0721416
0.0718431
0.0713375
0.0705879
0.0695528
0.0681909
0.0664597
0.0643216
0.0617427
0.0586954
0.0551597
0.0511249
0.0465929
0.0415798
0.0361174
0.0302524
0.0240464
0.0175739
0.0109202
0.00417819
-0.00255484
-0.00918227
-0.0156117
-0.021759
0.0692932
0.0695608
0.069761
0.069904
0.070109
0.0704295
0.0707709
0.07119
0.0715868
0.0720441
0.0724793
0.0729237
0.0733294
0.0736957
0.0740018
0.0742141
0.0743086
0.0742446
0.0739866
0.0734924
0.0727141
0.0716032
0.0701053
0.0681704
0.0657485
0.0627977
0.0592816
0.0551734
0.050459
0.0451406
0.0392385
0.0327934
0.0258664
0.0185374
0.0109035
0.00307588
-0.00482458
-0.0126734
-0.0203478
-0.0277333
0.0697174
0.0700656
0.0702615
0.0704217
0.0706633
0.0710432
0.071443
0.0719509
0.0724203
0.0729979
0.0735316
0.074126
0.0746719
0.0752204
0.0757142
0.0761431
0.0764722
0.0766644
0.0766818
0.076479
0.0760018
0.0751972
0.0739974
0.0723433
0.0701633
0.0673997
0.0639939
0.0599001
0.055082
0.0495218
0.0432213
0.0362072
0.0285337
0.0202812
0.011556
0.00248752
-0.00677668
-0.0160778
-0.0252538
-0.0341489
0.0701192
0.0705404
0.0707186
0.0709064
0.0711813
0.0716231
0.0720765
0.0726717
0.0732068
0.0739085
0.0745296
0.0752855
0.0759584
0.0767044
0.0773777
0.0780412
0.0786092
0.0790808
0.0793946
0.0795186
0.0793833
0.0789407
0.0781033
0.0768124
0.0749662
0.0724984
0.0693132
0.0653478
0.0605316
0.054824
0.0481961
0.0406529
0.0322313
0.0230035
0.0130795
0.00260375
-0.00824787
-0.0192755
-0.0302664
-0.041009
0.070505
0.0709766
0.0711335
0.0713582
0.0716648
0.0721693
0.0726708
0.0733493
0.0739457
0.0747711
0.0754709
0.0763957
0.0771804
0.0781399
0.0789757
0.0798968
0.0806942
0.0814741
0.0820915
0.0825809
0.0828184
0.0827959
0.08238
0.0815398
0.0801198
0.0780731
0.0752347
0.0715458
0.0668679
0.0611485
0.0543004
0.046307
0.0371675
0.0269361
0.0157167
0.00366077
-0.00902943
-0.0221084
-0.0352996
-0.048315
0.0708799
0.0713672
0.0715097
0.0717764
0.0721176
0.0726794
0.0732274
0.07398
0.0746394
0.0755793
0.0763574
0.0774474
0.0783356
0.0795152
0.080498
0.0816957
0.0827054
0.0838248
0.0847371
0.0856367
0.0862591
0.0867212
0.0867716
0.0864778
0.0855688
0.0840828
0.0817206
0.078499
0.0741232
0.0685912
0.0616735
0.0533716
0.0435835
0.032357
0.0197618
0.00594843
-0.00885878
-0.0243729
-0.0402399
-0.0560699
0.0712461
0.0717088
0.071852
0.0721596
0.0725436
0.0731496
0.0737487
0.0745595
0.0752918
0.0763259
0.0771939
0.0784282
0.0794278
0.0808133
0.0819436
0.0834168
0.084632
0.0861068
0.0873053
0.0886524
0.0896597
0.0906717
0.0912123
0.0915694
0.0912359
0.0904692
0.0887025
0.0861767
0.0822736
0.0772194
0.0704221
0.0620729
0.0517551
0.0396248
0.0255887
0.00983767
-0.00740299
-0.0258148
-0.0449465
-0.0642902
0.0716034
0.0720024
0.0721646
0.0725076
0.0729451
0.0735774
0.0742375
0.0750848
0.0759062
0.0770051
0.0779848
0.0793265
0.0804627
0.0820154
0.0833172
0.085033
0.0864734
0.0882834
0.0897845
0.0915798
0.0929909
0.0945859
0.0956488
0.0967394
0.0970424
0.0971516
0.0960856
0.0945103
0.0912411
0.0870405
0.0805581
0.0726128
0.0619262
0.0492123
0.0336849
0.0158748
-0.00420162
-0.0260985
-0.0492425
-0.0730343
0.0719492
0.072252
0.0724509
0.0728219
0.0733226
0.0739637
0.0746949
0.0755568
0.0764838
0.0776162
0.0787321
0.0801381
0.0814433
0.0831105
0.0846223
0.0865226
0.0882312
0.0903182
0.0921703
0.0943628
0.0962367
0.0983825
0.100047
0.101878
0.102932
0.103995
0.103796
0.103371
0.100948
0.0979697
0.0920213
0.0850833
0.0741595
0.0616163
0.0445106
0.0249475
0.00141772
-0.0246655
-0.0528757
-0.0824559
0.0722785
0.0724645
0.0727138
0.0731053
0.0736747
0.0743113
0.0751194
0.0759804
0.077022
0.0781643
0.0794321
0.0808676
0.0823663
0.0841003
0.0858559
0.0878811
0.0899006
0.0921955
0.0944531
0.096966
0.0993786
0.101994
0.104376
0.10687
0.108859
0.110825
0.111778
0.112528
0.111374
0.109789
0.104857
0.0993444
0.0884955
0.0770338
0.0581892
0.0382039
0.0101298
-0.0203032
-0.0555357
-0.0928338
0.0725855
0.072648
0.0729555
0.073361
0.0740035
0.0746244
0.0755086
0.0763614
0.0775173
0.078657
0.0800784
0.0815239
0.0832227
0.0849947
0.0870051
0.0891177
0.0914635
0.0939201
0.0966059
0.0993837
0.102375
0.105395
0.108574
0.111655
0.114741
0.117518
0.119945
0.121764
0.122469
0.122198
0.119256
0.115102
0.105451
0.0952039
0.074998
0.0558449
0.0220556
-0.0103716
-0.0572038
-0.104167
0.0728663
0.0728095
0.0731783
0.0735916
0.0743001
0.0749056
0.0758612
0.0767058
0.0779664
0.0791028
0.0806634
0.0821178
0.0840009
0.085806
0.0880553
0.0902434
0.092902
0.0954988
0.0986052
0.101615
0.105189
0.108569
0.112574
0.116185
0.120459
0.123989
0.12812
0.13095
0.13403
0.135001
0.135136
0.132143
0.125807
0.115944
0.0968166
0.0771434
0.0379406
0.0056932
-0.0584684
-0.113541
0.0731193
0.0729551
0.0733827
0.0737997
0.0745666
0.0751587
0.0761771
0.077018
0.0783668
0.0795077
0.0811875
0.0826577
0.0846939
0.0865446
0.0889921
0.0912706
0.0941906
0.0969446
0.100408
0.103672
0.107751
0.111521
0.116266
0.120459
0.125846
0.130208
0.13605
0.139981
0.145714
0.147946
0.152112
0.150238
0.149508
0.13972
0.126272
0.102219
0.062765
0.0245806
-0.0580862
-0.114504
0.0733448
0.0730882
0.0735693
0.0739872
0.0748042
0.0753868
0.0764578
0.077301
0.0787212
0.0798747
0.0816478
0.0831469
0.0853053
0.0872136
0.0898185
0.0922016
0.0953288
0.0982586
0.102005
0.105551
0.110033
0.114246
0.119581
0.124461
0.13074
0.136149
0.143375
0.148845
0.156799
0.161112
0.169079
0.169461
0.175458
0.166037
0.163902
0.134495
0.105
0.0444881
-0.0467111
-0.113411
0.0735437
0.0732111
0.0737383
0.0741561
0.0750144
0.0755921
0.076705
0.0775571
0.0790317
0.0802063
0.0820496
0.0835877
0.0858385
0.0878135
0.0905391
0.0930337
0.0963228
0.0994323
0.103404
0.107234
0.11204
0.116702
0.122517
0.12811
0.135114
0.14167
0.150001
0.157332
0.166986
0.174306
0.184945
0.189896
0.200546
0.196694
0.205054
0.175587
0.169767
0.0738916
-0.0114829
-0.18801
0.0737177
0.0733246
0.0738905
0.0743074
0.0751993
0.0757758
0.076921
0.0777874
0.0793005
0.0805036
0.0823954
0.0839809
0.0862959
0.0883447
0.0911571
0.0937664
0.0971767
0.100461
0.104609
0.108708
0.113777
0.118855
0.125074
0.131328
0.138961
0.14659
0.155914
0.165038
0.176246
0.186678
0.199656
0.210271
0.224172
0.230971
0.243747
0.232141
0.241288
0.15282
0.114716
-0.353294
0.0311113
0.0308218
0.0305402
0.0302669
0.0300021
0.0297458
0.0294984
0.0292598
0.0290304
0.0288102
0.0309639
0.0306699
0.030384
0.0301068
0.0298383
0.0295788
0.0293283
0.0290872
0.0288554
0.0286332
0.0306795
0.0303765
0.0300824
0.0297975
0.0295219
0.0292558
0.0289996
0.0287532
0.028517
0.0282911
0.0302634
0.0299472
0.0296407
0.0293442
0.0290581
0.0287824
0.0285175
0.0282635
0.0280207
0.0277892
0.0297173
0.0293833
0.0290602
0.0287483
0.0284479
0.0281594
0.0278829
0.0276187
0.0273671
0.0271282
0.0290399
0.0286832
0.0283388
0.0280073
0.0276888
0.0273838
0.0270927
0.0268156
0.0265528
0.0263047
0.0282272
0.0278424
0.0274716
0.0271156
0.0267747
0.0264495
0.0261401
0.0258471
0.0255708
0.0253113
0.027273
0.0268537
0.0264507
0.0260649
0.0256967
0.0253467
0.0250154
0.0247032
0.0244105
0.0241377
0.0261688
0.0257077
0.0252658
0.0248439
0.0244428
0.0240632
0.0237055
0.0233704
0.0230583
0.0227697
0.024904
0.0243927
0.0239039
0.0234387
0.0229981
0.022583
0.0221939
0.0218316
0.0214967
0.0211897
0.023466
0.0228945
0.0223495
0.0218324
0.0213446
0.020887
0.0204606
0.0200662
0.0197046
0.0193765
0.02184
0.0211964
0.020584
0.0200048
0.0194605
0.0189524
0.0184817
0.0180495
0.0176567
0.0173042
0.0200091
0.019279
0.0185858
0.0179323
0.0173204
0.0167521
0.0162288
0.015752
0.0153228
0.0149423
0.0179542
0.0171201
0.01633
0.0155872
0.0148945
0.0142542
0.0136683
0.0131388
0.0126671
0.0122546
0.0156535
0.0146945
0.0137877
0.0129375
0.0121477
0.0114212
0.0107607
0.0101687
0.00964729
0.00919809
0.013083
0.0119734
0.0109259
0.00994627
0.00903936
0.00820924
0.00745945
0.00679329
0.00621344
0.0057221
0.0102162
0.00892463
0.00770679
0.00657052
0.00552208
0.00456693
0.0037098
0.00295511
0.00230637
0.00176649
0.00702387
0.00551186
0.00408742
0.00276092
0.00154071
0.00043406
-0.000552642
-0.00141354
-0.00214391
-0.00273993
0.00347432
0.00169462
1.88181e-05
-0.00153939
-0.00296883
-0.00425981
-0.00540367
-0.00639262
-0.0072203
-0.00788165
-0.000466744
-0.00257224
-0.0045547
-0.00639601
-0.00808117
-0.00959724
-0.0109325
-0.0120767
-0.013021
-0.0137589
-0.0048359
-0.00733879
-0.00969638
-0.0118846
-0.0138833
-0.0156752
-0.0172446
-0.0185775
-0.0196625
-0.0204906
-0.0096719
-0.0126605
-0.015478
-0.0180924
-0.0204767
-0.0226077
-0.0244642
-0.0260278
-0.0272829
-0.0282181
-0.015016
-0.018599
-0.0219815
-0.0251206
-0.0279801
-0.0305288
-0.0327384
-0.0345845
-0.0360463
-0.037109
-0.0209123
-0.0252243
-0.0293019
-0.0330878
-0.0365335
-0.0395973
-0.0422414
-0.0444336
-0.0461468
-0.0473617
-0.0274081
-0.032616
-0.0375505
-0.0421348
-0.0463041
-0.0500026
-0.0531806
-0.055796
-0.057814
-0.0592103
-0.0345552
-0.0408666
-0.0468595
-0.0524308
-0.0574932
-0.0619727
-0.0658044
-0.0689345
-0.0713197
-0.0729304
-0.0424123
-0.0500868
-0.0573899
-0.064182
-0.0703459
-0.0757831
-0.0804105
-0.084161
-0.0869835
-0.0888442
-0.0510516
-0.0604163
-0.0693453
-0.0776481
-0.0851665
-0.0917706
-0.0973558
-0.101843
-0.105176
-0.107323
-0.0605674
-0.0720394
-0.0829934
-0.0931661
-0.102343
-0.110353
-0.117071
-0.122411
-0.126322
-0.128784
-0.0710912
-0.0852121
-0.0987
-0.111186
-0.122377
-0.132053
-0.140071
-0.146358
-0.150892
-0.153684
-0.0828209
-0.100307
-0.116989
-0.132336
-0.145937
-0.157519
-0.166949
-0.174213
-0.179366
-0.182487
-0.096066
-0.117885
-0.138648
-0.157539
-0.173955
-0.187585
-0.198387
-0.206509
-0.212172
-0.215583
-0.111296
-0.138806
-0.164913
-0.188186
-0.207735
-0.223328
-0.235201
-0.24383
-0.249724
-0.253295
-0.129229
-0.164519
-0.197743
-0.226233
-0.24889
-0.2659
-0.278158
-0.286707
-0.292417
-0.295944
-0.15142
-0.198167
-0.24027
-0.274065
-0.298994
-0.316135
-0.32738
-0.334782
-0.339813
-0.343232
-0.183537
-0.248143
-0.298628
-0.335407
-0.36026
-0.375074
-0.382647
-0.386701
-0.389905
-0.393389
-0.239107
-0.327932
-0.384479
-0.418866
-0.437467
-0.444268
-0.444006
-0.440973
-0.438066
-0.437734
-0.31958
-0.432341
-0.502327
-0.530792
-0.530039
-0.519664
-0.508531
-0.497149
-0.485713
-0.477809
-0.424108
-0.509799
-0.633885
-0.664552
-0.618018
-0.568432
-0.531636
-0.506435
-0.490632
-0.480659
-0.955385
-0.612895
-0.683702
-0.686363
-0.656243
-0.605552
-0.558449
-0.521741
-0.499533
-0.487083
0.0285873
0.0283616
0.028143
0.0279324
0.0277306
0.0275386
0.0273572
0.0271875
0.0270301
0.0268861
0.0267562
0.0266412
0.0265418
0.0264588
0.0263925
0.0263436
0.0263122
0.0262988
0.0263029
0.0263249
0.026364
0.0264199
0.0264914
0.026578
0.0266775
0.0267888
0.0269092
0.0270372
0.0271692
0.0273029
0.0274338
0.0275588
0.0276725
0.0277712
0.0278483
0.0278998
0.0279177
0.0278971
0.0278291
0.0277081
0.0275241
0.0272711
0.026938
0.0265187
0.0260017
0.0253804
0.0246433
0.0237838
0.022791
0.0216582
0.0203753
0.0189367
0.0173332
0.0155623
0.0136171
0.0115008
0.0092109
0.00676027
0.00415314
0.00141122
0.0284087
0.0281817
0.0279622
0.0277512
0.0275496
0.0273583
0.0271782
0.0270103
0.0268555
0.0267146
0.0265886
0.0264782
0.0263841
0.0263071
0.0262475
0.0262061
0.0261827
0.026178
0.0261915
0.0262235
0.026273
0.02634
0.0264233
0.0265219
0.0266337
0.0267576
0.026891
0.0270321
0.0271775
0.0273244
0.0274685
0.0276067
0.0277334
0.0278448
0.0279344
0.0279978
0.0280272
0.0280177
0.0279599
0.0278487
0.0276733
0.0274282
0.0271018
0.0266884
0.026176
0.0255583
0.0248235
0.0239654
0.0229727
0.0218387
0.020553
0.0191098
0.0174995
0.0157192
0.013761
0.0116281
0.00931699
0.00684101
0.00420387
0.001429
0.0280633
0.0278337
0.0276126
0.0274009
0.0271996
0.0270097
0.0268321
0.026668
0.0265181
0.0263836
0.0262652
0.0261638
0.02608
0.0260148
0.0259683
0.0259413
0.0259338
0.0259461
0.0259778
0.026029
0.0260985
0.0261858
0.0262927
0.0264148
0.0265505
0.0266988
0.0268571
0.0270234
0.027194
0.0273663
0.0275357
0.0276989
0.0278504
0.0279863
0.0280995
0.0281858
0.0282371
0.0282486
0.0282105
0.0281175
0.0279586
0.0277284
0.0274149
0.0270124
0.0265087
0.0258978
0.0251674
0.0243118
0.0233193
0.022183
0.0208926
0.019441
0.0178182
0.0160203
0.0140381
0.0118737
0.0095224
0.00699774
0.00430284
0.00146369
0.0275567
0.0273233
0.0270998
0.0268872
0.0266864
0.0264987
0.0263251
0.0261667
0.0260244
0.0258994
0.0257925
0.0257046
0.0256364
0.0255887
0.0255618
0.0255564
0.0255724
0.0256101
0.0256692
0.0257496
0.0258507
0.0259722
0.0261087
0.026263
0.0264326
0.026616
0.0268102
0.0270127
0.0272198
0.0274286
0.0276344
0.0278337
0.0280209
0.0281917
0.0283387
0.0284578
0.0285405
0.0285821
0.028572
0.0285051
0.0283698
0.0281606
0.0278653
0.0274781
0.0269866
0.026385
0.0256609
0.0248087
0.0238168
0.0226777
0.0213813
0.0199185
0.0182791
0.016457
0.0144413
0.0122325
0.00982376
0.00722853
0.00444918
0.00151513
0.0268894
0.0266513
0.0264247
0.026211
0.0260112
0.0258268
0.0256586
0.0255082
0.0253763
0.0252644
0.0251731
0.0251037
0.0250565
0.0250325
0.0250319
0.0250553
0.0251026
0.0251739
0.0252687
0.0253868
0.0255271
0.0256887
0.025869
0.0260677
0.0262827
0.0265122
0.0267529
0.0270023
0.0272565
0.0275122
0.0277646
0.0280102
0.0282429
0.0284583
0.0286488
0.0288099
0.0289326
0.0290124
0.0290379
0.0290042
0.0288986
0.0287162
0.0284436
0.0280753
0.0275988
0.0270084
0.0262919
0.0254439
0.024453
0.0233109
0.0220082
0.0205331
0.0188746
0.017024
0.0149673
0.0127027
0.0102205
0.00753378
0.00464392
0.00158395
0.026058
0.0258139
0.0255838
0.0253691
0.025171
0.024991
0.0248303
0.0246904
0.0245724
0.0244776
0.0244068
0.0243611
0.024341
0.0243475
0.0243805
0.0244407
0.0245277
0.0246414
0.024781
0.0249461
0.0251364
0.0253487
0.0255818
0.025835
0.0261056
0.0263913
0.0266887
0.026995
0.0273061
0.0276184
0.0279271
0.0282283
0.0285157
0.0287846
0.0290272
0.0292388
0.0294093
0.0295348
0.0296028
0.029609
0.0295387
0.0293879
0.0291419
0.0287953
0.0283357
0.0277577
0.0270496
0.0262063
0.0252169
0.0240724
0.0227645
0.0212769
0.0195987
0.0177179
0.0156148
0.0132856
0.0107151
0.00791642
0.00488993
0.00167146
0.0250554
0.0248042
0.0245701
0.0243546
0.024159
0.0239852
0.0238345
0.0237085
0.0236082
0.0235353
0.0234905
0.0234749
0.0234889
0.0235335
0.0236084
0.0237142
0.0238501
0.0240161
0.0242114
0.0244351
0.0246831
0.0249559
0.0252522
0.0255699
0.025906
0.0262576
0.0266215
0.0269941
0.0273713
0.0277493
0.0281231
0.0284885
0.0288388
0.0291691
0.0294718
0.0297426
0.0299674
0.0301456
0.0302625
0.0303148
0.0302849
0.0301702
0.0299537
0.0296309
0.0291892
0.0286233
0.0279237
0.0270851
0.026098
0.0249522
0.0236417
0.0221432
0.0204474
0.0185372
0.0163847
0.0139847
0.0113122
0.00838214
0.00519213
0.00177954
0.0238707
0.0236115
0.0233731
0.0231573
0.0229658
0.0228004
0.0226627
0.0225545
0.022477
0.0224317
0.0224194
0.0224413
0.0224976
0.022589
0.0227152
0.0228763
0.0230712
0.0233
0.0235607
0.0238514
0.0241693
0.0245145
0.024885
0.0252774
0.0256888
0.0261159
0.0265554
0.0270031
0.0274552
0.0279071
0.0283542
0.0287915
0.0292119
0.0296107
0.0299794
0.0303122
0.0306026
0.0308414
0.0310139
0.0311181
0.0311329
0.0310586
0.0308734
0.0305758
0.0301519
0.0295968
0.0289045
0.0280695
0.0270854
0.02594
0.0246315
0.0231254
0.0214176
0.019482
0.01728
0.0148052
0.0120186
0.00893939
0.00555729
0.00191074
0.0224899
0.0222218
0.0219791
0.0217639
0.0215783
0.0214243
0.0213036
0.0212183
0.0211696
0.0211591
0.0211874
0.0212557
0.0213638
0.0215123
0.0217005
0.0219279
0.0221935
0.0224971
0.0228345
0.0232033
0.0236027
0.0240316
0.0244865
0.0249633
0.0254597
0.0259712
0.0264951
0.027026
0.027561
0.0280943
0.0286219
0.029138
0.0296355
0.0301101
0.0305529
0.030959
0.0313164
0.0316206
0.0318543
0.0320159
0.0320797
0.0320498
0.0318966
0.0316249
0.0312164
0.0306692
0.0299819
0.0291486
0.0281678
0.0270252
0.0257254
0.0242165
0.0225066
0.0205537
0.0183057
0.0157547
0.0128435
0.00959923
0.00599353
0.00206837
0.0208953
0.0206175
0.0203708
0.0201578
0.0199807
0.019842
0.0197435
0.0196875
0.0196752
0.0197082
0.0197869
0.0199123
0.0200836
0.0203016
0.0205642
0.020871
0.0212206
0.0216108
0.0220365
0.0224968
0.0229904
0.0235141
0.0240635
0.0246344
0.0252249
0.0258292
0.0264455
0.0270669
0.0276918
0.028313
0.0289275
0.0295282
0.0301089
0.0306654
0.0311877
0.0316717
0.0321035
0.0324794
0.0327806
0.0330051
0.033123
0.0331414
0.0330201
0.0327742
0.0323757
0.0318313
0.0311446
0.0303096
0.029332
0.0281961
0.0269136
0.0254085
0.0237115
0.0217537
0.0194683
0.0168428
0.0138
0.0103753
0.0065099
0.00225701
0.0190656
0.0187773
0.0185273
0.0183186
0.0181537
0.0180355
0.017966
0.0179475
0.0179811
0.0180685
0.0182097
0.0184053
0.0186539
0.0189558
0.0193073
0.0197086
0.0201549
0.0206471
0.0211753
0.0217413
0.0223412
0.0229703
0.023624
0.0242984
0.0249913
0.0256959
0.0264116
0.0271295
0.0278504
0.0285648
0.0292716
0.0299618
0.0306309
0.0312744
0.0318807
0.0324477
0.0329596
0.0334136
0.0337893
0.0340825
0.0342611
0.0343317
0.0342422
0.034021
0.0336236
0.0330745
0.0323796
0.0315369
0.0305621
0.0294389
0.0281841
0.0266922
0.0250289
0.0230834
0.0207735
0.0180803
0.0149068
0.011284
0.00711732
0.00248346
0.0169749
0.0166757
0.0164237
0.0162224
0.0160747
0.0159838
0.0159518
0.0159813
0.016073
0.0162285
0.0164472
0.0167289
0.0170721
0.0174752
0.0179344
0.0184499
0.0190144
0.0196179
0.0202626
0.0209476
0.0216652
0.02241
0.0231776
0.0239637
0.0247662
0.0255774
0.0263978
0.0272173
0.0280391
0.0288507
0.029654
0.0304373
0.0311991
0.0319332
0.0326273
0.0332824
0.0338789
0.0344176
0.0348754
0.0352445
0.035493
0.0356197
0.0355631
0.0353642
0.0349537
0.0343893
0.033673
0.0328124
0.0318388
0.0307365
0.0295224
0.0280556
0.0264537
0.0245436
0.0222256
0.0194783
0.0161842
0.0123424
0.00783178
0.00275876
0.0145926
0.0142824
0.0140305
0.0138408
0.0137169
0.0136623
0.0136791
0.0137698
0.013935
0.0141758
0.0144902
0.0148781
0.0153358
0.0158603
0.0164474
0.0170941
0.0177888
0.0185277
0.0193082
0.0201269
0.0209741
0.0218447
0.0227347
0.0236396
0.0245571
0.0254793
0.0264084
0.0273329
0.0282587
0.0291701
0.0300732
0.0309524
0.0318097
0.0326366
0.0334211
0.0341685
0.0348535
0.0354841
0.0360317
0.036486
0.0368176
0.0370051
0.0369854
0.0368033
0.0363593
0.0357646
0.0350066
0.0341148
0.0331405
0.032069
0.0309098
0.0294844
0.0279787
0.0261309
0.0238248
0.0210493
0.0176506
0.0135617
0.00867582
0.00310038
0.0118823
0.0115616
0.0113127
0.0111407
0.0110494
0.0110426
0.0111227
0.0112918
0.0115499
0.0118974
0.0123308
0.0128491
0.0134458
0.0141171
0.0148563
0.0156557
0.0165033
0.0173967
0.0183298
0.0192954
0.0202829
0.0212881
0.0223073
0.0233353
0.0243711
0.0254066
0.026446
0.0274773
0.0285086
0.0295216
0.0305263
0.0315025
0.0324573
0.0333773
0.0342534
0.0350957
0.0358712
0.0366017
0.0372467
0.0378005
0.0382323
0.0384875
0.0385148
0.0383383
0.0378341
0.0371863
0.0363565
0.0354162
0.0344401
0.033414
0.0323252
0.0309625
0.0295946
0.0278384
0.0255696
0.0228069
0.0193184
0.0149445
0.00967916
0.00353171
0.00880104
0.00847074
0.00822947
0.00808309
0.00803591
0.0080923
0.00825425
0.00852358
0.00889943
0.00938053
0.00996196
0.0106407
0.0114065
0.0122547
0.0131741
0.0141534
0.0151777
0.0162464
0.0173479
0.0184726
0.0196098
0.0207558
0.0219078
0.0230601
0.0242141
0.0253621
0.0265113
0.027649
0.0287857
0.0299009
0.0310081
0.0320818
0.0331348
0.0341463
0.035114
0.0360499
0.0369148
0.0377536
0.038503
0.0391772
0.0397308
0.040067
0.0401599
0.0399711
0.0393703
0.0386338
0.0376931
0.0366807
0.0356997
0.0347426
0.0337487
0.0324763
0.031287
0.0296533
0.0274601
0.0247645
0.0211842
0.0164788
0.0108805
0.00408064
0.00529806
0.00495992
0.00473236
0.0046222
0.0046344
0.00477368
0.00504145
0.00543911
0.00596399
0.00661295
0.00737865
0.00825465
0.00922682
0.0102879
0.0114196
0.012608
0.0138368
0.0151027
0.016388
0.0176826