/*--------------------------------*- C++ -*----------------------------------*\
| =========                 |                                                 |
| \\      /  F ield         | OpenFOAM: The Open Source CFD Toolbox           |
|  \\    /   O peration     | Version:  2312                                  |
|   \\  /    A nd           | Website:  www.openfoam.com                      |
|    \\/     M anipulation  |                                                 |
\*---------------------------------------------------------------------------*/
FoamFile
{
    version     2.0;
    format      ascii;
    arch        "LSB;label=32;scalar=64";
    class       volVectorField;
    location    "60.6";
    object      U;
}
// * * * * * * * * * * * * * * * * * * * * * * * * * * * * * * * * * * * * * //

dimensions      [0 1 -1 0 0 0 0];

internalField   nonuniform List<vector> 
5478
(
(-0.0300377 0.0293923 -1.15178e-19)
(-0.0330603 0.0477165 0)
(0.0171171 0.0432202 1.76838e-19)
(0.124508 0.0260106 -3.1171e-19)
(0.295289 0.00495797 2.06731e-19)
(0.515186 -0.0141377 -6.09099e-20)
(0.748655 -0.0284377 -1.07075e-19)
(0.958419 -0.0386166 0)
(1.11745 -0.046354 0)
(1.21556 -0.0531396 1.22408e-19)
(1.25809 -0.0594995 -6.06319e-20)
(1.25301 -0.0617592 -8.76994e-20)
(1.22565 -0.0692699 -3.16442e-20)
(1.18741 -0.058379 0)
(1.13613 -0.0728901 6.93436e-20)
(-0.0285819 0.0207415 2.3076e-19)
(-0.0121735 0.0262039 0)
(0.0835459 0.0160863 0)
(0.26693 0.00262659 -1.55045e-19)
(0.520041 -0.00396193 2.05224e-19)
(0.788177 -0.00246035 6.00118e-20)
(1.01756 0.00228962 -1.00029e-19)
(1.17777 0.00476451 8.86983e-20)
(1.26312 0.00226135 2.09317e-19)
(1.28783 -0.00506927 -1.8133e-19)
(1.27116 -0.0132972 3.28644e-21)
(1.23942 -0.0222046 0)
(1.2064 -0.0266418 3.15877e-20)
(1.17658 -0.025525 0)
(1.15888 -0.0326425 0)
(-0.0245779 0.0135579 -5.98417e-22)
(0.030213 0.00598279 -1.05725e-19)
(0.203531 -0.00407622 2.67833e-22)
(0.482689 -0.000562793 0)
(0.788482 0.0164988 -6.71468e-20)
(1.04033 0.0358536 5.70208e-20)
(1.20242 0.0479204 4.79223e-20)
(1.27785 0.0493213 0)
(1.29243 0.0422752 -6.99631e-20)
(1.27484 0.0318776 5.74189e-20)
(1.25021 0.0217816 4.66301e-20)
(1.22782 0.014953 0)
(1.20823 0.0109941 0)
(1.19242 0.00957896 -8.80959e-20)
(1.17414 0.00609259 7.84724e-20)
(-0.0133605 0.00646816 -1.22204e-19)
(0.10762 -0.0105018 1.04516e-19)
(0.388677 -0.00458471 -9.05337e-20)
(0.738231 0.0270054 7.87783e-20)
(1.02677 0.0614096 1.33502e-19)
(1.20353 0.0831112 -1.12419e-19)
(1.28093 0.0889938 -4.78948e-20)
(1.29679 0.0837567 3.69863e-20)
(1.28558 0.0740815 -3.54155e-20)
(1.26851 0.0642311 0)
(1.25016 0.0563365 0)
(1.23018 0.0492986 -6.57323e-20)
(1.20897 0.0438495 8.44658e-20)
(1.18645 0.0395198 -4.72274e-20)
(1.16297 0.0319935 0)
(0.0105495 -0.00155043 6.16458e-20)
(0.231613 -0.0166447 5.22541e-20)
(0.617552 0.0239148 -1.86128e-19)
(0.967767 0.0775905 1.90028e-21)
(1.18336 0.11272 -2.39189e-21)
(1.27882 0.125698 -1.15256e-21)
(1.3034 0.124196 4.40932e-20)
(1.29712 0.116422 3.78796e-20)
(1.28064 0.106919 2.69741e-20)
(1.25948 0.0973737 -4.3389e-21)
(1.23638 0.0878937 -6.15737e-20)
(1.21388 0.0790985 0)
(1.19371 0.0725046 2.70706e-20)
(1.17647 0.0645304 -1.97485e-20)
(1.16395 0.0615164 3.59984e-20)
(0.0532767 -0.00857811 -1.29953e-19)
(0.401572 0.000308963 1.41073e-19)
(0.837584 0.077504 -4.80744e-20)
(1.1306 0.136392 3.70972e-20)
(1.26781 0.162144 -6.76691e-20)
(1.30929 0.166109 -5.10087e-20)
(1.30687 0.159838 1.04384e-21)
(1.28852 0.149639 0)
(1.26548 0.138219 5.48615e-20)
(1.2432 0.126803 -4.87868e-20)
(1.22356 0.116446 1.94923e-20)
(1.20644 0.1075 0)
(1.19053 0.0994347 1.19754e-20)
(1.17526 0.0918728 -2.06552e-20)
(1.15753 0.0874869 0)
(0.118673 -0.0084736 -1.61828e-20)
(0.59063 0.0482235 1.05737e-21)
(1.01109 0.145214 2.38491e-20)
(1.23121 0.197188 3.96376e-20)
(1.30759 0.211433 -3.0448e-20)
(1.31399 0.206968 5.14016e-20)
(1.29543 0.195584 -1.1683e-20)
(1.27177 0.182406 0)
(1.24973 0.169331 -3.22095e-20)
(1.2296 0.157063 2.06307e-21)
(1.21044 0.145511 2.69815e-20)
(1.19185 0.134577 0)
(1.17443 0.124768 -1.75175e-20)
(1.15811 0.114918 0)
(1.14447 0.110126 1.07244e-20)
(0.204497 0.00594426 -1.73684e-20)
(0.761005 0.120499 0)
(1.13225 0.220394 2.43324e-20)
(1.28428 0.259166 0)
(1.31573 0.260691 0)
(1.30156 0.248119 0)
(1.27682 0.232271 -1.00194e-20)
(1.25239 0.21623 0)
(1.22959 0.200641 6.48658e-21)
(1.20863 0.185659 0)
(1.19006 0.171678 -8.46076e-21)
(1.1743 0.159028 0)
(1.16074 0.14755 5.53609e-21)
(1.14882 0.137469 0)
(1.13649 0.131564 3.61547e-21)
(-0.00660254 -0.0230105 -1.13734e-20)
(-0.0288839 -0.0862604 0)
(-0.0675839 -0.130357 1.79876e-20)
(-0.109109 -0.16074 0)
(-0.149769 -0.191593 0)
(-0.188621 -0.229022 0)
(-0.224624 -0.272374 -1.15812e-20)
(-0.25622 -0.318966 0)
(-0.281368 -0.365227 9.42293e-21)
(-0.29802 -0.406596 0)
(-0.304338 -0.437805 -1.51856e-20)
(-0.298378 -0.453249 0)
(-0.279106 -0.446788 1.20266e-20)
(-0.247703 -0.413198 0)
(-0.200308 -0.353937 9.40447e-21)
(-0.00911213 0.000190363 5.76152e-20)
(-0.0317946 -0.042819 -4.16129e-20)
(-0.0709114 -0.0792069 1.94372e-20)
(-0.111978 -0.106871 6.61971e-20)
(-0.151617 -0.136698 4.66807e-22)
(-0.189316 -0.174124 -5.25433e-20)
(-0.22447 -0.21898 3.50313e-20)
(-0.256092 -0.269492 0)
(-0.282864 -0.322882 2.90181e-20)
(-0.303727 -0.37513 -3.61577e-23)
(-0.317922 -0.421116 -1.52253e-20)
(-0.323979 -0.454804 0)
(-0.3198 -0.469512 -3.41572e-20)
(-0.311092 -0.457723 0)
(-0.28003 -0.423545 -4.28224e-20)
(-0.0141771 0.023441 9.6166e-20)
(-0.0363097 0.00121066 2.21901e-20)
(-0.0711056 -0.0277752 -3.73433e-20)
(-0.106174 -0.0528116 -1.02093e-19)
(-0.138307 -0.0812493 6.0706e-20)
(-0.166764 -0.117569 5.58576e-20)
(-0.190454 -0.162061 -1.00806e-19)
(-0.208192 -0.213609 0)
(-0.218908 -0.269732 -8.00361e-20)
(-0.222671 -0.326644 7.11672e-20)
(-0.221185 -0.37975 3.09492e-20)
(-0.216377 -0.42384 0)
(-0.199705 -0.452879 2.21191e-20)
(-0.206873 -0.455645 -3.27057e-20)
(-0.152032 -0.443395 0)
(-0.0205253 0.0419118 5.10328e-20)
(-0.0414547 0.0392311 -1.33827e-19)
(-0.068418 0.0178988 1.59404e-19)
(-0.0935451 -0.00428598 -1.43487e-19)
(-0.113175 -0.0307256 -6.56284e-20)
(-0.125273 -0.0652831 5.9403e-20)
(-0.128249 -0.10895 5.12931e-20)
(-0.120272 -0.160643 4.83378e-20)
(-0.10013 -0.217233 -1.26363e-19)
(-0.0688557 -0.273902 2.35528e-21)
(-0.0294096 -0.325469 3.30721e-20)
(0.00276528 -0.369207 0)
(0.0701086 -0.39364 3.95137e-20)
(0.0515701 -0.405568 8.73859e-20)
(0.166779 -0.387514 -4.89423e-20)
(-0.0265879 0.0524795 1.02167e-21)
(-0.0460962 0.0661808 9.44148e-20)
(-0.0623747 0.0526931 -8.39214e-20)
(-0.0726451 0.0336375 7.27516e-20)
(-0.0734808 0.00928518 1.33425e-19)
(-0.0614372 -0.0235139 -1.20742e-19)
(-0.0330118 -0.0663677 -5.54125e-20)
(0.0138771 -0.1178 -1.4666e-19)
(0.078801 -0.173924 1.30172e-19)
(0.15649 -0.229399 0)
(0.245692 -0.273912 0)
(0.313322 -0.315108 9.47895e-20)
(0.43153 -0.323282 -1.95424e-19)
(0.426318 -0.331766 6.37348e-20)
(0.587827 -0.304262 0)
(-0.030629 0.054392 -2.62099e-22)
(-0.0484965 0.0795602 -9.51932e-20)
(-0.0524388 0.0733416 2.54559e-19)
(-0.0439321 0.0569363 -7.56289e-20)
(-0.0191589 0.0335095 -6.78377e-20)
(0.0264302 0.00109143 6.13753e-20)
(0.0969983 -0.0409359 5.54288e-20)
(0.193688 -0.0899288 9.94468e-20)
(0.311297 -0.141469 -1.75092e-19)
(0.440361 -0.189452 7.37372e-20)
(0.565978 -0.225546 6.07123e-20)
(0.671174 -0.252741 0)
(0.790676 -0.257106 0)
(0.814863 -0.25349 9.99416e-20)
(0.938652 -0.2226 -8.89519e-20)
(-0.0319821 0.0490499 9.93892e-22)
(-0.0476236 0.0790266 0)
(-0.0381773 0.077734 0)
(-0.00717378 0.0624839 1.56176e-19)
(0.0498225 0.0382388 -6.84263e-20)
(0.139328 0.00534148 6.21432e-20)
(0.263872 -0.0344841 1.1175e-19)
(0.416852 -0.0771698 -9.90861e-20)
(0.583147 -0.118795 8.68578e-20)
(0.745628 -0.151553 -7.37928e-20)
(0.879511 -0.177775 -3.14718e-21)
(0.996003 -0.188593 0)
(1.06013 -0.18699 3.5387e-20)
(1.10224 -0.181756 0)
(1.13023 -0.151368 0)
(-0.031314 0.039551 -1.11812e-19)
(-0.043083 0.0669391 0)
(-0.0178348 0.0663505 -1.76361e-19)
(0.0426153 0.0503584 3.11926e-19)
(0.145362 0.0255378 -3.4717e-19)
(0.294778 -0.0047107 -6.29061e-20)
(0.48151 -0.0364128 1.09735e-19)
(0.682188 -0.0656519 0)
(0.871437 -0.089904 0)
(1.02391 -0.107427 -1.31575e-19)
(1.1325 -0.119745 -4.64008e-20)
(1.19361 -0.121377 9.42986e-20)
(1.20579 -0.122543 -3.54514e-20)
(1.20522 -0.115184 0)
(1.16497 -0.0956661 -7.23657e-20)
(-0.145237 -0.225148 0)
(0.0434045 0.0988522 4.39524e-21)
(0.234677 0.431494 -4.07032e-21)
(0.432769 0.624915 0)
(0.518139 0.728242 0)
(0.30696 0.831069 -1.05651e-22)
(0.373633 0.550524 0)
(0.652242 -0.0268926 0)
(0.806337 -0.406447 8.61452e-23)
(0.886983 -0.514269 0)
(0.867861 -0.56067 0)
(0.740676 -0.606258 -6.92616e-23)
(0.635645 -0.457348 0)
(0.717267 -0.143428 -5.9115e-23)
(0.854893 0.12336 -6.61481e-23)
(0.878506 0.329693 0)
(0.845054 0.495512 -3.9308e-22)
(0.923392 0.480934 4.51025e-22)
(1.0112 0.354864 0)
(0.996457 0.171012 3.43285e-22)
(0.914119 -0.172633 -3.90669e-22)
(0.84065 -0.430905 8.1251e-23)
(0.887011 -0.345838 -1.50955e-23)
(0.922345 0.00600076 1.44243e-23)
(0.909501 0.275031 -1.84857e-23)
(0.818862 0.324033 0)
(0.729887 0.195472 -9.58961e-23)
(0.686591 -0.0240811 9.16917e-23)
(0.665414 -0.161978 -9.95003e-23)
(0.686269 -0.197817 0)
(0.742948 -0.189677 -8.19519e-23)
(0.810862 -0.135556 0)
(0.854539 -0.0904246 -7.19228e-24)
(0.87 -0.0675604 3.33528e-24)
(0.8698 -0.0443234 -7.8011e-25)
(0.889022 -0.0203063 6.50877e-24)
(0.905794 -0.00676228 0)
(0.945842 0.0207446 -2.60121e-24)
(-0.302543 -0.315525 1.53669e-20)
(-0.149331 -0.048059 -1.28448e-22)
(0.0245056 0.269002 -1.02501e-20)
(0.257297 0.541118 9.77572e-21)
(0.291871 0.7728 0)
(0.216055 0.846876 1.06492e-22)
(0.478399 0.447268 -2.52974e-22)
(0.781429 -0.124685 0)
(0.909307 -0.46858 -8.67842e-23)
(0.951578 -0.531993 0)
(0.912372 -0.529643 0)
(0.802378 -0.559658 6.9751e-23)
(0.688677 -0.452549 0)
(0.735041 -0.18862 1.97978e-21)
(0.841777 0.0855025 -1.64492e-21)
(0.845501 0.318838 1.95651e-21)
(0.815719 0.479304 -1.86763e-21)
(0.886056 0.454416 -7.61908e-23)
(0.968243 0.346002 0)
(0.987998 0.187477 0)
(0.939285 -0.146689 -8.42631e-23)
(0.864014 -0.427959 3.60333e-22)
(0.905552 -0.362314 -3.58271e-22)
(0.936728 -0.000735213 6.73749e-23)
(0.91428 0.287084 6.02325e-23)
(0.823444 0.346005 0)
(0.742665 0.212584 1.98419e-22)
(0.704113 -0.0161484 0)
(0.686352 -0.162437 9.98482e-23)
(0.704275 -0.204215 -2.37437e-22)
(0.750445 -0.20106 3.94011e-22)
(0.823612 -0.146266 -1.93869e-23)
(0.883119 -0.0957711 2.5265e-23)
(0.908118 -0.0685177 2.05593e-24)
(0.898971 -0.0447027 -4.71588e-24)
(0.903423 -0.0216779 5.98267e-24)
(0.906791 -0.00963583 6.07263e-25)
(0.941898 0.0185029 -7.59256e-25)
(-0.245501 -0.367581 1.9951e-20)
(-0.193204 -0.171074 -3.47991e-20)
(-0.0932109 0.115678 2.49495e-21)
(0.0941905 0.448709 1.21062e-20)
(0.125028 0.754843 1.33318e-22)
(0.246524 0.769409 -1.93787e-22)
(0.622728 0.334391 2.5733e-22)
(0.92481 -0.188559 -5.37401e-22)
(1.00689 -0.494845 0)
(1.00432 -0.526037 6.89678e-21)
(0.938303 -0.496903 -6.57874e-21)
(0.846136 -0.522933 -1.27463e-22)
(0.755953 -0.447972 0)
(0.764786 -0.224442 -3.42864e-21)
(0.820068 0.0688662 3.14839e-21)
(0.815663 0.325049 -1.8635e-21)
(0.792652 0.46812 1.77822e-21)
(0.834049 0.430832 1.17843e-21)
(0.912978 0.330731 -9.91405e-22)
(0.975654 0.196766 0)
(0.961817 -0.118357 0)
(0.887228 -0.419653 6.43123e-22)
(0.918912 -0.380313 -6.13986e-22)
(0.948844 -0.00729442 -7.17932e-23)
(0.921118 0.298051 -2.56565e-22)
(0.833457 0.362792 3.14152e-22)
(0.758461 0.227521 2.23109e-23)
(0.723041 -0.00761109 -5.48389e-22)
(0.707672 -0.162184 1.22791e-21)
(0.725906 -0.209145 -1.05579e-21)
(0.761863 -0.211099 3.6856e-23)
(0.828801 -0.15809 -1.1673e-22)
(0.897755 -0.103382 4.75117e-24)
(0.938203 -0.070338 -4.54276e-24)
(0.929689 -0.0440277 6.41025e-24)
(0.923788 -0.0213332 5.4321e-24)
(0.912726 -0.0112272 -1.40455e-23)
(0.939068 0.0166507 -3.08623e-24)
(0.0427061 -0.350661 0)
(-0.0326083 -0.236848 6.8749e-21)
(-0.032891 -0.0187735 -6.7988e-21)
(0.086259 0.319133 0)
(0.142835 0.654094 -1.37045e-22)
(0.373311 0.635547 1.99128e-22)
(0.775585 0.227107 0)
(1.06433 -0.22442 3.13202e-23)
(1.10161 -0.496079 -3.88339e-22)
(1.06111 -0.514278 0)
(0.98302 -0.461423 -4.9423e-21)
(0.884816 -0.491544 4.84302e-21)
(0.818827 -0.44668 -1.9346e-22)
(0.813454 -0.254106 -3.1493e-21)
(0.831266 0.0353446 3.00343e-21)
(0.809425 0.306623 2.31354e-22)
(0.761845 0.462363 0)
(0.764092 0.421278 -1.42571e-22)
(0.850339 0.314877 1.95505e-21)
(0.960322 0.200147 5.27788e-22)
(0.982549 -0.0895142 9.42073e-23)
(0.912743 -0.405294 -2.0026e-21)
(0.930284 -0.399747 -2.22006e-22)
(0.959144 -0.0245012 2.95145e-22)
(0.929064 0.30239 -4.66624e-23)
(0.846561 0.383933 0)
(0.776583 0.247555 -2.2572e-22)
(0.744717 0.00394901 5.55611e-22)
(0.730117 -0.160976 -1.28343e-21)
(0.747889 -0.213301 1.10614e-21)
(0.777997 -0.219626 -1.85942e-22)
(0.833669 -0.169624 0)
(0.901865 -0.112665 -6.17418e-24)
(0.956377 -0.0737868 7.2862e-24)
(0.955849 -0.0433558 -8.2713e-24)
(0.946543 -0.0197392 -2.33859e-23)
(0.923453 -0.0113779 1.40554e-23)
(0.938154 0.0153941 -2.07013e-25)
(0.460924 -0.263262 1.91427e-22)
(0.313675 -0.204941 2.01749e-22)
(0.22042 -0.101591 0)
(0.229767 0.178556 0)
(0.295228 0.532452 0)
(0.545435 0.513051 0)
(0.925505 0.14277 1.60066e-20)
(1.18659 -0.231759 -2.99203e-20)
(1.19187 -0.461869 1.48607e-20)
(1.10684 -0.487027 0)
(1.03026 -0.421856 -4.75294e-21)
(0.921669 -0.456647 4.6878e-21)
(0.861109 -0.452959 3.21589e-21)
(0.871659 -0.286624 -2.70276e-21)
(0.856585 0.0166392 3.61269e-21)
(0.813681 0.314503 -3.68166e-21)
(0.742596 0.470478 -2.01114e-22)
(0.704876 0.409088 -2.08544e-21)
(0.796377 0.284614 1.98686e-21)
(0.945903 0.191071 2.49984e-22)
(0.999574 -0.0624151 3.17069e-22)
(0.938052 -0.385635 1.23827e-21)
(0.939695 -0.418572 -1.41779e-21)
(0.967622 -0.0410141 -9.86395e-24)
(0.940383 0.307448 -5.12913e-23)
(0.86359 0.39699 -1.48146e-22)
(0.797008 0.262227 0)
(0.768861 0.014664 0)
(0.754754 -0.158837 0)
(0.769447 -0.216648 0)
(0.795864 -0.22673 4.61968e-22)
(0.841462 -0.179906 -2.60709e-22)
(0.901585 -0.122466 1.6177e-23)
(0.963987 -0.078836 3.56331e-24)
(0.974102 -0.0434942 -7.05401e-24)
(0.967775 -0.0176245 -4.6346e-24)
(0.937574 -0.0102243 1.71076e-23)
(0.939632 0.0148504 7.28869e-24)
(0.864441 -0.197024 -2.01327e-22)
(0.717504 -0.12292 4.00068e-21)
(0.625558 -0.0894039 -3.8932e-21)
(0.511157 0.073219 1.1707e-20)
(0.491708 0.38863 -1.1151e-20)
(0.723162 0.390669 1.96399e-20)
(1.07367 0.0767382 -1.81729e-20)
(1.28015 -0.222138 4.12671e-22)
(1.2574 -0.407789 -3.81865e-22)
(1.13418 -0.452408 0)
(1.05989 -0.386824 -1.74486e-22)
(0.966951 -0.414508 7.59995e-21)
(0.87517 -0.454578 -7.23474e-21)
(0.907526 -0.319067 -1.78543e-22)
(0.894492 -0.0212201 0)
(0.832392 0.291168 -3.87057e-21)
(0.719856 0.483341 6.76596e-21)
(0.647257 0.424664 -2.76666e-21)
(0.750739 0.26095 0)
(0.932757 0.179575 2.10951e-21)
(1.013 -0.0355868 -9.03602e-23)
(0.963553 -0.360556 -2.36974e-21)
(0.950046 -0.434517 -6.57697e-22)
(0.975628 -0.0721758 5.29141e-22)
(0.95346 0.29899 -8.58021e-22)
(0.882702 0.416809 -9.8488e-22)
(0.819468 0.287417 1.99784e-21)
(0.794925 0.0308687 -2.50065e-21)
(0.781656 -0.154267 2.37791e-21)
(0.791484 -0.218672 -5.85173e-22)
(0.813381 -0.232605 5.56398e-22)
(0.851581 -0.188797 0)
(0.901529 -0.131894 2.07989e-23)
(0.964973 -0.0849559 -2.40611e-23)
(0.984298 -0.0447729 0)
(0.984704 -0.0156732 1.96578e-23)
(0.953026 -0.00813176 -1.14437e-23)
(0.943538 0.0150119 3.58887e-24)
(1.08156 -0.150772 0)
(0.976089 -0.0735059 0)
(0.941039 -0.0404965 -3.06963e-23)
(0.847614 0.0533863 0)
(0.737902 0.312155 0)
(0.928746 0.312963 1.29379e-20)
(1.2273 0.0378626 -1.23527e-20)
(1.34274 -0.19538 2.36054e-20)
(1.29092 -0.345436 -2.2561e-20)
(1.15855 -0.412243 0)
(1.06966 -0.362973 -1.6555e-22)
(1.00668 -0.371072 1.27206e-22)
(0.894457 -0.44234 -6.82237e-21)
(0.906741 -0.369644 -6.64406e-22)
(0.934997 -0.0523385 6.71202e-21)
(0.852134 0.306441 1.20408e-22)
(0.70253 0.514108 -1.13223e-22)
(0.622913 0.427078 5.12408e-21)
(0.728436 0.22207 -5.04491e-21)
(0.925808 0.155248 0)
(1.02291 -0.0135998 0)
(0.986793 -0.331673 -1.44479e-22)
(0.961509 -0.452106 0)
(0.982135 -0.0984975 3.20328e-22)
(0.967903 0.296646 6.27705e-22)
(0.902783 0.424783 -8.46343e-22)
(0.84244 0.299322 -3.34733e-21)
(0.821104 0.0426273 2.23315e-21)
(0.808971 -0.149297 -2.97088e-22)
(0.814071 -0.220018 0)
(0.830256 -0.237993 -3.14712e-22)
(0.862413 -0.196986 2.98388e-22)
(0.903529 -0.140811 2.68644e-23)
(0.96316 -0.091646 -9.85952e-24)
(0.988284 -0.0471819 -1.38397e-24)
(0.996194 -0.0143561 -1.0965e-23)
(0.967759 -0.00554618 0)
(0.949476 0.0157613 -6.00465e-24)
(1.12317 -0.118794 4.43569e-20)
(1.06887 -0.0723114 1.93848e-20)
(1.05612 -0.0491481 -1.23276e-20)
(1.01317 0.00138208 -8.30561e-22)
(0.935211 0.196731 -4.68612e-21)
(1.07846 0.233441 -1.44376e-23)
(1.29468 0.0587566 0)
(1.34666 -0.1098 -1.79344e-22)
(1.29241 -0.253782 -1.57811e-22)
(1.18802 -0.351747 0)
(1.0822 -0.338496 -9.83696e-21)
(1.0352 -0.334923 9.37235e-21)
(0.927146 -0.407117 1.04413e-22)
(0.880292 -0.397236 7.98656e-21)
(0.931193 -0.131521 -7.56856e-21)
(0.870716 0.250324 1.32559e-22)
(0.715447 0.52752 1.19695e-22)
(0.603081 0.466814 0)
(0.714242 0.213239 4.59412e-21)
(0.923964 0.137162 -4.35715e-21)
(1.03263 0.0119591 -2.46774e-21)
(1.006 -0.2938 5.31056e-22)
(0.975826 -0.455635 1.86104e-21)
(0.989402 -0.148896 -3.9838e-22)
(0.983643 0.270537 -5.34881e-22)
(0.926359 0.441153 3.07854e-21)
(0.867713 0.331897 -1.60745e-21)
(0.848922 0.0657389 3.23803e-21)
(0.836909 -0.141539 -2.40021e-21)
(0.836881 -0.220359 0)
(0.846875 -0.242279 0)
(0.873135 -0.204169 0)
(0.907564 -0.148834 5.01943e-24)
(0.961031 -0.0982872 -2.9001e-23)
(0.988506 -0.0504031 -1.60242e-23)
(1.0025 -0.0138935 7.53314e-24)
(0.980235 -0.00292763 7.15534e-24)
(0.956743 0.0169061 0)
(1.11119 -0.0612128 0)
(1.08677 -0.0331316 0)
(1.06194 -0.00652034 0)
(1.03561 0.022966 0)
(1.04077 0.120473 0)
(1.16525 0.13662 0)
(1.29307 0.0178072 0)
(1.29885 -0.0907271 0)
(1.25731 -0.184333 0)
(1.20327 -0.274886 0)
(1.09411 -0.282164 0)
(1.05845 -0.271034 0)
(0.97608 -0.360067 0)
(0.84995 -0.424446 0)
(0.887802 -0.179542 0)
(0.862961 0.252102 0)
(0.699342 0.565054 0)
(0.609586 0.484156 0)
(0.74963 0.167077 0)
(0.945847 0.0890832 0)
(1.05537 0.0260179 0)
(1.02877 -0.252834 0)
(0.992615 -0.444841 0)
(0.9978 -0.172413 0)
(1.0008 0.255275 0)
(0.951421 0.439999 0)
(0.89798 0.336485 0)
(0.883452 0.0787534 0)
(0.871165 -0.127513 0)
(0.865877 -0.211192 0)
(0.868133 -0.239542 0)
(0.886521 -0.20754 0)
(0.914215 -0.155475 0)
(0.959229 -0.105079 0)
(0.986666 -0.0544468 0)
(1.00526 -0.0141114 0)
(0.991958 7.327e-05 0)
(0.966381 0.0185534 0)
(1.11238 -0.0247232 0)
(1.09689 -0.0187954 0)
(1.08 -0.00403665 0)
(1.06672 0.00372671 0)
(1.09149 0.0725108 0)
(1.15359 0.0580387 0)
(1.22547 -0.00978788 0)
(1.24248 -0.0723198 0)
(1.19362 -0.194201 0)
(1.15797 -0.25492 0)
(1.05802 -0.250143 0)
(0.992118 -0.285705 0)
(0.955533 -0.332126 0)
(0.828096 -0.360808 0)
(0.822411 -0.141932 0)
(0.832727 0.299373 0)
(0.683364 0.619315 0)
(0.665092 0.463697 0)
(0.826152 0.085107 0)
(0.990787 0.0298205 0)
(1.08575 -0.00907299 0)
(1.05109 -0.273223 0)
(1.01972 -0.447546 0)
(1.02375 -0.161411 0)
(1.02733 0.266146 0)
(0.985409 0.454486 0)
(0.938648 0.347331 0)
(0.933258 0.0747554 0)
(0.919955 -0.137691 0)
(0.90528 -0.217956 0)
(0.897139 -0.244459 0)
(0.905779 -0.212987 0)
(0.926755 -0.161735 0)
(0.961435 -0.11123 0)
(0.984708 -0.0585051 0)
(1.00321 -0.0150245 0)
(0.999007 0.00307754 0)
(0.976811 0.0207194 0)
(1.10997 0.00282353 0)
(1.10097 -0.00775333 0)
(1.09983 0.0149791 0)
(1.08269 0.00125456 0)
(1.10494 0.0339715 0)
(1.14004 0.0312026 0)
(1.16302 -0.0397665 0)
(1.198 -0.0662102 0)
(1.16152 -0.139986 0)
(1.12071 -0.20206 0)
(1.07192 -0.178892 0)
(1.02373 -0.202762 0)
(0.985688 -0.259227 0)
(0.829707 -0.318813 0)
(0.733002 -0.150203 0)
(0.734138 0.323138 0)
(0.656639 0.65167 0)
(0.765745 0.430495 0)
(0.926492 0.0086256 0)
(1.04948 -0.0297023 0)
(1.12913 0.00849016 0)
(1.07938 -0.224823 0)
(1.03215 -0.437003 0)
(1.04321 -0.174727 0)
(1.04873 0.273405 0)
(1.01286 0.469374 0)
(0.98406 0.356218 0)
(0.988521 0.0850492 0)
(0.970692 -0.125668 0)
(0.945222 -0.207418 0)
(0.92553 -0.239288 0)
(0.923247 -0.214917 0)
(0.937663 -0.167172 0)
(0.96443 -0.117022 0)
(0.983642 -0.0626561 0)
(0.999017 -0.0168646 0)
(1.00019 0.00489042 0)
(0.984492 0.0225067 0)
(1.10264 0.0169641 0)
(1.09628 0.00281834 0)
(1.1 0.0125118 0)
(1.0955 -0.00313841 0)
(1.09747 0.00909606 0)
(1.12858 0.00101027 0)
(1.1318 -0.0473353 0)
(1.14663 -0.0600073 0)
(1.12864 -0.128849 0)
(1.08551 -0.17613 0)
(1.04112 -0.158871 0)
(0.982237 -0.224703 0)
(0.955157 -0.236876 0)
(0.841785 -0.20993 0)
(0.669518 -0.0729597 0)
(0.62957 0.341633 0)
(0.689249 0.614246 0)
(0.924214 0.348482 0)
(1.05465 -0.0582322 0)
(1.10481 -0.0707754 0)
(1.14904 -0.00954473 0)
(1.09915 -0.228685 0)
(1.04463 -0.43481 0)
(1.06019 -0.179822 0)
(1.07614 0.273721 0)
(1.05096 0.480885 0)
(1.03648 0.363722 0)
(1.04951 0.0842765 0)
(1.02713 -0.12654 0)
(0.988789 -0.20502 0)
(0.957061 -0.236835 0)
(0.943794 -0.216436 0)
(0.949782 -0.171351 0)
(0.968754 -0.121717 0)
(0.98396 -0.0660705 0)
(0.995352 -0.0185946 0)
(0.99808 0.0058805 0)
(0.988771 0.0237311 0)
(1.09242 0.0234846 0)
(1.09257 0.00756304 0)
(1.09523 0.0111411 0)
(1.09533 -0.00294028 0)
(1.09188 -0.00633046 0)
(1.11185 -0.00908564 0)
(1.10524 -0.0517048 0)
(1.11164 -0.0594227 0)
(1.1073 -0.098004 0)
(1.06213 -0.147351 0)
(1.04708 -0.105727 0)
(1.00261 -0.144939 0)
(0.930505 -0.168218 0)
(0.85376 -0.115658 0)
(0.712651 -0.00410476 0)
(0.665599 0.287542 0)
(0.845508 0.484405 0)
(1.10959 0.263626 0)
(1.15425 -0.0934089 0)
(1.13847 -0.0922883 0)
(1.16593 0.0161065 0)
(1.11605 -0.179428 0)
(1.04324 -0.418176 0)
(1.05961 -0.190183 0)
(1.08118 0.275152 0)
(1.06737 0.48475 0)
(1.08073 0.36109 0)
(1.10749 0.0899061 0)
(1.08106 -0.110874 0)
(1.03136 -0.187403 0)
(0.987668 -0.224881 0)
(0.964175 -0.213252 0)
(0.961575 -0.173329 0)
(0.973303 -0.12533 0)
(0.984691 -0.0688724 0)
(0.992873 -0.0200664 0)
(0.995231 0.00634293 0)
(0.990428 0.0245017 0)
(1.08202 0.0242555 0)
(1.086 0.0112397 0)
(1.08631 0.00845933 0)
(1.09001 -0.00399477 0)
(1.08372 -0.011386 0)
(1.09381 -0.0183597 0)
(1.09054 -0.0463874 0)
(1.08349 -0.0548744 0)
(1.08751 -0.0785798 0)
(1.04432 -0.118204 0)
(1.01967 -0.090887 0)
(1.00216 -0.122424 0)
(0.935979 -0.136085 0)
(0.884252 -0.0514003 0)
(0.816925 0.0525983 0)
(0.803718 0.21127 0)
(0.993389 0.323262 0)
(1.20806 0.184923 0)
(1.19688 -0.079284 0)
(1.1282 -0.0822135 0)
(1.15234 0.00889034 0)
(1.13008 -0.166735 0)
(1.02827 -0.403801 0)
(1.03248 -0.199918 0)
(1.06395 0.26928 0)
(1.07677 0.47967 0)
(1.12525 0.353836 0)
(1.16242 0.0897906 0)
(1.13177 -0.102453 0)
(1.07227 -0.17459 0)
(1.01817 -0.213661 0)
(0.985835 -0.208671 0)
(0.974638 -0.173648 0)
(0.978943 -0.127783 0)
(0.985864 -0.0710888 0)
(0.99133 -0.0212962 0)
(0.992792 0.00636973 0)
(0.990583 0.0247878 0)
(1.07167 0.0227984 0)
(1.07693 0.0120072 0)
(1.07763 0.0066177 0)
(1.08005 -0.00413809 0)
(1.07546 -0.0132817 0)
(1.07853 -0.0211898 0)
(1.07577 -0.0394755 0)
(1.06522 -0.050624 0)
(1.0667 -0.0626124 0)
(1.03925 -0.0901057 0)
(1.01703 -0.0684438 0)
(1.01049 -0.0775653 0)
(0.955595 -0.0828501 0)
(0.912778 -0.0113389 0)
(0.904596 0.0635261 0)
(0.923491 0.139105 0)
(1.04852 0.201916 0)
(1.19341 0.140381 0)
(1.1763 -0.0537678 0)
(1.10422 -0.0702821 0)
(1.1257 0.0109041 0)
(1.13684 -0.124415 0)
(1.01084 -0.356266 0)
(0.967245 -0.205629 0)
(1.02374 0.244541 0)
(1.07498 0.452685 0)
(1.14941 0.332789 0)
(1.19516 0.0922872 0)
(1.16345 -0.0797021 0)
(1.09901 -0.146688 0)
(1.03898 -0.192537 0)
(1.00245 -0.198518 0)
(0.986029 -0.170678 0)
(0.984732 -0.128216 0)
(0.987418 -0.0721277 0)
(0.990523 -0.0218926 0)
(0.99104 0.00658995 0)
(0.990084 0.0251134 0)
(1.06253 0.0205181 0)
(1.0674 0.0117649 0)
(1.06827 0.00575246 0)
(1.06953 -0.00416216 0)
(1.06637 -0.0119841 0)
(1.0658 -0.0208788 0)
(1.06313 -0.0327065 0)
(1.05444 -0.0424691 0)
(1.05234 -0.0486692 0)
(1.03562 -0.0659489 0)
(1.01455 -0.0528283 0)
(1.00962 -0.0566522 0)
(0.976421 -0.0533069 0)
(0.947316 -0.00154429 0)
(0.961344 0.0502046 0)
(0.985724 0.0894926 0)
(1.04608 0.123177 0)
(1.1425 0.101801 0)
(1.14337 -0.0224044 0)
(1.07586 -0.0457091 0)
(1.08563 -0.0105956 0)
(1.11863 -0.110093 0)
(0.995606 -0.293303 0)
(0.877633 -0.186917 0)
(0.912927 0.217919 0)
(1.00274 0.40936 0)
(1.12632 0.299585 0)
(1.19934 0.0873982 0)
(1.17505 -0.0658785 0)
(1.1108 -0.127532 0)
(1.05033 -0.176732 0)
(1.01361 -0.190245 0)
(0.994474 -0.167757 0)
(0.989273 -0.12806 0)
(0.988513 -0.0727509 0)
(0.989756 -0.0224596 0)
(0.989469 0.00639504 0)
(0.989243 0.0249886 0)
(1.05424 0.0182375 0)
(1.0582 0.0110049 0)
(1.05926 0.00519765 0)
(1.05975 -0.00327161 0)
(1.05745 -0.0099938 0)
(1.05591 -0.0183655 0)
(1.05284 -0.0259625 0)
(1.04646 -0.0347542 0)
(1.04245 -0.0377041 0)
(1.03197 -0.048984 0)
(1.01797 -0.0393629 0)
(1.01343 -0.0389974 0)
(0.995212 -0.0295099 0)
(0.97839 0.00367012 0)
(0.99057 0.0351992 0)
(1.01123 0.0608923 0)
(1.04062 0.0765009 0)
(1.09532 0.0712282 0)
(1.10536 -0.00629508 0)
(1.06373 -0.0239341 0)
(1.0602 -0.0189835 0)
(1.07894 -0.0853901 0)
(0.977558 -0.206694 0)
(0.824966 -0.134729 0)
(0.816981 0.181382 0)
(0.944347 0.325634 0)
(1.11248 0.231883 0)
(1.19868 0.0709994 0)
(1.17828 -0.0434918 0)
(1.12059 -0.0939841 0)
(1.06415 -0.149783 0)
(1.02794 -0.175101 0)
(1.00533 -0.160656 0)
(0.995386 -0.125338 0)
(0.990482 -0.0718011 0)
(0.989556 -0.0220431 0)
(0.988185 0.00683784 0)
(0.988276 0.0252883 0)
(1.04693 0.0162239 0)
(1.05009 0.0102018 0)
(1.05106 0.00511365 0)
(1.05116 -0.00223808 0)
(1.0495 -0.00758851 0)
(1.04766 -0.0153522 0)
(1.04503 -0.0200946 0)
(1.04047 -0.0279159 0)
(1.03672 -0.0286462 0)
(1.03021 -0.0361468 0)
(1.02134 -0.0287628 0)
(1.01697 -0.0277185 0)
(1.007 -0.0181629 0)
(1.00001 0.0028036 0)
(1.00725 0.022412 0)
(1.02067 0.0415039 0)
(1.0373 0.0477411 0)
(1.06719 0.0509194 0)
(1.07332 0.00291041 0)
(1.05148 -0.00506919 0)
(1.0418 -0.0201359 0)
(1.04369 -0.0652758 0)
(0.975015 -0.12836 0)
(0.852079 -0.0737139 0)
(0.834461 0.136276 0)
(0.967675 0.221821 0)
(1.12123 0.159838 0)
(1.18479 0.0563632 0)
(1.1606 -0.0273784 0)
(1.11248 -0.0736737 0)
(1.06491 -0.134231 0)
(1.03394 -0.165399 0)
(1.01176 -0.154812 0)
(0.999612 -0.122146 0)
(0.991899 -0.0703935 0)
(0.989272 -0.0217276 0)
(0.986779 0.00669087 0)
(0.987139 0.024813 0)
(1.04065 0.0145155 0)
(1.04308 0.00942111 0)
(1.0439 0.00509463 0)
(1.04384 -0.00125047 0)
(1.04269 -0.0054465 0)
(1.04124 -0.0123936 0)
(1.03913 -0.0153056 0)
(1.03607 -0.022282 0)
(1.03301 -0.0218172 0)
(1.02895 -0.0275018 0)
(1.02354 -0.0216423 0)
(1.02054 -0.0206996 0)
(1.01545 -0.0117435 0)
(1.01271 0.00191895 0)
(1.01627 0.0138598 0)
(1.02485 0.0301656 0)
(1.03325 0.0308116 0)
(1.04955 0.0392213 0)
(1.05126 0.00825703 0)
(1.04067 0.00687053 0)
(1.03161 -0.0130335 0)
(1.02394 -0.0412619 0)
(0.976604 -0.069654 0)
(0.905787 -0.0329295 0)
(0.907192 0.0953611 0)
(1.00955 0.137535 0)
(1.11553 0.104035 0)
(1.1553 0.0488087 0)
(1.13464 -0.00714422 0)
(1.10027 -0.0468394 0)
(1.06351 -0.111449 0)
(1.03848 -0.150157 0)
(1.01709 -0.145193 0)
(1.00322 -0.116421 0)
(0.992954 -0.0670943 0)
(0.988959 -0.0197833 0)
(0.985414 0.00787872 0)
(0.985982 0.0254083 0)
(1.03535 0.0130938 0)
(1.03721 0.00870068 0)
(1.03787 0.00512307 0)
(1.0379 -0.000414795 0)
(1.03714 -0.00366076 0)
(1.03611 -0.00990737 0)
(1.03452 -0.0117574 0)
(1.0326 -0.0180363 0)
(1.03037 -0.016994 0)
(1.02801 -0.0217663 0)
(1.02485 -0.0167315 0)
(1.02294 -0.0162637 0)
(1.02012 -0.00870226 0)
(1.01951 0.000761847 0)
(1.02077 0.00850271 0)
(1.02597 0.0230325 0)
(1.02961 0.0212914 0)
(1.03843 0.0332437 0)
(1.03722 0.0120119 0)
(1.03231 0.0151342 0)
(1.02395 -0.00446062 0)
(1.01553 -0.0222553 0)
(0.985709 -0.0340443 0)
(0.95073 -0.0158774 0)
(0.962489 0.0588558 0)
(1.02814 0.0780274 0)
(1.09354 0.0675224 0)
(1.1186 0.0447044 0)
(1.1051 0.0051665 0)
(1.08533 -0.0323747 0)
(1.05968 -0.0993581 0)
(1.04083 -0.140667 0)
(1.02094 -0.137299 0)
(1.00602 -0.110522 0)
(0.993835 -0.0638051 0)
(0.988542 -0.018673 0)
(0.983869 0.00763841 0)
(0.984669 0.0242388 0)
(1.03094 0.0118528 0)
(1.03242 0.00799147 0)
(1.03296 0.00501899 0)
(1.03308 7.80024e-05 0)
(1.03255 -0.00248474 0)
(1.03196 -0.00819922 0)
(1.03085 -0.00933529 0)
(1.02977 -0.0151398 0)
(1.02824 -0.0137304 0)
(1.02698 -0.0181343 0)
(1.02505 -0.0135836 0)
(1.02409 -0.0136446 0)
(1.02236 -0.00712948 0)
(1.02255 0.000291101 0)
(1.02244 0.00553585 0)
(1.02574 0.0193163 0)
(1.02642 0.0167406 0)
(1.03119 0.0308497 0)
(1.02881 0.0149546 0)
(1.02701 0.0213353 0)
(1.01987 0.00370524 0)
(1.01386 -0.00819119 0)
(0.997009 -0.0138793 0)
(0.981588 -0.0100744 0)
(0.99295 0.0329793 0)
(1.03164 0.0392261 0)
(1.07105 0.0425492 0)
(1.0884 0.0407461 0)
(1.08106 0.0132823 0)
(1.07203 -0.0200586 0)
(1.05469 -0.08641 0)
(1.04093 -0.129157 0)
(1.02216 -0.127 0)
(1.00665 -0.102293 0)
(0.993 -0.0579949 0)
(0.987377 -0.0147841 0)
(0.982073 0.0100936 0)
(0.983362 0.0255316 0)
(1.0273 0.0107243 0)
(1.02848 0.00728011 0)
(1.02889 0.00473927 0)
(1.02913 0.000279641 0)
(1.0288 -0.00181659 0)
(1.02859 -0.00705176 0)
(1.02785 -0.00779374 0)
(1.02733 -0.0132031 0)
(1.02631 -0.0116705 0)
(1.02574 -0.0158423 0)
(1.02453 -0.0116535 0)
(1.02421 -0.0119812 0)
(1.02291 -0.00629796 0)
(1.02345 0.000124621 0)
(1.02256 0.00410586 0)
(1.02481 0.0174468 0)
(1.02381 0.0147627 0)
(1.0269 0.0300924 0)
(1.02396 0.0172649 0)
(1.02386 0.025438 0)
(1.01822 0.00962127 0)
(1.01502 0.000168365 0)
(1.00636 -0.00422697 0)
(1.00039 -0.0101461 0)
(1.00957 0.0146269 0)
(1.03177 0.0140441 0)
(1.05478 0.0259623 0)
(1.06634 0.0370493 0)
(1.06213 0.0166673 0)
(1.06032 -0.0141451 0)
(1.04886 -0.0784208 0)
(1.03893 -0.119848 0)
(1.02193 -0.117379 0)
(1.00647 -0.0942877 0)
(0.99213 -0.0534892 0)
(0.986001 -0.0135183 0)
(0.980015 0.00916358 0)
(0.981848 0.023028 0)
(1.02438 0.00959536 0)
(1.02534 0.00642759 0)
(1.02565 0.00423659 0)
(1.02599 9.19149e-05 0)
(1.02575 -0.00161985 0)
(1.02581 -0.00658304 0)
(1.02524 -0.00698221 0)
(1.02512 -0.0121992 0)
(1.02431 -0.0104606 0)
(1.02424 -0.0145507 0)
(1.02326 -0.0104378 0)
(1.0234 -0.0109008 0)
(1.02218 -0.00565752 0)
(1.02294 0.000464266 0)