/*--------------------------------*- C++ -*----------------------------------*\
| =========                 |                                                 |
| \\      /  F ield         | OpenFOAM: The Open Source CFD Toolbox           |
|  \\    /   O peration     | Version:  2312                                  |
|   \\  /    A nd           | Website:  www.openfoam.com                      |
|    \\/     M anipulation  |                                                 |
\*---------------------------------------------------------------------------*/
FoamFile
{
    version     2.0;
    format      ascii;
    arch        "LSB;label=32;scalar=64";
    class       surfaceScalarField;
    location    "69";
    object      phi;
}
// * * * * * * * * * * * * * * * * * * * * * * * * * * * * * * * * * * * * * //

dimensions      [0 3 -1 0 0 0 0];

oriented        oriented;

internalField   nonuniform List<scalar> 
10785
(
-0.00117262
0.00460517
-0.00343255
-0.000759919
0.00765233
-0.00806502
0.00371877
0.00489249
-0.00937118
0.0150179
-0.00540948
-0.00588963
0.0353107
-0.0240379
0.00374507
0.064594
-0.0490679
0.0197846
0.100025
-0.0769222
0.0414912
0.137155
-0.104107
0.0669771
0.171044
-0.127906
0.0940164
0.197912
-0.146824
0.119956
0.215374
-0.160558
0.143096
0.224752
-0.169881
0.160504
0.228398
-0.177905
0.174258
0.230092
-0.183138
0.181444
-0.192456
0.190985
0.231563
-0.000757203
0.00536237
0.00113677
0.00575835
0.00955108
-0.00352181
0.0279464
-0.0238048
0.0561311
-0.0522227
0.089865
-0.0828017
0.123412
-0.110469
0.151793
-0.132488
0.17226
-0.148372
0.184807
-0.159371
0.191838
-0.16759
0.197283
-0.175325
0.202578
-0.1832
0.210467
-0.191028
-0.200451
0.218462
0.000202236
0.00516013
0.00505935
0.00090123
0.0196145
-0.0180769
0.0449964
-0.0491868
0.0760062
-0.0832324
0.105718
-0.112514
0.129277
-0.134028
0.145232
-0.148443
0.155159
-0.158299
0.162038
-0.16625
0.168447
-0.174
0.174883
-0.181761
0.181073
-0.189391
0.18665
-0.196605
-0.203686
0.189886
0.00133278
0.00382735
0.0103566
-0.00812257
0.0312918
-0.0390121
0.0593513
-0.0772463
0.0861592
-0.11004
0.106644
-0.132998
0.120188
-0.147572
0.128998
-0.157253
0.135667
-0.164968
0.141621
-0.172204
0.146891
-0.17927
0.151478
-0.186348
0.155666
-0.193578
0.160174
-0.201113
-0.209702
0.166189
0.00269975
0.0011276
0.0166247
-0.0220475
0.0410739
-0.0634612
0.0660273
-0.1022
0.0850961
-0.129109
0.0975453
-0.145447
0.10553
-0.155556
0.111261
-0.162984
0.115884
-0.169591
0.119789
-0.17611
0.123422
-0.182903
0.127174
-0.190099
0.131154
-0.197558
0.135446
-0.205404
-0.213177
0.138921
0.00455121
-0.0034236
0.022494
-0.0399904
0.0457731
-0.0867403
0.0646623
-0.121089
0.0769412
-0.141388
0.0843365
-0.152843
0.0890397
-0.16026
0.0924669
-0.166411
0.095371
-0.172495
0.098186
-0.178925
0.101001
-0.185718
0.103676
-0.192774
0.106261
-0.200143
0.10872
-0.207863
-0.215974
0.111517
0.00679669
-0.0102203
0.0261719
-0.0593656
0.0451618
-0.10573
0.0580802
-0.134007
0.0654279
-0.148736
0.0694355
-0.15685
0.0718921
-0.162716
0.0737689
-0.168288
0.075422
-0.174148
0.0768714
-0.180374
0.0781216
-0.186968
0.0793368
-0.19399
0.0806041
-0.20141
0.0820182
-0.209277
-0.217373
0.0834171
0.00877937
-0.0189997
0.0265667
-0.0771529
0.0407284
-0.119892
0.0487642
-0.142043
0.0525311
-0.152503
0.0541829
-0.158502
0.0549727
-0.163506
0.0553768
-0.168692
0.0555235
-0.174295
0.0555074
-0.180358
0.0554197
-0.186881
0.0552648
-0.193835
0.0551095
-0.201255
0.0549597
-0.209127
0.0549789
-0.217392
-0.000414574
0.0145689
-0.0141543
-0.00278118
0.030676
-0.0283094
-0.00682967
0.0384869
-0.0344384
-0.0118252
0.0425751
-0.0375796
-0.0171338
0.0458589
-0.0405503
-0.0222675
0.0489645
-0.0438308
-0.0267528
0.051288
-0.0468028
-0.0300788
0.0519353
-0.0486093
-0.0317512
0.0500193
-0.0483469
-0.0313209
0.0446844
-0.0451147
-0.0285089
0.035328
-0.0381399
-0.0231761
0.0214653
-0.0267982
-0.0156269
0.00301466
-0.0105638
-0.00438086
-0.0209878
0.00974177
-0.0493251
0.0109794
0.0339648
0.00118471
0.0133842
0.0014606
0.0304001
0.000358637
0.0395889
-0.00131436
0.0442481
-0.0026183
0.0471629
-0.00285003
0.0491962
-0.00150031
0.0499383
0.00185098
0.048584
0.00756004
0.0443102
0.0157436
0.0365009
0.0261497
0.0249218
0.0388594
0.0087556
0.0529714
-0.0110973
0.0700636
-0.03808
-0.0695825
0.090321
0.00249199
0.0108922
0.00550507
0.027387
0.00778149
0.0373125
0.00984008
0.0421895
0.0127502
0.0442528
0.0173978
0.0445487
0.0243309
0.0430052
0.0338269
0.039088
0.0458266
0.0323106
0.0603588
0.0219688
0.0762373
0.00904326
0.0949181
-0.00992512
0.11481
-0.0309896
0.137213
-0.0604822
-0.0946755
0.162306
0.00307174
0.00782043
0.00813794
0.0223208
0.0134013
0.0320491
0.0188836
0.0367073
0.0254339
0.0377024
0.0339127
0.0360699
0.0448206
0.0320973
0.0583417
0.0255669
0.0741334
0.0165189
0.0922963
0.00380587
0.112503
-0.0111632
0.136187
-0.0336091
0.162316
-0.0571191
0.192725
-0.0908906
-0.126173
0.224222
0.00276224
0.00505819
0.00846036
0.0166227
0.0154345
0.0250749
0.0232385
0.0289033
0.0322527
0.0286882
0.0430668
0.0252558
0.0560688
0.0190953
0.0714118
0.0102238
0.089345
-0.00141421
0.110731
-0.0175805
0.136181
-0.0366124
0.166237
-0.0636654
0.20021
-0.0910921
0.237188
-0.127868
-0.158191
0.269206
0.00178335
0.00327485
0.00656055
0.0118455
0.0134132
0.0182222
0.0217478
0.0205688
0.0315623
0.0188737
0.0432378
0.0135802
0.0574303
0.00490289
0.0751396
-0.00748558
0.0978582
-0.0241328
0.1256
-0.0453219
0.16007
-0.0710829
0.197373
-0.100969
0.236472
-0.130191
0.270431
-0.161827
-0.179819
0.29206
0.000502081
0.00277276
0.00332993
0.00901766
0.00854524
0.0130069
0.0158943
0.0132198
0.0257293
0.00903872
0.0392027
0.000106837
0.0578409
-0.0137353
0.0828786
-0.0325233
0.11475
-0.056004
0.151715
-0.0822871
0.191555
-0.110923
0.228003
-0.137416
0.259334
-0.161522
0.277339
-0.179832
-0.187158
0.284678
-0.000659784
0.000292849
0.00392856
0.0112587
0.0240425
0.0439339
0.0716898
0.106144
0.144156
0.181825
0.213998
0.237085
0.249822
0.251434
0.25526
0.0284106
-0.1025
0.0850686
0.0462555
-0.151421
0.133576
0.0589539
-0.191225
0.178527
0.0617407
-0.219797
0.217011
0.0592145
-0.244015
0.246541
0.0641503
-0.264008
0.259072
0.0921608
-0.250511
0.222501
0.135993
-0.150354
0.106522
0.17906
0.0117416
-0.0548089
0.209924
0.160027
-0.190891
0.223239
0.25214
-0.265454
0.226912
0.290095
-0.293768
0.221322
0.29471
-0.28912
0.196735
0.316952
-0.292365
0.165647
0.3423
-0.311213
0.153152
0.284343
-0.271848
0.16438
0.110848
-0.122075
0.192101
-0.0921901
0.0644688
0.22233
-0.221607
0.191378
0.228497
-0.26605
0.259883
0.20247
-0.310539
0.336567
0.172964
-0.335891
0.365396
0.182322
-0.255091
0.245733
0.218764
-0.112819
0.076377
0.238929
0.0237023
-0.0438678
0.246362
0.210564
-0.217996
0.259114
0.391576
-0.404329
0.264912
0.420099
-0.425897
0.25889
0.349604
-0.343581
0.247552
0.0560309
-0.0446937
0.23526
-0.310586
0.322879
0.229894
-0.617774
0.62314
0.232013
-0.35813
0.356011
0.235748
0.127849
-0.131583
0.227005
0.459513
-0.45077
0.206875
0.450408
-0.430279
0.19545
-0.175618
0.187043
-0.249914
0.25124
0.0992414
-0.11142
0.109721
-0.1619
0.116879
-0.198383
0.113906
-0.216825
0.0929871
-0.223096
0.065046
-0.236067
0.0602406
-0.245706
0.0951894
-0.185303
0.145508
-0.0385774
0.188606
0.11693
0.215798
0.224948
0.232113
0.27378
0.232079
0.294744
0.211582
0.337448
0.188665
0.365218
0.181223
0.291784
0.185682
0.106388
0.199503
-0.106011
0.221005
-0.243109
0.227089
-0.272134
0.204878
-0.288328
0.178306
-0.309318
0.185256
-0.262041
0.216873
-0.144437
0.236188
0.00438724
0.246244
0.200507
0.259058
0.378762
0.263449
0.415709
0.258752
0.3543
0.247989
0.0667939
0.234327
-0.296924
0.228567
-0.612015
0.232014
-0.361576
0.236718
0.123144
0.227317
0.468914
0.206339
0.471387
0.195537
-0.164816
-0.249421
0.163094
-0.112209
0.161166
-0.159972
0.157411
-0.194627
0.152613
-0.212027
0.134975
-0.205458
0.0937908
-0.194883
0.0558776
-0.207793
0.0631213
-0.192547
0.109823
-0.0852792
0.161782
0.0649711
0.206245
0.180485
0.23748
0.242545
0.24743
0.284794
0.238123
0.346755
0.222211
0.38113
0.212516
0.301479
0.20859
0.110315
0.209833
-0.107253
0.220795
-0.254071
0.225063
-0.276402
0.206504
-0.269769
0.184365
-0.28718
0.190293
-0.267969
0.217515
-0.171658
0.236284
-0.0143824
0.247086
0.189706
0.257431
0.368417
0.26048
0.41266
0.257939
0.356841
0.247967
0.0767655
0.233071
-0.282028
0.226932
-0.605875
0.23202
-0.366664
0.237896
0.117268
0.22806
0.47875
0.206467
0.49298
0.19606
-0.15441
-0.249576
0.220611
-0.108598
0.209382
-0.148743
0.18999
-0.175235
0.170107
-0.192144
0.157282
-0.192634
0.130668
-0.168268
0.0804653
-0.15759
0.0523399
-0.164421
0.0791462
-0.112086
0.133591
0.010526
0.189263
0.124813
0.235014
0.196794
0.259138
0.26067
0.257788
0.348105
0.245453
0.393465
0.235638
0.311294
0.228015
0.117937
0.219923
-0.0991605
0.220735
-0.254884
0.223693
-0.279359
0.207944
-0.25402
0.188189
-0.267424
0.194665
-0.274445
0.22028
-0.197274
0.23853
-0.0326324
0.248041
0.180195
0.253902
0.362556
0.255991
0.410571
0.256205
0.356627
0.247476
0.085494
0.231765
-0.266316
0.225109
-0.59922
0.231923
-0.373478
0.239221
0.10997
0.229258
0.488713
0.207302
0.514937
0.197085
-0.144193
-0.250185
0.259212
-0.098605
0.240855
-0.130385
0.216484
-0.150864
0.184149
-0.159809
0.158202
-0.166687
0.145631
-0.155697
0.117194
-0.129153
0.0744511
-0.121678
0.0690095
-0.106644
0.113356
-0.0338201
0.176162
0.0620067
0.231642
0.141314
0.264788
0.227524
0.278479
0.334414
0.277756
0.394188
0.264744
0.324306
0.246746
0.135936
0.229731
-0.0821456
0.220667
-0.24582
0.221055
-0.279747
0.208016
-0.240981
0.187708
-0.247117
0.193416
-0.280153
0.220786
-0.224644
0.240157
-0.0520035
0.246896
0.173456
0.248076
0.361376
0.250079
0.408568
0.253263
0.353443
0.246074
0.092683
0.230041
-0.250283
0.222774
-0.591953
0.231404
-0.382108
0.240521
0.100853
0.230813
0.498421
0.208813
0.536937
0.198658
-0.134038
-0.25108
0.274836
-0.0813814
0.247498
-0.103048
0.218486
-0.121852
0.190044
-0.131367
0.158802
-0.135445
0.140094
-0.136989
0.13309
-0.122149
0.109962
-0.098551
0.0840873
-0.0807691
0.0976739
-0.0474066
0.152789
0.00689157
0.220119
0.0739835
0.270514
0.177129
0.292752
0.312176
0.290279
0.396661
0.276331
0.338255
0.260269
0.151997
0.239733
-0.0616098
0.220775
-0.226862
0.217219
-0.276191
0.207842
-0.231605
0.185112
-0.224386
0.185467
-0.280508
0.215726
-0.254903
0.239331
-0.075608
0.244971
0.167816
0.241484
0.364863
0.243304
0.406748
0.249309
0.347438
0.243964
0.0980279
0.227981
-0.234301
0.219866
-0.583837
0.23027
-0.392512
0.241699
0.0894237
0.232807
0.507313
0.211009
0.558735
0.200813
-0.123842
-0.252136
0.264884
-0.0615879
0.23832
-0.0764838
0.207983
-0.0915147
0.181404
-0.104788
0.158626
-0.112667
0.136631
-0.114994
0.12737
-0.112888
0.128991
-0.100173
0.118547
-0.0703243
0.108075
-0.0369348
0.127743
-0.0127771
0.1862
0.0155269
0.258461
0.104868
0.304239
0.266399
0.313815
0.387085
0.297288
0.354781
0.271978
0.177308
0.244023
-0.0336554
0.217465
-0.200303
0.209037
-0.267763
0.204861
-0.227429
0.182791
-0.202316
0.173768
-0.271485
0.203652
-0.284787
0.234255
-0.106211
0.240488
0.161583
0.234039
0.371312
0.23626
0.404528
0.244758
0.33894
0.241085
0.101701
0.225381
-0.218597
0.216377
-0.574834
0.228449
-0.404584
0.242443
0.0754303
0.234803
0.514952
0.213645
0.579893
0.203533
-0.11373
-0.253318
0.238769
-0.0450964
0.21899
-0.0567044
0.19776
-0.0702848
0.174993
-0.0820221
0.155598
-0.0932711
0.139658
-0.0990536
0.123552
-0.0967815
0.118722
-0.0953422
0.125002
-0.0766042
0.124081
-0.0360144
0.12092
-0.0096164
0.14502
-0.00857306
0.20912
0.040768
0.279337
0.196182
0.311171
0.355251
0.298942
0.36701
0.275976
0.200274
0.250096
-0.0077749
0.217901
-0.168109
0.201567
-0.251429
0.199426
-0.225288
0.181177
-0.184067
0.163822
-0.254129
0.186885
-0.30785
0.223673
-0.142999
0.236209
0.149047
0.227628
0.379893
0.228708
0.403447
0.239917
0.327731
0.238477
0.103141
0.222687
-0.202806
0.213327
-0.565474
0.226116
-0.417374
0.242759
0.0587873
0.237212
0.520499
0.216887
0.600218
0.206895
-0.103738
-0.254572
0.312941
-0.0348273
-0.32321
0.302604
-0.046368
0.29155
-0.0592302
0.277839
-0.0683118
0.261659
-0.0770904
0.246193
-0.0835886
0.22758
-0.0781681
0.207269
-0.0750307
0.192815
-0.0621508
0.181766
-0.0249647
0.165622
0.00652743
0.151858
0.00519035
0.163262
0.0293639
0.188015
0.17143
0.202939
0.340327
0.23439
0.335559
0.281491
0.153173
0.304225
-0.030509
0.297582
-0.161467
0.279326
-0.233173
0.264496
-0.210458
0.244626
-0.164197
0.226587
-0.236091
0.229341
-0.310604
0.2321
-0.145758
0.211907
0.16924
0.189702
0.402098
0.19959
0.39356
0.2304
0.296921
0.24953
0.0840105
0.250908
-0.204184
0.24131
-0.555876
0.233821
-0.409884
0.231046
0.0615621
0.220228
0.531318
0.208812
0.611634
0.202014
-0.0969401
-0.251442
0.332793
-0.0261721
-0.341448
0.322826
-0.0364011
0.310997
-0.0474015
0.29772
-0.0550351
0.282314
-0.0616842
0.265606
-0.0668802
0.249482
-0.0620447
0.234649
-0.0601972
0.220974
-0.0484767
0.213632
-0.0176225
0.209099
0.0110606
0.192259
0.0220301
0.182125
0.0394978
0.193815
0.15974
0.222428
0.311714
0.279544
0.278443
0.332141
0.100576
0.346749
-0.0451175
0.331253
-0.145971
0.306452
-0.208372
0.288664
-0.19267
0.269318
-0.144851
0.251417
-0.21819
0.253689
-0.312876
0.253621
-0.145691
0.229203
0.193658
0.20609
0.425211
0.222308
0.377341
0.259385
0.259844
0.280061
0.0633345
0.279893
-0.204016
0.268631
-0.544614
0.259306
-0.400559
0.255594
0.0652735
0.244505
0.542407
0.233998
0.62214
0.226417
-0.0893595
-0.246854
0.355052
-0.0195628
-0.361662
0.346478
-0.0278268
0.335969
-0.0368923
0.324298
-0.0433642
0.310433
-0.0478195
0.2959
-0.0523466
0.281231
-0.0473753
0.266743
-0.04571
0.253448
-0.0351815
0.245482
-0.00965583
0.2456
0.0109418
0.237777
0.0298533
0.223028
0.0542465
0.229388
0.15338
0.275053
0.266049
0.343976
0.20952
0.385688
0.0588647
0.388038
-0.0474678
0.366827
-0.12476
0.338822
-0.180366
0.321397
-0.175245
0.302777
-0.126231
0.279417
-0.19483
0.277811
-0.31127
0.27804
-0.145919
0.250541
0.221157
0.22868
0.447072
0.252309
0.353712
0.294877
0.217276
0.315166
0.0430462
0.312828
-0.201679
0.299169
-0.530955
0.287907
-0.389296
0.28327
0.0699109
0.272318
0.553358
0.263494
0.630965
0.254935
-0.0808013
-0.240256
0.379688
-0.0138658
-0.385385
0.371967
-0.0201063
0.362117
-0.0270418
0.351253
-0.0325
0.338915
-0.0354823
0.325846
-0.0392771
0.313298
-0.0348274
0.300658
-0.0330697
0.290189
-0.0247132
0.283019
-0.00248552
0.282941
0.0110194
0.280366
0.0324285
0.273513
0.0610994
0.292266
0.134627
0.349883
0.208432
0.409987
0.149416
0.431628
0.037224
0.422169
-0.0380095
0.398576
-0.101166
0.366805
-0.148595
0.348423
-0.156863
0.334189
-0.111996
0.308811
-0.169452
0.30297
-0.305429
0.304033
-0.146982
0.277377
0.247813
0.260035
0.464413
0.291515
0.322232
0.337692
0.171099
0.355522
0.0252157
0.34924
-0.195397
0.332735
-0.51445
0.31903
-0.375591
0.31337
0.0755705
0.303395
0.563334
0.297865
0.636495
0.288359
-0.0712948
-0.231011
0.406385
-0.00863788
-0.411613
0.399742
-0.0134631
0.391248
-0.0185475
0.381901
-0.0231531
0.371423
-0.0250047
0.360149
-0.0280028
0.349727
-0.0244048
0.338651
-0.0219942
0.329872
-0.0159341
0.32444
0.00294644
0.323562
0.0118968
0.322946
0.0330447
0.324676
0.0593698
0.354626
0.104677
0.411233
0.151825
0.45443
0.106219
0.462782
0.0288725
0.449964
-0.025192
0.4304
-0.0816018
0.399706
-0.117901
0.381416
-0.138573
0.373126
-0.103706
0.343002
-0.139328
0.326517
-0.288944
0.328558
-0.149023
0.306516
0.269854
0.300096
0.470834
0.340446
0.281881
0.387837
0.123708
0.400819
0.0122341
0.389638
-0.184216
0.369417
-0.494229
0.352755
-0.358929
0.347011
0.0813148
0.339524
0.570821
0.338417
0.637602
0.327502
-0.0603804
-0.218331
0.436517
-0.00425367
-0.440901
0.431026
-0.00797195
0.423996
-0.0115179
0.41601
-0.0151671
0.407261
-0.0162557
0.397607
-0.0183492
0.388909
-0.0157064
0.379667
-0.0127523
0.372551
-0.00881842
0.369001
0.0064972
0.368094
0.0128032
0.369718
0.0314207
0.376949
0.0521388
0.406061
0.075565
0.450883
0.107004
0.482376
0.0747257
0.487402
0.0238461
0.476155
-0.0139447
0.461155
-0.0666022
0.433323
-0.0900692
0.411944
-0.117194
0.409705
-0.101467
0.379207
-0.10883
0.347269
-0.257007
0.350935
-0.152689
0.344772
0.276017
0.354601
0.461006
0.399611
0.236872
0.443372
0.0799469
0.449871
0.00573521
0.432642
-0.166987
0.408124
-0.469712
0.387632
-0.338436
0.3819
0.0870462
0.379114
0.573607
0.384938
0.631778
0.372941
-0.0483829
-0.201517
0.470751
-0.000616003
-0.474388
0.466148
-0.00336878
0.46038
-0.00575071
0.453699
-0.00848569
0.446606
-0.00916255
0.43864
-0.0103837
0.431707
-0.00877342
0.424535
-0.00557966
0.418888
-0.00317143
0.416689
0.00869623
0.416152
0.0133398
0.419984
0.0275886
0.428939
0.0431836
0.451483
0.053021
0.484084
0.0744031
0.507018
0.0517922
0.512746
0.0181183
0.504951
-0.00615028
0.493512
-0.0551632
0.472204
-0.0687615
0.448102
-0.0930915
0.446371
-0.0997367
0.420589
-0.083048
0.370983
-0.207401
0.368731
-0.150437
0.387326
0.257422
0.417483
0.430849
0.462213
0.192141
0.499309
0.0428512
0.500882
0.00416171
0.478403
-0.144508
0.448249
-0.439558
0.423698
-0.313884
0.418236
0.0925079
0.422508
0.569335
0.438315
0.615971
0.425274
-0.0353414
-0.179762
0.509145
0.00238735
-0.512148
0.505376
0.000400404
0.500844
-0.00121878
0.495447
-0.00308861
0.489917
-0.00363243
0.483651
-0.00411813
0.478168
-0.00329055
0.472901
-0.000312076
0.468571
0.00115789
0.467567
0.00970046
0.467517
0.0133903
0.472167
0.0229379
0.481011
0.0343396
0.497003
0.0370292
0.520371
0.0510354
0.53681
0.035353
0.54287
0.0120583
0.538561
-0.0018412
0.527762
-0.0443643
0.51219
-0.053189
0.488452
-0.0693539
0.482285
-0.0935699
0.464159
-0.0649222
0.403923
-0.147164
0.384414
-0.130928
0.423878
0.217959
0.479395
0.375332
0.523996
0.14754
0.552938
0.0139098
0.55136
0.00573965
0.525311
-0.11846
0.488372
-0.402619
0.459517
-0.285029
0.457652
0.0943734
0.472288
0.554699
0.498665
0.589593
0.484083
-0.0207596
-0.152517
0.552213
0.00468109
-0.554507
0.549224
0.00338953
0.545743
0.00226198
0.541583
0.00107143
0.537367
0.000583485
0.532708
0.00054104
0.528516
0.000901879
0.524928
0.00327564
0.52178
0.00430561
0.521564
0.00991675
0.522025
0.0129295
0.526409
0.0185533
0.534266
0.0264834
0.545096
0.0261989
0.561806
0.0343254
0.573121
0.0240377
0.57793
0.00724941
0.576608
-0.000519468
0.566218
-0.0339743
0.555032
-0.0420032
0.535511
-0.0498324
0.522232
-0.0802912
0.508686
-0.0513756
0.453098
-0.0915772
0.41785
-0.0956798
0.468971
0.166838
0.54532
0.298983
0.584271
0.108588
0.601892
-0.00371074
0.600408
0.00722357
0.573875
-0.0919268
0.528559
-0.357303
0.493478
-0.249948
0.492548
0.0953029
0.518669
0.528578
0.560336
0.547926
0.547476
-0.00789898
-0.120267
0.600191
0.00635944
-0.60187
0.598013
0.0055677
0.595491
0.00478426
0.592477
0.00408587
0.589387
0.00367309
0.586137
0.00379114
0.58308
0.00395846
0.58076
0.00559562
0.578677
0.00638913
0.578838
0.00975513
0.579751
0.0120169
0.583257
0.0150471
0.589721
0.0200199
0.597057
0.0188629
0.608562
0.0228196
0.616433
0.0161676
0.619413
0.00426918
0.619693
-0.000799703
0.610256
-0.0245377
0.600944
-0.0326906
0.586376
-0.0352647
0.569094
-0.0630091
0.556861
-0.0391421
0.516925
-0.0516419
0.479547
-0.0583013
0.53085
0.115535
0.612168
0.217666
0.640353
0.0804035
0.645052
-0.00841022
0.646809
0.00546653
0.623242
-0.0683598
0.565913
-0.299974
0.524693
-0.208728
0.526137
0.0938589
0.564077
0.490638
0.624327
0.487676
0.61516
0.00126796
-0.0841739
0.653721
0.0074598
-0.654821
0.65226
0.00702834
0.650523
0.00652107
0.648476
0.00613322
0.646329
0.00582033
0.644179
0.00594059
0.642129
0.00600873
0.640711
0.00701415
0.639535
0.00756485
0.639863
0.00942738
0.640973
0.0109065
0.643661
0.0123594
0.648538
0.0151426
0.65352
0.0138812
0.660938
0.0154014
0.666315
0.0107908
0.667786
0.00279751
0.668431
-0.00144386
0.660513
-0.01662
0.652399
-0.0245763
0.641612
-0.0244777
0.62434
-0.0457377
0.612863
-0.0276648
0.588433
-0.0272123
0.559707
-0.029575
0.600001
0.0752405
0.670695
0.146972
0.690879
0.0602203
0.687328
-0.00485913
0.692381
0.000412993
0.675321
-0.0512997
0.606367
-0.23102
0.556402
-0.158763
0.56614
0.0841206
0.620501
0.436277
0.693367
0.414811
0.685448
0.00918657
-0.0476102
0.713329
0.00814685
-0.714016
0.712421
0.00793594
0.711327
0.00761557
0.710068
0.00739237
0.708738
0.0071502
0.70745
0.00722861
0.706222
0.00723645
0.705455
0.00778143
0.704915
0.00810431
0.70533
0.00901307
0.706381
0.0098552
0.708391
0.0103494
0.711793
0.0117402
0.715244
0.0104303
0.719863
0.0107828
0.723335
0.00731846
0.723675
0.00245808
0.723835
-0.00160424
0.717623
-0.0104082
0.710681
-0.0176341
0.702459
-0.0162555
0.687771
-0.0310502
0.67785
-0.0177436
0.664096
-0.0134587
0.645776
-0.0112549
0.672722
0.048295
0.726127
0.0935666
0.742383
0.0439641
0.736569
0.000955206
0.740379
-0.00339778
0.728274
-0.0391942
0.65845
-0.161196
0.600162
-0.100475
0.613366
0.0709165
0.687609
0.362034
0.766151
0.336269
0.756243
0.0190946
-0.0144911
0.779498
0.00841219
-0.779763
0.779104
0.00832952
0.778581
0.00813821
0.777951
0.00802283
0.777241
0.00785999
0.776578
0.00789153
0.775955
0.00785926
0.775649
0.00808804
0.775514
0.00823913
0.775981
0.00854592
0.776857
0.00897933
0.778328
0.00887858
0.780524
0.00954402
0.782752
0.0082027
0.78533
0.00820488
0.787409
0.00523944
0.78733
0.00253617
0.787099
-0.00137305
0.782298
-0.00560675
0.776596
-0.0119323
0.770127
-0.00978639
0.758684
-0.0196073
0.751091
-0.0101505
0.743588
-0.00595549
0.733677
-0.00134422
0.750904
0.0310682
0.786912
0.057558
0.799463
0.0314138
0.795849
0.00456912
0.796626
-0.00417469
0.785008
-0.0275764
0.72723
-0.103418
0.672497
-0.0457418
0.681573
0.0618402
0.765525
0.278082
0.841163
0.260631
0.829384
0.0308738
0.0121453
0.853275
0.0083573
-0.85322
0.85325
0.00835437
0.85313
0.00825861
0.852952
0.00820031
0.852721
0.00809071
0.852543
0.00807018
0.852379
0.00802341
0.852428
0.00803911
0.85257
0.00809689
0.85309
0.00802578
0.853824
0.0082449
0.85494
0.00776307
0.856377
0.00810675
0.857875
0.00670457
0.859321
0.00675933
0.860416
0.00414411
0.859824
0.00312852
0.859047
-0.00059655
0.855416
-0.00197552
0.85098
-0.00749679
0.846122
-0.00492762
0.838032
-0.0115172
0.832475
-0.00459416
0.828209
-0.00168951
0.823384
0.00348153
0.834268
0.0201835
0.857626
0.0342003
0.866402
0.0226377
0.86482
0.00615085
0.863531
-0.00288547
0.851156
-0.0152014
0.809166
-0.0614281
0.770054
-0.00662986
0.776589
0.0553049
0.853226
0.201445
0.916647
0.197209
0.905496
0.0420246
0.0310148
0.934911
0.0080406
-0.934594
0.935174
0.00809043
0.935373
0.0080602
0.935543
0.00803061
0.935661
0.00797234
0.935816
0.00791548
0.935948
0.00789093
0.936214
0.00777367
0.93649
0.00782077
0.936992
0.00752297
0.937541
0.00769613
0.938324
0.00698053
0.939133
0.00729804
0.940021
0.00581559
0.940643
0.00613771
0.941178
0.00360964
0.9406
0.00370609
0.939972
3.0971e-05
0.937543
0.000454404
0.93413
-0.00408392
0.930706
-0.00150425
0.925068
-0.00587878
0.921583
-0.00110938
0.919399
0.000495059
0.918046
0.00483444
0.924102
0.0141274
0.938094
0.0202084
0.943805
0.0169267
0.94352
0.00643552
0.941655
-0.00102083
0.930443
-0.00398944
0.902128
-0.0331123
0.880045
0.0154532
0.886627
0.0487222
0.945911
0.142161
0.994223
0.148898
0.987065
0.0491822
0.0418648
1.02658
0.00752623
-1.02607
1.0271
0.00757959
1.02756
0.00759452
1.02802
0.00757245
1.02843
0.00756532
1.02887
0.00747352
1.02927
0.00749185
1.02976
0.00728013
1.03022
0.00736517
1.03082
0.00692068
1.03138
0.00713254
1.03209
0.00627505
1.03271
0.00667287
1.03336
0.00516694
1.03374
0.00575973
1.03393
0.00342277
1.03343
0.00420253
1.03243
0.00103278
1.03062
0.00226355
1.02814
-0.00160517
1.02571
0.000921941
1.02209
-0.00225802
1.01986
0.00112552
1.0181
0.00225014
1.01837
0.00456471
1.02184
0.0106594
1.03029
0.0117636
1.03426
0.0129561
1.0339
0.00678976
1.03171
0.00117579
1.02294
0.00477572
1.00485
-0.0150181
0.994854
0.0254451
1.00127
0.0423112
1.04383
0.0995955
1.08029
0.112434
1.07807
0.0514024
0.0461752
1.12762
0.00682357
-1.12691
1.1283
0.00689661
1.12894
0.00695768
1.12958
0.00693167
1.13017
0.00697599
1.13079
0.00685301
1.13134
0.00693729
1.13196
0.00666195
1.13249
0.00683465
1.13312
0.00629508
1.13362
0.00662508
1.13423
0.00566513
1.13467
0.00623729
1.13516
0.00467201
1.13537
0.00555589
1.13554
0.00324668
1.13525
0.00449153
1.13481
0.00147992
1.13389
0.00317762
1.13237
-8.05458e-05
1.13118
0.00210599
1.12898
-4.92622e-05
1.12821
0.00189574
1.12719
0.00326056
1.12817
0.00358552
1.12998
0.00885536
1.13444
0.00729655
1.13707
0.0103273
1.13678
0.00707846
1.13572
0.00224553
1.1302
0.0102876
1.11984
-0.0046522
1.11758
0.0277071
1.12342
0.0364641
1.1526
0.0704199
1.17974
0.0852885
1.18147
0.0496789
0.0451136
1.24411
0.00599629
-1.24328
1.24497
0.00603544
1.2458
0.00612732
1.24665
0.00608379
1.24743
0.00618771
1.24826
0.00603202
1.249
0.00619148
1.2498
0.00586164
1.25051
0.00612761
1.25128
0.00552693
1.25193
0.00596754
1.25262
0.00497855
1.25319
0.00567114
1.25368
0.0041832
1.25405
0.00517956
1.25413
0.00316396
1.25418
0.0044435
1.25358
0.00208588
1.25326
0.00349351
1.25182
0.00136477
1.25139
0.00253061
1.24956
0.00178521
1.24945
0.00200106
1.24861
0.00410638
1.24954
0.0026526
1.25096
0.00743557
1.25316
0.00509893
1.25565
0.00783568
1.25489
0.00783511
1.25431
0.00283064
1.25157
0.0130196
1.24523
0.00168673
1.2479
0.0250418
1.25342
0.0309416
1.27444
0.0494044
1.29619
0.0635367
1.30052
0.045344
0.0414009
1.3739
0.00499322
-1.3729
1.37491
0.00502765
1.37587
0.00516654
1.37686
0.00509313
1.37779
0.00525727
1.37877
0.00505317
1.37966
0.00530102
1.38061
0.00491115
1.38144
0.00529776
1.38233
0.00463451
1.38308
0.0052167
1.38387
0.00418976
1.38453
0.00501357
1.38514
0.00357337
1.38569
0.00462753
1.38601
0.00284565
1.38645
0.00399651
1.38635
0.00218764
1.38674
0.00310731
1.38616
0.00194407
1.3866
0.00208939
1.38581
0.00258111
1.38646
0.00134788
1.38629
0.00427547
1.38721
0.00173708
1.38859
0.00604579
1.38951
0.00418082
1.39189
0.00545962
1.3915
0.00822841
1.39208
0.00224818
1.39201
0.0130914
1.38918
0.00451493
1.39434
0.0198807
1.39974
0.0255447
1.41456
0.0345795
1.43194
0.0461555
1.43803
0.0392515
0.0353271
1.52623
0.00392031
-1.52516
1.52736
0.00389991
1.52847
0.00405422
1.52961
0.00394932
1.53072
0.00415359
1.53184
0.0039303
1.53292
0.0042207
1.534
0.00383306
1.53505
0.00424432
1.53604
0.00364213
1.53706
0.00419501
1.5379
0.00335472
1.53889
0.00402606
1.53946
0.00300099
1.54041
0.00367213
1.5406
0.00265859
1.54152
0.00307712
1.54126
0.00245364
1.5421
0.00226666
1.54152
0.00251491
1.54216
0.00145135
1.54184
0.00290392
1.54208
0.00110313
1.54286
0.0035002
1.54273
0.00186607
1.54497
0.00380927
1.54495
0.00419624
1.54725
0.0031583
1.548
0.00748693
1.54778
0.00246767
1.55042
0.0104448
1.54868
0.00625507
1.55461
0.0139523
1.56093
0.0192239
1.57203
0.0234819
1.58745
0.0307358
1.59592
0.0307769
0.0285048
1.71656
0.00269014
-1.71533
1.71782
0.00263772
1.71906
0.00281408
1.72034
0.00267272
1.72159
0.0029009
1.72286
0.00265721
1.72412
0.00296618
1.72535
0.0026049
1.72659
0.00299934
1.72771
0.00251943
1.72895
0.00295881
1.72989
0.00241639
1.73113
0.00278179
1.7318
0.00233519
1.73307
0.00239946
1.73341
0.00232109
1.73469
0.00179429
1.73477
0.00237377
1.73594
0.00110261
1.73607
0.00237928
1.73684
0.000683001
1.73759
0.00215816
1.7377
0.000985468
1.73949
0.00171273
1.73924
0.00211972
1.74165
0.00139508
1.74217
0.0036735
1.74373
0.0016051
1.7461
0.00511052
1.74587
0.00269712
1.74982
0.00649479
1.75021
0.00586556
1.75507
0.00909773
1.76197
0.0123274
1.77012
0.0153223
1.78278
0.018084
1.79311
0.0204412
0.0200367
1.92451
0.00126071
-1.92308
1.92592
0.00123449
1.92744
0.00129498
1.92886
0.00125162
1.93045
0.00131138
1.93185
0.00125462
1.93351
0.00130925
1.93487
0.00124438
1.93658
0.00128637
1.93788
0.00121819
1.9396
0.00123687
1.94085
0.00117316
1.94247
0.00115196
1.9437
0.00111094
1.94508
0.00101911
1.94636
0.0010371
1.94732
0.000833901
1.94874
0.000953722
1.94922
0.000630058
1.95075
0.000841715
1.95094
0.000496084
1.95242
0.000674747
1.95287
0.000541103
1.95408
0.000502734
1.9554
0.000801536
1.95632
0.000476183
1.95875
0.00124348
1.95965
0.000697285
1.96288
0.00188548
1.96433
0.00124635
1.96802
0.00280497
1.97125
0.00263959
1.97604
0.00430006
1.98305
0.00532242
1.99141
0.00695854
2.00158
0.00791646
2.01301
0.00901379
0.00972389
2.30031
-2.29905
2.30155
2.30284
2.30409
2.3054
2.30666
2.30797
2.30921
2.3105
2.31172
2.31295
2.31413
2.31528
2.31639
2.31741
2.31845
2.31928
2.32023
2.32086
2.32171
2.3222
2.32288
2.32342
2.32392
2.32472
2.3252
2.32644
2.32714
2.32902
2.33027
2.33308
2.33572
2.34002
2.34534
2.3523
2.36021
2.36923
0.281339
0.0501125
-0.276473
0.287074
0.0776819
0.29156
0.107031
0.298572
0.13191
0.303015
0.161746
0.311367
0.181534
0.318718
0.211111
0.227071
0.302621
0.0462828
-0.298792
0.308418
0.0718847
0.312425
0.103024
0.319065
0.12527
0.324053
0.156758
0.329855
0.175732
0.336308
0.204659
0.221931
0.326453
0.0429267
-0.323097
0.331391
0.0669467
0.335398
0.0990175
0.34032
0.120348
0.344964
0.152114
0.349101
0.171594
0.355187
0.198573
0.215457
0.352299
0.0396494
-0.349021
0.356082
0.0631633
0.360025
0.0950743
0.363665
0.116708
0.368677
0.147103
0.373248
0.167023
0.379527
0.192294
0.209599
0.380596
0.0365516
-0.377498
0.383472
0.0602872
0.387403
0.0911436
0.391038
0.113072
0.396459
0.141682
0.401108
0.162373
0.406508
0.186895
0.204493
0.411615
0.0336633
-0.408727
0.414104
0.0577979
0.418194
0.087054
0.421731
0.109535
0.426416
0.136997
0.430451
0.158339
0.435488
0.181858
0.19908
0.44582
0.0310292
-0.443186
0.448132
0.0554856
0.451842
0.0833442
0.45488
0.106497
0.459105
0.132772
0.463519
0.153925
0.469024
0.176352
0.193716
0.483413
0.0287436
-0.481127
0.485498
0.0534007
0.488775
0.0800667
0.491943
0.103329
0.496552
0.128163
0.501422
0.149055
0.506854
0.17092
0.188421
0.524794
0.0268337
-0.522884
0.526845
0.0513495
0.530122
0.0767904
0.533759
0.0996916
0.53848
0.123442
0.543275
0.144259
0.548778
0.165418
0.182692
0.570673
0.0251527
-0.568992
0.572864
0.0491579
0.576246
0.0734081
0.580013
0.095925
0.58468
0.118775
0.589657
0.139283
0.595662
0.159413
0.176484
0.621604
0.0235915
-0.620043
0.623893
0.0468694
0.627222
0.0700785
0.63108
0.0920675
0.635976
0.113879
0.641552
0.133707
0.648054
0.152912
0.169716
0.678021
0.022128
-0.676557
0.68036
0.0445304
0.683806
0.0666321
0.688078
0.0877956
0.693501
0.108456
0.699614
0.127594
0.706569
0.145956
0.16227
0.74064
0.0206853
-0.739197
0.743175
0.041995
0.746914
0.062894
0.751612