/*--------------------------------*- C++ -*----------------------------------*\
| =========                 |                                                 |
| \\      /  F ield         | OpenFOAM: The Open Source CFD Toolbox           |
|  \\    /   O peration     | Version:  2312                                  |
|   \\  /    A nd           | Website:  www.openfoam.com                      |
|    \\/     M anipulation  |                                                 |
\*---------------------------------------------------------------------------*/
FoamFile
{
    version     2.0;
    format      ascii;
    arch        "LSB;label=32;scalar=64";
    class       volScalarField;
    location    "1";
    object      p;
}
// * * * * * * * * * * * * * * * * * * * * * * * * * * * * * * * * * * * * * //

dimensions      [0 2 -2 0 0 0 0];

internalField   nonuniform List<scalar> 
32230
(
-0.518367
-0.513987
-0.510552
-0.505659
-0.495876
-0.478824
-0.454085
-0.423172
-0.388647
-0.353101
-0.318525
-0.286146
-0.256545
-0.229858
-0.205977
-0.184673
-0.165683
-0.148745
-0.133616
-0.12008
-0.107946
-0.0970484
-0.0872399
-0.0783936
-0.0703981
-0.0631559
-0.0565815
-0.0505998
-0.0451448
-0.0401578
-0.0355875
-0.0313853
-0.0275138
-0.0239293
-0.0206094
-0.0175862
-0.0147593
-0.56095
-0.556174
-0.55235
-0.546728
-0.535634
-0.516738
-0.48987
-0.456836
-0.420392
-0.383187
-0.347179
-0.313526
-0.282744
-0.254926
-0.229938
-0.207546
-0.187486
-0.169498
-0.153347
-0.138819
-0.125727
-0.113907
-0.103213
-0.0935201
-0.0847165
-0.0767048
-0.0693994
-0.0627249
-0.0566153
-0.0510124
-0.0458659
-0.0411311
-0.0367748
-0.0327593
-0.0290866
-0.025688
-0.0225547
-0.603275
-0.598135
-0.593884
-0.587393
-0.574774
-0.553812
-0.524646
-0.489397
-0.451005
-0.412152
-0.374744
-0.339857
-0.307935
-0.279029
-0.252981
-0.229548
-0.208464
-0.189474
-0.172346
-0.15687
-0.142861
-0.130158
-0.118618
-0.108113
-0.0985349
-0.0897847
-0.0817771
-0.0744364
-0.0676962
-0.0614982
-0.0557918
-0.0505333
-0.0456872
-0.0412219
-0.03712
-0.033329
-0.0297084
-0.645208
-0.639712
-0.634951
-0.627388
-0.612972
-0.589683
-0.55804
-0.520503
-0.480169
-0.439726
-0.400992
-0.364949
-0.331963
-0.302038
-0.274992
-0.250575
-0.228523
-0.208584
-0.190529
-0.174152
-0.159272
-0.145729
-0.13338
-0.122101
-0.111782
-0.102325
-0.0936446
-0.0856638
-0.0783162
-0.0715429
-0.0652924
-0.0595198
-0.0541878
-0.0492578
-0.0447101
-0.0404574
-0.0363726
-0.686578
-0.680727
-0.675364
-0.666534
-0.650076
-0.624247
-0.59
-0.550132
-0.507876
-0.465889
-0.425886
-0.388741
-0.354743
-0.323848
-0.295856
-0.270508
-0.24754
-0.226703
-0.207771
-0.190543
-0.174839
-0.160501
-0.147388
-0.135375
-0.124354
-0.114225
-0.104903
-0.0963113
-0.0883817
-0.0810544
-0.0742765
-0.0680015
-0.0621889
-0.0567999
-0.0518073
-0.0471248
-0.0426568
-0.727195
-0.720988
-0.714916
-0.704606
-0.685861
-0.657292
-0.620335
-0.57812
-0.533981
-0.490511
-0.449306
-0.411122
-0.376172
-0.344366
-0.315483
-0.28926
-0.26543
-0.24375
-0.223995
-0.205967
-0.189489
-0.174403
-0.160571
-0.147868
-0.136184
-0.125422
-0.115494
-0.106323
-0.0978409
-0.089986
-0.082704
-0.0759464
-0.0696698
-0.0638338
-0.0584059
-0.0533043
-0.048457
-0.766847
-0.760277
-0.753383
-0.741381
-0.720121
-0.688651
-0.648922
-0.604376
-0.558409
-0.513525
-0.47118
-0.432017
-0.396168
-0.363504
-0.333784
-0.306738
-0.282103
-0.259633
-0.23911
-0.220335
-0.203134
-0.187351
-0.172847
-0.159498
-0.147195
-0.135839
-0.125342
-0.115628
-0.106625
-0.0982717
-0.0905124
-0.0832971
-0.0765807
-0.0703224
-0.0644857
-0.058997
-0.0538109
-0.805298
-0.798358
-0.790518
-0.776612
-0.75263
-0.71813
-0.675601
-0.628767
-0.581046
-0.534824
-0.49141
-0.451329
-0.414639
-0.381173
-0.350672
-0.322862
-0.297478
-0.274277
-0.253041
-0.233575
-0.215706
-0.199277
-0.184151
-0.170205
-0.157328
-0.145421
-0.134397
-0.124176
-0.114689
-0.10587
-0.097665
-0.0900208
-0.0828917
-0.076236
-0.0700141
-0.0641643
-0.058655
-0.84229
-0.834969
-0.826055
-0.810043
-0.78316
-0.745546
-0.70023
-0.651179
-0.601795
-0.554319
-0.509908
-0.468972
-0.431501
-0.397289
-0.366066
-0.33755
-0.311476
-0.287603
-0.265714
-0.245615
-0.227133
-0.210114
-0.194419
-0.179926
-0.166522
-0.154111
-0.142602
-0.131916
-0.121982
-0.112736
-0.104119
-0.0960796
-0.0885699
-0.0815474
-0.0749702
-0.068787
-0.0629744
-0.877545
-0.869828
-0.859711
-0.841405
-0.811475
-0.770707
-0.722656
-0.671487
-0.620542
-0.571905
-0.526576
-0.484854
-0.446663
-0.411769
-0.379884
-0.350725
-0.324024
-0.299542
-0.277062
-0.256391
-0.237356
-0.219804
-0.203595
-0.188607
-0.174729
-0.161861
-0.149914
-0.138807
-0.128469
-0.118834
-0.109843
-0.101443
-0.093587
-0.0862297
-0.0793291
-0.0728444
-0.0667504
-0.910766
-0.902637
-0.89119
-0.870424
-0.837342
-0.793425
-0.74273
-0.689565
-0.63718
-0.587483
-0.541319
-0.498883
-0.460041
-0.42453
-0.39205
-0.362313
-0.335053
-0.310027
-0.28702
-0.26584
-0.246314
-0.228288
-0.211624
-0.196197
-0.181897
-0.168624
-0.156288
-0.144808
-0.13411
-0.12413
-0.114806
-0.106085
-0.0979194
-0.0902625
-0.0830728
-0.0763171
-0.0699624
-0.941642
-0.933083
-0.920187
-0.896821
-0.860526
-0.813513
-0.760298
-0.705282
-0.651587
-0.600939
-0.554032
-0.510961
-0.471542
-0.435486
-0.402483
-0.372241
-0.34449
-0.31899
-0.295525
-0.273903
-0.25395
-0.235512
-0.218452
-0.202644
-0.187978
-0.174353
-0.161678
-0.149872
-0.138862
-0.12858
-0.118966
-0.109966
-0.101529
-0.0936087
-0.0861658
-0.0791706
-0.0725778
-0.969855
-0.960847
-0.946391
-0.920321
-0.880797
-0.830783
-0.775204
-0.718499
-0.663638
-0.612157
-0.564603
-0.520985
-0.481071
-0.444548
-0.4111
-0.380428
-0.352263
-0.326363
-0.302512
-0.280517
-0.260205
-0.241422
-0.224029
-0.207901
-0.192926
-0.179004
-0.166044
-0.153964
-0.142688
-0.132151
-0.122291
-0.113052
-0.104383
-0.0962372
-0.0885759
-0.0813683
-0.0745543
-0.995084
-0.985608
-0.969499
-0.940655
-0.897935
-0.845057
-0.787299
-0.729088
-0.673214
-0.621025
-0.572932
-0.528861
-0.488539
-0.451636
-0.417825
-0.386805
-0.358306
-0.332084
-0.307923
-0.285629
-0.26503
-0.24597
-0.228311
-0.211927
-0.196707
-0.182548
-0.16936
-0.157059
-0.145572
-0.134829
-0.12477
-0.115339
-0.106482
-0.0981531
-0.0903134
-0.0829265
-0.0759206
-1.01701
-1.00705
-0.989217
-0.957575
-0.911747
-0.856192
-0.796474
-0.736957
-0.68024
-0.627482
-0.578964
-0.534543
-0.493909
-0.456716
-0.422631
-0.391349
-0.362598
-0.336134
-0.311741
-0.289224
-0.26841
-0.249144
-0.231287
-0.214713
-0.199309
-0.184975
-0.171619
-0.159157
-0.147514
-0.136622
-0.126419
-0.116847
-0.107854
-0.0993926
-0.091424
-0.0839044
-0.0767586
-1.03533
-1.02487
-1.00527
-0.970853
-0.922073
-0.864084
-0.802665
-0.742073
-0.684697
-0.631518
-0.582701
-0.53804
-0.497195
-0.459809
-0.425541
-0.394085
-0.365168
-0.338545
-0.313998
-0.291333
-0.270377
-0.250973
-0.232984
-0.216282
-0.200757
-0.186306
-0.172838
-0.160269
-0.148524
-0.137534
-0.127238
-0.117577
-0.108498
-0.0999561
-0.0919085
-0.084306
-0.0770778
-1.04975
-1.03877
-1.01738
-0.980266
-0.928743
-0.868604
-0.805766
-0.744339
-0.686497
-0.633051
-0.584066
-0.539281
-0.498334
-0.460856
-0.426503
-0.394968
-0.365974
-0.339277
-0.314659
-0.291925
-0.270901
-0.251432
-0.233379
-0.216616
-0.20103
-0.18652
-0.172995
-0.160371
-0.148573
-0.137534
-0.12719
-0.117484
-0.108363
-0.0997819
-0.0916966
-0.0840508
-0.076783
-1.05999
-1.04848
-1.02529
-0.985557
-0.931485
-0.869445
-0.80543
-0.743373
-0.685236
-0.631671
-0.582649
-0.537866
-0.496936
-0.459481
-0.425155
-0.393647
-0.364679
-0.338007
-0.313412
-0.290699
-0.269694
-0.250243
-0.232204
-0.215455
-0.199881
-0.185383
-0.171868
-0.159253
-0.147463
-0.136431
-0.126094
-0.116395
-0.107281
-0.0987102
-0.0906347
-0.0829907
-0.0757335
-1.06589
-1.05385
-1.02883
-0.98649
-0.929958
-0.866146
-0.801096
-0.738552
-0.680259
-0.626712
-0.577792
-0.533146
-0.492368
-0.45507
-0.4209
-0.389544
-0.360725
-0.334195
-0.309736
-0.287153
-0.266271
-0.246936
-0.229009
-0.212365
-0.196892
-0.182489
-0.169066
-0.15654
-0.144837
-0.133887
-0.123629
-0.114006
-0.104969
-0.0964766
-0.088478
-0.0809027
-0.0737347
0.0495067
0.0477994
0.0500139
0.0556658
0.0644443
0.0760209
0.0896544
0.104229
0.118631
0.131876
0.143256
0.152367
0.159083
0.163489
0.165806
0.166324
0.165352
0.163187
0.160097
0.156312
0.152021
0.147381
0.142516
0.137525
0.132485
0.127457
0.122486
0.117608
0.112848
0.108226
0.103755
0.099444
0.0952993
0.0913204
0.087515
0.0838682
0.0804028
0.0474281
0.0457385
0.0479514
0.0535906
0.0623618
0.0739511
0.0876217
0.102267
0.116766
0.130125
0.141628
0.150865
0.157704
0.162228
0.164654
0.165272
0.164394
0.162316
0.159307
0.155596
0.151376
0.146801
0.141998
0.137066
0.132082
0.127107
0.122187
0.117358
0.112645
0.108068
0.103641
0.0993724
0.0952684
0.0913283
0.0875583
0.0839359
0.0804832
0.040758
0.0391466
0.0413612
0.0469497
0.055662
0.06723
0.0809409
0.0957165
0.110425
0.124058
0.135877
0.145451
0.152633
0.157492
0.160243
0.16117
0.160583
0.158779
0.156027
0.152556
0.148561
0.144196
0.13959
0.134842
0.13003
0.125215
0.120446
0.115759
0.111179
0.106728
0.10242
0.0982637
0.0942665
0.09043
0.0867622
0.0832442
0.0799089
0.0296062
0.0281311
0.0303482
0.0358454
0.0444448
0.0559562
0.0697118
0.0846759
0.0997078
0.113774
0.1261
0.136222
0.143963
0.149377
0.152664
0.154104
0.154002
0.152655
0.15033
0.147261
0.14364
0.139625
0.135344
0.1309
0.126371
0.121821
0.117299
0.112841
0.108478
0.104229
0.10011
0.0961333
0.0923046
0.0886285
0.0851139
0.0817399
0.0785392
0.014153
0.0128699
0.0150902
0.0204584
0.0288947
0.0403222
0.0541318
0.0693459
0.0848157
0.0994713
0.112489
0.123357
0.131864
0.138037
0.142058
0.144201
0.144765
0.144045
0.142311
0.139793
0.136687
0.133153
0.12932
0.125293
0.121154
0.116966
0.112782
0.10864
0.104571
0.100597
0.0967362
0.0930015
0.0893996
0.0859377
0.0826243
0.0794351
0.0763971
-0.00535691
-0.00639631
-0.00417139
0.00103592
0.00927101
0.0205809
0.0344657
0.0499967
0.0660178
0.081413
0.0952964
0.107098
0.11656
0.123677
0.128615
0.131634
0.133029
0.133094
0.132096
0.130268
0.127807
0.124876
0.121605
0.118101
0.11445
0.110717
0.106956
0.103209
0.0995082
0.095879
0.0923396
0.0889063
0.0855859
0.0823887
0.0793219
0.0763588
0.0735194
-0.0286254
-0.0293742
-0.0271409
-0.0221204
-0.0141211
-0.00294744
0.0110398
0.0269599
0.0436453
0.0599232
0.0748334
0.087737
0.0983233
0.106552
0.112566
0.116614
0.118986
0.119974
0.119844
0.11883
0.117131
0.114912
0.112305
0.109421
0.106347
0.103152
0.0998937
0.0966148
0.0933512
0.0901297
0.0869713
0.0838943
0.0809064
0.0780212
0.0752446
0.0725488
0.0699439
-0.0553137
-0.0557302
-0.0534821
-0.0486649
-0.0409381
-0.029891
-0.0157662
0.00061937
0.0180803
0.0353744
0.0514561
0.0656094
0.0774657
0.086946
0.0941719
0.0993799
0.102854
0.104883
0.105734
0.105642
0.104807
0.103395
0.101544
0.0993646
0.096948
0.0943671
0.0916809
0.0889363
0.0861714
0.0834156
0.080692
0.0780216
0.0754131
0.0728835
0.070437
0.0680456
0.0657049
-0.0850567
-0.0851058
-0.0828388
-0.0782549
-0.0707737
-0.0598467
-0.045538
-0.0286044
-0.0102597
0.00817285
0.0255523
0.0410794
0.0543252
0.065172
0.0737195
0.0801927
0.0848704
0.0880387
0.0899646
0.0908838
0.090998
0.0904758
0.089457
0.0880561
0.0863668
0.0844653
0.0824136
0.0802615
0.0780502
0.0758114
0.0735711
0.0713525
0.0691655
0.0670308
0.0649503
0.0628961
0.0608473
-0.117477
-0.117127
-0.114832
-0.110492
-0.103253
-0.0924046
-0.0778449
-0.060272
-0.0409374
-0.0212563
-0.002473
0.014527
0.0292541
0.0415538
0.0515056
0.059324
0.0652832
0.069667
0.0727421
0.0747447
0.075878
0.0763126
0.0761907
0.0756298
0.0747267
0.0735604
0.0721964
0.0706872
0.069077
0.0674002
0.0656854
0.0639581
0.06223
0.0605251
0.0588425
0.0571555
0.0554233
-0.152197
-0.151432
-0.149123
-0.144973
-0.137966
-0.127143
-0.11225
-0.0939381
-0.0735098
-0.0524833
-0.0322109
-0.013665
0.00260763
0.016419
0.0278311
0.03705
0.0443457
0.0500003
0.0542796
0.0574203
0.0596264
0.0610704
0.0618967
0.0622255
0.0621564
0.0617717
0.0611395
0.0603157
0.059347
0.0582706
0.0571177
0.0559159
0.0546787
0.0534334
0.0521761
0.0508834
0.0494912
-0.188848
-0.187671
-0.185323
-0.181358
-0.17453
-0.163653
-0.148325
-0.129165
-0.107542
-0.0850861
-0.0632609
-0.0431213
-0.025266
-0.00991094
0.00299237
0.0136436
0.0223095
0.0292704
0.0347909
0.0391076
0.0424252
0.0449173
0.0467305
0.0479871
0.0487893
0.0492225
0.0493576
0.0492535
0.0489596
0.0485161
0.0479562
0.0473097
0.0465917
0.0458322
0.0450234
0.0441475
0.0431158
-0.22711
-0.2255
-0.223106
-0.219293
-0.212576
-0.201544
-0.185661
-0.165533
-0.142616
-0.11866
-0.0952382
-0.0734814
-0.0540314
-0.0371248
-0.0227223
-0.0106282
-0.00057821
0.00770608
0.0144881
0.0200035
0.024457
0.0280233
0.03085
0.0330616
0.0347627
0.0360413
0.0369709
0.0376134
0.0380205
0.0382358
0.0382944
0.0382292
0.0380563
0.0378085
0.037473
0.0370372
0.0363848
-0.266667
-0.264634
-0.262173
-0.258468
-0.251768
-0.240452
-0.223871
-0.202648
-0.178339
-0.152824
-0.127781
-0.104404
-0.083369
-0.0649243
-0.0490347
-0.0355061
-0.0240757
-0.0144672
-0.00641896
0.000303401
0.00590393
0.0105576
0.014413
0.0175965
0.0202145
0.0223572
0.0241009
0.02551
0.0266384
0.0275329
0.0282297
0.0287656
0.0291586
0.0294439
0.0296086
0.0296435
0.0294023
-0.307252
-0.304802
-0.302256
-0.298594
-0.291798
-0.280046
-0.262608
-0.240151
-0.214358
-0.18724
-0.160566
-0.135586
-0.112994
-0.093041
-0.075692
-0.0607518
-0.0479587
-0.0370385
-0.0277319
-0.0198067
-0.0130599
-0.00731682
-0.00242819
0.00173331
0.00527608
0.00829248
0.010861
0.013049
0.0149124
0.0165012
0.0178527
0.0190062
0.0199812
0.0208121
0.0214944
0.0220199
0.0222242
-0.348627
-0.345769
-0.343112
-0.339416
-0.332388
-0.320028
-0.301561
-0.277737
-0.250381
-0.221632
-0.193342
-0.166794
-0.142687
-0.12127
-0.1025
-0.0861807
-0.0720514
-0.0598402
-0.0492914
-0.0401751
-0.0322902
-0.0254629
-0.019544
-0.0144053
-0.00993692
-0.00604476
-0.00264794
0.000323348
0.00292835
0.00521999
0.00723926
0.00902748
0.0106086
0.0120077
0.0132334
0.0142608
0.0149272
-0.390584
-0.387327
-0.384528
-0.380701
-0.373281
-0.360119
-0.340443
-0.315127
-0.28615
-0.255769
-0.225899
-0.197835
-0.172271
-0.149443
-0.1293
-0.111642
-0.0962099
-0.0827356
-0.070967
-0.0606777
-0.051669
-0.0437685
-0.0368272
-0.0307167
-0.0253262
-0.0205601
-0.0163355
-0.0125805
-0.00923266
-0.00623649
-0.00354475
-0.0011127
0.00109595
0.00310332
0.00493675
0.00653526
0.00772056
-0.432949
-0.429296
-0.426305
-0.422225
-0.414222
-0.400039
-0.378957
-0.352011
-0.321344
-0.289325
-0.257907
-0.228383
-0.201425
-0.177248
-0.15579
-0.136846
-0.120159
-0.105464
-0.0925137
-0.0810845
-0.0709809
-0.062032
-0.0540898
-0.0470257
-0.0407285
-0.0351013
-0.0300598
-0.0255306
-0.0214488
-0.0177571
-0.0144042
-0.011342
-0.0085232
-0.00591102
-0.00344292
-0.00117016
0.000722647
-0.475586
-0.471539
-0.468313
-0.463861
-0.455071
-0.439605
-0.416853
-0.388054
-0.355547
-0.321811
-0.288827
-0.257868
-0.229566
-0.204105
-0.181403
-0.161246
-0.143374
-0.127526
-0.113455
-0.100944
-0.0897988
-0.0798504
-0.0709518
-0.0629751
-0.0558086
-0.049355
-0.0435292
-0.0382565
-0.033471
-0.029114
-0.0251335
-0.0214801
-0.0181094
-0.014976
-0.0120051
-0.00916937
-0.00631532
0.0764497
0.0721389
0.0681717
0.0645566
0.0612068
0.0581041
0.0552818
0.0527155
0.0503445
0.0481462
0.0461212
0.0442594
0.0425429
0.0409579
0.0394944
0.0381429
0.0368942
0.0357401
0.0346732
0.0336866
0.0327743
0.0319304
0.0311496
0.030427
0.0297582
0.0291389
0.0285653
0.0280339
0.0275414
0.0270847
0.0266611
0.0262678
0.0259026
0.0255631
0.0252472
0.024953
0.0246786
0.0244221
0.024182
0.0239565
0.0237444
0.0235442
0.0233548
0.0231748
0.0230032
0.0228388
0.0226807
0.0225277
0.0223789
0.0222334
0.0220903
0.0219485
0.0218073
0.0216656
0.0215226
0.0213775
0.0212292
0.0210768
0.0209195
0.0207561
0.0205858
0.0204074
0.0202199
0.020022
0.0198126
0.0195903
0.0193538
0.0191015
0.0188318
0.0185428
0.0182326
0.0178989
0.0175394
0.0171518
0.0167337
0.0162834
0.0157987
0.0152777
0.0147176
0.0141152
0.0134673
0.0127702
0.0120204
0.0112139
0.0103469
0.00941532
0.00841509
0.00734261
0.00619306
0.00496623
0.00365116
0.00226169
0.000780673
0.0765207
0.0723328
0.068546
0.0650165
0.0615964
0.0584267
0.0556367
0.0531226
0.0507567
0.0485462
0.0465205
0.0446628
0.0429464
0.0413584
0.0398912
0.0385355
0.037282
0.0361225
0.0350498
0.0340573
0.0331387
0.0322884
0.0315011
0.030772
0.0300967
0.0294709
0.0288909
0.028353
0.0278541
0.027391
0.026961
0.0265614
0.0261899
0.0258441
0.025522
0.0252216
0.024941
0.0246784
0.0244321
0.0242006
0.0239822
0.0237759
0.0235803
0.0233941
0.0232164
0.0230459
0.0228816
0.0227225
0.0225677
0.0224162
0.0222669
0.0221192
0.0219719
0.0218243
0.0216753
0.0215242
0.0213699
0.0212116
0.0210483
0.020879
0.0207026
0.0205182
0.0203246
0.0201206
0.019905
0.0196764
0.0194335
0.0191746
0.0188982
0.0186024
0.0182851
0.0179441
0.0175772
0.017182
0.0167566
0.0162989
0.0158075
0.0152801
0.014714
0.0141062
0.0134533
0.0127518
0.0119981
0.0111885
0.0103191
0.00938593
0.00838508
0.00731298
0.00616509
0.00494075
0.00363047
0.00224629
0.000772321
0.0760935
0.0719494
0.0683138
0.0648921
0.0615086
0.0583899
0.0557059
0.0532861
0.05095
0.0487554
0.0467549
0.0449219
0.0432235
0.0416482
0.0401904
0.0388413
0.037592
0.036435
0.0353636
0.0343715
0.0334525
0.032601
0.0318118
0.0310802
0.0304017
0.0297724
0.0291884
0.0286464
0.028143
0.0276754
0.0272405
0.026836
0.0264595
0.0261086
0.0257813
0.0254757
0.0251898
0.0249219
0.0246702
0.0244332
0.0242093
0.0239974
0.0237962
0.0236044
0.023421
0.0232449
0.0230749
0.0229102
0.0227497
0.0225925
0.0224377
0.0222843
0.0221314
0.0219781
0.0218236
0.0216669
0.021507
0.0213431
0.0211741
0.0209992
0.0208172
0.020627
0.0204277
0.0202178
0.0199963
0.0197618
0.0195127
0.0192476
0.0189648
0.0186623
0.0183383
0.0179903
0.0176161
0.0172136
0.0167808
0.0163161
0.0158179
0.0152842
0.0147123
0.0140991
0.0134413
0.0127354
0.0119779
0.0111651
0.0102932
0.00935838
0.0083568
0.00728492
0.00613852
0.00491644
0.00361072
0.00223149
0.000764145
0.0748339
0.070928
0.0676333
0.0644803
0.0611114
0.0580222
0.0554459
0.0531914
0.0509392
0.0488079
0.0468552
0.045061
0.0433969
0.0418496
0.0404134
0.0390803
0.0378429
0.0366944
0.0356289
0.0346409
0.0337249
0.0328756
0.0320878
0.0313569
0.0306784
0.0300481
0.0294626
0.0289184
0.0284124
0.0279417
0.0275034
0.0270951
0.0267145
0.0263594
0.0260277
0.0257176
0.0254271
0.0251545
0.024898
0.0246559
0.0244269
0.0242098
0.0240034
0.0238064
0.0236177
0.0234362
0.023261
0.0230909
0.0229251
0.0227626
0.0226025
0.0224438
0.0222856
0.0221271
0.0219673
0.0218053
0.0216402
0.021471
0.0212969
0.0211166
0.0209294
0.0207339
0.0205292
0.0203139
0.0200869
0.0198468
0.019592
0.0193211
0.0190322
0.0187236
0.018393
0.0180384
0.0176574
0.0172478
0.0168079
0.0163363
0.0158315
0.0152917
0.0147141
0.0140956
0.0134329
0.0127226
0.0119613
0.0111452
0.0102707
0.00933406
0.00833154
0.00725961
0.00611439
0.00489418
0.00359259
0.00221774
0.000756371
0.0728133
0.0691088
0.0661834
0.06339
0.060311
0.0574286
0.0550818
0.0528562
0.0506228
0.0486533
0.0468009
0.0450716
0.0434624
0.0419591
0.0405573
0.0392514
0.0380357
0.0369047
0.0358528
0.0348747
0.0339652
0.0331201
0.0323353
0.0316068
0.0309302
0.0303013
0.0297164
0.029172
0.0286651
0.0281929
0.0277526
0.0273418
0.0269582
0.0265997
0.0262644
0.0259504
0.0256559
0.0253791
0.0251183
0.0248716
0.0246378
0.0244158
0.0242044
0.0240023
0.0238086
0.023622
0.0234416
0.0232664
0.0230955
0.0229278
0.0227625
0.0225987
0.0224355
0.0222719
0.0221071
0.0219401
0.02177
0.0215959
0.0214168
0.0212316
0.0210394
0.020839
0.0206293
0.0204091
0.020177
0.0199317
0.0196716
0.0193953
0.0191008
0.0187864
0.01845
0.0180891
0.0177016
0.0172854
0.0168387
0.0163604
0.0158493
0.0153037
0.0147205
0.0140969
0.0134294
0.0127147
0.0119495
0.01113
0.0102528
0.00931409
0.00831032
0.00723799
0.0060935
0.00487466
0.0035766
0.00220542
0.000749167
0.070088
0.0666432
0.0641974
0.0618897
0.0591278
0.0564821
0.0543404
0.0523529
0.0503672
0.048348
0.0465268
0.0449102
0.0434102
0.0419698
0.0406127
0.0393437
0.0381584
0.0370528
0.0360229
0.0350638
0.0341698
0.033336
0.0325585
0.0318342
0.0311603
0.0305336
0.0299506
0.0294079
0.0289019
0.0284299
0.027989
0.0275769
0.0271915
0.0268307
0.0264927
0.0261757
0.0258779
0.0255976
0.0253329
0.025082
0.0248438
0.0246172
0.0244011
0.0241943
0.0239956
0.0238041
0.0236187
0.0234384
0.0232625
0.0230898
0.0229195
0.0227506
0.0225824
0.0224139
0.0222442
0.0220723
0.0218974
0.0217185
0.0215347
0.0213448
0.0211479
0.0209429
0.0207285
0.0205036
0.0202668
0.0200167
0.0197518
0.0194705
0.019171
0.0188513
0.0185094
0.0181429
0.0177494
0.0173269
0.0168739
0.0163893
0.0158723
0.0153211
0.0147326
0.014104
0.0134318
0.0127128
0.0119435
0.0111206
0.0102404
0.00929938
0.00829401
0.00722083
0.00607656
0.00485848
0.00356322
0.00219483
0.000742677
0.0666909
0.0635486
0.0616514
0.0599013
0.057557
0.0552301
0.0533377
0.0515448
0.0496765
0.0478509
0.0461942
0.0444752
0.0432158
0.0418846
0.0405901
0.0393673
0.0382197
0.0371443
0.0361385
0.0352
0.0343252
0.0335099
0.0327488
0.032037
0.031371
0.0307486
0.030168
0.029627
0.0291229
0.0286524
0.0282124
0.0278005
0.0274146
0.0270526
0.0267129
0.0263937
0.0260934
0.0258103
0.0255424
0.0252878
0.0250457
0.024815
0.0245945
0.0243832
0.0241798
0.0239835
0.0237933
0.0236082
0.0234273
0.0232496
0.0230744
0.0229006
0.0227275
0.0225541
0.0223795
0.0222029
0.0220233
0.0218397
0.0216512
0.0214568
0.0212554
0.0210459
0.0208271
0.0205978
0.0203566
0.0201021
0.0198327
0.0195469
0.0192428
0.0189183
0.0185715
0.0181999
0.017801
0.0173729
0.016914
0.0164236
0.0159011
0.0153446
0.0147512
0.0141177
0.0134409
0.0127176
0.0119444
0.0111178
0.0102344
0.00929076
0.00828338
0.00720886
0.0060642
0.00484617
0.00355287
0.00218627
0.000737046
0.0626504
0.0598641
0.0585921
0.0574708
0.05561
0.0536536
0.0520463
0.0504797
0.0488185
0.0472229
0.0457773
0.0445148
0.0429985
0.0416615
0.0404634
0.0393134
0.0382221
0.0371928
0.0362215
0.0353059
0.0344469
0.0336448
0.0328977
0.0322019
0.0315517
0.0309421
0.0303696
0.0298328
0.0293306
0.0288615
0.0284231
0.0280125
0.0276272
0.0272654
0.026925
0.0266045
0.0263025
0.0260175
0.0257471
0.0254894
0.0252438
0.0250095
0.0247851
0.0245695
0.0243618
0.024161
0.0239661
0.0237763
0.0235906
0.0234082
0.0232281
0.0230495
0.0228715
0.0226933
0.0225139
0.0223326
0.0221483
0.0219601
0.0217671
0.0215682
0.0213624
0.0211485
0.0209255
0.020692
0.0204467
0.020188
0.0199146
0.0196247
0.0193163
0.0189877
0.0186365
0.0182603
0.0178567
0.0174235
0.0169593
0.0164637
0.0159363
0.015375
0.0147769
0.0141388
0.0134576
0.01273
0.0119527
0.0111224
0.0102356
0.00928895
0.00827913
0.00720271
0.006057
0.00483824
0.00354598
0.00218003
0.000732421
0.0580131
0.0556366
0.0550586
0.0546265
0.0533054
0.0517624
0.0504687
0.0491594
0.0477443
0.046377
0.045089
0.0438242
0.042517
0.0413498
0.0401895
0.0391507
0.0381404
0.0371718
0.0362529
0.0353801
0.0345513
0.0337671
0.0330293
0.0323399
0.0316987
0.031102
0.0305442
0.0300198
0.0295256
0.0290603
0.0286234
0.0282137
0.0278295
0.0274686
0.0271288
0.0268081
0.0265054
0.0262193
0.0259471
0.025687
0.0254386
0.025201
0.0249731
0.0247537
0.0245419
0.0243369
0.0241377
0.0239434
0.0237531
0.023566
0.0233812
0.0231978
0.0230151
0.0228321
0.0226481
0.022462
0.0222731
0.0220803
0.0218828
0.0216795
0.0214694
0.0212513
0.0210242
0.0207866
0.0205373
0.0202749
0.0199976
0.0197039
0.0193918
0.0190593
0.0187043
0.0183242
0.0179165
0.017479
0.0170102
0.0165101
0.0159783
0.0154127
0.0148102
0.0141678
0.0134823
0.0127505
0.0119692
0.011135
0.0102445
0.00929456
0.00828184
0.00720296
0.0060555
0.00483518
0.00354292
0.00217639
0.000728951
0.0528297
0.0509191
0.0510999
0.0514041
0.0506563
0.0495499
0.0485938
0.0475801
0.0464496
0.0453249
0.0442173
0.0430999
0.0419682
0.0408859
0.0398971
0.0388662
0.0379639
0.0370799
0.0362206
0.0353977
0.0346133
0.0338656
0.0331531
0.0324767
0.0318393
0.0312439
0.030691
0.0301772
0.0296965
0.029243
0.0288134
0.0284069
0.0280237
0.0276633
0.0273241
0.027004
0.0267017
0.0264156
0.0261424
0.0258806
0.02563
0.0253898
0.0251587
0.0249359
0.0247205
0.0245116
0.0243082
0.0241097
0.023915
0.0237234
0.023534
0.0233461
0.0231587
0.0229711
0.0227824
0.0225917
0.0223982
0.0222009
0.0219989
0.0217913
0.0215769
0.0213547
0.0211234
0.020882
0.0206289
0.0203627
0.0200819
0.0197846
0.0194691
0.0191333
0.0187749
0.0183915
0.0179804
0.0175393
0.0170668
0.0165629
0.0160274
0.015458
0.0148516
0.0142052
0.0135156
0.0127797
0.0119943
0.011156
0.0102617
0.00930813
0.00829205
0.00721011
0.00606015
0.00483739
0.00354405
0.00217561
0.000726787
0.0471613
0.0457747
0.0467662
0.0478307
0.0476694
0.0470136
0.046419
0.0457416
0.0449356
0.0440818
0.043183
0.042244
0.0412985
0.0403624
0.0394441
0.0385962
0.0376824
0.0368986
0.0361228
0.0353614
0.0346263
0.0339198
0.0332439
0.032598
0.0319807
0.031393
0.0308391
0.0303226
0.0298439
0.0293993
0.0289821
0.0285864
0.0282097
0.0278519
0.0275131
0.0271929
0.0268911
0.0266058
0.0263328
0.0260702
0.0258181
0.0255758
0.0253421
0.0251164
0.0248977
0.0246851
0.024478
0.0242754
0.0240766
0.0238807
0.023687
0.0234946
0.0233027
0.0231105
0.0229172
0.022722
0.022524
0.0223222
0.0221158
0.0219038
0.0216852
0.0214589
0.0212236
0.0209783
0.0207215
0.0204517
0.0201675
0.019867
0.0195484
0.0192096
0.0188483
0.0184621
0.0180483
0.0176045
0.0171291
0.0166224
0.0160838
0.0155112
0.0149013
0.0142511
0.0135577
0.0128178
0.0120283
0.011186
0.0102877
0.00933006
0.00831017
0.00722458
0.00607136
0.00484527
0.00354967
0.00217795
0.000726084
0.0410767
0.0402741
0.0421226
0.0439235
0.0443493
0.0441582
0.0439506
0.0436498
0.0432039
0.0426429
0.0419763
0.0412423
0.0404831
0.0397138
0.0389318
0.0381499
0.0374278
0.0366265
0.0359453
0.0352635
0.0345865
0.0339295
0.033295
0.0326835
0.0320967
0.0315341
0.0309949
0.0304814
0.0299979
0.0295478
0.0291307
0.0287424
0.0283768
0.0280287
0.0276955
0.0273769
0.0270755
0.0267906
0.0265179
0.0262554
0.0260026
0.0257589
0.0255232
0.025295
0.0250734
0.0248577
0.0246471
0.0244408
0.024238
0.0240381
0.0238402
0.0236435
0.0234472
0.0232506
0.0230529
0.0228532
0.0226507
0.0224445
0.0222338
0.0220175
0.0217947
0.0215642
0.021325
0.0210758
0.0208154
0.0205422
0.0202547
0.0199511
0.0196296
0.0192881
0.0189243
0.0185358
0.0181199
0.0176743
0.0171971
0.0166884
0.0161476
0.0155722
0.0149593
0.0143058
0.0136088
0.0128651
0.0120716
0.0112251
0.0103225
0.00936068
0.00833653
0.00724672
0.00608947
0.00485915
0.0035601
0.00218365
0.000727005
0.0346661
0.0345012
0.0372197
0.039682
0.0406819
0.040987
0.0412007
0.0413104
0.0412489
0.040999
0.0405876
0.0400841
0.0395292
0.0389315
0.0383036
0.0376528
0.0369921
0.0363806
0.0356853
0.0350931
0.0344935
0.0338923
0.0333034
0.032733
0.0321809
0.031647
0.0311331
0.0306393
0.0301655
0.0297144
0.0292896
0.0288935
0.0285265
0.0281846
0.027861
0.0275507
0.0272544
0.0269716
0.0266994
0.026437
0.0261838
0.025939
0.0257019
0.0254717
0.0252477
0.0250292
0.0248154
0.0246058
0.0243994
0.0241956
0.0239937
0.0237929
0.0235925
0.0233916
0.0231896
0.0229855
0.0227786
0.0225681
0.022353
0.0221325
0.0219055
0.0216709
0.0214278
0.0211748
0.0209107
0.0206341
0.0203434
0.0200368
0.0197126
0.0193687
0.0190028
0.0186125
0.0181952
0.0177485
0.0172704
0.0167608
0.0162186
0.0156411
0.0150256
0.0143692
0.0136689
0.0129215
0.0121241
0.0112735
0.0103666
0.0094002
0.0083714
0.0072768
0.00611479
0.00487932
0.00357558
0.00219297
0.000729723
0.0280494
0.028569
0.0320438
0.0351098
0.0366591
0.0375035
0.0381803
0.0387258
0.0390633
0.0391429
0.0390127
0.038763
0.0384299
0.0380194
0.0375517
0.0370489
0.036514
0.0359585
0.0354431
0.0348463
0.0343323
0.0338045
0.0332701
0.0327439
0.0322294
0.0317296
0.0312446
0.0307747
0.0303215
0.0298855
0.0294662
0.0290659
0.0286887
0.0283383
0.0280119
0.0277056
0.0274178
0.0271429
0.0268758
0.0266156
0.0263626
0.026117
0.0258787
0.0256469
0.0254208
0.0251998
0.0249832
0.0247705
0.0245607
0.0243534
0.0241477
0.023943
0.0237386
0.0235336
0.0233273
0.023119
0.0229079
0.0226931
0.0224737
0.0222489
0.0220178
0.0217792
0.0215321
0.0212753
0.0210076
0.0207276
0.0204337
0.0201243
0.0197975
0.0194513
0.0190835
0.0186917
0.0182735
0.0178267
0.017349
0.0168395
0.0162966
0.0157177
0.0151002
0.0144412
0.0137379
0.0129872
0.012186
0.0113312
0.0104199
0.00944877
0.00841496
0.00731506
0.00614753
0.00490604
0.00359634
0.00220613
0.000734425
0.0212989
0.0225262
0.0266184
0.0302089
0.0323273
0.0337354
0.0348955
0.0358801
0.0366241
0.0370609
0.0372446
0.0372715
0.0371773
0.0369715
0.0366798
0.0363297
0.0359366
0.035502
0.03504
0.0346083
0.0340969
0.0336507
0.0331853
0.0327119
0.0322415
0.031779
0.0313259
0.0308847
0.0304558
0.0300397
0.029637
0.0292478
0.0288718
0.0285145
0.028177
0.02786
0.0275679
0.0272972
0.0270385
0.0267852
0.0265355
0.026291
0.0260525
0.0258196
0.025592
0.025369
0.02515
0.0249345
0.0247217
0.0245111
0.0243019
0.0240935
0.0238852
0.0236763
0.023466
0.0232536
0.0230383
0.0228193
0.0225958
0.0223669
0.0221316
0.021889
0.021638
0.0213775
0.0211062
0.0208227
0.0205257
0.0202135
0.0198842
0.0195358
0.0191663
0.0187733
0.0183547
0.0179085
0.0174323
0.016924
0.0163813
0.0158017
0.0151827
0.0145216
0.0138157
0.0130618
0.0122571
0.0113983
0.0104825
0.00950645
0.00846732
0.00736163
0.00618789
0.00493953
0.00362258
0.00222339
0.000741316
0.0144931
0.016441
0.0209912
0.025012
0.0277593
0.0297775
0.0314115
0.0327942
0.0339257
0.0347409
0.0352696
0.0355953
0.0357602
0.035781
0.0356842
0.0354997
0.0352505
0.0349521
0.0346074
0.0342302
0.0338735
0.0334408
0.0330515
0.0326445
0.0322226
0.0317999
0.0313814
0.0309693
0.0305653
0.0301725
0.0297894
0.0294163
0.0290528
0.0287016
0.0283634
0.0280385
0.0277327
0.0274528
0.0271945
0.0269462
0.0267013
0.0264599
0.0262228
0.0259901
0.0257616
0.0255371
0.0253162
0.0250983
0.0248829
0.0246693
0.0244569
0.0242451
0.0240332
0.0238205
0.0236064
0.02339
0.0231707
0.0229476
0.02272
0.022487
0.0222476
0.022001
0.021746
0.0214817
0.0212067
0.0209198
0.0206196
0.0203044
0.0199725
0.0196221
0.019251
0.0188569
0.0184379
0.0179929
0.0175194
0.0170137
0.0164722
0.0158926
0.0152727
0.0146101
0.0139019
0.0131453
0.0123372
0.0114745
0.0105543
0.00957324
0.00852852
0.00741663
0.006236
0.00497997
0.00365447
0.00224501
0.000750625
0.00785552
0.0105024
0.0152417
0.0195224
0.0229343
0.0256541
0.0277928
0.0295635
0.0310699
0.0322612
0.0331346
0.0337622
0.034197
0.0344611
0.0345766
0.0345727
0.0344761
0.0343084
0.0340861
0.0338115