/*--------------------------------*- C++ -*----------------------------------*\
| =========                 |                                                 |
| \\      /  F ield         | OpenFOAM: The Open Source CFD Toolbox           |
|  \\    /   O peration     | Version:  2312                                  |
|   \\  /    A nd           | Website:  www.openfoam.com                      |
|    \\/     M anipulation  |                                                 |
\*---------------------------------------------------------------------------*/
FoamFile
{
    version     2.0;
    format      ascii;
    arch        "LSB;label=32;scalar=64";
    class       volScalarField;
    location    "28";
    object      p;
}
// * * * * * * * * * * * * * * * * * * * * * * * * * * * * * * * * * * * * * //

dimensions      [0 2 -2 0 0 0 0];

internalField   nonuniform List<scalar> 
9200
(
-0.516595
-0.548631
-0.59597
-0.633367
-0.642757
-0.613869
-0.544486
-0.455326
-0.359535
-0.263969
-0.177373
-0.093527
-0.0207072
0.0340379
0.073012
0.0901751
0.0958711
0.0948053
0.0884531
0.0811024
-0.541156
-0.557145
-0.579519
-0.599225
-0.599096
-0.567173
-0.50386
-0.422078
-0.33616
-0.258064
-0.184617
-0.121244
-0.0652033
-0.0192969
0.0123991
0.0320943
0.043677
0.0533525
0.0562308
0.0585966
-0.539045
-0.546954
-0.55676
-0.566944
-0.563787
-0.533778
-0.475789
-0.404981
-0.333552
-0.266144
-0.205246
-0.14879
-0.099306
-0.0604536
-0.0304357
-0.00703337
0.0109285
0.0243673
0.0326609
0.0389061
-0.529172
-0.532639
-0.539083
-0.540667
-0.535274
-0.50172
-0.44932
-0.387936
-0.326283
-0.269449
-0.217017
-0.167804
-0.124176
-0.0867404
-0.0569692
-0.0335417
-0.0149967
-0.000376462
0.0106106
0.0201584
-0.514804
-0.517737
-0.523902
-0.525834
-0.503731
-0.463941
-0.413589
-0.360079
-0.308031
-0.259307
-0.213946
-0.17256
-0.134526
-0.102409
-0.0765303
-0.0546441
-0.0362481
-0.019529
-0.00591169
0.00501725
-0.506646
-0.517622
-0.504518
-0.492414
-0.461147
-0.420124
-0.375171
-0.329908
-0.286579
-0.245923
-0.208047
-0.17216
-0.14001
-0.111384
-0.0866594
-0.0654129
-0.046735
-0.0316145
-0.0184906
-0.00630034
-0.472814
-0.463603
-0.484364
-0.453642
-0.418387
-0.381143
-0.342918
-0.305347
-0.269235
-0.234813
-0.201847
-0.170675
-0.140823
-0.114546
-0.0912361
-0.0715406
-0.0540153
-0.0372996
-0.0240979
-0.0133259
-0.487
-0.445079
-0.444398
-0.416245
-0.381303
-0.344837
-0.309877
-0.276428
-0.244207
-0.213452
-0.184671
-0.157963
-0.133314
-0.110548
-0.0908304
-0.0720196
-0.0558133
-0.0420167
-0.0287045
-0.0167286
-0.452051
-0.467596
-0.415919
-0.374653
-0.340048
-0.307439
-0.276761
-0.247894
-0.220674
-0.194343
-0.169201
-0.145336
-0.12315
-0.102431
-0.0838589
-0.0680684
-0.0524267
-0.0382161
-0.0265167
-0.0165697
-0.363594
-0.392978
-0.3707
-0.3361
-0.306421
-0.27791
-0.250636
-0.223888
-0.198525
-0.174489
-0.151471
-0.129919
-0.109449
-0.0910508
-0.0738572
-0.0583464
-0.0462281
-0.0345126
-0.0229089
-0.0125199
-1.87522
-1.69832
-1.71394
-1.72138
-1.77108
-1.826
-1.8757
-1.90935
-1.9224
-1.92577
-1.89625
-1.78875
-1.58739
-1.35013
-1.13224
-0.957546
-0.82748
-0.737983
-0.678803
-0.639494
-1.85277
-1.64363
-1.6886
-1.69645
-1.7796
-1.84919
-1.91047
-1.95436
-1.96924
-1.95806
-1.89653
-1.75543
-1.53606
-1.29772
-1.08668
-0.921592
-0.801289
-0.727024
-0.683186
-0.661828
-1.68811
-1.50798
-1.55038
-1.59719
-1.68418
-1.76729
-1.83837
-1.8831
-1.89008
-1.85567
-1.76321
-1.59512
-1.37379
-1.14146
-0.94412
-0.802377
-0.704979
-0.651234
-0.63436
-0.652055
-1.4082
-1.29528
-1.32885
-1.40255
-1.49191
-1.57799
-1.64823
-1.6773
-1.66281
-1.59897
-1.47697
-1.30109
-1.09042
-0.890158
-0.739363
-0.611729
-0.552834
-0.526987
-0.540649
-0.585226
-1.09083
-1.0297
-1.0744
-1.15262
-1.23873
-1.31809
-1.36493
-1.36567
-1.32266
-1.22831
-1.08731
-0.914948
-0.741425
-0.578425
-0.473199
-0.388619
-0.346864
-0.337434
-0.366043
-0.402261
-0.783996
-0.777647
-0.834208
-0.916717
-0.996761
-1.05421
-1.06532
-1.03564
-0.960413
-0.841694
-0.70433
-0.551757
-0.412211
-0.295796
-0.206238
-0.143568
-0.134646
-0.129569
-0.15359
-0.183125
-0.547387
-0.568722
-0.637056
-0.721331
-0.79214
-0.829096
-0.819415
-0.767043
-0.674181
-0.551537
-0.408352
-0.264601
-0.145509
-0.0773813
-0.0183259
0.048441
0.0458696
0.0455475
0.0272029
0.00137042
-0.433149
-0.465686
-0.536349
-0.613599
-0.668245
-0.685104
-0.654303
-0.585732
-0.486065
-0.36522
-0.231109
-0.10792
-0.0101485
0.0699751
0.113336
0.136593
0.152536
0.138357
0.127993
0.0986693
-0.418077
-0.461784
-0.527629
-0.592376
-0.631935
-0.626664
-0.576583
-0.493333
-0.387719
-0.274404
-0.161562
-0.0598249
0.0515728
0.173468
0.171015
0.191076
0.204139
0.172255
0.164036
0.135307
-0.468533
-0.510435
-0.573065
-0.630795
-0.649756
-0.627505
-0.5662
-0.476387
-0.370908
-0.265122
-0.165191
-0.0692391
0.0401501
0.15116
0.151497
0.160793
0.174142
0.152123
0.14142
0.121939
-0.609405
-0.621968
-0.668542
-0.736762
-0.763378
-0.697059
-0.551964
-0.420248
-0.331292
-0.278155
-0.252908
-0.248611
-0.271896
-0.337247
-0.461047
-0.666497
-0.910751
-1.097
-1.12657
-0.945751
-0.652862
-0.376378
-0.201518
-0.134849
-0.109818
-0.105724
-0.111238
-0.115004
-0.107752
-0.0948971
-0.0808464
-0.0659493
-0.0493374
-0.0332218
-0.0202578
-0.0105313
-0.00339965
0.00110046
0.00301293
0.00368494
0.00421295
0.00449888
0.004117
0.00301537
0.00175855
0.000806075
0.00027078
1.67358e-05
-5.09397e-05
-2.37612e-05
-0.667992
-0.733845
-0.844104
-0.963923
-1.02197
-0.952201
-0.769428
-0.579119
-0.443639
-0.354676
-0.30422
-0.290009
-0.303221
-0.362797
-0.492192
-0.691458
-0.949618
-1.15599
-1.18877
-1.01227
-0.720598
-0.450953
-0.279849
-0.195224
-0.159846
-0.154905
-0.160634
-0.158446
-0.142514
-0.117964
-0.0945463
-0.072872
-0.0519968
-0.0335635
-0.0198747
-0.0103235
-0.00338052
0.00132208
0.00352571
0.0041443
0.00434807
0.00437846
0.00397565
0.00301767
0.0018858
0.000993204
0.000464346
0.000167549
3.47601e-05
2.29301e-06
-0.709434
-0.83239
-1.00426
-1.16896
-1.25351
-1.19293
-0.97208
-0.723502
-0.543768
-0.421854
-0.348553
-0.316512
-0.323793
-0.369047
-0.483344
-0.673181
-0.920909
-1.13449
-1.18619
-1.03581
-0.759877
-0.49985
-0.313336
-0.2425
-0.221436
-0.222583
-0.227602
-0.219002
-0.18704
-0.14625
-0.110714
-0.0812682
-0.0557857
-0.0347343
-0.020041
-0.0104753
-0.00363247
0.0012775
0.00381107
0.00446847
0.00442118
0.00421024
0.0037776
0.00295977
0.0019644
0.00114005
0.000618035
0.000294171
0.000107225
1.98111e-05
-0.667973
-0.845927
-1.04917
-1.2449
-1.37088
-1.34148
-1.12139
-0.838104
-0.621778
-0.475027
-0.378206
-0.330161
-0.319796
-0.351386
-0.442921
-0.607521
-0.83595
-1.0357
-1.11013
-0.991253
-0.751721
-0.523129
-0.388177
-0.32423
-0.29229
-0.294842
-0.304942
-0.291583
-0.243076
-0.181925
-0.130452
-0.0914438
-0.0607103
-0.036725
-0.020703
-0.0109151
-0.0041008
0.00100939
0.00390008
0.00465614
0.00442396
0.00403268
0.00359079
0.00289426
0.00200719
0.00123533
0.000729755
0.000389652
0.000164682
3.59842e-05
-0.481712
-0.704348
-0.940665
-1.1823
-1.3687
-1.39918
-1.21211
-0.928756
-0.672442
-0.500072
-0.389833
-0.328891
-0.304523
-0.316247
-0.378537
-0.495883
-0.674207
-0.858961
-0.958583
-0.890099
-0.716137
-0.531602
-0.417443
-0.356696
-0.361664
-0.385124
-0.403084
-0.386679
-0.313356
-0.225707
-0.153914
-0.103437
-0.0667768
-0.0394924
-0.0218191
-0.0115906
-0.00476509
0.000526153
0.0037836
0.00471444
0.00438232
0.00384251
0.00338337
0.00279062
0.0020075
0.00128722
0.000790185
0.00044859
0.000202933
4.63758e-05
-0.245786
-0.482026
-0.74393
-1.02027
-1.24763
-1.3434
-1.21124
-0.940012
-0.684433
-0.502136
-0.383907
-0.315391
-0.279716
-0.271755
-0.307216
-0.394013
-0.533047
-0.693997
-0.789024
-0.77304
-0.653879
-0.516176
-0.439025
-0.432904
-0.451226
-0.477783
-0.51156
-0.49569
-0.39915
-0.280097
-0.182956
-0.118123
-0.0743468
-0.0432115
-0.0234985
-0.012529
-0.00561021
-0.000164128
0.00344612
0.00461773
0.00427117
0.00364117
0.00317611
0.00266572
0.00197218
0.00129957
0.000818805
0.000478023
0.000223051
4.83235e-05
-0.0284926
-0.189008
-0.4163
-0.674165
-0.911954
-1.06526
-1.03004
-0.851843
-0.639132
-0.469515
-0.357856
-0.292608
-0.249054
-0.227042
-0.237182
-0.286217
-0.387371
-0.524639
-0.616908
-0.629095
-0.565675
-0.493214
-0.456422
-0.457017
-0.501045
-0.58151
-0.63809
-0.623329
-0.500985
-0.345711
-0.217806
-0.135216
-0.0830221
-0.0476451
-0.0256627
-0.0137038
-0.00657252
-0.000973629
0.00294167
0.00437039
0.00409134
0.00344453
0.00298052
0.00253388
0.00191768
0.0012839
0.000804078
0.000476111
0.000224746
4.82724e-05
0.0747032
0.000780091
-0.139475
-0.327982
-0.526945
-0.703713
-0.755606
-0.670346
-0.531421
-0.40731
-0.314328
-0.256633
-0.215835
-0.190306
-0.186892
-0.194971
-0.226001
-0.335575
-0.426742
-0.470905
-0.466592
-0.448867
-0.441579
-0.482796
-0.57996
-0.673777
-0.758512
-0.76904
-0.619823
-0.421975
-0.258103
-0.154512
-0.0927109
-0.052734
-0.0282883
-0.0151339
-0.00770841
-0.00194186
0.00229815
0.00404441
0.00385531
0.00318862
0.00273542
0.00236917
0.00184576
0.00125793
0.000747878
0.000457622
0.000212232
3.98453e-05
0.112382
0.0885558
0.0177375
-0.105969
-0.260786
-0.41632
-0.523664
-0.51921
-0.45134
-0.364633
-0.287697
-0.234805
-0.195348
-0.162601
-0.146794
-0.139886
-0.14946
-0.210225
-0.274538
-0.324025
-0.355835
-0.379569
-0.414491
-0.484441
-0.587958
-0.745463
-0.881866
-0.901199
-0.732388
-0.503374
-0.306303
-0.17929
-0.105557
-0.0597186
-0.032001
-0.0170352
-0.00908803
-0.00313225
0.00146236
0.00361236
0.00360436
0.00292069
0.00246855
0.00218275
0.00175714
0.00121881
0.000721736
0.000425591
0.000190414
3.34809e-05
0.101908
0.0955628
0.0789747
0.0208572
-0.0676976
-0.168298
-0.262519
-0.294429
-0.288098
-0.260517
-0.221572
-0.181533
-0.150839
-0.132019
-0.117666
-0.100312
-0.102116
-0.130771
-0.171257
-0.207008
-0.248038
-0.297164
-0.367628
-0.459348
-0.612373
-0.801612
-0.965982
-1.0253
-0.877592
-0.613384
-0.371651
-0.212365
-0.120558
-0.0673834
-0.0360487
-0.0191478
-0.0106092
-0.00446488
0.000468739
0.00307699
0.00327353
0.00260968
0.00217411
0.00196222
0.00163467
0.00116319
0.000688209
0.000386149
0.000161923
2.7004e-05
0.0841029
0.0925612
0.0859709
0.0531506
-0.00389632
-0.0729673
-0.138143
-0.169102
-0.181598
-0.178168
-0.152159
-0.118082
-0.0867804
-0.0773011
-0.0761211
-0.0588799
-0.0506816
-0.0645051
-0.0868802
-0.104613
-0.143058
-0.202454
-0.284933
-0.399858
-0.565255
-0.790949
-1.03565
-1.13058
-0.966038
-0.662238
-0.389585
-0.215096
-0.120405
-0.0673029
-0.0362374
-0.0194557
-0.0110543
-0.00505014
-9.08845e-05
0.00265929
0.00296182
0.00230485
0.00188455
0.00174228
0.00150492
0.00109321
0.000641806
0.000335901
0.000121172
1.18759e-05
0.0715528
0.0807907
0.0745634
0.0502287
0.0109552
-0.0342075
-0.0759867
-0.105912
-0.113319
-0.115013
-0.0997877
-0.0748111
-0.0527503
-0.039117
-0.0362026
-0.0207551
0.00545236
0.00110116
-0.0187374
-0.0343851
-0.0652679
-0.125615
-0.214329
-0.34223
-0.528367
-0.801748
-1.09079
-1.20306
-1.02434
-0.695035
-0.400974
-0.215927
-0.119814
-0.067381
-0.0368309
-0.020189
-0.0117785
-0.00577609
-0.000708012
0.00217017
0.00256617
0.00196018
0.00158283
0.00152376
0.00138223
0.001017
0.00057786
0.00027286
8.05241e-05
1.87406e-06
0.0605175
0.0673677
0.0627586
0.0462529
0.0233433
-0.00208746
-0.0263683
-0.0468563
-0.0586861
-0.0625008
-0.0559749
-0.0441732
-0.03053
-0.016946
-0.0291657
-0.0187582
0.0296355
0.0486518
0.0395287
0.0250486
-0.00740612
-0.0685823
-0.158208
-0.298783
-0.524451
-0.817608
-1.12251
-1.25132
-1.05534
-0.709292
-0.403243
-0.214353
-0.118662
-0.067426
-0.037416
-0.0208788
-0.0124957
-0.00656649
-0.00142313
0.0016287
0.00216466
0.00161467
0.00126355
0.00127338
0.00122725
0.000921879
0.000506404
0.000206897
4.55769e-05
-2.59296e-06
0.0523015
0.0579675
0.0558332
0.0460255
0.0316072
0.0160842
0.000683232
-0.0149666
-0.0236044
-0.0261505
-0.0197557
-0.00801748
0.0186585
0.0353747
0.0226112
0.0192005
0.0346079
0.0478279
0.0591113
0.0598449
0.0366095
-0.0208411
-0.112178
-0.269632
-0.507538
-0.800598
-1.11364
-1.23793
-1.0449
-0.693869
-0.390311
-0.2079
-0.11626
-0.0676079
-0.0384962
-0.0218949
-0.0133139
-0.00735053
-0.00214495
0.00104931
0.00169473
0.00119905
0.000914248
0.00100789
0.00104584
0.000799341
0.000411148
0.000130084
-9.99154e-07
-1.92711e-05
0.0480853
0.0522139
0.0513885
0.0448492
0.0351
0.02496
0.0169289
0.00983953
0.00419119
0.000150719
0.00303
0.00755723
0.00851308
0.0258994
0.0432474
0.0603187
0.0858893
0.100885
0.106281
0.0906151
0.0734539
0.0199396
-0.0736562
-0.231285
-0.459353
-0.742622
-1.04978
-1.21204
-0.990355
-0.648723
-0.361798
-0.195354
-0.11125
-0.0665853
-0.0393743
-0.0231377
-0.0144115
-0.00831908
-0.00300161
0.000350687
0.00117324
0.000831791
0.000612827
0.000761862
0.000867882
0.00067163
0.000316321
5.28219e-05
-5.06541e-05
-3.8209e-05
0.0473422
0.0489564
0.0479715
0.0434043
0.0370793
0.0321702
0.0282569
0.0237511
0.0196835
0.0183217
0.0212221
0.0293645
0.043458
0.0523541
0.0551397
0.0538199
0.0667478
0.0759575
0.0674391
0.094523
0.0920042
0.0475189
-0.0349582
-0.17778
-0.38726
-0.638639
-0.922937
-1.03634
-0.871635
-0.570672
-0.32322
-0.181103
-0.10607
-0.0648425
-0.039444
-0.0238816
-0.0153231
-0.00932583
-0.00398951
-0.000455691
0.000565992
0.000292019
0.000141401
0.000405316
0.00063443
0.000518433
0.000197976
-4.24081e-05
-0.000114048
-6.13494e-05
0.0465106
0.0471422
0.0461496
0.0431693
0.0398062
0.0369786
0.0350793
0.0332922
0.0324734
0.032246
0.0347491
0.0379611
0.0387495
0.050701
0.0649947
0.0745897
0.0870278
0.10227
0.0983754
0.0996004
0.100509
0.0684007
-0.000379647
-0.123177
-0.297055
-0.514598
-0.758526
-0.869198
-0.726502
-0.47698
-0.27622
-0.162583
-0.100025
-0.063205
-0.0394999
-0.0244728
-0.0159934
-0.0100455
-0.00476218
-0.0011931
-3.35968e-05
-0.000107798
-0.000138302
0.000172912
0.000447324
0.000379419
9.57898e-05
-0.000129068
-0.000171085
-7.74382e-05
0.0460622
0.0467272
0.0461447
0.0441904
0.0421251
0.0402678
0.0399663
0.040003
0.0398779
0.0410005
0.0420241
0.0449623
0.053623
0.0622955
0.0685304
0.0699228
0.0784062
0.0854778
0.0846819
0.0869204
0.0901418
0.0684857
0.0172106
-0.0708778
-0.205848
-0.377597
-0.55431
-0.644025
-0.542011
-0.365223
-0.225597
-0.144498
-0.0948063
-0.0624807
-0.0403556
-0.0255405
-0.0169564
-0.0111006
-0.00575428
-0.00199
-0.000664723
-0.000649373
-0.000612269
-0.000219877
0.000145043
0.000155616
-6.97866e-05
-0.000241932
-0.000239156
-9.98535e-05
0.0469425
0.0472494
0.0468061
0.0451962
0.0437264
0.042968
0.0431795
0.0439245
0.0448176
0.0457951
0.0477299
0.0508152
0.0536511
0.0591488
0.0675512
0.0737758
0.0791589
0.0863159
0.0831993
0.0793622
0.0763742
0.0579246
0.0227706
-0.0293646
-0.118438
-0.227971
-0.344907
-0.418884
-0.378628
-0.274753
-0.187693
-0.133924
-0.0925365
-0.0623055
-0.0411157
-0.0268917
-0.0180675
-0.0118442
-0.00649591
-0.00274567
-0.00129734
-0.00116132
-0.00100686
-0.000504969
-4.2427e-05
3.41638e-05
-0.000160112
-0.000323281
-0.000297022
-0.000122388
0.0475269
0.0478677
0.0475729
0.0461529
0.0452191
0.0448745
0.0453609
0.0465141
0.0474877
0.0490846
0.0506919
0.0521245
0.0549424
0.0604876
0.0664743
0.0686888
0.070408
0.0744674
0.075012
0.0697447
0.0636974
0.0498638
0.0273724
-0.00378295
-0.0596274
-0.132781
-0.212737
-0.270336
-0.26825
-0.21508
-0.154256
-0.111235
-0.0814787
-0.0584841
-0.0404787
-0.0273677
-0.01894
-0.0129966
-0.00773601
-0.00384696
-0.00212737
-0.00168933
-0.0013707
-0.00082755
-0.000344987
-0.000208619
-0.000329643
-0.000432717
-0.000362134
-0.000144598
0.0474223
0.0480966
0.0482426
0.0473928
0.0466614
0.0463541
0.0465809
0.0476058
0.0488703
0.0504226
0.0515844
0.052737
0.0548202
0.0579069
0.0622992
0.0651101
0.0656796
0.0669068
0.0664322
0.0615477
0.0552745
0.0439377
0.0246984
-0.0019754
-0.0422706
-0.0930639
-0.150051
-0.194333
-0.198105
-0.171115
-0.136531
-0.107195
-0.0803166
-0.0569226
-0.039284
-0.0266514
-0.0186724
-0.0130257
-0.00792116
-0.00414458
-0.00251696
-0.00217076
-0.00184586
-0.00120029
-0.000614054
-0.0004014
-0.000469155
-0.000532815
-0.000425827
-0.000166948
0.0475541
0.0484819
0.0490215
0.048528
0.0476745
0.0471193
0.0471224
0.0480471
0.0491603
0.0504562
0.0514432
0.0519524
0.0531684
0.0552575
0.0583758
0.0602781
0.0595119
0.0587218
0.0574622
0.0533805
0.0473953
0.0375038
0.0208309
-0.00226583
-0.0334702
-0.0735609
-0.114174
-0.141894
-0.152234
-0.138879
-0.112533
-0.087151
-0.0666712
-0.0501351
-0.0371724
-0.026858
-0.0193498
-0.0137118
-0.00884306
-0.0051696
-0.00333989
-0.00265427
-0.00213278
-0.00144234
-0.000833735
-0.000579929
-0.000600271
-0.000624757
-0.000481453
-0.000184071
0.0480716
0.0489159
0.0493739
0.04894
0.0480748
0.0474339
0.0472468
0.0478366
0.0487101
0.0497089
0.0503239
0.050364
0.050949
0.0521686
0.0539241
0.0547808
0.053426
0.0517161
0.0498289
0.0458467
0.0400044
0.0314488
0.017334
-0.00252898
-0.0279016
-0.0581126
-0.0880105
-0.109556
-0.115795
-0.109336
-0.0955679
-0.0804256
-0.0648621
-0.0499426
-0.0367356
-0.0263035
-0.0191424
-0.0139798
-0.00933394
-0.00568801
-0.00383592
-0.00316432
-0.00261411
-0.00185577
-0.00117599
-0.000843966
-0.000784092
-0.000742997
-0.000549713
-0.000208281
0.047861
0.0486684
0.0492055
0.048976
0.0481804
0.0473854
0.0469419
0.0471903
0.0477518
0.0484022
0.048667
0.0483357
0.0483497
0.0488424
0.0495964
0.0495551
0.0478336
0.0456596
0.0431497
0.0390938
0.0335673
0.0256551
0.0132578
-0.00292587
-0.0225649
-0.0455241
-0.0665536
-0.0815735
-0.0897379
-0.0878482
-0.0781735
-0.0656624
-0.0531228
-0.0417131
-0.032237
-0.0243171
-0.0182238
-0.0135654
-0.00939698
-0.00605542
-0.00423794
-0.00344222
-0.00279375
-0.00200539
-0.00131959
-0.000976559
-0.000893768
-0.00082711
-0.000603515
-0.000224768
0.0473547
0.0483158
0.0489571
0.0487949
0.0479309
0.0469295
0.0462696
0.0462195
0.0464833
0.0467948
0.0466989
0.0460863
0.0456477
0.0455241
0.0455387
0.0448243
0.0427979
0.0403059
0.0374411
0.0333837
0.0280259
0.0207459
0.0103245
-0.00253861
-0.0175825
-0.0344497
-0.0498659
-0.0616952
-0.06835
-0.0679283
-0.062553
-0.0555207
-0.0475304
-0.0392224
-0.0311796
-0.0238514
-0.0181298
-0.0137943
-0.00986255
-0.00660027
-0.00472972
-0.003861
-0.00316477
-0.00235692
-0.00164181
-0.00124295
-0.00109037
-0.000955061
-0.00067429
-0.000249311
0.0469917
0.0478951
0.0484742
0.048243
0.0472814
0.0461745
0.0453812
0.0450961
0.0450254
0.0449951
0.044635
0.0437838
0.0430253
0.0424466
0.0418777
0.0407083
0.0384738
0.0357976
0.0327615
0.0287764
0.0238333
0.0173968
0.00868653
-0.00140493
-0.0128079
-0.0255155
-0.0366127
-0.0455214
-0.0514756
-0.0528568
-0.0504019
-0.0461578
-0.0400596
-0.0331398
-0.0267871
-0.0210724
-0.0163806
-0.0127235
-0.00937549
-0.00652623
-0.00483049
-0.00397583
-0.00325798
-0.00245261
-0.00176298
-0.00137931
-0.00121139
-0.00104778
-0.000735018
-0.000265925
0.0464138
0.0472229
0.0477538
0.0474755
0.0464479
0.0452259
0.0443022
0.0438186
0.0434979
0.0432115
0.0425997
0.0416012
0.0406343
0.0396854
0.0387322
0.0372544
0.0348931
0.0321734
0.0291159
0.0253748
0.0209458
0.015335
0.00817408
0.000253429
-0.0085767
-0.0182352
-0.026747
-0.0333403
-0.0385598
-0.0405141
-0.0395523
-0.0369227
-0.0327715
-0.0281452
-0.0237455
-0.0192683
-0.0152734
-0.0120985
-0.00917191
-0.00659423
-0.00497253
-0.00410596
-0.00339364
-0.00262635
-0.0019641
-0.00157706
-0.0013818
-0.00117225
-0.000806456
-0.000302927
0.0456909
0.0464244
0.0468873
0.0465392
0.0454324
0.0441595
0.0431887
0.042563
0.0420148
0.0414723
0.0407045
0.0396244
0.038484
0.0373161
0.0361023
0.034444
0.0320966
0.0293927
0.0264363
0.0230424
0.019116
0.0143215
0.00847573
0.00218631
-0.00464271
-0.0119316
-0.018328
-0.0236744
-0.028073
-0.0300615
-0.0300683
-0.029024
-0.0265815
-0.0234132
-0.0201793
-0.0167179
-0.0134985
-0.0108817
-0.00843678
-0.00623423
-0.00481416
-0.00402814
-0.00336553
-0.00266751
-0.00207626
-0.00172881
-0.00152918
-0.00126304
-0.000855544
-0.000287809
0.0449396
0.0455569
0.0459379
0.0455291
0.0443818
0.04307
0.0420386
0.0412966
0.0405876
0.0398893
0.0390105
0.0378716
0.0366545
0.0353505
0.0339922
0.0322775
0.029976
0.0273833
0.0246286
0.0215602
0.0181313
0.0140922
0.00929158
0.00428097
-0.00104432
-0.0067031
-0.0116067
-0.0158671
-0.0195778
-0.0216303
-0.0223756
-0.0222525
-0.0207844
-0.0186936
-0.0165609
-0.0140507
-0.011558
-0.00952642
-0.0076184
-0.00582059
-0.0045921
-0.00386031
-0.00324167
-0.00262433
-0.00212758
-0.00184762
-0.00166313
-0.00143499
-0.000973495
-0.000375573
0.0441917
0.0446622
0.0449276
0.0444412
0.0432601
0.0419543
0.0409405
0.0401511
0.0393236
0.0384865
0.0375349
0.0364003
0.0351474
0.0337757
0.0323648
0.0306529
0.0284691
0.026042
0.0234984
0.0207729
0.0178046
0.0143844
0.0104532
0.00644818
0.00219285
-0.00226274
-0.0061
-0.00959019
-0.0127722
-0.0147219
-0.0157919
-0.0162109
-0.0155039
-0.014346
-0.0131107
-0.0113819
-0.00952157
-0.00797533
-0.00649727
-0.00507456
-0.00410394
-0.00353085
-0.00304783
-0.00257252
-0.00217587
-0.00195577
-0.00179065
-0.00141764
-0.000941645
-0.000298392
0.0434159
0.0437364
0.043907
0.0433857
0.0422193
0.0409414
0.0399329
0.0390934
0.0381813
0.0372746
0.0363061
0.0351931
0.0339401
0.0325589
0.0311556
0.0295073
0.0274656
0.0252212
0.0229202
0.0205098
0.0179279
0.0150426
0.0118103
0.0085768
0.00510119
0.00153168
-0.00154943
-0.00445557
-0.00716235
-0.00895838
-0.0102236
-0.01099
-0.0107974
-0.0103126
-0.00976356
-0.00867637
-0.00739754
-0.00635469
-0.00532361
-0.0042459
-0.00347157
-0.0029976
-0.00262007
-0.00231908
-0.00213095
-0.00205779
-0.00194081
-0.00172298
-0.00115447
-0.000446835
0.0427171
0.0428887
0.0429475
0.0423766
0.0412201
0.0399757
0.0390004
0.0381592
0.0372188
0.0362806
0.0353089
0.0342346
0.0330116
0.0316626
0.0303082
0.0287456
0.0268638
0.0248176
0.0227476
0.020617
0.0183661
0.0159034
0.0131837
0.0104577
0.00764469
0.00475408
0.00224694
-0.000206763
-0.00253798
-0.00420072
-0.00555688
-0.00649859
-0.00664532
-0.00666494
-0.00661416
-0.00600019
-0.00517647
-0.00454937
-0.00393303
-0.0032448
-0.00276998
-0.00248666
-0.00226314
-0.0020862
-0.0019805
-0.00200388
-0.00195579
-0.001514
-0.000989967
-0.000297862
0.0420599
0.042081
0.0420264
0.0414258
0.0403177
0.0391423
0.0382154
0.0373808
0.0364242
0.0354741
0.0345242
0.0335026
0.0323292
0.0310365
0.0297479
0.0282866
0.0265675
0.0247163
0.0228628
0.0209735
0.0189998
0.0168853
0.0145814
0.0123042
0.00993054
0.00753713
0.00544701
0.00333274
0.00130019
-0.000237935
-0.00161914
-0.0026415
-0.00301528
-0.00340496
-0.0037201
-0.00348187
-0.00305188
-0.00278573
-0.00247919
-0.00204112
-0.00175569
-0.00162414
-0.00162603
-0.0017775
-0.00200157
-0.00220934
-0.00221969
-0.00196216
-0.00128819
-0.000488123
0.0414802
0.0413756
0.0412177
0.0405906
0.0395351
0.038432
0.037553
0.0367304
0.0357822
0.0348499
0.0339334
0.0329656
0.0318499
0.0306259
0.0294127
0.0280561
0.0264968
0.0248272
0.0231658
0.0214781
0.0197348
0.0178944
0.0159171
0.0139793
0.0119467
0.00992221
0.00813738
0.00629435
0.00451016
0.00308281
0.00171434
0.000695111
0.000177545
-0.000487449
-0.00105848
-0.00109856
-0.00097125
-0.00101549
-0.00102171
-0.000886444
-0.000856106
-0.000873324
-0.000959085
-0.00115129
-0.0014461
-0.00183424
-0.00203733
-0.00152068
-0.000959506
-0.00026904
0.0409774
0.0407662
0.0405073
0.0398505
0.0388519
0.0378348
0.0370195
0.0362149
0.0352809
0.0343789
0.0335028
0.0325831
0.0315244
0.0303781
0.0292407
0.0279825
0.0265717
0.0250638
0.0235686
0.0220486
0.0204822
0.0188605
0.0171368
0.0154563
0.0136906
0.0119598
0.0103944
0.00874716
0.00715958
0.00582344
0.00449285
0.00350605
0.00289914
0.00206081
0.00136468
0.00113822
0.00101523
0.000726597
0.000512123
0.000464659
0.000330511
8.78787e-05
-0.000375085
-0.00102832
-0.00167696
-0.00214739
-0.00245638
-0.00192672
-0.00121916
-0.00044009
0.0405468
0.0402414
0.0398995
0.0392354
0.038302
0.0373596
0.0365955
0.0358213
0.0349196
0.0340479
0.0332064
0.0323301
0.0313332
0.0302589
0.0291866
0.0280216
0.0267426
0.0253744
0.0240256
0.0226363
0.0212146
0.0197547
0.0182266
0.0167493
0.0151998
0.0136925
0.012275
0.0107889
0.0093536
0.00810437
0.00681742
0.0058879
0.00518948
0.00422095
0.00343951
0.00306466
0.0027941
0.00235326
0.00201386
0.00176519
0.00148741
0.00122338
0.000813764
0.000215194
-0.000580011
-0.00122923
-0.000962192
-0.00109507
-0.000706535
-0.000173362
0.0402166
0.0398048
0.0393633
0.0387146
0.0378813
0.0370165
0.0362573
0.0354857
0.0346573
0.0338385
0.0329941
0.03214
0.0312198
0.0302129
0.0291847
0.0281021
0.026943
0.0256898
0.0244573
0.0231722
0.0218658
0.0205223
0.0191476
0.0178212
0.0164296
0.0150916
0.0137904
0.012431
0.0111177
0.00993292
0.00872097
0.00785869
0.00709942
0.00608446
0.0053048
0.0048559
0.00441881
0.00383609
0.00337798
0.00303038
0.00261065
0.00198779
0.00107532
-9.75128e-06
-0.000987104
-0.00150548
-0.00172174
-0.00131514
-0.000772803
-0.000244759
0.0399808
0.0394895
0.0389608
0.0383239
0.0375715
0.0367863
0.0360528
0.0352706
0.0344898
0.0337389
0.0328922
0.0320291
0.0311753
0.0302284
0.0292258
0.0282109
0.027156
0.0259911
0.0248485
0.0236265
0.0224191
0.0211646
0.0199179
0.018691
0.0174223
0.0161931
0.0149737
0.0137102
0.0124858
0.0113497
0.0101913
0.00938593
0.00857089
0.00757791
0.00678129
0.00628821
0.00583925
0.00529843
0.00484513
0.00441665
0.00411293
0.00372566
0.00306704
0.00189756
0.000426536
-0.000574557
-0.000795758
-0.000629573
-0.000270014
-5.57447e-06
0.0396809
0.0391367
0.0386612
0.0381065
0.0373571
0.036529
0.0358124
0.0351673
0.0344417
0.0335989
0.0327526
0.0319926
0.0311634
0.0302145
0.0292653
0.0283134
0.0273032
0.0262014
0.0251235
0.0239598
0.0228135
0.0216122
0.0204583
0.019288
0.0181042
0.01694
0.0157789
0.0145859
0.0134632
0.0123441
0.0112512
0.0104509
0.0096321
0.00866101
0.00786751
0.00736572
0.00681404
0.00625248
0.00571891
0.00528894
0.00495784
0.00413719
0.00293421
0.00155553
0.000410332
-0.000169162
-0.000333871
-0.000177246
2.91945e-05
6.4247e-05
0.0394902
0.0388506
0.0385057
0.0381106
0.0373411
0.0364207
0.0356273
0.0351471
0.034597
0.0335897
0.0326371
0.0320404
0.0312626
0.0302084
0.0293143
0.0284424
0.0274386
0.0263525
0.0253149
0.0241677
0.0230681
0.0218867
0.0208061
0.0196578
0.0185406
0.017375
0.0162251
0.0150726
0.0140046
0.0129142
0.0118576
0.0110475
0.0102266
0.00934013
0.00856361
0.00810841
0.00764387
0.00718806
0.00669054
0.00660224
0.00685633
0.0066227
0.00542629
0.00326593
0.00133197
0.000499551
0.000230029
0.000331365
0.00040566
0.00020995
-0.00373686
-0.00668718
-0.00452211
-0.00196982
0.00688089
0.0157705
0.0308135
0.0456793
0.0595868
0.0734457
0.00515205
0.0043585
0.00695978
0.00996159
0.0179559
0.0234494
0.0347747
0.0408681
0.0502577
0.0605308
0.0138992
0.0138843
0.0159542
0.0191825
0.0249285
0.0267534
0.0339658
0.0353827
0.0443473
0.0529714
0.021335
0.0212346
0.0230639
0.0261255
0.0293971
0.0302249
0.035893
0.0385365
0.0454773
0.0483761
0.0275961
0.0276921
0.0291253
0.0320821
0.0337196
0.0356331
0.0401034
0.040916
0.0432084
0.0448458
0.0330217
0.0331991
0.0339011
0.03691
0.0375834
0.0388452
0.0403506
0.0397959
0.0427378
0.0455262
0.0377562
0.0375773
0.0376366
0.0402792
0.0401274
0.0406232
0.0419152
0.0428407
0.0455982
0.0465742
0.0415101
0.0410247
0.0407999
0.0429681
0.043142
0.0437887
0.0452625
0.0452229
0.0455542
0.0458189
0.0446218
0.0440371
0.0437547
0.0453998
0.0459083
0.0458278
0.0458871
0.0448924
0.0452683
0.0464416
0.0472126
0.0465537
0.0461514
0.0469762
0.0471946
0.0465592
0.0462089
0.0459764
0.046621
0.0473205
0.0492086
0.0483917
0.0478442
0.0481144
0.0482746
0.0479491
0.0476451
0.0471857
0.0468817
0.0469584
0.0506328
0.0497503
0.0492508
0.0492873
0.0493197
0.0488415
0.0478565
0.0467482
0.0462293
0.0466585
0.0516386
0.0507684
0.0502104
0.0499441
0.0495061
0.0486793
0.0475726
0.0467065
0.0465969
0.0471985
0.052245
0.0513376
0.0506423
0.0501599
0.0495305
0.0488203
0.0480607
0.047437
0.0471259
0.0472561
0.0525032
0.0515854
0.0508241
0.0502801
0.0496659
0.0489934
0.0482332
0.0473989
0.0467386
0.0466828
0.0525273
0.0516065
0.0507935
0.0501687
0.049483
0.0487305
0.0479206
0.0470595
0.0463962
0.0463431
0.0523582
0.0514028
0.0505316
0.0498232
0.0491216
0.0484208
0.0477113
0.0469066
0.0461599
0.0459331
0.0520216
0.0510548
0.0501489
0.0494041
0.0487174
0.0480747
0.0474155
0.0465639
0.0456857
0.0453148
0.0515483
0.0506078
0.0496904
0.048905
0.0481894
0.0475591
0.0469332
0.0460842
0.0451588
0.044691
0.0509377
0.0500633
0.0491528
0.0483207
0.0475616
0.0469452
0.0463909
0.0456087
0.0446797
0.0441034
0.0502076
0.049426
0.0485566
0.0477061
0.0469172
0.0463151
0.0458185
0.0450997
0.0441761
0.0434938
0.049403
0.0487319
0.0479387
0.047092
0.0462739
0.0456707
0.045212
0.0445609
0.0436776
0.0429354
0.0485662
0.0480039
0.0473015
0.0464758
0.0456365
0.0450325
0.0446065
0.0440211
0.0431872
0.0424045
0.0477328
0.0472529
0.0466394
0.045858
0.045024
0.044424
0.0440161
0.0434851
0.0427081
0.0419162
0.0469339
0.0465128
0.0459685
0.0452358
0.0444359
0.0438635
0.043474
0.0429834
0.0422565
0.0414754
0.0462178
0.0458394
0.0453589
0.0446788
0.0439165
0.0433632
0.042983
0.0425298
0.0418543
0.0410939
0.0455747
0.0451797
0.0447564
0.0441685
0.0434854
0.0429322
0.0425072
0.0420691
0.041477
0.0407887
0.0450893
0.044628
0.0442298
0.0437374
0.043157
0.042622
0.0421451
0.0416961
0.0411664
0.0405543
0.0446217
0.0442139
0.0439087
0.0434689
0.0428591
0.0422424
0.0417779
0.0414345
0.0409738
0.0403428
0.0441802
0.0439188
0.043832
0.0434557
0.0427294
0.0419429
0.0414412
0.0412612
0.0409669
0.0403195
0.116928
0.119724
0.122307
0.125132
0.127427
0.129939
0.131665
0.133431
0.134276
0.134051
0.132547
0.129738
0.125858
0.119028
0.109075
0.0948772
0.0740789
0.0466001
0.0164471
-0.0590516
0.104109
0.106218
0.106709
0.10626
0.105917
0.105709
0.104535
0.103509
0.101245
0.0985516
0.0945125
0.0881741
0.0796537
0.0690202
0.0557212
0.0381959
0.0129624
-0.0235152
-0.0594858
-0.155596
0.0903795
0.0914768
0.0901032
0.0876138
0.0851844
0.0826767
0.0792054
0.0752993
0.0701444
0.0642087
0.0572893
0.0488417
0.0374594
0.0219242
0.00279934
-0.0202361
-0.0493371
-0.0931729
-0.130757
-0.233442
0.074884
0.0741029
0.0708711
0.0670198
0.0628352
0.0582457
0.0532809
0.0471746
0.0399949
0.0315367
0.020788
0.0084654
-0.00570214
-0.0224838
-0.0443066
-0.0712083
-0.10301
-0.154403
-0.190063
-0.305379
0.0592201
0.0566243
0.0516539
0.0460162
0.0405407
0.0344035
0.0277258
0.0198176
0.0103702
4.44711e-05
-0.0122811
-0.0264005
-0.0442522
-0.0642673
-0.0884717
-0.117442
-0.148546
-0.206222
-0.24352
-0.352984
0.0437739
0.0401694
0.0337114