/*--------------------------------*- C++ -*----------------------------------*\
| =========                 |                                                 |
| \\      /  F ield         | OpenFOAM: The Open Source CFD Toolbox           |
|  \\    /   O peration     | Version:  2512                                  |
|   \\  /    A nd           | Website:  www.openfoam.com                      |
|    \\/     M anipulation  |                                                 |
\*---------------------------------------------------------------------------*/
FoamFile
{
    version     2.0;
    format      ascii;
    arch        "LSB;label=32;scalar=64";
    class       volScalarField;
    location    "44.5";
    object      p;
}
// * * * * * * * * * * * * * * * * * * * * * * * * * * * * * * * * * * * * * //

dimensions      [0 2 -2 0 0 0 0];

internalField   nonuniform List<scalar> 
9200
(
-0.335525
-0.335836
-0.333362
-0.32882
-0.322602
-0.31541
-0.308028
-0.301624
-0.296806
-0.293659
-0.291706
-0.29004
-0.287632
-0.283626
-0.277602
-0.269776
-0.259766
-0.248499
-0.233409
-0.215631
-0.343417
-0.342688
-0.339984
-0.335909
-0.330632
-0.324371
-0.317467
-0.310329
-0.303264
-0.29637
-0.289481
-0.282281
-0.274481
-0.265937
-0.25661
-0.246299
-0.234895
-0.222172
-0.207816
-0.193512
-0.354324
-0.351989
-0.348562
-0.344305
-0.339244
-0.333054
-0.325407
-0.316315
-0.306137
-0.295318
-0.284218
-0.27306
-0.261919
-0.25074
-0.239302
-0.227546
-0.215227
-0.202529
-0.189182
-0.175457
-0.367832
-0.363632
-0.359042
-0.354165
-0.348516
-0.341122
-0.331294
-0.319192
-0.305594
-0.291393
-0.277251
-0.263495
-0.25018
-0.237193
-0.224453
-0.211792
-0.199144
-0.186519
-0.173631
-0.161484
-0.384497
-0.378327
-0.372478
-0.366417
-0.358961
-0.348699
-0.335292
-0.319556
-0.302731
-0.285848
-0.269503
-0.253924
-0.239106
-0.224965
-0.211341
-0.198134
-0.185271
-0.172677
-0.160378
-0.148605
-0.405004
-0.396824
-0.389455
-0.381354
-0.370395
-0.355582
-0.337661
-0.318167
-0.298458
-0.279383
-0.261328
-0.244375
-0.228455
-0.21343
-0.199185
-0.185607
-0.172601
-0.160113
-0.148099
-0.136727
-0.429555
-0.419244
-0.409858
-0.398255
-0.381925
-0.361342
-0.33857
-0.315472
-0.293179
-0.272209
-0.252701
-0.234605
-0.217792
-0.202125
-0.187454
-0.173653
-0.160615
-0.148236
-0.13651
-0.125302
-0.457527
-0.444826
-0.432548
-0.415473
-0.392165
-0.365263
-0.337728
-0.311278
-0.286619
-0.26392
-0.243113
-0.224038
-0.206514
-0.190355
-0.175403
-0.161507
-0.148529
-0.136375
-0.124943
-0.114001
-0.4872
-0.471906
-0.45516
-0.430602
-0.399343
-0.366139
-0.334158
-0.304635
-0.277815
-0.253562
-0.231628
-0.211754
-0.193696
-0.177235
-0.162175
-0.148339
-0.135588
-0.123798
-0.112801
-0.102344
-0.515872
-0.497901
-0.474573
-0.440903
-0.401492
-0.362416
-0.326459
-0.29424
-0.265567
-0.240033
-0.217239
-0.196829
-0.178493
-0.161958
-0.146993
-0.133404
-0.121043
-0.109787
-0.0994308
-0.0898094
-0.404092
-0.404967
-0.404936
-0.405413
-0.407119
-0.410322
-0.415238
-0.42215
-0.431376
-0.443228
-0.45795
-0.475666
-0.496297
-0.519485
-0.54455
-0.570475
-0.595888
-0.618875
-0.638093
-0.650581
-0.393901
-0.3929
-0.391769
-0.391071
-0.391499
-0.393455
-0.397313
-0.403562
-0.412774
-0.425501
-0.442167
-0.462952
-0.487705
-0.515786
-0.546057
-0.576983
-0.606878
-0.633045
-0.655122
-0.667728
-0.384536
-0.382208
-0.380101
-0.378356
-0.377558
-0.378218
-0.380803
-0.385894
-0.394182
-0.406333
-0.422834
-0.443863
-0.469164
-0.497941
-0.528897
-0.559874
-0.589611
-0.614653
-0.634168
-0.646968
-0.375223
-0.372032
-0.369154
-0.366343
-0.364073
-0.363001
-0.363712
-0.36684
-0.373098
-0.383178
-0.397593
-0.416528
-0.439702
-0.466257
-0.495078
-0.523752
-0.551734
-0.575018
-0.594011
-0.603575
-0.365636
-0.362286
-0.358895
-0.354948
-0.350837
-0.347411
-0.34548
-0.345804
-0.349139
-0.356188
-0.367484
-0.383243
-0.403262
-0.426705
-0.452716
-0.479241
-0.505418
-0.527219
-0.543698
-0.548933
-0.356014
-0.353209
-0.349629
-0.344625
-0.338503
-0.332299
-0.327165
-0.32415
-0.324176
-0.328028
-0.336293
-0.349208
-0.366716
-0.387923
-0.412136
-0.437117
-0.460698
-0.478894
-0.489888
-0.487469
-0.346856
-0.345086
-0.341619
-0.335852
-0.32802
-0.319273
-0.311108
-0.304962
-0.302064
-0.303406
-0.309684
-0.321113
-0.337471
-0.357635
-0.379887
-0.401177
-0.419398
-0.430472
-0.432336
-0.420305
-0.338767
-0.33827
-0.335061
-0.328932
-0.320122
-0.309821
-0.299798
-0.291855
-0.287536
-0.288016
-0.293836
-0.3047
-0.319591
-0.336615
-0.353751
-0.367872
-0.377591
-0.379386
-0.373209
-0.355806
-0.333222
-0.333615
-0.330657
-0.324636
-0.31589
-0.305532
-0.295521
-0.287702
-0.283611
-0.284034
-0.288984
-0.297705
-0.308551
-0.319629
-0.328597
-0.333576
-0.333712
-0.32788
-0.31853
-0.302715
-0.331894
-0.332573
-0.329877
-0.324455
-0.316732
-0.307617
-0.29906
-0.292269
-0.288342
-0.287778
-0.290201
-0.294506
-0.299048
-0.30229
-0.302497
-0.299405
-0.292406
-0.2827
-0.271713
-0.258382
-0.657669
-0.649819
-0.613914
-0.543957
-0.44931
-0.354814
-0.279195
-0.231323
-0.211944
-0.214323
-0.235845
-0.281634
-0.338364
-0.370796
-0.350231
-0.28949
-0.220302
-0.1665
-0.137962
-0.12966
-0.138239
-0.171603
-0.225782
-0.268494
-0.2636
-0.218742
-0.161648
-0.114267
-0.0854385
-0.0766613
-0.0860492
-0.0922326
-0.0811135
-0.0679179
-0.06165
-0.0596654
-0.0645249
-0.0778154
-0.0848162
-0.0731974
-0.053685
-0.0398789
-0.0380349
-0.0434468
-0.0525246
-0.0560241
-0.0548382
-0.0463696
-0.0288779
-0.00851993
-0.67356
-0.663241
-0.628291
-0.55863
-0.461798
-0.363824
-0.284714
-0.231383
-0.202462
-0.194995
-0.206086
-0.238744
-0.285264
-0.315837
-0.303318
-0.255747
-0.198184
-0.153751
-0.132914
-0.131459
-0.147824
-0.190425
-0.252489
-0.300583
-0.295816
-0.245203
-0.179914
-0.123125
-0.0858384
-0.07042
-0.0734808
-0.074021
-0.0609567
-0.0505096
-0.0496059
-0.054185
-0.0658607
-0.084919
-0.0944348
-0.0803962
-0.0553993
-0.0347524
-0.0273959
-0.0302965
-0.0423175
-0.0524419
-0.0583506
-0.0540751
-0.0355577
-0.0108665
-0.650003
-0.638738
-0.606889
-0.540589
-0.44807
-0.352899
-0.275668
-0.221914
-0.188507
-0.172248
-0.171774
-0.190324
-0.224283
-0.252347
-0.249396
-0.215183
-0.16945
-0.134293
-0.121261
-0.126445
-0.150199
-0.200404
-0.268572
-0.321684
-0.319746
-0.265849
-0.194259
-0.130132
-0.0856374
-0.0651757
-0.0634522
-0.0599628
-0.0444417
-0.0349013
-0.038197
-0.0484642
-0.0662886
-0.0904816
-0.102304
-0.0863983
-0.0567017
-0.0299817
-0.0176297
-0.0181028
-0.0329204
-0.0493821
-0.0622999
-0.0623495
-0.042683
-0.0133491
-0.600621
-0.588117
-0.559705
-0.49793
-0.413595
-0.328567
-0.257573
-0.205728
-0.170896
-0.149701
-0.14035
-0.144892
-0.165257
-0.187669
-0.192233
-0.169887
-0.135291
-0.108857
-0.103008
-0.114271
-0.143114
-0.19784
-0.271683
-0.330332
-0.334323
-0.279783
-0.204022
-0.135124
-0.0850944
-0.0607803
-0.0557239
-0.0498119
-0.0320414
-0.0216727
-0.0277672
-0.0424988
-0.0653955
-0.0941007
-0.108044
-0.0909468
-0.0575172
-0.0256635
-0.00883871
-0.00687334
-0.024162
-0.0467621
-0.0666159
-0.0710916
-0.0501781
-0.0159317
-0.537458
-0.521261
-0.496056
-0.441696
-0.369963
-0.299123
-0.237794
-0.188943
-0.153222
-0.128528
-0.113136
-0.107675
-0.114416
-0.127329
-0.135223
-0.122473
-0.0984214
-0.0796802
-0.0796847
-0.0959506
-0.127851
-0.183613
-0.260298
-0.324187
-0.337141
-0.286055
-0.208919
-0.138038
-0.0846494
-0.0571957
-0.0498688
-0.0428364
-0.0238342
-0.0117716
-0.0187436
-0.0361236
-0.0629851
-0.0956137
-0.111416
-0.0939501
-0.0578193
-0.0218776
-0.00109169
0.00333768
-0.0159349
-0.0445033
-0.07123
-0.0801705
-0.057943
-0.0185717
-0.464772
-0.444465
-0.424226
-0.380938
-0.325065
-0.269427
-0.218824
-0.174919
-0.13931
-0.111987
-0.0918015
-0.0788408
-0.0743623
-0.0770176
-0.0821967
-0.0777636
-0.062607
-0.0500994
-0.0543375
-0.0739247
-0.106827
-0.160124
-0.234713
-0.30448
-0.329515
-0.282825
-0.208818
-0.138698
-0.0842849
-0.0541579
-0.0453082
-0.037943
-0.0193518
-0.00505773
-0.0115799
-0.0299656
-0.0591604
-0.0948024
-0.112215
-0.0951876
-0.0575343
-0.0186927
0.00554609
0.0124128
-0.0082048
-0.0424646
-0.0760167
-0.0894234
-0.0658462
-0.0212188
-0.388544
-0.368789
-0.355828
-0.325321
-0.285332
-0.24332
-0.201989
-0.163362
-0.129294
-0.100873
-0.0776396
-0.0596816
-0.0472194
-0.0404829
-0.0394777
-0.0375164
-0.0297098
-0.0227587
-0.0293673
-0.0511728
-0.0836077
-0.130857
-0.199543
-0.27051
-0.302176
-0.27116
-0.204392
-0.13711
-0.0837039
-0.0514816
-0.0414836
-0.0340665
-0.0175317
-0.00146972
-0.00646505
-0.0235532
-0.0538812
-0.0920435
-0.110621
-0.0949045
-0.0566016
-0.0160866
0.0110259
0.0204602
-0.000939643
-0.0406444
-0.0808894
-0.0986782
-0.0737378
-0.0238259
-0.322749
-0.308226
-0.301209
-0.280622
-0.252676
-0.221325
-0.187864
-0.154507
-0.12293
-0.0945118
-0.0696933
-0.0488279
-0.0320344
-0.0186413
-0.0104109
-0.00822889
-0.00347105
-0.000915983
-0.00788361
-0.0291266
-0.0596855
-0.100984
-0.159261
-0.225009
-0.264773
-0.247497
-0.193343
-0.132383
-0.0823296
-0.0491961
-0.0379383
-0.0306251
-0.017168
-0.000528467
-0.00356881
-0.0180007
-0.0477836
-0.0867958
-0.106516
-0.0924896
-0.0549189
-0.0140294
0.0153464
0.0272635
0.00581078
-0.0388341
-0.0856243
-0.107703
-0.0814606
-0.0263554
-0.278339
-0.269836
-0.264453
-0.249022
-0.228296
-0.204102
-0.176842
-0.14804
-0.119299
-0.0918727
-0.0664938
-0.0438782
-0.0246564
-0.00753346
0.00647164
0.0137679
0.0162315
0.0150381
0.00883495
-0.0102096
-0.0374253
-0.0704673
-0.119068
-0.18232
-0.2279
-0.228206
-0.18392
-0.128365
-0.08153
-0.0483142
-0.0350486
-0.0274694
-0.0167128
-0.0019919
-0.00227609
-0.0117957
-0.0404767
-0.0803453
-0.100865
-0.0895296
-0.052877
-0.0127651
0.0183403
0.0331702
0.0121857
-0.0371533
-0.0902653
-0.116309
-0.0888709
-0.0287415
-0.247321
-0.244259
-0.237764
-0.224431
-0.208459
-0.190239
-0.169357
-0.145926
-0.120884
-0.0955112
-0.0707329
-0.0474319
-0.0266405
-0.0079033
0.00936483
0.0208037
0.0211692
0.0242702
0.0196461
0.00312538
-0.0212638
-0.0470937
-0.0838179
-0.136009
-0.17819
-0.186843
-0.162678
-0.119334
-0.0776829
-0.0466049
-0.0323102
-0.0245565
-0.0139033
-0.00295565
-0.00468397
-0.00723279
-0.0333344
-0.0718203
-0.0927541
-0.0835689
-0.0495475
-0.0114098
0.0201962
0.0374857
0.0179346
-0.0352467
-0.0942515
-0.124197
-0.0955833
-0.0307958
-0.218057
-0.227134
-0.219192
-0.203386
-0.185702
-0.167475
-0.148263
-0.127315
-0.104711
-0.081502
-0.0587044
-0.0369945
-0.0172946
0.0007066
0.0181381
0.0319934
0.039959
0.0334065
0.0278295
0.0181046
0.00116973
-0.0192959
-0.0504693
-0.100934
-0.148189
-0.167116
-0.141827
-0.102956
-0.0662478
-0.039731
-0.0265968
-0.020493
-0.0104368
-0.000836314
0.014167
0.000538477
-0.0248028
-0.0634895
-0.0856948
-0.0806283
-0.0447912
-0.00839876
0.0229318
0.0420248
0.0233973
-0.0331386
-0.0978516
-0.131157
-0.10108
-0.0323388
-0.185977
-0.197832
-0.192147
-0.176598
-0.159177
-0.142398
-0.125822
-0.108116
-0.0888022
-0.0683928
-0.0479534
-0.028344
-0.0103182
0.00609252
0.0216479
0.0343438
0.038578
0.0356693
0.0307766
0.0239979
0.012143
-0.00261808
-0.0270563
-0.0734577
-0.120822
-0.137369
-0.117145
-0.0848012
-0.0542816
-0.0329399
-0.0219358
-0.0158911
-0.00639056
0.0011416
0.00898374
0.00349328
-0.0187373
-0.0558552
-0.0775556
-0.0688988
-0.0387416
-0.00526342
0.025208
0.0445284
0.0270761
-0.0321167
-0.101481
-0.137161
-0.10555
-0.033549
-0.1584
-0.170706
-0.167647
-0.154644
-0.139139
-0.124047
-0.109397
-0.0939587
-0.0770243
-0.0588602
-0.0402539
-0.0220669
-0.00520672
0.0102605
0.0246946
0.0362684
0.0410343
0.0383273
0.0350453
0.031759
0.0224146
0.00949606
-0.0100759
-0.0483027
-0.0909885
-0.10756
-0.0931526
-0.0681363
-0.0435506
-0.0259815
-0.0166549
-0.0111756
-0.00244144
0.00303046
0.00986656
0.00484611
-0.0147707
-0.0478964
-0.0672521
-0.0599368
-0.032345
-0.00234624
0.0268239
0.0465019
0.0295564
-0.0322366
-0.105106
-0.14223
-0.109148
-0.0344952
-0.135742
-0.146362
-0.144829
-0.134171
-0.120421
-0.106603
-0.0932086
-0.0794638
-0.0646734
-0.0488206
-0.0323562
-0.0160504
-0.00085434
0.0130452
0.0260764
0.0365809
0.0416111
0.0405879
0.0391325
0.0399512
0.0362291
0.0268219
0.0101061
-0.0235084
-0.0630543
-0.0787977
-0.0692226
-0.0509256
-0.0322181
-0.0186762
-0.0113983
-0.00635205
0.00203811
0.00546052
0.0102556
0.00614796
-0.0101744
-0.0381687
-0.0555734
-0.0496361
-0.0254091
0.000642229
0.027775
0.047664
0.0312714
-0.0325945
-0.107947
-0.145895
-0.111427
-0.0350228
-0.114611
-0.124045
-0.123536
-0.11489
-0.102981
-0.0907525
-0.0789604
-0.0671314
-0.054524
-0.0408956
-0.0264943
-0.011943
0.00186768
0.0145164
0.0263572
0.0361121
0.0416127
0.0425771
0.0430285
0.0469465
0.049754
0.0454518
0.0296776
-0.00245683
-0.0367084
-0.0510257
-0.0467968
-0.0353515
-0.0220506
-0.0115837
-0.00594086
-0.00127775
0.0066603
0.00865824
0.0113444
0.00837476
-0.00380793
-0.0270288
-0.0428943
-0.0389135
-0.0185137
0.00339882
0.0279124
0.0478105
0.0322316
-0.0326961
-0.109454
-0.147451
-0.111873
-0.0350042
-0.0952505
-0.10405
-0.104256
-0.0973263
-0.0872824
-0.076739
-0.0664841
-0.0562335
-0.0453499
-0.0335577
-0.0209851
-0.00814873
0.00420446
0.0155693
0.0261599
0.0351437
0.0409273
0.0436697
0.0459904
0.051648
0.0575774
0.0562736
0.0423018
0.0147116
-0.0127299
-0.02668
-0.0273898
-0.0211319
-0.0123044
-0.00465223
-0.00058685
0.00371812
0.0113494
0.0128711
0.0134478
0.0120057
0.00356692
-0.0152765
-0.0298799
-0.0282998
-0.0119986
0.00585656
0.0271546
0.04674
0.0322143
-0.0324598
-0.109056
-0.146125
-0.10995
-0.03428
-0.0788834
-0.0864851
-0.087015
-0.0815054
-0.0731291
-0.0641289
-0.055269
-0.0464216
-0.0370942
-0.0270162
-0.0162251
-0.0050994
0.00579026
0.0159448
0.025385
0.03369
0.0396992
0.0436561
0.0473176
0.0531429
0.0589791
0.0591346
0.0485159
0.027345
0.00613144
-0.00720947
-0.0113738
-0.00898569
-0.00381734
0.00156434
0.00470017
0.00852839
0.0156777
0.0181215
0.0168543
0.0166178
0.0111621
-0.00328039
-0.0168516
-0.0182577
-0.00630899
0.00783886
0.0254668
0.0442322
0.0308913
-0.0317279
-0.105991
-0.14109
-0.105151
-0.0327154
-0.0642572
-0.07071
-0.0715464
-0.0672645
-0.0603555
-0.05276
-0.045209
-0.0376769
-0.029778
-0.0212429
-0.0120543
-0.00248954
0.00700603
0.0160192
0.0244145
0.0320038
0.0380249
0.0426103
0.0469274
0.052181
0.0569927
0.0577753
0.0500946
0.0345738
0.0187064
0.00675452
0.000951486
0.00108053
0.00372722
0.00717948
0.00976036
0.0130417
0.0193436
0.0234002
0.0213998
0.0218122
0.0185497
0.00828557
-0.00477007
-0.00939241
-0.00173012
0.00927924
0.0229545
0.0396255
0.0280426
-0.0300839
-0.099419
-0.131626
-0.0971171
-0.0302077
-0.0508987
-0.0567367
-0.0578596
-0.0545725
-0.0489219
-0.0425803
-0.0362244
-0.0298835
-0.0232548
-0.016083
-0.0083292
-0.000182474
0.00800273
0.0159084
0.0233288
0.0301628
0.0359688
0.0407161
0.0451197
0.0496199
0.0533092
0.0541172
0.0487238
0.0376843
0.0261526
0.0163912
0.0102867
0.00916488
0.0101389
0.0120619
0.0143606
0.0172236
0.022574
0.0274153
0.0265623
0.027969
0.0258818
0.0176397
0.00457736
-0.00219776
0.00180324
0.0102148
0.0199383
0.0338352
0.0238216
-0.0269571
-0.0886967
-0.117383
-0.0857982
-0.0267444
-0.0394922
-0.0446052
-0.0457845
-0.0432803
-0.0387133
-0.0334781
-0.0281883
-0.0229039
-0.0173964
-0.0114308
-0.00495538
0.00191163
0.00888628
0.0157219
0.0222226
0.0282858
0.0336795
0.0382536
0.0423864
0.0461771
0.048936
0.0495955
0.0460078
0.0383709
0.0301627
0.0226177
0.0170245
0.0153553
0.0154818
0.0163446
0.0183611
0.021047
0.0255126
0.0300165
0.0315955
0.0350299
0.0330691
0.0239118
0.0107367
0.00342335
0.00467114
0.0109693
0.0171645
0.0268039
0.018717
-0.0218113
-0.0736225
-0.0986011
-0.0716034
-0.0224378
-0.0296099
-0.0338936
-0.0350903
-0.0332624
-0.0296315
-0.0253556
-0.0209967
-0.0166399
-0.0121164
-0.0072131
-0.001865
0.0038565
0.00973203
0.0155577
0.0211794
0.0264742
0.0313232
0.0355309
0.0392288
0.0424148
0.0445375
0.0450906
0.0428495
0.0377202
0.0319735
0.0264611
0.0218133
0.0199956
0.019777
0.0199886
0.0216441
0.0243442
0.0280461
0.0317662
0.0354967
0.0404403
0.0389238
0.0284845
0.0155071
0.00803926
0.00743883
0.0120225
0.0159537
0.0200121
0.0138558
-0.0145469
-0.0550755
-0.076567
-0.0556232
-0.0175873
-0.0207461
-0.0244796
-0.0257274
-0.0244378
-0.0215762
-0.0181179
-0.0145689
-0.0110229
-0.0073507
-0.00336618
0.00100187
0.00570837
0.0105939
0.0154875
0.0202691
0.0248163
0.0290511
0.0327988
0.0360283
0.0387212
0.0404565
0.0409802
0.0396987
0.0363999
0.0324844
0.0286157
0.025028
0.0233165
0.0230448
0.0229801
0.0242578
0.0269434
0.0300309
0.0329267
0.0375237
0.0426735
0.0421499
0.0319877
0.0198931
0.0121185
0.0105696
0.0140808
0.0167713
0.0157686
0.011301
-0.00529747
-0.0351406
-0.0536768
-0.0395924
-0.0126779
-0.0131026
-0.0163536
-0.0175634
-0.0166723
-0.0144463
-0.0116863
-0.00883232
-0.00598014
-0.00303265
0.000164102
0.00368318
0.00750186
0.0115084
0.0155597
0.0195556
0.0233902
0.0269988
0.0302544
0.0330435
0.0353351
0.0368413
0.0374054
0.036795
0.0348099
0.0322411
0.0296305
0.0270576
0.0256162
0.0253981
0.0253087
0.0262533
0.0287481
0.0313493
0.0336405
0.0377887
0.0422277
0.0426084
0.0341627
0.0235841
0.0159486
0.0140606
0.0165241
0.0191227
0.0152456
0.0124717
0.00443644
-0.0170908
-0.0331229
-0.0255569
-0.00832375
-0.00655142
-0.00929142
-0.0104214
-0.00985098
-0.00815558
-0.00598224
-0.00371353
-0.00144915
0.000881575
0.00340703
0.00620159
0.00925693
0.0124932
0.0157956
0.0190788
0.0222586
0.0252811
0.0280497
0.0304379
0.0323983
0.033755
0.0343895
0.0342402
0.0331779
0.0316018
0.0299249
0.0282044
0.0271053
0.0269587
0.0269743
0.0276778
0.0297993
0.0320067
0.0338347
0.036981
0.0404717
0.0410243
0.0347138
0.0260228
0.0191457
0.017174
0.0187164
0.0211939
0.0171329
0.015006
0.0116858
-0.00410687
-0.0176675
-0.0148969
-0.00495029
-0.000811221
-0.00313761
-0.00420496
-0.0038895
-0.0026249
-0.000938647
0.000838375
0.00260845
0.00442329
0.00638831
0.00857377
0.0109814
0.0135547
0.0162059
0.0188602
0.0214489
0.0239472
0.0262605
0.0282872
0.0299695
0.0312024
0.0318989
0.032061
0.0316338
0.030801
0.0297726
0.028705
0.0279568
0.0278863
0.0280259
0.028581
0.0302399
0.0320768
0.0335178
0.0356676
0.0381195
0.0384328
0.0339666
0.0271932
0.0214885
0.0194645
0.0202224
0.022032
0.0191053
0.0170806
0.0149508
0.00304583
-0.0077893
-0.00781388
-0.0025754
0.00414249
0.00216009
0.00117371
0.00130466
0.00222172
0.00350447
0.0048754
0.00623969
0.00762955
0.00913078
0.0108087
0.0126737
0.014687
0.016783
0.0189009
0.0209953
0.0230101
0.0249075
0.0266041
0.0280415
0.0291539
0.0298799
0.0302357
0.0302296
0.0300347
0.0293501
0.0287491
0.0283182
0.0283248
0.0285491
0.029018
0.0302372
0.031689
0.032807
0.0341542
0.0356695
0.0356759
0.0325257
0.027445
0.0229023
0.020893
0.0210082
0.021911
0.0200651
0.0180149
0.0159714
0.00686127
-0.00175083
-0.00321019
-0.000975759
0.00837984
0.00672142
0.00582904
0.00582324
0.00646367
0.00741965
0.00845609
0.00948364
0.0105224
0.0116432
0.0129051
0.0143227
0.0158693
0.0174963
0.0191541
0.0208113
0.022422
0.0239586
0.0253598
0.026576
0.0275616
0.0282713
0.0287033
0.0288388
0.0286217
0.0286309
0.0284611
0.0283078
0.0283923
0.0286537
0.0290618
0.02992
0.0309905
0.031856
0.0325928
0.0333872
0.0331541
0.0308687
0.0271528
0.0236101
0.0216762
0.0212185
0.0213247
0.0200615
0.0180383
0.0158401
0.00881216
0.00194698
-0.000198073
7.31007e-05
0.0119955
0.0106082
0.00982006
0.00973257
0.0101608
0.010851
0.0116116
0.0123652
0.0131224
0.0139379
0.0148628
0.0159148
0.0170765
0.0183126
0.019582
0.0208701
0.0221381
0.023365
0.0245052
0.0255198
0.0263761
0.0270437
0.0275213
0.0278082
0.0279206
0.0280083
0.0280314
0.0280527
0.0281925
0.0284505
0.028798
0.0293769
0.0300833
0.0305828
0.0310443
0.0313563
0.0309735
0.0292544
0.0265448
0.0237932
0.0219796
0.0210659
0.0206328
0.0194652
0.0174765
0.0151768
0.00971015
0.00424339
0.00177929
0.000743158
0.0150883
0.0139338
0.0132279
0.0130716
0.013341
0.0138281
0.0143766
0.0149164
0.0154509
0.0160216
0.0166749
0.0174319
0.018282
0.0191998
0.0201582
0.0211341
0.0221088
0.0230679
0.0239785
0.0248094
0.0255356
0.0261379
0.0266172
0.0269724
0.027213
0.0273938
0.0275228
0.0276409
0.0278081
0.0280372
0.0283177
0.0286952
0.0291288
0.0294487
0.0296151
0.0296003
0.0291197
0.0277709
0.0257574
0.0235928
0.0219153
0.0207115
0.0198849
0.0185934
0.0166787
0.0143819
0.0100132
0.00560006
0.00302994
0.00115192
0.0177264
0.0167656
0.0161388
0.0159387
0.0160755
0.0163933
0.0167643
0.0171287
0.017486
0.0178716
0.0183208
0.0188518
0.0194587
0.0201223
0.0208211
0.0215431
0.0222733
0.0230041
0.023713
0.0243769
0.0249747
0.0254929
0.0259334
0.0262943
0.0265767
0.0268037
0.02698
0.0271384
0.027307
0.0274935
0.0277012
0.0279311
0.0281585
0.0283082
0.0282904
0.0280764
0.0275398
0.026432
0.0248757
0.0231232
0.0215885
0.0202396
0.0191441
0.0177218
0.0158345
0.0136072
0.00998588
0.00634724
0.00375653
0.00137486
0.0199435
0.0191512
0.0186051
0.018384
0.0184248
0.0186115
0.0188441
0.0190727
0.0192933
0.0195313
0.0198162
0.0201654
0.0205774
0.0210381
0.0215298
0.022045
0.0225743
0.0231133
0.0236457
0.024157
0.0246302
0.0250544
0.0254298
0.0257551
0.0260273
0.0262575
0.0264393
0.0265972
0.0267443
0.0268809
0.0270141
0.0271299
0.0272051
0.027214
0.0270729
0.0267414
0.026177
0.0252231
0.0239596
0.0224882
0.021085
0.0196783
0.0184173
0.0169058
0.0150377
0.0129017
0.0097734
0.00669412
0.00413383
0.00147355
0.0218068
0.0211597
0.020687
0.0204557
0.0204252
0.0205109
0.0206352
0.0207571
0.0208706
0.0209947
0.0211533
0.0213618
0.0216207
0.0219199
0.0222463
0.0225948
0.0229592
0.0233389
0.0237205
0.0240944
0.0244483
0.0247743
0.0250714
0.0253371
0.0255692
0.0257675
0.0259244
0.0260554
0.0261639
0.0262428
0.0263056
0.0263302
0.0262929
0.0261922
0.0259624
0.0255629
0.0249849
0.0241277
0.0230486
0.0217644
0.0204693
0.0190583
0.0177112
0.0161504
0.0143143
0.0122614
0.00946484
0.00671368
0.00426315
0.00149925
0.0233625
0.0228338
0.0224256
0.0221938
0.0221129
0.0221221
0.0221625
0.0222014
0.0222327
0.0222702
0.0223327
0.0224332
0.0225728
0.0227453
0.0229405
0.0231554
0.0233855
0.0236327
0.0238864
0.0241409
0.024385
0.0246136
0.0248266
0.0250215
0.0251925
0.0253395
0.0254504
0.0255363
0.0255918
0.0256179
0.0256124
0.0255597
0.0254404
0.0252552
0.02496
0.0245172
0.0239339
0.0231341
0.0221696
0.0210061
0.0197959
0.0184133
0.0170344
0.015455
0.0136605
0.0116767
0.00912214
0.00663092
0.00423415
0.00146363
0.0246448
0.0242145
0.0238641
0.0236384
0.0235222
0.0234737
0.0234496
0.023425
0.0233939
0.0233664
0.0233565
0.0233749
0.023423
0.0234964
0.0235881
0.0236968
0.0238186
0.023957
0.024103
0.0242544
0.0244012
0.02454
0.0246708
0.0247897
0.0248923
0.0249774
0.0250318
0.0250635
0.0250643
0.0250319
0.0249622
0.024843
0.0246596
0.0244103
0.0240633
0.0235918
0.0230014
0.0222362
0.0213413
0.0202572
0.0191123
0.0177682
0.0163885
0.0148157
0.013067
0.0111518
0.00877308
0.0064706
0.00414344
0.00141431
0.0256907
0.0253402
0.0250394
0.0248229
0.0246828
0.0245916
0.0245186
0.0244458
0.0243679
0.0242921
0.0242284
0.0241851
0.0241634
0.0241605
0.0241715
0.0241962
0.024232
0.0242821
0.0243391
0.0244031
0.0244647
0.0245236
0.0245778
0.0246239
0.0246589
0.0246791
0.0246733
0.0246476
0.0245907
0.0245027
0.0243763
0.0241987
0.0239624
0.0236607
0.0232738
0.0227786
0.0221825
0.021434
0.0205806
0.0195482
0.0184515
0.0171499
0.015786
0.0142307
0.0125326
0.0106673
0.00844368
0.00626466
0.00398045
0.00134888
0.026529
0.0262414
0.0259821
0.0257764
0.0256207
0.0254984
0.0253887
0.0252799
0.0251673
0.0250561
0.0249529
0.0248638
0.0247896
0.0247289
0.0246781
0.0246376
0.0246054
0.0245851
0.0245701
0.024562
0.024552
0.0245421
0.0245279
0.0245085
0.0244801
0.0244389
0.0243758
0.0242951
0.024183
0.0240434
0.023865
0.0236379
0.0233566
0.0230122
0.0225923
0.0220772
0.0214727
0.0207337
0.0199034
0.0189046
0.0178436
0.0165745
0.0152356
0.0137116
0.0120552
0.0102413
0.00810165
0.00605108
0.0038274
0.00127834
0.0271827
0.0269434
0.0267177
0.0265226
0.0263573
0.0262128
0.0260764
0.025941
0.0258032
0.0256667
0.0255349
0.0254125
0.0252997
0.0251958
0.0250989
0.025009
0.0249251
0.02485
0.0247782
0.0247127
0.0246445
0.0245777
0.0245063
0.0244309
0.0243473
0.0242521
0.0241376
0.0240075
0.0238459
0.0236613
0.0234369
0.0231683
0.0228498
0.02247
0.0220238
0.0214909
0.0208789
0.0201435
0.0193258
0.0183466
0.0173118
0.0160723
0.0147577
0.0132566
0.0116482
0.00987247
0.00783686
0.00585689
0.00366256
0.00122034
0.0276688
0.0274647
0.0272646
0.0270788
0.0269079
0.0267483
0.026593
0.0264389
0.0262834
0.0261293
0.0259777
0.025832
0.0256918
0.0255572
0.025427
0.0253015
0.0251799
0.025064
0.0249499
0.0248406
0.0247279
0.0246173
0.0245005
0.0243811
0.0242522
0.0241136
0.0239568
0.0237856
0.0235839
0.023362
0.0230994
0.022799
0.0224491
0.0220424
0.0215754
0.0210265
0.0204076
0.0196737
0.0188625
0.0178956
0.0168793
0.0156572
0.0143693
0.0128948
0.0113157
0.00959355
0.00760009
0.0056745
0.00353578
0.00117281
0.0279982
0.0278174
0.0276349
0.0274561
0.0272822
0.0271129
0.0269453
0.0267791
0.0266121
0.0264468
0.0262823
0.0261217
0.0259634
0.0258088
0.0256567
0.0255073
0.0253609
0.0252173
0.0250749
0.0249353
0.0247921
0.024651
0.0245019
0.0243517
0.0241905
0.0240204
0.0238336
0.0236319
0.0234016
0.023153
0.0228613
0.0225394
0.022168
0.0217399
0.0212579
0.0206971
0.0200712
0.0193387
0.018532
0.0175742
0.0165673
0.0153568
0.0140935
0.0126316
0.0110762
0.00938632
0.0074501
0.00556786
0.00344028
0.00113247
0.0281704
0.0280016
0.0278282
0.0276532
0.027478
0.0273037
0.0271299
0.0269572
0.0267846
0.0266135
0.0264426
0.0262744
0.0261067
0.0259423
0.0257783
0.0256174
0.0254578
0.0252998
0.0251432
0.0249866
0.0248286
0.0246702
0.0245045
0.0243384
0.0241578
0.0239731
0.0237682
0.0235503
0.0233059
0.0230404
0.0227345
0.0224009
0.0220125
0.0215795
0.0210874
0.0205198
0.019891
0.0191576
0.0183524
0.0174065
0.0164028
0.0151913
0.0139511
0.0124995
0.0109551
0.00927596
0.00738037
0.00551954
0.00339416
0.00112865
-0.0803832
-0.0915914
-0.102474
-0.113097
-0.124525
-0.135616
-0.148613
-0.160695
-0.176929
-0.194617
-0.0708101
-0.0804122
-0.0900256
-0.0991776
-0.109644
-0.119111
-0.130277
-0.139838
-0.150888
-0.16425
-0.0614698
-0.069457
-0.0775478
-0.0851482
-0.0937987
-0.10145
-0.109682
-0.116988
-0.125466
-0.138022
-0.0527811
-0.0593583
-0.0659646
-0.0722437
-0.0791355
-0.0853811
-0.0918251
-0.0986503
-0.107641
-0.119477
-0.0445739
-0.0499649
-0.055316
-0.0606384
-0.0663579
-0.0720174
-0.0782749
-0.0854353
-0.0933597
-0.101677
-0.0370034
-0.04144
-0.0458102
-0.0504355
-0.05548
-0.060859
-0.0664898
-0.0718184
-0.0768784
-0.0834577
-0.0299761
-0.0336391
-0.0372532
-0.0412198
-0.0454873
-0.049787
-0.0537105
-0.0572785
-0.0618078
-0.0686469
-0.0234545
-0.0264564
-0.0293771
-0.0325431
-0.0358153
-0.0389684
-0.0420866
-0.0457387
-0.0505694
-0.056259
-0.0173896
-0.019798
-0.0220934
-0.0245624
-0.0271886
-0.0299996
-0.0331828
-0.0366176
-0.040082
-0.0441175
-0.0117779
-0.0137024
-0.015548
-0.0176069
-0.0199466
-0.02249
-0.0250113
-0.0272697
-0.029759
-0.0334878
-0.00664374
-0.00820407
-0.00972956
-0.0114482
-0.0133409
-0.0152198
-0.0169965
-0.0188769
-0.0213776
-0.0247479
-0.00197304
-0.00322511
-0.00444123
-0.00577437
-0.00721207
-0.00870402
-0.0103214
-0.0121435
-0.0142209
-0.0167815
0.00228291
0.0012992
0.000347052
-0.000712779
-0.00191593
-0.00323596
-0.00462417
-0.00601263
-0.00754951
-0.00969245
0.00613862
0.00535863
0.0045916
0.00371748
0.0027216
0.00166967
0.000614461
-0.000482004
-0.00182962
-0.00371601
0.00960664
0.00898036
0.00836373
0.00766396
0.00687558
0.00603575
0.00515164
0.00418604
0.00303536
0.00150278
0.0126988
0.0122001
0.0117051
0.0111416
0.0104967
0.00979219
0.0090461
0.00825328
0.00732981
0.00607096
0.0154719
0.0150543
0.0146442
0.01418
0.0136478
0.0130669
0.0124558
0.0118053
0.0110345
0.00997448
0.017929
0.0175682
0.017219
0.0168307
0.0163892
0.0159085
0.0154001
0.0148525
0.0141996
0.0133111
0.0200945
0.0197712
0.0194644
0.0191335
0.0187632
0.018359
0.0179255
0.0174544
0.0169
0.0161638
0.0219909
0.0216922
0.0214133
0.0211211
0.0207987
0.0204477
0.020073
0.019673
0.0192116
0.018606
0.0236356
0.0233516
0.0230888
0.0228221
0.022537
0.0222334
0.0219129
0.0215708
0.0211757
0.0206656
0.0250486
0.0247759
0.024525
0.0242779
0.024021
0.0237507
0.0234655
0.0231617
0.0228182
0.0223919
0.0262508
0.0259877
0.0257445
0.0255088
0.0252689
0.0250207
0.0247625
0.0244923
0.0241948
0.0238381
0.0272595
0.0270049
0.0267672
0.026539
0.0263113
0.0260801
0.0258433
0.0255991
0.0253363
0.0250329
0.0280934
0.027847
0.0276144
0.0273916
0.0271722
0.0269527
0.026731
0.0265059
0.0262701
0.0260091
0.0287697
0.0285308
0.0283029
0.028084
0.0278702
0.0276589
0.0274485
0.0272381
0.0270229
0.0267939
0.0293026
0.0290704
0.0288467
0.0286313
0.0284216
0.0282162
0.0280138
0.0278139
0.0276136
0.0274076
0.0297031
0.0294764
0.0292565
0.0290439
0.0288372
0.0286359
0.0284389
0.0282463
0.0280561
0.0278657
0.0299756
0.0297533
0.0295368
0.0293267
0.0291225
0.0289241
0.0287308
0.0285426
0.0283585
0.0281773
0.0301147
0.0298956
0.0296819
0.0294741
0.0292721
0.0290759
0.0288851
0.0286996
0.0285183
0.028341
0.0796459
0.0833524
0.0864365
0.0886672
0.0897616
0.0898356
0.0890825
0.0874611
0.084699
0.080411
0.0741484
0.0653666
0.0533657
0.0372272
0.0157426
-0.0126829
-0.0500879
-0.0979216
-0.153834
-0.185549
0.0630877
0.0655594
0.0657681
0.0648443
0.0632672
0.0610136
0.0578987
0.0536545
0.0479402
0.0403603
0.0304495
0.0176253
0.00113335
-0.0200108
-0.0470942
-0.0817834
-0.12599
-0.180604
-0.24373
-0.277623
0.0466377
0.0471718
0.044619
0.0410514
0.0371527
0.032715
0.0273069
0.0205458
0.0120676
0.00146518
-0.011757
-0.0282247
-0.0487393
-0.0743345
-0.10636
-0.146578
-0.196845
-0.257006
-0.325091
-0.359367
0.0284201
0.027004
0.0225838
0.0172819
0.0116365
0.00529888
-0.00222577
-0.011311
-0.0223015
-0.0356106
-0.0517631
-0.0714208
-0.0954197
-0.124829
-0.161036
-0.205865
-0.261142
-0.326539
-0.393646
-0.428644
0.0089217
0.00591086
0.000242963
-0.00621112
-0.0131811
-0.0211121
-0.0304693
-0.0415715
-0.0547329
-0.0703648
-0.0890062
-0.111339
-0.138206
-0.170668
-0.210157
-0.258481
-0.317239
-0.384631
-0.449583
-0.484048
-0.0101648
-0.0146671
-0.0214231
-0.0288614
-0.0369899
-0.0463053
-0.0572111
-0.0699837
-0.0849254
-0.10244
-0.123054
-0.147459
-0.176496
-0.21113
-0.252831
-0.303355
-0.363466
-0.4305
-0.491932
-0.52449
-0.0281732
-0.0341678
-0.041879
-0.0502001
-0.059391
-0.0699308
-0.082136
-0.0962495
-0.112576
-0.13152
-0.153546
-0.179366
-0.209775
-0.24576
-0.288578
-0.339611
-0.39919
-0.463672
-0.519634
-0.549442
-0.0449668