/*--------------------------------*- C++ -*----------------------------------*\
| =========                 |                                                 |
| \\      /  F ield         | OpenFOAM: The Open Source CFD Toolbox           |
|  \\    /   O peration     | Version:  2512                                  |
|   \\  /    A nd           | Website:  www.openfoam.com                      |
|    \\/     M anipulation  |                                                 |
\*---------------------------------------------------------------------------*/
FoamFile
{
    version     2.0;
    format      ascii;
    arch        "LSB;label=32;scalar=64";
    class       volScalarField;
    location    "30";
    object      p;
}
// * * * * * * * * * * * * * * * * * * * * * * * * * * * * * * * * * * * * * //

dimensions      [0 2 -2 0 0 0 0];

internalField   nonuniform List<scalar> 
13248
(
-0.299505
-0.298925
-0.297403
-0.295229
-0.292744
-0.290372
-0.288537
-0.287593
-0.287778
-0.289199
-0.29182
-0.29547
-0.299884
-0.304726
-0.309626
-0.314218
-0.318153
-0.321197
-0.323059
-0.323843
-0.323084
-0.321367
-0.317332
-0.31177
-0.301764
-0.301218
-0.299576
-0.297223
-0.294535
-0.291918
-0.289768
-0.288405
-0.288024
-0.288676
-0.290268
-0.292586
-0.295331
-0.298165
-0.300745
-0.302778
-0.304027
-0.304363
-0.303711
-0.302081
-0.299407
-0.295822
-0.290983
-0.286284
-0.305695
-0.304907
-0.303023
-0.300471
-0.297602
-0.294781
-0.292337
-0.290509
-0.289416
-0.289045
-0.289264
-0.289853
-0.290543
-0.291063
-0.291183
-0.290749
-0.289673
-0.287964
-0.28559
-0.282629
-0.27895
-0.274702
-0.269765
-0.264932
-0.311428
-0.310097
-0.307831
-0.304966
-0.301837
-0.298734
-0.295876
-0.293392
-0.291311
-0.28958
-0.288077
-0.286638
-0.285096
-0.283315
-0.281217
-0.278771
-0.275982
-0.272843
-0.269331
-0.265433
-0.261049
-0.256354
-0.251167
-0.246417
-0.319
-0.316846
-0.314004
-0.310683
-0.307148
-0.303585
-0.300071
-0.296609
-0.293173
-0.28973
-0.286239
-0.282663
-0.278978
-0.275183
-0.271287
-0.267294
-0.263185
-0.258929
-0.25449
-0.249842
-0.24495
-0.239904
-0.234608
-0.229785
-0.32845
-0.325256
-0.321667
-0.317739
-0.3136
-0.309288
-0.30472
-0.299821
-0.2946
-0.289136
-0.283537
-0.277906
-0.272326
-0.266847
-0.261481
-0.256212
-0.25101
-0.245833
-0.240647
-0.235417
-0.230114
-0.224776
-0.219336
-0.214342
-0.339918
-0.335503
-0.331045
-0.326348
-0.321314
-0.315788
-0.309588
-0.302698
-0.295289
-0.287623
-0.279945
-0.27244
-0.265211
-0.258296
-0.251685
-0.245344
-0.239227
-0.233283
-0.22747
-0.221746
-0.216091
-0.210495
-0.204944
-0.199804
-0.353528
-0.347765
-0.342338
-0.336645
-0.330249
-0.322836
-0.314311
-0.304905
-0.295037
-0.285129
-0.275488
-0.266294
-0.257616
-0.249454
-0.241768
-0.234501
-0.227594
-0.220993
-0.214646
-0.208513
-0.202564
-0.196764
-0.191136
-0.185859
-0.369282
-0.362083
-0.355553
-0.348487
-0.340042
-0.329933
-0.318425
-0.306133
-0.293704
-0.28162
-0.270161
-0.259441
-0.249469
-0.240199
-0.231562
-0.223487
-0.215903
-0.208746
-0.201959
-0.19549
-0.189296
-0.183341
-0.177651
-0.172243
-0.386843
-0.378206
-0.370349
-0.361319
-0.349954
-0.33635
-0.32138
-0.306041
-0.291085
-0.276948
-0.26381
-0.251696
-0.240549
-0.230285
-0.22081
-0.212036
-0.203879
-0.196264
-0.189124
-0.182397
-0.176027
-0.169975
-0.164237
-0.158721
-0.405559
-0.395504
-0.385949
-0.374125
-0.358893
-0.341152
-0.322467
-0.304083
-0.286715
-0.270662
-0.255978
-0.242593
-0.230394
-0.219257
-0.209063
-0.199706
-0.191088
-0.183123
-0.175733
-0.168845
-0.162395
-0.156335
-0.150609
-0.145085
-0.424384
-0.412964
-0.401162
-0.385539
-0.365557
-0.343254
-0.320795
-0.299484
-0.27987
-0.262072
-0.246004
-0.231507
-0.21841
-0.206552
-0.195787
-0.18599
-0.177046
-0.168858
-0.161337
-0.154403
-0.14799
-0.142047
-0.136483
-0.13119
-0.251218
-0.253008
-0.254096
-0.255394
-0.25734
-0.260035
-0.263489
-0.267688
-0.272614
-0.278246
-0.284568
-0.291558
-0.299195
-0.307449
-0.316288
-0.325671
-0.335549
-0.345867
-0.35656
-0.367572
-0.378508
-0.389463
-0.400301
-0.410846
-0.260522
-0.261741
-0.262642
-0.263964
-0.266081
-0.269088
-0.272986
-0.277755
-0.283371
-0.289812
-0.297056
-0.30508
-0.313852
-0.323335
-0.333478
-0.344219
-0.355486
-0.36719
-0.37923
-0.39148
-0.403775
-0.415978
-0.427885
-0.438958
-0.269804
-0.270324
-0.27096
-0.272221
-0.274405
-0.277595
-0.281786
-0.286946
-0.293044
-0.300053
-0.307945
-0.316688
-0.326242
-0.336557
-0.347568
-0.359196
-0.371342
-0.383892
-0.396712
-0.409645
-0.422505
-0.435064
-0.447066
-0.458425
-0.278337
-0.278106
-0.278421
-0.279517
-0.281631
-0.284834
-0.289116
-0.294439
-0.300759
-0.308041
-0.316249
-0.325344
-0.335277
-0.345984
-0.357391
-0.369401
-0.381902
-0.394761
-0.407826
-0.420926
-0.433856
-0.446336
-0.458294
-0.468404
-0.285545
-0.284607
-0.28455
-0.285386
-0.287265
-0.290279
-0.294423
-0.29965
-0.305911
-0.313159
-0.321352
-0.330442
-0.340371
-0.351071
-0.362453
-0.374416
-0.386837
-0.399572
-0.412461
-0.425311
-0.437938
-0.450019
-0.461523
-0.471204
-0.291096
-0.289589
-0.289144
-0.289611
-0.291088
-0.293695
-0.297451
-0.302315
-0.308235
-0.315161
-0.323042
-0.331824
-0.341443
-0.351824
-0.362876
-0.374491
-0.386543
-0.39888
-0.411348
-0.423704
-0.435907
-0.447257
-0.458581
-0.467159
-0.294928
-0.293051
-0.292247
-0.292264
-0.293183
-0.295169
-0.298285
-0.302522
-0.307838
-0.314187
-0.321512
-0.329756
-0.33885
-0.348713
-0.359251
-0.370354
-0.381907
-0.39374
-0.405656
-0.417314
-0.429156
-0.439502
-0.450532
-0.457581
-0.297209
-0.2952
-0.294105
-0.293636
-0.293885
-0.295072
-0.297331
-0.300705
-0.305189
-0.310751
-0.317341
-0.324896
-0.333342
-0.342593
-0.352546
-0.363062
-0.374016
-0.38517
-0.396766
-0.407701
-0.41916
-0.42828
-0.438691
-0.444201
-0.29827
-0.29636
-0.295068
-0.294129
-0.293665
-0.293956
-0.295218
-0.29757
-0.301065
-0.305702
-0.311448
-0.318241
-0.326002
-0.334614
-0.343967
-0.353934
-0.36442
-0.375
-0.385924
-0.395951
-0.406541
-0.414515
-0.423551
-0.427713
-0.298526
-0.296905
-0.295509
-0.294155
-0.29301
-0.292412
-0.292656
-0.293946
-0.296405
-0.300082
-0.304965
-0.310991
-0.318067
-0.326093
-0.334901
-0.344249
-0.353957
-0.363632
-0.373317
-0.382146
-0.390976
-0.397764
-0.404718
-0.407326
-0.298453
-0.297223
-0.295789
-0.294089
-0.292356
-0.290972
-0.290299
-0.290621
-0.292132
-0.294923
-0.298999
-0.30432
-0.310753
-0.318087
-0.326074
-0.334432
-0.342835
-0.350999
-0.358608
-0.365419
-0.371513
-0.376351
-0.380971
-0.382231
-0.298588
-0.297743
-0.296284
-0.294307
-0.292114
-0.290118
-0.288729
-0.288285
-0.289028
-0.291082
-0.294459
-0.299045
-0.304639
-0.310966
-0.317699
-0.324493
-0.330952
-0.336828
-0.341677
-0.345566
-0.348093
-0.349665
-0.350695
-0.35079
-0.422375
-0.433521
-0.442766
-0.449455
-0.453578
-0.454913
-0.45346
-0.449219
-0.442342
-0.433146
-0.422098
-0.409722
-0.396443
-0.382308
-0.366731
-0.348523
-0.325561
-0.29521
-0.254637
-0.202972
-0.143337
-0.0841111
-0.0325158
0.00752603
0.0352628
0.0521697
0.0607923
0.0637
0.0637266
0.0626382
0.0611965
0.0591743
0.0565357
0.0532117
0.0493065
0.0450829
0.040719
0.0364089
0.0322287
0.0283255
0.0247615
0.0216932
0.0191107
0.0169785
0.0151827
0.0136031
0.0121683
0.01081
0.00953327
0.00832299
0.00720233
0.00616951
0.005232
0.00438843
0.00362254
0.00292508
0.00225789
0.00162191
0.000972889
0.000343322
-0.451052
-0.460884
-0.468661
-0.473045
-0.474208
-0.471799
-0.465742
-0.455918
-0.442512
-0.425994
-0.407015
-0.386348
-0.364757
-0.342823
-0.320676
-0.297763
-0.272577
-0.24328
-0.206505
-0.162116
-0.112777
-0.0641825
-0.0219389
0.0106788
0.0326929
0.0453359
0.0514885
0.0538968
0.0551011
0.0559942
0.0564521
0.0559648
0.054345
0.0517137
0.0483112
0.0444827
0.0404585
0.0364463
0.032536
0.0288334
0.0253855
0.0223265
0.0197089
0.0174038
0.0154867
0.0138103
0.0122948
0.0108832
0.0095691
0.00833855
0.00720608
0.00616989
0.00523136
0.00439138
0.00362794
0.00293402
0.00226711
0.00163072
0.000979163
0.000345909
-0.471944
-0.481356
-0.488129
-0.490835
-0.489981
-0.485025
-0.475717
-0.461729
-0.443194
-0.420619
-0.394627
-0.366085
-0.336057
-0.305613
-0.275596
-0.246341
-0.217376
-0.187732
-0.155136
-0.117713
-0.0787869
-0.0414792
-0.0100555
0.0135805
0.0285084
0.0362401
0.0401793
0.0429662
0.0460375
0.0492272
0.0516106
0.052543
0.0518549
0.0498775
0.0469805
0.0435616
0.0398853
0.0361711
0.0325301
0.0290491
0.0257734
0.022793
0.0201464
0.0177908
0.0157809
0.0140129
0.0124129
0.010944
0.00958977
0.00834104
0.00719862
0.00616193
0.0052235
0.00438845
0.00362814
0.00293889
0.00227309
0.00163741
0.000984194
0.000347725
-0.483547
-0.49237
-0.499109
-0.500923
-0.499006
-0.492592
-0.481194
-0.464472
-0.442521
-0.415983
-0.385127
-0.350742
-0.313959
-0.276083
-0.238461
-0.202311
-0.168244
-0.136301
-0.105321
-0.0737567
-0.0438425
-0.017401
0.00272838
0.0164835
0.0232455
0.0258321
0.028163
0.0319784
0.0370706
0.0425154
0.0466604
0.0488752
0.0490713
0.0477456
0.0453765
0.0423922
0.0390791
0.0356644
0.0322798
0.0290126
0.0259165
0.0230478
0.0204358
0.018082
0.0160222
0.0141848
0.0125125
0.0109912
0.0095999
0.00833594
0.00718558
0.00614973
0.0052117
0.00438127
0.00362412
0.00293971
0.0022758
0.00164164
0.000987835
0.000348614
-0.484991
-0.495639
-0.501787
-0.50395
-0.501789
-0.494705
-0.482273
-0.464093
-0.440216
-0.411687
-0.377991
-0.340122
-0.299213
-0.256563
-0.21366
-0.172168
-0.133282
-0.0985837
-0.0671343
-0.040333
-0.0155016
0.00223459
0.0124392
0.0172206
0.0165645
0.0149473
0.0167492
0.0212662
0.0286253
0.0360235
0.0416778
0.0450061
0.0460546
0.0453879
0.0435676
0.0410413
0.0381079
0.0349997
0.0318641
0.0287986
0.0258687
0.023116
0.0205734
0.0182514
0.0161825
0.0143049
0.0125836
0.0110227
0.00960272
0.00832727
0.00717136
0.00613643
0.00519884
0.00437154
0.00361712
0.00293674
0.00227533
0.00164314
0.00098994
0.000348455
-0.479956
-0.490412
-0.497746
-0.500733
-0.499058
-0.492292
-0.47995
-0.461658
-0.437354
-0.407507
-0.372377
-0.332775
-0.28983
-0.244887
-0.199446
-0.155232
-0.113471
-0.0783252
-0.0455087
-0.0208886
-0.000293919
0.0123293
0.016726
0.0145919
0.00883341
0.00467626
0.0051333
0.0120029
0.021126
0.0299672
0.036755
0.0410029
0.0428658
0.0428663
0.0416076
0.0395533
0.0370107
0.0342172
0.0313322
0.028464
0.0256894
0.0230489
0.0205824
0.01831
0.0162608
0.0143688
0.012623
0.0110383
0.00960061
0.00831744
0.00715841
0.00612387
0.0051868
0.00436078
0.00360839
0.00293067
0.00227206
0.00164191
0.000990495
0.000347263
-0.468343
-0.479672
-0.488435
-0.492338
-0.491436
-0.48553
-0.474035
-0.456491
-0.432855
-0.403302
-0.368279
-0.328586
-0.285378
-0.240081
-0.194187
-0.149616
-0.107897
-0.0711818
-0.0391975
-0.0139022
0.00327433
0.0133982
0.0147561
0.00942871
0.00135583
-0.0036733
-0.00274589
0.00469487
0.0148038
0.0244736
0.0319784
0.0369489
0.0395528
0.0402203
0.039528
0.0379536
0.0358087
0.0333367
0.0307067
0.0280383
0.025417
0.0228893
0.0204985
0.0182865
0.0162718
0.0143836
0.0126331
0.0110391
0.00959404
0.00830667
0.00714671
0.00611221
0.00517604
0.00434985
0.00359881
0.00292224
0.00226645
0.00163821
0.000989595
0.000345198
-0.452147
-0.462636
-0.473332
-0.478694
-0.478867
-0.474183
-0.464082
-0.447948
-0.425712
-0.397561
-0.363928
-0.3256
-0.283714
-0.239707
-0.195067
-0.151439
-0.110665
-0.0744047
-0.0433791
-0.0190243
-0.00167167
0.00784224
0.00865652
0.00307043
-0.00494153
-0.00976807
-0.00830339
-0.000673237
0.00963664
0.0195499
0.0274073
0.0329051
0.036159
0.0374867
0.0373526
0.0362545
0.0345112
0.0323682
0.0299994
0.0275363
0.0250719
0.0226625
0.0203535
0.0182165
0.0162327
0.0143589
0.0126178
0.0110263
0.00958195
0.00829371
0.00713478
0.00610054
0.00516584
0.00433885
0.00358864
0.0029121
0.00225892
0.00163244
0.000987375
0.00034252
-0.432151
-0.439586
-0.451088
-0.458696
-0.460284
-0.457392
-0.449443
-0.435595
-0.415796
-0.390208
-0.359181
-0.323431
-0.283999
-0.242316
-0.200009
-0.158942
-0.119733
-0.083994
-0.0532168
-0.0287986
-0.0114545
-0.00151696
0.000864253
-0.00332102
-0.0095142
-0.0135291
-0.0116652
-0.00439542
0.00544411
0.0151301
0.0230786
0.0289251
0.0327241
0.0347056
0.0351305
0.0344901
0.0331349
0.0313196
0.0292167
0.0269656
0.0246645
0.0223823
0.0201711
0.0182238
0.016152
0.0143015
0.0125805
0.0110002
0.00956282
0.00827698
0.0071208
0.00608766
0.00515507
0.00432742
0.00357772
0.00290063
0.00224972
0.00162501
0.00098397
0.000339541
-0.407602
-0.412846
-0.424839
-0.432425
-0.434767
-0.433783
-0.428249
-0.417152
-0.400546
-0.378568
-0.351428
-0.319726
-0.28433
-0.246531
-0.207836
-0.16998
-0.133189
-0.0988638
-0.0685878
-0.0438103
-0.025444
-0.013672
-0.00891023
-0.00997347
-0.0135028
-0.0157181
-0.0136278
-0.00704805
0.00195459
0.0111311
0.019007
0.0250613
0.0292638
0.031827
0.0328603
0.032701
0.0317252
0.030224
0.028379
0.0263382
0.0242021
0.0220524
0.0199437
0.0179695
0.0160461
0.0142177
0.0125238
0.0109613
0.0095355
0.00825519
0.00710331
0.0060725
0.00514254
0.00431494
0.00356559
0.00288798
0.00223901
0.00161634
0.000979562
0.000336643
-0.379562
-0.384611
-0.396652
-0.40398
-0.40703
-0.408305
-0.405703
-0.397865
-0.384828
-0.366642
-0.343394
-0.31556
-0.283875
-0.249539
-0.214256
-0.17951
-0.145148
-0.112429
-0.0826195
-0.0574169
-0.0380815
-0.0250067
-0.0179862
-0.0157772
-0.0167894
-0.0171982
-0.0148933
-0.00915545
-0.00117407
0.00732431
0.0150014
0.0211989
0.0257384
0.0287357
0.0303604
0.0307709
0.0302415
0.0290861
0.0275102
0.0256827
0.023712
0.0216942
0.0196823
0.0177205
0.0159164
0.0141039
0.0124478
0.0109093
0.00949845
0.00822714
0.00708119
0.00605464
0.00512793
0.00430151
0.0035524
0.00287463
0.00222714
0.00160689
0.000974408
0.000334402
-0.35117
-0.359038
-0.367307
-0.371195
-0.374337
-0.376123
-0.375995
-0.371954
-0.363693
-0.350927
-0.333516
-0.311718
-0.285989
-0.257047
-0.225801
-0.193638
-0.161916
-0.131719
-0.102959
-0.0771887
-0.0559299
-0.0398662
-0.0292167
-0.0235101
-0.0212966
-0.0197528
-0.0168088
-0.0115193
-0.00434229
0.00355463
0.0110429
0.0174008
0.0223034
0.0257435
0.027788
0.0286602
0.0285733
0.0277921
0.0265175
0.0249313
0.0231471
0.021276
0.0193732
0.0175046
0.015693
0.0139659
0.01236
0.0108529
0.00946123
0.00819983
0.00705989
0.00603662
0.00511256
0.00428728
0.00353807
0.00286025
0.00221356
0.00159624
0.000967862
0.000333068
-0.328186
-0.34378
-0.350162
-0.352837
-0.355016
-0.356293
-0.354735
-0.350601
-0.343272
-0.33202
-0.316585
-0.297171
-0.274196
-0.248292
-0.220327
-0.191393
-0.162391
-0.134178
-0.10751
-0.0834913
-0.0632514
-0.0474537
-0.0362672
-0.0292691
-0.0253015
-0.0222873
-0.0184248
-0.0128219
-0.00575607
0.00183238
0.0090181
0.0151746
0.0200166
0.0235143
0.0257559
0.0268863
0.0270709
0.02655
0.0255139
0.0241359
0.0225261
0.0207978
0.0190071
0.0172303
0.0154376
0.0138126
0.0122106
0.0107272
0.00935745
0.00811613
0.00699211
0.0059833
0.00506836
0.00425132
0.00350703
0.00283497
0.00219276
0.0015814
0.000958135
0.000330989
-0.3055
-0.324158
-0.331274
-0.332151
-0.331483
-0.330656
-0.329661
-0.326326
-0.31975
-0.309544
-0.295661
-0.278352
-0.258001
-0.235124
-0.210385
-0.184584
-0.158536
-0.133102
-0.109019
-0.0870983
-0.0682223
-0.0529913
-0.0415674
-0.0336331
-0.0282827
-0.0239749
-0.0192934
-0.0134752
-0.00665246
0.000488317
0.00723495
0.0130882
0.0177992
0.0213122
0.0236632
0.0249589
0.0253528
0.0250546
0.024237
0.0230583
0.0216267
0.020051
0.0183889
0.0167117
0.015032
0.0134461
0.0119445
0.0105229
0.00919708
0.00799076
0.00689259
0.00590462
0.00500568
0.00420111
0.00346616
0.00280104
0.00216564
0.00156052
0.00094465
0.000325861
-0.283883
-0.30301
-0.31055
-0.310895
-0.309399
-0.308264
-0.306863
-0.30377
-0.297899
-0.288841
-0.276603
-0.261409
-0.243577
-0.223505
-0.201701
-0.178805
-0.155526
-0.1326
-0.110716
-0.0905682
-0.0728667
-0.0581323
-0.0465273
-0.0378215
-0.0313454
-0.0259825
-0.0206388
-0.014654
-0.00802218
-0.00121645
0.00521312
0.0108591
0.0154922
0.019031
0.0214895
0.0229568
0.0235644
0.0234905
0.0228922
0.0219154
0.0206663
0.0192496
0.0177263
0.0161669
0.0146016
0.0131076
0.0116573
0.0102904
0.00901112
0.00784216
0.0067736
0.00580934
0.00492975
0.00413995
0.00341664
0.00275989
0.00213293
0.00153518
0.000928486
0.000319525
-0.263967
-0.281823
-0.289534
-0.290157
-0.28858
-0.286996
-0.285283
-0.282357
-0.27717
-0.269238
-0.258525
-0.24522
-0.229601
-0.211996
-0.192807
-0.172549
-0.151813
-0.131227
-0.11141
-0.0929638
-0.0764604
-0.0623354
-0.0507512
-0.0415607
-0.0342896
-0.0281274
-0.0222321
-0.0160564
-0.00952869
-0.00297038
0.00319712
0.00864715
0.0131852
0.0167306
0.0192844
0.020913
0.0217231
0.0218666
0.0214848
0.0207119
0.0196494
0.0183981
0.0170207
0.0155876
0.0141308
0.0127157
0.0113383
0.0100331
0.00880489
0.00767684
0.00664094
0.00570293
0.00484462
0.00407136
0.00336115
0.00271429
0.00209689
0.00150769
0.0009113
0.00031305
-0.244579
-0.261179
-0.268916
-0.269942
-0.268443
-0.266649
-0.264786
-0.262054
-0.25751
-0.250636
-0.241327
-0.229731
-0.216097
-0.200705
-0.183881
-0.166034
-0.147645
-0.129241
-0.111361
-0.0945201
-0.0791914
-0.0657382
-0.0543243
-0.0448726
-0.0370541
-0.0302901
-0.0239576
-0.0176268
-0.0111915
-0.00484724
0.00109523
0.00637712
0.0108377
0.014399
0.0170467
0.0188277
0.0198294
0.0201826
0.020013
0.0194427
0.0185682
0.0174859
0.0162578
0.0149526
0.0136076
0.0122842
0.0109868
0.00974816
0.00857532
0.00749217
0.00649233
0.00558349
0.0047488
0.00399426
0.00329896
0.00266377
0.00205723
0.00147788
0.000892889
0.0003062
-0.226015
-0.241508
-0.249038
-0.250336
-0.249022
-0.247246
-0.245377
-0.242876
-0.238923
-0.233007
-0.224972
-0.21492
-0.203069
-0.189661
-0.174963
-0.159298
-0.143053
-0.126666
-0.11059
-0.0952645
-0.0810852
-0.0683588
-0.0572484
-0.0477304
-0.0395896
-0.0324289
-0.0257963
-0.0193544
-0.0129857
-0.00680378
-0.00103869
0.00410424
0.00849494
0.0120643
0.0147911
0.0167089
0.0178892
0.0184426
0.0184789
0.0181089
0.0174224
0.0165106
0.0154349
0.0142641
0.0130384
0.0118135
0.0105999
0.00943292
0.00831979
0.00728569
0.00632557
0.00544907
0.0046407
0.00390729
0.00322898
0.00260737
0.00201325
0.00144521
0.000872828
0.000298796
-0.208677
-0.222868
-0.230019
-0.231492
-0.230424
-0.228799
-0.227067
-0.224803
-0.221382
-0.216312
-0.209416
-0.200757
-0.190506
-0.178872
-0.166076
-0.152375
-0.138078
-0.123542
-0.109142
-0.0952465
-0.0821894
-0.070236
-0.0595447
-0.0501307
-0.0418633
-0.0344778
-0.0276538
-0.0211386
-0.0148315
-0.00879557
-0.00319186
0.00182329
0.00614636
0.00971894
0.0125165
0.014561
0.0159089
0.0166529
0.0168881
0.0167145
0.0162145
0.0154748
0.0145558
0.0135246
0.0124215
0.0113001
0.0101763
0.00908566
0.00803673
0.00705584
0.00613929
0.00529844
0.00451927
0.00380951
0.00315044
0.00254445
0.00196451
0.00140935
0.000850944
0.000290872
-0.192297
-0.205191
-0.211924
-0.213525
-0.212708
-0.211281
-0.209726
-0.207751
-0.204824
-0.200508
-0.194631
-0.187216
-0.178397
-0.168346
-0.157247
-0.145306
-0.132772
-0.119926
-0.107075
-0.0945276
-0.0825659
-0.0714206
-0.0612404
-0.0520649
-0.0438261
-0.03636
-0.0294549
-0.0229326
-0.0167104
-0.0108152
-0.00535515
-0.00045116
0.00381118
0.00738349
0.0102416
0.0123992
0.0139001
0.0148222
0.0152472
0.0152642
0.0149483
0.0143815
0.0136214
0.0127323
0.0117552
0.0107431
0.00971447
0.00870504
0.00772472
0.00680127
0.00593223
0.00513043
0.00438348
0.00370002
0.00306263
0.00247444
0.00191061
0.00137004
0.000827114
0.000282433
-0.176787
-0.188533
-0.194838
-0.196513
-0.195923
-0.19471
-0.193364
-0.191665
-0.189202
-0.185565
-0.180594
-0.174283
-0.166735
-0.158091
-0.148503
-0.138137
-0.127187
-0.115877
-0.104456
-0.0931778
-0.08228
-0.0719604
-0.0623556
-0.0535238
-0.0454471
-0.0380369
-0.0311614
-0.0246962
-0.0185771
-0.0128165
-0.00749102
-0.00269409
0.00150496
0.00506821
0.00797412
0.0102303
0.0118698
0.0129575
0.0135625
0.0137635
0.0136284
0.0132331
0.0126322
0.0118878
0.0110405
0.0101422
0.0092134
0.00828982
0.00738244
0.00652062
0.00570305
0.00494382
0.00423227
0.00357789
0.00296481
0.00239673
0.0018511
0.00132698
0.000801151
0.00027341
-0.162286
-0.172928
-0.17878
-0.180483
-0.180092
-0.179091
-0.177968
-0.176571
-0.174499
-0.171462
-0.167283
-0.161942
-0.155518
-0.148122
-0.139875
-0.130911
-0.121381
-0.111463
-0.101357
-0.0912681
-0.0813934
-0.0719016
-0.06292
-0.0545213
-0.0467216
-0.039481
-0.0327227
-0.0263685
-0.0203792
-0.0147651
-0.00958015
-0.00489367
-0.000761657
0.00278496
0.00572688
0.00806749
0.00983068
0.01107
0.0118435
0.0122201
0.0122602
0.0120334
0.0115911
0.0109931
0.0102784
0.00949734
0.00867219
0.00783745
0.00700885
0.00621269
0.00545054
0.00473743
0.00406457
0.00344222
0.00285618
0.00231067
0.00178549
0.00127981
0.000772828
0.000263705
-0.148761
-0.158328
-0.163725
-0.165429
-0.16521
-0.164404
-0.163481
-0.162338
-0.160656
-0.158154
-0.15467
-0.150184
-0.14475
-0.138453
-0.131392
-0.123673
-0.115414
-0.106753
-0.0978497
-0.0888682
-0.0799701
-0.0713005
-0.0629777
-0.0550801
-0.0476423
-0.0406568
-0.0340907
-0.0279061
-0.0220848
-0.0166363
-0.0115999
-0.00702829
-0.00296914
0.000550872
0.00351484
0.00592397
0.00779456
0.00917021
0.0100994
0.0106416
0.0108499
0.0107875
0.0105023
0.0100507
0.00946991
0.00880895
0.00809085
0.00735071
0.0066032
0.00587665
0.00517363
0.00451019
0.00387939
0.00329209
0.00273597
0.00221562
0.00171325
0.00122817
0.000741906
0.000253218
-0.136118
-0.144706
-0.149665
-0.151346
-0.151273
-0.150643
-0.149905
-0.148999
-0.147646
-0.145613
-0.142741
-0.139004
-0.134435
-0.129103
-0.123087
-0.11647
-0.109343
-0.101814
-0.094006
-0.0860503
-0.0780801
-0.0702189
-0.0625729
-0.0552191
-0.0482035
-0.0415437
-0.0352395
-0.0292802
-0.0236623
-0.0183983
-0.0135217
-0.0090752
-0.00509994
-0.00161929
0.0013517
0.00381287
0.00577419
0.00727025
0.00834088
0.00903737
0.00940532
0.0095017
0.00937036
0.00906378
0.00861746
0.00807836
0.00746995
0.00682741
0.00616534
0.00551188
0.00487144
0.00426113
0.00367578
0.00312666
0.00260341
0.00211094
0.00163387
0.00117169
0.000708153
0.000241851
-0.124365
-0.132054
-0.136589
-0.138224
-0.13827
-0.137794
-0.137224
-0.136529
-0.135478
-0.133837
-0.131492
-0.128401
-0.124583
-0.120093
-0.114994
-0.109349
-0.103227
-0.0967116
-0.0898973
-0.0828885
-0.0757934
-0.0687153
-0.061747
-0.0549621
-0.0484146
-0.0421381
-0.0361513
-0.0304616
-0.0250791
-0.0200221
-0.015322
-0.0110151
-0.00713714
-0.00370964
-0.000747162
0.00174889
0.00378341
0.00538309
0.0065799
0.00741765
0.00793526
0.00818314
0.00820066
0.0080366
0.0077242
0.00730774
0.00681072
0.00626796
0.00569461
0.00511778
0.00454334
0.0039895
0.00345295
0.00294517
0.0024578
0.00199603
0.00154685
0.00110999
0.000671341
0.000229508
-0.113492
-0.12034
-0.124462
-0.126033
-0.126174
-0.125832
-0.125405
-0.124887
-0.124082
-0.122794
-0.120904
-0.118367
-0.115199
-0.111443
-0.107145
-0.102353
-0.0971202
-0.0915093
-0.0855934
-0.0794534
-0.0731761
-0.0668467
-0.060546
-0.0543429
-0.048294
-0.04244
-0.0368107
-0.0314273
-0.026311
-0.021485
-0.01698
-0.0128283
-0.0090624
-0.00570326
-0.00276597
-0.000253104
0.0018363
0.00352204
0.00482894
0.0057938
0.00644937
0.00683995
0.00700004
0.0069742
0.00679362
0.00649978
0.0061152
0.00567364
0.00519118
0.00469399
0.00418887
0.00369474
0.00321025
0.00274697
0.00229849
0.00187032
0.00145171
0.00104273
0.000631251
0.0002161
-0.10344
-0.109515
-0.113244
-0.114741
-0.114957
-0.114728
-0.114424
-0.114056
-0.113462
-0.112463
-0.110958
-0.108898
-0.106293
-0.103172
-0.0995702
-0.0955239
-0.0910741
-0.0862676
-0.0811593
-0.0758112
-0.070292
-0.0646717
-0.0590198
-0.0533983
-0.0478619
-0.042454
-0.0372116
-0.0321645
-0.0273411
-0.022768
-0.0184761
-0.0144958
-0.0108583
-0.00758406
-0.00468941
-0.00217826
-5.27674e-05
0.00170086
0.00310093
0.0041778
0.0049584
0.00548118
0.00577612
0.00588317
0.00583061
0.00565738
0.00538531
0.00504626
0.00465637
0.0042408
0.00380787
0.00337651
0.00294722
0.00253155
0.00212498
0.00173334
0.00134805
0.000969575
0.000587687
0.00020155
-0.0941677
-0.0995414
-0.102903
-0.104315
-0.104587
-0.104453
-0.104252
-0.104009
-0.103591
-0.102843
-0.101657
-0.1
-0.0978743
-0.0952973
-0.0922964
-0.0888995
-0.0851366
-0.0810416
-0.0766553
-0.0720247
-0.0672034
-0.062248
-0.0572172
-0.0521651
-0.0471426
-0.0421932
-0.0373568
-0.0326674
-0.0281573
-0.0238556
-0.0197938
-0.0160016
-0.012509
-0.00933685
-0.00650254
-0.00401176
-0.00186936
-6.65282e-05
0.00140916
0.00258198
0.00347358
0.00411691
0.00453722
0.00477028
0.00484149
0.00478577
0.00462397
0.00438714
0.00409126
0.00375885
0.00340093
0.00303492
0.00266365
0.00229856
0.00193683
0.00158467
0.00123548
0.00089023
0.000540462
0.000185785
-0.0856459
-0.0903807
-0.0933962
-0.0947171
-0.0950287
-0.0949709
-0.094855
-0.0947133
-0.0944365
-0.0938894
-0.0929773
-0.0916631
-0.0899432
-0.0878313
-0.0853477
-0.0825133
-0.0793498
-0.0758812
-0.072137
-0.0681524
-0.0639685
-0.0596302
-0.055186
-0.0506824
-0.0461656
-0.0416764
-0.0372548
-0.0329357
-0.0287533
-0.0247379
-0.0209214
-0.0173327
-0.014001
-0.0109476
-0.00819123
-0.00573936
-0.00359923
-0.00176629
-0.000233072
0.00101909
0.00200656
0.00275757
0.00329279
0.00364317
0.00383175
0.00389037
0.00383704
0.00370019
0.00349712
0.00325044
0.00296815
0.00267068
0.00235979
0.00204797
0.00173392
0.00142409
0.00111379
0.000804495
0.000489444
0.000168721
-0.0778316
-0.0819856
-0.0846776
-0.0859041
-0.0862415
-0.0862459
-0.0861986
-0.0861378
-0.0859743
-0.0855911
-0.0849045
-0.0838757
-0.0824987
-0.0807827
-0.0787428
-0.0763937
-0.0737508
-0.0708307
-0.0676544
-0.0642475
-0.0606411
-0.05687
-0.0529735
-0.0489909
-0.0449628
-0.0409264
-0.0369192
-0.0329754
-0.029129
-0.0254106
-0.0218512
-0.0184791
-0.0153231
-0.0124043
-0.00974286
-0.00734799
-0.00522901
-0.00338482
-0.00181252
-0.000498214
0.000569701
0.00141433
0.00205244
0.00251083
0.00280887
0.00297531
0.00302745
0.0029907
0.00287953
0.00271665
0.00251235
0.00228461
0.00203618
0.00177996
0.0015162
0.00125149
0.000982845
0.000712259
0.000434588
0.000150474
-0.0706798
-0.0743102
-0.0767033
-0.0778344
-0.0781865
-0.0782403
-0.078248
-0.0782517
-0.078179
-0.0779291
-0.0774247
-0.0766304
-0.0755386
-0.0741572
-0.072496
-0.0705639
-0.068371
-0.0659287
-0.0632516
-0.0603577
-0.0572704
-0.0540159
-0.0506254
-0.0471313
-0.0435683
-0.0399693
-0.0363685
-0.0327978
-0.0292898
-0.0258738
-0.0225799
-0.0194351
-0.0164672
-0.0136975
-0.0111469
-0.00882613
-0.00674648
-0.00490968
-0.00331631
-0.00195733
-0.000825251
9.89484e-05
0.000827147
0.00138218
0.00178159
0.0020493
0.00219979
0.00225842
0.00223974
0.00216321
0.00203717
0.00187857
0.00169336
0.00149483
0.0012837
0.00106671
0.000842357
0.000613196
0.000375554
0.000130478
-0.0641512
-0.067311
-0.069429
-0.0704654
-0.0708233
-0.0709154
-0.0709662
-0.0710192
-0.071016
-0.0708704
-0.0705152
-0.0699153
-0.0690634
-0.0679626
-0.0666205
-0.0650431
-0.0632367
-0.061208
-0.058967
-0.0565257
-0.0539011
-0.0511127
-0.0481849
-0.0451433
-0.0420172
-0.0388344
-0.0356256
-0.0324193
-0.0292461
-0.0261332
-0.0231089
-0.0201985
-0.0174288
-0.0148204
-0.0123949
-0.0101642
-0.00814089
-0.00632933
-0.00473304
-0.00334644
-0.00216648
-0.00117807
-0.000372445
0.000268044
0.000757977
0.00111992
0.00136495
0.00151242
0.00157983
0.0015868
0.00153896
0.00145326
0.00133424
0.00119513
0.00103885
0.000871628
0.000693901
0.000508493
0.000313305
0.000110292
-0.0582069
-0.0609447
-0.0628103
-0.0637544
-0.0641108
-0.0642321
-0.0643162
-0.0644063
-0.0644562
-0.0643927
-0.0641568
-0.0637162
-0.0630621
-0.0621955
-0.0611214
-0.0598444
-0.0583679
-0.0566953
-0.0548327
-0.052788
-0.0505728
-0.0482012
-0.0456919
-0.0430648
-0.040344
-0.0375525
-0.0347164
-0.0318607
-0.0290133
-0.0261991
-0.0234442
-0.0207717
-0.0182069
-0.0157696
-0.0134813
-0.0113545
-0.00940329
-0.00763376
-0.00605165
-0.00465497
-0.00344359
-0.00240568
-0.00153727
-0.000823576
-0.000252136
0.00019389
0.00052517
0.000762609
0.000914349
0.000995739
0.00102112
0.00100428
0.000953852
0.000877069
0.000777233
0.000662979
0.000534472
0.000395982
0.000245785
8.60458e-05
-0.0528073
-0.0551681
-0.0568039
-0.0576593
-0.0580091
-0.0581524
-0.0582621
-0.05838
-0.0584696
-0.0584693
-0.0583278
-0.0580156
-0.0575236
-0.0568508
-0.0560009
-0.0549768
-0.0537803
-0.0524123
-0.0508761
-0.0491762
-0.0473205
-0.0453184
-0.043184
-0.0409324
-0.038583
-0.0361542
-0.0336681
-0.0311454
-0.0286108
-0.0260867
-0.0235968
-0.0211619
-0.0188053
-0.0165455
-0.0144036
-0.0123925
-0.0105267
-0.0088141
-0.00726235
-0.00587149
-0.00464501
-0.00357413
-0.00265643
-0.0018824
-0.00124277
-0.000720987
-0.000310091
3.35346e-06
0.000238028
0.000407235
0.00051169
0.000569163
0.000574943
0.000554498
0.000512354
0.000450166
0.00037225
0.000281102
0.000178356
6.67133e-05
-0.0479155
-0.0499411
-0.0513685
-0.0521396
-0.052479
-0.0526381
-0.0527669
-0.0529046
-0.0530228
-0.0530701
-0.0530024
-0.0527946
-0.0524332
-0.0519198
-0.0512562
-0.050444
-0.0494837
-0.0483746
-0.0471182
-0.0457161
-0.0441733
-0.0424959
-0.0406945
-0.0387797
-0.0367666
-0.0346697
-0.0325075
-0.030297
-0.0280591
-0.0258133
-0.0235807
-0.0213798
-0.0192318
-0.0171534
-0.0151649
-0.0132786
-0.0115098
-0.00986706
-0.00835932
-0.00698904
-0.00576213
-0.00467191
-0.00371988
-0.00289923
-0.00220106
-0.00161454
-0.00113592
-0.00074999
-0.000451613
-0.00022545
-6.0403e-05
5.33203e-05
0.000147764
0.000202889
0.000220928
0.000217166
0.0001933
0.000154465
0.000100302
3.5032e-05
-0.0434969
-0.0452254
-0.0464649
-0.047157
-0.0474836
-0.0476541
-0.047797
-0.0479485
-0.0480869
-0.0481695
-0.0481583
-0.0480289
-0.0477738
-0.0473915
-0.0468829
-0.0462475
-0.0454854
-0.0445952
-0.0435769
-0.0424301
-0.0411578
-0.039764
-0.038256
-0.0366406
-0.0349292
-0.0331326
-0.0312661
-0.0293435
-0.0273823
-0.0253987
-0.0234113
-0.0214365
-0.0194932
-0.0175961
-0.0157642
-0.0140093
-0.0123464
-0.0107847
-0.00933416
-0.00799827
-0.00678484
-0.00569
-0.00471593
-0.00385958
-0.00311503
-0.00247227
-0.00192748
-0.00147228
-0.00109134
-0.000776361
-0.000526446
-0.000319486
-0.000205094
-0.000120875
-4.81239e-05
-9.88643e-07
2.65304e-05
3.75739e-05
3.4861e-05
2.1234e-05
-0.0395182
-0.0409842
-0.0420548
-0.0426733
-0.0429852
-0.0431634
-0.0433163
-0.0434766
-0.0436278
-0.0437345
-0.0437655
-0.0437002
-0.0435311
-0.0432559
-0.0428742
-0.0423848
-0.0417876
-0.0410807
-0.0402629
-0.0393328
-0.0382921
-0.0371424
-0.0358888
-0.0345357
-0.0330916
-0.0315645
-0.0299668
-0.0283089
-0.0266048
-0.0248677
-0.0231133
-0.0213556
-0.0196117
-0.017894
-0.0162201
-0.0146009
-0.0130508
-0.0115796
-0.0101972
-0.00890806
-0.00772193
-0.00663553
-0.0056542
-0.00477785
-0.00400123