/*--------------------------------*- C++ -*----------------------------------*\
| =========                 |                                                 |
| \\      /  F ield         | OpenFOAM: The Open Source CFD Toolbox           |
|  \\    /   O peration     | Version:  2512                                  |
|   \\  /    A nd           | Website:  www.openfoam.com                      |
|    \\/     M anipulation  |                                                 |
\*---------------------------------------------------------------------------*/
FoamFile
{
    version     2.0;
    format      ascii;
    arch        "LSB;label=32;scalar=64";
    class       surfaceScalarField;
    location    "150.6";
    object      phi;
}
// * * * * * * * * * * * * * * * * * * * * * * * * * * * * * * * * * * * * * //

dimensions      [0 3 -1 0 0 0 0];

oriented        oriented;

internalField   nonuniform List<scalar> 
26232
(
0.000215925
0.00118949
-0.00140541
0.0006999
0.00188471
-0.00236868
0.00158988
0.00116908
-0.00205906
0.00316593
-0.000851229
-0.000724813
0.00576711
-0.00419936
0.00159818
0.00973358
-0.00896434
0.00499788
0.0153546
-0.0152194
0.00959838
0.0227889
-0.0229029
0.0154685
0.0319848
-0.0317501
0.0225542
0.0426419
-0.0412963
0.0306391
0.0542439
-0.0509536
0.0393516
0.0661504
-0.0601261
0.0482196
0.0777198
-0.0683188
0.0567494
0.0884218
-0.0752112
0.0645091
0.0979148
-0.0806829
0.07119
0.106079
-0.0848003
0.0766358
0.113
-0.0877628
0.0808421
0.118918
-0.0898518
0.0839333
0.124182
-0.0913551
0.0860914
0.129134
-0.0925594
0.0876071
0.134115
-0.0936256
0.0886452
0.139445
-0.094812
0.0894817
0.145115
-0.0961006
0.0904304
-0.0975379
0.0911806
0.151473
0.00024605
0.000943439
0.000975114
0.00115564
0.00238012
-0.000235927
0.00479692
-0.00326803
0.00860413
-0.00800657
0.0141639
-0.0145242
0.0216844
-0.0227398
0.0310973
-0.0323158
0.0420039
-0.0426567
0.0537323
-0.0530246
0.0654845
-0.0627058
0.076512
-0.0711536
0.086262
-0.0780688
0.0944594
-0.0834086
0.101119
-0.0873421
0.106488
-0.09017
0.110962
-0.0922367
0.114978
-0.0938679
0.118926
-0.0953026
0.123106
-0.096739
0.127703
-0.0982231
0.132814
-0.0999227
0.138361
-0.101647
-0.10373
0.144553
0.000247143
0.000696296
0.00118947
0.000213316
0.00314633
-0.00219279
0.00651332
-0.00663501
0.011713
-0.0132063
0.0190129
-0.021824
0.0283459
-0.0320727
0.0392229
-0.0431928
0.0508202
-0.054254
0.0621961
-0.0644005
0.0725295
-0.0730392
0.0812946
-0.0799187
0.0883295
-0.0851037
0.0938027
-0.0888819
0.0981051
-0.0916445
0.101711
-0.0937762
0.105062
-0.0955876
0.108479
-0.0972843
0.112161
-0.0989855
0.116178
-0.100755
0.120551
-0.102596
0.125219
-0.104591
0.130183
-0.106612
-0.108946
0.135399
0.000274933
0.000421362
0.00150435
-0.0010161
0.00413485
-0.00482329
0.00864177
-0.0111419
0.015374
-0.0199385
0.0243071
-0.0307572
0.0348972
-0.0426628
0.0461861
-0.0544817
0.0571012
-0.0651692
0.066769
-0.0740683
0.0747105
-0.0809807
0.0808782
-0.0860865
0.0855629
-0.0897883
0.089229
-0.092548
0.0923502
-0.0947658
0.0953002
-0.0967262
0.0983101
-0.0985974
0.101493
-0.100467
0.104885
-0.102378
0.10849
-0.10436
0.112319
-0.106425
0.116371
-0.108643
0.120675
-0.110916
-0.11351
0.125239
0.000366207
5.51554e-05
0.00201216
-0.00266205
0.00549704
-0.00830817
0.0112825
-0.0169274
0.0194583
-0.0281143
0.029498
-0.0407969
0.0403422
-0.053507
0.0507871
-0.0649267
0.0598937
-0.0742758
0.0672088
-0.0813834
0.0727631
-0.086535
0.0769157
-0.0902391
0.0801479
-0.0930205
0.0828956
-0.0952957
0.0854676
-0.0973378
0.0880418
-0.0993004
0.0907074
-0.101263
0.0935092
-0.103269
0.096478
-0.105347
0.0996393
-0.107521
0.103022
-0.109808
0.106617
-0.112238
0.110446
-0.114746
-0.117544
0.11448
0.000528949
-0.000473794
0.00273271
-0.00486581
0.00720687
-0.0127823
0.0142358
-0.0239563
0.0234313
-0.0373098
0.033702
-0.0510676
0.0437069
-0.0635119
0.0523967
-0.0736165
0.0592896
-0.0811687
0.06444
-0.0865338
0.0682302
-0.0903252
0.0711348
-0.0931437
0.073559
-0.0954447
0.0757798
-0.0975164
0.0779599
-0.099518
0.0801902
-0.101531
0.0825235
-0.103596
0.0849933
-0.105739
0.0876197
-0.107973
0.090409
-0.11031
0.093361
-0.11276
0.0964535
-0.11533
0.099709
-0.118001
-0.120891
0.103056
0.00075257
-0.00122636
0.00361703
-0.00773028
0.00909902
-0.0182643
0.0170936
-0.0319508
0.0266127
-0.0468289
0.0361935
-0.0606484
0.0446096
-0.071928
0.0512675
-0.0802745
0.0561811
-0.0860823
0.0597226
-0.0900753
0.0623595
-0.092962
0.0644885
-0.0952728
0.0663824
-0.0973386
0.0682046
-0.0993386
0.070046
-0.101359
0.0719554
-0.10344
0.0739571
-0.105598
0.0760626
-0.107844
0.0782764
-0.110187
0.0806021
-0.112636
0.0830424
-0.1152
0.0855958
-0.117884
0.0882753
-0.120681
-0.123652
0.0910361
0.00101915
-0.00224551
0.00458142
-0.0112925
0.0109337
-0.0246166
0.0194004
-0.0404175
0.0284883
-0.0559169
0.036731
-0.0688911
0.0433164
-0.0785133
0.048139
-0.0850971
0.0515292
-0.0894725
0.0539522
-0.0924983
0.055817
-0.0948268
0.0574088
-0.0968646
0.0588977
-0.0988275
0.0603739
-0.100815
0.0618813
-0.102867
0.063441
-0.105
0.0650653
-0.107222
0.0667643
-0.109543
0.0685483
-0.111971
0.0704247
-0.114512
0.0723952
-0.117171
0.0744529
-0.119941
0.0765982
-0.122826
-0.125837
0.078783
0.00130827
-0.00355379
0.00552503
-0.0155093
0.0124547
-0.0315463
0.020808
-0.0487708
0.0288815
-0.0639903
0.0355217
-0.0755313
0.0403961
-0.0833877
0.0437424
-0.0884433
0.0460174
-0.0917475
0.0476551
-0.094136
0.0489665
-0.0961382
0.0501364
-0.0980344
0.0512599
-0.0999511
0.0523824
-0.101937
0.0535263
-0.104011
0.0547061
-0.10618
0.0559332
-0.10845
0.0572167
-0.110827
0.058562
-0.113316
0.0599705
-0.115921
0.0614392
-0.118639
0.0629661
-0.121468
0.0645498
-0.12441
-0.127456
0.0661691
0.00159581
-0.00514959
0.00633809
-0.0202516
0.0134485
-0.0386567
0.0211703
-0.0564927
0.0279174
-0.0707374
0.0329795
-0.0805934
0.036408
-0.0868163
0.0386201
-0.0906554
0.0400777
-0.0932051
0.0411315
-0.0951898
0.0419945
-0.0970012
0.0427768
-0.0988168
0.0435303
-0.100705
0.0442803
-0.102687
0.0450411
-0.104772
0.0458227
-0.106961
0.0466326
-0.109259
0.0474771
-0.111671
0.0483608
-0.1142
0.0492868
-0.116847
0.0502556
-0.119608
0.0512668
-0.12248
0.0523169
-0.12546
-0.128537
0.0533977
0.00185475
-0.00700434
0.00691882
-0.0253157
0.0137971
-0.0455349
0.0205367
-0.0632323
0.0258793
-0.0760799
0.029532
-0.0842461
0.0317943
-0.0890786
0.0331397
-0.0920008
0.0339706
-0.094036
0.0345454
-0.0957646
0.0350007
-0.0974565
0.0354005
-0.0992166
0.0357736
-0.101078
0.0361345
-0.103048
0.0364924
-0.105129
0.0368549
-0.107324
0.0372289
-0.109634
0.0376211
-0.112063
0.038036
-0.114615
0.0384758
-0.117287
0.0389397
-0.120072
0.0394256
-0.122966
0.0399281
-0.125962
-0.129056
0.0404466
0.00206204
-0.00906638
0.00720114
-0.0304548
0.0135024
-0.0518361
0.0190858
-0.0688157
0.0230905
-0.0800847
0.0255455
-0.0867011
0.0268774
-0.0904105
0.0275388
-0.0926622
0.0278514
-0.0943486
0.0279945
-0.0959076
0.0280523
-0.0975143
0.0280613
-0.0992255
0.0280378
-0.101054
0.0279914
-0.103002
0.0279295
-0.105068
0.0278583
-0.107252
0.0277836
-0.109559
0.0277101
-0.11199
0.0276413
-0.114546
0.0275796
-0.117225
0.027527
-0.12002
0.0274843
-0.122923
0.0274478
-0.125926
0.0274232
-0.129031
-2.10776e-05
-0.00602102
0.0060421
-0.000521473
-0.0148762
0.0153766
-0.00171482
-0.0207733
0.0219667
-0.00353
-0.0243828
0.026198
-0.00578097
-0.0267549
0.0290058
-0.0082754
-0.0287787
0.0312731
-0.010864
-0.0309239
0.0335126
-0.0134333
-0.0332889
0.0358581
-0.0158747
-0.0357649
0.0382063
-0.0180629
-0.0381625
0.0403507
-0.0198503
-0.0402665
0.0420539
-0.0210742
-0.0418528
0.0430766
-0.0215685
-0.042699
0.0431933
-0.0211797
-0.0425989
0.0422101
-0.0197991
-0.0413745
0.0399939
-0.017348
-0.0388918
0.0364407
-0.0138162
-0.0350698
0.0315381
-0.00925748
-0.0298781
0.0253193
-0.00378167
-0.0233143
0.0178385
0.00243506
-0.0153672
0.00915047
0.00916219
-0.00602619
-0.000700938
0.016407
0.00444285
-0.0116877
0.0242898
0.0162671
-0.0241499
0.0294189
0.033001
-0.0381302
-0.000412453
-0.00560857
-0.00166188
-0.0136268
-0.00369463
-0.0187406
-0.00634907
-0.0217284
-0.0094438
-0.0236601
-0.0128408
-0.0253817
-0.0164506
-0.0273142
-0.0202027
-0.0295368
-0.0240142
-0.0319534
-0.0277717
-0.034405
-0.0313279
-0.0367103
-0.0345067
-0.0386739
-0.0371146
-0.0400911
-0.0389566
-0.0407568
-0.0398537
-0.0404774
-0.0396595
-0.039086
-0.03828
-0.0364493
-0.0356841
-0.032474
-0.0318976
-0.0271008
-0.0269655
-0.0202994
-0.0209322
-0.0120595
-0.0141475
-0.00234189
-0.00616677
0.00828644
0.0203701
0.00288202
-0.000752551
-0.00485602
-0.00260003
-0.0117793
-0.00526499
-0.0160756
-0.00851223
-0.0184811
-0.012179
-0.0199934
-0.0161789
-0.0213817
-0.0204724
-0.0230207
-0.0250272
-0.024982
-0.0297892
-0.0271914
-0.034669
-0.0295252
-0.0395386
-0.0318407
-0.044233
-0.0339795
-0.0485573
-0.0357669
-0.0522968
-0.0370173
-0.0552316
-0.0375426
-0.0571543
-0.0371633
-0.0578847
-0.0357189
-0.0572829
-0.0330759
-0.055253
-0.0291306
-0.0517396
-0.0238127
-0.0467077
-0.0170914
-0.040099
-0.00895061
-0.0322874
0.000474892
0.011017
-0.0229343
-0.00100468
-0.00385133
-0.00326602
-0.00951796
-0.00633339
-0.0130082
-0.00991949
-0.014895
-0.0138749
-0.016038
-0.0181455
-0.0171112
-0.0227195
-0.0184466
-0.0275857
-0.0201158
-0.0327104
-0.0220667
-0.0380293
-0.0242062
-0.0434452
-0.0264249
-0.048827
-0.0285976
-0.0540119
-0.0305821
-0.0588085
-0.0322207
-0.0630043
-0.0333468
-0.0663755
-0.0337921
-0.068698
-0.0333963
-0.0697578
-0.0320161
-0.0693575
-0.029531
-0.0673247
-0.0258455
-0.0635288
-0.0208873
-0.0578699
-0.0146095
-0.0504798
-0.00691515
0.00202178
-0.0414846
-0.00114807
-0.00270326
-0.00362643
-0.0070396
-0.0068714
-0.00976327
-0.0105596
-0.0112068
-0.0145449
-0.0120527
-0.018785
-0.0128711
-0.0232736
-0.013958
-0.027998
-0.0153914
-0.0329217
-0.017143
-0.0379824
-0.0191456
-0.0430929
-0.0213143
-0.0481446
-0.023546
-0.0530085
-0.0257181
-0.0575381
-0.0276912
-0.0615709
-0.029314
-0.0649293
-0.0304337
-0.0674234
-0.0309023
-0.0688513
-0.0305882
-0.0690029
-0.0293794
-0.0676535
-0.0271949
-0.0645628
-0.023978
-0.0595659
-0.0196064
-0.0526339
-0.0138472
-0.0072917
-0.0433204
-0.00117527
-0.00152799
-0.00367397
-0.00454089
-0.00688171
-0.00655553
-0.0104526
-0.00763595
-0.014234
-0.00827121
-0.0181794
-0.00892577
-0.0222721
-0.0098652
-0.026483
-0.0111805
-0.0307555
-0.0128705
-0.0350067
-0.0148944
-0.0391325
-0.0171885
-0.0430141
-0.0196644
-0.0465246
-0.0222076
-0.0495347
-0.024681
-0.0519181
-0.0269306
-0.053552
-0.0287998
-0.0543118
-0.0301424
-0.0540674
-0.0308326
-0.0526758
-0.0307709
-0.0499883
-0.0298824
-0.0458501
-0.0281162
-0.0396236
-0.025833
-0.0319376
-0.0215332
-0.0184537
-0.0207756
-0.00108794
-0.000440055
-0.00341577
-0.00221306
-0.00637795
-0.00359334
-0.00961716
-0.00439674
-0.0129648
-0.00492358
-0.0163547
-0.00553585
-0.0197471
-0.00647278
-0.0230858
-0.00784188
-0.0262851
-0.00967114
-0.0292331
-0.0119464
-0.0317992
-0.0146225
-0.0338449
-0.0176187
-0.035234
-0.0208186
-0.0358407
-0.0240742
-0.0355594
-0.0272119
-0.0343006
-0.0300586
-0.0319886
-0.0324544
-0.0285492
-0.0342721
-0.0239182
-0.0354019
-0.0179399
-0.0358607
-0.0106945
-0.0353616
-0.00178704
-0.0347404
0.00907691
-0.0323971
-0.031888
0.0225112
-0.000899641
0.000459585
-0.00287765
-0.000235056
-0.00539176
-0.00107923
-0.00808075
-0.00170776
-0.0107514
-0.00225294
-0.0133002
-0.00298704
-0.0156486
-0.00412442
-0.0177014
-0.00578905
-0.0193363
-0.0080362
-0.0204106
-0.0108721
-0.02077
-0.0142631
-0.0202678
-0.0181209
-0.0187796
-0.0223068
-0.0161979
-0.0266559
-0.012465
-0.0309449
-0.00755298
-0.0349706
-0.0014596
-0.0385478
0.00580551
-0.0415372
0.0142451
-0.0438415
0.023919
-0.0455346
0.0347661
-0.0462087
0.0473101
-0.0472844
0.0607116
-0.0457986
-0.0481545
0.0769781
-0.00063922
0.00109881
-0.00212606
0.00125178
-0.00401482
0.000809531
-0.00595042
0.000227846
-0.0077205
-0.000482867
-0.00916445
-0.00154309
-0.0101543
-0.00313453
-0.01055
-0.00539338
-0.0101915
-0.00839466
-0.00892406
-0.0121396
-0.00658212
-0.0166051
-0.00304028
-0.0216627
0.00178363
-0.0271307
0.00788792
-0.0327602
0.0152488
-0.0383058
0.0237983
-0.0435201
0.0334336
-0.048183
0.0440567
-0.0521604
0.0555958
-0.0553805
0.067951
-0.0578899
0.0812436
-0.0595013
0.0952482
-0.061289
0.110423
-0.0609737
-0.0638724
0.126141
-0.000344329
0.00144313
-0.00125455
0.002162
-0.00240691
0.0019619
-0.00348199
0.00130292
-0.00419546
0.000230606
-0.00436759
-0.00137096
-0.00381781
-0.00368431
-0.00236672
-0.00684446
0.000161265
-0.0109226
0.00395212
-0.0159304
0.00909804
-0.021751
0.0156435
-0.0282082
0.0235474
-0.0350346
0.0326973
-0.0419101
0.0429041
-0.0485125
0.053948
-0.054564
0.0656091
-0.0598441
0.0777045
-0.0642558
0.0900902
-0.0677662
0.102614
-0.0704135
0.115492
-0.0723792
0.128066
-0.0738637
0.141668
-0.0745752
-0.0765085
0.154304
-7.87088e-05
0.00152184
-0.000421626
0.00250492
-0.0008161
0.00235637
-0.000966737
0.00145356
-0.000597651
-0.000138481
0.000547727
-0.00251634
0.00269727
-0.00583386
0.00605482
-0.010202
0.0107971
-0.0156649
0.0170228
-0.0221562
0.0247494
-0.0294776
0.0338601
-0.0373188
0.0441182
-0.0452927
0.0552033
-0.0529953
0.0667577
-0.0600669
0.0784362
-0.0662425
0.0899551
-0.071363
0.10112
-0.0754208
0.111804
-0.0784499
0.122024
-0.0806339
0.131827
-0.0821819
0.1411
-0.083137
0.150569
-0.0840439
-0.0846794
0.15874
0.000116429
0.000252666
0.000549973
0.00127872
0.00273841
0.00521995
0.00898448
0.014251
0.0211403
0.0296232
0.0394973
0.0503981
0.0618548
0.0733686
0.0844917
0.094885
0.104364
0.112877
0.120518
0.127491
0.133955
0.140299
0.146686
0.153187
0.0439305
0.0642206
-0.07515
0.0546101
0.0928638
-0.103543
0.0656105
0.118104
-0.129104
0.0757829
0.1375
-0.147672
0.0844795
0.149732
-0.158428
0.0913259
0.154853
-0.1617
0.0944894
0.156299
-0.159463
0.0927285
0.159707
-0.157946
0.0888203
0.166033
-0.162125
0.0886484
0.166786
-0.166614
0.096064
0.149701
-0.157117
0.108976
0.110359
-0.123271
0.12316
0.0526647
-0.0668485
0.136614
-0.0171122
0.00365814
0.148233
-0.0881076
0.0764881
0.1568
-0.145056
0.136489
0.161723
-0.178214
0.173291
0.162934
-0.189998
0.188787
0.161515
-0.191551
0.192971
0.15954
-0.189696
0.191671
0.157113
-0.186439
0.188865
0.152116
-0.190417
0.195414
0.143812
-0.207892
0.216197
0.134217
-0.223954
0.23355
0.126387
-0.209184
0.217014
0.122642
-0.146687
0.150432
0.124196
-0.0461852
0.0446309
0.12969
0.0632505
-0.0687444
0.137935
0.149528
-0.157774
0.146729
0.19794
-0.206733
0.153209
0.220423
-0.226904
0.154757
0.239219
-0.240768
0.150204
0.2633
-0.258746
0.140778
0.282496
-0.27307
0.13002
0.27098
-0.260223
0.121942
0.206785
-0.198707
0.1193
0.0902082
-0.0875671
0.122825
-0.0462822
0.0427576
0.130608
-0.15805
0.150267
0.136221
-0.22279
0.217177
0.13386
-0.254971
0.257333
0.125249
-0.279155
0.287766
0.117021
-0.274152
0.28238
0.114083
-0.217006
0.219944
0.117439
-0.106335
0.10298
0.12286
0.0273
-0.0327209
0.124964
0.149064
-0.151167
0.123155
0.261655
-0.259847
0.120613
0.309493
-0.306951
0.119451
0.288509
-0.287346
0.119077
0.175271
-0.174898
0.118296
-0.0105689
0.0113502
0.115396
-0.171903
0.174803
0.112455
-0.331409
0.33435
0.111112
-0.319434
0.320777
0.108672
-0.171859
0.1743
0.104491
0.0147347
-0.0105535
0.100778
0.314716
-0.311004
0.0971621
0.276773
-0.273157
0.0298873
-0.0253229
0.0185688
0.0485338
0.0340556
0.077377
0.0501402
0.102019
0.0651608
0.122479
0.0783534
0.136539
0.088093
0.145114
0.0928408
0.151551
0.0936975
0.15885
0.0950781
0.164652
0.101884
0.15998
0.114769
0.136816
0.129496
0.0956326
0.142464
0.0396968
0.15317
-0.027819
0.161211
-0.0961485
0.165576
-0.149421
0.166297
-0.178935
0.164125
-0.187826
0.159994
-0.18742
0.155726
-0.185428
0.151524
-0.182237
0.144768
-0.183661
0.134394
-0.197518
0.123228
-0.212788
0.11526
-0.201216
0.112689
-0.144116
0.116116
-0.0496124
0.124445
0.0549219
0.135572
0.138401
0.147016
0.186496
0.155978
0.211461
0.159951
0.235247
0.157677
0.265574
0.150038
0.290135
0.14009
0.280929
0.131597
0.215278
0.126758
0.0950463
0.126848
-0.0463721
0.13156
-0.162762
0.135891
-0.22712
0.132985
-0.252065
0.123728
-0.269897
0.115635
-0.26606
0.113559
-0.214931
0.117677
-0.110453
0.123307
0.0216702
0.125899
0.146472
0.124891
0.262663
0.122579
0.311805
0.121362
0.289725
0.120471
0.176163
0.119159
-0.00925688
0.115295
-0.168039
0.111252
-0.327366
0.110371
-0.318554
0.108209
-0.169696
0.10563
0.0173135
0.102997
0.317349
0.0978308
0.281939
0.0355189
-0.00477836
0.0303778
0.0153389
0.0572597
0.0351689
0.0821893
0.0538472
0.103801
0.0698855
0.120501
0.0816563
0.133343
0.0890769
0.144131
0.0946363
0.153291
0.102583
0.156705
0.115839
0.146724
0.132588
0.120067
0.147997
0.0802228
0.159459
0.0282354
0.167556
-0.0359158
0.172416
-0.101009
0.173027
-0.150031
0.169887
-0.175796
0.164743
-0.182681
0.158415
-0.181093
0.152125
-0.179138
0.146495
-0.176607
0.138783
-0.175949
0.126955
-0.185691
0.114117
-0.19995
0.105577
-0.192676
0.10402
-0.142559
0.109292
-0.0548846
0.119886
0.0443279
0.133435
0.124853
0.14735
0.17258
0.158889
0.199923
0.165602
0.228533
0.166056
0.26512
0.160621
0.29557
0.151677
0.289872
0.142688
0.224268
0.135608
0.102126
0.132107
-0.0428707
0.133286
-0.163942
0.136103
-0.229937
0.132927
-0.248889
0.123087
-0.260058
0.114697
-0.257669
0.113146
-0.213379
0.118009
-0.115316
0.124119
0.0155601
0.127402
0.143189
0.127205
0.262859
0.125006
0.314005
0.123609
0.291121
0.12226
0.177512
0.120548
-0.00754415
0.115834
-0.163326
0.11061
-0.322141
0.110107
-0.318051
0.108329
-0.167918
0.107316
0.0183262
0.105781
0.318884
0.0992593
0.288461
0.0421855
-0.0230068
0.0119
-0.00268134
0.0369342
0.0189745
0.0605335
0.0396591
0.0831161
0.0579388
0.102221
0.0727736
0.118508
0.0848486
0.132056
0.096545
0.141594
0.110933
0.142317
0.129027
0.12863
0.147752
0.101342
0.163
0.0649741
0.173619
0.0176167
0.180107
-0.0424034
0.182139
-0.103041
0.179193
-0.147086
0.172547
-0.16915
0.164701
-0.174835
0.156626
-0.173018
0.148726
-0.171238
0.141769
-0.16965
0.133663
-0.167843
0.121425
-0.173452
0.107344
-0.185869
0.0977403
-0.183072
0.0964385
-0.141257
0.102987
-0.0614328
0.115499
0.0318158
0.131118
0.109234
0.147221
0.156476
0.161342
0.185802
0.17123
0.218645
0.174975
0.261376
0.17204
0.298505
0.164134
0.297778
0.154599
0.233804
0.145458
0.111267
0.138539
-0.0359525
0.13588
-0.161282
0.13676
-0.230818
0.133478
-0.245607
0.123258
-0.249838
0.114252
-0.248663
0.112817
-0.211944
0.118402
-0.120901
0.125232
0.00873025
0.129374
0.139047
0.13
0.262233
0.12783
0.316175
0.126134
0.292817
0.124375
0.17927
0.122425
-0.00559328
0.117017
-0.157918
0.110567
-0.315692
0.110306
-0.31779
0.10899
-0.166602
0.109524
0.017792
0.10911
0.319298
0.101432
0.296139
0.0498227
-0.0290703
-0.00235006
-0.011084
0.0189479
0.00801624
0.0414332
0.0289652
0.0621671
0.0489198
0.0822666
0.0673287
0.100099
0.084489
0.114896
0.101811
0.124273
0.12097
0.123158
0.14161
0.107991
0.160461
0.0824909
0.174856
0.0505794
0.184791
0.00768161
0.190103
-0.0477152
0.189609
-0.102547
0.183494
-0.140971
0.173945
-0.159602
0.163924
-0.164813
0.154586
-0.16368
0.145657
-0.162309
0.137737
-0.161729
0.12955
-0.159656
0.117631
-0.161533
0.102867
-0.171105
0.0919235
-0.172129
0.0901338
-0.139468
0.0973879
-0.068687
0.111268
0.0179362
0.128373
0.0921286
0.146164
0.138685
0.162711
0.169255
0.175948
0.205409
0.18343
0.253893
0.183768
0.298166
0.177433
0.304113
0.167181
0.244056
0.155976
0.122472
0.145881
-0.0258572
0.139277
-0.154678
0.137776
-0.229317
0.134447
-0.242278
0.12412
-0.239511
0.114274
-0.238817
0.112526
-0.210196
0.118756
-0.127131
0.126534
0.00095252
0.131746
0.133835
0.133265
0.260713
0.131027
0.318413
0.128896
0.294949
0.126763
0.181403
0.124744
-0.00357398
0.118832
-0.152006
0.111134
-0.307994
0.110978
-0.317634
0.110144
-0.165768
0.112177
0.0157595
0.112945
0.31853
0.104327
0.304757
0.0583433
-0.013423
-0.00970265
-0.00170674
0.00723171
0.0142056
0.0255209
0.0323325
0.0440402
0.051947
0.0626521
0.0721144
0.0799319
0.0923993
0.0946106
0.112987
0.103685
0.134209
0.101936
0.154793
0.0874067
0.17203
0.0652544
0.184865
0.037744
0.193915
-0.00136795
0.197766
-0.051566
0.194765
-0.0995462
0.185906
-0.132112
0.174148
-0.147844
0.162512
-0.153177
0.152296
-0.153464
0.142751
-0.152763
0.134057
-0.153036
0.126008
-0.151608
0.115185
-0.150709
0.100612
-0.156532
0.0883005
-0.159818
0.0852636
-0.136431
0.0924733
-0.0758967
0.107042
0.0033679
0.124989
0.0741815
0.143887
0.119786
0.162467
0.150675
0.179066
0.18881
0.190679
0.242281
0.194556
0.294289
0.190125
0.308544
0.179574
0.254607
0.16656
0.135485
0.153758
-0.0130547
0.143361
-0.144282
0.139033
-0.224989
0.135578
-0.238822
0.125488
-0.229421
0.114718
-0.228047
0.112214
-0.207691
0.118966
-0.133884
0.127901
-0.00798283
0.134354
0.127382
0.136845
0.258222
0.134516
0.320742
0.131852
0.297612
0.129375
0.183881
0.127448
-0.00164743
0.121242
-0.1458
0.112297
-0.299049
0.112097
-0.317434
0.111733
-0.165404
0.115177
0.0123154
0.117217
0.31649
0.107905
0.314068
0.0676414
0.0241399
-0.0113314
0.0301193
0.00125234
0.0395217
0.0161185
0.0527566
0.0308053
0.0691636
0.046245
0.0879812
0.0611143
0.108314
0.0742775
0.129247
0.0827526
0.149794
0.0813881
0.168095
0.0691064
0.18255
0.0507995
0.193586
0.0267076
0.201397
-0.00917875
0.203351
-0.0535202
0.197664
-0.093859
0.186333
-0.120782
0.172985
-0.134496
0.160318
-0.14051
0.14955
-0.142696
0.139887
-0.143101
0.130771
-0.143919
0.122718
-0.143555
0.11336
-0.141351
0.100029
-0.143202
0.0868903
-0.146679
0.0820214
-0.131562
0.0883176
-0.0821929
0.102802
-0.0111164
0.120984
0.0559993
0.140319
0.100451
0.16028
0.130714
0.179924
0.169166
0.195814
0.226391
0.203989
0.286114
0.202421
0.310112
0.192425
0.264604
0.177532
0.150378
0.162036
0.00244169
0.148012
-0.130258
0.140465
-0.217442
0.136656
-0.235013
0.127151
-0.219916
0.115536
-0.216432
0.111845
-0.204001
0.118899
-0.140937
0.129171
-0.0182544
0.137108
0.119445
0.140739
0.254591
0.138301
0.32318
0.135001
0.300913
0.132179
0.186703
0.130476
5.52317e-05
0.124185
-0.139509
0.114021
-0.288885
0.113617
-0.31703
0.113687
-0.165474
0.118427
0.00757504
0.121849
0.313068
0.112116
0.323801
0.0775926
0.0734475
-0.00780072
0.0731237
0.00157612
0.0766195
0.0126227
0.0838516
0.0235732
0.0949134
0.0351832
0.109574
0.0464534
0.127074
0.0567777
0.145953
0.0638742
0.164165
0.0631754
0.179524
0.0537479
0.191558
0.038765
0.201178
0.0170877
0.207264
-0.0152649
0.20648
-0.0527359
0.197962
-0.085341
0.184689
-0.107508
0.170473
-0.12028
0.157433
-0.12747
0.146374
-0.131637
0.136801
-0.133528
0.127712
-0.13483
0.119589
-0.135432
0.111548
-0.13331
0.100353
-0.132006
0.0874682
-0.133795
0.0806688
-0.124762
0.0851519
-0.0866759
0.0985257
-0.0244902
0.116309
0.038216
0.135412
0.0813479
0.156087
0.11004
0.178241
0.147012
0.198159
0.206472
0.210534
0.273739
0.211747
0.308899
0.202625
0.273725
0.187433
0.16557
0.170018
0.0198569
0.152868
-0.113108
0.141954
-0.206528
0.137485
-0.230544
0.128878
-0.211309
0.116668
-0.204222
0.111413
-0.198746
0.118427
-0.14795
0.13017
-0.0299976
0.139778
0.109837
0.144724
0.249645
0.142321
0.325583
0.138357
0.304876
0.135168
0.189892
0.133778
0.00144536
0.127582
-0.133313
0.116251
-0.277553
0.115484
-0.316263
0.11594
-0.16593
0.121822
0.00169371
0.126738
0.308151
0.116884
0.333656
0.0880469
0.121276
-0.00293519
0.118378
0.00447352
0.118397
0.0126034
0.120981
0.0209901
0.126934
0.0292296
0.136256
0.0371318
0.148742
0.0442917
0.163415
0.0492005
0.178035
0.0485558
0.190405
0.041378
0.200327
0.028843
0.207886
0.00952839
0.210932
-0.0183109
0.206574
-0.0483777
0.195484
-0.0742505
0.181094
-0.0931184
0.16671
-0.105896
0.153827
-0.114587
0.142784
-0.120595
0.133382
-0.124126
0.124648
-0.126096
0.116562
-0.127346
0.10936
-0.126109
0.100524
-0.12317
0.0891523
-0.122422
0.0810614
-0.116671
0.0830233
-0.0886378
0.0945835
-0.0360504
0.111286
0.0215133
0.129566
0.0630686
0.149953
0.0896529
0.17356
0.123404
0.197434
0.182599
0.214935
0.256239
0.220097
0.303737
0.212285
0.281537
0.196519
0.181336
0.177111
0.0392648
0.157587
-0.0935838
0.143406
-0.192347
0.13792
-0.225058
0.130443
-0.203832
0.118038
-0.191817
0.11095
-0.191658
0.117431
-0.154431
0.130685
-0.0432514
0.142277
0.0982445
0.148822
0.2431
0.146577
0.327828
0.141901
0.309552
0.138339
0.193454
0.137266
0.00251866
0.131344
-0.127391
0.118911
-0.26512
0.117631
-0.314983
0.118427
-0.166726
0.125276
-0.005155
0.131797
0.301631
0.122127
0.343325
0.0988377
0.151826
-0.00045744
0.150851
0.00544884
0.151631
0.0118232
0.153943
0.0186784
0.158053
0.0251192
0.164183
0.0310017
0.172432
0.0360424
0.182379
0.0392535
0.192494
0.0384409
0.201087
0.032785
0.207822
0.0221081
0.21195
0.00539998
0.210612
-0.0169728
0.202718
-0.0404832
0.190028
-0.0615604
0.175603
-0.0786935
0.161742
-0.0920352
0.149396
-0.102241
0.138633
-0.109832
0.129411
-0.114904
0.121176
-0.117862
0.113423
-0.119592
0.106668
-0.119354
0.0997495
-0.116252
0.0907121
-0.113385
0.0826136
-0.108573
0.0821606
-0.0881848
0.0911909
-0.0450807
0.106011
0.00669292
0.122884
0.046196
0.142311
0.0702254
0.166387
0.0993278
0.192708
0.156278
0.214265
0.234681
0.22369
0.294312
0.218296
0.286931
0.202665
0.196967
0.18309
0.05884
0.161946
-0.0724401
0.144691
-0.175093
0.13778
-0.218147
0.131583
-0.197634
0.11952
-0.179754
0.110501
-0.18264
0.115844
-0.159774
0.130448
-0.057856
0.144188
0.0845054
0.152694
0.234594
0.151068
0.329454
0.145771
0.314848
0.14169
0.197536
0.140954
0.00325456
0.135389
-0.121827
0.121917
-0.251648
0.119977
-0.313043
0.121089
-0.167839
0.128693
-0.0127592
0.136888
0.293436
0.127731
0.352482
0.109768
0.15844
-0.000157346
0.15984
0.00404853
0.162711
0.00895234
0.166846
0.0145439
0.171784
0.0201812
0.177877
0.0249081
0.185077
0.0288432
0.192884
0.0314457
0.200123
0.0312022
0.205741
0.0271671
0.209103
0.0187458
0.208752
0.00575115
0.204025
-0.0122455
0.194457
-0.030915
0.181899
-0.0490025
0.168506
-0.0653009
0.155671
-0.0791998
0.14406
-0.0906303
0.133793
-0.0995643
0.124813
-0.105923
0.117008
-0.110057
0.109833
-0.112417
0.103456
-0.112977
0.0977558
-0.110551
0.0910636
-0.106693
0.0841673
-0.101677
0.0822962
-0.0863137
0.0888222
-0.0516067
0.101483
-0.00596799
0.116268
0.0314107
0.133719
0.052775
0.157002
0.076045
0.185712
0.127569
0.212428
0.207965
0.226417
0.280323
0.223054
0.290294
0.20763
0.212391
0.187289
0.0791809
0.16523
-0.0503811
0.14564
-0.155503
0.136985
-0.209492
0.132079
-0.192728
0.121015
-0.16869
0.110203
-0.171828
0.113612
-0.163182
0.129378
-0.073622
0.145636
0.0682474
0.156405
0.223825
0.155612
0.330247
0.149717
0.320744
0.145171
0.202081
0.144677
0.00374895
0.139622
-0.116772
0.125203
-0.237228
0.122469
-0.31031
0.12387
-0.16924
0.132031
-0.0209204
0.141946
0.283521
0.133604
0.360824
0.120636
0.153078
-4.86055e-05
0.154237
0.00288993
0.156726
0.00646291
0.16071
0.0105601
0.166025
0.0148658
0.172196
0.0187374
0.17893
0.022109
0.185992
0.0243844
0.192344
0.0248501
0.19701
0.022501
0.199287
0.0164686
0.198556
0.00648201
0.193188
-0.0068773
0.184422
-0.0221488
0.173415
-0.0379952
0.161579
-0.0534649
0.149906
-0.0675273
0.139
-0.0797243
0.129239
-0.0898031
0.120581
-0.0972657
0.113055
-0.102531
0.106427
-0.105789
0.100492
-0.107042
0.0954085
-0.105468
0.0903985
-0.101683
0.0852642
-0.0965424
0.0832074
-0.0842568
0.0877026
-0.0561019
0.097314
-0.0155794
0.109921
0.018804
0.124864
0.037832
0.145448
0.0554611
0.173013
0.100003
0.202368
0.17861
0.222636
0.260055
0.22488
0.28805
0.211126
0.226145
0.191168
0.0991385
0.168737
-0.0279498
0.147127
-0.133893
0.13626
-0.198625
0.132218
-0.188686
0.122616
-0.159089
0.110449
-0.159661
0.111363
-0.164096
0.127136
-0.0893949
0.145648
0.0497359
0.159393
0.21008
0.160448
0.329192
0.154278
0.326914
0.148966
0.207393
0.148673
0.00404233
0.144006
-0.112106
0.128773
-0.221995
0.125137
-0.306674
0.126814
-0.170916
0.135174
-0.02928
0.146805
0.27189
0.139596
0.368033
0.131202
0.176344
0.00170562
-0.178098
0.175261
0.00397234
0.17526
0.00646455
0.176314
0.00950559
0.178436
0.0127441
0.181438
0.0157356
0.18539
0.0181565
0.19024
0.0195341
0.195814
0.0192761
0.201624
0.0166916
0.206899
0.011193
0.210617
0.00276413
0.2122
-0.00846053
0.21147
-0.0214183
0.208572
-0.0350976
0.203954
-0.0488464
0.198034
-0.061607
0.191069
-0.0727593
0.183483
-0.0822175
0.175439
-0.089222
0.16719
-0.094282
0.159003
-0.0976013
0.150675
-0.0987144
0.142196
-0.0969886
0.133793
-0.0932806
0.124569
-0.087318
0.114567
-0.074255
0.107032
-0.048567
0.105182
-0.0137294
0.10935
0.0146362
0.118643
0.0285389
0.131319
0.0427852
0.145876
0.0854454
0.161284
0.163203
0.174639
0.246699
0.183199
0.279491
0.188237
0.221107
0.190275
0.0971007
0.186552
-0.0242267
0.17582
-0.12316
0.165621
-0.188426
0.157155
-0.180221
0.145063
-0.146996
0.129623
-0.144221
0.122746
-0.157219
0.127398
-0.0940468
0.134386
0.0427479
0.140091
0.204374
0.139687
0.329596
0.139098
0.327504
0.142891
0.2036
0.149192
-0.00225831
0.148194
-0.111108
0.134144
-0.207945
0.126743
-0.299273
0.123335
-0.167509
0.12625
-0.0321946
0.135856
0.262283
0.131275
0.372614
0.140224
0.187791
0.0029078
-0.188993
0.187303
0.00446046
0.187366
0.00640108
0.188252
0.00862032
0.190073
0.0109225
0.192815
0.0129942
0.196439
0.0145319
0.2008
0.0151735
0.205625
0.0144508
0.21044
0.0118769
0.214667
0.00696583
0.217675
-0.000243758
0.218864
-0.00964933
0.218105
-0.0206594
0.215437
-0.0324298
0.21104
-0.0444496
0.205234
-0.0558011
0.198279
-0.0658044
0.19065
-0.0745886
0.182728
-0.0812993
0.174625
-0.0861796
0.166542
-0.0895182
0.15855
-0.0907219
0.15023
-0.0886684
0.141913
-0.0849642
0.133909
-0.0793141
0.12585
-0.0661953
0.119213
-0.0419301
0.116543
-0.0110598
0.119747
0.0114325
0.127861
0.0204244
0.139728
0.0309187
0.154216
0.0709576
0.170884
0.146535
0.186489
0.231094
0.196953
0.269026
0.2025
0.215559
0.204888
0.0947125
0.201165
-0.0205034
0.189347
-0.111341
0.177313
-0.176392
0.168025
-0.170933
0.156308
-0.135279
0.140278
-0.128191
0.131862
-0.148803
0.136485
-0.0986698
0.145175
0.0340574
0.153037
0.196512
0.153853
0.328781
0.153428
0.327929
0.157325
0.199703
0.163979
-0.0089126
0.162732
-0.109862
0.146625
-0.191837
0.137918
-0.290566
0.134283
-0.163873
0.137023
-0.034935
0.148063
0.251243
0.14437
0.376308
0.149365
0.200238
0.00394453
-0.201274
0.199753
0.00494508
0.199835
0.00631911
0.200628
0.00782729
0.202218
0.00933246
0.204587
0.0106252
0.207662
0.0114569
0.211307
0.0115284
0.215295
0.0104632
0.219244
0.00792778
0.222661
0.00354879
0.225044
-0.00262643
0.22598
-0.0105853
0.225283
-0.0199631
0.222932
-0.0300784