/*--------------------------------*- C++ -*----------------------------------*\
| =========                 |                                                 |
| \\      /  F ield         | OpenFOAM: The Open Source CFD Toolbox           |
|  \\    /   O peration     | Version:  2312                                  |
|   \\  /    A nd           | Website:  www.openfoam.com                      |
|    \\/     M anipulation  |                                                 |
\*---------------------------------------------------------------------------*/
FoamFile
{
    version     2.0;
    format      ascii;
    arch        "LSB;label=32;scalar=64";
    class       surfaceScalarField;
    location    "93.3";
    object      phi;
}
// * * * * * * * * * * * * * * * * * * * * * * * * * * * * * * * * * * * * * //

dimensions      [0 3 -1 0 0 0 0];

oriented        oriented;

internalField   nonuniform List<scalar> 
10785
(
-0.00027005
0.00415153
-0.00388148
0.00250305
0.00388045
-0.00665355
0.0111766
-0.00535166
-0.00332192
0.0286943
-0.0249367
0.00741905
0.0553405
-0.0527654
0.0261192
0.0875092
-0.0835933
0.0514247
0.11958
-0.112237
0.0801667
0.146409
-0.13538
0.108551
0.165165
-0.151953
0.133197
0.17589
-0.162846
0.152121
0.181073
-0.170104
0.164922
0.184223
-0.175684
0.172533
0.187435
-0.18112
0.177908
0.191
-0.184774
0.181209
-0.189639
0.186248
0.194392
0.000146272
0.00400525
0.00490111
-0.000874393
0.0187413
-0.0191919
0.043103
-0.0492984
0.0735253
-0.0831877
0.103183
-0.113251
0.126851
-0.135905
0.142588
-0.151117
0.15163
-0.160995
0.156941
-0.168157
0.161205
-0.174369
0.165952
-0.180431
0.170839
-0.186007
0.177253
-0.191189
-0.197114
0.184729
0.00112897
0.00287629
0.00951662
-0.00926205
0.029494
-0.0391692
0.0572034
-0.0770078
0.0844577
-0.110442
0.105633
-0.134427
0.119435
-0.149707
0.12776
-0.159442
0.133408
-0.166643
0.138241
-0.17299
0.142906
-0.179034
0.147258
-0.184783
0.151619
-0.190368
0.156386
-0.195956
-0.20136
0.160632
0.00246301
0.000413278
0.0155362
-0.0223352
0.0394685
-0.0631016
0.064864
-0.102403
0.084784
-0.130362
0.0978158
-0.147458
0.105879
-0.157771
0.111381
-0.164943
0.115722
-0.170984
0.119428
-0.176696
0.122758
-0.182363
0.126184
-0.188209
0.130099
-0.194282
0.134731
-0.200588
-0.207392
0.140763
0.00420711
-0.00379383
0.021497
-0.0396251
0.0450204
-0.086625
0.0647509
-0.122134
0.07782
-0.143431
0.0856811
-0.155319
0.0905726
-0.162662
0.0939946
-0.168365
0.0967652
-0.173755
0.0993798
-0.179311
0.102176
-0.18516
0.105234
-0.191267
0.108465
-0.197514
0.111963
-0.204086
-0.210594
0.115165
0.00640892
-0.0102027
0.0256528
-0.058869
0.0453881
-0.10636
0.0592112
-0.135957
0.0672406
-0.15146
0.0716394
-0.159718
0.0742755
-0.165298
0.0762489
-0.170339
0.078057
-0.175563
0.0798382
-0.181092
0.0815797
-0.186901
0.083289
-0.192976
0.085174
-0.199399
0.0872394
-0.206152
-0.213235
0.0898812
0.0084821
-0.0186849
0.026703
-0.0770899
0.0417628
-0.12142
0.0506311
-0.144825
0.0549636
-0.155793
0.0569851
-0.16174
0.0580789
-0.166392
0.0588191
-0.171079
0.059365
-0.176109
0.0597945
-0.181521
0.0602184
-0.187325
0.0607894
-0.193547
0.0615143
-0.200124
0.06242
-0.207057
-0.21422
0.0634042
0.00976572
-0.0284506
0.0251243
-0.0924485
0.0356435
-0.131939
0.0406043
-0.149786
0.042267
-0.157456
0.0424686
-0.161941
0.0421005
-0.166024
0.0414686
-0.170447
0.0406988
-0.175339
0.0398638
-0.180686
0.0390024
-0.186464
0.0380992
-0.192644
0.037239
-0.199263
0.0365011
-0.20632
0.0361626
-0.213881
-0.00107637
0.0181337
-0.0170573
-0.00442648
0.0310491
-0.027699
-0.00925846
0.0338309
-0.0289989
-0.0148448
0.0330547
-0.0274683
-0.0207045
0.0306679
-0.0248082
-0.0265847
0.0264292
-0.020549
-0.032316
0.0196456
-0.0139144
-0.0378566
0.00968554
-0.00414491
-0.0425642
-0.00357507
0.00828263
-0.0463943
-0.0201497
0.0239799
-0.0490354
-0.0400849
0.0427259
-0.0501237
-0.0626325
0.0637208
-0.0495079
-0.0863151
0.0856994
-0.0469423
-0.108978
0.106412
-0.129397
-0.0421131
0.124568
0.000815333
0.0173184
0.000228659
0.0316358
-0.00157814
0.0356377
-0.00365762
0.0351341
-0.00541984
0.0324301
-0.00660998
0.0276193
-0.00713821
0.0201739
-0.00699111
0.00953844
-0.00598319
-0.004583
-0.0036659
-0.022467
0.000164268
-0.043915
0.00606419
-0.0685324
0.0124839
-0.0927349
0.0202563
-0.11675
-0.134243
0.025102
0.00249637
0.014822
0.00487146
0.0292607
0.00657832
0.0339309
0.00834932
0.0333631
0.0108901
0.0298893
0.0145045
0.024005
0.0192302
0.0154481
0.0249131
0.00385558
0.0320417
-0.0117116
0.0411316
-0.031557
0.0523701
-0.0551535
0.0663629
-0.0825252
0.0819332
-0.108305
0.0981866
-0.133003
-0.149296
0.113239
0.00344369
0.0113783
0.00818503
0.0245193
0.0129132
0.0292027
0.0180149
0.0282614
0.02411
0.0237941
0.0315232
0.0165919
0.040327
0.00664432
0.0509988
-0.00681626
0.0639216
-0.0246343
0.0797241
-0.0473595
0.0983151
-0.0737445
0.119086
-0.103296
0.139765
-0.128984
0.159678
-0.152916
-0.165682
0.176064
0.00340626
0.00797204
0.00920896
0.0187166
0.0157915
0.0226202
0.0230975
0.0209554
0.0315628
0.0153288
0.0416339
0.00652081
0.0541153
-0.00583711
0.0698859
-0.0225868
0.089657
-0.0444054
0.113294
-0.0709962
0.13946
-0.0999108
0.165386
-0.129223
0.187882
-0.151479
0.206022
-0.171056
-0.176143
0.216483
0.00255999
0.00541205
0.00795696
0.0133197
0.0148755
0.0157017
0.0230731
0.0127578
0.0330497
0.00535226
0.0460571
-0.00648664
0.0634932
-0.0232732
0.0862198
-0.0453134
0.113889
-0.0720749
0.143926
-0.101032
0.173247
-0.129232
0.197132
-0.153108
0.215087
-0.169434
0.224951
-0.180921
-0.181337
0.230144
0.00131727
0.00409478
0.00530384
0.00933309
0.0115272
0.00947831
0.0202921
0.00399287
0.033061
-0.00741659
0.0515722
-0.0249978
0.0766702
-0.0483712
0.107191
-0.0758344
0.139692
-0.104576
0.169688
-0.131029
0.193365
-0.152909
0.207926
-0.167669
0.215521
-0.177029
0.216097
-0.181497
-0.181809
0.21657
0.000213301
0.00289284
0.00904923
0.0204612
0.0391638
0.0655906
0.0973861
0.130103
0.158724
0.179817
0.191829
0.196694
0.197573
0.197285
0.201723
-0.0351338
-0.308258
0.301279
-0.00184126
-0.327311
0.294019
0.0740033
-0.221937
0.146092
0.145164
0.00770768
-0.0788686
0.19412
0.2162
-0.265156
0.220328
0.311237
-0.337446
0.211529
0.348411
-0.339612
0.177134
0.406406
-0.372011
0.168986
0.365998
-0.357849
0.205442
0.110853
-0.147309
0.249837
-0.153329
0.108935
0.265102
-0.238191
0.222926
0.257269
-0.306524
0.314357
0.257568
-0.416232
0.415933
0.262864
-0.389731
0.384435
0.270698
-0.247704
0.239869
0.280139
0.0226896
-0.0321298
0.289853
0.334315
-0.344029
0.299226
0.482318
-0.49169
0.300674
0.496076
-0.497524
0.299574
0.223167
-0.222066
0.301078
-0.251047
0.249543
0.306232
-0.565768
0.560614
0.312533
-0.594979
0.588678
0.319415
-0.0846365
0.0777546
0.313449
0.792513
-0.786547
0.300251
0.729556
-0.716359
0.271257
-0.246281
0.275276
0.277965
-0.666802
0.660094
0.281279
0.0464613
-0.0497749
0.262558
0.38547
-0.36675
0.250975
0.0232598
-0.0116768
0.261439
-0.177912
0.167449
0.266995
0.00710089
-0.0126567
0.242804
0.24587
-0.221679
0.222016
-0.0735054
0.0942926
0.223032
-0.097961
0.0969453
0.0888806
-0.0883775
-0.00379963
-0.279357
-0.024797
-0.306314
0.0168984
-0.263632
0.100974
-0.0763683
0.172467
0.144707
0.215683
0.268021
0.214272
0.349822
0.191318
0.42936
0.192644
0.364672
0.219095
0.0844016
0.253226
-0.187461
0.269719
-0.254684
0.256967
-0.293772
0.253109
-0.412374
0.261032
-0.397654
0.266811
-0.253483
0.277887
0.0116136
0.290911
0.321291
0.299571
0.473658
0.302031
0.493616
0.299391
0.225806
0.295405
-0.247062
0.296779
-0.567142
0.301109
-0.59931
0.315486
-0.0990134
0.32151
0.78649
0.309093
0.741973
0.27068
-0.207867
0.274312
-0.670434
0.281615
0.0391582
0.263738
0.403347
0.249726
0.0372715
0.260499
-0.188685
0.268781
-0.00118054
0.245489
0.269161
0.22463
-0.0526465
0.22587
-0.099201
0.0893788
0.0791546
-0.245272
0.0194014
-0.24656
0.0043096
-0.24854
0.0776811
-0.14974
0.171901
0.0504875
0.226145
0.213777
0.230409
0.345558
0.217462
0.442308
0.223118
0.359015
0.236414
0.071106
0.25515
-0.206196
0.26883
-0.268364
0.250121
-0.275063
0.239549
-0.401802
0.252895
-0.411
0.260575
-0.261162
0.273527
-0.0013386
0.289977
0.30484
0.298342
0.465293
0.301308
0.49065
0.296542
0.230572
0.286618
-0.237137
0.283853
-0.564377
0.285458
-0.600915
0.307339
-0.120894
0.326674
0.767155
0.315083
0.753563
0.268157
-0.160941
0.268101
-0.670378
0.28018
0.0270791
0.263588
0.41994
0.247098
0.0537611
0.257923
-0.19951
0.269278
-0.0125357
0.247557
0.290882
0.226751
-0.0318405
0.228366
-0.100815
0.0895391
0.155506
-0.224713
0.108728
-0.199783
0.0486679
-0.18848
0.0706021
-0.171674
0.167277
-0.046187
0.231623
0.149431
0.241409
0.335771
0.239274
0.444443
0.250011
0.348278
0.253097
0.0680201
0.254757
-0.207857
0.265325
-0.278932
0.246111
-0.25585
0.225369
-0.38106
0.24007
-0.425701
0.252735
-0.273828
0.267743
-0.0163471
0.284958
0.287625
0.292141
0.458111
0.296169
0.486622
0.290273
0.236467
0.275228
-0.222093
0.26822
-0.557368
0.267054
-0.599749
0.29481
-0.148649
0.326355
0.735609
0.316233
0.763685
0.263971
-0.108679
0.259768
-0.666176
0.276885
0.00996241
0.261978
0.434847
0.243272
0.0724669
0.253902
-0.21014
0.268511
-0.0271453
0.248939
0.310455
0.228368
-0.0112691
0.230529
-0.102976
0.089054
0.186447
-0.194678
0.167926
-0.181262
0.120223
-0.140777
0.0867411
-0.138192
0.142131
-0.101577
0.216246
0.075316
0.242735
0.309283
0.252756
0.434422
0.268922
0.332112
0.266505
0.0704367
0.253202
-0.194553
0.254995
-0.280725
0.23776
-0.238615
0.208655
-0.351955
0.220322
-0.437368
0.239631
-0.293137
0.258502
-0.0352175
0.278469
0.267659
0.28629
0.450289
0.290245
0.482667
0.281886
0.244827
0.261836
-0.202043
0.250152
-0.545684
0.246147
-0.595745
0.278639
-0.181141
0.323242
0.691006
0.315084
0.771843
0.258771
-0.0523654
0.249841
-0.657246
0.272047
-0.0122432
0.259247
0.447646
0.238588
0.0931259
0.248729
-0.220281
0.266578
-0.0449949
0.249598
0.327435
0.229471
0.00885733
0.232371
-0.105876
0.0876378
0.192568
-0.157101
0.170892
-0.159586
0.157774
-0.127659
0.125827
-0.106245
0.127142
-0.102892
0.179973
0.0224846
0.220195
0.269061
0.246546
0.408071
0.27256
0.306098
0.274485
0.0685115
0.251447
-0.171515
0.243761
-0.273039
0.228619
-0.223473
0.194151
-0.317487
0.197297
-0.440514
0.222242
-0.318082
0.245674
-0.0586502
0.266969
0.246364
0.274912
0.442346
0.280088
0.477491
0.271389
0.253526
0.247044
-0.177698
0.230782
-0.529421
0.22489
-0.589853
0.259288
-0.215538
0.313782
0.636512
0.308654
0.776972
0.250735
0.0055532
0.238783
-0.645294
0.265474
-0.0389342
0.255226
0.457894
0.23323
0.115122
0.242684
-0.229734
0.263608
-0.065919
0.249539
0.341504
0.230068
0.0283284
0.233897
-0.109704
0.0850235
0.186137
-0.126668
0.157814
-0.131263
0.149474
-0.119319
0.144822
-0.101593
0.140721
-0.0987903
0.17394
-0.010735
0.218376
0.224626
0.25089
0.375557
0.274795
0.282193
0.271713
0.0715935
0.242031
-0.141833
0.227236
-0.258244
0.214605
-0.210841
0.179458
-0.28234
0.172625
-0.433682
0.198658
-0.344115
0.229714
-0.0897055
0.255549
0.220529
0.265283
0.432612
0.270837
0.471937
0.260608
0.263755
0.231855
-0.148946
0.211106
-0.508672
0.202607
-0.581354
0.238554
-0.251486
0.303871
0.571195
0.302065
0.778778
0.241867
0.065751
0.227268
-0.630695
0.25794
-0.0696064
0.250486
0.465349
0.22755
0.138058
0.236097
-0.238282
0.25977
-0.0895913
0.248809
0.352465
0.230183
0.0469542
0.235097
-0.114618
0.0809656
0.176893
-0.101838
0.154728
-0.109098
0.140255
-0.104845
0.132612
-0.0939511
0.132225
-0.098403
0.156005
-0.0345144
0.201646
0.178984
0.243125
0.334078
0.274468
0.250851
0.272915
0.0731462
0.23692
-0.105838
0.213994
-0.235318
0.200851
-0.197699
0.164602
-0.246091
0.148767
-0.417848
0.172416
-0.367764
0.206406
-0.123695
0.236877
0.190058
0.250008
0.419481
0.257664
0.464281
0.249491
0.271928
0.217137
-0.116592
0.19161
-0.483144
0.180943
-0.570687
0.214998
-0.285541
0.286091
0.500102
0.289135
0.775734
0.231997
0.122889
0.215261
-0.613959
0.248882
-0.103228
0.244505
0.469726
0.221709
0.160854
0.229245
-0.245818
0.255228
-0.115574
0.247517
0.360175
0.229857
0.064614
0.235975
-0.120735
0.0752562
0.424697
-0.0711512
-0.455384
0.396373
-0.0807737
0.366058
-0.0745304
0.332935
-0.0608281
0.292068
-0.0575361
0.255377
0.00217605
0.260924
0.173437
0.344695
0.250307
0.451849
0.143697
0.505473
0.0195224
0.498515
-0.0988794
0.467162
-0.203966
0.443621
-0.174157
0.416084
-0.218554
0.385775
-0.387538
0.357262
-0.339252
0.32757
-0.0940025
0.30251
0.215117
0.294626
0.427365
0.342085
0.416823
0.402091
0.211921
0.417581
-0.132082
0.399197
-0.46476
0.350364
-0.521854
0.322036
-0.257213
0.369248
0.452891
0.405942
0.73904
0.391201
0.13763
0.367869
-0.590627
0.375957
-0.111316
0.361093
0.484589
0.344856
0.177091
0.357771
-0.258734
0.383836
-0.141639
0.370066
0.373946
0.345963
0.0887169
0.352171
-0.126943
0.0696952
0.454755
-0.0465205
-0.479386
0.42843
-0.0544488
0.405487
-0.0515876
0.383503
-0.0388436
0.358095
-0.0321282
0.342227
0.0180445
0.385654
0.130009
0.474773
0.161189
0.533951
0.0845192
0.550581
0.00289196
0.528818
-0.0771163
0.490712
-0.16586
0.461902
-0.145348
0.436433
-0.193084
0.406894
-0.357999
0.369015
-0.301373
0.326103
-0.0510903
0.296459
0.244762
0.299183
0.424641
0.373746
0.342259
0.447611
0.138057
0.454825
-0.139296
0.419447
-0.429382
0.358399
-0.460806
0.326716
-0.22553
0.379915
0.399692
0.432088
0.686866
0.425834
0.143884
0.400026
-0.564819
0.404088
-0.115378
0.389983
0.498695
0.377724
0.18935
0.39224
-0.273249
0.41918
-0.168579
0.406531
0.386595
0.381251
0.113996
0.388464
-0.134156
0.0622047
0.494774
-0.0296929
-0.511602
0.47412
-0.0337945
0.4574
-0.0348672
0.440315
-0.0217592
0.421442
-0.0132549
0.421575
0.0179112
0.4696
0.0819842
0.534427
0.0963625
0.568023
0.0509236
0.576304
-0.00538899
0.557152
-0.057965
0.524513
-0.133221
0.508258
-0.129093
0.484809
-0.169635
0.430337
-0.303528
0.363415
-0.234451
0.312061
0.000263456
0.288757
0.268065
0.320406
0.392992
0.41677
0.245896
0.494894
0.0599323
0.50122
-0.145622
0.447157
-0.375319
0.359417
-0.373066
0.316952
-0.183065
0.386564
0.33008
0.469004
0.604427
0.469818
0.143069
0.434472
-0.529473
0.435009
-0.115915
0.422528
0.511175
0.41623
0.195647
0.432479
-0.289498
0.458421
-0.194521
0.446497
0.398519
0.420204
0.14029
0.428015
-0.141968
0.0524814
0.536885
-0.0177826
-0.548795
0.521709
-0.0186189
0.507964
-0.0211225
0.49732
-0.0111145
0.489045
-0.00498019
0.492881
0.0140751
0.527643
0.0472223
0.572091
0.051915
0.591761
0.0312532
0.596287
-0.00991466
0.585466
-0.047144
0.554183
-0.101938
0.526817
-0.101727
0.499749
-0.142567
0.438575
-0.242355
0.351758
-0.147633
0.300545
0.0514757
0.313945
0.254666
0.385894
0.321043
0.482656
0.149134
0.546161
-0.00357232
0.543867
-0.143329
0.473415
-0.304866
0.355994
-0.255645
0.299067
-0.126139
0.393814
0.235333
0.510759
0.487482
0.520114
0.133713
0.471719
-0.481077
0.465836
-0.110032
0.459379
0.517632
0.462901
0.192125
0.480829
-0.307426
0.504184
-0.217875
0.492504
0.410198
0.464243
0.168552
0.471376
-0.149102
0.0403196
0.583384
-0.00958853
-0.591578
0.573159
-0.00839348
0.564415
-0.0123784
0.558014
-0.00471423
0.553845
-0.000811362
0.55935
0.00857086
0.580097
0.0264747
0.607001
0.0250117
0.622883
0.0153707
0.625574
-0.0126059
0.616667
-0.0382366
0.598229
-0.0834999
0.575125
-0.0786232
0.538351
-0.105793
0.473108
-0.177112
0.393749
-0.0682735
0.362789
0.0824357
0.411026
0.206428
0.498315
0.233754
0.571585
0.0758639
0.603397
-0.0353837
0.589713
-0.129645
0.51822
-0.233374
0.387319
-0.124744
0.311221
-0.0500409
0.411596
0.134959
0.557108
0.34197
0.57889
0.111931
0.513316
-0.415503
0.491973
-0.0886892
0.49779
0.511816
0.518324
0.171591
0.53703
-0.326132
0.554461
-0.235306
0.543098
0.421561
0.51344
0.19821
0.518888
-0.154549
0.0256883
0.63495
-0.00417914
-0.640359
0.62876
-0.00220371
0.622669
-0.00628805
0.619099
-0.00114343
0.617878
0.00040964
0.622147
0.00430115
0.634685
0.0139367
0.651033
0.00866429
0.659769
0.00663492
0.663392
-0.0162294
0.654257
-0.0291017
0.631072
-0.0603147
0.613915
-0.0614661
0.585758
-0.0776358
0.532798
-0.124151
0.478882
-0.014358
0.478652
0.0826662
0.547437
0.137643
0.620688
0.160503
0.657057
0.0394946
0.656997
-0.035324
0.625468
-0.0981154
0.569385
-0.177291
0.469759
-0.0251179
0.389271
0.0304466
0.462769
0.0614603
0.60853
0.19621
0.63855
0.0819109
0.556302
-0.333255
0.516619
-0.049006
0.546069
0.482365
0.587406
0.130254
0.601499
-0.340225
0.608535
-0.242342
0.599068
0.431028
0.570654
0.226624
0.57261
-0.156506
0.00938382
0.691474
-0.000705003
-0.694948
0.687978
0.00129225
0.6841
-0.00240968
0.682431
0.000525469
0.681948
0.000892598
0.684945
0.00130406
0.691844
0.00703845
0.70073
-0.000222512
0.705845
0.00152031
0.706317
-0.0167016
0.699981
-0.0227653
0.683856
-0.0441896
0.670682
-0.0482928
0.640001
-0.0469539
0.597485
-0.0816358
0.579285
0.00384189
0.597543
0.0644081
0.654731
0.0804559
0.706403
0.108831
0.723521
0.0223766
0.716248
-0.0280513
0.675397
-0.0572639
0.625825
-0.127719
0.585415
0.0152916
0.543658
0.0722039
0.573792
0.0313265
0.678863
0.0911388
0.706138
0.0546363
0.616811
-0.243928
0.574197
-0.00639184
0.630142
0.42642
0.676929
0.0834672
0.670701
-0.333997
0.666265
-0.237906
0.664739
0.432554
0.638793
0.25257
0.634214
-0.151926
-0.00695611
0.752717
0.00146917
-0.754891
0.751137
0.00287293
0.748739
-1.20795e-05
0.748054
0.00121032
0.747828
0.00111871
0.74953
-0.000397761
0.753227
0.00334149
0.757285
-0.00428024
0.760081
-0.00127599
0.758251
-0.0148713
0.753538
-0.0180527
0.738163
-0.0288145
0.7268
-0.0369297
0.70787
-0.0280246
0.677142
-0.0509074
0.675183
0.00580105
0.695181
0.0444099
0.732145
0.0434915
0.767511
0.073465
0.771117
0.0187705
0.764463
-0.0213975
0.734769
-0.0275693
0.69385
-0.0868005
0.68939
0.0197518
0.689371
0.0722233
0.698071
0.0226266
0.752305
0.0369041
0.765774
0.041168
0.68759
-0.165744
0.663176
0.0180214
0.739781
0.349815
0.776369
0.0468797
0.734472
-0.2921
0.708188
-0.211622
0.723589
0.417154
0.712926
0.263232
0.704378
-0.143378
-0.0214316
0.819356
0.00268607
-0.820573
0.81888
0.00334919
0.81745
0.00141732
0.817194
0.00146677
0.81706
0.00125264
0.817592
-0.00092997
0.819628
0.00130608
0.820279
-0.00493116
0.821654
-0.00265106
0.818395
-0.0116128
0.814356
-0.014013
0.804231
-0.0186903
0.794367
-0.0270659
0.78215
-0.015807
0.761092
-0.0298492
0.763777
0.00311565
0.779139
0.0290482
0.798687
0.0239432
0.825122
0.0470299
0.829018
0.0148745
0.823061
-0.0154408
0.801784
-0.00629202
0.7693
-0.0543168
0.774143
0.0149093
0.791985
0.0543815
0.797014
0.0175976
0.820243
0.0136751
0.823209
0.0382017
0.763669
-0.106204
0.759825
0.0218652
0.841128
0.268512
0.864009
0.0239993
0.788403
-0.216495
0.738615
-0.161834
0.783005
0.372763
0.801947
0.244291
0.788746
-0.130178
-0.0297678
0.891872
0.0032469
-0.892433
0.891812
0.00340965
0.891104
0.00212493
0.890891
0.00167986
0.89084
0.00130401
0.890575
-0.000664873
0.891497
0.000383535
0.890637
-0.00407099
0.89088
-0.00289391
0.887673
-0.00840612
0.884006
-0.0103461
0.877085
-0.0117686
0.868234
-0.018215
0.861583
-0.00915596
0.848694
-0.0169601
0.850243
0.00156634
0.861771
0.0175203
0.872062
0.0136521
0.889735
0.0293568
0.892223
0.0123862
0.886362
-0.00957963
0.876044
0.00402651
0.854231
-0.0325044
0.856881
0.0122601
0.874594
0.0366685
0.87581
0.0163813
0.885361
0.00412417
0.891119
0.0324439
0.848731
-0.0638162
0.850793
0.0198036
0.92215
0.197154
0.933729
0.0124209
0.846216
-0.128983
0.794148
-0.109766
0.872424
0.294488
0.914414
0.2023
0.88728
-0.103044
-0.0249935
0.97075
0.00337499
-0.970878
0.970883
0.00327739
0.970577
0.00243038
0.970385
0.00187234
0.970278
0.00141087
0.96971
-9.69674e-05
0.969901
0.000192235
0.968585
-0.00275513
0.968018
-0.00232606
0.965238
-0.00562683
0.961853
-0.00696036
0.957383
-0.00729925
0.950828
-0.0116602
0.946819
-0.00514691
0.939431
-0.00957231
0.939807
0.00119046
0.947412
0.00991585
0.952521
0.00854256
0.963994
0.0178839
0.966825
0.00955571
0.961772
-0.00452723
0.956913
0.00888617
0.942403
-0.017995
0.94163
0.0130329
0.95661
0.0216891
0.957984
0.015007
0.960535
0.00157328
0.967327
0.0256522
0.937605
-0.0340946
0.938694
0.0187142
0.995425
0.140423
1.00062
0.00722942
0.923798
-0.0521639
0.885597
-0.0715646
0.979123
0.200961
1.0257
0.155728
0.984027
-0.0613749
-0.0076801
1.05677
0.00328486
-1.05668
1.05695
0.00309241
1.05684
0.00254319
1.0567
0.00201315
1.05652
0.00158927
1.05594
0.000484087
1.05571
0.000425421
1.0544
-0.00144706
1.05349
-0.00141842
1.05123
-0.00336962
1.04858
-0.00430742
1.04554
-0.00426373
1.04085
-0.0069646
1.03835
-0.00264415
1.03414
-0.00536251
1.03395
0.00137319
1.03861
0.00526209
1.04126
0.00588804
1.0481
0.0110424
1.04995
0.0077065
1.04592
-0.000491626
1.04468
0.0101257
1.03578
-0.00909588
1.03447
0.0143446
1.04485
0.0113039
1.04516
0.0146971
1.04537
0.0013638
1.05242
0.0186061
1.03357
-0.0152523
1.0333
0.018991
1.07382
0.0999059
1.07459
0.00645445
1.01912
0.00330699
0.995785
-0.0482302
1.07951
0.117234
1.11703
0.118209
1.07418
-0.0185246
0.0112262
1.15066
0.00310009
-1.15047
1.15086
0.00288369
1.15087
0.00254144
1.15078
0.00210172
1.15061
0.00176037
1.15009
0.00100465
1.14972
0.000793574
1.14862
-0.000344305
1.14771
-0.000515224
1.14598
-0.00163952
1.14396
-0.00228697
1.14185
-0.00214988
1.13871
-0.0038267
1.13706
-0.000997843
1.13461
-0.00290452
1.1343
0.00167913
1.13679
0.00277338
1.13805
0.00463064
1.14201
0.00707997
1.14335
0.00636816
1.14063
0.00222054
1.14078
0.00997717
1.13527
-0.00358284
1.1343
0.0153192
1.14097
0.00462451
1.14158
0.0140918
1.14128
0.001666
1.14679
0.0130966
1.1347
-0.00316785
1.13486
0.0188352
1.16316
0.0716061
1.16134
0.0082748
1.12519
0.0394583
1.11298
-0.0360278
1.17576
0.0544557
1.20173
0.0922436
1.1684
0.014799
0.0238906
1.25333
0.00285494
-1.25308
1.25355
0.00266345
1.25362
0.00246536
1.25359
0.0021378
1.25347
0.00187678
1.25308
0.00139817
1.25272
0.00114655
1.25189
0.000492929
1.25113
0.000245782
1.24985
-0.00035876
1.2484
-0.000838154
1.24694
-0.000693366
1.24487
-0.00175719
1.24377
0.000102315
1.24222
-0.00135592
1.24193
0.00197161
1.24308
0.00162659
1.2437
0.00400729
1.24583
0.0049472
1.24661
0.00559388
1.24499
0.00383389
1.24559
0.00937963
1.24235
-0.000346262
1.24236
0.0153146
1.24612
0.000860661
1.24614
0.0140712
1.24665
0.00115621
1.25072
0.00902775
1.24368
0.00387474
1.24458
0.0179319
1.26367
0.0525174
1.25971
0.0122408
1.23936
0.0597997
1.23555
-0.0322166
1.27778
0.0122332
1.29404
0.0759838
1.2721
0.0367368
0.0297042
1.36568
0.0025849
-1.36541
1.36591
0.00243292
1.36604
0.00232946
1.36607
0.00210825
1.36603
0.00191547
1.36578
0.00165046
1.36552
0.00140392
1.36493
0.0010816
1.36437
0.000810799
1.36349
0.000522579
1.36248
0.000166117
1.3615
0.000290421
1.36013
-0.000389794
1.35942
0.000817082
1.35836
-0.000302517
1.35815
0.00218959
1.35855
0.00122608
1.35879
0.00376402
1.35993
0.00380577
1.3604
0.00512784
1.35959
0.00464538
1.36048
0.00848275
1.35835
0.00178764
1.35914
0.0145243
1.36106
-0.00105483
1.36132
0.0138039
1.36217
0.00030823
1.36509
0.00610601
1.3609
0.00806586
1.36248
0.0163573
1.37558
0.0394154
1.3711
0.0167141
1.36259
0.0683175
1.36294
-0.0325691
1.38831
-0.0131367
1.39939
0.0648984
1.38754
0.0485959
0.0313339
1.48867
0.00228189
-1.48837
1.48894
0.00216736
1.48913
0.00213454
1.48924
0.00200294
1.48928
0.00187285
1.48917
0.00176697
1.48902
0.00154746
1.48865
0.00145782
1.48826
0.00119186
1.48766
0.00112353
1.487
0.000832071
1.48634
0.000950462
1.48545
0.000501892
1.48497
0.00128836
1.48425
0.000417795
1.48412
0.00232352
1.4842
0.00115116
1.48432
0.00363797
1.48498
0.00314452
1.4853
0.00480785
1.48497
0.00497321
1.48595
0.00750959
1.48457
0.00316767
1.48589
0.0132001
1.4868
-0.00195847
1.48705
0.0135464
1.48817
-0.000813322
1.49016
0.00412059
1.48821
0.0100189
1.49018
0.0143829
1.49913
0.0304669
1.4948
0.0210399
1.49487
0.0682524
1.49715
-0.034851
1.51013
-0.026119
1.5184
0.0566276
1.51414
0.0528614
0.0304484
1.62336
0.00193627
-1.62302
1.62367
0.00185367
1.62393
0.00188112
1.62411
0.00181723
1.62423
0.00175471
1.62423
0.00176505
1.62419
0.00159358
1.62397
0.0016787
1.62374
0.00142347
1.62331
0.0015448
1.62289
0.00125639
1.62241
0.00143236
1.62184
0.0010711
1.62153
0.00159596
1.62103
0.000922719
1.62105
0.00229927
1.62099
0.0012144
1.62122
0.00340108
1.62168
0.00268984
1.62199
0.00449252
1.62214
0.0048311
1.62308
0.00656802
1.62229
0.00395228
1.62404
0.0114531
1.62398
-0.00189559
1.62485
0.0126743
1.62561
-0.00157128
1.62664
0.00308798
1.62609
0.0105718
1.62877
0.0117006
1.63478
0.0244528
1.63232
0.0235037
1.63926
0.0613084
1.6392
-0.034789
1.64267
-0.0295881
1.65104
0.0482603
1.65265
0.0512497
0.0281748
1.77092
0.00151903
-1.77051
1.77131
0.00146761
1.77163
0.00155538
1.77191
0.00154487
1.77209
0.00157479
1.77219
0.0016667
1.77219
0.00158832
1.77207
0.00180332
1.7719
0.00158562
1.77156
0.00188725
1.77127
0.00154482
1.77084
0.00186384
1.7705
0.00141292
1.77026
0.00183807
1.76995
0.00122737
1.77015
0.00210527
1.77007
0.00128913
1.77059
0.00288491
1.771
0.00227423
1.77147
0.00402591
1.77211
0.00418673
1.7729
0.0057789
1.77275
0.00411076
1.77483
0.00937172
1.77388
-0.000944257
1.77542
0.0111263
1.77558
-0.00172825
1.77529
0.0033763
1.77619
0.00967837
1.77971
0.00817503
1.78316
0.0210087
1.78334
0.0233145
1.7961
0.0485544
1.79186
-0.0305504
1.78821
-0.025938
1.79797
0.0385023
1.80382
0.0453949
0.0252094
1.93202
0.00111743
-1.93162
1.93238
0.00110473
1.93271
0.00122964
1.93301
0.0012434
1.93321
0.00137439
1.93341
0.00146264
1.93347
0.00153549
1.93352
0.00174716
1.93345
0.00165532
1.93332
0.00202371
1.9332
0.00166515
1.9329
0.00216181
1.93279
0.00152028
1.93255
0.00208131
1.93245
0.00132772
1.93261
0.00193865
1.93255
0.00135574
1.93331
0.00212292
1.93366
0.00192253
1.93462
0.00306936
1.93589
0.00290977
1.93672
0.0049557
1.93782
0.00301067
1.93997
0.00721552
1.93784
0.00118863
1.94055
0.00841641
1.93841
0.000416129
1.93629
0.00548897
1.93883
0.00714588
1.94227
0.00473377
1.94469
0.0185872
1.95304
0.0149642
1.97175
0.0298385
1.95606
-0.0148556
1.94158
-0.0114587
1.9545
0.0255858
1.96785
0.0320421
0.0198381
2.1073
0.000907082
-2.10709
2.10748
0.000918919
2.10771
0.00100706
2.10793
0.00102021
2.10817
0.00113346
2.10846
0.00117352
2.10872
0.00127202
2.10909
0.00138376
2.10936
0.00137695
2.10976
0.0016236
2.11003
0.00139787
2.11038
0.00181412
2.11058
0.00131558
2.1108
0.00186205
2.11092
0.0012145
2.11108
0.00177469
2.11117
0.00126352
2.11155
0.001743
2.11193
0.00154384
2.11274
0.0022598
2.11384
0.00180652
2.11504
0.00376245
2.1163
0.00174584
2.11822
0.00529498
2.1173
0.00211361
2.11979
0.00592084
2.11787
0.00233576
2.11729
0.00606948
2.11942
0.00501871
2.12055
0.00359946
2.12544
0.0136972
2.13468
0.00573007
2.14802
0.0164941
2.13489
-0.0017218
2.12078
0.0026546
2.13006
0.0163042
2.1456
0.0165031
0.0122848
2.30003
0.000704635
-2.29983
2.30023
0.000719013
2.30048
0.000755423
2.30073
0.00077104
2.30106
0.00080848
2.30139
0.000838041
2.3018
0.00086361
2.30226
0.000924001
2.30273
0.000911964
2.30332
0.00102726
2.30378
0.000942368
2.30446
0.00113668
2.30483
0.000943458
2.30545
0.00124248
2.30573
0.00092699
2.30616
0.00134861
2.30648
0.000946579
2.30674
0.0014787
2.3072
0.00108417
2.30772
0.00174653
2.30822
0.00130144
2.30958
0.00240654
2.30996
0.00135874
2.3118
0.00345819
2.31251
0.00140342
2.31429
0.00414161
2.31468
0.00194117
2.31679
0.00396077
2.31784
0.00397439
2.31828
0.00315212
2.32407
0.00790859
2.32654
0.00326212
2.33212
0.0109189
2.33085
-0.000458973
2.32828
0.00522711
2.333
0.0115888
2.34144
0.00806299
0.00676638
2.51184
0.000369503
-2.51151
2.51218
0.000381879
2.51254
0.000397211
2.5129
0.000410685
2.51328
0.000426355
2.51367
0.000446687
2.51408
0.000456985
2.51451
0.000492492
2.51494
0.000484486
2.51542
0.000548297
2.51586
0.000503203
2.51638
0.000609011
2.51682
0.000509204
2.51739
0.000667538
2.51781
0.000509442
2.51844
0.000721092
2.51887
0.000518498
2.51955
0.000793443
2.52008
0.000558942
2.52087
0.000950726
2.52155
0.000624698
2.52269
0.00126805
2.52334
0.000709723
2.52509
0.00170217
2.5256
0.000899462
2.52768
0.00205611
2.52837
0.00124914
2.53019
0.00214183
2.53201
0.00215405
2.53361
0.00155238
2.53759
0.00393034
2.5396
0.00125475
2.5457
0.0048182
2.54415
0.0010889
2.54536
0.00401451
2.55149
0.00546579
2.55644
0.00311285
0.00303161
2.74336
-2.74299
2.74374
2.74414
2.74455
2.74497
2.74542
2.74588
2.74637
2.74685
2.7474
2.74791
2.74851
2.74902
2.74969
2.7502
2.75092
2.75144
2.75223
2.75279
2.75374
2.75437
2.75564
2.75635
2.75805
2.75895
2.761
2.76225
2.76439
2.76655
2.7681
2.77203
2.77329
2.7781
2.77919
2.78321
2.78867
2.79179
0.434644
0.0308756
-0.429357
0.441263
0.0567851
0.444918
0.0862256
0.451009
0.109075
0.45267
0.139102
0.456697
0.156605
0.456294
0.185131
0.195302
0.462329
0.0271098
-0.458564
0.467321
0.0517939
0.470209
0.0833372
0.473614
0.10567
0.475941
0.136775
0.47764
0.154906
0.479765
0.183006
0.195681
0.495298
0.0241382
-0.492327
0.498043
0.0490488
0.500843
0.0805378
0.503218
0.103294
0.506539
0.133454
0.508427
0.153018
0.511406
0.180028
0.195485
0.531997
0.0215391
-0.529398
0.533831
0.0472152
0.536974
0.0773948
0.539141
0.101127
0.54267
0.129925
0.544438
0.151251
0.547691
0.176775
0.19438
0.573396
0.0193947
-0.571252
0.575006
0.0456053
0.577978
0.0744233
0.579918
0.0991863
0.583278
0.126565
0.585414
0.149115
0.589247
0.172942
0.192049
0.619655
0.0176477
-0.617908
0.621182
0.0440782
0.623873
0.0717331
0.625974
0.0970848
0.629567
0.122972
0.632452
0.14623
0.636951
0.168443
0.188641
0.671042
0.0162217
-0.669616
0.672586
0.0425344
0.675269
0.06905
0.677897
0.0944573
0.681873
0.118996
0.685709
0.142394
0.690559
0.163593
0.184251
0.728105
0.0149614
-0.726845
0.729821
0.0408189
0.732603
0.0662675
0.735771
0.0912895
0.739938
0.114829
0.744339
0.137993
0.749401
0.158531
0.178761
0.791139
0.0138234
-0.790001
0.792987
0.0389712
0.795768
0.063487
0.799237
0.0878199
0.803481
0.110586
0.808524
0.13295
0.814215
0.15284
0.172403
0.860436
0.0128024
-0.859415
0.862382
0.0370257
0.865238
0.0606309
0.869061
0.0839963
0.873678
0.105969
0.879316
0.127312
0.885479
0.146677
0.165449
0.936529
0.0118402
-0.935567
0.938571
0.0349841
0.941586
0.0576158
0.945689
0.0798934
0.950648
0.101009
0.956635
0.121325
0.963306
0.140005
0.157876
1.01987
0.0109237
-1.01895
1.02197
0.0328835
1.02515
0.0544326
1.02951
0.0755356
1.03485
0.0956675
1.04126
0.114916
1.0485
0.132766
0.149699
1.11109
0.010027
-1.11019
1.11328
0.0306989
1.11667
0.0510394
1.1213
0.0709005
1.12703
0.0899418
1.13387
0.108074
1.14167
0.124971
0.140897
1.21087