/*--------------------------------*- C++ -*----------------------------------*\
| =========                 |                                                 |
| \\      /  F ield         | OpenFOAM: The Open Source CFD Toolbox           |
|  \\    /   O peration     | Version:  2312                                  |
|   \\  /    A nd           | Website:  www.openfoam.com                      |
|    \\/     M anipulation  |                                                 |
\*---------------------------------------------------------------------------*/
FoamFile
{
    version     2.0;
    format      ascii;
    arch        "LSB;label=32;scalar=64";
    class       volVectorField;
    location    "56";
    object      U;
}
// * * * * * * * * * * * * * * * * * * * * * * * * * * * * * * * * * * * * * //

dimensions      [0 1 -1 0 0 0 0];

internalField   nonuniform List<vector> 
2300
(
(-0.0585986 0.0445636 0)
(-0.0530437 0.065513 1.92192e-19)
(0.0886518 0.0618115 -1.04789e-19)
(0.35726 0.0574212 -4.27959e-20)
(0.669277 0.0604755 0)
(0.949822 0.0620494 -5.93972e-20)
(1.16795 0.0694873 2.33237e-19)
(1.28479 0.0439077 -4.23161e-20)
(1.3311 0.053791 1.02298e-19)
(1.31111 -0.00656862 -1.23144e-19)
(-0.0672892 0.0273936 8.16871e-20)
(0.0338518 0.0165961 -6.46043e-20)
(0.380507 0.040216 1.04041e-19)
(0.770142 0.0814968 4.01963e-20)
(1.07454 0.116544 6.37372e-20)
(1.2646 0.141361 -1.6696e-19)
(1.33294 0.131052 -5.00831e-21)
(1.31789 0.119552 -4.46832e-21)
(1.26482 0.0849127 0)
(1.18668 0.0587029 2.07077e-20)
(-0.0484841 0.00464217 8.47491e-20)
(0.287353 0.0148114 -3.03629e-21)
(0.790216 0.104887 -1.58909e-19)
(1.12704 0.170438 8.60265e-20)
(1.28299 0.200171 -6.17422e-20)
(1.30349 0.190632 1.45367e-19)
(1.26349 0.168107 -1.18042e-19)
(1.21995 0.138281 -8.28267e-20)
(1.19555 0.119272 4.43784e-20)
(1.19317 0.106892 8.67665e-20)
(0.0445075 -0.0131663 2.28601e-20)
(0.66901 0.105605 -6.87726e-20)
(1.09899 0.213501 5.65429e-20)
(1.26052 0.250126 0)
(1.27328 0.239363 1.43e-20)
(1.25093 0.218838 4.23266e-20)
(1.23829 0.197478 -3.53321e-20)
(1.23499 0.185949 4.64983e-20)
(1.22754 0.168293 -4.84101e-21)
(1.20464 0.159865 -6.77895e-20)
(0.246063 0.036533 2.36084e-20)
(0.95198 0.238799 0)
(1.21672 0.307341 0)
(1.26569 0.302984 0)
(1.2625 0.285636 -1.43424e-20)
(1.24747 0.265999 0)
(1.2211 0.245102 0)
(1.18797 0.219889 -9.91109e-21)
(1.15908 0.196641 8.31281e-21)
(1.1295 0.18137 -5.24251e-21)
(-0.0244882 0.0857695 1.64359e-20)
(-0.0727552 0.089035 0)
(-0.131401 0.0593589 0)
(-0.180612 0.0249334 0)
(-0.222048 -0.0165827 -1.67588e-20)
(-0.252552 -0.0689945 0)
(-0.270635 -0.132808 0)
(-0.266794 -0.209168 1.86404e-20)
(-0.269757 -0.275312 -1.56317e-20)
(-0.218082 -0.351534 1.21215e-20)
(-0.0351126 0.123221 -5.06049e-20)
(-0.0700972 0.153277 5.75514e-20)
(-0.104192 0.129289 -4.73502e-20)
(-0.129239 0.0940958 0)
(-0.146966 0.0502674 1.67122e-20)
(-0.150299 -0.0119042 -6.23074e-20)
(-0.150581 -0.0827106 5.20018e-20)
(-0.0973328 -0.180101 -8.62195e-20)
(-0.109654 -0.254998 7.23028e-20)
(0.000542819 -0.326318 2.34865e-20)
(-0.0441072 0.12732 -7.35616e-20)
(-0.0651279 0.180582 -8.31091e-22)
(-0.0676122 0.169471 1.54255e-19)
(-0.0541428 0.141405 -8.57878e-20)
(-0.033435 0.0998707 7.76075e-20)
(0.0313297 0.0481282 -1.9951e-19)
(0.069163 -0.0338137 5.51638e-20)
(0.229689 -0.104066 4.55387e-20)
(0.229958 -0.200748 -7.7486e-20)
(0.457735 -0.219484 -4.80898e-20)
(-0.0478528 0.103136 -7.65673e-20)
(-0.0623033 0.165899 -6.31147e-20)
(-0.0382996 0.167618 -1.06179e-19)
(0.0132557 0.146481 4.10084e-20)
(0.0976654 0.100711 -8.13986e-20)
(0.245238 0.0674483 6.54572e-20)
(0.374436 -0.0180234 2.41066e-21)
(0.631971 -0.0557266 2.31126e-21)
(0.692234 -0.135993 1.39255e-19)
(0.954336 -0.12838 -9.32684e-20)
(-0.0501377 0.0692502 0)
(-0.0643725 0.120229 6.3271e-20)
(-0.013524 0.123289 1.05366e-19)
(0.104747 0.104217 -1.31302e-19)
(0.308144 0.0732136 0)
(0.539784 0.0377741 1.92234e-19)
(0.78972 0.0102539 -1.54866e-19)
(1.00126 -0.0212023 1.31597e-19)
(1.13395 -0.0538431 -1.23369e-19)
(1.26794 -0.0459844 5.21664e-20)
(-0.228253 -0.380975 -8.60009e-21)
(-0.172883 -0.372834 0)
(-0.14404 -0.331288 1.88005e-22)
(-0.0529367 -0.207145 0)
(0.0483147 -0.0149177 1.60694e-22)
(0.185174 0.235316 0)
(0.36047 0.411754 3.58565e-21)
(0.464928 0.516015 -3.33559e-21)
(0.349787 0.722635 0)
(0.3077 0.576559 -1.25809e-22)
(0.672133 0.000635726 0)
(0.833804 -0.286723 2.04224e-21)
(0.87558 -0.475451 5.70036e-23)
(0.85755 -0.689667 -1.41746e-21)
(0.941075 -0.408106 -3.10322e-22)
(1.057 0.291027 3.75708e-22)
(1.04826 0.668151 0)
(0.996742 0.390246 0)
(0.899517 -0.132146 0)
(0.765755 -0.416401 0)
(0.772381 -0.237535 0)
(0.803713 0.0599466 -4.42459e-23)
(0.80022 0.239347 4.13747e-23)
(0.768779 0.219436 -5.49749e-23)
(0.826847 0.0207614 0)
(-0.0742118 -0.382553 -3.54564e-20)
(-0.0751808 -0.402113 2.49064e-20)
(-0.124301 -0.379207 -2.33387e-20)
(-0.1135 -0.281963 1.76608e-20)
(-0.0942502 -0.107273 -9.30051e-22)
(-0.0135303 0.114194 -2.71532e-20)
(0.120147 0.305651 1.17381e-20)
(0.237655 0.52357 0)
(0.166543 0.729898 3.16732e-22)
(0.412043 0.436694 1.28083e-22)
(0.794786 -0.109443 0)
(0.928958 -0.311464 -2.39442e-22)
(0.986503 -0.470013 -2.21174e-22)
(0.950466 -0.714837 5.615e-21)
(0.913458 -0.447752 -7.95016e-21)
(0.993989 0.282834 2.44805e-21)
(1.02103 0.675881 -2.21915e-21)
(0.993128 0.416773 3.78386e-22)
(0.925853 -0.0914378 1.81451e-22)
(0.786167 -0.398742 1.28869e-21)
(0.767641 -0.243936 -3.67008e-22)
(0.783249 0.0564415 0)
(0.772763 0.239785 0)
(0.767164 0.214573 -5.84676e-25)
(0.839547 0.0153638 -5.33613e-23)
(0.361061 -0.282026 1.36874e-19)
(0.311159 -0.3465 -1.3626e-20)
(0.200485 -0.356868 -4.01203e-20)
(0.109677 -0.321172 0)
(0.0180598 -0.183604 -1.43744e-20)
(0.0453841 -0.018804 1.33277e-20)
(0.117428 0.152233 0)
(0.180366 0.440919 0)
(0.204518 0.693578 -3.29653e-22)
(0.616712 0.332293 0)
(0.939498 -0.198138 -7.19729e-22)
(1.0724 -0.342719 0)
(1.09993 -0.426614 -6.34082e-21)
(1.03351 -0.664838 -3.79846e-23)
(0.913677 -0.480503 -1.09934e-21)
(0.947455 0.207023 6.98712e-21)
(0.958863 0.634547 5.24939e-22)
(0.962444 0.448829 2.62541e-22)
(0.955965 -0.0343974 0)
(0.821682 -0.367585 1.73486e-22)
(0.757947 -0.245348 -4.17038e-23)
(0.755628 0.0534114 0)
(0.744102 0.23836 1.70718e-23)
(0.768109 0.20706 1.37191e-22)
(0.856197 0.00920664 5.3205e-23)
(0.900492 -0.185618 5.72137e-22)
(0.830115 -0.214133 0)
(0.707672 -0.207142 0)
(0.568499 -0.185592 -8.77198e-21)
(0.399296 -0.136049 8.31941e-21)
(0.304644 -0.0720136 0)
(0.299494 0.0809723 -4.05846e-23)
(0.287129 0.337317 7.85243e-23)
(0.376788 0.528385 0)
(0.844135 0.198274 2.66121e-20)
(1.0826 -0.277271 -2.38825e-20)
(1.11446 -0.390916 0)
(1.09775 -0.416857 -3.89802e-22)
(1.03279 -0.635163 0)
(0.888011 -0.496955 1.40967e-20)
(0.894402 0.168707 -1.34985e-20)
(0.925541 0.626401 -3.81885e-21)
(0.951993 0.457614 4.73457e-21)
(0.975948 -0.00357428 -1.81798e-21)
(0.854454 -0.339449 0)
(0.745482 -0.243197 3.43569e-22)
(0.726311 0.0502599 -2.33893e-22)
(0.72008 0.23261 -4.04388e-22)
(0.77674 0.194821 9.18199e-23)
(0.87677 0.00168511 0)
(1.22934 -0.116642 6.84279e-20)
(1.17292 -0.135981 -6.33621e-20)
(1.1099 -0.13547 0)
(1.03723 -0.128529 -1.58883e-22)
(0.906102 -0.0631473 -5.76399e-23)
(0.776147 -0.0443598 3.33514e-21)
(0.682281 -0.0054845 -3.03847e-21)
(0.546822 0.223078 1.62488e-21)
(0.548918 0.428428 1.27328e-20)
(0.995273 0.208571 -1.32144e-20)
(1.23784 -0.192387 -2.07833e-20)
(1.1915 -0.335671 1.91763e-20)
(1.14374 -0.358099 1.18167e-20)
(1.02283 -0.568572 -2.18343e-20)
(0.890289 -0.519088 1.04388e-20)
(0.799396 0.0626027 -4.68059e-22)
(0.842889 0.560306 -6.09743e-21)
(0.878796 0.481597 4.35081e-21)
(0.988584 0.0603843 1.63134e-21)
(0.904818 -0.288715 -5.63856e-22)
(0.744816 -0.233955 5.60559e-22)
(0.697413 0.0447728 1.75652e-22)
(0.695932 0.223722 -1.12928e-22)
(0.790142 0.180108 -6.93698e-23)
(0.899597 -0.00611702 0)
(1.23994 -0.0312414 0)
(1.19516 -0.0499079 0)
(1.1423 -0.0518479 0)
(1.09106 -0.0505338 0)
(1.01821 0.0061983 0)
(1.00168 0.0566282 0)
(0.944448 0.0816393 0)
(0.878492 0.202785 0)
(0.91685 0.266339 0)
(1.23127 0.0669797 0)
(1.34267 -0.208529 0)
(1.21389 -0.28996 0)
(1.1969 -0.276363 0)
(1.02529 -0.522336 0)
(0.896363 -0.51917 0)
(0.775889 0.0467361 0)
(0.780584 0.54604 0)
(0.831819 0.468544 0)
(1.0006 0.06154 0)
(0.944474 -0.251385 0)
(0.747236 -0.2123 0)
(0.679335 0.0451939 0)
(0.68745 0.211008 0)
(0.81641 0.160516 0)
(0.925988 -0.0141714 0)
(1.16994 -0.0071729 0)
(1.14744 -0.0254955 0)
(1.11151 -0.04079 0)
(1.07976 -0.0333538 0)
(1.02443 0.00056754 0)
(1.05476 0.0362406 0)
(1.0312 0.0723995 0)
(1.05324 0.177925 0)
(1.1633 0.211757 0)
(1.3242 0.0236472 0)
(1.3347 -0.183961 0)
(1.1629 -0.254824 0)
(1.14337 -0.280044 0)
(1.01383 -0.480792 0)
(0.830505 -0.45062 0)
(0.774344 0.0821302 0)
(0.727783 0.545231 0)
(0.783024 0.437376 0)
(0.994153 0.0395684 0)
(0.980313 -0.223769 0)
(0.74699 -0.173561 0)
(0.654256 0.0577708 0)
(0.68422 0.196412 0)
(0.851832 0.137122 0)
(0.955907 -0.0233199 0)
(1.14806 0.0241751 0)
(1.14177 0.0146857 0)
(1.1115 -0.00549446 0)
(1.09241 0.00822524 0)
(1.04961 0.0237776 0)
(1.07234 0.0457258 0)
(1.06051 0.0802534 0)
(1.09937 0.116518 0)
(1.19982 0.123204 0)
(1.28004 -0.00170649 0)
(1.28652 -0.149761 0)
(1.14269 -0.203866 0)
(1.13546 -0.214455 0)
(1.06704 -0.389473 0)
(0.771079 -0.393853 0)
(0.678506 0.112575 0)
(0.593934 0.540289 0)
(0.74566 0.373082 0)
(0.988839 0.0038479 0)
(1.01866 -0.195677 0)
(0.781634 -0.131313 0)
(0.649755 0.0664413 0)
(0.707222 0.168748 0)
(0.909864 0.106296 0)
(0.994584 -0.0321793 0)
(1.12971 0.0418268 0)
(1.13147 0.0347979 0)
(1.11439 0.00917542 0)
(1.09945 0.0226059 0)
(1.08325 0.0191964 0)
(1.08418 0.0373535 0)
(1.09104 0.0621869 0)
(1.11475 0.0553707 0)
(1.17932 0.0809695 0)
(1.22397 -0.0176786 0)
(1.2198 -0.112055 0)
(1.13054 -0.147368 0)
(1.0601 -0.232096 0)
(1.00584 -0.335827 0)
(0.700928 -0.265754 0)
(0.510412 0.17699 0)
(0.530747 0.514024 0)
(0.847855 0.288067 0)
(1.03291 -0.0439786 0)
(1.02683 -0.167846 0)
(0.833196 -0.0720508 0)
(0.717033 0.0789274 0)
(0.800174 0.130207 0)
(0.999881 0.070621 0)
(1.04079 -0.0401067 0)
(1.11477 0.05174 0)
(1.12322 0.0467619 0)
(1.11762 0.0301711 0)
(1.10535 0.0334019 0)
(1.10481 0.0314301 0)
(1.09251 0.032744 0)
(1.11201 0.0505287 0)
(1.11835 0.0317919 0)
(1.1496 0.0411494 0)
(1.1878 -0.0149796 0)
(1.1576 -0.0987965 0)
(1.12733 -0.108886 0)
(1.07086 -0.145018 0)
(0.994122 -0.219593 0)
(0.753134 -0.128745 0)
(0.552994 0.204027 0)
(0.69617 0.393171 0)
(1.02074 0.17894 0)
(1.11359 -0.0592789 0)
(1.05928 -0.134673 0)
(0.924045 -0.0321917 0)
(0.874256 0.080752 0)
(0.955589 0.091257 0)
(1.1013 0.0450134 0)
(1.0848 -0.039529 0)
(1.10585 0.0546968 0)
(1.11317 0.0508144 0)
(1.11518 0.0373012 0)
(1.10744 0.0374622 0)
(1.11094 0.0307174 0)
(1.10257 0.0286189 0)
(1.1137 0.0352957 0)
(1.12239 0.0144835 0)
(1.12778 0.0207893 0)
(1.15678 -0.021297 0)
(1.13139 -0.0665722 0)
(1.09233 -0.0728 0)
(1.05556 -0.120464 0)
(0.982842 -0.158947 0)
(0.833322 -0.0305364 0)
(0.757712 0.190153 0)
(0.938367 0.269309 0)
(1.14402 0.104113 0)
(1.15459 -0.0598303 0)
(1.06632 -0.100532 0)
(0.978386 -0.00850597 0)
(0.998414 0.0713039 0)
(1.06741 0.0592376 0)
(1.15881 0.0315985 0)
(1.1088 -0.0341924 0)
(1.09841 0.0552252 0)
(1.10552 0.050264 0)
(1.10963 0.0416588 0)
(1.10668 0.037373 0)
(1.1103 0.0324273 0)
(1.10495 0.026208 0)
(1.11172 0.0274898 0)
(1.11497 0.01189 0)
(1.11405 0.0102643 0)
(1.12955 -0.0130078 0)
(1.10727 -0.0430296 0)
(1.08506 -0.048617 0)
(1.06827 -0.0598199 0)
(1.00171 -0.0736303 0)
(0.914123 0.0185007 0)
(0.925619 0.146876 0)
(1.06236 0.174818 0)
(1.17199 0.0699662 0)
(1.15757 -0.0255852 0)
(1.0791 -0.0576086 0)
(1.02138 -0.00309166 0)
(1.06205 0.0522868 0)
(1.10609 0.0355848 0)
(1.169 0.0300282 0)
(1.11787 -0.0212591 0)
(1.09678 0.0489337 0)
(1.10267 0.0442812 0)
(1.10691 0.0377115 0)
(1.10668 0.0326699 0)
(1.10852 0.0275828 0)
(1.1068 0.0208407 0)
(1.10824 0.0192402 0)
(1.11087 0.00671654 0)
(1.10709 0.00514894 0)
(1.11178 -0.011478 0)
(1.09874 -0.0249386 0)
(1.07991 -0.029623 0)
(1.066 -0.0359696 0)
(1.02819 -0.0395946 0)
(0.984409 0.0209207 0)
(1.01208 0.0877901 0)
(1.09527 0.109656 0)
(1.15285 0.0496846 0)
(1.14166 -0.0118093 0)
(1.09634 -0.0349411 0)
(1.05577 -0.00330528 0)
(1.08717 0.0328607 0)
(1.11184 0.0137503 0)
(1.1618 0.0241721 0)
(1.12099 -0.0155493 0)
(1.09714 0.049673 0)
(1.10207 0.045252 0)
(1.10552 0.0410211 0)
(1.10634 0.0356023 0)
(1.10724 0.0320892 0)
(1.10635 0.0254716 0)
(1.1062 0.02337 0)
(1.10671 0.0145584 0)
(1.10316 0.0118457 0)
(1.1047 0.00225866 0)
(1.09603 -0.00395023 0)
(1.08603 -0.00845154 0)
(1.07709 -0.00533255 0)
(1.05804 -0.00493906 0)
(1.03794 0.0311447 0)
(1.05575 0.0624931 0)
(1.09797 0.0762356 0)
(1.13519 0.0432187 0)
(1.13055 0.00979032 0)
(1.10647 -0.00706544 0)
(1.08019 0.00241903 0)
(1.10482 0.0271706 0)
(1.11352 0.00376919 0)
(1.15483 0.026213 0)
(1.12681 -0.00159698 0)
(1.10239 0.0367625 0)
(1.10672 0.032973 0)
(1.10956 0.0298437 0)
(1.11132 0.0251075 0)
(1.11171 0.0223018 0)
(1.11214 0.0166859 0)
(1.1112 0.0147984 0)
(1.1118 0.00804828 0)
(1.10907 0.00662297 0)
(1.10889 -0.000247632 0)
(1.1034 -0.00225602 0)
(1.09797 -0.0062897 0)
(1.0909 -0.00218024 0)
(1.08393 -0.00311974 0)
(1.07444 0.0180483 0)
(1.08635 0.0304373 0)
(1.10804 0.042162 0)
(1.1311 0.0256502 0)
(1.12842 0.00616702 0)
(1.12128 -0.00479469 0)
(1.10237 -0.00499457 0)
(1.12006 0.0118164 0)
(1.11723 -0.0138312 0)
(1.15185 0.0145673 0)
(1.13403 -0.00286711 0)
(1.10804 0.0432576 0)
(1.11158 0.040263 0)
(1.11401 0.0382812 0)
(1.11612 0.0344597 0)
(1.11668 0.0325337 0)
(1.11772 0.0280693 0)
(1.11706 0.0265771 0)
(1.1181 0.0215716 0)
(1.11631 0.0207107 0)
(1.11726 0.0155499 0)
(1.11412 0.0159287 0)
(1.1134 0.0117568 0)
(1.10919 0.0168502 0)
(1.10855 0.0146951 0)
(1.10408 0.0274763 0)
(1.11185 0.0311253 0)
(1.11972 0.0384905 0)
(1.13514 0.0295283 0)
(1.13299 0.0191376 0)
(1.13402 0.0139495 0)
(1.12111 0.00450639 0)
(1.13627 0.019709 0)
(1.12738 -0.0118426 0)
(1.15515 0.0166851 0)
(1.14649 0.0109732 0)
(1.12135 0.0197886 0)
(1.12467 0.0175051 0)
(1.12651 0.0163632 0)
(1.12888 0.0133947 0)
(1.12925 0.0124043 0)
(1.13108 0.00889617 0)
(1.13045 0.00841174 0)
(1.13239 0.00445978 0)
(1.13088 0.00480414 0)
(1.13302 0.000656602 0)
(1.13043 0.00229515 0)
(1.13235 -0.00167497 0)
(1.1288 0.00284537 0)
(1.1318 -0.000453359 0)
(1.12839 0.0079205 0)
(1.13624 0.00701237 0)
(1.13737 0.0130243 0)
(1.15047 0.00918762 0)
(1.14643 0.00357928 0)
(1.15378 0.00255893 0)
(1.1409 -0.00984909 0)
(1.1562 0.00470374 0)
(1.1408 -0.0283331 0)
(1.1578 -0.00198444 0)
(1.15952 0.00123923 0)
(1.14966 0.0357669 0)
(1.15239 0.0340027 0)
(1.15389 0.0331846 0)
(1.15661 0.0308793 0)
(1.15717 0.0301477 0)
(1.15975 0.0273797 0)
(1.15934 0.0270844 0)
(1.16224 0.0237904 0)
(1.161 0.0243039 0)
(1.16451 0.0205071 0)
(1.16246 0.022387 0)
(1.16664 0.0183263 0)
(1.16372 0.0219848 0)
(1.16924 0.0185674 0)
(1.16556 0.0233291 0)
(1.17427 0.0217266 0)
(1.17077 0.0243082 0)
(1.18274 0.02322 0)
(1.17745 0.0177376 0)
(1.18711 0.0223787 0)
(1.17539 0.00493531 0)
(1.19111 0.0217829 0)
(1.17313 -0.00663349 0)
(1.18325 0.00237866 0)
(1.1919 0.0127015 0)
(1.17368 -0.001866 0)
(1.17655 -0.00280172 0)
(1.17749 -0.00276747 0)
(1.18051 -0.00409706 0)
(1.1807 -0.00393039 0)
(1.18393 -0.00569891 0)
(1.18331 -0.00505313 0)
(1.18712 -0.00740843 0)
(1.18552 -0.00588744 0)
(1.19042 -0.00905074 0)
(1.18737 -0.00626833 0)
(1.19407 -0.00998954 0)
(1.18896 -0.00608098 0)
(1.19826 -0.00914597 0)
(1.19153 -0.00521402 0)
(1.20367 -0.00660655 0)
(1.19663 -0.00390517 0)
(1.2113 -0.00391653 0)
(1.20194 -0.00688941 0)
(1.21896 0.00179772 0)
(1.20454 -0.0183141 0)
(1.21808 0.00319574 0)
(1.21191 -0.0216289 0)
(1.20132 -0.0236818 0)
(1.21061 -0.00798687 0)
(1.29024 0.0236606 0)
(1.29326 0.0227311 0)
(1.293 0.0229853 0)
(1.29694 0.0217442 0)
(1.29571 0.0221395 0)
(1.30075 0.0207587 0)
(1.29802 0.0210605 0)
(1.30461 0.0198647 0)
(1.29979 0.0197382 0)
(1.30857 0.0190284 0)
(1.30103 0.0185293 0)
(1.31285 0.0179023 0)
(1.30186 0.0180744 0)
(1.31778 0.0160767 0)
(1.30251 0.0176502 0)
(1.3235 0.0158127 0)
(1.30471 0.0142731 0)
(1.32884 0.0199615 0)
(1.31171 0.008491 0)
(1.32862 0.0214678 0)
(1.32598 0.012391 0)
(1.32194 0.0114897 0)
(1.33578 0.0209714 0)
(1.32112 0.00727204 0)
(1.31767 0.0054474 0)
(1.14177 0.157582 6.34891e-22)
(1.14692 0.140856 3.37293e-20)
(1.20834 0.106204 -7.96126e-20)
(1.14932 0.0768055 -3.62517e-22)
(1.21225 0.0107118 0)
(1.15248 0.148718 2.80117e-21)
(1.11132 0.131378 -1.33988e-20)
(1.17326 0.0990729 3.13811e-20)
(1.14761 0.0839387 2.90261e-20)
(1.14722 0.0295383 -3.53527e-20)
(1.13188 0.122245 0)
(1.11168 0.117286 2.5864e-22)
(1.12879 0.0847362 1.61908e-20)
(1.14125 0.0834728 -2.57278e-20)
(1.13053 0.0482558 6.86788e-21)
(1.10396 0.105474 7.50386e-23)
(1.11118 0.112868 4.53489e-21)
(1.10586 0.0812767 -1.42572e-20)
(1.12522 0.0828848 1.24132e-20)
(1.12302 0.0643354 2.0735e-20)
(1.09063 0.0931018 0)
(1.10158 0.0997178 -3.87586e-21)
(1.09852 0.0795532 2.49693e-22)
(1.10594 0.0753026 -1.85183e-20)
(1.10908 0.0676331 0)
(1.08609 0.0851309 -3.73684e-22)
(1.09162 0.0860974 1.75623e-22)
(1.09174 0.0750228 1.53156e-23)
(1.09486 0.068179 6.50754e-21)
(1.09716 0.0647952 -1.85021e-22)
(1.08536 0.0788428 3.91672e-22)
(1.08775 0.0749033 0)
(1.08808 0.0704181 6.61945e-22)
(1.09098 0.0635617 0)
(1.09116 0.0620756 -2.42185e-21)
(1.08717 0.0691008 -6.43461e-23)
(1.08961 0.0642677 -8.82602e-23)
(1.08857 0.0614667 -5.76845e-22)
(1.09218 0.055956 0)
(1.09041 0.0540542 2.08719e-21)
(1.0898 0.064423 -2.95013e-23)
(1.09254 0.0600801 1.13848e-22)
(1.09077 0.0583311 4.16166e-22)
(1.0941 0.0543338 -1.71111e-23)
(1.09219 0.0531176 5.98348e-22)
(1.09579 0.0486052 0)
(1.09845 0.0454096 0)
(1.09684 0.0435982 -1.13133e-21)
(1.09999 0.0408134 0)
(1.09842 0.0392875 -1.81023e-21)
(1.10352 0.0513608 0)
(1.10603 0.0490468 2.00617e-22)
(1.10467 0.047721 -6.4919e-22)
(1.10691 0.0458261 -6.68977e-22)
(1.10525 0.044857 1.12518e-21)
(1.11699 0.0252701 0)
(1.11931 0.0236708 2.16891e-22)
(1.11792 0.0226864 -1.36698e-22)
(1.12025 0.0214489 7.67127e-22)
(1.11885 0.0207413 -7.17204e-22)
(1.14673 0.0400245 -2.42787e-22)
(1.14899 0.0390494 4.91958e-22)
(1.14811 0.0380567 1.3693e-21)
(1.14974 0.0373363 3.46688e-24)
(1.14823 0.036426 7.90996e-22)
(1.16917 -0.00152635 2.29041e-22)
(1.1715 -0.00197506 -4.62065e-24)
(1.17134 -0.00201822 -1.06568e-21)
(1.17307 -0.00214684 4.31259e-22)
(1.17238 -0.00192144 -4.14509e-22)
(1.28659 0.0258023 0)
(1.28808 0.0256395 0)
(1.28892 0.0247719 -1.99856e-22)
(1.28963 0.0247318 0)
(1.2901 0.0235671 0)
(0.983546 0.251951 1.0541e-20)
(0.980165 0.274242 -1.25473e-20)
(0.957993 0.29902 6.36006e-21)
(0.94107 0.334346 -1.35915e-20)
(0.936557 0.382773 3.83907e-21)
(0.936333 0.438433 0)
(0.927614 0.506427 0)
(0.924118 0.591312 -2.72552e-20)
(0.90992 0.680125 1.81929e-21)
(0.645105 0.597492 0)
(0.993304 0.237999 1.66298e-21)
(1.00319 0.269702 0)
(1.01119 0.302905 -4.85983e-21)
(1.01747 0.340336 -7.53546e-21)
(1.02102 0.384248 -1.78745e-20)
(1.02403 0.433698 6.3569e-21)
(1.02931 0.495574 -1.07353e-20)
(1.04809 0.578145 3.99418e-20)
(1.04561 0.637888 3.12167e-20)
(0.723784 0.518365 -7.38604e-20)
(1.06698 0.245187 -1.82276e-20)
(1.06609 0.267693 1.12678e-20)
(1.06329 0.291391 -8.58122e-21)
(1.0638 0.323703 -1.87286e-20)
(1.08001 0.366549 5.26723e-20)
(1.10469 0.414335 -2.48495e-20)
(1.12648 0.465953 5.15254e-20)
(1.14931 0.530838 -1.03678e-19)
(1.13158 0.559655 -1.55377e-20)
(0.733438 0.40439 8.00174e-20)
(1.06787 0.222955 -1.22027e-21)
(1.09518 0.247986 -3.46937e-21)
(1.11571 0.276567 2.31269e-20)
(1.13445 0.307097 -2.014e-20)
(1.14994 0.339417 2.4129e-20)
(1.16748 0.375575 -1.0796e-20)
(1.19376 0.417375 0)
(1.22274 0.467465 4.99044e-20)
(1.16017 0.461421 -6.06612e-20)
(0.661536 0.275641 -2.41311e-20)
(1.1466 0.217987 7.8501e-21)
(1.15167 0.228857 6.67783e-21)
(1.15477 0.248871 -7.96208e-21)
(1.16157 0.271735 0)
(1.18677 0.30268 0)
(1.22342 0.334606 1.08183e-20)
(1.25485 0.365306 0)
(1.24977 0.388118 0)
(1.10089 0.351633 0)
(0.490976 0.149479 -2.42796e-20)
(0.816037 0.0843164 -5.97493e-23)
(0.78721 0.0881264 1.00234e-20)
(0.750533 0.0934212 -1.19526e-20)
(0.707374 0.0999795 0)
(0.651923 0.108139 0)
(0.587263 0.118494 -1.44147e-20)
(0.502195 0.13213 0)
(0.404407 0.149195 0)
(0.262873 0.174961 0)
(0.0970892 0.15968 2.11887e-20)
(0.830568 0.127519 2.00244e-20)
(0.805296 0.137976 -3.65425e-20)
(0.771646 0.152135 4.35758e-20)
(0.73205 0.169709 -3.22545e-20)
(0.683161 0.191793 3.86464e-20)
(0.626629 0.218554 1.43776e-20)
(0.550877 0.253473 0)
(0.462928 0.29599 4.92387e-20)
(0.33212 0.358628 -5.98291e-20)
(0.155178 0.33311 -5.95461e-20)
(0.854696 0.169641 -2.20543e-20)
(0.83589 0.18512 3.08012e-20)
(0.806159 0.205371 -5.35588e-20)
(0.766702 0.229829 -7.54199e-20)
(0.720311 0.262095 9.89631e-20)
(0.675006 0.303238 -4.21168e-20)
(0.615573 0.356671 5.87566e-20)
(0.549532 0.421176 -1.07692e-19)
(0.443403 0.514676 1.06912e-21)
(0.252912 0.480503 5.27703e-20)
(0.884865 0.202462 2.69712e-20)
(0.874768 0.225383 -4.43304e-20)
(0.86034 0.254956 1.68415e-20)
(0.836286 0.28692 6.94999e-21)
(0.794078 0.322936 -6.901e-20)
(0.751005 0.369234 2.89272e-20)
(0.705843 0.434305 4.0105e-23)
(0.662762 0.512562 4.5359e-20)
(0.588836 0.622607 -1.23262e-20)
(0.382251 0.581645 -1.91017e-20)
(0.92704 0.222232 -2.43414e-20)
(0.9069 0.241112 2.89703e-20)
(0.887105 0.275044 -1.88107e-20)
(0.883055 0.318785 6.06338e-20)
(0.87211 0.366451 -8.45581e-21)
(0.846343 0.416833 0)
(0.811868 0.484654 1.36798e-20)
(0.790726 0.571271 -1.65523e-20)
(0.75118 0.678617 1.23543e-20)
(0.521287 0.621702 0)
(0.981638 0.155325 4.85389e-22)
(0.98287 0.148206 2.67546e-22)
(0.983408 0.121063 1.57511e-22)
(0.975065 0.118212 -1.78412e-22)
(0.974717 0.096337 2.09764e-22)
(0.967322 0.0965713 0)
(0.967685 0.0838303 0)
(0.960179 0.0819715 -1.9855e-22)
(0.95466 0.0766932 1.04286e-21)
(0.943506 0.0742661 -2.5279e-21)
(0.930647 0.0740482 -2.03389e-22)
(0.91325 0.0727389 4.21879e-21)
(0.89396 0.0756802 -2.39525e-21)
(0.870055 0.0763694 2.1529e-22)
(0.844193 0.0818965 -5.00082e-21)
(0.980685 0.157103 -9.36199e-22)
(0.979381 0.145023 -3.0212e-22)
(0.98377 0.124903 1.29644e-21)
(0.974364 0.115683 -3.45821e-22)
(0.97569 0.101423 7.10175e-22)
(0.968019 0.0937036 -7.68972e-22)
(0.968681 0.0898353 -3.22785e-22)
(0.961426 0.0810573 2.01506e-22)
(0.95604 0.0852355 -2.49692e-22)
(0.94598 0.0778852 -5.70202e-21)
(0.933666 0.0874111 6.14667e-21)
(0.917693 0.0839813 8.60498e-21)
(0.899745 0.0978903 -2.1679e-20)
(0.877961 0.100484 -1.78968e-21)
(0.854446 0.119973 -1.44369e-21)
(0.982234 0.158967 4.79843e-22)
(0.975001 0.142343 0)
(0.984017 0.127466 -6.3907e-22)
(0.974225 0.113495 -4.1443e-22)
(0.976212 0.104526 0)
(0.969609 0.0914259 -2.87338e-22)
(0.968727 0.0938551 3.32132e-22)
(0.962637 0.0809504 0)
(0.955685 0.0925896 -9.04719e-21)
(0.947236 0.0831215 1.07091e-20)
(0.93422 0.10101 0)
(0.921266 0.0979896 2.68028e-22)
(0.905157 0.121475 0)
(0.888613 0.126488 -2.7747e-20)
(0.870013 0.158349 6.5486e-20)
(0.983316 0.160943 0)
(0.974991 0.139518 6.01895e-23)
(0.980789 0.129873 7.42895e-22)
(0.977377 0.110527 0)
(0.975617 0.107945 2.05603e-21)
(0.972505 0.0885584 -2.05555e-21)
(0.969075 0.0982324 0)
(0.964822 0.0789819 -4.48428e-22)
(0.9562 0.098468 8.17503e-22)
(0.950557 0.0834166 1.1036e-20)
(0.936975 0.110192 -1.3066e-20)
(0.928359 0.104297 -1.75062e-20)
(0.914128 0.139367 -1.31723e-21)
(0.903599 0.143672 2.45438e-20)
(0.891995 0.189219 1.99066e-22)
(0.982979 0.162613 0)
(0.976573 0.137628 -7.0932e-22)
(0.980499 0.130187 0)
(0.977882 0.107899 0)
(0.977581 0.108718 0)
(0.974551 0.0873963 -3.27283e-22)
(0.969828 0.100737 0)
(0.966304 0.0814096 4.80766e-22)
(0.956485 0.104107 9.56463e-21)
(0.951208 0.0931677 -1.13893e-20)
(0.940295 0.122699 -1.47365e-20)
(0.933976 0.120845 1.69896e-20)
(0.926492 0.159289 2.02232e-20)
(0.922923 0.164837 -4.54744e-20)
(0.923852 0.215402 2.52977e-20)
(0.983144 0.163575 0)
(0.976269 0.136218 0)
(0.981482 0.132307 0)
(0.980697 0.105788 0)
(0.975897 0.11046 0)
(0.980664 0.0851784 0)
(0.96838 0.102059 0)
(0.972418 0.0785651 0)
(0.957236 0.105514 0)
(0.961043 0.0899672 0)
(0.945096 0.127604 0)
(0.949849 0.116317 0)
(0.941961 0.167693 0)
(0.950345 0.159287 0)
(0.960327 0.223659 0)
(0.983587 0.164953 0)
(0.978685 0.134699 0)
(0.978476 0.1338 0)
(0.986753 0.104701 0)
(0.976648 0.112335 0)
(0.98153 0.0840945 0)
(0.97524 0.105339 0)
(0.969141 0.0793143 0)
(0.969766 0.109591 0)
(0.959456 0.0921423 0)
(0.962684 0.130962 0)
(0.954837 0.117842 0)
(0.967584 0.164439 0)
(0.962278 0.154863 0)
(0.989176 0.198978 0)
(0.980262 0.166258 0)
(0.985553 0.133483 0)
(0.977517 0.135277 0)
(0.986365 0.102092 0)
(0.986887 0.115803 0)
(0.978845 0.0827666 0)
(0.987494 0.108347 0)
(0.968714 0.0812813 0)
(0.983796 0.111765 0)
(0.962668 0.0952438 0)
(0.977855 0.130705 0)
(0.967374 0.117592 0)
(0.983565 0.156816 0)
(0.982741 0.145596 0)
(1.00168 0.179205 0)
(0.976293 0.167424 0)
(0.986947 0.131091 0)
(0.98321 0.138251 0)
(0.982966 0.0976981 0)
(0.991115 0.117885 0)
(0.984127 0.0834744 0)
(0.991209 0.108339 0)
(0.981768 0.084472 0)
(0.988766 0.11178 0)
(0.979519 0.0988996 0)
(0.985896 0.126822 0)
(0.987303 0.115546 0)
(0.993443 0.146544 0)
(1.0048 0.134629 0)
(1.0109 0.161223 0)
(0.976016 0.169412 0)
(0.986444 0.127088 0)
(0.985559 0.141273 0)
(0.989234 0.0955097 0)
(0.985259 0.116405 0)
(0.992536 0.085128 0)
(0.988962 0.105973 0)
(0.994295 0.0869561 0)
(0.990882 0.110499 0)
(0.995779 0.100628 0)
(0.995644 0.121756 0)
(1.00366 0.112126 0)
(1.0056 0.13492 0)
(1.02017 0.124119 0)
(1.02208 0.143056 0)
(0.976071 0.170774 0)
(0.991478 0.123754 0)
(0.982797 0.141832 0)
(1.00039 0.0970196 0)
(0.984504 0.113588 0)
(0.999453 0.0865549 0)
(0.990458 0.1027 0)
(1.00209 0.0879217 0)
(0.996102 0.107011 0)
(1.00747 0.0994605 0)
(1.007 0.115021 0)
(1.0169 0.106968 0)
(1.01832 0.122579 0)
(1.03182 0.113788 0)
(1.03338 0.125989 0)
(0.975084 0.171709 0)
(0.996706 0.120863 0)
(0.981272 0.139696 0)
(1.00685 0.0982856 0)
(0.991328 0.111045 0)
(1.00666 0.0875744 0)
(0.997866 0.0997494 0)
(1.01066 0.0874009 0)
(1.00549 0.10212 0)
(1.01839 0.0954814 0)
(1.01857 0.107186 0)
(1.02936 0.100501 0)
(1.0302 0.110983 0)
(1.04241 0.10424 0)
(1.04361 0.111795 0)
(0.974943 0.170794 0)
(0.998445 0.120356 0)
(0.983119 0.13448 0)
(1.0092 0.0988329 0)
(0.998632 0.106203 0)
(1.01376 0.0880553 0)
(1.00767 0.0948885 0)
(1.02067 0.0850263 0)
(1.01714 0.0937696 0)
(1.02981 0.088541 0)
(1.0301 0.0957292 0)
(1.04125 0.0907345 0)
(1.0418 0.0966992 0)
(1.05277 0.0918908 0)
(1.05409 0.0957478 0)
(0.975951 0.168921 0)
(0.999696 0.119852 0)
(0.98768 0.128423 0)
(1.01175 0.0981871 0)
(1.00496 0.10233 0)
(1.02025 0.0879919 0)
(1.01681 0.0926995 0)
(1.03008 0.0840095 0)
(1.02825 0.0897236 0)
(1.04003 0.0846887 0)
(1.04034 0.0896632 0)
(1.05102 0.0851262 0)
(1.05148 0.0890494 0)
(1.06114 0.084821 0)
(1.06206 0.0874196 0)
(0.976704 0.165428 0)
(1.00258 0.119613 0)
(0.994852 0.118205 0)
(1.01783 0.0928768 0)
(1.01411 0.0907003 0)
(1.03002 0.0784686 0)
(1.02848 0.0792371 0)
(1.04186 0.0719101 0)
(1.04137 0.0737559 0)
(1.05253 0.0693306 0)
(1.05297 0.0712887 0)
(1.06288 0.0675807 0)
(1.06349 0.0690431 0)
(1.07218 0.065775 0)
(1.07295 0.0666477 0)
(0.977977 0.160213 0)
(1.00481 0.120375 0)
(1.00217 0.114614 0)
(1.02317 0.0954243 0)
(1.023 0.0920984 0)
(1.03903 0.0816418 0)
(1.03978 0.0813687 0)
(1.05272 0.0750902 0)
(1.05375 0.07577 0)
(1.06412 0.0715743 0)
(1.06513 0.0724541 0)
(1.07397 0.0689856 0)
(1.07487 0.0696481 0)
(1.08237 0.0666147 0)
(1.08303 0.0670146 0)
(0.978205 0.149243 0)
(1.0132 0.105707 0)
(1.01541 0.0911161 0)
(1.03794 0.0720364 0)
(1.03856 0.0657343 0)
(1.05546 0.0552143 0)
(1.0566 0.052889 0)
(1.06983 0.0468602 0)
(1.0707 0.0461429 0)
(1.08104 0.042242 0)
(1.08165 0.0421858 0)
(1.09026 0.0392271 0)
(1.0907 0.0392898 0)
(1.09784 0.0368624 0)
(1.09783 0.0369049 0)
(0.978716 0.145968 0)
(1.02386 0.112541 0)
(1.03471 0.0981168 0)
(1.05927 0.0835182 0)
(1.06414 0.0765137 0)
(1.08176 0.0684585 0)
(1.08562 0.0648603 0)
(1.09883 0.060184 0)
(1.10138 0.0583579 0)
(1.11132 0.0553469 0)
(1.11298 0.0543648 0)
(1.12085 0.0521772 0)
(1.12192 0.0514679 0)
(1.12816 0.0497179 0)
(1.12856 0.0491255 0)
(0.980478 0.0963866 0)
(1.0397 0.0585961 0)
(1.0547 0.0424015 0)
(1.08022 0.0269996 0)
(1.08655 0.0214898 0)
(1.10418 0.0144014 0)
(1.10895 0.0127628 0)
(1.12202 0.00908769 0)
(1.12497 0.00893742 0)
(1.13457 0.00655595 0)
(1.13634 0.00683648 0)
(1.14375 0.00508738 0)
(1.14476 0.00539738 0)
(1.15047 0.0039696 0)
(1.15069 0.00422546 0)
(0.982725 0.105422 0)
(1.1316 0.0785876 0)
(1.15811 0.0606152 0)
(1.18839 0.0510676 0)
(1.20255 0.0436025 0)
(1.22144 0.0401281 0)
(1.23009 0.0364333 0)
(1.24252 0.0347406 0)
(1.24729 0.0326772 0)
(1.25555 0.0321008 0)
(1.25836 0.0305518 0)
(1.26421 0.0302631 0)
(1.26592 0.0291063 0)
(1.27013 0.0289083 0)
(1.27101 0.028037 0)
(0.976861 0.215239 0)
(1.01729 0.197961 -3.86519e-23)
(1.0655 0.202679 1.90101e-20)
(1.07915 0.18526 -8.58455e-21)
(1.12682 0.184449 -4.23513e-22)
(0.986417 0.190696 -4.91749e-21)
(1.04875 0.189178 -1.85533e-21)
(1.0527 0.188401 -8.21338e-21)
(1.10757 0.177422 5.97086e-21)
(1.092 0.169337 -2.28844e-21)
(1.00856 0.169803 1.43239e-21)
(1.05459 0.170963 1.5541e-21)
(1.05443 0.161188 -5.9731e-21)
(1.10861 0.150271 -5.08737e-21)
(1.08568 0.142416 0)
(1.02886 0.150882 2.43896e-21)
(1.05215 0.152615 -1.518e-21)
(1.06681 0.143783 5.05517e-21)
(1.09245 0.132699 -2.90363e-21)
(1.09123 0.130983 5.70583e-23)
(1.04121 0.133875 0)
(1.05389 0.133847 2.22121e-21)
(1.07365 0.125729 6.35867e-23)
(1.07998 0.115149 2.55941e-21)
(1.09195 0.114583 0)
(1.04959 0.118312 6.48643e-24)
(1.05966 0.116881 -8.84564e-22)
(1.07519 0.109404 -2.98514e-23)
(1.07687 0.101817 1.02758e-22)
(1.08775 0.0995836 2.3094e-22)
(1.05688 0.105469 -1.47829e-21)
(1.0658 0.102948 0)
(1.0764 0.0962165 -3.00387e-23)
(1.07829 0.0911806 2.05113e-22)
(1.08527 0.0864557 -3.21279e-22)
(1.06555 0.0909247 1.27369e-21)
(1.07338 0.087871 -1.15521e-21)
(1.0806 0.0825436 2.61766e-23)
(1.08251 0.0785321 1.06372e-22)
(1.08706 0.0737111 2.27902e-23)
(1.07185 0.0829938 1.089e-22)
(1.07835 0.0796375 8.99481e-22)
(1.08433 0.0749507 -7.6648e-22)
(1.08601 0.0716846 -1.86302e-22)
(1.0899 0.0672759 4.43465e-23)