/*--------------------------------*- C++ -*----------------------------------*\
| =========                 |                                                 |
| \\      /  F ield         | OpenFOAM: The Open Source CFD Toolbox           |
|  \\    /   O peration     | Version:  2312                                  |
|   \\  /    A nd           | Website:  www.openfoam.com                      |
|    \\/     M anipulation  |                                                 |
\*---------------------------------------------------------------------------*/
FoamFile
{
    version     2.0;
    format      ascii;
    arch        "LSB;label=32;scalar=64";
    class       volVectorField;
    location    "36";
    object      U;
}
// * * * * * * * * * * * * * * * * * * * * * * * * * * * * * * * * * * * * * //

dimensions      [0 1 -1 0 0 0 0];

internalField   nonuniform List<vector> 
940
(
(-0.131676 0.0365056 1.17184e-19)
(0.114195 0.0522521 0)
(0.529996 0.111784 6.78155e-20)
(0.824224 0.130095 -4.92991e-20)
(1.04633 0.1874 -6.44985e-20)
(1.24284 0.184653 4.75271e-20)
(-0.0792664 0.0187437 -1.58481e-19)
(0.709804 0.130943 5.9818e-21)
(1.04946 0.23719 -4.20733e-20)
(1.21501 0.273643 4.53931e-20)
(1.2741 0.273482 0)
(1.23119 0.2572 -3.44424e-20)
(0.37134 0.22244 -1.84146e-20)
(1.08092 0.30439 -9.41599e-21)
(1.18084 0.378461 4.53915e-20)
(1.13804 0.29372 -2.58887e-20)
(1.0805 0.262396 1.17956e-20)
(1.06151 0.229616 0)
(-0.0879662 0.0514783 1.60655e-20)
(-0.180707 0.0185864 -1.14899e-20)
(-0.267423 0.00108046 7.49134e-22)
(-0.276876 -0.0263425 4.19132e-20)
(-0.31682 0.00321435 -2.06693e-20)
(-0.248232 -0.0434243 0)
(-0.0790737 0.131028 3.48642e-20)
(-0.0543414 0.138972 2.20655e-21)
(-0.142925 0.118372 1.97445e-20)
(0.0375593 0.0880234 3.29757e-22)
(-0.0368379 0.0586009 -4.14262e-20)
(0.273293 0.040928 5.41705e-20)
(-0.110429 0.0936525 -3.64679e-20)
(-0.056099 0.143882 0)
(0.0278165 0.0824005 -7.44174e-20)
(0.427337 0.104172 5.41001e-20)
(0.392456 0.0626423 7.80988e-20)
(0.888965 0.114918 -5.74999e-20)
(-0.252266 0.0156583 0)
(-0.24838 0.0522433 1.77907e-20)
(-0.249263 0.022374 -5.03846e-22)
(-0.213319 0.00862824 -2.65706e-20)
(-0.179537 -0.123674 1.60657e-20)
(-0.138271 -0.143758 -4.23531e-21)
(-0.096445 0.0723648 0)
(0.00164193 0.26928 -1.1655e-21)
(0.290191 0.18064 1.03949e-21)
(0.65816 -0.0473134 8.98596e-23)
(0.872212 -0.176516 3.45556e-23)
(0.944374 -0.164335 0)
(0.99177 -0.135954 0)
(1.01607 -0.0851013 0)
(1.02145 -0.0824947 0)
(0.996458 -0.0483723 -4.98161e-24)
(0.146399 0.0462627 -4.0978e-20)
(0.175078 0.0547289 4.02264e-20)
(0.164647 0.0272973 -3.57224e-20)
(0.142111 -0.00726841 3.13483e-20)
(0.207722 -0.117172 -2.74212e-20)
(0.164112 -0.136911 0)
(0.118113 0.0171236 0)
(0.255621 0.135977 1.63201e-22)
(0.650458 0.0158985 0)
(0.924667 -0.131494 1.34581e-21)
(0.960998 -0.193414 -1.31515e-21)
(0.927463 -0.162703 -3.04217e-23)
(0.921701 -0.136211 0)
(0.970827 -0.0864106 -7.84214e-25)
(1.0168 -0.0734883 0)
(1.01668 -0.0403091 4.9708e-24)
(0.819154 0.0950981 -3.63657e-22)
(0.750668 0.0744384 0)
(0.774293 0.0506956 8.10351e-20)
(0.697295 0.0301367 -7.13352e-20)
(0.801095 -0.106343 -5.08434e-20)
(0.803275 -0.160286 4.44581e-20)
(0.632375 -0.0474048 0)
(0.738571 0.0127325 -1.81131e-22)
(1.01566 -0.0946924 -4.16497e-21)
(1.066 -0.163592 3.66447e-21)
(0.990567 -0.182838 0)
(0.927306 -0.157008 3.23611e-23)
(0.898904 -0.146731 -2.6887e-23)
(0.90837 -0.10682 2.43581e-23)
(0.935056 -0.0911979 0)
(0.975437 -0.0473342 0)
(1.24051 0.159373 0)
(1.20345 0.131139 0)
(1.20973 0.0820952 0)
(1.15515 0.050448 0)
(1.17629 -0.0597507 0)
(1.12237 -0.077815 0)
(1.016 -0.0156683 0)
(1.09386 -0.0156229 0)
(1.15793 -0.0847265 0)
(1.08465 -0.115327 0)
(1.01511 -0.146502 0)
(0.985566 -0.13914 0)
(0.980906 -0.135985 0)
(0.975735 -0.100575 0)
(0.975329 -0.0900384 0)
(0.98637 -0.0492093 0)
(1.20789 0.148091 0)
(1.22439 0.125143 0)
(1.22781 0.0715572 0)
(1.2091 0.0512066 0)
(1.20267 -0.0385223 0)
(1.1337 -0.0723673 0)
(1.0909 -0.0372388 0)
(1.12928 -0.0345233 0)
(1.11692 -0.0857183 0)
(1.06706 -0.113933 0)
(1.01462 -0.149727 0)
(0.979136 -0.148225 0)
(0.965517 -0.146867 0)
(0.975775 -0.108402 0)
(0.987073 -0.0944425 0)
(0.996263 -0.050441 0)
(1.17441 0.132841 0)
(1.19754 0.111176 0)
(1.20239 0.075645 0)
(1.19763 0.0484914 0)
(1.19119 0.00230165 0)
(1.15063 -0.0233486 0)
(1.11116 -0.0240859 0)
(1.11099 -0.021894 0)
(1.10666 -0.0598934 0)
(1.07535 -0.0871448 0)
(1.03375 -0.118111 0)
(1.00331 -0.118565 0)
(0.978628 -0.126988 0)
(0.970834 -0.10061 0)
(0.974758 -0.0921755 0)
(0.990779 -0.0509611 0)
(1.15336 0.122765 0)
(1.16997 0.109895 0)
(1.17584 0.0785486 0)
(1.17136 0.0569305 0)
(1.15952 0.0210599 0)
(1.14181 -0.0082013 0)
(1.11694 -0.0190283 0)
(1.10886 -0.0223174 0)
(1.10186 -0.0567861 0)
(1.07504 -0.0763097 0)
(1.03683 -0.115142 0)
(1.01135 -0.128786 0)
(0.998953 -0.13927 0)
(0.997104 -0.109836 0)
(0.999037 -0.0995946 0)
(1.00453 -0.0539172 0)
(1.13215 0.0976364 0)
(1.1474 0.087143 0)
(1.15903 0.0669578 0)
(1.16118 0.0514257 0)
(1.15964 0.0268889 0)
(1.1515 0.0150563 0)
(1.13135 -0.00608389 0)
(1.1193 -0.0109007 0)
(1.105 -0.0380455 0)
(1.08809 -0.0610576 0)
(1.0613 -0.0922317 0)
(1.03581 -0.102105 0)
(1.01534 -0.120142 0)
(1.00727 -0.10136 0)
(1.00641 -0.0952387 0)
(1.00834 -0.0543586 0)
(1.1177 0.0862106 0)
(1.13028 0.0817932 0)
(1.13724 0.0676108 0)
(1.14188 0.0593001 0)
(1.13836 0.0408899 0)
(1.13527 0.0298128 0)
(1.12584 0.0113827 0)
(1.11944 0.00448375 0)
(1.10999 -0.0202168 0)
(1.09521 -0.0374313 0)
(1.0678 -0.0754758 0)
(1.04976 -0.0972375 0)
(1.03541 -0.119634 0)
(1.02721 -0.102131 0)
(1.02388 -0.0963581 0)
(1.02295 -0.0524436 0)
(1.11797 0.0512332 0)
(1.12752 0.0498585 0)
(1.13432 0.0407469 0)
(1.14036 0.0385791 0)
(1.14163 0.0256431 0)
(1.14345 0.0234116 0)
(1.13893 0.00931536 0)
(1.13615 0.00462288 0)
(1.12522 -0.0162676 0)
(1.11688 -0.0334668 0)
(1.09925 -0.0658925 0)
(1.07973 -0.0858439 0)
(1.06029 -0.110491 0)
(1.04631 -0.100336 0)
(1.0404 -0.0967243 0)
(1.03007 -0.0575965 0)
(1.13217 0.0564724 0)
(1.13962 0.0570279 0)
(1.14297 0.0504492 0)
(1.14979 0.0506326 0)
(1.14974 0.0413652 0)
(1.15433 0.0403064 0)
(1.15086 0.0300878 0)
(1.15294 0.0265649 0)
(1.1462 0.0112374 0)
(1.14262 -4.53396e-05 0)
(1.12526 -0.0296427 0)
(1.10952 -0.0544153 0)
(1.09187 -0.0839648 0)
(1.07705 -0.0801223 0)
(1.06779 -0.0792251 0)
(1.05311 -0.0417471 0)
(1.14985 0.00868633 0)
(1.15608 0.0110719 0)
(1.15913 0.0069821 0)
(1.16559 0.0100443 0)
(1.167 0.00531763 0)
(1.17311 0.00810851 0)
(1.17289 0.00345018 0)
(1.17784 0.0039322 0)
(1.17391 -0.00419892 0)
(1.17434 -0.0124578 0)
(1.16312 -0.034337 0)
(1.14745 -0.0602732 0)
(1.12664 -0.0885959 0)
(1.1027 -0.0885381 0)
(1.0882 -0.0848557 0)
(1.06182 -0.0526325 0)
(1.256 0.0307692 0)
(1.26243 0.0316258 0)
(1.2633 0.0300502 0)
(1.27078 0.0312815 0)
(1.27172 0.0287435 0)
(1.27888 0.0298584 0)
(1.28098 0.0280515 0)
(1.28927 0.0291994 0)
(1.29077 0.0260152 0)
(1.2965 0.0251278 0)
(1.2946 0.0218037 0)
(1.28678 0.00840119 0)
(1.25766 -0.0175353 0)
(1.20806 -0.0270885 0)
(1.16503 -0.0300474 0)
(1.10486 -0.00995086 0)
(1.09359 0.19901 -8.70043e-21)
(1.15336 0.218531 5.32283e-20)
(1.22641 0.197689 0)
(1.13573 0.193585 7.03405e-21)
(1.12675 0.183501 -4.39155e-21)
(1.17417 0.18205 -4.42961e-20)
(1.12606 0.16335 0)
(1.12862 0.149516 -1.21201e-20)
(1.14857 0.156734 8.79529e-21)
(1.1041 0.146319 1.77882e-22)
(1.12073 0.128629 -1.87386e-22)
(1.1313 0.143247 2.13337e-20)
(1.09486 0.114038 6.21302e-22)
(1.10671 0.0978357 0)
(1.11467 0.109524 0)
(1.09548 0.0976066 -6.0903e-22)
(1.10344 0.0841984 1.68661e-21)
(1.10664 0.0951235 0)
(1.10356 0.0606816 -9.98656e-23)
(1.10982 0.0513017 -1.45162e-21)
(1.10978 0.0581342 0)
(1.12558 0.0643918 -2.33528e-24)
(1.12938 0.0576799 2.19319e-22)
(1.12877 0.0618265 0)
(1.14263 0.0111881 4.35069e-23)
(1.1467 0.00641247 -2.39258e-23)
(1.14695 0.0118106 -9.6703e-23)
(1.25334 0.0346443 0)
(1.25328 0.0319661 0)
(1.25584 0.0325593 6.62285e-23)
(1.03293 0.279006 -1.05724e-20)
(1.01055 0.302104 1.43725e-20)
(0.897754 0.320192 5.84169e-21)
(0.866163 0.422437 -8.50748e-21)
(0.950611 0.507988 0)
(0.767011 0.651467 -7.64267e-20)
(0.956904 0.245719 1.91382e-21)
(0.996002 0.307892 0)
(1.01888 0.345222 1.4665e-20)
(1.02387 0.46499 5.42289e-21)
(1.0652 0.451271 2.24741e-20)
(0.832727 0.522649 -2.99459e-20)
(1.14351 0.283914 0)
(1.13737 0.306566 7.93475e-21)
(1.07909 0.292638 -1.82262e-20)
(1.07403 0.373213 1.41917e-20)
(1.17605 0.35734 -5.34684e-21)
(0.842588 0.395681 -1.83583e-20)
(0.788738 0.0814146 0)
(0.739636 0.0942294 1.89836e-20)
(0.651816 0.106069 -4.15254e-20)
(0.528222 0.12534 4.21883e-20)
(0.377852 0.164927 1.93199e-20)
(0.153669 0.172293 -2.70039e-20)
(0.833386 0.147278 3.37664e-20)
(0.789502 0.174312 3.09138e-20)
(0.781966 0.233774 2.55612e-20)
(0.686148 0.270477 -4.93442e-20)
(0.554508 0.349523 3.73679e-21)
(0.332463 0.437808 -6.504e-20)
(0.899771 0.211929 2.59278e-20)
(0.778857 0.223362 -3.52491e-20)
(0.75256 0.300321 -4.69846e-20)
(0.782532 0.416745 3.94714e-20)
(0.729353 0.49792 0)
(0.507864 0.609366 8.91808e-21)
(1.01744 0.159005 2.7358e-22)
(0.969483 0.116435 -1.49083e-22)
(0.952135 0.123402 -6.00326e-23)
(0.970267 0.0945596 0)
(0.960388 0.0847645 -9.01194e-22)
(0.965194 0.0727338 1.24715e-21)
(0.935201 0.0603476 0)
(0.916758 0.0698573 1.75985e-22)
(0.871997 0.0632744 0)
(0.842122 0.0794868 0)
(0.993828 0.153708 -2.72743e-22)
(1.01695 0.134333 0)
(0.92695 0.108098 -6.66437e-22)
(0.995696 0.107884 1.12462e-21)
(0.950353 0.0727524 2.39279e-22)
(0.972546 0.0859096 -1.50051e-22)
(0.942529 0.0588794 0)
(0.933719 0.0909252 -1.86021e-22)
(0.89499 0.0850874 -1.97005e-20)
(0.874391 0.128199 -3.64922e-21)
(1.00907 0.147802 5.57416e-22)
(0.96219 0.14048 -7.07376e-22)
(1.00845 0.112965 0)
(0.925038 0.100228 0)
(1.01399 0.0787782 -2.61173e-22)
(0.943327 0.0941022 0)
(0.975065 0.0758758 -1.95203e-20)
(0.927616 0.129021 5.23365e-20)
(0.923497 0.127508 -7.14138e-20)
(0.904406 0.202775 4.57366e-20)
(1.03331 0.151377 0)
(0.925847 0.136767 0)
(1.00058 0.11215 0)
(0.947247 0.103451 0)
(0.98816 0.0607248 0)
(0.981559 0.103359 0)
(0.975539 0.0700635 0)
(0.967032 0.144396 0)
(0.951855 0.132346 0)
(0.959967 0.212033 0)
(1.01664 0.151131 0)
(0.965674 0.145736 0)
(0.942901 0.101752 0)
(0.998671 0.107282 0)
(0.958076 0.054456 0)
(1.00364 0.10491 0)
(0.971414 0.0813653 0)
(0.990557 0.14496 0)
(0.972815 0.14256 0)
(0.997451 0.186468 0)
(0.97649 0.147933 0)
(1.01136 0.157276 0)
(0.956925 0.0951013 0)
(1.00822 0.108858 0)
(0.97872 0.0518205 0)
(0.992293 0.101864 0)
(0.979454 0.0853918 0)
(0.993195 0.133571 0)
(1.00057 0.130891 0)
(1.01484 0.167362 0)
(0.9706 0.143116 0)
(1.00839 0.160582 0)
(1.00644 0.0920183 0)
(1.00313 0.112437 0)
(1.00874 0.0590371 0)
(0.989234 0.107729 0)
(0.996596 0.0833404 0)
(0.998935 0.123628 0)
(1.01494 0.11425 0)
(1.02125 0.14748 0)
(0.986288 0.141203 0)
(0.991454 0.152973 0)
(1.02933 0.0885614 0)
(1.00487 0.1091 0)
(1.02416 0.0635835 0)
(1.00346 0.100294 0)
(1.02019 0.0782796 0)
(1.01528 0.105538 0)
(1.03192 0.0939702 0)
(1.0336 0.116216 0)
(0.994528 0.139296 0)
(0.986446 0.145384 0)
(1.03198 0.0931874 0)
(1.01093 0.110938 0)
(1.03401 0.0770292 0)
(1.02143 0.102012 0)
(1.03986 0.0842018 0)
(1.03577 0.102718 0)
(1.05022 0.0919802 0)
(1.05029 0.104746 0)
(0.99843 0.131277 0)
(0.98794 0.123369 0)
(1.03879 0.0790198 0)
(1.02146 0.0864412 0)
(1.0485 0.0614426 0)
(1.03996 0.074069 0)
(1.05992 0.0597808 0)
(1.05624 0.070539 0)
(1.07088 0.0614746 0)
(1.07012 0.0689317 0)
(0.99708 0.136594 0)
(1.00287 0.120501 0)
(1.05003 0.0931703 0)
(1.04517 0.0926534 0)
(1.07073 0.0766796 0)
(1.06946 0.082243 0)
(1.08608 0.0713939 0)
(1.08613 0.0766605 0)
(1.09782 0.0698916 0)
(1.0989 0.0735628 0)
(0.997301 0.0896958 0)
(1.01898 0.0656706 0)
(1.06526 0.0399671 0)
(1.06304 0.0366767 0)
(1.08787 0.0210311 0)
(1.08943 0.0254521 0)
(1.1051 0.014922 0)
(1.10615 0.020372 0)
(1.11652 0.013802 0)
(1.11796 0.0178773 0)
(0.991233 0.108259 0)
(1.12271 0.0778603 0)
(1.15464 0.0659675 0)
(1.17885 0.0553568 0)
(1.19082 0.0485265 0)
(1.20839 0.0452924 0)
(1.21527 0.0405583 0)
(1.22417 0.0405088 0)
(1.22834 0.0383306 0)
(1.23331 0.0381507 0)
(0.969028 0.213835 -1.50724e-20)
(0.992267 0.195761 -4.25145e-21)
(1.10961 0.233955 5.30015e-21)
(0.992923 0.194611 5.08008e-21)
(1.0713 0.199032 -7.3228e-22)
(1.08923 0.208361 -4.2849e-21)
(1.0262 0.166855 3.05676e-21)
(1.07175 0.172416 2.30402e-21)
(1.08548 0.164037 0)
(1.0411 0.139725 2.48522e-21)
(1.06011 0.149055 -8.21745e-23)
(1.08732 0.138258 7.80442e-23)
(1.05233 0.107326 -3.55542e-22)
(1.06598 0.116315 0)
(1.08629 0.104222 -4.54868e-22)
(1.06572 0.0963349 0)
(1.07649 0.101074 5.09496e-23)
(1.09048 0.0892384 3.20443e-22)
(1.084 0.0608135 0)
(1.09202 0.0640638 -2.14919e-23)
(1.10205 0.0544961 -3.92683e-23)
(1.10962 0.066991 -8.19674e-22)
(1.11669 0.0683544 2.69021e-22)
(1.12408 0.0605481 3.63308e-23)
(1.12715 0.0113444 9.50857e-22)
(1.13377 0.0134839 -1.60998e-22)
(1.14084 0.00685105 1.10301e-22)
(1.23727 0.0361869 -3.65934e-22)
(1.24558 0.0368312 0)
(1.24822 0.0342132 0)
(-0.140088 -0.035189 -1.30093e-19)
(0.0234236 -0.0830285 1.24931e-19)
(0.621163 -0.244221 2.00593e-20)
(0.337694 -0.0249722 0)
(0.896518 -0.123128 -5.302e-21)
(1.16568 -0.214566 -1.43328e-20)
(0.761356 -0.074993 -7.37213e-20)
(1.15374 -0.189464 4.59117e-20)
(1.16176 -0.256102 -3.12145e-20)
(1.02785 -0.0763898 7.82672e-20)
(1.26657 -0.180194 -3.01489e-20)
(1.12463 -0.171387 2.78478e-20)
(1.24572 -0.106997 7.00616e-20)
(1.24586 -0.153733 -3.19428e-20)
(1.07824 -0.155537 -1.27286e-20)
(1.32157 -0.070892 -5.16305e-20)
(1.11227 -0.108979 3.69663e-20)
(1.10459 -0.12523 0)
(-0.0881333 -0.144341 -1.69459e-20)
(-0.0877652 -0.178461 -7.80508e-20)
(-0.135944 -0.121535 3.83189e-20)
(-0.164209 -0.113722 -1.39642e-20)
(-0.0287354 -0.196479 -2.32687e-21)
(-0.0327904 -0.147502 0)
(-0.235992 -0.0853103 1.75135e-20)
(-0.078552 -0.168254 -2.46976e-20)
(0.193315 -0.0946548 8.0193e-20)
(-0.218462 -0.0162984 -4.46908e-20)
(0.188955 -0.116485 3.36469e-20)
(0.603672 -0.0662191 -2.82452e-20)
(-0.258482 -0.0182979 2.21028e-20)
(0.12379 -0.0524835 0)
(0.717377 -0.0303733 -8.45548e-20)
(-0.143846 0.0327134 0)
(0.563381 -0.019376 -6.45651e-20)
(1.11561 -0.0201019 6.2264e-20)
(-0.149356 0.0711056 0)
(0.464168 0.0275652 4.92192e-20)
(1.07748 0.0122827 0)
(-0.132774 0.0464031 -1.74868e-20)
(0.504222 0.0465578 -3.66605e-20)
(1.08967 0.0436345 0)
(-0.159119 0.0593623 1.29963e-21)
(0.46764 0.0554898 3.28012e-20)
(1.05285 0.045669 -2.78772e-22)
(-0.096253 0.0390277 2.41171e-20)
(0.535256 0.0826059 -2.26761e-20)
(1.08433 0.0853204 0)
(-0.10442 -0.0507001 -1.52692e-20)
(0.488564 0.0240651 1.984e-20)
(1.0453 0.0652862 4.57559e-20)
(0.0984045 -0.0583633 4.53702e-21)
(0.635962 0.0435978 0)
(1.09719 0.071283 -4.0086e-20)
(0.173417 0.119389 0)
(0.745594 0.168517 0)
(1.16831 0.21269 0)
(0.30203 0.358683 1.44969e-21)
(0.947688 0.275539 0)
(1.18024 0.353111 0)
(0.217817 0.344106 -1.29311e-21)
(0.688059 0.220097 0)
(1.1511 0.213316 9.84567e-22)
(0.406461 0.112156 7.75671e-23)
(0.483217 0.135517 1.88945e-21)
(0.938231 0.0808267 -8.66458e-22)
(0.660048 -0.0830357 4.04451e-23)
(0.496992 -0.0340544 -1.79326e-21)
(0.700215 -0.0232697 0)
(0.772745 -0.11957 0)
(0.600551 -0.0999393 -4.8927e-23)
(0.706139 -0.057997 5.20494e-23)
(0.83836 -0.114676 0)
(0.69781 -0.106966 0)
(0.781601 -0.0653988 -5.99061e-23)
(0.867384 -0.0758628 0)
(0.790226 -0.0709635 1.125e-23)
(0.872906 -0.0408443 4.08429e-23)
(0.888948 -0.0762411 0)
(0.847463 -0.0684215 0)
(0.915692 -0.0482696 0)
(0.931769 -0.043874 7.65675e-24)
(0.923421 -0.038118 -7.64046e-24)
(0.954471 -0.0287492 0)
(1.25012 -0.0265978 0)
(1.17642 -0.0262772 0)
(1.13782 -0.0263832 0)
(1.09753 -0.0145521 0)
(1.0621 -0.00496957 0)
(1.02798 0.0104202 0)
(0.991733 0.0088777 0)
(0.947396 0.025324 0)
(0.909061 0.00358146 0)
(0.728082 0.0233753 0)
(1.26516 0.00929303 0)
(1.18682 0.0174703 0)
(1.14907 0.00367791 0)
(1.10857 0.00701428 0)
(1.06944 0.00797994 0)
(1.03174 0.0191031 0)
(0.992346 0.0149272 0)
(0.945425 0.0282976 0)
(0.905704 0.0050776 0)
(0.717112 0.0208964 0)
(1.22565 0.0204308 0)
(1.17871 0.0283555 0)
(1.1463 0.0184032 0)
(1.11003 0.0207413 0)
(1.07616 0.0173445 0)
(1.03668 0.0238356 0)
(0.995789 0.0152765 0)
(0.947391 0.025249 0)
(0.907103 0.000105156 0)
(0.72534 0.0124459 0)
(1.23102 0.0512288 0)
(1.16471 0.065945 0)
(1.13731 0.0419584 0)
(1.10665 0.0490547 0)
(1.07314 0.0375634 0)
(1.03409 0.0377865 0)
(0.992991 0.0243215 0)
(0.942202 0.0299894 0)
(0.900892 0.00194512 0)
(0.712717 0.00921069 0)
(1.2182 0.0538159 0)
(1.16883 0.0650061 0)
(1.13049 0.0626226 0)
(1.1026 0.0622076 0)
(1.06813 0.0465283 0)
(1.03161 0.0419269 0)
(0.992723 0.0235036 0)
(0.942302 0.0251545 0)
(0.901088 -0.00728458 0)
(0.725563 -0.00264818 0)
(1.20291 0.084385 0)
(1.15922 0.0980809 0)
(1.12746 0.0853298 0)
(1.08455 0.0807601 0)
(1.05559 0.0603381 0)
(1.02039 0.0533371 0)
(0.98361 0.030416 0)
(0.931644 0.0283143 0)
(0.890593 -0.00826124 0)
(0.713435 -0.00456822 0)
(1.30108 0.137708 0)
(1.16155 0.159551 0)
(1.1128 0.101138 0)
(1.07323 0.0953655 0)
(1.04303 0.0606465 0)
(1.01183 0.0501525 0)
(0.977769 0.0210007 0)
(0.928351 0.016968 0)
(0.888907 -0.0231874 0)
(0.73234 -0.0173249 0)
(1.13952 0.232812 0)
(1.09636 0.198544 0)
(1.05777 0.136679 0)
(1.03845 0.109214 0)
(1.01723 0.0702042 0)
(0.99082 0.0532389 0)
(0.961549 0.0205004 0)
(0.910969 0.0152533 0)
(0.874306 -0.0271299 0)
(0.724391 -0.015446 0)
(0.963876 0.169346 0)
(0.941853 0.138247 0)
(0.980632 0.097022 0)
(0.979423 0.0760675 0)
(0.98845 0.0426551 0)
(0.969708 0.0302222 0)
(0.950379 -0.00592005 0)
(0.904936 -0.00662776 0)
(0.872895 -0.0489854 0)
(0.750811 -0.0281735 0)
(0.937346 0.0180377 0)
(0.900257 0.0475749 0)
(0.9373 0.0197552 0)
(0.94246 0.0356086 0)
(0.958458 0.00541969 0)
(0.942718 0.0107991 0)
(0.930155 -0.0246782 0)
(0.885973 -0.0162116 0)
(0.859823 -0.0542213 0)
(0.755165 -0.02099 0)
(0.883027 -0.08078 0)
(0.944761 -0.0428772 0)
(0.957289 -0.0536002 0)
(0.953099 -0.0246526 0)
(0.950102 -0.0474994 0)
(0.935846 -0.0296468 0)
(0.922979 -0.061132 0)
(0.887166 -0.0406812 0)
(0.866687 -0.0697496 0)
(0.788245 -0.0281942 0)
(0.90635 -0.0682661 0)
(0.983108 -0.0472308 0)
(0.977781 -0.0614588 0)
(0.962984 -0.0406842 0)
(0.946957 -0.062216 0)
(0.929747 -0.0422521 0)
(0.91426 -0.0693872 0)
(0.880985 -0.0428658 0)
(0.863842 -0.0669718 0)
(0.80673 -0.0187912 0)
(0.935778 -0.0606247 0)
(0.98357 -0.0515086 0)
(0.972414 -0.0667615 0)
(0.960116 -0.0547445 0)
(0.945015 -0.0748528 0)
(0.931722 -0.0556584 0)
(0.9173 -0.0783285 0)
(0.892732 -0.0487578 0)
(0.877922 -0.0647845 0)
(0.84026 -0.0137625 0)
(0.957452 -0.0389839 0)
(0.970022 -0.035896 0)
(0.959197 -0.0480087 0)
(0.950335 -0.0403684 0)
(0.941185 -0.057251 0)
(0.929683 -0.0405965 0)
(0.91898 -0.061109 0)
(0.898416 -0.0329079 0)
(0.887608 -0.0511165 0)
(0.860847 -0.00263353 0)
(0.955635 -0.0496951 0)
(0.956189 -0.0463015 0)
(0.947836 -0.0544982 0)
(0.943776 -0.0450004 0)
(0.936847 -0.0584705 0)
(0.931498 -0.040371 0)
(0.921575 -0.0585791 0)
(0.909517 -0.0289633 0)
(0.899516 -0.0461507 0)
(0.883436 0.00114311 0)
(0.96326 -0.0299364 0)
(0.959875 -0.0267241 0)
(0.954094 -0.0304384 0)
(0.950456 -0.0228667 0)
(0.944 -0.0308258 0)
(0.938983 -0.0166496 0)
(0.929898 -0.0311511 0)
(0.92096 -0.00675194 0)
(0.911942 -0.0282195 0)
(0.902185 0.0113597 0)
(1.19883 -0.112196 9.98626e-21)
(1.15109 -0.0989772 -8.07348e-21)
(1.08835 -0.0592541 0)
(1.05516 -0.0415917 -2.55634e-22)
(1.03237 -0.022326 -1.34259e-21)
(1.00747 0.00092595 1.36343e-21)
(0.979049 0.00473289 4.10948e-22)
(0.938565 0.0275521 3.40143e-22)
(0.902655 0.00596821 5.40804e-22)
(0.725604 0.0373029 0)
(1.07986 -0.0877437 -5.798e-20)
(1.0852 -0.0731607 3.94311e-21)
(1.08272 -0.0461183 1.41825e-20)
(1.06254 -0.0277722 2.69289e-22)
(1.03543 -0.0106783 0)
(1.00885 0.00563938 -2.84777e-22)
(0.979164 0.00580904 1.31748e-21)
(0.939354 0.0261596 -2.43511e-21)
(0.902674 0.00405926 1.12912e-21)
(0.72719 0.0333256 0)
(1.23672 -0.0675589 7.46529e-20)
(1.15454 -0.0576804 -1.2723e-20)
(1.11401 -0.0399565 -6.44454e-21)
(1.08336 -0.0281376 -4.59989e-20)
(1.05156 -0.0118302 1.6759e-20)
(1.02164 0.00657737 0)
(0.988921 0.00888461 0)
(0.945201 0.0274724 2.20935e-21)
(0.907192 0.00626184 -4.05398e-21)
(0.72277 0.0292314 9.06553e-22)
(0.86214 -0.167414 1.02125e-20)
(0.979647 -0.152783 -4.21063e-21)
(1.06689 -0.167724 0)
(0.962747 -0.23295 -1.3884e-20)
(0.943337 -0.205813 -5.09336e-21)
(1.1282 -0.219885 -8.35414e-21)
(0.954109 -0.289629 -7.3607e-21)
(0.990586 -0.247791 -6.97988e-21)
(1.13498 -0.237482 1.92022e-20)
(0.851219 -0.362116 1.01197e-20)
(1.00206 -0.373525 -5.22908e-21)
(1.08215 -0.308337 -1.22404e-21)
(0.883409 -0.439909 0)
(1.07828 -0.397348 -2.39003e-20)
(1.14944 -0.269575 -1.45141e-20)
(0.742921 -0.607345 7.15053e-20)
(0.876766 -0.51579 -1.27556e-20)
(0.883648 -0.343875 2.03056e-20)
(0.781878 -0.0152383 0)
(0.802849 -0.0811832 -3.28499e-20)
(0.870346 -0.153047 -2.53861e-20)
(0.727312 -0.0243458 -1.88795e-20)
(0.748249 -0.103065 0)
(0.856066 -0.190357 3.45153e-20)
(0.65566 -0.0449731 4.13315e-20)
(0.684377 -0.148042 -5.02722e-20)
(0.727911 -0.219823 3.03223e-20)
(0.554713 -0.0642669 -6.75978e-20)
(0.652364 -0.221108 4.96475e-20)
(0.684408 -0.312534 -4.16891e-20)
(0.393958 -0.097328 1.51552e-20)
(0.540669 -0.302373 -5.0799e-21)
(0.70932 -0.450748 0)
(0.165017 -0.102482 2.79414e-20)
(0.311924 -0.372709 1.13084e-19)
(0.511046 -0.575944 -3.04593e-21)
(1.01343 0.159168 -1.8244e-22)
(0.985884 0.160455 1.8188e-22)
(0.928434 0.153572 -1.86774e-22)
(0.958187 0.111592 -1.85703e-23)
(0.952906 0.0958537 1.46943e-22)
(1.01841 0.107153 2.37035e-22)
(0.955756 0.121127 2.76634e-23)
(0.986762 0.134581 1.46234e-22)
(1.00083 0.119902 3.23987e-22)
(0.963148 0.096439 0)
(0.950152 0.0824301 -7.88507e-22)
(0.943285 0.079024 0)
(0.961883 0.0866534 8.43515e-22)
(0.96726 0.0997404 -1.75239e-22)
(0.958326 0.0797425 1.91264e-22)
(0.958814 0.0514826 -1.16028e-21)
(0.946183 0.0339777 -1.1709e-22)
(0.889123 0.00947499 2.76847e-22)
(0.932883 0.0415201 0)
(0.927133 0.0422152 0)
(0.91888 0.00570174 1.67927e-20)
(0.90597 0.0172292 -1.6562e-22)
(0.897234 -0.0115109 1.75059e-22)
(0.861564 -0.0573155 -4.59446e-20)
(0.867698 0.0098709 0)
(0.866135 -0.0109502 1.88987e-20)
(0.88178 -0.0691037 3.08372e-20)
(0.827267 -0.00593816 0)
(0.830757 -0.0610117 3.86681e-21)
(0.848341 -0.130644 0)
(0.907442 0.158296 0)
(0.948149 0.16231 0)
(0.962517 0.162891 0)
(0.965459 0.162286 0)
(0.965372 0.159792 0)
(0.967975 0.155213 0)
(0.971291 0.1455 0)
(0.976033 0.144625 0)
(0.981051 0.0974197 0)
(0.981445 0.113741 0)
(1.08675 0.106959 0)
(1.04267 0.102653 0)
(1.00628 0.0978297 0)
(0.99363 0.0969839 0)
(0.990167 0.0950511 0)
(0.984867 0.0986775 0)
(0.97477 0.090583 0)
(0.959724 0.100424 0)
(0.9429 0.0643609 0)
(0.831187 0.0811047 0)
(0.938189 0.116763 0)
(0.932592 0.11466 0)
(0.946141 0.114209 0)
(0.952808 0.10689 0)
(0.951749 0.0991689 0)
(0.954247 0.0933603 0)
(0.944415 0.0735016 0)
(0.936889 0.0818337 0)
(0.921397 0.0358299 0)
(0.813021 0.060995 0)
(1.00949 0.0642773 0)
(1.00744 0.0459448 0)
(0.983112 0.041935 0)
(0.972532 0.041557 0)
(0.970337 0.0453322 0)
(0.970127 0.0527317 0)
(0.96108 0.0446887 0)
(0.945692 0.0618422 0)
(0.925712 0.0223981 0)
(0.796921 0.0470729 0)
(0.865331 0.071029 0)
(0.880157 0.0674524 0)
(0.9337 0.0595656 0)
(0.947946 0.0532801 0)
(0.949432 0.0461821 0)
(0.948427 0.047937 0)
(0.94009 0.0333654 0)
(0.926322 0.051622 0)
(0.905932 0.0134046 0)
(0.775225 0.0454576 0)
(0.939639 -0.00295166 0)
(0.970485 -0.00170146 0)
(0.964811 -0.0033383 0)
(0.967001 0.00297301 0)
(0.972273 0.00662378 0)
(0.970078 0.0243701 0)
(0.959249 0.0191245 0)
(0.936517 0.0429148 0)
(0.912127 0.0101046 0)
(0.768874 0.0419366 0)
(0.863782 0.00900345 0)
(0.885509 0.0113577 0)
(0.929275 0.0140603 0)
(0.951375 0.019281 0)
(0.958804 0.0125215 0)
(0.958862 0.0224857 0)
(0.948748 0.0144005 0)
(0.927435 0.0381964 0)
(0.902434 0.00692163 0)
(0.758869 0.0439675 0)
(0.933629 -0.0769585 0)
(0.978887 -0.0579466 0)
(0.979101 -0.0400097 0)
(0.975622 -0.0216806 0)
(0.976391 -0.0146909 0)
(0.975365 0.00722356 0)
(0.963424 0.00628369 0)
(0.936488 0.0341003 0)
(0.909326 0.0071171 0)
(0.755318 0.0427376 0)
(0.880446 -0.0505244 0)
(0.928528 -0.046641 0)
(0.962407 -0.0352461 0)
(0.97124 -0.0174133 0)
(0.972163 -0.00951292 0)
(0.970237 0.00777863 0)
(0.957539 0.00500034 0)
(0.930835 0.0315623 0)
(0.903303 0.00571562 0)
(0.749406 0.0434588 0)
(0.951426 -0.146388 0)
(0.995504 -0.0983193 0)
(1.00081 -0.0713163 0)
(0.993425 -0.0468832 0)
(0.988088 -0.028194 0)
(0.982327 -0.00131544 0)
(0.967872 0.00223976 0)
(0.936971 0.0296715 0)
(0.907942 0.0063578 0)
(0.747044 0.0420297 0)
(0.918687 -0.114743 0)
(0.97603 -0.0898383 1.76263e-21)
(0.991647 -0.0721563 -4.9611e-21)
(0.991553 -0.0468743 2.83736e-21)
(0.987921 -0.0260522 0)
(0.980075 -0.00230523 0)
(0.963873 0.0014324 0)
(0.932205 0.0274611 -6.55168e-22)
(0.90293 0.00489448 5.92755e-22)
(0.742828 0.0424926 -8.871e-22)
(1.10505 -0.120855 8.89654e-21)
(1.08471 -0.110734 1.27097e-21)
(1.03263 -0.0814798 -4.49742e-21)
(1.01402 -0.0504705 1.66776e-22)
(1.00262 -0.0271242 0)
(0.988732 -0.00167198 -2.26181e-22)
(0.969123 0.00223408 -1.84677e-21)
(0.934158 0.02828 2.77866e-21)
(0.90266 0.00612441 -1.04623e-21)
(0.733879 0.0415249 0)
(1.03959 -0.121482 -6.63564e-21)
(1.02018 -0.0991966 5.36446e-21)
(1.03254 -0.063469 0)
(1.03226 -0.0440763 -1.58392e-22)
(1.01331 -0.0243045 1.1627e-21)
(0.992821 -0.000875305 -7.26974e-22)
(0.969401 0.00210513 3.56139e-22)
(0.933663 0.0263573 3.16784e-22)
(0.899755 0.00393352 5.24982e-22)
(0.732329 0.0402577 0)
)
;

boundaryField
{
    outlet
    {
        type            zeroGradient;
    }
    upperWall
    {
        type            symmetryPlane;
    }
    lowerWall
    {
        type            symmetryPlane;
    }
    inlet
    {
        type            fixedValue;
        value           uniform (0.9848 0.1736 0);
    }
    cylinder
    {
        type            fixedValue;
        value           uniform (0 0 0);
    }
    frontAndBack
    {
        type            empty;
    }
}


// ************************************************************************* //
