/*--------------------------------*- C++ -*----------------------------------*\
| =========                 |                                                 |
| \\      /  F ield         | OpenFOAM: The Open Source CFD Toolbox           |
|  \\    /   O peration     | Version:  2312                                  |
|   \\  /    A nd           | Website:  www.openfoam.com                      |
|    \\/     M anipulation  |                                                 |
\*---------------------------------------------------------------------------*/
FoamFile
{
    version     2.0;
    format      ascii;
    arch        "LSB;label=32;scalar=64";
    class       volScalarField;
    location    "31";
    object      p;
}
// * * * * * * * * * * * * * * * * * * * * * * * * * * * * * * * * * * * * * //

dimensions      [0 2 -2 0 0 0 0];

internalField   nonuniform List<scalar> 
5478
(
-0.298411
-0.297298
-0.295171
-0.292902
-0.291096
-0.290041
-0.289581
-0.289244
-0.288571
-0.28694
-0.2845
-0.280158
-0.275152
-0.267381
-0.257895
-0.303074
-0.301457
-0.298654
-0.295524
-0.292539
-0.28977
-0.286936
-0.283747
-0.279868
-0.275155
-0.26932
-0.262255
-0.254138
-0.244625
-0.235509
-0.31031
-0.307503
-0.303755
-0.299418
-0.294699
-0.289413
-0.283461
-0.276847
-0.269605
-0.261632
-0.253041
-0.243874
-0.234533
-0.224983
-0.216204
-0.320528
-0.315967
-0.310663
-0.304485
-0.297093
-0.288379
-0.278716
-0.268534
-0.25805
-0.247556
-0.23715
-0.227012
-0.217081
-0.207291
-0.198361
-0.334375
-0.327373
-0.319858
-0.310843
-0.299465
-0.286384
-0.272706
-0.259145
-0.246127
-0.233768
-0.222081
-0.210999
-0.20036
-0.190311
-0.181042
-0.352431
-0.341964
-0.331619
-0.318081
-0.301128
-0.282979
-0.265289
-0.248763
-0.233536
-0.219571
-0.206728
-0.194865
-0.183807
-0.173612
-0.164057
-0.374674
-0.359341
-0.34464
-0.324285
-0.300498
-0.277037
-0.25554
-0.236301
-0.219173
-0.203882
-0.190175
-0.17779
-0.166513
-0.156294
-0.146612
-0.398237
-0.378016
-0.355596
-0.326291
-0.295326
-0.266886
-0.24201
-0.220498
-0.201827
-0.185545
-0.171259
-0.158651
-0.147512
-0.137653
-0.128572
-0.255693
-0.258952
-0.261522
-0.26503
-0.26969
-0.275376
-0.281966
-0.289484
-0.297859
-0.307082
-0.317135
-0.327912
-0.339351
-0.351747
-0.365868
-0.262208
-0.265092
-0.26771
-0.271402
-0.276298
-0.282218
-0.289012
-0.296451
-0.304426
-0.312804
-0.321447
-0.330087
-0.338287
-0.346075
-0.354292
-0.270226
-0.272293
-0.274655
-0.27821
-0.282977
-0.288741
-0.295289
-0.302379
-0.30979
-0.317285
-0.324621
-0.331622
-0.337614
-0.342451
-0.344901
-0.278176
-0.279218
-0.281051
-0.284124
-0.288375
-0.293579
-0.299482
-0.305822
-0.312349
-0.318766
-0.324577
-0.330783
-0.332722
-0.339423
-0.335048
-0.284833
-0.284896
-0.285997
-0.288219
-0.291535
-0.295781
-0.300711
-0.306044
-0.311509
-0.317014
-0.320986
-0.326789
-0.326257
-0.331769
-0.325482
-0.289703
-0.289069
-0.2893
-0.290378
-0.292407
-0.295357
-0.299058
-0.303239
-0.307467
-0.312282
-0.31432
-0.320443
-0.31775
-0.322357
-0.316682
-0.292987
-0.292023
-0.291376
-0.291168
-0.29173
-0.293216
-0.295561
-0.298561
-0.301698
-0.305408
-0.306503
-0.310012
-0.308234
-0.309794
-0.307308
-0.29548
-0.294446
-0.293001
-0.291608
-0.290835
-0.290993
-0.292104
-0.293809
-0.29554
-0.296764
-0.296964
-0.296091
-0.293894
-0.291704
-0.289138
-0.383966
-0.404858
-0.426985
-0.447471
-0.464445
-0.473687
-0.471268
-0.46345
-0.440347
-0.401647
-0.346711
-0.276502
-0.197392
-0.121544
-0.0596146
-0.0179502
0.00600211
0.0181619
0.0225305
0.0233468
0.0219322
0.0197164
0.0172566
0.0149325
0.0128533
0.0110004
0.00929648
0.00768208
0.00621001
0.00492494
0.00382226
0.00293136
0.00224328
0.00177764
0.00140506
0.00114284
0.000746173
0.000339637
-0.366494
-0.377531
-0.389419
-0.399683
-0.407478
-0.410287
-0.404905
-0.391181
-0.369646
-0.335867
-0.289243
-0.234507
-0.178872
-0.130664
-0.0883248
-0.0466202
-0.0195842
0.000440154
0.0105207
0.0151155
0.0163849
0.0160674
0.0148709
0.0133976
0.0118922
0.0104233
0.00894422
0.00748904
0.00611444
0.0048923
0.00383829
0.00296887
0.00230289
0.00182235
0.00145459
0.00116821
0.000771748
0.000337163
-0.353385
-0.357323
-0.361528
-0.363502
-0.362823
-0.358577
-0.348474
-0.331662
-0.30951
-0.278843
-0.238835
-0.199849
-0.169824
-0.14752
-0.119399
-0.0839805
-0.0442934
-0.0168896
-0.00149223
0.00668874
0.0104615
0.0120205
0.0121759
0.0116038
0.0107054
0.00966967
0.00848511
0.00722988
0.00597567
0.00483354
0.00383191
0.00299402
0.00234598
0.00185768
0.00149144
0.00118231
0.000789262
0.000328659
-0.343187
-0.342231
-0.34217
-0.339443
-0.333998
-0.325504
-0.312224
-0.295119
-0.273119
-0.246795
-0.212547
-0.183324
-0.171306
-0.165521
-0.144592
-0.106939
-0.0648106
-0.03268
-0.0130537
-0.00168994
0.00438187
0.00764367
0.00912357
0.00953492
0.00927945
0.00870233
0.00786073
0.00685266
0.00576623
0.00473003
0.00379754
0.0030023
0.00237356
0.0018858
0.00151816
0.00119085
0.000800851
0.000317726
-0.329371
-0.330583
-0.327784
-0.323899
-0.316856
-0.306542
-0.291396
-0.277793
-0.25847
-0.237129
-0.207902
-0.182635
-0.1781
-0.179925
-0.165205
-0.12575
-0.0817212
-0.0468718
-0.0241303
-0.0100346
-0.00180373
0.00308734
0.00582064
0.00725451
0.00770658
0.00761142
0.00711519
0.00637165
0.0054787
0.00457086
0.00372589
0.00298475
0.00238321
0.001904
0.0015355
0.00119579
0.000807641
0.000307018
-0.314486
-0.317542
-0.318375
-0.313359
-0.306176
-0.296974
-0.287564
-0.271057
-0.252854
-0.235755
-0.213844
-0.19076
-0.18637
-0.187802
-0.175981
-0.138922
-0.0953693
-0.0594841
-0.0345006
-0.0181054
-0.00791612
-0.00149922
0.00238143
0.0047577
0.00597084
0.00643267
0.00630606
0.00583618
0.00513793
0.00436975
0.00362022
0.0029424
0.00237493
0.00191141
0.00154423
0.00119811
0.000810516
0.000298623
-0.303542
-0.304561
-0.306563
-0.304775
-0.30047
-0.292939
-0.283404
-0.270309
-0.253643
-0.238338
-0.221808
-0.201843
-0.193059
-0.191293
-0.177801
-0.145187
-0.105181
-0.06997
-0.0437925
-0.0257613
-0.014033
-0.00625039
-0.0012744
0.00200541
0.00392829
0.00501392
0.00535098
0.00522174
0.00474518
0.00413733
0.00348845
0.00288311
0.0023522
0.00191125
0.00154612
0.00119998
0.000810681
0.000295328
-0.288872
-0.291555
-0.29277
-0.291135
-0.288706
-0.284368
-0.277748
-0.268585
-0.255625
-0.242432
-0.228062
-0.210458
-0.199216
-0.192048
-0.177916
-0.149665
-0.114705
-0.0820913
-0.0550705
-0.0349709
-0.0211086
-0.0115741
-0.00521178
-0.00088744
0.00181603
0.00348668
0.0042529
0.00448207
0.00425493
0.00383977
0.00330906
0.00279477
0.00230688
0.00189981
0.00153854
0.00120083
0.000807187
0.000299255
-0.268145
-0.278532
-0.279265
-0.276982
-0.274478
-0.271464
-0.266781
-0.259962
-0.250251
-0.239254
-0.22668
-0.211843
-0.198458
-0.187576
-0.171209
-0.144495
-0.112435
-0.0821784
-0.0570237
-0.0378966
-0.0242217
-0.0145302
-0.00776392
-0.00301929
0.000115936
0.00216355
0.00326886
0.0037726
0.00375797
0.00351152
0.00310041
0.00267702
0.00224045
0.00187054
0.00152101
0.00119493
0.000799163
0.000305122
-0.244883
-0.259175
-0.262174
-0.259821
-0.256744
-0.253692
-0.249626
-0.243893
-0.2357
-0.225426
-0.214728
-0.20179
-0.188436
-0.17514
-0.158271
-0.134528
-0.107026
-0.0807898
-0.0583438
-0.040532
-0.0272249
-0.0174629
-0.0103668
-0.00523624
-0.0016869
0.000718207
0.00215676
0.00293308
0.00315766
0.00309425
0.00282802
0.00250577
0.00214147
0.00181489
0.00149135
0.00117666
0.000787519
0.000304014
-0.221913
-0.237792
-0.242732
-0.241118
-0.23798
-0.234858
-0.231335
-0.226705
-0.220133
-0.211632
-0.202329
-0.19082
-0.177695
-0.163906
-0.147826
-0.127347
-0.103852
-0.0806514
-0.0600727
-0.0431857
-0.0301528
-0.0203338
-0.0129795
-0.00750649
-0.00357401
-0.000811949
0.000964682
0.00202855
0.00250151
0.00263242
0.0025205
0.0023093
0.00202488
0.00174792
0.00145487
0.0011547
0.000774926
0.000301986
-0.200583
-0.216095
-0.222337
-0.221893
-0.21923
-0.216311
-0.213276
-0.209492
-0.204213
-0.197234
-0.188571
-0.178173
-0.16619
-0.15297
-0.137816
-0.11963
-0.099228
-0.078919
-0.0605595
-0.0450665
-0.0326905
-0.0230508
-0.0155843
-0.00983878
-0.00555199
-0.00243846
-0.000325434
0.0010357
0.00176914
0.00211038
0.00216644
0.00207914
0.00188423
0.00166542
0.00140895
0.00112842
0.00076067
0.000298748
-0.179937
-0.194627
-0.201621
-0.202378
-0.200501
-0.1981
-0.195551
-0.192458
-0.188245
-0.182383
-0.174756
-0.16553
-0.154739
-0.142417
-0.128446
-0.112544
-0.0951711
-0.0776825
-0.0613745
-0.0470904
-0.0352439
-0.025724
-0.0181395
-0.012142
-0.00754429
-0.00411317
-0.00168437
-2.87658e-05
0.000970108
0.00153191
0.00176735
0.00181572
0.00171998
0.00156709
0.00135308
0.00109666
0.000743977
0.000294059
-0.160184
-0.173931
-0.181234
-0.182955
-0.181965
-0.180205
-0.17817
-0.175695
-0.172288
-0.16744
-0.160977
-0.152954
-0.143392
-0.13232
-0.119873
-0.10606
-0.0911294
-0.0758284
-0.0612566
-0.0482193
-0.0371236
-0.0279667
-0.0204845
-0.014398
-0.00958247
-0.00587481
-0.00314252
-0.00118842
8.67703e-05
0.000882899
0.00131206
0.00151025
0.00152639
0.00144965
0.00128584
0.00105803
0.000723614
0.000287687
-0.141837
-0.154382
-0.161626
-0.164044
-0.163858
-0.16273
-0.161233
-0.159309
-0.156597
-0.152723
-0.147417
-0.140624
-0.132297
-0.122637
-0.111752
-0.0997448
-0.0868052
-0.0735374
-0.060773
-0.0491345
-0.0389105
-0.0301718
-0.0228063
-0.016643
-0.0116155
-0.00763945
-0.00461899
-0.00237919
-0.000834751
0.000194706
0.000820548
0.00117385
0.00130819
0.00131457
0.00120778
0.00101444
0.00070165
0.000280056
-0.124859
-0.136102
-0.14306
-0.145912
-0.146352
-0.145797
-0.144815
-0.143417
-0.14137
-0.138369
-0.134103
-0.128434
-0.121432
-0.113197
-0.103839
-0.0934915
-0.0824209
-0.0711034
-0.0600437
-0.0496291
-0.0401662
-0.0318639
-0.0247259
-0.0186314
-0.0135244
-0.00937041
-0.00611769
-0.00362008
-0.00181487
-0.00054919
0.000281767
0.000800642
0.00106219
0.00115854
0.00111456
0.000959981
0.000674761
0.000272175
-0.109132
-0.11914
-0.125666
-0.128726
-0.129623
-0.129548
-0.129033
-0.128142
-0.126706
-0.124462
-0.121146
-0.116586
-0.110842
-0.103968
-0.0960916
-0.0873537
-0.0780256
-0.0683997
-0.0587864
-0.0495349
-0.0409566
-0.0332474
-0.0264612
-0.020527
-0.0154013
-0.0111031
-0.00763693
-0.00489645
-0.00283879
-0.00133796
-0.000297161
0.00039483
0.000793364
0.000988817
0.0010141
0.000901682
0.000642462
0.00025984
-0.0947055
-0.103522
-0.109525
-0.112631
-0.11384
-0.114146
-0.11404
-0.113605
-0.112713
-0.111142
-0.108685
-0.105169
-0.100571
-0.0949961
-0.0885318
-0.0812975
-0.0734962
-0.0653355
-0.0570877
-0.0490325
-0.0413928
-0.034314
-0.0278914
-0.0221443
-0.0170606
-0.0126877
-0.00906691
-0.00612851
-0.00385219
-0.00213691
-0.000895535
-3.32325e-05
0.000501968
0.000800197
0.000901751
0.000840383
0.000615514
0.000249933
-0.0814891
-0.0891864
-0.0946309
-0.0976774
-0.0990867
-0.0996821
-0.0999034
-0.0998452
-0.0994211
-0.0984527
-0.0967544
-0.0941581
-0.0906266
-0.0862645
-0.0811203
-0.0752323
-0.0687819
-0.061975
-0.0550225
-0.0480971
-0.0413594
-0.0349375
-0.0289541
-0.023486
-0.0185371
-0.0141671
-0.0104455
-0.00734133
-0.00486533
-0.00294646
-0.00150838
-0.00047527
0.000197293
0.000598055
0.000773897
0.000759773
0.000572439
0.000242749
-0.0694133
-0.0761063
-0.081004
-0.0839287
-0.0854574
-0.0862681
-0.0867519
-0.0870096
-0.0869826
-0.086515
-0.0854571
-0.0836943
-0.0811593
-0.0778687
-0.0740215
-0.0691746
-0.0639749
-0.0584209
-0.0526366
-0.0467468
-0.0408896
-0.035165
-0.0296784
-0.0245394
-0.0197749
-0.0154648
-0.0116977
-0.00847111
-0.00583072
-0.00373434
-0.00211199
-0.000910252
-9.87473e-05
0.000406901
0.000661985
0.00070174
0.000536584
0.000212285
-0.0583076
-0.0641014
-0.0684731
-0.0712331
-0.0728172
-0.0737802
-0.0744693
-0.0749888
-0.075301
-0.075276
-0.0747711
-0.0736494
-0.0718381
-0.0693497
-0.0661902
-0.0628536
-0.0589518
-0.0545683
-0.0498703
-0.0449664
-0.0399744
-0.0349644
-0.0300162
-0.0252581
-0.0207338
-0.0165421
-0.0127876
-0.00948424
-0.00671385
-0.00447419
-0.00269712
-0.001343
-0.000405114
0.000201911
0.000537019
0.000628791
0.000525328
0.000240852
-0.0483582
-0.0533491
-0.0572341
-0.0598173
-0.0614202
-0.062492
-0.063338
-0.0640604
-0.0646414
-0.0649758
-0.0649459
-0.0644495
-0.0634268
-0.0618382
-0.0596766
-0.0570915
-0.0540796
-0.0506943
-0.0469813
-0.0429777
-0.0387767
-0.0344398
-0.0300289
-0.0256728
-0.0214215
-0.0173859
-0.0136868
-0.0103441
-0.00746853
-0.005107
-0.00319497
-0.00170655
-0.000657239
2.48988e-05
0.000413334
0.000543375
0.000429197
0.000158611
-0.03902
-0.0433268
-0.0467708
-0.049166
-0.050754
-0.0518957
-0.0528534
-0.0537238
-0.0544992
-0.0550951
-0.0554167
-0.0553697
-0.0548952
-0.0539833
-0.0526751
-0.0510098
-0.0488619
-0.0464659
-0.0436644
-0.0405135
-0.0370944
-0.0334484
-0.0296122
-0.0257074
-0.0217805
-0.0179496
-0.0143581
-0.0110286
-0.00808771
-0.00563503
-0.00361544
-0.0020007
-0.000839988
-6.23671e-05
0.000403757
0.000578803
0.000539925
0.00026182
-0.0311021
-0.0347935
-0.0378415
-0.0400645
-0.0416331
-0.0428319
-0.0438873
-0.0448916
-0.0458541
-0.0467085
-0.0473766
-0.0477816
-0.0478697
-0.047607
-0.0469743
-0.0459529
-0.0445927
-0.0428223
-0.0406785
-0.0382286
-0.0354683
-0.0324188
-0.0290909
-0.0255948
-0.0219714
-0.0183328
-0.0148449
-0.0115426
-0.00855191
-0.00603601
-0.00395008
-0.00226724
-0.00105025
-0.000252075
0.000217945
0.00040345
0.000323985
0.000103857
-0.0229088
-0.0260705
-0.0287733
-0.030839
-0.0323799
-0.0336144
-0.0347354
-0.0358303
-0.0369121
-0.0379287
-0.0388147
-0.0395016
-0.0399501
-0.0401448
-0.0400746
-0.039741
-0.0391571
-0.0382024
-0.0368522
-0.0351351
-0.0330526
-0.0306246
-0.0278411
-0.0247975
-0.0215325
-0.018142
-0.0148094
-0.0115797
-0.00857782
-0.00601516
-0.00387859
-0.00212739
-0.000846849
2.95311e-06
0.000507963
0.000691943
0.000645056
0.000306681
-0.0173536
-0.0200587
-0.022425
-0.0243112
-0.0257998
-0.0270508
-0.0282174
-0.0293705
-0.0305355
-0.0316769
-0.0327505
-0.0337076
-0.0345028
-0.0351009
-0.035481
-0.0356139
-0.0354311
-0.0348876
-0.0342065
-0.0330381
-0.0315237
-0.0296264
-0.0272984
-0.0246217
-0.0216262
-0.0183931
-0.0151243
-0.0119011
-0.00884372
-0.00622977
-0.00406578
-0.00231136
-0.00104187
-0.00022621
0.000226718
0.000388281
0.000298564
8.03851e-05
-0.00980081
-0.0120578
-0.014181
-0.015994
-0.0175076
-0.0188203
-0.0200601
-0.0213008
-0.0225696
-0.0238342
-0.0250518
-0.0261808
-0.0272004
-0.0281036
-0.0288662
-0.0294524
-0.0298301
-0.0299707
-0.0298051
-0.029283
-0.0283909
-0.0270136
-0.0251375
-0.0228174
-0.0201068
-0.0170677
-0.0139167
-0.0107642
-0.00772826
-0.00513172
-0.00300719
-0.00131596
-0.000112971
0.000627069
0.00099105
0.00104457
0.000861987
0.000371249
-0.00718048
-0.00912811
-0.0109121
-0.0124689
-0.0138401
-0.0150859
-0.0162838
-0.0174706
-0.0186773
-0.0199013
-0.0211272
-0.0223317
-0.0234828
-0.0245577
-0.0255369
-0.026414
-0.0271315
-0.0276107
-0.0277881
-0.0277265
-0.0273447
-0.0264789
-0.0250858
-0.0231574
-0.0207251
-0.0177847
-0.0145484
-0.0112004
-0.00794758
-0.00519335
-0.00301158
-0.00136149
-0.000233669
0.000408375
0.000669636
0.000665395
0.000452852
0.00012661
-0.000414075
-0.00196048
-0.00360617
-0.00521352
-0.006719
-0.00810739
-0.00942656
-0.0107267
-0.0120504
-0.0133978
-0.0147503
-0.0160873
-0.0173859
-0.018654
-0.0198695
-0.0210187
-0.0220503
-0.0229259
-0.0236115
-0.0240624
-0.0240264
-0.0234439
-0.0223036
-0.0204959
-0.0180727
-0.0150166
-0.0116246
-0.0081811
-0.00493038
-0.00231612
-0.000399155
0.000888355
0.0016652
0.00197514
0.0019301
0.00165066
0.00116836
0.000442194
-0.000684187
-0.0021539
-0.00352332
-0.00480814
-0.00606496
-0.00730899
-0.00855056
-0.00976724
-0.0109682
-0.0121714
-0.0133498
-0.0145213
-0.0156656
-0.0168043
-0.0178916
-0.0189597
-0.019985
-0.0209258
-0.0217107
-0.0222985
-0.0225806
-0.0225297
-0.0219679
-0.0208358
-0.0191488
-0.0165051
-0.0129096
-0.00878271
-0.0048122
-0.00178553
0.000161501
0.00127313
0.00183952
0.0019384
0.00174061
0.00136065
0.000847883
0.00026391
0.0029482
0.00164096
0.000281691
-0.00109937
-0.00247439
-0.0038219
-0.00513334
-0.00641398
-0.00767294
-0.00891579
-0.0101747
-0.0114393
-0.0126885
-0.0139354
-0.0151609
-0.0163717
-0.0175183
-0.018573
-0.0194903
-0.0202303
-0.0206864
-0.02071
-0.020082
-0.0186441
-0.0162271
-0.0125333
-0.00792225
-0.00323069
0.000667466
0.00312461
0.00422429
0.00439992
0.00415762
0.00359613
0.00289982
0.00216419
0.00136692
0.000463754
-0.1203
-0.13732
-0.154508
-0.171855
-0.189768
-0.208123
-0.227087
-0.246882
-0.11248
-0.127816
-0.143161
-0.158954
-0.175146
-0.191599
-0.207295
-0.224168
-0.103954
-0.117016
-0.129736
-0.14306
-0.156246
-0.170049
-0.183715
-0.200277
-0.0955657
-0.106668
-0.11731
-0.128699
-0.140208
-0.152749
-0.165977
-0.181385
-0.0872161
-0.096809
-0.106163
-0.116296
-0.126907
-0.138301
-0.150067
-0.163156
-0.0794241
-0.0877576
-0.0960211
-0.104821
-0.114008
-0.123593
-0.133534
-0.145022
-0.0718207
-0.0789429
-0.086062
-0.0934974
-0.10128
-0.10948
-0.118283
-0.128518
-0.0644765
-0.0704351
-0.0765038
-0.0828798
-0.0896566
-0.0968454
-0.104562
-0.113384
-0.0574068
-0.0623985
-0.0675535
-0.0730331
-0.0788903
-0.085051
-0.0916305
-0.0992019
-0.0505934
-0.0547672
-0.0590866
-0.0637153
-0.0686919
-0.0739432
-0.0795933
-0.0861453
-0.0439285
-0.0474152
-0.0510203
-0.0549192
-0.0591573
-0.0636681
-0.068532
-0.074163
-0.0374053
-0.0403501
-0.0433861
-0.0466918
-0.050306
-0.0541713
-0.0583331
-0.0631546
-0.0310178
-0.033533
-0.0361051
-0.0389025
-0.0419653
-0.0452569
-0.0488158
-0.0529537
-0.0248983
-0.0270965
-0.0293313
-0.0317455
-0.0343773
-0.0372115
-0.0402705
-0.0438122
-0.0187299
-0.0206642
-0.022595
-0.024666
-0.0269245
-0.0293724
-0.0320281
-0.0351057
-0.0133671
-0.0151165
-0.0168834
-0.0187525
-0.0207487
-0.0228815
-0.0251685
-0.0277905
-0.00724456
-0.00891975
-0.0105557
-0.0122167
-0.0139585
-0.0158173
-0.017812
-0.0200859
-0.00302167
-0.00451045
-0.00603093
-0.00764041
-0.00932022
-0.0110646
-0.0128855
-0.0149062
0.00289532
0.00127115
-0.000317915
-0.00185323
-0.00332744
-0.00477864
-0.00624964
-0.00785897
0.0056639
0.00422374
0.00277418
0.00126494
-0.000306792
-0.00193024
-0.00358193
-0.00530284
0.010639
0.00901337
0.00743577
0.00593364
0.00453745
0.00324806
0.00205806
0.000887015
0.012048
0.0104336
0.00885906
0.00728812
0.00570418
0.00409759
0.00248256
0.000875194
0.0143757
0.0127189
0.0111286
0.00961332
0.00817831
0.00681008
0.00549696
0.00421679
0.0543729
0.0580617
0.0608374
0.0624447
0.0625077
0.0609674
0.057635
0.0519371
0.0429397
0.0293541
0.0094172
-0.0192182
-0.0602866
-0.116806
-0.163815
0.0324903
0.0336063
0.0325968
0.0303853
0.0269987
0.0220328
0.0149345
0.0049507
-0.00892311
-0.0280294
-0.0542373
-0.0899441
-0.138127
-0.203172
-0.250481
0.0100525
0.00844822
0.00410117
-0.0012171
-0.0074838
-0.015441
-0.0258348
-0.0394762
-0.0574137
-0.0810149
-0.112168
-0.153614
-0.20719
-0.275292
-0.320953
-0.0140831
-0.0182237
-0.0247177
-0.0319971
-0.0403877
-0.0507771
-0.0638662
-0.0803858
-0.101432
-0.128405
-0.162977
-0.208211
-0.264858
-0.331301
-0.37364
-0.0390392
-0.0453323
-0.0529972
-0.0614006
-0.0713184
-0.0835399
-0.0986219
-0.117138
-0.140234
-0.169255
-0.20597
-0.252513
-0.309004
-0.370761
-0.408131
-0.0636396
-0.0714699
-0.0796821
-0.0889203
-0.0999986
-0.11345
-0.129748
-0.149521
-0.173681
-0.203447
-0.240401
-0.285899
-0.339314
-0.393542
-0.425493
-0.0876065
-0.0954593
-0.104171
-0.114233
-0.126165
-0.140347
-0.157213
-0.177348
-0.201506
-0.23071
-0.266173
-0.308579
-0.356105
-0.400379
-0.427827
-0.109149
-0.117427
-0.12668
-0.137392
-0.149831
-0.164273
-0.181099
-0.200814
-0.22404
-0.251558
-0.284126
-0.321615
-0.360778
-0.393775
-0.417729
0.192217
0.207156
0.223715
0.241998
0.26199
0.283634
0.306883
0.331696
0.357976
0.385461
0.413594
0.441319
0.466804
0.48663
0.503166
0.187489
0.201197
0.216695
0.234083
0.253162
0.273739
0.295724
0.31907
0.343666
0.369205
0.395057
0.420077
0.442303
0.458398
0.471323
0.178928
0.190683
0.204601
0.220639
0.238282
0.257134
0.277034
0.297917
0.319627
0.34178
0.363636
0.383906
0.400406
0.409939
0.416807
0.166487
0.175861
0.187894
0.202194
0.217859
0.234325
0.251391
0.268959
0.286793
0.304378
0.3208
0.334582
0.34323
0.343575
0.342575
0.1503
0.157141
0.167229
0.179582
0.192833
0.206301
0.219809
0.233265
0.246352
0.258396
0.268277
0.274289
0.273614
0.262949
0.252254
0.13068
0.13489
0.143018
0.153271
0.163827
0.173949
0.183488
0.192332
0.200065
0.205857
0.208391
0.205731
0.194744
0.172031
0.150349
0.108219
0.110268
0.116644
0.124404
0.131713
0.138043
0.143333
0.147358
0.149503
0.148754
0.143616
0.131945
0.110336
0.0754443
0.0429447
0.0824059
0.0837821
0.0891025
0.0941865
0.0978716
0.100118
0.100969
0.100041
0.0965155
0.0892002
0.0764423
0.0559214
0.024005
-0.0224186
-0.0639964
0.0263667
0.0285177
0.0281226
0.0298494
0.0304369
0.0330134
0.0347807
0.0381004
0.0410622
0.0453815
0.0498617
0.0554666
0.0615991
0.0688061
0.0767367
0.0857811
0.0956551
0.106682
0.118608
0.131717
0.145733
0.160869
0.176806
0.0286329
0.0308564
0.030236
0.0319783
0.0323699
0.0349483
0.0365142
0.039772
0.042569
0.0467888
0.051099
0.0565709
0.0625233
0.0695547
0.0772876
0.0860879
0.0956613
0.106341
0.117786
0.130398
0.143758
0.158244
0.173278
0.0308979
0.0331468
0.0323461
0.0340534
0.0342839
0.0368274
0.0382138
0.0413974
0.0440279
0.0481538
0.0522758
0.0576177
0.0633613
0.0702035
0.0776945
0.0861974
0.0953003
0.105453
0.116129
0.127944
0.14021
0.153547
0.166898
0.0331615
0.0353863
0.0344516
0.0360704
0.0361739
0.038642
0.0398744
0.0429593
0.0454387
0.0494467
0.0533768
0.0585572
0.06408
0.0707246
0.0779479
0.0861239
0.094586
0.104097
0.113756
0.124483
0.135117
0.146673
0.157437
0.0354208
0.0375765
0.0365442
0.0380285
0.0380333
0.0403825
0.0414858
0.0444463
0.0467817
0.0506499
0.0543854
0.059378
0.0646684
0.0710105
0.0778196
0.0854481
0.0930537
0.101637
0.109982
0.119303
0.127903
0.137266
0.14475
0.0376708
0.0397217
0.0386159
0.0399317
0.0398497
0.0420434
0.0430322
0.0458441
0.0480438
0.0517693
0.0553219
0.0601232
0.0652842
0.071454
0.0777512
0.0848843
0.0915678
0.0992465
0.105956
0.113539
0.119319
0.12576
0.129056
0.0399054
0.0418257
0.0406607
0.0417812
0.0416163
0.043618
0.044512
0.0471453
0.0492157
0.0527553
0.0561011
0.0606475
0.065489
0.071168
0.0768034
0.0830477
0.0886774
0.0949746
0.100036
0.105565
0.108654
0.111947
0.11056
0.042118
0.0438928
0.0426711
0.0435717
0.0433224
0.0450944
0.0458955
0.0483592
0.0503441
0.0537783
0.0570188
0.0614627
0.066165
0.0715707
0.0765665
0.0821864
0.0866441
0.0916988
0.0943788
0.097425
0.0962529
0.0955912
0.0885641
0.0442551
0.0459024
0.0446415
0.0453189
0.0449853
0.0465121
0.0472301
0.0494189
0.0512766
0.0543928
0.0574026
0.0614505
0.0655064
0.0701412
0.0742497
0.0785937
0.0818423
0.0848287
0.0859395
0.0859674
0.0828306
0.0770712
0.0653125
0.0464331
0.0479724
0.0466657
0.0471453
0.0467019
0.0479829
0.0485457
0.0504262
0.0520525
0.0547663
0.0573934
0.0608109
0.0641191
0.0678077
0.0709677
0.0739488
0.0759515
0.0770573
0.0766216
0.0742196
0.0695502
0.0618448
0.0522359
0.0488231
0.0502332
0.0488798
0.0491356
0.0485603
0.0495354
0.0499045
0.0514005
0.0527485
0.054953
0.0571385
0.0597852
0.0623844
0.0649991
0.067204
0.0687992
0.0695532
0.0690085
0.0671148
0.0631852
0.0575835
0.0500513
0.0415075
0.0514572
0.0526894
0.0513105
0.0512865
0.0505841
0.05118
0.0513533
0.0523856
0.0534455
0.0550601
0.0567746
0.0586113
0.0604674
0.0620339
0.0632245
0.063565
0.0630637
0.0612019
0.0580805
0.0533303
0.0472719
0.0399923
0.0319522
0.0543695
0.0553533
0.0539791
0.0536109
0.0527879
0.0529432
0.0528996
0.0534131
0.0541434
0.0551368
0.0563061
0.0573452
0.0583913
0.0589758
0.0591116
0.0583396
0.0566801
0.0538036
0.0497899
0.0445603
0.0382943
0.0311873
0.0235702
0.0575962
0.0582476
0.0569011
0.0561448
0.0551774
0.0548578
0.0545334
0.0545097
0.0548342
0.0552053
0.0557431
0.0560037
0.0561852
0.0558477
0.0549613
0.053206
0.050575
0.04693
0.0423319
0.0368099
0.0305063
0.023617
0.0164088
0.0611754
0.061413
0.060086
0.0589325
0.0577598
0.0569508
0.0562585
0.0556967
0.0555274
0.0552786
0.0551124
0.0546029
0.0539179
0.0527116
0.0509139
0.0483152
0.0449324
0.0407348
0.035788
0.0301402
0.0239266
0.0173073
0.010483
0.0651445
0.0649129
0.0635486
0.0620079
0.0605599
0.0592463
0.0580969
0.0569911
0.0562499
0.0553679
0.0544639
0.0531985
0.0516957
0.0496905
0.0471163
0.0438388
0.0399158
0.0353568
0.0302401
0.0246097
0.01858
0.0122558
0.00575842
0.0695413
0.0688228
0.0673211
0.0654058
0.0636149
0.0617717
0.0600716
0.0584045
0.0570484
0.0555142
0.0538758
0.0518862
0.0496404
0.0469286
0.0437092
0.0399128
0.0356195
0.0308612
0.025712
0.0202074
0.0144295
0.00843401
0.00225266
0.074412
0.0732204
0.0714702
0.0691669
0.0669691
0.0645613
0.0622193
0.0599587
0.0579762
0.0557833
0.0534263
0.0507571
0.0478635
0.0445635
0.0408342
0.036654
0.0321223
0.0272879
0.022206
0.0168938
0.011401
0.00574869
-9.09138e-05
0.0798211
0.0782001
0.0760808
0.0733373
0.0706644
0.0676567
0.0646035
0.0617041
0.0591015
0.056262
0.0532013
0.049894
0.0464518
0.0427047
0.0386026
0.0341599
0.0294973
0.0246817
0.0197425
0.0146721
0.00949016
0.0042027
-0.00125431
0.0858615
0.0838679
0.0812596
0.077985
0.0747509
0.071104
0.0672841
0.0636969
0.0604878
0.0570499
0.0533305
0.0494344
0.0455315
0.0414523
0.0370918
0.0324783
0.0277585
0.0230242
0.0182822
0.0134946
0.00864926
0.00374625
-0.00129087
0.0926729
0.0903432
0.0871349
0.0831963
0.0792923
0.0749621
0.0703521
0.066022
0.0621987
0.0582122
0.0539104
0.0494898
0.045198
0.0408787
0.0363617
0.0316577
0.0269376
0.022327
0.017819
0.0133401
0.00884087
0.00431433
-0.000301725
0.100444
0.0977817
0.0938666
0.0890913
0.0843618
0.0792834
0.0738792
0.0687817
0.0643317
0.0598476
0.055052
0.0501703
0.0455309
0.0410265
0.0364233
0.0316862
0.026996
0.0225231
0.0182617
0.0141048
0.00995685
0.00578772
0.0015234
0.109445
0.106384
0.101636
0.0958287
0.090085
0.084156
0.0779385
0.0720478
0.0669505
0.0620045
0.0568183
0.0515737
0.0466607
0.0420335
0.0374174
0.0327111
0.0280853
0.0237506
0.0197239
0.0158824
0.012098
0.0083271
0.00451914
0.120059
0.116428
0.110621
0.103569
0.0966349
0.0897208
0.0826286
0.0758953
0.070066
0.0645895
0.0589995
0.0534001
0.0482035
0.0434319
0.0387964
0.0341293
0.0295626
0.0253224
0.0214495
0.0178147
0.0142574
0.0107044
0.00710741
0.132892
0.128298
0.120968
0.112428
0.104217
0.0963651
0.0885222
0.0810811
0.0745797
0.0685939
0.062634
0.0567292
0.0512765
0.0463606
0.0417046
0.0371002
0.0326306
0.0285166
0.0248283
0.0214518
0.0182118
0.0150132
0.0118003
0.148916
0.142717
0.132862
0.121882
0.111673
0.102344
0.0934441
0.0851492
0.0779331
0.0714234
0.0651267
0.058975
0.0533028
0.0482405
0.0435442
0.0389808
0.0345794
0.030537
0.0269375
0.0236843
0.020602
0.01758
0.0145687
0.169215
0.160876
0.14865
0.135629
0.123611
0.112782
0.102691
0.0933836
0.0852447
0.0779836
0.0711344
0.0645775
0.0585731
0.0532701
0.0484589
0.0438909
0.0395364
0.0355491
0.032016
0.0288627
0.0259225
0.0230757
0.0202625
0.195134
0.1789
0.160628
0.144184
0.129979
0.117674
0.106587
0.096557
0.08784
0.0801302
0.0729821
0.0662396
0.0600699
0.054646
0.0498199
0.0453422
0.0411114
0.0372218
0.0337603
0.0306845
0.0278586
0.025169
0.0225651
0.240758
0.213706
0.187467
0.165756
0.147977
0.132865
0.119552
0.1077
0.0974054
0.0884456
0.0804133
0.0730889
0.0664966
0.0607388
0.0557017
0.0511525
0.046922
0.042997
0.0394366
0.036248
0.0333611
0.030683
0.028146
0.275241
0.227673
0.193954
0.17093
0.152228
0.135929
0.12174
0.109186
0.0982381
0.0888574
0.0806961
0.0734245
0.0669112
0.0611917
0.0562191
0.0518084
0.0477588
0.0439712
0.0404712
0.0373087
0.0344875
0.0319538
0.029639
0.433227
0.280119
0.228341
0.197467
0.171594
0.14972
0.131573
0.116521
0.104076
0.0938503
0.0852903
0.077861
0.0712206
0.0652645
0.059998
0.0553548
0.0511785
0.0473074
0.0436894
0.0403666
0.0374033
0.0348119
0.032537
0.0495129
0.028719
0.00659596
-0.0154569
-0.0382596
-0.060995
-0.082612
-0.102293
0.0413493
0.0209771
-0.00200185
-0.0227594
-0.0424528
-0.0618008
-0.0798886
-0.0965641
0.0326566
0.0152952
-0.0062023
-0.0257993
-0.0427138
-0.0589275
-0.0747329
-0.0899112
0.024022
0.00902742
-0.0107982
-0.0293162
-0.0444301
-0.0580654
-0.0710317
-0.0836967
0.0162221
0.00337821
-0.0140992
-0.0309286
-0.0441831
-0.0555023
-0.0662259
-0.0770314
0.00945534
-0.00167666
-0.0168265
-0.0317544
-0.0434783
-0.0530119
-0.061861
-0.070782
0.00383999
-0.00590283
-0.0187979
-0.0316241
-0.0417925
-0.0498387
-0.0572127
-0.0645552
-0.000669729
-0.00930114
-0.0200919
-0.0306944
-0.0393197
-0.046171
-0.0523849
-0.0584545
-0.0040348
-0.0118701
-0.0206539
-0.0289989
-0.0360625
-0.0419193
-0.047241
-0.052361
-0.00615253
-0.0132193
-0.0202738
-0.0266994
-0.0323652
-0.0373526
-0.0419628
-0.0463385
-0.00699595
-0.0133127
-0.0189737
-0.0238892
-0.0283806
-0.032579
-0.0365651
-0.040329
-0.00663202
-0.0122386
-0.016821
-0.0206088
-0.0241649
-0.0276706
-0.0310943
-0.0343369
-0.00518365
-0.0101207
-0.0138837
-0.0168569
-0.0196978
-0.0226231
-0.025561
-0.0283725
-0.00303902
-0.00749037
-0.0106412
-0.0129921
-0.0152618
-0.0176912
-0.0201887
-0.0226037
0.000492112
-0.00343775
-0.00623356
-0.00827574
-0.0102067
-0.0122996
-0.0145033
-0.0166772
0.00331588
-0.000252383
-0.00268824
-0.0044065
-0.00602203
-0.00779558
-0.00968322
-0.0115625
0.00842235
0.00516093
0.00280077
0.00110431
-0.000418238
-0.0020385
-0.00376547
-0.00552031
0.0114521
0.00849808
0.0063225
0.00471753
0.00326395
0.00171951
9.98989e-05
-0.00149489
0.0173601
0.0145257
0.012272
0.0105379
0.00904846
0.00759379
0.00608629
0.0045095
0.0199489
0.0173994
0.0152441
0.0134486
0.011823
0.0102328
0.00866041
0.00713537
0.0256118
0.0230819
0.0208179
0.0188669
0.0171452
0.0155218
0.0139099
0.0122754
0.0273952
0.0251359
0.0229638
0.0209251
0.019013
0.0171883
0.015426
0.0137133
0.030371
0.0281509
0.0259264
0.0237519
0.0216769
0.0197184
0.0178648
0.0160885
-0.259578
-0.265389
-0.274703
-0.287609
-0.30468
-0.326456
-0.351667
-0.375793
-0.258277
-0.263314
-0.27104
-0.281777
-0.295957
-0.313593
-0.333901
-0.354022
-0.254829
-0.259434
-0.266288
-0.275469
-0.287553
-0.302278
-0.317138
-0.328156
-0.250571
-0.254851
-0.260887
-0.268499
-0.277661
-0.287263
-0.294536
-0.296192
-0.246546
-0.250279
-0.25512
-0.260343
-0.265392
-0.269089
-0.269463
-0.26427
-0.243482
-0.246184
-0.249104
-0.251237
-0.252006
-0.250678
-0.245917
-0.236088
-0.241857
-0.24287
-0.24322
-0.241972
-0.238919
-0.233693
-0.225246
-0.212246
-0.241859
-0.240528
-0.237799
-0.233152
-0.226864
-0.218629
-0.207493
-0.19229
-0.243405
-0.239099
-0.232921
-0.225061
-0.216106