/*--------------------------------*- C++ -*----------------------------------*\
| =========                 |                                                 |
| \\      /  F ield         | OpenFOAM: The Open Source CFD Toolbox           |
|  \\    /   O peration     | Version:  2312                                  |
|   \\  /    A nd           | Website:  www.openfoam.com                      |
|    \\/     M anipulation  |                                                 |
\*---------------------------------------------------------------------------*/
FoamFile
{
    version     2.0;
    format      ascii;
    arch        "LSB;label=32;scalar=64";
    class       volVectorField;
    location    "74";
    object      U;
}
// * * * * * * * * * * * * * * * * * * * * * * * * * * * * * * * * * * * * * //

dimensions      [0 1 -1 0 0 0 0];

internalField   nonuniform List<vector> 
5478
(
(-0.0424207 0.0281238 -1.13594e-19)
(-0.0632739 0.0457594 0)
(-0.0148572 0.044066 1.69755e-19)
(0.120827 0.0298925 -2.96959e-19)
(0.347848 0.0109929 1.9371e-19)
(0.630802 -0.00517927 -5.75356e-20)
(0.913357 -0.0175765 -1.00213e-19)
(1.14759 -0.0289835 0)
(1.30655 -0.0426363 0)
(1.38277 -0.0623411 1.28444e-19)
(1.39255 -0.0842389 -5.97017e-20)
(1.36344 -0.10697 -9.61257e-20)
(1.32233 -0.134813 -3.62893e-20)
(1.29336 -0.135646 0)
(1.25236 -0.187148 8.90851e-20)
(-0.0494468 0.0297518 2.28125e-19)
(-0.0421136 0.0344908 0)
(0.0753023 0.0193287 0)
(0.31836 0.00321492 -1.50318e-19)
(0.638865 -0.00294091 1.97697e-19)
(0.948439 -0.00133131 5.67369e-20)
(1.18467 0.000941054 -9.66094e-20)
(1.32571 -0.00235849 8.56709e-20)
(1.38112 -0.0137883 2.09594e-19)
(1.38101 -0.0311673 -1.82903e-19)
(1.35876 -0.0500906 4.38675e-21)
(1.33376 -0.0700664 0)
(1.3129 -0.0829979 3.62251e-20)
(1.2845 -0.0964213 0)
(1.25008 -0.111669 0)
(-0.0483835 0.0262487 -6.29302e-22)
(0.00987207 0.018182 -1.07124e-19)
(0.234937 0.00221978 7.92804e-22)
(0.589385 0.00403456 0)
(0.938358 0.0181246 -6.68375e-20)
(1.18992 0.0309736 5.63787e-20)
(1.3262 0.0345797 4.72876e-20)
(1.3739 0.0280632 0)
(1.37451 0.0150073 -6.96087e-20)
(1.36018 0.000358694 5.84179e-20)
(1.34216 -0.0149771 4.86613e-20)
(1.32138 -0.0268042 0)
(1.29235 -0.0414793 0)
(1.26267 -0.0485281 -9.73535e-20)
(1.23193 -0.0651265 8.67422e-20)
(-0.0356768 0.0173218 -1.25095e-19)
(0.106424 -0.00171597 1.05699e-19)
(0.464581 0.00352644 -9.12946e-20)
(0.870301 0.0329706 8.02562e-20)
(1.164 0.0588961 1.3395e-19)
(1.31859 0.0701366 -1.12037e-19)
(1.37426 0.0681747 -4.72644e-20)
(1.38088 0.0588146 3.69323e-20)
(1.36939 0.0470545 -3.52302e-20)
(1.34977 0.0338098 0)
(1.32541 0.0215952 0)
(1.29779 0.00707655 -6.86967e-20)
(1.27334 -0.00298105 8.89692e-20)
(1.25026 -0.0140596 -4.996e-20)
(1.22779 -0.0266811 0)
(-0.0072073 0.00512979 6.33378e-20)
(0.259674 -0.0111963 5.34422e-20)
(0.721779 0.033481 -1.91669e-19)
(1.09392 0.0809825 2.7118e-21)
(1.29684 0.105317 -2.16782e-21)
(1.37517 0.109885 -1.7648e-21)
(1.38903 0.103718 4.46533e-20)
(1.37592 0.0931646 3.7956e-20)
(1.35254 0.0804138 2.74485e-20)
(1.32726 0.0675881 -4.12236e-21)
(1.30342 0.0539672 -6.26909e-20)
(1.28264 0.0428838 0)
(1.26096 0.0319156 2.82726e-20)
(1.23827 0.0203801 -2.08712e-20)
(1.21495 0.013563 3.76929e-20)
(0.0440211 -0.00615878 -1.36411e-19)
(0.460711 0.00774378 1.47545e-19)
(0.947017 0.0867218 -5.0445e-20)
(1.2427 0.136985 3.80282e-20)
(1.36699 0.153701 -6.99618e-20)
(1.39562 0.151509 -5.20554e-20)
(1.38368 0.141263 1.41e-21)
(1.3596 0.128107 0)
(1.33517 0.114537 5.56989e-20)
(1.31242 0.10075 -4.95317e-20)
(1.29035 0.0882835 1.98776e-20)
(1.26693 0.0754085 0)
(1.24411 0.0637982 1.22472e-20)
(1.22287 0.0528244 -2.14226e-20)
(1.20305 0.04469 0)
(0.121728 -0.00771269 -1.70855e-20)
(0.66817 0.0605573 1.3589e-21)
(1.1168 0.15419 2.47915e-20)
(1.33208 0.197537 4.13056e-20)
(1.39578 0.204254 -3.15248e-20)
(1.39229 0.194833 5.30629e-20)
(1.36853 0.180484 -1.20212e-20)
(1.34204 0.165288 0)
(1.3161 0.149836 -3.28176e-20)
(1.29118 0.134962 2.11783e-21)
(1.26762 0.120214 2.74554e-20)
(1.24673 0.10697 0)
(1.22754 0.0947261 -1.78856e-20)
(1.20914 0.0826265 0)
(1.19167 0.0767472 1.09642e-20)
(0.221213 0.00784772 -1.85431e-20)
(0.844355 0.136107 0)
(1.23122 0.23025 2.57689e-20)
(1.37517 0.260981 0)
(1.39661 0.256308 0)
(1.37582 0.240051 0)
(1.34623 0.221574 -1.03098e-20)
(1.31728 0.202955 0)
(1.29131 0.184916 6.62136e-21)
(1.26844 0.167636 0)
(1.2478 0.151883 -8.60856e-21)
(1.22778 0.136844 0)
(1.20853 0.122772 5.63221e-21)
(1.19092 0.110672 0)
(1.17454 0.102303 3.6793e-21)
(-0.00470354 0.18609 -1.34858e-20)
(-0.015918 0.344405 0)
(-0.0406019 0.389504 2.1058e-20)
(-0.0672811 0.392445 0)
(-0.0909349 0.385135 0)
(-0.108705 0.371615 0)
(-0.118587 0.347153 -1.47735e-20)
(-0.119504 0.307198 0)
(-0.111186 0.248897 1.30505e-20)
(-0.0940739 0.170985 0)
(-0.0701359 0.0736281 -2.27665e-20)
(-0.0398537 -0.041559 0)
(0.00139107 -0.170133 1.86459e-20)
(0.037847 -0.311247 0)
(0.107176 -0.445705 1.3572e-20)
(-0.0143136 0.17466 6.83096e-20)
(-0.0230304 0.347973 -4.87121e-20)
(-0.029979 0.407796 2.2135e-20)
(-0.0354099 0.415346 7.76712e-20)
(-0.0353526 0.404876 1.31406e-21)
(-0.0268107 0.384581 -6.47514e-20)
(-0.0080391 0.352123 4.40985e-20)
(0.0212037 0.304043 0)
(0.0599205 0.238327 4.20049e-20)
(0.106046 0.154099 2.56572e-21)
(0.157042 0.0516558 -2.31226e-20)
(0.210761 -0.0696284 0)
(0.283777 -0.197821 -5.71128e-20)
(0.33048 -0.351935 0)
(0.439995 -0.486169 -6.63612e-20)
(-0.0209081 0.145959 1.12034e-19)
(-0.0296783 0.322174 2.42885e-20)
(-0.0201671 0.397515 -4.30876e-20)
(-0.00388795 0.412834 -1.17456e-19)
(0.0203875 0.401103 6.95847e-20)
(0.0547262 0.375197 6.66669e-20)
(0.100103 0.336557 -1.18717e-19)
(0.155946 0.283695 0)
(0.219675 0.215442 -1.10141e-19)
(0.288154 0.1296 9.79279e-20)
(0.36309 0.0336235 4.56361e-20)
(0.438633 -0.0913051 0)
(0.546562 -0.212399 3.84448e-20)
(0.608581 -0.373075 -6.44284e-20)
(0.754372 -0.495572 0)
(-0.0233569 0.107555 5.64259e-20)
(-0.0359876 0.269848 -1.48172e-19)
(-0.0163828 0.355844 1.73943e-19)
(0.0171811 0.380706 -1.52944e-19)
(0.0620556 0.370968 -6.83417e-20)
(0.117953 0.341942 6.21651e-20)
(0.184169 0.29908 5.96281e-20)
(0.259382 0.243231 5.32354e-20)
(0.340404 0.175832 -1.54569e-19)
(0.430381 0.0918421 -4.39559e-21)
(0.532815 0.0038782 4.13154e-20)
(0.644767 -0.122727 0)
(0.788042 -0.233879 6.91398e-20)
(0.887495 -0.390049 1.83543e-19)
(1.03762 -0.480353 -1.05895e-19)
(-0.0225362 0.0702054 -1.07037e-22)
(-0.0414028 0.203051 9.7976e-20)
(-0.0205236 0.287763 -8.51531e-20)
(0.02213 0.318346 7.62274e-20)
(0.0807077 0.31203 1.34428e-19)
(0.151945 0.283249 -1.21677e-19)
(0.233399 0.239754 -5.4406e-20)
(0.325068 0.18472 -1.59072e-19)
(0.429995 0.120539 1.43677e-19)
(0.555961 0.0396486 0)
(0.701657 -0.0505475 0)
(0.866472 -0.167785 1.48848e-19)
(1.02972 -0.268242 -3.30005e-19)
(1.15053 -0.391727 1.1439e-19)
(1.24755 -0.451639 0)
(-0.0214749 0.0425873 7.03619e-22)
(-0.0466755 0.138783 -9.67279e-20)
(-0.0312203 0.20799 2.54656e-19)
(0.0125994 0.235245 -7.4154e-20)
(0.0780822 0.229757 -6.61379e-20)
(0.161803 0.202873 5.95585e-20)
(0.265378 0.161794 5.4441e-20)
(0.394478 0.110072 9.99646e-20)
(0.553653 0.0451313 -1.77055e-19)
(0.739384 -0.0294889 8.07542e-20)
(0.937219 -0.115125 7.25868e-20)
(1.12192 -0.20332 0)
(1.26498 -0.277122 0)
(1.33664 -0.361662 1.81997e-19)
(1.34681 -0.374032 -1.61731e-19)
(-0.0240441 0.0281249 -6.43425e-23)
(-0.054567 0.090105 0)
(-0.0451281 0.134511 0)
(5.95845e-05 0.149847 1.44957e-19)
(0.0797281 0.140439 -6.42843e-20)
(0.198411 0.113652 5.64941e-20)
(0.361357 0.0746106 1.04218e-19)
(0.564155 0.0273155 -9.24e-20)
(0.790493 -0.0279772 8.83861e-20)
(1.01383 -0.0836394 -8.08323e-20)
(1.20516 -0.143979 -7.15289e-21)
(1.3365 -0.196323 0)
(1.39611 -0.244072 4.6681e-20)
(1.37931 -0.287395 0)
(1.3253 -0.28773 0)
(-0.0320079 0.0252763 -1.11045e-19)
(-0.0635939 0.0608082 0)
(-0.0485746 0.0794484 -1.6714e-19)
(0.0201533 0.0791519 2.92335e-19)
(0.152387 0.0622712 -3.19296e-19)
(0.350659 0.0357338 -5.73676e-20)
(0.5966 0.00531131 1.00436e-19)
(0.855488 -0.0261839 0)
(1.08987 -0.058019 0)
(1.27022 -0.0890147 -1.41531e-19)
(1.3745 -0.125692 -6.0553e-20)
(1.40738 -0.151153 1.07766e-19)
(1.3764 -0.191243 -4.67802e-20)
(1.32245 -0.20366 0)
(1.27236 -0.221757 -1.06685e-19)
(0.17846 -0.628172 0)
(0.21095 -0.75045 3.28018e-21)
(0.107382 -0.833132 -3.02165e-21)
(0.0579472 -0.724697 0)
(0.306175 -0.25246 0)
(0.559535 0.266431 -9.7222e-23)
(0.68577 0.533202 0)
(0.782165 0.579193 0)
(0.761965 0.608096 5.44608e-23)
(0.608971 0.662803 0)
(0.57776 0.447179 0)
(0.739837 0.0428854 -1.13059e-22)
(0.913297 -0.209482 0)
(0.932325 -0.392344 -9.46497e-23)
(0.935969 -0.545883 -8.18025e-23)
(0.981926 -0.550659 0)
(0.974803 -0.368349 -5.49874e-22)
(0.995373 -0.00649762 6.75514e-22)
(1.03119 0.387403 0)
(1.03308 0.556465 3.94206e-22)
(1.01601 0.449702 -4.77043e-22)
(1.05967 0.157853 8.34116e-23)
(1.07004 -0.249751 -1.62316e-22)
(0.987532 -0.516662 1.55097e-22)
(1.01428 -0.28798 -7.84935e-23)
(1.04482 0.229697 0)
(0.988467 0.470099 -9.4815e-23)
(0.897293 0.260238 9.06586e-23)
(0.809066 -0.100635 -1.01217e-22)
(0.811341 -0.227783 0)
(0.876443 -0.07398 7.53929e-24)
(0.919039 0.123862 0)
(0.869008 0.171723 -3.65544e-23)
(0.789456 0.0997441 -6.23059e-23)
(0.738143 -0.0526122 1.11679e-23)
(0.71507 -0.129911 -9.14069e-23)
(0.763161 -0.181336 0)
(0.858837 -0.112129 1.12502e-23)
(0.48005 -0.664747 2.44004e-20)
(0.513458 -0.725323 -1.13134e-22)
(0.402567 -0.741168 -8.21857e-21)
(0.15069 -0.733082 7.83914e-21)
(0.181103 -0.387872 0)
(0.407156 0.140351 9.79893e-23)
(0.590965 0.443513 -9.46472e-23)
(0.739432 0.547406 0)
(0.71352 0.650741 -5.48754e-23)
(0.566412 0.710886 0)
(0.596402 0.421079 0)
(0.766244 -0.0319504 1.13865e-22)
(0.952411 -0.252552 0)
(0.987746 -0.393636 3.03247e-21)
(0.966205 -0.557603 -2.55305e-21)
(1.00865 -0.563009 2.19027e-21)
(0.986396 -0.37128 -2.09079e-21)
(0.978403 -0.0191269 -1.51417e-22)
(1.00577 0.371583 0)
(1.00355 0.548618 0)
(0.986096 0.444614 -7.8808e-23)
(1.04818 0.154057 7.73494e-22)
(1.09266 -0.239107 -1.26717e-21)
(1.00495 -0.51054 5.84996e-22)
(1.01262 -0.298122 2.61497e-22)
(1.04581 0.228449 0)
(0.99863 0.481975 1.91499e-22)
(0.920032 0.280318 0)
(0.834424 -0.0905444 1.01571e-22)
(0.831841 -0.235792 -7.7886e-23)
(0.892703 -0.0840721 6.1595e-23)
(0.9288 0.124749 -9.24716e-24)
(0.879363 0.181713 3.35528e-23)
(0.801418 0.109676 -1.76263e-23)
(0.759778 -0.0472233 8.75364e-23)
(0.731368 -0.131088 -8.77575e-23)
(0.767835 -0.189863 -6.27486e-24)
(0.867002 -0.118367 6.74618e-24)
(0.751759 -0.685238 3.60964e-20)
(0.74098 -0.730176 -5.73571e-20)
(0.697871 -0.635709 8.46561e-21)
(0.433972 -0.63206 1.29382e-20)
(0.210404 -0.485782 9.02496e-23)
(0.36105 -0.0213026 -4.28792e-23)
(0.566095 0.334783 9.62828e-23)
(0.716778 0.524571 -1.77863e-22)
(0.687383 0.693976 0)
(0.57223 0.745114 9.70001e-21)
(0.660081 0.405309 -9.25117e-21)
(0.82844 -0.0868377 -3.22056e-22)
(0.993063 -0.294008 0)
(1.02833 -0.381489 -5.97661e-21)
(0.979164 -0.550142 5.53161e-21)
(1.01238 -0.572617 -2.33856e-21)
(0.98925 -0.374333 2.23159e-21)
(0.9565 -0.0312359 3.03008e-21)
(0.976671 0.361329 -2.56859e-21)
(0.979205 0.548549 0)
(0.958898 0.444431 0)
(1.03105 0.151941 1.23319e-21)
(1.10878 -0.22357 -1.17719e-21)
(1.02074 -0.496707 -9.18297e-22)
(1.00438 -0.310602 5.77917e-23)
(1.04242 0.222033 8.03852e-22)
(1.00904 0.491851 1.27441e-23)
(0.943006 0.302119 -4.39496e-22)
(0.859571 -0.0767219 1.04459e-21)
(0.851806 -0.24207 -7.78239e-22)
(0.907598 -0.0944004 -6.19988e-24)
(0.938263 0.124931 1.10571e-23)
(0.890888 0.191041 1.1588e-22)
(0.813449 0.1191 -1.10796e-22)
(0.779288 -0.0419666 -9.92656e-23)
(0.750816 -0.131164 -8.76703e-23)
(0.775211 -0.197615 1.85705e-22)
(0.873659 -0.124707 1.34805e-23)
(1.01208 -0.635897 0)
(0.913115 -0.712013 2.15898e-20)
(0.83644 -0.586569 -2.12252e-20)
(0.707748 -0.473929 0)
(0.404922 -0.462087 -9.27552e-23)
(0.396937 -0.190414 4.40562e-23)
(0.623158 0.190701 0)
(0.745924 0.468037 2.20703e-23)
(0.657906 0.713605 -2.17435e-22)
(0.578811 0.778703 0)
(0.736895 0.408259 -1.1537e-20)
(0.911222 -0.114726 1.1327e-20)
(1.03684 -0.327781 -5.17343e-22)
(1.07394 -0.366869 -6.02445e-21)
(1.00967 -0.531711 5.74428e-21)
(1.01622 -0.581374 2.91642e-22)
(0.990754 -0.382622 0)
(0.942191 -0.0520289 -3.46252e-22)
(0.950662 0.331764 4.60745e-21)
(0.945074 0.535182 -1.49739e-21)
(0.924115 0.442278 -6.16063e-22)
(1.00755 0.14813 -1.79575e-21)
(1.11773 -0.210681 -1.86379e-21)
(1.0372 -0.479176 2.26081e-21)
(0.992308 -0.32407 -2.10376e-22)
(1.03426 0.204933 0)
(1.01519 0.494832 -2.08943e-22)
(0.961724 0.323972 4.45298e-22)
(0.882618 -0.0604508 -1.07385e-21)
(0.87097 -0.247022 8.02604e-22)
(0.921565 -0.105432 -3.21269e-24)
(0.947763 0.124214 0)
(0.903195 0.200405 -1.25377e-22)
(0.826019 0.128615 2.7714e-22)
(0.796973 -0.0368904 1.97883e-22)
(0.771669 -0.130531 3.52243e-22)
(0.785676 -0.204427 -1.85835e-22)
(0.879609 -0.130909 1.52016e-24)
(1.18027 -0.558096 5.14801e-22)
(1.06096 -0.608012 8.03326e-22)
(0.88295 -0.56965 0)
(0.812571 -0.396865 0)
(0.644476 -0.350652 0)
(0.482763 -0.290688 0)
(0.63519 0.0316638 3.27826e-21)
(0.769466 0.42441 -9.21948e-21)
(0.696508 0.72037 6.36342e-21)
(0.651212 0.769159 0)
(0.820431 0.405256 -1.17109e-20)
(0.996313 -0.121663 1.14862e-20)
(1.08281 -0.349867 8.27557e-21)
(1.10379 -0.352718 -6.98334e-21)
(1.03477 -0.502959 5.21721e-21)
(1.01415 -0.584094 -5.27179e-21)
(0.983909 -0.393724 -3.13232e-22)
(0.921117 -0.0723392 -5.91472e-21)
(0.919629 0.316761 5.63706e-21)
(0.922174 0.537475 4.61583e-22)
(0.904287 0.446699 2.42164e-22)
(0.987983 0.145327 1.79259e-21)
(1.12012 -0.197694 -1.98289e-21)
(1.05322 -0.457716 -4.50632e-22)
(0.975929 -0.337751 -2.48431e-22)
(1.02157 0.184723 -2.63819e-22)
(1.02054 0.495756 0)
(0.979309 0.345465 0)
(0.903726 -0.0416407 0)
(0.889032 -0.250123 0)
(0.934911 -0.116466 7.36092e-25)
(0.95734 0.122679 2.4001e-24)
(0.915767 0.208599 2.6913e-22)
(0.839707 0.137664 -1.22844e-21)
(0.81391 -0.0320821 2.08588e-22)
(0.792886 -0.129429 7.31928e-23)
(0.798887 -0.210217 -2.57505e-22)
(0.885439 -0.136764 -4.06811e-23)
(1.22711 -0.473163 -5.4217e-22)
(1.11818 -0.488451 4.13021e-20)
(0.937959 -0.494277 -3.97206e-20)
(0.800596 -0.390841 -1.57545e-20)
(0.771357 -0.288188 1.50044e-20)
(0.63871 -0.290487 3.7724e-21)
(0.616152 -0.123552 -3.51445e-21)
(0.719066 0.308369 1.35632e-22)
(0.632003 0.683469 -2.16845e-22)
(0.605197 0.782235 0)
(0.832832 0.447146 -3.64538e-22)
(1.05652 -0.0843709 2.07778e-20)
(1.1344 -0.344269 -1.97751e-20)
(1.13665 -0.33095 -4.09204e-22)
(1.06441 -0.465427 0)
(1.01899 -0.578736 -5.36641e-21)
(0.97197 -0.407047 1.09785e-20)
(0.900218 -0.101505 -5.15111e-21)
(0.890794 0.270661 0)
(0.889983 0.514509 2.49363e-21)
(0.874052 0.452326 -1.14197e-21)
(0.967261 0.149732 -1.84194e-21)
(1.11611 -0.184437 -2.07889e-21)
(1.06793 -0.434472 1.96067e-21)
(0.959557 -0.348363 -2.20608e-21)
(1.00273 0.151037 -1.45408e-23)
(1.02063 0.487719 2.23504e-21)
(0.991205 0.369075 -1.84126e-21)
(0.92106 -0.0180702 1.75071e-21)
(0.905636 -0.250949 -2.52614e-22)
(0.947658 -0.128505 2.40205e-22)
(0.966973 0.119539 0)
(0.928556 0.217328 2.86141e-22)
(0.855035 0.147533 1.17322e-22)
(0.831234 -0.0271557 0)
(0.814052 -0.127992 -3.92998e-22)
(0.814214 -0.215096 1.72275e-22)
(0.891499 -0.142164 -1.48393e-24)
(1.21805 -0.366292 0)
(1.10827 -0.397266 0)
(0.993795 -0.408486 -1.31888e-22)
(0.82395 -0.359894 0)
(0.784604 -0.276157 0)
(0.76891 -0.262517 4.41034e-21)
(0.650988 -0.181289 -4.188e-21)
(0.6343 0.229468 9.4861e-21)
(0.602688 0.647248 -9.04823e-21)
(0.653855 0.723164 0)
(0.892643 0.411312 -2.84383e-22)
(1.11579 -0.0803962 3.10447e-22)
(1.17736 -0.347155 -1.65009e-20)
(1.15816 -0.316726 3.35982e-21)
(1.08288 -0.427967 1.14714e-20)
(1.02502 -0.56272 1.64698e-22)
(0.956979 -0.42204 -1.51214e-22)
(0.866439 -0.128119 1.24358e-20)
(0.857156 0.251662 -1.22044e-20)
(0.864803 0.515463 0)
(0.863062 0.455583 0)
(0.958358 0.14594 -1.03545e-22)
(1.11177 -0.171651 0)
(1.07731 -0.408522 1.99657e-21)
(0.945361 -0.358321 6.3534e-22)
(0.982873 0.121322 -2.19887e-21)
(1.02183 0.479573 -2.46403e-21)
(1.00173 0.386627 1.63826e-21)
(0.935687 0.00232548 -2.28937e-22)
(0.920617 -0.251871 0)
(0.959524 -0.140117 -2.43072e-23)
(0.976503 0.116187 2.30482e-23)
(0.941051 0.223418 8.69425e-23)
(0.871608 0.155713 2.69525e-22)
(0.849495 -0.022628 -2.20106e-22)
(0.835026 -0.126484 1.71202e-22)
(0.830958 -0.219172 0)
(0.89795 -0.147053 3.0054e-23)
(1.21235 -0.286929 6.54455e-20)
(1.13014 -0.320146 4.49681e-20)
(1.03926 -0.355263 -1.1089e-20)
(0.914857 -0.336504 -5.03775e-20)
(0.819324 -0.293484 1.9392e-20)
(0.798208 -0.286221 -5.2465e-23)
(0.712587 -0.250918 0)
(0.589626 0.0568526 -5.26015e-23)
(0.489309 0.527628 -7.4564e-23)
(0.505563 0.725577 0)
(0.818215 0.488885 -1.82031e-20)
(1.13553 0.011267 1.72798e-20)
(1.21437 -0.302063 2.92808e-22)
(1.18328 -0.289951 1.20625e-20)
(1.10347 -0.382456 -1.14525e-20)
(1.03384 -0.538429 1.44034e-22)
(0.94835 -0.424401 1.60839e-22)
(0.828865 -0.168543 0)
(0.804946 0.181135 1.08981e-20)
(0.830055 0.476584 -1.0316e-20)
(0.833036 0.469333 -1.93036e-21)
(0.944614 0.168576 2.63808e-22)
(1.11152 -0.151764 1.59101e-21)
(1.07983 -0.379188 -1.95114e-21)
(0.938472 -0.364339 -5.1015e-22)
(0.958006 0.0722036 4.86276e-21)
(1.01399 0.459966 -1.90187e-21)
(1.00699 0.41254 2.18238e-21)
(0.945771 0.034479 -1.60229e-21)
(0.934544 -0.247743 0)
(0.970826 -0.154716 0)
(0.985878 0.109393 0)
(0.953846 0.231258 2.28182e-22)
(0.889628 0.166602 -8.42403e-23)
(0.869048 -0.0170016 4.88514e-22)
(0.855865 -0.124501 -2.98406e-22)
(0.848517 -0.22192 -1.53593e-22)
(0.904823 -0.151187 0)
(1.21098 -0.192961 0)
(1.16145 -0.213745 0)
(1.08276 -0.237478 0)
(0.994298 -0.229207 0)
(0.907765 -0.183532 0)
(0.83077 -0.179574 0)
(0.721337 -0.177323 0)
(0.569838 0.0864583 0)
(0.474874 0.489501 0)
(0.640505 0.562271 0)
(1.04373 0.322851 0)
(1.26775 -0.0240796 0)
(1.25 -0.276675 0)
(1.19915 -0.239546 0)
(1.12466 -0.302531 0)
(1.04922 -0.505468 0)
(0.938113 -0.442624 0)
(0.792119 -0.181037 0)
(0.764706 0.164111 0)
(0.7982 0.47108 0)
(0.806426 0.462596 0)
(0.951423 0.150278 0)
(1.12346 -0.146181 0)
(1.07675 -0.358633 0)
(0.931397 -0.364584 0)
(0.936005 0.0413476 0)
(1.01351 0.440031 0)
(1.01099 0.424052 0)
(0.953666 0.0562658 0)
(0.949218 -0.239621 0)
(0.983849 -0.161674 0)
(0.997339 0.10401 0)
(0.968965 0.234205 0)
(0.912249 0.172632 0)
(0.894732 -0.0120277 0)
(0.88184 -0.120681 0)
(0.870785 -0.223024 0)
(0.913673 -0.155181 0)
(1.15538 -0.149287 0)
(1.11832 -0.180927 0)
(1.05023 -0.220615 0)
(0.971838 -0.200164 0)
(0.907267 -0.16621 0)
(0.873725 -0.161585 0)
(0.794226 -0.102559 0)
(0.687912 0.16418 0)
(0.705487 0.434176 0)
(0.956736 0.385912 0)
(1.2342 0.180672 0)
(1.31454 -0.0819949 0)
(1.24399 -0.250179 0)
(1.15534 -0.221793 0)
(1.07407 -0.327473 0)
(1.00661 -0.466716 0)
(0.872643 -0.32797 0)
(0.69134 -0.0988016 0)
(0.67082 0.181343 0)
(0.724086 0.473419 0)
(0.781139 0.429207 0)
(0.977902 0.074305 0)
(1.14279 -0.190169 0)
(1.04653 -0.327519 0)
(0.894649 -0.320049 0)
(0.910123 0.043856 0)
(1.00063 0.435835 0)
(1.00027 0.433284 0)
(0.9645 0.0526917 0)
(0.972888 -0.252629 0)
(1.00611 -0.167706 0)
(1.01318 0.107448 0)
(0.986748 0.243159 0)
(0.942411 0.180142 0)
(0.93029 -0.0105708 0)
(0.915012 -0.120931 0)
(0.899061 -0.2259 0)
(0.92578 -0.159359 0)
(1.12126 -0.106367 0)
(1.10348 -0.12224 0)
(1.05299 -0.140311 0)
(0.995393 -0.128058 0)
(0.944192 -0.100672 0)
(0.915361 -0.0806569 0)
(0.844399 -0.0424688 0)
(0.798083 0.143141 0)
(0.917575 0.313576 0)
(1.10535 0.22144 0)
(1.26153 0.0988265 0)
(1.28723 -0.0506005 0)
(1.19625 -0.202827 0)
(1.1411 -0.159013 0)
(1.0963 -0.233172 0)
(1.00781 -0.395664 0)
(0.813023 -0.26887 0)
(0.58805 -0.0556279 0)
(0.563418 0.169144 0)
(0.666339 0.426412 0)
(0.811541 0.355477 0)
(1.0088 0.0166926 0)
(1.15427 -0.183306 0)
(1.03726 -0.282906 0)
(0.850455 -0.3064 0)
(0.892353 0.0165156 0)
(0.991055 0.413041 0)
(0.997162 0.435515 0)
(0.981871 0.0649486 0)
(0.992384 -0.253625 0)
(1.02529 -0.175036 0)
(1.03181 0.109594 0)
(1.00839 0.251479 0)
(0.97729 0.187396 0)
(0.970658 -0.00562837 0)
(0.950708 -0.116408 0)
(0.928298 -0.224497 0)
(0.938732 -0.161812 0)
(1.09405 -0.0718364 0)
(1.08243 -0.0820155 0)
(1.047 -0.103013 0)
(1.00597 -0.0902359 0)
(0.965956 -0.0761016 0)
(0.947854 -0.0544652 0)
(0.912514 -0.00858904 0)
(0.889433 0.0874603 0)
(1.00482 0.191206 0)
(1.12344 0.138125 0)
(1.20009 0.0535369 0)
(1.217 -0.0424046 0)
(1.15966 -0.142924 0)
(1.10096 -0.143341 0)
(1.03024 -0.249979 0)
(0.948683 -0.324322 0)
(0.763949 -0.122168 0)
(0.557038 0.0378788 0)
(0.540352 0.135358 0)
(0.688539 0.348027 0)
(0.889641 0.276718 0)
(1.05457 -0.0582134 0)
(1.15113 -0.203352 0)
(1.01647 -0.220943 0)
(0.785407 -0.260501 0)
(0.841689 -0.008796 0)
(0.970711 0.387143 0)
(0.987246 0.436009 0)
(1.00206 0.0615178 0)
(1.0175 -0.265115 0)
(1.04485 -0.183695 0)
(1.04941 0.110554 0)
(1.02917 0.257716 0)
(1.01365 0.191882 0)
(1.01403 -0.00320012 0)
(0.988322 -0.113248 0)
(0.958537 -0.222544 0)
(0.952755 -0.16335 0)
(1.07363 -0.047836 0)
(1.06932 -0.052663 0)
(1.04548 -0.066239 0)
(1.01687 -0.0580344 0)
(0.994996 -0.0448229 0)
(0.974523 -0.0281172 0)
(0.96576 0.00728252 0)
(0.955782 0.0536011 0)
(1.02375 0.112829 0)
(1.09862 0.0756868 0)
(1.14261 0.0367074 0)
(1.15762 -0.0302852 0)
(1.11601 -0.131455 0)
(1.09428 -0.0831231 0)
(1.04141 -0.144715 0)
(0.940601 -0.246512 0)
(0.795734 -0.0386685 0)
(0.680459 0.0921775 0)
(0.68326 0.0857555 0)
(0.814945 0.236719 0)
(0.994533 0.189121 0)
(1.08958 -0.0941764 0)
(1.1307 -0.176073 0)
(0.999939 -0.141054 0)
(0.750783 -0.21464 0)
(0.752513 -0.0457683 0)
(0.896294 0.352186 0)
(0.961661 0.423905 0)
(1.03066 0.0584309 0)
(1.04011 -0.270164 0)
(1.05644 -0.187972 0)
(1.06045 0.114537 0)
(1.04913 0.262181 0)
(1.05341 0.193937 0)
(1.05942 0.00128647 0)
(1.02587 -0.105339 0)
(0.987679 -0.215887 0)
(0.966687 -0.162573 0)
(1.06113 -0.0282361 0)
(1.05838 -0.030595 0)
(1.0454 -0.0402415 0)
(1.02482 -0.0356011 0)
(1.01285 -0.0261718 0)
(0.996614 -0.0181096 0)
(0.998412 0.00900727 0)
(0.994403 0.0262198 0)
(1.033 0.0611498 0)
(1.07661 0.0417355 0)
(1.09527 0.00999578 0)
(1.12667 -0.020183 0)
(1.0774 -0.0891369 0)
(1.04421 -0.0760021 0)
(1.03527 -0.127885 0)
(0.939923 -0.187549 0)
(0.842095 0.0267078 0)
(0.83379 0.120968 0)
(0.86169 0.0433337 0)
(0.951523 0.162482 0)
(1.07466 0.147826 0)
(1.09779 -0.116774 0)
(1.0897 -0.168518 0)
(0.988925 -0.0660297 0)
(0.770542 -0.141511 0)
(0.681582 -0.0628952 0)
(0.798546 0.307239 0)
(0.951211 0.387021 0)
(1.07965 0.039069 0)
(1.06874 -0.276064 0)
(1.06039 -0.196459 0)
(1.06693 0.110304 0)
(1.06997 0.260447 0)
(1.09313 0.192807 0)
(1.10274 0.00527302 0)
(1.06171 -0.0967913 0)
(1.01602 -0.207422 0)
(0.980855 -0.160359 0)
(1.05198 -0.0143298 0)
(1.05038 -0.0164437 0)
(1.04448 -0.022039 0)
(1.03026 -0.0215188 0)
(1.02508 -0.013894 0)
(1.01368 -0.0115758 0)
(1.0165 0.00696291 0)
(1.01781 0.0118427 0)
(1.03304 0.0294336 0)
(1.06362 0.0202582 0)
(1.06723 -0.00326146 0)
(1.08578 -0.0162179 0)
(1.06314 -0.06903 0)
(1.03559 -0.0543264 0)
(1.03615 -0.0610012 0)
(0.943188 -0.123713 0)
(0.881555 0.0293821 0)
(0.941813 0.110794 0)
(0.961765 0.0129824 0)
(1.00032 0.0970839 0)
(1.09941 0.114756 0)
(1.09804 -0.0968393 0)
(1.04513 -0.130545 0)
(0.992316 0.00562826 0)
(0.859256 -0.0580268 0)
(0.72036 -0.0574245 0)
(0.788467 0.232722 0)
(1.00562 0.314273 0)
(1.14355 0.0176986 0)
(1.09145 -0.263585 0)
(1.04468 -0.189071 0)
(1.04733 0.111638 0)
(1.07413 0.253688 0)
(1.12438 0.18654 0)
(1.1389 0.0109785 0)
(1.09191 -0.0832816 0)
(1.04103 -0.193933 0)
(0.994297 -0.155365 0)
(1.04529 -0.00499871 0)
(1.04471 -0.00675795 0)
(1.04284 -0.0104991 0)
(1.03391 -0.0115795 0)
(1.0308 -0.00707553 0)
(1.02464 -0.00762381 0)
(1.02512 0.00306259 0)
(1.02911 0.00355332 0)
(1.03304 0.0106036 0)
(1.052 0.00747586 0)
(1.05175 -0.00976338 0)
(1.06029 -0.014229 0)
(1.05171 -0.0429514 0)
(1.01585 -0.0451105 0)
(1.02578 -0.0398541 0)
(0.972252 -0.0784241 0)
(0.917496 0.0179439 0)
(0.988134 0.0811314 0)
(1.00453 0.00319393 0)
(1.0008 0.0629392 0)
(1.08194 0.0897875 0)
(1.08405 -0.0777957 0)
(0.998181 -0.112726 0)
(0.982724 0.0295828 0)
(0.957116 0.00412613 0)
(0.846858 -0.0341855 0)
(0.876036 0.158192 0)
(1.08621 0.237016 0)
(1.19542 0.00732198 0)
(1.10298 -0.23678 0)
(1.01332 -0.179321 0)
(1.01784 0.100839 0)
(1.07832 0.233519 0)
(1.15021 0.174999 0)
(1.16441 0.0165339 0)
(1.11391 -0.0689695 0)
(1.06138 -0.179033 0)
(1.00675 -0.149027 0)
(1.04033 0.000835759 0)
(1.04069 -0.000749702 0)
(1.04017 -0.00376052 0)
(1.03515 -0.00532525 0)
(1.03304 -0.00364054 0)
(1.03015 -0.00488732 0)
(1.0292 0.000239073 0)
(1.03265 -0.000928741 0)
(1.03279 0.00177142 0)
(1.04234 -0.000675886 0)
(1.04242 -0.0099148 0)
(1.0419 -0.0139649 0)
(1.04097 -0.0277943 0)
(1.01683 -0.0316648 0)
(1.01883 -0.0190117 0)
(0.992249 -0.039286 0)
(0.951341 0.00928642 0)
(1.0006 0.056732 0)
(1.01426 0.00749942 0)
(0.997632 0.035968 0)
(1.05885 0.0568307 0)
(1.07192 -0.0448583 0)
(0.983915 -0.0744465 0)
(0.975073 0.0320962 0)
(1.00904 0.0265513 0)
(0.952462 -0.0183967 0)
(0.95855 0.0996509 0)
(1.11613 0.167267 0)
(1.20052 0.00940941 0)
(1.09747 -0.184127 0)
(0.970495 -0.150759 0)
(0.972968 0.0841864 0)
(1.05979 0.200771 0)
(1.14581 0.158086 0)
(1.16487 0.0240483 0)
(1.11967 -0.0505873 0)
(1.07135 -0.160128 0)
(1.0152 -0.139917 0)
(1.03602 0.00404687 0)
(1.03708 0.00284174 0)
(1.03717 -3.80189e-05 0)
(1.03465 -0.00144549 0)
(1.03317 -0.00151656 0)
(1.03153 -0.00326933 0)
(1.0306 -0.000909485 0)
(1.03226 -0.00326397 0)
(1.03173 -0.00161354 0)
(1.03562 -0.00461273 0)
(1.03524 -0.00830963 0)
(1.03337 -0.0117629 0)
(1.03245 -0.0161792 0)
(1.0174 -0.0201888 0)
(1.01413 -0.0110036 0)
(1.00357 -0.0184756 0)
(0.979042 0.0059254 0)
(1.00361 0.0362046 0)
(1.01719 0.00926444 0)
(1.00514 0.0255836 0)
(1.03706 0.0334096 0)
(1.05107 -0.0264536 0)
(0.989278 -0.0476866 0)
(0.97993 0.0170755 0)
(1.02638 0.022352 0)
(1.0063 -0.00931213 0)
(0.994993 0.0640581 0)
(1.09303 0.115585 0)
(1.16373 0.012159 0)
(1.0811 -0.129094 0)
(0.939212 -0.115073 0)
(0.921396 0.0623043 0)
(1.01654 0.157494 0)
(1.11699 0.13375 0)
(1.14909 0.0259282 0)
(1.1142 -0.0373839 0)
(1.07447 -0.144704 0)
(1.02021 -0.13168 0)
(1.03226 0.00567315 0)
(1.03367 0.00468444 0)
(1.03409 0.0021235 0)
(1.03281 0.000696324 0)
(1.03186 -0.0001403 0)
(1.0308 -0.00214619 0)
(1.03002 -0.00106766 0)
(1.03064 -0.00390394 0)
(1.02967 -0.00239469 0)
(1.03107 -0.00570027 0)
(1.03017 -0.00604067 0)
(1.02812 -0.00900834 0)
(1.02666 -0.00934994 0)
(1.01828 -0.011765 0)
(1.01494 -0.00424296 0)
(1.00949 -0.0056384 0)
(0.996753 0.00602239 0)
(1.00808 0.0252875 0)
(1.01538 0.00973053 0)
(1.01076 0.0192516 0)
(1.02681 0.0183942 0)
(1.03584 -0.0136843 0)
(1.00054 -0.0240528 0)
(0.993409 0.00971391 0)
(1.02609 0.0130666 0)
(1.02224 -0.00274976 0)
(1.00965 0.0453344 0)
(1.06603 0.075615 0)
(1.11812 0.011735 0)
(1.06216 -0.0714804 0)
(0.940991 -0.0656685 0)
(0.912218 0.0455403 0)
(1.00106 0.107539 0)
(1.09987 0.101269 0)
(1.13443 0.0247366 0)
(1.10678 -0.0219846 0)
(1.07707 -0.125248 0)
(1.02555 -0.12051 0)
(1.02901 0.00628607 0)
(1.03045 0.00545795 0)
(1.03086 0.00321644 0)
(1.03037 0.00181156 0)
(1.02967 0.000804131 0)
(1.02904 -0.00129794 0)
(1.02836 -0.000690472 0)
(1.02839 -0.00364598 0)
(1.02747 -0.00200538 0)
(1.02762 -0.00525681 0)
(1.02666 -0.0037263 0)
(1.02487 -0.00633211 0)
(1.02373 -0.00430071 0)
(1.01863 -0.00543516 0)
(1.0159 -0.000120053 0)
(1.01322 0.00113619 0)
(1.00635 0.00656226 0)
(1.01191 0.0186915 0)
(1.01515 0.00889774 0)
(1.01401 0.016046 0)
(1.02167 0.0107277 0)
(1.02612 -0.0073262 0)
(1.00686 -0.0132858 0)
(1.00545 0.00232618 0)
(1.02486 0.00466067 0)
(1.02482 -0.00162915 0)
(1.01908 0.0330122 0)
(1.05202 0.0512027 0)
(1.0799 0.0131464 0)
(1.04137 -0.0303227 0)
(0.962922 -0.0305278 0)
(0.948647 0.027834 0)
(1.01886 0.0626756 0)
(1.09234 0.0728791 0)
(1.11616 0.0227933 0)
(1.09288 -0.0126809 0)
(1.07252 -0.112505 0)
(1.02684 -0.111795 0)
(1.02607 0.00632414 0)
(1.02739 0.00561265 0)
(1.02775 0.00369631 0)
(1.02769 0.00238416 0)
(1.02715 0.00143407 0)
(1.02679 -0.000601781 0)
(1.02619 -0.00011885 0)
(1.02604 -0.00294001 0)
(1.02529 -0.00111633 0)
(1.02494 -0.00417258 0)
(1.02418 -0.00163679 0)
(1.02275 -0.00390318 0)
(1.02178 -0.000832189 0)
(1.01883 -0.00135958 0)
(1.0169 0.00278273 0)
(1.01556 0.00516257 0)
(1.01179 0.00726748 0)
(1.0146 0.0158628 0)
(1.0154 0.00825386 0)
(1.01581 0.0138855 0)
(1.01898 0.00669647 0)
(1.02216 -0.00363512 0)
(1.01194 -0.00683661 0)
(1.01299 -0.00208025 0)
(1.02396 -9.34942e-05 0)
(1.02476 -0.000835604 0)
(1.02273 0.0240475 0)
(1.04276 0.0355207 0)
(1.05635 0.0175642 0)
(1.0306 0.000433408 0)
(0.985519 -0.00742604 0)
(0.984956 0.0128401 0)
(1.03252 0.0298603 0)
(1.07888 0.0525943 0)
(1.09387 0.0235352 0)
(1.077 -0.00234584 0)
(1.06657 -0.0976123 0)
(1.02644 -0.100869 0)
(1.02339 0.00600969 0)
(1.02455 0.00543125 0)
(1.02484 0.00379383 0)
(1.02499 0.0026084 0)
(1.02456 0.00181566 0)
(1.02439 -8.914e-05 0)
(1.02396 0.000468334 0)
(1.02375 -0.00216024 0)
(1.02324 -0.00016743 0)
(1.02273 -0.00298711 0)
(1.02222 3.42356e-05 0)
(1.02116 -0.00196037 0)
(1.02047 0.00151995 0)
(1.01881 0.00142836 0)
(1.01742 0.00472239 0)
(1.01687 0.00740443 0)
(1.01464 0.00786291 0)
(1.01618 0.0143879 0)
(1.01595 0.00774606 0)
(1.01707 0.0125037 0)
(1.01774 0.00466203 0)
(1.02049 -0.00198895 0)
(1.01493 -0.00468007 0)
(1.01698 -0.00612366 0)
(1.02309 -0.0039717 0)
(1.02431 -0.00173149 0)
(1.02431 0.01733 0)
(1.03584 0.0267091 0)
(1.0408 0.0217171 0)
(1.02518 0.0176167 0)
(1.00187 0.00183091 0)
(1.00757 -0.00135166 0)
(1.03598 0.00802485 0)
(1.06173 0.0396533 0)
(1.07217 0.0232554 0)
(1.06211 0.00179839 0)
(1.06002 -0.0882825 0)
(1.02507 -0.0924674 0)
(1.02102 0.00550068 0)
(1.022 0.00505419 0)
(1.02219 0.00364186 0)
(1.02246 0.00259496 0)
(1.02213 0.00200635 0)
(1.02211 0.000222758 0)
(1.02177 0.000971321 0)
(1.02163 -0.00155177 0)
(1.02127 0.000702908 0)
(1.02085 -0.00202631 0)
(1.02053 0.00136249 0)
(1.01985 -0.000515867 0)
(1.01936 0.00314264 0)
(1.0185 0.00324589 0)
(1.01752 0.00598398 0)
(1.01749 0.00877213 0)
(1.01603 0.00827539 0)
(1.01722 0.0138115 0)
(1.01647 0.00743793 0)
(1.01794 0.0115889 0)
(1.0174 0.00344328 0)
(1.02003 -0.0015932 0)
(1.01679 -0.00405487 0)