/*--------------------------------*- C++ -*----------------------------------*\
| =========                 |                                                 |
| \\      /  F ield         | OpenFOAM: The Open Source CFD Toolbox           |
|  \\    /   O peration     | Version:  2312                                  |
|   \\  /    A nd           | Website:  www.openfoam.com                      |
|    \\/     M anipulation  |                                                 |
\*---------------------------------------------------------------------------*/
FoamFile
{
    version     2.0;
    format      ascii;
    arch        "LSB;label=32;scalar=64";
    class       volScalarField;
    location    "17.5";
    object      p;
}
// * * * * * * * * * * * * * * * * * * * * * * * * * * * * * * * * * * * * * //

dimensions      [0 2 -2 0 0 0 0];

internalField   nonuniform List<scalar> 
32230
(
-0.293532
-0.293619
-0.293037
-0.291922
-0.290386
-0.288526
-0.286448
-0.284291
-0.282209
-0.280343
-0.278855
-0.277873
-0.277499
-0.2778
-0.278804
-0.280497
-0.282823
-0.285685
-0.288958
-0.292491
-0.296123
-0.299692
-0.303052
-0.306074
-0.30866
-0.310743
-0.312286
-0.313273
-0.313711
-0.313612
-0.312999
-0.311868
-0.310274
-0.308061
-0.305408
-0.301407
-0.296564
-0.295692
-0.295728
-0.295095
-0.293936
-0.292377
-0.290504
-0.288421
-0.286252
-0.284133
-0.282201
-0.280591
-0.279419
-0.278774
-0.27871
-0.279242
-0.280343
-0.281946
-0.28395
-0.286228
-0.288639
-0.291043
-0.29331
-0.29533
-0.297019
-0.29832
-0.299198
-0.299636
-0.299631
-0.299182
-0.298287
-0.296945
-0.295134
-0.292832
-0.289955
-0.28648
-0.282147
-0.277699
-0.298738
-0.298602
-0.297842
-0.296592
-0.294971
-0.293062
-0.29096
-0.288771
-0.286614
-0.284607
-0.282865
-0.281486
-0.28054
-0.280067
-0.280065
-0.280498
-0.281293
-0.282352
-0.283561
-0.284806
-0.28598
-0.286993
-0.287776
-0.288282
-0.288478
-0.288345
-0.287873
-0.287053
-0.285875
-0.284328
-0.282399
-0.280054
-0.277288
-0.274009
-0.270287
-0.265968
-0.26168
-0.302628
-0.302215
-0.301252
-0.29985
-0.298112
-0.29612
-0.293957
-0.291715
-0.289488
-0.287375
-0.285466
-0.283836
-0.282534
-0.281582
-0.280966
-0.280644
-0.280548
-0.280598
-0.280709
-0.280801
-0.280806
-0.280671
-0.280358
-0.27984
-0.279097
-0.278113
-0.276875
-0.275369
-0.273582
-0.271497
-0.269099
-0.266364
-0.263282
-0.259806
-0.256019
-0.251801
-0.247864
-0.307304
-0.306533
-0.305298
-0.303676
-0.301756
-0.299622
-0.297346
-0.295001
-0.29266
-0.290393
-0.288262
-0.286315
-0.284579
-0.28306
-0.28174
-0.280584
-0.279545
-0.278569
-0.277608
-0.276618
-0.275563
-0.274417
-0.273158
-0.271766
-0.270225
-0.268519
-0.266632
-0.264546
-0.262247
-0.259718
-0.256945
-0.253911
-0.250612
-0.247022
-0.24321
-0.239108
-0.235282
-0.31273
-0.311542
-0.309974
-0.308071
-0.30591
-0.303576
-0.301133
-0.298632
-0.296117
-0.293626
-0.291187
-0.288822
-0.286542
-0.284348
-0.282231
-0.280178
-0.278171
-0.276191
-0.274221
-0.272247
-0.270253
-0.268224
-0.266146
-0.264002
-0.261775
-0.259446
-0.256997
-0.254412
-0.251675
-0.248771
-0.245687
-0.242413
-0.238946
-0.235271
-0.231448
-0.227411
-0.223654
-0.318909
-0.317257
-0.315307
-0.313075
-0.310626
-0.308043
-0.305379
-0.302657
-0.299884
-0.297062
-0.294189
-0.29127
-0.288312
-0.285328
-0.282336
-0.27935
-0.276387
-0.273456
-0.270563
-0.26771
-0.264889
-0.262092
-0.259304
-0.256506
-0.253681
-0.25081
-0.247874
-0.244856
-0.241743
-0.238519
-0.235175
-0.231702
-0.228097
-0.224352
-0.220508
-0.216515
-0.212781
-0.325874
-0.323718
-0.321352
-0.31876
-0.315986
-0.31311
-0.310162
-0.307128
-0.303975
-0.300673
-0.297202
-0.293567
-0.289792
-0.28592
-0.281999
-0.278077
-0.274194
-0.27038
-0.266652
-0.263015
-0.259465
-0.25599
-0.252576
-0.249202
-0.245851
-0.242502
-0.239138
-0.235742
-0.2323
-0.228801
-0.225232
-0.221588
-0.217863
-0.214054
-0.210186
-0.20622
-0.20249
-0.333675
-0.330976
-0.328171
-0.325198
-0.322069
-0.318848
-0.31553
-0.312057
-0.308362
-0.304393
-0.300137
-0.295622
-0.290908
-0.286074
-0.281202
-0.276363
-0.271612
-0.266985
-0.2625
-0.25816
-0.253958
-0.24988
-0.245909
-0.242023
-0.238205
-0.234434
-0.230693
-0.226965
-0.223238
-0.219498
-0.215736
-0.211944
-0.208116
-0.20425
-0.200358
-0.196413
-0.192679
-0.342349
-0.339073
-0.335812
-0.332444
-0.328926
-0.325288
-0.321479
-0.3174
-0.312959
-0.308115
-0.302885
-0.297343
-0.291596
-0.28576
-0.279941
-0.27422
-0.268656
-0.26328
-0.258104
-0.253127
-0.248336
-0.243714
-0.239241
-0.234897
-0.230662
-0.226516
-0.222442
-0.218423
-0.214445
-0.210497
-0.206567
-0.202647
-0.19873
-0.194813
-0.1909
-0.186975
-0.183234
-0.351904
-0.34802
-0.344295
-0.340515
-0.336558
-0.332399
-0.327938
-0.323044
-0.317632
-0.3117
-0.305327
-0.298645
-0.291808
-0.284958
-0.278213
-0.271653
-0.265326
-0.259256
-0.253444
-0.247883
-0.242554
-0.237438
-0.232513
-0.227758
-0.22315
-0.218671
-0.214303
-0.210029
-0.205834
-0.201705
-0.197632
-0.193603
-0.189613
-0.185655
-0.181727
-0.177825
-0.174079
-0.3623
-0.357791
-0.353596
-0.349378
-0.344904
-0.340081
-0.334764
-0.328819
-0.322204
-0.314993
-0.307342
-0.299446
-0.291494
-0.283643
-0.276005
-0.268647
-0.261605
-0.254886
-0.248485
-0.242385
-0.236563
-0.230997
-0.225663
-0.220537
-0.215598
-0.210825
-0.206199
-0.201702
-0.19732
-0.193037
-0.188843
-0.184725
-0.180676
-0.176687
-0.172754
-0.168878
-0.165132
-0.373442
-0.368304
-0.363635
-0.358936
-0.353834
-0.348161
-0.34175
-0.334505
-0.326471
-0.317824
-0.308806
-0.299662
-0.290601
-0.281776
-0.273282
-0.265169
-0.257452
-0.250128
-0.243178
-0.23658
-0.230306
-0.224331
-0.218627
-0.213171
-0.207938
-0.202907
-0.198057
-0.19337
-0.188828
-0.184418
-0.180125
-0.175938
-0.171846
-0.167841
-0.163914
-0.16007
-0.156332
-0.385172
-0.379421
-0.374269
-0.369023
-0.363141
-0.356394
-0.348632
-0.33985
-0.330218
-0.320027
-0.309596
-0.299205
-0.289062
-0.2793
-0.269993
-0.261165
-0.252815
-0.244924
-0.237465
-0.230408
-0.223723
-0.217377
-0.211344
-0.205595
-0.200105
-0.194851
-0.189811
-0.184964
-0.180292
-0.17578
-0.171412
-0.167175
-0.163058
-0.15905
-0.155144
-0.151341
-0.147623
-0.397267
-0.390935
-0.385288
-0.379399
-0.372551
-0.36448
-0.355114
-0.344589
-0.33323
-0.321439
-0.309595
-0.297986
-0.286805
-0.276155
-0.266079
-0.25658
-0.247638
-0.239222
-0.231295
-0.22382
-0.216762
-0.210088
-0.203764
-0.197761
-0.192051
-0.186609
-0.181412
-0.176436
-0.171663
-0.167074
-0.162655
-0.158389
-0.154265
-0.150271
-0.146401
-0.142648
-0.138966
-0.409439
-0.402576
-0.39641
-0.389751
-0.381721
-0.372075
-0.360881
-0.348465
-0.335313
-0.321923
-0.308704
-0.295934
-0.283772
-0.272288
-0.261495
-0.251372
-0.241883
-0.232984
-0.224632
-0.216782
-0.209394
-0.202431
-0.195856
-0.189638
-0.183746
-0.178151
-0.172829
-0.167755
-0.162909
-0.158271
-0.153824
-0.149551
-0.145438
-0.141474
-0.137652
-0.133956
-0.130327
-0.42134
-0.414003
-0.407275
-0.399693
-0.390252
-0.378799
-0.365611
-0.351227
-0.336283
-0.321345
-0.306823
-0.292965
-0.279892
-0.267635
-0.25618
-0.245484
-0.235496
-0.226161
-0.217428
-0.209248
-0.201574
-0.194364
-0.187579
-0.181184
-0.175145
-0.169433
-0.164019
-0.158879
-0.153988
-0.149327
-0.144875
-0.140617
-0.136536
-0.132619
-0.128857
-0.125223
-0.121663
-0.432572
-0.424819
-0.417464
-0.408782
-0.397708
-0.384257
-0.368967
-0.352596
-0.335906
-0.319495
-0.303755
-0.288892
-0.274979
-0.262016
-0.249959
-0.238746
-0.228313
-0.218595
-0.209533
-0.201071
-0.193158
-0.185747
-0.178796
-0.172266
-0.166121
-0.160328
-0.154857
-0.149682
-0.144777
-0.14012
-0.135692
-0.131473
-0.127446
-0.123599
-0.119915
-0.116359
-0.112894
-0.442726
-0.434625
-0.42658
-0.416624
-0.403704
-0.388084
-0.370602
-0.352235
-0.333843
-0.316034
-0.299158
-0.28337
-0.268699
-0.255103
-0.242515
-0.230854
-0.220043
-0.210006
-0.200677
-0.191993
-0.183898
-0.176342
-0.169277
-0.162661
-0.156456
-0.150627
-0.145142
-0.139971
-0.135089
-0.130471
-0.126097
-0.121947
-0.118003
-0.114252
-0.110678
-0.107239
-0.103927
-0.249157
-0.252318
-0.254481
-0.256524
-0.259035
-0.262194
-0.266073
-0.270701
-0.276076
-0.282181
-0.288997
-0.296499
-0.304659
-0.313447
-0.322825
-0.33275
-0.343173
-0.354039
-0.365284
-0.376839
-0.388629
-0.400571
-0.41258
-0.424563
-0.436426
-0.448071
-0.4594
-0.470315
-0.480716
-0.490511
-0.499608
-0.507921
-0.515367
-0.521874
-0.527396
-0.531921
-0.535397
-0.254386
-0.257038
-0.258934
-0.26082
-0.263215
-0.26629
-0.270117
-0.274724
-0.280109
-0.286256
-0.293145
-0.300752
-0.309051
-0.31801
-0.32759
-0.337748
-0.348434
-0.359589
-0.371148
-0.383039
-0.395182
-0.407491
-0.419876
-0.43224
-0.444485
-0.456508
-0.468205
-0.479474
-0.490212
-0.50032
-0.509705
-0.518279
-0.525962
-0.532675
-0.538351
-0.542994
-0.546686
-0.260431
-0.262466
-0.264032
-0.265718
-0.267958
-0.270911
-0.274649
-0.279196
-0.284549
-0.290693
-0.297608
-0.30527
-0.313651
-0.322719
-0.332436
-0.342757
-0.353629
-0.364993
-0.37678
-0.388915
-0.401316
-0.413893
-0.426551
-0.439192
-0.451711
-0.464003
-0.475961
-0.487476
-0.498445
-0.508763
-0.518333
-0.527067
-0.534886
-0.541707
-0.547429
-0.552037
-0.555854
-0.266836
-0.268183
-0.26937
-0.270819
-0.272866
-0.275657
-0.27926
-0.283698
-0.288965
-0.295046
-0.301918
-0.309557
-0.317938
-0.327025
-0.336782
-0.347161
-0.35811
-0.369566
-0.381459
-0.393713
-0.406242
-0.418955
-0.431755
-0.444539
-0.457201
-0.469632
-0.481724
-0.493366
-0.50445
-0.51487
-0.524527
-0.533325
-0.541187
-0.548035
-0.553758
-0.558245
-0.561902
-0.273158
-0.273792
-0.274571
-0.275747
-0.277564
-0.28015
-0.28357
-0.287842
-0.29296
-0.298904
-0.305652
-0.313181
-0.321462
-0.330462
-0.340142
-0.350457
-0.361351
-0.372763
-0.384622
-0.396849
-0.409359
-0.422059
-0.434851
-0.44763
-0.46029
-0.472721
-0.484813
-0.496454
-0.507535
-0.51795
-0.527596
-0.536375
-0.544202
-0.551002
-0.556691
-0.561118
-0.564358
-0.27901
-0.278949
-0.279313
-0.280182
-0.281734
-0.284068
-0.287248
-0.29129
-0.296183
-0.301909
-0.308443
-0.315759
-0.32383
-0.332623
-0.3421
-0.352215
-0.362914
-0.374135
-0.385809
-0.397857
-0.410193
-0.422725
-0.435354
-0.447977
-0.460487
-0.472775
-0.484729
-0.496239
-0.507195
-0.517491
-0.527024
-0.535697
-0.543418
-0.55011
-0.555689
-0.560098
-0.562973
-0.284092
-0.283398
-0.283347
-0.283907
-0.285149
-0.287178
-0.290053
-0.293788
-0.298373
-0.303787
-0.310005
-0.317
-0.324744
-0.333206
-0.342347
-0.352124
-0.362484
-0.373368
-0.384707
-0.396424
-0.408435
-0.420648
-0.432966
-0.445287
-0.457505
-0.469511
-0.481195
-0.492447
-0.50316
-0.513227
-0.522541
-0.531017
-0.538554
-0.545092
-0.55048
-0.554927
-0.557453
-0.288214
-0.286989
-0.286556
-0.286788
-0.287688
-0.289356
-0.291854
-0.295197
-0.299379
-0.304378
-0.31017
-0.316729
-0.324027
-0.332032
-0.340709
-0.350016
-0.359902
-0.370312
-0.381177
-0.392425
-0.403973
-0.415733
-0.427607
-0.439498
-0.451299
-0.462904
-0.474206
-0.485097
-0.495472
-0.505238
-0.514238
-0.522444
-0.529731
-0.536094
-0.541228
-0.545679
-0.547878
-0.2913
-0.289671
-0.288907
-0.288812
-0.289343
-0.290599
-0.292644
-0.295503
-0.299177
-0.30365
-0.308901
-0.314906
-0.321638
-0.329067
-0.33716
-0.345876
-0.35517
-0.364986
-0.375263
-0.385928
-0.396903
-0.408102
-0.419432
-0.430795
-0.44209
-0.453213
-0.464058
-0.474521
-0.484472
-0.493837
-0.502554
-0.510494
-0.5175
-0.523691
-0.528548
-0.532956
-0.534813
-0.293371
-0.291483
-0.290458
-0.290055
-0.290206
-0.291006
-0.292529
-0.294813
-0.297872
-0.301705
-0.306297
-0.311631
-0.317682
-0.324424
-0.331826
-0.339852
-0.348457
-0.35759
-0.367193
-0.377198
-0.387529
-0.398103
-0.408832
-0.419621
-0.430372
-0.440981
-0.451334
-0.461346
-0.470933
-0.479975
-0.488352
-0.496033
-0.502766
-0.508805
-0.513354
-0.517671
-0.519043
-0.294526
-0.29253
-0.291325
-0.290654
-0.290433
-0.290754
-0.291703
-0.293335
-0.295686
-0.298772
-0.302595
-0.307147
-0.312414
-0.318373
-0.324998
-0.332255
-0.340106
-0.348502
-0.357388
-0.366699
-0.376364
-0.386303
-0.396432
-0.406653
-0.416867
-0.426991
-0.436932
-0.44657
-0.4558
-0.464535
-0.472625
-0.480076
-0.486536
-0.492396
-0.496551
-0.500638
-0.501246
-0.294917
-0.292956
-0.291661
-0.290776
-0.290213
-0.29006
-0.290413
-0.291347
-0.292923
-0.295181
-0.298148
-0.301832
-0.306232
-0.311336
-0.317125
-0.32357
-0.330638
-0.338283
-0.346454
-0.355089
-0.364119
-0.373462
-0.383032
-0.392756
-0.402538
-0.412266
-0.421835
-0.43114
-0.440063
-0.44851
-0.456307
-0.46346
-0.469553
-0.475044
-0.478651
-0.482204
-0.481861
-0.294722
-0.292922
-0.291623
-0.290588
-0.289732
-0.289139
-0.288911
-0.289143
-0.289923
-0.29132
-0.293388
-0.296158
-0.29965
-0.303867
-0.3088
-0.31443
-0.320727
-0.327652
-0.335154
-0.343169
-0.351629
-0.360469
-0.3696
-0.378918
-0.388321
-0.397699
-0.406935
-0.415907
-0.424476
-0.432525
-0.439867
-0.446474
-0.451956
-0.456696
-0.459545
-0.462101
-0.460737
-0.294127
-0.292592
-0.291363
-0.29024
-0.289152
-0.288175
-0.287418
-0.286992
-0.28701
-0.28757
-0.288756
-0.290628
-0.293228
-0.296579
-0.300688
-0.305545
-0.311128
-0.317398
-0.324305
-0.331797
-0.339798
-0.348217
-0.356956
-0.365905
-0.374943
-0.383938
-0.392751
-0.401234
-0.40923
-0.416599
-0.423164
-0.428852
-0.433386
-0.436972
-0.438862
-0.440045
-0.437675
-0.293328
-0.292126
-0.291021
-0.289863
-0.288602
-0.287313
-0.286105
-0.285105
-0.284446
-0.284255
-0.28464
-0.285693
-0.28748
-0.290046
-0.293413
-0.297583
-0.302537
-0.308246
-0.314657
-0.321696
-0.329275
-0.33729
-0.345621
-0.354133
-0.362678
-0.371099
-0.379233
-0.386917
-0.393992
-0.400315
-0.405745
-0.410202
-0.413531
-0.415811
-0.416662
-0.416477
-0.413273
-0.292526
-0.291688
-0.290734
-0.289575
-0.288195
-0.286667
-0.285103
-0.28364
-0.282428
-0.281614
-0.281333
-0.281699
-0.282802
-0.284706
-0.287448
-0.291038
-0.295465
-0.300685
-0.306635
-0.313227
-0.320349
-0.327873
-0.335651
-0.34352
-0.35131
-0.358846
-0.365961
-0.372493
-0.378303
-0.383281
-0.387339
-0.390453
-0.392555
-0.393736
-0.393756
-0.39271
-0.389115
-0.291935
-0.291449
-0.290645
-0.289503
-0.288045
-0.286348
-0.284526
-0.282723
-0.2811
-0.279819
-0.27903
-0.278868
-0.279438
-0.280818
-0.283053
-0.286155
-0.290104
-0.294847
-0.300304
-0.306363
-0.31289
-0.319731
-0.326714
-0.333661
-0.340392
-0.346735
-0.352532
-0.35765
-0.361994
-0.365499
-0.368156
-0.369998
-0.371067
-0.371515
-0.371163
-0.370078
-0.366698
-0.291778
-0.291588
-0.290908
-0.289784
-0.28828
-0.286476
-0.284489
-0.282466
-0.280572
-0.278975
-0.277835
-0.277293
-0.277463
-0.278426
-0.280227
-0.282874
-0.286336
-0.290546
-0.295404
-0.300779
-0.306518
-0.312448
-0.31839
-0.324163
-0.329598
-0.334542
-0.338874
-0.342502
-0.345382
-0.347494
-0.348886
-0.349602
-0.349784
-0.349567
-0.349017
-0.348359
-0.345948
-0.29226
-0.292271
-0.291669
-0.290555
-0.289026
-0.287168
-0.285098
-0.282958
-0.280907
-0.279128
-0.277763
-0.276955
-0.276818
-0.277429
-0.278829
-0.281014
-0.283942
-0.287532
-0.291666
-0.2962
-0.30097
-0.305799
-0.310514
-0.314952
-0.318972
-0.322461
-0.325341
-0.327566
-0.32913
-0.330039
-0.330349
-0.330072
-0.329348
-0.328136
-0.326751
-0.325346
-0.323893
-0.538123
-0.53859
-0.536571
-0.531904
-0.524689
-0.514755
-0.502131
-0.486844
-0.468872
-0.448157
-0.424625
-0.398189
-0.368773
-0.336354
-0.300986
-0.262854
-0.222311
-0.179972
-0.136738
-0.0936714
-0.0521626
-0.0135445
0.0209934
0.0505185
0.0744781
0.092743
0.105606
0.113641
0.117573
0.118208
0.11633
0.112651
0.107766
0.10214
0.0961322
0.0900099
0.0839625
0.0781151
0.0725456
0.0672965
0.0623865
0.0578188
0.0535863
0.0496747
0.0460655
0.0427388
0.039674
0.0368509
0.0342499
0.0318525
0.0296414
0.0276011
0.025717
0.023976
0.0223653
0.020875
0.0194947
0.0182165
0.0170309
0.015931
0.014908
0.0139564
0.0130687
0.0122406
0.0114662
0.0107424
0.0100655
0.00943324
0.00884263
0.00829106
0.0077755
0.0072932
0.0068414
0.00641624
0.00600722
0.00562666
0.00526596
0.00491975
0.00458944
0.00426962
0.00396269
0.0036611
0.0033692
0.00307642
0.00279084
0.00249712
0.00220806
0.00190297
0.00159975
0.001271
0.000941414
0.000575487
0.000206889
-0.549904
-0.550237
-0.548181
-0.543466
-0.536147
-0.526152
-0.513484
-0.498198
-0.480267
-0.459633
-0.436207
-0.409889
-0.380581
-0.34823
-0.312847
-0.274597
-0.23376
-0.190961
-0.147267
-0.103692
-0.0616444
-0.0225096
0.012483
0.0424006
0.0667184
0.0853528
0.0986212
0.107117
0.111581
0.1128
0.111529
0.108446
0.10413
0.0990368
0.0935139
0.0878217
0.0821474
0.0766188
0.0713186
0.0662959
0.0615754
0.0571658
0.0530647
0.0492622
0.0457438
0.0424927
0.0394909
0.0367203
0.034163
0.0318021
0.0296214
0.0276065
0.0257433
0.0240195
0.0224229
0.0209439
0.0195724
0.0183011
0.0171207
0.0160245
0.0150042
0.0140542
0.0131674
0.0123392
0.0115643
0.0108391
0.0101604
0.00952559
0.00893217
0.00837756
0.00785876
0.0073731
0.00691809
0.00649
0.00607782
0.00569326
0.00532878
0.00497919
0.00464496
0.00432167
0.00401071
0.00370574
0.00340966
0.00311367
0.00282368
0.00252691
0.00223322
0.00192521
0.00161705
0.00128557
0.000950668
0.000582121
0.000207774
-0.559872
-0.560165
-0.558186
-0.553473
-0.54615
-0.536217
-0.523574
-0.50843
-0.490664
-0.47024
-0.447066
-0.421027
-0.391927
-0.359711
-0.32455
-0.286404
-0.245613
-0.202799
-0.158938
-0.115175
-0.072907
-0.0335489
0.00166059
0.0318108
0.0564177
0.0754397
0.0892155
0.0983416
0.103546
0.105582
0.105156
0.102898
0.0993611
0.0949855
0.0901082
0.0849834
0.0797983
0.0746858
0.0697356
0.0650051
0.0605275
0.0563189
0.0523837
0.0487183
0.0453131
0.0421556
0.0392312
0.0365248
0.0340207
0.0317041
0.0295602
0.0275759
0.0257382
0.0240355
0.0224563
0.0209914
0.0196313
0.018369
0.0171957
0.016105
0.015089
0.0141419
0.0132574
0.0124304
0.011656
0.0109305
0.0102507
0.00961421
0.00901858
0.0084614
0.00793971
0.00745101
0.00699295
0.00656198
0.00614672
0.00575869
0.00539064
0.00503774
0.00469964
0.00437299
0.00405807
0.00374981
0.00344961
0.00315049
0.00285615
0.00255638
0.00225812
0.00194725
0.0016342
0.00130004
0.000959863
0.000588733
0.00020863
-0.567001
-0.567313
-0.565445
-0.560949
-0.553845
-0.544286
-0.531392
-0.5167
-0.499267
-0.479181
-0.456364
-0.430694
-0.402019
-0.37025
-0.335423
-0.297606
-0.257111
-0.214552
-0.170885
-0.127302
-0.085193
-0.0459622
-0.0108252
0.0193537
0.044144
0.0635431
0.077898
0.0877858
0.0938944
0.0969315
0.097545
0.0962987
0.0937036
0.0901872
0.0860779
0.0816254
0.0770187
0.0723972
0.0678596
0.0634733
0.0592812
0.0553087
0.0515681
0.048063
0.0447899
0.0417412
0.0389066
0.0362744
0.0338319
0.0315662
0.0294647
0.0275156
0.0257071
0.0240287
0.0224696
0.0210212
0.0196747
0.0184232
0.0172588
0.0161749
0.0151643
0.0142214
0.0133401
0.0125154
0.0117425
0.0110175
0.0103374
0.00969987
0.00910253
0.0085432
0.00801896
0.00752746
0.00706633
0.00663254
0.00621449
0.00582339
0.00545192
0.00509574
0.00475383
0.00442387
0.00410506
0.00379356
0.0034893
0.0031871
0.00288845
0.00258573
0.00228294
0.00196923
0.00165135
0.00131452
0.000969097
0.000595374
0.000209499
-0.570094
-0.570942
-0.569242
-0.565154
-0.55848
-0.549191
-0.537216
-0.522804
-0.505812
-0.48619
-0.46385
-0.43867
-0.410509
-0.379263
-0.344939
-0.307637
-0.267675
-0.225668
-0.182549
-0.13952
-0.097946
-0.0591899
-0.0244067
0.00560846
0.0304854
0.0502509
0.0652408
0.0759889
0.0831205
0.0872796
0.0890599
0.0889589
0.0874204
0.0848563
0.0815942
0.0778829
0.0739141
0.0698345
0.0657532
0.0617482
0.057873
0.0541628
0.050639
0.0473125
0.0441866
0.0412594
0.038525
0.0359756
0.0336016
0.0313927
0.0293384
0.0274284
0.0256526
0.0240012
0.0224648
0.0210351
0.019704
0.0184649
0.0173107
0.0162349
0.0152309
0.0142931
0.013416
0.0125944
0.0118237
0.0111
0.0104204
0.00978242
0.00918389
0.00862282
0.00809637
0.00760225
0.00713817
0.00670157
0.00628095
0.00588727
0.00551258
0.00515317
0.00480752
0.0044743
0.00415168
0.00383699
0.00352874
0.00322349
0.00292061
0.00261496
0.00230771
0.00199117
0.00166851
0.001329
0.000978387
0.000602043
0.000210391
-0.56864
-0.570361
-0.5692
-0.565762
-0.559788
-0.551168
-0.539923
-0.526142
-0.509782
-0.490775
-0.469035
-0.444449
-0.416894
-0.386278
-0.352597
-0.315986
-0.276787
-0.235616
-0.193393
-0.15129
-0.110618
-0.0726616
-0.0384879
-0.00880766
0.016068
0.0361807
0.0518335
0.063495
0.0717115
0.077048
0.0800435
0.0811545
0.080743
0.0791849
0.0768115
0.0738778
0.0705803
0.067073
0.0634749
0.0598752
0.0563382
0.052909
0.0496179
0.0464838
0.0435169
0.0407209
0.038095
0.0356354
0.0333357
0.0311886
0.0291855
0.0273181
0.0255777
0.0239559
0.0224442
0.0210349
0.0197208
0.0184955
0.0173527
0.016286
0.0152896
0.0143577
0.0134855
0.0126677
0.0119
0.0111783
0.0104996
0.00986179
0.00926256
0.00870016
0.00817182
0.00767533
0.00720849
0.00676894
0.00634598
0.00595025
0.00557256
0.00520996
0.00486064
0.00452423
0.00419789
0.00388007
0.00356792
0.00325966
0.00295262
0.00264405
0.00233242
0.00201304
0.00168569
0.00134347
0.000987738
0.000608728
0.000211315
-0.562853
-0.56511
-0.564928
-0.562526
-0.557497
-0.549754
-0.539388
-0.526446
-0.510879
-0.492614
-0.471573
-0.44766
-0.420776
-0.39086
-0.357939
-0.322193
-0.284002
-0.24399
-0.203035
-0.162234
-0.122804
-0.0859245
-0.0525661
-0.0233556
0.00144509
0.0218752
0.0381865
0.0507662
0.0600731
0.0665872
0.0707848
0.0730935
0.0738354
0.0733108
0.0718425
0.0696993
0.0670869
0.0641667
0.0610671
0.0578875
0.0547026
0.0515672
0.0485205
0.0455893
0.0427906
0.0401339
0.0376234
0.0352594
0.0330391
0.0309578
0.0290095
0.0271877
0.0254853
0.0238951
0.0224098
0.0210224
0.0197266
0.0185164
0.017386
0.0163293
0.0153412
0.014416
0.0135493
0.0127358
0.0119716
0.0112523
0.0105752
0.00993806
0.00933857
0.00877521
0.00824531
0.00774674
0.00727716
0.00683471
0.00640968
0.00601237
0.00563187
0.00526609
0.0049132
0.00457366
0.0042437
0.00392279
0.00360682
0.00329557
0.00298448
0.00267299
0.00235707
0.00203485
0.00170289
0.00135792
0.000997161
0.000615424
0.000212283
-0.552601
-0.555324
-0.556427
-0.555395
-0.551526
-0.544813
-0.535461
-0.523511
-0.508873
-0.49146
-0.471209
-0.448049
-0.421905
-0.39275
-0.360665
-0.325903
-0.288933
-0.250412
-0.211136
-0.172044
-0.134188
-0.0986232
-0.0662369
-0.0375978
-0.0129395
0.00775894
0.0246862
0.0381415
0.0484936
0.056141
0.0614892
0.0649306
0.0667925
0.0673084
0.0667524
0.0654008
0.0634754
0.0611477
0.0585543
0.0558039
0.0529808
0.0501488
0.0473558
0.044636
0.0420132
0.0395028
0.0371138
0.0348507
0.0327142
0.0307027
0.0288125
0.027039
0.0253769
0.0238202
0.022363
0.020999
0.0197227
0.0185286
0.0174115
0.0163656
0.0153865
0.0144685
0.0136078
0.0127992
0.0120388
0.0113225
0.0106474
0.0100113
0.00941196
0.00884799
0.00831684
0.00781646
0.00734426
0.00689898
0.00647219
0.00607366
0.00569049
0.00532154
0.00496516
0.00462255
0.00428909
0.00396514
0.00364546
0.00333124
0.00301619
0.00270177
0.00238168
0.00205657
0.00172013
0.00137235
0.00100667
0.000622126
0.000213311
-0.538704
-0.541626
-0.544067
-0.544599
-0.54202
-0.536405
-0.528133
-0.517254
-0.503617
-0.487118
-0.467721
-0.445388
-0.42008
-0.391818
-0.36074
-0.327151
-0.291569
-0.254727
-0.217464
-0.180484
-0.144542
-0.110512
-0.079223
-0.0512342
-0.0267858
-0.00588907
0.011578
0.0258288
0.0371447
0.0458484
0.0522787
0.0567807
0.0596743
0.061204
0.0615633
0.0610047
0.0597648
0.0580301
0.0559469
0.0536321
0.0511784
0.048658
0.0461267
0.0436262
0.0411866
0.0388289
0.0365673
0.0344101
0.0323619
0.0304239
0.028595
0.0268727
0.0252532
0.0237321
0.0223046
0.0209653
0.0197097
0.0185326
0.0174297
0.0163955
0.015426
0.0145158
0.0136615
0.0128581
0.012102
0.0113891
0.0107163
0.0100816
0.00948278
0.00891852
0.00838644
0.00788445
0.00740983
0.00696191
0.00653365
0.00613419
0.0057484
0.00537627
0.00501652
0.00467089
0.00433406
0.0040071
0.00368384
0.00336664
0.00304777
0.00273039
0.00240626
0.00207821
0.00173742
0.00138675
0.00101629
0.000628826
0.000214419
-0.522059
-0.524803
-0.528442
-0.530527
-0.529207
-0.524636
-0.517422
-0.507622
-0.495001
-0.479445
-0.460961
-0.439551
-0.415217
-0.388036
-0.358207
-0.32608
-0.29219
-0.257248
-0.222101
-0.187461
-0.153715
-0.121429
-0.0913546
-0.0640897
-0.0399242
-0.0189172
-0.00101016
0.0139314
0.0261088
0.0357736
0.0432059
0.0486983
0.052546
0.0550097
0.056271
0.0565105
0.0559581
0.054817
0.0532467
0.0513729
0.0492955
0.0470944
0.0448327
0.042559
0.0403098
0.0381115
0.0359831
0.0339372
0.0319818
0.0301213
0.0283571
0.0266886
0.0251142
0.0236307
0.0222346
0.0209215
0.0196879
0.0185289
0.0174411
0.0164191
0.0154599
0.014558
0.0137108
0.012913
0.0121615
0.0114521
0.010782
0.0101491
0.00955106
0.00898682
0.00845408
0.00795077
0.00747402
0.00702345
0.00659424
0.00619398
0.0058056
0.00543025
0.00506726
0.00471867
0.0043786
0.00404866
0.00372195
0.00340178
0.00307922
0.00275884
0.00243082
0.00209975
0.00175478
0.00140112
0.00102603
0.000635515
0.000215628
-0.5031
-0.505298
-0.509885
-0.513399
-0.513174
-0.509503
-0.503281
-0.494534
-0.482924
-0.468356
-0.450891
-0.430567
-0.407427
-0.381603
-0.353342
-0.323017
-0.291143
-0.258374
-0.225462
-0.193133
-0.161683
-0.131294
-0.102549
-0.0760876
-0.0522859
-0.0312667
-0.0130313
0.00248561
0.0154139
0.0259391
0.0342863
0.0407016
0.0454417
0.0487596
0.0508687
0.0519055
0.0520488
0.0515057
0.0504519
0.0490241
0.0473298
0.0454556
0.0434715
0.0414325
0.039381
0.0373489
0.0353598
0.0334306
0.0315728
0.0297938
0.0280978
0.0264863
0.0249595
0.0235157
0.0221529
0.0208676
0.0196571
0.0185173
0.0174455
0.0164367
0.0154884
0.0145955
0.0137556
0.0129638
0.0122172
0.0115118
0.0108446
0.0102137
0.00961686
0.00905292
0.00851978
0.00801543
0.00753688
0.00708379
0.00665435
0.00625311
0.00586204
0.00548345
0.00511735
0.00476586
0.0044227
0.00408981
0.00375979
0.00343663
0.00311053
0.0027871
0.00245535
0.00212118
0.00177221
0.00141542
0.00103592
0.000642182
0.000216967
-0.482098
-0.483068
-0.488369
-0.493171
-0.493809
-0.490894
-0.485643
-0.477963
-0.467418
-0.453965
-0.437721
-0.418744
-0.397112
-0.372995
-0.34666
-0.318473
-0.288899
-0.258507
-0.227929
-0.197815
-0.168558
-0.140103
-0.11278
-0.0872092
-0.0638587
-0.0429291
-0.0244793
-0.00850333
0.0050647
0.0163499
0.0255248
0.0327931
0.0383733
0.0424935
0.0453724
0.0471783
0.0480249
0.04809
0.0475593
0.0465836
0.0452794
0.0437398
0.0420412
0.0402446
0.0383983
0.0365394
0.0346959
0.032889
0.0311337
0.0294406
0.0278164
0.0262651
0.0247886
0.0233868
0.0220592
0.0208033
0.0196174
0.0184979
0.0174431
0.0164483
0.0155116
0.0146282
0.0137962
0.0130107
0.0122694
0.0115681
0.0109042
0.0102757
0.00968019
0.00911682
0.00858357
0.00807843
0.00759847
0.00714326
0.00671484
0.00631162
0.00591769
0.00553581
0.00516676
0.00481244
0.00446635
0.00413053
0.00379737
0.00347118
0.00314172
0.00281517
0.00247987
0.0021425
0.00178973
0.00142966
0.00104597
0.000648811
0.000218472
-0.458711
-0.457972
-0.463958
-0.469859
-0.471105
-0.468921
-0.464737
-0.458225
-0.448893
-0.436791
-0.422063
-0.404768
-0.384997
-0.362937
-0.338844
-0.313047
-0.285945
-0.258013
-0.229778
-0.201792
-0.174516
-0.147917
-0.12206
-0.0974628
-0.0746545
-0.0539157
-0.0353625
-0.019041
-0.00494121
0.00700571
0.0169232
0.0249733
0.031341
0.0362227
0.0398241
0.0423331
0.0438735
0.0445588
0.0445627
0.0440478
0.0431418
0.0419454
0.0405406
0.0389946
0.037361
0.0356821
0.0339906
0.0323116
0.0306639
0.029061
0.0275125
0.0260245
0.0246011
0.0232437
0.0219533
0.0207284
0.0195684
0.0184706
0.0174337
0.0164538
0.0155295
0.0146562
0.0138325
0.0130538
0.012318
0.0116213
0.0109608
0.0103349
0.0097411
0.00917857
0.00864543
0.00813976
0.00765889
0.00720213
0.00677784
0.00636951
0.00597249
0.00558729
0.00521548
0.00485838
0.00450953
0.00417081
0.00383467
0.00350542
0.00317278
0.00284303
0.00250439
0.00216368
0.00180735
0.00144382
0.00105621
0.000655386
0.00022019
-0.432942
-0.430662
-0.43747
-0.444092
-0.445733
-0.444409
-0.441467
-0.436264
-0.428352
-0.417874
-0.404958
-0.389641
-0.372015
-0.352256
-0.330586
-0.307284
-0.282683
-0.257174
-0.231202
-0.205236
-0.179736
-0.154842
-0.130439
-0.106883
-0.0847058
-0.0642569
-0.0457071
-0.0291486
-0.0146202
-0.00210534
0.00847285
0.017237
0.0243384
0.0299457
0.0342389
0.0374032
0.0395938
0.0409017
0.0414533
0.0414103
0.0409118
0.0400676
0.0389662
0.0376799
0.0362675
0.0347762
0.0332433
0.0316981
0.030163
0.0286548
0.0271858
0.0257645
0.0243969
0.0230864
0.0218351
0.020643
0.0195104
0.0184354
0.0174175
0.0164533
0.015542
0.0146795
0.0138646
0.0130932
0.0123632
0.0116713
0.0110145
0.0103915
0.00979963
0.00923818
0.00870541
0.00819944
0.00771815
0.00726096
0.0068555
0.00642626
0.00602632
0.00563784
0.00526346
0.00490365
0.00455224
0.00421061
0.00387168
0.00353932
0.0032037
0.00287065
0.0025289
0.00218471
0.00182507
0.00145787
0.00106666
0.000661888
0.000222179
-0.406099
-0.40307
-0.410643
-0.417388
-0.419294
-0.418995
-0.417382
-0.413561
-0.407218
-0.39854
-0.387598
-0.374403
-0.359037
-0.341645
-0.322409
-0.301557
-0.279368
-0.256166
-0.232329
-0.208261
-0.184392
-0.161011
-0.137996
-0.115516
-0.0940486
-0.0739816
-0.0555344
-0.0388396
-0.0239784
-0.0109824
0.000180266
0.00959472
0.0173792
0.023675
0.0286372
0.0324333
0.0352255
0.037135
0.0382407
0.0386798
0.0385953
0.0381088
0.0373171
0.036298
0.0351147
0.0338188
0.0324517
0.0310466
0.0296297
0.0282209
0.0268355
0.0254844
0.0241756
0.0229144
0.0217043
0.0205468
0.0194431
0.0183922
0.0173943
0.0164467
0.0155492
0.0146981
0.0138925
0.0131289
0.012405
0.0117181
0.0110654
0.0104455
0.00985577
0.00929568
0.0087635
0.00825745
0.0077761
0.00731874
0.00689934
0.00648221
0.0060791
0.0056874
0.00531066
0.00494822
0.00459443
0.00424993
0.00390839
0.00357286
0.00323449
0.00289803
0.00255339
0.00220556
0.0018429
0.0014718
0.00107733
0.000668298
0.000224512
-0.380618
-0.377718
-0.385534
-0.391714
-0.393773
-0.394484
-0.394069
-0.391544
-0.386751
-0.379849
-0.370839
-0.359714
-0.346537
-0.331413
-0.314484
-0.295935
-0.275999
-0.254949
-0.233104
-0.210821
-0.188482
-0.166421
-0.144679
-0.123267
-0.102567
-0.082967
-0.0647196
-0.0479904
-0.0328953
-0.0195107
-0.00784764
0.00214285
0.0105475
0.01748
0.023073
0.0274713
0.0308312
0.033295
0.0349479
0.0358809
0.0362205
0.0360953
0.0356139
0.0348632
0.0339117
0.0328151
0.0316184
0.0303583
0.0290642
0.0277592
0.0264612
0.0251836
0.0239366
0.0227272
0.0215606
0.0204394
0.0193661
0.0183406
0.0173638
0.0164339
0.0155508
0.0147119
0.0139161
0.0131607
0.0124434
0.0117619
0.0111134
0.0104968
0.00990955
0.00935105
0.00881967
0.00831378
0.00783249
0.00737442
0.00694258
0.00654072
0.00613005
0.00573583
0.00535704
0.00499208
0.00463613
0.00428875
0.00394482
0.00360606
0.00326516
0.00292517
0.0025779
0.00222625
0.00186087
0.00148561