/*--------------------------------*- C++ -*----------------------------------*\
| =========                 |                                                 |
| \\      /  F ield         | OpenFOAM: The Open Source CFD Toolbox           |
|  \\    /   O peration     | Version:  2512                                  |
|   \\  /    A nd           | Website:  www.openfoam.com                      |
|    \\/     M anipulation  |                                                 |
\*---------------------------------------------------------------------------*/
FoamFile
{
    version     2.0;
    format      ascii;
    arch        "LSB;label=32;scalar=64";
    class       volVectorField;
    location    "125.75";
    object      U;
}
// * * * * * * * * * * * * * * * * * * * * * * * * * * * * * * * * * * * * * //

dimensions      [0 1 -1 0 0 0 0];

internalField   nonuniform List<vector> 
13248
(
(-0.0269759 0.0207133 4.71471e-20)
(-0.0582992 0.0407656 0)
(-0.0703562 0.0472724 -8.12457e-20)
(-0.0593228 0.0476118 7.52299e-20)
(-0.0212447 0.0449128 6.91714e-20)
(0.0480034 0.0404044 0)
(0.151447 0.0347172 0)
(0.288689 0.0285851 1.56468e-19)
(0.454069 0.0227431 -1.03816e-21)
(0.636562 0.0175634 -1.32856e-19)
(0.821625 0.0129142 1.22096e-19)
(0.994193 0.00817705 -7.55096e-20)
(1.14154 0.00248065 0)
(1.25534 -0.00497858 -1.28599e-19)
(1.33282 -0.014615 2.37939e-19)
(1.37672 -0.0263574 -5.69321e-20)
(1.39419 -0.0397384 -9.82293e-20)
(1.39446 -0.0540966 9.15884e-20)
(1.38576 -0.0688556 0)
(1.37332 -0.0842876 0)
(1.3588 -0.0967629 0)
(1.3408 -0.116675 0)
(1.32182 -0.116775 2.39646e-20)
(1.29445 -0.156862 8.20485e-20)
(-0.0320786 0.0234446 -1.42194e-19)
(-0.0608464 0.0437254 8.98388e-20)
(-0.0593344 0.0482503 -5.75791e-22)
(-0.0253378 0.0451408 -1.14894e-19)
(0.0447316 0.0386509 -6.90702e-20)
(0.153991 0.0311818 -6.45637e-20)
(0.301829 0.0244383 -1.15945e-19)
(0.480769 0.0196225 1.08861e-19)
(0.676138 0.0171661 0)
(0.869319 0.0165699 4.56237e-22)
(1.04255 0.0165997 1.46292e-21)
(1.18289 0.0157587 7.57539e-20)
(1.28428 0.0128123 0)
(1.3477 0.00714646 0)
(1.37974 -0.00116071 8.45814e-20)
(1.38987 -0.0115798 -1.57944e-19)
(1.38736 -0.0233152 9.17372e-20)
(1.37868 -0.035826 -8.55356e-20)
(1.36702 -0.0484135 -3.63809e-20)
(1.35326 -0.0606918 -6.54028e-20)
(1.33722 -0.072891 -2.53948e-20)
(1.32062 -0.0836889 -4.73827e-20)
(1.30136 -0.0927347 7.06991e-20)
(1.2849 -0.107198 1.91341e-20)
(-0.034683 0.0233539 0)
(-0.0563816 0.0416108 0)
(-0.0356945 0.0442768 4.14004e-20)
(0.0282759 0.0392536 3.76772e-20)
(0.137956 0.0316892 -7.72279e-22)
(0.292699 0.0250709 -6.71025e-20)
(0.483655 0.0216154 0)
(0.692302 0.0219824 -5.39298e-20)
(0.895172 0.0252206 5.00319e-20)
(1.07124 0.029344 3.58486e-22)
(1.2073 0.0322251 -8.20128e-20)
(1.29979 0.0323523 -7.34064e-20)
(1.3534 0.0291761 2.01115e-21)
(1.37786 0.0230101 -5.77906e-20)
(1.38391 0.0146317 1.39208e-19)
(1.38017 0.00490776 0)
(1.37173 -0.00549049 -8.63796e-20)
(1.36079 -0.0161772 4.22076e-20)
(1.34826 -0.0265283 3.63448e-20)
(1.33434 -0.037519 0)
(1.32023 -0.0460286 2.86198e-20)
(1.30455 -0.0580366 -9.38749e-20)
(1.28936 -0.0616518 8.7666e-20)
(1.27196 -0.076779 5.15184e-20)
(-0.0345948 0.0209433 -5.01438e-20)
(-0.0437413 0.0347747 -4.79482e-20)
(0.00257707 0.0353468 4.27764e-20)
(0.103889 0.0300976 0)
(0.259323 0.0249091 0)
(0.459496 0.0236814 -1.5774e-21)
(0.682254 0.0276253 0)
(0.898267 0.0352618 -1.65521e-19)
(1.082 0.043657 1.51013e-19)
(1.21929 0.0500003 -1.82791e-19)
(1.30862 0.052633 4.09455e-20)
(1.35782 0.0512682 0)
(1.37888 0.0465964 6.44692e-20)
(1.38314 0.0396608 -1.17677e-19)
(1.37862 0.0313872 2.78856e-20)
(1.36977 0.0223967 6.89046e-20)
(1.35866 0.0130067 -3.82817e-21)
(1.34636 0.00356127 -7.42825e-20)
(1.33327 -0.00611379 0)
(1.31992 -0.015059 0)
(1.3057 -0.0241695 -2.50215e-20)
(1.29143 -0.0325938 2.19733e-20)
(1.27629 -0.0378283 7.6668e-20)
(1.26161 -0.0510636 -7.15804e-20)
(-0.0315802 0.0170467 -5.28685e-20)
(-0.0213258 0.0249324 -4.88913e-20)
(0.0583938 0.0239861 1.34882e-19)
(0.204376 0.0212491 -8.11082e-20)
(0.407679 0.0227722 7.51278e-20)
(0.643808 0.0310097 1.3507e-19)
(0.876669 0.044033 -9.40621e-20)
(1.07406 0.0576444 -1.11388e-19)
(1.21903 0.0681012 3.44725e-21)
(1.31096 0.0735544 1.37633e-19)
(1.36003 0.0740419 0)
(1.38002 0.0706915 3.5657e-20)
(1.38304 0.0648449 0)
(1.37729 0.0575446 -5.57245e-20)
(1.36742 0.0494343 7.77023e-20)
(1.35578 0.0408638 9.31101e-22)
(1.34351 0.032117 -1.95175e-20)
(1.33097 0.0232615 3.6283e-20)
(1.3183 0.0147494 3.04578e-20)
(1.30524 0.00619233 -2.68301e-20)
(1.29216 -0.00149232 2.50102e-20)
(1.27875 -0.00947238 -2.19631e-20)
(1.26537 -0.0151931 0)
(1.25212 -0.025471 -1.57622e-20)
(-0.0250424 0.0123735 5.28553e-20)
(0.0128743 0.0141985 5.14677e-20)
(0.134427 0.0138008 -4.52934e-20)
(0.329958 0.0175776 8.36255e-20)
(0.575198 0.0299189 -7.74564e-20)
(0.827671 0.0490722 6.90872e-20)
(1.04553 0.0692171 -3.27395e-20)
(1.2058 0.0851017 8.36765e-20)
(1.30677 0.09435 -5.17011e-20)
(1.36011 0.0972226 8.79442e-20)
(1.38147 0.0953157 -1.99214e-19)
(1.38438 0.0903727 7.17219e-20)
(1.378 0.0836971 -6.09534e-20)
(1.36758 0.0760858 5.67439e-20)
(1.35572 0.0679825 4.76469e-20)
(1.34347 0.0596625 4.09212e-20)
(1.33108 0.0512489 -1.12682e-19)
(1.31859 0.0429487 6.9276e-20)
(1.30592 0.0346657 -3.04532e-20)
(1.29325 0.0267901 7.74794e-20)
(1.28044 0.0190638 -2.50054e-20)
(1.26768 0.0117404 -5.83446e-20)
(1.25486 0.00587996 5.33e-20)
(1.24226 -0.00343994 1.57573e-20)
(-0.0140685 0.00747644 0)
(0.0607279 0.00465282 6.85889e-22)
(0.231469 0.00845442 9.57932e-20)
(0.47553 0.0232428 -8.80184e-20)
(0.747211 0.0483956 -7.84035e-20)
(0.992323 0.0764409 1.43185e-19)
(1.17679 0.0996436 -6.54024e-20)
(1.29436 0.114332 8.43095e-20)
(1.35699 0.120668 -2.53516e-21)
(1.38247 0.120715 -4.58196e-20)
(1.3865 0.116779 9.66126e-20)
(1.37991 0.110613 -1.40292e-19)
(1.36888 0.103298 0)
(1.35636 0.0954195 -2.63684e-20)
(1.3435 0.0872751 -6.90487e-20)
(1.33062 0.0790065 2.15754e-20)
(1.31786 0.0707458 1.03418e-21)
(1.30521 0.0625243 -4.49262e-20)
(1.29277 0.0545457 3.44479e-21)
(1.28042 0.0467459 5.10406e-20)
(1.26825 0.0393298 -2.22717e-20)
(1.25621 0.0323368 -7.94444e-21)
(1.24426 0.0257979 2.51827e-20)
(1.23265 0.0179413 0)
(0.00228686 0.00292782 0)
(0.12324 -0.00157495 2.63659e-20)
(0.347131 0.0112323 -1.2501e-19)
(0.630566 0.0404428 4.48871e-20)
(0.907634 0.0772433 -4.15759e-20)
(1.12638 0.110066 -3.70918e-20)
(1.27016 0.132515 -6.35124e-20)
(1.34879 0.143976 3.18043e-20)
(1.38216 0.146883 2.67675e-20)
(1.38912 0.144297 0)
(1.38299 0.138652 5.70047e-20)
(1.37144 0.131474 -8.31055e-20)
(1.35816 0.123572 6.11417e-20)
(1.3446 0.115326 2.63802e-20)
(1.33126 0.106922 -2.10007e-20)
(1.31826 0.0984864 -1.70587e-20)
(1.30558 0.090094 -1.56876e-20)
(1.29318 0.0818602 4.72711e-20)
(1.28098 0.07379 0)
(1.26901 0.0660104 2.26679e-20)
(1.25723 0.0585381 1.84027e-20)
(1.24563 0.0514217 -4.61168e-20)
(1.23418 0.0446856 -3.04733e-20)
(1.22299 0.037745 2.79829e-20)
(0.0247078 -0.000517083 -3.1073e-20)
(0.199896 -0.00218004 -1.41029e-21)
(0.475415 0.0246113 2.56107e-20)
(0.782262 0.0691228 7.06966e-20)
(1.04525 0.11399 1.97781e-20)
(1.2276 0.147385 -3.77949e-20)
(1.33181 0.166496 3.38625e-20)
(1.37886 0.173798 -2.87199e-20)
(1.39155 0.173276 5.00019e-20)
(1.38692 0.168351 2.06088e-20)
(1.37505 0.161237 -5.79821e-20)
(1.36087 0.153118 1.67191e-20)
(1.34639 0.144549 2.78961e-20)
(1.33226 0.135786 -1.36522e-20)
(1.31863 0.126972 0)
(1.30546 0.118194 1.95289e-20)
(1.2927 0.109536 3.23083e-20)
(1.28031 0.101039 5.13787e-21)
(1.26831 0.0927929 -2.62823e-20)
(1.25667 0.0848313 1.07293e-20)
(1.24535 0.0772227 0)
(1.23434 0.0699804 -8.10245e-21)
(1.22354 0.0629372 -7.52005e-21)
(1.21296 0.0565313 0)
(0.0533374 -0.00191312 0)
(0.288239 0.00509462 1.51374e-20)
(0.60767 0.0497231 2.77635e-20)
(0.91983 0.107669 -7.23227e-20)
(1.15549 0.156218 2.31242e-20)
(1.29913 0.186882 0)
(1.36904 0.201148 3.20247e-20)
(1.39228 0.203998 -4.39913e-20)
(1.39112 0.200246 -2.49152e-20)
(1.37947 0.193198 1.10224e-20)
(1.36437 0.184669 -1.70944e-20)
(1.34877 0.175517 4.12519e-20)
(1.33363 0.166121 2.01188e-20)
(1.31918 0.156657 -1.40266e-20)
(1.3054 0.147226 -1.47017e-21)
(1.29224 0.13791 -3.65759e-20)
(1.27964 0.12877 1.64496e-20)
(1.26756 0.119874 -4.06619e-22)
(1.25593 0.111255 0)
(1.24471 0.10298 -1.07399e-20)
(1.23386 0.0950753 0)
(1.22332 0.08748 2.32257e-20)
(1.21301 0.0802797 -2.71891e-20)
(1.20285 0.0741923 1.22079e-20)
(0.0876569 -0.00024548 -8.79233e-21)
(0.383934 0.0220072 -3.88445e-20)
(0.734787 0.0862317 4.36635e-20)
(1.03668 0.15398 2.4779e-20)
(1.23844 0.202159 -1.17473e-20)
(1.34576 0.227803 1.85794e-20)
(1.38798 0.236474 -8.992e-21)
(1.39413 0.234901 1.42837e-20)
(1.38401 0.22811 0)
(1.36819 0.219012 3.08156e-20)
(1.35129 0.208996 -1.39437e-21)
(1.33488 0.198657 -2.40858e-20)
(1.31935 0.188248 1.01086e-20)
(1.30472 0.177894 -1.11674e-20)
(1.29091 0.16768 -4.10291e-21)
(1.27781 0.157671 4.80781e-21)
(1.26535 0.147923 -3.61187e-21)
(1.25348 0.138473 -1.91902e-20)
(1.24215 0.129373 1.16586e-20)
(1.23135 0.120667 2.32622e-21)
(1.221 0.112355 2.00849e-21)
(1.21104 0.104404 1.7334e-21)
(1.20137 0.0969983 0)
(1.19183 0.0907257 0)
(0.126571 0.0054592 8.80299e-21)
(0.481483 0.0494998 -8.14252e-21)
(0.849378 0.132809 -1.46137e-20)
(1.13002 0.206118 0)
(1.29633 0.250662 -5.79334e-21)
(1.37202 0.269821 -5.03452e-21)
(1.39293 0.272591 -8.25605e-21)
(1.38728 0.266702 0)
(1.37154 0.256952 0)
(1.35333 0.245737 0)
(1.33543 0.234061 0)
(1.31862 0.222324 0)
(1.30295 0.210695 -6.34268e-21)
(1.28833 0.199261 2.85713e-21)
(1.27463 0.188084 4.85886e-21)
(1.26177 0.177215 2.24153e-21)
(1.24965 0.166692 5.43471e-21)
(1.23821 0.156554 0)
(1.2274 0.146831 -1.24548e-21)
(1.21715 0.137561 -1.16788e-21)
(1.20739 0.12872 -2.01164e-21)
(1.19805 0.120288 -1.73612e-21)
(1.18899 0.112602 0)
(1.18012 0.105954 1.1774e-21)
(-0.00165647 0.0770125 6.50717e-21)
(-0.00522987 0.206187 -6.15219e-21)
(-0.0137645 0.300414 -1.13578e-20)
(-0.0285362 0.360797 0)
(-0.0474341 0.398829 -1.46969e-20)
(-0.0674792 0.427102 4.56801e-21)
(-0.086319 0.45341 -8.57249e-21)
(-0.102448 0.480159 0)
(-0.114893 0.506348 0)
(-0.122855 0.529664 0)
(-0.125547 0.547504 0)
(-0.12221 0.557392 0)
(-0.112187 0.557151 1.55281e-22)
(-0.0950339 0.545046 -6.3701e-21)
(-0.0705987 0.519956 1.27597e-20)
(-0.0390329 0.481479 1.87922e-20)
(-0.00126428 0.429937 6.2401e-21)
(0.0418699 0.366329 0)
(0.0894835 0.292146 5.70163e-21)
(0.13981 0.209084 -1.6209e-20)
(0.190714 0.119157 -1.03623e-20)
(0.242996 0.0236955 -9.77512e-21)
(0.289006 -0.0768492 0)
(0.340928 -0.184229 0)
(-0.00456015 0.0727728 -1.94552e-20)
(-0.0095212 0.203043 3.06962e-20)
(-0.0128033 0.304853 -1.13027e-20)
(-0.0196163 0.37362 -2.09336e-20)
(-0.0297418 0.417103 2.91524e-20)
(-0.040921 0.446831 -1.82411e-20)
(-0.0507138 0.471323 2.54813e-20)
(-0.0572373 0.494111 1.59516e-20)
(-0.0592088 0.51497 0)
(-0.0557222 0.531892 -1.53127e-20)
(-0.0461112 0.542385 -1.10581e-21)
(-0.0298266 0.544111 1.32478e-20)
(-0.00653158 0.535139 1.99013e-20)
(0.0238311 0.514096 2.67605e-20)
(0.0609972 0.480278 -1.14685e-20)
(0.104334 0.433678 -3.68338e-20)
(0.152844 0.374953 1.27858e-20)
(0.205347 0.305627 -4.67427e-20)
(0.260298 0.227238 0)
(0.316822 0.141999 1.08707e-20)
(0.37029 0.051436 1.03439e-20)
(0.42823 -0.0415617 9.75785e-21)
(0.471643 -0.138113 0)
(0.530577 -0.241594 0)
(-0.00669368 0.0633111 0)
(-0.0135502 0.187616 6.05594e-20)
(-0.0128642 0.293611 -2.2416e-20)
(-0.0122375 0.370592 2.08229e-20)
(-0.0133211 0.420938 -5.7267e-20)
(-0.0149097 0.453587 0)
(-0.014931 0.477024 -3.37505e-20)
(-0.0113743 0.495927 1.53957e-20)
(-0.00270035 0.511289 -2.95893e-20)
(0.0121072 0.521841 1.37806e-20)
(0.0336423 0.525503 8.3714e-20)
(0.0622046 0.520207 -3.90004e-20)
(0.0977866 0.504287 -6.68478e-20)
(0.140057 0.476675 -2.76876e-20)
(0.188361 0.436983 -2.52893e-21)
(0.241696 0.385492 9.81857e-20)
(0.298787 0.323124 -4.68537e-20)
(0.358382 0.251689 6.69352e-22)
(0.417573 0.17209 0)
(0.478319 0.0889697 -4.22993e-20)
(0.530978 0.00130624 0)
(0.592309 -0.0861237 -3.96729e-20)
(0.630234 -0.178451 1.44692e-19)
(0.699137 -0.278153 -1.19425e-21)
(-0.00759326 0.0505166 0)
(-0.0164455 0.16227 -3.18899e-22)
(-0.0138707 0.267532 2.18696e-20)
(-0.00765372 0.350699 -2.01388e-20)
(-0.000656246 0.408403 1.89431e-20)
(0.00708635 0.445621 1.04521e-19)
(0.0168342 0.469531 -3.25543e-20)
(0.030308 0.485451 -3.02279e-20)
(0.0490735 0.495684 5.81283e-20)
(0.0742247 0.500143 -8.47693e-20)
(0.106332 0.497533 2.53622e-20)
(0.145507 0.486265 2.51955e-20)
(0.191456 0.465011 0)
(0.243511 0.432978 2.50755e-20)
(0.300661 0.389983 0)
(0.361595 0.336647 4.56356e-20)
(0.424617 0.27365 -9.37334e-20)
(0.488337 0.203588 1.93819e-20)
(0.549294 0.126298 8.46754e-20)
(0.611911 0.0491598 4.22526e-20)
(0.662649 -0.0350288 0)
(0.728385 -0.11698 -1.12218e-19)
(0.766449 -0.209431 3.57553e-20)
(0.853972 -0.309332 0)
(-0.00719099 0.0366827 0)
(-0.0177159 0.131098 -7.08439e-20)
(-0.0156071 0.229824 -2.13162e-20)
(-0.006751 0.314961 -3.97992e-20)
(0.00595288 0.378545 3.68725e-20)
(0.0215311 0.421106 -3.44956e-20)
(0.0401985 0.447308 6.36669e-20)
(0.062937 0.462051 3.09211e-20)
(0.0909449 0.468491 -8.40853e-20)
(0.125182 0.467778 5.3927e-20)
(0.166145 0.459688 -7.7211e-20)
(0.213817 0.443403 1.70551e-19)
(0.267701 0.4181 -9.31202e-20)
(0.326854 0.383334 4.4703e-20)
(0.389967 0.339067 1.36209e-19)
(0.455518 0.286304 -4.15144e-20)
(0.521198 0.224948 -3.78004e-20)
(0.586327 0.159737 -4.16056e-20)
(0.648705 0.0872464 0)
(0.712604 0.0166866 -7.84297e-20)
(0.768849 -0.0664994 -7.54242e-20)
(0.846726 -0.145066 1.0517e-19)
(0.899671 -0.243174 1.31031e-19)
(1.012 -0.341229 -1.19707e-19)
(-0.00583148 0.0239213 0)
(-0.0175351 0.0989271 -9.23058e-20)
(-0.017968 0.185822 9.13372e-22)
(-0.00982367 0.267185 7.85739e-20)
(0.00510987 0.332691 0)
(0.0256391 0.3792 0)
(0.0511432 0.408391 0)
(0.0816728 0.423751 -2.93121e-20)
(0.117689 0.428422 -6.51611e-22)
(0.159674 0.424334 4.9911e-20)
(0.207829 0.412262 -7.55606e-20)
(0.26192 0.392282 -1.39857e-21)
(0.321225 0.364228 0)
(0.384613 0.328189 -4.46847e-20)
(0.450648 0.284178 4.23179e-20)
(0.517775 0.233667 -1.19474e-19)
(0.585438 0.176416 1.61554e-19)
(0.653655 0.116838 4.18252e-20)
(0.723044 0.0477093 4.92353e-21)
(0.798438 -0.0195862 -1.42227e-19)
(0.877848 -0.105335 -6.59268e-20)
(0.97722 -0.181888 2.2368e-19)
(1.05665 -0.285043 -1.45528e-19)
(1.1786 -0.369236 0)
(-0.00420681 0.0137821 4.81001e-20)
(-0.016874 0.0701484 4.6053e-20)
(-0.0213435 0.141753 -4.15714e-20)
(-0.0167983 0.213644 -7.6301e-20)
(-0.00330261 0.275454 7.06883e-20)
(0.0184365 0.322008 -6.39589e-20)
(0.0474725 0.352509 8.83573e-20)
(0.0831029 0.368665 -2.89379e-20)
(0.124949 0.372881 5.05705e-20)
(0.17277 0.367206 0)
(0.226229 0.353001 4.44448e-20)
(0.284747 0.331082 -8.14938e-20)
(0.347534 0.301962 8.39887e-20)
(0.413688 0.266158 -7.81761e-20)
(0.482738 0.224122 0)
(0.555356 0.1771 7.61134e-20)
(0.632768 0.123665 1.48563e-19)
(0.717221 0.0663198 -1.41005e-19)
(0.811497 -0.00172159 -6.70983e-20)
(0.915801 -0.0685948 -7.03992e-20)
(1.02721 -0.153824 1.91337e-19)
(1.14132 -0.223458 5.47259e-20)
(1.23302 -0.318779 -5.19421e-20)
(1.32548 -0.374876 4.45304e-20)
(-0.00324807 0.00717748 -4.81123e-20)
(-0.0173713 0.0478719 1.34161e-19)
(-0.0268059 0.103061 -4.12664e-20)
(-0.0276641 0.161356 7.49325e-20)
(-0.0183568 0.213988 -6.94215e-20)
(0.0012158 0.255434 -8.12604e-23)
(0.0302475 0.283513 2.86155e-20)
(0.0676648 0.298487 1.02326e-19)
(0.112476 0.301833 -3.17555e-22)
(0.163862 0.295299 -4.57127e-20)
(0.221214 0.280425 0)
(0.284184 0.25846 -3.99277e-20)
(0.352987 0.23025 7.56844e-20)
(0.428732 0.196452 7.61614e-20)
(0.513126 0.157194 -3.55635e-20)
(0.608258 0.112411 -2.20956e-21)
(0.715604 0.0610364 -3.57988e-20)
(0.834891 0.00510274 6.47702e-20)
(0.96239 -0.0589432 6.71059e-20)
(1.09124 -0.121014 -6.40121e-20)
(1.21087 -0.194168 5.42843e-20)
(1.30977 -0.248345 -4.95014e-20)
(1.37456 -0.321278 0)
(1.4062 -0.346822 -4.45675e-20)
(-0.00397754 0.00451668 4.68718e-20)
(-0.0208327 0.033686 -4.46453e-20)
(-0.0356265 0.0733241 4.052e-20)
(-0.04231 0.116175 0)
(-0.0381723 0.155912 0)
(-0.0223768 0.187872 5.98432e-20)
(0.00471892 0.209616 -5.64268e-20)
(0.0422457 0.220671 4.92601e-20)
(0.0893968 0.221844 -2.3236e-19)
(0.145844 0.2145 -2.9054e-22)
(0.212104 0.200032 3.97856e-20)
(0.289515 0.17945 0)
(0.379906 0.153371 -7.46116e-20)
(0.485026 0.122057 1.41817e-19)
(0.605427 0.0856001 -1.02758e-19)
(0.739293 0.0439551 -1.71223e-19)
(0.882044 -0.00200861 -4.56463e-21)
(1.02622 -0.051423 1.18379e-19)
(1.16166 -0.103609 0)
(1.27841 -0.153107 0)
(1.36434 -0.205816 -5.43078e-20)
(1.41583 -0.241141 4.95264e-20)
(1.4272 -0.289544 -1.60055e-19)
(1.40776 -0.295732 1.49207e-19)
(-0.00720328 0.00571084 0)
(-0.0283278 0.0277754 0)
(-0.0479172 0.0541352 -1.20764e-19)
(-0.0589982 0.0819691 3.79487e-20)
(-0.0583151 0.10771 1.38657e-21)
(-0.044278 0.128162 6.10939e-20)
(-0.0162997 0.141462 0)
(0.0260284 0.147017 -4.99379e-20)
(0.0834823 0.145278 4.60665e-20)
(0.157466 0.137125 -8.40248e-20)
(0.24961 0.123367 -6.79246e-22)
(0.361034 0.104707 7.55374e-20)
(0.491262 0.0817278 2.22564e-21)
(0.637211 0.0547143 7.23449e-20)
(0.793036 0.024276 -9.75757e-20)
(0.950295 -0.00952564 0)
(1.09914 -0.0450014 1.23139e-19)
(1.22875 -0.0827113 -1.74975e-19)
(1.33036 -0.119207 5.14874e-20)
(1.39728 -0.154663 0)
(1.42781 -0.187843 4.28034e-20)
(1.42853 -0.210416 1.59464e-19)
(1.40469 -0.243143 -1.48923e-19)
(1.37386 -0.243938 -1.5148e-19)
(-0.0129411 0.00997546 1.37999e-19)
(-0.0390608 0.0289722 -1.74419e-19)
(-0.0610802 0.0452885 6.88718e-22)
(-0.0723165 0.0604649 3.71523e-20)
(-0.0692466 0.0735999 -6.71916e-20)
(-0.0491753 0.0832263 -6.08124e-20)
(-0.00980266 0.0883317 1.08935e-19)
(0.0510972 0.0884892 -2.24924e-21)
(0.135611 0.0838951 -9.21603e-20)
(0.244777 0.0751394 1.69344e-19)
(0.377667 0.0629077 4.35e-22)
(0.53031 0.0478293 -7.3755e-20)
(0.695637 0.0302824 0)
(0.864073 0.0104907 0)
(1.02469 -0.0112721 -3.26259e-20)
(1.16667 -0.0350124 -5.92308e-20)
(1.28096 -0.0597002 -1.14248e-19)
(1.36129 -0.0860198 1.06511e-19)
(1.407 -0.110174 -5.15451e-20)
(1.42082 -0.135939 8.7741e-20)
(1.41315 -0.156015 -4.58234e-20)
(1.39331 -0.1765 6.7509e-20)
(1.37 -0.199832 -1.62157e-19)
(1.34807 -0.202786 3.0071e-20)
(-0.0201029 0.015668 4.60967e-20)
(-0.0501968 0.034579 0)
(-0.0701299 0.0444797 8.03125e-20)
(-0.0744133 0.0505202 -7.43675e-20)
(-0.0591971 0.0541237 6.72802e-20)
(-0.0206824 0.0553736 0)
(0.044797 0.0539846 0)
(0.139704 0.0499145 -5.05977e-20)
(0.264302 0.0435994 9.49273e-22)
(0.415185 0.0357012 4.36542e-20)
(0.584791 0.0266771 -4.05305e-20)
(0.762231 0.016695 7.46068e-20)
(0.934929 0.00562069 0)
(1.09061 -0.00685463 1.32685e-19)
(1.21917 -0.0210457 -2.47474e-19)
(1.31423 -0.0370116 1.74753e-19)
(1.37415 -0.0543807 1.05794e-19)
(1.40239 -0.0729044 -9.86377e-20)
(1.40689 -0.0905721 0)
(1.39669 -0.110523 0)
(1.38159 -0.124603 0)
(1.36324 -0.147586 0)
(1.34593 -0.15829 3.0342e-20)
(1.32553 -0.171397 -9.78559e-20)
(0.38819 -0.314892 -5.41913e-21)
(0.44004 -0.485875 5.45168e-21)
(0.491939 -0.654532 -1.46455e-22)
(0.536534 -0.787965 0)
(0.567013 -0.863569 -2.82133e-21)
(0.580785 -0.884019 4.9945e-21)
(0.578836 -0.867555 -3.3049e-22)
(0.573509 -0.823446 -1.80539e-21)
(0.568135 -0.772336 0)
(0.545513 -0.751149 0)
(0.502129 -0.760355 -9.08935e-23)
(0.464215 -0.738939 -9.84509e-23)
(0.465231 -0.614966 -2.13809e-21)
(0.510057 -0.376545 1.96866e-21)
(0.577523 -0.0695039 0)
(0.648625 0.24136 0)
(0.7112 0.486966 1.5605e-21)
(0.761016 0.628114 -3.0674e-22)
(0.795606 0.680292 -1.11203e-21)
(0.811751 0.684691 -4.87767e-23)
(0.819836 0.662091 0)
(0.826996 0.635074 0)
(0.821828 0.645433 0)
(0.794568 0.699127 0)
(0.753959 0.727985 0)
(0.716666 0.644527 0)
(0.697654 0.418835 4.53786e-22)
(0.698622 0.0993318 -7.4538e-22)
(0.715575 -0.214355 0)
(0.740956 -0.434108 0)
(0.772502 -0.536273 -2.90422e-22)
(0.800894 -0.568936 2.82194e-22)
(0.809979 -0.581548 9.52582e-23)
(0.783991 -0.598949 0)
(0.72591 -0.59649 0)
(0.656616 -0.526162 2.23362e-22)
(0.610113 -0.353934 -2.17093e-22)
(0.597039 -0.10112 0)
(0.623717 0.144303 1.99886e-22)
(0.675669 0.323756 -2.74632e-22)
(0.718582 0.420816 6.30066e-23)
(0.710805 0.491169 0)
(0.670218 0.514667 -1.10832e-22)
(0.62755 0.450975 1.07768e-22)
(0.617985 0.293348 0)
(0.637607 0.064662 0)
(0.674537 -0.130448 -4.84607e-23)
(0.684245 -0.314109 1.38713e-22)
(0.671583 -0.42153 0)
(0.650976 -0.433698 0)
(0.651181 -0.334094 -2.69954e-23)
(0.649649 -0.0932218 4.25319e-24)
(0.651563 0.123444 -2.75666e-24)
(0.629971 0.359998 1.48799e-23)
(0.628498 0.422947 0)
(0.618822 0.279081 0)
(0.619283 0.111985 0)
(0.567678 -0.249838 0)
(0.564427 -0.337025 0)
(0.54018 -0.0737323 0)
(0.570891 -0.368892 -5.48622e-22)
(0.617262 -0.540382 -2.06636e-20)
(0.66329 -0.706163 2.46516e-21)
(0.693306 -0.830482 1.6987e-20)
(0.699411 -0.891688 1.98439e-22)
(0.68909 -0.891892 0)
(0.664391 -0.859614 -7.37937e-21)
(0.631165 -0.811536 1.36716e-20)
(0.602816 -0.75314 -6.28884e-21)
(0.570006 -0.714403 5.61122e-21)
(0.517817 -0.713192 -5.35812e-21)
(0.458762 -0.70693 6.31127e-21)
(0.425035 -0.619358 -6.08779e-21)
(0.436211 -0.41458 -2.11386e-22)
(0.485221 -0.126687 -7.64061e-21)
(0.553216 0.176948 7.42024e-21)
(0.624191 0.427039 -5.66538e-21)
(0.689979 0.582632 5.35749e-21)
(0.741567 0.653682 -3.54069e-21)
(0.774381 0.671586 6.26218e-21)
(0.798926 0.654802 -2.75338e-21)
(0.819809 0.633477 -1.43885e-22)
(0.827069 0.653253 -2.57932e-21)
(0.81256 0.716869 5.52073e-21)
(0.785518 0.751562 -2.92901e-21)
(0.761661 0.667095 2.63006e-22)
(0.753644 0.432631 5.35926e-21)
(0.761078 0.101335 2.3892e-22)
(0.777501 -0.223681 -9.39916e-21)
(0.79474 -0.450622 7.66306e-21)
(0.812029 -0.552695 -3.28652e-21)
(0.824844 -0.577323 2.55902e-22)
(0.821568 -0.576634 -9.54555e-23)
(0.787535 -0.57954 1.51436e-22)
(0.721559 -0.568541 0)
(0.644745 -0.500964 0)
(0.591296 -0.341563 -8.33141e-22)
(0.577322 -0.106469 6.20034e-22)
(0.609454 0.124502 5.07889e-22)
(0.667084 0.303447 -3.4558e-23)
(0.712451 0.413129 -5.8928e-22)
(0.70716 0.498385 1.02172e-22)
(0.672184 0.528493 0)
(0.631121 0.461356 0)
(0.62171 0.293838 0)
(0.643426 0.0568256 0)
(0.684903 -0.138214 2.55023e-22)
(0.697097 -0.313813 -9.16733e-23)
(0.680461 -0.417916 0)
(0.655086 -0.430661 0)
(0.652016 -0.334302 0)
(0.648233 -0.0936059 -2.96526e-23)
(0.650501 0.124381 1.52493e-23)
(0.632393 0.361841 -3.50396e-23)
(0.636022 0.42417 0)
(0.627658 0.280815 0)
(0.628937 0.117033 3.96928e-23)
(0.571302 -0.242416 1.24801e-22)
(0.562487 -0.336405 0)
(0.547415 -0.0714406 0)
(0.734212 -0.402425 -1.83714e-21)
(0.778085 -0.569457 -4.41268e-20)
(0.821043 -0.72335 3.56564e-20)
(0.838941 -0.8316 -3.33422e-20)
(0.821996 -0.880193 -1.99846e-22)
(0.785024 -0.871256 0)
(0.740657 -0.830966 -1.48211e-20)
(0.689926 -0.784247 1.4468e-20)
(0.643127 -0.72859 8.97801e-23)
(0.60025 -0.677407 1.48904e-22)
(0.542604 -0.6614 1.40642e-22)
(0.469146 -0.662712 1.71848e-22)
(0.407706 -0.609538 -1.18618e-20)
(0.386638 -0.445975 1.17319e-20)
(0.411117 -0.186876 0)
(0.470074 0.102607 3.52131e-22)
(0.546533 0.353979 -9.89532e-21)
(0.624795 0.523822 9.75507e-21)
(0.690519 0.614551 0)
(0.73881 0.647621 0)
(0.779048 0.638926 -4.81478e-21)
(0.81369 0.62374 9.48841e-21)
(0.834212 0.651806 -9.65055e-21)
(0.833735 0.725563 -1.00083e-21)
(0.821468 0.769243 1.35182e-20)
(0.811431 0.68835 -1.74305e-20)
(0.815331 0.450786 1.95954e-20)
(0.829146 0.113653 -4.7534e-22)
(0.843933 -0.219343 -1.04964e-20)
(0.852647 -0.453856 0)
(0.855889 -0.55866 0)
(0.853282 -0.579243 1.30217e-21)
(0.838138 -0.568667 -1.76768e-21)
(0.797921 -0.558339 -1.18703e-23)
(0.725823 -0.540098 1.10679e-21)
(0.642224 -0.47708 -1.07548e-21)
(0.582642 -0.332442 0)
(0.567573 -0.115602 1.90529e-22)
(0.603266 0.101367 1.2766e-21)
(0.66415 0.28114 -2.21517e-21)
(0.711688 0.404522 8.91866e-22)
(0.710135 0.504813 8.79669e-23)
(0.681026 0.542669 -1.25461e-21)
(0.641198 0.473286 9.97968e-22)
(0.631493 0.296394 3.44079e-22)
(0.654104 0.0504623 3.42531e-22)
(0.699212 -0.145283 -2.55701e-22)
(0.714157 -0.312051 0)
(0.693732 -0.413053 0)
(0.662412 -0.427153 -4.0246e-22)
(0.655792 -0.3353 1.84648e-22)
(0.650093 -0.0948409 -1.00211e-22)
(0.653208 0.124318 1.37974e-22)
(0.638417 0.362188 2.1761e-22)
(0.646802 0.425454 -6.17107e-23)
(0.639697 0.282455 1.86334e-22)
(0.642365 0.123031 -1.96908e-22)
(0.579646 -0.233276 1.30858e-22)
(0.564484 -0.336485 0)
(0.558082 -0.070352 0)
(0.889181 -0.434253 -8.64054e-20)
(0.9346 -0.593211 7.23208e-21)
(0.972118 -0.728912 7.47731e-20)
(0.974008 -0.814206 -4.84528e-22)
(0.936787 -0.843862 0)
(0.876782 -0.828371 0)
(0.813133 -0.786135 -2.83138e-20)
(0.748765 -0.741763 3.9435e-21)
(0.687634 -0.696127 3.24981e-20)
(0.636127 -0.642278 -8.80724e-22)
(0.578677 -0.606831 -8.75608e-21)
(0.500303 -0.602407 -8.4155e-21)
(0.418021 -0.577997 8.39736e-21)
(0.366617 -0.463225 0)
(0.364098 -0.245076 -1.04072e-20)
(0.408161 0.0229276 9.47247e-21)
(0.482816 0.270025 0)
(0.566898 0.45227 0)
(0.643107 0.562742 5.36423e-21)
(0.705235 0.612143 -6.97537e-22)
(0.759943 0.613069 -4.2412e-21)
(0.807656 0.603824 -4.43098e-21)
(0.841886 0.637816 4.42982e-21)
(0.856559 0.72034 -6.1226e-21)
(0.858687 0.775562 -1.68698e-21)
(0.862281 0.704902 7.45911e-21)
(0.878445 0.472425 1.2921e-21)
(0.898894 0.133081 7.62912e-24)
(0.913056 -0.206306 0)
(0.914139 -0.448613 7.34477e-21)
(0.904125 -0.556966 -7.51277e-21)
(0.886286 -0.575405 2.62141e-22)
(0.858846 -0.558521 0)
(0.813276 -0.536809 -1.41349e-22)
(0.737581 -0.510508 1.83189e-21)
(0.64837 -0.45237 -3.55944e-21)
(0.583014 -0.324888 -4.49393e-22)
(0.566351 -0.127938 3.35911e-23)
(0.603577 0.0755801 1.78787e-21)
(0.666141 0.256847 2.21478e-22)
(0.716456 0.393212 -1.45195e-21)
(0.719106 0.507954 1.21932e-21)
(0.695427 0.556068 -1.75022e-24)
(0.657897 0.486933 1.35952e-21)
(0.648325 0.30155 -1.66699e-21)
(0.670459 0.0456135 -2.46018e-21)
(0.717605 -0.152266 6.82425e-22)
(0.735217 -0.309536 7.84785e-22)
(0.711338 -0.406744 -1.29197e-21)
(0.672918 -0.422515 7.27641e-22)
(0.662402 -0.33668 -9.66758e-23)
(0.655123 -0.0971943 1.61614e-22)
(0.659462 0.123053 5.9288e-23)
(0.647769 0.361104 -2.72884e-22)
(0.660518 0.426799 -3.60139e-23)
(0.654631 0.284077 -2.27592e-22)
(0.659306 0.129748 0)
(0.592842 -0.222537 -1.27214e-22)
(0.570419 -0.337018 7.42968e-23)
(0.571914 -0.0703985 0)
(1.04572 -0.462319 8.02619e-20)
(1.0836 -0.601268 -1.50152e-19)
(1.10417 -0.708117 6.92484e-20)
(1.08124 -0.768763 5.15685e-20)
(1.02321 -0.782593 -9.20109e-20)
(0.948921 -0.764865 7.46045e-21)
(0.874848 -0.728874 3.24745e-20)
(0.805363 -0.688564 2.15811e-20)
(0.736179 -0.652677 -2.11104e-20)
(0.675003 -0.608897 0)
(0.61902 -0.563352 -1.41336e-20)
(0.546122 -0.542971 2.73467e-20)
(0.455194 -0.530998 -1.32743e-20)
(0.378617 -0.461983 0)
(0.348199 -0.294302 0)
(0.371014 -0.057853 2.81322e-22)
(0.435281 0.17886 -1.29532e-20)
(0.518342 0.370634 1.25758e-20)
(0.599962 0.499558 0)
(0.672529 0.565916 7.59299e-21)
(0.739519 0.57814 -1.41871e-20)
(0.799842 0.574529 1.43076e-20)
(0.847679 0.611841 -1.62903e-20)
(0.876317 0.701923 -2.52822e-21)
(0.893241 0.771229 2.55707e-20)
(0.912207 0.717364 -1.45649e-20)
(0.93926 0.49852 -6.46551e-22)
(0.965816 0.163938 -1.02424e-20)
(0.98099 -0.180237 9.93739e-22)
(0.976264 -0.4313 9.35418e-21)
(0.954582 -0.545643 3.83216e-22)
(0.922548 -0.564533 -3.56329e-21)
(0.883198 -0.544893 5.90779e-21)
(0.833134 -0.515593 -2.61129e-21)
(0.75645 -0.48194 0)
(0.662847 -0.427884 -1.72938e-21)
(0.591163 -0.318075 1.71157e-21)
(0.571652 -0.142677 -1.37518e-21)
(0.60887 0.0469925 1.71371e-21)
(0.672117 0.229101 -1.24875e-22)
(0.725686 0.378936 0)
(0.733823 0.50914 -1.52754e-22)
(0.716842 0.568385 6.92198e-22)
(0.6829 0.501451 0)
(0.673505 0.30932 4.1202e-21)
(0.693325 0.0430585 -1.56906e-21)
(0.740066 -0.15863 6.31953e-22)
(0.759909 -0.306035 5.04873e-22)
(0.733119 -0.398773 0)
(0.686468 -0.416558 0)
(0.671637 -0.338384 -2.56219e-22)
(0.663056 -0.100736 2.28157e-22)
(0.668988 0.12047 -7.26726e-23)
(0.66019 0.358373 -6.09511e-23)
(0.676873 0.427947 2.03231e-22)
(0.672105 0.285506 2.27838e-22)
(0.679397 0.136934 -5.70843e-22)
(0.610857 -0.210234 0)
(0.580261 -0.337716 -1.5353e-22)
(0.588618 -0.0714988 1.73271e-23)
(1.19777 -0.477756 7.27024e-20)
(1.21211 -0.587748 -7.19518e-20)
(1.20616 -0.661593 4.99239e-22)
(1.15866 -0.700861 -3.78358e-22)
(1.08456 -0.708452 3.46571e-22)
(1.00414 -0.694745 -2.78711e-22)
(0.926228 -0.669584 4.14507e-22)
(0.855947 -0.636114 0)
(0.78747 -0.603679 -2.6657e-22)
(0.719405 -0.569798 2.16104e-22)
(0.660348 -0.52532 1.78727e-22)
(0.597862 -0.48896 -1.9177e-22)
(0.5128 -0.473487 0)
(0.421013 -0.43815 0)
(0.362273 -0.32553 1.35367e-22)
(0.358315 -0.132607 0)
(0.405007 0.0862773 -1.28692e-22)
(0.480246 0.282078 0)
(0.56225 0.426437 -6.26896e-21)
(0.641757 0.509283 1.15957e-20)
(0.718562 0.533579 -1.07109e-20)
(0.788967 0.535631 5.29803e-21)
(0.847827 0.574841 7.50598e-21)
(0.890644 0.669988 -7.28592e-21)
(0.922997 0.752733 -1.3438e-20)
(0.954559 0.719473 1.31781e-20)
(0.991461 0.521745 0)
(1.02521 0.200632 6.24873e-22)
(1.04363 -0.144128 0)
(1.03655 -0.403984 0)
(1.00595 -0.526537 9.59791e-21)
(0.961424 -0.548017 -1.00409e-20)
(0.910278 -0.528223 3.28928e-22)
(0.855393 -0.494377 2.3759e-22)
(0.780597 -0.454005 -1.39065e-22)
(0.684907 -0.402425 -1.12116e-21)
(0.606194 -0.310465 1.0885e-21)
(0.581633 -0.158284 -1.28431e-21)
(0.617418 0.0165148 1.07505e-21)
(0.680904 0.198336 2.0747e-22)
(0.738845 0.359868 -1.00314e-21)
(0.753137 0.503922 -6.36681e-22)
(0.742475 0.578122 1.00013e-21)
(0.714185 0.517709 0)
(0.706776 0.320811 -1.74617e-21)
(0.723144 0.0442208 2.40163e-21)
(0.766591 -0.163991 -3.16111e-21)
(0.787733 -0.301864 -5.08249e-22)
(0.75883 -0.389057 0)
(0.702927 -0.408867 8.44386e-23)
(0.683252 -0.340179 -2.59869e-22)
(0.673563 -0.105576 -3.51295e-23)
(0.6814 0.11646 5.86683e-23)
(0.675292 0.354223 1.3477e-22)
(0.695477 0.429155 -1.79187e-22)
(0.691695 0.286755 0)
(0.702187 0.144325 5.71181e-22)
(0.633517 -0.196479 0)
(0.59397 -0.338291 0)
(0.607892 -0.0735416 -8.02379e-24)
(1.31573 -0.463998 -6.46153e-20)
(1.29731 -0.542475 6.35051e-20)
(1.2638 -0.58961 -3.94715e-22)
(1.20104 -0.615455 3.87903e-22)
(1.12323 -0.624172 0)
(1.04628 -0.619171 0)
(0.972039 -0.606111 -4.24733e-22)
(0.901602 -0.58401 0)