/*--------------------------------*- C++ -*----------------------------------*\
| =========                 |                                                 |
| \\      /  F ield         | OpenFOAM: The Open Source CFD Toolbox           |
|  \\    /   O peration     | Version:  2312                                  |
|   \\  /    A nd           | Website:  www.openfoam.com                      |
|    \\/     M anipulation  |                                                 |
\*---------------------------------------------------------------------------*/
FoamFile
{
    version     2.0;
    format      ascii;
    arch        "LSB;label=32;scalar=64";
    class       volScalarField;
    location    "101";
    object      p;
}
// * * * * * * * * * * * * * * * * * * * * * * * * * * * * * * * * * * * * * //

dimensions      [0 2 -2 0 0 0 0];

internalField   nonuniform List<scalar> 
5478
(
-0.554127
-0.552219
-0.552122
-0.553495
-0.554126
-0.549652
-0.535597
-0.509453
-0.471819
-0.425932
-0.376102
-0.325838
-0.277822
-0.23254
-0.19024
-0.56164
-0.55763
-0.554547
-0.551547
-0.54591
-0.533581
-0.511966
-0.480835
-0.442252
-0.399461
-0.355472
-0.312423
-0.271689
-0.233241
-0.198113
-0.571553
-0.56567
-0.559346
-0.551046
-0.537538
-0.516606
-0.488149
-0.453739
-0.415747
-0.376466
-0.337522
-0.300058
-0.264554
-0.231359
-0.200505
-0.585763
-0.577349
-0.567023
-0.551743
-0.529006
-0.49966
-0.465864
-0.429697
-0.392806
-0.356333
-0.321061
-0.287455
-0.255833
-0.226355
-0.199111
-0.604913
-0.592158
-0.57675
-0.552456
-0.519887
-0.483256
-0.44557
-0.408338
-0.372265
-0.337748
-0.304994
-0.274165
-0.245254
-0.218437
-0.193388
-0.628011
-0.609151
-0.586127
-0.551045
-0.509114
-0.466526
-0.425859
-0.387723
-0.352115
-0.318911
-0.28802
-0.259314
-0.232714
-0.208116
-0.184938
-0.650771
-0.626156
-0.591547
-0.544648
-0.494574
-0.447307
-0.404341
-0.365507
-0.330255
-0.29814
-0.268796
-0.241953
-0.217364
-0.194859
-0.173796
-0.667144
-0.637743
-0.589098
-0.530635
-0.473899
-0.423102
-0.378585
-0.339452
-0.304749
-0.273769
-0.245967
-0.220929
-0.198398
-0.178115
-0.159568
-0.439777
-0.442272
-0.444168
-0.44854
-0.455894
-0.466204
-0.479308
-0.4948
-0.512059
-0.530408
-0.549059
-0.566913
-0.582201
-0.592559
-0.595297
-0.447356
-0.451729
-0.455254
-0.460997
-0.469122
-0.478859
-0.489061
-0.498199
-0.504707
-0.507478
-0.505947
-0.499787
-0.489022
-0.474508
-0.454397
-0.460287
-0.466028
-0.471278
-0.478807
-0.488361
-0.498432
-0.506816
-0.510673
-0.507209
-0.49457
-0.472029
-0.439707
-0.398937
-0.354245
-0.303214
-0.478239
-0.484415
-0.491062
-0.500464
-0.511764
-0.522843
-0.530476
-0.530477
-0.518883
-0.493298
-0.453074
-0.399688
-0.332839
-0.267631
-0.185988
-0.498563
-0.504691
-0.512463
-0.522945
-0.535259
-0.546901
-0.553704
-0.550138
-0.531908
-0.496571
-0.44219
-0.377705
-0.296543
-0.224028
-0.137014
-0.518149
-0.52304
-0.53051
-0.541026
-0.553116
-0.563466
-0.568678
-0.560315
-0.535648
-0.492551
-0.433422
-0.363994
-0.286182
-0.213819
-0.142663
-0.534266
-0.537101
-0.542996
-0.551742
-0.561349
-0.568563
-0.568241
-0.554624
-0.524542
-0.477857
-0.419084
-0.353309
-0.286187
-0.223193
-0.165275
-0.545888
-0.546346
-0.549521
-0.554714
-0.560369
-0.562435
-0.555666
-0.535763
-0.501085
-0.453744
-0.398565
-0.340328
-0.283825
-0.231071
-0.183723
-0.578084
-0.482598
-0.344968
-0.26732
-0.239588
-0.264152
-0.288624
-0.245758
-0.178775
-0.14263
-0.125541
-0.108272
-0.101035
-0.120224
-0.14203
-0.136781
-0.112749
-0.0980198
-0.117805
-0.13541
-0.126269
-0.102726
-0.121152
-0.1301
-0.14436
-0.167563
-0.180643
-0.101673
-0.083603
-0.0525164
-0.0331003
-0.0138692
-0.00367106
-0.00706031
-0.000923397
-3.08549e-05
-0.00150876
-0.000306636
-0.422811
-0.369407
-0.287945
-0.255923
-0.256067
-0.300247
-0.331203
-0.273634
-0.192322
-0.144057
-0.124631
-0.106173
-0.0948288
-0.114533
-0.138067
-0.133191
-0.108724
-0.0900116
-0.108463
-0.126451
-0.122325
-0.110512
-0.134092
-0.141762
-0.14481
-0.144875
-0.150273
-0.108221
-0.0946732
-0.0547656
-0.032551
-0.0150168
-0.00487686
-0.00684541
-0.00161091
-0.000386596
-0.00135002
-0.000268362
-0.258664
-0.221448
-0.192059
-0.207203
-0.244885
-0.32011
-0.351825
-0.286989
-0.199433
-0.142959
-0.122834
-0.107984
-0.0933654
-0.111456
-0.134346
-0.129418
-0.10407
-0.0820635
-0.0987132
-0.117044
-0.116721
-0.116266
-0.144838
-0.151445
-0.141915
-0.122171
-0.118053
-0.111285
-0.103129
-0.0564818
-0.0316455
-0.0161893
-0.00612422
-0.00668619
-0.0023351
-0.000700939
-0.00120928
-0.000235858
-0.121006
-0.0668277
-0.0545613
-0.113186
-0.207863
-0.317698
-0.349158
-0.285075
-0.199728
-0.140515
-0.119959
-0.110329
-0.0963682
-0.112631
-0.132485
-0.126365
-0.0993584
-0.0749234
-0.0890277
-0.107652
-0.109433
-0.119416
-0.152519
-0.15889
-0.136928
-0.101886
-0.0870808
-0.110739
-0.108252
-0.0579089
-0.0305773
-0.0173434
-0.00734428
-0.00665758
-0.0030851
-0.000949787
-0.00108496
-0.000212717
-0.0509165
0.0231316
0.0654621
-0.00912505
-0.146663
-0.283705
-0.322028
-0.265878
-0.191919
-0.136512
-0.115941
-0.10868
-0.101608
-0.118196
-0.133751
-0.122895
-0.0944392
-0.0691499
-0.0804495
-0.0984878
-0.100853
-0.119863
-0.156828
-0.164174
-0.131505
-0.0853532
-0.059238
-0.107322
-0.109622
-0.0590599
-0.0295512
-0.0184296
-0.00845015
-0.00682438
-0.00385635
-0.00111887
-0.000972155
-0.00020204
-0.0610574
0.0333037
0.114013
0.0642384
-0.0850338
-0.227731
-0.275371
-0.23436
-0.175856
-0.130976
-0.110568
-0.100939
-0.10619
-0.123238
-0.137578
-0.12281
-0.0915738
-0.065007
-0.0726551
-0.0894196
-0.0906786
-0.117175
-0.157818
-0.167505
-0.127149
-0.074034
-0.0368684
-0.101664
-0.107681
-0.0600295
-0.0286733
-0.0194211
-0.00936312
-0.00723853
-0.00465538
-0.00120521
-0.000863571
-0.000205792
-0.0956524
-0.0146975
0.0989227
0.0953093
-0.0169639
-0.161176
-0.22028
-0.204729
-0.16156
-0.126981
-0.106143
-0.0913741
-0.104529
-0.127
-0.141104
-0.120265
-0.0877428
-0.0617592
-0.0669735
-0.081268
-0.078872
-0.110385
-0.155785
-0.167208
-0.122064
-0.0664097
-0.0196351
-0.0939334
-0.103125
-0.0603478
-0.0282873
-0.0203895
-0.0100244
-0.00792269
-0.00549653
-0.00122379
-0.000751917
-0.000224535
-0.129886
-0.0714196
0.00880727
0.0625854
0.0218095
-0.0796605
-0.143859
-0.152664
-0.134926
-0.11394
-0.100725
-0.0833571
-0.0927574
-0.12644
-0.146934
-0.122911
-0.0876904
-0.0600047
-0.0609914
-0.0729569
-0.0674117
-0.100876
-0.150677
-0.167479
-0.118248
-0.0648185
-0.00560499
-0.0846682
-0.102513
-0.0607996
-0.0279702
-0.0210126
-0.0104268
-0.00886685
-0.00636069
-0.00130326
-0.000636314
-0.000259506
-0.127052
-0.0848908
-0.0193638
0.0326912
0.0190617
-0.0485812
-0.0972875
-0.114698
-0.106301
-0.0907242
-0.0826462
-0.0728821
-0.0797348
-0.113547
-0.125005
-0.113508
-0.0827854
-0.0585534
-0.0599171
-0.0680676
-0.0585574
-0.0936186
-0.141141
-0.157762
-0.108862
-0.0637694
-0.0121375
-0.0754292
-0.0887862
-0.0598799
-0.0291964
-0.0218331
-0.0103415
-0.0103093
-0.00758287
-0.00114813
-0.000467795
-0.000321062
-0.116308
-0.0834821
-0.0369937
-0.00299017
-0.00168811
-0.0342197
-0.0641004
-0.0766827
-0.0725963
-0.0651586
-0.0616978
-0.0534049
-0.0606164
-0.103303
-0.130941
-0.10427
-0.0715003
-0.0514617
-0.0531712
-0.0549699
-0.0420075
-0.0754631
-0.128406
-0.144602
-0.0934365
-0.0457641
-0.00400206
-0.0631651
-0.0867901
-0.0573488
-0.0289987
-0.022929
-0.010781
-0.0123494
-0.00918341
-0.000981747
-0.000249992
-0.000399444
-0.0982043
-0.0794236
-0.0507097
-0.0261798
-0.016953
-0.0281161
-0.0445914
-0.0530716
-0.0541535
-0.0484103
-0.0452909
-0.0365033
-0.0296595
-0.057822
-0.0800193
-0.0751077
-0.0541683
-0.044166
-0.0461608
-0.04275
-0.0273038
-0.0514312
-0.0999097
-0.117021
-0.0657376
-0.0229979
0.00148952
-0.0487549
-0.0662684
-0.0509623
-0.0285208
-0.024258
-0.0109038
-0.0146559
-0.0111857
-0.000855375
1.34847e-05
-0.000476507
-0.0806458
-0.0719875
-0.0539295
-0.0362628
-0.0263293
-0.0269563
-0.0331085
-0.0359827
-0.034021
-0.0284526
-0.0216591
-0.0143983
-0.00352318
-0.0110583
-0.0190779
-0.033591
-0.0372068
-0.0358235
-0.0342412
-0.0264136
-0.00975206
-0.0236567
-0.0624752
-0.0824669
-0.0386567
-0.00225052
0.0202732
-0.0297685
-0.0521277
-0.0434723
-0.0282942
-0.0253852
-0.0106977
-0.017296
-0.0135773
-0.000838714
0.000266103
-0.000550301
-0.0654224
-0.0619933
-0.0510649
-0.0389488
-0.0298504
-0.0256698
-0.0257884
-0.0252646
-0.0237556
-0.0188942
-0.0115622
-0.00170691
0.0174
0.0290538
0.0260466
0.00112768
-0.0193593
-0.0217709
-0.0209084
-0.0134545
0.000958708
0.00415802
-0.017427
-0.0458656
-0.020025
0.0118999
0.0017202
-0.0101669
-0.0279676
-0.0330112
-0.0275753
-0.0257932
-0.0105747
-0.0201223
-0.0162055
-0.000973305
0.000408075
-0.000622967
-0.0518247
-0.051245
-0.0453574
-0.0369517
-0.0291629
-0.0235773
-0.0209817
-0.0178543
-0.0138584
-0.00780517
0.00149855
0.010093
0.0256608
0.0403321
0.0406425
0.0194753
-0.0030457
-0.00762812
-0.00658668
0.000879354
0.0104699
0.0153729
0.00855525
-0.0252378
-0.0177324
0.0174412
0.010495
0.00983426
-0.00457518
-0.0187757
-0.025529
-0.0236779
-0.00992835
-0.0227225
-0.0192271
-0.00135176
0.0003968
-0.000695718
-0.0397257
-0.04066
-0.0372838
-0.0318408
-0.0258497
-0.0204186
-0.0163001
-0.0121557
-0.00802013
-0.00293043
0.00431061
0.0123648
0.0257314
0.0379896
0.0393469
0.0252377
0.00852429
0.0037792
0.00245168
0.00743952
0.0140767
0.0201227
0.0207776
-0.0114684
-0.0150422
0.0158563
0.0140291
0.0240991
0.0167763
-0.00409821
-0.0218905
-0.0182083
-0.00771836
-0.0241702
-0.0229411
-0.00223376
9.6822e-05
-0.000730624
-0.0297425
-0.0312678
-0.0296026
-0.0259153
-0.0213357
-0.0166446
-0.0125334
-0.00839025
-0.00424864
0.000700147
0.00738441
0.0144154
0.0231633
0.0302208
0.032918
0.0246686
0.0137472
0.00995197
0.00905052
0.0130423
0.0168753
0.0184943
0.018049
-0.000156341
-0.00629483
0.0140532
0.0175024
0.0287691
0.0225637
0.00566193
-0.0160699
-0.0103337
-0.00433499
-0.0226594
-0.0236203
-0.00342925
-0.00067497
-0.000730861
-0.0213285
-0.0229947
-0.0223071
-0.019844
-0.016407
-0.0126049
-0.00894024
-0.00514906
-0.00135534
0.00285034
0.00775334
0.0129148
0.0189903
0.0236335
0.0260737
0.0222506
0.0157748
0.0133713
0.0117047
0.0137995
0.0161938
0.0166859
0.0169182
0.00776525
0.00188996
0.0130765
0.0173304
0.0267687
0.0240287
0.0111834
-0.00670823
-0.00241643
0.000116974
-0.0170182
-0.0187484
-0.00336942
-0.00142056
-0.000699677
-0.0143863
-0.0159546
-0.0157159
-0.0140408
-0.0115547
-0.00865615
-0.00570238
-0.00256153
0.000539007
0.00387644
0.00763674
0.0115738
0.0158479
0.0189161
0.0207343
0.0194672
0.0159064
0.014398
0.0137403
0.0148696
0.0160727
0.0155599
0.0151368
0.0111901
0.00764574
0.0138878
0.0170349
0.0230719
0.0227294
0.0140226
0.00120875
0.00337319
0.00364683
-0.0089536
-0.0102872
-0.00154078
-0.00100759
-0.000506328
-0.00871576
-0.0099987
-0.00998814
-0.00892447
-0.00720289
-0.00506828
-0.00278264
-0.000334344
0.00211017
0.00467183
0.00748185
0.0103049
0.0132687
0.0154194
0.0168468
0.0168941
0.0153201
0.0145297
0.0139507
0.0144044
0.0149167
0.0145514
0.0146838
0.0126844
0.0105741
0.0140447
0.0160235
0.019687
0.0204789
0.0147673
0.00603085
0.00659226
0.0059172
-0.00240368
-0.00351101
0.000924237
0.000667945
-8.7647e-05
-0.00400287
-0.00507306
-0.00521958
-0.0045553
-0.00335716
-0.0018258
-0.000144502
0.00165778
0.00348389
0.00535859
0.00738639
0.0094235
0.011518
0.0131692
0.0142796
0.0148018
0.0143613
0.0140382
0.0139253
0.0141851
0.0144142
0.0140998
0.0140705
0.0132188
0.0121331
0.0141267
0.0153794
0.0170625
0.0178388
0.0143127
0.00873975
0.00806735
0.00683823
0.00173594
0.000644425
0.0025674
0.0018842
0.00028881
-0.000226019
-0.00109282
-0.00127251
-0.000869108
-8.2856e-05
0.000961043
0.00214879
0.00343218
0.00474333
0.00607953
0.00750551
0.00896394
0.0104337
0.0116674
0.0125772
0.013204
0.0133549
0.0133921
0.0133967
0.0135897
0.0137112
0.0135094
0.0135289
0.0132081
0.0126578
0.0137158
0.0144935
0.0151063
0.01552
0.0133388
0.00976022
0.00845334
0.00703169
0.00370086
0.00224983
0.00321419
0.00243603
0.000527864
0.00281984
0.00215146
0.00196149
0.00217523
0.00266176
0.0033399
0.00415112
0.00504348
0.00594446
0.00685315
0.00782394
0.00884929
0.00988563
0.0107973
0.0115459
0.0121309
0.0125013
0.0126998
0.0128328
0.0130425
0.0131641
0.0130824
0.0130898
0.0129649
0.0127567
0.013266
0.0136098
0.0137386
0.0137389
0.0122541
0.009895
0.00846525
0.00700881
0.00457972
0.00311084
0.00328564
0.00247628
0.000650086
0.00529134
0.00476644
0.00457141
0.00465756
0.00493551
0.00535181
0.0058721
0.0064559
0.00705335
0.00765257
0.00829092
0.00898213
0.0097011
0.0103535
0.0109361
0.011431
0.0118304
0.0121091
0.0122938
0.0124949
0.0126214
0.0125941
0.012627
0.0125667
0.012455
0.0126074
0.0126868
0.0125587
0.0123511
0.0112154
0.00949134
0.00824884
0.00686795
0.00492735
0.00341989
0.00308909
0.00229718
0.000697232
0.00725466
0.00684755
0.00666369
0.00666754
0.00679941
0.00702725
0.00733623
0.00769654
0.00806964
0.00844098
0.00884075
0.00928633
0.00976297
0.0102133
0.0106357
0.0110178
0.0113635
0.0116262
0.0118157
0.0119897
0.0121243
0.0121311
0.012152
0.0121063
0.0120095
0.0120185
0.0119274
0.0116407
0.0113138
0.0104458
0.00906499
0.00798925
0.00670572
0.00509301
0.00361517
0.00291197
0.00206983
0.000700297
0.00881273
0.00849859
0.00832678
0.00827505
0.00830679
0.0084055
0.00856524
0.00876297
0.00897085
0.00917635
0.00940432
0.00967208
0.00997105
0.0102588
0.0105348
0.0108037
0.0110638
0.0112687
0.0114311
0.0115627
0.0116731
0.011683
0.0116815
0.0116357
0.0115234
0.0114166
0.0112376
0.0108811
0.0104645
0.0097511
0.00861021
0.00765817
0.00651956
0.00512194
0.00375292
0.00278708
0.00187147
0.000664717
0.0100347
0.00978921
0.0096302
0.00954487
0.00951154
0.00952253
0.00957715
0.00965915
0.00975029
0.00983957
0.00994659
0.0100836
0.0102472
0.0104094
0.0105704
0.0107304
0.0108898
0.0110259
0.0111376
0.0112184
0.0112857
0.0112775
0.0112468
0.0111702
0.0110376
0.0108612
0.0106348
0.0102652
0.00979363
0.00918286
0.00823082
0.0073575
0.00633597
0.0051217
0.00387696
0.00276086
0.00175523
0.000631642
0.0109757
0.0107811
0.0106344
0.0105297
0.0104546
0.0104077
0.0103906
0.0103927
0.0104027
0.0104113
0.0104335
0.0104762
0.0105396
0.010607
0.0106782
0.0107562
0.0108401
0.0108916
0.0109348
0.0109562
0.0109698
0.0109242
0.0108619
0.0107487
0.010597
0.0103795
0.0101142
0.00974743
0.00926448
0.00871369
0.00789984
0.00708623
0.00616489
0.00511158
0.00401279
0.00282717
0.00171272
0.000603874
0.0116794
0.0115199
0.0113847
0.0112697
0.0111706
0.0110872
0.011023
0.0109713
0.0109257
0.0108801
0.0108435
0.0108205
0.0108104
0.0108052
0.0108035
0.0108089
0.0108156
0.0108091
0.0107946
0.0107635
0.010726
0.0106412
0.010543
0.0103963
0.0102181
0.0099746
0.00968033
0.0093161
0.00883912
0.00831974
0.00760375
0.00684647
0.00601116
0.0050595
0.00407724
0.00291501
0.00175922
0.000605866
0.0121888
0.0120519
0.0119245
0.0118043
0.0116915
0.0115864
0.011492
0.0114052
0.0113223
0.0112411
0.0111648
0.0110968
0.0110358
0.010978
0.0109244
0.010874
0.010826
0.0107677
0.0107042
0.0106283
0.0105447
0.010427
0.0102942
0.0101183
0.00991461
0.00965731
0.00934226
0.00897703
0.00850873
0.0079909
0.00734576
0.00662531
0.0058219
0.00493382
0.00398497
0.00286999
0.0017276
0.000585352
0.0125243
0.0124007
0.0122779
0.0121561
0.0120363
0.0119192
0.011807
0.0116983
0.011593
0.0114893
0.0113893
0.0112926
0.0111994
0.0111076
0.011019
0.0109316
0.0108462
0.0107515
0.0106541
0.0105419
0.0104261
0.0102816
0.0101214
0.00992526
0.00969761
0.00942976
0.00910333
0.00873282
0.00827099
0.00776077
0.00714693
0.00645612
0.00568587
0.00482014
0.00389465
0.00285353
0.00173801
0.000591483
0.012691
0.0125742
0.0124546
0.0123328
0.0122107
0.0120888
0.0119688
0.0118501
0.0117342
0.0116198
0.0115083
0.0113975
0.0112886
0.0111794
0.0110732
0.0109659
0.0108602
0.0107464
0.0106294
0.0104988
0.0103629
0.0102048
0.0100287
0.00982096
0.00958038
0.00930469
0.00897329
0.0085983
0.00814326
0.00763256
0.00703736
0.00636076
0.0056042
0.00476112
0.00384651
0.00282874
0.00172841
0.000585976
-0.136068
-0.145517
-0.153338
-0.158637
-0.161414
-0.157582
-0.150869
-0.138376
-0.109922
-0.115063
-0.118759
-0.120792
-0.120769
-0.119691
-0.11822
-0.120613
-0.0866404
-0.0895503
-0.0909901
-0.092695
-0.093669
-0.0965685
-0.0975831
-0.100896
-0.0685601
-0.0701885
-0.0711464
-0.0731876
-0.0745907
-0.0769604
-0.0770091
-0.0787607
-0.0534943
-0.0547377
-0.0555178
-0.0568245
-0.0573128
-0.0580821
-0.0582744
-0.0611653
-0.0414015
-0.042032
-0.0423156
-0.0427769
-0.0430187
-0.0438796
-0.0451711
-0.0480248
-0.031261
-0.0315064
-0.0315823
-0.0318463
-0.0322554
-0.0330821
-0.0341724
-0.0363243
-0.0229642
-0.0229881
-0.0229556
-0.0230564
-0.0233484
-0.0239269
-0.0248403
-0.0267052
-0.016071
-0.0159755
-0.0158549
-0.0158681
-0.0160902
-0.016535
-0.0172787
-0.0188145
-0.0103467
-0.0102259
-0.0100922
-0.0100596
-0.010163
-0.0104451
-0.0110318
-0.012316
-0.00557649
-0.00546063
-0.00531036
-0.00522393
-0.00526775
-0.0055202
-0.0060495
-0.00709541
-0.0015847
-0.00150043
-0.00138862
-0.00133667
-0.00139803
-0.00160139
-0.00198431
-0.00275719
0.00170237
0.00173162
0.00178754
0.00182036
0.00179549
0.0016724
0.00138286
0.000765844
0.00442705
0.00441104
0.0044253
0.00443483
0.004402
0.00428639
0.00404112
0.00356598
0.0066456
0.00658859
0.00655635
0.00652752
0.00647741
0.00637941
0.00619565
0.00584816
0.0084284
0.00834329
0.00827951
0.00822683
0.00816837
0.00808169
0.00793471
0.00767265
0.0098517
0.0097504
0.00966568
0.00959344
0.00952254
0.00943769
0.00931608
0.00912105
0.0109674
0.010859
0.0107625
0.0106778
0.0105984
0.0105152
0.0104119
0.0102645
0.0118253
0.0117167
0.0116158
0.0115246
0.01144
0.0113571
0.0112652
0.01115
0.0124646
0.0123589
0.0122584
0.0121651
0.0120783
0.0119955
0.0119108
0.0118158
0.0129194
0.0128198
0.0127237
0.0126327
0.0125468
0.012465
0.0123849
0.0123016
0.0132141
0.0131208
0.0130307
0.0129441
0.0128607
0.0127806
0.0127025
0.0126251
0.0133563
0.0132685
0.0131833
0.0131
0.0130185
0.012939
0.0128617
0.0127862
0.0309342
0.0330073
0.0343361
0.034648
0.0333999
0.0304394
0.0255899
0.0183
0.00759814
-0.00791338
-0.0301851
-0.0619624
-0.107704
-0.170633
-0.228929
0.00537848
0.00471155
0.001815
-0.00255893
-0.00829311
-0.0157705
-0.0255783
-0.0385227
-0.0557048
-0.0786303
-0.109383
-0.150713
-0.207124
-0.282364
-0.34666
-0.0201763
-0.0236981
-0.0306258
-0.0392024
-0.0490552
-0.0608062
-0.0752968
-0.0934683
-0.116505
-0.14601
-0.184236
-0.234024
-0.298814
-0.384934
-0.448029
-0.0466283
-0.0531849
-0.0633714
-0.0751094
-0.0883109
-0.103811
-0.1225
-0.145312
-0.173451
-0.208551
-0.252901
-0.309853
-0.381352
-0.470989
-0.531307
-0.0729367
-0.0826421
-0.0953609
-0.109521
-0.125498
-0.144236
-0.166517
-0.193169
-0.225466
-0.265055
-0.313933
-0.375851
-0.451566
-0.53936
-0.595061
-0.0977398
-0.110666
-0.125437
-0.141625
-0.160052
-0.181568
-0.206826
-0.236516
-0.271922
-0.31465
-0.366816
-0.431008
-0.507325
-0.590034
-0.63893
-0.120626
-0.135976
-0.152462
-0.170743
-0.191545
-0.215455
-0.243072
-0.275137
-0.31271
-0.357268
-0.410708
-0.474656
-0.548322
-0.622689
-0.664033
-0.141755
-0.158292
-0.176552
-0.196999
-0.220007
-0.245995
-0.275494
-0.309197
-0.347975
-0.393084
-0.445997
-0.50751
-0.575299
-0.638058
-0.672676
0.18555
0.200222
0.216661
0.235257
0.256067
0.279005
0.303993
0.330985
0.359901
0.390489
0.422165
0.453751
0.483239
0.506574
0.525767
0.180163
0.193794
0.209352
0.227193
0.247227
0.269267
0.293203
0.318987
0.346531
0.375553
0.405419
0.434886
0.461853
0.482291
0.498627
0.170595
0.182402
0.196438
0.212951
0.231582
0.251955
0.273884
0.297292
0.322047
0.347794
0.3738
0.398701
0.420206
0.43444
0.444836
0.156828
0.166236
0.178294
0.192961
0.209519
0.227403
0.24638
0.266344
0.287087
0.308115
0.328514
0.346721
0.360135
0.365004
0.366984
0.138987
0.145652
0.15552
0.168046
0.182014
0.196671
0.211779
0.227245
0.242801
0.257805
0.27112
0.280925
0.284244
0.277183
0.268654
0.117301
0.120885
0.128395
0.138531
0.149532
0.160506
0.171206
0.181508
0.191041
0.199001
0.204037
0.204078
0.195775
0.175031
0.153655
0.0924278
0.0933016
0.0986373
0.105896
0.113151
0.119727
0.125484
0.130189
0.133239
0.133603
0.129701
0.1192
0.098419
0.0632098
0.0281319
0.063451
0.0630498
0.0671721
0.0714492
0.0745019
0.076193
0.0765649
0.0752571
0.0714406
0.0638574
0.0507106
0.0293976
-0.00414824
-0.0538021
-0.101839
0.0273821
0.0318076
0.0281239
0.0320386
0.0295851
0.0338594
0.0320901
0.0364509
0.0357911
0.0402276
0.0409711
0.0457479
0.0481959
0.0537673
0.0583988
0.0655953
0.0729238
0.0827776
0.0937101
0.107557
0.123349
0.142789
0.165153
0.0273703
0.0317612
0.0281168
0.0319812
0.0295833
0.0337859
0.0320679
0.036357
0.0357588
0.0400942
0.0408859
0.0456002
0.0480109
0.0535349
0.0581436
0.0651901
0.0724177
0.0820985
0.0926419
0.106194
0.121259
0.140081
0.161205
0.0273688
0.0316894
0.0281277
0.0318954
0.0295978
0.0336784
0.0320934
0.0362291
0.0357543
0.0399361
0.0408389
0.0454237
0.0478632
0.0531974
0.0577853
0.0645763
0.0715802
0.0810229
0.0909347
0.10399
0.117837
0.135544
0.154302
0.0273764
0.031594
0.0281553
0.0317854
0.0296444
0.0335404
0.0321374
0.0360772
0.0357846
0.0397563
0.0408135
0.0452525
0.0477334
0.0530118
0.0575387
0.0641686
0.0708692
0.0801175
0.0891332
0.101485
0.11348
0.129347
0.144384
0.0273923
0.0314788
0.028193
0.031654
0.0296927
0.0333796
0.0321978
0.0359049
0.0358274
0.0395473
0.0407919
0.0450051
0.0475154
0.0525181
0.0570041
0.0633
0.0696467
0.0782941
0.0863493
0.0976084
0.107476
0.120957
0.131285
0.0274131
0.0313474
0.0282443
0.0315054
0.0297659
0.0332085
0.0322762
0.0357399
0.035899
0.0393768
0.0408426
0.0448808
0.0475097
0.0525189
0.0568338
0.0630768
0.0689132
0.0771505
0.0839336
0.0938486
0.100725
0.110937
0.115155
0.027443
0.0312019
0.0282996
0.0313483
0.0298441
0.033026
0.032346
0.0355469
0.0359427
0.0391509
0.0407901
0.0445564
0.0471971
0.051867
0.0561042
0.0617308
0.0672313
0.0743199
0.0801515
0.0880802
0.0924126
0.0986099
0.0964688
0.027471
0.0310488
0.0283561
0.0311912
0.029931
0.0328735
0.0324541
0.0354297
0.0360565
0.0391045
0.0409547
0.0446315
0.0474194
0.0522066
0.05606
0.0617744
0.0666121
0.0731236
0.0771496
0.0829222
0.0830106
0.0843104
0.0739313
0.0275016
0.0308416
0.0284345
0.0309566
0.0300178
0.0325763
0.032494
0.0351272
0.0360385
0.0386871
0.0407138
0.0439502
0.0466973
0.0508395
0.054479
0.0589392
0.0632361
0.0672013
0.0701208
0.0715399
0.0689154
0.0619646
0.0456794
0.027548
0.0305516
0.0285376
0.0306286
0.0300952
0.0321526
0.0324947
0.0344911
0.0358095
0.0379135
0.0400428
0.0426426
0.0453072
0.0485574
0.0516857
0.0546599
0.0577513
0.0593533
0.0603004
0.0580802
0.0535578
0.0438659
0.0308577
0.0276184
0.0301894
0.028664
0.03023
0.0301965
0.0316407
0.0324746
0.0338816
0.0355047
0.0371206
0.0392727
0.0412674
0.0437564
0.0460914
0.0485552
0.0503091
0.0519635
0.0519013
0.0507403
0.0467524
0.0406639
0.0311307
0.0191992
0.0277134
0.0297452
0.0288166
0.0297707
0.0302697
0.0311597
0.0323506
0.0333126
0.0350375
0.0362778
0.0383038
0.0397643
0.0419408
0.0434234
0.0450691
0.045846
0.0459912
0.0446744
0.0419362
0.0369377
0.0302058
0.0212243
0.0106388
0.0278364
0.0292134
0.0289563
0.0293539
0.0302256
0.0307263
0.0321085
0.0327382
0.0343975
0.0353871
0.0370906
0.0381426
0.0398306
0.0405949
0.0413269
0.0413073
0.0401863
0.0379011
0.0342591
0.0289121
0.0222605
0.0141005
0.00484728
0.0279838
0.0286517
0.0289928
0.0289987
0.0300978
0.0303081
0.0317355
0.0321437
0.0335958
0.0344155
0.0356797
0.0363683
0.0375083
0.0376188
0.0375264
0.0368131
0.0348378
0.0318994
0.0279362
0.0226968
0.016488
0.00923426
0.00109159
0.0281127
0.0281187
0.0289104
0.0286889
0.0298658
0.0299006
0.0312209
0.0315364
0.032658
0.0333292
0.0341187
0.0344521
0.0350546
0.0345879
0.0338268
0.0325598
0.030115
0.0268668
0.0228891
0.0180342
0.0124546
0.00612024
-0.0009898
0.0281965
0.0276302
0.0287276
0.0284058
0.0295194
0.0294875
0.0305766
0.0308405
0.031615
0.0321098
0.0324583
0.0324338
0.0325467
0.0316265
0.0303695
0.0287074
0.0261031
0.0228221
0.0190134
0.0146713
0.0098063
0.00439935
-0.00164311
0.0282048
0.0272084
0.0284326
0.0281331
0.0290643
0.0290536
0.0298343
0.0300541
0.0304995
0.0307697
0.0307404
0.0303855
0.0300734
0.0288331
0.0272594
0.0253781
0.0228088
0.0196962
0.0161947
0.0124073
0.00828761
0.00379997
-0.00120205
0.0281208
0.026865
0.0280257
0.0278525
0.0285195
0.0285581
0.029034
0.0291672
0.0293289
0.0293462
0.0290094
0.028386
0.0277288
0.0262936
0.0245758
0.0226289
0.0202084
0.0173879
0.0142898
0.0110625
0.00765358
0.00400773
-5.29324e-05
0.0279324
0.0265962
0.0275263
0.0275302
0.0279274
0.0279795
0.0281972
0.0281937
0.0281181
0.0278867
0.027315
0.0264991
0.0255913
0.0240761
0.0223459
0.0204529
0.0182511
0.0157828
0.013131
0.0104386
0.0076629
0.00474353
0.00149469
0.0276353
0.0263869
0.0269709
0.027113
0.0273138
0.0273221
0.0273351
0.0271672
0.0268936
0.0264494
0.0257077
0.0247722
0.0237223
0.0222154
0.0205607
0.018806
0.0168612
0.0147557
0.0125424
0.0103363
0.00810499
0.00579212
0.00322386
0.0272372
0.0262047
0.0264164
0.0265707
0.0266722
0.0266078
0.0264556
0.0261296
0.0256946
0.0250903
0.0242351
0.0232448
0.0221423
0.0207076
0.0191881
0.0176214
0.015944
0.0141793
0.0123631
0.0105808
0.0088041
0.00698504
0.004975
0.0267584
0.0259956
0.0259113
0.0259425
0.0259796
0.0258396
0.0255641
0.0251167
0.0245599
0.0238486
0.0229348
0.0219354
0.0208474
0.0195321
0.0181819
0.0168219
0.0154008
0.013938
0.012462
0.0110337
0.00962585
0.00819811
0.00663088
0.0262254
0.0256885
0.0254457
0.0253391
0.0252598
0.0250296
0.0246676
0.0241461
0.0235188
0.0227522
0.021823
0.0208484
0.0198204
0.0186495
0.0174784
0.0163216
0.0151332
0.0139285
0.0127339
0.0115942
0.0104847
0.00936816
0.00814888
0.0256692
0.0252915
0.0249952
0.0247608
0.0245415
0.0242202
0.0237908
0.0232293
0.0225762
0.0218042
0.0209037
0.0199831
0.019039
0.0180151
0.0170135
0.0160407
0.0150538
0.0140628
0.0130947
0.0121856
0.0113144
0.0104456
0.00950269
0.0251112
0.0248274
0.0245189
0.0241993
0.0238617
0.0234558
0.0229701
0.0223894
0.0217408
0.0209993
0.0201633
0.0193211
0.0184724
0.0175846
0.0167309
0.0159138
0.0150949
0.0142783
0.0134899
0.0127615
0.0120775
0.0114053
0.0106815
0.0245676
0.0243348
0.0240191
0.02365
0.023236
0.0227646
0.0222358
0.0216492
0.0210195
0.0203256
0.0195715
0.0188216
0.0180721
0.017305
0.0165755
0.0158868
0.0152065
0.0145324
0.0138855
0.0132949
0.0127537
0.0122336
0.0116821
0.0240496
0.0238398
0.0235213
0.0231262
0.0226714
0.0221616
0.0216084
0.0210249
0.0204199
0.0197781
0.0191066
0.0184491
0.0177955
0.0171331
0.0165053
0.0159188
0.0153497
0.0147896
0.0142531
0.0137656
0.0133281
0.0129207
0.0125022
0.0235747
0.0233761
0.0230551
0.0226467
0.0221755
0.0216507
0.0210928
0.020523
0.0199433
0.0193477
0.0187466
0.01817
0.0176049
0.0170362
0.0164943
0.0159896
0.0155074
0.0150365
0.0145843
0.0141718
0.0138069
0.0134784
0.0131561
0.0231682
0.022975
0.0226536
0.0222411
0.0217653
0.0212396
0.0206882
0.0201371
0.0195831
0.0190224
0.0184696
0.0179508
0.0174582
0.0169728
0.0165076
0.0160719
0.0156594
0.0152605
0.0148752
0.0145181
0.0142016
0.0139255
0.013672
0.0228565
0.0226651
0.0223457
0.021935
0.0214613
0.0209415
0.0203998
0.019867
0.0193418
0.0188151
0.0182968
0.0178138
0.0173712
0.0169496
0.0165413
0.0161483
0.015773
0.0154148
0.0150743
0.0147592
0.0144779
0.0142336
0.0140177
0.0226874
0.0224985
0.0221766
0.0217618
0.0212864
0.0207682
0.0202299
0.0197059
0.0191986
0.0186931
0.0181951
0.0177323
0.0173171
0.0169325
0.0165594
0.0161951
0.0158466
0.0155189
0.0152131
0.0149304
0.0146746
0.0144501
0.0142568
0.0268493
0.00448753
-0.0213767
-0.0451153
-0.0671268
-0.0878994
-0.10699
-0.123169
0.016139
-0.00469656
-0.0292414
-0.0501096
-0.066244
-0.0801537
-0.0923421
-0.10237
0.00721044
-0.00900407
-0.0292865
-0.0459228
-0.0572416
-0.0664096
-0.0746694
-0.0818246
0.000387341
-0.0125631
-0.0287728
-0.0421166
-0.0506356
-0.0567003
-0.0617783
-0.0660237
-0.00396772
-0.0141594
-0.0263363
-0.036235
-0.0423527
-0.0462019
-0.0492309
-0.0518387
-0.0066589
-0.0145698
-0.0230023
-0.0299607
-0.0344701
-0.0371282
-0.0389919
-0.0404827
-0.00778632
-0.0138174
-0.0191834
-0.0236188
-0.0268077
-0.0287542
-0.029973
-0.0307963
-0.00738912
-0.0118928
-0.0151367
-0.0177635
-0.0199153
-0.0213864
-0.0222827
-0.0227641
-0.00593442
-0.00925778
-0.0111202
-0.0125534
-0.0139297
-0.0150135
-0.0156995
-0.0160081
-0.00387306
-0.00631094
-0.00730562
-0.00798191
-0.00880223
-0.00957169
-0.0101014
-0.0103284
-0.00154301
-0.00332337
-0.00378918
-0.00400695
-0.00444759
-0.00497578
-0.00538421
-0.00556944
0.000841184
-0.000451709
-0.000610153
-0.000570384
-0.000765188
-0.00111155
-0.00141818
-0.00157109
0.00313576
0.00220862
0.00221811
0.00238393
0.00233206
0.00210997
0.00187815
0.00174164
0.00522755
0.00457194
0.00466711
0.00489057
0.00492792
0.00479694
0.00462205
0.00449381
0.00708118
0.00661751
0.00674622
0.0069844
0.00707265
0.00700186
0.006864
0.00673739
0.00869543
0.00836653
0.00849431
0.008711
0.00881078
0.00877227
0.00865954
0.00853622
0.0100754
0.00983918
0.00994422
0.0101182
0.0102047
0.0101793
0.0100838
0.00996651
0.0112315
0.0110586
0.0111297
0.0112507
0.0113084
0.0112808
0.0111941
0.0110829
0.0121716
0.0120425
0.0120777
0.0121444
0.0121663
0.0121269
0.0120426
0.0119371
0.0129119
0.0128106
0.0128123
0.0128299
0.0128156
0.0127598
0.0126734
0.0125716
0.0134879
0.0133991
0.0133663
0.0133378
0.0132877
0.0132127
0.0131205
0.0130208
0.0138668
0.0137839
0.0137289
0.0136708
0.0135966
0.0135074
0.0134099
0.013311
0.0141172
0.0140198
0.0139301
0.0138387
0.0137423
0.0136427
0.0135435
0.0134478
-0.396097
-0.407177
-0.423003
-0.443385
-0.469579
-0.502652
-0.537766
-0.567749
-0.394643
-0.404458
-0.417981
-0.435367
-0.457155
-0.483661
-0.513396
-0.539676
-0.388628
-0.398849
-0.411346
-0.426583
-0.445602
-0.466527
-0.484902
-0.496305
-0.379819
-0.391131
-0.402975
-0.415273
-0.427983
-0.43909
-0.445177
-0.443469
-0.370632
-0.381933
-0.391351
-0.398312
-0.403001
-0.404718
-0.401714
-0.391924
-0.36288
-0.371544
-0.37609
-0.376714
-0.374543
-0.369642
-0.360805
-0.346135
-0.35759
-0.360517
-0.358563
-0.353279
-0.346052
-0.336791
-0.324249
-0.306642
-0.354387
-0.349106
-0.340219
-0.330049
-0.319096
-0.306938
-0.291986
-0.272652
-0.351426
-0.336906
-0.32191
-0.30781
-0.294137
-0.279957
-0.263469
-0.24319
-0.346359
-0.323436
-0.303776
-0.286675
-0.27105
-0.255515
-0.238129
-0.217504
-0.33742
-0.308316
-0.285655
-0.26633
-0.249596
-0.23318
-0.215479
-0.194959
-0.323496
-0.291803