/*--------------------------------*- C++ -*----------------------------------*\
| =========                 |                                                 |
| \\      /  F ield         | OpenFOAM: The Open Source CFD Toolbox           |
|  \\    /   O peration     | Version:  2512                                  |
|   \\  /    A nd           | Website:  www.openfoam.com                      |
|    \\/     M anipulation  |                                                 |
\*---------------------------------------------------------------------------*/
FoamFile
{
    version     2.0;
    format      ascii;
    arch        "LSB;label=32;scalar=64";
    class       volScalarField;
    location    "113.75";
    object      p;
}
// * * * * * * * * * * * * * * * * * * * * * * * * * * * * * * * * * * * * * //

dimensions      [0 2 -2 0 0 0 0];

internalField   nonuniform List<scalar> 
13248
(
-0.571153
-0.569969
-0.566762
-0.562327
-0.557475
-0.55298
-0.549471
-0.54703
-0.545094
-0.542579
-0.538187
-0.530765
-0.519598
-0.50454
-0.485947
-0.464457
-0.440763
-0.415475
-0.389084
-0.362004
-0.334319
-0.306567
-0.277093
-0.246903
-0.580494
-0.578781
-0.575548
-0.571369
-0.566737
-0.562048
-0.55738
-0.552376
-0.546338
-0.538453
-0.528054
-0.514798
-0.498718
-0.480148
-0.45956
-0.437429
-0.414155
-0.390067
-0.365419
-0.340415
-0.315227
-0.289973
-0.264529
-0.239916
-0.592603
-0.589924
-0.586308
-0.581999
-0.577141
-0.571603
-0.56492
-0.55648
-0.545782
-0.532604
-0.517021
-0.499335
-0.479958
-0.459301
-0.437708
-0.41544
-0.392702
-0.369663
-0.34646
-0.323271
-0.300132
-0.277321
-0.254546
-0.231939
-0.607113
-0.603212
-0.598889
-0.594044
-0.588333
-0.581054
-0.571359
-0.558736
-0.543233
-0.525325
-0.505652
-0.484816
-0.463276
-0.441339
-0.419194
-0.39696
-0.374728
-0.352577
-0.330601
-0.308872
-0.287494
-0.266616
-0.246035
-0.226313
-0.624022
-0.61873
-0.613477
-0.607652
-0.600284
-0.590169
-0.576461
-0.559191
-0.539121
-0.517268
-0.494516
-0.471474
-0.448491
-0.425732
-0.403265
-0.381119
-0.359315
-0.337889
-0.316874
-0.296333
-0.276316
-0.25688
-0.237931
-0.219628
-0.643465
-0.636696
-0.630307
-0.622926
-0.61285
-0.598685
-0.580134
-0.558077
-0.533894
-0.508833
-0.483744
-0.459085
-0.435048
-0.411679
-0.38897
-0.366894
-0.345435
-0.324584
-0.30435
-0.284745
-0.265793
-0.247522
-0.229874
-0.213033
-0.665476
-0.657169
-0.649345
-0.639603
-0.625562
-0.606218
-0.582333
-0.55565
-0.527876
-0.500199
-0.473265
-0.447338
-0.422468
-0.398618
-0.375721
-0.353713
-0.332541
-0.312166
-0.29256
-0.273707
-0.255597
-0.238207
-0.221529
-0.205574
-0.689716
-0.679852
-0.670134
-0.656962
-0.637661
-0.61232
-0.583
-0.552049
-0.521169
-0.4913
-0.462831
-0.43584
-0.410268
-0.386009
-0.362954
-0.341005
-0.320081
-0.300112
-0.281042
-0.262823
-0.245415
-0.228787
-0.212926
-0.197743
-0.715437
-0.703984
-0.691737
-0.673881
-0.64822
-0.616518
-0.581994
-0.547221
-0.513653
-0.481903
-0.452111
-0.424202
-0.398029
-0.373432
-0.350265
-0.328398
-0.307718
-0.288129
-0.269548
-0.251899
-0.23512
-0.219158
-0.203968
-0.189377
-0.74142
-0.728331
-0.712719
-0.688944
-0.656205
-0.618194
-0.578894
-0.540752
-0.504844
-0.471454
-0.440508
-0.411809
-0.385134
-0.360275
-0.33705
-0.315296
-0.294876
-0.27567
-0.25757
-0.240481
-0.224321
-0.209023
-0.194498
-0.180547
-0.766036
-0.751232
-0.731236
-0.700485
-0.660361
-0.616359
-0.572772
-0.531686
-0.493751
-0.458952
-0.427036
-0.3977
-0.370656
-0.34565
-0.322461
-0.300898
-0.280799
-0.26202
-0.244435
-0.227933
-0.212422
-0.197822
-0.184003
-0.170795
-0.787393
-0.770737
-0.745302
-0.70676
-0.659277
-0.609756
-0.562406
-0.518807
-0.479187
-0.44326
-0.410615
-0.380855
-0.353631
-0.328642
-0.305632
-0.284382
-0.264708
-0.246444
-0.229447
-0.213595
-0.198797
-0.184976
-0.171992
-0.159736
-0.527676
-0.526315
-0.525989
-0.52849
-0.534665
-0.544621
-0.558225
-0.575242
-0.595279
-0.617686
-0.641522
-0.665564
-0.688386
-0.708477
-0.724343
-0.734459
-0.737441
-0.732056
-0.717415
-0.692691
-0.658256
-0.615217
-0.566399
-0.513806
-0.548229
-0.5455
-0.545052
-0.547895
-0.554754
-0.565752
-0.580704
-0.599319
-0.621154
-0.645512
-0.671406
-0.697575
-0.722562
-0.744832
-0.76285
-0.775092
-0.780054
-0.776243
-0.762235
-0.736822
-0.699645
-0.651384
-0.595414
-0.533738
-0.563211
-0.559176
-0.558245
-0.560849
-0.567595
-0.578628
-0.593732
-0.612555
-0.634609
-0.659185
-0.685304
-0.711738
-0.737085
-0.759871
-0.778587
-0.791702
-0.797705
-0.794885
-0.781395
-0.755448
-0.716196
-0.663858
-0.602252
-0.533564
-0.572337
-0.56724
-0.565545
-0.56729
-0.573039
-0.583038
-0.597098
-0.614834
-0.635732
-0.659086
-0.683961
-0.709197
-0.733479
-0.75544
-0.773579
-0.786451
-0.792394
-0.789475
-0.775498
-0.748296
-0.706942
-0.651689
-0.586891
-0.514814
-0.576174
-0.570444
-0.567849
-0.568211
-0.572156
-0.580141
-0.592102
-0.607687
-0.626382
-0.647508
-0.670184
-0.693344
-0.715796
-0.736152
-0.753126
-0.765038
-0.770052
-0.765901
-0.750141
-0.720527
-0.676589
-0.61926
-0.553583
-0.482105
-0.575922
-0.5701
-0.566657
-0.56535
-0.566941
-0.572177
-0.581242
-0.59392
-0.609761
-0.628132
-0.648216
-0.669025
-0.68935
-0.708085
-0.723549
-0.733922
-0.737035
-0.730289
-0.711296
-0.678258
-0.63175
-0.57368
-0.509506
-0.441703
-0.573076
-0.567696
-0.563633
-0.560691
-0.559778
-0.561945
-0.56771
-0.577106
-0.589831
-0.605333
-0.622847
-0.641377
-0.659908
-0.676811
-0.69026
-0.698052
-0.697678
-0.686557
-0.66295
-0.626181
-0.57827
-0.521836
-0.462127
-0.400697
-0.569108
-0.564577
-0.560226
-0.555974
-0.552843
-0.55213
-0.554696
-0.560889
-0.570621
-0.583451
-0.598652
-0.615239
-0.631677
-0.646105
-0.656279
-0.659681
-0.653886
-0.637036
-0.608638
-0.569465
-0.522561
-0.470541
-0.417659
-0.364326
-0.565291
-0.561817
-0.557495
-0.552413
-0.54767
-0.54471
-0.544669
-0.548187
-0.555397
-0.565958
-0.579025
-0.593216
-0.606661
-0.61709
-0.622017
-0.619145
-0.606817
-0.584494
-0.55303
-0.514272
-0.471238
-0.425681
-0.380625
-0.334971
-0.562714
-0.560282
-0.556196
-0.550771
-0.545155
-0.540827
-0.539073
-0.540708
-0.545956
-0.554367
-0.564812
-0.575537
-0.584336
-0.588835
-0.586898
-0.577076
-0.558901
-0.533086
-0.501189
-0.465256
-0.427461
-0.388749
-0.351189
-0.312272
-0.562356
-0.560762
-0.55698
-0.55164
-0.545856
-0.54102
-0.538427
-0.5388
-0.542241
-0.548047
-0.554775
-0.560451
-0.562926
-0.560296
-0.551305
-0.5356
-0.513708
-0.486869
-0.456482
-0.424093
-0.39077
-0.357403
-0.325497
-0.292329
-0.56504
-0.563884
-0.560443
-0.555479
-0.550036
-0.545338
-0.542309
-0.541503
-0.5427
-0.54491
-0.546565
-0.545877
-0.541261
-0.5317
-0.516928
-0.497377
-0.473924
-0.447597
-0.419266
-0.389802
-0.359487
-0.329316
-0.299637
-0.270507
-0.454005
-0.394094
-0.347073
-0.316613
-0.305457
-0.314266
-0.339834
-0.372742
-0.398708
-0.403412
-0.377446
-0.325012
-0.263136
-0.20904
-0.17146
-0.150347
-0.143364
-0.148232
-0.164389
-0.196406
-0.249451
-0.312946
-0.359339
-0.360792
-0.318577
-0.254555
-0.192709
-0.147795
-0.122285
-0.111604
-0.115622
-0.138483
-0.175297
-0.205921
-0.206643
-0.17941
-0.140857
-0.109575
-0.092596
-0.0911345
-0.105985
-0.126498
-0.134139
-0.120256
-0.100438
-0.0814007
-0.0692253
-0.0639233
-0.0630674
-0.061671
-0.05621
-0.0483646
-0.0448596
-0.0459293
-0.046855
-0.0374208
-0.0285031
-0.0178549
-0.0118351
-0.00330049
-0.464251
-0.394302
-0.336949
-0.295563
-0.273292
-0.271486
-0.288402
-0.316664
-0.342761
-0.350157
-0.330391
-0.286518
-0.234014
-0.188634
-0.157519
-0.141196
-0.138392
-0.14729
-0.167742
-0.204967
-0.263616
-0.331542
-0.3809
-0.382787
-0.337421
-0.268311
-0.201138
-0.151088
-0.120764
-0.105435
-0.103878
-0.119605
-0.149217
-0.175222
-0.176052
-0.153385
-0.122335
-0.0991618
-0.0894149
-0.0955081
-0.11835
-0.146003
-0.156809
-0.139129
-0.113515
-0.0881276
-0.0700066
-0.0590672
-0.0532448
-0.0501433
-0.0449094
-0.0419431
-0.0444071
-0.0515806
-0.0577071
-0.0474499
-0.0358482
-0.0180717
-0.00521857
-0.000280784
-0.456281
-0.379716
-0.315723
-0.266106
-0.233655
-0.220008
-0.225423
-0.24538
-0.269083
-0.281729
-0.269289
-0.236662
-0.19604
-0.160512
-0.13636
-0.125246
-0.126858
-0.139588
-0.163439
-0.203717
-0.264725
-0.334766
-0.386691
-0.3925
-0.347474
-0.27578
-0.205059
-0.151414
-0.117192
-0.0976432
-0.090871
-0.099838
-0.122438
-0.144375
-0.146463
-0.127405
-0.103202
-0.087457
-0.0846916
-0.0985963
-0.129705
-0.164654
-0.17909
-0.157832
-0.125885
-0.0940907
-0.0704064
-0.0544142
-0.0438008
-0.0389328
-0.0336638
-0.0355386
-0.0437443
-0.0568248
-0.0680152
-0.0571474
-0.0429518
-0.0184726
0.00132357
0.00261525
-0.433801
-0.355657
-0.290326
-0.236208
-0.196152
-0.172094
-0.164412
-0.172292
-0.189071
-0.202475
-0.198906
-0.178929
-0.151012
-0.125638
-0.108676
-0.102794
-0.108563
-0.124411
-0.150084
-0.190621
-0.250767
-0.321361
-0.37617
-0.387763
-0.347345
-0.276121
-0.204139
-0.148659
-0.111825
-0.0890523
-0.0776095
-0.0804158
-0.0966033
-0.114692
-0.117282
-0.102213
-0.0838609
-0.0745788
-0.0781173
-0.0995237
-0.138847
-0.181286
-0.199853
-0.175721
-0.137277
-0.099132
-0.0703555
-0.050011
-0.0348994
-0.0282323
-0.022621
-0.0291373
-0.0427926
-0.0615398
-0.0776114
-0.0663595
-0.0497165
-0.019118
0.00770851
0.00537082
-0.402212
-0.327215
-0.264884
-0.210744
-0.166777
-0.134473
-0.115721
-0.110892
-0.117007
-0.126845
-0.129522
-0.119197
-0.102813
-0.0868097
-0.0765689
-0.0754386
-0.0848141
-0.103143
-0.129528
-0.168201
-0.224512
-0.29266
-0.350291
-0.368944
-0.336507
-0.269593
-0.198937
-0.143171
-0.104997
-0.0801025
-0.0651514
-0.0623986
-0.0727282
-0.0872273
-0.0899172
-0.0784158
-0.0647746
-0.0606734
-0.0694846
-0.0975162
-0.144728
-0.194625
-0.217791
-0.192117
-0.147521
-0.103218
-0.0698478
-0.0458833
-0.0266745
-0.018219
-0.0119164
-0.0226757
-0.0414929
-0.0656171
-0.0863447
-0.0749487
-0.0560619
-0.0200544
0.0138509
0.00798202
-0.367434
-0.299804
-0.243375
-0.191725
-0.147118
-0.110586
-0.0828979
-0.0663242
-0.0609979
-0.0631756
-0.0665999
-0.063156
-0.0557361
-0.0472722
-0.0427701
-0.0457953
-0.0581989
-0.0783996
-0.104691
-0.140119
-0.190315
-0.253034
-0.311835
-0.338425
-0.316159
-0.256718
-0.189978
-0.135489
-0.0970535
-0.0710624
-0.0537554
-0.0466272
-0.0516225
-0.0627714
-0.065597
-0.0567759
-0.0465491
-0.0460841
-0.0589763
-0.0925952
-0.146692
-0.203423
-0.231673
-0.206207
-0.156387
-0.106315
-0.0688909
-0.0420614
-0.0192505
-0.0090414
-0.0017148
-0.0161487
-0.0397983
-0.0689394
-0.0941023
-0.0827874
-0.0619087
-0.0213074
0.0196763
0.010437
-0.334173
-0.275439
-0.226444
-0.179023
-0.135743
-0.0983119
-0.0663747
-0.0410166
-0.0247107
-0.0175288
-0.0168341
-0.0163892
-0.0131328
-0.0100817
-0.0098455
-0.0161243
-0.0307211
-0.0519255
-0.0774729
-0.109261
-0.152751
-0.208585
-0.266414
-0.303132
-0.289144
-0.238929
-0.178107
-0.126364
-0.0886005
-0.0623042
-0.0435744
-0.0331535
-0.0335729
-0.0416885
-0.0446779
-0.0378937
-0.0297688
-0.0314564
-0.0471616
-0.0845314
-0.144292
-0.207065
-0.240589
-0.217309
-0.163684
-0.108465
-0.06752
-0.0385311
-0.0127279
-0.000827412
0.00783873
-0.00954478
-0.0377032
-0.0714673
-0.100818
-0.089775
-0.0671792
-0.0228541
0.0251033
0.0127179
-0.307013
-0.25661
-0.214184
-0.17142
-0.130488
-0.0934941
-0.0606012
-0.0317066
-0.00774006
0.0088913
0.0171866
0.0198859
0.0220698
0.0215483
0.0191164
0.0109329
-0.00475304
-0.0259532
-0.0500952
-0.0782964
-0.115165
-0.162915
-0.217098
-0.257422
-0.255878
-0.216981
-0.163882
-0.116256
-0.0800621
-0.0540994
-0.034775
-0.022021
-0.0186518
-0.0240177
-0.0271805
-0.0223094
-0.0149829
-0.0174324
-0.0345141
-0.07406
-0.137453
-0.204891
-0.243819
-0.224487
-0.169114
-0.109706
-0.0657802
-0.0352314
-0.00715742
0.00633713
0.0165839
-0.00293713
-0.0351997
-0.0731315
-0.10644
-0.0958127
-0.0717975
-0.0246278
0.0300345
0.0148058
-0.286253
-0.243454
-0.206483
-0.167836
-0.12982
-0.0942288
-0.0613186
-0.0314086
-0.00476758
0.0181079
0.0350805
0.0442841
0.0492515
0.045909
0.0422792
0.0336974
0.0183433
-0.00178974
-0.0241402
-0.0492194
-0.0803629
-0.120432
-0.169326
-0.211754
-0.221424
-0.193328
-0.148296
-0.10555
-0.0716318
-0.0465415
-0.027294
-0.0131737
-0.00678852
-0.00957747
-0.0128899
-0.0110229
-0.0024325
-0.00459541
-0.0216754
-0.0612649
-0.126136
-0.197759
-0.241677
-0.228091
-0.172489
-0.110056
-0.0636981
-0.0321186
-0.00252755
0.0123919
0.0244445
0.00373673
-0.0323508
-0.0740283
-0.110966
-0.100838
-0.0757036
-0.0265939
0.0343557
0.0166817
-0.270988
-0.234897
-0.202441
-0.167381
-0.132274
-0.0985557
-0.066513
-0.0367003
-0.00964324
0.014716
0.0357034
0.0511064
0.0579438
0.0616204
0.0587208
0.0508132
0.0369545
0.0191631
-0.000666946
-0.0229803
-0.0494196
-0.0818386
-0.124395
-0.16743
-0.183623
-0.166557
-0.130887
-0.0943071
-0.0635443
-0.0398507
-0.0212331
-0.0066472
0.00200768
0.00173619
-0.00124283
-0.000148388
0.0080072
0.00640577
-0.00953094
-0.0477198
-0.111906
-0.184404
-0.233952
-0.225647
-0.17308
-0.109581
-0.0614208
-0.0293305
0.00104007
0.0173157
0.0312507
0.0102735
-0.02917
-0.0740095
-0.114328
-0.104761
-0.078851
-0.0287446
0.0379275
0.0183297
-0.258911
-0.229837
-0.200723
-0.168078
-0.135189
-0.103528
-0.0728473
-0.0431247
-0.0152026
0.0102156
0.0326146
0.05123
0.0679287
0.072599
0.0722621
0.0666102
0.0544622
0.0388032
0.0213342
0.00107077
-0.0223374
-0.0501635
-0.0880322
-0.129121
-0.152775
-0.143851
-0.115875
-0.0848377
-0.0571995
-0.0349143
-0.0169669
-0.00241723
0.00790408
0.0100782
0.00784891
0.00804287
0.0160425
0.0154707
0.0022056
-0.0331777
-0.0952797
-0.168495
-0.222266
-0.223148
-0.171897
-0.10899
-0.0594678
-0.0269931
0.00347779
0.0208747
0.0371046
0.0168895
-0.0257362
-0.0734258
-0.11664
-0.107688
-0.0812048
-0.030797
0.0406202
0.0197351
-0.248067
-0.229257
-0.204985
-0.17588
-0.146386
-0.117374
-0.0885747
-0.0599639
-0.0322208
-0.0062786
0.0172566
0.0368499
0.0491955
0.065686
0.0742773
0.0741939
0.0672122
0.0554322
0.0411315
0.0229653
0.00165854
-0.0222646
-0.0544751
-0.0908283
-0.11304
-0.112674
-0.095219
-0.0718889
-0.0488608
-0.0289158
-0.0120778
0.00186907
0.0129114
0.0168589
0.0153502
0.0140051
0.0169974
0.0212137
0.0107909
-0.019932
-0.0776926
-0.14839
-0.204763
-0.208556
-0.165595
-0.106346
-0.0567436
-0.0239138
0.00613866
0.0235819
0.0413168
0.0230444
-0.0220373
-0.0718011
-0.1176
-0.10921
-0.0824798
-0.031967
0.042521
0.0208901
-0.221454
-0.215212
-0.192155
-0.162875
-0.133883
-0.106404
-0.0797507
-0.0533444
-0.0275274
-0.00304375
0.0196449
0.0394122
0.0549746
0.0680685
0.0769277
0.0807537
0.0775434
0.0685264
0.0576165
0.0446998
0.0265607
-0.000435672
-0.0374372
-0.0745421
-0.0950962
-0.0907357
-0.075012
-0.055298
-0.0359367
-0.0188172
-0.0041126
0.00821017
0.0183502
0.0228452
0.0218239
0.0195558
0.0220806
0.0282355
0.0216164
-0.00497457
-0.0594995
-0.128833
-0.187978
-0.196779
-0.15653
-0.0989749
-0.0504877
-0.018872
0.00975666
0.0269126
0.0468002
0.029486
-0.0178938
-0.0696993
-0.118002
-0.109877
-0.082358
-0.0322421
0.0436953
0.0217595
-0.196468
-0.193718
-0.17315
-0.145539
-0.118502
-0.0936607
-0.0700692
-0.0466576
-0.0234507
-0.00122291
0.0193238
0.0375863
0.0528263
0.065335
0.0749852
0.0802282
0.0792118
0.073092
0.0655853
0.0565575
0.0401069
0.0118954
-0.0245715
-0.056187
-0.0696298
-0.0661129
-0.0540457
-0.0390231
-0.0239098
-0.00988836
0.00281644
0.0135707
0.0224186
0.0266015
0.0258401
0.0232547
0.0252522
0.0312048
0.0270923
0.00420283
-0.0458567
-0.112121
-0.170781
-0.180315
-0.143946
-0.0901988
-0.0438855
-0.0139869
0.0129447
0.0294393
0.0493996
0.0336964
-0.0150076
-0.0679767
-0.117588
-0.109115
-0.0809882
-0.0322273
0.0440302
0.0222466
-0.175352
-0.173227
-0.156142
-0.131925
-0.107585
-0.0850797
-0.0637987
-0.0426996
-0.0216292
-0.00121142
0.0179199
0.035237
0.0502981
0.0620466
0.0713594
0.0770571
0.0775145
0.0735495
0.0680416
0.0605299
0.0452458
0.0199463
-0.00991738
-0.0341731
-0.0451322
-0.0443067
-0.0366142
-0.0256171
-0.0137177
-0.00217605
0.0086869
0.0180045
0.0258357
0.0297892
0.0292269
0.0262881
0.0274865
0.0332724
0.0297714
0.00893845
-0.0373264
-0.097556
-0.150418
-0.161359
-0.129416
-0.0807294
-0.0373052
-0.00946674
0.0157765
0.0313273
0.0513765
0.0364153
-0.013554
-0.0665824
-0.115963
-0.107148
-0.0785729
-0.0318484
0.0435295
0.0224125
-0.155062
-0.153813
-0.139888
-0.118915
-0.0970999
-0.076666
-0.0574278
-0.0385308
-0.019656
-0.0011697
0.0163241
0.0322319
0.0457065
0.0573895
0.0665344
0.07258
0.07432
0.0721839
0.0680574
0.0615635
0.0489645
0.0291487
0.00578661
-0.0137461
-0.0238623
-0.0253543
-0.0209567
-0.0131942
-0.00419588
0.00492357
0.0140223
0.0219335
0.0285573
0.0319837
0.031611
0.0285034
0.0287501
0.0333946
0.0313536
0.0120692
-0.0296607
-0.0810112
-0.127349
-0.13949
-0.11249
-0.0699831
-0.0304458
-0.00506196
0.0184036
0.0324834
0.0521107
0.0381524
-0.0125379
-0.0645761
-0.11298
-0.103923
-0.0749754
-0.0308372
0.0421428
0.0222387
-0.136283
-0.136143
-0.124804
-0.106764
-0.0874528
-0.069148
-0.0519426
-0.0351451
-0.0183604
-0.00178387
0.0140559
0.0286179
0.0413395
0.0522651
0.0610709
0.0672815
0.0700295
0.0694785
0.0667381
0.0616742
0.0520953
0.0369335
0.0187371
0.00293044
-0.00640554
-0.00952263
-0.00781958
-0.00279544
0.00389158
0.0110065
0.0185076
0.0252107
0.0307868
0.0335861
0.0332799
0.0300344
0.0294061
0.0333912
0.0317461
0.0147018
-0.0204393
-0.0623845
-0.102706
-0.115438
-0.0939426
-0.0584375
-0.0236234
-0.00104041
0.0207074
0.032954
0.0520561
0.0390728
-0.0113172
-0.0616163
-0.108442
-0.0992472
-0.0701208
-0.0291442
0.0398472
0.0216839
-0.119717
-0.120155
-0.110861
-0.0954204
-0.0785098
-0.0622976
-0.0470231
-0.0321626
-0.0173263
-0.00257981
0.0116628
0.0249188
0.0367192
0.0468907
0.0552446
0.0614393
0.0648852
0.0655688
0.0640313
0.060237
0.0529823
0.0415746
0.0277907
0.01527
0.00681558
0.00288654
0.00291941
0.00603049
0.0109379
0.0163506
0.0223672
0.0279352
0.0325311
0.0346441
0.0343301
0.0310698
0.029693
0.0325917
0.0311682
0.0172367
-0.0106602
-0.0435872
-0.0776864
-0.0904893
-0.074512
-0.0463204
-0.0168616
0.00263947
0.022647
0.0327818
0.0505599
0.0390836
-0.00989527
-0.0576456
-0.102136
-0.0930053
-0.064027
-0.0266532
0.0367094
0.0207133
-0.104703
-0.105477
-0.0979326
-0.0848379
-0.0701809
-0.0559683
-0.0425287
-0.0294724
-0.0164327
-0.00339958
0.00930367
0.0212545
0.0320368
0.0414279
0.0492533
0.0552817
0.0591037
0.0606066
0.0600212
0.0573639
0.052046
0.0437012
0.0334471
0.0237077
0.0164788
0.0124806
0.0115762
0.0132559
0.0167393
0.0207873
0.0254987
0.030055
0.0338687
0.0353811
0.0349491
0.0319125
0.0300116
0.0316195
0.0298656
0.0189944
-0.00189625
-0.0257789
-0.0534771
-0.0658322
-0.0551329
-0.0341476
-0.0103427
0.00594083
0.0241532
0.0321586
0.0474872
0.0379584
-0.00840342
-0.0524491
-0.0938116
-0.0850844
-0.0568062
-0.0233618
0.0328644
0.019308
-0.0909309
-0.0920731
-0.0860457
-0.0750299
-0.0624295
-0.0500805
-0.038355
-0.0269564
-0.0155605
-0.0041291
0.007093
0.0177594
0.0275062
0.0360983
0.043366
0.049135
0.0531162
0.055174
0.0553793
0.0537389
0.0499838
0.0439927
0.0365201
0.029193
0.0232546
0.0195636
0.0182406
0.0189993
0.0214347
0.0244432
0.0280502
0.0316625
0.0347962
0.0358747
0.0352783
0.0326821
0.0305831
0.0311089
0.0281662
0.0198864
0.00567303
-0.00943242
-0.031081
-0.0427656
-0.0368416
-0.0224518
-0.00414668
0.00895131
0.0252199
0.031403
0.0428802
0.0356612
-0.00663305
-0.0456116
-0.0832244
-0.0754624
-0.0487116
-0.019339
0.0285374
0.0174853
-0.0785257
-0.0799283
-0.0751628
-0.0659582
-0.0552038
-0.044552
-0.0343932
-0.0245121
-0.0146293
-0.00468254
0.00514782
0.0145774
0.0233008
0.031099
0.0378018
0.0432572
0.0472563
0.0496674
0.0504797
0.0496932
0.0472109
0.0430595
0.037763
0.0324335
0.0277636
0.0246186
0.0232453
0.0234532
0.0250944
0.0273043
0.0300278
0.0328152
0.0353482
0.0361466
0.0354477
0.0334201
0.031374
0.0312579
0.0271065
0.0206998
0.0124323
0.00487373
-0.01163
-0.0226613
-0.0206584
-0.0118017
0.00160247
0.0117224
0.0258946
0.0308755
0.0372933
0.0327563
-0.00397709
-0.0366753
-0.0702736
-0.0642763
-0.0401359
-0.0147774
0.0240137
0.015315
-0.0673596
-0.0688925
-0.065181
-0.0575539
-0.0484364
-0.0393077
-0.0305727
-0.0220802
-0.0135792
-0.00498854
0.00355824
0.0118236
0.0195629
0.0265759
0.0327007
0.0378002
0.041716
0.0443297
0.0456016
0.045528
0.0440923
0.0413861
0.0377557
0.033862
0.0305131
0.0280296
0.0268027
0.0267353
0.0278289
0.0294507
0.0315055
0.0336064
0.0356028
0.0362152
0.0355322
0.0341039
0.0323082
0.032016
0.0283006
0.0230897
0.0191353
0.0164417
0.00360888
-0.00673012
-0.00733309
-0.0025681
0.00681494
0.0142877
0.0262824
0.0306921
0.0320883
0.0303152
0.000391464
-0.0254001
-0.0552138
-0.05194
-0.0315701
-0.00996336
0.0196189
0.0129379
-0.0572231
-0.0588541
-0.0560266
-0.0497548
-0.042079
-0.0343182
-0.0268702
-0.0196259
-0.0123635
-0.00499628
0.00237744
0.00955265
0.0163669
0.0226175
0.0281639
0.0328828
0.0366499
0.0393637
0.040972
0.0414722
0.0408747
0.0392926
0.0369705
0.0343039
0.031977
0.0301463
0.0291795
0.0290352
0.0297724
0.0309605
0.0325169
0.0340781
0.0356291
0.0361189
0.0355605
0.034674
0.0332781
0.0331462
0.0308115
0.0276791
0.0262674
0.0248976
0.0143377
0.00499286
0.00311288
0.00514351
0.0113925
0.0166413
0.0264925
0.0305921
0.0288726
0.0294132
0.00702516
-0.0122677
-0.0390063
-0.0392308
-0.0235118
-0.00526145
0.0157207
0.0105676
-0.0480671
-0.0497479
-0.0476406
-0.0425267
-0.0361157
-0.0295666
-0.0232578
-0.0171172
-0.0109558
-0.00468591
0.00162898
0.00783852
0.0137696
0.0192876
0.0242641
0.02859
0.0321597
0.0348889
0.0367238
0.037665
0.0377243
0.0370122
0.0357009
0.034052
0.0325338
0.0312913
0.030615
0.0305031
0.0310314
0.0319187
0.0331189
0.0342781
0.0354825
0.0359136
0.0355187
0.0350947
0.0341641
0.0342801
0.0337083
0.0327518
0.0325623
0.0305015
0.0215575
0.0134351
0.0110576
0.0113679
0.0152618
0.0187926
0.0265769
0.0303153
0.0283375
0.0302313
0.0153801
0.00114093
-0.0232818
-0.0271135
-0.0163278
-0.00111209
0.0127045
0.00849807
-0.039832
-0.0414949
-0.0399665
-0.0358317
-0.0305125
-0.025022
-0.0197156
-0.0145496
-0.00936228
-0.00406749
0.00129756
0.00662459
0.0117627
0.0165985
0.0210255
0.0249529
0.0282901
0.0309699
0.0329376
0.0341958
0.0347524
0.0346982
0.0341575
0.0332949
0.0324324
0.0316972
0.0313095
0.0312948
0.0317273
0.0324168
0.0333703
0.0342494
0.0351919
0.0356198
0.0353944
0.03532
0.0348792
0.0351869
0.0356652
0.0361821
0.0363816
0.0336682
0.0262472
0.0193996
0.0167272
0.016206
0.0183984
0.0207109
0.0265549
0.0298329
0.0296777
0.0310321
0.0230017
0.0121956
-0.00995705
-0.0165418
-0.0101501
0.00210321
0.0107659
0.00702517
-0.0323881
-0.0339959
-0.0329325
-0.0296264
-0.0252512
-0.0206828
-0.0162507
-0.0119348
-0.00759905
-0.00316045
0.00135843
0.00589982
0.010321
0.0145296
0.0184368
0.0219705
0.0250528
0.0276305
0.0296502
0.031114
0.0320235
0.0324524
0.0324914
0.0322207
0.0318752
0.0315654
0.0314471
0.0315562
0.0319661
0.0325368
0.0333242
0.0340281
0.0347808
0.0352263
0.0351675
0.0353194
0.0353449
0.0357214
0.036434
0.037425
0.0376797
0.0350183
0.0290832
0.0234539
0.0210061
0.0198502
0.0208542
0.0223224
0.0265187
0.0294239
0.0310807
0.0308704
0.0277406
0.0191953
-0.000361859
-0.00827419
-0.00495638
0.00426853
0.00977651
0.00625488
-0.0256557
-0.0271984
-0.0265094
-0.0238978
-0.0203255
-0.0165472
-0.0128679
-0.00928641
-0.005688
-0.00199067
0.00181088
0.00563681
0.00940815
0.0130421
0.0164629
0.0196132
0.0224262
0.0248605
0.0268664
0.028443
0.0295849
0.0303452
0.0307636
0.0309583
0.0310217
0.0310572
0.0311751
0.0314123
0.0318427
0.0323563
0.0330354
0.0336392
0.0342625
0.0347162
0.0348046
0.0350673
0.0355625
0.0356255
0.0363697
0.0373532
0.0374454
0.035184
0.030588
0.0260506
0.0238787
0.0224694
0.0227122
0.0235701
0.0265583
0.0291641
0.0313502
0.0299737
0.029269
0.0221486
0.00559549
-0.0022691
-0.000729213
0.00553181
0.00918298
0.00586755
-0.0196149
-0.0210603
-0.0206464
-0.0186108
-0.0157167
-0.0126141
-0.009582
-0.0066316
-0.00366962
-0.000611864
0.00255068
0.0057662
0.00896364
0.0120785
0.0150493
0.0178319
0.0203701
0.0226313
0.0245705
0.0261836
0.0274591
0.0284404
0.0291347
0.0296362
0.0299997
0.030301
0.0306156
0.0309726
0.0314433
0.0319429
0.0325531
0.0331024
0.0336461
0.0340897
0.0342774
0.0344761
0.0344901
0.0351551
0.0358038
0.036586
0.0364787
0.0346578
0.0311884
0.0275965
0.0256716
0.0242609
0.0240552
0.0244633
0.0266506
0.0289327
0.0306022
0.0292801
0.0291396
0.0229091
0.00925834
0.00194052
0.00247915
0.00625678
0.00842009
0.00529937
-0.0142215
-0.0155815
-0.0153912
-0.0137847
-0.0114382
-0.0088995
-0.00641503
-0.00400008
-0.00157106
0.000939635
0.0035509
0.00623084
0.00892092
0.011571
0.0141308
0.0165662
0.0188303
0.0208976
0.0227284
0.0243173
0.0256461
0.0267402
0.0276213
0.0283307
0.0289064
0.0294011
0.0298687
0.0303285
0.0308432
0.0313524
0.031922
0.0324423
0.0329399
0.0333659
0.0336336
0.0338577
0.034105
0.0345415
0.0349754
0.0354889
0.0352326
0.0337843
0.0311972
0.0283993
0.0266964
0.0254011
0.0249664
0.0250532
0.0266615
0.0284852
0.0293401
0.0280533
0.0280535
0.022658
0.0115934
0.00490393
0.00469446
0.00657513
0.00743558
0.0044549
-0.00936444
-0.0106053
-0.0105637
-0.00934039
-0.00746698
-0.00540931
-0.00338722
-0.00142199
0.00055303
0.00260272
0.00474627
0.00696443
0.0092117
0.0114493
0.0136367
0.0157483
0.0177453
0.0196078
0.0213019
0.0228204
0.024143
0.0252898
0.0262642
0.0270976
0.0278111
0.0284368
0.0290142
0.0295541
0.0301071
0.0306344
0.0311814
0.0316847
0.0321559
0.0325649
0.0328808
0.0331332
0.0334174
0.0337446
0.0339957
0.0342622
0.033924
0.0327669
0.030833
0.0286794
0.0271857
0.0260263
0.0255109
0.0253771
0.0264602
0.027757
0.0279493
0.026902
0.0264588
0.0219041
0.0130642
0.00701549
0.00612574
0.00675988
0.00643734
0.00355165
-0.00498886
-0.00611629
-0.00619489
-0.00528012
-0.00379864
-0.00214297
-0.000508535
0.0010791
0.00267396
0.0043343
0.00608144
0.0079045
0.00976835
0.0116432
0.0134964
0.0153095
0.0170511
0.0187052
0.0202436
0.0216579
0.0229322
0.0240723
0.0250808
0.0259733
0.0267632
0.0274674
0.0281146
0.0287096
0.0292893
0.0298322
0.0303658
0.0308568
0.03131
0.0317027
0.0320356
0.0323022
0.0325624
0.03281
0.0329328
0.0330126
0.0326428
0.031711
0.0302456
0.0285911
0.027296
0.0262299
0.0257329
0.0254528
0.0260272
0.0268134
0.026601
0.0255525
0.0246918
0.0209109
0.0138942
0.00849536
0.00704285
0.00680667
0.00559807
0.00277978
-0.00108057
-0.00210242
-0.00226128
-0.00158473
-0.000420019
0.000902427
0.00221216
0.00348288
0.00475948
0.00609356
0.00750658
0.00899347
0.0105274
0.0120854
0.0136415
0.0151826
0.0166843
0.0181344
0.0195077
0.0207933
0.0219854
0.0230798
0.0240758
0.0249785
0.0257965
0.0265362
0.0272174
0.0278419
0.0284341
0.0289842
0.0295064
0.0299843
0.0304203
0.0307975
0.031126
0.0313906
0.0316108
0.0317916
0.0318329
0.0317913
0.0314217
0.0306641
0.0295321
0.0282476
0.0271433
0.0262014
0.0256827
0.0253
0.0254243
0.0257705
0.0253209
0.0241498
0.0229668
0.0198259
0.0142533
0.00948215
0.00762772
0.0067687
0.00501604
0.00220928
0.00239028
0.00148691
0.00128518
0.00177531
0.00267921
0.00372377
0.00476294
0.00577051
0.00678257
0.00784451
0.0089774
0.01018
0.0114318
0.0127151
0.0140091
0.0153053
0.016585
0.017838
0.0190437
0.0201961
0.021282
0.0223003
0.0232474
0.0241228
0.0249311
0.0256717
0.0263571
0.0269874
0.0275771
0.0281226
0.02863
0.0290915
0.0295081
0.0298681
0.0301776
0.0304193
0.0306081
0.0307363
0.0307295
0.0306196
0.0302682
0.0296429
0.0287502
0.0277324
0.0267942
0.0259468
0.0253805
0.0249485
0.0247285
0.0246979
0.0240943
0.0228058
0.0213936
0.0187346
0.0142825
0.0100897
0.00797365
0.00668143
0.00459209
0.00182865
0.00549528
0.00470107
0.00447108
0.00481225
0.00550394
0.00632057
0.00713678
0.00792721
0.00872072
0.00955688
0.0104562
0.0114193
0.012431
0.0134775
0.0145427
0.0156201
0.0166967
0.0177649
0.0188085
0.0198206
0.0207899
0.0217133
0.0225874
0.0234086
0.0241783
0.0248925
0.0255577
0.0261729
0.0267453
0.0272744
0.0277605
0.0282009
0.0285941
0.0289328
0.0292184
0.0294401
0.0295943
0.0296803
0.0296463
0.0295029
0.0291778
0.0286525
0.0279318
0.0271046
0.0262981
0.0255309
0.0249314
0.0244368
0.0239819
0.0236356
0.0229155
0.0215678
0.0200109
0.0176865
0.0140878
0.0104101
0.00814393
0.00656813
0.0043103
0.00159151
0.00825501
0.00755965
0.00731818
0.00754607
0.00806764
0.00869774
0.00933035
0.00994208
0.0105561
0.0112059
0.0119107
0.0126732
0.0134814
0.0143253
0.0151924
0.0160774
0.0169707
0.0178675
0.018756
0.0196288
0.0204768
0.0212958
0.0220822
0.0228313
0.0235418
0.0242092
0.024835
0.0254178
0.0259594
0.0264605
0.0269181
0.0273319
0.0276973
0.02801
0.0282668
0.0284655
0.0285933
0.028647
0.0285975
0.0284409
0.0281435
0.0276939
0.0270954
0.0264049
0.0256929
0.0249935
0.0243616
0.0238021
0.0232016
0.0226135
0.0217909
0.0204407
0.0188137
0.0167098
0.0137451
0.010518
0.00818964
0.00643601
0.0041178
0.00144811
0.0106979
0.0100975
0.0098576
0.00999861
0.0103828
0.0108602
0.0113422
0.0118077
0.0122747
0.0127717
0.0133157
0.0139106
0.0145479
0.0152189
0.0159151
0.0166325
0.0173634
0.0181042
0.0188468
0.0195855
0.0203138
0.0210247
0.0217153
0.0223813
0.0230196
0.0236258
0.0241979
0.0247347
0.0252341
0.0256975
0.0261197
0.0265003
0.0268345
0.0271189
0.0273513
0.0275186
0.0276223
0.0276514
0.0275917
0.0274327
0.0271597
0.0267672
0.0262527
0.0256597
0.0250153
0.0243638
0.0237123
0.0230891
0.0224011
0.021649
0.0207317
0.0194103
0.0177766
0.0158181
0.0133107
0.010472
0.00814601
0.0062842
0.00397309
0.00136066
0.0128592
0.0123444
0.0121127
0.0121874
0.0124616
0.0128148
0.0131739
0.01352
0.0138673
0.0142394
0.0146514
0.0151072
0.0156007
0.0161256
0.0166753
0.0172473
0.0178367
0.0184396
0.0190503
0.0196663
0.0202748
0.0208773
0.0214688
0.0220461
0.0226047
0.0231406
0.0236496
0.0241306
0.0245795
0.0249969
0.0253769
0.0257188
0.0260175
0.0262673
0.0264685
0.0266107
0.0266931
0.0267029
0.0266345
0.0264775
0.0262228
0.0258719
0.025415
0.0248884
0.0242935
0.0236708
0.0230128
0.0223386
0.0215925
0.020744
0.0197483
0.0184607
0.0168682
0.0150144
0.0128279
0.0103161
0.00803545
0.00611386
0.00384921
0.00130374
0.0147625
0.0143242
0.0141057
0.0141308
0.0143174
0.01457
0.0148289
0.0150779
0.0153281
0.0155987
0.0159025
0.0162434
0.0166171
0.0170188
0.0174439
0.0178906
0.0183558
0.018837
0.0193284
0.0198264
0.0203275
0.0208267
0.0213224
0.0218108
0.0222871
0.0227482
0.0231888
0.0236077
0.0240002
0.0243656
0.0246988
0.0249973
0.0252559
0.0254708
0.02564
0.0257552
0.0258149
0.0258077
0.02573
0.0255747
0.0253325
0.0250096
0.0245924
0.0241077
0.0235496
0.0229447
0.0222856
0.0215785
0.0207898
0.0198922
0.018845
0.0175834
0.0160598
0.0142943