/*--------------------------------*- C++ -*----------------------------------*\
| =========                 |                                                 |
| \\      /  F ield         | OpenFOAM: The Open Source CFD Toolbox           |
|  \\    /   O peration     | Version:  2312                                  |
|   \\  /    A nd           | Website:  www.openfoam.com                      |
|    \\/     M anipulation  |                                                 |
\*---------------------------------------------------------------------------*/
FoamFile
{
    version     2.0;
    format      ascii;
    arch        "LSB;label=32;scalar=64";
    class       volVectorField;
    location    "5";
    object      U;
}
// * * * * * * * * * * * * * * * * * * * * * * * * * * * * * * * * * * * * * //

dimensions      [0 1 -1 0 0 0 0];

internalField   nonuniform List<vector> 
5478
(
(-0.0254838 0.0106278 -1.01838e-19)
(-0.0613193 0.055426 0)
(-0.0349584 0.0937894 1.4962e-19)
(0.0671851 0.104785 -2.61921e-19)
(0.256748 0.0937948 1.73628e-19)
(0.525033 0.0720199 -4.83484e-20)
(0.832011 0.0436616 -9.39238e-20)
(1.11312 0.0121721 0)
(1.30706 -0.0222519 0)
(1.39197 -0.0592013 1.21367e-19)
(1.39382 -0.0925546 -6.03999e-20)
(1.35543 -0.11516 -8.55673e-20)
(1.30603 -0.136209 -2.91589e-20)
(1.26343 -0.129463 0)
(1.21298 -0.15028 5.96242e-20)
(-0.0411365 0.0141395 2.03541e-19)
(-0.059791 0.0257292 0)
(0.0144108 0.0321096 0)
(0.211831 0.0335406 -1.31084e-19)
(0.51296 0.0358454 1.73047e-19)
(0.844621 0.0408242 5.15242e-20)
(1.12762 0.0430498 -9.03454e-20)
(1.31088 0.0356096 8.01127e-20)
(1.38907 0.015313 1.96614e-19)
(1.39488 -0.0125311 -1.70733e-19)
(1.36815 -0.0385885 4.83131e-21)
(1.33166 -0.0602876 0)
(1.29524 -0.0727712 2.91065e-20)
(1.25698 -0.0762049 0)
(1.22256 -0.0906047 0)
(-0.0508411 0.0202437 -5.52584e-22)
(-0.0244408 0.0172264 -9.48932e-20)
(0.150464 0.012287 6.54516e-22)
(0.473553 0.023506 0)
(0.833662 0.0469292 -5.89773e-20)
(1.12338 0.0680867 5.02947e-20)
(1.29809 0.0755607 4.26981e-20)
(1.37054 0.0666254 0)
(1.38211 0.0474173 -6.49812e-20)
(1.36788 0.0262747 5.36761e-20)
(1.34333 0.00675406 4.33783e-20)
(1.31449 -0.00823725 0)
(1.2821 -0.0203624 0)
(1.25176 -0.0282467 -7.63602e-20)
(1.22068 -0.037146 6.80277e-20)
(-0.0467305 0.0190944 -1.10526e-19)
(0.0540479 0.0078596 9.33899e-20)
(0.365604 0.0166546 -8.03296e-20)
(0.76903 0.0532356 7.10062e-20)
(1.09244 0.0885816 1.18563e-19)
(1.28026 0.106415 -9.99521e-20)
(1.35909 0.106105 -4.26763e-20)
(1.378 0.0950832 3.33766e-20)
(1.37057 0.0800505 -3.19136e-20)
(1.35079 0.0634718 0)
(1.32517 0.047694 0)
(1.29667 0.0330069 -5.81882e-20)
(1.26916 0.021054 7.44001e-20)
(1.24174 0.0138028 -4.12349e-20)
(1.21548 0.00133922 0)
(-0.0256483 0.0102956 5.59843e-20)
(0.188273 -0.000430228 4.72617e-20)
(0.624574 0.0462302 -1.69836e-19)
(1.01699 0.102943 2.5535e-21)
(1.25028 0.13585 -1.68192e-21)
(1.35144 0.144939 -1.5386e-21)
(1.37835 0.139984 3.98901e-20)
(1.37142 0.128451 3.40589e-20)
(1.35102 0.113838 2.40462e-20)
(1.32687 0.098571 -4.08585e-21)
(1.30222 0.0838992 -5.48257e-20)
(1.27831 0.0705836 0)
(1.25416 0.0603671 2.36947e-20)
(1.2304 0.0483057 -1.67971e-20)
(1.20847 0.0418828 3.07468e-20)
(0.0172303 -0.000864406 -1.21114e-19)
(0.378225 0.013076 1.31022e-19)
(0.864653 0.0995329 -4.51089e-20)
(1.18693 0.160695 3.3918e-20)
(1.3355 0.184544 -6.25884e-20)
(1.37907 0.185353 -4.65252e-20)
(1.37467 0.175418 1.27954e-21)
(1.35431 0.161469 0)
(1.33127 0.146621 4.90847e-20)
(1.30837 0.131759 -4.36502e-20)
(1.28568 0.11747 1.72853e-20)
(1.26264 0.104485 0)
(1.24011 0.0920924 1.03424e-20)
(1.21868 0.0819822 -1.77102e-20)
(1.19808 0.0742182 0)
(0.0861777 -0.00472517 -1.51822e-20)
(0.588438 0.0612856 1.32493e-21)
(1.05078 0.167606 2.19773e-20)
(1.29144 0.221744 3.70564e-20)
(1.37329 0.23408 -2.83262e-20)
(1.37933 0.226595 4.76e-20)
(1.35983 0.212509 -1.0779e-20)
(1.33509 0.196862 0)
(1.31017 0.180873 -2.88673e-20)
(1.28621 0.165087 2.03099e-21)
(1.26348 0.150157 2.3866e-20)
(1.24231 0.136023 0)
(1.22234 0.123955 -1.51034e-20)
(1.20335 0.111429 0)
(1.1856 0.104759 8.89642e-21)
(0.179123 0.00706802 -1.66816e-20)
(0.775625 0.13574 0)
(1.1804 0.24418 2.3233e-20)
(1.34545 0.284547 0)
(1.3795 0.284472 0)
(1.36454 0.269685 0)
(1.33752 0.251437 -9.21637e-21)
(1.31019 0.232679 0)
(1.28524 0.214357 5.83953e-21)
(1.26258 0.196796 0)
(1.24177 0.180193 -7.449e-21)
(1.22215 0.165112 0)
(1.20373 0.15087 4.75573e-21)
(1.1869 0.13887 0)
(1.17077 0.130889 3.01847e-21)
(-0.0537089 0.00112752 -9.02687e-21)
(-0.187137 -0.00397771 0)
(-0.337988 -0.0113462 1.66429e-20)
(-0.458282 -0.017368 0)
(-0.559411 -0.02257 0)
(-0.63335 -0.026683 0)
(-0.676547 -0.0295856 -1.42953e-20)
(-0.684618 -0.0310542 0)
(-0.655728 -0.0309467 1.03349e-20)
(-0.590744 -0.0292885 0)
(-0.493878 -0.0262714 -1.10147e-20)
(-0.369478 -0.0222242 0)
(-0.222376 -0.0178116 3.29664e-21)
(-0.07767 -0.00874146 0)
(0.079812 -0.00893366 -5.11433e-22)
(-0.0620479 0.119952 4.6759e-20)
(-0.187792 0.157827 -3.56195e-20)
(-0.324548 0.139557 1.90854e-20)
(-0.431445 0.114179 7.03933e-20)
(-0.5186 0.0844186 3.08851e-21)
(-0.578447 0.0493321 -6.25969e-20)
(-0.607458 0.00838339 4.28579e-20)
(-0.601539 -0.0381337 0)
(-0.560102 -0.0887692 2.97515e-20)
(-0.483147 -0.141155 -5.8845e-21)
(-0.375261 -0.188048 -1.54683e-20)
(-0.24426 -0.22274 0)
(-0.0908567 -0.242253 -1.28686e-20)
(0.0460672 -0.234628 0)
(0.207633 -0.240422 3.21798e-21)
(-0.0714422 0.208145 8.52706e-20)
(-0.174316 0.294668 2.16398e-20)
(-0.274899 0.276833 -3.56366e-20)
(-0.347485 0.238947 -1.1198e-19)
(-0.399346 0.191034 6.79493e-20)
(-0.424364 0.132221 7.10956e-20)
(-0.419752 0.0616033 -1.3054e-19)
(-0.38259 -0.0214924 0)
(-0.315716 -0.116387 -9.54376e-20)
(-0.216325 -0.217095 8.48428e-20)
(-0.0892585 -0.308273 3.29944e-20)
(0.0516071 -0.3765 0)
(0.204858 -0.411186 9.56203e-21)
(0.325813 -0.409655 -1.53783e-20)
(0.473019 -0.400989 0)
(-0.0747116 0.243116 4.94316e-20)
(-0.147717 0.383855 -1.3078e-19)
(-0.199059 0.384162 1.64046e-19)
(-0.224047 0.343879 -1.54981e-19)
(-0.226964 0.286872 -7.73256e-20)
(-0.203567 0.215311 7.44763e-20)
(-0.154376 0.128423 6.7481e-20)
(-0.0793685 0.0237172 6.49232e-20)
(0.018194 -0.100272 -1.67248e-19)
(0.145064 -0.233956 9.70263e-21)
(0.294462 -0.356525 4.52396e-20)
(0.442324 -0.449262 0)
(0.575855 -0.491443 3.51523e-20)
(0.665745 -0.49657 4.57321e-20)
(0.762872 -0.466175 -2.70298e-20)
(-0.0667087 0.218087 1.86934e-21)
(-0.114704 0.406789 9.21875e-20)
(-0.119308 0.445242 -8.4172e-20)
(-0.0951544 0.416604 7.97577e-20)
(-0.0483008 0.35915 1.52867e-19)
(0.0231366 0.284411 -1.46572e-19)
(0.113953 0.193561 -6.81431e-20)
(0.221586 0.0842343 -1.95852e-19)
(0.354097 -0.0454776 1.73778e-19)
(0.515037 -0.189075 0)
(0.682363 -0.324022 0)
(0.824683 -0.426412 9.89031e-20)
(0.92347 -0.470373 -1.8816e-19)
(0.967226 -0.479788 5.78625e-20)
(0.997677 -0.435787 0)
(-0.0487977 0.149215 4.41929e-22)
(-0.0833192 0.350152 -9.29996e-20)
(-0.0575178 0.432906 2.52609e-19)
(0.00387561 0.432025 -7.56409e-20)
(0.0906711 0.385094 -7.56064e-20)
(0.198486 0.312714 7.21604e-20)
(0.315761 0.223365 6.81472e-20)
(0.449575 0.119568 1.22323e-19)
(0.622815 -0.00542859 -2.1184e-19)
(0.823856 -0.14526 8.8423e-20)
(1.00267 -0.2735 7.06008e-20)
(1.11987 -0.363059 0)
(1.16766 -0.397695 0)
(1.15824 -0.403858 8.91488e-20)
(1.13417 -0.358522 -7.93007e-20)
(-0.0290754 0.0746702 -1.01769e-21)
(-0.0603573 0.237227 0)
(-0.0265918 0.336849 0)
(0.0499754 0.35899 1.46445e-19)
(0.156916 0.328133 -6.64039e-20)
(0.283126 0.268699 5.82385e-20)
(0.428223 0.193639 1.18131e-19)
(0.616731 0.100374 -1.04748e-19)
(0.852377 -0.0132331 1.03319e-19)
(1.08161 -0.128685 -8.8505e-20)
(1.23706 -0.226112 -8.0157e-21)
(1.30003 -0.284405 0)
(1.28924 -0.306565 3.46772e-20)
(1.24105 -0.308 0)
(1.1927 -0.273139 0)
(-0.0189437 0.0263117 -1.04329e-19)
(-0.052835 0.125846 0)
(-0.0268733 0.204291 -1.53111e-19)
(0.0485225 0.228315 2.69673e-19)
(0.168236 0.210859 -3.04067e-19)
(0.335767 0.170815 -6.36924e-20)
(0.560786 0.113275 1.00308e-19)
(0.833862 0.0407629 0)
(1.09972 -0.0363488 0)
(1.28829 -0.106955 -1.38905e-19)
(1.36871 -0.164091 -4.81906e-20)
(1.36484 -0.194891 9.72216e-20)
(1.31573 -0.214256 -3.47469e-20)
(1.2612 -0.212454 0)
(1.21316 -0.196936 -6.29997e-20)
(0.285406 0.0150426 0)
(0.48716 0.0321938 -9.19717e-22)
(0.635818 0.0408956 8.50173e-22)
(0.740061 0.0454503 0)
(0.811141 0.0477319 0)
(0.859575 0.0480774 2.03526e-23)
(0.892679 0.0476921 0)
(0.915483 0.0473502 0)
(0.931828 0.0472159 -8.15183e-24)
(0.944149 0.047247 0)
(0.953702 0.0474474 0)
(0.961196 0.0477727 7.05634e-24)
(0.967151 0.0481673 0)
(0.971955 0.0486307 4.2644e-24)
(0.975876 0.0491892 3.38096e-24)
(0.979105 0.0498631 0)
(0.981784 0.0506672 1.65267e-23)
(0.984029 0.0516179 -1.94495e-23)
(0.985924 0.0527325 0)
(0.987546 0.0540311 -9.75505e-24)
(0.988923 0.0555306 1.12556e-23)
(0.990164 0.0572667 -2.08676e-24)
(0.991139 0.0592724 2.88721e-24)
(0.992264 0.0614851 -2.7588e-24)
(0.992689 0.0645911 1.93484e-24)
(0.994287 0.0656289 0)
(0.993459 0.0759759 5.99202e-25)
(0.996478 0.059795 -5.72931e-25)
(0.99414 0.110278 -4.63238e-25)
(0.997617 0.0396753 0)
(0.995759 0.108695 -2.68524e-24)
(0.99929 0.143668 0)
(0.9989 0.0748728 -1.27932e-23)
(0.996547 -0.000589151 -7.229e-24)
(0.995964 -0.036459 7.57189e-25)
(0.996293 -0.0406626 -5.46469e-24)
(0.996765 -0.0392352 0)
(0.997306 -0.0210751 1.36645e-24)
(0.373707 -0.167431 -1.2492e-21)
(0.538865 -0.0907591 2.85314e-23)
(0.663575 -0.0419427 2.79483e-21)
(0.754392 -0.0106696 -2.66551e-21)
(0.817898 0.0103176 0)
(0.862219 0.0243357 -2.05119e-23)
(0.893495 0.0324221 2.96219e-23)
(0.915564 0.0370543 0)
(0.93161 0.0399944 8.21312e-24)
(0.943858 0.0420214 0)
(0.953467 0.0435921 0)
(0.961052 0.044895 -7.1068e-24)
(0.967096 0.0459945 0)
(0.971982 0.0469652 -1.30822e-22)
(0.975977 0.0478898 1.10502e-22)
(0.97927 0.0488328 -8.16664e-23)
(0.982006 0.0498399 7.79548e-23)
(0.984304 0.0509495 3.6925e-24)
(0.986247 0.0521913 0)
(0.987915 0.0535982 0)
(0.989339 0.0551886 2.20539e-24)
(0.990623 0.0570005 -1.5925e-23)
(0.991658 0.0590595 2.51076e-23)
(0.992811 0.061309 -1.11601e-23)
(0.993345 0.0644408 -5.88573e-24)
(0.994898 0.0654777 0)
(0.994254 0.0759491 -1.57023e-24)
(0.997291 0.0595471 0)
(0.994706 0.110403 4.64868e-25)
(0.998976 0.0396298 -5.75174e-24)
(0.99674 0.108204 1.1154e-23)
(0.999275 0.143805 -8.65229e-24)
(0.999632 0.075326 1.8599e-23)
(0.998039 -0.000309921 7.89237e-25)
(0.997481 -0.0364154 8.46498e-24)
(0.997638 -0.0407089 -4.80477e-24)
(0.998017 -0.0393058 -4.14931e-25)
(0.99846 -0.0211199 4.57498e-25)
(0.57146 -0.299221 -3.756e-21)
(0.663838 -0.184715 8.80196e-21)
(0.735237 -0.10736 -1.7719e-22)
(0.793144 -0.0561459 -4.6354e-21)
(0.838785 -0.0215182 -4.87825e-23)
(0.873158 0.00193803 3.75484e-23)
(0.89854 0.0176636 -3.01327e-23)
(0.917742 0.027278 4.31178e-23)
(0.932506 0.0333294 0)
(0.944193 0.0373188 -7.25904e-22)
(0.953605 0.0401492 6.92405e-22)
(0.961137 0.0422797 1.45067e-23)
(0.967174 0.0439473 0)
(0.972077 0.0453313 2.58264e-22)
(0.976106 0.0465698 -2.39447e-22)
(0.979441 0.0477553 8.32582e-23)
(0.982225 0.0489495 -7.94447e-23)
(0.98457 0.0502036 -6.43098e-23)
(0.986562 0.0515576 5.41585e-23)
(0.988277 0.0530564 0)
(0.98975 0.0547256 0)
(0.991076 0.05661 -2.86621e-23)
(0.992167 0.0587344 2.73633e-23)
(0.993343 0.0610426 1.90322e-23)
(0.993986 0.0642214 -3.63337e-24)
(0.995495 0.0652287 -1.39546e-23)
(0.995036 0.0758533 -1.1108e-25)
(0.998102 0.0591863 1.50037e-24)
(0.995242 0.110433 8.9035e-24)
(1.00034 0.0395894 -1.20416e-23)
(0.997707 0.107504 7.01372e-24)
(0.999231 0.143915 -9.55069e-24)
(1.00035 0.0760065 2.06e-23)
(0.999509 0.000148478 -1.96962e-23)
(0.998979 -0.0362886 -6.15839e-24)
(0.998974 -0.0407234 -3.78596e-24)
(0.999265 -0.0393636 1.03784e-23)
(0.999615 -0.021162 1.53769e-24)
(0.782818 -0.367841 0)
(0.797023 -0.243271 -2.84877e-21)
(0.814515 -0.153479 2.78903e-21)
(0.838338 -0.089259 0)
(0.863402 -0.0452782 5.01425e-23)
(0.886763 -0.016234 -3.85826e-23)
(0.906308 0.00306319 0)
(0.9217 0.016286 -2.3983e-24)
(0.934358 0.0250306 3.24468e-23)
(0.944958 0.0310095 0)
(0.95387 0.0354024 5.58439e-22)
(0.961212 0.0387646 -5.47321e-22)
(0.967206 0.0413674 2.29371e-23)
(0.972132 0.0434271 2.64235e-22)
(0.976207 0.0451354 -2.51963e-22)
(0.979593 0.0466429 -1.14781e-23)
(0.982424 0.0480606 0)
(0.984816 0.0494732 7.72417e-24)
(0.986856 0.0509428 -9.75757e-23)
(0.988619 0.0525238 1.06422e-23)
(0.990141 0.0542505 8.79719e-24)
(0.991513 0.0561819 5.87582e-23)
(0.992665 0.0583496 4.23582e-23)
(0.993865 0.0606962 -5.20809e-23)
(0.994611 0.0639559 4.12037e-24)
(0.996074 0.0649214 0)
(0.995798 0.0757547 1.71981e-24)
(0.998903 0.0587185 -1.52014e-24)
(0.995761 0.110423 -8.51082e-24)
(1.00168 0.0395681 1.16954e-23)
(0.998652 0.106598 -6.75303e-24)
(0.999205 0.144006 0)
(1.00107 0.0769363 -2.04547e-23)
(1.00093 0.000789978 4.16188e-23)
(1.00043 -0.0360856 1.69047e-23)
(1.00029 -0.0407121 1.92849e-23)
(1.0005 -0.0394126 -1.03857e-23)
(1.00077 -0.0212027 9.49807e-26)
(0.951948 -0.371033 1.36253e-22)
(0.906939 -0.264959 4.30289e-23)
(0.881225 -0.178763 0)
(0.878187 -0.113519 0)
(0.886193 -0.0657076 0)
(0.899209 -0.0314359 0)
(0.913495 -0.00800977 -1.51691e-21)
(0.926373 0.00890427 2.68566e-21)
(0.937097 0.0199674 -1.24455e-21)
(0.946529 0.027264 0)
(0.954812 0.0324652 5.56056e-22)
(0.9618 0.0363818 -5.48305e-22)
(0.967574 0.0394018 -3.70343e-22)
(0.97237 0.0417971 3.11796e-22)
(0.976388 0.0437808 -2.17908e-22)
(0.979765 0.0455105 2.19472e-22)
(0.982616 0.047104 9.63946e-24)
(0.985044 0.0486543 1.19915e-22)
(0.987125 0.0502303 -1.1426e-22)
(0.988932 0.0518906 -1.1235e-23)
(0.990503 0.0536784 -9.50959e-24)
(0.991921 0.0556535 -5.24778e-23)
(0.993133 0.0578586 5.76357e-23)
(0.994363 0.0602276 1.11451e-23)
(0.995214 0.063556 4.34857e-24)
(0.996638 0.0644641 3.29779e-24)
(0.996524 0.0755981 0)
(0.999682 0.0581357 0)
(0.996274 0.110361 0)
(1.00297 0.039527 0)
(0.999564 0.105459 2.73847e-23)
(0.999258 0.144067 -1.95755e-23)
(1.0018 0.0780368 4.079e-23)
(1.00228 0.00153605 -1.36381e-22)
(1.00182 -0.0358252 1.69118e-23)
(1.00158 -0.0406847 3.84792e-24)
(1.00172 -0.0394587 -1.34044e-23)
(1.00193 -0.0212437 -3.88254e-24)
(1.0576 -0.332196 -1.43463e-22)
(0.987301 -0.259721 5.77063e-21)
(0.93514 -0.189618 -5.54402e-21)
(0.912034 -0.131516 2.71556e-21)
(0.907825 -0.0839847 -2.58608e-21)
(0.912911 -0.0482465 -3.21766e-21)
(0.922054 -0.0218694 2.9919e-21)
(0.931456 -0.00354733 -3.64894e-23)
(0.939745 0.00985641 3.28951e-23)
(0.947694 0.019547 0)
(0.95525 0.0267066 2.02785e-23)
(0.961936 0.032154 -9.05703e-22)
(0.967609 0.0363109 8.62196e-22)
(0.972397 0.0395198 1.92808e-23)
(0.976442 0.0420802 0)
(0.97986 0.0442191 1.94947e-22)
(0.982756 0.0461029 -3.33746e-22)
(0.985229 0.0478598 1.34346e-22)
(0.987358 0.049585 0)
(0.989213 0.0513559 -7.64406e-23)
(0.990834 0.053227 1.91129e-23)
(0.992299 0.0552627 7.09238e-23)
(0.993574 0.057512 5.90937e-23)
(0.994835 0.0598893 -5.53666e-23)
(0.995786 0.0632928 3.24692e-23)
(0.997192 0.0640394 -8.18292e-24)
(0.997221 0.0755341 -2.36647e-23)
(1.00045 0.0575017 4.76344e-25)
(0.996783 0.110388 -4.53012e-25)
(1.00418 0.0396469 -1.19721e-23)
(1.00045 0.104154 1.13836e-23)
(0.999418 0.144243 0)
(1.00256 0.0794673 4.08271e-23)
(1.00354 0.00259219 1.23955e-24)
(1.00314 -0.0354888 0)
(1.00282 -0.0406477 -1.96878e-23)
(1.00292 -0.0395091 8.85271e-24)
(1.00309 -0.0212894 -1.48283e-24)
(1.11522 -0.277512 0)
(1.0437 -0.238686 0)
(0.980016 -0.185425 -3.59373e-23)
(0.943322 -0.134452 0)
(0.928036 -0.0902349 0)
(0.924894 -0.0551825 -2.72931e-21)
(0.929119 -0.0278531 2.60708e-21)
(0.936305 -0.0078944 -2.21912e-21)
(0.943655 0.00660198 2.11839e-21)
(0.950506 0.0167389 0)
(0.957117 0.0241582 1.96134e-23)
(0.963124 0.029904 -1.56686e-23)
(0.968321 0.0343956 7.56468e-22)
(0.972808 0.0379284 -1.16034e-22)
(0.976695 0.0407635 -5.62112e-22)
(0.980045 0.0431174 -6.48108e-24)
(0.982927 0.0451615 5.23338e-24)
(0.985416 0.0470355 -2.52222e-22)
(0.987577 0.0488465 2.47887e-22)
(0.989471 0.0506808 0)
(0.991138 0.0525981 0)
(0.992646 0.0546638 4.35795e-24)
(0.993976 0.0569463 0)
(0.995275 0.0592967 -4.71333e-23)
(0.996308 0.0627682 5.56786e-24)
(0.997713 0.0633768 3.23005e-23)
(0.997862 0.0752129 1.70996e-23)
(1.00117 0.0566491 -1.11202e-23)
(0.997324 0.110124 -4.49341e-25)
(1.00528 0.0395195 0)
(1.00126 0.102649 -2.05239e-23)
(0.999774 0.144239 1.9459e-23)
(1.00338 0.080746 1.99788e-23)
(1.00469 0.00346417 1.60681e-23)
(1.00432 -0.0351382 -2.12271e-23)
(1.00402 -0.0406014 7.70082e-24)
(1.0041 -0.0395508 0)
(1.00425 -0.0213344 3.15631e-24)
(1.14825 -0.226021 3.86318e-20)
(1.08571 -0.213484 1.79114e-20)
(1.02172 -0.187985 -7.62114e-21)
(0.974142 -0.155509 -1.24081e-20)
(0.948685 -0.11878 3.33077e-21)
(0.938052 -0.0817564 1.40903e-23)
(0.937186 -0.0489676 0)
(0.941148 -0.0231119 1.70913e-23)
(0.946559 -0.00500921 1.51805e-23)
(0.952373 0.00791055 0)
(0.958366 0.0177573 1.17942e-21)
(0.963974 0.0252643 -1.12298e-21)
(0.968885 0.030987 -1.32962e-23)
(0.973173 0.035372 -6.19752e-22)
(0.976941 0.0387984 5.88133e-22)
(0.980237 0.0415692 -6.81212e-24)
(0.983105 0.0439162 -5.54974e-24)
(0.985606 0.0460166 0)
(0.987794 0.0479998 -2.3027e-22)
(0.989725 0.0499661 2.18306e-22)
(0.991435 0.0519894 8.20224e-23)
(0.992987 0.0541328 -1.33163e-23)
(0.994369 0.0565031 -6.53534e-23)
(0.995707 0.0588653 4.95981e-23)
(0.996822 0.0625099 -1.07097e-23)
(0.99825 0.0628407 -6.29844e-23)
(0.998483 0.075407 2.16527e-23)
(1.00191 0.055698 -2.41743e-24)
(0.997871 0.110347 1.99497e-24)
(1.00627 0.0399642 0)
(1.00208 0.100488 0)
(1.00022 0.144526 0)
(1.00418 0.0831051 2.09614e-23)
(1.0057 0.00527397 -1.89244e-23)
(1.00542 -0.034534 2.56853e-23)
(1.00516 -0.0404876 -1.63294e-23)
(1.00525 -0.0395649 -7.46044e-24)
(1.00541 -0.0213591 0)
(1.16079 -0.141249 0)
(1.1158 -0.137398 0)
(1.05888 -0.127003 0)
(1.0147 -0.110106 0)
(0.985148 -0.0907734 0)
(0.966597 -0.0692412 0)
(0.957446 -0.0472804 0)
(0.955206 -0.0267839 0)
(0.95654 -0.0100109 0)
(0.95964 0.0027425 0)
(0.963484 0.0127072 0)
(0.967423 0.0208296 0)
(0.97121 0.0273441 0)
(0.974774 0.0324581 0)
(0.978097 0.0364903 0)
(0.981126 0.0397388 0)
(0.983835 0.0424489 0)
(0.986243 0.044816 0)
(0.988383 0.0469902 0)
(0.990296 0.0490872 0)
(0.992011 0.0512011 0)
(0.993583 0.0533998 0)
(0.994999 0.0558069 0)
(0.996389 0.058189 0)
(0.997538 0.0618869 0)
(0.999039 0.0621073 0)
(0.999306 0.0746958 0)
(1.00274 0.0549503 0)
(0.998941 0.109431 0)
(1.00727 0.039606 0)
(1.0027 0.099386 0)
(1.0015 0.143755 0)
(1.0057 0.0834025 0)
(1.0068 0.00587451 0)
(1.00652 -0.0341834 0)
(1.00647 -0.0404169 0)
(1.00664 -0.0396083 0)
(1.00683 -0.0214274 0)
(1.1389 -0.0957334 0)
(1.10575 -0.110872 0)
(1.06072 -0.111009 0)
(1.02493 -0.0995658 0)
(0.999863 -0.0810218 0)
(0.981509 -0.0611557 0)
(0.97132 -0.0418729 0)
(0.967703 -0.0234717 0)
(0.966191 -0.00789508 0)
(0.965987 0.00390876 0)
(0.967781 0.0129686 0)
(0.970697 0.0202866 0)
(0.973792 0.0262285 0)
(0.976858 0.0310748 0)
(0.979798 0.0350786 0)
(0.982519 0.0384303 0)
(0.984995 0.0413003 0)
(0.987243 0.0438414 0)
(0.989283 0.0461794 0)
(0.991141 0.0484182 0)
(0.992834 0.0506474 0)
(0.99441 0.0529278 0)
(0.995846 0.0553994 0)
(0.997277 0.0578004 0)
(0.998432 0.061454 0)
(1.00007 0.061785 0)
(1.00032 0.0741393 0)
(1.00388 0.0549657 0)
(1.00037 0.108887 0)
(1.0083 0.0390498 0)
(1.00386 0.0998475 0)
(1.00361 0.143905 0)
(1.00752 0.0828028 0)
(1.00825 0.00516606 0)
(1.00808 -0.0343659 0)
(1.00817 -0.0404238 0)
(1.0084 -0.0396167 0)
(1.00859 -0.0214239 0)
(1.11797 -0.0567622 0)
(1.09825 -0.0710013 0)
(1.0654 -0.073499 0)
(1.03481 -0.0686878 0)
(1.01142 -0.0589359 0)
(0.994058 -0.0464412 0)
(0.983733 -0.0329336 0)
(0.978172 -0.0197432 0)
(0.974497 -0.00788397 0)
(0.973058 0.0022709 0)
(0.97374 0.0110076 0)
(0.975362 0.0184259 0)
(0.977329 0.0245963 0)
(0.979533 0.0296423 0)
(0.981865 0.0337864 0)
(0.984174 0.0372613 0)
(0.986375 0.0402572 0)
(0.988438 0.04292 0)
(0.990354 0.0453685 0)
(0.992135 0.0477023 0)
(0.993789 0.0500122 0)
(0.995358 0.0523595 0)
(0.996799 0.0548868 0)
(0.998276 0.0573315 0)
(0.999451 0.0610501 0)
(1.00124 0.0615099 0)
(1.00146 0.0737783 0)
(1.00514 0.0549304 0)
(1.00194 0.108519 0)
(1.00944 0.0387039 0)
(1.00533 0.100401 0)
(1.00595 0.14378 0)
(1.00963 0.0824559 0)
(1.00991 0.00523329 0)
(1.00975 -0.0343545 0)
(1.01001 -0.0404395 0)
(1.01032 -0.0396696 0)
(1.01052 -0.0214605 0)
(1.09758 -0.0288463 0)
(1.08647 -0.0421521 0)
(1.06283 -0.0481705 0)
(1.03916 -0.0480294 0)
(1.01983 -0.0424458 0)
(1.00335 -0.03396 0)
(0.992924 -0.0247685 0)
(0.987618 -0.0150598 0)
(0.983316 -0.00513701 0)
(0.980094 0.00369741 0)
(0.979254 0.0111346 0)
(0.97989 0.0176561 0)
(0.981032 0.0233721 0)
(0.982516 0.0282709 0)
(0.984267 0.0324379 0)
(0.986132 0.036011 0)
(0.988002 0.0391212 0)
(0.989828 0.0418908 0)
(0.991586 0.0444351 0)
(0.99327 0.0468549 0)
(0.994872 0.0492422 0)
(0.996425 0.0516565 0)
(0.997873 0.0542452 0)
(0.999404 0.0567607 0)
(1.0006 0.0605279 0)
(1.00252 0.0610602 0)
(1.00273 0.0732418 0)
(1.00653 0.0545838 0)
(1.00363 0.108038 0)
(1.01076 0.0381872 0)
(1.00699 0.100384 0)
(1.00843 0.143558 0)
(1.01191 0.0821011 0)
(1.01179 0.00497217 0)
(1.01164 -0.0344476 0)
(1.01205 -0.0404965 0)
(1.01242 -0.0397346 0)
(1.01263 -0.021499 0)
(1.08011 -0.00894491 0)
(1.07424 -0.02021 0)
(1.0578 -0.0270675 0)
(1.04006 -0.0291468 0)
(1.02462 -0.0269791 0)
(1.01005 -0.0219817 0)
(1.00054 -0.0158217 0)
(0.99547 -0.0089391 0)
(0.990698 -0.00171996 0)
(0.98662 0.00531462 0)
(0.9848 0.0117714 0)
(0.984525 0.0176173 0)
(0.984854 0.0228578 0)
(0.985636 0.0274607 0)
(0.986824 0.0314703 0)
(0.988253 0.0349812 0)
(0.989795 0.0380937 0)
(0.991383 0.0409063 0)
(0.992975 0.0435142 0)
(0.994552 0.0460035 0)
(0.996093 0.0484577 0)
(0.997625 0.050933 0)
(0.999077 0.0535772 0)
(1.00065 0.0561406 0)
(1.00188 0.0599225 0)
(1.00391 0.0605028 0)
(1.00415 0.0726385 0)
(1.00805 0.0541038 0)
(1.00543 0.107528 0)
(1.01232 0.0376005 0)
(1.00885 0.100139 0)
(1.01101 0.143309 0)
(1.01437 0.0818032 0)
(1.01391 0.0048272 0)
(1.01376 -0.0345365 0)
(1.01429 -0.0405683 0)
(1.01473 -0.0398103 0)
(1.01494 -0.0215428 0)
(1.06513 0.00568836 0)
(1.06218 -0.00355453 0)
(1.05111 -0.0102023 0)
(1.03852 -0.0134075 0)
(1.02695 -0.0133414 0)
(1.01442 -0.0107703 0)
(1.00572 -0.00712564 0)
(1.0013 -0.00275234 0)
(0.996846 0.00242712 0)
(0.992388 0.00788102 0)
(0.989883 0.0131292 0)
(0.988951 0.0180791 0)
(0.988663 0.0226952 0)
(0.988863 0.0269054 0)
(0.989542 0.0306888 0)
(0.990555 0.0340846 0)
(0.991771 0.0371557 0)
(0.993113 0.0399724 0)
(0.994528 0.0426091 0)
(0.995987 0.0451391 0)
(0.997457 0.0476379 0)
(0.998961 0.0501575 0)
(1.00041 0.0528398 0)
(1.00203 0.0554364 0)
(1.00329 0.0592369 0)
(1.00543 0.059858 0)
(1.00572 0.0720001 0)
(1.00973 0.0534966 0)
(1.00736 0.107001 0)
(1.01413 0.0369748 0)
(1.01092 0.0997052 0)
(1.0137 0.143013 0)
(1.01702 0.081551 0)
(1.01629 0.00466916 0)
(1.01613 -0.0346547 0)
(1.01677 -0.0406657 0)
(1.01726 -0.0398998 0)
(1.01746 -0.0215924 0)
(1.052 0.0156192 0)
(1.05122 0.0084872 0)
(1.04402 0.0027992 0)
(1.03541 -0.000678862 0)
(1.0271 -0.00185178 0)
(1.01669 -0.00102488 0)
(1.00918 0.000887941 0)
(1.00567 0.00356898 0)
(1.00174 0.00703128 0)
(0.997244 0.0109944 0)
(0.994387 0.0150871 0)
(0.993032 0.019135 0)
(0.992303 0.0230583 0)
(0.992054 0.026769 0)
(0.992313 0.0302155 0)
(0.992965 0.0333984 0)
(0.993883 0.0363466 0)
(0.994991 0.0391026 0)
(0.996232 0.041719 0)
(0.99757 0.0442533 0)
(0.998967 0.0467701 0)
(1.00044 0.0493137 0)
(1.00189 0.0520198 0)
(1.00354 0.0546416 0)
(1.00485 0.0584626 0)
(1.00709 0.0591045 0)
(1.00746 0.0712862 0)
(1.01159 0.052734 0)
(1.00944 0.106407 0)
(1.0162 0.0362744 0)
(1.01322 0.0990306 0)
(1.01652 0.142621 0)
(1.01989 0.081322 0)
(1.01895 0.00451244 0)
(1.01878 -0.0347976 0)
(1.01951 -0.0407864 0)
(1.02005 -0.0400012 0)
(1.02022 -0.0216462 0)
(1.04162 0.0225291 0)
(1.04205 0.0172411 0)
(1.0372 0.0126279 0)
(1.03149 0.009338 0)
(1.02588 0.00763183 0)
(1.01743 0.00743077 0)
(1.0111 0.00815442 0)
(1.00849 0.00952714 0)
(1.00526 0.0116139 0)
(1.0011 0.0143186 0)
(0.998216 0.017357 0)
(0.996676 0.0205377 0)
(0.995689 0.0237605 0)
(0.995133 0.0269327 0)
(0.995075 0.029986 0)
(0.995432 0.0328939 0)
(0.996095 0.0356584 0)
(0.996993 0.0382994 0)
(0.998073 0.0408498 0)
(0.999297 0.0433515 0)
(1.00062 0.0458567 0)
(1.00206 0.0484015 0)
(1.00351 0.051115 0)
(1.00521 0.0537476 0)
(1.00656 0.057583 0)
(1.00891 0.0582216 0)
(1.00938 0.0704687 0)
(1.01363 0.0518035 0)
(1.01169 0.105708 0)
(1.01852 0.0354741 0)
(1.01577 0.0980987 0)
(1.01952 0.142113 0)
(1.02301 0.0811057 0)
(1.02194 0.00435196 0)
(1.02174 -0.0349684 0)
(1.02254 -0.0409304 0)
(1.02312 -0.0401116 0)
(1.02325 -0.0217017 0)
(1.03334 0.0274456 0)
(1.03422 0.0234459 0)
(1.03089 0.0197835 0)
(1.02732 0.0169151 0)
(1.02382 0.0150998 0)
(1.01701 0.0143368 0)
(1.01181 0.0142975 0)
(1.01012 0.0148074 0)
(1.00768 0.0159395 0)
(1.00401 0.0176661 0)
(1.00132 0.0198021 0)
(0.999792 0.0221905 0)
(0.99872 0.024737 0)
(0.998003 0.0273563 0)
(0.997743 0.0299776 0)
(0.997889 0.0325602 0)
(0.998356 0.0350882 0)
(0.999084 0.0375636 0)
(1.00003 0.0400029 0)
(1.00115 0.0424332 0)
(1.00242 0.0448948 0)
(1.00383 0.0474145 0)
(1.00529 0.0501146 0)
(1.00702 0.0527391 0)
(1.00844 0.0565792 0)
(1.0109 0.0571904 0)
(1.01148 0.0695215 0)
(1.01588 0.0506874 0)
(1.01414 0.104869 0)
(1.02111 0.0345429 0)
(1.01859 0.096896 0)
(1.02275 0.141461 0)
(1.02642 0.0808811 0)
(1.02528 0.00418087 0)
(1.02506 -0.0351684 0)
(1.0259 -0.0410955 0)
(1.0265 -0.0402254 0)
(1.02656 -0.0217547 0)
(1.02638 0.030697 0)
(1.0276 0.0276936 0)
(1.02533 0.0248643 0)
(1.02328 0.0224847 0)
(1.02137 0.0207739 0)
(1.01589 0.0197844 0)
(1.01167 0.0193356 0)
(1.01081 0.0193077 0)
(1.00916 0.0197792 0)
(1.00607 0.020776 0)
(1.00371 0.0221885 0)
(1.00235 0.0239017 0)
(1.00134 0.0258401 0)
(1.0006 0.0279333 0)
(1.00025 0.0301183 0)
(1.00027 0.0323512 0)
(1.00061 0.0346075 0)
(1.00122 0.0368776 0)
(1.00207 0.0391661 0)
(1.00312 0.0414881 0)
(1.00434 0.0438733 0)
(1.00574 0.0463394 0)
(1.00722 0.0490024 0)
(1.009 0.0515968 0)
(1.01049 0.0554284 0)
(1.01306 0.0559869 0)
(1.01377 0.0684121 0)
(1.01835 0.0493584 0)
(1.01681 0.103851 0)
(1.02398 0.0334395 0)
(1.02173 0.0953964 0)
(1.02626 0.140628 0)
(1.03017 0.0806195 0)
(1.02904 0.00399089 0)
(1.02879 -0.0353978 0)
(1.02965 -0.0412772 0)
(1.03023 -0.0403325 0)
(1.03019 -0.0217982 0)
(1.02072 0.0328058 0)
(1.02212 0.0305739 0)
(1.02051 0.0283985 0)
(1.01952 0.0264682 0)
(1.01878 0.0249513 0)
(1.01435 0.0239192 0)
(1.01097 0.0232777 0)
(1.01084 0.0229453 0)
(1.00989 0.0229982 0)
(1.0074 0.0234887 0)
(1.00545 0.0243563 0)
(1.00437 0.025525 0)
(1.00353 0.0269436 0)
(1.00287 0.0285625 0)
(1.00253 0.0303319 0)
(1.00253 0.0322131 0)
(1.00282 0.0341802 0)
(1.00337 0.0362184 0)
(1.00416 0.0383247 0)
(1.00517 0.0405058 0)
(1.00637 0.042783 0)
(1.00778 0.0451659 0)
(1.00928 0.0477655 0)
(1.01113 0.0503044 0)
(1.01271 0.0541093 0)
(1.01542 0.0545865 0)
(1.01627 0.0671086 0)
(1.02105 0.0477834 0)
(1.01973 0.102614 0)
(1.02716 0.032113 0)
(1.02519 0.0935664 0)
(1.0301 0.139569 0)
(1.03432 0.0802838 0)
(1.03326 0.00378261 0)
(1.033 -0.0356516 0)
(1.03383 -0.0414658 0)
(1.03437 -0.0404166 0)
(1.03417 -0.0218212 0)
(1.01608 0.0338927 0)
(1.01753 0.0322226 0)
(1.01635 0.0305574 0)
(1.01611 0.0290259 0)
(1.01623 0.0277415 0)
(1.01262 0.026773 0)
(1.00992 0.0260723 0)
(1.0104 0.0255826 0)
(1.01009 0.0253771 0)
(1.00816 0.0255228 0)
(1.00664 0.0259916 0)
(1.00589 0.0267369 0)
(1.00529 0.0277303 0)
(1.0048 0.0289423 0)
(1.00457 0.0303387 0)
(1.00462 0.0318903 0)
(1.00492 0.0335746 0)
(1.00548 0.0353768 0)
(1.00626 0.0372904 0)
(1.00727 0.0393168 0)
(1.00848 0.0414709 0)
(1.00993 0.0437556 0)
(1.01149 0.0462775 0)
(1.01342 0.0487459 0)
(1.0151 0.0525131 0)
(1.01796 0.0528864 0)
(1.01897 0.0655108 0)
(1.02399 0.0458641 0)
(1.0229 0.101061 0)
(1.03065 0.0304624 0)
(1.02903 0.0912937 0)
(1.03434 0.138207 0)
(1.03897 0.0797921 0)
(1.03805 0.00340225 0)
(1.03775 -0.0359447 0)
(1.03851 -0.0416488 0)
(1.03896 -0.0404525 0)
(1.03852 -0.0218069 0)
(1.01223 0.0347508 0)
(1.01372 0.0335242 0)
(1.01283 0.0322953 0)
(1.01311 0.0311383 0)
(1.01384 0.0301247 0)
(1.01085 0.0293163 0)
(1.00866 0.0286837 0)
(1.00963 0.028181 0)
(1.00985 0.0278772 0)
(1.00844 0.0278452 0)
(1.00736 0.0280744 0)
(1.00695 0.0285362 0)
(1.00666 0.029219 0)
(1.0064 0.0301096 0)
(1.00634 0.0311879 0)
(1.00652 0.0324347 0)
(1.00692 0.0338345 0)
(1.00753 0.0353758 0)
(1.00837 0.0370531 0)
(1.00943 0.0388664 0)
(1.01069 0.0408281 0)
(1.01219 0.0429371 0)
(1.01382 0.0452987 0)
(1.01586 0.0476103 0)
(1.01767 0.0512537 0)
(1.0207 0.051431 0)
(1.02189 0.0640796 0)
(1.02719 0.0440144 0)
(1.02636 0.099503 0)
(1.03447 0.0288269 0)
(1.03329 0.0888193 0)
(1.03906 0.136605 0)
(1.04415 0.0794052 0)
(1.04352 0.00344755 0)
(1.04323 -0.0361358 0)
(1.04379 -0.0417671 0)
(1.04407 -0.0403903 0)
(1.0433 -0.0217269 0)
(1.0091 0.033128 0)
(1.0107 0.0321026 0)
(1.01007 0.031057 0)
(1.01072 0.0300473 0)
(1.0119 0.0291329 0)
(1.00937 0.0283792 0)
(1.00757 0.0277564 0)
(1.00889 0.0272108 0)
(1.00953 0.0268029 0)
(1.00855 0.0266087 0)
(1.00783 0.0266273 0)
(1.00774 0.0268405 0)
(1.00772 0.0272493 0)
(1.00771 0.0278547 0)
(1.00784 0.0286503 0)
(1.00817 0.0296281 0)
(1.00869 0.0307816 0)
(1.0094 0.0321052 0)
(1.01032 0.0335967 0)
(1.01145 0.0352568 0)
(1.01279 0.0370969 0)
(1.01438 0.0391126 0)
(1.01613 0.0414082 0)
(1.01829 0.0436667 0)
(1.02026 0.047304 0)
(1.02348 0.047398 0)
(1.02492 0.0602239 0)
(1.03051 0.0398066 0)
(1.03006 0.095798 0)
(1.03864 0.0250259 0)
(1.03776 0.0843801 0)
(1.04434 0.13338 0)
(1.05036 0.0774138 0)
(1.0498 0.00204403 0)
(1.04928 -0.036671 0)
(1.04973 -0.0418863 0)
(1.04975 -0.0401933 0)
(1.04851 -0.0215472 0)
(1.00583 0.0356754 0)
(1.00729 0.0350926 0)
(1.0068 0.0344825 0)
(1.00779 0.0338879 0)
(1.00941 0.033306 0)
(1.00736 0.0327758 0)
(1.00594 0.0323055 0)
(1.00759 0.0318625 0)
(1.00863 0.0314978 0)
(1.00809 0.0312851 0)
(1.00776 0.0312338 0)
(1.00803 0.0313354 0)
(1.00835 0.0315977 0)
(1.00865 0.0320293 0)
(1.00907 0.0326314 0)
(1.00966 0.0334027 0)
(1.0104 0.0343416 0)
(1.01131 0.0354464 0)
(1.0124 0.036717 0)
(1.01369 0.0381552 0)
(1.01518 0.039772 0)
(1.01692 0.0415613 0)
(1.01881 0.0436269 0)
(1.02115 0.0456399 0)
(1.0233 0.0490525 0)