/*--------------------------------*- C++ -*----------------------------------*\
| =========                 |                                                 |
| \\      /  F ield         | OpenFOAM: The Open Source CFD Toolbox           |
|  \\    /   O peration     | Version:  2312                                  |
|   \\  /    A nd           | Website:  www.openfoam.com                      |
|    \\/     M anipulation  |                                                 |
\*---------------------------------------------------------------------------*/
FoamFile
{
    version     2.0;
    format      ascii;
    arch        "LSB;label=32;scalar=64";
    class       volVectorField;
    location    "26.7";
    object      U;
}
// * * * * * * * * * * * * * * * * * * * * * * * * * * * * * * * * * * * * * //

dimensions      [0 1 -1 0 0 0 0];

internalField   nonuniform List<vector> 
5478
(
(-0.0260853 0.0194443 -6.91146e-20)
(-0.0308627 0.0293236 0)
(0.0124284 0.0257516 1.03596e-19)
(0.110138 0.0170216 -1.8151e-19)
(0.264477 0.0107879 1.18881e-19)
(0.460064 0.0115394 -3.51242e-20)
(0.66945 0.019782 -6.14328e-20)
(0.865023 0.0319875 0)
(1.03125 0.0460044 0)
(1.15287 0.0552779 8.32543e-20)
(1.23702 0.0608444 -3.66879e-20)
(1.27679 0.0607138 -6.49158e-20)
(1.28916 0.0478439 -2.66606e-20)
(1.28095 0.0471965 0)
(1.25033 0.00697922 8.04464e-20)
(-0.0282865 0.0174865 1.38881e-19)
(-0.0107985 0.0174611 0)
(0.0835191 0.00811173 0)
(0.259432 0.00301261 -9.10682e-20)
(0.493347 0.00974332 1.20015e-19)
(0.73705 0.0267083 3.46198e-20)
(0.948699 0.0473858 -5.94111e-20)
(1.10742 0.0657082 5.26798e-20)
(1.20611 0.0765787 1.33616e-19)
(1.25495 0.0786521 -1.17611e-19)
(1.26448 0.0741818 2.61038e-21)
(1.25229 0.0607611 0)
(1.23445 0.0506756 2.66158e-20)
(1.21514 0.0337259 0)
(1.2073 0.0221209 0)
(-0.0246435 0.0132749 -5.77976e-22)
(0.0353016 0.00361308 -6.54604e-20)
(0.211334 -0.00302462 3.15991e-22)
(0.478887 0.00830076 0)
(0.760184 0.0338822 -4.01547e-20)
(0.989213 0.0619109 3.40536e-20)
(1.14062 0.083111 2.88796e-20)
(1.21801 0.0930806 0)
(1.2427 0.092294 -4.40611e-20)
(1.238 0.0848949 3.79834e-20)
(1.22498 0.0730289 3.27099e-20)
(1.21591 0.0634643 0)
(1.21313 0.0520437 0)
(1.21287 0.0458695 -7.67904e-20)
(1.21628 0.0354643 6.83821e-20)
(-0.011308 0.00632704 -7.69033e-20)
(0.119451 -0.0103153 6.42622e-20)
(0.400916 0.00105706 -5.5156e-20)
(0.728336 0.0366168 4.81855e-20)
(0.988602 0.0736931 8.0397e-20)
(1.14573 0.098696 -6.75836e-20)
(1.21541 0.108631 -2.88639e-20)
(1.23266 0.107033 2.34271e-20)
(1.22874 0.09987 -2.19524e-20)
(1.2225 0.0904625 0)
(1.21922 0.0824804 0)
(1.21657 0.072405 -4.81635e-20)
(1.21021 0.0646482 6.38744e-20)
(1.20081 0.0524481 -3.64615e-20)
(1.18714 0.0416795 0)
(0.0168201 -0.00242141 3.90062e-20)
(0.251045 -0.0147806 3.22581e-20)
(0.624762 0.0289432 -1.1603e-19)
(0.942654 0.0808428 1.8177e-21)
(1.13011 0.114211 -1.25522e-21)
(1.21024 0.127153 -9.39841e-22)
(1.23133 0.126846 2.69132e-20)
(1.2301 0.120705 2.34191e-20)
(1.22351 0.11217 1.73453e-20)
(1.21503 0.103053 -1.92381e-21)
(1.20432 0.0917804 -4.03378e-20)
(1.19171 0.0808413 0)
(1.18034 0.0685774 1.99313e-20)
(1.17067 0.0565379 -1.60033e-20)
(1.16344 0.0483364 2.77131e-20)
(0.065421 -0.00914292 -8.44849e-20)
(0.423559 0.00405531 9.06558e-20)
(0.829602 0.0768876 -3.05215e-20)
(1.08632 0.128898 2.27759e-20)
(1.20017 0.150416 -4.18817e-20)
(1.23307 0.152963 -3.11097e-20)
(1.23248 0.147025 6.1454e-22)
(1.22108 0.137372 0)
(1.20693 0.126082 3.42274e-20)
(1.19353 0.113476 -3.04372e-20)
(1.18287 0.101528 1.27691e-20)
(1.17569 0.0894528 0)
(1.16964 0.0785255 7.93725e-21)
(1.16284 0.0668455 -1.50974e-20)
(1.15698 0.0587751 0)
(0.136423 -0.00713807 -1.04991e-20)
(0.604316 0.0506039 1.00445e-21)
(0.983618 0.135087 1.508e-20)
(1.16994 0.177084 2.47166e-20)
(1.22991 0.186323 -1.85692e-20)
(1.23341 0.180246 3.11876e-20)
(1.21897 0.168579 -7.15976e-21)
(1.20241 0.155154 0)
(1.18862 0.141249 -1.9328e-20)
(1.17777 0.12789 1.10905e-21)
(1.16825 0.114322 1.63344e-20)
(1.15797 0.101037 0)
(1.14686 0.0869984 -1.1363e-20)
(1.13679 0.073719 0)
(1.12558 0.0632878 7.66992e-21)
(0.224882 0.00970233 -1.15408e-20)
(0.758403 0.116356 0)
(1.08556 0.198474 1.55112e-20)
(1.20972 0.226165 0)
(1.23126 0.222831 0)
(1.21817 0.208669 0)
(1.19932 0.192261 -5.93325e-21)
(1.18234 0.175479 0)
(1.16748 0.158893 3.81191e-21)
(1.1542 0.142277 0)
(1.14258 0.126238 -5.0424e-21)
(1.13326 0.11052 0)
(1.1261 0.0959479 3.42105e-21)
(1.11955 0.0824675 0)
(1.11616 0.0720182 2.3677e-21)
(-0.0114717 0.049486 -6.97759e-21)
(-0.0427545 0.0693205 0)
(-0.0882084 0.0615495 1.12497e-20)
(-0.132369 0.0454872 0)
(-0.17365 0.027082 0)
(-0.212499 0.00781851 0)
(-0.248988 -0.0117562 -7.84775e-21)
(-0.28352 -0.0314994 0)
(-0.31623 -0.0513296 6.68647e-21)
(-0.347593 -0.0712703 0)
(-0.377747 -0.090925 -1.13842e-20)
(-0.406294 -0.110143 0)
(-0.43322 -0.128915 9.6109e-21)
(-0.459859 -0.146248 0)
(-0.486106 -0.161891 8.07456e-21)
(-0.013846 0.0690838 3.57264e-20)
(-0.0375801 0.109227 -2.59611e-20)
(-0.0685004 0.109352 1.23186e-20)
(-0.0975599 0.0951423 4.24279e-20)
(-0.123229 0.0766431 6.61391e-22)
(-0.145626 0.057265 -3.48672e-20)
(-0.16484 0.0378576 2.35612e-20)
(-0.181248 0.0186595 0)
(-0.195476 -0.000308419 2.11511e-20)
(-0.207514 -0.0191156 8.6511e-22)
(-0.217227 -0.0375561 -1.14358e-20)
(-0.225798 -0.0553992 0)
(-0.231201 -0.0741616 -2.91102e-20)
(-0.23759 -0.0903967 0)
(-0.239814 -0.109939 -4.06707e-20)
(-0.016788 0.074923 6.05212e-20)
(-0.0336657 0.129961 1.37268e-20)
(-0.0483178 0.139843 -2.35127e-20)
(-0.0596918 0.129617 -6.51747e-20)
(-0.0672366 0.111737 3.87869e-20)
(-0.0707879 0.0916386 3.66304e-20)
(-0.0702733 0.0713632 -6.56398e-20)
(-0.0659062 0.0516501 0)
(-0.0580269 0.0327896 -5.67168e-20)
(-0.0472283 0.015128 5.04304e-20)
(-0.0316211 -0.00198879 2.34027e-20)
(-0.0178535 -0.016572 0)
(0.00944173 -0.0319 1.94867e-20)
(0.0223329 -0.044033 -3.52637e-20)
(0.0655993 -0.0578803 0)
(-0.0187046 0.0683069 3.18774e-20)
(-0.0312972 0.129977 -8.33934e-20)
(-0.0322544 0.149521 9.91166e-20)
(-0.0272032 0.145569 -8.85241e-20)
(-0.0173488 0.130468 -4.01716e-20)
(-0.00301548 0.111074 3.64357e-20)
(0.0157159 0.0906128 3.317e-20)
(0.0387278 0.0704124 3.03005e-20)
(0.0666093 0.0509661 -8.43173e-20)
(0.0955216 0.0330224 -1.32819e-21)
(0.139072 0.0155185 2.26375e-20)
(0.167001 0.000381339 0)
(0.237272 -0.0118509 3.77359e-20)
(0.254065 -0.0308925 1.04909e-19)
(0.360017 -0.0275374 -6.21549e-20)
(-0.0189184 0.0542145 4.24072e-22)
(-0.0301592 0.112918 5.73473e-20)
(-0.0227488 0.138089 -5.04628e-20)
(-0.00559834 0.140005 4.45678e-20)
(0.0184296 0.128733 8.02166e-20)
(0.0481305 0.111198 -7.25145e-20)
(0.0832495 0.0912477 -3.26817e-20)
(0.123513 0.0709832 -9.12141e-20)
(0.174355 0.0523435 8.17622e-20)
(0.221252 0.0333678 0)
(0.305023 0.0194924 0)
(0.341166 7.95132e-05 8.29404e-20)
(0.475939 -0.00494227 -1.86353e-19)
(0.483209 -0.0251852 6.6648e-20)
(0.66448 -0.0215701 0)
(-0.0183074 0.0389252 2.11357e-22)
(-0.0304154 0.0869787 -5.71356e-20)
(-0.0201512 0.110897 1.51981e-19)
(0.00399369 0.114742 -4.47146e-20)
(0.038767 0.105829 -4.00743e-20)
(0.0831431 0.0901888 3.61053e-20)
(0.138361 0.0721639 3.26988e-20)
(0.205028 0.0536584 5.93188e-20)
(0.290589 0.0376402 -1.05076e-19)
(0.373761 0.0204657 4.74271e-20)
(0.502346 0.0107128 4.27415e-20)
(0.573858 -0.00429534 0)
(0.74866 -0.00414646 0)
(0.77895 -0.0182312 1.26959e-19)
(0.987384 -0.00842872 -1.12863e-19)
(-0.0188842 0.0274737 3.28299e-22)
(-0.0326913 0.0615906 0)
(-0.0215875 0.0779889 0)
(0.00930203 0.0788578 8.95637e-20)
(0.0593078 0.0698207 -3.95536e-20)
(0.130469 0.056148 3.5091e-20)
(0.224753 0.0416595 6.38828e-20)
(0.340938 0.0287614 -5.6645e-20)
(0.474549 0.01803 5.24536e-20)
(0.615999 0.0129041 -4.74699e-20)
(0.761994 0.00775263 -2.21287e-21)
(0.891014 0.00859477 0)
(1.03096 0.00983964 3.20645e-20)
(1.10523 0.00676978 0)
(1.24582 0.0165036 0)
(-0.0219106 0.0215573 -6.67709e-20)
(-0.0351734 0.0424779 0)
(-0.0167855 0.0485161 -1.02411e-19)
(0.0338055 0.0438239 1.79867e-19)
(0.120841 0.0340345 -1.97723e-19)
(0.245885 0.0242857 -3.54282e-20)
(0.402223 0.0179357 6.21019e-20)
(0.575934 0.0167863 0)
(0.749676 0.0189468 0)
(0.914075 0.0266309 -8.86222e-20)
(1.04878 0.0288577 -4.03286e-20)
(1.16742 0.0398529 7.00212e-20)
(1.2382 0.0328118 -3.21198e-20)
(1.3 0.0392538 0)
(1.32239 0.0266984 -9.5187e-20)
(-0.526489 -0.180887 0)
(-0.585899 -0.212552 3.77791e-21)
(-0.615681 -0.213813 -3.49485e-21)
(-0.635398 -0.208243 0)
(-0.620099 -0.173906 0)
(-0.581693 -0.133572 -1.42314e-22)
(-0.498799 -0.0605283 0)
(-0.389813 0.00764619 0)
(-0.210622 0.0690391 2.84134e-23)
(-0.0565926 0.0519372 0)
(0.159315 0.0574468 0)
(0.295379 0.0233591 6.54614e-23)
(0.459253 0.0296931 0)
(0.554023 0.0135696 5.33669e-23)
(0.65736 0.0277368 4.2647e-23)
(0.724478 0.0286296 0)
(0.779441 0.0312559 1.84825e-22)
(0.830963 0.0451175 -2.16585e-22)
(0.857116 0.0339325 0)
(0.893385 0.052391 -8.70473e-23)
(0.910088 0.0427894 9.82405e-23)
(0.926448 0.0456966 -1.80428e-23)
(0.942034 0.0562415 2.12712e-23)
(0.945312 0.040346 -2.03252e-23)
(0.956705 0.0548613 1.44136e-23)
(0.96358 0.0550193 0)
(0.966916 0.0358518 8.74383e-24)
(0.977583 0.0606976 -8.36049e-24)
(0.980863 0.0467548 6.19076e-24)
(0.982642 0.033404 0)
(0.989426 0.0600759 7.56006e-24)
(0.990739 0.0499597 0)
(0.989283 0.0405481 5.98406e-24)
(0.991737 0.0353748 2.79387e-24)
(0.998016 0.0965144 -2.58423e-25)
(0.993385 0.0379227 1.71106e-24)
(0.991744 0.0351152 0)
(0.997581 0.0787673 -1.41082e-24)
(-0.265564 -0.128919 1.50125e-20)
(-0.339122 -0.177128 -1.14679e-22)
(-0.388819 -0.189692 -1.31295e-20)
(-0.435894 -0.198181 1.25224e-20)
(-0.464838 -0.183127 0)
(-0.465516 -0.159673 1.43418e-22)
(-0.44148 -0.108317 -1.98091e-22)
(-0.356221 -0.0637297 0)
(-0.23216 -0.0190517 -2.86267e-23)
(-0.0448314 -0.0418163 0)
(0.116755 -0.0258357 0)
(0.291314 -0.0446583 -6.59292e-23)
(0.421619 -0.0234683 0)
(0.526066 -0.0258819 -1.65781e-21)
(0.612639 -0.00413601 1.3996e-21)
(0.676315 0.0046745 -9.93085e-22)
(0.728885 0.0122299 9.47934e-22)
(0.778122 0.0305701 4.03655e-23)
(0.808946 0.0230374 0)
(0.848025 0.0433939 0)
(0.870374 0.0368394 1.92297e-23)
(0.892178 0.0409431 -1.23759e-22)
(0.913024 0.0529769 1.91105e-22)
(0.922492 0.0380265 -8.30729e-23)
(0.939373 0.0524051 -4.40105e-23)
(0.951512 0.0534614 0)
(0.959672 0.0341892 -1.97126e-23)
(0.973008 0.0592079 0)
(0.978557 0.0462129 -6.21251e-24)
(0.981911 0.0326196 1.80611e-23)
(0.988932 0.0593981 -3.24791e-23)
(0.990565 0.0499617 5.70716e-24)
(0.989701 0.0405363 -1.03407e-23)
(0.992227 0.0346962 -5.60204e-25)
(0.998058 0.0963898 -3.16517e-24)
(0.994019 0.0383999 1.73703e-24)
(0.99254 0.0348147 2.64288e-25)
(0.998346 0.0784225 -1.45059e-25)
(0.0645019 -0.0877836 3.0705e-20)
(0.0122946 -0.130204 -5.78933e-20)
(-0.0375827 -0.155488 1.80988e-21)
(-0.0806234 -0.169854 2.46749e-20)
(-0.124706 -0.169131 3.14757e-22)
(-0.13784 -0.160332 -2.56199e-22)
(-0.146672 -0.131266 2.01477e-22)
(-0.0877646 -0.110485 -2.7133e-22)
(-0.0148803 -0.0933475 0)
(0.167297 -0.122833 -1.39156e-21)
(0.276023 -0.102313 1.32726e-21)
(0.448656 -0.107716 1.14634e-22)
(0.5291 -0.0679267 0)
(0.623421 -0.0575581 3.27958e-21)
(0.673552 -0.0285442 -3.03925e-21)
(0.719318 -0.0128496 1.03057e-21)
(0.753962 -0.00279877 -9.83361e-22)
(0.783294 0.0190974 -7.02488e-22)
(0.80898 0.0133842 5.88807e-22)
(0.834933 0.0348393 0)
(0.855484 0.0307161 0)
(0.874382 0.0352462 -2.25478e-22)
(0.893728 0.0487164 2.1526e-22)
(0.906781 0.0344492 1.40715e-22)
(0.925636 0.0486157 -2.25738e-23)
(0.941471 0.0508997 -1.074e-22)
(0.953822 0.0316988 -1.06369e-25)
(0.968941 0.0571313 3.1136e-23)
(0.976508 0.0453992 -7.27933e-23)
(0.981355 0.0316423 6.534e-23)
(0.988463 0.0585972 -6.70777e-24)
(0.990361 0.0499342 1.37438e-23)
(0.990148 0.040506 -9.01226e-24)
(0.992738 0.0339743 8.61692e-24)
(0.998043 0.0962241 2.19249e-24)
(0.994616 0.0388783 1.61349e-24)
(0.993368 0.0345079 -5.28847e-24)
(0.999128 0.0780606 -1.11058e-24)
(0.348458 -0.0652756 0)
(0.330777 -0.0984924 2.807e-20)
(0.293406 -0.123343 -2.76039e-20)
(0.260356 -0.144102 0)
(0.221599 -0.151815 -3.23479e-22)
(0.210679 -0.15487 2.6321e-22)
(0.198962 -0.141077 0)
(0.243868 -0.1375 -1.96653e-23)
(0.3002 -0.145213 -1.85946e-22)
(0.437518 -0.181196 0)
(0.51622 -0.162967 2.87644e-21)
(0.642413 -0.156353 -2.85996e-21)
(0.688966 -0.10335 2.31298e-22)
(0.757455 -0.0802086 3.27052e-21)
(0.782292 -0.0439391 -3.11864e-21)
(0.809763 -0.023202 -1.42311e-22)
(0.827996 -0.0118785 0)
(0.837107 0.0119483 8.73561e-23)
(0.853433 0.00671411 -9.88062e-22)
(0.861295 0.029061 1.71282e-22)
(0.874397 0.0262937 1.37525e-22)
(0.884286 0.0307078 5.05801e-22)
(0.895624 0.0451004 3.16899e-22)
(0.907387 0.0308423 -3.90137e-22)
(0.922893 0.0445212 3.09981e-23)
(0.938462 0.0479719 0)
(0.952328 0.0287914 2.02838e-23)
(0.967063 0.0547207 -3.15462e-23)
(0.97552 0.0444362 7.40848e-23)
(0.981304 0.0305279 -6.6446e-23)
(0.988162 0.0577015 1.57375e-23)
(0.990183 0.0498846 0)
(0.990626 0.0404565 9.101e-24)
(0.993263 0.0332114 -1.71768e-23)
(0.997983 0.0960162 -6.24999e-24)
(0.995179 0.0393565 -6.93374e-24)
(0.994215 0.034191 5.29219e-24)
(0.99992 0.0776815 1.52878e-25)
(0.63493 -0.048181 4.51774e-22)
(0.622175 -0.0791513 8.9481e-22)
(0.595813 -0.101157 0)
(0.571418 -0.12249 0)
(0.536468 -0.137389 0)
(0.527337 -0.150807 0)
(0.512438 -0.150198 1.18174e-20)
(0.54485 -0.161104 -2.00582e-20)
(0.594218 -0.179625 8.70414e-21)
(0.691214 -0.222185 0)
(0.737373 -0.203246 2.03846e-21)
(0.802783 -0.187641 -1.95877e-21)
(0.818941 -0.12887 -3.77928e-21)
(0.854377 -0.0969697 3.1773e-21)
(0.863964 -0.0548702 -2.67517e-21)
(0.879576 -0.0296864 2.69583e-21)
(0.89073 -0.0155727 1.13857e-22)
(0.891821 0.00997404 1.31592e-21)
(0.902635 0.00479072 -1.25385e-21)
(0.901116 0.027351 -1.10396e-22)
(0.908201 0.0248524 -8.51663e-23)
(0.910842 0.0286318 -4.20728e-22)
(0.913889 0.0433006 4.63432e-22)
(0.921687 0.0283665 8.12813e-23)
(0.931101 0.0411795 3.28032e-23)
(0.943079 0.0454561 2.62171e-23)
(0.955636 0.0260356 0)
(0.967912 0.0523389 0)
(0.975888 0.043511 0)
(0.981881 0.0293761 0)
(0.988107 0.0567595 -4.59388e-23)
(0.990074 0.0498253 2.85819e-23)
(0.991131 0.0403938 -1.84353e-23)
(0.993792 0.0324178 5.4297e-23)
(0.997891 0.0957704 -6.25342e-24)
(0.995711 0.0398318 -1.61753e-24)
(0.995066 0.0338599 6.06143e-24)
(1.00071 0.0772866 2.69462e-24)
(0.951889 -0.0284816 -4.75277e-22)
(0.928363 -0.0543568 5.5948e-20)
(0.89561 -0.0764772 -5.37184e-20)
(0.869446 -0.099461 -4.65858e-20)
(0.831309 -0.116092 4.4363e-20)
(0.819966 -0.137207 3.36032e-20)
(0.800058 -0.144459 -3.12804e-20)
(0.816284 -0.165751 3.5499e-22)
(0.85422 -0.19833 -2.341e-22)
(0.91217 -0.24201 0)
(0.916149 -0.223785 1.80846e-23)
(0.924796 -0.204129 -5.33845e-21)
(0.909239 -0.143184 5.08225e-21)
(0.914992 -0.107613 2.04335e-22)
(0.911641 -0.0644775 0)
(0.917452 -0.0373723 2.27696e-21)
(0.923863 -0.0216818 -3.85981e-21)
(0.923256 0.00544633 1.53468e-21)
(0.931249 0.00168748 0)
(0.928621 0.0251023 -7.16328e-22)
(0.933932 0.0239403 2.30816e-22)
(0.934925 0.0276041 6.16334e-22)
(0.934421 0.0427987 4.49718e-22)
(0.939448 0.0273249 -4.18424e-22)
(0.944026 0.0390301 2.50222e-22)
(0.951769 0.0438786 -3.90289e-23)
(0.961747 0.0239336 -2.10258e-22)
(0.970684 0.050302 1.26771e-22)
(0.977285 0.0428054 -1.20558e-22)
(0.982949 0.0283099 3.90038e-23)
(0.988279 0.0558279 -3.70862e-23)
(0.990048 0.0497636 0)
(0.991657 0.0403287 -1.87229e-23)
(0.994311 0.0316108 2.63352e-24)
(0.997785 0.0954856 0)
(0.996221 0.0402999 7.96383e-24)
(0.995903 0.0335126 -4.08755e-24)
(1.0015 0.0768783 1.25632e-24)
(1.21938 -0.00604351 0)
(1.19943 -0.0275255 0)
(1.17082 -0.0489965 -2.00742e-22)
(1.14532 -0.0757748 0)
(1.10675 -0.0975243 0)
(1.08542 -0.125136 3.52647e-20)
(1.05895 -0.141732 -3.35554e-20)
(1.0522 -0.165346 2.13748e-20)
(1.06177 -0.196378 -2.03641e-20)
(1.0744 -0.240671 0)
(1.03622 -0.219552 -5.83963e-23)
(1.00314 -0.198118 -2.117e-23)
(0.964255 -0.141134 5.70093e-21)
(0.950469 -0.108978 3.89812e-22)
(0.938077 -0.0671224 -5.46225e-21)
(0.937325 -0.0385646 -7.88086e-23)
(0.940433 -0.0233752 5.83558e-23)
(0.939287 0.00456459 -2.7081e-21)
(0.94538 0.000575797 2.66458e-21)
(0.9432 0.0237246 0)
(0.94788 0.0231171 0)
(0.949657 0.0263776 3.65286e-23)
(0.949179 0.0422507 0)
(0.953656 0.0265346 -3.47916e-22)
(0.955998 0.0373774 3.1508e-23)
(0.960726 0.0428281 2.47246e-22)
(0.968354 0.0222809 2.07938e-22)
(0.974173 0.048594 -1.37417e-22)
(0.979177 0.0422997 1.43768e-23)
(0.984278 0.0273042 0)
(0.98861 0.0549239 3.17028e-23)
(0.99011 0.0497226 -3.00574e-23)
(0.992199 0.0402443 -1.1005e-23)
(0.994805 0.0307836 -5.85198e-24)
(0.997684 0.0951711 7.85269e-24)
(0.996717 0.040769 -3.36523e-24)
(0.996708 0.0331448 0)
(1.00226 0.0764583 -2.10723e-24)
(1.31443 0.00378427 5.835e-20)
(1.31268 -0.00627686 5.60313e-20)
(1.30213 -0.0208472 -3.80692e-22)
(1.29058 -0.0443592 -9.83587e-20)
(1.26802 -0.0646141 4.58934e-20)
(1.25064 -0.095322 -3.13132e-22)
(1.22535 -0.11732 0)
(1.20546 -0.148805 -2.06773e-22)
(1.18834 -0.17983 -1.52805e-22)
(1.16359 -0.224395 0)
(1.10328 -0.217458 -2.66326e-21)
(1.04668 -0.206945 2.61085e-21)
(0.996166 -0.158939 -7.22155e-23)
(0.974141 -0.124899 -5.13017e-21)
(0.957451 -0.080919 4.86752e-21)
(0.951829 -0.0482444 -7.44222e-23)
(0.951779 -0.0304717 -6.19125e-23)
(0.949449 -0.00081792 0)
(0.954228 -0.00261961 -2.32473e-21)
(0.952059 0.0210114 2.20372e-21)
(0.955919 0.0224749 7.17816e-22)
(0.958433 0.0251889 -1.55275e-22)
(0.958825 0.0422034 -5.33602e-22)
(0.963805 0.0268434 3.67961e-22)
(0.965586 0.0363946 -7.11217e-23)
(0.968543 0.0428639 -5.04923e-22)
(0.974421 0.0215071 1.81724e-22)
(0.977743 0.0472522 -1.55373e-22)
(0.981267 0.0423303 1.14771e-22)
(0.985734 0.0265468 0)
(0.989078 0.0540214 0)
(0.990291 0.0497466 0)
(0.99276 0.0403153 -8.28474e-24)
(0.995273 0.0298585 1.06881e-23)
(0.997617 0.0948104 -1.00086e-23)
(0.997215 0.0412726 6.13996e-24)
(0.997462 0.0327785 3.11925e-24)
(1.003 0.0760385 0)
(1.25491 0.00168472 0)
(1.27202 -0.0106557 0)
(1.27671 -0.0197502 0)
(1.27945 -0.0362907 0)
(1.27648 -0.0479534 0)
(1.27415 -0.0708787 0)
(1.26452 -0.0860659 0)
(1.24977 -0.110568 0)
(1.22864 -0.128354 0)
(1.1926 -0.154955 0)
(1.13554 -0.151163 0)
(1.08244 -0.148733 0)
(1.03608 -0.118303 0)
(1.00638 -0.0996276 0)
(0.982358 -0.0705974 0)
(0.969772 -0.045234 0)
(0.964324 -0.0318653 0)
(0.960492 -0.00208315 0)
(0.964286 -0.0036245 0)
(0.962281 0.0180582 0)
(0.96483 0.0197672 0)
(0.96676 0.0220351 0)
(0.968041 0.0395576 0)
(0.973031 0.024865 0)
(0.974666 0.0342202 0)
(0.976606 0.0413868 0)
(0.98055 0.019988 0)
(0.981831 0.0456085 0)
(0.983975 0.0414267 0)
(0.987475 0.0254462 0)
(0.98981 0.0530075 0)
(0.990801 0.0493012 0)
(0.993484 0.0398669 0)
(0.995783 0.029189 0)
(0.997677 0.0942842 0)
(0.997884 0.0414629 0)
(0.998325 0.0323274 0)
(1.00387 0.0755447 0)
(1.22118 0.000416246 0)
(1.2388 -0.0175411 0)
(1.24405 -0.0288181 0)
(1.24443 -0.0447173 0)
(1.24205 -0.0558022 0)
(1.23944 -0.0750161 0)
(1.23157 -0.0906569 0)
(1.21839 -0.115335 0)
(1.19513 -0.131312 0)
(1.16001 -0.159252 0)
(1.1124 -0.160028 0)
(1.0657 -0.158302 0)
(1.02252 -0.128262 0)
(0.994295 -0.107306 0)
(0.974381 -0.0742408 0)
(0.963816 -0.0456572 0)
(0.959887 -0.0310709 0)
(0.957816 -0.00162967 0)
(0.960895 -0.00342221 0)
(0.961444 0.0190215 0)
(0.966197 0.0201676 0)
(0.969849 0.02249 0)
(0.972929 0.0394183 0)
(0.978212 0.0242976 0)
(0.980302 0.034362 0)
(0.982003 0.0410588 0)
(0.984708 0.019819 0)
(0.985004 0.0458148 0)
(0.986219 0.0409423 0)
(0.988958 0.0249414 0)
(0.9906 0.0529042 0)
(0.991466 0.0489367 0)
(0.99421 0.0392784 0)
(0.996335 0.0287413 0)
(0.997962 0.0941963 0)
(0.998697 0.0414094 0)
(0.999268 0.0316208 0)
(1.00484 0.0750109 0)
(1.19414 -0.00875883 0)
(1.21183 -0.0233623 0)
(1.21788 -0.0327185 0)
(1.21806 -0.045805 0)
(1.21512 -0.053119 0)
(1.21125 -0.0674119 0)
(1.2038 -0.075992 0)
(1.19315 -0.0927961 0)
(1.17355 -0.0997339 0)
(1.14807 -0.114572 0)
(1.11124 -0.107716 0)
(1.07347 -0.105227 0)
(1.03551 -0.0818596 0)
(1.01028 -0.0690849 0)
(0.989858 -0.0482421 0)
(0.977009 -0.0305239 0)
(0.969143 -0.0238283 0)
(0.964234 -0.000189816 0)
(0.966455 -0.00424373 0)
(0.966279 0.0171446 0)
(0.969691 0.0181981 0)
(0.972365 0.0205463 0)
(0.975512 0.0377178 0)
(0.980126 0.022974 0)
(0.982276 0.0335934 0)
(0.984068 0.0403308 0)
(0.9862 0.0194048 0)
(0.986452 0.0456086 0)
(0.987435 0.0403242 0)
(0.989791 0.0245109 0)
(0.991169 0.0526669 0)
(0.992124 0.0484013 0)
(0.994826 0.0387966 0)
(0.996876 0.0284217 0)
(0.998399 0.0939861 0)
(0.999601 0.0412423 0)
(1.00022 0.0310237 0)
(1.00581 0.074514 0)
(1.16944 -0.0174135 0)
(1.18538 -0.0284943 0)
(1.19199 -0.0358879 0)
(1.19281 -0.0463558 0)
(1.19001 -0.0514123 0)
(1.18595 -0.0626989 0)
(1.17875 -0.0673888 0)
(1.16848 -0.0819361 0)
(1.15105 -0.0859022 0)
(1.12843 -0.101006 0)
(1.0968 -0.097589 0)
(1.06606 -0.101801 0)
(1.035 -0.0833106 0)
(1.0138 -0.0742341 0)
(0.996372 -0.0553104 0)
(0.984996 -0.0365374 0)
(0.978348 -0.027895 0)
(0.973664 -0.00135724 0)
(0.972894 -0.00444607 0)
(0.97073 0.0162235 0)
(0.973033 0.0167331 0)
(0.974736 0.0187821 0)
(0.977638 0.0356259 0)
(0.98138 0.0211868 0)
(0.983392 0.0323841 0)
(0.985192 0.0394405 0)
(0.986743 0.018901 0)
(0.98726 0.0453302 0)
(0.988218 0.039835 0)
(0.990207 0.0240129 0)
(0.991672 0.0522837 0)
(0.99285 0.0478818 0)
(0.995319 0.0382902 0)
(0.997416 0.0279138 0)
(0.999027 0.0936265 0)
(1.00065 0.0410944 0)
(1.00114 0.0303614 0)
(1.00683 0.0739402 0)
(1.14633 -0.0286671 0)
(1.16051 -0.0362014 0)
(1.16723 -0.0404381 0)
(1.16849 -0.0481042 0)
(1.16622 -0.0501604 0)
(1.16241 -0.0581269 0)
(1.15558 -0.0592152 0)
(1.14691 -0.0695105 0)
(1.13272 -0.0690968 0)
(1.11555 -0.0788624 0)
(1.09206 -0.0705552 0)
(1.06893 -0.0714354 0)
(1.04287 -0.0539176 0)
(1.02295 -0.0469717 0)
(1.00564 -0.0325616 0)
(0.993553 -0.0189142 0)
(0.984623 -0.0151759 0)
(0.978117 0.00507238 0)
(0.976564 -0.00152027 0)
(0.974627 0.0178494 0)
(0.976265 0.0176397 0)
(0.97691 0.0192108 0)
(0.979312 0.0356762 0)
(0.981897 0.0210933 0)
(0.983646 0.0324387 0)
(0.985425 0.0392846 0)
(0.98658 0.0186976 0)
(0.9877 0.0451948 0)
(0.98876 0.039337 0)
(0.990451 0.0234324 0)
(0.99229 0.0518845 0)
(0.993666 0.0473102 0)
(0.995746 0.0376926 0)
(0.998035 0.0273024 0)
(0.999916 0.0932308 0)
(1.00183 0.0409191 0)
(1.00201 0.0295317 0)
(1.00797 0.0732588 0)
(1.12614 -0.038593 0)
(1.13814 -0.0429091 0)
(1.14419 -0.044072 0)
(1.14572 -0.0490049 0)
(1.14397 -0.0480135 0)
(1.14064 -0.0532871 0)
(1.13483 -0.0506944 0)
(1.12748 -0.0578059 0)
(1.11575 -0.0537584 0)
(1.10185 -0.0617374 0)
(1.08188 -0.0534409 0)
(1.06202 -0.0579535 0)
(1.03979 -0.0450918 0)
(1.02288 -0.0422501 0)
(1.00792 -0.0311775 0)
(0.997653 -0.0198098 0)
(0.989671 -0.0176096 0)
(0.984104 0.00283291 0)
(0.981987 -0.00302082 0)
(0.979149 0.0157955 0)
(0.979897 0.0151426 0)
(0.979661 0.0164765 0)
(0.981818 0.032852 0)
(0.98348 0.0187164 0)
(0.985003 0.0306414 0)
(0.986617 0.0380054 0)
(0.987148 0.0178697 0)
(0.988636 0.0446116 0)
(0.989597 0.0387179 0)
(0.990872 0.0228166 0)
(0.993101 0.0513437 0)
(0.994588 0.0466732 0)
(0.996226 0.0371297 0)
(0.998761 0.0265813 0)
(1.00104 0.0927009 0)
(1.0031 0.0407205 0)
(1.00288 0.0286232 0)
(1.00931 0.072497 0)
(1.10807 -0.0476298 0)
(1.11789 -0.0493866 0)
(1.1231 -0.0477769 0)
(1.12459 -0.0500399 0)
(1.1232 -0.0464093 0)
(1.12041 -0.049024 0)
(1.11534 -0.0435812 0)
(1.10917 -0.0479823 0)
(1.09945 -0.0410599 0)
(1.08836 -0.0470608 0)
(1.07275 -0.0374654 0)
(1.05811 -0.0407544 0)
(1.0411 -0.0278087 0)
(1.0272 -0.0254689 0)
(1.0137 -0.016098 0)
(1.00394 -0.00684397 0)
(0.995408 -0.00715249 0)
(0.989046 0.0109396 0)
(0.985572 0.00257962 0)
(0.982352 0.0196432 0)
(0.982616 0.0179967 0)
(0.98155 0.0184421 0)
(0.983348 0.0342285 0)
(0.984015 0.0196947 0)
(0.985336 0.0312083 0)
(0.986984 0.0383563 0)
(0.987173 0.0178158 0)
(0.989254 0.0443078 0)
(0.990315 0.0383507 0)
(0.991287 0.0221704 0)
(0.993966 0.0506525 0)
(0.995576 0.0460723 0)
(0.996798 0.0365793 0)
(0.99957 0.0256361 0)
(1.00233 0.0920344 0)
(1.00448 0.0405896 0)
(1.0038 0.0276416 0)
(1.01087 0.0716123 0)
(1.0919 -0.0555746 0)
(1.09978 -0.0551382 0)
(1.10406 -0.0510324 0)
(1.10537 -0.0509435 0)
(1.10423 -0.0447598 0)
(1.10185 -0.045109 0)
(1.09753 -0.0370134 0)
(1.09248 -0.039025 0)
(1.08452 -0.0295494 0)
(1.07591 -0.0337484 0)
(1.06372 -0.0229392 0)
(1.05199 -0.0266899 0)
(1.03755 -0.0158091 0)
(1.02552 -0.01631 0)
(1.01351 -0.0098042 0)
(1.00512 -0.00290458 0)
(0.997779 -0.00556867 0)
(0.992431 0.0107544 0)
(0.989001 0.00158613 0)
(0.985764 0.0179557 0)
(0.985629 0.0159765 0)
(0.983919 0.0159344 0)
(0.985558 0.0317437 0)
(0.985591 0.0174912 0)
(0.986774 0.0292595 0)
(0.988327 0.0371196 0)
(0.988014 0.0167364 0)
(0.990358 0.0433727 0)
(0.991315 0.0377737 0)
(0.991917 0.0213186 0)
(0.994949 0.0497688 0)
(0.996621 0.0454514 0)
(0.997489 0.0359627 0)
(1.00048 0.0244431 0)
(1.00372 0.0912336 0)
(1.00597 0.0405061 0)
(1.00482 0.0264853 0)
(1.01265 0.070501 0)
(1.0776 -0.0620797 0)
(1.08372 -0.059834 0)
(1.08701 -0.0535967 0)
(1.08797 -0.0514562 0)
(1.0869 -0.0430233 0)
(1.08481 -0.0413648 0)
(1.08112 -0.0309855 0)
(1.07694 -0.0310789 0)
(1.07047 -0.019605 0)
(1.06385 -0.0224375 0)
(1.05422 -0.0108988 0)
(1.04526 -0.014715 0)
(1.03407 -0.00428739 0)
(1.02505 -0.0052058 0)
(1.01517 0.000362511 0)
(1.00798 0.00677623 0)
(1.00082 0.002731 0)
(0.995583 0.0177826 0)
(0.991792 0.007328 0)
(0.988281 0.0221803 0)
(0.987901 0.0193458 0)
(0.98561 0.0182225 0)
(0.986977 0.0334843 0)
(0.986369 0.0187638 0)
(0.987391 0.0297791 0)
(0.988962 0.0376053 0)
(0.988407 0.0166645 0)
(0.991122 0.0428928 0)
(0.992148 0.0375727 0)
(0.992551 0.0206251 0)
(0.995927 0.0488791 0)
(0.997679 0.0449254 0)
(0.998295 0.0354743 0)
(1.00153 0.0230956 0)
(1.00513 0.0903455 0)
(1.00757 0.0406188 0)
(1.00598 0.0252187 0)
(1.01461 0.0692618 0)
(1.06484 -0.0671743 0)
(1.06944 -0.063451 0)
(1.07182 -0.0555045 0)
(1.07241 -0.0516449 0)
(1.07134 -0.0413493 0)
(1.06947 -0.0380132 0)
(1.06629 -0.0257829 0)
(1.06283 -0.0243915 0)
(1.05758 -0.0112881 0)
(1.05248 -0.0131768 0)
(1.04494 -0.000806958 0)
(1.03822 -0.00452269 0)
(1.02929 0.00548941 0)
(1.02203 0.00348767 0)
(1.01371 0.00703669 0)
(1.00755 0.0117883 0)
(1.00132 0.00565762 0)
(0.997093 0.0194873 0)
(0.993521 0.00781821 0)
(0.990213 0.0216866 0)
(0.989877 0.0184903 0)
(0.98728 0.016555 0)
(0.988597 0.0318139 0)
(0.987675 0.017142 0)
(0.988617 0.0279428 0)
(0.990219 0.0364254 0)
(0.989343 0.0153561 0)
(0.99217 0.0414403 0)
(0.993212 0.0367032 0)
(0.993338 0.0193313 0)
(0.996941 0.0473306 0)
(0.99879 0.0439138 0)
(0.999246 0.0344982 0)
(1.00261 0.0212096 0)
(1.00659 0.0888295 0)
(1.00935 0.0403158 0)
(1.00728 0.0234826 0)
(1.01672 0.0674103 0)
(1.05335 -0.0707073 0)
(1.05663 -0.0657471 0)
(1.05814 -0.056351 0)
(1.05828 -0.0510236 0)
(1.05711 -0.039124 0)
(1.05536 -0.0343597 0)
(1.05256 -0.0205529 0)
(1.04971 -0.0179336 0)
(1.04543 -0.00353725 0)
(1.04164 -0.00468928 0)
(1.03576 0.00833604 0)
(1.03082 0.00472515 0)
(1.02384 0.0144187 0)
(1.01839 0.0120835 0)
(1.01173 0.014774 0)
(1.00696 0.0191176 0)
(1.00167 0.012192 0)
(0.998139 0.0251998 0)
(0.994864 0.0126848 0)
(0.991725 0.0254363 0)
(0.991467 0.0217467 0)
(0.988707 0.0186973 0)
(0.989867 0.0336359 0)
(0.988618 0.0186204 0)
(0.989496 0.0285738 0)
(0.99103 0.0373899 0)
(0.990047 0.0156834 0)
(0.993052 0.0412893 0)
(0.994125 0.0372042 0)
(0.99419 0.0190547 0)
(0.998031 0.0467304 0)
(0.999929 0.043993 0)
(1.00028 0.0345549 0)
(1.00401 0.0198137 0)
(1.00798 0.0882422 0)
(1.01124 0.0411333 0)
(1.00878 0.0223389 0)
(1.0191 0.0661654 0)
(1.04311 -0.0728708 0)
(1.0453 -0.0669724 0)
(1.04613 -0.0565025 0)
(1.04591 -0.0501268 0)
(1.04464 -0.0370865 0)
(1.04295 -0.0313793 0)
(1.04041 -0.0165137 0)
(1.03798 -0.0131676 0)
(1.03436 0.00204998 0)
(1.03144 0.00133752 0)
(1.02679 0.0147397 0)
(1.02332 0.0111963 0)
(1.01798 0.0205217 0)
(1.01408 0.0179112 0)
(1.00886 0.0195342 0)
(1.00531 0.0233567 0)
(1.00079 0.015057 0)
(0.998036 0.0272409 0)
(0.995211 0.0137751 0)
(0.992291 0.0254372 0)
(0.992404 0.021436 0)
(0.989597 0.0173019 0)
(0.99091 0.032003 0)
(0.989622 0.016862 0)
(0.990411 0.0260828 0)
(0.992179 0.0353757 0)
(0.990959 0.0134221 0)
(0.993947 0.0384936 0)
(0.995271 0.0351627 0)
(0.994987 0.0166106 0)
(0.999028 0.0436336 0)
(1.00112 0.0417272 0)
(1.00144 0.032368 0)
(1.00512 0.0165226 0)
(1.00951 0.0848348 0)
(1.0134 0.0398741 0)
(1.01032 0.0192127 0)
(1.02139 0.0626066 0)
(1.03331 -0.0730428 0)
(1.03454 -0.0663197 0)
(1.03459 -0.0548487 0)
(1.03392 -0.0475524 0)
(1.03247 -0.0334279 0)
(1.03081 -0.026926 0)
(1.02851 -0.0110199 0)
(1.02659 -0.007148 0)
(1.02367 0.0088217 0)
(1.02156 0.00833026 0)
(1.01793 0.0222484 0)
(1.0155 0.0187111 0)
(1.0115 0.0279798 0)
(1.00874 0.0251814 0)
(1.00484 0.026156 0)
(1.00234 0.0297503 0)
(0.998794 0.0205476 0)
(0.996925 0.032448 0)
(0.994712 0.0183129 0)
(0.992371 0.0292869 0)
(0.992723 0.0252508 0)
(0.990253 0.0200604 0)
(0.991577 0.0348097 0)
(0.990243 0.0193507 0)
(0.991219 0.0277164 0)
(0.992853 0.037683 0)
(0.991802 0.0149143 0)
(0.994885 0.0395488 0)
(0.996225 0.0371498 0)
(0.996034 0.0174714 0)
(1.00029 0.0441898 0)
(1.00238 0.0431239 0)
(1.00266 0.0337616 0)
(1.00703 0.0158038 0)
(1.0109 0.085536 0)
(1.01563 0.0420948 0)
(1.01218 0.0189149 0)
(1.02434 0.0621112 0)
(1.0247 -0.072602 0)
(1.0252 -0.0654411 0)
(1.0248 -0.0535534 0)
(1.02384 -0.0458447 0)
(1.02222 -0.0313799 0)
(1.02049 -0.0246174 0)
(1.01822 -0.00853394 0)
(1.01635 -0.00460461 0)
(1.01374 0.0113318 0)
(1.01224 0.0107611 0)
(1.0094 0.0244524 0)
(1.008 0.0207888 0)
(1.00505 0.0295626 0)
(1.00353 0.0266074 0)
(1.00068 0.0269025 0)
(0.999353 0.0302658 0)
(0.996649 0.0204022 0)
(0.99556 0.0317436 0)
(0.994067 0.0172605 0)
(0.991974 0.0272088 0)
(0.992961 0.0231234 0)
(0.990504 0.017015 0)
(0.992149 0.0313195 0)
(0.991013 0.0160181 0)
(0.991844 0.0232949 0)
(0.993951 0.0336326 0)
(0.992711 0.0107848 0)
(0.995579 0.0343857 0)
(0.997481 0.0329141 0)
(0.99674 0.0130579 0)
(1.00119 0.0384738 0)
(1.00361 0.0386375 0)
(1.00398 0.0292597 0)
(1.00803 0.0103434 0)
(1.01244 0.0787631 0)
(1.01822 0.0387752 0)
(1.01389 0.0135379 0)
(1.02664 0.0555823 0)
(1.01458 -0.0683957 0)
(1.01429 -0.0606754 0)
(1.01323 -0.0480981 0)
(1.01192 -0.0399349 0)
(1.01019 -0.0248432 0)
(1.00855 -0.0178841 0)
(1.00659 -0.00128482 0)