/*--------------------------------*- C++ -*----------------------------------*\
| =========                 |                                                 |
| \\      /  F ield         | OpenFOAM: The Open Source CFD Toolbox           |
|  \\    /   O peration     | Version:  2312                                  |
|   \\  /    A nd           | Website:  www.openfoam.com                      |
|    \\/     M anipulation  |                                                 |
\*---------------------------------------------------------------------------*/
FoamFile
{
    version     2.0;
    format      ascii;
    arch        "LSB;label=32;scalar=64";
    class       volVectorField;
    location    "144";
    object      U;
}
// * * * * * * * * * * * * * * * * * * * * * * * * * * * * * * * * * * * * * //

dimensions      [0 1 -1 0 0 0 0];

internalField   nonuniform List<vector> 
5478
(
(-0.0373025 0.0258349 -1.34512e-19)
(-0.0422592 0.0396229 0)
(0.0316474 0.0308176 2.02123e-19)
(0.198671 0.00594536 -3.54453e-19)
(0.454515 -0.0231856 2.32577e-19)
(0.750163 -0.0492373 -6.88596e-20)
(1.02306 -0.0707604 -1.2018e-19)
(1.22755 -0.0904187 0)
(1.34492 -0.110538 0)
(1.3819 -0.132543 1.43508e-19)
(1.36427 -0.153586 -6.91189e-20)
(1.32394 -0.169245 -1.04663e-19)
(1.27672 -0.190019 -3.82596e-20)
(1.24323 -0.17997 0)
(1.19105 -0.217963 8.7089e-20)
(-0.0409142 0.0243745 2.69948e-19)
(-0.0126622 0.0206796 0)
(0.137062 -0.0022536 0)
(0.413726 -0.0252316 -1.78303e-19)
(0.748129 -0.0380199 2.34968e-19)
(1.04578 -0.0434334 6.76999e-20)
(1.25214 -0.0484982 -1.13119e-19)
(1.35801 -0.0580347 1.00318e-19)
(1.38548 -0.0732373 2.39127e-19)
(1.36932 -0.0907322 -2.07706e-19)
(1.33984 -0.106277 4.54735e-21)
(1.30816 -0.121414 0)
(1.27954 -0.126587 3.81906e-20)
(1.24422 -0.132753 0)
(1.20821 -0.139094 0)
(-0.036369 0.0197247 -7.16169e-22)
(0.0510644 0.000540599 -1.25914e-19)
(0.315737 -0.021588 6.75565e-22)
(0.6912 -0.0243571 0)
(1.02891 -0.0165153 -7.81399e-20)
(1.25118 -0.0106939 6.56432e-20)
(1.35737 -0.0128696 5.47787e-20)
(1.38479 -0.0226883 0)
(1.37487 -0.0358702 -7.97164e-20)
(1.35401 -0.0488431 6.59441e-20)
(1.32874 -0.0611406 5.40629e-20)
(1.30089 -0.0691459 0)
(1.26701 -0.0791648 0)
(1.23533 -0.0813659 -1.03194e-19)
(1.20093 -0.0917589 9.19669e-20)
(-0.0198552 0.0103693 -1.4646e-19)
(0.162357 -0.0194712 1.24275e-19)
(0.557084 -0.0175333 -1.07329e-19)
(0.959218 0.00575365 9.34072e-20)
(1.22612 0.0238598 1.55926e-19)
(1.35375 0.0290868 -1.29919e-19)
(1.39216 0.024162 -5.4753e-20)
(1.38908 0.0145012 4.21842e-20)
(1.37052 0.0034345 -4.0445e-20)
(1.34441 -0.0081079 0)
(1.31501 -0.0182646 0)
(1.28395 -0.029348 -7.58669e-20)
(1.25643 -0.035616 9.76308e-20)
(1.22983 -0.0420828 -5.4617e-20)
(1.20438 -0.0496471 0)
(0.0143816 -0.00235179 7.40498e-20)
(0.330116 -0.0252935 6.24832e-20)
(0.809023 0.0153011 -2.23028e-19)
(1.1614 0.0539094 2.98082e-21)
(1.33901 0.0709815 -2.93438e-21)
(1.3995 0.0718918 -1.91057e-21)
(1.40235 0.0647601 5.11256e-20)
(1.38199 0.0543549 4.34763e-20)
(1.35365 0.0426243 3.1073e-20)
(1.32488 0.0312129 -4.98534e-21)
(1.29788 0.0199964 -7.07883e-20)
(1.27369 0.0112459 0)
(1.24918 0.00336448 3.12233e-20)
(1.22469 -0.00498297 -2.27321e-20)
(1.20093 -0.00872092 4.14539e-20)
(0.0727698 -0.0124908 -1.57666e-19)
(0.536759 -5.83803e-05 1.70783e-19)
(1.01984 0.0701857 -5.78816e-20)
(1.29346 0.111011 4.37722e-20)
(1.39822 0.122156 -8.02614e-20)
(1.41416 0.117594 -5.95168e-20)
(1.39495 0.10687 1.54047e-21)
(1.36665 0.0942892 0)
(1.339 0.0816758 6.33157e-20)
(1.31293 0.0694409 -5.63048e-20)
(1.28767 0.0583875 2.243e-20)
(1.26187 0.0477643 0)
(1.23702 0.0382201 1.38022e-20)
(1.21383 0.0298051 -2.37737e-20)
(1.19075 0.0242528 0)
(0.156809 -0.0114786 -1.96876e-20)
(0.738606 0.056772 1.32973e-21)
(1.17595 0.139126 2.87446e-20)
(1.37129 0.17381 4.72388e-20)
(1.42025 0.176145 -3.58863e-20)
(1.40852 0.165163 6.04161e-20)
(1.38003 0.150828 -1.36975e-20)
(1.34993 0.136095 0)
(1.32083 0.121429 -3.73749e-20)
(1.29318 0.107462 2.43581e-21)
(1.26734 0.0942025 3.12492e-20)
(1.24425 0.0822979 0)
(1.22314 0.0719464 -2.02172e-20)
(1.20297 0.0617864 0)
(1.18504 0.0576336 1.23213e-20)
(0.260327 0.00753314 -2.10681e-20)
(0.90492 0.134147 0)
(1.27842 0.216872 2.92707e-20)
(1.40627 0.240272 0)
(1.41737 0.232183 0)
(1.3908 0.214749 0)
(1.35742 0.196145 -1.17333e-20)
(1.3256 0.177735 0)
(1.29723 0.160124 7.54823e-21)
(1.27208 0.143755 0)
(1.24931 0.12881 -9.81252e-21)
(1.22768 0.11509 0)
(1.20703 0.102129 6.40822e-21)
(1.18799 0.0914334 0)
(1.16932 0.0845941 4.17484e-21)
(-0.00948626 0.199164 -1.46734e-20)
(-0.0316673 0.319023 0)
(-0.0669278 0.325973 2.31901e-20)
(-0.10139 0.300133 0)
(-0.131888 0.263711 0)
(-0.157099 0.215568 0)
(-0.17614 0.151902 -1.6504e-20)
(-0.189026 0.0707665 0)
(-0.195667 -0.0279618 1.41584e-20)
(-0.194563 -0.142348 0)
(-0.18568 -0.267478 -2.29873e-20)
(-0.171382 -0.39617 0)
(-0.147146 -0.518407 1.67947e-20)
(-0.13067 -0.62271 0)
(-0.08733 -0.702889 1.08022e-20)
(-0.0200474 0.198444 7.51704e-20)
(-0.0362946 0.338064 -5.42156e-20)
(-0.050659 0.357484 2.56191e-20)
(-0.0607676 0.334301 8.8222e-20)
(-0.0648994 0.295483 1.72115e-21)
(-0.0615593 0.243538 -7.36952e-20)
(-0.050396 0.175989 4.99016e-20)
(-0.0321781 0.0913445 0)
(-0.00814305 -0.0102775 4.59644e-20)
(0.0229533 -0.126542 8.51809e-22)
(0.0626422 -0.252955 -2.53876e-20)
(0.103275 -0.385003 0)
(0.160928 -0.503534 -5.24278e-20)
(0.189762 -0.6111 0)
(0.256208 -0.67341 -5.20588e-20)
(-0.0278947 0.176684 1.2644e-19)
(-0.0396635 0.327697 2.78825e-20)
(-0.0329152 0.362142 -4.86899e-20)
(-0.0175247 0.344682 -1.35533e-19)
(0.00586647 0.305727 8.07382e-20)
(0.0378404 0.252427 7.81767e-20)
(0.0781215 0.184401 -1.40101e-19)
(0.124796 0.0999352 0)
(0.177682 -0.000670287 -1.24259e-19)
(0.239155 -0.116761 1.10483e-19)
(0.312227 -0.243035 4.95662e-20)
(0.386675 -0.380778 0)
(0.478513 -0.493194 3.56089e-20)
(0.526713 -0.60011 -5.60532e-20)
(0.616272 -0.643937 0)
(-0.0313071 0.139775 6.52101e-20)
(-0.0426306 0.288015 -1.709e-19)
(-0.0201221 0.336134 2.02533e-19)
(0.0168246 0.327406 -1.80119e-19)
(0.0639977 0.291146 -8.19634e-20)
(0.120181 0.238601 7.52064e-20)
(0.184175 0.171741 7.08042e-20)
(0.256171 0.0904101 6.43385e-20)
(0.338307 -0.00619322 -1.81741e-19)
(0.435522 -0.12086 -1.34089e-21)
(0.546492 -0.244974 4.86099e-20)
(0.659511 -0.379852 0)
(0.769959 -0.48607 6.6672e-20)
(0.828769 -0.583559 1.56555e-19)
(0.904696 -0.61892 -8.94844e-20)
(-0.0304649 0.0982782 3.27802e-22)
(-0.044767 0.227503 1.14831e-19)
(-0.0149475 0.281901 -1.0062e-19)
(0.0360128 0.281259 9.0328e-20)
(0.10073 0.249615 1.62129e-19)
(0.176123 0.199668 -1.48144e-19)
(0.262253 0.136028 -6.69595e-20)
(0.364006 0.0592745 -1.92663e-19)
(0.485994 -0.0343071 1.73209e-19)
(0.632029 -0.143655 0)
(0.785791 -0.257003 0)
(0.931151 -0.37388 1.50673e-19)
(1.03972 -0.448339 -3.21323e-19)
(1.09021 -0.530909 1.0739e-19)
(1.12077 -0.515101 0)
(-0.0278264 0.0627965 7.544e-22)
(-0.0460474 0.161412 -1.1385e-19)
(-0.0163167 0.210355 3.01799e-19)
(0.0411096 0.212323 -8.84658e-20)
(0.118535 0.18428 -8.02275e-20)
(0.215124 0.137939 7.2993e-20)
(0.336606 0.0775435 6.69955e-20)
(0.489011 0.00279703 1.21802e-19)
(0.670257 -0.0862432 -2.14211e-19)
(0.864247 -0.181475 9.38055e-20)
(1.0404 -0.272759 8.05732e-20)
(1.17365 -0.35632 0)
(1.24019 -0.403488 0)
(1.2488 -0.453924 1.64161e-19)
(1.21203 -0.428699 -1.4602e-19)
(-0.0272239 0.0394755 1.33195e-22)
(-0.0480896 0.104619 0)
(-0.0201482 0.137519 0)
(0.0444533 0.134371 1.75522e-19)
(0.145049 0.106171 -7.75296e-20)
(0.288047 0.0614103 6.92451e-20)
(0.476286 0.00374964 1.27958e-19)
(0.697547 -0.0625529 -1.13449e-19)
(0.925022 -0.133209 1.06168e-19)
(1.12316 -0.197804 -9.38982e-20)
(1.26307 -0.260127 -8.41368e-21)
(1.32892 -0.301403 0)
(1.32701 -0.334105 4.71704e-20)
(1.27614 -0.353472 0)
(1.20887 -0.333629 0)
(-0.0310466 0.0285911 -1.31561e-19)
(-0.0499784 0.0646983 0)
(-0.0130121 0.0764467 -1.9978e-19)
(0.0811201 0.0621632 3.51022e-19)
(0.24208 0.030301 -3.87002e-19)
(0.467037 -0.0109615 -7.0629e-20)
(0.727378 -0.0555448 1.22418e-19)
(0.980745 -0.0993071 0)
(1.18637 -0.140032 0)
(1.31887 -0.177182 -1.58642e-19)
(1.37049 -0.210635 -6.18999e-20)
(1.35854 -0.233279 1.16536e-19)
(1.30714 -0.255574 -4.72698e-20)
(1.24493 -0.262068 0)
(1.19913 -0.252455 -1.00067e-19)
(-0.0852303 -0.800529 0)
(-0.0573454 -0.821629 3.39701e-21)
(0.103208 -0.491075 -3.1513e-21)
(0.419153 0.0790883 0)
(0.585906 0.468342 0)
(0.719774 0.668636 -8.37289e-23)
(0.758857 0.628395 0)
(0.659416 0.706239 0)
(0.548287 0.665061 8.12349e-23)
(0.612451 0.19796 0)
(0.816373 -0.14573 0)
(0.937128 -0.369518 -1.16158e-22)
(0.923894 -0.418688 0)
(0.921955 -0.566922 -8.55603e-23)
(0.944266 -0.551744 -6.55036e-23)
(0.942736 -0.254931 0)
(0.953853 -0.0315569 -6.21405e-22)
(1.03094 0.418264 7.52612e-22)
(1.03392 0.545739 0)
(1.02666 0.439008 4.43744e-22)
(1.0748 0.294052 -5.69214e-22)
(1.06891 -0.305233 1.15202e-22)
(1.09219 -0.518977 -1.96536e-22)
(1.06656 -0.369412 1.87797e-22)
(1.11664 -0.188168 -2.2063e-22)
(1.15755 0.53162 0)
(1.18005 0.668709 -2.64844e-22)
(1.12828 -0.187698 2.53227e-22)
(1.03869 -0.511998 -1.19825e-22)
(1.061 0.0147511 0)
(1.02241 0.216199 -8.84563e-23)
(0.992684 0.0236915 0)
(0.982478 -0.050057 -3.93807e-23)
(0.981859 -0.00984116 -1.08538e-23)
(0.969751 0.00834825 1.15533e-24)
(0.959739 0.00445429 -8.28145e-24)
(0.959315 -0.000632349 0)
(0.951357 -0.000693041 2.49766e-24)
(0.22631 -0.770202 1.90457e-20)
(0.0948875 -0.828144 -9.35413e-23)
(-0.00342175 -0.625023 -8.44995e-21)
(0.220645 -0.0764314 8.0593e-21)
(0.423986 0.342609 0)
(0.632936 0.599955 8.43933e-23)
(0.718337 0.634098 -1.36943e-22)
(0.599478 0.754489 0)
(0.574044 0.677107 -8.18514e-23)
(0.687407 0.148655 0)
(0.867169 -0.226329 0)
(0.989818 -0.393767 1.1698e-22)
(0.98067 -0.418009 0)
(0.968252 -0.572828 2.62441e-21)
(0.976228 -0.564433 -2.216e-21)
(0.971779 -0.255739 2.35245e-21)
(0.935646 -0.051943 -2.24561e-21)
(1.00714 0.396976 -1.60279e-22)
(1.0154 0.537297 0)
(0.99203 0.433521 0)
(1.07779 0.29022 -1.07866e-22)
(1.08121 -0.296858 1.03283e-21)
(1.09263 -0.522662 -1.67514e-21)
(1.08265 -0.370089 7.73574e-22)
(1.0873 -0.203213 7.1491e-22)
(1.13802 0.519463 0)
(1.19406 0.667422 4.67325e-22)
(1.1523 -0.166172 0)
(1.04652 -0.511361 1.20241e-22)
(1.05594 0.0144719 -2.20439e-22)
(1.02546 0.21984 3.891e-22)
(1.00387 0.0268237 -4.57674e-23)
(0.994656 -0.0495292 7.68621e-23)
(0.988819 -0.00881933 2.53394e-24)
(0.976182 0.00977056 1.38344e-23)
(0.967523 0.00509109 -7.05542e-24)
(0.966887 -0.000108367 -6.82663e-25)
(0.957931 -0.000222056 6.53115e-25)
(0.571104 -0.68089 2.46857e-20)
(0.433221 -0.702535 -3.90116e-20)
(0.126439 -0.660966 5.11135e-21)
(0.168629 -0.269221 9.30073e-21)
(0.39032 0.15219 5.89869e-23)
(0.626146 0.504408 -9.56612e-23)
(0.718561 0.648631 1.39316e-22)
(0.585955 0.796211 -2.94697e-22)
(0.629505 0.682719 0)
(0.791575 0.126678 1.30173e-20)
(0.943172 -0.279455 -1.24144e-20)
(1.03551 -0.411191 -2.57562e-22)
(1.02336 -0.403391 0)
(0.985463 -0.561199 -5.30395e-21)
(0.980855 -0.577347 4.91765e-21)
(0.997258 -0.256643 -2.48228e-21)
(0.920231 -0.0667093 2.36872e-21)
(0.980976 0.379441 2.66013e-21)
(0.996193 0.53579 -2.22068e-21)
(0.963384 0.429373 0)
(1.07703 0.286833 0)
(1.09111 -0.277468 1.68931e-21)
(1.08608 -0.520095 -1.61267e-21)
(1.09217 -0.369412 -1.88536e-21)
(1.05057 -0.219938 -4.46971e-22)
(1.11316 0.500223 2.18671e-21)
(1.20027 0.666914 -5.14738e-23)
(1.16849 -0.134699 -6.14634e-22)
(1.04887 -0.502982 1.2577e-21)
(1.0466 0.0130564 -1.03736e-21)
(1.02494 0.222369 5.58016e-23)
(1.01136 0.0308012 -1.39468e-22)
(1.0038 -0.0480836 5.13368e-23)
(0.993045 -0.00742421 -4.90853e-23)
(0.979997 0.0111324 -9.31045e-24)
(0.973056 0.00566617 -5.03185e-24)
(0.972438 0.000482191 1.61732e-23)
(0.962517 0.000305149 2.48896e-24)
(0.818863 -0.645461 0)
(0.748735 -0.547951 1.23709e-20)
(0.464929 -0.544928 -1.21927e-20)
(0.278774 -0.39446 0)
(0.413498 -0.0602814 -6.06277e-23)
(0.649431 0.367641 9.82984e-23)
(0.711725 0.623703 0)
(0.570729 0.803993 3.28982e-23)
(0.671898 0.680391 -3.62689e-22)
(0.89295 0.125925 0)
(1.02739 -0.305081 -1.06358e-20)
(1.07816 -0.426938 1.04041e-20)
(1.07457 -0.386154 -4.0861e-22)
(1.0139 -0.535834 -5.45889e-21)
(0.976767 -0.593407 5.20524e-21)
(1.02203 -0.267491 3.08056e-22)
(0.916287 -0.0856118 0)
(0.957848 0.342127 -3.40538e-22)
(0.964277 0.521268 3.2593e-21)
(0.928187 0.421867 -4.41319e-22)
(1.06601 0.284909 3.03745e-22)
(1.09705 -0.256227 -2.37311e-21)
(1.07768 -0.516151 -2.88973e-21)
(1.09344 -0.370198 3.51951e-21)
(1.01218 -0.235213 -5.49142e-22)
(1.07979 0.463059 0)
(1.18987 0.654274 -4.26158e-22)
(1.1752 -0.105589 6.22726e-22)
(1.04792 -0.492137 -1.2718e-21)
(1.03343 0.00766426 1.04769e-21)
(1.02005 0.221732 -1.79201e-22)
(1.01451 0.0341041 0)
(1.00956 -0.0464577 -5.12588e-23)
(0.994477 -0.00594687 9.32106e-23)
(0.981275 0.0123115 2.90252e-23)
(0.976368 0.00611615 2.82623e-23)
(0.975927 0.00111721 -1.61845e-23)
(0.965099 0.000885729 -1.25772e-26)
(0.993418 -0.592527 4.0656e-22)
(0.892265 -0.498536 5.15167e-22)
(0.769909 -0.392074 0)
(0.51649 -0.352516 0)
(0.446085 -0.220703 0)
(0.59966 0.228382 0)
(0.662266 0.613727 7.85615e-21)
(0.554817 0.793968 -1.74072e-20)
(0.700946 0.647282 1.0224e-20)
(0.970252 0.127205 0)
(1.11149 -0.304009 -1.06864e-20)
(1.11475 -0.432628 1.0545e-20)
(1.10243 -0.368326 6.65524e-21)
(1.03793 -0.495754 -5.60714e-21)
(0.962247 -0.605728 5.35622e-21)
(1.03409 -0.28698 -5.42249e-21)
(0.91133 -0.0993006 -3.54764e-22)
(0.927592 0.323571 -4.82183e-21)
(0.938379 0.52304 4.59491e-21)
(0.90432 0.416046 2.82374e-22)
(1.05347 0.282934 2.81155e-22)
(1.09975 -0.229032 2.51425e-21)
(1.06877 -0.507582 -2.75883e-21)
(1.08402 -0.36912 -8.0241e-22)
(0.970924 -0.251307 -6.1153e-22)
(1.04057 0.428341 -6.30199e-22)
(1.17431 0.651457 0)
(1.17445 -0.0684425 0)
(1.04411 -0.474851 0)
(1.01755 0.00189361 0)
(1.01234 0.220728 4.55149e-22)
(1.01407 0.0378369 -2.60693e-22)
(1.0122 -0.0441962 1.01985e-22)
(0.993331 -0.00418911 -2.79933e-22)
(0.980281 0.0133629 2.95755e-23)
(0.977602 0.00645533 5.59988e-24)
(0.977402 0.00180368 -1.98825e-23)
(0.965766 0.00152128 -6.23337e-24)
(1.1004 -0.474738 -4.28122e-22)
(0.936382 -0.454734 2.73954e-20)
(0.853248 -0.346741 -2.6351e-20)
(0.746305 -0.259281 -4.74769e-21)
(0.583271 -0.264392 4.52134e-21)
(0.532872 0.0533235 7.44527e-21)
(0.542997 0.534823 -6.8831e-21)
(0.460647 0.764579 1.68058e-22)
(0.675134 0.627789 -3.32253e-22)
(1.01474 0.15338 0)
(1.18478 -0.266858 -3.98916e-22)
(1.16027 -0.417351 1.59343e-20)
(1.12784 -0.346808 -1.51703e-20)
(1.06992 -0.447418 -3.45565e-22)
(0.959493 -0.608386 0)
(1.03242 -0.316447 -6.05056e-21)
(0.912314 -0.12011 1.1932e-20)
(0.90299 0.273252 -5.44286e-21)
(0.900775 0.49941 0)
(0.867458 0.410019 1.96684e-21)
(1.03135 0.28816 -1.57031e-22)
(1.09831 -0.198755 -2.17203e-21)
(1.06337 -0.495504 -3.43455e-21)
(1.06513 -0.368424 3.31885e-21)
(0.933351 -0.264982 -5.24277e-21)
(0.996845 0.376162 9.77391e-22)
(1.13943 0.633856 4.1464e-21)
(1.16187 -0.0364883 -1.34848e-21)
(1.03918 -0.45696 1.28217e-21)
(0.99936 -0.00783427 -5.43228e-22)
(1.00052 0.216608 5.16559e-22)
(1.0095 0.0408728 0)
(1.01165 -0.0419032 1.01148e-22)
(0.989774 -0.00255105 -1.89419e-23)
(0.977299 0.0141499 0)
(0.976937 0.00663061 -2.72389e-23)
(0.976973 0.00250919 1.32456e-23)
(0.964699 0.00219681 -2.38335e-24)
(1.10606 -0.391763 0)
(0.989658 -0.368809 0)
(0.845011 -0.325663 -9.12935e-23)
(0.809864 -0.235174 0)
(0.756752 -0.226147 0)
(0.57286 0.000166445 1.45302e-22)
(0.502734 0.4878 -1.57201e-22)
(0.472008 0.698782 1.283e-20)
(0.729877 0.539561 -1.22171e-20)
(1.07809 0.117629 0)
(1.24274 -0.252692 -3.43832e-22)
(1.19318 -0.406551 2.66677e-22)
(1.14157 -0.33451 -1.25809e-20)
(1.09174 -0.397153 7.67964e-22)
(0.968318 -0.599999 1.04493e-20)
(1.01843 -0.35213 1.7753e-22)
(0.904229 -0.138027 -1.97377e-22)
(0.871219 0.259484 1.00352e-20)
(0.865268 0.504646 -9.9084e-21)
(0.84758 0.3987 0)
(1.01696 0.283275 0)
(1.0972 -0.167761 -1.12553e-22)
(1.06118 -0.477735 0)
(1.04107 -0.363069 4.37465e-21)
(0.894669 -0.280393 1.68257e-21)
(0.948515 0.336076 -5.05328e-21)
(1.10821 0.632311 -2.31784e-21)
(1.14675 -0.000482931 1.52452e-21)
(1.03463 -0.435587 -1.71558e-22)
(0.981129 -0.0160426 0)
(0.987791 0.213328 -2.54972e-22)
(1.00249 0.0437558 2.4172e-22)
(1.00858 -0.039509 5.65272e-23)
(0.984335 -0.000736793 2.41022e-23)
(0.972799 0.0148181 -4.24118e-23)
(0.974624 0.00671725 9.62915e-24)
(0.974831 0.00325811 0)
(0.962166 0.00290975 4.89457e-24)
(1.1152 -0.313848 6.13776e-20)
(1.03756 -0.314453 3.51298e-20)
(0.912735 -0.300722 -1.19847e-20)
(0.836377 -0.262634 -3.01349e-20)
(0.812073 -0.258486 9.38868e-21)
(0.664359 -0.115599 2.98021e-23)
(0.474415 0.351671 0)
(0.399315 0.653712 -5.08806e-23)
(0.703367 0.553374 -1.15255e-22)
(1.09926 0.180431 0)
(1.28645 -0.169004 -1.94049e-20)
(1.22388 -0.356031 1.85075e-20)
(1.16271 -0.313831 2.22545e-22)
(1.11051 -0.347969 1.06593e-20)
(0.985727 -0.57572 -1.01293e-20)
(0.994316 -0.378009 1.69421e-22)
(0.888947 -0.174458 2.09601e-22)
(0.835366 0.191097 0)
(0.827138 0.469274 6.30194e-21)
(0.806223 0.400362 -5.97727e-21)
(0.989586 0.299271 -1.94135e-21)
(1.09666 -0.127297 -1.21639e-22)
(1.06291 -0.456033 1.97684e-21)
(1.01491 -0.35033 -4.29701e-21)
(0.867871 -0.296631 -1.19172e-21)
(0.897021 0.271917 9.76329e-21)
(1.0544 0.605285 -3.4366e-21)
(1.12375 0.040399 8.88376e-22)
(1.03057 -0.413332 -6.03781e-22)
(0.962996 -0.0287271 0)
(0.971094 0.206163 0)
(0.992139 0.0469776 0)
(1.00313 -0.0367844 4.26998e-23)
(0.977456 0.000708753 -5.36362e-23)
(0.967142 0.0150441 3.76093e-23)
(0.97089 0.00658451 -2.45774e-23)
(0.971212 0.00395075 -1.02951e-23)
(0.958492 0.00360691 0)
(1.13793 -0.205556 0)
(1.08499 -0.211317 0)
(0.992784 -0.18817 0)
(0.902895 -0.152763 0)
(0.815973 -0.14127 0)
(0.70037 -0.0623887 0)
(0.578825 0.325666 0)
(0.666994 0.508233 0)
(1.01961 0.343095 0)
(1.26621 0.0750747 0)
(1.34666 -0.139268 0)
(1.23635 -0.299747 0)
(1.17377 -0.265877 0)
(1.13476 -0.270332 0)
(1.00762 -0.540435 0)
(0.966536 -0.421022 0)
(0.857562 -0.185317 0)
(0.80164 0.186958 0)
(0.767381 0.480274 0)
(0.770703 0.372154 0)
(1.00268 0.281375 0)
(1.11287 -0.106169 0)
(1.06787 -0.434802 0)
(0.984413 -0.361163 0)
(0.839305 -0.302862 0)
(0.857162 0.230871 0)
(1.00055 0.60678 0)
(1.11564 0.059553 0)
(1.0222 -0.395596 0)
(0.945562 -0.0361853 0)
(0.953491 0.203247 0)
(0.979461 0.0478503 0)
(0.994226 -0.0340365 0)
(0.967838 0.00332236 0)
(0.959289 0.0157038 0)
(0.964849 0.00655902 0)
(0.965269 0.00496235 0)
(0.953022 0.00453427 0)
(1.10709 -0.149946 0)
(1.0602 -0.172687 0)
(0.98548 -0.150616 0)
(0.92999 -0.133237 0)
(0.882805 -0.100039 0)
(0.808818 0.00520789 0)
(0.774829 0.303916 0)
(0.965315 0.344937 0)
(1.21482 0.211172 0)
(1.30144 0.0232768 0)
(1.31182 -0.149855 0)
(1.19314 -0.252768 0)
(1.12961 -0.249698 0)
(1.07423 -0.295677 0)
(0.969699 -0.502181 0)
(0.918167 -0.331628 0)
(0.77 -0.110031 0)
(0.724767 0.235282 0)
(0.664334 0.497637 0)
(0.752455 0.319678 0)
(1.01661 0.19972 0)
(1.1237 -0.1585 0)
(1.05183 -0.406256 0)
(0.928751 -0.299113 0)
(0.763598 -0.255949 0)
(0.776824 0.234471 0)
(0.933981 0.564315 0)
(1.10828 0.023526 0)
(1.00244 -0.367474 0)
(0.916592 -0.0131354 0)
(0.922927 0.200167 0)
(0.961033 0.0400314 0)
(0.979819 -0.0332431 0)
(0.952867 0.00688911 0)
(0.94697 0.0156715 0)
(0.954718 0.00581149 0)
(0.955629 0.00583498 0)
(0.94504 0.00548814 0)
(1.08886 -0.0966427 0)
(1.05752 -0.1086 0)
(1.00913 -0.0938599 0)
(0.971033 -0.0750433 0)
(0.930035 -0.0273655 0)
(0.888566 0.00916177 0)
(0.905909 0.210415 0)
(1.07635 0.20645 0)
(1.19932 0.11509 0)
(1.25551 0.00678866 0)
(1.25251 -0.0966698 0)
(1.1572 -0.199838 0)
(1.11754 -0.197295 0)
(1.09647 -0.201252 0)
(0.983742 -0.431692 0)
(0.83908 -0.297862 0)
(0.668344 -0.072948 0)
(0.623339 0.263715 0)
(0.60553 0.464124 0)
(0.790757 0.211854 0)
(1.01755 0.13171 0)
(1.14647 -0.135107 0)
(1.04922 -0.358065 0)
(0.877835 -0.264517 0)
(0.676405 -0.23139 0)
(0.672183 0.200163 0)
(0.894718 0.49806 0)
(1.12231 0.0212896 0)
(0.980386 -0.333483 0)
(0.883818 -0.00944173 0)
(0.89674 0.187361 0)
(0.944712 0.0340601 0)
(0.961601 -0.0310297 0)
(0.935298 0.0100019 0)
(0.932854 0.0150206 0)
(0.942249 0.00496921 0)
(0.943579 0.00669694 0)
(0.935824 0.00639247 0)
(1.07188 -0.0599766 0)
(1.05413 -0.0681944 0)
(1.02182 -0.057986 0)
(0.992292 -0.0516298 0)
(0.969773 -0.00764552 0)
(0.959507 0.00908785 0)
(0.969954 0.127878 0)
(1.08983 0.107601 0)
(1.14969 0.0842664 0)
(1.19213 -0.0124751 0)
(1.17838 -0.0843418 0)
(1.13597 -0.144225 0)
(1.06931 -0.191897 0)
(1.01843 -0.225742 0)
(0.952814 -0.357199 0)
(0.748751 -0.162503 0)
(0.615823 0.00766437 0)
(0.56233 0.268426 0)
(0.668078 0.401053 0)
(0.896739 0.129813 0)
(1.02735 0.0494503 0)
(1.15262 -0.174706 0)
(1.02427 -0.294745 0)
(0.822311 -0.170493 0)
(0.612236 -0.167934 0)
(0.572888 0.166234 0)
(0.875236 0.403901 0)
(1.13121 -0.0111726 0)
(0.9483 -0.284398 0)
(0.829905 0.0116487 0)
(0.863504 0.17424 0)
(0.928877 0.0236586 0)
(0.939426 -0.0297887 0)
(0.91424 0.0130339 0)
(0.916223 0.0137913 0)
(0.927318 0.00370346 0)
(0.929175 0.00711966 0)
(0.925866 0.00696156 0)
(1.0624 -0.0346174 0)
(1.04938 -0.0387751 0)
(1.03333 -0.0327093 0)
(1.01488 -0.0311457 0)
(0.998921 0.00774069 0)
(1.00389 0.00194136 0)
(1.00483 0.0814175 0)
(1.07976 0.0503177 0)
(1.10075 0.0447715 0)
(1.15327 -0.0127994 0)
(1.11841 -0.0692325 0)
(1.10996 -0.123827 0)
(1.07139 -0.126251 0)
(1.01005 -0.131826 0)
(0.956941 -0.272526 0)
(0.736509 -0.0793168 0)
(0.706433 0.047058 0)
(0.651115 0.226015 0)
(0.835348 0.287857 0)
(1.02373 0.0439351 0)
(1.04537 0.00955575 0)
(1.15469 -0.148653 0)
(1.00326 -0.220653 0)
(0.824692 -0.0952111 0)
(0.650772 -0.119227 0)
(0.533321 0.107718 0)
(0.870387 0.286157 0)
(1.13779 -0.01589 0)
(0.923167 -0.223497 0)
(0.770006 0.0266228 0)
(0.843644 0.152647 0)
(0.928684 0.0134935 0)
(0.921508 -0.0260103 0)
(0.894995 0.0158324 0)
(0.902805 0.0115347 0)
(0.914812 0.00211038 0)
(0.916203 0.00704979 0)
(0.917806 0.00703812 0)
(1.05566 -0.0172315 0)
(1.04611 -0.0187657 0)
(1.0414 -0.0158974 0)
(1.02629 -0.0185308 0)
(1.01962 0.00934378 0)
(1.02666 -0.00437393 0)
(1.02117 0.0475753 0)
(1.07505 0.0146077 0)
(1.06822 0.0258851 0)
(1.11629 -0.024172 0)
(1.08798 -0.0522392 0)
(1.07468 -0.0893272 0)
(1.03128 -0.111893 0)
(0.996274 -0.126291 0)
(0.969166 -0.198174 0)
(0.779689 0.000155668 0)
(0.834331 0.0610423 0)
(0.81268 0.16515 0)
(0.987796 0.191459 0)
(1.10786 0.0229111 0)
(1.04812 -0.0130719 0)
(1.12952 -0.154104 0)
(0.961524 -0.155085 0)
(0.85337 -0.0180432 0)
(0.779334 -0.0379282 0)
(0.611197 0.0744302 0)
(0.89362 0.151957 0)
(1.12904 -0.0375495 0)
(0.909868 -0.147414 0)
(0.745453 0.0436211 0)
(0.859978 0.117791 0)
(0.948443 0.000948017 0)
(0.916745 -0.01922 0)
(0.890588 0.0182718 0)
(0.905004 0.00797416 0)
(0.914244 0.000333057 0)
(0.913402 0.00646774 0)
(0.917883 0.00647778 0)
(1.05002 -0.005932 0)
(1.04321 -0.00731884 0)
(1.04465 -0.00578878 0)
(1.03386 -0.0111354 0)
(1.0316 0.00853303 0)
(1.03652 -0.00731069 0)
(1.03058 0.0262639 0)
(1.06442 -0.00304466 0)
(1.05112 0.011076 0)
(1.08682 -0.0284193 0)
(1.05882 -0.0391403 0)
(1.05808 -0.0719667 0)
(1.03101 -0.0752082 0)
(0.996531 -0.0705811 0)
(0.96442 -0.129815 0)
(0.839981 0.0224298 0)
(0.929602 0.0415892 0)
(0.923811 0.116084 0)
(1.03665 0.108912 0)
(1.11858 0.00418195 0)
(1.04741 0.00213677 0)
(1.11043 -0.109476 0)
(0.947277 -0.085778 0)
(0.886152 0.00350695 0)
(0.922466 -0.00132612 0)
(0.792548 0.0605909 0)
(0.950397 0.0621675 0)
(1.10869 -0.0334177 0)
(0.930881 -0.0739682 0)
(0.796491 0.0465592 0)
(0.914468 0.0777495 0)
(0.983145 -0.00560703 0)
(0.936743 -0.00777548 0)
(0.915887 0.0198023 0)
(0.932265 0.00408598 0)
(0.933834 -0.000273441 0)
(0.930428 0.0063206 0)
(0.933395 0.00583011 0)
(1.04538 0.00055733 0)
(1.04052 -0.000462753 0)
(1.0451 -0.000346817 0)
(1.03632 -0.00611311 0)
(1.0374 0.00627736 0)
(1.03853 -0.00884386 0)
(1.03523 0.0142334 0)
(1.05319 -0.0127406 0)
(1.04249 0.00458711 0)
(1.06409 -0.0296192 0)
(1.04362 -0.026726 0)
(1.04429 -0.052516 0)
(1.0147 -0.0566431 0)
(0.999605 -0.0512937 0)
(0.976565 -0.0872372 0)
(0.904561 0.0283906 0)
(0.972085 0.0122521 0)
(0.971112 0.0808141 0)
(1.04304 0.0636973 0)
(1.0811 0.00661103 0)
(1.03306 0.00579734 0)
(1.076 -0.0981435 0)
(0.957315 -0.0387735 0)
(0.93374 0.00280792 0)
(0.986945 0.0111991 0)
(0.925718 0.0651395 0)
(1.00212 0.00726855 0)
(1.06662 -0.0353307 0)
(0.951472 -0.0148006 0)
(0.883894 0.0516677 0)
(0.974663 0.0480052 0)
(1.00956 -0.00862094 0)
(0.965906 0.00326984 0)
(0.95709 0.0208212 0)
(0.970356 0.001636 0)
(0.964144 0.000678315 0)
(0.960633 0.00688725 0)
(0.960475 0.0055815 0)
(1.04138 0.00452953 0)
(1.03772 0.00254646 0)
(1.04328 0.00289746 0)
(1.03583 -0.00374528 0)
(1.03918 0.00511083 0)
(1.03661 -0.00906566 0)
(1.03644 0.0074982 0)
(1.0438 -0.0153426 0)
(1.03619 0.000658821 0)
(1.04894 -0.0267142 0)
(1.03103 -0.0193148 0)
(1.03641 -0.0383748 0)
(1.01132 -0.0403514 0)
(1.00742 -0.0260577 0)
(0.984531 -0.0565894 0)
(0.951737 0.026113 0)
(0.991607 -0.00206739 0)
(0.984404 0.0568888 0)
(1.03822 0.0339574 0)
(1.04921 0.000891965 0)
(1.03643 0.0160354 0)
(1.05003 -0.0685772 0)
(0.968696 -0.00520704 0)
(0.97345 -0.00319761 0)
(0.995363 0.00486155 0)
(0.987734 0.0552213 0)
(1.03147 -0.00887683 0)
(1.02672 -0.0150155 0)
(0.96761 0.0133098 0)
(0.958074 0.0385395 0)
(1.01699 0.0287075 0)
(1.02257 -0.0040218 0)
(0.991232 0.0117346 0)
(0.995365 0.0198589 0)
(1.00297 0.000834245 0)
(0.992853 0.00273321 0)
(0.991674 0.00791182 0)
(0.989644 0.00586541 0)
(1.0374 0.00650099 0)
(1.03445 0.00395807 0)
(1.04005 0.00449237 0)
(1.03402 -0.00200461 0)
(1.03744 0.00434298 0)
(1.03412 -0.00804047 0)
(1.03418 0.004181 0)
(1.03748 -0.014499 0)
(1.03047 -0.000947037 0)
(1.0398 -0.0217541 0)
(1.02318 -0.0138422 0)
(1.03272 -0.0254196 0)
(1.00789 -0.0287396 0)
(1.01236 -0.014064 0)
(0.993727 -0.0390629 0)
(0.979282 0.021113 0)
(1.00339 -0.0100557 0)
(0.990821 0.0383412 0)
(1.03712 0.0177826 0)
(1.02388 -0.000932327 0)
(1.03302 0.0161734 0)
(1.03232 -0.0533539 0)
(0.982038 0.00683668 0)
(1.00343 -0.007641 0)
(0.992549 0.00364311 0)
(1.00908 0.0464885 0)
(1.03184 -0.0165214 0)
(1.00588 -0.005332 0)
(0.990772 0.0213801 0)
(0.997142 0.0283434 0)
(1.02898 0.0210577 0)
(1.02427 0.000423674 0)
(1.0075 0.0141051 0)
(1.01923 0.017455 0)
(1.02063 0.00161541 0)
(1.01083 0.00452777 0)
(1.01276 0.00826269 0)
(1.01098 0.00614521 0)
(1.03333 0.00727093 0)
(1.03126 0.00442658 0)
(1.03589 0.00523608 0)
(1.03149 -0.000714003 0)
(1.03399 0.00386778 0)
(1.03142 -0.00603751 0)
(1.03063 0.00233715 0)
(1.03303 -0.0112766 0)
(1.02569 -0.0018677 0)
(1.03406 -0.0156691 0)
(1.01835 -0.010381 0)
(1.02942 -0.016154 0)
(1.00784 -0.0206648 0)
(1.0162 -0.00617484 0)
(1.00082 -0.0260448 0)
(0.995411 0.0150261 0)
(1.01071 -0.00987819 0)
(0.994733 0.0241587 0)
(1.03455 0.00891332 0)
(1.01077 -0.00238244 0)
(1.03193 0.0150338 0)
(1.02198 -0.0341695 0)
(0.991875 0.0118386 0)
(1.01685 -0.00626529 0)
(0.989152 0.00275381 0)
(1.01901 0.0332878 0)
(1.02779 -0.0121428 0)
(0.999571 0.00580907 0)
(1.00529 0.0205535 0)
(1.0092 0.0192474 0)
(1.02875 0.0176428 0)
(1.02422 0.00487036 0)
(1.01485 0.0140569 0)
(1.02826 0.0151326 0)
(1.0265 0.00346422 0)
(1.01917 0.00584136 0)
(1.02271 0.00811175 0)
(1.02192 0.006428 0)
(1.02938 0.00722382 0)
(1.02818 0.00472947 0)
(1.03143 0.00523938 0)
(1.02879 0.000659105 0)
(1.02993 0.00341897 0)
(1.02873 -0.00359492 0)
(1.02684 0.00142407 0)
(1.02939 -0.00756563 0)
(1.02228 -0.00195364 0)
(1.02956 -0.0102695 0)
(1.01626 -0.00753953 0)
(1.02652 -0.00973691 0)
(1.00944 -0.013748 0)
(1.01752 -0.00295203 0)
(1.00646 -0.0165227 0)
(1.00399 0.00929768 0)
(1.01439 -0.00779109 0)
(0.999478 0.0140802 0)
(1.03019 0.0046087 0)
(1.0061 -0.00196789 0)
(1.02743 0.0108087 0)
(1.0161 -0.0213349 0)
(0.999484 0.00943359 0)
(1.02104 -0.00428736 0)
(0.992987 0.00287162 0)
(1.02128 0.0233554 0)
(1.02037 -0.00697244 0)
(1.00172 0.00701203 0)
(1.01424 0.0162098 0)
(1.01231 0.0148499 0)
(1.02575 0.0148712 0)
(1.02367 0.0068013 0)
(1.018 0.0118756 0)
(1.02998 0.0123769 0)
(1.02745 0.00497331 0)
(1.02257 0.00612434 0)
(1.02611 0.00721862 0)
(1.02595 0.00630409 0)
(1.02567 0.00679287 0)
(1.02521 0.00491838 0)
(1.02732 0.00496767 0)
(1.02588 0.00188675 0)
(1.02618 0.0030533 0)
(1.02576 -0.0012728 0)
(1.02374 0.00102269 0)
(1.02594 -0.00410643 0)
(1.02016 -0.00158996 0)
(1.0257 -0.00593838 0)
(1.01579 -0.00507066 0)
(1.02353 -0.00560168 0)
(1.01145 -0.00855903 0)
(1.01767 -0.00173006 0)
(1.01014 -0.00957264 0)
(1.00907 0.00478747 0)
(1.01565 -0.00459414 0)
(1.00408 0.00740849 0)
(1.02506 0.00269404 0)
(1.00648 -0.0011031 0)
(1.02298 0.00714837 0)
(1.01385 -0.0106999 0)
(1.00514 0.00686251 0)
(1.02005 -0.000739431 0)
(0.998602 0.00297243 0)
(1.02032 0.0153622 0)
(1.01681 -0.00102496 0)
(1.0066 0.00787758 0)
(1.01671 0.0137955 0)
(1.01318 0.0121331 0)
(1.0235 0.0124754 0)
(1.02281 0.00906522 0)
(1.01941 0.0105668 0)
(1.02875 0.0105028 0)
(1.02655 0.00655831 0)
(1.0238 0.00644382 0)
(1.02657 0.00669546 0)
(1.02671 0.00641556 0)
(1.02243 0.00620152 0)
(1.02242 0.0050116 0)
(1.02372 0.00459174 0)
(1.02299 0.00284198 0)
(1.02294 0.0028259 0)
(1.02286 0.000599862 0)
(1.02126 0.00103143 0)
(1.02277 -0.00142883 0)
(1.01874 -0.000906835 0)
(1.02233 -0.00283966 0)
(1.0158 -0.00299156 0)
(1.02085 -0.00301722 0)
(1.01308 -0.00468517 0)
(1.01715 -0.00127061 0)
(1.01236 -0.00478703 0)
(1.01188 0.00193287 0)
(1.01551 -0.00201475 0)
(1.008 0.00343999 0)
(1.02062 0.00198796 0)
(1.00857 -0.000206971 0)
(1.01918 0.00434127 0)
(1.01297 -0.00411551 0)
(1.00884 0.00401795 0)
(1.01784 0.00166893 0)
(1.00436 0.00276116 0)
(1.01842 0.0104106 0)
(1.01443 0.00268767 0)
(1.0104 0.00612052 0)
(1.01727 0.0113514 0)
(1.0143 0.0100149 0)
(1.02148 0.00988642 0)
(1.02157 0.00979645 0)
(1.02015 0.00867047 0)
(1.02691 0.00857941 0)
(1.02531 0.00720322 0)
(1.02425 0.00606285 0)
(1.02611 0.0058926 0)
(1.02646 0.0061766 0)
(1.01963 0.00561985 0)
(1.01986 0.00495374 0)
(1.02065 0.00424799 0)
(1.02034 0.00346637 0)
(1.02022 0.00271584 0)
(1.02021 0.00193311 0)
(1.01915 0.00119143 0)
(1.02004 0.000489336 0)
(1.01754 -0.000239029 0)
(1.01961 -0.000671869 0)
(1.01567 -0.001426 0)
(1.01865 -0.00127525 0)
(1.01399 -0.00204722 0)
(1.01641 -0.000949505 0)