/*--------------------------------*- C++ -*----------------------------------*\
| =========                 |                                                 |
| \\      /  F ield         | OpenFOAM: The Open Source CFD Toolbox           |
|  \\    /   O peration     | Version:  2512                                  |
|   \\  /    A nd           | Website:  www.openfoam.com                      |
|    \\/     M anipulation  |                                                 |
\*---------------------------------------------------------------------------*/
FoamFile
{
    version     2.0;
    format      ascii;
    arch        "LSB;label=32;scalar=64";
    class       volVectorField;
    location    "2.5";
    object      U;
}
// * * * * * * * * * * * * * * * * * * * * * * * * * * * * * * * * * * * * * //

dimensions      [0 1 -1 0 0 0 0];

internalField   nonuniform List<vector> 
9200
(
(-0.0531546 0.0491514 9.27145e-20)
(-0.0572956 0.0879028 -1.64381e-19)
(0.0632115 0.0669538 7.39545e-20)
(0.302223 -0.00975281 1.35515e-19)
(0.615016 -0.112104 -1.23438e-19)
(0.912951 -0.20861 0)
(1.13192 -0.282762 0)
(1.25772 -0.330174 1.5753e-19)
(1.30866 -0.35362 -1.60157e-20)
(1.31223 -0.359252 -1.17207e-19)
(1.29159 -0.353239 -4.34365e-20)
(1.26175 -0.3405 6.37318e-20)
(1.23083 -0.32478 -8.52088e-21)
(1.20218 -0.308076 -4.58279e-20)
(1.17646 -0.290375 0)
(1.15335 -0.271753 6.02954e-20)
(1.1335 -0.254712 -7.95384e-20)
(1.11638 -0.240247 2.16949e-20)
(1.10667 -0.235726 1.31566e-20)
(1.09088 -0.22099 9.41473e-21)
(-0.0467104 0.0368691 4.48734e-21)
(-0.0114823 0.0452789 8.61646e-20)
(0.171387 0.00385523 1.53649e-19)
(0.476322 -0.0729255 0)
(0.81339 -0.154016 0)
(1.08686 -0.220352 0)
(1.25897 -0.266404 0)
(1.34 -0.293111 -1.13641e-19)
(1.35923 -0.304464 1.40555e-19)
(1.34491 -0.305237 4.78004e-20)
(1.31636 -0.299362 -4.95105e-20)
(1.28404 -0.289542 3.47901e-20)
(1.25281 -0.277832 -2.78729e-20)
(1.22458 -0.265683 -1.86961e-20)
(1.19935 -0.252877 1.20159e-19)
(1.17618 -0.23898 -7.27602e-20)
(1.15512 -0.223861 -1.11676e-20)
(1.13703 -0.212826 -2.29297e-21)
(1.12285 -0.201723 -1.65396e-20)
(1.11034 -0.204131 -9.39434e-21)
(-0.0343628 0.025268 -9.60887e-20)
(0.0562511 0.00735918 -9.14739e-20)
(0.315012 -0.0463365 8.07157e-20)
(0.671291 -0.112147 -1.44591e-19)
(0.999329 -0.168418 0)
(1.22551 -0.208955 0)
(1.34527 -0.234484 0)
(1.38733 -0.247977 -3.99977e-20)
(1.38448 -0.252888 0)
(1.36083 -0.252174 5.35415e-20)
(1.33008 -0.247887 -4.30633e-20)
(1.29843 -0.241169 -1.35251e-19)
(1.26838 -0.233018 1.16214e-19)
(1.24114 -0.224567 2.0086e-20)
(1.21675 -0.216049 -3.83011e-20)
(1.19427 -0.206356 -6.87373e-20)
(1.17298 -0.195007 1.78198e-20)
(1.15296 -0.183476 9.13195e-20)
(1.1364 -0.175071 -4.63276e-20)
(1.12275 -0.174404 0)
(-0.0138922 0.012936 1.03434e-19)
(0.148134 -0.0258475 1.87891e-19)
(0.484462 -0.0793892 1.69164e-19)
(0.86359 -0.126169 -2.22093e-19)
(1.15706 -0.159897 6.62181e-21)
(1.32941 -0.181979 2.23404e-19)
(1.40356 -0.194937 -9.8324e-20)
(1.41693 -0.201434 3.89065e-20)
(1.39989 -0.203553 0)
(1.37091 -0.202776 -2.61984e-20)
(1.33912 -0.200092 1.24147e-19)
(1.30804 -0.19589 -1.40121e-19)
(1.27877 -0.190452 -4.93926e-20)
(1.25208 -0.184659 4.8936e-20)
(1.22843 -0.179282 -5.30631e-20)
(1.20719 -0.173713 4.66294e-20)
(1.18678 -0.165913 0)
(1.16703 -0.157252 0)
(1.14837 -0.145908 7.11241e-21)
(1.13269 -0.14508 0)
(0.0166801 -0.000146791 1.08463e-19)
(0.26344 -0.051439 -1.49523e-19)
(0.663658 -0.0918723 -1.7534e-19)
(1.03565 -0.117024 0)
(1.28042 -0.133034 -6.73012e-20)
(1.40087 -0.143115 -5.13508e-20)
(1.43776 -0.14915 1.40953e-19)
(1.43058 -0.152556 -1.20531e-19)
(1.40495 -0.15417 6.03714e-20)
(1.37381 -0.154503 -2.90666e-20)
(1.34257 -0.153912 0)
(1.31287 -0.152427 5.20623e-20)
(1.28481 -0.149819 2.82672e-20)
(1.25867 -0.14647 4.33283e-20)
(1.23526 -0.143484 -3.97866e-20)
(1.21477 -0.140992 -2.84387e-20)
(1.19611 -0.138051 2.61417e-20)
(1.17771 -0.132177 -9.87479e-21)
(1.15923 -0.124654 7.80983e-21)
(1.14221 -0.119622 2.3589e-20)
(0.0582661 -0.0117679 2.31088e-19)
(0.3969 -0.0635823 -1.27912e-21)
(0.836196 -0.0825305 0)
(1.17897 -0.0884927 1.18162e-19)
(1.37129 -0.092789 -3.74187e-20)
(1.44727 -0.0968189 -5.63916e-20)
(1.4569 -0.100551 4.50351e-21)
(1.43682 -0.103821 4.29724e-20)
(1.40664 -0.106471 3.11733e-20)
(1.37464 -0.108439 -2.54938e-20)
(1.34379 -0.109814 -3.98337e-20)
(1.31493 -0.110655 -4.57495e-20)
(1.28778 -0.110652 7.34816e-20)
(1.26206 -0.109673 5.4381e-20)
(1.23843 -0.10849 -5.61769e-20)
(1.21789 -0.108216 3.21656e-20)
(1.20026 -0.108405 0)
(1.184 -0.107515 1.08199e-21)
(1.1676 -0.104143 -2.08139e-20)
(1.15081 -0.099133 2.76089e-20)
(0.11009 -0.0196043 -6.29236e-20)
(0.538433 -0.0582179 2.68268e-21)
(0.990423 -0.0530654 -4.91938e-20)
(1.29137 -0.0447352 -1.19736e-19)
(1.43391 -0.0428314 1.06164e-19)
(1.47407 -0.0451691 5.37055e-20)
(1.46423 -0.0493409 -9.55151e-20)
(1.4358 -0.0540136 -3.37016e-20)
(1.403 -0.0586092 6.50686e-20)
(1.37074 -0.0628452 7.3398e-20)
(1.34046 -0.0665991 -1.03302e-19)
(1.31259 -0.0699402 3.583e-20)
(1.28675 -0.0726752 -3.98793e-20)
(1.26214 -0.074314 1.25521e-20)
(1.2387 -0.0750953 -1.84014e-20)
(1.21758 -0.076178 2.79717e-20)
(1.19982 -0.0785128 -3.03118e-21)
(1.18492 -0.0814228 -3.06864e-20)
(1.17114 -0.0836036 7.94134e-21)
(1.15657 -0.0827581 0)
(0.170617 -0.021306 6.29695e-20)
(0.676699 -0.033766 -1.42562e-19)
(1.12004 -0.00639304 1.00598e-19)
(1.37407 0.0105247 1.8941e-20)
(1.47291 0.0138211 -1.01793e-19)
(1.4859 0.0098474 5.96425e-20)
(1.46325 0.00318934 0)
(1.43024 -0.00412791 0)
(1.39641 -0.0113828 -3.06172e-20)
(1.36429 -0.0182509 0)
(1.33431 -0.0245337 5.83303e-20)
(1.30678 -0.0303225 -6.57112e-20)
(1.28175 -0.0356725 5.35219e-20)
(1.25844 -0.0400726 -2.30978e-20)
(1.23594 -0.0430444 0)
(1.2146 -0.0451705 0)
(1.19578 -0.0478283 0)
(1.1804 -0.0521322 -1.77102e-20)
(1.16766 -0.0571695 1.99717e-20)
(1.15553 -0.061406 0)
(0.236579 -0.0147496 3.29302e-20)
(0.80177 0.00842919 -9.82648e-22)
(1.22193 0.0538593 0)
(1.42936 0.0741597 -8.40581e-21)
(1.49185 0.0751209 1.94727e-20)
(1.48502 0.0673588 2.60844e-20)
(1.45408 0.0570703 -2.38163e-20)
(1.41846 0.0464234 -8.23417e-21)
(1.3843 0.0360646 8.47366e-21)
(1.35274 0.0262286 0)
(1.32352 0.0171151 1.81716e-20)
(1.29658 0.00870863 -2.04304e-20)
(1.27221 0.000710592 -1.19655e-20)
(1.25021 -0.00668439 1.34578e-20)
(1.22949 -0.0126839 3.85742e-21)
(1.20923 -0.0168434 -7.22743e-21)
(1.18996 -0.0199042 0)
(1.173 -0.0232153 0)
(1.15896 -0.0276557 -1.03439e-20)
(1.14702 -0.0328851 6.13409e-21)
(0.303684 0.00147224 0)
(0.907226 0.06548 0)
(1.29534 0.124113 0)
(1.4597 0.143529 -6.717e-22)
(1.49332 0.139282 1.20764e-22)
(1.47283 0.126174 8.79714e-22)
(1.4372 0.11128 5.7475e-21)
(1.40066 0.0965617 -8.82879e-21)
(1.36688 0.0825911 1.36663e-20)
(1.33626 0.0695221 -5.98237e-21)
(1.30822 0.0574839 0)
(1.28228 0.04658 3.78154e-21)
(1.25863 0.0364327 0)
(1.23773 0.0266639 -2.48126e-21)
(1.21915 0.017611 4.01648e-21)
(1.20161 0.0101551 0)
(1.1842 0.00484626 0)
(1.16714 0.00123443 0)
(1.15149 -0.00158717 0)
(1.13817 -0.00465383 -1.2014e-21)
(-0.0298758 -0.00250121 -2.80409e-21)
(-0.110094 -0.0103232 0)
(-0.207226 -0.0168794 0)
(-0.278807 -0.0222093 -9.72042e-21)
(-0.320433 -0.0285597 1.75213e-20)
(-0.331666 -0.0367088 -3.49979e-22)
(-0.313133 -0.0456583 -3.18216e-21)
(-0.267391 -0.0547219 -4.57224e-21)
(-0.198686 -0.0620846 8.32097e-22)
(-0.11264 -0.0664937 1.95372e-21)
(-0.0157517 -0.0671514 0)
(0.0859243 -0.0641267 -4.06155e-22)
(0.187321 -0.0576954 0)
(0.284697 -0.0485682 1.21244e-21)
(0.375081 -0.0372108 -2.63113e-21)
(0.457132 -0.0248834 0)
(0.529639 -0.0117334 0)
(0.593334 0.000759665 0)
(0.647531 0.0132879 0)
(0.694861 0.0234639 -1.55019e-21)
(-0.0355963 0.0711 -1.21355e-20)
(-0.114687 0.0993563 2.34319e-20)
(-0.206008 0.0824062 0)
(-0.271342 0.049589 3.60461e-20)
(-0.306403 0.008119 -2.74484e-20)
(-0.309764 -0.0391838 -1.51336e-20)
(-0.282733 -0.0883322 2.01475e-21)
(-0.228779 -0.134709 2.36927e-20)
(-0.152411 -0.173365 -1.05939e-20)
(-0.0602503 -0.200594 0)
(0.0404884 -0.21493 0)
(0.143738 -0.217241 4.0546e-22)
(0.244501 -0.208991 -4.23433e-21)
(0.339741 -0.193019 2.67464e-21)
(0.426636 -0.170784 7.97794e-21)
(0.504844 -0.14612 -4.9157e-21)
(0.572623 -0.118766 0)
(0.632145 -0.0935524 0)
(0.681034 -0.0671487 -3.70502e-21)
(0.725113 -0.0471916 6.68335e-21)
(-0.0459957 0.132984 2.90472e-20)
(-0.120334 0.197183 -1.36265e-20)
(-0.195966 0.174486 2.16384e-21)
(-0.244367 0.118272 -3.38073e-20)
(-0.261883 0.0448836 6.24656e-20)
(-0.246828 -0.0391451 -3.78482e-20)
(-0.200879 -0.127145 0)
(-0.128889 -0.209451 0)
(-0.037307 -0.277655 -1.9578e-20)
(0.0653169 -0.324077 0)
(0.170544 -0.348758 6.94247e-22)
(0.272303 -0.353564 5.13234e-21)
(0.366862 -0.341666 5.6749e-21)
(0.452846 -0.318061 -4.67151e-21)
(0.528486 -0.285387 0)
(0.595326 -0.249084 0)
(0.651342 -0.208902 0)
(0.700661 -0.172001 -1.49828e-20)
(0.738716 -0.133652 1.0212e-20)
(0.775203 -0.104813 0)
(-0.0575886 0.173913 -2.90245e-20)
(-0.124546 0.272343 -3.75573e-21)
(-0.176639 0.251435 -2.60222e-20)
(-0.198803 0.178892 2.51769e-20)
(-0.189025 0.0791363 -2.22636e-20)
(-0.146248 -0.0372794 0)
(-0.0726895 -0.159677 -4.08213e-20)
(0.0237069 -0.273072 3.3137e-20)
(0.134541 -0.363709 -5.43167e-21)
(0.24836 -0.424069 -7.53631e-21)
(0.353732 -0.454306 2.95659e-20)
(0.447689 -0.457852 -1.25881e-20)
(0.52862 -0.440653 -2.53838e-21)
(0.597449 -0.409942 -2.31569e-22)
(0.654669 -0.36969 2.33767e-21)
(0.70401 -0.325216 1.2133e-20)
(0.743799 -0.276121 1.18862e-21)
(0.779873 -0.230216 -6.63304e-21)
(0.805411 -0.182604 -4.50247e-21)
(0.832891 -0.146049 0)
(-0.0667635 0.188916 -1.42547e-19)
(-0.126042 0.316188 1.32306e-19)
(-0.151094 0.305282 0)
(-0.141284 0.225389 -3.19531e-20)
(-0.0977163 0.106892 8.60794e-20)
(-0.0205598 -0.0353337 -5.28981e-20)
(0.0869209 -0.184078 1.70914e-19)
(0.2137 -0.319994 -1.76151e-19)
(0.342692 -0.42529 8.5826e-20)
(0.460868 -0.49317 -1.7361e-20)
(0.559949 -0.523113 2.15816e-20)
(0.638481 -0.521606 -4.62522e-21)
(0.698718 -0.497906 -1.98996e-20)
(0.744445 -0.461564 -2.59567e-21)
(0.779055 -0.418346 -2.22708e-21)
(0.807769 -0.372119 2.28686e-21)
(0.829994 -0.321441 0)
(0.852307 -0.272267 -1.45909e-20)
(0.866576 -0.219282 -3.17538e-21)
(0.885642 -0.177102 1.33828e-20)
(-0.0710287 0.179231 -7.84034e-20)
(-0.12441 0.324459 -3.68648e-20)
(-0.12413 0.3288 -6.88957e-20)
(-0.081418 0.250315 0)
(-0.00144299 0.121805 -5.7622e-20)
(0.115885 -0.0365698 1.61561e-19)
(0.262733 -0.201284 -2.39067e-19)
(0.418785 -0.349319 4.33664e-20)
(0.562002 -0.460967 -5.79091e-20)
(0.678011 -0.527887 7.78744e-20)
(0.762519 -0.552774 0)
(0.819015 -0.54468 3.34524e-20)
(0.854563 -0.515029 1.57892e-20)
(0.875834 -0.474843 -1.21754e-20)
(0.888663 -0.431964 1.11794e-20)
(0.898184 -0.389425 1.21502e-21)
(0.904924 -0.344901 -1.11683e-21)
(0.914828 -0.300333 2.37922e-21)
(0.91943 -0.248087 -7.27572e-22)
(0.931338 -0.205099 7.33143e-21)
(-0.0700113 0.152243 -8.33395e-20)
(-0.119815 0.299535 1.52177e-19)
(-0.0995725 0.317876 -2.50997e-21)
(-0.0268011 0.246134 1.99098e-19)
(0.0914333 0.115105 2.98466e-21)
(0.253038 -0.0491552 -2.27828e-19)
(0.441778 -0.219069 5.0029e-21)
(0.624374 -0.366825 1.32259e-19)
(0.773598 -0.47253 0)
(0.878327 -0.530712 -2.48863e-20)
(0.941287 -0.547534 -2.76672e-20)
(0.972599 -0.534135 1.12228e-19)
(0.983794 -0.502057 -4.7013e-20)
(0.983818 -0.461362 -2.86669e-20)
(0.979537 -0.42037 3.5598e-21)
(0.97472 -0.38269 -5.69067e-21)
(0.970678 -0.347235 0)
(0.970978 -0.312099 0)
(0.96786 -0.267046 2.77387e-21)
(0.973894 -0.229555 1.47936e-22)
(-0.0656541 0.118632 -8.70786e-20)
(-0.112661 0.250922 -7.76572e-20)
(-0.0771183 0.2747 -2.1664e-19)
(0.0233954 0.208772 1.31742e-19)
(0.183972 0.0804939 0)
(0.395276 -0.0808427 1.14584e-19)
(0.622415 -0.242769 -1.04588e-19)
(0.820199 -0.375932 -4.38268e-20)
(0.96216 -0.464648 0)
(1.04587 -0.508227 5.53988e-20)
(1.08325 -0.515753 -3.95661e-20)
(1.09055 -0.49931 -5.6961e-21)
(1.08181 -0.469209 -6.61743e-21)
(1.06655 -0.432653 -4.38345e-20)
(1.05076 -0.395774 -1.57305e-20)
(1.03677 -0.362403 5.46827e-20)
(1.02659 -0.334507 -5.93921e-22)
(1.02025 -0.30812 -1.8405e-20)
(1.01262 -0.274445 7.81116e-21)
(1.01447 -0.246173 0)
(-0.0607511 0.08801 -2.15742e-21)
(-0.102226 0.192756 -8.06079e-20)
(-0.0503866 0.210175 1.44393e-19)
(0.0828603 0.144963 0)
(0.292752 0.0211822 0)
(0.552489 -0.128258 0)
(0.80375 -0.268077 0)
(0.996993 -0.374788 2.09092e-19)
(1.11644 -0.440011 -1.51087e-19)
(1.17226 -0.467566 -5.54592e-20)
(1.18464 -0.467325 4.30795e-20)
(1.17299 -0.450159 3.12101e-20)
(1.15115 -0.424504 -2.29079e-20)
(1.12711 -0.39486 4.9149e-20)
(1.10469 -0.364375 -6.56185e-20)
(1.08539 -0.335596 3.33553e-20)
(1.07143 -0.313153 1.91141e-20)
(1.0602 -0.292211 -6.06853e-20)
(1.05163 -0.271777 2.45959e-20)
(1.04986 -0.251468 -5.80241e-21)
(-0.0569173 0.0650509 2.18744e-22)
(-0.0856814 0.136756 2.42897e-19)
(-0.00818411 0.13754 -2.18976e-19)
(0.170666 0.0671491 -1.34027e-19)
(0.436163 -0.0494023 1.22089e-19)
(0.729413 -0.176108 0)
(0.978266 -0.284018 0)
(1.14493 -0.359554 -1.61732e-19)
(1.2311 -0.401353 1.72335e-20)
(1.25834 -0.415628 1.196e-19)
(1.25079 -0.410941 -4.31504e-20)
(1.22704 -0.395266 -6.19278e-20)
(1.19856 -0.374664 9.2808e-21)
(1.17078 -0.351981 4.36116e-20)
(1.14552 -0.328313 0)
(1.1235 -0.304581 -3.12091e-20)
(1.10623 -0.285775 6.97977e-20)
(1.0912 -0.267989 5.87142e-21)
(1.08289 -0.259618 -2.9627e-20)
(1.07515 -0.242119 5.81683e-21)
(0.740414 0.0366626 1.06287e-21)
(0.782197 0.0486766 -2.71327e-23)
(0.81548 0.057933 2.28695e-23)
(0.841659 0.0647682 -1.94529e-23)
(0.862687 0.0698722 0)
(0.88055 0.0741211 4.21285e-22)
(0.895784 0.0775269 -4.06629e-22)
(0.908459 0.0799476 2.98043e-22)
(0.919213 0.0817903 -2.97604e-22)
(0.928593 0.0833631 1.53832e-23)
(0.936767 0.0846429 0)
(0.943873 0.0856247 -1.78142e-22)
(0.950092 0.0863736 3.29758e-22)
(0.955556 0.086929 -3.0227e-22)
(0.960366 0.0873178 2.62225e-22)
(0.964614 0.0875732 -1.22008e-22)
(0.968377 0.087724 0)
(0.971718 0.087792 1.01615e-22)
(0.97469 0.0877955 -9.21577e-23)
(0.977341 0.0877517 -8.18032e-23)
(0.979709 0.0876755 7.89925e-23)
(0.981828 0.0875813 -6.2559e-23)
(0.98373 0.087482 6.06461e-23)
(0.98544 0.0873903 0)
(0.98698 0.0873197 0)
(0.988369 0.0872856 0)
(0.989625 0.0873048 0)
(0.99076 0.0873933 -2.64312e-23)
(0.99179 0.087566 1.27682e-23)
(0.992726 0.087838 0)
(0.993579 0.0882264 1.16994e-23)
(0.994358 0.0887503 0)
(0.995071 0.0894323 1.05181e-23)
(0.995726 0.0902949 -3.07398e-23)
(0.996327 0.091361 -1.92989e-23)
(0.99688 0.0926553 2.79289e-23)
(0.99739 0.0942047 1.73554e-23)
(0.997862 0.0960375 -1.72202e-25)
(0.998301 0.0981842 7.9448e-24)
(0.998711 0.100677 -3.31231e-26)
(0.999096 0.103548 -3.20835e-25)
(0.999459 0.106834 -1.87516e-23)
(0.999803 0.110568 0)
(1.00013 0.114791 0)
(1.00045 0.119509 0)
(1.00074 0.124895 8.94694e-24)
(1.00104 0.130351 -3.33345e-25)
(1.00129 0.138223 7.23504e-24)
(1.00155 0.141549 5.07413e-24)
(1.00173 0.156213 1.07016e-25)
(0.76433 -0.0194622 -3.8319e-21)
(0.800044 0.00595847 3.76851e-21)
(0.827862 0.0257131 -2.85037e-21)
(0.849899 0.0399587 2.86934e-22)
(0.868604 0.0502157 4.32399e-21)
(0.885122 0.0584297 -1.92839e-21)
(0.899063 0.0648582 0)
(0.910657 0.0695486 1.03236e-23)
(0.920773 0.0731913 0)
(0.929732 0.0761989 1.59689e-23)
(0.937553 0.0786172 8.32694e-22)
(0.944403 0.0805381 -7.79688e-22)
(0.950445 0.082071 0)
(0.955774 0.0832734 2.81669e-23)
(0.96048 0.0841994 1.69139e-23)
(0.964652 0.0849059 0)
(0.96836 0.0854366 -4.13011e-22)
(0.971662 0.0858255 7.96908e-22)
(0.97461 0.0861025 -3.77523e-22)
(0.977246 0.0862936 0)
(0.979609 0.0864212 0)
(0.981731 0.0865048 -9.18769e-24)
(0.983641 0.0865621 3.01771e-22)
(0.985364 0.0866089 -5.51404e-24)
(0.986923 0.0866587 -2.51707e-22)
(0.988338 0.0867262 0)
(0.989625 0.0868274 -1.12187e-22)
(0.990797 0.086982 9.48279e-23)
(0.991867 0.0872111 1.28067e-23)
(0.992846 0.0875344 -2.47403e-23)
(0.993744 0.0879697 1.19309e-23)
(0.994573 0.0885344 2.26272e-23)
(0.995341 0.0892515 1.17986e-22)
(0.996053 0.0901443 -5.18768e-23)
(0.996715 0.0912364 0)
(0.997331 0.0925534 -1.01762e-22)
(0.997908 0.0941224 1.92273e-23)
(0.99845 0.0959723 5.08414e-23)
(0.998961 0.0981336 1.57393e-23)
(0.999446 0.100638 -1.46815e-23)
(0.999908 0.103521 0)
(1.00035 0.106815 3.64362e-23)
(1.00077 0.110556 -2.32468e-23)
(1.00118 0.114783 1.89654e-23)
(1.00158 0.119503 -1.00197e-24)
(1.00195 0.124891 -7.28471e-24)
(1.00232 0.130343 -1.15956e-23)
(1.00263 0.138215 8.41446e-24)
(1.00297 0.141534 -5.62248e-24)
(1.00317 0.156197 4.22759e-25)
(0.803032 -0.0658468 0)
(0.828748 -0.0304123 6.17419e-21)
(0.84861 -0.00353215 -5.9548e-21)
(0.863942 0.0164499 4.7019e-21)
(0.878282 0.0315155 -4.53576e-21)
(0.892269 0.0433585 -2.87688e-23)
(0.904227 0.0524793 0)
(0.914273 0.0593396 2.6161e-21)
(0.923353 0.0647524 -2.48431e-21)
(0.931563 0.0691324 -6.36218e-23)
(0.938825 0.072662 0)
(0.945286 0.0755353 -4.88963e-23)
(0.951051 0.0778605 -1.35328e-21)
(0.956172 0.0797037 1.26611e-21)
(0.960726 0.0811544 -1.04842e-21)
(0.964789 0.0822951 1.961e-21)
(0.968417 0.0831868 -1.82004e-21)
(0.971663 0.0838784 8.71721e-22)
(0.974572 0.0844117 0)
(0.977185 0.0848212 -2.19631e-23)
(0.979536 0.0851363 2.04183e-23)
(0.981657 0.085382 -1.90822e-23)
(0.983573 0.0855817 -1.76842e-23)
(0.985308 0.0857558 0)
(0.986883 0.0859218 2.52379e-22)
(0.988317 0.086096 -2.43705e-22)
(0.989627 0.086292 0)
(0.990831 0.0865247 -1.3934e-23)
(0.991939 0.0868123 2.63258e-23)
(0.992962 0.0871786 5.00614e-23)
(0.993907 0.0876508 -2.38178e-23)
(0.994786 0.0882515 1.59063e-22)
(0.995607 0.0890025 -2.39013e-23)
(0.996376 0.0899243 -1.88371e-22)
(0.997098 0.0910409 -3.9776e-23)
(0.997778 0.0923797 1.87726e-23)
(0.998421 0.0939684 8.73895e-23)
(0.999033 0.0958361 -1.02478e-22)
(0.999616 0.0980135 1.48704e-25)
(1.00018 0.100533 2.93906e-23)
(1.00071 0.103429 2.73074e-23)
(1.00123 0.106736 -2.50081e-23)
(1.00174 0.110489 -8.85188e-23)
(1.00223 0.114728 3.83766e-24)
(1.0027 0.119458 1.94226e-23)
(1.00315 0.124855 0)
(1.0036 0.130313 3.4805e-23)
(1.00398 0.138192 -1.34414e-23)
(1.00439 0.141513 -3.33786e-24)
(1.00462 0.156182 -3.3629e-24)
(0.850056 -0.0989594 4.30326e-23)
(0.86375 -0.0572146 -3.86487e-23)
(0.873596 -0.0268316 4.23155e-23)
(0.882087 -0.00401169 3.78743e-23)
(0.891372 0.0145549 0)
(0.901714 0.0294146 -5.40521e-23)
(0.911124 0.0407623 0)
(0.919292 0.0494985 -4.26518e-23)
(0.926967 0.0564701 2.25924e-21)
(0.934136 0.0620598 -4.12732e-21)
(0.940665 0.0666117 1.88196e-21)
(0.946605 0.0703976 -2.50928e-23)
(0.95197 0.0735094 2.20746e-23)
(0.956788 0.0760214 3.96146e-23)
(0.961124 0.0780399 -1.13076e-21)
(0.965031 0.0796538 1.3052e-22)
(0.968547 0.0809335 9.55877e-22)
(0.971714 0.0819429 7.98872e-22)
(0.974569 0.0827372 -7.96304e-22)
(0.977148 0.0833624 2.22677e-23)
(0.979479 0.0838566 -2.06958e-23)
(0.981592 0.0842523 1.93362e-23)
(0.983511 0.0845785 3.67337e-23)
(0.985257 0.0848601 5.10857e-22)
(0.986849 0.0851217 -5.26532e-22)
(0.988305 0.085385 -4.91036e-22)
(0.98964 0.0856679 4.74022e-22)
(0.99087 0.0859863 -2.78607e-25)
(0.992007 0.0863528 3.99134e-22)
(0.993068 0.0867802 -8.68708e-22)
(0.99406 0.0872901 3.92551e-22)
(0.99499 0.0879162 3.70336e-22)
(0.995864 0.0886932 -3.57608e-22)
(0.99669 0.0896408 0)
(0.997471 0.0907802 -1.19523e-22)
(0.998215 0.0921383 1.54175e-22)
(0.998925 0.0937443 7.22978e-23)
(0.999606 0.0956281 -3.39615e-23)
(1.00026 0.0978208 -3.18524e-23)
(1.0009 0.100355 0)
(1.00151 0.103266 -1.34633e-22)
(1.00211 0.106587 1.28686e-22)
(1.00269 0.110355 4.53802e-23)
(1.00326 0.114609 0)
(1.00382 0.119355 -3.26534e-23)
(1.00435 0.12477 3.1562e-23)
(1.00487 0.130242 -1.30212e-23)
(1.00531 0.138137 -9.86469e-24)
(1.0058 0.141471 0)
(1.00607 0.156161 3.35776e-24)
(0.89535 -0.122763 -9.35568e-21)
(0.899611 -0.0770568 9.05052e-21)
(0.900192 -0.0449318 6.01235e-23)
(0.902211 -0.0205797 0)
(0.906938 -0.00015622 0)
(0.913218 0.0168775 5.53008e-23)
(0.919573 0.030032 0)
(0.925603 0.0403539 -5.07778e-21)
(0.931566 0.0486871 4.93757e-21)
(0.93741 0.0554154 0)
(0.943031 0.0609731 2.89482e-23)
(0.948335 0.0656258 -3.04306e-21)
(0.953217 0.0694481 3.03399e-21)
(0.957668 0.0725475 7.70855e-26)
(0.961728 0.07506 -1.12853e-21)
(0.965423 0.077091 2.07714e-21)
(0.968781 0.0787249 -9.85115e-22)
(0.971833 0.0800352 0)
(0.974609 0.0810837 7.83842e-22)
(0.977135 0.0819216 -7.09789e-22)
(0.979435 0.0825931 0)
(0.981532 0.0831361 6.32572e-22)
(0.983447 0.0835837 -6.09925e-22)
(0.9852 0.0839659 -3.59292e-25)
(0.986808 0.0843106 0)
(0.988287 0.0846428 0)
(0.989651 0.0849878 -5.099e-22)
(0.990912 0.0853696 4.91379e-22)
(0.992082 0.0858045 0)
(0.993172 0.0863081 2.60423e-23)
(0.9942 0.0868866 0)
(0.995177 0.0875541 0)
(0.996108 0.0883514 -3.60503e-22)
(0.996991 0.0893155 3.91281e-22)
(0.997832 0.090474 0)
(0.998639 0.091851 -3.47034e-22)
(0.999416 0.0934733 2.60631e-22)
(1.00017 0.095371 3.47359e-23)
(1.0009 0.0975766 1.27405e-22)
(1.0016 0.100124 -1.22986e-22)
(1.0023 0.103047 0)
(1.00298 0.106383 0)
(1.00364 0.110167 0)
(1.00429 0.114438 -3.64367e-23)
(1.00493 0.119203 1.1e-22)
(1.00554 0.124639 -2.95648e-23)
(1.00613 0.130132 -2.91904e-24)
(1.00665 0.13805 -2.6743e-23)
(1.00721 0.141408 6.69204e-24)
(1.00753 0.156131 0)
(0.935403 -0.143815 2.74177e-22)
(0.932596 -0.0940793 -1.23331e-20)
(0.926388 -0.0601843 6.28622e-21)
(0.923078 -0.034022 7.17216e-21)
(0.923628 -0.0122065 -6.87057e-21)
(0.926314 0.00575558 0)
(0.929511 0.0200129 -5.52031e-21)
(0.933209 0.0314789 5.28248e-21)
(0.937283 0.0407738 4.51109e-21)
(0.941589 0.0483432 -4.3166e-21)
(0.946057 0.0547286 0)
(0.950491 0.0601893 -5.21694e-23)
(0.954713 0.064782 0)
(0.95869 0.0685961 -2.61636e-21)
(0.962418 0.0717376 4.80666e-21)
(0.965877 0.0742988 -2.24085e-21)
(0.969064 0.076371 0)
(0.971991 0.078041 -2.82456e-23)
(0.974677 0.079384 0)
(0.97714 0.0804633 4.24253e-25)
(0.979399 0.0813325 0)
(0.981472 0.0820376 0)
(0.983378 0.0826178 1.15041e-21)
(0.985133 0.0831082 -1.72673e-21)
(0.986753 0.0835394 1.10572e-21)
(0.988252 0.0839396 -5.27965e-22)
(0.989644 0.0843377 3.0921e-23)
(0.99094 0.0847574 -4.99765e-22)
(0.992149 0.0852291 4.53316e-22)
(0.99328 0.085773 4.27646e-22)
(0.994342 0.0864126 -4.52635e-24)
(0.995354 0.08715 -3.93299e-22)
(0.996332 0.0879941 3.69575e-22)
(0.997272 0.0889737 -4.00423e-22)
(0.998175 0.0901381 0)
(0.999046 0.0915246 -2.75032e-22)
(0.999889 0.0931601 4.46099e-23)
(1.00071 0.0950722 2.86144e-22)
(1.00151 0.0972917 0)
(1.0023 0.0998526 6.16211e-23)
(1.00307 0.10279 -1.10278e-22)
(1.00383 0.106141 1.06348e-22)
(1.00457 0.109942 0)
(1.00531 0.114232 -4.10923e-23)
(1.00602 0.119018 -1.02069e-22)
(1.00672 0.124479 6.67104e-23)
(1.00739 0.129998 4.96435e-23)
(1.00798 0.137944 0)
(1.00861 0.141331 0)
(1.00899 0.156098 6.62943e-24)
(0.971777 -0.165224 2.39362e-21)
(0.962584 -0.111866 -2.31384e-21)
(0.951621 -0.0743638 0)
(0.944506 -0.0456086 -1.54668e-23)
(0.94085 -0.0225019 3.83888e-23)
(0.939817 -0.00387566 0)
(0.940335 0.0116462 0)
(0.941724 0.024375 -3.57911e-23)
(0.943767 0.0346725 -2.93424e-24)
(0.946443 0.0430349 -4.01221e-21)
(0.949717 0.050104 3.81092e-21)
(0.953263 0.0561506 0)
(0.95679 0.0612516 0)
(0.960212 0.065511 -4.2379e-23)
(0.963496 0.0690423 3.84643e-23)
(0.966609 0.0719471 0)
(0.969536 0.0743216 -1.99415e-21)
(0.972274 0.0762542 1.95109e-21)
(0.974824 0.0778221 1.65817e-21)
(0.977194 0.079092 -1.67345e-21)
(0.979391 0.0801217 0)
(0.981426 0.0809611 1.35739e-21)
(0.983312 0.0816538 -1.3084e-21)
(0.985061 0.0822374 1.16201e-21)
(0.986687 0.0827454 1.35045e-23)
(0.988201 0.0832085 -1.12667e-21)
(0.989615 0.0836546 -1.02032e-21)
(0.990942 0.0841107 1.0135e-21)
(0.992188 0.0846071 0)
(0.993364 0.08517 0)
(0.994475 0.0858339 0)
(0.995531 0.086615 -5.04382e-23)
(0.996545 0.0875273 0)
(0.99753 0.0885657 3.60685e-22)
(0.998492 0.0897601 -6.45719e-22)
(0.999429 0.0911568 3.699e-22)
(1.00034 0.0927962 -7.68259e-23)
(1.00123 0.0947119 -3.5929e-23)
(1.00211 0.0969369 -2.98749e-22)
(1.00297 0.0995056 1.92778e-22)
(1.00382 0.102454 0)
(1.00466 0.105818 -5.2816e-23)
(1.00549 0.109636 -4.7527e-23)
(1.00631 0.113948 0)
(1.00711 0.11876 0)
(1.00789 0.124252 0)
(1.00864 0.129804 -2.09164e-23)
(1.00931 0.13779 2.34059e-23)
(1.01 0.141216 1.35801e-23)
(1.01046 0.156041 -6.60923e-24)
(1.00592 -0.186353 1.27948e-21)
(0.990508 -0.13097 -1.23587e-21)
(0.975803 -0.0884675 -3.02781e-21)
(0.965544 -0.0567338 2.89157e-21)
(0.958734 -0.0325428 -4.01294e-23)
(0.954765 -0.0136785 0)
(0.952681 0.00159126 3.33412e-23)
(0.951598 0.0150089 7.00969e-23)
(0.951335 0.0261796 4.1157e-21)
(0.952033 0.0352563 -4.02967e-21)
(0.95377 0.0430407 3.67772e-21)
(0.956158 0.0498831 -2.05856e-22)
(0.958831 0.0558347 -3.15907e-21)
(0.961634 0.0609124 4.40974e-23)
(0.964478 0.06517 -3.99994e-23)
(0.967274 0.0686944 -2.29782e-21)
(0.969966 0.0715884 4.28198e-21)
(0.972528 0.073955 -9.16463e-23)
(0.974951 0.0758862 -1.80434e-21)
(0.977228 0.0774603 1.60065e-21)
(0.979363 0.0787438 -1.56637e-21)
(0.98136 0.0797939 0)
(0.983225 0.0806602 -1.2851e-21)
(0.984968 0.0813862 2.52626e-21)
(0.986598 0.0820104 -1.23952e-21)
(0.988127 0.0825673 1.15117e-21)
(0.989564 0.0830886 -1.07446e-21)
(0.990919 0.0836036 1.0059e-21)
(0.992202 0.0841412 -9.38039e-22)
(0.993421 0.0847281 -9.10775e-22)
(0.99458 0.0853971 8.49201e-22)
(0.995689 0.0861752 -3.34766e-22)
(0.996756 0.0870854 3.47429e-22)
(0.997785 0.0881478 0)
(0.998793 0.0893774 -4.4175e-23)
(0.999786 0.0908052 -4.17234e-23)
(1.00076 0.0924681 3.51003e-22)
(1.00173 0.0944014 -3.37e-22)
(1.00268 0.0966408 -2.36967e-22)
(1.00362 0.0992225 2.93125e-22)
(1.00455 0.102184 0)
(1.00547 0.105563 2.61033e-22)
(1.00639 0.109397 -2.44184e-22)
(1.00729 0.113729 8.18054e-24)
(1.00818 0.118564 7.76413e-23)
(1.00905 0.124085 0)
(1.00989 0.129665 -2.12117e-23)
(1.01063 0.137684 2.06181e-23)
(1.01139 0.141145 1.06596e-23)
(1.01194 0.15601 0)
(1.03677 -0.205395 5.04779e-21)
(1.01696 -0.151919 -4.85607e-21)
(0.998331 -0.103218 5.97495e-22)
(0.985138 -0.0654952 -2.89122e-21)
(0.975471 -0.038586 5.67351e-21)
(0.968061 -0.0187211 -3.32888e-21)
(0.963885 -0.00189757 -3.51067e-23)
(0.961592 0.0124788 -3.44467e-23)
(0.95956 0.0237057 3.31659e-23)
(0.958539 0.0327692 -1.40751e-23)
(0.958952 0.040462 -2.94714e-23)
(0.960292 0.0472442 2.71403e-23)
(0.962051 0.0532474 -3.04514e-21)
(0.964042 0.0584782 2.93222e-21)
(0.966211 0.0629543 0)
(0.968482 0.0667222 1.91275e-23)
(0.970782 0.0698551 -1.74037e-23)
(0.973058 0.0724411 0)
(0.975273 0.0745641 1.84051e-21)
(0.977403 0.0762992 -1.74382e-21)
(0.979435 0.0777129 -2.52422e-23)
(0.981361 0.0788652 -1.48288e-21)
(0.983183 0.0798095 1.4264e-21)
(0.984902 0.080594 2.04174e-23)
(0.986524 0.0812614 1.2523e-21)
(0.988056 0.08185 -1.18552e-21)
(0.989507 0.082394 0)
(0.990885 0.0829251 0)
(0.992195 0.08347 9.64055e-22)
(0.993448 0.0840637 -9.71575e-22)
(0.994649 0.0847227 -1.70227e-25)
(0.995803 0.0855054 -2.67665e-23)
(0.996919 0.0864175 -7.34545e-22)
(0.998006 0.0874855 8.03467e-22)
(0.999074 0.0887272 3.63089e-22)
(1.00013 0.0901686 -3.48786e-22)
(1.00117 0.0918424 0)
(1.0022 0.0937845 -2.62012e-22)
(1.00322 0.0960323 2.87972e-22)
(1.00424 0.0986239 2.87901e-25)
(1.00525 0.101598 -2.34892e-22)
(1.00626 0.104994 1.97922e-22)
(1.00726 0.108851 0)
(1.00826 0.113213 0)
(1.00923 0.118085 6.97458e-23)
(1.01019 0.123655 -6.69049e-23)
(1.01111 0.129287 -2.15486e-23)
(1.01194 0.137381 3.04246e-24)
(1.01277 0.140894 -5.21523e-24)
(1.01342 0.15587 0)
(1.0601 -0.218906 -1.66157e-23)
(1.04213 -0.175458 0)
(1.02282 -0.127951 2.91046e-21)
(1.00623 -0.0878812 -3.48498e-21)
(0.993394 -0.0578558 6.49082e-22)
(0.983167 -0.0351844 1.1226e-23)
(0.975576 -0.0166298 0)
(0.970418 -0.00101638 0)
(0.96693 0.012268 0)
(0.964665 0.0229953 1.49147e-23)
(0.96375 0.0319136 3.46646e-21)
(0.964018 0.0398743 -3.33459e-21)
(0.964946 0.0470041 -3.11318e-21)
(0.966261 0.0532427 2.99318e-21)
(0.967871 0.0585846 0)
(0.969689 0.0630743 1.97163e-23)
(0.971629 0.0667998 2.24606e-21)
(0.973623 0.0698702 -4.26833e-21)
(0.975621 0.0723913 7.4494e-23)
(0.977588 0.074457 3.65756e-21)
(0.9795 0.0761483 -1.70022e-21)
(0.981345 0.0775356 -1.56169e-21)
(0.983113 0.0786795 1.50041e-21)
(0.984803 0.0796336 2.16255e-23)
(0.986414 0.0804448 -2.03438e-23)
(0.987951 0.0811548 1.22238e-21)
(0.989416 0.0818013 -1.17379e-21)
(0.990817 0.0824194 0)
(0.992161 0.0830409 1.03886e-21)
(0.993452 0.0837039 -1.96734e-21)
(0.994701 0.0844329 9.75228e-22)
(0.995911 0.0852836 0)
(0.997079 0.0862442 -2.63742e-23)
(0.998214 0.0873254 -2.49861e-23)
(0.999333 0.0885668 -7.51871e-22)
(1.00045 0.0900067 7.20988e-22)
(1.00155 0.0916798 0)
(1.00265 0.0936226 3.09185e-22)
(1.00375 0.0958724 -2.96328e-22)
(1.00484 0.0984676 -2.97644e-22)
(1.00594 0.101447 2.52997e-22)
(1.00703 0.104852 2.79284e-23)
(1.00812 0.10872 0)
(1.00921 0.113099 0)
(1.01028 0.11799 7.11241e-23)
(1.01133 0.12359 -6.80724e-23)
(1.01234 0.129245 0)
(1.01326 0.137376 0)
(1.01413 0.140928 -9.13266e-24)
(1.01492 0.155887 3.53889e-24)
(1.07212 -0.209665 0)
(1.05755 -0.172121 0)
(1.04081 -0.124933 0)
(1.02571 -0.0828833 0)
(1.01169 -0.0515477 0)
(0.99779 -0.0297201 0)
(0.987264 -0.0132253 0)
(0.981193 0.00127244 0)
(0.976848 0.0135406 0)
(0.973093 0.0228252 0)
(0.970632 0.030354 0)
(0.969485 0.0373152 0)
(0.969227 0.0439679 0)
(0.969619 0.050112 0)
(0.970531 0.0555647 0)
(0.971812 0.0602668 0)
(0.973325 0.0642475 0)
(0.974976 0.0675817 0)
(0.976697 0.0703587 0)
(0.978442 0.0726643 0)
(0.980177 0.0745753 0)
(0.981881 0.0761591 0)
(0.98354 0.0774751 0)
(0.985147 0.078576 0)
(0.986698 0.0795094 0)
(0.988193 0.0803181 0)
(0.989633 0.0810423 0)
(0.991023 0.0817184 0)
(0.992367 0.0823841 0)
(0.993671 0.0830694 0)
(0.994944 0.0838171 0)
(0.996178 0.0846405 0)
(0.997368 0.0855498 0)
(0.998534 0.0865864 0)
(0.999696 0.0878009 0)
(1.00086 0.0892252 0)
(1.00202 0.090889 0)
(1.00318 0.0928265 0)
(1.00434 0.0950743 0)
(1.0055 0.0976709 0)
(1.00667 0.100657 0)
(1.00784 0.104073 0)
(1.00901 0.10796 0)
(1.01017 0.112367 0)
(1.01133 0.117297 0)
(1.01245 0.122947 0)
(1.01354 0.128667 0)
(1.01454 0.136882 0)
(1.01544 0.140508 0)
(1.01638 0.155687 0)
(1.08221 -0.188819 0)
(1.06563 -0.149164 0)
(1.04586 -0.103748 0)
(1.0312 -0.0650097 0)
(1.01905 -0.0369898 0)
(1.00525 -0.0183606 0)
(0.994005 -0.00492583 0)
(0.98759 0.00678633 0)
(0.983135 0.017083 0)
(0.979132 0.0254993 0)
(0.976189 0.0324771 0)