/*--------------------------------*- C++ -*----------------------------------*\
| =========                 |                                                 |
| \\      /  F ield         | OpenFOAM: The Open Source CFD Toolbox           |
|  \\    /   O peration     | Version:  2312                                  |
|   \\  /    A nd           | Website:  www.openfoam.com                      |
|    \\/     M anipulation  |                                                 |
\*---------------------------------------------------------------------------*/
FoamFile
{
    version     2.0;
    format      ascii;
    arch        "LSB;label=32;scalar=64";
    class       volVectorField;
    location    "32.5";
    object      U;
}
// * * * * * * * * * * * * * * * * * * * * * * * * * * * * * * * * * * * * * //

dimensions      [0 1 -1 0 0 0 0];

internalField   nonuniform List<vector> 
13248
(
(-0.0170132 0.0158932 4.18772e-20)
(-0.0374918 0.0375175 0)
(-0.0446164 0.0513555 -7.26888e-20)
(-0.0394668 0.0588491 6.73067e-20)
(-0.0228216 0.0618258 6.2255e-20)
(0.00511656 0.0619936 0)
(0.0447763 0.0608081 0)
(0.0970323 0.0594629 1.4894e-19)
(0.162766 0.0588948 3.99133e-22)
(0.242294 0.0597779 -1.2913e-19)
(0.334836 0.0625247 1.21078e-19)
(0.438241 0.0672605 -7.52305e-20)
(0.54904 0.0738152 0)
(0.662797 0.0817362 -1.31542e-19)
(0.774591 0.0903956 2.44677e-19)
(0.879711 0.0989618 -5.79984e-20)
(0.973801 0.106855 -1.04294e-19)
(1.05393 0.112913 9.7227e-20)
(1.11783 0.117875 0)
(1.16484 0.11858 0)
(1.19653 0.121158 0)
(1.21181 0.113177 0)
(1.21816 0.117569 2.91527e-20)
(1.21204 0.0956002 1.05378e-19)
(-0.0178739 0.0141656 -1.25852e-19)
(-0.0372122 0.0318086 7.93402e-20)
(-0.0406047 0.0420974 -2.95969e-22)
(-0.0286763 0.0471082 -1.01622e-19)
(-0.00159044 0.048929 -6.21709e-20)
(0.041104 0.0493924 -5.77536e-20)
(0.100273 0.0500485 -1.06692e-19)
(0.176606 0.052149 9.90447e-20)
(0.269806 0.0565917 0)
(0.377897 0.0638333 -1.06478e-22)
(0.496981 0.0738238 -5.13944e-22)
(0.621577 0.0860114 7.43518e-20)
(0.745359 0.0994419 0)
(0.862032 0.112918 0)
(0.966143 0.125232 8.90039e-20)
(1.0536 0.135296 -1.65871e-19)
(1.12213 0.142411 9.9737e-20)
(1.17124 0.14616 -9.29843e-20)
(1.20208 0.146684 -4.09594e-20)
(1.21754 0.144234 -7.53507e-20)
(1.2207 0.139866 -3.16285e-20)
(1.21587 0.133009 -5.9488e-20)
(1.20677 0.128829 8.59248e-20)
(1.19544 0.117725 2.48189e-20)
(-0.0188368 0.0127397 0)
(-0.0354759 0.0266295 0)
(-0.0320527 0.0337121 3.6522e-20)
(-0.00892564 0.0368034 3.34973e-20)
(0.0343265 0.0384233 -3.2356e-22)
(0.0985483 0.0406678 -5.83477e-20)
(0.18421 0.0452143 0)
(0.290255 0.053221 -4.94776e-20)
(0.413151 0.0651423 4.58913e-20)
(0.546759 0.0806109 -2.2383e-22)
(0.683137 0.098499 -7.90093e-20)
(0.813887 0.117161 -7.30132e-20)
(0.93151 0.134781 5.19625e-22)
(1.03042 0.149718 -6.13705e-20)
(1.10749 0.16081 1.44755e-19)
(1.16218 0.167449 0)
(1.19628 0.169843 -9.51299e-20)
(1.21327 0.168265 4.58806e-20)
(1.21784 0.164429 4.09158e-20)
(1.21438 0.157865 0)
(1.20742 0.152522 3.36882e-20)
(1.19911 0.144006 -1.16581e-19)
(1.19257 0.141741 1.0887e-19)
(1.18517 0.131534 7.009e-20)
(-0.0194441 0.0113247 -4.30298e-20)
(-0.0308991 0.0216203 -4.09714e-20)
(-0.016489 0.0262032 3.71444e-20)
(0.0234813 0.0285854 0)
(0.0896739 0.0317941 0)
(0.182356 0.0382069 -5.2202e-22)
(0.299704 0.0493955 0)
(0.436408 0.065831 -1.48648e-19)
(0.583621 0.0867082 1.3742e-19)
(0.730484 0.110124 -1.69513e-19)
(0.866371 0.133578 3.92603e-20)
(0.982863 0.154589 0)
(1.0749 0.171226 6.55493e-20)
(1.1411 0.182437 -1.20997e-19)
(1.18336 0.188101 2.86952e-20)
(1.20595 0.18896 7.5058e-20)
(1.21435 0.186139 -2.2458e-21)
(1.21414 0.181146 -8.26512e-20)
(1.2097 0.175012 0)
(1.20422 0.168694 0)
(1.19878 0.163078 -3.03234e-20)
(1.19427 0.156645 2.74109e-20)
(1.18927 0.15409 9.98803e-20)
(1.18525 0.145161 -9.32294e-20)
(-0.0190683 0.00965653 -4.43171e-20)
(-0.0217472 0.0165112 -4.13368e-20)
(0.00890129 0.0197413 1.14425e-19)
(0.072247 0.0233483 -6.93392e-20)
(0.168207 0.0308001 6.42354e-20)
(0.294356 0.0444491 1.17038e-19)
(0.443601 0.0649688 -8.14681e-20)
(0.603982 0.0910727 -9.92428e-20)
(0.761153 0.119888 9.71232e-22)
(0.901966 0.147882 1.26664e-19)
(1.01725 0.171877 0)
(1.10301 0.18978 3.48392e-20)
(1.1601 0.200873 0)
(1.19304 0.205681 -5.79227e-20)
(1.20827 0.205583 8.10922e-20)
(1.21234 0.202215 9.83679e-22)
(1.21066 0.197138 -2.15099e-20)
(1.20668 0.191334 4.07958e-20)
(1.20219 0.185556 3.52609e-20)
(1.19748 0.17973 -3.18893e-20)
(1.19271 0.174541 3.03093e-20)
(1.18725 0.168459 -2.7398e-20)
(1.18184 0.165055 0)
(1.17637 0.156862 -2.12036e-20)
(-0.0169537 0.00759811 4.43061e-20)
(-0.00607126 0.011338 4.26777e-20)
(0.0469748 0.0149212 -3.8275e-20)
(0.140411 0.0224777 7.04637e-20)
(0.271315 0.0375089 -6.52738e-20)
(0.43119 0.0613732 5.91826e-20)
(0.604761 0.0924546 -2.77343e-20)
(0.773441 0.126739 7.43815e-20)
(0.920895 0.159418 -4.60198e-20)
(1.03702 0.186513 8.24399e-20)
(1.11903 0.205832 -1.89182e-19)
(1.17018 0.217116 6.89437e-20)
(1.19739 0.221579 -6.17307e-20)
(1.20862 0.22116 5.74654e-20)
(1.21074 0.217777 5.06504e-20)
(1.20853 0.212916 4.51704e-20)
(1.20456 0.207419 -1.24751e-19)
(1.19993 0.201755 7.73278e-20)
(1.19487 0.195977 -3.52552e-20)
(1.18959 0.190258 9.30989e-20)
(1.18411 0.184661 -2.97472e-20)
(1.17892 0.178791 -7.45808e-20)
(1.1741 0.174835 6.88544e-20)
(1.16966 0.167255 2.11953e-20)
(-0.0122857 0.0052049 0)
(0.0181106 0.00659829 2.98155e-22)
(0.1002 0.012955 7.89268e-20)
(0.229388 0.0279084 -7.27751e-20)
(0.396408 0.0538949 -6.56727e-20)
(0.583039 0.0895179 1.20796e-19)
(0.765601 0.12958 -5.55767e-20)
(0.923273 0.167627 7.45979e-20)
(1.04416 0.19859 -1.09608e-21)
(1.1263 0.220074 -4.17528e-20)
(1.17513 0.23227 9.26041e-20)
(1.19962 0.237034 -1.35636e-19)
(1.20882 0.23677 0)
(1.20974 0.233574 -2.69628e-20)
(1.20676 0.22888 -7.30192e-20)
(1.20213 0.223466 2.26108e-20)
(1.19687 0.217731 6.45196e-22)
(1.19138 0.211838 -5.23436e-20)
(1.186 0.205938 2.20058e-21)
(1.18081 0.200137 6.02191e-20)
(1.17597 0.194461 -2.73869e-20)
(1.17146 0.188969 -1.08822e-20)
(1.16701 0.184332 3.24358e-20)
(1.16329 0.177622 0)
(-0.00425281 0.00274888 0)
(0.0525566 0.00331587 2.15886e-20)
(0.170022 0.0156744 -1.01627e-19)
(0.337763 0.0417904 3.67864e-20)
(0.53582 0.0809533 -3.40744e-20)
(0.735019 0.127129 -3.09713e-20)
(0.908028 0.171745 -5.49295e-20)
(1.03924 0.20802 2.65823e-20)
(1.12643 0.232978 2.34405e-20)
(1.17671 0.247097 0)
(1.2009 0.252814 5.44215e-20)
(1.20921 0.252997 -8.09783e-20)
(1.20912 0.249986 6.00959e-20)
(1.20519 0.245306 2.69743e-20)
(1.19975 0.239801 -2.25662e-20)
(1.19393 0.233916 -1.94673e-20)
(1.18821 0.227874 -1.83544e-20)
(1.18276 0.22182 5.31182e-20)
(1.17759 0.215816 0)
(1.17266 0.209915 2.76286e-20)
(1.16791 0.204084 2.39505e-20)
(1.1633 0.198477 -5.81446e-20)
(1.15906 0.193145 -4.09102e-20)
(1.15509 0.186999 3.76117e-20)
(0.00791995 0.000690319 -2.46751e-20)
(0.0984636 0.00296976 -8.02174e-22)
(0.25607 0.0252515 2.06437e-20)
(0.460351 0.0657191 5.71234e-20)
(0.677708 0.117824 1.66912e-20)
(0.872042 0.170499 -3.1452e-20)
(1.02071 0.214197 2.85404e-20)
(1.11908 0.244552 -2.5151e-20)
(1.17505 0.261961 4.49271e-20)
(1.20131 0.26939 1.94685e-20)
(1.20976 0.270298 -5.43042e-20)
(1.20897 0.267467 1.62208e-20)
(1.20412 0.262697 2.80735e-20)
(1.19788 0.256995 -1.35734e-20)
(1.19146 0.250877 0)
(1.18527 0.244587 2.09991e-20)
(1.17942 0.238245 3.61723e-20)
(1.17386 0.231901 6.78657e-21)
(1.16855 0.225596 -3.02728e-20)
(1.16353 0.219371 1.29523e-20)
(1.15885 0.213246 0)
(1.1546 0.207441 -1.04333e-20)
(1.15066 0.201572 -9.96734e-21)
(1.14721 0.196038 0)
(0.0248195 -0.000294226 0)
(0.156021 0.0073854 1.19546e-20)
(0.355455 0.0436817 2.19022e-20)
(0.588497 0.0999057 -5.81861e-20)
(0.809553 0.161874 1.8432e-20)
(0.984289 0.2157 0)
(1.10169 0.254151 2.76759e-20)
(1.16884 0.27681 -3.81929e-20)
(1.20029 0.287052 -2.23817e-20)
(1.21031 0.289136 1.01534e-20)
(1.20933 0.286566 -1.65399e-20)
(1.20366 0.281629 3.95235e-20)
(1.19652 0.27559 2.03145e-20)
(1.18926 0.269065 -1.36533e-20)
(1.18234 0.262329 -9.46244e-22)
(1.17584 0.255507 -3.9318e-20)
(1.16978 0.248668 1.79351e-20)
(1.16413 0.241868 -4.36564e-22)
(1.15889 0.235161 0)
(1.15408 0.228584 -1.29651e-20)
(1.14968 0.222187 0)
(1.1456 0.216023 3.02926e-20)
(1.14188 0.209721 -3.63446e-20)
(1.13832 0.20454 1.66197e-20)
(0.0466706 0.000581441 -6.82695e-21)
(0.224005 0.0183824 -3.04374e-20)
(0.462694 0.0721309 3.41775e-20)
(0.712176 0.142963 1.99232e-20)
(0.922192 0.209927 -9.32436e-21)
(1.06888 0.260185 1.56815e-20)
(1.15497 0.291025 -7.47867e-21)
(1.19627 0.305861 1.25211e-20)
(1.21014 0.309952 0)
(1.20985 0.307881 2.86206e-20)
(1.20353 0.302715 -8.88623e-22)
(1.19534 0.296148 -2.31318e-20)
(1.18702 0.288985 1.00555e-20)
(1.17917 0.281577 -1.15521e-20)
(1.17191 0.274084 -4.60864e-21)
(1.16526 0.266592 5.03263e-21)
(1.15916 0.259163 -4.02557e-21)
(1.15356 0.251837 -2.21444e-20)
(1.14841 0.244645 1.35325e-20)
(1.1437 0.237623 2.84832e-21)
(1.1394 0.2308 2.54359e-21)
(1.13554 0.224181 2.27345e-21)
(1.13201 0.217584 0)
(1.12857 0.21244 0)
(0.0733116 0.00417754 6.83521e-21)
(0.299766 0.0375035 -6.33511e-21)
(0.570722 0.110572 -1.14531e-20)
(0.822905 0.192601 0)
(1.01142 0.259535 -4.65665e-21)
(1.1276 0.30301 -4.15944e-21)
(1.18607 0.325385 -7.07776e-21)
(1.20765 0.332993 0)
(1.20966 0.331958 0)
(1.20314 0.326571 0)
(1.19388 0.319261 0)
(1.18435 0.311189 0)
(1.1754 0.302845 -6.36569e-21)
(1.16725 0.29444 2.88941e-21)
(1.15986 0.286069 5.11195e-21)
(1.15316 0.277789 2.38922e-21)
(1.14706 0.269637 6.03321e-21)
(1.14151 0.261646 0)
(1.13651 0.253853 -1.50754e-21)
(1.13204 0.246298 -1.4463e-21)
(1.12809 0.23901 -2.54759e-21)
(1.12457 0.231954 -2.27703e-21)
(1.12133 0.225104 0)
(1.1181 0.219685 1.7113e-21)
(-0.0028348 0.0259099 4.15144e-21)
(-0.0115384 0.0448706 -3.96117e-21)
(-0.026026 0.04578 -7.36063e-21)
(-0.0428574 0.0378471 0)
(-0.0606325 0.0263323 -9.52232e-21)
(-0.078778 0.0135989 2.91777e-21)
(-0.0969364 0.000282627 -5.5635e-21)
(-0.114947 -0.0136707 0)
(-0.132851 -0.0284795 0)
(-0.15072 -0.0442564 0)
(-0.168627 -0.0610307 0)
(-0.186663 -0.0787813 0)
(-0.204901 -0.0974688 -5.02165e-23)
(-0.223398 -0.117011 -3.5403e-21)
(-0.242185 -0.137299 6.89744e-21)
(-0.261263 -0.15818 9.76892e-21)
(-0.280605 -0.179451 3.19026e-21)
(-0.300166 -0.200859 0)
(-0.319862 -0.222098 2.78459e-21)
(-0.339496 -0.242817 -7.92755e-21)
(-0.358743 -0.262598 -5.07448e-21)
(-0.37745 -0.280908 -4.83396e-21)
(-0.395961 -0.297135 0)
(-0.414536 -0.310899 0)
(-0.00479102 0.0318723 -1.25907e-20)
(-0.0146035 0.0586286 1.99016e-20)
(-0.028477 0.0643943 -7.54278e-21)
(-0.0439852 0.0593342 -1.39184e-20)
(-0.0601505 0.0494168 1.92638e-20)
(-0.0765502 0.0375553 -1.21266e-20)
(-0.0929164 0.0248137 1.6806e-20)
(-0.109143 0.0113538 1.07717e-20)
(-0.125225 -0.00290047 0)
(-0.141209 -0.0180055 -9.30599e-21)
(-0.157206 -0.0339895 -2.41436e-22)
(-0.173333 -0.0508311 8.03512e-21)
(-0.189679 -0.0684701 1.18512e-20)
(-0.206319 -0.0868246 1.49716e-20)
(-0.223327 -0.105838 -6.65499e-21)
(-0.240748 -0.125391 -1.97343e-20)
(-0.258618 -0.145335 6.54293e-21)
(-0.276974 -0.165478 -2.40551e-20)
(-0.295844 -0.185587 0)
(-0.315144 -0.205389 5.32195e-21)
(-0.334573 -0.224565 5.06717e-21)
(-0.353896 -0.242707 4.82701e-21)
(-0.373682 -0.259263 0)
(-0.395265 -0.273746 0)
(-0.00716545 0.0365188 0)
(-0.0183452 0.0701878 4.1523e-20)
(-0.0311965 0.0807562 -1.53401e-20)
(-0.0446667 0.0787839 1.41695e-20)
(-0.0583529 0.0707216 -4.01025e-20)
(-0.0720554 0.0599702 0)
(-0.0855909 0.0479795 -2.34437e-20)
(-0.0988625 0.0351921 1.10014e-20)
(-0.111867 0.0216846 -2.08932e-20)
(-0.124662 0.00743672 1.01638e-20)
(-0.137321 -0.00755481 5.53452e-20)
(-0.149884 -0.0232545 -2.5754e-20)
(-0.162399 -0.0396095 -4.08258e-20)
(-0.174997 -0.0566009 -1.61519e-20)
(-0.187779 -0.0741252 -4.66977e-22)
(-0.200753 -0.0920798 5.5193e-20)
(-0.213963 -0.110353 -2.59232e-20)
(-0.227461 -0.128788 -3.74886e-22)
(-0.241321 -0.14719 0)
(-0.255563 -0.165318 -2.23579e-20)
(-0.269951 -0.182907 0)
(-0.284057 -0.199674 -1.97074e-20)
(-0.298257 -0.215245 7.4065e-20)
(-0.315226 -0.229141 3.43528e-22)
(-0.00969559 0.0393883 0)
(-0.0224331 0.0785534 4.91507e-22)
(-0.0340532 0.0936489 1.60334e-20)
(-0.0450325 0.0949369 -1.50135e-20)
(-0.0556358 0.0890185 1.33215e-20)
(-0.0659431 0.0796464 7.72801e-20)
(-0.0758871 0.0686261 -2.38981e-20)
(-0.0853959 0.0566645 -2.28502e-20)
(-0.0944503 0.0439844 4.2365e-20)
(-0.103076 0.0306526 -5.98882e-20)
(-0.111315 0.0167136 1.88575e-20)
(-0.119215 0.00220877 1.80338e-20)
(-0.126848 -0.0128428 0)
(-0.134201 -0.0284006 1.56458e-20)
(-0.141275 -0.0443568 0)
(-0.148147 -0.0606416 2.88078e-20)
(-0.154824 -0.0771368 -5.4136e-20)
(-0.161289 -0.0937019 1.19048e-20)
(-0.167569 -0.110162 4.76528e-20)
(-0.173704 -0.126295 2.23349e-20)
(-0.179587 -0.141846 0)
(-0.184689 -0.156597 -5.95509e-20)
(-0.188581 -0.170355 1.8548e-20)
(-0.193741 -0.183245 0)
(-0.0120865 0.0402853 0)
(-0.0264687 0.0831401 -5.23258e-20)
(-0.036875 0.102224 -1.64645e-20)
(-0.0452261 0.106819 -3.02961e-20)
(-0.0524678 0.103302 2.80716e-20)
(-0.0589984 0.0955907 -2.59699e-20)
(-0.0649097 0.0857694 4.9578e-20)
(-0.070187 0.0747913 2.33904e-20)
(-0.0748122 0.0630389 -6.47286e-20)
(-0.0787881 0.0506625 4.13047e-20)
(-0.0821322 0.0377364 -5.78205e-20)
(-0.0848648 0.0243097 1.28762e-19)
(-0.0870016 0.0104256 -6.84979e-20)
(-0.0885364 -0.00384902 3.29636e-20)
(-0.0894386 -0.0184912 9.32716e-20)
(-0.0896552 -0.0334259 -2.8004e-20)
(-0.0891275 -0.0485409 -2.70917e-20)
(-0.0877946 -0.0637073 -2.54414e-20)
(-0.0855844 -0.0787495 0)
(-0.0824526 -0.0934352 -4.59039e-20)
(-0.0783938 -0.107464 -4.2965e-20)
(-0.0729751 -0.120644 6.00523e-20)
(-0.066451 -0.132337 7.40223e-20)
(-0.0543624 -0.143501 -6.92607e-20)
(-0.0140763 0.0392963 0)
(-0.0300605 0.0838405 -7.21958e-20)
(-0.0394737 0.106097 -5.46528e-22)
(-0.0453744 0.113828 6.17226e-20)
(-0.0493109 0.112847 0)
(-0.0520112 0.107021 0)
(-0.053762 0.0986067 0)
(-0.0546436 0.0887616 -2.37354e-20)
(-0.0546661 0.078027 -5.7651e-22)
(-0.0538271 0.0666455 4.16045e-20)
(-0.0521212 0.0547323 -5.9317e-20)
(-0.0495352 0.042352 -4.59309e-22)
(-0.0460381 0.0295463 0)
(-0.0415734 0.0163505 -3.29499e-20)
(-0.0360501 0.002796 3.21447e-20)
(-0.0293469 -0.0110632 -8.88146e-20)
(-0.0213144 -0.0251585 1.12089e-19)
(-0.0117996 -0.0393742 2.71348e-20)
(-0.000662804 -0.0535438 5.10552e-22)
(0.0122811 -0.0674669 -9.2414e-20)
(0.0265846 -0.0808739 -4.32553e-20)
(0.0442862 -0.0931629 1.40059e-19)
(0.0592286 -0.104745 -9.31178e-20)
(0.0903472 -0.111561 0)
(-0.0154943 0.0367535 3.90662e-20)
(-0.0329087 0.081026 3.62757e-20)
(-0.0416809 0.105378 -3.42559e-20)
(-0.0455693 0.115786 -6.32325e-20)
(-0.0465476 0.117253 5.8588e-20)
(-0.0456476 0.113402 -5.50662e-20)
(-0.0433702 0.106524 7.69115e-20)
(-0.0399169 0.0979215 -2.38347e-20)
(-0.0353456 0.0882744 4.49534e-20)
(-0.0296533 0.0779189 0)
(-0.0227995 0.0670213 4.10073e-20)
(-0.0147082 0.055665 -7.56365e-20)
(-0.00526195 0.0438918 7.19878e-20)
(0.00570649 0.0317262 -6.70101e-20)
(0.0184149 0.019192 0)
(0.0331182 0.00632653 6.00052e-20)
(0.0500862 -0.0067989 1.13866e-19)
(0.0695983 -0.0200615 -1.05928e-19)
(0.0917031 -0.0332814 -4.99093e-20)
(0.117142 -0.0462094 -4.64097e-20)
(0.143682 -0.0586138 1.29995e-19)
(0.177766 -0.069454 3.95708e-20)
(0.2015 -0.0819797 -3.73168e-20)
(0.258171 -0.0836391 3.33465e-20)
(-0.0162933 0.0331498 -3.90758e-20)
(-0.0348873 0.075433 1.12285e-19)
(-0.0434188 0.100632 -3.48387e-20)
(-0.0458549 0.112966 6.42549e-20)
(-0.0443983 0.116513 -5.95348e-20)
(-0.0403066 0.114503 8.15397e-23)
(-0.0342728 0.109147 2.59733e-20)
(-0.0266168 0.101811 9.85117e-20)
(-0.017435 0.0932736 1.0648e-21)
(-0.00669143 0.0839571 -4.23787e-20)
(0.00574461 0.0740824 0)
(0.020091 0.0637603 -3.89402e-20)
(0.036651 0.0530468 7.16353e-20)
(0.0558051 0.0419754 6.85087e-20)
(0.0779855 0.030579 -3.16569e-20)
(0.10364 0.0189164 1.16507e-22)
(0.13314 0.00709369 -2.83796e-20)
(0.166945 -0.00467466 5.33523e-20)
(0.204241 -0.0162981 4.99126e-20)
(0.248078 -0.0268438 -4.65512e-20)
(0.288677 -0.0377267 4.30119e-20)
(0.348568 -0.0437475 -3.95219e-20)
(0.376412 -0.0556437 0)
(0.470809 -0.0506306 -3.33255e-20)
(-0.0165643 0.0290358 4.00567e-20)
(-0.0360571 0.0680172 -3.76256e-20)
(-0.0446994 0.0927842 3.52491e-20)
(-0.0462183 0.106057 0)
(-0.0428402 0.111033 0)
(-0.0359398 0.110487 5.69354e-20)
(-0.0263301 0.106453 -5.23512e-20)
(-0.0143906 0.100287 4.98449e-20)
(-0.000187029 0.0928226 -2.30689e-19)
(0.0164422 0.084548 -4.08932e-22)
(0.0358347 0.0757392 4.07998e-20)
(0.0584759 0.0665486 0)
(0.0849629 0.0570738 -7.29041e-20)
(0.115946 0.0473817 1.36568e-19)
(0.152038 0.0375482 -9.61331e-20)
(0.193733 0.027696 -1.51924e-19)
(0.241121 0.0179534 -7.22458e-22)
(0.294818 0.00880747 1.05999e-19)
(0.351524 -0.000298364 0)
(0.418883 -0.00648071 0)
(0.474121 -0.0153425 -4.30227e-20)
(0.562506 -0.014252 3.95311e-20)
(0.59282 -0.0245548 -1.4196e-19)
(0.718419 -0.0117786 1.32475e-19)
(-0.016514 0.0249301 0)
(-0.0366523 0.0597833 0)
(-0.0455953 0.0829399 -1.06224e-19)
(-0.046506 0.0960585 3.29217e-20)
(-0.0414498 0.10162 -1.47204e-22)
(-0.0317808 0.101959 5.6959e-20)
(-0.0183007 0.0988976 0)
(-0.00131256 0.0937235 -4.94642e-20)
(0.0192938 0.0872891 4.62233e-20)
(0.0439594 0.0801299 -8.73995e-20)
(0.0733559 0.0725885 -3.91321e-22)
(0.108301 0.0648918 7.73448e-20)
(0.149624 0.0571939 8.58155e-22)
(0.197998 0.0496215 6.92861e-20)
(0.253785 0.0423198 -9.57183e-20)
(0.316935 0.0354638 0)
(0.386564 0.0291735 1.13075e-19)
(0.46259 0.0240359 -1.58454e-19)
(0.53972 0.0190684 4.84958e-20)
(0.625996 0.0177223 0)
(0.695826 0.0130078 4.12865e-20)
(0.795339 0.0192281 1.52429e-19)
(0.83267 0.0119437 -1.42326e-19)
(0.959387 0.0297266 -1.57392e-19)
(-0.016413 0.0212398 1.22697e-19)
(-0.0369824 0.0516033 -1.55132e-19)
(-0.0461227 0.0721917 8.92265e-23)
(-0.0462688 0.0841204 3.32997e-20)
(-0.0391746 0.0893939 -6.15769e-20)
(-0.0260048 0.0899961 -5.6908e-20)
(-0.00735254 0.0875449 1.06491e-19)
(0.0167624 0.0832518 5.84785e-22)
(0.0468029 0.0779724 -9.2363e-20)
(0.0835904 0.0723121 1.74124e-19)
(0.128107 0.0666945 9.91232e-22)
(0.181227 0.0614102 -7.62312e-20)
(0.243471 0.0566727 0)
(0.314784 0.0526548 0)
(0.394373 0.0495142 -3.19432e-20)
(0.48069 0.0472584 -5.89263e-20)
(0.571524 0.0461327 -1.11085e-19)
(0.664287 0.0457205 1.03553e-19)
(0.755473 0.0465263 -4.8534e-20)
(0.844685 0.0481199 8.77664e-20)
(0.921825 0.0492636 -4.27345e-20)
(1.00416 0.0549813 7.21805e-20)
(1.04694 0.0513917 -1.70677e-19)
(1.13512 0.0659993 3.1442e-20)
(-0.0165183 0.0182041 4.12008e-20)
(-0.0372665 0.0440806 0)
(-0.0460354 0.0614501 7.22107e-20)
(-0.0445252 0.0713913 -6.68643e-20)
(-0.034052 0.0756964 6.16582e-20)
(-0.0153919 0.0761284 0)
(0.011303 0.0741668 0)
(0.0464895 0.07098 -4.98694e-20)
(0.091054 0.067463 -5.72966e-22)
(0.145992 0.0642765 4.29501e-20)
(0.212022 0.0618855 -4.08336e-20)
(0.289211 0.0606128 7.58368e-20)
(0.37668 0.0606459 0)
(0.472518 0.0620087 1.3415e-19)
(0.573872 0.0646447 -2.50181e-19)
(0.677233 0.0681331 1.75679e-19)
(0.77889 0.0725996 1.08148e-19)
(0.874699 0.0765362 -1.00816e-19)
(0.962365 0.0817372 0)
(1.03718 0.0838127 0)
(1.10049 0.0886549 0)
(1.14882 0.0878553 0)
(1.18056 0.0885878 3.31696e-20)
(1.21423 0.0909164 -1.16048e-19)
(-0.434897 -0.324466 -3.21542e-21)
(-0.453821 -0.338171 3.21577e-21)
(-0.467114 -0.341552 -1.01579e-22)
(-0.475037 -0.339557 0)
(-0.474709 -0.326856 -3.49193e-21)
(-0.467051 -0.306531 6.91901e-21)
(-0.450101 -0.27627 1.24373e-22)
(-0.425287 -0.238395 -3.4477e-21)
(-0.392278 -0.192644 0)
(-0.353047 -0.140833 0)
(-0.308865 -0.083901 -2.03294e-22)
(-0.262133 -0.0228679 -1.98265e-22)
(-0.21407 0.0412836 -3.34707e-21)
(-0.16603 0.108228 3.06489e-21)
(-0.118779 0.177418 0)
(-0.0719816 0.247282 0)
(-0.025404 0.315401 2.14188e-21)
(0.0207265 0.377346 -2.89528e-22)
(0.0648326 0.427557 -1.64234e-21)
(0.103457 0.461173 -7.51839e-23)
(0.129262 0.47596 0)
(0.136679 0.47458 0)
(0.12276 0.461017 0)
(0.101425 0.435566 0)
(0.0987288 0.389832 0)
(0.142969 0.316671 0)
(0.240377 0.217936 -4.77678e-23)
(0.36993 0.11094 6.93494e-23)
(0.503714 0.0116987 0)
(0.618882 -0.0664853 0)
(0.706654 -0.122186 4.48165e-23)
(0.76629 -0.156244 -4.35462e-23)
(0.803785 -0.175935 -1.58539e-23)
(0.825606 -0.184367 0)
(0.838285 -0.187743 0)
(0.845703 -0.186058 -1.8603e-23)
(0.85094 -0.183119 1.80806e-23)
(0.855003 -0.176518 0)
(0.859067 -0.169742 -1.0721e-23)
(0.863028 -0.159452 1.50784e-23)
(0.86765 -0.149793 -3.94942e-24)
(0.872683 -0.136803 0)
(0.879 -0.125617 5.55634e-24)
(0.886279 -0.111546 -5.40271e-24)
(0.894926 -0.100686 0)
(0.903971 -0.0878857 0)
(0.913485 -0.0800194 1.46623e-24)
(0.922681 -0.0704414 -4.06693e-24)
(0.931502 -0.0666034 0)
(0.939356 -0.0604353 0)
(0.946002 -0.0600831 5.93067e-25)
(0.95166 -0.0554459 8.50919e-27)
(0.955613 -0.0559576 7.5985e-26)
(0.958939 -0.0506077 -3.29984e-25)
(0.959978 -0.0515111 0)
(0.961892 -0.045521 0)
(0.961497 -0.046866 0)
(0.964674 -0.0391056 0)
(0.964504 -0.0398103 0)
(0.970109 -0.0295928 0)
(-0.421905 -0.288588 -2.99817e-22)
(-0.455822 -0.308908 -1.29316e-20)
(-0.482918 -0.318069 -2.64925e-22)
(-0.509039 -0.324099 1.2358e-20)
(-0.527712 -0.319861 1.91926e-22)
(-0.541058 -0.308692 0)
(-0.545393 -0.287598 -1.27972e-20)
(-0.541614 -0.258383 2.55691e-20)
(-0.528167 -0.220259 -1.27704e-20)
(-0.506203 -0.174667 1.27141e-20)
(-0.476057 -0.122098 -1.21424e-20)
(-0.439674 -0.0637983 1.19465e-20)
(-0.39838 -0.000473907 -1.15631e-20)
(-0.353701 0.0666438 -3.29341e-22)
(-0.307258 0.136698 -1.01667e-20)
(-0.260289 0.207727 9.87319e-21)
(-0.213742 0.277214 -8.06281e-21)
(-0.168842 0.341823 7.61058e-21)
(-0.127526 0.397077 -5.58176e-21)
(-0.093056 0.439069 9.58163e-21)
(-0.0702938 0.465529 -4.05923e-21)
(-0.058973 0.475524 -1.5037e-22)
(-0.0512101 0.464966 -1.13285e-21)
(-0.0249272 0.427233 1.62313e-21)
(0.0417585 0.357142 -5.07791e-22)
(0.155191 0.258293 4.83656e-24)
(0.300372 0.145078 -2.99995e-22)
(0.449315 0.0385918 -8.00015e-23)
(0.580663 -0.0498163 6.93108e-22)
(0.682169 -0.112351 -6.76169e-22)
(0.753328 -0.152902 3.22206e-22)
(0.798383 -0.175054 -3.04191e-23)
(0.825106 -0.186619 1.58871e-23)
(0.840004 -0.190208 -2.28558e-23)
(0.848633 -0.191004 0)
(0.853908 -0.188099 0)
(0.858008 -0.184662 5.59152e-23)
(0.861519 -0.177907 -4.24286e-23)
(0.865248 -0.17115 -2.97234e-23)
(0.869092 -0.160951 1.58815e-25)
(0.873567 -0.151444 3.69256e-23)
(0.878462 -0.138657 -6.46385e-24)
(0.884341 -0.12776 0)
(0.891153 -0.113993 0)
(0.899259 -0.103369 0)
(0.908171 -0.0906637 0)
(0.917692 -0.082762 -6.37065e-24)
(0.927263 -0.0730092 2.64356e-24)
(0.936351 -0.0688816 0)
(0.94455 -0.0623379 0)
(0.951257 -0.0616133 0)
(0.957005 -0.0566104 9.14654e-25)
(0.960968 -0.0567982 -1.53035e-25)
(0.964441 -0.0511193 7.02253e-25)
(0.965644 -0.0518143 0)
(0.967519 -0.0456761 0)
(0.967017 -0.04707 -4.22082e-25)
(0.969418 -0.0393569 -1.15864e-24)
(0.968871 -0.0402071 0)
(0.97306 -0.0300715 0)
(-0.340485 -0.243265 5.19799e-22)
(-0.38417 -0.26756 -2.48005e-20)
(-0.419825 -0.280577 2.50534e-20)
(-0.459258 -0.291932 -2.34026e-20)
(-0.493948 -0.294599 -1.93308e-22)
(-0.526483 -0.291142 0)
(-0.552764 -0.27894 -2.36733e-20)
(-0.572721 -0.258828 2.31413e-20)
(-0.584127 -0.229952 1.89212e-22)
(-0.586832 -0.192825 3.28485e-22)
(-0.580165 -0.147697 3.21877e-22)
(-0.564786 -0.0953197 3.59568e-22)
(-0.541373 -0.0363462 -2.0731e-20)
(-0.510981 0.0283285 2.04623e-20)
(-0.475256 0.0977289 0)
(-0.435928 0.169351 5.036e-22)
(-0.394387 0.240757 -1.47476e-20)
(-0.35222 0.308648 1.45427e-20)
(-0.31094 0.368969 0)
(-0.2717 0.417213 0)
(-0.23483 0.449056 -6.14393e-21)
(-0.19522 0.459385 1.02212e-20)
(-0.141678 0.439108 -6.7447e-21)
(-0.0562224 0.382231 1.10909e-21)
(0.0702476 0.291656 2.27951e-21)
(0.225897 0.17953 -9.45734e-22)
(0.388841 0.0665038 -3.50406e-24)
(0.534986 -0.0302296 -2.03989e-22)
(0.652125 -0.10284 3.73401e-22)
(0.736237 -0.149123 0)
(0.791283 -0.176072 0)
(0.824038 -0.188552 -1.53114e-22)
(0.842519 -0.194054 2.01049e-22)
(0.852459 -0.194298 4.17688e-24)
(0.858263 -0.193446 -1.35894e-22)
(0.86199 -0.189839 1.32045e-22)
(0.865171 -0.186166 0)
(0.868146 -0.179385 -1.19666e-23)
(0.871493 -0.17271 -8.32346e-23)
(0.875119 -0.162634 1.50024e-22)
(0.8794 -0.153283 -6.13855e-23)
(0.884187 -0.140659 -5.73387e-24)
(0.889803 -0.129977 5.31534e-23)
(0.896267 -0.116448 -4.11602e-23)
(0.903805 -0.106039 -8.44627e-24)
(0.912255 -0.0934479 -7.37177e-24)
(0.921318 -0.0855477 6.38761e-24)
(0.930706 -0.0756472 0)
(0.939646 -0.0712371 0)
(0.947917 -0.0643027 1.3471e-23)
(0.954618 -0.0631884 -6.22249e-24)
(0.96048 -0.0578164 4.5112e-24)
(0.964545 -0.0576955 -5.4236e-24)
(0.968286 -0.0517037 -5.82352e-24)
(0.969835 -0.0521777 1.35114e-24)
(0.971917 -0.0458597 -2.17535e-24)
(0.971611 -0.0472325 1.8593e-24)
(0.973555 -0.0395302 -8.62432e-25)
(0.972893 -0.0404677 0)
(0.975928 -0.0304295 0)
(-0.212796 -0.1959 -5.07316e-20)
(-0.257349 -0.221075 5.07504e-22)
(-0.294601 -0.235681 4.73087e-20)
(-0.338389 -0.24922 -3.70844e-22)
(-0.381204 -0.25609 0)
(-0.425003 -0.257751 0)
(-0.466625 -0.252435 -4.28339e-20)
(-0.505083 -0.240159 -6.04582e-22)
(-0.538025 -0.220094 6.09457e-20)
(-0.564227 -0.191865 -2.07613e-22)
(-0.582234 -0.155467 -1.95939e-20)
(-0.59132 -0.111019 -1.81955e-20)
(-0.591007 -0.0589119 1.81942e-20)
(-0.58099 0.000361923 0)
(-0.562349 0.0655358 -1.59304e-20)
(-0.536302 0.134655 1.45249e-20)
(-0.503162 0.205052 0)
(-0.463793 0.273219 0)
(-0.41845 0.334697 9.42853e-21)
(-0.366251 0.383997 -1.58295e-21)
(-0.305223 0.414366 -7.14275e-21)
(-0.230383 0.417776 -4.60866e-21)
(-0.133324 0.383784 4.57565e-21)
(-0.00419077 0.31325 -2.35396e-21)
(0.155255 0.210935 8.35443e-22)
(0.325151 0.0975629 1.38199e-21)
(0.484684 -0.00807553 5.73534e-23)
(0.616667 -0.0907234 -2.45186e-23)
(0.715806 -0.146381 0)
(0.782396 -0.1778 -2.96245e-22)
(0.823262 -0.193415 3.02035e-22)
(0.846021 -0.198324 -2.3436e-23)
(0.858106 -0.199323 0)
(0.864237 -0.197202 1.89309e-23)
(0.867779 -0.195254 -2.26558e-22)
(0.870153 -0.191244 3.94575e-22)
(0.872428 -0.187507 7.17264e-25)
(0.874803 -0.180806 -1.71737e-23)
(0.877686 -0.174278 -1.29927e-22)
(0.881 -0.164367 -1.59571e-23)
(0.885001 -0.1552 1.02443e-22)
(0.889614 -0.142746 -8.72564e-23)
(0.895006 -0.132249 -6.46185e-25)
(0.901223 -0.118906 -3.60907e-23)
(0.908325 -0.108665 4.35628e-23)
(0.916321 -0.0961652 4.95032e-23)
(0.924833 -0.0882697 -1.44184e-23)
(0.933798 -0.0782421 -1.97768e-23)
(0.942352 -0.0735787 3.53947e-23)
(0.950464 -0.0662737 -2.28152e-23)
(0.957043 -0.0647833 4.69204e-24)
(0.962931 -0.0590566 -6.23736e-24)
(0.967063 -0.0586502 -4.51065e-24)
(0.971026 -0.052371 9.04503e-24)
(0.972932 -0.0526245 -2.50357e-25)
(0.975289 -0.0461097 2.2636e-24)
(0.975323 -0.0474035 0)
(0.977035 -0.0396747 9.11448e-25)
(0.976442 -0.0406409 -1.50187e-24)
(0.978604 -0.0306932 0)
(-0.0656382 -0.154704 5.05816e-20)
(-0.103677 -0.17772 -9.755e-20)
(-0.136346 -0.191552 4.66499e-20)
(-0.176724 -0.204432 4.42587e-20)
(-0.218963 -0.212468 -8.56144e-20)
(-0.26467 -0.216205 8.69054e-22)
(-0.311703 -0.214749 3.96666e-20)
(-0.358898 -0.207677 3.74383e-20)
(-0.40386 -0.194483 -3.66488e-20)
(-0.445097 -0.173877 0)
(-0.480724 -0.14582 -3.35505e-20)
(-0.509087 -0.109841 6.47346e-20)
(-0.528676 -0.066011 -3.13023e-20)
(-0.538165 -0.0146026 0)
(-0.537025 0.0429258 0)
(-0.524894 0.105538 4.40391e-22)
(-0.501146 0.170495 -2.25833e-20)
(-0.465232 0.234243 2.19247e-20)
(-0.416119 0.292004 0)
(-0.352165 0.337674 1.47551e-20)
(-0.27153 0.362665 -2.57023e-20)
(-0.172501 0.357268 2.12543e-20)
(-0.0490832 0.314257 -1.76664e-20)
(0.100074 0.235807 1.58811e-21)
(0.267745 0.129816 1.03815e-20)
(0.43346 0.0211379 -4.2729e-21)
(0.578954 -0.0739899 -4.50835e-23)
(0.69256 -0.140648 -2.9644e-22)
(0.772539 -0.180736 2.5636e-22)
(0.822695 -0.199408 4.65825e-23)
(0.851282 -0.20595 -1.44597e-23)
(0.86581 -0.205172 2.00838e-22)
(0.872718 -0.202936 -3.99493e-22)
(0.875702 -0.199199 2.18652e-22)
(0.877264 -0.196557 0)
(0.878357 -0.192361 1.849e-22)
(0.87971 -0.188694 -1.7746e-22)
(0.881434 -0.182168 1.13787e-22)
(0.883791 -0.175848 -1.41333e-22)
(0.886723 -0.166139 1.24459e-23)
(0.890371 -0.157174 0)
(0.894728 -0.144898 1.04066e-23)
(0.899848 -0.134575 -2.93387e-23)
(0.905821 -0.121386 0)
(0.912559 -0.111273 -7.73297e-23)
(0.92018 -0.0988272 3.14419e-23)
(0.928206 -0.0909156 -1.25589e-23)
(0.936729 -0.0807609 -1.04371e-23)
(0.944842 -0.0758657 0)
(0.952693 -0.0682167 0)
(0.959084 -0.0663723 1.63121e-23)
(0.96492 -0.0603105 -2.35354e-23)
(0.969053 -0.059642 1.21748e-23)
(0.97314 -0.0531038 -3.59742e-24)
(0.975326 -0.0531463 -5.74905e-24)
(0.977917 -0.0464321 -2.26604e-24)
(0.978316 -0.0476059 3.89757e-24)
(0.979924 -0.0398201 0)
(0.9795 -0.0407649 2.3546e-24)
(0.981042 -0.0308873 7.12029e-25)
(0.0862369 -0.123275 5.06191e-20)
(0.0572438 -0.140469 -4.99428e-20)
(0.0317587 -0.153844 3.66603e-22)
(-0.00166469 -0.164292 -3.34774e-22)
(-0.0378247 -0.171276 3.30862e-22)
(-0.0786896 -0.1745 -3.14415e-22)
(-0.122858 -0.173683 5.54649e-22)
(-0.170103 -0.167931 0)
(-0.217929 -0.159219 -4.93945e-22)
(-0.264509 -0.144099 4.66779e-22)
(-0.308217 -0.122916 4.41533e-22)
(-0.346922 -0.0948586 -4.79887e-22)
(-0.378644 -0.0597568 0)
(-0.401457 -0.0175327 0)
(-0.413599 0.0306132 3.47752e-22)
(-0.413089 0.0837996 0)
(-0.398225 0.139949 -2.99568e-22)
(-0.367255 0.195576 0)
(-0.318148 0.245923 -1.52284e-20)
(-0.249607 0.284956 2.86116e-20)
(-0.160934 0.303349 -2.5239e-20)
(-0.0524521 0.292204 1.18625e-20)
(0.0780756 0.244621 9.45635e-21)
(0.228389 0.161244 -9.1779e-21)
(0.39036 0.0573542 -6.06515e-21)
(0.542667 -0.0461611 5.8342e-21)
(0.669484 -0.128512 0)
(0.76278 -0.180317 6.90131e-23)
(0.823777 -0.206841 0)
(0.858866 -0.215095 0)
(0.876785 -0.214648 -5.54614e-23)
(0.884377 -0.209743 4.04545e-23)
(0.886912 -0.205284 -6.89507e-24)
(0.887127 -0.200489 -2.03632e-23)
(0.886831 -0.197437 1.21073e-23)
(0.886637 -0.193203 1.22148e-22)
(0.887019 -0.189695 -1.18583e-22)
(0.88803 -0.183423 1.20889e-22)
(0.889801 -0.177373 -1.02578e-22)
(0.892294 -0.167911 -2.30508e-23)
(0.895536 -0.159172 8.38673e-23)
(0.89958 -0.147083 4.27883e-24)
(0.904369 -0.136927 -5.61575e-23)
(0.910057 -0.123875 0)
(0.916432 -0.113866 3.06192e-23)
(0.923713 -0.101448 -3.834e-23)
(0.931314 -0.0934982 5.08856e-23)
(0.939443 -0.0832085 1.0507e-23)
(0.947145 -0.0780934 0)