/*--------------------------------*- C++ -*----------------------------------*\
| =========                 |                                                 |
| \\      /  F ield         | OpenFOAM: The Open Source CFD Toolbox           |
|  \\    /   O peration     | Version:  2312                                  |
|   \\  /    A nd           | Website:  www.openfoam.com                      |
|    \\/     M anipulation  |                                                 |
\*---------------------------------------------------------------------------*/
FoamFile
{
    version     2.0;
    format      ascii;
    arch        "LSB;label=32;scalar=64";
    class       volScalarField;
    location    "39.2";
    object      p;
}
// * * * * * * * * * * * * * * * * * * * * * * * * * * * * * * * * * * * * * //

dimensions      [0 2 -2 0 0 0 0];

internalField   nonuniform List<scalar> 
5478
(
-0.458366
-0.457207
-0.457344
-0.458373
-0.458986
-0.456658
-0.44858
-0.432884
-0.409121
-0.37866
-0.343786
-0.306654
-0.269696
-0.233032
-0.196778
-0.465925
-0.462903
-0.46057
-0.458412
-0.454726
-0.446905
-0.433016
-0.412457
-0.386082
-0.35565
-0.323123
-0.290146
-0.258042
-0.2267
-0.197537
-0.474976
-0.470087
-0.465186
-0.459102
-0.449798
-0.4355
-0.415773
-0.391347
-0.363626
-0.334226
-0.304427
-0.275215
-0.246953
-0.220011
-0.194367
-0.487382
-0.480264
-0.47209
-0.460848
-0.444545
-0.423312
-0.398416
-0.371283
-0.343186
-0.315059
-0.287533
-0.260991
-0.235675
-0.211749
-0.18936
-0.504007
-0.493407
-0.481126
-0.462983
-0.438637
-0.410799
-0.381765
-0.352802
-0.324555
-0.297368
-0.271414
-0.246794
-0.223489
-0.201629
-0.18095
-0.524515
-0.508753
-0.490733
-0.463834
-0.43115
-0.397497
-0.365126
-0.334668
-0.306183
-0.279576
-0.254739
-0.231556
-0.209933
-0.189866
-0.170771
-0.546108
-0.524787
-0.497771
-0.460658
-0.420194
-0.381677
-0.346603
-0.314927
-0.286221
-0.26009
-0.236217
-0.214362
-0.194344
-0.175929
-0.158634
-0.563385
-0.537406
-0.498525
-0.450679
-0.403516
-0.361163
-0.324092
-0.291615
-0.26294
-0.237423
-0.214578
-0.19406
-0.175611
-0.159026
-0.143826
-0.380249
-0.381452
-0.38182
-0.382934
-0.384941
-0.387603
-0.390748
-0.394309
-0.398323
-0.402954
-0.408503
-0.415363
-0.423919
-0.43447
-0.446296
-0.383645
-0.386151
-0.387508
-0.389541
-0.392312
-0.395351
-0.398182
-0.400339
-0.401409
-0.401134
-0.39952
-0.396794
-0.393162
-0.389291
-0.384903
-0.389865
-0.393411
-0.395816
-0.398945
-0.402769
-0.406547
-0.409426
-0.41044
-0.408588
-0.403069
-0.393579
-0.380205
-0.362802
-0.34301
-0.318907
-0.399526
-0.403681
-0.407075
-0.411346
-0.416533
-0.421469
-0.424867
-0.425173
-0.420723
-0.410084
-0.392563
-0.369159
-0.336977
-0.304198
-0.259082
-0.412219
-0.416466
-0.420532
-0.425408
-0.432313
-0.438537
-0.442536
-0.442174
-0.435174
-0.419564
-0.393116
-0.362975
-0.31648
-0.27534
-0.21633
-0.426253
-0.430007
-0.434742
-0.441469
-0.447866
-0.453996
-0.457393
-0.455281
-0.444774
-0.424224
-0.392105
-0.353862
-0.303078
-0.255693
-0.200335
-0.439288
-0.441765
-0.445752
-0.451387
-0.457512
-0.462322
-0.46338
-0.457654
-0.442785
-0.417446
-0.382319
-0.340417
-0.29325
-0.246045
-0.199359
-0.449962
-0.450689
-0.453069
-0.456785
-0.46065
-0.462547
-0.459616
-0.449127
-0.429519
-0.40063
-0.364718
-0.324068
-0.281988
-0.240702
-0.201307
-0.47217
-0.517986
-0.528988
-0.502182
-0.436005
-0.381351
-0.356301
-0.40127
-0.516891
-0.514491
-0.395947
-0.25832
-0.156527
-0.0890934
-0.0445113
-0.0223985
-0.0104135
-0.00542942
-0.0030087
0.00186872
0.00435703
0.00599218
0.00761352
0.00685777
0.00629969
0.00532285
0.00377658
0.00243229
0.00203109
0.00138537
0.000413645
0.000896738
0.000744712
0.000137452
0.000365104
0.000376489
0.000170032
3.57626e-05
-0.390595
-0.421339
-0.432649
-0.430679
-0.39163
-0.356271
-0.35215
-0.41587
-0.53959
-0.530051
-0.403837
-0.261249
-0.155284
-0.0858179
-0.0378741
-0.0133039
0.000697632
0.00335865
0.00203769
0.00427202
0.00448173
0.00608748
0.00782055
0.00695037
0.00687784
0.00567607
0.00404921
0.00265807
0.00222963
0.00146048
0.000472894
0.00099971
0.000780912
0.000154587
0.000432859
0.000387344
0.000168046
4.22026e-05
-0.301055
-0.310084
-0.310231
-0.322987
-0.31067
-0.294605
-0.31341
-0.406999
-0.539928
-0.534422
-0.406111
-0.261622
-0.15453
-0.0850598
-0.0356421
-0.0093094
0.00668831
0.00888224
0.00570419
0.00600623
0.00452061
0.00604682
0.00785814
0.00701729
0.00732637
0.00597307
0.00432706
0.00294786
0.00243893
0.00150802
0.000611425
0.00107439
0.000795933
0.000204488
0.000489902
0.000393335
0.000169402
4.88695e-05
-0.218896
-0.202692
-0.182116
-0.196498
-0.211264
-0.213377
-0.254138
-0.374895
-0.514001
-0.515177
-0.399227
-0.259906
-0.155125
-0.0859123
-0.0365938
-0.00844263
0.00822236
0.0113153
0.00786465
0.00702721
0.00475615
0.00597135
0.00771949
0.00703742
0.00753607
0.0061494
0.00455022
0.00326794
0.00262739
0.00154008
0.00082478
0.00111363
0.000786251
0.000289843
0.00053244
0.00039381
0.000174801
5.58262e-05
-0.158858
-0.121119
-0.0798578
-0.0821083
-0.115068
-0.133512
-0.190982
-0.32797
-0.472997
-0.489189
-0.387011
-0.256986
-0.156832
-0.0885583
-0.040175
-0.0100694
0.00741951
0.0119418
0.00908213
0.00757099
0.00513256
0.00583884
0.007338
0.00691352
0.00746045
0.00618777
0.00467748
0.00355577
0.00276279
0.00157423
0.00107303
0.00111866
0.000756068
0.000401872
0.000559079
0.000389289
0.000184306
6.29724e-05
-0.132609
-0.0797717
-0.0201492
-0.000754939
-0.0446767
-0.07351
-0.133138
-0.268088
-0.40968
-0.440878
-0.360936
-0.249124
-0.157191
-0.0915467
-0.0442964
-0.0136335
0.00505443
0.0114119
0.00961018
0.00777658
0.00542901
0.00557299
0.00676501
0.00662757
0.00714915
0.00613173
0.00470839
0.0037578
0.00283334
0.00162129
0.00130618
0.00109993
0.000715028
0.000524394
0.000571623
0.000381141
0.000197291
7.01939e-05
-0.138931
-0.072392
0.0072352
0.0529472
0.00806513
-0.0346528
-0.0905583
-0.218926
-0.357322
-0.404425
-0.343317
-0.245413
-0.159229
-0.0967242
-0.0502039
-0.0185579
0.00135202
0.00972814
0.00941806
0.00775988
0.00556064
0.0052298
0.00611927
0.00621593
0.00673888
0.00595703
0.0046606
0.00385801
0.00285256
0.00167172
0.00148859
0.00107335
0.000672774
0.00064034
0.000573496
0.000371716
0.000213068
7.73947e-05
-0.155521
-0.101562
-0.0310531
0.0372979
0.0274837
-0.0100493
-0.0539683
-0.161098
-0.286244
-0.340852
-0.307214
-0.236425
-0.163313
-0.104536
-0.0580149
-0.0252292
-0.00402725
0.00699138
0.00822555
0.00726791
0.00546835
0.00487631
0.00550402
0.00572772
0.00621338
0.00567244
0.00458238
0.00385866
0.00285255
0.00174104
0.00161387
0.00105093
0.000639832
0.000740712
0.000565283
0.000362182
0.000231793
8.47795e-05
-0.14438
-0.110149
-0.0516487
0.0115715
0.0220063
-0.0007013
-0.032383
-0.126681
-0.24129
-0.289721
-0.259079
-0.200338
-0.140784
-0.091465
-0.0524661
-0.0237945
-0.0050426
0.00538529
0.00713489
0.00663864
0.00519859
0.00450893
0.00503458
0.00525471
0.00580062
0.00534222
0.00436804
0.00384442
0.00280034
0.00174291
0.00175517
0.00101167
0.000590849
0.000855005
0.000543827
0.000342619
0.000255942
9.29546e-05
-0.126958
-0.100198
-0.0566326
-0.015363
-0.00622407
-0.023962
-0.0514116
-0.109147
-0.182452
-0.210763
-0.190717
-0.153657
-0.115064
-0.0797974
-0.049415
-0.0254714
-0.00852312
0.00171246
0.00468644
0.00496516
0.00424088
0.00375192
0.00410635
0.00442486
0.00453282
0.0046433
0.00397989
0.00351874
0.00261962
0.00172727
0.00172299
0.000967732
0.000593294
0.000881956
0.000512889
0.000338713
0.000274629
9.44736e-05
-0.108396
-0.0915184
-0.0642565
-0.0380873
-0.0273328
-0.0355557
-0.0525066
-0.0842545
-0.127193
-0.152062
-0.147874
-0.127106
-0.0996063
-0.0709613
-0.0453147
-0.0244524
-0.00972146
-0.000548803
0.00281056
0.0036091
0.00334999
0.00306405
0.00341254
0.00375063
0.0041849
0.00413485
0.00361207
0.00324793
0.00246989
0.00169115
0.00164695
0.000972199
0.000612021
0.000857637
0.000500488
0.000340621
0.000283607
9.48642e-05
-0.0900749
-0.082676
-0.0666491
-0.0493133
-0.0392321
-0.0411907
-0.0509914
-0.0697484
-0.0951939
-0.112249
-0.111062
-0.0968971
-0.0782128
-0.0588653
-0.0407461
-0.0249916
-0.0127375
-0.00414431
5.77278e-05
0.00172859
0.00215946
0.00221706
0.0025794
0.00298808
0.00338614
0.00350414
0.0031668
0.00290477
0.00228891
0.00160383
0.00154386
0.000973869
0.000628218
0.000815939
0.000488227
0.000341908
0.000291896
9.6504e-05
-0.0755327
-0.0734157
-0.0642573
-0.0533407
-0.0458644
-0.0450597
-0.0500141
-0.0600996
-0.073731
-0.0838382
-0.0852382
-0.0785229
-0.0673916
-0.0535399
-0.0385519
-0.0248838
-0.0140694
-0.00623967
-0.00190626
0.000148799
0.000961262
0.00127727
0.00172509
0.00222303
0.00272848
0.00293314
0.0027446
0.00257469
0.00209862
0.00151459
0.0014394
0.000969056
0.0006508
0.000771674
0.000470042
0.000348308
0.000301015
9.62887e-05
-0.063447
-0.0638023
-0.0593745
-0.0531047
-0.0479937
-0.0461136
-0.0478624
-0.0527983
-0.0598121
-0.0661628
-0.067328
-0.0627662
-0.0540682
-0.0437875
-0.0331342
-0.023125
-0.0146444
-0.0080019
-0.00380446
-0.00143491
-0.000192279
0.000441368
0.00100079
0.00152707
0.00202559
0.00232211
0.0022664
0.00218889
0.00186642
0.00138305
0.00131721
0.000936946
0.000654081
0.00072452
0.000447543
0.000354534
0.000307654
9.47867e-05
-0.0527184
-0.0547093
-0.0532599
-0.0499374
-0.0466083
-0.0446515
-0.0446301
-0.0465197
-0.0497807
-0.0527245
-0.0530918
-0.0501575
-0.0449544
-0.038522
-0.030889
-0.0228031
-0.0155271
-0.00960953
-0.00550318
-0.0029556
-0.00146649
-0.000582973
0.000110036
0.000752401
0.00132967
0.00173033
0.00180819
0.00181264
0.00162168
0.00125409
0.00120063
0.000888339
0.000650951
0.000688066
0.000421428
0.000356686
0.000314652
9.44648e-05
-0.0438464
-0.0464911
-0.046617
-0.0450803
-0.0430228
-0.0413528
-0.0406079
-0.0409353
-0.0421162
-0.0433079
-0.043264
-0.0413243
-0.0376575
-0.0326785
-0.0267698
-0.0206123
-0.0148893
-0.0100464
-0.00647952
-0.00405923
-0.00241028
-0.00133077
-0.000562972
9.88958e-05
0.000687498
0.00116155
0.00135231
0.00142415
0.00135587
0.00109768
0.00107082
0.000816977
0.000632816
0.000656078
0.000389341
0.00035538
0.000322712
9.1136e-05
-0.0362808
-0.0390207
-0.0399222
-0.0394541
-0.0382908
-0.0370242
-0.036087
-0.0356727
-0.0357726
-0.0359667
-0.0355461
-0.0339796
-0.0312112
-0.0276281
-0.0234982
-0.0190395
-0.0145408
-0.0104726
-0.00725213
-0.00496399
-0.00337045
-0.002216
-0.00133615
-0.000568994
5.62602e-05
0.000597606
0.000888958
0.00102867
0.00107425
0.000921386
0.000930701
0.000730594
0.000602135
0.000623527
0.000359973
0.000355796
0.000333236
9.85873e-05
-0.0297721
-0.0323656
-0.0335797
-0.0336836
-0.0330943
-0.0322027
-0.0313306
-0.0306639
-0.0302933
-0.029991
-0.0293706
-0.0280833
-0.0260798
-0.023538
-0.0205301
-0.0171312
-0.0135577
-0.010304
-0.00762257
-0.00559212
-0.00406519
-0.00285975
-0.00194293
-0.00115778
-0.000502856
8.51342e-05
0.000466026
0.000672647
0.000801957
0.000747106
0.000799073
0.000630137
0.000539789
0.000589943
0.000316916
0.000335366
0.000330871
8.16088e-05
-0.0241809
-0.0264954
-0.0277652
-0.0281451
-0.0279073
-0.027313
-0.0265999
-0.025928
-0.0254185
-0.0249461
-0.0243122
-0.0232685
-0.0217779
-0.0198834
-0.0176197
-0.0151397
-0.0125104
-0.00998877
-0.00772807
-0.00592175
-0.0045394
-0.00339608
-0.00247181
-0.00166302
-0.00100926
-0.000387283
5.46828e-05
0.000306668
0.000525747
0.000562155
0.000663685
0.000548689
0.00052507
0.000571278
0.000311513
0.000354185
0.000360015
0.000112979
-0.0193652
-0.0213601
-0.022552
-0.0230359
-0.0229988
-0.0226264
-0.0220957
-0.0215234
-0.0210384
-0.0205638
-0.0200013
-0.0191781
-0.0180584
-0.0166554
-0.0150138
-0.0132358
-0.01123
-0.00926377
-0.00748073
-0.00602429
-0.00487106
-0.00381946
-0.0029298
-0.00211932
-0.00145389
-0.000814595
-0.000325852
-2.94549e-05
0.000241038
0.00035452
0.000504106
0.000401252
0.000378593
0.000504646
0.000233445
0.000279564
0.000320441
6.67898e-05
-0.0152239
-0.0168977
-0.0179525
-0.0184513
-0.0185227
-0.0183046
-0.0179284
-0.0174837
-0.0170849
-0.0166738
-0.0162214
-0.0155865
-0.0147701
-0.0137828
-0.0126168
-0.0113448
-0.00990567
-0.0085049
-0.00714587
-0.00593772
-0.00490948
-0.00395846
-0.00311812
-0.00238877
-0.00173866
-0.00108405
-0.000560923
-0.00024522
8.19748e-05
0.000248231
0.00043542
0.000394591
0.000437911
0.000534334
0.000294466
0.000363863
0.000395859
0.000137457
-0.0116512
-0.0130259
-0.0139267
-0.0143944
-0.0145243
-0.0144157
-0.0141687
-0.0138469
-0.0135546
-0.0132393
-0.012908
-0.0124441
-0.0118512
-0.0111391
-0.010297
-0.00943928
-0.00845627
-0.0075268
-0.00659756
-0.00573095
-0.00496479
-0.0041034
-0.00325363
-0.00270625
-0.00209795
-0.00145875
-0.000913742
-0.000582094
-0.000231717
-1.11226e-05
0.000213971
0.000165178
0.000190198
0.00039581
0.000145864
0.000186232
0.000288601
5.25731e-05
-0.00859923
-0.00970977
-0.0104581
-0.0108723
-0.0110176
-0.010978
-0.0108274
-0.0106113
-0.0104159
-0.010195
-0.00997631
-0.00966563
-0.0092751
-0.00880248
-0.00824583
-0.00769233
-0.00703972
-0.00644918
-0.0058268
-0.00522838
-0.00461493
-0.00381093
-0.00253497
-0.00232886
-0.00200038
-0.00141922
-0.000876141
-0.000554364
-0.000179787
4.56365e-05
0.000293589
0.000319448
0.000352959
0.00052371
0.000318773
0.000384976
0.000435825
0.00016587
-0.00596549
-0.00685199
-0.00746792
-0.00783245
-0.00798863
-0.00799547
-0.00791533
-0.00777648
-0.00765394
-0.00750296
-0.00736517
-0.00714987
-0.00688208
-0.00657127
-0.00621066
-0.00593145
-0.00560602
-0.00541718
-0.00519319
-0.00494413
-0.0047202
-0.0044078
-0.00459668
-0.00328262
-0.00246333
-0.00176795
-0.00119303
-0.000878811
-0.000510694
-0.000256048
-1.39927e-05
-1.29127e-05
3.00757e-05
0.000296509
8.6404e-05
8.02676e-05
0.000243194
4.85747e-05
-0.00374209
-0.00442863
-0.00491836
-0.00522114
-0.00536641
-0.00540605
-0.00538038
-0.00531025
-0.00525496
-0.00516458
-0.00510775
-0.0049798
-0.00479973
-0.00456869
-0.00429993
-0.00413127
-0.00395951
-0.00396051
-0.00394058
-0.00391582
-0.00383934
-0.00355949
-0.00314586
-0.00250291
-0.00195401
-0.00133969
-0.000813979
-0.000529064
-0.00017086
1.95527e-05
0.00029768
0.000352323
0.000327793
0.000581802
0.000379853
0.000397331
0.000475023
0.000192558
-0.00184564
-0.00238003
-0.00277211
-0.00302634
-0.00315927
-0.00321112
-0.00322039
-0.00319287
-0.00317414
-0.00313278
-0.00311919
-0.00304342
-0.00291703
-0.00274603
-0.00254486
-0.0025143
-0.0025396
-0.00279023
-0.00300391
-0.00314755
-0.00320687
-0.00295491
-0.00275671
-0.00227821
-0.00183562
-0.00137111
-0.000969429
-0.000778873
-0.000466809
-0.000285751
-9.93864e-05
-3.0431e-05
2.47236e-05
0.00025649
9.75804e-05
3.74095e-06
0.000203407
6.35952e-05
-0.000225076
-0.000617637
-0.000921271
-0.0011343
-0.00126837
-0.00133506
-0.00136912
-0.00136847
-0.00138377
-0.0013531
-0.00133699
-0.00126396
-0.00112208
-0.00092204
-0.000679072
-0.000627752
-0.000677404
-0.000976584
-0.0012906
-0.00153663
-0.00170586
-0.00160839
-0.00142681
-0.00111894
-0.000867598
-0.00052772
-0.000249253
-8.9584e-05
0.000127068
0.000158041
0.000472544
0.000477155
0.000378136
0.000743055
0.000462052
0.000373585
0.000516484
0.000227672
0.00110479
0.000835857
0.000609355
0.000427498
0.000274982
0.00018067
0.000105706
7.6789e-05
5.90162e-05
6.36909e-05
9.41204e-05
0.000111417
0.000183746
0.000229724
0.000346343
0.000372785
0.0003904
0.000339048
0.000192109
0.000110279
-6.68105e-05
-0.000178023
-0.000244536
-0.00027255
-0.000325044
-0.000287466
-0.000224325
-0.000163812
-2.45407e-05
-0.000134621
0.000127064
0.000183898
1.41819e-05
0.000463381
0.000185797
-2.89661e-05
0.000262136
0.000119013
0.00182165
0.00161195
0.00142447
0.00126399
0.00112621
0.00101151
0.000920535
0.000840046
0.000761627
0.000686041
0.000641825
0.000595574
0.000581462
0.000562071
0.000563695
0.000543347
0.000522839
0.000488902
0.000429237
0.000402829
0.00035766
0.000305515
0.000250454
0.000263218
0.000255123
0.000284141
0.00038379
0.000415643
0.000552694
0.000525417
0.000616164
0.000793045
0.000655276
0.000785578
0.000707071
0.000457146
0.000460567
0.000227765
0.00254155
0.00237662
0.00221769
0.00206267
0.00191105
0.00177437
0.00165054
0.00154294
0.00144888
0.00135821
0.00128445
0.00121272
0.00116463
0.00111031
0.00107034
0.00102054
0.000961483
0.000890541
0.000788443
0.000699269
0.000565099
0.000476735
0.000370708
0.000309182
0.000252527
0.000180932
0.000216481
0.000202377
0.000252452
0.000273388
0.000270623
0.000408203
0.000306389
0.000392324
0.000389643
0.000159556
0.000187666
0.000106859
0.00277663
0.00262268
0.00247222
0.00232643
0.00218533
0.00204616
0.00191445
0.00178824
0.00167383
0.00156511
0.00147052
0.00138204
0.00130277
0.00122857
0.00115837
0.00109433
0.00102587
0.00096328
0.000886377
0.000817908
0.0007298
0.000656657
0.000583601
0.000523091
0.000521975
0.000474338
0.000482649
0.000491634
0.000517373
0.000580795
0.000541788
0.000668509
0.000612293
0.000594747
0.000633383
0.000401746
0.000292556
0.000161394
-0.12489
-0.135578
-0.144924
-0.15203
-0.158234
-0.158304
-0.156727
-0.150279
-0.103858
-0.110429
-0.116047
-0.119529
-0.122132
-0.122205
-0.122513
-0.127027
-0.0843201
-0.0885771
-0.0917288
-0.0944146
-0.0964568
-0.100184
-0.102991
-0.10827
-0.0692148
-0.0722238
-0.0745207
-0.077566
-0.0801036
-0.0837735
-0.0848986
-0.0874816
-0.0566978
-0.0591538
-0.0610447
-0.0633979
-0.0648002
-0.0665061
-0.0674241
-0.0707955
-0.0465984
-0.0483272
-0.0496228
-0.051105
-0.0522143
-0.0539376
-0.0559164
-0.0592844
-0.0381333
-0.0393523
-0.0404292
-0.0417134
-0.0429744
-0.0445706
-0.0462658
-0.048911
-0.0312267
-0.0321321
-0.0330418
-0.0340727
-0.0351075
-0.036338
-0.0378355
-0.0402632
-0.0254791
-0.0261499
-0.0268647
-0.0276675
-0.0285405
-0.0296198
-0.0310143
-0.0331512
-0.0207012
-0.0212019
-0.0217467
-0.0223747
-0.0231094
-0.0240335
-0.0252501
-0.0270766
-0.0166439
-0.0170261
-0.0174388
-0.0179301
-0.0185361
-0.0193129
-0.0203531
-0.0218983
-0.0131632
-0.013473
-0.0137908
-0.0141748
-0.0146648
-0.0153033
-0.016172
-0.0174599
-0.0101444
-0.0104082
-0.0106617
-0.0109642
-0.0113579
-0.0118793
-0.0125962
-0.0136557
-0.00752697
-0.00775764
-0.00796789
-0.00821189
-0.00852857
-0.00894906
-0.00952794
-0.0103823
-0.00525213
-0.00545662
-0.00563715
-0.00583968
-0.00609799
-0.00643795
-0.00690251
-0.00758401
-0.00328098
-0.00346235
-0.00361827
-0.00378785
-0.00399835
-0.00426992
-0.00463527
-0.00516739
-0.00157629
-0.00174029
-0.00188184
-0.00203157
-0.00221055
-0.00243251
-0.00272029
-0.00312916
-7.83825e-05
-0.000227847
-0.000358584
-0.000494733
-0.000651464
-0.000835713
-0.00106329
-0.00137547
0.00116639
0.00103495
0.000920073
0.000800051
0.000666779
0.000515681
0.000341097
0.000112155
0.00224601
0.00211574
0.00200383
0.00189155
0.00177452
0.00164424
0.00150383
0.00133539
0.00294894
0.00279798
0.00266715
0.00254493
0.00242232
0.00229167
0.00215507
0.00200787
0.00343036
0.00329558
0.00318044
0.00307905
0.00298294
0.00288542
0.00278466
0.00267922
0.00368666
0.00355643
0.00343432
0.0033219
0.00321646
0.00311383
0.00301101
0.00290701
0.0413325
0.0442051
0.0464584
0.0479274
0.0480331
0.0466037
0.0434702
0.0381132
0.0296226
0.0166995
-0.00245716
-0.0303812
-0.0712233
-0.128014
-0.178982
0.0173843
0.0176324
0.0160199
0.0132115
0.00921521
0.00364099
-0.00404102
-0.0145667
-0.0289607
-0.0486252
-0.0754932
-0.112054
-0.162372
-0.230472
-0.286327
-0.00691291
-0.00927478
-0.0145524
-0.0211904
-0.0289158
-0.038345
-0.0502548
-0.065507
-0.085189
-0.11077
-0.14434
-0.188512
-0.246069
-0.323754
-0.378047
-0.0323702
-0.0373551
-0.0455074
-0.0549778
-0.0657167
-0.0785071
-0.0941658
-0.113544
-0.137758
-0.168287
-0.207241
-0.257722
-0.321459
-0.40038
-0.452601
-0.0578985
-0.0656211
-0.0759598
-0.087523
-0.100683
-0.116293
-0.135067
-0.157803
-0.185617
-0.220018
-0.262757
-0.317426
-0.384217
-0.46062
-0.508752
-0.0820766
-0.0925719
-0.104691
-0.117988
-0.133254
-0.151236
-0.172495
-0.197753
-0.228111
-0.265028
-0.310439
-0.366483
-0.43304
-0.50423
-0.546316
-0.104378
-0.117339
-0.130815
-0.145819
-0.163024
-0.182956
-0.206125
-0.23321
-0.265167
-0.303317
-0.34932
-0.404493
-0.467848
-0.530743
-0.566465
-0.125913
-0.139385
-0.154268
-0.171006
-0.189978
-0.21153
-0.2361
-0.264285
-0.296907
-0.33506
-0.379978
-0.432232
-0.489342
-0.541089
-0.571392
0.184135
0.198509
0.214527
0.23253
0.252563
0.274546
0.298404
0.32409
0.351527
0.380473
0.410372
0.440117
0.467801
0.489689
0.507903
0.179476
0.192967
0.208267
0.225699
0.245159
0.26646
0.289498
0.314231
0.340575
0.368261
0.396691
0.4247
0.450298
0.469775
0.485606
0.170819
0.182681
0.196648
0.212951
0.231229
0.251109
0.272417
0.295087
0.319
0.343818
0.368847
0.392813
0.413553
0.4275
0.438042
0.158154
0.167858
0.180075
0.19476
0.211209
0.228872
0.247535
0.267111
0.287411
0.307975
0.327941
0.345848
0.359246
0.364705
0.367624
0.141587
0.1488
0.159055
0.171828
0.185948
0.200701
0.215865
0.231363
0.246946
0.262016
0.275507
0.28572
0.289855
0.284371
0.277862
0.121376
0.12581
0.133938
0.144529
0.155925
0.167299
0.178432
0.189213
0.199291
0.207913
0.213811
0.215053
0.208496
0.190428
0.17237
0.0980937
0.100091
0.106277
0.114253
0.122221
0.129559
0.136147
0.141779
0.145896
0.147534
0.145214
0.136764
0.118729
0.0873609
0.0569621
0.0711431
0.0719471
0.0769369
0.0821388
0.0862487
0.0891187
0.0907811
0.0909026
0.0887159
0.0830523
0.0722397
0.0538641
0.0241203
-0.0204981
-0.0624916
0.0212119
0.0257486
0.0221311
0.0262507
0.0238988
0.028422
0.0268795
0.0314821
0.0311466
0.0358466
0.036984
0.0420083
0.0449806
0.0509204
0.0559474
0.0635476
0.0712441
0.0814632
0.0926078
0.106674
0.122577
0.141985
0.164113
0.0212334
0.0256663
0.0221484
0.0261581
0.0239306
0.0283228
0.0268802
0.0314014
0.0311145
0.0357586
0.0368559
0.0418627
0.0448445
0.0506727
0.0556456
0.0631455
0.0706411
0.08073
0.0915597
0.105406
0.120672
0.139549
0.160631
0.0212642
0.0255603
0.0221833
0.0260365
0.023982
0.028195
0.0269148
0.0312921
0.0311185
0.0356464
0.0368433
0.0416984
0.0447283
0.0504018
0.0553162
0.0626523
0.0698737
0.0797157
0.08995
0.103346
0.117476
0.135414
0.154374
0.0213025
0.0254328
0.0222325
0.0258913
0.0240495
0.0280408
0.0269744
0.0311562
0.0311476
0.0355273
0.0368791
0.0415752
0.0446221
0.0501359
0.0549834
0.0621794
0.0690895
0.0787861
0.0881938
0.100998
0.113421
0.129717
0.14523
0.0213467
0.0252872
0.0222918
0.025729
0.0241288
0.0278679
0.0270568
0.0310073
0.0311876
0.0353687
0.0368547
0.0413475
0.044483
0.0497503
0.0545555
0.061458
0.0679463
0.077085
0.0855257
0.0973022
0.107726
0.121862
0.133014
0.0213959
0.0251271
0.022356
0.0255613
0.024215
0.0276836
0.0271493
0.0308478
0.0312745
0.0352674
0.0369554
0.0413258
0.0444429
0.0495925
0.0543066
0.0610566
0.0671324
0.0759189
0.0832275
0.0938379
0.101452
0.112561
0.117935
0.021445
0.024957
0.0224241
0.0253847
0.0243035
0.0274936
0.0272822
0.0306859
0.0312929
0.0350731
0.036858
0.0409967
0.044201
0.0490699
0.0537068
0.0599001
0.0655815
0.073276
0.0795886
0.0882779
0.0935279
0.100979
0.100393
0.0214897
0.0247803
0.0224933
0.0252268
0.0243839
0.0273248
0.0273365
0.0305839
0.0314539
0.0351011
0.0371102
0.0412716
0.0443547
0.0492497
0.0536719
0.0597322
0.0649267
0.0720989
0.0768628
0.0836768
0.0848519
0.0875571
0.0791267
0.0215407
0.0245407
0.022572
0.0249728
0.0244795
0.0270716
0.027415
0.030248
0.03132
0.0345723
0.0366354
0.0404634
0.043569
0.0479684
0.0522249
0.0571409
0.0617886
0.066519
0.0700305
0.0724622
0.0710777
0.0659437
0.0520854
0.021611
0.0242072
0.0226738
0.0246458
0.02456
0.026553
0.0272905
0.0296643
0.0310276
0.0338376
0.0359807
0.0392814
0.0421353
0.045603
0.0492017
0.0525557
0.0559589
0.0583149
0.0598671
0.05876
0.0554384
0.0474112
0.0362254
0.0217022
0.0237994
0.0227874
0.0242446
0.024631
0.0260349
0.0272413
0.0290943
0.0306527
0.032986
0.0351512
0.037786
0.0403931
0.0429491
0.0458129
0.0479261
0.0499663
0.0505633
0.0501081
0.0471452
0.0421603
0.0340913
0.0239005
0.0218158
0.0233059
0.0229131
0.0238252
0.0246423
0.0255609
0.0270192
0.0285087
0.030142
0.032035
0.0341111
0.0361655
0.0384106
0.0401349
0.0421389
0.0431592
0.0437717
0.04295
0.0409057
0.0368056
0.031073
0.0233555
0.0141924
0.0219513
0.0227472
0.0229881
0.0234678
0.024556
0.0250929
0.0267063
0.0278991
0.0294921
0.0309957
0.0328619
0.0343978
0.0360922
0.037097
0.0381313
0.0382139
0.0376067
0.0357201
0.0326539
0.0280753
0.0223205
0.0152711
0.00726158
0.0220912
0.0221929
0.0229647
0.0231291
0.0243805
0.0246261
0.0262675
0.0272405
0.0286633
0.0298377
0.0313957
0.0324428
0.033519
0.033878
0.0340278
0.0333121
0.0317959
0.0291829
0.0256148
0.0209805
0.0155424
0.00928007
0.00234883
0.0222079
0.0216553
0.0228402
0.0228311
0.0241006
0.0241434
0.0256988
0.0265232
0.0276705
0.0285507
0.0297298
0.0303329
0.0307959
0.0305464
0.0299799
0.0286322
0.0265039
0.023513
0.0197942
0.0153683
0.0104143
0.00499272
-0.000887903
0.0222758
0.0211537
0.0226049
0.0225386
0.0237052
0.0236301
0.0250051
0.0257261
0.0265385
0.0271207
0.0279126
0.0281029
0.0279915
0.027211
0.0261184
0.0243456
0.0218866
0.0187758
0.0151449
0.0110737
0.00665354
0.00195879
-0.00303202
0.0222719
0.0207033
0.0222479
0.0222553
0.0232002
0.0230647
0.0241944
0.024838
0.0252739
0.0255579
0.025999
0.0258074
0.0251903
0.023994
0.0225572
0.0205704
0.0179898
0.0149311
0.0115386
0.00791567
0.00405787
-2.89418e-05
-0.00439943
0.022176
0.020313
0.0217673
0.021963
0.0226058
0.0224089
0.0233066
0.0238566
0.0239185
0.0238793
0.024036
0.0235316
0.0224886
0.0209888
0.019379
0.0173537
0.0148036
0.0118927
0.00879975
0.00564027
0.00233092
-0.00118878
-0.00500155
0.02198
0.0199742
0.0211819
0.0216292
0.0219593
0.0216334
0.0223424
0.022791
0.0224929
0.0221256
0.0220601
0.0213434
0.0199829
0.0182776
0.0166225
0.0146914
0.0122786
0.00956355
0.00678477
0.00407871
0.00129953
-0.00167544
-0.00494389
0.0216693
0.0196816
0.0205162
0.0212097
0.0212916
0.0207562
0.0213061
0.021659
0.0210355
0.0203632
0.0201113
0.019282
0.0177366
0.0159168
0.0142948
0.0125379
0.0103405
0.00785904
0.00539185
0.00310444
0.000816472
-0.00165328
-0.00441849
0.0212614
0.0193941
0.0198356
0.0206781
0.0206068
0.019826
0.0201906
0.0204729
0.0196566
0.0186831
0.018248
0.0173893
0.0157888
0.0139423
0.012397
0.0108455
0.0089069
0.00668741
0.00452369
0.00260704
0.000747857
-0.001278
-0.00359641
0.0207525
0.0190942
0.0191633
0.0200413
0.0198823
0.0188856
0.0190426
0.019261
0.0183246
0.0171203
0.0165313
0.015685
0.0141312
0.012342
0.010902
0.00954928
0.0078681
0.00592038
0.00405302
0.00246519
0.000966291
-0.000688107
-0.00262188
0.0201701
0.0187462
0.0185209
0.0193361
0.0191075
0.0179526
0.017913
0.0180505
0.017049
0.0157093
0.0150075
0.0142049
0.012768
0.0111148
0.0098036
0.00861804
0.00716263
0.00548358
0.00390747
0.00261058
0.00140486
4.6272e-05
-0.00156935
0.0195405
0.0183206
0.0179122
0.0186069
0.0182942
0.017048
0.0168387
0.0168987
0.0158749
0.0144602
0.0136835
0.0129353
0.0116611
0.0101889
0.00900481
0.00794439
0.00667506
0.00525161
0.00396053
0.00292758
0.00195768
0.000827562
-0.000529491
0.0188605
0.0178527
0.0173306
0.0178723
0.0174702
0.0161939
0.015848
0.015817
0.0148041
0.0134079
0.0126005
0.011919
0.0108464
0.00958779
0.00851601
0.00753479
0.00641844
0.00523933
0.00421367
0.00339862
0.00260151
0.00164067
0.00049513
0.0181959
0.017323
0.0167863
0.0171518
0.0166475
0.0154111
0.0149796
0.0148666
0.0138896
0.0125422
0.011726
0.0110997
0.010226
0.00917307
0.00819284
0.00726652
0.00627893
0.00532633
0.00453763
0.00390015
0.00322908
0.0024076
0.00145894
0.0174935
0.0168125
0.0163116
0.0164689
0.0158893
0.0147333
0.0142221
0.0140428
0.0131611
0.0119102
0.0111071
0.0105566
0.009881
0.00900286
0.0080802
0.00720008
0.00635498
0.00560558
0.00498744
0.00444774
0.00384745
0.00312378
0.00233286
0.016873
0.0163503
0.0158176
0.0157699
0.0152674
0.0142055
0.0135331
0.0133414
0.0126816
0.0115404
0.0106447
0.0101219
0.00963726
0.00891458
0.00803109
0.00721014
0.00654087
0.00600885
0.00554531
0.00507594
0.00454436
0.00393441
0.00329228
0.0163346
0.0159222
0.0153847
0.0151929
0.0147544
0.0137552
0.0129322
0.0126798
0.0122291
0.0112451
0.0102695
0.00965375
0.00926145
0.00873104
0.00798541
0.00721256
0.00656423
0.00609304
0.00574827
0.00544173
0.00509239
0.00466278
0.00418196
0.0159362
0.0155673
0.0150574
0.0148029
0.0143507
0.0134291
0.0125503
0.0121817
0.011867
0.0111064
0.0101321
0.00938333
0.00896771
0.00860562
0.00805773
0.00735461
0.00668758
0.00620712
0.00591017
0.005691
0.00543443
0.00508713
0.00467551
0.0157146
0.0154007
0.0148686
0.0144958
0.0140993
0.0133271
0.012375
0.0118205
0.0115203
0.0110109
0.0101801
0.00933651
0.00877436
0.00841445
0.00801119
0.00745584
0.00684618
0.00632935
0.00597666
0.00574834
0.00555962
0.00534266
0.005083
0.0359804
0.0154287
-0.00880964
-0.0321502
-0.0541935
-0.0751487
-0.0945464
-0.111026
0.0238848
0.00428917
-0.01921
-0.0396409
-0.0563059
-0.0709687
-0.0839837
-0.0947919
0.0137982
-0.00148083
-0.0211478
-0.0382792
-0.0504319
-0.0605452
-0.0697993
-0.0779374
0.00544813
-0.0068662
-0.0230308
-0.0372981
-0.0468702
-0.0539496
-0.059976
-0.0652432
-0.000320638
-0.0101405
-0.0228215
-0.0340047
-0.0412811
-0.0461386
-0.0501096
-0.0537898
-0.00424988
-0.0121321
-0.0218792
-0.030424
-0.0360524
-0.0395712
-0.042251
-0.0446678
-0.00654903
-0.0128628
-0.0202295
-0.0265925
-0.0308686
-0.0334463
-0.0352668
-0.0368298
-0.00771892
-0.0126094
-0.0180436
-0.0227871
-0.0260932
-0.0280572
-0.0293308
-0.0303409
-0.00837443
-0.0120212
-0.0156821
-0.019003
-0.0215567
-0.0231659
-0.0241484
-0.0248461
-0.00841632
-0.0111388
-0.0134303
-0.0155435
-0.0173987
-0.0187493
-0.0196268
-0.0202148
-0.00783907
-0.00988015
-0.011257
-0.0125132
-0.0137898
-0.0148851
-0.0156865
-0.0162281
-0.00685496
-0.00840109
-0.00919584
-0.00988757
-0.0107292
-0.0115825
-0.0122857
-0.01279
-0.0056348
-0.0068184
-0.00725103
-0.00758272
-0.00811062
-0.00875434
-0.00935018
-0.00980678
-0.00431423
-0.00522325
-0.00543382
-0.00554496
-0.00585597
-0.00632997
-0.0068216
-0.00722431
-0.00296645
-0.00366422
-0.00374007
-0.00372106
-0.00388748
-0.00423207
-0.00463276
-0.00498249
-0.00167373
-0.00220169
-0.00219286
-0.00209883
-0.00216927
-0.00241553
-0.00273969
-0.00304165
-0.000434043
-0.000825853
-0.000765815
-0.000636555
-0.000653921
-0.000836826
-0.00110387
-0.00136414
0.000738445
0.000472841
0.000566673
0.000703839
0.000708452
0.000564715
0.000339331
0.000111848
0.00176701
0.00158224
0.00168499
0.00181565
0.00183082
0.00171572
0.00152687
0.00133136
0.00282645
0.00265551
0.00270766
0.00279732
0.00281245
0.00272575
0.002572
0.00239993
0.00378883
0.00358158
0.00352608
0.00352928