/*--------------------------------*- C++ -*----------------------------------*\
| =========                 |                                                 |
| \\      /  F ield         | OpenFOAM: The Open Source CFD Toolbox           |
|  \\    /   O peration     | Version:  2512                                  |
|   \\  /    A nd           | Website:  www.openfoam.com                      |
|    \\/     M anipulation  |                                                 |
\*---------------------------------------------------------------------------*/
FoamFile
{
    version     2.0;
    format      ascii;
    arch        "LSB;label=32;scalar=64";
    class       volScalarField;
    location    "5.85";
    object      p;
}
// * * * * * * * * * * * * * * * * * * * * * * * * * * * * * * * * * * * * * //

dimensions      [0 2 -2 0 0 0 0];

internalField   nonuniform List<scalar> 
13248
(
-0.420623
-0.419355
-0.415691
-0.410241
-0.404278
-0.399453
-0.397346
-0.398824
-0.404021
-0.411962
-0.420839
-0.428428
-0.432592
-0.431733
-0.425087
-0.412823
-0.39583
-0.37531
-0.352363
-0.327973
-0.302502
-0.276932
-0.249951
-0.222409
-0.423081
-0.422186
-0.418877
-0.413908
-0.408446
-0.403752
-0.401025
-0.400916
-0.403227
-0.406892
-0.410281
-0.411667
-0.409682
-0.403607
-0.393429
-0.379664
-0.363047
-0.344299
-0.324039
-0.302765
-0.28089
-0.258777
-0.236307
-0.214662
-0.429541
-0.428253
-0.424999
-0.420514
-0.415536
-0.410949
-0.407478
-0.405352
-0.404165
-0.402995
-0.400717
-0.39636
-0.389363
-0.379622
-0.367373
-0.353008
-0.336946
-0.319602
-0.301323
-0.282492
-0.263287
-0.244117
-0.224847
-0.205695
-0.439299
-0.436972
-0.433389
-0.428931
-0.424049
-0.419155
-0.414432
-0.409741
-0.404679
-0.398721
-0.391401
-0.382444
-0.3718
-0.359582
-0.345987
-0.331243
-0.315585
-0.299232
-0.28241
-0.26532
-0.248152
-0.231199
-0.214287
-0.198039
-0.451668
-0.44797
-0.443649
-0.438801
-0.433511
-0.427673
-0.420986
-0.413164
-0.404082
-0.393763
-0.38232
-0.369902
-0.356658
-0.342717
-0.328189
-0.313176
-0.297777
-0.28211
-0.266297
-0.250478
-0.234785
-0.219358
-0.204149
-0.189481
-0.466525
-0.461297
-0.456031
-0.450435
-0.444099
-0.436407
-0.426835
-0.415334
-0.402274
-0.388174
-0.37348
-0.358489
-0.343356
-0.328147
-0.312885
-0.297589
-0.282296
-0.267057
-0.251939
-0.237018
-0.222369
-0.208081
-0.194131
-0.180801
-0.484025
-0.477229
-0.470891
-0.464103
-0.455819
-0.445117
-0.431739
-0.416211
-0.399408
-0.382119
-0.364863
-0.347898
-0.331307
-0.315086
-0.299206
-0.283641
-0.268381
-0.253431
-0.238811
-0.224549
-0.210681
-0.197226
-0.1842
-0.17174
-0.504224
-0.495847
-0.488234
-0.479588
-0.468196
-0.45332
-0.435472
-0.415855
-0.395649
-0.375663
-0.356314
-0.337748
-0.319963
-0.3029
-0.286486
-0.270663
-0.255385
-0.240625
-0.226367
-0.212605
-0.199332
-0.186551
-0.174282
-0.162528
-0.52675
-0.516817
-0.507572
-0.496116
-0.480364
-0.460409
-0.437802
-0.414264
-0.391014
-0.368704
-0.347579
-0.327655
-0.308854
-0.291069
-0.274196
-0.258148
-0.242852
-0.228249
-0.214295
-0.200951
-0.188184
-0.175976
-0.164318
-0.153112
-0.550774
-0.53931
-0.527879
-0.512434
-0.491203
-0.465663
-0.438342
-0.411174
-0.385209
-0.360857
-0.338177
-0.317072
-0.297396
-0.278999
-0.261746
-0.24552
-0.230223
-0.215771
-0.202094
-0.189129
-0.176825
-0.165149
-0.15405
-0.14338
-0.574998
-0.562007
-0.547594
-0.526918
-0.499382
-0.46812
-0.436325
-0.405857
-0.37747
-0.351315
-0.32728
-0.305166
-0.284763
-0.26588
-0.248349
-0.232026
-0.216788
-0.20253
-0.189158
-0.176594
-0.16477
-0.153635
-0.14309
-0.133003
-0.597745
-0.583212
-0.564814
-0.537776
-0.503462
-0.466602
-0.430685
-0.397278
-0.366781
-0.339091
-0.313936
-0.291024
-0.270086
-0.250886
-0.233224
-0.216927
-0.201848
-0.187861
-0.174858
-0.162746
-0.151454
-0.140918
-0.131018
-0.121677
-0.292331
-0.30523
-0.318345
-0.336918
-0.361333
-0.390174
-0.421959
-0.455039
-0.487578
-0.517589
-0.543007
-0.561766
-0.571901
-0.571651
-0.559602
-0.534918
-0.497818
-0.448902
-0.389373
-0.321382
-0.248148
-0.173652
-0.101981
-0.0374953
-0.301806
-0.313836
-0.32654
-0.344885
-0.369214
-0.398131
-0.430167
-0.463682
-0.496844
-0.527677
-0.554129
-0.57416
-0.585832
-0.587387
-0.577377
-0.554984
-0.520136
-0.473574
-0.416222
-0.349856
-0.277299
-0.202414
-0.129239
-0.0614472
-0.324278
-0.334209
-0.345913
-0.363686
-0.387751
-0.416764
-0.44929
-0.483715
-0.518224
-0.550848
-0.579541
-0.602272
-0.617127
-0.622423
-0.6167
-0.598921
-0.569965
-0.528953
-0.476223
-0.413045
-0.341547
-0.265322
-0.189265
-0.11489
-0.353884
-0.360739
-0.370959
-0.387795
-0.411239
-0.439998
-0.472676
-0.5077
-0.543274
-0.577442
-0.608166
-0.633444
-0.651419
-0.660504
-0.659619
-0.648049
-0.624552
-0.589392
-0.542368
-0.483858
-0.414021
-0.337458
-0.259207
-0.181173
-0.383804
-0.386907
-0.395222
-0.410625
-0.432802
-0.460502
-0.492365
-0.526855
-0.562219
-0.596528
-0.627771
-0.653977
-0.673371
-0.684501
-0.68629
-0.677732
-0.65888
-0.628969
-0.587306
-0.533459
-0.468108
-0.393495
-0.315749
-0.237542
-0.408229
-0.407596
-0.413565
-0.426754
-0.446666
-0.47211
-0.501747
-0.534087
-0.567448
-0.599999
-0.629826
-0.655073
-0.674103
-0.685547
-0.68836
-0.682051
-0.66619
-0.640089
-0.602809
-0.553494
-0.492597
-0.421934
-0.347585
-0.272889
-0.424314
-0.420435
-0.423624
-0.433665
-0.450026
-0.471739
-0.497551
-0.526065
-0.555745
-0.584924
-0.611869
-0.634901
-0.652492
-0.663439
-0.667061
-0.662542
-0.649252
-0.626304
-0.5926
-0.547108
-0.490534
-0.424958
-0.356293
-0.288014
-0.4319
-0.425925
-0.426212
-0.432187
-0.443618
-0.46002
-0.480447
-0.503702
-0.528452
-0.553255
-0.576614
-0.597026
-0.613318
-0.624537
-0.62941
-0.626933
-0.616097
-0.595613
-0.564383
-0.521737
-0.469309
-0.409735
-0.348642
-0.28887
-0.432908
-0.42637
-0.424203
-0.425821
-0.431474
-0.44139
-0.455238
-0.472274
-0.491508
-0.51178
-0.531784
-0.550494
-0.566668
-0.578642
-0.58493
-0.584032
-0.574422
-0.554758
-0.524521
-0.484147
-0.436448
-0.384231
-0.332299
-0.281951
-0.430053
-0.42434
-0.420667
-0.418611
-0.418853
-0.422339
-0.42954
-0.440406
-0.45446
-0.470875
-0.488788
-0.506708
-0.52273
-0.534885
-0.541147
-0.539632
-0.528865
-0.508237
-0.47831
-0.440853
-0.399117
-0.355411
-0.313305
-0.272012
-0.425758
-0.421661
-0.417481
-0.413074
-0.409414
-0.407974
-0.409949
-0.416012
-0.426216
-0.439994
-0.456001
-0.47232
-0.486656
-0.496619
-0.500018
-0.495284
-0.481714
-0.459823
-0.431073
-0.397837
-0.362571
-0.326952
-0.293393
-0.259697
-0.421995
-0.419567
-0.415523
-0.410084
-0.404434
-0.400278
-0.399229
-0.402428
-0.409998
-0.421201
-0.434392
-0.447316
-0.457488
-0.462624
-0.46106
-0.452081
-0.436012
-0.414119
-0.388005
-0.359539
-0.329762
-0.299999
-0.271237
-0.24302
0.024811
0.0761644
0.109717
0.127988
0.134658
0.133277
0.126949
0.118001
0.107978
0.0978354
0.0881554
0.0791668
0.0710406
0.0637461
0.0572636
0.05168
0.0467423
0.0424074
0.0385966
0.0352421
0.0322882
0.0296844
0.0273859
0.0253532
0.0235518
0.0219524
0.0205298
0.0192622
0.018131
0.0171199
0.0162143
0.0154016
0.0146703
0.0140103
0.0134126
0.0128688
0.0123717
0.0119144
0.0114907
0.0110948
0.0107214
0.0103654
0.0100221
0.00968658
0.00935432
0.00902045
0.00868048
0.00832823
0.00796038
0.00756662
0.007149
0.0066848
0.00619268
0.00562303
0.00502041
0.00431728
0.00353657
0.00268564
0.00166732
0.000599161
0.00467832
0.061625
0.0987423
0.119582
0.128143
0.128353
0.123221
0.11518
0.105896
0.0963409
0.0870507
0.078395
0.0704662
0.0633253
0.0567989
0.0515143
0.046685
0.0424113
0.0386207
0.0352794
0.0323341
0.0297346
0.0274388
0.0254073
0.023606
0.0220057
0.0205811
0.019311
0.018177
0.017163
0.0162545
0.015439
0.014705
0.0140424
0.0134421
0.012896
0.0123966
0.0119373
0.0115117
0.0111141
0.010739
0.0103815
0.0100366
0.00969969
0.00936614
0.00903108
0.00868996
0.00833675
0.00796774
0.00757343
0.00715426
0.00669048
0.00619567
0.00562784
0.00502201
0.00431928
0.00354015
0.00268245
0.00167178
0.00059426
-0.0424852
0.0246781
0.0702845
0.0972248
0.11049
0.114547
0.112705
0.107181
0.0998097
0.0917652
0.0836911
0.075985
0.0688297
0.0623141
0.0566028
0.0510029
0.0461694
0.0421607
0.0384657
0.0351759
0.0322708
0.0297015
0.0274279
0.0254124
0.0236222
0.0220292
0.0206091
0.0193412
0.0182081
0.0171941
0.016285
0.0154685
0.0147333
0.0140694
0.0134678
0.0129203
0.0124194
0.0119586
0.0115315
0.0111326
0.0107564
0.0103976
0.0100516
0.00971358
0.00937898
0.00904297
0.00870091
0.00834693
0.00797694
0.00758226
0.00716164
0.00669844
0.00620095
0.00563505
0.00502596
0.00432353
0.00354591
0.00268103
0.00167758
0.00058991
-0.104152
-0.028206
0.0276796
0.0630155
0.0830779
0.0928081
0.0958298
0.0944258
0.0901783
0.084491
0.0782588
0.0719603
0.0658598
0.0601259
0.0548484
0.0499229
0.0455759
0.0415645
0.0380383
0.0348999
0.0320774
0.0295665
0.0273401
0.0253598
0.0235949
0.0220199
0.0206121
0.0193525
0.0182249
0.0172142
0.0163071
0.0154915
0.0147567
0.0140927
0.0134907
0.0129426
0.012441
0.0119793
0.0115513
0.0111514
0.0107741
0.0104146
0.0100678
0.00972884
0.00939342
0.00905668
0.00871388
0.00835934
0.00798854
0.00759364
0.00717172
0.0067092
0.00620911
0.00564517
0.00503278
0.00433059
0.00355418
0.00268193
0.00168496
0.00058643
-0.16072
-0.0835822
-0.0211484
0.0220967
0.0494658
0.0656182
0.0741338
0.0775841
0.0774971
0.0749625
0.0710692
0.0665588
0.061841
0.0571466
0.0526282
0.0483377
0.044349
0.040623
0.0373754
0.0344128
0.0317557
0.0293314
0.0271739
0.025248
0.0235227
0.0219761
0.0205885
0.0193432
0.0182256
0.017222
0.0163196
0.0155072
0.0147744
0.0141116
0.0135102
0.0129624
0.0124608
0.011999
0.0115707
0.0111702
0.0107923
0.0104321
0.0100847
0.00974524
0.00940927
0.00907202
0.00872869
0.00837377
0.00800237
0.00760741
0.00718435
0.00672262
0.00622009
0.00565811
0.00504247
0.0043405
0.0035649
0.00268536
0.0016939
0.000583977
-0.199972
-0.128866
-0.0673904
-0.0197292
0.0137808
0.0359474
0.0499219
0.0581097
0.0622538
0.0634545
0.0624266
0.0600196
0.056881
0.0534006
0.0498123
0.0462492
0.0428129
0.0395084
0.036449
0.0337513
0.0312591
0.0289751
0.0269171
0.0250653
0.0233965
0.0218918
0.0205342
0.0193105
0.0182085
0.0172161
0.0163218
0.0155151
0.0147862
0.014126
0.0135264
0.0129796
0.0124787
0.0120172
0.0115892
0.0111888
0.0108107
0.0104502
0.0101023
0.0097625
0.00942625
0.00908873
0.00874508
0.00838997
0.00801814
0.00762327
0.00719926
0.00673839
0.00623361
0.00567356
0.00505476
0.00435304
0.00357777
0.00269133
0.00170413
0.00058263
-0.221418
-0.15904
-0.104847
-0.0577353
-0.0205957
0.00624397
0.0249402
0.0375683
0.0455813
0.0501847
0.0523095
0.0524017
0.0510999
0.0489856
0.0464508
0.0437122
0.0409095
0.0381404
0.0354471
0.0328853
0.0306097
0.0284735
0.0265841
0.0248304
0.0232297
0.0217757
0.0204547
0.0192576
0.0181754
0.0171976
0.0163141
0.0155153
0.0147921
0.014136
0.0135391
0.0129943
0.0124947
0.0120341
0.0116067
0.0112068
0.0108292
0.0104687
0.0101206
0.00978064
0.00944424
0.00910664
0.00876289
0.00840778
0.00803571
0.00764106
0.00721629
0.00675631
0.00624951
0.00569129
0.00506946
0.00436808
0.0035925
0.00269988
0.00171541
0.000582555
-0.230297
-0.176192
-0.131505
-0.0891116
-0.0513591
-0.0217532
0.000436278
0.0168125
0.0283819
0.0360905
0.0409015
0.0435905
0.044439
0.0439225
0.0425785
0.0407602
0.0386724
0.0364524
0.0342052
0.0319606
0.0297781
0.0276594
0.0260657
0.0244852
0.0229872
0.0216046
0.0203348
0.019175
0.0181203
0.0171629
0.0162944
0.0155066
0.0147914
0.0141411
0.0135484
0.0130064
0.0125089
0.0120497
0.0116233
0.0112242
0.0108473
0.0104874
0.0101396
0.00979967
0.00946328
0.00912572
0.00878202
0.00842708
0.00805495
0.00766064
0.00723532
0.00677621
0.00626771
0.00571113
0.00508649
0.00438552
0.00360889
0.00271113
0.00172754
0.000584075
-0.231864
-0.185951
-0.149091
-0.113067
-0.0773709
-0.0470478
-0.0227778
-0.00359007
0.0110041
0.0215836
0.0289381
0.0337848
0.036742
0.0380354
0.0380918
0.0373365
0.0360681
0.0344896
0.032741
0.0309275
0.0290976
0.027502
0.0255449
0.0241057
0.0227248
0.0214147
0.0201965
0.0190758
0.0180513
0.0171167
0.0162654
0.0154905
0.014785
0.0141417
0.0135542
0.013016
0.0125212
0.012064
0.011639
0.011241
0.010865
0.0105059
0.0101588
0.00981937
0.00948325
0.00914591
0.00880241
0.00844776
0.00807574
0.00768186
0.00725624
0.00679793
0.00628811
0.0057329
0.00510573
0.00440528
0.00362672
0.00272523
0.00174035
0.000587633
-0.230223
-0.192393
-0.161195
-0.130309
-0.0981686
-0.0690479
-0.0441391
-0.0231577
-0.00621237
0.00687934
0.0166444
0.023669
0.0284793
0.0314712
0.033005
0.033423
0.0330531
0.032154
0.0309204
0.0295075
0.028026
0.0265296
0.0251217
0.0235414
0.0223312
0.0211435
0.0199996
0.0189332
0.0179509
0.0170481
0.0162203
0.0154629
0.0147702
0.0141364
0.0135557
0.0130226
0.0125314
0.0120769
0.0116539
0.0112574
0.0108825
0.0105244
0.0101783
0.00983957
0.00950401
0.00916712
0.008824
0.00846978
0.00809805
0.00770464
0.00727897
0.00682134
0.00631065
0.00575642
0.00512713
0.00442727
0.00364579
0.00274235
0.00175367
0.00059384
-0.226104
-0.19656
-0.169922
-0.141832
-0.112955
-0.086268
-0.0620402
-0.0402935
-0.0217732
-0.0067824
0.00488081
0.0136424
0.0200192
0.0245721
0.0275205
0.0291616
0.0298303
0.0297879
0.0291915
0.0282396
0.0270841
0.025848
0.0245332
0.0232933
0.0219312
0.020864
0.0198045
0.0187898
0.0178465
0.0169744
0.0161707
0.0154316
0.0147528
0.0141293
0.0135563
0.0130287
0.0125415
0.0120899
0.0116689
0.011274
0.0109003
0.0105431
0.0101979
0.00986004
0.00952518
0.0091889
0.00884633
0.00849268
0.00812142
0.00772857
0.00730316
0.00684606
0.00633507
0.00578142
0.00515047
0.00445141
0.00366586
0.00276268
0.00176746
0.000603588
-0.220408
-0.202022
-0.180442
-0.154408
-0.12838
-0.104177
-0.0818805
-0.0607336
-0.0414043
-0.024645
-0.0107072
0.000472373
0.00912975
0.015628
0.0202925
0.0233763
0.025188
0.0260757
0.0263268
0.0260681
0.0254475
0.0246147
0.0236495
0.022588
0.0215682
0.0204452
0.0194937
0.0185715
0.0176925
0.0168659
0.0160954
0.0153806
0.0147194
0.014109
0.0135455
0.013025
0.0125431
0.0120954
0.0116775
0.0112849
0.0109133
0.0105577
0.010214
0.00987749
0.00954383
0.00920862
0.008867
0.00851425
0.00814379
0.00775174
0.00732695
0.00687044
0.00635971
0.00580641
0.00517443
0.00447644
0.0036858
0.00278548
0.00178072
0.000617666
-0.200111
-0.195156
-0.175241
-0.149853
-0.125175
-0.102594
-0.0818676
-0.0625289
-0.0447138
-0.0289353
-0.0155404
-0.00457375
0.0041227
0.0108413
0.0158709
0.0194637
0.0218728
0.0233538
0.0241123
0.0242855
0.0240222
0.0234699
0.0227359
0.0218986
0.0209945
0.020208
0.0191632
0.01829
0.0174693
0.0166912
0.0159606
0.0152783
0.0146435
0.0140543
0.0135079
0.0130011
0.0125301
0.0120911
0.0116801
0.0112932
0.010926
0.0105741
0.0102333
0.0098994
0.00956788
0.00923441
0.00889428
0.00854265
0.00817341
0.00778169
0.00735844
0.00690052
0.00639257
0.00583536
0.00520584
0.00450513
0.00370922
0.00281172
0.00179373
0.000634018
-0.180037
-0.178802
-0.161677
-0.138362
-0.115881
-0.0959987
-0.0781912
-0.0615715
-0.0459311
-0.0316888
-0.0192713
-0.00884033
-0.000357464
0.00638972
0.0116555
0.0156115
0.018409
0.0202598
0.0213753
0.0219021
0.0219716
0.0217206
0.0212475
0.0206214
0.0199022
0.0190911
0.0184386
0.0177195
0.017006
0.0163171
0.0156591
0.0150359
0.0144492
0.0138991
0.0133845
0.0129035
0.0124535
0.0120316
0.0116344
0.0112587
0.0109006
0.0105563
0.0102216
0.00989276
0.00956545
0.00923546
0.00889827
0.00854906
0.00818203
0.00779182
0.00737066
0.00691285
0.0064079
0.00584837
0.00522288
0.00451873
0.00372289
0.00282567
0.00179974
0.000642626
-0.162612
-0.162361
-0.148837
-0.129038
-0.109373
-0.0918797
-0.0762351
-0.0615686
-0.0475556
-0.034509
-0.0228619
-0.012856
-0.00455097
0.00220862
0.0076444
0.0118623
0.0149645
0.0171559
0.0186364
0.019527
0.0199367
0.0199904
0.0197914
0.0194135
0.0189171
0.0183384
0.01775
0.0171379
0.0165225
0.0159149
0.0153254
0.01476
0.0142217
0.0137121
0.0132311
0.012778
0.0123512
0.0119484
0.011567
0.0112042
0.0108567
0.010521
0.0101935
0.00987052
0.00954809
0.00922213
0.00888827
0.00854177
0.00817714
0.0077886
0.00736954
0.00691219
0.00640992
0.00584902
0.00522716
0.00452062
0.00372611
0.00282934
0.00179831
0.000645017
-0.145445
-0.146327
-0.136141
-0.119672
-0.102546
-0.0870215
-0.0731449
-0.0602181
-0.0478188
-0.0360949
-0.025405
-0.0160096
-0.00805235
-0.00144915
0.00400089
0.00836806
0.0117023
0.0141809
0.0159813
0.0171949
0.0179107
0.0182485
0.0183104
0.0181655
0.0178633
0.0174442
0.0169961
0.0165112
0.0160011
0.0154819
0.0149666
0.0144633
0.0139768
0.0135104
0.0130654
0.0126422
0.0122401
0.0118578
0.0114934
0.0111444
0.0108083
0.010482
0.0101622
0.00984561
0.00952853
0.00920693
0.00887667
0.00853304
0.00817094
0.00778411
0.00736715
0.00691023
0.00641045
0.00584837
0.00522935
0.00452125
0.00372687
0.0028314
0.00179523
0.00064594
-0.129222
-0.131434
-0.123856
-0.110251
-0.095506
-0.0819011
-0.0697241
-0.0584362
-0.0475634
-0.0371284
-0.0274113
-0.018665
-0.0111028
-0.00471727
0.000679811
0.00513556
0.00864028
0.0113405
0.013403
0.0148956
0.0158845
0.0164819
0.0167846
0.0168544
0.0167459
0.0165134
0.0162113
0.0158475
0.0154436
0.0150162
0.0145788
0.0141411
0.01371
0.0132899
0.0128838
0.0124929
0.0121178
0.011758
0.0114121
0.0110783
0.0107548
0.0104391
0.0101281
0.00981888
0.00950786
0.00919125
0.00886511
0.00852481
0.00816563
0.00778088
0.00736629
0.00691013
0.00641287
0.00584999
0.00523347
0.00452437
0.0037293
0.0028355
0.00179424
0.00064804
-0.115001
-0.117782
-0.11209
-0.100914
-0.0883844
-0.0766233
-0.0660288
-0.0562087
-0.0467094
-0.0374821
-0.0287327
-0.0206811
-0.0135796
-0.00748635
-0.00222651
0.00223179
0.00582446
0.00867008
0.0109333
0.0126591
0.0138852
0.0147133
0.0152385
0.0155197
0.0156064
0.0155464
0.0153841
0.0151444
0.01485
0.0145172
0.0141606
0.0137917
0.013419
0.0130482
0.0126836
0.0123277
0.0119818
0.0116463
0.0113206
0.0110037
0.0106945
0.0103907
0.0100897
0.00978864
0.00948441
0.00917345
0.00885205
0.00851563
0.00815985
0.00777766
0.00736579
0.00691085
0.00641626
0.00585318
0.00523896
0.00452952
0.00373353
0.00284148
0.0017959
0.000650829
-0.102108
-0.105002
-0.100831
-0.0917674
-0.0812519
-0.0712
-0.0620593
-0.0535644
-0.0453129
-0.0372164
-0.0294195
-0.0220987
-0.0155148
-0.00977509
-0.00472247
-0.000335829
0.00327427
0.00619905
0.00860481
0.0105178
0.0119446
0.0129753
0.0137031
0.0141788
0.0144434
0.0145437
0.0145216
0.0144086
0.0142241
0.0139872
0.0137135
0.0134159
0.0131041
0.0127852
0.0124646
0.0121459
0.0118313
0.0115221
0.0112186
0.0109204
0.0106268
0.0103361
0.0100458
0.00975374
0.00945706
0.00915244
0.00883638
0.00850438
0.00815245
0.00777323
0.0073644
0.00691111
0.00641927
0.00585658
0.00524442
0.00453535
0.0037382
0.00284817
0.00179868
0.000652689
-0.089974
-0.0930984
-0.0902088
-0.082945
-0.0742022
-0.0656915
-0.057876
-0.050583
-0.0434629
-0.0364119
-0.0295322
-0.0229534
-0.0169238
-0.0115836
-0.00679425
-0.00254261
0.0010215
0.00396288
0.00645309
0.00850523
0.0100935
0.0112923
0.0121931
0.012841
0.0132695
0.013522
0.0136381
0.0136471
0.013571
0.0134297
0.01324
0.0130153
0.0127663
0.0125015
0.0122271
0.0119477
0.0116664
0.0113854
0.0111059
0.0108279
0.0105511
0.0102744
0.00999596
0.00971382
0.00942553
0.00912797
0.00881786
0.00849079
0.00814315
0.00776732
0.0073618
0.00691055
0.00642154
0.00585971
0.00524944
0.00454124
0.00374275
0.00285485
0.00180141
0.000653483
-0.0789407
-0.082213
-0.0803043
-0.0745271
-0.0673135
-0.0601669
-0.0535412
-0.0473293
-0.0412308
-0.0351408
-0.0291285
-0.0232792
-0.017822
-0.0129171
-0.00843788
-0.00437551
-0.000913696
0.00198741
0.00450614
0.00664719
0.00835394
0.00968452
0.0107294
0.0115278
0.012104
0.0124958
0.0127408
0.0128668
0.0128962
0.0128493
0.0127432
0.012592
0.0124072
0.012198
0.0119715
0.0117332
0.0114871
0.0112361
0.010982
0.0107255
0.0104668
0.0102054
0.00993996
0.00966879
0.00938974
0.00909997
0.00879644
0.00847488
0.00813201
0.00776003
0.00735815
0.00690938
0.0064233
0.00586281
0.00525431
0.00454739
0.00374757
0.00286155
0.00180447
0.000654172
-0.0690998
-0.0722515
-0.0710734
-0.0665349
-0.0606335
-0.0546789
-0.0491087
-0.0438648
-0.0386875
-0.0334734
-0.0282676
-0.0231203
-0.018241
-0.0137965
-0.0096624
-0.00583192
-0.00251928
0.000290975
0.00278506
0.00496591
0.00675022
0.00817787
0.00933636
0.0102597
0.0109629
0.0114784
0.011841
0.0120767
0.0122068
0.0122513
0.0122274
0.0121493
0.0120289
0.0118761
0.0116987
0.0115029
0.0112935
0.011074
0.0108467
0.0106131
0.0103738
0.010129
0.00987764
0.00961838
0.00934941
0.00906818
0.00877194
0.0084565
0.00811894
0.00775133
0.00735347
0.00690763
0.00642469
0.00586603
0.00525929
0.00455405
0.00375301
0.00286857
0.0018085
0.000655184
-0.0600407
-0.0630826
-0.0625087
-0.0589983
-0.0542081
-0.0492852
-0.0446446
-0.0402607
-0.0359055
-0.0314811
-0.0270171
-0.0225349
-0.0182237
-0.014249
-0.0104822
-0.00691563
-0.00379103
-0.00111535
0.00130769
0.0034841
0.00530651
0.00679505
0.00803419
0.00905482
0.00986318
0.0104848
0.0109518
0.0112875
0.0115115
0.0116425
0.0116976
0.0116909
0.0116343
0.0115379
0.0114102
0.0112579
0.0110862
0.0108993
0.0107001
0.0104907
0.0102721
0.0100449
0.00980868
0.00956226
0.00930425
0.00903236
0.0087441
0.00843544
0.00810374
0.00774102
0.00734761
0.0069052
0.00642563
0.0058693
0.00526441
0.00456121
0.00375912
0.00287611
0.00181355
0.000656423
-0.0517595
-0.054736
-0.0546216
-0.0519353
-0.0480758
-0.0440406
-0.0402104
-0.0365813
-0.0329519
-0.0292329
-0.0254432
-0.02158
-0.0178141
-0.0143064
-0.0109187
-0.00763929
-0.00473272
-0.00222608
8.72238e-05
0.00221849
0.0040401
0.00555407
0.006842
0.00793209
0.00882236
0.00953109
0.0100868
0.0105106
0.0108194
0.0110306
0.0111602
0.0112218
0.0112271
0.0111863
0.0111081
0.0109994
0.0108661
0.0107127
0.0105427
0.0103585
0.0101617
0.00995311
0.00973288
0.00950025
0.00925404
0.00899227
0.00871271
0.00841148
0.00808624
0.00772896
0.00734044
0.00690196
0.00642606
0.00587254
0.00526968
0.00456884
0.00376596
0.00288425
0.00181946
0.0006579
-0.0443968
-0.0471807
-0.0473588
-0.0453334
-0.0422591
-0.0389848
-0.0358542
-0.0328802
-0.0298856
-0.0267906
-0.0236071
-0.0203127
-0.0170617
-0.0140083
-0.0110016
-0.00802225
-0.00535404
-0.00304254
-0.000871433
0.00117856
0.00296433
0.00447125
0.00577743
0.00690896
0.00785681
0.00863243
0.00926
0.00975794
0.0101409
0.0104241
0.0106221
0.0107476
0.0108119
0.0108248
0.010795
0.0107296
0.0106348
0.0105153
0.010375
0.0102168
0.0100425
0.00985356
0.00965025
0.00943225
0.00919866
0.00894776
0.00867761
0.00838447
0.00806627
0.00771502
0.00733187
0.00689783
0.00642597
0.00587571
0.00527516
0.00457696
0.00377359
0.00289305
0.00182621
0.000659746
-0.0377607
-0.0402885
-0.0406778
-0.0391983
-0.0367845
-0.0341551
-0.0316213
-0.0292097
-0.0267648
-0.0242163
-0.0215718
-0.0187927
-0.0160197
-0.0133991
-0.0107653
-0.00808963
-0.00567197
-0.00357413
-0.00157009
0.000369188
0.00208883
0.00355909
0.00485463
0.00600045
0.0069817
0.00780318
0.00848455
0.00904199
0.00948696
0.0098325
0.0100913
0.010275
0.010394
0.0104577
0.0104743
0.0104511
0.0103941
0.0103085
0.0101981
0.0100663
0.00991528
0.00974655
0.0095609
0.00935827
0.00913804
0.00889874
0.00863867
0.00835428
0.00804374
0.00769909
0.00732182
0.00689275
0.00642534
0.0058788
0.00528089
0.00458563
0.00378211
0.00290266
0.00183386
0.00066205
-0.0316958
-0.0340281
-0.0345879
-0.0335453
-0.0316699
-0.029577
-0.0275476
-0.0256158
-0.0236422
-0.0215666
-0.019395
-0.0170766
-0.0147404
-0.0125244
-0.0102479
-0.00787191
-0.00570921
-0.00383574
-0.00201592
-0.000210053
0.00141786
0.00282518
0.00408408
0.00521906
0.0062104
0.00705674
0.00777329
0.00837455
0.00886852
0.0092655
0.0095763
0.00981116
0.00997944
0.0100898
0.01015
0.0101669
0.0101466
0.0100941
0.0100134
0.0099081
0.00978055
0.00963255
0.00946512
0.00927847
0.00907225
0.0088452
0.00859586
0.00832084
0.00801855
0.00768109
0.00731024
0.00688666
0.00642416
0.00588181
0.00528693
0.00459493
0.00379159
0.00291323
0.00184248
0.000664857
-0.0262634
-0.0284041
-0.0290602
-0.0283485
-0.0269088
-0.0252629
-0.0236586
-0.0221324
-0.0205588
-0.0188884
-0.0171274
-0.0152161
-0.0132739
-0.0114305
-0.00948995
-0.00740281
-0.00549244
-0.00384697
-0.00222181
-0.000565931
0.000950239
0.00227312
0.00347277
0.00457388
0.0055528
0.00640395
0.00713916
0.00776757
0.00829639
0.00873287
0.00908572
0.00936364
0.00957476
0.00972672
0.00982663
0.0098809
0.00989519
0.00987442
0.00982273
0.0097435
0.00963938
0.00951227
0.00936339
0.00919317
0.00900147
0.00878722
0.00854919
0.00828413
0.00799067
0.00766095
0.00729707
0.00687951
0.00642243
0.00588473
0.00529335
0.00460493
0.00380212
0.00292493
0.00185211
0.000668206
-0.0214389
-0.0233457
-0.0240326
-0.0235762
-0.0224954
-0.0212224
-0.0199732
-0.0187869
-0.0175506
-0.0162246
-0.0148163
-0.01326
-0.0116683
-0.010163
-0.00853292
-0.00671848
-0.00505197
-0.003632
-0.00220539
-0.000709919
0.00067979
0.00190135
0.00302301
0.00406998
0.00501596
0.00585318
0.00658957
0.0072307
0.00778059
0.00824416
0.00862836
0.00894033
0.00918682
0.00937438
0.00950924
0.00959715
0.00964332
0.00965235
0.00962822
0.00957424
0.00949308
0.0093867
0.00925643
0.00910287
0.00892605
0.00872503
0.00849879
0.0082442
0.00796011
0.00763868
0.0072823
0.0068713
0.00642018
0.0058876
0.00530022
0.00461577
0.00381379
0.00293793
0.00186287
0.000672138
-0.0170766
-0.0187725
-0.0194728
-0.0192185
-0.0184289
-0.0174617
-0.0165057
-0.0156016
-0.014647
-0.0136107
-0.0125021
-0.011252
-0.00996837
-0.00876533
-0.00741755
-0.00585601
-0.00442035
-0.00321812
-0.00198832
-0.000657677
0.000596765
0.00170496
0.00273354
0.00370813
0.00460022
0.00541089
0.00613451
0.00677353
0.0073304
0.00780825
0.00821258
0.00854892
0.0088226
0.00903894
0.00920318
0.00932028
0.00939484
0.00943103
0.00943251
0.00940241
0.00934329
0.00925711
0.00914522
0.0090083
0.00884649
0.00865899
0.0084449
0.00820121
0.00792696
0.00761432
0.00726598
0.00686203
0.00641743
0.00589047
0.00530761
0.00462755
0.00382672
0.0029524
0.00187487
0.000676701
-0.0131546
-0.0146713
-0.0153714
-0.0152641
-0.0146987
-0.0139761
-0.0132607
-0.0125901
-0.0118691
-0.0110748
-0.0102189
-0.0092304
-0.00821419
-0.00727772
-0.0061829
-0.00485216
-0.0036309
-0.00263427
-0.00159462
-0.00042814
0.000687211
0.00167563
0.00260236
0.00348958
0.00428777
0.00508595
0.00578333
0.00640461
0.00695377
0.00743299
0.00784601
0.00819669
0.00848886
0.00872657
0.00891397
0.00905513
0.00915394
0.00921399
0.00923855
0.00923043
0.00919199
0.00912506
0.00903097
0.0089104
0.00876352
0.00858961
0.00838789
0.00815542
0.0078914
0.00758798
0.00724818
0.00685178
0.00641427
0.00589341
0.00531562
0.00464044
0.00384104
0.00296855
0.00188825
0.000681946
-0.00965446
-0.010996
-0.0116722
-0.0116767
-0.0112908
-0.0107652
-0.0102447
-0.00976304
-0.00923286
-0.00863852
-0.00799381
-0.00722678
-0.00644066
-0.00573669
-0.00486548
-0.00374207
-0.00271662
-0.00191082
-0.00105117
-4.37741e-05
0.000934022
0.00180266
0.00262994
0.00344987
0.00425176
0.00491559
0.00554663
0.0061296
0.00665628
0.00712442
0.00753501
0.00789004
0.00819184
0.00844316
0.00864703
0.00880659
0.00892493
0.00900501
0.00904956
0.009061
0.00904141
0.0089924
0.00891517
0.00881032
0.00867804
0.0085176
0.00832828
0.00810719
0.00785369
0.00755984
0.00722904
0.00684065
0.00641078
0.00589652
0.00532437
0.00465459
0.0038569
0.00298659
0.00190319
0.000687939
-0.00652272
-0.00769968
-0.00834251
-0.00843231
-0.00819477
-0.00783069
-0.0074621
-0.00712894
-0.00675168
-0.00631955
-0.00584887
-0.0052678
-0.00467807
-0.00417482
-0.00349877
-0.002559
-0.00170953
-0.00107771
-0.000385564
0.000469841
0.0013126
0.00205917
0.00277384
0.0034954
0.00418606
0.00481581
0.00540039
0.00594259
0.00643864
0.00688591
0.0072842
0.00763418
0.00793694
0.00819405
0.00840748
0.00857942
0.00871215
0.00880794
0.00886892
0.00889706
0.00889404
0.00886121
0.00879953
0.00870948
0.00859117
0.00844382
0.00826675
0.00805704
0.00781422
0.00753019
0.00720877
0.00682877
0.0064071
0.00589994
0.00533399
0.00467018
0.00387444
0.00300674
0.00191988
0.00069475
-0.00371581
-0.00474713
-0.00535155
-0.00550128
-0.0053776
-0.00514311
-0.00490365
-0.00469327
-0.00443595
-0.00413184
-0.00380127
-0.0033747
-0.00295156
-0.00262051
-0.00211363
-0.00133485
-0.000641067
-0.00016486
0.000374964
0.00108924
0.00180239
0.00242926
0.00303781
0.00365677
0.00425923
0.00482226
0.00534962
0.0058439
0.00630151
0.00671939
0.00709662
0.00743296
0.00772848
0.00798377
0.00819983
0.00837799
0.00851971
0.00862656
0.00870006
0.00874164
0.00875254
0.00873376
0.00868598
0.00860947
0.00850421
0.00836932
0.00820412
0.00800561
0.00777346
0.00749938
0.00718763
0.00681635
0.0064034
0.00590379
0.00534462
0.0046874
0.00389383
0.00302924
0.00193853
0.00070246
-0.00121448
-0.0021156
-0.0026771
-0.00286715
-0.00283105
-0.00269834
-0.00255892
-0.00244426
-0.0022843
-0.00208378
-0.00186633
-0.00156419
-0.00127906
-0.00109424
-0.000734158
-9.77176e-05
0.000456861
0.000792956
0.00119394
0.00177757
0.00237213
0.00288732
0.00338929
0.00391386
0.00443198
0.00492233
0.00538715
0.00582817
0.00624138
0.00662328
0.00697239
0.0072878
0.00756885
0.00781535
0.00802751
0.00820586
0.00835116
0.00846429
0.00854616
0.00859765
0.00861952
0.00861236
0.00857652
0.00851201
0.0084186
0.00829529
0.00814134
0.00795363
0.00773199
0.00746783
0.00716595
0.00680363
0.00639988
0.00590825
0.00535641
0.00470643
0.0039152
0.00305432
0.00195935
0.000711129
0.00102781
0.00024214
-0.000278069
-0.000498087
-0.000532491
-0.000482174
-0.00042301
-0.00038369
-0.000297884
-0.000173907
-3.6714e-05
0.000178233
0.000368568
0.000453691
0.000711779
0.00124472
0.00169221
0.00191298
0.00219107
0.0026515
0.00312641
0.00352624
0.00391687
0.00433703
0.00475975
0.0051645
0.00555338
0.00592811
0.00628452
0.00661871
0.00692864
0.00721281
0.00746987
0.00769884
0.00789917
0.00807063
0.00821322
0.00832711
0.00841256
0.00846983
0.00849915
0.00850064
0.00847427
0.00841971
0.00833653
0.00822351
0.00807985
0.00790226
0.00769072
0.00743625
0.00714428
0.00679101
0.00639687
0.00591358
0.00536957
0.00472753
0.00393868
0.00308227
0.00198256
0.000720863
0.00300569
0.00232254
0.00184118
0.0015955
0.00149576
0.00146588
0.00144298
0.00140151
0.00140436
0.00143904
0.00147802
0.0015827
0.00165203
0.00161197
0.001746
0.00216004
0.00249595
0.00260998
0.00278482
0.00314939
0.00353819
0.00385919
0.00417642
0.00452937
0.00489182
0.00524289
0.00558429
0.00591766
0.00623877
0.00654354
0.00682967
0.00709532
0.00733876
0.00755854
0.00775363
0.00792328
0.00806698
0.00818443
0.00827541
0.00833979
0.0083774
0.00838803
0.00837134
0.00832677
0.00825371
0.00815081