/*--------------------------------*- C++ -*----------------------------------*\
| =========                 |                                                 |
| \\      /  F ield         | OpenFOAM: The Open Source CFD Toolbox           |
|  \\    /   O peration     | Version:  2512                                  |
|   \\  /    A nd           | Website:  www.openfoam.com                      |
|    \\/     M anipulation  |                                                 |
\*---------------------------------------------------------------------------*/
FoamFile
{
    version     2.0;
    format      ascii;
    arch        "LSB;label=32;scalar=64";
    class       surfaceScalarField;
    location    "124.15";
    object      phi;
}
// * * * * * * * * * * * * * * * * * * * * * * * * * * * * * * * * * * * * * //

dimensions      [0 3 -1 0 0 0 0];

oriented        oriented;

internalField   nonuniform List<scalar> 
26232
(
-0.000253959
0.00201357
-0.00175961
-0.000187226
0.00355928
-0.00362601
0.000813438
0.00309109
-0.00409176
0.0033175
0.00057195
-0.00307601
0.00786231
-0.00421756
-0.000327252
0.0149667
-0.0114857
0.00438127
0.0248721
-0.0211937
0.0112883
0.0373808
-0.0328751
0.0203664
0.0517528
-0.0456612
0.0312892
0.0668261
-0.0584885
0.0434152
0.0812915
-0.0703633
0.0558979
0.0940087
-0.0805735
0.0678563
0.104261
-0.0887952
0.0785429
0.111877
-0.0950902
0.0874746
0.117179
-0.099807
0.0945048
0.120788
-0.103418
0.0998086
0.123359
-0.106353
0.103782
0.125378
-0.108903
0.106884
0.127134
-0.111209
0.109452
0.128722
-0.113345
0.111757
0.130268
-0.115239
0.113693
0.131674
-0.117144
0.115738
0.132528
-0.118148
0.117294
-0.119786
0.119747
0.132567
-9.71891e-05
0.00211076
0.000379146
0.00308295
0.00211624
0.001354
0.00578757
-0.00309938
0.0120068
-0.0104368
0.0211241
-0.020603
0.0329495
-0.033019
0.046647
-0.0465726
0.06092
-0.0599342
0.0743895
-0.0719579
0.0859712
-0.081945
0.0951115
-0.0897139
0.101826
-0.0955095
0.106553
-0.0998177
0.109908
-0.103161
0.112444
-0.105954
0.114537
-0.108447
0.116399
-0.110764
0.118146
-0.112956
0.119842
-0.115041
0.121625
-0.117021
0.12342
-0.11894
0.125892
-0.12062
-0.122954
0.129061
0.0001045
0.00200626
0.00113726
0.00205019
0.00384935
-0.00135809
0.00896623
-0.00821626
0.0169914
-0.018462
0.027851
-0.0314625
0.040694
-0.0458621
0.0541153
-0.0599939
0.0666572
-0.0724761
0.0772653
-0.082566
0.0855077
-0.0901875
0.0915312
-0.0957374
0.0958365
-0.0998148
0.0990064
-0.102988
0.101513
-0.105668
0.103658
-0.108098
0.10561
-0.110399
0.10747
-0.112625
0.109306
-0.114792
0.111185
-0.11692
0.113131
-0.118968
0.115216
-0.121024
0.117457
-0.122861
-0.124937
0.119439
0.00031411
0.00169215
0.00199155
0.000372746
0.005829
-0.00519554
0.0124991
-0.0148864
0.0221478
-0.0281107
0.0340244
-0.0433391
0.0466553
-0.058493
0.0584752
-0.0718138
0.0683988
-0.0823997
0.0760423
-0.0902095
0.0816112
-0.0957564
0.0856177
-0.0997439
0.0886048
-0.102802
0.0909904
-0.105373
0.0930401
-0.107718
0.0949098
-0.109968
0.0966933
-0.112183
0.0984486
-0.11438
0.100224
-0.116567
0.10204
-0.118736
0.103963
-0.12089
0.106006
-0.123066
0.108289
-0.125144
-0.127602
0.110955
0.000538131
0.00115402
0.00292942
-0.00201854
0.00797611
-0.0102422
0.0161112
-0.0230215
0.0268416
-0.038841
0.0387056
-0.0552031
0.0499911
-0.0697785
0.0594878
-0.0813106
0.066766
-0.089678
0.0720265
-0.09547
0.0757754
-0.0995053
0.078542
-0.102511
0.080735
-0.104995
0.0826193
-0.107257
0.0843501
-0.109449
0.0860132
-0.111631
0.0876544
-0.113824
0.0893044
-0.11603
0.0909844
-0.118247
0.0927282
-0.12048
0.0945679
-0.12273
0.0965036
-0.125002
0.0986121
-0.127253
-0.12968
0.10069
0.000793008
0.000361008
0.0039609
-0.00518644
0.0102038
-0.0164852
0.0194544
-0.0322721
0.03044
-0.0498266
0.0412999
-0.066063
0.0505896
-0.0790682
0.0577231
-0.088444
0.0628327
-0.0947876
0.0664084
-0.0990456
0.0689864
-0.102083
0.0709895
-0.104514
0.0726917
-0.106697
0.0742458
-0.108812
0.0757278
-0.110931
0.0771742
-0.113078
0.0786086
-0.115258
0.0800517
-0.117473
0.081529
-0.119725
0.0830636
-0.122014
0.0846775
-0.124344
0.0863971
-0.126722
0.0882745
-0.12913
-0.131707
0.0903017
0.00108582
-0.000724812
0.00505977
-0.00916038
0.0123329
-0.0237583
0.0221077
-0.0420469
0.0324958
-0.0602147
0.0417243
-0.0752915
0.0489121
-0.0862561
0.0540354
-0.0935672
0.0575384
-0.0982907
0.0599708
-0.101478
0.0617841
-0.103897
0.0632738
-0.106003
0.0646025
-0.108026
0.0658496
-0.110059
0.067054
-0.112135
0.0682403
-0.114264
0.0694279
-0.116446
0.0706357
-0.118681
0.0718805
-0.120969
0.0731783
-0.123312
0.0745472
-0.125713
0.075993
-0.128168
0.0775414
-0.130678
-0.13329
0.0791241
0.00140811
-0.00213292
0.00614816
-0.0139004
0.0141132
-0.0317233
0.0237312
-0.051665
0.0329056
-0.0693891
0.0403025
-0.0826884
0.0456092
-0.0915628
0.0491632
-0.0971212
0.0515168
-0.100644
0.0531633
-0.103124
0.054437
-0.10517
0.0555253
-0.107092
0.0565203
-0.109021
0.0574651
-0.111003
0.0583827
-0.113053
0.0592881
-0.115169
0.0601943
-0.117352
0.0611141
-0.119601
0.0620616
-0.121917
0.063052
-0.124303
0.0640976
-0.126758
0.0652156
-0.129286
0.066426
-0.131889
-0.134576
0.0677119
0.00173801
-0.00387093
0.00711304
-0.0192755
0.0153137
-0.039924
0.0241962
-0.0605475
0.0318586
-0.0770514
0.0375102
-0.08834
0.0412649
-0.0953174
0.0436369
-0.0994933
0.0451635
-0.102171
0.0462353
-0.104196
0.04708
-0.106015
0.0478101
-0.107822
0.0484766
-0.109687
0.0491033
-0.11163
0.0497045
-0.113654
0.0502925
-0.115757
0.0508795
-0.117939
0.0514788
-0.1202
0.052103
-0.122541
0.0527629
-0.124962
0.0534694
-0.127465
0.0542305
-0.130047
0.0550493
-0.132708
-0.135434
0.055908
0.00204525
-0.00591618
0.00783618
-0.0250664
0.0158019
-0.0478897
0.0235766
-0.0683222
0.0296782
-0.083153
0.0337999
-0.0924618
0.0363215
-0.097839
0.0378032
-0.100975
0.0387052
-0.103073
0.0393136
-0.104805
0.0397747
-0.106476
0.0401538
-0.108201
0.0404797
-0.110013
0.040768
-0.111918
0.0410302
-0.113916
0.0412771
-0.116004
0.0415191
-0.118181
0.0417666
-0.120448
0.0420295
-0.122804
0.0423185
-0.125251
0.0426431
-0.127789
0.0430137
-0.130417
0.0434375
-0.133131
-0.135916
0.0439191
0.00229965
-0.00821583
0.00823073
-0.0309975
0.0155735
-0.0552325
0.022067
-0.0748156
0.0267037
-0.0877897
0.0295411
-0.0952992
0.0310914
-0.0993893
0.031882
-0.101766
0.0322772
-0.103468
0.032475
-0.105003
0.0325662
-0.106567
0.0325889
-0.108224
0.0325611
-0.109985
0.032494
-0.111851
0.0323972
-0.113819
0.0322798
-0.115886
0.0321508
-0.118052
0.0320202
-0.120317
0.0318976
-0.122681
0.0317929
-0.125147
0.0317157
-0.127712
0.031672
-0.130374
0.0316604
-0.13312
-0.135939
0.0316827
0.00248011
-0.0106959
0.008269
-0.0367864
0.0147297
-0.0616932
0.0199111
-0.079997
0.0232413
-0.0911199
0.0250181
-0.097076
0.0257903
-0.100162
0.0260133
-0.101988
0.0259613
-0.103416
0.0257668
-0.104808
0.0254851
-0.106285
0.0251392
-0.107878
0.0247411
-0.109587
0.0242998
-0.11141
0.0238235
-0.113343
0.0233203
-0.115383
0.022798
-0.11753
0.0222647
-0.119784
0.0217282
-0.122145
0.0211975
-0.124616
0.0206825
-0.127197
0.0201938
-0.129885
0.0197387
-0.132665
0.0193278
-0.135528
0.000459858
0.0082254
-0.00868526
0.000742243
0.0194558
-0.0197382
0.000442793
0.0263598
-0.0260603
-0.000422494
0.0300172
-0.0291519
-0.00164466
0.03174
-0.0305179
-0.00299587
0.0325093
-0.0311581
-0.00428625
0.032789
-0.0314986
-0.00536914
0.0326403
-0.0315574
-0.00612864
0.0319213
-0.0311618
-0.00647082
0.0304388
-0.0300966
-0.00632388
0.0280237
-0.0281706
-0.00564528
0.0245603
-0.0252389
-0.0044281
0.0199926
-0.0212098
-0.00270354
0.0143185
-0.0160431
-0.000543551
0.00757901
-0.009739
0.00196221
-0.000172422
-0.00233333
0.0048854
-0.00888785
0.00596465
0.00814845
-0.0185852
0.0153222
0.0118182
-0.0293249
0.0256552
0.0160436
-0.0410865
0.0368612
0.0210788
-0.0537638
0.0487287
0.0270135
-0.0667064
0.0607717
0.0339893
-0.079519
0.0725432
-0.0906602
0.0415873
0.0830622
0.000826194
0.00739921
0.00192213
0.0183599
0.0026422
0.0256397
0.00287715
0.0297823
0.0028022
0.031815
0.00267484
0.0326366
0.00272161
0.0327422
0.00310479
0.0322571
0.00392971
0.0310963
0.00525957
0.0291089
0.00712169
0.0261615
0.0095101
0.0221719
0.0123857
0.0171171
0.0156768
0.0110274
0.0192857
0.00397009
0.0231388
-0.00402549
0.0271652
-0.0129143
0.0313533
-0.0227734
0.0357988
-0.0337704
0.0406256
-0.0459134
0.0460839
-0.0592222
0.0521115
-0.072734
0.0588001
-0.0862075
-0.0975869
0.0657268
0.00109571
0.0063035
0.002921
0.0165346
0.00465788
0.0239028
0.00604138
0.0283988
0.00717081
0.0306856
0.00829199
0.0315155
0.00964789
0.0313863
0.0114137
0.0304912
0.0136897
0.0288204
0.0165154
0.0262832
0.019886
0.022791
0.0237599
0.018298
0.0280635
0.0128135
0.0326855
0.00640531
0.037549
-0.000893417
0.0426034
-0.00907981
0.047801
-0.0181119
0.0531914
-0.0281637
0.058947
-0.0395261
0.0651473
-0.0521136
0.0719585
-0.0660334
0.0790112
-0.0797867
0.0861649
-0.0933613
-0.104013
0.0925913
0.00122531
0.00507818
0.00357831
0.0141816
0.00618793
0.0212932
0.00864758
0.0259391
0.0109364
0.0283967
0.0132397
0.0292122
0.0157857
0.0288403
0.018753
0.027524
0.0222421
0.0253313
0.026282
0.0222433
0.0308459
0.0182271
0.0358664
0.0132775
0.0412463
0.00743359
0.0468299
0.000821702
0.0527134
-0.00677684
0.0587349
-0.0151013
0.0650227
-0.0243997
0.0717358
-0.0348768
0.0791075
-0.0468978
0.0871151
-0.0601213
0.095681
-0.0745992
0.104095
-0.0882011
0.111997
-0.101263
-0.110345
0.118329
0.00120496
0.00387322
0.00380063
0.0115859
0.00700018
0.0180937
0.0103164
0.0226229
0.0135998
0.0251132
0.0169343
0.0258777
0.0204932
0.0252814
0.0244351
0.023582
0.0288548
0.0209116
0.0337753
0.0173228
0.0391586
0.0128438
0.0449238
0.00751235
0.0509386
0.00141874
0.0573405
-0.00558019
0.0639185
-0.0133548
0.0708857
-0.0220686
0.0784893
-0.0320033
0.0869569
-0.0433443
0.0963755
-0.0563164
0.106401
-0.0701469
0.116434
-0.0846324
0.125429
-0.0971957
0.132847
-0.10868
-0.115171
0.137673
0.00105678
0.00281645
0.00358617
0.0090565
0.0069945
0.0146853
0.0108057
0.0188117
0.0147784
0.0211405
0.0188838
0.0217723
0.0232094
0.0209559
0.0278634
0.018928
0.0329177
0.0158573
0.0383875
0.0118531
0.0442385
0.00699272
0.0503927
0.00135817
0.0569904
-0.00517893
0.0639543
-0.0125441
0.0715312
-0.0209317
0.0800355
-0.0305729
0.0897439
-0.0417117
0.100686
-0.0542864
0.112452
-0.0680829
0.12419
-0.0818849
0.13477
-0.0952119
0.14312
-0.105546
0.148774
-0.114334
-0.117676
0.151279
0.000821382
0.00199507
0.00301627
0.00686161
0.00623421
0.0114674
0.0100953
0.0149506
0.0143317
0.0169042
0.0188289
0.017275
0.0235839
0.0162009
0.0286392
0.0138727
0.0340349
0.0104615
0.0397924
0.0060956
0.04591
0.000875109
0.0526008
-0.00533268
0.0599184
-0.0124965
0.0681987
-0.0208244
0.077787
-0.03052
0.0889146
-0.0417005
0.101465
-0.0542617
0.114867
-0.0676893
0.128041
-0.0812561
0.139775
-0.0936191
0.148847
-0.104284
0.154759
-0.111457
0.157473
-0.117049
-0.11779
0.157587
0.000540559
0.00145451
0.00221694
0.00518523
0.00491676
0.00876756
0.00840406
0.0114633
0.0124492
0.0128591
0.0169043
0.0128199
0.0217092
0.011396
0.0268682
0.00871369
0.0324337
0.00489598
0.0385028
2.65466e-05
0.0453597
-0.00598178
0.0532093
-0.0131824
0.062449
-0.0217362
0.073386
-0.0317614
0.0860809
-0.0432149
0.100192
-0.0558116
0.114882
-0.0689513
0.128979
-0.0817868
0.141118
-0.0933951
0.150319
-0.10282
0.155958
-0.109923
0.158457
-0.113956
0.158445
-0.117037
-0.116504
0.157158
0.000248158
0.00120635
0.00132196
0.00411144
0.00331302
0.0067765
0.00613824
0.00863812
0.0096551
0.0093422
0.013752
0.00872303
0.018395
0.00675299
0.0236503
0.00345841
0.0297032
-0.00115687
0.0368746
-0.00714485
0.0455046
-0.0146118
0.0559476
-0.0236254
0.0683583
-0.0341469
0.082537
-0.04594
0.0978457
-0.0585237
0.113246
-0.0712119
0.127457
-0.0831626
0.139281
-0.09361
0.147832
-0.101947
0.152982
-0.10797
0.155067
-0.112009
0.155247
-0.114136
0.154313
-0.116104
-0.115619
0.153429
-2.26972e-05
0.00122905
0.000473204
0.00361554
0.0017464
0.0055033
0.00386174
0.00652278
0.00681109
0.00639285
0.0106128
0.00492134
0.0153815
0.00198427
0.0213628
-0.0025229
0.0289066
-0.00870063
0.0383772
-0.0166155
0.0499873
-0.0262219
0.0636503
-0.0372883
0.0788691
-0.0493657
0.0947419
-0.0618129
0.110088
-0.0738696
0.123667
-0.0847911
0.134471
-0.0939668
0.141988
-0.101126
0.146318
-0.106277
0.148235
-0.109886
0.148592
-0.112366
0.148573
-0.114117
0.148359
-0.115889
-0.11597
0.14871
-0.000224776
0.00145382
-0.000151598
0.00354236
0.000608028
0.00474368
0.00228263
0.00484818
0.00505217
0.00362331
0.00914463
0.000828878
0.014872
-0.00374314
0.0226077
-0.0102586
0.0326441
-0.018737
0.0450206
-0.0289921
0.0593873
-0.0405886
0.0749741
-0.0528751
0.0906855
-0.0650771
0.105296
-0.0764233
0.117707
-0.0862811
0.127197
-0.0942812
0.133606
-0.100375
0.137331
-0.104852
0.13917
-0.108116
0.140016
-0.110733
0.140474
-0.112823
0.141209
-0.114852
0.141914
-0.116594
-0.117254
0.143197
-0.000305788
-0.000389445
0.000262476
0.00203464
0.0053307
0.0105409
0.018086
0.0281938
0.0407461
0.0551692
0.0704785
0.0854596
0.0989254
0.109977
0.118201
0.123728
0.127135
0.129167
0.130503
0.131527
0.132397
0.133283
0.133983
0.136476
0.0467857
-0.130852
0.125653
0.0499548
-0.140367
0.137198
0.0494397
-0.145434
0.145949
0.0453753
-0.148949
0.153014
0.0407174
-0.153139
0.157796
0.0404509
-0.155635
0.155902
0.0480968
-0.149124
0.141479
0.0629292
-0.12677
0.111938
0.0806973
-0.0875215
0.0697534
0.0980761
-0.0356095
0.0182307
0.114084
0.023903
-0.0399111
0.128324
0.0833309
-0.0975704
0.139934
0.132138
-0.143748
0.148082
0.16313
-0.171279
0.152391
0.177653
-0.181962
0.153709
0.182457
-0.183775
0.15387
0.181784
-0.181944
0.15334
0.179749
-0.179219
0.150765
0.186149
-0.183575
0.145445
0.206139
-0.20082
0.139068
0.224664
-0.218287
0.134345
0.212608
-0.207885
0.132898
0.151693
-0.150247
0.135446
0.0508849
-0.0534332
0.141048
-0.0588049
0.0532029
0.147403
-0.147767
0.141412
0.152659
-0.202212
0.196956
0.156637
-0.22277
0.218792
0.158208
-0.224596
0.223025
0.155367
-0.23076
0.233601
0.147514
-0.247182
0.255035
0.136119
-0.256737
0.268132
0.124587
-0.234096
0.245628
0.117095
-0.167272
0.174764
0.116387
-0.0596806
0.0603885
0.122141
0.0573066
-0.0630602
0.131577
0.154467
-0.163903
0.139046
0.215584
-0.223054
0.138983
0.256466
-0.256403
0.131443
0.290161
-0.282621
0.121274
0.294357
-0.284189
0.114308
0.247427
-0.240461
0.114207
0.129744
-0.129643
0.121168
-0.00591935
-0.00104147
0.127047
-0.124159
0.11828
0.127152
-0.215838
0.215733
0.123248
-0.277452
0.281356
0.119947
-0.30756
0.310861
0.118954
-0.239176
0.240169
0.120025
-0.122055
0.120983
0.119894
0.0541481
-0.0540172
0.118201
0.224702
-0.223009
0.116411
0.312149
-0.310358
0.11574
0.336455
-0.335784
0.112901
0.161165
-0.158326
0.109722
-0.0395249
0.0427047
0.104737
-0.228421
0.233406
0.102763
-0.396158
0.398132
0.0980306
-0.135019
0.139751
0.0781558
-0.0744961
0.0673327
-0.132458
0.0683728
-0.141407
0.0669119
-0.143973
0.0608569
-0.142894
0.050616
-0.142898
0.0406633
-0.145683
0.0373047
-0.145766
0.0437499
-0.133216
0.0581083
-0.10188
0.0761487
-0.0536499
0.0952241
0.00482754
0.113722
0.0648332
0.130083
0.115777
0.142804
0.150409
0.151102
0.169355
0.155816
0.177742
0.15875
0.17885
0.160598
0.177901
0.160682
0.186065
0.158571
0.20825
0.155148
0.228087
0.151753
0.216004
0.149342
0.154104
0.148675
0.0515523
0.150282
-0.0604122
0.152905
-0.150391
0.154848
-0.204155
0.155899
-0.22382
0.155127
-0.223823
0.150291
-0.225925
0.140689
-0.237579
0.128198
-0.244247
0.116665
-0.222563
0.110284
-0.160891
0.111576
-0.0609719
0.120192
0.04869
0.132108
0.142551
0.141153
0.206539
0.142408
0.255211
0.13603
0.296538
0.126183
0.304204
0.118372
0.255238
0.116385
0.131731
0.122052
-0.0115861
0.127551
-0.129658
0.127232
-0.215519
0.122491
-0.27271
0.118848
-0.303918
0.118281
-0.238609
0.119691
-0.123464
0.120555
0.0532835
0.119563
0.225694
0.118562
0.31315
0.117901
0.337116
0.114301
0.164764
0.110496
-0.0357192
0.104052
-0.221978
0.102118
-0.394223
0.099266
-0.132168
0.0815629
0.0893807
-0.129247
0.0855181
-0.137545
0.0813503
-0.139806
0.0752673
-0.136811
0.0642571
-0.131887
0.0491338
-0.130559
0.0361695
-0.132802
0.0323948
-0.129441
0.0399391
-0.109424
0.0558605
-0.0695713
0.0763715
-0.0156835
0.0983898
0.0428148
0.119179
0.0949878
0.13639
0.133198
0.148822
0.156923
0.157189
0.169376
0.163177
0.172862
0.167759
0.173319
0.170925
0.182899
0.172374
0.206801
0.172132
0.228329
0.170214
0.217922
0.166554
0.157764
0.162446
0.0556611
0.159782
-0.0577484
0.158534
-0.149143
0.157148
-0.202769
0.155329
-0.222002
0.152425
-0.22092
0.146138
-0.219637
0.135411
-0.226853
0.122092
-0.230927
0.1104
-0.210871
0.104912
-0.155403
0.108059
-0.0641184
0.118972
0.0377765
0.133076
0.128448
0.143793
0.195821
0.146787
0.252217
0.141958
0.301367
0.132679
0.313483
0.124064
0.263853
0.119905
0.13589
0.123681
-0.0153627
0.128609
-0.134586
0.127928
-0.214838
0.122279
-0.267062
0.118017
-0.299655
0.117794
-0.238385
0.1197
-0.125371
0.121663
0.0513204
0.121433
0.225924
0.121149
0.313435
0.120521
0.337743
0.116277
0.169009
0.111929
-0.0313711
0.104131
-0.21418
0.102068
-0.392161
0.101073
-0.131173
0.0846402
0.11189
-0.122809
0.103598
-0.129252
0.0947144
-0.130923
0.0868207
-0.128917
0.0778263
-0.122893
0.0635021
-0.116235
0.0454656
-0.114765
0.0319464
-0.115922
0.0301262
-0.107604
0.0407403
-0.0801854
0.0599928
-0.0349359
0.0838343
0.0189733
0.107854
0.0709686
0.128831
0.11222
0.145102
0.140652
0.157046
0.157432
0.166084
0.163824
0.173424
0.165979
0.179671
0.176651
0.184737
0.201735
0.187941
0.225125
0.188
0.217863
0.183611
0.162153
0.176159
0.0631138
0.169436
-0.051026
0.164328
-0.144035
0.159619
-0.19806
0.155031
-0.217414
0.150136
-0.216024
0.142715
-0.212216
0.131424
-0.215562
0.117755
-0.217259
0.105897
-0.199014
0.10082
-0.150326
0.105262
-0.0685606
0.118055
0.0249837
0.13417
0.112332
0.146847
0.183145
0.151954
0.247109
0.148928
0.304394
0.140498
0.321912
0.131329
0.273022
0.124891
0.142329
0.126181
-0.0166532
0.130207
-0.138612
0.129212
-0.213843
0.122623
-0.260473
0.11751
-0.294542
0.117515
-0.23839
0.120014
-0.12787
0.123162
0.048173
0.12375
0.225337
0.124108
0.313076
0.123535
0.338316
0.118763
0.173781
0.114004
-0.026612
0.104959
-0.205135
0.10259
-0.389791
0.103386
-0.131969
0.0872989
0.128307
-0.113443
0.117751
-0.118696
0.106079
-0.11925
0.0948933
-0.117732
0.0859576
-0.113957
0.0761615
-0.106439
0.0606484
-0.0992522
0.0423251
-0.0975983
0.0309559
-0.0962348
0.033194
-0.0824234
0.0480534
-0.0497953
0.0711621
-0.00413541
0.0965278
0.0456029
0.120195
0.0885532
0.139819
0.121028
0.155136
0.142115
0.167102
0.151858
0.177009
0.156072
0.186031
0.167629
0.19448
0.193286
0.201064
0.218541
0.203192
0.215735
0.198919
0.166425
0.189344
0.0726892
0.178834
-0.0405163
0.169828
-0.135029
0.161967
-0.190199
0.154842
-0.210289
0.148185
-0.209367
0.140031
-0.204061
0.128662
-0.204194
0.115073
-0.203669
0.103107
-0.187049
0.0979981
-0.145216
0.103057
-0.0736198
0.117128
0.0109131
0.134988
0.0944725
0.149839
0.168293
0.157547
0.239402
0.156967
0.304974
0.149792
0.329087
0.140213
0.282602
0.131399
0.151142
0.129616
-0.0148694
0.132282
-0.141278
0.131005
-0.212567
0.1235
-0.252968
0.117322
-0.288364
0.117414
-0.238483
0.120564
-0.13102
0.124985
0.0437524
0.126446
0.223875
0.127371
0.312152
0.126876
0.338811
0.121689
0.178968
0.116686
-0.0216089
0.106529
-0.194979
0.103658
-0.38692
0.106182
-0.134493
0.0894788
0.138938
-0.101103
0.126322
-0.106081
0.114166
-0.107093
0.102102
-0.105668
0.0914489
-0.103304
0.0835064
-0.0984964
0.0741749
-0.0899206
0.0590028
-0.0824263
0.0425759
-0.0798078
0.0352153
-0.0750628
0.0422993
-0.0568793
0.0607783
-0.0226144
0.0853588
0.0210225
0.110147
0.0637654
0.132263
0.0989111
0.150578
0.1238
0.165302
0.137134
0.177554
0.14382
0.188982
0.156201
0.200368
0.1819
0.209971
0.208938
0.214135
0.211571
0.210331
0.170229
0.199787
0.0832339
0.186813
-0.0275427
0.174644
-0.12286
0.16403
-0.179585
0.154708
-0.200967
0.146456
-0.201116
0.137739
-0.195344
0.126746
-0.1932
0.113731
-0.190653
0.101834
-0.175152
0.0962841
-0.139667
0.101182
-0.078518
0.115847
-0.00375182
0.135164
0.0751553
0.152356
0.151102
0.162945
0.228812
0.165135
0.302784
0.159694
0.334527
0.150133
0.292162
0.139204
0.162072
0.13397
-0.00963535
0.134744
-0.142052
0.13319
-0.211013
0.124875
-0.244652
0.117437
-0.280926
0.117433
-0.238479
0.121262
-0.134849
0.127034
0.0379801
0.129425
0.221484
0.130853
0.310724
0.130465
0.339199
0.124977
0.184456
0.119919
-0.01655
0.108825
-0.183885
0.105264
-0.38336
0.109405
-0.138635
0.0911202
0.144315
-0.0878304
0.130684
-0.0924493
0.118058
-0.0944676
0.106836
-0.0944458
0.0962349
-0.0927036
0.0875755
-0.0898369
0.0816459
-0.0839911
0.073824
-0.0746043
0.0604432
-0.0664271
0.0472043
-0.0618238
0.0441419
-0.053817
0.0547427
-0.0332153
0.0756695
9.56721e-05
0.0997918
0.0396432
0.123178
0.0755254
0.143691
0.103286
0.160646
0.12018
0.174736
0.12973
0.18795
0.142987
0.201723
0.168128
0.214218
0.196443
0.22078
0.205008
0.218048
0.172961
0.207215
0.0940672
0.19283
-0.013158
0.178428
-0.108457
0.16555
-0.166708
0.15443
-0.189846
0.144883
-0.19157
0.135704
-0.186165
0.125286
-0.182783
0.113311
-0.178679
0.101831
-0.163671
0.0955626
-0.133398
0.0995571
-0.0825125
0.113858
-0.0180531
0.134302
0.0547119
0.153902
0.131502
0.167747
0.214967
0.173338
0.297194
0.170339
0.337526
0.16103
0.301471
0.148095
0.175007
0.13916
-0.000700429
0.137499
-0.14039
0.135609
-0.209124
0.12668
-0.235723
0.117837
-0.272083
0.117502
-0.238144
0.122005
-0.139352
0.129218
0.0307667
0.132609
0.218094
0.134472
0.308861
0.134218
0.339453
0.128547
0.190127
0.12363
-0.011633
0.111813
-0.172067
0.107397
-0.378944
0.112991
-0.144229
0.0921597
0.144682
-0.0753547
0.13238
-0.0801465
0.120503
-0.0825913
0.109941
-0.083883
0.100622
-0.0833853
0.091906
-0.0811206
0.0853316
-0.0774167
0.0814406
-0.0707133
0.0757984
-0.060785
0.0653432
-0.0513686
0.055668
-0.0441417
0.055872
-0.0334193
0.0685913
-0.0126236
0.0898902
0.0183443
0.113548
0.0518679
0.135731
0.0811027
0.154361
0.101551
0.169513
0.114578
0.183546
0.128954
0.198716
0.152958
0.213362
0.181796
0.222186
0.196185
0.221174
0.173973
0.211181
0.10406
0.196725
0.00129768
0.181032
-0.0927633
0.166421
-0.152097
0.15384
-0.177265
0.143283
-0.181013
0.133721
-0.176602
0.123915
-0.172977
0.1133
-0.168063
0.102743
-0.153115
0.0957763
-0.126431
0.0980529
-0.0847892
0.111133
-0.0311336
0.132221
0.0336244
0.154131
0.109592
0.171171
0.197927
0.180142
0.288222
0.180006
0.337662
0.17189
0.309587
0.157452
0.189445
0.14505
0.0117018
0.140453
-0.135793
0.138089
-0.206759
0.128822
-0.226456
0.118514
-0.261775
0.117562
-0.237192
0.12269
-0.14448
0.131425
0.0220319
0.135882
0.213637
0.13813
0.306613
0.138062
0.33952
0.132325
0.195863
0.12774
-0.0070477
0.115443
-0.15977
0.110038
-0.373539
0.116869
-0.15106
0.0925313
0.142523
-0.0644485
0.131793
-0.0694172
0.121504
-0.0723021
0.111841
-0.0742196
0.103334
-0.074879
0.0958523
-0.0736385
0.0891344
-0.0706988
0.084595
-0.0661738
0.0826187
-0.0588087
0.0796728
-0.0484227
0.0730168
-0.0374857
0.0669604
-0.0273629
0.0691956
-0.0148589
0.082761
0.00477893
0.10351
0.031119
0.126275
0.0583372
0.14659
0.0812359
0.162894
0.0982737
0.177262
0.114586
0.192931
0.137288
0.209205
0.165522
0.220337
0.185053
0.221203
0.173107
0.212474
0.112789
0.197999
0.0157728
0.182065
-0.0768291
0.166399
-0.136432
0.152756
-0.163622
0.141528
-0.169786
0.131673
-0.166747
0.122342
-0.163646
0.113147
-0.158868
0.104051
-0.144019
0.0968578
-0.119238
0.0969395
-0.0848709
0.107794
-0.0419882
0.128612
0.0128067
0.152601
0.0856025
0.173267
0.177261
0.18612
0.275369
0.189065
0.334717
0.182689
0.315963
0.167199
0.204935
0.151268
0.0276336
0.143512
-0.128038
0.140444
-0.203691
0.131166
-0.217179
0.119442
-0.250051
0.117555
-0.235305
0.123193
-0.150118
0.13356
0.0116651
0.139188
0.208009
0.141748
0.304053
0.141906
0.339363
0.136243
0.201526
0.132161
-0.00296598
0.119646
-0.147255
0.113154
-0.367046
0.120969
-0.158875
0.0921684
0.139767
-0.0555053
0.130447
-0.0600972
0.121304
-0.0631587
0.112707
-0.0656227
0.104784
-0.0669559
0.0979119
-0.0667668
0.0921194
-0.0649063
0.0873652
-0.0614196
0.0846984
-0.0561419
0.0846315
-0.0483558
0.0844439
-0.0372981
0.0814987
-0.0244177
0.0785297
-0.0118899
0.0821222
0.00118641
0.0949248
0.0183165
0.113915
0.0393471
0.133843
0.0613079
0.151274
0.0808423
0.167014
0.0988468
0.183769
0.120533
0.200812
0.148479
0.213024
0.172841
0.215949
0.170181
0.209739
0.119
0.197579
0.0279327
0.182076
-0.0613261
0.165667
-0.120023
0.151059
-0.149014
0.139359
-0.158086
0.129364
-0.156752
0.120337
-0.154618
0.112367
-0.150898
0.105093
-0.136746
0.0985248
-0.11267
0.0965652
-0.0829112
0.104236
-0.0496585
0.123695
-0.0066525
0.149083
0.0602147
0.172746
0.153598
0.189211
0.258904
0.195561
0.328368
0.191634
0.31989
0.176505
0.220064
0.158004
0.0461347
0.146605
-0.11664
0.142486
-0.199572
0.13353
-0.208222
0.120563
-0.237084
0.117439
-0.232181
0.12341
-0.156089
0.135488
-0.000412773
0.142398
0.201099
0.145234
0.301216
0.145685
0.338913
0.140254
0.206957
0.136815
0.000473131
0.12434
-0.13478
0.116696
-0.359403
0.125219
-0.167399
0.09101
0.135655
-0.0479631
0.127417
-0.0518595
0.119107
-0.0548481
0.111209
-0.057725
0.103932
-0.0596794
0.0975009
-0.0603353
0.0923068
-0.0597122
0.0883958
-0.0575086
0.0856756
-0.0534217
0.0848898
-0.04757
0.0867461
-0.0391545
0.0896577
-0.0273294
0.0910854
-0.0133176
0.092229
4.28015e-05
0.0962286
0.0143168
0.106421
0.0291543
0.120797
0.0469323
0.136019
0.0656201
0.151838
0.0830279
0.170104
0.102267
0.189769
0.128815
0.205044
0.157566
0.210227
0.164998
0.205707
0.12352
0.194383
0.0392569
0.179679
-0.0466218
0.163335
-0.103679
0.148329
-0.134008
0.136509
-0.146266
0.126655
-0.146898
0.117858
-0.14582
0.110766
-0.143806
0.105301
-0.131281
0.100213
-0.107582
0.0971576
-0.0798557
0.10121
-0.0537111
0.117605
-0.0230472
0.143616
0.0342041
0.170928
0.126285
0.191551
0.238281
0.200856
0.319063
0.198767
0.321979
0.18505
0.233781
0.164485
0.0666994
0.149587
-0.101741
0.144041
-0.194026
0.135738
-0.199919
0.121916
-0.223262
0.117237
-0.227503
0.123204
-0.162056
0.137188
-0.0143968
0.145503
0.192784
0.148542
0.298178
0.149324
0.33813
0.144307
0.211974
0.141603
0.00317758
0.129419
-0.122596
0.120626
-0.35061
0.129568
-0.17634
0.0890121
0.130344
-0.0418311
0.123284
-0.0447988
0.116191
-0.0477551
0.109204
-0.0507385
0.102746
-0.0532208
0.0971292
-0.0547189
0.0923906
-0.0549735
0.0887045
-0.0538224
0.0861871
-0.0509044
0.084812
-0.0461949
0.0854614
-0.0398038
0.0888458
-0.0307138
0.0935623
-0.0180341
0.0971699
-0.00356478
0.101024
0.0104623
0.106277
0.0239021
0.11396
0.0392491
0.123779
0.0558013
0.136184
0.0706226
0.152561
0.0858896
0.171506
0.10987
0.187325
0.141747
0.195747
0.156577
0.197172
0.122095
0.191581
0.0448473
0.178561
-0.033601
0.161954
-0.087073
0.146153
-0.118206
0.133979
-0.134093
0.124282
-0.137201
0.115569
-0.137107
0.108874
-0.137111
0.104768
-0.127175
0.101455
-0.104269
0.09843
-0.0768309
0.0994405
-0.0547217
0.111436
-0.035043
0.135699
0.00994162
0.164626
0.0973585
0.189189
0.213718
0.202883
0.305368
0.204164
0.320699
0.192062
0.245882
0.171157
0.0876049
0.152977
-0.083561
0.145529
-0.186578
0.137895
-0.192285
0.123708
-0.209075
0.117236
-0.221031
0.12284
-0.167659
0.138282
-0.0298392
0.14831
0.182757
0.151616
0.294871
0.152779
0.336967
0.148372
0.216381
0.146526
0.005023
0.134809
-0.110878
0.124938
-0.340739
0.133966
-0.185368
0.0861478
0.187265
-0.035735
-0.193361
0.182135
-0.039669
0.176962
-0.0425822
0.171348
-0.0451247
0.165282
-0.0471542
0.158942
-0.0483793
0.152465
-0.0484961
0.145952
-0.0473094
0.13956
-0.0445128
0.133314
-0.0399487
0.127317
-0.0338068
0.122133
-0.0255299
0.118485
-0.0143857
0.116157
-0.00123682
0.113622
0.0129973
0.11048
0.027044
0.107658
0.0420711
0.107287
0.056172
0.110814
0.0670959
0.117332
0.0793711
0.124907
0.102295
0.135991
0.130662
0.156915
0.135653
0.184143
0.0948673
0.203208
0.0257822
0.208707
-0.0390998
0.203355
-0.0817215
0.192569
-0.10742
0.180815
-0.122339
0.169234
-0.125619
0.157848
-0.125722
0.147396
-0.126659
0.13804
-0.117819
0.128393
-0.0946217
0.11891
-0.0673476
0.112734
-0.0485459
0.115868
-0.0381768
0.128438
-0.00262789
0.143329
0.0824668
0.156069
0.200978
0.165688
0.29575
0.173911
0.312475
0.177807
0.241987
0.17526
0.0901518
0.168658
-0.0769594
0.163591
-0.181511
0.15537
-0.184064
0.139646
-0.19335
0.1283
-0.209685
0.125527
-0.164886
0.131554
-0.0358659
0.134494
0.179816
0.135285
0.294081
0.139091
0.333161
0.140745
0.214727
0.142517
0.00325087
0.133358
-0.101719
0.121532
-0.328913
0.126161
-0.189998
0.0841749
0.195598
-0.0307854
-0.200547
0.190434
-0.0345052
0.185168
-0.0373169
0.179589
-0.0395454
0.173668
-0.0412334
0.167503
-0.0422135
0.161263
-0.0422564
0.155113
-0.0411593
0.14925
-0.0386496
0.14386
-0.0345596
0.139012
-0.0289585
0.134886
-0.0214037
0.131931
-0.0114312
0.130408
0.000286988
0.129992
0.0134132
0.129152
0.0278834
0.127858
0.043365
0.127446
0.0565843
0.128834
0.0657081
0.131988
0.0762174
0.138426
0.0958572
0.153658
0.11543
0.179703
0.109609
0.206214
0.0683561
0.220903
0.011093
0.221644
-0.0398411
0.213548
-0.0736247
0.201411
-0.0952839
0.189189
-0.110117
0.177763
-0.114194
0.166515
-0.114473
0.156117
-0.116261
0.147369
-0.109071
0.139119
-0.0863717
0.130648
-0.0588764
0.123487
-0.041385
0.124644
-0.0393338
0.136611
-0.0145947
0.153343
0.0657338
0.168421
0.1859
0.180065
0.284106
0.190183
0.302356
0.195171
0.237
0.192819
0.0925034
0.18437
-0.0685104
0.177039
-0.17418
0.167896
-0.174922
0.151143
-0.176597
0.13824
-0.196782
0.135135
-0.161781
0.142566
-0.0432973
0.146442
0.175941
0.1469
0.293622
0.151368
0.328694
0.153954
0.21214
0.15645
0.000755099
0.146913
-0.0921816
0.133253
-0.315254
0.137589
-0.194333
0.0817121
0.204589
-0.0266921
-0.208683
0.199793
-0.0297089
0.194806
-0.0323304
0.189611
-0.0343503
0.184159
-0.035781
0.178489
-0.0365437
0.172718
-0.0364854
0.166993
-0.035434
0.161499
-0.0331553
0.156411
-0.0294717
0.151857
-0.0244044
0.148091
-0.0176379
0.145549
-0.00888977
0.144525
0.00131147
0.14503
0.0129082
0.146459
0.0264544
0.148456
0.0413683
0.150905
0.0541348
0.153378
0.063235
0.156539
0.0730569
0.164384
0.0880118
0.182205
0.0976088
0.207304
0.0845095
0.22802
0.047641
0.236046
0.00306679
0.232908
-0.0367035
0.22383
-0.064547
0.212076
-0.0835297
0.200283
-0.0983242
0.189293
-0.103203
0.178202
-0.103382
0.167541
-0.1056
0.158729
-0.10026
0.151246
-0.078888
0.143715
-0.0513452
0.135646