/*--------------------------------*- C++ -*----------------------------------*\
| =========                 |                                                 |
| \\      /  F ield         | OpenFOAM: The Open Source CFD Toolbox           |
|  \\    /   O peration     | Version:  2512                                  |
|   \\  /    A nd           | Website:  www.openfoam.com                      |
|    \\/     M anipulation  |                                                 |
\*---------------------------------------------------------------------------*/
FoamFile
{
    version     2.0;
    format      ascii;
    arch        "LSB;label=32;scalar=64";
    class       volScalarField;
    location    "22.5";
    object      p;
}
// * * * * * * * * * * * * * * * * * * * * * * * * * * * * * * * * * * * * * //

dimensions      [0 2 -2 0 0 0 0];

internalField   nonuniform List<scalar> 
13248
(
-0.252399
-0.252095
-0.250979
-0.249245
-0.247144
-0.244932
-0.24289
-0.241281
-0.240297
-0.24008
-0.240685
-0.242093
-0.244229
-0.24697
-0.250154
-0.253596
-0.257083
-0.260445
-0.263414
-0.266007
-0.267743
-0.268995
-0.268608
-0.267157
-0.254541
-0.254252
-0.252994
-0.251064
-0.248747
-0.246291
-0.243962
-0.241995
-0.240565
-0.239776
-0.239655
-0.240162
-0.2412
-0.242625
-0.244258
-0.245913
-0.247397
-0.248556
-0.24925
-0.249398
-0.248879
-0.247723
-0.245743
-0.243989
-0.258179
-0.25764
-0.256106
-0.253961
-0.251436
-0.248762
-0.246155
-0.243798
-0.24182
-0.240288
-0.239212
-0.238543
-0.238185
-0.238001
-0.237842
-0.237576
-0.237083
-0.236322
-0.235204
-0.233774
-0.231884
-0.229668
-0.227036
-0.224722
-0.263405
-0.262314
-0.260374
-0.257871
-0.255034
-0.252048
-0.249056
-0.246164
-0.243446
-0.240942
-0.23866
-0.23657
-0.234607
-0.232691
-0.230758
-0.22876
-0.226676
-0.22448
-0.222135
-0.219608
-0.216791
-0.213796
-0.210495
-0.207682
-0.270248
-0.268334
-0.265786
-0.262767
-0.259469
-0.256013
-0.252445
-0.248784
-0.245054
-0.241301
-0.237568
-0.233883
-0.230259
-0.22671
-0.223242
-0.219856
-0.216529
-0.213222
-0.209882
-0.206471
-0.202927
-0.199327
-0.195586
-0.192364
-0.278763
-0.275827
-0.272502
-0.268824
-0.264896
-0.26074
-0.256287
-0.251485
-0.246373
-0.241061
-0.235681
-0.230352
-0.22517
-0.220191
-0.215436
-0.210891
-0.206522
-0.202285
-0.198139
-0.194039
-0.18995
-0.185895
-0.18181
-0.178214
-0.289133
-0.285005
-0.280795
-0.276328
-0.271538
-0.266308
-0.260482
-0.254042
-0.24714
-0.240016
-0.232909
-0.226003
-0.21941
-0.213178
-0.207307
-0.20177
-0.196523
-0.19152
-0.186712
-0.182054
-0.177517
-0.173082
-0.168737
-0.164828
-0.301534
-0.296087
-0.290908
-0.285474
-0.279443
-0.272566
-0.264742
-0.256142
-0.247124
-0.238061
-0.229247
-0.220863
-0.212992
-0.205646
-0.198798
-0.1924
-0.1864
-0.180741
-0.175375
-0.170257
-0.165354
-0.160632
-0.156107
-0.151964
-0.316008
-0.309149
-0.302894
-0.296187
-0.288329
-0.279076
-0.268615
-0.257449
-0.246137
-0.235122
-0.224675
-0.214921
-0.205884
-0.197533
-0.189812
-0.182657
-0.176004
-0.169794
-0.163969
-0.158481
-0.153285
-0.148341
-0.143678
-0.139319
-0.332277
-0.323992
-0.316475
-0.30799
-0.297527
-0.285136
-0.271534
-0.257578
-0.243944
-0.231041
-0.219056
-0.208027
-0.197915
-0.18865
-0.180151
-0.172336
-0.165132
-0.158466
-0.152276
-0.146501
-0.141086
-0.135995
-0.131224
-0.126693
-0.349743
-0.340051
-0.330955
-0.319954
-0.305996
-0.289818
-0.272774
-0.255976
-0.240085
-0.225395
-0.211973
-0.199767
-0.188681
-0.178605
-0.169433
-0.161067
-0.153417
-0.146403
-0.139951
-0.133992
-0.128464
-0.123321
-0.118512
-0.113913
-0.367429
-0.356391
-0.345233
-0.330785
-0.312468
-0.292042
-0.271446
-0.251879
-0.233865
-0.217531
-0.202811
-0.189566
-0.177642
-0.166893
-0.157185
-0.148401
-0.140437
-0.1332
-0.126607
-0.120582
-0.115062
-0.109997
-0.105301
-0.100873
-0.233035
-0.236908
-0.239466
-0.242366
-0.246266
-0.251238
-0.257251
-0.264257
-0.2722
-0.281019
-0.290644
-0.300999
-0.311995
-0.323593
-0.335662
-0.348087
-0.360749
-0.373517
-0.386241
-0.398748
-0.410896
-0.422576
-0.433929
-0.444603
-0.230624
-0.234401
-0.236898
-0.239681
-0.243378
-0.248064
-0.253711
-0.260272
-0.267694
-0.275919
-0.28489
-0.294545
-0.304821
-0.315589
-0.326796
-0.338357
-0.350179
-0.362162
-0.374189
-0.386112
-0.39778
-0.409137
-0.420362
-0.431543
-0.231091
-0.234402
-0.23667
-0.239243
-0.242671
-0.247024
-0.25228
-0.258392
-0.265308
-0.272974
-0.281335
-0.290339
-0.299923
-0.310012
-0.32054
-0.331439
-0.342638
-0.354066
-0.365649
-0.37729
-0.388838
-0.400161
-0.411431
-0.423306
-0.233716
-0.236291
-0.238203
-0.240489
-0.243587
-0.247563
-0.252398
-0.258046
-0.264458
-0.271582
-0.279368
-0.287767
-0.29673
-0.306204
-0.316138
-0.326478
-0.337173
-0.348169
-0.359417
-0.370867
-0.382432
-0.393937
-0.405216
-0.416904
-0.237594
-0.239266
-0.240721
-0.242641
-0.245339
-0.248871
-0.253221
-0.258347
-0.2642
-0.270732
-0.277901
-0.285667
-0.293989
-0.302832
-0.312158
-0.32193
-0.332111
-0.342663
-0.353545
-0.364709
-0.37611
-0.387778
-0.399946
-0.40862
-0.241754
-0.242495
-0.243432
-0.24491
-0.24712
-0.250113
-0.253878
-0.258378
-0.263566
-0.269403
-0.275854
-0.282887
-0.290476
-0.298595
-0.307222
-0.316331
-0.325894
-0.335883
-0.346268
-0.356984
-0.368044
-0.379186
-0.391079
-0.400844
-0.245427
-0.245344
-0.245754
-0.24672
-0.248338
-0.250667
-0.253709
-0.257439
-0.261823
-0.266827
-0.272427
-0.278604
-0.28534
-0.292623
-0.300439
-0.308774
-0.31761
-0.326902
-0.336689
-0.346755
-0.357467
-0.367706
-0.379575
-0.388719
-0.248171
-0.247491
-0.24741
-0.247814
-0.24874
-0.250266
-0.252427
-0.255226
-0.258649
-0.262681
-0.267309
-0.272527
-0.278327
-0.284708
-0.29166
-0.299182
-0.307277
-0.315768
-0.324924
-0.334117
-0.344517
-0.353814
-0.365391
-0.373601
-0.249881
-0.248896
-0.248415
-0.248247
-0.248413
-0.249026
-0.250172
-0.2519
-0.254236
-0.257194
-0.260783
-0.265009
-0.26988
-0.275398
-0.281508
-0.288233
-0.295647
-0.303574
-0.312386
-0.320963
-0.331098
-0.33958
-0.350515
-0.357678
-0.250725
-0.249725
-0.248963
-0.248267
-0.247677
-0.247353
-0.24744
-0.248052
-0.249272
-0.251156
-0.253744
-0.257055
-0.261078
-0.265854
-0.271425
-0.277675
-0.284633
-0.292026
-0.300258
-0.308279
-0.317628
-0.325618
-0.335476
-0.341964
-0.251071
-0.250271
-0.24934
-0.248197
-0.246939
-0.245768
-0.244893
-0.244496
-0.244724
-0.245681
-0.247428
-0.250025
-0.253494
-0.257772
-0.262808
-0.268504
-0.274768
-0.281426
-0.288474
-0.295541
-0.303095
-0.310184
-0.318316
-0.324147
-0.251431
-0.250915
-0.249885
-0.248394
-0.246617
-0.244794
-0.243184
-0.242024
-0.241517
-0.241798
-0.242955
-0.244996
-0.24789
-0.251551
-0.255861
-0.260684
-0.265819
-0.271163
-0.276388
-0.281573
-0.286326
-0.290942
-0.295688
-0.300198
-0.455583
-0.464998
-0.471275
-0.473838
-0.472394
-0.466469
-0.455891
-0.440414
-0.420005
-0.394611
-0.3643
-0.329071
-0.289017
-0.24393
-0.19421
-0.143776
-0.091646
-0.0392842
0.00936298
0.0504092
0.0811668
0.100932
0.110707
0.112529
0.108882
0.101989
0.0934893
0.0845839
0.0759214
0.0677736
0.0605027
0.0540102
0.0481574
0.0429285
0.0382542
0.0340617
0.0303148
0.0269565
0.0239618
0.0212859
0.018905
0.0167852
0.0148996
0.013224
0.0117366
0.0104144
0.00923478
0.00816978
0.00720072
0.0063151
0.00550117
0.00475915
0.0040744
0.00344765
0.00286018
0.00231393
0.00178546
0.00127997
0.000769728
0.000264307
-0.443736
-0.454305
-0.462082
-0.466344
-0.466969
-0.4634
-0.455469
-0.442874
-0.425618
-0.403631
-0.376889
-0.34495
-0.308098
-0.26625
-0.222053
-0.171054
-0.117172
-0.0617812
-0.00923729
0.0359444
0.0704253
0.0932001
0.105282
0.108947
0.106711
0.100809
0.0930261
0.0845739
0.0761668
0.068306
0.0607202
0.0542664
0.0483453
0.043055
0.0383196
0.0340874
0.0303073
0.0269357
0.0239305
0.0212573
0.0188803
0.0167702
0.0148906
0.0132228
0.0117384
0.0104233
0.00924545
0.00818454
0.00721479
0.00632877
0.00551332
0.0047693
0.00408377
0.00345443
0.00286726
0.00231813
0.00179044
0.00128194
0.000772434
0.000263281
-0.437633
-0.449309
-0.4586
-0.464471
-0.467116
-0.465791
-0.460277
-0.450245
-0.435673
-0.416363
-0.392249
-0.363221
-0.329861
-0.291665
-0.248174
-0.198266
-0.143511
-0.0859485
-0.0302821
0.0184092
0.0561621
0.0816625
0.0960313
0.1017
0.101324
0.0969937
0.090475
0.0829854
0.0752735
0.0677889
0.0608736
0.054171
0.0482652
0.0429873
0.0382403
0.0340038
0.0302172
0.0268531
0.0238528
0.0211942
0.0188293
0.0167346
0.0148648
0.0132068
0.011727
0.0104201
0.00924564
0.00819059
0.00722198
0.00633727
0.00552159
0.00477662
0.00409101
0.00345968
0.00287318
0.00232153
0.00179488
0.00128362
0.000775029
0.000262263
-0.43425
-0.446923
-0.457717
-0.465267
-0.469575
-0.470278
-0.46688
-0.459045
-0.446575
-0.429278
-0.408179
-0.383033
-0.350285
-0.314381
-0.272268
-0.223696
-0.169047
-0.110253
-0.0525064
-0.00137045
0.0388179
0.0666662
0.0833208
0.0912867
0.0931226
0.0908038
0.0859458
0.079772
0.0730762
0.0663211
0.059743
0.0535531
0.0478022
0.0426754
0.0380012
0.0338117
0.0300568
0.0267225
0.023744
0.0211083
0.0187615
0.0166843
0.0148267
0.0131788
0.011705
0.0104058
0.00923622
0.00818768
0.00722235
0.00634037
0.00552602
0.00478116
0.00409625
0.00346357
0.00287807
0.00232433
0.00179887
0.00128516
0.000777575
0.000261343
-0.430338
-0.442887
-0.455688
-0.464997
-0.471085
-0.473613
-0.472323
-0.466469
-0.456031
-0.441543
-0.422025
-0.398251
-0.369088
-0.334506
-0.293725
-0.246061
-0.191986
-0.133158
-0.0745966
-0.0222409
0.0194951
0.0492883
0.0682391
0.0786775
0.082993
0.0830242
0.0800889
0.0754494
0.0699458
0.0640927
0.0582073
0.0524026
0.0468855
0.0420933
0.0376003
0.0335159
0.0298333
0.0265511
0.0236111
0.0210049
0.0186812
0.0166221
0.0147789
0.013141
0.0116747
0.0103818
0.00921834
0.00817592
0.0072158
0.00633762
0.00552625
0.00478253
0.00409923
0.0034659
0.00288176
0.00232645
0.00180231
0.00128657
0.000780014
0.000260545
-0.419746
-0.435298
-0.449154
-0.460446
-0.468508
-0.472978
-0.473699
-0.46989
-0.462194
-0.449661
-0.432469
-0.410403
-0.383063
-0.3501
-0.310694
-0.264413
-0.211459
-0.153512
-0.0954011
-0.0429878
-0.000520446
0.0308213
0.0520144
0.0649772
0.0718645
0.074379
0.073521
0.0705042
0.0662719
0.0613933
0.0562486
0.0510475
0.0461836
0.0413203
0.0370596
0.0331341
0.0295547
0.0263427
0.0234557
0.0208858
0.0185899
0.0165499
0.0147231
0.0130958
0.0116385
0.0103508
0.00919392
0.00815667
0.00720302
0.00632927
0.0055223
0.00478063
0.00409977
0.00346653
0.00288408
0.00232782
0.00180506
0.00128781
0.000782269
0.000259913
-0.404804
-0.421779
-0.437507
-0.4506
-0.460526
-0.467158
-0.470183
-0.469136
-0.463142
-0.452674
-0.437475
-0.417273
-0.3917
-0.360345
-0.322476
-0.277799
-0.226766
-0.170885
-0.114386
-0.0628113
-0.0202121
0.0123384
0.03562
0.0510428
0.0604084
0.0652643
0.0665826
0.0652413
0.0622977
0.0584278
0.0540462
0.0494746
0.0449024
0.0405148
0.0363803
0.0326549
0.0292117
0.0260884
0.023268
0.0207439
0.0184817
0.0164649
0.0146576
0.013043
0.0115965
0.0103142
0.00916422
0.00813147
0.00718488
0.00631598
0.00551439
0.00477559
0.00409783
0.00346545
0.00288491
0.0023284
0.00180702
0.00128888
0.000784273
0.000259521
-0.386727
-0.40367
-0.421057
-0.435775
-0.447175
-0.455528
-0.460602
-0.46153
-0.45798
-0.449775
-0.436677
-0.418381
-0.394485
-0.364458
-0.327881
-0.284679
-0.236203
-0.18414
-0.130951
-0.0811814
-0.0389558
-0.00553261
0.0195506
0.0372511
0.0488853
0.0558602
0.059286
0.0596942
0.0580811
0.0552507
0.0516737
0.0477083
0.0436347
0.0395607
0.0356923
0.0320888
0.0288249
0.0258077
0.0230621
0.0205892
0.0183637
0.016372
0.014585
0.0129843
0.0115496
0.0102733
0.00913022
0.0081017
0.0071622
0.00629848
0.0055028
0.00476762
0.00409339
0.00346268
0.00288415
0.00232816
0.00180809
0.00128978
0.000785953
0.00025947
-0.367851
-0.382875
-0.40101
-0.416955
-0.429472
-0.43924
-0.446004
-0.449365
-0.448065
-0.441997
-0.430904
-0.41445
-0.392243
-0.363827
-0.328988
-0.287695
-0.241342
-0.192936
-0.144629
-0.0978804
-0.056588
-0.0226301
0.00392841
0.023629
0.0373629
0.0463406
0.0515975
0.0538042
0.053577
0.0518137
0.0490842
0.0457948
0.0422157
0.0385452
0.0349126
0.0314773
0.0283311
0.0254558
0.0228031
0.020395
0.0182176
0.016261
0.0144993
0.0129165
0.0114956
0.0102273
0.00909164
0.00806789
0.0071354
0.00627732
0.00548773
0.00475691
0.00408642
0.00345821
0.0028817
0.0023271
0.00180814
0.00129054
0.00078723
0.000259883
-0.349296
-0.360926
-0.378267
-0.394183
-0.407038
-0.417894
-0.425711
-0.429607
-0.43009
-0.425976
-0.416873
-0.40248
-0.382412
-0.356268
-0.323999
-0.285917
-0.243272
-0.198623
-0.154806
-0.112028
-0.0725026
-0.0385182
-0.0108744
0.0104542
0.0260506
0.0368069
0.0437103
0.0476196
0.0488819
0.0482214
0.0463066
0.0436678
0.0406131
0.0373692
0.0340993
0.0309094
0.0278654
0.0250797
0.0225581
0.0202101
0.0180725
0.0161468
0.0144103
0.0128452
0.0114388
0.0101786
0.00905048
0.00803137
0.00710529
0.00625307
0.00546941
0.00474366
0.00407694
0.00345213
0.00287751
0.00232522
0.0018071
0.0012912
0.000788071
0.000260967
-0.328635
-0.338353
-0.354415
-0.368783
-0.381008
-0.392557
-0.402821
-0.409577
-0.411234
-0.408802
-0.401473
-0.388957
-0.370908
-0.347101
-0.317627
-0.282884
-0.244046
-0.20311
-0.163098
-0.124032
-0.0869425
-0.0535207
-0.0251461
-0.00246965
0.0147515
0.0271515
0.035577
0.0408649
0.0436334
0.0443713
0.043475
0.0415577
0.0390282
0.0361733
0.0331852
0.030199
0.0273214
0.0246046
0.0221517
0.01994
0.0178822
0.0160015
0.014295
0.0127547
0.0113659
0.0101192
0.00900008
0.00798917
0.00707041
0.00622571
0.00544821
0.00472841
0.00406536
0.00344479
0.0028717
0.0023227
0.00180492
0.00129182
0.000788446
0.000263122
-0.305368
-0.315178
-0.327593
-0.338392
-0.348812
-0.359326
-0.368289
-0.375041
-0.379054
-0.379293
-0.375042
-0.366271
-0.352452
-0.333355
-0.309099
-0.28006
-0.246977
-0.210869
-0.173892
-0.137234
-0.102272
-0.0700757
-0.0413412
-0.0172916
0.00179852
0.0162414
0.0266158
0.0336149
0.0377713
0.0396463
0.0398785
0.0388884
0.0370743
0.0347686
0.0321989
0.0295417
0.0269085
0.0243896
0.0219675
0.019695
0.0177067
0.0158841
0.0142121
0.0126892
0.0113164
0.0100761
0.00896409
0.00795411
0.00703915
0.00619802
0.00542483
0.0047104
0.00405029
0.00343484
0.00286273
0.00231843
0.00180044
0.00129169
0.000787615
0.000266524
-0.286316
-0.302121
-0.31196
-0.319555
-0.32762
-0.336495
-0.34519
-0.35261
-0.356958
-0.35631
-0.351919
-0.343729
-0.330952
-0.313241
-0.290768
-0.263988
-0.233651
-0.200748
-0.166918
-0.133324
-0.101031
-0.0711785
-0.0444645
-0.02175
-0.00338111
0.0108193
0.0212911
0.0286032
0.0333142
0.0358893
0.0367632
0.0363394
0.0350143
0.0331182
0.0308831
0.0284862
0.0260544
0.0236805
0.021429
0.0193605
0.0173997
0.0156017
0.0139861
0.0125025
0.0111628
0.00994773
0.00885723
0.00786872
0.00697038
0.00614503
0.00538244
0.00467886
0.00402457
0.0034176
0.00284804
0.00231029
0.00179297
0.00128949
0.000784767
0.00026958
-0.267437
-0.286217
-0.296529
-0.30262
-0.308547
-0.315412
-0.322433
-0.327995
-0.330438
-0.329638
-0.325313
-0.317276
-0.3052
-0.288891
-0.268509
-0.244468
-0.217469
-0.188299
-0.158086
-0.127917
-0.098771
-0.0716265
-0.0470951
-0.0258524
-0.00832333
0.00553022
0.0160284
0.0236308
0.028776
0.031827
0.0331891
0.0332644
0.0324139
0.0309451
0.0290819
0.0270044
0.0248412
0.022693
0.0206138
0.0186296
0.0168285
0.015178
0.0136358
0.012221
0.0109303
0.00975963
0.00869994
0.00773982
0.0068622
0.00605738
0.00531079
0.00462221
0.00397948
0.00338319
0.00282109
0.00229094
0.00177826
0.00128048
0.000778262
0.000269202
-0.249515
-0.269082
-0.279745
-0.284973
-0.289152
-0.293969
-0.299033
-0.303017
-0.304941
-0.304147
-0.300028
-0.292483
-0.281501
-0.267
-0.24903
-0.227859
-0.204024
-0.178162
-0.151141
-0.123963
-0.0974918
-0.0725648
-0.0498225
-0.0298528
-0.013082
0.000437999
0.010934
0.0187477
0.0242267
0.0277039
0.0295499
0.030124
0.0297487
0.0287108
0.0272278
0.0254794
0.0235942
0.0216782
0.0197907
0.0179909
0.0163069
0.0147256
0.0132602
0.011911
0.0106739
0.00954697
0.00852209
0.00759064
0.00673676
0.00595293
0.00522458
0.00455202
0.00392293
0.00333843
0.00278587
0.00226434
0.00175822
0.00126709
0.000769315
0.000267267
-0.232954
-0.251361
-0.261859
-0.266659
-0.269711
-0.273036
-0.276706
-0.279853
-0.281382
-0.280388
-0.276465
-0.269535
-0.259621
-0.246689
-0.23076
-0.212014
-0.190837
-0.167802
-0.143659
-0.119257
-0.0953488
-0.0726594
-0.0517865
-0.033224
-0.0173545
-0.00429968
0.00606368
0.0139777
0.0197247
0.0235922
0.0258921
0.0269371
0.0270176
0.0264006
0.0252944
0.023875
0.0222713
0.0205905
0.0189025
0.0172619
0.0156945
0.0142218
0.0128468
0.0115703
0.0103921
0.00931305
0.00832671
0.00742707
0.00659963
0.00583881
0.00513031
0.00447509
0.00386067
0.00328901
0.00274678
0.00223473
0.00173589
0.00125211
0.000759762
0.000264999
-0.216349
-0.233534
-0.243666
-0.248218
-0.250646
-0.253057
-0.255801
-0.258193
-0.25919
-0.258027
-0.25436
-0.248075
-0.239165
-0.227631
-0.21351
-0.196941
-0.178236
-0.157889
-0.136502
-0.114747
-0.0932725
-0.0726991
-0.0535701
-0.0363321
-0.021342
-0.00877747
0.00139967
0.00935865
0.0153239
0.0195287
0.0222319
0.0237075
0.0242174
0.0240063
0.0232702
0.0221791
0.0208598
0.0194213
0.0179372
0.016462
0.0150319
0.0136757
0.0123954
0.0111964
0.0100817
0.009055
0.00811107
0.00724681
0.00644857
0.00571321
0.00502639
0.00439024
0.00379181
0.00323431
0.00270342
0.00220188
0.00171115
0.0012355
0.000749523
0.000262237
-0.200049
-0.216161
-0.225763
-0.23008
-0.232151
-0.233966
-0.235973
-0.23767
-0.238239
-0.237024
-0.233664
-0.228014
-0.220054
-0.209811
-0.197342
-0.182771
-0.166346
-0.148447
-0.129545
-0.110181
-0.0909169
-0.0722976
-0.0548175
-0.0388873
-0.0248314
-0.0128453
-0.00294707
0.00496996
0.011072
0.0155413
0.0185902
0.0204546
0.0213651
0.0215419
0.0211663
0.0204002
0.0193667
0.0181756
0.0169004
0.0156011
0.0143179
0.0130827
0.0119021
0.0107866
0.00974028
0.00877055
0.00787305
0.00704772
0.00628159
0.00557419
0.00491111
0.00429587
0.00371498
0.00317305
0.00265477
0.00216483
0.00168331
0.00121664
0.000738117
0.000258749
-0.184631
-0.199431
-0.208395
-0.212469
-0.214288
-0.21567
-0.217119
-0.218309
-0.218592
-0.217387
-0.214339
-0.209296
-0.202236
-0.193193
-0.182236
-0.169473
-0.155094
-0.139383
-0.122714
-0.105537
-0.0883311
-0.0715696
-0.0556844
-0.0410435
-0.02794
-0.0165743
-0.00700941
0.000802443
0.00697517
0.0116479
0.0149915
0.0172033
0.0184828
0.0190253
0.0189966
0.0185486
0.0177995
0.0168574
0.0157956
0.0146792
0.0135485
0.0124395
0.0113651
0.0103389
0.00936638
0.00845809
0.00761114
0.00682832
0.00609741
0.0054206
0.00478346
0.00419103
0.00362939
0.00310448
0.00260024
0.00212303
0.00165198
0.00119519
0.00072532
0.000254559
-0.1699
-0.18337
-0.19168
-0.195503
-0.197118
-0.198193
-0.19926
-0.200111
-0.200211
-0.199053
-0.196313
-0.191849
-0.185633
-0.177701
-0.168118
-0.156976
-0.14442
-0.13067
-0.116026
-0.100856
-0.0855597
-0.0705375
-0.0561616
-0.0427621
-0.0306075
-0.0198967
-0.0107239
-0.00308716
0.00308511
0.00789528
0.0114757
0.0139865
0.0155964
0.0164767
0.0167761
0.0166351
0.0161652
0.0154712
0.0146256
0.0136958
0.0127225
0.0117458
0.0107834
0.0098521
0.00895848
0.00811614
0.00732395
0.00658733
0.0058949
0.0052514
0.00464256
0.00407495
0.00353439
0.00302803
0.00253936
0.0020761
0.00161687
0.00117094
0.000711023
0.000249739
-0.15581
-0.168086
-0.175745
-0.179299
-0.180745
-0.181608
-0.18242
-0.183043
-0.183032
-0.181953
-0.179522
-0.175605
-0.170175
-0.16326
-0.154917
-0.145225
-0.134298
-0.12231
-0.109498
-0.096156
-0.0826126
-0.0692036
-0.0562504
-0.0440468
-0.0328375
-0.0228132
-0.0140849
-0.0066844
-0.00057621
0.00430886
0.00806862
0.0108284
0.0127278
0.0139147
0.01452
0.0146716
0.0144725
0.0140233
0.013394
0.0126526
0.011841
0.0110022
0.0101569
0.00932514
0.00851524
0.00774337
0.00701017
0.00632348
0.00567286
0.00506549
0.00448743
0.00394674
0.0034292
0.00294303
0.0024716
0.00202356
0.00157765
0.00114367
0.000695077
0.000244299
-0.142557
-0.15366
-0.160657
-0.163938
-0.165246
-0.165959
-0.166595
-0.167063
-0.166999
-0.166029
-0.163903
-0.1605
-0.15579
-0.149798
-0.142571
-0.134177
-0.124707
-0.114298
-0.103132
-0.091445
-0.0795023
-0.0675859
-0.0559712
-0.0449152
-0.034638
-0.0253183
-0.0170748
-0.00996302
-0.00397784
0.000920809
0.00480133
0.00775833
0.00990364
0.0113623
0.0122474
0.0126731
0.0127329
0.0125219
0.0121062
0.0115535
0.0109064
0.0102094
0.00948532
0.0087574
0.00803576
0.00733877
0.00666866
0.00603557
0.00543012
0.00486175
0.00431707
0.0038055
0.00331306
0.00284878
0.00239637
0.00196496
0.00153393
0.00111313
0.000677291
0.000238211
-0.130133
-0.140084
-0.146436
-0.149458
-0.150652
-0.151256
-0.151767
-0.152136
-0.152061
-0.151221
-0.149393
-0.146466
-0.142413
-0.137253
-0.131028
-0.123794
-0.115624
-0.106622
-0.0969316
-0.0867359
-0.0762511
-0.0657111
-0.0553486
-0.0453856
-0.0360176
-0.0274098
-0.0196817
-0.0129043
-0.00709641
-0.00224228
0.00170189
0.00480412
0.00715023
0.00884317
0.00997824
0.010656
0.0109595
0.0109767
0.0107694
0.0104038
0.00992211
0.00936903
0.00876928
0.00814845
0.00751912
0.00690175
0.00629853
0.00572254
0.00516564
0.00463917
0.00413054
0.00365035
0.00318519
0.00274461
0.00231308
0.00189981
0.00148531
0.00107906
0.000657464
0.00023143
-0.118462
-0.127363
-0.133112
-0.135886
-0.136981
-0.137505
-0.137929
-0.138239
-0.138182
-0.137478
-0.135932
-0.133444
-0.129985
-0.125573
-0.120244
-0.114043
-0.107027
-0.099277
-0.0909019
-0.0820467
-0.0728844
-0.0636068
-0.0544084
-0.0454789
-0.0369901
-0.0290921
-0.0219009
-0.015496
-0.00991323
-0.00515675
-0.00120322
0.00199277
0.00449351
0.00638113
0.00773369
0.00863817
0.00916672
0.00939957
0.0093926
0.00920975
0.0088921
0.00848395
0.00801062
0.00750048
0.00696743
0.00643224
0.00589921
0.00538359
0.0048785
0.00439681
0.00392696
0.00348047
0.00304483
0.00262987
0.00222115
0.00182767
0.00143139
0.00104122
0.000635408
0.000223913
-0.107587
-0.115523
-0.1207
-0.123233
-0.124238
-0.124703
-0.12507
-0.125345
-0.12532
-0.124753
-0.123469
-0.121378
-0.118454
-0.114711
-0.110178
-0.104892
-0.0988973
-0.0922559
-0.0850514
-0.0773964
-0.069428
-0.061302
-0.0531793
-0.0452205
-0.0375747
-0.0303761
-0.0237341
-0.0177311
-0.0124142
-0.0078028
-0.0038906
-0.000650797
0.00195833
0.00399993
0.00553558
0.00663862
0.0073706
0.00780359
0.00798657
0.00797959
0.0078221
0.00755791
0.00721211
0.00681452
0.00638013
0.00593008
0.0054704
0.00501819
0.00456803
0.00413394
0.00370555
0.00329514
0.0028913
0.00250394
0.00212003
0.00174808
0.00137179
0.000999352
0.000610946
0.00021561
-0.0975169
-0.104546
-0.109183
-0.111486
-0.112412
-0.112834
-0.113161
-0.113418
-0.113432
-0.112996
-0.111951
-0.110217
-0.107771
-0.10462
-0.10079
-0.0963112
-0.0912178
-0.0855558
-0.0793889
-0.0728037
-0.065908
-0.058827
-0.0516927
-0.0446395
-0.0377951
-0.0312779
-0.0251886
-0.0196082
-0.0145903
-0.0101655
-0.00634075
-0.00310445
-0.000432096
0.00172257
0.00340567
0.00467734
0.00558847
0.00620275
0.00656236
0.00672277
0.00672012
0.0065965
0.00637715
0.00609263
0.00575841
0.00539581
0.00501223
0.00462618
0.0042338
0.00385002
0.00346569
0.00309374
0.00272396
0.00236629
0.00200918
0.00166065
0.00130616
0.000953218
0.000583918
0.000206469
-0.0882001
-0.0944005
-0.0985366
-0.100626
-0.101482
-0.101873
-0.102174
-0.102421
-0.102471
-0.10216
-0.10133
-0.0999133
-0.0978878
-0.0952595
-0.0920479
-0.0882774
-0.0839748
-0.0791743
-0.0739233
-0.0682877
-0.0623511
-0.0562135
-0.0499819
-0.0437678
-0.037679
-0.0318186
-0.0262773
-0.0211319
-0.0164385
-0.0122349
-0.00853851
-0.00534924
-0.00265683
-0.000429402
0.00136511
0.00277423
0.00383851
0.00461309
0.0051327
0.00544853
0.00559382
0.00560701
0.00551141
0.00533812
0.00510426
0.00483069
0.00452541
0.00420784
0.00387577
0.00354479
0.00320699
0.00287581
0.00254233
0.00221645
0.00188818
0.00156498
0.00123417
0.000902589
0.000554179
0.00019644
-0.0796092
-0.0850623
-0.0887396
-0.0906283
-0.0914206
-0.09179
-0.0920786
-0.0923323
-0.0924375
-0.0922095
-0.0915609
-0.0904201
-0.0887622
-0.0865901
-0.0839188
-0.0807671
-0.0771555
-0.0731094
-0.0686634
-0.0638667
-0.0587836
-0.053493
-0.0480812
-0.0426391
-0.0372571
-0.0320233
-0.0270179
-0.0223121
-0.017961
-0.0140066
-0.0104734
-0.00737008
-0.00469777
-0.00243651
-0.000566479
0.000948329
0.0021386
0.00305119
0.00371306
0.00416956
0.00445117
0.00459454
0.00462039
0.0045569
0.00442176
0.00423685
0.00401102
0.00376383
0.00349424
0.00321831
0.00292927
0.00264108
0.00234605
0.00205406
0.00175665
0.00146078
0.00115556
0.000847264
0.000521604
0.00018548
-0.0717258
-0.0765006
-0.0797555
-0.0814564
-0.082189
-0.0825393
-0.0828151
-0.0830663
-0.0831952
-0.0830681
-0.0825848
-0.0816871
-0.0803504
-0.0785751
-0.0763731
-0.073759
-0.0707484
-0.0673598
-0.0636179
-0.0595591
-0.0552318
-0.0506976
-0.0460254
-0.0412888
-0.0365625
-0.0319206
-0.027433
-0.0231638
-0.0191655
-0.0154812
-0.0121397
-0.00915618
-0.00654033
-0.00428176
-0.00237117
-0.000782656
0.000505782
0.00153267
0.00231743
0.00290021
0.00330647
0.00356851
0.00370754
0.00375144
0.00371534
0.00361867
0.00347158
0.00329558
0.00308999
0.00287098
0.00263265
0.00238947
0.00213493
0.00187884
0.00161431
0.00134777
0.00107009
0.00078707
0.000486084
0.000173543
-0.0645114
-0.0686734
-0.0715429
-0.07307
-0.073747
-0.0740816
-0.0743484
-0.0745998
-0.0747601
-0.0747141
-0.0743698
-0.0736764
-0.072614
-0.0711802
-0.0693829
-0.0672331
-0.0647423
-0.0619239
-0.0587951
-0.0553822
-0.0517208
-0.0478584
-0.0438493
-0.0397528
-0.0356299
-0.0315419
-0.0275487
-0.0237069
-0.0200647
-0.0166643
-0.0135369
-0.0107012
-0.00817382
-0.0059513
-0.00403286
-0.00240189
-0.00104398
7.27262e-05
0.000959271
0.00165049
0.00216991
0.00254379
0.00278717
0.00292799
0.00298543
0.00297689
0.0029096
0.00280544
0.00266495
0.00250414
0.00231805
0.00212158
0.00190931
0.00169098
0.00146122
0.00122592
0.000977692
0.000721933
0.000447569
0.000160618
-0.0579244
-0.0615391
-0.0640601
-0.0654273
-0.0660533
-0.0663746
-0.066636
-0.0668895
-0.0670749
-0.0670975
-0.0668686
-0.0663476
-0.0655164
-0.0643733
-0.0629225
-0.0611712
-0.0591275
-0.0568008
-0.0542029
-0.0513523
-0.0482746
-0.0450057
-0.0415876
-0.0380677
-0.0344953
-0.0309208
-0.0273945
-0.0239651
-0.0206761
-0.0175669
-0.0146693
-0.0120039
-0.00959171
-0.00743465
-0.0055386
-0.0038942
-0.00249434
-0.00131352
-0.000346734
0.000434078
0.00104817
0.00152188
0.00186696
0.00210285
0.00224629
0.00231452
0.00232149
0.002294
0.00221936
0.0021178
0.00198512
0.00183691
0.0016687
0.00149
0.00129697
0.00109492
0.000878128
0.000651687
0.000405951
0.000146616
-0.0519302
-0.0550571
-0.0572639
-0.0584846
-0.0590631
-0.059373
-0.0596298
-0.0598846
-0.0600889
-0.0601577
-0.0600236
-0.0596489
-0.0590165
-0.0581211
-0.0569652
-0.0555539
-0.0538927
-0.0519878
-0.0498472
-0.0474836
-0.0449148
-0.042167
-0.0392724
-0.0362683
-0.0331943
-0.0300913
-0.027001
-0.0239648
-0.0210202
-0.0182036
-0.0155455
-0.0130669
-0.0107917
-0.00872517
-0.00687803
-0.00524752
-0.00383141
-0.00260952
-0.0015852
-0.000734173
-3.96411e-05
0.000515339
0.000942856
0.00126717
0.001502
0.00166524
0.00174834
0.00177271
0.00176189
0.00171833
0.00163913
0.0015395
0.00141613
0.0012781
0.00112311
0.000955821
0.000772062
0.000576739
0.000361502
0.000131786
-0.0464921
-0.0491856
-0.0511102
-0.0521977
-0.0527327
-0.053033
-0.0532864
-0.0535412
-0.0537586
-0.0538701
-0.0538158
-0.0535598
-0.0530873
-0.0523972
-0.0514901
-0.050367
-0.0490308
-0.0474855
-0.0457362
-0.0437913
-0.0416632
-0.0393706
-0.0369372
-0.0343913
-0.0317651
-0.0290911
-0.0264036
-0.0237371
-0.0211236
-0.0185953
-0.0161807
-0.0138998
-0.0117779
-0.00982234
-0.00804722
-0.00645391
-0.00504572
-0.00380632
-0.00274335
-0.00184003
-0.00108352
-0.000455596
4.63453e-05
0.000437901
0.000730299
0.00091945
0.00104432
0.0012211
0.00128161
0.00129842
0.00127344
0.0012243
0.00114733
0.00105198
0.000937019
0.000806666
0.000658081
0.000496054
0.00031346
0.00011523
-0.0415687
-0.0438782
-0.04555
-0.0465156
-0.0470092
-0.0472989
-0.0475475
-0.0478001
-0.0480271
-0.0481713
-0.0481798
-0.0480182
-0.0476808
-0.0471631
-0.0464634
-0.0455826
-0.044522
-0.0432829
-0.0418679
-0.0402826
-0.0385347
-0.036637
-0.0346064
-0.0324649
-0.0302377
-0.0279506
-0.0256314
-0.0233084
-0.0210085
-0.0187594
-0.0165873
-0.0145099
-0.0125532
-0.0107249
-0.00904114
-0.00750723
-0.00612903
-0.00489344
-0.0038149
-0.00287903
-0.00207337
-0.00138746
-0.000815227
-0.000340963
5.46872e-05
0.000403003
0.000611509
0.000716187
0.000814719
0.00088152
0.000907754
0.000905923
0.000875276
0.000821806
0.000747224
0.000653988
0.000541207
0.000413343
0.000264421
0.000100292
-0.0371328
-0.0391058
-0.0405543
-0.0414116
-0.0418688
-0.0421501
-0.0423953
-0.0426456
-0.0428791
-0.0430494
-0.0431124
-0.0430358
-0.0428041
-0.0424181
-0.0418855
-0.0412058
-0.0403749
-0.0393911
-0.0382559
-0.0369736
-0.035549
-0.0339909
-0.0323113
-0.0305261
-0.0286543
-0.0267153
-0.0247312
-0.0227249
-0.0207184
-0.0187355
-0.0167992
-0.0149253
-0.013139
-0.0114483
-0.00987053
-0.00841256
-0.00708384
-0.00587286
-0.00479742
-0.00384899
-0.00301982
-0.00229919
-0.00169147
-0.00118519
-0.000775441
-0.000465207
-9.41133e-05
0.000137592
0.000304535
0.000430919
0.000511576
0.000561877
0.000578461
0.00057017
0.000537539
0.000484891
0.000410163
0.000320458
0.000207254
7.57813e-05
-0.0331262
-0.0348017
-0.0360506
-0.0368095
-0.0372328
-0.0375062
-0.0377475
-0.0379927
-0.0382236
-0.0383997
-0.0384854
-0.0384614
-0.0383194
-0.038062
-0.0376822
-0.0371736
-0.036534
-0.035765
-0.034868
-0.0338443
-0.0326961
-0.0314294
-0.0300526
-0.0285768
-0.0270161
-0.0253849
-0.023701
-0.0219824
-0.0202473
-0.0185149
-0.0168059
-0.0151324
-0.0135191
-0.0119726
-0.0105105
-0.00914093
-0.00787395
-0.00670008
-0.00563965
-0.00468688
-0.00383294
-0.00307299
-0.00240868
-0.00183007
-0.00131602
-0.000849619
-0.000606681
-0.00035454
-0.000147991
2.23482e-05
0.000148684
0.00024199
0.000303711
0.000336181
0.000345361
0.000330074
0.000293135
0.00023823
0.000164194
7.28022e-05
-0.0295627
-0.0309794
-0.0320529
-0.0327247
-0.0331186
-0.0333877
-0.0336315
-0.0338827
-0.034128
-0.0343351
-0.0344717
-0.0345141
-0.034448
-0.0342646
-0.0339672
-0.0335688
-0.0330765
-0.0324851
-0.0317859
-0.0309759
-0.0300571
-0.029035
-0.0279156
-0.0267056
-0.0254153
-0.0240549
-0.0226384
-0.0211796
-0.0196928
-0.0181938
-0.0167
-0.0152209
-0.0137797
-0.0123818
-0.0110445
-0.00977604
-0.00858913
-0.00747312
-0.00645381
-0.00552786
-0.00469043
-0.0039359
-0.00327245
-0.00269641
-0.00220798
-0.00180702
-0.00132236
-0.000970387
-0.000691977
-0.000461402
-0.000281261
-0.000135432