/*--------------------------------*- C++ -*----------------------------------*\
| =========                 |                                                 |
| \\      /  F ield         | OpenFOAM: The Open Source CFD Toolbox           |
|  \\    /   O peration     | Version:  2312                                  |
|   \\  /    A nd           | Website:  www.openfoam.com                      |
|    \\/     M anipulation  |                                                 |
\*---------------------------------------------------------------------------*/
FoamFile
{
    version     2.0;
    format      ascii;
    arch        "LSB;label=32;scalar=64";
    class       volScalarField;
    location    "46";
    object      p;
}
// * * * * * * * * * * * * * * * * * * * * * * * * * * * * * * * * * * * * * //

dimensions      [0 2 -2 0 0 0 0];

internalField   nonuniform List<scalar> 
5478
(
-0.330388
-0.330145
-0.327063
-0.322025
-0.315543
-0.307704
-0.298991
-0.28982
-0.280613
-0.271608
-0.262969
-0.253709
-0.244286
-0.232992
-0.220774
-0.337261
-0.335757
-0.332222
-0.327181
-0.320522
-0.311891
-0.301314
-0.289353
-0.27669
-0.263799
-0.250849
-0.238009
-0.225516
-0.212789
-0.200576
-0.347465
-0.343916
-0.339151
-0.333164
-0.325085
-0.31402
-0.300239
-0.284804
-0.268788
-0.252991
-0.237908
-0.223657
-0.209971
-0.1964
-0.183115
-0.361185
-0.355123
-0.348391
-0.340348
-0.328975
-0.31382
-0.296116
-0.277473
-0.259116
-0.241717
-0.225372
-0.209966
-0.195338
-0.181378
-0.168539
-0.379557
-0.370319
-0.361083
-0.349086
-0.332189
-0.311759
-0.290099
-0.268806
-0.248683
-0.229968
-0.212663
-0.196679
-0.18172
-0.167819
-0.15457
-0.403484
-0.389598
-0.376952
-0.358289
-0.333968
-0.307825
-0.282399
-0.258713
-0.237037
-0.217351
-0.199455
-0.183064
-0.167994
-0.154113
-0.141
-0.431991
-0.412379
-0.393035
-0.365016
-0.33257
-0.300918
-0.272025
-0.246189
-0.223197
-0.202697
-0.184356
-0.167918
-0.153118
-0.139741
-0.127088
-0.459511
-0.435516
-0.405033
-0.365912
-0.325771
-0.289298
-0.257434
-0.229811
-0.205803
-0.184858
-0.166486
-0.150305
-0.136078
-0.123452
-0.111989
-0.391059
-0.393215
-0.394184
-0.395472
-0.3972
-0.399242
-0.401167
-0.402664
-0.403298
-0.402693
-0.400744
-0.397773
-0.39466
-0.392244
-0.39168
-0.373959
-0.375249
-0.374944
-0.374268
-0.37338
-0.372148
-0.370396
-0.368069
-0.365281
-0.362396
-0.360128
-0.359555
-0.361996
-0.370221
-0.376968
-0.360369
-0.360817
-0.359483
-0.357287
-0.354394
-0.350768
-0.346405
-0.341493
-0.336536
-0.332298
-0.329817
-0.331306
-0.334827
-0.349145
-0.362263
-0.349579
-0.34939
-0.347338
-0.34394
-0.339402
-0.333878
-0.327546
-0.320689
-0.314163
-0.309006
-0.305718
-0.308552
-0.311343
-0.326867
-0.341536
-0.340876
-0.340443
-0.337889
-0.333477
-0.327396
-0.320189
-0.312186
-0.303934
-0.296229
-0.290551
-0.286758
-0.290464
-0.294133
-0.308059
-0.322982
-0.333833
-0.333654
-0.33074
-0.325469
-0.318076
-0.309498
-0.30033
-0.291437
-0.283754
-0.27868
-0.276371
-0.279816
-0.285259
-0.295321
-0.307521
-0.329016
-0.329156
-0.326014
-0.320249
-0.312345
-0.303387
-0.294299
-0.286012
-0.279307
-0.274683
-0.272948
-0.273898
-0.277064
-0.281525
-0.285664
-0.327551
-0.327771
-0.324628
-0.319077
-0.311427
-0.303279
-0.294934
-0.287011
-0.280075
-0.274278
-0.270146
-0.266451
-0.263417
-0.259443
-0.254494
-0.408712
-0.449696
-0.45785
-0.398957
-0.279157
-0.193526
-0.157396
-0.152434
-0.211212
-0.228292
-0.183446
-0.146831
-0.142457
-0.156748
-0.207071
-0.269019
-0.277403
-0.218772
-0.149633
-0.0950256
-0.0552106
-0.0312435
-0.0165824
-0.00701758
-0.00273809
-0.000991941
0.002173
0.00148458
0.00132945
0.00212398
0.000753962
-0.000259404
-1.50249e-05
-0.000147781
-0.00055731
-0.000280579
-2.4291e-06
-6.96877e-06
-0.41705
-0.488852
-0.508254
-0.43875
-0.311121
-0.210446
-0.1543
-0.130641
-0.174821
-0.18462
-0.151884
-0.138824
-0.150175
-0.174675
-0.231206
-0.297343
-0.303008
-0.234856
-0.156683
-0.0964456
-0.0535842
-0.0281801
-0.0133147
-0.00410034
-0.00110089
-0.00017431
0.00296803
0.00163589
0.00173888
0.00267062
0.000840075
-2.8745e-05
0.000159636
-8.64219e-05
-0.000513445
-0.000228795
2.8971e-05
-1.03032e-06
-0.402203
-0.490818
-0.517898
-0.447981
-0.319525
-0.21564
-0.149746
-0.115059
-0.138748
-0.13931
-0.117405
-0.126938
-0.153344
-0.186027
-0.250671
-0.320483
-0.32546
-0.249957
-0.163697
-0.0987917
-0.053514
-0.0270597
-0.0118808
-0.0024939
-7.40943e-05
0.000432133
0.00342926
0.0017431
0.00212653
0.00309445
0.000910462
0.000268644
0.000332937
-4.14871e-05
-0.000448255
-0.000173422
5.3974e-05
4.95298e-06
-0.372719
-0.460201
-0.49297
-0.429875
-0.310391
-0.212633
-0.146057
-0.105798
-0.112685
-0.10526
-0.087809
-0.113043
-0.150837
-0.193026
-0.260885
-0.333228
-0.339313
-0.26267
-0.170897
-0.10211
-0.0547982
-0.0273063
-0.0117997
-0.00217641
0.000338646
0.000773013
0.00347331
0.00181841
0.00242898
0.0033093
0.000997657
0.0006015
0.000493893
-1.03998e-05
-0.000359529
-0.000114017
7.07094e-05
1.08805e-05
-0.343358
-0.401943
-0.440772
-0.390011
-0.291077
-0.206931
-0.145213
-0.100793
-0.09784
-0.0893701
-0.0694726
-0.0981583
-0.144338
-0.189249
-0.261269
-0.340689
-0.355864
-0.275399
-0.178476
-0.106181
-0.0572015
-0.0285286
-0.0125236
-0.00274918
0.000283418
0.000815364
0.00312583
0.00181446
0.00258162
0.00329802
0.00110871
0.000913436
0.000628671
1.19081e-05
-0.000251983
-5.22045e-05
7.83711e-05
1.66182e-05
-0.318357
-0.353054
-0.37608
-0.339471
-0.267482
-0.200207
-0.147009
-0.0984885
-0.0909967
-0.0859734
-0.0672322
-0.0905145
-0.138377
-0.183443
-0.255881
-0.33439
-0.347839
-0.280001
-0.184524
-0.110224
-0.0601751
-0.0303516
-0.0137068
-0.0037579
-5.96987e-05
0.000620527
0.002567
0.00171595
0.00255705
0.00311557
0.00122714
0.00115954
0.000728363
2.96816e-05
-0.000136631
8.71948e-06
7.76912e-05
2.20381e-05
-0.284212
-0.301534
-0.317178
-0.296534
-0.249312
-0.196025
-0.148626
-0.102954
-0.0882181
-0.0844784
-0.0744828
-0.0836856
-0.130365
-0.168921
-0.240181
-0.329267
-0.362909
-0.290322
-0.192793
-0.115925
-0.0641811
-0.03305
-0.0153696
-0.00504954
-0.000592382
0.00027232
0.00196523
0.00153993
0.00237966
0.00286099
0.00130692
0.00131679
0.000791987
4.58107e-05
-2.61323e-05
6.44912e-05
7.05573e-05
2.72398e-05
-0.248171
-0.258204
-0.264109
-0.255588
-0.227694
-0.191983
-0.154624
-0.113268
-0.0902675
-0.0835095
-0.0792008
-0.091757
-0.130883
-0.156003
-0.222515
-0.307842
-0.335885
-0.285917
-0.199796
-0.123359
-0.0696235
-0.0366408
-0.0176585
-0.00666997
-0.00130859
-0.000149401
0.00140979
0.00131287
0.00208666
0.00258235
0.00136073
0.00139787
0.000824251
6.06593e-05
7.2308e-05
0.000112063
5.85277e-05
3.22003e-05
-0.232631
-0.240923
-0.236401
-0.22494
-0.198152
-0.16921
-0.138298
-0.104274
-0.0832437
-0.0794622
-0.072859
-0.0825201
-0.096034
-0.12198
-0.191158
-0.282183
-0.322796
-0.277336
-0.190004
-0.116186
-0.0665352
-0.0357772
-0.0178869
-0.00731955
-0.00181635
-0.000521781
0.000999461
0.00106861
0.00178094
0.00230313
0.00130317
0.00146433
0.000843545
6.38171e-05
0.00017722
0.000162875
4.04527e-05
3.60267e-05
-0.17907
-0.194751
-0.191078
-0.177194
-0.155244
-0.134765
-0.112938
-0.0894346
-0.0773421
-0.0742585
-0.0650515
-0.0732734
-0.0910961
-0.105058
-0.161152
-0.249588
-0.294811
-0.247563
-0.169255
-0.1048
-0.062307
-0.0351044
-0.0184858
-0.00827419
-0.00264499
-0.00101437
0.000344231
0.000658587
0.00137622
0.00183752
0.00119797
0.00136916
0.000779644
7.62725e-05
0.000254153
0.000191769
2.62041e-05
3.84164e-05
-0.150435
-0.16369
-0.160531
-0.150091
-0.134123
-0.117336
-0.102906
-0.0812066
-0.065785
-0.0610944
-0.0542529
-0.0579088
-0.0791731
-0.096432
-0.135479
-0.206402
-0.251453
-0.214332
-0.147905
-0.0932946
-0.0574188
-0.0336972
-0.0186608
-0.0090858
-0.00346144
-0.00152684
-0.000191793
0.000311932
0.000991836
0.001457
0.00106861
0.00123857
0.000720763
0.000111026
0.000292322
0.000206739
2.54748e-05
3.87573e-05
-0.121009
-0.13211
-0.130906
-0.121748
-0.107666
-0.0929537
-0.0803035
-0.0649839
-0.0522043
-0.0474335
-0.0421099
-0.0399593
-0.0510842
-0.0609947
-0.0909713
-0.15545
-0.199919
-0.167343
-0.117291
-0.0780243
-0.0510845
-0.0319578
-0.0186782
-0.00975772
-0.00423645
-0.00205709
-0.000712518
-7.50596e-05
0.00062098
0.00109912
0.000887858
0.00108342
0.000667987
0.000144919
0.000302665
0.000212722
3.28819e-05
3.79335e-05
-0.0949737
-0.104871
-0.105214
-0.0988752
-0.0887214
-0.0776978
-0.0684525
-0.0562767
-0.0429256
-0.0343919
-0.0240813
-0.0089408
0.00370171
0.00382091
-0.0301902
-0.097158
-0.142983
-0.122453
-0.09247
-0.0647045
-0.0442004
-0.0287487
-0.0176337
-0.00983405
-0.00471748
-0.00245187
-0.00111925
-0.000408781
0.000290434
0.000773349
0.000721695
0.000934645
0.000619647
0.000183344
0.000304387
0.000214196
4.82801e-05
3.89202e-05
-0.0742796
-0.0828043
-0.0840242
-0.0794309
-0.0717246
-0.0625785
-0.0535921
-0.0429785
-0.0307235
-0.0206131
-0.00843218
0.0132794
0.0356501
0.0437763
0.0131479
-0.0429342
-0.0690112
-0.0759432
-0.0631314
-0.0486655
-0.036403
-0.0257112
-0.0168985
-0.0100304
-0.00525136
-0.00287296
-0.00148623
-0.0007153
-1.76995e-05
0.000473507
0.0005426
0.000776596
0.000558277
0.000211902
0.0002952
0.000209765
6.57698e-05
3.99131e-05
-0.0575125
-0.0641811
-0.0655362
-0.0623148
-0.05651
-0.0492559
-0.041837
-0.0334255
-0.0228033
-0.0120781
0.000731386
0.021235
0.0397969
0.0484425
0.0284516
-0.00991519
-0.0352795
-0.046225
-0.0448812
-0.0380559
-0.0299531
-0.022097
-0.0151031
-0.00940894
-0.00528802
-0.00307949
-0.00175338
-0.00097222
-0.000285946
0.000210768
0.000388318
0.000637597
0.000495745
0.000242465
0.000293819
0.000206754
8.47381e-05
4.38015e-05
-0.0435388
-0.0488318
-0.0503418
-0.0482268
-0.0438438
-0.0382185
-0.0320173
-0.0249884
-0.0161074
-0.00634754
0.00478516
0.0190597
0.0324402
0.0389286
0.0272249
0.00338517
-0.0160049
-0.0258831
-0.0279748
-0.0258637
-0.0222748
-0.0178369
-0.0130712
-0.0086523
-0.00517805
-0.00315474
-0.00189645
-0.00113578
-0.000493669
-1.08663e-05
0.000242278
0.000506501
0.000425092
0.000266056
0.000295735
0.000199804
0.000101544
4.67845e-05
-0.0321816
-0.0364639
-0.0378556
-0.0363514
-0.0330385
-0.028763
-0.0238801
-0.0183519
-0.0115656
-0.00376126
0.00459758
0.0142602
0.02307
0.0271934
0.0210663
0.0075626
-0.00519913
-0.0135497
-0.0176532
-0.0183565
-0.0170422
-0.0143898
-0.0110411
-0.00765487
-0.00485982
-0.00313167
-0.00199775
-0.00126325
-0.000651947
-0.000186965
0.000119767
0.000394226
0.000355565
0.000287382
0.000302726
0.000194712
0.000122085
6.13978e-05
-0.0233006
-0.026537
-0.0276327
-0.026613
-0.0242598
-0.0211415
-0.0174835
-0.013303
-0.00830386
-0.00254148
0.00353208
0.00968471
0.0151002
0.0176822
0.0147815
0.00744339
-0.000674125
-0.00695588
-0.0102794
-0.0115678
-0.0114969
-0.0104235
-0.00853301
-0.00625337
-0.00417767
-0.00282695
-0.00191164
-0.0012815
-0.000737912
-0.000316646
2.92279e-05
0.000322599
0.000300902
0.000301744
0.000315563
0.00018808
0.000127692
5.43031e-05
-0.0160684
-0.0184906
-0.0194462
-0.0189058
-0.0172508
-0.0150005
-0.0123682
-0.00938373
-0.00589582
-0.00193399
0.00219559
0.00610514
0.00936027
0.0109877
0.00982856
0.00611263
0.00149044
-0.00250233
-0.00512353
-0.0067902
-0.00750062
-0.0073505
-0.00638668
-0.00495395
-0.00350859
-0.00251007
-0.00179633
-0.00123836
-0.000763267
-0.000382932
-1.81614e-05
0.000277239
0.00027218
0.000336385
0.000349357
0.000207418
0.00016702
9.08715e-05
-0.0102608
-0.0121797
-0.0130092
-0.0127054
-0.0116009
-0.0100807
-0.00830666
-0.00630214
-0.00398109
-0.00139267
0.00129818
0.0037416
0.00569868
0.00675803
0.00640188
0.00466447
0.00218356
-0.000190973
-0.0021998
-0.00350566
-0.00428541
-0.00452923
-0.00420691
-0.00348365
-0.00263851
-0.00202007
-0.00155777
-0.00114139
-0.000712101
-0.000412724
-6.21099e-05
0.000251076
0.000231575
0.000322077
0.000356299
0.000186488
0.000135394
5.65581e-05
-0.00579033
-0.00724433
-0.0079175
-0.00781804
-0.00716192
-0.00620216
-0.00506076
-0.00378502
-0.00232175
-0.000717308
0.000944569
0.00242555
0.0036044
0.00429464
0.0042967
0.00362403
0.00242113
0.00114421
-2.77694e-05
-0.00102042
-0.00180438
-0.00231856
-0.0024156
-0.00220064
-0.00178719
-0.00146014
-0.0012077
-0.000875788
-0.000586459
-0.000308861
3.99125e-05
0.000334959
0.000310449
0.00042652
0.000451844
0.000274071
0.000229381
0.000128687
-0.00227418
-0.0033842
-0.00396923
-0.00402636
-0.00368521
-0.00312275
-0.00243567
-0.00168212
-0.000819215
0.000113891
0.00108438
0.00197239
0.00263981
0.00309568
0.00322369
0.0030482
0.00254069
0.00194072
0.0012535
0.000607648
3.91391e-05
-0.000449974
-0.000741239
-0.000922667
-0.000970442
-0.000965462
-0.000917935
-0.000690881
-0.000406492
-0.000278567
1.65563e-05
0.000323747
0.000274373
0.000365449
0.000421676
0.000211515
0.000134178
5.49235e-05
0.000509047
-0.000365128
-0.000879335
-0.00103329
-0.00091223
-0.000636685
-0.000273933
0.000121153
0.000580217
0.0010695
0.0015882
0.00204701
0.00242822
0.00271808
0.00286379
0.00290446
0.00274725
0.00252461
0.00217238
0.00179764
0.00139793
0.00094275
0.000587113
0.000210302
-5.59221e-05
-0.00024545
-0.000362964
-9.77587e-05
-0.000121902
5.45422e-05
0.00033382
0.000597569
0.000524758
0.000605878
0.000629499
0.000411133
0.000315858
0.000169149
0.0026249
0.00193998
0.00149655
0.00129157
0.00127346
0.00136068
0.00151373
0.00167564
0.00187825
0.00208685
0.00232093
0.00252309
0.0026969
0.00286722
0.00297783
0.00310295
0.00310019
0.00308683
0.00295506
0.00276457
0.00254089
0.00214934
0.00173288
0.00114453
0.00054827
0.000128507
-0.000188568
-0.000448275
5.61208e-05
0.000125963
0.000333673
0.00058363
0.000487288
0.00048869
0.000534514
0.000291625
0.000147627
5.69917e-05
0.00433219
0.00378557
0.00339493
0.00315956
0.00305305
0.00301752
0.00303073
0.00304231
0.0030847
0.00311984
0.00318084
0.00322708
0.00328112
0.00334936
0.00340678
0.00352884
0.00356631
0.0036234
0.00358137
0.00351842
0.00345215
0.00322121
0.00291105
0.00229793
0.00162536
0.0010893
0.000677446
0.000693217
0.000672955
0.000777006
0.000908495
0.00108632
0.000937217
0.000903328
0.000894169
0.000614976
0.000423846
0.000208198
0.0056104
0.00517779
0.0048543
0.00464122
0.00447862
0.0043673
0.00430173
0.004229
0.00418183
0.00411767
0.00407405
0.00402024
0.00398028
0.00398833
0.0039985
0.0041109
0.00416285
0.004259
0.00423542
0.00422269
0.00427944
0.00411233
0.00378971
0.00310997
0.0022843
0.00169508
0.00128555
0.00104786
0.00113797
0.00106286
0.00101669
0.00107256
0.000927927
0.000746458
0.000723696
0.000457782
0.000202323
7.10652e-05
0.00665396
0.00628019
0.00597575
0.0057329
0.00558428
0.00545451
0.0053564
0.00524196
0.00514805
0.00503643
0.00494361
0.00484669
0.00475996
0.0047254
0.00469818
0.00477495
0.00481816
0.00489219
0.00492591
0.00500333
0.00516219
0.00519197
0.00497316
0.00437848
0.00362127
0.00294291
0.00250133
0.00221241
0.00202893
0.00200285
0.0017784
0.00177365
0.00152666
0.00127853
0.00122748
0.000875015
0.000534143
0.000239634
0.00761281
0.00732682
0.00707152
0.00684495
0.00666796
0.00650202
0.00635728
0.00619955
0.00605354
0.00591242
0.00578064
0.00566065
0.00553294
0.00545902
0.00537359
0.00536454
0.00537357
0.00540797
0.00546864
0.00550502
0.00552225
0.00552551
0.0053654
0.00510123
0.00473656
0.00415456
0.00376815
0.00323809
0.00277022
0.00258583
0.00198477
0.0018264
0.00156505
0.00108398
0.00101968
0.000699906
0.000304482
0.000109942
0.00799397
0.00776113
0.00754701
0.00735072
0.00717613
0.00700814
0.00684594
0.0066816
0.00652405
0.00637095
0.00622294
0.006082
0.00594759
0.005845
0.00574864
0.00567019
0.005604
0.00554984
0.00550023
0.00545383
0.00537824
0.00530654
0.00516376
0.00492105
0.00467994
0.00433983
0.00400525
0.00366305
0.00320633
0.00302942
0.00261448
0.00231991
0.00208347
0.00166514
0.0014462
0.00109691
0.000648212
0.000259895
0.00842478
0.008243
0.00805707
0.00787105
0.00769479
0.00752281
0.00735506
0.00718353
0.00701358
0.00685084
0.0066944
0.00654647
0.00639278
0.00625602
0.00612051
0.00601691
0.00591144
0.00582549
0.00574541
0.00566128
0.00557854
0.0054544
0.00530939
0.00507388
0.00479575
0.00446654
0.00406933
0.0037152
0.0032912
0.00297088
0.0025482
0.00218607
0.00192411
0.00147715
0.00122128
0.000908102
0.000463295
0.00015327
0.00854611
0.00837888
0.00820722
0.00803295
0.00785961
0.00768745
0.00751668
0.00734617
0.00717554
0.00700761
0.00684253
0.0066857
0.00653076
0.00638644
0.00624453
0.00611191
0.00598506
0.00586668
0.00575834
0.00564172
0.00553029
0.00538471
0.00522447
0.00502322
0.00476438
0.00450837
0.00415815
0.00384943
0.00344842
0.00315389
0.00281527
0.00241852
0.00217001
0.00175497
0.00142434
0.00111597
0.00063547
0.000217954
-0.0980553
-0.110524
-0.123334
-0.136174
-0.150921
-0.164773
-0.182793
-0.202375
-0.0832253
-0.0928222
-0.102647
-0.112917
-0.124119
-0.134588
-0.145795
-0.158267
-0.0686693
-0.07552
-0.0823136
-0.0897533
-0.0978003
-0.105687
-0.115273
-0.128064
-0.0568195
-0.0618518
-0.0668505
-0.0724867
-0.0791082
-0.0861442
-0.0948736
-0.105135
-0.0463706
-0.050121
-0.0539603
-0.058423
-0.0637481
-0.0691765
-0.0752077
-0.0825558
-0.0375614
-0.0402597
-0.0430465
-0.0462227
-0.0498981
-0.0536175
-0.0580555
-0.0641667
-0.02984
-0.0316445
-0.033502
-0.035652
-0.0382538
-0.0411599
-0.0448773
-0.0498611
-0.0231252
-0.0242902
-0.0254882
-0.0269977
-0.0290406
-0.0314743
-0.0343082
-0.0379017
-0.0172788
-0.0180427
-0.0188792
-0.0200409
-0.0215426
-0.0231473
-0.0249984
-0.0277124
-0.0123302
-0.012846
-0.013382
-0.0140785
-0.0149593
-0.0160306
-0.0175426
-0.0198313
-0.0080227
-0.00833378
-0.00862105
-0.00904861
-0.00972244
-0.010661
-0.0118892
-0.0135746
-0.00436296
-0.00459759
-0.00481872
-0.00515135
-0.00565177
-0.00628508
-0.00710383
-0.00834151
-0.00133885
-0.00153807
-0.00170281
-0.00191013
-0.00221401
-0.0026485
-0.00329444
-0.00429842
0.00118107
0.00100826
0.000869613
0.000707581
0.000465922
0.000112182
-0.000398591
-0.00116032
0.00324028
0.00306593
0.00292082
0.00277319
0.00258463
0.00232437
0.00194434
0.00136538
0.00486393
0.00469618
0.0045504
0.00441213
0.00425285
0.00404271
0.00373908
0.00328655
0.00621624
0.0060461
0.00589378
0.00575636
0.00561363
0.00543965
0.00519759
0.00484615
0.00724352
0.00707776
0.00692231
0.00678191
0.00664512
0.00649164
0.00629132
0.00601298
0.00815855
0.00798358
0.00781788
0.00767044
0.00753298
0.00739016
0.00721596
0.00698686
0.00880373
0.00863541
0.00847822
0.00834379
0.00822527
0.00811454
0.00799168
0.00784073
0.00913642
0.00899767
0.00885572
0.00871981
0.00858966
0.00846314
0.00833128
0.00818802
0.00938223
0.00925064
0.00911539
0.00898642
0.00886882
0.00876262
0.00866286
0.00856184
0.00947137
0.00936106
0.00924325
0.00912325
0.00900605
0.00889378
0.00878598
0.00868004
0.0583535
0.0616248
0.0645266
0.0663833
0.066522
0.0648212
0.0611354
0.0549144
0.045173
0.0305119
0.00902188
-0.0219226
-0.0665533
-0.128121
-0.181728
0.0360599
0.0371211
0.0364436
0.0342856
0.0305714
0.0249994
0.0170651
0.00598754
-0.00932522
-0.0303486
-0.0590934
-0.0981701
-0.151483
-0.223314
-0.279034
0.0139019
0.0126034
0.00840718
0.00266672
-0.00441642
-0.0134261
-0.0251427
-0.0404677
-0.0605401
-0.086905
-0.121682
-0.167444
-0.227393
-0.30528
-0.359146
-0.0086758
-0.0126492
-0.0196418
-0.0279709
-0.0376701
-0.0495623
-0.0645026
-0.0833687
-0.107261
-0.13774
-0.177152
-0.227716
-0.292276
-0.369918
-0.420212
-0.0314994
-0.038092
-0.0469594
-0.0569821
-0.0686464
-0.0828634
-0.100355
-0.121928
-0.148599
-0.181867
-0.224147
-0.277723
-0.343209
-0.416786
-0.461475
-0.0538847
-0.0625742
-0.0726011
-0.0838673
-0.0970572
-0.113053
-0.13236
-0.155727
-0.184192
-0.219115
-0.262466
-0.316033
-0.379402
-0.445745
-0.483701
-0.0753393
-0.0850199
-0.0958583
-0.108245
-0.1228
-0.140029
-0.160453
-0.184775
-0.213912
-0.24903
-0.291618
-0.342753
-0.400944
-0.457097
-0.488977
-0.0948867
-0.105248
-0.1169
-0.130278
-0.1458
-0.163827
-0.184785
-0.209273
-0.238064
-0.272083
-0.312323
-0.358953
-0.408915
-0.452586
-0.48002
0.187229
0.201963
0.21837
0.236856
0.257479
0.280126
0.304689
0.331115
0.359321
0.389048
0.419714
0.450165
0.478436
0.500646
0.518938
0.184479
0.198331
0.213889
0.231613
0.251443
0.273135
0.296528
0.32156
0.348142
0.375978
0.404414
0.432209
0.457276
0.475816
0.490532
0.177672
0.189848
0.203951
0.220386
0.238849
0.258881
0.280217
0.302752
0.326357
0.350672
0.374938
0.397778
0.41688
0.428611
0.436948
0.166791
0.176739
0.188945
0.203578
0.220013
0.237621
0.256071
0.275201
0.294781
0.3143
0.332817
0.348759
0.359495
0.361448
0.361277
0.151907
0.159356
0.169586
0.182261
0.196221
0.210669
0.225316
0.240041
0.254546
0.268151
0.279673
0.28728
0.287984
0.278051
0.267258
0.133377
0.137904
0.146013
0.156612
0.167902
0.178914
0.189365
0.199125
0.207817
0.214612
0.218126
0.216274
0.205714
0.182565
0.159468
0.111614
0.113879
0.120068
0.128015
0.135863
0.14286
0.148781
0.153363
0.156002
0.155656
0.150738
0.138935
0.116594
0.0798682
0.0443537
0.08631
0.0875686
0.0928176
0.0980993
0.102099
0.104604
0.105604
0.104719
0.101108
0.0935053
0.0801221
0.0584167
0.0244271
-0.0254134
-0.0717884
0.022591
0.027335
0.0233319
0.0277017
0.0250247
0.0296425
0.0278547
0.0322753
0.0320082
0.0364181
0.0375978
0.0425583
0.0452696
0.0511864
0.0561288
0.063653
0.0713897
0.0817997
0.0932451
0.107639
0.123974
0.14393
0.166641
0.0226427
0.0273001
0.0233947
0.0276842
0.0250801
0.0296567
0.0279175
0.0323063
0.032103
0.0364413
0.0378086
0.0426512
0.0454181
0.0513604
0.0563473
0.0639223
0.0715385
0.0818861
0.0933792
0.107672
0.123541
0.14309
0.164946
0.0227053
0.0272389
0.0234718
0.0276374
0.0251574
0.0296307
0.0280067
0.0323079
0.0322327
0.0364187
0.0379281
0.0427103
0.0455954
0.0514874
0.0565095
0.0640707
0.0719014
0.081979
0.0929391
0.106912
0.121909
0.140597
0.160491
0.0227779
0.0271538
0.0235613
0.0275655
0.0252448
0.0295742
0.0281179
0.0322901
0.0323817
0.0364333
0.0380717
0.0427519
0.0458058
0.0516665
0.0568096
0.0644043
0.0719976
0.0821087
0.0923343
0.10577
0.119287
0.136399
0.15308
0.0228598
0.0270484
0.0236627
0.0274732
0.0253472
0.0294976
0.0282473
0.0322425
0.0325419
0.0364227
0.0382762
0.0427492
0.0459792
0.0516577
0.0565525
0.0641527
0.071495
0.081152
0.0907202
0.103224
0.115007
0.130008
0.142452
0.0229415
0.0269271
0.0237714
0.0273644
0.0254932
0.0294151
0.028393
0.0322206
0.032712
0.0364473
0.0384862
0.0428594
0.04639
0.0520697
0.0572148
0.0646848
0.0715765
0.0811602
0.0895405
0.100998
0.110138
0.122148
0.129139
0.0230265
0.0267944
0.0238833
0.0272471
0.0256297
0.0293106
0.0285301
0.0321362
0.0328649
0.0364184
0.0386733
0.0428191
0.0463333
0.0518255
0.0566723
0.0634857
0.0703581
0.0790168
0.0866473
0.0962913
0.103317
0.111621
0.112886
0.0231081
0.0266567
0.0239887
0.0271251
0.0257942
0.0292447
0.0287039
0.0321776
0.0330712
0.0365121
0.0389346
0.043197
0.046848
0.0525314
0.057581
0.0649516
0.0707099
0.0793734
0.0850826
0.0932776
0.0961293
0.0998245
0.0933327
0.0232073
0.0264675
0.0241308
0.0269328
0.0259281
0.0290243
0.028798
0.0319514
0.033181
0.0365819
0.0389908
0.042889
0.0465515
0.051617
0.0562393
0.0622779
0.0675659
0.0739115
0.0785687
0.0827215
0.083077
0.0795765
0.0681627
0.0233362
0.0262018
0.0243038
0.0266527
0.0260812
0.028723
0.0288794
0.0315438
0.0330497
0.0355762
0.0384097
0.0416938
0.0452691
0.0495328
0.0537724
0.0584318
0.0627913
0.0665971
0.0694195
0.0696963
0.0676976
0.0608428
0.0512497
0.0234912
0.0258677
0.0245053
0.026309
0.0262564
0.0283369
0.0289376
0.0310506
0.0328712
0.0350825
0.037844
0.04058
0.0439343
0.0473715
0.0509828
0.054229
0.0573783
0.0591418
0.0599097
0.0580093
0.0541001
0.0469442
0.0379073
0.0236758
0.025456
0.0247353
0.0259279
0.0264024
0.0279629
0.028921
0.0305631
0.0325682
0.0342905
0.0369874
0.0392498
0.042198
0.0448573
0.047705
0.0497463
0.0515596
0.0518398
0.0508637
0.0477545
0.0427313
0.0354839
0.0270246
0.0238934
0.0249742
0.0249185
0.0256177
0.0264606
0.0276122
0.0287889
0.0300574
0.0320979
0.0335081
0.0358961
0.0377938
0.0401704
0.042136
0.0441114
0.0450889
0.0456612
0.0448365
0.0426351
0.0388399
0.0334529
0.0263772
0.0182506
0.0241228
0.0245102
0.0250064
0.0253433
0.0264438
0.0272652
0.0285423
0.0295235
0.0314627
0.0326374
0.034584
0.0361415
0.0378713
0.0391477
0.0403021
0.0403724
0.0399353
0.038315
0.0354329
0.0313231
0.0259921
0.0193555
0.0117727
0.0243298
0.024076
0.0250071
0.0250955
0.0263391
0.0269229
0.0281617
0.0289392
0.0306619
0.0316466
0.0330873
0.0342799
0.0353931
0.0360285
0.0364354
0.0357871
0.0346022
0.0324675
0.0293167
0.0251756
0.0201097
0.0140564
0.00716511
0.0244855
0.0236926
0.0249113
0.0248658
0.0261318
0.026574
0.0276485
0.0282845
0.0297228
0.0305205
0.0314481
0.0322489
0.0328164
0.0328859
0.0326501
0.0314862
0.0298331
0.0274143
0.0242341
0.0202693
0.0156141
0.0102462
0.00418773
0.0245695
0.0233791
0.0247055
0.024641
0.0258222
0.0261989
0.0270169
0.0275359
0.0286739
0.0292569
0.0297033
0.0301019
0.0302218
0.0298387
0.0290856
0.0275849
0.0256898
0.0231945
0.0201449
0.0165015
0.0123595
0.0077196
0.00254253
0.0245631
0.0231433
0.0243861
0.0244021
0.025429
0.0257673
0.0262836
0.0266779
0.0275419
0.0278784
0.0278945
0.0279173
0.0276914
0.0269849
0.0258591
0.0241584
0.0221937
0.0197925
0.0169877
0.0137452
0.0101559
0.00623516
0.00191229
0.0244568
0.022981
0.0239619
0.024121
0.024983
0.0252643
0.0254649
0.0257116
0.0263557
0.0264332
0.0260686
0.0257719
0.0253029
0.0243988
0.0230376
0.0212479
0.0193354
0.0171508
0.0146709
0.0118567
0.00880307
0.0055491
0.00201039
0.0242397
0.0228831
0.0234612
0.023751
0.0245144
0.0246864
0.0245767
0.0246518
0.0251324
0.0249857
0.0242935
0.0237287
0.0231165
0.0221281
0.0206521
0.0188553
0.0170696
0.0151722
0.0130605
0.0106664
0.00809618
0.00542704
0.00257722
0.0239292
0.0228161
0.0229503
0.0232574
0.0240183
0.0240657
0.0236503
0.02354
0.0238904
0.0235824
0.0226294
0.0218368
0.0211551
0.0201857
0.01871
0.0169686
0.0153425
0.0137479
0.0120087
0.0100116
0.00786618
0.00569109
0.00342308
0.023526
0.0226913
0.0224646
0.0226806
0.02344
0.0233981
0.0227267
0.0224221
0.0226554
0.0222543
0.0211296
0.0201561
0.019446
0.0185514
0.0171701
0.0155386
0.0140776
0.0127555
0.0113533
0.00971849
0.00794934
0.00618817
0.00439521
0.0230604
0.0224855
0.0220204
0.0220825
0.0227872
0.0226822
0.021823
0.0213469
0.0214673
0.0210204
0.0198165
0.0187197
0.0180114
0.0172353
0.015978
0.0145067
0.0132158
0.0121219
0.0109997
0.00967883
0.00823859
0.00682228
0.00541218
0.0225643
0.0221869
0.0215968
0.0214927
0.0220784
0.0219263
0.0209579
0.0203449
0.0203644
0.0199078
0.018701
0.0175678
0.0168566
0.0161478
0.014978
0.0137684
0.0126565
0.0117419
0.0108402
0.00979128
0.0086506
0.00753231
0.00642138
0.0220382
0.0218096
0.0211769
0.0209328
0.0213674
0.021156
0.0201519
0.0194534
0.0193776
0.0189189
0.0177644
0.0166662
0.0160273
0.0155062
0.0147179
0.0135011
0.0124424
0.0116083
0.0108442
0.0100077
0.009122
0.00825639
0.00739449
0.0215474
0.0213707
0.02074
0.0204224
0.0206705
0.0203884
0.0194108
0.0186824
0.0185203
0.0180624
0.0169899
0.0159724
0.0153617
0.0148785
0.0141519
0.0131881
0.0122845
0.0115498
0.0109113
0.0102579
0.00958531
0.00891686
0.008236
0.021041
0.0209097
0.0203238
0.0199597
0.0200237
0.0196833
0.0187766
0.0180353
0.017804
0.017372
0.0163952
0.0154363
0.0148443
0.0144153
0.0138263
0.0130376
0.0122462
0.0115893
0.0110655
0.0105868
0.0101062
0.00960401
0.00906621
0.0205787
0.0204657
0.0199607
0.0195185
0.0193991
0.0190818
0.0182613
0.0174621
0.0171712
0.0168531
0.016028
0.0150924
0.0144673
0.0140915
0.0136895
0.0130724
0.0123676
0.0117511
0.0112981
0.0109469
0.0106031
0.0102122
0.00975838
0.0201819
0.0200703
0.0196287
0.0191402
0.0188995
0.0185931
0.0178386
0.0170047
0.0166474
0.0163958
0.015731
0.0148465
0.0141441
0.0137517
0.0134682
0.0130257
0.0124312
0.0118373
0.0113823
0.011079
0.0108462
0.0105989
0.0102902
0.0198852
0.0197629
0.0193462
0.0188664
0.0185625
0.018208
0.017514
0.0167074
0.0162652
0.0160302
0.0155637
0.014801
0.0140455
0.0135617
0.0132927
0.013003
0.0125575
0.0120144
0.0115196
0.01117
0.0109503
0.010781
0.0105861
0.0197167
0.0195919
0.0192115
0.0187024
0.0183092
0.017973
0.0173897
0.0165804
0.0160138
0.0157412
0.0154296
0.0148291
0.0140823
0.0134677
0.0131125
0.0128822
0.0125776
0.0121419
0.0116694
0.0112809
0.0110311
0.0108849
0.0107669
0.0530499
0.0336433
0.0106513
-0.00992259
-0.0293523
-0.04849
-0.0669891
-0.0836518
0.0407882
0.0228169
0.000163492
-0.0192946
-0.034702
-0.0482552
-0.0611659
-0.0728007
0.0297379
0.0156819
-0.00370342
-0.0205049
-0.0320224
-0.0415051
-0.0511722
-0.0606143
0.020012
0.00875612
-0.00744436
-0.021786
-0.0309599
-0.0378234
-0.0445446
-0.05102
0.0117332
0.00305967
-0.00936999
-0.0203103
-0.0272582
-0.0322684
-0.0371155
-0.0419538
0.00538841
-0.00165546
-0.0103326
-0.0179819
-0.0232969
-0.0272661
-0.0309235
-0.034393
0.00118259
-0.00449404
-0.0102651
-0.0153054
-0.0192019
-0.0223297
-0.025128
-0.0276405
-0.0011626
-0.00563732
-0.00935205
-0.0125218
-0.0152545
-0.0176608
-0.0198031
-0.0216257
-0.00206687
-0.00552501
-0.00783025
-0.00971663
-0.0115463
-0.0133287
-0.0149382
-0.0162565
-0.00194626
-0.00457869
-0.00594318
-0.00697723
-0.00814425
-0.00942788
-0.0106331
-0.0116083
-0.00114239
-0.00311918
-0.00387362
-0.00435867
-0.00505061
-0.00593692
-0.0068162
-0.00752655
5.91944e-05
-0.00140137
-0.00177097
-0.00191655
-0.00227843
-0.0028573
-0.00347959
-0.00399778
0.00145329
0.000394001
0.000255748
0.000302736
0.000153322
-0.000208874
-0.000649436
-0.00104367
0.00287374
0.00211585
0.00210949
0.00225456
0.00223646
0.00202504
0.00171925
0.00142107
0.00425284
0.00371968
0.00378068
0.00396395
0.00401744
0.00390411
0.00369068
0.00345442
0.00551791
0.00512448
0.00520297
0.00538038
0.00545603
0.00539329
0.00523895
0.00505098
0.00670468
0.0064156
0.00648409
0.00663037
0.00670257
0.00666825
0.00655243
0.0063925
0.00768694
0.00745429
0.00749732
0.00760436
0.00765991
0.00763298
0.00753932
0.00740341
0.00863032
0.00844579
0.00847235
0.00854983
0.00858685
0.00855608
0.00846346
0.00832554
0.00938211
0.00920513
0.00918995
0.0092272
0.00924121
0.00920254
0.00910691
0.0089691
0.00998902
0.00977926
0.0096476
0.00957113
0.00951555
0.00945429
0.0093711
0.00926415
0.0103752
0.0101927
0.0100243
0.00988569
0.00977789
0.00968896
0.00960109
0.00950065
0.0106322
0.0104718
0.01027
0.010072
0.00990519
0.00977465
0.00966918
0.00957233
-0.521365
-0.530214
-0.543569
-0.561964
-0.585783
-0.613546
-0.640353
-0.659987
-0.517285
-0.525242
-0.537203
-0.553051
-0.572105
-0.593661
-0.61511
-0.630317
-0.513473
-0.519944
-0.529776
-0.542452
-0.557004
-0.570859