/*--------------------------------*- C++ -*----------------------------------*\
| =========                 |                                                 |
| \\      /  F ield         | OpenFOAM: The Open Source CFD Toolbox           |
|  \\    /   O peration     | Version:  2512                                  |
|   \\  /    A nd           | Website:  www.openfoam.com                      |
|    \\/     M anipulation  |                                                 |
\*---------------------------------------------------------------------------*/
FoamFile
{
    version     2.0;
    format      ascii;
    arch        "LSB;label=32;scalar=64";
    class       volVectorField;
    location    "53";
    object      U;
}
// * * * * * * * * * * * * * * * * * * * * * * * * * * * * * * * * * * * * * //

dimensions      [0 1 -1 0 0 0 0];

internalField   nonuniform List<vector> 
9800
(
(1 -2.88845e-05 0)
(1.00011 -8.17946e-05 0)
(1.00032 -0.000130205 0)
(1.0006 -0.000175689 0)
(1.00095 -0.000219569 0)
(1.00137 -0.000262882 0)
(1.00183 -0.00030642 0)
(1.00235 -0.000350724 0)
(1.00292 -0.000396038 0)
(1.00353 -0.000442278 0)
(1.00419 -0.00048905 0)
(1.0049 -0.000535724 0)
(1.00563 -0.000581544 0)
(1.00641 -0.000625724 0)
(1.0072 -0.000667542 0)
(1.00802 -0.000706391 0)
(1.00886 -0.000741816 0)
(1.0097 -0.000773511 0)
(1.01055 -0.000801312 0)
(1.01139 -0.000825172 0)
(1.01223 -0.000845135 0)
(1.01306 -0.000861318 0)
(1.01387 -0.000873892 0)
(1.01466 -0.000883062 0)
(1.01543 -0.000889059 0)
(1.01618 -0.000892127 0)
(1.01691 -0.000892517 0)
(1.0176 -0.000890482 0)
(1.01828 -0.000886272 0)
(1.01892 -0.000880131 0)
(1.01954 -0.000872291 0)
(1.02013 -0.000862976 0)
(1.02069 -0.000852391 0)
(1.02123 -0.000840732 0)
(1.02174 -0.000828172 0)
(1.02223 -0.000814877 0)
(1.02269 -0.00080099 0)
(1.02312 -0.000786644 0)
(1.02354 -0.000771954 0)
(1.02393 -0.000757025 0)
(1 -8.5553e-05 0)
(1.00011 -0.000242226 0)
(1.00032 -0.00038553 0)
(1.0006 -0.000520152 0)
(1.00095 -0.000650043 0)
(1.00136 -0.000778333 0)
(1.00182 -0.000907394 0)
(1.00234 -0.00103885 0)
(1.00291 -0.00117344 0)
(1.00352 -0.00131092 0)
(1.00418 -0.00145012 0)
(1.00488 -0.00158917 0)
(1.00563 -0.00172581 0)
(1.0064 -0.00185769 0)
(1.0072 -0.00198265 0)
(1.00803 -0.00209887 0)
(1.00887 -0.00220497 0)
(1.00972 -0.00230002 0)
(1.01057 -0.00238352 0)
(1.01142 -0.0024553 0)
(1.01227 -0.00251549 0)
(1.0131 -0.00256441 0)
(1.01393 -0.00260255 0)
(1.01473 -0.00263053 0)
(1.01551 -0.00264902 0)
(1.01627 -0.00265874 0)
(1.01701 -0.00266043 0)
(1.01772 -0.00265484 0)
(1.0184 -0.00264271 0)
(1.01906 -0.00262477 0)
(1.01969 -0.00260171 0)
(1.02029 -0.0025742 0)
(1.02086 -0.00254285 0)
(1.02141 -0.00250825 0)
(1.02193 -0.00247091 0)
(1.02242 -0.00243134 0)
(1.02289 -0.00238996 0)
(1.02334 -0.00234716 0)
(1.02376 -0.00230331 0)
(1.02416 -0.00225871 0)
(1 -0.000139946 0)
(1.00011 -0.000396038 0)
(1.00032 -0.00063014 0)
(1.0006 -0.000850034 0)
(1.00094 -0.00106232 0)
(1.00135 -0.00127226 0)
(1.00181 -0.00148382 0)
(1.00232 -0.00169973 0)
(1.00289 -0.00192122 0)
(1.0035 -0.0021479 0)
(1.00416 -0.00237786 0)
(1.00486 -0.00260797 0)
(1.0056 -0.00283449 0)
(1.00638 -0.00305352 0)
(1.00719 -0.00326143 0)
(1.00802 -0.00345519 0)
(1.00888 -0.00363245 0)
(1.00974 -0.00379164 0)
(1.01061 -0.00393186 0)
(1.01148 -0.00405277 0)
(1.01234 -0.00415454 0)
(1.01319 -0.00423767 0)
(1.01403 -0.00430293 0)
(1.01486 -0.00435129 0)
(1.01566 -0.00438382 0)
(1.01644 -0.00440171 0)
(1.0172 -0.00440615 0)
(1.01793 -0.00439838 0)
(1.01864 -0.00437961 0)
(1.01931 -0.00435105 0)
(1.01996 -0.00431382 0)
(1.02058 -0.00426905 0)
(1.02118 -0.00421775 0)
(1.02174 -0.0041609 0)
(1.02228 -0.00409937 0)
(1.02279 -0.00403399 0)
(1.02328 -0.00396547 0)
(1.02374 -0.00389448 0)
(1.02417 -0.00382162 0)
(1.02459 -0.00374742 0)
(1 -0.000191918 0)
(1.00011 -0.000542695 0)
(1.00031 -0.000863092 0)
(1.00059 -0.00116404 0)
(1.00093 -0.00145487 0)
(1.00133 -0.00174305 0)
(1.00178 -0.00203419 0)
(1.00229 -0.00233217 0)
(1.00285 -0.00263871 0)
(1.00346 -0.00295329 0)
(1.00412 -0.00327321 0)
(1.00482 -0.00359415 0)
(1.00557 -0.00391084 0)
(1.00635 -0.00421779 0)
(1.00717 -0.00450991 0)
(1.00802 -0.00478287 0)
(1.00888 -0.00503336 0)
(1.00976 -0.00525905 0)
(1.01065 -0.0054586 0)
(1.01154 -0.00563143 0)
(1.01243 -0.00577766 0)
(1.01331 -0.00589791 0)
(1.01418 -0.00599317 0)
(1.01503 -0.00606471 0)
(1.01586 -0.00611397 0)
(1.01668 -0.00614254 0)
(1.01746 -0.00615206 0)
(1.01823 -0.00614422 0)
(1.01896 -0.00612068 0)
(1.01967 -0.00608313 0)
(1.02035 -0.00603313 0)
(1.021 -0.00597225 0)
(1.02162 -0.0059019 0)
(1.02221 -0.00582348 0)
(1.02278 -0.0057382 0)
(1.02332 -0.00564724 0)
(1.02383 -0.00555162 0)
(1.02431 -0.00545232 0)
(1.02477 -0.00535014 0)
(1.0252 -0.00524588 0)
(1 -0.000241329 0)
(1.00011 -0.00068174 0)
(1.00031 -0.00108361 0)
(1.00058 -0.00146107 0)
(1.00091 -0.00182637 0)
(1.0013 -0.00218918 0)
(1.00175 -0.00255697 0)
(1.00225 -0.00293477 0)
(1.0028 -0.00332482 0)
(1.00341 -0.00372643 0)
(1.00406 -0.00413617 0)
(1.00476 -0.00454845 0)
(1.00551 -0.00495651 0)
(1.0063 -0.00535323 0)
(1.00713 -0.00573197 0)
(1.00799 -0.00608709 0)
(1.00887 -0.0064142 0)
(1.00977 -0.00671016 0)
(1.01069 -0.00697307 0)
(1.01161 -0.00720202 0)
(1.01253 -0.007397 0)
(1.01344 -0.00755864 0)
(1.01434 -0.00768809 0)
(1.01523 -0.00778685 0)
(1.01611 -0.00785665 0)
(1.01696 -0.00789945 0)
(1.01779 -0.00791727 0)
(1.01859 -0.00791226 0)
(1.01937 -0.00788651 0)
(1.02011 -0.00784215 0)
(1.02083 -0.0077812 0)
(1.02152 -0.00770566 0)
(1.02218 -0.00761736 0)
(1.02281 -0.00751811 0)
(1.02341 -0.00740952 0)
(1.02398 -0.00729312 0)
(1.02453 -0.00717026 0)
(1.02504 -0.00704223 0)
(1.02553 -0.00691011 0)
(1.02599 -0.00677494 0)
(1 -0.000288039 0)
(1.00011 -0.000812698 0)
(1.0003 -0.00129088 0)
(1.00056 -0.00174002 0)
(1.00089 -0.0021754 0)
(1.00127 -0.00260907 0)
(1.0017 -0.00305043 0)
(1.00219 -0.00350579 0)
(1.00273 -0.00397792 0)
(1.00333 -0.00446597 0)
(1.00398 -0.00496574 0)
(1.00468 -0.00547045 0)
(1.00543 -0.00597178 0)
(1.00623 -0.00646093 0)
(1.00707 -0.00692968 0)
(1.00794 -0.00737098 0)
(1.00884 -0.00777928 0)
(1.00977 -0.00815053 0)
(1.01071 -0.00848213 0)
(1.01166 -0.00877273 0)
(1.01262 -0.00902207 0)
(1.01357 -0.00923072 0)
(1.01452 -0.00939984 0)
(1.01545 -0.00953108 0)
(1.01637 -0.0096264 0)
(1.01727 -0.00968804 0)
(1.01815 -0.00971839 0)
(1.019 -0.00971999 0)
(1.01983 -0.00969533 0)
(1.02063 -0.00964702 0)
(1.0214 -0.00957745 0)
(1.02213 -0.00948912 0)
(1.02284 -0.00938427 0)
(1.02352 -0.00926517 0)
(1.02416 -0.00913379 0)
(1.02478 -0.00899209 0)
(1.02536 -0.00884175 0)
(1.02591 -0.00868441 0)
(1.02644 -0.00852147 0)
(1.02694 -0.00835423 0)
(1 -0.000331889 0)
(1.00011 -0.000935083 0)
(1.00029 -0.00148407 0)
(1.00055 -0.00199974 0)
(1.00086 -0.00250047 0)
(1.00123 -0.003001 0)
(1.00165 -0.00351263 0)
(1.00212 -0.00404314 0)
(1.00265 -0.00459589 0)
(1.00323 -0.00516985 0)
(1.00387 -0.00576013 0)
(1.00457 -0.00635869 0)
(1.00532 -0.00695565 0)
(1.00612 -0.00754049 0)
(1.00697 -0.00810338 0)
(1.00785 -0.00863577 0)
(1.00878 -0.00913086 0)
(1.00973 -0.0095835 0)
(1.0107 -0.00999029 0)
(1.01169 -0.0103493 0)
(1.01269 -0.0106599 0)
(1.01369 -0.0109225 0)
(1.01468 -0.0111381 0)
(1.01567 -0.0113084 0)
(1.01664 -0.0114354 0)
(1.0176 -0.0115217 0)
(1.01854 -0.0115699 0)
(1.01945 -0.0115829 0)
(1.02034 -0.0115635 0)
(1.02119 -0.0115149 0)
(1.02202 -0.0114397 0)
(1.02282 -0.011341 0)
(1.02358 -0.0112215 0)
(1.02431 -0.0110838 0)
(1.02501 -0.0109304 0)
(1.02568 -0.0107636 0)
(1.02631 -0.0105856 0)
(1.02691 -0.0103983 0)
(1.02748 -0.0102034 0)
(1.02802 -0.0100027 0)
(1 -0.000372703 0)
(1.0001 -0.00104841 0)
(1.00028 -0.00166235 0)
(1.00052 -0.00223907 0)
(1.00082 -0.00280013 0)
(1.00117 -0.00336314 0)
(1.00157 -0.00394147 0)
(1.00203 -0.00454447 0)
(1.00254 -0.00517616 0)
(1.0031 -0.00583545 0)
(1.00373 -0.00651671 0)
(1.00442 -0.00721068 0)
(1.00516 -0.00790588 0)
(1.00597 -0.00859005 0)
(1.00682 -0.00925177 0)
(1.00772 -0.00988088 0)
(1.00867 -0.0104692 0)
(1.00965 -0.0110103 0)
(1.01065 -0.0114998 0)
(1.01168 -0.0119352 0)
(1.01272 -0.0123153 0)
(1.01377 -0.0126401 0)
(1.01482 -0.0129103 0)
(1.01587 -0.0131275 0)
(1.0169 -0.0132938 0)
(1.01793 -0.0134119 0)
(1.01893 -0.0134845 0)
(1.01991 -0.0135149 0)
(1.02087 -0.0135061 0)
(1.02179 -0.0134617 0)
(1.02269 -0.0133847 0)
(1.02356 -0.0132788 0)
(1.02439 -0.013147 0)
(1.02519 -0.0129924 0)
(1.02595 -0.012818 0)
(1.02668 -0.0126266 0)
(1.02737 -0.0124207 0)
(1.02803 -0.0122028 0)
(1.02865 -0.011975 0)
(1.02924 -0.0117392 0)
(1 -0.000410319 0)
(1.0001 -0.00115219 0)
(1.00027 -0.00182491 0)
(1.00049 -0.00245686 0)
(1.00077 -0.00307291 0)
(1.0011 -0.00369363 0)
(1.00148 -0.00433484 0)
(1.00191 -0.00500727 0)
(1.0024 -0.00571585 0)
(1.00295 -0.00645959 0)
(1.00356 -0.00723221 0)
(1.00423 -0.00802307 0)
(1.00497 -0.0088191 0)
(1.00577 -0.00960643 0)
(1.00663 -0.010372 0)
(1.00754 -0.011104 0)
(1.0085 -0.0117926 0)
(1.00951 -0.01243 0)
(1.01054 -0.0130109 0)
(1.01161 -0.0135318 0)
(1.0127 -0.0139909 0)
(1.0138 -0.0143875 0)
(1.01491 -0.0147219 0)
(1.01602 -0.0149954 0)
(1.01713 -0.01521 0)
(1.01822 -0.0153684 0)
(1.0193 -0.0154734 0)
(1.02036 -0.0155285 0)
(1.0214 -0.0155368 0)
(1.02241 -0.0155023 0)
(1.02339 -0.0154285 0)
(1.02433 -0.0153193 0)
(1.02524 -0.0151782 0)
(1.02612 -0.0150092 0)
(1.02695 -0.0148152 0)
(1.02776 -0.0146 0)
(1.02852 -0.0143663 0)
(1.02925 -0.0141171 0)
(1.02993 -0.0138551 0)
(1.03059 -0.0135826 0)
(1 -0.000444596 0)
(1.00009 -0.00124592 0)
(1.00025 -0.00197103 0)
(1.00046 -0.00265206 0)
(1.00072 -0.0033174 0)
(1.00102 -0.00399076 0)
(1.00137 -0.00469058 0)
(1.00178 -0.00542894 0)
(1.00224 -0.00621184 0)
(1.00276 -0.00703877 0)
(1.00334 -0.00790277 0)
(1.004 -0.0087917 0)
(1.00472 -0.00969097 0)
(1.00552 -0.0105852 0)
(1.00637 -0.0114599 0)
(1.00729 -0.0123011 0)
(1.00827 -0.0130975 0)
(1.0093 -0.0138398 0)
(1.01037 -0.0145216 0)
(1.01147 -0.0151382 0)
(1.01261 -0.015687 0)
(1.01377 -0.0161664 0)
(1.01494 -0.0165761 0)
(1.01612 -0.016917 0)
(1.0173 -0.0171906 0)
(1.01848 -0.0173996 0)
(1.01964 -0.0175466 0)
(1.02079 -0.0176352 0)
(1.02192 -0.0176686 0)
(1.02302 -0.017651 0)
(1.02409 -0.0175863 0)
(1.02512 -0.0174789 0)
(1.02613 -0.0173327 0)
(1.02709 -0.0171521 0)
(1.02802 -0.0169407 0)
(1.0289 -0.0167027 0)
(1.02975 -0.0164415 0)
(1.03055 -0.0161606 0)
(1.03132 -0.0158631 0)
(1.03204 -0.015552 0)
(1 -0.000475381 0)
(1.00008 -0.0013292 0)
(1.00023 -0.00210007 0)
(1.00042 -0.00282375 0)
(1.00066 -0.00353227 0)
(1.00093 -0.00425304 0)
(1.00125 -0.00500665 0)
(1.00162 -0.00580689 0)
(1.00204 -0.00666102 0)
(1.00253 -0.0075693 0)
(1.00309 -0.00852409 0)
(1.00372 -0.0095117 0)
(1.00442 -0.0105162 0)
(1.0052 -0.011521 0)
(1.00605 -0.0125098 0)
(1.00697 -0.0134669 0)
(1.00796 -0.0143789 0)
(1.009 -0.0152352 0)
(1.0101 -0.016028 0)
(1.01125 -0.0167517 0)
(1.01243 -0.0174021 0)
(1.01365 -0.0179767 0)
(1.01489 -0.0184743 0)
(1.01614 -0.0188952 0)
(1.0174 -0.0192404 0)
(1.01867 -0.0195122 0)
(1.01993 -0.0197127 0)
(1.02117 -0.0198454 0)
(1.0224 -0.0199135 0)
(1.0236 -0.0199215 0)
(1.02478 -0.0198734 0)
(1.02592 -0.0197741 0)
(1.02702 -0.0196279 0)
(1.02809 -0.0194396 0)
(1.02912 -0.0192135 0)
(1.0301 -0.0189544 0)
(1.03104 -0.0186662 0)
(1.03194 -0.0183532 0)
(1.03279 -0.0180192 0)
(1.0336 -0.0176675 0)
(1 -0.000502525 0)
(1.00008 -0.00140174 0)
(1.00021 -0.00221149 0)
(1.00038 -0.00297109 0)
(1.00058 -0.00371654 0)
(1.00083 -0.00447913 0)
(1.00111 -0.00528122 0)
(1.00144 -0.00613855 0)
(1.00182 -0.00706043 0)
(1.00227 -0.00804758 0)
(1.00279 -0.00909166 0)
(1.00339 -0.0101777 0)
(1.00406 -0.011289 0)
(1.00482 -0.0124076 0)
(1.00565 -0.0135153 0)
(1.00657 -0.0145943 0)
(1.00756 -0.0156297 0)
(1.00862 -0.0166094 0)
(1.00974 -0.0175243 0)
(1.01092 -0.0183671 0)
(1.01215 -0.0191323 0)
(1.01342 -0.0198159 0)
(1.01473 -0.0204157 0)
(1.01606 -0.0209313 0)
(1.01741 -0.0213626 0)
(1.01877 -0.0217113 0)
(1.02013 -0.0219787 0)
(1.02148 -0.0221683 0)
(1.02282 -0.0222828 0)
(1.02414 -0.022327 0)
(1.02543 -0.0223048 0)
(1.02669 -0.0222215 0)
(1.02792 -0.0220815 0)
(1.0291 -0.0218906 0)
(1.03025 -0.0216534 0)
(1.03134 -0.0213754 0)
(1.0324 -0.0210613 0)
(1.0334 -0.020716 0)
(1.03435 -0.0203441 0)
(1.03526 -0.0199496 0)
(1 -0.000525925 0)
(1.00007 -0.00146333 0)
(1.00018 -0.00230493 0)
(1.00033 -0.00309337 0)
(1.0005 -0.00386957 0)
(1.00071 -0.00466804 0)
(1.00095 -0.0055126 0)
(1.00124 -0.0064217 0)
(1.00158 -0.00740739 0)
(1.00198 -0.00847021 0)
(1.00245 -0.00960088 0)
(1.00301 -0.0107841 0)
(1.00365 -0.012003 0)
(1.00437 -0.013238 0)
(1.00518 -0.0144687 0)
(1.00608 -0.0156753 0)
(1.00706 -0.0168416 0)
(1.00813 -0.0179543 0)
(1.00926 -0.0190027 0)
(1.01047 -0.0199775 0)
(1.01174 -0.0208715 0)
(1.01307 -0.0216793 0)
(1.01445 -0.0223974 0)
(1.01586 -0.0230242 0)
(1.0173 -0.0235583 0)
(1.01875 -0.0240004 0)
(1.02022 -0.0243508 0)
(1.02169 -0.0246124 0)
(1.02316 -0.0247874 0)
(1.02461 -0.0248806 0)
(1.02603 -0.0248954 0)
(1.02743 -0.0248379 0)
(1.02879 -0.0247122 0)
(1.03011 -0.024525 0)
(1.03138 -0.0242812 0)
(1.03261 -0.0239873 0)
(1.03379 -0.0236487 0)
(1.03491 -0.0232712 0)
(1.03599 -0.0228602 0)
(1.037 -0.0224204 0)
(1 -0.000545476 0)
(1.00006 -0.00151394 0)
(1.00015 -0.00238 0)
(1.00027 -0.00319025 0)
(1.00041 -0.00399115 0)
(1.00058 -0.00481906 0)
(1.00078 -0.00569925 0)
(1.00101 -0.00665465 0)
(1.0013 -0.00769962 0)
(1.00165 -0.00883381 0)
(1.00207 -0.0100472 0)
(1.00257 -0.0113253 0)
(1.00316 -0.0126516 0)
(1.00385 -0.0140046 0)
(1.00462 -0.0153614 0)
(1.00549 -0.0167005 0)
(1.00646 -0.018005 0)
(1.00752 -0.0192602 0)
(1.00867 -0.0204535 0)
(1.0099 -0.0215735 0)
(1.0112 -0.0226112 0)
(1.01258 -0.0235598 0)
(1.01402 -0.024414 0)
(1.01551 -0.0251707 0)
(1.01704 -0.0258266 0)
(1.0186 -0.0263812 0)
(1.02019 -0.0268331 0)
(1.02179 -0.0271847 0)
(1.02339 -0.027437 0)
(1.02498 -0.0275947 0)
(1.02655 -0.0276605 0)
(1.0281 -0.0276406 0)
(1.02961 -0.0275393 0)
(1.03108 -0.0273637 0)
(1.03251 -0.0271193 0)
(1.03389 -0.0268135 0)
(1.03521 -0.0264524 0)
(1.03648 -0.0260427 0)
(1.03768 -0.0255913 0)
(1.03883 -0.0251033 0)
(1 -0.00056115 0)
(1.00005 -0.00155364 0)
(1.00012 -0.00243631 0)
(1.00021 -0.0032618 0)
(1.00032 -0.00408153 0)
(1.00044 -0.00493152 0)
(1.00059 -0.00584015 0)
(1.00077 -0.0068363 0)
(1.00099 -0.00793533 0)
(1.00128 -0.00913509 0)
(1.00165 -0.0104264 0)
(1.00209 -0.0117963 0)
(1.00262 -0.0132286 0)
(1.00325 -0.0146995 0)
(1.00398 -0.0161841 0)
(1.00481 -0.0176598 0)
(1.00575 -0.0191091 0)
(1.00679 -0.0205156 0)
(1.00794 -0.021865 0)
(1.00918 -0.0231436 0)
(1.01051 -0.0243408 0)
(1.01193 -0.0254479 0)
(1.01343 -0.0264576 0)
(1.01499 -0.027365 0)
(1.01662 -0.0281641 0)
(1.01829 -0.0288531 0)
(1.02 -0.0294281 0)
(1.02173 -0.0298911 0)
(1.02348 -0.0302408 0)
(1.02523 -0.0304819 0)
(1.02696 -0.0306153 0)
(1.02868 -0.030648 0)
(1.03037 -0.0305834 0)
(1.03201 -0.0304294 0)
(1.03361 -0.030192 0)
(1.03516 -0.0298792 0)
(1.03665 -0.0294985 0)
(1.03808 -0.0290571 0)
(1.03944 -0.0285638 0)
(1.04074 -0.0280241 0)
(1 -0.000573049 0)
(1.00004 -0.00158238 0)
(1.00009 -0.00247355 0)
(1.00015 -0.00330876 0)
(1.00021 -0.00414121 0)
(1.00029 -0.00500486 0)
(1.00039 -0.00593501 0)
(1.0005 -0.00696637 0)
(1.00067 -0.00811286 0)
(1.00089 -0.00937116 0)
(1.00118 -0.0107348 0)
(1.00156 -0.0121928 0)
(1.00202 -0.0137281 0)
(1.00258 -0.0153148 0)
(1.00325 -0.0169271 0)
(1.00403 -0.0185422 0)
(1.00493 -0.020142 0)
(1.00594 -0.0217078 0)
(1.00706 -0.0232237 0)
(1.0083 -0.0246741 0)
(1.00965 -0.0260468 0)
(1.0111 -0.0273312 0)
(1.01265 -0.0285175 0)
(1.01429 -0.0295983 0)
(1.016 -0.0305647 0)
(1.01779 -0.031413 0)
(1.01962 -0.0321364 0)
(1.0215 -0.0327357 0)
(1.02341 -0.0332068 0)
(1.02532 -0.0335537 0)
(1.02724 -0.0337754 0)
(1.02915 -0.0338788 0)
(1.03103 -0.0338664 0)
(1.03287 -0.0337469 0)
(1.03467 -0.033526 0)
(1.03642 -0.0332129 0)
(1.0381 -0.0328162 0)
(1.03971 -0.032344 0)
(1.04126 -0.031807 0)
(1.04272 -0.0312115 0)
(1 -0.000581412 0)
(1.00003 -0.0015998 0)
(1.00006 -0.00249168 0)
(1.00008 -0.00333267 0)
(1.0001 -0.00417049 0)
(1.00013 -0.00503892 0)
(1.00017 -0.00598461 0)
(1.00022 -0.00704502 0)
(1.00032 -0.00823082 0)
(1.00047 -0.00953976 0)
(1.00068 -0.0109697 0)
(1.00098 -0.012511 0)
(1.00135 -0.0141447 0)
(1.00184 -0.0158429 0)
(1.00244 -0.0175809 0)
(1.00315 -0.0193366 0)
(1.00399 -0.0210908 0)
(1.00495 -0.0228226 0)
(1.00604 -0.0245145 0)
(1.00726 -0.0261494 0)
(1.00861 -0.0277138 0)
(1.01008 -0.0291947 0)
(1.01167 -0.0305798 0)
(1.01337 -0.0318588 0)
(1.01517 -0.033019 0)
(1.01706 -0.034055 0)
(1.01903 -0.0349557 0)
(1.02106 -0.0357206 0)
(1.02313 -0.0363414 0)
(1.02524 -0.0368214 0)
(1.02736 -0.0371563 0)
(1.02947 -0.0373531 0)
(1.03157 -0.0374123 0)
(1.03364 -0.0373432 0)
(1.03567 -0.0371513 0)
(1.03764 -0.0368466 0)
(1.03954 -0.0364389 0)
(1.04137 -0.0359371 0)
(1.04312 -0.0353547 0)
(1.04478 -0.0346982 0)
(1 -0.000586564 0)
(1.00001 -0.001605 0)
(1.00002 -0.00249143 0)
(1 -0.00333547 0)
(0.999984 -0.00416927 0)
(0.999969 -0.00503445 0)
(0.999945 -0.00599071 0)
(0.999928 -0.00707244 0)
(0.999948 -0.00828817 0)
(1.00002 -0.00963972 0)
(1.00015 -0.0111296 0)
(1.00035 -0.0127476 0)
(1.00064 -0.014473 0)
(1.00103 -0.016277 0)
(1.00154 -0.0181371 0)
(1.00217 -0.0200322 0)
(1.00293 -0.0219423 0)
(1.00383 -0.0238446 0)
(1.00486 -0.0257207 0)
(1.00605 -0.0275518 0)
(1.00738 -0.0293235 0)
(1.00885 -0.0310204 0)
(1.01047 -0.0326272 0)
(1.01222 -0.0341306 0)
(1.01409 -0.0355142 0)
(1.01609 -0.0367694 0)
(1.01819 -0.0378806 0)
(1.02037 -0.0388451 0)
(1.02262 -0.0396491 0)
(1.02493 -0.040295 0)
(1.02727 -0.0407735 0)
(1.02962 -0.0410917 0)
(1.03197 -0.0412468 0)
(1.03429 -0.0412487 0)
(1.03658 -0.0411018 0)
(1.0388 -0.0408169 0)
(1.04096 -0.0404049 0)
(1.04304 -0.0398759 0)
(1.04503 -0.0392461 0)
(1.04693 -0.0385228 0)
(1 -0.000588665 0)
(1 -0.00159658 0)
(0.999976 -0.00247479 0)
(0.99992 -0.00331898 0)
(0.999865 -0.00413723 0)
(0.9998 -0.00499379 0)
(0.99971 -0.00595533 0)
(0.999622 -0.00704865 0)
(0.999568 -0.0082848 0)
(0.999558 -0.00967114 0)
(0.999595 -0.0112135 0)
(0.999692 -0.0129001 0)
(0.999877 -0.0147084 0)
(1.00017 -0.0166109 0)
(1.00057 -0.0185878 0)
(1.0011 -0.0206187 0)
(1.00176 -0.0226832 0)
(1.00257 -0.0247578 0)
(1.00353 -0.026824 0)
(1.00466 -0.0288617 0)
(1.00595 -0.0308555 0)
(1.0074 -0.0327871 0)
(1.00902 -0.034639 0)
(1.01081 -0.0363943 0)
(1.01275 -0.0380329 0)
(1.01484 -0.0395425 0)
(1.01706 -0.0409019 0)
(1.0194 -0.0421051 0)
(1.02184 -0.0431319 0)
(1.02436 -0.0439826 0)
(1.02694 -0.0446419 0)
(1.02955 -0.045116 0)
(1.03217 -0.0453976 0)
(1.03479 -0.0454968 0)
(1.03737 -0.0454156 0)
(1.03989 -0.0451661 0)
(1.04235 -0.0447593 0)
(1.04472 -0.0442069 0)
(1.047 -0.0435279 0)
(1.04916 -0.0427309 0)
(1 -0.000587262 0)
(0.999989 -0.00157312 0)
(0.999926 -0.00244517 0)
(0.999834 -0.00328395 0)
(0.999746 -0.0040746 0)
(0.999626 -0.00492084 0)
(0.999468 -0.00587972 0)
(0.99931 -0.00697399 0)
(0.999178 -0.00822199 0)
(0.999077 -0.00963522 0)
(0.999013 -0.0112217 0)
(0.999001 -0.0129666 0)
(0.999076 -0.0148475 0)
(0.999252 -0.0168396 0)
(0.999538 -0.0189262 0)
(0.999944 -0.0210866 0)
(1.00049 -0.0233009 0)
(1.00118 -0.0255464 0)
(1.00205 -0.0278058 0)
(1.00309 -0.0300578 0)
(1.00431 -0.0322866 0)
(1.00572 -0.0344705 0)
(1.00732 -0.0365907 0)
(1.00911 -0.0386261 0)
(1.0111 -0.0405533 0)
(1.01327 -0.0423555 0)
(1.01561 -0.0440052 0)
(1.01811 -0.045492 0)
(1.02074 -0.0467878 0)
(1.02348 -0.04789 0)
(1.02632 -0.0487752 0)
(1.02922 -0.0494481 0)
(1.03215 -0.0498946 0)
(1.03509 -0.0501247 0)
(1.03801 -0.0501365 0)
(1.04088 -0.049943 0)
(1.04369 -0.0495547 0)
(1.0464 -0.0489853 0)
(1.04901 -0.0482558 0)
(1.05149 -0.0473776 0)
(1 -0.000580667 0)
(0.999973 -0.00153431 0)
(0.999866 -0.00240702 0)
(0.999745 -0.00322971 0)
(0.999626 -0.00398339 0)
(0.999446 -0.00482003 0)
(0.999223 -0.00576369 0)
(0.998995 -0.00685024 0)
(0.998782 -0.00810214 0)
(0.998585 -0.00953391 0)
(0.998413 -0.0111546 0)
(0.998287 -0.0129458 0)
(0.998242 -0.0148882 0)
(0.99829 -0.0169593 0)
(0.99844 -0.0191459 0)
(0.998706 -0.021427 0)
(0.999111 -0.0237837 0)
(0.999673 -0.0261955 0)
(1.00041 -0.0286473 0)
(1.00133 -0.0311178 0)
(1.00246 -0.0335914 0)
(1.00379 -0.0360433 0)
(1.00534 -0.0384539 0)
(1.00713 -0.0407977 0)
(1.00913 -0.0430485 0)
(1.01136 -0.045184 0)
(1.0138 -0.0471704 0)
(1.01645 -0.0489915 0)
(1.01927 -0.0506102 0)
(1.02225 -0.052019 0)
(1.02536 -0.0531847 0)
(1.02857 -0.0541091 0)
(1.03185 -0.0547689 0)
(1.03516 -0.0551732 0)
(1.03846 -0.0553135 0)
(1.04174 -0.0552044 0)
(1.04495 -0.0548532 0)
(1.04806 -0.0542769 0)
(1.05106 -0.0534972 0)
(1.05392 -0.0525301 0)
(1 -0.000565238 0)
(0.999949 -0.00148253 0)
(0.999795 -0.00236417 0)
(0.999657 -0.00315474 0)
(0.999503 -0.00386798 0)
(0.999262 -0.0046946 0)
(0.998979 -0.00560627 0)
(0.998679 -0.00668179 0)
(0.998382 -0.00792773 0)
(0.998085 -0.00937009 0)
(0.997801 -0.0110134 0)
(0.997556 -0.012838 0)
(0.997383 -0.0148296 0)
(0.99729 -0.0169675 0)
(0.99729 -0.0192422 0)
(0.997401 -0.0216319 0)
(0.997646 -0.024121 0)
(0.998049 -0.0266916 0)
(0.99863 -0.029331 0)
(0.999409 -0.0320197 0)
(1.0004 -0.0347435 0)
(1.00163 -0.0374757 0)
(1.00309 -0.0401964 0)
(1.00482 -0.0428757 0)
(1.00681 -0.0454856 0)
(1.00908 -0.0479969 0)
(1.0116 -0.0503705 0)
(1.01437 -0.0525822 0)
(1.01738 -0.0545856 0)
(1.0206 -0.0563659 0)
(1.02399 -0.0578781 0)
(1.02754 -0.0591186 0)
(1.0312 -0.0600525 0)
(1.03493 -0.0606864 0)
(1.03868 -0.0610023 0)
(1.04242 -0.0610155 0)
(1.0461 -0.060728 0)
(1.04969 -0.0601606 0)
(1.05316 -0.059334 0)
(1.05646 -0.0582704 0)
(1 -0.000534874 0)
(0.999912 -0.00142489 0)
(0.999712 -0.00231712 0)
(0.99957 -0.00305837 0)
(0.999376 -0.00373368 0)
(0.999078 -0.00454543 0)
(0.998738 -0.00540736 0)
(0.998363 -0.0064757 0)
(0.997981 -0.00769987 0)
(0.997581 -0.00914855 0)
(0.997184 -0.010799 0)
(0.996816 -0.0126449 0)
(0.996507 -0.0146724 0)
(0.996263 -0.0168627 0)
(0.9961 -0.0192118 0)
(0.996038 -0.0216953 0)
(0.996105 -0.0243041 0)
(0.996324 -0.0270223 0)
(0.996721 -0.0298405 0)
(0.997319 -0.0327422 0)
(0.998142 -0.0357161 0)
(0.999216 -0.0387358 0)
(1.00056 -0.0417824 0)
(1.0022 -0.0448221 0)
(1.00413 -0.0478254 0)
(1.00639 -0.050756 0)
(1.00895 -0.0535701 0)
(1.01183 -0.0562341 0)
(1.01501 -0.0586921 0)
(1.01846 -0.0609191 0)
(1.02216 -0.0628568 0)
(1.02607 -0.0644925 0)
(1.03014 -0.065777 0)
(1.03434 -0.0667113 0)
(1.0386 -0.0672649 0)
(1.04288 -0.0674519 0)
(1.04712 -0.0672659 0)
(1.05127 -0.0667315 0)
(1.05529 -0.0658661 0)
(1.05914 -0.0647003 0)
(1.00001 -0.000481179 0)
(0.999857 -0.00137536 0)
(0.999622 -0.00225994 0)
(0.999485 -0.00294422 0)
(0.999243 -0.00358299 0)
(0.998897 -0.00437252 0)
(0.998501 -0.00516885 0)
(0.998047 -0.00624056 0)
(0.997582 -0.0074173 0)
(0.997075 -0.00887759 0)
(0.996569 -0.01051 0)
(0.996071 -0.0123721 0)
(0.995622 -0.0144169 0)
(0.995219 -0.0166465 0)
(0.994881 -0.0190534 0)
(0.994633 -0.0216133 0)
(0.994502 -0.0243265 0)
(0.994513 -0.0271768 0)
(0.994698 -0.0301607 0)
(0.995082 -0.0332656 0)
(0.995697 -0.0364835 0)
(0.996576 -0.0397918 0)
(0.997747 -0.0431737 0)
(0.99924 -0.0465939 0)
(1.00107 -0.0500217 0)
(1.00327 -0.0534146 0)
(1.00584 -0.0567242 0)
(1.00879 -0.0599068 0)
(1.0121 -0.062897 0)
(1.01578 -0.0656568 0)
(1.01977 -0.0681132 0)
(1.02406 -0.0702398 0)
(1.02858 -0.0719705 0)
(1.0333 -0.0732958 0)
(1.03814 -0.074169 0)
(1.04304 -0.0745994 0)
(1.04794 -0.0745687 0)
(1.05276 -0.0741037 0)
(1.05745 -0.0732161 0)
(1.06196 -0.0719457 0)
(1.00002 -0.000393884 0)
(0.999782 -0.00135518 0)
(0.999531 -0.00217822 0)
(0.999401 -0.00282372 0)
(0.999107 -0.00341096 0)
(0.998723 -0.00417977 0)
(0.998265 -0.00489269 0)
(0.997735 -0.00598599 0)
(0.997191 -0.00707585 0)
(0.996574 -0.00857045 0)
(0.995963 -0.0101406 0)
(0.99533 -0.0120321 0)
(0.99474 -0.0140599 0)
(0.994167 -0.0163259 0)
(0.993648 -0.0187648 0)
(0.993202 -0.0213864 0)
(0.992855 -0.0241833 0)
(0.992638 -0.0271472 0)
(0.992582 -0.0302789 0)
(0.992718 -0.0335721 0)
(0.993085 -0.0370217 0)
(0.993722 -0.0406127 0)
(0.994667 -0.0443308 0)
(0.995959 -0.0481447 0)
(0.99763 -0.0520223 0)
(0.999712 -0.0559174 0)
(1.00222 -0.059777 0)
(1.00519 -0.0635476 0)
(1.0086 -0.0671545 0)
(1.01246 -0.070544 0)
(1.01674 -0.0736275 0)
(1.02142 -0.07636 0)
(1.02642 -0.0786551 0)
(1.03171 -0.0804862 0)
(1.0372 -0.0817864 0)
(1.04282 -0.0825537 0)
(1.04849 -0.0827541 0)
(1.05411 -0.0824124 0)
(1.05961 -0.0815323 0)
(1.06492 -0.0801617 0)
(1.00005 -0.000262409 0)
(0.999683 -0.0013883 0)
(0.999453 -0.00204947 0)
(0.999315 -0.00271793 0)
(0.998974 -0.00320216 0)
(0.998558 -0.0039814 0)
(0.998034 -0.00457506 0)
(0.997432 -0.00572508 0)
(0.996813 -0.00666695 0)
(0.996082 -0.00824674 0)
(0.995378 -0.00967713 0)
(0.994596 -0.0116487 0)
(0.993876 -0.0135884 0)
(0.993119 -0.0159198 0)
(0.992422 -0.0183369 0)
(0.991761 -0.0210238 0)
(0.991188 -0.0238671 0)
(0.990722 -0.0269317 0)
(0.9904 -0.0301828 0)
(0.990256 -0.0336473 0)
(0.990335 -0.0373071 0)
(0.990679 -0.0411698 0)
(0.991341 -0.0452142 0)
(0.992366 -0.0494264 0)
(0.993804 -0.0537689 0)
(0.995696 -0.0582003 0)
(0.99808 -0.0626608 0)
(1.00099 -0.06709 0)
(1.00444 -0.071403 0)
(1.00844 -0.0755297 0)
(1.01298 -0.0793644 0)
(1.01803 -0.0828388 0)
(1.02353 -0.0858426 0)
(1.02944 -0.0883244 0)
(1.03566 -0.0901906 0)
(1.04211 -0.0914204 0)
(1.04868 -0.091957 0)
(1.05525 -0.0918173 0)
(1.06174 -0.0909928 0)
(1.06802 -0.0895373 0)
(1.00009 -8.23535e-05 0)
(0.999561 -0.00149422 0)
(0.999406 -0.00184933 0)
(0.999219 -0.00265376 0)
(0.998861 -0.00293319 0)
(0.998396 -0.00380497 0)
(0.997815 -0.00420158 0)
(0.997141 -0.00547907 0)
(0.996455 -0.0061752 0)
(0.995605 -0.00793447 0)
(0.994826 -0.00909609 0)
(0.993874 -0.0112612 0)
(0.99305 -0.0129732 0)
(0.99208 -0.0154688 0)
(0.991228 -0.0177427 0)
(0.990323 -0.0205563 0)
(0.98953 -0.0233566 0)
(0.988786 -0.0265445 0)
(0.988184 -0.0298527 0)
(0.987724 -0.0334872 0)
(0.987479 -0.0373128 0)
(0.987481 -0.0414397 0)
(0.9878 -0.0457817 0)
(0.988486 -0.0503931 0)
(0.989611 -0.0551966 0)
(0.991225 -0.0601918 0)
(0.993392 -0.0652931 0)
(0.996156 -0.0704509 0)
(0.999559 -0.0755609 0)
(1.00363 -0.0805421 0)
(1.00836 -0.0852676 0)
(1.01376 -0.0896433 0)
(1.01977 -0.0935302 0)
(1.02633 -0.0968431 0)
(1.03336 -0.0994546 0)
(1.04075 -0.101313 0)
(1.04837 -0.102331 0)
(1.05609 -0.102507 0)
(1.06376 -0.101813 0)
(1.07124 -0.100304 0)
(1.00017 0.000140333 0)
(0.999405 -0.00167627 0)
(0.999422 -0.00156308 0)
(0.999098 -0.00265295 0)
(0.998792 -0.00258251 0)
(0.998222 -0.00368155 0)
(0.997632 -0.00375067 0)
(0.996853 -0.00527648 0)
(0.996137 -0.0055797 0)
(0.995136 -0.00766949 0)
(0.994327 -0.00836715 0)
(0.993159 -0.0109229 0)
(0.99229 -0.0121676 0)
(0.991046 -0.0150409 0)
(0.990103 -0.0169265 0)
(0.988886 -0.0200526 0)
(0.987924 -0.0225985 0)
(0.986838 -0.0260384 0)
(0.985979 -0.0292426 0)
(0.985143 -0.0331179 0)
(0.984563 -0.0369935 0)
(0.984156 -0.0414188 0)
(0.984087 -0.0459777 0)
(0.984348 -0.0510101 0)
(0.98508 -0.0562284 0)
(0.986307 -0.0618212 0)
(0.988151 -0.0675709 0)
(0.990653 -0.0735306 0)
(0.9939 -0.0795177 0)
(0.997927 -0.0854833 0)
(1.00278 -0.0912522 0)
(1.00846 -0.0967151 0)
(1.01494 -0.101694 0)
(1.02218 -0.106061 0)
(1.03008 -0.109647 0)
(1.03853 -0.112354 0)
(1.04738 -0.114051 0)
(1.05645 -0.114703 0)
(1.06556 -0.114253 0)
(1.07452 -0.112747 0)
(1.00036 0.000392264 0)
(0.99918 -0.0019175 0)
(0.999554 -0.00119668 0)
(0.998905 -0.00271718 0)
(0.998817 -0.00214533 0)
(0.997987 -0.00362641 0)
(0.997532 -0.00320755 0)
(0.996525 -0.00513841 0)
(0.995902 -0.00486437 0)
(0.994638 -0.00748252 0)
(0.993923 -0.00746513 0)
(0.992416 -0.0106858 0)
(0.991642 -0.0111229 0)
(0.989982 -0.0147185 0)
(0.989101 -0.0158119 0)
(0.987419 -0.0196204 0)
(0.986435 -0.021498 0)
(0.984856 -0.0255266 0)
(0.983855 -0.028254 0)
(0.982505 -0.0326332 0)
(0.981655 -0.0362547 0)
(0.980712 -0.0411618 0)
(0.980263 -0.0457045 0)
(0.979971 -0.0512857 0)
(0.980259 -0.0567522 0)
(0.980951 -0.0630454 0)
(0.98237 -0.0693521 0)
(0.984447 -0.0762282 0)
(0.987406 -0.0831124 0)
(0.991243 -0.0902254 0)
(0.996089 -0.0971809 0)
(1.00194 -0.103958 0)
(1.00884 -0.110273 0)
(1.01674 -0.115972 0)
(1.02556 -0.120824 0)
(1.03518 -0.124668 0)
(1.04544 -0.127312 0)
(1.05612 -0.128669 0)
(1.06699 -0.128631 0)
(1.07777 -0.127221 0)
(1.00074 0.000651998 0)
(0.998806 -0.00218555 0)
(0.999888 -0.000778217 0)
(0.998555 -0.00282498 0)
(0.999021 -0.00164333 0)
(0.997598 -0.00362776 0)
(0.997607 -0.00258073 0)
(0.996054 -0.00506049 0)
(0.995847 -0.00403531 0)
(0.994008 -0.00737605 0)
(0.99371 -0.00639139 0)
(0.991547 -0.010568 0)
(0.991203 -0.00981966 0)
(0.988795 -0.0145546 0)
(0.988327 -0.0143415 0)
(0.985829 -0.0193608 0)
(0.985178 -0.0199522 0)
(0.982749 -0.0251552 0)
(0.981938 -0.0267441 0)
(0.979732 -0.0322033 0)
(0.978886 -0.0349287 0)
(0.977092 -0.0408295 0)
(0.976451 -0.0447798 0)
(0.975319 -0.0513374 0)
(0.97525 -0.0565692 0)
(0.975137 -0.0639164 0)
(0.976114 -0.0704118 0)
(0.977491 -0.0785149 0)
(0.980061 -0.0860877 0)
(0.983451 -0.0946518 0)
(0.988155 -0.102811 0)
(0.993997 -0.111234 0)
(1.00121 -0.119128 0)
(1.0097 -0.126527 0)
(1.01945 -0.133019 0)
(1.03035 -0.138376 0)
(1.04221 -0.142334 0)
(1.05479 -0.144713 0)
(1.06778 -0.14533 0)
(1.08084 -0.144167 0)
(1.00143 0.000894201 0)
(0.99817 -0.0024413 0)
(1.00054 -0.000349666 0)
(0.997919 -0.0029406 0)
(0.999528 -0.00111542 0)
(0.996908 -0.00364989 0)
(0.998004 -0.0019073 0)
(0.995267 -0.00500967 0)
(0.996139 -0.00313364 0)
(0.993051 -0.00731319 0)
(0.993875 -0.0051944 0)
(0.990348 -0.0105297 0)
(0.991169 -0.00830442 0)
(0.987281 -0.0145241 0)
(0.987979 -0.0125378 0)
(0.983915 -0.0192885 0)
(0.984359 -0.0179332 0)
(0.980318 -0.0250014 0)
(0.98045 -0.0246149 0)
(0.976626 -0.0319788 0)
(0.976495 -0.0328377 0)
(0.97311 -0.0406362 0)
(0.972899 -0.0429502 0)
(0.970231 -0.0514111 0)
(0.970292 -0.0553555 0)
(0.968728 -0.0646682 0)
(0.969577 -0.0703645 0)
(0.969662 -0.0805647 0)
(0.971973 -0.0879944 0)
(0.974378 -0.0988231 0)
(0.978917 -0.107672 0)
(0.984325 -0.11847 0)
(0.991773 -0.127903 0)
(1.00064 -0.137641 0)
(1.01133 -0.146167 0)
(1.02357 -0.153578 0)
(1.03723 -0.159371 0)
(1.05204 -0.163199 0)
(1.06762 -0.164833 0)
(1.08352 -0.164141 0)
(1.0025 0.00109707 0)
(0.997185 -0.00264692 0)
(1.00159 5.03849e-05 0)
(0.996886 -0.00302535 0)
(1.00046 -0.000601738 0)