/*--------------------------------*- C++ -*----------------------------------*\
| =========                 |                                                 |
| \\      /  F ield         | OpenFOAM: The Open Source CFD Toolbox           |
|  \\    /   O peration     | Version:  2512                                  |
|   \\  /    A nd           | Website:  www.openfoam.com                      |
|    \\/     M anipulation  |                                                 |
\*---------------------------------------------------------------------------*/
FoamFile
{
    version     2.0;
    format      ascii;
    arch        "LSB;label=32;scalar=64";
    class       surfaceScalarField;
    location    "107.75";
    object      phi;
}
// * * * * * * * * * * * * * * * * * * * * * * * * * * * * * * * * * * * * * //

dimensions      [0 3 -1 0 0 0 0];

oriented        oriented;

internalField   nonuniform List<scalar> 
26232
(
-0.00052445
0.00120635
-0.0006819
-0.00140152
0.00254521
-0.00166814
-0.00210042
0.0030788
-0.0023799
-0.00215646
0.00276147
-0.00270543
-0.00112745
0.00143273
-0.00246175
0.00142279
-0.00111753
-0.0014327
0.00589431
-0.0050821
0.000610571
0.0126541
-0.0105643
0.0038046
0.0218724
-0.0175156
0.00829717
0.0334998
-0.0256977
0.0140703
0.0472191
-0.0347148
0.0209955
0.0624718
-0.0440853
0.0288326
0.0785286
-0.0533229
0.0372661
0.0945851
-0.0620068
0.0459504
0.109866
-0.0698277
0.0545467
0.123714
-0.0766135
0.0627655
0.135692
-0.0823325
0.0703547
0.145583
-0.0870943
0.0772026
0.153567
-0.0910935
0.0831096
0.159861
-0.0946857
0.0883918
0.165269
-0.0979667
0.0925593
0.169922
-0.101705
0.097052
0.174248
-0.104676
0.100349
-0.109331
0.105484
0.178096
-0.000297042
0.00150339
-0.00065807
0.00290624
-0.000570836
0.00299157
0.000469741
0.00172089
0.00296872
-0.00106625
0.00740357
-0.00555238
0.0141575
-0.011836
0.0234056
-0.0198125
0.0350084
-0.0291183
0.0484892
-0.0391785
0.0631009
-0.0493265
0.0779564
-0.0589408
0.0921826
-0.0675492
0.105061
-0.0748851
0.116131
-0.0808973
0.125245
-0.0857277
0.132564
-0.0896517
0.138489
-0.0930197
0.143541
-0.0961451
0.148157
-0.0993013
0.152722
-0.102532
0.157036
-0.106019
0.161615
-0.109255
-0.113333
0.165617
-9.01495e-05
0.00159354
8.43858e-05
0.0027317
0.00103526
0.00204069
0.00331113
-0.000554985
0.00745843
-0.00521354
0.0139248
-0.0120188
0.0229082
-0.0208194
0.0342106
-0.0311149
0.0472119
-0.0421196
0.0609908
-0.0529575
0.0745367
-0.0628724
0.0869665
-0.0713706
0.0976888
-0.0782715
0.106484
-0.0836802
0.113493
-0.0879064
0.119119
-0.0913537
0.123875
-0.0944078
0.128217
-0.0973618
0.132433
-0.100361
0.136623
-0.103492
0.140737
-0.106646
0.144741
-0.110023
0.148625
-0.113139
-0.116945
0.152237
7.14757e-05
0.00152207
0.000755879
0.0020473
0.002609
0.000187577
0.0062288
-0.00417479
0.0121399
-0.0111247
0.0206074
-0.0204863
0.0314165
-0.0316285
0.0438285
-0.0435268
0.0567658
-0.0550569
0.0691201
-0.0653118
0.0800348
-0.0737871
0.0890718
-0.0804075
0.0962346
-0.0854342
0.101866
-0.0893119
0.106469
-0.0925096
0.110519
-0.095403
0.114341
-0.0982296
0.118074
-0.101095
0.121756
-0.104043
0.125335
-0.107071
0.128873
-0.110183
0.132298
-0.113448
0.135783
-0.116624
-0.120399
0.139237
0.000211519
0.00131055
0.00141641
0.000842411
0.00424859
-0.00264461
0.00931469
-0.00924088
0.0169877
-0.0187976
0.0271024
-0.030601
0.0388475
-0.0433736
0.0510046
-0.0556839
0.0623709
-0.0664232
0.0721127
-0.0750536
0.0799189
-0.0815933
0.0859502
-0.0864388
0.0906516
-0.0901357
0.0945289
-0.0931892
0.0979814
-0.0959621
0.101244
-0.098666
0.104416
-0.101401
0.107535
-0.104214
0.110614
-0.107123
0.113687
-0.110143
0.11677
-0.113266
0.119832
-0.11651
0.122963
-0.119756
-0.123367
0.125931
0.000372212
0.000938336
0.00216614
-0.000951518
0.00607592
-0.00655439
0.0126186
-0.0157835
0.0217734
-0.0279525
0.0327411
-0.0415688
0.0441864
-0.0548189
0.0547903
-0.0662878
0.0636979
-0.0753308
0.0706634
-0.0820191
0.0759297
-0.0868595
0.0799773
-0.0904864
0.0832889
-0.0934473
0.0862168
-0.096117
0.0889657
-0.098711
0.0916362
-0.101337
0.0942804
-0.104045
0.0969198
-0.106854
0.099566
-0.109769
0.102207
-0.112784
0.104836
-0.115895
0.107435
-0.119109
0.110049
-0.122369
-0.125903
0.112584
0.000580619
0.000357716
0.00305544
-0.00342634
0.00810236
-0.0116013
0.015947
-0.0236282
0.0259445
-0.0379499
0.0366999
-0.0523242
0.0467409
-0.0648599
0.0551123
-0.0746592
0.0615498
-0.0817683
0.0663111
-0.0867804
0.0698809
-0.0904294
0.0727288
-0.0933343
0.0751944
-0.095913
0.0774815
-0.0984041
0.0796961
-0.100926
0.0818877
-0.103528
0.0840708
-0.106228
0.0862459
-0.109029
0.0884069
-0.11193
0.0905554
-0.114933
0.0927012
-0.118041
0.0948405
-0.121248
0.0970115
-0.12454
-0.128009
0.0991176
0.000840623
-0.000482907
0.0040629
-0.00664862
0.0101801
-0.0177185
0.0188871
-0.0323352
0.0288669
-0.0479297
0.0384724
-0.0619297
0.0465458
-0.0729333
0.0527037
-0.0808171
0.0571579
-0.0862225
0.0603827
-0.0900052
0.062852
-0.0928987
0.0649165
-0.0953987
0.0667897
-0.0977861
0.0685815
-0.100196
0.070339
-0.102683
0.0720765
-0.105266
0.0737981
-0.10795
0.0755065
-0.110737
0.0772072
-0.113631
0.0789046
-0.11663
0.0805958
-0.119732
0.0822779
-0.122931
0.083959
-0.126221
-0.129629
0.0855792
0.00113829
-0.00162119
0.00510766
-0.010618
0.0120558
-0.0246666
0.0209938
-0.0412733
0.0301635
-0.0570995
0.0381022
-0.0698684
0.044185
-0.079016
0.0485047
-0.0851369
0.0515063
-0.0892241
0.0536784
-0.0921774
0.0553971
-0.0946174
0.0568943
-0.0968959
0.0582889
-0.0991807
0.0596321
-0.101539
0.060943
-0.103994
0.0622301
-0.106553
0.0634976
-0.109217
0.0647486
-0.111988
0.0659844
-0.114866
0.0672049
-0.117851
0.0684127
-0.12094
0.0696111
-0.124129
0.0708048
-0.127415
-0.130793
0.0719681
0.00145101
-0.0030722
0.00607587
-0.0152429
0.0134615
-0.0320522
0.0219862
-0.049798
0.0298404
-0.0649536
0.0360102
-0.0760382
0.0403617
-0.0833675
0.0432663
-0.0880415
0.0452242
-0.091182
0.0466486
-0.0936017
0.0478027
-0.0957714
0.0488244
-0.0979176
0.0497754
-0.100132
0.0506808
-0.102445
0.0515509
-0.104864
0.0523904
-0.107392
0.0532022
-0.110029
0.0539892
-0.112775
0.0547551
-0.115632
0.0555039
-0.1186
0.0562364
-0.121673
0.0569526
-0.124845
0.05765
-0.128113
-0.131458
0.0583158
0.0017493
-0.00482151
0.00684649
-0.02034
0.0142067
-0.0394124
0.0218276
-0.0574189
0.0281712
-0.0712972
0.0327138
-0.0805807
0.0356622
-0.086316
0.0375019
-0.0898811
0.0386896
-0.0923697
0.039536
-0.0944481
0.0402106
-0.0964461
0.0407916
-0.0984986
0.041311
-0.100651
0.0417814
-0.102915
0.0422084
-0.105291
0.0425961
-0.10778
0.0429485
-0.110381
0.04327
-0.113097
0.0435642
-0.115926
0.0438327
-0.118868
0.044077
-0.121917
0.0442974
-0.125066
0.0444898
-0.128305
-0.131626
0.044657
0.00200575
-0.00682726
0.00732435
-0.0256586
0.0142321
-0.0463202
0.0206728
-0.0638596
0.0255275
-0.0761519
0.0286761
-0.0837293
0.0305168
-0.0881567
0.0315407
-0.0909049
0.0321203
-0.0929494
0.0324733
-0.0948011
0.0327035
-0.0966762
0.0328537
-0.0986487
0.0329406
-0.100738
0.0329717
-0.102946
0.0329517
-0.105271
0.0328845
-0.107713
0.0327738
-0.110271
0.0326231
-0.112946
0.032436
-0.115739
0.0322162
-0.118648
0.0319667
-0.121667
0.0316877
-0.124786
0.0313753
-0.127993
0.0310371
-0.131287
-0.000593533
-0.00701273
0.00760627
-0.00209823
-0.0132437
0.0147484
-0.00427272
-0.0150705
0.017245
-0.00693954
-0.0146532
0.01732
-0.00998227
-0.0132979
0.0163406
-0.0133189
-0.011559
0.0148956
-0.016884
-0.00951004
0.0130752
-0.0206195
-0.00703105
0.0107665
-0.0244663
-0.00397523
0.00782207
-0.0283824
-0.000182483
0.0040986
-0.0321819
0.00422359
-0.000424118
-0.0359324
0.00949085
-0.00574034
-0.0394988
0.0155604
-0.011994
-0.0427786
0.0223916
-0.0191117
-0.0456593
0.029893
-0.0270124
-0.0480107
0.0379178
-0.0355664
-0.0496807
0.046258
-0.0445879
-0.0504925
0.0546438
-0.0538321
-0.0502388
0.0627428
-0.0629965
-0.0486666
0.0701652
-0.0717374
-0.0454721
0.0764862
-0.0796807
-0.0403268
0.0812783
-0.0864236
-0.03288
0.0840854
-0.0915322
0.0845535
-0.0227908
-0.0946427
-0.000780868
-0.00623187
-0.00252578
-0.0114988
-0.00490245
-0.0126938
-0.00774735
-0.0118083
-0.0109801
-0.0100651
-0.0145384
-0.00800075
-0.0183533
-0.00569512
-0.0223554
-0.00302898
-0.026443
0.000112419
-0.0304522
0.00382671
-0.0344013
0.00817265
-0.038103
0.0131925
-0.0414154
0.0188728
-0.0441777
0.0251539
-0.0462089
0.0319242
-0.0473056
0.0390145
-0.047241
0.0461934
-0.0457648
0.0531677
-0.0426102
0.0595882
-0.0375095
0.0650645
-0.0301758
0.0691526
-0.0203763
0.0714788
-0.00794928
0.0716584
0.0692403
0.00736393
-0.000844417
-0.00538745
-0.00260704
-0.00973616
-0.00491532
-0.0103855
-0.00762303
-0.00910054
-0.0106797
-0.00700842
-0.0140365
-0.00464394
-0.0176137
-0.0021179
-0.0212978
0.000655146
-0.0249768
0.00379133
-0.0285231
0.00737308
-0.0317943
0.0114438
-0.0346149
0.0160131
-0.0367911
0.021049
-0.0381109
0.0264737
-0.0383454
0.0321587
-0.0372503
0.0379193
-0.0345748
0.043518
-0.0300684
0.0486612
-0.0234903
0.0530101
-0.014642
0.0562162
-0.00340162
0.0579122
0.010414
0.0576632
0.026452
0.0556204
0.0502385
0.0454539
-0.000806733
-0.00458072
-0.00241813
-0.00812476
-0.00445363
-0.00835005
-0.00677647
-0.0067777
-0.00935402
-0.00443087
-0.0121488
-0.00184919
-0.0150752
0.000808519
-0.0180029
0.00358282
-0.020784
0.00657246
-0.0232597
0.00984874
-0.0252547
0.0134389
-0.0265717
0.0173301
-0.0269924
0.0214697
-0.026283
0.0257643
-0.0242018
0.0300774
-0.020507
0.0342246
-0.0149636
0.0379746
-0.00737389
0.0410715
0.00240923
0.043227
0.014555
0.0440704
0.0289084
0.0435587
0.0457387
0.040833
0.0642135
0.0371455
0.0293717
0.0850802
-0.000712631
-0.00386808
-0.00209049
-0.0067469
-0.00375721
-0.00668333
-0.0055687
-0.00496621
-0.00749141
-0.00250816
-0.00950101
0.000160408
-0.0115153
0.00282283
-0.0133948
0.00546234
-0.0149684
0.008146
-0.0160515
0.0109319
-0.0164509
0.0138383
-0.0159617
0.0168409
-0.0143691
0.0198772
-0.011447
0.0228422
-0.00698297
0.0256134
-0.000772455
0.028014
0.00735186
0.0298503
0.0175534
0.03087
0.0298098
0.0309705
0.0442914
0.0295888
0.0605013
0.0273489
0.0788709
0.0224634
0.0981483
0.0178681
0.00844885
0.119071
-0.00061345
-0.00325464
-0.00177101
-0.00558934
-0.00309643
-0.00535791
-0.00441813
-0.00364451
-0.0056808
-0.00124549
-0.0068622
0.00134181
-0.00788996
0.00385058
-0.00863872
0.0062111
-0.00893747
0.00844475
-0.00859421
0.0105886
-0.00741036
0.0126544
-0.0051871
0.0146176
-0.00173062
0.0164207
0.00313393
0.0179776
0.00958868
0.0191586
0.0177684
0.0198343
0.0277627
0.019856
0.0396129
0.0190197
0.0532071
0.0173764
0.0686373
0.0141586
0.0852448
0.0107413
0.103597
0.00411125
0.122296
-0.000831114
-0.0119289
0.142674
-0.000553666
-0.00270097
-0.00158468
-0.00455833
-0.00270322
-0.00423936
-0.00369674
-0.00265099
-0.00446918
-0.000473047
-0.00498087
0.00185349
-0.00517032
0.00404004
-0.00493748
0.00597826
-0.00413692
0.00764419
-0.00259746
0.00904916
-0.000141376
0.0101983
0.00340408
0.0110722
0.00820117
0.0116236
0.014393
0.0117858
0.022083
0.0114686
0.0313387
0.0105787
0.0422124
0.00898228
0.0546429
0.00658922
0.0686717
0.0033476
0.084157
-0.00132668
0.101021
-0.0061223
0.119536
-0.0144038
0.138844
-0.0201391
-0.0334078
0.160323
-0.000559951
-0.00214102
-0.00160105
-0.00351723
-0.00270369
-0.00313672
-0.00361035
-0.00174433
-0.00418827
0.000104874
-0.00435303
0.00201825
-0.00405181
0.00373882
-0.00320494
0.00513139
-0.00170303
0.00614228
0.000591241
0.00675489
0.00382556
0.00696402
0.00814895
0.00674879
0.0137023
0.00607021
0.0206169
0.00487122
0.02901
0.00307549
0.0389859
0.000602841
0.0506627
-0.00269452
0.0640592
-0.00680729
0.079443
-0.0120363
0.096429
-0.0183126
0.115753
-0.0254461
0.136333
-0.0349843
0.159037
-0.0428427
-0.0571192
0.182748
-0.000630348
-0.00151067
-0.00180437
-0.00234321
-0.00306208
-0.00187902
-0.00410955
-0.000696852
-0.00476727
0.000762593
-0.00492908
0.00218005
-0.00451855
0.00332829
-0.00345369
0.00406653
-0.00162646
0.00431505
0.00110324
0.00402519
0.00490439
0.00316287
0.0099689
0.00168429
0.0165065
-0.000467419
0.0247252
-0.00334747
0.0348174
-0.00701671
0.0469663
-0.011546
0.0612355
-0.0169637
0.0777128
-0.0232846
0.0963187
-0.0306421
0.11665
-0.0386443
0.139008
-0.0478038
0.161402
-0.0573786
0.185527
-0.0669673
-0.0787545
0.207162
-0.000723954
-0.000786716
-0.00206823
-0.000998935
-0.00353283
-0.000414415
-0.0047873
0.000557615
-0.00561891
0.00159421
-0.00587147
0.00243261
-0.00541045
0.00286728
-0.00408611
0.00274219
-0.00171377
0.0019427
0.00193883
0.000372587
0.0071304
-0.0020287
0.0141256
-0.00531087
0.023163
-0.00950489
0.0344196
-0.0146041
0.0479623
-0.0205594
0.0637586
-0.0273423
0.0815672
-0.0347724
0.10117
-0.0428874
0.121859
-0.0513316
0.143315
-0.0601002
0.164534
-0.0690226
0.184443
-0.0772873
0.203278
-0.0858027
-0.0927049
0.217229
-0.000767691
-1.90255e-05
-0.00217964
0.000413016
-0.00370275
0.00110869
-0.00497496
0.00182983
-0.00571951
0.00233875
-0.00569562
0.00240872
-0.0046585
0.00183016
-0.00233138
0.000415073
0.00157037
-0.00195904
0.00734039
-0.00539743
0.0152482
-0.00993647
0.0254667
-0.0155294
0.0380279
-0.0220661
0.0528061
-0.0293822
0.0695109
-0.0372643
0.0876842
-0.0455155
0.106751
-0.0538388
0.126028
-0.0621646
0.144683
-0.0699869
0.162202
-0.0776195
0.177367
-0.0841874
0.190509
-0.0904287
0.200468
-0.0957624
-0.0996144
0.207378
-0.000700926
-0.00195605
-0.00322726
-0.00410285
-0.00422585
-0.00324984
-0.000809109
0.00341057
0.0097487
0.0184216
0.0294806
0.0427838
0.0579838
0.0745519
0.0918343
0.109084
0.1256
0.140638
0.153761
0.164533
0.172905
0.179529
0.184116
0.189985
-0.00495168
0.1106
-0.128439
0.0162859
0.0993551
-0.120593
0.0392899
0.0811263
-0.10413
0.062573
0.0564155
-0.0796986
0.0837933
0.027768
-0.0489883
0.101326
-0.0041836
-0.0133492
0.115663
-0.0419883
0.0276518
0.127988
-0.0858544
0.0735292
0.137899
-0.127859
0.117948
0.144329
-0.158203
0.151773
0.147207
-0.1731
0.170223
0.147027
-0.176033
0.176213
0.144846
-0.17412
0.1763
0.142184
-0.171026
0.173688
0.139023
-0.167969
0.17113
0.133687
-0.170619
0.175955
0.125778
-0.183028
0.190938
0.118072
-0.194221
0.201927
0.114456
-0.179764
0.18338
0.116419
-0.12376
0.121797
0.123656
-0.0350456
0.0278078
0.133893
0.059824
-0.0700607
0.144355
0.135773
-0.146234
0.152204
0.184092
-0.191942
0.157526
0.207228
-0.212551
0.161213
0.211098
-0.214785
0.162158
0.212896
-0.213841
0.159069
0.231605
-0.228516
0.152151
0.260449
-0.25353
0.142765
0.267853
-0.258467
0.1334
0.225324
-0.215959
0.127761
0.130166
-0.124527
0.127954
0.00409503
-0.00428747
0.132579
-0.112049
0.107423
0.139226
-0.195587
0.188941
0.144207
-0.237903
0.232922
0.142658
-0.256928
0.258476
0.133833
-0.269779
0.278605
0.121942
-0.270785
0.282676
0.112838
-0.233677
0.242781
0.111115
-0.136836
0.138559
0.117882
-0.0169279
0.0101609
0.126511
0.104873
-0.113502
0.130052
0.189453
-0.192993
0.127027
0.268158
-0.265134
0.122101
0.302968
-0.298042
0.119574
0.276497
-0.27397
0.120086
0.191357
-0.191869
0.122296
0.0258186
-0.0280282
0.122984
-0.102678
0.10199
0.120034
-0.2628
0.26575
0.118026
-0.32366
0.325668
0.117092
-0.271953
0.272886
0.116582
-0.178535
0.179044
0.113315
0.0987541
-0.0954872
0.110886
0.255221
-0.252791
0.109084
0.343725
-0.341923
0.105219
0.30464
-0.300775
0.0986566
-0.0621109
0.0686728
-0.149549
0.15197
0.0285229
0.0894407
0.0506566
0.0772215
0.0729875
0.0587954
0.0939161
0.0354869
0.111779
0.00990472
0.12579
-0.0181939
0.13694
-0.0531382
0.145851
-0.0947659
0.151615
-0.133623
0.153325
-0.159913
0.151663
-0.171438
0.147867
-0.172237
0.142793
-0.169045
0.13771
-0.165943
0.132631
-0.16289
0.125454
-0.163441
0.115266
-0.17284
0.105046
-0.184002
0.0998649
-0.174583
0.102263
-0.126158
0.111794
-0.0445768
0.125594
0.0460243
0.13932
0.122047
0.150172
0.17324
0.158358
0.199043
0.164474
0.204981
0.167842
0.209528
0.167625
0.231822
0.16346
0.264614
0.155616
0.275696
0.146144
0.234797
0.138681
0.137629
0.135859
0.00691694
0.136952
-0.113142
0.140221
-0.198856
0.143009
-0.240691
0.14032
-0.254239
0.130633
-0.260093
0.118297
-0.258449
0.110048
-0.225428
0.109941
-0.13673
0.118075
-0.0250612
0.12733
0.0956168
0.131234
0.18555
0.129007
0.270385
0.12415
0.307825
0.121219
0.279428
0.121234
0.191341
0.12315
0.0239029
0.123546
-0.103073
0.119382
-0.258636
0.117135
-0.321413
0.11604
-0.270858
0.116315
-0.17881
0.11432
0.100749
0.112448
0.257093
0.111472
0.344701
0.106577
0.309535
0.0988833
-0.0544174
-0.147372
0.0659195
0.068975
0.0862747
0.0568663
0.105481
0.0395892
0.122362
0.0186057
0.136183
-0.00391601
0.146902
-0.0289134
0.155381
-0.0616165
0.161352
-0.100738
0.163419
-0.135689
0.160938
-0.157432
0.155322
-0.165822
0.148536
-0.16545
0.141199
-0.161709
0.134011
-0.158756
0.127476
-0.156355
0.119368
-0.155333
0.107645
-0.161118
0.0950453
-0.171402
0.0878688
-0.167406
0.0902066
-0.128496
0.101341
-0.0557113
0.117712
0.0296531
0.134207
0.105552
0.147958
0.159489
0.158949
0.188052
0.167586
0.196345
0.173635
0.203479
0.176593
0.228864
0.175509
0.265697
0.169544
0.281661
0.160104
0.244238
0.150744
0.146989
0.144623
0.0130378
0.142131
-0.11065
0.141872
-0.198597
0.142352
-0.241171
0.138874
-0.250761
0.128726
-0.249944
0.115898
-0.245621
0.108104
-0.217634
0.10937
-0.137996
0.118553
-0.0342442
0.128568
0.0856025
0.133114
0.181004
0.13179
0.271708
0.126902
0.312713
0.123321
0.283008
0.122744
0.191919
0.1244
0.0222465
0.124664
-0.103338
0.119327
-0.253298
0.11664
-0.318726
0.115415
-0.269633
0.116431
-0.179826
0.115835
0.101345
0.114537
0.258391
0.114356
0.344882
0.108655
0.315236
0.0999107
-0.0456728
-0.145234
0.102815
0.0512398
0.119638
0.0400434
0.13459
0.0246377
0.146892
0.00630396
0.156765
-0.0137891
0.164989
-0.0371381
0.171778
-0.0684054
0.175101
-0.10406
0.173226
-0.133815
0.16672
-0.150926
0.157724
-0.156826
0.148504
-0.156231
0.139673
-0.152878
0.131056
-0.150139
0.123217
-0.148516
0.11488
-0.146995
0.103043
-0.149281
0.0889204
-0.157279
0.0793526
-0.157838
0.0803994
-0.129543
0.0919491
-0.067261
0.109966
0.0116365
0.12867
0.0868479
0.145046
0.143113
0.158697
0.174401
0.169833
0.185208
0.178708
0.194605
0.18516
0.222412
0.187563
0.263293
0.183927
0.285298
0.174704
0.253461
0.16349
0.158202
0.154059
0.022469
0.14811
-0.104701
0.144304
-0.194791
0.142171
-0.239038
0.138029
-0.246619
0.127912
-0.239826
0.114679
-0.232389
0.106865
-0.20982
0.109021
-0.140152
0.119172
-0.0443954
0.130144
0.0746306
0.135608
0.175541
0.135236
0.27208
0.130271
0.317679
0.125897
0.287383
0.124611
0.193205
0.126024
0.0208329
0.126317
-0.10363
0.119884
-0.246866
0.116572
-0.315413
0.115205
-0.268266
0.11695
-0.181572
0.117813
0.100483
0.117108
0.259095
0.117716
0.344274
0.111429
0.321523
0.101714
-0.0359576
-0.143001
0.133623
0.0366881
0.146678
0.026988
0.157572
0.0137442
0.166503
-0.00262731
0.173631
-0.0209174
0.180329
-0.0438362
0.185396
-0.0734716
0.185707
-0.104372
0.179902
-0.128009
0.169874
-0.140897
0.15838
-0.145333
0.147475
-0.145325
0.137804
-0.143207
0.128686
-0.14102
0.12017
-0.14
0.111811
-0.138637
0.100748
-0.138218
0.0862613
-0.142792
0.0743836
-0.145961
0.0730402
-0.128199
0.083746
-0.0779668
0.102392
-0.00700938
0.122654
0.0665855
0.141199
0.124569
0.157079
0.15852
0.170496
0.171791
0.182215
0.182886
0.192248
0.21238
0.198482
0.257059
0.197991
0.285789
0.189873
0.261578
0.176805
0.17127
0.163955
0.0353195
0.154596
-0.0953421
0.147349
-0.187544
0.142425
-0.234115
0.137621
-0.241815
0.128005
-0.23021
0.114555
-0.218939
0.106242
-0.201507
0.108728
-0.142638
0.119702
-0.0553693
0.13186
0.0624726
0.138633
0.168768
0.139439
0.271273
0.1344
0.322717
0.129069
0.292714
0.126897
0.195378
0.127997
0.019733
0.128462
-0.104095
0.121035
-0.239439
0.116929
-0.311307
0.115381
-0.266719
0.117829
-0.184019
0.12019
0.098121
0.120106
0.259179
0.121508
0.342872
0.114859
0.328173
0.104265
-0.0253642
-0.140573
0.154654
0.0247078
0.165291
0.0163509
0.174081
0.00495508
0.181525
-0.0100718
0.187932
-0.0273242
0.193663
-0.0495672
0.196202
-0.0760111
0.192713
-0.100882
0.183264
-0.118561
0.170698
-0.128332
0.157805
-0.132439
0.146007
-0.133528
0.13585
-0.133049
0.126638
-0.131808
0.117862
-0.131224
0.109776
-0.130551
0.100218
-0.12866
0.0866842
-0.129258
0.0730488
-0.132325
0.0683343
-0.123485
0.0769109
-0.0865434
0.0947072
-0.0248057
0.116011
0.0452821
0.136196
0.104383
0.15389
0.140827
0.169269
0.156411
0.183524
0.168631
0.197032
0.198872
0.207207
0.246884
0.210013
0.282983
0.203735
0.267856
0.190182
0.184824
0.174097
0.0514042
0.16133
-0.0825753
0.150829
-0.177043
0.143009
-0.226295
0.137342
-0.236148
0.128641
-0.221509
0.115352
-0.20565
0.106151
-0.192306
0.10831
-0.144798
0.119915
-0.0669744
0.133512
0.0488762
0.141923
0.160356
0.144086
0.269111
0.139134
0.327669
0.132893
0.298954
0.129672
0.1986
0.130295
0.0191092
0.131033
-0.104833
0.122743
-0.231148
0.117689
-0.306253
0.115903
-0.264933
0.119005
-0.187121
0.122877
0.094249
0.12344
0.258616
0.125664
0.340648
0.118887
0.33495
0.107529
-0.0140063
-0.13787
0.170716
0.0143138
0.180263
0.00680421
0.188961
-0.00374317
0.195827
-0.0169372
0.201529
-0.0330264
0.204977
-0.0530152
0.203448
-0.0744824
0.195579
-0.0930133
0.18309
-0.106072
0.169091
-0.114333
0.155817
-0.119165
0.143951
-0.121662
0.133731
-0.12283
0.12481
-0.122888
0.116181
-0.122594
0.108091
-0.122461
0.100053
-0.120622
0.0889162
-0.118122
0.0751113
-0.11852
0.0667486
-0.115122
0.0713961
-0.0911909
0.0873509
-0.0407605
0.108826
0.0238071
0.130094
0.0831146
0.149066
0.121855
0.165886
0.139592
0.182276
0.152241
0.198949
0.182199
0.213031
0.232802
0.219775
0.276239
0.216094
0.271537
0.202706
0.198212
0.184146
0.0699641
0.167884
-0.0663131
0.154441
-0.1636
0.143853
-0.215706
0.137007
-0.229301
0.129436
-0.213938
0.116845
-0.193059
0.106573
-0.182035
0.107699
-0.145923
0.119616
-0.0788918
0.134823
0.0336695
0.145301
0.149878
0.149278
0.265134
0.144693
0.332254
0.137554
0.306093
0.133033
0.203121
0.132923
0.0192191
0.133953
-0.105864
0.124952
-0.222147
0.118818
-0.300119
0.116724
-0.262839
0.12041
-0.190808
0.125787
0.0888719
0.127024
0.25738
0.130106
0.337567
0.123441
0.341615
0.111459
-0.00202428
-0.134844
0.190945
0.00611742
0.19886
-0.0011106
0.205664
-0.010547
0.210271
-0.021545
0.212781
-0.0355363
0.211543
-0.0517765
0.20489
-0.0678299
0.193353
-0.0814765
0.179435
-0.0921536
0.165438
-0.100335
0.152614
-0.106341
0.141239
-0.110287
0.131248
-0.112839
0.122672
-0.114311
0.114676
-0.114598
0.106794
-0.114579
0.0996165
-0.113445
0.0912784
-0.109783
0.0794218
-0.106664
0.0686517
-0.104352
0.0682035
-0.0907427
0.0806694
-0.0532264
0.101196
0.00328008
0.122945
0.061366
0.142686
0.102114
0.160411
0.121866
0.178321
0.134331
0.19755
0.16297
0.21521
0.215142
0.225569
0.26588
0.224437
0.272669
0.211972
0.210677
0.192369
0.0895673
0.173568
-0.0475128
0.157794
-0.147825
0.144805
-0.202718
0.136468
-0.220964
0.129999
-0.20747
0.118714
-0.181774
0.107508
-0.170829
0.106939
-0.145353
0.118667
-0.0906197
0.135526
0.0168101
0.148323
0.137081
0.154408
0.259049
0.150725
0.335937
0.143019
0.313799
0.137051
0.209089
0.135886
0.0203833
0.137136
-0.107113
0.127595
-0.212607
0.12028
-0.292804
0.117791
-0.26035
0.121971
-0.194987
0.128816
0.0820271
0.130743
0.255452
0.134724
0.333587
0.128427
0.347912
0.115995
0.0104077
-0.131471
0.211763
0.00151717
0.2159
-0.00524824
0.218218
-0.0128646
0.218429
-0.0217559
0.215972
-0.0330795
0.209672
-0.0454766
0.199432
-0.0575903
0.186721
-0.0687655
0.17339
-0.0788224
0.160491
-0.0874358
0.148528
-0.0943786
0.137842
-0.0996004
0.128347
-0.103345
0.120049
-0.106013
0.112679
-0.107228
0.105378
-0.107278
0.0985827
-0.106649
0.0923449
-0.103546
0.0838722
-0.0981911
0.0733574
-0.0938375
0.068389
-0.0857742
0.0757973
-0.0606348
0.0936858
-0.0146084
0.115138
0.0399142
0.135214
0.0820379
0.153267
0.103813
0.171725
0.115873
0.19277
0.141924
0.213978
0.193935
0.228693
0.251165
0.231357
0.270005
0.220473
0.221561
0.19967
0.11037
0.178325
-0.0261675
0.160638
-0.130138
0.145747
-0.187827
0.135685
-0.210902
0.130023
-0.201807
0.120559
-0.17231
0.108874
-0.159144
0.10614
-0.14262
0.116949
-0.101429
0.135333
-0.00157316
0.150863
0.121551
0.159647
0.250264
0.157448
0.338136
0.149327
0.32192
0.14177
0.216647
0.139117
0.0230358
0.140477
-0.108473
0.13059
-0.202719
0.122029
-0.284243
0.119041
-0.257362
0.123617
-0.199564
0.131893
0.0737505
0.134528
0.252818
0.139426
0.328688
0.133755
0.353583
0.121058
0.0231048
-0.127771
0.218777
-3.10678e-05
0.218802
-0.00527324
0.217034
-0.0110969
0.213595
-0.0183165
0.207779
-0.0272636
0.199345
-0.0370425
0.18894
-0.0471852
0.177563
-0.0573889
0.165942
-0.0672011
0.154517
-0.0760115
0.143644
-0.0835053
0.133734
-0.0896905
0.124875
-0.0944851
0.11692
-0.0980582
0.10995
-0.100258
0.103437
-0.100766
0.097059
-0.100271
0.091729
-0.0982157
0.0863793
-0.0928414
0.0786652
-0.0861234
0.0718577
-0.0789667
0.0739098
-0.0626868
0.0871749
-0.0278736
0.106938
0.0201515
0.126635
0.0623409
0.144488
0.0859599
0.162988
0.0973734
0.184787
0.120125
0.207946
0.170777
0.226099
0.233012
0.232456
0.263647
0.224
0.230017
0.203939
0.130431
0.181784
-0.00401281
0.162699
-0.111053
0.146432
-0.171559
0.134551
-0.199021
0.129243
-0.1965
0.121947
-0.165014
0.110439
-0.147636
0.105407
-0.137587
0.114542
-0.110564
0.133956
-0.0209876
0.152137
0.10337
0.163956
0.238445
0.164185
0.337907
0.156386
0.329719
0.147132
0.225902
0.142711
0.0274567
0.143887
-0.109649
0.133845
-0.192678
0.123999
-0.274397
0.120405
-0.253768
0.125275
-0.204433
0.134917
0.0641083
0.138245
0.249489
0.144074
0.32286
0.13929
0.358367
0.126584
0.0358112
-0.123779
0.207454
-0.000107306
0.206014
-0.00383324
0.203167
-0.00825021
0.198979
-0.0141283
0.193126
-0.0214109
0.185741
-0.0296569
0.177195
-0.0386395
0.167796
-0.0479895
0.157808
-0.0572136
0.147667
-0.0658701
0.137845
-0.0736835
0.128698
-0.0805436
0.120416
-0.0862033
0.112897
-0.0905392
0.106177
-0.0935378
0.100272
-0.0948611
0.0946549
-0.0946538
0.0896991
-0.0932598
0.0859934
-0.0891357
0.0816974
-0.0818275
0.0762289
-0.0734982
0.0749076
-0.0613655
0.0832952
-0.0362612
0.100138
0.0033087
0.118519
0.0439602
0.135436
0.0690425
0.152756
0.0800536
0.174428
0.0984519
0.200249
0.144956
0.22259
0.210671
0.232642
0.253595
0.226758
0.235901
0.20752
0.149669
0.183154
0.020353
0.163337
-0.0912364
0.146533
-0.154755
0.133085
-0.185574
0.127591
-0.191005
0.122588
-0.160011
0.111971
-0.13702
0.104791
-0.130407
0.111366
-0.117139
0.131377
-0.0409986
0.152554
0.0821936
0.167881
0.223118
0.170858
0.33493
0.163749
0.336828
0.152994
0.236657
0.146336
0.0341145
0.147199
-0.110512
0.137278
-0.182757
0.126158
-0.263277
0.121825
-0.249435
0.126862
-0.209471
0.137869
0.0531013
0.141881
0.245477
0.148607
0.316134
0.144949
0.362025
0.132481
0.0482789
-0.119569
0.189841
3.61711e-05
0.18863
-0.00262148
0.186565
-0.00618588
0.18342
-0.0109824
0.178948
-0.0169393
0.173237
-0.0239462
0.16637
-0.0317723
0.158482
-0.0401017
0.149873
-0.0486048
0.140978
-0.0569744
0.132219
-0.0649254
0.123884
-0.072208
0.11615
-0.078469
0.109096
-0.0834852
0.102707
-0.0871489
0.0971098
-0.0892642
0.0921531
-0.0896971
0.0876381
-0.0887448
0.0842922
-0.0857898
0.0819387
-0.079474
0.0790716
-0.0706311
0.0773166
-0.0596104
0.0817851
-0.0407297
0.0938044
-0.00871062
0.110069
0.0276954
0.125543
0.0535686
0.141113
0.0644841
0.160569
0.0789958
0.185341
0.120185
0.210237
0.185774
0.226157
0.237675
0.225372
0.236686
0.208447
0.166594
0.185134
0.043666
0.16436
-0.0704618
0.147034
-0.137429
0.132138
-0.170678
0.125705
-0.184572
0.12269
-0.156997
0.113489
-0.127818
0.104542
-0.121459
0.10823
-0.120828
0.127202
-0.0599702
0.150425
0.0589707
0.169582
0.20396
0.176667
0.327845
0.171656
0.341839
0.159632
0.248681
0.150595
0.0431513
0.150551
-0.110468
0.141007
-0.173213
0.128547
-0.250817
0.123385
-0.244272
0.128402
-0.214488
0.140608
0.0408956
0.145261
0.240823
0.15286
0.308536
0.150558
0.364327
0.138689
0.0601481
-0.115203
0.208612
0.000164719
-0.20874
0.209271
-0.0032804
0.209957
-0.00687189
0.210243
-0.0112682
0.2099
-0.0165968
0.208776
-0.0228224
0.206775
-0.0297711
0.203863
-0.0371898
0.200091
-0.044833
0.195538
-0.0524208
0.190268
-0.0596559
0.18437
-0.0663094
0.177893
-0.0719928
0.170977
-0.0765685
0.163743
-0.0799153
0.156256
-0.081777
0.148742
-0.0821828
0.141087
-0.0810903
0.133246
-0.0779491
0.125748
-0.0719758
0.118162
-0.0630447
0.109532
-0.0509801
0.102212
-0.0334102
0.100571
-0.00706998
0.104887
0.0233794
0.113938
0.0445184
0.125154
0.0532673
0.13652
0.0676298
0.148233
0.108472
0.161222
0.172785
0.174158
0.224739
0.184939
0.225905
0.192166
0.159368
0.193885
0.0419473
0.191019
-0.0675962
0.182779
-0.129189
0.169177
-0.157076
0.158355
-0.17375
0.149965
-0.148607
0.137232
-0.115085
0.124085
-0.108313
0.119632
-0.116374
0.126889
-0.0672267
0.136724
0.0491349
0.145802
0.194882
0.150158
0.32349
0.151914
0.340083
0.152731
0.247864
0.153931
0.0419507
0.158405
-0.114941
0.150806
-0.165614
0.137207
-0.237218
0.128195
-0.23526
0.126244
-0.212538
0.131314
0.0358259
0.133121
0.239017
0.140118
0.301539
0.141202
0.363242
0.132134
0.0692161
-0.109886
0.217972
6.03773e-05
-0.217867
0.218045
-0.00335352
0.218262
-0.00708898
0.218227
-0.0112329
0.217677
-0.016047
0.216423
-0.0215689
0.214363
-0.0277107
0.211457
-0.0342834
0.207689
-0.0410658
0.203089
-0.0478203
0.197685
-0.0542517
0.191584
-0.0602084
0.184937
-0.0653458
0.177894
-0.0695262
0.170689
-0.0727097
0.163396
-0.0744842
0.156075
-0.0748616
0.148864
-0.0738793
0.141583
-0.0706686
0.134442
-0.0648346
0.128095
-0.0566977
0.121899
-0.0447844
0.115915
-0.0274257
0.112696
-0.00385184
0.115214
0.0208614
0.122399
0.0373336
0.132357
0.0433099
0.143159
0.056827
0.155384
0.0962474
0.169719
0.15845
0.184023
0.210435
0.196227
0.213701
0.2049
0.150694
0.207957
0.0388906
0.204117
-0.0637564
0.194832
-0.119904
0.180179
-0.142422
0.168215
-0.161787
0.160139
-0.14053
0.1484
-0.103346
0.134673
-0.0945863
0.128624
-0.110325
0.135476
-0.0740795
0.146914
0.037697
0.158604
0.183192
0.165703
0.316391
0.169364
0.336422
0.170304
0.246924
0.170167
0.0420874
0.173511
-0.118285
0.164634
-0.156737
0.148961
-0.221545
0.138622
-0.224921
0.136811
-0.210727
0.142621
0.0300168
0.144539
0.237098
0.152208
0.293869
0.154673
0.360778
0.145767
0.078122
-0.104053
0.226825
-0.000213532
-0.226551
0.226889
-0.00341759
0.226851
-0.00705165
0.226579
-0.0109604
0.225872
-0.0153407
0.224558
-0.020254
0.222525
-0.0256784
0.219733
-0.0314913
0.216159
-0.0374911
0.211832
-0.0434934
0.206806
-0.0492257
0.201162
-0.0545652
0.195053
-0.0592361
0.188578
-0.063051
0.181841