/*--------------------------------*- C++ -*----------------------------------*\
| =========                 |                                                 |
| \\      /  F ield         | OpenFOAM: The Open Source CFD Toolbox           |
|  \\    /   O peration     | Version:  2512                                  |
|   \\  /    A nd           | Website:  www.openfoam.com                      |
|    \\/     M anipulation  |                                                 |
\*---------------------------------------------------------------------------*/
FoamFile
{
    version     2.0;
    format      ascii;
    arch        "LSB;label=32;scalar=64";
    class       surfaceScalarField;
    location    "186.05";
    object      phi;
}
// * * * * * * * * * * * * * * * * * * * * * * * * * * * * * * * * * * * * * //

dimensions      [0 3 -1 0 0 0 0];

oriented        oriented;

internalField   nonuniform List<scalar> 
26232
(
-0.000399838
0.00218133
-0.00178149
-0.000776234
0.00434037
-0.00396398
-0.000503063
0.00477981
-0.00505298
0.000987834
0.00353006
-0.00502095
0.00427807
0.000394988
-0.00368522
0.00989609
-0.00487284
-0.000745177
0.018296
-0.0124335
0.00403354
0.02959
-0.0221461
0.0108521
0.04345
-0.0334993
0.0196394
0.059075
-0.045689
0.0300639
0.0753215
-0.057803
0.0415565
0.0909359
-0.0690167
0.0534022
0.104814
-0.0787407
0.0648626
0.116224
-0.0867032
0.0752933
0.124938
-0.0929576
0.0842433
0.131231
-0.0978186
0.0915262
0.135721
-0.101732
0.0972412
0.139095
-0.105114
0.10174
0.141907
-0.108238
0.105426
0.144346
-0.111251
0.108812
0.146587
-0.114032
0.111791
0.148375
-0.116948
0.11516
0.149376
-0.11875
0.117749
-0.121737
0.121768
0.149346
-0.000203119
0.00238445
-9.91832e-05
0.00423644
0.000961273
0.00371935
0.0036456
0.000845733
0.00859776
-0.00455717
0.0163386
-0.0126136
0.0270236
-0.0231185
0.040254
-0.0353765
0.0550769
-0.0483222
0.0702062
-0.0608182
0.0843502
-0.071947
0.0965182
-0.0811847
0.106217
-0.0884391
0.113488
-0.0939741
0.118785
-0.0982555
0.12274
-0.101773
0.12591
-0.104902
0.128649
-0.107853
0.131119
-0.110708
0.133356
-0.113488
0.135506
-0.116182
0.137417
-0.118859
0.139901
-0.121233
-0.124443
0.142606
8.51288e-06
0.00237594
0.000680995
0.00356395
0.00271874
0.0016816
0.00684165
-0.00327717
0.0136773
-0.0113929
0.0234876
-0.0224239
0.0358809
-0.0355119
0.0497995
-0.0492951
0.0638315
-0.0623542
0.0766536
-0.0736403
0.0873829
-0.0826763
0.0957281
-0.0895298
0.101925
-0.094636
0.106517
-0.0985657
0.110089
-0.101828
0.113085
-0.104769
0.115755
-0.107572
0.11822
-0.110319
0.120543
-0.11303
0.122796
-0.115741
0.124996
-0.118383
0.127222
-0.121085
0.129482
-0.123493
-0.126305
0.131344
0.000200951
0.00217498
0.00148823
0.00227667
0.00461782
-0.00144798
0.0103209
-0.00898023
0.0190209
-0.0200929
0.0304326
-0.0338355
0.0434548
-0.0485341
0.0565586
-0.0623988
0.0683653
-0.0741609
0.0780546
-0.0833296
0.0854662
-0.0900879
0.0909411
-0.0950047
0.0950388
-0.0987337
0.0982836
-0.101811
0.101039
-0.104583
0.103508
-0.107239
0.105804
-0.109867
0.107986
-0.112501
0.110109
-0.115154
0.112177
-0.117809
0.114259
-0.120465
0.116331
-0.123156
0.11855
-0.125712
-0.12877
0.121016
0.00039582
0.00177916
0.00234888
0.000323611
0.0066694
-0.0057685
0.0139716
-0.0162824
0.0241934
-0.0303148
0.036293
-0.0459352
0.0486332
-0.0608743
0.0597225
-0.0734881
0.0687188
-0.0831572
0.075505
-0.0901158
0.0804594
-0.0950424
0.0841366
-0.0986819
0.0870295
-0.101627
0.0894779
-0.104259
0.0916825
-0.106788
0.0937547
-0.109311
0.0957516
-0.111864
0.0977057
-0.114455
0.0996269
-0.117075
0.101543
-0.119725
0.103478
-0.1224
0.105429
-0.125108
0.107503
-0.127786
-0.130689
0.109422
0.000621962
0.0011572
0.00331736
-0.00237179
0.00887877
-0.0113299
0.0175761
-0.0249797
0.0285992
-0.0413379
0.0402564
-0.0575923
0.0508735
-0.0714914
0.0594771
-0.0820917
0.0659009
-0.089581
0.070513
-0.0947279
0.0738646
-0.098394
0.0764491
-0.101266
0.0786109
-0.103788
0.0805538
-0.106202
0.0823828
-0.108617
0.0841433
-0.111071
0.085855
-0.113576
0.0875279
-0.116128
0.0891807
-0.118728
0.090829
-0.121373
0.0924917
-0.124063
0.0941893
-0.126805
0.0959682
-0.129565
-0.132524
0.097803
0.000895352
0.000261851
0.00439642
-0.00587286
0.0111252
-0.0180587
0.0207289
-0.0345834
0.0316262
-0.0522352
0.0419188
-0.0678849
0.050373
-0.0799455
0.0566641
-0.0883828
0.0610979
-0.0940148
0.0642193
-0.0978493
0.066539
-0.100714
0.0684215
-0.103149
0.0700807
-0.105448
0.071623
-0.107744
0.0730944
-0.110088
0.0745165
-0.112494
0.0759039
-0.114963
0.0772719
-0.117496
0.078633
-0.120089
0.0800011
-0.122741
0.0813928
-0.125455
0.0828103
-0.128223
0.084289
-0.131044
-0.133975
0.0857396
0.00120929
-0.000947437
0.00552279
-0.0101864
0.013165
-0.0257009
0.0229883
-0.0444066
0.032945
-0.062192
0.041415
-0.0763549
0.0477761
-0.0863067
0.0521952
-0.0928019
0.0551913
-0.097011
0.057302
-0.0999599
0.0589263
-0.102338
0.0603026
-0.104525
0.0615508
-0.106696
0.0627245
-0.108918
0.063848
-0.111211
0.0649347
-0.11358
0.0659942
-0.116023
0.0670347
-0.118536
0.0680663
-0.12112
0.0691014
-0.123776
0.0701492
-0.126503
0.0712264
-0.1293
0.0723517
-0.132169
-0.135122
0.0734986
0.0015457
-0.00249314
0.0065869
-0.0152276
0.0147221
-0.0338361
0.0240807
-0.0537653
0.0326048
-0.0707161
0.0392024
-0.0829524
0.0437771
-0.0908814
0.0467715
-0.0957963
0.0487448
-0.0989843
0.0501448
-0.10136
0.05125
-0.103443
0.0522043
-0.105479
0.0530728
-0.107564
0.053883
-0.109728
0.0546481
-0.111977
0.055377
-0.114309
0.0560782
-0.116724
0.0567622
-0.11922
0.0574399
-0.121798
0.0581209
-0.124457
0.0588164
-0.127198
0.0595337
-0.130017
0.0602775
-0.132913
-0.135871
0.0610263
0.00187397
-0.00436711
0.00745926
-0.0208129
0.0155921
-0.041969
0.0239796
-0.0621527
0.0308982
-0.0776347
0.0357974
-0.0878516
0.0389369
-0.0940209
0.0408668
-0.0977262
0.0420912
-0.100209
0.0429464
-0.102215
0.0436137
-0.104111
0.0441763
-0.106042
0.0446688
-0.108057
0.0451068
-0.110166
0.0454999
-0.11237
0.0458566
-0.114666
0.0461855
-0.117053
0.0464949
-0.11953
0.0467934
-0.122097
0.0470904
-0.124754
0.047394
-0.127502
0.0477137
-0.130337
0.0480558
-0.133255
-0.136237
0.0484217
0.00216145
-0.00652855
0.0080288
-0.0266802
0.0157037
-0.0496438
0.022842
-0.069291
0.0281946
-0.0829873
0.0316484
-0.0913054
0.0336613
-0.0960339
0.0347826
-0.0988474
0.0354226
-0.100849
0.0358178
-0.10261
0.0360805
-0.104373
0.0362578
-0.106219
0.0363693
-0.108168
0.0364258
-0.110223
0.0364352
-0.112379
0.0364049
-0.114636
0.0363424
-0.11699
0.0362559
-0.119443
0.0361544
-0.121995
0.0360468
-0.124647
0.035942
-0.127397
0.0358451
-0.13024
0.0357546
-0.133164
-0.136154
0.0356723
0.00238312
-0.00891168
0.00823895
-0.032536
0.0151211
-0.056526
0.0209162
-0.0750861
0.0248477
-0.0869188
0.0271068
-0.0935646
0.0282302
-0.0971573
0.0287076
-0.0993248
0.0288527
-0.100994
0.0288241
-0.102582
0.0286899
-0.104239
0.028477
-0.106006
0.028198
-0.107889
0.0278608
-0.109885
0.0274723
-0.111991
0.0270392
-0.114202
0.0265687
-0.11652
0.0260679
-0.118942
0.0255437
-0.121471
0.0250045
-0.124108
0.024459
-0.126851
0.0239158
-0.129697
0.0233809
-0.132629
0.0228683
-0.135642
0.000275395
0.00542446
-0.00569985
0.000414825
0.0145417
-0.0146811
2.36009e-05
0.0215276
-0.0211364
-0.000965646
0.0263511
-0.0253618
-0.00237304
0.029642
-0.0282346
-0.00396438
0.0321922
-0.0306008
-0.00553309
0.0345342
-0.0329654
-0.00691952
0.0368522
-0.0354657
-0.00798966
0.039076
-0.0380058
-0.00861032
0.0410079
-0.0403873
-0.0086399
0.0424074
-0.0423779
-0.00793425
0.0430334
-0.043739
-0.00636066
0.0426665
-0.0442401
-0.00381344
0.0411283
-0.0436755
-0.000212682
0.0382887
-0.0418895
0.00449896
0.034077
-0.0387886
0.0102518
0.0285424
-0.0342953
0.016972
0.0217299
-0.02845
0.0245314
0.0137378
-0.0212972
0.0326818
0.00475845
-0.0129089
0.0413728
-0.00542437
-0.00326661
0.050461
-0.0165418
0.00745366
0.0598679
-0.0290236
0.0196166
-0.043271
0.0698015
0.0333374
0.000605322
0.00481914
0.00153126
0.0136157
0.00218268
0.0208762
0.00234913
0.0261846
0.00212675
0.0298644
0.00176734
0.0325516
0.00153285
0.0347687
0.00163294
0.0367521
0.00222581
0.0384831
0.00343956
0.0397942
0.0053867
0.0404603
0.00816536
0.0402547
0.0118518
0.03898
0.0164918
0.0364882
0.0220889
0.0326917
0.0285961
0.0275698
0.0359644
0.0211741
0.0440615
0.0136328
0.0527351
0.00506424
0.0619164
-0.00442288
0.0713856
-0.0148936
0.0809995
-0.0261556
0.0908356
-0.0388597
-0.0535658
0.10113
0.000833642
0.00398549
0.00242229
0.0120271
0.00407279
0.0192257
0.00541976
0.0248376
0.00644753
0.0288366
0.0073682
0.0316309
0.00846433
0.0336725
0.00998603
0.0352304
0.0121175
0.0363516
0.014985
0.0369267
0.0186727
0.0367726
0.0232315
0.0356959
0.0286801
0.0335315
0.0350026
0.0301658
0.0421494
0.0255448
0.0500265
0.0196927
0.0585281
0.0126725
0.0674378
0.00472304
0.0768325
-0.00433041
0.0863142
-0.0139046
0.0960272
-0.0246065
0.105934
-0.0360622
0.116425
-0.0493508
-0.064855
0.127714
0.000930368
0.00305513
0.00295081
0.0100066
0.00540099
0.0167755
0.00781869
0.0224199
0.0100527
0.0266026
0.0122185
0.0294651
0.014565
0.031326
0.0173526
0.0324428
0.020786
0.0329182
0.0249983
0.0327144
0.0300582
0.0317126
0.0359824
0.0297716
0.0427437
0.0267702
0.0502735
0.022636
0.0584694
0.0173489
0.0671776
0.0109845
0.076239
0.00361109
0.0856022
-0.00464012
0.0951385
-0.0138667
0.104739
-0.0235049
0.114945
-0.0348123
0.125824
-0.0469422
0.13802
-0.0615467
-0.077861
0.151026
0.000896539
0.00215859
0.0030574
0.00784578
0.00597079
0.0138621
0.00917487
0.0192159
0.0124148
0.0233627
0.015681
0.0261989
0.0191335
0.0278735
0.0229931
0.0285832
0.0274587
0.0284526
0.0326661
0.027507
0.038679
0.0256997
0.045495
0.0229556
0.0530546
0.0192106
0.0612496
0.014441
0.0699338
0.00866461
0.0788969
0.00202147
0.088232
-0.00572407
0.0976875
-0.0140956
0.107553
-0.0237325
0.118065
-0.0340162
0.130003
-0.0467507
0.143153
-0.0600919
0.157826
-0.07622
-0.092076
0.172041
0.000757163
0.00140142
0.00276726
0.00583569
0.00573022
0.0108992
0.00928283
0.0156632
0.0131428
0.0195027
0.0171989
0.0221427
0.0214993
0.0235732
0.0261812
0.0239013
0.0313963
0.0232375
0.037258
0.0216453
0.0438169
0.0191408
0.0510562
0.0157163
0.0589016
0.0113652
0.0672367
0.00610598
0.0759309
-2.95665e-05
0.0851248
-0.00717249
0.0947222
-0.0153214
0.105084
-0.0244577
0.11669
-0.035338
0.129902
-0.0472287
0.144885
-0.0617334
0.160651
-0.0758584
0.176521
-0.0920901
-0.104932
0.189378
0.000545015
0.000856409
0.00216591
0.00421479
0.00477994
0.00828514
0.00818029
0.0122629
0.0121367
0.0155463
0.0164965
0.017783
0.0212177
0.018852
0.0263429
0.0187761
0.0319483
0.0176321
0.0380987
0.0154949
0.0448222
0.0124173
0.0521086
0.00842991
0.0599294
0.00354445
0.0683624
-0.00232698
0.0775656
-0.00923281
0.087715
-0.0173219
0.099231
-0.0268374
0.112544
-0.0377709
0.127687
-0.050481
0.144393
-0.0639345
0.161498
-0.0788386
0.177501
-0.0918617
0.190895
-0.105484
-0.113378
0.19934
0.000287149
0.00056926
0.00135902
0.00314292
0.0033225
0.00632166
0.00613398
0.00945141
0.00966138
0.0120189
0.013771
0.0136733
0.0183806
0.0142424
0.0234679
0.0136888
0.0290539
0.0120461
0.0351853
0.00936349
0.0419382
0.00566442
0.0494406
0.000927543
0.0579379
-0.00495291
0.0677085
-0.0120976
0.0791254
-0.0206497
0.0925085
-0.030705
0.1079
-0.0422289
0.125052
-0.0549226
0.142982
-0.0684118
0.160601
-0.0815535
0.175996
-0.0942329
0.188071
-0.103937
0.195579
-0.112992
-0.116335
0.198537
5.02968e-06
0.00056423
0.000456721
0.00269123
0.00161418
0.0051642
0.00357479
0.0074908
0.00631396
0.00927971
0.00976422
0.0102231
0.013873
0.0101335
0.0186432
0.00891867
0.0241577
0.00653157
0.0305826
0.0029386
0.038198
-0.00195097
0.0473615
-0.008236
0.0584263
-0.0160177
0.0716542
-0.0253254
0.087058
-0.0360536
0.104306
-0.047953
0.122601
-0.060524
0.140847
-0.0731687
0.157522
-0.0850862
0.171467
-0.0954986
0.181325
-0.104091
0.187274
-0.109887
0.189374
-0.115093
-0.116451
0.18949
-0.000262777
0.000827007
-0.000392959
0.00282141
-2.87209e-06
0.00477411
0.00110712
0.00638081
0.0030437
0.00734313
0.00586098
0.0074058
0.00964273
0.00635179
0.0145537
0.0040077
0.0209053
0.00018003
0.0289873
-0.00514341
0.0391883
-0.012152
0.0517435
-0.0207913
0.0666347
-0.0309088
0.0835007
-0.0421915
0.101604
-0.0541573
0.119876
-0.0662251
0.13704
-0.0776872
0.151856
-0.0879854
0.163291
-0.0965209
0.171074
-0.103282
0.175257
-0.108273
0.177303
-0.111932
0.177745
-0.115536
-0.116975
0.178269
-0.000454345
0.00128135
-0.0009843
0.00335137
-0.00110277
0.00489259
-0.000482688
0.00576072
0.00111878
0.00574166
0.00395422
0.00457036
0.00832587
0.00198014
0.0145978
-0.00226426
0.0230978
-0.00831998
0.0341508
-0.0161964
0.0477388
-0.0257399
0.0635363
-0.0365888
0.0808445
-0.048217
0.0986482
-0.0599953
0.115756
-0.0712646
0.130969
-0.081438
0.14335
-0.0900683
0.152393
-0.097029
0.158226
-0.102354
0.1616
-0.106656
0.16339
-0.110064
0.165
-0.113542
0.166155
-0.11669
-0.118734
0.167913
-0.00050014
-0.00111275
-0.00127314
-0.000533376
0.00152306
0.00534824
0.0113619
0.0199498
0.0312691
0.0451367
0.0609532
0.0777667
0.0944123
0.10971
0.122689
0.132777
0.13995
0.144661
0.147734
0.14989
0.151617
0.153235
0.154294
0.157329
0.0777337
-0.0763979
0.0684657
0.0858969
-0.105704
0.097541
0.0933698
-0.132195
0.124722
0.0989832
-0.150891
0.145277
0.101883
-0.160754
0.157855
0.102915
-0.163854
0.162822
0.103143
-0.161522
0.161294
0.100795
-0.155974
0.158321
0.0943155
-0.154135
0.160615
0.086679
-0.158982
0.166619
0.0839539
-0.160586
0.163311
0.089376
-0.142477
0.137055
0.100682
-0.0971325
0.0858268
0.114615
-0.030883
0.01695
0.128673
0.0436593
-0.0577175
0.141308
0.110623
-0.123258
0.151078
0.156992
-0.166762
0.15684
0.181225
-0.186987
0.159152
0.191031
-0.193343
0.16009
0.192266
-0.193204
0.160259
0.189818
-0.189987
0.158149
0.195585
-0.193475
0.152861
0.21725
-0.211962
0.145602
0.239962
-0.232703
0.138714
0.23265
-0.225762
0.134316
0.174259
-0.169861
0.133774
0.0704328
-0.0698906
0.136702
-0.0482774
0.0453492
0.14202
-0.14741
0.142092
0.148192
-0.205677
0.199505
0.152744
-0.229048
0.224496
0.15314
-0.239171
0.238776
0.147758
-0.25075
0.256132
0.137231
-0.26169
0.272217
0.125088
-0.253714
0.265857
0.115803
-0.203919
0.213203
0.113075
-0.105898
0.108626
0.11788
0.0169784
-0.0217839
0.127435
0.12597
-0.135525
0.134831
0.201082
-0.208477
0.13433
0.252541
-0.25204
0.127126
0.292008
-0.284805
0.118886
0.294607
-0.286367
0.114833
0.236178
-0.232124
0.117151
0.117852
-0.120169
0.122783
-0.0208609
0.0152286
0.12528
-0.140303
0.137805
0.123125
-0.247526
0.249681
0.120072
-0.30238
0.305433
0.118351
-0.292654
0.294375
0.118034
-0.188235
0.188552
0.117497
-0.00625885
0.0067959
0.115365
0.164099
-0.161967
0.113317
0.328809
-0.326761
0.11181
0.326116
-0.324609
0.109341
0.190449
-0.18798
0.103645
0.00682444
-0.00112897
0.0985793
-0.294697
0.299763
0.0967229
-0.268659
0.270515
-0.0254573
0.0289337
0.106038
-0.0813054
0.110634
-0.110301
0.113827
-0.135388
0.114922
-0.151986
0.113234
-0.159067
0.108985
-0.159605
0.104322
-0.15686
0.0994625
-0.151114
0.0915843
-0.146257
0.0808407
-0.148239
0.0726162
-0.152362
0.0727628
-0.142623
0.0819676
-0.106337
0.0968026
-0.045718
0.114161
0.0263009
0.131134
0.0936497
0.145141
0.142985
0.154602
0.171763
0.160117
0.185517
0.163694
0.188688
0.166143
0.187369
0.166636
0.195092
0.164375
0.219511
0.159648
0.244689
0.153773
0.238525
0.148639
0.179393
0.145551
0.0735209
0.145076
-0.0478027
0.146772
-0.149106
0.149658
-0.208562
0.151455
-0.230846
0.149768
-0.237484
0.142857
-0.243838
0.131187
-0.25002
0.118592
-0.24112
0.110028
-0.195354
0.10902
-0.10489
0.116413
0.00958574
0.127998
0.114385
0.136529
0.192551
0.136974
0.252095
0.130603
0.29838
0.122196
0.303014
0.117064
0.24131
0.118192
0.116723
0.123468
-0.0261368
0.125717
-0.142551
0.122748
-0.244558
0.119066
-0.298698
0.117213
-0.290801
0.117643
-0.188666
0.117723
-0.00633905
0.116671
0.165151
0.115617
0.329863
0.113833
0.3279
0.111136
0.193146
0.104067
0.0138928
0.0976898
-0.288319
0.0975425
-0.268512
-0.0229976
0.131084
-0.0846754
0.132758
-0.111974
0.131414
-0.134044
0.127329
-0.147901
0.121448
-0.153185
0.113949
-0.152106
0.105979
-0.14889
0.0988461
-0.143981
0.0903268
-0.137738
0.078058
-0.13597
0.0655649
-0.139869
0.0600939
-0.137152
0.0655586
-0.111802
0.0800199
-0.0601794
0.0997285
0.00659228
0.12041
0.0729678
0.138494
0.124902
0.151761
0.158496
0.160672
0.176606
0.167058
0.182302
0.172008
0.18242
0.175426
0.191674
0.1766
0.218337
0.17486
0.246428
0.170312
0.243074
0.164272
0.185432
0.158331
0.0794627
0.154063
-0.0435357
0.151949
-0.146991
0.151445
-0.208059
0.15054
-0.229941
0.14707
-0.234014
0.139173
-0.235942
0.126766
-0.237612
0.113709
-0.228063
0.10563
-0.187275
0.106238
-0.105499
0.115697
0.000126596
0.129001
0.101082
0.138831
0.18272
0.140609
0.250318
0.135288
0.3037
0.126764
0.311538
0.120387
0.247687
0.119991
0.117119
0.124666
-0.0308111
0.126742
-0.144628
0.122975
-0.24079
0.118493
-0.294217
0.116377
-0.288684
0.117558
-0.189847
0.118445
-0.0072267
0.118507
0.165089
0.118393
0.329977
0.116389
0.329904
0.113548
0.195986
0.105314
0.0221272
0.0976334
-0.280639
0.0988998
-0.269778
-0.0215838
0.153237
-0.0868858
0.152308
-0.111045
0.147222
-0.128958
0.138529
-0.139208
0.128362
-0.143018
0.118036
-0.141779
0.107764
-0.138618
0.0989433
-0.135161
0.0906934
-0.129488
0.0791061
-0.124383
0.0644074
-0.12517
0.0535585
-0.126303
0.0537258
-0.111969
0.065779
-0.0722325
0.0861315
-0.0137602
0.109367
0.049732
0.130826
0.103443
0.1477
0.141622
0.160027
0.16428
0.169293
0.173036
0.176892
0.174821
0.183472
0.185094
0.188375
0.213433
0.190019
0.244784
0.187395
0.245698
0.180615
0.192212
0.171664
0.0884141
0.163559
-0.0354314
0.157599
-0.141031
0.153662
-0.204122
0.15007
-0.226349
0.144919
-0.228864
0.136414
-0.227436
0.123802
-0.225
0.110448
-0.214709
0.102495
-0.179321
0.104193
-0.107197
0.115279
-0.0109588
0.130216
0.0861449
0.141653
0.171283
0.145089
0.246882
0.140991
0.307798
0.132529
0.320001
0.124943
0.255273
0.122701
0.119361
0.126411
-0.0345212
0.128331
-0.146549
0.123818
-0.236277
0.118388
-0.288786
0.115849
-0.286145
0.117756
-0.191754
0.119607
-0.00907765
0.120793
0.163903
0.121579
0.329191
0.119397
0.332086
0.116536
0.198848
0.107367
0.031296
0.0983944
-0.271666
0.100794
-0.272178
-0.0212129
0.17195
-0.0867948
0.167393
-0.106488
0.158476
-0.120042
0.146597
-0.127328
0.133706
-0.130128
0.121646
-0.129719
0.110268
-0.12724
0.0998183
-0.124711
0.0913447
-0.121014
0.0818797
-0.114918
0.0680346
-0.111325
0.0537846
-0.112053
0.0480361
-0.106221
0.0557274
-0.0799238
0.0742832
-0.0323161
0.0985078
0.0255074
0.122238
0.0797122
0.142116
0.121744
0.157526
0.14887
0.169512
0.16105
0.179687
0.164646
0.189312
0.175469
0.197945
0.2048
0.203421
0.239309
0.20343
0.245688
0.197008
0.198634
0.185507
0.0999159
0.173388
-0.0233124
0.163412
-0.131055
0.156064
-0.196774
0.149931
-0.220216
0.143266
-0.222198
0.13449
-0.21866
0.122158
-0.212669
0.108702
-0.201253
0.100534
-0.171154
0.102722
-0.109385
0.114848
-0.0230843
0.131302
0.0696905
0.144643
0.157942
0.150267
0.241258
0.147893
0.310173
0.139732
0.328162
0.130948
0.264057
0.126481
0.123828
0.128721
-0.0367609
0.130421
-0.148249
0.12525
-0.231106
0.118743
-0.282279
0.1156
-0.283003
0.118205
-0.194359
0.121132
-0.0120051
0.123447
0.161589
0.125108
0.32753
0.122775
0.334419
0.120022
0.201601
0.110202
0.0411161
0.0999449
-0.261409
0.103193
-0.275425
-0.0218705
0.185384
-0.0828013
0.176644
-0.0977475
0.164129
-0.107526
0.150123
-0.113323
0.13625
-0.116254
0.123733
-0.117202
0.112697
-0.116204
0.102102
-0.114116
0.0928329
-0.111745
0.0849129
-0.106998
0.0742999
-0.100712
0.0599742
-0.0977277
0.0491747
-0.0954213
0.0504833
-0.0812324
0.0649224
-0.0467552
0.0880055
0.00242432
0.11276
0.0549579
0.13498
0.0995235
0.153129
0.13072
0.167556
0.146623
0.179872
0.15233
0.192077
0.163265
0.204259
0.192618
0.213487
0.23008
0.216091
0.243085
0.210422
0.204303
0.197817
0.11252
0.182664
-0.00815967
0.168945
-0.117336
0.158467
-0.186296
0.150019
-0.211768
0.141903
-0.214082
0.133005
-0.209762
0.121481
-0.201146
0.108283
-0.188055
0.0995803
-0.162451
0.101503
-0.111307
0.114122
-0.0357029
0.131934
0.0518783
0.147431
0.142445
0.155591
0.233098
0.155325
0.310438
0.147924
0.335562
0.138268
0.273713
0.131388
0.130708
0.131595
-0.0369683
0.132907
-0.149561
0.127208
-0.225406
0.119542
-0.274614
0.11559
-0.27905
0.118833
-0.197602
0.12293
-0.0161019
0.126365
0.158154
0.128893
0.325002
0.126434
0.336877
0.123919
0.204116
0.113769
0.0512657
0.102257
-0.249897
0.106052
-0.279221
-0.0235296
0.191099
-0.0745603
0.179238
-0.0858857
0.165058
-0.0933467
0.150551
-0.0988155
0.136994
-0.102697
0.124743
-0.104951
0.114116
-0.105578
0.104344
-0.104344
0.0949276
-0.102329
0.0872325
-0.0993025
0.0799289
-0.0934081
0.069062
-0.0868609
0.056482
-0.0828413
0.0510538
-0.0758042
0.0589795
-0.0546809
0.0782382
-0.0168344
0.102531
0.030665
0.126171
0.0758834
0.146629
0.110263
0.163366
0.129887
0.177629
0.138066
0.191742
0.149152
0.20653
0.17783
0.219315
0.217295
0.2253
0.2371
0.221169
0.208434
0.207876
0.125814
0.190456
0.00926005
0.173758
-0.100637
0.160573
-0.173111
0.150157
-0.201352
0.140751
-0.204676
0.131706
-0.200718
0.121338
-0.190777
0.108935
-0.175653
0.0995412
-0.153057
0.100381
-0.112148
0.112814
-0.048135
0.131753
0.0329385
0.149593
0.124605
0.160765
0.221927
0.163342
0.307862
0.157308
0.341596
0.146917
0.284104
0.137427
0.140197
0.135021
-0.0345616
0.135661
-0.150202
0.129592
-0.219336
0.120754
-0.265776
0.115771
-0.274068
0.119555
-0.201385
0.1249
-0.0214476
0.129459
0.153596
0.132857
0.321603
0.130285
0.33945
0.128118
0.206283
0.117993
0.0613901
0.105297
-0.2372
0.109329
-0.283253
-0.0261491
0.187924
-0.0639475
0.17524
-0.0732014
0.161791
-0.0798973
0.148663
-0.0856878
0.136481
-0.0905159
0.125243
-0.0937124
0.115039
-0.0953736
0.10604
-0.0953457
0.0974282
-0.0937164
0.0894879
-0.0913623
0.0834578
-0.087378
0.0770348
-0.0804379
0.0671775
-0.072984
0.0579169
-0.0665435
0.0579976
-0.0547616
0.0706288
-0.0294656
0.0922159
0.00907786
0.115973
0.0521259
0.137928
0.0883087
0.15642
0.111394
0.172139
0.122347
0.18772
0.133572
0.20489
0.16066
0.220837
0.201348
0.229526
0.228411
0.227055
0.210905
0.214381
0.138487
0.195953
0.0276878
0.177465
-0.0821492
0.162152
-0.157798
0.150138
-0.189339
0.139655
-0.194192
0.130353
-0.191416
0.121238
-0.181662
0.110269
-0.164684
0.100378
-0.143166
0.099397
-0.111167
0.110809
-0.0595475
0.13055
0.0131977
0.15072
0.104436
0.16497
0.207677
0.170639
0.302193
0.166825
0.34541
0.156276
0.294653
0.144411
0.152062
0.138967
-0.0291169
0.138556
-0.149791
0.132275
-0.213055
0.122336
-0.255836
0.116101
-0.267834
0.120292
-0.205576
0.126931
-0.0280863
0.132613
0.147914
0.136894
0.317322
0.134243
0.342101
0.132518
0.208008
0.122773
0.0711355
0.109017
-0.223445
0.112978
-0.287213
-0.0296703
0.179481
-0.053938
0.168337
-0.0620573
0.156837
-0.0683971
0.145532
-0.0743832
0.134645
-0.0796288
0.124387
-0.0834543
0.114789
-0.0857756
0.106218
-0.086775
0.0987377
-0.0862361
0.0916287
-0.0842533
0.0855402
-0.0812895
0.0813143
-0.076212
0.0763458
-0.0680155
0.0686739
-0.0588716
0.0633163
-0.0494041
0.0678121
-0.0339614
0.0839663
-0.00707625
0.105998
0.0300942
0.128408
0.065899
0.147998
0.0918041
0.164458
0.105886
0.180468
0.117562
0.198737
0.14239
0.217423
0.182662
0.230114
0.21572
0.230731
0.210289
0.218942
0.150275
0.199644
0.046986
0.179879
-0.0623842
0.16299
-0.140909
0.149777
-0.176126
0.138501
-0.182916
0.128817
-0.181731
0.12074
-0.173585
0.111744
-0.155688
0.102016
-0.133438
0.0988167
-0.107967
0.108162
-0.0688931
0.128018
-0.00665844
0.150483
0.0819715
0.16826
0.189899
0.177565
0.292888
0.176523
0.346452
0.166249
0.304927
0.152102
0.166209
0.143309
-0.0203233
0.141453
-0.147935
0.1351
-0.206702
0.124222
-0.244958
0.116533
-0.260145
0.120936
-0.209978
0.128943
-0.0360935
0.135758
0.141099
0.140944
0.312136
0.138233
0.344811
0.137004
0.209238
0.128006
0.0801332
0.113361
-0.208799
0.11696
-0.290813
-0.034013
0.170194
-0.0458635
0.16104
-0.0529025
0.151321
-0.0586789
0.141477
-0.0645391
0.131681
-0.0698322
0.122271
-0.0740449
0.113537
-0.0770411
0.105556
-0.0787943
0.0986628
-0.0793427
0.0927846
-0.0783751
0.087342
-0.0758469
0.083141
-0.072011
0.0807776
-0.0656521
0.0777688
-0.0558628
0.0729585
-0.0445938
0.07142
-0.0324229
0.0790922
-0.0147484
0.0966669
0.0125195
0.11813
0.044436
0.138397
0.0715372
0.155456
0.0888269
0.171245
0.101773
0.189369
0.124266
0.209449
0.162583
0.224485
0.200684
0.227304
0.20747
0.217645
0.159935
0.200403
0.0642277
0.180954
-0.0429352
0.163024
-0.122979
0.148839
-0.161941
0.137041
-0.171119
0.126964
-0.171653
0.119507
-0.166129
0.112697
-0.148877
0.104098
-0.124839
0.0988998
-0.102769
0.105287
-0.0752808
0.124181
-0.0255516
0.148446
0.0577062
0.169318
0.169027
0.182279
0.279927
0.184655
0.344076
0.176096
0.313486
0.16018
0.182125
0.148025
-0.00816897
0.144235
-0.144144
0.137877
-0.200345
0.126316
-0.233397
0.117015
-0.250845
0.121414
-0.214378
0.130818
-0.0454974
0.138767
0.13315
0.144872
0.306031
0.142178
0.347505
0.141493
0.209923
0.13358
0.0880464
0.118256
-0.193475
0.121236
-0.293793
-0.0390751
0.161391
-0.0393415
0.153509
-0.0450197
0.14496
-0.0501305
0.136119
-0.0556977
0.127245
-0.0609583
0.118662
-0.0654621
0.110703
-0.0690825
0.103527
-0.0716174
0.0971519
-0.0729681
0.0918718
-0.073095
0.087567
-0.0715421
0.0838668
-0.0683108
0.0817074
-0.0634927
0.0814737
-0.0556291
0.0809639
-0.044084
0.0795985
-0.0310575
0.0817321
-0.016882
0.0921455
0.0021062
0.108867
0.0277149
0.127629
0.0527746
0.144668
0.0717885
0.16065
0.0857905
0.179065
0.105851
0.200196
0.141451
0.217838
0.183042
0.224093
0.201214
0.216427
0.167601
0.199591
0.0810641
0.180006
-0.0233501
0.161642
-0.104615
0.146968
-0.147267
0.135056
-0.159206
0.12477
-0.161368
0.117499
-0.158858
0.112631
-0.144009
0.106034
-0.118242
0.0997078
-0.096443
0.102472
-0.0780447
0.119192
-0.042272
0.144785
0.0321135
0.169346
0.144465
0.186226
0.263048
0.191658
0.338644
0.185005
0.320138
0.168457
0.198673
0.152767
0.00752187
0.146749
-0.138127
0.140446
-0.194041
0.12856
-0.221511
0.117634
-0.239919
0.121614
-0.218357
0.132519
-0.0564025
0.141626
0.124043
0.148664
0.298992
0.146035
0.350135
0.145913
0.210044
0.13937
0.09459
0.123629
-0.177734
0.125776
-0.29594
-0.044734
0.151891
-0.0339045
0.145075
-0.0382035
0.137787
-0.0428418
0.130061
-0.0479722
0.122262
-0.0531596
0.114761
-0.0579603
0.107741
-0.0620631
0.101387
-0.0652631
0.0957325
-0.0673136
0.0908113
-0.0681738
0.0868924
-0.0676231
0.0838128
-0.0652312
0.0814923
-0.0611721
0.0810137
-0.0551504
0.0825484
-0.0456188
0.0842406
-0.0327496
0.0859499
-0.0185914
0.0909053
-0.00284923
0.10186
0.0167601
0.116056
0.0385785
0.130673
0.0571717
0.145435
0.071029
0.162565
0.0887203
0.183631
0.120386
0.204386
0.162288
0.214353
0.191247
0.209688
0.172266
0.196868
0.0938836
0.179779
-0.00626096
0.161075
-0.0859111
0.145532
-0.131724
0.133399
-0.147073
0.122941
-0.150909
0.115387
-0.151304
0.111764
-0.140387
0.107443
-0.113921
0.100997
-0.0899969
0.100472
-0.0775199
0.113612
-0.0554122
0.138611
0.00711491
0.165425
0.117651
0.186408
0.242065
0.196263
0.328789
0.192683
0.323719
0.176644
0.214712
0.158401
0.0257641
0.149383
-0.129108
0.142995
-0.187653
0.131042
-0.209558
0.118682
-0.227559
0.121745
-0.22142
0.133858
-0.0685157
0.144142
0.113759
0.152158
0.290976
0.149732
0.352561
0.150232
0.209544
0.145269
0.0995526
0.129426
-0.161892
0.130544
-0.297057
-0.050852
0.201148
-0.0293102
-0.205742
0.197401
-0.0344572
0.193522
-0.0389629
0.189097
-0.0435467
0.184034
-0.0480965
0.17844
-0.0523663
0.172436
-0.0560591
0.166101
-0.0589287
0.159518
-0.0607304
0.152697
-0.0613527
0.145713
-0.0606391
0.138775
-0.0582936
0.131805
-0.0542021
0.12491
-0.0482553
0.118785
-0.0394937
0.113613
-0.0275771
0.108773
-0.0137521
0.104613
0.00131078
0.102629
0.0187443
0.104367
0.0368405
0.109851
0.0516877
0.118254
0.0626261
0.128679
0.0782951
0.140522
0.108543
0.151877
0.150932
0.162569
0.180556
0.177625
0.15721
0.193868
0.0776407
0.201426
-0.0138193
0.198276
-0.0827614
0.188749
-0.122197
0.176857
-0.13518
0.164366
-0.138419
0.152603
-0.13954
0.143482
-0.131266
0.133965
-0.104405
0.122264
-0.0782953
0.114887
-0.0701433
0.11833
-0.0588553
0.130833
-0.00538769
0.143599
0.104885
0.154602
0.231062
0.163264
0.320127
0.1691
0.317883
0.170027
0.213785
0.165957
0.0298337
0.163382
-0.126533
0.157787
-0.182059
0.14562
-0.197391
0.130054
-0.211993
0.125727
-0.217094
0.129386
-0.0721744
0.132261
0.110883
0.136968
0.28627
0.136934
0.352594
0.141053
0.205426
0.140424
0.100181
0.126635
-0.148103
0.124172
-0.294595
-0.0546173
0.209141
-0.0256474
-0.212804
0.205196
-0.0305127
0.201157
-0.034924
0.196669
-0.0390578
0.191611
-0.0430393
0.185994
-0.0467492
0.179921
-0.0499857
0.173509
-0.0525172
0.166877
-0.0540985
0.160167
-0.0546421
0.153461
-0.0539334
0.146934
-0.0517666
0.140795
-0.0480629
0.135069
-0.0425297
0.12998
-0.034405
0.126077
-0.0236734
0.123157
-0.0108329
0.120487
0.00398081
0.118056
0.0211756
0.116981
0.0379152
0.118823
0.0498466
0.124437
0.0570117
0.133521
0.0692115
0.144327
0.0977368
0.155176
0.140084
0.169361
0.16637
0.190113
0.136459
0.208997
0.0587567
0.215634
-0.0204565
0.210268
-0.0773958
0.1989
-0.110829
0.186182
-0.122462
0.1736
-0.125836
0.161634
-0.127574
0.15278
-0.122412
0.144743
-0.0963675
0.133823
-0.0673754
0.124995
-0.0613148
0.126738
-0.0605987
0.139493
-0.0181429
0.154258
0.0901201
0.167654
0.217666
0.178788
0.308994
0.186642
0.310029
0.18826
0.212167
0.183303
0.0347908
0.178286
-0.121516
0.171228
-0.175
0.157962
-0.184125
0.140468
-0.194499
0.135549
-0.212175
0.140293
-0.0769178
0.143704
0.107472
0.148927
0.281047
0.149149
0.352373
0.153923
0.200652
0.154642
0.0994616
0.140043
-0.133503
0.136183
-0.290735
-0.0583404
0.217255
-0.0227649
-0.220138
0.213722
-0.0269796
0.209839
-0.0310409
0.205582
-0.0348001
0.20086
-0.0383173
0.195651
-0.0415408
0.19001
-0.044345
0.184052
-0.0465589
0.177887
-0.0479329
0.171609
-0.0483648
0.165317
-0.0476407
0.15911
-0.0455598
0.153119
-0.0420724
0.147538
-0.036948
0.142632
-0.0294995
0.138921
-0.0199625
0.136845
-0.00875646
0.135912
0.00491372
0.135279
0.0218086
0.134709
0.0384847
0.134962
0.049594
0.136931
0.0550428
0.141066
0.0650761
0.147734
0.0910688
0.159432
0.128386
0.180384
0.145418
0.206776
0.110067
0.22552
0.0400128
0.229739
-0.0246753
0.222547
-0.0702041
0.210618
-0.0989001
0.197992
-0.109836
0.185634
-0.113479
0.173263
-0.115203
0.164002
-0.113151