/*--------------------------------*- C++ -*----------------------------------*\
| =========                 |                                                 |
| \\      /  F ield         | OpenFOAM: The Open Source CFD Toolbox           |
|  \\    /   O peration     | Version:  2312                                  |
|   \\  /    A nd           | Website:  www.openfoam.com                      |
|    \\/     M anipulation  |                                                 |
\*---------------------------------------------------------------------------*/
FoamFile
{
    version     2.0;
    format      ascii;
    arch        "LSB;label=32;scalar=64";
    class       volVectorField;
    location    "168.45";
    object      U;
}
// * * * * * * * * * * * * * * * * * * * * * * * * * * * * * * * * * * * * * //

dimensions      [0 1 -1 0 0 0 0];

internalField   nonuniform List<vector> 
5478
(
(-0.0334991 0.0184479 -7.06717e-20)
(-0.0650663 0.0272751 0)
(-0.0606898 0.0234359 1.06964e-19)
(3.37701e-05 0.0185428 -1.86156e-19)
(0.130991 0.0162608 1.19127e-19)
(0.326707 0.0192199 -3.72023e-20)
(0.558753 0.0291401 -5.86163e-20)
(0.79262 0.0435984 0)
(0.998941 0.0601864 0)
(1.16146 0.0712006 6.81625e-20)
(1.2693 0.0766401 -3.13822e-20)
(1.32182 0.0734089 -5.20232e-20)
(1.33643 0.0510024 -2.09232e-20)
(1.30487 0.0477202 0)
(1.27995 -0.00514748 5.9689e-20)
(-0.0430988 0.0255226 1.41907e-19)
(-0.0589252 0.0353161 0)
(-0.0057575 0.0288749 0)
(0.136051 0.0235056 -9.3468e-20)
(0.363842 0.0282813 1.22686e-19)
(0.632381 0.0439827 3.41161e-20)
(0.886637 0.0651651 -5.62872e-20)
(1.08866 0.0853513 4.9906e-20)
(1.22326 0.0979489 1.18539e-19)
(1.29129 0.101005 -1.03099e-19)
(1.3079 0.0950676 1.35025e-21)
(1.2971 0.0790243 0)
(1.27525 0.0666106 2.08878e-20)
(1.26585 0.0477172 0)
(1.27355 0.027671 0)
(-0.045529 0.0244491 -3.73634e-22)
(-0.0305017 0.0300188 -6.64213e-20)
(0.096717 0.0257441 3.12086e-22)
(0.343526 0.0340031 0)
(0.649733 0.0587062 -4.13239e-20)
(0.929022 0.0888195 3.46121e-20)
(1.13064 0.113251 2.86643e-20)
(1.24465 0.125622 0)
(1.28733 0.125918 -3.99049e-20)
(1.28862 0.117939 3.31852e-20)
(1.27727 0.104755 2.76498e-20)
(1.26821 0.0946241 0)
(1.26731 0.0786586 0)
(1.26309 0.0693782 -5.87861e-20)
(1.24493 0.0507627 5.23421e-20)
(-0.0395311 0.0179779 -7.76717e-20)
(0.0304669 0.0160308 6.55527e-20)
(0.264161 0.0259419 -5.65601e-20)
(0.605621 0.062741 4.96845e-20)
(0.921655 0.106847 8.29279e-20)
(1.137 0.139235 -6.89796e-20)
(1.24677 0.153503 -2.8646e-20)
(1.28272 0.152947 2.1878e-20)
(1.2844 0.144678 -2.11334e-20)
(1.27796 0.13329 0)
(1.2714 0.123496 0)
(1.2631 0.109347 -4.02011e-20)
(1.24827 0.0989674 5.22552e-20)
(1.22959 0.0851158 -2.93767e-20)
(1.22097 0.0686253 0)
(-0.0221702 0.00917139 3.93512e-20)
(0.137209 0.00519354 3.29145e-20)
(0.490935 0.0491674 -1.18631e-19)
(0.860028 0.113345 1.66872e-21)
(1.11208 0.160297 -1.31841e-21)
(1.23766 0.181099 -1.24747e-21)
(1.28053 0.182811 2.74303e-20)
(1.28608 0.175408 2.29294e-20)
(1.27889 0.164645 1.63368e-20)
(1.2666 0.153524 -2.74691e-21)
(1.2512 0.13995 -3.68953e-20)
(1.23557 0.128271 0)
(1.22437 0.115358 1.65118e-20)
(1.21788 0.101082 -1.22843e-20)
(1.20749 0.0920872 2.19068e-20)
(0.0122627 0.000423357 -8.54481e-20)
(0.296465 0.0137569 9.21407e-20)
(0.726817 0.0996563 -3.1705e-20)
(1.04922 0.172222 2.36292e-20)
(1.21591 0.20742 -4.37681e-20)
(1.2771 0.215316 -3.21946e-20)
(1.28727 0.209756 1.05824e-21)
(1.27748 0.198757 0)
(1.26157 0.186069 3.31616e-20)
(1.24589 0.172134 -2.94899e-20)
(1.23345 0.15956 1.1641e-20)
(1.22347 0.145927 0)
(1.21203 0.133571 6.92309e-21)
(1.19735 0.121139 -1.23102e-20)
(1.18521 0.109749 0)
(0.0697748 -0.00291911 -1.06654e-20)
(0.488551 0.0542082 1.09002e-21)
(0.920086 0.165325 1.53294e-20)
(1.16717 0.22989 2.60047e-20)
(1.26525 0.250689 -1.97427e-20)
(1.28568 0.24846 3.30373e-20)
(1.2759 0.237001 -7.50685e-21)
(1.25906 0.222752 0)
(1.24314 0.207804 -1.93579e-20)
(1.22894 0.19358 1.45622e-21)
(1.2147 0.178803 1.58185e-20)
(1.20025 0.165185 0)
(1.18811 0.151666 -1.00073e-20)
(1.17977 0.137368 0)
(1.1704 0.129521 5.94919e-21)
(0.150396 0.0069872 -1.19625e-20)
(0.67105 0.122511 0)
(1.05735 0.237338 1.64457e-20)
(1.23144 0.286503 0)
(1.27868 0.292767 0)
(1.27436 0.281395 0)
(1.25666 0.265184 -6.30651e-21)
(1.23799 0.248041 0)
(1.22044 0.231158 3.90394e-21)
(1.20448 0.214257 0)
(1.19137 0.198462 -4.88392e-21)
(1.18101 0.182985 0)
(1.17099 0.168536 3.0804e-21)
(1.15969 0.155603 0)
(1.14945 0.144658 1.9423e-21)
(-0.0055446 -0.112737 -1.17049e-20)
(-0.0384133 -0.136768 0)
(-0.0899205 -0.102229 1.83618e-20)
(-0.143115 -0.0584417 0)
(-0.194012 -0.00992259 0)
(-0.241012 0.0484528 0)
(-0.282468 0.118333 -1.14287e-20)
(-0.316004 0.199071 0)
(-0.338861 0.288233 8.94825e-21)
(-0.348313 0.380504 0)
(-0.342062 0.467877 -1.37459e-20)
(-0.318715 0.541504 0)
(-0.27524 0.594411 1.062e-20)
(-0.213897 0.61735 0)
(-0.113652 0.60321 8.62828e-21)
(0.00132615 -0.0828861 5.65866e-20)
(-0.0281533 -0.0865124 -3.91542e-20)
(-0.0768429 -0.0441605 1.53723e-20)
(-0.127398 0.00166321 6.03421e-20)
(-0.174812 0.0475779 -3.35032e-23)
(-0.216408 0.0989224 -4.7947e-20)
(-0.249588 0.157592 3.26001e-20)
(-0.271392 0.222927 0)
(-0.278595 0.292387 2.33501e-20)
(-0.268395 0.361023 -4.59715e-22)
(-0.237962 0.423081 -1.1422e-20)
(-0.184092 0.470892 0)
(-0.109184 0.493818 -2.92722e-20)
(-0.0160214 0.49028 0)
(0.123017 0.454181 -4.3564e-20)
(0.00615446 -0.0583669 8.36287e-20)
(-0.0174505 -0.0470352 1.81452e-20)
(-0.0571939 0.00209104 -3.36525e-20)
(-0.0973122 0.050511 -8.56039e-20)
(-0.132278 0.0931938 4.95249e-20)
(-0.158726 0.136171 4.24284e-20)
(-0.173627 0.182509 -7.29878e-20)
(-0.174022 0.231516 0)
(-0.157371 0.281 -5.51514e-20)
(-0.120217 0.327393 4.90333e-20)
(-0.0623859 0.363845 2.00748e-20)
(0.016936 0.385909 0)
(0.128253 0.392635 1.86436e-20)
(0.222639 0.369523 -3.20658e-20)
(0.404009 0.29447 0)
(0.00919559 -0.0421424 3.84977e-20)
(-0.0095499 -0.0235928 -1.05349e-19)
(-0.040036 0.0287207 1.21226e-19)
(-0.0671449 0.07968 -1.04245e-19)
(-0.0857617 0.120289 -4.40491e-20)
(-0.0929334 0.155211 3.77112e-20)
(-0.0861482 0.188687 3.53809e-20)
(-0.0625969 0.221726 2.72476e-20)
(-0.020644 0.252581 -7.17896e-20)
(0.0385316 0.276623 7.29742e-22)
(0.125352 0.297044 1.76573e-20)
(0.207136 0.294765 0)
(0.356982 0.282783 3.00353e-20)
(0.428343 0.264069 9.50307e-20)
(0.6506 0.172276 -5.60112e-20)
(0.010044 -0.0320737 -9.37103e-22)
(-0.00741572 -0.0139907 6.51868e-20)
(-0.0333254 0.0339672 -5.66067e-20)
(-0.0510614 0.0824752 5.11935e-20)
(-0.0554675 0.119752 8.56468e-20)
(-0.0448447 0.147273 -7.2931e-20)
(-0.0183929 0.168943 -2.96966e-20)
(0.0247878 0.186519 -7.81393e-20)
(0.0857608 0.202711 6.85008e-20)
(0.162592 0.206275 0)
(0.268492 0.216417 0)
(0.362707 0.199523 6.27364e-20)
(0.543975 0.180327 -1.45327e-19)
(0.617341 0.1549 5.29784e-20)
(0.886845 0.0749065 0)
(0.00673674 -0.023329 -1.09371e-23)
(-0.0145295 -0.0102538 -6.48558e-20)
(-0.0418005 0.0250216 1.67425e-19)
(-0.0564805 0.0622864 -4.8345e-20)
(-0.0532162 0.090434 -4.16303e-20)
(-0.0303951 0.108491 3.52484e-20)
(0.0121832 0.119849 2.97144e-20)
(0.0767175 0.126157 4.70821e-20)
(0.165406 0.13065 -8.20158e-20)
(0.281891 0.127191 3.48423e-20)
(0.418835 0.126322 3.09276e-20)
(0.578351 0.106556 0)
(0.768161 0.0915803 0)
(0.909896 0.0563863 1.04055e-19)
(1.16092 0.00911845 -9.23764e-20)
(-0.00314819 -0.0114068 -4.7033e-22)
(-0.0325583 -0.00322861 0)
(-0.0631612 0.0151956 0)
(-0.0752196 0.0353118 9.10767e-20)
(-0.0611423 0.0495302 -4.11249e-20)
(-0.014906 0.0575838 3.30225e-20)
(0.0678076 0.0611275 5.39763e-20)
(0.187214 0.0625692 -4.78584e-20)
(0.34129 0.0609589 4.02528e-20)
(0.51878 0.0643507 -3.48754e-20)
(0.706806 0.0566111 -4.63062e-22)
(0.908641 0.054782 0)
(1.07401 0.0410008 2.46112e-20)
(1.24369 0.0164512 0)
(1.36181 -0.00569287 0)
(-0.0185074 0.00422225 -6.97672e-20)
(-0.0539967 0.0109268 0)
(-0.0775999 0.0147512 -1.05913e-19)
(-0.0687058 0.018971 1.83861e-19)
(-0.0139312 0.021627 -1.95989e-19)
(0.0947439 0.0229954 -2.99247e-20)
(0.254243 0.0246807 5.72619e-20)
(0.449238 0.0295727 0)
(0.661829 0.0362367 0)
(0.866258 0.0473669 -6.89203e-20)
(1.05646 0.0480659 -2.98242e-20)
(1.20412 0.0580784 5.40192e-20)
(1.31008 0.0374609 -2.46546e-20)
(1.37931 0.031068 0)
(1.36108 -0.000212939 -7.20096e-20)
(-0.00953152 0.554644 0)
(0.268432 0.226157 4.71565e-21)
(0.56028 -0.199997 -4.35477e-21)
(0.744051 -0.592375 0)
(0.749513 -0.730223 0)
(0.775228 -0.69779 -8.80357e-23)
(0.667759 -0.637102 0)
(0.497347 -0.644507 0)
(0.564359 -0.287436 6.38049e-23)
(0.713935 0.175375 0)
(0.880969 0.320037 0)
(0.914166 0.512276 -1.0144e-22)
(0.867319 0.531175 0)
(0.85577 0.567434 -6.7867e-23)
(0.906123 0.350105 -6.07681e-23)
(0.934684 -0.0169262 0)
(1.02185 -0.232201 -6.19103e-22)
(1.03341 -0.59798 7.35324e-22)
(1.05515 -0.499994 0)
(1.00932 -0.294236 4.81042e-22)
(1.07145 0.0176616 -5.92917e-22)
(1.09417 0.57384 1.14073e-22)
(1.08005 0.477454 -2.05916e-22)
(1.08141 0.232007 1.96756e-22)
(1.16968 -0.071786 -2.10473e-22)
(1.07568 -0.703295 0)
(1.15428 -0.366999 -2.27822e-22)
(1.12723 0.519715 2.17842e-22)
(1.06878 0.40361 -1.32402e-22)
(1.03624 -0.193088 0)
(1.00365 -0.188794 -8.62029e-23)
(0.996987 0.0539197 0)
(0.990723 0.0573387 -4.18215e-23)
(0.979094 -0.00936408 -1.48883e-23)
(0.980003 -0.0075847 1.31456e-24)
(0.975576 0.00526072 -9.13089e-24)
(0.977402 0.00504896 0)
(0.973183 0.00308157 2.85996e-24)
(0.264705 0.402636 1.61388e-20)
(0.520139 0.0644807 -1.50434e-22)
(0.770282 -0.350906 -1.62887e-20)
(0.914877 -0.657821 1.55339e-20)
(0.864133 -0.738776 0)
(0.822092 -0.678118 8.87159e-23)
(0.717884 -0.575251 -1.33961e-22)
(0.573986 -0.605522 0)
(0.535764 -0.342041 -6.42815e-23)
(0.683456 0.0845341 0)
(0.847371 0.266029 0)
(0.886776 0.501528 1.02172e-22)
(0.815231 0.531313 0)
(0.781623 0.554084 2.17163e-21)
(0.887411 0.332682 -1.82458e-21)
(0.938929 -0.0333701 2.4637e-21)
(1.05596 -0.250258 -2.35161e-21)
(1.05014 -0.60172 -1.45102e-22)
(1.06607 -0.500024 0)
(1.02613 -0.29639 0)
(1.04145 -5.92158e-05 -1.30411e-22)
(1.08904 0.564315 1.08619e-21)
(1.06778 0.474388 -1.66001e-21)
(1.06941 0.225581 7.20629e-22)
(1.19215 -0.0716487 5.83332e-22)
(1.07738 -0.693893 0)
(1.12663 -0.376129 5.09632e-22)
(1.11376 0.520634 0)
(1.07853 0.406272 1.3287e-22)
(1.05101 -0.185018 -2.86409e-22)
(1.00592 -0.188171 4.49802e-22)
(0.996671 0.0544594 -4.42283e-23)
(0.994669 0.0584129 7.69002e-23)
(0.983684 -0.00864619 4.31191e-24)
(0.98443 -0.00743428 1.68577e-23)
(0.980509 0.00541756 -8.12151e-24)
(0.982435 0.00512263 -7.47784e-25)
(0.979445 0.00328871 6.76577e-25)
(0.521078 0.262624 3.73125e-20)
(0.763139 -0.0222245 -7.46716e-20)
(0.976645 -0.408773 4.8233e-21)
(1.05363 -0.661697 3.13907e-20)
(0.961364 -0.710469 2.69344e-22)
(0.873488 -0.640082 -1.7511e-22)
(0.771477 -0.527094 1.36259e-22)
(0.681022 -0.566876 -2.19942e-22)
(0.576921 -0.390516 0)
(0.692364 -0.00812921 5.52016e-21)
(0.818284 0.21743 -5.26553e-21)
(0.8632 0.523329 -1.95884e-22)
(0.789229 0.570165 0)
(0.734406 0.547066 -4.24359e-21)
(0.873811 0.314337 3.92497e-21)
(0.949927 -0.0434972 -2.42616e-21)
(1.08583 -0.253478 2.31486e-21)
(1.0596 -0.590434 2.42696e-21)
(1.06477 -0.502501 -2.05448e-21)
(1.04115 -0.29887 0)
(1.00573 -0.0191499 0)
(1.07805 0.554458 1.87933e-21)
(1.05374 0.478428 -1.79411e-21)
(1.05555 0.22304 -1.40949e-21)
(1.20369 -0.0649725 -3.05348e-22)
(1.07647 -0.674633 1.52921e-21)
(1.08895 -0.388562 3.66733e-23)
(1.09552 0.517606 -1.10056e-21)
(1.084 0.413428 1.27818e-21)
(1.06074 -0.17026 -1.11562e-21)
(1.00467 -0.185265 5.9954e-23)
(0.993126 0.0543928 -1.43322e-22)
(0.995212 0.0593973 5.52918e-23)
(0.985052 -0.00758801 -5.2866e-23)
(0.985544 -0.00725132 -1.0844e-23)
(0.982314 0.00552753 -6.08198e-24)
(0.98418 0.00513325 1.74991e-23)
(0.9826 0.00342465 2.7404e-24)
(0.727636 0.143492 0)
(0.971659 -0.0997816 3.59184e-20)
(1.16993 -0.429236 -3.53066e-20)
(1.19134 -0.621846 0)
(1.06992 -0.654106 -2.76824e-22)
(0.938684 -0.598021 1.79916e-22)
(0.835259 -0.487079 0)
(0.762604 -0.523614 1.40464e-23)
(0.658387 -0.428533 -1.64355e-22)
(0.749553 -0.090343 0)
(0.840872 0.15396 -6.06295e-21)
(0.879677 0.480867 5.9826e-21)
(0.753504 0.573326 -3.39233e-22)
(0.682236 0.531792 -4.41312e-21)
(0.858196 0.291847 4.20753e-21)
(0.962177 -0.0580664 2.91553e-22)
(1.10606 -0.258376 0)
(1.07029 -0.576199 -2.80181e-22)
(1.05806 -0.508591 4.31067e-21)
(1.05204 -0.303902 8.3721e-22)
(0.972726 -0.0431142 4.9109e-22)
(1.05557 0.524952 -4.35659e-21)
(1.02974 0.47435 -2.16636e-21)
(1.03669 0.219552 2.61329e-21)
(1.2032 -0.0574148 -3.31349e-22)
(1.07481 -0.652137 0)
(1.04645 -0.402076 -5.58764e-22)
(1.06752 0.499599 1.11511e-21)
(1.07992 0.413126 -1.19725e-21)
(1.06464 -0.155715 1.03577e-21)
(1.00027 -0.182336 -1.83987e-22)
(0.986645 0.0528167 0)
(0.992402 0.0598239 -5.36946e-23)
(0.983284 -0.00646796 9.47908e-23)
(0.983486 -0.00714444 3.23389e-23)
(0.981114 0.00555289 3.25558e-23)
(0.982761 0.0050696 -1.75114e-23)
(0.98268 0.00347996 -7.79417e-26)
(0.947525 0.0422025 4.19381e-22)
(1.17542 -0.174147 1.02242e-21)
(1.32435 -0.429734 0)
(1.26988 -0.558601 0)
(1.13572 -0.574634 0)
(0.989784 -0.545755 0)
(0.899784 -0.451187 7.52722e-21)
(0.824518 -0.474455 -1.35361e-20)
(0.712817 -0.465597 6.3846e-21)
(0.826958 -0.183259 0)
(0.882289 0.0995316 -6.09085e-21)
(0.847298 0.51908 5.97937e-21)
(0.719978 0.637339 5.67218e-21)
(0.676809 0.530779 -4.76734e-21)
(0.86534 0.263921 4.78045e-21)
(0.982012 -0.0710875 -4.85461e-21)
(1.12076 -0.251852 -2.80838e-22)
(1.08263 -0.550718 -4.2481e-21)
(1.0485 -0.514504 4.04791e-21)
(1.05328 -0.309121 5.66845e-22)
(0.93377 -0.0647411 7.29735e-22)
(1.02544 0.507402 3.06649e-21)
(1.01001 0.481403 -3.55319e-21)
(1.02023 0.220926 -5.34046e-22)
(1.19439 -0.0441658 -2.48395e-22)
(1.06967 -0.623468 -3.06199e-22)
(0.997642 -0.418061 0)
(1.03711 0.483951 0)
(1.07292 0.41899 0)
(1.06453 -0.135992 0)
(0.993632 -0.17725 4.99532e-22)
(0.978005 0.0508796 -2.98406e-22)
(0.986737 0.0602163 1.04495e-22)
(0.978802 -0.00511411 -2.85168e-22)
(0.978663 -0.00701053 3.16507e-23)
(0.977232 0.00553985 6.45646e-24)
(0.978486 0.00495648 -2.18987e-23)
(0.979878 0.00345971 -6.85042e-24)
(1.21414 -0.0385088 -4.41363e-22)
(1.36374 -0.203861 5.6592e-20)
(1.40954 -0.373729 -5.4357e-20)
(1.29685 -0.465703 -3.92585e-20)
(1.16044 -0.494632 3.73872e-20)
(1.03134 -0.499046 2.08295e-20)
(0.936295 -0.421952 -1.93959e-20)
(0.889958 -0.414003 2.09894e-22)
(0.735775 -0.483485 -1.83485e-22)
(0.840414 -0.267888 0)
(0.9142 0.0294043 -1.91094e-22)
(0.865994 0.456917 1.34736e-20)
(0.718918 0.635251 -1.28286e-20)
(0.668467 0.542414 -3.15817e-22)
(0.867242 0.264133 0)
(1.00063 -0.069428 -5.11455e-21)
(1.13249 -0.239603 9.24316e-21)
(1.09326 -0.522791 -3.9236e-21)
(1.0392 -0.519929 0)
(1.04399 -0.315889 4.95286e-21)
(0.901144 -0.0920493 -1.90737e-22)
(0.98422 0.459256 -5.556e-21)
(0.974578 0.475979 -2.25683e-21)
(0.999065 0.222877 2.14892e-21)
(1.17891 -0.0289019 -2.09304e-21)
(1.05963 -0.591386 -1.63954e-21)
(0.950438 -0.432454 4.16982e-21)
(0.997623 0.448957 -3.12289e-21)
(1.05488 0.417156 2.96971e-21)
(1.05867 -0.118885 -4.08038e-22)
(0.985271 -0.17252 3.87972e-22)
(0.967491 0.0475184 0)
(0.978407 0.0600512 1.02179e-22)
(0.971986 -0.00375764 -2.20164e-23)
(0.971568 -0.00695645 0)
(0.971097 0.00544966 -3.34804e-23)
(0.971799 0.00478686 1.43385e-23)
(0.97452 0.00336238 -2.57563e-24)
(1.38792 -0.0660885 0)
(1.43142 -0.174804 0)
(1.39269 -0.292771 -1.68676e-22)
(1.28935 -0.371028 0)
(1.17152 -0.416815 0)
(1.07264 -0.450584 2.1361e-20)
(0.957337 -0.405959 -2.03301e-20)
(0.940522 -0.360391 1.31614e-20)
(0.793943 -0.459493 -1.25373e-20)
(0.790702 -0.373965 0)
(0.916827 -0.0587853 -2.53278e-22)
(0.868063 0.467947 2.57551e-22)
(0.70505 0.686039 -1.20317e-20)
(0.703821 0.536436 2.74131e-22)
(0.895891 0.235757 1.04353e-20)
(1.02281 -0.0851889 1.65683e-22)
(1.14321 -0.228958 -1.38153e-22)
(1.09904 -0.488749 7.77177e-21)
(1.02952 -0.519667 -7.62115e-21)
(1.02382 -0.323863 0)
(0.861392 -0.113302 0)
(0.941085 0.438402 -3.30881e-22)
(0.948216 0.480154 0)
(0.985626 0.223177 1.82074e-21)
(1.16601 -0.0130508 3.06448e-22)
(1.04498 -0.551597 -1.63308e-21)
(0.904614 -0.450688 -6.23696e-21)
(0.961813 0.422353 4.16216e-21)
(1.0391 0.420303 -1.66937e-22)
(1.05092 -0.0968148 0)
(0.976947 -0.165975 -3.11321e-22)
(0.956436 0.0446456 2.95194e-22)
(0.968386 0.0600686 6.17329e-23)
(0.963583 -0.00231645 2.93274e-23)
(0.962865 -0.00687256 -3.84727e-23)
(0.963266 0.00537606 1.23284e-23)
(0.963268 0.00462048 0)
(0.967052 0.00321019 5.29775e-24)
(1.36404 -0.0503776 4.41547e-20)
(1.36221 -0.108502 4.42538e-20)
(1.32456 -0.203517 -6.92198e-22)
(1.27043 -0.286725 -7.50564e-20)
(1.18756 -0.348671 3.4092e-20)
(1.1074 -0.401165 -1.9784e-22)
(0.991293 -0.394452 0)
(0.962545 -0.339161 -1.18482e-22)
(0.880944 -0.403661 -9.44566e-23)
(0.750551 -0.408431 0)
(0.822453 -0.197094 -1.82106e-20)
(0.81228 0.336629 1.72203e-20)
(0.704524 0.658148 2.02604e-22)
(0.683348 0.584179 1.14281e-20)
(0.883436 0.288482 -1.08627e-20)
(1.03336 -0.0546612 1.63838e-22)
(1.15837 -0.200667 1.46718e-22)
(1.1058 -0.447491 0)
(1.02245 -0.515111 8.61554e-21)
(0.997517 -0.324009 -8.1605e-21)
(0.828057 -0.151624 -6.33708e-21)
(0.884579 0.371991 2.52015e-21)
(0.90366 0.470632 3.61344e-21)
(0.961308 0.234667 -1.25817e-21)
(1.15899 0.0161776 9.79053e-23)
(1.03024 -0.505959 4.5194e-21)
(0.871818 -0.467368 -2.46353e-21)
(0.918783 0.373896 3.50691e-21)
(1.01043 0.417083 -2.6082e-21)
(1.0379 -0.0752126 0)
(0.968298 -0.158803 0)
(0.94474 0.0400964 0)
(0.956703 0.0593491 3.70174e-23)
(0.954027 -0.000889384 -5.8757e-23)
(0.95314 -0.00690199 4.51883e-23)
(0.954295 0.00516805 -2.96021e-23)
(0.953488 0.00438014 -1.22986e-23)
(0.957983 0.00298275 0)
(1.29541 -0.0328441 0)
(1.30836 -0.0759541 0)
(1.29296 -0.148076 0)
(1.25321 -0.20885 0)
(1.19319 -0.247544 0)
(1.13599 -0.296382 0)
(1.03387 -0.324236 0)
(0.988533 -0.273888 0)
(0.965631 -0.323555 0)
(0.769726 -0.40946 0)
(0.695378 -0.267539 0)
(0.756887 0.28753 0)
(0.676399 0.670852 0)
(0.719714 0.550209 0)
(0.969882 0.237122 0)
(1.06717 -0.0782806 0)
(1.17609 -0.169196 0)
(1.1134 -0.392296 0)
(1.01785 -0.513444 0)
(0.954774 -0.347949 0)
(0.805472 -0.156967 0)
(0.838056 0.352309 0)
(0.847634 0.468427 0)
(0.949201 0.21748 0)
(1.17755 0.0338418 0)
(1.01721 -0.477712 0)
(0.839764 -0.476546 0)
(0.88173 0.338265 0)
(0.986443 0.420473 0)
(1.02586 -0.062709 0)
(0.958054 -0.150754 0)
(0.931916 0.0382887 0)
(0.94261 0.0597286 0)
(0.941897 0.00056491 0)
(0.940416 -0.00664667 0)
(0.942335 0.00523916 0)
(0.940489 0.00429053 0)
(0.945468 0.00273536 0)
(1.24008 -0.0317583 0)
(1.25436 -0.0865493 0)
(1.23641 -0.150077 0)
(1.19377 -0.189115 0)
(1.1406 -0.2582 0)
(1.07886 -0.285905 0)
(0.999208 -0.280916 0)
(0.912291 -0.299738 0)
(0.883206 -0.313726 0)
(0.774572 -0.2802 0)
(0.605175 -0.171065 0)
(0.605631 0.347422 0)
(0.588068 0.676026 0)
(0.813758 0.445917 0)
(1.06636 0.138476 0)
(1.12875 -0.127693 0)
(1.18734 -0.21894 0)
(1.08505 -0.396691 0)
(0.973683 -0.449381 0)
(0.869614 -0.270119 0)
(0.723744 -0.102225 0)
(0.765606 0.371891 0)
(0.778957 0.441337 0)
(0.946461 0.152312 0)
(1.16983 -0.00626757 0)
(0.987971 -0.43045 0)
(0.778551 -0.42459 0)
(0.837032 0.342401 0)
(0.947752 0.389642 0)
(1.01009 -0.0650507 0)
(0.940199 -0.135003 0)
(0.911239 0.043009 0)
(0.922423 0.0578451 0)
(0.926058 0.000170591 0)
(0.923705 -0.00683934 0)
(0.926248 0.00513082 0)
(0.923308 0.00399374 0)
(0.928523 0.00227013 0)
(1.19649 -0.0328275 0)
(1.21292 -0.0664059 0)
(1.19137 -0.115583 0)
(1.16462 -0.149216 0)
(1.1317 -0.173265 0)
(1.06537 -0.205369 0)
(1.02408 -0.201534 0)
(0.972843 -0.181903 0)
(0.884228 -0.225159 0)
(0.780101 -0.19726 0)
(0.635628 -0.116419 0)
(0.551204 0.317772 0)
(0.670802 0.565103 0)
(0.988386 0.302519 0)
(1.16804 0.0573956 0)
(1.16875 -0.140607 0)
(1.17145 -0.164052 0)
(1.09903 -0.306762 0)
(0.946818 -0.3984 0)
(0.778674 -0.236958 0)
(0.613204 -0.0884252 0)
(0.66669 0.352448 0)
(0.746032 0.38247 0)
(0.952509 0.094411 0)
(1.1606 0.0083181 0)
(0.997821 -0.367881 0)
(0.713661 -0.404331 0)
(0.762111 0.310638 0)
(0.910789 0.353438 0)
(1.00288 -0.0600801 0)
(0.922051 -0.121899 0)
(0.891023 0.0419398 0)
(0.904704 0.0549301 0)
(0.91137 0.000812377 0)
(0.906519 -0.00661667 0)
(0.909228 0.00510574 0)
(0.905522 0.0038917 0)
(0.910457 0.00184319 0)
(1.1599 -0.0252926 0)
(1.17004 -0.0589407 0)
(1.15581 -0.0950132 0)
(1.12921 -0.119652 0)
(1.09393 -0.152768 0)
(1.05178 -0.172132 0)
(0.99546 -0.180021 0)
(0.959061 -0.169358 0)
(0.908003 -0.186403 0)
(0.820025 -0.115177 0)
(0.73808 -0.0230428 0)
(0.674085 0.277842 0)
(0.876081 0.384747 0)
(1.1146 0.156954 0)
(1.21037 0.0288202 0)
(1.18399 -0.118487 0)
(1.11628 -0.174304 0)
(1.06572 -0.286726 0)
(0.894338 -0.29584 0)
(0.701948 -0.130152 0)
(0.539347 -0.0389942 0)
(0.571377 0.322825 0)
(0.764761 0.29926 0)
(0.958156 0.0107339 0)
(1.1298 -0.0233626 0)
(1.00559 -0.289496 0)
(0.654488 -0.325153 0)
(0.662921 0.28331 0)
(0.896673 0.29759 0)
(1.00609 -0.0632517 0)
(0.899078 -0.101584 0)
(0.864591 0.0449007 0)
(0.887677 0.0513923 0)
(0.899057 0.000467191 0)
(0.890805 -0.00626023 0)
(0.892969 0.00517091 0)
(0.889744 0.0038155 0)
(0.894302 0.00136218 0)
(1.12619 -0.0234634 0)
(1.13714 -0.0464676 0)
(1.11988 -0.0750256 0)
(1.1065 -0.0938717 0)
(1.07487 -0.113715 0)
(1.04603 -0.12478 0)
(1.00585 -0.123335 0)
(0.971748 -0.108757 0)
(0.933639 -0.11723 0)
(0.85598 -0.0495805 0)
(0.830741 0.00152059 0)
(0.825911 0.189342 0)
(1.01552 0.251932 0)
(1.14195 0.0953903 0)
(1.17203 0.00634138 0)
(1.15926 -0.0978311 0)
(1.08745 -0.106098 0)
(1.07729 -0.200499 0)
(0.899186 -0.208827 0)
(0.737764 -0.0505755 0)
(0.621592 -0.00989676 0)
(0.60151 0.244561 0)
(0.861107 0.193711 0)
(0.976015 -0.0424227 0)
(1.09626 -0.0218603 0)
(1.04183 -0.21189 0)
(0.642696 -0.256473 0)
(0.608827 0.236266 0)
(0.923344 0.229945 0)
(1.02165 -0.0550282 0)
(0.881401 -0.0755464 0)
(0.845276 0.0452651 0)
(0.884865 0.0449116 0)
(0.899308 0.000329941 0)
(0.885633 -0.00501359 0)
(0.885582 0.00524479 0)
(0.884332 0.00364664 0)
(0.887416 0.000910213 0)
(1.09936 -0.0184219 0)
(1.10962 -0.0364721 0)
(1.09529 -0.055955 0)
(1.0858 -0.0696271 0)
(1.0601 -0.084719 0)
(1.03757 -0.0920938 0)
(1.00536 -0.092621 0)
(0.980068 -0.0835142 0)
(0.954723 -0.081037 0)
(0.905798 -0.0250211 0)
(0.911896 0.00571162 0)
(0.909165 0.121357 0)
(1.04222 0.146139 0)
(1.11175 0.0510446 0)
(1.12824 0.0224656 0)
(1.12101 -0.0678641 0)
(1.03925 -0.107724 0)
(1.0493 -0.17269 0)
(0.900645 -0.12752 0)
(0.814097 0.020947 0)
(0.783744 0.0345461 0)
(0.7528 0.188546 0)
(0.997541 0.12022 0)
(1.01711 -0.0804299 0)
(1.04225 -0.0503173 0)
(1.06209 -0.126991 0)
(0.69336 -0.145953 0)
(0.631353 0.173944 0)
(0.964209 0.141501 0)
(1.03334 -0.0468899 0)
(0.880821 -0.0420526 0)
(0.853047 0.0434748 0)
(0.905822 0.0348408 0)
(0.918102 0.000206138 0)
(0.900348 -0.00252978 0)
(0.897272 0.0054351 0)
(0.898869 0.00339352 0)
(0.89863 0.000668026 0)
(1.07944 -0.0137 0)
(1.08693 -0.0269919 0)
(1.07494 -0.0400218 0)
(1.06904 -0.0514555 0)
(1.04884 -0.0598006 0)
(1.03305 -0.0660386 0)
(1.01114 -0.0636085 0)
(0.992104 -0.055002 0)
(0.976889 -0.0501735 0)
(0.947062 -0.00900937 0)
(0.958408 0.0053286 0)
(0.953716 0.0681207 0)
(1.04222 0.0861854 0)
(1.06941 0.0331866 0)
(1.0807 0.00733499 0)
(1.10241 -0.0495447 0)
(1.03244 -0.0580962 0)
(1.03096 -0.108311 0)
(0.911524 -0.0738661 0)
(0.883084 0.0327725 0)
(0.91776 0.0347673 0)
(0.897211 0.120274 0)
(1.08202 0.0641943 0)
(1.06179 -0.0579399 0)
(0.998585 -0.0417329 0)
(1.05929 -0.0739866 0)
(0.817029 -0.0592331 0)
(0.747566 0.114325 0)
(1.00747 0.0710477 0)
(1.04371 -0.0275725 0)
(0.914064 -0.0103756 0)
(0.898808 0.0362133 0)
(0.949421 0.0235068 0)
(0.954728 0.00146399 0)
(0.937425 0.000993548 0)
(0.931555 0.00568575 0)
(0.935043 0.00330528 0)
(0.930545 0.00100732 0)
(1.06349 -0.00892118 0)
(1.06813 -0.0190325 0)
(1.06057 -0.0268378 0)
(1.05602 -0.0359674 0)
(1.04149 -0.039974 0)
(1.03096 -0.0451796 0)
(1.01489 -0.0418941 0)
(1.00294 -0.037413 0)
(0.992207 -0.0312036 0)
(0.975598 -0.00678324 0)
(0.987712 0.00199268 0)
(0.98074 0.0392671 0)
(1.03322 0.0422752 0)
(1.04903 0.018957 0)
(1.05656 0.00659794 0)
(1.06622 -0.035054 0)
(1.01926 -0.0461021 0)
(1.02139 -0.0786098 0)
(0.942514 -0.0405741 0)
(0.938234 0.020675 0)
(0.980311 0.0289171 0)
(0.972755 0.0836772 0)
(1.07925 0.031008 0)
(1.05404 -0.0382231 0)
(0.993601 -0.0407928 0)
(1.0314 -0.0512899 0)
(0.90973 0.00629089 0)
(0.885138 0.0850099 0)
(1.03502 0.0222461 0)
(1.03515 -0.0130755 0)
(0.954711 0.015705 0)
(0.95667 0.0312522 0)
(0.992874 0.0150674 0)
(0.990046 0.00341848 0)
(0.977999 0.0046889 0)
(0.972469 0.00628933 0)
(0.976153 0.00363828 0)
(0.969699 0.00193114 0)
(1.05176 -0.00495119 0)
(1.05414 -0.0120743 0)
(1.04981 -0.0167017 0)
(1.04602 -0.0239921 0)
(1.03635 -0.0254266 0)
(1.02908 -0.0301538 0)
(1.01824 -0.0267805 0)
(1.01098 -0.0248055 0)
(1.00365 -0.0193995 0)
(0.996171 -0.00518625 0)
(1.00181 -8.03668e-05 0)
(0.999229 0.0197712 0)
(1.02788 0.0200952 0)
(1.03279 0.0101625 0)
(1.04044 -8.30801e-05 0)
(1.04634 -0.0242463 0)
(1.01966 -0.0259939 0)
(1.01377 -0.0452539 0)
(0.968343 -0.0205738 0)
(0.972344 0.0118969 0)
(0.992623 0.0196475 0)
(0.999279 0.0521124 0)
(1.06064 0.0142209 0)
(1.03961 -0.0143221 0)
(1.00564 -0.0206347 0)
(1.00598 -0.033789 0)
(0.953633 0.0193225 0)
(0.975525 0.0532502 0)
(1.04124 0.00756486 0)
(1.01702 0.00534815 0)
(0.986387 0.024936 0)
(1.00196 0.0223323 0)
(1.02084 0.0105007 0)
(1.01297 0.00618166 0)
(1.0073 0.00701158 0)
(1.00434 0.0064634 0)
(1.0069 0.00406937 0)
(1.00106 0.00298 0)
(1.04305 -0.00156562 0)
(1.04356 -0.00663805 0)
(1.04184 -0.00941826 0)
(1.03848 -0.0149068 0)
(1.03274 -0.0152285 0)
(1.02759 -0.0192065 0)
(1.02067 -0.0162423 0)
(1.01636 -0.0162414 0)
(1.01122 -0.0117618 0)
(1.00791 -0.00494924 0)
(1.01018 -0.0017932 0)
(1.00955 0.0089308 0)
(1.02324 0.00723279 0)
(1.02615 0.00399055 0)
(1.03081 -0.00162646 0)
(1.03114 -0.0158757 0)
(1.01679 -0.0176858 0)
(1.01122 -0.0287507 0)
(0.986402 -0.0116281 0)
(0.991595 0.0045229 0)
(0.999002 0.0122829 0)
(1.00846 0.0339816 0)
(1.04025 0.00617769 0)
(1.0242 -0.00609941 0)
(1.01439 -0.0137729 0)
(1.00291 -0.0230132 0)
(0.979837 0.0228877 0)
(1.00753 0.0353992 0)
(1.02874 0.00337107 0)
(1.00956 0.0119707 0)
(1.00892 0.0242041 0)
(1.02248 0.0170042 0)
(1.02898 0.00989274 0)
(1.02281 0.00799108 0)
(1.02185 0.00763915 0)
(1.02094 0.00642301 0)
(1.02214 0.00454716 0)
(1.01814 0.00379531 0)
(1.03612 0.000889564 0)
(1.03585 -0.00246319 0)
(1.03578 -0.00434901 0)
(1.03286 -0.00818428 0)
(1.02998 -0.00835339 0)
(1.02596 -0.0113954 0)
(1.02207 -0.0094288 0)
(1.01911 -0.0102296 0)
(1.01586 -0.00720688 0)
(1.01454 -0.00436985 0)
(1.01438 -0.00212311 0)
(1.01506 0.00247151 0)
(1.02048 0.00192773 0)
(1.02199 0.000338455 0)
(1.02372 -0.00315166 0)
(1.0234 -0.0102651 0)
(1.01611 -0.0109053 0)
(1.0115 -0.0156142 0)
(0.99816 -0.00607291 0)
(1.00206 0.00300318 0)
(1.00283 0.00766594 0)
(1.01168 0.0199503 0)
(1.029 0.00386422 0)
(1.01808 -0.000412108 0)
(1.0173 -0.00426957 0)
(1.00278 -0.0109468 0)
(0.993053 0.0177148 0)
(1.01703 0.0220631 0)
(1.02066 0.00649242 0)
(1.0095 0.015903 0)
(1.01751 0.0204453 0)
(1.02606 0.0137695 0)
(1.02864 0.0102447 0)
(1.02592 0.00893403 0)
(1.0264 0.00765518 0)
(1.02636 0.00642142 0)
(1.02682 0.00504945 0)
(1.02452 0.00443895 0)
(1.0307 0.00261872 0)
(1.03023 0.000436048 0)
(1.03092 -0.000971103 0)
(1.02853 -0.00354353 0)
(1.0274 -0.00388679 0)
(1.02424 -0.00605431 0)
(1.02237 -0.00502219 0)
(1.02012 -0.00603825 0)
(1.01829 -0.00421196 0)
(1.01745 -0.00345206 0)
(1.01663 -0.00202775 0)
(1.01741 -0.000236987 0)
(1.01854 -0.000504185 0)
(1.02006 -0.00123936 0)
(1.01964 -0.00292088 0)
(1.01944 -0.00612941 0)
(1.01497 -0.00667355 0)
(1.01219 -0.00861538 0)
(1.00489 -0.00330436 0)
(1.00737 0.00147953 0)
(1.00729 0.00450785 0)
(1.01231 0.0119104 0)
(1.02128 0.00272867 0)
(1.01448 0.000955076 0)
(1.01637 -0.00128809 0)
(1.00683 -0.00461881 0)
(1.00269 0.0136611 0)
(1.01737 0.0155453 0)
(1.01589 0.00701601 0)
(1.01228 0.013875 0)
(1.02039 0.0163124 0)
(1.02483 0.0122103 0)
(1.02671 0.00988983 0)
(1.02649 0.00851583 0)
(1.02713 0.00705829 0)
(1.02728 0.00610225 0)
(1.02749 0.0051092 0)
(1.02625 0.00460819 0)
(1.02635 0.00372222 0)
(1.02602 0.00225949 0)
(1.02684 0.00118215 0)
(1.02515 -0.000535108 0)
(1.02485 -0.000997969 0)
(1.02253 -0.00250323 0)
(1.02172 -0.00215834 0)
(1.02 -0.003069 0)
(1.01906 -0.0022231 0)
(1.0184 -0.00224614 0)
(1.01747 -0.00152548 0)
(1.01796 -0.00101468 0)
(1.01755 -0.00114123 0)
(1.01857 -0.00142362 0)
(1.01729 -0.00243804 0)
(1.01731 -0.00364226 0)
(1.01435 -0.00392619 0)
(1.01315 -0.00439573 0)
(1.00899 -0.00143316 0)
(1.01033 0.00126589 0)
(1.01001 0.0030794 0)
(1.01251 0.00693819 0)
(1.01763 0.00275096 0)
(1.01368 0.0024634 0)
(1.01544 0.00174859 0)
(1.0094 0.000637755 0)
(1.00758 0.0101776 0)
(1.01695 0.0114721 0)
(1.01539 0.00820305 0)
(1.01444 0.0128521 0)
(1.02006 0.0137909 0)
(1.02305 0.0112528 0)
(1.0252 0.00969295 0)
(1.02603 0.00848562 0)
(1.02655 0.00699549 0)
(1.02683 0.00614751 0)
(1.02699 0.00542836 0)
(1.02642 0.00494898 0)
(1.02278 0.00432536 0)
(1.02268 0.00326764 0)
(1.0234 0.00249259 0)
(1.02237 0.00128537 0)
(1.02234 0.000813078 0)
(1.02078 -0.000252302 0)
(1.02043 -0.000314672 0)
(1.01922 -0.00100757 0)
(1.01877 -0.000838564 0)
(1.01817 -0.000994441 0)
(1.01746 -0.000946868 0)
(1.01759 -0.000666329 0)
(1.01684 -0.00107163 0)
(1.01739 -0.000944822 0)
(1.01605 -0.00167564 0)
(1.01617 -0.00191433 0)
(1.01408 -0.00194338 0)
(1.01369 -0.00205783 0)
(1.01117 -0.000227601 0)
(1.01186 0.000987321 0)
(1.01176 0.00236578 0)
(1.01268 0.00434263 0)
(1.01537 0.00255987 0)
(1.01321 0.00278113 0)
(1.01448 0.00237055 0)
(1.01165 0.00268304 0)
(1.01101 0.00788685 0)
(1.01609 0.00921286 0)
(1.01506 0.00776908 0)
(1.01578 0.0103349 0)
(1.01956 0.0112803 0)
(1.02175 0.0100016 0)
(1.02373 0.00879544 0)
(1.02509 0.00778696 0)
(1.02568 0.00641558 0)
(1.02613 0.00571546 0)
(1.02624 0.00522223 0)
(1.02614 0.00484148 0)
(1.01987 0.00454356 0)
(1.01996 0.00371726 0)
(1.02048 0.00320903 0)
(1.01995 0.00229857 0)
(1.01999 0.001893 0)
(1.01905 0.00112434 0)
(1.01887 0.000860926 0)
(1.0181 0.000405868 0)
(1.01785 0.000144021 0)
(1.01741 0.000113455 0)
(1.0169 -0.000315293 0)
(1.01684 5.18532e-05 0)