/*--------------------------------*- C++ -*----------------------------------*\
| =========                 |                                                 |
| \\      /  F ield         | OpenFOAM: The Open Source CFD Toolbox           |
|  \\    /   O peration     | Version:  2512                                  |
|   \\  /    A nd           | Website:  www.openfoam.com                      |
|    \\/     M anipulation  |                                                 |
\*---------------------------------------------------------------------------*/
FoamFile
{
    version     2.0;
    format      ascii;
    arch        "LSB;label=32;scalar=64";
    class       surfaceScalarField;
    location    "198.45";
    object      phi;
}
// * * * * * * * * * * * * * * * * * * * * * * * * * * * * * * * * * * * * * //

dimensions      [0 3 -1 0 0 0 0];

oriented        oriented;

internalField   nonuniform List<scalar> 
26232
(
-0.0005273
0.00129893
-0.000771631
-0.00139173
0.00278361
-0.00191919
-0.00205688
0.00341505
-0.0027499
-0.00205356
0.00315126
-0.00315458
-0.000931242
0.00183533
-0.00295765
0.0017617
-0.000747543
-0.0019454
0.00641804
-0.00479468
0.000138345
0.0134437
-0.01041
0.00338428
0.0229889
-0.0175485
0.00800335
0.0349888
-0.0259592
0.0139593
0.0490929
-0.0352266
0.0211225
0.0646973
-0.0448468
0.0292424
0.0810223
-0.0543122
0.0379872
0.0972162
-0.0631842
0.0469903
0.112469
-0.0711423
0.0558894
0.12611
-0.0780118
0.0643711
0.137719
-0.0837701
0.072161
0.147131
-0.0885455
0.0791337
0.154598
-0.0925583
0.0850909
0.16043
-0.0961926
0.0903611
0.165466
-0.0995387
0.0945027
0.169835
-0.103369
0.0989999
0.173872
-0.10636
0.102323
-0.111047
0.107675
0.177244
-0.00030619
0.00160512
-0.000667022
0.00314444
-0.000558144
0.00330617
0.00053562
0.0020575
0.00313239
-0.000761445
0.00772137
-0.00533652
0.014693
-0.0117664
0.0242207
-0.0199376
0.0361393
-0.0294671
0.0499325
-0.0397525
0.0648063
-0.0501003
0.0798295
-0.05987
0.0940984
-0.0685811
0.106885
-0.0759705
0.117744
-0.0820012
0.126569
-0.086837
0.133575
-0.0907766
0.139215
-0.0941853
0.144037
-0.0973803
0.148458
-0.100614
0.152833
-0.103913
0.156897
-0.107434
0.161196
-0.110659
-0.114748
0.164897
-9.78975e-05
0.00170302
7.91941e-05
0.00296735
0.00105768
0.00232768
0.00339882
-0.000283632
0.00766479
-0.00502742
0.0143099
-0.0119816
0.0235261
-0.0209825
0.0350891
-0.0315007
0.0483365
-0.0427144
0.0623011
-0.0537171
0.0759381
-0.0637372
0.0883509
-0.0722829
0.0989599
-0.0791901
0.107578
-0.0845889
0.114391
-0.0888138
0.119838
-0.0922842
0.124449
-0.0953875
0.128669
-0.0984057
0.132755
-0.101465
0.136784
-0.104643
0.140695
-0.107824
0.144477
-0.111215
0.148149
-0.114331
-0.118146
0.151546
6.78625e-05
0.00163516
0.000763042
0.00227217
0.00265817
0.000432549
0.00636526
-0.00399072
0.0124179
-0.0110801
0.0210776
-0.0206413
0.032102
-0.032007
0.0447087
-0.0441075
0.0577774
-0.0557831
0.0701745
-0.0661143
0.0810449
-0.0746076
0.089975
-0.081213
0.0970057
-0.0862208
0.102513
-0.0900966
0.107016
-0.0933165
0.110982
-0.0962503
0.114718
-0.0991237
0.118345
-0.102032
0.121895
-0.105016
0.125324
-0.108073
0.128708
-0.111208
0.131982
-0.114489
0.135317
-0.117666
-0.121442
0.138613
0.000212462
0.00142269
0.00143928
0.00104535
0.00432953
-0.0024577
0.00950378
-0.00916497
0.0173333
-0.0189096
0.0276284
-0.0309364
0.0395339
-0.0439124
0.0517897
-0.0563633
0.0631748
-0.0671682
0.0728657
-0.0758052
0.0805813
-0.0823232
0.0865156
-0.0871473
0.0911345
-0.0908397
0.094946
-0.093908
0.0983381
-0.0967086
0.101533
-0.0994454
0.104623
-0.102213
0.107649
-0.105059
0.110629
-0.107996
0.113597
-0.11104
0.116566
-0.114177
0.1195
-0.117424
0.122497
-0.120662
-0.124263
0.125318
0.000377201
0.00104549
0.00220374
-0.000781181
0.00618846
-0.00644242
0.012854
-0.0158305
0.0221611
-0.0282167
0.033268
-0.0420433
0.0447971
-0.0554415
0.0554133
-0.0669795
0.0642752
-0.0760301
0.071167
-0.082697
0.0763589
-0.0875151
0.080345
-0.0911334
0.0836064
-0.0941012
0.0864873
-0.0967889
0.0891856
-0.0994069
0.0917996
-0.102059
0.0943804
-0.104794
0.0969478
-0.107626
0.0995106
-0.110559
0.102056
-0.113586
0.10458
-0.116701
0.10707
-0.119914
0.109577
-0.123169
-0.126694
0.112008
0.000589486
0.000456007
0.00310719
-0.00329888
0.00824216
-0.0115774
0.0162122
-0.0238005
0.0263352
-0.0383397
0.0371717
-0.0528798
0.0472299
-0.0654998
0.0555666
-0.0753162
0.0619448
-0.0824083
0.0666458
-0.087398
0.070165
-0.0910343
0.0729714
-0.0939398
0.0753998
-0.0965296
0.0776493
-0.0990383
0.0798225
-0.10158
0.0819658
-0.104203
0.0840914
-0.10692
0.0861996
-0.109734
0.0882863
-0.112646
0.0903559
-0.115655
0.0924207
-0.118766
0.0944762
-0.12197
0.0965599
-0.125253
-0.128707
0.0985729
0.000853384
-0.000397377
0.00412739
-0.00657289
0.0103392
-0.0177892
0.0191584
-0.0326198
0.0292223
-0.0484036
0.0388566
-0.0625141
0.0469096
-0.0735527
0.0530212
-0.0814279
0.0574249
-0.0868119
0.0606059
-0.090579
0.0630397
-0.0934681
0.0650738
-0.0959738
0.0669174
-0.0983732
0.0686765
-0.100798
0.0703955
-0.103299
0.0720878
-0.105895
0.0737583
-0.10859
0.0754106
-0.111386
0.0770504
-0.114285
0.078682
-0.117287
0.080302
-0.120386
0.0819098
-0.123577
0.083516
-0.126859
-0.130255
0.0850637
0.00115452
-0.00155189
0.00518213
-0.0106005
0.0122223
-0.0248293
0.0212468
-0.0416443
0.0304601
-0.0576169
0.0383949
-0.0704488
0.0444443
-0.0796021
0.0487219
-0.0857055
0.051685
-0.0897751
0.0538257
-0.0927197
0.0555182
-0.0951606
0.0569905
-0.0974462
0.0583583
-0.0997409
0.0596706
-0.10211
0.0609461
-0.104575
0.0621931
-0.107142
0.0634159
-0.109813
0.0646173
-0.112588
0.0657991
-0.115467
0.0669624
-0.11845
0.0681116
-0.121535
0.0692512
-0.124717
0.0703855
-0.127993
-0.131357
0.0714875
0.00147042
-0.00302231
0.00615618
-0.0152863
0.0136223
-0.0322955
0.0222042
-0.0502262
0.0300725
-0.0654851
0.0362231
-0.0765995
0.0405411
-0.0839201
0.0434119
-0.0885763
0.0453413
-0.0917045
0.0467421
-0.0941205
0.0478746
-0.096293
0.0488738
-0.0984454
0.0497997
-0.100667
0.0506765
-0.102987
0.0515143
-0.105412
0.0523175
-0.107945
0.0530891
-0.110585
0.0538329
-0.113332
0.0545532
-0.116187
0.0552543
-0.119151
0.0559372
-0.122218
0.0566024
-0.125382
0.0572489
-0.12864
-0.131973
0.0578655
0.00177099
-0.0047933
0.00692736
-0.0204426
0.0143509
-0.0397191
0.0220038
-0.0578791
0.0283443
-0.0718256
0.0328633
-0.0811185
0.0357828
-0.0868396
0.0375963
-0.0903898
0.0387623
-0.0928705
0.0395894
-0.0949477
0.0402449
-0.0969485
0.0408049
-0.0990054
0.0413007
-0.101163
0.0417445
-0.10343
0.0421418
-0.10581
0.0424969
-0.1083
0.0428142
-0.110902
0.0430981
-0.113616
0.0433525
-0.116442
0.0435795
-0.119378
0.0437818
-0.12242
0.0439604
-0.125561
0.0441119
-0.128791
-0.132099
0.0442379
0.0020286
-0.0068219
0.00740061
-0.0258147
0.0143536
-0.0466721
0.0208085
-0.064334
0.0256517
-0.0766688
0.0287774
-0.0842442
0.0305945
-0.0886567
0.0315979
-0.0913932
0.0321599
-0.0934325
0.0324961
-0.0952839
0.0327085
-0.0971609
0.0328388
-0.0991358
0.0329035
-0.101227
0.0329101
-0.103437
0.0328632
-0.105763
0.0327669
-0.108204
0.0326249
-0.11076
0.0324412
-0.113432
0.0322196
-0.11622
0.0319646
-0.119123
0.0316793
-0.122135
0.0313642
-0.125246
0.0310167
-0.128444
0.0306452
-0.131728
-0.00070507
-0.00618071
0.00688578
-0.00236078
-0.0111648
0.0128205
-0.00467653
-0.0121295
0.0144453
-0.00747801
-0.0111425
0.013944
-0.0106616
-0.0093811
0.0125646
-0.0141548
-0.0072866
0.0107798
-0.0179004
-0.00486727
0.00861288
-0.0218509
-0.00198213
0.00593266
-0.0258804
0.00144632
0.00258316
-0.0299908
0.00554365
-0.0014333
-0.0340976
0.0103509
-0.00624405
-0.0380926
0.0158915
-0.0118965
-0.0418615
0.0221411
-0.0183722
-0.0452734
0.0290265
-0.0256146
-0.0481752
0.0364188
-0.033517
-0.0503883
0.0441286
-0.0419156
-0.051704
0.0519019
-0.0505862
-0.0518822
0.0594209
-0.0592427
-0.0506531
0.066311
-0.0675401
-0.0477156
0.0721483
-0.0750859
-0.0427446
0.0764877
-0.0814587
-0.0354528
0.0789285
-0.0862203
-0.0256132
0.0790832
-0.0889228
0.0766611
-0.0130308
-0.0892436
-0.000826349
-0.00535436
-0.00260136
-0.00938977
-0.00497983
-0.00975107
-0.00781136
-0.00831101
-0.0110236
-0.00616883
-0.0145536
-0.00375657
-0.0183328
-0.00108809
-0.0222387
0.00192371
-0.0262197
0.00542734
-0.0301599
0.00948385
-0.0339358
0.0141267
-0.0373983
0.019354
-0.0403776
0.0251204
-0.0426813
0.0313302
-0.0440943
0.0378318
-0.0443792
0.0444135
-0.043281
0.0508037
-0.0405335
0.0566735
-0.0358708
0.0616482
-0.0290632
0.0653408
-0.019909
0.0673335
-0.00826887
0.0672884
0.0058299
0.0649844
0.0598128
0.0226782
-0.000825458
-0.00452891
-0.00250316
-0.00771206
-0.00467849
-0.00757575
-0.0072277
-0.0057618
-0.0101075
-0.00328901
-0.0132593
-0.000604796
-0.0165766
0.00222922
-0.0199615
0.00530865
-0.023278
0.0087438
-0.0263859
0.0125918
-0.029124
0.0168648
-0.0313057
0.0215357
-0.0327217
0.0265364
-0.033143
0.0317515
-0.032327
0.0370158
-0.0300258
0.0421124
-0.0259918
0.0467697
-0.020003
0.0506846
-0.0118702
0.0535154
-0.00145152
0.0549221
0.0112454
0.0546366
0.0263477
0.052186
0.0433099
0.0480222
0.0404419
0.0626808
-0.000735821
-0.00379309
-0.00216812
-0.00627976
-0.00395625
-0.00578762
-0.00599387
-0.00372417
-0.00825742
-0.00102547
-0.0107029
0.00184069
-0.0132209
0.00474719
-0.0156674
0.00775516
-0.017879
0.0109555
-0.0196853
0.0143981
-0.0209017
0.0180812
-0.0213255
0.0219595
-0.0207369
0.0259478
-0.0189044
0.029919
-0.0155896
0.033701
-0.0105785
0.0371013
-0.00367672
0.0398679
0.00528075
0.0417271
0.0163547
0.0424415
0.0296607
0.0416161
0.0449061
0.0393912
0.0622897
0.0348024
0.0809194
0.0293925
0.0200837
0.101278
-0.000607609
-0.00318548
-0.00174202
-0.00514535
-0.00307857
-0.00445106
-0.00450766
-0.00229509
-0.00601673
0.0004836
-0.00757137
0.00339533
-0.00907481
0.00625064
-0.0103694
0.00904971
-0.0112678
0.0118539
-0.011576
0.0147063
-0.0110975
0.0176026
-0.00962587
0.0204879
-0.00695949
0.0232814
-0.00289604
0.0258556
0.00274509
0.0280598
0.0101495
0.0296969
0.0194322
0.0305852
0.0306854
0.030474
0.043803
0.0293238
0.058893
0.0265262
0.0753694
0.0229147
0.0935829
0.0165889
0.112275
0.0107005
0.000260569
0.132098
-0.000492112
-0.00269337
-0.00137429
-0.00426317
-0.00232531
-0.00350004
-0.00320873
-0.00141167
-0.00399485
0.00126972
-0.00465723
0.0040577
-0.00512114
0.00671455
-0.00524632
0.0091749
-0.00484928
0.0114569
-0.00373101
0.013588
-0.00169391
0.0155655
0.00144306
0.0173509
0.00586574
0.0188588
0.0117329
0.0199884
0.0191803
0.0206124
0.0282858
0.0205914
0.0390908
0.0197802
0.0515623
0.0180025
0.0655623
0.0153238
0.0810547
0.0110338
0.097444
0.00652546
0.115253
-0.00121974
0.133155
-0.00720161
-0.0192068
0.152622
-0.000429954
-0.00226341
-0.00118229
-0.00351084
-0.00191962
-0.00276271
-0.00246318
-0.000868107
-0.00273922
0.00154576
-0.00271331
0.0040318
-0.00232828
0.00632952
-0.00147837
0.00832498
-1.52958e-05
0.00999378
0.00223318
0.0113395
0.0054415
0.0123572
0.00977388
0.0130186
0.0153644
0.0132682
0.0223214
0.0130315
0.0307184
0.0122154
0.0405754
0.0107344
0.0519158
0.0084398
0.0646167
0.00530158
0.078765
0.00117559
0.0941147
-0.00431594
0.110856
-0.0102161
0.128946
-0.0193094
0.14803
-0.0262854
-0.0403781
0.169201
-0.000444174
-0.00181924
-0.00122661
-0.0027284
-0.00197486
-0.00201447
-0.00246114
-0.000381831
-0.0025615
0.00164612
-0.00221552
0.00368582
-0.00137224
0.00548625
4.37419e-05
0.006909
0.00214348
0.00789404
0.00505386
0.00842916
0.0089124
0.00849866
0.0138522
0.00807874
0.0199946
0.00712581
0.0274488
0.00557731
0.0363136
0.00335053
0.0466789
0.000369096
0.0586668
-0.00354811
0.072307
-0.00833859
0.0878999
-0.0144174
0.105032
-0.0214484
0.124565
-0.0297486
0.145154
-0.0398987
0.168037
-0.0491681
-0.0637427
0.191401
-0.000531162
-0.00128808
-0.00148536
-0.0017742
-0.002442
-0.00105783
-0.00312734
0.000303505
-0.00337707
0.00189586
-0.00309669
0.00340543
-0.00221801
0.00460757
-0.000668226
0.00535922
0.00164949
0.00557632
0.00486952
0.00520913
0.0091519
0.00421627
0.01468
0.00255062
0.0216598
0.000146006
0.0303041
-0.00306696
0.04081
-0.00715535
0.0533782
-0.0121991
0.0680593
-0.0182292
0.0849674
-0.0252467
0.103931
-0.033381
0.124615
-0.0421326
0.147053
-0.0521861
0.169327
-0.0621725
0.192871
-0.0727123
-0.0840447
0.213173
-0.000650053
-0.000638022
-0.00182913
-0.000595126
-0.00306445
0.000177494
-0.00404564
0.0012847
-0.00456777
0.00241798
-0.0044844
0.00332206
-0.00366928
0.00379244
-0.00198107
0.003671
0.000762964
0.00283229
0.00478723
0.00118486
0.0103664
-0.00136289
0.017764
-0.00484694
0.0272315
-0.00932149
0.0389495
-0.014785
0.0529811
-0.021187
0.0692741
-0.0284921
0.087545
-0.0365
0.10752
-0.0452216
0.128384
-0.0542456
0.1498
-0.0635483
0.170464
-0.0728495
0.189572
-0.0812807
0.20679
-0.0899304
-0.0961723
0.218918
-0.000724856
8.68336e-05
-0.00203236
0.000712374
-0.00340963
0.00155477
-0.00450407
0.00237914
-0.00504533
0.00295923
-0.0047962
0.00307293
-0.0035103
0.00250655
-0.000916504
0.0010772
0.0032846
-0.00136881
0.00939539
-0.00492593
0.0176845
-0.00965196
0.0283365
-0.0154989
0.0413716
-0.0223567
0.0566392
-0.0300526
0.0738082
-0.0383559
0.092362
-0.0470459
0.111657
-0.0557952
0.130929
-0.0644929
0.149287
-0.0726045
0.166145
-0.0804061
0.180291
-0.0869955
0.192206
-0.0931959
0.200621
-0.0983451
-0.102008
0.206457
-0.000684797
-0.00189161
-0.00308674
-0.00386218
-0.00386059
-0.00273305
-8.81573e-05
0.00437332
0.0110079
0.0200412
0.0315118
0.0452553
0.0608858
0.0778235
0.0953569
0.112682
0.129048
0.143689
0.156175
0.16613
0.173637
0.179441
0.183419
0.189086
0.00747286
0.0962504
-0.116754
0.0298598
0.080577
-0.102964
0.052828
0.0590303
-0.0819984
0.0744639
0.0328215
-0.0544574
0.0929743
0.0038734
-0.0223838
0.108061
-0.0295335
0.0144466
0.120863
-0.0696386
0.0568371
0.131778
-0.112136
0.101221
0.139711
-0.147122
0.139188
0.144079
-0.167874
0.163506
0.145156
-0.174802
0.173725
0.143661
-0.174092
0.175587
0.141086
-0.171368
0.173943
0.138303
-0.167855
0.170639
0.134073
-0.166929
0.171159
0.127131
-0.174914
0.181856
0.119019
-0.188383
0.196495
0.113741
-0.187514
0.192792
0.113883
-0.150137
0.149995
0.11956
-0.074143
0.0684661
0.12909
0.020301
-0.0298306
0.140149
0.105598
-0.116657
0.149496
0.164857
-0.174204
0.155693
0.198092
-0.20429
0.159923
0.209631
-0.213861
0.162331
0.209193
-0.211601
0.161408
0.21667
-0.215747
0.156517
0.242339
-0.237448
0.148462
0.266338
-0.258283
0.138907
0.254485
-0.244929
0.130809
0.18788
-0.179783
0.127576
0.0750696
-0.071837
0.129879
-0.0503981
0.0480954
0.135709
-0.153611
0.147781
0.142171
-0.217574
0.211112
0.144989
-0.246989
0.244171
0.140494
-0.261514
0.26601
0.129892
-0.272216
0.282817
0.118298
-0.26241
0.274005
0.11112
-0.203328
0.210506
0.11236
-0.0945151
0.0932753
0.120428
0.0312357
-0.0393041
0.128171
0.138019
-0.145762
0.129305
0.219707
-0.220841
0.12499
0.284433
-0.280119
0.120201
0.3016
-0.29681
0.118513
0.255472
-0.253784
0.119712
0.139831
-0.141031
0.121877
-0.0138571
0.0116924
0.121018
-0.157258
0.158116
0.118181
-0.288082
0.290919
0.116322
-0.316566
0.318425
0.115558
-0.255698
0.256462
0.113427
-0.0866234
0.0887542
0.110404
0.158385
-0.155361
0.108111
0.283769
-0.281477
0.106169
0.354437
-0.352495
0.0998358
0.193816
-0.187482
0.0942712
-0.148808
0.154372
-0.138128
0.140363
0.0439977
0.0749309
0.065477
0.0590977
0.0862367
0.0382705
0.104548
0.0145104
0.119378
-0.010957
0.131075
-0.0412305
0.140666
-0.0792293
0.147758
-0.119228
0.151099
-0.150463
0.150638
-0.167413
0.147612
-0.171775
0.142943
-0.169423
0.137706
-0.166132
0.132769
-0.162918
0.126731
-0.160891
0.11771
-0.165893
0.107019
-0.177693
0.0993934
-0.179888
0.0989382
-0.149682
0.105966
-0.081171
0.118838
0.00742884
0.133445
0.0909914
0.145928
0.152374
0.155123
0.188897
0.162038
0.202717
0.166765
0.204466
0.168455
0.21498
0.166526
0.244268
0.160824
0.272039
0.152099
0.263209
0.143155
0.196825
0.137427
0.0807979
0.136426
-0.0493973
0.138673
-0.155857
0.142117
-0.221018
0.14317
-0.248042
0.137643
-0.255987
0.126211
-0.260785
0.114551
-0.250751
0.108604
-0.19738
0.111575
-0.0974868
0.120891
0.0219195
0.129113
0.129797
0.130813
0.218008
0.127173
0.288073
0.122305
0.306467
0.120038
0.257739
0.120749
0.13912
0.122695
-0.0158032
0.121193
-0.155756
0.11737
-0.284258
0.115272
-0.314468
0.114608
-0.255034
0.113748
-0.0857633
0.111648
0.160485
0.110189
0.285229
0.108669
0.355956
0.100689
0.201795
0.0940687
-0.142187
-0.136833
0.0818801
0.0557316
0.100337
0.0406405
0.11706
0.0215475
0.131081
0.000489794
0.142208
-0.0220837
0.151105
-0.0501276
0.157978
-0.0861029
0.161639
-0.122888
0.160844
-0.149668
0.156114
-0.162683
0.149565
-0.165226
0.142398
-0.162257
0.13498
-0.158714
0.128226
-0.156164
0.121142
-0.153807
0.11096
-0.155711
0.0981202
-0.164853
0.0879701
-0.169738
0.0862599
-0.147972
0.094192
-0.0891031
0.109407
-0.00778618
0.126767
0.0736316
0.142171
0.13697
0.154306
0.176762
0.163911
0.193111
0.17116
0.197217
0.175747
0.210394
0.177055
0.24296
0.174028
0.275067
0.166445
0.270792
0.156685
0.206584
0.148296
0.0891867
0.143801
-0.0449019
0.142385
-0.154442
0.142629
-0.221262
0.141984
-0.247398
0.135879
-0.249882
0.123888
-0.248793
0.111961
-0.238824
0.106927
-0.192346
0.111288
-0.101848
0.121681
0.0115262
0.13058
0.120898
0.133115
0.215473
0.130166
0.291023
0.12507
0.311563
0.122023
0.260785
0.122155
0.138989
0.123981
-0.0176295
0.121985
-0.15376
0.117111
-0.279384
0.114635
-0.311992
0.114105
-0.254504
0.114553
-0.0862112
0.113456
0.161582
0.112808
0.285877
0.111768
0.356996
0.102399
0.211164
0.0946886
-0.134477
-0.13615
0.117066
0.0399429
0.131432
0.0262751
0.143472
0.00950704
0.153472
-0.00951004
0.161529
-0.0301405
0.168645
-0.057244
0.173447
-0.0909048
0.173582
-0.123023
0.168632
-0.144719
0.160225
-0.154275
0.150778
-0.155779
0.141734
-0.153213
0.132905
-0.149885
0.124603
-0.147861
0.116779
-0.145984
0.106678
-0.14561
0.0929977
-0.151172
0.0804947
-0.157235
0.0766027
-0.14408
0.084193
-0.0966934
0.100391
-0.0239838
0.119864
0.0541584
0.137793
0.11904
0.152669
0.161887
0.164864
0.180915
0.174685
0.187397
0.182406
0.202673
0.187334
0.238032
0.187421
0.274979
0.181356
0.276857
0.170869
0.217071
0.159846
0.10021
0.151891
-0.0369474
0.14692
-0.14947
0.143796
-0.218139
0.141255
-0.244857
0.134915
-0.243541
0.12279
-0.236669
0.110475
-0.226509
0.105799
-0.18767
0.111193
-0.107242
0.122646
7.33024e-05
0.132498
0.111046
0.136098
0.211873
0.133846
0.293274
0.128445
0.316965
0.124485
0.264745
0.123934
0.13954
0.125704
-0.019399
0.123382
-0.151439
0.117428
-0.273429
0.114421
-0.308985
0.114012
-0.254096
0.115783
-0.0879822
0.115762
0.161603
0.115892
0.285747
0.115431
0.357457
0.104947
0.221648
0.0961525
-0.125682
-0.135836
0.144647
0.0273936
0.155478
0.0154444
0.164077
0.0009079
0.171246
-0.0166785
0.177763
-0.0366577
0.183516
-0.0629974
0.185827
-0.0932155
0.182192
-0.119388
0.173346
-0.135872
0.162029
-0.142959
0.150601
-0.144351
0.140364
-0.142975
0.130986
-0.140507
0.122027
-0.138902
0.113735
-0.137692
0.104222
-0.136097
0.0909702
-0.13792
0.0768866
-0.143151
0.0701737
-0.137367
0.0760534
-0.102573
0.0920512
-0.0399816
0.112743
0.0334665
0.132666
0.0991174
0.149852
0.144701
0.164277
0.16649
0.176578
0.175097
0.187494
0.191756
0.196185
0.229341
0.199905
0.271259
0.196301
0.280461
0.185673
0.227699
0.171919
0.113965
0.160434
-0.0254622
0.151995
-0.141031
0.145525
-0.211669
0.140912
-0.240244
0.134558
-0.237186
0.122775
-0.224886
0.110017
-0.213751
0.105108
-0.182761
0.111083
-0.113217
0.123555
-0.0123985
0.134674
0.0999268
0.139725
0.206822
0.138356
0.294643
0.132588
0.322733
0.127546
0.269788
0.126127
0.140959
0.127826
-0.0210979
0.125354
-0.148968
0.118313
-0.266388
0.114631
-0.305304
0.114276
-0.253741
0.11739
-0.0910958
0.118495
0.160497
0.119363
0.28488
0.119597
0.357222
0.108304
0.232941
0.0984453
-0.115823
-0.13568
0.162998
0.0170179
0.171846
0.00659658
0.179936
-0.00718261
0.186216
-0.0229581
0.192109
-0.0425515
0.195955
-0.0668431
0.194694
-0.0919543
0.187107
-0.111801
0.175175
-0.12394
0.162033
-0.129817
0.149579
-0.131896
0.138652
-0.132049
0.129088
-0.130944
0.12
-0.129814
0.111583
-0.129275
0.103126
-0.12764
0.0914836
-0.126278
0.0769928
-0.128661
0.0671768
-0.127551
0.0698152
-0.105211
0.0843299
-0.0544963
0.105301
0.0124949
0.126607
0.0778117
0.145628
0.12568
0.161933
0.150184
0.176396
0.160634
0.190245
0.177907
0.202711
0.216876
0.210181
0.263788
0.209309
0.281334
0.199755
0.237253
0.184261
0.129459
0.169209
-0.0104105
0.157338
-0.12916
0.147698
-0.202029
0.140791
-0.233337
0.134438
-0.230833
0.123535
-0.213984
0.110465
-0.200681
0.104737
-0.177032
0.110739
-0.119219
0.124173
-0.0258318
0.136887
0.0872128
0.143678
0.20003
0.143393
0.294928
0.137404
0.328722
0.13128
0.275912
0.128781
0.143458
0.130304
-0.0226206
0.127846
-0.14651
0.119741
-0.258283
0.115244
-0.300806
0.11484
-0.253337
0.11929
-0.0955457
0.121565
0.158223
0.123118
0.283326
0.124181
0.356159
0.112408
0.244715
0.101535
-0.10495
-0.135498
0.178628
0.007591
0.187468
-0.00224311
0.194993
-0.0147078
0.200836
-0.0288018
0.204943
-0.0466579
0.205112
-0.067012
0.19922
-0.0860622
0.187922
-0.100504
0.174029
-0.110047
0.160231
-0.116019
0.147701
-0.119366
0.136679
-0.121027
0.127229
-0.121493
0.118488
-0.121073
0.110018
-0.120805
0.102228
-0.11985
0.0929834
-0.117033
0.0799758
-0.115653
0.067873
-0.115448
0.0659979
-0.103336
0.0774114
-0.0659098
0.0976307
-0.00772441
0.119698
0.0557446
0.140028
0.105351
0.157671
0.13254
0.173804
0.144501
0.19024
0.161471
0.206244
0.200872
0.21773
0.252303
0.220363
0.278701
0.212419
0.245196
0.196011
0.145867
0.177766
0.00783489
0.162535
-0.11393
0.150107
-0.189601
0.140826
-0.224057
0.134267
-0.224274
0.1247
-0.204417
0.111685
-0.187666
0.104674
-0.170022
0.110019
-0.124564
0.124273
-0.0400856
0.138849
0.0726363
0.147844
0.191036
0.149135
0.293637
0.143117
0.334741
0.135855
0.283174
0.131978
0.147334
0.133096
-0.0237379
0.130774
-0.144189
0.121666
-0.249174
0.116227
-0.295368
0.115634
-0.252745
0.121399
-0.10131
0.124889
0.154732
0.127064
0.281152
0.129079
0.354145
0.117174
0.256619
0.105379
-0.093155
-0.135139
0.198844
0.000147973
0.205743
-0.0091421
0.210706
-0.0196701
0.213512
-0.031608
0.213231
-0.0463772
0.208139
-0.06192
0.197879
-0.0758023
0.184417
-0.0870412
0.170246
-0.0958761
0.156899
-0.102672
0.144942
-0.107409
0.134306
-0.110391
0.125072
-0.11226
0.116929
-0.11293
0.108939
-0.112814
0.101437
-0.112349
0.0941502
-0.109747
0.0841181
-0.105621
0.0718809
-0.103211
0.0655408
-0.0969962
0.0722419
-0.0726109
0.089771
-0.0252535
0.11195
0.0335657
0.133096
0.0842046
0.151617
0.11402
0.168854
0.127263
0.18717
0.143155
0.206194
0.181849
0.221423
0.237073
0.227267
0.272857
0.221248
0.251216
0.205154
0.16196
0.184803
0.0281863
0.167087
-0.0962131
0.152444
-0.174958
0.140916
-0.212529
0.1338
-0.217157
0.125842
-0.196459
0.11347
-0.175294
0.104982
-0.161534
0.108921
-0.128503
0.123664
-0.054829
0.140244
0.0560571
0.151677
0.179602
0.154937
0.290377
0.149431
0.340246
0.141261
0.291344
0.135775
0.15282
0.136167
-0.0241301
0.134035
-0.142057
0.124023
-0.239162
0.117536
-0.28888
0.116616
-0.251825
0.123616
-0.10831
0.128365
0.149984
0.131081
0.278436
0.13416
0.351065
0.122493
0.268286
0.109918
-0.0805796
-0.134485
0.216927
-0.00360618
0.219384
-0.0115995
0.219693
-0.0199784
0.217659
-0.0295745
0.212309
-0.0410271
0.203117
-0.0527281
0.191043
-0.0637279
0.177865
-0.0738634
0.164862
-0.0828736
0.15256
-0.0903695
0.141348
-0.0961976
0.131355
-0.100398
0.12249
-0.103395
0.114798
-0.105238
0.107583
-0.105599
0.100451
-0.105216
0.0941862
-0.103482
0.0873263
-0.098761
0.0774945
-0.0933792
0.0687049
-0.0882066
0.0696876
-0.0735936
0.0829863
-0.0385522
0.103847
0.0127048
0.125205
0.0628469
0.144211
0.0950135
0.161819
0.109655
0.181049
0.123926
0.202621
0.160277
0.221856
0.217839
0.232003
0.262709
0.229031
0.254188
0.213479
0.177512
0.190841
0.050824
0.170819
-0.0761911
0.154477
-0.158616
0.141009
-0.199061
0.132921
-0.209069
0.126555
-0.190094
0.115491
-0.164229
0.105701
-0.151745
0.107532
-0.130333
0.122139
-0.069436
0.140789
0.0374067
0.15515
0.165241
0.16101
0.284517
0.156512
0.344745
0.147518
0.300337
0.140166
0.160172
0.139445
-0.0234091
0.137511
-0.140122
0.126723
-0.228375
0.119112
-0.281269
0.117722
-0.250435
0.125864
-0.116451
0.13193
0.143917
0.135094
0.275272
0.139301
0.346858
0.12824
0.279348
0.115081
-0.0674206
-0.13346
0.219407
-0.00409603
0.218052
-0.0102436
0.214671
-0.0165982
0.209399
-0.0243022
0.201754
-0.0333817
0.192021
-0.042996
0.181104
-0.0528099
0.169743
-0.0625034
0.158379
-0.0715093
0.147336
-0.0793258
0.137008
-0.08587
0.127732
-0.0911221
0.119404
-0.0950669
0.112019
-0.0978525
0.105476
-0.0990559
0.0990632
-0.0988035
0.0931866
-0.0976055
0.0883034
-0.0938778
0.0820923
-0.0871682
0.0741301
-0.0802444
0.0707739
-0.0702374
0.0784637
-0.046242
0.0960277
-0.00485923
0.116531
0.0423436
0.135413
0.0761312
0.15291
0.0921581
0.172393
0.104443
0.195097
0.137573
0.216932
0.196003
0.230814
0.248828
0.231069
0.253932
0.217166
0.191414
0.194872
0.0731181
0.173502
-0.054821
0.155923
-0.141036
0.140916
-0.184054
0.131506
-0.199659
0.126472
-0.18506
0.117314
-0.155071
0.106727
-0.141158
0.106003
-0.129609
0.119699
-0.0831316
0.140063
0.0170423
0.157302
0.148002
0.16625
0.275569
0.163817
0.347178
0.154533
0.309621
0.145178
0.169526
0.142908
-0.0211384
0.141083
-0.138297
0.129654
-0.216947
0.120877
-0.272492
0.118915
-0.248473
0.128039
-0.125575
0.135472
0.136484
0.138986
0.271758
0.144359
0.341485
0.134281
0.289426
0.120786
-0.0539252
-0.132031
0.20577
-0.00340904
0.203383
-0.00785712
0.199518
-0.0127329
0.19428
-0.0190644
0.187545
-0.0266466
0.179577
-0.0350276
0.170687
-0.04392
0.161082
-0.0528985
0.151081
-0.0615082
0.141169
-0.0694145
0.131754
-0.0764549
0.12313
-0.0824976
0.115342
-0.0872787
0.108279
-0.0907893
0.102089
-0.0928667
0.0964961
-0.0932103
0.091169
-0.0922784
0.0869795
-0.0896883
0.0835207
-0.0837094
0.078666
-0.0753897
0.0743727
-0.0659441
0.0773457
-0.049215
0.0903259
-0.0178395
0.108792
0.0238778
0.126793
0.0581294
0.1433
0.0756512
0.161745
0.0859983
0.185329
0.113989
0.210729
0.170604
0.228684
0.230873
0.232217
0.2504
0.220238
0.203393
0.197416
0.0959401
0.17444
-0.031845
0.156235
-0.122831
0.14045
-0.16827
0.129603
-0.188811
0.125429
-0.180886
0.118598
-0.14824
0.107898
-0.130458
0.10443
-0.126141
0.116275
-0.0949763
0.138088
-0.00477023
0.158728
0.127362
0.171143
0.263154
0.171062
0.347259
0.161844
0.318839
0.150542
0.180829
0.146375
-0.0169717
0.144602
-0.136523
0.132805
-0.20515
0.122812
-0.262498
0.120126
-0.245788
0.130084
-0.135533
0.138976
0.127592
0.142746
0.267988
0.149243
0.334987
0.140486
0.298182
0.126944
-0.0403824
-0.130212
0.18839
-0.00271356
0.186468
-0.00593431
0.183671
-0.00993626
0.179755
-0.0151488
0.174561
-0.0214521
0.168206
-0.028673
0.160803
-0.0365167
0.152566
-0.0446611
0.143859
-0.0528013
0.135111
-0.0606666
0.126661
-0.0680055
0.118718
-0.0745545
0.111425
-0.0799856
0.104787
-0.0841513
0.0988516
-0.0869312
0.0937172
-0.0880759
0.0890635
-0.0876246
0.0851098
-0.0857346
0.0825703
-0.0811698
0.0803746
-0.0731941
0.0777693
-0.0633388
0.0783568
-0.0498024
0.086299
-0.0257817
0.101179
0.00899751
0.117478
0.0418306
0.132605
0.0605248
0.149064
0.0695391
0.170551
0.0925018
0.196068
0.145086
0.218297
0.208644
0.227814
0.240882
0.219696
0.211511
0.198828
0.116809
0.175871
-0.00888804
0.156862
-0.103822
0.140478
-0.151886
0.128043
-0.176377
0.123917
-0.17676
0.119447
-0.14377
0.109205
-0.120216
0.103242
-0.120178
0.112529
-0.104263
0.134025
-0.0262661
0.157375
0.104011
0.17403
0.246499
0.177772
0.343517
0.169997
0.326613
0.156741
0.194085
0.150286
-0.0105168
0.148158
-0.134395
0.13632
-0.193312
0.124979
-0.251157
0.121505
-0.242314
0.131926
-0.145954
0.142283
0.117234
0.146251
0.26402
0.153805
0.327433
0.146705
0.305282
0.13348
-0.0271566
-0.128019
0.209816
-0.00240128
-0.210128
0.210079
-0.00619751
0.210322
-0.010179
0.2101
-0.0149274
0.209184
-0.0205354
0.207449
-0.0269381
0.204847
-0.0339149
0.201403
-0.0412172
0.197188
-0.0485859
0.19226
-0.055739
0.186685
-0.0624302
0.180525
-0.0683945
0.173847
-0.0733081
0.166809
-0.0771133
0.159471
-0.0795933
0.151974
-0.0805788
0.144469
-0.080119
0.136734
-0.0779996
0.129058
-0.0734944
0.12177
-0.0659064
0.113892
-0.0554602
0.105553
-0.0414633
0.100504
-0.0207332
0.10153
0.0079722
0.108282
0.035078
0.118524
0.0502827
0.129775
0.0582883
0.140881
0.0813953
0.152972
0.132995
0.16628
0.195337
0.178471
0.228691
0.188178
0.201804
0.193763
0.111224
0.193743
-0.00886806
0.188771
-0.0988507
0.178185
-0.1413
0.164488
-0.16268
0.155023
-0.167294
0.14573
-0.134477
0.131965
-0.106451
0.120654
-0.108868
0.120395
-0.104004
0.129482
-0.0353528
0.139768
0.093725
0.147997
0.238271
0.151798
0.339716
0.15339
0.325021
0.153449
0.194025
0.155617
-0.012685
0.157414
-0.136192
0.146536
-0.182434
0.133486
-0.238106
0.125128
-0.233956
0.127536
-0.148361
0.131955
0.112816
0.133583
0.262391
0.141556
0.31946
0.138951
0.307888
0.127969
-0.0161747
-0.124227
0.218824
-0.00218182
-0.219044
0.218574
-0.00594703
0.218404
-0.0100095
0.217914
-0.0144373
0.216854
-0.0194749
0.215056
-0.0251408
0.212452
-0.0313109
0.209023
-0.0377881
0.20478
-0.0443424
0.199755
-0.0507144
0.193995
-0.0566703
0.187635
-0.0620344
0.180806
-0.0664786
0.173689
-0.069997
0.166477
-0.0723808
0.159187
-0.0732891
0.151958
-0.0728901
0.144809
-0.0708503
0.137621
-0.066306
0.130941
-0.0592271
0.124986
-0.0495046
0.118947
-0.0354246
0.113818
-0.0156039
0.11307
0.00872014
0.117631
0.0305165
0.12611
0.0418042
0.136421
0.0479771
0.147505
0.0703119
0.160598
0.119902
0.175218
0.180717
0.188627
0.215282
0.199845
0.190586
0.207184
0.103885
0.207442
-0.00912671
0.201295
-0.0927032
0.189723
-0.129728
0.174903
-0.147859
0.164701
-0.157092
0.15624
-0.126016
0.143169
-0.0933798
0.130746
-0.0964453
0.12906
-0.102318
0.138312
-0.0446044
0.150652
0.0813849
0.161614
0.227308
0.168066
0.333265
0.171276
0.321811
0.170954
0.194348
0.171445
-0.0131763
0.172327
-0.137074
0.159818
-0.169925
0.144831
-0.22312
0.135454
-0.224579
0.138277
-0.151184
0.143666
0.107427
0.145112
0.260945
0.154011
0.310561
0.152884
0.309015
0.141731
-0.00502101
-0.119773
0.22743
-0.0022034
-0.227408
0.227209
-0.0057259
0.226824
-0.00962431
0.226152
-0.0137662
0.225
-0.0183223
0.223206
-0.0233471
0.220689
-0.0287939
0.217425
-0.0345235
0.213412
-0.0403299
0.208707
-0.0460091
0.203363
-0.051326
0.197489
-0.0561606
0.19122
-0.0602097
0.184633
-0.0634102
0.177854
-0.0656013
0.170925
-0.0663609
0.163845