/*--------------------------------*- C++ -*----------------------------------*\
| =========                 |                                                 |
| \\      /  F ield         | OpenFOAM: The Open Source CFD Toolbox           |
|  \\    /   O peration     | Version:  2312                                  |
|   \\  /    A nd           | Website:  www.openfoam.com                      |
|    \\/     M anipulation  |                                                 |
\*---------------------------------------------------------------------------*/
FoamFile
{
    version     2.0;
    format      ascii;
    arch        "LSB;label=32;scalar=64";
    class       volScalarField;
    location    "70";
    object      p;
}
// * * * * * * * * * * * * * * * * * * * * * * * * * * * * * * * * * * * * * //

dimensions      [0 2 -2 0 0 0 0];

internalField   nonuniform List<scalar> 
32230
(
-0.24926
-0.250696
-0.251054
-0.250676
-0.24974
-0.248225
-0.246091
-0.243318
-0.239907
-0.235888
-0.231324
-0.226307
-0.220944
-0.215381
-0.209766
-0.20425
-0.198987
-0.194115
-0.18975
-0.185978
-0.182843
-0.180346
-0.178445
-0.177058
-0.176077
-0.175378
-0.174835
-0.174333
-0.173775
-0.173077
-0.172189
-0.171031
-0.169614
-0.167732
-0.165514
-0.162232
-0.158138
-0.250266
-0.251466
-0.251704
-0.251285
-0.250366
-0.248934
-0.246953
-0.2444
-0.241268
-0.237578
-0.233375
-0.228735
-0.223755
-0.218555
-0.213262
-0.208009
-0.202926
-0.198125
-0.193696
-0.189696
-0.186148
-0.183038
-0.180322
-0.177933
-0.175795
-0.173826
-0.17195
-0.1701
-0.168217
-0.166244
-0.164131
-0.161814
-0.159231
-0.156262
-0.152867
-0.148773
-0.144579
-0.252359
-0.253226
-0.253276
-0.252758
-0.251806
-0.250408
-0.248531
-0.246149
-0.243249
-0.239834
-0.235938
-0.231616
-0.226946
-0.222021
-0.216946
-0.21183
-0.206775
-0.201871
-0.197186
-0.192765
-0.188626
-0.184764
-0.181157
-0.177772
-0.174569
-0.171505
-0.16854
-0.165631
-0.162732
-0.159794
-0.156771
-0.15359
-0.150218
-0.146535
-0.142573
-0.138191
-0.133811
-0.255339
-0.255807
-0.255602
-0.254915
-0.253852
-0.25241
-0.250559
-0.248272
-0.245525
-0.242313
-0.238648
-0.234562
-0.230105
-0.225343
-0.220353
-0.215216
-0.210014
-0.204824
-0.199711
-0.194725
-0.189901
-0.18526
-0.180808
-0.176543
-0.172452
-0.168514
-0.164701
-0.160977
-0.157304
-0.153636
-0.149929
-0.14613
-0.142208
-0.138081
-0.133812
-0.129258
-0.124921
-0.259031
-0.259067
-0.258549
-0.257614
-0.256354
-0.254777
-0.252864
-0.250587
-0.247916
-0.244828
-0.241311
-0.237365
-0.233007
-0.228271
-0.223206
-0.217878
-0.212363
-0.206742
-0.201095
-0.195494
-0.189998
-0.184653
-0.179487
-0.174513
-0.169728
-0.165117
-0.160656
-0.156312
-0.15205
-0.147831
-0.143618
-0.139369
-0.135061
-0.130642
-0.126161
-0.121521
-0.117124
-0.263332
-0.262925
-0.262045
-0.260796
-0.259261
-0.25747
-0.25542
-0.253083
-0.250416
-0.247372
-0.243904
-0.239976
-0.235567
-0.230684
-0.225364
-0.219675
-0.213705
-0.20756
-0.201344
-0.195151
-0.189061
-0.183129
-0.177393
-0.171864
-0.166543
-0.161413
-0.15645
-0.151626
-0.146909
-0.142265
-0.137665
-0.133077
-0.128484
-0.123847
-0.119214
-0.114488
-0.110026
-0.268226
-0.267374
-0.2661
-0.264486
-0.262621
-0.260564
-0.258324
-0.255868
-0.253133
-0.250035
-0.246486
-0.242409
-0.237758
-0.232531
-0.226775
-0.220581
-0.214069
-0.20737
-0.20061
-0.193898
-0.187314
-0.180915
-0.174732
-0.168773
-0.163033
-0.157497
-0.152141
-0.14694
-0.141867
-0.136893
-0.131996
-0.12715
-0.122342
-0.117543
-0.112787
-0.107991
-0.103463
-0.273779
-0.272475
-0.270784
-0.268777
-0.266556
-0.264204
-0.261735
-0.259102
-0.256205
-0.252918
-0.24911
-0.244678
-0.239571
-0.233806
-0.227464
-0.220673
-0.213584
-0.206349
-0.199102
-0.191948
-0.184961
-0.178186
-0.171645
-0.165341
-0.159265
-0.153401
-0.147728
-0.142225
-0.136866
-0.131632
-0.1265
-0.121453
-0.116476
-0.111549
-0.106695
-0.101843
-0.097252
-0.280103
-0.278329
-0.276206
-0.273796
-0.271211
-0.268547
-0.265811
-0.262921
-0.259734
-0.256077
-0.251792
-0.246777
-0.241007
-0.234543
-0.227512
-0.220081
-0.212422
-0.204691
-0.197014
-0.189484
-0.182158
-0.17507
-0.16823
-0.161637
-0.155281
-0.149146
-0.143213
-0.137463
-0.131875
-0.126432
-0.121116
-0.11591
-0.110803
-0.105778
-0.100848
-0.0959539
-0.0913141
-0.287325
-0.285046
-0.28248
-0.27967
-0.276719
-0.273723
-0.27066
-0.267399
-0.263747
-0.259501
-0.254503
-0.248684
-0.242077
-0.2348
-0.227027
-0.218949
-0.210743
-0.202556
-0.194494
-0.18663
-0.179006
-0.171641
-0.16454
-0.157696
-0.151098
-0.144732
-0.13858
-0.132625
-0.12685
-0.121238
-0.115774
-0.110444
-0.105235
-0.100134
-0.0951447
-0.0902232
-0.0855452
-0.29555
-0.292724
-0.289705
-0.286498
-0.283176
-0.279808
-0.276322
-0.27253
-0.268199
-0.263123
-0.25718
-0.25037
-0.242798
-0.234642
-0.226109
-0.217397
-0.208672
-0.200057
-0.191637
-0.183464
-0.175562
-0.167941
-0.1606
-0.153531
-0.14672
-0.140152
-0.133814
-0.127687
-0.121758
-0.116009
-0.110428
-0.105
-0.0997134
-0.0945566
-0.0895264
-0.0845916
-0.0798873
-0.304845
-0.301428
-0.297946
-0.294342
-0.290625
-0.286812
-0.282764
-0.278239
-0.272986
-0.266834
-0.259743
-0.251798
-0.243183
-0.234121
-0.224832
-0.215505
-0.20628
-0.197255
-0.18849
-0.180016
-0.171846
-0.163981
-0.156415
-0.149137
-0.142133
-0.135389
-0.128889
-0.122618
-0.11656
-0.110701
-0.105027
-0.0995244
-0.0941808
-0.0889851
-0.083929
-0.0789933
-0.0742723
-0.315226
-0.311182
-0.30723
-0.303218
-0.299057
-0.294683
-0.289885
-0.284383
-0.277952
-0.270501
-0.262097
-0.252924
-0.243228
-0.233259
-0.223229
-0.213303
-0.203592
-0.194164
-0.185056
-0.176284
-0.167851
-0.159749
-0.151969
-0.144497
-0.137318
-0.130417
-0.123777
-0.117383
-0.111221
-0.105274
-0.0995288
-0.0939718
-0.08859
-0.0833718
-0.078306
-0.0733823
-0.0686554
-0.32666
-0.321962
-0.317535
-0.313088
-0.308396
-0.303297
-0.297515
-0.290769
-0.28291
-0.273971
-0.26414
-0.25369
-0.242908
-0.232046
-0.221294
-0.210783
-0.200592
-0.190763
-0.181313
-0.172245
-0.163552
-0.15522
-0.147236
-0.139583
-0.132245
-0.125205
-0.118445
-0.11195
-0.105703
-0.0996888
-0.0938924
-0.0882997
-0.0828974
-0.0776727
-0.0726136
-0.0677147
-0.0629945
-0.339041
-0.333688
-0.32878
-0.323852
-0.318502
-0.312463
-0.305426
-0.297165
-0.28766
-0.277092
-0.26577
-0.254033
-0.242183
-0.230452
-0.218998
-0.207914
-0.19725
-0.187023
-0.177234
-0.167873
-0.158925
-0.150372
-0.142196
-0.134377
-0.126897
-0.119735
-0.112875
-0.106298
-0.0999861
-0.0939239
-0.0880952
-0.082485
-0.0770792
-0.0718641
-0.0668283
-0.0619675
-0.0572696
-0.352213
-0.346218
-0.340821
-0.335334
-0.329153
-0.321919
-0.313343
-0.303318
-0.291998
-0.279721
-0.266895
-0.253895
-0.241013
-0.228446
-0.216312
-0.20467
-0.193541
-0.182921
-0.172798
-0.163152
-0.153959
-0.145197
-0.136843
-0.128874
-0.121268
-0.114004
-0.107061
-0.100421
-0.0940639
-0.0879723
-0.0821291
-0.0765184
-0.0711248
-0.0659341
-0.0609359
-0.0561231
-0.0514618
-0.365945
-0.35934
-0.353432
-0.347271
-0.340039
-0.33133
-0.320943
-0.308958
-0.295721
-0.281715
-0.267415
-0.253199
-0.23933
-0.225963
-0.213175
-0.200992
-0.189409
-0.178408
-0.167961
-0.15804
-0.148616
-0.139659
-0.131143
-0.123041
-0.115328
-0.10798
-0.100974
-0.0942892
-0.0879049
-0.0818017
-0.0759612
-0.0703661
-0.0649998
-0.0598476
-0.0548993
-0.0501405
-0.045526
-0.379941
-0.372763
-0.366302
-0.359312
-0.350778
-0.34031
-0.327875
-0.313783
-0.298578
-0.282858
-0.267128
-0.251749
-0.236938
-0.222805
-0.209388
-0.196683
-0.184665
-0.173298
-0.162544
-0.152367
-0.14273
-0.133599
-0.124942
-0.116728
-0.108928
-0.101517
-0.0944692
-0.0877608
-0.0813697
-0.0752748
-0.0694563
-0.0638952
-0.0585739
-0.0534771
-0.0485931
-0.0438973
-0.039345
-0.393863
-0.386169
-0.37911
-0.37112
-0.36102
-0.348506
-0.333795
-0.317461
-0.300239
-0.282811
-0.265686
-0.249185
-0.233472
-0.218609
-0.204594
-0.191397
-0.178971
-0.167267
-0.156236
-0.145833
-0.136013
-0.126737
-0.117968
-0.109672
-0.101816
-0.0943711
-0.0873098
-0.0806061
-0.0742358
-0.0681763
-0.0624062
-0.0569053
-0.0516548
-0.0466388
-0.0418424
-0.0372328
-0.0327808
-0.427596
-0.42936
-0.430422
-0.431428
-0.432834
-0.434793
-0.437355
-0.440537
-0.444327
-0.448695
-0.453592
-0.458943
-0.464648
-0.470592
-0.476639
-0.482614
-0.488326
-0.493567
-0.498113
-0.501741
-0.504233
-0.505394
-0.505063
-0.503132
-0.499553
-0.494358
-0.487665
-0.479682
-0.470707
-0.461115
-0.451347
-0.441894
-0.433265
-0.42591
-0.420133
-0.416191
-0.414563
-0.409477
-0.411377
-0.412345
-0.413048
-0.413962
-0.415244
-0.416957
-0.419124
-0.421741
-0.424781
-0.4282
-0.43192
-0.43587
-0.439947
-0.444035
-0.448002
-0.4517
-0.454972
-0.45766
-0.459611
-0.460689
-0.460783
-0.459823
-0.457789
-0.454719
-0.45072
-0.44597
-0.440716
-0.435267
-0.429978
-0.42523
-0.421409
-0.418878
-0.417932
-0.418729
-0.421335
-0.425964
-0.392058
-0.393984
-0.394808
-0.395192
-0.395608
-0.396218
-0.397091
-0.398259
-0.399721
-0.401454
-0.403413
-0.405556
-0.407802
-0.410072
-0.412279
-0.414326
-0.416111
-0.417531
-0.418491
-0.41891
-0.41873
-0.417924
-0.416506
-0.414536
-0.412128
-0.409451
-0.406724
-0.404213
-0.402214
-0.401036
-0.400976
-0.402294
-0.405189
-0.409777
-0.416034
-0.423798
-0.433079
-0.375594
-0.377446
-0.378094
-0.378162
-0.378105
-0.378082
-0.378168
-0.3784
-0.378782
-0.379296
-0.379909
-0.380576
-0.381243
-0.381851
-0.38234
-0.382647
-0.382718
-0.382503
-0.381969
-0.381104
-0.379921
-0.378468
-0.376831
-0.375139
-0.373559
-0.3723
-0.3716
-0.371716
-0.372908
-0.375415
-0.379437
-0.385108
-0.392477
-0.401496
-0.412002
-0.423617
-0.436158
-0.360247
-0.361947
-0.362401
-0.362178
-0.361697
-0.36111
-0.360493
-0.359889
-0.359308
-0.358737
-0.358151
-0.357516
-0.356793
-0.355947
-0.354942
-0.353756
-0.352373
-0.350795
-0.349046
-0.347172
-0.345249
-0.343386
-0.341726
-0.340443
-0.339741
-0.339844
-0.340984
-0.343391
-0.347271
-0.35279
-0.360046
-0.369064
-0.379769
-0.391981
-0.40545
-0.419762
-0.434205
-0.346091
-0.347582
-0.347842
-0.347367
-0.34653
-0.345467
-0.344255
-0.342938
-0.341532
-0.340032
-0.338421
-0.336678
-0.334779
-0.332709
-0.330461
-0.328043
-0.325478
-0.322812
-0.320115
-0.317482
-0.315038
-0.312936
-0.311357
-0.310502
-0.310588
-0.311838
-0.314467
-0.318657
-0.32456
-0.332267
-0.341793
-0.353067
-0.365929
-0.380117
-0.395256
-0.411134
-0.426367
-0.333124
-0.33438
-0.334461
-0.333784
-0.332667
-0.331228
-0.329536
-0.327637
-0.32555
-0.32328
-0.32082
-0.318159
-0.315291
-0.31222
-0.308963
-0.305554
-0.30205
-0.298532
-0.295105
-0.291904
-0.289085
-0.28683
-0.285341
-0.284832
-0.285512
-0.287594
-0.291262
-0.296658
-0.303873
-0.312933
-0.323789
-0.3363
-0.350239
-0.365339
-0.38105
-0.397447
-0.412651
-0.321289
-0.322313
-0.322244
-0.321422
-0.320107
-0.318391
-0.316335
-0.313979
-0.311347
-0.308453
-0.305301
-0.301892
-0.298237
-0.294356
-0.290285
-0.286085
-0.281837
-0.277646
-0.273646
-0.269995
-0.266876
-0.264479
-0.263018
-0.262701
-0.263733
-0.266298
-0.270547
-0.276585
-0.284455
-0.294133
-0.305516
-0.318433
-0.332587
-0.347772
-0.363288
-0.379421
-0.394111
-0.310498
-0.31132
-0.311141
-0.310234
-0.308799
-0.306902
-0.304585
-0.301885
-0.298827
-0.295431
-0.291715
-0.287696
-0.283397
-0.278855
-0.274124
-0.269283
-0.264432
-0.259696
-0.255222
-0.251189
-0.247787
-0.245219
-0.243689
-0.243399
-0.244538
-0.247267
-0.251707
-0.257926
-0.265932
-0.27567
-0.286997
-0.299743
-0.313552
-0.328305
-0.343201
-0.358656
-0.372618
-0.300649
-0.301323
-0.301084
-0.300148
-0.298665
-0.296669
-0.294183
-0.291231
-0.287841
-0.284041
-0.27986
-0.275331
-0.270493
-0.265398
-0.260117
-0.25474
-0.249384
-0.244188
-0.23931
-0.234933
-0.231253
-0.228471
-0.226788
-0.226394
-0.22746
-0.230124
-0.234482
-0.240579
-0.248398
-0.257867
-0.268819
-0.281111
-0.294327
-0.308474
-0.32263
-0.337407
-0.350451
-0.291646
-0.292242
-0.291997
-0.291084
-0.289611
-0.287583
-0.285
-0.281872
-0.278224
-0.274092
-0.269517
-0.264548
-0.259243
-0.25367
-0.247914
-0.242079
-0.236291
-0.230698
-0.225468
-0.220784
-0.216842
-0.213839
-0.211969
-0.21141
-0.212316
-0.214809
-0.218967
-0.224819
-0.232334
-0.241441
-0.251954
-0.263758
-0.276413
-0.290052
-0.303438
-0.317546
-0.329377
-0.283412
-0.284012
-0.283811
-0.282963
-0.281545
-0.279533
-0.276905
-0.273657
-0.269809
-0.265401
-0.260487
-0.255133
-0.249414
-0.243418
-0.237244
-0.23101
-0.224852
-0.218925
-0.2134
-0.208463
-0.204306
-0.201121
-0.199094
-0.198393
-0.19916
-0.201504
-0.205489
-0.211137
-0.218403
-0.227218
-0.237387
-0.248838
-0.260988
-0.274083
-0.286594
-0.299887
-0.310077
-0.275904
-0.276589
-0.276476
-0.27572
-0.274382
-0.272416
-0.269778
-0.266452
-0.262451
-0.257818
-0.252617
-0.24693
-0.240852
-0.234487
-0.227954
-0.221383
-0.214921
-0.208731
-0.202989
-0.197879
-0.193593
-0.190317
-0.18823
-0.187491
-0.188234
-0.190556
-0.194502
-0.200089
-0.207258
-0.215905
-0.225803
-0.236813
-0.248335
-0.260547
-0.271859
-0.283643
-0.291731
-0.269123
-0.269963
-0.269969
-0.269316
-0.268065
-0.266155
-0.263527
-0.260155
-0.256046
-0.251243
-0.245818
-0.239866
-0.2335
-0.226841
-0.220026
-0.213202
-0.206527
-0.200173
-0.19432
-0.189157
-0.184871
-0.181647
-0.179655
-0.179043
-0.17993
-0.182393
-0.186461
-0.192094
-0.199191
-0.207589
-0.217016
-0.227228
-0.237671
-0.24829
-0.257827
-0.267113
-0.272653
-0.263126
-0.264167
-0.264303
-0.263747
-0.262574
-0.260718
-0.258113
-0.254723
-0.250552
-0.245645
-0.240077
-0.233954
-0.227402
-0.220561
-0.213581
-0.206627
-0.19987
-0.193491
-0.187678
-0.182622
-0.178507
-0.175511
-0.17379
-0.17347
-0.17463
-0.177306
-0.181472
-0.187032
-0.193817
-0.201598
-0.210061
-0.218887
-0.227607
-0.235973
-0.243196
-0.24944
-0.252306
-0.258022
-0.259276
-0.259535
-0.259057
-0.257946
-0.256137
-0.253563
-0.250188
-0.246014
-0.241083
-0.235477
-0.229307
-0.222708
-0.215835
-0.208851
-0.201935
-0.19527
-0.189044
-0.183452
-0.178676
-0.174894
-0.172261
-0.1709
-0.170896
-0.172278
-0.175018
-0.179024
-0.184135
-0.190125
-0.196725
-0.20361
-0.210484
-0.21697
-0.222853
-0.22764
-0.23118
-0.2319
-0.253958
-0.255395
-0.255749
-0.255328
-0.254264
-0.252502
-0.24998
-0.246665
-0.242559
-0.237706
-0.232188
-0.226119
-0.21964
-0.212912
-0.20611
-0.199417
-0.193026
-0.187122
-0.181889
-0.1775
-0.174108
-0.171833
-0.170755
-0.170902
-0.172245
-0.174692
-0.178091
-0.182234
-0.186877
-0.191752
-0.196597
-0.201199
-0.20533
-0.208953
-0.21174
-0.213604
-0.213168
-0.251085
-0.252633
-0.253043
-0.252657
-0.251634
-0.249933
-0.247498
-0.244304
-0.240353
-0.235689
-0.230391
-0.224572
-0.218372
-0.211955
-0.205493
-0.199166
-0.193158
-0.18765
-0.182809
-0.178786
-0.175696
-0.173619
-0.172585
-0.172566
-0.173481
-0.175192
-0.177517
-0.180245
-0.183159
-0.186042
-0.188734
-0.191093
-0.193073
-0.194716
-0.19593
-0.196911
-0.196251
-0.249512
-0.251067
-0.251483
-0.251112
-0.250133
-0.248514
-0.24621
-0.243199
-0.239485
-0.235106
-0.230136
-0.224673
-0.21887
-0.212862
-0.206814
-0.200902
-0.195294
-0.190156
-0.185631
-0.181837
-0.178856
-0.17672
-0.175416
-0.174875
-0.174986
-0.175598
-0.176542
-0.177645
-0.178748
-0.179708
-0.180445
-0.180853
-0.180973
-0.18071
-0.180203
-0.179611
-0.178552
-0.415864
-0.420955
-0.428934
-0.438409
-0.447838
-0.455614
-0.460445
-0.460894
-0.455407
-0.442406
-0.420292
-0.388379
-0.348145
-0.303563
-0.259804
-0.221273
-0.190447
-0.16793
-0.153173
-0.145225
-0.143224
-0.146577
-0.154966
-0.168514
-0.187974
-0.214279
-0.247156
-0.283669
-0.318238
-0.344026
-0.354206
-0.347478
-0.321066
-0.281502
-0.23794
-0.197893
-0.165243
-0.140743
-0.123605
-0.112864
-0.107836
-0.108103
-0.114006
-0.127036
-0.148686
-0.178185
-0.211079
-0.239811
-0.256193
-0.25469
-0.236616
-0.207193
-0.174327
-0.144789
-0.122465
-0.108278
-0.101753
-0.103307
-0.11448
-0.136152
-0.166304
-0.197804
-0.218914
-0.218829
-0.197354
-0.162285
-0.125771
-0.095897
-0.0747585
-0.0617544
-0.0560173
-0.0572504
-0.0642496
-0.0747268
-0.0821758
-0.0812303
-0.068876
-0.0519954
-0.0373646
-0.0274422
-0.023268
-0.0262522
-0.0363477
-0.0413229
-0.0328662
-0.0109894
0.00965308
0.0198613
0.0156372
0.00316774
-0.00884549
-0.0168213
-0.00607373
-0.434155
-0.443834
-0.455913
-0.467708
-0.478045
-0.48575
-0.489751
-0.489089
-0.482581
-0.468683
-0.445584
-0.412277
-0.370079
-0.323089
-0.276736
-0.235617
-0.20228
-0.177348
-0.160315
-0.150275
-0.14635
-0.147875
-0.154497
-0.166309
-0.18405
-0.20877
-0.240477
-0.276481
-0.311129
-0.337159
-0.346009
-0.341154
-0.315497
-0.277144
-0.234961
-0.196181
-0.164633
-0.141118
-0.124917
-0.115165
-0.111242
-0.112789
-0.120299
-0.135478
-0.159962
-0.192939
-0.229536
-0.261458
-0.279731
-0.278077
-0.258098
-0.225244
-0.188372
-0.154981
-0.12931
-0.112351
-0.103384
-0.102426
-0.110711
-0.128979
-0.155351
-0.183375
-0.20227
-0.202019
-0.182603
-0.150935
-0.118143
-0.0915746
-0.0731189
-0.0624466
-0.0589488
-0.0625898
-0.0721698
-0.0851584
-0.0944203
-0.0940744
-0.0807008
-0.0616447
-0.044585
-0.0324224
-0.0260749
-0.026641
-0.0347772
-0.0386208
-0.0305183
-0.00973703
0.00891042
0.0170798
0.0105504
-0.00348201
-0.0159484
-0.0228264
-0.00836533
-0.446306
-0.460988
-0.475299
-0.488323
-0.498967
-0.506226
-0.509353
-0.507721
-0.50044
-0.485965
-0.462276
-0.428112
-0.384701
-0.336245
-0.288312
-0.245549
-0.210482
-0.183709
-0.164743
-0.152743
-0.146908
-0.146586
-0.151354
-0.161233
-0.176889
-0.199424
-0.229164
-0.263873
-0.298196
-0.325308
-0.340547
-0.330723
-0.305701
-0.269089
-0.228828
-0.191814
-0.161789
-0.139581
-0.124553
-0.115943
-0.113216
-0.116081
-0.12518
-0.142428
-0.169599
-0.205753
-0.245661
-0.28056
-0.300909
-0.299679
-0.278224
-0.242294
-0.201618
-0.164448
-0.135397
-0.11558
-0.104099
-0.100569
-0.105894
-0.120682
-0.143204
-0.167712
-0.184464
-0.184096
-0.166916
-0.138742
-0.109732
-0.0865155
-0.0708205
-0.0625979
-0.0614821
-0.0677071
-0.0800513
-0.0957396
-0.106987
-0.107348
-0.0929251
-0.0715301
-0.0518058
-0.0372145
-0.0286096
-0.0266778
-0.0327614
-0.0353721
-0.0276026
-0.00795336
0.00860583
0.0146251
0.00565845
-0.0100877
-0.0231358
-0.0289554
-0.0107822
-0.45318
-0.470825
-0.486673
-0.500408
-0.51109
-0.517846
-0.52024
-0.517833
-0.509904
-0.494912
-0.470726
-0.435992
-0.391965
-0.342925
-0.294425
-0.250994
-0.215033
-0.187087
-0.166668
-0.152971
-0.145283
-0.143064
-0.145885
-0.153656
-0.166929
-0.186808
-0.213912
-0.246542
-0.279775
-0.306747
-0.320852
-0.314461
-0.291739
-0.257685
-0.219934
-0.185127
-0.156951
-0.136282
-0.122565
-0.115159
-0.113618
-0.117731
-0.128264
-0.147301
-0.176721
-0.215558
-0.258451
-0.296303
-0.318937
-0.318685
-0.296337
-0.257835
-0.213711
-0.172973
-0.14063
-0.11796
-0.10395
-0.0978422
-0.100216
-0.111546
-0.130278
-0.15132
-0.165982
-0.165584
-0.150714
-0.12603
-0.100756
-0.0808486
-0.0679225
-0.0622057
-0.0635579
-0.0724845
-0.0877402
-0.10631
-0.119717
-0.1209
-0.105432
-0.0815628
-0.0589647
-0.0417711
-0.0308502
-0.0263805
-0.0303577
-0.0316509
-0.0241737
-0.00567054
0.00873747
0.012532
0.00102556
-0.0165775
-0.0303413
-0.0351646
-0.0133095
-0.453493
-0.472771
-0.489638
-0.503936
-0.51469
-0.52118
-0.523117
-0.520254
-0.511883
-0.496431
-0.471775
-0.436699
-0.392611
-0.343796
-0.295649
-0.25243
-0.216318
-0.187783
-0.166374
-0.151322
-0.141939
-0.137776
-0.138548
-0.144088
-0.154754
-0.17156
-0.195376
-0.225129
-0.256528
-0.282881
-0.297233
-0.293633
-0.274059
-0.243263
-0.208549
-0.176332
-0.150263
-0.131279
-0.118934
-0.112717
-0.112269
-0.117464
-0.129154
-0.149541
-0.180656
-0.221683
-0.267236
-0.307895
-0.33298
-0.334449
-0.311879
-0.271499
-0.224436
-0.180431
-0.144955
-0.119517
-0.10303
-0.0943952
-0.0938813
-0.101838
-0.116887
-0.134581
-0.147244
-0.146839
-0.134331
-0.113041
-0.0913711
-0.0746629
-0.0644513
-0.0612286
-0.0650789
-0.0767772
-0.0950767
-0.11669
-0.132412
-0.134532
-0.118069
-0.0916426
-0.0660028
-0.0460564
-0.0327887
-0.0257753
-0.0276147
-0.0275228
-0.0202984
-0.00292895
0.00930168
0.0108378
-0.00328248
-0.0228769
-0.0374906
-0.0414034
-0.0159274
-0.446278
-0.46622
-0.484014
-0.499063
-0.510234
-0.516744
-0.518675
-0.515732
-0.507139
-0.491263
-0.466112
-0.430823
-0.387144
-0.339361
-0.292492
-0.250328
-0.214748
-0.186157
-0.164177
-0.148127
-0.137325
-0.131318
-0.129934
-0.133122
-0.141071
-0.154587
-0.174655
-0.200834
-0.229641
-0.254923
-0.269938
-0.269057
-0.253046
-0.225998
-0.194763
-0.165471
-0.141724
-0.124535
-0.11359
-0.108519
-0.109057
-0.115143
-0.127682
-0.148972
-0.181232
-0.223874
-0.271562
-0.314704
-0.342414
-0.346462
-0.324255
-0.28287
-0.233545
-0.18668
-0.148313
-0.120263
-0.101422
-0.0903812
-0.0870925
-0.091828
-0.103373
-0.117886
-0.12866
-0.128205
-0.118034
-0.099941
-0.0816769
-0.0680033
-0.0604012
-0.0596078
-0.0659444
-0.0804524
-0.101894
-0.126675
-0.144854
-0.148016
-0.130653
-0.101656
-0.072858
-0.0500337
-0.0344117
-0.024885
-0.0245919
-0.0230638
-0.0160443
0.000229667
0.0102959
0.00957551
-0.0072043
-0.0289095
-0.0445045
-0.0476164
-0.018612
-0.43185
-0.451774
-0.470499
-0.486431
-0.498305
-0.50547
-0.507779
-0.505058
-0.496403
-0.480132
-0.454562
-0.419363
-0.376679
-0.330696
-0.285883
-0.245444
-0.210934
-0.18271
-0.160487
-0.143716
-0.131789
-0.124211
-0.120744
-0.121469
-0.126603
-0.136732
-0.1528
-0.174905
-0.200477
-0.224149
-0.239712
-0.241698
-0.229211
-0.206168
-0.178742
-0.15264
-0.131385
-0.116076
-0.106549
-0.102577
-0.104005
-0.11082
-0.123936
-0.14569
-0.178481
-0.222007
-0.271175
-0.316399
-0.346782
-0.354205
-0.332873
-0.291601
-0.240848
-0.191619
-0.150682
-0.120228
-0.0992064
-0.0859469
-0.0800649
-0.0817599
-0.090018
-0.101551
-0.110605
-0.110159
-0.102067
-0.086878
-0.0717645
-0.0609132
-0.0557695
-0.0573069
-0.0660776
-0.0833905
-0.108018
-0.136051
-0.156806
-0.161113
-0.142995
-0.11148
-0.079467
-0.0536714
-0.0357116
-0.0237321
-0.0213417
-0.0183559
-0.0114838
0.0037604
0.0117129
0.00876864
-0.0106834
-0.0346
-0.0513013
-0.0537444
-0.0213351
-0.41186
-0.431309
-0.450928
-0.467919
-0.480542
-0.488524
-0.491451
-0.489093
-0.480351
-0.463658
-0.437831
-0.403178
-0.362171
-0.31872
-0.276613
-0.23843
-0.205422
-0.177917
-0.155734
-0.138461
-0.125616
-0.116739
-0.11152
-0.109898
-0.112185
-0.11892
-0.130927
-0.148652
-0.170483
-0.191975
-0.207635
-0.212558
-0.203031
-0.184204
-0.160819
-0.138084
-0.119433
-0.106059
-0.0979555
-0.0950384
-0.0972653
-0.10466
-0.118092
-0.13985
-0.172483
-0.216071
-0.265994
-0.312896
-0.345712
-0.356277
-0.337264
-0.297384
-0.246159
-0.195161
-0.152058
-0.119453
-0.0964488
-0.0811936
-0.0729776
-0.0718653
-0.077077
-0.0858349
-0.0934003
-0.0965012
-0.086647
-0.0739971
-0.0617383
-0.0534578
-0.0505818
-0.0543201
-0.0654222
-0.0854793
-0.11328
-0.144599
-0.168019
-0.173591
-0.154901
-0.120983
-0.0857648
-0.0569421
-0.0366822
-0.0223397
-0.0179147
-0.0134738
-0.00669644
0.00761194
0.0135366
0.00843245
-0.0136678
-0.0398759
-0.0577985
-0.059732
-0.024064
-0.388746
-0.407379
-0.42756
-0.445981
-0.459153
-0.467528
-0.470792
-0.468561
-0.459551
-0.442462
-0.416738
-0.383296
-0.34473
-0.304467
-0.265552
-0.229989
-0.19878
-0.172254
-0.150339
-0.132753
-0.119138
-0.109139
-0.10245
-0.0989031
-0.0985794
-0.102021
-0.11004
-0.123295
-0.141013
-0.159785
-0.174647
-0.181096
-0.175082
-0.160737
-0.141468
-0.122154
-0.106153
-0.0947334
-0.0880397
-0.0861211
-0.0890463
-0.096868
-0.110361
-0.131697
-0.163514
-0.206333
-0.256185
-0.304173
-0.339122
-0.352081
-0.337203
-0.299963
-0.249297
-0.197252
-0.152463
-0.118004
-0.0932281
-0.0762082
-0.0659285
-0.0623098
-0.0647336
-0.0709236
-0.0768942
-0.0790467
-0.071623
-0.0614281
-0.0517105
-0.0457231
-0.0448876
-0.0506587
-0.0639383
-0.0866215
-0.11752
-0.152107
-0.178251
-0.18522
-0.166165
-0.130025
-0.0916852
-0.0598235
-0.0373224
-0.0207313
-0.01436
-0.00849337
-0.00176899
0.0117285
0.015743
0.00857493
-0.0161115
-0.0446656
-0.0639127
-0.0656159
-0.026764
-0.365019
-0.382392
-0.402093
-0.421051
-0.435099
-0.443325
-0.446416
-0.44393
-0.434488
-0.417214
-0.392196
-0.360764
-0.325364
-0.288797
-0.253389
-0.220665
-0.191455
-0.166106
-0.144649
-0.126928
-0.112695
-0.101696
-0.0937058
-0.0885381
-0.0861435
-0.0867371
-0.0910459
-0.0999298
-0.113324
-0.128861
-0.142273
-0.149551
-0.146625
-0.136512
-0.121179
-0.105241
-0.0918721
-0.0823831
-0.077058
-0.0760634
-0.0795769
-0.0876821
-0.10103
-0.12161
-0.152064
-0.193352
-0.242255
-0.290571
-0.327314
-0.343215
-0.332748
-0.299134
-0.250113
-0.197872
-0.15193
-0.11596
-0.0896384
-0.0710747
-0.0589999
-0.053176
-0.053103
-0.0569483
-0.0613573
-0.0628081
-0.0572727
-0.0492996
-0.0417935
-0.0377997
-0.0387494
-0.0463434
-0.0616033
-0.0867415
-0.120598
-0.158379
-0.187273
-0.195766
-0.176579
-0.138465
-0.0971619
-0.0622988
-0.0376341
-0.0189335
-0.0107221
-0.00349232
0.00313994
0.0160537
0.0183026
0.00919686
-0.0179763
-0.0488993
-0.0695567
-0.0710166
-0.0293981
-0.34254
-0.358104
-0.377102
-0.395195
-0.408762
-0.416123
-0.418607
-0.415557
-0.405757
-0.388828
-0.365345
-0.336748
-0.3051
-0.272529
-0.240753
-0.210948
-0.183838
-0.159798
-0.138951
-0.121251
-0.10656
-0.0947071
-0.0855397
-0.078926
-0.0747698
-0.0731357
-0.0743984
-0.0793164
-0.0884079
-0.100339
-0.111738
-0.11932
-0.118887
-0.112228
-0.100466
-0.0877558
-0.0769286
-0.0692999
-0.065275
-0.0651217
-0.0691233
-0.0773956
-0.090456
-0.110046
-0.138731
-0.177845
-0.225005
-0.272907
-0.310977
-0.329941
-0.324205
-0.294958
-0.24859
-0.197028
-0.150508
-0.113403
-0.0857823
-0.0658911
-0.0522754
-0.0445388
-0.0422647
-0.0440077
-0.0469555
-0.0479009
-0.0437789
-0.0377235
-0.0320945
-0.0297839
-0.0322417
-0.0414108
-0.0584153
-0.0857928
-0.12239
-0.163241
-0.194883
-0.204993
-0.185936
-0.146163
-0.10213
-0.0643584
-0.037624
-0.0169719
-0.00704255
0.00146775
0.00814459
0.0205336
0.0211811
0.0102896
-0.0192324
-0.0525154
-0.0746546
-0.0760342
-0.0319302
-0.321199
-0.333713
-0.35121
-0.367924
-0.379761
-0.385805
-0.387497
-0.383981
-0.374314
-0.35855
-0.337479
-0.31237
-0.28479
-0.256275
-0.228089
-0.201177
-0.176196
-0.153551
-0.133439
-0.115907
-0.100915
-0.0883764
-0.0781969
-0.0702904
-0.0645797
-0.061043
-0.0598642
-0.0615613
-0.0667223
-0.0749234
-0.0839233
-0.0912744
-0.094843
-0.0884613
-0.0798218
-0.0701122
-0.061667
-0.0557842
-0.0529686
-0.0535715
-0.0579686
-0.0663142
-0.0789981
-0.0974658
-0.12412
-0.160581
-0.205323
-0.252108
-0.290949
-0.312832
-0.312072
-0.287629
-0.244782
-0.194757
-0.148258
-0.110418
-0.0817622
-0.0607567
-0.0458402
-0.0364695
-0.0322845
-0.0321629
-0.0337732
-0.0343199
-0.0312488
-0.0267894
-0.0227115
-0.0217754
-0.0254532
-0.03592
-0.0543914
-0.0837387
-0.122811
-0.166561
-0.200904
-0.212704
-0.194057
-0.152984
-0.106525
-0.0659987
-0.0373047
-0.0148671
-0.00335851
0.00633763
0.0132451
0.0251032
0.024339
0.0118369
-0.0198599
-0.0554629
-0.0791379
-0.0806096
-0.0343224
-0.299937
-0.308721
-0.323257
-0.338361
-0.348002
-0.352815
-0.353928
-0.350438
-0.341672
-0.32792
-0.309924
-0.288626
-0.265124
-0.24051
-0.215743
-0.191614
-0.168736
-0.14753
-0.128249
-0.111018
-0.0958817
-0.08283
-0.0718247
-0.0628165
-0.0557521
-0.0505843
-0.0473653
-0.0464036
-0.0482247
-0.0529338
-0.0592998
-0.0653072
-0.0686956
-0.0652268
-0.0597054
-0.0527091
-0.0464339
-0.0421426
-0.0404218
-0.0416928
-0.0464018
-0.0547453
-0.066999
-0.0842987
-0.108794
-0.142297
-0.184108
-0.22912
-0.268179
-0.292651
-0.297143
-0.277387
-0.238798
-0.191126
-0.145251
-0.107087
-0.0776707
-0.0557567
-0.0397606
-0.029012
-0.0231906
-0.0214362
-0.0218365
-0.0220255
-0.0197276
-0.0165612
-0.0137315
-0.0138755
-0.0184852
-0.0299526
-0.0495808
-0.0805715
-0.121793
-0.168227
-0.205172
-0.218748
-0.2008
-0.158809
-0.110281
-0.0672143
-0.0366914
-0.0126368
0.000306275
0.011068
0.0182765
0.0296967
0.0277327
0.0138107
-0.0198484
-0.0576958
-0.0829425
-0.0846828
-0.0365406
-0.276704
-0.281106
-0.293649
-0.306983
-0.314691
-0.318606
-0.319652
-0.31684
-0.309666
-0.298471
-0.28379
-0.266235
-0.246552
-0.225533
-0.203933
-0.182434
-0.161597
-0.141846
-0.123474
-0.106666
-0.0915376
-0.078145
-0.0665016
-0.0565926
-0.0483893
-0.0418483
-0.0369505
-0.0338383
-0.032909
-0.0345156
-0.0381804
-0.0424195
-0.0454116
-0.0438411
-0.0405573
-0.0359092
-0.0315617
-0.0286661
-0.0279009
-0.0297354
-0.0346645
-0.0429379
-0.054748
-0.0709158
-0.0932608
-0.123671
-0.16216
-0.204863
-0.243627
-0.270215
-0.280863
-0.264407
-0.230779
-0.186203
-0.141534
-0.103447
-0.0735472
-0.0509271
-0.0340588
-0.0221662
-0.0149617
-0.0118005
-0.0111269
-0.0109571
-0.00922273
-0.0070792
-0.00522655
-0.00618182
-0.0114454
-0.0236062
-0.0440515
-0.0762966
-0.119318
-0.168207
-0.207603
-0.223019
-0.206041
-0.163529
-0.113322
-0.0679879
-0.0357942
-0.010305
0.00393406
0.0156244
0.0231709
0.0342511
0.0313166
0.0161795
-0.0191997
-0.0591794
-0.0860156
-0.0882002
-0.0385496
-0.25181
-0.25329
-0.26434
-0.275682
-0.281903
-0.285437
-0.286903
-0.285186
-0.279902
-0.27133
-0.259774
-0.245599
-0.229316
-0.211511
-0.192791
-0.173733
-0.154844
-0.136534
-0.11912
-0.102836
-0.0878484
-0.0742708
-0.0621644
-0.0515472
-0.0424142
-0.0347428
-0.0284903
-0.0236823
-0.0205685
-0.0195508
-0.0206512
-0.0230155
-0.0255584
-0.0273413
-0.0226359
-0.0200575
-0.0173569
-0.0156196
-0.0156486
-0.0179445
-0.0230184
-0.0311651
-0.0425185
-0.0576226
-0.0779333
-0.105266
-0.140266
-0.180245
-0.218101
-0.246023
-0.258971
-0.248861
-0.220914
-0.180029
-0.137093
-0.0994653
-0.0693619
-0.0462478
-0.0287176
-0.0159126
-0.00755946
-0.00319176
-0.00157727
-0.00105781
0.000265731
0.00163771
0.00274938
0.00121917
-0.00444267
-0.0170005
-0.037919
-0.0710009
-0.115374
-0.166397
-0.208113
-0.225425
-0.209683
-0.167044
-0.11558
-0.0683131
-0.0346325
-0.00791145
0.00747757
0.0199888
0.0278731
0.0387001
0.0350405
0.0188946
-0.0179254
-0.059883
-0.0883119
-0.0911075
-0.0403137
-0.227937
-0.227687
-0.237631
-0.24684
-0.251922
-0.255407
-0.257411
-0.256779
-0.253241
-0.246963
-0.238068
-0.226765
-0.213399
-0.198403
-0.18225
-0.165418
-0.148352
-0.131441
-0.115011
-0.0993291
-0.0846047
-0.0709917
-0.0585924
-0.0474589
-0.0376061
-0.0290336
-0.021712
-0.0156033
-0.0108172
-0.00769126
-0.00650332
-0.00694986
-0.0082488
-0.00902702
-0.00542969
-0.00544652
-0.00404986
-0.00320835
-0.00385909
-0.006486
-0.0116011
-0.019566
-0.0304904
-0.0446629
-0.063113
-0.0875134
-0.118984
-0.155937
-0.192518
-0.220993
-0.23598
-0.231909
-0.209522
-0.172708
-0.132024
-0.0952541
-0.0652374
-0.0418346
-0.0238282
-0.0103224
-0.00103492
0.0043845
0.00687307
0.00774897
0.00874017
0.00959407
0.0101599
0.00825159
0.00242419
-0.0102345
-0.0312759
-0.064762
-0.110059