/*--------------------------------*- C++ -*----------------------------------*\
| =========                 |                                                 |
| \\      /  F ield         | OpenFOAM: The Open Source CFD Toolbox           |
|  \\    /   O peration     | Version:  2312                                  |
|   \\  /    A nd           | Website:  www.openfoam.com                      |
|    \\/     M anipulation  |                                                 |
\*---------------------------------------------------------------------------*/
FoamFile
{
    version     2.0;
    format      ascii;
    arch        "LSB;label=32;scalar=64";
    class       volVectorField;
    location    "70";
    object      U;
}
// * * * * * * * * * * * * * * * * * * * * * * * * * * * * * * * * * * * * * //

dimensions      [0 1 -1 0 0 0 0];

internalField   nonuniform List<vector> 
32230
(
(-0.00666598 0.00430777 3.2461e-20)
(-0.020035 0.00973182 -6.55915e-20)
(-0.0340527 0.011532 0)
(-0.0463882 0.0117219 -8.98886e-20)
(-0.055553 0.0113148 2.86332e-20)
(-0.0604715 0.0108194 -2.71769e-20)
(-0.0601759 0.0105506 5.11593e-20)
(-0.0537609 0.0106933 -6.17063e-22)
(-0.0403749 0.011354 2.22792e-20)
(-0.0192215 0.012609 -8.6734e-20)
(0.0104175 0.0145336 -4.0599e-20)
(0.0491362 0.017212 0)
(0.0973549 0.0207407 6.9739e-20)
(0.155229 0.0252244 -1.3169e-19)
(0.222567 0.0307313 9.17768e-20)
(0.298771 0.0372845 -1.143e-19)
(0.382789 0.0448425 -2.55242e-20)
(0.47311 0.0532821 5.03143e-20)
(0.567801 0.062391 4.60095e-20)
(0.664597 0.0718706 -4.40238e-20)
(0.76103 0.0813505 0)
(0.854582 0.0904133 -3.84968e-20)
(0.942858 0.0986263 1.84256e-20)
(1.02374 0.105579 0)
(1.09555 0.110917 0)
(1.15713 0.114378 -1.57295e-20)
(1.20796 0.115804 -6.0239e-20)
(1.24814 0.115166 5.76847e-20)
(1.27836 0.112521 2.70539e-20)
(1.2998 0.108076 2.57094e-20)
(1.31397 0.101938 0)
(1.32244 0.0946555 0)
(1.32688 0.0856323 4.49405e-20)
(1.32814 0.0771333 -6.37327e-20)
(1.32822 0.0641506 4.00849e-20)
(1.32477 0.058025 -7.5959e-20)
(1.32356 0.0351014 3.60883e-20)
(-0.00970244 0.00682985 1.35792e-22)
(-0.0258653 0.0150684 3.28434e-20)
(-0.0399528 0.0183192 -3.13235e-20)
(-0.0502891 0.0189466 3.46156e-23)
(-0.0557142 0.0182909 5.72059e-20)
(-0.0552967 0.0171451 1.08602e-19)
(-0.0481111 0.0160508 -1.28983e-19)
(-0.033234 0.0153731 4.90644e-20)
(-0.00977873 0.0153611 1.59515e-22)
(0.023056 0.0161975 4.32185e-20)
(0.0659133 0.0180343 -4.02729e-22)
(0.119187 0.0210036 3.84243e-20)
(0.182921 0.025219 -1.066e-19)
(0.25672 0.030749 3.52358e-20)
(0.339657 0.0375999 1.2537e-19)
(0.430249 0.0456971 0)
(0.526477 0.0548682 2.68516e-20)
(0.625876 0.0648369 0)
(0.725684 0.075231 0)
(0.823038 0.0856046 0)
(0.915188 0.0954733 -2.03638e-20)
(0.999708 0.104357 7.85189e-20)
(1.07468 0.111824 -7.41701e-20)
(1.13884 0.117531 4.44819e-22)
(1.19163 0.121256 1.1546e-19)
(1.23321 0.122905 -6.2765e-20)
(1.26438 0.122512 -5.8961e-20)
(1.28647 0.120228 1.12309e-19)
(1.30109 0.116254 -1.06673e-19)
(1.30994 0.110882 4.90197e-20)
(1.31464 0.104299 -4.79179e-20)
(1.31648 0.0968527 -2.19097e-20)
(1.31647 0.0885245 0)
(1.31504 0.0798253 6.00847e-20)
(1.31295 0.0700648 -7.46404e-20)
(1.30891 0.0617071 5.21233e-20)
(1.30702 0.0492029 -1.56483e-20)
(-0.0123216 0.00867616 -6.55185e-20)
(-0.0305493 0.0190878 0)
(-0.0438264 0.0236879 -9.47824e-20)
(-0.0510812 0.0249611 9.05485e-20)
(-0.0514562 0.0244555 1.14887e-19)
(-0.044157 0.02318 -5.46333e-20)
(-0.0283198 0.0218582 -1.8814e-22)
(-0.00305562 0.0210061 2.41674e-20)
(0.0324638 0.0209926 -3.98605e-22)
(0.0789024 0.0220956 -4.40644e-20)
(0.136634 0.0245313 1.47688e-22)
(0.205605 0.0284579 3.88529e-20)
(0.285211 0.0339694 -3.70818e-20)
(0.374204 0.0410711 3.33684e-20)
(0.470663 0.0496586 -1.27334e-19)
(0.572051 0.0595031 0)
(0.675361 0.070249 8.23772e-20)
(0.777346 0.0814323 -5.21952e-20)
(0.87479 0.0925161 -2.34063e-20)
(0.964789 0.102942 2.29465e-20)
(1.045 0.112185 2.09989e-22)
(1.11385 0.11981 0)
(1.17058 0.125509 -2.4953e-23)
(1.21529 0.129126 3.45732e-20)
(1.24885 0.130657 -6.58516e-20)
(1.27269 0.130225 2.38858e-22)
(1.28856 0.128051 0)
(1.29833 0.124405 0)
(1.3037 0.119552 2.61388e-20)
(1.30612 0.11378 -2.46643e-20)
(1.30663 0.107197 -4.49849e-20)
(1.30589 0.100222 6.4987e-20)
(1.30432 0.0923819 0)
(1.30196 0.0850806 1.81341e-20)
(1.29922 0.0758257 1.74147e-20)
(1.2952 0.0698644 -2.16677e-21)
(1.29252 0.0581847 -2.9433e-20)
(-0.0143657 0.00978036 3.29069e-20)
(-0.0337483 0.0215438 3.36322e-20)
(-0.0452795 0.027176 0)
(-0.0483823 0.0290999 -6.07351e-20)
(-0.0424582 0.0289664 2.92076e-20)
(-0.0268437 0.0279355 2.38315e-22)
(-0.000768979 0.0268709 2.60239e-20)
(0.0365469 0.0264112 2.46468e-20)
(0.0857519 0.0270304 4.67277e-20)
(0.147191 0.0290835 -4.44643e-20)
(0.220727 0.0328234 -4.18242e-20)
(0.305566 0.0383971 0)
(0.400145 0.0458251 -4.82993e-22)
(0.502095 0.0549779 3.45674e-20)
(0.608342 0.0655621 3.18718e-20)
(0.71532 0.0771275 5.92987e-20)
(0.819297 0.0891012 -8.45189e-20)
(0.916737 0.100844 -2.62572e-20)
(1.00465 0.11172 -2.42271e-20)
(1.08088 0.121173 2.26332e-20)
(1.14425 0.128781 -2.11588e-20)
(1.19459 0.134294 -1.97902e-20)
(1.23266 0.137647 1.85361e-20)
(1.25993 0.138931 3.4223e-20)
(1.27827 0.138359 -1.64778e-20)
(1.28973 0.136211 6.01928e-20)
(1.29619 0.132784 -7.13639e-20)
(1.29927 0.128353 -5.24719e-20)
(1.30015 0.123146 2.55771e-20)
(1.29966 0.117337 6.98142e-20)
(1.29829 0.111055 0)
(1.29629 0.104414 1.98055e-20)
(1.29381 0.0973908 0)
(1.2908 0.0904405 -1.81227e-20)
(1.28759 0.0825392 1.68622e-20)
(1.28334 0.0767736 -3.02964e-20)
(1.28057 0.0664562 -2.66311e-20)
(-0.0157697 0.01018 3.35664e-20)
(-0.0352723 0.0224032 -6.74412e-20)
(-0.0440632 0.0285944 6.4427e-20)
(-0.0419292 0.0310129 -6.15852e-20)
(-0.0284754 0.0313393 0)
(-0.00316928 0.030835 -2.76479e-20)
(0.0346218 0.0304712 0)
(0.0854706 0.0309865 2.50925e-20)
(0.149673 0.0329355 -4.72376e-20)
(0.227009 0.036715 2.24138e-20)
(0.31651 0.0425618 4.17953e-20)
(0.416298 0.0505311 0)
(0.523544 0.0604713 7.41853e-20)
(0.634602 0.0720144 -3.45418e-20)
(0.745317 0.084597 0)
(0.851452 0.0975173 3.04807e-20)
(0.949165 0.110019 0)
(1.03542 0.12139 7.82519e-20)
(1.1083 0.131048 -7.43156e-20)
(1.16706 0.138602 2.2803e-20)
(1.21213 0.14388 0)
(1.24487 0.146917 7.83917e-20)
(1.26723 0.147903 -3.72819e-20)
(1.28141 0.147134 -5.07111e-20)
(1.28958 0.144936 4.80768e-20)
(1.29359 0.141624 1.49851e-20)
(1.2949 0.137464 1.39933e-20)
(1.29455 0.132661 3.81294e-20)
(1.29319 0.127359 -1.20396e-19)
(1.29122 0.121678 6.66035e-20)
(1.28884 0.115653 -2.15842e-20)
(1.28616 0.109441 -5.90457e-20)
(1.28319 0.10288 0)
(1.27993 0.0965337 1.61959e-20)
(1.27652 0.0893344 0)
(1.27243 0.0839705 1.46531e-20)
(1.26951 0.0748462 2.6268e-20)
(-0.0165398 0.00998545 3.40833e-20)
(-0.0350324 0.0218217 -6.86062e-20)
(-0.039985 0.0280516 -1.97223e-22)
(-0.0314355 0.0307447 6.20237e-20)
(-0.00914748 0.0315805 -2.95414e-20)
(0.0272714 0.0318943 0)
(0.07824 0.032736 0)
(0.143963 0.0349128 -2.50793e-20)
(0.22413 0.0390125 2.37222e-20)
(0.317603 0.045399 2.36957e-22)
(0.422196 0.0541844 4.21169e-20)
(0.534604 0.0652008 -4.02714e-20)
(0.650577 0.0779958 -7.43948e-20)
(0.765323 0.0918727 -6.91865e-20)
(0.87407 0.105979 1.31194e-19)
(0.972653 0.119429 -9.24417e-20)
(1.05801 0.131426 -2.84901e-20)
(1.12845 0.141372 0)
(1.1837 0.148923 9.74024e-20)
(1.22475 0.153998 -9.17679e-20)
(1.25345 0.156737 0)
(1.27216 0.157434 1.8889e-20)
(1.28332 0.156454 -1.15296e-21)
(1.28912 0.154168 -3.39375e-20)
(1.29138 0.1509 -1.57679e-20)
(1.29143 0.146908 0)
(1.29017 0.142377 0)
(1.28818 0.137436 1.26782e-20)
(1.28576 0.132171 -5.70059e-20)
(1.28308 0.126641 4.36939e-20)
(1.2802 0.120893 7.90468e-20)
(1.27716 0.114982 -3.75376e-20)
(1.27392 0.108874 0)
(1.27047 0.102874 -1.61891e-20)
(1.26689 0.096268 0)
(1.26281 0.0911481 1.2994e-20)
(1.25968 0.0827693 -1.27062e-20)
(-0.0167095 0.00933855 -3.47336e-20)
(-0.0329628 0.0200817 0)
(-0.0328189 0.0259001 -5.44982e-22)
(-0.0164972 0.0287063 3.17868e-20)
(0.0160946 0.0301794 -2.63465e-22)
(0.065156 0.0317092 -4.67749e-22)
(0.130747 0.0343924 -1.07582e-19)
(0.212445 0.0390479 2.55572e-20)
(0.308954 0.046203 0)
(0.41779 0.0560539 4.54306e-20)
(0.535174 0.0684281 -6.62688e-22)
(0.656218 0.0827838 -2.04119e-20)
(0.775439 0.0982731 -3.74107e-20)
(0.887466 0.11387 1.83329e-20)
(0.987767 0.128539 3.34208e-20)
(1.07321 0.141393 0)
(1.14232 0.151819 2.84782e-20)
(1.19526 0.159525 0)
(1.23349 0.164525 -1.36601e-22)
(1.25932 0.167068 2.26912e-20)
(1.27542 0.167546 -4.112e-20)
(1.28439 0.166391 3.93583e-20)
(1.28847 0.164012 0)
(1.28942 0.160745 3.19418e-22)
(1.28847 0.156842 0)
(1.28646 0.152479 0)
(1.28389 0.147771 0)
(1.28102 0.142792 0)
(1.27799 0.137591 -3.25814e-20)
(1.27485 0.132207 4.2109e-20)
(1.27161 0.126663 1.79929e-20)
(1.26827 0.121009 -3.59199e-20)
(1.2648 0.115213 0)
(1.2612 0.109499 0)
(1.25753 0.103354 0)
(1.25352 0.0983778 -3.76896e-20)
(1.25031 0.0906867 2.36483e-20)
(-0.0162933 0.00837347 4.09392e-22)
(-0.0289495 0.0175143 -3.54362e-20)
(-0.0222432 0.0226444 3.37027e-20)
(0.00343006 0.0255683 8.06682e-22)
(0.0479787 0.0279738 1.68178e-22)
(0.111276 0.0312841 5.78029e-20)
(0.192766 0.0365871 0)
(0.291007 0.0446098 5.15953e-20)
(0.403254 0.055666 0)
(0.525267 0.0696003 -2.28707e-20)
(0.651506 0.0857849 0)
(0.775731 0.103206 -2.02486e-20)
(0.891882 0.120638 0)
(0.994962 0.136868 1.77292e-20)
(1.08168 0.150898 0)
(1.15073 0.162086 3.06625e-20)
(1.20259 0.170187 -2.83528e-20)
(1.23916 0.175308 -2.61747e-20)
(1.26315 0.177805 -2.43561e-20)
(1.27749 0.178164 -4.39693e-20)
(1.28494 0.176887 4.2082e-20)
(1.28778 0.174421 -1.88708e-20)
(1.28774 0.171122 3.44733e-20)
(1.28602 0.167247 -6.44428e-20)
(1.28341 0.162968 4.51783e-20)
(1.28035 0.158395 0)
(1.27709 0.153595 1.25023e-20)
(1.27374 0.148611 0)
(1.27036 0.143471 0)
(1.26694 0.138198 0)
(1.26347 0.132815 3.58716e-20)
(1.25995 0.127349 -3.43626e-20)
(1.25636 0.121797 0)
(1.25269 0.116296 0)
(1.24897 0.1105 1.26437e-20)
(1.24503 0.105617 2.32517e-20)
(1.24172 0.0984977 -1.17204e-20)
(-0.0152557 0.00719587 -7.24651e-20)
(-0.0227908 0.0144415 -3.20534e-22)
(-0.00783804 0.0188411 6.91138e-20)
(0.0289694 0.0221174 -9.7577e-20)
(0.0872304 0.0259624 -1.64206e-22)
(0.166244 0.0317881 -2.95202e-20)
(0.264445 0.0405729 -2.79161e-20)
(0.378884 0.0527916 -3.45031e-22)
(0.504918 0.0683424 -9.87718e-20)
(0.636356 0.0865296 1.16524e-19)
(0.766137 0.106165 -4.41543e-20)
(0.887387 0.125792 0)
(0.99449 0.143981 -5.70067e-20)
(1.08386 0.159583 7.12918e-20)
(1.1542 0.1719 -5.01303e-20)
(1.20627 0.180713 -3.06578e-20)
(1.24231 0.186212 2.83492e-20)
(1.26538 0.188857 5.21023e-20)
(1.27868 0.18923 0)
(1.28513 0.187907 2.19306e-20)
(1.28709 0.185385 2.01552e-20)
(1.28631 0.182047 3.49635e-22)
(1.28398 0.178165 -3.37434e-20)
(1.28085 0.173916 1.72738e-20)
(1.27735 0.169409 1.49722e-20)
(1.27372 0.164709 3.94329e-20)
(1.27006 0.159853 -3.76333e-20)
(1.2664 0.154866 1.10585e-20)
(1.26275 0.149768 -2.12346e-20)
(1.25911 0.144575 0)
(1.25546 0.139303 -2.57241e-20)
(1.25179 0.133976 3.28463e-20)
(1.24809 0.128599 -7.16794e-21)
(1.24436 0.123255 0)
(1.2406 0.117731 -1.26425e-20)
(1.23673 0.112902 0)
(1.23335 0.106255 -3.04304e-20)
(-0.0135026 0.00588209 3.6726e-20)
(-0.0141998 0.0111501 -2.73351e-22)
(0.0108711 0.015029 5.53519e-22)
(0.0607068 0.0191391 0)
(0.134365 0.0251357 6.25516e-20)
(0.230189 0.0343302 -4.47346e-22)
(0.345106 0.0474331 -5.46868e-22)
(0.474165 0.0644549 7.92142e-20)
(0.610574 0.0846704 -5.05112e-20)
(0.7464 0.106721 -2.34348e-20)
(0.873796 0.128891 -2.22369e-20)
(0.986323 0.149475 6.15333e-20)
(1.07988 0.167115 -5.77253e-20)
(1.15302 0.181003 3.62577e-20)
(1.20663 0.190916 3.29984e-20)
(1.24326 0.197106 0)
(1.26627 0.200134 0)
(1.27917 0.20068 -3.87487e-20)
(1.28507 0.199407 4.64579e-20)
(1.28644 0.196874 -6.63917e-20)
(1.2851 0.193506 -5.93057e-20)
(1.28227 0.189597 5.59936e-20)
(1.2787 0.185337 1.66258e-20)
(1.27481 0.18084 0)
(1.27082 0.176173 -1.39579e-20)
(1.26685 0.171372 2.50313e-20)
(1.26292 0.166462 -1.04074e-21)
(1.25905 0.161457 -1.1213e-20)
(1.25522 0.156373 0)
(1.25142 0.151223 0)
(1.24765 0.146022 2.41619e-20)
(1.24389 0.140788 -2.38883e-20)
(1.24014 0.135533 7.1681e-21)
(1.23639 0.130302 0)
(1.23265 0.124982 0)
(1.22886 0.120167 0)
(1.22543 0.113931 0)
(-0.0108944 0.00449247 -3.80796e-20)
(-0.00283978 0.00789809 3.81033e-22)
(0.0343387 0.0117056 7.22285e-20)
(0.0990637 0.0173554 -3.43329e-20)
(0.189504 0.0263723 -6.47392e-20)
(0.302556 0.0398158 3.06466e-20)
(0.433107 0.0579133 -2.91883e-20)
(0.57387 0.079981 5.46902e-20)
(0.716031 0.10452 0)
(0.850616 0.129528 0)
(0.970088 0.15296 2.22365e-20)
(1.06955 0.173161 2.02584e-20)
(1.14715 0.189141 -1.24944e-21)
(1.20376 0.200612 -1.84863e-20)
(1.24214 0.207866 3.21795e-20)
(1.26598 0.211553 -1.58037e-20)
(1.27908 0.212462 1.34027e-20)
(1.28482 0.211357 -2.5518e-20)
(1.28586 0.208876 3.54591e-20)
(1.28412 0.2055 5.2488e-20)
(1.28087 0.201558 -4.97872e-20)
(1.27689 0.197261 0)
(1.27263 0.192736 -1.66282e-20)
(1.2683 0.188052 -1.45912e-20)
(1.26401 0.18325 4.21169e-20)
(1.25981 0.178354 -5.52659e-22)
(1.25569 0.173379 -1.07169e-21)
(1.25164 0.168338 -3.18331e-20)
(1.24767 0.163243 1.87496e-20)
(1.24375 0.158106 -1.79581e-20)
(1.23989 0.152941 0)
(1.23606 0.147763 -2.165e-20)
(1.23228 0.142585 7.1572e-21)
(1.22853 0.137432 -2.3419e-20)
(1.22481 0.132256 2.24387e-20)
(1.22108 0.127434 0)
(1.21761 0.121544 -4.30664e-21)
(-0.00727077 0.00309 0)
(0.0116228 0.00493992 0)
(0.0629188 0.0093398 1.88639e-20)
(0.144191 0.0174143 -1.78031e-20)
(0.252267 0.0303993 6.55685e-20)
(0.382049 0.0488859 -4.72629e-20)
(0.525951 0.0723667 1.47945e-20)
(0.674349 0.099273 2.7932e-20)
(0.817012 0.127313 -1.74103e-23)
(0.945006 0.154028 0)
(1.05226 0.177362 0)
(1.1362 0.196029 2.09767e-20)
(1.19746 0.209603 0)
(1.23889 0.218363 -5.27272e-20)
(1.2645 0.22304 1.69915e-20)
(1.27845 0.22454 -2.99787e-20)
(1.28444 0.223745 1.38118e-20)
(1.28537 0.221395 1.19252e-20)
(1.28335 0.218044 -3.51056e-20)
(1.27975 0.214072 9.93068e-21)
(1.27539 0.209721 8.80248e-21)
(1.27076 0.205134 -9.30243e-21)
(1.26609 0.200393 3.12715e-20)
(1.26148 0.195542 -4.47592e-20)
(1.25698 0.190606 6.55114e-21)
(1.2526 0.185603 1.23697e-20)
(1.24834 0.180546 -3.24921e-20)
(1.24417 0.175444 3.10183e-20)
(1.24009 0.170311 -8.98023e-21)
(1.23609 0.165157 0)
(1.23217 0.159994 -7.3986e-21)
(1.22832 0.154837 0)
(1.22454 0.149697 2.46665e-20)
(1.22082 0.14459 -1.16542e-20)
(1.21714 0.139507 4.94318e-21)
(1.21348 0.134655 0)
(1.20999 0.129057 4.30806e-21)
(-0.00247766 0.00175477 2.02809e-20)
(0.0294646 0.00255253 -4.10876e-20)
(0.0967964 0.00839503 1.92004e-20)
(0.195896 0.0198995 -1.04565e-21)
(0.321733 0.0377857 -3.43106e-20)
(0.466703 0.0619059 1.58296e-20)
(0.620581 0.0907767 -3.01844e-20)
(0.771846 0.121863 0)
(0.909868 0.152233 -2.61995e-20)
(1.02695 0.179296 -1.23773e-20)
(1.11937 0.201328 0)
(1.18718 0.217645 -2.09823e-20)
(1.23319 0.228448 0)
(1.26167 0.234518 5.24255e-20)
(1.27721 0.236887 -3.32227e-20)
(1.28389 0.236577 1.49232e-20)
(1.28498 0.234455 2.64972e-20)
(1.2828 0.231174 -1.18142e-21)
(1.27889 0.227182 -1.19614e-20)
(1.27418 0.222764 0)
(1.26917 0.21809 -9.25446e-21)
(1.26413 0.213254 -8.65303e-21)
(1.25919 0.208311 0)
(1.25439 0.20329 0)
(1.24973 0.198209 -6.55348e-21)
(1.24522 0.193083 -1.70995e-20)
(1.24083 0.187922 3.27352e-20)
(1.23657 0.182738 0)
(1.23242 0.177541 1.75386e-20)
(1.22837 0.172342 0)
(1.22442 0.167154 7.40122e-21)
(1.22056 0.161988 0)
(1.2168 0.156855 5.35577e-21)
(1.21311 0.151765 -1.60685e-20)
(1.20948 0.146731 -4.94492e-21)
(1.20587 0.141836 0)
(1.20238 0.136483 0)
(0.00362254 0.000586685 2.15568e-20)
(0.0508657 0.00104555 2.0659e-20)
(0.135936 0.00934145 0)
(0.253611 0.0253342 1.83705e-20)
(0.396475 0.0489382 -1.69978e-20)
(0.554081 0.0789769 3.33166e-20)
(0.713783 0.112827 -1.53396e-20)
(0.863043 0.14707 4.32014e-20)
(0.992048 0.178441 -7.98325e-22)
(1.09534 0.204594 -1.29519e-20)
(1.17196 0.224414 1.15225e-20)
(1.22441 0.237916 0)
(1.25714 0.245887 1.88977e-20)
(1.27517 0.249475 -4.42337e-20)
(1.28311 0.249872 1.65045e-20)
(1.28465 0.248101 2.86562e-20)
(1.28246 0.244947 -1.41644e-20)
(1.2783 0.240951 2.37283e-20)
(1.27322 0.236456 -4.48176e-20)
(1.26783 0.231668 -1.96116e-20)
(1.26241 0.226704 5.48566e-20)
(1.25711 0.221628 -8.8833e-21)
(1.25197 0.216475 0)
(1.24702 0.211269 0)
(1.24224 0.206023 1.20854e-20)
(1.23762 0.200752 -6.36263e-21)
(1.23315 0.195464 -5.51057e-21)
(1.22881 0.190173 -4.49584e-21)
(1.22461 0.184886 -8.55918e-21)
(1.22054 0.179617 -1.09791e-20)
(1.21659 0.174375 1.07268e-20)
(1.21276 0.169171 0)
(1.20903 0.164015 -2.65714e-21)
(1.2054 0.158917 3.66257e-22)
(1.20183 0.153889 0)
(1.19828 0.148942 0)
(1.19481 0.143785 3.36471e-21)
(0.0111275 -0.000279253 -1.07951e-20)
(0.0758739 0.000778091 2.16269e-20)
(0.180046 0.0126541 -2.06706e-20)
(0.31639 0.0341649 0)
(0.474659 0.064088 -1.78664e-20)
(0.64153 0.0999614 1.68341e-20)
(0.802587 0.137999 1.52951e-20)
(0.945446 0.174156 -1.53692e-20)
(1.06224 0.20523 0)
(1.15035 0.229449 0)
(1.21153 0.246467 -1.1528e-20)
(1.25026 0.256985 0)
(1.27199 0.262253 0)
(1.28192 0.263647 -1.75367e-20)
(1.28432 0.262393 -7.9256e-21)
(1.28231 0.259443 2.13064e-20)
(1.27797 0.255464 -3.32825e-20)
(1.27254 0.250882 0)
(1.26674 0.245953 2.6674e-20)
(1.2609 0.240823 -1.06987e-21)
(1.25521 0.23557 -2.72922e-20)
(1.24971 0.23024 1.53944e-20)
(1.24442 0.224859 -8.19622e-22)
(1.23935 0.219445 -2.00234e-20)
(1.23447 0.214012 -1.15844e-20)
(1.22977 0.208571 6.30549e-22)
(1.22524 0.203134 9.77229e-21)
(1.22087 0.19771 -4.00892e-21)
(1.21665 0.192311 4.88659e-22)
(1.21257 0.186946 -6.64975e-21)
(1.20864 0.181626 2.22536e-20)
(1.20485 0.176359 -7.6462e-22)
(1.20118 0.171155 -7.95366e-21)
(1.19761 0.166022 -4.07577e-21)
(1.1941 0.160966 8.46772e-21)
(1.19062 0.155962 0)
(1.18719 0.150953 -3.36744e-21)
(0.0200797 -0.000697144 2.26152e-20)
(0.104376 0.00211395 0)
(0.228565 0.0187741 0)
(0.382948 0.0467269 0)
(0.554198 0.0832789 0)
(0.726463 0.124528 0)
(0.884578 0.16568 0)
(1.01753 0.202449 0)
(1.12021 0.232089 0)
(1.19299 0.253632 -1.27803e-20)
(1.24 0.267539 -1.16306e-20)
(1.26704 0.275103 0)
(1.27999 0.277896 0)
(1.28384 0.277388 8.73968e-21)
(1.28231 0.274753 2.32764e-20)
(1.2779 0.270826 -2.86888e-20)
(1.27214 0.266148 1.98037e-20)
(1.2659 0.261047 0)
(1.25962 0.255707 5.34484e-21)
(1.25348 0.25023 0)
(1.24758 0.244671 8.37166e-21)
(1.24194 0.239063 -1.97403e-20)
(1.23654 0.233427 -1.01922e-20)
(1.23137 0.22778 1.95042e-20)
(1.22642 0.222134 8.27956e-21)
(1.22166 0.216499 -1.30848e-20)
(1.2171 0.210888 -4.73694e-21)
(1.21271 0.205309 0)
(1.2085 0.199772 7.19498e-21)
(1.20445 0.194288 -2.22387e-22)
(1.20056 0.188865 -6.16812e-21)
(1.19683 0.183512 0)
(1.19323 0.178235 0)
(1.18973 0.173041 0)
(1.18629 0.167926 -1.76833e-21)
(1.1829 0.162862 4.70384e-21)
(1.17953 0.157946 -3.01715e-21)
(0.0304694 -0.000509636 0)
(0.136091 0.00541429 0)
(0.28067 0.028083 0)
(0.451735 0.0632204 -1.02597e-20)
(0.632921 0.106378 2.27071e-22)
(0.806592 0.152214 -8.63545e-21)
(0.958043 0.195251 4.18854e-20)
(1.07867 0.231402 -8.38675e-21)
(1.16652 0.258697 -2.14892e-20)
(1.22476 0.27709 1.2789e-20)
(1.25932 0.287791 1.16388e-20)
(1.27676 0.292552 0)
(1.28293 0.293128 9.27494e-21)
(1.28232 0.290976 -8.87181e-21)
(1.27804 0.287162 0)
(1.27201 0.282387 -2.63236e-22)
(1.26532 0.277079 -9.6396e-21)
(1.25854 0.27148 0)
(1.25193 0.265721 9.96779e-21)
(1.24558 0.259875 -9.53935e-21)
(1.23953 0.253981 8.07357e-21)
(1.23377 0.248066 3.34801e-21)
(1.22828 0.242148 -1.36703e-20)
(1.22305 0.23624 0)
(1.21805 0.230354 2.7811e-21)
(1.21327 0.224502 2.49841e-21)
(1.20869 0.218692 0)
(1.20432 0.212935 -3.76263e-21)
(1.20013 0.207239 3.60351e-21)
(1.19613 0.201614 3.21449e-21)
(1.1923 0.196067 0)
(1.18865 0.190606 4.70608e-21)
(1.18512 0.185236 6.78099e-22)
(1.1817 0.179959 -3.98384e-21)
(1.17835 0.174761 -6.51356e-22)
(1.17504 0.169635 -5.92809e-22)
(1.17175 0.16476 3.28134e-21)
(0.0422169 0.000445829 3.19535e-21)
(0.170559 0.0110199 1.21963e-20)
(0.335298 0.0408837 5.56505e-21)
(0.521037 0.0837037 -1.5991e-20)
(0.708759 0.133103 1.01379e-20)
(0.880092 0.182489 -9.1191e-21)
(1.02198 0.226146 4.56981e-21)
(1.12891 0.260605 7.76443e-21)
(1.20215 0.284889 1.06537e-20)
(1.24721 0.299881 0)
(1.27121 0.307431 5.65838e-21)
(1.28098 0.3096 -5.41153e-21)
(1.28202 0.308204 0)
(1.2782 0.304615 2.105e-21)
(1.27202 0.29976 0)
(1.2649 0.294211 0)
(1.25759 0.288295 -2.85777e-21)
(1.25044 0.282189 4.36305e-21)
(1.24359 0.275986 -4.81865e-21)
(1.23709 0.26974 4.61155e-21)
(1.23092 0.263479 0)
(1.22508 0.257225 0)
(1.21953 0.250994 7.94969e-21)
(1.21426 0.244797 -1.58015e-21)
(1.20925 0.238647 -1.23969e-21)
(1.20446 0.232551 0)
(1.19991 0.22652 -1.96671e-21)
(1.19556 0.220562 3.63143e-21)
(1.19142 0.214685 -9.04417e-22)
(1.18749 0.208898 0)
(1.18375 0.203208 0)
(1.18019 0.197619 5.25128e-22)
(1.17676 0.192137 -5.70203e-22)
(1.17344 0.186756 0)
(1.17018 0.181459 -4.45557e-22)
(1.16697 0.176273 -3.91756e-22)
(1.16376 0.171386 -5.96047e-22)
(0.0552073 0.00233732 -3.14015e-21)
(0.207222 0.0192454 0)
(0.391306 0.0573821 0)
(0.589208 0.108084 -5.45865e-21)
(0.779987 0.16305 -2.53468e-21)
(0.945725 0.214807 2.42278e-21)
(1.07601 0.257893 -4.31843e-21)
(1.16878 0.289796 0)
(1.22824 0.310634 -3.57239e-21)
(1.2617 0.32215 0)
(1.27698 0.326687 1.40504e-21)
(1.28075 0.326484 -2.60346e-21)
(1.27796 0.323321 2.3334e-21)
(1.27186 0.31844 -2.17599e-21)
(1.26437 0.312625 -9.66721e-22)
(1.25651 0.306328 0)
(1.24878 0.299795 0)
(1.24138 0.293154 1.36212e-21)
(1.23438 0.286473 0)
(1.22776 0.279789 5.16445e-22)
(1.22153 0.273126 -3.3487e-23)
(1.21564 0.266501 -3.02889e-23)
(1.21007 0.259926 -1.58797e-21)
(1.20479 0.253414 -1.74262e-21)
(1.19979 0.246972 1.24094e-21)
(1.19504 0.24061 0)
(1.19053 0.234335 0)
(1.18625 0.228155 0)
(1.18219 0.222077 -7.70476e-22)
(1.17835 0.216109 0)
(1.17472 0.210257 0)
(1.17127 0.204523 -2.89299e-22)
(1.16796 0.198909 -6.85952e-22)
(1.16475 0.193408 -1.76832e-22)
(1.16161 0.188002 -1.76644e-22)
(1.15851 0.182756 -2.9749e-22)
(1.15541 0.177815 0)
(8.0453e-05 -0.0628359 -3.39699e-21)
(-0.00417119 -0.132086 0)
(-0.0148359 -0.163507 0)
(-0.0292735 -0.170686 -6.31409e-21)
(-0.0459554 -0.163863 3.10077e-21)
(-0.0640628 -0.149972 -2.96449e-21)
(-0.0830437 -0.133032 -5.58194e-21)
(-0.102528 -0.114856 0)
(-0.122276 -0.0958563 -5.17374e-21)
(-0.142134 -0.0757503 0)
(-0.161993 -0.0540473 -2.49248e-21)
(-0.181771 -0.0302916 2.38384e-21)
(-0.201351 -0.00412443 -2.33684e-21)
(-0.22064 0.0246871 -4.38168e-21)
(-0.23956 0.0562561 2.16581e-21)
(-0.257971 0.0906639 0)
(-0.275727 0.127908 0)
(-0.29268 0.167892 3.79961e-21)
(-0.308674 0.21043 0)
(-0.323547 0.255236 -1.84511e-21)
(-0.337136 0.301924 -6.44626e-24)
(-0.349273 0.350015 -1.43121e-24)
(-0.359787 0.398933 -6.2044e-21)
(-0.368497 0.448019 -4.36612e-21)
(-0.375216 0.496536 5.62716e-21)
(-0.379738 0.543679 0)
(-0.381832 0.588582 0)
(-0.381238 0.630333 0)
(-0.377653 0.667982 -4.49164e-21)
(-0.370733 0.700554 0)
(-0.360098 0.727065 0)
(-0.345372 0.746555 -5.6673e-21)
(-0.326218 0.758134 -1.72976e-21)
(-0.302315 0.761034 1.6913e-21)
(-0.273306 0.754622 -4.83332e-21)
(-0.239101 0.738436 -3.0735e-21)
(-0.200647 0.712505 0)
(0.00213218 -0.058326 1.00524e-20)
(-0.000423146 -0.120929 -1.34451e-20)
(-0.0110091 -0.147671 -6.46373e-21)
(-0.0261428 -0.151599 3.09996e-20)
(-0.0438857 -0.142514 -1.18135e-20)
(-0.0632362 -0.127026 1.1365e-20)
(-0.0835648 -0.108947 -1.59178e-20)
(-0.104474 -0.0899596 1.02049e-20)
(-0.125718 -0.0703959 1.49764e-20)
(-0.147135 -0.0499184 9.73712e-21)
(-0.168605 -0.0280006 -1.87019e-20)
(-0.190008 -0.00417555 8.98062e-21)
(-0.211246 0.0218967 0)
(-0.232217 0.0504045 1.2794e-20)
(-0.252775 0.0814772 -8.07829e-21)
(-0.272759 0.115163 0)
(-0.29199 0.151432 2.24287e-20)
(-0.310271 0.190169 -1.83108e-20)
(-0.327388 0.231171 0)
(-0.343113 0.274139 0)
(-0.357204 0.318674 0)
(-0.369402 0.364279 0)
(-0.379437 0.41036 5.67153e-21)
(-0.387017 0.456233 1.72069e-20)
(-0.391836 0.501127 -5.62201e-21)
(-0.393564 0.544197 0)
(-0.391858 0.584534 9.57874e-21)
(-0.38636 0.621182 -1.82342e-20)
(-0.376707 0.653155 1.31653e-20)
(-0.362548 0.679463 0)
(-0.343562 0.699144 0)
(-0.319497 0.711308 3.75691e-21)
(-0.290207 0.715194 -3.31819e-21)
(-0.255666 0.710239 0)
(-0.215904 0.696115 -3.17806e-21)
(-0.171059 0.6728 -3.12586e-21)
(-0.121919 0.640915 -6.05377e-21)
(0.00386533 -0.0532416 0)
(0.00282421 -0.108922 0)
(-0.00741186 -0.131099 0)
(-0.0227551 -0.131986 1.18082e-20)
(-0.0409646 -0.120795 1.46055e-23)
(-0.0608951 -0.103772 1.08467e-20)
(-0.0818545 -0.084542 -3.08355e-20)
(-0.103421 -0.0647067 -1.02632e-20)
(-0.125334 -0.0445576 9.23884e-21)
(-0.147411 -0.0237271 1.78134e-20)
(-0.169511 -0.00166303 1.70917e-20)
(-0.191506 0.0221135 0)
(-0.213268 0.0479224 0)
(-0.234654 0.0759629 0)
(-0.255493 0.106328 0)
(-0.275591 0.139032 -2.84363e-20)
(-0.294725 0.174013 6.62876e-21)
(-0.312647 0.21113 0)
(-0.329086 0.250154 -2.5637e-20)
(-0.343747 0.290763 2.45345e-20)
(-0.356315 0.332536 -2.34608e-20)
(-0.366456 0.374952 1.07468e-20)
(-0.373818 0.417396 -1.01242e-23)
(-0.378034 0.459164 0)
(-0.378728 0.499468 9.24955e-21)
(-0.375521 0.537452 8.81143e-21)
(-0.368043 0.572206 0)
(-0.355943 0.602791 1.66683e-20)
(-0.338913 0.628261 -1.59622e-20)
(-0.316706 0.647698 1.47184e-20)
(-0.28916 0.660248 0)
(-0.256218 0.665159 -2.80826e-20)
(-0.217961 0.661837 6.61507e-21)
(-0.174622 0.649895 2.60079e-20)
(-0.126516 0.62921 4.47155e-20)
(-0.0738544 0.600005 -5.72427e-21)
(-0.0173001 0.563407 -1.80555e-20)
(0.00526054 -0.0479185 -2.48649e-22)
(0.00554948 -0.0967392 0)
(-0.00407898 -0.114603 0)
(-0.0191691 -0.112698 0)
(-0.0372798 -0.0995567 0)
(-0.0571569 -0.0810512 0)
(-0.0780569 -0.0606478 0)
(-0.099534 -0.0399165 0)
(-0.121308 -0.019155 0)
(-0.143175 0.00200272 -1.78019e-20)
(-0.164966 0.0241207 -1.70805e-20)
(-0.186522 0.0476972 3.17741e-20)
(-0.207679 0.0730685 -3.03908e-20)
(-0.22826 0.100418 1.4077e-20)
(-0.248065 0.129813 -1.44678e-20)
(-0.266862 0.161234 5.45011e-20)
(-0.284391 0.194587 -1.3292e-20)
(-0.30036 0.229701 0)
(-0.314449 0.26632 1.11819e-20)
(-0.326317 0.304097 0)
(-0.335597 0.342591 -2.12502e-20)
(-0.34191 0.381269 -9.69892e-21)
(-0.344866 0.419506 4.87909e-20)
(-0.344071 0.456596 -1.93739e-20)
(-0.339143 0.491761 -4.43362e-20)
(-0.329718 0.524171 -8.71545e-21)
(-0.31547 0.552962 1.67186e-20)
(-0.29613 0.57726 0)
(-0.271502 0.596216 -2.95956e-20)
(-0.241487 0.609031 -1.16028e-21)
(-0.206094 0.614989 2.73822e-20)
(-0.165464 0.613523 -2.70158e-20)
(-0.119862 0.604192 2.58783e-20)
(-0.0697095 0.586754 0)
(-0.0156021 0.561213 -1.26471e-20)
(0.0422146 0.527842 -1.27574e-20)
(0.104192 0.487451 2.41223e-20)
(0.00633424 -0.0426581 -3.47998e-20)
(0.00778135 -0.0849757 -2.36462e-20)
(-0.00102031 -0.0989002 2.26037e-20)
(-0.0154587 -0.0945037 0)
(-0.0329795 -0.0796013 -2.01971e-20)
(-0.0522458 -0.0596869 -1.96737e-20)
(-0.0724697 -0.0381014 -1.87459e-20)
(-0.0931802 -0.0164305 5.34238e-20)
(-0.114079 0.00497024 0)
(-0.134938 0.0264301 0)
(-0.155557 0.0485157 -1.51801e-20)
(-0.175739 0.0717472 0)
(-0.195282 0.0964808 0)
(-0.213976 0.122901 -2.71997e-20)
(-0.231588 0.151059 -1.34484e-20)
(-0.247857 0.180907 -1.17944e-20)
(-0.262494 0.212318 -1.1328e-20)
(-0.275179 0.245092 0)
(-0.285566 0.278948 -3.32879e-20)
(-0.293288 0.313523 2.22141e-22)
(-0.297962 0.348367 2.02888e-20)
(-0.299199 0.382945 1.75624e-21)
(-0.296612 0.416644 -3.49987e-20)
(-0.28983 0.448782 1.59312e-20)
(-0.278511 0.47862 0)
(-0.262355 0.505386 0)
(-0.241122 0.528291 1.23121e-21)
(-0.214648 0.546558 4.21611e-20)
(-0.18287 0.559467 3.70542e-22)
(-0.145841 0.566349 -5.32358e-20)
(-0.103694 0.566649 -4.01277e-20)
(-0.0567144 0.559941 -1.36792e-21)
(-0.00534301 0.545946 6.21972e-20)
(0.0499502 0.52456 7.53961e-20)
(0.10849 0.495854 -4.86661e-20)
(0.169029 0.460346 0)
(0.235769 0.417447 -2.41e-20)
(0.00712905 -0.0377038 4.5846e-22)
(0.00958042 -0.0741039 2.22537e-20)
(0.00176221 -0.0845681 0)
(-0.0117239 -0.0780459 2.03108e-20)
(-0.0282755 -0.061628 5.96404e-20)
(-0.0464898 -0.0404357 -3.77167e-20)
(-0.0655356 -0.0177061 5.33643e-20)
(-0.0849171 0.00491865 -8.58481e-20)
(-0.104317 0.0269774 1.38377e-22)
(-0.123489 0.0487223 4.61567e-20)
(-0.142202 0.0706956 1.51725e-20)
(-0.160225 0.0934352 0)
(-0.177324 0.117328 -2.65994e-20)
(-0.193251 0.14258 3.92635e-20)
(-0.207747 0.169241 -2.4181e-20)
(-0.220531 0.197248 0)
(-0.2313 0.226449 2.26212e-20)
(-0.239723 0.25662 -4.10605e-20)
(-0.245451 0.287462 4.7147e-23)
(-0.248122 0.318603 3.69902e-20)
(-0.247364 0.349596 -3.51654e-20)
(-0.242812 0.37992 5.12162e-20)
(-0.234119 0.408996 0)
(-0.220968 0.436183 0)
(-0.203083 0.460802 -2.92429e-20)
(-0.180257 0.482167 -1.36554e-20)
(-0.152357 0.49958 4.10868e-20)
(-0.119313 0.512382 -1.36512e-20)
(-0.0811807 0.519967 -2.48174e-20)
(-0.0381448 0.521802 6.39289e-20)
(0.00953585 0.517478 -6.15315e-20)
(0.0614857 0.506685 0)
(0.117193 0.489276 -1.23906e-20)
(0.175972 0.465299 -8.48149e-22)
(0.237836 0.434755 0)
(0.298819 0.398704 0)
(0.369411 0.354901 2.40567e-20)
(0.00770154 -0.0332234 -2.16089e-20)
(0.0110207 -0.0644428 -4.72332e-22)
(0.00426258 -0.0720044 -6.21539e-20)
(-0.00809256 -0.063789 -6.6689e-22)
(-0.0234351 -0.0461805 3.79827e-20)
(-0.0403034 -0.0239296 1.76967e-20)
(-0.057819 -0.000176615 -3.43699e-20)
(-0.0754569 0.023358 0)
(-0.0928833 0.0460685 -3.03287e-20)
(-0.109839 0.0680826 -1.5102e-20)
(-0.126077 0.0898815 2.78261e-20)
(-0.141344 0.112004 -1.05198e-19)
(-0.155376 0.134871 5.0465e-20)
(-0.167899 0.158727 -2.27649e-20)
(-0.178633 0.183647 4.52804e-20)
(-0.187285 0.209571 2.06272e-20)
(-0.19355 0.236339 0)
(-0.197106 0.263712 -3.78945e-20)
(-0.197623 0.291386 5.5048e-20)
(-0.194768 0.318991 0)
(-0.18821 0.346091 -1.68958e-20)
(-0.177621 0.372179 -1.47571e-20)
(-0.162728 0.396752 0)
(-0.14329 0.419207 0)
(-0.119105 0.438947 -1.28952e-20)
(-0.0900593 0.455366 6.55139e-20)
(-0.0561298 0.467872 -2.56444e-20)
(-0.0173614 0.475923 0)
(0.0260915 0.479015 4.80216e-20)
(0.0739615 0.476749 0)
(0.125884 0.468822 2.27802e-20)
(0.181367 0.455054 0)
(0.239993 0.43536 -7.01953e-20)
(0.300426 0.409946 2.18026e-20)
(0.364236 0.378685 -2.26879e-20)
(0.42372 0.343183 0)
(0.495865 0.300026 0)
(0.0081086 -0.0293013 0)
(0.0121683 -0.0561418 0)
(0.00645646 -0.0614028 2.0473e-20)