/*--------------------------------*- C++ -*----------------------------------*\
| =========                 |                                                 |
| \\      /  F ield         | OpenFOAM: The Open Source CFD Toolbox           |
|  \\    /   O peration     | Version:  2512                                  |
|   \\  /    A nd           | Website:  www.openfoam.com                      |
|    \\/     M anipulation  |                                                 |
\*---------------------------------------------------------------------------*/
FoamFile
{
    version     2.0;
    format      ascii;
    arch        "LSB;label=32;scalar=64";
    class       volVectorField;
    location    "160.85";
    object      U;
}
// * * * * * * * * * * * * * * * * * * * * * * * * * * * * * * * * * * * * * //

dimensions      [0 1 -1 0 0 0 0];

internalField   nonuniform List<vector> 
13248
(
(-0.0156827 0.0168249 6.22299e-20)
(-0.0227398 0.0307205 0)
(-0.00934774 0.0319043 -1.08626e-19)
(0.0218983 0.0244563 1.0058e-19)
(0.0713248 0.0117634 9.36046e-20)
(0.140456 -0.00405962 0)
(0.230451 -0.0216032 0)
(0.340663 -0.039621 2.24171e-19)
(0.467436 -0.0568341 -1.50609e-21)
(0.603841 -0.0720263 -1.90188e-19)
(0.740648 -0.084263 1.6892e-19)
(0.868164 -0.093027 -1.04591e-19)
(0.97814 -0.0982177 0)
(1.06514 -0.100064 -1.51283e-19)
(1.12709 -0.0989693 2.70036e-19)
(1.16503 -0.0954523 -6.39897e-20)
(1.18254 -0.0898668 -9.11169e-20)
(1.1842 -0.0828115 8.49527e-20)
(1.17556 -0.0741842 0)
(1.16103 -0.0649291 0)
(1.14433 -0.0542503 0)
(1.12894 -0.0433753 0)
(1.11494 -0.0328685 1.45639e-20)
(1.10364 -0.0199069 3.96638e-20)
(-0.013364 0.0124776 -1.87121e-19)
(-0.0150529 0.0220195 1.18027e-19)
(0.00792778 0.0216912 -1.54655e-22)
(0.0543227 0.0140715 -1.51543e-19)
(0.125037 0.00213916 -9.34731e-20)
(0.221259 -0.0116839 -8.64981e-20)
(0.342279 -0.0254538 -1.59938e-19)
(0.483512 -0.037627 1.47436e-19)
(0.635915 -0.0471729 0)
(0.787441 -0.0537192 1.87144e-21)
(0.925824 -0.0575133 2.46118e-21)
(1.04128 -0.0591733 1.00972e-19)
(1.12822 -0.059392 0)
(1.1856 -0.0586965 0)
(1.21629 -0.0573652 9.25079e-20)
(1.22582 -0.0553985 -1.72075e-19)
(1.22061 -0.0526714 8.91268e-20)
(1.20695 -0.0490213 -8.30991e-20)
(1.18978 -0.0441593 -3.27897e-20)
(1.17234 -0.0385262 -5.1588e-20)
(1.15705 -0.0310093 -1.71636e-20)
(1.14367 -0.0244111 -2.99439e-20)
(1.13379 -0.0143746 5.04771e-20)
(1.1232 -0.00971875 1.26904e-20)
(-0.0108248 0.00856472 0)
(-0.00422727 0.0125013 0)
(0.0324957 0.00932563 5.44344e-20)
(0.0995125 0.00111551 5.01478e-20)
(0.197963 -0.0091768 -3.62522e-22)
(0.327106 -0.018802 -8.62196e-20)
(0.481306 -0.0257685 0)
(0.648915 -0.0291712 -7.33764e-20)
(0.814393 -0.029296 6.56445e-20)
(0.962486 -0.0273134 -1.69976e-21)
(1.082 -0.0246752 -1.07115e-19)
(1.16774 -0.0225457 -9.21062e-20)
(1.22042 -0.0214864 5.3023e-21)
(1.24524 -0.0214405 -6.44106e-20)
(1.2497 -0.0219139 1.61455e-19)
(1.24151 -0.022258 0)
(1.22706 -0.0219056 -8.71178e-20)
(1.21073 -0.0204696 4.2949e-20)
(1.19482 -0.0178624 3.27552e-20)
(1.18058 -0.0141405 0)
(1.16763 -0.00944726 2.27774e-20)
(1.15659 -0.00448835 -7.2605e-20)
(1.14601 0.00129351 6.78009e-20)
(1.13657 0.00449252 3.60664e-20)
(-0.0077555 0.00525152 -6.37624e-20)
(0.0112976 0.00348244 -6.05077e-20)
(0.0679373 -0.00249499 5.5056e-20)
(0.162923 -0.0103816 0)
(0.295854 -0.0168874 0)
(0.46057 -0.0193842 8.40983e-23)
(0.642766 -0.0169658 0)
(0.822711 -0.0106494 -2.12868e-19)
(0.981454 -0.00269016 1.93425e-19)
(1.10617 0.00452687 -2.34732e-19)
(1.19229 0.00938297 5.25854e-20)
(1.2426 0.011378 0)
(1.26458 0.0109752 7.71518e-20)
(1.26735 0.00916578 -1.3875e-19)
(1.25909 0.00700386 3.28619e-20)
(1.24574 0.00528608 7.38828e-20)
(1.2308 0.00447073 -7.54731e-21)
(1.21584 0.00465282 -7.84445e-20)
(1.20157 0.00584654 0)
(1.18793 0.00766105 0)
(1.17539 0.0104838 -2.30968e-20)
(1.16367 0.0127022 1.95554e-20)
(1.15343 0.0169662 6.21985e-20)
(1.14344 0.0171319 -5.80699e-20)
(-0.0032271 0.00230679 -6.52728e-20)
(0.0338457 -0.00456386 -6.08143e-20)
(0.11786 -0.0119381 1.68514e-19)
(0.24824 -0.0170658 -1.02053e-19)
(0.419334 -0.0166613 9.4533e-20)
(0.615014 -0.00941337 1.71081e-19)
(0.810816 0.00300666 -1.17912e-19)
(0.982825 0.0170594 -1.37915e-19)
(1.11566 0.0292294 4.86319e-21)
(1.20502 0.0373682 1.72621e-19)
(1.25564 0.0410402 0)
(1.27707 0.0410985 4.3066e-20)
(1.27968 0.0389527 0)
(1.27189 0.0359352 -6.4478e-20)
(1.25925 0.0329694 8.95051e-20)
(1.24479 0.0305485 8.18365e-22)
(1.22992 0.0288324 -2.12127e-20)
(1.21536 0.0278578 3.74165e-20)
(1.20142 0.0275167 3.13119e-20)
(1.18856 0.0278312 -2.67991e-20)
(1.17679 0.0286267 2.30858e-20)
(1.16647 0.0295856 -1.9546e-20)
(1.15708 0.031741 0)
(1.14868 0.0305243 -1.40096e-20)
(0.00392773 -0.000570981 6.52565e-20)
(0.0658506 -0.0113753 6.24667e-20)
(0.18481 -0.0175252 -5.62747e-20)
(0.355641 -0.0163908 1.02983e-19)
(0.562234 -0.00597008 -9.53912e-20)
(0.775703 0.0118765 8.48669e-20)
(0.965394 0.0321582 -3.97657e-20)
(1.11139 0.0498406 1.03756e-19)
(1.2085 0.0619765 -6.33063e-20)
(1.26289 0.0680693 1.06769e-19)
(1.28604 0.0692956 -2.4051e-19)
(1.28958 0.0674334 8.57278e-20)
(1.28246 0.0640702 -7.15351e-20)
(1.2703 0.0602789 6.6594e-20)
(1.25618 0.0566544 5.39224e-20)
(1.24162 0.0534719 4.4752e-20)
(1.22738 0.0508559 -1.23255e-19)
(1.21385 0.0488288 7.50119e-20)
(1.20125 0.0473993 -3.13064e-20)
(1.1896 0.0464755 7.77339e-20)
(1.17893 0.0460264 -2.50701e-20)
(1.16907 0.0457311 -5.63771e-20)
(1.15995 0.0462318 5.11025e-20)
(1.15145 0.0441736 1.40049e-20)
(0.0148241 -0.00339162 0)
(0.109212 -0.0162881 2.44199e-22)
(0.269469 -0.0176594 1.14711e-19)
(0.481045 -0.00642808 -1.05986e-19)
(0.71274 0.0157457 -9.41999e-20)
(0.925586 0.0424915 1.71929e-19)
(1.09176 0.0666432 -7.84813e-20)
(1.20277 0.0838835 1.01422e-19)
(1.26521 0.093354 -3.13421e-21)
(1.29239 0.0964616 -5.48125e-20)
(1.2977 0.0953772 1.15205e-19)
(1.29121 0.0920281 -1.66114e-19)
(1.27924 0.0877334 0)
(1.26521 0.083259 -3.04586e-20)
(1.2508 0.0790019 -7.8517e-20)
(1.23673 0.0751535 2.47333e-20)
(1.22329 0.0717824 1.43547e-21)
(1.21058 0.0688968 -4.80423e-20)
(1.19859 0.0664519 4.82012e-21)
(1.18737 0.0644141 5.3997e-20)
(1.17691 0.0626756 -2.24729e-20)
(1.16731 0.0612443 -7.90273e-21)
(1.15842 0.060167 2.57258e-20)
(1.15024 0.057534 0)
(0.0303538 -0.00580335 0)
(0.164923 -0.0180024 3.14065e-20)
(0.370064 -0.0103873 -1.47226e-19)
(0.616333 0.0139764 5.27246e-20)
(0.857083 0.0472358 -4.88372e-20)
(1.05214 0.079228 -4.30426e-20)
(1.18535 0.103218 -7.45868e-20)
(1.26168 0.117391 3.70084e-20)
(1.29617 0.12322 3.16964e-20)
(1.30461 0.123362 0)
(1.29912 0.12026 6.69098e-20)
(1.2873 0.115624 -9.65658e-20)
(1.27322 0.110463 7.11947e-20)
(1.25875 0.1053 3.04714e-20)
(1.24463 0.100379 -2.3715e-20)
(1.23108 0.0958003 -1.87888e-20)
(1.21819 0.0915987 -1.6943e-20)
(1.206 0.0877801 5.22121e-20)
(1.1946 0.0843446 0)
(1.18402 0.0812672 2.41031e-20)
(1.17426 0.0785343 1.89323e-20)
(1.16522 0.0761289 -4.80649e-20)
(1.15674 0.0738149 -3.06683e-20)
(1.14886 0.0710442 2.83918e-20)
(0.0510723 -0.00714982 -3.54346e-20)
(0.232652 -0.0147041 -8.05581e-22)
(0.482036 0.00615453 2.97356e-20)
(0.75111 0.0447167 8.07176e-20)
(0.984209 0.0861383 2.24218e-20)
(1.15052 0.119283 -4.2935e-20)
(1.24926 0.140199 3.89114e-20)
(1.29617 0.150058 -3.34338e-20)
(1.31021 0.152096 5.78165e-20)
(1.30659 0.149524 2.4013e-20)
(1.295 0.144656 -6.69514e-20)
(1.2806 0.138858 1.94176e-20)
(1.26569 0.132827 3.20615e-20)
(1.25114 0.126881 -1.57554e-20)
(1.23722 0.121165 0)
(1.22402 0.115751 2.20851e-20)
(1.21159 0.110682 3.61261e-20)
(1.19996 0.105977 5.43686e-21)
(1.1891 0.101634 -2.91079e-20)
(1.179 0.0976385 1.17756e-20)
(1.16955 0.0939666 0)
(1.16066 0.090564 -8.71682e-21)
(1.15227 0.0872119 -7.79772e-21)
(1.14434 0.084186 0)
(0.0770888 -0.00659013 0)
(0.310449 -0.00447865 1.70886e-20)
(0.598514 0.0330077 3.10425e-20)
(0.875658 0.0844472 -8.13051e-20)
(1.08829 0.130027 2.56091e-20)
(1.22173 0.160912 0)
(1.28931 0.17702 3.62293e-20)
(1.31334 0.182139 -4.96752e-20)
(1.3134 0.180563 -2.85731e-20)
(1.30248 0.175548 1.2826e-20)
(1.2876 0.169042 -1.94208e-20)
(1.27195 0.162034 4.71298e-20)
(1.2567 0.154976 2.30012e-20)
(1.24223 0.14807 -1.61026e-20)
(1.22861 0.141421 -1.7525e-21)
(1.21583 0.135086 -4.14624e-20)
(1.20387 0.129094 1.86047e-20)
(1.19269 0.123459 -4.00149e-22)
(1.18229 0.11818 0)
(1.17261 0.113255 -1.17871e-20)
(1.1636 0.108676 0)
(1.15514 0.104359 2.50922e-20)
(1.14716 0.100211 -2.9314e-20)
(1.1396 0.0969057 1.30998e-20)
(0.107967 -0.00322203 -9.45084e-21)
(0.39477 0.0142253 -4.26978e-20)
(0.71177 0.0700259 4.74884e-20)
(0.983179 0.131237 2.71517e-20)
(1.16796 0.177048 -1.29659e-20)
(1.26922 0.203241 2.05561e-20)
(1.31094 0.213668 -9.99248e-21)
(1.31825 0.214058 1.60673e-20)
(1.30922 0.209126 0)
(1.29403 0.20182 3.48323e-20)
(1.27742 0.193651 -1.51126e-21)
(1.26122 0.185297 -2.732e-20)
(1.24593 0.177052 1.14956e-20)
(1.23164 0.169044 -1.269e-20)
(1.2183 0.16134 -4.6506e-21)
(1.20586 0.15398 5.45973e-21)
(1.19429 0.146991 -4.09729e-21)
(1.18357 0.140388 -2.16127e-20)
(1.17366 0.13418 1.31376e-20)
(1.16448 0.128367 2.61846e-21)
(1.15589 0.122919 2.25172e-21)
(1.14777 0.117738 1.93437e-21)
(1.14004 0.112902 0)
(1.13261 0.109054 0)
(0.142764 0.00380774 9.46231e-21)
(0.481007 0.0422733 -8.77984e-21)
(0.815013 0.116114 -1.578e-20)
(1.07015 0.183213 0)
(1.22436 0.225987 -6.33667e-21)
(1.29682 0.24592 -5.44011e-21)
(1.31826 0.250323 -9.09028e-21)
(1.3139 0.246142 0)
(1.29919 0.238018 0)
(1.28164 0.228428 0)
(1.26423 0.218474 0)
(1.24787 0.208599 0)
(1.2327 0.198982 -7.17729e-21)
(1.21867 0.189703 3.23044e-21)
(1.2057 0.180807 5.51723e-21)
(1.19371 0.172324 2.54339e-21)
(1.18264 0.164272 6.16862e-21)
(1.17245 0.156657 0)
(1.16306 0.149482 -1.41187e-21)
(1.15438 0.142741 -1.30533e-21)
(1.14628 0.136392 -2.25525e-21)
(1.13867 0.130368 -1.9374e-21)
(1.13148 0.124876 0)
(1.12466 0.120322 1.31187e-21)
(0.00303277 -0.0954288 6.64393e-21)
(0.00396597 -0.236943 -6.31495e-21)
(-0.00654041 -0.328886 -1.16879e-20)
(-0.0260372 -0.381582 0)
(-0.0503158 -0.412277 -1.51875e-20)
(-0.0758903 -0.43526 4.71582e-21)
(-0.100555 -0.457983 -8.90092e-21)
(-0.123129 -0.482005 0)
(-0.142878 -0.505772 0)
(-0.159104 -0.526716 0)
(-0.171019 -0.542162 0)
(-0.177787 -0.549604 0)
(-0.178619 -0.546846 2.71426e-22)
(-0.172905 -0.532158 -6.57917e-21)
(-0.160313 -0.504431 1.26518e-20)
(-0.140925 -0.463354 1.85851e-20)
(-0.115227 -0.409091 5.70879e-21)
(-0.0840667 -0.3428 0)
(-0.0487206 -0.26588 5.6048e-21)
(-0.0106202 -0.179808 -1.52065e-20)
(0.0295133 -0.0858147 -9.32729e-21)
(0.0700691 0.015314 -8.6466e-21)
(0.108072 0.123556 0)
(0.148731 0.238317 0)
(0.00644827 -0.0898828 -1.98612e-20)
(0.00807752 -0.219721 3.14605e-20)
(-0.00777599 -0.301413 -1.15956e-20)
(-0.0340003 -0.347249 -2.16654e-20)
(-0.0647909 -0.374653 3.01659e-20)
(-0.0965646 -0.397137 -1.89809e-20)
(-0.127492 -0.421124 2.65002e-20)
(-0.156803 -0.447581 1.67185e-20)
(-0.18406 -0.474886 0)
(-0.208735 -0.500666 -1.56679e-20)
(-0.230119 -0.522468 -8.36467e-22)
(-0.247367 -0.537905 1.367e-20)
(-0.259602 -0.544745 1.98272e-20)
(-0.266016 -0.541033 2.59519e-20)
(-0.265988 -0.525246 -1.19438e-20)
(-0.259185 -0.496413 -3.53258e-20)
(-0.245625 -0.454162 1.0927e-20)
(-0.225729 -0.398768 -4.10717e-20)
(-0.200292 -0.331008 0)
(-0.170363 -0.251982 9.96756e-21)
(-0.136979 -0.162953 9.31742e-21)
(-0.101111 -0.0653479 8.63726e-21)
(-0.0649291 0.0403312 0)
(-0.0275234 0.152394 0)
(0.00842991 -0.078175 0)
(0.00983058 -0.191948 6.2489e-20)
(-0.0102964 -0.263521 -2.31395e-20)
(-0.0412245 -0.303893 2.16387e-20)
(-0.0761414 -0.329069 -6.01595e-20)
(-0.111558 -0.351207 0)
(-0.145993 -0.375865 -3.5622e-20)
(-0.179027 -0.403784 1.63644e-20)
(-0.210496 -0.433549 -3.15018e-20)
(-0.240095 -0.463147 1.47371e-20)
(-0.267298 -0.490446 8.53359e-20)
(-0.291404 -0.513268 -3.95542e-20)
(-0.311608 -0.529439 -6.44402e-20)
(-0.327082 -0.536893 -2.42705e-20)
(-0.337066 -0.533812 -5.55971e-22)
(-0.340954 -0.518756 8.57238e-20)
(-0.338359 -0.490771 -4.01011e-20)
(-0.329172 -0.449437 2.53845e-21)
(-0.313601 -0.394859 0)
(-0.292133 -0.327632 -2.8903e-20)
(-0.265325 -0.248789 0)
(-0.23368 -0.159601 -2.83282e-20)
(-0.198653 -0.0611479 9.36853e-20)
(-0.163982 0.0456688 -2.50077e-21)
(0.0084142 -0.061933 0)
(0.00869742 -0.156922 7.58666e-23)
(-0.0141873 -0.218874 2.32801e-20)
(-0.0475054 -0.254985 -2.17736e-20)
(-0.0840184 -0.27864 1.97464e-20)
(-0.120358 -0.30036 1.13545e-19)
(-0.155237 -0.324967 -3.52479e-20)
(-0.188416 -0.35315 -3.35852e-20)
(-0.219908 -0.383791 6.30915e-20)
(-0.249607 -0.415275 -8.94285e-20)
(-0.277232 -0.445866 2.73758e-20)
(-0.302369 -0.473733 2.60922e-20)
(-0.324508 -0.496956 0)
(-0.343085 -0.513596 2.34982e-20)
(-0.357523 -0.521795 0)
(-0.367261 -0.519899 3.7432e-20)
(-0.371778 -0.506569 -7.03168e-20)
(-0.370634 -0.480853 1.95223e-20)
(-0.363567 -0.442234 5.91912e-20)
(-0.350559 -0.390662 2.88834e-20)
(-0.331629 -0.32652 0)
(-0.306287 -0.250425 -6.11833e-20)
(-0.274621 -0.162761 2.16083e-20)
(-0.244401 -0.0646748 0)
(0.00623196 -0.0431711 0)
(0.00461966 -0.118005 -7.5343e-20)
(-0.019343 -0.170794 -2.37757e-20)
(-0.052705 -0.203499 -4.37603e-20)
(-0.0883524 -0.226178 4.05511e-20)
(-0.123036 -0.247572 -3.79719e-20)
(-0.155501 -0.271879 7.22535e-20)
(-0.185505 -0.299826 3.44224e-20)
(-0.213062 -0.330574 -9.4682e-20)
(-0.238112 -0.362801 5.97651e-20)
(-0.260498 -0.395036 -8.32985e-20)
(-0.280029 -0.425689 1.81202e-19)
(-0.296531 -0.453065 -9.62491e-20)
(-0.309865 -0.475419 4.35376e-20)
(-0.319931 -0.49105 1.17591e-19)
(-0.326637 -0.498401 -4.05036e-20)
(-0.329836 -0.496141 -3.39676e-20)
(-0.329281 -0.483225 -3.13386e-20)
(-0.324685 -0.458927 0)
(-0.315845 -0.422855 -3.84827e-20)
(-0.302563 -0.374766 -2.75758e-20)
(-0.28357 -0.3142 4.78591e-20)
(-0.257095 -0.240454 4.56664e-20)
(-0.224421 -0.155672 -3.76494e-20)
(0.00215181 -0.0240354 0)
(-0.00192636 -0.0785538 -1.02463e-19)
(-0.0252682 -0.122455 -9.26874e-22)
(-0.0563793 -0.152141 8.82185e-20)
(-0.0887677 -0.174073 0)
(-0.119316 -0.195142 0)
(-0.146688 -0.21898 0)
(-0.1705 -0.246416 -3.43508e-20)
(-0.19064 -0.276876 -5.88888e-22)
(-0.20697 -0.309268 6.02782e-20)
(-0.21933 -0.342268 -8.34346e-20)
(-0.22762 -0.374366 6.78709e-23)
(-0.231876 -0.403905 0)
(-0.232302 -0.429168 -4.35182e-20)
(-0.229265 -0.448498 3.54456e-20)
(-0.223235 -0.460433 -1.02545e-19)
(-0.214676 -0.463794 1.13687e-19)
(-0.203908 -0.457723 1.43792e-20)
(-0.191147 -0.441673 -1.12145e-20)
(-0.176405 -0.415599 -6.95255e-20)
(-0.15973 -0.37954 -2.16805e-20)
(-0.138761 -0.332846 5.75757e-20)
(-0.11963 -0.273193 -3.01102e-20)
(-0.0694976 -0.202792 0)
(-0.0031947 -0.00645974 5.48676e-20)
(-0.009964 -0.0416314 5.1399e-20)
(-0.0310175 -0.0767378 -4.90274e-20)
(-0.0576366 -0.103335 -9.11122e-20)
(-0.084324 -0.124446 8.44282e-20)
(-0.10811 -0.145065 -8.03582e-20)
(-0.127489 -0.16826 1.12597e-19)
(-0.141833 -0.194951 -3.42639e-20)
(-0.150833 -0.224813 6.59007e-20)
(-0.154242 -0.256943 0)
(-0.151898 -0.290099 5.73277e-20)
(-0.143831 -0.322757 -1.07053e-19)
(-0.13035 -0.353188 9.40393e-20)
(-0.112058 -0.379569 -8.75348e-20)
(-0.0898268 -0.400143 0)
(-0.0646761 -0.413422 6.51363e-20)
(-0.0376263 -0.41833 1.00901e-19)
(-0.00933654 -0.414168 -9.53261e-20)
(0.0193898 -0.400443 -3.36855e-20)
(0.0484592 -0.377573 -2.16047e-20)
(0.075203 -0.346425 6.51842e-20)
(0.114379 -0.305062 4.21909e-21)
(0.127394 -0.260553 -8.41392e-21)
(0.199524 -0.200488 7.328e-22)
(-0.00887365 0.00774084 -5.48808e-20)
(-0.0182555 -0.00995558 1.60704e-19)
(-0.0354547 -0.0361422 -4.98089e-20)
(-0.0553493 -0.0593238 9.34723e-20)
(-0.0737879 -0.0793301 -8.66133e-20)
(-0.0879103 -0.0992587 4.30526e-22)
(-0.0959805 -0.121577 3.8509e-20)
(-0.0970545 -0.147205 1.47505e-19)
(-0.0905994 -0.175995 9.28831e-22)
(-0.0762972 -0.207174 -6.25501e-20)
(-0.0540842 -0.239537 0)
(-0.0243116 -0.271498 -5.26262e-20)
(0.0122062 -0.301255 9.85136e-20)
(0.0541965 -0.326858 8.32723e-20)
(0.100025 -0.346451 -4.02306e-20)
(0.147909 -0.358556 -5.20648e-22)
(0.196015 -0.362227 -2.67344e-20)
(0.243425 -0.356719 4.14968e-20)
(0.288979 -0.342237 3.36778e-20)
(0.334334 -0.31887 -2.50195e-20)
(0.369858 -0.288945 1.60677e-20)
(0.424381 -0.249292 -9.87763e-21)
(0.436188 -0.210672 0)
(0.529521 -0.157367 -7.31877e-22)
(-0.0136078 0.0174843 5.71429e-20)
(-0.024907 0.014345 -5.39185e-20)
(-0.0372604 -0.00326396 5.15173e-20)
(-0.0488023 -0.0225448 0)
(-0.0565977 -0.0409629 0)
(-0.0581997 -0.060076 8.63517e-20)
(-0.0517518 -0.0815051 -7.84452e-20)
(-0.0359699 -0.105995 7.56574e-20)
(-0.0101819 -0.133438 -3.47459e-19)
(0.025853 -0.163153 1.88303e-22)
(0.071875 -0.193912 5.98601e-20)
(0.126865 -0.224035 0)
(0.189098 -0.25161 -9.52176e-20)
(0.256284 -0.274639 1.71748e-19)
(0.325731 -0.291341 -1.14712e-19)
(0.39478 -0.300372 -1.49735e-19)
(0.461047 -0.300889 1.44953e-20)
(0.52282 -0.292588 8.84738e-20)
(0.578757 -0.276193 0)
(0.631523 -0.251872 0)
(0.670985 -0.222251 -1.60685e-20)
(0.726232 -0.185748 9.87829e-21)
(0.73855 -0.148817 -1.50722e-20)
(0.821213 -0.104 1.40635e-20)
(-0.0167896 0.0224552 0)
(-0.029019 0.0298999 0)
(-0.0355296 0.0200997 -1.56213e-19)
(-0.0374076 0.00500597 4.80756e-20)
(-0.0330018 -0.0117209 -1.06905e-21)
(-0.0200359 -0.0300631 8.63576e-20)
(0.00345176 -0.0507417 0)
(0.0388056 -0.0742281 -7.55817e-20)
(0.0866718 -0.100371 6.99795e-20)
(0.146883 -0.128428 -1.30231e-19)
(0.218438 -0.157009 1.05431e-21)
(0.299242 -0.184347 1.0695e-19)
(0.386088 -0.208528 -4.75166e-21)
(0.475113 -0.227712 7.65207e-20)
(0.562283 -0.240373 -1.16952e-19)
(0.644068 -0.245538 0)
(0.717666 -0.242747 9.46724e-20)
(0.781366 -0.232414 -1.2911e-19)
(0.835325 -0.21499 3.20311e-20)
(0.878541 -0.191945 0)
(0.913675 -0.164229 1.8344e-20)
(0.944676 -0.133546 4.12685e-20)
(0.959393 -0.100782 -3.8535e-20)
(1.00087 -0.0670221 -2.13499e-20)
(-0.0180219 0.023181 1.79615e-19)
(-0.0300075 0.0368855 -2.28287e-19)
(-0.0303908 0.0332748 -6.5297e-22)
(-0.0219484 0.0218801 4.94893e-20)
(-0.00401108 0.00682637 -9.2886e-20)
(0.0252566 -0.0107409 -8.61853e-20)
(0.0678004 -0.0308303 1.62885e-19)
(0.124911 -0.0534318 6.28218e-22)
(0.196951 -0.07811 -1.41058e-19)
(0.282939 -0.103844 2.59779e-19)
(0.380295 -0.129126 -1.91897e-21)
(0.484871 -0.152238 -1.09556e-19)
(0.591359 -0.171474 0)
(0.69411 -0.185399 0)
(0.788012 -0.193053 -3.64384e-20)
(0.869266 -0.194063 -5.9951e-20)
(0.93551 -0.188605 -9.40154e-20)
(0.98645 -0.177376 8.76463e-20)
(1.02286 -0.161275 -3.20581e-20)
(1.04603 -0.141537 4.6005e-20)
(1.06097 -0.119276 -2.65386e-20)
(1.06511 -0.0956572 1.87306e-20)
(1.06836 -0.0711532 -5.9227e-20)
(1.06896 -0.048275 6.00842e-21)
(-0.0174665 0.0208184 6.05813e-20)
(-0.0278257 0.036469 0)
(-0.0218008 0.0366663 1.07824e-19)
(-0.00262664 0.0280032 -9.98402e-20)
(0.0299316 0.0143802 9.29994e-20)
(0.077463 -0.00244274 0)
(0.141694 -0.0217472 0)
(0.223531 -0.0429061 -7.54704e-20)
(0.322211 -0.0650137 8.0333e-22)
(0.4347 -0.0867958 6.4824e-20)
(0.555626 -0.106779 -5.63649e-20)
(0.677925 -0.123566 1.07548e-19)
(0.794041 -0.136052 0)
(0.897255 -0.143589 1.57033e-19)
(0.982739 -0.145999 -2.79999e-19)
(1.04804 -0.143568 1.84639e-19)
(1.09304 -0.136861 9.28919e-20)
(1.11989 -0.126665 -8.66036e-20)
(1.13111 -0.113848 0)
(1.13185 -0.098979 0)
(1.12414 -0.0835378 0)
(1.11282 -0.0660441 0)
(1.10147 -0.0513326 1.14547e-20)
(1.08848 -0.0316077 -3.45452e-20)
(0.193492 0.37646 -4.86162e-21)
(0.249172 0.542591 4.87404e-21)
(0.306373 0.688447 -1.14292e-22)
(0.360344 0.793089 0)
(0.405681 0.849062 -2.40611e-21)
(0.443696 0.858599 4.33861e-21)
(0.4774 0.831827 -1.82553e-22)
(0.49606 0.799104 -1.71073e-21)
(0.486363 0.792481 0)
(0.459738 0.800824 0)
(0.451692 0.763542 -1.13276e-22)
(0.490031 0.625587 -1.28466e-22)
(0.564171 0.389316 -2.51042e-21)
(0.646538 0.09231 2.29854e-21)
(0.724303 -0.217302 0)
(0.787394 -0.477597 0)
(0.827021 -0.639106 1.4156e-21)
(0.847202 -0.698457 -2.99068e-22)
(0.850882 -0.698254 -9.87296e-22)
(0.841813 -0.676402 -4.55244e-23)
(0.833637 -0.644129 0)
(0.82328 -0.627294 0)
(0.794543 -0.656293 0)
(0.745534 -0.701309 0)
(0.692492 -0.675562 0)
(0.653932 -0.51536 0)
(0.642091 -0.23608 4.33167e-22)
(0.653456 0.082297 -6.77643e-22)
(0.681718 0.342907 0)
(0.721324 0.491453 0)
(0.767523 0.548846 -2.39372e-22)
(0.800445 0.573976 2.3259e-22)
(0.803974 0.60377 8.91036e-23)
(0.769638 0.630683 0)
(0.713325 0.606998 0)
(0.65991 0.483918 2.80679e-22)
(0.634062 0.254372 -2.72798e-22)
(0.634627 -0.0236872 0)
(0.665767 -0.257423 2.09269e-22)
(0.711046 -0.394719 -2.96508e-22)
(0.736219 -0.458913 6.75122e-23)
(0.705814 -0.500628 0)
(0.655599 -0.49366 -1.02329e-22)
(0.617337 -0.399704 9.95006e-23)
(0.618627 -0.215913 0)
(0.643687 0.00370407 0)
(0.674398 0.195658 -3.95642e-23)
(0.672317 0.365087 1.05735e-22)
(0.661328 0.441634 0)
(0.646499 0.420078 0)
(0.652846 0.271264 -3.15356e-23)
(0.652378 0.0235089 -7.26582e-24)
(0.650906 -0.191903 -4.28883e-24)
(0.623328 -0.399028 2.03901e-23)
(0.621051 -0.397924 0)
(0.60947 -0.22988 0)
(0.603135 -0.0179693 0)
(0.559027 0.321929 0)
(0.565254 0.300516 0)
(0.525006 0.0394712 0)
(0.0155282 0.283312 -3.96468e-22)
(0.0853192 0.453725 -1.48715e-20)
(0.154825 0.598247 2.08379e-21)
(0.227637 0.71045 1.19546e-20)
(0.298356 0.778805 1.28744e-22)
(0.363958 0.803706 0)
(0.416925 0.799824 -6.52152e-21)
(0.443765 0.796216 1.28237e-20)
(0.444188 0.808628 -6.30469e-21)
(0.443029 0.809728 7.06375e-21)
(0.476157 0.74268 -6.74583e-21)
(0.554208 0.578137 8.82196e-21)
(0.651386 0.333695 -8.54593e-21)
(0.744626 0.0378442 -3.02456e-22)
(0.826927 -0.267616 -8.91588e-21)
(0.886007 -0.517654 8.65838e-21)
(0.911492 -0.664407 -5.78335e-21)
(0.911874 -0.708825 5.46443e-21)
(0.897675 -0.695706 -3.41776e-21)
(0.872304 -0.66767 6.022e-21)
(0.849052 -0.634298 -2.63498e-21)
(0.828266 -0.611328 -1.32673e-22)
(0.791004 -0.628752 -2.32665e-21)
(0.731906 -0.666511 4.93151e-21)
(0.668721 -0.644606 -2.59508e-21)
(0.619381 -0.49795 2.00582e-22)
(0.598237 -0.236576 4.08079e-21)
(0.606196 0.0648158 -8.91423e-23)
(0.638089 0.315416 -6.46792e-21)
(0.68809 0.462146 5.13438e-21)
(0.747019 0.525824 -2.20097e-21)
(0.792291 0.563901 1.87088e-22)
(0.807168 0.609411 -8.92943e-23)
(0.783395 0.649307 1.88882e-22)
(0.738139 0.631192 0)
(0.694955 0.504426 0)
(0.675427 0.264124 -1.32901e-21)
(0.674848 -0.0267828 9.53659e-22)
(0.695858 -0.271849 6.57835e-22)
(0.730626 -0.409445 -1.38539e-22)
(0.752817 -0.459839 -7.28397e-22)
(0.719158 -0.487553 1.04245e-22)
(0.6634 -0.479354 0)
(0.622745 -0.393957 0)
(0.622637 -0.220759 0)
(0.644233 -0.00551591 0)
(0.670843 0.190497 1.25481e-22)
(0.669046 0.366049 -6.73239e-23)
(0.661647 0.444684 0)
(0.649557 0.421744 0)
(0.658438 0.271789 0)
(0.660515 0.0240711 -6.59852e-23)
(0.659533 -0.1887 2.84489e-24)
(0.626796 -0.395129 -4.2861e-23)
(0.619955 -0.397069 0)
(0.607314 -0.227649 0)
(0.602452 -0.0145517 8.37804e-24)
(0.567228 0.325122 4.42007e-24)
(0.574435 0.304426 0)
(0.524398 0.0443459 0)
(-0.126957 0.171825 -2.01999e-21)
(-0.0378653 0.341346 -2.58606e-20)
(0.0354314 0.484284 2.00518e-20)
(0.12393 0.605238 -1.88043e-20)
(0.209503 0.687351 -1.29691e-22)
(0.287695 0.734667 0)
(0.346801 0.760223 -1.17667e-20)
(0.380461 0.782699 1.14892e-20)
(0.399853 0.802415 9.44656e-23)
(0.434043 0.785868 1.8128e-22)
(0.510154 0.691243 2.08338e-22)
(0.620307 0.514939 2.57509e-22)
(0.733177 0.278803 -1.90179e-20)
(0.83498 -0.00431591 1.87705e-20)
(0.922144 -0.298707 0)
(0.978051 -0.534675 4.94222e-22)
(0.990967 -0.666521 -1.14858e-20)
(0.973033 -0.700993 1.13076e-20)
(0.942868 -0.681687 0)
(0.904453 -0.651636 0)
(0.867231 -0.619425 -4.574e-21)
(0.836675 -0.591053 8.61819e-21)
(0.794474 -0.596117 -8.02137e-21)
(0.727722 -0.628408 -4.75419e-22)
(0.65418 -0.615166 9.73134e-21)
(0.595484 -0.485555 -1.18513e-20)
(0.565355 -0.24224 1.25198e-20)
(0.568685 0.0424189 -6.94867e-22)
(0.603182 0.282218 -6.02602e-21)
(0.661375 0.426897 0)
(0.730932 0.496921 0)
(0.788073 0.547363 1.06743e-21)
(0.814746 0.608708 -1.38388e-21)
(0.80308 0.664065 3.35611e-25)
(0.770097 0.654825 2.2685e-21)
(0.737257 0.526468 -2.20422e-21)
(0.724479 0.2787 0)
(0.723554 -0.0214666 3.39426e-22)
(0.734011 -0.277507 2.34295e-21)
(0.755594 -0.419489 -3.90418e-21)
(0.774022 -0.459225 1.41807e-21)
(0.738431 -0.473406 1.00597e-22)
(0.676722 -0.465045 -7.93303e-22)
(0.632033 -0.389512 6.191e-22)
(0.629982 -0.226887 1.22003e-22)
(0.648274 -0.0149169 1.07543e-22)
(0.671507 0.185011 -1.25816e-22)
(0.670257 0.366061 0)
(0.665843 0.447359 0)
(0.655589 0.42332 -6.05919e-22)
(0.666624 0.272843 3.03845e-22)
(0.671671 0.0255202 -3.47694e-22)
(0.672048 -0.184086 4.08671e-22)
(0.634234 -0.389577 3.52101e-22)
(0.622569 -0.396569 -9.05799e-23)
(0.608631 -0.225731 4.8905e-23)
(0.605726 -0.0128636 -1.0064e-23)
(0.579241 0.326994 -3.3974e-23)
(0.587469 0.309778 0)
(0.528063 0.0503396 0)
(-0.229453 0.0545377 -3.69728e-20)
(-0.131082 0.214271 3.5385e-21)
(-0.0593396 0.357733 3.13282e-20)
(0.0308308 0.488272 -2.40876e-22)
(0.11834 0.585807 0)
(0.200174 0.657197 0)
(0.265202 0.708445 -1.8757e-20)
(0.314615 0.747467 -1.29597e-21)
(0.363546 0.764605 2.93009e-20)
(0.438184 0.728064 1.66232e-21)
(0.552792 0.61544 -1.18935e-20)
(0.68512 0.44253 -1.59497e-20)
(0.806597 0.225676 1.59185e-20)
(0.916533 -0.0395785 0)
(1.01111 -0.320465 -1.69637e-20)
(1.06502 -0.540879 1.55022e-20)
(1.06629 -0.65673 0)
(1.03103 -0.682455 0)
(0.985286 -0.659674 6.37998e-21)
(0.936588 -0.629064 -1.19632e-21)
(0.888288 -0.600304 -4.71278e-21)
(0.84766 -0.569941 -3.73815e-21)
(0.802054 -0.562239 3.70803e-21)
(0.732338 -0.585167 -3.87461e-21)
(0.650287 -0.580362 -6.32402e-22)
(0.581937 -0.472501 4.29048e-21)
(0.543388 -0.2514 6.83721e-22)
(0.541413 0.0158225 6.92298e-23)
(0.576586 0.244327 0)
(0.640415 0.386041 3.39501e-21)
(0.718287 0.461446 -3.46497e-21)
(0.786135 0.523997 1.70284e-22)
(0.825942 0.601283 0)
(0.827716 0.671531 -1.91585e-22)
(0.806345 0.672153 4.75513e-21)
(0.783818 0.546339 -9.83237e-21)
(0.77833 0.29583 -1.37778e-21)
(0.778746 -0.00973529 4.1009e-22)
(0.780004 -0.275795 4.88911e-21)
(0.786247 -0.425584 4.44047e-22)
(0.798881 -0.458228 -2.05769e-21)
(0.762464 -0.458472 1.79315e-21)
(0.695157 -0.449421 1.57531e-23)
(0.644529 -0.385094 4.6929e-22)
(0.639957 -0.234089 -5.78694e-22)
(0.655577 -0.0252744 -6.15053e-22)
(0.676261 0.178314 2.05667e-22)
(0.675574 0.364886 4.13125e-22)
(0.673488 0.450106 -9.39997e-22)
(0.664352 0.425357 8.17851e-22)
(0.67709 0.27459 -3.6228e-22)
(0.685573 0.02733 3.96808e-22)
(0.688315 -0.178518 3.73914e-22)
(0.645647 -0.382373 -5.7094e-22)
(0.628915 -0.396085 5.3901e-23)
(0.613328 -0.224133 -6.30881e-24)
(0.612652 -0.0129155 0)
(0.594633 0.327574 1.70971e-23)
(0.604249 0.316354 5.1122e-23)
(0.536114 0.0573814 0)
(-0.234947 -0.0493886 2.10966e-20)
(-0.166744 0.0918986 -3.82751e-20)
(-0.110889 0.235068 1.70946e-20)
(-0.0331649 0.367058 1.35716e-20)
(0.0436482 0.476921 -2.54332e-20)
(0.125513 0.566538 -6.02461e-23)
(0.200477 0.635494 1.17318e-20)
(0.272134 0.683607 1.42621e-20)
(0.353739 0.695556 -1.39816e-20)
(0.465217 0.644587 0)
(0.607442 0.526534 -2.53773e-20)
(0.750398 0.367744 5.46079e-20)
(0.876448 0.173098 -2.91462e-20)
(0.99573 -0.0724053 0)
(1.09633 -0.332984 0)
(1.14426 -0.531169 4.75572e-22)
(1.13243 -0.629693 -2.09844e-20)
(1.0826 -0.64979 2.03733e-20)
(1.02407 -0.628765 0)
(0.967598 -0.600275 9.68252e-21)
(0.91209 -0.576322 -1.66335e-20)
(0.863338 -0.547818 1.36916e-20)
(0.815036 -0.529878 -1.22213e-20)
(0.74514 -0.541995 -3.1868e-22)
(0.657384 -0.543771 1.28396e-20)
(0.57921 -0.45898 -6.86639e-21)
(0.531903 -0.263254 -3.06788e-22)
(0.524073 -0.0145161 -3.9161e-21)
(0.557984 0.202108 5.90478e-22)
(0.624333 0.340754 3.41368e-21)
(0.707723 0.420508 1.69351e-22)
(0.785572 0.492281 -2.27258e-21)
(0.838611 0.583666 4.84907e-21)
(0.854194 0.671682 -2.91163e-21)
(0.846495 0.687532 0)
(0.834498 0.568731 -6.77818e-21)
(0.83534 0.317731 6.72856e-21)
(0.837804 0.00917324 -5.32061e-21)
(0.831804 -0.265409 6.6471e-21)
(0.822123 -0.425709 -4.92715e-22)
(0.826723 -0.455939 0)
(0.790232 -0.442989 -1.95717e-22)
(0.718318 -0.432399 3.97604e-22)
(0.65992 -0.380113 0)
(0.651977 -0.242213 6.9638e-22)
(0.665624 -0.0368734 -3.02264e-22)
(0.684789 0.170416 1.40117e-22)
(0.685037 0.362337 1.205e-22)
(0.684768 0.45209 0)
(0.675841 0.427382 0)
(0.689658 0.27677 -1.20226e-21)
(0.701984 0.0294084 1.96152e-21)
(0.708107 -0.172081 -1.06092e-21)
(0.660967 -0.373397 3.74077e-22)
(0.638921 -0.395461 2.95052e-22)
(0.621231 -0.222913 6.31558e-24)
(0.622835 -0.0146253 1.88818e-22)
(0.612969 0.326667 0)
(0.624615 0.323906 -5.73139e-23)
(0.548581 0.0653971 -8.9053e-23)
(-0.0995201 -0.112188 6.32622e-21)
(-0.0837161 0.00310119 -6.23828e-21)
(-0.0587216 0.130506 7.20648e-23)
(-0.0141382 0.249308 1.42519e-23)
(0.0444618 0.362854 5.86548e-23)
(0.117948 0.46088 -5.89087e-23)
(0.198187 0.539977 2.35488e-23)
(0.286373 0.59373 0)
(0.39207 0.602869 -1.28295e-22)
(0.527683 0.546102 1.99804e-22)
(0.68158 0.433908 2.77508e-22)
(0.822813 0.29553 -4.09222e-22)
(0.948907 0.123106 0)
(1.07495 -0.101727 0)
(1.17675 -0.337603 4.46911e-22)
(1.21484 -0.511081 0)
(1.18944 -0.59343 -3.19357e-22)
(1.128 -0.609777 0)
(1.05973 -0.59307 -1.09226e-20)
(0.997412 -0.567781 1.93255e-20)
(0.937109 -0.547806 -1.50152e-20)
(0.881474 -0.52453 6.61773e-21)
(0.831357 -0.500619 4.8224e-21)
(0.764806 -0.499691 -4.68106e-21)
(0.675256 -0.503727 -5.26199e-21)
(0.587807 -0.442419 5.1445e-21)
(0.530971 -0.275356 0)
(0.516166 -0.0472759 1.80092e-22)
(0.546376 0.157271 0)
(0.612278 0.292122 0)
(0.698583 0.373703 3.52359e-21)
(0.784519 0.452826 -3.62083e-21)
(0.850776 0.557839 2.20973e-22)
(0.882028 0.661702 3.50343e-22)
(0.886623 0.693569 -4.687e-22)
(0.88324 0.586983 -6.14699e-21)
(0.891095 0.340668 5.96707e-21)
(0.897456 0.0323791 -7.18928e-21)
(0.88729 -0.247659 6.15209e-21)
(0.862579 -0.419767 1.00754e-21)
(0.856804 -0.452562 -2.08099e-21)
(0.820402 -0.427469 5.57215e-22)
(0.745577 -0.413575 9.85866e-22)
(0.677928 -0.373654 0)
(0.665525 -0.25089 -2.17351e-22)
(0.677989 -0.0500392 1.61814e-22)
(0.696811 0.160159 -2.49065e-22)
(0.698101 0.357718 -1.21309e-22)
(0.699064 0.45452 0)
(0.689721 0.430585 4.39229e-22)
(0.704162 0.279707 -7.50426e-22)
(0.720706 0.0315949 3.21015e-23)
(0.731171 -0.165098 -3.84436e-22)
(0.680055 -0.362649 3.2696e-22)
(0.65245 -0.394441 -2.97049e-22)
(0.632154 -0.221998 0)
(0.635841 -0.0178661 -1.88929e-22)