/*--------------------------------*- C++ -*----------------------------------*\
| =========                 |                                                 |
| \\      /  F ield         | OpenFOAM: The Open Source CFD Toolbox           |
|  \\    /   O peration     | Version:  2312                                  |
|   \\  /    A nd           | Website:  www.openfoam.com                      |
|    \\/     M anipulation  |                                                 |
\*---------------------------------------------------------------------------*/
FoamFile
{
    version     2.0;
    format      ascii;
    arch        "LSB;label=32;scalar=64";
    class       volVectorField;
    location    "10.5";
    object      U;
}
// * * * * * * * * * * * * * * * * * * * * * * * * * * * * * * * * * * * * * //

dimensions      [0 1 -1 0 0 0 0];

internalField   nonuniform List<vector> 
5478
(
(-0.0214099 0.0136814 -7.88669e-20)
(-0.0511453 0.0521585 0)
(-0.0423994 0.0877564 1.17664e-19)
(0.00706805 0.108936 -2.05971e-19)
(0.0999922 0.117036 1.36049e-19)
(0.239034 0.118757 -3.81654e-20)
(0.419763 0.120478 -7.28719e-20)
(0.627679 0.123088 0)
(0.842479 0.127245 0)
(1.03928 0.128261 1.15866e-19)
(1.20654 0.123102 -4.95451e-20)
(1.31747 0.116583 -9.13221e-20)
(1.38057 0.0807787 -3.60792e-20)
(1.38762 0.0783481 0)
(1.34046 0.00262895 9.75878e-20)
(-0.0311959 0.0132718 1.57516e-19)
(-0.0549237 0.0282853 0)
(-0.0267599 0.0399768 0)
(0.0666933 0.051314 -1.02417e-19)
(0.231544 0.0657594 1.35304e-19)
(0.453114 0.087324 4.01487e-20)
(0.698233 0.114388 -7.27484e-20)
(0.931974 0.141274 6.44967e-20)
(1.12519 0.1614 1.74747e-19)
(1.26429 0.168206 -1.54939e-19)
(1.33911 0.163873 5.23923e-21)
(1.35978 0.139337 0)
(1.34145 0.11674 3.60164e-20)
(1.29798 0.0847083 0)
(1.27182 0.0553373 0)
(-0.0401151 0.0163746 -3.62088e-22)
(-0.0409027 0.0210967 -7.24864e-20)
(0.0419231 0.0243752 3.3486e-22)
(0.222643 0.0406986 0)
(0.478991 0.0744471 -4.59983e-20)
(0.753632 0.118253 3.99513e-20)
(0.994657 0.160004 3.48515e-20)
(1.17136 0.189499 0)
(1.27654 0.200353 -5.67757e-20)
(1.31684 0.195032 5.00601e-20)
(1.31458 0.173337 4.35098e-20)
(1.29478 0.152592 0)
(1.27469 0.125585 0)
(1.26944 0.112701 -9.51226e-20)
(1.2666 0.0897464 8.46704e-20)
(-0.0413029 0.0158791 -8.40477e-20)
(0.00118932 0.0158621 7.14906e-20)
(0.173171 0.0271334 -6.16739e-20)
(0.45768 0.0672568 5.46355e-20)
(0.766674 0.124019 9.26493e-20)
(1.02018 0.176304 -7.97677e-20)
(1.18537 0.210523 -3.48244e-20)
(1.26728 0.222408 2.94705e-20)
(1.2903 0.217347 -2.71872e-20)
(1.28645 0.200722 0)
(1.279 0.185409 0)
(1.27471 0.166562 -6.14043e-20)
(1.27281 0.153523 8.08692e-20)
(1.26078 0.136621 -4.58558e-20)
(1.23918 0.115601 0)
(-0.0306682 0.0107817 4.25088e-20)
(0.0829723 0.0100134 3.5999e-20)
(0.369949 0.0495886 -1.29454e-19)
(0.722445 0.121412 1.62122e-21)
(1.0072 0.187609 -6.4108e-22)
(1.17915 0.228645 -8.51422e-22)
(1.25592 0.243307 3.31388e-20)
(1.27693 0.240737 2.90807e-20)
(1.27747 0.229429 2.21277e-20)
(1.27413 0.217401 -2.16806e-21)
(1.26759 0.201988 -5.16633e-20)
(1.25616 0.18701 0)
(1.23759 0.170237 2.52705e-20)
(1.22009 0.151903 -1.95234e-20)
(1.20951 0.139842 3.43377e-20)
(-0.00503179 0.00377413 -9.13588e-20)
(0.21463 0.0152981 9.91309e-20)
(0.604485 0.099835 -3.44472e-20)
(0.948268 0.189575 2.66624e-20)
(1.15475 0.245256 -4.89149e-20)
(1.24591 0.266968 -3.81936e-20)
(1.27295 0.268089 6.57299e-22)
(1.27442 0.259652 0)
(1.26657 0.247977 4.39404e-20)
(1.25364 0.232852 -3.90755e-20)
(1.23918 0.217776 1.64417e-20)
(1.22591 0.20182 0)
(1.21762 0.187631 1.03737e-20)
(1.21104 0.173551 -1.90405e-20)
(1.19961 0.161979 0)
(0.0409363 -0.000696683 -1.14087e-20)
(0.391166 0.0481258 9.93612e-22)
(0.819898 0.170586 1.66063e-20)
(1.10003 0.25627 2.88103e-20)
(1.22918 0.293246 -2.28356e-20)
(1.26961 0.300163 3.87766e-20)
(1.27107 0.293101 -8.78406e-21)
(1.25871 0.280652 0)
(1.24361 0.265468 -2.55669e-20)
(1.23085 0.250624 1.32735e-21)
(1.22044 0.235464 2.18872e-20)
(1.21076 0.22093 0)
(1.19807 0.206371 -1.50407e-20)
(1.18313 0.190247 0)
(1.17002 0.180735 9.70268e-21)
(0.110213 0.00526631 -1.26941e-20)
(0.579197 0.113356 0)
(0.982486 0.248858 1.7914e-20)
(1.1887 0.318375 0)
(1.25949 0.337495 0)
(1.26702 0.332444 0)
(1.25363 0.318811 -7.69383e-21)
(1.2375 0.302699 0)
(1.22325 0.286543 5.10741e-21)
(1.20962 0.269891 0)
(1.19588 0.25353 -6.87702e-21)
(1.18254 0.237281 0)
(1.17243 0.221655 4.66142e-21)
(1.1657 0.207877 0)
(1.15768 0.197685 3.15558e-21)
(-0.0389849 0.00929928 -7.107e-21)
(-0.139288 0.010036 0)
(-0.260554 0.00451875 1.2718e-20)
(-0.362429 -0.0015859 0)
(-0.452506 -0.00806166 0)
(-0.530542 -0.0147348 0)
(-0.596471 -0.0212924 -1.15453e-20)
(-0.650087 -0.0273941 0)
(-0.691386 -0.0327646 1.03844e-20)
(-0.720397 -0.0372328 0)
(-0.73712 -0.0406771 -1.7464e-20)
(-0.74128 -0.0429717 0)
(-0.732523 -0.0441973 1.36077e-20)
(-0.711094 -0.0446387 0)
(-0.677728 -0.0442653 9.74709e-21)
(-0.0454391 0.0971427 3.66628e-20)
(-0.140086 0.138437 -2.7614e-20)
(-0.249885 0.130426 1.43178e-20)
(-0.340602 0.114642 5.26688e-20)
(-0.418644 0.0972433 2.5403e-21)
(-0.483583 0.0784352 -4.82328e-20)
(-0.535323 0.0587161 3.38929e-20)
(-0.573798 0.0386294 0)
(-0.599211 0.0186523 3.25251e-20)
(-0.611837 -0.000888938 1.16907e-21)
(-0.611951 -0.0197454 -1.75595e-20)
(-0.599798 -0.0377021 0)
(-0.575441 -0.0552539 -4.19234e-20)
(-0.539354 -0.072902 0)
(-0.489365 -0.0931335 -4.74234e-20)
(-0.0522632 0.15946 6.57024e-20)
(-0.129036 0.243854 1.62462e-20)
(-0.20871 0.242251 -2.6968e-20)
(-0.270605 0.221681 -8.2685e-20)
(-0.318838 0.196869 4.99699e-20)
(-0.352925 0.169421 5.31481e-20)
(-0.372675 0.140079 -9.69523e-20)
(-0.378216 0.109607 0)
(-0.370091 0.0786274 -8.9543e-20)
(-0.34904 0.0475192 7.96139e-20)
(-0.315588 0.0166698 3.72856e-20)
(-0.271445 -0.0122406 0)
(-0.215072 -0.0437581 2.82884e-20)
(-0.162712 -0.0713814 -5.11689e-20)
(-0.0638556 -0.103398 0)
(-0.0556659 0.180266 3.74684e-20)
(-0.111839 0.306753 -9.81167e-20)
(-0.154347 0.32447 1.21227e-19)
(-0.180749 0.305918 -1.12826e-19)
(-0.193717 0.277085 -5.51327e-20)
(-0.192241 0.243868 5.27662e-20)
(-0.176335 0.207676 4.98187e-20)
(-0.146638 0.169659 4.75379e-20)
(-0.104586 0.130734 -1.35779e-19)
(-0.0521627 0.0914496 -2.37814e-21)
(0.0129435 0.0531224 3.71828e-20)
(0.0744739 0.0130671 0)
(0.177951 -0.0192653 5.88607e-20)
(0.218671 -0.0677441 1.5229e-19)
(0.381823 -0.0885808 -9.02482e-20)
(-0.0519675 0.159211 1.30463e-21)
(-0.092199 0.315407 6.94103e-20)
(-0.101102 0.365502 -6.25297e-20)
(-0.0923557 0.360987 5.77619e-20)
(-0.0704004 0.334406 1.09423e-19)
(-0.0350318 0.299201 -1.04112e-19)
(0.0133316 0.259812 -4.85765e-20)
(0.0734275 0.218077 -1.44063e-19)
(0.143485 0.174996 1.30134e-19)
(0.217689 0.128371 0)
(0.309035 0.0917382 0)
(0.37259 0.0384688 1.31824e-19)
(0.515428 0.0113461 -2.92062e-19)
(0.542849 -0.0488663 1.03255e-19)
(0.753394 -0.0771044 0)
(-0.0411859 0.111467 4.53843e-22)
(-0.0729133 0.26719 -6.95543e-20)
(-0.0603506 0.348049 1.88366e-19)
(-0.0246516 0.368603 -5.6154e-20)
(0.0265995 0.355068 -5.43332e-20)
(0.0904524 0.324504 5.13873e-20)
(0.164348 0.285704 4.85848e-20)
(0.245693 0.241773 9.05146e-20)
(0.332167 0.197804 -1.58891e-19)
(0.422402 0.150749 7.262e-20)
(0.526896 0.113177 6.63151e-20)
(0.617629 0.0597845 0)
(0.772751 0.0298956 0)
(0.834602 -0.0366596 1.88434e-19)
(1.05938 -0.0605055 -1.67477e-19)
(-0.0278916 0.0615598 -4.2474e-22)
(-0.0564662 0.184294 0)
(-0.0381668 0.272048 0)
(0.00907266 0.31 1.11005e-19)
(0.0760271 0.311366 -4.98508e-20)
(0.156556 0.290752 4.40472e-20)
(0.245632 0.25782 8.78436e-20)
(0.342155 0.221362 -7.78988e-20)
(0.448205 0.182193 7.85978e-20)
(0.569625 0.146878 -7.26961e-20)
(0.700246 0.105198 -5.89872e-21)
(0.850458 0.067149 0)
(1.00513 0.0310888 4.75466e-20)
(1.12785 -0.0214659 0)
(1.30024 -0.0395081 0)
(-0.0194314 0.0276519 -8.00915e-20)
(-0.0477932 0.104564 0)
(-0.0349611 0.171912 -1.1959e-19)
(0.0102139 0.207257 2.10535e-19)
(0.0803319 0.214508 -2.35389e-19)
(0.171789 0.204072 -4.71048e-20)
(0.285696 0.185339 7.64743e-20)
(0.422422 0.16542 0)
(0.584061 0.141246 0)
(0.759142 0.123603 -1.27953e-19)
(0.939591 0.0936415 -6.18784e-20)
(1.1131 0.0820099 1.02628e-19)
(1.24462 0.0424439 -4.76273e-20)
(1.35717 0.0229371 0)
(1.40146 -0.00818209 -1.21195e-19)
(-0.607394 -0.0421669 0)
(-0.467437 -0.0258736 1.63326e-21)
(-0.245247 0.0151063 -1.48857e-21)
(-0.0192803 0.0343948 0)
(0.212139 0.0509593 0)
(0.40158 0.0570252 5.35676e-23)
(0.549798 0.0589096 0)
(0.66009 0.0593003 0)
(0.740976 0.0583161 -2.9356e-23)
(0.801337 0.0567371 0)
(0.84779 0.0552724 0)
(0.883824 0.0537157 2.70266e-23)
(0.911323 0.0519288 0)
(0.931794 0.0501871 1.65374e-23)
(0.946668 0.0488352 1.30957e-23)
(0.957508 0.0480008 0)
(0.965358 0.0476851 6.277e-23)
(0.971431 0.0476469 -7.37671e-23)
(0.975742 0.0481947 0)
(0.979717 0.048066 -3.56873e-23)
(0.981937 0.0503653 4.11902e-23)
(0.98528 0.0475198 -7.60301e-24)
(0.985848 0.056657 1.09603e-23)
(0.989277 0.0423141 -1.04728e-23)
(0.988753 0.0713066 8.47827e-24)
(0.991836 0.0323842 0)
(0.99143 0.083497 5.83732e-24)
(0.993967 0.0476761 -5.58139e-24)
(0.992472 0.0536916 4.73787e-24)
(0.996556 0.0973454 0)
(0.995961 0.0601784 4.73374e-24)
(0.99348 0.0471764 0)
(0.998536 0.103142 2.81345e-24)
(1.00204 0.137954 -1.18882e-24)
(0.999906 0.0950798 5.03663e-25)
(0.996794 0.0371718 -4.80746e-24)
(0.994922 -0.019618 0)
(0.994667 -0.0318863 2.34146e-24)
(-0.407554 -0.117154 1.73263e-20)
(-0.324121 -0.160916 -7.29716e-23)
(-0.137395 -0.150154 -1.46932e-21)
(0.0587058 -0.122468 1.40122e-21)
(0.261275 -0.0816023 0)
(0.429916 -0.0412176 -5.39858e-23)
(0.56383 -0.0114817 9.22298e-23)
(0.664536 0.00830909 0)
(0.739107 0.0208525 2.95766e-23)
(0.796375 0.0291995 0)
(0.842253 0.0345249 0)
(0.879069 0.0382904 -2.72199e-23)
(0.907846 0.0408682 0)
(0.929523 0.0425493 -5.07079e-22)
(0.945284 0.0436936 4.28315e-22)
(0.95668 0.044562 -3.13226e-22)
(0.964885 0.0453541 2.9899e-22)
(0.971168 0.0460327 1.39199e-23)
(0.97566 0.047039 0)
(0.979708 0.0472104 0)
(0.98208 0.0497326 8.01367e-24)
(0.985425 0.0469782 -5.85296e-23)
(0.986123 0.0563345 9.35865e-23)
(0.989621 0.0418633 -4.22302e-23)
(0.988995 0.0711986 -2.56278e-23)
(0.992512 0.0320418 0)
(0.99168 0.0832449 -1.27682e-23)
(0.994533 0.0478175 0)
(0.993504 0.0531825 -4.75452e-24)
(0.996681 0.0972102 1.22571e-23)
(0.996746 0.0605464 -2.13918e-23)
(0.994965 0.0468431 3.64627e-24)
(0.999317 0.10246 -6.09617e-24)
(1.00237 0.137921 -1.26785e-24)
(1.00066 0.0955242 2.15946e-24)
(0.998004 0.037555 -4.19435e-24)
(0.996367 -0.019461 -5.88337e-25)
(0.995966 -0.031887 5.88331e-25)
(0.000393869 -0.174699 3.02596e-20)
(0.0634249 -0.230754 -4.63043e-20)
(0.192766 -0.268341 1.11249e-20)
(0.334129 -0.248826 5.44923e-21)
(0.471789 -0.191902 -5.46268e-23)
(0.586458 -0.124166 8.45892e-23)
(0.676369 -0.0691705 -9.38142e-23)
(0.744226 -0.032495 1.4132e-22)
(0.79482 -0.00903282 0)
(0.83362 0.00648702 -2.65403e-21)
(0.865467 0.0177677 2.53153e-21)
(0.892639 0.0258447 5.47749e-23)
(0.915167 0.0317786 0)
(0.933102 0.0361122 1.00253e-21)
(0.946817 0.0392273 -9.29524e-22)
(0.957202 0.0414601 3.19961e-22)
(0.964996 0.0431594 -3.05306e-22)
(0.971142 0.0444412 -2.4108e-22)
(0.975668 0.0458588 2.02828e-22)
(0.979725 0.0462978 0)
(0.982228 0.0490559 0)
(0.985559 0.0463599 -1.05101e-22)
(0.986384 0.0559805 1.00339e-22)
(0.98996 0.0413294 7.69691e-23)
(0.989206 0.0710512 -7.70801e-24)
(0.9932 0.0316661 -6.29135e-23)
(0.99189 0.0828787 4.02228e-26)
(0.99509 0.0479972 2.13292e-23)
(0.994549 0.0525541 -5.27816e-23)
(0.996751 0.0970003 4.69527e-23)
(0.997517 0.0609616 -4.86369e-24)
(0.996476 0.0464158 9.3825e-24)
(1.00006 0.101657 -1.59096e-24)
(1.00262 0.137884 1.52118e-24)
(1.00135 0.0960336 -3.88237e-24)
(0.999176 0.0380064 -4.55246e-24)
(0.997779 -0.0192596 1.35316e-23)
(0.997253 -0.031871 2.41523e-24)
(0.410874 -0.188555 0)
(0.481556 -0.28274 2.14588e-20)
(0.561808 -0.332846 -2.10835e-20)
(0.639443 -0.324743 0)
(0.705668 -0.261278 5.61417e-23)
(0.757754 -0.180145 -8.69099e-23)
(0.798819 -0.108635 0)
(0.831544 -0.058558 -1.95687e-23)
(0.857487 -0.0274372 1.06143e-22)
(0.878372 -0.0086693 0)
(0.896156 0.0044382 2.05003e-21)
(0.911979 0.0147896 -2.01078e-21)
(0.926434 0.0230369 8.73475e-23)
(0.939106 0.0295104 1.02146e-21)
(0.949688 0.0344178 -9.74023e-22)
(0.958383 0.0380108 -4.43499e-23)
(0.965398 0.0406855 0)
(0.971228 0.0426438 2.91678e-23)
(0.975711 0.044544 -3.61011e-22)
(0.979746 0.0452815 4.29903e-23)
(0.982368 0.0483262 3.37339e-23)
(0.985682 0.0456673 2.13506e-22)
(0.98663 0.0556093 1.59267e-22)
(0.99029 0.0407221 -1.95739e-22)
(0.989395 0.070875 1.76586e-23)
(0.993882 0.0312629 0)
(0.992074 0.0824005 1.30277e-23)
(0.995633 0.0482305 -2.16101e-23)
(0.995578 0.0518115 5.33164e-23)
(0.996797 0.0967082 -4.73669e-23)
(0.99827 0.0614344 1.06675e-23)
(0.997973 0.0459026 0)
(1.00078 0.100725 1.60034e-24)
(1.00283 0.137836 -2.29611e-24)
(1.002 0.096609 4.10167e-24)
(1.00031 0.0385201 1.68419e-23)
(0.999143 -0.0190184 -1.35411e-23)
(0.998519 -0.0318408 4.72963e-26)
(0.75499 -0.179688 5.93682e-22)
(0.810343 -0.289107 9.36579e-22)
(0.869003 -0.367445 0)
(0.887669 -0.365686 0)
(0.882378 -0.298499 0)
(0.874329 -0.210021 0)
(0.873161 -0.13356 -3.81018e-21)
(0.878782 -0.0769061 7.2456e-21)
(0.889012 -0.0391018 -3.68631e-21)
(0.900852 -0.0156554 0)
(0.913009 -0.00077133 2.01362e-21)
(0.92454 0.0107816 -1.98273e-21)
(0.935025 0.0194889 -1.41397e-21)
(0.944512 0.0263327 1.19045e-21)
(0.952799 0.031648 -8.42508e-22)
(0.959992 0.0356557 8.48527e-22)
(0.966153 0.0387375 3.70929e-23)
(0.97154 0.0410614 4.51584e-22)
(0.975875 0.043302 -4.30285e-22)
(0.979821 0.0442609 -4.14746e-23)
(0.982522 0.0475872 -3.47565e-23)
(0.985804 0.0449224 -1.92673e-22)
(0.986861 0.0552293 2.11249e-22)
(0.990605 0.0400473 4.24134e-23)
(0.989565 0.0706729 1.82661e-23)
(0.99454 0.0308323 1.56157e-23)
(0.992241 0.0818096 0)
(0.996157 0.0485097 0)
(0.996565 0.050958 0)
(0.996842 0.0963423 0)
(0.999002 0.0619591 -3.146e-23)
(0.999415 0.0453104 1.96797e-23)
(1.00146 0.0996787 -3.32086e-24)
(1.00304 0.137773 -7.9101e-24)
(1.00263 0.0972398 3.9987e-24)
(1.00139 0.039086 3.82986e-24)
(1.00044 -0.0187422 -1.58497e-23)
(0.999758 -0.0317993 -5.92619e-24)
(1.05076 -0.16607 -6.24619e-22)
(1.08693 -0.264892 5.37651e-20)
(1.10612 -0.348891 -5.16739e-20)
(1.07271 -0.359893 -1.52527e-20)
(1.00363 -0.301095 1.4526e-20)
(0.943249 -0.221213 -3.18283e-21)
(0.908794 -0.148702 2.93609e-21)
(0.897828 -0.0931576 -8.14713e-23)
(0.899988 -0.0544621 9.98214e-23)
(0.907948 -0.0287854 0)
(0.9183 -0.0119354 7.03309e-23)
(0.928557 0.000592509 -3.27264e-21)
(0.937936 0.0117042 3.11544e-21)
(0.946599 0.0206632 7.38243e-23)
(0.954202 0.0275741 0)
(0.960834 0.0326905 7.53809e-22)
(0.966612 0.036538 -1.28598e-21)
(0.971756 0.0393776 5.15772e-22)
(0.976009 0.0420294 0)
(0.979884 0.0432037 -2.81499e-22)
(0.982659 0.04685 7.23501e-23)
(0.985914 0.0441222 2.59147e-22)
(0.987068 0.0548653 2.21612e-22)
(0.990899 0.0393121 -2.08182e-22)
(0.98972 0.0704599 1.43286e-22)
(0.995155 0.0304136 -1.42104e-23)
(0.992402 0.0811003 -1.29636e-22)
(0.996657 0.0488687 8.80324e-23)
(0.997486 0.0500258 -8.37185e-23)
(0.996913 0.0958823 2.74897e-23)
(0.999707 0.0625603 -2.61375e-23)
(1.00076 0.0446936 0)
(1.00212 0.0984926 -3.54749e-24)
(1.00328 0.137694 6.72769e-24)
(1.00324 0.0979391 0)
(1.00242 0.0397248 -1.62793e-23)
(1.00166 -0.0184263 1.1048e-23)
(1.00096 -0.0317481 -2.67504e-24)
(1.27769 -0.137246 0)
(1.28458 -0.23025 0)
(1.25045 -0.300136 -1.77081e-22)
(1.16449 -0.317941 0)
(1.05871 -0.274923 0)
(0.974316 -0.206892 3.61645e-22)
(0.92716 -0.142706 -3.07119e-22)
(0.907831 -0.0926049 -5.07645e-21)
(0.906115 -0.0563249 4.85291e-21)
(0.912581 -0.0316467 0)
(0.922126 -0.0144879 6.3567e-23)
(0.932398 -0.00220619 -5.47118e-23)
(0.941533 0.00882497 2.82059e-21)
(0.94932 0.0177274 -3.87612e-22)
(0.956162 0.0248061 -2.13962e-21)
(0.962155 0.0302015 -2.50197e-23)
(0.967443 0.0343989 2.0254e-23)
(0.972228 0.0375858 -9.56065e-22)
(0.976293 0.0406047 9.39831e-22)
(0.980033 0.0420108 0)
(0.982822 0.0460018 0)
(0.986038 0.0432436 1.59331e-23)
(0.987261 0.0544389 0)
(0.991177 0.0385274 -1.85555e-22)
(0.989875 0.070205 6.56714e-24)
(0.995718 0.0299583 1.41551e-22)
(0.992564 0.080331 1.36698e-22)
(0.997149 0.0492307 -9.04972e-23)
(0.998306 0.0489975 9.97818e-24)
(0.997033 0.0954071 0)
(1.0004 0.0631365 2.18642e-23)
(1.00198 0.0439986 -2.07294e-23)
(1.00274 0.0973105 -5.41671e-24)
(1.00358 0.137589 6.65845e-24)
(1.00387 0.0986407 -1.73691e-25)
(1.0034 0.0403795 9.30806e-24)
(1.00278 -0.0181016 0)
(1.00212 -0.0316977 4.87985e-24)
(1.37072 -0.0876113 7.4323e-20)
(1.35035 -0.154877 5.65287e-20)
(1.28552 -0.220537 -1.17803e-20)
(1.18346 -0.254448 -6.67846e-20)
(1.08095 -0.249164 2.57124e-20)
(0.998242 -0.216287 -4.96788e-23)
(0.946848 -0.174051 0)
(0.923852 -0.127602 2.70652e-23)
(0.918601 -0.085755 3.67729e-23)
(0.922553 -0.0534562 0)
(0.929735 -0.0296781 3.82736e-21)
(0.937413 -0.0124469 -3.63981e-21)
(0.944835 0.000498787 -4.85485e-23)
(0.95167 0.0118638 -2.34894e-21)
(0.957988 0.0209872 2.22903e-21)
(0.963624 0.0276695 -2.6373e-23)
(0.968597 0.0326588 -2.14801e-23)
(0.973068 0.0362794 0)
(0.976895 0.0396547 -8.70229e-22)
(0.980431 0.0411237 8.25017e-22)
(0.983152 0.0454886 3.02496e-22)
(0.986289 0.0424148 -4.83479e-23)
(0.987525 0.0542904 -2.41602e-22)
(0.991507 0.0376239 1.94863e-22)
(0.990074 0.0700928 -2.70945e-23)
(0.996265 0.0295696 -2.98116e-22)
(0.992751 0.0792461 1.10779e-22)
(0.997651 0.0500205 -1.07528e-22)
(0.999045 0.0476621 7.94154e-23)
(0.997217 0.0946716 0)
(1.00108 0.0641452 0)
(1.00305 0.0432339 0)
(1.00335 0.0955972 1.11291e-24)
(1.00394 0.137485 5.54615e-24)
(1.00451 0.0996849 1.48736e-23)
(1.0043 0.0413226 -6.43836e-24)
(1.0038 -0.0176711 -7.17103e-24)
(1.00324 -0.0316252 0)
(1.30967 -0.0268242 0)
(1.29121 -0.0775679 0)
(1.23139 -0.119915 0)
(1.16017 -0.140069 0)
(1.09117 -0.144349 0)
(1.03449 -0.135848 0)
(0.995142 -0.116548 0)
(0.97094 -0.0922247 0)
(0.957727 -0.0680187 0)
(0.952458 -0.0469504 0)
(0.95201 -0.0303618 0)
(0.953345 -0.0162867 0)
(0.955952 -0.00426167 0)
(0.959612 0.00635067 0)
(0.963354 0.0153086 0)
(0.967221 0.0225439 0)
(0.971081 0.0283036 0)
(0.974828 0.0326673 0)
(0.978172 0.0367505 0)
(0.981392 0.0387345 0)
(0.983911 0.0436262 0)
(0.986922 0.0407932 0)
(0.988121 0.05307 0)
(0.992029 0.0365052 0)
(0.990655 0.0691533 0)
(0.996861 0.0289459 0)
(0.993212 0.0782508 0)
(0.998539 0.0496487 0)
(0.999609 0.0469362 0)
(0.997803 0.0938497 0)
(1.0022 0.0639134 0)
(1.00403 0.0426864 0)
(1.00396 0.09458 0)
(1.00467 0.136917 0)
(1.00551 0.0997934 0)
(1.0054 0.0417393 0)
(1.00497 -0.017282 0)
(1.00457 -0.0315308 0)
(1.23666 -0.0120331 0)
(1.23202 -0.0669238 0)
(1.19315 -0.109644 0)
(1.14073 -0.139677 0)
(1.0909 -0.154193 0)
(1.04792 -0.150895 0)
(1.01365 -0.133889 0)
(0.9887 -0.108926 0)
(0.972312 -0.0819821 0)
(0.964138 -0.0567196 0)
(0.961602 -0.0345247 0)
(0.96166 -0.0165072 0)
(0.962326 -0.00242336 0)
(0.963642 0.00837763 0)
(0.96614 0.0169479 0)
(0.969234 0.0235587 0)
(0.972501 0.0287145 0)
(0.975889 0.0326186 0)
(0.979027 0.0363716 0)
(0.982152 0.0382258 0)
(0.984587 0.0429466 0)
(0.987602 0.0403019 0)
(0.988759 0.0522958 0)
(0.992675 0.0362091 0)
(0.991393 0.0684471 0)
(0.997501 0.0285254 0)
(0.99402 0.0780773 0)
(0.999501 0.0487994 0)
(1.00022 0.0467803 0)
(0.998953 0.0938027 0)
(1.00347 0.0631592 0)
(1.00488 0.0420876 0)
(1.00493 0.0945341 0)
(1.00602 0.137028 0)
(1.00692 0.0997011 0)
(1.00681 0.0415717 0)
(1.0065 -0.017393 0)
(1.00626 -0.0315806 0)
(1.19754 0.00643126 0)
(1.19736 -0.0306766 0)
(1.1709 -0.0611222 0)
(1.13411 -0.0801756 0)
(1.09627 -0.0877412 0)
(1.05929 -0.0861552 0)
(1.027 -0.0780444 0)
(1.00239 -0.0653155 0)
(0.984681 -0.0503346 0)
(0.97377 -0.0363197 0)
(0.968221 -0.0240121 0)
(0.96541 -0.0133396 0)
(0.965198 -0.00392994 0)
(0.96718 0.00525054 0)
(0.969644 0.0135781 0)
(0.972195 0.0204344 0)
(0.974904 0.0260739 0)
(0.977798 0.0304839 0)
(0.980502 0.0346825 0)
(0.98335 0.0368865 0)
(0.985537 0.0418438 0)
(0.988493 0.0394626 0)
(0.989528 0.0514497 0)
(0.99344 0.0357252 0)
(0.992248 0.0677159 0)
(0.998167 0.0281105 0)
(0.99502 0.0777831 0)
(1.00047 0.048006 0)
(1.00093 0.0468197 0)
(1.00039 0.0935525 0)
(1.00475 0.0624078 0)
(1.00575 0.0419207 0)
(1.00625 0.094736 0)
(1.00784 0.136938 0)
(1.00872 0.0995442 0)
(1.00849 0.0416899 0)
(1.00821 -0.0172672 0)
(1.00811 -0.031563 0)
(1.1586 0.0170917 0)
(1.15866 -0.0142843 0)
(1.14144 -0.0409675 0)
(1.11363 -0.0604643 0)
(1.08368 -0.0731919 0)
(1.055 -0.0783672 0)
(1.03059 -0.0760681 0)
(1.01177 -0.0675719 0)
(0.997233 -0.0553039 0)
(0.987137 -0.0418703 0)
(0.980781 -0.0284812 0)
(0.976671 -0.0157026 0)
(0.974394 -0.00403508 0)
(0.973773 0.00560356 0)
(0.974341 0.0135213 0)
(0.975656 0.0199432 0)
(0.977518 0.0252084 0)
(0.979869 0.0293748 0)
(0.98217 0.0334822 0)
(0.984762 0.0357259 0)
(0.986687 0.040741 0)
(0.989563 0.0385244 0)
(0.990449 0.0505165 0)
(0.994328 0.0350317 0)
(0.993237 0.0669387 0)
(0.998918 0.0275132 0)
(0.996185 0.077342 0)
(1.00153 0.0472805 0)
(1.00174 0.0465437 0)
(1.00202 0.0930994 0)
(1.00616 0.0617922 0)
(1.00667 0.0415561 0)
(1.00784 0.0944572 0)
(1.01005 0.136675 0)
(1.01084 0.0994265 0)
(1.01041 0.0417193 0)
(1.01014 -0.0172478 0)
(1.01015 -0.0316011 0)
(1.12618 0.0242407 0)
(1.1287 0.00218007 0)
(1.11881 -0.0177183 0)
(1.09984 -0.0327962 0)
(1.07856 -0.0424435 0)
(1.05699 -0.046248 0)
(1.03703 -0.0452451 0)
(1.0203 -0.0405893 0)
(1.00587 -0.0335478 0)
(0.99493 -0.0257518 0)
(0.987685 -0.0174234 0)
(0.982205 -0.00889017 0)
(0.978743 -0.00113981 0)
(0.977833 0.00613465 0)
(0.97824 0.0128948 0)
(0.97912 0.0188105 0)
(0.980436 0.0239266 0)
(0.982289 0.0280931 0)
(0.984137 0.0322464 0)
(0.986404 0.0345693 0)
(0.988031 0.0396401 0)
(0.990783 0.0375571 0)
(0.991519 0.0495644 0)
(0.995341 0.0342552 0)
(0.994349 0.0661656 0)
(0.999806 0.0268125 0)
(0.997445 0.0768071 0)
(1.00269 0.0465184 0)
(1.0027 0.0460134 0)
(1.00376 0.0926026 0)
(1.00768 0.0611382 0)
(1.00775 0.0409582 0)
(1.00967 0.0939545 0)
(1.01253 0.136356 0)
(1.01322 0.0993243 0)
(1.01257 0.0418099 0)
(1.01231 -0.0171919 0)
(1.0124 -0.0316395 0)
(1.10119 0.0296917 0)
(1.10452 0.0135103 0)
(1.09817 -0.0022148 0)
(1.08448 -0.0152485 0)
(1.06869 -0.0248764 0)
(1.05212 -0.0307085 0)
(1.03633 -0.0329031 0)
(1.02305 -0.0317473 0)
(1.01123 -0.0278348 0)
(1.0019 -0.0223 0)
(0.995311 -0.0155585 0)
(0.989647 -0.00788541 0)
(0.985518 -0.000339763 0)
(0.983678 0.00658923 0)
(0.983065 0.0128675 0)
(0.98304 0.0183709 0)
(0.983594 0.0231826 0)
(0.984875 0.0271436 0)
(0.986268 0.0311856 0)
(0.98821 0.0334899 0)
(0.98955 0.0385789 0)
(0.992153 0.0365699 0)
(0.992744 0.048623 0)
(0.996491 0.0333974 0)
(0.995572 0.0653814 0)
(1.00085 0.0259982 0)
(0.998772 0.0761482 0)
(1.00398 0.0457606 0)
(1.00384 0.0453315 0)
(1.00556 0.0920149 0)
(1.00934 0.0604905 0)
(1.00906 0.0402954 0)
(1.01169 0.0933045 0)
(1.01518 0.135956 0)
(1.0158 0.0992543 0)
(1.01497 0.0419365 0)
(1.01472 -0.0171462 0)
(1.01488 -0.0317002 0)
(1.08119 0.0337676 0)
(1.08382 0.021371 0)
(1.07999 0.00924719 0)
(1.07078 -0.00104185 0)
(1.05987 -0.0089797 0)
(1.0478 -0.0142284 0)
(1.03582 -0.0167548 0)
(1.02552 -0.0167311 0)
(1.01545 -0.0146917 0)
(1.0069 -0.0115249 0)
(1.00086 -0.00737765 0)
(0.995151 -0.00210701 0)
(0.990289 0.00346668 0)
(0.987947 0.00867526 0)
(0.98709 0.0136958 0)
(0.986663 0.0183931 0)
(0.986712 0.0227284 0)
(0.987538 0.0264087 0)
(0.98853 0.0302881 0)
(0.990161 0.0325137 0)
(0.991223 0.0375784 0)
(0.993662 0.0355708 0)
(0.994115 0.0476807 0)
(0.997776 0.0324339 0)
(0.996902 0.0645579 0)
(1.00205 0.0250695 0)
(1.00018 0.0753726 0)
(1.00542 0.045018 0)
(1.00517 0.0444544 0)
(1.00742 0.0913059 0)
(1.01117 0.0598733 0)
(1.01064 0.0395077 0)
(1.01389 0.0924061 0)
(1.01797 0.135421 0)
(1.01859 0.0991834 0)
(1.01762 0.0420898 0)
(1.01741 -0.0171012 0)
(1.01762 -0.0317757 0)
(1.0642 0.0363803 0)
(1.06676 0.027151 0)
(1.06498 0.018145 0)
(1.05881 0.0100897 0)
(1.0511 0.00335858 0)
(1.04215 -0.00166193 0)
(1.03306 -0.00483082 0)
(1.02522 -0.0061624 0)
(1.01702 -0.00590302 0)
(1.00979 -0.00448972 0)
(1.00477 -0.00200823 0)
(0.999799 0.00163581 0)
(0.995066 0.00601191 0)
(0.992386 0.0103999 0)
(0.991135 0.0146506 0)
(0.99028 0.0187036 0)
(0.989855 0.0225667 0)
(0.990259 0.0259102 0)
(0.990887 0.0295576 0)
(0.992229 0.0316306 0)
(0.993035 0.0366289 0)
(0.995308 0.0345555 0)
(0.995628 0.0467283 0)
(0.999202 0.0313742 0)
(0.998351 0.0636928 0)
(1.00342 0.0240421 0)
(1.0017 0.0744604 0)
(1.007 0.0442538 0)
(1.00669 0.0433564 0)
(1.00936 0.0904589 0)
(1.01318 0.0592431 0)
(1.01249 0.0385318 0)
(1.01627 0.0912197 0)
(1.02093 0.134729 0)
(1.02162 0.0991004 0)
(1.02057 0.0422681 0)
(1.02042 -0.0170577 0)
(1.02066 -0.0318661 0)
(1.05051 0.0381627 0)
(1.05302 0.0313848 0)
(1.0522 0.0245489 0)
(1.04793 0.0181127 0)
(1.04268 0.0125024 0)
(1.03627 0.00808396 0)
(1.0296 0.00499477 0)
(1.02398 0.00323549 0)
(1.01754 0.00268013 0)
(1.01157 0.00306887 0)
(1.00759 0.00436421 0)
(1.00331 0.00669775 0)
(0.998732 0.00970523 0)
(0.995963 0.012898 0)
(0.994605 0.016168 0)
(0.993561 0.0194452 0)
(0.992839 0.0227357 0)
(0.992933 0.0256607 0)
(0.993273 0.0290101 0)
(0.994372 0.0308617 0)
(0.994956 0.035751 0)
(0.997073 0.0335414 0)
(0.997272 0.0457754 0)
(1.00077 0.0302324 0)
(0.999924 0.0627784 0)
(1.00495 0.0229092 0)
(1.00333 0.07339 0)
(1.00873 0.0434449 0)
(1.00841 0.042035 0)
(1.0114 0.0894501 0)
(1.01537 0.0585661 0)
(1.0146 0.0373474 0)
(1.01886 0.0897367 0)
(1.02407 0.133865 0)
(1.02493 0.0989806 0)
(1.02384 0.0424571 0)
(1.02378 -0.0170168 0)
(1.02403 -0.0319675 0)
(1.03956 0.0392946 0)
(1.04155 0.0341334 0)
(1.04127 0.0288966 0)
(1.03848 0.0238967 0)
(1.0351 0.0193902 0)
(1.03059 0.0156499 0)
(1.02577 0.0128116 0)
(1.02186 0.0108594 0)
(1.01687 0.00973649 0)
(1.01206 0.00934534 0)
(1.00911 0.00971778 0)
(1.00569 0.010973 0)
(1.00158 0.0129447 0)
(0.998949 0.0152438 0)
(0.997621 0.0177281 0)
(0.996517 0.02032 0)
(0.995624 0.0230593 0)
(0.995506 0.0255515 0)
(0.995635 0.0285746 0)
(0.996546 0.0301574 0)
(0.996951 0.0349037 0)
(0.99894 0.0324959 0)
(0.999032 0.0447838 0)
(1.00247 0.0289786 0)
(1.00162 0.0617644 0)
(1.00664 0.0216394 0)
(1.0051 0.0721161 0)
(1.0106 0.0425487 0)
(1.01032 0.0404609 0)
(1.01358 0.0882146 0)
(1.01776 0.0577986 0)
(1.017 0.0359195 0)
(1.02167 0.0878889 0)
(1.02745 0.132777 0)
(1.02856 0.098804 0)
(1.0275 0.0426081 0)
(1.02756 -0.0170038 0)
(1.02777 -0.0320823 0)
(1.0302 0.0399803 0)
(1.03191 0.0360348 0)
(1.03214 0.0320862 0)
(1.0304 0.0282133 0)
(1.02831 0.0245836 0)
(1.02517 0.0214375 0)
(1.02175 0.0188978 0)
(1.01921 0.0169602 0)
(1.01545 0.0156027 0)
(1.01169 0.0148088 0)
(1.0097 0.0146335 0)
(1.00714 0.0151777 0)
(1.00359 0.0163522 0)
(1.00125 0.017888 0)
(1.0001 0.0196706 0)
(0.999073 0.0216256 0)
(0.998147 0.0238219 0)
(0.997927 0.0258621 0)
(0.997925 0.0285287 0)
(0.99871 0.0297956 0)
(0.998986 0.0343576 0)
(1.00088 0.0316844 0)
(1.00089 0.0439982 0)
(1.00429 0.0278493 0)
(1.00344 0.0608595 0)
(1.00847 0.0204346 0)
(1.00701 0.0708249 0)
(1.01262 0.0416973 0)
(1.01243 0.038778 0)
(1.01591 0.086865 0)
(1.02035 0.0570059 0)
(1.01967 0.034325 0)
(1.02475 0.0857421 0)
(1.0311 0.131439 0)
(1.03256 0.098575 0)
(1.03157 0.0429212 0)
(1.03183 -0.016902 0)
(1.03195 -0.032169 0)
(1.02247 0.0395912 0)
(1.02399 0.0366026 0)
(1.02446 0.0335926 0)
(1.02339 0.0305438 0)
(1.02221 0.0276029 0)
(1.02009 0.0249693 0)
(1.01777 0.0227453 0)
(1.01635 0.0209093 0)
(1.01361 0.0194493 0)
(1.01076 0.0184004 0)
(1.00962 0.0178338 0)
(1.00785 0.01784 0)
(1.0049 0.01838 0)
(1.00294 0.0192773 0)
(1.00204 0.020453 0)
(1.00118 0.0218388 0)
(1.00033 0.0235286 0)
(1.0001 0.0251291 0)
(1.00005 0.0274463 0)
(1.00078 0.0283929 0)
(1.00099 0.0327811 0)
(1.00282 0.0298293 0)
(1.00279 0.0422024 0)
(1.00618 0.0256871 0)
(1.00534 0.0589748 0)
(1.01043 0.0182433 0)
(1.00901 0.0685395 0)
(1.01479 0.0400058 0)
(1.01469 0.0361477 0)
(1.01837 0.0846592 0)
(1.02317 0.0554917 0)
(1.02262 0.0319021 0)
(1.02803 0.082757 0)
(1.03506 0.129441 0)
(1.03713 0.097763 0)
(1.03622 0.0425392 0)
(1.03663 -0.0171324 0)
(1.0366 -0.0323268 0)
(1.01598 0.0403446 0)
(1.01724 0.038055 0)
(1.01784 0.0357645 0)
(1.01726 0.033405 0)
(1.01673 0.0310988 0)
(1.01532 0.0290061 0)
(1.0138 0.0271889 0)
(1.0132 0.0256074 0)
(1.01125 0.02426 0)
(1.00915 0.0232069 0)
(1.00877 0.022522 0)
(1.00774 0.0222829 0)
(1.00542 0.0224697 0)
(1.00393 0.0229576 0)
(1.0034 0.0236999 0)
(1.00283 0.0246421 0)
(1.00216 0.0259025 0)
(1.00205 0.0270939 0)
(1.00206 0.0290586 0)
(1.00282 0.0296481 0)
(1.00301 0.0338177 0)
(1.00488 0.0304919 0)
(1.00481 0.0428823 0)
(1.00826 0.0258322 0)
(1.00741 0.0594037 0)
(1.01258 0.0181459 0)
(1.01133 0.068325 0)
(1.01711 0.0402113 0)
(1.0173 0.0352345 0)
(1.02115 0.0840158 0)
(1.02616 0.0555936 0)
(1.02597 0.0307562 0)
(1.03187 0.0805979 0)
(1.03938 0.128368 0)
(1.04194 0.098226 0)
(1.04142 0.0435963 0)
(1.04233 -0.0165712 0)
(1.04195 -0.0322138 0)
(1.01054 0.0370068 0)
(1.0117 0.0351554 0)
(1.01246 0.0333134 0)
(1.0123 0.0313843 0)
(1.0123 0.0294702 0)
(1.01146 0.0277102 0)
(1.01057 0.0261488 0)
(1.01062 0.0247275 0)
(1.00931 0.0234404 0)
(1.00783 0.0223547 0)
(1.00805 0.0215366 0)
(1.00762 0.0210601 0)
(1.00581 0.0209329 0)
(1.00469 0.0210687 0)
(1.00444 0.0214399 0)
(1.00412 0.0220008 0)
(1.00364 0.0228861 0)
(1.00364 0.0237117 0)
(1.00374 0.0253526 0)
(1.00455 0.0256137 0)
(1.0048 0.0295689 0)
(1.00667 0.0259232 0)
(1.00668 0.0382792 0)
(1.01012 0.0208663 0)
(1.00939 0.0545066 0)
(1.01465 0.0131344 0)
(1.01333 0.0628183 0)
(1.01955 0.035594 0)
(1.01966 0.0295192 0)
(1.02373 0.0784432 0)
(1.02948 0.0510368 0)
(1.02919 0.0253665 0)
(1.0353 0.0741416 0)
(1.04406 0.122735 0)
(1.04791 0.0945834 0)
(1.04736 0.0413654 0)
(1.04834 -0.0177502 0)
(1.04768 -0.0325604 0)
(1.00527 0.0400182 0)
(1.00624 0.0386415 0)
(1.00708 0.0372861 0)
(1.00722 0.0358132 0)
(1.00759 0.0343151 0)
(1.00718 0.0329228 0)
(1.00679 0.0316803 0)
(1.00733 0.0305157 0)
(1.00652 0.0294159 0)
(1.00553 0.0284797 0)
(1.00626 0.0277844 0)
(1.00641 0.0273605 0)
(1.00518 0.0271807 0)
(1.00457 0.0271649 0)
(1.00478 0.0273046 0)
(1.00486 0.0275728 0)
(1.00471 0.0281368 0)
(1.00498 0.028624 0)
(1.00527 0.0299673 0)
(1.00627 0.0298851 0)
(1.00663 0.0336747 0)
(1.00869 0.0295778 0)
(1.00872 0.0420989 0)