/*--------------------------------*- C++ -*----------------------------------*\
| =========                 |                                                 |
| \\      /  F ield         | OpenFOAM: The Open Source CFD Toolbox           |
|  \\    /   O peration     | Version:  2512                                  |
|   \\  /    A nd           | Website:  www.openfoam.com                      |
|    \\/     M anipulation  |                                                 |
\*---------------------------------------------------------------------------*/
FoamFile
{
    version     2.0;
    format      ascii;
    arch        "LSB;label=32;scalar=64";
    class       volScalarField;
    location    "82";
    object      p;
}
// * * * * * * * * * * * * * * * * * * * * * * * * * * * * * * * * * * * * * //

dimensions      [0 2 -2 0 0 0 0];

internalField   nonuniform List<scalar> 
13248
(
-0.630695
-0.628298
-0.625164
-0.621781
-0.618969
-0.617289
-0.616757
-0.616718
-0.6159
-0.612669
-0.605419
-0.592971
-0.574838
-0.551303
-0.523248
-0.491855
-0.458318
-0.423657
-0.388652
-0.353914
-0.319656
-0.2864
-0.252883
-0.219513
-0.63683
-0.634372
-0.631029
-0.627235
-0.623618
-0.620471
-0.617507
-0.613835
-0.608186
-0.599291
-0.586233
-0.568666
-0.546841
-0.521452
-0.493397
-0.463556
-0.432676
-0.40135
-0.370034
-0.339065
-0.308706
-0.27917
-0.250278
-0.222873
-0.645545
-0.642648
-0.638951
-0.634675
-0.630081
-0.625066
-0.619016
-0.610986
-0.600058
-0.585641
-0.567606
-0.546268
-0.522225
-0.496176
-0.46877
-0.440547
-0.41194
-0.383301
-0.354906
-0.327025
-0.299799
-0.273477
-0.24788
-0.222953
-0.6568
-0.653068
-0.64876
-0.643719
-0.637698
-0.630148
-0.620269
-0.607383
-0.591219
-0.571949
-0.550056
-0.526163
-0.500876
-0.474706
-0.448051
-0.421216
-0.394446
-0.367945
-0.341904
-0.31648
-0.291811
-0.268087
-0.245113
-0.22318
-0.670433
-0.665537
-0.660333
-0.654099
-0.645989
-0.635091
-0.620725
-0.602819
-0.58187
-0.55865
-0.533936
-0.508364
-0.482388
-0.456313
-0.430343
-0.40463
-0.379301
-0.354476
-0.330266
-0.306778
-0.28411
-0.262336
-0.241347
-0.221228
-0.686331
-0.680048
-0.673651
-0.665662
-0.654604
-0.639463
-0.620109
-0.597301
-0.572191
-0.545855
-0.519081
-0.492354
-0.465942
-0.439981
-0.414548
-0.3897
-0.365493
-0.341979
-0.319218
-0.297264
-0.276166
-0.255968
-0.236608
-0.21818
-0.704338
-0.696546
-0.688609
-0.678129
-0.663092
-0.64286
-0.618263
-0.59089
-0.562269
-0.533487
-0.505162
-0.477583
-0.45085
-0.424982
-0.39997
-0.375806
-0.352485
-0.330013
-0.308401
-0.287662
-0.267811
-0.248842
-0.230745
-0.213519
-0.724111
-0.714741
-0.704814
-0.690903
-0.670807
-0.64486
-0.615059
-0.58359
-0.552038
-0.521291
-0.491733
-0.463465
-0.436459
-0.410648
-0.385961
-0.36234
-0.339737
-0.318117
-0.297451
-0.277718
-0.258892
-0.240957
-0.223907
-0.207642
-0.744956
-0.73396
-0.72146
-0.703037
-0.676951
-0.645028
-0.610328
-0.575281
-0.541277
-0.508911
-0.478333
-0.449487
-0.422249
-0.396486
-0.372079
-0.348926
-0.326942
-0.306055
-0.286204
-0.267334
-0.249394
-0.23235
-0.216166
-0.200669
-0.765767
-0.753097
-0.737287
-0.713284
-0.680598
-0.642799
-0.603663
-0.565535
-0.529462
-0.495736
-0.464299
-0.434971
-0.407551
-0.38185
-0.357709
-0.334987
-0.313567
-0.293348
-0.274241
-0.256168
-0.239058
-0.222859
-0.207492
-0.192762
-0.785061
-0.770645
-0.750645
-0.720133
-0.680595
-0.637249
-0.594182
-0.553414
-0.515598
-0.480742
-0.448613
-0.418926
-0.391414
-0.36584
-0.342004
-0.319734
-0.298883
-0.279325
-0.260951
-0.243661
-0.227375
-0.212026
-0.197491
-0.183611
-0.801104
-0.784834
-0.759721
-0.721969
-0.675611
-0.627177
-0.580693
-0.537713
-0.49849
-0.462768
-0.430163
-0.400298
-0.372843
-0.347518
-0.324086
-0.302342
-0.282118
-0.263268
-0.245661
-0.229185
-0.21376
-0.199314
-0.185716
-0.172874
-0.467295
-0.469915
-0.472041
-0.475274
-0.480164
-0.486681
-0.494643
-0.503717
-0.513167
-0.523046
-0.532275
-0.540052
-0.545535
-0.547926
-0.546589
-0.541161
-0.531672
-0.518623
-0.503035
-0.486373
-0.470262
-0.456022
-0.444774
-0.438793
-0.498131
-0.500415
-0.503214
-0.50792
-0.514932
-0.524154
-0.535377
-0.548255
-0.562237
-0.57608
-0.589607
-0.601457
-0.610405
-0.615221
-0.614789
-0.608261
-0.595237
-0.575925
-0.551215
-0.522645
-0.492123
-0.46154
-0.433016
-0.409978
-0.527978
-0.529559
-0.532713
-0.53852
-0.547186
-0.558534
-0.572296
-0.58807
-0.605226
-0.622852
-0.639604
-0.654455
-0.665842
-0.672156
-0.671859
-0.66368
-0.646847
-0.621256
-0.587628
-0.547519
-0.503196
-0.45716
-0.412408
-0.371208
-0.554984
-0.555551
-0.558684
-0.565025
-0.574615
-0.587205
-0.602457
-0.619898
-0.638835
-0.65829
-0.676969
-0.693371
-0.705774
-0.712299
-0.711077
-0.700524
-0.679551
-0.647826
-0.606026
-0.555754
-0.499761
-0.440553
-0.383298
-0.323048
-0.577686
-0.577061
-0.579763
-0.585987
-0.595658
-0.608491
-0.624088
-0.641922
-0.661258
-0.681088
-0.700066
-0.71659
-0.728764
-0.734495
-0.731653
-0.718346
-0.693225
-0.655905
-0.607257
-0.549278
-0.485152
-0.417718
-0.351042
-0.284919
-0.595287
-0.593499
-0.595398
-0.600876
-0.609803
-0.621907
-0.636763
-0.653823
-0.672344
-0.691324
-0.709346
-0.724848
-0.735838
-0.740075
-0.73524
-0.719253
-0.690673
-0.649198
-0.596034
-0.533613
-0.465682
-0.395287
-0.326717
-0.260044
-0.607765
-0.605021
-0.605885
-0.610095
-0.617564
-0.628102
-0.64131
-0.656643
-0.673364
-0.69042
-0.706648
-0.720274
-0.729254
-0.731251
-0.723845
-0.704955
-0.673337
-0.629095
-0.573941
-0.510746
-0.443379
-0.374946
-0.309266
-0.246936
-0.615763
-0.612407
-0.612174
-0.614783
-0.620291
-0.628666
-0.639604
-0.652595
-0.666898
-0.68163
-0.695426
-0.706521
-0.712771
-0.711735
-0.701017
-0.678792
-0.644333
-0.598416
-0.543353
-0.482312
-0.419019
-0.356133
-0.296682
-0.240523
-0.620372
-0.616807
-0.61557
-0.616482
-0.619809
-0.625735
-0.634104
-0.644464
-0.656203
-0.6683
-0.679302
-0.687323
-0.690067
-0.685096
-0.67031
-0.644497
-0.60774
-0.561563
-0.508649
-0.452009
-0.394831
-0.338946
-0.286627
-0.237032
-0.622885
-0.61947
-0.617431
-0.616773
-0.617993
-0.621498
-0.627294
-0.635092
-0.644189
-0.653434
-0.661194
-0.665375
-0.66364
-0.653845
-0.634556
-0.60546
-0.567492
-0.522693
-0.473636
-0.422864
-0.372649
-0.324021
-0.278668
-0.234983
-0.624628
-0.621583
-0.618984
-0.617044
-0.616471
-0.617838
-0.621338
-0.626661
-0.632982
-0.638938
-0.642655
-0.641971
-0.634838
-0.619795
-0.596339
-0.565046
-0.527402
-0.485446
-0.441196
-0.396497
-0.352666
-0.310474
-0.271176
-0.232577
-0.626865
-0.624223
-0.621275
-0.618422
-0.6165
-0.616179
-0.617632
-0.620446
-0.623581
-0.625432
-0.624064
-0.617607
-0.604692
-0.584779
-0.558245
-0.526217
-0.490233
-0.451892
-0.412512
-0.373218
-0.334523
-0.297224
-0.261767
-0.227816
-0.442554
-0.455411
-0.471876
-0.487771
-0.495169
-0.487467
-0.456701
-0.40131
-0.332676
-0.267843
-0.21916
-0.189616
-0.177278
-0.179219
-0.193019
-0.220157
-0.265668
-0.326091
-0.380218
-0.399879
-0.371634
-0.310641
-0.243725
-0.188396
-0.150721
-0.13044
-0.123837
-0.130565
-0.155494
-0.197078
-0.236563
-0.2483
-0.222946
-0.178789
-0.138151
-0.112232
-0.101513
-0.108102
-0.131919
-0.15856
-0.165209
-0.14493
-0.117731
-0.0945214
-0.0810577
-0.0754479
-0.0761228
-0.0765984
-0.0725055
-0.0662043
-0.0606294
-0.0583944
-0.0584782
-0.0602307
-0.0589244
-0.0476522
-0.0368371
-0.024215
-0.0210132
-0.00629335
-0.395834
-0.394269
-0.402084
-0.414119
-0.422082
-0.418249
-0.392521
-0.345288
-0.287274
-0.233818
-0.194995
-0.173114
-0.166981
-0.174131
-0.192668
-0.224672
-0.274787
-0.338251
-0.394089
-0.414883
-0.386365
-0.322444
-0.251409
-0.192369
-0.151111
-0.126964
-0.116461
-0.118303
-0.136583
-0.170832
-0.204928
-0.215383
-0.193934
-0.15714
-0.124448
-0.105755
-0.101756
-0.115917
-0.147689
-0.180999
-0.190125
-0.165414
-0.131366
-0.101121
-0.0817409
-0.0703587
-0.0662923
-0.0639476
-0.0600056
-0.057022
-0.0560311
-0.0598321
-0.0638335
-0.0681985
-0.0678447
-0.0538442
-0.0392404
-0.0194299
-0.0137488
-0.00377938
-0.34007
-0.320461
-0.315321
-0.319677
-0.324788
-0.325334
-0.308286
-0.273542
-0.229915
-0.189831
-0.161462
-0.147629
-0.14796
-0.160329
-0.182771
-0.217484
-0.26893
-0.333111
-0.390509
-0.415314
-0.389314
-0.32559
-0.252735
-0.191956
-0.148566
-0.121334
-0.107139
-0.104319
-0.116011
-0.142743
-0.171648
-0.181533
-0.164191
-0.134581
-0.109189
-0.0973227
-0.10003
-0.121879
-0.161385
-0.201084
-0.213267
-0.184918
-0.144037
-0.106768
-0.0819462
-0.0655056
-0.0570683
-0.0519104
-0.0477828
-0.0478566
-0.0513079
-0.0612175
-0.0691459
-0.0759344
-0.0764105
-0.0597368
-0.0414064
-0.0147052
-0.00658979
-0.00134715
-0.280514
-0.243774
-0.226663
-0.219519
-0.219496
-0.217484
-0.211371
-0.190548
-0.162966
-0.136936
-0.119414
-0.113814
-0.12069
-0.137743
-0.16269
-0.197803
-0.248044
-0.311387
-0.370724
-0.399332
-0.379327
-0.319224
-0.247599
-0.18713
-0.143225
-0.114121
-0.0969278
-0.0897031
-0.0951832
-0.114724
-0.138557
-0.148246
-0.135007
-0.11187
-0.0927744
-0.0869433
-0.0956965
-0.124631
-0.17149
-0.217431
-0.233222
-0.202554
-0.155415
-0.111327
-0.0816061
-0.0609022
-0.048564
-0.0406617
-0.0359755
-0.0387683
-0.0464339
-0.0624879
-0.0744026
-0.0834117
-0.0845517
-0.0652575
-0.0433251
-0.0101556
0.000392506
0.000967199
-0.225717
-0.169924
-0.151122
-0.127849
-0.119226
-0.114667
-0.121299
-0.106564
-0.092766
-0.0791815
-0.0719155
-0.0744288
-0.087512
-0.108442
-0.13477
-0.168852
-0.216264
-0.277004
-0.337271
-0.371072
-0.358298
-0.304571
-0.237137
-0.178739
-0.13552
-0.105734
-0.0866306
-0.0758731
-0.0755115
-0.0881864
-0.107133
-0.116766
-0.107325
-0.0896619
-0.0756132
-0.0747154
-0.0884631
-0.123384
-0.176917
-0.228683
-0.248604
-0.217493
-0.165297
-0.11483
-0.0807525
-0.0565441
-0.0408421
-0.0303531
-0.024712
-0.0297684
-0.0413602
-0.0636124
-0.0795928
-0.0905944
-0.092212
-0.0703554
-0.0449881
-0.00590406
0.00712068
0.00315776
-0.195521
-0.134089
-0.0894847
-0.0557903
-0.0338862
-0.0337459
-0.0341627
-0.0311438
-0.0277871
-0.0239179
-0.0252637
-0.0345727
-0.0525584
-0.0761582
-0.102752
-0.134802
-0.178475
-0.235524
-0.295524
-0.333837
-0.329152
-0.283314
-0.222213
-0.16762
-0.126103
-0.0965185
-0.0764198
-0.063441
-0.0583355
-0.0645962
-0.0786247
-0.0880919
-0.0821686
-0.0687095
-0.0583728
-0.061056
-0.0786014
-0.118292
-0.177233
-0.233998
-0.258421
-0.228906
-0.173398
-0.117293
-0.0794335
-0.0524349
-0.0339692
-0.0211169
-0.0141493
-0.0209307
-0.0360689
-0.064522
-0.0846796
-0.0974486
-0.0993337
-0.0749742
-0.0463653
-0.00205967
0.0135186
0.00522354
-0.185731
-0.123919
-0.0702493
-0.0234167
0.0105919
0.026558
0.0313412
0.0307032
0.0280872
0.0238112
0.0163382
0.00252342
-0.0182605
-0.0428068
-0.0685428
-0.0983234
-0.138564
-0.191876
-0.250853
-0.292615
-0.295222
-0.257679
-0.204169
-0.154721
-0.115846
-0.0870779
-0.0666644
-0.052308
-0.0439028
-0.0446675
-0.0538308
-0.0628033
-0.0603564
-0.0497047
-0.0418214
-0.0467436
-0.0668049
-0.109221
-0.172186
-0.233207
-0.262134
-0.236318
-0.179497
-0.118818
-0.0777338
-0.0485498
-0.0279729
-0.0130694
-0.00443818
-0.0123008
-0.0305343
-0.0652128
-0.0896602
-0.103935
-0.105861
-0.0790618
-0.0474196
0.00130661
0.0195203
0.00715638
-0.185323
-0.128254
-0.0763798
-0.0285098
0.0137008
0.0467691
0.0665945
0.0729008
0.069698
0.0626716
0.0522401
0.0364629
0.0149216
-0.009341
-0.0339986
-0.0622039
-0.0998652
-0.149744
-0.206962
-0.248539
-0.258352
-0.22902
-0.183985
-0.140683
-0.105279
-0.077913
-0.0576388
-0.0426379
-0.0319863
-0.0284162
-0.0331504
-0.0411552
-0.0418486
-0.03306
-0.0267863
-0.0325445
-0.0536031
-0.0972907
-0.162009
-0.22604
-0.259566
-0.238981
-0.18322
-0.119455
-0.0757328
-0.0448496
-0.0228141
-0.00628754
0.004276
-0.00403777
-0.0248192
-0.0655677
-0.0944406
-0.109975
-0.111715
-0.0825623
-0.0481441
0.00415163
0.0250654
0.0089437
-0.188182
-0.137526
-0.0907116
-0.0445399
-0.00195529
0.0347492
0.0648955
0.0876062
0.0983145
0.0933454
0.0838673
0.0688278
0.048495
0.0249614
0.000432622
-0.0277531
-0.0644064
-0.111908
-0.168161
-0.225789
-0.222819
-0.19952
-0.162876
-0.126074
-0.0946517
-0.0692295
-0.0495094
-0.034379
-0.0225076
-0.0157555
-0.0165961
-0.0230217
-0.0253998
-0.019085
-0.0138446
-0.0191786
-0.0398961
-0.0827002
-0.147261
-0.213671
-0.251643
-0.237375
-0.184269
-0.119178
-0.0734507
-0.041316
-0.0184043
-0.000792509
0.011887
0.00385189
-0.0188422
-0.0656582
-0.0990264
-0.115499
-0.116809
-0.0854237
-0.0485991
0.00639395
0.0301053
0.0105737
-0.192406
-0.148389
-0.107334
-0.065109
-0.0237496
0.0134777
0.0454397
0.0718208
0.0900473
0.100477
0.100428
0.0925408
0.0768951
0.0551474
0.0306699
0.00269364
-0.0321106
-0.0759087
-0.125829
-0.160545
-0.179801
-0.167345
-0.140472
-0.111002
-0.0841894
-0.06128
-0.0425605
-0.0276999
-0.0154312
-0.00665411
-0.00412454
-0.00836078
-0.0115472
-0.0083776
-0.00336976
-0.00745323
-0.026667
-0.067451
-0.130048
-0.195649
-0.238038
-0.229122
-0.181934
-0.118018
-0.0710299
-0.0381145
-0.0148115
0.00339203
0.0181764
0.0110593
-0.0128514
-0.0652058
-0.103117
-0.12035
-0.121005
-0.0876168
-0.0488161
0.00791006
0.0345876
0.0120346
-0.195682
-0.157697
-0.121329
-0.0822004
-0.0426946
-0.00536012
0.0287031
0.058512
0.0823553
0.0955256
0.102209
0.103311
0.0972871
0.080001
0.0556433
0.0272496
-0.00669987
-0.048278
-0.0938035
-0.131295
-0.146993
-0.140857
-0.121598
-0.0982666
-0.0755791
-0.0551571
-0.0375654
-0.0230675
-0.0107541
-0.000847096
0.00446778
0.0026836
-0.000838219
0.000296998
0.00475117
0.00241654
-0.0138662
-0.0512157
-0.110766
-0.176197
-0.221369
-0.222938
-0.178107
-0.116745
-0.0691419
-0.0355071
-0.0120045
0.00604569
0.0235702
0.0178733
-0.00652991
-0.0644184
-0.106922
-0.124472
-0.124272
-0.089095
-0.048564
0.00887546
0.038455
0.0133133
-0.200322
-0.172868
-0.14167
-0.106898
-0.0718446
-0.0376919
-0.00496364
0.0255422
0.0515327
0.0741708
0.0888342
0.0968233
0.0971325
0.0893907
0.0720445
0.0481152
0.0186997
-0.0166136
-0.055269
-0.0870782
-0.105284
-0.106195
-0.0967263
-0.0816293
-0.0644241
-0.0473811
-0.0316568
-0.0180573
-0.00614632
0.00413644
0.0112467
0.0112954
0.00758412
0.00679122
0.0106422
0.0088755
-0.00446204
-0.0365891
-0.0911965
-0.153338
-0.199617
-0.203771
-0.168503
-0.11269
-0.0663842
-0.0323837
-0.00871249
0.00828983
0.0269693
0.0233491
-0.000462429
-0.0627339
-0.109531
-0.127546
-0.126228
-0.0893668
-0.0472888
0.0100761
0.0417434
0.0144015
-0.18141
-0.166403
-0.137412
-0.103386
-0.0698218
-0.0378546
-0.0075112
0.0209779
0.0463502
0.066696
0.0810706
0.0908204
0.0957776
0.0920243
0.0783356
0.0577613
0.0311254
-0.00216196
-0.0378352
-0.0702025
-0.0811155
-0.0824036
-0.0756247
-0.0639324
-0.0499618
-0.0357023
-0.0221256
-0.0100301
0.000615936
0.0100635
0.0173544
0.018735
0.0152148
0.0130945
0.0162594
0.0163931
0.00740833
-0.0202132
-0.0715825
-0.132139
-0.180288
-0.188969
-0.15748
-0.104061
-0.0593855
-0.027113
-0.00437213
0.0116643
0.0312173
0.0293826
0.00630804
-0.0600769
-0.111937
-0.130077
-0.12732
-0.0881832
-0.0451794
0.011603
0.044493
0.0152588
-0.164831
-0.152983
-0.126173
-0.0944046
-0.0639451
-0.0357601
-0.00927915
0.0155795
0.0380994
0.0569612
0.0713283
0.0814869
0.0866551
0.0844625
0.0741038
0.0572079
0.0347104
0.00732445
-0.0205686
-0.0385408
-0.0553166
-0.0587206
-0.0549483
-0.046943
-0.0364027
-0.0250159
-0.0137455
-0.00321502
0.00635659
0.0147843
0.0213887
0.0227684
0.0194324
0.0164944
0.0170831
0.0194331
0.0131396
-0.0103666
-0.056792
-0.114042
-0.161308
-0.170258
-0.142843
-0.0940064
-0.0522064
-0.0219907
-0.000332029
0.0144697
0.0340453
0.0332119
0.0111785
-0.0581526
-0.114416
-0.131567
-0.126657
-0.0859613
-0.0426071
0.0128
0.0459512
0.0158013
-0.149812
-0.139338
-0.116458
-0.0885787
-0.0614276
-0.0363664
-0.0129138
0.00926682
0.0296091
0.047112
0.0607436
0.0703169
0.0753519
0.0745222
0.0670984
0.0540268
0.0365423
0.0158878
-0.00504339
-0.0212938
-0.0345467
-0.0394887
-0.0383933
-0.0332697
-0.0253491
-0.0161069
-0.00658297
0.00256875
0.0110402
0.0185228
0.0246708
0.0262093
0.0230358
0.0194277
0.0196237
0.0211643
0.0156173
-0.00551269
-0.0474512
-0.098069
-0.139502
-0.149335
-0.126748
-0.0834948
-0.0451099
-0.0171883
0.00330261
0.0167688
0.0364159
0.0359879
0.0144359
-0.0574332
-0.116599
-0.131685
-0.12444
-0.0827514
-0.0395083
0.0136449
0.0467654
0.0161082
-0.13432
-0.126268
-0.107299
-0.0831203
-0.0590215
-0.0366778
-0.0158965
0.00368021
0.0217458
0.0374933
0.0500717
0.0591564
0.0644103
0.0649867
0.060323
0.0510549
0.0381697
0.0225569
0.00614735
-0.00803915
-0.0188263
-0.024111
-0.0244011
-0.0211167
-0.0152191
-0.00786919
-4.26976e-05
0.00772231
0.0151406
0.0216033
0.0269599
0.0284475
0.0255415
0.0215881
0.0212413
0.0222403
0.0171882
-0.00223608
-0.0388469
-0.0800987
-0.11574
-0.126733
-0.108766
-0.0717758
-0.0377329
-0.0124525
0.0066588
0.0186492
0.0380031
0.0379165
0.0169538
-0.0564443
-0.117448
-0.130203
-0.120458
-0.0783287
-0.0356905
0.0142747
0.0469516
0.0161938
-0.120117
-0.114358
-0.0986942
-0.0778668
-0.0566625
-0.0369042
-0.0186506
-0.00155889
0.014308
0.0284008
0.0400198
0.048744
0.0542331
0.055944
0.0534824
0.047192
0.0377377
0.0259494
0.0133414
0.00197051
-0.00677217
-0.0117236
-0.0128364
-0.0109769
-0.00675845
-0.000976838
0.0054869
0.0120291
0.0184658
0.0240729
0.0286362
0.0299428
0.0273027
0.0231986
0.0222565
0.0226906
0.0178503
0.000816776
-0.0285467
-0.0604025
-0.0911964
-0.10305
-0.089831
-0.0595249
-0.0303936
-0.00801959
0.00954924
0.0201322
0.0386727
0.0389139
0.0193007
-0.0541653
-0.116269
-0.126599
-0.114354
-0.0725989
-0.0312342
0.0147199
0.0464595
0.0160387
-0.107484
-0.103268
-0.0904027
-0.0726326
-0.0541946
-0.0369337
-0.0210357
-0.00618949
0.00773744
0.0203
0.0309266
0.0391618
0.0446793
0.0471295
0.0462656
0.0422907
0.0356931
0.0271864
0.0178497
0.00905433
0.00207562
-0.0022876
-0.00371885
-0.00267266
0.000422079
0.00499049
0.0102985
0.015704
0.0211627
0.0259714
0.0297625
0.030816
0.0284668
0.0244699
0.0230011
0.0227172
0.0178859
0.00420771
-0.0176156
-0.0409415
-0.067015
-0.0795491
-0.0707041
-0.0469599
-0.0230772
-0.0038688
0.0119616
0.0212591
0.0383393
0.0389086
0.0215417
-0.0503531
-0.112341
-0.120357
-0.10596
-0.0655321
-0.0261571
0.015109
0.0452709
0.0156203
-0.0956948
-0.0927651
-0.0823409
-0.0673801
-0.0515674
-0.0366385
-0.0228463
-0.00993301
0.00217083
0.013246
0.0228171
0.0304652
0.0358975
0.0388821
0.0392616
0.037154
0.0328892
0.0270112
0.0203205
0.0137505
0.00839651
0.00485096
0.00348115
0.0040598
0.00630828
0.00985234
0.0141945
0.0186575
0.023227
0.0273306
0.0305073
0.0313189
0.0292698
0.0256109
0.023862
0.0229842
0.0176665
0.00708069
-0.00765855
-0.0226933
-0.0439848
-0.0570384
-0.0522337
-0.0346314
-0.0159865
-8.37144e-05
0.0138909
0.0221092
0.0370756
0.0378108
0.0233629
-0.0448944
-0.104881
-0.111014
-0.0952452
-0.0572037
-0.0206015
0.0155591
0.0433863
0.0149361
-0.0847071
-0.0829211
-0.0746182
-0.0621696
-0.0487292
-0.0359053
-0.024025
-0.0128844
-0.00239839
0.00729067
0.0158294
0.0228704
0.0281557
0.0315067
0.0328038
0.0321138
0.029664
0.025873
0.0213475
0.0166945
0.0127718
0.0100589
0.00890583
0.00925669
0.0109717
0.0137774
0.0173419
0.0210261
0.0248004
0.0282298
0.0309057
0.0315508
0.0298483
0.0267188
0.0249203
0.0238383
0.01747
0.00931515
0.00127324
-0.00599772
-0.0230875
-0.0367381
-0.0353988
-0.0229993
-0.00920507
0.00336606
0.0154383
0.0227446
0.0351044
0.0356387
0.0245787
-0.0375745
-0.0932424
-0.0983145
-0.0824767
-0.0478436
-0.0147333
0.0162031
0.0407767
0.0140224
-0.074697
-0.0737874
-0.0672328
-0.0569377
-0.0456003
-0.0346829
-0.0245301
-0.0149856
-0.00595224
0.00247774
0.0100432
0.0164663
0.0215235
0.0250667
0.0270019
0.0273681
0.0263196
0.0241667
0.0213537
0.0182726
0.0155822
0.0136798
0.0128828
0.0132084
0.0145921
0.0168327
0.0197445
0.02279
0.0259179
0.0287536
0.0310081
0.0315816
0.030255
0.0278197
0.0262011
0.0252399
0.0193626
0.0134195
0.0107072
0.0083739
-0.00603926
-0.0198246
-0.0208756
-0.0124829
-0.00287589
0.00651793
0.0167219
0.0232334
0.0328496
0.032735
0.0253031
-0.0283277
-0.0772661
-0.0823839
-0.0682343
-0.0378538
-0.00879103
0.0171378
0.0374455
0.0129694
-0.0654851
-0.0651998
-0.0601022
-0.0516828
-0.0422209
-0.0330163
-0.0243842
-0.0162524
-0.00851414
-0.00122462
0.00542854
0.0112288
0.01599
0.0195877
0.0219448
0.0230776
0.0230882
0.0221891
0.0206437
0.0188658
0.0172362
0.0160851
0.0156735
0.0160593
0.0172453
0.0190931
0.0215082
0.0240445
0.0266546
0.0289966
0.0308857
0.0314535
0.0305277
0.0288194
0.0276396
0.0272578
0.0243547
0.0208309
0.0210513
0.0194659
0.00638807
-0.0065356
-0.00887268
-0.00333154
0.00288203
0.00945773
0.0178665
0.0236645
0.0308599
0.0297964
0.0255889
-0.0177468
-0.0577776
-0.0639583
-0.053405
-0.0277874
-0.00303342
0.0184335
0.0344994
0.0119362
-0.0569038
-0.0571471
-0.0532908
-0.0464808
-0.0386337
-0.0309016
-0.0236225
-0.0167384
-0.0101556
-0.00389307
0.00191583
0.00710555
0.0115255
0.0150697
0.0176684
0.0193212
0.0200977
0.0201712
0.0196023
0.0188063
0.0180326
0.0175224
0.0174865
0.018001
0.0191023
0.0206849
0.0227188
0.0248469
0.0270441
0.0290023
0.0305986
0.0312054
0.0306844
0.0296732
0.0290495
0.0294175
0.0287472
0.0284334
0.0299407
0.027128
0.0152074
0.00377949
0.000748962
0.00430535
0.00791997
0.0122041
0.0189297
0.0241033
0.0294996
0.0276254
0.0255023
-0.00700546
-0.0368858
-0.0445296
-0.0391058
-0.0182762
0.00227736
0.020017
0.0316182
0.0110932
-0.0490308
-0.0496668
-0.0468122
-0.0413512
-0.0348847
-0.0284338
-0.0223297
-0.0165411
-0.010976
-0.00562819
-0.000589329
0.00401433
0.00806229
0.0114648
0.0141575
0.0161284
0.0174129
0.0180746
0.0183432
0.0183134
0.0182171
0.0182419
0.0185525
0.0192176
0.0202931
0.0216973
0.0234508
0.0252671
0.0271439
0.0288167
0.0301953
0.0308728
0.0307258
0.0303218
0.0302718
0.0311841
0.0320139
0.0333679
0.0350532
0.0316426
0.0214223
0.0116418
0.00821033
0.0103695
0.01215
0.0147176
0.0199039
0.0245479
0.0288023
0.0267219
0.0250769
0.00261532
-0.0173563
-0.0259261
-0.0263278
-0.00989848
0.00689997
0.0216975
0.0290293
0.0105929
-0.0418482
-0.0427309
-0.040667
-0.0363249
-0.0310309
-0.0256838
-0.0205989
-0.0157608
-0.0110828
-0.00654309
-0.00220154
0.00184727
0.00550739
0.00870471
0.0113804
0.013515
0.0151398
0.0162798
0.0170591
0.0175825
0.0180015
0.0184478
0.0190479
0.0198567
0.0209433
0.0222378
0.0237906
0.0253755
0.0270063
0.0284722
0.0297002
0.0304566
0.0306348
0.0307024
0.0311416
0.0322382
0.0335619
0.0352522
0.0366451
0.0335955
0.0254329
0.0173601
0.0138311
0.0149332
0.0155608
0.0169401
0.0208101
0.0248904
0.0285185
0.0267112
0.0241411
0.00997585
-0.00173116
-0.010278
-0.015887
-0.00301376
0.010634
0.0231439
0.0269044
0.0105355
-0.0353074
-0.0363147
-0.0348576
-0.0314326
-0.0271324
-0.0227331
-0.0185236
-0.0145022
-0.010592
-0.00676125
-0.00304644
0.000484281
0.00375616
0.00670752
0.00928106
0.0114288
0.0132672
0.0147088
0.015841
0.0167492
0.0175378
0.018297
0.0191269
0.0200622
0.0211758
0.022405
0.0238137
0.0252315
0.0266764
0.0279933
0.0291254
0.0299453
0.0303817
0.0307522
0.0313524
0.0325668
0.0338921
0.0353825
0.0362586
0.0338031
0.0276211
0.0212632
0.0178576
0.018205
0.0182133
0.0187817
0.0216346
0.025018
0.0281255
0.0266405
0.022597
0.0145866
0.00862596
0.000946703
-0.00769179
0.00227815
0.0133637
0.023885
0.0251934
0.0108041
-0.0292601
-0.0303478
-0.029388
-0.0267287
-0.0232642
-0.0196637
-0.0161955
-0.0128703
-0.0096204
-0.00640739
-0.00324978
-0.00019484
0.00270144
0.00539204
0.00783639
0.010029
0.011844
0.0134135
0.0147528
0.0159055
0.0169434
0.017923
0.0189216
0.0199561
0.0210946
0.0222855
0.0235905
0.0248875
0.0261949
0.0274021
0.0284744
0.0293291
0.0299526
0.030512
0.0312414
0.032347
0.0334555
0.0346016
0.0350067
0.0330625
0.0285314
0.0237468
0.0206486
0.0204607
0.0201957
0.0202155
0.0223034
0.024895
0.0273807
0.0258439
0.0217255
0.0177383
0.0141527
0.00776535
-0.00153261
0.00606372
0.0150798
0.0235473
0.0234341
0.0108119
-0.023731
-0.0248876
-0.024312
-0.0222571
-0.019472
-0.0165371
-0.0136955
-0.0109626
-0.00827769
-0.00559945
-0.00293383
-0.000312975
0.00222031
0.00462635
0.00686124
0.00891514
0.0107485
0.0123788
0.0138258
0.0151186
0.0163087
0.0174284
0.0185365
0.0196388
0.0207914
0.0219563
0.0231838
0.0243916
0.0255971
0.0267167
0.0277467
0.0286108
0.0293479
0.0300076
0.0307566
0.0317203
0.032568
0.033376
0.0334626
0.031922
0.0286537
0.0251836
0.02251
0.0219457
0.0215975
0.0212725
0.0227486
0.0245539
0.0263971
0.0246657
0.0216197
0.0200482
0.0168314
0.0116047
0.00307686
0.00797851
0.0158279
0.0221304
0.0196381
0.0100325
-0.0187914
-0.0199134
-0.0195905
-0.018012
-0.0157903
-0.0134157
-0.0111025
-0.00886967
-0.00666488
-0.00444638
-0.00221215
1.64394e-05
0.00220647
0.00432697
0.00634841
0.00824438
0.0100011
0.0116114
0.0130845
0.0144346
0.0156972
0.0168901
0.018055
0.0191929
0.0203442
0.0214842
0.0226494
0.023785
0.0249117
0.0259584
0.0269483
0.0278008
0.0285855
0.0292929
0.0299954
0.0308139
0.0314388
0.0319652
0.0318799
0.0306755
0.0283289
0.0258718
0.0236674
0.0228597
0.0225064
0.0219963
0.0229426
0.0240628
0.0253251
0.0235209
0.0216048
0.0212319
0.0180838
0.0138447
0.00659137
0.009589
0.0158196
0.0201182
0.0169284
0.00866692
-0.0142822
-0.0153402
-0.0152142
-0.0140247
-0.0122668
-0.0103561
-0.00848294
-0.00666918
-0.00486953
-0.00304362
-0.00118452
0.000694285
0.00256791
0.004409
0.00620785
0.00793096
0.00956577
0.0111002
0.0125371
0.0138803
0.0151532
0.0163648
0.0175419
0.018684
0.0198167
0.0209248
0.0220342
0.0231062
0.0241658
0.0251477
0.0260906
0.026919
0.0276998
0.0284309
0.0290486
0.0297304
0.0301961
0.0305159
0.0303614
0.0294509
0.027761
0.0260316
0.0242862
0.0233525
0.0230057
0.0224329
0.0229048
0.0234959
0.0243157
0.0227881
0.0215083
0.0213564
0.018638
0.0153008
0.00923972
0.0104742
0.0153224
0.0180556
0.0144993
0.00712827
-0.0101851
-0.011185
-0.0112013
-0.0103126
-0.00892679
-0.00739671
-0.00588907
-0.00442527
-0.00296632
-0.00147419
6.17528e-05
0.00163287
0.00322219
0.00481271
0.00638211
0.00791602
0.00940054
0.0108224
0.012179
0.0134687
0.014705
0.015892
0.0170448
0.0181624
0.0192594
0.0203247
0.0213782
0.0223895
0.023384
0.0243064
0.0251941
0.025987
0.0267183
0.0273651
0.0279759
0.0285518
0.0289176
0.0291084
0.0289419
0.0282801
0.0270588
0.0258235
0.0244887
0.0235313
0.0231676
0.0226177
0.0227011
0.0229149
0.0234578
0.0224427
0.0213382
0.0209152
0.0188473
0.016231
0.0111714
0.0109968
0.0145916
0.0161578
0.0124386
0.00576751
-0.006507
-0.00742094
-0.00752534
-0.00687018
-0.00578655
-0.00457009
-0.00336514
-0.0021924
-0.00101861
0.000191423
0.00145073
0.00275328
0.00408662
0.00543934
0.00679535
0.00814025
0.00946227
0.0107498
0.0119976
0.0132014
0.0143673
0.0154967
0.016597
0.0176657
0.0187103
0.0197216
0.0207141
0.0216638
0.0225919
0.0234574
0.024284
0.0250353
0.0257188
0.0263388
0.0268733
0.0273513
0.0276523
0.0277771
0.0276265
0.0271594
0.0262769
0.0253621
0.0243638
0.0234666
0.0230642
0.022576
0.0223884
0.0223647
0.0227303
0.0222101
0.0210372
0.0202742
0.0187821
0.0166143
0.0124878
0.0113424
0.0136997
0.014435
0.0107735
0.00469632
-0.00318846
-0.00401062
-0.00417307
-0.00370096
-0.00286129
-0.00190106
-0.000945132
-1.30242e-05
0.000923854
0.00189709
0.00292064
0.00399102
0.00509737
0.00623138
0.0073889
0.00855169
0.00970927
0.0108522
0.0119747
0.0130716
0.0141445
0.0151928
0.0162192
0.0172197
0.0181976
0.0191442
0.020069
0.0209543
0.021814
0.0226205
0.0233835
0.0240854
0.0247184
0.0252911
0.0257698
0.0261728
0.02643
0.0265299
0.0264084
0.0260808
0.0254436
0.0247396
0.0239899
0.023216
0.0227646
0.0223362
0.0220024
0.0218502
0.0220332
0.0217765
0.0204884
0.0195572
0.0183875
0.0164563
0.0132382
0.0115137
0.0126542
0.0128392
0.00934336
0.00385516
-0.000205385
-0.000937248
-0.00113238
-0.000800069
-0.000155843
0.000595387
0.00134705
0.00208115
0.00282224
0.00359765
0.00442133
0.00529362
0.0062062
0.00715239
0.00811865
0.00910594
0.0101027
0.0110989
0.0120886
0.0130671
0.0140334
0.0149853
0.0159229
0.0168413
0.0177411
0.0186137
0.0194647
0.0202812
0.0210698
0.0218135
0.022513
0.0231592
0.0237403
0.0242608
0.0246934
0.0250429
0.0252688
0.0253641
0.0252756
0.0250427
0.0245809
0.0240275
0.0234402
0.022768
0.022323
0.0219449
0.0215574
0.0213304
0.0212892
0.0210631
0.0197867
0.0187715
0.0177065
0.0159246
0.0134658
0.0114962
0.0116333
0.0113568
0.00810113
0.00318764
0.00246691
0.00182516
0.00161622
0.00184167
0.00232913
0.00290995
0.00349435
0.00406579
0.00464483
0.00525564
0.00591057
0.00661158
0.0073532
0.00812732
0.0089292
0.00975697
0.0106032
0.0114582
0.0123157
0.0131717
0.0140248
0.014872
0.015712
0.0165393
0.0173527
0.0181445
0.0189166
0.0196596
0.0203755
0.021053
0.0216888
0.0222764
0.0228049
0.0232739
0.0236647
0.0239755
0.0241778
0.0242746
0.0242174
0.0240494
0.0237106
0.023277
0.0228024
0.0222747
0.0218141
0.0214571
0.0210494
0.0207569
0.0204968
0.0201705
0.019012
0.0179557
0.0169035
0.0152438
0.0133174
0.011313
0.0106795
0.00999985
0.00702575
0.00266472
0.00485735
0.00430074
0.00409011
0.00423415
0.00459613
0.00503829
0.00548574
0.00592411
0.00637017
0.00684475
0.00735898
0.00791443
0.00850853
0.00913625
0.00979246
0.0104744
0.0111795
0.0119009
0.0126316
0.013367
0.014106
0.0148458
0.0155841
0.0163156
0.017038
0.0177445
0.0184345
0.0191008
0.0197427
0.0203517
0.0209238
0.0214518
0.0219266
0.0223472
0.0226983
0.0229776
0.0231609
0.0232582
0.0232264
0.0231046
0.0228501
0.0225131
0.0221163
0.0216939
0.0212484
0.0208932
0.0204713
0.0201149
0.0196906
0.0192416
0.0182253
0.0171464
0.0160924
0.0145368
0.0129056
0.0110025
0.00983895
0.00880759
0.00610936
0.00225431
0.00698852
0.00651044
0.0063063
0.00638888
0.0066506
0.00698025
0.00731611
0.00764583
0.00798321
0.00834541
0.00874232
0.00917587
0.0096439
0.010144
0.0106732
0.0112277
0.011805
0.0124017
0.0130128
0.0136336
0.014262
0.0148957
0.0155325
0.0161674
0.0167975
0.0174168
0.0180235
0.0186115
0.0191788
0.0197185
0.0202264
0.0206953
0.0211184
0.0214909
0.0218027
0.0220527
0.0222187
0.0223129
0.0222996
0.0222109
0.0220127
0.0217486
0.0214087
0.0210552
0.0206365
0.020274
0.0198392
0.0194251
0.0189038
0.018349
0.0174421
0.016363
0.0153056
0.0138443
0.0123544
0.0105922
0.00910869
0.0078048
0.00534946
0.00193496
0.00888089
0.00847431
0.00828203
0.00831865
0.00850054
0.008739
0.00898398
0.00922513
0.00947361
0.00974367
0.0100435
0.0103751
0.0107371
0.0111274
0.0115452
0.0119886
0.0124544
0.0129386
0.0134389
0.0139523
0.0144765
0.0150089
0.0155476
0.0160881
0.0166274
0.0171603
0.0176842
0.0181942
0.0186874
0.0191578
0.0196013
0.0200114
0.0203819
0.0207088
0.0209822
0.0212031
0.0213512
0.0214385
0.0214357
0.021369