/*--------------------------------*- C++ -*----------------------------------*\
| =========                 |                                                 |
| \\      /  F ield         | OpenFOAM: The Open Source CFD Toolbox           |
|  \\    /   O peration     | Version:  2512                                  |
|   \\  /    A nd           | Website:  www.openfoam.com                      |
|    \\/     M anipulation  |                                                 |
\*---------------------------------------------------------------------------*/
FoamFile
{
    version     2.0;
    format      ascii;
    arch        "LSB;label=32;scalar=64";
    class       surfaceScalarField;
    location    "82";
    object      phi;
}
// * * * * * * * * * * * * * * * * * * * * * * * * * * * * * * * * * * * * * //

dimensions      [0 3 -1 0 0 0 0];

oriented        oriented;

internalField   nonuniform List<scalar> 
26232
(
6.87433e-05
0.00115373
-0.00122247
0.000771939
0.0017595
-0.00246269
0.00242012
0.00066722
-0.0023154
0.00531738
-0.00226956
-0.000627703
0.00983372
-0.00722123
0.00270489
0.0163544
-0.0143084
0.00778773
0.0251201
-0.0234664
0.0147007
0.0360312
-0.0343189
0.0234078
0.0485452
-0.0461678
0.0336538
0.0617431
-0.0581253
0.0449274
0.0745376
-0.0693144
0.0565199
0.085935
-0.0790531
0.0676557
0.0952575
-0.086964
0.0776416
0.102264
-0.0930005
0.0859944
0.10714
-0.0973878
0.0925109
0.110379
-0.100506
0.0972679
0.112589
-0.102761
0.10055
0.114321
-0.10448
0.102748
0.11599
-0.105875
0.104206
0.11782
-0.107081
0.105251
0.119932
-0.108068
0.105956
0.122339
-0.109026
0.106619
0.12459
-0.109433
0.107182
-0.109906
0.108027
0.126469
5.33652e-05
0.00110037
0.000844197
0.000968665
0.00285629
-0.00134487
0.00656402
-0.00597729
0.0124305
-0.0130877
0.0207427
-0.0226206
0.0313776
-0.0341013
0.0436834
-0.0466248
0.056595
-0.0590793
0.0689223
-0.0704527
0.0796684
-0.0800605
0.0882516
-0.0876362
0.0945793
-0.0932917
0.0989698
-0.097391
0.101971
-0.100389
0.104161
-0.102696
0.106002
-0.104601
0.107791
-0.10627
0.109697
-0.107781
0.111783
-0.109167
0.114153
-0.110438
0.1168
-0.111673
0.120109
-0.112741
-0.114243
0.124446
0.000140023
0.000960342
0.00125408
-0.000145395
0.00396085
-0.00405163
0.00884086
-0.0108573
0.0162945
-0.0205413
0.0262591
-0.0325853
0.038035
-0.0458771
0.050433
-0.0590228
0.0621637
-0.07081
0.0722256
-0.0805145
0.0801276
-0.0879626
0.0859036
-0.0934122
0.0899603
-0.0973485
0.0928539
-0.100285
0.0950948
-0.10263
0.097047
-0.104648
0.098925
-0.106479
0.100846
-0.108192
0.102881
-0.109816
0.105101
-0.111386
0.107566
-0.112903
0.11033
-0.114437
0.113462
-0.115873
-0.117495
0.116714
0.000305493
0.000654849
0.00193351
-0.00177341
0.00558624
-0.00770437
0.0118277
-0.0170987
0.0207666
-0.0294802
0.0317631
-0.0435818
0.0435491
-0.0576632
0.0547239
-0.0701975
0.0642445
-0.0803307
0.0716609
-0.0879309
0.0770738
-0.0933755
0.0809207
-0.0972591
0.0837286
-0.100156
0.0859412
-0.102497
0.0878586
-0.104547
0.0896599
-0.106449
0.0914551
-0.108274
0.0933212
-0.110058
0.0953271
-0.111822
0.0975224
-0.113582
0.0999617
-0.115343
0.102679
-0.117155
0.105734
-0.118928
-0.12097
0.109209
0.000521026
0.000133823
0.00279451
-0.00404689
0.00753265
-0.0124425
0.0150997
-0.0246658
0.0250649
-0.0394455
0.0361632
-0.05468
0.0468621
-0.0683621
0.0560066
-0.0793421
0.0631094
-0.0874335
0.0682757
-0.0930971
0.0719416
-0.0970415
0.0746123
-0.0999298
0.076703
-0.102247
0.078496
-0.10429
0.0801662
-0.106218
0.0818222
-0.108105
0.0835337
-0.109986
0.0853497
-0.111874
0.087304
-0.113776
0.0894224
-0.1157
0.0917371
-0.117657
0.0942441
-0.119662
0.0969905
-0.121674
-0.123871
0.0998911
0.000771754
-0.000637931
0.0037708
-0.00704593
0.0096057
-0.0182774
0.0182087
-0.0332687
0.0284745
-0.0497113
0.038749
-0.0649545
0.0476772
-0.0772903
0.0546377
-0.0863025
0.0596773
-0.0924731
0.0632133
-0.0966332
0.0657461
-0.0995742
0.067692
-0.101876
0.0693364
-0.103891
0.0708525
-0.105806
0.0723384
-0.107704
0.0738485
-0.109615
0.0754154
-0.111553
0.077064
-0.113522
0.0788181
-0.11553
0.0807052
-0.117587
0.0827495
-0.119702
0.0849714
-0.121884
0.0874194
-0.124122
-0.126524
0.0900723
0.00105322
-0.00169115
0.00480521
-0.0107979
0.0115961
-0.0250683
0.0207211
-0.0423938
0.0305117
-0.0595019
0.0393364
-0.0737792
0.0463179
-0.0842717
0.0513625
-0.0913472
0.0548411
-0.0959516
0.0572571
-0.0990492
0.0590467
-0.101364
0.0605111
-0.10334
0.0618282
-0.105208
0.0630922
-0.10707
0.064352
-0.108964
0.0656376
-0.110901
0.0669735
-0.112889
0.0683837
-0.114932
0.0698919
-0.117038
0.0715168
-0.119212
0.0732741
-0.121459
0.0751695
-0.123779
0.0772208
-0.126173
-0.12869
0.0793871
0.00135656
-0.00304772
0.00582191
-0.0152633
0.0132699
-0.0325162
0.0223043
-0.0514282
0.0310258
-0.0682234
0.0381613
-0.0809147
0.043356
-0.0894664
0.0468776
-0.0948689
0.0492253
-0.0982993
0.0508673
-0.100691
0.0521363
-0.102633
0.053228
-0.104432
0.0542443
-0.106225
0.0552361
-0.108062
0.0562332
-0.109961
0.0572574
-0.111925
0.0583272
-0.113959
0.0594592
-0.116064
0.0606673
-0.118246
0.0619638
-0.120509
0.0633578
-0.122853
0.0648582
-0.12528
0.0664818
-0.127797
-0.130413
0.0682051
0.00166396
-0.00471168
0.00672169
-0.020321
0.0144159
-0.0402104
0.0228161
-0.0598285
0.0301541
-0.0755613
0.0356425
-0.0864031
0.0393387
-0.0931626
0.0416996
-0.0972298
0.0432285
-0.0998282
0.0443059
-0.101769
0.0451619
-0.103489
0.0459163
-0.105186
0.0466269
-0.106935
0.0473234
-0.108759
0.0480244
-0.110662
0.0487448
-0.112646
0.049498
-0.114712
0.0502975
-0.116864
0.0511561
-0.119105
0.0520848
-0.121437
0.0530921
-0.12386
0.0541857
-0.126373
0.0553673
-0.128978
-0.131666
0.0566197
0.00194947
-0.00666115
0.00739908
-0.0257706
0.0149052
-0.0477165
0.0223021
-0.0672254
0.0281788
-0.081438
0.0322009
-0.0904252
0.0346932
-0.0956548
0.0361737
-0.0987104
0.0370837
-0.100738
0.0377062
-0.102391
0.0381916
-0.103974
0.0386107
-0.105605
0.0389965
-0.107321
0.039367
-0.109129
0.039736
-0.111031
0.0401159
-0.113025
0.0405189
-0.115115
0.0409571
-0.117302
0.0414404
-0.119588
0.0419766
-0.121974
0.042572
-0.124456
0.043232
-0.127033
0.0439594
-0.129706
-0.132463
0.0447563
0.00218557
-0.00884672
0.0077735
-0.0313585
0.0147228
-0.0546658
0.0209295
-0.0734321
0.0254129
-0.0859215
0.0281904
-0.0932027
0.0297273
-0.0971917
0.0305223
-0.0995054
0.0309302
-0.101146
0.0311498
-0.102611
0.0312754
-0.1041
0.0313483
-0.105678
0.0313888
-0.107361
0.0314099
-0.10915
0.0314226
-0.111043
0.0314372
-0.11304
0.0314633
-0.115141
0.0315101
-0.117349
0.0315856
-0.119664
0.0316978
-0.122086
0.0318539
-0.124612
0.0320592
-0.127239
0.0323138
-0.12996
-0.13277
0.0326214
0.00235244
-0.0111992
0.00781583
-0.0368219
0.0139521
-0.0608021
0.0189205
-0.0784005
0.0221476
-0.0891486
0.0238893
-0.0949444
0.0246574
-0.0979598
0.0248891
-0.0997371
0.0248547
-0.101112
0.0246884
-0.102444
0.024448
-0.103859
0.0241585
-0.105389
0.0238334
-0.107036
0.0234824
-0.108799
0.0231142
-0.110675
0.0227372
-0.112663
0.0223595
-0.114763
0.0219889
-0.116978
0.0216327
-0.119308
0.0212984
-0.121751
0.0209938
-0.124307
0.0207258
-0.126971
0.0204974
-0.129732
0.0203188
-0.132592
-0.000650848
0.00591984
-0.00526899
-0.00220632
0.0106542
-0.00909873
-0.00439543
0.0116548
-0.00946566
-0.00704347
0.0109251
-0.00827707
-0.0100427
0.00951845
-0.00651919
-0.0133317
0.0077694
-0.0044804
-0.0168764
0.00563906
-0.00209437
-0.0206133
0.00298834
0.00074855
-0.0245117
-0.00028308
0.0041815
-0.0285515
-0.00424005
0.00827983
-0.0326564
-0.00898382
0.0130888
-0.0367478
-0.0145299
0.0186213
-0.0407337
-0.0208637
0.0248497
-0.0445072
-0.0279235
0.031697
-0.0479431
-0.0355938
0.0390297
-0.0508949
-0.0437007
0.0466525
-0.0531893
-0.0520114
0.0543058
-0.054621
-0.0602366
0.0616683
-0.0549448
-0.0680392
0.068363
-0.0538746
-0.0750447
0.0739745
-0.0511001
-0.080855
0.0780805
-0.0463156
-0.0850685
0.080284
-0.0392507
-0.0872743
0.0802094
-0.0871028
-0.0297815
0.0776337
-0.000410928
0.00633077
-0.00160499
0.0118483
-0.0034132
0.013463
-0.00565781
0.0131697
-0.00820726
0.0120679
-0.0109861
0.0105482
-0.0139595
0.00861245
-0.0171084
0.00613725
-0.0203773
0.0029858
-0.0237408
-0.00087651
-0.0271939
-0.00553077
-0.0306738
-0.01105
-0.0341283
-0.0174092
-0.0375032
-0.0245486
-0.0407427
-0.0323543
-0.043792
-0.0406514
-0.0465951
-0.0492083
-0.0490827
-0.057749
-0.0511533
-0.0659685
-0.052645
-0.073553
-0.053322
-0.080178
-0.0528829
-0.0855077
-0.050906
-0.0892511
-0.0911004
-0.0469083
-9.39312e-05
0.0064247
-0.000752392
0.0125067
-0.0019532
0.0146638
-0.00354159
0.0147581
-0.00536468
0.013891
-0.00732611
0.0125097
-0.00938029
0.0106666
-0.0115068
0.00826382
-0.0137008
0.00517973
-0.0158872
0.00130994
-0.018087
-0.00333095
-0.02026
-0.00887701
-0.0223702
-0.0152991
-0.0243783
-0.0225405
-0.0262495
-0.0304831
-0.0279686
-0.0389324
-0.0295526
-0.0476243
-0.0310683
-0.0562333
-0.0326194
-0.0644175
-0.0343094
-0.0718631
-0.0361868
-0.0783006
-0.0381725
-0.083522
-0.0399606
-0.087463
-0.0902357
-0.0408253
0.000246272
0.00617843
0.000226198
0.0125268
-0.000224669
0.0151147
-0.000991642
0.0155251
-0.00191698
0.0148163
-0.00288368
0.0134764
-0.00383045
0.0116134
-0.00473016
0.00916353
-0.00557061
0.00602017
-0.00634776
0.00208708
-0.00700591
-0.0026728
-0.00753807
-0.00834484
-0.00790675
-0.0149304
-0.00805989
-0.0223874
-0.00793359
-0.0306093
-0.0074781
-0.0393879
-0.00668862
-0.0484138
-0.00564619
-0.0572757
-0.00455986
-0.0655038
-0.00375631
-0.0726666
-0.00360724
-0.0784497
-0.00445485
-0.0826744
-0.00640459
-0.0855133
-0.0867811
-0.00985924
0.000548644
0.00562978
0.00115919
0.0119162
0.0015124
0.0147614
0.00163351
0.015404
0.00166788
0.014782
0.00174527
0.013399
0.00194454
0.0114141
0.00230149
0.00880659
0.002829
0.00549266
0.00353164
0.00138444
0.00445018
-0.00359134
0.00559881
-0.00949347
0.00701918
-0.0163508
0.00877782
-0.024146
0.010941
-0.0327725
0.0135749
-0.0420218
0.0166978
-0.0515366
0.0202422
-0.0608201
0.0240789
-0.0693405
0.027941
-0.0765287
0.0315135
-0.0820222
0.0343133
-0.0854742
0.0360403
-0.0872403
-0.0863789
0.0356382
0.000766586
0.0048632
0.00192207
0.0107608
0.0030171
0.0136664
0.00399138
0.0144297
0.00495122
0.0138221
0.00602717
0.012323
0.00731223
0.0101291
0.00885702
0.0072618
0.0106831
0.00366656
0.0128079
-0.000740335
0.0152773
-0.00606079
0.0181217
-0.0123378
0.0214047
-0.0196337
0.0251981
-0.0279395
0.0295628
-0.0371372
0.0344974
-0.0469564
0.0399183
-0.0569575
0.0456611
-0.0665629
0.0515096
-0.0751889
0.0572393
-0.0822585
0.0627192
-0.0875021
0.0678238
-0.0905787
0.0723702
-0.0917867
-0.0907433
0.0767346
0.000872394
0.0039908
0.00240405
0.00922911
0.00408722
0.0119832
0.00578197
0.0127349
0.00754217
0.0120619
0.00948122
0.010384
0.0116998
0.00791045
0.014268
0.00469364
0.0172114
0.000723206
0.0206399
-0.0041689
0.0245767
-0.00999759
0.0291196
-0.0168807
0.0343631
-0.0248772
0.0403731
-0.0339495
0.0471364
-0.0439005
0.0545189
-0.0543389
0.0622609
-0.0646995
0.0700112
-0.0743132
0.0774115
-0.0825893
0.0841407
-0.0889876
0.0900747
-0.0934361
0.095175
-0.0956789
0.0997462
-0.0963579
-0.0951685
0.104171
0.000863226
0.00312758
0.0025607
0.00753164
0.00460673
0.00993721
0.0068117
0.01053
0.00917668
0.00969693
0.0117882
0.00777242
0.0147499
0.0049488
0.0181478
0.0012957
0.0221361
-0.0032651
0.0267717
-0.00880445
0.0322092
-0.0154351
0.0385809
-0.0232524
0.0459646
-0.032261
0.054318
-0.0423028
0.0634267
-0.0530093
0.0729079
-0.0638201
0.0822651
-0.0740567
0.0910012
-0.0830493
0.098719
-0.090307
0.105211
-0.0954796
0.110497
-0.0987218
0.114695
-0.0998772
0.118305
-0.0999685
-0.0981483
0.121285
0.00075643
0.00237115
0.00240898
0.00587909
0.0045646
0.00778159
0.00702998
0.00806459
0.00977518
0.00695174
0.012871
0.00467659
0.0164337
0.00138611
0.0206475
-0.00291809
0.0256728
-0.00829047
0.0317094
-0.014841
0.0389408
-0.0226664
0.0474547
-0.0317663
0.0571619
-0.0419682
0.0677438
-0.0528847
0.0786661
-0.0639317
0.0892687
-0.0744227
0.098896
-0.083684
0.107057
-0.0912098
0.113488
-0.0967388
0.118264
-0.100255
0.121639
-0.102097
0.12411
-0.102348
0.126154
-0.102013
-0.100116
0.128122
0.000581665
0.00178948
0.0020192
0.00444156
0.00406235
0.00573843
0.00656635
0.0055606
0.00951525
0.00400283
0.0130016
0.00119027
0.017226
-0.00283833
0.0224215
-0.00811353
0.0288551
-0.0147241
0.0367503
-0.0227363
0.0461831
-0.0320992
0.0569878
-0.042571
0.0687141
-0.0536945
0.0806698
-0.0648404
0.0920473
-0.0753092
0.102093
-0.0844679
0.110269
-0.0918602
0.116372
-0.0973129
0.120525
-0.100892
0.123168
-0.102899
0.124793
-0.103722
0.126056
-0.103611
0.127327
-0.103284
-0.101951
0.129161
0.000376959
0.00141252
0.00150843
0.00331008
0.00331695
0.00392992
0.00575973
0.00311781
0.0088967
0.000865867
0.0129218
-0.00283483
0.0181093
-0.00802586
0.0247743
-0.0147785
0.0331569
-0.0231067
0.0432897
-0.0328691
0.054897
-0.0437065
0.0673777
-0.0550518
0.0798916
-0.0662083
0.0915269
-0.0764757
0.101499
-0.0852811
0.109315
-0.0922843
0.11487
-0.0974147
0.118425
-0.100869
0.120499
-0.102966
0.121743
-0.104142
0.12271
-0.104689
0.12399
-0.104892
0.125689
-0.104982
-0.104258
0.127997
0.000190049
0.00103744
0.00265195
0.00514206
0.00871282
0.0136657
0.0203406
0.0289699
0.039517
0.0515753
0.0643887
0.0769926
0.0884259
0.0979446
0.105174
0.110158
0.113294
0.115173
0.116414
0.117523
0.11879
0.120518
0.122717
0.126486
-0.0124166
-0.1145
0.0971355
0.00814585
-0.099553
0.0789905
0.0295608
-0.0774774
0.0560624
0.0500326
-0.0481557
0.0276839
0.0684206
-0.0139589
-0.00442911
0.0841601
0.0258075
-0.0415471
0.098322
0.0690156
-0.0831775
0.110963
0.110841
-0.123482
0.121403
0.143569
-0.154009
0.128717
0.162908
-0.170223
0.13258
0.171348
-0.175211
0.134202
0.17319
-0.174812
0.134919
0.170692
-0.171409
0.134096
0.169513
-0.16869
0.130688
0.177704
-0.174296
0.126152
0.192616
-0.188081
0.124109
0.195013
-0.19297
0.126446
0.163201
-0.165538
0.132233
0.0924521
-0.098239
0.139904
-0.00283981
-0.00483073
0.148471
-0.0957498
0.0871829
0.155989
-0.162663
0.155145
0.160283
-0.197604
0.19331
0.161574
-0.211351
0.21006
0.161741
-0.211422
0.211255
0.160159
-0.20742
0.209002
0.154823
-0.215091
0.220427
0.14587
-0.237381
0.246334
0.135365
-0.245882
0.256386
0.125813
-0.209857
0.219409
0.120461
-0.124483
0.129835
0.121943
-0.0120679
0.0105861
0.12863
0.0944181
-0.101106
0.137909
0.173192
-0.182471
0.145604
0.218771
-0.226466
0.147047
0.250362
-0.251805
0.140652
0.276804
-0.270408
0.12977
0.29513
-0.284248
0.119548
0.265311
-0.25509
0.114868
0.178692
-0.174012
0.117791
0.0380414
-0.0409636
0.12633
-0.0897492
0.0812101
0.132527
-0.180793
0.174595
0.13106
-0.240348
0.241815
0.124992
-0.28182
0.287887
0.120528
-0.287975
0.292439
0.119521
-0.214899
0.215905
0.121692
-0.11067
0.108499
0.122828
0.0491563
-0.050292
0.122648
0.179509
-0.179329
0.121684
0.28016
-0.279196
0.121128
0.294648
-0.294092
0.122288
0.228794
-0.229953
0.124595
0.159589
-0.161896
0.125492
-0.0534153
0.0525187
0.124613
-0.246476
0.247355
0.124206
-0.410355
0.410762
0.12098
-0.40768
0.410906
0.113766
0.0117135
-0.00449968
0.16477
-0.162031
-0.0368646
-0.124544
-0.0217059
-0.114712
-0.00366791
-0.0955154
0.0175316
-0.0693552
0.0385549
-0.0349821
0.0586256
0.0057367
0.0776943
0.049947
0.0955541
0.0929813
0.111242
0.127881
0.123385
0.150765
0.131509
0.163223
0.136846
0.167853
0.140512
0.167026
0.142146
0.167879
0.141586
0.178264
0.140623
0.193579
0.141687
0.19395
0.144928
0.15996
0.149195
0.0881849
0.153736
-0.00738102
0.158212
-0.100226
0.161762
-0.166213
0.162744
-0.198586
0.161081
-0.209689
0.158722
-0.209064
0.155217
-0.203915
0.147955
-0.207829
0.136942
-0.226368
0.125291
-0.234231
0.116247
-0.200812
0.112425
-0.120661
0.116322
-0.0159653
0.125997
0.0847431
0.138057
0.161132
0.14799
0.208839
0.151207
0.247145
0.146505
0.281506
0.136871
0.304763
0.126828
0.275354
0.120741
0.18478
0.120875
0.0379069
0.127264
-0.0961377
0.132781
-0.186311
0.130845
-0.238411
0.124126
-0.2751
0.119809
-0.283658
0.11923
-0.21432
0.121758
-0.113198
0.123352
0.0475626
0.123703
0.179157
0.123045
0.280818
0.12202
0.295673
0.123225
0.227589
0.125714
0.1571
0.126399
-0.0541006
0.124702
-0.244779
0.123008
-0.408661
0.12057
-0.405242
0.114398
0.0178854
0.167767
-0.0424612
-0.122908
-0.0374013
-0.119771
-0.0256628
-0.107254
-0.00926714
-0.0857508
0.0109649
-0.0552142
0.0333024
-0.0166008
0.0562879
0.0269615
0.079105
0.0701642
0.0999983
0.106988
0.117062
0.133702
0.129747
0.150538
0.139104
0.158496
0.145957
0.160173
0.15027
0.163566
0.152662
0.175872
0.155093
0.191148
0.158905
0.190137
0.162779
0.156085
0.165085
0.0858795
0.166469
-0.0087649
0.167257
-0.101014
0.167024
-0.16598
0.164844
-0.196406
0.16054
-0.205384
0.155868
-0.204392
0.150804
-0.198851
0.142344
-0.19937
0.129771
-0.213795
0.116928
-0.221388
0.108101
-0.191985
0.105874
-0.118433
0.111661
-0.0217522
0.123874
0.07253
0.138516
0.146489
0.150729
0.196626
0.156078
0.241796
0.153576
0.284008
0.145558
0.312781
0.135915
0.284997
0.128407
0.192287
0.125354
0.0409597
0.128965
-0.0997486
0.133545
-0.190891
0.131264
-0.23613
0.123755
-0.267591
0.119191
-0.279095
0.119024
-0.214152
0.122037
-0.116211
0.12432
0.0452793
0.125264
0.178214
0.124789
0.281293
0.123199
0.297263
0.124319
0.226469
0.127011
0.154408
0.127598
-0.0546873
0.125173
-0.242354
0.122238
-0.405726
0.120609
-0.403613
0.115542
0.0229524
0.171053
-0.0230209
-0.109747
-0.0310393
-0.111753
-0.0310923
-0.107201
-0.0226016
-0.0942415
-0.00756496
-0.0702508
0.0134732
-0.037639
0.0376784
0.00275637
0.0632162
0.0446263
0.0875485
0.0826557
0.10866
0.11259
0.125755
0.133443
0.139251
0.145
0.149408
0.150016
0.156453
0.156521
0.161736
0.170589
0.167413
0.185471
0.173741
0.183809
0.178207
0.151619
0.179351
0.0847361
0.178185
-0.00759943
0.175725
-0.0985533
0.171846
-0.162102
0.166621
-0.191181
0.159982
-0.198745
0.15325
-0.197661
0.146781
-0.192381
0.137671
-0.19026
0.124325
-0.200448
0.11057
-0.207634
0.10163
-0.183045
0.100314
-0.117117
0.107568
-0.0290059
0.121877
0.0582211
0.138841
0.129525
0.153503
0.181964
0.161487
0.233812
0.16152
0.283975
0.155325
0.318975
0.14625
0.294072
0.137518
0.201019
0.131227
0.0472515
0.131513
-0.100035
0.134771
-0.194149
0.132236
-0.233594
0.123883
-0.259239
0.118752
-0.273964
0.118896
-0.214295
0.122516
-0.119832
0.125673
0.0421229
0.127262
0.176624
0.12689
0.281665
0.124629
0.299524
0.125527
0.22557
0.128442
0.151493
0.129059
-0.0553047
0.126038
-0.239333
0.121928
-0.401615
0.121028
-0.402714
0.117056
0.026925
0.174557
0.0178423
-0.0919507
-0.000941187
-0.0929696
-0.0142431
-0.093899
-0.0186861
-0.0897985
-0.012764
-0.0761729
0.00178224
-0.0521853
0.0243219
-0.0197833
0.0503273
0.0186209
0.0764588
0.0565242
0.100538
0.0885108
0.121322
0.11266
0.138289
0.128032
0.151084
0.137221
0.16023
0.147375
0.167893
0.162927
0.176364
0.177001
0.184749
0.175424
0.189755
0.146612
0.190387
0.0841046
0.187883
-0.00509519
0.182855
-0.0935252
0.175797
-0.155045
0.167814
-0.183197
0.159213
-0.190144
0.150839
-0.189286
0.143311
-0.184853
0.134029
-0.180978
0.120579
-0.186998
0.10625
-0.193305
0.0969767
-0.173772
0.0960307
-0.116171
0.104035
-0.0370101
0.119727
0.0425287
0.138605
0.110647
0.155743
0.164826
0.166726
0.222829
0.169911
0.28079
0.166142
0.322745
0.157736
0.302478
0.147824
0.210932
0.13832
0.0567557
0.134879
-0.0965938
0.136367
-0.195637
0.133652
-0.23088
0.124485
-0.250072
0.118482
-0.267961
0.118792
-0.214605
0.123141
-0.124181
0.127342
0.0379221
0.129645
0.174321
0.129331
0.281979
0.126286
0.302569
0.126824
0.225032
0.129986
0.148331
0.130761
-0.0560799
0.127304
-0.235876
0.122079
-0.39639
0.121818
-0.402453
0.118917
0.0298265
0.178225
0.0644517
-0.0796678
0.0476556
-0.0761736
0.0268358
-0.0730792
0.00821363
-0.0711763
-0.000779201
-0.0671801
0.00274371
-0.0557082
0.0176166
-0.0346561
0.0405184
-0.00428089
0.0666678
0.0303748
0.0926911
0.0624874
0.116249
0.0891022
0.13584
0.108441
0.150555
0.122506
0.161178
0.136752
0.170599
0.153506
0.181164
0.166435
0.191147
0.165442
0.196936
0.140823
0.197821
0.0832195
0.194865
-0.00213878
0.188249
-0.0869093
0.178758
-0.145554
0.16842
-0.172859
0.158226
-0.17995
0.148569
-0.17963
0.140122
-0.176406
0.131045
-0.171902
0.118236
-0.174189
0.103852
-0.178921
0.0941144
-0.164034
0.0929812
-0.115038
0.100953
-0.0449816
0.117158
0.0263237
0.137423
0.0903819
0.156986
0.145263
0.171253
0.208562
0.17782
0.274222
0.176674
0.323891
0.169293
0.309859
0.158569
0.221655
0.146262
0.0690628
0.138958
-0.0892899
0.138206
-0.194885
0.135363
-0.228037
0.125522
-0.24023
0.118369
-0.260809
0.118643
-0.214878
0.123825
-0.129363
0.129224
0.0325232
0.132326
0.171219
0.132079
0.282226
0.128165
0.306482
0.128222
0.224975
0.131649
0.144904
0.132688
-0.0571192
0.128968
-0.232156
0.122688
-0.39011
0.122944
-0.402709
0.121099
0.0316714
0.182013
0.0950011
-0.0704976
0.0856261
-0.0667986
0.0727489
-0.060202
0.0550752
-0.0535026
0.0364121
-0.048517
0.0242691
-0.0435652
0.0240937
-0.0344807
0.0364468
-0.016634
0.0575795
0.00924207
0.0823461
0.0377208
0.106859
0.0645892
0.128129
0.0871712
0.144499
0.106136
0.156788
0.124464
0.168209
0.142085
0.180872
0.153772
0.192542
0.153772
0.199799
0.133565
0.20202
0.0809993
0.199453
0.000428072
0.191886
-0.0793427
0.180571
-0.134239
0.168297
-0.160585
0.156823
-0.168476
0.146346
-0.169153
0.137202
-0.167262
0.128375
-0.163075
0.116773
-0.162586
0.103011
-0.165159
0.0928982
-0.153922
0.0911121
-0.113252
0.0982875
-0.052157
0.114042
0.0105693
0.13498
0.0694437
0.156697
0.123546
0.174426
0.190833
0.184902
0.263747
0.187035
0.321758
0.181276
0.315618
0.169757
0.233174
0.154774
0.0840462
0.143634
-0.0781506
0.140181
-0.191431
0.137195
-0.225051
0.126935
-0.22997
0.118419
-0.252292
0.118367
-0.214827
0.124441
-0.135437
0.131211
0.0257531
0.135245
0.167185
0.135103
0.282369
0.130269
0.311317
0.129759
0.225484
0.133471
0.141192
0.134837
-0.0584846
0.131012
-0.228331
0.123735
-0.382832
0.12436
-0.403333
0.123564
0.0324668
0.185867
0.111611
-0.0608238
0.103689
-0.0588759
0.0972779
-0.0537912
0.0899016
-0.0461264
0.0785775
-0.0371928
0.0639712
-0.0289589
0.051445
-0.0219545
0.0479873
-0.0131762
0.0559096
0.0013197
0.0728303
0.0208002
0.094132
0.0432875
0.115107
0.0661966
0.132679
0.0885636
0.147014
0.110128
0.160993
0.128106
0.176058
0.138708
0.189727
0.140103
0.199181
0.124111
0.203569
0.076612
0.202016
0.00198024
0.193804
-0.0711304
0.181116
-0.12155
0.167398
-0.146868
0.154922
-0.156
0.143947
-0.158177
0.1344
-0.157715
0.125785
-0.154459
0.115613
-0.152415
0.103201
-0.152746
0.0930744
-0.143796
0.0903437
-0.110521
0.0960827
-0.0578961
0.110363
-0.00371084
0.131142
0.0486648
0.154681
0.100006
0.175757
0.169757
0.189975
0.249529
0.195237
0.316496
0.191531
0.319324
0.180397
0.244308
0.163432
0.101011
0.148743
-0.0634614
0.142191
-0.184879
0.138958
-0.221819
0.128639
-0.219652
0.118662
-0.242315
0.117895
-0.21406
0.124853
-0.142395
0.133162
0.0174444
0.138287
0.16206
0.138373
0.282283
0.132644
0.317046
0.13153
0.226598
0.135524
0.137198
0.137217
-0.0601775
0.133406
-0.22452
0.125184
-0.374611
0.126015
-0.404164
0.126267
0.0322155
0.189721
0.11941
-0.0521116
0.11163
-0.051096
0.105552
-0.0477129
0.101744
-0.0423181
0.0990077
-0.034457
0.0946947
-0.0246459
0.0874053
-0.0146651
0.0791416
-0.00491249
0.0743592
0.00610209
0.0772538
0.0179056
0.0884976
0.0320437
0.104456
0.0502382
0.121143
0.0718767
0.137045
0.0942257
0.153367
0.111784
0.170285
0.12179
0.185475
0.124912
0.197016
0.11257
0.203578
0.0700504
0.202611
0.0029469
0.193964
-0.0624839
0.180285
-0.107871
0.165627
-0.13221
0.152475
-0.142848
0.141256
-0.146958
0.131596
-0.148056
0.123124
-0.145986
0.114227
-0.143518
0.103644
-0.142164
0.0941407
-0.134292
0.0905562
-0.106936
0.0946314
-0.0619713
0.106413
-0.0154923
0.125968
0.0291095
0.150407
0.0755679
0.174845
0.145319
0.193577
0.230797
0.202506
0.307567
0.200758
0.321072
0.190349
0.254717
0.172211
0.119149
0.154148
-0.0453984
0.144145
-0.174876
0.140462
-0.218135
0.130494
-0.209684
0.119127
-0.230947
0.117191
-0.212125
0.1249
-0.150104
0.134944
0.00740027
0.141378
0.155626
0.141827
0.281834
0.135271
0.323601
0.133595
0.228274
0.137874
0.13292
0.139842
-0.0621455
0.136097
-0.220776
0.126977
-0.365491
0.127856
-0.405043
0.129159
0.0309134
0.193499
0.121646
-0.0445973
0.115062
-0.044512
0.109699
-0.0423499
0.106098
-0.0387172
0.104712
-0.0330703
0.105127
-0.0250611
0.105588
-0.0151263
0.10424
-0.00356439
0.101225
0.0091175
0.098492
0.0206382
0.0993215
0.0312142
0.10587
0.04369
0.117136
0.0606107
0.13143
0.0799316
0.14791
0.0953038
0.165175
0.104525
0.181188
0.108899
0.194537
0.099221
0.20267
0.0619176
0.202491
0.00312592
0.192889
-0.0528822
0.178252
-0.0932339
0.162958
-0.116915
0.149371
-0.129261
0.138015
-0.135602
0.128487
-0.138528
0.120214
-0.137714
0.112256
-0.13556
0.103569
-0.133477
0.0953851
-0.126108
0.0914724
-0.103024
0.0938406
-0.0643395
0.102724
-0.024376
0.119856
0.0119781
0.144196
0.0512276
0.171093
0.118422
0.193523
0.208367
0.206159
0.294931
0.207086
0.320144
0.197946
0.263857
0.18012
0.136975
0.159508
-0.024787
0.145934
-0.161301
0.141496
-0.213698
0.132283
-0.200471
0.11981
-0.218475
0.116266
-0.208581
0.124425
-0.158263
0.136344
-0.00451873
0.144355
0.147616
0.145466
0.280723
0.138272
0.330795
0.136053
0.230493
0.140582
0.128391
0.142718
-0.0642819
0.139027
-0.217084
0.129059
-0.355523
0.12983
-0.405815
0.132184
0.0285595
0.197106
0.121469
-0.0380703
0.115391
-0.0384332
0.110469
-0.0374284
0.107168
-0.035416
0.105778
-0.0316806
0.10651
-0.0257926
0.109337
-0.0179537
0.113764
-0.00799112
0.118193
0.0046882
0.120288
0.0185437
0.121181
0.0303207
0.123489
0.0413821
0.128933
0.0551672
0.138435
0.0704293
0.151204
0.0825344
0.165552
0.0901781
0.180145
0.0943047
0.193388
0.085978
0.20141
0.053896
0.19928
0.00525637
0.189052
-0.0426541
0.17407
-0.0782524
0.158863
-0.101708
0.145393
-0.115792
0.134105
-0.124314
0.124871
-0.129294
0.116957
-0.129799
0.109636
-0.128239
0.102509
-0.12635
0.0960422
-0.119641
0.0925715
-0.099553
0.0938073
-0.0655754
0.100014
-0.0305828
0.11359
-0.00159737
0.136046
0.0287709
0.165142
0.0893259
0.192458
0.181052
0.209125
0.278263
0.211937
0.317332
0.203671
0.272124
0.186483
0.154163
0.164109
-0.00241298
0.147454
-0.144646
0.141903
-0.208147
0.133805
-0.192373
0.12076
-0.20543
0.115223
-0.203044
0.123264
-0.166303
0.137325
-0.0185803
0.147134
0.137807
0.149089
0.278768
0.141447
0.338436
0.138825
0.233115
0.143647
0.123569
0.145836
-0.0664707
0.142144
-0.213392
0.131403
-0.344781
0.131907
-0.40632
0.135297
0.0251699
0.200446
0.121484
-0.0330682
0.116171
-0.0331205
0.111274
-0.032531
0.107302
-0.0314438
0.104872
-0.0292511
0.104394
-0.0253138
0.105997
-0.0195573
0.109732
-0.0117255
0.115699
-0.00127953
0.12261
0.0116334
0.129001
0.0239292
0.134745
0.0356379
0.141359
0.0485535
0.149637
0.0621512
0.159615
0.0725567
0.170712
0.0790805
0.182876
0.0821413
0.19456
0.0742938
0.200747
0.0477093
0.198073
0.00793034
0.186335
-0.0309161
0.17073
-0.0626475
0.155354
-0.0863323
0.141905
-0.102343
0.130553
-0.112961
0.12149
-0.120231
0.113987
-0.122297
0.107061
-0.121313
0.100891
-0.120181
0.0960268
-0.114776
0.0935541
-0.0970802
0.0943957
-0.066417
0.0987116
-0.0348987
0.108206
-0.0110923
0.126989
0.00998802
0.154967
0.061348
0.185138
0.150881
0.206884
0.256518
0.214079
0.310136
0.208177
0.278026
0.191935
0.170404
0.169001
0.0205215
0.149405
-0.12505
0.142185
-0.200928
0.135192
-0.18538
0.122134
-0.192372
0.114535
-0.195445
0.121722
-0.17349
0.137335
-0.034193
0.149448
0.125693
0.152942
0.275275
0.145176
0.346202
0.142091
0.2362
0.147062
0.118599
0.149212
-0.0686202
0.145415
-0.209595
0.13401
-0.333376
0.134079
-0.406389
0.138464
0.020785
0.203429
0.171992
-0.0268032
-0.178257
0.166663
-0.0277914
0.161488
-0.0273556
0.156193
-0.0261487
0.150917
-0.0239759
0.145996
-0.0203921
0.141706
-0.0152677
0.138462
-0.00848198
0.136789
0.000394279
0.13711
0.0113119
0.138378
0.022661
0.139758
0.0342579
0.141781
0.046531
0.146024
0.0579079
0.152886
0.0656945
0.162387
0.0695803
0.176122
0.068406
0.193673
0.0567431
0.209143
0.0322388
0.216582
0.000490919
0.216071
-0.0304046
0.209887
-0.0564638
0.200964
-0.0774092
0.190961
-0.0923403
0.180531
-0.102531
0.170535
-0.110235
0.160926
-0.112688
0.15118
-0.111567
0.141841
-0.110842
0.132474
-0.10541
0.122759
-0.0873654
0.114531
-0.0581884
0.110774
-0.0311421
0.113232
-0.0135505
0.122822
0.000397935
0.137724
0.0464465
0.153534
0.13507
0.165757
0.244295
0.174119
0.301775
0.181083
0.271062
0.184346
0.167141
0.179679
0.0251886
0.171025
-0.116395
0.164746
-0.194649
0.15552
-0.176153
0.141149
-0.178002
0.128487
-0.182783
0.126544
-0.171547
0.132254
-0.0399027
0.135821
0.122126
0.135207
0.275889
0.130409
0.351
0.132862
0.233748
0.142329
0.109132
0.147515
-0.0738067
0.144455
-0.206535
0.132231
-0.321152
0.127154
-0.401312
0.128378
0.0195612
0.206249
0.181556
-0.0218183
-0.186541
0.176556
-0.0227913
0.171715
-0.022514
0.166978
-0.021412
0.162405
-0.0194036
0.158257
-0.0162434
0.154764
-0.0117749
0.152203
-0.00592089
0.150978
0.00161871
0.151588
0.0107026
0.153791
0.0204578
0.157348
0.030701
0.162495
0.041384
0.169585
0.0508176
0.178322
0.0569572
0.188833
0.0590702
0.201675
0.0555634
0.214948
0.0434701
0.224337
0.0228498
0.227318
-0.00249023
0.224404
-0.0274903
0.217487
-0.0495467
0.208359
-0.0682808
0.198446
-0.082428
0.188212
-0.092296
0.178344
-0.100367
0.169076
-0.10342
0.15951
-0.102001
0.150154
-0.101486
0.141689
-0.0969442
0.133573
-0.0792494
0.126238
-0.0508531
0.122188
-0.0270927
0.123267
-0.0146294
0.131266
-0.00760085
0.146184
0.031528
0.16396
0.117295
0.178446
0.229809
0.188486
0.291735
0.196525
0.263023
0.200218
0.163449
0.195877
0.0295295
0.185385
-0.105904
0.177229
-0.186493
0.167224
-0.166147
0.152502
-0.16328
0.13828
-0.168561
0.135655
-0.168922
0.142547
-0.0467946
0.147595
0.117077
0.147743
0.275741
0.143129
0.355614
0.145926
0.230951
0.156205
0.0988533
0.161011
-0.0786132
0.157092
-0.202616
0.143083
-0.307143
0.13702
-0.395249
0.138728
0.0178534
0.208967
0.192165
-0.0175755
-0.196408
0.187573
-0.018199
0.183151
-0.0180922
0.178904
-0.0171654
0.174872
-0.0153716
0.171259
-0.01263
0.168278
-0.0087934
0.166138
-0.00378099
0.165258
0.00249797
0.166002
0.00995895
0.168422
0.018038
0.172599
0.0265242
0.178786
0.0351966
0.186904
0.0426992
0.196388
0.0474734
0.206944
0.048514
0.218091
0.044417
0.227915
0.0336457
0.233847
0.0169178
0.234856
-0.00349882
0.231599
-0.0242337
0.225328
-0.0432757
0.217177
-0.06013
0.208298
-0.0735482
0.198882