/*--------------------------------*- C++ -*----------------------------------*\
| =========                 |                                                 |
| \\      /  F ield         | OpenFOAM: The Open Source CFD Toolbox           |
|  \\    /   O peration     | Version:  2312                                  |
|   \\  /    A nd           | Website:  www.openfoam.com                      |
|    \\/     M anipulation  |                                                 |
\*---------------------------------------------------------------------------*/
FoamFile
{
    version     2.0;
    format      ascii;
    arch        "LSB;label=32;scalar=64";
    class       volVectorField;
    location    "137.6";
    object      U;
}
// * * * * * * * * * * * * * * * * * * * * * * * * * * * * * * * * * * * * * //

dimensions      [0 1 -1 0 0 0 0];

internalField   nonuniform List<vector> 
5478
(
(-0.0378408 0.0217025 -7.30487e-20)
(-0.0727978 0.0343922 0)
(-0.0664768 0.0330224 1.09768e-19)
(0.00204512 0.0295399 -1.90801e-19)
(0.147195 0.0279007 1.21965e-19)
(0.360994 0.030042 -3.77986e-20)
(0.609976 0.0380277 -6.05865e-20)
(0.855453 0.049225 0)
(1.06667 0.0607654 0)
(1.2251 0.0650941 7.60264e-20)
(1.32036 0.0624498 -3.40843e-20)
(1.35895 0.050729 -5.88049e-20)
(1.35217 0.0214236 -2.36563e-20)
(1.31497 0.0164022 0)
(1.29678 -0.0437005 6.71049e-20)
(-0.0481916 0.0286597 1.4674e-19)
(-0.0661285 0.0404162 0)
(-0.00763768 0.0342922 0)
(0.147899 0.0289127 -9.62529e-20)
(0.394467 0.0335268 1.26211e-19)
(0.678587 0.0484524 3.51789e-20)
(0.940261 0.0676501 -5.90951e-20)
(1.14118 0.0842968 5.23965e-20)
(1.26758 0.0920196 1.27624e-19)
(1.32393 0.0894372 -1.11468e-19)
(1.33179 0.0782173 2.01448e-21)
(1.3147 0.058431 0)
(1.29712 0.0440633 2.36161e-20)
(1.2932 0.0220845 0)
(1.29102 -9.47128e-05 0)
(-0.0509713 0.0274454 -4.15454e-22)
(-0.0355716 0.0338615 -6.90507e-20)
(0.102792 0.028982 4.38134e-22)
(0.369308 0.0372083 0)
(0.691371 0.061532 -4.29633e-20)
(0.975642 0.0898381 3.60879e-20)
(1.1728 0.111024 3.00429e-20)
(1.27763 0.119438 0)
(1.31208 0.115948 -4.26906e-20)
(1.31043 0.105177 3.59496e-20)
(1.29949 0.0901164 3.02853e-20)
(1.29351 0.0783049 0)
(1.2896 0.0596391 0)
(1.27549 0.0495926 -6.50239e-20)
(1.253 0.0295417 5.79023e-20)
(-0.0446492 0.0204492 -8.09485e-20)
(0.0296774 0.0183875 6.80975e-20)
(0.281722 0.0283626 -5.87299e-20)
(0.641497 0.0654864 5.1858e-20)
(0.962964 0.107879 8.64302e-20)
(1.17344 0.136949 -7.20704e-20)
(1.27533 0.147739 -3.00247e-20)
(1.30626 0.144595 2.3252e-20)
(1.3071 0.134829 -2.23237e-20)
(1.30054 0.122249 0)
(1.29276 0.110894 0)
(1.27952 0.0949368 -4.38074e-20)
(1.26097 0.0837401 5.71132e-20)
(1.24434 0.0682544 -3.21754e-20)
(1.23586 0.0503424 0)
(-0.0262396 0.0107453 4.10483e-20)
(0.143312 0.00639347 3.43439e-20)
(0.51849 0.0519973 -1.24007e-19)
(0.896686 0.115315 1.84169e-21)
(1.14592 0.159081 -1.25334e-21)
(1.26552 0.176654 -1.33798e-21)
(1.30459 0.176268 2.89011e-20)
(1.3084 0.167704 2.42261e-20)
(1.29924 0.1559 1.74569e-20)
(1.28473 0.143572 -2.7428e-21)
(1.26735 0.128923 -3.9598e-20)
(1.25242 0.116485 0)
(1.24193 0.102268 1.80057e-20)
(1.23164 0.087748 -1.34753e-20)
(1.21646 0.0785168 2.39822e-20)
(0.0101595 0.00104396 -8.95704e-20)
(0.311119 0.0153465 9.65453e-20)
(0.757602 0.10266 -3.33e-20)
(1.08154 0.172887 2.47862e-20)
(1.24422 0.205038 -4.59515e-20)
(1.30161 0.210825 -3.39133e-20)
(1.30893 0.203967 1.1083e-21)
(1.2969 0.191964 0)
(1.27988 0.178447 3.5358e-20)
(1.26392 0.163823 -3.14431e-20)
(1.25135 0.150545 1.25179e-20)
(1.23896 0.136076 0)
(1.22406 0.123298 7.52859e-21)
(1.2087 0.109884 -1.3447e-20)
(1.19729 0.097793 0)
(0.0706035 -0.00276438 -1.12061e-20)
(0.509399 0.0573211 1.16923e-21)
(0.949789 0.168069 1.60656e-20)
(1.1958 0.230052 2.73234e-20)
(1.29027 0.248512 -2.08063e-20)
(1.3075 0.244704 3.4855e-20)
(1.29581 0.232235 -7.90842e-21)
(1.2781 0.217346 0)
(1.26124 0.201825 -2.068e-20)
(1.24548 0.186914 1.49012e-21)
(1.22922 0.171466 1.70108e-20)
(1.21414 0.157233 0)
(1.20225 0.142981 -1.08957e-20)
(1.19217 0.128649 0)
(1.17997 0.120669 6.56113e-21)
(0.154725 0.00740918 -1.25761e-20)
(0.694076 0.126849 0)
(1.08523 0.240236 1.73085e-20)
(1.25714 0.286972 0)
(1.30128 0.291341 0)
(1.29492 0.278843 0)
(1.27583 0.261936 -6.68268e-21)
(1.25572 0.24415 0)
(1.23692 0.226614 4.16981e-21)
(1.22025 0.209114 0)
(1.20676 0.192793 -5.27051e-21)
(1.19479 0.176869 0)
(1.18241 0.162083 3.36303e-21)
(1.17029 0.148469 0)
(1.16026 0.1373 2.14657e-21)
(-0.00813237 -0.0468276 -1.1402e-20)
(-0.0406172 -0.0137337 0)
(-0.0895663 0.0402396 1.78332e-20)
(-0.140338 0.0903711 0)
(-0.188551 0.14278 0)
(-0.232125 0.20305 0)
(-0.268378 0.270702 -1.10276e-20)
(-0.294069 0.343019 0)
(-0.305875 0.415506 8.79782e-21)
(-0.30081 0.481803 0)
(-0.276169 0.534021 -1.42853e-20)
(-0.231625 0.562751 0)
(-0.166205 0.561545 1.20635e-20)
(-0.0799551 0.526259 0)
(0.0293164 0.455171 1.05337e-20)
(-0.00379887 -0.0230115 5.54928e-20)
(-0.0314363 0.028066 -3.85759e-20)
(-0.0720662 0.0910314 1.54787e-20)
(-0.114098 0.143276 5.92311e-20)
(-0.152016 0.191962 -3.51815e-23)
(-0.182312 0.244044 -4.69147e-20)
(-0.201871 0.2993 3.17754e-20)
(-0.207487 0.354605 0)
(-0.195892 0.406008 2.45262e-20)
(-0.164328 0.447501 6.0145e-22)
(-0.112202 0.47272 -1.264e-20)
(-0.0353237 0.477044 0)
(0.0586156 0.452272 -3.5076e-20)
(0.167835 0.390312 0)
(0.309184 0.314124 -5.43188e-20)
(-0.000855913 -0.00997962 8.35773e-20)
(-0.0227451 0.050932 1.81023e-20)
(-0.0510278 0.122787 -3.32296e-20)
(-0.0784049 0.179033 -8.50147e-20)
(-0.0997574 0.223892 4.93596e-20)
(-0.11088 0.266057 4.28366e-20)
(-0.108341 0.307638 -7.42091e-20)
(-0.0889536 0.346338 0)
(-0.0509649 0.377735 -6.03886e-20)
(0.00756731 0.398355 5.36885e-20)
(0.087872 0.402335 2.39059e-20)
(0.180191 0.380745 0)
(0.307038 0.351002 2.30006e-20)
(0.408336 0.267833 -4.12198e-20)
(0.574259 0.183715 0)
(0.0015803 -0.00727134 3.92307e-20)
(-0.0166804 0.0526826 -1.06145e-19)
(-0.0350348 0.128643 1.22359e-19)
(-0.0477084 0.189538 -1.05358e-19)
(-0.0509678 0.232849 -4.46798e-20)
(-0.0415315 0.266113 3.85382e-20)
(-0.0166238 0.293835 3.62407e-20)
(0.0257721 0.315825 2.91977e-20)
(0.0872722 0.330548 -8.07662e-20)
(0.1632 0.3288 -1.39541e-21)
(0.267237 0.324702 2.07707e-20)
(0.359509 0.28232 0)
(0.509419 0.248099 3.90238e-20)
(0.597673 0.173574 1.22396e-19)
(0.792598 0.084819 -7.21492e-20)
(0.00310766 -0.00936821 -7.6581e-22)
(-0.0153679 0.0399785 6.66798e-20)
(-0.030788 0.109509 -5.77607e-20)
(-0.0345907 0.169084 5.18311e-20)
(-0.0239132 0.210087 8.70116e-20)
(0.00252088 0.236188 -7.46276e-20)
(0.0453534 0.252171 -3.09214e-20)
(0.104825 0.258603 -8.48211e-20)
(0.180846 0.261435 7.52974e-20)
(0.273118 0.24381 0)
(0.385912 0.234529 0)
(0.502054 0.18568 8.06052e-20)
(0.673597 0.152311 -1.88045e-19)
(0.781407 0.0773652 6.88628e-20)
(1.02515 0.00108247 0)
(0.00134366 -0.00987628 1.23366e-22)
(-0.0219486 0.0246469 -6.61231e-20)
(-0.0416927 0.0768731 1.7114e-19)
(-0.0448553 0.124133 -4.93806e-20)
(-0.0282058 0.156034 -4.23661e-20)
(0.00805217 0.173522 3.61197e-20)
(0.0641565 0.180299 3.09415e-20)
(0.142293 0.178374 5.13149e-20)
(0.244937 0.171548 -9.01919e-20)
(0.377016 0.153393 4.04258e-20)
(0.52797 0.134792 3.73493e-20)
(0.709472 0.0915725 0)
(0.898284 0.0619021 0)
(1.06969 -0.00878756 1.31119e-19)
(1.2819 -0.0564803 -1.16355e-19)
(-0.00712625 -0.00380814 -4.72783e-22)
(-0.0391535 0.0177129 0)
(-0.0656147 0.0474386 0)
(-0.070087 0.0747092 9.27941e-20)
(-0.0455789 0.0921523 -4.19823e-20)
(0.0121622 0.100177 3.37871e-20)
(0.107855 0.100315 5.67357e-20)
(0.243157 0.0959269 -5.03042e-20)
(0.415226 0.0853189 4.46772e-20)
(0.610062 0.0772534 -4.04655e-20)
(0.816964 0.0549715 -1.49582e-21)
(1.02391 0.0384668 0)
(1.19287 0.00795499 2.96881e-20)
(1.35029 -0.034399 0)
(1.42166 -0.0628387 0)
(-0.0223158 0.00863702 -7.20421e-20)
(-0.0611442 0.0227713 0)
(-0.0829868 0.032904 -1.08538e-19)
(-0.0687164 0.0409764 1.88005e-19)
(-0.00438404 0.0456928 -1.99802e-19)
(0.118721 0.0466338 -3.12548e-20)
(0.295394 0.0456835 5.89602e-20)
(0.508929 0.0460781 0)
(0.737054 0.0463661 0)
(0.954169 0.0488304 -7.88381e-20)
(1.14551 0.0395283 -3.65315e-20)
(1.28522 0.038056 6.30473e-20)
(1.37644 0.00441444 -2.97436e-20)
(1.4081 -0.010181 0)
(1.36925 -0.0472013 -8.31223e-20)
(0.168578 0.308846 0)
(0.432666 -0.104191 5.048e-21)
(0.666781 -0.498571 -4.65393e-21)
(0.691026 -0.767571 0)
(0.732641 -0.737137 0)
(0.694976 -0.702097 -8.43374e-23)
(0.505052 -0.64854 0)
(0.466399 -0.436307 0)
(0.669553 0.0801055 6.87534e-23)
(0.803346 0.362686 0)
(0.913874 0.424996 0)
(0.885957 0.596468 -9.60193e-23)
(0.812553 0.526284 0)
(0.824557 0.474499 -6.82101e-23)
(0.924389 0.132726 -7.30182e-23)
(0.946088 -0.184233 0)
(1.03664 -0.385557 -5.87164e-22)
(1.01447 -0.638976 6.92124e-22)
(1.04349 -0.390913 0)
(0.99451 -0.163846 4.90588e-22)
(1.07633 0.241483 -5.89859e-22)
(1.10936 0.63717 1.18215e-22)
(1.05803 0.387859 -2.11918e-22)
(1.10808 0.121102 2.02491e-22)
(1.13724 -0.241359 -2.06899e-22)
(1.05693 -0.723287 0)
(1.16948 -0.1442 -2.14673e-22)
(1.13024 0.621968 2.05268e-22)
(1.08603 0.297813 -1.46115e-22)
(1.01123 -0.264857 0)
(1.00677 -0.154112 -7.31811e-23)
(0.996019 0.0772233 0)
(0.977913 0.0423307 -4.36176e-23)
(0.960237 -0.0129877 -1.50592e-23)
(0.960045 -0.00526112 1.36237e-24)
(0.960066 7.50519e-05 -9.66387e-24)
(0.95225 -0.000210759 0)
(0.947971 0.000834751 2.42139e-24)
(0.443075 0.163966 2.02449e-20)
(0.670831 -0.245449 -1.69458e-22)
(0.88375 -0.581059 -1.51657e-20)
(0.884924 -0.776004 1.44639e-20)
(0.808094 -0.732467 0)
(0.75143 -0.646849 8.49895e-23)
(0.569282 -0.580178 -1.31473e-22)
(0.466157 -0.469196 0)
(0.603159 -0.0173112 -6.92704e-23)
(0.775621 0.284765 0)
(0.871913 0.40278 0)
(0.83901 0.609795 9.67147e-23)
(0.734567 0.533642 0)
(0.777395 0.445108 2.41229e-21)
(0.928333 0.111689 -2.01387e-21)
(0.966295 -0.20352 2.63708e-21)
(1.07351 -0.398502 -2.51712e-21)
(1.02628 -0.643058 -1.32313e-22)
(1.06257 -0.388126 0)
(0.993761 -0.172059 0)
(1.04784 0.218649 -1.30454e-22)
(1.10621 0.630385 9.881e-22)
(1.04188 0.389246 -1.59798e-21)
(1.10508 0.114762 7.36448e-22)
(1.16328 -0.234469 5.81796e-22)
(1.04908 -0.721155 0)
(1.14315 -0.155977 4.9058e-22)
(1.12337 0.621368 0)
(1.1037 0.307288 1.46631e-22)
(1.03184 -0.257237 -2.88222e-22)
(1.01154 -0.155613 4.26824e-22)
(1.00047 0.0794111 -4.33693e-23)
(0.983695 0.04494 7.76385e-23)
(0.968109 -0.0120109 4.33471e-24)
(0.968891 -0.00520128 1.72192e-23)
(0.966022 0.000672013 -8.34743e-24)
(0.958347 0.000460606 -7.10365e-25)
(0.954083 0.00107665 6.91226e-25)
(0.684587 0.0639239 4.34508e-20)
(0.898444 -0.315628 -8.15257e-20)
(1.03894 -0.618542 8.48836e-21)
(1.00774 -0.749266 2.87537e-20)
(0.873272 -0.692288 2.27015e-22)
(0.797489 -0.591887 -1.58664e-22)
(0.654065 -0.522944 1.33728e-22)
(0.55328 -0.487646 -2.0898e-22)
(0.586945 -0.119811 0)
(0.766657 0.209625 6.39564e-21)
(0.839537 0.396268 -6.10064e-21)
(0.833311 0.64908 -1.93668e-22)
(0.705381 0.564982 0)
(0.755152 0.412192 -4.87261e-21)
(0.934961 0.0930902 4.4968e-21)
(0.991944 -0.210611 -2.62352e-21)
(1.10452 -0.394329 2.5032e-21)
(1.02774 -0.638325 2.40057e-21)
(1.07279 -0.390307 -2.03222e-21)
(0.994831 -0.178022 0)
(1.01283 0.194531 0)
(1.09724 0.625294 1.66277e-21)
(1.02606 0.396829 -1.58731e-21)
(1.09767 0.111973 -1.47616e-21)
(1.18055 -0.219909 -3.19064e-22)
(1.04029 -0.71083 1.61014e-21)
(1.10777 -0.174605 3.83781e-23)
(1.11206 0.617177 -9.71296e-22)
(1.11628 0.321667 1.39305e-21)
(1.0481 -0.242717 -1.22935e-21)
(1.01329 -0.155502 5.65633e-23)
(1.00217 0.0810113 -1.2887e-22)
(0.986843 0.0476692 5.75219e-23)
(0.97373 -0.0109402 -5.49984e-23)
(0.975665 -0.00499977 -1.10439e-23)
(0.96985 0.00145129 -6.11239e-24)
(0.9622 0.00113389 1.72248e-23)
(0.95799 0.00131823 2.44309e-24)
(0.890544 -0.026499 0)
(1.12216 -0.347476 3.67757e-20)
(1.1957 -0.595112 -3.61445e-20)
(1.11507 -0.685204 0)
(0.946437 -0.642781 -2.33323e-22)
(0.846871 -0.545293 1.63021e-22)
(0.733331 -0.475799 0)
(0.665681 -0.489517 1.83991e-23)
(0.642243 -0.210251 -1.3454e-22)
(0.806243 0.128262 0)
(0.852794 0.345967 -6.579e-21)
(0.811386 0.640253 6.47245e-21)
(0.655181 0.58296 -3.53312e-22)
(0.736701 0.378413 -5.23664e-21)
(0.942475 0.0714102 4.99249e-21)
(1.01539 -0.221323 3.32968e-22)
(1.12703 -0.39007 0)
(1.02644 -0.631511 -2.77157e-22)
(1.07502 -0.398933 4.46817e-21)
(0.998076 -0.186556 6.69463e-22)
(0.979114 0.159896 -3.48897e-23)
(1.07332 0.604198 -3.94554e-21)
(1.00426 0.40012 -2.21972e-21)
(1.08422 0.109886 2.66829e-21)
(1.18786 -0.20455 -3.40904e-22)
(1.03445 -0.69626 0)
(1.06781 -0.198134 -5.41014e-22)
(1.09006 0.598149 9.84145e-22)
(1.11907 0.329483 -1.3039e-21)
(1.05934 -0.227243 1.14157e-21)
(1.0124 -0.155624 -1.68921e-22)
(1.00118 0.081179 0)
(0.987323 0.050029 -5.59774e-23)
(0.977092 -0.0100312 1.01362e-22)
(0.980293 -0.00475637 3.3692e-23)
(0.971517 0.00238559 3.34942e-23)
(0.963845 0.00180293 -1.72369e-23)
(0.959748 0.00155582 -8.20062e-28)
(1.11571 -0.114277 5.01371e-22)
(1.30907 -0.369468 1.10671e-21)
(1.31113 -0.539159 0)
(1.1837 -0.589658 0)
(1.02036 -0.570725 0)
(0.899099 -0.502494 0)
(0.814184 -0.438674 7.06803e-21)
(0.739542 -0.481793 -1.23182e-20)
(0.717777 -0.301299 5.58106e-21)
(0.871034 0.0408244 0)
(0.84516 0.345377 -6.61434e-21)
(0.768403 0.710308 6.50457e-21)
(0.666733 0.629373 6.31968e-21)
(0.764914 0.352504 -5.31133e-21)
(0.964737 0.0462113 5.62661e-21)
(1.03908 -0.224659 -5.70367e-21)
(1.14311 -0.371841 -2.87267e-22)
(1.02958 -0.615956 -4.42986e-21)
(1.06839 -0.412024 4.22152e-21)
(0.995217 -0.192681 6.07852e-22)
(0.938046 0.131295 6.91454e-22)
(1.04577 0.594758 2.57213e-21)
(0.988614 0.410741 -2.98775e-21)
(1.07106 0.111443 -6.02593e-22)
(1.18653 -0.1837 -2.652e-22)
(1.02879 -0.677283 -4.0119e-22)
(1.02165 -0.224774 0)
(1.06695 0.582783 0)
(1.11791 0.342882 0)
(1.06654 -0.206608 0)
(1.00947 -0.15405 4.61535e-22)
(0.998138 0.0809614 -2.76743e-22)
(0.985546 0.052411 1.08941e-22)
(0.978453 -0.00914108 -3.03701e-22)
(0.982867 -0.00437598 3.3257e-23)
(0.97113 0.00350843 6.46498e-24)
(0.96349 0.00247978 -2.17394e-23)
(0.959568 0.00179168 -6.19547e-24)
(1.3427 -0.164305 -5.2773e-22)
(1.41793 -0.336892 5.81286e-20)
(1.34953 -0.447802 -5.58629e-20)
(1.19994 -0.496625 -3.56965e-20)
(1.0724 -0.504056 3.39953e-20)
(0.944919 -0.46412 1.90267e-20)
(0.880499 -0.39829 -1.77118e-20)
(0.795371 -0.453854 1.93741e-22)
(0.730423 -0.38082 -1.53956e-22)
(0.902195 -0.0418053 0)
(0.876828 0.272486 -2.20047e-22)
(0.79216 0.661095 1.38884e-20)
(0.665237 0.654177 -1.32209e-20)
(0.77527 0.358203 -3.76626e-22)
(0.981901 0.0504665 0)
(1.0627 -0.217974 -5.50072e-21)
(1.15604 -0.349986 9.79059e-21)
(1.03896 -0.596886 -4.09931e-21)
(1.0572 -0.428078 0)
(0.98724 -0.20206 4.94452e-21)
(0.902885 0.090723 -8.3261e-22)
(1.00281 0.557533 -4.93817e-21)
(0.959571 0.414877 -2.18281e-21)
(1.05535 0.116571 2.15479e-21)
(1.1777 -0.161911 -2.59558e-21)
(1.02181 -0.654031 -1.55766e-21)
(0.975545 -0.253422 4.52983e-21)
(1.03308 0.547822 -2.79184e-21)
(1.10467 0.349251 2.65469e-21)
(1.06808 -0.187736 -4.42818e-22)
(1.0048 -0.152933 4.21057e-22)
(0.992902 0.0792452 0)
(0.9815 0.0543221 1.06194e-22)
(0.977943 -0.0084317 -1.90111e-23)
(0.983494 -0.00398785 0)
(0.968886 0.00475764 -3.33269e-23)
(0.961473 0.00313318 1.42131e-23)
(0.957781 0.00201613 -2.16917e-24)
(1.42764 -0.150456 0)
(1.40283 -0.260747 0)
(1.32456 -0.346795 -1.73922e-22)
(1.20239 -0.404854 0)
(1.09979 -0.442957 0)
(0.989814 -0.431889 1.95025e-20)
(0.913445 -0.367619 -1.8559e-20)
(0.864014 -0.398835 1.24345e-20)
(0.712052 -0.445582 -1.18418e-20)
(0.874362 -0.158406 0)
(0.885628 0.240772 -2.723e-22)
(0.752189 0.708776 2.33369e-22)
(0.681889 0.687129 -1.36397e-20)
(0.823929 0.335376 -2.98291e-22)
(1.01255 0.0280724 1.24193e-20)
(1.08311 -0.222953 1.85015e-22)
(1.16432 -0.326153 -1.38218e-22)
(1.04631 -0.571328 8.42615e-21)
(1.04158 -0.442695 -8.2638e-21)
(0.968597 -0.210972 0)
(0.862232 0.0653584 0)
(0.962139 0.546195 -2.70716e-22)
(0.940114 0.421354 0)
(1.0467 0.118376 2.05936e-21)
(1.16838 -0.136153 6.2107e-22)
(1.01057 -0.625434 -2.14508e-21)
(0.92801 -0.282913 -5.90188e-21)
(1.00311 0.524242 3.92317e-21)
(1.09171 0.359174 -1.5112e-22)
(1.06699 -0.164253 0)
(0.999812 -0.150295 -2.99398e-22)
(0.986748 0.077759 2.83891e-22)
(0.976057 0.0562205 6.07093e-23)
(0.975972 -0.00786328 2.94764e-23)
(0.982402 -0.00340156 -4.22148e-23)
(0.965145 0.00618369 1.22148e-23)
(0.958242 0.00378349 0)
(0.9548 0.00223731 4.80383e-24)
(1.35684 -0.103907 5.09771e-20)
(1.32803 -0.179913 4.79131e-20)
(1.28779 -0.2648 -2.89837e-21)
(1.21484 -0.328051 -7.56197e-20)
(1.12661 -0.386724 3.34863e-20)
(1.03236 -0.403574 -1.81164e-22)
(0.94091 -0.359464 0)
(0.916058 -0.349197 -1.05877e-22)
(0.754838 -0.433716 -9.39682e-23)
(0.770329 -0.27763 0)
(0.81184 0.0790197 -1.77862e-20)
(0.740959 0.60224 1.6865e-20)
(0.683866 0.714803 2.13242e-22)
(0.802589 0.404976 1.28264e-20)
(1.02102 0.0766733 -1.21928e-20)
(1.10225 -0.195167 1.81054e-22)
(1.17866 -0.293216 1.46866e-22)
(1.05213 -0.538297 0)
(1.02351 -0.451721 9.79429e-21)
(0.945632 -0.22061 -9.2744e-21)
(0.82067 0.0104316 -5.80984e-21)
(0.908979 0.492388 2.75363e-21)
(0.898802 0.428502 2.86398e-21)
(1.0341 0.135248 -1.85541e-21)
(1.16422 -0.104704 -2.47422e-22)
(0.996014 -0.588923 6.06634e-21)
(0.889262 -0.317307 -2.98262e-21)
(0.963147 0.475787 3.06821e-21)
(1.0646 0.366333 -2.27986e-21)
(1.06042 -0.1408 0)
(0.994159 -0.147159 0)
(0.978952 0.0743613 0)
(0.968886 0.0576534 4.03983e-23)
(0.972575 -0.00740664 -5.71633e-23)
(0.979762 -0.00291672 4.49945e-23)
(0.960328 0.00756512 -2.95862e-23)
(0.954254 0.00431719 -1.21415e-23)
(0.951043 0.00242125 0)
(1.3036 -0.0671255 0)
(1.30248 -0.12647 0)
(1.27021 -0.196279 0)
(1.21362 -0.22959 0)
(1.15116 -0.274932 0)
(1.06983 -0.31524 0)
(0.98649 -0.292082 0)
(0.974973 -0.261877 0)
(0.845378 -0.381684 0)
(0.680583 -0.329717 0)
(0.694416 0.0290449 0)
(0.710733 0.58401 0)
(0.665882 0.703963 0)
(0.895408 0.340564 0)
(1.08917 0.0439147 0)
(1.11844 -0.187781 0)
(1.19685 -0.241286 0)
(1.05348 -0.493401 0)
(1.00514 -0.474538 0)
(0.908045 -0.233921 0)
(0.795939 -7.53108e-05 0)
(0.861279 0.481398 0)
(0.851701 0.419976 0)
(1.03835 0.121151 0)
(1.17733 -0.0795005 0)
(0.97671 -0.566594 0)
(0.857234 -0.337042 0)
(0.926907 0.443775 0)
(1.04224 0.372554 0)
(1.05414 -0.125617 0)
(0.986977 -0.141901 0)
(0.970105 0.0737652 0)
(0.960154 0.0596602 0)
(0.967294 -0.00706595 0)
(0.974865 -0.00183436 0)
(0.953695 0.00969159 0)
(0.948871 0.00507525 0)
(0.945923 0.00270685 0)
(1.24075 -0.0609246 0)
(1.24468 -0.128162 0)
(1.20995 -0.179092 0)
(1.15376 -0.220436 0)
(1.10251 -0.284492 0)
(1.02166 -0.2742 0)
(0.938879 -0.283334 0)
(0.88613 -0.292538 0)
(0.836068 -0.295332 0)
(0.668066 -0.18937 0)
(0.550552 0.0825824 0)
(0.585955 0.610411 0)
(0.697038 0.625192 0)
(1.02971 0.213146 0)
(1.15706 -0.0240277 0)
(1.15945 -0.223473 0)
(1.18367 -0.274652 0)
(1.0073 -0.467653 0)
(0.960083 -0.399555 0)
(0.817787 -0.161239 0)
(0.725291 0.0358289 0)
(0.787225 0.493841 0)
(0.81104 0.373619 0)
(1.04852 0.0553611 0)
(1.16157 -0.0973138 0)
(0.939679 -0.513149 0)
(0.806918 -0.296624 0)
(0.87521 0.439378 0)
(1.00648 0.340803 0)
(1.04306 -0.123308 0)
(0.970282 -0.127312 0)
(0.951884 0.0795271 0)
(0.946062 0.0589673 0)
(0.958493 -0.00934888 0)
(0.96608 -0.000709736 0)
(0.944404 0.0120883 0)
(0.941665 0.00555118 0)
(0.939259 0.00291366 0)
(1.19409 -0.0530924 0)
(1.2008 -0.0943879 0)
(1.17121 -0.142333 0)
(1.13964 -0.158367 0)
(1.09418 -0.192856 0)
(1.02288 -0.198845 0)
(0.99418 -0.184194 0)
(0.915769 -0.181357 0)
(0.825797 -0.221396 0)
(0.706918 -0.0983146 0)
(0.58209 0.0929464 0)
(0.618353 0.49981 0)
(0.888951 0.461101 0)
(1.16942 0.104059 0)
(1.20584 -0.0499414 0)
(1.17274 -0.197454 0)
(1.16498 -0.191091 0)
(1.02354 -0.389087 0)
(0.908507 -0.368131 0)
(0.713243 -0.126834 0)
(0.622304 0.0359972 0)
(0.698991 0.462689 0)
(0.812309 0.303615 0)
(1.05017 0.0162561 0)
(1.15438 -0.0687133 0)
(0.941115 -0.456846 0)
(0.737418 -0.291041 0)
(0.791872 0.401156 0)
(0.974323 0.306736 0)
(1.03543 -0.112451 0)
(0.949292 -0.115652 0)
(0.931779 0.0786017 0)
(0.933269 0.0571939 0)
(0.94845 -0.0108892 0)
(0.954532 0.00083352 0)
(0.934372 0.0144773 0)
(0.934145 0.00591411 0)
(0.932532 0.00316151 0)
(1.15426 -0.0405296 0)
(1.16087 -0.0790485 0)
(1.13746 -0.109755 0)
(1.10409 -0.130214 0)
(1.06993 -0.165756 0)
(1.00985 -0.163858 0)
(0.973827 -0.17137 0)
(0.928461 -0.150804 0)
(0.868894 -0.162176 0)
(0.772446 -0.0181519 0)
(0.73043 0.113918 0)
(0.800211 0.360946 0)
(1.06175 0.277308 0)
(1.21426 0.0321139 0)
(1.20954 -0.0269668 0)
(1.16326 -0.185368 0)
(1.08695 -0.197622 0)
(1.00776 -0.337668 0)
(0.831015 -0.25576 0)
(0.625955 -0.0331169 0)
(0.552783 0.0500251 0)
(0.627218 0.413988 0)
(0.858133 0.208882 0)
(1.04321 -0.0537976 0)
(1.12465 -0.0685074 0)
(0.946903 -0.371854 0)
(0.65788 -0.229811 0)
(0.68621 0.363864 0)
(0.961888 0.248856 0)
(1.02877 -0.109249 0)
(0.917379 -0.0970556 0)
(0.902855 0.0800856 0)
(0.917985 0.0538969 0)
(0.935853 -0.01358 0)
(0.939564 0.00216719 0)
(0.923556 0.0164676 0)
(0.926439 0.005825 0)
(0.926482 0.00327038 0)
(1.12014 -0.0331376 0)
(1.12654 -0.0597822 0)
(1.10616 -0.0860319 0)
(1.08708 -0.0977801 0)
(1.05606 -0.121569 0)
(1.01602 -0.113721 0)
(0.988667 -0.116029 0)
(0.945223 -0.0902196 0)
(0.911013 -0.098031 0)
(0.832399 0.0202226 0)
(0.860817 0.0756267 0)
(0.930932 0.230536 0)
(1.11956 0.183232 0)
(1.17619 0.0104653 0)
(1.15769 -0.0276417 0)
(1.14907 -0.140998 0)
(1.05744 -0.113019 0)
(1.03781 -0.253976 0)
(0.816707 -0.167573 0)
(0.671808 0.0298158 0)
(0.63176 0.0388816 0)
(0.663232 0.314929 0)
(0.957671 0.109678 0)
(1.03406 -0.0822346 0)
(1.09644 -0.0478284 0)
(0.984157 -0.290609 0)
(0.611099 -0.172724 0)
(0.627853 0.304568 0)
(0.982177 0.182271 0)
(1.0261 -0.0920203 0)
(0.880299 -0.0734441 0)
(0.871124 0.0774292 0)
(0.908627 0.0476294 0)
(0.926861 -0.0158474 0)
(0.924265 0.00371658 0)
(0.914331 0.0175993 0)
(0.920707 0.00509603 0)
(0.922862 0.00316805 0)
(1.09328 -0.0245511 0)
(1.10167 -0.0450836 0)
(1.08382 -0.0618552 0)
(1.07118 -0.0711083 0)
(1.04578 -0.0894117 0)
(1.01552 -0.0810434 0)
(0.995144 -0.0888326 0)
(0.961814 -0.061809 0)
(0.945954 -0.0652909 0)
(0.89804 0.0234517 0)
(0.942407 0.0410794 0)
(0.969443 0.145199 0)
(1.10109 0.0995158 0)
(1.12747 0.00630225 0)
(1.11332 0.0046715 0)
(1.10855 -0.125607 0)
(1.00745 -0.110608 0)
(1.02907 -0.20061 0)
(0.828426 -0.0747999 0)
(0.77968 0.0783245 0)
(0.802374 0.0461552 0)
(0.800896 0.238224 0)
(1.07009 0.0394055 0)
(1.03469 -0.105351 0)
(1.04372 -0.0523539 0)
(1.01893 -0.190288 0)
(0.624236 -0.076814 0)
(0.652975 0.219522 0)
(1.0143 0.0978152 0)
(1.01813 -0.0714294 0)
(0.857245 -0.0427239 0)
(0.859881 0.0698677 0)
(0.917498 0.0369193 0)
(0.929577 -0.0177068 0)
(0.916839 0.00559587 0)
(0.913911 0.0174118 0)
(0.92296 0.00346193 0)
(0.925623 0.00274951 0)
(1.07382 -0.0170615 0)
(1.0809 -0.0317359 0)
(1.06584 -0.0436011 0)
(1.05935 -0.0504011 0)
(1.03798 -0.0626969 0)
(1.01941 -0.0554271 0)
(1.00395 -0.0618149 0)
(0.980691 -0.0357563 0)
(0.97468 -0.0424691 0)
(0.945986 0.023888 0)
(0.980433 0.0170708 0)
(0.988574 0.0856398 0)
(1.07649 0.0594549 0)
(1.0748 -0.00123465 0)
(1.08044 -0.00125424 0)
(1.09526 -0.0888225 0)
(0.998826 -0.050857 0)
(1.01293 -0.138533 0)
(0.863444 -0.0255463 0)
(0.878789 0.073223 0)
(0.937999 0.027367 0)
(0.924784 0.160427 0)
(1.12569 -0.000491452 0)
(1.047 -0.0688822 0)
(0.9955 -0.0360966 0)
(1.04025 -0.124843 0)
(0.734649 -0.00238039 0)
(0.76902 0.133547 0)
(1.04508 0.0361673 0)
(1.01559 -0.0357138 0)
(0.879489 -0.0148021 0)
(0.891055 0.0552786 0)
(0.949795 0.0255301 0)
(0.950355 -0.0162151 0)
(0.929783 0.00854665 0)
(0.931846 0.0161732 0)
(0.940304 0.00167046 0)
(0.939943 0.00246822 0)
(1.05827 -0.0106388 0)
(1.06467 -0.0212547 0)
(1.05328 -0.0287718 0)
(1.05052 -0.0334999 0)
(1.03323 -0.042168 0)
(1.02368 -0.0353592 0)
(1.00951 -0.0427764 0)
(0.997512 -0.0205446 0)
(0.992186 -0.0297947 0)
(0.977733 0.0162737 0)
(1.00247 0.00406195 0)
(0.997175 0.0495808 0)
(1.05813 0.0266275 0)
(1.04916 -0.00267877 0)
(1.05807 0.00461055 0)
(1.05727 -0.0727562 0)
(0.999275 -0.0323969 0)
(1.00908 -0.100866 0)
(0.911711 -0.00202444 0)
(0.947691 0.0468121 0)
(0.993081 0.0145644 0)
(0.986163 0.119761 0)
(1.10391 -0.0241977 0)
(1.03151 -0.0404013 0)
(0.9879 -0.0351474 0)
(1.02542 -0.0866213 0)
(0.847132 0.0601441 0)
(0.903005 0.0802562 0)
(1.05342 -0.00662077 0)
(1.00622 -0.00580242 0)
(0.92614 0.00671841 0)
(0.942457 0.0433509 0)
(0.986775 0.0173079 0)
(0.976474 -0.012722 0)
(0.956498 0.0117782 0)
(0.962225 0.0147228 0)
(0.9673 0.000654048 0)
(0.963116 0.00276851 0)
(1.0472 -0.00586367 0)
(1.05261 -0.0125292 0)
(1.0439 -0.0181523 0)
(1.04375 -0.0206181 0)
(1.03007 -0.0276786 0)
(1.02611 -0.0213268 0)
(1.01453 -0.0293456 0)
(1.00878 -0.0110108 0)
(1.0052 -0.0216511 0)
(0.996842 0.0105643 0)
(1.01312 -0.00245826 0)
(1.00519 0.0252685 0)
(1.04525 0.0130435 0)
(1.02888 -0.00782635 0)
(1.04618 0.00392036 0)
(1.03846 -0.0535779 0)
(1.00583 -0.00828619 0)
(1.00751 -0.0654331 0)
(0.947634 0.0047778 0)
(0.985332 0.0312041 0)
(0.997003 0.00162682 0)
(1.0086 0.0851872 0)
(1.07908 -0.0299075 0)
(1.01773 -0.00810892 0)
(1.00513 -0.0165177 0)
(1.00106 -0.0659578 0)
(0.91828 0.07102 0)
(0.99445 0.0398277 0)
(1.04203 -0.0135847 0)
(0.998372 0.0211193 0)
(0.97252 0.0124452 0)
(0.987488 0.0312663 0)
(1.01603 0.013945 0)
(0.999371 -0.00728951 0)
(0.985882 0.0142277 0)
(0.994354 0.0133349 0)
(0.994987 0.000830923 0)
(0.988849 0.00369402 0)
(1.0389 -0.00216173 0)
(1.04342 -0.00623877 0)
(1.03707 -0.0106046 0)
(1.0381 -0.0115028 0)
(1.02818 -0.0174414 0)
(1.02673 -0.0118721 0)
(1.01864 -0.0194607 0)
(1.01506 -0.00571935 0)
(1.01405 -0.0153702 0)
(1.00652 0.00542704 0)
(1.02015 -0.00466978 0)
(1.00822 0.0110328 0)
(1.03726 0.00489538 0)
(1.02006 -0.00962272 0)
(1.0361 0.00516623 0)
(1.02532 -0.0400064 0)
(1.00622 -0.00115052 0)
(1.01272 -0.0441656 0)
(0.968094 0.00420598 0)
(1.0072 0.018962 0)
(0.996861 -0.00467322 0)
(1.0152 0.063168 0)
(1.05582 -0.0305992 0)
(1.00133 0.00324972 0)
(1.02466 -0.0105932 0)
(0.992662 -0.0500635 0)
(0.961056 0.0683513 0)
(1.02951 0.0184032 0)
(1.01819 -0.0122826 0)
(1.00367 0.0301156 0)
(1.00557 0.0110483 0)
(1.00977 0.0244418 0)
(1.02994 0.013503 0)
(1.01287 -0.00294515 0)
(1.00686 0.0143945 0)
(1.0173 0.0119771 0)
(1.01413 0.00189377 0)
(1.00865 0.00470112 0)
(1.03274 0.000383943 0)
(1.03627 -0.00179571 0)
(1.03214 -0.0053759 0)
(1.03321 -0.005358 0)
(1.0269 -0.0102513 0)
(1.02573 -0.00597869 0)
(1.02136 -0.0122631 0)
(1.01777 -0.00299221 0)
(1.01933 -0.010402 0)
(1.0116 0.00197388 0)
(1.02294 -0.00440922 0)
(1.01074 0.00263059 0)
(1.03116 0.00219182 0)
(1.01569 -0.0103715 0)
(1.0279 0.00394728 0)
(1.02058 -0.0277476 0)
(1.0068 0.00210139 0)
(1.01754 -0.0263268 0)
(0.980756 0.00252434 0)
(1.01798 0.0137188 0)
(0.996291 -0.00735455 0)
(1.01656 0.0429203 0)
(1.04242 -0.0232759 0)
(0.99533 0.00896765 0)
(1.03423 -0.00114764 0)
(0.988014 -0.0324064 0)
(0.984391 0.0518357 0)
(1.03861 0.00787325 0)
(1.00351 -0.00300571 0)
(1.01239 0.0313976 0)
(1.01814 0.00912497 0)
(1.01556 0.0199363 0)
(1.0345 0.0134096 0)
(1.01901 0.00106923 0)
(1.01711 0.0132672 0)
(1.02812 0.0108565 0)
(1.02322 0.00353146 0)
(1.01953 0.00566092 0)
(1.0282 0.00217847 0)
(1.03065 0.000947739 0)
(1.02842 -0.00173444 0)
(1.02887 -0.001634 0)
(1.02552 -0.00521628 0)
(1.02398 -0.0025752 0)
(1.02247 -0.00697968 0)
(1.01863 -0.00161696 0)
(1.02154 -0.00639419 0)
(1.01419 2.92287e-05 0)
(1.02329 -0.00337782 0)
(1.01268 -0.000875192 0)
(1.02609 0.000400665 0)
(1.01516 -0.00850327 0)
(1.02191 0.00243168 0)
(1.01882 -0.0176242 0)
(1.00677 0.00164469 0)
(1.0198 -0.0152373 0)
(0.990028 0.000767585 0)
(1.02114 0.00878598 0)
(1.00006 -0.00633054 0)
(1.01548 0.0278959 0)
(1.03194 -0.0150403 0)
(0.994879 0.00756381 0)
(1.03328 0.00138034 0)
(0.992189 -0.0191195 0)
(0.999091 0.0355746 0)
(1.0342 0.00561264 0)
(0.999017 0.00148215 0)
(1.0188 0.0246882 0)
(1.02087 0.00875506 0)
(1.01706 0.0160582 0)
(1.03415 0.0120583 0)
(1.02129 0.00391632 0)
(1.0213 0.0108712 0)
(1.03099 0.00948274 0)
(1.02612 0.0049033 0)
(1.02403 0.00607538 0)
(1.02464 0.00334383 0)
(1.02627 0.00250819 0)
(1.02522 0.000686505 0)
(1.02533 0.000499392 0)
(1.02374 -0.00174725 0)
(1.02221 -0.000633118 0)
(1.02199 -0.00321122 0)
(1.0187 -0.000787858 0)
(1.02145 -0.00336867 0)
(1.0157 -0.000633261 0)
(1.02196 -0.00217261 0)
(1.01423 -0.00178297 0)
(1.02233 -0.00040115 0)
(1.0152 -0.00580396 0)
(1.0183 0.000610528 0)
(1.01759 -0.0101083 0)
(1.00819 0.000394026 0)
(1.01956 -0.00774811 0)
(0.997917 -3.17841e-05 0)
(1.02039 0.00573957 0)
(1.00385 -0.00365973 0)
(1.01427 0.0162 0)
(1.02468 -0.0072598 0)
(0.999515 0.00581948 0)
(1.0285 0.00387772 0)
(0.998077 -0.00800621 0)
(1.00646 0.0223588 0)
(1.02794 0.00619202 0)
(1.00229 0.00501818 0)
(1.02054 0.0195026 0)
(1.0196 0.0101859 0)
(1.01812 0.0127634 0)
(1.03138 0.0112382 0)
(1.02193 0.00669038 0)
(1.02289 0.00886641 0)
(1.03017 0.00868747 0)
(1.02624 0.00634989 0)
(1.0254 0.00653524 0)
(1.02166 0.0040099 0)
(1.02278 0.00326536 0)
(1.02237 0.00223057 0)
(1.02243 0.00163324 0)
(1.02164 0.000546523 0)
(1.02052 0.000440557 0)
(1.02057 -0.000625589 0)
(1.01832 -0.000186276 0)
(1.02019 -0.00115882 0)
(1.01634 -0.000543115 0)
(1.02009 -0.00110334 0)
(1.01509 -0.00131224 0)
(1.01955 -0.000769496 0)
(1.01526 -0.00313333 0)
(1.01642 -0.000589663 0)
(1.01648 -0.00481938 0)
(1.01005 -0.000545079 0)
(1.01798 -0.00328449 0)
(1.00395 -0.000206002 0)
(1.01827 0.00342752 0)
(1.00731 -0.000999333 0)
(1.01376 0.00871245 0)
(1.01943 -0.00157888 0)
(1.00432 0.00384172 0)
(1.02284 0.00423328 0)
(1.00401 -0.00172289 0)
(1.01081 0.01335 0)
(1.02228 0.00753306 0)
(1.00654 0.00523858 0)
(1.02023 0.0142356 0)
(1.01846 0.0108325 0)
(1.01898 0.00959224 0)
(1.02792 0.0101715 0)
(1.02211 0.00799995 0)
(1.02352 0.00664408 0)
(1.02846 0.00779936 0)
(1.02564 0.00702966 0)
(1.02576 0.00643687 0)
(1.01915 0.00426297 0)
(1.01995 0.00354532 0)
(1.01982 0.00309486 0)
(1.01994 0.00219591 0)
(1.0195 0.00195835 0)
(1.01887 0.00105567 0)
(1.01883 0.00107511 0)
(1.01757 0.0002898 0)
(1.01851 0.000419572 0)
(1.01632 -0.000166411 0)
(1.0182 -0.000110197 0)
(1.01534 -0.000504698 0)
(1.01753 -0.00064634 0)
(1.0151 -0.000991504 0)
(1.01537 -0.0011638 0)
(1.01551 -0.00131053 0)