/*--------------------------------*- C++ -*----------------------------------*\
| =========                 |                                                 |
| \\      /  F ield         | OpenFOAM: The Open Source CFD Toolbox           |
|  \\    /   O peration     | Version:  2312                                  |
|   \\  /    A nd           | Website:  www.openfoam.com                      |
|    \\/     M anipulation  |                                                 |
\*---------------------------------------------------------------------------*/
FoamFile
{
    version     2.0;
    format      ascii;
    arch        "LSB;label=32;scalar=64";
    class       volVectorField;
    location    "30.5";
    object      U;
}
// * * * * * * * * * * * * * * * * * * * * * * * * * * * * * * * * * * * * * //

dimensions      [0 1 -1 0 0 0 0];

internalField   nonuniform List<vector> 
5478
(
(-0.0228262 0.0177365 -6.37218e-20)
(-0.0423795 0.035198 0)
(-0.0370231 0.0420829 9.70649e-20)
(-0.00482781 0.0437053 -1.70347e-19)
(0.0581501 0.0442694 1.11929e-19)
(0.15539 0.0478387 -3.30409e-20)
(0.284834 0.0571649 -5.8045e-20)
(0.437432 0.0730642 0)
(0.59972 0.0934946 0)
(0.761454 0.118759 7.99938e-20)
(0.903948 0.139101 -3.53e-20)
(1.03511 0.165747 -6.27508e-20)
(1.12739 0.171596 -2.63037e-20)
(1.20196 0.193611 0)
(1.25362 0.176332 8.07507e-20)
(-0.0279503 0.016891 1.27683e-19)
(-0.0415901 0.0278157 0)
(-0.0159931 0.0297703 0)
(0.0546058 0.0314625 -8.52248e-20)
(0.175132 0.0395699 1.12507e-19)
(0.33949 0.0578328 3.27265e-20)
(0.528567 0.0856713 -5.69775e-20)
(0.718686 0.118671 5.05163e-20)
(0.891945 0.152801 1.30414e-19)
(1.03148 0.180736 -1.15071e-19)
(1.13841 0.203229 1.92899e-21)
(1.20203 0.212789 0)
(1.23747 0.215478 2.62514e-20)
(1.2411 0.20898 0)
(1.23359 0.194843 0)
(-0.0314422 0.0154643 -2.81382e-22)
(-0.0285787 0.0210543 -5.8906e-20)
(0.0374317 0.022789 2.37161e-22)
(0.173065 0.03332 0)
(0.369522 0.0598858 -3.7749e-20)
(0.593259 0.0997705 3.25564e-20)
(0.805818 0.144326 2.80306e-20)
(0.981244 0.184988 0)
(1.10553 0.21456 -4.31103e-20)
(1.18156 0.231794 3.74619e-20)
(1.21242 0.234322 3.24791e-20)
(1.21653 0.229579 0)
(1.20114 0.214544 0)
(1.18745 0.205363 -7.82769e-20)
(1.17126 0.187645 6.99334e-20)
(-0.0301403 0.0123068 -6.83397e-20)
(0.00536098 0.0135694 5.82559e-20)
(0.137318 0.0234278 -5.04463e-20)
(0.358194 0.0563557 4.44606e-20)
(0.617274 0.108704 7.57253e-20)
(0.852851 0.164702 -6.48831e-20)
(1.02909 0.210717 -2.80054e-20)
(1.13677 0.239228 2.32482e-20)
(1.18726 0.25073 -2.15698e-20)
(1.19732 0.247498 0)
(1.19058 0.238858 0)
(1.17902 0.225627 -4.92819e-20)
(1.176 0.216935 6.53697e-20)
(1.17546 0.209167 -3.75457e-20)
(1.18173 0.1991 0)
(-0.020801 0.00747037 3.45344e-20)
(0.0707578 0.00785415 2.92127e-20)
(0.294331 0.0408208 -1.04915e-19)
(0.589569 0.1062 1.13896e-21)
(0.85684 0.176309 -6.54727e-22)
(1.04249 0.229475 -6.5939e-22)
(1.1426 0.258308 2.68123e-20)
(1.18064 0.266657 2.33163e-20)
(1.18504 0.261991 1.79119e-20)
(1.18066 0.253545 -1.67946e-21)
(1.17675 0.244129 -4.16662e-20)
(1.17725 0.236144 0)
(1.17548 0.228662 2.06477e-20)
(1.17168 0.217792 -1.67846e-20)
(1.16625 0.208757 2.93265e-20)
(0.000503122 0.00230594 -7.38649e-20)
(0.177212 0.0122748 8.01427e-20)
(0.497102 0.0850319 -2.77661e-20)
(0.812361 0.17515 2.1575e-20)
(1.0269 0.241702 -3.95231e-20)
(1.13601 0.275657 -3.09242e-20)
(1.17525 0.285107 5.51747e-22)
(1.18182 0.281646 0)
(1.17952 0.274261 3.56129e-20)
(1.17506 0.265257 -3.16695e-20)
(1.16977 0.255809 1.33281e-20)
(1.16143 0.244695 0)
(1.15294 0.233422 8.64414e-21)
(1.14708 0.221261 -1.6072e-20)
(1.1413 0.212659 0)
(0.0386179 -0.000425897 -9.19366e-21)
(0.325266 0.039189 7.86898e-22)
(0.702284 0.152754 1.33952e-20)
(0.976915 0.245337 2.32471e-20)
(1.11829 0.293137 -1.84659e-20)
(1.17067 0.308253 3.13723e-20)
(1.18101 0.306741 -7.11418e-21)
(1.17666 0.298876 0)
(1.16742 0.288114 -2.0771e-20)
(1.15752 0.276259 1.02296e-21)
(1.14843 0.263866 1.7871e-20)
(1.14269 0.252189 0)
(1.13979 0.241857 -1.25277e-20)
(1.13732 0.230272 0)
(1.13652 0.223997 8.52184e-21)
(0.0968796 0.00495554 -1.02411e-20)
(0.494065 0.0959118 0)
(0.867528 0.230013 1.44287e-20)
(1.07692 0.308118 0)
(1.15941 0.336009 0)
(1.17743 0.337475 0)
(1.17124 0.328222 -6.22462e-21)
(1.159 0.315255 0)
(1.14799 0.301666 4.14157e-21)
(1.13967 0.288285 0)
(1.1337 0.27562 -5.62123e-21)
(1.12802 0.263136 0)
(1.12191 0.250273 3.87886e-21)
(1.1171 0.237484 0)
(1.11048 0.22838 2.71014e-21)
(-0.00789919 0.00364122 -6.97585e-21)
(-0.032384 -0.00296665 0)
(-0.069609 -0.0123556 1.11195e-20)
(-0.106997 -0.0224811 0)
(-0.142533 -0.0339165 0)
(-0.176607 -0.0468938 0)
(-0.209597 -0.0610477 -7.33104e-21)
(-0.241726 -0.0760371 0)
(-0.273221 -0.0915236 6.1066e-21)
(-0.304262 -0.107089 0)
(-0.334826 -0.122184 -1.02794e-20)
(-0.36452 -0.136077 0)
(-0.39289 -0.147927 8.69904e-21)
(-0.420571 -0.156585 0)
(-0.449311 -0.161235 7.41393e-21)
(-0.00937967 0.0229554 3.51641e-20)
(-0.031618 0.0336056 -2.52775e-20)
(-0.063681 0.0305843 1.15343e-20)
(-0.0955642 0.0222376 4.04009e-20)
(-0.125617 0.0112169 3.62161e-22)
(-0.153968 -0.00134333 -3.25279e-20)
(-0.180801 -0.0146987 2.18861e-20)
(-0.206508 -0.0285042 0)
(-0.231443 -0.0425204 1.87558e-20)
(-0.255931 -0.0564706 6.24933e-22)
(-0.28013 -0.0699586 -9.96963e-21)
(-0.303915 -0.0825915 0)
(-0.326538 -0.0939354 -2.57718e-20)
(-0.348525 -0.103043 0)
(-0.372559 -0.109502 -3.67139e-20)
(-0.0120611 0.0361174 5.77628e-20)
(-0.0315602 0.0615714 1.31334e-20)
(-0.0554698 0.0658173 -2.26021e-20)
(-0.0781965 0.0604357 -6.13058e-20)
(-0.0985577 0.0505656 3.62952e-20)
(-0.116518 0.0388396 3.34099e-20)
(-0.132156 0.0265006 -5.96725e-20)
(-0.145713 0.0141139 0)
(-0.157477 0.0019817 -5.005e-20)
(-0.167705 -0.00968245 4.4504e-20)
(-0.176746 -0.0206508 2.04583e-20)
(-0.185132 -0.0304408 0)
(-0.190627 -0.0400552 1.70633e-20)
(-0.196212 -0.045328 -3.05108e-20)
(-0.191867 -0.055395 0)
(-0.0146948 0.0413328 2.98947e-20)
(-0.0319089 0.0773233 -7.88193e-20)
(-0.0470191 0.089381 9.3235e-20)
(-0.0591654 0.0885099 -8.29829e-20)
(-0.0680864 0.0809447 -3.73209e-20)
(-0.073794 0.0704279 3.35285e-20)
(-0.0763339 0.058993 3.0059e-20)
(-0.0758447 0.0476361 2.73132e-20)
(-0.0725681 0.0368569 -7.47797e-20)
(-0.0666686 0.0269293 -8.45455e-22)
(-0.0568849 0.0176512 1.99413e-20)
(-0.0490245 0.0108037 0)
(-0.0266298 0.00320037 3.28062e-20)
(-0.0238038 0.000259373 9.05539e-20)
(0.0202363 -0.00417448 -5.36969e-20)
(-0.0162945 0.0393539 3.2541e-22)
(-0.0323116 0.0800796 5.39296e-20)
(-0.0402385 0.0986797 -4.75221e-20)
(-0.0426503 0.102911 4.17303e-20)
(-0.0403333 0.0986287 7.48071e-20)
(-0.0337375 0.0900384 -6.70638e-20)
(-0.0231393 0.0798073 -3.01161e-20)
(-0.00860758 0.0694481 -8.22975e-20)
(0.0099871 0.0598022 7.35429e-20)
(0.0306572 0.050994 0)
(0.0634886 0.0434218 0)
(0.0820427 0.0381241 7.26747e-20)
(0.142623 0.0345134 -1.62933e-19)
(0.150985 0.0259518 5.8311e-20)
(0.251276 0.0383073 0)
(-0.0167448 0.0329564 5.56283e-23)
(-0.0328627 0.0723343 -5.3932e-20)
(-0.0366076 0.0938828 1.43177e-19)
(-0.0318628 0.101704 -4.2164e-20)
(-0.0202015 0.100402 -3.75119e-20)
(-0.00253944 0.0939207 3.35586e-20)
(0.0206726 0.085134 3.01314e-20)
(0.0496046 0.0758992 5.42553e-20)
(0.0864558 0.0680049 -9.61605e-20)
(0.123767 0.0594057 4.32193e-20)
(0.192684 0.0576382 3.86277e-20)
(0.219572 0.0489445 0)
(0.349338 0.0572011 0)
(0.342267 0.0452262 1.13169e-19)
(0.536388 0.066634 -1.01075e-19)
(-0.0170495 0.0256367 2.2835e-22)
(-0.0344992 0.0590147 0)
(-0.0369264 0.0786345 0)
(-0.0276136 0.0866063 8.47391e-20)
(-0.00813264 0.0864175 -3.74559e-20)
(0.0210223 0.0815214 3.30673e-20)
(0.0605096 0.0748363 5.95055e-20)
(0.1118 0.0683888 -5.27694e-20)
(0.179436 0.0649795 4.80336e-20)
(0.250705 0.0601907 -4.32647e-20)
(0.366294 0.0661824 -1.12922e-21)
(0.424484 0.0615117 0)
(0.611007 0.0803938 2.98074e-20)
(0.619038 0.0719962 0)
(0.865267 0.105171 0)
(-0.0188068 0.0202329 -6.24616e-20)
(-0.0382052 0.0455227 0)
(-0.0396256 0.0593031 -9.65879e-20)
(-0.0244122 0.0643278 1.69793e-19)
(0.00772883 0.0638117 -1.86774e-19)
(0.0588764 0.0611538 -3.31959e-20)
(0.131643 0.0593909 5.8465e-20)
(0.226686 0.0606172 0)
(0.342191 0.0656761 0)
(0.469538 0.0755382 -8.31018e-20)
(0.611585 0.087224 -3.75447e-20)
(0.733661 0.102935 6.58573e-20)
(0.891929 0.119207 -2.98522e-20)
(0.958673 0.128669 0)
(1.14326 0.154098 -9.22774e-20)
(-0.482793 -0.162312 0)
(-0.515254 -0.161852 5.82532e-21)
(-0.540215 -0.142889 -5.55702e-21)
(-0.557544 -0.116679 0)
(-0.562186 -0.0740185 -1.63427e-22)
(-0.556628 -0.0225031 0)
(-0.538823 0.0408554 2.94299e-22)
(-0.513526 0.111719 0)
(-0.480004 0.186646 -2.40792e-22)
(-0.440636 0.266652 3.28963e-21)
(-0.39813 0.347597 -3.13912e-21)
(-0.348312 0.418299 -1.25951e-22)
(-0.289349 0.448504 0)
(-0.182862 0.409111 1.21138e-22)
(0.0145798 0.26193 7.0895e-23)
(0.263772 0.0729582 0)
(0.494107 -0.0915456 0)
(0.654494 -0.185559 0)
(0.75065 -0.228437 1.44988e-23)
(0.796974 -0.22984 0)
(0.818159 -0.219648 0)
(0.827257 -0.198042 2.81865e-23)
(0.834151 -0.179636 -5.25584e-23)
(0.842888 -0.153977 -1.94064e-23)
(0.857798 -0.134376 0)
(0.876451 -0.108533 0)
(0.897232 -0.0935979 0)
(0.915048 -0.0757299 0)
(0.931118 -0.0711076 1.31451e-23)
(0.943315 -0.0605445 1.00074e-23)
(0.952845 -0.0600357 -7.49164e-24)
(0.957773 -0.0512786 -3.10445e-24)
(0.959407 -0.0532658 1.80276e-24)
(0.960021 -0.0449267 0)
(0.960004 -0.0470237 5.42863e-25)
(0.963979 -0.0350955 -5.20041e-25)
(0.965817 -0.0350269 1.02968e-25)
(0.974058 -0.0188481 -9.83979e-26)
(-0.410604 -0.110739 -7.80551e-22)
(-0.461863 -0.120996 2.10458e-20)
(-0.502504 -0.110059 0)
(-0.542722 -0.0963574 3.0197e-22)
(-0.57019 -0.0658169 -1.2571e-22)
(-0.588353 -0.0267798 0)
(-0.590674 0.0243022 -2.96503e-22)
(-0.582116 0.0842746 1.50511e-20)
(-0.555517 0.149605 -1.45622e-20)
(-0.513317 0.22089 3.53997e-22)
(-0.448808 0.291502 0)
(-0.362097 0.351972 1.2682e-22)
(-0.241672 0.363977 0)
(-0.0651157 0.291094 -2.67032e-22)
(0.192771 0.123683 -7.13466e-23)
(0.443776 -0.0558403 -1.17825e-22)
(0.637503 -0.185157 2.33555e-22)
(0.751225 -0.24031 -2.22956e-22)
(0.807618 -0.254319 3.63051e-22)
(0.8281 -0.240789 -3.80346e-22)
(0.835839 -0.224244 -2.22451e-23)
(0.839983 -0.200797 2.15807e-22)
(0.845577 -0.182284 -2.20185e-22)
(0.852402 -0.157468 -1.5566e-22)
(0.862686 -0.139357 2.51534e-22)
(0.877246 -0.114723 -1.12366e-22)
(0.895453 -0.0999197 -2.07362e-23)
(0.914163 -0.0812568 0)
(0.93123 -0.075507 -3.90992e-23)
(0.945598 -0.0637804 -1.00361e-23)
(0.956735 -0.0621068 7.51046e-24)
(0.964321 -0.0522777 2.69115e-23)
(0.967904 -0.0535566 -2.23023e-23)
(0.969781 -0.0449308 6.83287e-25)
(0.969379 -0.0471789 5.78984e-25)
(0.971639 -0.0354533 7.58999e-24)
(0.971711 -0.0356874 5.17616e-24)
(0.97741 -0.0194952 -4.02164e-25)
(-0.219553 -0.0535567 4.17934e-20)
(-0.275029 -0.0723278 -4.01719e-20)
(-0.318976 -0.0683027 0)
(-0.366655 -0.0637418 3.76088e-20)
(-0.404713 -0.0453415 -3.53296e-20)
(-0.435659 -0.018481 4.99853e-22)
(-0.45116 0.0165333 0)
(-0.454258 0.0607578 4.74546e-22)
(-0.433097 0.110423 0)
(-0.390359 0.164517 -6.8073e-22)
(-0.309059 0.217337 -1.62323e-20)
(-0.205191 0.266109 1.54839e-20)
(-0.0551759 0.261867 1.18103e-20)
(0.15054 0.167555 -2.01928e-20)
(0.407574 -0.00437139 8.42332e-21)
(0.620942 -0.158554 1.19458e-22)
(0.760296 -0.248082 0)
(0.825127 -0.271556 -2.06557e-22)
(0.849159 -0.266723 1.49181e-22)
(0.853663 -0.245673 2.00037e-23)
(0.85507 -0.227325 -5.26834e-24)
(0.856279 -0.203885 -3.09157e-22)
(0.860858 -0.18587 3.02563e-22)
(0.867124 -0.161514 2.58906e-22)
(0.875791 -0.144009 -2.69961e-22)
(0.886741 -0.120064 0)
(0.900647 -0.105584 2.09118e-23)
(0.916156 -0.0865764 3.21623e-23)
(0.931067 -0.0800422 -6.74846e-23)
(0.944717 -0.0674072 5.35781e-23)
(0.955843 -0.0647888 6.13455e-23)
(0.965038 -0.0539997 -1.67878e-23)
(0.970642 -0.0544879 -2.65514e-23)
(0.97467 -0.045307 8.32717e-24)
(0.975313 -0.0473812 9.57593e-24)
(0.977339 -0.0356464 -1.51297e-23)
(0.976734 -0.0360594 3.9813e-24)
(0.980584 -0.0199453 -8.11623e-25)
(0.0124982 -0.0114983 3.14546e-22)
(-0.0347664 -0.0222142 3.935e-20)
(-0.0691552 -0.0249797 -7.56211e-20)
(-0.111116 -0.0245572 3.57472e-20)
(-0.147004 -0.0162979 5.12878e-22)
(-0.179988 -0.000798907 -5.1304e-22)
(-0.199774 0.0216044 0)
(-0.20765 0.050527 0)
(-0.192297 0.0833525 0)
(-0.154878 0.117101 -1.87271e-20)
(-0.0721375 0.147521 1.76355e-20)
(0.0302759 0.182067 4.58311e-22)
(0.180113 0.163904 -8.2347e-22)
(0.387497 0.0598699 3.4898e-22)
(0.616403 -0.105459 5.80044e-22)
(0.777717 -0.228125 0)
(0.859922 -0.284571 2.53925e-21)
(0.883681 -0.286588 -2.38546e-21)
(0.884446 -0.272187 1.43795e-23)
(0.878539 -0.248719 0)
(0.875401 -0.230518 2.8291e-23)
(0.874067 -0.207569 0)
(0.876347 -0.189761 3.33794e-23)
(0.881159 -0.165708 -2.01115e-23)
(0.888883 -0.148516 2.76803e-23)
(0.898422 -0.124809 0)
(0.910122 -0.110424 0)
(0.923136 -0.0911252 -1.49514e-22)
(0.935791 -0.0840124 1.79105e-22)
(0.947585 -0.0707173 -1.66293e-23)
(0.957347 -0.0674536 -6.81826e-23)
(0.966296 -0.055986 -4.14433e-23)
(0.972487 -0.0558214 7.29462e-23)
(0.977703 -0.0460463 -1.6429e-23)
(0.979275 -0.0477643 -1.16108e-23)
(0.981488 -0.035853 0)
(0.980783 -0.0362946 -4.83896e-24)
(0.98342 -0.020266 0)
(0.23421 0.0191439 -3.26653e-22)
(0.207792 0.00988577 0)
(0.179356 0.00498252 5.97388e-22)
(0.147986 0.0040156 -5.65973e-22)
(0.1207 0.00661941 -1.04349e-21)
(0.0947995 0.0127926 4.78026e-22)
(0.0789582 0.0227786 2.76321e-20)
(0.0732449 0.0381365 -5.21775e-20)
(0.0845435 0.056816 2.38621e-20)
(0.119086 0.0713006 0)
(0.192556 0.0822688 1.11819e-21)
(0.27834 0.102044 -4.73524e-22)
(0.414488 0.0767852 -1.37502e-20)
(0.610875 -0.0322143 1.39406e-20)
(0.79966 -0.177089 -3.21607e-22)
(0.904882 -0.267743 5.84291e-21)
(0.936317 -0.298905 -2.60581e-21)
(0.928923 -0.289251 -5.12416e-21)
(0.913965 -0.27191 1.70545e-21)
(0.900603 -0.249042 -2.21135e-22)
(0.892629 -0.231915 2.98948e-22)
(0.888163 -0.210225 1.68714e-22)
(0.887732 -0.193169 -2.80129e-22)
(0.890771 -0.169687 9.22914e-23)
(0.897242 -0.152979 0)
(0.906276 -0.129581 0)
(0.917234 -0.115189 0)
(0.929548 -0.0954837 0)
(0.941255 -0.0877103 1.15416e-22)
(0.952114 -0.0737284 -8.60056e-23)
(0.960798 -0.0699006 -8.44359e-23)
(0.969089 -0.0579118 5.20291e-23)
(0.975037 -0.057238 -4.97923e-23)
(0.980518 -0.0469351 3.05096e-23)
(0.982468 -0.048251 1.0513e-23)
(0.984756 -0.0360949 4.50828e-24)
(0.984106 -0.0364623 3.08806e-24)
(0.985948 -0.0205038 0)
(0.494726 0.0527394 0)
(0.463373 0.0411683 7.93751e-20)
(0.433331 0.0323313 -7.5317e-20)
(0.401068 0.0258335 -7.14801e-20)
(0.375108 0.0232378 6.86159e-20)
(0.352292 0.0257433 -1.1059e-23)
(0.33837 0.0298438 4.63345e-22)
(0.337714 0.0355031 0)
(0.34599 0.0456206 -4.68873e-20)
(0.378761 0.0483998 4.50068e-20)
(0.446486 0.0411603 -5.91361e-22)
(0.517665 0.0439443 3.27786e-20)
(0.637969 0.00757891 -6.24229e-20)
(0.811436 -0.0972563 1.82205e-21)
(0.951618 -0.216086 2.56644e-20)
(1.00169 -0.280483 2.54806e-22)
(0.993299 -0.297014 1.34786e-22)
(0.96525 -0.284299 0)
(0.940201 -0.268443 0)
(0.921187 -0.247694 -2.6029e-23)
(0.909067 -0.232066 -1.92702e-23)
(0.901509 -0.211713 -5.70138e-24)
(0.898435 -0.196057 -6.71812e-24)
(0.899317 -0.173474 -2.7568e-23)
(0.90379 -0.157224 3.07203e-22)
(0.9116 -0.134169 -2.92224e-22)
(0.921474 -0.119835 -3.13232e-23)
(0.9333 -0.0998095 0)
(0.944507 -0.0913742 2.29674e-23)
(0.955226 -0.0766888 0)
(0.963545 -0.07227 8.46836e-23)
(0.971666 -0.059788 -6.3213e-23)
(0.97741 -0.0586478 0)
(0.982954 -0.0478677 -1.12293e-23)
(0.985045 -0.0487749 2.25777e-23)
(0.987366 -0.0363617 -8.93523e-24)
(0.986832 -0.036593 0)
(0.988197 -0.0206892 1.68802e-24)
(0.816622 0.0901442 -1.60536e-22)
(0.773051 0.0789078 0)
(0.733172 0.067543 -7.79261e-20)
(0.691954 0.0549577 7.41544e-20)
(0.657705 0.0427735 6.994e-20)
(0.628622 0.0349825 -6.70717e-20)
(0.608024 0.0294186 0)
(0.602957 0.0250067 -5.55538e-20)
(0.606336 0.0256956 5.28461e-20)
(0.633418 0.020861 0)
(0.690702 0.00385601 3.32252e-22)
(0.750175 -0.00820246 8.64017e-22)
(0.854449 -0.0517442 -2.66637e-22)
(0.985773 -0.13837 -2.89657e-20)
(1.0642 -0.225525 2.73063e-20)
(1.06733 -0.270217 1.62484e-20)
(1.03387 -0.28223 -1.54648e-20)
(0.994899 -0.272288 -6.50497e-21)
(0.963668 -0.260743 6.18111e-21)
(0.940144 -0.243728 1.14878e-22)
(0.924499 -0.231038 4.28503e-22)
(0.914361 -0.212915 -4.91625e-22)
(0.909354 -0.199126 1.00385e-22)
(0.908622 -0.177838 1.87558e-22)
(0.911336 -0.162139 4.29455e-23)
(0.917485 -0.139106 -2.33282e-22)
(0.925727 -0.124546 -2.01735e-22)
(0.93642 -0.104102 2.34618e-22)
(0.94673 -0.0949936 -2.34993e-23)
(0.957149 -0.0796414 1.79975e-23)
(0.965215 -0.074627 6.85093e-23)
(0.973362 -0.0616614 1.39926e-23)
(0.979029 -0.0600527 -3.10678e-23)
(0.984678 -0.048824 -6.92713e-24)
(0.986893 -0.0493201 0)
(0.989327 -0.0366548 2.64393e-24)
(0.988971 -0.0367103 -7.88931e-24)
(0.990153 -0.0208457 1.6078e-24)
(1.11195 0.13623 8.68801e-20)
(1.07861 0.127106 0)
(1.04382 0.114833 7.9794e-20)
(1.00555 0.100311 -1.52325e-19)
(0.971112 0.0840096 7.2395e-20)
(0.939697 0.0689113 0)
(0.912818 0.0548022 0)
(0.89792 0.0399886 0)
(0.890184 0.0280211 0)
(0.90149 0.0145579 0)
(0.93425 -0.00998754 -3.54813e-22)
(0.974059 -0.0364469 -4.00115e-20)
(1.04518 -0.0824301 3.79725e-20)
(1.11549 -0.150583 2.54059e-22)
(1.13536 -0.215384 0)
(1.10724 -0.253446 0)
(1.06333 -0.26958 2.23335e-22)
(1.02053 -0.267054 0)
(0.985272 -0.260066 -5.18316e-21)
(0.958133 -0.245348 4.86351e-21)
(0.939388 -0.233602 -7.61294e-22)
(0.926939 -0.216215 4.0677e-22)
(0.919993 -0.202923 3.17504e-22)
(0.91772 -0.182173 0)
(0.919072 -0.16686 1.87813e-22)
(0.923896 -0.144074 -3.74015e-22)
(0.930682 -0.129426 1.96364e-22)
(0.940091 -0.108596 -1.30296e-23)
(0.949317 -0.0988011 0)
(0.959113 -0.0827591 -1.8434e-23)
(0.966739 -0.0771155 -1.47535e-23)
(0.974729 -0.0636322 -5.36463e-23)
(0.980237 -0.0615289 3.06687e-23)
(0.985907 -0.0498439 7.00032e-24)
(0.988195 -0.0499237 0)
(0.990771 -0.0369963 -3.91484e-24)
(0.990601 -0.0368526 0)
(0.99182 -0.02099 -1.67884e-24)
(1.24986 0.167919 0)
(1.24214 0.154898 0)
(1.22524 0.142116 0)
(1.20307 0.128705 0)
(1.18145 0.112271 0)
(1.15988 0.0950515 0)
(1.1404 0.0766878 0)
(1.12547 0.0575919 0)
(1.11545 0.0381996 0)
(1.11603 0.0166508 0)
(1.12535 -0.0120874 0)
(1.1396 -0.0404404 0)
(1.16504 -0.0812649 0)
(1.17917 -0.129431 0)
(1.16505 -0.17499 0)
(1.12935 -0.203781 0)
(1.08656 -0.22183 0)
(1.04455 -0.227645 0)
(1.00753 -0.229736 0)
(0.977433 -0.223735 0)
(0.955419 -0.219201 0)
(0.940382 -0.207622 0)
(0.931108 -0.198567 0)
(0.926891 -0.181094 0)
(0.926464 -0.167992 0)
(0.929875 -0.146887 0)
(0.935436 -0.132986 0)
(0.943798 -0.11243 0)
(0.952146 -0.1023 0)
(0.961319 -0.0858511 0)
(0.968495 -0.0796387 0)
(0.976185 -0.0657262 0)
(0.981451 -0.0630924 0)
(0.987002 -0.0509981 0)
(0.98928 -0.05061 0)
(0.99193 -0.0374536 0)
(0.991892 -0.0370617 0)
(0.99321 -0.0211779 0)
(1.23324 0.168857 0)
(1.24723 0.156261 0)
(1.25123 0.144975 0)
(1.24911 0.133954 0)
(1.2458 0.120038 0)
(1.24154 0.104543 0)
(1.23674 0.0858232 0)
(1.23189 0.0650455 0)
(1.227 0.0417139 0)
(1.2238 0.0148746 0)
(1.22324 -0.0178826 0)
(1.2224 -0.0511462 0)
(1.21959 -0.0913413 0)
(1.20592 -0.134312 0)
(1.17643 -0.175268 0)
(1.1345 -0.203647 0)
(1.08901 -0.222472 0)
(1.04596 -0.228203 0)
(1.00949 -0.22997 0)
(0.981304 -0.223621 0)
(0.961441 -0.218765 0)
(0.948027 -0.207156 0)
(0.939347 -0.198172 0)
(0.935117 -0.181106 0)
(0.934136 -0.168398 0)
(0.936837 -0.147708 0)
(0.941447 -0.134179 0)
(0.948841 -0.11394 0)
(0.956199 -0.103897 0)
(0.964597 -0.0873583 0)
(0.971129 -0.0809847 0)
(0.978337 -0.0668969 0)
(0.983171 -0.0640478 0)
(0.988426 -0.0516739 0)
(0.990526 -0.051014 0)
(0.993134 -0.0376558 0)
(0.993133 -0.0371508 0)
(0.994512 -0.0212849 0)
(1.21164 0.160605 0)
(1.22876 0.149243 0)
(1.23745 0.138122 0)
(1.24097 0.127461 0)
(1.24373 0.115129 0)
(1.24623 0.101124 0)
(1.24866 0.0837846 0)
(1.25007 0.0646703 0)
(1.24963 0.0414203 0)
(1.24793 0.0169685 0)
(1.24427 -0.0124281 0)
(1.23625 -0.0438416 0)
(1.22289 -0.0794115 0)
(1.20149 -0.113809 0)
(1.17059 -0.146878 0)
(1.13249 -0.170472 0)
(1.09262 -0.188241 0)
(1.05518 -0.196688 0)
(1.02317 -0.203709 0)
(0.997284 -0.203708 0)
(0.977206 -0.204735 0)
(0.962199 -0.198159 0)
(0.951352 -0.192897 0)
(0.945218 -0.17862 0)
(0.942516 -0.167828 0)
(0.943925 -0.148576 0)
(0.947332 -0.135919 0)
(0.953769 -0.116154 0)
(0.960203 -0.106129 0)
(0.967943 -0.0894161 0)
(0.973919 -0.0827493 0)
(0.980726 -0.0683811 0)
(0.985161 -0.0651942 0)
(0.990114 -0.0524826 0)
(0.992005 -0.0514894 0)
(0.99452 -0.0379192 0)
(0.994512 -0.0372747 0)
(0.995904 -0.0214258 0)
(1.19739 0.152778 0)
(1.21361 0.142566 0)
(1.22274 0.131468 0)
(1.22704 0.120948 0)
(1.23007 0.109067 0)
(1.23324 0.0961534 0)
(1.23665 0.0805107 0)
(1.23935 0.0629564 0)
(1.24041 0.0419701 0)
(1.23915 0.0196164 0)
(1.23461 -0.00757753 0)
(1.22542 -0.0360666 0)
(1.21103 -0.0675729 0)
(1.19026 -0.0980127 0)
(1.16267 -0.129367 0)
(1.12968 -0.154316 0)
(1.09479 -0.175999 0)
(1.06131 -0.188826 0)
(1.03134 -0.199457 0)
(1.00585 -0.201639 0)
(0.985265 -0.203492 0)
(0.969956 -0.197158 0)
(0.958964 -0.192089 0)
(0.952785 -0.178371 0)
(0.949778 -0.168212 0)
(0.950735 -0.149663 0)
(0.953371 -0.137501 0)
(0.958979 -0.1181 0)
(0.964499 -0.108108 0)
(0.971534 -0.0913068 0)
(0.97691 -0.0844089 0)
(0.983294 -0.0698178 0)
(0.987331 -0.0663123 0)
(0.991989 -0.0532901 0)
(0.993681 -0.0519659 0)
(0.996091 -0.0382056 0)
(0.996078 -0.0374147 0)
(0.997445 -0.0215852 0)
(1.18518 0.144105 0)
(1.20029 0.135112 0)
(1.20951 0.124859 0)
(1.21404 0.11483 0)
(1.21682 0.103585 0)
(1.21955 0.0918375 0)
(1.22232 0.0775499 0)
(1.22465 0.0619054 0)
(1.22563 0.0429249 0)
(1.22414 0.022553 0)
(1.21954 -0.00188284 0)
(1.21101 -0.0271004 0)
(1.19772 -0.0554311 0)
(1.17916 -0.0827789 0)
(1.15537 -0.111368 0)
(1.12741 -0.134314 0)
(1.09757 -0.154904 0)
(1.06812 -0.167642 0)
(1.04068 -0.179237 0)
(1.01675 -0.183564 0)
(0.996993 -0.188445 0)
(0.982049 -0.18583 0)
(0.970742 -0.184459 0)
(0.963844 -0.173939 0)
(0.959696 -0.166155 0)
(0.95949 -0.149356 0)
(0.960825 -0.138319 0)
(0.965266 -0.119633 0)
(0.969636 -0.109877 0)
(0.975784 -0.0931076 0)
(0.980403 -0.0860386 0)
(0.986238 -0.0712531 0)
(0.989799 -0.0674306 0)
(0.994111 -0.0541058 0)
(0.995587 -0.052447 0)
(0.997867 -0.038501 0)
(0.997855 -0.0375517 0)
(0.999165 -0.0217525 0)
(1.17329 0.13425 0)
(1.18737 0.126603 0)
(1.1964 0.117556 0)
(1.20114 0.10843 0)
(1.20392 0.0981914 0)
(1.20626 0.0875782 0)
(1.20844 0.0746936 0)
(1.21022 0.0608663 0)
(1.21075 0.0437595 0)
(1.20918 0.0256119 0)
(1.20484 0.00397473 0)
(1.19708 -0.0182371 0)
(1.18527 -0.0436561 0)
(1.16916 -0.0678793 0)
(1.14882 -0.093802 0)
(1.12513 -0.115382 0)
(1.09919 -0.136694 0)
(1.07289 -0.151972 0)
(1.04773 -0.167276 0)
(1.02554 -0.175503 0)
(1.00662 -0.183673 0)
(0.991962 -0.183438 0)
(0.980345 -0.183525 0)
(0.972991 -0.173962 0)
(0.968086 -0.166812 0)
(0.967193 -0.150634 0)
(0.967645 -0.140021 0)
(0.971278 -0.121665 0)
(0.974749 -0.11192 0)
(0.98018 -0.0950847 0)
(0.984115 -0.0877738 0)
(0.989421 -0.0727595 0)
(0.992507 -0.068576 0)
(0.996463 -0.0549424 0)
(0.997724 -0.0529372 0)
(0.999855 -0.038823 0)
(0.999841 -0.0377016 0)
(1.00107 -0.0219316 0)
(1.16228 0.124118 0)
(1.17509 0.117768 0)
(1.18367 0.10998 0)
(1.18849 0.102027 0)
(1.19127 0.0928949 0)
(1.19338 0.0835107 0)
(1.19519 0.0720704 0)
(1.19647 0.0599392 0)
(1.19667 0.0448081 0)
(1.19518 0.0289751 0)
(1.19117 0.00983461 0)
(1.18423 -0.00961876 0)
(1.17392 -0.0322693 0)
(1.16011 -0.0538502 0)
(1.14275 -0.0777136 0)
(1.12254 -0.0983782 0)
(1.10006 -0.120014 0)
(1.07714 -0.136264 0)
(1.05487 -0.152624 0)
(1.03487 -0.162081 0)
(1.01704 -0.171619 0)
(1.0028 -0.17314 0)
(0.990994 -0.175312 0)
(0.983239 -0.168078 0)
(0.977549 -0.163059 0)
(0.975856 -0.14877 0)
(0.975283 -0.139536 0)
(0.977962 -0.122195 0)
(0.980416 -0.112939 0)
(0.985041 -0.0963879 0)
(0.988222 -0.0890675 0)
(0.992948 -0.0739983 0)
(0.995524 -0.069548 0)
(0.999096 -0.0556801 0)
(1.00012 -0.0533538 0)
(1.00208 -0.0391075 0)
(1.00205 -0.0378413 0)
(1.00317 -0.0221151 0)
(1.15228 0.114068 0)
(1.16375 0.108907 0)
(1.17174 0.102381 0)
(1.17646 0.0956734 0)
(1.17921 0.087732 0)
(1.18119 0.0796699 0)
(1.18271 0.0696551 0)
(1.1837 0.0592102 0)
(1.18372 0.0460403 0)
(1.18233 0.0323868 0)
(1.1787 0.0155305 0)
(1.17266 -0.00136203 0)
(1.16375 -0.0216106 0)
(1.15202 -0.0408888 0)
(1.13721 -0.0630087 0)
(1.12006 -0.0825937 0)
(1.10084 -0.103902 0)
(1.0812 -0.120515 0)
(1.06141 -0.138141 0)
(1.04313 -0.1498 0)
(1.02617 -0.162099 0)
(1.01247 -0.166464 0)
(1.00074 -0.171168 0)
(0.992925 -0.166017 0)
(0.986734 -0.162482 0)
(0.984484 -0.149322 0)
(0.983066 -0.140781 0)
(0.984933 -0.123934 0)
(0.98645 -0.114772 0)
(0.990306 -0.0982525 0)
(0.992724 -0.0907207 0)
(0.996846 -0.0754769 0)
(0.998891 -0.07067 0)
(1.00206 -0.0565329 0)
(1.00283 -0.0538467 0)
(1.00455 -0.0394472 0)
(1.00448 -0.0379595 0)
(1.00546 -0.0222933 0)
(1.14335 0.104034 0)
(1.15353 0.0999678 0)
(1.16083 0.0946407 0)
(1.16533 0.08918 0)
(1.16801 0.0824941 0)
(1.16987 0.0757941 0)
(1.17121 0.0672527 0)
(1.17207 0.0585198 0)
(1.17201 0.0472313 0)
(1.17078 0.0356663 0)
(1.16764 0.0209903 0)
(1.16245 0.00642796 0)
(1.15481 -0.0115943 0)
(1.14497 -0.0288185 0)
(1.1324 -0.0493006 0)
(1.11799 -0.067735 0)
(1.10163 -0.0885585 0)
(1.08473 -0.10562 0)
(1.06711 -0.124495 0)
(1.05071 -0.137866 0)
(1.03505 -0.151866 0)
(1.02227 -0.157911 0)
(1.01083 -0.164221 0)
(1.00305 -0.160805 0)
(0.996366 -0.158842 0)
(0.993555 -0.147213 0)
(0.991285 -0.139841 0)
(0.992357 -0.12399 0)
(0.992943 -0.115323 0)
(0.996035 -0.09918 0)
(0.997671 -0.0916747 0)
(1.00116 -0.0764567 0)
(1.00263 -0.0714026 0)
(1.00536 -0.0571317 0)
(1.00583 -0.0541642 0)
(1.00733 -0.039727 0)
(1.00718 -0.0381224 0)
(1.00794 -0.0224651 0)
(1.13558 0.0942846 0)
(1.14453 0.0912 0)
(1.1511 0.0869696 0)
(1.1553 0.0827066 0)
(1.15785 0.0772539 0)
(1.15962 0.0719141 0)
(1.16086 0.0648327 0)
(1.16167 0.0577515 0)
(1.16163 0.0482264 0)
(1.16061 0.0386481 0)
(1.15799 0.0259965 0)
(1.1537 0.0135175 0)
(1.14723 -0.00248186 0)
(1.13902 -0.017856 0)
(1.12841 -0.036791 0)
(1.1164 -0.054073 0)
(1.1024 -0.0744207 0)
(1.08792 -0.0916956 0)
(1.07243 -0.111276 0)
(1.05796 -0.125784 0)
(1.04359 -0.141301 0)
(1.03169 -0.149208 0)
(1.02051 -0.157517 0)
(1.01285 -0.156161 0)
(1.00583 -0.155961 0)
(1.00265 -0.145864 0)
(0.999684 -0.139542 0)
(1.00009 -0.124548 0)
(0.999836 -0.116254 0)
(1.00221 -0.10041 0)
(1.00307 -0.0928467 0)
(1.00592 -0.0776115 0)
(1.00681 -0.0722604 0)
(1.00905 -0.057786 0)
(1.00921 -0.0544595 0)
(1.01035 -0.039923 0)
(1.01015 -0.038102 0)
(1.01068 -0.0226448 0)
(1.12908 0.0850056 0)
(1.13685 0.0827955 0)
(1.14269 0.0795689 0)
(1.14654 0.0764387 0)
(1.14893 0.0721848 0)
(1.15062 0.0681836 0)
(1.15177 0.0625287 0)
(1.15257 0.057056 0)
(1.15262 0.0492243 0)
(1.15192 0.0415174 0)
(1.14978 0.030754 0)
(1.14631 0.0202138 0)
(1.14089 0.00610883 0)
(1.13419 -0.00749703 0)
(1.12535 -0.0250016 0)
(1.11538 -0.0412618 0)
(1.10341 -0.061071 0)
(1.09114 -0.0783086 0)
(1.07757 -0.0983325 0)
(1.06487 -0.113853 0)
(1.0517 -0.130782 0)
(1.04078 -0.140406 0)
(1.03002 -0.150434 0)
(1.02266 -0.150865 0)
(1.01545 -0.152214 0)
(1.01201 -0.143578 0)
(1.00842 -0.138303 0)
(1.00823 -0.12424 0)
(1.00716 -0.116394 0)
(1.00886 -0.100983 0)
(1.00896 -0.0934579 0)
(1.01116 -0.0783427 0)
(1.01144 -0.0727871 0)
(1.01319 -0.058301 0)
(1.01297 -0.0546993 0)
(1.01383 -0.0401507 0)
(1.01336 -0.038136 0)
(1.01357 -0.0226148 0)
(1.12383 0.0759449 0)
(1.13057 0.0744881 0)
(1.13573 0.0721336 0)
(1.13926 0.0700056 0)
(1.14149 0.0668192 0)
(1.14311 0.064025 0)
(1.14423 0.0596579 0)
(1.14508 0.0556507 0)
(1.14525 0.0493726 0)
(1.14485 0.0433763 0)
(1.14321 0.0343494 0)
(1.14067 0.025599 0)
(1.13628 0.0131669 0)
(1.13081 0.00115583 0)
(1.12332 -0.0149655 0)
(1.11511 -0.0301108 0)
(1.10491 -0.0491424 0)
(1.09455 -0.0660658 0)
(1.08264 -0.0862438 0)
(1.07155 -0.102455 0)
(1.05956 -0.120436 0)
(1.04965 -0.131478 0)
(1.03936 -0.143036 0)
(1.03237 -0.145181 0)
(1.02506 -0.148084 0)
(1.0215 -0.140973 0)
(1.01741 -0.136783 0)
(1.01673 -0.123702 0)
(1.01494 -0.116326 0)
(1.01601 -0.101349 0)
(1.01535 -0.0938302 0)
(1.01689 -0.0788109 0)
(1.01655 -0.0730406 0)
(1.01772 -0.0584987 0)
(1.01716 -0.0546616 0)
(1.01747 -0.0402442 0)
(1.01704 -0.0381744 0)
(1.01687 -0.0230161 0)
(1.11993 0.0679429 0)
(1.12575 0.0671909 0)
(1.13028 0.0656463 0)
(1.13348 0.0644749 0)
(1.13556 0.0623117 0)
(1.13714 0.0606915 0)
(1.13824 0.0575685 0)
(1.13919 0.0549833 0)
(1.13951 0.0501866 0)
(1.13946 0.0458317 0)
(1.13823 0.03848 0)
(1.13629 0.0314529 0)
(1.13266 0.0206323 0)
(1.12845 0.0101946 0)
(1.12238 -0.00455158 0)
(1.11584 -0.0186996 0)
(1.10717 -0.0370903 0)
(1.09849 -0.0537835 0)
(1.08802 -0.0740911 0)
(1.07838 -0.0908958 0)
(1.06744 -0.109817 0)
(1.05852 -0.122214 0)
(1.04867 -0.135253 0)
(1.04212 -0.13907 0)
(1.03476 -0.143464 0)
(1.03115 -0.137827 0)
(1.02666 -0.134694 0)
(1.02561 -0.122614 0)
(1.02316 -0.115717 0)
(1.0237 -0.101314 0)
(1.02232 -0.0938485 0)
(1.02322 -0.0790457 0)
(1.0222 -0.0730293 0)
(1.02283 -0.0585237 0)
(1.02169 -0.0543006 0)
(1.02169 -0.039825 0)
(1.02072 -0.037376 0)
(1.02015 -0.0222303 0)
(1.11761 0.0589226 0)
(1.12264 0.0587213 0)
(1.12664 0.0578167 0)
(1.1296 0.0574117 0)
(1.13158 0.0560731 0)
(1.13318 0.0554122 0)
(1.13433 0.053316 0)
(1.13544 0.051904 0)
(1.13597 0.0483524 0)
(1.13633 0.0453725 0)
(1.13561 0.0394358 0)
(1.13452 0.0339154 0)
(1.13183 0.0246417 0)
(1.12867 0.0156978 0)
(1.12338 0.00233418 0)
(1.11791 -0.0105907 0)
(1.11041 -0.0278841 0)
(1.10315 -0.0438642 0)
(1.09386 -0.0637458 0)
(1.08547 -0.080658 0)
(1.0754 -0.100035 0)
(1.06738 -0.113422 0)
(1.05798 -0.127632 0)
(1.05189 -0.132938 0)
(1.04457 -0.138696 0)
(1.04103 -0.134488 0)
(1.03624 -0.132361 0)
(1.03488 -0.121246 0)
(1.03184 -0.114791 0)
(1.03185 -0.100898 0)
(1.0298 -0.0935273 0)
(1.03001 -0.0790064 0)
(1.02841 -0.0729543 0)
(1.02836 -0.0586849 0)
(1.02692 -0.0544211 0)
(1.02612 -0.0403672 0)
(1.02533 -0.0380699 0)
(1.02408 -0.0233511 0)
(1.11685 0.0530826 0)
(1.12122 0.053425 0)
(1.12474 0.0531329 0)
(1.12747 0.0534943 0)
(1.12934 0.0529707 0)
(1.13095 0.0532932 0)
(1.13212 0.0522322 0)
(1.13335 0.0520492 0)
(1.13398 0.0497831 0)
(1.1346 0.0482617 0)
(1.13415 0.0438187 0)
(1.13357 0.0398818 0)
(1.13138 0.03211 0)