/*--------------------------------*- C++ -*----------------------------------*\
| =========                 |                                                 |
| \\      /  F ield         | OpenFOAM: The Open Source CFD Toolbox           |
|  \\    /   O peration     | Version:  2512                                  |
|   \\  /    A nd           | Website:  www.openfoam.com                      |
|    \\/     M anipulation  |                                                 |
\*---------------------------------------------------------------------------*/
FoamFile
{
    version     2.0;
    format      ascii;
    arch        "LSB;label=32;scalar=64";
    class       surfaceScalarField;
    location    "10.5";
    object      phi;
}
// * * * * * * * * * * * * * * * * * * * * * * * * * * * * * * * * * * * * * //

dimensions      [0 3 -1 0 0 0 0];

oriented        oriented;

internalField   nonuniform List<scalar> 
19380
(
0.874545
-4.25492e-05
0.874671
-0.000125375
0.874874
-0.000203032
0.875153
-0.00027969
0.875508
-0.000354322
0.875931
-0.000423715
0.87642
-0.00048864
0.876967
-0.000547071
0.877565
-0.000597603
0.878205
-0.000640411
0.878879
-0.000674356
0.87958
-0.000700221
0.880299
-0.000719433
0.881031
-0.000732068
0.88177
-0.000738754
0.88251
-0.000740354
0.883248
-0.000737532
0.883979
-0.000731143
0.884701
-0.000721791
0.88541
-0.000709806
0.886106
-0.000695526
0.886785
-0.00067931
0.887447
-0.000661453
0.888089
-0.000642184
0.888711
-0.000621807
0.889311
-0.00060071
0.889891
-0.000579172
0.890448
-0.000557327
0.890983
-0.000535314
0.891497
-0.000513282
0.891988
-0.000491313
0.892457
-0.000469462
0.892905
-0.000447848
0.893332
-0.000426584
0.893737
-0.00040574
0.894123
-0.000385375
0.894488
-0.000365553
0.894835
-0.000346338
0.895163
-0.000327767
-0.000309922
0.895472
0.844004
-8.3131e-05
0.844123
-0.000244655
0.844319
-0.000398619
0.844588
-0.000548728
0.844927
-0.000693335
0.845334
-0.00083113
0.845805
-0.000959569
0.846333
-0.00107429
0.846909
-0.00117416
0.847528
-0.00125897
0.84818
-0.00132707
0.848859
-0.00137899
0.849557
-0.00141702
0.850267
-0.00144242
0.850985
-0.00145656
0.851705
-0.00146079
0.852424
-0.00145629
0.853138
-0.00144461
0.853843
-0.00142673
0.854536
-0.00140326
0.855216
-0.00137524
0.85588
-0.00134355
0.856527
-0.00130862
0.857156
-0.00127098
0.857765
-0.00123127
0.858355
-0.00119007
0.858923
-0.00114781
0.859471
-0.00110483
0.859997
-0.00106146
0.860502
-0.00101793
0.860985
-0.000974398
0.861446
-0.000931048
0.861887
-0.000888133
0.862306
-0.000845862
0.862705
-0.000804414
0.863083
-0.000763946
0.863442
-0.000724583
0.863782
-0.000686425
0.864104
-0.000649541
-0.000614091
0.864408
0.814529
-0.00012146
0.814642
-0.000357433
0.814829
-0.000585142
0.815085
-0.000805166
0.815409
-0.00101729
0.815799
-0.00122132
0.816251
-0.00141138
0.816759
-0.0015823
0.817316
-0.00173148
0.817915
-0.00185728
0.818547
-0.00195909
0.819205
-0.00203788
0.819884
-0.0020959
0.820577
-0.00213514
0.821278
-0.00215787
0.821984
-0.0021663
0.822689
-0.00216181
0.823391
-0.00214623
0.824086
-0.00212127
0.82477
-0.00208801
0.825443
-0.00204769
0.826101
-0.00200157
0.826743
-0.00195068
0.827368
-0.00189583
0.827974
-0.00183776
0.828561
-0.0017772
0.829128
-0.0017148
0.829675
-0.00165109
0.8302
-0.00158657
0.830703
-0.00152171
0.831186
-0.00145683
0.831647
-0.00139217
0.832087
-0.00132807
0.832506
-0.00126485
0.832904
-0.00120279
0.833283
-0.00114213
0.833641
-0.00108306
0.83398
-0.00102576
0.834301
-0.00097033
-0.000917034
0.834604
0.786084
-0.000157481
0.78619
-0.00046395
0.786365
-0.000760057
0.786607
-0.00104743
0.786916
-0.00132628
0.787289
-0.00159394
0.787721
-0.00184382
0.788209
-0.0020702
0.788746
-0.00226859
0.789325
-0.00243577
0.789937
-0.00257177
0.790578
-0.00267861
0.791241
-0.00275828
0.791919
-0.00281334
0.792608
-0.0028467
0.793302
-0.00286109
0.793999
-0.00285856
0.794694
-0.00284113
0.795384
-0.00281091
0.796065
-0.00276963
0.796736
-0.00271888
0.797395
-0.00266015
0.798039
-0.00259475
0.798667
-0.00252389
0.799278
-0.00244855
0.79987
-0.0023695
0.800443
-0.00228758
0.800996
-0.00220363
0.801527
-0.00211839
0.802038
-0.00203246
0.802528
-0.0019463
0.802996
-0.00186025
0.803442
-0.00177475
0.803868
-0.00169024
0.804272
-0.00160713
0.804656
-0.00152576
0.805019
-0.00144643
0.805363
-0.00136939
0.805687
-0.00129485
-0.00122312
0.805993
0.758631
-0.000190858
0.758731
-0.000563695
0.758894
-0.000923217
0.759121
-0.00127477
0.759413
-0.00161782
0.759766
-0.0019476
0.760179
-0.00225652
0.760646
-0.00253751
0.761162
-0.00278477
0.761721
-0.00299408
0.762315
-0.00316607
0.762939
-0.00330254
0.763586
-0.00340536
0.764251
-0.00347838
0.764929
-0.00352493
0.765616
-0.00354768
0.766307
-0.00354943
0.766998
-0.00353269
0.767687
-0.00349985
0.768371
-0.00345313
0.769046
-0.00339433
0.769711
-0.00332501
0.770363
-0.00324684
0.771001
-0.00316142
0.771622
-0.00306999
0.772226
-0.00297351
0.772812
-0.00287301
0.773377
-0.00276945
0.773923
-0.00266375
0.774447
-0.00255671
0.77495
-0.00244907
0.775431
-0.00234132
0.77589
-0.00223398
0.776328
-0.00212764
0.776743
-0.00202287
0.777138
-0.00192015
0.777511
-0.00181985
0.777864
-0.00172229
0.778197
-0.00162776
-0.0015367
0.77851
0.732136
-0.000221282
0.732228
-0.000655072
0.732379
-0.00107475
0.732591
-0.00148678
0.732864
-0.00189086
0.733198
-0.00228112
0.733589
-0.00264789
0.734035
-0.00298288
0.734529
-0.00327917
0.735066
-0.00353148
0.735641
-0.00374103
0.736248
-0.00390932
0.736881
-0.00403793
0.737534
-0.00413139
0.738202
-0.00419363
0.738882
-0.00422771
0.73957
-0.00423682
0.740261
-0.0042238
0.740952
-0.00419133
0.741641
-0.00414192
0.742325
-0.00407763
0.743
-0.00400034
0.743665
-0.00391189
0.744317
-0.00381396
0.744955
-0.00370798
0.745577
-0.00359523
0.746181
-0.00347703
0.746766
-0.00335451
0.747331
-0.00322876
0.747875
-0.00310077
0.748398
-0.00297152
0.748898
-0.00284175
0.749376
-0.00271212
0.749832
-0.00258334
0.750265
-0.0024561
0.750676
-0.002331
0.751065
-0.00220859
0.751432
-0.00208934
0.751778
-0.00197363
-0.00186205
0.752103
0.706567
-0.000249176
0.70665
-0.000737329
0.706788
-0.00121269
0.706983
-0.00168253
0.707238
-0.00214511
0.70755
-0.00259325
0.707918
-0.00301627
0.70834
-0.0034049
0.708811
-0.00375044
0.709327
-0.00404739
0.709882
-0.00429562
0.71047
-0.00449712
0.711086
-0.00465428
0.711726
-0.00477139
0.712385
-0.00485265
0.713059
-0.00490157
0.713744
-0.00492184
0.714437
-0.00491633
0.715133
-0.00488771
0.71583
-0.00483889
0.716525
-0.00477238
0.717214
-0.00469007
0.717896
-0.00459391
0.718568
-0.00448579
0.719228
-0.00436738
0.719873
-0.00424015
0.720501
-0.00410558
0.721112
-0.00396504
0.721703
-0.00381981
0.722273
-0.00367111
0.722822
-0.00352011
0.723348
-0.00336787
0.723851
-0.00321521
0.72433
-0.00306302
0.724787
-0.0029122
0.725219
-0.00276357
0.725628
-0.00261779
0.726015
-0.00247552
0.726378
-0.0023372
-0.00220359
0.72672
0.681891
-0.000273684
0.681964
-0.000811239
0.682089
-0.00133689
0.682266
-0.00186028
0.6825
-0.00237868
0.682789
-0.00288236
0.683133
-0.00336039
0.68353
-0.00380203
0.683977
-0.00419695
0.684469
-0.00453935
0.685001
-0.00482811
0.685569
-0.00506493
0.686168
-0.00525324
0.686794
-0.00539727
0.687442
-0.00550098
0.688109
-0.00556846
0.688791
-0.0056038
0.689485
-0.00560997
0.690187
-0.00558959
0.690893
-0.00554556
0.691602
-0.00548059
0.692308
-0.00539689
0.693011
-0.00529645
0.693706
-0.00518112
0.694392
-0.0050528
0.695065
-0.00491319
0.695723
-0.00476393
0.696365
-0.00460656
0.696987
-0.00444263
0.69759
-0.0042736
0.698171
-0.00410088
0.698729
-0.00392584
0.699263
-0.00374962
0.699773
-0.0035732
0.700259
-0.00339767
0.700719
-0.00322411
0.701155
-0.00305341
0.701566
-0.00288642
0.701952
-0.00272373
-0.00256631
0.702315
0.658075
-0.000294755
0.65814
-0.000876043
0.65825
-0.00144725
0.658409
-0.00201916
0.65862
-0.00258965
0.658885
-0.00314701
0.659204
-0.00367912
0.659574
-0.0041727
0.659994
-0.00461647
0.660459
-0.00500485
0.660967
-0.00533567
0.661512
-0.00561012
0.662091
-0.00583226
0.6627
-0.00600656
0.663336
-0.00613683
0.663995
-0.00622724
0.664673
-0.00628193
0.665367
-0.00630412
0.666074
-0.00629665
0.666791
-0.00626228
0.667514
-0.00620359
0.66824
-0.00612276
0.668965
-0.00602187
0.669687
-0.00590285
0.670402
-0.00576777
0.671107
-0.00561845
0.6718
-0.00545671
0.672478
-0.00528425
0.673138
-0.00510287
0.673779
-0.00491425
0.674398
-0.0047201
0.674994
-0.00452205
0.675566
-0.00432166
0.676113
-0.00412016
0.676634
-0.00391879
0.677129
-0.00371889
0.677597
-0.00352161
0.678039
-0.00332806
0.678454
-0.00313902
-0.00295573
0.678843
0.635092
-0.000312637
0.635147
-0.000931363
0.635242
-0.00154251
0.635382
-0.00215873
0.635569
-0.00277727
0.635808
-0.00338598
0.6361
-0.00397049
0.636442
-0.00451466
0.636832
-0.00500672
0.637268
-0.00544129
0.637748
-0.00581518
0.638267
-0.00612966
0.638824
-0.00638884
0.639414
-0.00659674
0.640035
-0.00675735
0.640683
-0.00687502
0.641354
-0.00695375
0.642047
-0.00699702
0.642758
-0.00700769
0.643484
-0.00698812
0.644221
-0.00694076
0.644966
-0.00686777
0.645716
-0.00677129
0.646466
-0.00665315
0.647214
-0.00651542
0.647955
-0.00635994
0.648687
-0.00618867
0.649406
-0.00600342
0.65011
-0.00580626
0.650795
-0.00559917
0.651459
-0.00538419
0.6521
-0.00516324
0.652717
-0.00493825
0.653307
-0.00471086
0.653871
-0.00448248
0.654407
-0.00425473
0.654914
-0.00402906
0.655393
-0.00380691
0.655843
-0.00358928
-0.00337775
0.656265
0.61291
-0.000326918
0.612956
-0.000976945
0.613036
-0.0016226
0.613156
-0.00227852
0.61332
-0.00294157
0.613532
-0.00359776
0.613793
-0.00423159
0.614104
-0.00482536
0.614462
-0.00536546
0.614867
-0.00584601
0.615316
-0.00626418
0.615807
-0.0066208
0.616338
-0.00691926
0.616905
-0.0071639
0.617506
-0.00735885
0.61814
-0.00750833
0.618802
-0.00761635
0.619491
-0.00768616
0.620204
-0.00772047
0.620937
-0.00772141
0.621688
-0.00769119
0.622452
-0.0076318
0.623226
-0.00754528
0.624006
-0.00743326
0.624788
-0.00729767
0.625569
-0.00714032
0.626343
-0.00696328
0.627108
-0.00676846
0.62786
-0.00655811
0.628595
-0.00633438
0.629311
-0.00609967
0.630004
-0.00585625
0.630672
-0.00560647
0.631314
-0.00535248
0.631927
-0.005096
0.632511
-0.00483893
0.633065
-0.00458301
0.633589
-0.00433015
0.634081
-0.00408157
-0.00383928
0.634542
0.591503
-0.000337769
0.591539
-0.00101222
0.591604
-0.00168757
0.591703
-0.00237809
0.591843
-0.00308105
0.592027
-0.00378154
0.592257
-0.00446163
0.592534
-0.00510299
0.592859
-0.00569013
0.593229
-0.00621616
0.593644
-0.00667914
0.594103
-0.00707943
0.594603
-0.00741942
0.595143
-0.00770384
0.595721
-0.00793701
0.596335
-0.00812291
0.596984
-0.00826535
0.597666
-0.00836728
0.598376
-0.0084313
0.599114
-0.00845925
0.599876
-0.00845292
0.600658
-0.00841382
0.601456
-0.00834373
0.602267
-0.00824398
0.603086
-0.00811631
0.603908
-0.00796234
0.604729
-0.00778414
0.605544
-0.00758361
0.606349
-0.0073632
0.60714
-0.0071253
0.607913
-0.00687265
0.608664
-0.00660784
0.609392
-0.00633361
0.610092
-0.00605266
0.610763
-0.00576726
0.611404
-0.0054796
0.612012
-0.00519169
0.612588
-0.00490593
0.61313
-0.00462384
-0.00434798
0.613639
0.570844
-0.000345333
0.570869
-0.00103741
0.570918
-0.00173649
0.570998
-0.00245733
0.571112
-0.00319566
0.571267
-0.00393624
0.571465
-0.00465943
0.571707
-0.00534564
0.571996
-0.0059783
0.572329
-0.00654945
0.572707
-0.00705696
0.573129
-0.00750145
0.573594
-0.00788494
0.574102
-0.00821187
0.574652
-0.0084867
0.575243
-0.00871354
0.575873
-0.00889574
0.576541
-0.00903571
0.577246
-0.00913581
0.577984
-0.00919758
0.578754
-0.00922243
0.579551
-0.00921117
0.580372
-0.009165
0.581213
-0.00908471
0.582068
-0.00897174
0.582934
-0.00882736
0.583803
-0.0086536
0.584672
-0.00845232
0.585535
-0.00822612
0.586387
-0.00797746
0.587224
-0.00770944
0.588041
-0.00742498
0.588834
-0.00712731
0.589601
-0.00681954
0.590339
-0.00650464
0.591044
-0.00618527
0.591716
-0.00586367
0.592353
-0.0055428
0.592954
-0.00522454
-0.00491214
0.593518
0.550906
-0.000349523
0.550922
-0.00105262
0.550955
-0.00176972
0.551014
-0.00251632
0.551103
-0.0032849
0.551228
-0.00406094
0.551392
-0.00482425
0.551599
-0.0055524
0.551849
-0.00622774
0.552142
-0.00684249
0.552479
-0.00739416
0.552861
-0.00788333
0.553288
-0.00831165
0.553759
-0.00868324
0.554275
-0.00900282
0.554836
-0.00927462
0.555442
-0.00950164
0.556092
-0.00968569
0.556785
-0.00982877
0.557519
-0.0099318
0.558292
-0.00999564
0.559101
-0.0100202
0.559942
-0.010006
0.560811
-0.0099532
0.561702
-0.00986272
0.56261
-0.0097354
0.563529
-0.00957306
0.564454
-0.00937731
0.565379
-0.00915077
0.566297
-0.00889591
0.567204
-0.00861615
0.568094
-0.00831473
0.568962
-0.00799534
0.569804
-0.00766156
0.570616
-0.00731697
0.571396
-0.00696503
0.572141
-0.00660824
0.572848
-0.00625014
0.573516
-0.00589301
-0.00554097
0.574145
0.531665
-0.000350354
0.53167
-0.00105792
0.531688
-0.00178796
0.531727
-0.00255485
0.53179
-0.00334826
0.531885
-0.00415593
0.532017
-0.00495592
0.532186
-0.00572186
0.532395
-0.00643649
0.532645
-0.00709308
0.532939
-0.0076881
0.533278
-0.00822159
0.533661
-0.00869468
0.53409
-0.0091123
0.534566
-0.00947953
0.535092
-0.00980014
0.535667
-0.0100768
0.536292
-0.0103108
0.536967
-0.0105037
0.537691
-0.0106556
0.538462
-0.0107665
0.539277
-0.0108355
0.540133
-0.0108624
0.541026
-0.0108462
0.541951
-0.0107873
0.542901
-0.0106859
0.543872
-0.0105432
0.544855
-0.0103606
0.545845
-0.0101405
0.546834
-0.00988532
0.547817
-0.00959873
0.548786
-0.00928409
0.549736
-0.00894563
0.550662
-0.00858739
0.551559
-0.0082136
0.552422
-0.00782862
0.553249
-0.00743548
0.554038
-0.00703828
0.554784
-0.00663967
-0.00624485
0.555488
0.513094
-0.000347691
0.51309
-0.0010534
0.513094
-0.00179216
0.513112
-0.00257296
0.51315
-0.003386
0.513216
-0.00422205
0.513314
-0.00505418
0.513445
-0.00585273
0.513612
-0.00660306
0.513818
-0.0072993
0.514066
-0.00793587
0.514357
-0.00851267
0.514693
-0.00903033
0.515075
-0.00949492
0.515507
-0.00991178
0.515991
-0.0102841
0.516529
-0.0106144
0.517122
-0.0109037
0.517771
-0.0111529
0.518476
-0.011361
0.519238
-0.0115276
0.520052
-0.0116504
0.520918
-0.0117281
0.521831
-0.0117589
0.522786
-0.0117421
0.523776
-0.0116766
0.524797
-0.0115634
0.525839
-0.011403
0.526896
-0.0111976
0.52796
-0.0109495
0.529024
-0.0106623
0.530079
-0.0103396
0.53112
-0.00998597
0.532138
-0.00960595
0.533129
-0.00920445
0.534087
-0.00878661
0.535008
-0.00835641
0.535888
-0.00791853
0.536725
-0.00747598
-0.0070352
0.537515
0.495172
-0.000341271
0.495159
-0.00103948
0.49515
-0.00178319
0.495147
-0.00257085
0.495161
-0.00339931
0.495199
-0.00426022
0.495263
-0.00511836
0.495355
-0.00594435
0.495479
-0.00672698
0.495639
-0.00746003
0.495839
-0.00813539
0.496079
-0.00875317
0.496364
-0.00931467
0.496695
-0.0098265
0.497077
-0.0102939
0.497513
-0.0107199
0.498006
-0.0111073
0.498559
-0.0114565
0.499174
-0.0117682
0.499853
-0.0120401
0.500597
-0.0122709
0.501403
-0.012457
0.502271
-0.012596
0.503197
-0.0126848
0.504176
-0.0127214
0.505203
-0.0127036
0.506271
-0.0126312
0.507372
-0.0125037
0.508498
-0.0123233
0.509639
-0.0120913
0.510789
-0.0118116
0.511937
-0.0114875
0.513075
-0.0111242
0.514195
-0.0107264
0.515291
-0.0102998
0.516354
-0.00985023
0.517381
-0.0093828
0.518365
-0.00890311
0.519304
-0.00841441
-0.00792453
0.520193
0.477876
-0.000330746
0.477853
-0.00101679
0.477832
-0.00176179
0.47781
-0.00254903
0.477801
-0.0033901
0.477812
-0.00427112
0.477841
-0.0051481
0.477894
-0.00599712
0.477975
-0.00680827
0.47809
-0.00757431
0.478239
-0.00828503
0.478427
-0.00894072
0.478656
-0.00954403
0.478932
-0.0101026
0.479259
-0.0106204
0.47964
-0.0111013
0.480081
-0.0115482
0.480586
-0.0119614
0.481159
-0.0123409
0.481802
-0.0126835
0.482518
-0.0129868
0.483307
-0.0132459
0.484168
-0.0134572
0.485099
-0.0136158
0.486096
-0.0137183
0.487153
-0.0137609
0.488264
-0.0137423
0.489421
-0.0136606
0.490615
-0.0135172
0.491836
-0.0133126
0.493075
-0.0130505
0.494321
-0.0127336
0.495565
-0.0123678
0.496796
-0.0119578
0.498007
-0.0115101
0.499188
-0.0110311
0.500332
-0.0105271
0.501434
-0.0100051
0.502488
-0.00946844
-0.00892645
0.50349
0.461182
-0.000315099
0.461152
-0.000986893
0.461119
-0.00172846
0.461078
-0.00250821
0.461049
-0.0033611
0.461033
-0.00425491
0.461028
-0.00514354
0.461043
-0.00601193
0.461082
-0.00684728
0.46115
-0.00764195
0.461249
-0.00838373
0.461381
-0.00907351
0.461553
-0.00971566
0.461769
-0.0103188
0.462035
-0.0108864
0.462356
-0.0114225
0.462739
-0.0119304
0.463187
-0.0124101
0.463708
-0.0128618
0.464306
-0.0132812
0.464984
-0.0136648
0.465744
-0.0140065
0.466588
-0.014301
0.467514
-0.0145416
0.468519
-0.0147235
0.469599
-0.0148408
0.470748
-0.0148906
0.471956
-0.0148694
0.473217
-0.0147773
0.474517
-0.0146135
0.475848
-0.0143813
0.477197
-0.0140827
0.478553
-0.0137238
0.479904
-0.0133089
0.48124
-0.012846
0.48255
-0.0123413
0.483826
-0.0118027
0.485059
-0.0112383
0.486243
-0.0106526
-0.0100557
0.487373
0.44507
-0.000292847
0.445035
-0.000952052
0.44499
-0.00168306
0.444932
-0.00245053
0.444886
-0.00331489
0.444842
-0.0042108
0.444804
-0.00510616
0.444782
-0.00599008
0.44478
-0.00684457
0.444801
-0.00766353
0.444848
-0.00843082
0.444925
-0.00915043
0.445037
-0.00982795
0.445191
-0.0104723
0.445392
-0.0110872
0.445647
-0.0116778
0.445964
-0.0122469
0.446348
-0.0127948
0.446808
-0.0133217
0.44735
-0.0138227
0.447979
-0.0142937
0.448699
-0.0147267
0.449513
-0.0151153
0.450422
-0.0154505
0.451424
-0.0157258
0.452517
-0.0159331
0.453694
-0.0160677
0.454948
-0.0161235
0.45627
-0.0160993
0.457649
-0.0159923
0.459073
-0.0158052
0.460529
-0.0155384
0.462003
-0.0151984
0.463483
-0.0147888
0.464955
-0.0143184
0.466408
-0.0137935
0.467829
-0.0132238
0.469208
-0.0126179
0.470539
-0.0119828
-0.0113284
0.471811
0.429518
-0.000261811
0.429481
-0.000915691
0.429423
-0.00162457
0.429352
-0.0023797
0.42929
-0.00325257
0.429217
-0.00413805
0.429149
-0.00503872
0.429092
-0.00593275
0.429049
-0.00680147
0.429026
-0.00764004
0.429021
-0.00842628
0.429042
-0.00917152
0.429094
-0.0098798
0.429183
-0.0105611
0.429315
-0.0112197
0.429499
-0.0118621
0.429744
-0.0124913
0.430057
-0.0131079
0.430447
-0.0137116
0.430922
-0.0142978
0.43149
-0.0148614
0.432156
-0.0153936
0.432927
-0.0158863
0.433806
-0.0163286
0.434791
-0.0167118
0.435884
-0.0170254
0.437078
-0.0172622
0.438369
-0.0174137
0.439746
-0.0174764
0.441198
-0.0174452
0.442715
-0.0173213
0.444279
-0.0171032
0.445878
-0.0167973
0.447495
-0.0164057
0.449115
-0.0159384
0.450723
-0.0154011
0.452304
-0.0148056
0.453847
-0.0141606
0.455341
-0.0134764
-0.0127627
0.456775
0.414505
-0.000218803
0.414473
-0.000883259
0.414399
-0.00155047
0.41432
-0.00230134
0.41424
-0.00317236
0.414139
-0.00403747
0.414045
-0.00494444
0.413954
-0.00584116
0.413872
-0.00672035
0.413805
-0.00757253
0.413749
-0.00837082
0.413716
-0.00913783
0.413707
-0.00987066
0.41373
-0.0105843
0.413792
-0.0112818
0.413902
-0.0119717
0.414068
-0.0126579
0.414302
-0.0133419
0.414613
-0.0140227
0.415011
-0.0146957
0.415506
-0.0153558
0.416105
-0.0159932
0.416818
-0.016599
0.417649
-0.0171601
0.418603
-0.0176655
0.41968
-0.0181023
0.420878
-0.0184602
0.422192
-0.0187278
0.423615
-0.018899
0.425135
-0.0189655
0.42674
-0.0189262
0.428414
-0.0187774
0.430141
-0.0185244
0.431903
-0.0181673
0.433682
-0.017717
0.435459
-0.0171782
0.437218
-0.0165645
0.438942
-0.0158848
0.440618
-0.015153
-0.0143785
0.442234
0.400012
-0.000159414
0.399992
-0.000863185
0.399897
-0.00145562
0.399819
-0.00222345
0.399715
-0.00306838
0.399592
-0.00391384
0.399473
-0.00482549
0.399349
-0.0057173
0.399232
-0.0066038
0.399122
-0.00746229
0.399017
-0.00826594
0.398931
-0.00905128
0.39886
-0.00980055
0.398818
-0.0105423
0.398808
-0.0112717
0.398841
-0.0120047
0.398926
-0.0127426
0.399074
-0.0134903
0.399298
-0.0142462
0.399609
-0.0150065
0.400018
-0.0157648
0.400536
-0.0165116
0.401175
-0.0172377
0.401942
-0.0179276
0.402846
-0.0185688
0.403889
-0.0191456
0.405073
-0.0196442
0.406395
-0.0200503
0.40785
-0.020354
0.409428
-0.0205432
0.411116
-0.020614
0.412898
-0.0205593
0.414756
-0.0203823
0.416669
-0.0200808
0.418618
-0.0196654
0.420579
-0.0191394
0.422533
-0.0185183
0.424459
-0.0178106
0.42634
-0.0170343
-0.0161985
0.42816
0.386019
-7.84269e-05
0.386023
-0.00086699
0.385899
-0.00133141
0.385832
-0.00215673
0.385694
-0.00292978
0.385558
-0.00377866
0.385412
-0.00467936
0.385261
-0.00556645
0.385111
-0.00645301
0.38496
-0.00731204
0.384808
-0.0081136
0.384672
-0.00891494
0.384541
-0.00966961
0.384436
-0.0104376
0.384353
-0.0111882
0.384309
-0.0119607
0.384308
-0.0127419
0.384367
-0.0135491
0.384495
-0.0143742
0.384708
-0.01522
0.38502
-0.0160762
0.385442
-0.0169344
0.385991
-0.0177859
0.386675
-0.0186124
0.387508
-0.0194017
0.388497
-0.0201345
0.389647
-0.0207936
0.390958
-0.0213616
0.392428
-0.0218241
0.394049
-0.0221646
0.39581
-0.022375
0.397695
-0.0224442
0.399685
-0.0223716
0.401756
-0.022152
0.403885
-0.0217946
0.406046
-0.0213006
0.408214
-0.0206866
0.410365
-0.0199608
0.412475
-0.0191448
-0.0182486
0.414525
0.37251
2.89143e-05
0.37255
-0.000907599
0.372385
-0.00116603
0.372343
-0.00211454
0.372155
-0.00274172
0.372027
-0.00365102
0.371843
-0.00449568
0.371678
-0.00540095
0.371489
-0.00626391
0.371306
-0.00712891
0.371106
-0.00791363
0.370925
-0.00873445
0.370732
-0.00947696
0.37057
-0.0102756
0.370411
-0.0110287
0.370293
-0.0118431
0.370203
-0.0126515
0.370171
-0.0135173
0.370197
-0.0143997
0.370306
-0.015329
0.370507
-0.016277
0.37082
-0.0172483
0.371261
-0.0182267
0.371844
-0.019195
0.372585
-0.0201426
0.373495
-0.0210453
0.374586
-0.0218841
0.375863
-0.0226382
0.377326
-0.0232876
0.378972
-0.023811
0.380793
-0.0241952
0.382772
-0.0244234
0.38489
-0.0244898
0.387123
-0.0243852
0.389444
-0.0241153
0.391822
-0.0236788
0.394227
-0.0230914
0.396628
-0.0223616
0.398996
-0.0215133
-0.0205592
0.401307
0.359468
0.000165117
0.359557
-0.000995757
0.359338
-0.000947267
0.359334
-0.002111
0.359081
-0.00248897
0.358985
-0.00355436
0.358746
-0.00425663
0.358587
-0.00524197
0.358346
-0.00602355
0.358146
-0.00692898
0.357892
-0.00765937
0.357679
-0.00852165
0.35742
-0.00921763
0.357212
-0.0100672
0.35697
-0.010787
0.356788
-0.0116617
0.3566
-0.0124635
0.356484
-0.0134005
0.356397
-0.0143127
0.3564
-0.0153324
0.356476
-0.0163527
0.356669
-0.017442
0.356984
-0.0185411
0.357445
-0.0196565
0.358071
-0.0207686
0.358878
-0.0218521
0.359883
-0.0228884
0.361096
-0.0238519
0.362526
-0.024717
0.364173
-0.0254579
0.366032
-0.0260545
0.368092
-0.0264831
0.370332
-0.0267304
0.372729
-0.026782
0.375251
-0.0266376
0.377864
-0.0262917
0.380531
-0.0257578
0.383213
-0.0250436
0.385874
-0.0241743
-0.0231664
0.388481
0.346884
0.000327902
0.347022
-0.00113445
0.346743
-0.000668218
0.346789
-0.00215608
0.346462
-0.00216195
0.346416
-0.00350909
0.346103
-0.00394299
0.345976
-0.0051152
0.345664
-0.00571192
0.345473
-0.00673762
0.345149
-0.0073351
0.344925
-0.00829828
0.344586
-0.00887849
0.344352
-0.00983285
0.344013
-0.0104487
0.343789
-0.0114368
0.343486
-0.0121607
0.343302
-0.0132166
0.343083
-0.0140942
0.342992
-0.0152413
0.342922
-0.0162822
0.342995
-0.0175157
0.343156
-0.0187016
0.343483
-0.0199841
0.343966
-0.0212512
0.344644
-0.0225299
0.345531
-0.0237757
0.34665
-0.0249703
0.348012
-0.0260795
0.349628
-0.0270742
0.351499
-0.0279258
0.353619
-0.0286022
0.355969
-0.0290809
0.358527
-0.0293399
0.361259
-0.0293693
0.364125
-0.029158
0.367081
-0.0287141
0.370081
-0.0280432
0.373077
-0.0271701
-0.0261156
0.376026
0.334746
0.000509114
0.334927
-0.00131515
0.334592
-0.000333811
0.334685
-0.00224897
0.334286
-0.00176302
0.334301
-0.00352343
0.333903
-0.00354503
0.333827
-0.00503999
0.333427
-0.00531188
0.333271
-0.00658137
0.332857
-0.00692111
0.332651
-0.0080925
0.332212
-0.00843938
0.331982
-0.00960279
0.331524
-0.0099901
0.33129
-0.0112032
0.330842
-0.0117125
0.330628
-0.013003
0.330241
-0.0137068
0.330089
-0.0150898
0.329832
-0.0160248
0.329809
-0.0174932
0.329772
-0.018664
0.329971
-0.0201836
0.330262
-0.021542
0.330798
-0.0230655
0.331524
-0.0245024
0.332517
-0.0259625
0.333771
-0.0273338
0.33532
-0.028623
0.337167
-0.0297733
0.339316
-0.0307506
0.341755
-0.0315205
0.344464
-0.0320492
0.34741
-0.0323148
0.350548
-0.0322961
0.353826
-0.0319917
0.357185
-0.0314028
0.360567
-0.0305521
-0.0294633
0.363915
0.323044
0.000696117
0.323247
-0.00151813
0.322876
3.70905e-05
0.323002
-0.00237482
0.322549
-0.00130981
0.322613
-0.00358746
0.322139
-0.00307169
0.322117
-0.00501757
0.321628
-0.0048228
0.32152
-0.00647305
0.321007
-0.00640816
0.320839
-0.00792512
0.320285
-0.00788498
0.320087
-0.00940495
0.319485
-0.00938802
0.319281
-0.010999
0.318651
-0.0110824
0.31846
-0.012812
0.31785
-0.013097
0.317702
-0.0149421
0.317187
-0.0155096
0.317133
-0.0174388
0.316816
-0.0183475
0.316938
-0.0203052
0.316947
-0.0215508
0.317365
-0.0234836
0.317846
-0.0249832
0.318704
-0.0268206
0.319781
-0.0284107
0.321231
-0.0300731
0.323003
-0.0315455
0.325144
-0.032892
0.327641
-0.0340173
0.330482
-0.0348902
0.33364
-0.0354723
0.337066
-0.0357226
0.3407
-0.0356259
0.344471
-0.0351731
0.3483
-0.034382
-0.0332809
0.352118
0.311764
0.000875621
0.311963
-0.00171745
0.311584
0.000416323
0.311716
-0.00250752
0.31124
-0.000833597
0.311327
-0.00367426
0.310807
-0.00255154
0.310817
-0.00502756
0.310261
-0.0042671
0.31019
-0.00640151
0.309592
-0.00581086
0.309461
-0.00779358
0.308799
-0.00722273
0.308639
-0.00924521
0.307892
-0.00864087
0.307735
-0.010842
0.306906
-0.0102535
0.306775
-0.0126811
0.3059
-0.0122224
0.305821
-0.0148627
0.304972
-0.0146609
0.304979
-0.0174455
0.304271
-0.0176401
0.304425
-0.0204584
0.304004
-0.0211307
0.304409
-0.023888
0.304468
-0.0250421
0.305259
-0.0276118
0.306
-0.0291517
0.307367
-0.0314404
0.308953
-0.0331315
0.311068
-0.0350067
0.313564
-0.0365129
0.316511
-0.0378379
0.319871
-0.0388318
0.323594
-0.0394462
0.327624
-0.0396551
0.331865
-0.039415
0.336222
-0.038738
-0.0376626
0.340603
0.300887
0.00103867
0.301057
-0.00188819
0.3007
0.000773729
0.300809
-0.00261691
0.300348
-0.000372073
0.300421
-0.00374779
0.299895
-0.00202562
0.299902
-0.00503433
0.299321
-0.00368553
0.299253
-0.00633432
0.29861
-0.00516759
0.298485
-0.00766875
0.297752
-0.00648962
0.297603
-0.00909626
0.296747
-0.00778471
0.296613
-0.0107075
0.295616
-0.00925731
0.29553
-0.0125945
0.294406
-0.0110983
0.294402
-0.0148591
0.293199
-0.0134576
0.293312
-0.0175588
0.292141
-0.0164688
0.292418
-0.0207353
0.291429
-0.0201423
0.291966
-0.0244245
0.291379
-0.0244551
0.29229
-0.0285229
0.292382
-0.0292438
0.293831
-0.0328897
0.294923
-0.0342238
0.297094
-0.0371769
0.299406
-0.0388253
0.302482
-0.0409135
0.305997
-0.0423476
0.310019
-0.0434678
0.314485
-0.0441207
0.319261
-0.0441914
0.324256
-0.0437328
-0.0427408
0.329334
0.290391
0.00118368
0.290516
-0.00201314
0.290205
0.00108531
0.290266
-0.0026782
0.289854
4.02271e-05
0.28988
-0.00377404
0.28939
-0.0015353
0.289355
-0.00500008
0.288794
-0.00312377
0.288691
-0.0062316
0.288051
-0.00452727
0.28789
-0.00750777
0.287141
-0.00574072
0.286952
-0.00890786
0.286054
-0.00688627
0.285878
-0.0105319
0.284798
-0.00817716
0.284676
-0.0124728
0.283399
-0.00982039
0.283385
-0.0148452
0.281916
-0.011989
0.282062
-0.0177048
0.280484
-0.0148903
0.280841
-0.0210927
0.279277
-0.0185779
0.279961
-0.0251088
0.278617
-0.0231112
0.279751
-0.0296567
0.278936
-0.0284286
0.280705
-0.0346592
0.280834
-0.0343529
0.283381
-0.0397234
0.284959
-0.0404032
0.288412
-0.0443672
0.291799
-0.0457347
0.296224
-0.0478925
0.30114
-0.0490368
0.3065
-0.0495515
0.31231
-0.0495422
-0.0486822
0.318251
0.28026
0.00131446
0.280331
-0.00208443
0.28008
0.00133668
0.280078
-0.0026771
0.279741
0.000377845
0.279696
-0.003729
0.279273
-0.00111224
0.279169
-0.00489673
0.278664
-0.00261862
0.278495
-0.00606193
0.277899
-0.00393192
0.277665
-0.00727402
0.276953
-0.00502809
0.276676
-0.00863074
0.275808
-0.00601826
0.275517
-0.0102408
0.274459
-0.00711999
0.274189
-0.0122026
0.272908
-0.00853945
0.272726
-0.0146628
0.271183
-0.010446
0.271165
-0.0176874
0.269391
-0.013116
0.269609
-0.0213108
0.267675
-0.0166432
0.268283
-0.0257173
0.266326
-0.021154
0.26751
-0.0308404
0.265803
-0.0267217
0.267829
-0.0366854
0.266783
-0.0333074
0.269892
-0.0428318
0.270129
-0.0406405
0.274461
-0.0486993
0.27683
-0.0481036
0.28228
-0.0533425
0.287305
-0.054062
0.293459
-0.0557058
0.300324
-0.0564067
-0.055606
0.307248
0.270479
0.00143377
0.270496
-0.0021006
0.270311
0.00152166
0.270244
-0.00261067
0.269993
0.000629171
0.269866
-0.0036023
0.269528
-0.000774339
0.269342
-0.00471065
0.268915
-0.00219158
0.268664
-0.00581066
0.268138
-0.00340611
0.267815
-0.00695059
0.267171
-0.0043847
0.266778
-0.00823752
0.265995
-0.00523504
0.265534
-0.00978011
0.264595
-0.00618115
0.264074
-0.0116816
0.262949
-0.00741389
0.262423
-0.0141369
0.261045
-0.00906778
0.260606
-0.0172484
0.258946
-0.0114567
0.258695
-0.0210595
0.256758
-0.0147059
0.256881
-0.0258411
0.254719
-0.0189917
0.25546
-0.0315815
0.25326
-0.0245215
0.255032
-0.0384576
0.253084
-0.031359
0.256388
-0.0461359
0.255239
-0.0394912
0.260462
-0.0539229
0.261072
-0.0487138
0.268297
-0.0605675
0.272145
-0.0579097
0.280448
-0.0640088
0.288179
-0.0641378
-0.0636279
0.296201
0.261046
0.00153644
0.261012
-0.00206651
0.260889
0.00164474
0.260763
-0.00248496
0.260593
0.000799878
0.260391
-0.00340018
0.260137
-0.000520735
0.259873
-0.00444635
0.259525
-0.0018439
0.259198
-0.00548355
0.258742
-0.00295066
0.25834
-0.00654774
0.257765
-0.00380991
0.257271
-0.00774375
0.256573
-0.00453669
0.255961
-0.00916806
0.255149
-0.00536975
0.254385
-0.0109169
0.253464
-0.00649328
0.252543
-0.0132164
0.251485
-0.00800966
0.250443
-0.0162063
0.249216
-0.0102292
0.248125
-0.0199685
0.246683
-0.013264
0.245731
-0.0248892
0.244017
-0.017278
0.243604
-0.0311683
0.241613
-0.0225308
0.24229
-0.0391338
0.240186
-0.0292549
0.242697
-0.0486479
0.240841
-0.0376347
0.246147
-0.0592284
0.245242
-0.0478088
0.253996
-0.0693215
0.255683
-0.0595969
0.267657
-0.0759826
0.274604
-0.0710856
-0.0746939
0.28567
0.25196
0.00160556
0.251874
-0.00197995
0.25181
0.0017082
0.251629
-0.00230421
0.251527
0.000901782
0.251263
-0.00313625
0.25108
-0.000337206
0.250755
-0.00412171
0.250471
-0.00155909
0.25009
-0.00510305
0.249686
-0.00254695
0.249234
-0.00609542
0.248704
-0.00328041
0.248153
-0.00719185
0.247503
-0.00388701
0.246809
-0.00847388
0.246055
-0.00461624