/*--------------------------------*- C++ -*----------------------------------*\
| =========                 |                                                 |
| \\      /  F ield         | OpenFOAM: The Open Source CFD Toolbox           |
|  \\    /   O peration     | Version:  2512                                  |
|   \\  /    A nd           | Website:  www.openfoam.com                      |
|    \\/     M anipulation  |                                                 |
\*---------------------------------------------------------------------------*/
FoamFile
{
    version     2.0;
    format      ascii;
    arch        "LSB;label=32;scalar=64";
    class       volVectorField;
    location    "10.5";
    object      U;
}
// * * * * * * * * * * * * * * * * * * * * * * * * * * * * * * * * * * * * * //

dimensions      [0 1 -1 0 0 0 0];

internalField   nonuniform List<vector> 
9800
(
(1 -2.42898e-05 0)
(1.0001 -7.40583e-05 0)
(1.00029 -0.000124573 0)
(1.00056 -0.000178321 0)
(1.00093 -0.00023424 0)
(1.00137 -0.000289474 0)
(1.00189 -0.000345912 0)
(1.00249 -0.000402022 0)
(1.00314 -0.000454737 0)
(1.00385 -0.000504584 0)
(1.0046 -0.000550984 0)
(1.00539 -0.000593021 0)
(1.0062 -0.000630817 0)
(1.00703 -0.000664798 0)
(1.00787 -0.000695125 0)
(1.00872 -0.000721267 0)
(1.00956 -0.000743786 0)
(1.0104 -0.000763945 0)
(1.01124 -0.000781675 0)
(1.01205 -0.000796507 0)
(1.01286 -0.000808667 0)
(1.01365 -0.000818406 0)
(1.01441 -0.000825671 0)
(1.01516 -0.000830453 0)
(1.01588 -0.000832914 0)
(1.01658 -0.000833309 0)
(1.01726 -0.000831975 0)
(1.01791 -0.000829178 0)
(1.01853 -0.000824987 0)
(1.01913 -0.000819359 0)
(1.01971 -0.000812318 0)
(1.02026 -0.000803981 0)
(1.02079 -0.000794497 0)
(1.02129 -0.00078398 0)
(1.02176 -0.00077251 0)
(1.02221 -0.000760172 0)
(1.02264 -0.000747045 0)
(1.02305 -0.000733237 0)
(1.02344 -0.000718874 0)
(1.0238 -0.000704115 0)
(1 -7.17965e-05 0)
(1.0001 -0.000219198 0)
(1.00028 -0.000368583 0)
(1.00056 -0.000526992 0)
(1.00092 -0.000691903 0)
(1.00136 -0.000858321 0)
(1.00188 -0.00102673 0)
(1.00248 -0.00119117 0)
(1.00313 -0.001348 0)
(1.00384 -0.00149733 0)
(1.00459 -0.00163455 0)
(1.00538 -0.00175885 0)
(1.0062 -0.00187259 0)
(1.00703 -0.00197491 0)
(1.00788 -0.00206564 0)
(1.00873 -0.00214546 0)
(1.00958 -0.002215 0)
(1.01043 -0.00227564 0)
(1.01127 -0.00232795 0)
(1.0121 -0.00237187 0)
(1.01292 -0.00240788 0)
(1.01371 -0.00243661 0)
(1.01449 -0.00245824 0)
(1.01525 -0.0024728 0)
(1.01598 -0.00248081 0)
(1.01669 -0.00248318 0)
(1.01738 -0.00248053 0)
(1.01804 -0.00247296 0)
(1.01868 -0.00246068 0)
(1.01929 -0.00244404 0)
(1.01988 -0.00242327 0)
(1.02044 -0.0023986 0)
(1.02097 -0.00237041 0)
(1.02148 -0.00233907 0)
(1.02197 -0.00230484 0)
(1.02243 -0.00226802 0)
(1.02287 -0.00222895 0)
(1.02328 -0.00218799 0)
(1.02367 -0.00214543 0)
(1.02405 -0.00210158 0)
(1 -0.000116645 0)
(1.00009 -0.000356399 0)
(1.00028 -0.000603808 0)
(1.00055 -0.000861346 0)
(1.00091 -0.00112843 0)
(1.00135 -0.00140397 0)
(1.00186 -0.00168065 0)
(1.00245 -0.00195059 0)
(1.00311 -0.00221067 0)
(1.00382 -0.00245686 0)
(1.00457 -0.0026843 0)
(1.00537 -0.00289162 0)
(1.00619 -0.00308006 0)
(1.00703 -0.00324951 0)
(1.00789 -0.00340084 0)
(1.00875 -0.00353553 0)
(1.00962 -0.00365366 0)
(1.01048 -0.00375635 0)
(1.01134 -0.0038448 0)
(1.01219 -0.0039192 0)
(1.01302 -0.00398041 0)
(1.01384 -0.00402948 0)
(1.01464 -0.00406698 0)
(1.01542 -0.00409336 0)
(1.01617 -0.00410932 0)
(1.01691 -0.00411569 0)
(1.01762 -0.00411305 0)
(1.0183 -0.00410173 0)
(1.01896 -0.00408223 0)
(1.01959 -0.00405515 0)
(1.0202 -0.00402096 0)
(1.02078 -0.0039801 0)
(1.02133 -0.00393317 0)
(1.02186 -0.00388079 0)
(1.02236 -0.00382351 0)
(1.02284 -0.00376188 0)
(1.02329 -0.00369649 0)
(1.02372 -0.00362796 0)
(1.02413 -0.00355671 0)
(1.02451 -0.00348324 0)
(1 -0.000159094 0)
(1.00009 -0.000485347 0)
(1.00027 -0.0008262 0)
(1.00054 -0.00117916 0)
(1.00089 -0.00154552 0)
(1.00132 -0.00192518 0)
(1.00184 -0.00230684 0)
(1.00242 -0.0026821 0)
(1.00307 -0.00304385 0)
(1.00379 -0.00338459 0)
(1.00454 -0.00370099 0)
(1.00534 -0.00399177 0)
(1.00617 -0.00425603 0)
(1.00702 -0.00449454 0)
(1.00789 -0.00470912 0)
(1.00877 -0.00490097 0)
(1.00966 -0.0050703 0)
(1.01054 -0.00521819 0)
(1.01142 -0.00534591 0)
(1.0123 -0.00545411 0)
(1.01316 -0.00554399 0)
(1.014 -0.0056168 0)
(1.01483 -0.00567337 0)
(1.01564 -0.00571451 0)
(1.01643 -0.00574096 0)
(1.0172 -0.00575313 0)
(1.01794 -0.00575178 0)
(1.01866 -0.00573793 0)
(1.01935 -0.00571252 0)
(1.02001 -0.00567621 0)
(1.02065 -0.0056296 0)
(1.02126 -0.00557334 0)
(1.02184 -0.00550808 0)
(1.0224 -0.00543459 0)
(1.02293 -0.0053538 0)
(1.02343 -0.00526657 0)
(1.0239 -0.00517368 0)
(1.02435 -0.00507592 0)
(1.02478 -0.00497407 0)
(1.02518 -0.00486896 0)
(0.999999 -0.00019891 0)
(1.00009 -0.000607962 0)
(1.00026 -0.00103219 0)
(1.00052 -0.00147715 0)
(1.00087 -0.00194228 0)
(1.00129 -0.00242172 0)
(1.0018 -0.00290586 0)
(1.00238 -0.00338395 0)
(1.00303 -0.00384525 0)
(1.00373 -0.00428104 0)
(1.00449 -0.00468666 0)
(1.0053 -0.0050611 0)
(1.00614 -0.00540397 0)
(1.007 -0.00571538 0)
(1.00789 -0.00599644 0)
(1.00878 -0.00624864 0)
(1.00969 -0.00647276 0)
(1.0106 -0.00666976 0)
(1.01151 -0.00684122 0)
(1.01242 -0.0069883 0)
(1.01331 -0.00711184 0)
(1.0142 -0.00721286 0)
(1.01507 -0.0072926 0)
(1.01592 -0.0073522 0)
(1.01675 -0.00739257 0)
(1.01756 -0.00741425 0)
(1.01834 -0.00741799 0)
(1.0191 -0.00740472 0)
(1.01984 -0.00737548 0)
(1.02054 -0.00733119 0)
(1.02122 -0.00727283 0)
(1.02187 -0.0072013 0)
(1.02249 -0.0071175 0)
(1.02308 -0.00702247 0)
(1.02364 -0.00691737 0)
(1.02418 -0.00680337 0)
(1.02469 -0.0066815 0)
(1.02516 -0.00655287 0)
(1.02562 -0.0064185 0)
(1.02604 -0.00627954 0)
(1 -0.000234948 0)
(1.00009 -0.000721298 0)
(1.00025 -0.00122591 0)
(1.0005 -0.00175653 0)
(1.00083 -0.00231389 0)
(1.00125 -0.00289071 0)
(1.00174 -0.00347501 0)
(1.00232 -0.00405375 0)
(1.00296 -0.00461411 0)
(1.00366 -0.00514459 0)
(1.00442 -0.00564247 0)
(1.00523 -0.00610434 0)
(1.00608 -0.006527 0)
(1.00696 -0.00691361 0)
(1.00786 -0.00726525 0)
(1.00878 -0.00758201 0)
(1.00971 -0.00786569 0)
(1.01065 -0.00811742 0)
(1.0116 -0.00833849 0)
(1.01254 -0.00853044 0)
(1.01348 -0.00869396 0)
(1.0144 -0.00882947 0)
(1.01532 -0.00893835 0)
(1.01622 -0.0090221 0)
(1.0171 -0.00908154 0)
(1.01796 -0.00911711 0)
(1.0188 -0.00912978 0)
(1.01962 -0.00912053 0)
(1.0204 -0.00909032 0)
(1.02116 -0.00904023 0)
(1.02189 -0.00897161 0)
(1.02259 -0.00888568 0)
(1.02326 -0.00878364 0)
(1.0239 -0.00866678 0)
(1.02451 -0.00853648 0)
(1.02508 -0.00839419 0)
(1.02563 -0.00824129 0)
(1.02615 -0.00807929 0)
(1.02663 -0.00790953 0)
(1.02709 -0.00773349 0)
(1 -0.000268315 0)
(1.00008 -0.000823534 0)
(1.00024 -0.00140379 0)
(1.00048 -0.00201578 0)
(1.00079 -0.00266052 0)
(1.0012 -0.00333195 0)
(1.00168 -0.00401355 0)
(1.00224 -0.00469058 0)
(1.00287 -0.00534909 0)
(1.00357 -0.00597522 0)
(1.00433 -0.00656491 0)
(1.00514 -0.00711546 0)
(1.00599 -0.00762291 0)
(1.00688 -0.00808885 0)
(1.00779 -0.0085155 0)
(1.00874 -0.00890339 0)
(1.0097 -0.00925372 0)
(1.01067 -0.0095674 0)
(1.01165 -0.00984534 0)
(1.01264 -0.010089 0)
(1.01362 -0.0102994 0)
(1.0146 -0.010477 0)
(1.01557 -0.0106227 0)
(1.01653 -0.0107375 0)
(1.01748 -0.010822 0)
(1.0184 -0.010877 0)
(1.0193 -0.0109035 0)
(1.02018 -0.0109026 0)
(1.02103 -0.0108754 0)
(1.02186 -0.0108227 0)
(1.02265 -0.0107463 0)
(1.02341 -0.0106474 0)
(1.02414 -0.0105277 0)
(1.02484 -0.0103889 0)
(1.0255 -0.0102327 0)
(1.02613 -0.0100607 0)
(1.02673 -0.00987482 0)
(1.02729 -0.00967683 0)
(1.02782 -0.00946841 0)
(1.02832 -0.00925149 0)
(0.999999 -0.000298462 0)
(1.00007 -0.000915924 0)
(1.00022 -0.00156357 0)
(1.00045 -0.00225338 0)
(1.00075 -0.00298285 0)
(1.00113 -0.0037422 0)
(1.0016 -0.00451737 0)
(1.00214 -0.00529139 0)
(1.00276 -0.00604679 0)
(1.00345 -0.00677025 0)
(1.0042 -0.00745365 0)
(1.00501 -0.00809371 0)
(1.00586 -0.00868931 0)
(1.00676 -0.00924026 0)
(1.00769 -0.00974745 0)
(1.00865 -0.0102124 0)
(1.00964 -0.0106366 0)
(1.01065 -0.0110202 0)
(1.01167 -0.0113634 0)
(1.0127 -0.0116674 0)
(1.01374 -0.0119336 0)
(1.01478 -0.0121624 0)
(1.01581 -0.0123539 0)
(1.01684 -0.0125085 0)
(1.01785 -0.0126268 0)
(1.01885 -0.0127096 0)
(1.01982 -0.0127574 0)
(1.02078 -0.0127711 0)
(1.02171 -0.0127518 0)
(1.02261 -0.0127007 0)
(1.02348 -0.0126193 0)
(1.02431 -0.0125093 0)
(1.02511 -0.0123727 0)
(1.02588 -0.0122117 0)
(1.02661 -0.0120283 0)
(1.02731 -0.0118247 0)
(1.02797 -0.0116032 0)
(1.02859 -0.0113661 0)
(1.02917 -0.0111153 0)
(1.02972 -0.0108534 0)
(1 -0.000324168 0)
(1.00007 -0.000997898 0)
(1.0002 -0.00170816 0)
(1.00041 -0.00246736 0)
(1.00069 -0.0032756 0)
(1.00105 -0.00411987 0)
(1.0015 -0.00498557 0)
(1.00202 -0.00585437 0)
(1.00262 -0.00670527 0)
(1.0033 -0.00752458 0)
(1.00404 -0.00830369 0)
(1.00483 -0.00903689 0)
(1.00569 -0.00972303 0)
(1.00659 -0.0103635 0)
(1.00753 -0.0109579 0)
(1.00852 -0.0115068 0)
(1.00953 -0.0120125 0)
(1.01057 -0.0124749 0)
(1.01163 -0.0128937 0)
(1.01271 -0.0132695 0)
(1.01381 -0.0136028 0)
(1.01491 -0.0138932 0)
(1.01601 -0.0141407 0)
(1.01711 -0.014345 0)
(1.0182 -0.0145067 0)
(1.01928 -0.0146261 0)
(1.02034 -0.0147034 0)
(1.02139 -0.0147391 0)
(1.0224 -0.0147344 0)
(1.02339 -0.0146905 0)
(1.02435 -0.0146091 0)
(1.02528 -0.0144919 0)
(1.02617 -0.0143412 0)
(1.02702 -0.0141594 0)
(1.02783 -0.013949 0)
(1.02861 -0.0137127 0)
(1.02934 -0.0134533 0)
(1.03003 -0.0131737 0)
(1.03068 -0.0128764 0)
(1.0313 -0.0125645 0)
(1 -0.000346485 0)
(1.00006 -0.00106897 0)
(1.00018 -0.00183416 0)
(1.00037 -0.00265685 0)
(1.00063 -0.00353749 0)
(1.00096 -0.0044637 0)
(1.00138 -0.00541736 0)
(1.00188 -0.00637674 0)
(1.00246 -0.00732114 0)
(1.00311 -0.00823594 0)
(1.00383 -0.00910989 0)
(1.00462 -0.00993776 0)
(1.00546 -0.0107193 0)
(1.00636 -0.011454 0)
(1.00732 -0.0121415 0)
(1.00831 -0.0127828 0)
(1.00935 -0.0133788 0)
(1.01042 -0.0139294 0)
(1.01152 -0.0144346 0)
(1.01265 -0.0148936 0)
(1.0138 -0.0153057 0)
(1.01497 -0.0156704 0)
(1.01614 -0.0159868 0)
(1.01732 -0.0162539 0)
(1.0185 -0.0164714 0)
(1.01968 -0.0166389 0)
(1.02084 -0.0167565 0)
(1.02198 -0.0168241 0)
(1.0231 -0.0168428 0)
(1.0242 -0.0168134 0)
(1.02526 -0.0167378 0)
(1.02629 -0.0166179 0)
(1.02728 -0.0164562 0)
(1.02824 -0.0162556 0)
(1.02915 -0.0160189 0)
(1.03001 -0.0157494 0)
(1.03084 -0.0154503 0)
(1.03162 -0.0151254 0)
(1.03235 -0.0147773 0)
(1.03304 -0.0144103 0)
(1 -0.000364895 0)
(1.00005 -0.0011288 0)
(1.00016 -0.00194118 0)
(1.00032 -0.00282177 0)
(1.00056 -0.0037697 0)
(1.00086 -0.00477107 0)
(1.00125 -0.00580795 0)
(1.00172 -0.00685463 0)
(1.00226 -0.00788945 0)
(1.00289 -0.00889813 0)
(1.00358 -0.00986805 0)
(1.00435 -0.0107937 0)
(1.00518 -0.0116738 0)
(1.00608 -0.0125073 0)
(1.00703 -0.0132939 0)
(1.00803 -0.0140345 0)
(1.00909 -0.0147295 0)
(1.01019 -0.0153788 0)
(1.01133 -0.0159817 0)
(1.0125 -0.016536 0)
(1.01371 -0.0170406 0)
(1.01495 -0.0174937 0)
(1.0162 -0.0178938 0)
(1.01747 -0.0182385 0)
(1.01874 -0.0185268 0)
(1.02001 -0.018757 0)
(1.02128 -0.0189286 0)
(1.02254 -0.0190407 0)
(1.02378 -0.0190938 0)
(1.02499 -0.0190888 0)
(1.02618 -0.0190273 0)
(1.02733 -0.0189114 0)
(1.02844 -0.0187437 0)
(1.02951 -0.0185273 0)
(1.03054 -0.0182658 0)
(1.03152 -0.017963 0)
(1.03245 -0.0176226 0)
(1.03333 -0.0172493 0)
(1.03416 -0.0168465 0)
(1.03494 -0.0164192 0)
(1 -0.000379071 0)
(1.00004 -0.00117653 0)
(1.00013 -0.00203062 0)
(1.00027 -0.00296118 0)
(1.00047 -0.00396973 0)
(1.00075 -0.00504096 0)
(1.0011 -0.00615471 0)
(1.00153 -0.00728532 0)
(1.00204 -0.00840806 0)
(1.00263 -0.00950766 0)
(1.00329 -0.0105733 0)
(1.00403 -0.0115979 0)
(1.00484 -0.0125778 0)
(1.00572 -0.0135138 0)
(1.00666 -0.0144059 0)
(1.00767 -0.0152536 0)
(1.00873 -0.0160574 0)
(1.00985 -0.0168166 0)
(1.01102 -0.0175296 0)
(1.01224 -0.0181936 0)
(1.01351 -0.0188058 0)
(1.01481 -0.019363 0)
(1.01614 -0.019863 0)
(1.0175 -0.0203022 0)
(1.01888 -0.0206779 0)
(1.02026 -0.0209874 0)
(1.02165 -0.021229 0)
(1.02304 -0.0214008 0)
(1.02441 -0.0215025 0)
(1.02576 -0.0215344 0)
(1.02708 -0.0214979 0)
(1.02837 -0.021395 0)
(1.02963 -0.0212285 0)
(1.03084 -0.0210019 0)
(1.032 -0.020719 0)
(1.03311 -0.0203846 0)
(1.03417 -0.0200028 0)
(1.03517 -0.0195794 0)
(1.03612 -0.0191182 0)
(1.03701 -0.0186256 0)
(1 -0.000389588 0)
(1.00003 -0.00121231 0)
(1.0001 -0.00210055 0)
(1.00021 -0.00307455 0)
(1.00039 -0.00413664 0)
(1.00062 -0.00527227 0)
(1.00093 -0.00645739 0)
(1.00132 -0.00766601 0)
(1.00178 -0.0088728 0)
(1.00233 -0.0100611 0)
(1.00295 -0.0112201 0)
(1.00365 -0.0123425 0)
(1.00443 -0.0134245 0)
(1.00528 -0.0144666 0)
(1.00621 -0.0154687 0)
(1.0072 -0.0164309 0)
(1.00827 -0.017353 0)
(1.0094 -0.0182327 0)
(1.0106 -0.0190683 0)
(1.01186 -0.0198563 0)
(1.01318 -0.0205928 0)
(1.01454 -0.0212728 0)
(1.01596 -0.0218923 0)
(1.01741 -0.0224458 0)
(1.01889 -0.0229291 0)
(1.0204 -0.0233374 0)
(1.02192 -0.0236678 0)
(1.02344 -0.0239172 0)
(1.02496 -0.0240844 0)
(1.02646 -0.0241686 0)
(1.02794 -0.0241709 0)
(1.0294 -0.0240928 0)
(1.03081 -0.0239374 0)
(1.03218 -0.0237082 0)
(1.0335 -0.0234096 0)
(1.03477 -0.023047 0)
(1.03598 -0.0226251 0)
(1.03713 -0.0221508 0)
(1.03821 -0.0216283 0)
(1.03924 -0.0210656 0)
(0.999999 -0.000396342 0)
(1.00002 -0.00123622 0)
(1.00007 -0.00215058 0)
(1.00015 -0.00316235 0)
(1.00029 -0.00427151 0)
(1.00049 -0.0054631 0)
(1.00075 -0.00671317 0)
(1.00108 -0.00799467 0)
(1.0015 -0.00928051 0)
(1.002 -0.0105528 0)
(1.00257 -0.0118019 0)
(1.00322 -0.0130217 0)
(1.00395 -0.014207 0)
(1.00477 -0.0153574 0)
(1.00566 -0.0164736 0)
(1.00664 -0.0175563 0)
(1.00769 -0.0186045 0)
(1.00883 -0.0196158 0)
(1.01004 -0.0205876 0)
(1.01133 -0.0215153 0)
(1.0127 -0.0223939 0)
(1.01413 -0.0232162 0)
(1.01562 -0.0239759 0)
(1.01717 -0.0246653 0)
(1.01876 -0.0252783 0)
(1.02039 -0.025808 0)
(1.02205 -0.0262497 0)
(1.02372 -0.0265985 0)
(1.0254 -0.026852 0)
(1.02707 -0.0270078 0)
(1.02873 -0.0270664 0)
(1.03037 -0.0270289 0)
(1.03196 -0.026898 0)
(1.03352 -0.0266772 0)
(1.03503 -0.0263711 0)
(1.03648 -0.0259858 0)
(1.03786 -0.0255265 0)
(1.03918 -0.0250016 0)
(1.04043 -0.0244155 0)
(1.04162 -0.0237785 0)
(0.999999 -0.000399184 0)
(1.00001 -0.00124834 0)
(1.00003 -0.00218215 0)
(1.00009 -0.00322466 0)
(1.00019 -0.00437209 0)
(1.00034 -0.00561226 0)
(1.00055 -0.00692219 0)
(1.00083 -0.00827035 0)
(1.00119 -0.00962832 0)
(1.00163 -0.0109798 0)
(1.00214 -0.0123153 0)
(1.00273 -0.0136291 0)
(1.00341 -0.0149158 0)
(1.00418 -0.0161751 0)
(1.00503 -0.0174085 0)
(1.00597 -0.018617 0)
(1.007 -0.0198001 0)
(1.00812 -0.0209542 0)
(1.00934 -0.0220759 0)
(1.01065 -0.0231591 0)
(1.01205 -0.0241976 0)
(1.01353 -0.0251821 0)
(1.0151 -0.026104 0)
(1.01674 -0.0269531 0)
(1.01844 -0.0277209 0)
(1.0202 -0.0283979 0)
(1.02201 -0.0289774 0)
(1.02384 -0.0294519 0)
(1.0257 -0.0298171 0)
(1.02756 -0.0300685 0)
(1.02941 -0.0302057 0)
(1.03125 -0.0302282 0)
(1.03306 -0.0301386 0)
(1.03483 -0.0299403 0)
(1.03655 -0.0296379 0)
(1.03821 -0.0292382 0)
(1.0398 -0.0287468 0)
(1.04133 -0.0281736 0)
(1.04277 -0.0275235 0)
(1.04414 -0.0268093 0)
(1 -0.00039823 0)
(0.999994 -0.00124899 0)
(0.999995 -0.00219562 0)
(1.00002 -0.00326064 0)
(1.00008 -0.00443854 0)
(1.00018 -0.00572175 0)
(1.00034 -0.00708479 0)
(1.00056 -0.00849052 0)
(1.00086 -0.00991287 0)
(1.00123 -0.0113384 0)
(1.00167 -0.0127556 0)
(1.00219 -0.0141592 0)
(1.0028 -0.015544 0)
(1.0035 -0.0169112 0)
(1.0043 -0.0182637 0)
(1.00519 -0.0196024 0)
(1.00618 -0.0209264 0)
(1.00728 -0.0222321 0)
(1.00848 -0.0235159 0)
(1.00979 -0.0247701 0)
(1.01122 -0.025987 0)
(1.01274 -0.0271552 0)
(1.01437 -0.0282637 0)
(1.0161 -0.0292992 0)
(1.01791 -0.0302505 0)
(1.01981 -0.0311047 0)
(1.02176 -0.0318522 0)
(1.02377 -0.0324824 0)
(1.02581 -0.0329888 0)
(1.02788 -0.0333644 0)
(1.02995 -0.0336069 0)
(1.03202 -0.0337139 0)
(1.03407 -0.0336875 0)
(1.03608 -0.0335301 0)
(1.03804 -0.0332467 0)
(1.03994 -0.0328445 0)
(1.04178 -0.0323294 0)
(1.04354 -0.0317132 0)
(1.04522 -0.0310007 0)
(1.04681 -0.0302079 0)
(1 -0.000393156 0)
(0.99998 -0.00123804 0)
(0.999956 -0.00219254 0)
(0.999948 -0.00327117 0)
(0.999966 -0.00447212 0)
(1.00001 -0.00579225 0)
(1.00011 -0.00719941 0)
(1.00028 -0.00865358 0)
(1.0005 -0.0101331 0)
(1.00079 -0.0116262 0)
(1.00116 -0.013119 0)
(1.0016 -0.014607 0)
(1.00213 -0.0160849 0)
(1.00276 -0.0175575 0)
(1.00348 -0.0190291 0)
(1.0043 -0.0204996 0)
(1.00523 -0.0219691 0)
(1.00628 -0.0234341 0)
(1.00746 -0.0248908 0)
(1.00876 -0.0263305 0)
(1.01019 -0.0277443 0)
(1.01174 -0.029118 0)
(1.01343 -0.0304384 0)
(1.01523 -0.0316891 0)
(1.01714 -0.0328551 0)
(1.01916 -0.0339196 0)
(1.02127 -0.0348695 0)
(1.02346 -0.0356902 0)
(1.0257 -0.0363725 0)
(1.02799 -0.0369058 0)
(1.0303 -0.0372861 0)
(1.03262 -0.037508 0)
(1.03493 -0.0375725 0)
(1.03722 -0.0374805 0)
(1.03946 -0.0372368 0)
(1.04165 -0.0368486 0)
(1.04376 -0.0363221 0)
(1.0458 -0.0356709 0)
(1.04775 -0.0348999 0)
(1.0496 -0.0340286 0)
(1 -0.000383663 0)
(0.999965 -0.0012163 0)
(0.999914 -0.00217409 0)
(0.999876 -0.00325643 0)
(0.999849 -0.00447387 0)
(0.99984 -0.00582499 0)
(0.99988 -0.00726632 0)
(0.99998 -0.00875942 0)
(1.00013 -0.0102881 0)
(1.00033 -0.0118418 0)
(1.00061 -0.0134031 0)
(1.00096 -0.0149675 0)
(1.0014 -0.0165324 0)
(1.00194 -0.0181061 0)
(1.00257 -0.0196932 0)
(1.0033 -0.0212951 0)
(1.00416 -0.0229127 0)
(1.00515 -0.024543 0)
(1.00627 -0.0261825 0)
(1.00753 -0.0278211 0)
(1.00895 -0.0294492 0)
(1.01051 -0.0310501 0)
(1.01223 -0.0326082 0)
(1.01409 -0.0341032 0)
(1.0161 -0.035517 0)
(1.01824 -0.0368279 0)
(1.0205 -0.0380189 0)
(1.02287 -0.0390704 0)
(1.02532 -0.0399697 0)
(1.02784 -0.0407015 0)
(1.03042 -0.0412589 0)
(1.03302 -0.0416325 0)
(1.03562 -0.0418219 0)
(1.03822 -0.0418254 0)
(1.04078 -0.0416478 0)
(1.04329 -0.0412952 0)
(1.04573 -0.0407746 0)
(1.04809 -0.0401005 0)
(1.05034 -0.0392785 0)
(1.05251 -0.0383315 0)
(1 -0.000369142 0)
(0.999947 -0.00118493 0)
(0.999871 -0.0021408 0)
(0.999804 -0.00321679 0)
(0.999727 -0.00444738 0)
(0.999662 -0.00582139 0)
(0.999643 -0.00728468 0)
(0.999673 -0.00880861 0)
(0.99974 -0.010379 0)
(0.999851 -0.0119844 0)
(1.00003 -0.0136048 0)
(1.00029 -0.0152367 0)
(1.00062 -0.0168815 0)
(1.00105 -0.0185503 0)
(1.00157 -0.0202475 0)
(1.0022 -0.0219773 0)
(1.00296 -0.0237428 0)
(1.00386 -0.0255415 0)
(1.00491 -0.0273706 0)
(1.00611 -0.0292195 0)
(1.00749 -0.0310776 0)
(1.00904 -0.0329263 0)
(1.01077 -0.0347478 0)
(1.01267 -0.036518 0)
(1.01476 -0.0382149 0)
(1.017 -0.0398116 0)
(1.01941 -0.0412865 0)
(1.02195 -0.0426142 0)
(1.02462 -0.0437774 0)
(1.02739 -0.0447546 0)
(1.03024 -0.0455356 0)
(1.03315 -0.0461052 0)
(1.03608 -0.0464615 0)
(1.03902 -0.0465984 0)
(1.04194 -0.0465205 0)
(1.04482 -0.0462317 0)
(1.04762 -0.0457399 0)
(1.05036 -0.0450597 0)
(1.05298 -0.0441979 0)
(1.0555 -0.0431806 0)
(1 -0.000348047 0)
(0.999925 -0.0011462 0)
(0.999827 -0.00209337 0)
(0.99973 -0.0031537 0)
(0.999602 -0.00439646 0)
(0.999482 -0.00578106 0)
(0.999404 -0.00725517 0)
(0.99936 -0.00880295 0)
(0.999336 -0.0104061 0)
(0.999349 -0.0120536 0)
(0.999425 -0.013723 0)
(0.999574 -0.0154131 0)
(0.999795 -0.0171287 0)
(1.0001 -0.0188837 0)
(1.00049 -0.0206831 0)
(1.00101 -0.022535 0)
(1.00165 -0.0244449 0)
(1.00243 -0.0264119 0)
(1.00338 -0.0284348 0)
(1.0045 -0.0305025 0)
(1.00581 -0.0326041 0)
(1.00731 -0.0347195 0)
(1.00902 -0.0368289 0)
(1.01095 -0.0389046 0)
(1.01308 -0.0409209 0)
(1.01542 -0.0428453 0)
(1.01795 -0.0446511 0)
(1.02067 -0.0463056 0)
(1.02355 -0.0477858 0)
(1.02658 -0.049063 0)
(1.02972 -0.0501222 0)
(1.03295 -0.0509413 0)
(1.03624 -0.0515155 0)
(1.03956 -0.0518324 0)
(1.04288 -0.0518964 0)
(1.04618 -0.0517071 0)
(1.04941 -0.051274 0)
(1.05257 -0.0506102 0)
(1.05562 -0.049725 0)
(1.05856 -0.048646 0)
(1 -0.000318439 0)
(0.999898 -0.00110353 0)
(0.999784 -0.00203072 0)
(0.999655 -0.0030705 0)
(0.999472 -0.00432434 0)
(0.999303 -0.00570279 0)
(0.999164 -0.00718073 0)
(0.999041 -0.00874449 0)
(0.998922 -0.0103707 0)
(0.998833 -0.0120516 0)
(0.998802 -0.0137574 0)
(0.998835 -0.0154947 0)
(0.998927 -0.0172709 0)
(0.999094 -0.0191016 0)
(0.999354 -0.0209938 0)
(0.999723 -0.0229596 0)
(1.00022 -0.0250067 0)
(1.00087 -0.0271379 0)
(1.00169 -0.0293544 0)
(1.00269 -0.0316457 0)
(1.0039 -0.0340008 0)
(1.00532 -0.0363987 0)
(1.00699 -0.0388185 0)
(1.00889 -0.0412293 0)
(1.01105 -0.0436016 0)
(1.01345 -0.0458975 0)
(1.01609 -0.048084 0)
(1.01897 -0.0501208 0)
(1.02206 -0.0519781 0)
(1.02534 -0.0536182 0)
(1.02878 -0.0550199 0)
(1.03236 -0.056152 0)
(1.03604 -0.0570056 0)
(1.03979 -0.05756 0)
(1.04355 -0.0578184 0)
(1.04732 -0.0577736 0)
(1.05104 -0.0574381 0)
(1.05469 -0.0568201 0)
(1.05823 -0.0559339 0)
(1.06166 -0.054806 0)
(1.00001 -0.000277411 0)
(0.999865 -0.0010617 0)
(0.999741 -0.00195062 0)
(0.999575 -0.00297316 0)
(0.999341 -0.0042314 0)
(0.999128 -0.00558612 0)
(0.998924 -0.00706538 0)
(0.998718 -0.0086352 0)
(0.998501 -0.0102757 0)
(0.998308 -0.0119796 0)
(0.998167 -0.013708 0)
(0.998074 -0.0154827 0)
(0.998029 -0.0173072 0)
(0.99805 -0.0192016 0)
(0.998156 -0.0211745 0)
(0.998366 -0.0232428 0)
(0.998705 -0.0254171 0)
(0.999188 -0.0277048 0)
(0.999846 -0.0301094 0)
(1.0007 -0.0326238 0)
(1.00177 -0.0352381 0)
(1.00308 -0.0379309 0)
(1.00465 -0.0406806 0)
(1.0065 -0.0434537 0)
(1.00864 -0.0462174 0)
(1.01106 -0.0489289 0)
(1.01379 -0.0515486 0)
(1.0168 -0.054028 0)
(1.02008 -0.056329 0)
(1.02361 -0.0584037 0)
(1.02736 -0.0602222 0)
(1.0313 -0.0617426 0)
(1.0354 -0.0629497 0)
(1.03961 -0.0638117 0)
(1.04387 -0.0643293 0)
(1.04817 -0.0644863 0)
(1.05244 -0.064297 0)
(1.05666 -0.0637631 0)
(1.06077 -0.0629051 0)
(1.06477 -0.0617459 0)
(1.00001 -0.000220757 0)
(0.999824 -0.00102806 0)
(0.999699 -0.00184848 0)
(0.999487 -0.00287029 0)
(0.999211 -0.00411348 0)
(0.998958 -0.00543331 0)
(0.998681 -0.00691369 0)
(0.998393 -0.00847743 0)
(0.998077 -0.0101246 0)
(0.997779 -0.0118395 0)
(0.997524 -0.0135768 0)
(0.997299 -0.01538 0)
(0.99711 -0.0172372 0)
(0.996974 -0.0191828 0)
(0.996913 -0.0212216 0)
(0.996948 -0.0233791 0)
(0.997102 -0.025667 0)
(0.997396 -0.0280997 0)
(0.997863 -0.0306823 0)
(0.998527 -0.033414 0)
(0.999424 -0.0362868 0)
(1.00058 -0.0392808 0)
(1.00201 -0.0423753 0)
(1.00376 -0.045534 0)
(1.00583 -0.048722 0)
(1.00824 -0.0518927 0)
(1.011 -0.0549993 0)
(1.01411 -0.0579853 0)
(1.01755 -0.0608033 0)
(1.02132 -0.0633934 0)
(1.02538 -0.0657144 0)
(1.02969 -0.0677119 0)
(1.03423 -0.0693608 0)
(1.03894 -0.0706157 0)
(1.04376 -0.0714723 0)
(1.04865 -0.0719026 0)
(1.05355 -0.0719209 0)
(1.05842 -0.0715204 0)
(1.06319 -0.0707282 0)
(1.06784 -0.0695617 0)
(1 -0.00014305 0)
(0.999775 -0.00101377 0)
(0.999658 -0.00171645 0)
(0.999391 -0.002774 0)
(0.999089 -0.00395985 0)
(0.998789 -0.00525352 0)
(0.998439 -0.00672729 0)
(0.998071 -0.00827518 0)
(0.997653 -0.009921 0)
(0.997253 -0.0116347 0)
(0.996881 -0.0133666 0)
(0.996518 -0.0151903 0)
(0.99618 -0.017061 0)
(0.995879 -0.0190476 0)
(0.995641 -0.0211327 0)
(0.995484 -0.0233656 0)
(0.995434 -0.0257491 0)
(0.995515 -0.0283123 0)
(0.995762 -0.0310575 0)
(0.996203 -0.0339955 0)
(0.996884 -0.0371179 0)
(0.997829 -0.0404125 0)
(0.99908 -0.0438601 0)
(1.00066 -0.0474222 0)
(1.00262 -0.0510638 0)
(1.00495 -0.0547345 0)
(1.0077 -0.0583809 0)
(1.01085 -0.06194 0)
(1.01442 -0.0653538 0)
(1.0184 -0.0685488 0)
(1.02275 -0.0714706 0)
(1.02744 -0.0740494 0)
(1.03243 -0.0762455 0)
(1.03768 -0.0779976 0)
(1.04311 -0.0792916 0)
(1.04867 -0.0800848 0)
(1.05428 -0.0803882 0)
(1.05989 -0.0801842 0)
(1.06542 -0.0795051 0)
(1.07084 -0.0783622 0)
(0.999998 -3.75808e-05 0)
(0.999719 -0.00103417 0)
(0.99962 -0.00154262 0)
(0.999286 -0.00270024 0)
(0.998982 -0.0037531 0)
(0.998619 -0.00506657 0)
(0.998201 -0.00649881 0)
(0.997753 -0.00803894 0)
(0.997235 -0.00966494 0)
(0.996737 -0.011371 0)
(0.996244 -0.0130796 0)
(0.99574 -0.0149209 0)
(0.995251 -0.0167784 0)
(0.994776 -0.0188025 0)
(0.994354 -0.0209048 0)
(0.993991 -0.0232045 0)
(0.993722 -0.0256562 0)
(0.993566 -0.0283362 0)
(0.993566 -0.0312201 0)
(0.993749 -0.0343507 0)
(0.99417 -0.0377053 0)
(0.994857 -0.0412925 0)
(0.995865 -0.0450913 0)
(0.99723 -0.049066 0)
(0.998992 -0.0531846 0)
(1.00119 -0.0573916 0)
(1.00385 -0.0616286 0)
(1.00699 -0.0658282 0)
(1.01063 -0.0699203 0)
(1.01477 -0.0738178 0)
(1.01938 -0.0774511 0)
(1.02444 -0.0807322 0)
(1.0299 -0.083601 0)
(1.03572 -0.0859772 0)
(1.04181 -0.0878306 0)
(1.04811 -0.0891 0)
(1.05453 -0.0897864 0)
(1.061 -0.0898605 0)
(1.06742 -0.0893548 0)
(1.07372 -0.088275 0)
(0.999991 0.000100354 0)
(0.999659 -0.00110538 0)
(0.99959 -0.00131137 0)
(0.999174 -0.002667 0)
(0.998896 -0.00347176 0)
(0.998442 -0.00490274 0)
(0.997979 -0.00620869 0)
(0.997441 -0.00779186 0)
(0.996834 -0.00934584 0)
(0.996238 -0.0110635 0)
(0.995621 -0.0127126 0)
(0.994977 -0.014584 0)
(0.994336 -0.0163855 0)
(0.993681 -0.018461 0)
(0.993071 -0.020531 0)
(0.992488 -0.0229064 0)
(0.991989 -0.0253778 0)
(0.991574 -0.0281737 0)
(0.991303 -0.0311533 0)
(0.991191 -0.0344689 0)
(0.991314 -0.0380216 0)
(0.991688 -0.0418932 0)
(0.992393 -0.0460247 0)
(0.993468 -0.0504128 0)
(0.994966 -0.0550208 0)
(0.996942 -0.0597928 0)
(0.99944 -0.0646671 0)
(1.00249 -0.0695736 0)
(1.00612 -0.0744279 0)
(1.01036 -0.0791324 0)
(1.01518 -0.0836001 0)
(1.02058 -0.0877215 0)
(1.02651 -0.0914107 0)
(1.03292 -0.0945651 0)
(1.03973 -0.097129 0)
(1.04685 -0.0990175 0)
(1.05419 -0.100213 0)
(1.06164 -0.100672 0)
(1.06909 -0.100418 0)
(1.07645 -0.0994532 0)
(0.999993 0.000271477 0)
(0.999593 -0.00123817 0)
(0.99958 -0.00100896 0)
(0.999055 -0.00269081 0)
(0.998842 -0.00309639 0)
(0.998252 -0.00479605 0)
(0.997789 -0.0058286 0)
(0.99713 -0.00757027 0)
(0.996465 -0.00893887 0)
(0.995755 -0.0107436 0)
(0.995028 -0.01225 0)
(0.994236 -0.0142053 0)
(0.99345 -0.0158692 0)
(0.992605 -0.0180487 0)
(0.991814 -0.0199942 0)
(0.990992 -0.0224976 0)
(0.990263 -0.0248918 0)
(0.98956 -0.0278444 0)
(0.989005 -0.0308299 0)
(0.988559 -0.0343552 0)
(0.988352 -0.0380306 0)
(0.988353 -0.042199 0)
(0.988702 -0.0466111 0)
(0.989405 -0.0514186 0)
(0.990557 -0.0565011 0)
(0.992221 -0.0618601 0)
(0.994456 -0.0674077 0)
(0.997311 -0.0730841 0)
(1.00085 -0.0787851 0)
(1.00509 -0.0844079 0)
(1.01005 -0.0898443 0)
(1.01574 -0.0949613 0)
(1.02212 -0.0996429 0)
(1.02913 -0.10376 0)
(1.0367 -0.107219 0)
(1.04473 -0.109907 0)
(1.05311 -0.111774 0)
(1.06169 -0.112755 0)
(1.07035 -0.112858 0)
(1.07895 -0.112076 0)
(1.00003 0.00047079 0)
(0.999505 -0.00143055 0)
(0.999618 -0.000632291 0)
(0.998913 -0.00277981 0)
(0.998841 -0.00261859 0)
(0.998033 -0.00477079 0)
(0.997656 -0.00533314 0)
(0.996804 -0.007413 0)
(0.996156 -0.00841156 0)
(0.995276 -0.0104564 0)
(0.994488 -0.0116621 0)
(0.993515 -0.0138281 0)
(0.992618 -0.0152016 0)
(0.991553 -0.0176109 0)
(0.99061 -0.0192609 0)
(0.989511 -0.0220295 0)
(0.988578 -0.0241539 0)
(0.987539 -0.0274009 0)
(0.986714 -0.0301959 0)
(0.985873 -0.034051 0)
(0.985331 -0.0376693 0)
(0.98488 -0.0422269 0)
(0.984841 -0.0467759 0)
(0.98507 -0.0520655 0)
(0.985803 -0.0575345 0)
(0.987035 -0.0635255 0)
(0.988897 -0.0697372 0)
(0.991435 -0.0762513 0)
(0.994753 -0.0828717 0)
(0.998887 -0.0895351 0)
(1.00389 -0.0960862 0)
(1.00978 -0.102376 0)
(1.01655 -0.108251 0)
(1.02415 -0.11355 0)
(1.03251 -0.118132 0)
(1.04154 -0.121842 0)
(1.05108 -0.124589 0)
(1.06098 -0.126272 0)
(1.07106 -0.126866 0)
(1.08114 -0.126356 0)
(1.00017 0.000685792 0)
(0.999339 -0.00166514 0)
(0.999765 -0.000193931 0)
(0.998696 -0.00292554 0)
(0.998943 -0.00204981 0)
(0.997742 -0.0048288 0)
(0.997629 -0.00471573 0)
(0.996425 -0.00734129 0)
(0.995951 -0.00774168 0)
(0.994764 -0.0102414 0)
(0.994047 -0.0109171 0)
(0.992782 -0.0135016 0)
(0.991882 -0.0143459 0)
(0.990503 -0.017207 0)
(0.989502 -0.0182826 0)
(0.988028 -0.021579 0)
(0.986984 -0.0230932 0)
(0.985498 -0.0269405 0)
(0.98449 -0.0291546 0)
(0.983129 -0.0336624 0)
(0.982321 -0.0368187 0)
(0.981271 -0.0420689 0)
(0.980885 -0.0463821 0)
(0.980473 -0.0524067 0)
(0.980773 -0.0579692 0)
(0.98139 -0.0647786 0)
(0.982796 -0.0714864 0)
(0.984833 -0.0789782 0)
(0.987798 -0.0865072 0)
(0.991656 -0.0943725 0)
(0.996561 -0.102175 0)
(1.00254 -0.109852 0)
(1.00961 -0.117159 0)
(1.01775 -0.123909 0)
(1.02693 -0.129898 0)
(1.03701 -0.134917 0)
(1.04786 -0.138812 0)
(1.05928 -0.141429 0)
(1.07104 -0.142693 0)
(1.0829 -0.142571 0)
(1.00051 0.000900339 0)
(0.998983 -0.00191369 0)
(1.00013 0.000275769 0)
(0.998295 -0.00310062 0)
(0.999241 -0.00142333 0)
(0.997281 -0.00494423 0)
(0.997797 -0.00400055 0)
(0.995899 -0.0073432 0)
(0.995937 -0.00693898 0)
(0.994132 -0.0101063 0)
(0.99379 -0.0100084 0)
(0.991956 -0.0132511 0)
(0.991328 -0.0132823 0)
(0.989375 -0.0168802 0)
(0.988579 -0.0170212 0)
(0.986468 -0.0212172 0)
(0.98558 -0.0216378 0)
(0.983365 -0.0265783 0)
(0.982442 -0.0275819 0)
(0.98026 -0.0333554 0)
(0.979443 -0.0352942 0)
(0.977469 -0.0419261 0)
(0.976969 -0.0451905 0)
(0.975563 -0.0526418 0)
(0.975601 -0.0575212 0)
(0.975245 -0.0657685 0)
(0.976262 -0.072351 0)
(0.977447 -0.0812961 0)
(0.979998 -0.0893754 0)
(0.98328 -0.0988105 0)
(0.987959 -0.107824 0)
(0.993809 -0.11722 0)
(1.00106 -0.126196 0)
(1.00966 -0.134757 0)
(1.01962 -0.142528 0)
(1.03083 -0.149235 0)
(1.04313 -0.154641 0)
(1.0563 -0.158508 0)
(1.07006 -0.160692 0)
(1.08408 -0.161122 0)
(1.0012 0.00109992 0)
(0.998274 -0.00214423 0)
(1.00085 0.00073711 0)
(0.997547 -0.00326729 0)
(0.999877 -0.000788561 0)
(0.996495 -0.00507053 0)
(0.9983 -0.00324101 0)
(0.995075 -0.00737459 0)
(0.996258 -0.00605384 0)
(0.993224 -0.0100161 0)
(0.99387 -0.00897618 0)
(0.990875 -0.0130531 0)
(0.991122 -0.0120409 0)
(0.987998 -0.0166192 0)
(0.988025 -0.0154943 0)
(0.984644 -0.0209527 0)
(0.984567 -0.0197776 0)
(0.980947 -0.0263656 0)
(0.98079 -0.0254083 0)
(0.977079 -0.0332585 0)
(0.976937 -0.0329271 0)
(0.973288 -0.042028 0)
(0.973359 -0.04291 0)
(0.970159 -0.0530962 0)
(0.970573 -0.0557624 0)
(0.968419 -0.0668861 0)
(0.969572 -0.0717919 0)
(0.969101 -0.0835586 0)
(0.971551 -0.0908843 0)
(0.973551 -0.103032 0)
(0.978081 -0.112451 0)
(0.983274 -0.124406 0)
(0.990626 -0.134914 0)
(0.999438 -0.145928 0)
(1.01015 -0.155886 0)
(1.02251 -0.16482 0)
(1.03641 -0.17226 0)
(1.05161 -0.177818 0)
(1.06775 -0.181302 0)
(1.08444 -0.182534 0)
(1.00234 0.00127735 0)
(0.997076 -0.00232883 0)
(1.00204 0.00115471 0)
(0.996303 -0.00338704 0)
(1.00099 -0.000200948 0)
(0.995231 -0.00515547 0)