/*--------------------------------*- C++ -*----------------------------------*\
| =========                 |                                                 |
| \\      /  F ield         | OpenFOAM: The Open Source CFD Toolbox           |
|  \\    /   O peration     | Version:  2512                                  |
|   \\  /    A nd           | Website:  www.openfoam.com                      |
|    \\/     M anipulation  |                                                 |
\*---------------------------------------------------------------------------*/
FoamFile
{
    version     2.0;
    format      ascii;
    arch        "LSB;label=32;scalar=64";
    class       volScalarField;
    location    "63";
    object      p;
}
// * * * * * * * * * * * * * * * * * * * * * * * * * * * * * * * * * * * * * //

dimensions      [0 2 -2 0 0 0 0];

internalField   nonuniform List<scalar> 
13248
(
-0.528751
-0.527466
-0.524423
-0.520383
-0.516094
-0.512337
-0.509702
-0.508359
-0.507957
-0.507675
-0.506393
-0.502954
-0.496409
-0.486212
-0.472298
-0.455008
-0.434909
-0.412605
-0.388616
-0.363413
-0.337052
-0.310185
-0.281033
-0.250633
-0.53585
-0.534274
-0.531203
-0.527242
-0.522979
-0.518915
-0.515284
-0.511921
-0.50828
-0.503588
-0.497055
-0.488079
-0.47637
-0.461974
-0.445189
-0.426422
-0.406068
-0.384466
-0.361885
-0.338532
-0.314594
-0.290199
-0.265199
-0.240714
-0.545684
-0.543379
-0.540016
-0.535918
-0.531412
-0.526619
-0.521359
-0.515198
-0.507618
-0.498192
-0.486686
-0.473098
-0.457616
-0.440539
-0.422172
-0.402777
-0.382565
-0.361714
-0.340359
-0.318693
-0.296743
-0.274819
-0.252644
-0.230386
-0.55796
-0.554619
-0.55065
-0.54609
-0.540881
-0.534696
-0.526987
-0.517277
-0.505378
-0.491412
-0.475696
-0.45862
-0.440547
-0.421758
-0.402451
-0.382757
-0.362778
-0.342594
-0.322308
-0.301996
-0.281768
-0.261807
-0.241895
-0.222664
-0.572595
-0.56797
-0.563146
-0.55775
-0.551217
-0.542769
-0.531717
-0.517889
-0.501666
-0.483703
-0.464658
-0.445041
-0.425181
-0.405258
-0.385358
-0.365523
-0.345779
-0.326166
-0.306723
-0.287518
-0.268615
-0.25009
-0.23186
-0.214159
-0.589646
-0.583586
-0.577702
-0.571004
-0.562309
-0.550547
-0.535304
-0.517051
-0.496763
-0.475432
-0.453793
-0.432288
-0.411124
-0.390369
-0.370029
-0.350087
-0.330534
-0.311368
-0.292603
-0.274263
-0.256379
-0.238997
-0.222066
-0.205828
-0.609157
-0.601578
-0.594386
-0.585738
-0.573808
-0.55764
-0.537581
-0.514885
-0.490944
-0.466814
-0.443117
-0.420136
-0.39795
-0.376539
-0.355853
-0.335838
-0.31645
-0.297658
-0.279443
-0.261798
-0.244724
-0.228209
-0.212252
-0.196922
-0.630923
-0.621783
-0.612917
-0.601431
-0.585058
-0.563567
-0.538407
-0.511492
-0.484339
-0.457856
-0.432455
-0.408252
-0.385213
-0.363255
-0.342282
-0.322209
-0.302965
-0.284491
-0.266741
-0.249681
-0.233276
-0.217506
-0.202373
-0.187825
-0.654347
-0.643628
-0.632564
-0.617125
-0.595174
-0.567811
-0.537613
-0.506844
-0.476889
-0.448387
-0.421528
-0.396276
-0.372511
-0.350095
-0.328897
-0.308804
-0.289714
-0.271546
-0.254225
-0.23769
-0.221886
-0.206774
-0.192325
-0.178392
-0.678389
-0.666067
-0.652093
-0.631502
-0.603115
-0.569741
-0.534811
-0.5006
-0.468192
-0.437932
-0.409801
-0.383643
-0.359264
-0.33648
-0.315124
-0.295054
-0.276144
-0.258287
-0.24139
-0.225368
-0.210149
-0.195683
-0.181893
-0.168595
-0.701583
-0.687608
-0.66981
-0.642957
-0.607638
-0.568412
-0.529158
-0.491903
-0.457355
-0.425571
-0.396357
-0.369451
-0.344595
-0.321559
-0.300144
-0.280177
-0.261509
-0.244013
-0.227575
-0.212095
-0.197491
-0.183696
-0.170587
-0.158011
-0.722159
-0.706445
-0.683798
-0.64976
-0.607353
-0.56262
-0.519506
-0.479615
-0.443257
-0.410224
-0.380163
-0.352719
-0.327573
-0.30445
-0.283118
-0.263375
-0.245051
-0.228
-0.212093
-0.197216
-0.183285
-0.170232
-0.157921
-0.146264
-0.463336
-0.463263
-0.463403
-0.465224
-0.469341
-0.4759
-0.484891
-0.496281
-0.509996
-0.525856
-0.543523
-0.562458
-0.581901
-0.600868
-0.618139
-0.632251
-0.641703
-0.64533
-0.641952
-0.630663
-0.611117
-0.583661
-0.549482
-0.509486
-0.483604
-0.482554
-0.482691
-0.484971
-0.489963
-0.497794
-0.508445
-0.521881
-0.538026
-0.556689
-0.577499
-0.599854
-0.622895
-0.645509
-0.666362
-0.683945
-0.696564
-0.702631
-0.700611
-0.689068
-0.667416
-0.635557
-0.594947
-0.545947
-0.500335
-0.498245
-0.498147
-0.500531
-0.505864
-0.514287
-0.525762
-0.540223
-0.557572
-0.577597
-0.599903
-0.623856
-0.648557
-0.672854
-0.695373
-0.71451
-0.728522
-0.735587
-0.733835
-0.72154
-0.697535
-0.661135
-0.61438
-0.557006
-0.512829
-0.509777
-0.509209
-0.511258
-0.516315
-0.524554
-0.535927
-0.550333
-0.567638
-0.587606
-0.609832
-0.633683
-0.658276
-0.682482
-0.704936
-0.724031
-0.73803
-0.744972
-0.742769
-0.72931
-0.70316
-0.663095
-0.611612
-0.548351
-0.520993
-0.517192
-0.51599
-0.517284
-0.521447
-0.528733
-0.539125
-0.552499
-0.568688
-0.587437
-0.608337
-0.630778
-0.653926
-0.676711
-0.697751
-0.715623
-0.728444
-0.734126
-0.730406
-0.71494
-0.686314
-0.643376
-0.5891
-0.523364
-0.525295
-0.521072
-0.519183
-0.519406
-0.522164
-0.527848
-0.536532
-0.548112
-0.56241
-0.579157
-0.597951
-0.618211
-0.639139
-0.659689
-0.678728
-0.694529
-0.705176
-0.708401
-0.701832
-0.683131
-0.651286
-0.605817
-0.550338
-0.485427
-0.526608
-0.522348
-0.519839
-0.51885
-0.519895
-0.523546
-0.530029
-0.53933
-0.551297
-0.56567
-0.582055
-0.599876
-0.6184
-0.636656
-0.653181
-0.666217
-0.673677
-0.673117
-0.662326
-0.639372
-0.604174
-0.557206
-0.502505
-0.440952
-0.525992
-0.522058
-0.519096
-0.516945
-0.51623
-0.517705
-0.521798
-0.528641
-0.538167
-0.550142
-0.56416
-0.579716
-0.595939
-0.611578
-0.625034
-0.634314
-0.637183
-0.631348
-0.615229
-0.587822
-0.550299
-0.503906
-0.452696
-0.397282
-0.52451
-0.521174
-0.517969
-0.514862
-0.512587
-0.512053
-0.51389
-0.51841
-0.525663
-0.535441
-0.547394
-0.560735
-0.574347
-0.586732
-0.596007
-0.600073
-0.596904
-0.584943
-0.563632
-0.533225
-0.495793
-0.45271
-0.407424
-0.359411
-0.523155
-0.520544
-0.51728
-0.513506
-0.510053
-0.507934
-0.507937
-0.510531
-0.51586
-0.523749
-0.533559
-0.544268
-0.554446
-0.562323
-0.565962
-0.563593
-0.553896
-0.536424
-0.511615
-0.480729
-0.445868
-0.408124
-0.37012
-0.329589
-0.522862
-0.520933
-0.517726
-0.513594
-0.509439
-0.506304
-0.505053
-0.506217
-0.50991
-0.515761
-0.522897
-0.53
-0.535431
-0.537466
-0.534572
-0.525723
-0.510557
-0.489546
-0.463611
-0.434242
-0.402758
-0.370198
-0.338421
-0.304473
-0.5245
-0.52307
-0.519943
-0.515745
-0.511345
-0.507735
-0.505708
-0.505696
-0.507629
-0.510884
-0.514353
-0.516612
-0.51618
-0.511797
-0.502676
-0.488627
-0.470023
-0.447652
-0.422345
-0.395116
-0.36631
-0.33702
-0.307766
-0.278447
-0.460684
-0.405757
-0.359059
-0.325869
-0.312029
-0.315511
-0.333226
-0.359038
-0.383264
-0.393262
-0.378169
-0.33385
-0.272444
-0.213088
-0.169048
-0.143322
-0.13392
-0.137748
-0.153075
-0.183715
-0.234148
-0.292777
-0.332474
-0.327515
-0.282395
-0.220456
-0.163018
-0.121548
-0.0980748
-0.088406
-0.0909476
-0.109772
-0.142476
-0.169937
-0.167576
-0.142442
-0.105917
-0.0761503
-0.0590558
-0.0542637
-0.0667442
-0.0924295
-0.107468
-0.0973829
-0.079725
-0.0625691
-0.0502684
-0.0490218
-0.0595571
-0.0678034
-0.0626739
-0.0482346
-0.0343522
-0.025382
-0.0263575
-0.0282227
-0.0297067
-0.0262679
-0.0104995
-0.000187533
-0.487256
-0.420382
-0.359373
-0.309234
-0.285943
-0.274404
-0.281459
-0.301612
-0.325721
-0.339223
-0.328114
-0.29089
-0.238738
-0.189052
-0.153008
-0.133341
-0.129047
-0.137516
-0.157613
-0.193802
-0.24966
-0.312086
-0.353984
-0.348754
-0.299991
-0.232918
-0.170597
-0.124636
-0.0966903
-0.0827196
-0.0802737
-0.0926923
-0.118964
-0.142546
-0.138603
-0.119303
-0.088411
-0.0648226
-0.0535613
-0.0547121
-0.0740922
-0.106485
-0.125603
-0.113592
-0.0915583
-0.0693082
-0.0515955
-0.0444347
-0.0502923
-0.0565264
-0.0534777
-0.0436241
-0.0356293
-0.0323177
-0.0378391
-0.0422563
-0.0421047
-0.0354624
-0.0153965
-0.00105909
-0.489004
-0.413579
-0.343433
-0.284988
-0.244933
-0.221053
-0.215956
-0.227684
-0.248814
-0.265147
-0.261346
-0.234585
-0.194812
-0.156588
-0.129214
-0.116156
-0.117316
-0.130316
-0.154304
-0.193914
-0.252256
-0.316682
-0.36096
-0.35877
-0.309692
-0.239732
-0.174123
-0.125087
-0.0936113
-0.075773
-0.0686442
-0.0748806
-0.0947793
-0.115655
-0.121654
-0.0969138
-0.0706193
-0.0526231
-0.0468659
-0.0540157
-0.0803336
-0.119246
-0.142575
-0.129446
-0.1023
-0.0749287
-0.0522001
-0.0395366
-0.0407987
-0.0450627
-0.0440206
-0.0387609
-0.0367851
-0.039372
-0.0497652
-0.0569616
-0.055155
-0.04524
-0.0207363
-0.00201781
-0.473168
-0.393161
-0.31862
-0.252907
-0.201882
-0.167599
-0.151007
-0.150945
-0.164434
-0.180496
-0.183597
-0.168906
-0.143171
-0.116849
-0.0983156
-0.0919422
-0.0984975
-0.115445
-0.141783
-0.182177
-0.240372
-0.306104
-0.353262
-0.35642
-0.31064
-0.240367
-0.173438
-0.12283
-0.0890515
-0.0682663
-0.0569729
-0.0574286
-0.0712192
-0.0887867
-0.0936108
-0.0747475
-0.0529903
-0.0398189
-0.0389038
-0.0515487
-0.0843439
-0.129585
-0.157171
-0.143377
-0.111482
-0.0791731
-0.0519813
-0.0344631
-0.0313605
-0.0336774
-0.0345136
-0.0337184
-0.0377603
-0.0464524
-0.0620045
-0.0721758
-0.0687593
-0.0555838
-0.0265021
-0.00300924
-0.44526
-0.365524
-0.292598
-0.225053
-0.167907
-0.124204
-0.0961934
-0.0850897
-0.0872599
-0.0978589
-0.105222
-0.0995592
-0.087129
-0.0720412
-0.0621434
-0.0622932
-0.0738887
-0.0941566
-0.121679
-0.160898
-0.216533
-0.281619
-0.332393
-0.341995
-0.302551
-0.235246
-0.169157
-0.118235
-0.0832599
-0.0605058
-0.0461838
-0.0414135
-0.049312
-0.0633666
-0.0681094
-0.0538937
-0.0360735
-0.0267307
-0.0298007
-0.0469654
-0.0853049
-0.13643
-0.168162
-0.154661
-0.118765
-0.0819393
-0.050934
-0.0293257
-0.0221999
-0.0225905
-0.0251105
-0.0284789
-0.0384697
-0.0534641
-0.0744099
-0.0877516
-0.0828209
-0.0664406
-0.0326376
-0.00397881
-0.409403
-0.335215
-0.268709
-0.2047
-0.147448
-0.0990686
-0.061062
-0.0371951
-0.0277007
-0.0290663
-0.0349336
-0.0341772
-0.0320735
-0.0259939
-0.0236593
-0.029927
-0.0460205
-0.0688207
-0.096536
-0.133238
-0.184471
-0.246681
-0.300412
-0.317533
-0.286327
-0.224796
-0.161761
-0.111848
-0.0765607
-0.0527049
-0.0363464
-0.0275993
-0.0300249
-0.0404575
-0.0456034
-0.0352856
-0.0204917
-0.0138601
-0.0199169
-0.0405474
-0.082993
-0.139041
-0.174666
-0.162685
-0.123861
-0.0831762
-0.0490471
-0.0241974
-0.0135135
-0.0119802
-0.0158725
-0.0230404
-0.0388322
-0.060236
-0.0868299
-0.103571
-0.0972387
-0.0777177
-0.0390381
-0.00487645
-0.370239
-0.305441
-0.248737
-0.191274
-0.137215
-0.0894446
-0.0478897
-0.0139442
0.00860144
0.0185528
0.0185564
0.0137179
0.0154995
0.0159479
0.0128949
0.00206459
-0.0172389
-0.041476
-0.0685434
-0.102164
-0.148374
-0.206493
-0.261797
-0.286471
-0.264324
-0.210229
-0.151961
-0.104322
-0.0695181
-0.0452096
-0.0276438
-0.0159691
-0.013769
-0.020683
-0.0262634
-0.0196132
-0.00676614
-0.00179186
-0.00987416
-0.0325504
-0.0771736
-0.137128
-0.176184
-0.167144
-0.126601
-0.0829721
-0.0464053
-0.0190992
-0.00543848
-0.00200628
-0.00685154
-0.0173567
-0.0387737
-0.0666876
-0.0992062
-0.119558
-0.111905
-0.0892894
-0.04556
-0.00565861
-0.334685
-0.279648
-0.23242
-0.182774
-0.133853
-0.0884477
-0.0472771
-0.0107255
0.0202756
0.0426783
0.0532871
0.0547918
0.054132
0.0504619
0.0438858
0.0304828
0.00969905
-0.014571
-0.040061
-0.0702519
-0.110936
-0.163929
-0.219248
-0.249617
-0.237449
-0.192259
-0.140245
-0.0960327
-0.0624898
-0.0382768
-0.0201978
-0.00660921
-0.000664175
-0.00429481
-0.0100794
-0.00695026
0.00480192
0.00892657
-8.10539e-05
-0.0236332
-0.0686022
-0.130419
-0.172702
-0.167296
-0.126808
-0.0814049
-0.043122
-0.0140571
0.00194582
0.00722913
0.00186539
-0.0115188
-0.0382717
-0.0726179
-0.111417
-0.135629
-0.126708
-0.101012
-0.0520613
-0.0062932
-0.30594
-0.260268
-0.220619
-0.177277
-0.133496
-0.0915435
-0.0520687
-0.0157616
0.0167646
0.0451407
0.0671421
0.0791223
0.0833743
0.0774332
0.0694982
0.0555476
0.0349948
0.0117904
-0.0119534
-0.0394662
-0.0758749
-0.124168
-0.178094
-0.21315
-0.209334
-0.172672
-0.127333
-0.0872448
-0.0555962
-0.031961
-0.013918
0.000624157
0.00937667
0.00876495
0.0032209
0.00433488
0.0140185
0.0178913
0.00891635
-0.0141113
-0.0573854
-0.119512
-0.164742
-0.165501
-0.124627
-0.0785816
-0.0393443
-0.00922117
0.00856264
0.0156212
0.0102363
-0.0054566
-0.0372335
-0.0780719
-0.123507
-0.15173
-0.141547
-0.112751
-0.0584485
-0.00677389
-0.285007
-0.247337
-0.213524
-0.175341
-0.136078
-0.0975375
-0.0603904
-0.0251199
0.00736424
0.0362402
0.0610467
0.0804893
0.0898073
0.0938942
0.0891747
0.0771561
0.0583983
0.0372243
0.0154986
-0.00993349
-0.0428017
-0.0863521
-0.137868
-0.171579
-0.177556
-0.150427
-0.11298
-0.0780307
-0.0490393
-0.0264461
-0.00885975
0.00581222
0.0164173
0.0186157
0.0138661
0.0133025
0.020595
0.0248849
0.0166555
-0.00500447
-0.0454899
-0.105102
-0.152329
-0.158014
-0.119453
-0.0745697
-0.0352793
-0.00484251
0.0141619
0.0231434
0.0180991
0.000640046
-0.0357142
-0.0827111
-0.135171
-0.167743
-0.156308
-0.124396
-0.064632
-0.0071215
-0.268972
-0.239147
-0.209305
-0.174452
-0.138421
-0.103046
-0.0684532
-0.0343039
-0.00165327
0.028499
0.0551463
0.076888
0.0932711
0.102514
0.104678
0.0983845
0.0825787
0.0625172
0.041508
0.0169968
-0.0145329
-0.0563343
-0.106352
-0.154543
-0.152626
-0.131461
-0.100599
-0.0703228
-0.0440376
-0.0225703
-0.0054451
0.0089699
0.020636
0.0254153
0.021949
0.0196957
0.025024
0.0299197
0.0232776
0.00408899
-0.032349
-0.0892126
-0.137357
-0.145361
-0.113041
-0.0702039
-0.0312497
-0.00067089
0.0186975
0.0295036
0.025639
0.00699915
-0.0335399
-0.0866994
-0.146692
-0.183608
-0.170948
-0.135774
-0.0703388
-0.00732723
-0.255132
-0.236255
-0.211755
-0.181362
-0.149786
-0.11809
-0.0862239
-0.0540492
-0.022602
0.00720161
0.0348536
0.059378
0.0778812
0.0934616
0.103338
0.105733
0.0982244
0.0829569
0.0643101
0.0417907
0.0125107
-0.0254354
-0.0695799
-0.101711
-0.115002
-0.104517
-0.0834542
-0.0596582
-0.0372349
-0.017754
-0.00150451
0.012288
0.0241535
0.0305612
0.0282705
0.0246096
0.0281359
0.032346
0.026811
0.0108405
-0.0203029
-0.0722221
-0.11906
-0.128133
-0.102646
-0.064177
-0.0261232
0.00466485
0.0236106
0.0349893
0.0321574
0.0131038
-0.0307087
-0.0894679
-0.15715
-0.198959
-0.185142
-0.146336
-0.0750542
-0.00730103
-0.226396
-0.221139
-0.197847
-0.167404
-0.136635
-0.106867
-0.0775201
-0.0480032
-0.0187027
0.0093965
0.0357506
0.0596271
0.0792843
0.0932127
0.103831
0.110249
0.108209
0.0968093
0.0808618
0.0614512
0.03255
-0.00859025
-0.0528552
-0.0855127
-0.0914704
-0.0817163
-0.0642756
-0.0444407
-0.0255332
-0.0087209
0.00565432
0.0179113
0.0287096
0.0353293
0.0337539
0.02888
0.0305312
0.0346496
0.0326174
0.0197822
-0.00724331
-0.0555201
-0.102619
-0.115546
-0.0928692
-0.0555715
-0.018861
0.0108986
0.0291904
0.0409427
0.039296
0.01996
-0.026601
-0.0906631
-0.166716
-0.2138
-0.198193
-0.155239
-0.0786292
-0.00711526
-0.199151
-0.19755
-0.176801
-0.148126
-0.119525
-0.0927161
-0.0668287
-0.0408334
-0.0147187
0.0106305
0.0343132
0.0556739
0.0730595
0.0882534
0.0996344
0.106943
0.106872
0.0984733
0.0854112
0.0680731
0.0406871
0.00261183
-0.0353549
-0.056805
-0.0642052
-0.0576596
-0.0449643
-0.029776
-0.0146976
-0.000727824
0.0118462
0.0227153
0.0321068
0.037954
0.0364752
0.0314776
0.0321337
0.0358398
0.0341583
0.023808
0.00147211
-0.0418355
-0.0872384
-0.101084
-0.0804636
-0.0456878
-0.0110809
0.0170864
0.0342551
0.0456157
0.0443563
0.0254644
-0.0229033
-0.0921139
-0.176154
-0.228085
-0.210017
-0.163041
-0.0816113
-0.00697203
-0.176165
-0.175124
-0.157969
-0.132911
-0.107293
-0.0831869
-0.0600331
-0.0368022
-0.0132966
0.00975516
0.0315114
0.0513712
0.0684177
0.0825156
0.0933456
0.100443
0.10136
0.0951367
0.0840652
0.0683354
0.0447084
0.0142634
-0.0147715
-0.032849
-0.0400197
-0.0372455
-0.0289512
-0.0175679
-0.00540146
0.00630024
0.0171696
0.0267111
0.0348941
0.0401834
0.0388611
0.0337021
0.0333443
0.0367729
0.0349409
0.0251608
0.00613565
-0.0309851
-0.0703466
-0.0839012
-0.066856
-0.0355527
-0.00352464
0.0229385
0.0389428
0.0498634
0.0486553
0.0300064
-0.0202331
-0.0948167
-0.186066
-0.242219
-0.221496
-0.170264
-0.0841314
-0.00683191
-0.154374
-0.154003
-0.140123
-0.118521
-0.0956799
-0.0739447
-0.0531528
-0.0324678
-0.011578
0.00908364
0.0287883
0.0468976
0.0626597
0.0757433
0.0859622
0.0928501
0.0946632
0.0904967
0.0816645
0.0686984
0.0502701
0.0269171
0.00389161
-0.0121492
-0.0197353
-0.0196034
-0.0144502
-0.00615001
0.00335609
0.0128382
0.022027
0.0303014
0.0372063
0.0416881
0.0405094
0.0354463
0.0343986
0.0372486
0.0353317
0.0258537
0.00992526
-0.0191971
-0.0516105
-0.0653659
-0.0521899
-0.024954
0.00426077
0.0288851
0.0432712
0.0534309
0.0523607
0.0339884
-0.0181618
-0.0976509
-0.195376
-0.255731
-0.232197
-0.176473
-0.0859453
-0.00669274
-0.134187
-0.134822
-0.123611
-0.105118
-0.0849911
-0.0656274
-0.0471495
-0.0288959
-0.0104856
0.00785104
0.0255049
0.0418761
0.0563528
0.0685115
0.0781455
0.0848577
0.0874702
0.0852488
0.0788757
0.068861
0.0545877
0.0364327
0.0181326
0.00439754
-0.00314715
-0.00479425
-0.0021331
0.00358024
0.0108975
0.0185586
0.0262149
0.0333336
0.039189
0.0428427
0.0418103
0.0370424
0.0355027
0.0375163
0.0353363
0.0264359
0.0146965
-0.00584861
-0.03218
-0.0458986
-0.036858
-0.0142435
0.0117531
0.0345116
0.0471984
0.0563009
0.0554454
0.0377048
-0.0157451
-0.0994282
-0.203264
-0.26779
-0.241477
-0.181238
-0.0869169
-0.00656549
-0.116439
-0.117583
-0.108438
-0.0926713
-0.0751235
-0.0580658
-0.0417787
-0.0257631
-0.00963339
0.00651445
0.0222008
0.0368773
0.0500529
0.0612727
0.0702752
0.0767276
0.079864
0.079115
0.0747438
0.0671186
0.056158
0.042382
0.0282286
0.0167557
0.00966611
0.00706233
0.00814581
0.0120224
0.0175811
0.023677
0.0299092
0.0358953
0.0408415
0.04372
0.0428656
0.0386756
0.0369691
0.0379886
0.03535
0.0275379
0.0203649
0.00753455
-0.0131395
-0.0265309
-0.0215231
-0.00375064
0.0188837
0.0398145
0.0506998
0.0584232
0.0578233
0.0412975
-0.0124383
-0.0997251
-0.209056
-0.277431
-0.24857
-0.184035
-0.0868324
-0.00644229
-0.100484
-0.101834
-0.0944357
-0.0811117
-0.0659696
-0.0511013
-0.0368737
-0.0229128
-0.00885576
0.0052688
0.0190767
0.0320804
0.0439718
0.0542134
0.0625227
0.0686342
0.072049
0.0723479
0.0696049
0.0640947
0.0559721
0.045715
0.0348981
0.0256187
0.0194026
0.0165236
0.0166268
0.0191095
0.0232094
0.0280172
0.0330411
0.0379855
0.0421746
0.0444609
0.0437909
0.0403824
0.0388305
0.0391712
0.0357364
0.0293168
0.0260703
0.020062
0.00472029
-0.00817552
-0.00676715
0.00624925
0.0253647
0.0445298
0.0537754
0.059844
0.0595411
0.0448514
-0.00824334
-0.0984112
-0.211981
-0.28352
-0.252586
-0.184297
-0.0855138
-0.00631996
-0.0858534
-0.0874782
-0.081601
-0.0704338
-0.0574782
-0.0446383
-0.0323104
-0.0202107
-0.00802751
0.00423832
0.0162707
0.0275248
0.0382992
0.047559
0.0551727
0.0609348
0.0645063
0.0655883
0.0641713
0.0604317
0.0545897
0.0470921
0.0390139
0.0317789
0.0265858
0.0237963
0.0233532
0.0249075
0.0279171
0.0316834
0.0357066
0.0397114
0.0432109
0.0450936
0.0446294
0.0421178
0.0409454
0.0411777
0.0378067
0.0323136
0.0320785
0.0316141
0.0205899
0.00807783
0.00667445
0.0154277
0.0310682
0.0485166
0.056433
0.0606632
0.0606745
0.0482064
-0.00343401
-0.0952318
-0.211192
-0.284878
-0.252603
-0.181449
-0.0827822
-0.00618048
-0.072683
-0.0745121
-0.0698956
-0.0605986
-0.0495929
-0.0385829
-0.0279734
-0.0175582
-0.00707013
0.00353521
0.0140794
0.0243502
0.0333992
0.0415693
0.0484761
0.0538724
0.0574979
0.0591331
0.0587402
0.0564302
0.0524348
0.0471472
0.0413027
0.0358354
0.0316916
0.029257
0.0286111
0.0295606
0.0317454
0.0346613
0.0378766
0.0411075
0.0440035
0.0456193
0.0454061
0.0437802
0.04314
0.0437674
0.0415255
0.037774
0.0395341
0.0419548
0.0333609
0.0212959
0.0182935
0.0235822
0.0358719
0.0515647
0.0586232
0.0609913
0.0612355
0.0511305
0.00184039
-0.0897983
-0.205837
-0.28034
-0.24769
-0.174971
-0.0785247
-0.00601367
-0.0608822
-0.0627656
-0.0591945
-0.0515214
-0.0422345
-0.0328544
-0.0237946
-0.014908
-0.00595756
0.00311837
0.0121741
0.0209424
0.029017
0.0362857
0.0425276
0.047545
0.0511415
0.0531585
0.0535512
0.0523923
0.0498815
0.0463333
0.042287
0.0383298
0.0351839
0.0332154
0.0325619
0.0331447
0.0347578
0.0370283
0.039601
0.0422162
0.0446164
0.0460363
0.0461092
0.0453071
0.0452545
0.0465386
0.0464917
0.0455459
0.0478516
0.050049
0.0424315
0.0314078
0.0279535
0.0305935
0.0397242
0.0535058
0.0601732
0.0608798
0.0612235
0.053507
0.00750447
-0.0818037
-0.195204
-0.268907
-0.237032
-0.164484
-0.0726799
-0.00581474
-0.0501647
-0.0520791
-0.0493919
-0.0431224
-0.035353
-0.0274287
-0.0197539
-0.0122277
-0.00464701
0.00305203
0.0107596
0.0182899
0.0253562
0.0317818
0.0373913
0.0420258
0.045535
0.0478011
0.0487799
0.0485154
0.0471635
0.0449717
0.0423441
0.0396442
0.0373939
0.035929
0.0354149
0.0358214
0.0370525
0.0388428
0.0409094
0.0430461
0.045068
0.0463582
0.0467117
0.0466296
0.0471616
0.0489943
0.0511045
0.0525333
0.0544779
0.05498
0.0481736
0.0388774
0.0356419
0.0364043
0.0426331
0.0542302
0.0607253
0.0603084
0.0605721
0.055158
0.013266
-0.0712338
-0.178844
-0.249805
-0.220016
-0.149865
-0.0652673
-0.00558165
-0.0404652
-0.0424032
-0.0404494
-0.0353786
-0.0289263
-0.0222739
-0.0158126
-0.00948145
-0.00310891
0.00336566
0.00983271
0.0163264
0.0224558
0.028094
0.0331013
0.0373505
0.0407207
0.0431204
0.0445128
0.0449221
0.0444648
0.0433226
0.0417533
0.0400925
0.038634
0.0376701
0.0373663
0.0377165
0.0387046
0.0401589
0.0418483
0.0436239
0.0453659
0.0465866
0.0471865
0.0476694
0.0486941
0.0508311
0.0539308
0.0567162
0.0579845
0.0570947
0.0513472
0.0440152
0.0411965
0.0409541
0.044649
0.0538461
0.0598378
0.0590895
0.0590347
0.0556076
0.0184297
-0.0584624
-0.156596
-0.222653
-0.196453
-0.131402
-0.0564509
-0.00530089
-0.0317983
-0.0336812
-0.0322915
-0.0282167
-0.0228957
-0.0173526
-0.0119529
-0.00666134
-0.0013263
0.004133
0.00969995
0.0150879
0.0203144
0.0252111
0.0296442
0.0335049
0.036693
0.0391348
0.0407984
0.0416937
0.0419049
0.0415584
0.0408157
0.0399523
0.0391575
0.0386468
0.0385782
0.0389581
0.0398108
0.0410415
0.0424603
0.0439692
0.045507
0.0466964
0.047489
0.048363
0.0497257
0.0519099
0.0550229
0.0581367
0.0590425
0.0574656
0.0527072
0.0471058
0.0448034
0.0442046
0.045814
0.0525805
0.0573765
0.0569774
0.0560516
0.0539884
0.022111
-0.0442701
-0.129065
-0.188053
-0.166942
-0.109919
-0.046625
-0.00494068
-0.0239902
-0.0257454
-0.0248237
-0.0215953
-0.01725
-0.0126701
-0.00819181
-0.0038035
0.000618586
0.00514353
0.0097707
0.0143635
0.0188327
0.0230676
0.0269676
0.0304447
0.0334193
0.0358301
0.0376456
0.0388681
0.0395559
0.0397969
0.0396889
0.0394316
0.0391666
0.0390474
0.0392106
0.0396697
0.0404595
0.041547
0.0427808
0.0440971
0.0454842
0.0466561
0.0475816
0.0486845
0.0502134
0.0521562
0.0549221
0.0577883
0.0586017
0.0568597
0.0529068
0.048636
0.0467654
0.04618
0.0462663
0.0507141
0.0535626
0.0539501
0.051279
0.0496464
0.0236645
-0.0297508
-0.0978593
-0.147832
-0.133035
-0.0868154
-0.0364365
-0.00445323
-0.0170039
-0.0187138
-0.0180995
-0.0155378
-0.0119965
-0.00822956
-0.00453798
-0.00092386
0.00271783
0.00646575
0.0103017
0.0141616
0.0179549
0.0215945
0.0250016
0.028106
0.0308436
0.0331634
0.0350371
0.0364613
0.0374787
0.0381124
0.0384736
0.0386751
0.0388258
0.0390303
0.0393995
0.0399568
0.0407318
0.0417304
0.0428442
0.0440237
0.0452915
0.0464442
0.0474476
0.048648
0.0501946
0.0518972
0.0541217
0.0564676
0.0572546
0.0556679
0.0524251
0.0491207
0.0475372
0.0470286
0.0462938
0.0484941
0.0491451
0.0452574
0.0454659
0.0429252
0.022891
-0.0164093
-0.0661439
-0.105893
-0.0979897
-0.0640608
-0.0267172
-0.00380947
-0.0106529
-0.0122599
-0.011966
-0.00998933
-0.00712978
-0.00403965
-0.00100547
0.00195825
0.00494083
0.00801496
0.0111855
0.0144051
0.0176032
0.0207106
0.0236655
0.0264119
0.0288977
0.0310816
0.0329375
0.0344539
0.0356427
0.0365695
0.0372604
0.0377977
0.0382597
0.0387192
0.0392602
0.0399141
0.040702
0.0416468
0.0426821
0.0437644
0.0449319
0.0460526
0.0470847
0.0482816
0.0497434
0.0512227
0.0529299
0.0546981
0.0553954
0.0541187
0.0515231
0.0489154
0.0475383
0.0469853
0.0459983
0.046402
0.0457287
0.042137
0.040456
0.0359233
0.0211885
-0.00494314
-0.037837
-0.0672834
-0.0640635
-0.0435888
-0.0182648
-0.0030362
-0.0049965
-0.00649045
-0.00640046
-0.00487899
-0.00258635
-7.94383e-05
0.00239015
0.00480265
0.00723166
0.00974179
0.0123467
0.0150151
0.0176939
0.0203288
0.0228714
0.0252779
0.0275066
0.0295239
0.0313075
0.0328444
0.0341416
0.0352239
0.0361229
0.0368861
0.0375667
0.0382151
0.0388903
0.0396249
0.040436
0.0413472
0.0423267
0.0433385
0.0444159
0.0454865
0.0465054
0.0476347
0.0489631
0.0502167
0.0515087
0.0527683
0.0533061
0.0523561
0.0503295
0.0482509
0.0470148
0.046329
0.0453655
0.0448382
0.0433104
0.0397237
0.0369291
0.0315272
0.0202645
0.00395768
-0.0163286
-0.0366278
-0.0378347
-0.0271639
-0.0116771
-0.00223968
4.49405e-05
-0.00129897
-0.00134372
-0.000192044
0.0016242
0.00364043
0.00563639
0.00758684
0.00955141
0.0115882
0.0137154
0.0159138
0.0181436
0.0203623
0.0225324
0.0246196
0.0265907
0.0284172
0.0300889
0.0315961
0.032922
0.0340827
0.0350985
0.0359998
0.0368213
0.0375973
0.0383674
0.0391601
0.0399914
0.0408784
0.0418119
0.0427661
0.0437617
0.0447649
0.0457368
0.0467602
0.0478701
0.0489612
0.0499487
0.0508159
0.0511758
0.0504814
0.048929
0.0472629
0.0461153
0.045305
0.0443427
0.0432965
0.0414675
0.0380472
0.0346029
0.0295178
0.0196168
0.00887587
-0.00334372
-0.0163337
-0.0197021
-0.0159452
-0.00703185
-0.00149596
0.00459919
0.00338341
0.0032266
0.00407558
0.00550237
0.00711506
0.00871858
0.0102844
0.0118619
0.0135035
0.0152298
0.0170297
0.018874
0.02073
0.0225682
0.0243608
0.0260752
0.027666
0.0292519
0.0306807
0.031976
0.033148
0.0342095
0.0351786
0.0360769
0.0369265
0.0377534
0.0385794
0.0394184
0.0402822
0.041172
0.0420718
0.0429918
0.0439163
0.0448193
0.0457318
0.0466728
0.0475633
0.0483168
0.0489012
0.0491044
0.0485772
0.0473921
0.0460375
0.0449505
0.0440268
0.0429806
0.0416458
0.0397583
0.0368076
0.0343814
0.028626
0.0198181
0.0116509
0.00349825
-0.00499941
-0.00890606
-0.00845956
-0.00381766
-0.000831068
0.0086595
0.00755995
0.00733386
0.0079526
0.00906662
0.0103469
0.0116247
0.0128716
0.0141282
0.0154415
0.0168327
0.0182966
0.0198127
0.0213564
0.0229068
0.0244484
0.0259666
0.0274582
0.0287908
0.030073
0.0312829
0.0324127
0.0334649
0.0344469
0.0353703
0.0362481
0.0370965
0.0379303
0.0387611
0.0395962
0.04044
0.0412833
0.0421296
0.042971
0.0437915
0.0445913
0.0453782
0.0460912
0.0466628
0.0470469
0.0471295
0.0466996
0.0457752
0.0446496
0.0436082
0.0425948
0.0414497
0.0399876
0.0380497
0.0353738
0.0325144
0.0278274
0.0206995
0.0142909
0.00809237
0.00164786
-0.00242555
-0.00353443
-0.00154932
-0.00027031
0.0122595
0.011292
0.0110327
0.0114713
0.0123289
0.0133344
0.0143433
0.0153277
0.0163199
0.0173612
0.0184731
0.0196541
0.0208897
0.0221615
0.0234523
0.0247493
0.0260388
0.0273038
0.0285167
0.0296814
0.0307951
0.0318549
0.0328609
0.0338157
0.0347244
0.0355936
0.0364328
0.0372509
0.0380565
0.0388537
0.0396462
0.0404286
0.0412013
0.0419579
0.0426881
0.0433788
0.0440292
0.0445929
0.0450199
0.0452615
0.045256
0.0448768
0.0441255
0.0431595
0.0421558
0.0410897
0.0398666
0.0383413
0.0363905
0.0338758
0.0309699
0.027003
0.0214882
0.0163018
0.0111856
0.00575922
0.00173014
-0.00019123
0.000103575
0.000181878
0.0154757
0.0146283
0.01435
0.0146468
0.0152976
0.0160791
0.0168677
0.0176367
0.0184119
0.0192289
0.0201087
0.0210522
0.0220491
0.0230858
0.0241488
0.0252272
0.026312
0.0273923
0.0284526
0.0294857
0.0304878
0.0314565
0.0323902
0.0332884
0.0341523
0.0349842
0.0357887
0.0365705
0.0373349
0.0380833
0.0388181
0.0395349
0.0402328
0.0409046
0.041543
0.0421308
0.0426617
0.043101
0.0434114
0.0435488
0.0434773
0.0431213
0.0424764
0.0416168
0.0406487
0.0395588
0.038291
0.0367404
0.0348135
0.0324242
0.0296194
0.0261388
0.0217096
0.0173712
0.0129965
0.00833357
0.00450421
0.00214017
0.00132912
0.000534496
0.0183315
0.0175932
0.0173118
0.0175017
0.0179875
0.0185865
0.0191945
0.0197872
0.0203851
0.0210182
0.0217056
0.0224506
0.0232456
0.024081
0.024947
0.0258338
0.0267352
0.0276452
0.0285542
0.0294519
0.0303338
0.0311978
0.0320417
0.0328629
0.0336602
0.0344329
0.0351828
0.035911
0.03662
0.0373095
0.03798
0.0386269
0.0392482
0.0398361
0.0403845
0.040877
0.0413041
0.0416385
0.0418532
0.0419108
0.041788
0.0414372
0.0408527
0.0400635
0.0391282
0.0380358
0.0367537
0.0352069
0.033329
0.0310609
0.0284108
0.0252828
0.0215687
0.0178188
0.01398
0.0099269
0.00635727
0.00376088
0.00222892
0.000801969
0.0208587
0.0202232
0.01995
0.0200588
0.0204122
0.0208626
0.0213233
0.0217722
0.0222255
0.0227082
0.0232373
0.023817
0.0244425
0.0251063
0.0258021
0.026523
0.0272626
0.0280182
0.02878
0.0295445
0.0303046
0.0310575
0.0318012
0.0325324
0.0332485
0.0339468
0.0346271
0.0352882
0.0359307
0.0365525
0.0371525
0.0377258
0.0382697
0.0387757
0.0392367
0.0396409
0.0399768
0.0402218
0.0403561
0.0403489
0.0401836
0.0398278
0.0392756
0.0385313
0.0376249
0.0365446
0.0352705
0.0337496
0.0319374
0.0297919
0.0273114
0.0244671
0.0212359
0.0179093
0.0144735
0.0108872
0.0075713
0.00487013
0.00287634
0.000999218
0.0230917
0.0225486
0.0222898
0.0223376
0.0225856
0.0229156
0.0232562
0.0235881
0.0239238
0.024284
0.0246834
0.0251261
0.0256095
0.0261281
0.0266772
0.027253
0.0278499
0.0284626
0.0290874
0.0297284
0.0303713
0.0310132
0.0316527
0.0322871
0.0329133
0.0335276
0.0341283
0.0347131
0.0352809
0.0358284
0.0363534
0.0368505
0.0373165
0.0377425
0.0381223
0.038443
0.0386968
0.0388635
0.0389281
0.0388659
0.0386639
0.0382974
0.0377596
0.0370431
0.0361618
0.0351023
0.0338518
0.0323723
0.0306351
0.0286108
0.0262968
0.0236912
0.0208048
0.0177969
0.0146728
0.011436
0.00834045
0.00560997
0.00332868
0.00113963
0.0250566
0.0245958
0.0243553
0.024358
0.0245223
0.0247548
0.0249976
0.0252345
0.0254747
0.0257354
0.0260286
0.0263585
0.0267233
0.0271197
0.0275444
0.0279949
0.0284687
0.0289619
0.0294713
0.029986
0.0305118
0.0310441
0.0315796
0.0321152
0.0326478
0.0331733
0.033689
0.0341919
0.03468
0.035149
0.0355962
0.0360161
0.0364042
0.0367509
0.0370524
0.0372973
0.0374769
0.037574
0.0375773
0.0374666
0.0372307
0.0368492
0.0363151
0.0356164
0.0347571
0.0337231
0.0325055
0.0310763
0.029418
0.0275098
0.025351
0.0229481
0.020322
0.0175633
0.0146858
0.0117131
0.00879936
0.00608243
0.00363103
0.00123486
0.0267779
0.0263894