/*--------------------------------*- C++ -*----------------------------------*\
| =========                 |                                                 |
| \\      /  F ield         | OpenFOAM: The Open Source CFD Toolbox           |
|  \\    /   O peration     | Version:  2312                                  |
|   \\  /    A nd           | Website:  www.openfoam.com                      |
|    \\/     M anipulation  |                                                 |
\*---------------------------------------------------------------------------*/
FoamFile
{
    version     2.0;
    format      ascii;
    arch        "LSB;label=32;scalar=64";
    class       volVectorField;
    location    "12";
    object      U;
}
// * * * * * * * * * * * * * * * * * * * * * * * * * * * * * * * * * * * * * //

dimensions      [0 1 -1 0 0 0 0];

internalField   nonuniform List<vector> 
5478
(
(-0.0209248 0.0141028 -7.45524e-20)
(-0.0500039 0.0520917 0)
(-0.0430567 0.0873266 1.1135e-19)
(0.00156197 0.109086 -1.94886e-19)
(0.0857396 0.118618 1.28632e-19)
(0.211913 0.122147 -3.61417e-20)
(0.377572 0.125762 -6.87363e-20)
(0.570772 0.131072 0)
(0.776145 0.138291 0)
(0.969408 0.143958 1.1092e-19)
(1.14186 0.143181 -4.67058e-20)
(1.26897 0.14349 -8.83897e-20)
(1.34965 0.112573 -3.56784e-20)
(1.38367 0.113942 0)
(1.36134 0.0403931 1.00564e-19)
(-0.0299835 0.0130708 1.48888e-19)
(-0.0540222 0.0285284 0)
(-0.03011 0.0407272 0)
(0.0534995 0.0526825 -9.67584e-20)
(0.203199 0.0677508 1.27842e-19)
(0.408389 0.0899494 3.78942e-20)
(0.640957 0.118493 -6.87716e-20)
(0.869665 0.148086 6.09708e-20)
(1.06628 0.172888 1.66764e-19)
(1.21634 0.185151 -1.48204e-19)
(1.30922 0.187611 4.87932e-21)
(1.3469 0.168462 0)
(1.34403 0.148755 3.56147e-20)
(1.30887 0.116659 0)
(1.27282 0.0852076 0)
(-0.0388415 0.0158019 -3.39251e-22)
(-0.0422662 0.0211328 -6.847e-20)
(0.0315575 0.0250865 3.05288e-22)
(0.196221 0.0414862 0)
(0.435633 0.0751427 -4.3456e-20)
(0.7 0.120114 3.77893e-20)
(0.940403 0.164978 3.30468e-20)
(1.12517 0.199589 0)
(1.24367 0.216307 -5.41298e-20)
(1.29892 0.216794 4.8073e-20)
(1.30661 0.198702 4.2148e-20)
(1.29057 0.178704 0)
(1.26871 0.150436 0)
(1.25671 0.135943 -9.52113e-20)
(1.25737 0.112469 8.47395e-20)
(-0.0406589 0.0154496 -7.93787e-20)
(-0.00415868 0.0163703 6.75275e-20)
(0.152773 0.0277036 -5.82492e-20)
(0.418841 0.066987 5.16145e-20)
(0.71799 0.12464 8.75796e-20)
(0.973322 0.180405 -7.55273e-20)
(1.14836 0.219919 -3.30196e-20)
(1.24235 0.237107 2.82076e-20)
(1.27476 0.236086 -2.5908e-20)
(1.27402 0.220966 0)
(1.2658 0.205545 0)
(1.26094 0.186257 -6.0197e-20)
(1.26076 0.173738 7.96142e-20)
(1.25688 0.157487 -4.53142e-20)
(1.2435 0.137496 0)
(-0.0312628 0.0107897 4.01486e-20)
(0.0716154 0.0110679 3.39893e-20)
(0.338697 0.0490656 -1.22282e-19)
(0.678922 0.120779 1.53209e-21)
(0.965315 0.190371 -5.23902e-22)
(1.14665 0.236557 -7.97996e-22)
(1.23296 0.255737 3.15675e-20)
(1.2594 0.255856 2.77547e-20)
(1.26124 0.24539 2.1353e-20)
(1.25895 0.233799 -1.88511e-21)
(1.25548 0.219203 -4.99852e-20)
(1.24828 0.205214 0)
(1.23404 0.18882 2.48418e-20)
(1.21653 0.170017 -1.9456e-20)
(1.20109 0.156595 3.40436e-20)
(-0.00756586 0.00423295 -8.63266e-20)
(0.195434 0.0156325 9.36768e-20)
(0.567386 0.0979541 -3.25792e-20)
(0.909436 0.190215 2.52516e-20)
(1.1234 0.250781 -4.63299e-20)
(1.22223 0.276615 -3.63581e-20)
(1.25371 0.28007 6.04441e-22)
(1.25761 0.27272 0)
(1.25256 0.262026 4.22676e-20)
(1.24253 0.247786 -3.75879e-20)
(1.22962 0.233113 1.59328e-20)
(1.21645 0.21687 0)
(1.20706 0.202433 1.01388e-20)
(1.20146 0.187984 -1.87815e-20)
(1.19698 0.177035 0)
(0.0355796 -0.000146953 -1.07756e-20)
(0.364922 0.0461741 9.48545e-22)
(0.784281 0.168687 1.56707e-20)
(1.0684 0.258641 2.729e-20)
(1.20421 0.299764 -2.17212e-20)
(1.24958 0.309322 3.6924e-20)
(1.25446 0.303759 -8.36226e-21)
(1.24463 0.292325 0)
(1.2308 0.27769 -2.4575e-20)
(1.21839 0.263012 1.21601e-21)
(1.20879 0.247977 2.1132e-20)
(1.20099 0.233878 0)
(1.19165 0.219714 -1.46862e-20)
(1.17966 0.203743 0)
(1.16402 0.193671 9.60993e-21)
(0.101522 0.00512116 -1.20217e-20)
(0.55042 0.109247 0)
(0.951054 0.247491 1.69772e-20)
(1.16237 0.321331 0)
(1.23864 0.343701 0)
(1.2499 0.340614 0)
(1.23852 0.328005 -7.34676e-21)
(1.2234 0.312394 0)
(1.21035 0.296701 4.90209e-21)
(1.19863 0.280584 0)
(1.1867 0.264722 -6.6453e-21)
(1.1743 0.248602 0)
(1.16372 0.232955 4.54201e-21)
(1.15644 0.218859 0)
(1.15231 0.208873 3.10485e-21)
(-0.0340231 0.0070575 -6.94381e-21)
(-0.123262 0.00815803 0)
(-0.234084 0.0043267 1.21907e-20)
(-0.329176 0.000270054 0)
(-0.414154 -0.00386661 0)
(-0.489429 -0.0081853 0)
(-0.554638 -0.0126802 -1.071e-20)
(-0.609633 -0.0173234 0)
(-0.654306 -0.0220681 9.69425e-21)
(-0.688645 -0.0268438 0)
(-0.712589 -0.0315627 -1.66478e-20)
(-0.726046 -0.0361293 0)
(-0.729125 -0.0404332 1.34659e-20)
(-0.722047 -0.0443242 0)
(-0.704316 -0.0474456 1.02293e-20)
(-0.0399691 0.0847766 3.56393e-20)
(-0.124642 0.124608 -2.66225e-20)
(-0.22509 0.120525 1.34982e-20)
(-0.309522 0.109192 4.94772e-20)
(-0.38275 0.09683 2.18604e-21)
(-0.445046 0.0833487 -4.48238e-20)
(-0.496099 0.0687723 3.14345e-20)
(-0.535911 0.0532468 0)
(-0.564562 0.0369765 3.05055e-20)
(-0.582344 0.0201806 1.49317e-21)
(-0.589756 0.00304912 -1.65201e-20)
(-0.587175 -0.0143445 0)
(-0.574457 -0.0322337 -4.13279e-20)
(-0.552546 -0.0498956 0)
(-0.518123 -0.0680478 -5.0408e-20)
(-0.0470696 0.140465 6.28314e-20)
(-0.117675 0.219994 1.53718e-20)
(-0.19242 0.222409 -2.56256e-20)
(-0.251763 0.206962 -7.72422e-20)
(-0.298689 0.188085 4.65535e-20)
(-0.333202 0.167174 4.89902e-20)
(-0.354937 0.144514 -8.92952e-20)
(-0.364045 0.120523 0)
(-0.360865 0.0956729 -8.3418e-20)
(-0.345869 0.0702791 7.41691e-20)
(-0.319866 0.0446104 3.52349e-20)
(-0.285382 0.0206407 0)
(-0.237632 -0.00739019 2.78363e-20)
(-0.191289 -0.0297284 -5.08017e-20)
(-0.111669 -0.0600181 0)
(-0.0513725 0.160619 3.53861e-20)
(-0.105302 0.278108 -9.26237e-20)
(-0.147704 0.298123 1.13754e-19)
(-0.175787 0.28463 -1.05322e-19)
(-0.191364 0.262076 -5.10703e-20)
(-0.193821 0.235997 4.86851e-20)
(-0.182947 0.207368 4.58521e-20)
(-0.159234 0.176887 4.38872e-20)
(-0.123997 0.145124 -1.26127e-19)
(-0.0793739 0.112685 -2.92153e-21)
(-0.0193729 0.080131 3.46262e-20)
(0.0337682 0.0477188 0)
(0.128261 0.0167961 5.71247e-20)
(0.167048 -0.0216151 1.51834e-19)
(0.310969 -0.0400709 -9.02063e-20)
(-0.0490171 0.144391 1.14871e-21)
(-0.0894312 0.288492 6.53977e-20)
(-0.101727 0.33735 -5.87383e-20)
(-0.0979225 0.336405 5.38321e-20)
(-0.081566 0.315536 1.01609e-19)
(-0.0525205 0.287256 -9.63352e-20)
(-0.0108895 0.255494 -4.50324e-20)
(0.0421209 0.221701 -1.33358e-19)
(0.106838 0.186687 1.20645e-19)
(0.171505 0.147816 0)
(0.263922 0.116735 0)
(0.314512 0.0727944 1.26862e-19)
(0.457587 0.049144 -2.83249e-19)
(0.477659 -0.00250191 1.00887e-19)
(0.674675 -0.021266 0)
(-0.0398211 0.103794 4.07117e-22)
(-0.072282 0.248044 -6.54913e-20)
(-0.064362 0.32467 1.77082e-19)
(-0.0350162 0.346413 -5.27409e-20)
(0.00926569 0.337146 -5.05764e-20)
(0.065891 0.312657 4.76868e-20)
(0.13322 0.281023 4.50408e-20)
(0.207513 0.244785 8.4526e-20)
(0.291765 0.2086 -1.48671e-19)
(0.370123 0.168218 6.84481e-20)
(0.481039 0.137264 6.29557e-20)
(0.548776 0.0923689 0)
(0.714587 0.0677244 0)
(0.7534 0.0112145 1.87921e-19)
(0.981153 -0.00729347 -1.67064e-19)
(-0.0277345 0.059417 -3.47993e-22)
(-0.0566256 0.17476 0)
(-0.0422343 0.258065 0)
(-0.000742964 0.295979 1.04636e-19)
(0.0597333 0.300421 -4.69395e-20)
(0.133662 0.284645 4.14919e-20)
(0.21671 0.257889 8.24757e-20)
(0.306851 0.227128 -7.31386e-20)
(0.406753 0.194216 7.36898e-20)
(0.516925 0.164572 -6.85194e-20)
(0.644054 0.130382 -5.34842e-21)
(0.772282 0.0982299 0)
(0.939018 0.0688563 4.65325e-20)
(1.03835 0.0228394 0)
(1.24268 0.00905919 0)
(-0.0195629 0.0279314 -7.56167e-20)
(-0.0476123 0.101768 0)
(-0.0371696 0.166616 -1.13162e-19)
(0.00375088 0.20216 1.99199e-19)
(0.0684058 0.211717 -2.22466e-19)
(0.152987 0.204717 -4.42223e-20)
(0.257635 0.189695 7.2121e-20)
(0.382991 0.173732 0)
(0.530804 0.154065 0)
(0.695241 0.141551 -1.21784e-19)
(0.86503 0.11661 -6.01266e-20)
(1.03771 0.110022 9.86834e-20)
(1.17951 0.0764915 -4.66103e-20)
(1.29897 0.0615109 0)
(1.38873 0.0333867 -1.2534e-19)
(-0.66029 -0.0494749 0)
(-0.574927 -0.0415108 2.55406e-21)
(-0.405979 -0.00230479 -2.34336e-21)
(-0.214602 0.0206627 0)
(0.0263587 0.0436751 0)
(0.240356 0.0567753 4.87046e-23)
(0.422612 0.0611903 0)
(0.56227 0.0621044 0)
(0.66587 0.0618184 -3.54153e-23)
(0.741653 0.0600408 0)
(0.798394 0.0581506 0)
(0.84274 0.0565846 3.28192e-23)
(0.878125 0.0550606 0)
(0.90626 0.0533192 2.01779e-23)
(0.927927 0.0514906 1.59763e-23)
(0.944334 0.0497612 0)
(0.956119 0.0486889 7.60026e-23)
(0.965155 0.0475726 -8.9293e-23)
(0.971092 0.0483599 0)
(0.97662 0.0463059 -4.27724e-23)
(0.979267 0.0513831 4.93306e-23)
(0.983543 0.0429393 -9.09788e-24)
(0.984252 0.0601667 1.30679e-23)
(0.987924 0.0347481 -1.24867e-23)
(0.98801 0.0736207 1.02254e-23)
(0.990724 0.031886 0)
(0.990602 0.069152 7.26475e-24)
(0.99378 0.0642286 -6.94625e-24)
(0.991705 0.0374315 5.77401e-24)
(0.994947 0.0838439 0)
(0.997321 0.0813752 7.15981e-24)
(0.993373 0.042624 0)
(0.995457 0.0667618 6.56561e-24)
(1.00124 0.127109 1.52921e-24)
(1.00178 0.122618 1.91025e-25)
(0.998682 0.0774002 -2.60434e-24)
(0.995672 0.00937385 0)
(0.99435 -0.0244188 2.23793e-24)
(-0.459314 -0.0916767 1.84739e-20)
(-0.430298 -0.134038 -9.77236e-23)
(-0.286182 -0.133446 -4.99164e-21)
(-0.123322 -0.128989 4.76033e-21)
(0.0843837 -0.103031 0)
(0.273937 -0.0624721 -4.90845e-23)
(0.437519 -0.0273896 9.93686e-23)
(0.565265 -0.00166121 0)
(0.660901 0.0153314 3.56815e-23)
(0.731859 0.0263205 0)
(0.78684 0.0328672 0)
(0.831641 0.0369834 -3.3054e-23)
(0.868883 0.0399402 0)
(0.899477 0.0420223 -6.19089e-22)
(0.923486 0.0434071 5.22955e-22)
(0.941663 0.0442096 -3.80928e-22)
(0.954627 0.0449705 3.63614e-22)
(0.964325 0.0450973 1.68293e-23)
(0.970705 0.0467005 0)
(0.976407 0.0451279 0)
(0.979271 0.0506015 9.59275e-24)
(0.983614 0.0422373 -6.99221e-23)
(0.984373 0.0598204 1.11743e-22)
(0.988297 0.0342253 -5.03873e-23)
(0.988095 0.0734148 -3.08594e-23)
(0.991307 0.0316862 0)
(0.991005 0.0686784 -1.56637e-23)
(0.993953 0.0644079 0)
(0.992799 0.0371539 -5.7943e-24)
(0.995348 0.0833479 1.75932e-23)
(0.997589 0.0816737 -3.13224e-23)
(0.994653 0.0427362 6.07325e-24)
(0.996645 0.0660828 -1.13513e-23)
(1.00176 0.126662 -1.4832e-24)
(1.00233 0.122846 -9.9799e-25)
(0.999635 0.0778551 -2.25506e-24)
(0.997038 0.00968248 -4.90833e-25)
(0.99568 -0.024349 4.44958e-25)
(-0.0544377 -0.117869 3.44029e-20)
(-0.0297377 -0.17016 -5.68633e-20)
(0.0643619 -0.222528 1.0342e-20)
(0.192572 -0.241644 1.23156e-20)
(0.340884 -0.220518 2.20853e-24)
(0.47556 -0.163778 6.78022e-23)
(0.58893 -0.102039 -1.01073e-22)
(0.676131 -0.0538545 1.62581e-22)
(0.741353 -0.0216738 0)
(0.789415 -0.000956635 -3.2151e-21)
(0.826131 0.0127098 3.06669e-21)
(0.857057 0.0215532 6.62254e-23)
(0.88434 0.027772 0)
(0.908173 0.0325718 1.22328e-21)
(0.92795 0.0363741 -1.13419e-21)
(0.943672 0.0391965 3.89173e-22)
(0.955385 0.0414933 -3.71347e-22)
(0.964481 0.0426882 -2.91213e-22)
(0.970718 0.0450374 2.44961e-22)
(0.976336 0.0438876 0)
(0.979318 0.0497807 0)
(0.983691 0.0414504 -1.25579e-22)
(0.984476 0.0594415 1.19889e-22)
(0.988674 0.0336366 9.21015e-23)
(0.988141 0.0731407 -8.74568e-24)
(0.9919 0.031493 -7.5693e-23)
(0.991384 0.0680752 6.8045e-26)
(0.994092 0.0646052 2.65552e-23)
(0.99392 0.0368319 -6.7738e-23)
(0.995714 0.0827276 6.22051e-23)
(0.997811 0.081996 -6.88209e-24)
(0.995955 0.0428313 1.36142e-23)
(0.997843 0.0652901 -8.12286e-24)
(1.00221 0.126151 7.76658e-24)
(1.00279 0.123096 -1.38413e-24)
(1.00053 0.0783572 -3.03215e-24)
(0.998362 0.01003 1.05097e-23)
(0.996991 -0.0242619 2.16582e-24)
(0.33847 -0.12791 0)
(0.384896 -0.208406 2.7287e-20)
(0.450261 -0.272581 -2.68163e-20)
(0.538077 -0.310358 0)
(0.627596 -0.295988 -2.2697e-24)
(0.699697 -0.231214 -6.96599e-23)
(0.756814 -0.15439 0)
(0.800357 -0.089001 -2.83249e-23)
(0.83373 -0.0445666 1.23452e-22)
(0.858971 -0.0176083 0)
(0.878166 -0.0015061 2.47122e-21)
(0.894132 0.00934847 -2.4241e-21)
(0.909143 0.0174325 1.05269e-22)
(0.923615 0.0240621 1.24136e-21)
(0.936788 0.0297346 -1.1837e-21)
(0.948226 0.0342698 -5.38548e-23)
(0.957476 0.0379652 0)
(0.965268 0.04017 3.52805e-23)
(0.971001 0.0432802 -4.34413e-22)
(0.976367 0.0425432 5.27687e-23)
(0.979396 0.0489105 4.12584e-23)
(0.983774 0.0405802 2.55589e-22)
(0.984564 0.0590377 1.90298e-22)
(0.989048 0.0329933 -2.33892e-22)
(0.988161 0.0728022 2.11969e-23)
(0.992486 0.031317 0)
(0.991743 0.0673391 1.5963e-23)
(0.994209 0.0648274 -2.69051e-23)
(0.99503 0.0364744 6.85206e-23)
(0.996055 0.0819742 -6.28498e-23)
(0.998007 0.082343 1.54085e-23)
(0.997247 0.0429174 0)
(0.999027 0.0643838 8.12001e-24)
(1.00261 0.125567 -1.5599e-23)
(1.00319 0.123363 -2.10712e-24)
(1.00139 0.0789044 9.06316e-24)
(0.999633 0.0104168 -1.05171e-23)
(0.998272 -0.0241595 -3.85298e-26)
(0.680868 -0.116729 6.23451e-22)
(0.717049 -0.206141 1.06159e-21)
(0.773604 -0.29789 0)
(0.832599 -0.353648 0)
(0.86293 -0.340843 0)
(0.867843 -0.270202 0)
(0.868488 -0.185124 -3.81105e-21)
(0.872818 -0.113341 7.59227e-21)
(0.881386 -0.0613374 -4.07351e-21)
(0.892746 -0.0272785 0)
(0.904312 -0.00707556 2.39703e-21)
(0.915312 0.00573669 -2.35952e-21)
(0.925509 0.0142869 -1.70275e-21)
(0.935326 0.0209101 1.43351e-21)
(0.944496 0.0266764 -1.02199e-21)
(0.952809 0.031485 1.02935e-21)
(0.959944 0.0355832 4.48825e-23)
(0.966416 0.03818 5.4504e-22)
(0.971527 0.0417373 -5.19334e-22)
(0.976534 0.0412368 -4.97877e-23)
(0.979533 0.0480507 -4.16784e-23)
(0.98388 0.0396546 -2.30212e-22)
(0.984651 0.0586227 2.52404e-22)
(0.989412 0.0323031 5.07264e-23)
(0.988167 0.0724069 2.18479e-23)
(0.99305 0.0311627 1.89886e-23)
(0.992079 0.0664752 0)
(0.994321 0.0650755 0)
(0.996099 0.0360836 0)
(0.996377 0.0810984 0)
(0.998199 0.0827171 -4.55951e-23)
(0.998495 0.0429954 2.85717e-23)
(1.00017 0.0633757 -1.63714e-23)
(1.00299 0.124919 3.83129e-23)
(1.00356 0.123644 -2.20333e-24)
(1.00221 0.0794889 2.40764e-24)
(1.00084 0.0108353 -1.14418e-23)
(0.999513 -0.0240445 -5.20949e-24)
(0.977199 -0.103291 -6.55922e-22)
(1.00655 -0.193139 6.29071e-20)
(1.04199 -0.282806 -6.04361e-20)
(1.0656 -0.351599 -2.57744e-20)
(1.0375 -0.344883 2.45451e-20)
(0.978517 -0.27885 -4.14003e-23)
(0.928548 -0.199027 -2.40899e-24)
(0.902478 -0.128828 -7.48364e-23)
(0.896441 -0.0769876 1.11866e-22)
(0.901079 -0.041565 0)
(0.910203 -0.018482 8.29068e-23)
(0.920335 -0.00462344 -3.89844e-21)
(0.929987 0.00594909 3.71118e-21)
(0.939189 0.0144851 8.88985e-23)
(0.947569 0.0218497 0)
(0.954989 0.0279112 9.11045e-22)
(0.961341 0.0329592 -1.55403e-21)
(0.967177 0.0361611 6.23132e-22)
(0.971951 0.0402627 0)
(0.976699 0.0399517 -3.37752e-22)
(0.979675 0.0472531 8.75197e-23)
(0.983992 0.0386978 3.10256e-22)
(0.984729 0.0582317 2.65073e-22)
(0.989754 0.0315918 -2.49049e-22)
(0.98817 0.0719518 1.72735e-22)
(0.993577 0.0310678 -1.55076e-23)
(0.992392 0.0654812 -1.57959e-22)
(0.994442 0.0653471 1.09996e-22)
(0.997093 0.0357038 -1.04604e-22)
(0.99669 0.0800893 3.79408e-23)
(0.998408 0.0831015 -3.60751e-23)
(0.999673 0.0431113 0)
(1.00126 0.0622719 -1.66524e-23)
(1.00336 0.124185 5.46054e-24)
(1.00393 0.12394 0)
(1.00301 0.0801189 -8.33224e-24)
(1.00196 0.0112961 8.25599e-24)
(1.00071 -0.0239172 -2.54851e-24)
(1.22897 -0.0817119 0)
(1.24129 -0.167996 0)
(1.2417 -0.256928 -2.10848e-22)
(1.20683 -0.315947 0)
(1.12709 -0.315876 0)
(1.02648 -0.259416 4.35575e-21)
(0.950833 -0.188279 -4.10517e-21)
(0.912132 -0.124949 -4.73787e-21)
(0.899476 -0.077947 4.53404e-21)
(0.90259 -0.0442088 0)
(0.911993 -0.0214503 7.2181e-23)
(0.923308 -0.0065987 -6.33893e-23)
(0.933869 0.00318813 3.35808e-21)
(0.942734 0.0116693 -4.44007e-22)
(0.950459 0.0190273 -2.56447e-21)
(0.957163 0.0252282 -3.03138e-23)
(0.96287 0.0305736 2.43978e-23)
(0.968137 0.0340717 -1.15154e-21)
(0.972551 0.0385931 1.13204e-21)
(0.977003 0.0384715 0)
(0.979887 0.0462763 0)
(0.984146 0.0376151 1.90309e-23)
(0.984823 0.0577408 0)
(0.990077 0.0308113 -2.22096e-22)
(0.988187 0.0714396 6.42324e-24)
(0.994067 0.030948 1.70835e-22)
(0.992672 0.0644063 1.66675e-22)
(0.994601 0.0656371 -1.10405e-22)
(0.997988 0.0352579 1.2765e-23)
(0.996987 0.0790403 0)
(0.998668 0.0834953 3.17432e-23)
(1.00076 0.0431669 -3.00953e-23)
(1.00224 0.0611412 -1.12251e-23)
(1.00375 0.123454 3.1994e-25)
(1.00435 0.124216 7.29981e-24)
(1.00379 0.0807572 6.19087e-24)
(1.003 0.0117578 0)
(1.00184 -0.0237917 4.27535e-24)
(1.3672 -0.0418305 7.6852e-20)
(1.35624 -0.105995 6.33839e-20)
(1.32526 -0.186915 -9.69663e-21)
(1.25366 -0.246829 -8.33421e-20)
(1.15109 -0.267846 3.37035e-20)
(1.04932 -0.246817 -9.46172e-23)
(0.970398 -0.205557 0)
(0.927597 -0.158812 1.71131e-23)
(0.912194 -0.111398 3.56817e-23)
(0.91266 -0.0712323 0)
(0.920491 -0.0409271 4.34311e-21)
(0.930035 -0.0196404 -4.12886e-21)
(0.938991 -0.00599568 -5.718e-23)
(0.946883 0.00471079 -2.77998e-21)
(0.95352 0.0142704 2.63806e-21)
(0.959463 0.0220657 -3.17142e-23)
(0.964653 0.0285078 -2.58754e-23)
(0.969472 0.0325505 0)
(0.973543 0.0376241 -1.04575e-21)
(0.977667 0.0374419 9.91425e-22)
(0.980363 0.0458546 3.62122e-22)
(0.984501 0.036666 -5.85267e-23)
(0.985046 0.0576138 -2.88564e-22)
(0.990473 0.0300735 2.33408e-22)
(0.988274 0.070922 -3.07908e-23)
(0.994561 0.0311653 -3.61766e-22)
(0.992953 0.0629452 1.35061e-22)
(0.994835 0.066177 -1.33761e-22)
(0.998789 0.0348854 9.86978e-23)
(0.99729 0.0775475 0)
(0.998987 0.0840496 0)
(1.00174 0.0435013 0)
(1.00314 0.0596326 -6.2842e-24)
(1.00416 0.12244 1.10423e-23)
(1.00478 0.124656 4.45651e-24)
(1.00455 0.0816494 4.18435e-25)
(1.00395 0.0123783 -4.36348e-24)
(1.00293 -0.0236348 0)
(1.32813 0.00645017 0)
(1.31796 -0.0484134 0)
(1.27235 -0.098391 0)
(1.20623 -0.138201 0)
(1.13285 -0.151222 0)
(1.06359 -0.149659 0)
(1.00998 -0.133565 0)
(0.975909 -0.109816 0)
(0.956948 -0.0838054 0)
(0.948224 -0.059378 0)
(0.947217 -0.0385533 0)
(0.950496 -0.0223349 0)
(0.954392 -0.00943911 0)
(0.958159 0.000547333 0)
(0.961743 0.00918844 0)
(0.965048 0.0168309 0)
(0.968421 0.0237461 0)
(0.972081 0.0284033 0)
(0.97539 0.0342253 0)
(0.979001 0.0345866 0)
(0.981362 0.0436545 0)
(0.985253 0.0347611 0)
(0.985707 0.0561663 0)
(0.991026 0.0288813 0)
(0.988771 0.0697671 0)
(0.995229 0.0305617 0)
(0.993294 0.0618468 0)
(0.99559 0.0656427 0)
(0.999533 0.0344055 0)
(0.997679 0.07656 0)
(0.999833 0.0836833 0)
(1.00285 0.043213 0)
(1.00396 0.0587812 0)
(1.00473 0.121589 0)
(1.00555 0.124419 0)
(1.00557 0.0819089 0)
(1.00505 0.0127801 0)
(1.00421 -0.0234624 0)
(1.24866 0.0122178 0)
(1.25018 -0.0431738 0)
(1.22074 -0.0919876 0)
(1.17367 -0.129917 0)
(1.12108 -0.154604 0)
(1.07262 -0.161459 0)
(1.03146 -0.150976 0)
(0.999735 -0.129185 0)
(0.977909 -0.101789 0)
(0.96508 -0.0737768 0)
(0.959878 -0.0482134 0)
(0.959493 -0.0271313 0)
(0.961119 -0.011095 0)
(0.962832 0.0010563 0)
(0.964711 0.0107531 0)
(0.967372 0.0184695 0)
(0.97019 0.0248935 0)
(0.97338 0.0290156 0)
(0.976358 0.034281 0)
(0.979795 0.0344535 0)
(0.98203 0.043065 0)
(0.985885 0.0344483 0)
(0.986332 0.0553622 0)
(0.99159 0.0285456 0)
(0.989449 0.0692459 0)
(0.995879 0.0298434 0)
(0.993882 0.0618488 0)
(0.996578 0.0649686 0)
(1.00017 0.0338546 0)
(0.998453 0.0766465 0)
(1.00109 0.0832966 0)
(1.00388 0.042402 0)
(1.00483 0.0584068 0)
(1.00578 0.121582 0)
(1.00681 0.124455 0)
(1.0069 0.0818917 0)
(1.00648 0.0127078 0)
(1.00585 -0.023496 0)
(1.20788 0.025804 0)
(1.213 -0.0124416 0)
(1.19088 -0.0476955 0)
(1.15644 -0.0748529 0)
(1.11892 -0.0902794 0)
(1.08123 -0.093793 0)
(1.04475 -0.0881233 0)
(1.01411 -0.0764981 0)
(0.991672 -0.0610557 0)
(0.976697 -0.0446205 0)
(0.968456 -0.0299519 0)
(0.964804 -0.0180279 0)
(0.96364 -0.00859401 0)
(0.964872 -0.000460544 0)
(0.967434 0.00789296 0)
(0.969976 0.0152932 0)
(0.972475 0.0219151 0)
(0.975359 0.0264653 0)
(0.977952 0.032207 0)
(0.981112 0.0328317 0)
(0.983041 0.0417085 0)
(0.986773 0.0334957 0)
(0.987124 0.0543626 0)
(0.992247 0.0279734 0)
(0.990292 0.0685684 0)
(0.996524 0.0291862 0)
(0.994635 0.0617352 0)
(0.997657 0.064146 0)
(1.00079 0.0335509 0)
(0.999494 0.0766835 0)
(1.00251 0.0826581 0)
(1.00486 0.0418634 0)
(1.00584 0.058425 0)
(1.00724 0.121631 0)
(1.00849 0.124298 0)
(1.00857 0.0819115 0)
(1.00814 0.0129159 0)
(1.00764 -0.0234213 0)
(1.16704 0.032249 0)
(1.17075 -0.000860769 0)
(1.15718 -0.0312426 0)
(1.13214 -0.055227 0)
(1.10233 -0.072237 0)
(1.07192 -0.0819666 0)
(1.04353 -0.0837901 0)
(1.02022 -0.0783212 0)
(1.00246 -0.0672343 0)
(0.9895 -0.0531261 0)
(0.981474 -0.038572 0)
(0.977026 -0.0248054 0)
(0.974651 -0.0124039 0)
(0.973671 -0.0014446 0)
(0.973603 0.00756095 0)
(0.974379 0.0149838 0)
(0.975633 0.0214216 0)
(0.977723 0.0257018 0)
(0.97976 0.0311965 0)
(0.982626 0.0317615 0)
(0.984245 0.040569 0)
(0.987847 0.0325373 0)
(0.988088 0.0533502 0)
(0.993026 0.0272156 0)
(0.991297 0.0678108 0)
(0.997228 0.0284308 0)
(0.995541 0.0613488 0)
(0.998868 0.0634085 0)
(1.00143 0.0331075 0)
(1.00072 0.0763521 0)
(1.00414 0.0820798 0)
(1.00586 0.0413644 0)
(1.00696 0.0580813 0)
(1.00908 0.121319 0)
(1.01059 0.124092 0)
(1.01054 0.0819472 0)
(1.01005 0.0130086 0)
(1.00965 -0.0234135 0)
(1.13405 0.0353405 0)
(1.13917 0.0121912 0)
(1.13123 -0.0101141 0)
(1.11369 -0.028518 0)
(1.0923 -0.0417086 0)
(1.07059 -0.0489031 0)
(1.04899 -0.0501099 0)
(1.02944 -0.0469048 0)
(1.01296 -0.0402825 0)
(0.999271 -0.0316093 0)
(0.989648 -0.0225801 0)
(0.983449 -0.0137519 0)
(0.979071 -0.00574242 0)
(0.976852 0.00124077 0)
(0.976638 0.00814661 0)
(0.977407 0.0144301 0)
(0.97843 0.0203135 0)
(0.980214 0.0244165 0)
(0.981864 0.0298941 0)
(0.984423 0.0305548 0)
(0.985694 0.0393897 0)
(0.989105 0.0315258 0)
(0.989214 0.0523336 0)
(0.993945 0.0263643 0)
(0.992423 0.0670408 0)
(0.998061 0.0276176 0)
(0.996574 0.0608289 0)
(1.00016 0.0626875 0)
(1.0022 0.0324566 0)
(1.0021 0.0758802 0)
(1.00589 0.0815046 0)
(1.00695 0.0407262 0)
(1.00826 0.0574667 0)
(1.01123 0.120861 0)
(1.01301 0.123867 0)
(1.01279 0.0820116 0)
(1.0122 0.0131563 0)
(1.01187 -0.0233936 0)
(1.10788 0.0381054 0)
(1.11255 0.0209192 0)
(1.10776 0.00343857 0)
(1.09544 -0.0117813 0)
(1.07947 -0.0236605 0)
(1.06282 -0.0318291 0)
(1.04571 -0.0361689 0)
(1.03004 -0.0369905 0)
(1.01682 -0.0343381 0)
(1.00544 -0.028929 0)
(0.997124 -0.0221255 0)
(0.991253 -0.0144949 0)
(0.986532 -0.00662469 0)
(0.983707 0.000742822 0)
(0.982512 0.00770775 0)
(0.982118 0.0138963 0)
(0.98212 0.0196326 0)
(0.983152 0.0235746 0)
(0.984223 0.0289047 0)
(0.986397 0.0295036 0)
(0.987319 0.0383076 0)
(0.990514 0.0305022 0)
(0.990489 0.0513514 0)
(0.99502 0.025442 0)
(0.993647 0.0662475 0)
(0.999048 0.0267595 0)
(0.997699 0.0601416 0)
(1.00154 0.0619563 0)
(1.00316 0.0317185 0)
(1.00358 0.0752669 0)
(1.00771 0.0808828 0)
(1.00823 0.0400886 0)
(1.00978 0.0567371 0)
(1.01359 0.120267 0)
(1.01563 0.123612 0)
(1.01526 0.0821242 0)
(1.0146 0.0133218 0)
(1.01432 -0.0233886 0)
(1.08658 0.0401697 0)
(1.09046 0.0273214 0)
(1.08769 0.0139931 0)
(1.0793 0.0020163 0)
(1.06797 -0.00761273 0)
(1.0562 -0.0145474 0)
(1.04362 -0.0186218 0)
(1.03167 -0.0199604 0)
(1.02113 -0.0186806 0)
(1.01101 -0.0153936 0)
(1.003 -0.0111892 0)
(0.997131 -0.00625682 0)
(0.991639 -0.000704203 0)
(0.987714 0.00464287 0)
(0.986104 0.00976252 0)
(0.985608 0.0146279 0)
(0.985294 0.0195489 0)
(0.985937 0.0230238 0)
(0.986618 0.0280941 0)
(0.988477 0.0285574 0)
(0.98909 0.0373177 0)
(0.992063 0.0294746 0)
(0.991901 0.0504029 0)
(0.996246 0.0244331 0)
(0.994959 0.0654005 0)
(1.00019 0.0258423 0)
(0.998929 0.0592777 0)
(1.003 0.0612475 0)
(1.00432 0.0308739 0)
(1.00515 0.074446 0)
(1.00962 0.0802533 0)
(1.00974 0.0394453 0)
(1.01152 0.0557964 0)
(1.0161 0.119446 0)
(1.01843 0.123289 0)
(1.01796 0.0822628 0)
(1.01728 0.0135076 0)
(1.01705 -0.0233902 0)
(1.06881 0.0414454 0)
(1.07204 0.0318493 0)
(1.07076 0.0217986 0)
(1.06535 0.0124867 0)
(1.05732 0.00464072 0)
(1.04875 -0.00153138 0)
(1.03919 -0.00592706 0)
(1.02996 -0.00848222 0)
(1.02169 -0.00908212 0)
(1.01323 -0.0079754 0)
(1.00643 -0.00574828 0)
(1.00149 -0.00256826 0)
(0.99654 0.00150932 0)
(0.99263 0.00603748 0)
(0.990629 0.0106789 0)
(0.989637 0.0150288 0)
(0.988763 0.0195045 0)
(0.988896 0.0226387 0)
(0.989144 0.0274634 0)
(0.990675 0.0277267 0)
(0.990991 0.0364155 0)
(0.993744 0.0284421 0)
(0.993442 0.0494704 0)
(0.997622 0.0233433 0)
(0.996372 0.0644934 0)
(1.0015 0.0248806 0)
(1.00028 0.0582407 0)
(1.00455 0.0605294 0)
(1.00569 0.029883 0)
(1.00681 0.0734072 0)
(1.01164 0.0795933 0)
(1.01149 0.0387253 0)
(1.01348 0.054585 0)
(1.01877 0.118367 0)
(1.02143 0.122876 0)
(1.02091 0.0824224 0)
(1.02026 0.0137138 0)
(1.02007 -0.0233986 0)
(1.05414 0.0422874 0)
(1.05701 0.0351991 0)
(1.05665 0.0276175 0)
(1.05305 0.0202889 0)
(1.04734 0.0138541 0)
(1.04135 0.00855647 0)
(1.03438 0.00451093 0)
(1.02762 0.00182681 0)
(1.02156 0.000632308 0)
(1.01477 0.000798065 0)
(1.00907 0.001884 0)
(1.00488 0.0037694 0)
(1.0002 0.00653093 0)
(0.996158 0.00967336 0)
(0.994038 0.0130341 0)
(0.992959 0.0163282 0)
(0.991866 0.0200312 0)
(0.991695 0.0226199 0)
(0.991635 0.0270852 0)
(0.992908 0.0270482 0)
(0.992979 0.035628 0)
(0.995536 0.0274313 0)
(0.995099 0.0485683 0)
(0.999142 0.0221964 0)
(0.997895 0.0635326 0)
(1.00296 0.0238734 0)
(1.00176 0.0570196 0)
(1.00621 0.0597744 0)
(1.00725 0.028742 0)
(1.0086 0.0721432 0)
(1.01377 0.0788714 0)
(1.01348 0.0378976 0)
(1.01568 0.0530957 0)
(1.0216 0.117027 0)
(1.02466 0.12235 0)
(1.02416 0.0825784 0)
(1.0236 0.0139446 0)
(1.02343 -0.0234078 0)
(1.04226 0.0426917 0)
(1.04463 0.0373641 0)
(1.04464 0.0315135 0)
(1.04231 0.0257658 0)
(1.03842 0.0206496 0)
(1.03441 0.0162743 0)
(1.02939 0.0126828 0)
(1.02448 0.0100053 0)
(1.0201 0.00835013 0)
(1.01469 0.00765722 0)
(1.0101 0.00770292 0)
(1.00692 0.00846309 0)
(1.00298 0.0101042 0)
(0.999187 0.0123288 0)
(0.997098 0.0149087 0)
(0.996001 0.0174824 0)
(0.994772 0.0205748 0)
(0.994377 0.0226696 0)
(0.994079 0.0267895 0)
(0.995147 0.0264149 0)
(0.99502 0.0348722 0)
(0.997413 0.0263781 0)
(0.996855 0.0476281 0)
(1.00079 0.0209396 0)
(0.999528 0.0624432 0)
(1.00457 0.0227602 0)
(1.00339 0.0555507 0)
(1.00797 0.0589143 0)
(1.00902 0.027413 0)
(1.01053 0.0705779 0)
(1.01603 0.0780193 0)
(1.01573 0.0369248 0)
(1.01812 0.0512589 0)
(1.02464 0.115346 0)
(1.02815 0.121679 0)
(1.02776 0.0826875 0)
(1.02734 0.0140823 0)
(1.02717 -0.0234455 0)
(1.03223 0.0429753 0)
(1.03414 0.0388871 0)
(1.0345 0.0343823 0)
(1.03316 0.0299285 0)
(1.03059 0.0258776 0)
(1.02799 0.0222642 0)
(1.0244 0.019122 0)
(1.02092 0.0166077 0)
(1.01795 0.0148387 0)
(1.01379 0.0137799 0)
(1.01024 0.0133005 0)
(1.00799 0.0134021 0)
(1.00479 0.0142286 0)
(1.00141 0.0156148 0)
(0.999513 0.017423 0)
(0.998546 0.0192778 0)
(0.997338 0.0217464 0)
(0.996857 0.0233103 0)
(0.996417 0.0270484 0)
(0.997352 0.0262772 0)
(0.997077 0.0345757 0)
(0.999353 0.0257017 0)
(0.998692 0.047041 0)
(1.00256 0.0199556 0)
(1.00128 0.0615799 0)
(1.0063 0.0218686 0)
(1.00516 0.0541637 0)
(1.00987 0.0581973 0)
(1.01097 0.0261411 0)
(1.01263 0.0689369 0)
(1.01846 0.0771972 0)
(1.01822 0.0359571 0)
(1.02083 0.0492215 0)
(1.02793 0.113389 0)
(1.03196 0.120864 0)
(1.03169 0.0829207 0)
(1.03154 0.0145544 0)
(1.03139 -0.0233881 0)
(1.02375 0.0421558 0)
(1.02544 0.0390308 0)
(1.02602 0.0355526 0)
(1.02529 0.0320507 0)
(1.02361 0.0287973 0)
(1.02205 0.0257957 0)
(1.01956 0.0230702 0)
(1.01726 0.0207789 0)
(1.01544 0.0190065 0)
(1.01233 0.0177186 0)
(1.0097 0.0168509 0)
(1.00831 0.0164407 0)
(1.00584 0.0166335 0)
(1.00295 0.0173358 0)
(1.00136 0.0184881 0)
(1.0006 0.0197149 0)
(0.999506 0.0216183 0)
(0.999035 0.0226683 0)
(0.998545 0.026036 0)
(0.999411 0.0248587 0)
(0.999063 0.0330131 0)
(1.00126 0.0237394 0)
(1.00055 0.0451923 0)
(1.00437 0.017701 0)
(1.00307 0.0594437 0)
(1.00815 0.0197957 0)
(1.00699 0.0514897 0)
(1.01187 0.0563951 0)
(1.01307 0.0237336 0)
(1.0148 0.066156 0)
(1.02104 0.0754183 0)
(1.02097 0.0340258 0)
(1.02372 0.0461842 0)
(1.03138 0.110495 0)
(1.03621 0.119257 0)
(1.03627 0.0823228 0)
(1.03633 0.0141343 0)
(1.03602 -0.0235762 0)
(1.01658 0.0428214 0)
(1.01804 0.0404072 0)
(1.01868 0.0376862 0)
(1.01835 0.0349468 0)
(1.01735 0.0323954 0)
(1.01654 0.0299963 0)
(1.01484 0.0277569 0)
(1.0134 0.02581 0)
(1.01245 0.0242146 0)
(1.01018 0.0229426 0)
(1.00835 0.0219669 0)
(1.00774 0.0213429 0)
(1.006 0.0212112 0)
(1.00369 0.0215046 0)
(1.00252 0.0222153 0)
(1.0021 0.0229765 0)
(1.00125 0.0244311 0)
(1.00093 0.0250233 0)
(1.0005 0.0280439 0)
(1.00141 0.0264226 0)
(1.00103 0.0344288 0)
(1.00326 0.0246256 0)
(1.00249 0.0462323 0)
(1.00635 0.0181007 0)
(1.00508 0.0600608 0)
(1.01013 0.0201979 0)
(1.0092 0.0512764 0)
(1.01403 0.0569391 0)
(1.01544 0.0235139 0)
(1.01741 0.0653021 0)
(1.02378 0.0756626 0)
(1.02399 0.0339723 0)
(1.02719 0.0444152 0)
(1.03532 0.108788 0)
(1.04071 0.119142 0)
(1.04102 0.0834433 0)
(1.04188 0.0154233 0)
(1.04158 -0.0231582 0)
(1.01054 0.0391564 0)
(1.01187 0.0371824 0)
(1.01263 0.0349532 0)
(1.01266 0.0327207 0)
(1.01221 0.0306336 0)
(1.01201 0.028625 0)
(1.01093 0.0267039 0)
(1.01016 0.0249956 0)
(1.00992 0.02353 0)
(1.00834 0.022272 0)
(1.00717 0.0212086 0)
(1.00722 0.0203912 0)
(1.00611 0.0199599 0)
(1.00428 0.0198792 0)
(1.00345 0.0201872 0)
(1.0033 0.0205308 0)
(1.00265 0.0215864 0)
(1.00246 0.0217744 0)
(1.00212 0.0244709 0)
(1.00307 0.0224621 0)
(1.00276 0.0302764 0)
(1.00496 0.020074 0)
(1.00428 0.0416326 0)
(1.00813 0.0131997 0)
(1.00686 0.0549314 0)
(1.01213 0.0154204 0)
(1.01099 0.045505 0)
(1.01623 0.0520903 0)
(1.01774 0.0182369 0)
(1.01954 0.0591911 0)
(1.02673 0.0705857 0)
(1.02715 0.0291618 0)
(1.03016 0.0381692 0)
(1.03906 0.102024 0)
(1.046 0.11398 0)
(1.04696 0.080277 0)
(1.04797 0.013419 0)
(1.0472 -0.0238648 0)
(1.00465 0.0421504 0)
(1.00587 0.0406237 0)
(1.00668 0.038886 0)
(1.00696 0.0371505 0)
(1.00692 0.0355143 0)
(1.00716 0.0338953 0)
(1.00656 0.032316 0)
(1.00632 0.0309073 0)
(1.00662 0.0296667 0)
(1.00558 0.0285382 0)
(1.00496 0.0275447 0)
(1.00558 0.0267655 0)
(1.00505 0.026323 0)
(1.00378 0.0261591 0)
(1.00344 0.0263132 0)
(1.00375 0.0264139 0)
(1.0035 0.0271805 0)
(1.00363 0.0269898 0)
(1.0035 0.0294104 0)
(1.00467 0.0269253 0)
(1.00444 0.0346984 0)
(1.00686 0.0237858 0)
(1.00616 0.0457712 0)
(1.01021 0.0162898 0)