/*--------------------------------*- C++ -*----------------------------------*\
| =========                 |                                                 |
| \\      /  F ield         | OpenFOAM: The Open Source CFD Toolbox           |
|  \\    /   O peration     | Version:  2512                                  |
|   \\  /    A nd           | Website:  www.openfoam.com                      |
|    \\/     M anipulation  |                                                 |
\*---------------------------------------------------------------------------*/
FoamFile
{
    version     2.0;
    format      ascii;
    arch        "LSB;label=32;scalar=64";
    class       volVectorField;
    location    "36.5";
    object      U;
}
// * * * * * * * * * * * * * * * * * * * * * * * * * * * * * * * * * * * * * //

dimensions      [0 1 -1 0 0 0 0];

internalField   nonuniform List<vector> 
9200
(
(-0.0172593 0.0100763 5.60864e-20)
(-0.036878 0.0130444 -1.03356e-19)
(-0.0454626 0.00673247 4.67374e-20)
(-0.0344456 -0.000848423 8.48175e-20)
(0.00283854 -0.00754706 -7.72838e-20)
(0.0713648 -0.0124486 0)
(0.1729 -0.0142358 0)
(0.30408 -0.0117354 1.05217e-19)
(0.456303 -0.00430851 -5.14679e-21)
(0.617661 0.00779853 -8.33105e-20)
(0.775773 0.0233956 -3.46573e-20)
(0.919729 0.0407598 5.6714e-20)
(1.04221 0.0574917 -3.6214e-21)
(1.13799 0.0721566 -4.43971e-20)
(1.20621 0.0826015 0)
(1.24962 0.0872876 7.83036e-20)
(1.26643 0.0898346 -1.11899e-19)
(1.27409 0.0792208 2.63911e-20)
(1.26113 0.0797927 2.30133e-20)
(1.25251 0.0536268 1.85614e-20)
(-0.0227656 0.0150576 1.05263e-21)
(-0.0387129 0.0230921 5.22524e-20)
(-0.02916 0.0195921 9.48896e-20)
(0.0117637 0.0128282 0)
(0.0898454 0.00686172 0)
(0.2076 0.00447473 0)
(0.360506 0.00753409 0)
(0.535685 0.0165928 -7.87204e-20)
(0.715395 0.0306893 9.67463e-20)
(0.882285 0.0476692 3.80936e-20)
(1.02311 0.0649431 -3.74109e-20)
(1.13063 0.0799243 2.95592e-20)
(1.20302 0.0911207 -2.51848e-20)
(1.24371 0.0973121 -2.02596e-20)
(1.25988 0.0987608 1.28416e-19)
(1.25864 0.0965949 -8.17988e-20)
(1.2516 0.0905115 -1.36041e-20)
(1.24303 0.0840423 -1.26945e-21)
(1.23629 0.0766004 -2.15556e-20)
(1.2415 0.0648592 -1.85161e-20)
(-0.0246977 0.0153175 -5.7023e-20)
(-0.0313487 0.0236077 -5.36003e-20)
(0.00287218 0.0216795 4.78693e-20)
(0.0824675 0.0173386 -8.69487e-20)
(0.210816 0.0161665 0)
(0.382573 0.0217138 0)
(0.579792 0.0346948 0)
(0.777192 0.0529931 -2.7056e-20)
(0.951503 0.0729383 0)
(1.0876 0.0908685 4.04731e-20)
(1.18022 0.104138 -3.42634e-20)
(1.23254 0.111762 -1.1555e-19)
(1.25372 0.114046 1.02133e-19)
(1.25554 0.11215 1.98527e-20)
(1.24847 0.108403 -3.82497e-20)
(1.24159 0.102104 -7.60628e-20)
(1.23672 0.0979793 1.72387e-20)
(1.2351 0.0891968 1.16137e-19)
(1.23342 0.0858779 -6.06501e-20)
(1.23128 0.0741864 0)
(-0.0233099 0.0126415 5.90182e-20)
(-0.0128972 0.017463 1.08328e-19)
(0.0555859 0.0167043 9.75477e-20)
(0.184925 0.017914 -1.30797e-19)
(0.370222 0.0272365 1.5671e-21)
(0.588553 0.0461516 1.39296e-19)
(0.805045 0.070961 -6.26513e-20)
(0.98885 0.0957659 2.67059e-20)
(1.12304 0.115594 0)
(1.20566 0.127946 -1.96835e-20)
(1.24571 0.132941 9.9788e-20)
(1.25758 0.132422 -1.15216e-19)
(1.25539 0.12864 -4.53777e-20)
(1.24906 0.123864 4.35489e-20)
(1.24357 0.118098 -5.25104e-20)
(1.23874 0.113166 4.70969e-20)
(1.23362 0.106556 0)
(1.22742 0.0999787 0)
(1.21896 0.094624 1.01628e-20)
(1.21226 0.0833518 0)
(-0.0181214 0.00863552 6.04014e-20)
(0.0200418 0.00882637 -8.37124e-20)
(0.135508 0.0114892 -9.91987e-20)
(0.324251 0.0238851 0)
(0.560975 0.0493398 -3.99049e-20)
(0.799421 0.0824904 -3.35278e-20)
(0.997885 0.11425 9.18216e-20)
(1.13626 0.137822 -8.12715e-20)
(1.21588 0.15089 4.41043e-20)
(1.2512 0.154906 -2.06889e-20)
(1.26022 0.153097 0)
(1.25745 0.148452 4.23641e-20)
(1.25099 0.142971 2.42455e-20)
(1.2437 0.136898 3.91484e-20)
(1.2356 0.130979 -3.59494e-20)
(1.22708 0.124061 -2.82994e-20)
(1.21875 0.117396 2.60144e-20)
(1.21155 0.110218 -1.03524e-20)
(1.20571 0.103473 9.27686e-21)
(1.20271 0.0941539 2.96914e-20)
(-0.00764697 0.00435226 1.25707e-19)
(0.071625 0.00151956 -4.26249e-22)
(0.246707 0.0130953 0)
(0.494457 0.0432383 6.78909e-20)
(0.758268 0.0856426 -2.12071e-20)
(0.979933 0.126703 -3.50964e-20)
(1.1318 0.156572 1.75996e-21)
(1.21672 0.172668 2.81173e-20)
(1.25349 0.17761 2.20299e-20)
(1.26289 0.175778 -1.86655e-20)
(1.25979 0.170727 -3.09618e-20)
(1.25195 0.164456 -3.79062e-20)
(1.24248 0.15754 5.9385e-20)
(1.23272 0.150525 4.71528e-20)
(1.22375 0.14306 -5.02548e-20)
(1.21604 0.135928 2.92719e-20)
(1.20945 0.1285 0)
(1.20331 0.121271 7.44712e-22)
(1.19673 0.114157 -2.32546e-20)
(1.18951 0.105847 3.01869e-20)
(0.0101899 0.000460324 -3.38958e-20)
(0.144995 -0.000896861 1.29147e-21)
(0.38627 0.02744 -2.70346e-20)
(0.675486 0.078268 -6.89573e-20)
(0.931514 0.131447 6.20778e-20)
(1.10962 0.171206 3.42684e-20)
(1.20952 0.193352 -6.16463e-20)
(1.25318 0.201253 -2.36185e-20)
(1.26475 0.200404 4.47188e-20)
(1.26127 0.195185 5.40458e-20)
(1.252 0.188108 -7.74296e-20)
(1.24125 0.180272 2.73503e-20)
(1.23093 0.172311 -3.25253e-20)
(1.22166 0.164241 9.93528e-21)
(1.21319 0.156424 -1.615e-20)
(1.20506 0.148457 2.54961e-20)
(1.19705 0.14061 -1.93167e-21)
(1.18935 0.132932 -2.95437e-20)
(1.18224 0.124723 8.25483e-21)
(1.17673 0.117109 0)
(0.0370429 -0.00178462 3.39205e-20)
(0.240076 0.00578297 -7.73887e-20)
(0.541747 0.0576779 5.50693e-20)
(0.842238 0.125405 1.12722e-20)
(1.06334 0.180186 -6.1666e-20)
(1.19127 0.212559 3.6713e-20)
(1.2489 0.22587 0)
(1.26541 0.227076 0)
(1.26246 0.222005 -2.14609e-20)
(1.25234 0.214227 0)
(1.2407 0.205491 4.37534e-20)
(1.22953 0.19656 -5.01136e-20)
(1.21912 0.187584 4.2067e-20)
(1.20932 0.178729 -1.8447e-20)
(1.20015 0.169832 0)
(1.19184 0.161139 0)
(1.18454 0.152617 0)
(1.17795 0.144207 -1.6742e-20)
(1.1716 0.135877 1.88901e-20)
(1.16461 0.129038 0)
(0.0733882 -0.000752749 1.80588e-20)
(0.351886 0.0254005 -6.63209e-22)
(0.694603 0.102887 0)
(0.978105 0.179325 -5.47341e-21)
(1.15332 0.228615 1.13358e-20)
(1.23677 0.251323 1.68814e-20)
(1.26373 0.256366 -1.54127e-20)
(1.26334 0.252057 -5.70916e-21)
(1.2528 0.24368 5.74061e-21)
(1.2399 0.233878 0)
(1.22724 0.223694 1.34905e-20)
(1.21542 0.21343 -1.51909e-20)
(1.20461 0.203268 -9.37441e-21)
(1.19489 0.193233 1.05532e-20)
(1.18619 0.183506 3.28206e-21)
(1.17827 0.174034 -5.99375e-21)
(1.17078 0.164849 0)
(1.16358 0.155893 0)
(1.15669 0.147109 -9.79227e-21)
(1.15044 0.139845 5.79848e-21)
(0.118521 0.00553384 0)
(0.470726 0.0602596 0)
(0.828899 0.159529 0)
(1.0783 0.236465 -2.13933e-22)
(1.208 0.276196 -2.59474e-24)
(1.25616 0.288688 4.4598e-22)
(1.26251 0.28631 3.76726e-21)
(1.25246 0.277398 -5.99574e-21)
(1.23808 0.266135 9.56045e-21)
(1.22372 0.254243 -4.2074e-21)
(1.21055 0.2423 0)
(1.19876 0.230542 2.83074e-21)
(1.1882 0.219048 0)
(1.17863 0.207912 -1.95348e-21)
(1.16993 0.197094 3.24759e-21)
(1.1621 0.186664 0)
(1.15518 0.176601 0)
(1.14895 0.166853 0)
(1.14297 0.15779 0)
(1.13669 0.150179 -1.13501e-21)
(0.00431346 -0.164637 -5.41704e-21)
(-0.00346774 -0.303195 0)
(-0.0304265 -0.340383 0)
(-0.0640481 -0.333166 -1.65147e-20)
(-0.0993028 -0.311608 3.04044e-20)
(-0.134228 -0.285343 1.66389e-22)
(-0.167602 -0.254018 -6.67742e-21)
(-0.198534 -0.21494 -1.202e-20)
(-0.226346 -0.16597 -9.13754e-22)
(-0.250421 -0.105908 1.11366e-20)
(-0.27038 -0.0345795 0)
(-0.285709 0.048145 9.06665e-21)
(-0.296114 0.140266 0)
(-0.301845 0.239466 -7.55625e-21)
(-0.302368 0.34275 1.35573e-20)
(-0.297374 0.446325 0)
(-0.28665 0.545668 0)
(-0.269354 0.635777 0)
(-0.246588 0.711548 0)
(-0.215244 0.770197 7.17079e-21)
(0.0124952 -0.150319 -2.01228e-20)
(0.00690596 -0.270215 3.65681e-20)
(-0.0246056 -0.297615 0)
(-0.0645001 -0.285673 5.39741e-20)
(-0.106567 -0.262305 -4.31534e-20)
(-0.14884 -0.236341 -2.64323e-20)
(-0.19019 -0.207106 -3.82615e-22)
(-0.22968 -0.171746 5.71767e-20)
(-0.266366 -0.127998 -3.20616e-20)
(-0.299419 -0.0745186 0)
(-0.327082 -0.0105931 0)
(-0.348854 0.0630854 -9.0531e-21)
(-0.364718 0.144795 2.96946e-20)
(-0.373175 0.232562 -1.97047e-20)
(-0.373177 0.32341 -3.70633e-20)
(-0.363714 0.413555 2.16134e-20)
(-0.344008 0.498604 0)
(-0.312836 0.574067 0)
(-0.268158 0.63509 1.47123e-20)
(-0.209226 0.677565 -2.48056e-20)
(0.0188876 -0.130556 3.59074e-20)
(0.0161288 -0.231167 -1.67797e-20)
(-0.0163757 -0.250557 -1.15065e-21)
(-0.0580491 -0.235004 -4.33281e-20)
(-0.1017 -0.209882 7.79624e-20)
(-0.145169 -0.183812 -4.74392e-20)
(-0.187329 -0.156345 0)
(-0.227192 -0.124676 0)
(-0.263686 -0.0865257 -3.41124e-20)
(-0.295301 -0.0405802 0)
(-0.32111 0.0136826 -3.17384e-20)
(-0.340066 0.0751717 1.07344e-19)
(-0.350597 0.143144 -9.55823e-20)
(-0.351249 0.215594 4.30987e-20)
(-0.340606 0.289697 0)
(-0.317207 0.361958 0)
(-0.279562 0.428377 0)
(-0.227802 0.484532 4.71075e-20)
(-0.162291 0.526826 -3.11483e-20)
(-0.0704437 0.550256 0)
(0.0230859 -0.108978 -3.58807e-20)
(0.0232234 -0.191294 2.22192e-21)
(-0.00774937 -0.204417 -3.01923e-20)
(-0.0477854 -0.186462 2.70667e-20)
(-0.0888195 -0.159934 -2.48342e-20)
(-0.128331 -0.133551 0)
(-0.165126 -0.107552 -3.75524e-20)
(-0.198212 -0.0793887 3.37107e-20)
(-0.226588 -0.0470299 3.99735e-21)
(-0.249076 -0.0091956 -2.92103e-20)
(-0.264279 0.0343065 7.28576e-20)
(-0.270898 0.083345 -4.51124e-20)
(-0.267429 0.13695 1.97143e-20)
(-0.252388 0.193409 -4.90833e-20)
(-0.224262 0.250355 -2.54183e-20)
(-0.182081 0.304741 -4.70641e-20)
(-0.125277 0.353549 2.41579e-21)
(-0.0493615 0.391347 2.10924e-20)
(0.0288278 0.420486 1.521e-20)
(0.153474 0.422599 0)
(0.0249109 -0.0880317 -1.29555e-19)
(0.0269408 -0.153993 1.20252e-19)
(-0.00170797 -0.162968 0)
(-0.0385064 -0.14465 -2.35106e-20)
(-0.0746497 -0.118184 6.47336e-20)
(-0.107189 -0.0922135 -3.87648e-20)
(-0.134861 -0.0679379 1.43156e-19)
(-0.156986 -0.0436727 -1.61597e-19)
(-0.17264 -0.0173158 8.77369e-20)
(-0.180634 0.0124942 -2.66234e-20)
(-0.179934 0.0461172 4.19137e-20)
(-0.169385 0.0833809 1.58799e-20)
(-0.147774 0.123457 -4.82587e-20)
(-0.114051 0.165067 -3.6344e-20)
(-0.0680223 0.206429 1.1578e-19)
(-0.00506105 0.243901 -3.97808e-20)
(0.0618199 0.279071 0)
(0.163378 0.298283 5.95533e-20)
(0.237859 0.321713 1.36626e-20)
(0.38463 0.304811 -5.15083e-20)
(0.0241074 -0.068608 -6.12427e-20)
(0.0258785 -0.120402 -2.81073e-20)
(-0.00127872 -0.127639 -5.03366e-20)
(-0.0350203 -0.111828 0)
(-0.0661096 -0.088291 -4.31386e-20)
(-0.0912135 -0.0649975 1.1294e-19)
(-0.109206 -0.0440471 -1.68197e-19)
(-0.119403 -0.0244425 3.14559e-20)
(-0.121186 -0.00432412 -5.0398e-20)
(-0.113953 0.0174184 6.76791e-20)
(-0.0969331 0.0413818 0)
(-0.0694646 0.0675945 4.8279e-20)
(-0.0307836 0.0955188 2.57559e-20)
(0.0202744 0.12433 -4.31972e-20)
(0.0793531 0.152394 3.96584e-20)
(0.162627 0.176067 3.1057e-20)
(0.229894 0.201392 -2.85428e-20)
(0.358407 0.20607 -1.3554e-20)
(0.420373 0.225876 1.16041e-20)
(0.592325 0.200402 -4.92133e-20)
(0.0201961 -0.0503677 -5.82464e-20)
(0.0187909 -0.0897987 1.08857e-19)
(-0.00849054 -0.0975005 1.31178e-21)
(-0.0402539 -0.0871497 1.33037e-19)
(-0.0673674 -0.0700125 -1.33119e-21)
(-0.0863304 -0.0527021 -1.42738e-19)
(-0.0957755 -0.0374365 2.18464e-21)
(-0.0952094 -0.023806 8.54948e-20)
(-0.0842971 -0.0106687 0)
(-0.0625983 0.00307844 -2.15621e-20)
(-0.0294851 0.0182554 -3.3005e-20)
(0.0156362 0.0351004 1.15298e-19)
(0.0729453 0.0532787 -5.44631e-20)
(0.143632 0.0726706 -4.26006e-20)
(0.222847 0.0907141 1.58951e-20)
(0.327661 0.107828 -1.56179e-20)
(0.410261 0.123963 0)
(0.567064 0.12706 0)
(0.629718 0.140336 5.75696e-20)
(0.83691 0.119873 -4.28324e-20)
(0.0128316 -0.0326304 -5.56995e-20)
(0.00560788 -0.0607003 -5.33732e-20)
(-0.022589 -0.070015 -1.42219e-19)
(-0.0524178 -0.066775 8.6488e-20)
(-0.0753223 -0.0581745 0)
(-0.0875565 -0.0489937 6.808e-20)
(-0.0872915 -0.0410149 -6.21539e-20)
(-0.0733542 -0.0341528 -2.6543e-20)
(-0.0447681 -0.0275835 0)
(-0.000848375 -0.0201412 3.92598e-20)
(0.0588705 -0.0109604 -3.42163e-20)
(0.13433 0.000277022 -3.24594e-21)
(0.2242 0.0138489 -1.73591e-21)
(0.327336 0.0287984 -5.67295e-20)
(0.441776 0.044236 -2.94439e-20)
(0.566469 0.0602053 1.00105e-19)
(0.686994 0.0721701 1.26164e-20)
(0.83897 0.0819692 -7.10157e-20)
(0.928603 0.0874476 2.17047e-20)
(1.11509 0.08028 0)
(0.00261841 -0.0154749 9.08282e-22)
(-0.0112971 -0.0323829 -5.1258e-20)
(-0.0384511 -0.0427036 9.39858e-20)
(-0.062728 -0.045886 0)
(-0.0762155 -0.0452883 0)
(-0.0744347 -0.0436475 0)
(-0.0542303 -0.0420756 0)
(-0.0136918 -0.0404229 1.29332e-19)
(0.048313 -0.0376371 -9.39643e-20)
(0.131328 -0.0325144 -3.92974e-20)
(0.233023 -0.0243552 3.3411e-20)
(0.350199 -0.0130787 2.78606e-20)
(0.477289 0.00202086 -2.3291e-20)
(0.611089 0.0173379 5.7811e-20)
(0.746323 0.0364132 -8.46977e-20)
(0.874014 0.0506648 4.56152e-20)
(1.00242 0.0656632 4.03122e-20)
(1.1077 0.0742497 -1.47354e-19)
(1.20314 0.0763269 6.83575e-20)
(1.29191 0.0728776 -2.11924e-20)
(-0.00828467 -0.000459724 -1.10948e-22)
(-0.0270042 -0.00652777 1.53796e-19)
(-0.0480466 -0.0157896 -1.40155e-19)
(-0.0590756 -0.0226272 -8.41584e-20)
(-0.0526549 -0.0271469 7.66878e-20)
(-0.0236406 -0.0304195 0)
(0.0315158 -0.0325287 0)
(0.114113 -0.0325665 -1.03733e-19)
(0.2222 -0.0293202 5.27579e-21)
(0.350727 -0.0220682 8.19587e-20)
(0.492271 -0.0106187 -3.34492e-20)
(0.638836 0.00435876 -5.51493e-20)
(0.781612 0.0220745 3.684e-21)
(0.916101 0.039263 4.30161e-20)
(1.03234 0.0578886 0)
(1.13295 0.0681749 -4.61928e-20)
(1.20982 0.0817161 1.11321e-19)
(1.26094 0.0787355 2.38419e-20)
(1.30225 0.0797901 -6.84026e-20)
(1.30007 0.0662213 2.12546e-20)
(-0.179835 0.812131 -4.91542e-21)
(-0.108777 0.816412 1.30904e-22)
(-0.0199028 0.762839 -1.28609e-22)
(0.104153 0.645234 1.32034e-22)
(0.245104 0.466663 0)
(0.386218 0.245911 -4.621e-21)
(0.508929 -0.00773843 4.4598e-21)
(0.614018 -0.28689 -3.89797e-21)
(0.696828 -0.541847 3.89417e-21)
(0.74598 -0.702313 -1.79037e-22)
(0.769612 -0.751185 0)
(0.767798 -0.737887 1.40955e-21)
(0.751787 -0.696604 -2.54939e-21)
(0.740387 -0.647043 2.33267e-21)
(0.71303 -0.641959 -2.23652e-21)
(0.649624 -0.683392 1.11749e-21)
(0.584085 -0.657489 0)
(0.567425 -0.455043 -1.8317e-21)
(0.604659 -0.121769 1.67736e-21)
(0.666961 0.204669 1.4349e-21)
(0.724539 0.421419 -1.38557e-21)
(0.779082 0.506692 6.75173e-22)
(0.84333 0.510908 -6.73437e-22)
(0.889344 0.533831 0)
(0.878067 0.617859 0)
(0.825415 0.67302 0)
(0.788969 0.557665 0)
(0.783862 0.256851 5.29296e-22)
(0.79324 -0.0910847 -2.52395e-22)
(0.806286 -0.337202 0)
(0.797168 -0.468818 -1.41746e-22)
(0.746889 -0.534889 0)
(0.677976 -0.525647 -8.25878e-23)
(0.614469 -0.404638 2.17675e-22)
(0.568077 -0.190658 1.65312e-22)
(0.546165 0.0495113 -2.3401e-22)
(0.537501 0.245361 -1.74244e-22)
(0.527752 0.359207 4.92442e-24)
(0.51599 0.375543 -8.46001e-23)
(0.517048 0.295407 9.11375e-24)
(0.542566 0.147921 9.44884e-24)
(0.597234 -0.00826716 1.72871e-22)
(0.657824 -0.138427 0)
(0.714665 -0.203311 0)
(0.757805 -0.230255 0)
(0.793091 -0.184983 -3.16966e-23)
(0.807867 -0.169924 2.02119e-24)
(0.831927 -0.106671 -1.44453e-23)
(0.840476 -0.121223 -8.63007e-24)
(0.887465 -0.0856987 -1.50546e-25)
(-0.137633 0.710059 1.65632e-20)
(-0.0219339 0.694991 -1.62512e-20)
(0.104994 0.624302 1.75495e-20)
(0.257651 0.494594 1.61555e-21)
(0.413847 0.323722 -3.63433e-20)
(0.552718 0.129073 1.79704e-20)
(0.668155 -0.1011 0)
(0.770341 -0.364177 -1.37279e-22)
(0.845514 -0.599644 0)
(0.871047 -0.73753 -1.85392e-22)
(0.862666 -0.762713 -7.61373e-21)
(0.83507 -0.729566 7.15154e-21)
(0.794194 -0.681986 0)
(0.76036 -0.62795 -1.96313e-22)
(0.723038 -0.606085 -1.1783e-22)
(0.655011 -0.634144 0)
(0.575097 -0.623992 5.06307e-21)
(0.534363 -0.457967 -1.07656e-20)
(0.552015 -0.155339 5.6432e-21)
(0.60497 0.157423 0)
(0.666429 0.375104 0)
(0.737946 0.46431 1.02137e-22)
(0.823094 0.478025 -2.4575e-21)
(0.888481 0.522118 -3.10412e-23)
(0.897374 0.628861 2.1259e-21)
(0.866 0.693547 0)
(0.847585 0.574326 2.12536e-21)
(0.849647 0.264803 -1.76979e-21)
(0.852369 -0.0909156 -2.59748e-22)
(0.851671 -0.339155 4.15716e-22)
(0.831869 -0.46104 -1.40568e-22)
(0.773654 -0.514923 -1.85188e-22)
(0.698659 -0.502677 -7.18066e-22)
(0.633642 -0.386756 3.31022e-22)
(0.586577 -0.180675 0)
(0.560558 0.0534527 7.40957e-22)
(0.545055 0.248737 -5.57684e-23)
(0.529235 0.364085 -4.26603e-22)
(0.512838 0.37887 -1.69551e-22)
(0.510165 0.293055 1.89008e-22)
(0.535804 0.13757 0)
(0.594759 -0.0235291 -3.33083e-22)
(0.660499 -0.153638 2.11536e-22)
(0.719506 -0.215736 -1.10704e-22)
(0.764151 -0.239843 1.74842e-23)
(0.800726 -0.190977 2.6405e-23)
(0.817374 -0.174053 3.25147e-23)
(0.840194 -0.110055 -1.80318e-23)
(0.847463 -0.126185 9.44407e-24)
(0.891355 -0.0901497 -6.36455e-25)
(0.0185012 0.572983 0)
(0.146629 0.548605 -3.1537e-20)
(0.286324 0.474061 3.04186e-20)
(0.439675 0.346977 -3.61904e-20)
(0.585853 0.195094 3.49139e-20)
(0.705779 0.0361309 2.98822e-22)
(0.81145 -0.16267 0)
(0.913241 -0.406696 -3.41277e-20)
(0.97969 -0.618836 3.24124e-20)
(0.982851 -0.732066 7.26375e-22)
(0.943959 -0.742647 0)
(0.893423 -0.701755 3.94684e-22)
(0.836198 -0.656696 9.24804e-21)
(0.786486 -0.6055 -8.65226e-21)
(0.742335 -0.569282 7.1173e-21)
(0.672306 -0.582483 -1.41776e-20)
(0.580679 -0.586636 1.56391e-20)
(0.517417 -0.460084 -8.29649e-21)
(0.512553 -0.189947 0)
(0.551985 0.107184 2.52198e-22)
(0.615118 0.32138 -1.97343e-22)
(0.700794 0.411877 1.39345e-22)
(0.805242 0.433145 1.34187e-22)
(0.889395 0.495219 0)
(0.91682 0.625535 -2.50693e-21)
(0.906537 0.707686 2.42079e-21)
(0.906717 0.595425 0)
(0.916931 0.284646 2.74538e-22)
(0.914907 -0.0773593 -5.39568e-22)
(0.901881 -0.329188 -8.35749e-22)
(0.871121 -0.442537 2.84539e-22)
(0.803674 -0.489147 -1.02545e-21)
(0.722129 -0.480392 4.62308e-22)
(0.655987 -0.372465 9.10397e-22)
(0.609058 -0.173403 1.33734e-22)
(0.579581 0.057487 -1.12193e-22)
(0.558227 0.25291 -7.25088e-22)
(0.536954 0.369194 7.52293e-22)
(0.515338 0.383387 -5.99106e-24)
(0.508137 0.292482 -3.50017e-22)
(0.533391 0.128243 -3.67223e-22)
(0.595976 -0.0387416 3.00548e-22)
(0.666304 -0.169015 8.05001e-22)
(0.726769 -0.228279 -1.06689e-22)
(0.771987 -0.249679 -1.44375e-22)
(0.808826 -0.197373 0)
(0.826844 -0.178312 -9.90765e-23)
(0.848404 -0.11321 2.85682e-23)
(0.853926 -0.130726 6.70513e-24)
(0.895136 -0.094344 3.52964e-24)
(0.237846 0.43513 -1.79798e-22)
(0.358778 0.411629 2.02468e-22)
(0.489613 0.343664 -2.47025e-22)
(0.626973 0.228704 -2.6792e-22)
(0.748609 0.0977396 0)
(0.846086 -0.0348458 5.47089e-22)
(0.94721 -0.213201 0)
(1.04879 -0.437729 5.49587e-22)
(1.10277 -0.62081 -2.6282e-20)
(1.08541 -0.705421 4.50459e-20)
(1.02119 -0.705377 -1.90931e-20)
(0.950238 -0.662459 1.79574e-22)
(0.880463 -0.620427 -1.51875e-22)
(0.816703 -0.579236 -2.27008e-22)
(0.766706 -0.536636 6.49009e-21)
(0.701421 -0.529306 -4.10646e-22)
(0.604007 -0.53847 -5.80592e-21)
(0.516847 -0.453711 -6.96285e-21)
(0.486684 -0.224208 6.95565e-21)
(0.510373 0.0538108 -2.55697e-22)
(0.572176 0.260587 2.0003e-22)
(0.666804 0.348793 -1.41203e-22)
(0.784313 0.376093 -1.6855e-22)
(0.885793 0.45552 -3.41331e-21)
(0.93572 0.606576 3.46808e-21)
(0.946694 0.704706 6.41509e-21)
(0.961967 0.60684 -6.19261e-21)
(0.980299 0.30845 -3.59651e-23)
(0.976256 -0.0538382 -7.25574e-21)
(0.952922 -0.31212 1.39996e-20)
(0.913542 -0.422296 -5.4443e-21)
(0.838869 -0.462001 -2.17072e-21)
(0.749714 -0.457548 2.09617e-21)
(0.680917 -0.360689 0)
(0.634596 -0.169852 3.32769e-22)
(0.603009 0.0579358 -4.51659e-22)
(0.576647 0.256561 -3.71282e-22)
(0.550331 0.378455 2.78752e-22)
(0.523543 0.393003 3.44554e-22)
(0.511623 0.295363 0)
(0.536091 0.120542 1.81806e-21)
(0.601479 -0.0538097 -1.70185e-21)
(0.675551 -0.184586 -4.46035e-22)
(0.736649 -0.240894 0)
(0.781438 -0.259606 1.60815e-22)
(0.81751 -0.20402 -1.5544e-22)
(0.836288 -0.182646 4.01346e-23)
(0.856665 -0.116095 2.55923e-23)
(0.860113 -0.134823 0)
(0.898759 -0.0982989 -3.52421e-24)
(0.458875 0.312625 4.79345e-20)
(0.561573 0.293548 -4.63695e-20)
(0.674309 0.23802 -4.20888e-22)
(0.791448 0.142324 0)
(0.89092 0.0329311 0)
(0.976726 -0.0855641 -5.5966e-22)
(1.08182 -0.253574 0)
(1.17841 -0.450301 5.93795e-20)
(1.20667 -0.5954 -5.77315e-20)
(1.16319 -0.652298 0)
(1.0813 -0.64738 -2.59174e-22)
(0.997966 -0.612863 2.07432e-20)
(0.924348 -0.576821 -2.07354e-20)
(0.853217 -0.545758 1.85983e-23)
(0.794912 -0.507616 5.46533e-21)
(0.736559 -0.484648 -9.9553e-21)
(0.645183 -0.487061 4.68266e-21)
(0.539014 -0.435174 0)
(0.478802 -0.252453 -5.49511e-21)
(0.482761 0.00108075 5.02069e-21)
(0.539075 0.197354 0)
(0.637485 0.282123 -2.66517e-21)
(0.763941 0.310243 2.62242e-21)
(0.878988 0.398511 -4.1248e-23)
(0.945492 0.57003 0)
(0.97596 0.694624 0)
(1.0091 0.622847 7.95241e-21)
(1.0365 0.344001 -7.84174e-21)
(1.03318 -0.015188 0)
(1.00314 -0.283553 -4.13576e-22)
(0.95649 -0.394777 0)
(0.875329 -0.430104 0)
(0.778433 -0.432653 1.03471e-21)
(0.706459 -0.350446 -1.06865e-21)
(0.661249 -0.168768 0)
(0.629181 0.0579134 8.82818e-22)
(0.600146 0.260163 -6.48197e-22)
(0.570125 0.384923 -2.31079e-22)
(0.537986 0.400931 -1.62423e-21)
(0.521194 0.299433 1.56785e-21)
(0.544573 0.114137 0)
(0.61172 -0.0684207 0)
(0.688364 -0.200017 0)
(0.749157 -0.253288 2.09185e-22)
(0.79251 -0.26936 -7.74229e-22)
(0.826849 -0.210742 1.24375e-22)
(0.8457 -0.187003 1.59116e-23)
(0.864994 -0.1187 6.73356e-23)
(0.866238 -0.138451 -1.42489e-23)
(0.902258 -0.102009 0)
(0.653956 0.208554 -5.87753e-21)
(0.73548 0.195426 9.25663e-20)
(0.831096 0.152663 -4.78564e-20)
(0.933342 0.0756597 -6.16321e-20)
(1.02396 -0.0166787 5.90204e-20)
(1.11424 -0.130124 0)
(1.21891 -0.28452 6.13142e-20)
(1.29209 -0.442548 -5.86468e-20)
(1.28581 -0.547694 -4.54491e-20)
(1.21749 -0.586589 4.34868e-20)
(1.12654 -0.583683 0)
(1.03766 -0.56115 3.737e-22)
(0.962865 -0.533357 0)
(0.892784 -0.508722 1.2405e-20)
(0.827319 -0.477855 -2.1387e-20)
(0.771138 -0.446873 9.29166e-21)
(0.695736 -0.436179 0)
(0.586155 -0.403603 8.25678e-23)
(0.496893 -0.268301 0)
(0.474013 -0.0486793 1.0948e-22)
(0.517488 0.132765 0)
(0.613832 0.211573 0)
(0.742497 0.238253 -3.42711e-21)
(0.865214 0.334095 5.80072e-21)
(0.947654 0.520379 -5.83806e-21)
(0.995833 0.664508 3.35497e-21)
(1.03958 0.620377 -3.90604e-22)
(1.07772 0.371078 7.96799e-21)
(1.08012 0.027901 -7.28091e-21)
(1.04702 -0.249124 -5.11053e-21)
(0.99809 -0.365767 1.77024e-21)
(0.914068 -0.396938 3.04511e-21)
(0.808937 -0.405901 -7.81172e-22)
(0.731791 -0.340964 8.2444e-22)
(0.688263 -0.171357 0)
(0.658065 0.0522913 4.09772e-22)
(0.628327 0.259164 7.71064e-22)
(0.595288 0.394935 -1.20668e-21)
(0.558649 0.416892 0)
(0.537494 0.308886 -9.96065e-22)
(0.55943 0.110483 1.83486e-21)
(0.627156 -0.0819345 -1.76936e-21)
(0.704893 -0.215005 0)
(0.764311 -0.265226 3.66064e-22)
(0.805208 -0.278689 5.83918e-22)
(0.836911 -0.217337 -3.72935e-22)
(0.855095 -0.191302 -1.68063e-22)
(0.873352 -0.121029 0)
(0.872432 -0.141587 0)
(0.905691 -0.10546 -9.81845e-24)
(0.880558 0.126566 -4.19786e-20)
(0.937586 0.113941 4.05816e-20)
(1.01398 0.0790676 0)
(1.10061 0.0170136 6.59407e-23)
(1.18025 -0.0614679 -4.03188e-22)
(1.26476 -0.165411 0)
(1.34466 -0.293314 0)
(1.37146 -0.407555 3.68155e-22)
(1.32833 -0.4775 5.02222e-23)
(1.2451 -0.50705 3.32893e-20)
(1.15527 -0.512931 -3.16596e-20)
(1.07096 -0.505607 0)
(0.997277 -0.490259 0)
(0.931531 -0.471917 1.97561e-22)
(0.865252 -0.448247 -1.46783e-22)
(0.804937 -0.417676 0)
(0.743881 -0.394142 4.99214e-21)
(0.649282 -0.364922 -4.89683e-21)
(0.542765 -0.268251 -4.11709e-21)
(0.489709 -0.0881606 4.19486e-21)
(0.513911 0.0767565 0)
(0.600173 0.147478 -2.23324e-21)
(0.723091 0.165366 2.11629e-21)
(0.847465 0.255923 -3.73828e-21)
(0.940359 0.456292 -2.14698e-21)
(1.0013 0.633358 5.67032e-21)
(1.06203 0.625273 1.10973e-20)
(1.11443 0.407442 -1.11176e-20)
(1.12097 0.0765435 0)
(1.08542 -0.207716 0)
(1.03596 -0.333212 0)
(0.952542 -0.361294 2.35387e-22)
(0.840314 -0.375956 0)
(0.755874 -0.331168 -2.35543e-23)
(0.714028 -0.176932 -1.36999e-22)
(0.687738 0.0458314 2.30546e-22)
(0.659468 0.259788 1.01001e-22)
(0.625697 0.401 2.10004e-22)
(0.585586 0.425253 4.0317e-21)
(0.560267 0.316395 -2.51417e-21)
(0.580665 0.107733 0)
(0.647881 -0.0943449 9.48226e-22)
(0.725126 -0.229174 6.69074e-22)
(0.782029 -0.276373 0)
(0.819477 -0.287334 0)
(0.847712 -0.2236 0)
(0.864491 -0.195448 5.78439e-23)
(0.88167 -0.12309 -6.45223e-23)
(0.87875 -0.144229 -3.03132e-23)
(0.909107 -0.108636 9.78845e-24)
(1.13957 0.0783501 4.07921e-20)
(1.17079 0.0599878 -3.9418e-20)
(1.22005 0.0295504 4.53958e-20)
(1.27825 -0.0187945 -4.3516e-20)
(1.33205 -0.0854976 4.21417e-22)
(1.38493 -0.171542 0)
(1.41478 -0.264255 -3.46227e-22)
(1.39259 -0.341383 -7.08758e-22)
(1.33029 -0.394641 -3.67907e-20)
(1.2535 -0.428587 3.60533e-20)
(1.17567 -0.447332 -2.58905e-20)
(1.10162 -0.452392 4.6587e-21)
(1.03168 -0.448046 1.90933e-20)
(0.967796 -0.436718 -2.05555e-22)
(0.905425 -0.416894 1.52629e-22)
(0.841144 -0.390979 5.93622e-21)
(0.783701 -0.364008 -9.53195e-21)
(0.711864 -0.329877 1.31116e-21)
(0.610384 -0.255267 2.25759e-21)
(0.532255 -0.114864 -1.99743e-21)
(0.531367 0.0273624 1.93943e-21)
(0.602017 0.0894732 0)
(0.712927 0.0973964 1.47073e-21)
(0.829537 0.179214 -4.36807e-21)
(0.923113 0.380123 2.90524e-21)
(0.992382 0.572605 -6.67052e-21)
(1.05866 0.60494 6.23981e-21)
(1.11745 0.433127 -1.07794e-20)
(1.14041 0.130658 1.00595e-20)
(1.11387 -0.15791 8.46388e-21)
(1.06834 -0.298314 -7.94416e-21)
(0.990224 -0.325211 9.21405e-22)
(0.873248 -0.343322 -1.14559e-21)
(0.778606 -0.319458 0)
(0.737026 -0.184966 -3.49847e-23)
(0.716894 0.03125 -4.4555e-23)
(0.693738 0.25069 -7.6449e-22)
(0.661261 0.408266 8.60274e-22)
(0.618366 0.447358 3.45163e-21)
(0.58976 0.334219 -4.26006e-21)
(0.60845 0.110067 0)
(0.674139 -0.104242 -4.42909e-21)
(0.749083 -0.242018 3.82965e-21)
(0.802179 -0.286663 -4.06509e-22)
(0.835216 -0.295362 -6.89008e-22)
(0.859235 -0.229539 0)
(0.873913 -0.199455 5.97215e-23)
(0.889868 -0.124935 -5.84679e-23)
(0.885188 -0.146407 -2.33457e-23)
(0.912538 -0.111537 0)
(1.30237 0.0593574 3.96461e-20)
(1.31769 0.0395508 -3.82005e-20)
(1.34424 0.0145581 -4.13997e-20)
(1.37081 -0.0249394 8.30768e-20)
(1.39479 -0.0801168 -8.50744e-20)
(1.41061 -0.14491 4.23121e-20)
(1.40068 -0.210526 3.64567e-22)
(1.36356 -0.270172 3.41433e-22)
(1.31202 -0.321947 -3.05973e-22)
(1.25386 -0.362035 1.18233e-22)
(1.19016 -0.389916 2.1845e-22)
(1.12586 -0.404465 -1.75342e-22)
(1.06323 -0.40762 1.52828e-20)
(1.00054 -0.404756 -1.47381e-20)
(0.94158 -0.389979 0)
(0.879796 -0.36584 -5.52277e-23)
(0.819017 -0.342504 3.83495e-23)
(0.760795 -0.308331 0)
(0.68098 -0.2406 -4.80461e-22)
(0.595434 -0.124329 4.45325e-22)
(0.569721 -0.00212461 2.10937e-24)
(0.619243 0.0468825 4.41491e-22)
(0.710539 0.0380042 -4.24651e-22)
(0.811247 0.101032 -3.45292e-23)
(0.903426 0.30435 -3.57181e-21)
(0.978565 0.528108 3.39669e-21)
(1.05427 0.592358 0)
(1.13254 0.449434 0)
(1.16517 0.170641 -8.85941e-21)
(1.1376 -0.116488 8.94569e-21)
(1.09364 -0.268366 -2.78634e-23)
(1.02452 -0.292462 1.09125e-22)
(0.907158 -0.309129 3.59443e-22)
(0.800868 -0.306684 -4.37272e-22)
(0.756371 -0.19572 6.60884e-22)
(0.744618 0.0176086 -6.34938e-22)
(0.728727 0.245209 0)
(0.698344 0.411218 1.97422e-21)
(0.655539 0.453198 -2.0461e-21)
(0.62431 0.341389 -2.29315e-23)
(0.641799 0.111095 4.91419e-21)
(0.70536 -0.112792 -4.15028e-21)
(0.77639 -0.254174 0)
(0.824473 -0.296581 0)
(0.852274 -0.302953 -4.29266e-22)
(0.871471 -0.235222 4.11793e-22)
(0.88342 -0.203348 6.17485e-23)
(0.897893 -0.126632 -1.77916e-23)
(0.89172 -0.148149 1.1219e-23)
(0.916002 -0.114157 0)
(1.30827 0.0491286 -7.83574e-23)
(1.32023 0.0369652 0)
(1.33424 0.0203105 3.84336e-20)
(1.34646 -0.00799465 -7.56069e-20)
(1.35615 -0.0467694 3.70177e-20)
(1.35783 -0.0936011 -1.63153e-22)
(1.34699 -0.145961 0)
(1.3267 -0.200571 0)
(1.2958 -0.253912 0)
(1.25415 -0.299253 -1.25368e-22)
(1.20385 -0.334757 -2.46202e-20)
(1.14752 -0.360114 2.36851e-20)
(1.09167 -0.371221 1.61575e-20)
(1.03225 -0.374877 -1.55127e-20)
(0.97346 -0.368559 0)
(0.917007 -0.346465 -5.48833e-23)
(0.856772 -0.325087 -3.42568e-21)
(0.799511 -0.299008 4.65914e-21)
(0.740323 -0.239461 -1.42495e-21)
(0.669896 -0.136856 6.34287e-22)
(0.627224 -0.0290493 -4.77974e-22)
(0.648773 0.0171636 -1.23951e-22)
(0.717102 -0.00172065 1.19085e-22)
(0.796922 0.0272881 -1.88949e-23)
(0.872191 0.201202 4.19732e-23)
(0.942649 0.432981 -3.69011e-21)
(1.02245 0.553182 3.54326e-21)
(1.10095 0.48225 0)
(1.15143 0.244852 -7.12247e-21)
(1.14764 -0.0450067 1.29821e-20)
(1.11282 -0.226606 -6.20281e-21)
(1.05596 -0.260084 0)
(0.942231 -0.272336 2.88103e-23)
(0.824142 -0.285648 -9.51966e-24)
(0.773526 -0.207238 -1.43526e-21)
(0.768834 -0.0137454 1.37638e-21)
(0.763275 0.222847 0)
(0.74144 0.411646 -1.98176e-21)
(0.698603 0.479876 1.89945e-21)
(0.663742 0.371078 6.06423e-21)
(0.681445 0.122832 -5.21695e-21)
(0.741661 -0.118068 -5.74107e-22)
(0.806813 -0.264151 0)
(0.84875 -0.304073 0)
(0.870569 -0.308176 -4.48329e-22)
(0.884423 -0.239415 4.29104e-22)
(0.893069 -0.206417 0)
(0.905715 -0.127906 0)
(0.898313 -0.149346 1.98972e-23)
(0.919499 -0.116437 -7.46474e-24)
(1.26921 0.0426949 0)
(1.28824 0.0298194 0)
(1.30162 0.0134683 0)
(1.31019 -0.00907925 0)
(1.31616 -0.038812 0)
(1.31866 -0.0751293 0)
(1.3142 -0.116596 0)
(1.3023 -0.159311 0)
(1.28017 -0.200971 0)
(1.24741 -0.238344 0)
(1.20881 -0.268662 0)
(1.16178 -0.294287 0)
(1.11265 -0.309219 0)
(1.06041 -0.31619 0)
(1.0032 -0.318758 0)
(0.949726 -0.304075 0)
(0.895811 -0.284196 0)
(0.838227 -0.266834 0)
(0.783326 -0.22216 0)
(0.732428 -0.13167 0)
(0.700725 -0.0326056 0)
(0.702716 0.00352468 0)
(0.730572 -0.0332273 0)
(0.786837 -0.0166863 0)
(0.857286 0.155272 0)
(0.928123 0.390297 0)
(1.00616 0.513576 0)
(1.08919 0.452055 0)
(1.16048 0.244587 0)
(1.16026 -0.018047 0)
(1.12108 -0.193696 0)
(1.07872 -0.222626 0)
(0.977343 -0.227756 0)
(0.848107 -0.255551 0)
(0.784848 -0.204246 0)
(0.78736 -0.0253735 0)
(0.795631 0.208393 0)
(0.781147 0.403175 0)
(0.739696 0.476181 0)
(0.708008 0.368303 0)
(0.725831 0.122573 0)
(0.781003 -0.117806 0)
(0.839435 -0.264529 0)
(0.874243 -0.303733 0)
(0.889247 -0.308175 0)
(0.897347 -0.240507 0)
(0.90235 -0.207731 0)
(0.912927 -0.128396 0)
(0.904599 -0.149845 0)
(0.922804 -0.118289 0)
(1.25559 0.039835 0)
(1.2709 0.0226217 0)
(1.2813 0.00246549 0)
(1.28761 -0.020462 0)
(1.29006 -0.0478805 0)
(1.28954 -0.0804056 0)
(1.28399 -0.117185 0)
(1.27133 -0.156209 0)