/*--------------------------------*- C++ -*----------------------------------*\
| =========                 |                                                 |
| \\      /  F ield         | OpenFOAM: The Open Source CFD Toolbox           |
|  \\    /   O peration     | Version:  2512                                  |
|   \\  /    A nd           | Website:  www.openfoam.com                      |
|    \\/     M anipulation  |                                                 |
\*---------------------------------------------------------------------------*/
FoamFile
{
    version     2.0;
    format      ascii;
    arch        "LSB;label=32;scalar=64";
    class       volScalarField;
    location    "138.75";
    object      p;
}
// * * * * * * * * * * * * * * * * * * * * * * * * * * * * * * * * * * * * * //

dimensions      [0 2 -2 0 0 0 0];

internalField   nonuniform List<scalar> 
13248
(
-0.308336
-0.310074
-0.310548
-0.310258
-0.309105
-0.306645
-0.302378
-0.295961
-0.28714
-0.275859
-0.262336
-0.24707
-0.23077
-0.214234
-0.198208
-0.18328
-0.169809
-0.157972
-0.1477
-0.138953
-0.131409
-0.124974
-0.119205
-0.113631
-0.312925
-0.31364
-0.313526
-0.312832
-0.311369
-0.308664
-0.30425
-0.297708
-0.288763
-0.277394
-0.263886
-0.248802
-0.232859
-0.21679
-0.201214
-0.186575
-0.17313
-0.160979
-0.150102
-0.140406
-0.131674
-0.123756
-0.11624
-0.109125
-0.318362
-0.317951
-0.316973
-0.315511
-0.313364
-0.310104
-0.305222
-0.298242
-0.288878
-0.277152
-0.263427
-0.248317
-0.232532
-0.216734
-0.201447
-0.187026
-0.173655
-0.1614
-0.150194
-0.139962
-0.130508
-0.121748
-0.113493
-0.105751
-0.324513
-0.322957
-0.320932
-0.31848
-0.315433
-0.31137
-0.305708
-0.297915
-0.287724
-0.275265
-0.261021
-0.245668
-0.229905
-0.214322
-0.199337
-0.185194
-0.171998
-0.15975
-0.148404
-0.137891
-0.128083
-0.118991
-0.11036
-0.102395
-0.331759
-0.329086
-0.325921
-0.322408
-0.318321
-0.313176
-0.3063
-0.297167
-0.285656
-0.272098
-0.257124
-0.241447
-0.225699
-0.21034
-0.195651
-0.181772
-0.168749
-0.156578
-0.145219
-0.134614
-0.124696
-0.115424
-0.106658
-0.0985841
-0.340613
-0.336575
-0.332475
-0.327909
-0.322589
-0.315927
-0.307236
-0.29617
-0.282905
-0.26802
-0.252236
-0.236214
-0.220444
-0.205235
-0.190753
-0.177071
-0.164204
-0.152134
-0.140824
-0.130227
-0.120287
-0.110979
-0.102191
-0.094092
-0.351687
-0.346374
-0.341119
-0.335326
-0.328382
-0.319575
-0.308398
-0.294897
-0.279621
-0.263324
-0.246709
-0.230299
-0.214424
-0.199262
-0.184892
-0.171339
-0.15859
-0.146621
-0.135393
-0.124863
-0.114991
-0.105721
-0.0970047
-0.0889425
-0.365094
-0.35835
-0.351897
-0.344591
-0.335421
-0.323726
-0.309463
-0.293215
-0.275837
-0.258126
-0.240665
-0.223805
-0.207728
-0.192506
-0.178156
-0.164665
-0.152003
-0.140133
-0.129011
-0.118592
-0.108825
-0.0996639
-0.0910857
-0.0830927
-0.380647
-0.372417
-0.364586
-0.355267
-0.343083
-0.327767
-0.310008
-0.290904
-0.27146
-0.252378
-0.234059
-0.216687
-0.200321
-0.184957
-0.170563
-0.157096
-0.144506
-0.132739
-0.121745
-0.111467
-0.101855
-0.0928603
-0.0844631
-0.0765874
-0.397815
-0.388095
-0.378573
-0.3665
-0.35043
-0.330922
-0.309498
-0.287599
-0.266194
-0.245796
-0.226613
-0.208686
-0.191979
-0.176427
-0.161958
-0.1485
-0.135982
-0.124338
-0.113501
-0.103407
-0.0939969
-0.0852216
-0.0770373
-0.0693209
-0.41566
-0.404478
-0.392776
-0.377021
-0.356254
-0.33222
-0.307161
-0.28262
-0.259384
-0.237739
-0.217718
-0.19924
-0.182192
-0.166458
-0.151929
-0.138505
-0.126095
-0.114615
-0.103988
-0.0941387
-0.0850039
-0.0765258
-0.0686256
-0.0611864
-0.432881
-0.420284
-0.405723
-0.385294
-0.359198
-0.330531
-0.301996
-0.275024
-0.250127
-0.227359
-0.206592
-0.187641
-0.170325
-0.154482
-0.139967
-0.126652
-0.114426
-0.103188
-0.0928479
-0.0833253
-0.0745549
-0.0664755
-0.0589966
-0.052034
-0.501221
-0.501586
-0.501462
-0.503546
-0.508639
-0.5168
-0.527854
-0.541513
-0.557325
-0.574624
-0.592519
-0.609909
-0.625477
-0.638004
-0.645307
-0.647158
-0.642419
-0.630375
-0.610772
-0.583936
-0.550822
-0.512657
-0.473624
-0.43542
-0.471065
-0.472182
-0.471813
-0.472679
-0.475804
-0.481258
-0.488858
-0.498307
-0.509173
-0.520845
-0.532528
-0.543252
-0.55185
-0.557054
-0.558405
-0.554757
-0.545558
-0.530542
-0.509876
-0.484273
-0.455009
-0.423774
-0.392964
-0.36559
-0.440785
-0.442409
-0.441714
-0.441401
-0.442546
-0.445215
-0.449195
-0.454163
-0.459683
-0.465194
-0.470016
-0.473336
-0.474286
-0.471684
-0.465803
-0.455836
-0.441551
-0.423114
-0.401105
-0.376564
-0.351026
-0.326303
-0.303981
-0.286433
-0.412054
-0.413986
-0.413074
-0.411864
-0.411374
-0.41163
-0.412386
-0.413287
-0.413888
-0.413664
-0.412027
-0.408358
-0.401986
-0.392849
-0.380523
-0.364956
-0.346399
-0.325443
-0.303038
-0.28045
-0.259203
-0.241223
-0.227813
-0.217895
-0.385999
-0.388136
-0.387213
-0.385517
-0.383921
-0.382386
-0.380634
-0.378295
-0.374931
-0.370062
-0.363241
-0.354212
-0.342507
-0.32804
-0.310892
-0.291401
-0.27019
-0.248177
-0.226536
-0.206694
-0.190043
-0.177804
-0.172608
-0.171166
-0.363216
-0.365545
-0.364833
-0.363062
-0.360907
-0.358241
-0.354761
-0.350109
-0.34388
-0.335636
-0.325473
-0.312603
-0.297154
-0.279241
-0.259213
-0.237675
-0.215492
-0.193787
-0.173789
-0.156779
-0.144475
-0.136711
-0.137195
-0.141191
-0.343945
-0.346508
-0.346163
-0.344607
-0.342315
-0.339057
-0.334511
-0.328363
-0.320329
-0.310194
-0.297386
-0.282104
-0.264424
-0.244638
-0.223285
-0.20115
-0.179165
-0.158615
-0.14074
-0.126337
-0.117639
-0.113079
-0.116771
-0.123644
-0.32831
-0.331148
-0.331211
-0.329986
-0.32778
-0.32427
-0.319108
-0.312008
-0.302735
-0.2911
-0.276914
-0.260281
-0.241447
-0.220866
-0.199246
-0.177502
-0.156694
-0.137951
-0.122614
-0.111001
-0.105434
-0.103578
-0.109094
-0.117132
-0.316498
-0.31958
-0.319988
-0.319069
-0.317025
-0.313471
-0.308037
-0.300447
-0.290509
-0.278107
-0.263235
-0.246069
-0.226989
-0.206489
-0.185581
-0.165139
-0.146254
-0.129959
-0.117353
-0.10867
-0.105272
-0.105553
-0.111122
-0.118787
-0.308751
-0.311932
-0.312569
-0.311901
-0.310063
-0.30665
-0.30129
-0.293707
-0.283732
-0.271306
-0.256501
-0.239571
-0.220998
-0.201479
-0.181929
-0.163323
-0.146657
-0.132813
-0.122417
-0.115826
-0.113091
-0.11379
-0.117353
-0.122486
-0.305139
-0.308157
-0.30889
-0.308471
-0.306922
-0.303839
-0.298905
-0.29177
-0.282254
-0.270297
-0.25601
-0.239744
-0.222067
-0.203758
-0.185735
-0.168909
-0.154086
-0.141882
-0.132558
-0.126252
-0.122606
-0.121486
-0.121878
-0.123404
-0.305375
-0.307921
-0.308676
-0.308387
-0.307117
-0.304458
-0.299942
-0.293278
-0.28423
-0.272735
-0.258952
-0.243301
-0.22644
-0.209187
-0.192398
-0.17684
-0.163068
-0.151431
-0.141947
-0.134553
-0.128917
-0.124807
-0.121906
-0.120316
-0.394311
-0.359427
-0.339915
-0.338184
-0.353596
-0.381664
-0.413952
-0.439963
-0.447905
-0.426425
-0.374782
-0.307462
-0.243154
-0.194136
-0.163047
-0.147705
-0.145301
-0.153715
-0.174536
-0.213296
-0.267866
-0.317555
-0.33492
-0.311757
-0.259822
-0.202325
-0.156258
-0.128611
-0.116914
-0.119274
-0.139965
-0.180314
-0.225281
-0.248272
-0.230745
-0.187073
-0.140857
-0.107175
-0.0894806
-0.0883801
-0.101374
-0.114498
-0.113341
-0.0988516
-0.0830378
-0.071694
-0.0682317
-0.0711044
-0.0754444
-0.0730902
-0.064526
-0.0513003
-0.0436333
-0.0384475
-0.0342608
-0.0244963
-0.0209935
-0.0182757
-0.0203696
-0.00588674
-0.339666
-0.32477
-0.323858
-0.337901
-0.36429
-0.397086
-0.429243
-0.453532
-0.460159
-0.437476
-0.38441
-0.315583
-0.249546
-0.198217
-0.163884
-0.144408
-0.13772
-0.141586
-0.156459
-0.186966
-0.232368
-0.276074
-0.293648
-0.275174
-0.232137
-0.183392
-0.144505
-0.12237
-0.115375
-0.122831
-0.149865
-0.197145
-0.247951
-0.27407
-0.254915
-0.205957
-0.152526
-0.111329
-0.0869716
-0.079291
-0.0858733
-0.0941072
-0.0921879
-0.0815665
-0.0711265
-0.0661258
-0.069185
-0.0783783
-0.0869193
-0.0850179
-0.0743903
-0.0557291
-0.0419476
-0.0305239
-0.0225834
-0.0150952
-0.0153803
-0.0215899
-0.0280494
-0.00879686
-0.277299
-0.283382
-0.300293
-0.328531
-0.363082
-0.39787
-0.42852
-0.45031
-0.455207
-0.432312
-0.379934
-0.312052
-0.247131
-0.196204
-0.160806
-0.138554
-0.12754
-0.126606
-0.135433
-0.157399
-0.193078
-0.230158
-0.248041
-0.235439
-0.201648
-0.161504
-0.129539
-0.112768
-0.110243
-0.122525
-0.15531
-0.208376
-0.264068
-0.293636
-0.274526
-0.221627
-0.16202
-0.114032
-0.0837471
-0.0703177
-0.0713499
-0.0753716
-0.0724841
-0.0648051
-0.0589683
-0.060116
-0.069822
-0.0855053
-0.0983214
-0.0965888
-0.0837509
-0.0598879
-0.0402075
-0.0227795
-0.0110608
-0.00587018
-0.00967478
-0.0247243
-0.0354346
-0.0117406
-0.224618
-0.2455
-0.275737
-0.313217
-0.35215
-0.386992
-0.416622
-0.434398
-0.436743
-0.412727
-0.362105
-0.298178
-0.237418
-0.188969
-0.154131
-0.130729
-0.116677
-0.110923
-0.113735
-0.12758
-0.153923
-0.184002
-0.201523
-0.194533
-0.169751
-0.137613
-0.111966
-0.100002
-0.101324
-0.117412
-0.154351
-0.21208
-0.272317
-0.305664
-0.288235
-0.233249
-0.168908
-0.115241
-0.0798492
-0.0616374
-0.0580796
-0.0585734
-0.0544711
-0.0487755
-0.0466592
-0.0536152
-0.0699418
-0.0922748
-0.109522
-0.107648
-0.0924487
-0.0636741
-0.0384438
-0.0154034
0.000155106
0.00304756
-0.00393569
-0.0274805
-0.0423768
-0.0146948
-0.185144
-0.213932
-0.250357
-0.291292
-0.331054
-0.363976
-0.388186
-0.407052
-0.407633
-0.383144
-0.335625
-0.277775
-0.223112
-0.178522
-0.145057
-0.121355
-0.10559
-0.0965239
-0.0938759
-0.0999972
-0.117431
-0.140546
-0.156666
-0.153794
-0.137573
-0.112655
-0.0925334
-0.084557
-0.0889593
-0.107637
-0.146962
-0.207733
-0.271729
-0.308956
-0.295223
-0.240458
-0.17309
-0.115168
-0.0755277
-0.0534133
-0.0461582
-0.0438341
-0.0383143
-0.0336735
-0.0342634
-0.0464508
-0.0693413
-0.0985276
-0.120366
-0.118069
-0.100369
-0.0670324
-0.0366923
-0.00856061
0.0109133
0.0115539
0.00179749
-0.029698
-0.0487345
-0.0176233
-0.157934
-0.187727
-0.224189
-0.26414
-0.302492
-0.334785
-0.359035
-0.37349
-0.371097
-0.346569
-0.303706
-0.253621
-0.206258
-0.166474
-0.135073
-0.111406
-0.0944829
-0.083189
-0.0769976
-0.0768752
-0.0859548
-0.101963
-0.115631
-0.114382
-0.106548
-0.0877488
-0.0722634
-0.0674179
-0.0741131
-0.0942107
-0.134096
-0.195547
-0.262441
-0.30341
-0.295173
-0.242819
-0.174408
-0.113975
-0.0710218
-0.0458226
-0.0356363
-0.0311906
-0.0241353
-0.0196845
-0.0219514
-0.0386848
-0.067849
-0.103975
-0.130652
-0.12772
-0.107379
-0.0698972
-0.0349847
-0.00240745
0.0210678
0.0195483
0.00749228
-0.0312314
-0.0543774
-0.0204787
-0.140709
-0.167552
-0.200058
-0.236144
-0.270856
-0.301173
-0.323767
-0.334378
-0.329421
-0.30644
-0.270025
-0.228642
-0.188894
-0.154121
-0.125241
-0.102053
-0.0842369
-0.0712337
-0.0623549
-0.0579927
-0.0602469
-0.0693669
-0.0805384
-0.0909344
-0.0783354
-0.0639818
-0.0522849
-0.0496799
-0.0578788
-0.078486
-0.117037
-0.176469
-0.244038
-0.28906
-0.286933
-0.239696
-0.17284
-0.111836
-0.0665963
-0.039011
-0.0264803
-0.0205755
-0.0120164
-0.00709333
-0.0100226
-0.0302206
-0.0653144
-0.108501
-0.140208
-0.13649
-0.113387
-0.072205
-0.0333248
0.00293202
0.0304788
0.0269507
0.013095
-0.031976
-0.0591979
-0.0232048
-0.132824
-0.153916
-0.179783
-0.210346
-0.241041
-0.265568
-0.283654
-0.290982
-0.285021
-0.265648
-0.236978
-0.204438
-0.172077
-0.142247
-0.116062
-0.0938101
-0.0755796
-0.0612959
-0.0504235
-0.0429135
-0.0399729
-0.0428862
-0.0494938
-0.0565079
-0.0513649
-0.0420522
-0.0335167
-0.0324588
-0.0414157
-0.0615103
-0.0975518
-0.153075
-0.218529
-0.267065
-0.271367
-0.231524
-0.168511
-0.108781
-0.0623938
-0.0330517
-0.0186144
-0.0118165
-0.0020203
0.00389882
0.00125017
-0.0213526
-0.0616532
-0.111608
-0.14869
-0.144134
-0.118285
-0.0738805
-0.0316819
0.00740249
0.0390285
0.0336908
0.0185228
-0.0318529
-0.0631072
-0.0257375
-0.131089
-0.143913
-0.16144
-0.184314
-0.207524
-0.227553
-0.240603
-0.245786
-0.241283
-0.227498
-0.206898
-0.182419
-0.156597
-0.131306
-0.107805
-0.0867549
-0.0685295
-0.0534112
-0.0411539
-0.0315123
-0.0249784
-0.0227176
-0.0244634
-0.0284453
-0.0274665
-0.0222818
-0.0165724
-0.0165609
-0.025586
-0.0447605
-0.0772188
-0.126721
-0.188935
-0.239577
-0.258087
-0.219759
-0.161743
-0.104709
-0.0583827
-0.0278858
-0.0119242
-0.00463224
0.0059138
0.0130649
0.0115719
-0.0118812
-0.0565817
-0.113494
-0.155926
-0.150928
-0.122066
-0.074867
-0.0300516
0.0109861
0.0466205
0.0397406
0.0236928
-0.0308717
-0.0660555
-0.0280158
-0.128586
-0.133394
-0.144657
-0.16057
-0.175438
-0.189306
-0.199112
-0.203967
-0.202362
-0.194228
-0.180481
-0.162611
-0.14233
-0.121167
-0.10035
-0.0807854
-0.0630271
-0.0475427
-0.0343972
-0.0233823
-0.0145965
-0.00863405
-0.00601957
-0.00667923
-0.00835708
-0.00525201
-0.00198007
-0.00276966
-0.011382
-0.0291311
-0.0577075
-0.101137
-0.157023
-0.206918
-0.227909
-0.201545
-0.152029
-0.0996068
-0.0547797
-0.0236299
-0.0064159
0.00115963
0.0119079
0.0202816
0.0205202
-0.00249876
-0.050319
-0.113136
-0.161271
-0.155811
-0.124547
-0.0751801
-0.0285557
0.0135258
0.0531969
0.0450665
0.0284936
-0.0290261
-0.0680037
-0.0299868
-0.123479
-0.124613
-0.13162
-0.140153
-0.14881
-0.158093
-0.16639
-0.17171
-0.172763
-0.168863
-0.160074
-0.147147
-0.13123
-0.113559
-0.0952306
-0.0772118
-0.0601903
-0.0446843
-0.0309433
-0.0189564
-0.00866996
-0.000288888
0.00576283
0.00864651
0.0089837
0.0100926
0.0104119
0.00882194
0.000853988
-0.0151102
-0.0394373
-0.075517
-0.125351
-0.174078
-0.198557
-0.184775
-0.142595
-0.0948158
-0.0523512
-0.0208073
-0.00221977
0.00574562
0.0159912
0.0254708
0.0283753
0.00727804
-0.042352
-0.111419
-0.165052
-0.16359
-0.126112
-0.0749721
-0.0272074
0.0149327
0.0586155
0.0497213
0.0328837
-0.0264172
-0.0689726
-0.031622
-0.118799
-0.120458
-0.123621
-0.126393
-0.129634
-0.134663
-0.139908
-0.144081
-0.145931
-0.144507
-0.139406
-0.130758
-0.119052
-0.105037
-0.0895399
-0.0734331
-0.0574876
-0.0423778
-0.0284351
-0.0158617
-0.00478807
0.00482133
0.0131614
0.0191263
0.0213593
0.0204116
0.01989
0.0176774
0.0107339
-0.00413046
-0.024889
-0.0538364
-0.0960802
-0.139646
-0.162842
-0.157286
-0.127648
-0.0866786
-0.048127
-0.0177142
0.0016486
0.0102301
0.0195261
0.0287249
0.0337265
0.0158676
-0.0332968
-0.106461
-0.165356
-0.164497
-0.126145
-0.0734194
-0.0250056
0.0164644
0.0629324
0.0535682
0.0367093
-0.0230485
-0.0689539
-0.0328216
-0.114459
-0.119465
-0.12121
-0.121968
-0.121863
-0.123795
-0.126898
-0.129465
-0.13017
-0.128109
-0.122888
-0.11462
-0.103729
-0.0908467
-0.0766883
-0.0619786
-0.0473136
-0.0332534
-0.020082
-0.00792394
0.00295807
0.0125968
0.0215684
0.029086
0.0333335
0.0333602
0.028886
0.0249397
0.0191184
0.00805918
-0.00824438
-0.0323686
-0.0697292
-0.111803
-0.139529
-0.140718
-0.112057
-0.0740235
-0.0389983
-0.0111923
0.00677987
0.0149608
0.0235348
0.0330302
0.0405806
0.0256678
-0.0223191
-0.0992967
-0.164708
-0.166811
-0.123547
-0.0693381
-0.0212142
0.0190245
0.0668741
0.0569282
0.0401311
-0.0190384
-0.0682398
-0.0335662
-0.1075
-0.113455
-0.114386
-0.111744
-0.111298
-0.11149
-0.112659
-0.113678
-0.113261
-0.110573
-0.10531
-0.0976037
-0.0878234
-0.0764689
-0.0640327
-0.0510347
-0.0379212
-0.0251254
-0.0128863
-0.00136138
0.0091011
0.0184274
0.0271055
0.0345445
0.0387031
0.0375392
0.0337396
0.0294162
0.0239904
0.0148601
0.00171924
-0.0173261
-0.0490997
-0.0888304
-0.116452
-0.117656
-0.0936149
-0.0602821
-0.0297784
-0.00543492
0.0110694
0.0189265
0.0268662
0.03615
0.0442594
0.0318297
-0.0140312
-0.092533
-0.16225
-0.158718
-0.118463
-0.0641355
-0.0171261
0.021134
0.0697107
0.0589705
0.0424512
-0.0151022
-0.066893
-0.0338659
-0.0978897
-0.104909
-0.106329
-0.104023
-0.101589
-0.10009
-0.0997417
-0.0996226
-0.0985337
-0.0956685
-0.0907122
-0.0837571
-0.0750754
-0.0650323
-0.0539697
-0.0422647
-0.030285
-0.0184253
-0.00696864
0.00394992
0.0140715
0.0231448
0.0314742
0.0387342
0.0431126
0.0421722
0.0375018
0.0325246
0.0274346
0.0196509
0.00809952
-0.00784821
-0.0336733
-0.0659735
-0.0904788
-0.0945118
-0.0758603
-0.0476001
-0.0212179
-4.12748e-05
0.0149251
0.0222264
0.029662
0.038716
0.0469852
0.0355862
-0.00864721
-0.0863447
-0.156881
-0.154844
-0.111825
-0.058154
-0.0128856
0.0227735
0.0717026
0.0601219
0.0437546
-0.0112622
-0.0646369
-0.0337165
-0.0881788
-0.0955591
-0.0974033
-0.0950834
-0.0918554
-0.0894043
-0.0880318
-0.0870465
-0.0854302
-0.0824172
-0.0776618
-0.0712022
-0.0632642
-0.0541751
-0.0442204
-0.0336876
-0.0228713
-0.0120629
-0.0014911
0.00863997
0.0181206
0.0267177
0.0345421
0.0412765
0.045568
0.0449847
0.0402726
0.0351767
0.0307702
0.0243239
0.0138366
0.000644029
-0.0174926
-0.0417185
-0.0649804
-0.0718607
-0.0580551
-0.0346556
-0.0124102
0.00518023
0.0183269
0.0249093
0.0319633
0.0405115
0.0488754
0.0381889
-0.0039379
-0.0779742
-0.147641
-0.14719
-0.103199
-0.0511549
-0.00828176
0.0241668
0.0726658
0.0604412
0.0443574
-0.00716492
-0.0613564
-0.0330653
-0.0781923
-0.0854075
-0.0873712
-0.085486
-0.0821722
-0.0792453
-0.0771651
-0.0755039
-0.0734523
-0.0703277
-0.0657929
-0.0598608
-0.0527142
-0.0446089
-0.0357594
-0.0263597
-0.0166116
-0.00676309
0.00299057
0.0124315
0.021322
0.0294095
0.0367131
0.0428066
0.0467971
0.0466631
0.0423661
0.0376144
0.034059
0.0286545
0.0193442
0.0101092
-0.000360691
-0.018872
-0.0411729
-0.0500718
-0.0409283
-0.022575
-0.00413152
0.0101056
0.0213759
0.0270393
0.0337361
0.0415713
0.0496419
0.039967
0.0016349
-0.0662671
-0.133889
-0.135173
-0.092479
-0.0434228
-0.00356538
0.0252858
0.0724429
0.0599205
0.0445088
-0.00263016
-0.0570278
-0.0318581
-0.0678825
-0.0750979
-0.0773931
-0.0757493
-0.0725231
-0.0694035
-0.0669283
-0.064855
-0.0625598
-0.059464
-0.0552425
-0.0498501
-0.043405
-0.0361106
-0.0281464
-0.0196714
-0.0108511
-0.0019066
0.00700281
0.0156623
0.0238347
0.0312725
0.0380169
0.0435626
0.0471938
0.0474828
0.0439734
0.0399167
0.0372814
0.0332141
0.0261727
0.0209656
0.0154291
0.000425083
-0.0205836
-0.0303253
-0.0250208
-0.0112599
0.00373783
0.0148074
0.0240996
0.0287144
0.0349867
0.0419662
0.0493809
0.041138
0.00801088
-0.0518369
-0.115639
-0.118567
-0.0797459
-0.0351891
0.00113688
0.0262189
0.0709313
0.0585559
0.0442697
0.00218891
-0.0516837
-0.0300594
-0.0579929
-0.064937
-0.0673138
-0.0659547
-0.0629682
-0.0598994
-0.0573089
-0.055068
-0.052693
-0.0496957
-0.0457702
-0.0408412
-0.0349992
-0.0284256
-0.0212875
-0.0137225
-0.00583597
0.00220291
0.0102658
0.018157
0.0256546
0.0324691
0.0386464
0.0437136
0.047068
0.0477801
0.0452794
0.0421965
0.0406101
0.0388293
0.0352545
0.0329309
0.0288771
0.0153036
-0.00354337
-0.0127557
-0.0105273
-0.00109605
0.0107529
0.0191997
0.0265714
0.0300997
0.0358167
0.0418909
0.0479449
0.0413697
0.0141202
-0.0358423
-0.0936163
-0.0975591
-0.0652413
-0.0267933
0.00555542
0.0270222
0.0681058
0.0563412
0.0436129
0.00707304
-0.0453753
-0.0276504
-0.0485248
-0.0549538
-0.0573616
-0.0563407
-0.0536921
-0.0508224
-0.0482887
-0.0460316
-0.0436734
-0.0408102
-0.0371786
-0.032706
-0.0274623
-0.0215959
-0.0152367
-0.00849286
-0.00143918
0.00577932
0.0130483
0.0201812
0.0269923
0.0331863
0.0387923
0.043431
0.0465802
0.0476962
0.0462913
0.0443639
0.0438248
0.0442233
0.0440593
0.0435616
0.0391637
0.0264485
0.0105791
0.00239955
0.00215518
0.00783771
0.0168721
0.0232538
0.028844
0.0313586
0.0363562
0.0415581
0.0457888
0.0406013
0.0194303
-0.0194916
-0.0693382
-0.0735276
-0.0494983
-0.0185367
0.00949056
0.0277849
0.0640146
0.0533069
0.0426096
0.0118963
-0.0381744
-0.0246306
-0.0393602
-0.0453555
-0.0478091
-0.0471087
-0.0448139
-0.0422046
-0.0398164
-0.0376384
-0.0353797
-0.0327101
-0.0294066
-0.0253972
-0.0207253
-0.0155049
-0.00984235
-0.00384071
0.00243477
0.00886553
0.0153604
0.0217516
0.0278903
0.0335037
0.0385755
0.0428386
0.0458358
0.047307
0.0469197
0.0461036
0.0464862
0.048297
0.0499593
0.0502571
0.045809
0.0347487
0.0219726
0.0148025
0.0127809
0.0154499
0.0219935
0.0268316
0.0309086
0.0326187
0.036785
0.0411744
0.0434083
0.0392803
0.0239809
-0.00420344
-0.0451155
-0.0491234
-0.033278
-0.010664
0.0128116
0.028632
0.0588514
0.0496635
0.0414557
0.0165934
-0.0302008
-0.021021
-0.0308174
-0.0363623
-0.0387621
-0.0383114
-0.0363618
-0.0340444
-0.031863
-0.0298432
-0.0277575
-0.0253303
-0.022368
-0.018801
-0.0146576
-0.0100343
-0.00502452
0.000278086
0.00582409
0.0115194
0.0172897
0.0229841
0.0284805
0.0335487
0.0381293
0.0420512
0.0449332
0.0466823
0.047136
0.0472362
0.0482414
0.0504962
0.052564
0.0531029
0.0493564
0.0405304
0.0304263
0.0241375
0.0211863
0.0217482
0.0261992
0.0298682
0.0327381
0.0338526
0.0372018
0.0409316
0.0414674
0.0381168
0.0278858
0.0086441
-0.0232275
-0.0259554
-0.0175665
-0.00332301
0.015577
0.0297624
0.0531537
0.0458745
0.0404025
0.0211144
-0.0216425
-0.0168821
-0.022986
-0.0279636
-0.0302259
-0.0299891
-0.0283792
-0.0263753
-0.0244427
-0.0226282
-0.0207526
-0.0185864
-0.0159635
-0.0128211
-0.00917968
-0.0051212
-0.000723552
0.00393388
0.00880963
0.0138245
0.0189177
0.0239614
0.0288514
0.0334054
0.0375402
0.0411454
0.0439332
0.0458774
0.0469473
0.0477151
0.0490349
0.0512021
0.0530825
0.0535455
0.050639
0.0439593
0.0360736
0.030674
0.0275148
0.0268183
0.0295937
0.0323134
0.0343123
0.035016
0.0375865
0.0408041
0.0405278
0.0375325
0.0310064
0.0181942
-0.0052851
-0.00624363
-0.00356373
0.00336668
0.017976
0.0312575
0.0479274
0.0427352
0.0397421
0.0253978
-0.0127771
-0.0123007
-0.0156994
-0.0201454
-0.0222834
-0.0222385
-0.0209418
-0.0192427
-0.0175641
-0.0159664
-0.0143135
-0.0124161
-0.0101299
-0.00739642
-0.00422943
-0.000696039
0.0031377
0.00720218
0.0114595
0.0158459
0.0203122
0.0247532
0.0290806
0.0331513
0.0368776
0.0401824
0.0428726
0.0449253
0.046382
0.0475703
0.0489905
0.0508759
0.0523988
0.0526701
0.0504677
0.0455644
0.0395115
0.0349834
0.0320508
0.030761
0.0322955
0.0341996
0.035602
0.03603
0.0379401
0.0406773
0.0404507
0.0374871
0.0332123
0.0244533
0.0079837
0.00837687
0.00768961
0.00935465
0.0201418
0.0328681
0.0443014
0.04111
0.0397404
0.0291919
-0.00408475
-0.00749304
-0.00899655
-0.0129812
-0.0149967
-0.0150992
-0.0140689
-0.0126438
-0.0112069
-0.00982863
-0.00840485
-0.00677552
-0.00481412
-0.00246586
0.00026047
0.00330973
0.00662389
0.0101426
0.0138325
0.0176428
0.0215343
0.0254201
0.0292295
0.0328469
0.036195
0.0392101
0.041774
0.0438514
0.0455016
0.046906
0.0483089
0.0498777
0.0510494
0.0511611
0.0495057
0.0459673
0.0413749
0.0374445
0.0351467
0.0337132
0.0343945
0.0356076
0.0365947
0.036817
0.0382444
0.0404963
0.0406634
0.038083
0.0350819
0.0286821
0.0172437
0.0177696
0.0158913
0.0147469
0.024316
0.0343707
0.0427986
0.0417034
0.0404235
0.0319507
0.00365334
-0.00288349
-0.00295105
-0.00648124
-0.0083326
-0.00853192
-0.0077305
-0.0065587
-0.00535662
-0.00419626
-0.00299602
-0.00162175
3.5224e-05
0.00202574
0.00434536
0.0069495
0.00978728
0.0128074
0.0159809
0.0192664
0.0226337
0.0260113
0.0293442
0.0325376
0.0355312
0.0382619
0.0406639
0.042693
0.0443956
0.0458648
0.0471955
0.0484849
0.0493781
0.0494105
0.0481748
0.0456515
0.042257
0.0392302
0.0372211
0.0358259
0.0359598
0.0366272
0.0373095
0.0373843
0.03847
0.0402985
0.0407538
0.0389176
0.0367431
0.0318195
0.0237305
0.0234427
0.0215064
0.019355
0.0262125
0.0352634
0.0428382
0.0434648
0.0410887
0.0329994
0.00953874
0.000926941
0.00249687
-0.000582808
-0.0022539
-0.00252563
-0.00193024
-0.000993543
-1.02653e-05
0.00094857
0.00194245
0.00308079
0.004457
0.00611964
0.00806828
0.0102672
0.0126726
0.0152412
0.0179475
0.0207577
0.0236489
0.0265631
0.0294592
0.032257
0.0349134
0.0373659
0.0395769
0.0414995
0.0431586
0.0445943
0.0458295
0.0469012
0.0475958
0.0476182
0.0467085
0.0449338
0.0424737
0.0401945
0.0385047
0.0372435
0.0370592
0.0373291
0.0377745
0.0377645
0.0385993
0.0400629
0.0405804
0.0394063
0.0377981
0.0339343
0.0280195
0.0269159
0.0254107
0.0231878
0.0278296
0.0355257
0.0429668
0.04406
0.0405851
0.0319648
0.0130283
0.00346996
0.00743816
0.00475519
0.00323562
0.00289945
0.00332198
0.00406004
0.00485414
0.00563295
0.00643864
0.007362
0.00848447
0.00985171
0.0114664
0.0133006
0.0153174
0.0174797
0.0197657
0.0221475
0.0246092
0.0271032
0.0295992
0.0320293
0.0343632
0.0365435
0.038545
0.0403213
0.0418781
0.0432242
0.0443533
0.0452665
0.0458282
0.045882
0.045232
0.0440059
0.0422521
0.0405503
0.0391896
0.0381008
0.0377572
0.0377645
0.0380212
0.03797
0.0385958
0.039725
0.0401174
0.0392433
0.0380951
0.0350951
0.0305577
0.0290602
0.0279813
0.0261224
0.029017
0.0352444
0.0421493
0.0428355
0.0385112
0.0296353
0.014379
0.0046909
0.0118727
0.00952794
0.00815187
0.00778215
0.00806992
0.00864049
0.00926723
0.00988288
0.0105189
0.0112507
0.0121482
0.013253
0.0145708
0.0160804
0.0177506
0.01955
0.0214605
0.0234591
0.0255347
0.0276491
0.0297803
0.0318715
0.0338986
0.0358115
0.0375935
0.0392002
0.0406233
0.0418541
0.0428728
0.0436715
0.0441487
0.0442497
0.0438114
0.0429836
0.0417563
0.0404951
0.0394326
0.0385231
0.0381191
0.0379709
0.0380771
0.0380055
0.0384325
0.0392452
0.0394425
0.0387035
0.0378161
0.035529
0.0319211
0.0303183
0.0295157
0.0281001
0.0297231
0.0345005
0.0401832
0.0402264
0.035686
0.0270798
0.0144916
0.00499958
0.0157989
0.0137733
0.0125511
0.0121752
0.0123507
0.0127719
0.0132491
0.013721
0.0142089
0.0147737
0.0154746
0.0163496
0.0174065
0.0186296
0.0199935
0.0214719
0.0230492
0.0247074
0.0264383
0.0282121
0.0300116
0.0317909
0.0335307
0.0351881
0.036747
0.0381696
0.0394441
0.0405515
0.0414614
0.0421723
0.042599
0.0427458
0.0424781
0.0419343
0.0410944
0.040173
0.0393599
0.0386186
0.0382071
0.0379783
0.0379685
0.0378737
0.0381041
0.0385487
0.0386256
0.0379816
0.0371773
0.0354403
0.0325658
0.0309632
0.0302777
0.0292194
0.0299863
0.0335058
0.0375444
0.0371589
0.0326925
0.0246815
0.0140048
0.00486545
0.0192992
0.0175667
0.0164887
0.0161033
0.0161803
0.0164734
0.0168242
0.017174
0.0175348
0.0179555
0.0184868
0.019163
0.0199933
0.0209666
0.0220626
0.0232594
0.0245438
0.0259016
0.0273265
0.0287962
0.0302967
0.0317923
0.0332655
0.0346809
0.0360231
0.0372627
0.0383814
0.0393615
0.0401671
0.0408041
0.0411976
0.0413786
0.0412453
0.0409022
0.040341
0.0396798
0.0390662
0.038472
0.0380795
0.0378148
0.0377181
0.0375873
0.0376519
0.0378349
0.0377603
0.0371688
0.0363614
0.0350029
0.0327469
0.0311902
0.0304912
0.0296775
0.0298282
0.0315912
0.0346731
0.034034
0.0297404
0.0224484
0.0132358
0.00457651
0.0224168
0.020928
0.0199689
0.0195845
0.0195935
0.0197839
0.020026
0.0202699
0.0205214
0.0208192
0.0212061
0.0217126
0.0223485
0.0231063
0.0239703
0.0249222
0.0259509
0.0270453
0.0282008
0.0294011
0.0306347
0.0318739
0.0331027
0.034293
0.0354307
0.0364927
0.0374564
0.0383099
0.0390161
0.0395832
0.0399499
0.0401509
0.0401157
0.0399132
0.0395482
0.0390814
0.0386229
0.0381477
0.0377862
0.0375078
0.0373471
0.0371718
0.037101
0.0370837
0.0368743
0.0363102
0.0354912
0.0343566
0.0325974
0.0311255
0.0303451
0.0296528
0.0294168
0.0302879
0.0319397
0.0310369
0.0269371
0.0203516
0.0123343
0.00425
0.0251558
0.0238849
0.0230417
0.0226734
0.0226331
0.0227352
0.0228816
0.0230324
0.0231912
0.0233863
0.0236523
0.0240156
0.0244865
0.0250604
0.0257251
0.026466
0.0272734
0.0281389
0.0290591
0.0300226
0.0310197
0.0320292
0.033037
0.0340217
0.034969
0.0358616
0.036677
0.0374071
0.0380173
0.0385154
0.0388538
0.0390597
0.0390883
0.0389809
0.0387481
0.0384221
0.0380925
0.0376956
0.0373673
0.0370851
0.0368758
0.0366574
0.0364774
0.0363131
0.0359934
0.0354333
0.0346218
0.0336023
0.0322019
0.0308436
0.0299539
0.0292697
0.0287708
0.0288681
0.0294123
0.0282448
0.0243535
0.0184046
0.0113763
0.003922
0.0275586
0.0264796
0.0257383
0.0253767
0.0252831
0.0253355
0.0254091
0.0254851
0.0255666
0.0256764
0.0258425
0.0260869
0.0264196
0.0268383
0.0273337
0.0278943
0.028512
0.0291804
0.0298969
0.0306537
0.0314429
0.032249
0.0330593
0.0338573
0.03463
0.0353646
0.0360407
0.0366519
0.0371693
0.0375973
0.0379015
0.0380986
0.0381619
0.0381127
0.0379599
0.0377165
0.0374138
0.0371408
0.0368542
0.0365744
0.036326
0.0360641
0.0358034
0.0355316
0.0351284
0.0345523
0.033764
0.032803
0.0316247
0.0303863
0.029395
0.0286327
0.02793
0.0274264
0.0271223
0.025698
0.0220263
0.0166296
0.0104103
0.00360162
0.0296681
0.0287516
0.0280994
0.0277503
0.0276181
0.0275957
0.0276229
0.0276481
0.0276704
0.0277112
0.0277952
0.0279417
0.02816
0.0284491
0.028802
0.0292099
0.0296662
0.0301662
0.0307076
0.0312856
0.031894
0.0325212
0.0331566
0.0337873
0.0344012
0.0349909
0.0355379
0.0360365
0.0364637
0.0368202
0.0370825
0.0372589
0.0373328
0.0373147
0.0372106
0.0370308
0.0368019
0.036548
0.0362849
0.036003
0.0357244
0.0354266
0.0350999
0.0347454
0.0342823
0.0336797
0.0329128
0.0319877
0.0309244
0.029784
0.0287182
0.0278241
0.0269443
0.0260131
0.0250744
0.0234125
0.019959
0.0150378
0.00947435
0.00329195
0.031509
0.0307332
0.0301629
0.0298331
0.0296784
0.029616
0.0295865
0.0295603
0.0295336
0.0295172
0.0295325
0.0295973
0.0297202
0.0299013
0.0301352
0.0304149
0.030735
0.0310921
0.0314844
0.0319089
0.0323613
0.0328329
0.0333149
0.0337972
0.0342693
0.0347268
0.035155
0.0355477
0.0358872
0.0361719
0.0363853
0.0365304
0.0365963
0.0365883
0.0365075
0.0363629
0.0361672
0.0359355
0.0356715
0.0353917
0.0350877
0.0347561
0.0343805
0.0339621
0.0334534
0.0328234
0.0320643
0.0311643
0.030151
0.0290655
0.0279536
0.0269154
0.0258697
0.0246521
0.0232569
0.0213836
0.0181355
0.0136293
0.00859749
0.00299668
0.0331077
0.0324523
0.0319533
0.0316415
0.0314679
0.0313688
0.0312967
0.0312284
0.03116
0.0311018
0.0310663
0.0310665
0.0311118
0.0312038
0.0313387
0.0315113
0.0317173
0.0319542
0.0322206
0.0325149
0.0328336
0.0331708
0.0335188
0.0338693
0.0342182
0.034557
0.0348763
0.0351699
0.0354249
0.035638
0.0357971
0.0359028
0.0359465
0.035931
0.0358536
0.0357219
0.0355386
0.0353158
0.0350539
0.0347618
0.0344344
0.0340705
0.0336564
0.0331886
0.0326406
0.0319862
0.0312214
0.0303344
0.0293382
0.0282659
0.0271237
0.0259598
0.0247557
0.0233506
0.0216488
0.0195991
0.016535
0.0123958
0.00779935
0.00272111
0.0344891
0.0339346
0.0334971
0.0332027
0.0330159
0.0328883
0.0327831
0.0326813
0.0325789
0.0324827
0.0324045
0.0323557
0.0323416
0.0323632
0.032417
0.0325012
0.0326125
0.0327491
0.0329101
0.0330945
0.0332999
0.0335212
0.0337538
0.0339929
0.034231
0.0344641
0.0346842
0.0348864
0.0350607
0.0352034
0.0353054
0.0353658
0.035377
0.0353405
0.0352516
0.0351153
0.0349295
0.0347029
0.0344335
0.0341265
0.0337767
0.0333838
0.0329363
0.0324295
0.0318463
0.031169
0.0303904
0.0295018
0.0285078
0.0274219
0.0262498
0.0249916
0.0236455
0.0221132
0.0202279
0.0180442
0.015135
0.0113225
0.00709126
0.00247046