/*--------------------------------*- C++ -*----------------------------------*\
| =========                 |                                                 |
| \\      /  F ield         | OpenFOAM: The Open Source CFD Toolbox           |
|  \\    /   O peration     | Version:  2512                                  |
|   \\  /    A nd           | Website:  www.openfoam.com                      |
|    \\/     M anipulation  |                                                 |
\*---------------------------------------------------------------------------*/
FoamFile
{
    version     2.0;
    format      ascii;
    arch        "LSB;label=32;scalar=64";
    class       volScalarField;
    location    "5.9";
    object      p;
}
// * * * * * * * * * * * * * * * * * * * * * * * * * * * * * * * * * * * * * //

dimensions      [0 2 -2 0 0 0 0];

internalField   nonuniform List<scalar> 
13248
(
-0.445775
-0.445596
-0.443222
-0.43925
-0.43419
-0.428678
-0.42335
-0.41895
-0.415794
-0.413717
-0.412108
-0.410071
-0.406672
-0.40119
-0.393269
-0.382928
-0.370421
-0.356062
-0.340123
-0.322891
-0.30425
-0.284814
-0.262647
-0.238989
-0.454427
-0.453505
-0.450899
-0.447225
-0.442789
-0.43792
-0.432925
-0.427983
-0.423021
-0.417749
-0.411746
-0.404586
-0.395973
-0.385806
-0.374157
-0.361186
-0.347055
-0.331906
-0.315848
-0.298946
-0.281271
-0.262825
-0.243407
-0.224174
-0.465587
-0.463539
-0.460437
-0.456645
-0.452375
-0.447627
-0.442209
-0.435821
-0.428202
-0.419229
-0.408924
-0.397418
-0.384902
-0.371569
-0.357573
-0.343007
-0.327928
-0.312378
-0.296367
-0.279989
-0.263161
-0.246153
-0.228637
-0.210916
-0.478931
-0.475581
-0.471692
-0.467471
-0.462903
-0.457555
-0.450733
-0.441896
-0.430942
-0.418185
-0.404133
-0.389291
-0.374035
-0.358586
-0.343043
-0.327429
-0.31174
-0.29596
-0.280107
-0.264177
-0.248218
-0.23236
-0.216366
-0.201004
-0.49462
-0.489856
-0.485054
-0.480142
-0.474692
-0.467767
-0.458388
-0.446192
-0.431565
-0.415303
-0.398216
-0.380906
-0.36372
-0.346808
-0.330197
-0.313861
-0.29776
-0.281867
-0.266159
-0.250653
-0.235359
-0.220324
-0.205466
-0.191071
-0.512988
-0.506755
-0.500962
-0.495011
-0.487845
-0.478126
-0.465055
-0.448879
-0.43057
-0.411228
-0.391706
-0.372515
-0.353883
-0.335869
-0.318444
-0.301552
-0.285141
-0.269164
-0.253595
-0.238418
-0.223631
-0.209257
-0.195227
-0.181828
-0.534231
-0.526503
-0.519575
-0.512014
-0.50201
-0.488219
-0.470585
-0.450179
-0.428401
-0.406394
-0.384865
-0.364151
-0.344351
-0.325446
-0.307371
-0.290048
-0.273407
-0.25739
-0.241949
-0.227051
-0.212673
-0.198784
-0.185377
-0.172533
-0.558287
-0.548993
-0.54063
-0.530591
-0.516439
-0.497482
-0.474818
-0.450241
-0.425296
-0.400955
-0.377695
-0.355668
-0.334863
-0.315201
-0.296582
-0.278908
-0.262094
-0.246061
-0.230746
-0.216097
-0.202062
-0.188611
-0.175731
-0.163386
-0.584499
-0.573693
-0.563387
-0.549702
-0.53013
-0.505303
-0.477542
-0.449053
-0.421252
-0.394833
-0.370027
-0.346829
-0.325138
-0.304823
-0.285754
-0.267811
-0.250886
-0.234884
-0.219723
-0.205325
-0.191627
-0.178577
-0.166136
-0.154166
-0.611855
-0.599521
-0.586556
-0.567913
-0.541919
-0.510966
-0.478327
-0.446266
-0.415897
-0.387603
-0.361398
-0.33715
-0.31468
-0.293812
-0.274382
-0.256246
-0.239274
-0.223352
-0.20838
-0.194264
-0.180926
-0.168305
-0.156317
-0.144787
-0.638829
-0.624931
-0.608343
-0.583506
-0.550464
-0.513462
-0.476304
-0.441023
-0.408356
-0.378388
-0.35095
-0.325797
-0.302684
-0.281389
-0.261716
-0.243491
-0.226565
-0.210804
-0.196091
-0.182319
-0.169402
-0.157265
-0.145783
-0.134802
-0.663571
-0.648034
-0.626713
-0.594639
-0.554305
-0.511553
-0.47031
-0.432194
-0.397538
-0.366153
-0.337705
-0.311855
-0.28829
-0.266744
-0.246986
-0.228816
-0.212061
-0.196573
-0.182217
-0.168875
-0.156461
-0.144902
-0.134056
-0.123833
-0.465584
-0.463534
-0.462273
-0.462704
-0.465645
-0.47152
-0.48047
-0.492666
-0.508273
-0.527339
-0.549691
-0.574857
-0.602028
-0.630088
-0.658264
-0.684215
-0.707097
-0.725671
-0.738894
-0.745844
-0.745296
-0.736202
-0.717591
-0.687403
-0.4723
-0.468875
-0.467112
-0.467286
-0.470089
-0.475952
-0.485064
-0.4976
-0.513732
-0.533521
-0.556802
-0.583094
-0.611569
-0.641093
-0.670356
-0.697824
-0.722135
-0.742067
-0.756608
-0.764637
-0.76542
-0.757275
-0.739274
-0.70831
-0.47521
-0.470696
-0.468339
-0.467979
-0.470167
-0.475403
-0.483909
-0.49584
-0.511342
-0.530467
-0.553054
-0.578634
-0.606405
-0.635251
-0.663847
-0.690759
-0.714622
-0.734305
-0.748608
-0.756655
-0.757597
-0.749333
-0.730889
-0.698247
-0.474391
-0.469211
-0.46623
-0.465
-0.465997
-0.469843
-0.476849
-0.48718
-0.500956
-0.518214
-0.538802
-0.562297
-0.587957
-0.614753
-0.641436
-0.666684
-0.689294
-0.707957
-0.721792
-0.729445
-0.729987
-0.720789
-0.70068
-0.665073
-0.470525
-0.465214
-0.461677
-0.459318
-0.458595
-0.460298
-0.464927
-0.472748
-0.483907
-0.498445
-0.51623
-0.536889
-0.559768
-0.583936
-0.608292
-0.631713
-0.652936
-0.670786
-0.683911
-0.690758
-0.68987
-0.678182
-0.654565
-0.614907
-0.464629
-0.459732
-0.455831
-0.45229
-0.449552
-0.448583
-0.45016
-0.454774
-0.462703
-0.474047
-0.48872
-0.506407
-0.526528
-0.548229
-0.570616
-0.592546
-0.612722
-0.629477
-0.641277
-0.645931
-0.641524
-0.62514
-0.596439
-0.552882
-0.457765
-0.453728
-0.449743
-0.445206
-0.44053
-0.436801
-0.435093
-0.436216
-0.440688
-0.448764
-0.460447
-0.47548
-0.493374
-0.513273
-0.534312
-0.554989
-0.573649
-0.588276
-0.596877
-0.596838
-0.586642
-0.564416
-0.531429
-0.487039
-0.450872
-0.447963
-0.44416
-0.438979
-0.432797
-0.42675
-0.422142
-0.420104
-0.421454
-0.426668
-0.435875
-0.448869
-0.465116
-0.483804
-0.503336
-0.521904
-0.537467
-0.547611
-0.55039
-0.543699
-0.527346
-0.500898
-0.467
-0.425702
-0.44478
-0.443047
-0.439589
-0.434137
-0.42708
-0.419543
-0.412957
-0.408695
-0.407839
-0.411078
-0.418646
-0.430257
-0.445066
-0.461703
-0.478272
-0.492603
-0.502462
-0.505817
-0.50145
-0.488602
-0.468518
-0.441673
-0.410964
-0.375507
-0.440349
-0.439637
-0.436554
-0.431139
-0.423857
-0.41581
-0.408435
-0.403209
-0.401328
-0.403546
-0.409929
-0.419902
-0.432225
-0.445136
-0.456546
-0.464392
-0.466887
-0.463006
-0.452569
-0.436228
-0.415685
-0.391553
-0.366133
-0.336664
-0.438591
-0.43853
-0.435778
-0.43072
-0.423759
-0.416125
-0.409052
-0.40395
-0.401872
-0.403302
-0.408084
-0.415313
-0.423498
-0.430816
-0.435448
-0.43595
-0.43146
-0.421998
-0.40805
-0.39078
-0.371187
-0.349942
-0.328738
-0.304299
-0.440334
-0.440458
-0.437965
-0.433443
-0.427304
-0.420633
-0.4145
-0.409881
-0.40756
-0.407726
-0.409893
-0.412995
-0.415623
-0.41635
-0.414058
-0.408162
-0.398643
-0.385948
-0.370567
-0.353255
-0.334054
-0.313957
-0.293399
-0.272226
-0.638192
-0.562542
-0.477839
-0.396328
-0.328817
-0.281282
-0.254645
-0.24597
-0.253446
-0.278185
-0.317921
-0.360284
-0.385814
-0.37761
-0.334634
-0.273645
-0.215419
-0.172085
-0.145119
-0.132751
-0.132771
-0.144294
-0.171692
-0.219908
-0.279297
-0.323992
-0.326645
-0.286576
-0.225047
-0.168392
-0.130209
-0.109262
-0.103117
-0.114678
-0.143454
-0.174049
-0.183068
-0.162075
-0.128367
-0.100223
-0.0845799
-0.0834717
-0.094932
-0.108378
-0.109853
-0.0978211
-0.0817112
-0.0672349
-0.0574957
-0.0552204
-0.0534667
-0.0481661
-0.041092
-0.0384556
-0.0395063
-0.0396326
-0.0316819
-0.024261
-0.00812849
-0.00326409
-0.65722
-0.579859
-0.492689
-0.406997
-0.333777
-0.279473
-0.244769
-0.228097
-0.227904
-0.244396
-0.276227
-0.314094
-0.339545
-0.334799
-0.299203
-0.247047
-0.1973
-0.160119
-0.137417
-0.128819
-0.132533
-0.148078
-0.180629
-0.235035
-0.299881
-0.348185
-0.350964
-0.307479
-0.240354
-0.17728
-0.133117
-0.106777
-0.0950256
-0.0998749
-0.12131
-0.146236
-0.153343
-0.13615
-0.109765
-0.0895087
-0.0811437
-0.0874678
-0.10658
-0.125983
-0.128878
-0.113081
-0.0917302
-0.0715743
-0.0556096
-0.0480999
-0.0424297
-0.0372693
-0.0334444
-0.0366003
-0.0456531
-0.0497642
-0.0432864
-0.0321866
-0.00607784
-0.000784798
-0.644661
-0.567117
-0.482533
-0.398433
-0.325156
-0.2691
-0.23015
-0.20655
-0.197301
-0.203492
-0.224995
-0.25528
-0.279679
-0.280139
-0.253721
-0.212701
-0.172597
-0.142061
-0.124141
-0.11957
-0.126814
-0.145824
-0.182242
-0.240637
-0.309048
-0.360385
-0.365856
-0.321457
-0.250728
-0.182669
-0.133651
-0.102723
-0.0858402
-0.0844917
-0.0990764
-0.11882
-0.124488
-0.110759
-0.0909845
-0.07785
-0.0765689
-0.0906482
-0.117847
-0.143609
-0.148087
-0.128094
-0.10108
-0.075387
-0.0536453
-0.0412266
-0.0316684
-0.026517
-0.0257875
-0.0345896
-0.0513794
-0.0594516
-0.054555
-0.0401035
-0.00408113
0.00155991
-0.607497
-0.531934
-0.454497
-0.376466
-0.306817
-0.252081
-0.212054
-0.184508
-0.168494
-0.164131
-0.173499
-0.193562
-0.213963
-0.219481
-0.201376
-0.172426
-0.142402
-0.118734
-0.105623
-0.104788
-0.115011
-0.136247
-0.174077
-0.233684
-0.304435
-0.358736
-0.369102
-0.327093
-0.2553
-0.184157
-0.131744
-0.097358
-0.0763345
-0.0694685
-0.0779584
-0.0930202
-0.0975258
-0.0866894
-0.0723937
-0.0653169
-0.0706087
-0.0923528
-0.127931
-0.160501
-0.16692
-0.142565
-0.10957
-0.078544
-0.0516022
-0.0347417
-0.0213894
-0.0160473
-0.018181
-0.0323474
-0.0565585
-0.0685146
-0.0653123
-0.0479063
-0.00225291
0.00376871
-0.553519
-0.482798
-0.415931
-0.347327
-0.284181
-0.23238
-0.192491
-0.162925
-0.142393
-0.130879
-0.129353
-0.138
-0.150834
-0.156856
-0.145625
-0.12923
-0.108824
-0.0916611
-0.0829051
-0.0852856
-0.097948
-0.120311
-0.157331
-0.214964
-0.285301
-0.34273
-0.359462
-0.32329
-0.25381
-0.182013
-0.127648
-0.0910093
-0.066969
-0.0556124
-0.058678
-0.0696082
-0.0731761
-0.0644121
-0.0543636
-0.0520291
-0.0629683
-0.0918742
-0.136005
-0.175739
-0.184625
-0.156217
-0.117101
-0.0810085
-0.0494889
-0.0287478
-0.0117805
-0.00596567
-0.0106719
-0.0298129
-0.0610893
-0.0767856
-0.0753882
-0.0554749
-0.000730698
0.00583485
-0.489828
-0.427277
-0.373468
-0.316297
-0.261448
-0.214152
-0.175174
-0.14424
-0.120625
-0.103774
-0.094161
-0.092808
-0.09732
-0.101226
-0.0901779
-0.0873679
-0.0747082
-0.0629648
-0.0579161
-0.0629321
-0.0774687
-0.100187
-0.134811
-0.187517
-0.253906
-0.313255
-0.339205
-0.309561
-0.2462
-0.176528
-0.121729
-0.0839577
-0.0579684
-0.0432278
-0.0417013
-0.0490526
-0.051893
-0.0444424
-0.0373303
-0.0382444
-0.0537531
-0.0890343
-0.141176
-0.188239
-0.20024
-0.168638
-0.123548
-0.0827534
-0.047318
-0.023338
-0.00300919
0.00359909
-0.00334475
-0.0269415
-0.0648726
-0.0841214
-0.084617
-0.0626749
0.000354869
0.00774861
-0.427301
-0.375317
-0.334082
-0.28787
-0.241222
-0.198933
-0.161788
-0.130266
-0.10453
-0.0840888
-0.068782
-0.0595485
-0.0569036
-0.0595654
-0.0681281
-0.0523718
-0.0426385
-0.0347921
-0.0326426
-0.0395487
-0.055288
-0.0777698
-0.109062
-0.155101
-0.214867
-0.272998
-0.304523
-0.287328
-0.233343
-0.168269
-0.114571
-0.0766468
-0.0496518
-0.0324423
-0.0271463
-0.0314895
-0.0338469
-0.0272403
-0.0217666
-0.0245421
-0.0432294
-0.0833518
-0.142939
-0.197086
-0.212861
-0.179463
-0.128849
-0.0837974
-0.045085
-0.0185651
0.00477529
0.0125284
0.00373064
-0.0237302
-0.0678622
-0.0904234
-0.0928685
-0.0693667
0.000901525
0.0095018
-0.373156
-0.33195
-0.300859
-0.263721
-0.224357
-0.187034
-0.152472
-0.121277
-0.0942757
-0.0715665
-0.052748
-0.0379626
-0.0285166
-0.0250741
-0.0258664
-0.0189262
-0.0132011
-0.00856047
-0.00877851
-0.0169101
-0.0330979
-0.0549203
-0.0827207
-0.121634
-0.172944
-0.227308
-0.263472
-0.258688
-0.216088
-0.157663
-0.106529
-0.06937
-0.0422096
-0.0234088
-0.0150831
-0.0168257
-0.0189993
-0.0151267
-0.00812644
-0.0114072
-0.0318207
-0.0752496
-0.140692
-0.201169
-0.22146
-0.18808
-0.132907
-0.0841619
-0.0427654
-0.0144124
0.0114615
0.0207016
0.0104405
-0.0201886
-0.0699998
-0.0956182
-0.100053
-0.0754234
0.000849072
0.0110903
-0.331803
-0.299372
-0.275015
-0.244384
-0.210982
-0.178181
-0.146623
-0.116814
-0.0895001
-0.0653161
-0.0443631
-0.0263104
-0.0116478
-0.00192909
0.00264815
0.00628159
0.0123676
0.0143735
0.0125949
0.00395643
-0.0119063
-0.0326833
-0.0572924
-0.089352
-0.131854
-0.180402
-0.219427
-0.226942
-0.196037
-0.145289
-0.0978341
-0.0622003
-0.0356002
-0.0160693
-0.00542692
-0.00483726
-0.00680598
-0.0030417
0.00349228
0.000670918
-0.0199254
-0.0644165
-0.134283
-0.20085
-0.22579
-0.194368
-0.135672
-0.0838554
-0.0403581
-0.0108222
0.0169839
0.0280508
0.0167676
-0.016359
-0.0713623
-0.0996882
-0.107249
-0.0807688
0.000164052
0.0125145
-0.300862
-0.275305
-0.255195
-0.229005
-0.20039
-0.171673
-0.143119
-0.115267
-0.0886745
-0.0639452
-0.0416375
-0.0217526
-0.00426679
0.00982346
0.0195484
0.0260867
0.0314944
0.0325246
0.0296633
0.0212835
0.00677595
-0.0122093
-0.0340755
-0.0608426
-0.0949374
-0.135847
-0.175908
-0.19131
-0.172384
-0.130925
-0.088653
-0.0553658
-0.0299571
-0.0104982
0.00180419
0.00458873
0.00300531
0.00635442
0.0127629
0.0111259
-0.00841322
-0.0523118
-0.123627
-0.194759
-0.224865
-0.197101
-0.13696
-0.0829718
-0.0380277
-0.00789642
0.0212588
0.0344673
0.0225479
-0.0123202
-0.0718362
-0.102535
-0.111386
-0.0853044
-0.00118103
0.0137744
-0.27663
-0.257921
-0.240684
-0.217564
-0.192635
-0.167309
-0.141427
-0.115406
-0.0898414
-0.0653296
-0.0424487
-0.0214505
-0.00225272
0.0146194
0.0282286
0.0386709
0.0476003
0.0462766
0.0431501
0.0354196
0.0226453
0.00562414
-0.0135479
-0.035334
-0.062536
-0.0981766
-0.136695
-0.163322
-0.151596
-0.118057
-0.0809692
-0.050081
-0.0258615
-0.00686444
0.00664036
0.011601
0.0106046
0.0129937
0.0198088
0.0202323
0.00311043
-0.0387141
-0.109656
-0.185349
-0.22014
-0.197697
-0.137373
-0.0820937
-0.0359994
-0.00565655
0.0240447
0.0399597
0.0279213
-0.00806955
-0.0717082
-0.104285
-0.114092
-0.0888887
-0.00308706
0.0148794
-0.255946
-0.245583
-0.230823
-0.21044
-0.189001
-0.167179
-0.144463
-0.120892
-0.0969262
-0.0731422
-0.0502103
-0.0286499
-0.00859638
0.00962491
0.0250885
0.0372027
0.0444097
0.0523638
0.0512633
0.0451487
0.0351971
0.0211378
0.00381415
-0.0154251
-0.0364255
-0.0637126
-0.096245
-0.120385
-0.120092
-0.0987826
-0.0700001
-0.0431409
-0.0206911
-0.00281625
0.0108901
0.0174798
0.0171102
0.0181173
0.0239066
0.0262091
0.0121573
-0.025478
-0.0931661
-0.169523
-0.209617
-0.191863
-0.134999
-0.0800808
-0.033193
-0.00281103
0.0262095
0.044039
0.032398
-0.00375071
-0.0705729
-0.104714
-0.115372
-0.0911378
-0.00506253
0.0157392
-0.227752
-0.229881
-0.215308
-0.193724
-0.171596
-0.150332
-0.129262
-0.107668
-0.0855435
-0.0633707
-0.0418737
-0.0214928
-0.00226182
0.0155957
0.031092
0.0435279
0.0536861
0.0598221
0.0601572
0.0546676
0.0460995
0.0354388
0.0216911
0.0057148
-0.0125582
-0.0400943
-0.0758372
-0.10487
-0.0996432
-0.0796977
-0.054662
-0.0313462
-0.0117109
0.00394523
0.0162555
0.022941
0.0228142
0.0229041
0.0284995
0.0337848
0.0232548
-0.0107883
-0.0755221
-0.153404
-0.19917
-0.186339
-0.128507
-0.0738129
-0.0281663
0.00133056
0.0292548
0.0530518
0.0369625
0.000884149
-0.0688342
-0.104655
-0.115573
-0.0921887
-0.00673323
0.0164204
-0.199874
-0.205404
-0.193049
-0.172299
-0.151131
-0.131647
-0.113051
-0.094097
-0.0743955
-0.0543153
-0.034623
-0.0158381
0.00191086
0.0182888
0.032638
0.0445378
0.0532071
0.0611705
0.0629363
0.058898
0.0522526
0.0445824
0.0344015
0.021892
0.00490931
-0.0234468
-0.0578592
-0.0756825
-0.0755283
-0.0592367
-0.0392597
-0.0202993
-0.00363868
0.00979187
0.0203666
0.0266614
0.026715
0.0263047
0.0312243
0.0372656
0.0292893
-0.00101697
-0.0615325
-0.138542
-0.186232
-0.174589
-0.119398
-0.0666159
-0.022951
0.00517918
0.0313439
0.0502945
0.0395518
0.00416681
-0.0672509
-0.104119
-0.114368
-0.0922406
-0.00844176
0.0167629
-0.176582
-0.182316
-0.172639
-0.154575
-0.135459
-0.11772
-0.100934
-0.0839049
-0.0660972
-0.0477176
-0.0294529
-0.0119266
0.00466684
0.0200977
0.0337628
0.0452176
0.0544389
0.0617298
0.0641584
0.0613991
0.0565529
0.0517931
0.0453753
0.0352599
0.0181998
-0.00909034
-0.038982
-0.0543577
-0.0536187
-0.0414016
-0.0259939
-0.0107331
0.00330855
0.0148285
0.0239383
0.0298678
0.0299266
0.0289895
0.0331681
0.0397351
0.0324199
0.00445197
-0.0518581
-0.123495
-0.168633
-0.159605
-0.108687
-0.0590324
-0.0178508
0.00872256
0.0326916
0.0525137
0.0409396
0.00608525
-0.0659164
-0.102731
-0.111783
-0.0912407
-0.0103169
0.0168158
-0.155369
-0.160622
-0.153179
-0.137714
-0.120518
-0.104236
-0.0888996
-0.0735608
-0.057612
-0.0410901
-0.024509
-0.00843598
0.00684988
0.0211131
0.0338639
0.044758
0.053743
0.0608281
0.0640182
0.0628121
0.0598789
0.0577086
0.0545765
0.0464159
0.0301078
0.00498442
-0.0205498
-0.0334689
-0.0332211
-0.0245853
-0.0133397
-0.00167297
0.0098015
0.019443
0.0269166
0.032227
0.0322331
0.0309396
0.0341735
0.0411541
0.0344253
0.00834767
-0.0422175
-0.105461
-0.147412
-0.141308
-0.0959008
-0.0507036
-0.0126186
0.0121217
0.0332967
0.0538119
0.0414058
0.00745632
-0.0639833
-0.100294
-0.107803
-0.0889395
-0.0121498
0.0165391
-0.135331
-0.140613
-0.134948
-0.121811
-0.106596
-0.0919455
-0.078162
-0.0645161
-0.0503817
-0.0356513
-0.0206852
-0.00601268
0.00801317
0.0211563
0.0330362
0.0433802
0.0521034
0.058987
0.0628117
0.0631362
0.0619504
0.0614576
0.0601473
0.0535993
0.0393548
0.0179706
-0.00254808
-0.0135967
-0.0150486
-0.0100646
-0.00243526
0.00618556
0.0153732
0.023422
0.0294818
0.0340437
0.0338833
0.0322337
0.034463
0.0412845
0.0353097
0.0121966
-0.0305666
-0.085071
-0.123295
-0.120183
-0.0814116
-0.0419812
-0.00759521
0.0151388
0.0331475
0.0540657
0.0410275
0.0088393
-0.0610515
-0.0967126
-0.102285
-0.0851999
-0.0137864
0.0158817
-0.117468
-0.122653
-0.118238
-0.107078
-0.0937724
-0.0807567
-0.0684529
-0.0563224
-0.0437904
-0.0306929
-0.0172858
-0.00402484
0.00873122
0.0207562
0.0317385
0.0414305
0.0497257
0.05641
0.0607083
0.0622887
0.0624536
0.0627673
0.062077
0.0570162
0.0457716
0.0291541
0.0131302
0.00304495
-0.000142433
0.0021248
0.00705503
0.0131845
0.0203067
0.0268681
0.031636
0.0353354
0.0350201
0.0330144
0.0343192
0.0401978
0.0353531
0.0162867
-0.0182889
-0.0639623
-0.097507
-0.097106
-0.0656682
-0.0329718
-0.00281272
0.0176704
0.0323165
0.0531555
0.0397799
0.010262
-0.0570829
-0.0919035
-0.0952511
-0.079916
-0.014997
0.0148253
-0.101664
-0.106346
-0.102881
-0.0934548
-0.0819228
-0.0704737
-0.0595842
-0.0488657
-0.0378212
-0.0262665
-0.0143646
-0.00248156
0.00903452
0.019952
0.0300235
0.0390385
0.0468521
0.0532812
0.0578442
0.0602997
0.0614074
0.0621295
0.0617653
0.0581251
0.049765
0.0372798
0.0247746
0.0158028
0.01169
0.012046
0.0149348
0.0190871
0.0244219
0.0296933
0.0334428
0.0362707
0.035892
0.0335974
0.0340988
0.038398
0.0345956
0.0195446
-0.00700765
-0.0433485
-0.071364
-0.0727564
-0.0494174
-0.0239456
0.00158211
0.0195486
0.0310449
0.05096
0.0375962
0.0115596
-0.051986
-0.0857391
-0.0867672
-0.0730704
-0.015565
0.0133847
-0.0871065
-0.0914189
-0.0888135
-0.0809288
-0.0710145
-0.0610326
-0.0514804
-0.042082
-0.032412
-0.0222796
-0.0117854
-0.00122522
0.00908358
0.0189235
0.0280946
0.0364037
0.0436859
0.049796
0.0544399
0.0574378
0.0591849
0.060216
0.0601468
0.0575626
0.0514026
0.0421361
0.0325475
0.0249148
0.0206091
0.0198181
0.0213152
0.024013
0.0278684
0.0319788
0.0348975
0.0369437
0.0365672
0.0342504
0.0341235
0.0364916
0.0331353
0.0217401
0.00297083
-0.0240921
-0.0463792
-0.050067
-0.0336433
-0.0151435
0.00557846
0.0207472
0.0297266
0.0473882
0.0345514
0.0127599
-0.0455072
-0.078015
-0.0770165
-0.0647915
-0.0152918
0.0116332
-0.0738752
-0.0779435
-0.076051
-0.0694903
-0.0610152
-0.052372
-0.0440569
-0.0358755
-0.0274639
-0.0186369
-0.0094543
-0.000149475
0.00900418
0.0178094
0.0260951
0.0336762
0.0403998
0.0461466
0.0507328
0.0540172
0.0561601
0.0574173
0.0575707
0.0557419
0.0512879
0.0445353
0.0373138
0.0311233
0.0271343
0.025766
0.0263328
0.0279626
0.0306492
0.0337554
0.0359801
0.0374365
0.0370713
0.0349758
0.0344736
0.0353178
0.0316196
0.023472
0.0116434
-0.0070522
-0.0239494
-0.0293895
-0.0192413
-0.00686102
0.00913903
0.0214058
0.0288628
0.0426468
0.0311767
0.0141648
-0.0373402
-0.0685082
-0.066296
-0.0554006
-0.0140729
0.00969781
-0.0621038
-0.06582
-0.0644726
-0.0590487
-0.0518494
-0.0444161
-0.0372307
-0.0301609
-0.0228984
-0.0152682
-0.00729546
0.000840152
0.00890455
0.0167184
0.0241391
0.0309953
0.037152
0.0424984
0.0469145
0.0502847
0.0526287
0.0540426
0.0544072
0.053206
0.0500958
0.045281
0.0399515
0.0351164
0.0316878
0.0301201
0.0301269
0.0310187
0.0328365
0.0351139
0.0367275
0.0377753
0.0374352
0.035705
0.0350442
0.0352778
0.0311135
0.0253872
0.0188453
0.00693903
-0.00546807
-0.01206
-0.00701611
0.000605571
0.0122565
0.021871
0.0288235
0.0375916
0.0284738
0.0162761
-0.0272854
-0.0570586
-0.0550125
-0.0454346
-0.0119305
0.00774853
-0.0514816
-0.0548543
-0.0539642
-0.0495271
-0.0434557
-0.0371055
-0.0309405
-0.0248793
-0.0186602
-0.0121151
-0.00524328
0.00181514
0.00886227
0.0157402
0.022328
0.0284737
0.0340613
0.0389826
0.0431496
0.0464671
0.0488851
0.0504205
0.0510034
0.0503396
0.0482768
0.0449527
0.0411164
0.037466
0.0346895
0.0331667
0.0328823
0.0332826
0.0344628
0.0360967
0.0371934
0.037964
0.0376849
0.0363509
0.035729
0.036088
0.0324104
0.0284439
0.0249703
0.0173861
0.00808654
0.00115562
0.00269932
0.00702262
0.0149744
0.0224898
0.0293321
0.0336079
0.0275429
0.0195621
-0.0156039
-0.0438528
-0.0437413
-0.0356087
-0.00906116
0.00596919
-0.0418866
-0.0449851
-0.0444681
-0.0408678
-0.0357799
-0.0303912
-0.0251417
-0.0199859
-0.0146996
-0.00912535
-0.00324725
0.00282733
0.00893494
0.0149431
0.0207455
0.0262176
0.0312244
0.0357048
0.0395775
0.0427595
0.0451706
0.0467906
0.0475791
0.047376
0.04613
0.0439415
0.0412881
0.0386309
0.0364935
0.0351463
0.034748
0.0348593
0.0355809
0.0367418
0.0374492
0.0379986
0.0378303
0.0368671
0.0364489
0.0372353
0.035511
0.0326111
0.0304021
0.0246728
0.0172333
0.010713
0.0101663
0.0122884
0.017428
0.0234655
0.0299213
0.0317058
0.0291068
0.0239967
-0.00338054
-0.0297837
-0.0331272
-0.0265816
-0.00586208
0.00452217
-0.0333325
-0.0361391
-0.0358963
-0.0329993
-0.0287679
-0.024229
-0.0197905
-0.0154344
-0.0109731
-0.00626228
-0.00127475
0.00391094
0.00916104
0.0143665
0.0194334
0.0242559
0.0287084
0.0327462
0.0362992
0.0392955
0.0416462
0.0433185
0.0442844
0.044463
0.0438508
0.0425299
0.0408046
0.0389441
0.0373825
0.0362836
0.035883
0.0358565
0.0362639
0.0370791
0.0375342
0.0378944
0.0378587
0.0372378
0.0370729
0.0381719
0.0376763
0.036292
0.0344194
0.0293758
0.0232242
0.0175172
0.0158171
0.0164384
0.0197444
0.0246558
0.0301728
0.0317893
0.0316901
0.0282326
0.00734966
-0.0165643
-0.0236718
-0.0189869
-0.0028472
0.00348433
-0.025678
-0.028192
-0.0281618
-0.0258607
-0.0223697
-0.0185722
-0.0148445
-0.0111905
-0.00745539
-0.00350674
0.000690348
0.00508218
0.00955952
0.0140331
0.0184211
0.0226337
0.0265587
0.0301622
0.0333854
0.0361676
0.0384204
0.0401093
0.0412126
0.0416944
0.0415692
0.0409077
0.0399181
0.038669
0.0375944
0.0367705
0.0364317
0.0363656
0.0365841
0.0371452
0.0374595
0.0376789
0.0377513
0.0374351
0.0374748
0.0386933
0.0387462
0.0382331
0.0364884
0.0320142
0.0270064
0.022247
0.0200135
0.0196167
0.0219124
0.0257284
0.030015
0.0325204
0.0330826
0.0305794
0.0146835
-0.00607432
-0.0157196
-0.0128646
-0.000461223
0.00281238
-0.0188022
-0.0210648
-0.0212016
-0.0193961
-0.0165374
-0.0133838
-0.010277
-0.00723474
-0.00413082
-0.000846525
0.0026577
0.00634687
0.0101332
0.0139473
0.0177169
0.0213659
0.0247954
0.0279817
0.0308768
0.0334289
0.035556
0.037227
0.0384218
0.0391241
0.0393561
0.0391871
0.0388599
0.037987
0.03731
0.0367608
0.036523
0.0364749
0.036604
0.0369822
0.0372269
0.0373638
0.0374917
0.0374118
0.0375576
0.0388206
0.0387988
0.0386143
0.037046
0.0332342
0.0292259
0.025358
0.023045
0.0220229
0.0237724
0.0265216
0.0296333
0.0326084
0.0325302
0.0304519
0.0181069
0.000838402
-0.00928532
-0.00807271
0.00104906
0.00237148
-0.0126704
-0.0146987
-0.0149524
-0.0135528
-0.01123
-0.00862986
-0.00605893
-0.00354505
-0.000986389
0.00172296
0.00462451
0.00769816
0.0108741
0.0140983
0.0173103
0.0204442
0.0234168
0.0262096
0.0287853
0.0311004
0.0330822
0.0347011
0.0359387
0.0367868
0.0372535
0.0373451
0.0370716
0.0369349
0.0366668
0.0363848
0.036269
0.0362675
0.0363735
0.0366321
0.0368412
0.0369479
0.0370795
0.0371322
0.0371301
0.0375306
0.0381251
0.0380717
0.0367256
0.0335872
0.0303746
0.0272447
0.0251762
0.0238074
0.0251475
0.0269904
0.0291012
0.0317825
0.0312071
0.0292804
0.0192176
0.00491569
-0.00422943
-0.00434397
0.00180705
0.0019904
-0.00721561
-0.00901447
-0.00934327
-0.00827462
-0.00640364
-0.00427675
-0.00216673
-0.000107301
0.00198358
0.00419929
0.00658123
0.00912007
0.0117619
0.0144654
0.0171789
0.0198487
0.0224035
0.0248306
0.0271016
0.0291788
0.0310006
0.0325405
0.0337823
0.0347176
0.0353539
0.0356997
0.0358221
0.0358589
0.035833
0.0357611
0.0357634
0.0358195
0.0359381
0.0361313
0.0363181
0.0364259
0.0365357
0.0366593
0.0366306
0.0369816
0.0372375
0.037099
0.0359535
0.0334286
0.0308251
0.0282472
0.0262179
0.0251021
0.0259726
0.0271522
0.0284657
0.0303751
0.0296333
0.0277605
0.0193319
0.00737695
-0.000413222
-0.00147356
0.00208978
0.00162991
-0.00234661
-0.00393361
-0.00431156
-0.00351461
-0.00202426
-0.000300159
0.00141692
0.00308944
0.00478255
0.0065775
0.00851491
0.0105934
0.0127722
0.0150192
0.0172899
0.0195475
0.021726
0.0238173
0.0258006
0.0276439
0.0292971
0.030736
0.0319474
0.0329211
0.0336646
0.034183
0.034526
0.0347407
0.0348892
0.0349769
0.0350825
0.0351974
0.0353422
0.0355091
0.0356784
0.0357974
0.0358805
0.0360186
0.0359807
0.03618
0.0362228
0.0359641
0.0349733
0.0329672
0.0308436
0.0287257
0.0271144
0.0259711
0.0263223
0.0270231
0.0277023
0.0287245
0.0278664
0.026006
0.0189617
0.00899238
0.00238321
0.00069821
0.00220417
0.00134723
0.00198664
0.000597392
0.000191523
0.000768746
0.00194268
0.00332827
0.00471328
0.00605702
0.00741207
0.00884946
0.0104087
0.0120957
0.0138771
0.0157258
0.0176215
0.0195094
0.0213483
0.0231314
0.0248461
0.0264642
0.0279443
0.0292648
0.0304157
0.0313866
0.0321807
0.0327983
0.0332716
0.0336203
0.0338941
0.0340993
0.0342878
0.0344556
0.0346279
0.0347912
0.034946
0.0350716
0.0351325
0.0352467
0.0351972
0.0352539
0.0351521
0.0347973
0.0339211
0.0323254
0.0305896
0.0288345
0.0275051
0.0264226
0.0263149
0.0266356
0.0268344
0.0270754
0.0260628
0.0241662
0.0183304
0.0100888
0.00440054
0.0023208
0.00234161
0.00115999
0.00581199
0.00459232
0.0041877
0.00460123
0.00552203
0.00662965
0.00774072
0.00880132
0.00987059
0.0110052
0.0122365
0.0136029
0.0150509
0.01657
0.0181263
0.0196897
0.0212252
0.0227302
0.0241963
0.0255991
0.0269058
0.028097
0.0291641
0.0300968
0.0308948
0.0315583
0.0321029
0.032537
0.0328939
0.0331795
0.0334287
0.0336391
0.0338333
0.0340022
0.0341455
0.0342668
0.0343109
0.0343857
0.0343197
0.0342677
0.0340681
0.0336539
0.032867
0.0315795
0.0301532
0.0286796
0.0275206
0.0265182
0.0260714
0.0260522
0.0258851
0.0255387
0.0243357
0.0223911
0.0175708
0.0108033
0.00583044
0.00351476
0.00255719
0.00106528
0.0092019
0.00814113
0.00773656
0.00800862
0.0087086
0.00957196
0.0104442
0.0113015
0.0121561
0.0130619
0.0140578
0.0151221
0.0162714
0.0174915
0.0187581
0.0200395
0.0213084
0.022565
0.0238045
0.0250062
0.026143
0.0271992
0.0281667
0.0290335
0.0297905
0.0304688
0.0310427
0.0315204
0.0319237
0.0322574
0.0325446
0.032784
0.0329922
0.0331659
0.0332994
0.0334089
0.0334388
0.0334704
0.0333843
0.0332578
0.0329971
0.0325546
0.0318408
0.0307771
0.029588
0.0283328
0.0272734
0.0263338
0.0256674
0.0253369
0.0248921
0.0241388
0.0227531
0.0207733
0.0167714
0.0112176
0.00681877
0.00437662
0.0028153
0.00104466
0.0122002
0.0112845
0.0108943
0.0110597
0.0115858
0.0122565
0.0129395
0.0135994
0.0142573
0.0149547
0.0157215
0.0165659
0.0174803
0.0184565
0.0194773
0.0205165
0.0215536
0.0225905
0.0236254
0.0246413
0.0256161
0.0265371
0.0273985
0.028193
0.0289185
0.0295463
0.0301048
0.0305892
0.0310078
0.0313624
0.0316665
0.0319202
0.0321332
0.0323058
0.0324292
0.0325222
0.0325392
0.0325308
0.0324228
0.0322489
0.0319534
0.0315034
0.0308504
0.0299479
0.0289316
0.0278445
0.0268489
0.0259433
0.0251516
0.0245589
0.0238852
0.0228753
0.0213487
0.0193519
0.0159826
0.0113971
0.00747799
0.00498516
0.00306567
0.00106663
0.014846
0.0140576
0.013688
0.0137717
0.0141562
0.0146653
0.0151871
0.0156885
0.016186
0.0167142
0.0172999
0.0179532
0.0186682
0.0194388
0.0202508
0.0210828
0.0219197
0.0227641
0.0236158
0.0244616
0.0252836
0.0260714
0.026819
0.0275191
0.0281663
0.0287543
0.0292831
0.0297507
0.030161
0.0305144
0.0308178
0.0310715
0.0312791
0.0314433
0.031555
0.0316282
0.0316306
0.0315896
0.0314618
0.0312581
0.0309444
0.0304992
0.0298948
0.0291091
0.028215
0.0272517
0.0263044
0.0254091
0.0245431
0.0237549
0.022893
0.0217318
0.0201243
0.0181272
0.01523
0.0114021
0.00788976
0.00539593
0.00327391
0.00110617
0.0171669
0.0164931
0.01615
0.0161726
0.0164427
0.0168187
0.0172074
0.0175793
0.0179464
0.0183371
0.0187747
0.0192692
0.0198174
0.0204152
0.0210505
0.0217059
0.0223704
0.0230475
0.023737
0.024429
0.0251093
0.0257697
0.0264034
0.0270037
0.0275594
0.0280957
0.0285789
0.0290109
0.0293942
0.0297284
0.0300155
0.0302556
0.030449
0.0305979
0.030694
0.030745
0.0307311
0.0306643
0.0305194
0.0302969
0.0299738
0.0295389
0.0289732
0.02827
0.0274622
0.0265853
0.0256787
0.0247818
0.0238676
0.0229477
0.0219418
0.020691
0.0190575
0.0170798
0.0145255
0.011281
0.00811351
0.00565066
0.00342639
0.00114664
0.0192001
0.0186277
0.0183126
0.0182893
0.0184675
0.0187346
0.0190143
0.0192805
0.0195416
0.0198207
0.0201376
0.0205016
0.0209116
0.0213647
0.0218512
0.0223571
0.0228741
0.0234064
0.0239541
0.0245092
0.0250609
0.025604
0.026134
0.0266474
0.0271436
0.0275788
0.0279926
0.0283719
0.0287128
0.029013
0.0292716
0.0294873
0.0296583
0.0297854
0.0298609
0.0298889
0.0298568
0.0297687
0.0296078
0.0293721
0.0290448
0.028621
0.0280846
0.0274378
0.0266919
0.0258738
0.0249999
0.0241
0.0231516
0.0221519
0.0210465
0.0197393
0.0181195
0.0161838
0.0138737
0.0110714
0.00819584
0.00578349
0.00352065
0.00117824
0.0209742
0.0204896
0.0202026
0.0201457
0.0202509
0.0204298
0.0206206
0.0208008
0.0209761
0.0211648
0.0213839
0.0216415
0.0219376
0.0222704
0.0226322
0.0230119
0.0234037
0.0238113
0.0242353
0.0246695
0.0251049
0.0255379
0.0259647
0.0263811
0.0267806
0.0271575
0.0274996
0.0278241
0.0281161
0.0283734
0.0285943
0.0287769
0.0289184
0.0290173
0.029068
0.029072
0.0290202
0.0289123
0.0287363
0.0284902
0.02816
0.0277444
0.0272304
0.0266212
0.0259187
0.025141
0.0242916
0.0233924
0.0224207
0.0213752
0.0202118
0.0188702
0.0172847
0.0154114
0.0132755
0.0108021
0.00817429
0.00582324