/*--------------------------------*- C++ -*----------------------------------*\
| =========                 |                                                 |
| \\      /  F ield         | OpenFOAM: The Open Source CFD Toolbox           |
|  \\    /   O peration     | Version:  2512                                  |
|   \\  /    A nd           | Website:  www.openfoam.com                      |
|    \\/     M anipulation  |                                                 |
\*---------------------------------------------------------------------------*/
FoamFile
{
    version     2.0;
    format      ascii;
    arch        "LSB;label=32;scalar=64";
    class       surfaceScalarField;
    location    "94.5";
    object      phi;
}
// * * * * * * * * * * * * * * * * * * * * * * * * * * * * * * * * * * * * * //

dimensions      [0 3 -1 0 0 0 0];

oriented        oriented;

internalField   nonuniform List<scalar> 
19380
(
0.874559
-5.62213e-05
0.874721
-0.000162407
0.874977
-0.000255663
0.875312
-0.000335226
0.875714
-0.000401596
0.87617
-0.000456187
0.876671
-0.000501238
0.87721
-0.000538374
0.877779
-0.000569052
0.878373
-0.000594448
0.878988
-0.00061549
0.879621
-0.000632879
0.880268
-0.000647118
0.880927
-0.000658533
0.881594
-0.00066729
0.882268
-0.000673442
0.882945
-0.000676959
0.883623
-0.000677791
0.884298
-0.000675892
0.88497
-0.000671263
0.885634
-0.000663958
0.886288
-0.000654093
0.88693
-0.000641844
0.887557
-0.000627436
0.888168
-0.000611131
0.888761
-0.000593214
0.889335
-0.000573976
0.889889
-0.000553709
0.890422
-0.000532692
0.890933
-0.000511188
0.891422
-0.000489419
0.89189
-0.000467553
0.892336
-0.000445769
0.89276
-0.000424239
0.893163
-0.000403106
0.893545
-0.000382483
0.893908
-0.000362461
0.894251
-0.000343105
0.894576
-0.000324471
-0.000306638
0.894882
0.844018
-0.000110387
0.844174
-0.000318963
0.844421
-0.000502148
0.844744
-0.000658461
0.845131
-0.000788884
0.845571
-0.000896203
0.846055
-0.000984886
0.846575
-0.0010581
0.847124
-0.00111872
0.847699
-0.00116906
0.848294
-0.00121095
0.848907
-0.00124574
0.849535
-0.00127441
0.850174
-0.00129757
0.850822
-0.00131551
0.851477
-0.00132832
0.852136
-0.00133592
0.852796
-0.00133819
0.853455
-0.00133503
0.85411
-0.00132643
0.854759
-0.00131248
0.855398
-0.00129341
0.856026
-0.00126957
0.85664
-0.0012414
0.857238
-0.00120941
0.857819
-0.00117417
0.858381
-0.00113627
0.858924
-0.00109628
0.859446
-0.00105476
0.859947
-0.00101224
0.860427
-0.000969153
0.860885
-0.000925852
0.861322
-0.000882693
0.861738
-0.000840017
0.862133
-0.000798113
0.862508
-0.000757204
0.862863
-0.000717477
0.863199
-0.000679066
0.863516
-0.000642082
-0.000606681
0.863816
0.814543
-0.00016238
0.814693
-0.000469333
0.81493
-0.000739083
0.815241
-0.000969432
0.815614
-0.00116186
0.816038
-0.00132033
0.816505
-0.00145148
0.817007
-0.00156002
0.817538
-0.00165022
0.818095
-0.00172547
0.818672
-0.00178845
0.819268
-0.00184113
0.819878
-0.00188493
0.820501
-0.00192069
0.821134
-0.00194881
0.821776
-0.00196934
0.822422
-0.00198213
0.82307
-0.00198696
0.823719
-0.00198364
0.824365
-0.00197213
0.825005
-0.00195255
0.825637
-0.00192522
0.826258
-0.00189064
0.826866
-0.00184947
0.827459
-0.00180249
0.828035
-0.00175053
0.828593
-0.00169446
0.829132
-0.00163515
0.829651
-0.00157345
0.830149
-0.00151015
0.830626
-0.00144594
0.831081
-0.00138136
0.831515
-0.00131693
0.831929
-0.00125317
0.832321
-0.00119051
0.832693
-0.00112931
0.833045
-0.00106986
0.833379
-0.00101235
0.833694
-0.000956969
-0.000903944
0.833991
0.786097
-0.000212117
0.786241
-0.000613335
0.786468
-0.000966229
0.786767
-0.00126789
0.787125
-0.00152031
0.787534
-0.00172857
0.787983
-0.00190105
0.788467
-0.00204437
0.788981
-0.00216401
0.78952
-0.00226444
0.790081
-0.00234913
0.79066
-0.00242063
0.791256
-0.00248073
0.791866
-0.00253047
0.792487
-0.00257027
0.793118
-0.00260012
0.793756
-0.00261972
0.794398
-0.00262872
0.795041
-0.0026268
0.795682
-0.00261386
0.79632
-0.00259001
0.79695
-0.00255565
0.797571
-0.00251142
0.79818
-0.00245819
0.798774
-0.00239697
0.799353
-0.00232889
0.799913
-0.00225512
0.800455
-0.00217681
0.800977
-0.00209511
0.801478
-0.00201109
0.801957
-0.00192573
0.802416
-0.00183977
0.802853
-0.00175392
0.803269
-0.00166884
0.803663
-0.00158516
0.804037
-0.00150336
0.804391
-0.00142385
0.804726
-0.0013469
0.805042
-0.00127277
-0.00120177
0.805339
0.758645
-0.000259498
0.758782
-0.000750717
0.758999
-0.00118322
0.759285
-0.00155338
0.759628
-0.00186369
0.76002
-0.00212056
0.760452
-0.00233323
0.760919
-0.00251086
0.761415
-0.00266001
0.761936
-0.00278613
0.762481
-0.00289345
0.763045
-0.00298505
0.763627
-0.00306305
0.764226
-0.00312859
0.764837
-0.00318207
0.765461
-0.00322331
0.766093
-0.00325184
0.766731
-0.0032671
0.767373
-0.00326861
0.768015
-0.00325614
0.768655
-0.00322974
0.769289
-0.00318989
0.769915
-0.00313734
0.77053
-0.00307317
0.771132
-0.00299863
0.771718
-0.00291512
0.772287
-0.00282411
0.772837
-0.00272708
0.773368
-0.00262548
0.773877
-0.00252067
0.774365
-0.00241393
0.774832
-0.00230628
0.775277
-0.00219861
0.775699
-0.00209174
0.776101
-0.0019865
0.776481
-0.00188351
0.77684
-0.00178331
0.77718
-0.00168629
0.7775
-0.00159278
-0.00150319
0.777801
0.732151
-0.000304396
0.732281
-0.000881156
0.732488
-0.00138955
0.732759
-0.00182529
0.733087
-0.00219126
0.733462
-0.00249539
0.733876
-0.00274735
0.734324
-0.00295881
0.734802
-0.0031376
0.735305
-0.00329008
0.735833
-0.00342117
0.736383
-0.00353445
0.736952
-0.00363228
0.737539
-0.00371586
0.738142
-0.00378545
0.73876
-0.00384064
0.739389
-0.0038807
0.740026
-0.00390481
0.74067
-0.00391223
0.741316
-0.00390255
0.741962
-0.00387575
0.742605
-0.00383232
0.743241
-0.00377312
0.743867
-0.00369939
0.744481
-0.00361262
0.74508
-0.0035145
0.745663
-0.00340679
0.746227
-0.00329133
0.746772
-0.00316987
0.747295
-0.00304412
0.747797
-0.00291564
0.748276
-0.00278581
0.748733
-0.00265571
0.749168
-0.00252636
0.74958
-0.00239876
0.74997
-0.00227372
0.750339
-0.00215195
0.750687
-0.00203394
0.751014
-0.00192014
-0.00181104
0.751322
0.706582
-0.000346671
0.706705
-0.00100426
0.7069
-0.00158462
0.707158
-0.00208282
0.707468
-0.00250211
0.707825
-0.00285168
0.70822
-0.00314248
0.708648
-0.00338708
0.709106
-0.00359566
0.709591
-0.00377523
0.710102
-0.00393139
0.710635
-0.00406815
0.711191
-0.00418807
0.711767
-0.00429228
0.712363
-0.00438079
0.712975
-0.00445293
0.713602
-0.00450762
0.714241
-0.00454366
0.714889
-0.00455996
0.715542
-0.00455589
0.716197
-0.00453129
0.716852
-0.00448661
0.717501
-0.0044228
0.718143
-0.00434123
0.718774
-0.0042436
0.719392
-0.00413188
0.719993
-0.00400817
0.720576
-0.00387464
0.72114
-0.00373341
0.721682
-0.00358651
0.722202
-0.00343586
0.7227
-0.00328317
0.723174
-0.00312986
0.723625
-0.0029771
0.724052
-0.00282612
0.724456
-0.00267792
0.724838
-0.00253341
0.725197
-0.00239321
0.725535
-0.00225791
-0.00212813
0.725852
0.681906
-0.000386178
0.682021
-0.00111961
0.682204
-0.00176774
0.682446
-0.00232505
0.682739
-0.00279508
0.683076
-0.00318811
0.68345
-0.00351702
0.683857
-0.00379429
0.684294
-0.00403267
0.684759
-0.00424003
0.68525
-0.00442263
0.685767
-0.00458487
0.686308
-0.00472936
0.686873
-0.00485703
0.68746
-0.00496764
0.688067
-0.00506017
0.688693
-0.00513305
0.689334
-0.00518461
0.689987
-0.00521329
0.690649
-0.00521816
0.691317
-0.00519886
0.691986
-0.0051558
0.692653
-0.00508987
0.693314
-0.00500258
0.693967
-0.00489581
0.694607
-0.00477181
0.695231
-0.00463302
0.695839
-0.00448195
0.696426
-0.00432111
0.696993
-0.00415289
0.697537
-0.00397959
0.698057
-0.00380326
0.698553
-0.00362578
0.699024
-0.00344851
0.699471
-0.00327289
0.699893
-0.00310016
0.700291
-0.00293146
0.700665
-0.00276757
0.701017
-0.00260928
-0.00245731
0.701346
0.658091
-0.000422768
0.658198
-0.00122673
0.658368
-0.0019382
0.658594
-0.00255101
0.658868
-0.00306899
0.659183
-0.00350335
0.659535
-0.00386881
0.65992
-0.00417893
0.660334
-0.00444675
0.660776
-0.00468249
0.661247
-0.00489291
0.661744
-0.0050827
0.662269
-0.00525436
0.662821
-0.00540858
0.663398
-0.00554477
0.664
-0.00566151
0.664623
-0.00575661
0.665266
-0.00582776
0.665926
-0.00587284
0.666598
-0.00589056
0.66728
-0.00588029
0.667966
-0.00584225
0.668653
-0.00577726
0.669338
-0.00568688
0.670015
-0.00557315
0.670682
-0.00543858
0.671335
-0.00528595
0.671971
-0.00511813
0.672588
-0.00493802
0.673183
-0.0047484
0.673756
-0.00455198
0.674304
-0.00435121
0.674826
-0.00414844
0.675323
-0.00394537
0.675794
-0.00374366
0.676239
-0.00354476
0.676657
-0.00335014
0.67705
-0.00316076
0.677419
-0.00297762
-0.00280163
0.677763
0.635107
-0.000456293
0.635206
-0.00132521
0.635363
-0.00209529
0.635572
-0.00275977
0.635825
-0.00332254
0.636118
-0.00379585
0.636445
-0.00419612
0.636805
-0.00453866
0.637194
-0.00483592
0.637612
-0.00510033
0.638059
-0.00533986
0.638535
-0.00555924
0.639042
-0.00576071
0.639578
-0.00594466
0.640143
-0.0061102
0.640737
-0.00625533
0.641357
-0.00637707
0.642002
-0.00647235
0.642667
-0.0065384
0.64335
-0.0065735
0.644047
-0.0065766
0.644752
-0.00654767
0.645462
-0.0064873
0.646172
-0.00639707
0.646878
-0.00627913
0.647576
-0.00613625
0.648262
-0.00597148
0.648931
-0.00578806
0.649583
-0.00558928
0.650213
-0.00537835
0.650819
-0.00515846
0.6514
-0.00493248
0.651955
-0.00470321
0.652483
-0.00447288
0.652983
-0.00424342
0.653454
-0.00401648
0.653898
-0.0037939
0.654314
-0.00357686
0.654703
-0.00336668
-0.00316444
0.655066
0.612926
-0.000486625
0.613016
-0.00141463
0.613159
-0.00223834
0.613349
-0.0029504
0.613581
-0.00355447
0.61385
-0.00406412
0.614151
-0.00449745
0.614483
-0.00487078
0.614845
-0.00519791
0.615236
-0.00549113
0.615657
-0.00576087
0.616109
-0.00601166
0.616594
-0.00624545
0.617112
-0.0064624
0.617663
-0.00666123
0.618247
-0.00683921
0.618862
-0.00699232
0.619506
-0.0071167
0.620177
-0.00720884
0.62087
-0.00726651
0.621581
-0.00728804
0.622306
-0.007273
0.623041
-0.00722168
0.623779
-0.00713558
0.624517
-0.0070169
0.625249
-0.0068686
0.625972
-0.00669399
0.626681
-0.0064966
0.627371
-0.00628019
0.628041
-0.00604835
0.628688
-0.00580483
0.629308
-0.00555294
0.629901
-0.00529603
0.630465
-0.00503683
0.630999
-0.00477776
0.631504
-0.00452067
0.631977
-0.00426778
0.632421
-0.00402058
0.632835
-0.00378076
-0.00354962
0.63322
0.59152
-0.000513656
0.5916
-0.0014946
0.591728
-0.00236687
0.5919
-0.00312203
0.592109
-0.00376359
0.592352
-0.00430688
0.592625
-0.00477119
0.592928
-0.00517342
0.59326
-0.00552947
0.593621
-0.00585257
0.594013
-0.00615314
0.594438
-0.00643678
0.594898
-0.00670517
0.595394
-0.00695836
0.595927
-0.00719453
0.596498
-0.00740994
0.597105
-0.0075994
0.597747
-0.00775824
0.59842
-0.00788214
0.599122
-0.00796821
0.599848
-0.00801395
0.600593
-0.00801838
0.601353
-0.00798134
0.602121
-0.00790421
0.602894
-0.00778913
0.603664
-0.00763912
0.604428
-0.0074577
0.60518
-0.00724866
0.605916
-0.00701618
0.606632
-0.0067643
0.607324
-0.00649732
0.60799
-0.00621904
0.608628
-0.00593342
0.609235
-0.00564368
0.60981
-0.00535301
0.610353
-0.00506342
0.610862
-0.00477759
0.611339
-0.00449735
0.611783
-0.00422485
-0.00396168
0.612195
0.57086
-0.000537275
0.570931
-0.00156487
0.571044
-0.0024805
0.571196
-0.00327382
0.571381
-0.00394889
0.571597
-0.00452308
0.571842
-0.00501583
0.572113
-0.00544461
0.572412
-0.00582809
0.572741
-0.00618151
0.573102
-0.00651389
0.573496
-0.00683123
0.573927
-0.0071362
0.574398
-0.00742874
0.574909
-0.0077062
0.575463
-0.00796359
0.576058
-0.00819449
0.576693
-0.00839348
0.577366
-0.00855531
0.578074
-0.00867623
0.578813
-0.00875266
0.579578
-0.00878295
0.580363
-0.00876638
0.581163
-0.00870404
0.581971
-0.00859789
0.582783
-0.00845087
0.583592
-0.0082666
0.584392
-0.00804906
0.585179
-0.00780284
0.585947
-0.00753241
0.586692
-0.00724264
0.587411
-0.00693786
0.5881
-0.00662267
0.588758
-0.00630084
0.589381
-0.00597639
0.589969
-0.00565178
0.590522
-0.00533009
0.591038
-0.00501354
0.591518
-0.00470487
-0.00440602
0.591962
0.550922
-0.000557356
0.550983
-0.00162534
0.551081
-0.00257895
0.551212
-0.00340499
0.551373
-0.00410974
0.551562
-0.00471202
0.551776
-0.00522992
0.552014
-0.00568253
0.552278
-0.00609204
0.552571
-0.00647483
0.552897
-0.00683981
0.553258
-0.00719157
0.553656
-0.00753478
0.554097
-0.00786945
0.554582
-0.0081918
0.555114
-0.00849548
0.555693
-0.00877295
0.556317
-0.00901807
0.556987
-0.00922439
0.557697
-0.00938714
0.558446
-0.0095014
0.559228
-0.00956482
0.560038
-0.00957589
0.560869
-0.00953529
0.561715
-0.00944454
0.562571
-0.00930633
0.563429
-0.0091243
0.564282
-0.00890247
0.565125
-0.00864584
0.565952
-0.00835919
0.566757
-0.00804802
0.567536
-0.00771714
0.568286
-0.0073719
0.569001
-0.00701664
0.569681
-0.00665623
0.570323
-0.00629395
0.570927
-0.00593324
0.57149
-0.00557674
0.572013
-0.0052279
-0.00488914
0.572496
0.53168
-0.00057376
0.531731
-0.00167615
0.531814
-0.0026619
0.531924
-0.00351492
0.53206
-0.00424608
0.532221
-0.00487315
0.532403
-0.00541208
0.532607
-0.00588568
0.532834
-0.00631972
0.53309
-0.00673048
0.533377
-0.00712687
0.5337
-0.00751431
0.534062
-0.00789722
0.534469
-0.00827622
0.534924
-0.00864648
0.535429
-0.0090004
0.535985
-0.00932945
0.536594
-0.00962678
0.537254
-0.00988438
0.537963
-0.0100963
0.538718
-0.0102562
0.539514
-0.0103609
0.540346
-0.0104078
0.541207
-0.0103971
0.542092
-0.0103294
0.542993
-0.0102072
0.543903
-0.0100338
0.544814
-0.00981325
0.545719
-0.00955077
0.546611
-0.00925135
0.547484
-0.00892113
0.548332
-0.00856532
0.54915
-0.00819012
0.549934
-0.00780047
0.55068
-0.00740217
0.551385
-0.00699941
0.552049
-0.00659634
0.552668
-0.00619592
0.553242
-0.00580244
-0.00541892
0.553772
0.51311
-0.000586368
0.513151
-0.00171765
0.513218
-0.00272885
0.513307
-0.00360341
0.513419
-0.00435838
0.513552
-0.00500592
0.513701
-0.00556118
0.513868
-0.00605316
0.514058
-0.00650982
0.514274
-0.00694636
0.51452
-0.00737242
0.514801
-0.00779529
0.515123
-0.0082198
0.515492
-0.00864474
0.515911
-0.00906516
0.516383
-0.00947271
0.516912
-0.00985808
0.517498
-0.0102135
0.518143
-0.0105293
0.518845
-0.0107981
0.519601
-0.0110119
0.520406
-0.0111667
0.521257
-0.0112588
0.522147
-0.0112872
0.52307
-0.0112518
0.524017
-0.0111542
0.52498
-0.0109975
0.525952
-0.0107853
0.526925
-0.010523
0.527889
-0.0102157
0.528838
-0.00986999
0.529764
-0.00949151
0.530661
-0.00908729
0.531524
-0.00866292
0.532347
-0.00822519
0.533126
-0.00777917
0.53386
-0.00733032
0.534546
-0.00688174
0.535183
-0.00643867
-0.00600491
0.535769
0.495188
-0.000595159
0.49522
-0.00175019
0.49527
-0.00277905
0.495338
-0.00367103
0.495427
-0.00444749
0.495531
-0.0051096
0.495646
-0.00567664
0.495778
-0.00618463
0.495929
-0.00666118
0.496103
-0.00712056
0.496305
-0.00757432
0.496542
-0.00803168
0.49682
-0.00849801
0.497146
-0.00897055
0.497523
-0.00944272
0.497957
-0.00990663
0.498452
-0.0103525
0.49901
-0.0107716
0.499632
-0.011152
0.50032
-0.0114854
0.50107
-0.0117618
0.501879
-0.0119765
0.502744
-0.0121239
0.503659
-0.012202
0.504617
-0.0122094
0.505609
-0.0121467
0.506628
-0.0120164
0.507664
-0.0118215
0.508709
-0.0115674
0.509752
-0.0112588
0.510785
-0.0109029
0.511799
-0.0105054
0.512786
-0.0100743
0.513739
-0.00961577
0.514651
-0.00913772
0.515518
-0.00864607
0.516336
-0.00814793
0.517101
-0.00764679
0.517811
-0.00714879
-0.00665866
0.518465
0.477892
-0.000600285
0.477915
-0.00177386
0.477948
-0.00281169
0.477996
-0.00371947
0.478063
-0.00451403
0.478137
-0.00518343
0.478219
-0.00575877
0.478314
-0.00628008
0.478426
-0.00677283
0.478557
-0.00725171
0.478714
-0.00773097
0.478903
-0.00822145
0.479134
-0.00872844
0.479412
-0.0092484
0.479743
-0.00977403
0.480133
-0.0102964
0.480586
-0.0108062
0.481108
-0.0112936
0.481701
-0.0117447
0.482366
-0.0121502
0.483102
-0.0124981
0.483909
-0.0127828
0.484781
-0.0129965
0.485715
-0.0131359
0.486704
-0.0131981
0.48774
-0.0131824
0.488814
-0.0130904
0.489916
-0.0129239
0.491036
-0.012688
0.492165
-0.0123869
0.49329
-0.012028
0.494401
-0.0116171
0.49549
-0.0111628
0.496546
-0.010672
0.497562
-0.0101538
0.498531
-0.00961483
0.499447
-0.00906398
0.500306
-0.0085059
0.501105
-0.00794731
-0.00739408
0.50184
0.4612
-0.000602054
0.461214
-0.00178802
0.461229
-0.00282654
0.461261
-0.00375141
0.461304
-0.00455783
0.461348
-0.00522716
0.461398
-0.00580866
0.461457
-0.00633944
0.461529
-0.00684424
0.461616
-0.00733916
0.461727
-0.00784139
0.461868
-0.00836292
0.462048
-0.00890842
0.462274
-0.00947413
0.462553
-0.0100532
0.462893
-0.0106361
0.463299
-0.0112124
0.463777
-0.0117717
0.464331
-0.0122987
0.464964
-0.0127834
0.465678
-0.0132116
0.466472
-0.0135765
0.467343
-0.013868
0.468289
-0.0140816
0.469303
-0.014212
0.470377
-0.0142573
0.471504
-0.0142173
0.472673
-0.0140926
0.473873
-0.0138876
0.475091
-0.0136054
0.476317
-0.0132532
0.477536
-0.0128368
0.478739
-0.0123653
0.479913
-0.011846
0.481048
-0.011289
0.482135
-0.0107022
0.483167
-0.0100957
0.484138
-0.00947639
0.485042
-0.00885142
-0.00822781
0.485875
0.445091
-0.000600693
0.445094
-0.00179128
0.445092
-0.00282463
0.445111
-0.00376999
0.44513
-0.00457755
0.445145
-0.00524177
0.445164
-0.0058277
0.445187
-0.00636258
0.445219
-0.00687577
0.445262
-0.007383
0.445326
-0.00790532
0.445418
-0.00845483
0.445546
-0.00903565
0.445716
-0.00964471
0.445939
-0.0102757
0.446222
-0.0109192
0.446574
-0.0115643
0.447
-0.0121981
0.447506
-0.0128052
0.448098
-0.0133751
0.448778
-0.0138916
0.449549
-0.014347
0.450409
-0.0147282
0.451356
-0.0150293
0.452387
-0.0152428
0.453495
-0.0153646
0.45467
-0.0153928
0.455904
-0.0153261
0.457183
-0.0151674
0.458496
-0.0149184
0.459829
-0.0145859
0.461167
-0.0141748
0.462496
-0.0136947
0.463803
-0.0131529
0.465075
-0.0125607
0.4663
-0.0119268
0.467467
-0.0112632
0.468569
-0.0105784
0.469599
-0.00988134
-0.00917966
0.470551
0.429544
-0.000595769
0.429535
-0.00178221
0.429519
-0.0028086
0.429526
-0.00377769
0.42952
-0.00457094
0.429508
-0.00523006
0.429497
-0.0058165
0.429484
-0.00634991
0.429477
-0.0068689
0.429478
-0.00738377
0.429496
-0.0079232
0.429538
-0.00849639
0.42961
-0.00910843
0.429723
-0.00975766
0.429885
-0.0104378
0.430106
-0.0111403
0.430396
-0.0118541
0.430763
-0.0125645
0.431212
-0.0132549
0.431752
-0.0139148
0.432387
-0.0145268
0.433122
-0.0150819
0.433959
-0.0155645
0.434896
-0.0159673
0.435933
-0.0162794
0.437064
-0.0164953
0.438281
-0.0166099
0.439575
-0.01662
0.440933
-0.0165261
0.442343
-0.0163283
0.443789
-0.0160319
0.445255
-0.0156407
0.446724
-0.0151639
0.448181
-0.0146089
0.449608
-0.0139877
0.45099
-0.0133097
0.452316
-0.0125888
0.453573
-0.0118351
0.454752
-0.0110607
-0.010273
0.455846
0.414538
-0.000585292
0.414517
-0.00176118
0.41449
-0.00278195
0.414488
-0.00377557
0.414452
-0.00453555
0.414419
-0.00519661
0.414377
-0.00577407
0.41433
-0.00630379
0.414287
-0.00682544
0.414246
-0.00734248
0.414219
-0.00789623
0.414209
-0.00848708
0.414227
-0.00912606
0.414281
-0.0098112
0.414379
-0.0105365
0.414534
-0.0112954
0.414756
-0.0120753
0.415053
-0.012862
0.415437
-0.0136383
0.415913
-0.0143917
0.416492
-0.0151048
0.417178
-0.0157679
0.417976
-0.0163629
0.41889
-0.0168811
0.419919
-0.0173083
0.42106
-0.0176368
0.422309
-0.0178582
0.423656
-0.0179669
0.425089
-0.0179598
0.426596
-0.0178351
0.428159
-0.0175953
0.429762
-0.0172429
0.431384
-0.0167858
0.433005
-0.0162309
0.434608
-0.0155903
0.436173
-0.0148743
0.437682
-0.0140981
0.439121
-0.0132738
0.440477
-0.012417
-0.0115355
0.441739
0.400051
-0.000564857
0.400023
-0.00173297
0.399987
-0.00274654
0.399975
-0.0037637
0.399909
-0.00446909
0.39986
-0.00514742
0.399783
-0.00569746
0.399709
-0.00622991
0.39963
-0.00674582
0.399549
-0.00726145
0.399478
-0.00782583
0.399418
-0.00842696
0.399381
-0.00908894
0.399374
-0.00980416
0.399407
-0.0105699
0.399493
-0.011381
0.39964
-0.0122228
0.399862
-0.0130834
0.400168
-0.0139449
0.400571
-0.0147947
0.40108
-0.0156132
0.401703
-0.0163907
0.402447
-0.0171078
0.403321
-0.0177544
0.404325
-0.018313
0.405462
-0.0187738
0.406728
-0.0191241
0.408117
-0.0193555
0.409618
-0.0194608
0.411218
-0.0194352
0.4129
-0.0192775
0.414645
-0.0189881
0.416432
-0.0185722
0.418237
-0.0180357
0.420036
-0.0173901
0.421808
-0.016646
0.42353
-0.0158197
0.425181
-0.0149252
0.426746
-0.013982
-0.0129992
0.42821
0.386063
-0.000527647
0.386039
-0.00170857
0.385991
-0.00269932
0.385971
-0.00374334
0.385871
-0.00436869
0.385814
-0.00509035
0.385698
-0.00558148
0.385606
-0.00613851
0.385487
-0.00662648
0.385372
-0.00714656
0.385258
-0.00771164
0.385149
-0.00831786
0.385058
-0.00899803
0.38499
-0.00973621
0.384957
-0.0105368
0.38497
-0.0113946
0.38504
-0.0122921
0.38518
-0.0132232
0.385401
-0.0141659
0.385718
-0.015112
0.386143
-0.0160386
0.386688
-0.0169355
0.387363
-0.0177825
0.388177
-0.0185689
0.389138
-0.0192743
0.390252
-0.0198869
0.391517
-0.0203895
0.392932
-0.0207702
0.394488
-0.021017
0.396174
-0.021121
0.397973
-0.0210764
0.399864
-0.0208799
0.401825
-0.0205331
0.403829
-0.0200398
0.405849
-0.0194093
0.407855
-0.0186524
0.409821
-0.0177856
0.411721
-0.0168248
0.413531
-0.0157926
-0.014702
0.415234
0.372555
-0.000465863
0.372551
-0.00170438
0.372482
-0.00262994
0.372458
-0.00372019
0.372319
-0.00422874
0.372265
-0.00503689
0.372101
-0.00541773
0.372008
-0.00604507
0.371839
-0.00645745
0.371703
-0.00701076
0.371539
-0.00754783
0.371388
-0.00816695
0.371242
-0.00885205
0.371116
-0.00960962
0.371016
-0.0104365
0.370956
-0.0113353
0.370944
-0.0122797
0.370998
-0.0132776
0.371126
-0.0142937
0.371349
-0.0153345
0.371676
-0.0163663
0.372128
-0.0173874
0.372715
-0.0183692
0.373451
-0.0193048
0.374347
-0.0201706
0.375414
-0.0209536
0.376656
-0.021632
0.378076
-0.0221902
0.37967
-0.0226106
0.381428
-0.0228795
0.383337
-0.0229847
0.385375
-0.0229182
0.387518
-0.0226759
0.389736
-0.0222583
0.391998
-0.0216708
0.394269
-0.0209233
0.396514
-0.0200312
0.398702
-0.0190125
0.400801
-0.0178916
-0.0166881
0.402787
0.359512
-0.000373243
0.359545
-0.00173752
0.359437
-0.00252229
0.359424
-0.00370639
0.359235
-0.00403995
0.359201
-0.00500287
0.358977
-0.00519383
0.358902
-0.00597006
0.358666
-0.00622131
0.358532
-0.00687674
0.358303
-0.00731866
0.358128
-0.00799227
0.357918
-0.00864165
0.357742
-0.00943427
0.35757
-0.0102646
0.357442
-0.0112068
0.357343
-0.0121812
0.357312
-0.0132458
0.357338
-0.0143203
0.35746
-0.015457
0.357676
-0.0165822
0.358021
-0.0177319
0.358499
-0.0188477
0.359137
-0.0199427
0.359944
-0.0209778
0.36094
-0.0219487
0.362132
-0.0228245
0.363531
-0.0235892
0.365138
-0.0242177
0.366949
-0.0246907
0.368953
-0.0249887
0.371132
-0.0250971
0.37346
-0.0250037
0.375906
-0.0247039
0.378432
-0.024197
0.380999
-0.0234901
0.383563
-0.022596
0.386085
-0.0215338
0.388522
-0.0203292
-0.0190092
0.390843
0.346922
-0.0002483
0.347003
-0.00181861
0.346841
-0.0023608
0.346852
-0.00371725
0.346606
-0.00379341
0.346607
-0.00500423
0.346309
-0.00489607
0.346275
-0.00593571
0.34595
-0.00589605
0.345848
-0.0067751
0.345527
-0.00699795
0.345361
-0.00782597
0.345063
-0.00834363
0.344864
-0.00923565
0.344604
-0.0100046
0.344422
-0.0110245
0.344226
-0.0119853
0.344115
-0.0131353
0.344029
-0.0142337
0.344052
-0.0154804
0.34414
-0.0166699
0.34437
-0.0179625
0.344714
-0.0191915
0.345237
-0.0204654
0.345926
-0.0216663
0.346823
-0.0228466
0.347933
-0.0239344
0.34928
-0.0249364
0.350869
-0.0258065
0.352705
-0.0265265
0.354783
-0.0270664
0.357088
-0.0274022
0.359597
-0.027513
0.362278
-0.027385
0.36509
-0.0270086
0.367985
-0.0263857
0.370913
-0.0255236
0.37382
-0.0244409
0.376655
-0.0231639
-0.021727
0.379373
0.334776
-9.6969e-05
0.334902
-0.0019452
0.334683
-0.00214115
0.334727
-0.00376132
0.334421
-0.00348741
0.334466
-0.00504937
0.334087
-0.00451678
0.334109
-0.00595767
0.333677
-0.00546456
0.333637
-0.00673446
0.333196
-0.00655729
0.333077
-0.0077073
0.332657
-0.00792348
0.332477
-0.00905566
0.332096
-0.00962337
0.331896
-0.0108248
0.331575
-0.0116636
0.331411
-0.0129721
0.331186
-0.0140088
0.331127
-0.0154206
0.331059
-0.0166023
0.331183
-0.0180861
0.331357
-0.0193662
0.331759
-0.0208667
0.332284
-0.0221917
0.333067
-0.0236296
0.334049
-0.0249163
0.335314
-0.0262016
0.336841
-0.0273331
0.338667
-0.0283527
0.340785
-0.0291842
0.343192
-0.0298091
0.34587
-0.0301912
0.348787
-0.0303022
0.351902
-0.0301228
0.355159
-0.0296433
0.358498
-0.0288621
0.361852
-0.0277948
0.365153
-0.0264653
-0.0249161
0.368342
0.323066
6.78168e-05
0.323222
-0.00210119
0.322957
-0.00187605
0.323029
-0.00383284
0.322673
-0.003132
0.322756
-0.00513227
0.322303
-0.00406367
0.322379
-0.00603374
0.321843
-0.00492821
0.321873
-0.0067649
0.3213
-0.00598428
0.321256
-0.00766319
0.320686
-0.00735343
0.320566
-0.00893571
0.320025
-0.0090829
0.319857
-0.0106566
0.319368
-0.0111741
0.319201
-0.0128055
0.318793
-0.0136011
0.318694
-0.0153209
0.318421
-0.0163301
0.318471
-0.0181361
0.318421
-0.0193153
0.318723
-0.0211688
0.319012
-0.0224814
0.319687
-0.0243044
0.320462
-0.0256915
0.321634
-0.0273733
0.323026
-0.0287251
0.324814
-0.0301412
0.326917
-0.0312872
0.329395
-0.0322865
0.332215
-0.0330117
0.335358
-0.0334447
0.338785
-0.0335502
0.342435
-0.0332932
0.346237
-0.0326636
0.350108
-0.0316662
0.35396
-0.0303174
-0.0286694
0.357713
0.311781
0.000229609
0.311943
-0.00226296
0.311656
-0.00158866
0.311737
-0.00391429
0.311355
-0.00274944
0.311453
-0.00523089
0.310952
-0.0035628
0.311058
-0.00613914
0.310444
-0.00431417
0.310525
-0.00684635
0.309839
-0.00529842
0.309863
-0.00768723
0.309148
-0.00663795
0.3091
-0.0088882
0.308387
-0.00836958
0.308281
-0.0105507
0.307593
-0.0104864
0.307468
-0.0126803
0.306833
-0.0129659
0.30675
-0.0152375
0.306212
-0.0157925
0.306253
-0.0181771
0.305892
-0.0189537
0.306161
-0.021438
0.306102
-0.0224224
0.306726
-0.0249288
0.307149
-0.0261141
0.308271
-0.0284955
0.309379
-0.0298334
0.311146
-0.0319084
0.313115
-0.0332557
0.315654
-0.0348258
0.318555
-0.0359128
0.321908
-0.0367974
0.325649
-0.0372912
0.329713
-0.0373566
0.334035
-0.0369856
0.338504
-0.0361356
0.343008
-0.0348216
-0.0331055
0.347444
0.300905
0.000374653
0.30105
-0.00240855
0.300765
-0.0013031
0.300835
-0.00398507
0.300453
-0.00236707
0.300537
-0.00531469
0.300026
-0.00305193
0.30012
-0.00623273
0.299476
-0.00367019
0.299561
-0.00693208
0.298814
-0.00455067
0.298862
-0.00773575
0.298047
-0.00582325
0.298039
-0.00888022
0.297187
-0.00751766
0.297127
-0.0104903
0.296259
-0.00961796
0.296176
-0.0125976
0.29531
-0.0121004
0.295263
-0.0151899
0.294431
-0.0149611
0.294505
-0.0182502
0.293768
-0.0182174
0.294076
-0.0217458
0.293549
-0.0218958
0.294232
-0.0256109
0.294101
-0.0259836
0.295314
-0.029708
0.295852
-0.0303722
0.297737
-0.033793
0.299275
-0.0347935
0.301973
-0.0375237
0.304758
-0.0386981
0.308368
-0.0404071
0.312377
-0.0413005
0.316874
-0.0418533
0.321784
-0.0418956
0.326935
-0.0412866
0.332224
-0.0401106
-0.0383813
0.337499
0.290415
0.000496333
0.290531
-0.00252508
0.290264
-0.00103576
0.290311
-0.00403178
0.289951
-0.00200693
0.289993
-0.00535672
0.289509
-0.00256828
0.289547
-0.00627053
0.288928
-0.00305141
0.288959
-0.00696333
0.288218
-0.0038098
0.288225
-0.007742
0.287386
-0.00498498
0.28735
-0.0088437
0.286436
-0.00660385
0.286356
-0.0104104
0.28538
-0.00864208
0.285281
-0.0124981
0.284251
-0.0110703
0.284186
-0.0151258
0.283114
-0.0138882
0.283176
-0.0183129
0.282091
-0.0171321
0.282415
-0.0220699
0.281394
-0.0208746
0.282154
-0.0263712
0.281355
-0.0251846
0.282756
-0.0311092
0.282451
-0.0300675
0.284691
-0.0360323
0.285311
-0.0354136
0.288494
-0.0407072
0.290594
-0.0407975
0.294757
-0.0445701
0.298726
-0.0452695
0.303812
-0.0469393
0.309345
-0.0474292
0.315251
-0.0471919
0.321535
-0.0463949
-0.0446866
0.32784
0.280292
0.000594785
0.280376
-0.00260873
0.280134
-0.000793947
0.280154
-0.00405165
0.279827
-0.00168074
0.279813
-0.00534206
0.279383
-0.00213836
0.279332
-0.00621998
0.278786
-0.00250535
0.278711
-0.00688787
0.278045
-0.00314369
0.27794
-0.00763758
0.277162
-0.00420683
0.277018
-0.00869913
0.276137
-0.0057236
0.27595
-0.010223
0.274972
-0.00766449
0.274758
-0.0122842
0.273681
-0.00999328
0.273488
-0.0149328
0.272306
-0.0127058
0.272224
-0.0182307
0.270935
-0.0158432
0.271115
-0.0222497
0.269743
-0.0195025
0.270406
-0.0270347
0.269038
-0.0238163
0.270481
-0.032552
0.269317
-0.0289034
0.271877
-0.038593
0.2713
-0.0348359
0.275238
-0.0446456
0.275917
-0.0414767
0.281239
-0.0498916
0.284178
-0.0482087
0.290591
-0.0533528
0.296376
-0.0532133
0.303283
-0.0540993
0.31088
-0.0539917
-0.052149
0.318342
0.270521
0.000672105
0.270571
-0.00265835
0.270359
-0.000581995
0.270354
-0.00404704
0.270067
-0.00139342
0.269992
-0.00526708
0.26963
-0.00177612
0.269476
-0.00606653
0.269034
-0.00206298
0.26882
-0.00667334
0.268281
-0.00260482
0.268013
-0.00737028
0.267369
-0.00356202
0.267047
-0.0083776
0.266291
-0.00496793
0.265914
-0.00984536
0.265042
-0.0067928
0.264615
-0.0118575
0.26362
-0.00899795
0.263174
-0.0144869
0.262044
-0.0115757
0.261647
-0.0178338
0.260367
-0.0145633
0.260158
-0.0220409
0.258716
-0.0180601
0.258938
-0.0272568
0.257344
-0.0222217
0.258367
-0.0335759
0.256711
-0.0272474
0.259081
-0.040963
0.257573
-0.033327
0.261901
-0.0489739
0.26103
-0.0406059
0.267669
-0.0565303
0.268544
-0.0490836
0.277307
-0.0621167
0.281788
-0.0576936
0.291256
-0.0635678
0.300004
-0.0627394
-0.0608613
0.308716
0.261094
0.00072734
0.261108
-0.00267246
0.260931
-0.000404858
0.260902
-0.00401851
0.260652
-0.00114354
0.260526
-0.00514091
0.260225
-0.00147543
0.259986
-0.00582691
0.25964
-0.0017172
0.2593
-0.00633323
0.258891
-0.00219552
0.258462
-0.00694156
0.257971
-0.00307068
0.257457
-0.00786403
0.256867
-0.00437798
0.256267
-0.00924493
0.255565
-0.00609136
0.254874
-0.0111663
0.254054
-0.00817765
0.253274
-0.0137071
0.252334
-0.0106355
0.251485
-0.0169855
0.250429
-0.0135073
0.24958
-0.0211921
0.248407
-0.0168866
0.247741
-0.0265907
0.24644
-0.0209206
0.246367
-0.033503
0.244908
-0.0257887
0.246156
-0.042211
0.244554
-0.0317249
0.248123
-0.0525429
0.246514
-0.0389963
0.253541
-0.0635575
0.252569
-0.048112
0.263567
-0.0731141
0.265268
-0.0593946
0.279387
-0.0776877
0.287238
-0.0705895
-0.0729347
0.299311
0.252003
0.000753521
0.251978
-0.00264774
0.251843
-0.000269666
0.251779
-0.00395488
0.251576
-0.000939782
0.2514
-0.00496471
0.251159
-0.0012353
0.250852
-0.00551932
0.250584
-0.00144933
0.250155
-0.00590467
0.249839
-0.00187943
0.249303
-0.00640532
0.248914
-0.0026821
0.248277
-0.00722662
0.247791
-0.00389175
0.24705