/*--------------------------------*- C++ -*----------------------------------*\
| =========                 |                                                 |
| \\      /  F ield         | OpenFOAM: The Open Source CFD Toolbox           |
|  \\    /   O peration     | Version:  2312                                  |
|   \\  /    A nd           | Website:  www.openfoam.com                      |
|    \\/     M anipulation  |                                                 |
\*---------------------------------------------------------------------------*/
FoamFile
{
    version     2.0;
    format      ascii;
    arch        "LSB;label=32;scalar=64";
    class       volVectorField;
    location    "166.9";
    object      U;
}
// * * * * * * * * * * * * * * * * * * * * * * * * * * * * * * * * * * * * * //

dimensions      [0 1 -1 0 0 0 0];

internalField   nonuniform List<vector> 
5478
(
(-0.044248 0.0272476 -8.5309e-20)
(-0.0792491 0.0444807 0)
(-0.0602503 0.0448385 1.27266e-19)
(0.0340322 0.0400111 -2.21498e-19)
(0.217357 0.0335599 1.42405e-19)
(0.469974 0.0295693 -4.32977e-20)
(0.746212 0.0299717 -7.22578e-20)
(1.00047 0.0317999 0)
(1.20052 0.0312462 0)
(1.32877 0.0227641 9.59634e-20)
(1.38512 0.00694618 -4.30201e-20)
(1.38581 -0.0142185 -7.38402e-20)
(1.35232 -0.0479854 -2.90759e-20)
(1.3262 -0.0523385 0)
(1.30659 -0.118734 7.85789e-20)
(-0.0543133 0.0328835 1.71468e-19)
(-0.0678871 0.0449585 0)
(0.011674 0.0365185 0)
(0.205797 0.0279292 -1.12421e-19)
(0.493367 0.0290269 1.47416e-19)
(0.801021 0.0390536 4.15547e-20)
(1.06257 0.051196 -7.10934e-20)
(1.24376 0.0583375 6.30384e-20)
(1.33958 0.0559944 1.56276e-19)
(1.36723 0.0438544 -1.36796e-19)
(1.35776 0.0266067 3.14041e-21)
(1.33744 0.00388382 0)
(1.32755 -0.0118569 2.90256e-20)
(1.31442 -0.0348819 0)
(1.29238 -0.0543431 0)
(-0.056194 0.0306595 -5.09761e-22)
(-0.0293528 0.0344029 -8.10799e-20)
(0.143767 0.0257889 6.7578e-22)
(0.455952 0.032078 0)
(0.802372 0.0528641 -5.0549e-20)
(1.08193 0.0745854 4.26044e-20)
(1.25593 0.087136 3.56782e-20)
(1.33414 0.0873852 0)
(1.35105 0.0776152 -5.19533e-20)
(1.34411 0.0637116 4.40302e-20)
(1.3336 0.0468212 3.7186e-20)
(1.32488 0.0333891 0)
(1.30653 0.013801 0)
(1.28203 0.00463936 -7.84254e-20)
(1.25761 -0.0175714 6.98534e-20)
(-0.0477209 0.0224115 -9.51668e-20)
(0.0485871 0.0158556 7.99345e-20)
(0.349022 0.0246141 -6.89636e-20)
(0.740993 0.0599338 6.11216e-20)
(1.05968 0.0956585 1.01782e-19)
(1.24847 0.115988 -8.50965e-20)
(1.32899 0.119571 -3.5659e-20)
(1.34862 0.112169 2.79428e-20)
(1.34555 0.100601 -2.66691e-20)
(1.335 0.0865785 0)
(1.31971 0.0736592 0)
(1.29802 0.0567391 -5.32345e-20)
(1.27832 0.044845 6.93513e-20)
(1.26211 0.0285943 -3.90753e-20)
(1.24716 0.0123537 0)
(-0.025788 0.0111227 4.82753e-20)
(0.180091 0.00312074 4.05246e-20)
(0.602045 0.0503125 -1.46264e-19)
(0.987344 0.108152 2.23872e-21)
(1.22 0.142916 -1.42038e-21)
(1.32184 0.153436 -1.54895e-21)
(1.35023 0.14931 3.42771e-20)
(1.34733 0.139061 2.88936e-20)
(1.33193 0.125925 2.10096e-20)
(1.31228 0.112444 -3.10595e-21)
(1.29284 0.097077 -4.78818e-20)
(1.27768 0.0841597 0)
(1.26255 0.0698999 2.19057e-20)
(1.24443 0.0562348 -1.63873e-20)
(1.22476 0.0464844 2.92833e-20)
(0.0166205 -0.000231094 -1.05438e-19)
(0.366344 0.0149541 1.1371e-19)
(0.84008 0.101488 -3.9205e-20)
(1.15699 0.163548 2.92573e-20)
(1.30465 0.188152 -5.41559e-20)
(1.35006 0.189546 -4.01472e-20)
(1.34899 0.180373 1.24862e-21)
(1.3316 0.167061 0)
(1.31192 0.15277 4.25368e-20)
(1.29425 0.137667 -3.78271e-20)
(1.278 0.123972 1.51737e-20)
(1.25972 0.109259 0)
(1.241 0.0960417 9.27481e-21)
(1.22467 0.0822943 -1.64789e-20)
(1.21059 0.0712176 0)
(0.0849118 -0.00384267 -1.32273e-20)
(0.573476 0.0615834 1.3053e-21)
(1.02428 0.166906 1.89896e-20)
(1.26022 0.220914 3.21551e-20)
(1.34226 0.233623 -2.45531e-20)
(1.3505 0.226607 4.1223e-20)
(1.33386 0.212604 -9.33671e-21)
(1.31298 0.197005 0)
(1.29253 0.18092 -2.49946e-20)
(1.27253 0.165326 1.6872e-21)
(1.2532 0.149377 2.07653e-20)
(1.23668 0.134743 0)
(1.2222 0.120547 -1.34784e-20)
(1.20743 0.106728 0)
(1.19193 0.0987296 8.24179e-21)
(0.176813 0.00806489 -1.46942e-20)
(0.757629 0.133737 0)
(1.15172 0.239992 2.03039e-20)
(1.31329 0.279633 0)
(1.34797 0.279519 0)
(1.33566 0.264895 0)
(1.3123 0.246803 -7.96284e-21)
(1.28845 0.22819 0)
(1.26678 0.20986 5.04201e-21)
(1.24809 0.191812 0)
(1.23177 0.175171 -6.47619e-21)
(1.21571 0.158965 0)
(1.19998 0.143758 4.19866e-21)
(1.18614 0.129967 0)
(1.17427 0.119469 2.72429e-21)
(-0.00624076 0.0782541 -1.16902e-20)
(-0.0261187 0.201269 0)
(-0.0611206 0.272177 1.81812e-20)
(-0.0990778 0.315133 0)
(-0.133824 0.354354 0)
(-0.162027 0.395823 0)
(-0.180666 0.4353 -1.1831e-20)
(-0.186644 0.466856 0)
(-0.177086 0.484642 1.01652e-20)
(-0.150102 0.483065 0)
(-0.104809 0.458205 -1.8034e-20)
(-0.0409763 0.407436 0)
(0.0357102 0.327883 1.60612e-20)
(0.123665 0.218531 0)
(0.207723 0.0906768 1.38106e-20)
(-0.00836798 0.0804474 5.79727e-20)
(-0.0238244 0.21782 -4.07381e-20)
(-0.0436988 0.302563 1.73143e-20)
(-0.0649343 0.349743 6.31487e-20)
(-0.0812803 0.384307 4.27156e-22)
(-0.088097 0.415899 -5.11402e-20)
(-0.0818776 0.4421 3.47274e-20)
(-0.0601011 0.457267 0)
(-0.0211183 0.45625 3.13185e-20)
(0.0362405 0.435334 2.36788e-21)
(0.110288 0.390768 -1.69276e-20)
(0.196639 0.320348 0)
(0.301093 0.233461 -4.77604e-20)
(0.38932 0.112882 0)
(0.503279 0.00237393 -6.97764e-20)
(-0.00966535 0.0673279 9.10022e-20)
(-0.0228874 0.206348 1.9597e-20)
(-0.027951 0.304886 -3.54073e-20)
(-0.0304562 0.359727 -9.29766e-20)
(-0.0260811 0.391073 5.44995e-20)
(-0.0101333 0.412171 4.97303e-20)
(0.0207702 0.424614 -8.73846e-20)
(0.0685804 0.424928 0)
(0.133398 0.408899 -7.94163e-20)
(0.213529 0.37146 7.06056e-20)
(0.312117 0.319758 3.32809e-20)
(0.402651 0.23375 0)
(0.531564 0.153243 3.16842e-20)
(0.604495 0.0282148 -5.56632e-20)
(0.75744 -0.0620089 0)
(-0.00901002 0.0453936 4.41935e-20)
(-0.0238052 0.169624 -1.17464e-19)
(-0.0204919 0.274523 1.36282e-19)
(-0.00755433 0.338142 -1.18108e-19)
(0.0159363 0.370302 -5.10307e-20)
(0.0526594 0.38374 4.51069e-20)
(0.104624 0.383951 4.33074e-20)
(0.172791 0.370035 3.69109e-20)
(0.255906 0.344675 -1.07861e-19)
(0.349649 0.293432 -4.05733e-21)
(0.45915 0.24475 2.86277e-20)
(0.555852 0.151811 0)
(0.702677 0.0891664 5.45683e-20)
(0.785985 -0.0429496 1.63212e-19)
(0.983354 -0.130559 -9.55154e-20)
(-0.00738278 0.0240134 -5.09881e-22)
(-0.0269157 0.120775 7.56913e-20)
(-0.0248716 0.217026 -6.54303e-20)
(-0.00524371 0.281907 5.83694e-20)
(0.0307506 0.314704 9.96209e-20)
(0.0826515 0.323789 -8.74738e-20)
(0.149851 0.316257 -3.75737e-20)
(0.231406 0.293301 -1.08981e-19)
(0.325878 0.262734 9.82271e-20)
(0.435502 0.2094 0)
(0.558634 0.163446 0)
(0.70272 0.0728446 1.13527e-19)
(0.867211 0.0114318 -2.61404e-19)
(1.01858 -0.11547 9.42661e-20)
(1.22451 -0.195471 0)
(-0.00805962 0.0107354 3.64437e-22)
(-0.0347361 0.0770006 -7.47396e-20)
(-0.0414632 0.149909 1.9459e-19)
(-0.0243865 0.20262 -5.62114e-20)
(0.0151273 0.229189 -4.863e-20)
(0.0749151 0.233584 4.24025e-20)
(0.154896 0.222092 3.76004e-20)
(0.257948 0.198391 6.67803e-20)
(0.388093 0.164314 -1.18553e-19)
(0.548305 0.119402 5.54046e-20)
(0.728402 0.0653599 5.18162e-20)
(0.933306 -0.00597515 0)
(1.1196 -0.0650268 0)
(1.294 -0.16602 1.65286e-19)
(1.41562 -0.209211 -1.46681e-19)
(-0.0151442 0.00897567 -3.30349e-22)
(-0.050782 0.049955 0)
(-0.0673973 0.0932016 0)
(-0.053686 0.124559 1.06702e-19)
(-0.00685366 0.138712 -4.79055e-20)
(0.0772764 0.136919 3.9891e-20)
(0.204808 0.122965 7.05657e-20)
(0.375829 0.101416 -6.25643e-20)
(0.582318 0.0703589 5.93216e-20)
(0.805239 0.0388686 -5.54586e-20)
(1.0281 -0.00581248 -3.84231e-21)
(1.21989 -0.0453435 0)
(1.3658 -0.0947968 3.80611e-20)
(1.44567 -0.151518 0)
(1.43709 -0.172419 0)
(-0.0291799 0.01673 -8.3563e-20)
(-0.0704198 0.0415927 0)
(-0.0832167 0.0586866 -1.25163e-19)
(-0.0500421 0.0687692 2.17141e-19)
(0.042627 0.0697667 -2.32416e-19)
(0.200975 0.0622889 -3.86582e-20)
(0.415896 0.0507918 7.06318e-20)
(0.662378 0.038297 0)
(0.909529 0.0241993 0)
(1.12875 0.00939563 -1.03245e-19)
(1.29468 -0.0160037 -4.81434e-20)
(1.39541 -0.0350878 8.19297e-20)
(1.42664 -0.0797609 -3.8139e-20)
(1.39463 -0.0994052 0)
(1.34909 -0.131006 -9.77855e-20)
(0.35686 -0.17414 0)
(0.516436 -0.564449 4.57029e-21)
(0.579994 -0.805487 -4.20258e-21)
(0.65893 -0.743398 0)
(0.603116 -0.723923 0)
(0.377385 -0.716419 -8.93e-23)
(0.485127 -0.259726 0)
(0.647387 0.176256 0)
(0.824726 0.47078 6.28175e-23)
(0.882405 0.486602 0)
(0.851525 0.581611 0)
(0.752525 0.632783 -8.44599e-23)
(0.74983 0.322512 0)
(0.886861 0.129618 -8.23605e-23)
(0.975049 -0.239762 -9.04107e-23)
(0.976023 -0.436457 0)
(1.02277 -0.537444 -5.08763e-22)
(1.01371 -0.547295 6.03778e-22)
(1.01261 -0.0994137 0)
(1.02502 0.15321 5.34348e-22)
(1.09443 0.519617 -6.21008e-22)
(1.10451 0.607567 1.24899e-22)
(1.06295 0.106559 -2.29146e-22)
(1.11736 -0.152848 2.18952e-22)
(1.10089 -0.512673 -1.99055e-22)
(1.12749 -0.555801 0)
(1.17575 0.344486 -2.43908e-22)
(1.10176 0.65898 2.33218e-22)
(1.08656 -0.0436857 -1.4512e-22)
(1.01721 -0.35506 0)
(1.01708 -0.021971 -7.7019e-23)
(0.997471 0.122401 0)
(0.990465 0.0143455 -4.19963e-23)
(0.979391 -0.0257699 -1.34649e-23)
(0.982097 0.00138267 1.22183e-24)
(0.976754 0.00817423 -8.79316e-24)
(0.978579 0.00383475 0)
(0.973537 0.00259047 2.67957e-24)
(0.6307 -0.266696 2.5895e-20)
(0.799769 -0.610175 -1.65203e-22)
(0.798436 -0.834856 -1.21193e-20)
(0.740169 -0.77968 1.15593e-20)
(0.724217 -0.655607 0)
(0.469181 -0.655387 8.99901e-23)
(0.426798 -0.321213 -1.2124e-22)
(0.566572 0.0655275 0)
(0.776749 0.394473 -6.32935e-23)
(0.850944 0.478104 0)
(0.76829 0.618953 0)
(0.691906 0.650424 8.5072e-23)
(0.713955 0.29213 0)
(0.898592 0.0791974 2.95582e-21)
(1.00773 -0.252167 -2.4699e-21)
(0.995398 -0.450224 2.53025e-21)
(1.05774 -0.54746 -2.4152e-21)
(1.01891 -0.549647 -1.18734e-22)
(1.01881 -0.100438 0)
(1.00545 0.131885 0)
(1.06131 0.500163 -1.29285e-22)
(1.10061 0.606705 9.33089e-22)
(1.05217 0.113985 -1.62119e-21)
(1.13033 -0.158778 7.92363e-22)
(1.1187 -0.509467 5.74043e-22)
(1.09824 -0.56402 0)
(1.15432 0.343617 6.48866e-22)
(1.10557 0.65635 0)
(1.10526 -0.0314379 1.45628e-22)
(1.02479 -0.351982 -2.53212e-22)
(1.01335 -0.0214458 4.03781e-22)
(0.999255 0.12363 -4.48505e-23)
(0.995969 0.0157548 7.77865e-23)
(0.983866 -0.0252945 3.93954e-24)
(0.986643 0.0014899 1.57429e-23)
(0.981921 0.00838041 -7.62982e-24)
(0.984029 0.00394434 -7.10394e-25)
(0.980183 0.00284948 6.52105e-25)
(0.865407 -0.339817 4.66808e-20)
(1.00927 -0.632253 -8.05042e-20)
(1.00369 -0.77661 1.08395e-20)
(0.827673 -0.750276 2.26689e-20)
(0.784922 -0.592783 1.80439e-22)
(0.58677 -0.583041 -1.35068e-22)
(0.460455 -0.364703 1.23322e-22)
(0.548448 -0.0501256 -1.494e-22)
(0.737342 0.312916 0)
(0.850871 0.4777 6.934e-21)
(0.76484 0.652753 -6.6145e-21)
(0.689336 0.67216 -2.03198e-22)
(0.720935 0.27097 0)
(0.915543 0.0280061 -5.95215e-21)
(1.03985 -0.248375 5.4947e-21)
(1.02218 -0.445278 -2.55718e-21)
(1.08473 -0.546471 2.43998e-21)
(1.01913 -0.551048 2.60427e-21)
(1.02152 -0.10492 -2.22563e-21)
(0.985961 0.117764 0)
(1.02208 0.481612 0)
(1.09094 0.607013 1.49156e-21)
(1.04271 0.127362 -1.42378e-21)
(1.13532 -0.159029 -1.50031e-21)
(1.12871 -0.496643 -5.3436e-22)
(1.05779 -0.57216 1.8467e-21)
(1.12452 0.33505 3.83941e-23)
(1.10427 0.657192 -7.1887e-22)
(1.11773 -0.010246 1.24672e-21)
(1.02817 -0.343203 -1.08541e-21)
(1.00605 -0.021194 6.07868e-23)
(0.997706 0.124104 -1.3924e-22)
(0.997952 0.0176789 5.29406e-23)
(0.985089 -0.0244692 -5.06182e-23)
(0.987825 0.00153446 -1.01886e-23)
(0.983905 0.00853515 -5.48983e-24)
(0.986139 0.00398746 1.64472e-23)
(0.983728 0.00303607 2.59286e-24)
(1.09765 -0.381561 0)
(1.16105 -0.634676 3.26601e-20)
(1.12082 -0.708805 -3.21005e-20)
(0.909429 -0.690126 0)
(0.809288 -0.539664 -1.85457e-22)
(0.687928 -0.509683 1.38778e-22)
(0.555647 -0.388284 0)
(0.619721 -0.159032 2.30962e-23)
(0.757483 0.21095 -1.57267e-22)
(0.85242 0.447966 0)
(0.696933 0.67661 -7.1801e-21)
(0.64485 0.698086 7.05442e-21)
(0.744643 0.255716 -4.75919e-22)
(0.938547 -0.0190509 -6.26946e-21)
(1.06824 -0.250301 5.97749e-21)
(1.05084 -0.442439 3.34887e-22)
(1.10235 -0.545478 0)
(1.01424 -0.553221 -2.78381e-22)
(1.02434 -0.118811 5.22803e-21)
(0.970649 0.0955026 -1.08911e-22)
(0.976368 0.448547 -9.16273e-22)
(1.06563 0.599766 -3.2227e-21)
(1.03076 0.140941 -2.33181e-21)
(1.13166 -0.157506 2.79789e-21)
(1.13352 -0.480922 -3.50362e-22)
(1.01404 -0.576768 0)
(1.08596 0.309236 -7.03102e-22)
(1.09195 0.645037 7.28383e-22)
(1.12169 0.00780376 -1.21611e-21)
(1.02774 -0.332967 1.05364e-21)
(0.99569 -0.0231433 -1.89155e-22)
(0.992814 0.122949 0)
(0.996343 0.0194614 -5.05433e-23)
(0.983175 -0.023583 9.30135e-23)
(0.985793 0.00141647 3.16165e-23)
(0.982827 0.00860339 3.05901e-23)
(0.985011 0.00394908 -1.64588e-23)
(0.984185 0.00313718 -5.95931e-26)
(1.30674 -0.389892 5.65307e-22)
(1.28806 -0.564813 1.05984e-21)
(1.16756 -0.60355 0)
(0.981107 -0.601619 0)
(0.835289 -0.50201 0)
(0.768797 -0.456997 0)
(0.656566 -0.405725 5.04538e-21)
(0.706657 -0.257602 -9.62043e-21)
(0.802571 0.116159 4.87153e-21)
(0.849996 0.451982 0)
(0.703077 0.725763 -7.34822e-21)
(0.702213 0.721764 7.21517e-21)
(0.813313 0.251473 8.24523e-21)
(0.97906 -0.0574853 -6.94578e-21)
(1.09268 -0.247465 5.86092e-21)
(1.0742 -0.425909 -5.92934e-21)
(1.10795 -0.532429 -2.69859e-22)
(1.00061 -0.556013 -5.215e-21)
(1.01704 -0.135841 4.97039e-21)
(0.949534 0.0854088 6.68687e-22)
(0.930107 0.426789 5.76809e-22)
(1.03993 0.59519 2.03916e-21)
(1.02157 0.158067 -2.33224e-21)
(1.12294 -0.149725 -6.11175e-22)
(1.13325 -0.457661 -2.74707e-22)
(0.968741 -0.582433 -6.44935e-22)
(1.04095 0.281401 0)
(1.07912 0.640773 0)
(1.12016 0.0325661 0)
(1.02454 -0.317601 0)
(0.983185 -0.0250327 5.01674e-22)
(0.985419 0.121442 -2.95447e-22)
(0.991659 0.0215817 9.65197e-23)
(0.97861 -0.022438 -2.79833e-22)
(0.980967 0.00124792 3.15281e-23)
(0.978999 0.00862929 5.9577e-24)
(0.980936 0.00385291 -2.01825e-23)
(0.981724 0.00315527 -6.45779e-24)
(1.40623 -0.352507 -5.95244e-22)
(1.33392 -0.460262 5.41693e-20)
(1.18172 -0.497902 -5.20796e-20)
(1.04507 -0.515927 -2.87526e-20)
(0.892824 -0.459475 2.73839e-20)
(0.825328 -0.417342 1.55858e-20)
(0.75011 -0.404823 -1.45174e-20)
(0.732101 -0.339642 1.67395e-22)
(0.835343 0.00902492 -1.71088e-22)
(0.875719 0.369342 0)
(0.707776 0.680403 -2.34274e-22)
(0.667811 0.74508 1.67276e-20)
(0.829646 0.28377 -1.59167e-20)
(1.01294 -0.0624046 -4.58901e-22)
(1.11552 -0.235676 0)
(1.09963 -0.404629 -5.27601e-21)
(1.11216 -0.513762 9.7554e-21)
(0.987677 -0.557132 -4.23007e-21)
(1.0033 -0.16304 0)
(0.92978 0.0618782 4.6171e-21)
(0.884824 0.384599 -1.84496e-21)
(0.9948 0.580049 -3.62152e-21)
(1.00488 0.175592 -2.17576e-21)
(1.11222 -0.138179 2.14883e-21)
(1.12633 -0.432145 -3.71911e-21)
(0.93029 -0.582373 -2.13189e-21)
(0.991868 0.237967 6.17843e-21)
(1.05373 0.621308 -1.88623e-21)
(1.10899 0.0526692 1.79326e-21)
(1.01919 -0.302508 -4.7996e-22)
(0.969054 -0.0289598 4.56417e-22)
(0.975366 0.118369 0)
(0.984057 0.0235328 9.24153e-23)
(0.971841 -0.0212669 -1.08028e-23)
(0.973837 0.000939966 0)
(0.972842 0.00857656 -3.0364e-23)
(0.974342 0.00368867 1.32121e-23)
(0.976653 0.0030855 -2.50462e-24)
(1.37216 -0.272782 0)
(1.30202 -0.353992 0)
(1.18445 -0.402262 -1.68833e-22)
(1.07814 -0.447928 0)
(0.963704 -0.416681 0)
(0.869023 -0.377955 1.59829e-20)
(0.818382 -0.3794 -1.52066e-20)
(0.724784 -0.401916 1.3029e-20)
(0.784545 -0.112255 -1.2375e-20)
(0.850672 0.3543 0)
(0.672972 0.721558 -2.18418e-22)
(0.724542 0.752873 2.26431e-22)
(0.897536 0.277411 -1.73172e-20)
(1.0596 -0.0823987 1.54317e-21)
(1.13574 -0.23271 1.39481e-20)
(1.11733 -0.384845 1.80437e-22)
(1.11199 -0.483828 -1.22303e-22)
(0.977455 -0.558337 1.05934e-20)
(0.981536 -0.191532 -1.0372e-20)
(0.902063 0.054203 0)
(0.842169 0.365607 0)
(0.964649 0.574513 -1.60392e-22)
(0.99315 0.189087 0)
(1.10646 -0.123222 2.01273e-21)
(1.11329 -0.398039 1.92501e-21)
(0.899163 -0.584424 -3.36451e-21)
(0.944425 0.198479 -5.7833e-21)
(1.03446 0.614959 3.78446e-21)
(1.096 0.0767373 -7.82053e-23)
(1.01354 -0.283605 0)
(0.955149 -0.0318064 -3.1272e-22)
(0.964289 0.115762 2.9651e-22)
(0.974588 0.0255762 4.80311e-23)
(0.963638 -0.0200351 2.89806e-23)
(0.96507 0.000681712 -4.06305e-23)
(0.964916 0.008544 1.01724e-23)
(0.965792 0.00351591 0)
(0.969406 0.00294777 5.02235e-24)
(1.30888 -0.202462 5.99837e-20)
(1.27357 -0.276242 5.01029e-20)
(1.20382 -0.324329 -6.26346e-21)
(1.10644 -0.389976 -7.06547e-20)
(1.01565 -0.389476 2.9921e-20)
(0.91727 -0.356936 -1.52666e-22)
(0.853797 -0.3492 0)
(0.752584 -0.396901 -9.42845e-23)
(0.679634 -0.250313 -1.15586e-22)
(0.76596 0.160535 0)
(0.706575 0.58915 -1.465e-20)
(0.716896 0.763937 1.38768e-20)
(0.852585 0.377742 2.66766e-22)
(1.0757 -0.0250009 1.40605e-20)
(1.15563 -0.198182 -1.3354e-20)
(1.13805 -0.351894 1.72686e-22)
(1.11675 -0.45145 1.30092e-22)
(0.97429 -0.550272 0)
(0.954398 -0.226465 1.21256e-20)
(0.869088 0.0215917 -1.14802e-20)
(0.799723 0.309781 -4.03863e-21)
(0.910132 0.550628 2.07421e-21)
(0.96465 0.215921 1.81834e-21)
(1.10662 -0.100865 -1.69768e-21)
(1.09759 -0.359984 -1.73089e-21)
(0.87901 -0.579309 9.46039e-21)
(0.89472 0.141037 -4.58439e-21)
(0.999103 0.585498 1.90116e-21)
(1.07366 0.10366 -1.41324e-21)
(1.007 -0.263881 0)
(0.941602 -0.0366327 0)
(0.951212 0.111129 0)
(0.963271 0.027614 3.73496e-23)
(0.9545 -0.0187306 -4.43531e-23)
(0.955268 0.000202109 4.33852e-23)
(0.955791 0.008369 -2.92168e-23)
(0.955888 0.00325981 -1.10579e-23)
(0.96048 0.00272204 0)
(1.28736 -0.133458 0)
(1.2639 -0.204422 0)
(1.20972 -0.223198 0)
(1.13591 -0.269009 0)
(1.05221 -0.300551 0)
(0.981775 -0.267533 0)
(0.928062 -0.245189 0)
(0.813581 -0.329494 0)
(0.611954 -0.269914 0)
(0.599657 0.137279 0)
(0.594962 0.580538 0)
(0.678375 0.732103 0)
(0.958136 0.306507 0)
(1.15412 -0.0622026 0)
(1.17605 -0.177846 0)
(1.15101 -0.294715 0)
(1.12708 -0.408966 0)
(0.963114 -0.550141 0)
(0.922066 -0.259166 0)
(0.832598 0.0237093 0)
(0.767387 0.297742 0)
(0.865798 0.544917 0)
(0.954811 0.206567 0)
(1.12123 -0.0891155 0)
(1.08851 -0.339626 0)
(0.842724 -0.578242 0)
(0.855194 0.0977762 0)
(0.967136 0.580299 0)
(1.05702 0.117923 0)
(0.997646 -0.24809 0)
(0.927801 -0.0380111 0)
(0.937015 0.109122 0)
(0.949376 0.0295082 0)
(0.942728 -0.0171184 0)
(0.942389 7.99218e-05 0)
(0.943633 0.00850542 0)
(0.942628 0.00311435 0)
(0.94804 0.00245396 0)
(1.22159 -0.11413 0)
(1.20299 -0.181103 0)
(1.14757 -0.207583 0)
(1.0925 -0.268229 0)
(1.0085 -0.269106 0)
(0.926118 -0.249688 0)
(0.879155 -0.271206 0)
(0.825259 -0.24666 0)
(0.658967 -0.120428 0)
(0.527947 0.191017 0)
(0.536559 0.527683 0)
(0.796312 0.582342 0)
(1.11907 0.160009 0)
(1.22652 -0.11408 0)
(1.18428 -0.191438 0)
(1.13867 -0.321217 0)
(1.07919 -0.393184 0)
(0.893461 -0.467262 0)
(0.85846 -0.184889 0)
(0.734203 0.0743198 0)
(0.689891 0.315408 0)
(0.819077 0.508552 0)
(0.964182 0.139992 0)
(1.12657 -0.12483 0)
(1.05104 -0.301167 0)
(0.764576 -0.513279 0)
(0.79537 0.111825 0)
(0.904105 0.552427 0)
(1.03497 0.0942853 0)
(0.981902 -0.229055 0)
(0.905157 -0.0236344 0)
(0.914333 0.106967 0)
(0.930742 0.0273637 0)
(0.927356 -0.0166593 0)
(0.925045 -7.88417e-05 0)
(0.927183 0.00839231 0)
(0.924978 0.0026875 0)
(0.931014 0.00193011 0)
(1.17589 -0.0857502 0)
(1.16665 -0.139452 0)
(1.12792 -0.15264 0)
(1.08895 -0.177797 0)
(1.01517 -0.18801 0)
(0.971082 -0.158358 0)
(0.916557 -0.161971 0)
(0.821943 -0.164222 0)
(0.722296 -0.0421442 0)
(0.652236 0.210648 0)
(0.718222 0.378301 0)
(1.00935 0.377732 0)
(1.24017 0.0770336 0)
(1.23644 -0.114099 0)
(1.17735 -0.153162 0)
(1.1404 -0.238376 0)
(1.06849 -0.307191 0)
(0.859474 -0.422685 0)
(0.766118 -0.163991 0)
(0.61181 0.103267 0)
(0.595506 0.281285 0)
(0.784945 0.426581 0)
(0.98845 0.0930846 0)
(1.12245 -0.113318 0)
(1.04269 -0.248011 0)
(0.710785 -0.472667 0)
(0.698111 0.0842912 0)
(0.834285 0.500332 0)
(1.03224 0.084409 0)
(0.968185 -0.206892 0)
(0.881881 -0.0186375 0)
(0.894689 0.100009 0)
(0.914773 0.0263981 0)
(0.912025 -0.0153374 0)
(0.906834 -0.000116376 0)
(0.909877 0.00833869 0)
(0.906649 0.002474 0)
(0.912663 0.00141097 0)
(1.13734 -0.0649875 0)
(1.13293 -0.105095 0)
(1.09592 -0.116203 0)
(1.06787 -0.147217 0)
(1.00737 -0.148995 0)
(0.967462 -0.136061 0)
(0.932894 -0.131953 0)
(0.875612 -0.103636 0)
(0.799844 -0.00402596 0)
(0.803692 0.178754 0)
(0.923556 0.253901 0)
(1.1088 0.226886 0)
(1.23344 0.0212206 0)
(1.20396 -0.069351 0)
(1.1548 -0.128487 0)
(1.08028 -0.250424 0)
(1.0029 -0.261849 0)
(0.832057 -0.310584 0)
(0.657159 -0.0662139 0)
(0.544666 0.14959 0)
(0.569122 0.237125 0)
(0.789676 0.323149 0)
(1.01916 0.00919646 0)
(1.09485 -0.131359 0)
(1.02891 -0.178001 0)
(0.683944 -0.37538 0)
(0.588723 0.0766865 0)
(0.79567 0.430503 0)
(1.04621 0.0504233 0)
(0.952721 -0.17767 0)
(0.847332 -0.00376731 0)
(0.8715 0.0939125 0)
(0.901699 0.0234032 0)
(0.898361 -0.0142241 0)
(0.889243 0.000198532 0)
(0.893381 0.00829801 0)
(0.890445 0.00224245 0)
(0.895997 0.000805338 0)
(1.10423 -0.0479597 0)
(1.10274 -0.0791468 0)
(1.07664 -0.0862952 0)
(1.05852 -0.10378 0)
(1.01037 -0.104097 0)
(0.989315 -0.0879574 0)
(0.951562 -0.0797206 0)
(0.922269 -0.0530006 0)
(0.875055 0.01495 0)
(0.898755 0.116132 0)
(1.00497 0.144534 0)
(1.10522 0.155149 0)
(1.18144 0.0117391 0)
(1.13677 -0.0665309 0)
(1.13625 -0.0874534 0)
(1.07451 -0.16395 0)
(0.995084 -0.173615 0)
(0.874581 -0.224986 0)
(0.661208 -0.00313532 0)
(0.644065 0.155383 0)
(0.6846 0.160561 0)
(0.87083 0.205429 0)
(1.06198 -0.0352696 0)
(1.05986 -0.114775 0)
(1.04363 -0.112339 0)
(0.730572 -0.289094 0)
(0.526761 0.0543825 0)
(0.805626 0.334815 0)
(1.07066 0.0300109 0)
(0.942719 -0.137376 0)
(0.816428 0.00894708 0)
(0.862244 0.0825436 0)
(0.904429 0.0194567 0)
(0.895777 -0.0117301 0)
(0.881356 0.00107269 0)
(0.886057 0.00794836 0)
(0.884852 0.00197796 0)
(0.888291 0.000265142 0)
(1.08139 -0.0341763 0)
(1.08256 -0.0555059 0)
(1.06043 -0.0594488 0)
(1.05119 -0.0729876 0)
(1.0124 -0.0712719 0)
(1.00073 -0.0621282 0)
(0.97069 -0.0538367 0)
(0.957011 -0.0305069 0)
(0.933923 0.0120128 0)
(0.95872 0.0669816 0)
(1.01762 0.0849089 0)
(1.07101 0.0898496 0)
(1.1393 -0.00223515 0)
(1.08974 -0.0277415 0)
(1.09488 -0.0725072 0)
(1.0368 -0.160507 0)
(0.973462 -0.134147 0)
(0.913808 -0.129355 0)
(0.740447 0.0507261 0)
(0.815597 0.142768 0)
(0.866086 0.119142 0)
(0.982218 0.130111 0)
(1.10497 -0.0697879 0)
(1.01124 -0.11888 0)
(1.03226 -0.0576273 0)
(0.82932 -0.159937 0)
(0.559268 0.0486161 0)
(0.844512 0.2112 0)
(1.08372 0.000297969 0)
(0.939697 -0.0883403 0)
(0.815606 0.0242401 0)
(0.881496 0.0649581 0)
(0.927428 0.0136262 0)
(0.91135 -0.00770094 0)
(0.894186 0.00281093 0)
(0.89822 0.00730309 0)
(0.899328 0.00174074 0)
(0.898472 3.10542e-05 0)
(1.06414 -0.0229762 0)
(1.0655 -0.0366991 0)
(1.04979 -0.0405498 0)
(1.04472 -0.0485616 0)
(1.01645 -0.0471748 0)
(1.01138 -0.0416282 0)
(0.988751 -0.0318814 0)
(0.984314 -0.0178394 0)
(0.973415 0.00995011 0)
(0.987461 0.037292 0)
(1.02241 0.0440405 0)
(1.05145 0.0540059 0)
(1.09253 -0.00650296 0)
(1.05695 -0.0282212 0)
(1.08399 -0.0495401 0)
(1.03021 -0.0959305 0)
(0.961121 -0.0786668 0)
(0.938866 -0.0753967 0)
(0.837006 0.0538565 0)
(0.940767 0.100525 0)
(0.983207 0.0710009 0)
(1.04116 0.0728143 0)
(1.12717 -0.0505288 0)
(0.990635 -0.0781415 0)
(1.00192 -0.0327067 0)
(0.940479 -0.0738415 0)
(0.718323 0.0494261 0)
(0.914161 0.112094 0)
(1.08676 -0.00942584 0)
(0.958509 -0.0385491 0)
(0.864937 0.0310447 0)
(0.929916 0.0436589 0)
(0.967166 0.00932994 0)
(0.946648 -0.00196893 0)
(0.93151 0.00492037 0)
(0.932924 0.0065102 0)
(0.935403 0.00191725 0)
(0.92959 0.000523096 0)
(1.05147 -0.0145898 0)
(1.05277 -0.0226248 0)
(1.04319 -0.0256097 0)
(1.03923 -0.0309867 0)
(1.02155 -0.0290718 0)
(1.01756 -0.0272899 0)
(1.00302 -0.0187012 0)
(1.00181 -0.0121253 0)
(0.99564 0.00546495 0)
(1.00609 0.0171095 0)
(1.02258 0.0230183 0)
(1.03808 0.0254474 0)
(1.06733 -0.00902781 0)
(1.03909 -0.0152605 0)
(1.05358 -0.0410241 0)
(1.01816 -0.0700475 0)
(0.974375 -0.0547686 0)
(0.963277 -0.0430354 0)
(0.912076 0.0389389 0)
(0.99401 0.0580544 0)
(1.01878 0.0549885 0)
(1.04434 0.0444315 0)
(1.09283 -0.0448166 0)
(0.99171 -0.0522463 0)
(0.992008 -0.0308336 0)
(0.982805 -0.0225567 0)
(0.873832 0.0627558 0)
(0.983615 0.0503651 0)
(1.06585 -0.0197219 0)
(0.974034 0.000879713 0)
(0.932387 0.037952 0)
(0.981559 0.027739 0)
(1.00199 0.00687227 0)
(0.982707 0.00359041 0)
(0.974346 0.0072494 0)
(0.973863 0.0061838 0)
(0.976209 0.00260931 0)
(0.968494 0.0016642 0)
(1.04299 -0.0081758 0)
(1.04312 -0.012378 0)
(1.03873 -0.0152916 0)
(1.0347 -0.0185599 0)
(1.02492 -0.0173416 0)
(1.02119 -0.0176086 0)
(1.01294 -0.0107991 0)
(1.01237 -0.00911641 0)
(1.00906 0.00251753 0)
(1.01518 0.00605041 0)
(1.02254 0.00989605 0)
(1.03187 0.0106185 0)
(1.04458 -0.00905095 0)
(1.03012 -0.0136854 0)
(1.03955 -0.0291416 0)
(1.01458 -0.040001 0)
(0.988137 -0.0310357 0)
(0.978685 -0.0233773 0)
(0.958033 0.0254535 0)
(1.00365 0.0332559 0)
(1.01731 0.0358589 0)
(1.04271 0.0263357 0)
(1.06242 -0.0256457 0)
(0.999686 -0.021817 0)
(0.99492 -0.0215242 0)
(0.985134 -0.00873856 0)
(0.960248 0.0488131 0)
(1.02329 0.0232797 0)
(1.03553 -0.00747738 0)
(0.983115 0.0211706 0)
(0.987025 0.0312607 0)
(1.01702 0.0165123 0)
(1.02162 0.00804666 0)
(1.00773 0.00767 0)
(1.00635 0.00809424 0)
(1.00547 0.00594607 0)
(1.00661 0.00345929 0)
(1.00005 0.00289487 0)
(1.03667 -0.00341974 0)
(1.03616 -0.00556482 0)
(1.03504 -0.00812782 0)
(1.03107 -0.0102967 0)
(1.02675 -0.00964893 0)
(1.02277 -0.0108392 0)
(1.01901 -0.00616902 0)
(1.01778 -0.00692522 0)
(1.01616 0.000523434 0)
(1.0195 3.43532e-05 0)
(1.022 0.00338185 0)
(1.02709 0.00181636 0)
(1.0326 -0.00792114 0)
(1.02544 -0.0095146 0)
(1.02712 -0.0203615 0)
(1.01231 -0.025256 0)
(0.998316 -0.0201965 0)
(0.990726 -0.0136459 0)
(0.983236 0.0142953 0)
(1.00785 0.0176857 0)
(1.01416 0.0246356 0)
(1.03289 0.0162116 0)
(1.0381 -0.0176574 0)
(1.00594 -0.0113417 0)
(1.00551 -0.0166586 0)
(0.990406 -0.000734663 0)
(0.993304 0.03836 0)
(1.02651 0.0110415 0)
(1.01606 -0.00149389 0)
(0.997958 0.0250149 0)
(1.01544 0.0246019 0)
(1.02749 0.0128246 0)
(1.02676 0.00976925 0)
(1.02056 0.00905627 0)
(1.02231 0.00793957 0)
(1.02152 0.00600555 0)
(1.02167 0.00421829 0)
(1.01747 0.00377799 0)
(1.03173 -0.000100763 0)
(1.0311 -0.00115112 0)
(1.03167 -0.00341848 0)
(1.02823 -0.00474843 0)
(1.02688 -0.0048746 0)
(1.023 -0.0061085 0)
(1.02196 -0.00350316 0)
(1.01994 -0.00492096 0)
(1.01977 -0.000569038 0)
(1.02057 -0.00220832 0)
(1.02137 4.25315e-05 0)
(1.02404 -0.0018911 0)
(1.02483 -0.00609594 0)
(1.02197 -0.00818603 0)
(1.02058 -0.0132399 0)
(1.01308 -0.0148006 0)
(1.00504 -0.0117864 0)
(0.999882 -0.00683529 0)
(0.997156 0.00803999 0)
(1.0094 0.010376 0)
(1.01245 0.0143775 0)
(1.02649 0.0101486 0)
(1.02624 -0.00831955 0)
(1.00986 -0.00303968 0)
(1.00956 -0.00762842 0)
(0.994628 0.00207494 0)
(1.00623 0.0253017 0)
(1.02447 0.0083091 0)
(1.00959 0.00637299 0)
(1.00702 0.0229987 0)
(1.0225 0.0186617 0)
(1.02685 0.0118343 0)
(1.02697 0.0109588 0)
(1.02522 0.00935526 0)
(1.02692 0.00762783 0)
(1.02659 0.00622666 0)
(1.02642 0.00488808 0)
(1.02413 0.00443432 0)
(1.02771 0.00208321 0)
(1.02735 0.00143735 0)
(1.0284 -0.000361109 0)
(1.02576 -0.0013138 0)
(1.02575 -0.0018453 0)
(1.02242 -0.00288991 0)
(1.02273 -0.00176056 0)
(1.02037 -0.00308138 0)
(1.02092 -0.000864482 0)
(1.02028 -0.00254034 0)
(1.02063 -0.00108328 0)
(1.02138 -0.00295601 0)
(1.02081 -0.00451899 0)
(1.01991 -0.00592993 0)
(1.01712 -0.00812199 0)
(1.01396 -0.00856471 0)
(1.00853 -0.00696361 0)
(1.00607 -0.00361744 0)
(1.00449 0.00407515 0)
(1.01117 0.00574281 0)
(1.01238 0.00860988 0)
(1.02021 0.00637504 0)
(1.01943 -0.00398558 0)
(1.01106 -0.000693507 0)
(1.01195 -0.00339042 0)
(1.00193 0.00379632 0)
(1.01056 0.0178008 0)
(1.01955 0.00707215 0)
(1.00959 0.00721984 0)
(1.01301 0.0180393 0)
(1.02269 0.015214 0)
(1.02425 0.0113446 0)
(1.02605 0.0103474 0)
(1.02636 0.00859321 0)
(1.02737 0.00700789 0)
(1.02734 0.00606168 0)
(1.02721 0.0050202 0)
(1.02602 0.00459284 0)
(1.02434 0.00340865 0)
(1.02429 0.00285571 0)
(1.02529 0.00152964 0)
(1.02355 0.000756181 0)
(1.02388 0.000118022 0)
(1.02139 -0.000754642 0)
(1.02199 -0.000460329 0)
(1.01993 -0.00154 0)
(1.02063 -0.000592705 0)
(1.01944 -0.0018837 0)
(1.01963 -0.00118926 0)
(1.0195 -0.00252596 0)
(1.0186 -0.00304661 0)
(1.01821 -0.00398737 0)
(1.01561 -0.00491814 0)
(1.01444 -0.00474918 0)
(1.01085 -0.00391584 0)
(1.01005 -0.00161708 0)
(1.00851 0.00230314 0)
(1.0122 0.00349332 0)
(1.01249 0.0050784 0)
(1.01681 0.00425313 0)
(1.01655 -0.000507434 0)
(1.012 0.00156042 0)
(1.01274 0.000548598 0)
(1.00646 0.00478551 0)
(1.01242 0.0120941 0)
(1.01778 0.00753172 0)
(1.0117 0.00872354 0)
(1.01516 0.0148342 0)
(1.02103 0.0129637 0)
(1.02264 0.0109322 0)
(1.02503 0.0100836 0)
(1.02591 0.00845767 0)
(1.02659 0.00690826 0)
(1.02684 0.00618136 0)
(1.02681 0.00538826 0)
(1.02626 0.00492794 0)
(1.02143 0.00410116 0)
(1.02165 0.00352866 0)
(1.02241 0.00265932 0)
(1.02141 0.00191154 0)
(1.02169 0.0013905 0)
(1.02005 0.000590273 0)
(1.0205 0.000556125 0)
(1.01902 -0.000314871 0)
(1.01953 -3.46775e-05 0)
(1.0184 -0.000930213 0)
(1.01848 -0.000775967 0)
(1.01799 -0.00149837 0)
(1.01727 -0.00195086 0)
(1.01692 -0.00217479 0)
(1.01502 -0.00286555 0)
(1.0146 -0.00224818 0)
(1.01219 -0.00200324 0)
(1.01213 -0.000547538 0)
(1.01071 0.00150799 0)
(1.01288 0.00214082 0)
(1.01273 0.00343469 0)
(1.01474 0.00293946 0)
(1.01479 0.00107005 0)
(1.01241 0.00219535 0)
(1.01323 0.00193461 0)
(1.01005 0.0050244 0)
(1.01328 0.00890185 0)
(1.0161 0.00722071 0)
(1.01326 0.0078533 0)
(1.01642 0.0114103 0)
(1.01984 0.0110064 0)
(1.02142 0.00983261 0)
(1.0237 0.00901877 0)
(1.02501 0.00774574 0)
(1.02564 0.0063284 0)
(1.02608 0.00578417 0)
(1.0261 0.00521126 0)
(1.02602 0.0048188 0)
(1.01898 0.00435339 0)
(1.0193 0.00374824 0)
(1.01983 0.00326169 0)
(1.01935 0.00250838 0)
(1.01951 0.00219561 0)
(1.01854 0.00142753 0)
(1.01878 0.00133539 0)
(1.01785 0.000613795 0)
(1.01812 0.00058627 0)
(1.01729 3.12744e-05 0)
(1.01726 -0.000185339 0)
(1.01678 -0.000386119 0)
(1.01626 -0.00102124 0)
(1.01593 -0.000693191 0)
(1.01469 -0.00149748 0)
(1.01447 -0.000623069 0)
(1.01295 -0.000825308 0)
(1.01311 0.000219949 0)