/*--------------------------------*- C++ -*----------------------------------*\
| =========                 |                                                 |
| \\      /  F ield         | OpenFOAM: The Open Source CFD Toolbox           |
|  \\    /   O peration     | Version:  2312                                  |
|   \\  /    A nd           | Website:  www.openfoam.com                      |
|    \\/     M anipulation  |                                                 |
\*---------------------------------------------------------------------------*/
FoamFile
{
    version     2.0;
    format      ascii;
    arch        "LSB;label=32;scalar=64";
    class       volScalarField;
    location    "48.5";
    object      p;
}
// * * * * * * * * * * * * * * * * * * * * * * * * * * * * * * * * * * * * * //

dimensions      [0 2 -2 0 0 0 0];

internalField   nonuniform List<scalar> 
5478
(
-0.381742
-0.379866
-0.374568
-0.367784
-0.361694
-0.357462
-0.355625
-0.355758
-0.356711
-0.356756
-0.354576
-0.347397
-0.336265
-0.317822
-0.295069
-0.388174
-0.385825
-0.38064
-0.37436
-0.367909
-0.361862
-0.356238
-0.35067
-0.34441
-0.336581
-0.326257
-0.31343
-0.29825
-0.280342
-0.262264
-0.399378
-0.395568
-0.390037
-0.383158
-0.37501
-0.365318
-0.354327
-0.342375
-0.329575
-0.315874
-0.301467
-0.286216
-0.270061
-0.252673
-0.23449
-0.414866
-0.40891
-0.401765
-0.392986
-0.381096
-0.366095
-0.349277
-0.331851
-0.314473
-0.297447
-0.28056
-0.263664
-0.246644
-0.229308
-0.212854
-0.435112
-0.426031
-0.41642
-0.403594
-0.385642
-0.36435
-0.342177
-0.320534
-0.299962
-0.280429
-0.261817
-0.243962
-0.226546
-0.209744
-0.193305
-0.460854
-0.446997
-0.433875
-0.414038
-0.38804
-0.360201
-0.333253
-0.308177
-0.285091
-0.263846
-0.244129
-0.225594
-0.208052
-0.191374
-0.175254
-0.491487
-0.471501
-0.451364
-0.42154
-0.38672
-0.352665
-0.321538
-0.293618
-0.268604
-0.246042
-0.225522
-0.20672
-0.189332
-0.173204
-0.157604
-0.521322
-0.4966
-0.464579
-0.422813
-0.379601
-0.340141
-0.305506
-0.275307
-0.248839
-0.225483
-0.204677
-0.185976
-0.169141
-0.15383
-0.13946
-0.38342
-0.384257
-0.384661
-0.386213
-0.389202
-0.393717
-0.399941
-0.408126
-0.418511
-0.431222
-0.446177
-0.462874
-0.480209
-0.496687
-0.508707
-0.387227
-0.386876
-0.386825
-0.388274
-0.391549
-0.396918
-0.404803
-0.415774
-0.430393
-0.449053
-0.471812
-0.498337
-0.526445
-0.555346
-0.578153
-0.38979
-0.388182
-0.387581
-0.388513
-0.391492
-0.396906
-0.40528
-0.417316
-0.433741
-0.455022
-0.481203
-0.512212
-0.544225
-0.579014
-0.605125
-0.390233
-0.387579
-0.386073
-0.385866
-0.387663
-0.39202
-0.399489
-0.410739
-0.426408
-0.447122
-0.472058
-0.503041
-0.532861
-0.566599
-0.591073
-0.388518
-0.385262
-0.382583
-0.380582
-0.380293
-0.38253
-0.387894
-0.397
-0.410214
-0.428495
-0.450215
-0.478138
-0.504537
-0.531911
-0.54851
-0.385366
-0.382094
-0.378229
-0.374096
-0.371203
-0.370756
-0.373569
-0.380333
-0.391395
-0.407453
-0.426877
-0.450068
-0.470467
-0.488043
-0.492764
-0.382024
-0.379243
-0.374417
-0.368423
-0.363223
-0.360515
-0.361492
-0.366844
-0.376626
-0.389653
-0.404577
-0.419436
-0.429911
-0.435506
-0.427488
-0.38014
-0.37804
-0.372586
-0.36568
-0.359374
-0.3557
-0.355705
-0.359429
-0.366149
-0.373784
-0.381141
-0.384564
-0.382639
-0.374601
-0.358159
-0.516242
-0.513209
-0.486588
-0.440758
-0.379693
-0.3173
-0.268977
-0.248939
-0.271244
-0.335537
-0.387046
-0.375432
-0.301883
-0.222349
-0.177723
-0.171025
-0.188508
-0.249933
-0.320258
-0.331394
-0.272146
-0.203684
-0.156593
-0.12951
-0.124217
-0.124231
-0.110898
-0.090251
-0.0716415
-0.0584729
-0.0491626
-0.044665
-0.0423539
-0.0382501
-0.0304761
-0.0207488
-0.0117555
-0.00329898
-0.59861
-0.592724
-0.561051
-0.500935
-0.42171
-0.340684
-0.275243
-0.237408
-0.238636
-0.281181
-0.330951
-0.333437
-0.276574
-0.209669
-0.179338
-0.182655
-0.211466
-0.280615
-0.355165
-0.367249
-0.299855
-0.216505
-0.155838
-0.118799
-0.104976
-0.101002
-0.0918044
-0.0781052
-0.0660767
-0.0571721
-0.0505803
-0.0475938
-0.0455459
-0.0405203
-0.0317812
-0.0214124
-0.01209
-0.00345203
-0.626084
-0.62599
-0.592622
-0.524551
-0.433915
-0.339045
-0.259874
-0.2092
-0.191616
-0.213942
-0.257192
-0.278353
-0.239102
-0.187379
-0.172749
-0.18544
-0.221761
-0.29573
-0.374186
-0.391237
-0.320231
-0.226163
-0.153899
-0.108733
-0.0871528
-0.0781536
-0.0725601
-0.0659651
-0.0605543
-0.055918
-0.0520969
-0.0505543
-0.04862
-0.0425973
-0.0329078
-0.0219742
-0.0123789
-0.00359441
-0.604804
-0.607798
-0.580211
-0.513456
-0.42192
-0.325938
-0.242237
-0.180704
-0.148763
-0.147747
-0.176211
-0.202286
-0.183773
-0.152826
-0.155292
-0.177514
-0.220675
-0.297718
-0.38093
-0.403006
-0.333093
-0.23244
-0.151338
-0.100214
-0.071785
-0.0573447
-0.0537252
-0.0541011
-0.0551475
-0.0546426
-0.053608
-0.0534686
-0.0515082
-0.0444137
-0.033835
-0.0224246
-0.0126163
-0.00372143
-0.547461
-0.551583
-0.532479
-0.474119
-0.392126
-0.305171
-0.22856
-0.165817
-0.120896
-0.100854
-0.109339
-0.122328
-0.118077
-0.1087
-0.1293
-0.16238
-0.208065
-0.286023
-0.376487
-0.412006
-0.341523
-0.236167
-0.148388
-0.0932214
-0.0596689
-0.0402678
-0.0365352
-0.0429489
-0.0497427
-0.0532726
-0.0551352
-0.0563024
-0.0541546
-0.0459549
-0.0345531
-0.0227597
-0.0128015
-0.00383087
-0.476353
-0.476741
-0.463588
-0.417363
-0.352276
-0.280129
-0.214704
-0.158664
-0.111002
-0.0772912
-0.0644287
-0.0637155
-0.0611437
-0.0694627
-0.101888
-0.14199
-0.188101
-0.262873
-0.354076
-0.392576
-0.335194
-0.234734
-0.144887
-0.0874403
-0.050929
-0.0276543
-0.0225336
-0.0329573
-0.0445983
-0.0518931
-0.0565262
-0.0589093
-0.0564533
-0.0471548
-0.0350495
-0.02298
-0.0129415
-0.00392512
-0.401682
-0.400965
-0.393212
-0.360434
-0.313699
-0.257669
-0.201198
-0.150569
-0.10462
-0.0658582
-0.0362294
-0.0268123
-0.0230178
-0.0403364
-0.0795768
-0.120648
-0.160056
-0.231042
-0.328352
-0.376205
-0.331529
-0.234768
-0.143923
-0.0843653
-0.0462134
-0.0200463
-0.0126167
-0.0238782
-0.0391551
-0.0501557
-0.0578543
-0.0613763
-0.0584153
-0.0480584
-0.0353591
-0.0231087
-0.0130464
-0.00400698
-0.340353
-0.34079
-0.333231
-0.311737
-0.282435
-0.244766
-0.200943
-0.156796
-0.112907
-0.0724859
-0.0386047
-0.0157658
-0.0032376
-0.0199567
-0.0616528
-0.102252
-0.134068
-0.193906
-0.280489
-0.329538
-0.308389
-0.227651
-0.142547
-0.0822089
-0.0424525
-0.0149185
-0.00618347
-0.0172082
-0.0342458
-0.0483403
-0.0588362
-0.0634017
-0.059768
-0.0485915
-0.0354328
-0.023089
-0.0130594
-0.00405284
-0.303263
-0.314949
-0.301479
-0.27644
-0.246787
-0.212889
-0.174869
-0.135219
-0.0936294
-0.0554297
-0.0245339
0.00380763
0.0203387
0.0156596
-0.0239469
-0.0605896
-0.0892121
-0.151779
-0.247343
-0.31001
-0.287018
-0.204788
-0.125256
-0.0700042
-0.0335
-0.00829594
-0.000192354
-0.00978367
-0.0282695
-0.0457284
-0.0594503
-0.0656209
-0.0612617
-0.0485264
-0.0349723
-0.0227399
-0.0128947
-0.00403525
-0.251848
-0.266196
-0.256188
-0.232307
-0.205025
-0.175914
-0.144161
-0.111105
-0.0753613
-0.0415957
-0.0136731
0.0147253
0.0347119
0.0277991
0.00359186
-0.0192752
-0.0440561
-0.114377
-0.218771
-0.283962
-0.254408
-0.177558
-0.106854
-0.0579538
-0.0251576
-0.0028331
0.00367591
-0.00719752
-0.0243136
-0.043927
-0.0602016
-0.0673361
-0.0611558
-0.0478146
-0.034174
-0.022232
-0.0126504
-0.00399665
-0.210715
-0.225819
-0.219548
-0.199593
-0.175825
-0.151099
-0.123874
-0.0957427
-0.0643927
-0.0320223
-0.006015
0.0204397
0.0445385
0.0466369
0.0332958
0.0234831
-0.00229913
-0.0852839
-0.188937
-0.246653
-0.216202
-0.149549
-0.088763
-0.0463501
-0.0170786
0.0026052
0.00763403
-0.00398643
-0.0209764
-0.0427168
-0.0609097
-0.0684035
-0.0610255
-0.0466563
-0.033106
-0.021587
-0.0123391
-0.00394647
-0.177157
-0.189284
-0.184992
-0.168602
-0.147742
-0.125742
-0.101959
-0.0774737
-0.0511255
-0.0229099
0.000773799
0.0242275
0.0473613
0.0526415
0.0494978
0.0533612
0.0280773
-0.057946
-0.153943
-0.197975
-0.171107
-0.117844
-0.069157
-0.0341692
-0.00858002
0.00863592
0.0114622
-0.00152456
-0.0179626
-0.0412169
-0.0612333
-0.0687008
-0.0598835
-0.0448733
-0.0316844
-0.0207588
-0.0119352
-0.00387052
-0.145407
-0.155735
-0.153304
-0.140414
-0.122953
-0.104467
-0.0847252
-0.064302
-0.0424803
-0.0179947
0.00385866
0.0246605
0.0461921
0.0539049
0.054304
0.0619084
0.0414563
-0.0315948
-0.110999
-0.142674
-0.124998
-0.0884618
-0.0515888
-0.0230421
-0.000246939
0.0166281
0.0181825
0.00385517
-0.013971
-0.0385899
-0.0608948
-0.0675877
-0.0574224
-0.0424169
-0.0299251
-0.0197592
-0.0114459
-0.00377094
-0.116885
-0.126538
-0.125634
-0.115614
-0.101318
-0.0859265
-0.0696188
-0.0523593
-0.0339659
-0.0134191
0.00595766
0.0238742
0.0424569
0.0518009
0.0537088
0.0582443
0.0442393
-0.0068408
-0.0650549
-0.0927213
-0.0848303
-0.0608134
-0.033775
-0.0114304
0.00789823
0.0249995
0.0288219
0.0168471
-0.00552546
-0.0340843
-0.0595199
-0.0644975
-0.0534805
-0.0392886
-0.0278389
-0.0185861
-0.0108671
-0.00364113
-0.0935824
-0.101769
-0.101222
-0.0934135
-0.0820487
-0.0695155
-0.0562099
-0.0419784
-0.0269529
-0.0103407
0.00590325
0.0211984
0.0365036
0.0463804
0.0492591
0.0511311
0.0431768
0.0110306
-0.029771
-0.0527722
-0.0519249
-0.0382733
-0.0200221
-0.00178007
0.0156388
0.033572
0.0432736
0.0357705
0.00688218
-0.0282499
-0.0557953
-0.0584236
-0.0480369
-0.0355709
-0.025483
-0.0172629
-0.0102095
-0.00348358
-0.0730859
-0.0796552
-0.0797463
-0.0740384
-0.0652111
-0.0551392
-0.0444468
-0.0330329
-0.0209239
-0.00769053
0.00580372
0.0183781
0.0304743
0.0394245
0.0429061
0.0436913
0.0386386
0.0189565
-0.00782691
-0.0264943
-0.0288587
-0.0204107
-0.0072844
0.00741071
0.0226875
0.0397094
0.0532551
0.0477415
0.0170351
-0.021121
-0.0476365
-0.0495192
-0.0414004
-0.0314333
-0.0229331
-0.015814
-0.00947943
-0.00329801
-0.0545846
-0.0604645
-0.0613554
-0.0573618
-0.0504583
-0.0424551
-0.0340319
-0.0250975
-0.0155627
-0.00527326
0.00541024
0.0155278
0.0249481
0.0324181
0.0359993
0.0364737
0.0330023
0.0213862
0.00456734
-0.00827668
-0.0113177
-0.006361
0.00251233
0.0138127
0.027281
0.0427281
0.0554341
0.050803
0.0231385
-0.0114001
-0.035059
-0.03905
-0.0343461
-0.0271481
-0.0202977
-0.0142798
-0.00868807
-0.0030822
-0.038845
-0.0441322
-0.0453503
-0.0425553
-0.0373892
-0.0312849
-0.0248289
-0.0179952
-0.0106915
-0.00286198
0.00531797
0.0131946
0.0203998
0.0262795
0.0295935
0.0302491
0.0280169
0.0212869
0.0112713
0.00236824
9.98052e-05
0.00329923
0.00991469
0.0187699
0.0298596
0.0425269
0.0520063
0.0482402
0.0262135
-0.00220799
-0.0228576
-0.0291919
-0.0276095
-0.0229204
-0.0176348
-0.0126814
-0.00784906
-0.00284767
-0.025551
-0.02997
-0.0312995
-0.0295389
-0.0258629
-0.0213646
-0.0165501
-0.0114706
-0.00604322
-0.000243384
0.00580835
0.0117119
0.0171067
0.0215788
0.0244395
0.0253444
0.0241816
0.0205244
0.0149466
0.00986693
0.0082408
0.0103677
0.0151545
0.0217439
0.030191
0.0397124
0.0460942
0.0429572
0.0263474
0.00421576
-0.0131771
-0.0207123
-0.02147
-0.0188182
-0.0149749
-0.0110447
-0.00697713
-0.0025932
-0.0137999
-0.0176027
-0.0191179
-0.0182224
-0.0157311
-0.012516
-0.00904655
-0.00541695
-0.0015519
0.00258257
0.00691133
0.0111847
0.0151221
0.0184544
0.0207941
0.0218532
0.0214987
0.0196543
0.0167855
0.014217
0.0132761
0.014767
0.0182044
0.022987
0.0290519
0.0355917
0.0394637
0.036648
0.0243831
0.00771209
-0.0063719
-0.0139611
-0.01608
-0.0150238
-0.0124428
-0.00943324
-0.00609455
-0.00233407
-0.00341852
-0.00681738
-0.00846706
-0.00821411
-0.00666112
-0.00450588
-0.00214301
0.000334043
0.00297035
0.00579294
0.00875823
0.0117121
0.0144661
0.0168489
0.0186419
0.0196791
0.019882
0.0192294
0.0179906
0.0168341
0.0166031
0.0176458
0.0200907
0.023485
0.0274656
0.0314366
0.0334056
0.0308147
0.0219459
0.00971129
-0.00143695
-0.00841481
-0.0113517
-0.0114251
-0.00987427
-0.00774116
-0.0051565
-0.00204549
0.00525276
0.00228352
0.000634854
0.000444167
0.00128158
0.00261417
0.00411546
0.0056819
0.00733531
0.00911021
0.0109922
0.012901
0.0147212
0.0163413
0.017644
0.018518
0.0188789
0.0187255
0.0182561
0.0178108
0.0177929
0.0187583
0.0204056
0.0226095
0.0250839
0.0273349
0.0280906
0.0257174
0.0192157
0.01023
0.00160177
-0.00433246
-0.00743743
-0.0083235
-0.00766026
-0.00628825
-0.00436239
-0.00182278
0.0132232
0.010615
0.00896752
0.00842471
0.00869509
0.00937647
0.0101979
0.0110572
0.0119624
0.0129445
0.0140105
0.0151183
0.0162043
0.0172057
0.0180641
0.0187218
0.0191301
0.0192847
0.0192531
0.0191697
0.0192944
0.0198638
0.0209553
0.0222289
0.0235402
0.0243449
0.0241366
0.0219214
0.0171447
0.0107039
0.00441224
-0.000819141
-0.00396741
-0.00532516
-0.00521431
-0.00449619
-0.00324712
-0.00145365
0.019601
0.0172678
0.0156366
0.0148424
0.0146831
0.0148554
0.0151401
0.0154448
0.0157669
0.0161319
0.0165568
0.0170247
0.017506
0.0179665
0.0183768
0.0187057
0.0189168
0.0189921
0.0189802
0.0189659
0.0190874
0.0194238
0.0199857
0.0206206
0.021179
0.0213576
0.0206866
0.0186585
0.015039
0.0103168
0.00534152
0.00136995
-0.00142594
-0.00335881
-0.00352302
-0.00332182
-0.0028345
-0.0013764
0.026306
0.0242584
0.0226819
0.0217105
0.0212229
0.0210011
0.0208743
0.0207591
0.0206463
0.0205567
0.0205097
0.020506
0.0205343
0.0205802
0.0206391
0.020689
0.0207152
0.0206892
0.0206182
0.0205254
0.020462
0.0204483
0.0205255
0.0205783
0.0204627
0.0199649
0.0188995
0.0169977
0.0140728
0.0104453
0.00684333
0.00365215
0.00134235
0.000432879
-0.000849347
-0.00147804
-0.0014402
-0.000878215
0.0303772
0.0284957
0.0269617
0.0258765
0.0251526
0.0246313
0.0241826
0.0237375
0.0232845
0.0228365
0.0224146
0.0220251
0.0216678
0.0213408
0.0210426
0.0207695
0.0205133
0.0202501
0.0199937
0.0197375
0.0195147
0.0193229
0.0191359
0.0188659
0.0184432
0.0177367
0.0165719
0.0148382
0.0126189
0.00999119
0.00700137
0.00452618
0.00256493
0.00134735
0.000134842
-0.000576903
-0.000720436
-0.00077865
0.0365463
0.0349698
0.0335145
0.0323099
0.0313474
0.0305439
0.029812
0.0290937
0.0283716
0.0276514
0.0269482
0.0262688
0.0256186
0.0249964
0.0244141
0.0238654
0.0233514
0.0228473
0.0223522
0.0218466
0.0213517
0.0208237
0.0202727
0.0196281
0.0188463
0.0178146
0.0164939
0.0147785
0.0125896
0.0102195
0.00809539
0.00617544
0.00451038
0.00338899
0.0023802
0.00139189
0.000350961
-0.000268108
0.0382196
0.0366593
0.0352789
0.0341186
0.033129
0.0322282
0.0313509
0.0304604
0.0295522
0.0286352
0.0277261
0.0268327
0.0259619
0.0251145
0.0243021
0.0235239
0.0227928
0.0220855
0.0214114
0.0207448
0.0200993
0.0194507
0.0187775
0.018018
0.0171488
0.0160838
0.0147856
0.0132401
0.0115502
0.00971587
0.00765474
0.00603735
0.00455956
0.00364475
0.00251724
0.00177074
0.00114747
-4.06072e-05
0.0436196
0.0423613
0.0410561
0.039788
0.0385884
0.0374494
0.0363479
0.035259
0.0341709
0.0330803
0.0319943
0.0309156
0.0298516
0.0287984
0.0277719
0.0267668
0.025805
0.0248623
0.0239506
0.0230404
0.0221512
0.0212504
0.020341
0.0193357
0.0182679
0.0170339
0.015666
0.0140668
0.0123139
0.0105025
0.00876741
0.00740486
0.00607657
0.00526874
0.0043309
0.00307345
0.0022146
0.000514803
0.0436086
0.0423507
0.0411407
0.0399767
0.0388423
0.0377147
0.036584
0.0354384
0.0342835
0.0331169
0.0319485
0.030784
0.0296267
0.0284858
0.027361
0.0262484
0.0251743
0.0240996
0.0230849
0.0220649
0.0210669
0.0200908
0.0190806
0.0180576
0.0170159
0.0157824
0.0145582
0.0131331
0.0114826
0.0100067
0.00826915
0.0069144
0.00545547
0.00475573
0.00381758
0.00250755
0.0027074
0.00114515
0.0464225
0.0452709
0.0440696
0.0428405
0.0416016
0.0403584
0.0391168
0.0378732
0.0366317
0.0353869
0.0341441
0.0328982
0.031658
0.0304189
0.0291977
0.027983
0.0268001
0.0256241
0.0244866
0.0233561
0.022258
0.0211555
0.0200752
0.0189465
0.017822
0.0165376
0.0152421
0.01378
0.0122431
0.0106672
0.00889502
0.00754486
0.00619098
0.00540508
0.00443851
0.00369398
0.00348705
0.00128685
-0.125654
-0.141557
-0.158442
-0.175231
-0.195594
-0.21484
-0.240725
-0.268004
-0.111678
-0.12474
-0.139019
-0.153012
-0.169935
-0.185334
-0.202148
-0.221959
-0.0973067
-0.107481
-0.118423
-0.12957
-0.141791
-0.153591
-0.16567
-0.182705
-0.0835645
-0.0914149
-0.0996727
-0.108606
-0.118113
-0.128071
-0.13969
-0.155324
-0.0703146
-0.0764562
-0.0828713
-0.0904059
-0.0986683
-0.107847
-0.118153
-0.129191
-0.0579956
-0.0628567
-0.0679336
-0.0742532
-0.0811148
-0.0882073
-0.0950005
-0.103023
-0.0463981
-0.050125
-0.0540171
-0.0588223
-0.0638413
-0.0687912
-0.0740285
-0.0817136
-0.0354423
-0.0381443
-0.0409463
-0.0444344
-0.0482525
-0.0524826
-0.0576821
-0.0642242
-0.0251111
-0.0270332
-0.0290885
-0.0318846
-0.0352601
-0.0391253
-0.0430766
-0.0475879
-0.0154604
-0.0169004
-0.01854
-0.0208633
-0.0235336
-0.0262695
-0.0289642
-0.0327429
-0.00650973
-0.0076112
-0.00884267
-0.0105345
-0.0124529
-0.0145934
-0.0170827
-0.0205594
0.00185678
0.00102131
0.000111387
-0.00121479
-0.00287895
-0.00487523
-0.00706854
-0.00982776
0.00965584
0.00893041
0.00813413
0.00697643
0.00555041
0.0039363
0.00222439
-4.08496e-05
0.0167887
0.0160917
0.0153462
0.014353
0.0131625
0.0117763
0.0102139
0.00815359
0.0235387
0.0228126
0.0221053
0.02123
0.0201665
0.0189042
0.0174879
0.0156915
0.0293298
0.028615
0.0278608
0.0269447
0.0258874
0.0246914
0.023379
0.0217625
0.0355246
0.034598
0.0337128
0.0328
0.0318319
0.0307588
0.0295804
0.0281566
0.0397904
0.0389425
0.0380537
0.0370625
0.0359778
0.0348017
0.0335482
0.0321195
0.0454159
0.0442581
0.0431358
0.0420544
0.0410183
0.0399993
0.0389877
0.0378874
0.0481502
0.0471165
0.0460462
0.0449169
0.043734
0.0424835
0.0411692
0.0397563
0.052713
0.0514067
0.0501305
0.0489104
0.0477703
0.0467017
0.0457002
0.0447065
0.0539322
0.0526718
0.0514085
0.0501279
0.0488346
0.0475253
0.046213
0.0449004
0.0560277
0.0546837
0.053387
0.0521357
0.0509315
0.0497666
0.0486385
0.0475293
0.0444505
0.0469321
0.0482205
0.0477257
0.0451529
0.0405614
0.033802
0.0242304
0.0107491
-0.00815421
-0.0345244
-0.0711304
-0.122447
-0.191917
-0.251706
0.0211908
0.0209707
0.0179605
0.0131526
0.00672651
-0.00168151
-0.0126891
-0.0271615
-0.0462659
-0.0715726
-0.105245
-0.15005
-0.209919
-0.289738
-0.350278
-0.00135883
-0.00498797
-0.0120881
-0.0206113
-0.0303906
-0.0422225
-0.0570136
-0.0757282
-0.0995743
-0.130184
-0.16981
-0.221345
-0.287733
-0.372632
-0.430734
-0.0252752
-0.0321263
-0.042031
-0.0530612
-0.0654386
-0.0801955
-0.0982425
-0.120473
-0.148034
-0.182704
-0.226733
-0.282996
-0.353597
-0.437502
-0.491278
-0.050326
-0.0597375
-0.0712692
-0.0838414
-0.098168
-0.115252
-0.135823
-0.160722
-0.190869
-0.228268
-0.275048
-0.333759
-0.404871
-0.483994
-0.531292
-0.0748487
-0.0863038
-0.0988536
-0.112582
-0.128445
-0.147251
-0.169535
-0.196094
-0.228002
-0.266751
-0.314333
-0.372593
-0.441028
-0.512019
-0.551808
-0.0984206
-0.110747
-0.124109
-0.139028
-0.156199
-0.17615
-0.199416
-0.226755
-0.259139
-0.29778
-0.34425
-0.399632
-0.462201
-0.521975
-0.555145
-0.119982
-0.13306
-0.147327
-0.163306
-0.181429
-0.202063
-0.225677
-0.252937
-0.28468
-0.321886
-0.365605
-0.415948
-0.46947
-0.515692
-0.544095
0.192543
0.206985
0.223202
0.241342
0.261392
0.283295
0.307017
0.332528
0.35973
0.388339
0.41775
0.446804
0.47352
0.494103
0.510937
0.187489
0.200493
0.215427
0.23247
0.251399
0.271979
0.294108
0.317753
0.342795
0.368886
0.39532
0.420814
0.443213
0.458821
0.470851
0.178382
0.189195
0.202322
0.217802
0.235066
0.253628
0.273287
0.293973
0.315529
0.337525
0.359118
0.378852
0.394282
0.401831
0.40648
0.165206
0.173365
0.184306
0.197733
0.2127
0.228537
0.244967
0.261853
0.278929
0.295608
0.31085
0.322971
0.329167
0.325771
0.320988
0.14815
0.153534
0.162294
0.17349
0.185656
0.198011
0.210329
0.222489
0.234126
0.24446
0.252197
0.255378
0.250826
0.234664
0.218068
0.127496
0.129759
0.136265
0.145193
0.154428
0.163053
0.170872
0.177763
0.183268
0.186435
0.18575
0.178979
0.162564
0.13249
0.102784
0.104071
0.103689
0.107985
0.114006
0.119594
0.124009
0.127096
0.128585
0.127782
0.123523
0.11408
0.0969774
0.0683241
0.0241787
-0.0182991
0.0763038
0.0752826
0.0787221
0.0818178
0.0832573
0.0829652
0.0809775
0.0768463
0.0696156
0.057897
0.0397651
0.012513
-0.0280741
-0.0856319
-0.138871
0.0485993
0.0505674
0.0497972
0.0510717
0.051114
0.0530519
0.0540218
0.0565089
0.0585515
0.0618291
0.0651999
0.0696211
0.074524
0.0804676
0.0870943
0.0948247
0.103373
0.113102
0.123771
0.135695
0.148604
0.162735
0.177798
0.0508551
0.052921
0.0519314
0.0532209
0.0530692
0.0550052
0.055786
0.058216
0.0600916
0.0632705
0.0664757
0.0707715
0.0755127
0.0812846
0.0877204
0.0952099
0.103427
0.112793
0.122955
0.134354
0.14657
0.160007
0.1741
0.0531139
0.0552347
0.0540684
0.0553222
0.0550099
0.056906
0.0575169
0.0598766
0.0615745
0.0646638
0.0676759
0.0718521
0.0764096
0.0819929
0.0881866
0.0953748
0.103099
0.111932
0.121319
0.131891
0.142963
0.155143
0.167406
0.0553755
0.0575048
0.0562074
0.0573706
0.0569286
0.0587444
0.0592089
0.0614735
0.0630033
0.065984
0.0687944
0.0728233
0.0771867
0.0825672
0.0884295
0.0952486
0.102306
0.110454
0.118775
0.128173
0.137542
0.14783
0.157424
0.0576367
0.0597325
0.0583392
0.0593629
0.0588198
0.0605098
0.0608527
0.0629924
0.0643609
0.0672108
0.0698252
0.0736727
0.0778385
0.0829405
0.0883319
0.0945987
0.100827
0.108051
0.115057
0.122992
0.130228
0.138107
0.144144
0.0598924
0.0619222
0.0604502
0.0613036
0.0606808
0.0621963
0.0624301
0.0644197
0.065632
0.0683333
0.0707542
0.0744188
0.0784088
0.0832749
0.0881022
0.0938486
0.0991101
0.105359
0.110629
0.116703
0.121051
0.125968
0.12782
0.0621366
0.0640768
0.0625324
0.0631972
0.0625036
0.0638069
0.0639292
0.0657406
0.06682
0.0693495
0.0715756
0.0749989
0.0786864
0.0830718
0.0872376
0.0921328
0.0963729
0.10125
0.104897
0.108792
0.110303
0.111461
0.108497
0.0643633
0.0661996
0.0645765
0.0650327
0.0642591
0.0653259
0.0653411
0.0669374
0.0679029
0.0702863
0.0723882
0.0756852
0.0791284
0.083199
0.0866997
0.0909591
0.0939203
0.0974995
0.0985517
0.0998675
0.0971855
0.095057
0.0859754
0.0665158
0.0682661
0.0665836
0.0668318
0.0659773
0.0667796
0.0666988
0.0680402
0.0688958
0.0709886
0.0728753
0.0757868
0.0785768
0.0819386
0.0845779
0.0876242
0.0893881
0.0910354
0.0905877
0.089185
0.0841719
0.0761509
0.0612694
0.06871
0.0703981
0.0686488
0.0687172
0.0677472
0.0683044
0.0680998
0.0691701
0.0698374
0.0715543
0.0731078
0.0754338
0.0775392
0.0800324
0.0818396
0.0835796
0.084232
0.0840405
0.0821825
0.0782621
0.0717636
0.0619332
0.0498483
0.0711196
0.0727334
0.0709175
0.0707851
0.0696834
0.0699602
0.0696086
0.0703354
0.0707661
0.0720014
0.0731753
0.0747862
0.0762668
0.0777502
0.0787634
0.0791578
0.0787467
0.076939
0.0737875
0.0683859
0.0612395
0.0518439
0.0409179
0.0737788
0.0752786
0.0734169
0.0730339
0.0718111
0.0717399
0.0712415
0.0715431
0.0717235
0.0724143
0.073174
0.0740542
0.0748807
0.0753765
0.0755448
0.0747535
0.07326
0.0702387
0.0660367
0.0600326
0.0526373
0.0436511
0.0333616
0.0767236
0.078046
0.0761725
0.0754727
0.0741453
0.0736488
0.0729986
0.0728271
0.0727125
0.0728522
0.0731196
0.0732962
0.0734126
0.0730019
0.0722756
0.0705015
0.0680033
0.064157
0.0592364
0.0529878
0.0455521
0.0369452
0.0272537
0.0799938
0.0810547
0.0792111
0.0781269
0.0766927
0.0757262
0.0748741
0.0742295
0.0737366
0.0733366
0.0730433
0.0725359
0.0719145
0.0706846
0.0690818
0.0665073
0.0631815
0.0587919
0.0534521
0.0471274
0.0398465
0.0316746
0.0225931
0.0836354
0.0843319
0.0825567
0.081045
0.079456
0.0780236
0.0768749
0.0757695
0.0748212
0.0738815
0.0729919
0.0718078
0.0704639
0.068501
0.0661141
0.0629003
0.0589802
0.0542469
0.0487294
0.0424783
0.0355038
0.0278448
0.0194152
0.0876995
0.0879243
0.0862239
0.0842865
0.0824523
0.0805694
0.0790312
0.0774657
0.0760022
0.0745104
0.0730203
0.0711823
0.0691578
0.0665587
0.0635258
0.059832
0.0555405
0.0506291
0.045124
0.0390812
0.0325215
0.0254433
0.0177176
0.0922385
0.0919123
0.0902297
0.0878926
0.0857226
0.0833897
0.0813839
0.0793403
0.0773244
0.0752668
0.073193
0.0707542
0.0681087
0.0649777
0.0614648
0.0574413
0.052958
0.0480153
0.0426627
0.0369376
0.0308664
0.0244175
0.0174326
0.0973052
0.0963988
0.0946008
0.0919081
0.0893203
0.0865145
0.083979
0.0814264
0.0788414
0.0762174
0.0735854
0.0706177
0.067435
0.0638856
0.0600474
0.0558295
0.0512928
0.0464419
0.0413405
0.0360112
0.0304727
0.0246723
0.0184348
0.102961
0.101482
0.0994244
0.096384
0.0933056
0.0899822
0.0868667
0.0837725
0.0806189
0.0774441
0.0742835
0.0708616
0.0672513
0.0633918
0.0593529
0.0550609
0.0505771
0.0459097
0.0411231
0.036231
0.0312389
0.0260779
0.020563
0.109289
0.107282
0.104818
0.101382
0.0977447
0.0938432
0.0901033
0.0864401
0.0827315
0.0790364
0.0753843
0.0715798
0.0676462
0.0635734
0.0594318
0.0551639
0.0508115
0.0463848
0.0419409
0.0374912
0.0330289
0.0284755
0.02364
0.116411
0.113938
0.110923
0.106978
0.102708
0.0981568
0.0937537
0.0894969
0.0852528
0.0810769
0.0769866
0.0728577
0.0686834
0.0644767
0.0603076
0.0561308
0.0519622
0.0478036
0.0437027
0.0396691
0.035689
0.0316801
0.0274635
0.124504
0.121618
0.117909
0.113282
0.108269
0.102991
0.0978885
0.0930176
0.0882559
0.083647
0.0791786
0.074774
0.0704133
0.0661246
0.0619667
0.0579067
0.0539342
0.0500405
0.0462605
0.0426057
0.0390537
0.0355118
0.0317828
0.133832
0.13052
0.125975
0.120438
0.114519
0.108424
0.102582
0.0970704
0.0917992
0.0867987
0.0820239
0.0774071
0.0729239
0.0686065
0.0645015
0.0605785
0.0568058
0.0531598
0.049665
0.0463407
0.0431726
0.0400796
0.0368828
0.14478
0.1409
0.135313
0.128602
0.121618
0.114599
0.10794
0.101707
0.0958395
0.0903752
0.0852521
0.0803896
0.0757525
0.0713742
0.0672904
0.0634645
0.0598385
0.0563674
0.0530597
0.049937
0.0469912
0.0441504
0.0412515
0.157958
0.153145
0.146039
0.137883
0.129759
0.121899
0.114531
0.107677
0.101282
0.0953987
0.0899677
0.0848868
0.0801002
0.0756456
0.0715652
0.0678252
0.0643457
0.0610575
0.0579495
0.0550449
0.0523456
0.0497956
0.0472415
0.174343
0.167941
0.158306
0.147734
0.137746
0.128509
0.120093
0.112437
0.105434
0.0990939
0.0933501
0.0880639
0.0831358
0.0785828
0.0744562
0.0707361
0.0673338
0.0641574
0.0611717
0.0583919
0.0558291
0.0534474
0.0511271
0.195006
0.186474
0.17449
0.161926
0.15024
0.13961
0.130035
0.121417
0.113614
0.10661
0.100352
0.0946929
0.089494
0.0847346
0.0804576
0.0766565
0.0732434
0.0701107
0.0671948
0.0644901
0.0620005
0.0597014
0.0574943
0.221293
0.204778
0.1868
0.170813
0.156991
0.144956
0.134423
0.125135
0.116841
0.109429
0.102847
0.096964
0.0916303
0.0867897
0.0824611
0.0786455
0.075269
0.0722257
0.0694357
0.0668727
0.0645316
0.0623976
0.0604042
0.267243
0.239863
0.214039
0.192824
0.175454
0.160705
0.147926
0.136829
0.127132
0.118599
0.111107
0.104534
0.0987242
0.0935647
0.089004
0.0850049
0.0814884
0.0783514
0.0754993
0.0728797
0.0704693
0.068257
0.0662051
0.302061
0.253932
0.220594
0.198076
0.179901
0.164158
0.150454
0.138608
0.128422
0.119577
0.111854
0.105149
0.0993451
0.0942827
0.0898222
0.0858807
0.0824009
0.0793224
0.0765691
0.0740734
0.0717909
0.069704
0.0678004
0.46013
0.306514
0.255521
0.224764
0.199255
0.178105
0.160635
0.146265
0.134554
0.1249
0.116749
0.109747
0.103696
0.0984411
0.0938293
0.0897371
0.0860807
0.082811
0.0798867
0.077262
0.0748901
0.0727351
0.0707734
0.0416492
0.0182479
-0.0035241
-0.0244429
-0.0467411
-0.0685664
-0.0894679
-0.10839
0.0356392
0.0137236
-0.00959872
-0.028725
-0.0471865
-0.06512
-0.082325
-0.0973769
0.028937
0.0100717
-0.0117092
-0.0287202
-0.0433389
-0.0577071
-0.0723019
-0.0855303
0.0224409
0.00616669
-0.0130487
-0.0284281
-0.0405461
-0.0522228
-0.0639464
-0.0744047
0.0169844
0.00269149
-0.0131725
-0.0261071
-0.0359462
-0.0452794
-0.0545484
-0.0630366
0.0128717
0.000304295
-0.0123474
-0.0227282
-0.0307534
-0.0383564
-0.0456222
-0.0523145
0.0102817
-0.000668347
-0.01051
-0.0184769
-0.0248782
-0.0310183
-0.0367327
-0.0419969
0.00925053
-0.000193934
-0.00770665
-0.0135995
-0.0185975
-0.0235312
-0.0280603
-0.0321345
0.00970054
0.00162046
-0.00403689
-0.00824657
-0.0120421
-0.0159527
-0.0195333
-0.0226641
0.0114737
0.00459398
0.000360649
-0.00254314
-0.0053391
-0.00838906
-0.0112158
-0.0136275
0.014366
0.00850963
0.00532708
0.00339004
0.00139323
-0.000957888
-0.00320341
-0.00509866
0.0181758
0.0131706
0.0107208
0.00945474
0.00806819
0.00627191
0.00447854
0.00296259
0.0227085
0.018424
0.0164479
0.0156001
0.0146561
0.0132984
0.0118542
0.0105944
0.0275325
0.0237712
0.0221306
0.0215606
0.020918
0.0198758
0.0186947
0.0176276
0.0332654
0.029965
0.0283745
0.0278048
0.0272989
0.0264626
0.0254276
0.0244038
0.0380132
0.03511
0.0336923
0.0331754
0.0327228
0.0319748
0.0310396
0.0301208
0.0444087
0.0417285
0.0401519
0.0394024
0.0388898
0.0382462
0.037422
0.0364824
0.0486326
0.0462767
0.0447692
0.0439066
0.0432165
0.0424313
0.0415473
0.0406482
0.0551658
0.0528815
0.0511914
0.050071
0.049257
0.0484693
0.047575
0.0465429
0.0583811
0.0563673
0.0546958
0.053375
0.0522622
0.051218
0.0501886
0.0491646
0.0641706
0.0621424
0.0603506
0.0588475
0.0575683
0.0563898
0.0552185
0.0539942
0.0659812
0.0641684
0.0624375
0.0608168
0.0593044
0.0578761
0.0565153
0.0552039
0.068894
0.0670185
0.0652093
0.0634891
0.061863
0.0603183
0.0588406
0.0574127
-0.425813
-0.434171
-0.444754
-0.459179
-0.478278
-0.501178
-0.523912
-0.540681
-0.424451
-0.430844
-0.439316
-0.451109
-0.466072
-0.48342
-0.501004
-0.513581
-0.423527
-0.427625
-0.433504
-0.442007
-0.452814
-0.463777
-0.471281
-0.471392
-0.422794
-0.42402
-0.426157
-0.429471
-0.433102
-0.434902
-0.431915
-0.421447
-0.421011
-0.418315
-0.415114
-0.411586
-0.407235
-0.400853
-0.390377
-0.37358
-0.415868
-0.408246
-0.399131
-0.389181
-0.37866
-0.366789
-0.351738
-0.331357
-0.405228
-0.392617
-0.378492
-0.364069
-0.349831
-0.334822
-0.317201
-0.294964
-0.388059
-0.371632
-0.354443
-0.337832
-0.321899
-0.305386
-0.28653
-0.263528
-0.364828
-0.346582
-0.328529
-0.311606
-0.295328
-0.278388
-0.259184
-0.236175
-0.337123
-0.319237
-0.302152
-0.286088
-0.270305
-0.253627
-0.234694
-0.212209
-0.307108
-0.291239
-0.276254
-0.261673
-0.246875
-0.230913
-0.212674
-0.191083
-0.276425
-0.263797
-0.251409
-0.238569
-0.225024
-0.210055
-0.192823
-0.172407
-0.246894
-0.237727
-0.22787
-0.216856
-0.204658
-0.190921
-0.17491
-0.15591
-0.218421
-0.212867
-0.205691
-0.196554
-0.18585
-0.173407
-0.158719
-0.141251
-0.191267
-0.190017
-0.185052
-0.177877
-0.168391
-0.157076
-0.143757
-0.128001
-0.379881
-0.37804
-0.379042
-0.38326
-0.390436
-0.39947
-0.408951
-0.417755
-0.381756
-0.380721
-0.382284
-0.386777
-0.393878
-0.402418
-0.410883
-0.418182
-0.382571
-0.382014
-0.384097
-0.389106
-0.396615
-0.405263
-0.413191
-0.41918