/*--------------------------------*- C++ -*----------------------------------*\
| =========                 |                                                 |
| \\      /  F ield         | OpenFOAM: The Open Source CFD Toolbox           |
|  \\    /   O peration     | Version:  2512                                  |
|   \\  /    A nd           | Website:  www.openfoam.com                      |
|    \\/     M anipulation  |                                                 |
\*---------------------------------------------------------------------------*/
FoamFile
{
    version     2.0;
    format      ascii;
    arch        "LSB;label=32;scalar=64";
    class       volVectorField;
    location    "31.5";
    object      U;
}
// * * * * * * * * * * * * * * * * * * * * * * * * * * * * * * * * * * * * * //

dimensions      [0 1 -1 0 0 0 0];

internalField   nonuniform List<vector> 
13248
(
(-0.0134229 0.010668 3.47583e-20)
(-0.0330807 0.0266229 0)
(-0.0437608 0.0381726 -6.01576e-20)
(-0.0435384 0.046808 5.57037e-20)
(-0.0314902 0.053312 5.10283e-20)
(-0.00686124 0.0582155 0)
(0.0312357 0.0622186 0)
(0.0837395 0.0661515 1.18402e-19)
(0.151391 0.0708864 -4.99876e-23)
(0.234298 0.0771885 -1.01992e-19)
(0.331492 0.0855382 9.58699e-20)
(0.440657 0.0960484 -5.95659e-20)
(0.558233 0.108422 0)
(0.679751 0.121978 -1.08662e-19)
(0.800261 0.135777 2.04501e-19)
(0.915012 0.148661 -4.83997e-20)
(1.01936 0.159651 -9.33095e-20)
(1.11031 0.167308 8.69859e-20)
(1.18435 0.172137 0)
(1.24181 0.17039 0)
(1.28059 0.169427 0)
(1.30433 0.153739 0)
(1.31282 0.152885 3.07052e-20)
(1.31253 0.116734 1.18292e-19)
(-0.0166472 0.0114973 -1.04398e-19)
(-0.0366504 0.0249017 6.58333e-20)
(-0.0435706 0.0320449 -4.26044e-22)
(-0.0358428 0.0362212 -8.40584e-20)
(-0.0121545 0.0392401 -5.09596e-20)
(0.0288895 0.0423499 -4.71341e-20)
(0.0886972 0.0466957 -8.57138e-20)
(0.168025 0.0532911 7.98444e-20)
(0.266236 0.0628968 0)
(0.380759 0.0758312 -6.7746e-23)
(0.507042 0.0918347 -3.89848e-22)
(0.639056 0.110068 5.92484e-20)
(0.770125 0.129239 0)
(0.893782 0.147789 0)
(1.00453 0.164198 7.56474e-20)
(1.09819 0.177054 -1.41109e-19)
(1.17253 0.1855 8.88786e-20)
(1.22673 0.18896 -8.28609e-20)
(1.26221 0.187456 -3.78515e-20)
(1.28137 0.181741 -7.29233e-20)
(1.28791 0.172052 -3.26042e-20)
(1.28654 0.160058 -6.25083e-20)
(1.27995 0.148085 8.68742e-20)
(1.27517 0.131863 2.60205e-20)
(-0.0197603 0.0122429 0)
(-0.0381341 0.0238012 0)
(-0.0372941 0.0282135 3.01802e-20)
(-0.0162384 0.0300155 2.7461e-20)
(0.0265453 0.0319413 -5.6777e-22)
(0.0926266 0.035961 -4.82455e-20)
(0.182673 0.0435685 0)
(0.295171 0.0556982 -3.97599e-20)
(0.425631 0.0725104 3.70592e-20)
(0.566817 0.0932651 1.98205e-22)
(0.709907 0.116415 -6.34486e-20)
(0.846025 0.139906 -5.92752e-20)
(0.967588 0.161573 -2.54138e-22)
(1.06922 0.179524 -5.20625e-20)
(1.14813 0.192441 1.21016e-19)
(1.20422 0.199644 0)
(1.23956 0.201458 -8.44565e-20)
(1.25817 0.198059 4.03888e-20)
(1.26479 0.191826 3.78128e-20)
(1.26452 0.181521 0)
(1.26128 0.172895 3.27694e-20)
(1.25814 0.159176 -1.16154e-19)
(1.25598 0.153257 1.08472e-19)
(1.25519 0.137655 7.32846e-20)
(-0.0218582 0.012223 -3.59578e-20)
(-0.0354501 0.0219119 -3.43516e-20)
(-0.0220229 0.0249281 3.09374e-20)
(0.0187818 0.0264395 0)
(0.0882089 0.0299748 0)
(0.186693 0.0380169 -7.85186e-22)
(0.311824 0.0520146 0)
(0.456985 0.0721124 -1.21226e-19)
(0.611791 0.0970347 1.11888e-19)
(0.764219 0.124378 -1.37487e-19)
(0.90317 0.151221 3.17054e-20)
(1.02043 0.17481 0)
(1.1116 0.193094 5.43578e-20)
(1.17618 0.205044 -1.01009e-19)
(1.21694 0.210627 2.38979e-20)
(1.23889 0.210786 6.53679e-20)
(1.24802 0.206684 -4.82641e-22)
(1.24997 0.200152 -7.29018e-20)
(1.24909 0.191861 0)
(1.2479 0.183303 0)
(1.24696 0.17454 -2.85074e-20)
(1.24666 0.164734 2.62296e-20)
(1.2443 0.158281 9.9205e-20)
(1.24403 0.144875 -9.25948e-20)
(-0.0221931 0.0111198 -3.74417e-20)
(-0.0267638 0.018469 -3.48023e-20)
(0.0048752 0.0212255 9.62115e-20)
(0.0721597 0.0246909 -5.79583e-20)
(0.174976 0.0329094 5.36916e-20)
(0.31014 0.0483659 9.69374e-20)
(0.46885 0.0714845 -6.75586e-20)
(0.637073 0.10046 -8.1961e-20)
(0.798955 0.131862 9.44679e-22)
(0.940937 0.161767 1.03701e-19)
(1.05446 0.186855 0)
(1.13676 0.2051 2.88837e-20)
(1.19012 0.215988 0)
(1.22025 0.220262 -4.89471e-20)
(1.23432 0.219488 6.86213e-20)
(1.23913 0.215317 8.40088e-22)
(1.23972 0.209339 -1.87854e-20)
(1.239 0.202251 3.63485e-20)
(1.23798 0.194886 3.16954e-20)
(1.23652 0.186776 -2.90969e-20)
(1.23441 0.178928 2.84948e-20)
(1.23115 0.169567 -2.6218e-20)
(1.22758 0.162807 0)
(1.22432 0.151024 -2.05581e-20)
(-0.0201369 0.00905081 3.74324e-20)
(-0.0102802 0.0137034 3.62685e-20)
(0.0459715 0.0175932 -3.22313e-20)
(0.146403 0.0257667 5.92724e-20)
(0.287159 0.0421795 -5.49059e-20)
(0.457632 0.0680923 4.94291e-20)
(0.639773 0.101326 -2.32992e-20)
(0.812956 0.137224 6.14678e-20)
(0.960435 0.17062 -3.81845e-20)
(1.07317 0.197557 6.83314e-20)
(1.15018 0.216133 -1.57113e-19)
(1.19655 0.226469 5.75107e-20)
(1.2205 0.230066 -5.19068e-20)
(1.23046 0.22898 4.83205e-20)
(1.23316 0.225042 4.33982e-20)
(1.23274 0.219588 3.936e-20)
(1.23113 0.21321 -1.08919e-19)
(1.22891 0.206331 6.78369e-20)
(1.22615 0.198838 -3.16909e-20)
(1.22305 0.191094 8.49846e-20)
(1.21967 0.183038 -2.71482e-20)
(1.21675 0.174567 -6.96677e-20)
(1.21363 0.167771 6.45929e-20)
(1.21169 0.157245 2.05509e-20)
(-0.0150889 0.00636986 0)
(0.0157941 0.00865013 3.41527e-22)
(0.103596 0.0158591 6.71436e-20)
(0.242601 0.0321847 -6.18238e-20)
(0.421191 0.0601529 -5.54547e-20)
(0.617574 0.0977555 1.01833e-19)
(0.805184 0.138977 -4.67737e-20)
(0.96257 0.176975 6.23525e-20)
(1.07926 0.206863 -9.74029e-22)
(1.15562 0.226772 -3.48826e-20)
(1.1992 0.237431 7.73192e-20)
(1.2202 0.241018 -1.13557e-19)
(1.22792 0.23998 0)
(1.22897 0.236243 -2.28372e-20)
(1.2271 0.231024 -6.24308e-20)
(1.22407 0.224897 1.92582e-20)
(1.22059 0.218199 3.83941e-22)
(1.21703 0.211019 -4.6355e-20)
(1.21363 0.203588 1.30874e-21)
(1.21041 0.195941 5.36862e-20)
(1.20744 0.188184 -2.50185e-20)
(1.20435 0.180381 -1.01323e-20)
(1.20104 0.173124 2.9607e-20)
(1.19822 0.16387 0)
(-0.00635294 0.0035656 0)
(0.0530929 0.00486799 1.84228e-20)
(0.179006 0.0185894 -8.715e-20)
(0.358667 0.0468027 3.14052e-20)
(0.567935 0.0881796 -2.90895e-20)
(0.773518 0.135573 -2.64091e-20)
(0.946769 0.179836 -4.6424e-20)
(1.07365 0.214471 2.26171e-20)
(1.15473 0.237247 1.97277e-20)
(1.19944 0.249337 0)
(1.21984 0.253541 4.57133e-20)
(1.2263 0.252736 -6.82724e-20)
(1.22587 0.249065 5.06412e-20)
(1.22253 0.243827 2.28473e-20)
(1.21823 0.237692 -1.93319e-20)
(1.21384 0.231026 -1.68961e-20)
(1.2097 0.223988 -1.61529e-20)
(1.20585 0.216724 4.61733e-20)
(1.20217 0.209251 0)
(1.19858 0.201642 2.46046e-20)
(1.19494 0.193887 2.17663e-20)
(1.19137 0.18617 -5.24298e-20)
(1.18792 0.178545 -3.77153e-20)
(1.18473 0.170233 3.45336e-20)
(0.0068646 0.00118743 -2.15052e-20)
(0.102715 0.00416703 -8.83777e-22)
(0.271358 0.028424 1.77833e-20)
(0.488177 0.0714704 4.92836e-20)
(0.714043 0.125287 1.42914e-20)
(0.910083 0.177769 -2.7021e-20)
(1.05494 0.219597 2.43779e-20)
(1.14708 0.24734 -2.12862e-20)
(1.19713 0.262275 3.79994e-20)
(1.2192 0.267818 1.63956e-20)
(1.22537 0.267462 -4.58217e-20)
(1.22381 0.263797 1.36648e-20)
(1.21919 0.258397 2.37307e-20)
(1.21376 0.252091 -1.1477e-20)
(1.20842 0.245285 0)
(1.20342 0.238151 1.79592e-20)
(1.19874 0.230783 3.11192e-20)
(1.19429 0.223208 6.0111e-21)
(1.19008 0.215494 -2.62155e-20)
(1.18611 0.207685 1.12693e-20)
(1.18245 0.199856 0)
(1.17901 0.192166 -9.21572e-21)
(1.17561 0.184285 -9.03022e-21)
(1.17249 0.176849 0)
(0.025169 4.68976e-06 0)
(0.164619 0.0086105 1.04677e-20)
(0.376915 0.047497 1.91625e-20)
(0.621124 0.106197 -5.04805e-20)
(0.846494 0.168633 1.60971e-20)
(1.01873 0.220717 0)
(1.13011 0.256279 2.36676e-20)
(1.19096 0.276028 -3.26502e-20)
(1.21765 0.283963 -1.8974e-20)
(1.22487 0.284459 8.56967e-21)
(1.22273 0.28085 -1.39592e-20)
(1.21697 0.275177 3.33428e-20)
(1.21031 0.268504 1.71452e-20)
(1.2038 0.261313 -1.15108e-20)
(1.19774 0.253805 -7.58291e-22)
(1.19214 0.246078 -3.33271e-20)
(1.18699 0.238191 1.52271e-20)
(1.18226 0.230213 -4.46417e-22)
(1.17792 0.222191 0)
(1.17392 0.214174 -1.12805e-20)
(1.17014 0.206211 0)
(1.16648 0.198292 2.66744e-20)
(1.16295 0.190227 -3.2072e-20)
(1.15933 0.183265 1.47248e-20)
(0.0487179 0.000835809 -6.09169e-21)
(0.237149 0.0200596 -2.68123e-20)
(0.489196 0.076799 3.0199e-20)
(0.746792 0.14928 1.74292e-20)
(0.956887 0.215139 -8.16014e-21)
(1.09836 0.262444 1.35459e-20)
(1.17785 0.289944 -6.47434e-21)
(1.2137 0.301974 1.06964e-20)
(1.22412 0.304072 0)
(1.22217 0.300698 2.42106e-20)
(1.2154 0.294649 -7.97721e-22)
(1.20741 0.287375 -1.94911e-20)
(1.1996 0.27953 8.4481e-21)
(1.19238 0.271387 -9.69488e-21)
(1.18583 0.263072 -3.85258e-21)
(1.17991 0.254657 4.24486e-21)
(1.17452 0.246197 -3.36762e-21)
(1.16959 0.237729 -1.87583e-20)
(1.16507 0.229289 1.14458e-20)
(1.16091 0.220918 2.40415e-21)
(1.15709 0.212653 2.15674e-21)
(1.15352 0.204464 1.93793e-21)
(1.15006 0.196343 0)
(1.14656 0.189541 0)
(0.0772515 0.00457349 6.09906e-21)
(0.317123 0.0400221 -5.6284e-21)
(0.600391 0.11602 -1.01339e-20)
(0.856924 0.198334 0)
(1.04225 0.262703 -4.07707e-21)
(1.15196 0.302483 -3.63302e-21)
(1.20427 0.321457 -6.09997e-21)
(1.22157 0.326537 0)
(1.22127 0.323824 0)
(1.21388 0.317338 0)
(1.20454 0.309215 0)
(1.19531 0.300418 0)
(1.18685 0.291347 -5.31816e-21)
(1.17924 0.282163 2.40836e-21)
(1.1724 0.27294 4.27007e-21)
(1.16625 0.263727 2.00658e-21)
(1.16068 0.254559 5.03555e-21)
(1.15568 0.245476 0)
(1.15118 0.236519 -1.25881e-21)
(1.14716 0.227731 -1.2335e-21)
(1.14348 0.219122 -2.16015e-21)
(1.14002 0.210628 -1.94099e-21)
(1.13664 0.202419 0)
(1.13311 0.195383 1.46547e-21)
(-0.00329725 0.0501288 3.99276e-21)
(-0.0127716 0.114814 -3.80386e-21)
(-0.028459 0.153595 -7.05912e-21)
(-0.0471413 0.174322 0)
(-0.0671337 0.184142 -9.15077e-21)
(-0.0875485 0.188489 2.81581e-21)
(-0.107849 0.190696 -5.36541e-21)
(-0.127756 0.192338 0)
(-0.14715 0.193887 0)
(-0.165978 0.19529 0)
(-0.18421 0.196312 0)
(-0.201814 0.196678 0)
(-0.218759 0.196119 -1.74412e-23)
(-0.235011 0.194378 -3.63299e-21)
(-0.25054 0.191217 7.22239e-21)
(-0.265325 0.186414 1.04066e-20)
(-0.279357 0.179772 3.49338e-21)
(-0.292648 0.171123 0)
(-0.305228 0.160345 3.09767e-21)
(-0.317132 0.147362 -8.96086e-21)
(-0.328434 0.132108 -5.87872e-21)
(-0.339341 0.114483 -5.69252e-21)
(-0.35016 0.0944292 0)
(-0.360807 0.0723082 0)
(-0.00607877 0.0544447 -1.20758e-20)
(-0.0174236 0.126388 1.90861e-20)
(-0.031684 0.170892 -7.18511e-21)
(-0.0476601 0.195602 -1.32779e-20)
(-0.0644625 0.2078 1.84088e-20)
(-0.0814515 0.213312 -1.161e-20)
(-0.0981315 0.215911 1.61286e-20)
(-0.114169 0.217518 1.03156e-20)
(-0.129363 0.218819 0)
(-0.143588 0.219863 -9.26476e-21)
(-0.156756 0.220449 -4.33133e-22)
(-0.168795 0.220315 7.99174e-21)
(-0.179644 0.219197 1.19953e-20)
(-0.189249 0.216849 1.55551e-20)
(-0.197573 0.213046 -6.70937e-21)
(-0.204594 0.207589 -2.09071e-20)
(-0.210312 0.200309 7.29556e-21)
(-0.214752 0.191074 -2.66049e-20)
(-0.217958 0.179798 0)
(-0.220004 0.166438 6.06089e-21)
(-0.221022 0.150988 5.86895e-21)
(-0.221203 0.133498 5.68298e-21)
(-0.220651 0.114187 0)
(-0.219229 0.0935664 0)
(-0.00888192 0.0556865 0)
(-0.0221549 0.132128 3.92626e-20)
(-0.0346098 0.181736 -1.4515e-20)
(-0.0471487 0.210771 1.34511e-20)
(-0.059793 0.225933 -3.77223e-20)
(-0.0722457 0.233065 0)
(-0.0841147 0.236258 -2.22502e-20)
(-0.0950429 0.237809 1.03496e-20)
(-0.104757 0.238693 -1.9853e-20)
(-0.113064 0.239133 9.60956e-21)
(-0.119829 0.239014 5.41523e-20)
(-0.124955 0.238113 -2.52194e-20)
(-0.128374 0.236187 -4.13432e-20)
(-0.130038 0.233013 -1.69697e-20)
(-0.129926 0.228391 -1.09909e-21)
(-0.128043 0.222151 5.87667e-20)
(-0.124426 0.214156 -2.79016e-20)
(-0.119136 0.20431 -4.0488e-22)
(-0.112265 0.192558 0)
(-0.103936 0.178886 -2.62965e-20)
(-0.0943187 0.163328 0)
(-0.0835622 0.145999 -2.51707e-20)
(-0.0714641 0.12719 9.50158e-20)
(-0.0577865 0.107314 1.6664e-21)
(-0.0112734 0.0537699 0)
(-0.026353 0.131417 2.5166e-22)
(-0.0369619 0.184977 1.4847e-20)
(-0.045815 0.218396 -1.38665e-20)
(-0.0537831 0.237079 1.2479e-20)
(-0.0609983 0.246411 7.16831e-20)
(-0.0672714 0.250575 -2.2252e-20)
(-0.0722887 0.252204 -2.11953e-20)
(-0.075746 0.252622 3.9892e-20)
(-0.0774053 0.252307 -5.73022e-20)
(-0.0771021 0.251299 1.77875e-20)
(-0.0747338 0.249455 1.73856e-20)
(-0.0702456 0.246586 0)
(-0.0636228 0.242502 1.58768e-20)
(-0.0548863 0.237039 0)
(-0.0440957 0.230061 3.00109e-20)
(-0.0313467 0.221467 -5.91744e-20)
(-0.016769 0.211194 1.16634e-20)
(-0.000524966 0.199213 5.35611e-20)
(0.0171977 0.185522 2.62667e-20)
(0.0361608 0.170172 0)
(0.0561123 0.153185 -7.56863e-20)
(0.076725 0.134936 2.33179e-20)
(0.10175 0.115539 0)
(-0.0128862 0.0490978 0)
(-0.0294694 0.124467 -4.83462e-20)
(-0.0385262 0.180218 -1.49308e-20)
(-0.0439367 0.217559 -2.77311e-20)
(-0.0472466 0.240062 2.56939e-20)
(-0.0490173 0.252177 -2.39412e-20)
(-0.0493505 0.257853 4.54702e-20)
(-0.0480813 0.259909 2.18946e-20)
(-0.0449518 0.26001 -5.99009e-20)
(-0.0397249 0.25895 3.86913e-20)
(-0.0322325 0.256996 -5.47253e-20)
(-0.0223826 0.25415 1.22546e-19)
(-0.0101503 0.250307 -6.58618e-20)
(0.00443278 0.245336 3.21051e-20)
(0.0212869 0.239116 9.43088e-20)
(0.0402878 0.231549 -2.76892e-20)
(0.0612705 0.222572 -2.67155e-20)
(0.0840394 0.212148 -2.72718e-20)
(0.108343 0.20029 0)
(0.134023 0.186966 -5.42744e-20)
(0.160498 0.172372 -5.46009e-20)
(0.188687 0.156244 7.33846e-20)
(0.214226 0.138918 9.86904e-20)
(0.251499 0.121598 -9.19899e-20)
(-0.0135272 0.0424544 0)
(-0.0311206 0.112307 -6.52376e-20)
(-0.0391601 0.16797 -6.28262e-23)
(-0.0418416 0.208042 5.57008e-20)
(-0.041051 0.23411 0)
(-0.0376987 0.249332 0)
(-0.0322185 0.257064 0)
(-0.0246935 0.260063 -2.16956e-20)
(-0.0150138 0.260217 -7.61572e-22)
(-0.00302017 0.25863 3.77087e-20)
(0.0114115 0.255841 -5.5679e-20)
(0.0283368 0.25205 -7.81201e-22)
(0.0477376 0.247287 0)
(0.0695294 0.241507 -3.20901e-20)
(0.0935713 0.234649 3.18641e-20)
(0.11968 0.226657 -8.80478e-20)
(0.147614 0.217506 1.16384e-19)
(0.177219 0.207161 3.10928e-20)
(0.207925 0.195725 4.21248e-21)
(0.240551 0.182991 -1.0315e-19)
(0.272082 0.169362 -5.03773e-20)
(0.309485 0.154499 1.74054e-19)
(0.336139 0.138206 -1.16923e-19)
(0.388637 0.12287 0)
(-0.0132233 0.0348387 3.48127e-20)
(-0.031232 0.0966459 3.2679e-20)
(-0.0388799 0.149671 -3.01955e-20)
(-0.0398627 0.190555 -5.58189e-20)
(-0.036 0.219133 5.17164e-20)
(-0.0283753 0.237181 -4.83117e-20)
(-0.0177151 0.247198 6.71998e-20)
(-0.0044014 0.2516 -2.1765e-20)
(0.0114339 0.252296 3.94989e-20)
(0.0297781 0.250591 0)
(0.0506387 0.24727 3.64929e-20)
(0.0739882 0.242753 -6.68285e-20)
(0.0997435 0.237237 6.64722e-20)
(0.127766 0.230796 -6.18741e-20)
(0.157866 0.223449 0)
(0.189875 0.215196 5.83394e-20)
(0.223422 0.206043 1.14489e-19)
(0.258966 0.195958 -1.07386e-19)
(0.294466 0.18505 -5.22295e-20)
(0.334817 0.173274 -5.40644e-20)
(0.368964 0.160678 1.47995e-19)
(0.420421 0.147659 4.91247e-20)
(0.446447 0.132746 -4.42096e-20)
(0.521378 0.118596 4.38349e-20)
(-0.0122211 0.0272637 -3.48212e-20)
(-0.0301144 0.0795489 9.82378e-20)
(-0.0379665 0.127533 -3.03612e-20)
(-0.0383728 0.166824 5.57025e-20)
(-0.0327388 0.19605 -5.16081e-20)
(-0.0221095 0.215799 -3.0621e-22)
(-0.00738891 0.227655 2.20794e-20)
(0.0107655 0.233497 8.32784e-20)
(0.031938 0.23504 1.09693e-21)
(0.0558736 0.233622 -3.68187e-20)
(0.082396 0.230176 0)
(0.111353 0.2253 -3.39149e-20)
(0.142595 0.219352 6.29987e-20)
(0.175979 0.212545 6.22537e-20)
(0.211371 0.204971 -2.89753e-20)
(0.248863 0.196741 -8.75723e-22)
(0.287842 0.187842 -2.78651e-20)
(0.330542 0.178583 5.22164e-20)
(0.371867 0.168497 5.22373e-20)
(0.425354 0.158681 -5.05584e-20)
(0.464034 0.146995 4.73681e-20)
(0.539738 0.13666 -4.56358e-20)
(0.565905 0.122666 0)
(0.677508 0.110872 -4.38315e-20)
(-0.0109513 0.020589 3.47993e-20)
(-0.0284638 0.0630455 -3.28011e-20)
(-0.0370237 0.104143 3.01395e-20)
(-0.0378336 0.139401 0)
(-0.031699 0.166919 0)
(-0.0194647 0.186493 4.70416e-20)
(-0.00207323 0.198938 -4.40274e-20)
(0.0196334 0.205563 4.10479e-20)
(0.0449993 0.20776 -1.91947e-19)
(0.073547 0.206754 -4.60801e-22)
(0.104949 0.203506 3.37462e-20)
(0.139003 0.198722 0)
(0.175661 0.19287 -6.2887e-20)
(0.214979 0.186303 1.18857e-19)
(0.257143 0.179257 -8.51806e-20)
(0.302953 0.172014 -1.399e-19)
(0.351895 0.164419 -3.82533e-21)
(0.407998 0.157152 9.90151e-20)
(0.462874 0.148585 0)
(0.537581 0.141841 0)
(0.590322 0.131191 -4.73862e-20)
(0.697187 0.125577 4.56521e-20)
(0.730658 0.112175 -1.74831e-19)
(0.880759 0.106584 1.63048e-19)
(-0.00996735 0.0154262 0)
(-0.0272493 0.0487851 0)
(-0.03689 0.0819568 -9.02382e-20)
(-0.0387234 0.1112 2.80308e-20)
(-0.0329585 0.134709 3.0515e-22)
(-0.0201723 0.151955 4.68024e-20)
(-0.0012148 0.163266 0)
(0.023051 0.169504 -4.01103e-20)
(0.0519161 0.171745 3.80767e-20)
(0.0849061 0.171053 -7.03704e-20)
(0.121833 0.168347 -5.44856e-22)
(0.162758 0.16438 6.3887e-20)
(0.208079 0.159762 1.52467e-21)
(0.258478 0.154985 6.00889e-20)
(0.314608 0.150306 -8.1579e-20)
(0.377401 0.14584 0)
(0.446389 0.141527 1.0448e-19)
(0.524444 0.13763 -1.47874e-19)
(0.604098 0.133056 4.69338e-20)
(0.700578 0.13028 0)
(0.778556 0.123463 4.34938e-20)
(0.899729 0.123064 1.74034e-19)
(0.950491 0.111169 -1.62497e-19)
(1.10516 0.112718 -1.95818e-19)
(-0.00984118 0.0121039 1.0373e-19)
(-0.0274338 0.0378289 -1.30743e-19)
(-0.0382676 0.0629051 3.72091e-22)
(-0.0411056 0.0849844 2.78299e-20)
(-0.0356929 0.102853 -5.07831e-20)
(-0.0223083 0.116066 -4.69366e-20)
(-0.00152541 0.124802 8.60524e-20)
(0.0260863 0.129702 3.79506e-22)
(0.0601802 0.131652 -7.40791e-20)
(0.100741 0.131602 1.39076e-19)
(0.148146 0.130456 1.57752e-21)
(0.203053 0.129017 -6.10835e-20)
(0.266152 0.127844 0)
(0.337913 0.127246 0)
(0.418368 0.127447 -2.72423e-20)
(0.507057 0.128163 -5.08198e-20)
(0.602442 0.129911 -1.00888e-19)
(0.703016 0.130983 9.40468e-20)
(0.805315 0.133288 -4.69734e-20)
(0.909174 0.133236 8.95825e-20)
(1.00414 0.133237 -4.13149e-20)
(1.10606 0.132356 8.40224e-20)
(1.16941 0.124238 -1.90437e-19)
(1.27656 0.124745 3.80136e-20)
(-0.0109807 0.0106315 3.46123e-20)
(-0.0295102 0.030551 0)
(-0.0410511 0.0481885 6.00145e-20)
(-0.0437665 0.0630313 -5.5571e-20)
(-0.0370727 0.0747989 5.08526e-20)
(-0.0208254 0.0834399 0)
(0.00500468 0.0892864 0)
(0.0405817 0.0929967 -3.93033e-20)
(0.0863347 0.0954252 -7.15982e-23)
(0.142892 0.0974794 3.38173e-20)
(0.210827 0.0999519 -3.22814e-20)
(0.290305 0.103425 6.00999e-20)
(0.380802 0.108203 0)
(0.480861 0.114294 1.10931e-19)
(0.588039 0.121575 -2.09394e-19)
(0.699376 0.129213 1.49711e-19)
(0.811015 0.137425 9.72607e-20)
(0.919426 0.143423 -9.06655e-20)
(1.02099 0.150386 0)
(1.1115 0.150394 0)
(1.19058 0.154245 0)
(1.25299 0.145308 0)
(1.29986 0.142427 3.72422e-20)
(1.33902 0.129031 -1.35525e-19)
(-0.372289 0.0451716 -3.73379e-21)
(-0.391617 0.0082689 3.74112e-21)
(-0.407288 -0.0307146 -1.24012e-22)
(-0.424794 -0.0742148 0)
(-0.441372 -0.118773 -3.77454e-21)
(-0.45972 -0.165415 7.34904e-21)
(-0.478523 -0.212644 -1.53778e-23)
(-0.49845 -0.260392 -3.45884e-21)
(-0.518386 -0.307423 0)
(-0.537498 -0.352508 0)
(-0.553934 -0.393673 -1.82686e-22)
(-0.565067 -0.428128 -1.66593e-22)
(-0.567385 -0.452183 -2.456e-21)
(-0.556691 -0.461432 2.23965e-21)
(-0.528867 -0.451353 0)
(-0.48106 -0.418071 0)
(-0.413073 -0.359507 1.53889e-21)
(-0.328477 -0.276197 -9.26136e-23)
(-0.23351 -0.170638 -1.28801e-21)
(-0.13345 -0.0479145 -6.42427e-23)
(-0.0303441 0.0847065 0)
(0.0772082 0.212846 0)
(0.182672 0.311882 0)
(0.277678 0.36811 0)
(0.35566 0.380274 0)
(0.417548 0.35946 0)
(0.456645 0.319724 -5.88744e-23)
(0.464437 0.278636 9.38621e-23)
(0.447067 0.239 0)
(0.43625 0.192192 0)
(0.460163 0.128945 7.99982e-23)
(0.51905 0.0582017 -7.77305e-23)
(0.596216 -0.00820476 -3.40147e-23)
(0.671444 -0.0575196 0)
(0.734876 -0.0893358 0)
(0.781768 -0.103742 -6.01429e-23)
(0.813972 -0.107529 5.84535e-23)
(0.833381 -0.102291 0)
(0.842424 -0.0943526 -4.36642e-23)
(0.843072 -0.0829733 6.25517e-23)
(0.838896 -0.0718705 -1.745e-23)
(0.836053 -0.0568021 0)
(0.838801 -0.040992 2.33291e-23)
(0.850027 -0.0214148 -2.2684e-23)
(0.866324 -0.00450007 0)
(0.885373 0.0118208 0)
(0.902234 0.0217723 6.31755e-24)
(0.916593 0.0298657 -1.78697e-23)
(0.926502 0.0317739 0)
(0.934351 0.0332964 0)
(0.939535 0.0302159 3.46505e-24)
(0.944702 0.0288049 -1.03507e-26)
(0.948326 0.0243691 4.37344e-25)
(0.95298 0.0229799 -1.8994e-24)
(0.956364 0.0193838 0)
(0.96217 0.019453 0)
(0.966199 0.0174942 0)
(0.973933 0.0189774 0)
(0.977207 0.0182384 0)
(0.986119 0.020332 0)
(-0.217051 0.0680613 -3.85029e-22)
(-0.232564 0.0281233 -1.6728e-20)
(-0.241169 -0.0104911 -3.23374e-22)
(-0.25336 -0.0536373 1.59475e-20)
(-0.265016 -0.0976714 2.58105e-22)
(-0.279449 -0.143219 0)
(-0.296094 -0.189599 -1.49641e-20)
(-0.315425 -0.236617 2.92631e-20)
(-0.337397 -0.283707 -1.42968e-20)
(-0.361995 -0.329914 1.26547e-20)
(-0.38885 -0.374014 -1.21059e-20)
(-0.416781 -0.413894 1.02077e-20)
(-0.443652 -0.446402 -9.93177e-21)
(-0.466007 -0.467402 -2.60443e-22)
(-0.478698 -0.471936 -6.89574e-21)
(-0.47561 -0.454616 6.69677e-21)
(-0.450853 -0.411188 -5.17591e-21)
(-0.401563 -0.339679 4.89462e-21)
(-0.329379 -0.241323 -4.00235e-21)
(-0.239993 -0.121235 7.17417e-21)
(-0.137885 0.00991963 -3.19947e-21)
(-0.0268877 0.136557 -1.06491e-22)
(0.0831801 0.24052 -9.40073e-22)
(0.185711 0.307694 1.1986e-21)
(0.270724 0.33332 -2.77327e-22)
(0.333293 0.329853 -2.51232e-23)
(0.363067 0.310789 -6.17971e-22)
(0.36527 0.284496 -7.68546e-23)
(0.367668 0.243138 1.24273e-21)
(0.400828 0.180401 -1.18149e-21)
(0.472893 0.099915 5.62144e-22)
(0.56503 0.0204966 -6.004e-23)
(0.657105 -0.0450453 3.40856e-23)
(0.733431 -0.0877818 -6.12947e-23)
(0.790775 -0.111387 0)
(0.828987 -0.118372 0)
(0.853063 -0.116413 2.15863e-22)
(0.86641 -0.106982 -1.59575e-22)
(0.872686 -0.0957676 -1.28819e-22)
(0.872522 -0.0819322 -3.82539e-24)
(0.86732 -0.0696718 1.66038e-22)
(0.859914 -0.0552239 -3.03408e-23)
(0.854692 -0.0414054 0)
(0.855772 -0.0241366 0)
(0.863172 -0.0088126 0)
(0.875801 0.00706247 0)
(0.889576 0.0174531 -2.76887e-23)
(0.903189 0.0264148 1.17373e-23)
(0.914126 0.029184 0)
(0.923717 0.0313701 0)
(0.931026 0.0286937 0)
(0.938121 0.0275517 5.34889e-24)
(0.943395 0.0232604 -9.31343e-25)
(0.949244 0.0219651 4.21448e-24)
(0.95347 0.0183101 0)
(0.959903 0.0183468 0)
(0.964369 0.0162464 -1.69772e-24)
(0.972625 0.0178289 -3.88399e-24)
(0.976164 0.0170436 0)
(0.98564 0.0194536 0)
(-0.0474425 0.0829215 1.67783e-21)
(-0.0569379 0.0444886 -3.40994e-20)
(-0.060929 0.00505516 3.56723e-20)
(-0.0688077 -0.0361271 -3.32978e-20)
(-0.0768712 -0.0789541 -2.59933e-22)
(-0.0871512 -0.122922 0)
(-0.0998201 -0.167742 -3.21231e-20)
(-0.114913 -0.213102 3.14391e-20)
(-0.132397 -0.258584 2.22732e-22)
(-0.152755 -0.303062 4.25652e-22)
(-0.176618 -0.345637 3.88639e-22)
(-0.204462 -0.384613 3.43393e-22)
(-0.236834 -0.417985 -1.82487e-20)
(-0.27381 -0.443282 1.7983e-20)
(-0.313162 -0.457058 0)
(-0.349849 -0.454187 3.35024e-22)
(-0.375122 -0.429174 -8.42978e-21)
(-0.379051 -0.377198 8.31922e-21)
(-0.354049 -0.295953 0)
(-0.298971 -0.188114 0)
(-0.218783 -0.0630435 -3.34853e-21)
(-0.118842 0.0617103 5.37656e-21)
(-0.0123529 0.169123 -2.9062e-21)
(0.0879171 0.249152 9.04332e-22)
(0.170445 0.291457 -6.56914e-22)
(0.229947 0.308311 1.6882e-21)
(0.263901 0.304865 -2.05575e-21)
(0.290351 0.280112 6.68668e-23)
(0.338862 0.225908 1.07096e-21)
(0.421912 0.146372 0)
(0.529574 0.0561471 0)
(0.63693 -0.023132 -3.44695e-22)
(0.72855 -0.0814 4.41946e-22)
(0.796022 -0.11448 4.78852e-24)
(0.841791 -0.129067 -4.74793e-22)
(0.869091 -0.129099 4.61342e-22)
(0.884333 -0.122399 0)
(0.89119 -0.11005 -5.04373e-23)
(0.89399 -0.0968859 -3.90622e-22)
(0.893298 -0.0814097 7.20493e-22)
(0.88973 -0.067816 -2.96799e-22)
(0.883052 -0.0529371 -3.07018e-23)
(0.875897 -0.0399385 2.50522e-22)
(0.871392 -0.0243927 -1.92231e-22)
(0.871881 -0.0108466 -3.86953e-23)
(0.877759 0.00386589 -3.30227e-23)
(0.886971 0.0139173 2.77626e-23)
(0.898026 0.0231321 0)
(0.908523 0.0263784 0)
(0.918718 0.0290445 6.89747e-23)
(0.927382 0.0267354 -3.23719e-23)
(0.935779 0.0259169 2.51657e-23)
(0.94222 0.021865 -3.11167e-23)
(0.948793 0.0207618 -3.2248e-23)
(0.95343 0.0171215 7.59184e-24)
(0.959996 0.0171721 -1.05871e-23)
(0.964449 0.014947 7.94759e-24)
(0.972697 0.0166397 -3.32931e-24)
(0.97618 0.0158062 0)
(0.985719 0.0185431 0)
(0.114884 0.090727 -7.23841e-20)
(0.112924 0.0571712 -1.82514e-21)
(0.111679 0.0185842 7.00867e-20)
(0.107832 -0.0211087 -5.51375e-22)
(0.101622 -0.06259 0)
(0.0936101 -0.105429 0)
(0.0837826 -0.149298 -6.63956e-20)
(0.0721646 -0.194003 8.66898e-22)
(0.0594515 -0.238961 9.05443e-20)
(0.0454016 -0.283149 -1.94082e-21)
(0.0293183 -0.324732 -2.65385e-20)
(0.0107922 -0.36135 -2.0604e-20)
(-0.0117997 -0.390931 2.06885e-20)
(-0.041238 -0.411875 0)
(-0.0796505 -0.423182 -1.19011e-20)
(-0.128194 -0.42293 1.09109e-20)
(-0.182953 -0.408591 0)
(-0.233504 -0.375675 0)
(-0.265128 -0.317711 3.42383e-21)
(-0.266035 -0.232096 -1.02817e-21)
(-0.232034 -0.123931 -2.14225e-21)
(-0.166812 -0.00464279 -5.99198e-22)
(-0.0807748 0.103973 4.94923e-22)
(0.00719051 0.193906 7.08132e-22)
(0.0851053 0.251748 3.26631e-22)
(0.151937 0.283302 -1.00408e-21)
(0.210161 0.285401 -1.39324e-22)
(0.277423 0.254069 -1.10186e-23)
(0.372465 0.186806 0)
(0.490644 0.0976886 -6.75603e-22)
(0.613834 0.00672629 6.90955e-22)
(0.720019 -0.0654857 -5.02656e-23)
(0.800591 -0.112924 0)
(0.853621 -0.135484 5.72288e-23)
(0.885553 -0.141752 -9.08285e-22)
(0.901768 -0.136074 1.65263e-21)
(0.908956 -0.125804 7.46822e-23)
(0.910219 -0.11152 -4.42065e-23)
(0.909474 -0.0974101 -6.47832e-22)
(0.907385 -0.0812868 -8.00766e-23)
(0.90493 -0.0669385 5.34833e-22)
(0.900592 -0.0513993 -4.58214e-22)
(0.895302 -0.0383469 2.50351e-25)
(0.890046 -0.0235686 -1.72737e-22)
(0.88754 -0.0113001 2.06761e-22)
(0.88885 0.00216552 2.27245e-22)
(0.893995 0.0114277 -6.48524e-23)
(0.901947 0.0203784 -9.31052e-23)
(0.911012 0.0236932 1.69844e-22)
(0.920724 0.0265961 -1.12932e-22)
(0.929713 0.0245625 2.59872e-23)
(0.938497 0.0240788 -3.32909e-23)
(0.945328 0.0203306 -2.45872e-23)
(0.951965 0.0194969 4.91504e-23)
(0.956454 0.0159356 -1.49009e-24)
(0.962604 0.0160385 1.05264e-23)
(0.96657 0.0137034 0)
(0.974256 0.0154998 3.31587e-24)
(0.977353 0.0146092 -4.35416e-24)
(0.986419 0.0176511 0)
(0.26233 0.0971485 7.34786e-20)
(0.267592 0.0655285 -1.45497e-19)
(0.270106 0.0304942 7.13001e-20)
(0.270333 -0.00691534 7.3299e-20)
(0.267876 -0.0463735 -1.43677e-19)
(0.263544 -0.0878578 3.93622e-22)
(0.257852 -0.130749 6.84981e-20)
(0.250779 -0.174985 6.406e-20)
(0.242816 -0.220018 -6.26681e-20)
(0.234126 -0.265077 0)
(0.22433 -0.307777 -4.93399e-20)
(0.212852 -0.345208 9.09422e-20)
(0.198727 -0.374229 -4.17883e-20)
(0.179698 -0.392025 0)
(0.153905 -0.397167 0)
(0.117194 -0.389666 3.11026e-22)
(0.065884 -0.371353 -1.12941e-20)
(0.00251774 -0.343233 1.09652e-20)
(-0.062032 -0.301393 0)
(-0.112332 -0.239435 1.02007e-21)
(-0.132782 -0.154972 -2.40944e-22)
(-0.117798 -0.0520319 -2.61176e-21)
(-0.0686235 0.0510815 4.5442e-21)
(-0.00236544 0.140291 3.94945e-22)
(0.0697684 0.207252 -5.92654e-21)
(0.146955 0.245908 2.9379e-21)
(0.231588 0.247772 7.03236e-23)
(0.33304 0.209555 6.2103e-22)
(0.457455 0.134852 -1.70423e-22)
(0.589923 0.044405 -4.72357e-22)
(0.711023 -0.0405698 -3.51793e-23)
(0.804389 -0.1017 6.61662e-22)
(0.867495 -0.137307 -1.41914e-21)
(0.903634 -0.150115 8.51303e-22)
(0.921636 -0.149563 0)
(0.927798 -0.139755 9.58007e-22)
(0.928249 -0.127182 -9.28629e-22)
(0.925278 -0.111788 6.49115e-22)
(0.921753 -0.0973244 -8.10284e-22)
(0.918034 -0.0811874 7.79545e-23)
(0.915461 -0.0667515 0)
(0.91265 -0.0509085 6.13263e-23)
(0.909876 -0.0375983 -1.60931e-22)
(0.906481 -0.0229468 0)
(0.904315 -0.0112978 -3.81471e-22)
(0.904123 0.00130005 1.56019e-22)
(0.907042 0.00976317 -5.84546e-23)
(0.912658 0.0182206 -5.06692e-23)
(0.920126 0.0213373 0)
(0.928748 0.0242815 0)
(0.937196 0.0224259 8.69846e-23)
(0.945529 0.0222555 -1.27113e-22)
(0.951992 0.0188345 6.62885e-23)
(0.958103 0.018311 -1.98909e-23)
(0.961969 0.0148709 -2.9926e-23)
(0.967281 0.0150491 -1.05378e-23)
(0.970405 0.0126141 1.57608e-23)
(0.977098 0.0144912 0)
(0.97956 0.013531 7.0833e-24)
(0.987694 0.0168266 1.73831e-24)
(0.3966 0.100106 7.36328e-20)
(0.405948 0.0700955 -7.27838e-20)
(0.414041 0.038458 5.77633e-22)
(0.419871 0.00429304 -5.64491e-22)
(0.423223 -0.0327783 5.68538e-22)
(0.424681 -0.0727647 -5.5649e-22)
(0.425641 -0.114788 1.0659e-21)
(0.42585 -0.158725 0)
(0.425551 -0.20398 -9.66409e-22)
(0.424631 -0.249275 8.96944e-22)
(0.422432 -0.292419 8.14198e-22)
(0.417779 -0.330401 -7.25083e-22)
(0.409504 -0.359767 0)
(0.395458 -0.377248 0)
(0.375004 -0.380842 3.9409e-22)
(0.346168 -0.369318 0)
(0.306104 -0.343704 -1.92963e-22)
(0.253327 -0.308276 0)
(0.190229 -0.266537 -1.33881e-21)
(0.124302 -0.21654 -1.84114e-23)
(0.0706101 -0.153636 4.45046e-21)
(0.0416101 -0.0749183 -3.11507e-21)
(0.0488871 0.0120833 -4.54436e-21)
(0.0870805 0.0931103 4.41105e-21)
(0.14716 0.159827 3.84017e-21)
(0.226078 0.199005 -3.71467e-21)
(0.324074 0.198487 0)
(0.441657 0.156197 -3.43715e-23)
(0.574944 0.0800451 0)
(0.703697 -0.00582348 0)
(0.809869 -0.0803408 -7.48843e-22)
(0.883029 -0.129069 7.55329e-22)
(0.925664 -0.153685 -7.43664e-23)
(0.944879 -0.158588 -9.8408e-23)
(0.950398 -0.153161 9.75512e-23)
(0.948316 -0.14082 8.18367e-22)
(0.943542 -0.127095 -7.94488e-22)
(0.937544 -0.111291 8.23673e-22)
(0.932116 -0.096839 -7.07363e-22)
(0.927162 -0.0809624 -1.55837e-22)
(0.923884 -0.0668236 5.3311e-22)
(0.921429 -0.0511047 1.22842e-23)
(0.920145 -0.0377558 -3.47484e-22)
(0.918865 -0.0230776 0)
(0.918448 -0.0116352 1.61984e-22)
(0.918945 0.000526099 -1.93344e-22)
(0.921538 0.00844014 2.54956e-22)
(0.926176 0.0164568 5.10088e-23)
(0.932544 0.0193203 0)
(0.940071 0.0222303 -3.15806e-23)
(0.947552 0.0204981 6.62886e-23)
(0.954967 0.0206106 -3.53128e-27)
(0.960595 0.0175089 2.08493e-23)
(0.96586 0.0173018 -3.07931e-23)
(0.96887 0.0140027 2.99455e-23)
(0.973165 0.0142653 0)
(0.975309 0.0117398 -1.57701e-23)
(0.980788 0.0136666 0)
(0.982503 0.0126263 0)
(0.989409 0.0161067 -2.27539e-24)
(0.527434 0.0978456 -7.31793e-20)