/*--------------------------------*- C++ -*----------------------------------*\
| =========                 |                                                 |
| \\      /  F ield         | OpenFOAM: The Open Source CFD Toolbox           |
|  \\    /   O peration     | Version:  2312                                  |
|   \\  /    A nd           | Website:  www.openfoam.com                      |
|    \\/     M anipulation  |                                                 |
\*---------------------------------------------------------------------------*/
FoamFile
{
    version     2.0;
    format      ascii;
    arch        "LSB;label=32;scalar=64";
    class       surfaceScalarField;
    location    "45.5";
    object      phi;
}
// * * * * * * * * * * * * * * * * * * * * * * * * * * * * * * * * * * * * * //

dimensions      [0 3 -1 0 0 0 0];

oriented        oriented;

internalField   nonuniform List<scalar> 
1810
(
0.00846409
0.0288778
-0.0373419
0.111994
-0.0871365
-0.0163939
0.26117
-0.191358
0.0421818
0.414251
-0.291047
0.137966
0.588234
-0.378012
0.204029
-0.461666
0.351605
0.698295
0.0578396
-0.0289618
0.198116
-0.227413
0.319939
-0.313181
0.405882
-0.37699
0.460242
-0.432372
-0.489526
0.488101
0.110901
-0.139863
0.183491
-0.300003
0.212422
-0.342111
0.220895
-0.385463
0.23365
-0.445127
0.253222
-0.509098
-0.0338193
0.0470772
-0.0132579
-0.0709418
0.0555813
-0.0184587
-0.114553
0.062369
-0.0187577
-0.141856
0.0450143
-0.017712
-0.174337
0.0321897
0.000291849
-0.0302434
-0.17025
0.0261561
0.00404584
0.0430314
0.00704735
0.0525798
0.0227009
0.0467154
0.0684697
-0.000754445
0.135338
-0.0346789
-0.144276
0.249371
0.00568946
0.0418754
0.130773
0.267984
0.437335
0.644664
-0.165891
-0.0427033
0.0383443
-0.173514
-0.0650033
0.072627
-0.182385
-0.115464
0.124334
-0.169578
-0.127578
0.11477
-0.116236
-0.120788
0.0674467
-0.0300907
0.197562
-0.283708
0.0280065
0.322053
-0.38015
0.0407312
-0.221922
0.209198
0.137219
-0.572171
0.475683
0.339735
-0.191813
-0.0107031
0.417935
0.385252
-0.463451
0.48867
0.490088
-0.560823
0.595653
0.0926563
-0.199639
0.647929
-0.226661
0.174385
0.677798
-0.426858
0.396989
-0.348377
0.332712
0.198694
0.00797365
0.160895
-0.0272039
0.101771
-0.0563399
0.0701606
-0.0959674
0.0809981
-0.131625
0.154284
0.124277
0.278813
0.197523
0.274441
-0.21755
0.157341
-0.455071
0.178663
-0.213136
0.33667
0.227245
0.52204
0.304718
0.63659
-0.0218929
0.65086
-0.240931
0.648466
-0.424464
-0.363371
0.612096
0.0405412
0.575585
0.00930741
0.526878
-0.00763334
0.465912
-0.0350017
0.413309
-0.0790217
0.404914
0.132671
0.487071
0.115366
0.529346
-0.259825
0.438528
-0.364253
0.342561
-0.11717
0.43881
0.130996
0.588216
0.155312
0.660573
-0.0942505
0.670766
-0.251124
0.66783
-0.421528
-0.37611
0.707094
0.0540143
-0.720567
0.694443
0.0219584
0.679128
0.00768189
0.648495
-0.00436866
0.605287
-0.0358137
0.602565
0.135393
0.641474
0.0764569
0.609902
-0.228253
0.538152
-0.292502
0.484746
-0.0637639
0.518823
0.0969189
0.580196
0.0939389
0.589236
-0.10329
0.570247
-0.232135
0.555668
-0.406948
-0.373958
0.845367
0.056385
-0.847738
0.837299
0.0300272
0.82681
0.0181706
0.808569
0.0138721
0.792556
-0.0198005
0.833604
0.0943456
0.865984
0.0440767
0.795337
-0.157605
0.707133
-0.204299
0.688913
-0.0455437
0.723957
0.0618751
0.753794
0.064102
0.738485
-0.0879821
0.703545
-0.197195
0.679642
-0.383046
-0.372328
1.02072
0.0473829
-1.01172
1.01682
0.0339307
1.01386
0.0211328
1.00292
0.0248059
0.982016
0.00110517
1.0231
0.0532611
1.04597
0.0212115
0.989276
-0.100916
0.91678
-0.131803
0.8958
-0.0245637
0.922
0.0356746
0.936173
0.0499292
0.920132
-0.0719412
0.891614
-0.168676
0.864601
-0.356033
-0.363415
1.23161
0.0420498
-1.22627
1.2278
0.0377317
1.22348
0.0254533
1.22224
0.026047
1.21667
0.00668019
1.24405
0.0258829
1.25396
0.0113008
1.20294
-0.0498986
1.14873
-0.0775921
1.13944
-0.0152707
1.15663
0.0184862
1.16649
0.0400621
1.14545
-0.0508946
1.11168
-0.134913
1.08624
-0.330591
-0.356407
1.51136
0.0367934
-1.5061
1.51344
0.0356493
1.51143
0.0274664
1.51176
0.0257176
1.50408
0.0143548
1.51442
0.015546
1.52062
0.00509817
1.49441
-0.0236907
1.46043
-0.0436116
1.44735
-0.00218974
1.45607
0.00976982
1.46012
0.0360112
1.43923
-0.030008
1.40171
-0.0973909
1.36506
-0.293942
-0.340895
1.86039
0.031896
-1.85549
1.86321
0.0328229
1.86261
0.0280745
1.86191
0.0264126
1.85815
0.018115
1.85903
0.014669
1.85768
0.00644876
1.83815
-0.00416201
1.81496
-0.0204251
1.81317
-0.000394252
1.82175
0.00118904
1.8223
0.0354624
1.8017
-0.00940745
1.76518
-0.0608794
1.72706
-0.255823
-0.323533
2.31075
0.0253472
-2.3042
2.31746
0.0261177
2.32187
0.0236592
2.32538
0.0229022
2.32588
0.0176165
2.3252
0.0153503
2.32379
0.00786212
2.31472
0.00490514
2.30219
-0.00789532
2.29629
0.00550892
2.2966
0.000876677
2.30109
0.0309658
2.28441
0.0072792
2.24426
-0.0207295
2.19058
-0.202149
-0.287239
2.90112
0.0183497
-2.89412
2.90802
0.019209
2.91374
0.0179451
2.91859
0.0180508
2.92124
0.0149653
2.92278
0.0138113
2.92233
0.00831296
2.91954
0.00769316
2.91397
-0.00232662
2.91259
0.00688912
2.91662
-0.0031499
2.92189
0.0256987
2.90827
0.0208941
2.86884
0.0187007
2.8092
-0.142508
-0.244632
3.64973
0.0096557
-3.64104
3.65905
0.00988962
3.6676
0.00939795
3.67661
0.00904262
3.68399
0.00757941
3.69066
0.00714814
3.69527
0.00369987
3.69792
0.00503844
3.69844
-0.00284311
3.70017
0.00515813
3.69761
-0.000590322
3.71005
0.0132631
3.71263
0.0183081
3.68562
0.045716
3.6041
-0.0609908
-0.159558
4.96463
-4.95498
4.97452
4.98392
4.99296
5.00054
5.00769
5.01139
5.01643
5.01358
5.01874
5.01815
5.03142
5.04972
5.09544
5.03445
0.613
0.22863
-0.588409
0.667917
0.433185
0.645645
0.755734
0.204117
-0.73122
0.790779
0.398139
0.588685
0.92872
0.180045
-0.904648
0.959965
0.366895
0.536931
1.15021
0.158933
-1.12909
1.18195
0.33515
0.492609
1.4232
0.139479
-1.40375
1.45828
0.300065
0.444792
1.75985
0.119714
-1.74009
1.79958
0.260335
0.388884
2.19015
0.0960745
-2.16651
2.23679
0.2137
0.321467
2.76038
0.0695059
-2.73381
2.81465
0.159426
0.241997
3.46869
0.0385664
-3.43776
3.53741
0.0907082
0.138371
4.7259
-4.68733
4.8166
0.251045
0.446745
-0.39258
-0.305209
0.17958
0.409437
-0.337973
0.114378
0.351007
-0.285805
0.0640891
0.324512
-0.274223
0.0208466
0.304131
-0.260888
0.237003
-0.216156
0.081869
0.501345
-0.136469
0.0437102
0.447596
0.00670078
0.388016
-0.0120003
0.343213
-0.0260036
0.318134
0.210999
-0.0953908
0.0876381
-0.0929212
-0.0903685
-0.089267
-0.0711361
0.485467
0.161638
-0.614494
-0.0326106
0.37048
0.143875
-0.0288888
0.258134
0.136712
-0.0243654
0.157844
0.121454
-0.0211636
0.068554
0.109127
-0.0198376
0.0907842
-0.0222302
0.436749
0.282091
-0.557202
0.344089
0.236535
0.260304
0.220497
0.165933
0.215825
0.0774095
0.197651
0.168194
0.336343
-0.446832
0.234906
0.169598
0.1112
0.0479623
0.719585
0.588786
-0.612012
0.703953
0.373925
-0.358294
0.730965
0.235993
-0.263004
0.710853
0.162168
-0.142056
0.715962
0.111113
-0.116222
0.69295
0.109864
-0.0868514
0.687804
0.0785748
-0.0734288
0.662582
0.0842259
-0.0590035
0.64445
0.0665565
-0.0484246
0.0698337
-0.0398783
0.714381
0.570763
0.700598
0.387709
0.699514
0.237077
0.67256
0.189122
0.668155
0.115518
0.644042
0.133977
0.635111
0.0875059
0.610816
0.108521
0.588961
0.088411
0.101593
0.669419
0.597703
0.652054
0.405073
0.642224
0.246907
0.600512
0.230834
0.57997
0.13606
0.550668
0.163278
0.529697
0.108477
0.50058
0.137638
0.47727
0.111721
0.132031
0.552598
0.597765
0.54729
0.410381
0.56623
0.227968
0.5516
0.245464
0.545339
0.142321
0.528503
0.180113
0.528323
0.108657
0.517582
0.14838
0.524868
0.104435
0.123047
0.533852
0.703811
0.580006
0.677793
0.4364
0.690535
0.215226
0.67969
0.256309
0.673368
0.148643
0.660109
0.193373
0.658734
0.110031
0.659421
0.147693
0.663485
0.100371
0.108242
0.67829
0.88315
0.548498
0.864406
0.455145
0.860945
0.218686
0.845268
0.271986
0.839108
0.154803
0.836938
0.195542
0.831811
0.115158
0.840368
0.139137
0.847732
0.0930062
0.094346
0.861628
1.07735
0.528351
1.07794
0.454548
1.07896
0.217673
1.07013
0.280813
1.06747
0.157465
1.07362
0.189391
1.07339
0.115383
1.08866
0.123868
1.09816
0.0835131
0.0798345
1.11267
1.32269
0.518033
1.32784
0.449394
1.33484
0.210681
1.35024
0.265409
1.3537
0.154005
1.37247
0.170617
1.37898
0.108876
1.39694
0.10591
1.40684
0.0736128
0.0661777
1.4205
1.63992
0.507248
1.65611
0.433207
1.66157
0.205217
1.69005
0.236931
1.70282
0.141229
1.72792
0.145518
1.74088
0.0959206
1.75916
0.0876256
1.77076
0.0620138
0.0538407
1.7831
2.04158
0.488018
2.0787
0.396089
2.0878
0.196113
2.12451
0.20022
2.14256
0.12318
2.17188
0.116201
2.18928
0.0785267
2.20814
0.0687561
2.22124
0.0489221
0.0414685
2.23361
2.55742
0.441071
2.619
0.33451
2.65077
0.164348
2.69547
0.155513
2.72495
0.0937057
2.75621
0.0849391
2.77814
0.0565929
2.79801
0.0488887
2.81244
0.0344931
0.0289356
2.82497
3.20706
0.35043
3.30164
0.239929
3.35151
0.114479
3.41068
0.0963449
3.44767
0.0567166
3.48418
0.0484223
3.50886
0.0319211
3.53096
0.0267845
3.54655
0.0189061
0.0156121
3.55987
4.21905
4.45898
4.57345
4.6698
4.72652
4.77494
4.80686
4.83364
4.85255
4.86816
0.539175
-0.310532
0.562793
-0.160087
0.0620221
0.694053
-0.326295
0.70374
-0.169775
0.0345419
0.875213
-0.33988
0.880401
-0.174963
0.0102948
1.11367
-0.340883
1.11575
-0.177038
-0.00305294
1.4024
-0.322788
1.39635
-0.170992
-0.0104444
1.74985
-0.289542
1.73537
-0.156506
-0.0151655
2.18828
-0.244212
2.166
-0.134231
-0.0156729
2.76528
-0.184519
2.73429
-0.103242
-0.0151877
3.48411
-0.108759
3.44291
-0.0620418
-0.0100311
4.7594
4.69736
0.0159064
0.0165779
-0.0324843
-0.0580402
0.0739466
0.106748
-0.164788
-0.122751
0.12894
0.0103885
-0.249281
0.200477
0.157979
-0.300512
-0.221023
0.270302
0.0796607
-0.321146
0.3006
0.173015
-0.336181
-0.311945
0.40902
0.173227
-0.382084
0.370739
0.175866
-0.384936
-0.387947
0.573366
0.223602
-0.421976
0.404767
0.178803
-0.424912
-0.44609
0.342567
0.676889
-0.45261
0.411287
0.201385
-0.475192
0.0202597
-0.0335177
0.0287059
-0.00844615
-0.00377843
0.0198543
-0.0718307
0.0282472
-0.0168391
0.0348573
0.0230823
-0.113671
0.0114904
-0.00524715
0.126008
-0.000241515
-0.131141
-0.0475054
0.0420167
0.25173
0.0216456
-0.152495
-0.057168
0.12083
0.418164
-0.0032346
-0.123104
-0.144372
0.261967
0.616358
0.0184688
-0.103229
0.0279783
0.252458
0.601738
0.0425982
0.0615781
-0.0921798
0.0445697
0.269466
0.592429
0.053879
0.0866768
-0.0545224
0.0458984
0.310245
0.592229
0.0460982
0.0834558
-0.0232077
0.0385145
0.355186
0.612205
0.0185391
0.00188924
0.0423498
-0.0342626
0.391338
0.603401
-0.0254592
-0.305932
0.0645738
-0.315062
0.400469
0.556854
-0.268515
-0.338334
0.022758
-0.285062
0.347197
0.53055
-0.258758
0.12314
0.108816
0.045295
0.425042
0.611273
-0.0354289
0.240416
0.344083
0.0886717
0.576787
0.737325
-0.0373802
-0.30046
0.63384
-0.38784
0.664167
0.666358
-0.316873
-0.511381
0.681769
-0.566432
0.719218
0.592796
-0.49287
-0.451441
0.572387
-0.381665
0.649442
0.590185
-0.379053
-0.193545
0.566293
-0.0964716
0.552369
0.539166
-0.0454529
0.11207
0.628607
0.114519
0.549921
0.508513
0.145172
0.355651
0.669945
0.32018
0.585392
0.543011
0.285682
0.325897
0.302256
0.254521
0.0533793
0.678689
-0.68947
0.0491214
0.807556
-0.803298
0.03667
0.970203
-0.957751
0.0261662
1.17314
-1.16264
0.0147367
1.41818
-1.40675
0.00583098
1.70376
-1.69485
-0.00201111
2.03764
-2.0298
-0.0050636
2.41413
-2.41108
-0.0066014
2.86657
-2.86503
2.9235
-2.9301
0.0502501
0.682318
0.0375356
0.820271
0.02599
0.981748
0.0169493
1.18218
0.00885333
1.42628
0.00126535
1.71135
-0.0056043
2.04451
-0.00857926
2.4171
-0.0101128
2.8681
2.91339
0.0466908
0.681725
0.0354343
0.831527
0.0194141
0.997768
0.0102578
1.19134
0.00159367
1.43494
-0.0028308
1.71577
-0.00800556
2.04968
-0.00990021
2.419
-0.0110214
2.86923
2.90236
0.00469003
0.695574
-0.00371819
0.839935
-0.0112616
1.00531
-0.0145369
1.19461
-0.0146777
1.43508
-0.0145025
1.71559
-0.0160068
2.05119
-0.0160933
2.41909
-0.0170108
2.87014
2.88535
-0.0343386
0.704454
-0.0344083
0.840005
-0.0334643
1.00437
-0.0329669
1.19412
-0.0282367
1.43035
-0.0237025
1.71106
-0.0212411
2.04873
-0.0190219
2.41687
-0.0182998
2.86942
2.86705
-0.204379
0.640318
-0.14049
0.776116
-0.0993912
0.963269
-0.0676137
1.16234
-0.0517086
1.41445
-0.039548
1.6989
-0.03375
2.04293
-0.0281234
2.41124
-0.0257657
2.86706
2.84129
-0.208337
0.589897
-0.166756
0.734535
-0.123253
0.919765
-0.0956351
1.13472
-0.0690588
1.38787
-0.0534954
1.68334
-0.0413789
2.03081
-0.0324392
2.4023
-0.0256562
2.86028
2.81563
-0.0531492
0.607617
-0.0806355
0.762022
-0.084529
0.923659
-0.0878214
1.13801
-0.0820335
1.38209
-0.0713115
1.67261
-0.0579722
2.01747
-0.0429579
2.38729
-0.0292503
2.84657
2.78638
-0.0789164
0.649153
-0.0838207
0.766926
-0.100746
0.940584
-0.0962958
1.13356
-0.09345
1.37924
-0.0786248
1.65779
-0.0638123
2.00266
-0.0442318
2.36771
-0.0210692
2.82341
2.76531
-0.28605
0.61833
-0.243835
0.72471
-0.217775
0.914524
-0.18243
1.09822
-0.149779
1.34659
-0.118238
1.62625
-0.0876859
1.97211
-0.052876
2.3329
-0.0121985
2.78273
2.75311
-0.418545
0.544005
-0.361807
0.667973
-0.294599
0.847316
-0.234665
1.03829
-0.180378
1.2923
-0.133945
1.57982
-0.0886785
1.92684
-0.0387348
2.28295
0.0139936
2.73
2.76711
-0.330437
0.495389
-0.289353
0.626889
-0.240682
0.798646
-0.198665
0.996268
-0.155701
1.24934
-0.112232
1.53635
-0.0654361
1.88004
-0.0103803
2.2279
0.0450653
2.67456
2.81217
-0.0137831
0.463719
-0.00277025
0.615876
-0.00328028
0.799156
-0.007463
1.00045
0.00167836
1.24019
0.0192909
1.51873
0.0479008
1.85143
0.0785593
2.19724
0.103834
2.64928
2.91601
0.161933
0.446958
0.156622
0.621187
0.140026
0.815751
0.123368
1.01711
0.117274
1.24629
0.12027
1.51574
0.128763
1.84294
0.132494
2.19351
0.125265
2.65651
3.04127
0.26485
0.467789
0.249399
0.636638
0.243116
0.822035
0.24134
1.01888
0.242523
1.24511
0.24112
1.51714
0.23595
1.84811
0.207911
2.22155
0.159449
2.70498
3.20072
0.227767
0.214754
0.213829
0.216417
0.216392
0.210806
0.198563
0.165687
0.116236
0.197287
0.575958
-0.57186
0.178134
0.717721
-0.698569
0.150855
0.883329
-0.856049
0.119244
1.07795
-1.04634
0.0919222
1.30875
-1.28143
0.0685105
1.58515
-1.56174
0.047132
1.91351
-1.89214
0.0288829
2.28066
-2.26241
0.0106193
2.72054
-2.70228
2.79902
-2.7884
0.364909
0.622337
0.342201
0.740429
0.318251
0.907278
0.284317
1.11189
0.243456
1.34961
0.199807
1.6288
0.154261
1.95906
0.104578
2.33034
0.0495683
2.77555
2.84859
0.609756
0.546887
0.496414
0.445664
0.388519
0.322465
0.251729
0.170996
0.0815148
0.392785
0.285605
-0.334712
-0.343678
0.456829
0.126376
-0.19042
-0.0471151
0.0287521
0.374299
0.223578
-0.312273
0.416394
0.0842807
-0.0556329
0.340288
0.148528
-0.265238
0.379487
0.0450817
-0.061081
0.303303
0.0832968
-0.238072
0.335201
0.0131843
-0.0620614
0.282102
0.0323392
-0.231144
0.309657
-0.0143709
-0.0529167
0.232076
-0.199737
0.217705
0.0978111
0.498629
-0.629051
0.230224
0.467742
-0.600154
0.396579
-0.501067
0.0869807
0.38276
0.198896
0.355826
0.283202
0.0831661
0.275228
0.174889
0.264103
0.192853
0.0774995
0.176565
0.169037
0.172566
0.123818
0.0741941
0.0825332
0.164467
0.0822924
0.0571412
0.060303
0.142595
-0.624247
0.708594
-0.620179
0.69229
0.685796
-0.609616
-0.356277
0.706576
-0.35847
0.694483
0.685317
-0.357991
-0.289054
0.732626
-0.303149
0.708579
0.661856
-0.279688
-0.128291
0.718861
-0.123499
0.703787
0.651092
-0.112735
-0.128664
0.731303
-0.136252
0.711374
0.639901
-0.125061
-0.0659483
0.7104
-0.0523343
0.69776
0.624255
-0.0366888
-0.068994
0.705965
-0.0617671
0.690533
0.597428
-0.0349393
-0.0329043
0.679866
-0.00503831
0.662667
0.563898
0.0284913
-0.0298865
0.661327
-0.00403049
0.636811
0.534817
0.0250502
-0.00760147
0.0290556
0.0628061
-0.628068
0.571111
-0.643144
0.701129
-0.639479
0.847978
-0.629842
1.04756
-0.613895
1.29642
-0.590067
1.60531
-0.551648
1.98393
-0.488119
2.44695
-0.385925
3.01423
3.48269
-0.338434
0.551554
-0.312275
0.674971
-0.305382
0.841084
-0.305785
1.04797
-0.309576
1.30022
-0.312948
1.60868
-0.308477
1.97946
-0.285603
2.42407
-0.230818
2.95944
3.25187
-0.275399
0.547265
-0.280049
0.67962
-0.280128
0.841164
-0.268133
1.03597
-0.247917
1.28
-0.225104
1.58587
-0.198945
1.9533
-0.167791
2.39292
-0.125823
2.91747
3.12605
-0.106558
0.541088
-0.102809
0.675871
-0.100368
0.838723
-0.100763
1.03636
-0.104233
1.28347
-0.110776
1.59241
-0.109397
1.95192
-0.0978033
2.38132
-0.0696125
2.88928
3.05644
-0.129201
0.545228
-0.121658
0.668328
-0.101631
0.818697
-0.0868942
1.02163
-0.0762987
1.27287
-0.0690774
1.58519
-0.0618665
1.94471
-0.0522671
2.37173
-0.0376513
2.87467
3.01879
-0.0248564
0.533396
-0.0164642
0.659935
-0.0141125
0.816345
-0.0161584
1.02367
-0.0219384
1.27865
-0.0282075
1.59146
-0.0325323
1.94904
-0.0318476
2.37104
-0.0238094
2.86663
2.99498
-0.0246761
0.523133
-0.0146534
0.649913
-0.0151075
0.816799
-0.0171657
1.02573
-0.0169574
1.27845
-0.0164312
1.59093
-0.0182326
1.95084
-0.0169322
2.36974
-0.013046
2.86274
2.98193
0.0352458
0.516378
0.0288243
0.656334
0.0207967
0.824826
0.0147845
1.03174
0.00720928
1.28602
-0.000751574
1.59889
-0.00888659
1.95897
-0.011502
2.37236
-0.00967187
2.86091
2.97226
0.0283204
0.513108
0.0281262
0.656528
0.0203587
0.832594
0.0132903
1.03881
0.00711778
1.29219
0.0016466
1.60436
-0.00464435
1.96526
-0.00607409
2.37379
-0.00536894
2.86021
2.96689
0.0583519
0.517562
0.0473403
0.66754
0.0382308
0.841703
0.0279579
1.04909
0.0160105
1.30414
0.00618225
1.61419
-0.00157889
1.97302
-0.00440391
2.37661
-0.00470936
2.86051
2.96218
-0.35711
0.530995
-0.36901
0.679439
-0.367424
0.840118
-0.355853
1.03751
-0.333107
1.28139
-0.29707
1.57815
-0.246067
1.92202
-0.18063
2.31117
-0.0926465
2.77253
2.86954
-0.208135
0.548709
-0.203381
0.674685
-0.200746
0.837483
-0.200614
1.03738
-0.195648
1.27643
-0.179521
1.56203
-0.152757
1.89526
-0.114018
2.27243
-0.0598608
2.71837
2.80967
0.00560154
-0.0182824
-0.0368482
-0.045807
-0.0508062
-0.0505151
-0.0473936
-0.0373714
-0.0212769
)
;

boundaryField
{
    outlet
    {
        type            calculated;
        value           nonuniform List<scalar> 
26
(
0.693463
0.663459
0.680569
0.553515
0.678012
0.855688
1.07923
1.34955
1.7097
2.15429
2.76659
3.51903
4.87489
0.676761
0.609032
0.590746
0.494544
0.64965
0.82296
1.0163
1.24513
1.52273
1.86035
2.25442
2.75443
3.31696
)
;
    }
    upperWall
    {
        type            symmetryPlane;
        value           uniform 0;
    }
    lowerWall
    {
        type            symmetryPlane;
        value           uniform 0;
    }
    inlet
    {
        type            calculated;
        value           nonuniform List<scalar> 
26
(
-0.696359
-0.696359
-0.696359
-0.55266
-0.686053
-0.851642
-1.0572
-1.31237
-1.62913
-2.02235
-2.51048
-3.11642
-3.86862
-0.696359
-0.696359
-0.696359
-0.55266
-0.686053
-0.851642
-1.0572
-1.31237
-1.62913
-2.02235
-2.51048
-3.11642
-3.86862
)
;
    }
    cylinder
    {
        type            calculated;
        value           uniform 0;
    }
    frontAndBack
    {
        type            empty;
        value           nonuniform List<scalar> 0();
    }
}


// ************************************************************************* //
