/*--------------------------------*- C++ -*----------------------------------*\
| =========                 |                                                 |
| \\      /  F ield         | OpenFOAM: The Open Source CFD Toolbox           |
|  \\    /   O peration     | Version:  2312                                  |
|   \\  /    A nd           | Website:  www.openfoam.com                      |
|    \\/     M anipulation  |                                                 |
\*---------------------------------------------------------------------------*/
FoamFile
{
    version     2.0;
    format      ascii;
    arch        "LSB;label=32;scalar=64";
    class       surfaceScalarField;
    location    "65.6";
    object      phi;
}
// * * * * * * * * * * * * * * * * * * * * * * * * * * * * * * * * * * * * * //

dimensions      [0 3 -1 0 0 0 0];

oriented        oriented;

internalField   nonuniform List<scalar> 
10785
(
-0.00137579
0.00456193
-0.00318615
-0.00172957
0.00743783
-0.00708404
0.00170304
0.0047939
-0.00822651
0.01188
-0.00481843
-0.00535848
0.031039
-0.0222237
0.00306465
0.0592579
-0.0456057
0.0173867
0.0939635
-0.0716042
0.0368987
0.131188
-0.097048
0.0598231
0.166545
-0.119609
0.0842529
0.196549
-0.138108
0.108104
0.218196
-0.152107
0.13046
0.232233
-0.162341
0.148304
0.238892
-0.170956
0.164297
0.242621
-0.177226
0.173497
-0.18845
0.18469
0.246382
-0.000657346
0.00521928
0.00104686
0.00573363
0.00891726
-0.00307651
0.0264319
-0.0223331
0.053556
-0.0493477
0.0864393
-0.078489
0.119794
-0.104959
0.148963
-0.126217
0.171175
-0.141821
0.185919
-0.152852
0.195053
-0.161241
0.201888
-0.169176
0.208436
-0.177503
0.217745
-0.186535
-0.19659
0.225885
0.000321364
0.00489792
0.00513474
0.000920252
0.0192316
-0.0171734
0.0437932
-0.0468946
0.074027
-0.0795815
0.103397
-0.107859
0.127231
-0.128793
0.143958
-0.142944
0.154826
-0.152688
0.162588
-0.160614
0.169828
-0.168482
0.177302
-0.17665
0.184754
-0.184955
0.191096
-0.192877
-0.200924
0.19543
0.00137892
0.00351899
0.0103035
-0.00800432
0.0307355
-0.0376054
0.0581563
-0.0743154
0.0845445
-0.10597
0.104949
-0.128264
0.118663
-0.142506
0.127757
-0.152038
0.134805
-0.159736
0.1413
-0.167109
0.147281
-0.174463
0.15258
-0.181949
0.157211
-0.189585
0.16202
-0.197686
-0.20675
0.167846
0.00271409
0.000804907
0.0164287
-0.0217189
0.0403432
-0.0615199
0.0647919
-0.0987642
0.0835418
-0.12472
0.0958372
-0.140559
0.103806
-0.150475
0.109669
-0.157901
0.114563
-0.16463
0.118797
-0.171343
0.122726
-0.178393
0.126668
-0.185891
0.130832
-0.19375
0.13521
-0.202064
-0.210222
0.138681
0.00455704
-0.00375214
0.0221513
-0.0393131
0.0448484
-0.084217
0.0632388
-0.117155
0.0751789
-0.13666
0.0823986
-0.147779
0.0870691
-0.155146
0.0905477
-0.16138
0.0935222
-0.167605
0.0964002
-0.174221
0.0992561
-0.181248
0.101968
-0.188603
0.104507
-0.196289
0.106725
-0.204282
-0.212759
0.109262
0.0067703
-0.0105224
0.0256283
-0.0581711
0.0439913
-0.10258
0.0564115
-0.129575
0.0634437
-0.143692
0.0672787
-0.151614
0.0696379
-0.157505
0.0714389
-0.163181
0.0730209
-0.169187
0.0743878
-0.175587
0.0755385
-0.182399
0.0765829
-0.189647
0.0775913
-0.197297
0.0787348
-0.205425
-0.21369
0.0796654
0.00865485
-0.0191773
0.0258015
-0.0753178
0.0393174
-0.116096
0.0468853
-0.137143
0.0503534
-0.14716
0.0518066
-0.153067
0.0524404
-0.158139
0.0526932
-0.163434
0.0526698
-0.169163
0.0524506
-0.175368
0.0521025
-0.182051
0.0516332
-0.189178
0.0511038
-0.196767
0.0504218
-0.204743
0.0498824
-0.21315
-0.00121967
0.00526512
-0.00404545
-0.00423554
0.0154205
-0.0124047
-0.0087231
0.0229344
-0.0184469
-0.0141459
0.0284904
-0.0230677
-0.0199769
0.0338315
-0.0280005
-0.0257676
0.0398404
-0.0340497
-0.0310346
0.0464355
-0.0411686
-0.0351587
0.0531075
-0.0489834
-0.0373911
0.0591565
-0.0569241
-0.036898
0.0637071
-0.0642002
-0.0328807
0.065805
-0.0698223
-0.0247514
0.0644707
-0.0726001
-0.0120711
0.0585872
-0.0712675
0.0053829
0.0471883
-0.0646423
0.0310481
0.0262745
-0.0519396
-7.79358e-05
0.00534306
-0.000998576
0.0163412
-0.00304526
0.0249811
-0.00569283
0.031138
-0.0081337
0.0362724
-0.00962813
0.0413349
-0.00952619
0.0463336
-0.00716058
0.0507419
-0.00181204
0.0538079
0.00715633
0.0547388
0.0203385
0.0526228
0.0380258
0.0467835
0.0596334
0.0369795
0.0855709
0.0212508
0.00338204
0.113237
0.000919808
0.00442325
0.00218254
0.0150784
0.00302073
0.0241429
0.00365704
0.0305017
0.00496813
0.0349613
0.0079096
0.0383934
0.0132794
0.0409638
0.0217236
0.0422977
0.0337202
0.0418113
0.0497506
0.0387084
0.0694517
0.0329217
0.0934687
0.0227665
0.120403
0.0100453
0.150494
-0.0088407
-0.0314299
0.185306
0.00140367
0.00301958
0.00422935
0.0122528
0.00755105
0.0208212
0.0112516
0.0268012
0.015961
0.0302519
0.022588
0.0317664
0.0319218
0.03163
0.0445562
0.0296634
0.0605209
0.0258466
0.0804935
0.0187358
0.103221
0.0101945
0.130229
-0.00424206
0.160867
-0.0205926
0.194641
-0.0426147
-0.0719
0.235111
0.0012192
0.00180038
0.00437531
0.00909666
0.00890848
0.0162881
0.0145378
0.0211719
0.0215273
0.0232624
0.0304736
0.02282
0.0419637
0.02014
0.0564712
0.0151558
0.0743055
0.00801226
0.0961666
-0.00312518
0.122266
-0.0159047
0.153911
-0.0358877
0.190237
-0.0569179
0.23261
-0.084988
-0.117622
0.278332
0.000483767
0.00131661
0.00268652
0.00689391
0.00672898
0.0122456
0.0124482
0.0154527
0.0199216
0.015789
0.0296022
0.0131394
0.0422854
0.00745686
0.0589002
-0.00145908
0.0810171
-0.0141047
0.108528
-0.0306364
0.143447
-0.0508237
0.183499
-0.0759395
0.227766
-0.101185
0.274541
-0.131763
-0.157143
0.314061
-0.000531194
0.00184781
1.07636e-05
0.00635195
0.00240923
0.00984714
0.00708594
0.010776
0.014653
0.00822186
0.026422
0.00137044
0.0438756
-0.00999673
0.0681794
-0.0257629
0.0998245
-0.0457498
0.137329
-0.0681404
0.179989
-0.0934844
0.222094
-0.118045
0.263373
-0.142464
0.295866
-0.164255
-0.177359
0.316082
-0.00133834
-0.00207043
-0.000449799
0.0049677
0.0162542
0.0350114
0.0619133
0.0959735
0.134477
0.17444
0.211416
0.241675
0.263508
0.272749
0.28008
0.0701239
0.000363617
-0.0442131
0.11092
-0.140376
0.0995802
0.146247
-0.280431
0.245104
0.174898
-0.34923
0.320579
0.152989
-0.328953
0.350861
0.107854
-0.349288
0.394423
0.130044
-0.281718
0.259528
0.188429
-0.0292284
-0.0291573
0.235816
0.191121
-0.238508
0.252691
0.28128
-0.298155
0.236546
0.358973
-0.342828
0.216845
0.433133
-0.413432
0.229113
0.330913
-0.34318
0.255945
0.0808655
-0.107698
0.26444
-0.137487
0.128992
0.262456
-0.315466
0.31745
0.267336
-0.448141
0.443261
0.270803
-0.403465
0.399998
0.272662
-0.218968
0.217109
0.278683
0.122084
-0.128105
0.289875
0.471001
-0.482192
0.297314
0.606624
-0.614064
0.280779
0.444975
-0.42844
0.249034
0.000850621
0.0308948
0.238039
-0.425318
0.436313
0.250751
-0.431453
0.418741
0.257989
-0.05409
0.0468519
0.247086
0.307087
-0.296185
0.22339
0.381912
-0.358216
0.201955
0.21493
-0.193494
0.191033
-0.05952
0.0704413
0.191649
-0.280284
0.279668
0.205543
-0.348228
0.334334
0.224229
-0.305689
0.287003
0.236267
-0.242757
0.230719
0.238156
-0.149308
0.147419
0.238965
-0.122141
0.121333
-0.0329486
0.0299157
0.144478
-0.0308771
0.170272
-0.166171
0.176315
-0.286474
0.182775
-0.35569
0.171501
-0.317678
0.119003
-0.29679
0.112916
-0.275631
0.172152
-0.0884643
0.23009
0.133183
0.24989
0.261481
0.233216
0.375647
0.216081
0.450268
0.231049
0.315945
0.259566
0.0523484
0.264359
-0.142279
0.256383
-0.30749
0.260492
-0.45225
0.264383
-0.407356
0.264536
-0.219122
0.274838
0.111782
0.295096
0.450743
0.307585
0.594136
0.29014
0.46242
0.252716
0.0382746
0.236922
-0.409523
0.251062
-0.445594
0.261199
-0.0642269
0.250853
0.317433
0.226867
0.405899
0.205346
0.23645
0.194538
-0.0487112
0.194112
-0.279859
0.205805
-0.35992
0.225077
-0.324962
0.24053
-0.25821
0.24457
-0.153348
0.243453
-0.121024
-0.0337958
0.207085
-0.0526562
0.221743
-0.180829
0.213821
-0.278551
0.190267
-0.332136
0.176675
-0.304087
0.137614
-0.257729
0.116489
-0.254506
0.164801
-0.136776
0.22608
0.0719037
0.255145
0.232416
0.2444
0.386391
0.22615
0.468518
0.235587
0.306508
0.262137
0.0257979
0.265369
-0.145511
0.249558
-0.291679
0.249529
-0.452221
0.254468
-0.412295
0.253412
-0.218066
0.266708
0.0984869
0.295426
0.422024
0.313615
0.575947
0.296524
0.479511
0.254642
0.080157
0.233962
-0.388844
0.248734
-0.460366
0.262607
-0.0780999
0.254079
0.32596
0.230357
0.429621
0.208389
0.258418
0.197308
-0.0376307
0.196441
-0.278992
0.206119
-0.369597
0.224319
-0.343162
0.242131
-0.276022
0.249542
-0.160758
0.248098
-0.119581
-0.0329663
0.252935
-0.0704803
0.254811
-0.182704
0.238353
-0.262094
0.198874
-0.292658
0.173896
-0.279108
0.148722
-0.232554
0.126908
-0.232693
0.168758
-0.178626
0.228767
0.0118946
0.251856
0.209328
0.239814
0.398433
0.227608
0.480725
0.23608
0.298035
0.259588
0.00229043
0.264714
-0.150637
0.242451
-0.269415
0.235712
-0.445483
0.242776
-0.419359
0.241912
-0.217203
0.256346
0.0840535
0.290621
0.387749
0.313965
0.552602
0.298825
0.494651
0.254761
0.124221
0.229591
-0.363674
0.24414
-0.474914
0.262232
-0.0961928
0.256825
0.331368
0.233921
0.452525
0.211317
0.281022
0.199436
-0.0257503
0.19815
-0.277705
0.206461
-0.377909
0.222909
-0.35961
0.241607
-0.29472
0.252559
-0.17171
0.25226
-0.119282
-0.0312505
0.292141
-0.0842889
0.276052
-0.166615
0.240868
-0.22691
0.197577
-0.249367
0.165524
-0.247056
0.150789
-0.217819
0.130875
-0.212779
0.162413
-0.210164
0.227019
-0.0527112
0.259016
0.177331
0.261109
0.39634
0.250176
0.491658
0.243645
0.304566
0.254952
-0.00901657
0.260106
-0.155791
0.234298
-0.243608
0.218978
-0.430163
0.228589
-0.42897
0.230224
-0.218837
0.244233
0.0700437
0.281882
0.350101
0.310881
0.523603
0.298383
0.507149
0.253023
0.16958
0.223747
-0.334398
0.237407
-0.488574
0.260205
-0.118991
0.258718
0.332855
0.237044
0.474199
0.214045
0.304022
0.201116
-0.0128209
0.199102
-0.275692
0.206527
-0.385333
0.22134
-0.374423
0.239747
-0.313127
0.253632
-0.185596
0.255492
-0.121142
-0.029513
0.311249
-0.0814765
0.282565
-0.137931
0.236047
-0.180392
0.193546
-0.206866
0.160433
-0.213943
0.146199
-0.203584
0.129686
-0.196266
0.142485
-0.222963
0.210604
-0.12083
0.252251
0.135684
0.258486
0.390104
0.253396
0.496748
0.245286
0.312676
0.248084
-0.0118142
0.252639
-0.160345
0.226343
-0.217312
0.202056
-0.405876
0.212488
-0.439401
0.219491
-0.22584
0.232834
0.0567003
0.269235
0.3137
0.301236
0.491603
0.292818
0.515567
0.248964
0.213434
0.21659
-0.302024
0.228734
-0.500719
0.256288
-0.146544
0.259815
0.329328
0.240054
0.493959
0.216678
0.327397
0.202459
0.00139806
0.199379
-0.272611
0.206061
-0.392015
0.219685
-0.388047
0.237212
-0.330654
0.253104
-0.201488
0.257598
-0.125636
-0.0285283
0.297718
-0.0631126
0.263556
-0.103768
0.221477
-0.138314
0.185142
-0.170531
0.15848
-0.18728
0.141158
-0.186262
0.125624
-0.180732
0.116576
-0.213916
0.172321
-0.176575
0.239931
0.0680743
0.271299
0.358736
0.274766
0.493281
0.255603
0.331839
0.24018
0.00360869
0.240122
-0.160288
0.214775
-0.191964
0.1848
-0.375901
0.193749
-0.44835
0.207556
-0.239648
0.220842
0.0434145
0.254914
0.279628
0.290565
0.455952
0.286597
0.519534
0.243575
0.256457
0.208188
-0.266637
0.218023
-0.510553
0.250651
-0.179172
0.259404
0.320575
0.241617
0.511746
0.2184
0.350614
0.203166
0.0166329
0.199022
-0.268467
0.204961
-0.397955
0.217827
-0.400913
0.234406
-0.347233
0.251435
-0.218516
0.258589
-0.132791
-0.0288937
0.262374
-0.0454074
0.236118
-0.0775122
0.20546
-0.107656
0.174747
-0.139818
0.152084
-0.164618
0.135182
-0.169359
0.117445
-0.162995
0.0962848
-0.192756
0.120027
-0.200317
0.192943
-0.00484107
0.253694
0.297985
0.268697
0.478278
0.249865
0.350671
0.23313
0.020344
0.228879
-0.156037
0.203431
-0.166516
0.168627
-0.341098
0.174009
-0.453732
0.194226
-0.259865
0.2076
0.0300413
0.235369
0.251859
0.272586
0.418734
0.27473
0.51739
0.23546
0.295727
0.199108
-0.230285
0.206638
-0.518084
0.242496
-0.21503
0.258077
0.304994
0.243427
0.526395
0.220043
0.373998
0.20351
0.0331663
0.198182
-0.26314
0.203461
-0.403234
0.215753
-0.413205
0.231549
-0.363029
0.24907
-0.236038
0.258609
-0.14233
-0.0310148
0.498137
-0.0343105
-0.509234
0.486296
-0.0656711
0.465661
-0.087021
0.439485
-0.113642
0.410357
-0.135489
0.378647
-0.13765
0.346984
-0.131332
0.297343
-0.143115
0.231514
-0.134489
0.199527
0.0271468
0.2095
0.288012
0.286281
0.401497
0.387088
0.249863
0.439662
-0.03223
0.456698
-0.173073
0.438483
-0.148301
0.406973
-0.309588
0.390277
-0.437036
0.358363
-0.227951
0.311473
0.0769311
0.303418
0.259915
0.341719
0.380433
0.372997
0.486112
0.382306
0.286418
0.383612
-0.231591
0.387121
-0.521593
0.391198
-0.219107
0.3795
0.316692
0.357975
0.54792
0.343257
0.388716
0.336719
0.0397047
0.334888
-0.261309
0.337514
-0.40586
0.346043
-0.421734
0.35811
-0.375096
0.374584
-0.252511
0.3839
-0.151646
-0.0307368
0.520962
-0.0248509
-0.530421
0.506307
-0.0510161
0.485571
-0.0662857
0.460949
-0.0890207
0.428827
-0.103367
0.393887
-0.102709
0.367783
-0.105227
0.333811
-0.109143
0.275293
-0.0759708
0.230318
0.072122
0.264658
0.253672
0.385672
0.280483
0.485707
0.149829
0.507391
-0.0539136
0.497395
-0.163077
0.469562
-0.120468
0.435294
-0.27532
0.419324
-0.421066
0.380449
-0.189076
0.317087
0.140294
0.297096
0.279906
0.345453
0.332076
0.399809
0.431756
0.425371
0.260856
0.430101
-0.23632
0.435152
-0.526644
0.437218
-0.221172
0.424978
0.328932
0.404268
0.568631
0.391421
0.401563
0.38556
0.0455651
0.381237
-0.256985
0.380203
-0.404826
0.385729
-0.42726
0.395248
-0.384614
0.409499
-0.266762
0.41947
-0.161616
-0.0317269
0.548446
-0.0181797
-0.555117
0.537301
-0.0398707
0.52183
-0.0508153
0.500595
-0.0677854
0.474621
-0.0773931
0.447433
-0.0755217
0.418078
-0.0758716
0.376229
-0.067295
0.339761
-0.0395021
0.334274
0.0776088
0.394243
0.193702
0.502503
0.172223
0.566689
0.0856425
0.556031
-0.0432554
0.537378
-0.144424
0.520535
-0.103625
0.478967
-0.233752
0.44743
-0.38953
0.40648
-0.148126
0.32715
0.219624
0.297274
0.309782
0.362544
0.266806
0.444835
0.349464
0.48065
0.225041
0.481612
-0.237283
0.484045
-0.529077
0.487596
-0.224724
0.475947
0.340581
0.457536
0.587042
0.447918
0.411181
0.442101
0.0513815
0.434694
-0.249577
0.428652
-0.398785
0.429702
-0.428309
0.436429
-0.391342
0.448109
-0.278442
0.457605
-0.171112
-0.0336815
0.581153
-0.0129258
-0.586407
0.570265
-0.0289828
0.554897
-0.0354469
0.535731
-0.0486199
0.514196
-0.0558579
0.490032
-0.0513578
0.469553
-0.0553918
0.441395
-0.0391378
0.417711
-0.0158174
0.440589
0.0547307
0.503901
0.130391
0.572103
0.104021
0.608806
0.0489398
0.594027
-0.0284769
0.566619
-0.117016
0.547675
-0.0846815
0.507468
-0.193545
0.463116
-0.345177
0.409242
-0.0942522
0.33338
0.295485
0.316805
0.326357
0.402079
0.181533
0.503368
0.248175
0.545157
0.183253
0.54115
-0.233276
0.53907
-0.526998
0.5419
-0.227553
0.531153
0.351328
0.518053
0.600142
0.514168
0.415066
0.508879
0.0566706
0.496971
-0.237669
0.484613
-0.386428
0.479779
-0.423475
0.482677
-0.39424
0.49124
-0.287005
0.499261
-0.179134
-0.0360069
0.617182
-0.00789284
-0.622215
0.607721
-0.019522
0.596675
-0.0244006
0.581194
-0.0331386
0.564495
-0.039159
0.546398
-0.0332612
0.528355
-0.0373485
0.510554
-0.0213365
0.497317
-0.00258064
0.52094
0.0311078
0.571609
0.0797209
0.612389
0.0632405
0.634972
0.0263575
0.625627
-0.0191317
0.605133
-0.0965217
0.593129
-0.0726782
0.549167
-0.149583
0.480375
-0.276386
0.418012
-0.0318883
0.3674
0.346097
0.382309
0.311448
0.476074
0.0877675
0.58147
0.142779
0.620063
0.144659
0.604083
-0.217296
0.591548
-0.514462
0.596537
-0.232542
0.593368
0.354496
0.588712
0.604799
0.590643
0.413136
0.584444
0.0628694
0.566248
-0.219473
0.546339
-0.366519
0.535026
-0.412163
0.533608
-0.392822
0.53893
-0.292326
0.545053
-0.185258
-0.0382216
0.659439
-0.00430655
-0.663026
0.652045
-0.0121275
0.643243
-0.0155986
0.630983
-0.0208785
0.617064
-0.0252406
0.604192
-0.0203891
0.589977
-0.0231333
0.580439
-0.0117985
0.576094
0.00176407
0.590717
0.0164856
0.624602
0.0458351
0.650874
0.0369692
0.669359
0.00787206
0.661806
-0.0115786
0.636214
-0.0709299
0.628095
-0.0645589
0.588744
-0.110232
0.508153
-0.195794
0.460218
0.0160465
0.469503
0.336812
0.516672
0.264279
0.586755
0.0176854
0.668773
0.0607607
0.699206
0.114226
0.671949
-0.190038
0.642497
-0.485011
0.642224
-0.232269
0.647353
0.349368
0.658773
0.593379
0.673113
0.398795
0.667627
0.0683554
0.642055
-0.193902
0.613832
-0.338295
0.595863
-0.394194
0.589764
-0.386723
0.591619
-0.294181
0.59555
-0.189188
-0.0399288
0.708316
-0.00136706
-0.711256
0.702453
-0.0062646
0.695526
-0.00867158
0.686533
-0.0118855
0.676074
-0.0147812
0.667469
-0.0117843
0.65753
-0.0131945
0.651602
-0.00587039
0.650902
0.00246392
0.658286
0.0091017
0.680608
0.0235137
0.696942
0.0206343
0.706662
-0.00184771
0.705673
-0.0105898
0.688356
-0.0536124
0.676765
-0.0529675
0.63774
-0.0712073
0.560865
-0.118919
0.54512
0.0317912
0.616035
0.265897
0.67611
0.204204
0.70253
-0.00873537
0.747116
0.0161748
0.77153
0.0898123
0.734899
-0.153408
0.683372
-0.433483
0.67798
-0.226877
0.70096
0.326387
0.737219
0.55712
0.763399
0.372616
0.754448
0.0773057
0.719937
-0.159391
0.684054
-0.302412
0.660609
-0.370749
0.650481
-0.376595
0.64921
-0.292911
0.651
-0.190978
-0.0409751
0.763791
0.00104713
-0.766205
0.759545
-0.00201848
0.754295
-0.00342144
0.748024
-0.00561444
0.740418
-0.00717566
0.734315
-0.00568099
0.727511
-0.00639044
0.723638
-0.00199716
0.724483
0.00161892
0.728133
0.00545166
0.741018
0.010628
0.751899
0.0097539
0.756837
-0.0067855
0.755702
-0.00945545
0.740176
-0.0380864
0.727884
-0.0406749
0.702517
-0.0458409
0.646927
-0.0633287
0.649428
0.0292895
0.739772
0.175553
0.797362
0.146613
0.790681
-0.00205396
0.800632
0.00622362
0.82678
0.0636639
0.792709
-0.119337
0.716713
-0.357487
0.697591
-0.207755
0.743115
0.280864
0.805978
0.494256
0.843667
0.334927
0.836274
0.0846993
0.799108
-0.122225
0.759492
-0.262796
0.731701
-0.342957
0.717235
-0.362129
0.712362
-0.288038
0.71172
-0.190336
-0.0411606
0.826137
0.00286613
-0.827956
0.823164
0.000955137
0.819513
0.000229631
0.815142
-0.00124425
0.809997
-0.00203019
0.805726
-0.00140997
0.801407
-0.00207198
0.798837
0.000573209
0.79926
0.00119641
0.80101
0.00370145
0.807932
0.00370585
0.813844
0.00384136
0.815383
-0.00832379
0.814664
-0.00873675
0.805266
-0.0286882
0.793592
-0.0290008
0.776365
-0.0286145
0.745203
-0.0321658
0.751728
0.0227645
0.822847
0.104434
0.868961
0.100499
0.856754
0.0101531
0.853192
0.00978502
0.877385
0.0394714
0.846394
-0.0883455
0.745957
-0.25705
0.695987
-0.157785
0.751187
0.225663
0.847058
0.398386
0.910288
0.271697
0.914763
0.0802239
0.881036
-0.0884971
0.840446
-0.222207
0.809617
-0.312128
0.791095
-0.343608
0.78228
-0.279223
0.778599
-0.186655
-0.0401977
0.895969
0.00409593
-0.897199
0.893974
0.00294993
0.891483
0.00272045
0.888497
0.00174168
0.885132
0.0013348
0.882178
0.00154419
0.879301
0.00080545
0.877531
0.00234312
0.877432
0.00129558
0.878107
0.00302636
0.881435
0.000377801
0.884098
0.00117811
0.884571
-0.00879727
0.883213
-0.00737836
0.876078
-0.0215532
0.86731
-0.0202326
0.857419
-0.0187233
0.843002
-0.0177491
0.849488
0.0162783
0.894468
0.0594543
0.928487
0.0664808
0.921559
0.0170806
0.912787
0.0185568
0.927721
0.0245382
0.902368
-0.0629926
0.802315
-0.156998
0.735844
-0.0913142
0.791553
0.169954
0.906898
0.283041
0.983475
0.19512
0.991752
0.0719468
0.95868
-0.0554255
0.918925
-0.182452
0.888336
-0.281538
0.868461
-0.323733
0.857333
-0.268095
0.851263
-0.180585
-0.0380693
0.973361
0.00490551
-0.974171
0.972073
0.0042379
0.97047
0.00432344
0.968516
0.00369595
0.966348
0.00350319
0.964352
0.00354024
0.962442
0.00271543
0.961119
0.00366553
0.96069
0.00172519
0.960574
0.00314221
0.961952
-0.00100029
0.962664
0.00046587
0.962137
-0.00827034
0.960972
-0.00621296
0.956253
-0.0168341
0.950955
-0.0149349
0.945746
-0.0135144
0.939365
-0.0113678
0.944968
0.0106749
0.97193
0.0324927
0.993494
0.0449163
0.991272
0.0193026
0.985547
0.0242822
0.989395
0.0206901
0.965271
-0.0388693
0.890167
-0.0818935
0.839208
-0.0403548
0.89434
0.114823
0.999318
0.178062
1.0648
0.129633
1.06834
0.0684089
1.03831
-0.0253923
1.00336
-0.147502
0.974714
-0.252893
0.95347
-0.302489
0.939488
-0.254113
0.930568
-0.171666
-0.0348437
1.05862
0.00534859
-1.05906
1.05787
0.00498024
1.05691
0.00528675
1.0557
0.00490875
1.05434
0.0048594
1.053
0.00488051
1.05172
0.00399689
1.0507
0.00468679
1.05013
0.00229061
1.04968
0.00359073
1.04991
-0.00122259
1.0498
0.000576398
1.04906
-0.00753174
1.04807
-0.00522858
1.04498
-0.0137446
1.04186
-0.0118096
1.03949
-0.0111415
1.03743
-0.00931677
1.04171
0.00640202
1.05765
0.0165518
1.07066
0.0319022
1.06993
0.0200383
1.06661
0.0275996
1.06448
0.0228237
1.04284
-0.0172289
0.994495
-0.0335531
0.969949
-0.015808
1.01841
0.0663583
1.09591
0.100566
1.14044
0.0850997
1.14063
0.0682232
1.11816
-0.00292527
1.09126
-0.120602
1.06634
-0.227967
1.04479
-0.280939
1.02867
-0.237996
1.01709
-0.160088
-0.030113
1.15234
0.00552499
-1.15252
1.15197
0.00535034
1.15145
0.00580886
1.15075
0.00560798
1.14995
0.00565677
1.1491
0.00573426
1.14826
0.00483531
1.14749
0.00545457
1.14694
0.00284198
1.1464
0.00412994
1.14614
-0.000965946
1.14575
0.000966197
1.14496
-0.00673788
1.14417
-0.00443822
1.14237
-0.0119415
1.14078
-0.0102246
1.13991
-0.0102666
1.13974
-0.00915421
1.14279
0.00335225
1.15165
0.00769194
1.15918
0.0243814
1.15907
0.0201484
1.15687
0.0297953
1.15291
0.026788
1.13671
-0.00103147
1.10831
-0.00515932
1.09907
-0.00655933
1.13566
0.0297595
1.18765
0.0485787
1.21738
0.0553733
1.21855
0.0670547
1.20445
0.011169
1.18556
-0.101707
1.16415
-0.206563
1.14221
-0.258998
1.12397
-0.219756
1.11012
-0.14624
-0.0248112
1.2551
0.00551744
-1.25509
1.25499
0.0054616
1.25477
0.00601996
1.25443
0.00594827
1.25402
0.00606992
1.25352
0.00623145
1.25302
0.00533779
1.25249
0.0059812
1.25207
0.00326972
1.2516
0.00459249
1.25124
-0.000605954
1.25083
0.00138146
1.25021
-0.00612118
1.24968
-0.00390124
1.24871
-0.0109806
1.248
-0.00950613
1.24773
-0.00999599
1.24829
-0.00971729
1.25028
0.00135621
1.25502
0.0029519
1.25919
0.0202195
1.25918
0.0201557
1.25752
0.0314493
1.25377
0.0305438
1.243
0.00973821
1.22767
0.0101703
1.22625
-0.00514237
1.25174
0.00427173
1.28484
0.0154776
1.30396
0.0362589
1.30632
0.0646883
1.29968
0.0178145
1.28744
-0.0894709
1.26928
-0.188402
1.24734
-0.237062
1.22758
-0.199993
1.21162
-0.13028
-0.0181551
1.36764
0.0053499
-1.36747
1.36773
0.00537336
1.36776
0.00599071
1.36769
0.00601782
1.36758
0.00618426
1.36738
0.00642918
1.36717
0.00554519
1.3669
0.00625558
1.36664
0.00352267
1.36635
0.00488487
1.36605
-0.000301858
1.36576
0.00166618
1.36529
-0.00565186
1.36496
-0.00357114
1.36439
-0.0104033
1.3641
-0.00921743
1.364
-0.00989563
1.36459
-0.0103073
1.36574
0.000207641
1.36814
0.000547001
1.37039
0.0179697
1.37042
0.0201256
1.36963
0.0322396
1.3672
0.0329702
1.36095
0.0159885
1.35368
0.0174424
1.35582
-0.00728492
1.37277
-0.0126717
1.3923
-0.00405195
1.404
0.0245538
1.408
0.0606859
1.40687
0.01895
1.3991
-0.0817071
1.38172
-0.17102
1.35803
-0.213367
1.33614
-0.178106
1.31903
-0.113175
-0.0122201
1.4908
0.00505782
-1.49051
1.49104
0.00513092
1.49126
0.0057726
1.49141
0.00586906
1.49154
0.00605744
1.49159
0.00637611
1.49163
0.00550589
1.4916
0.00628708
1.49155
0.00356748
1.49146
0.00497559
1.49131
-0.000146672
1.49118
0.00178939
1.49087
-0.00534044
1.49072
-0.00341832
1.49034
-0.0100265
1.49023
-0.0091059
1.49009
-0.00975083
1.49045
-0.0106768
1.49092
-0.000253572
1.49207
-0.000608794
1.49339
0.0166486
1.49346
0.0200598
1.49359
0.0321082
1.49264
0.0339206
1.48967
0.0189564
1.48725
0.019864
1.4907
-0.0107325
1.50157
-0.0235432
1.51173
-0.0142178
1.51812
0.018165
1.52304
0.0557697
1.52528
0.0167131
1.51962
-0.0760541
1.50211
-0.153506
1.47723
-0.188485
1.45424
-0.155122
1.43645
-0.095382
-0.00588452
1.62544
0.00457323
-1.62496
1.62591
0.00466755
1.62639
0.00528683
1.62684
0.00542714
1.62728
0.00561374
1.62767
0.00598488
1.62803
0.0051481
1.62833
0.00598556
1.62853
0.00336956
1.62868
0.00482359
1.62861
-7.48389e-05
1.62858
0.00181886
1.62813
-0.00488953
1.62789
-0.00317841
1.62713
-0.00926946
1.6267
-0.00867115
1.62604
-0.009095
1.62575
-0.0103857
1.62574
-0.00024816
1.62628
-0.00114254
1.62745
0.0154729
1.62827
0.0192433
1.63028
0.0300988
1.63139
0.0328121
1.63121
0.0191375
1.63227
0.0187981
1.6352
-0.0136629
1.6396
-0.0279401
1.64211
-0.0167266
1.64627
0.014
1.65443
0.047618
1.65895
0.012189
1.65115
-0.0682532
1.62851
-0.130869
1.59907
-0.159044
1.57421
-0.130259
1.55784
-0.0790124
-0.00281547
1.77266
0.00387528
-1.77196
1.77336
0.00397184
1.77413
0.00451827
1.77488
0.00467611
1.77565
0.00484402
1.7764
0.00522856
1.77707
0.00448163
1.77773
0.00532344
1.77816
0.00294391
1.77858
0.00440315
1.77859
-8.57735e-05
1.77863
0.00177897
1.77804
-0.00430264
1.77763
-0.0027626
1.77644
-0.00808755
1.77556
-0.00779133
1.77432
-0.00784882
1.77331
-0.00937708
1.7728
0.000263261
1.77284
-0.00118432
1.77409
0.0142183
1.77563
0.0177039
1.7796
0.0261305
1.78254
0.0298738
1.78461
0.0170666
1.78866
0.0147485
1.79003
-0.0150283
1.78787
-0.0257871
1.78449
-0.0133453
1.78834
0.0101524
1.8005
0.035456
1.80658
0.00611099
1.7953
-0.0569695
1.7668
-0.102379
1.734
-0.126235
1.70912
-0.105381
1.69467
-0.0645678
-0.00105186
1.93314
0.00260257
-1.93187
1.93448
0.00263685
1.93601
0.00298195
1.93761
0.00307615
1.93927
0.00318459
1.94105
0.0034536
1.94256
0.00297392
1.94426
0.00362329
1.94519
0.00200665
1.9463
0.003296
1.94616
5.48215e-05
1.94595
0.00198443
1.94419
-0.00253519
1.94215
-0.000725972
1.93851
-0.00445121
1.93483
-0.0041047
1.93088
-0.00389759
1.92668
-0.0051785
1.92558
0.00136416
1.92478
-0.000387778
1.92787
0.0111246
1.93357
0.0120028
1.94354
0.0161689
1.95363
0.0197784
1.96113
0.00956773
1.96863
0.00724392
1.96223
-0.00861948
1.94587
-0.00943057
1.93556
-0.00303697
1.94237
0.00334294
1.96235
0.0154746
1.96988
-0.00141685
1.94988
-0.0369701
1.90999
-0.0624928
1.87057
-0.0868095
1.84411
-0.0789187
1.83304
-0.0534986
-0.00475932
2.11013
0.00148305
-2.10901
2.1113
0.00147056
2.11267
0.00161234
2.11411
0.00163452
2.11562
0.00166988
2.11728
0.00179394
2.11868
0.00157357
2.12037
0.00193562
2.1212
0.00118045
2.12248
0.0020147
2.12213
0.000399517
2.12226
0.00185864
2.12021
-0.000484097
2.11835
0.00112762
2.11469
-0.000787924
2.11073
-0.000147055
2.10702
-0.000184958
2.10247
-0.000631069
2.10196
0.00188087
2.1009
0.000669786
2.10572
0.00630377
2.11253
0.00519513
2.12218
0.00651308
2.13405
0.00790739
2.14068
0.00294285
2.14504
0.00288079
2.13709
-0.000667556
2.12401
0.00364635
2.1172
0.00377713
2.11912
0.00141927
2.131
0.00360045
2.13512
-0.0055421
2.12159
-0.0234373
2.09629
-0.0371944
2.06615
-0.0566698
2.04086
-0.0536282
2.02825
-0.040891
-0.00698883
2.30416
0.0009858
-2.30366
2.30465
0.000979832
2.30522
0.00104727
2.30579
0.00106085
2.3064
0.00106031
2.30706
0.00113967
2.30764
0.000989598
2.30837
0.00120867
2.30875
0.000795251
2.30952
0.00124701
2.30945
0.000469105
2.3101
0.00120703
2.30951
0.000103635
2.30964
0.00100349
2.30889
-4.45274e-05
2.30812
0.000622441
2.30757
0.000365375
2.30656
0.000379956
2.30693
0.00151333
2.30671
0.000891085
2.30992
0.00309142
2.31273
0.00238723
2.31586
0.00338233
2.3205
0.00327143
2.32177
0.00167008
2.32195
0.00269772
2.32085
0.000436851
2.32228
0.00221189
2.32327
0.00278808
2.32116
0.00353054
2.32125
0.00350833
2.3206
-0.00488871
2.31541
-0.0182524
2.30534
-0.0271208
2.28573
-0.0370624
2.26473
-0.0326273
2.24963
-0.0257862
-0.00509353
2.51553
0.000448725
-2.515
2.51607
0.000445695
2.51665
0.000464942
2.51724
0.000473704
2.51783
0.000466265
2.51846
0.000508502
2.519
0.000447213
2.51966
0.000555221
2.52005
0.000400708
2.52068
0.000614952
2.52082
0.000331139
2.52135
0.00067506
2.52118
0.000277082
2.52149
0.000694585
2.52113
0.000318201
2.52111
0.000638429
2.52097
0.000511734
2.52079
0.000553937
2.52146
0.000843039
2.52182
0.00053118
2.52374
0.0011757
2.52542
0.000699521
2.52787
0.000941067
2.53023
0.000902674
2.53146
0.000442444
2.53311
0.00105096
2.53278
0.000768241
2.53279
0.00220435
2.53326
0.00231245
2.53486
0.00193087
2.53763
0.000742469
2.53534
-0.00260421
2.52508
-0.00799273
2.50948
-0.0115208
2.48917
-0.0167495
2.47182
-0.0152741
2.45968
-0.0136476
-0.00370304
2.7473
-2.74685
2.74774
2.74821
2.74868
2.74915
2.74965
2.7501
2.75066
2.75106
2.75167
2.752
2.75268
2.75296
2.75365
2.75397
2.75461
2.75512
2.75567
2.75652
2.75705
2.75822
2.75892
2.75986
2.76077
2.76121
2.76226
2.76303
2.76523
2.76754
2.76947
2.77022
2.76761
2.75962
2.7481
2.73135
2.71608
2.70243
0.437317
0.0425801
-0.430015
0.446495
0.0704881
0.454041
0.101716
0.464432
0.12829
0.473053
0.159226
0.48525
0.183232
0.498679
0.212456
0.235827
0.468592
0.0361849
-0.462197
0.476137
0.0629429
0.483615
0.0942382
0.491846
0.120059
0.501172
0.149899
0.509805
0.1746
0.520413
0.201847
0.225819
0.503496
0.0307058
-0.498017
0.509028
0.0574102
0.515568
0.087699
0.521792
0.113835
0.528983
0.142709
0.535826
0.167757
0.544219
0.193454
0.214921
0.541154
0.0260174
-0.536466
0.545331
0.0532331
0.550519
0.0825109
0.555512
0.108842
0.56166
0.136561
0.569135
0.160283
0.577654
0.184935
0.206168
0.582487
0.0224691
-0.578939
0.585965
0.0497555
0.590499
0.0779769
0.595739
0.103602
0.60182
0.13048
0.608368
0.153734
0.614937
0.178366
0.19889
0.628399
0.0196411
-0.625571
0.631687
0.0464681
0.635785
0.0738786
0.640251
0.099136
0.644987
0.125744
0.649912
0.148809
0.65611
0.172167
0.191975
0.679171
0.017435
-0.676965
0.681855
0.0437844
0.685053
0.0706803
0.688588
0.095601
0.693105
0.121227
0.698517
0.143397
0.704909
0.165776
0.185628
0.734975
0.0157941
-0.733334
0.737208
0.0415515
0.740301
0.0675876
0.74404
0.0918613
0.748998
0.116269
0.754175
0.13822
0.759995
0.159955
0.179418
0.796944
0.0144181
-0.795568
0.799099
0.0393969
0.802234
0.0644524
0.805975
0.0881207
0.810526
0.111718
0.815441
0.133305
0.821405
0.153991
0.172867
0.865293
0.0132615
-0.864136
0.867308
0.0373823
0.870275
0.0614845
0.873929
0.0844673
0.87856
0.107087
0.884029
0.127836
0.890342
0.147678
0.16601
0.940453
0.0122765
-0.939468
0.942425
0.0354106
0.94546
0.0584492
0.949416
0.0805116
0.954447
0.102056
0.960264
0.122019
0.96686
0.141082
0.158699
1.02318
0.0113596
-1.02226
1.02522
0.0333711
1.0284
0.0552601
1.03262
0.0762945
1.03789
0.0967865
1.04404
0.115875
1.05112
0.133994
0.150762
1.11393
0.0104868
-1.11306
1.11604
0.031264
1.11939
0.0519158
1.12388
0.0717995
1.12953
0.0911347
1.13622
0.109188
1.14391
0.126305
0.142154
1.2134
0.0096262