/*--------------------------------*- C++ -*----------------------------------*\
| =========                 |                                                 |
| \\      /  F ield         | OpenFOAM: The Open Source CFD Toolbox           |
|  \\    /   O peration     | Version:  2312                                  |
|   \\  /    A nd           | Website:  www.openfoam.com                      |
|    \\/     M anipulation  |                                                 |
\*---------------------------------------------------------------------------*/
FoamFile
{
    version     2.0;
    format      ascii;
    arch        "LSB;label=32;scalar=64";
    class       volScalarField;
    location    "38";
    object      p;
}
// * * * * * * * * * * * * * * * * * * * * * * * * * * * * * * * * * * * * * //

dimensions      [0 2 -2 0 0 0 0];

internalField   nonuniform List<scalar> 
32230
(
-0.294359
-0.294885
-0.294743
-0.294075
-0.292964
-0.291432
-0.289508
-0.28725
-0.284732
-0.282047
-0.279296
-0.27659
-0.274039
-0.271737
-0.269785
-0.268261
-0.267228
-0.266731
-0.266795
-0.267426
-0.268608
-0.270305
-0.272459
-0.274998
-0.277832
-0.28086
-0.28398
-0.287086
-0.290084
-0.292884
-0.29543
-0.297638
-0.299539
-0.300944
-0.302049
-0.302128
-0.301646
-0.294937
-0.295492
-0.295348
-0.294666
-0.293549
-0.292023
-0.290123
-0.287902
-0.285433
-0.282801
-0.280104
-0.277442
-0.274918
-0.272626
-0.270653
-0.269071
-0.267935
-0.267278
-0.267114
-0.267434
-0.268207
-0.269379
-0.270882
-0.272632
-0.274538
-0.276506
-0.278446
-0.280276
-0.281928
-0.283341
-0.284473
-0.285272
-0.285705
-0.285666
-0.285152
-0.283943
-0.282832
-0.296318
-0.296813
-0.296618
-0.295898
-0.294763
-0.293244
-0.291376
-0.289211
-0.286814
-0.28426
-0.281636
-0.279034
-0.276545
-0.274254
-0.272237
-0.270555
-0.26925
-0.268347
-0.267843
-0.267719
-0.267932
-0.268422
-0.269119
-0.269946
-0.270826
-0.271687
-0.272467
-0.273113
-0.273583
-0.273839
-0.273853
-0.273571
-0.272977
-0.271963
-0.270585
-0.268757
-0.267148
-0.298498
-0.298847
-0.298545
-0.297752
-0.296574
-0.295045
-0.293201
-0.291085
-0.288753
-0.286271
-0.283711
-0.281151
-0.278669
-0.276338
-0.274219
-0.272362
-0.270798
-0.269536
-0.268567
-0.267865
-0.267385
-0.267076
-0.266879
-0.266737
-0.2666
-0.266422
-0.266167
-0.265804
-0.265306
-0.264643
-0.26379
-0.2627
-0.261358
-0.259683
-0.257759
-0.255492
-0.253612
-0.301437
-0.301561
-0.301097
-0.300184
-0.29892
-0.297344
-0.295489
-0.29339
-0.291094
-0.288651
-0.28612
-0.283561
-0.281037
-0.278604
-0.27631
-0.274188
-0.272259
-0.270528
-0.268983
-0.2676
-0.26635
-0.265196
-0.264104
-0.263042
-0.261983
-0.260902
-0.259778
-0.258589
-0.25731
-0.255916
-0.254381
-0.252668
-0.250764
-0.248614
-0.246289
-0.24373
-0.24155
-0.305079
-0.304914
-0.304229
-0.303142
-0.301738
-0.300062
-0.298145
-0.296018
-0.293712
-0.291264
-0.288712
-0.286099
-0.283465
-0.28085
-0.278284
-0.275793
-0.273393
-0.271089
-0.268881
-0.266762
-0.26472
-0.262744
-0.260822
-0.258941
-0.257087
-0.255247
-0.253402
-0.251531
-0.249613
-0.247623
-0.245537
-0.243326
-0.24098
-0.238455
-0.235819
-0.233007
-0.230553
-0.309379
-0.308875
-0.307917
-0.306597
-0.304993
-0.30316
-0.301129
-0.298922
-0.296556
-0.294047
-0.291412
-0.288667
-0.285832
-0.282928
-0.279978
-0.277004
-0.274031
-0.271078
-0.268164
-0.265303
-0.262506
-0.259779
-0.257126
-0.254541
-0.252016
-0.249538
-0.24709
-0.244651
-0.242201
-0.239716
-0.237175
-0.234555
-0.231847
-0.229018
-0.226122
-0.223098
-0.220401
-0.314326
-0.313439
-0.312162
-0.310557
-0.308702
-0.30666
-0.304465
-0.302127
-0.299644
-0.297004
-0.294197
-0.291214
-0.288055
-0.284734
-0.281274
-0.277712
-0.27409
-0.270448
-0.266829
-0.263264
-0.25978
-0.256392
-0.253105
-0.249919
-0.246823
-0.243803
-0.240842
-0.23792
-0.235017
-0.232112
-0.229188
-0.226224
-0.223213
-0.220128
-0.21701
-0.213804
-0.210892
-0.319943
-0.318641
-0.317002
-0.315072
-0.312925
-0.310634
-0.30823
-0.305705
-0.303031
-0.300164
-0.297064
-0.293701
-0.29007
-0.286191
-0.282105
-0.277872
-0.273558
-0.269227
-0.264936
-0.260727
-0.256631
-0.252663
-0.248828
-0.245122
-0.241532
-0.238044
-0.234639
-0.2313
-0.228008
-0.224744
-0.221492
-0.218236
-0.214966
-0.211663
-0.208356
-0.204994
-0.201897
-0.32629
-0.324535
-0.322505
-0.320221
-0.317753
-0.31518
-0.312519
-0.309737
-0.30677
-0.303542
-0.29999
-0.296081
-0.291819
-0.28725
-0.282445
-0.277491
-0.272477
-0.267482
-0.262566
-0.257775
-0.253133
-0.248653
-0.244334
-0.240169
-0.236145
-0.232244
-0.228451
-0.224748
-0.221116
-0.217541
-0.214007
-0.210499
-0.207008
-0.203519
-0.200048
-0.196554
-0.193298
-0.33344
-0.331193
-0.328747
-0.326093
-0.323283
-0.320392
-0.317412
-0.314274
-0.310875
-0.307115
-0.302927
-0.298294
-0.293253
-0.287887
-0.282302
-0.276609
-0.270909
-0.265284
-0.259792
-0.254469
-0.249335
-0.244393
-0.239639
-0.235063
-0.230649
-0.226382
-0.222244
-0.218219
-0.214291
-0.210445
-0.206666
-0.202942
-0.199261
-0.195612
-0.192001
-0.188397
-0.185005
-0.34146
-0.338681
-0.3358
-0.332764
-0.329592
-0.326334
-0.322947
-0.319316
-0.315309
-0.310818
-0.305798
-0.300274
-0.294331
-0.288095
-0.2817
-0.27527
-0.268909
-0.26269
-0.25666
-0.250846
-0.245258
-0.239892
-0.23474
-0.229788
-0.225022
-0.220425
-0.21598
-0.211671
-0.207482
-0.2034
-0.199409
-0.195498
-0.191654
-0.187869
-0.184139
-0.180444
-0.176938
-0.350394
-0.347045
-0.343715
-0.340287
-0.336719
-0.333022
-0.329102
-0.324802
-0.319977
-0.314542
-0.308504
-0.301948
-0.295016
-0.287868
-0.280657
-0.273507
-0.26651
-0.259727
-0.25319
-0.246915
-0.2409
-0.235138
-0.229617
-0.224322
-0.219234
-0.214339
-0.209619
-0.205058
-0.200641
-0.196352
-0.192178
-0.188107
-0.184127
-0.180226
-0.176398
-0.172632
-0.169031
-0.360247
-0.356295
-0.352508
-0.348671
-0.344657
-0.340412
-0.33579
-0.330608
-0.324737
-0.318151
-0.310934
-0.303243
-0.295268
-0.287195
-0.279176
-0.271326
-0.263719
-0.256395
-0.249375
-0.242659
-0.236242
-0.230109
-0.224244
-0.218631
-0.213251
-0.208087
-0.203121
-0.198337
-0.19372
-0.189253
-0.184923
-0.180717
-0.176623
-0.172628
-0.168723
-0.164904
-0.161227
-0.370974
-0.366402
-0.36215
-0.357877
-0.353334
-0.348393
-0.342861
-0.336557
-0.329412
-0.321493
-0.312975
-0.304085
-0.295048
-0.286056
-0.27725
-0.268722
-0.260526
-0.252683
-0.245197
-0.238062
-0.231262
-0.224779
-0.218595
-0.21269
-0.207045
-0.201639
-0.196456
-0.191477
-0.186687
-0.182069
-0.177608
-0.173291
-0.169104
-0.165036
-0.161074
-0.157219
-0.153486
-0.382477
-0.377282
-0.372559
-0.367804
-0.362616
-0.356786
-0.350102
-0.342432
-0.333809
-0.324417
-0.314525
-0.304414
-0.294324
-0.284435
-0.274867
-0.265686
-0.256921
-0.248578
-0.240647
-0.233111
-0.225949
-0.21914
-0.212661
-0.206489
-0.200604
-0.194984
-0.18961
-0.184463
-0.179526
-0.174781
-0.170214
-0.165808
-0.16155
-0.157427
-0.153427
-0.149551
-0.145779
-0.394594
-0.388789
-0.383585
-0.378272
-0.372277
-0.365329
-0.357239
-0.347979
-0.337721
-0.326772
-0.315483
-0.304162
-0.293048
-0.282296
-0.271995
-0.262185
-0.252873
-0.244049
-0.235691
-0.227775
-0.220275
-0.213162
-0.206411
-0.199998
-0.193899
-0.18809
-0.182551
-0.177262
-0.172202
-0.167355
-0.162704
-0.158231
-0.153922
-0.149762
-0.145742
-0.141854
-0.138058
-0.407104
-0.400712
-0.394998
-0.389015
-0.382016
-0.373698
-0.363957
-0.352917
-0.340911
-0.328364
-0.31568
-0.303178
-0.291074
-0.27949
-0.268485
-0.25807
-0.248234
-0.238951
-0.23019
-0.221918
-0.214102
-0.206712
-0.199717
-0.19309
-0.186804
-0.180834
-0.175156
-0.16975
-0.164595
-0.15967
-0.154958
-0.150441
-0.146102
-0.141928
-0.137906
-0.134019
-0.130219
-0.41974
-0.412804
-0.406554
-0.399779
-0.391555
-0.381601
-0.36996
-0.356958
-0.343099
-0.32891
-0.314831
-0.301168
-0.288102
-0.275718
-0.264037
-0.253048
-0.242717
-0.233006
-0.223873
-0.215277
-0.207181
-0.199547
-0.192342
-0.185534
-0.179095
-0.172997
-0.167214
-0.161724
-0.156502
-0.15153
-0.146787
-0.142254
-0.137914
-0.133752
-0.129755
-0.125895
-0.122132
-0.32935
-0.329976
-0.33034
-0.33056
-0.330745
-0.330958
-0.33125
-0.331656
-0.332198
-0.332882
-0.33371
-0.334681
-0.335794
-0.33705
-0.338453
-0.340011
-0.341732
-0.34363
-0.345722
-0.348027
-0.350569
-0.353376
-0.35648
-0.359917
-0.363726
-0.367953
-0.372645
-0.377856
-0.383639
-0.390052
-0.397151
-0.404992
-0.413631
-0.423111
-0.433457
-0.444688
-0.45684
-0.327822
-0.328188
-0.32838
-0.328463
-0.328517
-0.328599
-0.328762
-0.329043
-0.329464
-0.330036
-0.330763
-0.331647
-0.332692
-0.333902
-0.335288
-0.336861
-0.338638
-0.340641
-0.342893
-0.345423
-0.348263
-0.35145
-0.355026
-0.359036
-0.363527
-0.368554
-0.374172
-0.380439
-0.387412
-0.395152
-0.403712
-0.413146
-0.423498
-0.434804
-0.447093
-0.46038
-0.474641
-0.326358
-0.326462
-0.326479
-0.326427
-0.326352
-0.326309
-0.326349
-0.32651
-0.326816
-0.32728
-0.32791
-0.32871
-0.329688
-0.330853
-0.332217
-0.3338
-0.335623
-0.337713
-0.340101
-0.342823
-0.345917
-0.349429
-0.353406
-0.3579
-0.362966
-0.36866
-0.375042
-0.382172
-0.390107
-0.398903
-0.408609
-0.41927
-0.430918
-0.443573
-0.45724
-0.47192
-0.487639
-0.324872
-0.324721
-0.324566
-0.324381
-0.324179
-0.324016
-0.323936
-0.323978
-0.324169
-0.324525
-0.325055
-0.325768
-0.326673
-0.327782
-0.329112
-0.330686
-0.332531
-0.334678
-0.337164
-0.340029
-0.343318
-0.34708
-0.351368
-0.356237
-0.361745
-0.367951
-0.374913
-0.38269
-0.391335
-0.400897
-0.411417
-0.422928
-0.435448
-0.448983
-0.463515
-0.478998
-0.495488
-0.323297
-0.322909
-0.322591
-0.322276
-0.321955
-0.321672
-0.321472
-0.321393
-0.321465
-0.321704
-0.322127
-0.322741
-0.32356
-0.324597
-0.325874
-0.327415
-0.329251
-0.331418
-0.333956
-0.336909
-0.340326
-0.344252
-0.348754
-0.353883
-0.359696
-0.366253
-0.373609
-0.381817
-0.390925
-0.400974
-0.411996
-0.424009
-0.437019
-0.451019
-0.465979
-0.481828
-0.498555
-0.321583
-0.320987
-0.320521
-0.320084
-0.319646
-0.319243
-0.318919
-0.318712
-0.318654
-0.318765
-0.319064
-0.319562
-0.320274
-0.321218
-0.322416
-0.323894
-0.325686
-0.32783
-0.330369
-0.33335
-0.336822
-0.340838
-0.345454
-0.350727
-0.356713
-0.363467
-0.37104
-0.37948
-0.388827
-0.399114
-0.41036
-0.422575
-0.435752
-0.449869
-0.464891
-0.480762
-0.497283
-0.3197
-0.318935
-0.31834
-0.317791
-0.31724
-0.316716
-0.316261
-0.315914
-0.315708
-0.315671
-0.315822
-0.316179
-0.316758
-0.317579
-0.318666
-0.320046
-0.321756
-0.323833
-0.326322
-0.329271
-0.33273
-0.336752
-0.341391
-0.346703
-0.35274
-0.359552
-0.367187
-0.375684
-0.385076
-0.395385
-0.406624
-0.418789
-0.431866
-0.445823
-0.460602
-0.47622
-0.49221
-0.31764
-0.316751
-0.316052
-0.315404
-0.314744
-0.314097
-0.313502
-0.312999
-0.312624
-0.312411
-0.312385
-0.312567
-0.312979
-0.313641
-0.314579
-0.315824
-0.317408
-0.319374
-0.321763
-0.324624
-0.328007
-0.331963
-0.336544
-0.341802
-0.347786
-0.354541
-0.362107
-0.370517
-0.379796
-0.389957
-0.401004
-0.412924
-0.425691
-0.439276
-0.453574
-0.468713
-0.483946
-0.315414
-0.314449
-0.313675
-0.312943
-0.312182
-0.311411
-0.310667
-0.309989
-0.30942
-0.308999
-0.308759
-0.308729
-0.308932
-0.309395
-0.310144
-0.31121
-0.312628
-0.314438
-0.316681
-0.319405
-0.322658
-0.326488
-0.330945
-0.336077
-0.341926
-0.348534
-0.355933
-0.364149
-0.373198
-0.383087
-0.393809
-0.405347
-0.417659
-0.43073
-0.444392
-0.458888
-0.473251
-0.313048
-0.312059
-0.311241
-0.310445
-0.309593
-0.308699
-0.307796
-0.306927
-0.306138
-0.305477
-0.304984
-0.304698
-0.304649
-0.304867
-0.305383
-0.306229
-0.307439
-0.309051
-0.311108
-0.313654
-0.316734
-0.320394
-0.324679
-0.329631
-0.335291
-0.34169
-0.348857
-0.35681
-0.365558
-0.375099
-0.385419
-0.396497
-0.408271
-0.420755
-0.433706
-0.447484
-0.460926
-0.310579
-0.309618
-0.30879
-0.307951
-0.307021
-0.306009
-0.304943
-0.303869
-0.302838
-0.301905
-0.301124
-0.30054
-0.300194
-0.300124
-0.300362
-0.300945
-0.301907
-0.303286
-0.305123
-0.307458
-0.310335
-0.313794
-0.317877
-0.322621
-0.32806
-0.334221
-0.341124
-0.348783
-0.357199
-0.366364
-0.376253
-0.386854
-0.398066
-0.409949
-0.422142
-0.435219
-0.447684
-0.308055
-0.307172
-0.306368
-0.305508
-0.304516
-0.303393
-0.302166
-0.300879
-0.299591
-0.298365
-0.297265
-0.296349
-0.295668
-0.295268
-0.29519
-0.295471
-0.296151
-0.297267
-0.298856
-0.300959
-0.303613
-0.306857
-0.310726
-0.315252
-0.320464
-0.326383
-0.333022
-0.34039
-0.348483
-0.357287
-0.366756
-0.376898
-0.387561
-0.398913
-0.410333
-0.422765
-0.434045
-0.30553
-0.304771
-0.304021
-0.303162
-0.302124
-0.300902
-0.29952
-0.298023
-0.296474
-0.294945
-0.29351
-0.29224
-0.291198
-0.29044
-0.290016
-0.289969
-0.290342
-0.291172
-0.292498
-0.294356
-0.296782
-0.299809
-0.303469
-0.307787
-0.312786
-0.318484
-0.324887
-0.331989
-0.339786
-0.348272
-0.357379
-0.367129
-0.377259
-0.388124
-0.398696
-0.410551
-0.420388
-0.303063
-0.30247
-0.301801
-0.300962
-0.299893
-0.298585
-0.297061
-0.295364
-0.293563
-0.291736
-0.289969
-0.288342
-0.286933
-0.285807
-0.285026
-0.284639
-0.284695
-0.285233
-0.286292
-0.287909
-0.290114
-0.292939
-0.296408
-0.300545
-0.305359
-0.310864
-0.317067
-0.323964
-0.33152
-0.339723
-0.348477
-0.357845
-0.367428
-0.377786
-0.387443
-0.398627
-0.406904
-0.300725
-0.30033
-0.299761
-0.298955
-0.297867
-0.296489
-0.294838
-0.292961
-0.290929
-0.288827
-0.286749
-0.284786
-0.283026
-0.281549
-0.280422
-0.279708
-0.279458
-0.279717
-0.280526
-0.28192
-0.283928
-0.286577
-0.289884
-0.293869
-0.298544
-0.303906
-0.309942
-0.316636
-0.323944
-0.331841
-0.340198
-0.349093
-0.358044
-0.36769
-0.376388
-0.386539
-0.393401
-0.298598
-0.298422
-0.297962
-0.297196
-0.296099
-0.294662
-0.292904
-0.290874
-0.288645
-0.286306
-0.283957
-0.281701
-0.279633
-0.277844
-0.276412
-0.275407
-0.274888
-0.274904
-0.275498
-0.276704
-0.278551
-0.28106
-0.284247
-0.288115
-0.292659
-0.297864
-0.303702
-0.310133
-0.317098
-0.324545
-0.332338
-0.34051
-0.348653
-0.357239
-0.364946
-0.373614
-0.379245
-0.296782
-0.296828
-0.296478
-0.29575
-0.294647
-0.293165
-0.291323
-0.289173
-0.286788
-0.284264
-0.281704
-0.279215
-0.276903
-0.274866
-0.273192
-0.271957
-0.271226
-0.271051
-0.271479
-0.272543
-0.274265
-0.276658
-0.279723
-0.28345
-0.287815
-0.29278
-0.298293
-0.304289
-0.310685
-0.317399
-0.324316
-0.331399
-0.338429
-0.345623
-0.352246
-0.359253
-0.363722
-0.29539
-0.295643
-0.29539
-0.294695
-0.293588
-0.292073
-0.290172
-0.287939
-0.285451
-0.282802
-0.280099
-0.277453
-0.274975
-0.272769
-0.270927
-0.26953
-0.268648
-0.26834
-0.268642
-0.269584
-0.27118
-0.273431
-0.276319
-0.279815
-0.28387
-0.288422
-0.293391
-0.298685
-0.304207
-0.309846
-0.315517
-0.321128
-0.326636
-0.332096
-0.337355
-0.342822
-0.346537
-0.294546
-0.294968
-0.294789
-0.294115
-0.293005
-0.291471
-0.289541
-0.287268
-0.284731
-0.282023
-0.279252
-0.276529
-0.273964
-0.27167
-0.269735
-0.268245
-0.267268
-0.266856
-0.267046
-0.267857
-0.269288
-0.271324
-0.273928
-0.277045
-0.280605
-0.284519
-0.288689
-0.293006
-0.297366
-0.301655
-0.305804
-0.309704
-0.313391
-0.316767
-0.320056
-0.323459
-0.326949
-0.472301
-0.491571
-0.512
-0.533395
-0.555284
-0.577129
-0.598401
-0.618292
-0.635968
-0.650511
-0.660676
-0.66566
-0.664406
-0.656022
-0.639923
-0.616193
-0.585497
-0.549268
-0.509952
-0.470394
-0.43333
-0.400624
-0.373395
-0.352304
-0.337812
-0.33088
-0.33308
-0.343762
-0.361058
-0.382555
-0.405384
-0.426611
-0.443573
-0.454473
-0.457751
-0.451345
-0.43219
-0.398285
-0.351571
-0.298401
-0.246341
-0.200739
-0.163654
-0.134765
-0.112747
-0.0960744
-0.0833808
-0.073568
-0.0657758
-0.0593441
-0.0538591
-0.0491685
-0.0452353
-0.0418251
-0.0384602
-0.0347687
-0.0308031
-0.0269748
-0.023713
-0.0212702
-0.0196224
-0.0185831
-0.0179153
-0.0174273
-0.0169884
-0.0165319
-0.0160253
-0.0154601
-0.0148357
-0.0141581
-0.0134341
-0.0126716
-0.0118789
-0.0110638
-0.010235
-0.00940137
-0.00857171
-0.00775745
-0.00696408
-0.00620745
-0.00548512
-0.00481889
-0.00419092
-0.003634
-0.00310485
-0.00265372
-0.00220173
-0.00182942
-0.00142443
-0.00109978
-0.000721106
-0.000434496
-9.14142e-05
-0.492638
-0.514018
-0.53647
-0.559728
-0.583261
-0.606363
-0.628985
-0.649974
-0.668537
-0.683677
-0.694222
-0.699291
-0.697681
-0.688363
-0.670594
-0.644128
-0.609556
-0.568471
-0.5236
-0.478321
-0.435767
-0.398197
-0.366936
-0.34251
-0.324998
-0.314681
-0.314653
-0.32236
-0.33787
-0.358858
-0.381881
-0.404101
-0.42277
-0.435562
-0.440462
-0.435147
-0.416917
-0.384338
-0.339537
-0.288657
-0.238914
-0.195417
-0.160134
-0.132795
-0.112127
-0.096633
-0.0849577
-0.0760023
-0.0689071
-0.0630486
-0.0580963
-0.0539698
-0.0505455
-0.0473282
-0.0436878
-0.0393444
-0.0345647
-0.0299961
-0.0261299
-0.0232194
-0.0212115
-0.0198905
-0.0190015
-0.0183397
-0.0177643
-0.0171987
-0.0166016
-0.0159582
-0.0152632
-0.014521
-0.0137371
-0.0129202
-0.0120788
-0.0112213
-0.0103562
-0.00949274
-0.00863864
-0.00780531
-0.00699708
-0.00622934
-0.00549889
-0.00482654
-0.00419461
-0.00363374
-0.00310321
-0.00264863
-0.00219764
-0.00182202
-0.00142046
-0.00109311
-0.000720002
-0.000431594
-9.4113e-05
-0.50764
-0.530458
-0.554311
-0.578816
-0.603484
-0.6278
-0.651254
-0.673024
-0.692319
-0.708115
-0.719092
-0.724476
-0.72292
-0.713224
-0.694436
-0.666065
-0.628484
-0.583309
-0.533534
-0.482935
-0.435018
-0.392555
-0.357158
-0.329303
-0.308783
-0.294676
-0.293956
-0.297747
-0.310973
-0.330983
-0.354409
-0.377446
-0.397555
-0.412221
-0.419082
-0.415121
-0.398281
-0.367414
-0.324976
-0.276903
-0.230005
-0.189064
-0.155957
-0.130464
-0.111375
-0.0972412
-0.0867228
-0.0787316
-0.072434
-0.0672732
-0.0630164
-0.0596132
-0.0567301
-0.0535761
-0.0494641
-0.0442998
-0.0385597
-0.033203
-0.0286757
-0.0252508
-0.0228436
-0.021214
-0.0200877
-0.0192446
-0.0185304
-0.0178567
-0.0171718
-0.0164536
-0.0156914
-0.0148876
-0.0140464
-0.0131773
-0.0122885
-0.0113898
-0.0104889
-0.00959583
-0.00871725
-0.00786458
-0.00704105
-0.00626162
-0.0055224
-0.00484314
-0.00420652
-0.00364088
-0.00310816
-0.0026493
-0.00219845
-0.00181876
-0.00141972
-0.00108914
-0.000720579
-0.000430035
-9.69807e-05
-0.516646
-0.540631
-0.565294
-0.590578
-0.615991
-0.641003
-0.665021
-0.68733
-0.707166
-0.723486
-0.734975
-0.740781
-0.739553
-0.72993
-0.710765
-0.681316
-0.6417
-0.593441
-0.539658
-0.484345
-0.431525
-0.384517
-0.345144
-0.313926
-0.290694
-0.275165
-0.268398
-0.270458
-0.281169
-0.299738
-0.322576
-0.34666
-0.367913
-0.384124
-0.392887
-0.390871
-0.376131
-0.347707
-0.308283
-0.263591
-0.22
-0.181984
-0.151353
-0.127937
-0.110606
-0.0979752
-0.0887263
-0.0818033
-0.07642
-0.0721026
-0.0687214
-0.0661749
-0.0638069
-0.0605623
-0.0557929
-0.0496523
-0.0428133
-0.0366114
-0.0313624
-0.0273689
-0.0245209
-0.0225552
-0.0211755
-0.0201432
-0.0192876
-0.0185065
-0.017736
-0.016946
-0.0161199
-0.0152576
-0.0143617
-0.0134425
-0.0125078
-0.0115688
-0.0106327
-0.00971023
-0.00880708
-0.00793475
-0.00709548
-0.00630373
-0.00555506
-0.00486809
-0.00422602
-0.00365479
-0.00311909
-0.0026552
-0.00220365
-0.00181929
-0.00142186
-0.00108765
-0.000722613
-0.00042967
-9.99452e-05
-0.52028
-0.544824
-0.569779
-0.595368
-0.621111
-0.646426
-0.670715
-0.693309
-0.713461
-0.730147
-0.742094
-0.748378
-0.747695
-0.738558
-0.719634
-0.689923
-0.649263
-0.598966
-0.542066
-0.482869
-0.426
-0.375083
-0.332118
-0.297688
-0.2716
-0.253622
-0.243612
-0.240943
-0.249456
-0.26599
-0.287555
-0.311256
-0.334037
-0.35151
-0.362065
-0.362375
-0.350328
-0.325102
-0.289466
-0.24878
-0.208976
-0.174258
-0.14638
-0.125242
-0.109821
-0.0988174
-0.0909511
-0.0852128
-0.0808764
-0.0775691
-0.0752543
-0.0736625
-0.0717457
-0.0682535
-0.0626537
-0.0553576
-0.0475636
-0.0402371
-0.0341891
-0.0295713
-0.0262434
-0.0239158
-0.0222673
-0.0210376
-0.0200374
-0.0191486
-0.0182943
-0.0174354
-0.0165484
-0.0156307
-0.0146828
-0.0137155
-0.0127365
-0.0117581
-0.0107873
-0.00983555
-0.0089077
-0.00801538
-0.00715988
-0.00635518
-0.00559637
-0.0049009
-0.00425262
-0.00367498
-0.00313553
-0.00266589
-0.00221284
-0.00182328
-0.00142656
-0.00108839
-0.000725907
-0.000430341
-0.000102963
-0.518996
-0.543564
-0.568452
-0.593951
-0.619634
-0.644898
-0.669156
-0.691765
-0.711986
-0.728865
-0.74115
-0.747901
-0.747852
-0.739458
-0.721218
-0.691873
-0.650948
-0.599502
-0.540546
-0.478669
-0.418822
-0.364882
-0.318976
-0.281708
-0.252832
-0.231925
-0.218618
-0.211923
-0.217511
-0.231109
-0.250371
-0.273118
-0.295707
-0.314982
-0.327056
-0.330038
-0.32099
-0.299551
-0.268389
-0.232305
-0.196778
-0.165743
-0.140905
-0.122257
-0.108903
-0.0996631
-0.0933134
-0.0888988
-0.0857633
-0.0836614
-0.0826001
-0.0820208
-0.080475
-0.0765907
-0.0700156
-0.0613118
-0.0524073
-0.0440537
-0.037149
-0.0318564
-0.0280127
-0.0252989
-0.0233661
-0.0219303
-0.0207814
-0.019784
-0.0188472
-0.0179216
-0.0169768
-0.0160066
-0.0150092
-0.0139959
-0.012974
-0.0119572
-0.0109523
-0.00997134
-0.00901866
-0.00810598
-0.00723374
-0.00641546
-0.00564584
-0.00494108
-0.00428583
-0.00370101
-0.00315704
-0.002681
-0.00222565
-0.00183044
-0.00143359
-0.00109118
-0.000730299
-0.000431906
-0.000106009
-0.513355
-0.537478
-0.562082
-0.587278
-0.612592
-0.637481
-0.661436
-0.683852
-0.703951
-0.720825
-0.733267
-0.74041
-0.740988
-0.733443
-0.716128
-0.687566
-0.647016
-0.595321
-0.535451
-0.472115
-0.410439
-0.354457
-0.306377
-0.2668
-0.23542
-0.211684
-0.195269
-0.185988
-0.184161
-0.196906
-0.21243
-0.233249
-0.255269
-0.274773
-0.288604
-0.294671
-0.288497
-0.271297
-0.245148
-0.21414
-0.183308
-0.156302
-0.134783
-0.118842
-0.107718
-0.100393
-0.095715
-0.0927797
-0.0910221
-0.0903413
-0.0906932
-0.0911504
-0.0899008
-0.0855016
-0.0778271
-0.0675137
-0.0574822
-0.048047
-0.0402328
-0.0342218
-0.0298305
-0.0267077
-0.0244754
-0.022824
-0.0215215
-0.0204138
-0.0193949
-0.0184048
-0.0174048
-0.0163848
-0.0153404
-0.0142832
-0.0132199
-0.0121658
-0.0111271
-0.0101172
-0.00913949
-0.00820609
-0.00731659
-0.0064841
-0.00570296
-0.00498819
-0.00432521
-0.00373249
-0.00318324
-0.00270022
-0.00224178
-0.00184053
-0.0014427
-0.00109583
-0.000735659
-0.000434248
-0.000109073
-0.504002
-0.527403
-0.551669
-0.576435
-0.601146
-0.625416
-0.648874
-0.671026
-0.691172
-0.707557
-0.719846
-0.727205
-0.728308
-0.721576
-0.705237
-0.677664
-0.637943
-0.586769
-0.52704
-0.463455
-0.401151
-0.34418
-0.294771
-0.253527
-0.2201
-0.193865
-0.174372
-0.161421
-0.153224
-0.165599
-0.175267
-0.193039
-0.213752
-0.233241
-0.247247
-0.256413
-0.253489
-0.240866
-0.220071
-0.194435
-0.168593
-0.145886
-0.127929
-0.114893
-0.106159
-0.100904
-0.0980545
-0.0967563
-0.0965629
-0.0975205
-0.0994182
-0.100921
-0.0999113
-0.0948897
-0.0859918
-0.0745803
-0.0628254
-0.0522024
-0.0434274
-0.0366636
-0.0316976
-0.0281451
-0.0255985
-0.0237217
-0.0222597
-0.0210391
-0.0199381
-0.0188848
-0.0178319
-0.0167648
-0.0156761
-0.0145769
-0.0134738
-0.0123832
-0.0113114
-0.0102726
-0.00926975
-0.00831523
-0.00740796
-0.00656064
-0.0057673
-0.00504181
-0.00437036
-0.00376908
-0.00321379
-0.00272327
-0.00226098
-0.00185335
-0.00145374
-0.00110219
-0.000741885
-0.000437272
-0.00011215
-0.491937
-0.514405
-0.538218
-0.562419
-0.586368
-0.609841
-0.632592
-0.654399
-0.675821
-0.69027
-0.702132
-0.709535
-0.711028
-0.70497
-0.689519
-0.662989
-0.6244
-0.574379
-0.515733
-0.453032
-0.39125
-0.334316
-0.284409
-0.242146
-0.207197
-0.178908
-0.156782
-0.140698
-0.131059
-0.132183
-0.1401
-0.153788
-0.172551
-0.191469
-0.205211
-0.216768
-0.217203
-0.208924
-0.193609
-0.173436
-0.152738
-0.134504
-0.120293
-0.110332
-0.104137
-0.101083
-0.100196
-0.100669
-0.10224
-0.105048
-0.108607
-0.111172
-0.11037
-0.104636
-0.0943017
-0.0815588
-0.0683395
-0.056487
-0.0467185
-0.0391763
-0.0336137
-0.0296134
-0.0267382
-0.0246259
-0.0229979
-0.0216612
-0.0204772
-0.0193617
-0.0182581
-0.0171463
-0.0160155
-0.0148765
-0.0137352
-0.0126092
-0.0115047
-0.0104372
-0.00940899
-0.00843299
-0.00750741
-0.00664466
-0.00583843
-0.00510157
-0.00442091
-0.00381046
-0.0032484
-0.00274991
-0.00228301
-0.00186872
-0.00146653
-0.00111012
-0.000748893
-0.000440904
-0.000115233
-0.478186
-0.499545
-0.522684
-0.546161
-0.569231
-0.591742
-0.6134
-0.633668
-0.651493
-0.668636
-0.680959
-0.688413
-0.690141
-0.684536
-0.669783
-0.644247
-0.606998
-0.558667
-0.501953
-0.441173
-0.380979
-0.325043
-0.275425
-0.23276
-0.196797
-0.16693
-0.142633
-0.123777
-0.111044
-0.10656
-0.107166
-0.117089
-0.133123
-0.150791
-0.165461
-0.175841
-0.180662
-0.176234
-0.166296
-0.151458
-0.135906
-0.122201
-0.111838
-0.105087
-0.101552
-0.100783
-0.101945
-0.104337
-0.10788
-0.112729
-0.118057
-0.121712
-0.121113
-0.114623
-0.102511
-0.0885158
-0.0739467
-0.0608669
-0.0500889
-0.0417523
-0.0355768
-0.0311133
-0.0278966
-0.0255386
-0.0237379
-0.0222811
-0.0210128
-0.0198355
-0.0186828
-0.0175287
-0.0163582
-0.0151814
-0.0140034
-0.012843
-0.0117065
-0.0106104
-0.00955676
-0.00855894
-0.00761453
-0.00673578
-0.00591598
-0.00516712
-0.00447651
-0.00385635
-0.00328679
-0.00277994
-0.00230769
-0.00188648
-0.00148096
-0.00111953
-0.000756613
-0.000445088
-0.000118312
-0.463661
-0.483775
-0.505973
-0.528569
-0.550684
-0.57218
-0.592832
-0.612238
-0.629748
-0.645665
-0.657627
-0.664773
-0.666444
-0.660997
-0.646716
-0.622107
-0.586385
-0.540239
-0.486218
-0.428268
-0.370582
-0.316471
-0.267835
-0.225323
-0.188803
-0.157794
-0.131789
-0.110587
-0.0945985
-0.0850472
-0.0813847
-0.0830838
-0.0972745
-0.112348
-0.127108
-0.137111
-0.146774
-0.143797
-0.13869
-0.128873
-0.118308
-0.109052
-0.102548
-0.0990746
-0.098283
-0.0998142
-0.103119
-0.107572
-0.113268
-0.120319
-0.127527
-0.132323
-0.13195
-0.124695
-0.11088
-0.0955526
-0.0796166
-0.0653083
-0.0535183
-0.0443809
-0.0375825
-0.0326441
-0.0290747
-0.0264616
-0.0244812
-0.0228998
-0.0215453
-0.0203063
-0.019106
-0.0179115
-0.0167036
-0.015491
-0.0142779
-0.0130843
-0.0119164
-0.0107919
-0.00971267
-0.0086927
-0.00772895
-0.00683364
-0.00599959
-0.00523814
-0.00453688
-0.0039065
-0.00332873
-0.00281315
-0.00233484
-0.0019065
-0.00149691
-0.00113032
-0.000764987
-0.000449785
-0.000121372
-0.448974
-0.467731
-0.488731
-0.510323
-0.531402
-0.551814
-0.57144
-0.589891
-0.606529
-0.621308
-0.63252
-0.6391
-0.640406
-0.634829
-0.620844
-0.597164
-0.563213
-0.519742
-0.469091
-0.414731
-0.360301
-0.308685
-0.261601
-0.219719
-0.183044
-0.15126
-0.123959
-0.10087
-0.0821111
-0.0682505
-0.0594115
-0.0549771
-0.0666311
-0.0773943
-0.0909717
-0.101026
-0.109967
-0.112117
-0.111244
-0.106074
-0.100175
-0.0951628
-0.0924182
-0.0922051
-0.0941705
-0.098057
-0.10356
-0.110181
-0.118181
-0.127573
-0.136768
-0.142765
-0.142646
-0.134652
-0.119904
-0.102681
-0.085301
-0.0697699
-0.0569829
-0.0470496
-0.039625
-0.0342042
-0.0302728
-0.0273961
-0.025229
-0.0235185
-0.0220753
-0.0207741
-0.0195271
-0.0182942
-0.0170511
-0.0158048
-0.0145583
-0.0133326
-0.0121338
-0.0109813
-0.00987636
-0.00883394
-0.00785035
-0.00693795
-0.00608899
-0.00531439
-0.00460177
-0.0039607
-0.00337402
-0.0028494
-0.00236431
-0.00192866
-0.00151429
-0.0011424
-0.000773965
-0.000454969
-0.000124385
-0.434334
-0.451459
-0.471071
-0.491615
-0.511548
-0.530756
-0.549327
-0.56688
-0.582386
-0.5958
-0.605709
-0.611532
-0.612223
-0.606349
-0.592631
-0.570032
-0.538191
-0.497888
-0.451176
-0.400985
-0.350353
-0.301723
-0.256627
-0.215768
-0.179291
-0.147056
-0.118799
-0.0942653
-0.0733635
-0.0563079
-0.043443
-0.0358615
-0.0372093
-0.0465002
-0.0578075
-0.0670835
-0.0757014
-0.0821704
-0.0844011
-0.083457
-0.0817499
-0.0806644
-0.0814712
-0.0843922
-0.0891325
-0.0954274
-0.103098
-0.111937
-0.122338
-0.134186
-0.145489
-0.152777
-0.152956
-0.144268
-0.128635
-0.109723
-0.0909251
-0.0742128
-0.0604593
-0.0497453
-0.0416984
-0.0357916
-0.0314914
-0.0283432
-0.0259827
-0.024138
-0.0226033
-0.021239
-0.0199459
-0.0186761
-0.0173999
-0.0161218
-0.0148436
-0.013587
-0.0123583
-0.0111779
-0.0100473
-0.00898222
-0.00797833
-0.00704836
-0.00618385
-0.00539558
-0.00467092
-0.00401874
-0.00342247
-0.00288852
-0.00239598
-0.00195284
-0.001533
-0.00115571
-0.000783504
-0.000460626
-0.000127317
-0.41946
-0.434401
-0.452561
-0.472087
-0.4907
-0.508467
-0.525906
-0.543458
-0.556763
-0.568634
-0.577123
-0.582021
-0.582002
-0.575879
-0.562617
-0.541425
-0.512121
-0.475442
-0.433099
-0.387451
-0.34095
-0.295617
-0.252816
-0.213287
-0.177316
-0.144927
-0.116007
-0.0903891
-0.0679105
-0.0485767
-0.0327063
-0.0213601
-0.016947
-0.0183892
-0.0286245
-0.0357903
-0.0445545
-0.055284
-0.0586478
-0.0613807
-0.0632881
-0.0657176
-0.0697761
-0.0756144
-0.0831055
-0.0918093
-0.10157
-0.112656
-0.125551
-0.139964
-0.153466
-0.162122
-0.162649
-0.153275
-0.13674
-0.116499
-0.0964193
-0.0785991
-0.0639241
-0.0524538
-0.0437942
-0.0374021
-0.0327286
-0.0293029
-0.0267428
-0.024759
-0.0231296
-0.0217007
-0.0203619
-0.0190564
-0.0177488
-0.0164409
-0.0151327
-0.0138465
-0.0125886
-0.0113809
-0.0102247
-0.00913674
-0.0081122
-0.00716426
-0.00628366
-0.00548129
-0.00474397
-0.00408032
-0.00347382
-0.00293032
-0.00242967
-0.00197893
-0.00155296
-0.00117017
-0.000793551
-0.000466739
-0.000130116
-0.403745
-0.415797
-0.432593
-0.451068
-0.468098
-0.484161
-0.499866
-0.514282
-0.528273
-0.538945
-0.546578
-0.550647
-0.550091
-0.544015
-0.531592
-0.512249
-0.485912
-0.453203
-0.415462
-0.37451
-0.332262
-0.290372
-0.250054
-0.212085
-0.176881
-0.144616
-0.115311
-0.0889087
-0.0652831
-0.0443389
-0.0262842
-0.0118374
-0.00259667
0.00079307
-0.00286656
-0.00718853
-0.016265
-0.027422
-0.0338775
-0.0399974
-0.0449986
-0.0505228
-0.0574057
-0.0659411
-0.0760142
-0.0870596
-0.0988499
-0.112102
-0.127489
-0.14452
-0.160343
-0.17053
-0.171492
-0.161328
-0.144169
-0.122914
-0.101716
-0.0828787
-0.0673378
-0.0551447
-0.0458908
-0.0390209
-0.0339752
-0.0302692
-0.0275059
-0.0253795
-0.0236531
-0.0221587
-0.0207745
-0.0194346
-0.0180975
-0.0167615
-0.015425
-0.0141104
-0.0128242
-0.0115895
-0.0104078
-0.00929686
-0.00825135
-0.00728509
-0.00638791
-0.00557105
-0.00482051
-0.00414509
-0.0035278
-0.00297456
-0.0024652
-0.00200676
-0.00157405
-0.00118571
-0.000804051
-0.000473286
-0.000132705
-0.386543
-0.395475
-0.411164
-0.428241
-0.443356
-0.457898
-0.472473
-0.486108
-0.498147
-0.507619
-0.514494
-0.517944
-0.517235
-0.511634
-0.500496
-0.483404
-0.460318
-0.431706
-0.398553
-0.362209
-0.324136
-0.285679
-0.247924
-0.211676
-0.177465
-0.145594
-0.116196
-0.0893115
-0.064901
-0.042855
-0.0232623
-0.00655061
0.00627019
0.0143698
0.0169504
0.0152482