/*--------------------------------*- C++ -*----------------------------------*\
| =========                 |                                                 |
| \\      /  F ield         | OpenFOAM: The Open Source CFD Toolbox           |
|  \\    /   O peration     | Version:  2312                                  |
|   \\  /    A nd           | Website:  www.openfoam.com                      |
|    \\/     M anipulation  |                                                 |
\*---------------------------------------------------------------------------*/
FoamFile
{
    version     2.0;
    format      ascii;
    arch        "LSB;label=32;scalar=64";
    class       volVectorField;
    location    "106.1";
    object      U;
}
// * * * * * * * * * * * * * * * * * * * * * * * * * * * * * * * * * * * * * //

dimensions      [0 1 -1 0 0 0 0];

internalField   nonuniform List<vector> 
5478
(
(-0.0448587 0.0276325 -8.72685e-20)
(-0.0798219 0.0450942 0)
(-0.0593636 0.0454998 1.30114e-19)
(0.0380477 0.0404482 -2.26485e-19)
(0.226055 0.0333198 1.45702e-19)
(0.483318 0.028458 -4.42095e-20)
(0.762644 0.0277642 -7.40884e-20)
(1.01761 0.0283216 0)
(1.21563 0.0261156 0)
(1.33969 0.0162341 9.86375e-20)
(1.39095 -0.00120032 -4.43066e-20)
(1.38713 -0.0228673 -7.57519e-20)
(1.35223 -0.0569736 -2.96964e-20)
(1.32772 -0.0609538 0)
(1.30548 -0.127551 7.9504e-20)
(-0.0549618 0.0332716 1.75411e-19)
(-0.0679227 0.0451601 0)
(0.014206 0.0362656 0)
(0.213024 0.0271633 -1.15022e-19)
(0.505398 0.0277116 1.50827e-19)
(0.8156 0.0370427 4.25625e-20)
(1.07685 0.0482714 -7.29016e-20)
(1.25546 0.0542557 6.46422e-20)
(1.34763 0.0508392 1.60299e-19)
(1.37219 0.0376448 -1.40306e-19)
(1.36108 0.0200438 3.2897e-21)
(1.34084 -0.00294404 0)
(1.33061 -0.0186923 2.96449e-20)
(1.31466 -0.0412698 0)
(1.29017 -0.0602338 0)
(-0.0567627 0.0310066 -5.17821e-22)
(-0.0284686 0.0342906 -8.29609e-20)
(0.148876 0.0250764 7.0345e-22)
(0.46642 0.0309965 0)
(0.815516 0.0512544 -5.17359e-20)
(1.09442 0.0721562 4.36079e-20)
(1.26583 0.0837573 3.65256e-20)
(1.34125 0.0831699 0)
(1.35654 0.072819 -5.32685e-20)
(1.34901 0.0587215 4.5131e-20)
(1.33812 0.0416642 3.80834e-20)
(1.32793 0.0282119 0)
(1.30743 0.00882311 0)
(1.28225 -0.000187615 -7.98423e-20)
(1.25752 -0.0223992 7.11172e-20)
(-0.0480526 0.022632 -9.73636e-20)
(0.0509008 0.0154483 8.17958e-20)
(0.357075 0.0239325 -7.05792e-20)
(0.752737 0.0589324 6.25555e-20)
(1.07123 0.093872 1.04162e-19)
(1.25789 0.113301 -8.70864e-20)
(1.33636 0.116186 -3.6506e-20)
(1.3549 0.108445 2.86055e-20)
(1.3511 0.0967238 -2.73009e-20)
(1.3396 0.0825909 0)
(1.32297 0.0696102 0)
(1.30043 0.0527351 -5.43848e-20)
(1.28061 0.0408524 7.08065e-20)
(1.26372 0.0249354 -3.98754e-20)
(1.24728 0.00904128 0)
(-0.0257469 0.0111567 4.93874e-20)
(0.184412 0.00264939 4.14824e-20)
(0.611846 0.0499313 -1.49683e-19)
(0.998276 0.107171 2.288e-21)
(1.22956 0.141056 -1.46337e-21)
(1.32978 0.150916 -1.58005e-21)
(1.35703 0.146481 3.50648e-20)
(1.35311 0.13605 2.95675e-20)
(1.33677 0.122835 2.1489e-20)
(1.31639 0.109291 -3.18458e-21)
(1.29662 0.0939742 -4.89785e-20)
(1.28095 0.0811185 0)
(1.26467 0.0671273 2.23728e-20)
(1.24557 0.0536036 -1.67042e-20)
(1.22554 0.0439983 2.98803e-20)
(0.0173003 -0.000403515 -1.07825e-19)
(0.372742 0.0148238 1.16306e-19)
(0.849989 0.101315 -4.00933e-20)
(1.16674 0.162643 2.99325e-20)
(1.31314 0.186566 -5.53917e-20)
(1.35731 0.187559 -4.10642e-20)
(1.3552 0.178146 1.27237e-21)
(1.3371 0.164751 0)
(1.31693 0.150408 4.35218e-20)
(1.29873 0.135355 -3.8703e-20)
(1.28166 0.121683 1.55213e-20)
(1.26255 0.107085 0)
(1.24343 0.0939181 9.48929e-21)
(1.22675 0.0803784 -1.68315e-20)
(1.21192 0.0696417 0)
(0.0864519 -0.00401886 -1.35293e-20)
(0.581018 0.0620483 1.32112e-21)
(1.03376 0.167001 1.94333e-20)
(1.26913 0.220342 3.28812e-20)
(1.35003 0.232531 -2.51066e-20)
(1.35728 0.225197 4.21574e-20)
(1.33996 0.211065 -9.54706e-21)
(1.31849 0.195392 0)
(1.29736 0.179299 -2.55864e-20)
(1.27672 0.16367 1.7243e-21)
(1.25695 0.147783 2.12636e-20)
(1.24005 0.133211 0)
(1.2249 0.119223 -1.37963e-20)
(1.20945 0.105541 0)
(1.19361 0.0976977 8.42684e-21)
(0.179258 0.00806603 -1.50087e-20)
(0.765457 0.134667 0)
(1.16068 0.240459 2.07507e-20)
(1.32153 0.279516 0)
(1.35528 0.278983 0)
(1.34221 0.264138 0)
(1.31819 0.245909 -8.14699e-21)
(1.29375 0.227225 0)
(1.27163 0.208835 5.16249e-21)
(1.25248 0.190808 0)
(1.2356 0.174186 -6.63455e-21)
(1.21891 0.158057 0)
(1.20278 0.142883 4.30199e-21)
(1.18863 0.129237 0)
(1.17632 0.119019 2.79054e-21)
(-0.00542247 0.0959411 -1.18357e-20)
(-0.0227844 0.232069 0)
(-0.0554775 0.305416 1.8396e-20)
(-0.0913023 0.347258 0)
(-0.12372 0.384217 0)
(-0.14914 0.422304 0)
(-0.16451 0.456629 -1.21225e-20)
(-0.166877 0.48074 0)
(-0.153649 0.48872 1.05314e-20)
(-0.123313 0.475335 0)
(-0.0755653 0.437464 -1.88176e-20)
(-0.0111025 0.373906 0)
(0.0652701 0.282951 1.67156e-20)
(0.14603 0.164175 0)
(0.230326 0.0267823 1.42114e-20)
(-0.00853108 0.0942825 5.88272e-20)
(-0.021565 0.244388 -4.13794e-20)
(-0.0380689 0.33251 1.76982e-20)
(-0.0561589 0.378863 6.42953e-20)
(-0.0692974 0.410956 5.37892e-22)
(-0.0724586 0.438842 -5.23657e-20)
(-0.062269 0.459729 3.5621e-20)
(-0.0364466 0.46766 0)
(0.00628242 0.457515 3.2703e-20)
(0.0666199 0.426114 2.58214e-21)
(0.14287 0.370687 -1.77216e-20)
(0.227292 0.289219 0)
(0.332447 0.193511 -4.97203e-20)
(0.410666 0.0679499 0)
(0.527104 -0.0529365 -7.14624e-20)
(-0.0104083 0.0768593 9.27396e-20)
(-0.0218938 0.227315 1.9935e-20)
(-0.0233385 0.330113 -3.60045e-20)
(-0.0221077 0.384797 -9.48861e-20)
(-0.0139869 0.413927 5.56786e-20)
(0.00585494 0.431371 5.1214e-20)
(0.0406937 0.438647 -9.00981e-20)
(0.0922552 0.43225 0)
(0.160391 0.408264 -8.28976e-20)
(0.242399 0.361584 7.3701e-20)
(0.342641 0.300971 3.4784e-20)
(0.430037 0.206896 0)
(0.558817 0.119158 3.29894e-20)
(0.624612 -0.00742643 -5.75943e-20)
(0.782854 -0.11063 0)
(-0.00994841 0.0511335 4.51499e-20)
(-0.0239459 0.184479 -1.19808e-19)
(-0.0174115 0.294026 1.39085e-19)
(-0.000759205 0.358291 -1.20601e-19)
(0.0265402 0.388755 -5.22268e-20)
(0.0670643 0.39892 4.63188e-20)
(0.122714 0.394545 4.47062e-20)
(0.194039 0.374823 3.82545e-20)
(0.27986 0.342739 -1.12397e-19)
(0.374609 0.28462 -4.33514e-21)
(0.484177 0.228299 2.98576e-20)
(0.580798 0.130449 0)
(0.727062 0.0615051 5.66984e-20)
(0.808911 -0.0774194 1.68269e-19)
(1.01365 -0.170521 -9.82872e-20)
(-0.00825092 0.0270886 -5.02933e-22)
(-0.0277802 0.130218 7.73151e-20)
(-0.0233091 0.230665 -6.68086e-20)
(-0.000439773 0.29665 5.96184e-20)
(0.0390617 0.328356 1.01921e-19)
(0.094466 0.33484 -8.97731e-20)
(0.165017 0.323591 -3.87008e-20)
(0.249306 0.296199 -1.13058e-19)
(0.34628 0.260082 1.02052e-19)
(0.457115 0.20215 0)
(0.582718 0.150006 0)
(0.728189 0.0538886 1.18081e-19)
(0.894578 -0.0124875 -2.71167e-19)
(1.04872 -0.146965 9.74545e-20)
(1.24887 -0.227549 0)
(-0.00876683 0.0122872 4.00221e-22)
(-0.0358461 0.0824812 -7.62992e-20)
(-0.04092 0.158487 1.98727e-19)
(-0.0211951 0.21229 -5.74037e-20)
(0.0214033 0.238231 -4.97346e-20)
(0.0843806 0.240759 4.34909e-20)
(0.167593 0.226501 3.87287e-20)
(0.273879 0.199491 6.92404e-20)
(0.407704 0.161277 -1.22989e-19)
(0.571249 0.112202 5.76219e-20)
(0.755369 0.05281 5.38624e-20)
(0.961544 -0.0222329 0)
(1.14719 -0.0864363 0)
(1.31744 -0.18952 1.68574e-19)
(1.4221 -0.231783 -1.49613e-19)
(-0.0157168 0.00977201 -3.31756e-22)
(-0.0518195 0.0528641 0)
(-0.0673237 0.0980212 0)
(-0.0513346 0.130091 1.09033e-19)
(-0.00164213 0.143842 -4.89217e-20)
(0.0859383 0.1407 4.08775e-20)
(0.217567 0.124663 7.27453e-20)
(0.393172 0.100514 -6.44964e-20)
(0.603759 0.0663277 6.15764e-20)
(0.830203 0.0314076 -5.76782e-20)
(1.05332 -0.0165257 -4.24911e-21)
(1.24241 -0.0592463 0)
(1.38196 -0.110613 3.90178e-20)
(1.44872 -0.168296 0)
(1.4302 -0.186654 0)
(-0.0297254 0.0171984 -8.54639e-20)
(-0.0712447 0.0430164 0)
(-0.083131 0.0609297 -1.27904e-19)
(-0.0477021 0.0712547 2.21928e-19)
(0.0485099 0.0717784 -2.37717e-19)
(0.211331 0.0631453 -3.98167e-20)
(0.431046 0.0501184 7.24755e-20)
(0.681364 0.0356798 0)
(0.930558 0.0195529 0)
(1.14885 0.00223219 -1.06576e-19)
(1.31068 -0.025051 -4.95405e-20)
(1.40496 -0.0463412 8.43527e-20)
(1.42716 -0.0914342 -3.90984e-20)
(1.38965 -0.111386 0)
(1.34484 -0.141247 -9.88166e-20)
(0.366174 -0.248355 0)
(0.520315 -0.633404 4.41917e-21)
(0.566358 -0.805225 -4.06211e-21)
(0.672389 -0.741452 0)
(0.520921 -0.746956 0)
(0.343429 -0.641552 -8.95557e-23)
(0.494757 -0.186592 0)
(0.681493 0.273549 0)
(0.8101 0.476283 5.93073e-23)
(0.884913 0.505544 0)
(0.820649 0.606065 0)
(0.713628 0.584275 -8.41407e-23)
(0.746832 0.323402 0)
(0.89644 0.0476039 -8.38512e-23)
(0.95564 -0.25173 -8.92603e-23)
(0.983678 -0.445266 0)
(1.0069 -0.580877 -4.82691e-22)
(1.00298 -0.457546 5.7142e-22)
(0.997066 -0.117906 0)
(1.04427 0.211688 5.17608e-22)
(1.07804 0.567945 -5.96388e-22)
(1.0926 0.528296 1.20638e-22)
(1.04392 0.123123 -2.22494e-22)
(1.12368 -0.155719 2.12596e-22)
(1.10113 -0.553694 -2.04049e-22)
(1.14676 -0.496562 0)
(1.17165 0.401144 -2.2268e-22)
(1.10952 0.607514 2.1292e-22)
(1.0251 -0.0552588 -1.38571e-22)
(0.98725 -0.342038 0)
(1.04567 0.0247544 -6.08528e-23)
(0.950467 0.0810662 0)
(0.924158 -0.023812 -1.87313e-23)
(0.963978 0.0441119 -8.15366e-24)
(0.924565 0.00065629 1.06496e-24)
(0.87458 -0.01556 -6.24159e-24)
(0.959465 0.0170257 0)
(0.943335 0.0143267 2.51189e-24)
(0.645367 -0.329933 2.64908e-20)
(0.801316 -0.669523 -1.61347e-22)
(0.74857 -0.851786 -1.15229e-20)
(0.741001 -0.760487 1.09906e-20)
(0.654202 -0.658772 0)
(0.403491 -0.603232 9.0249e-23)
(0.418226 -0.274647 -1.22377e-22)
(0.59721 0.169015 0)
(0.772485 0.407346 -5.97567e-23)
(0.842647 0.504849 0)
(0.743959 0.650826 0)
(0.6553 0.597117 8.47498e-23)
(0.720713 0.280651 0)
(0.914423 0.0038086 2.9841e-21)
(0.986701 -0.267217 -2.49693e-21)
(1.00963 -0.459024 2.45529e-21)
(1.03189 -0.588818 -2.34364e-21)
(1.01417 -0.459211 -1.11221e-22)
(0.998189 -0.124665 0)
(1.02223 0.191023 0)
(1.05521 0.552019 -1.23701e-22)
(1.08704 0.529698 8.68595e-22)
(1.03055 0.126918 -1.55119e-21)
(1.13976 -0.163446 7.75799e-22)
(1.11812 -0.549882 5.90627e-22)
(1.11932 -0.507717 0)
(1.15879 0.401672 6.10314e-22)
(1.11861 0.611909 0)
(1.04412 -0.0394724 1.39057e-22)
(0.992226 -0.347071 -2.17861e-22)
(1.049 0.0263705 3.39115e-22)
(0.948951 0.091238 -2.79068e-23)
(0.925333 -0.0260614 4.21042e-23)
(0.97524 0.0438218 -4.37887e-25)
(0.932772 0.00729821 1.13211e-23)
(0.876326 -0.0176459 -6.49735e-24)
(0.957997 0.0128375 -4.39904e-25)
(0.946678 0.015144 3.05086e-25)
(0.881898 -0.397434 4.64971e-20)
(1.02088 -0.665343 -7.92293e-20)
(0.954377 -0.791807 1.09907e-20)
(0.808118 -0.730771 2.15056e-20)
(0.745278 -0.583964 1.69307e-22)
(0.527576 -0.544278 -1.29337e-22)
(0.444345 -0.345381 1.24478e-22)
(0.561949 0.0500717 -1.42632e-22)
(0.747175 0.337551 0)
(0.837742 0.511393 6.83082e-21)
(0.750284 0.691769 -6.51612e-21)
(0.658128 0.61774 -2.11129e-22)
(0.732153 0.24453 0)
(0.936318 -0.0385796 -6.10926e-21)
(1.01952 -0.265699 5.64496e-21)
(1.03855 -0.452732 -2.50116e-21)
(1.05069 -0.586948 2.3865e-21)
(1.01953 -0.46209 2.42432e-21)
(0.998076 -0.132461 -2.07213e-21)
(0.99635 0.174604 0)
(1.02592 0.537575 0)
(1.07814 0.534977 1.40331e-21)
(1.01849 0.136032 -1.33957e-21)
(1.14679 -0.166456 -1.52269e-21)
(1.12938 -0.536371 -4.52081e-22)
(1.07664 -0.519937 1.78908e-21)
(1.13757 0.394503 4.69701e-23)
(1.12391 0.620604 -6.92336e-22)
(1.05819 -0.0140983 1.23895e-21)
(0.993358 -0.347596 -1.05605e-21)
(1.04889 0.0275723 4.67673e-23)
(0.945644 0.101657 -1.11756e-22)
(0.923676 -0.02871 2.89973e-23)
(0.984296 0.0429197 -2.77255e-23)
(0.939877 0.0145682 -8.86243e-24)
(0.87693 -0.018973 -5.73878e-24)
(0.954192 0.00855778 1.0278e-23)
(0.948074 0.0156563 2.24931e-24)
(1.10987 -0.435191 0)
(1.15987 -0.657291 3.16227e-20)
(1.0904 -0.714519 -3.10807e-20)
(0.878099 -0.675785 0)
(0.791309 -0.524904 -1.74015e-22)
(0.648087 -0.475606 1.32889e-22)
(0.546373 -0.387522 0)
(0.613155 -0.0701346 3.23849e-23)
(0.77496 0.244247 -1.62668e-22)
(0.828577 0.485731 0)
(0.685853 0.724597 -7.34223e-21)
(0.634023 0.644681 7.21677e-21)
(0.76166 0.219894 -4.97599e-22)
(0.962979 -0.0789771 -6.46326e-21)
(1.05154 -0.269126 6.1624e-21)
(1.06745 -0.447245 3.26795e-22)
(1.0652 -0.584682 0)
(1.02047 -0.468319 -2.58758e-22)
(1.00072 -0.146313 5.03457e-21)
(0.974046 0.147489 -1.01162e-22)
(0.987485 0.506846 -1.05844e-21)
(1.0563 0.534779 -2.96376e-21)
(1.00508 0.146618 -2.34832e-21)
(1.14384 -0.168456 2.82645e-21)
(1.13687 -0.519765 -3.62786e-22)
(1.02653 -0.529065 0)
(1.10617 0.369502 -6.72345e-22)
(1.11797 0.616898 7.01496e-22)
(1.06472 0.00960206 -1.22286e-21)
(0.991335 -0.34707 1.03789e-21)
(1.04559 0.0265412 -1.68156e-22)
(0.940655 0.111489 0)
(0.91959 -0.0319989 -3.03567e-23)
(0.990928 0.0411435 5.73693e-23)
(0.945725 0.0222577 2.33751e-23)
(0.876853 -0.0194915 2.60186e-23)
(0.94869 0.00424478 -1.02852e-23)
(0.947855 0.0158503 -9.098e-26)
(1.31329 -0.426359 5.65497e-22)
(1.26413 -0.581248 1.03832e-21)
(1.1413 -0.60737 0)
(0.944328 -0.593687 0)
(0.814317 -0.491361 0)
(0.743034 -0.423199 0)
(0.646935 -0.412269 4.59384e-21)
(0.691149 -0.180237 -8.98477e-21)
(0.817653 0.161781 4.68138e-21)
(0.820202 0.494794 0)
(0.702778 0.771917 -7.57023e-21)
(0.705349 0.668682 7.42713e-21)
(0.831799 0.206881 8.63329e-21)
(1.00384 -0.111336 -7.27487e-21)
(1.07951 -0.267223 5.83661e-21)
(1.08843 -0.428309 -5.8979e-21)
(1.07218 -0.571907 -2.74548e-22)
(1.0127 -0.476125 -4.87956e-21)
(0.995979 -0.160835 4.65035e-21)
(0.946238 0.132399 6.6831e-22)
(0.946228 0.487769 5.3172e-22)
(1.03546 0.537927 2.00363e-21)
(0.996373 0.160699 -2.25172e-21)
(1.13377 -0.165144 -6.12439e-22)
(1.14012 -0.495945 -2.86327e-22)
(0.971525 -0.539393 -6.33071e-22)
(1.06825 0.340579 0)
(1.11243 0.620774 0)
(1.06696 0.0405833 0)
(0.987375 -0.341967 0)
(1.03991 0.0250104 4.37833e-22)
(0.934801 0.121476 -2.54881e-22)
(0.913919 -0.0354617 6.38533e-23)
(0.995263 0.0385742 -1.94027e-22)
(0.950264 0.0302603 2.38355e-23)
(0.876575 -0.0191733 5.30775e-24)
(0.942267 -6.93597e-06 -1.69841e-23)
(0.946454 0.0157361 -5.5299e-24)
(1.39944 -0.37411 -5.95478e-22)
(1.30618 -0.470336 5.29567e-20)
(1.15542 -0.503141 -5.09161e-20)
(1.01489 -0.508042 -2.74741e-20)
(0.862094 -0.456782 2.6166e-20)
(0.807918 -0.388476 1.48275e-20)
(0.735379 -0.413909 -1.38104e-20)
(0.723631 -0.279364 1.47216e-22)
(0.851119 0.0575178 -1.80753e-22)
(0.845241 0.411379 0)
(0.697405 0.734602 -2.35327e-22)
(0.678416 0.703424 1.75541e-20)
(0.855805 0.236231 -1.67032e-20)
(1.0397 -0.113062 -4.78905e-22)
(1.10708 -0.256487 0)
(1.1103 -0.404819 -5.25787e-21)
(1.08112 -0.554541 9.61773e-21)
(1.00345 -0.484229 -4.12509e-21)
(0.986823 -0.182442 0)
(0.924133 0.101615 4.42518e-21)
(0.902537 0.444815 -1.96612e-21)
(0.996758 0.532743 -3.28745e-21)
(0.983205 0.177855 -2.3242e-21)
(1.1201 -0.157681 2.26789e-21)
(1.13641 -0.469253 -3.73882e-21)
(0.923919 -0.544057 -2.03027e-21)
(1.02243 0.294548 6.07455e-21)
(1.09307 0.610335 -2.02765e-21)
(1.05996 0.067995 1.92774e-21)
(0.982187 -0.33659 -4.92939e-22)
(1.03206 0.0208903 4.68774e-22)
(0.927996 0.13081 0)
(0.907227 -0.0391755 6.74017e-23)
(0.99747 0.0351062 -8.64788e-24)
(0.953456 0.0383532 0)
(0.876471 -0.018092 -3.36107e-23)
(0.935708 -0.00416028 1.05951e-23)
(0.944354 0.015339 -2.0716e-24)
(1.35879 -0.288182 0)
(1.2833 -0.362193 0)
(1.16218 -0.411822 -1.65698e-22)
(1.05833 -0.440909 0)
(0.937586 -0.4169 0)
(0.85129 -0.354077 1.50676e-20)
(0.806406 -0.389332 -1.4335e-20)
(0.716213 -0.365536 1.14589e-20)
(0.809327 -0.0488447 -1.08808e-20)
(0.81842 0.405061 0)
(0.668716 0.771714 -2.10666e-22)
(0.749886 0.706295 2.3421e-22)
(0.924045 0.227103 -1.8074e-20)
(1.08422 -0.129765 1.89609e-21)
(1.13073 -0.253426 1.42845e-20)
(1.12409 -0.38117 1.76253e-22)
(1.08565 -0.528284 -1.26549e-22)
(0.993667 -0.491753 1.01215e-20)
(0.969026 -0.205079 -9.90122e-21)
(0.8956 0.0895593 0)
(0.860206 0.426958 0)
(0.971623 0.531995 -1.43195e-22)
(0.976568 0.190162 0)
(1.11104 -0.146131 2.06324e-21)
(1.12507 -0.434078 1.94519e-21)
(0.885463 -0.550796 -3.43344e-21)
(0.979186 0.251078 -5.76289e-21)
(1.07893 0.610915 3.77255e-21)
(1.05226 0.0990509 -1.21274e-22)
(0.977701 -0.327787 0)
(1.02346 0.0168427 -2.91313e-22)
(0.921494 0.140162 2.7621e-22)
(0.90049 -0.0429577 4.22679e-23)
(0.997944 0.0308467 2.37145e-23)
(0.955424 0.0463943 -2.93924e-23)
(0.876795 -0.0163729 1.43132e-23)
(0.92968 -0.00817047 0)
(0.942025 0.0147049 4.32568e-24)
(1.30186 -0.216341 6.06182e-20)
(1.26377 -0.283055 4.97535e-20)
(1.18693 -0.335529 -6.7787e-21)
(1.08766 -0.386859 -6.88823e-20)
(0.999406 -0.391727 2.90011e-20)
(0.896054 -0.338396 -1.43834e-22)
(0.842876 -0.356168 0)
(0.734825 -0.382805 -8.53947e-23)
(0.705389 -0.197353 -1.0261e-22)
(0.750541 0.211311 0)
(0.704906 0.651201 -1.44541e-20)
(0.722893 0.742153 1.3681e-20)
(0.884644 0.329508 2.81285e-22)
(1.10407 -0.07368 1.45155e-20)
(1.15492 -0.222531 -1.37846e-20)
(1.14296 -0.346411 1.67624e-22)
(1.09233 -0.497615 1.34648e-22)
(0.98835 -0.490977 0)
(0.947109 -0.233981 1.21458e-20)
(0.863299 0.0482506 -1.14976e-20)
(0.816009 0.370143 -3.64585e-21)
(0.920643 0.52009 1.65812e-21)
(0.95516 0.218553 1.84454e-21)
(1.11021 -0.126393 -1.7568e-21)
(1.10787 -0.395537 -1.77992e-21)
(0.864173 -0.551577 9.57264e-21)
(0.93086 0.188123 -4.59884e-21)
(1.05046 0.590738 2.23493e-21)
(1.03527 0.134355 -1.66395e-21)
(0.973539 -0.316596 0)
(1.01387 0.010029 0)
(0.91501 0.148841 0)
(0.894182 -0.046303 3.30282e-23)
(0.997016 0.0257354 -4.23961e-23)
(0.956298 0.0542316 4.36416e-23)
(0.87764 -0.0140868 -2.72046e-23)
(0.924599 -0.0120253 -1.31962e-23)
(0.939837 0.0138639 0)
(1.28193 -0.144095 0)
(1.25462 -0.205898 0)
(1.19873 -0.229739 0)
(1.11718 -0.267143 0)
(1.04033 -0.304192 0)
(0.9657 -0.247399 0)
(0.915948 -0.248782 0)
(0.783697 -0.3272 0)
(0.610761 -0.220489 0)
(0.595005 0.196066 0)
(0.596645 0.635967 0)
(0.706417 0.695109 0)
(1.00142 0.258165 0)
(1.17527 -0.10268 0)
(1.17493 -0.196993 0)
(1.15861 -0.285823 0)
(1.10004 -0.456058 0)
(0.978266 -0.502238 0)
(0.917406 -0.259004 0)
(0.834729 0.0482817 0)
(0.777457 0.357637 0)
(0.879766 0.513548 0)
(0.950803 0.212485 0)
(1.12521 -0.117169 0)
(1.09392 -0.37566 0)
(0.82936 -0.553584 0)
(0.891628 0.137767 0)
(1.02604 0.591013 0)
(1.01834 0.158295 0)
(0.96974 -0.308166 0)
(1.00136 0.00565675 0)
(0.906579 0.160884 0)
(0.888145 -0.0508486 0)
(0.993473 0.0199052 0)
(0.955504 0.0636761 0)
(0.879306 -0.0108883 0)
(0.919672 -0.0163002 0)
(0.937643 0.0127065 0)
(1.21584 -0.121478 0)
(1.19375 -0.181175 0)
(1.13871 -0.214669 0)
(1.07834 -0.263383 0)
(0.996418 -0.2712 0)
(0.912375 -0.235617 0)
(0.878353 -0.267575 0)
(0.810341 -0.238323 0)
(0.64569 -0.0780144 0)
(0.529548 0.233067 0)
(0.564671 0.567907 0)
(0.852468 0.538614 0)
(1.15716 0.117933 0)
(1.23793 -0.143595 0)
(1.17769 -0.204373 0)
(1.14175 -0.316045 0)
(1.05348 -0.434693 0)
(0.914118 -0.422109 0)
(0.847039 -0.187581 0)
(0.751009 0.100645 0)
(0.696335 0.369029 0)
(0.837121 0.478086 0)
(0.964796 0.150748 0)
(1.13678 -0.157454 0)
(1.05095 -0.329517 0)
(0.74067 -0.493745 0)
(0.85056 0.136951 0)
(0.977112 0.575142 0)
(0.998951 0.146715 0)
(0.972011 -0.305099 0)
(0.985914 0.0204948 0)
(0.894653 0.174585 0)
(0.885739 -0.062636 0)
(0.990616 0.0125406 0)
(0.955004 0.0749054 0)
(0.883122 -0.00757314 0)
(0.917972 -0.0214505 0)
(0.937382 0.0110924 0)
(1.17147 -0.090349 0)
(1.15896 -0.137536 0)
(1.1216 -0.156246 0)
(1.07618 -0.172549 0)
(1.00853 -0.189469 0)
(0.956633 -0.147556 0)
(0.912651 -0.161526 0)
(0.809431 -0.159111 0)
(0.716143 -0.00269118 0)
(0.661078 0.234168 0)
(0.756961 0.400327 0)
(1.06099 0.343427 0)
(1.25667 0.0505838 0)
(1.24153 -0.13389 0)
(1.16839 -0.161232 0)
(1.14538 -0.231335 0)
(1.04747 -0.349438 0)
(0.863646 -0.38379 0)
(0.752443 -0.16437 0)
(0.628419 0.13075 0)
(0.603912 0.332318 0)
(0.809343 0.397802 0)
(0.988021 0.107203 0)
(1.13943 -0.14533 0)
(1.03392 -0.27079 0)
(0.674895 -0.464374 0)
(0.773065 0.0923964 0)
(0.904283 0.53765 0)
(0.995333 0.147031 0)
(0.976986 -0.297644 0)
(0.967093 0.0255398 0)
(0.887408 0.184417 0)
(0.889029 -0.0737268 0)
(0.988781 0.00442529 0)
(0.954453 0.0863982 0)
(0.887737 -0.00367463 0)
(0.920144 -0.0266164 0)
(0.940014 0.00929379 0)
(1.1338 -0.0673203 0)
(1.1261 -0.101684 0)
(1.0921 -0.119387 0)
(1.05696 -0.141014 0)
(1.00495 -0.150686 0)
(0.954863 -0.126053 0)
(0.936271 -0.128202 0)
(0.861918 -0.0972981 0)
(0.801237 0.0252812 0)
(0.816752 0.187918 0)
(0.952306 0.262312 0)
(1.14007 0.203922 0)
(1.23534 0.0080756 0)
(1.21072 -0.0848853 0)
(1.13958 -0.136586 0)
(1.08394 -0.246838 0)
(0.989861 -0.295113 0)
(0.811763 -0.273123 0)
(0.653518 -0.0741949 0)
(0.536376 0.173423 0)
(0.582042 0.279107 0)
(0.818319 0.299669 0)
(1.01128 0.0273263 0)
(1.12424 -0.163954 0)
(1.01267 -0.187225 0)
(0.638109 -0.38005 0)
(0.66483 0.0647561 0)
(0.835571 0.487785 0)
(1.01408 0.118967 0)
(0.989502 -0.286835 0)
(0.9448 0.0397498 0)
(0.882355 0.194275 0)
(0.898152 -0.0878208 0)
(0.987228 -0.00397652 0)
(0.9529 0.098816 0)
(0.8929 -0.000330419 0)
(0.926416 -0.0325885 0)
(0.946433 0.00728699 0)
(1.10216 -0.0483544 0)
(1.09707 -0.0756338 0)
(1.0759 -0.0873588 0)
(1.04848 -0.098346 0)
(1.01229 -0.104706 0)
(0.976271 -0.0809593 0)
(0.958056 -0.0770198 0)
(0.910519 -0.0480576 0)
(0.881664 0.0322768 0)
(0.909788 0.120285 0)
(1.02017 0.149375 0)
(1.12568 0.141046 0)
(1.17568 0.00300555 0)
(1.14772 -0.0779298 0)
(1.12139 -0.0911948 0)
(1.07756 -0.16037 0)
(0.989502 -0.202293 0)
(0.835217 -0.188877 0)
(0.678217 -0.0118437 0)
(0.606054 0.176048 0)
(0.701102 0.188336 0)
(0.89518 0.18856 0)
(1.04619 -0.0170956 0)
(1.09686 -0.146951 0)
(1.0196 -0.106415 0)
(0.678446 -0.309154 0)
(0.585999 0.0261423 0)
(0.817544 0.415815 0)
(1.05725 0.0947733 0)
(1.00556 -0.267658 0)
(0.918601 0.0544197 0)
(0.883161 0.19892 0)
(0.913875 -0.103494 0)
(0.989839 -0.0123321 0)
(0.956985 0.111584 0)
(0.901755 0.00260797 0)
(0.937047 -0.0393527 0)
(0.956758 0.00506334 0)
(1.0807 -0.0325222 0)
(1.07788 -0.052526 0)
(1.06164 -0.05909 0)
(1.04299 -0.0681507 0)
(1.01645 -0.0719034 0)
(0.990095 -0.055497 0)
(0.978206 -0.0528897 0)
(0.948508 -0.0243513 0)
(0.941183 0.0195554 0)
(0.965667 0.070922 0)
(1.02472 0.0859223 0)
(1.08684 0.0819093 0)
(1.13226 -0.00665984 0)
(1.09991 -0.0373839 0)
(1.08159 -0.0743146 0)
(1.03809 -0.16147 0)
(0.976024 -0.148774 0)
(0.871439 -0.0987552 0)
(0.772815 0.0414469 0)
(0.773643 0.165362 0)
(0.88351 0.12789 0)
(1.00037 0.121773 0)
(1.08443 -0.0539151 0)
(1.05213 -0.154739 0)
(1.01753 -0.0309003 0)
(0.794649 -0.190616 0)
(0.581733 0.00471499 0)
(0.829954 0.306161 0)
(1.09365 0.0536682 0)
(1.01684 -0.235464 0)
(0.880909 0.0791694 0)
(0.895786 0.19851 0)
(0.942859 -0.119706 0)
(0.993826 -0.0203805 0)
(0.959493 0.124942 0)
(0.912935 0.00524531 0)
(0.950111 -0.0468494 0)
(0.96873 0.00282241 0)
(1.06407 -0.0200934 0)
(1.06243 -0.0345654 0)
(1.0513 -0.0390519 0)
(1.03959 -0.0445167 0)
(1.01998 -0.0476634 0)
(1.00487 -0.035301 0)
(0.994243 -0.033381 0)
(0.979785 -0.0107142 0)
(0.97831 0.0100281 0)
(0.992371 0.0422925 0)
(1.02577 0.0421192 0)
(1.06137 0.0500942 0)
(1.08857 -0.00890725 0)
(1.06306 -0.0367186 0)
(1.07785 -0.0457056 0)
(1.02679 -0.101292 0)
(0.965416 -0.0852559 0)
(0.906882 -0.0505905 0)
(0.865847 0.0416939 0)
(0.916173 0.128665 0)
(0.99848 0.0671174 0)
(1.05327 0.0714274 0)
(1.11622 -0.0343875 0)
(1.02113 -0.121482 0)
(0.992972 0.007554 0)
(0.936154 -0.0997783 0)
(0.706908 0.00384336 0)
(0.877576 0.197619 0)
(1.11371 0.0226462 0)
(1.02651 -0.190542 0)
(0.8536 0.0988111 0)
(0.933374 0.182087 0)
(0.983695 -0.133204 0)
(0.989152 -0.0226849 0)
(0.956943 0.138001 0)
(0.933328 0.00526534 0)
(0.970192 -0.056007 0)
(0.985296 0.000549931 0)
(1.05125 -0.0112109 0)
(1.05179 -0.0209243 0)
(1.04358 -0.0239477 0)
(1.03765 -0.0270854 0)
(1.02294 -0.0302209 0)
(1.0155 -0.0206494 0)
(1.00572 -0.0223408 0)
(1.00054 -0.00414973 0)
(0.999078 0.00152325 0)
(1.00816 0.0228151 0)
(1.0263 0.0196604 0)
(1.04144 0.0234987 0)
(1.06826 -0.00859411 0)
(1.03931 -0.0240039 0)
(1.05177 -0.0342858 0)
(1.01674 -0.077014 0)
(0.97355 -0.0558297 0)
(0.949138 -0.023076 0)
(0.926672 0.0237541 0)
(0.983951 0.0873834 0)
(1.03513 0.0445614 0)
(1.04547 0.0459374 0)
(1.09826 -0.026992 0)
(1.007 -0.0981828 0)
(0.980086 0.0136932 0)
(0.996562 -0.0469101 0)
(0.860502 0.0255428 0)
(0.950294 0.125163 0)
(1.10582 -0.00392891 0)
(1.01699 -0.139775 0)
(0.85884 0.113795 0)
(0.997489 0.155614 0)
(1.0225 -0.136908 0)
(0.973443 -0.0179704 0)
(0.964454 0.147071 0)
(0.978015 0.00167206 0)
(1.00056 -0.0648268 0)
(1.00237 -0.00134872 0)
(1.04218 -0.00500612 0)
(1.044 -0.0108179 0)
(1.03791 -0.0138222 0)
(1.03569 -0.0149194 0)
(1.02469 -0.0186768 0)
(1.02181 -0.0113951 0)
(1.01417 -0.0149175 0)
(1.01226 -0.00161649 0)
(1.01222 -0.00252332 0)
(1.01483 0.0113194 0)
(1.02738 0.00661352 0)
(1.03058 0.00947798 0)
(1.04827 -0.00775517 0)
(1.02827 -0.0206797 0)
(1.03871 -0.0229018 0)
(1.01588 -0.0448799 0)
(0.982828 -0.0318336 0)
(0.977035 -0.00744909 0)
(0.96304 0.0112384 0)
(0.998719 0.0582216 0)
(1.03459 0.0258935 0)
(1.03393 0.0267162 0)
(1.07871 -0.00716888 0)
(1.00258 -0.0647368 0)
(0.984468 0.0194887 0)
(1.00575 -0.0284712 0)
(0.945333 0.0204136 0)
(1.00206 0.0819382 0)
(1.0857 -0.00139582 0)
(1.00144 -0.0911045 0)
(0.894519 0.107205 0)
(1.06428 0.124358 0)
(1.05007 -0.122694 0)
(0.959243 -0.00732915 0)
(0.991876 0.143557 0)
(1.03993 -0.00528519 0)
(1.02541 -0.0661696 0)
(1.00543 0.000382404 0)
(1.0356 -0.000684342 0)
(1.03792 -0.00412179 0)
(1.03372 -0.00686192 0)
(1.03317 -0.00711572 0)
(1.02594 -0.010781 0)
(1.02444 -0.00556249 0)
(1.01975 -0.0097907 0)
(1.01801 -0.000557464 0)
(1.01925 -0.004086 0)
(1.01802 0.00474792 0)
(1.02693 0.00033438 0)
(1.02441 0.00175624 0)
(1.0364 -0.0069055 0)
(1.02373 -0.0140958 0)
(1.026 -0.015995 0)
(1.01507 -0.0276415 0)
(0.992655 -0.0211088 0)
(0.992856 -0.00141329 0)
(0.98582 0.00324435 0)
(1.00271 0.0362328 0)
(1.03173 0.0177633 0)
(1.01938 0.0145058 0)
(1.05643 0.00080604 0)
(1.00476 -0.0475196 0)
(0.994507 0.0170918 0)
(1.01279 -0.0180174 0)
(0.978554 0.0184449 0)
(1.01235 0.0534415 0)
(1.06351 0.00173245 0)
(0.99893 -0.0547918 0)
(0.933604 0.0835858 0)
(1.0941 0.0951851 0)
(1.05703 -0.0960787 0)
(0.950294 -1.48836e-05 0)
(1.02477 0.122393 0)
(1.08546 -0.0095643 0)
(1.02683 -0.054961 0)
(0.998444 0.00614367 0)
(1.03079 0.00211817 0)
(1.03289 9.07445e-05 0)
(1.03053 -0.00224132 0)
(1.03039 -0.00225433 0)
(1.02613 -0.00548641 0)
(1.02481 -0.00207091 0)
(1.02255 -0.00612371 0)
(1.02042 8.4428e-05 0)
(1.02232 -0.00428979 0)
(1.01928 0.00194262 0)
(1.02537 -0.00282797 0)
(1.02169 -0.000753865 0)
(1.02795 -0.00619009 0)
(1.02079 -0.0100746 0)
(1.02 -0.0109971 0)
(1.01524 -0.0152296 0)
(1.00161 -0.0125948 0)
(1.00146 0.00148519 0)
(1.0002 0.00139607 0)
(1.00391 0.0221819 0)
(1.02784 0.0114378 0)
(1.01388 0.00667939 0)
(1.04132 0.00800615 0)
(1.00938 -0.0311681 0)
(0.999335 0.018608 0)
(1.01497 -0.0119956 0)
(0.992802 0.0142395 0)
(1.01428 0.0343595 0)
(1.04555 0.00813355 0)
(1.00387 -0.0253896 0)
(0.958188 0.0569464 0)
(1.08717 0.0710017 0)
(1.05393 -0.0625318 0)
(0.951492 0.00370434 0)
(1.04473 0.0911417 0)
(1.09532 -0.00675474 0)
(1.01512 -0.0355621 0)
(0.998727 0.0113445 0)
(1.02713 0.00379376 0)
(1.02879 0.00253046 0)
(1.02769 0.000650645 0)
(1.02756 0.000600124 0)
(1.02527 -0.0020822 0)
(1.02407 0.000115058 0)
(1.02315 -0.00350547 0)
(1.02111 0.0007382 0)
(1.02275 -0.00365226 0)
(1.01964 0.00102999 0)
(1.02358 -0.00361553 0)
(1.01981 -0.00105062 0)
(1.02341 -0.00532257 0)
(1.01891 -0.00598794 0)
(1.01755 -0.00724328 0)
(1.01477 -0.00807713 0)
(1.00765 -0.00734034 0)
(1.00627 0.00155487 0)
(1.00819 0.000767809 0)
(1.00621 0.0126638 0)
(1.02438 0.00818694 0)
(1.01105 0.0026567 0)
(1.02975 0.00920733 0)
(1.01216 -0.0218161 0)
(1.00329 0.0168473 0)
(1.01758 -0.00931003 0)
(1.00094 0.0141753 0)
(1.0137 0.0215936 0)
(1.03156 0.00800453 0)
(1.01217 -0.00612063 0)
(0.976357 0.0367106 0)
(1.06795 0.0518878 0)
(1.04618 -0.0337493 0)
(0.96517 0.00283616 0)
(1.04972 0.0600983 0)
(1.08196 0.000996292 0)
(1.00873 -0.016912 0)
(1.00711 0.0127476 0)
(1.02411 0.00466031 0)
(1.02534 0.00384565 0)
(1.02497 0.00233135 0)
(1.02492 0.00224467 0)
(1.02372 9.81425e-05 0)
(1.02277 0.0014593 0)
(1.02237 -0.00154887 0)
(1.02075 0.00133707 0)
(1.02193 -0.00256653 0)
(1.01932 0.00111749 0)
(1.0218 -0.00328382 0)
(1.01857 -0.000291785 0)
(1.02082 -0.00421428 0)
(1.01731 -0.00295635 0)
(1.01684 -0.00483052 0)
(1.01435 -0.0038247 0)
(1.01159 -0.00386617 0)
(1.00945 0.00132605 0)
(1.01222 0.00130912 0)
(1.00837 0.00703163 0)
(1.02131 0.00626325 0)
(1.01071 0.000797556 0)
(1.02355 0.00970766 0)
(1.0135 -0.0138447 0)
(1.00685 0.0163791 0)
(1.01761 -0.00738959 0)
(1.00579 0.0141655 0)
(1.01515 0.0139855 0)
(1.02374 0.00801148 0)
(1.01633 0.00793579 0)
(0.990586 0.0228974 0)
(1.0519 0.0370649 0)
(1.03768 -0.0108943 0)
(0.984351 0.00149573 0)
(1.04633 0.0363993 0)
(1.06399 0.0103346 0)
(1.01047 -0.00224038 0)
(1.01602 0.0122221 0)
(1.02147 0.00497285 0)
(1.0224 0.00442711 0)
(1.02242 0.00324945 0)
(1.02241 0.00311071 0)
(1.0218 0.00145454 0)
(1.0211 0.00225778 0)
(1.02096 -0.000110451 0)
(1.01977 0.00188254 0)
(1.02057 -0.00140247 0)
(1.01852 0.00158688 0)
(1.02015 -0.00244673 0)
(1.01747 0.000810044 0)
(1.01919 -0.003214 0)
(1.0162 -0.000563366 0)
(1.01661 -0.00318863 0)
(1.01411 -0.00114456 0)
(1.01372 -0.00169749 0)
(1.01129 0.000986805 0)
(1.01405 0.00189557 0)
(1.01018 0.00361695 0)
(1.01907 0.00533712 0)
(1.011 0.00013286 0)
(1.01971 0.00873995 0)
(1.01365 -0.00890022 0)
(1.00981 0.014584 0)
(1.01755 -0.00650721 0)
(1.00896 0.0145725 0)
(1.01601 0.0089777 0)
(1.01938 0.00643091 0)
(1.01779 0.015418 0)
(1.00239 0.0129302 0)
(1.04021 0.0271613 0)
(1.03018 0.00380895 0)
(1.00123 -0.00221188 0)
(1.04078 0.0200782 0)
(1.04949 0.0173577 0)
(1.01511 0.00663819 0)
(1.0223 0.010423 0)
(1.01918 0.00491815 0)
(1.0199 0.00454455 0)
(1.02006 0.00364675 0)
(1.02012 0.00348952 0)
(1.01982 0.00225716 0)
(1.01936 0.0027285 0)
(1.01932 0.000922918 0)
(1.01848 0.00234663 0)
(1.01904 -0.000354327 0)
(1.01749 0.00216748 0)
(1.01865 -0.00148281 0)
(1.01645 0.00186905 0)
(1.01795 -0.00221386 0)
(1.01529 0.00117578 0)
(1.01639 -0.00200083 0)
(1.01384 0.000525757 0)
(1.01478 -0.000381854 0)
(1.01225 0.00085666 0)
(1.01492 0.00243701 0)
(1.0113 0.0017754 0)