/*--------------------------------*- C++ -*----------------------------------*\
| =========                 |                                                 |
| \\      /  F ield         | OpenFOAM: The Open Source CFD Toolbox           |
|  \\    /   O peration     | Version:  2312                                  |
|   \\  /    A nd           | Website:  www.openfoam.com                      |
|    \\/     M anipulation  |                                                 |
\*---------------------------------------------------------------------------*/
FoamFile
{
    version     2.0;
    format      ascii;
    arch        "LSB;label=32;scalar=64";
    class       volScalarField;
    location    "8.5";
    object      p;
}
// * * * * * * * * * * * * * * * * * * * * * * * * * * * * * * * * * * * * * //

dimensions      [0 2 -2 0 0 0 0];

internalField   nonuniform List<scalar> 
5478
(
-0.378433
-0.374529
-0.366915
-0.36009
-0.357909
-0.361832
-0.370307
-0.37929
-0.384263
-0.381872
-0.370806
-0.350838
-0.325889
-0.294716
-0.26107
-0.384192
-0.380519
-0.37362
-0.366448
-0.361583
-0.35966
-0.359389
-0.358077
-0.353029
-0.342822
-0.327252
-0.307758
-0.285247
-0.259941
-0.234705
-0.396437
-0.391326
-0.38397
-0.375554
-0.366747
-0.35783
-0.348597
-0.338167
-0.325738
-0.31095
-0.294013
-0.274926
-0.254144
-0.232124
-0.209611
-0.413743
-0.405986
-0.396724
-0.385256
-0.3707
-0.354313
-0.337389
-0.320363
-0.303085
-0.285333
-0.266831
-0.247734
-0.228239
-0.208508
-0.1896
-0.436177
-0.424156
-0.412018
-0.394851
-0.372692
-0.348944
-0.325801
-0.303861
-0.283042
-0.263026
-0.243649
-0.224705
-0.205998
-0.187799
-0.169903
-0.463988
-0.445839
-0.428333
-0.402406
-0.371558
-0.340991
-0.312772
-0.287179
-0.263838
-0.24232
-0.222175
-0.203126
-0.185096
-0.167946
-0.151391
-0.492843
-0.469411
-0.441731
-0.404772
-0.365465
-0.329058
-0.296817
-0.268433
-0.243244
-0.220631
-0.200138
-0.181396
-0.16408
-0.147993
-0.132552
-0.516265
-0.488987
-0.447964
-0.399234
-0.352445
-0.311292
-0.276011
-0.245717
-0.219448
-0.196448
-0.176073
-0.157868
-0.141562
-0.126728
-0.112976
-0.265621
-0.284037
-0.310119
-0.346855
-0.389434
-0.433885
-0.475855
-0.511251
-0.536376
-0.548192
-0.544378
-0.523349
-0.485258
-0.430852
-0.362391
-0.294619
-0.310218
-0.335072
-0.371104
-0.413677
-0.458384
-0.500856
-0.537071
-0.563434
-0.57705
-0.576194
-0.560031
-0.528291
-0.480349
-0.411448
-0.333149
-0.343773
-0.365681
-0.399393
-0.439978
-0.483093
-0.524468
-0.560242
-0.587203
-0.602682
-0.605849
-0.594642
-0.563422
-0.528139
-0.463899
-0.365154
-0.369349
-0.38652
-0.415483
-0.451277
-0.489869
-0.527242
-0.559841
-0.584898
-0.59965
-0.603003
-0.594392
-0.568456
-0.534318
-0.479486
-0.383046
-0.381083
-0.391633
-0.412637
-0.440564
-0.472056
-0.503662
-0.53213
-0.554513
-0.569008
-0.573644
-0.5673
-0.545212
-0.511917
-0.460801
-0.387607
-0.38129
-0.383839
-0.394099
-0.411176
-0.433395
-0.458146
-0.482284
-0.504281
-0.520208
-0.526179
-0.520744
-0.500246
-0.467458
-0.418506
-0.384492
-0.377204
-0.373277
-0.373413
-0.379778
-0.393363
-0.413082
-0.436174
-0.45701
-0.4708
-0.474109
-0.465153
-0.442427
-0.40971
-0.364688
-0.379673
-0.373906
-0.366805
-0.361086
-0.361333
-0.369877
-0.38534
-0.403161
-0.418028
-0.424799
-0.421314
-0.405689
-0.379986
-0.347601
-0.310531
-0.274677
-0.163883
-0.0569204
0.0295473
0.0865893
0.114331
0.120241
0.113139
0.100472
0.08667
0.0738667
0.0627336
0.0532817
0.0453507
0.0387491
0.0332969
0.0287894
0.0250451
0.0219825
0.0194161
0.0172733
0.0154767
0.0139594
0.0126685
0.0115619
0.0106021
0.00976023
0.00900315
0.00831677
0.0076574
0.00703832
0.00637705
0.0057336
0.00497629
0.00415984
0.00323346
0.00204139
0.000767021
-0.32727
-0.215198
-0.0958615
-0.00121691
0.0638263
0.0981386
0.108719
0.105448
0.0953595
0.0833269
0.0718103
0.0615988
0.0527919
0.0452809
0.0389265
0.0336067
0.029177
0.0255521
0.0224251
0.0198514
0.0176953
0.015881
0.0143413
0.0130254
0.0118926
0.0109065
0.010038
0.00925555
0.0085425
0.0078603
0.00721295
0.00653275
0.00585961
0.00508312
0.00424481
0.00328375
0.00208551
0.000761705
-0.38568
-0.278498
-0.159853
-0.0549622
0.020814
0.0647784
0.0839622
0.0878156
0.0838285
0.0759112
0.0670994
0.0587472
0.0512256
0.0445667
0.0387451
0.0337408
0.0294852
0.0258925
0.0229196
0.0202759
0.0181124
0.0162832
0.0147216
0.0133805
0.0122215
0.0112094
0.0103146
0.00950728
0.00876796
0.00806355
0.00738869
0.00669051
0.0059882
0.00519328
0.00433336
0.00333827
0.00213351
0.000759469
-0.405545
-0.313731
-0.213115
-0.11097
-0.0294122
0.0227964
0.0510329
0.0637156
0.0672147
0.0652596
0.0603512
0.0544738
0.0485989
0.0430517
0.0379562
0.0334143
0.0294591
0.026041
0.0231179
0.0205881
0.0184685
0.0166491
0.0150788
0.0137213
0.0125421
0.0115077
0.0105891
0.00975834
0.00899396
0.00826814
0.00756674
0.00685119
0.00612054
0.0053079
0.00442597
0.00339876
0.00218536
0.00076159
-0.388609
-0.312896
-0.234081
-0.152721
-0.0760618
-0.0192805
0.0167421
0.0376896
0.0482369
0.0523091
0.0521352
0.0494171
0.0455793
0.0413588
0.0371213
0.0331175
0.0294829
0.0262438
0.0233693
0.0210254
0.018792
0.0169923
0.0154217
0.0140521
0.0128556
0.0118012
0.0108607
0.0100079
0.0092198
0.00847322
0.00774627
0.00701363
0.0062558
0.00542621
0.00452149
0.00346536
0.00223964
0.000768872
-0.352357
-0.296354
-0.237176
-0.171256
-0.109956
-0.0562261
-0.0157436
0.0117676
0.0289887
0.0385492
0.0423314
0.0427584
0.0412087
0.0385421
0.0353573
0.0320975
0.028991
0.0261122
0.023493
0.0211636
0.0190447
0.0173063
0.0157458
0.014371
0.0131613
0.0120894
0.0111285
0.010255
0.00944441
0.00867775
0.00792659
0.00717684
0.00639323
0.00554733
0.00461886
0.00353804
0.00229485
0.000782885
-0.308871
-0.271507
-0.228927
-0.1767
-0.127658
-0.081656
-0.041122
-0.0096669
0.012035
0.025826
0.0337054
0.0370372
0.0375363
0.036437
0.0341928
0.0314682
0.0286936
0.0260406
0.0235669
0.0213103
0.0194601
0.0175957
0.0160424
0.0146654
0.0134479
0.0123641
0.0113878
0.0104966
0.00966632
0.0088805
0.00810758
0.00734027
0.00653283
0.0056711
0.00471725
0.00361732
0.00235019
0.000805628
-0.279795
-0.260036
-0.229286
-0.188633
-0.147588
-0.108179
-0.0723499
-0.0395051
-0.0130655
0.00623879
0.0192315
0.0269025
0.0306222
0.0317155
0.0312822
0.0298294
0.0278596
0.025712
0.0235532
0.0214988
0.0196041
0.0179152
0.016329
0.0149691
0.0137475
0.0126493
0.0116538
0.0107424
0.0098903
0.00908456
0.00828904
0.00750449
0.00667276
0.00579733
0.00481498
0.00370305
0.00240445
0.000840089
-0.245206
-0.242311
-0.213964
-0.176804
-0.139616
-0.104354
-0.0720356
-0.0431078
-0.018942
-0.000412984
0.0126664
0.0210507
0.0259034
0.0282407
0.0287809
0.0280939
0.0267219
0.0250179
0.0231788
0.0213495
0.0196126
0.0179714
0.0165341
0.0151784
0.0139707
0.012876
0.0118779
0.0109576
0.0100956
0.00927266
0.00846623
0.00765864
0.00681539
0.00591887
0.00491262
0.00379064
0.002454
0.000881519
-0.203368
-0.206419
-0.18463
-0.152908
-0.121396
-0.0927008
-0.0669729
-0.0434962
-0.022809
-0.00591324
0.00675649
0.0154701
0.0210239
0.0241571
0.0254533
0.0254945
0.0247867
0.0236313
0.022212
0.0206899
0.019197
0.0177493
0.0163918
0.0151739
0.0140345
0.0129829
0.0120101
0.0111018
0.0102434
0.00941569
0.0086041
0.0077811
0.00693061
0.00601291
0.00499379
0.00385514
0.00249079
0.000907994
-0.169421
-0.175427
-0.161017
-0.136646
-0.11126
-0.0875016
-0.0656043
-0.0452905
-0.026943
-0.0112116
0.00123912
0.0102227
0.0163509
0.020242
0.0223083
0.023061
0.0229839
0.0223491
0.0213367
0.020129
0.018862
0.0176
0.0163812
0.0152033
0.0141155
0.0130985
0.0121456
0.0112461
0.0103895
0.00955626
0.00873802
0.00789883
0.00703837
0.00609938
0.00506627
0.00390871
0.00251828
0.000922629
-0.141008
-0.146793
-0.137852
-0.11936
-0.0984364
-0.078289
-0.0597619
-0.0428415
-0.0275318
-0.0139171
-0.00253162
0.00610454
0.012383
0.0167528
0.0193697
0.0206572
0.0211098
0.0209595
0.0203428
0.019447
0.0184233
0.017338
0.0162437
0.0151934
0.0141765
0.0132047
0.0122794
0.0113932
0.0105417
0.00970446
0.00887943
0.00802396
0.00715214
0.00619279
0.00514213
0.00396653
0.00254737
0.000936417
-0.114022
-0.120512
-0.115726
-0.102207
-0.0856634
-0.0694312
-0.0544783
-0.0407271
-0.0280678
-0.0163567
-0.00598436
0.00230358
0.00867542
0.0134387
0.0165192
0.0182576
0.0191895
0.0195081
0.0192854
0.0187048
0.0179362
0.017061
0.0161263
0.0151671
0.0142231
0.013302
0.012409
0.0115406
0.010697
0.0098571
0.00902583
0.00815589
0.00727263
0.0062942
0.00522403
0.00403104
0.00258223
0.000953428
-0.090595
-0.0977661
-0.0955854
-0.0859647
-0.0733782
-0.0606726
-0.0486824
-0.0373896
-0.0268556
-0.0169169
-0.00779013
-0.000226316
0.00586193
0.0107185
0.0140534
0.0160813
0.0173713
0.0180906
0.0182279
0.0179431
0.0174178
0.0167368
0.0159504
0.0151111
0.0142505
0.0133871
0.012532
0.0116854
0.0108521
0.0100117
0.00917618
0.00829408
0.00739874
0.00640204
0.00531076
0.00410051
0.00262208
0.000970608
-0.0716547
-0.0780423
-0.077338
-0.0707943
-0.0615043
-0.0517024
-0.0421982
-0.0330967
-0.0245673
-0.0164036
-0.00864301
-0.00197544
0.00364727
0.00844307
0.0119296
0.0141493
0.0156929
0.0167342
0.0171843
0.017164
0.0168661
0.0163816
0.0157562
0.0150371
0.014262
0.0134605
0.0126476
0.0118264
0.0110062
0.0101683
0.00933046
0.00843735
0.00752883
0.0065145
0.00540078
0.00417345
0.00266463
0.000985803
-0.0547093
-0.0604017
-0.0609121
-0.056757
-0.0500562
-0.0426551
-0.0353388
-0.0282129
-0.0214777
-0.0149107
-0.00844676
-0.00273867
0.00226424
0.00681393
0.0102969
0.0125692
0.0142315
0.0154937
0.0162027
0.0164197
0.0163295
0.016024
0.0155443
0.0149416
0.0142569
0.013522
0.0127553
0.011963
0.0111591
0.0103265
0.00948705
0.00858376
0.00766179
0.00663065
0.00549394
0.00424912
0.00270923
0.00100033
-0.0397051
-0.04511
-0.0464548
-0.0439518
-0.0392162
-0.0337911
-0.0283335
-0.0228939
-0.017692
-0.0125255
-0.00727952
-0.00256877
0.00169244
0.00582778
0.00916373
0.0113822
0.0130624
0.0144494
0.0153372
0.0157325
0.015816
0.0156751
0.0153363
0.0148534
0.0142502
0.0135794
0.0128583
0.0120961
0.0113105
0.0104846
0.00964442
0.00873235
0.0077973
0.00675017
0.00559023
0.00432716
0.00275652
0.00101553
-0.0272081
-0.032032
-0.0336841
-0.0323104
-0.0290944
-0.0252565
-0.021315
-0.0172736
-0.0133753
-0.00943969
-0.0053107
-0.00157184
0.00189724
0.00551238
0.00858908
0.0106602
0.0122608
0.0136742
0.0146637
0.0151716
0.0153622
0.015336
0.0151218
0.0146975
0.0142134
0.0136184
0.0129501
0.0122227
0.011458
0.010641
0.0098016
0.00888227
0.00793467
0.00687216
0.00568902
0.00440731
0.00280655
0.00103148
-0.0162397
-0.0204192
-0.0222492
-0.0217463
-0.0197094
-0.0171117
-0.0143923
-0.011518
-0.0087252
-0.00584395
-0.00269983
0.000136691
0.00281685
0.00584871
0.00856615
0.0103975
0.0118299
0.0131811
0.0142058
0.014798
0.0150956
0.0151709
0.0150231
0.0147805
0.0142918
0.013718
0.013072
0.0123628
0.0116114
0.0108002
0.00996038
0.00903368
0.00807349
0.00699591
0.00578979
0.00448947
0.00285879
0.00104822
-0.00663904
-0.0103557
-0.0122798
-0.0123504
-0.0111418
-0.00946523
-0.00769483
-0.00576264
-0.00388563
-0.00189289
0.000401153
0.00243015
0.0043656
0.00679535
0.00908569
0.0105969
0.0117718
0.012954
0.0138976
0.0144545
0.0147388
0.0148464
0.0147955
0.0144501
0.0141088
0.0136387
0.013078
0.0124346
0.0117259
0.0109378
0.0101068
0.00917781
0.00820832
0.00711716
0.00588976
0.00457161
0.00291143
0.00106439
0.00186742
-0.00142861
-0.00335767
-0.00383288
-0.00325214
-0.00227787
-0.00122378
-9.56307e-06
0.001145
0.00241202
0.0039913
0.00531608
0.00657072
0.00841973
0.0102751
0.0114529
0.0123583
0.0133549
0.0142028
0.0147286
0.0150225
0.0151371
0.0150539
0.0149587
0.014555
0.0140494
0.013448
0.0127551
0.012002
0.011174
0.0103139
0.00935697
0.00836573
0.00725282
0.00599944
0.00466239
0.00296918
0.00108677
0.00903946
0.0061402
0.00426589
0.00351854
0.00362932
0.00405062
0.0045301
0.00517584
0.00575978
0.00643101
0.00739792
0.00810603
0.00874736
0.0100417
0.0114444
0.012242
0.0128078
0.0135242
0.0141635
0.0145334
0.0147086
0.0147746
0.0147285
0.0143598
0.0140404
0.0136085
0.0130902
0.0124926
0.0118269
0.0110756
0.0102695
0.00935985
0.00838761
0.00730132
0.00603947
0.00471309
0.00299396
0.00107536
0.0160797
0.0136268
0.0119187
0.0110452
0.0108256
0.0108128
0.0108105
0.0109744
0.011111
0.0113409
0.0118294
0.0120189
0.0121267
0.0129256
0.0139097
0.014348
0.0145916
0.0150415
0.0154844
0.0157189
0.0158035
0.0157751
0.0156109
0.0155148
0.0151379
0.0146532
0.014069
0.0133813
0.0126221
0.0117701
0.0108818
0.00987452
0.00884355
0.00765993
0.0063541
0.00493817
0.00319664
0.00120161
0.020935
0.0185502
0.0167631
0.0157109
0.0152869
0.0150836
0.0148947
0.0148058
0.0145888
0.0144283
0.0145537
0.0143828
0.0140867
0.0144753
0.0151
0.0152158
0.0151445
0.0153026
0.0154961
0.0155163
0.0154163
0.0152796
0.0150942
0.0145915
0.0141571
0.013659
0.0131012
0.0124805
0.0118021
0.0110454
0.0102332
0.00932166
0.00833228
0.00724821
0.00594212
0.00461674
0.00283766
0.000961177
0.028051
0.0263193
0.0248181
0.0236699
0.0228697
0.0221394
0.0213875
0.0208655
0.020413
0.0200459
0.0198281
0.0192176
0.0184755
0.0184448
0.0186933
0.0184673
0.0180676
0.0179234
0.0178644
0.0176824
0.0174145
0.0170906
0.0166955
0.0164794
0.0160561
0.01553
0.0149095
0.0141913
0.0134044
0.0125189
0.011602
0.0105481
0.00949434
0.00825655
0.00692554
0.00547117
0.00360243
0.00142231
0.0295749
0.0275177
0.0259564
0.0249624
0.0244148
0.0239447
0.0233895
0.0228723
0.0222059
0.0215654
0.0211737
0.0204659
0.0195761
0.019323
0.0193494
0.0189224
0.018312
0.0179472
0.017676
0.0172894
0.0168195
0.0163268
0.0157414
0.0151631
0.0145877
0.0139608
0.0132911
0.0125787
0.0118216
0.011008
0.0101413
0.00919341
0.00815884
0.00704613
0.00570321
0.0043726
0.00265711
0.000853994
0.0373662
0.0360215
0.0346364
0.0333537
0.0322671
0.0311901
0.0300728
0.0291568
0.0282862
0.0275146
0.0269164
0.0258695
0.0245524
0.0238904
0.0235967
0.0228961
0.0219924
0.0213334
0.0208154
0.0202417
0.0196388
0.0190546
0.0185156
0.0179357
0.0172766
0.0165803
0.0158284
0.0150243
0.0141622
0.0132343
0.0122699
0.0111837
0.0101155
0.00881858
0.00748087
0.00594164
0.00388656
0.00157501
0.0367505
0.0351111
0.0337498
0.0327105
0.031959
0.0312205
0.0303609
0.0295271
0.0286054
0.0277194
0.0269895
0.0259113
0.0246549
0.0239761
0.0235572
0.02273
0.0217296
0.0209574
0.0202978
0.0195678
0.0187991
0.0180515
0.017261
0.0163737
0.0155276
0.0146921
0.0138409
0.0129952
0.0120981
0.0112077
0.0102221
0.00922881
0.00810829
0.00693764
0.00562769
0.00423488
0.00265369
0.000912182
0.0436788
0.0424507
0.0411097
0.0397668
0.0385335
0.0373018
0.0360531
0.0349798
0.0339373
0.0329283
0.0320211
0.0307375
0.029187
0.028141
0.0274467
0.0264514
0.0252517
0.0242319
0.0233565
0.0224657
0.0215642
0.0207111
0.0199565
0.0190895
0.0181951
0.0173313
0.0163988
0.0155319
0.0145043
0.0136282
0.0124847
0.0115278
0.0103395
0.00900814
0.00777892
0.00586012
0.00406192
0.00166635
0.042408
0.0411822
0.0399878
0.0388527
0.0378481
0.0368302
0.0357102
0.034624
0.0335154
0.0324683
0.0315341
0.0302807
0.0288173
0.0277842
0.0270128
0.0259592
0.0247373
0.0236706
0.022712
0.0217228
0.0207041
0.0196724
0.0186313
0.0176812
0.0167076
0.0157702
0.0147589
0.0138601
0.0127608
0.0119249
0.0106596
0.0098408
0.00839226
0.00739631
0.00608033
0.00441289
0.00324199
0.00115681
0.0457005
0.0445215
0.0432564
0.0419715
0.0407564
0.0395431
0.0383066
0.0371532
0.0360213
0.0349244
0.0338584
0.0325176
0.0310085
0.0298339
0.0288997
0.027778
0.0265056
0.0253325
0.0242559
0.0231805
0.0220952
0.0210744
0.020045
0.0190764
0.0180262
0.0171362
0.0159721
0.0152543
0.0138201
0.0134208
0.0115973
0.0114354
0.00953019
0.00873383
0.00748228
0.00522951
0.00434332
0.00164385
-0.100186
-0.116999
-0.134265
-0.1505
-0.169549
-0.18572
-0.205962
-0.224064
-0.087252
-0.100699
-0.114703
-0.12769
-0.142503
-0.155113
-0.167214
-0.181503
-0.0739491
-0.0844337
-0.094975
-0.105276
-0.115638
-0.125528
-0.134263
-0.148681
-0.0617968
-0.0699989
-0.0777942
-0.0860972
-0.0939219
-0.102638
-0.112238
-0.125727
-0.0501096
-0.05666
-0.0627161
-0.069819
-0.0768679
-0.0853542
-0.0934264
-0.101992
-0.0395266
-0.0447274
-0.0496284
-0.0555662
-0.0613458
-0.0674026
-0.0725079
-0.0792835
-0.0296716
-0.0337038
-0.0375212
-0.0419777
-0.0462164
-0.0505978
-0.0553248
-0.0621102
-0.0205561
-0.0235828
-0.0264833
-0.0299073
-0.0334823
-0.0375423
-0.0420802
-0.0473992
-0.0121402
-0.0144575
-0.0167824
-0.0196581
-0.0227903
-0.0261137
-0.0294433
-0.0334765
-0.00442375
-0.00625518
-0.00812543
-0.0104154
-0.0128357
-0.0153553
-0.0181347
-0.0218089
0.00274201
0.00130216
-0.000157799
-0.00196752
-0.00395384
-0.00616703
-0.00870801
-0.0118388
0.00932059
0.00814126
0.00692578
0.00538281
0.00366757
0.00176779
-0.000355678
-0.00293823
0.0155688
0.0145281
0.0134741
0.0121658
0.0107425
0.00915339
0.00731021
0.00504822
0.0211574
0.0202272
0.0192751
0.018109
0.0168579
0.0154347
0.0137591
0.0117625
0.0266024
0.0257167
0.0248276
0.0237804
0.0226899
0.0214477
0.0199893
0.0183161
0.0313873
0.0304815
0.0295943
0.0285628
0.0274866
0.0262526
0.0247861
0.0231102
0.0363049
0.0354185
0.0344755
0.0334238
0.0324523
0.0314802
0.0304541
0.0294212
0.0402057
0.0392985
0.0384168
0.0374038
0.0363322
0.0350497
0.0334472
0.0316431
0.044886
0.0438911
0.0428233
0.041715
0.0407794
0.0399324
0.0390984
0.038339
0.0473544
0.0462983
0.0452659
0.0441454
0.0429898
0.041654
0.040076
0.0384414
0.0516539
0.0505788
0.049468
0.0483307
0.0473225
0.0463962
0.0454892
0.0446457
0.0526181
0.0514
0.0502039
0.0489635
0.0477321
0.0464256
0.0450172
0.0436698
0.0548883
0.053731
0.0525697
0.0513798
0.0502217
0.0490676
0.0479058
0.0467993
0.0783467
0.0824706
0.0859181
0.0885001
0.0896617
0.0892226
0.087021
0.0825258
0.0747787
0.0624036
0.0434919
0.0153696
-0.0263037
-0.0847825
-0.138679
0.055879
0.0576194
0.0568969
0.0548471
0.0516836
0.0469947
0.0401722
0.0304037
0.0165863
-0.00276616
-0.0296918
-0.066878
-0.118728
-0.18901
-0.248881
0.0321654
0.0312678
0.0267647
0.0208604
0.0139778
0.00543361
-0.00566029
-0.0202432
-0.0394789
-0.0649399
-0.0988292
-0.143923
-0.203645
-0.284189
-0.343058
0.00675426
0.00300239
-0.00436861
-0.0130113
-0.0227947
-0.0346195
-0.0494319
-0.0681597
-0.0919882
-0.122506
-0.161947
-0.213575
-0.279373
-0.362967
-0.419076
-0.0194777
-0.02595
-0.0353629
-0.0459278
-0.0579837
-0.0725328
-0.0904024
-0.112412
-0.139778
-0.174139
-0.217422
-0.273296
-0.34261
-0.423885
-0.47533
-0.0447598
-0.0539078
-0.0649629
-0.0770935
-0.0910574
-0.107803
-0.128023
-0.152377
-0.182134
-0.218866
-0.264643
-0.321971
-0.391054
-0.466707
-0.511423
-0.0687721
-0.0800724
-0.0923875
-0.105937
-0.121623
-0.140077
-0.161886
-0.187794
-0.218855
-0.256512
-0.302599
-0.358728
-0.42428
-0.49111
-0.528598
-0.0917834
-0.104142
-0.117641
-0.132675
-0.149776
-0.169437
-0.192193
-0.21873
-0.249958
-0.287084
-0.331549
-0.384165
-0.442941
-0.497924
-0.529377
0.20208
0.217471
0.234569
0.253599
0.274627
0.297634
0.322579
0.349425
0.378079
0.408278
0.439442
0.470424
0.499265
0.52208
0.540917
0.201073
0.215594
0.231865
0.250242
0.270693
0.293058
0.317236
0.343184
0.370814
0.399845
0.429651
0.459025
0.485922
0.506475
0.52308
0.195661
0.208411
0.223393
0.24073
0.260079
0.281087
0.303582
0.327502
0.352731
0.378922
0.405358
0.430721
0.452794
0.467844
0.479169
0.185954
0.196444
0.20967
0.225454
0.243039
0.261871
0.281745
0.30259
0.32422
0.34616
0.367516
0.386777
0.401429
0.40787
0.411419
0.172172
0.18001
0.191269
0.205212
0.220524
0.236452
0.252795
0.269505
0.286353
0.302723
0.317506
0.328942
0.334145
0.329379
0.323212
0.154296
0.159249
0.168394
0.180217
0.192851
0.205416
0.217709
0.229652
0.240903
0.250684
0.257681
0.259889
0.254065
0.236259
0.218021
0.132722
0.135295
0.142657
0.151932
0.161103
0.169551
0.177221
0.18394
0.189132
0.191776
0.190325
0.182516
0.164776
0.133074
0.101755
0.106893
0.108493
0.114838
0.121427
0.126754
0.130673
0.133317
0.134397
0.133117
0.128241
0.118004
0.0998771
0.0699005
0.0242494
-0.0196008
0.0374435
0.0378572
0.038539
0.0396864
0.041045
0.0432644
0.0453392
0.0491138
0.0521834
0.0568715
0.0612002
0.0667254
0.0726922
0.0795828
0.0871633
0.0958856
0.105443
0.116156
0.127875
0.140827
0.1548
0.170012
0.186222
0.0398066
0.0400738
0.0407079
0.0418376
0.0431148
0.0452492
0.0471095
0.0509051
0.0539342
0.0585721
0.0627996
0.0683343
0.0741747
0.0809921
0.0885002
0.0971635
0.10663
0.117225
0.128728
0.141445
0.155078
0.170009
0.185843
0.0421459
0.0422676
0.0428536
0.0439557
0.0451546
0.0472086
0.0487842
0.0526782
0.0556547
0.0602379
0.064334
0.0698797
0.0755676
0.0822865
0.0896424
0.0980631
0.107235
0.117607
0.128797
0.141198
0.154257
0.168393
0.182665
0.0444582
0.044442
0.0449779
0.0460407
0.047162
0.0491505
0.0511993
0.0544311
0.0573238
0.0618335
0.0657822
0.0713069
0.0768023
0.0834051
0.0907488
0.0991164
0.107915
0.117713
0.127803
0.139586
0.151344
0.163691
0.175643
0.0467421
0.0466018
0.047083
0.048088
0.0491197
0.0510182
0.0530307
0.0561185
0.0589489
0.0633498
0.0671673
0.0726433
0.0779017
0.0842277
0.0912332
0.0991345
0.107434
0.117055
0.126744
0.136647
0.146143
0.156522
0.165441
0.0489974
0.0487539
0.0491665
0.0500839
0.0510173
0.0528038
0.0546339
0.0577087
0.0605049
0.0647776
0.0685068
0.0738945
0.0790688
0.0854021
0.0924081
0.100078
0.107619
0.116102
0.123861
0.132076
0.138959
0.146691
0.151611
0.0512243
0.050898
0.0512238
0.0520277
0.0528404
0.0545137
0.0563905
0.059243
0.0619937
0.0660554
0.0696879
0.0748834
0.0796504
0.0855056
0.0919845
0.0989088
0.105356
0.112922
0.119055
0.125559
0.129919
0.134406
0.13456
0.0534233
0.0530432
0.0532575
0.0539048
0.0545653
0.0560914
0.0576555
0.0606692
0.0634676
0.067465
0.0711355
0.0762707
0.0811583
0.0871671
0.0933324
0.0998981
0.10536
0.111264
0.114491
0.118461
0.118361
0.118964
0.112873
0.0555283
0.0551307
0.0552314
0.0557812
0.056411
0.0578668
0.0599268
0.06204
0.0646773
0.0682159
0.0718249
0.0764349
0.0808673
0.086174
0.0913658
0.0961853
0.10043
0.10411
0.106072
0.106785
0.104532
0.0989442
0.0880683
0.0576724
0.057295
0.0573057
0.0577225
0.0581831
0.0594153
0.0601856
0.0631205
0.0656087
0.0687027
0.0721608
0.0760272
0.0799955
0.0842764
0.0884984
0.0920003
0.0952117
0.0970385
0.0974809
0.0957097
0.0920568
0.0850588
0.0761272
0.060032
0.0596756
0.0595613
0.0597692
0.0600258
0.0610934
0.0626925
0.0643402
0.0666081
0.0691662
0.0724313
0.0755243
0.0789389
0.08234
0.0856937
0.0877726
0.0897139
0.0900051
0.0888384
0.0856725
0.0809417
0.0738941
0.0654266
0.0626274
0.0622641
0.061987
0.0619785
0.0620436
0.0629098
0.064038
0.0655736
0.0676191
0.0695998
0.0725984
0.0749422
0.0776566
0.0802141
0.0821349
0.0832388
0.0840077
0.0831297
0.0805867
0.0766002
0.071208
0.0642094
0.0561679
0.0654753
0.0650736
0.0646294
0.0644056
0.0642329
0.0648323
0.0656148
0.0668617
0.0686331
0.0700238
0.0726468
0.074291
0.0761495
0.0779727
0.0788471
0.0787982
0.078481
0.0766341
0.0730655
0.068565
0.0629601
0.0560787
0.0483935
0.0686031
0.0681452
0.0675263
0.067051
0.0665905
0.0668912
0.0673147
0.0682139
0.0696476
0.0704521
0.0725874
0.0735797
0.0745179
0.0756527
0.0755326
0.0744257
0.0732593
0.0707033
0.0664567
0.0616618
0.0561335
0.0494799
0.0420892
0.0720495
0.0715159
0.0706933
0.0699287
0.0691417
0.0691044
0.0691448
0.0696488
0.0706769
0.0709008
0.0724628
0.0728362
0.0728643
0.0733085
0.0723663
0.0703388
0.0685171
0.0655098
0.0608538
0.0559171
0.050622
0.0443338
0.0373001
0.0758571
0.07522
0.0741594
0.0730701
0.0719109
0.0714917
0.0711185
0.0711853
0.0717466
0.0713949
0.0723352
0.0721054
0.0712902
0.0710676
0.0694651
0.066701
0.0643726
0.0611133
0.0562647
0.0513155
0.0463351
0.0405078
0.0338934
0.0800754
0.0793038
0.0779694
0.0765104
0.0749252
0.074076
0.0732594
0.0728479
0.0728937
0.0719687
0.0722689
0.0714505
0.0698902
0.0690649
0.0669504
0.0636196
0.0609477
0.0575975
0.0527506
0.0479089
0.0432838
0.0379668
0.0318514
0.0847695
0.0838286
0.0821695
0.080285
0.0782218
0.0768928
0.0755949
0.0746657
0.0741672
0.0726782
0.072351
0.0709791
0.0687782
0.0674202
0.0648995
0.0611843
0.0582737
0.0549178
0.0502076
0.0455762
0.0413429
0.0365602
0.0309941
0.0900181
0.0888713
0.0868325
0.084447
0.0818279
0.0799573
0.0782059
0.0766732
0.0756145
0.0735748
0.0726473
0.0707711
0.0680502
0.0662731
0.0634887
0.0595721
0.0565466
0.0533105
0.0488112
0.0444467
0.0406162
0.0363706
0.0313828
0.0959284
0.0945198
0.092022
0.0890603
0.0858285
0.0833241
0.0806922
0.0788907
0.0773045
0.0747434
0.0732531
0.0709243
0.0677627
0.0656283
0.062629
0.0585863
0.055529
0.0524102
0.0481489
0.0441195
0.0406919
0.0369277
0.0324529
0.102645
0.100923
0.0978508
0.0941733
0.0902344
0.0870957
0.0841209
0.0815068
0.0793445
0.0762931
0.0742991
0.0715908
0.0681099
0.0657291
0.0626338
0.0585987
0.0555913
0.0526621
0.0487054
0.0449866
0.0419328
0.0386476
0.0347296
0.110336
0.108217
0.104478
0.0999727
0.0951674
0.0912453
0.087423
0.0844002
0.0816892
0.0781624
0.0756818
0.0726297
0.068876
0.0662696
0.0631038
0.0590971
0.0561591
0.053409
0.0497378
0.0463289
0.0436125
0.0407253
0.0372379
0.119321
0.11663
0.111914
0.106409
0.100811
0.0961228
0.0918673
0.0879993
0.084736
0.0807942
0.0778945
0.0745681
0.0706278
0.0678781
0.0646947
0.0607758
0.0579254
0.0553367
0.0519292
0.0487851
0.0463381
0.043781
0.0406836
0.12989
0.126565
0.120742
0.113692
0.106632
0.101015
0.0958291
0.0915978
0.0877799
0.08341
0.0801054
0.0765194
0.0724308
0.0695272
0.0663309
0.0625115
0.0597353
0.057287
0.0541174
0.0512129
0.0489967
0.0467141
0.0439471
0.142657
0.138128
0.130728
0.12256
0.114555
0.1077
0.101919
0.0967501
0.0923942
0.087636
0.0839062
0.0800659
0.0758181
0.0727572
0.0695325
0.065767
0.0630147
0.060642
0.0576429
0.0549029
0.0528329
0.0507524
0.0482547
0.158685
0.152461
0.141966
0.130591
0.120443
0.112822
0.106219
0.100704
0.0957711
0.0906548
0.0866323
0.082603
0.0782896
0.0751173
0.0718752
0.0682252
0.0655266
0.0632135
0.060383
0.0578096
0.0558631
0.0539416
0.0516835
0.178928
0.170434
0.157799
0.144668
0.13267
0.122501
0.114973
0.10832
0.102691
0.0970233
0.0923818
0.0879685
0.0834036
0.0799189
0.0765385
0.0728404
0.0700103
0.0676413
0.0648785
0.0623405
0.0604038
0.0585651
0.0564543
0.204932
0.188532
0.168889
0.151091
0.137
0.126688
0.11858
0.111559
0.105448
0.0996356
0.0948925
0.0903959
0.0858206
0.0822706
0.0788668
0.0752623
0.0724696
0.0700981
0.0674262
0.0650001
0.0631231
0.0613628
0.0594277
0.250621
0.223471
0.1962
0.173619
0.155813
0.143059
0.131452
0.122331
0.114892
0.108098
0.102402
0.097213
0.0922073
0.0881155
0.0843431
0.0805789
0.0775067
0.0748848
0.0721661
0.0696886
0.0676852
0.0658588
0.0639658
0.28507
0.238216
0.202999
0.176922
0.157615
0.142942
0.132272
0.123462
0.116193
0.10969
0.104022
0.0988358
0.0938498
0.0896447
0.0858679
0.0821861
0.0790678
0.0764081
0.0737755
0.0713558
0.0693428
0.0675601
0.0658158
0.443541
0.291492
0.237933
0.204155
0.176962
0.157246
0.143154
0.132835
0.124551
0.117125
0.110492
0.104445
0.0988523
0.0940631
0.0898121
0.0858599
0.082455
0.0795034
0.076724
0.0742074
0.0720535
0.0701439
0.0683465
0.0731567
0.0516178
0.027848
0.00472796
-0.0184506
-0.0407805
-0.0622788
-0.0819034
0.0651261
0.0443492
0.0202441
-0.00130273
-0.0207941
-0.0390393
-0.0567164
-0.0723876
0.0563149
0.038836
0.0166074
-0.00314155
-0.0191783
-0.0338175
-0.0484634
-0.0618683
0.0481245
0.0333961
0.0134547
-0.00478873
-0.0183556
-0.0301098
-0.0416501
-0.0523951
0.0409089
0.0284957
0.0114066
-0.00448718
-0.0156697
-0.0249509
-0.0338398
-0.0425194
0.0348663
0.024298
0.0101687
-0.0029762
-0.0122291
-0.0197435
-0.0267386
-0.0336113
0.0302395
0.0209308
0.00978233
-0.000490103
-0.00801126
-0.0141069
-0.0196418
-0.0250164
0.027079
0.0189156
0.0103387
0.002612
-0.00335704
-0.00830896
-0.0127599
-0.0169631
0.0254265
0.0183572
0.0118417
0.00616427
0.00153978
-0.00244034
-0.00603532
-0.00934293
0.0250412
0.0189686
0.0140727
0.00998889
0.0064951
0.00334193
0.000434371
-0.0022074
0.0259917
0.0208152
0.017107
0.0141629
0.0115436
0.00906571
0.00670479
0.00454421
0.0276301
0.0232279
0.0204146
0.0183126
0.016381
0.0144657
0.0125688
0.0107999
0.0303681
0.0265737
0.0243799
0.0228486
0.0214187
0.0199419
0.0183905
0.0168706
0.0333855
0.0301331
0.0283713
0.0271953
0.026089
0.0249207
0.0236367
0.0223198
0.0372575
0.0343903
0.0328432
0.0318287
0.0309142
0.0299697
0.0288787
0.0276845
0.0408963
0.0383894
0.0370402
0.0361488
0.035367
0.034584
0.0336317
0.0324938
0.0454983
0.043189
0.0418337
0.040858
0.0400194
0.0392486
0.0383579
0.0373156
0.0492412
0.0472082
0.0459381
0.0449537
0.0440976
0.0433186
0.0423993
0.0412842
0.0541645
0.0521841
0.0507942
0.0496116
0.0485855
0.0477639
0.0469292
0.0459317
0.0574137
0.0556641
0.0543055
0.0530314
0.0518456
0.0508135
0.0497513
0.0485483
0.0620241
0.0602532
0.0587468
0.057302
0.0559896
0.0549107
0.0538932
0.0527842
0.0640746
0.0624469
0.0609601
0.0594409
0.0579382
0.0565802
0.0552828
0.0539395
0.066592
0.064906
0.0632993
0.0616801
0.0601178
0.0587096
0.0574
0.0561172
-0.375762
-0.379574
-0.390291
-0.406508
-0.427851
-0.454841
-0.485746
-0.514387
-0.3717
-0.376186
-0.385916
-0.399957
-0.417858
-0.439629
-0.464733
-0.489149
-0.363739
-0.368871
-0.379037
-0.391894
-0.407614
-0.425734
-0.443036
-0.455225
-0.356007
-0.361708
-0.371476
-0.382579
-0.394192
-0.405037
-0.412118
-0.412389
-0.353737
-0.357581
-0.364737
-0.371415
-0.376492
-0.379029
-0.377313
-0.369395
-0.358686
-0.357883
-0.35909
-0.358861
-0.356719
-0.352203
-0.344124
-0.330834
-0.369856
-0.361332
-0.353853
-0.34562
-0.336877
-0.326856
-0.314298
-0.297426
-0.383118
-0.364704
-0.347518
-0.331863
-0.31769
-0.303554
-0.287843
-0.268604
-0.393437
-0.364514
-0.338706
-0.3174
-0.299194
-0.282148
-0.264271
-0.243564
-0.396504
-0.358542
-0.326782
-0.302054
-0.281127
-0.262317
-0.243034
-0.221604
-0.390209
-0.345964
-0.31206
-0.285537
-0.263387
-0.243666
-0.223731
-0.202139
-0.373178
-0.328134
-0.294769
-0.267999
-0.245899
-0.225904
-0.20607
-0.184767
-0.349422
-0.30665
-0.275351
-0.249767
-0.228476
-0.20898
-0.189765
-0.169275
-0.318003
-0.281945
-0.254279
-0.231072
-0.211386
-0.192875
-0.174654
-0.155309
-0.283414
-0.257177
-0.232503
-0.213134
-0.194614
-0.177375
-0.160182
-0.142397
-0.261759
-0.284958
-0.321938
-0.355932
-0.377185
-0.38478
-0.383249
-0.378527
-0.28022
-0.300761
-0.332913
-0.360692
-0.375842
-0.378739
-0.375732
-0.372354
-0.306078
-0.325318
-0.354624
-0.3779
-0.38705
-0.382283
-0.372406
-0.365245
-0.342328
-0.361016
-0.388282
-0.407482
-0.409206
-0.39419
-0.37365
-0.359467
-0.385088
-0.403589
-0.429319
-0.444231
-0.438761
-0.413258
-0.381245
-0.359496
-0.429816