/*--------------------------------*- C++ -*----------------------------------*\
| =========                 |                                                 |
| \\      /  F ield         | OpenFOAM: The Open Source CFD Toolbox           |
|  \\    /   O peration     | Version:  2312                                  |
|   \\  /    A nd           | Website:  www.openfoam.com                      |
|    \\/     M anipulation  |                                                 |
\*---------------------------------------------------------------------------*/
FoamFile
{
    version     2.0;
    format      ascii;
    arch        "LSB;label=32;scalar=64";
    class       volVectorField;
    location    "8.5";
    object      U;
}
// * * * * * * * * * * * * * * * * * * * * * * * * * * * * * * * * * * * * * //

dimensions      [0 1 -1 0 0 0 0];

internalField   nonuniform List<vector> 
5478
(
(-0.0267401 0.0140546 -8.29803e-20)
(-0.0494205 0.0354172 0)
(-0.0216461 0.0496891 1.2325e-19)
(0.0689811 0.054148 -2.15727e-19)
(0.2301 0.0515853 1.41955e-19)
(0.4511 0.048435 -4.05638e-20)
(0.701146 0.0474181 -7.54003e-20)
(0.943356 0.0463102 0)
(1.14669 0.0430965 0)
(1.29088 0.0323503 1.08605e-19)
(1.36654 0.0143919 -4.87557e-20)
(1.38161 -0.00753437 -8.26563e-20)
(1.35144 -0.0446091 -3.11966e-20)
(1.30389 -0.046699 0)
(1.26472 -0.111661 7.91106e-20)
(-0.0361141 0.0176473 1.66284e-19)
(-0.0389712 0.0231197 0)
(0.0383043 0.0204814 0)
(0.213719 0.0201053 -1.08462e-19)
(0.470473 0.0282363 1.42954e-19)
(0.753235 0.0440653 4.18898e-20)
(1.00685 0.060772 -7.3756e-20)
(1.19649 0.0713249 6.5398e-20)
(1.30967 0.0702889 1.67643e-19)
(1.35226 0.0570325 -1.47278e-19)
(1.34686 0.036462 4.92201e-21)
(1.31915 0.00957052 0)
(1.29596 -0.0079597 3.11434e-20)
(1.28228 -0.0294732 0)
(1.27475 -0.049041 0)
(-0.0387263 0.0184176 -5.32728e-22)
(-0.00046518 0.0144184 -7.7804e-20)
(0.164741 0.00930638 4.31629e-22)
(0.448496 0.0216654 0)
(0.766342 0.0485354 -4.83681e-20)
(1.03369 0.0765283 4.12809e-20)
(1.21183 0.0946736 3.5207e-20)
(1.30113 0.0980199 0)
(1.32548 0.0881338 -5.48788e-20)
(1.31846 0.0715871 4.70069e-20)
(1.30527 0.0518346 3.97708e-20)
(1.29783 0.0375393 0)
(1.28912 0.0177081 0)
(1.27202 0.00881738 -8.04524e-20)
(1.24514 -0.0121208 7.18843e-20)
(-0.0300279 0.0134434 -9.09213e-20)
(0.0770858 0.00196592 7.65568e-20)
(0.360627 0.0128256 -6.58657e-20)
(0.721898 0.0505875 5.79465e-20)
(1.02152 0.0901695 9.70407e-20)
(1.20641 0.115285 -8.19883e-20)
(1.29005 0.12244 -3.5188e-20)
(1.31246 0.11634 2.83864e-20)
(1.3114 0.104379 -2.67516e-20)
(1.30535 0.0898331 0)
(1.297 0.0765976 0)
(1.28091 0.0591535 -5.4367e-20)
(1.2595 0.0462229 7.09213e-20)
(1.23893 0.030862 -3.97455e-20)
(1.22519 0.0133264 0)
(-0.00670541 0.00456424 4.60673e-20)
(0.205581 -0.0054594 3.85603e-20)
(0.601615 0.0407102 -1.38684e-19)
(0.961573 0.0985165 2.03627e-21)
(1.18204 0.135564 -1.36732e-21)
(1.28055 0.148871 -1.11632e-21)
(1.30969 0.146703 3.27629e-20)
(1.31063 0.137563 2.84066e-20)
(1.30103 0.125032 2.05109e-20)
(1.28579 0.11146 -2.83382e-21)
(1.26712 0.0954804 -4.73794e-20)
(1.25109 0.0819209 0)
(1.23938 0.0675902 2.20968e-20)
(1.22829 0.0539764 -1.63996e-20)
(1.2141 0.043725 2.90846e-20)
(0.0370086 -0.00434073 -9.97081e-20)
(0.384072 0.00955166 1.07493e-19)
(0.829357 0.091841 -3.67132e-20)
(1.1263 0.152446 2.76105e-20)
(1.26499 0.177841 -5.08329e-20)
(1.30891 0.180682 -3.79682e-20)
(1.31054 0.172962 8.34008e-22)
(1.29662 0.160625 0)
(1.2791 0.146658 4.10171e-20)
(1.26329 0.131626 -3.64755e-20)
(1.25094 0.11797 1.49198e-20)
(1.23841 0.103479 0)
(1.22287 0.0902366 8.89157e-21)
(1.20608 0.0767367 -1.61777e-20)
(1.19078 0.0653495 0)
(0.105263 -0.00557703 -1.24506e-20)
(0.581004 0.0564227 1.15197e-21)
(1.00516 0.155665 1.79647e-20)
(1.22537 0.207133 3.00334e-20)
(1.30205 0.21988 -2.2852e-20)
(1.31046 0.213862 3.84141e-20)
(1.29561 0.200828 -8.76079e-21)
(1.27725 0.185889 0)
(1.26055 0.170304 -2.35156e-20)
(1.24476 0.155089 1.55613e-21)
(1.22799 0.13931 1.95553e-20)
(1.21206 0.124593 0)
(1.1993 0.110208 -1.28025e-20)
(1.18856 0.0964118 0)
(1.17745 0.0875721 7.73513e-21)
(0.195038 0.00828818 -1.37225e-20)
(0.755134 0.126827 0)
(1.12547 0.225976 1.88313e-20)
(1.27559 0.262738 0)
(1.30728 0.26237 0)
(1.29585 0.248286 0)
(1.27519 0.230926 -7.38187e-21)
(1.25455 0.212927 0)
(1.23535 0.195021 4.69717e-21)
(1.21844 0.177241 0)
(1.20493 0.16073 -6.04722e-21)
(1.19316 0.144765 0)
(1.18065 0.129779 3.90589e-21)
(1.16755 0.116074 0)
(1.1552 0.105065 2.50341e-21)
(-0.0426331 0.0576983 -7.62101e-21)
(-0.148722 0.0786171 0)
(-0.275667 0.0728521 1.3682e-20)
(-0.382497 0.0630645 0)
(-0.476871 0.0520064 0)
(-0.556922 0.0397126 0)
(-0.622016 0.0264602 -1.262e-20)
(-0.671025 0.0126017 0)
(-0.703119 -0.00154734 1.1193e-20)
(-0.717582 -0.0156679 0)
(-0.714013 -0.0294188 -1.80517e-20)
(-0.69159 -0.042782 0)
(-0.650251 -0.056031 1.29755e-20)
(-0.589306 -0.0696698 0)
(-0.510292 -0.0830192 7.91697e-21)
(-0.0445632 0.141676 4.00158e-20)
(-0.131804 0.205816 -3.02788e-20)
(-0.232057 0.200073 1.60042e-20)
(-0.313377 0.181376 5.79377e-20)
(-0.380925 0.159146 2.87104e-21)
(-0.433052 0.1334 -5.32124e-20)
(-0.469251 0.104492 3.72774e-20)
(-0.489164 0.0729551 0)
(-0.492673 0.0392609 3.51268e-20)
(-0.479716 0.00357828 4.79694e-22)
(-0.451554 -0.0340627 -1.90571e-20)
(-0.409707 -0.0750284 0)
(-0.355516 -0.118991 -4.08233e-20)
(-0.289131 -0.160656 0)
(-0.179415 -0.205329 -3.85504e-20)
(-0.0465976 0.186118 7.28338e-20)
(-0.107214 0.294569 1.74739e-20)
(-0.167199 0.299939 -2.96076e-20)
(-0.210406 0.277709 -9.10583e-20)
(-0.238974 0.247389 5.50587e-20)
(-0.251135 0.211572 5.84544e-20)
(-0.246592 0.171196 -1.0588e-19)
(-0.225707 0.127607 0)
(-0.189574 0.0820565 -9.63846e-20)
(-0.138999 0.0350601 8.56939e-20)
(-0.0792869 -0.0131696 3.8764e-20)
(-0.0109616 -0.0661209 0)
(0.0815246 -0.113094 2.78203e-20)
(0.143827 -0.176098 -4.83404e-20)
(0.304572 -0.23308 0)
(-0.0454139 0.182509 4.05542e-20)
(-0.0820439 0.329508 -1.06763e-19)
(-0.0999687 0.360805 1.31358e-19)
(-0.102449 0.343994 -1.21139e-19)
(-0.0913061 0.309636 -5.85343e-20)
(-0.0646644 0.267088 5.58181e-20)
(-0.0225901 0.218903 5.40413e-20)
(0.033878 0.166668 4.97583e-20)
(0.101027 0.110931 -1.41922e-19)
(0.179771 0.0526503 -1.33253e-21)
(0.262742 -0.00045163 3.83041e-20)
(0.349926 -0.0708313 0)
(0.470282 -0.113927 5.66821e-20)
(0.528743 -0.19117 1.4058e-19)
(0.724378 -0.24778 -8.23696e-20)
(-0.0383812 0.139974 9.69757e-22)
(-0.0606245 0.302143 7.31986e-20)
(-0.0464222 0.367307 -6.5441e-20)
(-0.013411 0.370047 6.15552e-20)
(0.0334956 0.34144 1.14378e-19)
(0.0937695 0.297576 -1.08298e-19)
(0.165789 0.245541 -4.93923e-20)
(0.24688 0.18772 -1.48627e-19)
(0.33285 0.12905 1.33898e-19)
(0.428332 0.0664371 0)
(0.52587 0.0136437 0)
(0.635721 -0.061932 1.26992e-19)
(0.767084 -0.108869 -2.77595e-19)
(0.856715 -0.196387 9.61255e-20)
(1.04741 -0.242823 0)
(-0.0275222 0.0836074 6.58333e-22)
(-0.0457045 0.224155 -7.28479e-20)
(-0.0175052 0.307515 1.95722e-19)
(0.0358539 0.331614 -5.78223e-20)
(0.106129 0.316639 -5.58956e-20)
(0.18857 0.279333 5.25302e-20)
(0.279068 0.229667 4.94095e-20)
(0.376185 0.175523 8.98145e-20)
(0.482795 0.119806 -1.57526e-19)
(0.603532 0.0620839 7.12833e-20)
(0.733376 0.00402616 6.40429e-20)
(0.885549 -0.0653036 0)
(1.02658 -0.112626 0)
(1.15549 -0.194463 1.61306e-19)
(1.28539 -0.219003 -1.43975e-19)
(-0.0186488 0.039188 -5.23534e-22)
(-0.0387394 0.13459 0)
(-0.0135055 0.207159 0)
(0.0421123 0.23612 1.1214e-19)
(0.119577 0.230349 -5.02579e-20)
(0.214656 0.20338 4.43375e-20)
(0.328129 0.1654 8.72786e-20)
(0.462432 0.124075 -7.73922e-20)
(0.620553 0.0756628 7.78591e-20)
(0.794522 0.0307996 -7.13576e-20)
(0.975103 -0.0230193 -6.72162e-21)
(1.14406 -0.0663916 0)
(1.27136 -0.11174 4.18892e-20)
(1.36793 -0.164393 0)
(1.38221 -0.173659 0)
(-0.0183356 0.01738 -8.31457e-20)
(-0.0428566 0.0686998 0)
(-0.0261217 0.111657 -1.2338e-19)
(0.0289883 0.129855 2.16488e-19)
(0.123028 0.126322 -2.40203e-19)
(0.259788 0.109784 -4.7191e-20)
(0.438249 0.0874796 7.77778e-20)
(0.646638 0.0630437 0)
(0.864932 0.0367829 0)
(1.06806 0.0129456 -1.22068e-19)
(1.23583 -0.0190328 -5.50836e-20)
(1.34671 -0.0398645 9.46873e-20)
(1.39855 -0.0829794 -4.19699e-20)
(1.39127 -0.102084 0)
(1.33152 -0.122688 -9.63419e-20)
(-0.413958 -0.0894683 0)
(-0.283015 -0.106556 1.54135e-21)
(-0.128835 -0.11024 -1.47014e-21)
(0.0355009 -0.105927 0)
(0.196275 -0.0955764 2.81299e-23)
(0.342733 -0.0812158 0)
(0.468291 -0.0662863 -7.79683e-23)
(0.571341 -0.0535252 0)
(0.653799 -0.0430445 6.0712e-23)
(0.719266 -0.0346894 -7.6138e-22)
(0.771679 -0.0280068 7.26563e-22)
(0.814352 -0.0222796 3.34983e-23)
(0.849354 -0.016984 0)
(0.877722 -0.0120538 -4.44909e-23)
(0.90011 -0.00768816 -3.63991e-23)
(0.917306 -0.0040243 0)
(0.930352 -0.000962474 0)
(0.940353 0.00180548 0)
(0.948197 0.00445286 1.7295e-23)
(0.954484 0.00707024 0)
(0.95961 0.00972205 0)
(0.963841 0.012425 1.87241e-23)
(0.967361 0.0152034 -3.82256e-23)
(0.970309 0.0180917 -1.59226e-23)
(0.972799 0.0211257 0)
(0.974911 0.0243567 0)
(0.976732 0.027793 0)
(0.978279 0.0315793 0)
(0.979665 0.0354841 1.66867e-23)
(0.980807 0.0402884 1.46914e-23)
(0.98193 0.0442752 -1.29088e-23)
(0.982782 0.0515325 -5.93511e-24)
(0.983735 0.0538308 4.58861e-24)
(0.984471 0.0667569 0)
(0.985233 0.0648158 1.41024e-24)
(0.986036 0.08485 -1.35096e-24)
(0.986647 0.0818658 2.47738e-25)
(0.987651 0.10405 -2.36733e-25)
(-0.102858 -0.232588 6.03083e-21)
(-0.00120596 -0.268638 1.53768e-20)
(0.124387 -0.282821 0)
(0.258859 -0.272888 2.24044e-23)
(0.384932 -0.243544 3.4263e-24)
(0.497781 -0.202134 0)
(0.592505 -0.159017 7.85419e-23)
(0.668872 -0.122307 -4.08528e-21)
(0.729427 -0.0942313 3.95702e-21)
(0.776639 -0.0732668 -9.48523e-23)
(0.813671 -0.0575989 0)
(0.843632 -0.0453833 -3.37279e-23)
(0.868678 -0.0351342 0)
(0.889846 -0.0261424 8.91777e-23)
(0.90745 -0.0183721 3.66333e-23)
(0.921685 -0.0119996 6.06354e-23)
(0.933032 -0.00693916 -7.53774e-22)
(0.942089 -0.00278023 7.19611e-22)
(0.949406 0.000958995 5.1327e-22)
(0.955446 0.00440129 -5.36732e-22)
(0.960495 0.00766307 -2.55807e-23)
(0.964723 0.0108277 1.86548e-22)
(0.968271 0.0139562 -1.95636e-22)
(0.971255 0.0171088 -1.41122e-22)
(0.973785 0.0203411 2.27306e-22)
(0.975938 0.023722 -1.0378e-22)
(0.9778 0.027273 -2.21144e-23)
(0.979395 0.0311504 0)
(0.980827 0.0351234 -5.11179e-23)
(0.982029 0.0399947 -1.47336e-23)
(0.983211 0.0440124 1.29413e-23)
(0.98413 0.0513385 5.57449e-23)
(0.985175 0.0536208 -4.99562e-23)
(0.985965 0.0666235 1.478e-24)
(0.986864 0.0646561 1.17143e-24)
(0.98775 0.08471 1.93118e-23)
(0.988444 0.0817483 1.2789e-23)
(0.98965 0.103916 -9.59673e-25)
(0.354389 -0.300108 3.95267e-20)
(0.423444 -0.367804 -3.7945e-20)
(0.498478 -0.3957 0)
(0.573464 -0.38743 1.96237e-21)
(0.640954 -0.348146 -1.79768e-21)
(0.698911 -0.289378 -6.36126e-23)
(0.746548 -0.227414 0)
(0.784334 -0.172804 -1.28477e-22)
(0.815349 -0.130504 0)
(0.841117 -0.0995528 1.81722e-22)
(0.861713 -0.0771612 4.65818e-21)
(0.878367 -0.0605966 -4.44373e-21)
(0.892714 -0.0474698 -3.33206e-21)
(0.905758 -0.036259 5.79951e-21)
(0.91761 -0.0265015 -2.48155e-21)
(0.928002 -0.018342 -6.14822e-23)
(0.93691 -0.0118189 0)
(0.94459 -0.0066066 6.9337e-22)
(0.951187 -0.00215008 -5.47475e-22)
(0.956806 0.00194121 3.03883e-23)
(0.961632 0.00568656 -2.70032e-23)
(0.965761 0.00922743 -3.42708e-22)
(0.969272 0.0126562 3.26212e-22)
(0.972253 0.0160476 2.57051e-22)
(0.974795 0.0194692 -2.76046e-22)
(0.976974 0.0229998 0)
(0.978868 0.0266689 2.23021e-23)
(0.980506 0.0306421 4.03332e-23)
(0.981982 0.0346861 -1.00159e-22)
(0.983243 0.0396273 6.96663e-23)
(0.984482 0.0436775 1.0798e-22)
(0.985466 0.0510738 -2.79708e-23)
(0.986607 0.0533455 -5.99756e-23)
(0.987447 0.0664262 1.93429e-23)
(0.988488 0.0644422 2.48289e-23)
(0.989455 0.0845271 -3.85849e-23)
(0.990232 0.0815874 1.00002e-23)
(0.991648 0.103761 -1.94804e-24)
(0.745173 -0.321355 3.7755e-22)
(0.791171 -0.398165 3.07697e-20)
(0.835901 -0.4424 -4.78236e-20)
(0.85783 -0.437262 1.73376e-20)
(0.862481 -0.394042 8.37657e-23)
(0.861459 -0.328908 6.52922e-23)
(0.860944 -0.260621 0)
(0.863093 -0.20101 0)
(0.868618 -0.152918 0)
(0.877618 -0.116596 4.9049e-21)
(0.887948 -0.0901215 -4.6274e-21)
(0.897867 -0.0709257 -1.17108e-22)
(0.907239 -0.0563096 2.08615e-22)
(0.916435 -0.0441067 -8.98644e-23)
(0.925349 -0.0333735 -1.48456e-22)
(0.93353 -0.024173 0)
(0.940789 -0.0166637 -1.58242e-21)
(0.947262 -0.0106017 1.4651e-21)
(0.953096 -0.00554161 -7.45154e-23)
(0.958271 -0.000881556 0)
(0.962814 0.00341185 5.38687e-23)
(0.96681 0.00738574 0)
(0.970271 0.0111684 3.99321e-23)
(0.973242 0.0148424 -3.63647e-23)
(0.975797 0.0184826 3.02014e-23)
(0.978 0.0221815 0)
(0.979925 0.0259787 0)
(0.981605 0.0300549 -1.99903e-22)
(0.983122 0.0341735 2.54735e-22)
(0.984441 0.0391869 -1.10213e-23)
(0.985737 0.0432702 -1.16789e-22)
(0.986787 0.0507392 -9.1351e-23)
(0.988024 0.0530045 1.67189e-22)
(0.988914 0.0661624 -3.98315e-23)
(0.990098 0.0641692 -2.98539e-23)
(0.991152 0.0842948 0)
(0.992006 0.0813786 -1.20554e-23)
(0.993647 0.103588 0)
(1.04487 -0.326239 -3.92102e-22)
(1.05931 -0.398888 0)
(1.06907 -0.43785 4.02428e-22)
(1.05053 -0.436049 -2.26659e-22)
(1.00491 -0.395366 -2.39507e-22)
(0.958669 -0.333845 5.94961e-23)
(0.924655 -0.2695 -2.55968e-21)
(0.904707 -0.213167 6.31515e-21)
(0.896051 -0.167369 -3.64168e-21)
(0.895187 -0.130786 0)
(0.899505 -0.102114 -2.52722e-22)
(0.906298 -0.0806187 1.2101e-22)
(0.913965 -0.0644015 2.98957e-21)
(0.922021 -0.0510604 -3.03289e-21)
(0.930039 -0.0392072 7.57151e-23)
(0.937435 -0.0288832 -1.86543e-21)
(0.943974 -0.0204355 3.08819e-22)
(0.949824 -0.0137119 2.94585e-21)
(0.955184 -0.00816172 -1.32204e-21)
(0.96001 -0.00330485 1.07781e-21)
(0.964255 0.00134724 -4.05519e-23)
(0.968032 0.00565889 -7.77159e-23)
(0.971375 0.0097235 -7.1186e-22)
(0.974287 0.0136295 1.46849e-22)
(0.976818 0.017457 0)
(0.979025 0.0213076 0)
(0.980969 0.0252247 0)
(0.982685 0.0293996 0)
(0.984241 0.03359 1.82776e-22)
(0.985617 0.0386761 -1.38539e-22)
(0.98697 0.0427903 -1.6856e-22)
(0.988086 0.050333 1.04955e-22)
(0.989418 0.0525947 -1.21077e-22)
(0.990364 0.0658315 7.46913e-23)
(0.991686 0.0638355 2.80848e-23)
(0.992839 0.0840086 1.21101e-23)
(0.993765 0.0811171 7.99945e-24)
(0.995647 0.103381 0)
(1.2586 -0.297535 0)
(1.2442 -0.353145 6.78594e-20)
(1.21174 -0.380624 -6.44206e-20)
(1.15416 -0.38436 -3.25377e-20)
(1.08344 -0.358854 3.11523e-20)
(1.01601 -0.315856 5.07774e-23)
(0.965897 -0.267255 -1.43159e-25)
(0.934307 -0.221426 0)
(0.91738 -0.180458 6.01553e-21)
(0.911057 -0.144847 -5.77946e-21)
(0.911364 -0.115603 1.20386e-22)
(0.91526 -0.0927333 -6.44226e-21)
(0.920905 -0.0750587 1.21404e-20)
(0.927419 -0.06066 -3.23914e-22)
(0.934256 -0.0476577 -4.96807e-21)
(0.940793 -0.0359142 -6.51167e-23)
(0.946713 -0.0259964 -5.63289e-23)
(0.952079 -0.0180381 0)
(0.957017 -0.0115875 0)
(0.961579 -0.00609829 4.68258e-25)
(0.965655 -0.00102176 1.04925e-24)
(0.969242 0.00370845 5.18016e-23)
(0.972459 0.00810839 -4.48898e-23)
(0.975308 0.0122925 -3.7361e-23)
(0.977815 0.0163375 5.16789e-22)
(0.980026 0.0203556 -4.91585e-22)
(0.981987 0.0244002 -5.20731e-23)
(0.983737 0.0286805 0)
(0.985332 0.0329446 3.99735e-23)
(0.986763 0.0381101 0)
(0.988173 0.0422558 1.7365e-22)
(0.989358 0.0498768 -1.34838e-22)
(0.990781 0.052136 0)
(0.991797 0.0654529 -3.0551e-23)
(0.993245 0.0634629 5.99655e-23)
(0.994517 0.0836877 -2.35666e-23)
(0.995505 0.0808275 0)
(0.997648 0.103162 4.19483e-24)
(1.33479 -0.244349 -1.62504e-22)
(1.29681 -0.282705 0)
(1.24176 -0.304267 -5.22863e-20)
(1.17149 -0.310076 4.97622e-20)
(1.10425 -0.302093 2.44928e-20)
(1.04608 -0.281004 -2.34278e-20)
(0.999004 -0.248956 0)
(0.965788 -0.21334 1.84142e-22)
(0.945121 -0.178389 -1.75176e-22)
(0.932863 -0.147109 0)
(0.92782 -0.120244 -3.53401e-23)
(0.928234 -0.0978964 -1.42879e-22)
(0.93116 -0.0800895 4.14096e-23)
(0.93521 -0.065159 5.284e-21)
(0.940098 -0.0518957 -4.98588e-21)
(0.945286 -0.0399251 -4.03838e-21)
(0.950351 -0.0296343 3.83709e-21)
(0.955135 -0.0212367 3.00793e-21)
(0.959607 -0.0143788 -2.85812e-21)
(0.963736 -0.00851432 -1.09143e-22)
(0.967447 -0.00329982 -9.94211e-22)
(0.970749 0.00181551 1.69179e-21)
(0.973744 0.00650339 -7.89594e-22)
(0.976455 0.0109086 5.85497e-22)
(0.978882 0.0151444 -8.45453e-23)
(0.981058 0.0193261 -5.17789e-22)
(0.983015 0.0235021 -3.63071e-22)
(0.984783 0.0278934 4.19255e-22)
(0.986408 0.0322348 -4.08998e-23)
(0.987888 0.0374816 3.64675e-23)
(0.989352 0.0416607 1.50636e-22)
(0.990606 0.0493591 4.20975e-23)
(0.992112 0.0516186 -7.3279e-23)
(0.993212 0.0650126 -1.88e-23)
(0.994768 0.0630314 0)
(0.996186 0.0833112 7.36758e-24)
(0.99722 0.0804848 -2.11659e-23)
(0.99965 0.102889 4.35096e-24)
(1.29488 -0.18144 9.07275e-20)
(1.26457 -0.207914 0)
(1.22083 -0.234374 5.78326e-20)
(1.16876 -0.257264 -9.96817e-20)
(1.11867 -0.270465 4.2264e-20)
(1.07477 -0.268945 0)
(1.03426 -0.254736 0)
(0.998628 -0.232254 0)
(0.972878 -0.205077 0)
(0.95617 -0.175946 0)
(0.946834 -0.147002 3.7755e-23)
(0.943476 -0.120291 5.07121e-21)
(0.943581 -0.0974266 -4.81733e-21)
(0.944937 -0.0783981 -4.19068e-23)
(0.94707 -0.0622675 0)
(0.950202 -0.0480278 0)
(0.95401 -0.0358235 -5.95259e-23)
(0.958067 -0.0258608 0)
(0.962061 -0.0178156 2.73404e-21)
(0.965815 -0.0111345 -2.55364e-21)
(0.969312 -0.0053851 9.89813e-22)
(0.972425 -0.000217066 -8.45966e-23)
(0.97518 0.00483841 -7.88892e-22)
(0.977737 0.00956667 0)
(0.980074 0.0140203 6.16863e-22)
(0.982195 0.0183574 -1.05382e-21)
(0.984124 0.022641 4.78081e-22)
(0.985889 0.027124 -2.4686e-23)
(0.987527 0.0315161 0)
(0.98904 0.0368415 -3.73502e-23)
(0.990545 0.0410221 -3.22235e-23)
(0.991863 0.0488209 -1.33027e-22)
(0.993436 0.0510436 7.64569e-23)
(0.994633 0.0645495 1.89988e-23)
(0.996266 0.0625601 0)
(0.997859 0.0829095 -1.08026e-23)
(0.998909 0.0801379 0)
(1.00165 0.102622 -4.3068e-24)
(1.25974 -0.120837 0)
(1.25043 -0.145387 0)
(1.21979 -0.165671 0)
(1.18178 -0.1815 0)
(1.14256 -0.190963 0)
(1.10427 -0.194059 0)
(1.06884 -0.191236 0)
(1.03717 -0.181281 0)
(1.01132 -0.166164 0)
(0.991273 -0.148342 0)
(0.976521 -0.1296 0)
(0.96702 -0.111058 0)
(0.961493 -0.0939865 0)
(0.958357 -0.0791641 0)
(0.957033 -0.0655235 0)
(0.957404 -0.05254 0)
(0.959146 -0.0406783 0)
(0.961811 -0.0304565 0)
(0.964916 -0.0218543 0)
(0.968067 -0.0145114 0)
(0.971078 -0.00805928 0)
(0.974002 -0.00237319 0)
(0.976721 0.0028692 0)
(0.979132 0.00777681 0)
(0.981358 0.012436 0)
(0.983413 0.0169666 0)
(0.985307 0.0214183 0)
(0.987058 0.0260454 0)
(0.988702 0.030552 0)
(0.990237 0.035976 0)
(0.991779 0.0402306 0)
(0.993158 0.0480898 0)
(0.994777 0.0503717 0)
(0.99609 0.0639067 0)
(0.997757 0.0619859 0)
(0.999545 0.0823725 0)
(1.00059 0.0796678 0)
(1.00361 0.102288 0)
(1.22974 -0.101264 0)
(1.22582 -0.131661 0)
(1.20012 -0.157008 0)
(1.16539 -0.176625 0)
(1.12946 -0.190301 0)
(1.09608 -0.196598 0)
(1.06599 -0.194702 0)
(1.03816 -0.185473 0)
(1.01408 -0.170697 0)
(0.994733 -0.152267 0)
(0.980351 -0.132636 0)
(0.970977 -0.113459 0)
(0.965542 -0.0955964 0)
(0.962755 -0.0794876 0)
(0.96177 -0.0648658 0)
(0.961996 -0.0515809 0)
(0.963154 -0.0399076 0)
(0.965128 -0.0300078 0)
(0.967646 -0.0216693 0)
(0.970381 -0.0145148 0)
(0.973113 -0.00819388 0)
(0.975662 -0.00245579 0)
(0.978069 0.00265905 0)
(0.980409 0.00747171 0)
(0.982602 0.0120772 0)
(0.984626 0.0165851 0)
(0.986501 0.0210353 0)
(0.988246 0.0256656 0)
(0.989903 0.0301831 0)
(0.99146 0.0356066 0)
(0.993042 0.0398689 0)
(0.994481 0.0477134 0)
(0.996144 0.0499887 0)
(0.99759 0.0635292 0)
(0.999263 0.0615492 0)
(1.00128 0.0820061 0)
(1.0023 0.0792086 0)
(1.00559 0.101955 0)
(1.20125 -0.0841132 0)
(1.20111 -0.109042 0)
(1.18251 -0.129797 0)
(1.15513 -0.144565 0)
(1.12618 -0.153358 0)
(1.09839 -0.1568 0)
(1.07227 -0.155567 0)
(1.04765 -0.150111 0)
(1.02581 -0.141031 0)
(1.00721 -0.129054 0)
(0.992572 -0.115697 0)
(0.98241 -0.101908 0)
(0.975501 -0.0882797 0)
(0.970946 -0.0753985 0)
(0.968529 -0.0631559 0)
(0.967672 -0.0514487 0)
(0.967885 -0.0407178 0)
(0.969042 -0.0313183 0)
(0.9709 -0.023168 0)
(0.973075 -0.0160239 0)
(0.975355 -0.00969215 0)
(0.977692 -0.00396183 0)
(0.979967 0.00147105 0)
(0.982099 0.00655501 0)
(0.984127 0.0113424 0)
(0.986049 0.0159799 0)
(0.987867 0.0205242 0)
(0.989581 0.025223 0)
(0.991239 0.0297941 0)
(0.992809 0.0352488 0)
(0.994427 0.0395367 0)
(0.995925 0.0473927 0)
(0.997632 0.0496701 0)
(0.999222 0.0632378 0)
(1.0009 0.0611874 0)
(1.00316 0.081727 0)
(1.00416 0.0788064 0)
(1.00775 0.101619 0)
(1.17608 -0.0685569 0)
(1.17669 -0.0894406 0)
(1.16363 -0.10802 0)
(1.14212 -0.122292 0)
(1.11772 -0.132415 0)
(1.09368 -0.138848 0)
(1.07125 -0.141236 0)
(1.05036 -0.139393 0)
(1.03193 -0.133681 0)
(1.01555 -0.124342 0)
(1.00179 -0.112711 0)
(0.991786 -0.100056 0)
(0.984395 -0.0871269 0)
(0.978858 -0.0746961 0)
(0.975473 -0.0628429 0)
(0.973782 -0.0514922 0)
(0.973163 -0.0410809 0)
(0.973514 -0.0319539 0)
(0.974688 -0.0239839 0)
(0.976336 -0.0168852 0)
(0.97819 -0.0104476 0)
(0.980107 -0.00457178 0)
(0.982041 0.000775391 0)
(0.983971 0.00581651 0)
(0.985854 0.0106354 0)
(0.987666 0.0153294 0)
(0.989411 0.0199319 0)
(0.991082 0.0246844 0)
(0.992728 0.0292987 0)
(0.994304 0.0347866 0)
(0.995956 0.0391022 0)
(0.997515 0.0469899 0)
(0.999268 0.0492615 0)
(1.00101 0.0628812 0)
(1.00269 0.0607595 0)
(1.00521 0.0813897 0)
(1.00621 0.0783798 0)
(1.01009 0.101232 0)
(1.15162 -0.0576339 0)
(1.15376 -0.0746655 0)
(1.14529 -0.0904899 0)
(1.12893 -0.103413 0)
(1.10919 -0.112826 0)
(1.08957 -0.118745 0)
(1.07126 -0.120999 0)
(1.05383 -0.119774 0)
(1.03812 -0.115731 0)
(1.02351 -0.109037 0)
(1.01035 -0.100427 0)
(1.0003 -0.090757 0)
(0.992442 -0.0804629 0)
(0.986115 -0.0701743 0)
(0.982022 -0.0600584 0)
(0.979755 -0.0500417 0)
(0.978514 -0.0405601 0)
(0.978222 -0.0320418 0)
(0.978794 -0.0244404 0)
(0.979873 -0.0175628 0)
(0.981217 -0.0112927 0)
(0.982752 -0.00551451 0)
(0.984409 -9.06443e-05 0)
(0.986104 0.00502767 0)
(0.987799 0.00990695 0)
(0.989476 0.0146533 0)
(0.991133 0.0193041 0)
(0.99275 0.0240985 0)
(0.994376 0.0287448 0)
(0.995957 0.0342645 0)
(0.997641 0.0385961 0)
(0.999262 0.0465136 0)
(1.00106 0.0487484 0)
(1.00295 0.0624329 0)
(1.00466 0.0602089 0)
(1.00744 0.0809422 0)
(1.00845 0.0778402 0)
(1.01266 0.100741 0)
(1.13059 -0.0495095 0)
(1.1342 -0.0627682 0)
(1.12871 -0.0757202 0)
(1.1164 -0.08682 0)
(1.10089 -0.0951425 0)
(1.08516 -0.100676 0)
(1.07011 -0.103514 0)
(1.05526 -0.103801 0)
(1.04181 -0.10193 0)
(1.02909 -0.0977945 0)
(1.01706 -0.0916582 0)
(1.00759 -0.0841574 0)
(0.999889 -0.0756079 0)
(0.993245 -0.0666201 0)
(0.988696 -0.0576051 0)
(0.98597 -0.0485868 0)
(0.98413 -0.0398951 0)
(0.983146 -0.0319517 0)
(0.983085 -0.024765 0)
(0.983633 -0.0181438 0)
(0.984531 -0.0119744 0)
(0.985679 -0.00621175 0)
(0.987004 -0.000815431 0)
(0.98844 0.00429475 0)
(0.989943 0.00919264 0)
(0.991477 0.0139712 0)
(0.993035 0.0186572 0)
(0.994589 0.0234838 0)
(0.996191 0.0281556 0)
(0.997775 0.0337023 0)
(0.999488 0.0380299 0)
(1.00117 0.0459752 0)
(1.00303 0.0481475 0)
(1.00507 0.0619123 0)
(1.00681 0.0595542 0)
(1.00987 0.0804025 0)
(1.0109 0.0771867 0)
(1.01547 0.100144 0)
(1.11386 -0.0423294 0)
(1.11724 -0.0528465 0)
(1.11353 -0.0633376 0)
(1.10454 -0.0726363 0)
(1.09258 -0.0799377 0)
(1.08 -0.0851725 0)
(1.06776 -0.0883722 0)
(1.05536 -0.0895348 0)
(1.0441 -0.0888821 0)
(1.03333 -0.0863067 0)
(1.02268 -0.0819112 0)
(1.01405 -0.0761897 0)
(1.00671 -0.069353 0)
(0.999929 -0.0618668 0)
(0.995033 -0.0542019 0)
(0.991964 -0.0464091 0)
(0.98967 -0.0386925 0)
(0.988135 -0.0314252 0)
(0.987553 -0.0246884 0)
(0.987624 -0.0183721 0)
(0.988068 -0.012415 0)
(0.988812 -0.00678736 0)
(0.989816 -0.00145224 0)
(0.990997 0.00362134 0)
(0.992295 0.00850738 0)
(0.993674 0.0132922 0)
(0.995124 0.0179919 0)
(0.99661 0.0228364 0)
(0.998182 0.0275195 0)
(0.999766 0.0330823 0)
(1.00151 0.0373889 0)
(1.00326 0.04537 0)
(1.00517 0.0474584 0)
(1.00738 0.0613224 0)
(1.00917 0.0588009 0)
(1.01252 0.079773 0)
(1.01357 0.0764354 0)
(1.01855 0.0994455 0)
(1.099 -0.0367908 0)
(1.10211 -0.0451568 0)
(1.09992 -0.0534053 0)
(1.09356 -0.0609992 0)
(1.08439 -0.0673008 0)
(1.07446 -0.0720405 0)
(1.06474 -0.0751695 0)
(1.05462 -0.0767171 0)
(1.04538 -0.0768392 0)
(1.0364 -0.0754284 0)
(1.02709 -0.0724881 0)
(1.01939 -0.0683399 0)
(1.01266 -0.0630827 0)
(1.006 -0.056999 0)
(1.00096 -0.0505516 0)
(0.997741 -0.0438529 0)
(0.995183 -0.0370457 0)
(0.9932 -0.0304629 0)
(0.992115 -0.0242382 0)
(0.991725 -0.0183067 0)
(0.991771 -0.0126321 0)
(0.992171 -0.00722038 0)
(0.992851 -0.00204398 0)
(0.993758 0.00297526 0)
(0.994853 0.00783633 0)
(0.996073 0.0126092 0)
(0.99741 0.0173046 0)
(0.998822 0.0221512 0)
(1.00036 0.0268273 0)
(1.00194 0.0323972 0)
(1.00371 0.0366673 0)
(1.00553 0.04469 0)
(1.00751 0.0466643 0)
(1.0099 0.0606448 0)
(1.01173 0.0579231 0)
(1.01542 0.0790317 0)
(1.01648 0.0755625 0)
(1.02192 0.0986168 0)
(1.08607 -0.0327064 0)
(1.08924 -0.0390019 0)
(1.08819 -0.0453307 0)
(1.08371 -0.0514394 0)
(1.07673 -0.0567079 0)
(1.06901 -0.0607937 0)
(1.06143 -0.0636565 0)
(1.05326 -0.0653435 0)
(1.04575 -0.0659655 0)
(1.03836 -0.0654037 0)
(1.03037 -0.0635669 0)
(1.02371 -0.0606396 0)
(1.01777 -0.0566725 0)
(1.01147 -0.0518143 0)
(1.00645 -0.0464715 0)
(1.0032 -0.0408161 0)
(1.00048 -0.0349573 0)
(0.998168 -0.0291512 0)
(0.996714 -0.0235216 0)
(0.99596 -0.0180215 0)
(0.995617 -0.0126352 0)
(0.995644 -0.00739379 0)
(0.996063 -0.00231979 0)
(0.99676 0.00254756 0)
(0.997638 0.00727443 0)
(0.998687 0.011969 0)
(0.999902 0.0166171 0)
(1.00123 0.0214364 0)
(1.00273 0.0260816 0)
(1.00431 0.0316465 0)
(1.00611 0.0358573 0)
(1.00801 0.043921 0)
(1.01005 0.0457447 0)
(1.01264 0.059859 0)
(1.01452 0.0568933 0)
(1.01857 0.0781543 0)
(1.01965 0.0745325 0)
(1.02561 0.0976272 0)
(1.07575 -0.0294135 0)
(1.07863 -0.0340437 0)
(1.07814 -0.0389194 0)
(1.075 -0.0437492 0)
(1.06973 -0.0479912 0)
(1.06381 -0.0513917 0)
(1.05798 -0.053905 0)
(1.05143 -0.0555511 0)
(1.04544 -0.0564054 0)
(1.03948 -0.0563451 0)
(1.03273 -0.0552509 0)
(1.02711 -0.0532288 0)
(1.02205 -0.050292 0)
(1.01625 -0.0464984 0)
(1.0114 -0.0421629 0)
(1.00822 -0.037468 0)
(1.00548 -0.0324912 0)
(1.00298 -0.027419 0)
(1.00126 -0.022393 0)
(1.00024 -0.0174217 0)
(0.99966 -0.0124983 0)
(0.999442 -0.0076458 0)
(0.999501 -0.00287881 0)
(0.999857 0.00186158 0)
(1.00055 0.00657906 0)
(1.00147 0.0112593 0)
(1.00258 0.0158787 0)
(1.00384 0.0206685 0)
(1.00531 0.0252685 0)
(1.00688 0.0308175 0)
(1.00871 0.0349426 0)
(1.0107 0.0430467 0)
(1.01281 0.0446784 0)
(1.01561 0.0589459 0)
(1.01755 0.0556842 0)
(1.02201 0.0771148 0)
(1.02309 0.0733124 0)
(1.02965 0.0964453 0)
(1.06729 -0.0264201 0)
(1.06974 -0.029916 0)
(1.06964 -0.0336798 0)
(1.06754 -0.0374108 0)
(1.0636 -0.0407391 0)
(1.05909 -0.0435087 0)
(1.05468 -0.0456539 0)
(1.04949 -0.0471558 0)
(1.04478 -0.048067 0)
(1.04005 -0.0482882 0)
(1.0344 -0.0476952 0)
(1.02976 -0.0463359 0)
(1.02557 -0.0442038 0)
(1.02038 -0.0412995 0)
(1.01583 -0.037829 0)
(1.01283 -0.0339542 0)
(1.01018 -0.0297416 0)
(1.0076 -0.0253152 0)
(1.00567 -0.0207926 0)
(1.00439 -0.016205 0)
(1.00351 -0.0115766 0)
(1.00301 -0.00695618 0)
(1.003 -0.00237648 0)
(1.00335 0.0021303 0)
(1.00387 0.00652877 0)
(1.00457 0.0109281 0)
(1.00552 0.0153292 0)
(1.00668 0.0199682 0)
(1.0081 0.0244438 0)
(1.00967 0.029932 0)
(1.01153 0.0339252 0)
(1.01361 0.0420616 0)
(1.0158 0.0434469 0)
(1.01884 0.0578888 0)
(1.02083 0.0542638 0)
(1.02576 0.075885 0)
(1.02683 0.0718659 0)
(1.03407 0.0950323 0)
(1.06019 -0.0246816 0)
(1.0624 -0.0272122 0)
(1.06257 -0.0299615 0)
(1.0612 -0.0326814 0)
(1.05823 -0.0351483 0)
(1.05481 -0.0372569 0)
(1.05154 -0.0389433 0)
(1.04747 -0.0401881 0)
(1.04384 -0.0410265 0)
(1.04016 -0.0413639 0)
(1.03549 -0.041076 0)
(1.03175 -0.0401852 0)
(1.02841 -0.0386734 0)
(1.02387 -0.0365066 0)
(1.01974 -0.033818 0)
(1.01703 -0.0307442 0)
(1.01461 -0.0273396 0)
(1.01212 -0.0236851 0)
(1.01016 -0.0198685 0)
(1.00881 -0.0159188 0)
(1.00784 -0.0118448 0)
(1.00718 -0.0076746 0)
(1.00674 -0.00344632 0)
(1.00658 0.000831638 0)
(1.00686 0.00519484 0)
(1.00752 0.00965112 0)
(1.00846 0.0141259 0)
(1.00962 0.018827 0)
(1.01104 0.0233056 0)
(1.01265 0.0288092 0)
(1.01455 0.0326871 0)
(1.01674 0.0408848 0)
(1.01901 0.0419795 0)
(1.02233 0.0566326 0)
(1.02436 0.0525703 0)
(1.02983 0.074411 0)
(1.03087 0.0701343 0)
(1.03891 0.0933246 0)
(1.05515 -0.0220995 0)
(1.05706 -0.0239459 0)
(1.05732 -0.0259601 0)
(1.05643 -0.0279464 0)
(1.05416 -0.0297648 0)
(1.05151 -0.0313351 0)
(1.04904 -0.0326013 0)
(1.04578 -0.0335597 0)
(1.04296 -0.0342445 0)
(1.0401 -0.0345586 0)
(1.03621 -0.0343723 0)
(1.03322 -0.0336972 0)
(1.03062 -0.0325145 0)
(1.0267 -0.0307725 0)
(1.02296 -0.0285524 0)
(1.02054 -0.0259627 0)
(1.01832 -0.0230453 0)
(1.01591 -0.0198496 0)
(1.01393 -0.0164375 0)
(1.01249 -0.0128453 0)
(1.0114 -0.00910733 0)
(1.01065 -0.00526994 0)
(1.0104 -0.00136669 0)
(1.01056 0.00259721 0)
(1.01089 0.00657404 0)
(1.01136 0.0105984 0)
(1.01209 0.0146288 0)
(1.01308 0.0189199 0)
(1.01438 0.0230083 0)
(1.01594 0.0282309 0)
(1.01785 0.0317512 0)
(1.02014 0.0398668 0)
(1.02247 0.0404967 0)
(1.02611 0.0553294 0)
(1.02815 0.0506768 0)
(1.03427 0.0727427 0)
(1.03523 0.0681233 0)
(1.0442 0.0913136 0)
(1.0507 -0.0220938 0)
(1.05234 -0.0233369 0)
(1.05269 -0.0247248 0)
(1.0522 -0.026125 0)
(1.05053 -0.0274365 0)
(1.04858 -0.0285862 0)
(1.04684 -0.0295217 0)
(1.04431 -0.0302363 0)
(1.0422 -0.0307748 0)
(1.0401 -0.0310753 0)
(1.03697 -0.0310104 0)
(1.03469 -0.0305734 0)
(1.03283 -0.0297547 0)
(1.02955 -0.0284975 0)
(1.02629 -0.0268409 0)
(1.02426 -0.0248633 0)
(1.02237 -0.0225892 0)
(1.02021 -0.0200373 0)
(1.01835 -0.0172401 0)
(1.01696 -0.0142152 0)
(1.01584 -0.0109761 0)
(1.01494 -0.00754795 0)
(1.0142 -0.00396683 0)
(1.01369 -0.000267968 0)
(1.01365 0.00354058 0)
(1.01406 0.00751629 0)
(1.01484 0.0115841 0)
(1.01592 0.0159844 0)
(1.01734 0.0201701 0)
(1.01904 0.0255645 0)
(1.02109 0.0290727 0)
(1.02359 0.0374575 0)
(1.02604 0.0377879 0)
(1.03008 0.0530876 0)
(1.03214 0.0478661 0)
(1.03903 0.0703489 0)
(1.03991 0.0653937 0)
(1.04995 0.0886153 0)
(1.04862 -0.0182371 0)
(1.0498 -0.0189877 0)
(1.04994 -0.0198064 0)
(1.04951 -0.0206148 0)
(1.0481 -0.0213596 0)
(1.04653 -0.0219901 0)
(1.04523 -0.0224895 0)
(1.04316 -0.0228688 0)
(1.04146 -0.0231339 0)
(1.03974 -0.0232099 0)