/*--------------------------------*- C++ -*----------------------------------*\
| =========                 |                                                 |
| \\      /  F ield         | OpenFOAM: The Open Source CFD Toolbox           |
|  \\    /   O peration     | Version:  2312                                  |
|   \\  /    A nd           | Website:  www.openfoam.com                      |
|    \\/     M anipulation  |                                                 |
\*---------------------------------------------------------------------------*/
FoamFile
{
    version     2.0;
    format      ascii;
    arch        "LSB;label=32;scalar=64";
    class       surfaceScalarField;
    location    "81.45";
    object      phi;
}
// * * * * * * * * * * * * * * * * * * * * * * * * * * * * * * * * * * * * * //

dimensions      [0 3 -1 0 0 0 0];

oriented        oriented;

internalField   nonuniform List<scalar> 
10785
(
0.000872808
0.00300638
-0.00387919
0.00423604
0.00216508
-0.00552831
0.0118334
-0.00608247
-0.0015149
0.0260192
-0.0225929
0.00840714
0.0477674
-0.0464087
0.0246605
0.075082
-0.0739329
0.0466184
0.103927
-0.100743
0.0718981
0.130168
-0.123518
0.0972773
0.150961
-0.140604
0.119811
0.165563
-0.152132
0.137529
0.174708
-0.159217
0.150073
0.18084
-0.163519
0.157387
0.186145
-0.167072
0.161767
0.191056
-0.169129
0.164219
-0.172406
0.164781
0.198681
0.000701131
0.00230525
0.00531565
-0.00244944
0.0169704
-0.0177372
0.0374967
-0.0431193
0.064465
-0.073377
0.0926053
-0.102073
0.117039
-0.125177
0.135054
-0.141533
0.146593
-0.152143
0.153458
-0.158997
0.158271
-0.16403
0.163462
-0.16871
0.16972
-0.17333
0.178569
-0.177978
-0.183849
0.190012
0.00111319
0.00119206
0.00837518
-0.00971143
0.0254978
-0.0348598
0.0506503
-0.0682717
0.0772915
-0.100018
0.0996835
-0.124465
0.115352
-0.140845
0.124998
-0.151179
0.131027
-0.158173
0.135928
-0.163897
0.141279
-0.169381
0.147414
-0.174846
0.154299
-0.180215
0.162076
-0.185754
-0.191139
0.169366
0.00212398
-0.000931915
0.0133378
-0.0209252
0.0349625
-0.0564846
0.0598049
-0.0931141
0.0807497
-0.120963
0.0951328
-0.138848
0.104009
-0.149721
0.109836
-0.157007
0.114622
-0.162958
0.119275
-0.16855
0.123934
-0.17404
0.128663
-0.179574
0.133785
-0.185338
0.139454
-0.191423
-0.198035
0.14635
0.00364274
-0.00457466
0.0189373
-0.0362198
0.0414284
-0.0789757
0.0616659
-0.113352
0.0757334
-0.135031
0.0843749
-0.14749
0.0898394
-0.155185
0.0938687
-0.161036
0.0972963
-0.166386
0.10049
-0.171744
0.103792
-0.177342
0.107534
-0.183317
0.111825
-0.189629
0.116823
-0.196421
-0.203443
0.122231
0.00561059
-0.0101852
0.0233172
-0.0539263
0.0429666
-0.0986252
0.0574744
-0.127859
0.0662759
-0.143832
0.0713189
-0.152533
0.0744585
-0.158325
0.0767997
-0.163377
0.0789345
-0.168521
0.0811974
-0.174007
0.0837213
-0.179866
0.086475
-0.18607
0.0894768
-0.192631
0.0926124
-0.199556
-0.206647
0.095816
0.00759404
-0.0177793
0.0250349
-0.0713672
0.0402986
-0.113889
0.0497971
-0.137358
0.054732
-0.148767
0.0571887
-0.154989
0.0586156
-0.159752
0.0597301
-0.164492
0.0607832
-0.169574
0.0618132
-0.175037
0.0628439
-0.180896
0.0639759
-0.187202
0.0652949
-0.19395
0.0668413
-0.201103
-0.208576
0.0687709
0.00894295
-0.0267222
0.0239956
-0.0864199
0.0348662
-0.124759
0.0403364
-0.142828
0.0424283
-0.150859
0.0429909
-0.155552
0.0429875
-0.159748
0.0427424
-0.164247
0.0423582
-0.16919
0.0419228
-0.174601
0.0415302
-0.180504
0.041232
-0.186904
0.0410556
-0.193774
0.0410225
-0.20107
0.0411373
-0.208691
-0.00254567
0.00297782
-0.000432153
-0.0076262
-0.000383795
0.00546433
-0.0143291
-0.00481806
0.011521
-0.0221876
-0.00913286
0.0169914
-0.0309095
-0.0144615
0.0231833
-0.0402255
-0.0215696
0.0308856
-0.0497157
-0.0306295
0.0401196
-0.0587477
-0.0415558
0.0505878
-0.0664887
-0.0539805
0.0617215
-0.0719507
-0.0671409
0.072603
-0.0740689
-0.0798323
0.0819505
-0.0717641
-0.0904601
0.0881553
-0.0641797
-0.0971424
0.089558
-0.050857
-0.0980295
0.0847068
-0.0927445
-0.0311792
0.0730667
-0.0025961
0.00557392
-0.00782895
0.00484905
-0.0145488
0.00190175
-0.0223701
-0.00131147
-0.0311256
-0.00570598
-0.0407119
-0.0119833
-0.0508865
-0.0204549
-0.0612681
-0.0311742
-0.0713635
-0.043885
-0.080574
-0.0579305
-0.088146
-0.0722602
-0.0930709
-0.0855352
-0.0942876
-0.0959257
-0.0911615
-0.101156
-0.102342
-0.081564
-0.00192231
0.00749623
-0.00618411
0.00911085
-0.0117378
0.00745548
-0.0179804
0.00493107
-0.0246737
0.000987321
-0.0318708
-0.00478617
-0.0392449
-0.0130808
-0.0464745
-0.0239446
-0.0532951
-0.0370644
-0.0595973
-0.0516283
-0.065397
-0.0664605
-0.0705626
-0.0803696
-0.0733393
-0.093149
-0.0762273
-0.0982675
-0.105696
-0.0728734
-0.000822633
0.00831886
-0.00337177
0.01166
-0.0067708
0.0108545
-0.0103678
0.00852807
-0.0138838
0.00450331
-0.0168165
-0.0018535
-0.0188748
-0.0110224
-0.0195105
-0.0233089
-0.0183438
-0.0382311
-0.0152932
-0.054679
-0.0108001
-0.0709536
-0.00554051
-0.0856292
-0.0017601
-0.0969295
0.00379774
-0.103825
-0.107227
0.00532909
0.000344044
0.00797482
-0.000195679
0.0121997
-0.00107773
0.0117366
-0.00152895
0.0089793
-0.000992713
0.00396708
0.00112896
-0.00397517
0.00564125
-0.0155347
0.013064
-0.0307316
0.0235905
-0.0487576
0.0370652
-0.0681537
0.0525289
-0.0864173
0.0695029
-0.102603
0.0873096
-0.114736
0.103549
-0.120065
-0.126199
0.122521
0.00121794
0.00675688
0.00248192
0.0109357
0.00405126
0.0101672
0.00679403
0.00623653
0.011571
-0.000809866
0.0194368
-0.011841
0.0311151
-0.0272131
0.0468631
-0.0464796
0.0662768
-0.0681713
0.0880567
-0.0899336
0.110929
-0.109289
0.133476
-0.125151
0.154725
-0.135985
0.176222
-0.141561
-0.146303
0.196326
0.00155113
0.00520575
0.00400355
0.0084833
0.00753362
0.00663716
0.0131148
0.000655364
0.0223411
-0.0100362
0.036282
-0.0257818
0.0553543
-0.0462854
0.0786434
-0.0697687
0.104233
-0.0937609
0.129637
-0.115337
0.153288
-0.13294
0.173655
-0.145518
0.190437
-0.152768
0.206276
-0.157399
-0.156921
0.216894
0.00132656
0.00428156
0.00940381
0.0184663
0.0330906
0.0539271
0.0795399
0.107048
0.133098
0.155291
0.172423
0.184292
0.193291
0.20011
0.20797
0.0261308
-0.143493
0.0861826
0.0858977
0.0235435
-0.0833104
0.138705
0.199478
-0.252286
0.180318
0.309025
-0.350638
0.177247
0.352969
-0.349898
0.142604
0.409637
-0.374994
0.151808
0.329856
-0.33906
0.193912
0.0613314
-0.103435
0.234452
-0.191278
0.150737
0.258267
-0.295329
0.271514
0.248832
-0.298872
0.308307
0.230061
-0.350231
0.369001
0.230219
-0.371696
0.371539
0.246628
-0.268114
0.251705
0.265838
-0.0665992
0.0473893
0.278013
0.210563
-0.222738
0.287346
0.417289
-0.426623
0.293188
0.494872
-0.500714
0.297723
0.405107
-0.409642
0.298206
0.0627908
-0.0632744
0.296616
-0.37725
0.378841
0.298326
-0.60134
0.59963
0.30412
-0.478121
0.472327
0.313607
0.0317541
-0.0412405
0.31582
0.650146
-0.65236
0.304642
0.671206
-0.660029
0.279256
-0.0213888
0.0467747
0.276897
-0.567644
0.570004
0.284579
-0.254493
0.246811
0.269689
0.336796
-0.321906
0.238285
0.396745
-0.365342
0.217114
0.0408361
-0.0196654
0.224088
-0.249853
0.242879
0.237937
-0.0488002
0.034951
0.240201
0.191309
-0.193572
0.222246
0.36073
-0.342775
0.20211
0.155283
-0.135147
-0.177161
0.179783
-0.0397394
-0.185317
0.0369943
-0.0531902
0.120599
0.115873
0.17707
0.252554
0.173295
0.356744
0.155297
0.427635
0.182437
0.302716
0.219003
0.0247657
0.242987
-0.215261
0.259509
-0.311851
0.248441
-0.287804
0.228943
-0.330732
0.232789
-0.375542
0.246547
-0.281872
0.263133
-0.083185
0.278502
0.195194
0.289005
0.406786
0.294754
0.489124
0.300436
0.399426
0.296581
0.0666451
0.288114
-0.368782
0.286784
-0.600011
0.293135
-0.484472
0.309734
0.0151555
0.320791
0.639089
0.311024
0.680974
0.279239
0.0103955
0.273305
-0.56171
0.285414
-0.266602
0.274404
0.347806
0.243301
0.427848
0.220609
0.063528
0.226976
-0.25622
0.240754
-0.0625784
0.243647
0.188416
0.22675
0.377627
0.206474
0.175559
-0.173746
-0.0642059
-0.193985
-0.00167678
-0.115719
0.0892877
0.0249086
0.153651
0.188191
0.162624
0.347771
0.172119
0.418141
0.21269
0.262145
0.243032
-0.00557613
0.249878
-0.222108
0.256372
-0.318344
0.243772
-0.275204
0.220081
-0.307042
0.227508
-0.382969
0.243882
-0.298246
0.258201
-0.0975042
0.276703
0.176691
0.289251
0.394237
0.294505
0.48387
0.300187
0.393744
0.292358
0.0744739
0.276516
-0.35294
0.271582
-0.595077
0.278079
-0.490969
0.301564
-0.00832954
0.32236
0.618293
0.314437
0.688897
0.277043
0.0477894
0.266726
-0.551392
0.283578
-0.283454
0.277742
0.353642
0.247695
0.457895
0.223375
0.0878481
0.228886
-0.261732
0.242808
-0.0765006
0.24662
0.184604
0.231167
0.39308
0.211009
0.195717
-0.169684
-0.0283758
-0.16028
-0.012269
-0.131826
0.057262
-0.0446224
0.124052
0.121401
0.156416
0.315406
0.192089
0.382468
0.237418
0.216816
0.263303
-0.0314608
0.25652
-0.215325
0.252251
-0.314074
0.243209
-0.266163
0.212481
-0.276313
0.214787
-0.385275
0.237847
-0.321306
0.25354
-0.113196
0.271857
0.158374
0.282969
0.383125
0.287691
0.479149
0.294575
0.38686
0.285021
0.0840278
0.263118
-0.331038
0.254397
-0.586356
0.260539
-0.497111
0.288886
-0.0366765
0.318387
0.588792
0.313328
0.693956
0.272661
0.0884563
0.257994
-0.536726
0.279199
-0.304658
0.279393
0.353447
0.251115
0.486174
0.225275
0.113688
0.229819
-0.266276
0.244173
-0.0908555
0.249061
0.179717
0.235244
0.406897
0.215518
0.215444
-0.165219
0.0730047
-0.110764
0.0356544
-0.0944758
0.0571868
-0.0661548
0.119915
0.0586729
0.17535
0.259972
0.22316
0.334657
0.261994
0.177982
0.279454
-0.0489202
0.260998
-0.19687
0.242743
-0.295819
0.237809
-0.261228
0.205303
-0.243808
0.195556
-0.375528
0.223448
-0.349198
0.244894
-0.134643
0.265563
0.137705
0.277479
0.37121
0.281127
0.4755
0.28719
0.380796
0.27528
0.0959379
0.248102
-0.30386
0.235222
-0.573476
0.240562
-0.50245
0.272899
-0.0690138
0.311596
0.550096
0.30998
0.695571
0.266613
0.131824
0.24749
-0.517603
0.272518
-0.329686
0.279361
0.346604
0.253489
0.512046
0.226253
0.140924
0.229782
-0.269805
0.244887
-0.10596
0.250931
0.173673
0.238835
0.418993
0.219897
0.234382
-0.160634
0.170624
-0.0850619
0.131421
-0.0552725
0.109948
-0.044682
0.139039
0.0295816
0.197841
0.20117
0.250545
0.281953
0.280798
0.147728
0.28649
-0.0546119
0.26049
-0.17087
0.230248
-0.265577
0.225917
-0.256897
0.198338
-0.216228
0.174835
-0.352025
0.201269
-0.375632
0.231644
-0.165017
0.255627
0.113721
0.266448
0.36039
0.268852
0.473095
0.275864
0.373785
0.264108
0.107694
0.232633
-0.272385
0.215444
-0.556288
0.220139
-0.507145
0.253711
-0.102586
0.299009
0.504797
0.30148
0.6931
0.257865
0.175439
0.23543
-0.495167
0.263534
-0.35779
0.277518
0.33262
0.254599
0.534965
0.226288
0.169236
0.228791
-0.272308
0.244915
-0.122085
0.252216
0.166372
0.241916
0.429293
0.224126
0.252172
-0.156214
0.200888
-0.0690559
0.189089
-0.043474
0.176116
-0.0317085
0.188769
0.0169283
0.23187
0.158069
0.279315
0.234508
0.296447
0.130597
0.286089
-0.0442545
0.25351
-0.138291
0.216404
-0.228472
0.208919
-0.249411
0.188165
-0.195475
0.156471
-0.32033
0.173073
-0.392234
0.212682
-0.204626
0.245164
0.0812392
0.258228
0.347326
0.258816
0.472507
0.264585
0.368016
0.252134
0.120145
0.217132
-0.237383
0.195525
-0.53468
0.198542
-0.510162
0.23328
-0.137323
0.285975
0.452102
0.292705
0.68637
0.248189
0.219955
0.222624
-0.469602
0.252705
-0.387871
0.273926
0.311399
0.254301
0.554589
0.225305
0.198232
0.226819
-0.273822
0.244214
-0.13948
0.252897
0.157688
0.244488
0.437702
0.228207
0.268453
-0.152226
0.195413
-0.0564993
0.189608
-0.0376689
0.188401
-0.0305009
0.200674
0.00465452
0.245697
0.113046
0.293608
0.186597
0.305215
0.11899
0.284241
-0.0232803
0.247121
-0.10117
0.205448
-0.1868
0.192971
-0.236934
0.175587
-0.178091
0.13962
-0.284363
0.144067
-0.396681
0.185021
-0.24558
0.22455
0.0417097
0.243391
0.328485
0.244544
0.471354
0.25109
0.36147
0.241088
0.130147
0.202436
-0.198732
0.176308
-0.508552
0.17713
-0.510984
0.209938
-0.170131
0.266118
0.395921
0.278197
0.674291
0.236891
0.261261
0.208929
-0.441641
0.239948
-0.418889
0.268575
0.282772
0.25287
0.570294
0.223549
0.227553
0.224067
-0.27434
0.242699
-0.158112
0.252978
0.14741
0.246659
0.444021
0.232168
0.282944
-0.148882
0.406646
-0.0329409
-0.430204
0.388265
-0.0192873
0.372044
-0.0142803
0.360934
0.0157643
0.389301
0.0846799
0.462456
0.113441
0.51215
0.0692967
0.517099
-0.0282296
0.499746
-0.0838172
0.466587
-0.153641
0.436329
-0.206676
0.414732
-0.156495
0.384599
-0.25423
0.354347
-0.366429
0.334198
-0.225431
0.310842
0.0650651
0.281109
0.358218
0.287871
0.464592
0.360498
0.288843
0.415579
0.0750664
0.41364
-0.196793
0.383793
-0.478706
0.337734
-0.464925
0.310047
-0.142444
0.340928
0.36504
0.380554
0.634665
0.385745
0.25607
0.370685
-0.426581
0.382306
-0.43051
0.391996
0.273082
0.37383
0.58846
0.351796
0.249587
0.358137
-0.280681
0.374709
-0.174683
0.379692
0.142427
0.369737
0.453975
0.351464
0.301217
-0.140574
0.449291
-0.0157158
-0.466516
0.437348
-0.00734412
0.426449
-0.00338111
0.427771
0.014442
0.458928
0.0535225
0.508907
0.0634622
0.539018
0.0391863
0.537267
-0.0264791
0.518563
-0.065113
0.490138
-0.125215
0.454968
-0.171507
0.428234
-0.129761
0.406387
-0.232382
0.372057
-0.332099
0.33436
-0.187734
0.304578
0.0948475
0.279935
0.38286
0.310156
0.434371
0.40301
0.195989
0.461146
0.0169308
0.447664
-0.183311
0.40477
-0.435811
0.347727
-0.407882
0.307884
-0.1026
0.341559
0.331364
0.400638
0.575586
0.417761
0.238947
0.401329
-0.41015
0.41301
-0.442191
0.42609
0.260002
0.410426
0.604124
0.390713
0.2693
0.39854
-0.288508
0.41624
-0.192383
0.421233
0.137434
0.413151
0.462058
0.396415
0.317953
-0.13103
0.496328
-0.00450835
-0.507535
0.489294
-0.000310719
0.482834
0.00307908
0.485648
0.0116281
0.508676
0.0304947
0.539626
0.0325123
0.558354
0.0204576
0.560944
-0.0290687
0.548701
-0.0528704
0.523564
-0.100078
0.498143
-0.146085
0.48144
-0.113058
0.449655
-0.200597
0.381873
-0.264316
0.317036
-0.122897
0.288907
0.122977
0.297374
0.374392
0.363374
0.368371
0.45872
0.100643
0.510742
-0.0350904
0.496104
-0.168674
0.435736
-0.375442
0.352624
-0.324771
0.298303
-0.0482791
0.3459
0.283767
0.434932
0.486555
0.46002
0.213859
0.436351
-0.38648
0.44688
-0.45272
0.464097
0.242785
0.451232
0.616989
0.433569
0.286963
0.442562
-0.2975
0.461771
-0.211593
0.467389
0.131816
0.462538
0.466909
0.448263
0.332228
-0.119985
0.544329
0.00218862
-0.551026
0.539505
0.00451378
0.537727
0.00485702
0.541244
0.0081114
0.554163
0.0175749
0.575066
0.0116097
0.586852
0.00867202
0.585356
-0.0275731
0.576719
-0.0442335
0.554358
-0.0777175
0.52442
-0.116146
0.500321
-0.0889594
0.469273
-0.169549
0.395797
-0.190841
0.313676
-0.0407764
0.305518
0.131136
0.367307
0.312602
0.460954
0.274725
0.533706
0.0278919
0.560872
-0.0622572
0.536113
-0.143914
0.462867
-0.302197
0.351738
-0.213641
0.287322
0.0161365
0.364913
0.206176
0.485982
0.365486
0.515093
0.184747
0.479047
-0.350433
0.481086
-0.454759
0.499012
0.224859
0.49225
0.623751
0.481448
0.297764
0.492012
-0.308064
0.512211
-0.231791
0.519371
0.124655
0.519205
0.467075
0.507903
0.343531
-0.107104
0.594115
0.00561497
-0.597542
0.592417
0.00621249
0.591757
0.00551678
0.595013
0.00485523
0.602667
0.00992057
0.61382
0.000457422
0.62101
0.00148162
0.620165
-0.026728
0.61292
-0.0369882
0.595091
-0.0598889
0.575781
-0.096836
0.548438
-0.0616172
0.503257
-0.124367
0.440881
-0.128465
0.381139
0.0189659
0.398281
0.113994
0.488726
0.222157
0.57306
0.190391
0.611048
-0.0100965
0.612917
-0.064126
0.585756
-0.116753
0.515941
-0.232382
0.39651
-0.0942109
0.323728
0.0889187
0.410088
0.119816
0.551691
0.223884
0.584245
0.152192
0.530787
-0.296975
0.518739
-0.442711
0.538658
0.20494
0.541033
0.621376
0.537568
0.301229
0.546495
-0.316991
0.565379
-0.250675
0.574634
0.115401
0.58188
0.459829
0.575278
0.350133
-0.0924577
0.647167
0.00711113
-0.648663
0.646949
0.0064298
0.64679
0.00567621
0.649222
0.00242292
0.653455
0.00568752
0.658759
-0.00484688
0.663263
-0.00302162
0.658983
-0.0224478
0.653841
-0.0318471
0.635374
-0.0414218
0.613239
-0.0747012
0.596785
-0.0451627
0.559927
-0.0875093
0.515338
-0.0838762
0.487952
0.0463524
0.52238
0.0795654
0.609578
0.134959
0.665644
0.134325
0.673165
-0.0176174
0.656113
-0.0470743
0.619384
-0.0800242
0.566451
-0.179449
0.485799
-0.0135585
0.430133
0.144584
0.492284
0.0576644
0.620424
0.095744
0.659667
0.112949
0.592544
-0.229852
0.555799
-0.405966
0.578726
0.182012
0.595393
0.60471
0.602469
0.294153
0.607022
-0.321545
0.622095
-0.265748
0.63531
0.102186
0.652699
0.442439
0.651328
0.351504
-0.0756036
0.703325
0.00749524
-0.70371
0.703854
0.00590161
0.70409
0.00544001
0.705303
0.00120996
0.707902
0.003088
0.708871
-0.00581572
0.711186
-0.00533613
0.705753
-0.0170155
0.700969
-0.0270624
0.687881
-0.0283345
0.669199
-0.0560189
0.656483
-0.0324463
0.62188
-0.0529069
0.592869
-0.0548646
0.596745
0.0424761
0.626821
0.0494892
0.685342
0.0764376
0.724607
0.0950603
0.726901
-0.0199107
0.71131
-0.0314839
0.669939
-0.0386534
0.623258
-0.132767
0.597761
0.0119386
0.585688
0.156657
0.611994
0.0313585
0.691579
0.0161589
0.729018
0.0755108
0.661025
-0.161859
0.588036
-0.332977
0.598416
0.171632
0.646763
0.556364
0.678703
0.262212
0.67507
-0.317911
0.678523
-0.269201
0.695623
0.0850856
0.726447
0.411615
0.732411
0.34554
-0.0573085
0.763612
0.00710797
-0.763225
0.764183
0.00533141
0.764714
0.0049086
0.764822
0.00110184
0.76634
0.00157021
0.765179
-0.00465481
0.76583
-0.00598694
0.760972
-0.0121579
0.754938
-0.0210283
0.745804
-0.0192005
0.727692
-0.0379067
0.719031
-0.0237853
0.697051
-0.030927
0.676905
-0.0347187
0.690148
0.0292328
0.709783
0.0298547
0.745591
0.0406294
0.775503
0.0651484
0.768653
-0.0130602
0.760199
-0.0230298
0.73515
-0.0136047
0.69316
-0.0907775
0.695721
0.00937751
0.718465
0.133913
0.724284
0.0255393
0.75288
-0.0124372
0.779785
0.0486061
0.723914
-0.105989
0.630078
-0.23914
0.634756
0.166954
0.725138
0.465982
0.777846
0.209504
0.752874
-0.29294
0.734863
-0.25119
0.754999
0.0649498
0.802921
0.363694
0.817876
0.330586
-0.0378799
0.828715
0.00642749
-0.828035
0.829144
0.00490275
0.829694
0.00435834
0.8293
0.00149562
0.829862
0.00100873
0.828129
-0.00292161
0.827141
-0.00499924
0.82303
-0.00804674
0.816929
-0.0149274
0.810629
-0.0129008
0.797159
-0.0244366
0.790184
-0.0168104
0.776772
-0.0175151
0.76236
-0.0203066
0.775396
0.016197
0.787292
0.0179591
0.8059
0.022021
0.831403
0.0396459
0.826372
-0.00803013
0.818947
-0.0156041
0.805717
-0.000375099
0.769363
-0.0544235
0.774297
0.00444373
0.809276
0.0989342
0.812258
0.0225576
0.813956
-0.0141357
0.829866
0.0326962
0.787389
-0.0635119
0.703449
-0.1552
0.725399
0.145004
0.842294
0.349087
0.889812
0.161986
0.832279
-0.235407
0.789375
-0.208287
0.814075
0.0402502
0.878318
0.299451
0.900168
0.308736
-0.0182753
0.899457
0.00572262
-0.898753
0.899789
0.00457083
0.900169
0.00397873
0.899638
0.00202656
0.899502
0.00114492
0.897783
-0.001203
0.896089
-0.00330534
0.892835
-0.0047922
0.887578
-0.00967085
0.882799
-0.00812111
0.873314
-0.0149519
0.867139
-0.0106353
0.85993
-0.0103062
0.850751
-0.0111275
0.85887
0.00807815
0.867376
0.00945219
0.877233
0.0121642
0.894565
0.0223145
0.890479
-0.00394428
0.88395
-0.00907565
0.880365
0.00321033
0.855003
-0.0290616
0.854433
0.00501359
0.885235
0.0681319
0.887456
0.0203371
0.8782
-0.00487991
0.889183
0.0217136
0.861692
-0.0360213
0.801487
-0.0949954
0.838628
0.107863
0.951444
0.236271
0.984454
0.128976
0.906475
-0.157427
0.841697
-0.143509
0.863048
0.018899
0.936316
0.226183
0.969271
0.275781
-0.00514667
0.97678
0.00509555
-0.976153
0.977047
0.00430378
0.977246
0.00377974
0.97674
0.00253304
0.976263
0.00162141
0.974783
0.000277115
0.973006
-0.00152812
0.97034
-0.00212689
0.966254
-0.00558413
0.962458
-0.00432566
0.956157
-0.00865105
0.951572
-0.00605042
0.947231
-0.00596431
0.941991
-0.00588822
0.946321
0.00374873
0.951551
0.00422192
0.957081
0.00663393
0.967919
0.0114773
0.96625
-0.0022754
0.96151
-0.00433616
0.9599
0.00482084
0.944099
-0.0132608
0.940834
0.00827873
0.962779
0.0461871
0.96611
0.0170058
0.955651
0.005579
0.961644
0.0157204
0.946192
-0.0205692
0.906527
-0.05533
0.939388
0.0750012
1.02974
0.145919
1.05552
0.103198
0.981192
-0.0831014
0.909105
-0.0714219
0.921797
0.00620774
0.99506
0.152919
1.03968
0.23116
-0.0009151
1.06151
0.00460291
-1.06102
1.06171
0.00409974
1.06181
0.00368552
1.06138
0.00295699
1.06085
0.00215737
1.05963
0.00149136
1.05809
1.01676e-05
1.05604
-6.81796e-05
1.05301
-0.00255916
1.05021
-0.00153005
1.04606
-0.00449501
1.04274
-0.00273082
1.04003
-0.00325279
1.03705
-0.00290556
1.03913
0.00166142
1.04203
0.00131965
1.0453
0.00336632
1.05154
0.00523957
1.05007
-0.000808898
1.04745
-0.00170966
1.04705
0.00522202
1.03755
-0.00376814
1.03551
0.0103247
1.04898
0.0327119
1.05043
0.0155557
1.04269
0.0133165
1.0464
0.0120154
1.03794
-0.0121089
1.01389
-0.0312787
1.03926
0.0496336
1.10247
0.0827021
1.11962
0.0860532
1.0626
-0.0260824
1.00617
-0.0149891
1.01773
-0.00535342
1.081
0.089649
1.12371
0.188445
0.000704352
1.1544
0.0041948
-1.15399
1.1546
0.00390128
1.15467
0.00361679
1.15438
0.00324513
1.15392
0.00261288
1.15303
0.00238405
1.15184
0.00120282
1.15032
0.00145029
1.14823
-0.000468341
1.14619
0.000504306
1.1435
-0.00179871
1.14124
-0.00046909
1.13945
-0.00146571
1.13771
-0.00116781
1.13858
0.000794436
1.13999
-9.21421e-05
1.14165
0.00170265
1.14523
0.00166611
1.14442
-2.66644e-06
1.14291
-0.000193694
1.14308
0.00504634
1.13726
0.00205006
1.13598
0.0116063
1.14403
0.0246638
1.14452
0.0150693
1.14009
0.0177425
1.14269
0.00941125
1.13765
-0.00706302
1.1238
-0.0174337
1.14385
0.0295868
1.18612
0.040427
1.19612
0.0760591
1.15595
0.0140909
1.12171
0.0192507
1.13467
-0.0183163
1.18195
0.0423705
1.21511
0.155282
0.00242757
1.25635
0.00383255
-1.25599
1.25656
0.00369518
1.25664
0.00352837
1.25649
0.00339977
1.25618
0.00292064
1.25559
0.00298052
1.25476
0.00202769
1.25372
0.00248928
1.25233
0.000920944
1.25095
0.00188794
1.24923
-7.70361e-05
1.24774
0.0010185
1.24654
-0.000263745
1.24547
-0.000102773
1.24567
0.000601509
1.24632
-0.000746082
1.24704
0.000982442
1.24889
-0.000184162
1.24843
0.000461928
1.24752
0.000706951
1.24785
0.00472142
1.24473
0.005173
1.24406
0.0122712
1.24859
0.0201362
1.24852
0.0151375
1.24635
0.0199125
1.24849
0.00727441
1.24595
-0.00452463
1.23936
-0.0108426
1.25533
0.013612
1.28154
0.0142199
1.28602
0.0715765
1.26024
0.0398726
1.24378
0.0357103
1.25586
-0.0303932
1.28539
0.0128364
1.30974
0.130933
0.00262568
1.36816
0.003492
-1.36782
1.36839
0.00346276
1.36854
0.00338103
1.36852
0.00341817
1.36838
0.00305984
1.36805
0.00330679
1.36756
0.00252346
1.36693
0.0031216
1.36607
0.00178093
1.3652
0.00275264
1.36414
0.000984251
1.3632
0.00195737
1.36239
0.000543277
1.36173
0.000564311
1.36164
0.000692989
1.36183
-0.000940456
1.36203
0.000777626
1.3629
-0.00104777
1.36267
0.000687635
1.36215
0.00122683
1.36255
0.00432797
1.36097
0.00674682
1.36083
0.0124155
1.36346
0.017506
1.36337
0.0152246
1.3631
0.0201878
1.36489
0.00547777
1.36381
-0.00344499
1.36127
-0.00829623
1.37341
0.00147171
1.3885
-0.000876465
1.39123
0.0688504
1.37697
0.054127
1.37146
0.0412222
1.37898
-0.0379098
1.39473
-0.00291338
1.41442
0.11124
0.00139488
1.49073
0.00313188
-1.49037
1.49101
0.00318213
1.49124
0.00315491
1.49135
0.00330948
1.49137
0.00303472
1.49128
0.00340362
1.49106
0.00274538
1.49076
0.00342183
1.49028
0.00225312
1.48981
0.00322215
1.4892
0.0015989
1.48865
0.0025024
1.48815
0.00104301
1.48772
0.000998974
1.48755
0.000860641
1.48753
-0.000917874
1.4875
0.000808816
1.48786
-0.00140839
1.48769
0.00086016
1.48745
0.00146394
1.48784
0.00394146
1.48712
0.00745799
1.48759
0.0119472
1.4893
0.0158008
1.48934
0.0151809
1.4903
0.019228
1.49206
0.00371718
1.49178
-0.00316788
1.49161
-0.00812259
1.5008
-0.00771572
1.50818
-0.00826252
1.51003
0.0670096
1.50435
0.0598023
1.50576
0.0398075
1.50903
-0.0411764
1.51518
-0.00906303
1.53198
0.0944427
-0.00067094
1.62503
0.00272662
-1.62462
1.62537
0.00283525
1.6257
0.00283003
1.62594
0.00307102
1.62613
0.00284177
1.62623
0.00329791
1.62625
0.00272872
1.62623
0.00344672
1.62605
0.00243179
1.62591
0.00335602
1.62559
0.00192477
1.62537
0.00272351
1.62505
0.00136351
1.62477
0.00127361
1.6246
0.00103714
1.62438
-0.000703223
1.62423
0.000956148
1.62423
-0.00140334
1.62399
0.00109441
1.62397
0.00148303
1.62437
0.0035472
1.62432
0.00750277
1.62559
0.0106776
1.62709
0.014309
1.62783
0.0144415
1.62999
0.0170591
1.63119
0.00251879
1.63091
-0.00288484
1.63155
-0.00876649
1.63697
-0.0131285
1.63867
-0.00996509
1.64276
0.0629161
1.645
0.0575637
1.6501
0.0347129
1.64708
-0.0381643
1.64831
-0.0102878
1.66568
0.077072
-0.0025038
1.77212
0.00224992
-1.77164
1.77255
0.00239966
1.77299
0.0023883
1.77337
0.00269755
1.77373
0.00248038
1.77402
0.00300633
1.77425
0.00249794
1.77447
0.0032323
1.77452
0.00238103
1.77467
0.00320563
1.77453
0.00206454
1.77458
0.0026703
1.77435
0.00159416
1.7742
0.00142865
1.77402
0.00121728
1.77358
-0.000267255
1.7734
0.00113677
1.77301
-0.00101305
1.77269
0.00141352
1.77284
0.00132947
1.77318
0.00321191
1.7738
0.00688479
1.77592
0.00854862
1.7775
0.0127332
1.77936
0.0125866
1.7825
0.0139168
1.78291
0.00210694
1.78245
-0.00242975
1.78351
-0.00982134
1.78488
-0.0144951
1.78175
-0.0068384
1.78916
0.055505
1.79861
0.0481099
1.80497
0.0283611
1.79563
-0.0288264
1.79467
-0.0093288
1.81397
0.057776
-0.00365075
1.93277
0.00170587
-1.93223
1.93335
0.00182153
1.93393
0.00180811
1.93455
0.00207844
1.93514
0.00189169
1.93577
0.00237258
1.93631
0.00196028
1.93693
0.00261314
1.93729
0.00201359
1.93785
0.00264872
1.9379
0.00201299
1.93823
0.00233738
1.93795
0.00187976
1.93769
0.00168944
1.93727
0.0016352
1.93609
0.000916171
1.93568
0.00154776
1.93426
0.00040634
1.93369
0.00198147
1.93377
0.00124671
1.93398
0.00300186
1.93608
0.00478495
1.93941
0.00522169
1.94272
0.00941803
1.94796
0.00735362
1.95235
0.00952592
1.95106
0.00339309
1.94902
-0.000392876
1.94625
-0.00704977
1.93726
-0.00550496
1.92967
0.000750794
1.94868
0.0365001
1.97065
0.0261423
1.9777
0.0213082
1.95902
-0.0101504
1.95632
-0.00662919
1.97816
0.0359367
-0.00323434
2.10908
0.00127404
-2.10865
2.10959
0.00131562
2.11007
0.00132787
2.11069
0.0014548
2.11122
0.00136872
2.11196
0.00162935
2.11251
0.00141543
2.11332
0.00179741
2.11383
0.00150349
2.1146
0.00188228
2.11497
0.00163713
2.11548
0.00183562
2.11562
0.00173345
2.11557
0.00173735
2.11551
0.00170232
2.11475
0.00167687
2.1146
0.00169683
2.11352
0.00148067
2.11344
0.00206436
2.11324
0.0014417
2.11374
0.00251163
2.11569
0.00283328
2.11803
0.00287976
2.12207
0.00537186
2.12645
0.00297891
2.13014
0.00583783
2.13003
0.0035002
2.12736
0.00227551
2.12174
-0.00142929
2.11239
0.00384885
2.109
0.0041353
2.12792
0.017588
2.14632
0.00773472
2.15456
0.0130723
2.14357
0.000841229
2.13742
-0.000481964
2.14998
0.0233816
-0.00284575
2.30265
0.000915947
-2.30229
2.30303
0.000932978
2.3034
0.00095992
2.30385
0.00100301
2.30423
0.000995113
2.30477
0.001086
2.30516
0.00102497
2.30578
0.00117679
2.30622
0.00105868
2.30685
0.0012604
2.30738
0.00110202
2.30791
0.0013075
2.30849
0.00115085
2.30893
0.0013014
2.30942
0.00120816
2.30985
0.00124818
2.31025
0.0012987
2.31054
0.00119333
2.31114
0.00146276
2.31123
0.00135403
2.31204
0.00170227
2.31286
0.00200735
2.31369
0.00204898
2.31608
0.00298271
2.31699
0.00206968
2.31912
0.00371264
2.32086
0.00175102
2.32047
0.00266923
2.31805
0.000992664
2.31826
0.00363349
2.32011
0.00229442
2.32754
0.0101565
2.33145
0.00382652
2.3383
0.00621514
2.33897
0.000169136
2.33514
0.00335538
2.3413
0.017214
-0.00259493
2.5142
0.000468343
-2.51375
2.51465
0.000477075
2.51512
0.000492855
2.51561
0.000511075
2.51609
0.000514254
2.51663
0.000551074
2.51712
0.000534423
2.5177
0.000596375
2.5182
0.000559096
2.51881
0.000643975
2.51932
0.000592679
2.51994
0.000685409
2.52046
0.000632317
2.52105
0.000718801
2.52158
0.000675889
2.52208
0.000743739
2.52265
0.000729077
2.52309
0.000752831
2.52375
0.000808016
2.52431
0.000790715
2.52514
0.000876346
2.52615
0.000995137
2.52731
0.000886305
2.52891
0.00138319
2.53011
0.000873098
2.5321
0.00172371
2.53283
0.0010203
2.53363
0.00186858
2.53367
0.00095025
2.53465
0.00265409
2.53547
0.00147664
2.54169
0.00393208
2.54496
0.000557364
2.54869
0.00248454
2.54751
0.0013478
2.54878
0.00209141
2.558
0.00799066
-0.000941628
2.74585
-2.74538
2.74633
2.74682
2.74733
2.74785
2.7484
2.74893
2.74953
2.75009
2.75073
2.75132
2.75201
2.75264
2.75336
2.75404
2.75478
2.75551
2.75626
2.75707
2.75786
2.75874
2.75973
2.76062
2.762
2.76288
2.7646
2.76562
2.76749
2.76844
2.77109
2.77257
2.7765
2.77706
2.77954
2.78089
2.78298
2.79097
0.425237
0.0355866
-0.419686
0.430403
0.0636048
0.434487
0.0917324
0.438936
0.117781
0.438923
0.146362
0.441912
0.166377
0.436828
0.195096
0.205304
0.454418
0.0316165
-0.450448
0.459007
0.0590162
0.461482
0.0892571
0.465141
0.114122
0.466353
0.145151
0.467781
0.164948
0.469729
0.193148
0.208517
0.489061
0.0285405
-0.485985
0.492278
0.0557983
0.495099
0.0864361
0.497788
0.111434
0.501778
0.141161
0.503408
0.163318
0.507678
0.188879
0.20866
0.527472
0.0257528
-0.524684
0.529936
0.0533344
0.533774
0.0825977
0.536555
0.108653
0.541588
0.136128
0.544405
0.1605
0.548524
0.184759
0.206158
0.570935
0.023153
-0.568335
0.573344
0.0509249
0.577306
0.0786361
0.580336
0.105623
0.584781
0.131682
0.588185
0.157097
0.593025
0.179919
0.201641
0.618893
0.0208262
-0.616566
0.621285
0.0485325
0.624717
0.0752045
0.627986
0.102354
0.632404
0.127265
0.637262
0.152239
0.643026
0.174155
0.196004
0.671588
0.0188348
-0.669597
0.67403
0.0460906
0.677296
0.0719381
0.681242
0.098408
0.686009
0.122499
0.691541
0.146706
0.697306
0.16839
0.189601
0.729545
0.0170886
-0.727799
0.732116
0.0435195
0.735344
0.0687102
0.73958
0.094172
0.744329
0.11775
0.750026
0.141009
0.756186
0.16223
0.182562
0.793088
0.0155604
-0.79156
0.795641
0.0409668
0.798876
0.0654747
0.803205
0.0898429
0.808135
0.112821
0.814078
0.135065
0.820672
0.155637
0.175199
0.862727
0.0141757
-0.861342
0.865228
0.0384659
0.868533
0.0621697
0.872898
0.0854779
0.878033
0.107685
0.884155
0.128943
0.891058
0.148733
0.167505
0.938908
0.0129125
-0.937645
0.941312
0.0360624
0.944658
0.0588229
0.949087
0.0810489
0.954464
0.102309
0.960839
0.122569
0.968066
0.141506
0.159418
1.02216
0.0117659
-1.02101
1.02451
0.0337143
1.02796
0.0553672
1.03259
0.0764187
1.03824
0.0966575
1.04491
0.1159
1.0525
0.13392
0.150901
1.11325
0.0106904
-1.11218
1.11562
0.0313503
1.1192
0.0517779
1.124
0.0716211
1.12991
0.0907473
1.13693
0.108886