/*--------------------------------*- C++ -*----------------------------------*\
| =========                 |                                                 |
| \\      /  F ield         | OpenFOAM: The Open Source CFD Toolbox           |
|  \\    /   O peration     | Version:  2312                                  |
|   \\  /    A nd           | Website:  www.openfoam.com                      |
|    \\/     M anipulation  |                                                 |
\*---------------------------------------------------------------------------*/
FoamFile
{
    version     2.0;
    format      ascii;
    arch        "LSB;label=32;scalar=64";
    class       volScalarField;
    location    "161.65";
    object      p;
}
// * * * * * * * * * * * * * * * * * * * * * * * * * * * * * * * * * * * * * //

dimensions      [0 2 -2 0 0 0 0];

internalField   nonuniform List<scalar> 
5478
(
-0.553299
-0.55148
-0.551358
-0.552657
-0.553244
-0.548881
-0.535193
-0.50969
-0.47287
-0.427817
-0.378722
-0.329004
-0.281381
-0.236281
-0.194042
-0.560753
-0.556827
-0.553768
-0.550781
-0.545224
-0.533129
-0.511931
-0.481363
-0.443399
-0.401194
-0.357697
-0.315044
-0.274585
-0.2363
-0.201232
-0.570552
-0.56473
-0.558468
-0.550273
-0.536977
-0.516376
-0.488341
-0.454394
-0.41686
-0.377996
-0.339418
-0.302245
-0.266963
-0.233926
-0.20316
-0.584612
-0.576262
-0.566032
-0.550961
-0.528543
-0.499572
-0.466165
-0.430377
-0.393841
-0.357691
-0.322698
-0.289325
-0.257885
-0.228531
-0.201371
-0.603616
-0.590951
-0.575694
-0.551702
-0.519509
-0.483253
-0.445918
-0.409006
-0.373227
-0.338972
-0.306446
-0.275808
-0.247047
-0.22035
-0.195377
-0.626629
-0.607865
-0.585083
-0.550369
-0.508823
-0.466587
-0.426235
-0.38838
-0.353024
-0.320042
-0.289341
-0.260796
-0.234325
-0.209823
-0.186721
-0.649417
-0.624877
-0.590585
-0.544084
-0.494377
-0.447433
-0.404749
-0.366164
-0.331133
-0.299211
-0.270034
-0.243331
-0.218859
-0.196448
-0.17545
-0.665903
-0.63658
-0.588287
-0.530206
-0.473808
-0.423303
-0.37904
-0.34013
-0.305622
-0.274813
-0.247159
-0.222246
-0.19982
-0.17962
-0.161134
-0.443416
-0.445886
-0.447742
-0.452076
-0.459408
-0.469725
-0.482876
-0.498468
-0.515865
-0.534349
-0.553071
-0.570861
-0.585885
-0.595716
-0.598064
-0.450334
-0.454612
-0.458012
-0.4636
-0.47157
-0.481193
-0.49137
-0.50062
-0.507379
-0.510487
-0.509272
-0.50328
-0.492416
-0.477447
-0.456339
-0.462461
-0.468029
-0.47307
-0.48032
-0.489575
-0.499406
-0.507705
-0.511739
-0.508747
-0.496817
-0.475075
-0.44343
-0.402975
-0.358099
-0.306369
-0.479392
-0.485421
-0.491829
-0.500826
-0.511684
-0.522404
-0.52991
-0.530202
-0.519372
-0.49495
-0.456141
-0.404069
-0.338235
-0.273413
-0.192367
-0.49886
-0.504859
-0.512223
-0.52227
-0.534118
-0.545392
-0.55205
-0.548909
-0.531655
-0.497777
-0.445318
-0.382508
-0.303005
-0.231121
-0.145532
-0.51785
-0.522668
-0.529704
-0.539839
-0.551573
-0.561774
-0.566613
-0.558964
-0.535474
-0.493969
-0.436657
-0.368869
-0.292478
-0.220845
-0.149869
-0.53372
-0.536745
-0.541732
-0.550412
-0.559815
-0.566915
-0.566721
-0.553779
-0.524843
-0.479586
-0.422275
-0.357792
-0.291562
-0.229289
-0.171347
-0.545123
-0.54565
-0.548596
-0.553649
-0.559172
-0.561232
-0.554745
-0.535517
-0.501846
-0.455642
-0.401539
-0.344158
-0.288229
-0.235777
-0.188388
-0.57655
-0.482777
-0.345975
-0.265949
-0.244042
-0.264455
-0.285984
-0.234997
-0.178925
-0.143039
-0.130554
-0.110281
-0.105844
-0.125846
-0.150267
-0.138195
-0.11578
-0.104973
-0.130696
-0.140566
-0.133028
-0.121255
-0.148711
-0.133875
-0.141551
-0.178835
-0.202252
-0.130373
-0.106068
-0.070931
-0.0438892
-0.0259379
-0.0127482
-0.00981926
-0.00738335
-0.00435184
-0.00227115
-0.000801849
-0.420894
-0.369874
-0.287794
-0.252722
-0.25786
-0.299815
-0.330639
-0.262807
-0.19037
-0.143968
-0.129072
-0.109866
-0.100023
-0.122249
-0.147087
-0.134254
-0.111947
-0.0957208
-0.118781
-0.131872
-0.127045
-0.130745
-0.16289
-0.140935
-0.141052
-0.154803
-0.168521
-0.136718
-0.11755
-0.0699814
-0.040543
-0.0255917
-0.0137523
-0.00990722
-0.00715219
-0.00432951
-0.0023064
-0.000803006
-0.259085
-0.221787
-0.190466
-0.20812
-0.247052
-0.320336
-0.350357
-0.277158
-0.195716
-0.142665
-0.126357
-0.113967
-0.098077
-0.120059
-0.143408
-0.130257
-0.107282
-0.0866193
-0.105653
-0.12222
-0.11909
-0.138172
-0.173207
-0.145887
-0.137927
-0.131735
-0.133954
-0.138663
-0.125728
-0.0680708
-0.0364792
-0.0249576
-0.0146541
-0.00994652
-0.00690007
-0.00429851
-0.00233951
-0.000804141
-0.126256
-0.0668634
-0.0513666
-0.122814
-0.213486
-0.31869
-0.345691
-0.276328
-0.195444
-0.140312
-0.122609
-0.118402
-0.0986761
-0.120708
-0.141423
-0.127205
-0.10223
-0.0784769
-0.0924518
-0.1121
-0.109368
-0.142602
-0.178936
-0.149194
-0.132928
-0.111399
-0.101054
-0.136472
-0.129928
-0.065793
-0.0320841
-0.0240646
-0.0153993
-0.00994467
-0.00664402
-0.00426295
-0.00236788
-0.000805317
-0.0598184
0.0235722
0.0740603
-0.0217791
-0.156283
-0.285656
-0.318482
-0.257901
-0.187445
-0.136638
-0.117976
-0.117579
-0.100013
-0.125637
-0.143003
-0.12364
-0.0968311
-0.0719518
-0.0807599
-0.102117
-0.0986247
-0.143648
-0.179933
-0.150726
-0.12705
-0.094606
-0.0717735
-0.131023
-0.129785
-0.0632844
-0.0276083
-0.0229376
-0.015914
-0.00990341
-0.00639651
-0.00421218
-0.0023895
-0.000806382
-0.0690803
0.0319149
0.124101
0.0543689
-0.0971363
-0.230781
-0.272055
-0.227995
-0.171838
-0.131575
-0.11199
-0.10915
-0.101978
-0.131034
-0.147594
-0.123393
-0.0929266
-0.0672933
-0.070379
-0.0923902
-0.086638
-0.14061
-0.176422
-0.151168
-0.121859
-0.0826899
-0.047683
-0.1229
-0.12611
-0.0608555
-0.0233752
-0.0216469
-0.0162135
-0.00984072
-0.00617154
-0.00415519
-0.00240372
-0.000807112
-0.101455
-0.0180738
0.104897
0.0901856
-0.0286054
-0.164804
-0.217212
-0.199833
-0.157592
-0.127793
-0.106365
-0.097022
-0.100638
-0.13629
-0.151452
-0.12071
-0.0886073
-0.0637848
-0.0627878
-0.0837003
-0.0730384
-0.132824
-0.169509
-0.148863
-0.115979
-0.0741117
-0.0275266
-0.11216
-0.119756
-0.0580059
-0.0197235
-0.0202572
-0.0162418
-0.00973881
-0.0059689
-0.00408319
-0.0024064
-0.000806477
-0.134042
-0.0752289
0.0111933
0.0592088
0.0138189
-0.0844437
-0.14353
-0.150851
-0.131842
-0.114969
-0.100193
-0.0855332
-0.0906926
-0.136679
-0.156685
-0.1232
-0.0873625
-0.0624533
-0.0550385
-0.075239
-0.0606471
-0.121223
-0.15947
-0.147812
-0.110776
-0.0717645
-0.0118535
-0.099606
-0.112899
-0.0558407
-0.016435
-0.0186593
-0.0160383
-0.00966118
-0.00580949
-0.00403786
-0.0024051
-0.000805277
-0.130943
-0.0887679
-0.020143
0.0307949
0.0121387
-0.0530562
-0.0980502
-0.114433
-0.104889
-0.0912143
-0.0825389
-0.0721562
-0.0812374
-0.122389
-0.138499
-0.114921
-0.0814364
-0.0615669
-0.0553415
-0.0697092
-0.0524554
-0.108861
-0.14504
-0.137203
-0.0994363
-0.0689586
-0.00976575
-0.0852891
-0.100076
-0.0516732
-0.0145056
-0.0169136
-0.0154293
-0.00938558
-0.00560993
-0.00392578
-0.00237026
-0.000794687
-0.119068
-0.0861828
-0.0388286
-0.00526532
-0.00645396
-0.0379975
-0.0653363
-0.0770994
-0.0723221
-0.0656401
-0.0609625
-0.0522585
-0.0628314
-0.109948
-0.140239
-0.105539
-0.0698115
-0.0523788
-0.0494891
-0.0571655
-0.0354933
-0.0851009
-0.128899
-0.120119
-0.0820861
-0.0469229
0.00163431
-0.0649046
-0.0974252
-0.0442133
-0.0111615
-0.0147435
-0.0145281
-0.00890838
-0.00530888
-0.00376418
-0.00230005
-0.000772264
-0.100518
-0.0819942
-0.0532456
-0.028721
-0.0202883
-0.0313209
-0.0462242
-0.0540033
-0.0547519
-0.0484436
-0.0453239
-0.0351984
-0.029605
-0.0609505
-0.0829715
-0.0752988
-0.0539493
-0.0437353
-0.0462881
-0.0451123
-0.0232891
-0.0562344
-0.0940854
-0.0924417
-0.055725
-0.0210889
0.0124336
-0.0420786
-0.072943
-0.0332928
-0.00866355
-0.0127298
-0.0131342
-0.00827679
-0.00505222
-0.00360738
-0.00220354
-0.000739886
-0.0827797
-0.0742694
-0.0562082
-0.0386189
-0.0287779
-0.0291819
-0.0346778
-0.0368915
-0.0348062
-0.0284794
-0.0215757
-0.0135229
-0.00346217
-0.012375
-0.0194205
-0.0337438
-0.03868
-0.0351671
-0.0347776
-0.0278751
-0.00923552
-0.023836
-0.0543349
-0.0631122
-0.0324938
0.00118036
0.025199
-0.0154835
-0.0511895
-0.0224285
-0.00745402
-0.0106687
-0.0115179
-0.00753751
-0.00484822
-0.00344541
-0.00207379
-0.000694395
-0.0673519
-0.0640836
-0.0533044
-0.041353
-0.0320474
-0.0276637
-0.0273349
-0.0264087
-0.0248963
-0.0191157
-0.0122339
-0.00152735
0.0170987
0.0276359
0.024256
-0.000100404
-0.0209563
-0.0218591
-0.0209929
-0.0140788
-0.000509893
0.00810472
-0.0106892
-0.0361198
-0.016446
0.0168047
0.0298762
0.0111697
-0.0215931
-0.0107636
-0.00657982
-0.00838681
-0.00822568
-0.00661579
-0.00466581
-0.00327913
-0.00191594
-0.000635711
-0.0536063
-0.0531662
-0.0473201
-0.0396977
-0.0311581
-0.025379
-0.022444
-0.0189816
-0.0150094
-0.00817677
0.000626065
0.00957297
0.0242837
0.0382014
0.0364074
0.0169622
-0.00440324
-0.00866199
-0.00667239
0.000637146
0.00839831
0.0195888
0.00235568
-0.0220463
-0.0110915
0.0215979
0.03154
0.0306275
0.00196931
-0.000819537
-0.00496276
-0.00583893
-0.00615924
-0.0056807
-0.00444382
-0.00308033
-0.00173688
-0.000571428
-0.0414278
-0.0424239
-0.0390302
-0.0328808
-0.0272039
-0.0218923
-0.0176729
-0.0133594
-0.00928982
-0.00370649
0.00302056
0.0114266
0.0238712
0.0354085
0.0352684
0.0222565
0.00717535
0.00245999
0.00194201
0.00719305
0.012287
0.023541
0.0146046
-0.00968254
-0.00482071
0.0195729
0.029119
0.0389536
0.0148711
0.0047148
-0.00305553
-0.00367507
-0.00457184
-0.00480645
-0.00406836
-0.00280556
-0.00154453
-0.000507589
-0.0313691
-0.0328875
-0.0311552
-0.0273816
-0.0227177
-0.0180828
-0.0138995
-0.00971123
-0.00562923
-0.000398233
0.00589335
0.0130797
0.021175
0.0282902
0.0296373
0.0217302
0.0121607
0.00851503
0.00836009
0.0125104
0.0153347
0.0200851
0.0154387
0.00103715
0.00224174
0.0169318
0.0264018
0.0346629
0.0167824
0.00621184
-0.000765233
-0.00206139
-0.0035113
-0.00395239
-0.00349439
-0.00244998
-0.0013535
-0.000449347
-0.0229615
-0.0246069
-0.0238878
-0.0213932
-0.0178725
-0.0140947
-0.0103703
-0.0065903
-0.0028516
0.00147206
0.00611585
0.0113845
0.017045
0.0217988
0.0236245
0.0196413
0.0140344
0.0118591
0.0108766
0.0128363
0.014954
0.0171795
0.0156604
0.00773214
0.00724265
0.0146081
0.0225609
0.0285852
0.0174567
0.00743716
0.0014421
-0.000795647
-0.0024923
-0.00303318
-0.00278978
-0.00202234
-0.0011414
-0.000382088
-0.0160554
-0.0175904
-0.0173186
-0.0156285
-0.0130945
-0.0102236
-0.00720931
-0.0041145
-0.00103814
0.00231402
0.00593822
0.00995744
0.0139399
0.0170332
0.0186182
0.0171752
0.0141573
0.0128828
0.0127211
0.0137525
0.0149069
0.0153523
0.0145629
0.0106654
0.0104417
0.015167
0.0194788
0.0224683
0.016416
0.00842753
0.00316886
0.000317005
-0.00150206
-0.0021342
-0.00209374
-0.00158999
-0.000927489
-0.000315053
-0.0104209
-0.0116718
-0.0116408
-0.0105756
-0.00881829
-0.0067
-0.00437102
-0.00196595
0.000468734
0.00302493
0.00576595
0.00862073
0.0114189
0.0135652
0.0148841
0.0148785
0.0136102
0.0130355
0.0128009
0.0131157
0.0137423
0.013909
0.013802
0.0119477
0.0116895
0.0136537
0.0164491
0.0182009
0.0149756
0.00908371
0.00448913
0.0014686
-0.000489144
-0.00127574
-0.00140762
-0.00112904
-0.00068462
-0.000233523
-0.00573974
-0.00678621
-0.0069173
-0.00623883
-0.0050284
-0.00351353
-0.00180167
-2.25801e-05
0.00180848
0.00366603
0.00566153
0.00770203
0.00969977
0.0113326
0.0124404
0.0129714
0.0126628
0.0124412
0.0125877
0.0128641
0.0131798
0.0131234
0.0131001
0.0122781
0.0121489
0.0132627
0.0145143
0.0151105
0.0132089
0.00920774
0.00545053
0.00252604
0.000467796
-0.000489651
-0.000781874
-0.000694352
-0.000444882
-0.000155633
-0.00198987
-0.00283397
-0.00300121
-0.00258434
-0.00178429
-0.000754682
0.000447129
0.00171486
0.0030381
0.00435852
0.00577375
0.00722777
0.0086567
0.00990255
0.0108126
0.0114762
0.0117107
0.011803
0.0119839
0.0121801
0.0123746
0.0123424
0.01241
0.0120341
0.0118815
0.0123764
0.0128122
0.0128613
0.0115641
0.00888961
0.00599416
0.00338176
0.00135553
0.000230313
-0.000220215
-0.000289689
-0.000208187
-7.63948e-05
0.0010332
0.00038083
0.000199438
0.000421195
0.000917289
0.0015985
0.00242314
0.00330485
0.00421226
0.00511357
0.00608432
0.00711293
0.00813196
0.00906101
0.00981094
0.0104413
0.0108521
0.0110843
0.0113335
0.0115666
0.0117314
0.0117264
0.0117543
0.0115832
0.0114469
0.0116248
0.0116303
0.011327
0.0102861
0.00844192
0.00627965
0.00406074
0.00217366
0.000925548
0.000307532
8.57978e-05
2.21497e-05
7.80542e-06
0.00348415
0.0029702
0.00278202
0.00287583
0.00316313
0.00358377
0.00411254
0.00469585
0.00529887
0.00589884
0.00654173
0.00724309
0.0079542
0.00862958
0.00921445
0.00973988
0.0101724
0.01048
0.010725
0.0109378
0.0110835
0.0110897
0.0111035
0.0110012
0.0108251
0.0107596
0.0105442
0.010126
0.00926707
0.00788767
0.00625943
0.00448122
0.00282448
0.00155556
0.00077817
0.00040148
0.000209259
7.42679e-05
0.00542745
0.0050289
0.00485048
0.0048609
0.00500037
0.0052343
0.00554992
0.00591523
0.00629439
0.00667125
0.00707695
0.00753583
0.00801967
0.00848009
0.0089047
0.00931049
0.00967302
0.00995187
0.0101673
0.0103533
0.0104815
0.0104945
0.0104803
0.0103823
0.010197
0.0100358
0.00973022
0.0092462
0.00850406
0.00742925
0.00616616
0.00474477
0.00332608
0.00211891
0.00123559
0.000705205
0.000384322
0.000139905
0.00696626
0.00665895
0.00649214
0.00644634
0.00648535
0.00659096
0.0067561
0.00696023
0.007173
0.00738644
0.00762149
0.00790134
0.00820513
0.00850293
0.00878475
0.00906485
0.00933327
0.00954608
0.00971084
0.00984937
0.00993969
0.00994174
0.00990045
0.00979751
0.0096005
0.00936223
0.00901447
0.00853406
0.00788614
0.00701425
0.00598547
0.0048343
0.00364519
0.00255103
0.00164104
0.000983575
0.000532174
0.000185293
0.00816772
0.00792792
0.00777401
0.0076939
0.00766733
0.0076848
0.00774416
0.00783242
0.00792739
0.00802448
0.00813713
0.00828448
0.00845172
0.00862041
0.00878438
0.00895447
0.00912227
0.00925748
0.0093593
0.00943783
0.00948054
0.00945612
0.00938747
0.00926179
0.00905603
0.00879519
0.00844471
0.00798207
0.00739742
0.0066648
0.00580868
0.00485669
0.00384993
0.00286919
0.0019826
0.00124693
0.000679478
0.000229783
0.00909122
0.00890072
0.00875918
0.00865833
0.00858978
0.00854837
0.00853581
0.00854326
0.00855568
0.00857071
0.00859608
0.00864738
0.0087119
0.00878259
0.00885074
0.0089291
0.00900672
0.00906563
0.00910188
0.00912009
0.00911171
0.00905145
0.00895425
0.00880606
0.00859415
0.00832121
0.00797257
0.00753828
0.00700631
0.00637124
0.00563599
0.00482051
0.00395098
0.00307247
0.002233
0.00147064
0.000817937
0.000269312
0.00978135
0.00962489
0.00949311
0.00938117
0.009287
0.00920831
0.00914791
0.0091004
0.00905641
0.00901521
0.00898048
0.00896362
0.00895429
0.00895126
0.00894662
0.00895132
0.00895513
0.00894774
0.00892552
0.00888834
0.00883159
0.00873509
0.00860882
0.00843826
0.00821583
0.0079397
0.00759845
0.00718912
0.00669875
0.00613134
0.00548313
0.00476582
0.0039977
0.00320078
0.00240807
0.0016459
0.000940942
0.00030771
0.0102756
0.0101418
0.0100169
0.00989985
0.00979053
0.00968943
0.00959841
0.00951501
0.00943413
0.0093553
0.00928092
0.00921645
0.00915692
0.00910066
0.00904435
0.00899295
0.00894087
0.00888138
0.00881091
0.00872907
0.00863022
0.0085032
0.00834901
0.00815959
0.00792706
0.00764809
0.00731445
0.00692314
0.00646638
0.0059446
0.00535595
0.00470645
0.0040072
0.00327034
0.00251716
0.00176652
0.00103557
0.000339559
0.0105968
0.0104765
0.0103566
0.0102378
0.0101211
0.0100078
0.00989895
0.00979395
0.00969069
0.00958913
0.00949011
0.00939588
0.00930404
0.00921395
0.00912355
0.00903488
0.00894446
0.00884891
0.00874447
0.00862999
0.00850086
0.00834997
0.00817503
0.00797043
0.00772912
0.00744756
0.00711883
0.00673976
0.00630478
0.00581236
0.0052624
0.0046556
0.00400048
0.00330473
0.00257904
0.00184037
0.00109834
0.000362621
0.0107558
0.010642
0.0105251
0.0104065
0.0102874
0.0101692
0.0100524
0.0099374
0.00982361
0.00971127
0.0096004
0.00949147
0.00938359
0.00927654
0.00916898
0.00906101
0.00895038
0.00883574
0.00871306
0.00858094
0.00843506
0.00827111
0.00808438
0.00787102
0.00762473
0.00734106
0.00701514
0.00664181
0.00621843
0.00574107
0.00521
0.00462542
0.00399203
0.00331754
0.00260689
0.00187479
0.00112895
0.000374585
-0.137705
-0.147268
-0.155197
-0.160723
-0.163705
-0.160338
-0.153822
-0.141993
-0.111621
-0.116888
-0.120634
-0.122872
-0.122839
-0.121956
-0.120441
-0.123112
-0.088358
-0.091358
-0.0928005
-0.0946035
-0.0954797
-0.0985045
-0.0995217
-0.103048
-0.0702671
-0.0719511
-0.0728934
-0.0749792
-0.0763555
-0.0788409
-0.0789617
-0.0808554
-0.0552012
-0.0564744
-0.0572462
-0.0585934
-0.0591067
-0.0599728
-0.0601862
-0.0631186
-0.0431136
-0.0437631
-0.0440479
-0.0445407
-0.0447872
-0.0456716
-0.0469173
-0.0498079
-0.0329867
-0.0332369
-0.0332987
-0.0335635
-0.0339429
-0.0347765
-0.0358482
-0.0380538
-0.0246907
-0.024712
-0.0246548
-0.0247478
-0.0250147
-0.0256057
-0.0264998
-0.0283712
-0.0178108
-0.0177037
-0.0175601
-0.0175642
-0.0177711
-0.0182084
-0.0189297
-0.0204488
-0.0121018
-0.0119692
-0.0118205
-0.0117711
-0.011861
-0.0121195
-0.0126985
-0.0139611
-0.00734886
-0.00721815
-0.00705656
-0.00695013
-0.00698957
-0.00722282
-0.0077555
-0.008778
-0.00337621
-0.00327803
-0.00316048
-0.00309291
-0.00315274
-0.00333816
-0.00372173
-0.00447511
-0.000107645
-6.65722e-05
-5.89896e-06
3.97627e-05
1.68405e-05
-9.3049e-05
-0.000382849
-0.000987144
0.00260006
0.0025938
0.00261256
0.00263093
0.00259984
0.00249283
0.00224908
0.00178299
0.00480192
0.00475267
0.004725
0.00470273
0.00465517
0.0045633
0.00438222
0.00404063
0.00656823
0.00648946
0.00643048
0.00638292
0.00632719
0.0062446
0.00610036
0.00584232
0.00797192
0.00787597
0.0077964
0.00772894
0.00766153
0.00758015
0.00746167
0.00726975
0.0090682
0.00896384
0.00887261
0.00879275
0.0087176
0.00863742
0.00853718
0.00839193
0.00991146
0.00980451
0.00970816
0.0096216
0.00954169
0.00946177
0.00937325
0.00925957
0.0105416
0.0104356
0.0103383
0.0102495
0.0101677
0.0100884
0.010007
0.00991346
0.0109891
0.0108872
0.0107922
0.0107043
0.0106225
0.0105444
0.0104671
0.0103857
0.0112728
0.0111775
0.0110872
0.0110022
0.0109217
0.0108447
0.0107696
0.0106945
0.0114048
0.0113182
0.0112336
0.0111516
0.0110724
0.0109958
0.0109213
0.0108483
0.0294045
0.0315253
0.0329429
0.0333509
0.0321946
0.0293241
0.0245684
0.0173791
0.00678609
-0.0086081
-0.0307538
-0.0623947
-0.107991
-0.170776
-0.228953
0.00389248
0.00328813
0.00047717
-0.00380865
-0.00945753
-0.0168455
-0.026555
-0.0393916
-0.0564574
-0.0792582
-0.109877
-0.15106
-0.20731
-0.282397
-0.346569
-0.0216357
-0.0250891
-0.0319356
-0.040431
-0.0502008
-0.0618597
-0.0762464
-0.0943037
-0.117216
-0.146586
-0.184667
-0.234298
-0.298903
-0.384852
-0.447811
-0.0480642
-0.054559
-0.0646753
-0.0763373
-0.0894534
-0.104856
-0.123433
-0.146121
-0.174127
-0.20908
-0.253264
-0.310045
-0.381349
-0.47077
-0.530936
-0.0743552
-0.0840246
-0.0966822
-0.110762
-0.126646
-0.145277
-0.167437
-0.193953
-0.226106
-0.265536
-0.314224
-0.375948
-0.451447
-0.538979
-0.594516
-0.0991077
-0.112092
-0.126802
-0.142892
-0.161211
-0.182605
-0.207731
-0.237278
-0.272526
-0.315072
-0.367034
-0.430995
-0.507055
-0.589469
-0.638196
-0.121657
-0.137618
-0.153887
-0.172039
-0.192717
-0.216494
-0.243967
-0.275876
-0.313268
-0.357623
-0.410834
-0.474516
-0.547878
-0.621924
-0.663113
-0.14321
-0.159752
-0.177933
-0.198286
-0.22118
-0.247033
-0.276377
-0.309906
-0.348483
-0.393363
-0.446018
-0.507229
-0.574672
-0.637086
-0.671584
0.183099
0.197773
0.214208
0.232798
0.253603
0.27654
0.301527
0.328521
0.35744
0.388033
0.419715
0.451309
0.480807
0.504155
0.523359
0.17787
0.191522
0.207095
0.224947
0.244995
0.267052
0.291007
0.316813
0.344381
0.37343
0.403328
0.43283
0.459837
0.480318
0.496695
0.168462
0.180307
0.194372
0.210912
0.229573
0.249982
0.271949
0.295398
0.320196
0.34599
0.372048
0.397007
0.418577
0.432882
0.443344
0.154854
0.164312
0.176408
0.191111
0.207711
0.225644
0.244675
0.264698
0.285502
0.306597
0.327068
0.345354
0.358856
0.36382
0.365883
0.137153
0.143872
0.153788
0.166364
0.180389
0.195108
0.210281
0.225814
0.241444
0.256528
0.269932
0.279834
0.283259
0.276312
0.267888
0.115592
0.119219
0.126776
0.136976
0.148052
0.159104
0.169883
0.180264
0.189881
0.197932
0.203067
0.203216
0.195032
0.174413
0.153155
0.0907969
0.0917303
0.0971241
0.104452
0.111785
0.118444
0.124288
0.129084
0.132229
0.132696
0.128904
0.118521
0.0978668
0.0627898
0.0278346
0.0618593
0.0615188
0.0657263
0.0700929
0.0732336
0.0750109
0.0754712
0.0742578
0.0705437
0.0630711
0.0500432
0.0288576
-0.00455234
-0.0540688
-0.101984
0.0250512
0.0294571
0.0257738
0.0296915
0.0272189
0.0315078
0.0297331
0.0340825
0.0334392
0.0378522
0.0385749
0.0433607
0.0457813
0.0513613
0.0559873
0.0631149
0.0704689
0.0802999
0.091253
0.105098
0.120894
0.140333
0.162698
0.0250441
0.0294112
0.0257711
0.0296378
0.0272148
0.0314398
0.0297157
0.0339954
0.0334148
0.0377227
0.038504
0.0432347
0.0456137
0.0511405
0.0557451
0.0627156
0.0700136
0.0797537
0.0902594
0.103805
0.118879
0.137718
0.158877
0.0250474
0.0293399
0.0257865
0.0295553
0.0272393
0.0313382
0.0297369
0.0338744
0.033411
0.0375621
0.0384691
0.0430736
0.0454594
0.0508179
0.0553998
0.0622522
0.0692195
0.0786049
0.0885477
0.101626
0.115517
0.133273
0.152106
0.0250598
0.0292452
0.0258185
0.0294485
0.0272741
0.0312069
0.0297862
0.0337292
0.03345
0.0373829
0.0384588
0.0429182
0.0453468
0.0506567
0.0551751
0.0618076
0.0685224
0.0777628
0.0867978
0.0991848
0.111249
0.127183
0.142326
0.0250801
0.029131
0.0258602
0.0293224
0.0274002
0.0310519
0.0298511
0.0335643
0.0335021
0.0371735
0.0384494
0.0426848
0.0451296
0.0501832
0.0546481
0.0609462
0.0673261
0.0759558
0.0840562
0.0953559
0.105314
0.118888
0.129348
0.0251062
0.0290005
0.025918
0.0291789
0.0274604
0.0308849
0.0299323
0.0334052
0.0335871
0.037005
0.0385149
0.0425745
0.0451278
0.0501812
0.0544744
0.0607125
0.0666189
0.0748473
0.0816955
0.0916555
0.0986591
0.108967
0.113353
0.0251389
0.028856
0.0259761
0.0290257
0.0275389
0.0307075
0.0300061
0.0332192
0.0336353
0.0367787
0.038474
0.0422566
0.0448279
0.0496243
0.0537623
0.0594016
0.0649627
0.072029
0.077961
0.0859318
0.0904189
0.0967272
0.0947424
0.0251728
0.0287039
0.0260363
0.0288719
0.0276269
0.0305601
0.0301144
0.0331072
0.033767
0.0367376
0.0386574
0.0423376
0.0450357
0.049898
0.0537075
0.0594456
0.0643612
0.0708738
0.0750294
0.0808489
0.0811256
0.0824893
0.0722809
0.0252087
0.0284979
0.0261194
0.0286423
0.0277159
0.0302683
0.0301584
0.0328104
0.0337555
0.0363136
0.0384282
0.0416577
0.0443249
0.0486109
0.0521572
0.0566738
0.0610339
0.0649724
0.0680467
0.069481
0.0670603
0.0601424
0.044048
0.0252621
0.0282104
0.026227
0.0283188
0.0277966
0.0298537
0.0301646
0.0321744
0.0335351
0.0355643
0.0377694
0.0403856
0.0429468
0.0463178
0.04937
0.0523937
0.055557
0.0571265
0.0582488
0.0560587
0.0517169
0.0420949
0.0292002
0.0253403
0.0278506
0.0263578
0.0279241
0.0279054
0.0293526
0.0301488
0.0315665
0.0332497
0.0347862
0.0370089
0.0390292
0.0414051
0.0438738
0.0462696
0.0480538
0.0497962
0.0497012
0.0487027
0.0447663
0.0387922
0.0293294
0.0174551
0.0254435
0.0274091
0.0265158
0.0274736
0.0279797
0.0288846
0.0300324
0.0309963
0.0327991
0.0339603
0.0360501
0.037552
0.0395966
0.0412075
0.0428159
0.0435879
0.0438446
0.0425068
0.0398984
0.0349693
0.0283082
0.0193841
0.00885471
0.0255759
0.0268791
0.0266522
0.0270748
0.0279419
0.0284586
0.0298021
0.0304311
0.0321762
0.0330805
0.0348422
0.0359587
0.0374983
0.0383822
0.0391178
0.0390493
0.0380579
0.0357769
0.0322273
0.0269526
0.0203513
0.0122239
0.00300742
0.0257317
0.0263338
0.026685
0.0267293
0.0278194
0.0280486
0.0294442
0.029847
0.0313858
0.0321214
0.0334352
0.0342176
0.035194
0.0354014
0.0353625
0.0345721
0.0327145
0.0298127
0.025911
0.0207289
0.0145639
0.00733735
-0.00078742
0.0258619
0.0258172
0.026613
0.0264258
0.0275924
0.0276491
0.0289427
0.0292357
0.0304583
0.031051
0.0318796
0.0323303
0.032763
0.0323574
0.0317007
0.0303571
0.0279905
0.0247988
0.0208738
0.0160597
0.0105122
0.00419987
-0.00289154
0.0259447
0.0253468
0.0264396
0.026149
0.0272512
0.0272449
0.0283136
0.0285622
0.0294262
0.0298538
0.0302253
0.0303299
0.0302863
0.0293877
0.0282678
0.0265546
0.0239826
0.0207574
0.0170065
0.0126976
0.00785314
0.00246601
-0.0035537
0.0259537
0.0249432
0.0261534
0.0258841
0.0268039
0.0268175
0.0275871
0.0277908
0.0283184
0.0285387
0.0285151
0.0282869
0.0278515
0.0266034
0.0251711
0.0232722
0.0207014
0.0176292
0.0141904
0.0104407
0.00633634
0.00186257
-0.00311865
0.0258713
0.0246166
0.0257561
0.0256112
0.0262692
0.0263295
0.0268024
0.0269185
0.0271522
0.0271412
0.0267962
0.0262841
0.0255461
0.0240894
0.0224949
0.0205591
0.0181225
0.0153225
0.012285
0.00910317
0.00571086
0.00207216
-0.00197346
0.0256851
0.0243645
0.0252681
0.0252974
0.0256905
0.0257562
0.0259799
0.0259612
0.0259436
0.0257053
0.0251175
0.0243915
0.0234445
0.0219067
0.0202716
0.0184069
0.0161889
0.0137266
0.0111257
0.00848338
0.00572878
0.00281371
-0.0004265
0.0253917
0.0241709
0.0247258
0.0248853
0.0250922
0.0251052
0.0251295
0.0249534
0.0247229
0.0242864
0.0235304
0.0226621
0.0216047
0.0200808
0.0184931
0.0167735
0.0148198
0.0127142
0.0105397
0.0083824
0.0061767
0.00386904
0.00130524
0.0249992
0.0240041
0.0241896
0.0243474
0.0244635
0.0243986
0.0242585
0.0239329
0.0235282
0.0229401
0.0220808
0.0211387
0.0200469
0.0186038
0.017128
0.0155952
0.0139181
0.0121545
0.0103681
0.00862891
0.00687959
0.00506756
0.00305995
0.024528
0.0238028
0.0237047
0.0237351
0.0237855
0.0236391
0.0233734
0.0229329
0.0223978
0.0217071
0.0208023
0.0198387
0.0187686
0.0174524
0.016128
0.0147943
0.0133818
0.0119276
0.0104784
0.00908644
0.00770376
0.00628334
0.00471709
0.0240062
0.0235002
0.0232581
0.0231459
0.0230774
0.0228458
0.0224879
0.0219713
0.0213578
0.0206133
0.0197064
0.0187637
0.0177555
0.0165885
0.015431
0.0142911
0.0131175
0.0119318
0.0107661
0.00965646
0.0085656
0.00745299
0.00623324
0.0234637
0.0231084
0.02282
0.0225802
0.0223715
0.0220552
0.0216277
0.0210661
0.0204177
0.0196645
0.0187941
0.0179058
0.0169838
0.0159687
0.0149761
0.0140137
0.0130444
0.0120809
0.011145
0.0102604
0.00939806
0.00852571
0.00757921
0.0229216
0.0226539
0.022353
0.0220282
0.0217004
0.0213056
0.0208237
0.0202397
0.0195884
0.0188609
0.0180555
0.0172459
0.0164239
0.0155537
0.0147122
0.0139035
0.0131004
0.0123121
0.0115549
0.0108444
0.010159
0.00947407
0.00874142
0.0223928
0.0221695
0.0218617
0.0214886
0.0210807
0.0206231
0.0201023
0.0195113
0.0188752
0.0181921
0.0174658
0.0167472
0.0160317
0.0152963
0.0145886
0.013909
0.0132378
0.0125833
0.0119595
0.0113788
0.0108273
0.0102855
0.00971874
0.0218881
0.0216849
0.0213716
0.0209733
0.0205212
0.0200248
0.0194825
0.0188971
0.0182875
0.0176569
0.0170111
0.016381
0.0157621
0.0151384
0.014538
0.0139607
0.0133959
0.0128491
0.0123306
0.0118501
0.0113992
0.0109652
0.0105248
0.0214229
0.0212283
0.0209119
0.0205031
0.0200315
0.0195181
0.0189718
0.0184024
0.0178258
0.0172479
0.0166731
0.0161181
0.0155778
0.015042
0.0145265
0.0140321
0.0135533
0.0130937
0.0126592
0.0122563
0.011881
0.0115261
0.0111777
0.0210212
0.0208321
0.0205157
0.020105
0.0196296
0.0191142
0.0185744
0.0180244
0.0174783
0.0169426
0.0164212
0.0159217
0.0154412
0.0149735
0.0145268
0.0141016
0.0136951
0.0133079
0.0129419
0.0125993
0.0122797
0.0119813
0.0116983
0.0207106
0.0205237
0.0202103
0.0198044
0.019334
0.0188257
0.0182985
0.0177691
0.0172493
0.0167454
0.0162603
0.0157986
0.0153593
0.014939
0.0145394
0.0141605
0.0138012
0.0134618
0.0131428
0.0128453
0.0125686
0.0123125
0.0120752
0.0205428
0.0203597
0.0200452
0.019637
0.0191658
0.0186582
0.0181351
0.0176131
0.0171043
0.0166164
0.0161539
0.015719
0.0153096
0.0149214
0.0145519
0.0142014
0.0138709
0.0135614
0.0132742
0.0130099
0.0127683
0.0125491
0.0123525
0.0253193
0.00298491
-0.0228825
-0.0465975
-0.0686027
-0.0893782
-0.108534
-0.124759
0.0145551
-0.00626797
-0.0308399
-0.0517092
-0.0678446
-0.081751
-0.0939543
-0.10404
0.00554597
-0.0106243
-0.0309173
-0.0475616
-0.0588899
-0.0680424
-0.0763233
-0.0835303
-0.00131657
-0.0142183
-0.0304387
-0.043796
-0.0523273
-0.0583686
-0.0634578
-0.0677277
-0.00572928
-0.0158574
-0.0280308
-0.0379338
-0.0440641
-0.0478874
-0.0509237
-0.0535448
-0.00850231
-0.016356
-0.0247429
-0.031661
-0.0361744
-0.0388126
-0.0406903
-0.0421932
-0.00964905
-0.015629
-0.0209584
-0.0253461
-0.0285286
-0.030459
-0.0316937
-0.0325271
-0.00926017
-0.0137193
-0.0169364
-0.0195277
-0.0216655
-0.0231189
-0.0240172
-0.0245001
-0.00781204
-0.0110971
-0.0129379
-0.0143494
-0.01571
-0.0167779
-0.0174571
-0.0177651
-0.0057587
-0.00816339
-0.00913732
-0.00979978
-0.0106052
-0.0113589
-0.0118753
-0.012094
-0.00343624
-0.0051879
-0.00563324
-0.00584051
-0.00626979
-0.00678421
-0.00717897
-0.00735138
-0.00105694
-0.0023261
-0.002465
-0.0024156
-0.00260228
-0.00293792
-0.00323309
-0.00337175
0.00123464
0.000325905
0.000352992
0.000528987
0.00048411
0.000270416
4.75709e-05
-7.64126e-05
0.00332226
0.00267974
0.00278945
0.00302452
0.00307072
0.00294738
0.00277897
0.00265988
0.00517239
0.00471976
0.00486069
0.005109
0.00520524
0.00514063
0.00500763
0.00488764
0.00677929
0.00646255
0.00660251
0.00682781
0.00693349
0.00689904
0.00678962
0.00667088
0.00814323
0.00792232
0.00804299
0.00822676
0.00831776
0.00829346
0.00819833
0.00808286
0.00927462
0.00911985
0.00921259
0.00934821
0.00941203
0.00938406
0.0092947
0.00918202
0.0101944
0.0100816
0.0101422
0.0102295
0.0102619
0.0102235
0.010135
0.0100248
0.0109255
0.0108337
0.0108587
0.0109
0.0109011
0.0108499
0.0107603
0.0106525
0.0114961
0.011407
0.0113908
0.0113853
0.0113545
0.0112898
0.011199
0.0110952
0.0119024
0.0118054
0.011748
0.0116982
0.0116373
0.0115598
0.0114689
0.0113712
0.0121973
0.0120767
0.0119639
0.0118605
0.0117643
0.0116724
0.0115822
0.011493
-0.402481
-0.413723
-0.429743
-0.450361
-0.476818
-0.510181
-0.545371
-0.575302
-0.400938
-0.41092
-0.424638
-0.442251
-0.464269
-0.491018
-0.52091
-0.54715
-0.394867
-0.405251
-0.417932
-0.43339
-0.452612
-0.473652
-0.492027
-0.503317
-0.3861
-0.39752
-0.409498
-0.42193
-0.434728
-0.445838
-0.451848
-0.450006
-0.377018
-0.388335
-0.397766
-0.404734
-0.409408
-0.411078
-0.407987
-0.398072
-0.369395
-0.37793
-0.382349
-0.38288
-0.380639
-0.37567
-0.366747
-0.35196
-0.364174
-0.366813
-0.364629
-0.359203
-0.351879
-0.342539
-0.329908
-0.312197
-0.360882
-0.35521
-0.346067
-0.335742
-0.324682
-0.312441
-0.297401
-0.277971
-0.357639
-0.342732
-0.32752