/*--------------------------------*- C++ -*----------------------------------*\
| =========                 |                                                 |
| \\      /  F ield         | OpenFOAM: The Open Source CFD Toolbox           |
|  \\    /   O peration     | Version:  2512                                  |
|   \\  /    A nd           | Website:  www.openfoam.com                      |
|    \\/     M anipulation  |                                                 |
\*---------------------------------------------------------------------------*/
FoamFile
{
    version     2.0;
    format      ascii;
    arch        "LSB;label=32;scalar=64";
    class       volVectorField;
    location    "45.5";
    object      U;
}
// * * * * * * * * * * * * * * * * * * * * * * * * * * * * * * * * * * * * * //

dimensions      [0 1 -1 0 0 0 0];

internalField   nonuniform List<vector> 
9800
(
(1 -2.91146e-05 0)
(1.00012 -9.00457e-05 0)
(1.00035 -0.000151346 0)
(1.00068 -0.00021134 0)
(1.00111 -0.000268541 0)
(1.00161 -0.000321956 0)
(1.00219 -0.000371169 0)
(1.00281 -0.000416218 0)
(1.00348 -0.0004574 0)
(1.00418 -0.000495107 0)
(1.00491 -0.000529739 0)
(1.00566 -0.00056165 0)
(1.00642 -0.000591143 0)
(1.00719 -0.000618473 0)
(1.00797 -0.000643838 0)
(1.00875 -0.000667377 0)
(1.00954 -0.000689161 0)
(1.01031 -0.000709203 0)
(1.01109 -0.000727466 0)
(1.01185 -0.000743874 0)
(1.0126 -0.000758328 0)
(1.01334 -0.000770726 0)
(1.01407 -0.000780976 0)
(1.01478 -0.00078901 0)
(1.01547 -0.000794794 0)
(1.01614 -0.000798327 0)
(1.01679 -0.000799648 0)
(1.01741 -0.000798831 0)
(1.01802 -0.000795982 0)
(1.0186 -0.00079123 0)
(1.01915 -0.00078473 0)
(1.01968 -0.000776642 0)
(1.02019 -0.000767139 0)
(1.02067 -0.000756391 0)
(1.02113 -0.000744575 0)
(1.02157 -0.000731852 0)
(1.02198 -0.000718385 0)
(1.02237 -0.000704317 0)
(1.02274 -0.000689792 0)
(1.02309 -0.000674929 0)
(1 -8.62028e-05 0)
(1.00012 -0.000266719 0)
(1.00035 -0.000448411 0)
(1.00068 -0.000626314 0)
(1.00111 -0.00079602 0)
(1.00161 -0.000954563 0)
(1.00218 -0.00110071 0)
(1.00281 -0.00123457 0)
(1.00348 -0.00135703 0)
(1.00418 -0.00146925 0)
(1.00491 -0.00157244 0)
(1.00566 -0.00166764 0)
(1.00643 -0.00175576 0)
(1.00721 -0.00183754 0)
(1.00799 -0.00191354 0)
(1.00878 -0.00198417 0)
(1.00957 -0.00204962 0)
(1.01035 -0.00210992 0)
(1.01113 -0.00216493 0)
(1.01191 -0.00221442 0)
(1.01267 -0.00225808 0)
(1.01342 -0.00229558 0)
(1.01415 -0.00232664 0)
(1.01487 -0.00235104 0)
(1.01557 -0.00236867 0)
(1.01625 -0.00237952 0)
(1.01691 -0.00238371 0)
(1.01755 -0.00238146 0)
(1.01816 -0.00237308 0)
(1.01875 -0.00235898 0)
(1.01932 -0.0023396 0)
(1.01986 -0.00231545 0)
(1.02037 -0.00228703 0)
(1.02086 -0.00225485 0)
(1.02133 -0.00221945 0)
(1.02177 -0.00218131 0)
(1.02219 -0.00214093 0)
(1.02259 -0.00209872 0)
(1.02296 -0.00205513 0)
(1.02332 -0.00201051 0)
(1 -0.000140914 0)
(1.00012 -0.000436318 0)
(1.00035 -0.00073393 0)
(1.00068 -0.00102562 0)
(1.0011 -0.00130414 0)
(1.00161 -0.0015646 0)
(1.00218 -0.00180497 0)
(1.0028 -0.00202541 0)
(1.00347 -0.00222737 0)
(1.00418 -0.0024128 0)
(1.00491 -0.00258364 0)
(1.00567 -0.00274164 0)
(1.00645 -0.00288825 0)
(1.00723 -0.00302467 0)
(1.00803 -0.00315179 0)
(1.00883 -0.00327023 0)
(1.00963 -0.00338026 0)
(1.01043 -0.00348188 0)
(1.01122 -0.0035748 0)
(1.01201 -0.00365858 0)
(1.01279 -0.00373265 0)
(1.01356 -0.00379644 0)
(1.01431 -0.00384942 0)
(1.01505 -0.00389122 0)
(1.01577 -0.00392162 0)
(1.01647 -0.0039406 0)
(1.01715 -0.00394835 0)
(1.01781 -0.00394522 0)
(1.01844 -0.00393175 0)
(1.01905 -0.00390858 0)
(1.01963 -0.00387651 0)
(1.02019 -0.00383633 0)
(1.02072 -0.00378893 0)
(1.02122 -0.00373515 0)
(1.0217 -0.00367591 0)
(1.02216 -0.00361199 0)
(1.02259 -0.00354425 0)
(1.023 -0.0034734 0)
(1.02339 -0.00340018 0)
(1.02375 -0.00332519 0)
(1 -0.000193069 0)
(1.00012 -0.000598403 0)
(1.00034 -0.00100735 0)
(1.00067 -0.00140874 0)
(1.0011 -0.00179254 0)
(1.0016 -0.00215205 0)
(1.00217 -0.00248439 0)
(1.0028 -0.00278974 0)
(1.00347 -0.00307012 0)
(1.00418 -0.0033282 0)
(1.00492 -0.00356669 0)
(1.00568 -0.00378794 0)
(1.00646 -0.00399397 0)
(1.00726 -0.00418637 0)
(1.00807 -0.00436633 0)
(1.00888 -0.00453461 0)
(1.0097 -0.00469148 0)
(1.01052 -0.00483684 0)
(1.01134 -0.00497018 0)
(1.01215 -0.00509078 0)
(1.01296 -0.00519774 0)
(1.01375 -0.00529016 0)
(1.01453 -0.00536726 0)
(1.0153 -0.00542843 0)
(1.01605 -0.00547334 0)
(1.01678 -0.00550192 0)
(1.01749 -0.00551443 0)
(1.01817 -0.00551134 0)
(1.01883 -0.00549339 0)
(1.01947 -0.00546149 0)
(1.02007 -0.00541676 0)
(1.02066 -0.00536033 0)
(1.02121 -0.00529347 0)
(1.02174 -0.00521739 0)
(1.02224 -0.00513337 0)
(1.02272 -0.00504257 0)
(1.02317 -0.0049462 0)
(1.02359 -0.0048453 0)
(1.02399 -0.00474094 0)
(1.02437 -0.00463398 0)
(0.999999 -0.000242501 0)
(1.00011 -0.000752559 0)
(1.00034 -0.00126813 0)
(1.00067 -0.00177509 0)
(1.00109 -0.00226073 0)
(1.00159 -0.00271658 0)
(1.00215 -0.00313886 0)
(1.00278 -0.0035278 0)
(1.00345 -0.00388594 0)
(1.00416 -0.00421668 0)
(1.00491 -0.00452341 0)
(1.00568 -0.00480913 0)
(1.00647 -0.00507635 0)
(1.00728 -0.00532706 0)
(1.00811 -0.00556265 0)
(1.00894 -0.00578396 0)
(1.00978 -0.00599117 0)
(1.01063 -0.00618397 0)
(1.01147 -0.00636155 0)
(1.01231 -0.00652279 0)
(1.01315 -0.00666636 0)
(1.01398 -0.00679098 0)
(1.0148 -0.00689549 0)
(1.0156 -0.00697902 0)
(1.01639 -0.00704107 0)
(1.01716 -0.0070815 0)
(1.01791 -0.00710057 0)
(1.01863 -0.00709886 0)
(1.01933 -0.00707734 0)
(1.02 -0.00703717 0)
(1.02064 -0.00697979 0)
(1.02126 -0.00690672 0)
(1.02184 -0.00681962 0)
(1.0224 -0.00672008 0)
(1.02293 -0.00660983 0)
(1.02343 -0.0064904 0)
(1.02391 -0.00636342 0)
(1.02436 -0.00623027 0)
(1.02478 -0.0060924 0)
(1.02517 -0.00595098 0)
(0.999999 -0.000289039 0)
(1.00011 -0.000898353 0)
(1.00033 -0.00151564 0)
(1.00065 -0.00212389 0)
(1.00107 -0.00270787 0)
(1.00156 -0.0032573 0)
(1.00213 -0.00376762 0)
(1.00275 -0.00423899 0)
(1.00342 -0.00467448 0)
(1.00414 -0.00507821 0)
(1.00489 -0.00545425 0)
(1.00566 -0.00580623 0)
(1.00647 -0.00613714 0)
(1.00729 -0.00644932 0)
(1.00813 -0.00674432 0)
(1.00899 -0.00702294 0)
(1.00985 -0.00728515 0)
(1.01073 -0.00753033 0)
(1.01161 -0.00775724 0)
(1.01249 -0.00796426 0)
(1.01336 -0.00814948 0)
(1.01424 -0.0083111 0)
(1.0151 -0.00844752 0)
(1.01595 -0.00855753 0)
(1.01678 -0.00864037 0)
(1.0176 -0.00869575 0)
(1.01839 -0.00872391 0)
(1.01916 -0.00872551 0)
(1.01991 -0.00870173 0)
(1.02062 -0.00865398 0)
(1.02131 -0.00858408 0)
(1.02197 -0.0084939 0)
(1.0226 -0.00838557 0)
(1.02319 -0.00826109 0)
(1.02376 -0.00812268 0)
(1.0243 -0.00797229 0)
(1.0248 -0.00781203 0)
(1.02528 -0.00764367 0)
(1.02573 -0.0074691 0)
(1.02615 -0.0072898 0)
(0.999999 -0.000332505 0)
(1.00011 -0.00103533 0)
(1.00032 -0.00174912 0)
(1.00064 -0.00245418 0)
(1.00105 -0.00313281 0)
(1.00153 -0.00377292 0)
(1.00209 -0.00436928 0)
(1.00271 -0.00492193 0)
(1.00338 -0.00543445 0)
(1.00409 -0.00591167 0)
(1.00484 -0.00635838 0)
(1.00563 -0.00677882 0)
(1.00644 -0.0071765 0)
(1.00728 -0.00755406 0)
(1.00814 -0.00791311 0)
(1.00902 -0.00825428 0)
(1.00991 -0.00857725 0)
(1.01082 -0.00888098 0)
(1.01173 -0.00916362 0)
(1.01265 -0.00942285 0)
(1.01358 -0.00965609 0)
(1.0145 -0.00986087 0)
(1.01541 -0.010035 0)
(1.01632 -0.0101769 0)
(1.01721 -0.0102854 0)
(1.01808 -0.0103599 0)
(1.01893 -0.0104006 0)
(1.01976 -0.0104082 0)
(1.02056 -0.010384 0)
(1.02134 -0.0103298 0)
(1.02208 -0.0102478 0)
(1.02279 -0.0101401 0)
(1.02347 -0.0100095 0)
(1.02411 -0.0098583 0)
(1.02472 -0.0096894 0)
(1.0253 -0.00950518 0)
(1.02584 -0.00930832 0)
(1.02636 -0.00910101 0)
(1.02684 -0.00888566 0)
(1.02729 -0.00866415 0)
(0.999999 -0.000372732 0)
(1.0001 -0.00116297 0)
(1.00031 -0.00196776 0)
(1.00062 -0.00276486 0)
(1.00102 -0.00353413 0)
(1.00149 -0.00426183 0)
(1.00204 -0.00494195 0)
(1.00265 -0.00557454 0)
(1.00331 -0.0061637 0)
(1.00402 -0.00671493 0)
(1.00477 -0.00723377 0)
(1.00556 -0.00772517 0)
(1.00638 -0.00819312 0)
(1.00723 -0.00864055 0)
(1.00811 -0.00906896 0)
(1.00901 -0.00947882 0)
(1.00993 -0.00986938 0)
(1.01087 -0.010239 0)
(1.01183 -0.0105851 0)
(1.0128 -0.0109043 0)
(1.01377 -0.0111934 0)
(1.01475 -0.011449 0)
(1.01573 -0.0116682 0)
(1.01669 -0.0118488 0)
(1.01765 -0.011989 0)
(1.01859 -0.0120881 0)
(1.01951 -0.0121459 0)
(1.02041 -0.0121632 0)
(1.02128 -0.0121415 0)
(1.02212 -0.0120827 0)
(1.02293 -0.0119893 0)
(1.0237 -0.011864 0)
(1.02444 -0.01171 0)
(1.02514 -0.0115303 0)
(1.02581 -0.0113283 0)
(1.02644 -0.0111069 0)
(1.02703 -0.0108695 0)
(1.02758 -0.0106187 0)
(1.0281 -0.0103577 0)
(1.02859 -0.0100886 0)
(0.999999 -0.000409569 0)
(1.0001 -0.00128076 0)
(1.0003 -0.00217074 0)
(1.00059 -0.00305469 0)
(1.00098 -0.00391028 0)
(1.00144 -0.00472211 0)
(1.00198 -0.00548329 0)
(1.00257 -0.0061942 0)
(1.00322 -0.0068594 0)
(1.00392 -0.00748499 0)
(1.00467 -0.00807737 0)
(1.00546 -0.00864232 0)
(1.00628 -0.00918435 0)
(1.00714 -0.00970649 0)
(1.00803 -0.0102101 0)
(1.00896 -0.0106956 0)
(1.00991 -0.0111615 0)
(1.01089 -0.0116056 0)
(1.01189 -0.012024 0)
(1.01291 -0.0124126 0)
(1.01394 -0.0127668 0)
(1.01498 -0.0130825 0)
(1.01602 -0.0133558 0)
(1.01706 -0.0135835 0)
(1.01809 -0.0137634 0)
(1.01911 -0.0138939 0)
(1.02011 -0.0139749 0)
(1.02109 -0.0140069 0)
(1.02204 -0.0139915 0)
(1.02296 -0.0139307 0)
(1.02384 -0.0138276 0)
(1.02469 -0.0136851 0)
(1.02551 -0.013507 0)
(1.02628 -0.013297 0)
(1.02701 -0.013059 0)
(1.0277 -0.0127968 0)
(1.02835 -0.0125143 0)
(1.02896 -0.0122149 0)
(1.02953 -0.0119022 0)
(1.03006 -0.0115792 0)
(0.999999 -0.000442859 0)
(1.00009 -0.00138824 0)
(1.00028 -0.00235719 0)
(1.00056 -0.00332247 0)
(1.00093 -0.00425968 0)
(1.00138 -0.0051516 0)
(1.00189 -0.00599084 0)
(1.00247 -0.006778 0)
(1.00311 -0.0075182 0)
(1.00379 -0.00821812 0)
(1.00453 -0.0088852 0)
(1.00531 -0.00952626 0)
(1.00613 -0.0101462 0)
(1.007 -0.0107481 0)
(1.0079 -0.0113333 0)
(1.00885 -0.0119018 0)
(1.00983 -0.0124518 0)
(1.01084 -0.0129799 0)
(1.01189 -0.0134809 0)
(1.01296 -0.0139495 0)
(1.01405 -0.0143799 0)
(1.01515 -0.0147667 0)
(1.01627 -0.0151049 0)
(1.01739 -0.0153902 0)
(1.01851 -0.0156193 0)
(1.01961 -0.0157902 0)
(1.02071 -0.0159021 0)
(1.02178 -0.0159554 0)
(1.02282 -0.0159517 0)
(1.02384 -0.015893 0)
(1.02482 -0.0157826 0)
(1.02576 -0.0156241 0)
(1.02666 -0.0154218 0)
(1.02751 -0.0151798 0)
(1.02832 -0.0149032 0)
(1.02909 -0.0145962 0)
(1.02981 -0.0142637 0)
(1.03048 -0.0139096 0)
(1.03111 -0.0135386 0)
(1.0317 -0.0131541 0)
(0.999999 -0.000472455 0)
(1.00008 -0.001485 0)
(1.00026 -0.00252629 0)
(1.00053 -0.00356709 0)
(1.00088 -0.00458069 0)
(1.0013 -0.00554817 0)
(1.00179 -0.00646199 0)
(1.00235 -0.00732287 0)
(1.00296 -0.00813635 0)
(1.00363 -0.00891001 0)
(1.00435 -0.00965264 0)
(1.00512 -0.0103721 0)
(1.00593 -0.0110736 0)
(1.0068 -0.0117604 0)
(1.00771 -0.0124335 0)
(1.00867 -0.0130932 0)
(1.00967 -0.0137365 0)
(1.01072 -0.014359 0)
(1.01181 -0.0149541 0)
(1.01293 -0.0155148 0)
(1.01409 -0.0160341 0)
(1.01526 -0.016505 0)
(1.01646 -0.016921 0)
(1.01767 -0.0172763 0)
(1.01888 -0.0175666 0)
(1.02009 -0.0177888 0)
(1.02128 -0.0179417 0)
(1.02246 -0.018025 0)
(1.02362 -0.0180402 0)
(1.02474 -0.0179892 0)
(1.02583 -0.0178757 0)
(1.02687 -0.0177034 0)
(1.02788 -0.0174775 0)
(1.02883 -0.0172027 0)
(1.02974 -0.0168849 0)
(1.0306 -0.016529 0)
(1.0314 -0.0161412 0)
(1.03215 -0.0157259 0)
(1.03286 -0.0152889 0)
(1.03351 -0.0148344 0)
(0.999999 -0.000498284 0)
(1.00008 -0.00157062 0)
(1.00024 -0.0026774 0)
(1.00049 -0.00378753 0)
(1.00081 -0.00487174 0)
(1.00121 -0.00590976 0)
(1.00167 -0.00689422 0)
(1.0022 -0.00782575 0)
(1.00278 -0.00870995 0)
(1.00343 -0.00955602 0)
(1.00412 -0.0103746 0)
(1.00487 -0.0111743 0)
(1.00567 -0.0119605 0)
(1.00653 -0.0127368 0)
(1.00744 -0.0135045 0)
(1.00841 -0.0142636 0)
(1.00943 -0.0150102 0)
(1.01051 -0.0157383 0)
(1.01164 -0.0164397 0)
(1.01282 -0.0171062 0)
(1.01403 -0.0177288 0)
(1.01529 -0.0182987 0)
(1.01657 -0.0188076 0)
(1.01787 -0.0192478 0)
(1.01919 -0.0196137 0)
(1.02051 -0.0199008 0)
(1.02182 -0.0201073 0)
(1.02312 -0.0202317 0)
(1.0244 -0.0202754 0)
(1.02565 -0.0202399 0)
(1.02686 -0.0201292 0)
(1.02804 -0.0199471 0)
(1.02916 -0.0196997 0)
(1.03024 -0.019392 0)
(1.03126 -0.0190311 0)
(1.03222 -0.0186227 0)
(1.03313 -0.0181739 0)
(1.03398 -0.0176903 0)
(1.03476 -0.017179 0)
(1.0355 -0.0166447 0)
(0.999999 -0.000520298 0)
(1.00007 -0.00164474 0)
(1.00021 -0.00281005 0)
(1.00044 -0.00398297 0)
(1.00074 -0.00513138 0)
(1.0011 -0.0062345 0)
(1.00153 -0.00728536 0)
(1.00202 -0.00828352 0)
(1.00258 -0.00923503 0)
(1.00318 -0.0101515 0)
(1.00384 -0.0110457 0)
(1.00456 -0.0119267 0)
(1.00534 -0.0128 0)
(1.00619 -0.01367 0)
(1.00709 -0.0145386 0)
(1.00806 -0.0154055 0)
(1.0091 -0.0162653 0)
(1.0102 -0.0171106 0)
(1.01136 -0.0179317 0)
(1.01259 -0.0187188 0)
(1.01387 -0.0194609 0)
(1.0152 -0.0201468 0)
(1.01657 -0.0207658 0)
(1.01797 -0.0213084 0)
(1.0194 -0.0217671 0)
(1.02084 -0.0221358 0)
(1.02229 -0.0224114 0)
(1.02372 -0.0225913 0)
(1.02514 -0.0226761 0)
(1.02654 -0.0226667 0)
(1.0279 -0.0225672 0)
(1.02922 -0.0223816 0)
(1.03049 -0.0221164 0)
(1.0317 -0.0217773 0)
(1.03286 -0.0213724 0)
(1.03396 -0.020908 0)
(1.03498 -0.0203931 0)
(1.03595 -0.0198338 0)
(1.03684 -0.019239 0)
(1.03767 -0.0186142 0)
(0.999998 -0.000538431 0)
(1.00006 -0.00170713 0)
(1.00019 -0.00292401 0)
(1.00038 -0.00415269 0)
(1.00065 -0.00535827 0)
(1.00098 -0.00652104 0)
(1.00137 -0.00763348 0)
(1.00182 -0.00869316 0)
(1.00233 -0.00970775 0)
(1.0029 -0.0106921 0)
(1.00352 -0.0116608 0)
(1.0042 -0.0126229 0)
(1.00495 -0.0135846 0)
(1.00577 -0.0145519 0)
(1.00665 -0.0155272 0)
(1.00761 -0.0165099 0)
(1.00865 -0.0174926 0)
(1.00977 -0.018467 0)
(1.01097 -0.0194217 0)
(1.01224 -0.0203453 0)
(1.01358 -0.0212245 0)
(1.01498 -0.0220451 0)
(1.01644 -0.0227941 0)
(1.01795 -0.0234593 0)
(1.0195 -0.0240312 0)
(1.02107 -0.0245017 0)
(1.02266 -0.0248656 0)
(1.02425 -0.0251188 0)
(1.02583 -0.0252607 0)
(1.02739 -0.0252914 0)
(1.02892 -0.0252149 0)
(1.03041 -0.0250348 0)
(1.03185 -0.0247582 0)
(1.03323 -0.0243911 0)
(1.03455 -0.0239429 0)
(1.0358 -0.0234205 0)
(1.03697 -0.0228346 0)
(1.03807 -0.0221923 0)
(1.0391 -0.0215044 0)
(1.04005 -0.0207773 0)
(0.999998 -0.000552615 0)
(1.00005 -0.0017577 0)
(1.00016 -0.0030194 0)
(1.00033 -0.00429598 0)
(1.00056 -0.00555154 0)
(1.00085 -0.00676867 0)
(1.0012 -0.00793692 0)
(1.0016 -0.0090518 0)
(1.00206 -0.0101247 0)
(1.00258 -0.011174 0)
(1.00314 -0.0122147 0)
(1.00378 -0.0132562 0)
(1.00449 -0.0143066 0)
(1.00527 -0.0153739 0)
(1.00612 -0.0164609 0)
(1.00706 -0.0175663 0)
(1.00809 -0.0186811 0)
(1.00922 -0.0197962 0)
(1.01043 -0.0208989 0)
(1.01174 -0.0219759 0)
(1.01313 -0.0230109 0)
(1.01461 -0.0239869 0)
(1.01616 -0.024888 0)
(1.01778 -0.0256989 0)
(1.01945 -0.026408 0)
(1.02116 -0.0270039 0)
(1.0229 -0.0274793 0)
(1.02466 -0.0278277 0)
(1.02642 -0.0280472 0)
(1.02817 -0.0281363 0)
(1.02989 -0.0280985 0)
(1.03158 -0.0279367 0)
(1.03321 -0.0276584 0)
(1.03479 -0.0272697 0)
(1.0363 -0.0267811 0)
(1.03773 -0.0262002 0)
(1.03908 -0.0255397 0)
(1.04036 -0.0248074 0)
(1.04154 -0.0240167 0)
(1.04263 -0.0231748 0)
(0.999998 -0.000562681 0)
(1.00003 -0.00179668 0)
(1.00012 -0.0030964 0)
(1.00026 -0.00441209 0)
(1.00046 -0.00571103 0)
(1.0007 -0.00697727 0)
(1.001 -0.00819406 0)
(1.00136 -0.00935692 0)
(1.00176 -0.0104832 0)
(1.00221 -0.0115937 0)
(1.00272 -0.0127025 0)
(1.0033 -0.0138203 0)
(1.00395 -0.0149583 0)
(1.00468 -0.0161272 0)
(1.00549 -0.0173295 0)
(1.0064 -0.0185632 0)
(1.00741 -0.0198182 0)
(1.00853 -0.0210854 0)
(1.00975 -0.0223504 0)
(1.01108 -0.0235979 0)
(1.01252 -0.0248084 0)
(1.01406 -0.0259617 0)
(1.0157 -0.0270392 0)
(1.01742 -0.0280222 0)
(1.01922 -0.0288957 0)
(1.02108 -0.0296448 0)
(1.02299 -0.0302595 0)
(1.02493 -0.03073 0)
(1.02689 -0.0310524 0)
(1.02885 -0.0312233 0)
(1.03079 -0.0312449 0)
(1.0327 -0.0311189 0)
(1.03456 -0.030853 0)
(1.03636 -0.0304528 0)
(1.0381 -0.0299299 0)
(1.03975 -0.0292926 0)
(1.04132 -0.0285555 0)
(1.04279 -0.0277274 0)
(1.04416 -0.0268245 0)
(1.04544 -0.0258549 0)
(0.999999 -0.000568359 0)
(1.00002 -0.00182478 0)
(1.00009 -0.00315504 0)
(1.0002 -0.0045005 0)
(1.00035 -0.00583765 0)
(1.00054 -0.00714694 0)
(1.00079 -0.00840328 0)
(1.00109 -0.00960684 0)
(1.00143 -0.0107816 0)
(1.00181 -0.0119479 0)
(1.00225 -0.0131194 0)
(1.00277 -0.0143092 0)
(1.00335 -0.0155329 0)
(1.00401 -0.0168033 0)
(1.00477 -0.0181224 0)
(1.00562 -0.0194883 0)
(1.0066 -0.0208902 0)
(1.00769 -0.0223199 0)
(1.00891 -0.0237609 0)
(1.01025 -0.0251958 0)
(1.01172 -0.0266018 0)
(1.01331 -0.0279558 0)
(1.01503 -0.029236 0)
(1.01685 -0.0304198 0)
(1.01878 -0.0314888 0)
(1.02079 -0.0324232 0)
(1.02288 -0.0332097 0)
(1.02502 -0.0338346 0)
(1.02719 -0.0342913 0)
(1.02938 -0.0345733 0)
(1.03157 -0.034681 0)
(1.03373 -0.0346143 0)
(1.03586 -0.03438 0)
(1.03793 -0.0339834 0)
(1.03993 -0.0334367 0)
(1.04184 -0.0327485 0)
(1.04366 -0.0319356 0)
(1.04538 -0.0310076 0)
(1.04698 -0.029984 0)
(1.04847 -0.0288737 0)
(0.999999 -0.000569342 0)
(1.00001 -0.00184306 0)
(1.00005 -0.00319484 0)
(1.00013 -0.0045614 0)
(1.00024 -0.0059333 0)
(1.00038 -0.00727744 0)
(1.00057 -0.0085633 0)
(1.00081 -0.00980101 0)
(1.00107 -0.0110187 0)
(1.00138 -0.012234 0)
(1.00175 -0.0134613 0)
(1.00218 -0.0147183 0)
(1.00268 -0.0160245 0)
(1.00327 -0.017394 0)
(1.00394 -0.018829 0)
(1.00474 -0.0203289 0)
(1.00566 -0.0218828 0)
(1.00671 -0.0234838 0)
(1.0079 -0.0251131 0)
(1.00923 -0.0267513 0)
(1.01071 -0.0283727 0)
(1.01235 -0.0299512 0)
(1.01413 -0.0314622 0)
(1.01605 -0.0328781 0)
(1.0181 -0.0341767 0)
(1.02026 -0.0353328 0)
(1.02253 -0.0363291 0)
(1.02487 -0.0371468 0)
(1.02728 -0.0377758 0)
(1.02972 -0.0382053 0)
(1.03219 -0.038433 0)
(1.03464 -0.0384559 0)
(1.03707 -0.0382797 0)
(1.03945 -0.0379079 0)
(1.04176 -0.0373534 0)
(1.04398 -0.0366247 0)
(1.0461 -0.0357405 0)
(1.04811 -0.0347112 0)
(1.04999 -0.03356 0)
(1.05175 -0.0322966 0)
(0.999999 -0.000565384 0)
(0.99999 -0.00185269 0)
(1.00001 -0.0032147 0)
(1.00006 -0.00459649 0)
(1.00011 -0.0060003 0)
(1.0002 -0.00736777 0)
(1.00034 -0.00867389 0)
(1.00051 -0.00993992 0)
(1.0007 -0.0111935 0)
(1.00092 -0.0124497 0)
(1.0012 -0.0137253 0)
(1.00154 -0.0150438 0)
(1.00195 -0.0164278 0)
(1.00244 -0.0178919 0)
(1.00303 -0.0194395 0)
(1.00374 -0.0210726 0)
(1.00459 -0.0227813 0)
(1.00557 -0.0245602 0)
(1.00671 -0.0263877 0)
(1.00802 -0.0282435 0)
(1.00949 -0.0300992 0)
(1.01115 -0.0319263 0)
(1.01298 -0.0336967 0)
(1.01498 -0.0353781 0)
(1.01714 -0.0369436 0)
(1.01945 -0.0383622 0)
(1.02189 -0.0396116 0)
(1.02446 -0.0406671 0)
(1.02711 -0.0415137 0)
(1.02983 -0.0421352 0)
(1.0326 -0.0425254 0)
(1.03538 -0.0426769 0)
(1.03815 -0.0425933 0)
(1.04088 -0.0422756 0)
(1.04355 -0.0417366 0)
(1.04613 -0.0409838 0)
(1.04861 -0.0400381 0)
(1.05097 -0.03891 0)
(1.05319 -0.0376269 0)
(1.05527 -0.0361994 0)
(0.999999 -0.000556403 0)
(0.999973 -0.00185439 0)
(0.999978 -0.00321328 0)
(0.999981 -0.00460947 0)
(0.999979 -0.00604001 0)
(1.00002 -0.00741656 0)
(1.00011 -0.00873642 0)
(1.0002 -0.0100244 0)
(1.0003 -0.0113057 0)
(1.00043 -0.0125938 0)
(1.00062 -0.0139098 0)
(1.00086 -0.0152832 0)
(1.00117 -0.0167381 0)
(1.00155 -0.01829 0)
(1.00203 -0.0199449 0)
(1.00264 -0.0217078 0)
(1.00339 -0.0235711 0)
(1.00429 -0.0255312 0)
(1.00536 -0.0275641 0)
(1.0066 -0.0296495 0)
(1.00805 -0.0317566 0)
(1.0097 -0.0338554 0)
(1.01155 -0.0359139 0)
(1.01361 -0.0378952 0)
(1.01587 -0.0397673 0)
(1.01831 -0.0414932 0)
(1.02093 -0.0430446 0)
(1.02371 -0.0443897 0)
(1.02662 -0.0455075 0)
(1.02964 -0.0463745 0)
(1.03274 -0.0469794 0)
(1.03588 -0.0473087 0)
(1.03903 -0.0473627 0)
(1.04217 -0.0471382 0)
(1.04526 -0.0466471 0)
(1.04827 -0.0458949 0)
(1.05117 -0.0449039 0)
(1.05394 -0.0436851 0)
(1.05657 -0.0422696 0)
(1.05903 -0.0406692 0)
(0.999998 -0.0005423 0)
(0.999955 -0.00184831 0)
(0.999941 -0.0031899 0)
(0.999894 -0.00460599 0)
(0.999844 -0.0060515 0)
(0.999843 -0.00742342 0)
(0.999861 -0.00875373 0)
(0.999869 -0.010055 0)
(0.999881 -0.0113556 0)
(0.999926 -0.0126665 0)
(1.00001 -0.0140146 0)
(1.00015 -0.0154352 0)
(1.00033 -0.0169516 0)
(1.0006 -0.0185827 0)
(1.00096 -0.0203375 0)
(1.00145 -0.0222245 0)
(1.00207 -0.0242389 0)
(1.00286 -0.0263794 0)
(1.00383 -0.0286209 0)
(1.00499 -0.0309445 0)
(1.00638 -0.0333174 0)
(1.00799 -0.0357088 0)
(1.00983 -0.0380828 0)
(1.01192 -0.0403985 0)
(1.01425 -0.0426188 0)
(1.01681 -0.0447003 0)
(1.0196 -0.0466078 0)
(1.02259 -0.0483014 0)
(1.02576 -0.0497524 0)
(1.02909 -0.0509287 0)
(1.03254 -0.0518118 0)
(1.03608 -0.0523804 0)
(1.03966 -0.0526291 0)
(1.04326 -0.0525491 0)
(1.04683 -0.0521495 0)
(1.05033 -0.0514329 0)
(1.05373 -0.050422 0)
(1.057 -0.0491276 0)
(1.06011 -0.0475844 0)
(1.06304 -0.0458059 0)
(0.999995 -0.000522381 0)
(0.999936 -0.00183421 0)
(0.999901 -0.00314525 0)
(0.999796 -0.00459241 0)
(0.999707 -0.00603076 0)
(0.999661 -0.00739091 0)
(0.999607 -0.00872863 0)
(0.999532 -0.010032 0)
(0.999452 -0.0113454 0)
(0.999402 -0.0126689 0)
(0.999383 -0.0140409 0)
(0.999397 -0.0154993 0)
(0.999459 -0.0170658 0)
(0.999591 -0.018766 0)
(0.999817 -0.0206107 0)
(1.00017 -0.0226136 0)
(1.00065 -0.0247722 0)
(1.0013 -0.0270879 0)
(1.00213 -0.0295366 0)
(1.00318 -0.0321027 0)
(1.00447 -0.0347518 0)
(1.006 -0.0374534 0)
(1.00781 -0.0401676 0)
(1.00989 -0.0428513 0)
(1.01226 -0.0454617 0)
(1.0149 -0.0479494 0)
(1.01783 -0.0502716 0)
(1.02102 -0.0523797 0)
(1.02446 -0.0542351 0)
(1.0281 -0.0557957 0)
(1.03193 -0.0570331 0)
(1.03589 -0.0579163 0)
(1.03996 -0.0584316 0)
(1.04407 -0.0585624 0)
(1.04819 -0.0583123 0)
(1.05226 -0.0576795 0)
(1.05625 -0.0566853 0)
(1.0601 -0.0553399 0)
(1.06379 -0.0536807 0)
(1.06728 -0.0517235 0)
(0.99999 -0.000494467 0)
(0.999915 -0.00181272 0)
(0.999853 -0.00308075 0)
(0.999688 -0.00457408 0)
(0.999573 -0.00597083 0)
(0.999473 -0.00732618 0)
(0.999347 -0.00866138 0)
(0.999187 -0.00995739 0)
(0.999014 -0.0112788 0)
(0.998867 -0.0126026 0)
(0.998734 -0.0139913 0)
(0.998625 -0.0154758 0)
(0.998554 -0.0170795 0)
(0.998544 -0.0188379 0)
(0.99862 -0.0207596 0)
(0.99881 -0.0228675 0)
(0.999129 -0.0251595 0)
(0.999611 -0.0276416 0)
(1.00028 -0.0302912 0)
(1.00118 -0.0330984 0)
(1.00233 -0.0360286 0)
(1.00375 -0.0390529 0)
(1.00546 -0.0421284 0)
(1.0075 -0.0452107 0)
(1.00986 -0.0482519 0)
(1.01256 -0.0511977 0)
(1.0156 -0.0539966 0)
(1.01896 -0.0565912 0)
(1.02264 -0.0589314 0)
(1.0266 -0.0609631 0)
(1.03081 -0.0626455 0)
(1.03524 -0.0639349 0)
(1.03982 -0.0648061 0)
(1.04451 -0.0652316 0)
(1.04926 -0.0652065 0)
(1.05399 -0.0647222 0)
(1.05866 -0.063796 0)
(1.0632 -0.0624364 0)
(1.06758 -0.0606821 0)
(1.07174 -0.0585517 0)
(0.999982 -0.000454109 0)
(0.999891 -0.00178918 0)
(0.99979 -0.00299645 0)
(0.999573 -0.00455547 0)
(0.999445 -0.0058625 0)
(0.999278 -0.00724187 0)
(0.999084 -0.00854684 0)
(0.998836 -0.00983876 0)
(0.998569 -0.011158 0)
(0.998325 -0.0124708 0)
(0.998074 -0.0138693 0)
(0.99784 -0.0153657 0)
(0.997629 -0.0169938 0)
(0.997466 -0.0187982 0)
(0.99738 -0.0207805 0)
(0.997393 -0.0229814 0)
(0.997527 -0.0253906 0)
(0.997817 -0.0280274 0)
(0.998296 -0.0308664 0)
(0.999002 -0.0339079 0)
(0.999967 -0.0371165 0)
(1.00122 -0.0404694 0)
(1.0028 -0.0439214 0)
(1.00473 -0.0474284 0)
(1.00704 -0.0509382 0)
(1.00973 -0.0543927 0)
(1.01283 -0.057732 0)
(1.01633 -0.0608902 0)
(1.02023 -0.0638039 0)
(1.02449 -0.0664061 0)
(1.0291 -0.0686395 0)
(1.034 -0.0704454 0)
(1.03915 -0.0717824 0)
(1.04448 -0.0726085 0)
(1.04992 -0.0729057 0)
(1.05541 -0.0726552 0)
(1.06087 -0.0718668 0)
(1.06623 -0.0705452 0)
(1.07143 -0.0687287 0)
(1.0764 -0.0664389 0)
(0.999973 -0.000394162 0)
(0.999861 -0.00177789 0)
(0.999714 -0.00288751 0)
(0.999455 -0.00454245 0)
(0.999324 -0.00569466 0)
(0.999074 -0.00715656 0)
(0.998826 -0.00837227 0)
(0.998479 -0.00969332 0)
(0.998128 -0.0109779 0)
(0.997782 -0.0122821 0)
(0.997411 -0.0136762 0)
(0.997051 -0.0151723 0)
(0.996694 -0.0168108 0)
(0.996371 -0.018649 0)
(0.996112 -0.0206712 0)
(0.995931 -0.0229535 0)
(0.995862 -0.0254564 0)
(0.995935 -0.0282357 0)
(0.996191 -0.0312442 0)
(0.996667 -0.0345104 0)
(0.997406 -0.0379854 0)
(0.998447 -0.041666 0)
(0.999833 -0.0455001 0)
(1.0016 -0.0494514 0)
(1.00378 -0.0534619 0)
(1.00641 -0.0574725 0)
(1.00951 -0.0614153 0)
(1.01309 -0.0652169 0)
(1.01716 -0.0688 0)
(1.0217 -0.0720836 0)
(1.02669 -0.0749909 0)
(1.03207 -0.0774445 0)
(1.03782 -0.0793813 0)
(1.04384 -0.0807404 0)
(1.05007 -0.0814844 0)
(1.05642 -0.0815794 0)
(1.0628 -0.0810224 0)
(1.06912 -0.0798113 0)
(1.07529 -0.0779806 0)
(1.08123 -0.075555 0)
(0.999965 -0.000305652 0)
(0.999823 -0.00179943 0)
(0.999631 -0.00274078 0)
(0.999343 -0.00454518 0)
(0.999213 -0.00545406 0)
(0.998861 -0.00709439 0)
(0.998581 -0.00811661 0)
(0.998115 -0.00955053 0)
(0.997702 -0.0107197 0)
(0.997241 -0.0120582 0)
(0.996757 -0.0134034 0)
(0.996267 -0.0149075 0)
(0.99576 -0.0165293 0)
(0.995274 -0.0183962 0)
(0.99483 -0.0204291 0)
(0.994444 -0.0227865 0)
(0.994156 -0.0253478 0)
(0.993987 -0.0282632 0)
(0.993992 -0.0314061 0)
(0.994201 -0.0348905 0)
(0.994671 -0.0386046 0)
(0.99544 -0.0426103 0)
(0.99657 -0.0468157 0)
(0.9981 -0.0512244 0)
(1.00009 -0.0557567 0)
(1.00257 -0.0603658 0)
(1.0056 -0.0649716 0)
(1.00919 -0.0694969 0)
(1.01336 -0.07385 0)
(1.01812 -0.0779362 0)
(1.02346 -0.0816564 0)
(1.02932 -0.0849113 0)
(1.03568 -0.0876096 0)
(1.04245 -0.0896659 0)
(1.04956 -0.0910153 0)
(1.05688 -0.0916016 0)
(1.06432 -0.0914015 0)
(1.07176 -0.0904003 0)
(1.07909 -0.088624 0)
(1.08619 -0.0860987 0)
(0.999969 -0.000182874 0)
(0.999774 -0.00187219 0)
(0.999557 -0.00253789 0)
(0.999236 -0.00457886 0)
(0.999119 -0.00512716 0)
(0.998639 -0.00708284 0)
(0.998366 -0.00775394 0)
(0.997741 -0.00945031 0)
(0.997311 -0.0103493 0)
(0.996699 -0.0118408 0)
(0.996134 -0.0130235 0)
(0.995491 -0.0146022 0)
(0.994847 -0.0161337 0)
(0.994184 -0.0180592 0)
(0.993556 -0.0200441 0)
(0.992949 -0.0224932 0)
(0.992433 -0.0250508 0)
(0.991997 -0.0281169 0)
(0.991731 -0.0313284 0)
(0.99163 -0.0350445 0)
(0.991795 -0.038937 0)
(0.992231 -0.0432804 0)
(0.993045 -0.0478139 0)
(0.994258 -0.052698 0)
(0.99597 -0.0577452 0)
(0.998215 -0.0629945 0)
(1.00107 -0.0683095 0)
(1.00457 -0.0736395 0)
(1.00876 -0.0788647 0)
(1.01366 -0.0838835 0)
(1.01929 -0.088571 0)
(1.0256 -0.0928032 0)
(1.03258 -0.0964551 0)
(1.04013 -0.0994095 0)
(1.04819 -0.101564 0)
(1.0566 -0.10283 0)
(1.06527 -0.103154 0)
(1.07402 -0.1025 0)
(1.08272 -0.100875 0)
(1.09122 -0.0983051 0)
(1.00001 -2.72948e-05 0)
(0.9997 -0.00200206 0)
(0.999528 -0.00226537 0)
(0.999119 -0.00465762 0)
(0.999066 -0.00470569 0)
(0.998395 -0.00714433 0)
(0.998204 -0.00726238 0)
(0.997346 -0.00943195 0)
(0.996988 -0.00982699 0)
(0.99614 -0.0116863 0)
(0.995574 -0.01249 0)
(0.994711 -0.0143145 0)
(0.993984 -0.0155842 0)
(0.993099 -0.0176853 0)
(0.992315 -0.0194857 0)
(0.991455 -0.0221095 0)
(0.990721 -0.0245365 0)
(0.989982 -0.0278258 0)
(0.989441 -0.030973 0)
(0.988981 -0.0349927 0)
(0.988818 -0.0389277 0)
(0.98885 -0.0436792 0)
(0.989301 -0.0484205 0)
(0.990097 -0.0538459 0)
(0.991452 -0.0593278 0)
(0.993335 -0.0652872 0)
(0.995914 -0.0713078 0)
(0.999197 -0.0775397 0)
(1.0033 -0.0837235 0)
(1.00823 -0.0898198 0)
(1.01405 -0.0956427 0)
(1.02075 -0.101054 0)
(1.02831 -0.105885 0)
(1.03667 -0.109979 0)
(1.04573 -0.113186 0)
(1.05537 -0.115374 0)
(1.06543 -0.116441 0)
(1.07572 -0.116318 0)
(1.08606 -0.114981 0)
(1.09624 -0.112448 0)
(1.00014 0.00014855 0)
(0.999554 -0.00217893 0)
(0.999606 -0.00192686 0)
(0.998939 -0.00478266 0)
(0.999111 -0.00419587 0)
(0.998087 -0.00728261 0)
(0.998152 -0.00663737 0)
(0.99689 -0.00951466 0)
(0.996782 -0.00912735 0)
(0.995523 -0.0116408 0)
(0.99513 -0.0117555 0)
(0.993886 -0.014113 0)
(0.993224 -0.0148221 0)
(0.991985 -0.0173499 0)
(0.991158 -0.0186963 0)
(0.98994 -0.0217076 0)
(0.989067 -0.0237486 0)
(0.987935 -0.0274583 0)
(0.987171 -0.0302734 0)
(0.986258 -0.0348006 0)
(0.985796 -0.0384871 0)
(0.985308 -0.0438627 0)
(0.985397 -0.048515 0)
(0.985632 -0.054699 0)
(0.986591 -0.0603534 0)
(0.987934 -0.0672248 0)
(0.990148 -0.0737826 0)
(0.993028 -0.0811064 0)
(0.996906 -0.0882374 0)
(1.00171 -0.095615 0)
(1.0076 -0.102725 0)
(1.01458 -0.109562 0)
(1.02266 -0.115839 0)
(1.0318 -0.121369 0)
(1.04192 -0.125937 0)
(1.05289 -0.12935 0)
(1.06453 -0.131445 0)
(1.07662 -0.132097 0)
(1.0889 -0.131233 0)
(1.10112 -0.128848 0)
(1.00045 0.000328741 0)
(0.999241 -0.00237827 0)
(0.999902 -0.00154517 0)
(0.998585 -0.0049354 0)
(0.999364 -0.0036249 0)
(0.997608 -0.00747432 0)
(0.998313 -0.005904 0)
(0.996275 -0.00968145 0)
(0.996793 -0.00826242 0)
(0.994752 -0.011709 0)
(0.994897 -0.0108055 0)
(0.992918 -0.0140333 0)
(0.992663 -0.0138054 0)
(0.990748 -0.0171184 0)
(0.990178 -0.0176144 0)
(0.988322 -0.0213734 0)
(0.987565 -0.0226116 0)
(0.985792 -0.0271156 0)
(0.985015 -0.0291331 0)
(0.983413 -0.0345873 0)
(0.982827 -0.0374789 0)
(0.981573 -0.0439698 0)
(0.981441 -0.047903 0)
(0.980837 -0.0554025 0)
(0.981494 -0.0605642 0)
(0.981983 -0.0689241 0)
(0.983857 -0.0754192 0)
(0.985991 -0.0843698 0)
(0.989592 -0.0920612 0)
(0.993948 -0.101179 0)
(0.999801 -0.10952 0)
(1.00683 -0.118187 0)
(1.01534 -0.126167 0)
(1.0252 -0.133533 0)
(1.0364 -0.139867 0)
(1.0488 -0.144904 0)
(1.06221 -0.148409 0)
(1.07639 -0.150162 0)
(1.09101 -0.15002 0)
(1.10571 -0.147936 0)
(1.00107 0.000499812 0)
(0.998619 -0.00257192 0)
(1.00056 -0.00115434 0)
(0.997888 -0.00508533 0)
(0.999992 -0.00303772 0)
(0.996785 -0.00767355 0)
(0.998857 -0.00511801 0)
(0.995331 -0.00987866 0)
(0.997183 -0.00729152 0)
(0.993659 -0.011842 0)
(0.995038 -0.00968649 0)
(0.991637 -0.0140456 0)
(0.992466 -0.0125557 0)
(0.989211 -0.0169912 0)
(0.989551 -0.0162324 0)
(0.986423 -0.0211409 0)
(0.986398 -0.0210882 0)
(0.983377 -0.0268658 0)
(0.983169 -0.027477 0)
(0.980284 -0.0344642 0)
(0.980122 -0.0357652 0)
(0.977494 -0.0441755 0)
(0.977659 -0.0463435 0)
(0.975572 -0.0562116 0)
(0.976401 -0.0595777 0)
(0.975345 -0.070713 0)
(0.97727 -0.0756891 0)
(0.977932 -0.0876648 0)
(0.981512 -0.0945455 0)
(0.984721 -0.106715 0)
(0.990623 -0.115365 0)
(0.997174 -0.126905 0)
(1.00607 -0.136398 0)
(1.01641 -0.146359 0)
(1.02869 -0.154897 0)
(1.04261 -0.16214 0)
(1.05801 -0.167628 0)
(1.07462 -0.170935 0)
(1.09204 -0.17189 0)
(1.10981 -0.17033 0)
(1.00206 0.000652586 0)
(0.997563 -0.0027403 0)
(1.00171 -0.000784584 0)
(0.996687 -0.00520306 0)