/*--------------------------------*- C++ -*----------------------------------*\
| =========                 |                                                 |
| \\      /  F ield         | OpenFOAM: The Open Source CFD Toolbox           |
|  \\    /   O peration     | Version:  2512                                  |
|   \\  /    A nd           | Website:  www.openfoam.com                      |
|    \\/     M anipulation  |                                                 |
\*---------------------------------------------------------------------------*/
FoamFile
{
    version     2.0;
    format      ascii;
    arch        "LSB;label=32;scalar=64";
    class       volScalarField;
    location    "58";
    object      p;
}
// * * * * * * * * * * * * * * * * * * * * * * * * * * * * * * * * * * * * * //

dimensions      [0 2 -2 0 0 0 0];

internalField   nonuniform List<scalar> 
9800
(
0.0512351
0.0511195
0.0508994
0.0505856
0.0501878
0.0497151
0.0491758
0.0485772
0.0479262
0.0472293
0.0464929
0.0457231
0.0449258
0.0441068
0.0432716
0.0424257
0.0415742
0.040722
0.0398734
0.0390326
0.0382033
0.0373886
0.0365916
0.0358146
0.0350597
0.0343286
0.0336226
0.0329426
0.0322895
0.0316637
0.0310652
0.030494
0.02995
0.0294328
0.0289417
0.0284763
0.0280357
0.0276191
0.0272257
0.0268545
0.0513508
0.0512356
0.0510162
0.0507033
0.0503065
0.0498348
0.0492962
0.048698
0.0480468
0.0473491
0.0466111
0.0458388
0.0450382
0.0442148
0.0433742
0.042522
0.0416633
0.040803
0.0399456
0.0390952
0.0382557
0.0374303
0.0366221
0.0358337
0.0350672
0.0343244
0.0336068
0.0329154
0.032251
0.0316141
0.0310049
0.0304236
0.0298697
0.0293432
0.0288433
0.0283696
0.0279212
0.0274974
0.0270972
0.0267198
0.0515698
0.0514553
0.0512374
0.0509263
0.0505316
0.0500619
0.049525
0.0489278
0.0482767
0.0475777
0.046837
0.0460604
0.0452536
0.0444222
0.0435719
0.042708
0.0418358
0.0409602
0.040086
0.0392174
0.0383583
0.0375125
0.036683
0.0358726
0.0350838
0.0343185
0.0335784
0.0328647
0.0321785
0.0315203
0.0308904
0.0302891
0.0297162
0.0291714
0.0286544
0.0281644
0.0277008
0.0272628
0.0268495
0.0264599
0.0518802
0.051767
0.0515513
0.0512432
0.0508519
0.0503857
0.0498518
0.0492566
0.0486062
0.0479062
0.0471624
0.0463804
0.0455656
0.0447235
0.0438597
0.0429796
0.0420885
0.0411916
0.0402935
0.0393989
0.038512
0.0376366
0.0367762
0.035934
0.0351127
0.0343146
0.0335415
0.0327952
0.0320767
0.031387
0.0307266
0.0300958
0.0294945
0.0289227
0.02838
0.0278658
0.0273796
0.0269204
0.0264874
0.0260797
0.0522707
0.0521594
0.0519469
0.0516433
0.0512571
0.050796
0.0502669
0.0496755
0.0490273
0.0483272
0.0475807
0.046793
0.0459693
0.0451148
0.044235
0.0433353
0.042421
0.0414973
0.0405693
0.0396418
0.0387193
0.0378059
0.0369058
0.0360223
0.0351587
0.0343175
0.0335013
0.0327118
0.0319508
0.0312193
0.0305182
0.029848
0.029209
0.028601
0.0280239
0.0274772
0.0269604
0.0264727
0.0260132
0.0255809
0.0527306
0.0526218
0.0524138
0.0521163
0.0517372
0.0512838
0.0507618
0.0501765
0.0495325
0.0488343
0.0480865
0.0472939
0.0464614
0.0455939
0.0446966
0.0437749
0.0428341
0.0418795
0.0409165
0.03995
0.0389849
0.0380259
0.0370775
0.0361436
0.0352279
0.0343337
0.0334638
0.0326207
0.0318063
0.0310224
0.03027
0.0295501
0.0288631
0.0282092
0.0275883
0.0270002
0.0264443
0.0259201
0.0254266
0.0249628
0.0532498
0.0531442
0.0529421
0.0526527
0.0522833
0.0518401
0.0513283
0.0507522
0.0501154
0.0494216
0.0486749
0.0478793
0.0470393
0.0461595
0.0452446
0.0442997
0.0433303
0.0423418
0.0413396
0.040329
0.0393151
0.0383033
0.0372986
0.0363054
0.0353282
0.0343708
0.0334366
0.0325288
0.0316499
0.0308022
0.0299873
0.0292064
0.0284605
0.0277499
0.0270749
0.0264354
0.0258311
0.0252614
0.0247256
0.0242225
0.0538185
0.053717
0.0535225
0.0532433
0.0528864
0.0524569
0.0519588
0.0513954
0.0507695
0.0500839
0.0493416
0.0485462
0.0477013
0.046811
0.0458795
0.0449118
0.0439131
0.0428889
0.0418445
0.0407856
0.0397177
0.0386466
0.037578
0.0365171
0.0354689
0.0344379
0.0334285
0.0324445
0.0314892
0.0305656
0.0296758
0.0288218
0.0280048
0.0272257
0.0264851
0.0257832
0.0251198
0.0244946
0.0239068
0.0233555
0.0544277
0.0543312
0.0541459
0.0538796
0.0535382
0.0531259
0.0526456
0.0520994
0.051489
0.0508161
0.0500827
0.0492915
0.0484456
0.0475481
0.0466027
0.0456138
0.0445866
0.0435262
0.042438
0.0413278
0.0402015
0.0390656
0.0379263
0.0367895
0.0356608
0.0345459
0.03345
0.0323777
0.0313335
0.0303208
0.0293429
0.0284021
0.0275006
0.0266397
0.0258205
0.0250434
0.0243088
0.0236164
0.0229657
0.0223559
0.0550688
0.0549783
0.054804
0.0545531
0.0542306
0.0538395
0.0533814
0.0528575
0.0522677
0.0516128
0.0508938
0.0501125
0.0492707
0.0483706
0.0474153
0.0464086
0.0453552
0.0442598
0.0431276
0.0419644
0.0407768
0.0395716
0.0383554
0.037135
0.0359168
0.0347076
0.0335135
0.0323404
0.0311936
0.0300778
0.0289969
0.0279544
0.0269532
0.0259956
0.0250829
0.0242164
0.0233966
0.0226236
0.0218972
0.0212167
0.0557336
0.05565
0.0554887
0.0552561
0.0549559
0.0545899
0.0541591
0.0536627
0.0530995
0.0524686
0.0517706
0.0510059
0.0501747
0.0492781
0.0483184
0.0472991
0.0462237
0.0450962
0.0439214
0.0427052
0.0414547
0.0401768
0.0388788
0.0375678
0.0362515
0.0349375
0.0336335
0.0323464
0.0310827
0.0298483
0.0286484
0.0274875
0.0263698
0.0252983
0.0242754
0.0233028
0.0223816
0.0215125
0.0206955
0.0199303
0.0564146
0.0563389
0.0561925
0.0559808
0.0557064
0.05537
0.0549713
0.0545082
0.0539777
0.053378
0.0527085
0.051968
0.051155
0.0502694
0.0493129
0.0482879
0.0471965
0.0460415
0.0448275
0.0435604
0.0422471
0.040895
0.0395111
0.0381037
0.0366812
0.0352526
0.0338268
0.0324121
0.0310163
0.0296467
0.0283101
0.0270124
0.0257592
0.0245546
0.0234021
0.0223043
0.021263
0.0202796
0.0193546
0.0184881
0.0571047
0.0570379
0.0569083
0.0567203
0.056475
0.0561725
0.0558113
0.0553871
0.0548956
0.0543347
0.0537023
0.0529946
0.0522085
0.051343
0.0503989
0.0493769
0.0482773
0.0471017
0.0458541
0.0445402
0.0431667
0.0417403
0.0402685
0.03876
0.0372245
0.035672
0.0341128
0.0325566
0.0310126
0.0294901
0.0279975
0.0265427
0.0251326
0.0237731
0.022469
0.0212239
0.0200409
0.0189219
0.0178684
0.0168811
0.0577975
0.0577405
0.0576296
0.0574677
0.0572547
0.0569906
0.0566719
0.0562919
0.0558462
0.0553325
0.0547461
0.0540805
0.0533311
0.0524963
0.0515755
0.0505671
0.0494691
0.0482819
0.0470089
0.0456551
0.0442261
0.0427279
0.041168
0.0395557
0.0379017
0.0362172
0.0345134
0.0328016
0.031093
0.0293987
0.0277294
0.0260949
0.0245043
0.0229651
0.0214841
0.0200664
0.0187164
0.0174372
0.0162313
0.0151001
0.0584872
0.0584409
0.0583505
0.0582166
0.0580392
0.057818
0.0575462
0.0572156
0.0568226
0.0563645
0.0558333
0.0552196
0.0545179
0.0537259
0.052841
0.0518582
0.0507736
0.0495863
0.0482989
0.0469149
0.0454378
0.0438729
0.0422274
0.0405111
0.0387353
0.0369119
0.0350533
0.0331724
0.0312823
0.0293965
0.0275281
0.0256895
0.0238918
0.0221452
0.0204584
0.0188388
0.0172926
0.0158244
0.014438
0.0131357
0.0591682
0.0591338
0.0590652
0.0589611
0.0588227
0.0586484
0.0584271
0.0581506
0.0578178
0.0574238
0.0569566
0.0564049
0.0557629
0.0550272
0.0541918
0.0532485
0.0521912
0.0510181
0.0497302
0.0483282
0.0468137
0.0451904
0.0434651
0.0416476
0.0397491
0.0377821
0.03576
0.0336972
0.0316091
0.0295116
0.0274204
0.0253508
0.0233169
0.0213314
0.0194061
0.0175511
0.0157748
0.014084
0.0124838
0.0109784
0.0598361
0.0598146
0.0597687
0.0596959
0.0596001
0.0594758
0.0593075
0.0590903
0.058825
0.0585028
0.0581079
0.0576286
0.0570593
0.0563941
0.0556229
0.0547343
0.0537206
0.0525787
0.0513068
0.0499025
0.0483646
0.046695
0.0448996
0.0429871
0.0409685
0.038856
0.0366639
0.0344081
0.0321061
0.0297764
0.0274377
0.0251084
0.0228059
0.0205466
0.0183457
0.0162167
0.014171
0.0122181
0.0103655
0.00861899
0.0604866
0.0604791
0.0604564
0.0604167
0.060367
0.060294
0.0601805
0.060028
0.0598372
0.0595937
0.0592791
0.0588828
0.0583992
0.0578189
0.0571273
0.0563102
0.0553587
0.0542674
0.053031
0.0516432
0.0500996
0.0484001
0.0465486
0.044552
0.0424197
0.0401635
0.0377981
0.0353405
0.0328102
0.0302283
0.0276166
0.0249969
0.0223907
0.0198188
0.0173003
0.0148531
0.0124925
0.0102316
0.00808077
0.0060485
0.0611163
0.0611236
0.061124
0.0611201
0.0611191
0.0610968
0.0610402
0.060958
0.0608473
0.0606882
0.0604617
0.0601592
0.0597739
0.0592923
0.0586961
0.057969
0.0571
0.0560811
0.0549024
0.0535533
0.0520261
0.0503178
0.048429
0.0463639
0.0441295
0.0417362
0.0391983
0.0365336
0.0337631
0.0309102
0.0279997
0.0250576
0.0221099
0.0191821
0.0162988
0.0134829
0.0107548
0.00813211
0.00562931
0.00325832
0.0617221
0.0617451
0.0617685
0.0618037
0.0618519
0.0618782
0.0618813
0.0618745
0.0618482
0.0617784
0.0616476
0.0614491
0.0611736
0.0608038
0.060319
0.0597011
0.0589369
0.058014
0.0569176
0.055633
0.0541485
0.0524572
0.0505556
0.0484435
0.0461244
0.0436065
0.0409025
0.03803
0.0350109
0.0318703
0.0286363
0.0253388
0.0220089
0.018678
0.015377
0.0121348
0.00897822
0.00593087
0.0030127
0.000240239
0.062301
0.0623409
0.062388
0.0624658
0.0625606
0.062633
0.0626999
0.0627719
0.0628329
0.0628569
0.0628288
0.0627433
0.0625877
0.0623423
0.0619846
0.0614953
0.0608586
0.0600569
0.0590702
0.0578791
0.056468
0.0548247
0.0529403
0.0508091
0.0484299
0.0458069
0.04295
0.0398753
0.0366043
0.0331632
0.0295827
0.0258968
0.0221422
0.0183567
0.0145784
0.0108443
0.00718875
0.00364319
0.000234786
-0.0030137
0.0628505
0.0629094
0.0629819
0.0631046
0.0632397
0.0633574
0.0634924
0.0636446
0.0637953
0.0639167
0.0639971
0.0640322
0.0640053
0.0638961
0.0636807
0.0633388
0.0628518
0.0621973
0.0613497
0.0602847
0.0589817
0.0574224
0.0555914
0.0534763
0.0510695
0.0483694
0.0453814
0.0421179
0.0385985
0.0348494
0.030903
0.026797
0.0225736
0.0182779
0.0139564
0.00965552
0.00541948
0.00128943
-0.00269799
-0.00651151
0.0633677
0.0634506
0.0635503
0.0637177
0.0638842
0.0640496
0.0642553
0.0644877
0.0647303
0.064951
0.0651449
0.0653061
0.0654153
0.0654532
0.065394
0.0652174
0.0649016
0.0644198
0.063742
0.0628384
0.061682
0.0602477
0.0585125
0.0564563
0.0540633
0.051324
0.0482365
0.0448076
0.0410527
0.0369958
0.0326697
0.0281148
0.0233785
0.0185134
0.0135758
0.00862306
0.0037118
-0.00110432
-0.00577642
-0.0102617
0.0638502
0.0639654
0.0640934
0.0643016
0.0644901
0.064709
0.0649848
0.0652977
0.0656331
0.0659535
0.0662648
0.0665554
0.0668069
0.0670015
0.0671106
0.0671159
0.066991
0.066707
0.0662292
0.0655235
0.0645556
0.0632921
0.0617017
0.0597549
0.0574265
0.0546966
0.0515537
0.0479953
0.0440295
0.0396755
0.0349641
0.0299367
0.0246448
0.0191485
0.0135146
0.00781367
0.00211722
-0.00350506
-0.00898821
-0.0142741
0.0642968
0.0644551
0.0646099
0.0648527
0.0650554
0.0653363
0.0656771
0.0660728
0.0664988
0.0669186
0.0673497
0.067771
0.0681702
0.0685288
0.0688162
0.0690182
0.0691018
0.0690396
0.0687908
0.0683195
0.0675829
0.0665405
0.0651498
0.0633713
0.0611681
0.0585083
0.0553674
0.0517302
0.0475934
0.0429674
0.0378771
0.032362
0.0264758
0.0202853
0.0138679
0.00730939
0.000699486
-0.00587173
-0.0123182
-0.0185612
0.0647091
0.0649209
0.0650963
0.0653676
0.06558
0.0659324
0.0663289
0.0668123
0.0673215
0.0678427
0.0683928
0.0689452
0.0694959
0.070023
0.0704967
0.0709077
0.0712144
0.0713968
0.0714032
0.0712023
0.070739
0.0699705
0.0688393
0.0672961
0.0652891
0.0627726
0.0597061
0.056058
0.0518087
0.0469543
0.0415083
0.0355036
0.0289925
0.0220459
0.0147518
0.00721209
-0.00046152
-0.00815314
-0.0157488
-0.0231417
0.0650911
0.0653617
0.0655476
0.0658445
0.0660658
0.0664975
0.0669379
0.0675162
0.068095
0.0687241
0.0693862
0.0700724
0.0707744
0.0714733
0.0721383
0.0727682
0.0733088
0.0737568
0.0740403
0.0741458
0.0739938
0.0735536
0.0727418
0.0715102
0.0697797
0.0674943
0.0645907
0.0610188
0.0567369
0.0517203
0.0459644
0.0394877
0.032335
0.0245771
0.0163093
0.00765033
-0.00126311
-0.0102828
-0.0192577
-0.0280423
0.065449
0.0657735
0.0659602
0.066283
0.0665163
0.0670307
0.0675038
0.0681829
0.0688149
0.0695621
0.0703222
0.0711496
0.0719953
0.072871
0.0737269
0.0745839
0.0753648
0.0760974
0.0766739
0.0771214
0.0773123
0.0772574
0.07682
0.0759837
0.0746141
0.072667
0.0700305
0.0666462
0.0624353
0.0573504
0.0513573
0.0444519
0.036662
0.02805
0.0187137
0.00878515
-0.00157239
-0.0121715
-0.022813
-0.0332973
0.0657895
0.0661496
0.0663338
0.0666833
0.0669356
0.0675289
0.0680285
0.0688086
0.0694811
0.0703548
0.0711957
0.0721741
0.0731484
0.0742095
0.0752476
0.0763414
0.0773614
0.0783967
0.0792742
0.0800985
0.0806542
0.081045
0.0810262
0.0806778
0.0797464
0.0782684
0.0760126
0.0729652
0.0689533
0.0639339
0.057808
0.05055
0.0421535
0.0326623
0.0221686
0.0108103
-0.00122508
-0.0137065
-0.026373
-0.038951
0.0661176
0.0664835
0.0666709
0.0670455
0.0673285
0.067988
0.0685162
0.0693872
0.0700976
0.0710967
0.0720073
0.0731411
0.0742285
0.0754819
0.0766885
0.0780282
0.0792791
0.0806332
0.0818111
0.0830451
0.083976
0.0848743
0.0853034
0.0855457
0.0851125
0.0842571
0.0824857
0.0799802
0.0763102
0.0715637
0.0654443
0.0579716
0.0490299
0.0386587
0.0269226
0.0139582
-2.57721e-05
-0.0147574
-0.0299002
-0.04508
0.0664355
0.0667719
0.0669749
0.0673696
0.0676991
0.0684037
0.0689715
0.0699122
0.0706707
0.0717793
0.0727618
0.0740408
0.075237
0.0766773
0.0780452
0.0796288
0.0811056
0.0827828
0.0842614
0.0859247
0.087239
0.0886955
0.0895923
0.0905277
0.0906327
0.0905732
0.0893628
0.0876589
0.084456
0.0803078
0.0743519
0.0669492
0.0575641
0.0463931
0.0333306
0.0185546
0.00229
-0.0151602
-0.0333626
-0.0518228
0.0667436
0.0670158
0.0672491
0.0676568
0.0680494
0.0687741
0.0693979
0.0703803
0.0712061
0.0723956
0.0734652
0.0748627
0.0761784
0.0777811
0.0793192
0.081123
0.0828373
0.084815
0.0866138
0.0886905
0.0904197
0.0924412
0.0938515
0.0955372
0.0962407
0.0971245
0.0965485
0.0959217
0.093277
0.0901648
0.0844765
0.0776875
0.0679573
0.0563699
0.0419011
0.0251602
0.00617579
-0.0146276
-0.0366704
-0.0593698
0.0670396
0.0672194
0.0674961
0.0679099
0.0683794
0.0691006
0.069797
0.0707926
0.0717071
0.0729439
0.0741219
0.0756014
0.0770571
0.0787829
0.0805132
0.0824928
0.0844734
0.0866991
0.0888622
0.091291
0.0935055
0.0960278
0.0980594
0.100449
0.101904
0.103746
0.103996
0.104597
0.102701
0.100999
0.0956979
0.0902226
0.0801219
0.0690754
0.0529797
0.0347181
0.0123424
-0.0125843
-0.0395856
-0.0679496
0.0673186
0.0673887
0.0677178
0.0681331
0.0686866
0.0693876
0.0701669
0.071154
0.0721729
0.0734285
0.0747314
0.0762596
0.0778723
0.0796833
0.0816246
0.0837336
0.0860075
0.0884209
0.0909946
0.0936941
0.096477
0.0993909
0.10219
0.105145
0.107595
0.11024
0.111691
0.113396
0.112782
0.112491
0.108111
0.104275
0.0940033
0.0845033
0.0663803
0.0483
0.021191
-0.00784921
-0.0418829
-0.0779576
0.0675753
0.0675313
0.0679167
0.0683306
0.0689679
0.0696397
0.0705048
0.0714715
0.0725993
0.0738572
0.0752889
0.0768454
0.0786177
0.0804899
0.0826434
0.0848525
0.0874228
0.0899849
0.0929825
0.0958968
0.0992887
0.102512
0.106177
0.109578
0.113231
0.116506
0.11957
0.122112
0.123538
0.124311
0.122084
0.119425
0.110345
0.102169
0.082284
0.0657102
0.0323996
0.00218848
-0.0438496
-0.0895918
0.0678059
0.0676538
0.0680957
0.0685059
0.0692207
0.0698619
0.070808
0.0717521
0.0729829
0.0742372
0.0757897
0.0773664
0.0792876
0.0812108
0.0835613
0.0858585
0.0887038
0.0914011
0.0947973
0.0979085
0.101891
0.105391
0.109941
0.113722
0.118693
0.122476
0.127463
0.13068
0.134771
0.136382
0.137584
0.135566
0.130296
0.121889
0.103226
0.0859691
0.0467298
0.0175672
-0.0466894
-0.100018
0.0680091
0.0677616
0.0682561
0.0686618
0.0694443
0.0700586
0.0710759
0.0720012
0.0733214
0.0745748
0.0762304
0.0778301
0.0798765
0.0818543
0.0843686
0.0867615
0.0898328
0.0926825
0.0964034
0.0997478
0.104211
0.108059
0.113341
0.117621
0.123741
0.128203
0.135033
0.139078
0.146124
0.148487
0.154293
0.152631
0.153723
0.144518
0.13254
0.109477
0.0706621
0.0346801
-0.0488584
-0.102779
0.068186
0.0678583
0.0683991
0.0688003
0.0696394
0.0702327
0.0713096
0.0722222
0.0736158
0.0748735
0.0766124
0.0782403
0.0803862
0.0824246
0.0850672
0.087565
0.0908107
0.0938306
0.0977984
0.101413
0.106236
0.110509
0.11633
0.121275
0.128222
0.133706
0.141851
0.147388
0.156628
0.16094
0.170723
0.170925
0.179464
0.169508
0.170594
0.140382
0.11361
0.0525851
-0.0381796
-0.105452
0.0683379
0.0679459
0.0685253
0.0689231
0.0698073
0.0703866
0.0715101
0.0724174
0.0738677
0.0751356
0.0769385
0.0785988
0.0808207
0.0829228
0.0856626
0.088268
0.0916455
0.094839
0.0989939
0.102885
0.107983
0.112697
0.118929
0.124588
0.13216
0.138816
0.147914
0.155393
0.166095
0.173599
0.185713
0.190748
0.203562
0.199431
0.211146
0.18039
0.179606
0.0802076
-0.000526186
-0.184232
0.0684668
0.0680251
0.0686354
0.069031
0.0699498
0.0705215
0.0716795
0.0725879
0.0740795
0.0753626
0.077212
0.0789074
0.0811844
0.0833503
0.0861604
0.0888706
0.0923442
0.0957037
0.0999982
0.10415
0.10946
0.114585
0.12115
0.127469
0.135571
0.143312
0.153259
0.162581
0.174611
0.185378
0.199436
0.210567
0.22589
0.233332
0.247884
0.236774
0.248112
0.159102
0.123622
-0.35046
0.0265135
0.026195
0.0258843
0.0255815
0.025287
0.0250008
0.0247232
0.0244544
0.0241945
0.0239438
0.0263733
0.0260498
0.0257343
0.0254271
0.0251284
0.0248385
0.0245575
0.0242856
0.024023
0.0237699
0.0261025
0.0257691
0.0254443
0.0251284
0.0248216
0.0245243
0.0242365
0.0239586
0.0236907
0.023433
0.025706
0.0253578
0.0250191
0.0246901
0.0243713
0.0240628
0.0237649
0.0234779
0.0232021
0.0229376
0.0251852
0.0248171
0.0244595
0.0241128
0.0237776
0.023454
0.0231424
0.0228432
0.0225566
0.0222828
0.0245389
0.024145
0.0237631
0.0233937
0.0230373
0.0226943
0.0223651
0.0220501
0.0217496
0.0214639
0.0237632
0.0233372
0.0229248
0.0225269
0.022144
0.0217767
0.0214253
0.0210904
0.0207725
0.0204719
0.0228528
0.0223871
0.0219373
0.0215043
0.0210886
0.0206912
0.0203124
0.019953
0.0196135
0.0192945
0.0218003
0.0212865
0.0207909
0.0203149
0.0198593
0.019425
0.0190128
0.0186234
0.0182576
0.017916
0.0205974
0.0200252
0.0194743
0.0189462
0.018442
0.017963
0.01751
0.0170841
0.0166862
0.0163172
0.0192342
0.0185917
0.017974
0.0173829
0.01682
0.0162868
0.0157844
0.0153142
0.0148775
0.0144753
0.0177
0.0169731
0.0162749
0.0156079
0.0149742
0.0143755
0.0138134
0.0132897
0.012806
0.0123636
0.015983
0.0151548
0.01436
0.0136018
0.0128827
0.0122051
0.011571
0.0109827
0.0104421
0.00995112
0.0140706
0.0131212
0.0122106
0.0113428
0.010521
0.00974824
0.0090273
0.00836101
0.00775183
0.00720229
0.0119495
0.0108552
0.00980569
0.00880629
0.00786109
0.00697399
0.00614845
0.00538818
0.00469631
0.00407613
0.00960551
0.00833807
0.0071224
0.00596522
0.00487181
0.0038472
0.00289581
0.00202238
0.00123092
0.000525674
0.00702386
0.00554978
0.0041353
0.00278904
0.00151781
0.000328019
-0.000774668
-0.00178416
-0.00269539
-0.00350292
0.00418895
0.00246837
0.000816189
-0.000756507
-0.00224097
-0.00362897
-0.00491328
-0.00608616
-0.00714117
-0.00807139
0.00108428
-0.000930295
-0.00286655
-0.00471029
-0.00645019
-0.00807578
-0.0095778
-0.0109465
-0.0121736
-0.0132506
-0.00230787
-0.00467307
-0.00694878
-0.00911678
-0.0111625
-0.0130725
-0.0148349
-0.0164376
-0.0178703
-0.0191221
-0.00600696
-0.00879046
-0.0114718
-0.0140276
-0.016439
-0.018689
-0.0207623
-0.0226439
-0.0243208
-0.0257799
-0.0100351
-0.013318
-0.0164843
-0.0195039
-0.0223522
-0.0250077
-0.027451
-0.0296634
-0.031629
-0.0333322
-0.0144181
-0.0182984
-0.022045
-0.0256191
-0.028989
-0.0321271
-0.0350091
-0.0376119
-0.0399161
-0.041904
-0.0191878
-0.0237842
-0.0282265
-0.0324641
-0.0364558
-0.0401667
-0.043566
-0.0466262
-0.0493239
-0.0516395
-0.0243841
-0.0298419
-0.0351204
-0.0401529
-0.0448856
-0.0492738
-0.0532791
-0.0568694
-0.0600184
-0.0627053
-0.0300615
-0.0365596
-0.0428463
-0.0488326
-0.0544472
-0.0596323
-0.0643414
-0.068537
-0.0721924
-0.0752892
-0.0362953
-0.0440582
-0.051566
-0.0586983
-0.06536
-0.0714766
-0.0769913
-0.0818642
-0.0860705
-0.0896005
-0.0431878
-0.0525038
-0.0615021
-0.0700167
-0.0779187
-0.0851123
-0.0915301
-0.0971339
-0.10191
-0.105867
-0.0508747
-0.0621213
-0.0729588
-0.0831519
-0.0925217
-0.100943
-0.108342
-0.114691
-0.120004
-0.124327
-0.0595561
-0.0732303
-0.0863614
-0.0986051
-0.109706
-0.1195
-0.127911
-0.134945
-0.140679
-0.145231
-0.0695576
-0.0863286
-0.10235
-0.117106
-0.130223
-0.14148
-0.150823
-0.158346
-0.164247
-0.168773
-0.0813629
-0.102177
-0.121919
-0.139778
-0.155173
-0.167838
-0.177806
-0.185365
-0.190945
-0.195002
-0.0955763
-0.121829
-0.146559
-0.168308
-0.186159
-0.199883
-0.209792
-0.216566
-0.221003
-0.223849
-0.113033
-0.146898
-0.178503
-0.205031
-0.225223
-0.239155
-0.247813
-0.252553
-0.254649
-0.255191
-0.135577
-0.180913
-0.221374
-0.252889
-0.274504
-0.287043
-0.292525
-0.293323
-0.291499
-0.288463
-0.169764
-0.233473
-0.282628
-0.316973
-0.337428
-0.345715
-0.344806
-0.33847
-0.329892
-0.3213
-0.229898
-0.319158
-0.37575
-0.408205
-0.421299
-0.419055
-0.40655
-0.38831
-0.368087
-0.349098
-0.314975
-0.432256
-0.505632
-0.531827
-0.52432
-0.502997
-0.475372
-0.442536
-0.407211
-0.37398
-0.421581
-0.516572
-0.659503
-0.68087
-0.6216
-0.558994
-0.503851
-0.455024
-0.410946
-0.370649
-0.950243
-0.597587
-0.696814
-0.696035
-0.660475
-0.595015
-0.5276
-0.467102
-0.417219
-0.376926
0.0236885
0.0234281
0.0231739
0.0229268
0.0226875
0.0224572
0.0222365
0.0220264
0.0218277
0.0216414
0.021468
0.0213084
0.0211631
0.0210329
0.0209178
0.0208185
0.0207349
0.0206672
0.0206148
0.0205777
0.0205549
0.0205459
0.0205491
0.0205636
0.0205872
0.0206185
0.0206546
0.0206937
0.0207321
0.020768
0.0207973
0.0208177
0.0208242
0.0208145
0.0207833
0.020728
0.0206428
0.0205251
0.0203688
0.0201711
0.0199257
0.0196295
0.0192759
0.0188617
0.01838
0.0178279
0.0171982
0.0164887
0.0156923
0.0148084
0.0138306
0.012761
0.0115943
0.0103359
0.00898196
0.00754035
0.0060087
0.00439478
0.00269623
0.000916382
0.0235126
0.0232505
0.0229951
0.0227474
0.0225081
0.0222783
0.0220588
0.0218506
0.0216545
0.0214716
0.0213023
0.0211477
0.0210082
0.0208845
0.0207769
0.0206858
0.0206111
0.020553
0.0205109
0.0204847
0.0204733
0.0204761
0.0204915
0.0205184
0.0205544
0.0205981
0.0206465
0.0206975
0.0207477
0.020795
0.0208351
0.0208655
0.0208813
0.0208801
0.0208564
0.0208081
0.0207291
0.0206169
0.0204653
0.0202719
0.0200301
0.0197369
0.0193856
0.018973
0.0184923
0.0179402
0.0173097
0.0165982
0.0157985
0.0149103
0.0139265
0.0128499
0.0116748
0.0104074
0.0090433
0.00759147
0.00604892
0.004424
0.00271405
0.000922481
0.0231717
0.0229063
0.0226486
0.0223996
0.0221601
0.0219314
0.0217143
0.0215099
0.021319
0.0211427
0.0209817
0.0208369
0.0207087
0.020598
0.0205049
0.0204299
0.0203727
0.0203335
0.0203116
0.0203067
0.0203176
0.0203435
0.0203825
0.0204333
0.0204935
0.0205612
0.020633
0.0207071
0.0207799
0.0208494
0.0209097
0.0209591
0.0209925
0.0210075
0.0209979
0.0209625
0.0208951
0.020793
0.0206503
0.0204646
0.0202296
0.0199419
0.019595
0.0191854
0.0187066
0.0181547
0.0175227
0.0168075
0.0160017
0.0151049
0.0141099
0.0130196
0.0118284
0.0105434
0.00916002
0.00768859
0.0061255
0.00447982
0.00274851
0.000934173
0.0226703
0.0224
0.0221388
0.0218879
0.0216483
0.0214213
0.0212078
0.0210091
0.020826
0.0206598
0.0205112
0.0203812
0.0202702
0.020179
0.0201078
0.0200569
0.020026
0.0200151
0.0200233
0.0200502
0.0200942
0.0201544
0.0202283
0.0203146
0.0204101
0.0205128
0.0206187
0.0207264
0.0208316
0.0209306
0.0210197
0.021096
0.0211541
0.0211919
0.0212041
0.0211876
0.0211359
0.021048
0.0209175
0.0207425
0.0205166
0.0202366
0.0198959
0.0194908
0.0190148
0.0184633
0.0178293
0.0171091
0.0162945
0.0153855
0.0143739
0.0132636
0.012049
0.0107384
0.00932699
0.00782733
0.0062348
0.00455952
0.00279776
0.000950821
0.0220074
0.0217305
0.0214647
0.0212114
0.0209716
0.020747
0.0205385
0.0203476
0.0201754
0.0200231
0.0198915
0.0197816
0.0196941
0.0196295
0.019588
0.0195699
0.0195747
0.0196021
0.019651
0.0197206
0.0198092
0.0199151
0.0200356
0.0201688
0.0203109
0.0204592
0.0206101
0.0207618
0.0209079
0.0210466
0.021172
0.0212821
0.0213709
0.0214367
0.0214732
0.0214786
0.0214477
0.0213773
0.021262
0.0210997
0.0208849
0.0206143
0.0202813
0.019882
0.0194099
0.0188592
0.0182232
0.017497
0.0166714
0.0157468
0.0147134
0.0135768
0.0123313
0.0109871
0.00953947
0.00800356
0.00637348
0.00466045
0.00285999
0.000971868
0.0211781
0.0208927
0.020621
0.0203645
0.0201247
0.0199032
0.0197015
0.0195209
0.0193629
0.0192287
0.0191193
0.0190357
0.0189787
0.0189486
0.0189457
0.01897
0.0190207
0.0190974
0.0191986
0.0193229
0.0194682
0.0196321
0.0198115
0.0200035
0.0202036
0.0204091
0.0206163
0.0208209
0.0210173
0.0212029
0.0213715
0.0215214
0.0216458
0.0217436
0.0218083
0.0218387
0.021829
0.0217778
0.0216795
0.0215312
0.0213287
0.0210686
0.020745
0.0203526
0.0198856
0.0193366
0.018699
0.0179662
0.0171278
0.0161847
0.0151241
0.0139548
0.0126709
0.0112848
0.00979288
0.00821323
0.00653841
0.00478016
0.00293382
0.000996964
0.020173
0.019877
0.019598
0.0193377
0.019098
0.0188808
0.0186876
0.0185203
0.0183804
0.0182693
0.0181881
0.018138
0.0181195
0.0181332
0.0181789
0.0182565
0.018365
0.0185034
0.0186696
0.018862
0.0190773
0.0193127
0.0195639
0.0198272
0.0200973
0.0203722
0.0206452
0.0209127
0.0211674
0.0214071
0.0216248
0.0218192
0.0219827
0.0221153
0.0222098
0.0222663
0.0222788
0.0222467
0.0221656
0.0220318
0.0218425
0.0215936
0.0212805
0.0208964
0.0204364
0.0198905
0.0192528
0.0185134
0.0176605
0.0166965
0.0156027
0.0143942
0.0130636
0.0116273
0.0100829
0.00845244
0.00672643
0.00491613
0.00301845
0.00102612
0.0189796
0.0186705
0.0183825
0.0181177
0.0178783
0.0176665
0.0174843
0.0173338
0.0172166
0.0171344
0.0170886
0.0170802
0.0171099
0.0171779
0.017284
0.0174276
0.0176074
0.0178216
0.0180677
0.018343
0.0186433
0.0189649
0.0193022
0.0196503
0.0200045
0.02036
0.0207097
0.0210484
0.0213689
0.0216689
0.0219402
0.0221823
0.0223867
0.022555
0.0226792
0.0227614
0.0227951
0.0227815
0.0227167
0.0225965
0.0224206
0.0221829
0.0218815
0.0215071
0.0210563
0.0205155
0.0198806
0.0191356
0.0182682
0.0172807
0.0161468
0.014892
0.0135052
0.0120102
0.010405
0.00871783
0.00693419
0.0050655
0.00311402
0.00105977
0.0175814
0.0172565
0.0169576
0.0166875
0.0164487
0.0162438
0.0160754
0.0159457
0.0158569
0.0158107
0.0158087
0.0158519
0.015941
0.0160759
0.0162563
0.0164808
0.0167476
0.017054
0.0173969
0.017772
0.0181741
0.0185981
0.0190367
0.0194851
0.0199366
0.0203859
0.0208222
0.021241
0.0216342
0.0219993
0.0223272
0.0226181
0.0228631
0.0230662
0.0232177
0.0233235
0.0233756
0.0233781
0.023327
0.0232191
0.0230566
0.0228293
0.0225409
0.0221776
0.0217389
0.0212066
0.0205787
0.01983
0.01895
0.0179373
0.0167554
0.0154455
0.0139912
0.0124285
0.0107541
0.00900625
0.00715798
0.00522584
0.00322182
0.0010984
0.0159587
0.0156145
0.0153026
0.0150262
0.0147883
0.0145923
0.0144411
0.0143373
0.0142835
0.0142818
0.0143337
0.0144402
0.0146022
0.0148189
0.0150899
0.0154128
0.015785
0.0162028
0.0166618
0.017156
0.0176794
0.0182235
0.0187816
0.0193474
0.0199121
0.0204665
0.0209993
0.0215061
0.0219776
0.0224108
0.0227961
0.0231349
0.0234181
0.0236522
0.0238263
0.0239515
0.0240169
0.0240321
0.0239909
0.0238927
0.0237426
0.0235245
0.0232508
0.0228997
0.0224771
0.0219579
0.0213432
0.0205943
0.0197056
0.0186661
0.0174277
0.0160525
0.0145175
0.0128772
0.0111251
0.00931395
0.00739262
0.00539634
0.0033448
0.00114204
0.0140878
0.0137204
0.0133928
0.0131089
0.0128726
0.0126877
0.0125578
0.0124861
0.0124754
0.0125281
0.012646
0.0128301
0.0130808
0.0133972
0.0137781
0.0142202
0.0147197
0.0152712
0.0158678
0.0165027
0.0171686
0.0178567
0.0185551
0.0192568
0.0199487
0.0206204
0.0212595
0.0218617
0.0224154
0.0229176
0.0233585
0.0237413
0.0240572
0.0243155
0.0245051
0.0246429
0.0247143
0.0247376
0.0247007
0.0246096
0.024469
0.0242583
0.0240013
0.0236634
0.023262
0.0227626
0.0221694
0.0214268
0.0205368
0.0194676
0.0181617
0.0167074
0.0150781
0.0133503
0.0115131
0.00963641
0.00763112
0.00557823
0.00348686
0.00118992
0.0119411
0.0115457
0.0111992
0.0109066
0.0106725
0.0105016
0.0103981
0.0103657
0.010408
0.0105274
0.0107258
0.0110041
0.0113626
0.0118001
0.0123134
0.0128999
0.0135515
0.0142616
0.015024
0.0158282
0.0166637
0.0175172
0.0183775
0.0192336
0.0200683
0.02087
0.021624
0.0223277
0.0229655
0.0235351
0.0240269
0.0244461
0.0247857
0.0250576
0.0252526
0.0253934
0.0254621
0.0254873
0.0254474
0.0253607
0.025225
0.0250196
0.0247809
0.0244563
0.0240827
0.0236125
0.0230512
0.0223257
0.0214469
0.0203449
0.0189561
0.0174018
0.0156627
0.0138399
0.0119134
0.0099674
0.0078668
0.00577553
0.00365052
0.0012401
0.00948646
0.00905725
0.00868824
0.00838542
0.00815438
0.00800088
0.00792995
0.00794616
0.00805343
0.00825433
0.00855102
0.00894336
0.00943
0.0100202
0.010696
0.0114498
0.0122823
0.0131827
0.0141415
0.0151445
0.0161773
0.017224
0.0182709
0.0193013
0.0202947
0.0212449
0.0221176
0.0229273
0.023649
0.0242807
0.0248141
0.0252579
0.0256074
0.025878
0.0260654
0.0261962
0.026252
0.0262713
0.0262203
0.0261358
0.0259984
0.0257968
0.0255789
0.0252625
0.0249251
0.0244955
0.0239791
0.0232886
0.0224407
0.021303
0.0198088
0.0181231
0.0162564
0.0143346
0.0123185
0.0102978
0.00809467
0.00599526
0.00383552
0.00128966
0.00668672
0.00621687
0.00582085
0.00550599
0.00527915
0.0051473
0.00511656
0.00519243
0.00537971
0.00568138
0.0060996
0.00663901
0.00729174
0.00804191
0.00890176
0.00986097
0.0109119
0.0120396
0.0132309
0.0144673
0.0157311
0.0170029
0.0182629
0.0194888
0.0206565
0.0217523
0.0227716
0.0236872
0.0244911
0.025173
0.0257329
0.0261839
0.0265239
0.0267742
0.0269376
0.0270419
0.0270735
0.0270764
0.027007
0.0269225
0.0267746
0.0265757
0.0263724
0.0260597
0.0257714
0.0253953
0.024938
0.0243114
0.0235243
0.0223482
0.0207143
0.018851
0.0168403
0.0148208
0.0127143
0.0106157
0.00831308
0.00624623
0.0040403
0.00133709
0.00349921
0.00298048
0.0025521
0.00222306
0.00200175
0.00189661
0.00191512
0.00206378
0.00234881
0.00277581
0.00334008
0.00403472
0.00486801
0.00583251
0.00692431
0.00813174
0.00944398
0.0108414
0.012307
0.0138168
0.0153496
0.0168818
0.0183928
0.0198338
0.0212024
0.0224742
0.0236247
0.0246423
0.0255009
0.0262304
0.0267958
0.02723
0.0275342
0.0277404
0.0278581
0.0279168
0.0279129
0.0278869
0.0277934
0.0277059
0.0275381
0.0273424
0.0271444
0.0268243
0.0266
0.0262871
0.0259028
0.0253859
0.0247044
0.0234879
0.0216587
0.0195516
0.017388
0.0152813
0.0130803
0.0109048
0.00851881
0.0065363
0.00426843
0.00138722
-0.000125084
-0.000702515
-0.00116962
-0.00151534
-0.00172949
-0.00180172
-0.00172288
-0.00148505
-0.0010811
-0.000518534
0.000211907
0.00110776
0.00217