/*--------------------------------*- C++ -*----------------------------------*\
| =========                 |                                                 |
| \\      /  F ield         | OpenFOAM: The Open Source CFD Toolbox           |
|  \\    /   O peration     | Version:  2312                                  |
|   \\  /    A nd           | Website:  www.openfoam.com                      |
|    \\/     M anipulation  |                                                 |
\*---------------------------------------------------------------------------*/
FoamFile
{
    version     2.0;
    format      ascii;
    arch        "LSB;label=32;scalar=64";
    class       surfaceScalarField;
    location    "75.05";
    object      phi;
}
// * * * * * * * * * * * * * * * * * * * * * * * * * * * * * * * * * * * * * //

dimensions      [0 3 -1 0 0 0 0];

oriented        oriented;

internalField   nonuniform List<scalar> 
10785
(
-0.00128135
0.00528632
-0.00400497
-0.000915876
0.00792058
-0.00828605
0.00429717
0.00342635
-0.00863939
0.0177355
-0.00994432
-0.00349403
0.0412828
-0.0322485
0.00870124
0.0734111
-0.0600393
0.0279111
0.10984
-0.0887714
0.0523428
0.145367
-0.1148
0.0792729
0.175281
-0.135907
0.105993
0.196816
-0.151521
0.129986
0.209559
-0.162461
0.149718
0.216466
-0.170598
0.163691
0.220693
-0.178654
0.174427
0.225319
-0.185446
0.18082
-0.195095
0.19193
0.228483
-0.000476873
0.0057632
0.00220439
0.00523932
0.0125091
-0.00687834
0.0336915
-0.0311267
0.063891
-0.0624481
0.0974107
-0.093559
0.128209
-0.119569
0.152163
-0.138755
0.168127
-0.151871
0.177773
-0.161167
0.184286
-0.168974
0.190628
-0.176941
0.196904
-0.18493
0.203926
-0.192468
-0.20085
0.209682
0.000603624
0.00515957
0.00678164
-0.000938702
0.0237535
-0.0238502
0.0509074
-0.0582806
0.0813263
-0.092867
0.108119
-0.120352
0.127765
-0.139215
0.140476
-0.151466
0.148825
-0.16022
0.155498
-0.167839
0.161909
-0.175386
0.167744
-0.182776
0.172822
-0.190007
0.177533
-0.197179
-0.204646
0.181329
0.00177774
0.00338183
0.01253
-0.011691
0.0353412
-0.0466614
0.0630622
-0.0860015
0.0873596
-0.117164
0.104676
-0.137668
0.115818
-0.150358
0.123383
-0.15903
0.129388
-0.166225
0.134607
-0.173059
0.139049
-0.179827
0.143096
-0.186823
0.147196
-0.194107
0.151759
-0.201742
-0.209915
0.157028
0.0032973
8.45297e-05
0.0189175
-0.0273112
0.0436522
-0.0713961
0.0667359
-0.109085
0.0832304
-0.133659
0.0936249
-0.148063
0.100294
-0.157027
0.10509
-0.163827
0.108952
-0.170086
0.112351
-0.176459
0.115736
-0.183212
0.119201
-0.190288
0.122624
-0.197531
0.12595
-0.205068
-0.212591
0.128626
0.00528867
-0.00520415
0.024242
-0.0462645
0.0463805
-0.0935346
0.063148
-0.125853
0.0735199
-0.144031
0.0795487
-0.154091
0.083315
-0.160793
0.0861077
-0.166619
0.0885642
-0.172542
0.0909265
-0.178821
0.0931212
-0.185406
0.0950946
-0.192262
0.0970247
-0.199461
0.0989956
-0.207039
-0.215058
0.101463
0.00760433
-0.0128085
0.0268756
-0.0655358
0.0442293
-0.110888
0.0553177
-0.136941
0.0612502
-0.149963
0.0643094
-0.157151
0.0661248
-0.162608
0.0674588
-0.167953
0.0685348
-0.173618
0.0693816
-0.179668
0.0700966
-0.186121
0.0708229
-0.192988
0.0715701
-0.200208
0.0723493
-0.207818
-0.215598
0.0728885
0.00934098
-0.0221495
0.0262102
-0.082405
0.0387662
-0.123444
0.0453429
-0.143518
0.0480807
-0.152701
0.04902
-0.15809
0.0492258
-0.162814
0.049071
-0.167799
0.0486817
-0.173229
0.0481415
-0.179128
0.0474791
-0.185459
0.0466727
-0.192182
0.0458126
-0.199348
0.0449629
-0.206968
0.0444865
-0.215121
3.95282e-05
0.0121828
-0.0122223
-0.001557
0.0283058
-0.0267092
-0.00481539
0.0375035
-0.0342451
-0.00891361
0.0429264
-0.0388281
-0.0130314
0.0473811
-0.0432634
-0.0165173
0.0516928
-0.0482069
-0.0187631
0.0553653
-0.0531195
-0.0191107
0.0575039
-0.0571563
-0.0169102
0.0571843
-0.0593848
-0.0116153
0.0535381
-0.058833
-0.00287884
0.0458638
-0.0546002
0.00954102
0.0335301
-0.0459499
0.0246658
0.0168893
-0.032014
0.0427954
-0.00621024
-0.0119194
-0.0342767
0.0634862
0.013586
0.0015481
0.0106347
0.00276786
0.027086
0.00279605
0.0374753
0.00232414
0.0433983
0.00245802
0.0472472
0.00410791
0.0500429
0.00795279
0.0515205
0.0145318
0.0509248
0.024233
0.0474831
0.0373238
0.0404473
0.0533308
0.0298567
0.0724345
0.0144264
0.0932816
-0.00395785
0.116578
-0.0295062
-0.0594396
0.14174
0.00257783
0.00805689
0.00638104
0.0232828
0.00981012
0.0340462
0.0131247
0.0400837
0.0174034
0.0429685
0.0236884
0.0437578
0.0326644
0.0425445
0.0447214
0.0388679
0.0597858
0.0324188
0.0780939
0.0221391
0.0982989
0.00965169
0.121619
-0.00889409
0.147124
-0.0294629
0.175728
-0.0581093
-0.091126
0.207414
0.00274788
0.00530901
0.00802289
0.0180078
0.0140593
0.0280098
0.020563
0.03358
0.028202
0.0353295
0.0378554
0.0341045
0.0501129
0.0302869
0.0652485
0.0237323
0.0830022
0.0146651
0.103379
0.00176259
0.126648
-0.0136176
0.153995
-0.0362406
0.184332
-0.0598003
0.220573
-0.0943501
-0.128095
0.257542
0.00208706
0.00322195
0.00718414
0.0129107
0.0140988
0.0210952
0.02224
0.0254388
0.0317586
0.0258108
0.0431324
0.0227307
0.0567962
0.0166231
0.0730475
0.00748093
0.0927949
-0.00508226
0.116569
-0.0220116
0.145615
-0.0426633
0.180065
-0.0706911
0.218832
-0.0985665
0.259986
-0.135505
-0.162658
0.29455
0.00091203
0.00230992
0.00439738
0.00942535
0.0102259
0.0152667
0.0179291
0.0177356
0.027468
0.0162719
0.0393587
0.01084
0.0546717
0.00131014
0.0746783
-0.0125257
0.100859
-0.0312629
0.133146
-0.0542986
0.172084
-0.0816013
0.212621
-0.111228
0.253601
-0.139546
0.286116
-0.16802
-0.182187
0.305645
-0.00039469
0.00270461
0.000895655
0.008135
0.00460609
0.0115563
0.0110562
0.0112855
0.0210729
0.00625517
0.0363098
-0.0043969
0.0583137
-0.0206937
0.0878347
-0.0420467
0.123982
-0.06741
0.164125
-0.0944418
0.204561
-0.122037
0.239295
-0.145963
0.266397
-0.166649
0.27876
-0.180383
-0.186878
0.283451
-0.00130037
-0.00145142
0.00146547
0.00925691
0.0242133
0.0477275
0.0793766
0.116603
0.155186
0.19073
0.218411
0.23614
0.243918
0.244355
0.249408
0.0988555
-0.161474
0.126105
0.130771
-0.285186
0.253271
0.145834
-0.331363
0.3163
0.108079
-0.330921
0.368675
0.080013
-0.353484
0.38155
0.123791
-0.239306
0.195528
0.183072
0.0135321
-0.0728132
0.225884
0.21163
-0.254442
0.245094
0.287214
-0.306423
0.230199
0.345618
-0.330722
0.20186
0.41919
-0.390852
0.208004
0.340365
-0.346509
0.245739
0.104925
-0.14266
0.267431
-0.0909569
0.0692654
0.27187
-0.27257
0.268131
0.280119
-0.442375
0.434126
0.285371
-0.479125
0.473872
0.289665
-0.337348
0.333055
0.296181
0.02092
-0.0274359
0.299601
0.397434
-0.400854
0.30345
0.554891
-0.55874
0.308297
0.456012
-0.460859
0.300631
0.0897453
-0.082079
0.282257
-0.424365
0.442738
0.284935
-0.618484
0.615807
0.290898
-0.109382
0.103419
0.278412
0.516388
-0.503902
0.250704
0.582899
-0.555191
0.224974
0.128597
-0.102867
0.223888
-0.303339
0.304425
0.24097
-0.271922
0.25484
0.24865
0.0810805
-0.0887604
0.236708
0.303599
-0.291657
0.216069
0.294543
-0.273904
0.199394
0.0234019
-0.00672706
0.194303
-0.195284
0.200375
0.208734
-0.412593
0.398162
-0.303302
0.289088
0.157477
-0.177211
0.163927
-0.291636
0.172821
-0.340257
0.14408
-0.30218
0.0859174
-0.295321
0.0966195
-0.250008
0.16098
-0.0508286
0.220225
0.152385
0.245461
0.261978
0.228935
0.362144
0.201154
0.446971
0.206249
0.33527
0.245776
0.0653976
0.269854
-0.115034
0.268655
-0.271371
0.270739
-0.444459
0.275398
-0.483783
0.281162
-0.343113
0.292471
0.00961094
0.29929
0.390615
0.303022
0.551159
0.308255
0.450778
0.300927
0.0970734
0.278371
-0.401808
0.278857
-0.61897
0.29166
-0.122185
0.285679
0.522369
0.258877
0.609701
0.229946
0.157528
0.226345
-0.299738
0.243632
-0.289209
0.251965
0.0727468
0.240125
0.31544
0.220028
0.31464
0.204079
0.0393507
0.197411
-0.188615
0.210392
-0.425575
-0.317776
0.217717
-0.187514
0.20045
-0.27437
0.182366
-0.322173
0.167412
-0.287227
0.113121
-0.24103
0.092445
-0.229332
0.148535
-0.106919
0.214897
0.0860228
0.250419
0.226456
0.242556
0.370006
0.216183
0.473344
0.214332
0.33712
0.245727
0.0340026
0.268701
-0.138008
0.262058
-0.264728
0.257069
-0.43947
0.260634
-0.487348
0.268331
-0.35081
0.284826
-0.00688393
0.296658
0.378783
0.300237
0.54758
0.30434
0.446675
0.298177
0.103236
0.272294
-0.375925
0.269427
-0.616104
0.289727
-0.142485
0.291358
0.520739
0.266279
0.634779
0.234104
0.189704
0.227548
-0.293182
0.244837
-0.306498
0.254359
0.0632241
0.243152
0.326647
0.223401
0.334391
0.20833
0.0544218
0.200925
-0.18121
0.212325
-0.436975
-0.332122
0.257577
-0.187549
0.232548
-0.24934
0.18949
-0.279115
0.170383
-0.26812
0.139093
-0.209739
0.107277
-0.197516
0.150166
-0.149807
0.219114
0.0170745
0.252063
0.193508
0.244471
0.377598
0.226022
0.491794
0.22536
0.337782
0.245794
0.0135682
0.265273
-0.157487
0.256137
-0.255592
0.243776
-0.427109
0.244054
-0.487626
0.253611
-0.360367
0.274697
-0.02797
0.289504
0.363975
0.292233
0.544851
0.295483
0.443425
0.291827
0.106892
0.264543
-0.34864
0.257734
-0.609294
0.28459
-0.169341
0.294408
0.510921
0.27185
0.657337
0.236985
0.224569
0.227444
-0.283642
0.244656
-0.323709
0.25583
0.0520499
0.245731
0.336747
0.226225
0.353897
0.212028
0.0686185
0.204601
-0.173783
0.214553
-0.446927
-0.346093
0.274098
-0.167097
0.238662
-0.213905
0.191397
-0.231849
0.160698
-0.237421
0.1487
-0.197741
0.12247
-0.171287
0.147047
-0.174384
0.218868
-0.0547468
0.26066
0.151716
0.269145
0.369113
0.260712
0.500228
0.245984
0.35251
0.247293
0.0122595
0.258102
-0.168297
0.246357
-0.243846
0.227723
-0.408476
0.223804
-0.483707
0.234437
-0.370999
0.261278
-0.0548113
0.282126
0.343128
0.285074
0.541903
0.285548
0.442951
0.282402
0.110037
0.25524
-0.321478
0.243974
-0.598028
0.27642
-0.201787
0.295489
0.491853
0.276036
0.67679
0.238643
0.261962
0.226064
-0.271063
0.243146
-0.340791
0.256334
0.0388614
0.247766
0.345315
0.228619
0.373045
0.215251
0.0819871
0.208273
-0.166806
0.217015
-0.455669
-0.359582
0.272838
-0.13429
0.228789
-0.169856
0.187974
-0.191034
0.153397
-0.202845
0.143676
-0.18802
0.132008
-0.159619
0.137189
-0.179565
0.201258
-0.118816
0.254497
0.0984768
0.27032
0.35329
0.268289
0.502258
0.255167
0.365632
0.247439
0.0199871
0.249907
-0.170764
0.235103
-0.229042
0.211665
-0.385038
0.202299
-0.474341
0.21276
-0.38146
0.243929
-0.0859811
0.269945
0.317113
0.274186
0.537661
0.273185
0.443953
0.270347
0.112875
0.243814
-0.294945
0.228907
-0.583121
0.264505
-0.237386
0.293011
0.463347
0.277715
0.692086
0.238772
0.300905
0.223383
-0.255674
0.240297
-0.357705
0.255809
0.0233492
0.249267
0.351857
0.230766
0.391545
0.218151
0.0946025
0.211849
-0.160504
0.219628
-0.463448
-0.372594
0.252012
-0.102851
0.213826
-0.13167
0.180258
-0.157466
0.152292
-0.174879
0.13707
-0.172798
0.130686
-0.153235
0.124284
-0.173163
0.166841
-0.161372
0.236813
0.0285047
0.279941
0.310163
0.292369
0.48983
0.271205
0.386796
0.244283
0.0469087
0.23713
-0.163611
0.219367
-0.21128
0.193392
-0.359062
0.179551
-0.460501
0.18748
-0.389389
0.224898
-0.123398
0.259956
0.282054
0.266061
0.531556
0.262154
0.447859
0.25721
0.117819
0.230755
-0.268489
0.21276
-0.565127
0.250768
-0.275395
0.288999
0.425117
0.27771
0.703375
0.237435
0.341179
0.219406
-0.237645
0.236094
-0.374394
0.254206
0.00523763
0.250045
0.356018
0.232604
0.408986
0.220786
0.106421
0.215268
-0.154986
0.222309
-0.47049
-0.38521
0.227161
-0.0806037
0.200609
-0.105118
0.172167
-0.129024
0.148829
-0.151541
0.133187
-0.157156
0.121175
-0.141223
0.108339
-0.160327
0.12407
-0.177104
0.186045
-0.0334704
0.254541
0.241667
0.282326
0.462045
0.264694
0.404428
0.240528
0.0710755
0.227191
-0.150275
0.205742
-0.18983
0.176183
-0.329504
0.15813
-0.442448
0.161463
-0.392722
0.198594
-0.160529
0.241033
0.239616
0.253175
0.519414
0.250144
0.45089
0.244395
0.123569
0.216995
-0.241089
0.196554
-0.544686
0.233458
-0.312299
0.280423
0.378151
0.275121
0.708678
0.234953
0.381348
0.21449
-0.217182
0.230795
-0.390699
0.25142
-0.0153866
0.25022
0.357217
0.234297
0.42491
0.22323
0.117488
0.218484
-0.15024
0.224961
-0.476967
-0.397644
0.480565
-0.061835
-0.499334
0.460021
-0.0845733
0.433862
-0.102866
0.405887
-0.123566
0.37677
-0.128039
0.344028
-0.108481
0.304229
-0.120528
0.253245
-0.12612
0.213306
0.00646844
0.210435
0.244538
0.276374
0.396106
0.383513
0.297289
0.451561
0.00302726
0.463155
-0.161869
0.447335
-0.17401
0.427889
-0.310058
0.387686
-0.402245
0.331517
-0.336552
0.307349
-0.136362
0.306554
0.240411
0.312117
0.51385
0.356288
0.406719
0.412376
0.0674808
0.415818
-0.244531
0.374028
-0.502896
0.368024
-0.306295
0.390172
0.356003
0.388651
0.710199
0.36894
0.40106
0.36552
-0.213762
0.378762
-0.403941
0.386332
-0.0229562
0.37523
0.368319
0.356689
0.443451
0.346667
0.12751
0.341025
-0.144598
0.342901
-0.478843
-0.406608
0.500564
-0.0451736
-0.517226
0.479451
-0.06346
0.455864
-0.0792785
0.426684
-0.0943866
0.395744
-0.0970989
0.371526
-0.0842624
0.344431
-0.0934335
0.300313
-0.0820025
0.250936
0.0558457
0.270768
0.224706
0.380398
0.286477
0.48842
0.189267
0.526343
-0.0348955
0.507123
-0.14265
0.476086
-0.142973
0.44825
-0.282222
0.394423
-0.348418
0.324842
-0.266971
0.299004
-0.110524
0.30622
0.233195
0.323673
0.496398
0.390556
0.339836
0.456753
0.00128347
0.446157
-0.233936
0.396109
-0.452848
0.391617
-0.301803
0.420404
0.327216
0.422846
0.707758
0.407427
0.416478
0.408262
-0.214598
0.422837
-0.418516
0.42889
-0.029009
0.418415
0.378794
0.401822
0.460043
0.392887
0.136445
0.386519
-0.13823
0.384706
-0.47703
-0.412765
0.531135
-0.0336506
-0.542658
0.515567
-0.0478922
0.496458
-0.0601693
0.471595
-0.0695236
0.446044
-0.0715479
0.42382
-0.0620385
0.388592
-0.0582049
0.354759
-0.0481701
0.345014
0.0655908
0.396047
0.173674
0.50222
0.180303
0.575362
0.116124
0.576891
-0.0364244
0.546401
-0.112159
0.520021
-0.116593
0.488142
-0.250343
0.413004
-0.273281
0.31515
-0.169116
0.280839
-0.0762128
0.300994
0.21304
0.346519
0.450872
0.435461
0.250895
0.505498
-0.0687536
0.483256
-0.211693
0.418875
-0.388467
0.417668
-0.300596
0.452269
0.292615
0.460955
0.699071
0.451534
0.4259
0.454894
-0.217958
0.470603
-0.434225
0.476999
-0.0354048
0.467798
0.387995
0.454446
0.473395
0.446687
0.144204
0.438625
-0.130168
0.431861
-0.470267
-0.415409
0.565312
-0.0242848
-0.574678
0.550685
-0.0332654
0.533084
-0.0425684
0.513511
-0.0499504
0.491136
-0.0491734
0.474531
-0.0454329
0.450428
-0.0341024
0.426609
-0.0243508
0.441707
0.050493
0.501357
0.114023
0.575167
0.106493
0.614422
0.0768698
0.609092
-0.0310947
0.578987
-0.0820533
0.541258
-0.0788648
0.5004
-0.209485
0.42672
-0.199601
0.323071
-0.0654667
0.280689
-0.033831
0.322899
0.17083
0.401529
0.372242
0.497154
0.155269
0.556987
-0.128587
0.518236
-0.172942
0.434651
-0.304883
0.434592
-0.300537
0.485735
0.241472
0.503231
0.681575
0.502239
0.426892
0.508806
-0.224524
0.524264
-0.449684
0.52991
-0.0410506
0.522759
0.395146
0.514283
0.481871
0.508452
0.150035
0.497943
-0.119659
0.48507
-0.457393
-0.413737
0.602756
-0.0162324
-0.610808
0.592401
-0.022911
0.578774
-0.0289413
0.563579
-0.0347557
0.547054
-0.0326481
0.532975
-0.0313535
0.517651
-0.0187786
0.504297
-0.0109965
0.522376
0.0324132
0.567922
0.0684773
0.616398
0.0580171
0.640506
0.0527624
0.634085
-0.024674
0.619605
-0.0675736
0.59144
-0.0506994
0.545607
-0.163652
0.482787
-0.136781
0.401037
0.0162831
0.364328
0.00287793
0.412947
0.122211
0.498889
0.2863
0.572414
0.081745
0.608046
-0.164219
0.560157
-0.125052
0.457425
-0.202151
0.439323
-0.282435
0.501735
0.179061
0.540644
0.642666
0.558634
0.408901
0.568114
-0.234004
0.579953
-0.461523
0.5852
-0.0462972
0.582846
0.3975
0.582408
0.482309
0.578815
0.153628
0.564498
-0.105342
0.544262
-0.437157
-0.407026
0.647641
-0.0101268
-0.653747
0.639717
-0.0149863
0.62925
-0.0184748
0.617673
-0.0231785
0.605402
-0.020377
0.594743
-0.0206946
0.586619
-0.0106549
0.580058
-0.00443487
0.595628
0.0168428
0.623833
0.040273
0.652326
0.0295238
0.675983
0.0291055
0.666913
-0.0156046
0.648795
-0.0494553
0.630799
-0.0327034
0.588915
-0.121768
0.547487
-0.0953525
0.50746
0.05631
0.49149
0.0188483
0.543722
0.0699788
0.614028
0.215994
0.647819
0.0479542
0.653807
-0.170208
0.608704
-0.0799494
0.49996
-0.0934065
0.443545
-0.22602
0.497403
0.125202
0.575276
0.564793
0.628654
0.355523
0.637711
-0.243061
0.63884
-0.462652
0.643759
-0.0512155
0.650056
0.391203
0.659048
0.473317
0.65718
0.155497
0.638196
-0.0863583
0.610011
-0.408972
-0.394664
0.69886
-0.00543443
-0.703553
0.692887
-0.00901312
0.68532
-0.0109081
0.676708
-0.0145666
0.668749
-0.0124175
0.661171
-0.0131168
0.657186
-0.00666986
0.654376
-0.00162516
0.663939
0.00727978
0.682388
0.021824
0.698585
0.0133268
0.713718
0.0139731
0.70821
-0.0100971
0.699693
-0.0409385
0.687173
-0.0201828
0.641526
-0.0761214
0.6127
-0.0665263
0.609766
0.0592437
0.608107
0.0205076
0.6478
0.0302855
0.706245
0.157549
0.716385
0.0378142
0.698739
-0.152561
0.667996
-0.0492066
0.581596
-0.00700627
0.496314
-0.140738
0.533045
0.0884719
0.646548
0.451289
0.721933
0.280139
0.71427
-0.235398
0.692275
-0.440657
0.693213
-0.0521534
0.714139
0.370277
0.738774
0.448681
0.740568
0.153703
0.717144
-0.0629345
0.681406
-0.373234
-0.376658
0.756665
-0.00217889
-0.759921
0.752249
-0.00459707
0.747177
-0.00583585
0.741068
-0.00845791
0.735908
-0.00725669
0.730693
-0.00790234
0.728438
-0.00441439
0.72802
-0.00120711
0.733085
0.00221433
0.744922
0.00998742
0.75303
0.0052183
0.763631
0.00337204
0.759968
-0.0064336
0.747241
-0.0282114
0.741937
-0.0148793
0.70973
-0.0439139
0.687031
-0.0438276
0.701104
0.0451704
0.702356
0.0192556
0.719751
0.0128902
0.769499
0.107802
0.773967
0.0333462
0.737793
-0.116388
0.723411
-0.0348248
0.683253
0.0331518
0.611996
-0.0694808
0.639936
0.0605324
0.761373
0.329852
0.830379
0.211132
0.79308
-0.198099
0.739592
-0.387168
0.739511
-0.052073
0.782063
0.327725
0.823724
0.407021
0.827536
0.149891
0.799501
-0.0348995
0.757637
-0.33137
-0.353683
0.82102
-4.1615e-05
-0.823157
0.818014
-0.00159143
0.814732
-0.00255398
0.810627
-0.00435259
0.807239
-0.00386891
0.80405
-0.00471369
0.80247
-0.00283383
0.802915
-0.00165275
0.805062
6.79717e-05
0.812047
0.00300227
0.816197
0.0010679
0.821048
-0.00147813
0.819635
-0.00502093
0.810397
-0.0189734
0.806507
-0.0109899
0.78487
-0.0222763
0.766717
-0.0256745
0.781827
0.03006
0.782942
0.0181407
0.785423
0.0104094
0.827166
0.066058
0.835479
0.0250332
0.794009
-0.0749179
0.783232
-0.0240474
0.778963
0.0374205
0.740363
-0.0308803
0.763153
0.0377429
0.867967
0.225037
0.922154
0.156945
0.864043
-0.139987
0.781217
-0.304342
0.777653
-0.0485086
0.840827
0.26455
0.897705
0.350142
0.905927
0.141669
0.878105
-0.00707761
0.834695
-0.28796
-0.328048
0.892301
0.001366
-0.893708
0.890383
0.00032636
0.888279
-0.000449916
0.885726
-0.00179988
0.88351
-0.00165244
0.881562
-0.00276594
0.880376
-0.0016479
0.880684
-0.00196056
0.881579
-0.000827031
0.885078
-0.000496637
0.887067
-0.000921132
0.888947
-0.00335843
0.888013
-0.00408662
0.880535
-0.0114962
0.876836
-0.00729003
0.864573
-0.0100135
0.851804
-0.0129057
0.861426
0.0204377
0.864733
0.0148339
0.863034
0.0121087
0.888801
0.0402911
0.897454
0.0163802
0.864244
-0.0417087
0.856043
-0.015846
0.868138
0.0253257
0.852617
-0.0153598
0.864128
0.026232
0.939873
0.149292
0.985381
0.111437
0.926956
-0.0815626
0.826727
-0.204113
0.81077
-0.0325516
0.882946
0.192373
0.956394
0.276695
0.976421
0.121641
0.955086
0.0142571
0.914467
-0.247341
-0.301289
0.970772
0.00218773
-0.971594
0.969633
0.001466
0.96832
0.000863136
0.966794
-0.00027428
0.965398
-0.000256084
0.964163
-0.00153134
0.963309
-0.000793728
0.96329
-0.001942
0.963452
-0.000988409
0.964898
-0.00194309
0.965528
-0.00155147
0.965652
-0.00348168
0.964609
-0.00304348
0.959743
-0.00663043
0.956653
-0.00420041
0.949496
-0.0028559
0.941425
-0.0048351
0.946344
0.0155189
0.948955
0.0122222
0.947779
0.0132853
0.962826
0.0252439
0.969093
0.0101135
0.94846
-0.0210758
0.941479
-0.00886566
0.954
0.0128052
0.949274
-0.0106344
0.95395
0.0215565
1.00432
0.0989251
1.0406
0.0751534
0.993775
-0.0347372
0.898799
-0.109137
0.876442
-0.0101942
0.947229
0.121586
1.02712
0.196804
1.05355
0.0952131
1.03774
0.0300647
1.00122
-0.210821
-0.274179
1.05678
0.00259503
-1.05719
1.0562
0.00205324
1.05545
0.0016039
1.05457
0.000614284
1.05371
0.000599673
1.05291
-0.000730964
1.05228
-0.000164022
1.05203
-0.00169064
1.05182
-0.000776135
1.05214
-0.00226243
1.05198
-0.00139772
1.05146
-0.00295537
1.05042
-0.00200642
1.04701
-0.00322334
1.0445
-0.00168918
1.04031
0.00133909
1.03552
-5.39063e-05
1.03778
0.013264
1.03972
0.0102826
1.03942
0.0135886
1.04726
0.0173997
1.05055
0.00682284
1.03875
-0.00927706
1.03609
-0.00620693
1.04512
0.00378153
1.04411
-0.00962815
1.04864
0.0170231
1.08136
0.0662047
1.10305
0.0534641
1.06699
0.00132186
0.999283
-0.0414256
0.98784
0.00124852
1.04883
0.060599
1.11506
0.130572
1.13509
0.0751849
1.12158
0.0435702
1.08982
-0.179055
-0.248333
1.15099
0.00273471
-1.15113
1.15074
0.0023041
1.15037
0.00197539
1.14989
0.00109549
1.14939
0.0011001
1.14886
-0.000207397
1.1484
0.000296941
1.14805
-0.00133783
1.14768
-0.000407831
1.14747
-0.00205151
1.14701
-0.000935438
1.14622
-0.00216621
1.14517
-0.000956696
1.14289
-0.000946697
1.14108
0.0001246
1.13856
0.00385404
1.13585
0.00265633
1.13674
0.0123735
1.13777
0.00925954
1.13797
0.0133863
1.14212
0.0132471
1.14397
0.00497725
1.13792
-0.00323433
1.13754
-0.0058197
1.14376
-0.00243663
1.14371
-0.00958269
1.14837
0.0123584
1.17013
0.0444466
1.18202
0.0415775
1.15546
0.0278807
1.11354
0.000496973
1.11329
0.00149641
1.15917
0.0147177
1.206
0.0837452
1.21866
0.0625257
1.20933
0.0528968
1.18444
-0.15416
-0.224319
1.25401
0.00270183
-1.25398
1.25398
0.00234149
1.25384
0.00210958
1.25363
0.00130976
1.25335
0.00137539
1.25304
0.000104337
1.2527
0.000639873
1.25237
-0.00100964
1.25197
-1.29374e-05
1.25159
-0.00166915
1.25105
-0.000395292
1.25027
-0.00138317
1.2494
-8.31744e-05
1.24787
0.000582315
1.24658
0.0014126
1.24506
0.00537218
1.24352
0.00419378
1.2438
0.0120968
1.24432
0.00873817
1.24475
0.0129536
1.24693
0.0110753
1.24798
0.00392714
1.24523
-0.000484856
1.24618
-0.00677106
1.25061
-0.00687349
1.2513
-0.0102634
1.25565
0.00800224
1.26922
0.030875
1.27433
0.0364683
1.25663
0.0455808
1.23378
0.0233488
1.23925
-0.0039701
1.26948
-0.0155169
1.29921
0.0540215
1.30742
0.0543066
1.30441
0.0559063
1.28655
-0.136294
-0.202395
1.36671
0.00255911
-1.36657
1.3668
0.00224847
1.36682
0.00209755
1.36677
0.00135926
1.36665
0.00149639
1.36648
0.000272179
1.36625
0.000870896
1.36598
-0.000745989
1.36566
0.000314165
1.36527
-0.00127812
1.3648
6.57789e-05
1.36414
-0.00071491
1.36349
0.000560436
1.36248
0.00159484
1.36164
0.00225637
1.36077
0.00623339
1.35992
0.00504346
1.3601
0.0119215
1.36041
0.00842964
1.36086
0.0125014
1.36219
0.00974708
1.36302
0.00309444
1.36207
0.000463067
1.36351
-0.00820269
1.36662
-0.00999131
1.36726
-0.0109022
1.37075
0.00451086
1.37921
0.022415
1.38131
0.034368
1.37119
0.0557032
1.36069
0.0338503
1.36707
-0.0103454
1.38406
-0.0325092
1.40208
0.0359992
1.40887
0.0475133
1.41156
0.0532162
1.39764
-0.122372
-0.180937
1.48997
0.00235796
-1.48977
1.49014
0.0020773
1.49025
0.00199547
1.4903
0.00129982
1.49029
0.00151371
1.49023
0.000329054
1.4901
0.00100435
1.48992
-0.000571273
1.48968
0.00055514
1.48936
-0.000957978
1.48903
0.000394255
1.48852
-0.000201924
1.48811
0.000968566
1.48748
0.00222921
1.487
0.00272871
1.48662
0.00661698
1.48623
0.00543663
1.48652
0.0116306
1.48684
0.00811259
1.48738
0.0119583
1.4884
0.00872827
1.48919
0.00229819
1.48911
0.000546698
1.49063
-0.00972165
1.49274
-0.0121003
1.49309
-0.0112589
1.49597
0.00163453
1.50119
0.0171976
1.50168
0.0338725
1.49696
0.0604284
1.49465
0.0361597
1.50064
-0.0163311
1.50802
-0.0398956
1.51799
0.0260279
1.52407
0.0414345
1.53046
0.0468293
1.51835
-0.11026
-0.158989
1.6249
0.00212846
-1.62467
1.62511
0.00186872
1.62526
0.00185159
1.62535
0.00120192
1.62539
0.0014797
1.62536
0.000359828
1.62528
0.00108568
1.62511
-0.000407309
1.62492
0.000743488
1.62463
-0.00066101
1.62438
0.000636898
1.624
0.000184288
1.62381
0.00116022
1.62347
0.00256578
1.62342
0.00278356
1.6235
0.00652947
1.62363
0.00531009
1.62443
0.0108307
1.62498
0.00755932
1.62594
0.0110028
1.62697
0.00770126
1.62757
0.0016914
1.62776
0.000356322
1.62862
-0.0105836
1.62907
-0.0125495
1.62869
-0.0108747
1.63103
-0.000705169
1.63403
0.0141957
1.63496
0.03294
1.63659
0.0588042
1.6399
0.0328517
1.64274
-0.0191785
1.64192
-0.0390742
1.64799
0.0199629
1.65591
0.033508
1.6649
0.0378466
1.64904
-0.0944038
-0.134117
1.77265
0.00189445
-1.77241
1.77286
0.00165435
1.77301
0.00170307
1.7731
0.00110922
1.77314
0.0014436
1.77308
0.000420481
1.77299
0.00117408
1.77278
-0.000193626
1.77258
0.000940092
1.77225
-0.000336185
1.77205
0.000841921
1.77173
0.000503261
1.77172
0.0011696
1.77163
0.00265694
1.772
0.00241467
1.77256
0.0059735
1.77322
0.00464137
1.77473
0.00932473
1.77557
0.0067162
1.77721
0.00936551
1.77841
0.00649845
1.77873
0.00137194
1.77913
-4.48489e-05
1.779
-0.0104515
1.77766
-0.0112089
1.77662
-0.00983326
1.77825
-0.00233567
1.77918
0.0132631
1.7813
0.0308212
1.78908
0.0510295
1.79642
0.0255065
1.79481
-0.0175669
1.78696
-0.0312269
1.79182
0.015103
1.80309
0.0222397
1.813
0.0279409
1.79277
-0.0741802
-0.105777
1.93509
0.00168817
-1.93488
1.9352
0.00154325
1.93525
0.00165136
1.93511
0.0012513
1.93498
0.0015718
1.93453
0.000870102
1.93422
0.00148044
1.93351
0.000514939
1.93306
0.00139255
1.93233
0.000400218
1.93186
0.00130651
1.93149
0.000872137
1.93142
0.00124501
1.93182
0.00225462
1.93269
0.0015418
1.93436
0.00430925
1.9362
0.00279572
1.93957
0.00595678
1.94169
0.00459887
1.94527
0.00578345
1.94748
0.00428424
1.94703
0.00182105
1.94658
0.000412945
1.942
-0.00587791
1.93588
-0.00509094
1.93209
-0.00603574
1.93031
-0.000561505
1.9304
0.0131754
1.94078
0.0204423
1.96233
0.0294804
1.97428
0.0135523
1.96239
-0.00567069
1.94467
-0.013509
1.95003
0.00973826
1.96554
0.00673475
1.97576
0.0177177
1.94688
-0.045301
-0.0722407
2.11154
0.00134442
-2.11119
2.11175
0.00133187
2.11199
0.00141244
2.11196
0.00127547
2.11208
0.00145933
2.11177
0.00117445
2.11176
0.0014927
2.11122
0.00105287
2.11111
0.00150877
2.11055
0.00096082
2.11038
0.00147601
2.11019
0.00105914
2.11012
0.00131021
2.11079
0.00159233
2.11122
0.00110686
2.11309
0.00243816
2.11448
0.00141103
2.11754
0.00289766
2.11981
0.00232713
2.12281
0.00277624
2.12494
0.00216102
2.12468
0.00208084
2.12382
0.00126862
2.11842
-0.000478224
2.11288
0.000450768
2.10788
-0.0010362
2.1051
0.0022171
2.10895
0.00932413
2.1213
0.00809209
2.14027
0.0105156
2.14939
0.00443295
2.1404
0.00331927
2.12768
-0.000785896
2.12868
0.00873642
2.13475
0.000665692
2.14294
0.00952619
2.12577
-0.0281369
-0.047764
2.30327
0.000883467
-2.30281
2.30369
0.000914389
2.30416
0.000938321
2.30453
0.000910327
2.305
0.000986885
2.3053
0.000876557
2.30576
0.00103136
2.30598
0.000830074
2.30643
0.00106307
2.30658
0.000805249
2.30699
0.00107102
2.30718
0.000867732
2.30744
0.00105146
2.30794
0.00109009
2.30801
0.00103689
2.30898
0.00146468
2.30929
0.00110403
2.31039
0.00180176
2.31146
0.00125831
2.31239
0.00184476
2.31326
0.00129118
2.31397
0.0013718
2.31405
0.00118421
2.31302
0.000552631
2.31256
0.000912639
2.31062
0.000899484
2.31065
0.0021877
2.31568
0.00429501
2.32016
0.00361069
2.32462
0.00605649
2.3271
0.00195162
2.32868
0.00173783
2.32757
0.000322932
2.3277
0.00861119
2.32553
0.00283884
2.33078
0.0042744
2.32416
-0.0215217
-0.0320904
2.51449
0.000462098
-2.51406
2.51491
0.000485476
2.51535
0.000497687
2.51576
0.000500892
2.51622
0.000531188
2.51659
0.000505047
2.51706
0.000563452
2.51739
0.00050114
2.51786
0.000588877
2.51817
0.000495936
2.51865
0.000597097
2.519
0.000508544
2.51948
0.000576278
2.52001
0.00056465
2.52051
0.000531021
2.52131
0.000663702
2.52191
0.000506727
2.52296
0.000751539
2.52367
0.000550368
2.52471
0.000800075
2.52539
0.000615245
2.52594
0.000821163
2.52638
0.000748135
2.52617
0.000761191
2.52611
0.000969807
2.52603
0.00097851
2.52706
0.00116227
2.52942
0.00193568
2.53201
0.001011
2.53634
0.00172856
2.53813
0.000159503
2.53813
0.00174691
2.53721
0.00123769
2.5412
0.00462653
2.54313
0.000902331
2.54566
0.00174654
2.53295
-0.00880951
-0.0144761
2.74592
-2.74546
2.7464
2.7469
2.7474
2.74793
2.74844
2.749
2.7495
2.75009
2.75059
2.75118
2.75169
2.75227
2.75283
2.75337
2.75403
2.75454
2.75529
2.75584
2.75664
2.75725
2.75807
2.75882
2.75958
2.76055
2.76153
2.76269
2.76463
2.76564
2.76737
2.76753
2.76928
2.77051
2.77514
2.77604
2.77779
2.76898
0.439399
0.0379923
-0.432904
0.44817
0.0641171
0.454451
0.0951813
0.463764
0.119313
0.470825
0.149967
0.480568
0.171586
0.490856
0.199394
0.220005
0.468824
0.0325615
-0.463393
0.475926
0.0570151
0.481835
0.0892726
0.489124
0.112024
0.496292
0.142799
0.502689
0.165189
0.510146
0.191937
0.212925
0.502526
0.0279236
-0.497888
0.507335
0.0522066
0.512544
0.0840632
0.516952
0.107616
0.522572
0.13718
0.527659
0.160101
0.534757
0.184839
0.205024
0.539217
0.023988
-0.535281
0.54232
0.049103
0.546825
0.0795584
0.550602
0.103838
0.556362
0.13142
0.561884
0.154579
0.568551
0.178172
0.198898
0.580238
0.0208366
-0.577087
0.5827
0.0466409
0.586991
0.0752679
0.59077
0.10006
0.595699
0.126491
0.600204
0.150074
0.605221
0.173155
0.193311
0.626018
0.0182638
-0.623445
0.628198
0.044461
0.631693
0.0717726
0.634732
0.0970209
0.638636
0.122587
0.642913
0.145796
0.648126
0.167942
0.18769
0.67655
0.0163806
-0.674667
0.678418
0.0425939
0.6813
0.0688906
0.68441
0.0939104
0.68846
0.118538
0.69308
0.141176
0.698256
0.162767
0.182393
0.732617
0.0149842
-0.731221
0.73447
0.0407413
0.737253
0.0661077
0.740596
0.0905677
0.744729
0.114404
0.749309
0.136596
0.754398
0.157678
0.17687
0.794798
0.0138629
-0.793677
0.796658
0.0388813
0.799388
0.0633777
0.802766
0.0871895
0.806912
0.110258
0.811635
0.131873
0.817189
0.152124
0.170902
0.863356
0.0129207
-0.862414
0.865179
0.0370585
0.867921
0.0606361
0.871445
0.0836651
0.875919
0.105784
0.881181
0.126611
0.887213
0.146092
0.164407
0.938846
0.012062
-0.937987
0.940725
0.0351795
0.943635
0.0577263
0.947486
0.0798136
0.952351
0.100919
0.958011
0.120951
0.964459
0.139644
0.157272
1.02182
0.0112296
-1.02099
1.02379
0.033208
1.02688
0.054637
1.03102
0.0756744
1.03621
0.0957338
1.04231
0.114851
1.04934
0.132615
0.149418
1.1128
0.0104107
-1.11198
1.11487
0.0311373
1.11816
0.0513467
1.12263
0.0712062
1.12824
0.090118
1.13491
0.108187
1.14256
0.124966
0.140846
1.21248
0.00958133
-1.21165
1.21468
0.028937
1.21822
0.0478114