/*--------------------------------*- C++ -*----------------------------------*\
| =========                 |                                                 |
| \\      /  F ield         | OpenFOAM: The Open Source CFD Toolbox           |
|  \\    /   O peration     | Version:  2312                                  |
|   \\  /    A nd           | Website:  www.openfoam.com                      |
|    \\/     M anipulation  |                                                 |
\*---------------------------------------------------------------------------*/
FoamFile
{
    version     2.0;
    format      ascii;
    arch        "LSB;label=32;scalar=64";
    class       surfaceScalarField;
    location    "14";
    object      phi;
}
// * * * * * * * * * * * * * * * * * * * * * * * * * * * * * * * * * * * * * //

dimensions      [0 3 -1 0 0 0 0];

oriented        oriented;

internalField   nonuniform List<scalar> 
26232
(
-0.000209261
0.00104929
-0.000840028
-0.000229118
0.00218408
-0.00216423
0.000316306
0.00241795
-0.00296337
0.00172382
0.00166559
-0.00307311
0.00429477
-0.000225638
-0.00234531
0.008339
-0.00340885
-0.000635381
0.0141828
-0.00801439
0.00217062
0.0220846
-0.0140605
0.00615871
0.0321494
-0.0214266
0.0113617
0.0442578
-0.0298448
0.0177364
0.0580425
-0.0389359
0.0251513
0.072921
-0.0482682
0.0333897
0.0881698
-0.0574181
0.0421692
0.10302
-0.0660201
0.0511699
0.116757
-0.0738017
0.0600646
0.12881
-0.0806075
0.0685545
0.138841
-0.0864062
0.0763752
0.146751
-0.0912954
0.0833852
0.152812
-0.0954595
0.0893989
0.157317
-0.0992108
0.0947059
0.161072
-0.102631
0.0988763
0.164174
-0.106422
0.103319
0.166876
-0.109272
0.106571
-0.113741
0.111846
0.168771
-0.000189969
0.00123926
-0.000115298
0.00210941
0.000698561
0.00160409
0.00269315
-0.000328996
0.00629759
-0.00383008
0.0119169
-0.00902812
0.0198203
-0.0159178
0.0300381
-0.0242784
0.0422863
-0.0336748
0.0559811
-0.0435396
0.0703322
-0.053287
0.0844778
-0.0624138
0.0976242
-0.0705645
0.109164
-0.07756
0.118759
-0.0833966
0.126375
-0.0882233
0.132259
-0.0922904
0.136864
-0.0959005
0.140714
-0.0993097
0.144236
-0.102732
0.147796
-0.106191
0.151184
-0.10981
0.155047
-0.113135
-0.117247
0.158553
-6.64466e-05
0.0013057
0.000355879
0.00168709
0.0018185
0.000141466
0.00485868
-0.00336917
0.00997016
-0.00894156
0.0174791
-0.0165371
0.0273885
-0.0258271
0.0392907
-0.0361806
0.0524207
-0.0468048
0.0658239
-0.0569428
0.0785632
-0.0660263
0.0898985
-0.0737491
0.0994025
-0.0800685
0.106999
-0.0851567
0.112924
-0.0893218
0.117615
-0.0929143
0.121568
-0.0962431
0.125189
-0.0995218
0.128719
-0.102839
0.132227
-0.106241
0.135643
-0.109607
0.138946
-0.113113
0.142109
-0.116299
-0.120078
0.144941
0.000108561
0.00119714
0.00103191
0.000763741
0.00338237
-0.002209
0.00774302
-0.00772982
0.0145361
-0.0157347
0.0238056
-0.0258066
0.0350788
-0.0371004
0.0474461
-0.0485479
0.0598192
-0.0591779
0.0712227
-0.0683463
0.0810061
-0.0758097
0.088931
-0.0816741
0.095137
-0.0862745
0.100015
-0.0900347
0.104037
-0.0933441
0.107606
-0.0964829
0.11097
-0.0996069
0.114217
-0.102769
0.117361
-0.105983
0.120353
-0.109233
0.123274
-0.112528
0.126083
-0.115922
0.128995
-0.119211
-0.123062
0.131979
0.000299903
0.00089724
0.00181647
-0.000752821
0.00520118
-0.00559372
0.010993
-0.0135216
0.019351
-0.0240927
0.0298163
-0.0362719
0.0413754
-0.0486594
0.0528146
-0.0599871
0.0631168
-0.0694801
0.0717045
-0.076934
0.0784827
-0.0825879
0.0837236
-0.086915
0.0878724
-0.0904233
0.0913607
-0.093523
0.094494
-0.0964774
0.0974334
-0.0994223
0.100239
-0.102412
0.10294
-0.105471
0.105562
-0.108605
0.108156
-0.111828
0.110757
-0.115128
0.113353
-0.118518
0.116032
-0.12189
-0.125572
0.118542
0.000512093
0.000385148
0.00269326
-0.00293399
0.00718935
-0.0100898
0.0143389
-0.0206712
0.0238082
-0.033562
0.034545
-0.0470087
0.045206
-0.0593203
0.0546895
-0.0694707
0.062433
-0.0772235
0.0684153
-0.0829163
0.0729711
-0.0871437
0.0765537
-0.0904975
0.0795562
-0.0934258
0.0822384
-0.0962053
0.0847409
-0.0989799
0.0871332
-0.101815
0.0894586
-0.104737
0.0917429
-0.107755
0.094006
-0.110868
0.0962427
-0.114064
0.0984504
-0.117336
0.100613
-0.12068
0.102779
-0.124056
-0.12766
0.104866
0.000757187
-0.000372039
0.00366073
-0.00583753
0.00924583
-0.0156749
0.017437
-0.0288624
0.0272684
-0.0433933
0.037276
-0.0570164
0.046203
-0.0682473
0.05341
-0.0766777
0.0588712
-0.0826847
0.0629346
-0.0869797
0.0660535
-0.0902626
0.0686103
-0.0930544
0.0708585
-0.095674
0.0729412
-0.098288
0.0749316
-0.10097
0.0768647
-0.103748
0.0787526
-0.106625
0.0805984
-0.109601
0.0824
-0.112669
0.0841648
-0.115829
0.085906
-0.119077
0.0876316
-0.122406
0.0893818
-0.125806
-0.129356
0.0910781
0.00103683
-0.00140887
0.00467836
-0.00947906
0.0111813
-0.0221779
0.0198681
-0.0375491
0.0292353
-0.0527606
0.037798
-0.0655791
0.0447229
-0.0751722
0.0498889
-0.0818437
0.0536173
-0.0864131
0.056365
-0.0897274
0.058528
-0.0924257
0.0603744
-0.0949008
0.0620559
-0.0973555
0.0636453
-0.0998774
0.0651721
-0.102497
0.0666452
-0.105221
0.06807
-0.10805
0.0694533
-0.110984
0.0708056
-0.114022
0.0721343
-0.117158
0.0734401
-0.120383
0.0747225
-0.123688
0.0759915
-0.127075
-0.130561
0.0771971
0.00133843
-0.0027473
0.00565862
-0.0137993
0.012748
-0.0292673
0.0212881
-0.0460893
0.029556
-0.0610284
0.0363913
-0.0724144
0.041462
-0.0802429
0.045008
-0.0853897
0.0474835
-0.0888886
0.0493126
-0.0915565
0.0507914
-0.0939044
0.0520875
-0.096197
0.0532802
-0.0985482
0.0544012
-0.100998
0.0554629
-0.103559
0.0564732
-0.106231
0.0574386
-0.109016
0.0583645
-0.11191
0.0592529
-0.11491
0.0601036
-0.118009
0.0609187
-0.121198
0.0617056
-0.124475
0.0624737
-0.127843
-0.131301
0.063213
0.0016365
-0.0043838
0.00648686
-0.0186496
0.0137268
-0.0365072
0.0215636
-0.0539261
0.0284067
-0.0678714
0.0335578
-0.0775655
0.0370806
-0.0837657
0.0393956
-0.0877047
0.0409586
-0.0904516
0.0421071
-0.092705
0.0430383
-0.0948356
0.0438474
-0.0970061
0.0445744
-0.0992751
0.0452351
-0.101659
0.0458372
-0.104161
0.0463854
-0.106779
0.0468832
-0.109513
0.0473342
-0.112361
0.0477422
-0.115318
0.048111
-0.118377
0.048444
-0.121531
0.0487444
-0.124776
0.0490142
-0.128113
-0.131536
0.0492495
0.00190075
-0.00628455
0.00705497
-0.0238038
0.0140041
-0.0434563
0.0207752
-0.0606972
0.0261279
-0.0732241
0.029792
-0.0812297
0.0320786
-0.0860523
0.0334594
-0.0890854
0.0343251
-0.0913174
0.0349191
-0.093299
0.035364
-0.0952805
0.0357121
-0.0973542
0.0359837
-0.0995467
0.0361868
-0.101862
0.0363258
-0.1043
0.0364049
-0.106858
0.0364285
-0.109537
0.0364009
-0.112333
0.0363252
-0.115242
0.0362025
-0.118255
0.0360349
-0.121364
0.0358244
-0.124565
0.0355696
-0.127858
-0.131243
0.035277
0.00210544
-0.00838998
0.00729591
-0.0289943
0.0135966
-0.049757
0.0191355
-0.0662361
0.0230853
-0.0771739
0.0254981
-0.0836424
0.0268054
-0.0873596
0.0274515
-0.0897315
0.0277429
-0.0916088
0.0278444
-0.0934005
0.027829
-0.095265
0.0277246
-0.0972498
0.0275416
-0.0993637
0.0272851
-0.101606
0.0269592
-0.103974
0.0265676
-0.106467
0.0261137
-0.109083
0.0256
-0.11182
0.0250285
-0.114671
0.0244019
-0.117628
0.0237245
-0.120686
0.0230012
-0.123842
0.0222354
-0.127092
0.0214324
-0.13044
-0.00148206
0.00356527
-0.00208321
-0.00463021
0.00730976
-0.00416161
-0.00870562
0.00922166
-0.00514625
-0.0132943
0.0101822
-0.00559349
-0.0182029
0.0107278
-0.00581918
-0.0233585
0.0111135
-0.0059579
-0.0287315
0.0114153
-0.0060422
-0.0343
0.0116356
-0.00606713
-0.0400377
0.01176
-0.00602239
-0.0459114
0.0117746
-0.00590086
-0.0518832
0.0116682
-0.0056964
-0.0579109
0.0114325
-0.00540483
-0.063949
0.0110619
-0.00502385
-0.0699492
0.0105531
-0.00455283
-0.0758614
0.00990482
-0.00399269
-0.0816336
0.00911802
-0.00334582
-0.0872126
0.0081949
-0.00261584
-0.0925466
0.0071391
-0.00180517
-0.0975912
0.00595622
-0.000911609
-0.10232
0.00465402
7.52409e-05
-0.106582
0.00325105
0.00101003
-0.110345
0.00173589
0.00202796
-0.113507
7.51346e-05
0.00308675
-0.00150511
-0.11615
0.00414798
-0.00105548
0.00462074
-0.00350365
0.00975794
-0.00682825
0.0125463
-0.0106583
0.0140122
-0.0147713
0.0148408
-0.0190556
0.0153977
-0.0234543
0.015814
-0.0279272
0.0161085
-0.0324338
0.0162666
-0.0369294
0.0162702
-0.0413653
0.0161041
-0.0456893
0.0157566
-0.0498467
0.0152193
-0.0537807
0.014487
-0.0574329
0.013557
-0.0607441
0.0124292
-0.0636551
0.0111059
-0.0661074
0.00959145
-0.0680425
0.00789131
-0.0694035
0.00601505
-0.0701289
0.00397637
-0.0701535
0.00176057
-0.0694792
-0.000599178
-0.00309895
-0.0678854
-0.000512933
0.00513368
-0.00201396
0.011259
-0.00429121
0.0148235
-0.00706329
0.0167843
-0.0100908
0.0178684
-0.0132167
0.0185236
-0.0163483
0.0189456
-0.0194241
0.0191843
-0.0223911
0.0192337
-0.0251966
0.0190757
-0.027786
0.0186935
-0.0301034
0.0180739
-0.0320915
0.0172075
-0.0336924
0.0160879
-0.0348477
0.0147123
-0.035499
0.0130804
-0.0355879
0.0111949
-0.0350573
0.00906086
-0.0338503
0.00668422
-0.0318942
0.00405894
-0.0291344
0.00121657
-0.0255212
-0.00185261
-0.0210985
-0.00502189
-0.00871377
-0.0154836
4.1415e-05
0.00509226
-0.000400565
0.0117009
-0.00144837
0.0158713
-0.00295767
0.0182936
-0.00470915
0.0196198
-0.0065107
0.0203252
-0.00822884
0.0206638
-0.0097762
0.0207316
-0.0110862
0.0205436
-0.0121003
0.0200898
-0.0127624
0.0193556
-0.0130178
0.0183293
-0.0128122
0.0170019
-0.0120924
0.0153681
-0.0108062
0.0134261
-0.00890313
0.0111774
-0.00633578
0.00862754
-0.00305839
0.00578347
0.000968856
0.00265698
0.00578897
-0.000761175
0.0113576
-0.0043521
0.0179164
-0.00841131
0.0252636
-0.0123691
-0.0172874
0.0338372
0.000504031
0.00458823
0.00106806
0.0111369
0.00129826
0.0156411
0.00115214
0.0184397
0.000777783
0.0199942
0.000371581
0.0207314
0.000100822
0.0209345
8.84935e-05
0.0207439
0.000418541
0.0202136
0.00115503
0.0193533
0.00235303
0.0181576
0.00406346
0.0166189
0.0063336
0.0147317
0.00920702
0.0124947
0.0127223
0.00991083
0.016913
0.00698674
0.0218132
0.00372734
0.0274206
0.00017605
0.0337804
-0.00370288
0.0409815
-0.00796225
0.0488946
-0.0122652
0.0579035
-0.0174203
0.0675425
-0.0220081
-0.0285978
0.0788529
0.0008061
0.00378213
0.0021736
0.00976942
0.00354911
0.0142656
0.00472533
0.0172635
0.00573401
0.0189855
0.00672506
0.0197404
0.00786907
0.0197905
0.00930823
0.0193048
0.0111495
0.0183724
0.0134702
0.0170326
0.0163277
0.0153001
0.0197656
0.013181
0.0238169
0.0106804
0.0285065
0.0078051
0.0338538
0.00456347
0.0398385
0.0010021
0.0465166
-0.00295076
0.0539371
-0.00724448
0.0620356
-0.0118014
0.070985
-0.0169117
0.0806624
-0.0219425
0.0916008
-0.0283587
0.103181
-0.0335879
-0.0421242
0.116707
0.00091824
0.00286389
0.00275894
0.00792872
0.00496547
0.0120591
0.00723068
0.0149983
0.00946734
0.0167488
0.0117384
0.0174693
0.0141735
0.0173554
0.016908
0.0165704
0.020054
0.0152264
0.0236937
0.0133928
0.0278815
0.0111124
0.03265
0.00841256
0.0380153
0.00531503
0.0439678
0.00185261
0.0505356
-0.00200432
0.0577863
-0.00624855
0.065694
-0.0108585
0.0743172
-0.0158677
0.0837964
-0.0212806
0.0942305
-0.0273458
0.10579
-0.0335017
0.118732
-0.0413013
0.132803
-0.0476583
-0.0580812
0.14876
0.000859451
0.00200444
0.00279753
0.00599064
0.00537922
0.00947738
0.00829535
0.0120821
0.0113858
0.0136584
0.0146241
0.0142309
0.0180683
0.0139113
0.0218083
0.0128303
0.0259318
0.0111029
0.0305061
0.00881842
0.0355758
0.00604271
0.0411664
0.00282195
0.04728
-0.000798576
0.054053
-0.00492034
0.0614863
-0.00943764
0.0696592
-0.0144214
0.0787333
-0.0199326
0.0888425
-0.0259769
0.100268
-0.032706
0.112936
-0.0400135
0.12732
-0.0478864
0.142775
-0.0567564
0.159866
-0.0647488
-0.0757708
0.177556
0.000677149
0.00132729
0.00237831
0.00428948
0.00485084
0.00700486
0.00786336
0.00906961
0.011249
0.0102728
0.0149267
0.0105532
0.0188872
0.00995075
0.0231644
0.0085531
0.0278101
0.00645722
0.0328806
0.00374794
0.0384112
0.000512124
0.0445589
-0.00332578
0.0514383
-0.00767797
0.0591345
-0.0126165
0.0678628
-0.0181659
0.0778351
-0.0243938
0.0892029
-0.0313004
0.102114
-0.0388884
0.116561
-0.0471528
0.132287
-0.0557394
0.149332
-0.0649312
0.166391
-0.0738153
0.184371
-0.0827288
-0.0918186
0.200418
0.000423103
0.000904189
0.0016577
0.00305488
0.00363801
0.00502455
0.0062484
0.00645923
0.00937069
0.00715046
0.0129239
0.00699999
0.0168789
0.00599579
0.0212581
0.00417392
0.0261306
0.00158471
0.0316227
-0.00174422
0.0379367
-0.00580184
0.0452285
-0.0106176
0.0537537
-0.0162032
0.0637155
-0.0225783
0.0752577
-0.0297081
0.0884311
-0.0375671
0.103076
-0.0459456
0.119004
-0.0548159
0.135611
-0.0637598
0.152573
-0.0727017
0.169008
-0.0813664
0.184243
-0.0890503
0.198205
-0.0966907
-0.102145
0.208532
0.000148325
0.000755864
0.000828141
0.00237506
0.00214063
0.00371206
0.00409478
0.00450508
0.00666646
0.00457879
0.0098491
0.00381735
0.013687
0.00215792
0.0182968
-0.000435958
0.0238663
-0.00398477
0.0306341
-0.00851203
0.0388517
-0.0140194
0.0487112
-0.0204771
0.0603106
-0.0278026
0.0735895
-0.0358573
0.0883177
-0.0444363
0.104077
-0.0533265
0.120328
-0.0621965
0.136426
-0.0709141
0.151622
-0.078956
0.1655
-0.0865793
0.177114
-0.0929805
0.18698
-0.0989168
0.194102
-0.103812
-0.107003
0.19896
-8.41642e-05
0.000126674
0.000875362
0.00230733
0.00454082
0.00772278
0.0120513
0.0177741
0.0251511
0.0343754
0.0455073
0.0584199
0.0727866
0.0880993
0.103728
0.118956
0.133134
0.145605
0.156048
0.164175
0.170071
0.174473
0.177232
0.182075
-0.114089
-0.00937148
0.00731037
-0.11053
-0.0130324
0.00947344
-0.105719
-0.0163504
0.0115396
-0.0994999
-0.0199941
0.0137747
-0.0918476
-0.0235333
0.015881
-0.0827002
-0.0271198
0.0179724
-0.0719359
-0.030691
0.0199267
-0.0594138
-0.0341333
0.0216112
-0.0450726
-0.0373278
0.0229867
-0.02888
-0.0400822
0.0238895
-0.0111035
-0.0419024
0.0241259
0.00782695
-0.0428221
0.0238916
0.0274186
-0.0427202
0.0231286
0.046827
-0.0415561
0.0221477
0.0653037
-0.0394767
0.021
0.0822811
-0.0367635
0.0197861
0.0974093
-0.0337082
0.01858
0.110521
-0.030613
0.0175018
0.121642
-0.0277003
0.0165791
0.130939
-0.0251014
0.0158038
0.138651
-0.0228576
0.0151457
0.145026
-0.0209566
0.0145815
0.150303
-0.0193538
0.0140771
0.154691
-0.0179993
0.0136112
0.158371
-0.0168387
0.0131587
0.161492
-0.0158281
0.0127076
0.164175
-0.0149384
0.0122547
0.166524
-0.0141416
0.0117927
0.168621
-0.0134059
0.011309
0.17053
-0.0127076
0.0107988
0.172296
-0.0120324
0.0102666
0.173941
-0.0113461
0.0097003
0.175464
-0.0105839
0.00906156
0.176835
-0.00967692
0.00830608
0.178016
-0.00861786
0.00743635
0.178981
-0.00744022
0.00647541
0.179727
-0.00624609
0.00550052
0.180272
-0.00502222
0.00447628
0.180653
-0.00387739
0.0034968
0.180898
-0.00257181
0.00232717
0.181037
-0.00142922
0.00129035
0.181081
0.000210104
-0.000254139
0.181059
0.00129291
-0.00127113
0.180964
0.00351858
-0.00342352
0.180822
0.00431707
-0.0041753
0.180616
0.0074785
-0.00727296
0.180378
0.00775337
-0.00751509
0.18009
0.0121011
-0.0118125
0.179769
0.0119332
-0.0116121
0.179416
0.017322
-0.0169698
0.179025
0.0172526
-0.0168611
0.178612
0.0233407
-0.0229281
0.178167
0.0237142
-0.0232695
0.177693
0.0308663
-0.0303923
0.177199
0.0312546
-0.0307602
0.176678
0.0402176
-0.0396966
0.176129
0.0407152
-0.0401665
0.175563
0.0513538
-0.0507871
0.174973
0.0525796
-0.0519895
0.0652757
-0.0646607
-0.065547
-0.0117099
-0.0620715
-0.0165078
-0.057295
-0.0211269
-0.0514269
-0.0258621
-0.044258
-0.0307023
-0.0358334
-0.0355444
-0.0260097
-0.0405147
-0.0147106
-0.0454324
-0.00181875
-0.0502196
0.0122793
-0.0541802
0.0276959
-0.057319
0.0439859
-0.059112
0.0606076
-0.0593419
0.076898
-0.0578465
0.0921753
-0.054754
0.105944
-0.0505318
0.118025
-0.0457899
0.128353
-0.0409409
0.136984
-0.0363312
0.14409
-0.0322076
0.149884
-0.028651
0.154582
-0.0256549
0.158394
-0.0231664
0.161507
-0.0211119
0.164075
-0.0194068
0.166225
-0.0179777
0.168059
-0.0167727
0.169663
-0.015746
0.171105
-0.0148473
0.172433
-0.0140358
0.173685
-0.0132841
0.174884
-0.012545
0.176034
-0.0117342
0.177114
-0.0107572
0.178085
-0.00958908
0.17891
-0.0082649
0.179571
-0.00690665
0.180071
-0.00552303
0.180434
-0.00424052
0.18068
-0.00281781
0.180834
-0.00158253
0.180898
0.000146077
0.180901
0.00128928
0.180834
0.00358597
0.180721
0.00443041
0.180543
0.00765577
0.180334
0.00796333
0.180071
0.0123631
0.179778
0.0122265
0.17945
0.0176505
0.179085
0.0176174
0.178693
0.0237322
0.178273
0.0241345
0.177818
0.0313218
0.177344
0.031728
0.176837
0.0407246
0.176305
0.0412472
0.175746
0.0519126
0.175166
0.0531603
0.0658912
-0.0129483
-0.0142452
-0.00986983
-0.0195863
-0.00570729
-0.0252894
-0.000602966
-0.0309665
0.00537285
-0.0366781
0.0125007
-0.0426722
0.0208321
-0.0488461
0.0304222
-0.0550225
0.04119
-0.0609874
0.0531499
-0.0661401
0.0659824
-0.0701515
0.0792866
-0.0724163
0.0925168
-0.0725721
0.105134
-0.0704639
0.116673
-0.0662932
0.126849
-0.0607073
0.13559
-0.0545309
0.142986
-0.0483369
0.149108
-0.042453
0.154126
-0.0372254
0.158212
-0.0327379
0.161526
-0.0289679
0.164209
-0.0258493
0.16639
-0.0232932
0.168177
-0.0211939
0.169657
-0.0194572
0.170903
-0.018019
0.171981
-0.0168241
0.172941
-0.0158076
0.173819
-0.0149133
0.174641
-0.0141066
0.175436
-0.01334
0.176223
-0.012521
0.176999
-0.0115328
0.177736
-0.010326
0.178396
-0.00892547
0.178954
-0.00746403
0.179399
-0.00596847
0.179742
-0.00458358
0.179993
-0.00306902
0.18017
-0.00175944
0.180268
4.83116e-05
0.180312
0.00124481
0.18029
0.00360826
0.180224
0.00449618
0.180096
0.00778439
0.179936
0.00812359
0.179722
0.0125765
0.17948
0.012469
0.179199
0.0179315
0.178885
0.0179307
0.17854
0.0240772
0.178171
0.0245043
0.17776
0.031732
0.177336
0.0321525
0.176871
0.0411892
0.176386
0.0417329
0.175865
0.052433
0.175326
0.0537
0.0664743
0.035305
-0.015713
0.037736
-0.0220173
0.0408595
-0.0284129
0.0447355
-0.0348424
0.0495283
-0.0414709
0.0553156
-0.0484595
0.0621706
-0.0557011
0.070076
-0.0629278
0.0788804
-0.0697918
0.0884824
-0.0757421
0.0984586
-0.0801277
0.10835
-0.0823082
0.117724
-0.081946
0.12625
-0.0789895
0.133746
-0.0737898
0.140173
-0.0671337
0.145615
-0.0599725
0.150281
-0.0530035
0.154281
-0.0464525
0.157702
-0.0406471
0.160643
-0.0356781
0.163166
-0.0314909
0.165322
-0.0280058
0.167161
-0.0251323
0.168726
-0.0227586
0.170052
-0.020783
0.171176
-0.0191433
0.17214
-0.0177886
0.172981
-0.0166485
0.173722
-0.0156538
0.174382
-0.0147665
0.17499
-0.0139487
0.175582
-0.0131126
0.176176
-0.0121264
0.176763
-0.0109131
0.177315
-0.00947786
0.177806
-0.0079548
0.17822
-0.00638301
0.178561
-0.00492438
0.178832
-0.00334015
0.179046
-0.00197351
0.179193
-9.84399e-05
0.179294
0.00114351
0.179335
0.00356801
0.179335
0.00449554
0.179275
0.00784433
0.179186
0.00821309
0.179043
0.0127192
0.178874
0.012638
0.178664
0.0181413
0.178427
0.0181682
0.178153
0.0243506
0.17786
0.0247977
0.177522
0.0320698
0.177174
0.0325007
0.176781
0.0415824
0.176371
0.0421428
0.17592
0.0528843
0.175453
0.0541672
0.0669924
0.0795282
-0.0163884
0.0810175
-0.0235066
0.0830559
-0.0304513
0.0856447
-0.0374313
0.0890379
-0.0448641
0.0933459
-0.0527675
0.0985236
-0.0608789
0.104469
-0.0688727
0.110973
-0.0762961
0.11773
-0.0824997
0.124302
-0.086699
0.130261
-0.0882671
0.135371
-0.087056
0.139602
-0.0832214
0.143099
-0.0772865
0.146083
-0.0701179
0.148743
-0.0626322
0.151246
-0.0555065
0.15375
-0.0489564
0.156189
-0.0430865
0.158537
-0.0380255
0.160756
-0.0337104
0.16281
-0.03006
0.164679
-0.027001
0.166354
-0.024433
0.167829
-0.022259
0.169113
-0.0204272
0.170226
-0.0189017
0.171193
-0.0176153
0.172029
-0.0164895
0.172746
-0.0154836
0.173371
-0.0145741
0.173947
-0.0136881
0.174507
-0.0126868
0.175062
-0.0114675
0.175594
-0.01001
0.176082
-0.00844256
0.17651
-0.00681152
0.17688
-0.00529449
0.177194
-0.00365411
0.177463
-0.00224199
0.177678
-0.000314076
0.177852
0.000970116
0.177972
0.00344792
0.178057
0.00441004
0.178086
0.007816
0.178088
0.00821118
0.178037
0.0127697
0.177964
0.0127109
0.177849
0.0182566
0.177711
0.0183061
0.177534
0.0245272
0.177343
0.0249891
0.177104
0.0323085
0.17686
0.0327451
0.176566
0.0418758
0.176262
0.0424476
0.17591
0.0532359
0.175547
0.0545305
0.0674125
0.117295
-0.0169764
0.118389
-0.0246003
0.119826
-0.0318886
0.121648
-0.0392534
0.123992
-0.0472081
0.126806
-0.0555807
0.129927
-0.0640007
0.133264
-0.0722093
0.136697
-0.0797296
0.13988
-0.0856821
0.142438
-0.089257
0.144115
-0.0899441
0.144957
-0.0878981
0.145284
-0.083548
0.1455
-0.0775027
0.14597
-0.070588
0.146867
-0.0635292
0.148188
-0.0568281
0.149951
-0.0507186
0.152034
-0.0451703
0.154247
-0.0402385
0.156474
-0.0359368
0.158626
-0.0322119
0.160647
-0.0290225
0.162508
-0.0262937
0.164189
-0.02394
0.165683
-0.0219214
0.166999
-0.0202179
0.168154
-0.0187704
0.169159
-0.0174943
0.170021
-0.0163453
0.170761
-0.0153144
0.171422
-0.0143487
0.172045
-0.0133103
0.172652
-0.0120744
0.173235
-0.0105933
0.173778
-0.00898483
0.174265
-0.00729887
0.174699
-0.00572819
0.175082
-0.00403699
0.175426
-0.00258603
0.175727
-0.000615893
0.175991
0.000706843
0.176208
0.00323063
0.176397
0.00422151
0.176532
0.00768029
0.176646
0.0080977
0.176709
0.0127067
0.176754
0.012666
0.176756
0.0182544
0.176741
0.0183209
0.176686
0.0245823
0.176622
0.0250534
0.176508
0.0324216
0.176395
0.032859
0.176229
0.042041
0.176058
0.0426187
0.175837
0.0534574
0.175608
0.0547592
0.067702
0.14945
-0.0176673
0.150342
-0.0254918
0.151216
-0.0327629
0.152139
-0.0401764
0.153228
-0.0482968
0.154335
-0.0566876
0.155241
-0.0649068
0.155667
-0.0726352
0.155338
-0.0794005
0.154227
-0.0845712
0.152449
-0.0874791
0.150035
-0.0875303
0.147325
-0.0851884
0.144864
-0.0810866
0.143116
-0.0757551
0.142341
-0.069813
0.142553
-0.0637404
0.143564
-0.0578392
0.145145
-0.0522997
0.147177
-0.0472024
0.14944
-0.0425014
0.151751
-0.0382475
0.154007
-0.0344683
0.156148
-0.0311635
0.158141
-0.0282864
0.159966
-0.0257652
0.161614
-0.023569
0.163086
-0.0216904
0.164395
-0.0200795
0.16555
-0.0186489
0.166555
-0.0173502
0.167426
-0.0161855
0.1682
-0.0151232
0.168922
-0.0140321
0.169619
-0.0127709
0.17029
-0.0112644
0.170922
-0.00961688
0.1715
-0.00787753
0.172026
-0.00625413
0.172503
-0.00451318
0.172943
-0.0030266
0.173348
-0.00102127
0.17372
0.000335627
0.174051
0.00289895
0.174361
0.00391214
0.174622
0.00741864
0.174867
0.00785305
0.175064
0.0125098
0.175248
0.0124819
0.17539
0.0181122
0.175521
0.0181897
0.175612
0.0244916
0.175699
0.0249663
0.175738
0.0323831
0.175781
0.0328161
0.175772
0.0420501
0.175762
0.0426279
0.175701
0.0535188
0.175637
0.0548228
0.0678287
0.177759
-0.0178706
0.177832
-0.0255648
0.177458
-0.0323885
0.176743
-0.0394617
0.175734
-0.0472884
0.174233
-0.0551862
0.172079
-0.0627529
0.169093
-0.0696494
0.165141
-0.0754482
0.160195
-0.0796254
0.154686
-0.0819697
0.149293
-0.0821373
0.144534
-0.0804296
0.14087
-0.0774225
0.138546
-0.0734315
0.137559
-0.068826
0.137726
-0.0639071
0.138761
-0.0588738
0.140373
-0.0539125
0.14235
-0.0491786
0.144602
-0.0447537
0.14694
-0.040585
0.149236
-0.0367645
0.15143
-0.0333578
0.153492
-0.0303488
0.155404
-0.027677
0.157153
-0.0253177
0.158735
-0.023272
0.160156
-0.0215012
0.161427
-0.0199194
0.162551
-0.0184745
0.163541
-0.017175
0.164426
-0.0160086
0.165249
-0.0148556
0.166043
-0.0135645
0.166814
-0.012035
0.167551
-0.0103542
0.16824
-0.00856652
0.168879
-0.00689316
0.169469
-0.00510327
0.170026
-0.00358354
0.170552
-0.00154729
0.171049
-0.000161697
0.171512
0.00243586
0.17196
0.00346442
0.172366
0.00701315
0.17276
0.00745836
0.173111
0.0121591
0.173455
0.0121383
0.173759
0.0178081
0.174058
0.0178908
0.174318
0.0242314
0.17458
0.0247041
0.174796
0.0321674
0.175021
0.0325909
0.175196
0.0418756
0.175376
0.0424478
0.175504
0.0533907
0.175635
0.0546918
0.0677606
0.199339
-0.016791
0.197647
-0.023873
0.195131
-0.0298725
0.192027
-0.0363577
0.18829
-0.0435513
0.183779
-0.0506755
0.178441
-0.0574149
0.1723
-0.0635085
0.165445
-0.0685932
0.158214
-0.0723936
0.15096
-0.0747165
0.144481
-0.0756575
0.139332
-0.0752813
0.135722
-0.0738126
0.133589
-0.0712978
0.132744
-0.067981
0.132942
-0.0641051
0.133933
-0.0598655
0.135475
-0.0554541
0.137374
-0.0510773
0.139513
-0.0468926
0.141813
-0.0428855
0.144113
-0.0390648
0.146334
-0.035578
0.148438
-0.0324533
0.15041
-0.0296493
0.152237
-0.0271448
0.15391
-0.0249446
0.15543
-0.023021
0.156805
-0.0212948
0.158042
-0.019711
0.159147
-0.0182804
0.160145
-0.0170062
0.161073
-0.0157836
0.161967
-0.0144591
0.162843
-0.0129102
0.163694
-0.0112053
0.164505
-0.00937815
0.165273
-0.00766122
0.165995
-0.00582522
0.166687
-0.00427525
0.167347
-0.00220761
0.167995
-0.00080924
0.168603
0.00182736
0.169207
0.0028608
0.169774
0.00644642
0.170337
0.00689541
0.17086
0.0116356
0.171383
0.0116157
0.17187
0.0173212
0.172358
0.017403
0.17281
0.0237788
0.17327
0.024244
0.173688
0.0317499
0.17412
0.0321589
0.174505
0.0414908
0.1749
0.0420521
0.175247
0.053044
0.175601
0.0543377
0.0674666
0.206413
-0.0146723
0.20306
-0.0205197
0.198704
-0.0255168
0.193695
-0.0313483
0.18793
-0.0377862
0.181425
-0.0441712
0.174299
-0.0502889
0.166743
-0.0559526
0.159002
-0.0608515
0.151496
-0.0648875
0.144557
-0.0677777
0.138518
-0.0696185
0.13386
-0.0706238
0.130639
-0.0705913
0.128694
-0.0693524
0.127843
-0.0671304
0.127911
-0.0641732
0.128723
-0.0606773
0.130109
-0.0568399
0.131889
-0.0528573
0.133917
-0.0489204
0.136118
-0.0450867
0.138394
-0.0413407
0.140644
-0.0378281
0.142805
-0.0346143
0.144844
-0.0316879
0.146748
-0.0290494
0.14851
-0.0267059
0.150129
-0.02464
0.151614
-0.0227801
0.152971
-0.0210686
0.154205
-0.0195139
0.15533
-0.0181311
0.156379
-0.0168325
0.157389
-0.0154698
0.158383
-0.0139035
0.15936
-0.0121829
0.160308
-0.010326
0.161221
-0.00857394
0.162092
-0.00669643
0.162937
-0.00512025
0.163752
-0.0030229
0.164565
-0.00162144
0.165338
0.00105421
0.166115
0.00208345
0.16686
0.00570138
0.167609
0.00614647
0.168324
0.010921
0.169044
0.0108955
0.169734
0.0166312
0.17043
0.0167064
0.171097
0.0231119
0.171777
0.0235642
0.17242
0.031107
0.173082
0.0314967
0.173703
0.0408699
0.17434
0.0414155
0.174933
0.0524509
0.175537
0.0537329
0.066916
0.196913
-0.0126256
0.193278
-0.0168842
0.188716
-0.0209554
0.183475
-0.0261068
0.177503
-0.0318139
0.17097
-0.0376383
0.16407
-0.0433893
0.157006
-0.0488885
0.150032
-0.0538777
0.143397
-0.0582519
0.137373
-0.0617538
0.132255
-0.0645013
0.12819
-0.066558
0.125178
-0.0675794
0.123193
-0.0673674
0.122181
-0.0661191
0.122053
-0.0640446
0.122672
-0.0612967
0.123893
-0.058061
0.12555
-0.0545139
0.127484
-0.050855
0.129586
-0.0471879
0.131802
-0.0435569
0.134063
-0.0400895
0.136313
-0.0368647
0.138472
-0.0338465
0.140506
-0.0310839
0.142401
-0.0286001
0.144155
-0.026394
0.14578
-0.0244052
0.147285
-0.0225738
0.148672
-0.0209009
0.14995
-0.0194091
0.151146
-0.0180287
0.152299
-0.0166221
0.153433
-0.0150378
0.154557
-0.0133068
0.155658
-0.0114277
0.156733
-0.00964853
0.157771
-0.00773436
0.158788
-0.00613715
0.159777
-0.00401178
0.160769
-0.00261337
0.161727
9.61077e-05
0.162697
0.00111349
0.163638
0.00476027
0.16459
0.00519393
0.165514
0.0099974
0.16645
0.00995983
0.167362
0.0157189
0.168286
0.0157821
0.169188
0.0222099
0.170108
0.0226444
0.170999
0.030216
0.171914
0.030582
0.172796
0.0399882
0.173697
0.040514
0.174563
0.0515844
0.175445
0.0528515
0.066079
0.180434
-0.010985
0.177541
-0.0139915
0.174097
-0.0175115
0.169909
-0.0219183
0.165014
-0.0269193
0.159637
-0.0322611
0.153945
-0.0376967
0.148104
-0.0430484
0.142334
-0.0481069
0.136817
-0.0527355
0.131788
-0.0567243
0.127279
-0.059993
0.123266
-0.0625446
0.119816
-0.0641291
0.117313
-0.0648645
0.115883
-0.0646892
0.115399
-0.063561
0.11573
-0.0616277
0.11673
-0.0590604
0.118237
-0.0560215
0.120089
-0.0527069
0.122179
-0.049278
0.124444
-0.0458211
0.126773
-0.0424186
0.129073
-0.039165
0.131317
-0.0360903
0.13347
-0.0332373
0.135509
-0.0306392
0.137424
-0.0283091
0.139221
-0.0262018
0.140906
-0.0242589
0.142479
-0.0224741
0.143945
-0.0208747
0.145324
-0.019408
0.146654
-0.0179516
0.147962
-0.0163458
0.149261
-0.0146059
0.150542
-0.012709
0.151802
-0.0109085
0.15303
-0.00896192
0.154241
-0.00734826
0.155427
-0.00519838
0.156617
-0.00380274
0.157782
-0.0010695
0.158959
-6.27139e-05
0.160115
0.00360364
0.16129
0.00401882
0.162441
0.00884632
0.163611
0.00879045
0.164765
0.014565
0.165935
0.0146117
0.167093
0.0210522
0.168273
0.0214647
0.169434
0.029055
0.170622
0.0293938
0.171788
0.0388218
0.172977
0.0393251
0.174143
0.0504185
0.175325
0.0516692
0.0649269
0.208068
-0.00941935
-0.209634
0.20739
-0.0133132
0.206734
-0.0168554
0.205665
-0.0208498
0.204065
-0.0253193
0.201944
-0.0301403
0.19935
-0.0351023
0.196317
-0.040015
0.192908
-0.0446985
0.189185
-0.0490126
0.185286
-0.0528247
0.181286
-0.055993
0.177239
-0.0584978
0.173301
-0.0601914
0.169506
-0.0610694
0.165973
-0.0611559
0.162813
-0.0604009
0.160073
-0.0588883
0.157786
-0.056773
0.155962
-0.0541973
0.154575
-0.0513199
0.153581
-0.0482838
0.152923
-0.0451638
0.152551
-0.0420463
0.152417
-0.0390305
0.152474
-0.0361478
0.15267
-0.0334327
0.152956
-0.0309255
0.153292
-0.0286451
0.153648
-0.0265574
0.154004
-0.0246156
0.154348
-0.0228177
0.154663
-0.0211904
0.154941
-0.0196859
0.155183
-0.0181938
0.155403
-0.0165657
0.155616
-0.0148189
0.155832
-0.0129247
0.156049
-0.0111258
0.156267
-0.00917919
0.156476
-0.00755731
0.156682
-0.00540462
0.156873
-0.00399419
0.157067
-0.00126341
0.157253
-0.000248078
0.157421
0.00343484
0.157589
0.00385089
0.157746
0.0086893
0.157908
0.00862852
0.158051
0.0144226
0.158207
0.0144557
0.158344
0.0209153
0.158493
0.0213149
0.158632
0.0289163
0.158785
0.0292407
0.158927
0.0386797
0.159092
0.0391608
0.159247
0.0502627
0.159427
0.0514897
0.064748
0.217351
-0.00836859
-0.218402
0.216275
-0.0122367
0.215411
-0.0159913
0.2143
-0.0197396
0.212765
-0.0237838
0.21074
-0.028115
0.208242
-0.0326044
0.205313
-0.0370864
0.202017
-0.0414024
0.198414
-0.0454092
0.194587
-0.0489982
0.190641
-0.0520467
0.186642
-0.0544989
0.182734
-0.0562836
0.179005
-0.0573401
0.175527
-0.0576785
0.172411
-0.0572843
0.169716
-0.0561938
0.167466
-0.0545225
0.165662
-0.0523936
0.164275
-0.0499328
0.163253
-0.0472621
0.162553
-0.0444637
0.162131
-0.0416245
0.161936
-0.0388354
0.161924
-0.0361351
0.162047
-0.0335565
0.162265
-0.0311437
0.162541
-0.0289211
0.162848
-0.0268638
0.163167
-0.0249344
0.163484
-0.0231345
0.163782
-0.0214891
0.16405
-0.0199538
0.164286
-0.0184295
0.164501
-0.0167804
0.164708
-0.0150269
0.16492
-0.0131364
0.165136
-0.0113417
0.165355
-0.00939796
0.165569
-0.0077716
0.165782
-0.00561753
0.165985
-0.00419718
0.166184
-0.00146224
0.16637