/*--------------------------------*- C++ -*----------------------------------*\
| =========                 |                                                 |
| \\      /  F ield         | OpenFOAM: The Open Source CFD Toolbox           |
|  \\    /   O peration     | Version:  2512                                  |
|   \\  /    A nd           | Website:  www.openfoam.com                      |
|    \\/     M anipulation  |                                                 |
\*---------------------------------------------------------------------------*/
FoamFile
{
    version     2.0;
    format      ascii;
    arch        "LSB;label=32;scalar=64";
    class       volScalarField;
    location    "70";
    object      p;
}
// * * * * * * * * * * * * * * * * * * * * * * * * * * * * * * * * * * * * * //

dimensions      [0 2 -2 0 0 0 0];

internalField   nonuniform List<scalar> 
9800
(
0.0491061
0.0489855
0.0487561
0.048429
0.0480149
0.0475233
0.0469632
0.0463425
0.0456684
0.0449482
0.0441886
0.0433962
0.0425771
0.0417374
0.0408829
0.0400192
0.0391517
0.0382853
0.0374244
0.0365733
0.0357355
0.0349145
0.0341129
0.0333333
0.0325775
0.0318473
0.0311437
0.0304677
0.0298198
0.0292005
0.0286097
0.0280472
0.0275128
0.027006
0.026526
0.0260723
0.0256439
0.02524
0.0248595
0.0245015
0.0492268
0.0491065
0.0488776
0.0485512
0.0481377
0.0476467
0.0470868
0.0464659
0.0457912
0.0450694
0.0443075
0.0435119
0.0426886
0.0418437
0.0409831
0.0401124
0.0392369
0.0383616
0.0374911
0.0366296
0.035781
0.0349485
0.0341353
0.0333437
0.0325758
0.0318335
0.0311179
0.03043
0.0297707
0.0291401
0.0285385
0.0279657
0.0274214
0.0269052
0.0264165
0.0259545
0.0255184
0.0251073
0.0247203
0.0243563
0.0494554
0.0493357
0.0491078
0.0487828
0.0483707
0.047881
0.0473219
0.046701
0.0460251
0.0453009
0.0445349
0.0437335
0.0429027
0.0420483
0.0411763
0.0402923
0.0394018
0.0385097
0.037621
0.0367399
0.0358704
0.0350163
0.0341805
0.0333659
0.0325748
0.031809
0.0310702
0.0303595
0.0296777
0.0290254
0.0284028
0.0278098
0.0272463
0.0267119
0.0262059
0.0257278
0.0252767
0.0248517
0.0244518
0.0240759
0.0497796
0.0496609
0.0494348
0.0491121
0.0487026
0.0482151
0.0476578
0.0470374
0.0463606
0.0456337
0.0448627
0.0440539
0.0432129
0.0423457
0.041458
0.0405556
0.039644
0.0387283
0.0378136
0.0369044
0.0360051
0.0351195
0.0342511
0.0334031
0.032578
0.0317782
0.0310053
0.0302609
0.0295461
0.0288617
0.028208
0.0275852
0.0269931
0.0264316
0.0259
0.0253979
0.0249243
0.0244784
0.0240593
0.0236657
0.0501879
0.0500708
0.0498474
0.0495282
0.0491226
0.0486391
0.0480849
0.0474665
0.0467898
0.0460606
0.0452846
0.0444675
0.0436149
0.0427325
0.041826
0.040901
0.0399632
0.039018
0.0380705
0.0371257
0.0361881
0.0352622
0.0343517
0.0334602
0.0325909
0.0317462
0.0309286
0.0301398
0.0293813
0.0286542
0.0279591
0.0272964
0.0266662
0.0260683
0.0255024
0.0249679
0.0244641
0.0239902
0.023545
0.0231276
0.0506694
0.0505544
0.0503348
0.0500207
0.0496211
0.0491435
0.0485946
0.0479802
0.0473054
0.0465753
0.0457952
0.0449702
0.0441056
0.0432068
0.0422793
0.0413288
0.040361
0.0393814
0.0383953
0.0374081
0.0364247
0.0354499
0.0344882
0.0335436
0.0326197
0.0317198
0.0308465
0.0300022
0.029189
0.0284081
0.0276608
0.0269477
0.0262691
0.025625
0.0250153
0.0244395
0.023897
0.023387
0.0229085
0.0224604
0.0512137
0.0511016
0.0508872
0.0505801
0.0501886
0.0497197
0.0491789
0.0485712
0.0479009
0.0471724
0.04639
0.0455586
0.0446829
0.0437678
0.0428186
0.0418409
0.0408403
0.0398225
0.0387931
0.0377576
0.0367215
0.0356901
0.0346684
0.0336612
0.0326726
0.0317066
0.0307665
0.0298553
0.0289756
0.0281294
0.0273182
0.0265432
0.025805
0.0251038
0.0244399
0.0238129
0.0232224
0.0226675
0.0221474
0.0216609
0.051811
0.0517026
0.0514949
0.051197
0.0508165
0.0503593
0.0498301
0.0492326
0.0485704
0.0478467
0.0470652
0.04623
0.0453453
0.0444154
0.0434451
0.0424398
0.041405
0.0403466
0.0392702
0.0381816
0.0370867
0.0359915
0.0349016
0.0338225
0.0327591
0.031716
0.0306974
0.0297073
0.0287488
0.0278246
0.0269369
0.0260874
0.0252771
0.0245069
0.0237771
0.0230878
0.0224385
0.0218287
0.0212575
0.0207239
0.052452
0.0523482
0.0521489
0.0518627
0.0514962
0.0510543
0.0505406
0.0499577
0.0493078
0.0485933
0.047817
0.046982
0.0460917
0.0451497
0.0441604
0.0431287
0.04206
0.0409599
0.039834
0.0386885
0.0375298
0.0363644
0.0351987
0.0340387
0.0328902
0.0317589
0.0306499
0.0295681
0.0285175
0.0275017
0.0265236
0.0255855
0.0246895
0.0238366
0.0230277
0.0222632
0.0215429
0.0208666
0.0202334
0.0196424
0.0531279
0.0530297
0.0528407
0.0525688
0.0522196
0.0517969
0.0513031
0.0507397
0.0501074
0.0494073
0.0486414
0.0478118
0.0469208
0.0459711
0.0449664
0.0439111
0.0428103
0.0416689
0.0404927
0.0392879
0.0380616
0.0368206
0.035572
0.0343226
0.0330791
0.0318483
0.0306364
0.0294494
0.0282925
0.0271701
0.0260862
0.0250442
0.0240467
0.0230958
0.0221927
0.0213383
0.020533
0.0197767
0.0190688
0.0184085
0.0538305
0.0537388
0.053562
0.0533072
0.0529789
0.0525795
0.0521106
0.051572
0.0509629
0.0502834
0.0495344
0.0487168
0.0478312
0.0468796
0.0458648
0.0447907
0.0436612
0.0424808
0.041255
0.0399902
0.0386938
0.0373731
0.0360356
0.0346888
0.0333406
0.0319989
0.0306715
0.0293652
0.0280866
0.0268415
0.0256349
0.0244715
0.0233551
0.0222885
0.021274
0.0203129
0.0194061
0.018554
0.0177564
0.0170128
0.054552
0.0544678
0.0543053
0.0540703
0.0537663
0.0533947
0.0529558
0.0524477
0.0518681
0.0512162
0.0504917
0.0496936
0.0488209
0.0478746
0.0468569
0.0457705
0.0446179
0.0434026
0.0421298
0.0408062
0.0394392
0.0380361
0.0366048
0.0351536
0.0336916
0.0322282
0.0307721
0.0293319
0.0279153
0.0265297
0.0251819
0.0238778
0.0226226
0.0214205
0.0202746
0.0191871
0.0181598
0.0171935
0.0162888
0.0154452
0.0552851
0.0552095
0.0550631
0.0548508
0.0545746
0.0542353
0.0538316
0.0533597
0.0528163
0.0521999
0.0515083
0.0507382
0.0498871
0.0489551
0.0479435
0.0468532
0.0456848
0.0444409
0.0431263
0.0417474
0.0403112
0.0388248
0.0372964
0.0357352
0.0341514
0.0325556
0.030958
0.0293685
0.0277966
0.0262517
0.0247422
0.0232759
0.0218598
0.0204993
0.0191991
0.0179626
0.0167925
0.0156905
0.0146578
0.0136947
0.0560233
0.0559572
0.0558289
0.0556417
0.0553967
0.0550944
0.0547311
0.0543009
0.0538006
0.0532281
0.0525785
0.0518457
0.0510261
0.0501192
0.0491245
0.0480404
0.0468657
0.0456018
0.044253
0.042825
0.0413235
0.0397552
0.0381284
0.0364533
0.0347411
0.0330032
0.0312515
0.0294973
0.0277522
0.0260276
0.0243342
0.022682
0.0210798
0.0195352
0.0180544
0.0166426
0.0153037
0.0140408
0.0128557
0.0117496
0.0567602
0.0567047
0.0565963
0.0564364
0.0562263
0.0559655
0.055647
0.055264
0.0548141
0.0542942
0.0536958
0.0530102
0.0522334
0.0513638
0.0503985
0.0493326
0.048163
0.0468904
0.0455181
0.0440497
0.0424896
0.0408435
0.0391199
0.0373294
0.0354839
0.0335958
0.0316781
0.029744
0.0278071
0.0258815
0.0239802
0.0221159
0.0202997
0.0185415
0.01685
0.0152325
0.0136947
0.0122411
0.0108749
0.0095981
0.0574906
0.0574467
0.0573595
0.0572289
0.0570574
0.0568421
0.0565721
0.0562416
0.0558501
0.0553912
0.0548528
0.054225
0.0535035
0.0526849
0.0517624
0.0507284
0.049578
0.0483108
0.0469283
0.0454315
0.0438225
0.0421061
0.0402904
0.038386
0.036405
0.0343604
0.0322662
0.0301376
0.0279907
0.0258418
0.0237071
0.0216019
0.0195404
0.0175357
0.0155991
0.0137407
0.0119688
0.0102896
0.00870816
0.00722791
0.0582093
0.0581781
0.0581131
0.0580138
0.0578847
0.0577178
0.0574991
0.0572269
0.0569014
0.0565115
0.0560417
0.0554827
0.0548298
0.0540765
0.0532117
0.0522249
0.0511102
0.0498654
0.0484889
0.0469786
0.0453342
0.0435589
0.0416598
0.0396467
0.0375312
0.0353264
0.0330475
0.0307114
0.0283363
0.0259416
0.0235464
0.0211693
0.0188282
0.0165397
0.0143188
0.0121791
0.010132
0.00818639
0.0063495
0.00462677
0.0589122
0.0588945
0.0588522
0.0587867
0.0587034
0.0585861
0.0584213
0.0582136
0.0579609
0.0576468
0.0572543
0.0567754
0.0562046
0.0555311
0.0547397
0.0538175
0.0527572
0.0515542
0.0502031
0.0486979
0.0470354
0.045217
0.0432477
0.0411353
0.0388903
0.0365256
0.0340568
0.0315022
0.0288825
0.0262195
0.0235357
0.0208535
0.018195
0.0155811
0.0130316
0.010564
0.0081939
0.00593387
0.00379405
0.00178254
0.0595954
0.059592
0.0595726
0.0595441
0.0595088
0.0594404
0.0593327
0.0591954
0.0590213
0.058789
0.0584824
0.058095
0.057619
0.0570395
0.0563378
0.0554992
0.0545143
0.0533751
0.0520714
0.0505934
0.0489347
0.0470937
0.0450722
0.0428753
0.0405111
0.0379913
0.0353316
0.0325512
0.0296723
0.0267196
0.0237187
0.0206964
0.0176795
0.0146943
0.0117658
0.00891698
0.00616841
0.00353759
0.00103872
-0.0013166
0.0602556
0.060267
0.0602712
0.0602835
0.0602958
0.0602749
0.0602281
0.0601662
0.0600749
0.0599301
0.0597179
0.0594326
0.0590634
0.0585915
0.0579961
0.057261
0.0563742
0.0553227
0.0540915
0.0526666
0.051038
0.0492
0.0471501
0.0448891
0.042422
0.0397583
0.0369122
0.0339031
0.0307542
0.0274922
0.0241464
0.0207477
0.0173286
0.0139212
0.0105571
0.00726588
0.00407459
0.00100688
-0.00191744
-0.00468204
0.0608896
0.0609167
0.0609463
0.0610026
0.0610591
0.0610845
0.0611032
0.06112
0.0611147
0.0610626
0.0609525
0.0607789
0.0605271
0.060176
0.0597035
0.059092
0.0583265
0.0573884
0.0562575
0.0549154
0.0533478
0.0515437
0.049495
0.0471974
0.044651
0.0418614
0.0388405
0.0356061
0.0321814
0.0285944
0.0248773
0.0210658
0.0171979
0.0133128
0.00944967
0.00564627
0.00193767
-0.00164446
-0.00507281
-0.00832473
0.0614942
0.0615396
0.0615971
0.0616989
0.061793
0.0618657
0.061954
0.0620507
0.0621344
0.0621793
0.062178
0.0621239
0.0619988
0.0617813
0.0614477
0.0609796
0.0603583
0.0595603
0.0585599
0.0573338
0.0558624
0.0541284
0.0521172
0.0498177
0.0472238
0.0443354
0.0411599
0.0377116
0.0340121
0.0300896
0.0259786
0.0217187
0.0173538
0.012931
0.00849817
0.00410293
-0.000209428
-0.00439701
-0.00842278
-0.0122554
0.0620665
0.0621354
0.0622238
0.0623692
0.0624926
0.0626164
0.0627761
0.0629534
0.0631288
0.0632733
0.0633863
0.0634576
0.0634675
0.0633953
0.0632154
0.0629095
0.0624548
0.0618233
0.0609851
0.0599112
0.0585753
0.056953
0.0550221
0.0527635
0.0501631
0.0472129
0.0439133
0.0402728
0.036309
0.0320485
0.0275263
0.0227851
0.0178747
0.0128501
0.00776932
0.00269174
-0.00232467
-0.00722497
-0.0119594
-0.0164848
0.0626036
0.0627052
0.0628261
0.0630096
0.0631545
0.0633359
0.0635653
0.0638244
0.0640927
0.0643381
0.0645697
0.06477
0.0649223
0.0650055
0.0649927
0.0648665
0.064599
0.0641603
0.0635157
0.0626316
0.061474
0.0600102
0.0582092
0.0560427
0.0534867
0.0505231
0.0471424
0.0433441
0.0391388
0.0345482
0.0296059
0.0243559
0.0188527
0.0131591
0.00734454
0.00148197
-0.00435495
-0.0100947
-0.0156709
-0.0210244
0.0631042
0.0632504
0.063402
0.0636161
0.063777
0.0640238
0.0643176
0.0646621
0.0650205
0.0653681
0.0657206
0.0660518
0.066353
0.0665994
0.0667651
0.066834
0.0667727
0.066552
0.0661314
0.0654748
0.0645398
0.0632859
0.061671
0.0596562
0.0572059
0.0542897
0.0508851
0.0469788
0.0425702
0.0376723
0.0323131
0.0265352
0.0203957
0.0139647
0.00732294
0.000559274
-0.00623368
-0.0129633
-0.0195413
-0.0258875
0.0635699
0.0637721
0.0639473
0.0641854
0.0643601
0.0646804
0.0650296
0.0654654
0.065906
0.0663594
0.0668314
0.0672952
0.0677496
0.0681646
0.0685181
0.0687952
0.0689561
0.0689774
0.0688087
0.0684172
0.0677483
0.0667586
0.0653909
0.0635965
0.0613239
0.0585292
0.0551733
0.0512266
0.0466722
0.0415087
0.0357531
0.0294416
0.0226305
0.0153947
0.0078259
3.02101e-05
-0.00787701
-0.0157764
-0.0235511
-0.0310918
0.0640047
0.0642689
0.0644566
0.064716
0.0649054
0.0653052
0.0656996
0.0662336
0.066743
0.0673101
0.0678935
0.0684948
0.069102
0.06969
0.0702377
0.070733
0.0711293
0.0714142
0.0715216
0.0714322
0.0710698
0.0704003
0.0693421
0.0678457
0.0658328
0.0632489
0.0600312
0.0561317
0.051511
0.0461472
0.0400387
0.033208
0.0257041
0.0176023
0.00900283
2.90886e-05
-0.00917736
-0.0184638
-0.0276753
-0.0366627
0.0644148
0.0647364
0.0649257
0.0652079
0.0654156
0.065897
0.0663272
0.0669644
0.0675273
0.068219
0.0688989
0.0696472
0.0703987
0.071167
0.0719085
0.0726315
0.0732715
0.0738396
0.0742418
0.0744908
0.0744696
0.0741786
0.0734877
0.0723749
0.0707087
0.0684445
0.0654707
0.0617315
0.0571487
0.0516783
0.0452887
0.0379796
0.0297835
0.0207676
0.0110353
0.000724601
-0.00999531
-0.0209311
-0.0318783
-0.0426323
0.0648061
0.0651677
0.0653544
0.0656617
0.0658945
0.0664531
0.0669142
0.0676535
0.0682588
0.069083
0.0698426
0.0707495
0.0716289
0.0725889
0.0735146
0.0744773
0.0753607
0.0762311
0.0769391
0.0775617
0.0779078
0.0780561
0.0777814
0.0771457
0.0759075
0.0740956
0.0714819
0.068054
0.0636383
0.0581968
0.0516301
0.0439181
0.0350577
0.0250982
0.0141378
0.00232131
-0.0101565
-0.023057
-0.0361122
-0.0490417
0.0651849
0.0655562
0.0657449
0.0660773
0.0663461
0.0669692
0.0674643
0.0682944
0.0689416
0.0698957
0.0707255
0.0717954
0.0727875
0.073948
0.0750432
0.0762578
0.0773758
0.0785673
0.079582
0.0806122
0.0813404
0.0819897
0.0821668
0.0821107
0.0813675
0.0801617
0.0780174
0.0751072
0.0710039
0.0658002
0.0591957
0.0512196
0.0417548
0.0308483
0.01857
0.00506377
-0.00945292
-0.0246988
-0.0403286
-0.055959
0.0655531
0.0658983
0.0661008
0.0664548
0.0667741
0.0674415
0.0679815
0.0688809
0.0695817
0.0706482
0.0715525
0.0727742
0.0738758
0.0752324
0.0764896
0.077957
0.0793034
0.0808241
0.0821456
0.0836063
0.0847269
0.0859296
0.0865841
0.0872098
0.0870105
0.0865828
0.0849946
0.0828613
0.0792029
0.0745626
0.0680784
0.0601238
0.0501531
0.038379
0.0246934
0.00928585
-0.00761086
-0.0256827
-0.0444854
-0.0635126
0.0659107
0.0661946
0.0664254
0.0667952
0.0671803
0.0678679
0.0684692
0.0694095
0.0701844
0.0713329
0.0723296
0.0736746
0.0748987
0.0764262
0.0778553
0.0795534
0.0811391
0.0829707
0.0846162
0.0864978
0.0880407
0.0898098
0.0909888
0.0923578
0.0927687
0.0932679
0.0923202
0.0912383
0.0881293
0.0844889
0.0782387
0.070847
0.0604678
0.0482076
0.0330234
0.0155547
-0.0041744
-0.0257219
-0.0484944
-0.071895
0.0662555
0.0664492
0.0667215
0.0671011
0.0675646
0.06825
0.0689282
0.0698815
0.0707525
0.0719484
0.0730607
0.0744905
0.0758602
0.0775181
0.0791427
0.0810279
0.0828816
0.0849753
0.0869868
0.0892352
0.0912666
0.0935484
0.095355
0.0974334
0.0986044
0.100057
0.0999441
0.100073
0.0977123
0.0954498
0.0895669
0.0834412
0.0726336
0.0608464
0.0439356
0.0248435
0.00158222
-0.0242329
-0.0521185
-0.0813492
0.0665828
0.066668
0.066991
0.0673763
0.0679244
0.0685916
0.0693565
0.0703018
0.0712844
0.0724992
0.0737449
0.075225
0.0767596
0.0785083
0.0803493
0.082375
0.0845245
0.0868224
0.0892447
0.0917844
0.0943835
0.0970796
0.0996538
0.102319
0.104486
0.106757
0.107846
0.109084
0.107999
0.107136
0.102156
0.0976349
0.0866034
0.0763127
0.0572627
0.0382805
0.0101083
-0.0199775
-0.0550997
-0.0922624
0.0668871
0.0668584
0.0672366
0.0676247
0.0682567
0.0688975
0.069751
0.0706774
0.071776
0.0729928
0.0743767
0.075886
0.0775896
0.0794042
0.0814648
0.083601
0.0860509
0.0885147
0.0913616
0.0941403
0.0973457
0.100381
0.103817
0.10696
0.110328
0.113259
0.115959
0.118058
0.119004
0.119215
0.116367
0.113008
0.103114
0.0941123
0.0731699
0.0556678
0.0210541
-0.0102586
-0.057712
-0.104798
0.0671644
0.0670272
0.0674608
0.0678497
0.068559
0.0691724
0.0701092
0.0710151
0.0722231
0.0734369
0.0749507
0.0764815
0.0783438
0.0802138
0.0824803
0.0847138
0.0874458
0.0900602
0.09331
0.0963082
0.100105
0.103448
0.107765
0.111327
0.116005
0.119487
0.124104
0.126914
0.130528
0.131593
0.132174
0.129441
0.123331
0.114043
0.0941881
0.0759509
0.0350881
0.00492859
-0.0612812
-0.116061
0.0674134
0.0671798
0.0676654
0.0680539
0.0688307
0.0694206
0.0704306
0.0713205
0.0726235
0.073838
0.075463
0.077019
0.0790159
0.0809453
0.0833853
0.0857227
0.0886905
0.0914699
0.0950544
0.0983035
0.102592
0.106305
0.111364
0.115455
0.121289
0.125487
0.13195
0.135627
0.142201
0.144048
0.149247
0.146863
0.147146
0.136964
0.123795
0.0995036
0.0586973
0.0216682
-0.0645174
-0.119477
0.0676348
0.0673198
0.0678521
0.0682392
0.0690727
0.0696449
0.0707161
0.0715969
0.0729781
0.0741992
0.0759151
0.0775021
0.0796075
0.0816025
0.0841807
0.0866308
0.0897844
0.0927449
0.0965898
0.100123
0.104788
0.108944
0.114561
0.119338
0.126024
0.131269
0.139076
0.144271
0.153074
0.156889
0.166116
0.165574
0.173404
0.162318
0.162423
0.130647
0.102004
0.0389051
-0.0553304
-0.122686
0.0678299
0.0674492
0.0680205
0.0684073
0.0692862
0.0698478
0.0709672
0.0718464
0.0732884
0.074523
0.0763094
0.0779325
0.0801223
0.0821861
0.0848716
0.0874367
0.0907345
0.0938783
0.0979257
0.101748
0.106706
0.111321
0.117373
0.122885
0.130226
0.136666
0.145465
0.15263
0.162943
0.169978
0.181596
0.18591
0.198123
0.1928
0.203851
0.170952
0.169265
0.0661503
-0.0180118
-0.205404
0.0680006
0.0675687
0.0681715
0.0685591
0.069473
0.0700304
0.0711856
0.0720701
0.0735567
0.0748106
0.0766488
0.0783116
0.080564
0.0826974
0.0854631
0.0881399
0.091547
0.0948657
0.0990693
0.103164
0.108355
0.113397
0.119808
0.126001
0.133907
0.141461
0.15115
0.160197
0.171887
0.182244
0.195857
0.206367
0.221119
0.227551
0.241456
0.228385
0.239413
0.145493
0.109363
-0.381611
0.0241736
0.0238682
0.0235711
0.0232825
0.0230026
0.0227316
0.0224696
0.0222169
0.0219736
0.0217399
0.024023
0.0237128
0.0234111
0.0231183
0.0228345
0.02256
0.0222949
0.0220395
0.0217938
0.021558
0.0237321
0.0234124
0.0231018
0.0228007
0.0225094
0.0222279
0.0219567
0.0216958
0.0214454
0.0212057
0.0233062
0.0229722
0.0226483
0.0223349
0.0220322
0.0217404
0.0214599
0.0211908
0.0209334
0.0206879
0.0227467
0.0223935
0.0220516
0.0217214
0.0214033
0.0210975
0.0208045
0.0205244
0.0202575
0.0200041
0.0220522
0.0216742
0.0213091
0.0209573
0.0206193
0.0202956
0.0199864
0.019692
0.0194129
0.0191494
0.0212184
0.0208094
0.0204152
0.0200364
0.0196735
0.0193271
0.0189976
0.0186855
0.0183911
0.0181148
0.0202391
0.019792
0.0193619
0.0189497
0.0185561
0.0181817
0.0178272
0.017493
0.0171797
0.0168878
0.0191063
0.0186126
0.0181386
0.0176856
0.0172544
0.0168458
0.0164606
0.0160994
0.015763
0.015452
0.0178102
0.01726
0.0167328
0.0162301
0.0157532
0.0153029
0.0148803
0.0144864
0.0141218
0.0137876
0.0163396
0.0157211
0.0151295
0.0145668
0.0140343
0.0135335
0.0130655
0.0126317
0.012233
0.0118705
0.0146818
0.0139811
0.0133118
0.0126764
0.0120768
0.0115148
0.0109919
0.0105097
0.0100696
0.009673
0.012823
0.0120234
0.0112605
0.0105375
0.00985678
0.00922068
0.0086312
0.00809047
0.00760023
0.00716231
0.0107483
0.00982988
0.00895427
0.00812555
0.00734689
0.00662126
0.00595126
0.00533966
0.00478871
0.00430079
0.00844152
0.00738043
0.00636922
0.00541312
0.00451624
0.00368242
0.00291504
0.00221768
0.00159327
0.00104488
0.00588551
0.00465325
0.00347895
0.00236938
0.00132983
0.000365305
-0.000519833
-0.00132095
-0.00203426
-0.00265574
0.00306214
0.00162458
0.000254208
-0.00104026
-0.00225193
-0.00337437
-0.00440191
-0.00532857
-0.00614944
-0.00685933
-4.77406e-05
-0.00173145
-0.00333751
-0.00485467
-0.00627397
-0.00758712
-0.00878677
-0.00986528
-0.0108163
-0.0116331
-0.00346436
-0.00544316
-0.00733247
-0.00911775
-0.0107874
-0.0123307
-0.0137382
-0.0150001
-0.0161083
-0.0170543
-0.00720923
-0.00954179
-0.0117714
-0.0138795
-0.0158507
-0.0176715
-0.0193296
-0.0208127
-0.0221102
-0.0232117
-0.0113055
-0.0140623
-0.0167009
-0.0191973
-0.0215317
-0.0236867
-0.0256463
-0.0273951
-0.0289198
-0.0302076
-0.0157789
-0.0190446
-0.0221748
-0.0251384
-0.0279097
-0.0304663
-0.0327877
-0.0348548
-0.0366508
-0.0381603
-0.0206585
-0.0245356
-0.0282571
-0.0317827
-0.035079
-0.0381172
-0.0408713
-0.0433175
-0.0454352
-0.0472059
-0.0259789
-0.0305918
-0.0350256
-0.0392273
-0.0431538
-0.0467678
-0.0500369
-0.0529318
-0.0554277
-0.0575039
-0.0317822
-0.0372834
-0.042577
-0.0475931
-0.052275
-0.0565752
-0.0604529
-0.0638732
-0.0668075
-0.0692344
-0.0381235
-0.044701
-0.0510352
-0.0570332
-0.0626198
-0.0677339
-0.072325
-0.0763523
-0.0797854
-0.0826024
-0.045078
-0.0529664
-0.060565
-0.067748
-0.0744157
-0.0804886
-0.0859057
-0.090621
-0.0946059
-0.0978455
-0.0527472
-0.0622466
-0.0713912
-0.0800084
-0.0879638
-0.0951549
-0.101509
-0.106981
-0.111551
-0.115221
-0.0612665
-0.0727683
-0.0838217
-0.0941835
-0.103669
-0.112146
-0.119532
-0.125794
-0.130936
-0.134998
-0.070831
-0.0848501
-0.0982838
-0.11078
-0.122077
-0.132002
-0.140472
-0.147485
-0.153108
-0.157446
-0.0817563
-0.0989819
-0.115413
-0.130527
-0.14394
-0.155427
-0.164928
-0.172525
-0.178407
-0.182804
-0.0945276
-0.115923
-0.136203
-0.154543
-0.170358
-0.183374
-0.193626
-0.201393
-0.207094
-0.211166
-0.109772
-0.136755
-0.162169
-0.184539
-0.202943
-0.217153
-0.227489
-0.234636
-0.239377
-0.242448
-0.12833
-0.163116
-0.195586
-0.222892
-0.243772
-0.258332
-0.267577
-0.272881
-0.275493
-0.276508
-0.152012
-0.198539
-0.240072
-0.272503
-0.294935
-0.308261
-0.314526
-0.316121
-0.315089
-0.312861
-0.187399
-0.252774
-0.303106
-0.338304
-0.359605
-0.368861
-0.368972
-0.363718
-0.356385
-0.349217
-0.249523
-0.340987
-0.398683
-0.431739
-0.445574
-0.444154
-0.432628
-0.415689
-0.397044
-0.380002
-0.337909
-0.456852
-0.531406
-0.55902
-0.552123
-0.530883
-0.503344
-0.471906
-0.438767
-0.407883
-0.449403
-0.541193
-0.683523
-0.712181
-0.655076
-0.591222
-0.535359
-0.486524
-0.443318
-0.405001
-1.00264
-0.63575
-0.727651
-0.728549
-0.692424
-0.627207
-0.559626
-0.499164
-0.44969
-0.410452
0.0215031
0.0212628
0.0210298
0.0208049
0.0205888
0.0203827
0.0201872
0.0200035
0.0198321
0.0196742
0.0195302
0.0194011
0.0192873
0.0191895
0.0191079
0.019043
0.0189948
0.0189634
0.0189484
0.0189495
0.0189658
0.0189969
0.0190411
0.0190977
0.0191642
0.0192396
0.0193209
0.0194062
0.0194923
0.0195774
0.0196571
0.0197293
0.0197891
0.0198339
0.0198584
0.0198601
0.0198331
0.0197749
0.019679
0.0195425
0.0193584
0.0191234
0.0188304
0.0184756
0.0180517
0.0175549
0.016978
0.0163177
0.0155666
0.0147238
0.0137824
0.0127441
0.0116032
0.0103645
0.00902381
0.00758889
0.00605674
0.004436
0.00272428
0.000926612
0.0213195
0.021078
0.0208442
0.020619
0.0204034
0.0201982
0.0200044
0.019823
0.0196548
0.0195007
0.0193613
0.0192376
0.01913
0.0190392
0.0189654
0.0189091
0.0188701
0.0188486
0.0188441
0.0188563
0.0188841
0.0189271
0.0189835
0.0190523
0.0191313
0.019219
0.0193122
0.0194094
0.0195071
0.0196032
0.0196934
0.0197755
0.0198447
0.0198985
0.0199319
0.0199404
0.0199201
0.019868
0.0197776
0.0196461
0.0194664
0.0192352
0.0189452
0.0185928
0.0181706
0.0176745
0.0170971
0.0164352
0.0156812
0.0148342
0.013887
0.0128418
0.0116925
0.0104448
0.00909376
0.00764808
0.00610401
0.00447087
0.00274576
0.00093404
0.0209639
0.0207199
0.0204846
0.020259
0.0200441
0.0198409
0.0196504
0.0194737
0.0193116
0.0191651
0.0190349
0.0189218
0.0188265
0.0187494
0.0186909
0.0186513
0.0186305
0.0186284
0.0186444
0.0186782
0.0187285
0.0187946
0.0188747
0.0189674
0.0190703
0.0191815
0.0192979
0.0194179
0.0195375
0.0196547
0.0197649
0.0198658
0.0199524
0.0200223
0.0200697
0.0200938
0.0200868
0.0200463
0.0199663
0.0198441
0.0196727
0.0194487
0.0191646
0.0188168
0.0183976
0.0179028
0.0173248
0.0166598
0.0159003
0.0150451
0.0140869
0.0130283
0.0118632
0.0105978
0.00922719
0.00776099
0.00619447
0.00453787
0.00278746
0.000948366
0.0204412
0.0201934
0.0199559
0.0197297
0.019516
0.0193159
0.0191304
0.0189608
0.018808
0.018673
0.0185566
0.0184597
0.0183828
0.0183264
0.0182909
0.0182764
0.0182827
0.0183096
0.0183563
0.0184222
0.0185059
0.0186064
0.0187213
0.0188493
0.0189872
0.0191327
0.019283
0.0194357
0.019587
0.0197345
0.0198731
0.0200009
0.0201124
0.0202057
0.0202749
0.0203183
0.020329
0.0203045
0.0202387
0.0201295
0.0199697
0.0197556
0.01948
0.0191388
0.0187243
0.0182315
0.0176528
0.0169834
0.0162159
0.0153489
0.0143746
0.0132965
0.0121085
0.0108177
0.00941884
0.00792322
0.0063246
0.00463449
0.0028477
0.000969043
0.0197507
0.019498
0.0192575
0.0190306
0.0188186
0.0186228
0.0184443
0.0182846
0.0181445
0.0180253
0.0179278
0.017853
0.0178012
0.0177731
0.0177688
0.0177884
0.0178314
0.0178975
0.0179855
0.0180946
0.018223
0.0183692
0.0185306
0.0187051
0.018889
0.0190794
0.019273
0.0194686
0.0196605
0.0198465
0.0200212
0.0201828
0.0203255
0.0204476
0.0205429
0.0206099
0.0206421
0.0206375
0.0205894
0.020496
0.0203504
0.020149
0.0198842
0.0195516
0.0191434
0.0186534
0.0180743
0.0173998
0.016622
0.0157397
0.0147442
0.0136407
0.0124228
0.0110991
0.00966418
0.00813106
0.00649155
0.00475855
0.00292509
0.00099572
0.0188875
0.0186284
0.0183843
0.0181567
0.017947
0.0177569
0.0175877
0.0174409
0.0173176
0.0172191
0.0171463
0.0171002
0.0170811
0.0170897
0.0171259
0.0171894
0.0172798
0.0173961
0.017537
0.0177011
0.0178861
0.0180899
0.0183097
0.0185427
0.0187863
0.0190291
0.0192765
0.0195236
0.0197644
0.0199963
0.0202138
0.020415
0.0205936
0.0207488
0.0208737
0.0209676
0.021024
0.0210415
0.0210137
0.0209381
0.0208091
0.0206224
0.0203708
0.0200488
0.0196489
0.0191629
0.018584
0.0179037
0.0171138
0.016213
0.0151907
0.014056
0.0128012
0.0114373
0.00995909
0.00838126
0.00669312
0.00490855
0.00301892
0.00102833
0.0178423
0.0175753
0.0173267
0.0170984
0.016892
0.0167093
0.016552
0.0164218
0.01632
0.0162479
0.0162066
0.016197
0.0162194
0.0162744
0.0163615
0.0164804
0.0166301
0.0168091
0.0170157
0.0172478
0.0175022
0.017776
0.0180648
0.018364
0.0186691
0.0189862
0.0193004
0.0196089
0.0199065
0.0201912
0.0204567
0.020702
0.02092
0.021111
0.0212676
0.0213903
0.0214721
0.0215133
0.021507
0.0214507
0.0213399
0.0211696
0.0209335
0.0206244
0.0202351
0.0197551
0.019178
0.0184911
0.0176874
0.016765
0.01571
0.0145384
0.0132393
0.0118282
0.0102999
0.00867105
0.00692739
0.00508334
0.00312949
0.00106725
0.0166023
0.0163257
0.0160717
0.0158427
0.0156405
0.0154674
0.0153253
0.0152161
0.0151413
0.0151024
0.0151006
0.0151366
0.0152109
0.0153235
0.015474
0.0156613
0.0158841
0.0161402
0.0164274
0.0167422
0.0170809
0.0174395
0.0178121
0.0181952
0.0185836
0.018975
0.0193608
0.019737
0.0200974
0.0204398
0.0207572
0.0210492
0.0213083
0.0215364
0.0217248
0.0218767
0.0219838
0.0220488
0.0220643
0.0220281
0.021937
0.0217842
0.0215661
0.0212721
0.0208967
0.0204252
0.0198526
0.0191596
0.0183412
0.0173931
0.0162983
0.0150837
0.0137323
0.012268
0.0106833
0.00899853
0.00719251
0.00528209
0.00325827
0.00111328
0.0151507
0.0148624
0.0146021
0.0143724
0.0141759
0.0140149
0.0138919
0.0138089
0.0137679
0.0137704
0.0138175
0.0139101
0.0140485
0.0142322
0.0144605
0.0147317
0.0150436
0.0153935
0.0157779
0.0161921
0.0166315
0.0170902
0.0175624
0.0180408
0.0185229
0.0190016
0.0194682
0.0199194
0.0203479
0.0207516
0.021123
0.0214625
0.0217625
0.0220266
0.0222454
0.0224253
0.022556
0.0226439
0.0226798
0.0226635
0.0225931
0.0224588
0.0222616
0.0219854
0.021628
0.0211689
0.0206046
0.0199065
0.019074
0.0180958
0.0169529
0.0156881
0.0142752
0.0127522
0.0111059
0.00936264
0.00748682
0.00550503
0.003408
0.00116733
0.013467
0.0131646
0.0128968
0.0126668
0.0124773
0.0123317
0.0122324
0.0121822
0.012183
0.0122366
0.0123443
0.0125066
0.0127237
0.0129944
0.0133178
0.0136909
0.014111
0.0145738
0.0150745
0.0156068
0.0161644
0.0167388
0.0173238
0.0179164
0.018505
0.0190815
0.0196377
0.0201702
0.0206706
0.0211372
0.0215623
0.0219478
0.0222862
0.0225832
0.0228287
0.0230335
0.0231844
0.0232932
0.0233467
0.0233507
0.0233004
0.0231853
0.0230122
0.0227566
0.0224229
0.0219816
0.0214312
0.02073
0.0198851
0.0188709
0.0176709
0.016347
0.0148632
0.0132762
0.0115644
0.00976201
0.00780827
0.00575506
0.0035828
0.00122978
0.0115267
0.0112075
0.0109307
0.0107005
0.0105202
0.0103937
0.010324
0.0103142
0.0103666
0.0104833
0.0106653
0.0109131
0.0112263
0.0116034
0.0120423
0.0125388
0.0130894
0.0136873
0.0143265
0.0149986
0.0156953
0.0164069
0.0171259
0.0178448
0.0185506
0.0192345
0.0198874
0.0205056
0.0210793
0.0216079
0.0220838
0.022511
0.0228826
0.0232063
0.023473
0.0236974
0.0238632
0.02399
0.0240573
0.0240808
0.0240492
0.0239542
0.0238085
0.0235764
0.0232742
0.0228583
0.0223298
0.0216303
0.0207756
0.0197161
0.0184468
0.0170528
0.0154892
0.013835
0.0120568
0.0101948
0.00815432
0.00603837
0.00378767
0.00130052
0.00930094
0.0089614
0.00867414
0.00844399
0.00827522
0.0081724
0.00813919
0.00817924
0.00829518
0.00848911
0.00876225
0.00911453
0.00954511
0.0100515
0.0106303
0.011276
0.0119832
0.0127418
0.0135451
0.0143818
0.0152402
0.0161107
0.0169838
0.0178457
0.0186817
0.0194824
0.0202379
0.0209438
0.0215892
0.022176
0.0226963
0.0231573
0.0235534
0.0238949
0.0241753
0.0244114
0.0245861
0.0247262
0.0248024
0.0248444
0.0248276
0.0247541
0.0246384
0.0244333
0.0241733
0.0237926
0.0232966
0.0226084
0.0217488
0.0206309
0.019274
0.0177935
0.0161423
0.0144219
0.0125812
0.0106585
0.00852459
0.00636454
0.00402669
0.00137935
0.00675621
0.00639219
0.00609241
0.00586273
0.00570838
0.00563485
0.0056465
0.00574765
0.00594131
0.00622983
0.00661441
0.00709412
0.00766747
0.00833035
0.00907843
0.00990377
0.0107997
0.0117472
0.0127436
0.0137731
0.0148241
0.0158787
0.0169251
0.0179461
0.018925
0.019851
0.0207125
0.021505
0.0222169
0.0228538
0.0234076
0.0238907
0.0242985
0.0246458
0.0249297
0.0251678
0.0253448
0.0254917
0.0255712
0.0256298
0.0256214
0.0255714
0.0254863
0.0253124
0.0251086
0.0247755
0.0243268
0.0236664
0.0228096
0.021615
0.0201432
0.0185522
0.0168069
0.015027
0.0131331
0.0111488
0.0089227
0.00674662
0.00430257
0.00146697
0.00385356
0.00346011
0.00314546
0.00291679
0.0027804
0.00274287
0.00280938
0.00298499
0.00327322
0.00367699
0.00419801
0.0048339
0.00558036
0.00643078
0.00738289
0.00842034
0.00953414
0.0107153
0.011945
0.013203
0.0144742
0.0157386
0.0169787
0.0181773
0.0193121
0.0203693
0.0213371
0.0222111
0.0229798
0.0236539
0.0242246
0.0247129
0.0251151
0.0254533
0.0257279
0.0259562
0.026129
0.0262742
0.0263524
0.026424
0.0264164
0.0263939
0.0263314
0.0261951
0.0260644
0.0257924
0.0254118
0.0248082
0.0239654
0.0226675
0.0210389
0.019304
0.0174636
0.0156378
0.0137022
0.011661
0.00935749
0.00719978
0.00461959
0.00156837
0.000548025
0.000119257
-0.00021294
-0.000439749
-0.000553627
-0.000546784
-0.000413327
-0.000147747
0.000253827
0.000795661
0.00148583
0.0023164
0.00327698
0.00435709
0.00554699
0.00683947
0.00822135
0.00967167
0.0111721
0.0126949
0.0142206
0.0157245
0.0171841
0.0185685
0.0198665
0.0210693
0.02214
0.023086
0.0238964
0.0245878
0.025152
0.0256229
0.0259968
0.026308
0.0265571
0.0267639
0.0269251
0.0270595
0.0271339
0.0272117
0.0271974
0.0272099
0.0271806
0.0270581
0.0270186
0.0268199
0.0265363
0.0260379
0.0252257
0.0237856
0.0219343
0.0200123
0.0180875
0.0162361
0.0142711
0.0121877
0.00983906
0.00773908
0.00499049
0.00169864
-0.00321246
-0.00368356
-0.00403629