/*--------------------------------*- C++ -*----------------------------------*\
| =========                 |                                                 |
| \\      /  F ield         | OpenFOAM: The Open Source CFD Toolbox           |
|  \\    /   O peration     | Version:  2312                                  |
|   \\  /    A nd           | Website:  www.openfoam.com                      |
|    \\/     M anipulation  |                                                 |
\*---------------------------------------------------------------------------*/
FoamFile
{
    version     2.0;
    format      ascii;
    arch        "LSB;label=32;scalar=64";
    class       volScalarField;
    location    "17.5";
    object      p;
}
// * * * * * * * * * * * * * * * * * * * * * * * * * * * * * * * * * * * * * //

dimensions      [0 2 -2 0 0 0 0];

internalField   nonuniform List<scalar> 
13248
(
-0.294671
-0.294212
-0.292387
-0.289589
-0.286275
-0.282954
-0.280158
-0.278408
-0.278065
-0.279276
-0.28196
-0.285831
-0.290449
-0.295287
-0.299819
-0.303589
-0.306259
-0.30767
-0.307708
-0.306591
-0.304005
-0.300534
-0.294657
-0.287105
-0.298835
-0.298136
-0.296145
-0.293319
-0.290009
-0.286615
-0.283591
-0.281332
-0.280104
-0.279994
-0.280891
-0.282515
-0.284474
-0.286349
-0.287775
-0.288494
-0.288367
-0.287344
-0.285428
-0.282576
-0.278717
-0.273788
-0.267428
-0.260794
-0.305114
-0.303772
-0.301424
-0.298375
-0.29491
-0.291329
-0.287933
-0.284979
-0.282633
-0.280933
-0.279781
-0.278962
-0.278216
-0.277305
-0.276055
-0.274367
-0.272173
-0.269436
-0.26606
-0.262044
-0.257208
-0.251692
-0.245337
-0.238832
-0.313314
-0.311012
-0.308046
-0.304552
-0.30072
-0.296721
-0.292685
-0.288724
-0.284933
-0.28136
-0.277985
-0.274733
-0.271515
-0.268251
-0.264873
-0.261313
-0.257508
-0.253379
-0.248881
-0.243952
-0.238534
-0.232749
-0.226381
-0.220407
-0.32336
-0.319894
-0.316117
-0.311985
-0.307539
-0.302783
-0.297676
-0.292244
-0.286606
-0.280912
-0.275281
-0.269784
-0.264446
-0.259249
-0.254146
-0.249076
-0.243966
-0.238759
-0.233389
-0.227814
-0.222
-0.215968
-0.209686
-0.203733
-0.33538
-0.330607
-0.325908
-0.320958
-0.315554
-0.309511
-0.302705
-0.295232
-0.287365
-0.279412
-0.271616
-0.26412
-0.256975
-0.250168
-0.243648
-0.237344
-0.231185
-0.225101
-0.219035
-0.212941
-0.206788
-0.20059
-0.194308
-0.188389
-0.349499
-0.343332
-0.33762
-0.331593
-0.324697
-0.316625
-0.307391
-0.297355
-0.287013
-0.276799
-0.266994
-0.257733
-0.24904
-0.240874
-0.233166
-0.225836
-0.218806
-0.21201
-0.205389
-0.198893
-0.192495
-0.18616
-0.179911
-0.173967
-0.365654
-0.358048
-0.351183
-0.343651
-0.334505
-0.323556
-0.311243
-0.298302
-0.285412
-0.273031
-0.261394
-0.250569
-0.240526
-0.23119
-0.222473
-0.214285
-0.206546
-0.199179
-0.192121
-0.185318
-0.178725
-0.172314
-0.1661
-0.160136
-0.383428
-0.374401
-0.36614
-0.356453
-0.344155
-0.32956
-0.313747
-0.297791
-0.282427
-0.268032
-0.254734
-0.242512
-0.231283
-0.220938
-0.21137
-0.202476
-0.194163
-0.18635
-0.178964
-0.171942
-0.165234
-0.158804
-0.152646
-0.146698
-0.40202
-0.391625
-0.381578
-0.36889
-0.352563
-0.333807
-0.314359
-0.295473
-0.277798
-0.261563
-0.246768
-0.233308
-0.221047
-0.209845
-0.199573
-0.190112
-0.181358
-0.173219
-0.165613
-0.158468
-0.151722
-0.145334
-0.139257
-0.133377
-0.420225
-0.408528
-0.396128
-0.379518
-0.358475
-0.335345
-0.312354
-0.29074
-0.270968
-0.25309
-0.236981
-0.222459
-0.209337
-0.197445
-0.186629
-0.176753
-0.167699
-0.159364
-0.151654
-0.144489
-0.137807
-0.131555
-0.125647
-0.119969
-0.436536
-0.4236
-0.40814
-0.386747
-0.360576
-0.33311
-0.30682
-0.282765
-0.26117
-0.2419
-0.224712
-0.209351
-0.195584
-0.183205
-0.172036
-0.161923
-0.152735
-0.144355
-0.136678
-0.129616
-0.123108
-0.117105
-0.111508
-0.10623
-0.249517
-0.254018
-0.257575
-0.262234
-0.268721
-0.277026
-0.287034
-0.298615
-0.311627
-0.325909
-0.341277
-0.357527
-0.374432
-0.391741
-0.409187
-0.426487
-0.443351
-0.459483
-0.474582
-0.488349
-0.500493
-0.510767
-0.519009
-0.525109
-0.25833
-0.26172
-0.264782
-0.269166
-0.275474
-0.283701
-0.293736
-0.305451
-0.318702
-0.333325
-0.349131
-0.365906
-0.383411
-0.401384
-0.419542
-0.437586
-0.455206
-0.472089
-0.487921
-0.502403
-0.515234
-0.5261
-0.53472
-0.541181
-0.268538
-0.270518
-0.272907
-0.27686
-0.282806
-0.290744
-0.300563
-0.312132
-0.325304
-0.339914
-0.35577
-0.372652
-0.390315
-0.408489
-0.426882
-0.445186
-0.463078
-0.480234
-0.496327
-0.511043
-0.524104
-0.535268
-0.544194
-0.549194
-0.278335
-0.278806
-0.280376
-0.283728
-0.28909
-0.296469
-0.305758
-0.316821
-0.329512
-0.343666
-0.359096
-0.375586
-0.392892
-0.410743
-0.428846
-0.446891
-0.464548
-0.481493
-0.497401
-0.511923
-0.524823
-0.535636
-0.544587
-0.549783
-0.286327
-0.285367
-0.286103
-0.288648
-0.293156
-0.299656
-0.308053
-0.318212
-0.329988
-0.343224
-0.357744
-0.373343
-0.389785
-0.406809
-0.424127
-0.44143
-0.458403
-0.4747
-0.490068
-0.504023
-0.516576
-0.526691
-0.535683
-0.540442
-0.291795
-0.289742
-0.289601
-0.291169
-0.294531
-0.299782
-0.306877
-0.315703
-0.326129
-0.338011
-0.351189
-0.365472
-0.380641
-0.396446
-0.41261
-0.428829
-0.444826
-0.460159
-0.474707
-0.487741
-0.499946
-0.509321
-0.517982
-0.52201
-0.294692
-0.292015
-0.291091
-0.29156
-0.293508
-0.297133
-0.302495
-0.309552
-0.318213
-0.328366
-0.339868
-0.352547
-0.3662
-0.380588
-0.395456
-0.410426
-0.425314
-0.439709
-0.453671
-0.466014
-0.477691
-0.486299
-0.494288
-0.497155
-0.295476
-0.292693
-0.291186
-0.290569
-0.290971
-0.292714
-0.296008
-0.30094
-0.307516
-0.315681
-0.325331
-0.336317
-0.348443
-0.361406
-0.375044
-0.389127
-0.403327
-0.41705
-0.430281
-0.441923
-0.452723
-0.460405
-0.467025
-0.468279
-0.29486
-0.292424
-0.290593
-0.289057
-0.288005
-0.287873
-0.289037
-0.291752
-0.296166
-0.302321
-0.31017
-0.319556
-0.33035
-0.342388
-0.355269
-0.368576
-0.381906
-0.394742
-0.406774
-0.417232
-0.426272
-0.432412
-0.436623
-0.435574
-0.293631
-0.291826
-0.289898
-0.287699
-0.285495
-0.283802
-0.283138
-0.283927
-0.286467
-0.290913
-0.297295
-0.305541
-0.315377
-0.32644
-0.338274
-0.350376
-0.3622
-0.373262
-0.383075
-0.391229
-0.397597
-0.401489
-0.403067
-0.399639
-0.292622
-0.291497
-0.289603
-0.287001
-0.284049
-0.28131
-0.279395
-0.278848
-0.280078
-0.283313
-0.288573
-0.295688
-0.304306
-0.313955
-0.324075
-0.334097
-0.343416
-0.3516
-0.358178
-0.363023
-0.366113
-0.367384
-0.367264
-0.363411
-0.292716
-0.292099
-0.290258
-0.287475
-0.284184
-0.280939
-0.278383
-0.277083
-0.277452
-0.279703
-0.283807
-0.28952
-0.296423
-0.30398
-0.311595
-0.318705
-0.324764
-0.329475
-0.332464
-0.333912
-0.333626
-0.332195
-0.330126
-0.327337
-0.52944
-0.528171
-0.522107
-0.509278
-0.490105
-0.464439
-0.432285
-0.393557
-0.348315
-0.296913
-0.24018
-0.179615
-0.117278
-0.056934
-0.00231335
0.0431537
0.0773707
0.099712
0.111289
0.114294
0.111242
0.10443
0.0957436
0.0864898
0.0774441
0.0690102
0.0613535
0.0545057
0.0484372
0.0430845
0.0383733
0.0342238
0.0305717
0.0273516
0.0245134
0.0220017
0.0197845
0.0178194
0.0160792
0.014521
0.0131216
0.0118546
0.0107111
0.0096801
0.00874947
0.00791496
0.00715304
0.00645142
0.0058418
0.00527256
0.00472831
0.00422258
0.00373931
0.00327916
0.00281597
0.00236489
0.00188712
0.00140293
0.000868905
0.000311547
-0.547208
-0.546539
-0.539903
-0.526959
-0.507819
-0.482231
-0.450093
-0.411364
-0.365922
-0.314005
-0.256825
-0.195507
-0.132476
-0.0713598
-0.0160673
0.0300096
0.0647985
0.0878925
0.100502
0.10483
0.103285
0.0979713
0.0906524
0.0825834
0.0745107
0.0668428
0.0597762
0.0533775
0.0476479
0.0425502
0.0380299
0.0340228
0.0304758
0.0273332
0.0245508
0.0220788
0.0198882
0.0179419
0.0162138
0.0146657
0.0132702
0.0120057
0.0108596
0.00982451
0.00888849
0.00804636
0.00728007
0.0065797
0.00595027
0.00537103
0.00481864
0.00430243
0.00381169
0.00333991
0.00287018
0.00240678
0.00192258
0.00142539
0.000885031
0.000312913
-0.559271
-0.557041
-0.55146
-0.539212
-0.520745
-0.495869
-0.464441
-0.426396
-0.38167
-0.330442
-0.273669
-0.212746
-0.150085
-0.0892497
-0.0341682
0.0118575
0.0469405
0.0709043
0.0849965
0.0913166
0.0920428
0.0889676
0.083636
0.0772429
0.0705227
0.0639065
0.0576403
0.0518433
0.046561
0.0417944
0.037519
0.0336935
0.0302801
0.027236
0.0245253
0.0221057
0.0199513
0.0180307
0.0163201
0.0147857
0.0133991
0.0121409
0.0109964
0.00995993
0.00902099
0.00817278
0.0074033
0.00670321
0.00606024
0.0054677
0.00490726
0.00438093
0.00388306
0.0033999
0.00292381
0.00244834
0.00195786
0.00144788
0.000901229
0.000314382
-0.557405
-0.558859
-0.554275
-0.543619
-0.526674
-0.503285
-0.473349
-0.43676
-0.393493
-0.343752
-0.288382
-0.2289
-0.167753
-0.10835
-0.0544416
-0.00912334
0.0259646
0.050868
0.0667742
0.0754883
0.0789126
0.0785645
0.0755738
0.0710951
0.0659101
0.060493
0.0551409
0.0500305
0.0452593
0.0408721
0.036878
0.0332619
0.0300034
0.0270741
0.0244475
0.0220904
0.0199802
0.0180913
0.0164024
0.0148848
0.0135106
0.0122614
0.0111221
0.0100866
0.00914693
0.00829404
0.0075224
0.00682324
0.00616841
0.00556265
0.00499436
0.00445839
0.00395366
0.00345946
0.0029771
0.00248988
0.00199313
0.00147063
0.000917612
0.00031612
-0.546792
-0.54946
-0.547695
-0.539576
-0.524647
-0.503225
-0.475267
-0.44058
-0.399239
-0.351774
-0.298976
-0.242291
-0.183994
-0.127146
-0.075192
-0.031023
0.00392084
0.029819
0.0477261
0.0589958
0.0651847
0.0676578
0.0671671
0.0646724
0.0610511
0.0568622
0.052457
0.0480637
0.0438306
0.039846
0.0361524
0.0327613
0.0296699
0.0268656
0.0243309
0.0220429
0.0199822
0.0181295
0.0164654
0.014967
0.0136072
0.0123691
0.0112371
0.0102046
0.00926601
0.0084099
0.00763676
0.00694492
0.00627463
0.00565547
0.00507963
0.00453472
0.00402334
0.0035186
0.00302995
0.00253145
0.00202833
0.00149375
0.000934147
0.000318214
-0.525922
-0.529565
-0.53146
-0.526608
-0.51418
-0.495206
-0.469781
-0.437528
-0.398507
-0.35336
-0.303303
-0.250418
-0.196756
-0.144071
-0.094931
-0.0521728
-0.017412
0.00946545
0.0293077
0.0430327
0.0517695
0.0567177
0.0586935
0.0581945
0.0561022
0.053111
0.0496459
0.0459777
0.0422961
0.0387294
0.0353514
0.0321986
0.0292859
0.0266157
0.0241804
0.0219674
0.0199609
0.0181485
0.0165122
0.0150352
0.0136913
0.0124657
0.0113427
0.0103147
0.00937848
0.00852058
0.00774634
0.0070595
0.00637831
0.0057457
0.00516289
0.00460988
0.00409196
0.0035773
0.00308225
0.00257307
0.00206338
0.00151726
0.000950767
0.000320771
-0.498109
-0.501746
-0.507045
-0.505491
-0.495592
-0.479203
-0.456547
-0.427114
-0.391094
-0.349214
-0.3027
-0.253551
-0.204638
-0.157601
-0.112504
-0.0715978
-0.0371428
-0.00943825
0.0120683
0.0279521
0.0389351
0.0460042
0.0500632
0.0515576
0.0510157
0.0492131
0.0466864
0.0437559
0.0406439
0.0375129
0.0344671
0.0315675
0.0288464
0.0263212
0.0239942
0.0218631
0.0199164
0.0181488
0.0165437
0.0150906
0.0137642
0.0125525
0.0114395
0.0104174
0.00948446
0.00862614
0.00785132
0.00716667
0.00648277
0.00583289
0.00524406
0.00468389
0.00415941
0.00363558
0.00313389
0.00261479
0.00209819
0.00154126
0.000967412
0.00032395
-0.465737
-0.467723
-0.475529
-0.476661
-0.469072
-0.45544
-0.435902
-0.409818
-0.377529
-0.339833
-0.298011
-0.253737
-0.209415
-0.167477
-0.127176
-0.0888114
-0.0550136
-0.0268025
-0.00401152
0.0136199
0.0265526
0.0354984
0.0412834
0.0445756
0.0456495
0.0450875
0.0435219
0.0413545
0.0388434
0.0361779
0.0334885
0.0308611
0.0283466
0.0259784
0.0237693
0.0217279
0.0198474
0.0181295
0.0165596
0.0151331
0.013826
0.0126298
0.0115277
0.010513
0.00958409
0.00872652
0.00794992
0.00724051
0.00658823
0.00591546
0.00532298
0.00475674
0.00422558
0.00369348
0.00318479
0.00265664
0.00213267
0.00156584
0.00098401
0.000327956
-0.428756
-0.42863
-0.438131
-0.440888
-0.435445
-0.424987
-0.409158
-0.387259
-0.359723
-0.327309
-0.291046
-0.252353
-0.213011
-0.175158
-0.139189
-0.103834
-0.0712082
-0.0429049
-0.0192079
-0.00018405
0.0144194
0.0250928
0.0324962
0.0372914
0.0399486
0.0407133
0.040155
0.038765
0.0368713
0.0346974
0.0323933
0.0300637
0.0277767
0.0255814
0.0235025
0.0215597
0.0197526
0.0180897
0.0165594
0.0151625
0.013877
0.0126976
0.0116077
0.0106016
0.00967749
0.00882175
0.00804274
0.00731637
0.00665501
0.00599256
0.00539972
0.00482842
0.00429033
0.003751
0.00323482
0.00269868
0.0021667
0.00159109
0.00100049
0.000333053
-0.388566
-0.388042
-0.398442
-0.401608
-0.398291
-0.391301
-0.379558
-0.362428
-0.340246
-0.313563
-0.283147
-0.250059
-0.215616
-0.18143
-0.148694
-0.116331
-0.0854298
-0.057542
-0.0333306
-0.0132328
0.00274972
0.0149511
0.0238283
0.0299811
0.0339736
0.0360978
0.0366533
0.0360934
0.0348186
0.0331273
0.0312067
0.0291818
0.0271339
0.025124
0.0231872
0.0213527
0.0196274
0.0180259
0.0165405
0.0151767
0.0139156
0.012755
0.0116789
0.0106827
0.00976431
0.0089115
0.0081304
0.00739416
0.00671583
0.0060671
0.00547436
0.00489879
0.00435355
0.00380819
0.00328393
0.00274098
0.00220023
0.00161715
0.00101682
0.000339636
-0.352329
-0.353497
-0.362815
-0.365725
-0.364632
-0.360986
-0.353297
-0.340915
-0.323853
-0.302375
-0.277009
-0.248525
-0.218059
-0.18696
-0.156799
-0.126942
-0.0981181
-0.0711988
-0.046867
-0.0259621
-0.00880991
0.0047377
0.0150027
0.022445
0.0275757
0.0308573
0.0326009
0.0330877
0.0325987
0.0314798
0.0299821
0.0282768
0.0264734
0.0246511
0.0228579
0.021133
0.0194913
0.0179527
0.0165143
0.0151845
0.0139489
0.0128071
0.0117453
0.0107593
0.0098469
0.00899738
0.00821419
0.00747306
0.00678393
0.00614308
0.00554768
0.00496801
0.00441535
0.00386509
0.00333198
0.00278356
0.00223302
0.00164406
0.00103292
0.000348357
-0.324723
-0.328931
-0.334094
-0.334727
-0.334077
-0.332146
-0.327506
-0.31934
-0.307227
-0.291103
-0.271212
-0.24804
-0.22228
-0.194738
-0.166688
-0.138653
-0.111236
-0.0855614
-0.0615924
-0.0401054
-0.0217595
-0.00670283
0.00520064
0.0142403
0.0208238
0.0253342
0.0280862
0.0294645
0.0298148
0.0293842
0.0284234
0.0271299
0.0256403
0.0240561
0.0224428
0.0208527
0.0193116
0.0178483
0.0164656
0.0151766
0.0139701
0.0128498
0.011803
0.0108292
0.00992324
0.00907912
0.00829443
0.00755357
0.00685679
0.00622028
0.00561736
0.005034
0.00447393
0.00392042
0.00337736
0.00282541
0.00226385
0.00167109
0.00104785
0.000359617
-0.300706
-0.314798
-0.317634
-0.315867
-0.313276
-0.310261
-0.305712
-0.298386
-0.287549
-0.273019
-0.255032
-0.234046
-0.210717
-0.18577
-0.160147
-0.134507
-0.109317
-0.085371
-0.0631098
-0.0430114
-0.0255823
-0.0110416
0.000677971
0.00978746
0.0165965
0.0214506
0.0246834
0.0265839
0.0274121
0.0274107
0.0268265
0.0258536
0.0246328
0.0232674
0.0218358
0.020391
0.0189698
0.0175962
0.0162888
0.0150571
0.0139023
0.0128215
0.0118061
0.0108563
0.0099641
0.00913367
0.00835302
0.00762117
0.00692593
0.00630702
0.00569145
0.00509542
0.00452838
0.00397271
0.00342004
0.00286512
0.00229282
0.00169666
0.00106073
0.000371161
-0.275184
-0.292725
-0.297151
-0.294427
-0.290312
-0.286352
-0.281759
-0.275093
-0.265401
-0.252414
-0.236368
-0.217728
-0.19707
-0.174977
-0.152085
-0.129023
-0.106263
-0.0844335
-0.0640318
-0.0454181
-0.0290075
-0.0150714
-0.00362216
0.00548249
0.0124794
0.0176577
0.021278
0.0235733
0.0247956
0.0251836
0.0249607
0.0243093
0.023368
0.0222417
0.0210114
0.0197342
0.0184519
0.0171929
0.0159796
0.0148236
0.01373
0.0126975
0.0117219
0.0108033
0.00993654
0.0091251
0.00835831
0.00763721
0.00695497
0.00632411
0.0057158
0.00513009
0.00456187
0.0040059
0.00344917
0.00289142
0.00231332
0.00171318
0.00106905
0.000377511
-0.25158
-0.269857
-0.27543
-0.272989
-0.268446
-0.264109
-0.259644
-0.253725
-0.245307
-0.234014
-0.219987
-0.203631
-0.185422
-0.165838
-0.145376
-0.124586
-0.103955
-0.0839709
-0.0651136
-0.0477573
-0.0322567
-0.0188824
-0.00770389
0.00136968
0.00851445
0.0139481
0.0178845
0.0205395
0.0221444
0.0229129
0.0230446
0.0227109
0.0220485
0.0211622
0.020136
0.0190302
0.0178917
0.0167513
0.0156358
0.0145588
0.01353
0.0125498
0.0116172
0.0107336
0.0098945
0.00910485
0.0083543
0.00764686
0.00697685
0.00634914
0.00574394
0.00515974
0.00459054
0.00403345
0.00347365
0.00291284
0.00233008
0.00172593
0.00107524
0.000381667
-0.230603
-0.24754
-0.253654
-0.251996
-0.247723
-0.243368
-0.239024
-0.233672
-0.226311
-0.216477
-0.204204
-0.189808
-0.1737
-0.156307
-0.13806
-0.119419
-0.100817
-0.0826674
-0.0653957
-0.0493652
-0.0348792
-0.0221822
-0.0113819
-0.00244336
0.00474874
0.0103554
0.0145559
0.0175369
0.0194949
0.0206185
0.0210879
0.0210629
0.020676
0.0200307
0.0192123
0.0182827
0.0172931
0.0162765
0.015264
0.014271
0.0133114
0.0123876
0.0115012
0.0106551
0.00984569
0.00907996
0.00834764
0.00765567
0.00699602
0.00637224
0.00577065
0.00518857
0.00461899
0.00406111
0.00349816
0.00293447
0.00234687
0.0017388
0.00108187
0.000385605
-0.210438
-0.226128
-0.232485
-0.231613
-0.22787
-0.22374
-0.2196
-0.214748
-0.208308
-0.199783
-0.189109
-0.176522
-0.162377
-0.14705
-0.130905
-0.114307
-0.0976244
-0.0812181
-0.0654586
-0.0506837
-0.0371726
-0.0251524
-0.0147575
-0.00600289
0.00117975
0.00690948
0.0113299
0.0145931
0.0168651
0.0183132
0.0191
0.0193716
0.0192544
0.0188485
0.0182392
0.0174891
0.0166525
0.0157646
0.0148599
0.0139558
0.0130697
0.012206
0.011369
0.0105633
0.00978609
0.00904642
0.00833395
0.00765781
0.00700902
0.0063919
0.00579508
0.00521599
0.00464653
0.00408841
0.00352246
0.00295624
0.00236384
0.00175195
0.00108907
0.000389276
-0.191441
-0.206018
-0.212327
-0.212045
-0.208878
-0.205125
-0.201302
-0.196948
-0.191334
-0.183976
-0.17475
-0.163814
-0.151459
-0.138006
-0.123761
-0.109022
-0.0941005
-0.0793171
-0.0649937
-0.0514361
-0.038905
-0.0276105
-0.0176949
-0.0092058
-0.00211111
0.00367005
0.00824496
0.0117342
0.0142759
0.0160156
0.0170966
0.0176497
0.0177929
0.0176221
0.0172209
0.0166517
0.0159711
0.0152157
0.0144229
0.0136118
0.0128031
0.0120032
0.0112187
0.0104563
0.00971368
0.00900218
0.00831136
0.00765276
0.0070166
0.00640788
0.00581638
0.00524092
0.00467219
0.00411431
0.00354577
0.00297732
0.0023804
0.00176473
0.00109632
0.000392377
-0.173958
-0.187221
-0.193274
-0.193414
-0.190793
-0.187488
-0.184063
-0.180215
-0.175352
-0.16903
-0.161097
-0.151646
-0.140906
-0.129146
-0.116624
-0.103593
-0.0903169
-0.0770697
-0.0641282
-0.051761
-0.0402065
-0.0296602
-0.0202648
-0.0120908
-0.00513909
0.000636141
0.0053106
0.00897746
0.0117485
0.0137466
0.0150959
0.0159117
0.016303
0.01636
0.0161636
0.0157747
0.0152515
0.0146312
0.0139535
0.0132391
0.0125112
0.0117787
0.0110497
0.0103334
0.00962786
0.00894691
0.0082798
0.0076404
0.00701805
0.00641903
0.00583379
0.00526276
0.00469549
0.00413833
0.00356771
0.00299728
0.00239625
0.00177681
0.0011034
0.000394945
-0.157602
-0.169596
-0.175339
-0.175796
-0.173667
-0.170819
-0.167825
-0.164482
-0.160307
-0.154907
-0.148121
-0.139995
-0.130707
-0.120476
-0.109522
-0.0980587
-0.086307
-0.0744965
-0.0628627
-0.0516393
-0.0410415
-0.0312513
-0.0224089
-0.0145993
-0.00784971
-0.0021425
0.00257226
0.00636318
0.00931688
0.0115339
0.01312
0.0141752
0.0147981
0.0150724
0.0150747
0.0148635
0.0144972
0.0140133
0.013453
0.0128382
0.0121943
0.0115321
0.0108616
0.0101942
0.00952802
0.00887989
0.00823831
0.00761966
0.00701247
0.00642397
0.0058468
0.00528105
0.00471604
0.00416011
0.00358803
0.00301586
0.00241124
0.00178807
0.00111023
0.000397137
-0.14227
-0.153154
-0.158562
-0.159247
-0.157542
-0.155124
-0.152554
-0.149697
-0.146151
-0.141572
-0.1358
-0.128853
-0.120864
-0.112011
-0.102479
-0.0924467
-0.0820967
-0.0716202
-0.0612164
-0.0510872
-0.041424
-0.0323939
-0.0241321
-0.016731
-0.010236
-0.00465218
4.82232e-05
0.00391142
0.00700108
0.00939688
0.0111871
0.0124562
0.0132921
0.0137706
0.0139631
0.0139247
0.013713
0.0133654
0.0129235
0.0124103
0.0118526
0.0112636
0.0106539
0.0100379
0.00941346
0.00880026
0.0081861
0.00758986
0.00699935
0.00642343
0.00585476
0.00529526
0.0047334
0.00417925
0.0036064
0.00303278
0.0024252
0.00179837
0.00111674
0.000399051
-0.128062
-0.137883
-0.142923
-0.143765
-0.142422
-0.140394
-0.13822
-0.135814
-0.13284
-0.128991
-0.124116
-0.118213
-0.111381
-0.103765
-0.095515
-0.086781
-0.0777127
-0.0684684
-0.0592157
-0.0501269
-0.0413697
-0.0330956
-0.025432
-0.0184737
-0.0122779
-0.00686718
-0.00223331
0.00165084
0.00482901
0.00736195
0.00932095
0.0107755
0.0118022
0.0124686
0.0128397
0.0129665
0.0129051
0.0126918
0.012368
0.0119572
0.0114873
0.0109734
0.0104267
0.00986437
0.00928375
0.00870752
0.00812261
0.00755037
0.00697807
0.00641607
0.00585731
0.00530485
0.0047471
0.00419529
0.00362247
0.00304775
0.00243786
0.00180758
0.00112278
0.000400721
-0.114896
-0.123702
-0.128367
-0.129322
-0.128289
-0.126609
-0.124795
-0.122797
-0.120333
-0.117132
-0.113048
-0.108066
-0.102261
-0.0957475
-0.0886486
-0.0810868
-0.073185
-0.0650736
-0.0568919
-0.0487855
-0.0408997
-0.0333692
-0.0263124
-0.0198225
-0.013963
-0.00877031
-0.00425157
-0.000395481
0.00282463
0.00545255
0.00754363
0.00915275
0.0103453
0.0111806
0.0117163
0.0119985
0.0120808
0.011998
0.0117904
0.0114817
0.0111002
0.0106627
0.0101806
0.00967363
0.00913869
0.00860123
0.00804736
0.00750064
0.00694805
0.00640126
0.00585376
0.00530925
0.00475664
0.0042078
0.00363585
0.00306044
0.00244893
0.00181556
0.00112819
0.000402147
-0.102665
-0.110557
-0.11486
-0.115887
-0.115117
-0.113743
-0.112248
-0.110614
-0.108601
-0.105968
-0.102578
-0.0984064
-0.0935068
-0.0879708
-0.0818989
-0.0753904
-0.0685451
-0.0614696
-0.0542783
-0.0470932
-0.0400384
-0.0332321
-0.0267821
-0.0207775
-0.0152846
-0.0103487
-0.00598877
-0.00220632
0.00101083
0.00369172
0.00587727
0.00760846
0.00893993
0.00992249
0.0106063
0.0110315
0.0112487
0.0112907
0.0111956
0.0109873
0.0106936
0.010333
0.00991647
0.00946624
0.00897844
0.00848123
0.00796
0.00744027
0.00690883
0.00637848
0.00584351
0.0053079
0.0047615
0.00421632
0.00364611
0.00307055
0.00245812
0.00182214
0.00113281
0.000403311
-0.0913445
-0.0984064
-0.102357
-0.103422
-0.10287
-0.101761
-0.100547
-0.0992301
-0.09761
-0.0954719
-0.0926869
-0.0892228
-0.085118
-0.0804449
-0.0752847
-0.0697179
-0.0638247
-0.057691
-0.0514101
-0.0450827
-0.0388139
-0.0327058
-0.0268551
-0.021345
-0.0162413
-0.0115943
-0.00743132
-0.00376399
-0.000592207
0.00210072
0.00434315
0.00616307
0.0076048
0.00871107
0.00952397
0.0100775
0.0104187
0.0105778
0.0105901
0.0104788
0.010271
0.00998658
0.00963579
0.00924302
0.00880354
0.00834775
0.00786043
0.00736886
0.00686003
0.00634727
0.00582607
0.00530029
0.0047612
0.00422042
0.00365281
0.00307776
0.00246512
0.00182714
0.0011365
0.00040418
-0.0808907
-0.0871869
-0.0907967
-0.0918738
-0.0915029
-0.0906224
-0.089651
-0.0886089
-0.0873274
-0.0856159
-0.083354
-0.0805049
-0.0770942
-0.0731788
-0.068824
-0.0640947
-0.0590546
-0.0537724
-0.048323
-0.0427887
-0.0372574
-0.0318163
-0.0265507
-0.0215367
-0.016837
-0.0125039
-0.00857017
-0.0050548
-0.00196742
0.000698659
0.00296121
0.00483631
0.00635864
0.00756345
0.0084846
0.00914945
0.00960145
0.00986788
0.00998067
0.00996167
0.00983681
0.00962681
0.00934087
0.00900537
0.00861466
0.00820112
0.00774882
0.0072864
0.0068014
0.00630726
0.00580099
0.00528601
0.00475524
0.00421968
0.00365554
0.00308172
0.00246962
0.00183037
0.00113912
0.000404715
-0.0712258
-0.0768294
-0.0801176
-0.0811878
-0.0809663
-0.0802814
-0.0795191
-0.0787121
-0.0777193
-0.0763725
-0.07456
-0.0722419
-0.069434
-0.0661804
-0.0625334
-0.0585448
-0.0542649
-0.0497479
-0.0450532
-0.0402472
-0.0354028
-0.0305932
-0.0258925
-0.021369
-0.0170807
-0.0130795
-0.00940107
-0.00606929
-0.00310119
-0.000498041
0.00174941
0.00364663
0.00521949
0.00649666
0.0075039
0.00826147
0.00880901
0.00917094
0.0093752
0.00944203
0.00939576
0.00925751
0.00903493
0.00875577
0.00841344
0.0080421
0.00762539
0.00719294
0.00673285
0.00625826
0.00576796
0.00526465
0.00474317
0.00421371
0.00365386
0.00308213
0.00247131
0.00183161
0.00114052
0.00040487
-0.0622907
-0.067274
-0.0702623
-0.0713107
-0.0712108
-0.0706918
-0.0701077
-0.0695002
-0.0687517
-0.067714
-0.0662845
-0.064422
-0.0621345
-0.0594556
-0.0564272
-0.0530902
-0.0494839
-0.0456505
-0.0416365
-0.0374949
-0.0332853
-0.0290684
-0.0249074
-0.0208625
-0.016986
-0.013328
-0.00992468
-0.00680254
-0.00398396
-0.0014763
0.000723113
0.00261061
0.00420418
0.00552699
0.0065972
0.00742777
0.00805424
0.00849823
0.0087833
0.00892754
0.00895347
0.00888257
0.00872062
0.00849638
0.00820195
0.00787262
0.0074915
0.00708898
0.00665427
0.00619994
0.00572665
0.00523601
0.00472468
0.00420218
0.0036474
0.00307864
0.00246993
0.00183065
0.00114058
0.000404596
-0.0540356
-0.0584608
-0.0611699
-0.0621856
-0.0621836
-0.0618046
-0.0613716
-0.060932
-0.0603885
-0.059611
-0.0585057
-0.0570315
-0.0551906
-0.0530083
-0.0505175
-0.0477506
-0.0447378
-0.0415116
-0.0381079
-0.0345682
-0.0309408
-0.0272752
-0.0236245
-0.0200412
-0.0165711
-0.013261
-0.0101464
-0.00725425
-0.00461048
-0.00222686
-0.000105467
0.00174243
0.00332787
0.00466959
0.00577903
0.00666179
0.00734936
0.00786078
0.00821497
0.00842732
0.00851809
0.00850863
0.00840265
0.00822994
0.0079813
0.00769304
0.00734778
0.00697575
0.00656703
0.00613321
0.00567711
0.0051997
0.00469927
0.00418464
0.00363578
0.00307092
0.00246521
0.00182727
0.00113917
0.000403844
-0.0464033
-0.0503279
-0.0527795
-0.0537556
-0.053832
-0.0535709
-0.0532653
-0.0529663
-0.0525935
-0.0520334
-0.0512008
-0.0500557
-0.0485959
-0.0468402
-0.0448141
-0.0425434
-0.0400508
-0.0373608
-0.0345009
-0.031503
-0.0284056
-0.0252484
-0.0220758
-0.0189323
-0.0158577
-0.0128944
-0.0100759
-0.00742838
-0.00497957
-0.00274412
-0.000727246
0.0010537
0.00260381
0.00393844
0.00506328
0.00597675
0.00670633
0.00726891
0.00767888
0.00794861
0.00809592
0.00814191
0.00808752
0.00796279
0.00775688
0.00750672
0.0071951
0.00685232
0.00646932
0.00605706
0.00562003
0.00515687
0.00466751
0.00416123
0.00361893
0.00305878
0.00245695
0.00182131
0.00113616
0.000402576
-0.039338
-0.0428167
-0.0450327
-0.0459651
-0.0461042
-0.045942
-0.0457435
-0.0455614
-0.0453301
-0.0449504
-0.0443457
-0.0434778
-0.0423414
-0.0409501
-0.0393238
-0.0374826
-0.0354434
-0.0332247
-0.0308465
-0.0283332
-0.0257149
-0.0230232
-0.0202943
-0.0175658
-0.014871
-0.012248
-0.00972744
-0.00733353
-0.00509449
-0.00302658
-0.00113669
0.000553181
0.00204314
0.00334618
0.00446332
0.00538623
0.00613838
0.00673484
0.00718563
0.00750006
0.00769326
0.00778602
0.00777685
0.00769588
0.00753054
0.00731784
0.00703923
0.00672447
0.00636605
0.00597378
0.00555413
0.00510494
0.00462746
0.00413071
0.00359603
0.00304166
0.00244478
0.00181249
0.0011314
0.000400715
-0.032792
-0.035874
-0.0378756
-0.0387623
-0.038951
-0.0388716
-0.0387628
-0.0386777
-0.0385628
-0.0383321
-0.0379169
-0.0372811
-0.0364176
-0.035336
-0.0340517
-0.0325803
-0.0309345
-0.0291274
-0.0271735
-0.0250906
-0.0229026
-0.0206337
-0.0183133
-0.0159724
-0.0136385
-0.011345
-0.00911936
-0.00698302
-0.00496358
-0.00307782
-0.00133319
0.000244982
0.00165285
0.00290202
0.00398991
0.00490203
0.00565797
0.00627136
0.00674806
0.00709425
0.00732218
0.00745218
0.00747991
0.00743505
0.00730323
0.00712258
0.00687461
0.00658817
0.00625537
0.00588412
0.00548238
0.00504839
0.00458328
0.00409593
0.00356875
0.00302039
0.0024291
0.00180098
0.00112495
0.000398342
-0.0267181
-0.029447
-0.0312541
-0.0320947
-0.0323226
-0.0323126
-0.032279
-0.0322741
-0.0322547
-0.0321465
-0.0318881
-0.0314461
-0.0308121
-0.0299927
-0.0289998
-0.0278455
-0.026539
-0.0250896
-0.0235075
-0.0218051
-0.0200007
-0.018113
-0.0161652
-0.0141831
-0.0121886
-0.0102104
-0.00827254
-0.00639345
-0.00459916
-0.00290613
-0.00132138
0.000127606
0.00143395
0.00260874
0.00364701
0.00452883
0.0052702
0.00588371
0.00637165
0.00673697
0.0069888
0.00714731
0.00720495
0.00719144
0.00709042
0.00693846
0.00671436
0.00644861
0.00613531
0.00578361
0.00540202
0.00497926
0.00452471
0.00404973
0.00353229
0.00299201
0.0024081
0.0017857
0.00111615
0.000394936
-0.0210749
-0.02349
-0.0251209
-0.0259161
-0.0261749
-0.0262231
-0.0262523
-0.0263134
-0.0263716
-0.0263632
-0.0262338
-0.0259525
-0.0255107
-0.0249125
-0.0241671
-0.0232837
-0.0222689
-0.0211293
-0.0198716
-0.0185039
-0.0170398
-0.0154933
-0.0138827
-0.0122291
-0.0105495
-0.0088686
-0.00720691
-0.0055796
-0.00401079
-0.002516
-0.0011011
0.000205257
0.00139391
0.00247616
0.00344556
0.00427773
0.00498541
0.00558089
0.00606318
0.00643254
0.00669498
0.00687023
0.00694789
0.00695712
0.00687899
0.00675171
0.00655675
0.0063174
0.00602937
0.00569221
0.00531914
0.0049189
0.00448101
0.00401002
0.00349974
0.00296472
0.00238684
0.00176975
0.00110691
0.000392314
-0.0158219
-0.0179587
-0.019431
-0.0201826
-0.0204661
-0.0205637
-0.020646
-0.0207618
-0.0208836
-0.0209566
-0.020933
-0.0207846
-0.0205027
-0.0200899
-0.0195533
-0.0189
-0.0181346
-0.0172615
-0.0162851
-0.0152109
-0.0140486
-0.0128077
-0.011502
-0.0101486
-0.00876035
-0.0073581
-0.00595917
-0.00457531
-0.00322839
-0.00193271
-0.000692479
0.000463187
0.00152353
0.00250053
0.00338724
0.00415534
0.00481462
0.0053772
0.00583963
0.0061996
0.00646001
0.00664071
0.00672773
0.00675054
0.00668755
0.00657569
0.00638893
0.00616122
0.00588168
0.00556846
0.00522335
0.00481784
0.00438457
0.00393669
0.00343786
0.00291743
0.0023504
0.00174353
0.0010908
0.000383358
-0.0109154
-0.0128051
-0.0141342
-0.014844
-0.0151466
-0.0152858
-0.0154128
-0.0155739
-0.0157476
-0.0158872
-0.0159505
-0.0159123
-0.015764
-0.015507
-0.0151467
-0.014689
-0.0141365
-0.0134922
-0.0127584
-0.0119385
-0.0110398
-0.0100688
-0.00903566
-0.00795401
-0.0068331
-0.00569038
-0.00454028
-0.00339117
-0.00226228
-0.00116626
-0.000105321
0.000891774
0.00181325
0.00267239
0.0034624
0.0041522
0.00474876
0.00526492
0.00569458
0.00603399
0.00628233
0.00646007
0.00655031
0.00658205
0.00653125
0.00643545
0.0062754
0.00606735
0.00581603
0.00549882
0.00514844
0.00478521
0.00437239
0.00391699
0.0034247
0.00290187
0.00234038
0.00173343
0.00108968
0.000392925
-0.00635302
-0.00802112
-0.00922063
-0.00989082
-0.0102081
-0.0103821
-0.0105464
-0.0107444
-0.0109596
-0.0111524
-0.0112863
-0.0113387
-0.0113012
-0.0111746
-0.0109629
-0.0106706
-0.0102997
-0.00985195
-0.00932827
-0.00872982
-0.00806173
-0.00732803
-0.00653625
-0.00569726
-0.00481721
-0.00391059
-0.00298948
-0.00205962
-0.00113796
-0.000235564
0.000647549
0.00148322
0.00225926
0.00299052
0.00367146
0.0042687
0.00478726
0.00524032
0.00562081
0.00592264
0.00614269
0.00630149
0.0063783
0.00640338
0.00634829
0.00625143
0.00608293
0.00587733
0.0056179
0.00533795
0.00502163
0.00462436
0.00420929
0.0037857
0.00330674
0.00280813