/*--------------------------------*- C++ -*----------------------------------*\
| =========                 |                                                 |
| \\      /  F ield         | OpenFOAM: The Open Source CFD Toolbox           |
|  \\    /   O peration     | Version:  2312                                  |
|   \\  /    A nd           | Website:  www.openfoam.com                      |
|    \\/     M anipulation  |                                                 |
\*---------------------------------------------------------------------------*/
FoamFile
{
    version     2.0;
    format      ascii;
    arch        "LSB;label=32;scalar=64";
    class       surfaceScalarField;
    location    "46";
    object      phi;
}
// * * * * * * * * * * * * * * * * * * * * * * * * * * * * * * * * * * * * * //

dimensions      [0 3 -1 0 0 0 0];

oriented        oriented;

internalField   nonuniform List<scalar> 
10785
(
0.000271533
0.00376255
-0.00403408
0.00235045
0.00603157
-0.00811049
0.00737572
0.0029064
-0.00793167
0.0172013
-0.0063464
-0.00347914
0.0337549
-0.0220755
0.00552189
0.0576924
-0.0432843
0.0193468
0.0875377
-0.0676344
0.0377891
0.120251
-0.0924073
0.0596941
0.151983
-0.115148
0.0834164
0.179625
-0.134242
0.1066
0.20055
-0.14898
0.128055
0.214639
-0.159174
0.145085
0.222557
-0.166896
0.158979
0.225395
-0.170554
0.167715
-0.175686
0.174869
0.226212
5.60891e-05
0.00370646
0.00272448
0.00336318
0.0105007
-0.0048698
0.0259933
-0.021839
0.0498167
-0.0458989
0.0795029
-0.0729706
0.110781
-0.0989129
0.139314
-0.12094
0.162035
-0.137869
0.177804
-0.150011
0.187288
-0.158464
0.19321
-0.165096
0.19747
-0.171157
0.204004
-0.177088
-0.185086
0.213404
0.000361108
0.00334535
0.00496136
-0.00123708
0.017551
-0.0174595
0.0395882
-0.0438762
0.0678224
-0.0741332
0.0966986
-0.101847
0.121459
-0.123673
0.139661
-0.139141
0.151471
-0.149679
0.158834
-0.157374
0.16452
-0.16415
0.170393
-0.170969
0.177259
-0.178023
0.18513
-0.184959
-0.192081
0.192124
0.001189
0.00215635
0.0090973
-0.00914538
0.0273966
-0.0357588
0.0532123
-0.0696919
0.0796381
-0.100559
0.101353
-0.123561
0.116509
-0.13883
0.126237
-0.148869
0.132955
-0.156398
0.138837
-0.163256
0.144761
-0.170074
0.150736
-0.176943
0.156423
-0.18371
0.162123
-0.190658
-0.198012
0.168054
0.00242877
-0.00027242
0.0145926
-0.0213092
0.0368237
-0.0579899
0.0611648
-0.094033
0.0810506
-0.120445
0.0946256
-0.137136
0.103333
-0.147538
0.10948
-0.155015
0.11465
-0.161568
0.119336
-0.167942
0.123647
-0.174385
0.127732
-0.181029
0.132029
-0.188007
0.136853
-0.195482
-0.203218
0.142059
0.00406754
-0.00433996
0.0201102
-0.0373519
0.042278
-0.0801577
0.0614381
-0.113193
0.0745238
-0.13353
0.0826677
-0.14528
0.0879966
-0.152867
0.0919855
-0.159004
0.0953196
-0.164902
0.098403
-0.171026
0.101543
-0.177525
0.104943
-0.184429
0.10863
-0.191694
0.112512
-0.199364
-0.207255
0.116549
0.00608303
-0.010423
0.0239383
-0.0552071
0.0426648
-0.0988842
0.0560844
-0.126613
0.0641135
-0.14156
0.068726
-0.149893
0.0716423
-0.155783
0.0738649
-0.161227
0.0758958
-0.166933
0.0779112
-0.173041
0.0799169
-0.17953
0.0818779
-0.18639
0.0838506
-0.193667
0.0859042
-0.201417
-0.209384
0.0880329
0.00794093
-0.0183639
0.0248747
-0.0721409
0.0391051
-0.113115
0.0476645
-0.135172
0.0519801
-0.145875
0.0540712
-0.151984
0.0552499
-0.156962
0.0560909
-0.162068
0.0567395
-0.167581
0.0572269
-0.173528
0.0576199
-0.179923
0.0580442
-0.186815
0.0586232
-0.194246
0.059361
-0.202155
0.0604228
-0.210446
-0.00126832
0.00827969
-0.00701137
-0.00400983
0.0134833
-0.0107418
-0.00772534
0.0139827
-0.0102672
-0.0121698
0.0130621
-0.00861757
-0.0172042
0.0118418
-0.00680738
-0.0227492
0.0102401
-0.00469512
-0.0287441
0.00784629
-0.00185134
-0.0349444
0.00423428
0.00196601
-0.0411705
-0.000951665
0.00717775
-0.0471729
-0.00802935
0.0140317
-0.0525125
-0.0174114
0.022751
-0.0567316
-0.0291506
0.0333698
-0.0593929
-0.0430477
0.0457089
-0.0602018
-0.0583479
0.0591568
-0.0745872
-0.0586506
0.073036
-0.000839854
0.00911954
-0.00302704
0.0156705
-0.00618074
0.0171365
-0.0100039
0.0168852
-0.0143278
0.0161657
-0.0190789
0.0149912
-0.0241967
0.0129641
-0.0295683
0.00960585
-0.0348843
0.00436441
-0.0398801
-0.0030336
-0.0443226
-0.0129689
-0.0479
-0.0255732
-0.0502486
-0.040699
-0.0516498
-0.0569468
-0.0745399
-0.0516971
-0.000181439
0.00930098
-0.00134424
0.0168333
-0.00332435
0.0191166
-0.00577153
0.0193324
-0.00842585
0.01882
-0.0111387
0.017704
-0.0137801
0.0156055
-0.0161802
0.012006
-0.018077
0.00626118
-0.0190549
-0.00205572
-0.01883
-0.0131938
-0.0171944
-0.0272088
-0.0140753
-0.0438182
-0.00949217
-0.0615299
-0.0793331
-0.00469895
0.000557593
0.00874338
0.000697049
0.0166939
0.00030903
0.0195046
-0.000218944
0.0198604
-0.000505683
0.0191068
-0.000265755
0.0174641
0.000765095
0.0145746
0.00294932
0.00982174
0.00670014
0.00251035
0.0124196
-0.00777521
0.0204807
-0.0212549
0.031465
-0.0381931
0.0443377
-0.0566908
0.0595328
-0.0767249
-0.0954389
0.0756385
0.00115568
0.0075877
0.00254964
0.0152999
0.00386263
0.0181916
0.00543805
0.018285
0.0077792
0.0167656
0.0113631
0.0138801
0.0166672
0.00927053
0.0241947
0.00229432
0.0346023
-0.00789732
0.0485252
-0.021698
0.0661186
-0.0388484
0.0873634
-0.0594379
0.111349
-0.0806765
0.136575
-0.101951
-0.121861
0.162998
0.00143187
0.00615584
0.00371835
0.0130134
0.00642946
0.0154805
0.0098698
0.0148446
0.0146366
0.0119988
0.0214354
0.00708135
0.0309753
-0.000269338
0.0444192
-0.0111496
0.0622717
-0.0257498
0.0847179
-0.0441442
0.11136
-0.0654909
0.1407
-0.088777
0.170991
-0.110968
0.200908
-0.131867
-0.14819
0.227236
0.00129723
0.00485861
0.00387039
0.0104403
0.00741665
0.0119342
0.0122999
0.00996134
0.0193384
0.00496029
0.0297243
-0.00330453
0.0448887
-0.0154337
0.065338
-0.031599
0.0912309
-0.0516427
0.121136
-0.0740498
0.153452
-0.0978064
0.185052
-0.120377
0.214111
-0.140027
0.238843
-0.156599
-0.165658
0.256311
0.000824527
0.00315429
0.00715685
0.0136391
0.0241212
0.0401635
0.0625189
0.090614
0.122388
0.154938
0.185186
0.209894
0.228846
0.239962
0.249173
-0.0509984
-0.121722
0.11407
-0.039369
-0.143102
0.131473
-0.0232071
-0.158659
0.142497
-0.000957816
-0.163293
0.141044
0.0285006
-0.150406
0.120948
0.0625527
-0.112319
0.0782668
0.0970898
-0.0444839
0.00994676
0.131308
0.0546772
-0.0888958
0.162148
0.169014
-0.199853
0.180858
0.271131
-0.289841
0.194182
0.321349
-0.334673
0.195777
0.316873
-0.318469
0.172142
0.334225
-0.31059
0.142825
0.392324
-0.363008
0.138825
0.358398
-0.354398
0.152981
0.17559
-0.189745
0.171553
-0.0643377
0.0457658
0.182958
-0.270476
0.259071
0.192083
-0.387701
0.378576
0.188931
-0.404004
0.407155
0.163441
-0.425006
0.450497
0.142568
-0.44377
0.464643
0.149246
-0.321134
0.314456
0.174147
-0.0712062
0.0463058
0.196032
0.150621
-0.172506
0.210125
0.286228
-0.300322
0.218202
0.325913
-0.33399
0.212596
0.336889
-0.331284
0.2
0.331293
-0.318697
0.198968
0.274195
-0.273163
0.211742
0.133742
-0.146516
0.226348
-0.0051003
-0.0095059
0.235432
-0.116557
0.107473
0.238408
-0.170331
0.167355
0.238967
-0.20672
0.206161
0.238701
-0.201181
0.201447
0.23975
-0.209789
0.20874
-0.171168
0.169149
-0.0535217
-0.119897
-0.0538629
-0.142761
-0.0506015
-0.161921
-0.0407522
-0.173142
-0.0219089
-0.16925
0.00686225
-0.14109
0.0453977
-0.0830194
0.0887244
0.0113505
0.131046
0.126692
0.167704
0.234474
0.195564
0.293489
0.2019
0.310538
0.183082
0.353043
0.164586
0.41082
0.164534
0.35845
0.174616
0.165507
0.187173
-0.0768942
0.190288
-0.273591
0.191393
-0.388805
0.189037
-0.401648
0.163468
-0.399437
0.137587
-0.417889
0.143397
-0.326944
0.168461
-0.0962702
0.191906
0.127176
0.209517
0.268617
0.217972
0.317458
0.210416
0.344445
0.198737
0.342972
0.200852
0.27208
0.215416
0.119179
0.229929
-0.0196128
0.238204
-0.124832
0.240404
-0.172532
0.240439
-0.206754
0.240018
-0.200761
0.240997
-0.210768
-0.173192
-0.0159627
-0.108634
-0.0281018
-0.130622
-0.0401329
-0.149889
-0.0484521
-0.164823
-0.0470349
-0.170667
-0.0310811
-0.157044
-0.000969153
-0.113131
0.0470155
-0.0366341
0.100688
0.0730197
0.153193
0.181969
0.192238
0.254444
0.203842
0.298933
0.194794
0.362091
0.190048
0.415566
0.194225
0.354274
0.197286
0.162447
0.201433
-0.0810415
0.199618
-0.271776
0.19084
-0.380027
0.184054
-0.394863
0.161437
-0.37682
0.132897
-0.389349
0.134598
-0.328645
0.160195
-0.121867
0.187141
0.10023
0.208791
0.246967
0.217276
0.308973
0.20831
0.353412
0.198034
0.353248
0.202972
0.267141
0.218803
0.103348
0.232964
-0.0337744
0.240361
-0.132228
0.241853
-0.174024
0.241489
-0.206389
0.241003
-0.200275
0.242035
-0.211799
-0.175392
0.0581376
-0.0911326
0.0371688
-0.109653
0.0119849
-0.124706
-0.0132943
-0.139544
-0.0333289
-0.150632
-0.039735
-0.150638
-0.0261147
-0.126752
0.0101161
-0.0728648
0.0677631
0.0153727
0.128486
0.121246
0.173075
0.209855
0.192611
0.279398
0.198833
0.355868
0.21067
0.403729
0.222577
0.342367
0.220713
0.164311
0.214914
-0.0752425
0.207984
-0.264847
0.193821
-0.365864
0.183474
-0.384515
0.163826
-0.357172
0.132726
-0.358249
0.126809
-0.322728
0.151464
-0.146522
0.182934
0.0687604
0.207972
0.221929
0.215564
0.301381
0.205673
0.363302
0.197429
0.361492
0.205021
0.25955
0.221764
0.0866043
0.235407
-0.0474172
0.241889
-0.138711
0.242729
-0.174864
0.242085
-0.205745
0.241665
-0.199855
0.242889
-0.213024
-0.177926
0.146446
-0.0745809
0.125529
-0.0887356
0.0981263
-0.0973033
0.0629617
-0.104379
0.0244218
-0.112092
-0.00725467
-0.118961
-0.0192829
-0.114723
-0.00560536
-0.0865424
0.0384643
-0.028697
0.0954231
0.0642874
0.143115
0.162163
0.173428
0.249084
0.197834
0.331463
0.226679
0.374884
0.24523
0.323816
0.241684
0.167857
0.227776
-0.0613349
0.21411
-0.25118
0.194493
-0.346247
0.179277
-0.369299
0.163316
-0.341212
0.134951
-0.329884
0.123199
-0.310976
0.14438
-0.167704
0.178755
0.0343858
0.205876
0.194808
0.213025
0.294232
0.203282
0.373045
0.197169
0.367606
0.206924
0.249795
0.224186
0.0693427
0.237166
-0.0603978
0.242748
-0.144293
0.243029
-0.175145
0.242226
-0.204942
0.242004
-0.199634
0.243569
-0.214588
-0.180956
0.21171
-0.059054
0.193736
-0.070762
0.17372
-0.0772875
0.148169
-0.0788285
0.111662
-0.0755852
0.0664904
-0.0737896
0.0262343
-0.0744672
0.0104023
-0.0707104
0.0280026
-0.0462973
0.0695923
0.0226976
0.113224
0.118531
0.150911
0.211397
0.189959
0.292415
0.230175
0.334667
0.254687
0.299304
0.25459
0.167954
0.238137
-0.0448819
0.218145
-0.231188
0.195335
-0.323437
0.176473
-0.350437
0.162381
-0.32712
0.137839
-0.305342
0.123762
-0.296899
0.140779
-0.184721
0.175434
-0.000269004
0.203608
0.166634
0.209922
0.287918
0.200333
0.382635
0.196595
0.371343
0.208399
0.237991
0.225946
0.0517957
0.238164
-0.0726159
0.242897
-0.149026
0.242753
-0.175001
0.241929
-0.204118
0.242039
-0.199743
0.244084
-0.216634
-0.184641
0.240373
-0.0431163
0.221658
-0.0520465
0.203164
-0.0587935
0.187518
-0.0631827
0.171515
-0.059582
0.147355
-0.0496301
0.110757
-0.0378693
0.0718994
-0.0318524
0.0555527
-0.0299507
0.0737562
0.00449409
0.106885
0.0854031
0.143223
0.175059
0.188888
0.24675
0.235623
0.287932
0.260249
0.274678
0.259409
0.168794
0.240818
-0.0262906
0.216804
-0.207174
0.192293
-0.298926
0.170876
-0.32902
0.158731
-0.314974
0.138722
-0.285333
0.124683
-0.28286
0.140154
-0.200193
0.173646
-0.0337608
0.200629
0.139651
0.206351
0.282196
0.198033
0.390952
0.196422
0.372954
0.209507
0.224906
0.226936
0.0343667
0.238326
-0.0840062
0.242298
-0.152997
0.241895
-0.174598
0.241207
-0.203431
0.241789
-0.200324
0.244449
-0.219294
-0.189128
0.235629
-0.0295729
0.219914
-0.0363313
0.203291
-0.0421705
0.187269
-0.0471604
0.174947
-0.0472606
0.166424
-0.041107
0.15672
-0.0281652
0.133274
-0.00840631
0.10449
-0.00116699
0.0975474
0.0114371
0.115641
0.0673094
0.14416
0.14654
0.187248
0.203662
0.232807
0.242373
0.257227
0.250258
0.26196
0.164061
0.247393
-0.0117236
0.218914
-0.178695
0.191347
-0.27136
0.166967
-0.30464
0.154361
-0.302367
0.138754
-0.269726
0.123976
-0.268082
0.138128
-0.214345
0.169826
-0.0654586
0.196223
0.113254
0.203041
0.275377
0.195285
0.398709
0.195125
0.373113
0.209962
0.210069
0.227367
0.0169615
0.237751
-0.0943897
0.241043
-0.156289
0.240521
-0.174076
0.240109
-0.203018
0.241282
-0.201498
0.244678
-0.22269
-0.19455
0.289857
-0.0185375
-0.300892
0.279356
-0.0258308
0.267797
-0.0306109
0.254757
-0.0341203
0.240363
-0.0328671
0.226599
-0.0273428
0.215417
-0.0169833
0.199251
0.00775936
0.169659
0.0284253
0.135972
0.0451241
0.114134
0.0891472
0.114279
0.146395
0.141706
0.176235
0.181486
0.202593
0.225783
0.205961
0.275999
0.113845
0.307978
-0.0437024
0.3072
-0.177917
0.2893
-0.253459
0.260932
-0.276273
0.234839
-0.276274
0.211032
-0.245919
0.182572
-0.239622
0.173458
-0.205231
0.179673
-0.0716741
0.180236
0.112691
0.170278
0.285335
0.162873
0.406115
0.179874
0.356112
0.21242
0.177523
0.237383
-0.00800201
0.247937
-0.104943
0.248065
-0.156418
0.243609
-0.16962
0.238998
-0.198406
0.235865
-0.198365
0.23473
-0.221555
-0.19547
0.311131
-0.00929436
-0.320374
0.301102
-0.0158012
0.289969
-0.0194784
0.278177
-0.0223285
0.265951
-0.0206409
0.253848
-0.0152399
0.244148
-0.0072829
0.236385
0.0155227
0.22567
0.0391396
0.207499
0.0632954
0.191362
0.105284
0.191622
0.146135
0.21077
0.157087
0.244953
0.16841
0.290887
0.160026
0.336204
0.0685282
0.35828
-0.0657784
0.345624
-0.165261
0.316964
-0.224799
0.284376
-0.243685
0.254564
-0.246462
0.232619
-0.223974
0.206518
-0.213522
0.195714
-0.194426
0.201869
-0.0778289
0.199035
0.115525
0.183982
0.300388
0.179746
0.410351
0.205896
0.329962
0.243849
0.139571
0.269025
-0.033178
0.277376
-0.113294
0.275147
-0.154189
0.268974
-0.163447
0.263241
-0.192674
0.259427
-0.194551
0.257833
-0.219961
-0.196231
0.336078
-0.00215122
-0.343221
0.32763
-0.00735319
0.318175
-0.0100236
0.307694
-0.0118473
0.296828
-0.00977544
0.285762
-0.00417394
0.276111
0.00236873
0.27083
0.0208037
0.269038
0.040931
0.267645
0.0646886
0.269805
0.103124
0.280867
0.135073
0.298343
0.139612
0.327181
0.139572
0.367923
0.119284
0.400022
0.0364293
0.403888
-0.0696447
0.380638
-0.142011
0.349897
-0.194059
0.31992
-0.213708
0.287738
-0.21428
0.264986
-0.201222
0.239588
-0.188123
0.220186
-0.175024
0.222822
-0.0804649
0.21839
0.119957
0.200195
0.318583
0.20231
0.408235
0.239745
0.292527
0.281999
0.0973169
0.305337
-0.0565158
0.310174
-0.118131
0.305086
-0.149102
0.297034
-0.155394
0.290069
-0.185709
0.285463
-0.189944
0.283316
-0.217814
-0.196776
0.363244
0.00363336
-0.369029
0.355792
9.87859e-05
0.347556
-0.00178781
0.338473
-0.00276399
0.329763
-0.00106518
0.321416
0.00417258
0.31383
0.00995461
0.310137
0.0244976
0.310679
0.0403884
0.316029
0.0593392
0.329736
0.0894167
0.351203
0.113606
0.372643
0.118172
0.40011
0.112105
0.433254
0.0861403
0.448324
0.0213591
0.438539
-0.0598595
0.412207
-0.11568
0.378416
-0.160268
0.347268
-0.18256
0.313223
-0.180234
0.288432
-0.176431
0.270041
-0.169733
0.245839
-0.150822
0.23475
-0.0693751
0.225898
0.128809
0.212342
0.332139
0.231598
0.388979
0.283594
0.240531
0.327665
0.0532455
0.346375
-0.0752259
0.346283
-0.118038
0.337876
-0.140695
0.327846
-0.145365
0.319624
-0.177487
0.314188
-0.184509
0.311426
-0.215052
-0.197048
0.392791
0.00838037
-0.397538
0.386813
0.00607632
0.380281
0.00474453
0.373115
0.0044016
0.366107
0.00594328
0.359882
0.0103971
0.354327
0.0155101
0.352518
0.0263059
0.354223
0.0386836
0.360646
0.0529165
0.376545
0.0735174
0.39984
0.0903102
0.42336
0.0946526
0.449034
0.086431
0.473039
0.0621356
0.478953
0.0154451
0.465501
-0.0464076
0.44184
-0.0920183
0.410755
-0.129183
0.383546
-0.155351
0.35534
-0.152029
0.326115
-0.147206
0.306599
-0.150216
0.278555
-0.122778
0.245863
-0.0366836
0.22384
0.150832
0.226938
0.329041
0.275925
0.339992
0.340745
0.175711
0.380773
0.0132172
0.391418
-0.085871
0.385328
-0.111948
0.373569
-0.128937
0.361685
-0.13348
0.352234
-0.168036
0.345919
-0.178194
0.342459
-0.211592
-0.19698
0.425787
0.0119772
-0.429384
0.421301
0.010562
0.416347
0.00969932
0.410925
0.0098235
0.405693
0.0111744
0.401362
0.0147288
0.397792
0.01908
0.397313
0.0267848
0.399926
0.0360709
0.406405
0.0464371
0.420465
0.0594578
0.440472
0.0703028
0.46214
0.0729848
0.483275
0.0652957
0.500214
0.045197
0.504226
0.0114328
0.492368
-0.0345497
0.472154
-0.0718041
0.444697
-0.101726
0.415989
-0.126643
0.390318
-0.126358
0.361862
-0.11875
0.340065
-0.128419
0.315654
-0.098367
0.275671
0.00329962
0.249331
0.177172
0.276212
0.302159
0.348464
0.26774
0.411732
0.112443
0.439088
-0.0141388
0.438897
-0.0856797
0.426765
-0.0998152
0.41216
-0.114332
0.398747
-0.120067
0.38817
-0.157459
0.380957
-0.170982
0.376726
-0.20736
-0.196501
0.463217
0.0144069
-0.465647
0.460023
0.0137562
0.45637
0.0133526
0.452492
0.0137015
0.448801
0.0148646
0.445996
0.0175342
0.4441
0.020976
0.444522
0.026363
0.447743
0.03285
0.454082
0.0400978
0.465584
0.0479563
0.48145
0.0544366
0.49901
0.0554244
0.515485
0.0488212
0.527873
0.0328086
0.530845
0.00846125
0.521355
-0.0250603
0.504417
-0.0548659
0.482201
-0.0795106
0.45597
-0.100411
0.432803
-0.103191
0.407512
-0.0934584
0.38044
-0.101348
0.3569
-0.0748263
0.330795
0.0294047
0.325277
0.18269
0.372614
0.254823
0.443594
0.196759
0.487525
0.0685118
0.496818
-0.0234319
0.486511
-0.0753726
0.47011
-0.0834139
0.45382
-0.0980421
0.439379
-0.105626
0.427797
-0.145876
0.419651
-0.162836
0.414561
-0.202271
-0.195537
0.504973
0.0161134
-0.50668
0.502793
0.0159368
0.500325
0.0158209
0.497823
0.0162031
0.495556
0.0171318
0.494024
0.0190662
0.493411
0.0215891
0.494521
0.0252529
0.49788
0.0294908
0.503682
0.0342961
0.51288
0.0387583
0.525085
0.0422307
0.538627
0.0418832
0.551081
0.0363666
0.559829
0.0240603
0.562054
0.00623708
0.555111
-0.0181178
0.541094
-0.0408487
0.522146
-0.0605629
0.498194
-0.0764589
0.476115
-0.0811122
0.455305
-0.0726486
0.428713
-0.0747559
0.405022
-0.0511352
0.397367
0.0370601
0.421676
0.158381
0.478577
0.197922
0.53173
0.143606
0.553092
0.04715
0.548832
-0.0191713
0.533404
-0.0599452
0.515633
-0.0656426
0.498916
-0.0813258
0.4839
-0.09061
0.471439
-0.133415
0.462354
-0.15375
0.456341
-0.196258
-0.194013
0.551042
0.0170526
-0.551981
0.549885
0.0170935
0.548567
0.0171388
0.54725
0.0175201
0.546141
0.018241
0.545599
0.0196083
0.545879
0.0213093
0.547422
0.0237098
0.550634
0.0262787
0.555724
0.0292062
0.563002
0.0314804
0.572233
0.0329992
0.582317
0.0318
0.591379
0.0273042
0.597579
0.0178605
0.598861
0.00495471
0.593249
-0.0125058
0.581617
-0.0292162
0.565797
-0.0447428
0.545743
-0.0564054
0.525707
-0.0610758
0.507478
-0.0544199
0.484649
-0.0519275
0.463884
-0.0303693
0.466981
0.0339623
0.50518
0.120182
0.558469
0.144633
0.595152
0.106924
0.604742
0.0375597
0.596515
-0.0109449
0.581197
-0.0446265
0.564312
-0.0487579
0.548059
-0.0650726
0.532826
-0.0753772
0.519606
-0.120195
0.509572
-0.143716
0.502542
-0.189228
-0.191842
0.602127
0.0172297
-0.602304
0.601782
0.0174391
0.601321
0.0175997
0.600876
0.0179648
0.600642
0.0184751
0.600857
0.0193934
0.601727
0.0204389
0.603521
0.0219155
0.606496
0.0233046
0.610793
0.0249089
0.616473
0.0257999
0.623314
0.0261584
0.6306
0.0245145
0.637035
0.0208689
0.641158
0.0137374
0.641584
0.00452857
0.637032
-0.00795386
0.627669
-0.0198533
0.614493
-0.0315663
0.597767
-0.0396801
0.580355
-0.0436637
0.564526
-0.0385901
0.546778
-0.0341799
0.531783
-0.0153738
0.538126
0.0276187
0.573392
0.0849157
0.616564
0.101461
0.644285
0.0792024
0.651467
0.0303779
0.644884
-0.00436242
0.632062
-0.0318041
0.61703
-0.0337261
0.601705
-0.0497471
0.586531
-0.0602031
0.572675
-0.10634
0.561696
-0.132736
0.553581
-0.181114
-0.188935
0.658366
0.0169301
-0.658066
0.658586
0.0172192
0.658776
0.0174094
0.659019
0.0177216
0.659441
0.0180536
0.660198
0.0186362
0.661436
0.0192009
0.663324
0.0200274
0.665992
0.0206365
0.669529
0.0213715
0.6739
0.0214288
0.6789
0.0211589
0.684034
0.0193806
0.688402
0.0165007
0.690993
0.0111464
0.690852
0.00466986
0.687063
-0.00416496
0.679507
-0.0122973
0.668741
-0.0208006
0.655243
-0.0261817
0.640875
-0.0292958
0.627554
-0.0252692
0.614264
-0.0208897
0.604715
-0.00582518
0.611062
0.0212723
0.63803
0.0579473
0.670883
0.0686079
0.693346
0.0567394
0.70096
0.0227646
0.697239
-0.000641902
0.687345
-0.0219101
0.674558
-0.0209394
0.660526
-0.0357143
0.645687
-0.0453645
0.631311
-0.091964
0.61937
-0.120795
0.610063
-0.171807
-0.185195
0.720254
0.0162593
-0.719584
0.720916
0.0165581
0.721582
0.0167431
0.722306
0.0169975
0.723168
0.0171918
0.724261
0.0175434
0.725681
0.0177801
0.727528
0.0181806
0.729865
0.0182996
0.732733
0.0185041
0.736067
0.0180947
0.739701
0.0175249
0.743278
0.0158029
0.746224
0.0135555
0.747798
0.00957193
0.747243
0.00522516
0.744019
-0.000941047
0.738001
-0.00627924
0.729472
-0.0122719
0.71885
-0.0155598
0.707462
-0.0179075
0.69688
-0.0146878
0.687271
-0.0112799
0.68138
6.57877e-05
0.686749
0.0159026
0.706113
0.0385833
0.730433
0.0442879
0.748744
0.0384289
0.756536
0.0149728
0.755028
0.000865638
0.748021
-0.0149035
0.737529
-0.0104467
0.725024
-0.0232093
0.710729
-0.0310696
0.695991
-0.0772265
0.683125
-0.107929
0.672551
-0.161233
-0.180528
0.78837
0.0152998
-0.787411
0.789337
0.0155917
0.790321
0.0157592
0.791355
0.0159635
0.792483
0.0160639
0.793765
0.0162605
0.795256
0.0162895
0.79701
0.0164271
0.799049
0.0162605
0.801379
0.0161741
0.80392
0.0155532
0.806539
0.0149062
0.808968
0.0133735
0.810812
0.0117119
0.811628
0.00875543
0.810972
0.00588154
0.808431
0.00159963
0.803837
-0.00168514
0.797283
-0.00571772
0.789177
-0.00745348
0.780419
-0.00915004
0.772316
-0.00658421
0.765541
-0.00450549
0.762287
0.00332004
0.766538
0.0116511
0.780009
0.0251132
0.797507
0.0267899
0.811756
0.0241798
0.819143
0.00758551
0.819604
0.000404761
0.815001
-0.0103007
0.807053
-0.00249914
0.796274
-0.0124302
0.782805
-0.0175999
0.76775
-0.0621722
0.753895
-0.0940737
0.741871
-0.149209
-0.17475
0.863631
0.014181
-0.862512
0.864773
0.0144502
0.865936
0.014596
0.867142
0.0147571
0.868415
0.0147916
0.869788
0.0148872
0.871282
0.0147953
0.872929
0.0147808
0.874721
0.0144685
0.876654
0.0142403
0.878662
0.0135458
0.88064
0.0129275
0.88241
0.0116039
0.883726
0.0103964
0.884251
0.00823009
0.883683
0.00644959
0.881644
0.00363814
0.878163
0.00179609
0.873312
-0.000866661
0.867392
-0.00153291
0.861048
-0.00280619
0.855138
-0.000674418
0.850393
0.000239604
0.848438
0.0052753
0.85147
0.00861849
0.860623
0.0159606
0.872916
0.0144965
0.883898
0.0131978
0.890313
0.00117021
0.891638
-0.00091962
0.889253
-0.00791578
0.883443
0.00331104
0.87457
-0.00355738
0.862055
-0.00508507
0.847072
-0.0471891
0.832323
-0.0793245
0.818763
-0.135649
-0.167743
0.946517
0.0129284
-0.945264
0.94779
0.0131774
0.949081
0.013305
0.950397
0.0134408
0.951747
0.0134416
0.953147
0.0134866
0.954603
0.0133396
0.956123
0.0132606
0.957693
0.0128988
0.959297
0.0126362
0.960877
0.0119655
0.96236
0.0114449
0.963616
0.0103483
0.96449
0.00952216
0.964782
0.00793825
0.964334
0.0068972
0.962988
0.00498428
0.960662
0.00412152
0.957376
0.00242005
0.953358
0.00248505
0.948998
0.00155339
0.945016
0.00330729
0.941998
0.00325841
0.940892
0.00638139
0.943036
0.00647441
0.948964
0.0100319
0.957181
0.0062802
0.965004
0.00537413
0.970427
-0.00425193
0.972655
-0.003148
0.97204
-0.00730058
0.968598
0.00675239
0.962026
0.00301513
0.951216
0.00572513
0.936191
-0.032164
0.920319
-0.0634531
0.904663
-0.119993
-0.159193
1.0391
0.011623
-1.0378
1.04044
0.0118396
1.0418
0.0119489
1.04318
0.0120629
1.04457
0.0120445
1.046
0.012061
1.04745
0.0118931
1.04892
0.0117873
1.0504
0.0114213
1.05187
0.0111615
1.05329
0.0105468
1.05462
0.010118
1.05575
0.00921763
1.05661
0.00865736
1.05705
0.00750398
1.05698
0.00696357
1.05623
0.00573642
1.05483
0.00552058
1.05273
0.00451546
1.0502
0.00502333
1.04735
0.00440081
1.04479
0.00586708
1.04274
0.00531107
1.04202
0.00709575
1.04315
0.00534411
1.04668
0.0065072
1.05162
0.00133994
1.05677
0.000221845
1.06095
-0.00843269
1.06322
-0.00542165
1.06402
-0.00809935
1.06305
0.00772489
1.05881
0.00724939
1.04938
0.0151599
1.03478
-0.0175593
1.018
-0.0466758
1.00036
-0.102351
-0.148579
1.14123
0.010233
-1.13984
1.14263
0.0104409
1.14403
0.0105442
1.14544
0.0106498
1.14686
0.0106297
1.14828
0.0106408
1.14969
0.010481
1.1511
0.0103819
1.15247
0.0100458
1.15381
0.00982162
1.15508
0.0092788
1.15625
0.00894449
1.15727
0.00819606
1.15811
0.00782667
1.15866
0.00694817
1.15891
0.00671004
1.15878
0.00587284
1.15827
0.00602882
1.15736
0.00542171
1.15614
0.00624264
1.15472
0.005828
1.15337
0.00721346
1.1523
0.00638623
1.15188
0.00750754
1.15251
0.00471635
1.15441
0.00460595
1.15728
-0.0015295
1.16056
-0.00305711
1.16334
-0.011211
1.16582
-0.00790024
1.16792
-0.0102001
1.16883
0.00681591
1.16734
0.00873555
1.16059
0.0219143
1.1473
-0.00426821
1.12979
-0.0291706
1.10916
-0.0817191
-0.135794
1.25823
0.00879701
-1.25679
1.2597
0.00897334
1.26117
0.00906713
1.26266
0.00916812
1.26413
0.0091578
1.26559
0.00917448
1.26704
0.00903776
1.26846
0.00895481
1.26985
0.00866141
1.2712
0.00847253
1.27247
0.00800429
1.27368
0.0077354
1.27476
0.00711277
1.27574
0.00684684
1.27653
0.00616426
1.27717
0.00606733
1.27755
0.00548901
1.27778
0.0058003
1.27774
0.0054653
1.27761
0.00637115
1.27724
0.00619366
1.27697
0.00749173
1.27657
0.00678551
1.27637
0.00770294
1.27622
0.00487025
1.27652
0.0042996
1.27691
-0.0019162
1.27772
-0.00386668
1.27898
-0.0124748
1.28065
-0.00956321
1.28316
-0.0127119
1.28639
0.00359017
1.28857
0.00654796
1.2859
0.0245844
1.27428
0.00735538
1.2563
-0.0111935
1.23225
-0.0576633
-0.118648
1.38924
0.00726118
-1.38771
1.39078
0.0074392
1.39231
0.00753806
1.39383
0.00764028
1.39535
0.00764196
1.39686
0.00766969
1.39833
0.00756103
1.39978
0.00750465
1.40119
0.00725772
1.40255
0.00710833
1.40385
0.00670277
1.40511
0.00647817
1.40629
0.005932
1.40743
0.00570747
1.40848
0.00510955
1.4095
0.00504718
1.41044
0.00455501
1.41135
0.00489052
1.41215
0.00466288
1.41293
0.00558993
1.41355
0.00557698
1.41409
0.00695309
1.41439
0.00647813
1.41453
0.00756345
1.41437
0.00503166
1.41415
0.00451737
1.4137
-0.0014603
1.4132
-0.00336576
1.4128
-0.0120725
1.41378
-0.0105445
1.41657
-0.0155063
1.42133
-0.00116489
1.42639
0.00148475
1.42699
0.0239873
1.41904
0.0153051
1.40252
0.00532655
1.37554
-0.0306868
-0.0984951
1.5417
0.00562815
-1.54006
1.54337
0.00576912
1.54504
0.0058584
1.54673
0.00595917
1.54839
0.00598275
1.55002
0.00603168
1.55162
0.00596671
1.55317
0.00594807
1.55466
0.0057683
1.5561
0.00566803
1.55745
0.00535585
1.55875
0.00517843
1.55994
0.00473873
1.56111
0.00453731
1.5622
0.004023
1.56332
0.00392445
1.56441
0.00347117
1.56565
0.00364886
1.56687
0.00344441
1.56837
0.00409157
1.56982
0.00412414
1.5714
0.00536912
1.57278
0.00510152
1.57392
0.00641945
1.57406
0.00489671
1.57364
0.00493704
1.57176
0.000413611
1.5691
-0.000696602
1.56626
-0.00923919
1.56483
-0.00910975
1.56553
-0.016213
1.56899
-0.00462529
1.57595
-0.00547587
1.58479
0.0151499
1.58587
0.0142293
1.57602
0.0151733
1.5469
-0.00156265
-0.0699661
1.73329
0.00385734
-1.73152
1.73507
0.0039862
1.73686
0.0040732
1.73864
0.00417238
1.74041
0.00421298
1.74216
0.0042809
1.74387
0.00426389
1.74553
0.00428869
1.7471
0.00419075
1.74862
0.00415229
1.75003
0.00394492
1.75138
0.00383257
1.75262
0.00349088
1.75384
0.00332479
1.755
0.00286195
1.75622
0.00270145
1.75746
0.002234
1.75892
0.00218224
1.76048
0.00189294
1.76237
0.00220066
1.76439
0.00209599
1.76663
0.00313301
1.76874
0.00298918
1.77075
0.0044158
1.77176
0.00387927
1.77187
0.00482985
1.77045
0.00183186
1.76746
0.00229942
1.76263
-0.00440892
1.75894
-0.0054184
1.75679
-0.0140634
1.7581
-0.00594062
1.76502
-0.0123954
1.77789
0.00227984
1.78624
0.00588191
1.78282
0.0185913
1.75448
0.0267763
-0.0378882
1.94092
0.00182411
-1.93889
1.94302
0.00188427
1.94517
0.00192901
1.94735
0.00198671
1.94955
0.00201117
1.95177
0.00206627
1.95397
0.00206099
1.95616
0.00210406
1.95828
0.00206382
1.96037
0.00206941
1.96232
0.00199498
1.96421
0.00193714
1.96589
0.00181259
1.96751
0.00170955
1.96889
0.00147369
1.97019
0.00140707
1.97139
0.00103124
1.97254
0.00102979
1.97374
0.000700534
1.97528
0.000660087
1.97676
0.000616539
1.97912
0.000763821
1.9815
0.0006181
1.98422
0.00168867
1.98724
0.000866493
1.98975
0.00231381
1.99011
0.0014706
1.99079
0.00162212
1.98771
-0.00132543
1.98163
0.000662386
1.97514
-0.00758233
1.97298
-0.00377351
1.97017
-0.00958909
1.9756
-0.00314871
1.98681
-0.00533153
2.00614
-0.000736008
2.0051
0.027814
-0.00716559
2.31578
-2.31396
2.31767
2.3196
2.32158
2.3236
2.32566
2.32772
2.32983
2.33189
2.33396
2.33595
2.33789
2.3397
2.34141
2.34289
2.34429
2.34533
2.34636
2.34706
2.34772
2.34833
2.3491
2.34971
2.3514
2.35227
2.35458
2.35605
2.35768
2.35635
2.35701
2.34943
2.34566
2.33607
2.33292
2.32759
2.32685
2.35467
0.272308
0.0560248
-0.26791
0.276741
0.0835996
0.281461
0.111829
0.285659
0.137861
0.290285
0.163428
0.296334
0.186076
0.298648
0.21109
0.223968
0.293798
0.0519957
-0.289768
0.297858
0.0795394
0.302022
0.107665
0.306937
0.132947
0.309922
0.160443
0.315087
0.180911
0.317719
0.208457
0.221313
0.317657
0.0488262
-0.314487
0.321595
0.0756007
0.324543
0.104717
0.329094
0.128395
0.331345
0.158192
0.33529
0.176966
0.339705
0.204043
0.217796
0.34358
0.0463049
-0.341059
0.347176
0.0720049
0.349774
0.10212
0.353327
0.124841
0.356921
0.154598
0.36062
0.173268
0.365693
0.19897
0.21446
0.372509
0.0438867
-0.370091
0.375432
0.0690823
0.378576
0.0989757
0.381751
0.121666
0.386389
0.149959
0.389864
0.169793
0.394116
0.194718
0.211039
0.404547
0.0413095
-0.40197
0.406978
0.0666508
0.410654
0.0952997
0.413715
0.118606
0.418063
0.145611
0.42118
0.166676
0.425367
0.190531
0.207022
0.439815
0.0387586
-0.437264
0.442082
0.0643839
0.445636
0.0917453
0.448566
0.115676
0.452539
0.141637
0.456188
0.163027
0.461289
0.185431
0.202664
0.478545
0.0364466
-0.476233
0.480783
0.0621464
0.484165
0.0883635
0.487401
0.11244
0.491936
0.137102
0.496579
0.158384
0.501916
0.180094
0.1979
0.521319
0.0343383
-0.51921
0.52375
0.059715
0.527299
0.0848143
0.531131
0.108608
0.53603
0.132203
0.540867
0.153547
0.546413
0.174548
0.192332
0.568748
0.0323021
-0.566712
0.571405
0.0570586
0.575067
0.0811522
0.579164
0.104511
0.584179
0.127189
0.589522
0.148204
0.59582
0.16825
0.185847
0.621195
0.03033
-0.619223
0.623994
0.0542593
0.62777
0.0773758
0.632246
0.100035
0.637737
0.121698
0.643847
0.142094
0.650802
0.161295
0.178583
0.679233
0.0283569
-0.67726
0.682221
0.0512712
0.686259
0.0733385
0.691208
0.0950856
0.697173
0.115733
0.703876
0.135392
0.71145