/*--------------------------------*- C++ -*----------------------------------*\
| =========                 |                                                 |
| \\      /  F ield         | OpenFOAM: The Open Source CFD Toolbox           |
|  \\    /   O peration     | Version:  2312                                  |
|   \\  /    A nd           | Website:  www.openfoam.com                      |
|    \\/     M anipulation  |                                                 |
\*---------------------------------------------------------------------------*/
FoamFile
{
    version     2.0;
    format      ascii;
    arch        "LSB;label=32;scalar=64";
    class       volScalarField;
    location    "19.5";
    object      p;
}
// * * * * * * * * * * * * * * * * * * * * * * * * * * * * * * * * * * * * * //

dimensions      [0 2 -2 0 0 0 0];

internalField   nonuniform List<scalar> 
13248
(
-0.284079
-0.283697
-0.282058
-0.279529
-0.276518
-0.273423
-0.270691
-0.268736
-0.267877
-0.268276
-0.269928
-0.272666
-0.276195
-0.280135
-0.284078
-0.287649
-0.290536
-0.292573
-0.293605
-0.293785
-0.2928
-0.291136
-0.287465
-0.282419
-0.288613
-0.287959
-0.286112
-0.283512
-0.280472
-0.277332
-0.274449
-0.272143
-0.270641
-0.27004
-0.270297
-0.271234
-0.272579
-0.274018
-0.275257
-0.276071
-0.276323
-0.275947
-0.274918
-0.273187
-0.270654
-0.267255
-0.262635
-0.257807
-0.295072
-0.29379
-0.291566
-0.288717
-0.285517
-0.282221
-0.279062
-0.276231
-0.273858
-0.271986
-0.270567
-0.269465
-0.268499
-0.267494
-0.266314
-0.264877
-0.263119
-0.261003
-0.258427
-0.255374
-0.251655
-0.247379
-0.242378
-0.237316
-0.303337
-0.301142
-0.298316
-0.29503
-0.291488
-0.287839
-0.28416
-0.280505
-0.276926
-0.273468
-0.270139
-0.266916
-0.263757
-0.260623
-0.257475
-0.254262
-0.250928
-0.247399
-0.243617
-0.239519
-0.235025
-0.230242
-0.224953
-0.220072
-0.313387
-0.310094
-0.306498
-0.302617
-0.298529
-0.29423
-0.289632
-0.284696
-0.279489
-0.274143
-0.268793
-0.263543
-0.258453
-0.253536
-0.248769
-0.244105
-0.239482
-0.23484
-0.230114
-0.225254
-0.220216
-0.215014
-0.209594
-0.204525
-0.325374
-0.320846
-0.316389
-0.31177
-0.306844
-0.301416
-0.295303
-0.288514
-0.281262
-0.273832
-0.266481
-0.259377
-0.252605
-0.246176
-0.240058
-0.234196
-0.228523
-0.222974
-0.21749
-0.21202
-0.206526
-0.201016
-0.195437
-0.190231
-0.339436
-0.33359
-0.328202
-0.32263
-0.316392
-0.309147
-0.300808
-0.291625
-0.282037
-0.272466
-0.263212
-0.254439
-0.246199
-0.238473
-0.231209
-0.224336
-0.217784
-0.211488
-0.20539
-0.199438
-0.193601
-0.187843
-0.182172
-0.176819
-0.355558
-0.348337
-0.341904
-0.335006
-0.326762
-0.316885
-0.305657
-0.293702
-0.28166
-0.269999
-0.258981
-0.248704
-0.239164
-0.230305
-0.22205
-0.214319
-0.207037
-0.200133
-0.193543
-0.187215
-0.181101
-0.175171
-0.169434
-0.163956
-0.373355
-0.364788
-0.357102
-0.348294
-0.337188
-0.323906
-0.309331
-0.29445
-0.279991
-0.266362
-0.253723
-0.242086
-0.231386
-0.221532
-0.212426
-0.203975
-0.196092
-0.188699
-0.181727
-0.175115
-0.16881
-0.162777
-0.157009
-0.151457
-0.392124
-0.382263
-0.372979
-0.361473
-0.346638
-0.329394
-0.311287
-0.293524
-0.276784
-0.261337
-0.247221
-0.234359
-0.222633
-0.211916
-0.202091
-0.193048
-0.184688
-0.176923
-0.169676
-0.162875
-0.156462
-0.150397
-0.144634
-0.139065
-0.410765
-0.399677
-0.388279
-0.373184
-0.353902
-0.332421
-0.310821
-0.290346
-0.271513
-0.254425
-0.238993
-0.22506
-0.212458
-0.201028
-0.190628
-0.181132
-0.172427
-0.164414
-0.157005
-0.150123
-0.143705
-0.137701
-0.132026
-0.126577
-0.427885
-0.415633
-0.40146
-0.381913
-0.357702
-0.331951
-0.307054
-0.284118
-0.263438
-0.244934
-0.228396
-0.213594
-0.20031
-0.188352
-0.177554
-0.167771
-0.158876
-0.150757
-0.143319
-0.136479
-0.130169
-0.124338
-0.118883
-0.113742
-0.244072
-0.248056
-0.250977
-0.254591
-0.259574
-0.265978
-0.273753
-0.282836
-0.293153
-0.304623
-0.317152
-0.330628
-0.344924
-0.359892
-0.375364
-0.391155
-0.407066
-0.422881
-0.438369
-0.453277
-0.467348
-0.480363
-0.492191
-0.502704
-0.250091
-0.253154
-0.255633
-0.258948
-0.263674
-0.269873
-0.277503
-0.286511
-0.29683
-0.308387
-0.321091
-0.334835
-0.349493
-0.364916
-0.380935
-0.397357
-0.413972
-0.43055
-0.446853
-0.462631
-0.477614
-0.491501
-0.50404
-0.515369
-0.257627
-0.259512
-0.261407
-0.264309
-0.268653
-0.274504
-0.281829
-0.290576
-0.300684
-0.312084
-0.324691
-0.3384
-0.353088
-0.368604
-0.384778
-0.401412
-0.41829
-0.435173
-0.451807
-0.467931
-0.48329
-0.497637
-0.510599
-0.521078
-0.265255
-0.265871
-0.26708
-0.269446
-0.273252
-0.278567
-0.285364
-0.293593
-0.303196
-0.314109
-0.326255
-0.339535
-0.35383
-0.368995
-0.384858
-0.401225
-0.417872
-0.434559
-0.45103
-0.467001
-0.48224
-0.496343
-0.509424
-0.519826
-0.271818
-0.271242
-0.271737
-0.273435
-0.276517
-0.281065
-0.287071
-0.294486
-0.303257
-0.313328
-0.32463
-0.337077
-0.350555
-0.364929
-0.380031
-0.39567
-0.411628
-0.427653
-0.443528
-0.458861
-0.473685
-0.487023
-0.499967
-0.509644
-0.276641
-0.275143
-0.274926
-0.275843
-0.277997
-0.281514
-0.286424
-0.292702
-0.300309
-0.309198
-0.319313
-0.33058
-0.342897
-0.356136
-0.370139
-0.384714
-0.399669
-0.414708
-0.42973
-0.443996
-0.458134
-0.470447
-0.482834
-0.491434
-0.279573
-0.277539
-0.276701
-0.276767
-0.277814
-0.280036
-0.28354
-0.288357
-0.294486
-0.301904
-0.310573
-0.320429
-0.331386
-0.343323
-0.356093
-0.369494
-0.383309
-0.397216
-0.411382
-0.424811
-0.438344
-0.449629
-0.461116
-0.468333
-0.280875
-0.27873
-0.27744
-0.276678
-0.276538
-0.277296
-0.279166
-0.282277
-0.286701
-0.292465
-0.299563
-0.307951
-0.317553
-0.328238
-0.339804
-0.352165
-0.365228
-0.378435
-0.39184
-0.404387
-0.416942
-0.42713
-0.437176
-0.442678
-0.281052
-0.279171
-0.277629
-0.276164
-0.274915
-0.274235
-0.274451
-0.275819
-0.278515
-0.282645
-0.288249
-0.295301
-0.303715
-0.313426
-0.324304
-0.335983
-0.348197
-0.360519
-0.37275
-0.384135
-0.394952
-0.403626
-0.411273
-0.414519
-0.280729
-0.279348
-0.277724
-0.275739
-0.273603
-0.271728
-0.270544
-0.270423
-0.271658
-0.274439
-0.27886
-0.284928
-0.292549
-0.301485
-0.311452
-0.322087
-0.332974
-0.343738
-0.353957
-0.363269
-0.371504
-0.377991
-0.382822
-0.383457
-0.280624
-0.279782
-0.278166
-0.275848
-0.27313
-0.270458
-0.268328
-0.267201
-0.267446
-0.269302
-0.272864
-0.278073
-0.284739
-0.292552
-0.301122
-0.310027
-0.318786
-0.32704
-0.334349
-0.340586
-0.345608
-0.349362
-0.352006
-0.351487
-0.281522
-0.281062
-0.279459
-0.276971
-0.273984
-0.270936
-0.268338
-0.266673
-0.266302
-0.267447
-0.270157
-0.274311
-0.27965
-0.285803
-0.292333
-0.298797
-0.304737
-0.309874
-0.31384
-0.316727
-0.318303
-0.319043
-0.319297
-0.319102
-0.513095
-0.520485
-0.52339
-0.520958
-0.513005
-0.499604
-0.480412
-0.454932
-0.423063
-0.384671
-0.339768
-0.28854
-0.231141
-0.17021
-0.108002
-0.0486167
0.00359892
0.0454755
0.0753122
0.0934255
0.101772
0.102861
0.0991009
0.0925221
0.0846415
0.0764358
0.0684712
0.0610334
0.054259
0.0481778
0.0427758
0.0379962
0.0337866
0.0300717
0.0268003
0.0239119
0.021366
0.0191157
0.0171211
0.015362
0.0138005
0.0124285
0.0111927
0.0100896
0.00907812
0.00816769
0.00733638
0.00658756
0.00590767
0.00529192
0.00472284
0.00418499
0.00367614
0.00320585
0.00273765
0.00228514
0.00181539
0.00134362
0.000829103
0.000296392
-0.527815
-0.535666
-0.539323
-0.537331
-0.530197
-0.517013
-0.498014
-0.472954
-0.441049
-0.402939
-0.358108
-0.306642
-0.249106
-0.187523
-0.124642
-0.0646297
-0.0118954
0.0303716
0.060766
0.0798455
0.0895866
0.0924081
0.090512
0.0856721
0.0793187
0.0723895
0.0654382
0.0587827
0.0526028
0.0469695
0.0419026
0.0373748
0.0333544
0.0297831
0.0266202
0.0238139
0.0213299
0.0191252
0.0171642
0.0154277
0.0138822
0.0125212
0.0112937
0.0101954
0.0091862
0.00827435
0.00743999
0.00668584
0.00599994
0.00537657
0.00480176
0.00425472
0.00374073
0.00326046
0.00278635
0.00232308
0.00184766
0.00136395
0.000843817
0.000297519
-0.536906
-0.544351
-0.548853
-0.547909
-0.541247
-0.528881
-0.510589
-0.486144
-0.455227
-0.41775
-0.373523
-0.322602
-0.265609
-0.204449
-0.142056
-0.0825855
-0.030327
0.0117071
0.0424677
0.0627118
0.0742872
0.0793779
0.0798758
0.0772489
0.0727973
0.0674329
0.0617237
0.0560291
0.0505777
0.0454903
0.0408285
0.0366025
0.0328061
0.0294035
0.0263671
0.0236564
0.0212444
0.0190932
0.0171733
0.0154644
0.0139403
0.012592
0.0113765
0.0102849
0.00928176
0.00837101
0.00753627
0.00677846
0.00608803
0.00545761
0.00487718
0.00432201
0.00380386
0.00331402
0.00283422
0.00236047
0.00187956
0.00138419
0.00085852
0.000298721
-0.534339
-0.544157
-0.549363
-0.549756
-0.544476
-0.533376
-0.51635
-0.493138
-0.463434
-0.427104
-0.384039
-0.334357
-0.278793
-0.219172
-0.158481
-0.100708
-0.0498417
-0.00856275
0.0224209
0.0439724
0.0576406
0.0652329
0.0683601
0.068207
0.0657975
0.0620787
0.0576801
0.053008
0.0483369
0.0438388
0.0396177
0.0357224
0.0321721
0.0289554
0.0260582
0.0234533
0.0211205
0.0190292
0.0171552
0.0154783
0.0139791
0.0126455
0.0114441
0.0103608
0.00936613
0.00845852
0.00762562
0.00686568
0.00617209
0.0055351
0.00494928
0.00438715
0.00386564
0.00336679
0.00288142
0.00239757
0.00191124
0.00140455
0.000873307
0.000300145
-0.522482
-0.533479
-0.54093
-0.543185
-0.53955
-0.530112
-0.514778
-0.493178
-0.464999
-0.430081
-0.388438
-0.34054
-0.287424
-0.230765
-0.173212
-0.118182
-0.0692524
-0.0289038
0.00232779
0.0252653
0.0410942
0.0511398
0.0567665
0.0590795
0.0587337
0.0566352
0.0535213
0.049865
0.0459815
0.0420854
0.0383201
0.0347703
0.031479
0.0284591
0.0257092
0.0232171
0.0209682
0.0189412
0.0171159
0.0154745
0.0140021
0.0126853
0.0114992
0.0104252
0.00944048
0.00853756
0.00770812
0.00694745
0.0062518
0.00560884
0.00501832
0.00445021
0.00392593
0.00341874
0.00292785
0.0024344
0.00194263
0.00142511
0.000888138
0.000301871
-0.50147
-0.513187
-0.523596
-0.528168
-0.526348
-0.518852
-0.505558
-0.485908
-0.459577
-0.426485
-0.386683
-0.340802
-0.290221
-0.23743
-0.184752
-0.133857
-0.0874246
-0.0480947
-0.0166329
0.00758494
0.0253959
0.0376739
0.0455101
0.0499555
0.0516458
0.0511551
0.0492876
0.0466233
0.0435238
0.0402366
0.0369385
0.0337466
0.0307271
0.0279149
0.0253216
0.0229494
0.02079
0.0188318
0.0170581
0.0154554
0.0140116
0.0127138
0.0115437
0.0104803
0.00950615
0.00860918
0.00778424
0.0070241
0.00632721
0.00567916
0.00508426
0.00451119
0.00398467
0.00346982
0.00297337
0.00247097
0.00197364
0.0014459
0.00090295
0.000304
-0.475375
-0.486126
-0.498845
-0.505831
-0.50585
-0.500281
-0.489048
-0.471432
-0.447154
-0.416277
-0.379022
-0.336155
-0.28908
-0.24018
-0.192533
-0.146954
-0.103787
-0.0656891
-0.0341313
-0.00887526
0.0105866
0.0248129
0.0345811
0.0408362
0.0443432
0.0454982
0.0449015
0.0432329
0.0409287
0.0382688
0.0354567
0.0326397
0.029907
0.0273155
0.0248897
0.0226462
0.0205833
0.0186995
0.0169814
0.0154208
0.0140081
0.0127318
0.0115787
0.0105273
0.00956402
0.0086741
0.00785434
0.00709588
0.00639851
0.00574619
0.00514695
0.00457018
0.00404189
0.00352002
0.00301789
0.00250731
0.00200418
0.001467
0.000917684
0.000306682
-0.446191
-0.4544
-0.468185
-0.476846
-0.478317
-0.474573
-0.465429
-0.450032
-0.428232
-0.400227
-0.366392
-0.32753
-0.285114
-0.241034
-0.197934
-0.157364
-0.118007
-0.081577
-0.0502228
-0.0242607
-0.00350844
0.0123467
0.0238456
0.0317412
0.0367795
0.0395306
0.0402767
0.0396427
0.0381556
0.0361495
0.0338528
0.0314362
0.0290106
0.0266553
0.0244094
0.0223043
0.0203458
0.0185423
0.0168846
0.0153701
0.0139914
0.0127393
0.0116045
0.0105664
0.00961456
0.00873276
0.00791872
0.007163
0.00646577
0.00581032
0.00520668
0.00462754
0.00409763
0.00356929
0.0030613
0.00254346
0.00203416
0.00148848
0.00093227
0.000310107
-0.413775
-0.418839
-0.432721
-0.441769
-0.44414
-0.442266
-0.435481
-0.422842
-0.404347
-0.380218
-0.350889
-0.317104
-0.280067
-0.241228
-0.202578
-0.165904
-0.130234
-0.0958974
-0.0651335
-0.0388008
-0.0170535
0.000163406
0.0132253
0.0226637
0.0291502
0.0332802
0.0354052
0.0358754
0.0352276
0.0338812
0.0321141
0.0301196
0.0280239
0.0259243
0.0238741
0.0219193
0.0200747
0.0183583
0.0167666
0.0153022
0.0139609
0.0127357
0.0116211
0.0105978
0.00965798
0.00878536
0.00797754
0.00722564
0.00652908
0.00587192
0.00526405
0.0046839
0.00415199
0.00361755
0.00310346
0.00257944
0.00206347
0.00151042
0.000946639
0.000314517
-0.377922
-0.381431
-0.395075
-0.403284
-0.406309
-0.40637
-0.402136
-0.392755
-0.378229
-0.358694
-0.334469
-0.306148
-0.274568
-0.240847
-0.206412
-0.172757
-0.140187
-0.108215
-0.0785236
-0.0522002
-0.0297583
-0.011438
0.00294845
0.0137845
0.0215799
0.0269027
0.0302814
0.0319315
0.032213
0.0315542
0.0303124
0.0287334
0.0269687
0.025131
0.0232858
0.0214902
0.0197682
0.0181457
0.0166258
0.0152161
0.0139158
0.0127205
0.011628
0.0106213
0.00969435
0.00883196
0.00803092
0.00728378
0.00658842
0.00593119
0.00531964
0.00474
0.00420509
0.00366462
0.00314431
0.00261528
0.00209203
0.00153293
0.000960778
0.000320281
-0.344494
-0.348359
-0.360424
-0.367266
-0.371256
-0.373359
-0.371918
-0.366138
-0.355778
-0.340777
-0.3213
-0.297778
-0.270764
-0.241156
-0.210079
-0.179162
-0.148983
-0.119319
-0.0911302
-0.0652123
-0.0423126
-0.0230429
-0.00745978
0.00468837
0.0137733
0.020279
0.0246912
0.0274185
0.028769
0.0289829
0.0283887
0.0272871
0.0258813
0.0243173
0.0226826
0.0210489
0.0194518
0.0179246
0.0164781
0.015124
0.0138662
0.0127018
0.0116319
0.0106419
0.00972754
0.00887552
0.00808112
0.0073392
0.00664503
0.00598908
0.00537393
0.00479957
0.00425935
0.00371073
0.00318391
0.00265103
0.00211968
0.00155605
0.000974601
0.000328021
-0.318855
-0.324923
-0.332269
-0.335759
-0.339031
-0.341553
-0.341826
-0.339013
-0.332536
-0.322079
-0.307586
-0.289246
-0.267378
-0.242581
-0.215515
-0.18729
-0.158928
-0.130807
-0.103833
-0.078763
-0.0557717
-0.0356734
-0.0188418
-0.00524688
0.00533476
0.0132508
0.0189193
0.0226953
0.0248983
0.0259201
0.026035
0.0255014
0.0245387
0.0233156
0.021942
0.020507
0.0190614
0.0176491
0.0162891
0.0150006
0.0137916
0.0126648
0.0116209
0.0106518
0.00975077
0.00891132
0.00812377
0.00738909
0.00669641
0.00604434
0.00542771
0.00486442
0.00430039
0.00375203
0.00322051
0.00268566
0.00214516
0.00157903
0.000987171
0.00033809
-0.29759
-0.311826
-0.316738
-0.318108
-0.319173
-0.320186
-0.320035
-0.317465
-0.311628
-0.302142
-0.288955
-0.27226
-0.252385
-0.229836
-0.205262
-0.1795
-0.153467
-0.127648
-0.102662
-0.0792705
-0.0578243
-0.0388439
-0.022703
-0.0094479
0.00108039
0.00914191
0.0150776
0.0192268
0.0219029
0.0233909
0.023934
0.0237785
0.0231454
0.0221988
0.0210589
0.019812
0.0185223
0.0172347
0.0159778
0.0147705
0.0136233
0.0125476
0.0115427
0.0106095
0.00973473
0.00891759
0.00814467
0.00742128
0.00673466
0.0060902
0.00547612
0.00490785
0.00433495
0.00379056
0.00325487
0.00271807
0.00216852
0.00160031
0.000997613
0.000348296
-0.274688
-0.292259
-0.298601
-0.29883
-0.298058
-0.297671
-0.296888
-0.294296
-0.288866
-0.280168
-0.268186
-0.253149
-0.235393
-0.215336
-0.19351
-0.170501
-0.147026
-0.123637
-0.100861
-0.0793558
-0.0595108
-0.0417112
-0.0263226
-0.0134674
-0.00305551
0.00510636
0.0112931
0.0157892
0.0188455
0.0207115
0.0216312
0.0218342
0.0215257
0.0208635
0.0199679
0.0189278
0.0178117
0.0166682
0.0155298
0.0144201
0.0133526
0.012342
0.0113888
0.0104972
0.00965539
0.00886454
0.00811331
0.00740605
0.00673283
0.00609725
0.00549045
0.00491836
0.00435068
0.00381209
0.00327442
0.00273679
0.00218337
0.00161282
0.00100369
0.000353575
-0.253443
-0.271769
-0.278944
-0.27908
-0.277473
-0.276209
-0.274975
-0.272485
-0.267658
-0.259992
-0.249439
-0.236193
-0.220543
-0.202827
-0.183448
-0.16287
-0.141669
-0.120412
-0.0995777
-0.0796987
-0.0612058
-0.0444509
-0.0297589
-0.0172917
-0.00701432
0.00121618
0.00760789
0.0123868
0.0157742
0.017999
0.0192861
0.0198406
0.019852
0.0194723
0.0188223
0.0179917
0.0170527
0.0160572
0.0150422
0.0140347
0.013051
0.0121088
0.0112104
0.0103632
0.00955738
0.00879565
0.00806841
0.00737959
0.00672122
0.00609674
0.00549749
0.00493037
0.00437034
0.00383039
0.00329014
0.00275115
0.00219482
0.00162188
0.00100785
0.000356899
-0.23449
-0.251474
-0.258891
-0.259425
-0.257683
-0.255988
-0.254422
-0.251999
-0.247694
-0.24095
-0.231651
-0.219948
-0.206093
-0.190366
-0.173108
-0.154719
-0.135674
-0.116467
-0.0975323
-0.079316
-0.0622313
-0.0466035
-0.0327104
-0.020729
-0.0106777
-0.00246842
0.00404752
0.00905057
0.0127323
0.0152892
0.0169197
0.0178078
0.0181293
0.0180283
0.0176241
0.0170061
0.0162488
0.0154067
0.0145204
0.0136202
0.0127247
0.0118552
0.0110154
0.0102163
0.00944921
0.008719
0.00801747
0.00734869
0.00670647
0.00609449
0.00550406
0.00494205
0.00438557
0.00384624
0.0033052
0.00276528
0.00220602
0.00163084
0.0010123
0.000359975
-0.215922
-0.231722
-0.239173
-0.240146
-0.238575
-0.236744
-0.234994
-0.232638
-0.228786
-0.222872
-0.214722
-0.204433
-0.192223
-0.178347
-0.163092
-0.146786
-0.129801
-0.112541
-0.0954006
-0.0787678
-0.0630179
-0.0484611
-0.0353515
-0.0238725
-0.0140862
-0.00595206
0.000635659
0.00581803
0.00975255
0.0126038
0.0145469
0.0157473
0.0163657
0.0165366
0.016376
0.0159714
0.0153988
0.0147141
0.013961
0.0131727
0.0123701
0.0115776
0.0108005
0.0100528
0.00932742
0.00863124
0.00795741
0.00731054
0.00668591
0.00608724
0.00550598
0.00494967
0.00439738
0.00386059
0.00331927
0.00277884
0.00221685
0.00163967
0.00101701
0.000362677
-0.198213
-0.212958
-0.220209
-0.221482
-0.220168
-0.218384
-0.216603
-0.214362
-0.210929
-0.205767
-0.198669
-0.189679
-0.178978
-0.166789
-0.153352
-0.138928
-0.123813
-0.108342
-0.0928671
-0.0777347
-0.0632782
-0.0497882
-0.0374995
-0.0265897
-0.0171455
-0.00916265
-0.00257271
0.00272686
0.00685998
0.00996208
0.0121848
0.0136737
0.0145731
0.0150063
0.0150843
0.014892
0.0145051
0.0139806
0.0133643
0.0126919
0.0119863
0.0112748
0.010564
0.00987114
0.00919025
0.00853063
0.00788657
0.00726344
0.00665774
0.00607364
0.00550284
0.00495386
0.00440634
0.0038727
0.00333161
0.00279106
0.00222678
0.00164777
0.00102152
0.000364754
-0.18175
-0.19523
-0.202106
-0.203561
-0.202509
-0.200876
-0.199181
-0.197117
-0.194085
-0.189605
-0.183458
-0.175649
-0.166318
-0.155653
-0.143854
-0.131136
-0.11774
-0.103943
-0.0900475
-0.0763566
-0.0631609
-0.0507245
-0.0392662
-0.0289561
-0.0198965
-0.012114
-0.00557509
-0.000210946
0.00407312
0.00738572
0.00985471
0.0116058
0.0127668
0.0134492
0.0137579
0.0137741
0.013572
0.0132089
0.0127318
0.0121785
0.0115734
0.0109465
0.0103055
0.00967059
0.00903703
0.00841648
0.00780426
0.00720683
0.00662163
0.00605361
0.00549446
0.00495395
0.00441183
0.00388198
0.00334182
0.00280155
0.00223555
0.00165484
0.00102562
0.000366274
-0.166184
-0.178434
-0.1849
-0.18647
-0.185662
-0.184225
-0.18269
-0.180847
-0.178205
-0.174344
-0.169052
-0.162307
-0.154211
-0.144921
-0.134603
-0.123435
-0.111615
-0.0993711
-0.0869538
-0.0746231
-0.0626331
-0.0512213
-0.0405915
-0.0309061
-0.0222754
-0.014749
-0.00832133
-0.00295122
0.0014306
0.00490735
0.00758337
0.00956495
0.0109636
0.0118784
0.0124069
0.0126252
0.0126049
0.0124027
0.0120659
0.011634
0.0111321
0.0105928
0.0100246
0.00945072
0.00886719
0.00828817
0.00770988
0.00714008
0.00657697
0.0060264
0.00548007
0.00494918
0.00441336
0.00388802
0.00334959
0.00281002
0.00224298
0.00166073
0.00102925
0.000367373
-0.151449
-0.162613
-0.168656
-0.170281
-0.169686
-0.168454
-0.167109
-0.165509
-0.163243
-0.159946
-0.155418
-0.149625
-0.14264
-0.134587
-0.125607
-0.115845
-0.105464
-0.0946472
-0.0836023
-0.0725498
-0.0617105
-0.0512955
-0.0414911
-0.0324509
-0.0242874
-0.0170655
-0.0108017
-0.00547812
-0.00104866
0.00254664
0.00539004
0.00756918
0.00917971
0.0103079
0.0110425
0.0114542
0.0116106
0.0115669
0.01137
0.0110604
0.0106636
0.0102143
0.00972159
0.00921128
0.00868028
0.0081451
0.0076028
0.00706246
0.00652301
0.00599133
0.00545913
0.00493902
0.00441051
0.0038904
0.00335458
0.00281617
0.00224884
0.00166531
0.00103231
0.000368122
-0.137667
-0.147779
-0.153379
-0.155017
-0.154605
-0.153571
-0.152422
-0.151064
-0.149154
-0.146369
-0.142526
-0.137582
-0.13159
-0.124648
-0.116871
-0.108379
-0.0993035
-0.0897928
-0.0800165
-0.0701598
-0.0604127
-0.0509602
-0.04197
-0.0335854
-0.0259178
-0.0190411
-0.0129883
-0.0077617
-0.00333479
0.000332089
0.00330122
0.00564249
0.00743588
0.00875477
0.00967882
0.0102722
0.0105974
0.0107077
0.0106485
0.010461
0.0101699
0.00981226
0.00939694
0.00895239
0.0084761
0.00798686
0.0074825
0.0069734
0.00645922
0.00594782
0.00543112
0.00492291
0.0044028
0.00388867
0.00335637
0.00281966
0.00225285
0.0016684
0.00103463
0.000368539
-0.124781
-0.133884
-0.139045
-0.140671
-0.140417
-0.139567
-0.138607
-0.137481
-0.135899
-0.133577
-0.130345
-0.126157
-0.121048
-0.115098
-0.1084
-0.10105
-0.093155
-0.0848335
-0.076224
-0.0674803
-0.0587631
-0.0502328
-0.0420388
-0.0343126
-0.0271617
-0.0206642
-0.014865
-0.00978211
-0.00540572
-0.00171323
0.00133971
0.00380633
0.00575153
0.00723605
0.00833013
0.00909084
0.00957485
0.00983247
0.00990708
0.0098396
0.00965393
0.00938839
0.00905178
0.0086746
0.00825484
0.0078133
0.00734868
0.00687249
0.00638515
0.00589535
0.00539553
0.0049003
0.00438973
0.00388237
0.00335458
0.00282018
0.0022547
0.00166985
0.00103606
0.00036862
-0.112709
-0.120899
-0.12564
-0.127234
-0.127113
-0.126429
-0.125645
-0.124732
-0.123447
-0.121538
-0.118849
-0.11533
-0.111005
-0.105936
-0.100199
-0.093872
-0.0870391
-0.0797962
-0.0722544
-0.06454
-0.0567877
-0.0491349
-0.0417127
-0.0346403
-0.028019
-0.0219275
-0.0164183
-0.0115213
-0.00724002
-0.00356619
-0.000471232
0.00208307
0.00414738
0.00577026
0.00701245
0.00792367
0.00855392
0.00895005
0.00915256
0.00920155
0.00911933
0.0089453
0.00868775
0.00837891
0.00801705
0.00762465
0.00720129
0.00675943
0.00630042
0.00583349
0.0053519
0.00487071
0.0043708
0.00387108
0.00334878
0.00281739
0.00225411
0.00166949
0.00103642
0.000368341
-0.101451
-0.108802
-0.11314
-0.114684
-0.114672
-0.114136
-0.113509
-0.112788
-0.111767
-0.110223
-0.108011
-0.105081
-0.101446
-0.0971565
-0.0922726
-0.0868573
-0.0809769
-0.0747073
-0.0681373
-0.0613696
-0.0545154
-0.0476914
-0.0410112
-0.034581
-0.0284947
-0.0228288
-0.0176397
-0.0129654
-0.00881975
-0.00520645
-0.00211024
0.000494023
0.00264389
0.00437626
0.00574263
0.00678516
0.00754669
0.00807021
0.00839279
0.00855305
0.00857096
0.00848656
0.00830737
0.00806687
0.00776361
0.00742138
0.00704056
0.00663423
0.00620485
0.00576192
0.0052998
0.0048337
0.00434561
0.00385442
0.00333857
0.00281099
0.00225075
0.00166711
0.00103557
0.000367672
-0.0909759
-0.0975509
-0.101503
-0.102984
-0.103062
-0.102655
-0.102168
-0.101617
-0.100826
-0.099599
-0.097804
-0.0953886
-0.0923598
-0.0887559
-0.0846257
-0.0800192
-0.0749887
-0.0695933
-0.0639032
-0.0580009
-0.0519774
-0.0459306
-0.0399577
-0.0341521
-0.0285991
-0.0233712
-0.0185253
-0.0141047
-0.0101307
-0.00661652
-0.00355788
-0.000940598
0.00126103
0.003073
0.004538
0.00569074
0.00656645
0.00720398
0.00763667
0.00790106
0.00801429
0.00801647
0.00791398
0.00774101
0.00749622
0.00720439
0.00686688
0.00649696
0.00609839
0.00568053
0.00523896
0.00478894
0.00431377
0.00383203
0.00332355
0.00280066
0.00224434
0.00166253
0.00103337
0.000366569
-0.0812252
-0.0870943
-0.0906853
-0.0920967
-0.0922464
-0.091951
-0.0915873
-0.0911823
-0.0905902
-0.0896372
-0.0882026
-0.0862345
-0.083734
-0.0807304
-0.0772626
-0.0733702
-0.0690941
-0.0644799
-0.0595821
-0.0544664
-0.0492065
-0.0438832
-0.0385792
-0.0333751
-0.0283471
-0.0235624
-0.019076
-0.0149341
-0.0111627
-0.00778226
-0.00479722
-0.00220239
1.76354e-05
0.00187885
0.00341585
0.00465627
0.00562737
0.00636362
0.00689446
0.00725391
0.00745573
0.00753977
0.00751113
0.00740409
0.00721715
0.0069755
0.00668145
0.00634824
0.00598114
0.00558915
0.00516922
0.00473627
0.00427489
0.00380355
0.00330338
0.00278609
0.0022346
0.00165555
0.00102967
0.000364988
-0.072156
-0.0773882
-0.0806441
-0.0819804
-0.0821869
-0.0819872
-0.0817292
-0.0814495
-0.0810265
-0.0803072
-0.0791815
-0.0775991
-0.0755563
-0.0730751
-0.0701864
-0.0669214
-0.0633116
-0.0593917
-0.0552035
-0.0507986
-0.0462359
-0.0415817
-0.0369051
-0.0322747
-0.0277576
-0.0234147
-0.0192977
-0.0154532
-0.0119101
-0.00869337
-0.00581456
-0.00327543
-0.0010692
0.000811127
0.00239292
0.0036974
0.00474378
0.0055619
0.00617736
0.00662125
0.00690343
0.00706297
0.00710356
0.00705927
0.00692835
0.00673606
0.00648551
0.0061893
0.00585406
0.00548831
0.00509052
0.00467534
0.00422864
0.00376874
0.0032778
0.00276704
0.00222129
0.00164599
0.00102438
0.000362882
-0.063731
-0.0683866
-0.0713317
-0.0725904
-0.0728407
-0.0727223
-0.0725545
-0.0723808
-0.0721
-0.071578
-0.0707149
-0.0694625
-0.0678137
-0.0657845
-0.0633994
-0.0606826
-0.0576581
-0.0543521
-0.050796
-0.0470297
-0.0430997
-0.0390597
-0.0349666
-0.0308783
-0.0268529
-0.0229445
-0.0192005
-0.0156662
-0.0123713
-0.0093435
-0.0065996
-0.00414658
-0.00198454
-0.000114339
0.00148505
0.00282928
0.0039297
0.00481141
0.00549637
0.00601264
0.0063657
0.00659344
0.0066978
0.00671207
0.00663407
0.00648865
0.00628006
0.00602029
0.00571714
0.00537839
0.00500356
0.00460705
0.00417544
0.00372733
0.00324637
0.00274313
0.00220414
0.00163363
0.00101733
0.000360195
-0.055905
-0.0600405
-0.0626995
-0.0638806
-0.0641643
-0.0641144
-0.0640229
-0.0639377
-0.0637752
-0.0634182
-0.0627764
-0.0618043
-0.0604923
-0.0588519
-0.056902
-0.0546617
-0.0521488
-0.0493827
-0.0463864
-0.0431905
-0.0398311
-0.0363509
-0.0327967
-0.0292161
-0.0256589
-0.0221725
-0.0187992
-0.0155817
-0.0125491
-0.00973037
-0.00714568
-0.00480569
-0.00271573
-0.000883315
0.000707113
0.0020667
0.00319926
0.00412514
0.00486289
0.00543771
0.0058504
0.00613737
0.00629885
0.00636691
0.00633868
0.006238
0.00606957
0.00584451
0.00557194
0.00525913
0.0049069
0.00452969
0.00411486
0.00368016
0.00320973
0.00271457
0.00218317
0.00161843
0.00100849
0.000356923
-0.0486341
-0.0523029
-0.0547005
-0.0558055
-0.056114
-0.0561218
-0.0560942
-0.0560821
-0.0560169
-0.0557965
-0.0553397
-0.0546038
-0.0535778
-0.0522696
-0.0506938
-0.0488651
-0.0467968
-0.0445028
-0.0419997
-0.0393102
-0.0364619
-0.0334886
-0.0304279
-0.027319
-0.0242035
-0.0211222
-0.0181121
-0.0152126
-0.0124513
-0.00985641
-0.0074505
-0.00524647
-0.00325337
-0.0014841
7.23663e-05
0.00142366
0.00256662
0.00351697
0.00428999
0.00490823
0.00536777
0.00570321
0.00591301
0.00602791
0.00604398
0.00598426
0.00585426
0.0056636
0.00542171
0.00513497
0.00480508
0.00444649
0.00404718
0.00362514
0.00316611
0.00268023
0.00215766
0.00159995
0.000997581
0.000352889
-0.04188
-0.0451303
-0.0472894
-0.0483209
-0.0486473
-0.0487032
-0.0487288
-0.0487765
-0.0487903
-0.0486817
-0.0483782
-0.04784
-0.0470553
-0.0460292
-0.0447731
-0.043298
-0.0416139
-0.0397305
-0.0376592
-0.0354166
-0.0330233
-0.0305055
-0.0278935
-0.0252187
-0.0225159
-0.0198194
-0.0171607
-0.0145757
-0.0120893
-0.0097285
-0.00751652
-0.00546745
-0.00359273
-0.00190943
-0.000410138
0.000910404
0.00204279
0.00299831
0.00378924
0.0044358
0.00492916
0.00530191
0.00555069
0.00570476
0.00575895
0.00573461
0.00563748
0.00547646
0.00526254
0.00500136
0.00469455
0.00435566
0.00397283
0.00356599
0.00311913
0.00264261
0.0021292
0.00157906
0.000985106
0.00034851
-0.0356064
-0.0384816
-0.0404236
-0.0413847
-0.0417232
-0.0418187
-0.0418882
-0.0419839
-0.0420609
-0.0420426
-0.0418647
-0.0414902
-0.0409075
-0.0401194
-0.0391347
-0.0379619
-0.036608
-0.0350798
-0.0333846
-0.0315343
-0.0295437
-0.0274329
-0.0252256
-0.0229471
-0.0206258
-0.0182906
-0.0159677
-0.0136891
-0.0114767
-0.00935519
-0.00734787
-0.00546889
-0.0037309
-0.00215397
-0.000733462
0.000534573
0.00163545
0.00257647
0.00336716
0.00402615
0.0045397
0.00493817
0.00521642
0.00540187
0.00548792
0.00549513
0.00542929
0.00529654
0.00510718
0.00486672
0.00457783
0.00425645
0.00389171
0.00349457
0.00305918
0.00259575
0.00209346
0.00155306
0.000969307
0.000342285
-0.0297791
-0.0323183
-0.034063
-0.0349572
-0.0353031
-0.0354313
-0.0355365
-0.0356703
-0.035797
-0.0358509
-0.0357747
-0.035535
-0.0351199
-0.034531
-0.0337751
-0.0328586
-0.0317867
-0.0305637
-0.0291941
-0.0276861
-0.02605
-0.0243007
-0.0224567
-0.0205375
-0.0185663
-0.0165671
-0.0145612
-0.0125766
-0.0106323
-0.00875013
-0.00695274
-0.00525363
-0.00366583
-0.00221139
-0.000887784
0.000308624
0.00135857
0.00226585
0.00303777
0.00369181
0.00420973
0.00461998
0.00491519
0.0051216
0.00523135
0.00526185
0.00521956
0.0051104
0.00494681
0.00473109
0.00446676
0.00416281
0.00380804
0.00343508
0.00301526
0.00255425
0.00206201
0.00152932
0.000955088
0.000338958
-0.0243656
-0.0266034
-0.0281684
-0.0289991
-0.0293486
-0.0295032
-0.029637
-0.0298002
-0.0299651
-0.0300754
-0.0300808
-0.0299507
-0.0296738
-0.0292506
-0.0286864
-0.0279861
-0.0271533
-0.0261908
-0.0251009
-0.0238892
-0.0225627
-0.0211324
-0.0196123
-0.0180173
-0.0163659
-0.0146776
-0.0129693
-0.0112655
-0.00958162
-0.00793661
-0.00635159
-0.00483898
-0.00341134
-0.00209188
-0.000879504
0.000229811
0.00121316
0.00207131
0.00280923
0.003444
0.00395302
0.00436262
0.00466397
0.00488146
0.00500526
0.00505292
0.00502897
0.00493711
0.00478676
0.00458377
0.00432671
0.0040407
0.00371025
0.00332929
0.00291839
0.00248577
0.00200616
0.00149024
0.00092848
0.00032375
-0.0193358
-0.021303
-0.0227044
-0.0234749
-0.023825
-0.0240008
-0.0241569
-0.0243419
-0.024535
-0.0246882
-0.0247575
-0.0247154
-0.0245512
-0.0242647
-0.02386
-0.023341
-0.0227104
-0.0219697
-0.0211196
-0.0201636
-0.0191058
-0.0179542
-0.0167195
-0.0154128
-0.0140488
-0.0126436
-0.0112101
-0.00976972
-0.00833488
-0.00692133
-0.00554848
-0.00422697
-0.00296838
-0.00179592
-0.000709423
0.000296715
0.00119659
0.00198882
0.0026764
0.00327666
0.00376299
0.00416016
0.0044569
0.0046767
0.00480924
0.00486688
0.0048578
0.00478241
0.0046544
0.00447203
0.00424457
0.00396622
0.00363542
0.00330444
0.0029098
0.00245994
0.0019913
0.00147652
0.000929689
0.000336893
-0.0146782
-0.0164005
-0.0176518
-0.0183645
-0.0187114
-0.0189027
-0.0190751
-0.0192749
-0.0194869
-0.019671
-0.0197887
-0.0198153
-0.019741
-0.0195651
-0.0192911
-0.0189222
-0.0184601
-0.0179057
-0.017259
-0.0165223
-0.0156978
-0.0147909
-0.0138094
-0.012761
-0.0116571
-0.0105104
-0.00933029
-0.00813479
-0.00693384
-0.00574041
-0.00457227
-0.00343853
-0.00234949
-0.00132839
-0.000375536
0.000516514
0.00131996
0.00203176
0.00265319
0.00320275
0.00365008
0.00401865
0.00429574
0.00450361
0.0046289
0.00468566
0.00467705
0.00460388
0.00447678