/*--------------------------------*- C++ -*----------------------------------*\
| =========                 |                                                 |
| \\      /  F ield         | OpenFOAM: The Open Source CFD Toolbox           |
|  \\    /   O peration     | Version:  2512                                  |
|   \\  /    A nd           | Website:  www.openfoam.com                      |
|    \\/     M anipulation  |                                                 |
\*---------------------------------------------------------------------------*/
FoamFile
{
    version     2.0;
    format      ascii;
    arch        "LSB;label=32;scalar=64";
    class       surfaceScalarField;
    location    "2.5";
    object      phi;
}
// * * * * * * * * * * * * * * * * * * * * * * * * * * * * * * * * * * * * * //

dimensions      [0 3 -1 0 0 0 0];

oriented        oriented;

internalField   nonuniform List<scalar> 
19380
(
0.874554
-5.165e-05
0.874694
-0.000139302
0.874907
-0.000213092
0.875184
-0.000276932
0.875516
-0.000332299
0.8759
-0.000383692
0.876332
-0.000432076
0.876808
-0.000476456
0.877327
-0.000519333
0.877887
-0.000559624
0.878482
-0.000595257
0.879111
-0.00062864
0.87977
-0.000658833
0.880455
-0.000685018
0.881161
-0.000706038
0.881882
-0.000720876
0.882613
-0.000730916
0.883349
-0.000736031
0.884085
-0.000736492
0.884818
-0.000732874
0.885543
-0.000724997
0.886257
-0.000713662
0.886956
-0.000699674
0.887639
-0.000682723
0.888302
-0.000663367
0.888945
-0.000642839
0.889566
-0.000620813
0.890164
-0.000597595
0.890738
-0.00057417
0.891288
-0.000550565
0.891815
-0.000526919
0.892319
-0.000503232
0.892798
-0.000479558
0.893255
-0.00045643
0.893689
-0.000434013
0.894101
-0.00041224
0.894492
-0.000391148
0.894863
-0.000370732
0.895214
-0.00035107
-0.000332291
0.895546
0.844013
-0.000100979
0.844147
-0.000273456
0.844352
-0.000418239
0.844618
-0.000543242
0.844939
-0.000652853
0.845309
-0.000753214
0.845724
-0.000847081
0.846182
-0.000934721
0.84668
-0.00101796
0.847218
-0.00109696
0.847793
-0.0011707
0.848402
-0.00123733
0.84904
-0.00129689
0.849704
-0.00134907
0.850388
-0.00139044
0.851089
-0.00142119
0.8518
-0.00144232
0.852517
-0.00145317
0.853236
-0.00145485
0.853951
-0.00144778
0.854658
-0.00143228
0.855354
-0.00141033
0.856037
-0.00138261
0.856704
-0.00134948
0.857353
-0.00131224
0.857982
-0.00127184
0.85859
-0.00122873
0.859176
-0.00118381
0.85974
-0.00113774
0.86028
-0.00109084
0.860797
-0.00104392
0.861291
-0.000997164
0.861762
-0.000950768
0.862211
-0.000905435
0.862638
-0.000861044
0.863044
-0.000817572
0.863428
-0.000775546
0.863792
-0.000735113
0.864137
-0.000696175
-0.000658837
0.864464
0.814538
-0.000148138
0.814668
-0.000403091
0.814863
-0.000613932
0.815116
-0.000795943
0.815423
-0.000959324
0.815776
-0.00110706
0.816174
-0.00124462
0.816615
-0.00137566
0.817095
-0.00149853
0.817613
-0.00161472
0.818168
-0.00172561
0.818757
-0.0018265
0.819376
-0.0019159
0.820021
-0.00199352
0.820687
-0.00205676
0.821371
-0.00210479
0.822066
-0.00213804
0.822769
-0.00215586
0.823474
-0.00215945
0.824177
-0.00215088
0.824875
-0.00213003
0.825563
-0.0020985
0.826238
-0.00205835
0.826899
-0.00201039
0.827543
-0.00195594
0.828168
-0.00189642
0.828772
-0.00183295
0.829355
-0.00176661
0.829915
-0.00169843
0.830454
-0.00162907
0.830969
-0.00155953
0.831462
-0.00149013
0.831932
-0.00142101
0.83238
-0.0013531
0.832806
-0.00128681
0.83321
-0.00122217
0.833594
-0.00115945
0.833958
-0.00109897
0.834303
-0.00104077
-0.00098493
0.834629
0.786093
-0.00019374
0.786214
-0.000524357
0.786401
-0.000800157
0.786643
-0.00103807
0.786934
-0.00125102
0.787272
-0.00144502
0.787652
-0.00162421
0.788072
-0.00179529
0.788532
-0.00195844
0.789031
-0.00211382
0.789566
-0.00226069
0.790135
-0.00239612
0.790737
-0.00251752
0.791366
-0.00262231
0.792018
-0.00270886
0.792689
-0.00277567
0.793373
-0.00282189
0.794065
-0.00284854
0.794763
-0.00285703
0.79546
-0.00284795
0.796153
-0.002823
0.796838
-0.00278369
0.797512
-0.00273197
0.798172
-0.00267072
0.798817
-0.00260078
0.799444
-0.00252312
0.800051
-0.00244052
0.800638
-0.00235401
0.801204
-0.00226413
0.801748
-0.00217253
0.802268
-0.00208014
0.802766
-0.00198775
0.803241
-0.0018963
0.803694
-0.00180638
0.804126
-0.00171811
0.804535
-0.00163187
0.804924
-0.0015483
0.805293
-0.00146761
0.805642
-0.00138981
-0.00131515
0.805972
0.75864
-0.000236766
0.758756
-0.000640235
0.758932
-0.000976154
0.759161
-0.00126699
0.759436
-0.001526
0.759754
-0.00176307
0.760115
-0.00198463
0.760515
-0.00219519
0.760954
-0.00239799
0.761433
-0.00259229
0.761948
-0.00277629
0.762499
-0.00294722
0.763083
-0.00310146
0.763696
-0.00323523
0.764334
-0.00334664
0.764993
-0.00343444
0.765668
-0.00349742
0.766355
-0.0035358
0.767049
-0.00355012
0.767743
-0.00354265
0.768437
-0.00351628
0.769125
-0.00347172
0.769804
-0.003411
0.77047
-0.0033375
0.771123
-0.00325292
0.771758
-0.00315871
0.772375
-0.00305724
0.772971
-0.00295048
0.773547
-0.00283967
0.774101
-0.00272652
0.774633
-0.00261217
0.775142
-0.00249733
0.775629
-0.00238314
0.776093
-0.0022705
0.776535
-0.00216
0.776956
-0.00205228
0.777355
-0.00194757
0.777733
-0.00184601
0.778092
-0.00174808
-0.0016541
0.778431
0.732146
-0.000276998
0.732256
-0.000749869
0.732422
-0.00114202
0.732636
-0.00148167
0.732896
-0.00178521
0.733194
-0.00206154
0.733532
-0.00232297
0.733911
-0.00257377
0.734328
-0.00281514
0.734784
-0.00304832
0.735279
-0.00327073
0.73581
-0.00347855
0.736376
-0.0036673
0.736974
-0.00383312
0.7376
-0.00397318
0.73825
-0.00408425
0.738918
-0.00416516
0.7396
-0.00421803
0.740292
-0.00424224
0.740989
-0.0042397
0.741687
-0.00421375
0.74238
-0.00416549
0.743067
-0.00409809
0.743745
-0.00401462
0.744409
-0.00391701
0.745058
-0.00380756
0.745689
-0.00368886
0.746302
-0.00356288
0.746894
-0.00343174
0.747464
-0.00329719
0.748013
-0.00316041
0.748538
-0.00302312
0.749042
-0.00288649
0.749522
-0.00275122
0.74998
-0.00261809
0.750416
-0.0024879
0.75083
-0.00236119
0.751222
-0.0022384
0.751594
-0.00211986
-0.00200579
0.751946
0.706577
-0.000314869
0.706678
-0.000850725
0.706834
-0.00129735
0.707034
-0.00168166
0.707273
-0.00202475
0.707553
-0.00234149
0.70787
-0.00264015
0.708225
-0.0029283
0.708619
-0.00320908
0.709052
-0.00348144
0.709524
-0.00374303
0.710035
-0.00398954
0.710583
-0.0042155
0.711165
-0.00441462
0.711777
-0.00458492
0.712416
-0.00472343
0.713078
-0.00482703
0.713757
-0.00489706
0.714449
-0.00493441
0.715149
-0.00493988
0.715853
-0.00491728
0.716556
-0.00486909
0.717256
-0.00479761
0.717947
-0.00470591
0.718627
-0.00459676
0.719293
-0.00447391
0.719944
-0.00433952
0.720576
-0.00419565
0.72119
-0.00404501
0.721782
-0.00388955
0.722353
-0.00373117
0.722901
-0.0035717
0.723427
-0.00341198
0.723929
-0.00325319
0.724408
-0.0030968
0.724863
-0.00294372
0.725297
-0.00279436
0.725707
-0.00264925
0.726097
-0.00250898
-0.00237392
0.726465
0.681901
-0.000349785
0.681995
-0.000945198
0.682139
-0.00144061
0.682322
-0.00186509
0.682543
-0.00224525
0.6828
-0.0025989
0.683094
-0.00293387
0.683423
-0.00325802
0.683792
-0.00357767
0.684201
-0.0038903
0.68465
-0.00419197
0.685139
-0.00447878
0.685667
-0.00474332
0.686232
-0.00497925
0.68683
-0.00518336
0.687458
-0.00535171
0.688112
-0.00548122
0.688788
-0.00557239
0.68948
-0.00562676
0.690185
-0.00564497
0.690897
-0.00562905
0.691611
-0.00558328
0.692324
-0.00551061
0.693032
-0.00541362
0.693732
-0.0052965
0.69442
-0.00516237
0.695094
-0.00501375
0.695752
-0.0048538
0.696392
-0.00468459
0.697011
-0.00450865
0.697609
-0.00432874
0.698184
-0.00414654
0.698735
-0.00396366
0.699264
-0.00378165
0.699768
-0.00360154
0.700249
-0.00342456
0.700706
-0.00325157
0.70114
-0.00308325
0.701552
-0.0029202
-0.00276295
0.701941
0.658087
-0.000382328
0.658173
-0.00103118
0.658302
-0.00156969
0.658469
-0.0020323
0.65867
-0.0024467
0.658904
-0.00283285
0.659173
-0.0032025
0.659478
-0.003563
0.65982
-0.00391947
0.660201
-0.00427157
0.660623
-0.00461396
0.661087
-0.00494241
0.661592
-0.00524863
0.662138
-0.00552499
0.662721
-0.00576643
0.663337
-0.0059678
0.663983
-0.00612766
0.664656
-0.00624467
0.665348
-0.00631892
0.666056
-0.006353
0.666776
-0.00634888
0.667502
-0.00631009
0.668232
-0.00624036
0.668961
-0.0061421
0.669684
-0.00601941
0.670397
-0.0058761
0.671098
-0.00571496
0.671785
-0.00553988
0.672454
-0.00535358
0.673103
-0.00515858
0.673732
-0.00495756
0.674339
-0.00475295
0.674922
-0.00454664
0.675481
-0.00434066
0.676015
-0.00413633
0.676526
-0.00393481
0.677011
-0.00373728
0.677473
-0.00354462
0.67791
-0.00335758
-0.0031769
0.678324
0.635104
-0.00041212
0.63518
-0.00110809
0.635296
-0.00168499
0.635446
-0.00218267
0.635627
-0.00262715
0.635836
-0.00304245
0.636077
-0.00344321
0.636352
-0.00383809
0.636665
-0.00423204
0.637017
-0.00462417
0.637413
-0.00500938
0.63785
-0.00538019
0.638331
-0.00572941
0.638855
-0.00604858
0.639418
-0.00632998
0.64002
-0.00656931
0.640656
-0.00676352
0.641321
-0.00691011
0.642013
-0.00701036
0.642725
-0.00706572
0.643454
-0.00707802
0.644195
-0.00705089
0.644942
-0.00698721
0.645691
-0.006891
0.646438
-0.00676645
0.647179
-0.00661718
0.647911
-0.00644647
0.648629
-0.00625834
0.649332
-0.00605649
0.650017
-0.0058436
0.650682
-0.00562229
0.651324
-0.00539568
0.651944
-0.00516622
0.652539
-0.00493594
0.653109
-0.00470636
0.653654
-0.00447934
0.654173
-0.00425625
0.654666
-0.00403801
0.655134
-0.00382549
-0.00361967
0.655577
0.612922
-0.000437834
0.612991
-0.00117715
0.613094
-0.00178849
0.613226
-0.00231431
0.613384
-0.00278502
0.613567
-0.00322598
0.61378
-0.00365581
0.614025
-0.00408331
0.614306
-0.00451317
0.614626
-0.00494434
0.614989
-0.00537208
0.615398
-0.00578865
0.615851
-0.00618324
0.61635
-0.00654744
0.616893
-0.00687266
0.617477
-0.00715294
0.618099
-0.00738576
0.618757
-0.00756786
0.619445
-0.00769886
0.62016
-0.00778042
0.620896
-0.00781429
0.621649
-0.00780348
0.622413
-0.00775173
0.623185
-0.00766255
0.623958
-0.00753996
0.624729
-0.0073883
0.625494
-0.00721108
0.626248
-0.0070128
0.626989
-0.0067973
0.627713
-0.00656784
0.628419
-0.00632745
0.629103
-0.00607961
0.629763
-0.00582687
0.630399
-0.00557189
0.63101
-0.00531678
0.631593
-0.00506327
0.63215
-0.00481303
0.63268
-0.0045676
0.633182
-0.00432811
-0.00409566
0.633658
0.591515
-0.00046044
0.591575
-0.00123711
0.591664
-0.00187704
0.591776
-0.0024266
0.591911
-0.00292036
0.592069
-0.00338391
0.592252
-0.00383892
0.592466
-0.00429668
0.592713
-0.0047606
0.593
-0.00523104
0.59333
-0.00570252
0.593706
-0.00616427
0.594128
-0.00660581
0.594599
-0.00701745
0.595116
-0.00739001
0.595679
-0.00771574
0.596285
-0.00799171
0.596931
-0.00821419
0.597613
-0.00838107
0.598327
-0.00849431
0.599068
-0.00855561
0.599832
-0.00856687
0.600612
-0.00853199
0.601404
-0.00845498
0.602204
-0.00833979
0.603007
-0.00819071
0.603807
-0.00801124
0.6046
-0.00780636
0.605383
-0.00757981
0.606151
-0.0073357
0.606901
-0.00707773
0.607631
-0.00680951
0.608338
-0.00653389
0.60902
-0.00625405
0.609676
-0.00597248
0.610304
-0.00569138
0.610904
-0.00541293
0.611475
-0.00513892
0.612018
-0.00487064
-0.00460947
0.612531
0.570856
-0.000479912
0.570906
-0.00128734
0.570981
-0.00195147
0.571074
-0.00251981
0.571184
-0.00303059
0.571314
-0.0035139
0.571467
-0.00399157
0.571647
-0.00447671
0.57186
-0.00497372
0.572112
-0.00548287
0.572406
-0.00599706
0.572746
-0.00650369
0.573133
-0.00699343
0.573571
-0.0074551
0.574059
-0.00787798
0.574597
-0.00825351
0.575182
-0.00857658
0.575812
-0.00884404
0.576484
-0.00905331
0.577193
-0.00920396
0.577936
-0.00929834
0.578708
-0.00933884
0.579504
-0.00932792
0.580319
-0.00926945
0.581146
-0.0091671
0.581981
-0.00902544
0.582818
-0.0088486
0.583653
-0.00864135
0.58448
-0.00840735
0.585296
-0.00815161
0.586097
-0.00787799
0.586878
-0.00759041
0.587636
-0.00729233
0.588369
-0.00698751
0.589076
-0.00667901
0.589754
-0.00636961
0.590403
-0.00606156
0.591021
-0.005757
0.591608
-0.00545789
-0.00516579
0.592164
0.550918
-0.000495767
0.550959
-0.00132851
0.551019
-0.00201103
0.551092
-0.00259284
0.551179
-0.00311796
0.551282
-0.00361722
0.551404
-0.00411271
0.551549
-0.00462186
0.551726
-0.00515104
0.55194
-0.00569663
0.552194
-0.00625104
0.552494
-0.0068037
0.552843
-0.00734311
0.553245
-0.00785622
0.553699
-0.00833197
0.554206
-0.00876056
0.554765
-0.00913547
0.555373
-0.00945296
0.55603
-0.00970981
0.556731
-0.00990474
0.557472
-0.0100397
0.55825
-0.0101166
0.559058
-0.0101365
0.559892
-0.0101035
0.560746
-0.0100212
0.561615
-0.00989354
0.562491
-0.0097246
0.563369
-0.00951982
0.564245
-0.00928289
0.565112
-0.00901893
0.565966
-0.00873188
0.566802
-0.00842698
0.567618
-0.00810787
0.568409
-0.00777861
0.569173
-0.00744284
0.569907
-0.00710379
0.57061
-0.00676446
0.57128
-0.00642756
0.571918
-0.00609555
-0.00577015
0.572522
0.531677
-0.000508758
0.531708
-0.00135981
0.531751
-0.00205393
0.531804
-0.00264605
0.531867
-0.00318105
0.531942
-0.00369184
0.532032
-0.00420311
0.532144
-0.0047336
0.532284
-0.00529061
0.532456
-0.00586942
0.532669
-0.00646336
0.532927
-0.00706191
0.533235
-0.00765129
0.533596
-0.00821708
0.534011
-0.00874747
0.534482
-0.00923159
0.535009
-0.00966241
0.535592
-0.0100352
0.536228
-0.0103462
0.536916
-0.0105927
0.537651
-0.0107751
0.53843
-0.0108952
0.539248
-0.0109542
0.540099
-0.0109547
0.540977
-0.0108995
0.541877
-0.0107935
0.542793
-0.0106399
0.543717
-0.0104439
0.544643
-0.0102092
0.545566
-0.0099417
0.546479
-0.00964521
0.547378
-0.00932544
0.548256
-0.0089865
0.549111
-0.00863328
0.549938
-0.00827
0.550735
-0.00790075
0.551499
-0.00752892
0.552229
-0.00715743
0.552923
-0.00678971
-0.00642791
0.553581
0.513107
-0.000518331
0.513128
-0.00138131
0.513156
-0.00208216
0.513192
-0.00268116
0.513231
-0.00322092
0.513277
-0.0037378
0.513335
-0.00426051
0.51341
-0.00480923
0.513511
-0.00539129
0.513643
-0.00600166
0.513814
-0.00663368
0.514028
-0.00727582
0.51429
-0.00791387
0.514606
-0.00853261
0.514977
-0.00911894
0.515407
-0.0096614
0.515897
-0.0101525
0.516447
-0.0105854
0.517056
-0.0109556
0.517724
-0.0112601
0.518447
-0.0114983
0.519222
-0.0116697
0.520043
-0.0117759
0.520908
-0.0118192
0.521809
-0.0118005
0.52274
-0.0117247
0.523694
-0.0115943
0.524665
-0.0114144
0.525644
-0.0111884
0.526625
-0.0109229
0.527602
-0.0106217
0.528567
-0.0102908
0.529515
-0.00993469
0.530441
-0.00955923
0.53134
-0.0091689
0.532208
-0.00876838
0.533041
-0.00836235
0.533838
-0.0079541
0.534596
-0.00754784
-0.00714627
0.535314
0.495185
-0.000524567
0.495197
-0.00139293
0.495211
-0.00209598
0.495228
-0.00269835
0.495244
-0.00323727
0.495261
-0.00375499
0.495287
-0.00428651
0.495328
-0.00485026
0.49539
-0.00545269
0.495479
-0.00609119
0.495604
-0.00675862
0.495771
-0.00744269
0.495986
-0.00812842
0.496252
-0.00879943
0.496576
-0.00944204
0.496959
-0.0100452
0.497406
-0.0105992
0.497916
-0.0110955
0.498491
-0.0115306
0.499131
-0.0119
0.499834
-0.0122015
0.500598
-0.0124332
0.501418
-0.0125957
0.50229
-0.0126914
0.503209
-0.0127196
0.504168
-0.012684
0.50516
-0.0125865
0.506178
-0.0124323
0.507214
-0.0122236
0.508258
-0.0119674
0.509304
-0.0116673
0.510343
-0.0113299
0.511368
-0.0109597
0.512372
-0.0105636
0.51335
-0.0101469
0.514297
-0.00971513
0.515208
-0.00927348
0.51608
-0.00882598
0.51691
-0.00837811
-0.00793294
0.517697
0.477889
-0.00052742
0.47789
-0.00139388
0.477891
-0.00209634
0.477891
-0.0026987
0.477884
-0.00322995
0.477874
-0.00374528
0.477869
-0.00428145
0.477874
-0.00485579
0.477897
-0.00547529
0.477944
-0.00613796
0.478023
-0.00683784
0.478141
-0.00756065
0.478305
-0.00829218
0.47852
-0.00901452
0.478791
-0.00971292
0.479123
-0.0103771
0.479519
-0.010996
0.479983
-0.0115594
0.480517
-0.0120641
0.481121
-0.0125038
0.481795
-0.0128757
0.482538
-0.0131767
0.483349
-0.0134062
0.484223
-0.0135653
0.485154
-0.0136512
0.486138
-0.0136674
0.487165
-0.0136143
0.48823
-0.0134967
0.489322
-0.0133154
0.490432
-0.0130777
0.491551
-0.0127862
0.49267
-0.0124486
0.493779
-0.0120695
0.494872
-0.0116563
0.49594
-0.0112148
0.496976
-0.0107513
0.497975
-0.0102726
0.498933
-0.00978342
0.499845
-0.00929034
-0.00879713
0.500709
0.461197
-0.000526374
0.461187
-0.00138365
0.461175
-0.00208503
0.461159
-0.00268284
0.461129
-0.00319936
0.461094
-0.00371004
0.461058
-0.00424632
0.461029
-0.00482678
0.461013
-0.00545919
0.461018
-0.00614219
0.46105
-0.00687048
0.461118
-0.00762888
0.461229
-0.00840272
0.461388
-0.00917304
0.461602
-0.00992697
0.461876
-0.010652
0.462216
-0.0113359
0.462626
-0.0119693
0.46311
-0.0125475
0.463669
-0.0130634
0.464307
-0.0135132
0.465022
-0.0138923
0.465816
-0.0141995
0.466683
-0.0144328
0.467621
-0.0145887
0.468623
-0.0146696
0.469682
-0.0146737
0.470791
-0.0146053
0.471939
-0.0144635
0.473117
-0.0142558
0.474314
-0.0139831
0.475519
-0.0136539
0.476722
-0.0132722
0.477912
-0.0128463
0.479079
-0.0123824
0.480216
-0.0118884
0.481316
-0.0113717
0.482371
-0.0108384
0.483377
-0.0102963
-0.00975016
0.48433
0.445086
-0.000519913
0.445065
-0.00136269
0.445044
-0.00206442
0.445012
-0.00265086
0.444959
-0.00314635
0.444901
-0.00365162
0.444836
-0.00418179
0.444774
-0.00476464
0.44472
-0.00540523
0.444682
-0.00610435
0.444668
-0.00685677
0.444686
-0.00764628
0.444741
-0.00845826
0.444842
-0.00927362
0.444996
-0.0100805
0.445207
-0.0108638
0.445485
-0.0116132
0.445834
-0.0123187
0.446259
-0.012973
0.446766
-0.0135694
0.447356
-0.0141037
0.448033
-0.0145697
0.448798
-0.0149642
0.449649
-0.0152831
0.450583
-0.0155228
0.451596
-0.0156829
0.452681
-0.0157592
0.453831
-0.0157552
0.455035
-0.0156677
0.456283
-0.0155033
0.457562
-0.0152618
0.45886
-0.0149519
0.460164
-0.0145763
0.461462
-0.0141446
0.462742
-0.0136628
0.463994
-0.0131401
0.465208
-0.0125852
0.466375
-0.0120056
0.467489
-0.0114104
-0.0108056
0.468544
0.429534
-0.000505302
0.429505
-0.00133323
0.429476
-0.00203609
0.429428
-0.00260271
0.429354
-0.00307264
0.429275
-0.00357245
0.429182
-0.00408834
0.429089
-0.00467202
0.428998
-0.00531433
0.42892
-0.00602589
0.42886
-0.00679697
0.428826
-0.00761248
0.428826
-0.00845797
0.428866
-0.00931404
0.428956
-0.01017
0.429101
-0.0110094
0.429311
-0.0118227
0.429591
-0.0125988
0.42995
-0.0133317
0.430393
-0.0140125
0.430926
-0.0146366
0.431553
-0.015197
0.432278
-0.0156891
0.433101
-0.0161061
0.434021
-0.0164431
0.435036
-0.0166974
0.436139
-0.0168627
0.437324
-0.0169405
0.438581
-0.0169243
0.439898
-0.0168202
0.441262
-0.0166257
0.442659
-0.016349
0.444074
-0.0159912
0.445492
-0.0155629
0.446899
-0.0150696
0.448281
-0.0145223
0.449626
-0.01393
0.450923
-0.0133025
0.452162
-0.0126499
-0.0119803
0.453337
0.414521
-0.000478409
0.414489
-0.00130105
0.414452
-0.00199947
0.414389
-0.00253894
0.414296
-0.00298014
0.414199
-0.0034748
0.414076
-0.00396626
0.413957
-0.00455251
0.413829
-0.00518659
0.413713
-0.0059095
0.413607
-0.00669132
0.413523
-0.00752837
0.413467
-0.00840159
0.413446
-0.00929319
0.413469
-0.0101936
0.413545
-0.0110846
0.413681
-0.011959
0.413886
-0.0128043
0.41417
-0.0136152
0.41454
-0.0143823
0.415004
-0.0151008
0.415569
-0.0157621
0.41624
-0.0163605
0.417021
-0.0168872
0.417915
-0.0173363
0.418919
-0.0177017
0.420031
-0.0179742
0.421243
-0.0181528
0.422547
-0.0182284
0.423932
-0.0182049
0.425382
-0.0180762
0.426883
-0.0178503
0.428418
-0.0175259
0.429969
-0.0171141
0.431519
-0.0166188
0.433049
-0.0160531
0.434545
-0.0154259
0.435992
-0.0147495
0.437378
-0.0140357
-0.0132948
0.438693
0.400026
-0.000433091
0.4
-0.00127459
0.39995
-0.00195021
0.399874
-0.00246299
0.399765
-0.00287022
0.399651
-0.00336166
0.399501
-0.00381573
0.39936
-0.00441122
0.399194
-0.00502114
0.399045
-0.00576001
0.398892
-0.00653879
0.398761
-0.00739703
0.398648
-0.00828844
0.398566
-0.00921135
0.398522
-0.0101497
0.398524
-0.0110869
0.398583
-0.0120179
0.398708
-0.0129289
0.398909
-0.0138163
0.399196
-0.0146696
0.39958
-0.015485
0.40007
-0.0162517
0.400674
-0.0169645
0.401399
-0.0176123
0.40225
-0.0181873
0.403228
-0.0186801
0.404334
-0.0190794
0.405561
-0.0193804
0.406904
-0.0195712
0.408351
-0.0196521
0.409888
-0.0196131
0.411498
-0.0194602
0.413162
-0.0191894
0.414859
-0.0188111
0.416567
-0.0183276
0.418267
-0.017753
0.419937
-0.017096
0.42156
-0.0163719
0.423117
-0.0155936
-0.0147747
0.424597
0.38603
-0.000363076
0.386022
-0.00126632
0.385951
-0.00187926
0.38587
-0.00238227
0.385741
-0.00274058
0.385617
-0.00323786
0.385437
-0.00363573
0.38528
-0.00425486
0.385074
-0.00481511
0.3849
-0.00558518
0.384697
-0.00633609
0.384525
-0.00722498
0.384352
-0.00811603
0.384213
-0.00907186
0.384099
-0.0100361
0.384028
-0.011016
0.384007
-0.0119962
0.384046
-0.0129683
0.384158
-0.0139281
0.384354
-0.0148655
0.384647
-0.0157779
0.385048
-0.0166531
0.38557
-0.017486
0.386221
-0.0182641
0.387012
-0.018978
0.387947
-0.0196151
0.38903
-0.0201619
0.390258
-0.0206088
0.391628
-0.020941
0.393129
-0.0211536
0.394749
-0.0212324
0.396469
-0.0211803
0.398268
-0.0209889
0.400124
-0.020667
0.402011
-0.0202143
0.403903
-0.0196452
0.405774
-0.0189674
0.407602
-0.0181991
0.409363
-0.0173544
-0.0164512
0.411039
0.372517
-0.000262632
0.37254
-0.00128949
0.372434
-0.00177368
0.372361
-0.00230914
0.372205
-0.00258428
0.372079
-0.00311238
0.371866
-0.00342277
0.371704
-0.00409237
0.371452
-0.00456315
0.371263
-0.00539668
0.371003
-0.00607594
0.370803
-0.00702455
0.370564
-0.00787767
0.370376
-0.00888399
0.370188
-0.00984759
0.370048
-0.010876
0.369941
-0.0118891
0.369894
-0.012921
0.369909
-0.0139437
0.370007
-0.0149632
0.370197
-0.0159684
0.370497
-0.0169531
0.370921
-0.0179093
0.371481
-0.0188247
0.372192
-0.0196889
0.373063
-0.0204858
0.374102
-0.0212005
0.375311
-0.021818
0.37669
-0.0223203
0.378232
-0.022696
0.379927
-0.0229266
0.381755
-0.023009
0.383696
-0.0229299
0.385724
-0.0226945
0.387808
-0.0222985
0.389918
-0.0217555
0.392022
-0.0210715
0.39409
-0.0202666
0.396091
-0.0193562
-0.0183631
0.398003
0.359471
-0.000128994
0.359536
-0.00135458
0.359382
-0.00162005
0.359332
-0.00225867
0.359139
-0.00239095
0.359024
-0.00299801
0.358771
-0.00316975
0.358615
-0.00393581
0.358309
-0.00425709
0.358122
-0.00521041
0.357793
-0.00574661
0.357583
-0.006815
0.357265
-0.0075597
0.357048
-0.0086663
0.356772
-0.00957177
0.356576
-0.0106803
0.356373
-0.0116862
0.356245
-0.012793
0.356155
-0.0138535
0.356152
-0.0149601
0.356228
-0.0160441
0.356416
-0.0171415
0.356724
-0.0182169
0.357175
-0.0192765
0.357784
-0.0202974
0.358567
-0.021269
0.359537
-0.0221705
0.360703
-0.0229834
0.362069
-0.0236864
0.363633
-0.02426
0.365388
-0.0246817
0.367318
-0.0249392
0.369402
-0.0250138
0.371611
-0.024904
0.373912
-0.0245995
0.376269
-0.0241119
0.378641
-0.0234436
0.38099
-0.0226157
0.383278
-0.0216446
-0.0205575
0.385473
0.346882
3.54541e-05
0.346993
-0.00146503
0.346784
-0.00141122
0.346768
-0.00224252
0.346528
-0.00215086
0.346438
-0.00290804
0.346136
-0.00286791
0.345999
-0.00379875
0.345629
-0.00388759
0.345463
-0.00504425
0.34505
-0.00533371
0.344856
-0.00662129
0.344438
-0.00714151
0.34422
-0.00844774
0.343833
-0.0091855
0.343609
-0.010456
0.343289
-0.0113659
0.3431
-0.0126039
0.342884
-0.013638
0.34279
-0.0148654
0.342731
-0.0159859
0.342806
-0.0172158
0.342975
-0.018386
0.343304
-0.0196054
0.343783
-0.0207766
0.344455
-0.021941
0.345326
-0.0230411
0.346419
-0.0240764
0.347742
-0.0250099
0.349301
-0.0258191
0.351097
-0.0264769
0.353114
-0.0269565
0.355337
-0.0272365
0.357734
-0.0273019
0.360271
-0.0271358
0.362904
-0.0267447
0.365584
-0.0261237
0.368263
-0.0252949
0.370893
-0.0242742
-0.0230922
0.373427
0.334741
0.000221801
0.334889
-0.00161288
0.334628
-0.00115106
0.334649
-0.00226322
0.33436
-0.00186163
0.334302
-0.00284983
0.333947
-0.00251278
0.333839
-0.00369075
0.3334
-0.00344929
0.333268
-0.00491243
0.332761
-0.00482596
0.332606
-0.00646701
0.332067
-0.00660207
0.331882
-0.00826268
0.331355
-0.00865849
0.331143
-0.0102437
0.33067
-0.0108928
0.330458
-0.0123926
0.330081
-0.0132612
0.329925
-0.0147089
0.329698
-0.0157586
0.329674
-0.0171921
0.329668
-0.0183802
0.329874
-0.0198115
0.330184
-0.0210862
0.330729
-0.0224864
0.331457
-0.0237696
0.33245
-0.0250688
0.33369
-0.0262499
0.335212
-0.0273413
0.337016
-0.028281
0.339096
-0.0290367
0.341446
-0.0295864
0.344031
-0.0298871
0.346818
-0.0299229
0.349758
-0.0296848
0.352791
-0.0291559
0.355857
-0.0283612
0.358893
-0.0273107
-0.0260383
0.36184
0.323037
0.000415606
0.323204
-0.00177972
0.322908
-0.000855392
0.322956
-0.00231073
0.322627
-0.00153244
0.322596
-0.00281883
0.322193
-0.00211064
0.322113
-0.00361055
0.321612
-0.00294795
0.321516
-0.00481693
0.320916
-0.0042255
0.320812
-0.00636261
0.320143
-0.0059333
0.320016
-0.00813557
0.319325
-0.0079677
0.319164
-0.0100829
0.3185
-0.0102289
0.318317
-0.0122091
0.31773
-0.012674
0.317563
-0.0145423
0.31711
-0.0153059
0.317033
-0.0171144
0.31679
-0.0181378
0.316903
-0.019924
0.316975
-0.0211581
0.317403
-0.0229143
0.317917
-0.0242843
0.318798
-0.0259492
0.319886
-0.0273379
0.321344
-0.0287996
0.323104
-0.0300413
0.325218
-0.0311501
0.327671
-0.0320393
0.33043
-0.0326464
0.333479
-0.0329721
0.336754
-0.0329592
0.340186
-0.0325881
0.343708
-0.0318828
0.347229
-0.0308323
-0.0294813
0.350672
0.311759
0.000599921
0.311921
-0.00194153
0.311613
-0.000547734
0.311667
-0.00236468
0.311317
-0.00118266
0.311297
-0.00279818
0.310866
-0.00167982
0.310798
-0.00354313
0.310255
-0.00240428
0.31018
-0.00474225
0.30951
-0.00355525
0.309442
-0.0062946
0.308663
-0.00515432
0.30859
-0.00806243
0.307742
-0.00711971
0.307645
-0.00998646
0.306778
-0.00936161
0.306655
-0.0120858
0.305822
-0.0118411
0.305695
-0.0144158
0.304959
-0.0145698
0.304888
-0.017043
0.304329
-0.0175795
0.304409
-0.020004
0.304142
-0.020891
0.304505
-0.0232776
0.304683
-0.0244619
0.305487
-0.0267529
0.306292
-0.0281432
0.307697
-0.0302047
0.309303
-0.0316472
0.311438
-0.0332856
0.313935
-0.0345354
0.316851
-0.0355625
0.320165
-0.0362864
0.323788
-0.0365826
0.327676
-0.0364754
0.331734
-0.0359407
0.335838
-0.034937
-0.0335321
0.339889
0.30089
0.000759389
0.301023
-0.00207436
0.300728
-0.00025306
0.300766
-0.00240218
0.300418
-0.000834554
0.300385
-0.00276576
0.29995
-0.00124425
0.299872
-0.00346531
0.299317
-0.00184925
0.299233
-0.00465856
0.298535
-0.00285693
0.298465
-0.00622523
0.297626
-0.00431452
0.297566
-0.00800312
0.29661
-0.00616358
0.296545
-0.00992087
0.295512
-0.00832899
0.295431
-0.0120045
0.294369
-0.0107795
0.294286
-0.0143327
0.293254
-0.0135375
0.293217
-0.0170057
0.292292
-0.0166546
0.29239
-0.0201025
0.291687
-0.0201883
0.292057
-0.0236475
0.291744
-0.0241488
0.292561
-0.0275693
0.292868
-0.028451
0.294315
-0.0316517
0.295526
-0.0328575
0.297759
-0.0355191
0.300118
-0.0368947
0.303229
-0.0386728
0.306762
-0.0398196
0.310745
-0.0405652
0.315151
-0.0408816
0.319821
-0.0406111
0.324638
-0.0397534
-0.0383469
0.329452
0.290412
0.000884157
0.290498
-0.00216092
0.290235
1.04522e-05
0.290239
-0.00240625
0.289909
-0.000504348
0.289849
-0.00270592
0.289427
-0.000822746
0.28932
-0.00335833
0.288783
-0.00131182
0.28866
-0.00453525
0.28798
-0.00217709
0.287861
-0.00610623
0.287027
-0.00348058
0.286917
-0.00789305
0.285934
-0.00518124
0.285825
-0.00981161
0.284716
-0.00721979
0.2846
-0.0118891
0.283396
-0.00957491
0.283287
-0.0142235
0.282029
-0.0122796
0.28197
-0.0169469
0.28072
-0.0154044
0.280803
-0.0201858
0.279656
-0.0190416
0.280032
-0.024023
0.279143
-0.0232598
0.280021
-0.028447
0.279628
-0.028058
0.281247
-0.0332715
0.281707
-0.0333168
0.284253
-0.0380654
0.286037
-0.038679
0.289576
-0.0422112
0.293059
-0.043303
0.297537
-0.0450435
0.302488
-0.0458326
0.307838
-0.0459602
0.313561
-0.0454765
-0.0440982
0.319312
0.280305
0.000969898
0.280337
-0.00219317
0.280114
0.000233463
0.280078
-0.00237056
0.279772
-0.000197925
0.27968
-0.00261452
0.27928
-0.000422015
0.279138
-0.00321716
0.278634
-0.000807541
0.278454
-0.00435547
0.277828
-0.00155031
0.277621
-0.00589983
0.276854
-0.00271321
0.27663
-0.00766919
0.275709
-0.00426064
0.27547
-0.00957188
0.274396
-0.00614593
0.27414
-0.0116328
0.272923
-0.00835795
0.272664
-0.0139649
0.271324
-0.0109392
0.271106
-0.0167293
0.269678
-0.0139759
0.269596
-0.0201045
0.268141
-0.0175867
0.268367
-0.0242491
0.266995
-0.0218879
0.267799
-0.0292503
0.2667
-0.0269587
0.268439
-0.0350111
0.267932
-0.0328101
0.270949
-0.041082
0.271597
-0.0393265
0.275993
-0.0466073
0.278679
-0.0459897
0.284229
-0.0505936
0.289397
-0.0510001
0.295705
-0.0522687
0.302601
-0.0523716
-0.0508937
0.309396
0.270552
0.00101696
0.270529
-0.0021701
0.27035
0.000411992
0.270277
-0.00229728
0.269995
8.40907e-05
0.269876
-0.00249608
0.269496
-4.1418e-05
0.269325
-0.00304658
0.268856
-0.000338086
0.26862
-0.00412021
0.268061
-0.00099067
0.267753
-0.00559201
0.267089
-0.00204941
0.266713
-0.00729332
0.265922
-0.00346932
0.265485
-0.00913486
0.264547
-0.00520776
0.264054
-0.0111397
0.262957
-0.00726164
0.262423
-0.0134308
0.261166
-0.00968244
0.260629
-0.0161914
0.259223
-0.0125703
0.258768
-0.0196493
0.257244
-0.0160627
0.257044
-0.0240495
0.255463
-0.0203073
0.25583
-0.0296168
0.254309
-0.0254375
0.255755
-0.0364569
0.254483
-0.0315381
0.257675
-0.0442746
0.257046
-0.0386977
0.262418
-0.0519794
0.263466
-0.0470375
0.270884
-0.0580115
0.275112
-0.0552282
0.283671
-0.0608269
0.291537
-0.0602378
-0.0588923
0.299535
0.261139
0.00102657
0.261065
-0.0020958
0.260933
0.000543889
0.260825
-0.00218941
0.260569
0.000340055
0.260428
-0.00235503
0.260067
0.000319831
0.259876
-0.00285581
0.259435
0.000103281
0.259161
-0.00384603
0.258656
-0.000485631
0.258269
-0.00520584
0.257698
-0.00147769
0.25719
-0.00678513
0.256532
-0.00281156
0.2559
-0.00850281
0.255131
-0.0044394
0.254376
-0.0103839
0.253474
-0.00636035
0.2526
-0.0125569
0.251552
-0.00863419
0.250578
-0.0152174
0.249383
-0.0113754
0.248362
-0.018628
0.247037
-0.0147373
0.246103
-0.0231163
0.244684
-0.0188881
0.244141
-0.0290736
0.24268
-0.0239762
0.243128
-0.0369048
0.241697
-0.030108
0.244157
-0.0467338
0.242858
-0.0373994
0.24847
-0.0575912
0.247944
-0.0465116
0.257169
-0.0672366
0.25918
-0.057239
0.27178
-0.0734272
0.278977
-0.067434
-0.0699296
0.290014
0.252057
0.000998334
0.251938
-0.00197598
0.251853
0.000628135
0.25171
-0.00204612
0.25149
0.000560438
0.25132
-0.00218505
0.250991
0.000648639
0.250771
-0.00263588
0.250369
0.000505236
0.250055
-0.00353215
0.249603
-3.38827e-05
0.249158
-0.0047605
0.248656
-0.000975664
0.248062
-0.00619095
0.247491
-0.00224089
0.246739
-0.00775063
0.246073
-0.00377343
0.245154