/*--------------------------------*- C++ -*----------------------------------*\
| =========                 |                                                 |
| \\      /  F ield         | OpenFOAM: The Open Source CFD Toolbox           |
|  \\    /   O peration     | Version:  2312                                  |
|   \\  /    A nd           | Website:  www.openfoam.com                      |
|    \\/     M anipulation  |                                                 |
\*---------------------------------------------------------------------------*/
FoamFile
{
    version     2.0;
    format      ascii;
    arch        "LSB;label=32;scalar=64";
    class       volVectorField;
    location    "16.5";
    object      U;
}
// * * * * * * * * * * * * * * * * * * * * * * * * * * * * * * * * * * * * * //

dimensions      [0 1 -1 0 0 0 0];

internalField   nonuniform List<vector> 
5478
(
(-0.0202651 0.0149284 -6.33708e-20)
(-0.0468076 0.0472843 0)
(-0.0438785 0.0755853 9.50228e-20)
(-0.0100406 0.0942295 -1.66223e-19)
(0.0562882 0.104688 1.09309e-19)
(0.157407 0.111933 -3.11189e-20)
(0.29297 0.120662 -5.77474e-20)
(0.455602 0.13319 0)
(0.634581 0.148057 0)
(0.815757 0.165251 9.37317e-20)
(0.982611 0.175148 -3.83738e-20)
(1.13278 0.191161 -7.62758e-20)
(1.24124 0.175254 -3.23454e-20)
(1.31807 0.188112 0)
(1.36369 0.129511 9.97063e-20)
(-0.0278166 0.0134118 1.26617e-19)
(-0.0507263 0.0282824 0)
(-0.0334362 0.0387974 0)
(0.0327259 0.0494871 -8.24166e-20)
(0.153905 0.0641924 1.08854e-19)
(0.325262 0.0868536 3.20206e-20)
(0.527995 0.117719 -5.77758e-20)
(0.73717 0.152249 5.12226e-20)
(0.931363 0.186271 1.41306e-19)
(1.09162 0.210446 -1.2604e-19)
(1.21305 0.22804 3.66836e-21)
(1.28598 0.224591 0)
(1.31671 0.216593 3.22834e-20)
(1.31696 0.19145 0)
(1.28433 0.162247 0)
(-0.0356957 0.0149838 -2.84847e-22)
(-0.0423228 0.0212743 -5.82748e-20)
(0.0162396 0.0255867 2.44546e-22)
(0.151142 0.0407565 0)
(0.355145 0.0726589 -3.69351e-20)
(0.592851 0.118064 3.20862e-20)
(0.822722 0.167387 2.80659e-20)
(1.01514 0.21119 0)
(1.15363 0.240419 -4.58981e-20)
(1.23748 0.254778 4.1227e-20)
(1.27193 0.24901 3.67499e-20)
(1.27111 0.235853 0)
(1.25594 0.209294 0)
(1.23441 0.192621 -8.94684e-20)
(1.22447 0.166108 7.9611e-20)
(-0.0379723 0.014336 -6.76109e-20)
(-0.0111858 0.0168016 5.7482e-20)
(0.118208 0.0278844 -4.95801e-20)
(0.34633 0.0643412 4.38999e-20)
(0.61943 0.121699 7.44795e-20)
(0.87024 0.182478 -6.42365e-20)
(1.05911 0.231779 -2.80404e-20)
(1.17531 0.260778 2.42404e-20)
(1.2294 0.27054 -2.21266e-20)
(1.24125 0.262394 0)
(1.23384 0.249267 0)
(1.22674 0.22988 -5.41605e-20)
(1.22466 0.217858 7.22866e-20)
(1.2271 0.202992 -4.14928e-20)
(1.23532 0.188369 0)
(-0.0305617 0.0102571 3.42062e-20)
(0.0533881 0.0122419 2.88926e-20)
(0.281268 0.0468694 -1.04069e-19)
(0.590964 0.116482 1.31816e-21)
(0.87337 0.191033 -3.72662e-22)
(1.06969 0.247141 -7.02428e-22)
(1.17556 0.276752 2.7072e-20)
(1.21595 0.284401 2.38098e-20)
(1.2225 0.277583 1.86749e-20)
(1.22003 0.26728 -1.33399e-21)
(1.21985 0.254548 -4.38812e-20)
(1.21995 0.243409 0)
(1.21594 0.230122 2.25042e-20)
(1.20882 0.213683 -1.81861e-20)
(1.18894 0.198683 3.14507e-20)
(-0.0103319 0.00458795 -7.37097e-20)
(0.161835 0.015782 7.99348e-20)
(0.494033 0.092387 -2.78065e-20)
(0.82576 0.187674 2.1522e-20)
(1.05158 0.257657 -3.95351e-20)
(1.16629 0.292878 -3.11803e-20)
(1.20804 0.302328 5.18359e-22)
(1.21656 0.297994 0)
(1.21546 0.289511 3.67505e-20)
(1.21177 0.27803 -3.26814e-20)
(1.20447 0.26582 1.40276e-20)
(1.19426 0.250674 0)
(1.18493 0.236634 9.05979e-21)
(1.17551 0.220909 -1.71487e-20)
(1.17681 0.211263 0)
(0.0275065 0.000662327 -9.18734e-21)
(0.315722 0.0420802 8.4725e-22)
(0.709892 0.162238 1.33112e-20)
(0.998245 0.259843 2.33144e-20)
(1.14678 0.309892 -1.86374e-20)
(1.20225 0.325529 3.17066e-20)
(1.21388 0.323564 -7.1826e-21)
(1.20955 0.314778 0)
(1.19991 0.302304 -2.1299e-20)
(1.18905 0.288812 9.77601e-22)
(1.18023 0.27438 1.84271e-20)
(1.17475 0.261196 0)
(1.16974 0.248329 -1.30808e-20)
(1.16695 0.234133 0)
(1.15555 0.224797 8.82298e-21)
(0.0868103 0.00491489 -1.03294e-20)
(0.493186 0.100245 0)
(0.883581 0.241943 1.45531e-20)
(1.10306 0.324214 0)
(1.18985 0.353528 0)
(1.20904 0.354951 0)
(1.20267 0.345049 -6.31827e-21)
(1.19015 0.331077 0)
(1.17888 0.316533 4.23425e-21)
(1.17042 0.301762 0)
(1.16296 0.287534 -5.79232e-21)
(1.15443 0.272661 0)
(1.14619 0.257778 4.01604e-21)
(1.13668 0.242913 0)
(1.13275 0.232835 2.79891e-21)
(-0.0236402 -0.00891827 -6.45852e-21)
(-0.0899618 -0.0132618 0)
(-0.177496 -0.0139478 1.09327e-20)
(-0.255774 -0.0127644 0)
(-0.326521 -0.0108557 0)
(-0.391228 -0.00871842 0)
(-0.449713 -0.00663042 -8.82182e-21)
(-0.502139 -0.0048395 0)
(-0.548484 -0.00354053 7.9663e-21)
(-0.588738 -0.00289407 0)
(-0.622785 -0.0030348 -1.40686e-20)
(-0.650575 -0.00407581 0)
(-0.672291 -0.006078 1.20517e-20)
(-0.688141 -0.00903162 0)
(-0.697338 -0.0127884 1.00407e-20)
(-0.0276924 0.0489044 3.26787e-20)
(-0.0915839 0.078152 -2.39577e-20)
(-0.172349 0.0806519 1.14745e-20)
(-0.24364 0.0779572 4.21223e-20)
(-0.306776 0.0750804 1.414e-21)
(-0.36295 0.0720563 -3.70483e-20)
(-0.411838 0.0685579 2.58231e-20)
(-0.453512 0.0643499 0)
(-0.487942 0.0592752 2.49732e-20)
(-0.515206 0.0532144 1.68381e-21)
(-0.535343 0.0460565 -1.35209e-20)
(-0.548229 0.0376559 0)
(-0.553771 0.0279829 -3.66803e-20)
(-0.552506 0.0174144 0)
(-0.544286 0.00606887 -5.06079e-20)
(-0.033246 0.0913593 5.53288e-20)
(-0.0880793 0.153242 1.32194e-20)
(-0.150095 0.163348 -2.23533e-20)
(-0.202691 0.159131 -6.46559e-20)
(-0.246219 0.152545 3.86685e-20)
(-0.281285 0.145325 3.93457e-20)
(-0.307466 0.137373 -7.13043e-20)
(-0.324763 0.128555 0)
(-0.333184 0.118773 -6.72009e-20)
(-0.332845 0.107887 5.97518e-20)
(-0.324101 0.0958053 2.90064e-20)
(-0.30742 0.0831895 0)
(-0.280414 0.0669368 2.46081e-20)
(-0.248618 0.0533946 -4.6069e-20)
(-0.201412 0.0307273 0)
(-0.0373755 0.109133 3.00823e-20)
(-0.0812927 0.199406 -7.90153e-20)
(-0.11949 0.224202 9.56018e-20)
(-0.148022 0.223221 -8.72124e-20)
(-0.16717 0.214905 -4.12736e-20)
(-0.176843 0.204592 3.87752e-20)
(-0.17659 0.193092 3.64186e-20)
(-0.166516 0.180447 3.4582e-20)
(-0.147073 0.166655 -1.00369e-19)
(-0.118811 0.151965 -3.3801e-21)
(-0.0789924 0.135538 2.76449e-20)
(-0.0396484 0.119657 0)
(0.0243788 0.0986262 4.94547e-20)
(0.0641849 0.0797693 1.39054e-19)
(0.165121 0.0669123 -8.30897e-20)
(-0.0373376 0.101599 7.53935e-22)
(-0.0722918 0.209352 5.51233e-20)
(-0.0880352 0.254581 -4.91025e-20)
(-0.0919798 0.263939 4.43063e-20)
(-0.0859394 0.257908 8.22854e-20)
(-0.070015 0.246418 -7.69332e-20)
(-0.0439945 0.232799 -3.57501e-20)
(-0.0082497 0.218046 -1.05259e-19)
(0.0381267 0.202018 9.5397e-20)
(0.0862706 0.184621 0)
(0.161013 0.167668 0)
(0.201933 0.144464 1.07884e-19)
(0.319816 0.131717 -2.45049e-19)
(0.338265 0.097446 8.87369e-20)
(0.507267 0.0944127 0)
(-0.0321823 0.0768651 2.79131e-22)
(-0.0615851 0.183614 -5.50988e-20)
(-0.061965 0.246072 1.4805e-19)
(-0.0459598 0.270742 -4.38999e-20)
(-0.0175658 0.273017 -4.10415e-20)
(0.0214459 0.264313 3.81861e-20)
(0.0706099 0.250638 3.57599e-20)
(0.126002 0.233981 6.74457e-20)
(0.197432 0.217259 -1.19126e-19)
(0.253249 0.195575 5.56205e-20)
(0.362822 0.180964 5.18312e-20)
(0.398342 0.154514 0)
(0.569122 0.144227 0)
(0.575644 0.10889 1.72305e-19)
(0.800938 0.101666 -1.53287e-19)
(-0.0243904 0.0478703 -1.59377e-22)
(-0.0508935 0.134859 0)
(-0.0454247 0.19981 0)
(-0.0187217 0.23397 8.74778e-20)
(0.02403 0.244759 -3.91205e-20)
(0.0790046 0.241202 3.44658e-20)
(0.144643 0.230243 6.7135e-20)
(0.215629 0.215067 -5.95347e-20)
(0.304272 0.199902 5.9298e-20)
(0.384665 0.184042 -5.56792e-20)
(0.515703 0.169874 -3.86307e-21)
(0.590576 0.152011 0)
(0.784957 0.14027 4.09368e-20)
(0.82842 0.111925 0)
(1.07992 0.107571 0)
(-0.0188876 0.0256918 -6.38411e-20)
(-0.0446213 0.0840561 0)
(-0.0406826 0.134592 -9.62139e-20)
(-0.0121499 0.165005 1.69138e-19)
(0.036778 0.177438 -1.87709e-19)
(0.103355 0.178212 -3.60911e-20)
(0.187727 0.173443 6.015e-20)
(0.290274 0.168572 0)
(0.413187 0.162205 0)
(0.551057 0.162414 -1.0133e-19)
(0.705232 0.152963 -5.18759e-20)
(0.852592 0.157746 8.37213e-20)
(1.02218 0.142447 -4.10037e-20)
(1.12301 0.138623 0)
(1.30297 0.12498 -1.25341e-19)
(-0.698722 -0.0193751 0)
(-0.686498 -0.0325475 3.81093e-21)
(-0.620205 -0.0307039 -3.51452e-21)
(-0.543735 -0.0373859 0)
(-0.386097 -0.00860697 0)
(-0.214092 0.0250108 -2.49525e-23)
(0.0149013 0.0491739 0)
(0.222462 0.0631982 0)
(0.403784 0.0671179 -4.70195e-23)
(0.544642 0.0666721 0)
(0.649805 0.0650201 0)
(0.726646 0.0624857 5.13121e-23)
(0.782484 0.0608271 0)
(0.824634 0.0582389 3.09099e-23)
(0.857171 0.0583335 2.42615e-23)
(0.884122 0.0543413 0)
(0.906222 0.058143 1.13859e-22)
(0.925932 0.0487588 -1.33776e-22)
(0.941353 0.0597126 0)
(0.955011 0.0395908 -6.2425e-23)
(0.964319 0.0627945 7.16571e-23)
(0.972404 0.0323543 -1.3163e-23)
(0.977238 0.0618634 1.83135e-23)
(0.982165 0.0396119 -1.7499e-23)
(0.983478 0.0455924 1.42889e-23)
(0.988298 0.0628414 0)
(0.987478 0.0323775 1.02434e-23)
(0.989997 0.0595668 -9.79433e-24)
(0.993559 0.0649388 7.95542e-24)
(0.990168 0.0355555 0)
(0.993499 0.0601161 1.28903e-23)
(0.997664 0.0887703 0)
(0.99416 0.0502328 1.13639e-23)
(0.99315 0.0448101 6.26504e-24)
(0.998229 0.0854571 -7.12933e-25)
(1.00248 0.127391 5.06442e-24)
(1.00173 0.120786 0)
(0.996758 0.0378156 1.1922e-25)
(-0.524067 -0.012555 1.86492e-20)
(-0.546222 -0.0631278 -1.27005e-22)
(-0.481234 -0.0762502 -1.20618e-20)
(-0.431138 -0.108947 1.15034e-20)
(-0.311064 -0.112303 0)
(-0.160065 -0.100724 2.51469e-23)
(0.0370938 -0.0776673 3.36401e-23)
(0.22218 -0.0424272 0)
(0.388091 -0.0137701 4.73729e-23)
(0.518874 0.00726596 0)
(0.617709 0.0224165 0)
(0.691594 0.0322239 -5.16796e-23)
(0.74727 0.0383912 0)
(0.791548 0.0411258 -9.46775e-22)
(0.827498 0.0449584 8.00096e-22)
(0.859431 0.0435112 -5.7537e-22)
(0.886806 0.0494627 5.49216e-22)
(0.912295 0.0417247 2.52188e-23)
(0.932242 0.0545582 0)
(0.949867 0.0356488 0)
(0.961248 0.0602785 1.39174e-23)
(0.971151 0.030555 -9.94723e-23)
(0.976453 0.0606202 1.58026e-22)
(0.981914 0.0390507 -7.07929e-23)
(0.983688 0.0447643 -4.31046e-23)
(0.988031 0.0626309 0)
(0.988042 0.0321671 -2.15089e-23)
(0.990285 0.0589519 0)
(0.993532 0.0650603 -7.98339e-24)
(0.99103 0.0355264 2.80621e-23)
(0.994099 0.059443 -5.26303e-23)
(0.997776 0.0887892 1.00739e-23)
(0.994948 0.0506107 -1.87902e-23)
(0.994296 0.0444882 -6.73364e-25)
(0.999141 0.0847926 -7.4106e-24)
(1.0031 0.127132 4.3479e-24)
(1.00254 0.121173 2.02126e-25)
(0.997962 0.0381477 -4.1526e-25)
(-0.15826 0.000853872 3.87479e-20)
(-0.179699 -0.0621662 -7.03453e-20)
(-0.128933 -0.111023 5.78354e-21)
(-0.0796616 -0.150187 2.5323e-20)
(0.00348785 -0.185774 2.30679e-22)
(0.126249 -0.196347 -9.32582e-23)
(0.276634 -0.179949 -3.42154e-23)
(0.414279 -0.133576 1.38073e-22)
(0.534562 -0.0825739 0)
(0.628855 -0.0415928 -4.89046e-21)
(0.6991 -0.012642 4.66468e-21)
(0.750166 0.00644418 1.02903e-22)
(0.787623 0.0202173 0)
(0.818314 0.027466 1.87207e-21)
(0.843675 0.0338532 -1.73597e-21)
(0.86846 0.0338184 5.88527e-22)
(0.890617 0.0410555 -5.61568e-22)
(0.913759 0.0344379 -4.36523e-22)
(0.931967 0.0489628 3.67175e-22)
(0.949625 0.0312859 0)
(0.960494 0.057419 0)
(0.97099 0.0285671 -1.78845e-22)
(0.976056 0.0591775 1.70742e-22)
(0.981808 0.0384557 1.28744e-22)
(0.98395 0.0438153 -1.26628e-23)
(0.987726 0.0623786 -1.05365e-22)
(0.988624 0.0319542 -1.49897e-25)
(0.990558 0.0582249 3.80551e-23)
(0.993453 0.0651862 -9.62395e-23)
(0.991914 0.0354876 9.02739e-23)
(0.994697 0.0586717 -1.11093e-23)
(0.997817 0.0887825 2.29913e-23)
(0.995721 0.0510046 -1.82359e-23)
(0.99549 0.0441158 1.74359e-23)
(1.00004 0.0840613 5.66308e-24)
(1.00363 0.126845 3.29564e-24)
(1.00325 0.121555 -6.86282e-24)
(0.999114 0.0384798 -5.14613e-25)
(0.188652 -0.00314696 0)
(0.200977 -0.0692105 3.52945e-20)
(0.232071 -0.13155 -3.4699e-20)
(0.276475 -0.186244 0)
(0.353465 -0.236132 -2.37065e-22)
(0.45164 -0.261438 9.58086e-23)
(0.555962 -0.250535 0)
(0.643517 -0.198481 -4.9925e-23)
(0.715169 -0.133264 1.39789e-22)
(0.77015 -0.0752825 0)
(0.81069 -0.0350302 3.80777e-21)
(0.840297 -0.00995597 -3.73605e-21)
(0.860579 0.00748511 1.60715e-22)
(0.875747 0.0174724 1.88916e-21)
(0.887364 0.0255843 -1.80142e-21)
(0.900299 0.0263321 -8.10904e-23)
(0.912208 0.0343042 0)
(0.927654 0.028273 5.29032e-23)
(0.939767 0.0440593 -6.4477e-22)
(0.954018 0.0273086 8.50791e-23)
(0.962179 0.0547095 6.6015e-23)
(0.971988 0.0266784 3.70291e-22)
(0.976136 0.0576739 2.68467e-22)
(0.981885 0.0379019 -3.30035e-22)
(0.984274 0.0427784 2.95745e-23)
(0.987417 0.0620984 0)
(0.989207 0.0317502 2.21665e-23)
(0.990816 0.0573856 -3.85564e-23)
(0.993346 0.0653189 9.78679e-23)
(0.992793 0.0354406 -9.17027e-23)
(0.995284 0.0578012 2.59987e-23)
(0.997815 0.0887453 0)
(0.996471 0.0514135 1.84926e-23)
(0.996703 0.0436947 -3.61319e-23)
(1.00091 0.0832622 -1.48653e-23)
(1.00409 0.126523 -1.75004e-23)
(1.00389 0.121928 6.86766e-24)
(1.00021 0.0388113 -3.53384e-25)
(0.505923 0.021441 6.33069e-22)
(0.526138 -0.0607602 1.2204e-21)
(0.553595 -0.136449 0)
(0.589553 -0.205277 0)
(0.655503 -0.276353 0)
(0.730829 -0.312785 0)
(0.786576 -0.300335 7.34874e-23)
(0.816765 -0.240169 2.85652e-21)
(0.837377 -0.166636 -3.22975e-21)
(0.855553 -0.101305 0)
(0.872421 -0.0518495 3.51681e-21)
(0.888789 -0.0192169 -3.45675e-21)
(0.902368 0.00237554 -2.58547e-21)
(0.913092 0.0150858 2.17756e-21)
(0.920144 0.0241958 -1.54066e-21)
(0.927431 0.0246143 1.55165e-21)
(0.933343 0.0320326 6.70443e-23)
(0.942711 0.0252641 8.13049e-22)
(0.949472 0.0412223 -7.74708e-22)
(0.959878 0.0245202 -7.31249e-23)
(0.964967 0.0526035 -6.06796e-23)
(0.97359 0.0250816 -3.27831e-22)
(0.976539 0.0561963 3.59876e-22)
(0.982107 0.0374177 7.16966e-23)
(0.984645 0.0416609 3.04182e-23)
(0.987129 0.0617961 2.61831e-23)
(0.989774 0.0315595 0)
(0.991062 0.0564409 0)
(0.993231 0.0654626 0)
(0.993643 0.0353893 0)
(0.99585 0.0568422 -7.56935e-23)
(0.997796 0.0886861 4.70293e-23)
(0.997193 0.0518358 -3.75722e-23)
(0.997905 0.0432274 1.20133e-22)
(1.00175 0.0824086 -1.49439e-23)
(1.00449 0.126172 -3.19723e-24)
(1.00447 0.122291 1.00125e-23)
(1.00125 0.0391412 1.48588e-24)
(0.786407 0.0341844 -6.66053e-22)
(0.811147 -0.0428047 7.6422e-20)
(0.838612 -0.122601 -7.33804e-20)
(0.866572 -0.200124 -5.11355e-20)
(0.918236 -0.278996 4.86916e-20)
(0.962805 -0.328891 1.84805e-20)
(0.961488 -0.31718 -1.72769e-20)
(0.930909 -0.257982 2.73371e-23)
(0.901525 -0.184591 1.05593e-22)
(0.888133 -0.118229 0)
(0.888247 -0.0677146 1.1608e-22)
(0.896561 -0.0329031 -5.6824e-21)
(0.908325 -0.00925518 5.40951e-21)
(0.919895 0.00603176 1.33144e-22)
(0.928867 0.018212 0)
(0.937194 0.0204084 1.35576e-21)
(0.943156 0.0290672 -2.31172e-21)
(0.951056 0.0225009 9.26421e-22)
(0.955795 0.0391013 0)
(0.96421 0.0224333 -4.93416e-22)
(0.967304 0.0510262 1.32196e-22)
(0.975104 0.0239056 4.49283e-22)
(0.977011 0.0548405 3.74875e-22)
(0.982391 0.037117 -3.52343e-22)
(0.985033 0.040535 2.39211e-22)
(0.986887 0.0614907 -2.01656e-23)
(0.990309 0.0314245 -2.20557e-22)
(0.991294 0.055407 1.54414e-22)
(0.993135 0.0655987 -1.46848e-22)
(0.994439 0.0353595 5.96295e-23)
(0.996384 0.0558074 -5.66977e-23)
(0.997787 0.0885828 0)
(0.997882 0.0522714 -3.82251e-23)
(0.999067 0.0427341 1.66252e-24)
(1.00255 0.081494 0)
(1.00487 0.125787 1.79214e-23)
(1.00501 0.122647 -6.36402e-24)
(1.00224 0.0394707 3.02564e-25)
(1.0604 0.0485663 0)
(1.0779 -0.0262438 0)
(1.09743 -0.113513 -2.68276e-22)
(1.11257 -0.200053 0)
(1.1276 -0.273098 0)
(1.11802 -0.316679 2.29779e-20)
(1.06301 -0.305623 -2.18417e-20)
(0.986437 -0.246681 5.18082e-22)
(0.927409 -0.177474 -4.77543e-22)
(0.896557 -0.116691 0)
(0.88739 -0.0702483 8.39642e-23)
(0.892089 -0.0371814 -8.45898e-23)
(0.903854 -0.012507 4.93514e-21)
(0.918027 0.00278308 -6.12881e-22)
(0.929945 0.0159313 -3.80889e-21)
(0.940518 0.0184026 -4.54759e-23)
(0.947831 0.0272147 3.60283e-23)
(0.955839 0.0202725 -1.70195e-21)
(0.959837 0.0371577 1.67326e-21)
(0.967364 0.0203595 0)
(0.969151 0.0493716 0)
(0.976502 0.0225802 2.74357e-23)
(0.977514 0.0533537 0)
(0.982759 0.036699 -3.12533e-22)
(0.985429 0.0392792 1.32705e-23)
(0.98672 0.0611413 2.36276e-22)
(0.990817 0.0312319 2.34274e-22)
(0.991502 0.0542961 -1.55122e-22)
(0.993087 0.0657481 1.80964e-23)
(0.995175 0.0352917 0)
(0.996867 0.054721 5.16058e-23)
(0.997814 0.0884847 -4.89283e-23)
(0.998544 0.0526928 -2.03859e-23)
(1.00016 0.0421936 -1.45416e-23)
(1.00329 0.0805896 1.87504e-23)
(1.00524 0.12539 -6.92561e-24)
(1.00555 0.122967 0)
(1.00317 0.0397915 -1.39432e-24)
(1.28787 0.0720608 7.68068e-20)
(1.28948 0.0160198 7.47534e-20)
(1.28944 -0.0602776 -3.4506e-21)
(1.28038 -0.146549 -1.20467e-19)
(1.25677 -0.225664 5.36373e-20)
(1.19822 -0.276095 -2.62119e-22)
(1.10997 -0.283695 0)
(1.01778 -0.25057 -5.39504e-23)
(0.947213 -0.201869 5.11187e-24)
(0.910769 -0.148647 0)
(0.898644 -0.0987496 5.11849e-21)
(0.900641 -0.0597673 -4.85392e-21)
(0.909491 -0.0292305 -8.12939e-23)
(0.921737 -0.00956104 -4.02018e-21)
(0.933687 0.00695346 3.81477e-21)
(0.944893 0.0124549 -4.67527e-23)
(0.952589 0.024135 -3.82113e-23)
(0.960528 0.0179071 0)
(0.963718 0.0360559 -1.535e-21)
(0.970554 0.0190758 1.45538e-21)
(0.971182 0.0485655 5.23891e-22)
(0.978168 0.0221422 -9.02656e-23)
(0.978313 0.0521306 -4.12101e-22)
(0.983391 0.0370298 3.29004e-22)
(0.985964 0.038043 -4.85161e-23)
(0.986739 0.0609592 -5.01102e-22)
(0.991351 0.0313977 1.8768e-22)
(0.991733 0.0529386 -1.87291e-22)
(0.993138 0.0659824 1.38101e-22)
(0.995854 0.0354612 0)
(0.997312 0.0533512 0)
(0.997901 0.0882953 0)
(0.999181 0.0533269 -1.8998e-23)
(1.00116 0.0416281 1.96875e-23)
(1.00398 0.079452 -2.38564e-23)
(1.00562 0.124931 1.56616e-23)
(1.00608 0.12339 6.45866e-24)
(1.00406 0.0401426 0)
(1.34162 0.0925913 0)
(1.35596 0.0395227 0)
(1.34298 -0.0206362 0)
(1.3119 -0.0815205 0)
(1.26439 -0.134825 0)
(1.19848 -0.167724 0)
(1.12138 -0.17281 0)
(1.04911 -0.161584 0)
(0.99424 -0.136479 0)
(0.960094 -0.106651 0)
(0.941375 -0.0774387 0)
(0.93383 -0.0521159 0)
(0.934314 -0.0305413 0)
(0.940371 -0.0139321 0)
(0.948239 0.00230656 0)
(0.957167 0.00759206 0)
(0.962723 0.0194903 0)
(0.968447 0.013678 0)
(0.969794 0.0322242 0)
(0.97488 0.0157058 0)
(0.974309 0.0454324 0)
(0.980392 0.019781 0)
(0.979715 0.0497033 0)
(0.984613 0.0355392 0)
(0.986623 0.036383 0)
(0.987329 0.0597862 0)
(0.992057 0.0306623 0)
(0.992007 0.051748 0)
(0.993647 0.0654453 0)
(0.996636 0.0350295 0)
(0.997724 0.0524199 0)
(0.99831 0.0878032 0)
(1.00008 0.0532071 0)
(1.00224 0.0410558 0)
(1.00473 0.0786457 0)
(1.00618 0.124381 0)
(1.0068 0.123421 0)
(1.00512 0.0404094 0)
(1.27157 0.0856173 0)
(1.28814 0.030916 0)
(1.27795 -0.0247406 0)
(1.25111 -0.0785079 0)
(1.21108 -0.126266 0)
(1.1594 -0.161899 0)
(1.10285 -0.179368 0)
(1.05042 -0.175966 0)
(1.00722 -0.154944 0)
(0.977445 -0.126036 0)
(0.960541 -0.0945945 0)
(0.953385 -0.0648514 0)
(0.951841 -0.0381433 0)
(0.953995 -0.0186307 0)
(0.957113 -0.0013818 0)
(0.961519 0.00515467 0)
(0.965379 0.0182364 0)
(0.970419 0.0141532 0)
(0.97169 0.0327709 0)
(0.976397 0.0168619 0)
(0.975708 0.0459109 0)
(0.981451 0.0199517 0)
(0.980526 0.0499205 0)
(0.985417 0.0347898 0)
(0.987078 0.0363488 0)
(0.987994 0.0593153 0)
(0.992622 0.0298815 0)
(0.992414 0.0517517 0)
(0.994417 0.0650469 0)
(0.99733 0.0342556 0)
(0.998263 0.0523262 0)
(0.999125 0.0877702 0)
(1.00111 0.052623 0)
(1.0033 0.0404105 0)
(1.00561 0.0781927 0)
(1.00705 0.124208 0)
(1.0078 0.123613 0)
(1.00646 0.0405491 0)
(1.22466 0.0784733 0)
(1.24248 0.0386505 0)
(1.23754 -0.00126278 0)
(1.21505 -0.0393452 0)
(1.18394 -0.0724052 0)
(1.14699 -0.0971155 0)
(1.10619 -0.10841 0)
(1.06426 -0.106878 0)
(1.02505 -0.0954819 0)
(0.994701 -0.0785768 0)
(0.975118 -0.0591441 0)
(0.9638 -0.0409928 0)
(0.958355 -0.0243302 0)
(0.957555 -0.0122179 0)
(0.959178 0.000110507 0)
(0.96367 0.00467021 0)
(0.966913 0.0167739 0)
(0.971321 0.0121414 0)
(0.972471 0.0305923 0)
(0.977188 0.0148927 0)
(0.976698 0.044113 0)
(0.982278 0.0184385 0)
(0.981348 0.0488468 0)
(0.986193 0.0335133 0)
(0.98754 0.0358245 0)
(0.98879 0.0584455 0)
(0.993119 0.0291611 0)
(0.992926 0.0516058 0)
(0.995331 0.0643536 0)
(0.99794 0.0336792 0)
(0.998914 0.0523185 0)
(1.0002 0.0874465 0)
(1.00218 0.0520025 0)
(1.00431 0.0400503 0)
(1.00663 0.0780043 0)
(1.00821 0.124047 0)
(1.00909 0.123705 0)
(1.00804 0.0407175 0)
(1.18571 0.0743777 0)
(1.19854 0.0421392 0)
(1.19408 0.00696584 0)
(1.17758 -0.0255713 0)
(1.15429 -0.0542968 0)
(1.12596 -0.0774264 0)
(1.09375 -0.0927717 0)
(1.0606 -0.098965 0)
(1.02983 -0.0951914 0)
(1.0052 -0.083721 0)
(0.987799 -0.0680223 0)
(0.976854 -0.0520028 0)
(0.970586 -0.0351784 0)
(0.968717 -0.0214043 0)
(0.968902 -0.00602282 0)
(0.971042 0.000403619 0)
(0.972287 0.0134699 0)
(0.97539 0.0102873 0)
(0.975423 0.0293442 0)
(0.97924 0.0142916 0)
(0.978334 0.0433866 0)
(0.983372 0.0177038 0)
(0.9824 0.0481323 0)
(0.987073 0.0324943 0)
(0.988109 0.0351773 0)
(0.98978 0.0575879 0)
(0.993616 0.0284055 0)
(0.993564 0.0511333 0)
(0.996443 0.0636955 0)
(0.998504 0.0330917 0)
(0.999668 0.0519499 0)
(1.00157 0.0870181 0)
(1.00334 0.0514839 0)
(1.00527 0.0395824 0)
(1.00785 0.0775438 0)
(1.00977 0.12368 0)
(1.01081 0.123762 0)
(1.00991 0.0408705 0)
(1.15167 0.0687453 0)
(1.16266 0.0439279 0)
(1.16163 0.0181552 0)
(1.15008 -0.00605599 0)
(1.13242 -0.0277919 0)
(1.11136 -0.0454503 0)
(1.0878 -0.0571632 0)
(1.06357 -0.0618939 0)
(1.03949 -0.0596358 0)
(1.01794 -0.0525206 0)
(1.00106 -0.0421255 0)
(0.988941 -0.0312149 0)
(0.980682 -0.019579 0)
(0.976322 -0.0102147 0)
(0.973618 0.000361119 0)
(0.973801 0.00365347 0)
(0.973974 0.015193 0)
(0.976524 0.0109361 0)
(0.976434 0.0291209 0)
(0.980269 0.0136074 0)
(0.979619 0.0424203 0)
(0.984468 0.0166388 0)
(0.98362 0.0472048 0)
(0.988111 0.0313913 0)
(0.988862 0.0343755 0)
(0.990923 0.0567422 0)
(0.994198 0.0275468 0)
(0.994363 0.0505639 0)
(0.997682 0.0630502 0)
(0.999092 0.0323727 0)
(1.00058 0.0514117 0)
(1.00316 0.0865832 0)
(1.00456 0.0509043 0)
(1.00627 0.038903 0)
(1.00932 0.076866 0)
(1.01176 0.123209 0)
(1.01295 0.123812 0)
(1.01208 0.041042 0)
(1.12398 0.0647056 0)
(1.13288 0.0462172 0)
(1.13263 0.0260472 0)
(1.12413 0.00630825 0)
(1.11102 -0.0116026 0)
(1.09526 -0.0266961 0)
(1.07727 -0.0380181 0)
(1.05837 -0.0450601 0)
(1.03891 -0.0473505 0)
(1.02109 -0.0453342 0)
(1.00661 -0.0393709 0)
(0.995664 -0.0319474 0)
(0.987876 -0.0226618 0)
(0.983397 -0.0146987 0)
(0.980482 -0.00397691 0)
(0.98047 -9.31913e-05 0)
(0.979793 0.0119761 0)
(0.981219 0.00857966 0)
(0.980095 0.0274123 0)
(0.983021 0.0123741 0)
(0.981901 0.0413673 0)
(0.98613 0.0156355 0)
(0.985132 0.0462918 0)
(0.989351 0.030383 0)
(0.989791 0.0335022 0)
(0.992156 0.0558921 0)
(0.994936 0.0266819 0)
(0.995276 0.0498622 0)
(0.998979 0.0623266 0)
(0.999815 0.031656 0)
(1.00164 0.0507302 0)
(1.00485 0.0860132 0)
(1.00588 0.0503285 0)
(1.00741 0.0381792 0)
(1.01105 0.0760515 0)
(1.01407 0.122627 0)
(1.0154 0.123867 0)
(1.01451 0.0412393 0)
(1.10062 0.0617024 0)
(1.10757 0.0475067 0)
(1.10801 0.0319729 0)
(1.1023 0.016796 0)
(1.09288 0.00285642 0)
(1.08132 -0.00920756 0)
(1.06799 -0.0186235 0)
(1.05425 -0.024962 0)
(1.03992 -0.0275595 0)
(1.02613 -0.026818 0)
(1.01415 -0.0229532 0)
(1.00399 -0.0179322 0)
(0.995859 -0.0111901 0)
(0.990646 -0.00573084 0)
(0.985931 0.00285378 0)
(0.983795 0.00472961 0)
(0.982092 0.0150746 0)
(0.983121 0.0102894 0)
(0.981832 0.0281274 0)
(0.984629 0.0122865 0)
(0.983603 0.0408586 0)
(0.987617 0.0148107 0)
(0.986607 0.0453967 0)
(0.990671 0.0294591 0)
(0.990844 0.0325139 0)
(0.993446 0.0550396 0)
(0.995834 0.0257863 0)
(0.996278 0.0489597 0)
(1.00034 0.0615924 0)
(1.00071 0.0309376 0)
(1.00282 0.0498038 0)
(1.00661 0.0853323 0)
(1.00734 0.0498256 0)
(1.00874 0.0373701 0)
(1.01298 0.0749873 0)
(1.01659 0.121862 0)
(1.01808 0.123908 0)
(1.01721 0.0414613 0)
(1.08081 0.0591878 0)
(1.08635 0.0483424 0)
(1.08719 0.0365167 0)
(1.08332 0.024779 0)
(1.07657 0.013695 0)
(1.06821 0.00379333 0)
(1.05837 -0.00432898 0)
(1.04818 -0.0104638 0)
(1.03706 -0.0141727 0)
(1.02595 -0.0156884 0)
(1.01591 -0.0146825 0)
(1.00697 -0.0125587 0)
(0.999645 -0.00832858 0)
(0.994919 -0.00494894 0)
(0.990605 0.00197488 0)
(0.988781 0.00319777 0)
(0.986875 0.013592 0)
(0.987316 0.0089021 0)
(0.985324 0.0270397 0)
(0.987406 0.0112542 0)
(0.985973 0.0399731 0)
(0.989518 0.0138631 0)
(0.988291 0.0444176 0)
(0.99215 0.0285822 0)
(0.992049 0.0314015 0)
(0.994797 0.0541697 0)
(0.996896 0.0248425 0)
(0.997386 0.0478876 0)
(1.00176 0.0608387 0)
(1.00178 0.0301471 0)
(1.00412 0.0486357 0)
(1.00842 0.0845455 0)
(1.00896 0.0493306 0)
(1.01028 0.0363948 0)
(1.0151 0.0735995 0)
(1.01927 0.120873 0)
(1.02099 0.123926 0)
(1.02019 0.041706 0)
(1.06417 0.0572524 0)
(1.06855 0.0489648 0)
(1.06954 0.039935 0)
(1.06694 0.0308648 0)
(1.06222 0.0221456 0)
(1.05633 0.0141307 0)
(1.04916 0.00728839 0)
(1.04182 0.0017489 0)
(1.03369 -0.00199891 0)
(1.02546 -0.00408696 0)
(1.01793 -0.00411331 0)
(1.01059 -0.00314012 0)
(1.00405 -9.00781e-05 0)
(0.999588 0.00200439 0)
(0.994715 0.00785757 0)
(0.99198 0.00771967 0)
(0.989579 0.0167482 0)
(0.989787 0.0107258 0)
(0.987625 0.0279967 0)
(0.989485 0.0113675 0)
(0.987972 0.0397242 0)
(0.991303 0.0132489 0)
(0.989955 0.0435578 0)
(0.993686 0.0278432 0)
(0.993367 0.0302375 0)
(0.996208 0.0533278 0)
(0.998119 0.0238901 0)
(0.9986 0.0466722 0)
(1.00326 0.0600557 0)
(1.00303 0.0292875 0)
(1.00554 0.0472593 0)
(1.01031 0.0836415 0)
(1.01076 0.0488031 0)
(1.01203 0.0352543 0)
(1.0174 0.0719221 0)
(1.02212 0.119643 0)
(1.02412 0.123893 0)
(1.02348 0.0419934 0)
(1.05012 0.0554928 0)
(1.05358 0.0490996 0)
(1.0546 0.0421672 0)
(1.05293 0.0351444 0)
(1.04969 0.0282647 0)
(1.04559 0.0217727 0)
(1.04041 0.0160325 0)
(1.03524 0.0111661 0)
(1.02929 0.00752729 0)
(1.02301 0.00491645 0)
(1.0172 0.00376676 0)
(1.01126 0.00315305 0)
(1.00573 0.00459366 0)
(1.0021 0.00496355 0)
(0.997778 0.00946492 0)
(0.995203 0.00843523 0)
(0.992833 0.0171238 0)
(0.992918 0.0106079 0)
(0.990475 0.0277924 0)
(0.991946 0.0107695 0)
(0.990194 0.0390788 0)
(0.993254 0.0123807 0)
(0.991716 0.0424311 0)
(0.995314 0.0269683 0)
(0.994804 0.0287889 0)
(0.997679 0.0522873 0)
(0.999484 0.0227291 0)
(0.999919 0.0451043 0)
(1.00482 0.0590678 0)
(1.00446 0.0282106 0)
(1.0071 0.0455034 0)
(1.01227 0.0824593 0)
(1.01274 0.0481256 0)
(1.01401 0.0338226 0)
(1.0199 0.0698009 0)
(1.02513 0.118106 0)
(1.02755 0.123673 0)
(1.02713 0.0421422 0)
(1.03801 0.0543988 0)
(1.04076 0.0494375 0)
(1.04179 0.044096 0)
(1.04078 0.0386248 0)
(1.03866 0.0331652 0)
(1.03593 0.0279107 0)
(1.03229 0.0231544 0)
(1.02882 0.0189552 0)
(1.02458 0.0156062 0)
(1.02 0.0129423 0)
(1.01583 0.0114748 0)
(1.01128 0.0103051 0)
(1.00676 0.0110617 0)
(1.00394 0.0105832 0)
(1.0001 0.0141876 0)
(0.997586 0.0121656 0)
(0.995171 0.0200789 0)
(0.995263 0.0125583 0)
(0.992775 0.0292251 0)
(0.994097 0.0114492 0)
(0.992242 0.0395293 0)
(0.995139 0.0124393 0)
(0.993519 0.0421218 0)
(0.996983 0.0268631 0)
(0.99637 0.0279772 0)
(0.999233 0.0518649 0)
(1.00098 0.0221689 0)
(1.0014 0.0439457 0)
(1.00648 0.0585619 0)
(1.00605 0.0275828 0)
(1.00883 0.0439432 0)
(1.01435 0.0815353 0)
(1.01491 0.0478293 0)
(1.01621 0.0325369 0)
(1.02269 0.0675751 0)
(1.0284 0.11645 0)
(1.03117 0.123781 0)
(1.0312 0.042698 0)
(1.0277 0.0522852 0)
(1.02991 0.0484002 0)
(1.03091 0.0442531 0)
(1.03037 0.0399553 0)
(1.02908 0.0355907 0)
(1.02736 0.0313075 0)
(1.02485 0.0273313 0)
(1.02261 0.0236761 0)
(1.01971 0.020613 0)
(1.01651 0.0179497 0)
(1.01367 0.0162177 0)
(1.01029 0.0144891 0)
(1.00671 0.014574 0)
(1.00467 0.0132473 0)
(1.00147 0.0160293 0)
(0.999289 0.0131224 0)
(0.997116 0.0205072 0)
(0.99735 0.0122453 0)
(0.994938 0.0285648 0)
(0.996137 0.0101843 0)
(0.99419 0.0380043 0)
(0.996988 0.0107013 0)
(0.9952 0.0398311 0)
(0.998667 0.0250145 0)
(0.997888 0.0252503 0)
(1.00078 0.0496189 0)
(1.00257 0.0198378 0)
(1.00282 0.0409451 0)
(1.00821 0.0563199 0)
(1.00779 0.0252723 0)
(1.01053 0.0407326 0)
(1.01649 0.0789497 0)
(1.01734 0.0459895 0)
(1.01852 0.0298796 0)
(1.02549 0.0638938 0)
(1.03186 0.113354 0)
(1.03546 0.122197 0)
(1.03574 0.0421689 0)
(1.01846 0.0524369 0)
(1.02032 0.0493652 0)
(1.02131 0.0461192 0)
(1.02112 0.042718 0)
(1.02044 0.0392062 0)
(1.01942 0.0357167 0)
(1.01774 0.0324384 0)
(1.01645 0.0293553 0)
(1.01457 0.0267038 0)
(1.01242 0.0242381 0)
(1.01065 0.0225181 0)
(1.0083 0.0205984 0)
(1.00563 0.0204051 0)
(1.00443 0.0186191 0)
(1.0019 0.0209784 0)
(1.00021 0.017425 0)
(0.998318 0.0245061 0)
(0.998844 0.0154823 0)
(0.996585 0.0316684 0)
(0.997881 0.0124604 0)
(0.995987 0.0402976 0)
(0.998718 0.012419 0)
(0.997063 0.0412364 0)
(1.00033 0.0265957 0)
(0.99969 0.025898 0)
(1.00248 0.0507963 0)
(1.00427 0.020744 0)
(1.00471 0.0410011 0)
(1.01004 0.0573183 0)
(1.00974 0.0259499 0)
(1.01278 0.0400917 0)
(1.01882 0.0793024 0)
(1.01991 0.0470648 0)
(1.02131 0.0293555 0)
(1.02899 0.0621776 0)
(1.03565 0.112464 0)
(1.03969 0.123631 0)
(1.04101 0.0436461 0)
(1.01061 0.0479992 0)
(1.0122 0.0454787 0)
(1.01319 0.0428402 0)
(1.01326 0.0400432 0)
(1.0131 0.0371216 0)
(1.01269 0.0341976 0)
(1.01169 0.0314316 0)
(1.01116 0.0287712 0)
(1.01006 0.0264288 0)
(1.00875 0.0241403 0)
(1.00786 0.022469 0)
(1.00636 0.0204385 0)
(1.00447 0.0200342 0)
(1.00398 0.0178866 0)
(1.0021 0.0198579 0)
(1.00085 0.0157684 0)
(0.999373 0.0224423 0)
(1.00014 0.0128381 0)
(0.998134 0.0286213 0)
(0.999444 0.0089724 0)
(0.997548 0.0363356 0)
(1.00034 0.00847949 0)
(0.99846 0.0364463 0)
(1.00196 0.0223808 0)
(1.00109 0.020724 0)
(1.00399 0.045809 0)
(1.006 0.015999 0)
(1.00602 0.0351944 0)
(1.01193 0.0521147 0)
(1.01169 0.0211045 0)
(1.01439 0.0338951 0)
(1.02111 0.0733151 0)
(1.0228 0.0424326 0)
(1.02369 0.0239549 0)
(1.03187 0.0548722 0)
(1.03949 0.105426 0)
(1.04503 0.118231 0)
(1.04654 0.0411931 0)
(1.00269 0.0505906 0)
(1.00416 0.0485475 0)
(1.00518 0.0464386 0)
(1.00549 0.0441793 0)
(1.00574 0.0417862 0)
(1.00579 0.0393684 0)
(1.00531 0.0370653 0)
(1.00536 0.0348056 0)
(1.00488 0.0327987 0)
(1.00424 0.0307543 0)
(1.00405 0.0292492 0)
(1.00327 0.0272456 0)
(1.00208 0.0268481 0)
(1.00231 0.0245042 0)
(1.00107 0.0263667 0)
(1.00041 0.0218025 0)
(0.999294 0.0285235 0)
(1.00052 0.0182694 0)
(0.998803 0.0343943 0)
(1.00047 0.0137809 0)
(0.998813 0.0415574 0)