/*--------------------------------*- C++ -*----------------------------------*\
| =========                 |                                                 |
| \\      /  F ield         | OpenFOAM: The Open Source CFD Toolbox           |
|  \\    /   O peration     | Version:  2312                                  |
|   \\  /    A nd           | Website:  www.openfoam.com                      |
|    \\/     M anipulation  |                                                 |
\*---------------------------------------------------------------------------*/
FoamFile
{
    version     2.0;
    format      ascii;
    arch        "LSB;label=32;scalar=64";
    class       surfaceScalarField;
    location    "162.1";
    object      phi;
}
// * * * * * * * * * * * * * * * * * * * * * * * * * * * * * * * * * * * * * //

dimensions      [0 3 -1 0 0 0 0];

oriented        oriented;

internalField   nonuniform List<scalar> 
10785
(
0.000945329
0.00294948
-0.0038948
0.00416009
0.00203141
-0.00524616
0.0113828
-0.0060466
-0.00117608
0.0249568
-0.0221077
0.00853369
0.0459217
-0.0453403
0.0243753
0.0724778
-0.0723173
0.0457612
0.100865
-0.0987319
0.0703449
0.127136
-0.12129
0.0950194
0.148525
-0.138309
0.11692
0.164221
-0.149885
0.134189
0.174659
-0.156997
0.146559
0.18204
-0.161284
0.153903
0.188338
-0.164716
0.158417
0.194141
-0.166817
0.161015
-0.170022
0.161805
0.202358
0.000794926
0.00215455
0.00532154
-0.00249521
0.0165751
-0.0173001
0.0364659
-0.0419985
0.0628527
-0.071727
0.0907325
-0.100197
0.115334
-0.123334
0.133882
-0.139838
0.146154
-0.150582
0.153707
-0.157438
0.159068
-0.162358
0.16465
-0.166866
0.171319
-0.171384
0.180514
-0.176013
-0.181999
0.192491
0.00113659
0.00101796
0.00821175
-0.00957037
0.0248757
-0.0339641
0.0496093
-0.0667321
0.0761516
-0.0982693
0.0987937
-0.122839
0.1149
-0.13944
0.12498
-0.149917
0.131304
-0.156906
0.136396
-0.16253
0.141954
-0.167916
0.148425
-0.173338
0.155803
-0.178762
0.164192
-0.184401
-0.189978
0.17217
0.00207258
-0.00105463
0.0130029
-0.0205007
0.0342926
-0.0552538
0.059095
-0.0915346
0.0802835
-0.119458
0.0949952
-0.137551
0.104121
-0.148566
0.110088
-0.155884
0.114998
-0.161816
0.119867
-0.167398
0.124843
-0.172892
0.129959
-0.178454
0.135418
-0.184221
0.141342
-0.190325
-0.196977
0.148341
0.00354585
-0.00460047
0.0185607
-0.0355155
0.0409629
-0.077656
0.0613741
-0.111946
0.0756874
-0.133771
0.084512
-0.146376
0.0900995
-0.154154
0.0942605
-0.160045
0.0978639
-0.165419
0.101246
-0.170781
0.104732
-0.176378
0.108624
-0.182346
0.113089
-0.188686
0.118314
-0.19555
-0.202666
0.124003
0.00548581
-0.0100863
0.0230143
-0.0530439
0.0427404
-0.0973821
0.057432
-0.126637
0.0663992
-0.142738
0.0715713
-0.151548
0.0748248
-0.157407
0.0772727
-0.162493
0.0795025
-0.167649
0.0818726
-0.173151
0.0845293
-0.179035
0.0874655
-0.185282
0.090672
-0.191892
0.093975
-0.198853
-0.205996
0.0973043
0.00747346
-0.0175597
0.0248693
-0.0704398
0.0402362
-0.112749
0.0498776
-0.136279
0.0549344
-0.147795
0.0574812
-0.154094
0.0589777
-0.158904
0.0601612
-0.163677
0.0613061
-0.168794
0.0624515
-0.174296
0.0636131
-0.180196
0.0648679
-0.186537
0.0662905
-0.193315
0.0679522
-0.200515
-0.208018
0.0699744
0.00885049
-0.0264102
0.023923
-0.0855123
0.0348942
-0.12372
0.0404666
-0.141851
0.0426357
-0.149964
0.0432595
-0.154718
0.0433181
-0.158962
0.0431454
-0.163504
0.0428372
-0.168486
0.0424769
-0.173936
0.0421606
-0.17988
0.0419458
-0.186322
0.0418654
-0.193235
0.0419079
-0.200557
0.0420963
-0.208206
-0.00246107
-0.00115974
0.00362082
-0.00755663
-0.00770177
0.0127973
-0.0143959
-0.0130613
0.0199006
-0.0224345
-0.017709
0.0257477
-0.0313147
-0.0233296
0.0322098
-0.0406938
-0.0305906
0.0399697
-0.0500573
-0.0394081
0.0487716
-0.0586575
-0.0494558
0.058056
-0.0655341
-0.0601551
0.0670317
-0.0695674
-0.0706151
0.0746484
-0.0696175
-0.0796008
0.0796509
-0.0646933
-0.0855292
0.080605
-0.0542573
-0.0865656
0.0761296
-0.0379477
-0.0810718
0.0647622
-0.0686481
-0.0163204
0.0470209
-0.00289539
0.00173564
-0.00864276
-0.0019544
-0.0160312
-0.00567292
-0.0246176
-0.00912264
-0.0342611
-0.0136861
-0.0448187
-0.020033
-0.0559821
-0.0282447
-0.0672626
-0.0381753
-0.0780014
-0.0494163
-0.0873659
-0.0612506
-0.0943316
-0.0726351
-0.0977257
-0.0821351
-0.0964405
-0.0878508
-0.0896314
-0.0878809
-0.0830009
-0.0752786
-0.00260443
0.00434008
-0.00784938
0.00329054
-0.0144142
0.000891896
-0.021895
-0.00164186
-0.0301138
-0.00546727
-0.0389298
-0.011217
-0.048052
-0.0191224
-0.0571296
-0.0290977
-0.0658375
-0.0407084
-0.0739191
-0.053169
-0.0811785
-0.0653756
-0.0868634
-0.0764503
-0.0894591
-0.085255
-0.0897673
-0.0875728
-0.0902018
-0.0825664
-0.00172389
0.00606397
-0.0056173
0.00718395
-0.010528
0.00580255
-0.0157348
0.00356502
-0.0209577
-0.000244433
-0.0259621
-0.00621262
-0.0301835
-0.014901
-0.033089
-0.0261923
-0.0343331
-0.0394642
-0.0338372
-0.0536649
-0.031892
-0.0673209
-0.0291604
-0.0791819
-0.0258178
-0.0885976
-0.0218088
-0.0915817
-0.095548
-0.0164626
-0.00059442
0.00665839
-0.00261622
0.00920575
-0.00509899
0.00828533
-0.00725506
0.00572108
-0.0085237
0.00102421
-0.00827547
-0.00646085
-0.00581251
-0.0173639
-0.000502795
-0.031502
0.00798881
-0.0479559
0.0195147
-0.0651908
0.0330602
-0.0808664
0.0487739
-0.0948956
0.0649971
-0.104821
0.0819212
-0.108506
-0.115184
0.101557
0.000454159
0.00620423
0.000393475
0.00926644
0.000483388
0.00819541
0.00173984
0.00446463
0.00508063
-0.00231658
0.011497
-0.0128772
0.0217431
-0.02761
0.0360615
-0.0458204
0.0541282
-0.0660225
0.0748854
-0.085948
0.0974328
-0.103414
0.120382
-0.117845
0.143179
-0.127618
0.166701
-0.132029
-0.138926
0.190444
0.0011028
0.00510143
0.00262504
0.0077442
0.00512731
0.00569314
0.0097205
-0.000128559
0.0179397
-0.0105358
0.0308797
-0.0258172
0.0488872
-0.0456175
0.071176
-0.0681093
0.0960812
-0.0909277
0.121402
-0.111268
0.145917
-0.127929
0.167982
-0.13991
0.187481
-0.147116
0.20696
-0.151507
-0.153189
0.221223
0.00120663
0.00370466
0.00822172
0.0166269
0.0304664
0.0504104
0.0751377
0.102048
0.12804
0.150961
0.16959
0.183583
0.194884
0.204392
0.213007
0.0447799
-0.0681169
0.00701668
0.100143
0.110046
-0.165409
0.153796
0.257871
-0.311525
0.177124
0.317681
-0.341008
0.149472
0.382202
-0.354551
0.138885
0.40135
-0.390762
0.176528
0.168395
-0.206038
0.225527
-0.088444
0.0394449
0.256823
-0.284113
0.252817
0.262972
-0.298232
0.292083
0.242846
-0.315276
0.335403
0.231505
-0.408201
0.419541
0.23971
-0.29514
0.286936
0.263056
-0.19551
0.172164
0.273903
0.106905
-0.117753
0.283431
0.312997
-0.322525
0.294938
0.433579
-0.445085
0.295366
0.530614
-0.531042
0.291588
0.179236
-0.175458
0.303609
-0.0807354
0.0687147
0.307028
-0.460052
0.456634
0.308934
-0.698303
0.696397
0.303932
-0.195125
0.200127
0.313706
0.123737
-0.133511
0.330588
0.598284
-0.615166
0.334541
0.82261
-0.826562
0.305574
-0.249776
0.278743
0.301204
-0.961565
0.965935
0.29682
-0.0391096
0.043494
0.285639
0.576082
-0.564901
0.276594
0.120237
-0.111191
0.272976
-0.197941
0.201558
0.270279
-0.0390971
0.041794
0.267642
0.0645476
-0.0619102
0.265237
0.0213926
-0.0189878
0.262995
-0.00320264
0.00544501
0.260691
0.00784316
-0.00553899
0.00961286
-0.00679304
-0.019179
-0.124216
0.0668494
0.0240179
0.139601
0.185119
0.158922
0.298359
0.144003
0.397122
0.163494
0.381859
0.208098
0.123791
0.242736
-0.123082
0.259318
-0.300694
0.262698
-0.301613
0.239752
-0.29233
0.229407
-0.397856
0.241338
-0.30707
0.258971
-0.213143
0.27257
0.0933056
0.283771
0.301796
0.295868
0.421482
0.298501
0.527981
0.291797
0.18594
0.301087
-0.0900255
0.297826
-0.456792
0.297851
-0.698328
0.29884
-0.196115
0.310345
0.112233
0.334473
0.574156
0.340476
0.816606
0.302453
-0.211753
0.291948
-0.95106
0.294243
-0.0414048
0.28853
0.581795
0.2784
0.130366
0.272821
-0.192362
0.270599
-0.036875
0.268768
0.0663784
0.266529
0.023632
0.264458
-0.00113213
0.262506
0.00979565
0.0121983
-0.05178
-0.155003
0.031491
-0.0592531
0.106771
0.10984
0.134085
0.271045
0.14755
0.383657
0.192694
0.336714
0.238025
0.0784611
0.25775
-0.142808
0.257439
-0.300383
0.25817
-0.302344
0.231989
-0.266149
0.21892
-0.384787
0.238682
-0.326832
0.253612
-0.228072
0.269742
0.0771748
0.282657
0.288881
0.295412
0.408726
0.29976
0.523633
0.290141
0.19556
0.294847
-0.0947321
0.284143
-0.446088
0.282003
-0.696187
0.290335
-0.204447
0.303179
0.099388
0.33315
0.544186
0.341352
0.808403
0.298001
-0.168401
0.279697
-0.932757
0.289293
-0.051001
0.289043
0.582045
0.278247
0.141163
0.270784
-0.184899
0.269183
-0.0352742
0.268309
0.0672526
0.26641
0.0255306
0.264698
0.000579837
0.263305
0.0111891
0.014319
-0.0323575
-0.139108
0.0102164
-0.101827
0.0827984
0.0372577
0.128339
0.225505
0.16709
0.344906
0.222574
0.28123
0.2618
0.0392351
0.271239
-0.152247
0.255324
-0.284468
0.254593
-0.301614
0.229114
-0.240671
0.205686
-0.361359
0.230067
-0.351213
0.248729
-0.246734
0.265834
0.0600702
0.275901
0.278814
0.287569
0.397059
0.294885
0.516317
0.284877
0.205568
0.284828
-0.0946828
0.267466
-0.428726
0.263274
-0.691995
0.278664
-0.219837
0.292028
0.0860244
0.325935
0.510279
0.336676
0.797662
0.289275
-0.121001
0.26561
-0.909091
0.281531
-0.066922
0.286589
0.576987
0.275783
0.151969
0.266922
-0.176038
0.26611
-0.0344628
0.266301
0.0670622
0.264914
0.0269168
0.263735
0.00175953
0.263087
0.011837
0.0157579
0.0572209
-0.0947718
0.041348
-0.0859542
0.088409
-0.0098033
0.150347
0.163567
0.204595
0.290659
0.254392
0.231432
0.28225
0.0113774
0.2804
-0.150396
0.250561
-0.254629
0.244084
-0.295137
0.225468
-0.222055
0.192003
-0.327894
0.212003
-0.371213
0.237708
-0.27244
0.26004
0.0377389
0.269783
0.269071
0.280299
0.386543
0.288901
0.507714
0.277634
0.216835
0.27229
-0.0893392
0.248542
-0.404978
0.241921
-0.685374
0.263557
-0.241473
0.278582
0.0709995
0.315927
0.472933
0.328786
0.784803
0.2778
-0.0700146
0.25042
-0.881711
0.271926
-0.0884277
0.282156
0.566758
0.271462
0.162662
0.261556
-0.166132
0.261607
-0.0345131
0.262882
0.065787
0.262143
0.0276551
0.261652
0.00225078
0.261901
0.0115877
0.0163208
0.160583
-0.0649107
0.125796
-0.0511676
0.13236
-0.0163675
0.178125
0.117802
0.23674
0.232044
0.28058
0.187592
0.293864
-0.00190656
0.28083
-0.137362
0.242458
-0.216258
0.227268
-0.279946
0.216723
-0.211509
0.178741
-0.289912
0.185901
-0.378373
0.219265
-0.305803
0.249239
0.00776434
0.258526
0.259784
0.266719
0.37835
0.276842
0.497591
0.267684
0.225993
0.258324
-0.0799787
0.229033
-0.375687
0.219874
-0.676215
0.24532
-0.266919
0.26212
0.0541991
0.30122
0.433834
0.316031
0.769992
0.264839
-0.0188225
0.235166
-0.852038
0.259997
-0.113259
0.274924
0.551831
0.265075
0.172511
0.254871
-0.155928
0.25585
-0.0354919
0.25821
0.0634268
0.258243
0.0276221
0.258577
0.00191665
0.259843
0.0103224
0.0158433
0.2065
-0.0501882
0.192674
-0.0373412
0.192588
-0.0162813
0.221929
0.0884606
0.271662
0.182311
0.305596
0.153658
0.298268
0.00542148
0.273654
-0.112749
0.232025
-0.174629
0.208904
-0.256826
0.20209
-0.204695
0.166472
-0.254294
0.157271
-0.369172
0.192497
-0.341029
0.235845
-0.0355834
0.249461
0.246168
0.257107
0.370704
0.266651
0.488047
0.256812
0.235832
0.243944
-0.0671104
0.209594
-0.341337
0.197138
-0.663759
0.224792
-0.294572
0.244717
0.0342741
0.287924
0.390626
0.304222
0.753693
0.252282
0.0331179
0.22027
-0.820026
0.247507
-0.140496
0.266691
0.532647
0.257461
0.181741
0.247348
-0.145815
0.249176
-0.0373196
0.252532
0.0600706
0.253418
0.0267363
0.254685
0.000649548
0.257044
0.00796374
0.0141958
0.204473
-0.0416544
0.19806
-0.0309278
0.2021
-0.0203214
0.233073
0.057488
0.282574
0.13281
0.309921
0.126311
0.296239
0.0191033
0.264221
-0.0807305
0.221959
-0.132367
0.193615
-0.228482
0.18587
-0.196951
0.153681
-0.222104
0.131209
-0.3467
0.159943
-0.369763
0.20959
-0.0852304
0.231174
0.224584
0.240556
0.361321
0.249837
0.478765
0.24443
0.24124
0.229422
-0.052103
0.191147
-0.303061
0.173824
-0.646436
0.202399
-0.323147
0.223786
0.0128871
0.268639
0.345773
0.28544
0.736893
0.239464
0.0790942
0.205474
-0.786037
0.233392
-0.168414
0.255752
0.510287
0.248354
0.189139
0.239081
-0.136542
0.241777
-0.0400158
0.246068
0.0557799
0.247888
0.0249166
0.250162
-0.00162508
0.25366
0.0044662
0.0112822
0.410828
-0.0225772
-0.429905
0.392425
-0.0125255
0.379481
-0.00737671
0.391342
0.0456268
0.445051
0.0791011
0.500702
0.0706597
0.514771
0.00503456
0.503315
-0.0692741
0.481358
-0.110411
0.445876
-0.192999
0.425046
-0.17612
0.400221
-0.197279
0.364655
-0.311134
0.335382
-0.34049
0.319998
-0.069847
0.283298
0.261285
0.274197
0.370422
0.321167
0.431796
0.388617
0.173789
0.429611
-0.0930963
0.415723
-0.289174
0.363559
-0.594273
0.339853
-0.299441
0.320726
0.032014
0.3485
0.317999
0.405016
0.680377
0.421366
0.0627441
0.364814
-0.729485
0.345982
-0.149582
0.368244
0.488026
0.380013
0.17737
0.369768
-0.126297
0.366072
-0.0363204
0.368117
0.0537346
0.368394
0.0246404
0.368553
-0.00178404
0.370075
0.00294418
0.0105339
0.454423
-0.00933664
-0.467663
0.443173
-0.00127613
0.437579
-0.00178203
0.454241
0.0289645
0.490485
0.0428575
0.524682
0.0364627
0.53471
-0.00499355
0.52149
-0.0560541
0.50169
-0.0906104
0.469089
-0.160398
0.437411
-0.144442
0.415556
-0.175425
0.381374
-0.276952
0.344879
-0.303995
0.30941
-0.0343781
0.274381
0.296314
0.287137
0.357665
0.362386
0.356547
0.438349
0.0978261
0.471557
-0.126304
0.437295
-0.254911
0.376032
-0.53301
0.340572
-0.263981
0.315799
0.0567876
0.356818
0.27698
0.437372
0.599823
0.455991
0.0441252
0.388334
-0.661828
0.362714
-0.123962
0.390515
0.460225
0.407165
0.160719
0.39664
-0.115772
0.392166
-0.0318461
0.394296
0.0516049
0.394836
0.0241007
0.395124
-0.00207259
0.396887
0.00118154
0.00925625
0.501819
-0.00113413
-0.510022
0.496361
0.00418182
0.492613
0.00196589
0.504642
0.0169363
0.528229
0.01927
0.547907
0.0167847
0.556911
-0.0139976
0.550716
-0.0498592
0.533515
-0.0734096
0.507215
-0.134099
0.486983
-0.12421
0.467266
-0.155708
0.408968
-0.218655
0.337357
-0.232384
0.292052
0.0109269
0.275611
0.312755
0.32805
0.305227
0.425163
0.259433
0.493462
0.0295272
0.516481
-0.149324
0.475425
-0.213855
0.393116
-0.450701
0.334602
-0.205468
0.301963
0.0894267
0.36358
0.215363
0.479056
0.484347
0.498444
0.0247377
0.412851
-0.576235
0.380521
-0.0916325
0.415408
0.425338
0.436996
0.139131
0.425297
-0.104073
0.419652
-0.0262008
0.421916
0.0493404
0.422657
0.02336
0.422872
-0.00228761
0.424674
-0.00062012
0.00747433
0.548867
0.00406666
-0.554067
0.546464
0.00658458
0.546573
0.00185712
0.553058
0.0104515
0.567525
0.00480232
0.58067
0.00364036
0.583968
-0.0172961
0.57718
-0.0430708
0.564255
-0.0604844
0.535748
-0.105592
0.507959
-0.096421
0.485261
-0.13301
0.432903
-0.166297
0.347764
-0.147244
0.30297
0.0557203
0.333572
0.282153
0.419812
0.218988
0.51353
0.165715
0.557175
-0.0141179
0.556757
-0.148905
0.51185
-0.168948
0.408012
-0.346863
0.323515
-0.120971
0.295717
0.117224
0.375024
0.136057
0.515734
0.343637
0.539697
0.000774656
0.432588
-0.469127
0.388205
-0.0472495
0.440634
0.372909
0.471158
0.108608
0.456309
-0.0892248
0.448083
-0.0179751
0.451209
0.0462148
0.452852
0.0217175
0.453079
-0.00251477
0.454684
-0.00222501
0.00534309
0.598395
0.00604021
-0.600368
0.598045
0.00693408
0.598495
0.00140753
0.603071
0.00587568
0.610586
-0.00271338
0.617218
-0.00299171
0.619751
-0.0198286
0.613785
-0.0371049
0.602156
-0.0488553
0.583171
-0.0866063
0.560611
-0.0738615
0.524758
-0.0971562
0.472643
-0.114182
0.408392
-0.0829927
0.390418
0.0736943
0.457472
0.215098
0.538657
0.137803
0.602833
0.101539
0.618244
-0.0295283
0.602066
-0.132727
0.563172
-0.130055
0.452558
-0.236249
0.363515
-0.0319274
0.341532
0.139207
0.411244
0.0663452
0.559278
0.195603
0.585936
-0.0258833
0.456757
-0.339948
0.405235
0.00427225
0.481284
0.296861
0.517611
0.0722808
0.494904
-0.066518
0.48299
-0.00606075
0.487951
0.041253
0.490863
0.018806
0.490614
-0.0022664
0.491229
-0.0028397
0.00348746
0.650495
0.00649379
-0.650948
0.651104
0.00632508
0.65161
0.000901089
0.654472
0.0030142
0.657815
-0.00605629
0.661078
-0.00625525
0.660645
-0.0193953
0.654152
-0.0306117
0.644125
-0.0388291
0.621005
-0.0634862
0.603612
-0.0564683
0.578498
-0.072042
0.539381
-0.0750649
0.498281
-0.0418933
0.506932
0.0650433
0.583395
0.138636
0.638408
0.0827895
0.67248
0.067467
0.665883
-0.0229311
0.634268
-0.101112
0.601441
-0.0972281
0.514344
-0.149152
0.456674
0.0257428
0.461006
0.134874
0.49542
0.0319312
0.610908
0.0801155
0.633938
-0.0489136
0.497935
-0.203945
0.451827
0.0503805
0.544049
0.204639
0.577478
0.0388521
0.547359
-0.0363994
0.534002
0.0072964
0.541027
0.0342284
0.544386
0.0154461
0.542861
-0.000741234
0.54158
-0.00155891
0.00287455
0.705834
0.0061176
-0.705458
0.706757
0.00540181
0.707036
0.000622428
0.708755
0.00129474
0.70947
-0.00677063
0.710045
-0.00683054
0.708147
-0.0174979
0.70127
-0.0237346
0.693904
-0.0314625
0.675838
-0.0454207
0.662295
-0.0429252
0.63901
-0.0487563
0.608575
-0.0446301
0.590643
-0.0239614
0.611275
0.0444109
0.667972
0.0819391
0.69843
0.052331
0.722946
0.0429515
0.718657
-0.0186422
0.682827
-0.0652819
0.652648
-0.0670499
0.59141
-0.087913
0.575439
0.0417131
0.612409
0.0979044
0.619335
0.0250058
0.675009
0.0244413
0.687726
-0.0616304
0.577294
-0.0935131
0.545192
0.0824826
0.628371
0.12146
0.651503
0.0157192
0.620706
-0.00560201
0.609185
0.0188172
0.616239
0.0271746
0.618404
0.0132815
0.615241
0.00242135
0.611884
0.00179771
0.00418585
0.765254
0.00544682
-0.764583
0.766195
0.00446106
0.76622
0.000596782
0.766932
0.000583137
0.766358
-0.00619705
0.765411
-0.00588325
0.763015
-0.0151016
0.756382
-0.0171016
0.749817
-0.0248977
0.734763
-0.0303666
0.723013
-0.0311753
0.707211
-0.0329547
0.689136
-0.0265548
0.680022
-0.0148474
0.696662
0.0277708
0.734743
0.043858
0.753006
0.0340678
0.767826
0.028132
0.762646
-0.0134627
0.737111
-0.0397471
0.716817
-0.0467557
0.678717
-0.0498124
0.685008
0.0354213
0.723535
0.0593783
0.721997
0.0265437
0.738704
0.00773385
0.737206
-0.0601326
0.669499
-0.0258061
0.662023
0.0899591
0.719853
0.0636293
0.727625
0.00794772
0.704145
0.017878
0.698539
0.0244232
0.704142
0.0215716
0.704477
0.0129459
0.700728
0.0061712
0.696893
0.00563186
0.00661224
0.829636
0.00472471
-0.828914
0.830346
0.00375186
0.830218
0.000723991
0.830314
0.000487218
0.829081
-0.00496411
0.827564
-0.00436552
0.824379
-0.0119167
0.818911
-0.0116336
0.812859
-0.0188459
0.80225
-0.0197574
0.793426
-0.0223519
0.782071
-0.0215996
0.771074
-0.0155577
0.766343
-0.0101158
0.778163
0.0159506
0.799627
0.0223941
0.812105
0.0215897
0.824854
0.0153826
0.820593
-0.00920115
0.803063
-0.0222174
0.785847
-0.02954
0.762987
-0.0269522
0.775034
0.0233739
0.802151
0.0322615
0.805533
0.0231621
0.806369
0.0068982
0.790126
-0.0438897
0.759918
0.00440136
0.775797
0.0740804
0.806278
0.0331484
0.80149
0.012735
0.78956
0.0298089
0.790457
0.0235259
0.793977
0.018051
0.792871
0.0140526
0.789658
0.00938344
0.786785
0.0085057
0.00891467
0.899678
0.00408421
-0.899038
0.900207
0.00322274
0.899964
0.000967055
0.899783
0.000668027
0.898266
-0.00344658
0.89671
-0.0028093
0.893487
-0.00869434
0.889347
-0.00749304
0.884033
-0.0135325
0.876746
-0.0124695
0.869666
-0.0152726
0.861826
-0.0137597
0.855907
-0.00963821
0.85278
-0.00698938
0.860291
0.00843967
0.872768
0.00991751
0.881092
0.0132655
0.888844
0.00763097
0.88486
-0.00521775
0.87483
-0.0121865
0.863448
-0.0181584
0.850332
-0.0138364
0.859629
0.0140766
0.873556
0.018335
0.877816
0.0189024
0.877505
0.00720883
0.860896
-0.0272807
0.851746
0.013551
0.871011
0.0548154
0.882305
0.0218545
0.876803
0.0182376
0.875391
0.03122
0.878244
0.0206738
0.87956
0.0167342
0.878496
0.0151169
0.876515
0.0113649
0.874889
0.0101316
0.0104695
0.976424
0.00354441
-0.975885
0.976778
0.00286888
0.976474
0.00127091
0.976191
0.000951021
0.974694
-0.00194919
0.973422
-0.00153723
0.970412
-0.00568395
0.967499
-0.00458029
0.962952
-0.00898568
0.958065
-0.00758253
0.952846
-0.0100534
0.947606
-0.00851939
0.944181
-0.00621332
0.941976
-0.00478457
0.946578
0.00383779
0.952734
0.00376118
0.95839
0.00760978
0.963085
0.00293621
0.960552
-0.00268479
0.95492
-0.006555
0.946755
-0.00999357
0.939167
-0.00624801
0.944737
0.00850618
0.951931
0.0111414
0.957476
0.0133573
0.956775
0.00791005
0.941824
-0.01233
0.940957
0.0144183
0.957586
0.0381864
0.961074
0.0183664
0.958475
0.0208369
0.961339
0.0283557
0.963554
0.0184591
0.964185
0.0161024
0.963942
0.0153601
0.962876
0.0124308
0.962055
0.0109524
0.0112735
1.06065
0.00314703
-1.06025
1.06088
0.00264234
1.06058
0.00156231
1.0603
0.00123905
1.05902
-0.000675276
1.05801
-0.000526638
1.05554
-0.00321164
1.05349
-0.00253157
1.04993
-0.00542508
1.04678
-0.00443223
1.04291
-0.00617888
1.03948
-0.00509227
1.03725
-0.00398769
1.03567
-0.00319803
1.03809
0.00141689
1.04098
0.000868692
1.04464
0.00394865
1.04663
0.000942919
1.04521
-0.00125719
1.04178
-0.00312819
1.03673
-0.00494697
1.03275
-0.00226005
1.03575
0.0055021
1.03921
0.00768088
1.04253
0.0100327
1.0428
0.00763985
1.03356
-0.00308178
1.03486
0.0131149
1.04605
0.0269963
1.04708
0.0173355
1.04762
0.0202947
1.05159
0.0243876
1.05277
0.0172817
1.05332
0.0155474
1.05377
0.0149093
1.05331
0.0128931
1.0529
0.0113652
0.011649
1.15315
0.00282309
-1.15283
1.15331
0.00248318
1.1531
0.00177442
1.15285
0.0014871
1.15189
0.000289239
1.15112
0.000235472
1.14927
-0.00136138
1.14787
-0.00112263
1.14525
-0.00281042
1.14318
-0.00236373
1.1404
-0.0033946
1.13821
-0.00290347
1.13655
-0.00232624
1.13541
-0.00206352
1.13646
0.000373307
1.13742
-9.49135e-05
1.13957
0.00180361
1.14019
0.000320871
1.13956
-0.000628197
1.13749
-0.00106375
1.13457
-0.00202349
1.13219
0.000122537
1.13359
0.00410395
1.13558
0.00569161
1.1378
0.0078132
1.1384
0.007035
1.13264
0.0026808
1.13388
0.0118702
1.14171
0.0191638
1.14292
0.0161311
1.14467
0.0185417
1.14816
0.0208974
1.14901
0.0164345
1.14984
0.0147164
1.15063
0.0141205
1.15057
0.0129549
1.15043
0.0115066
0.0117676
1.2548
0.00254671
-1.25452
1.25493
0.00235379
1.25482
0.00188604
1.25464
0.00166974
1.25397
0.000952109
1.25341
0.000800746
1.25214
-9.01588e-05
1.25116
-0.00014935
1.24934
-0.000989697
1.248
-0.00102248
1.24604
-0.00143648
1.24464
-0.001501
1.24335
-0.00103358
1.24249
-0.00120153
1.24273
0.000131272
1.24284
-0.000208461
1.24393
0.000715065
1.24382
0.000434166
1.24354
-0.000349719
1.2421
0.000374318
1.24056
-0.000488261
1.23926
0.00142298
1.23988
0.00349104
1.241
0.00456494
1.24196
0.00685355
1.24277
0.00622829
1.24015
0.0053021
1.24156
0.0104627
1.24634
0.0143828
1.24767
0.0147984
1.25011
0.0160976
1.25328
0.017733
1.25411
0.015601
1.25504
0.0137838
1.25596
0.0132025
1.25625
0.0126644
1.25639
0.0113737
0.011657
1.36636
0.00229439
-1.36611
1.36649
0.0022219
1.36648
0.00190102
1.36638
0.00176954
1.36599
0.00134644
1.36561
0.00117187
1.36479
0.000732808
1.36415
0.000494124
1.36296
0.000198433
1.36209
-0.000154349
1.36076
-0.000107124
1.35985
-0.000586979
1.35886
-4.43816e-05
1.35819
-0.000535449
1.35805
0.00027901
1.35778
5.48546e-05
1.35817
0.000324953
1.35783
0.000777461
1.35766
-0.000179815
1.35674
0.00129093
1.356
0.000258544
1.35522
0.00219784
1.35548
0.00323585
1.35619
0.00384652
1.35681
0.00623901
1.35771
0.00533107
1.3565
0.00650452
1.35777
0.00919473
1.36105
0.0111012
1.36265
0.0132016
1.36508
0.0136667
1.36775
0.0150644
1.36886
0.0144912
1.36989
0.0127499
1.37084
0.0122528
1.37144
0.0120625
1.37187
0.0109495
0.0113416
1.48873
0.00204368
-1.48848
1.48889
0.00206393
1.48896
0.00183281
1.48895
0.00178256
1.48876
0.00153206
1.48855
0.00138017
1.48808
0.00120758
1.48768
0.000893037
1.48695
0.00093048
1.4864
0.000394245
1.48555
0.000740528
1.48495
1.56556e-05
1.48425
0.000653084
1.48374
-2.81857e-05
1.48345
0.000573746
1.48312
0.000382452
1.48314
0.000301203
1.48279
0.00113059
1.48264
-2.52131e-05
1.48205
0.00188153
1.4817
0.000603886
1.4813
0.00259411
1.48148
0.00306383
1.48197
0.00335226
1.48234
0.00586938
1.48315
0.00451704
1.48301
0.0066504
1.48429
0.00790827
1.48661
0.00878214
1.48811
0.0117016
1.49044
0.0113419
1.49285
0.0126521
1.49423
0.0131109
1.49527
0.0117148
1.49631
0.0112043
1.49722
0.0111582
1.49787
0.0102998
0.0107762
1.62287
0.00179208
-1.62261
1.62306
0.00187207
1.62319
0.00169972
1.62326
0.00171217
1.62323
0.00156267
1.62316
0.0014518
1.62294
0.00142372
1.62273
0.00110536
1.62235
0.00131451
1.62202
0.000721941
1.62154
0.00122252
1.62115
0.000397352
1.62071
0.00109736
1.62035
0.000327133
1.62008
0.000850878
1.6198
0.000657221
1.61967
0.000430128
1.61943
0.0013783
1.61927
0.000134889
1.61897
0.00217824
1.61882
0.000757664
1.61867
0.00273569
1.61886
0.00288264
1.61922
0.00298723
1.61967
0.00542196
1.62041
0.00377791
1.62077
0.0062883
1.62193
0.00674687
1.62377
0.00694282
1.62538
0.0100878
1.62743
0.00929932
1.62958
0.0104973
1.63104
0.0116489
1.63214
0.0106144
1.63343
0.00992225
1.63463
0.00994999
1.63544
0.00949635
0.0100282
1.76978
0.00153443
-1.76953
1.77002
0.00164016
1.7702
0.00151362
1.77035
0.0015649
1.77044
0.00147385
1.77048
0.00140936
1.77046
0.0014417
1.77039
0.00117494
1.77028
0.00142957
1.77011
0.000892667
1.76992
0.00140707
1.76969
0.000633529
1.76949
0.00129683
1.76926
0.000559225
1.76908
0.00102538
1.76892
0.000820519
1.76876
0.000589835
1.76868
0.00145158
1.76851
0.000306407
1.7685
0.00219641
1.76842
0.000830671
1.7685
0.00265524
1.76876
0.00262448
1.76906
0.00269073
1.76963
0.00485217
1.7702
0.00320217
1.77092
0.00556915
1.77206
0.00561174
1.77359
0.00541479
1.77528
0.00839567
1.77705
0.00752818
1.77908
0.00846071
1.78051
0.0102231
1.78157
0.00955719
1.78323
0.00825644
1.78481
0.0083772
1.78569
0.00860863
0.00911103
1.9306
0.00127281
-1.93034
1.93089
0.00135894
1.93111
0.0012853
1.93134
0.00133659
1.93153
0.00128619
1.93168
0.00126035
1.93183
0.00129079
1.93188
0.00112831
1.932
0.00130454
1.93194
0.000958017
1.93204
0.00130331
1.93188
0.000793228
1.93195
0.00123153
1.93177
0.0007345
1.93175
0.00104128
1.93168
0.000894136
1.93153
0.00074587
1.93166
0.00131553
1.9314
0.000572382
1.93173
0.00186385
1.93159
0.000970469
1.93196
0.00227962
1.93231
0.0022792
1.93257
0.00243417
1.93348
0.00394083
1.93381
0.00286767
1.93487
0.00451054
1.93592
0.00456255
1.93708
0.00425406
1.93898
0.00649836
1.94044
0.00606442
1.94231
0.00659578
1.94395
0.00858293
1.94511
0.00839133
1.94695
0.00641329
1.9487
0.00662798
1.94973
0.00758046
0.00797386
2.1067
0.000993906
-2.10642
2.10702
0.00104249
2.10729
0.00101407
2.10758
0.00104661
2.10784
0.0010227
2.10808
0.00102205
2.10835
0.00102764
2.10851
0.000968474
2.10878
0.00103405
2.10884
0.000895251
2.10911
0.00103332
2.10908
0.000820844
2.10931
0.0010035
2.10925
0.000792117
2.10937
0.000924766
2.1094
0.000863926
2.10933
0.000812613
2.10957
0.00107388
2.10936
0.00078144
2.10984
0.00139015
2.10975
0.001055
2.1103
0.00173308
2.11076
0.00181795
2.11115
0.00204325
2.11229
0.00280586
2.11265
0.00250781
2.11385
0.00330541
2.11488
0.00353144
2.1157
0.00343775
2.11752
0.0046765
2.11886
0.0047282
2.12045
0.00500864
2.12265
0.0063761
2.12452
0.00651968
2.12594
0.00500198
2.12731
0.00525554
2.12877
0.00612096
0.00637453
2.29959
0.000687247
-2.29929
2.29992
0.000714382
2.30023
0.000706366
2.30055
0.00072747
2.30086
0.000716903
2.30115
0.000726431
2.30146
0.000722812
2.30171
0.000711371
2.30202
0.000728271
2.30223
0.000686692
2.30253
0.000731616
2.30269
0.00065905
2.30297
0.000726306
2.30311
0.000650334
2.30333
0.000706892
2.30351
0.000685158
2.30364
0.000683029
2.30392
0.000792827
2.30399
0.000707543
2.30441
0.000971026
2.30459
0.000875747
2.30512
0.00120252
2.30567
0.00126989
2.30624
0.00146755
2.30725
0.0018006
2.30793
0.00183032
2.30903
0.00220481
2.31013
0.00242724
2.31105
0.00252351
2.31262
0.00310688
2.31408
0.00326221
2.3156
0.00349471
2.31788
0.00408839
2.32013
0.00426891
2.32144
0.00369636
2.32278
0.0039129
2.32464
0.00426186
0.00442654
2.51079
0.000357335
-2.51046
2.51113
0.000369224
2.51147
0.000369777
2.51182
0.000379931
2.51216
0.000377438
2.5125
0.000385032
2.51284
0.000381569
2.51316
0.000384575
2.51351
0.000384248
2.51382
0.000380121
2.51416
0.000385905
2.51445
0.000373039
2.51479
0.000386293
2.51507
0.000371173
2.51539
0.000387005
2.51569
0.000383804
2.51598
0.000391879
2.51634
0.000427197
2.51663
0.000421673
2.51709
0.000508604
2.51746
0.000505184
2.51803
0.000630591
2.51863
0.0006702
2.51932
0.000784871
2.52022
0.000898091
2.52107
0.000981748
2.52215
0.00112003
2.52332
0.0012572
2.5245
0.00134612
2.52604
0.00157117
2.5276
0.00169908
2.52928
0.00181657
2.53132
0.0020429
2.53342
0.00216819
2.53515
0.001971
2.53696
0.00210228
2.53898
0.00223934
0.00231888
2.74213
-2.74177
2.7425
2.74287
2.74325
2.74363
2.74401
2.74439
2.74478
2.74516
2.74554
2.74593
2.7463
2.74669
2.74706
2.74745
2.74783
2.74822
2.74865
2.74907
2.74958
2.75008
2.75071
2.75138
2.75217
2.75307
2.75405
2.75517
2.75643
2.75777
2.75934
2.76104
2.76286
2.7649
2.76707
2.76904
2.77114
2.77338
0.424322
0.0365008
-0.418726
0.429423
0.064873
0.433853
0.0928747
0.438116
0.11974
0.438515
0.147942
0.441596
0.169089
0.435914
0.198174
0.208367
0.453766
0.0321681
-0.449433
0.458143
0.0604956
0.461087
0.0899307
0.464986
0.115841
0.466286
0.146642
0.468517
0.166858
0.470536
0.196155
0.21124
0.488455
0.0288459
-0.485132
0.491819
0.0571313
0.494765
0.0869848
0.497991
0.112616
0.502139
0.142494
0.504512
0.164485
0.509841
0.190826
0.211059
0.526917
0.0259488
-0.52402
0.529792
0.0542563
0.533691
0.0830854
0.537013
0.109294
0.542456
0.137051
0.545808
0.161133
0.550682
0.185952
0.207673
0.570488
0.0232923
-0.567831
0.57337
0.0513747
0.577413
0.0790423
0.580891
0.105815
0.58568
0.132262
0.589616
0.157197
0.595016
0.180551
0.202322
0.618535
0.0209204
-0.616163
0.621371
0.0485391
0.624981
0.0754325
0.628708
0.102088
0.633478
0.127492
0.63871
0.151966
0.64484
0.17442
0.196213
0.671389
0.0188632
-0.669332
0.674211
0.0457165
0.677657
0.071987
0.681867
0.0978776
0.686863
0.122497
0.692541
0.146287
0.698749
0.168212
0.189505
0.729395
0.0170267
-0.727559
0.732181
0.0429306
0.735573
0.068595
0.739933
0.0935178
0.744979
0.117451
0.75083
0.140436
0.757348
0.161694
0.18227
0.792855
0.0153841
-0.791213
0.79551
0.0402763
0.798932
0.0651728
0.803358
0.089092
0.808528
0.112281
0.814568
0.134397
0.821361
0.154901
0.174716
0.86235
0.0138841
-0.86085
0.864888
0.0377385
0.868345
0.0617163
0.872735
0.0847015
0.877982
0.107033
0.884169
0.128211
0.891186
0.147884
0.166865
0.938328
0.0125336
-0.936977
0.9407
0.0353661
0.944128
0.0582884
0.948542
0.0802872
0.953992
0.101583
0.960417
0.121785
0.967702
0.140599