/*--------------------------------*- C++ -*----------------------------------*\
| =========                 |                                                 |
| \\      /  F ield         | OpenFOAM: The Open Source CFD Toolbox           |
|  \\    /   O peration     | Version:  2312                                  |
|   \\  /    A nd           | Website:  www.openfoam.com                      |
|    \\/     M anipulation  |                                                 |
\*---------------------------------------------------------------------------*/
FoamFile
{
    version     2.0;
    format      ascii;
    arch        "LSB;label=32;scalar=64";
    class       volVectorField;
    location    "12.5";
    object      U;
}
// * * * * * * * * * * * * * * * * * * * * * * * * * * * * * * * * * * * * * //

dimensions      [0 1 -1 0 0 0 0];

internalField   nonuniform List<vector> 
5478
(
(-0.0254306 0.0139655 -7.51195e-20)
(-0.0443058 0.0305366 0)
(-0.0175207 0.04018 1.11684e-19)
(0.0657861 0.0435872 -1.95327e-19)
(0.211691 0.043758 1.28084e-19)
(0.411015 0.045864 -3.69101e-20)
(0.638019 0.051985 -6.75719e-20)
(0.863192 0.0593099 0)
(1.05989 0.0662185 0)
(1.21128 0.0656216 1.00481e-19)
(1.31151 0.0583558 -4.35548e-20)
(1.35217 0.0453642 -7.8519e-20)
(1.35727 0.01115 -3.11361e-20)
(1.32452 0.00810207 0)
(1.27429 -0.0610985 8.79688e-20)
(-0.033378 0.0170255 1.50637e-19)
(-0.033114 0.0209494 0)
(0.040843 0.0173492 0)
(0.202575 0.0175691 -9.82493e-20)
(0.437701 0.0278174 1.2941e-19)
(0.699303 0.0471589 3.77122e-20)
(0.939903 0.0690326 -6.66341e-20)
(1.12834 0.0867409 5.9082e-20)
(1.25158 0.093917 1.54298e-19)
(1.31347 0.089145 -1.36195e-19)
(1.32374 0.0753517 4.29828e-21)
(1.30852 0.0503637 0)
(1.28407 0.0328157 3.10841e-20)
(1.26208 0.00842765 0)
(1.26548 -0.0109306 0)
(-0.0349272 0.0169764 -5.08517e-22)
(0.00426508 0.0125991 -7.06747e-20)
(0.159962 0.00827612 3.89833e-22)
(0.42303 0.0215019 0)
(0.7209 0.0500695 -4.38544e-20)
(0.978099 0.0815054 3.74769e-20)
(1.1575 0.105007 3.20809e-20)
(1.25576 0.114616 0)
(1.29138 0.110544 -5.04279e-20)
(1.28964 0.0979006 4.38375e-20)
(1.27846 0.0790294 3.77988e-20)
(1.27043 0.0656453 0)
(1.26688 0.045783 0)
(1.26725 0.0379104 -8.34385e-20)
(1.25545 0.0164199 7.45503e-20)
(-0.0258442 0.0118291 -8.27284e-20)
(0.0787981 0.000800024 6.95094e-20)
(0.344915 0.0122918 -5.97673e-20)
(0.685233 0.050479 5.25831e-20)
(0.974337 0.0923252 8.80634e-20)
(1.15967 0.121499 -7.45533e-20)
(1.24887 0.133171 -3.20626e-20)
(1.27628 0.130721 2.63276e-20)
(1.27667 0.121043 -2.45937e-20)
(1.27313 0.107729 0)
(1.26998 0.0965706 0)
(1.26356 0.080368 -5.33882e-20)
(1.25276 0.068538 7.03892e-20)
(1.2336 0.052254 -3.98504e-20)
(1.21578 0.0341105 0)
(-0.00263762 0.00342764 4.19324e-20)
(0.201741 -0.0057645 3.49976e-20)
(0.575646 0.0394619 -1.2598e-19)
(0.921524 0.0979282 1.88227e-21)
(1.1392 0.137739 -1.13615e-21)
(1.23993 0.154248 -1.00408e-21)
(1.27163 0.154601 3.00514e-20)
(1.27493 0.147317 2.6186e-20)
(1.27 0.136447 1.93576e-20)
(1.26042 0.124858 -2.23729e-21)
(1.24693 0.109678 -4.50018e-20)
(1.23299 0.0964557 0)
(1.22034 0.0815376 2.18731e-20)
(1.21306 0.0675992 -1.69309e-20)
(1.20945 0.0569817 2.95997e-20)
(0.0401785 -0.00460955 -9.08933e-20)
(0.372478 0.00894246 9.78735e-20)
(0.797856 0.0893706 -3.3382e-20)
(1.08674 0.150949 2.51274e-20)
(1.22456 0.178495 -4.62389e-20)
(1.27028 0.183349 -3.47538e-20)
(1.27506 0.177389 7.00939e-22)
(1.26522 0.16662 0)
(1.25073 0.153962 3.83701e-20)
(1.23689 0.13941 -3.41215e-20)
(1.22647 0.126329 1.42252e-20)
(1.21824 0.11217 0)
(1.21058 0.0994013 8.68444e-21)
(1.19963 0.0857916 -1.62241e-20)
(1.18386 0.07405 0)
(0.106502 -0.00526196 -1.13373e-20)
(0.562384 0.0540123 1.08097e-21)
(0.97104 0.151557 1.63314e-20)
(1.18616 0.203691 2.7307e-20)
(1.26328 0.21795 -2.08315e-20)
(1.27429 0.213486 3.50703e-20)
(1.26225 0.201752 -8.00958e-21)
(1.24607 0.187771 0)
(1.2321 0.172875 -2.1886e-20)
(1.22018 0.158607 1.31252e-21)
(1.20813 0.14339 1.84139e-20)
(1.19564 0.128962 0)
(1.18306 0.114205 -1.24705e-20)
(1.17268 0.0998262 0)
(1.16659 0.0902442 7.9232e-21)
(0.193378 0.00858795 -1.25291e-20)
(0.731675 0.12209 0)
(1.08972 0.219528 1.71258e-20)
(1.23707 0.256712 0)
(1.27001 0.257537 0)
(1.26083 0.244564 0)
(1.24276 0.228163 -6.75258e-21)
(1.22534 0.211036 0)
(1.20925 0.193982 4.34725e-21)
(1.19463 0.17662 0)
(1.18267 0.160378 -5.70198e-21)
(1.17342 0.144446 0)
(1.16602 0.129532 3.78106e-21)
(1.15796 0.115822 0)
(1.14662 0.104484 2.51018e-21)
(-0.030409 0.0800796 -7.39914e-21)
(-0.108037 0.119528 0)
(-0.205709 0.119752 1.27108e-20)
(-0.289357 0.1114 0)
(-0.362769 0.100746 0)
(-0.426555 0.0880798 0)
(-0.480452 0.0736848 -1.08271e-20)
(-0.524625 0.0579691 0)
(-0.559282 0.0413377 9.73366e-21)
(-0.584679 0.0241146 0)
(-0.600819 0.00655136 -1.66892e-20)
(-0.607566 -0.0109813 0)
(-0.604922 -0.0283206 1.35349e-20)
(-0.593585 -0.0446034 0)
(-0.572644 -0.0604304 1.03228e-20)
(-0.0323565 0.13546 3.85827e-20)
(-0.0934657 0.212344 -2.8701e-20)
(-0.166354 0.216825 1.45391e-20)
(-0.226537 0.202851 5.17439e-20)
(-0.275612 0.184354 2.03981e-21)
(-0.313749 0.162954 -4.6147e-20)
(-0.340691 0.139158 3.20791e-20)
(-0.356745 0.113628 0)
(-0.362328 0.0870315 3.09157e-20)
(-0.357947 0.0599129 1.44388e-21)
(-0.344232 0.0326918 -1.67926e-20)
(-0.322319 0.00610831 0)
(-0.28988 -0.0231098 -4.13539e-20)
(-0.255741 -0.0475664 0)
(-0.197122 -0.0807213 -5.15221e-20)
(-0.0348824 0.157645 6.82634e-20)
(-0.0767755 0.269657 1.58375e-20)
(-0.117272 0.287838 -2.71798e-20)
(-0.146992 0.27342 -8.04998e-20)
(-0.165917 0.249419 4.83951e-20)
(-0.173318 0.221157 4.98317e-20)
(-0.169015 0.189859 -8.99413e-20)
(-0.153552 0.156517 0)
(-0.127878 0.122032 -8.31611e-20)
(-0.0931369 0.0871067 7.39398e-20)
(-0.0472805 0.0514894 3.44262e-20)
(-0.00384353 0.0162821 0)
(0.0703656 -0.0196036 2.77976e-20)
(0.107274 -0.0538064 -4.95238e-20)
(0.225833 -0.087977 0)
(-0.0346491 0.144605 3.69146e-20)
(-0.0609961 0.281638 -9.68736e-20)
(-0.0696616 0.324031 1.1744e-19)
(-0.0673394 0.318482 -1.06748e-19)
(-0.0550598 0.293683 -5.04478e-20)
(-0.0318499 0.261332 4.75103e-20)
(0.00245778 0.225223 4.57564e-20)
(0.0470184 0.186951 4.20949e-20)
(0.101217 0.147268 -1.21498e-19)
(0.157902 0.105691 -2.57102e-21)
(0.234728 0.0686084 3.29697e-20)
(0.282926 0.023476 0)
(0.404515 -0.00991356 5.40506e-20)
(0.426362 -0.0565627 1.46305e-19)
(0.599396 -0.0937199 -8.64367e-20)
(-0.0297655 0.106665 6.08401e-22)
(-0.0478837 0.245708 6.58035e-20)
(-0.0336718 0.31317 -5.82971e-20)
(-0.00401391 0.326461 5.39467e-20)
(0.0368552 0.309925 9.8864e-20)
(0.0878363 0.278955 -9.25225e-20)
(0.147917 0.241226 -4.21078e-20)
(0.214712 0.19936 -1.26176e-19)
(0.289523 0.157829 1.1395e-19)
(0.362013 0.112476 0)
(0.461276 0.0766103 0)
(0.524366 0.0273694 1.18133e-19)
(0.67461 -0.00576346 -2.64406e-19)
(0.709822 -0.0595936 9.37509e-20)
(0.916995 -0.0956445 0)
(-0.021955 0.0629428 5.98585e-22)
(-0.0384416 0.176816 -6.52765e-20)
(-0.0158113 0.25231 1.74453e-19)
(0.0285962 0.280999 -5.13297e-20)
(0.0879423 0.276476 -4.84586e-20)
(0.158131 0.252472 4.50525e-20)
(0.235747 0.21816 4.21255e-20)
(0.320412 0.179639 7.72686e-20)
(0.412649 0.140703 -1.36114e-19)
(0.517446 0.100471 6.26169e-20)
(0.633359 0.0631024 5.74496e-20)
(0.754235 0.0158755 0)
(0.908925 -0.0149132 0)
(0.998845 -0.0716756 1.68671e-19)
(1.19316 -0.0959105 -1.50541e-19)
(-0.0161566 0.0304231 -3.73549e-22)
(-0.0347156 0.105483 0)
(-0.0159552 0.166071 0)
(0.0295377 0.19433 9.98967e-20)
(0.0953744 0.195262 -4.46773e-20)
(0.178359 0.178903 3.92645e-20)
(0.278764 0.153573 7.61264e-20)
(0.398055 0.126522 -6.75034e-20)
(0.536373 0.0942624 6.7577e-20)
(0.6941 0.0675795 -6.26833e-20)
(0.850527 0.0323094 -5.21573e-21)
(1.02209 0.00550873 0)
(1.1551 -0.0242179 4.11154e-20)
(1.27773 -0.064562 0)
(1.37276 -0.0775615 0)
(-0.0174913 0.0153673 -7.47813e-20)
(-0.0394365 0.0552863 0)
(-0.0262243 0.0887786 -1.11414e-19)
(0.0216816 0.104777 1.95227e-19)
(0.105478 0.104969 -2.15417e-19)
(0.227694 0.0959094 -4.12329e-20)
(0.387037 0.0836119 6.91097e-20)
(0.572319 0.0716143 0)
(0.771894 0.058323 0)
(0.960236 0.0495814 -1.10949e-19)
(1.13046 0.029554 -5.28928e-20)
(1.26383 0.0232048 8.84564e-20)
(1.34265 -0.011805 -4.11902e-20)
(1.39943 -0.0257567 0)
(1.37268 -0.054645 -1.0799e-19)
(-0.542949 -0.0745963 0)
(-0.507144 -0.0968632 5.26678e-21)
(-0.443503 -0.113486 -5.02384e-21)
(-0.366414 -0.126372 0)
(-0.262262 -0.136912 -7.07752e-23)
(-0.141187 -0.139424 0)
(0.000935569 -0.138086 8.00196e-24)
(0.151433 -0.130575 0)
(0.298287 -0.1177 5.92403e-23)
(0.430801 -0.101523 -1.10679e-21)
(0.542256 -0.0858004 1.05613e-21)
(0.631008 -0.0718663 5.37397e-23)
(0.699218 -0.0602489 0)
(0.751058 -0.0508385 -7.15606e-23)
(0.791183 -0.0433945 -5.75629e-23)
(0.823398 -0.0376726 0)
(0.850531 -0.0330738 0)
(0.874448 -0.0287448 0)
(0.895863 -0.0241956 2.47894e-23)
(0.914534 -0.0194867 0)
(0.930009 -0.0149508 0)
(0.942179 -0.0107418 2.32715e-23)
(0.95148 -0.00688993 -4.83778e-23)
(0.958476 -0.00307465 -1.87212e-23)
(0.963851 0.00048777 0)
(0.967955 0.00454191 0)
(0.971334 0.00764547 0)
(0.973906 0.0127421 0)
(0.976202 0.0146355 1.57888e-23)
(0.977902 0.0223795 1.33507e-23)
(0.979544 0.0216294 -1.13206e-23)
(0.980784 0.0338429 -5.11979e-24)
(0.981993 0.0300216 3.70305e-24)
(0.98296 0.0460655 0)
(0.983956 0.0422752 1.09643e-24)
(0.984828 0.0591457 -1.05034e-24)
(0.985448 0.0576766 1.92411e-25)
(0.986795 0.0766757 -1.83864e-25)
(-0.161584 -0.109936 2.25136e-21)
(-0.126007 -0.15209 2.63771e-20)
(-0.0704032 -0.18964 0)
(-0.00408317 -0.218572 2.44367e-22)
(0.0809876 -0.242704 -9.44569e-23)
(0.182915 -0.258313 0)
(0.296222 -0.262967 -8.05979e-24)
(0.413032 -0.252187 -2.68597e-21)
(0.522571 -0.225026 2.53614e-21)
(0.617497 -0.18757 -1.10546e-22)
(0.694368 -0.149199 0)
(0.753735 -0.11695 -5.41048e-23)
(0.797834 -0.0920365 0)
(0.830074 -0.073417 1.4021e-22)
(0.85411 -0.0598026 5.79316e-23)
(0.872665 -0.0501947 9.09035e-23)
(0.887851 -0.0433354 -1.11344e-21)
(0.90139 -0.037664 1.06298e-21)
(0.914232 -0.0320178 7.19088e-22)
(0.926362 -0.0260974 -7.51465e-22)
(0.937269 -0.0202418 -3.38072e-23)
(0.946518 -0.0147858 2.34743e-22)
(0.954103 -0.00990877 -2.44202e-22)
(0.960196 -0.00532137 -1.61714e-22)
(0.965133 -0.00120639 2.54356e-22)
(0.969055 0.0033072 -1.13362e-22)
(0.972376 0.00670258 -2.27349e-23)
(0.974953 0.0120432 0)
(0.97728 0.0140566 -4.84073e-23)
(0.979001 0.0219661 -1.33891e-23)
(0.980712 0.021242 1.13491e-23)
(0.981964 0.033574 4.71777e-23)
(0.983254 0.0297665 -4.14781e-23)
(0.984288 0.0458501 1.36674e-24)
(0.985307 0.0421068 1.07036e-24)
(0.986353 0.058974 1.50408e-23)
(0.986967 0.0575178 1.00391e-23)
(0.988528 0.0765225 -7.48622e-25)
(0.249075 -0.135014 5.7648e-20)
(0.29175 -0.19208 -5.54183e-20)
(0.339762 -0.242611 0)
(0.394381 -0.283004 2.93e-20)
(0.459033 -0.314205 -2.74987e-20)
(0.53454 -0.337516 2.40192e-22)
(0.614137 -0.345798 0)
(0.687993 -0.331843 -3.55355e-23)
(0.749066 -0.294228 0)
(0.796404 -0.243241 1.91551e-22)
(0.831459 -0.190503 6.32016e-21)
(0.857197 -0.145575 -6.0292e-21)
(0.876808 -0.111715 -4.93672e-21)
(0.891779 -0.0870883 8.61191e-21)
(0.903455 -0.0693424 -3.69684e-21)
(0.912627 -0.0569192 -9.21712e-23)
(0.919921 -0.0484142 0)
(0.926282 -0.0420443 9.73932e-22)
(0.932604 -0.0361529 -7.71625e-22)
(0.939179 -0.0299831 4.1533e-23)
(0.945748 -0.0237041 -3.46216e-23)
(0.951913 -0.0177133 -4.25761e-22)
(0.957492 -0.0123138 4.05734e-22)
(0.962407 -0.00728074 2.96596e-22)
(0.966715 -0.00284008 -3.17557e-22)
(0.970333 0.00203474 0)
(0.973506 0.00568414 2.29277e-23)
(0.976043 0.0112594 3.97641e-23)
(0.978378 0.0133956 -9.27105e-23)
(0.980102 0.0214753 6.68478e-23)
(0.981881 0.0207866 9.54359e-23)
(0.983135 0.03324 -2.50909e-23)
(0.984511 0.0294526 -5.00214e-23)
(0.985607 0.0455842 1.60455e-23)
(0.986649 0.0418844 1.95645e-23)
(0.987873 0.058767 -3.01726e-23)
(0.988478 0.0573195 7.84805e-24)
(0.990258 0.0763479 -1.52517e-24)
(0.60845 -0.149707 4.59832e-22)
(0.641949 -0.216198 5.09003e-20)
(0.68468 -0.2727 -9.11929e-20)
(0.729547 -0.323038 4.00203e-20)
(0.775228 -0.365848 4.24939e-22)
(0.82524 -0.39475 -2.46509e-22)
(0.868868 -0.40061 0)
(0.894898 -0.378171 0)
(0.903306 -0.329961 0)
(0.901967 -0.269389 4.46313e-21)
(0.898636 -0.210459 -4.20961e-21)
(0.897566 -0.160103 -1.32661e-22)
(0.900766 -0.122348 2.78997e-22)
(0.90724 -0.0953745 -1.29331e-22)
(0.915081 -0.0759589 -2.08582e-22)
(0.922866 -0.0620362 0)
(0.929747 -0.0523659 -2.20049e-21)
(0.935669 -0.0453861 2.03691e-21)
(0.941078 -0.0392811 -1.0217e-22)
(0.9463 -0.0329743 0)
(0.951345 -0.0264685 7.01063e-23)
(0.956085 -0.0201691 0)
(0.960497 -0.0144436 4.82971e-23)
(0.964573 -0.00908983 -4.16323e-23)
(0.968361 -0.00436382 3.4095e-23)
(0.97169 0.000771635 0)
(0.974691 0.00462827 0)
(0.97716 0.0104198 -1.94284e-22)
(0.979487 0.0126731 2.42361e-22)
(0.981203 0.0209212 -1.42501e-23)
(0.983045 0.020272 -1.05084e-22)
(0.984298 0.0328454 -7.71917e-23)
(0.985758 0.0290833 1.39995e-22)
(0.986917 0.0452676 -3.30483e-23)
(0.987978 0.0416087 -2.40518e-23)
(0.989387 0.0585219 0)
(0.989976 0.0570792 -9.48781e-24)
(0.991987 0.0761497 0)
(0.919386 -0.157518 -4.77535e-22)
(0.948703 -0.222994 0)
(0.983536 -0.278698 7.32069e-22)
(1.01029 -0.333962 -5.89921e-22)
(1.03257 -0.37753 -8.87046e-22)
(1.05255 -0.407358 3.21252e-22)
(1.05521 -0.411907 9.17147e-21)
(1.02981 -0.383401 -1.25156e-20)
(0.988153 -0.3312 3.36883e-21)
(0.947873 -0.270872 0)
(0.919522 -0.214905 -1.99803e-22)
(0.904642 -0.168406 1.3708e-22)
(0.900923 -0.131736 3.64484e-21)
(0.904999 -0.104351 -3.70121e-21)
(0.912835 -0.0839187 1.03184e-22)
(0.921747 -0.0685209 -2.50865e-21)
(0.930225 -0.0572893 4.14516e-22)
(0.93764 -0.0491777 3.93985e-21)
(0.944023 -0.0424417 -1.76088e-21)
(0.949626 -0.0357488 1.3836e-21)
(0.954609 -0.028907 -7.99702e-23)
(0.959035 -0.0222972 -1.2738e-22)
(0.963017 -0.016321 -8.63552e-22)
(0.966658 -0.0107627 1.68673e-22)
(0.97007 -0.00585268 0)
(0.973126 -0.000533286 0)
(0.97594 0.00352228 0)
(0.978315 0.00952824 0)
(0.980611 0.0118946 1.71058e-22)
(0.982307 0.0203115 -1.29216e-22)
(0.984201 0.0197046 -1.4785e-22)
(0.985452 0.0323971 9.15711e-23)
(0.986989 0.0286648 -1.0035e-22)
(0.988216 0.0449042 6.16612e-23)
(0.989291 0.0412858 2.24922e-23)
(0.990893 0.0582393 9.51823e-24)
(0.99146 0.0568007 6.29256e-24)
(0.993715 0.0759252 0)
(1.18546 -0.160435 0)
(1.20138 -0.218349 9.85439e-20)
(1.21863 -0.270411 -9.35273e-20)
(1.22201 -0.321438 -6.9371e-20)
(1.21234 -0.361945 6.65384e-20)
(1.18844 -0.385707 5.92677e-24)
(1.14636 -0.385347 2.18883e-22)
(1.082 -0.357519 0)
(1.01182 -0.31201 -4.6514e-21)
(0.95713 -0.262569 4.46825e-21)
(0.92395 -0.217235 7.52162e-23)
(0.909033 -0.176899 -5.8398e-21)
(0.906459 -0.142743 1.20186e-20)
(0.910477 -0.115722 2.37812e-22)
(0.917688 -0.0943288 -5.92197e-21)
(0.926098 -0.077608 -8.52845e-23)
(0.934398 -0.0648277 -7.70573e-23)
(0.941728 -0.0552457 0)
(0.947861 -0.0473485 0)
(0.953036 -0.0397524 -1.22739e-24)
(0.957573 -0.0321377 -3.99841e-25)
(0.961637 -0.024865 6.23653e-23)
(0.965307 -0.0183808 -5.24969e-23)
(0.968656 -0.0124433 -4.3161e-23)
(0.971802 -0.00727999 5.57696e-22)
(0.974643 -0.00180208 -5.30497e-22)
(0.977271 0.00241768 -5.31366e-23)
(0.979521 0.00862019 0)
(0.981759 0.0110836 3.78653e-23)
(0.983421 0.0196649 0)
(0.985349 0.0190965 1.52469e-22)
(0.986601 0.0319038 -1.17477e-22)
(0.9882 0.0282054 0)
(0.989504 0.0444983 -2.45537e-23)
(0.990584 0.0409232 4.84825e-23)
(0.992389 0.057922 -1.87276e-23)
(0.992927 0.0564906 0)
(0.995441 0.0756751 3.29291e-24)
(1.35232 -0.141551 -1.90163e-22)
(1.34933 -0.18659 0)
(1.34214 -0.231248 -8.28578e-20)
(1.31679 -0.275829 7.88247e-20)
(1.2766 -0.310688 5.49021e-20)
(1.22039 -0.327273 -5.26077e-20)
(1.15111 -0.323827 0)
(1.07969 -0.308042 -1.80572e-20)
(1.01743 -0.280003 1.71786e-20)
(0.972423 -0.246279 0)
(0.945931 -0.211825 1.6839e-23)
(0.932493 -0.178422 -8.00628e-23)
(0.927028 -0.14846 2.82527e-23)
(0.927433 -0.122766 5.6576e-21)
(0.931212 -0.101243 -5.34413e-21)
(0.936781 -0.0830856 -4.9503e-21)
(0.94326 -0.0689403 4.69975e-21)
(0.949368 -0.0584891 3.77044e-21)
(0.954342 -0.0502 -3.58265e-21)
(0.958278 -0.0424776 -1.35818e-22)
(0.961692 -0.0347277 -1.19977e-21)
(0.96492 -0.027202 2.01733e-21)
(0.968024 -0.020428 -9.30435e-22)
(0.970958 -0.0142285 6.48786e-22)
(0.973741 -0.0088532 -1.10866e-22)
(0.976302 -0.00320831 -5.57624e-22)
(0.978722 0.00124243 -3.62734e-22)
(0.980819 0.00763274 4.19495e-22)
(0.982967 0.0101939 -3.87426e-23)
(0.984576 0.0189441 3.34069e-23)
(0.986507 0.0184279 1.32183e-22)
(0.987764 0.0313528 3.36417e-23)
(0.989398 0.0277021 -6.26027e-23)
(0.990791 0.0440457 -1.53954e-23)
(0.99186 0.0405255 0)
(0.993878 0.0575663 5.84176e-24)
(0.994375 0.0561547 -1.67027e-23)
(0.997168 0.0753923 3.44151e-24)
(1.35255 -0.110141 1.01704e-19)
(1.3429 -0.139284 0)
(1.32376 -0.175576 8.08423e-20)
(1.29099 -0.214729 -1.47379e-19)
(1.24757 -0.248659 6.67209e-20)
(1.19439 -0.272412 0)
(1.13674 -0.284598 0)
(1.0853 -0.28643 0)
(1.04418 -0.277272 0)
(1.00915 -0.259081 0)
(0.981761 -0.233813 -1.79922e-23)
(0.963247 -0.204861 1.27973e-21)
(0.952264 -0.174142 -1.23324e-21)
(0.947286 -0.144765 -3.85115e-23)
(0.94679 -0.118814 0)
(0.948832 -0.0966649 0)
(0.952264 -0.0790627 -7.14992e-23)
(0.956359 -0.0655984 0)
(0.96005 -0.0550915 3.29769e-21)
(0.962975 -0.0460258 -3.07943e-21)
(0.965508 -0.0375019 1.17229e-21)
(0.968027 -0.0294288 -1.20224e-22)
(0.970614 -0.0222158 -9.17365e-22)
(0.973187 -0.0156663 0)
(0.975694 -0.0100889 6.59809e-22)
(0.978065 -0.00429977 -1.10818e-21)
(0.980303 2.84078e-05 4.93962e-22)
(0.982229 0.00673244 -2.4194e-23)
(0.984271 0.00936199 0)
(0.985824 0.0183009 -3.42158e-23)
(0.987722 0.0177751 -2.85965e-23)
(0.988987 0.0308222 -1.13631e-22)
(0.990619 0.0271874 6.54494e-23)
(0.992108 0.043577 1.55581e-23)
(0.993142 0.0401021 0)
(0.99538 0.0571876 -8.52402e-24)
(0.995816 0.0558008 0)
(0.998901 0.0750992 -3.38911e-24)
(1.28534 -0.0716846 0)
(1.28836 -0.0985174 0)
(1.27229 -0.125508 0)
(1.24636 -0.152166 0)
(1.2157 -0.177597 0)
(1.18172 -0.19837 0)
(1.14704 -0.21223 0)
(1.11276 -0.216777 0)
(1.07932 -0.216198 0)
(1.04761 -0.208278 0)
(1.01927 -0.193486 0)
(0.996685 -0.174695 0)
(0.980279 -0.15401 0)
(0.969393 -0.133279 0)
(0.96315 -0.114032 0)
(0.96049 -0.0970174 0)
(0.960565 -0.0821075 0)
(0.962401 -0.0696129 0)
(0.964677 -0.0592159 0)
(0.96668 -0.0499652 0)
(0.968532 -0.0411804 0)
(0.970518 -0.0327618 0)
(0.972708 -0.025118 0)
(0.974995 -0.0180966 0)
(0.977286 -0.0120774 0)
(0.979475 -0.00582069 0)
(0.981684 -0.00122144 0)
(0.983603 0.00551957 0)
(0.985547 0.00826267 0)
(0.987077 0.0173195 0)
(0.988926 0.0169247 0)
(0.99024 0.030044 0)
(0.991836 0.0265302 0)
(0.993442 0.042948 0)
(0.994433 0.0395688 0)
(0.996874 0.0566845 0)
(0.997252 0.0553621 0)
(1.00059 0.0747459 0)
(1.25625 -0.0616128 0)
(1.26308 -0.0939026 0)
(1.25116 -0.123713 0)
(1.22899 -0.151386 0)
(1.20297 -0.176929 0)
(1.17495 -0.198596 0)
(1.14506 -0.214019 0)
(1.11298 -0.222221 0)
(1.0807 -0.222318 0)
(1.04964 -0.214364 0)
(1.02126 -0.199401 0)
(0.998328 -0.180058 0)
(0.981787 -0.158833 0)
(0.971032 -0.13768 0)
(0.965203 -0.117544 0)
(0.962929 -0.0991639 0)
(0.963048 -0.0832788 0)
(0.964696 -0.0701416 0)
(0.966848 -0.0592081 0)
(0.968846 -0.0495692 0)
(0.970685 -0.040647 0)
(0.972557 -0.0323138 0)
(0.97456 -0.0248523 0)
(0.976665 -0.0180134 0)
(0.978841 -0.0121131 0)
(0.980932 -0.00593027 0)
(0.982966 -0.00126558 0)
(0.984786 0.00532014 0)
(0.986738 0.00802741 0)
(0.988293 0.0170233 0)
(0.990109 0.0166221 0)
(0.991504 0.0297444 0)
(0.993048 0.026185 0)
(0.994804 0.0426508 0)
(0.995736 0.0392018 0)
(0.99839 0.0563611 0)
(0.998717 0.0549772 0)
(1.00231 0.0744168 0)
(1.22662 -0.0562968 0)
(1.23538 -0.0830543 0)
(1.22768 -0.10839 0)
(1.20947 -0.130658 0)
(1.18738 -0.149922 0)
(1.16344 -0.16555 0)
(1.138 -0.176795 0)
(1.11099 -0.182435 0)
(1.08334 -0.18233 0)
(1.05643 -0.177118 0)
(1.03172 -0.167286 0)
(1.01112 -0.153979 0)
(0.995435 -0.138987 0)
(0.984337 -0.123533 0)
(0.977211 -0.108155 0)
(0.973093 -0.0935804 0)
(0.971295 -0.0805624 0)
(0.971199 -0.069276 0)
(0.971897 -0.0593446 0)
(0.972817 -0.0502016 0)
(0.973931 -0.041532 0)
(0.975302 -0.0333207 0)
(0.976929 -0.0258835 0)
(0.97872 -0.019006 0)
(0.980634 -0.0130601 0)
(0.982539 -0.00688291 0)
(0.984512 -0.00219585 0)
(0.986272 0.00465699 0)
(0.988122 0.00750841 0)
(0.989657 0.0166013 0)
(0.991408 0.0162449 0)
(0.99289 0.0294378 0)
(0.994355 0.0258422 0)
(0.996285 0.0423936 0)
(0.997147 0.0388594 0)
(1.00002 0.0560784 0)
(1.00031 0.0546198 0)
(1.00416 0.0740648 0)
(1.1997 -0.0504909 0)
(1.20818 -0.0727423 0)
(1.20345 -0.0948603 0)
(1.18906 -0.114746 0)
(1.17052 -0.132223 0)
(1.15004 -0.14721 0)
(1.12845 -0.158948 0)
(1.10566 -0.166824 0)
(1.0823 -0.170313 0)
(1.0594 -0.168868 0)
(1.03794 -0.162637 0)
(1.0193 -0.152221 0)
(1.00431 -0.13912 0)
(0.993224 -0.124861 0)
(0.985649 -0.110186 0)
(0.980705 -0.0958554 0)
(0.97795 -0.0827138 0)
(0.976928 -0.0710361 0)
(0.976768 -0.0606073 0)
(0.976961 -0.0510646 0)
(0.977517 -0.042182 0)
(0.978442 -0.0339125 0)
(0.97969 -0.0264955 0)
(0.98117 -0.0196395 0)
(0.982846 -0.0136547 0)
(0.98453 -0.00737518 0)
(0.986296 -0.00262201 0)
(0.987913 0.00415655 0)
(0.989674 0.00700384 0)
(0.991185 0.0161425 0)
(0.992855 0.0157902 0)
(0.99442 0.0290594 0)
(0.995795 0.0254204 0)
(0.997901 0.0420604 0)
(0.998694 0.0384567 0)
(1.00179 0.0557289 0)
(1.00206 0.0542188 0)
(1.00618 0.073649 0)
(1.17494 -0.0475683 0)
(1.18306 -0.0658915 0)
(1.18063 -0.0845533 0)
(1.1697 -0.101716 0)
(1.15459 -0.116902 0)
(1.1377 -0.1298 0)
(1.12006 -0.139794 0)
(1.10145 -0.146512 0)
(1.08238 -0.149465 0)
(1.06341 -0.14817 0)
(1.04502 -0.143162 0)
(1.02838 -0.135017 0)
(1.01409 -0.124607 0)
(1.00283 -0.113241 0)
(0.99463 -0.101457 0)
(0.988719 -0.0896877 0)
(0.984855 -0.0786467 0)
(0.982801 -0.0685411 0)
(0.981728 -0.059192 0)
(0.981189 -0.0503985 0)
(0.981236 -0.0420572 0)
(0.981796 -0.034149 0)
(0.982728 -0.0269369 0)
(0.983897 -0.0201902 0)
(0.985286 -0.0142832 0)
(0.986729 -0.00805886 0)
(0.988318 -0.00330167 0)
(0.989799 0.00356312 0)
(0.991432 0.00644399 0)
(0.992895 0.01565 0)
(0.994469 0.0152784 0)
(0.996109 0.0286391 0)
(0.997388 0.0249314 0)
(0.999669 0.0416593 0)
(1.00039 0.0379817 0)
(1.00372 0.0552902 0)
(1.00395 0.0537349 0)
(1.00838 0.0731455 0)
(1.15336 -0.0458255 0)
(1.161 -0.0604688 0)
(1.16012 -0.0756795 0)
(1.15199 -0.0900329 0)
(1.14005 -0.102819 0)
(1.12641 -0.113688 0)
(1.11204 -0.122371 0)
(1.09685 -0.128556 0)
(1.08126 -0.131947 0)
(1.06531 -0.132276 0)
(1.0493 -0.129814 0)
(1.03452 -0.124717 0)
(1.02138 -0.117202 0)
(1.01054 -0.108254 0)
(1.00241 -0.0984104 0)
(0.996176 -0.0880479 0)
(0.991693 -0.0779288 0)
(0.988948 -0.0683518 0)
(0.987168 -0.059223 0)
(0.985958 -0.0505253 0)
(0.985457 -0.0422977 0)
(0.985566 -0.0345272 0)
(0.986092 -0.0274379 0)
(0.986904 -0.0207634 0)
(0.988002 -0.0148731 0)
(0.989194 -0.00862643 0)
(0.990563 -0.00387242 0)
(0.991874 0.00301215 0)
(0.99337 0.00587556 0)
(0.99478 0.0151506 0)
(0.996252 0.0147277 0)
(0.997961 0.0281928 0)
(0.999142 0.024384 0)
(1.0016 0.0412027 0)
(1.00225 0.037436 0)
(1.00583 0.0547694 0)
(1.00602 0.0531622 0)
(1.01079 0.0725444 0)
(1.13501 -0.0443732 0)
(1.1418 -0.0559741 0)
(1.14184 -0.0682197 0)
(1.1359 -0.0799704 0)
(1.12664 -0.09057 0)
(1.11572 -0.0997634 0)
(1.1042 -0.107326 0)
(1.09192 -0.112939 0)
(1.07912 -0.116515 0)
(1.06586 -0.117749 0)
(1.05232 -0.116543 0)
(1.03968 -0.112987 0)
(1.028 -0.107182 0)
(1.01783 -0.0999062 0)
(1.00988 -0.0917203 0)
(1.00342 -0.0829374 0)
(0.998374 -0.0742185 0)
(0.995025 -0.0658143 0)
(0.99264 -0.0575749 0)
(0.990819 -0.0495353 0)
(0.989805 -0.0418289 0)
(0.989508 -0.0344539 0)
(0.989678 -0.0276321 0)
(0.990152 -0.0211257 0)
(0.990937 -0.0153485 0)
(0.991849 -0.00914607 0)
(0.993 -0.00440636 0)
(0.994153 0.00249582 0)
(0.995503 0.0053048 0)
(0.99685 0.01465 0)
(0.998211 0.0141348 0)
(0.999984 0.0277136 0)
(1.00106 0.0237739 0)
(1.0037 0.0406861 0)
(1.00428 0.0368219 0)
(1.00813 0.0541666 0)
(1.00826 0.0525056 0)
(1.0134 0.0718415 0)
(1.1191 -0.043433 0)
(1.12503 -0.0525732 0)
(1.12567 -0.0623012 0)
(1.12144 -0.0717201 0)
(1.11434 -0.0803697 0)
(1.10572 -0.0880216 0)
(1.0966 -0.0944489 0)
(1.0867 -0.0994548 0)
(1.07629 -0.102915 0)
(1.06553 -0.104487 0)
(1.05433 -0.104064 0)
(1.04365 -0.101788 0)
(1.0334 -0.0976487 0)
(1.02401 -0.0921105 0)
(1.01642 -0.0856141 0)
(1.00998 -0.0783717 0)
(1.00465 -0.0709323 0)
(1.00095 -0.0635446 0)
(0.998175 -0.0560631 0)
(0.995887 -0.0485715 0)
(0.994426 -0.0412968 0)
(0.993725 -0.0342601 0)
(0.993494 -0.0276788 0)
(0.993595 -0.0213327 0)
(0.994083 -0.0156888 0)
(0.99476 -0.00959232 0)
(0.995672 -0.00499135 0)
(0.996621 0.00192001 0)
(0.997814 0.00467876 0)
(0.999103 0.0141186 0)
(1.00035 0.0134804 0)
(1.00219 0.0271921 0)
(1.00316 0.0230936 0)
(1.006 0.0401006 0)
(1.00647 0.0361301 0)
(1.01064 0.0534652 0)
(1.0107 0.0517525 0)
(1.01625 0.0710191 0)
(1.10549 -0.0427321 0)
(1.11068 -0.0498189 0)
(1.11167 -0.0573925 0)
(1.10871 -0.0647977 0)
(1.10332 -0.0717326 0)
(1.09659 -0.0779679 0)
(1.08943 -0.0833201 0)
(1.08157 -0.0876428 0)
(1.07327 -0.0907611 0)
(1.06466 -0.0924138 0)
(1.05542 -0.092555 0)
(1.04647 -0.0912805 0)
(1.03764 -0.0884626 0)
(1.02921 -0.0843212 0)
(1.02223 -0.0791932 0)
(1.01603 -0.0732338 0)
(1.0106 -0.066911 0)
(1.00671 -0.0604899 0)
(1.00369 -0.0538287 0)
(1.00102 -0.0470062 0)
(0.999143 -0.0403102 0)
(0.998086 -0.0337714 0)
(0.997526 -0.0275647 0)
(0.997283 -0.0214471 0)
(0.99742 -0.0159382 0)
(0.997776 -0.00986942 0)
(0.998489 -0.00528389 0)
(0.999332 0.00163623 0)
(1.00037 0.00420687 0)
(1.00158 0.0136638 0)
(1.00268 0.0128156 0)
(1.00459 0.026653 0)
(1.00544 0.0223458 0)
(1.0085 0.0394401 0)
(1.00886 0.0353446 0)
(1.01336 0.0526474 0)
(1.01335 0.0508791 0)
(1.01935 0.0700512 0)
(1.09415 -0.042615 0)
(1.0986 -0.0479807 0)
(1.09973 -0.0537483 0)
(1.09769 -0.0594567 0)
(1.09366 -0.0648742 0)
(1.08842 -0.0698095 0)
(1.08285 -0.0741218 0)
(1.07668 -0.077689 0)
(1.07014 -0.0803546 0)
(1.06333 -0.0819393 0)
(1.05577 -0.0823873 0)
(1.04836 -0.0817228 0)
(1.04093 -0.0797975 0)
(1.03353 -0.0767093 0)
(1.02726 -0.0727049 0)
(1.02148 -0.0678745 0)
(1.01613 -0.0625727 0)
(1.01217 -0.0570607 0)
(1.00905 -0.0512202 0)
(1.00612 -0.0450857 0)
(1.0039 -0.0389527 0)
(1.00253 -0.0328868 0)
(1.00166 -0.027087 0)
(1.00113 -0.0213127 0)
(1.00105 -0.0161209 0)
(1.00123 -0.0103 0)
(1.00166 -0.00599797 0)
(1.00218 0.000827344 0)
(1.00301 0.00331596 0)
(1.00418 0.0129726 0)
(1.00518 0.0119696 0)
(1.00718 0.0260053 0)
(1.00789 0.0214766 0)
(1.0112 0.0386689 0)
(1.01143 0.0344377 0)
(1.01632 0.0516876 0)
(1.01621 0.0498573 0)
(1.02271 0.0689075 0)
(1.08494 -0.0419715 0)
(1.0887 -0.0459309 0)
(1.08987 -0.050238 0)
(1.08852 -0.0545516 0)
(1.08552 -0.0586902 0)
(1.08145 -0.0625111 0)
(1.07715 -0.0659041 0)
(1.07235 -0.0687791 0)
(1.06723 -0.0710176 0)
(1.06187 -0.0724738 0)
(1.05576 -0.0730699 0)
(1.04972 -0.0727902 0)
(1.04353 -0.0715107 0)
(1.03714 -0.0692615 0)
(1.03163 -0.0662042 0)
(1.02638 -0.0623789 0)
(1.02123 -0.0580293 0)
(1.01734 -0.0533829 0)
(1.01424 -0.048342 0)
(1.01119 -0.0428938 0)
(1.00871 -0.0373236 0)
(1.00707 -0.0317135 0)
(1.00592 -0.0262525 0)
(1.00505 -0.0206736 0)
(1.00461 -0.0156191 0)
(1.00445 -0.00985756 0)
(1.00475 -0.00565194 0)
(1.00534 0.0012176 0)
(1.00612 0.0033975 0)
(1.0072 0.0129488 0)
(1.00798 0.0115071 0)
(1.01005 0.0255725 0)
(1.01057 0.0206587 0)
(1.01416 0.0378821 0)
(1.01419 0.0334516 0)
(1.01953 0.0506015 0)
(1.01929 0.048684 0)
(1.02635 0.0675751 0)
(1.07755 -0.0425026 0)
(1.08068 -0.0453298 0)
(1.08177 -0.0484414 0)
(1.08087 -0.0515794 0)
(1.07862 -0.0546049 0)
(1.07545 -0.057409 0)
(1.07213 -0.0599115 0)
(1.06837 -0.0620563 0)
(1.06436 -0.0637484 0)
(1.06021 -0.0648701 0)
(1.05534 -0.0653665 0)
(1.05049 -0.0652106 0)
(1.04542 -0.0642823 0)
(1.03997 -0.0625724 0)
(1.03524 -0.060186 0)
(1.03059 -0.0571309 0)
(1.02578 -0.0535584 0)
(1.02206 -0.0496543 0)
(1.01912 -0.0453632 0)
(1.01609 -0.0406522 0)
(1.0135 -0.035764 0)
(1.0117 -0.0307806 0)
(1.01039 -0.0259109 0)
(1.00936 -0.0208518 0)
(1.00877 -0.0162625 0)
(1.00849 -0.0108203 0)
(1.00847 -0.00696136 0)
(1.00857 -0.000287305 0)
(1.00893 0.00165912 0)
(1.00997 0.0114851 0)
(1.01068 0.00986126 0)
(1.01294 0.0243272 0)
(1.01332 0.0192014 0)
(1.01728 0.0366377 0)
(1.01713 0.0320957 0)
(1.02298 0.04918 0)
(1.02259 0.0472135 0)
(1.03028 0.0659184 0)
(1.07209 -0.0411817 0)
(1.07469 -0.0431223 0)
(1.07571 -0.0452822 0)
(1.07515 -0.0474854 0)
(1.07351 -0.049632 0)
(1.07107 -0.0516358 0)
(1.06854 -0.053443 0)
(1.06561 -0.0550119 0)
(1.06246 -0.0562573 0)
(1.05923 -0.0570926 0)
(1.0553 -0.0574916 0)
(1.05138 -0.0574215 0)
(1.04721 -0.0567527 0)
(1.04257 -0.0554437 0)
(1.03854 -0.0535614 0)
(1.03447 -0.0510937 0)
(1.03001 -0.048123 0)
(1.02649 -0.0447881 0)
(1.02369 -0.0410565 0)
(1.02069 -0.03688 0)
(1.01798 -0.0324602 0)
(1.016 -0.027863 0)
(1.01448 -0.0233092 0)
(1.0132 -0.0184685 0)
(1.01232 -0.0140962 0)
(1.01178 -0.00881402 0)
(1.01171 -0.00522531 0)
(1.01212 0.00146246 0)
(1.0127 0.0030264 0)
(1.01376 0.0127618 0)
(1.01419 0.0104769 0)
(1.01654 0.0248769 0)
(1.01656 0.019064 0)
(1.02086 0.0363355 0)
(1.02036 0.0313785 0)
(1.02678 0.0481211 0)
(1.02616 0.0459601 0)
(1.03456 0.0643009 0)
(1.06802 -0.0426819 0)
(1.07007 -0.0438648 0)
(1.07087 -0.0452033 0)
(1.07045 -0.0465887 0)
(1.06915 -0.047955 0)
(1.06717 -0.0492341 0)
(1.06519 -0.050395 0)
(1.06285 -0.0514109 0)
(1.06036 -0.0522009 0)
(1.05788 -0.052704 0)
(1.05476 -0.0529074 0)
(1.05166 -0.052775 0)
(1.04836 -0.0522014 0)
(1.04453 -0.0511449 0)
(1.04125 -0.0496399 0)
(1.03784 -0.0476691 0)
(1.03386 -0.0452781 0)
(1.03068 -0.0425562 0)
(1.02819 -0.0394758 0)
(1.02541 -0.035981 0)
(1.02279 -0.0322329 0)
(1.02081 -0.0282678 0)
(1.01927 -0.0243234 0)
(1.01793 -0.0200181 0)
(1.01696 -0.0161403 0)
(1.0163 -0.0111697 0)
(1.0159 -0.00795217 0)
(1.01567 -0.00144174 0)
(1.01553 -0.00034346 0)
(1.01648 0.00961026 0)
(1.01676 0.00691716 0)
(1.01942 0.021797 0)
(1.01928 0.0156767 0)
(1.02415 0.0333095 0)
(1.02343 0.0283082 0)
(1.03056 0.0451072 0)
(1.02984 0.0429415 0)
(1.03897 0.0612475 0)
(1.06602 -0.0395672 0)
(1.0677 -0.0401859 0)
(1.06838 -0.0409203 0)
(1.06809 -0.0416921 0)
(1.06708 -0.042447 0)
(1.06546 -0.043127 0)
(1.06387 -0.0437157 0)
(1.06196 -0.0442073 0)