/*--------------------------------*- C++ -*----------------------------------*\
| =========                 |                                                 |
| \\      /  F ield         | OpenFOAM: The Open Source CFD Toolbox           |
|  \\    /   O peration     | Version:  2312                                  |
|   \\  /    A nd           | Website:  www.openfoam.com                      |
|    \\/     M anipulation  |                                                 |
\*---------------------------------------------------------------------------*/
FoamFile
{
    version     2.0;
    format      ascii;
    arch        "LSB;label=32;scalar=64";
    class       volVectorField;
    location    "91.5";
    object      U;
}
// * * * * * * * * * * * * * * * * * * * * * * * * * * * * * * * * * * * * * //

dimensions      [0 1 -1 0 0 0 0];

internalField   nonuniform List<vector> 
5478
(
(-0.0261751 0.0265899 -1.31292e-19)
(-0.0190242 0.0410193 0)
(0.049662 0.0316751 2.01162e-19)
(0.184571 0.00732686 -3.54458e-19)
(0.388266 -0.022258 2.34885e-19)
(0.634279 -0.049696 -6.94161e-20)
(0.876188 -0.0717177 -1.20953e-19)
(1.07384 -0.088939 0)
(1.20405 -0.102947 0)
(1.26668 -0.113879 1.31291e-19)
(1.27416 -0.121828 -6.64522e-20)
(1.24409 -0.123439 -9.23664e-20)
(1.20248 -0.126125 -3.24464e-20)
(1.15732 -0.113473 0)
(1.10661 -0.11686 6.58431e-20)
(-0.0236036 0.0168797 2.62951e-19)
(0.0077408 0.0151245 0)
(0.130087 -0.00177519 0)
(0.349942 -0.0213573 -1.75834e-19)
(0.63251 -0.0332665 2.32749e-19)
(0.90796 -0.0374049 6.77871e-20)
(1.12171 -0.0392178 -1.1118e-19)
(1.25143 -0.0436376 9.85932e-20)
(1.30371 -0.051741 2.27634e-19)
(1.30121 -0.0619431 -1.9646e-19)
(1.26903 -0.0703141 3.38167e-21)
(1.23157 -0.0760935 0)
(1.19639 -0.0772866 3.23877e-20)
(1.16697 -0.0691545 0)
(1.14525 -0.0734992 0)
(-0.0177498 0.00961812 -6.80845e-22)
(0.0601289 -0.00703136 -1.20394e-19)
(0.27184 -0.0232164 2.01433e-22)
(0.586802 -0.0232034 0)
(0.901255 -0.0109933 -7.56081e-20)
(1.13538 0.00133631 6.37339e-20)
(1.26708 0.00574056 5.31368e-20)
(1.31401 0.00114674 0)
(1.30975 -0.00870844 -7.63424e-20)
(1.28406 -0.0190579 6.19272e-20)
(1.25674 -0.0267216 4.96663e-20)
(1.23118 -0.0312111 0)
(1.20757 -0.0310237 0)
(1.18526 -0.0312028 -8.95572e-20)
(1.1616 -0.0294423 7.97937e-20)
(-0.00325738 0.00214347 -1.39e-19)
(0.152131 -0.0238631 1.18962e-19)
(0.478271 -0.0205611 -1.02923e-19)
(0.84456 0.00698286 8.89431e-20)
(1.11744 0.0334267 1.50024e-19)
(1.26599 0.0465706 -1.25425e-19)
(1.31954 0.0463908 -5.31089e-20)
(1.32177 0.0386704 4.03502e-20)
(1.30445 0.028992 -3.88985e-20)
(1.28291 0.0204293 0)
(1.2588 0.013566 0)
(1.23309 0.00847093 -6.93832e-20)
(1.2067 0.00427732 8.86014e-20)
(1.18148 0.00341139 -4.93061e-20)
(1.15627 -0.00170392 0)
(0.0257945 -0.0065752 7.00904e-20)
(0.293418 -0.0276221 5.93181e-20)
(0.714391 0.0117683 -2.10748e-19)
(1.05775 0.0574749 2.23046e-21)
(1.24889 0.0830365 -3.05875e-21)
(1.32294 0.0895014 -1.40186e-21)
(1.33461 0.0851639 4.86685e-20)
(1.3207 0.0767035 4.15997e-20)
(1.29794 0.0673586 2.92364e-20)
(1.2712 0.0580621 -5.08072e-21)
(1.24425 0.0496868 -6.64332e-20)
(1.21924 0.0421558 0)
(1.19762 0.0379283 2.85202e-20)
(1.17835 0.0316986 -2.04253e-20)
(1.1635 0.0310065 3.75855e-20)
(0.0755725 -0.0135403 -1.4711e-19)
(0.476736 -0.00513591 1.59689e-19)
(0.925944 0.0669617 -5.40296e-20)
(1.20163 0.115571 4.14721e-20)
(1.31838 0.133384 -7.5635e-20)
(1.3454 0.133155 -5.64051e-20)
(1.33375 0.125022 1.24416e-21)
(1.30929 0.114201 0)
(1.28237 0.102798 5.97417e-20)
(1.25762 0.0921261 -5.31264e-20)
(1.23557 0.0826732 2.09985e-20)
(1.2156 0.0750262 0)
(1.1963 0.0679336 1.27952e-20)
(1.17785 0.0618813 -2.17506e-20)
(1.1575 0.0585606 0)
(0.148678 -0.0116475 -1.82934e-20)
(0.667873 0.0480637 1.0926e-21)
(1.08671 0.135421 2.69913e-20)
(1.28861 0.17736 4.42939e-20)
(1.34871 0.185243 -3.37186e-20)
(1.34466 0.177588 5.68243e-20)
(1.32025 0.164962 -1.29191e-20)
(1.29308 0.151549 0)
(1.26793 0.138689 -3.51466e-20)
(1.24437 0.12659 2.3509e-21)
(1.22183 0.115469 2.92887e-20)
(1.20045 0.105 0)
(1.18103 0.0961822 -1.87514e-20)
(1.16314 0.0872381 0)
(1.14818 0.083671 1.12951e-20)
(0.240957 0.00605191 -1.94632e-20)
(0.832009 0.122994 0)
(1.19563 0.211626 2.71605e-20)
(1.33122 0.241395 0)
(1.35066 0.237728 0)
(1.32974 0.222894 0)
(1.30079 0.20607 -1.10267e-20)
(1.27277 0.189519 0)
(1.24678 0.173578 7.09232e-21)
(1.22333 0.158573 0)
(1.20281 0.144886 -9.17919e-21)
(1.18515 0.132821 0)
(1.16939 0.121868 5.94988e-21)
(1.1551 0.112427 0)
(1.14051 0.107089 3.84385e-21)
(-0.0102887 0.00145962 -1.23373e-20)
(-0.0392927 -0.0612649 0)
(-0.0865418 -0.11686 1.95885e-20)
(-0.136197 -0.162629 0)
(-0.183975 -0.212361 0)
(-0.228484 -0.27097 0)
(-0.26757 -0.336325 -1.28423e-20)
(-0.298438 -0.404414 0)
(-0.31807 -0.469838 1.04158e-20)
(-0.323846 -0.525636 0)
(-0.313904 -0.56354 -1.64534e-20)
(-0.287014 -0.575347 0)
(-0.242601 -0.554177 1.27131e-20)
(-0.184498 -0.494813 0)
(-0.107558 -0.400776 9.79764e-21)
(-0.0154879 0.0303558 6.30857e-20)
(-0.0445699 -0.00846097 -4.59618e-20)
(-0.0900741 -0.0554588 2.21676e-20)
(-0.136696 -0.0984846 7.3987e-20)
(-0.18094 -0.147823 7.34592e-22)
(-0.222051 -0.20816 -5.89944e-20)
(-0.258542 -0.278418 3.92458e-20)
(-0.288588 -0.355546 0)
(-0.31056 -0.434744 3.26338e-20)
(-0.323534 -0.509341 -5.04815e-22)
(-0.326778 -0.571121 -1.71872e-20)
(-0.319367 -0.610704 0)
(-0.300543 -0.619456 -3.61466e-20)
(-0.274706 -0.590856 0)
(-0.216318 -0.526199 -4.44793e-20)
(-0.0223539 0.0566841 1.07811e-19)
(-0.0486198 0.0421617 2.50859e-20)
(-0.0851962 0.00425337 -4.16644e-20)
(-0.120266 -0.0348741 -1.15896e-19)
(-0.150801 -0.0817431 6.92734e-20)
(-0.176042 -0.140678 6.47414e-20)
(-0.194462 -0.211261 -1.17511e-19)
(-0.204719 -0.290798 0)
(-0.206613 -0.37465 -9.21278e-20)
(-0.202084 -0.456432 8.19186e-20)
(-0.194387 -0.528957 3.4753e-20)
(-0.186175 -0.584581 0)
(-0.171176 -0.614742 2.34209e-20)
(-0.178635 -0.611744 -3.31242e-20)
(-0.119385 -0.577046 0)
(-0.0293372 0.0736811 5.83431e-20)
(-0.051007 0.0813476 -1.52363e-19)
(-0.0734341 0.0534948 1.82601e-19)
(-0.0915738 0.0190422 -1.65392e-19)
(-0.101962 -0.0241522 -7.6521e-20)
(-0.102366 -0.0800019 6.97968e-20)
(-0.0909135 -0.148339 6.01171e-20)
(-0.0664717 -0.225855 5.69927e-20)
(-0.0294627 -0.307127 -1.47277e-19)
(0.0158756 -0.384456 4.39264e-21)
(0.0623331 -0.450181 3.8292e-20)
(0.097095 -0.50225 0)
(0.149924 -0.524679 4.08508e-20)
(0.119212 -0.537882 8.56595e-20)
(0.212101 -0.505252 -4.70323e-20)
(-0.0341803 0.0783357 1.41697e-21)
(-0.0511553 0.103577 1.08438e-19)
(-0.0571333 0.0861283 -9.66694e-20)
(-0.0539156 0.0566387 8.41171e-20)
(-0.0386251 0.0170905 1.55473e-19)
(-0.00761772 -0.0356727 -1.41603e-19)
(0.0425379 -0.101498 -6.504e-20)
(0.111623 -0.177247 -1.72142e-19)
(0.195921 -0.255747 1.52344e-19)
(0.288692 -0.32771 0)
(0.379598 -0.38188 0)
(0.448619 -0.423197 9.97264e-20)
(0.538751 -0.423415 -2.01469e-19)
(0.524856 -0.425354 6.40092e-20)
(0.642919 -0.371473 0)
(-0.0353822 0.0714465 -2.35807e-22)
(-0.0481817 0.106998 -1.09388e-19)
(-0.037957 0.0990302 2.93261e-19)
(-0.0116144 0.0740165 -8.72647e-20)
(0.0334794 0.036679 -7.90027e-20)
(0.102039 -0.013437 7.1851e-20)
(0.197806 -0.075814 6.5056e-20)
(0.31854 -0.145929 1.14891e-19)
(0.453743 -0.215893 -2.00832e-19)
(0.590041 -0.276326 8.22861e-20)
(0.706443 -0.320147 6.59823e-20)
(0.800093 -0.345307 0)
(0.876873 -0.344418 0)
(0.883973 -0.32786 9.45773e-20)
(0.96246 -0.290377 -8.41891e-20)
(-0.0330643 0.0569614 9.08598e-22)
(-0.0419765 0.0935762 0)
(-0.0169235 0.0910511 0)
(0.0336072 0.0678991 1.7959e-19)
(0.113469 0.0314147 -7.89119e-20)
(0.229138 -0.0166899 7.13102e-20)
(0.380398 -0.0737782 1.28304e-19)
(0.554335 -0.132911 -1.13764e-19)
(0.729457 -0.187671 9.88959e-20)
(0.883031 -0.229227 -8.23517e-20)
(0.995624 -0.258945 -4.21659e-21)
(1.07626 -0.267061 0)
(1.1027 -0.263598 3.59115e-20)
(1.11002 -0.245388 0)
(1.10503 -0.215516 0)
(-0.0292757 0.0404247 -1.28158e-19)
(-0.033105 0.0689715 0)
(0.00794458 0.0656203 -2.0121e-19)
(0.0900323 0.0424269 3.55956e-19)
(0.220087 0.00723914 -3.96694e-19)
(0.399054 -0.0356613 -7.19154e-20)
(0.609449 -0.0798789 1.25066e-19)
(0.819479 -0.120016 0)
(0.999204 -0.152429 0)
(1.12546 -0.175888 -1.42123e-19)
(1.19806 -0.189363 -4.71077e-20)
(1.21898 -0.19145 9.95467e-20)
(1.19893 -0.187544 -3.59798e-20)
(1.17266 -0.174703 0)
(1.11824 -0.152473 -6.78052e-20)
(-0.0125263 -0.20957 0)
(0.240628 0.239711 4.23142e-21)
(0.384255 0.609076 -3.91463e-21)
(0.556233 0.727691 0)
(0.627101 0.731228 0)
(0.437857 0.792755 -1.03852e-22)
(0.446871 0.547691 0)
(0.650543 0.0206788 0)
(0.804609 -0.370673 9.21107e-23)
(0.912331 -0.482545 0)
(0.899602 -0.494176 0)
(0.82618 -0.54934 -8.44351e-23)
(0.789482 -0.526812 0)
(0.835696 -0.2852 -6.06749e-23)
(0.901668 0.0222728 -7.24137e-23)
(0.946521 0.305782 0)
(0.980683 0.529812 -5.04086e-22)
(0.992644 0.529362 5.85237e-22)
(0.979498 0.344839 0)
(1.02324 0.0302005 4.9223e-22)
(1.05799 -0.388163 -5.8034e-22)
(1.07446 -0.548313 1.17113e-22)
(1.0874 -0.380108 -2.16853e-22)
(1.11081 0.0355886 2.07212e-22)
(1.09389 0.56488 -2.31379e-22)
(1.12321 0.581462 0)
(1.0939 -0.106531 -1.93293e-22)
(0.971665 -0.526393 1.84817e-22)
(1.03937 -0.11654 -7.04653e-23)
(1.0419 0.297228 0)
(0.931391 0.120332 -7.60643e-23)
(0.918328 -0.122327 0)
(0.96909 -0.0480135 -2.3896e-23)
(1.00107 0.0822184 -8.31976e-24)
(0.880522 0.0814763 3.6096e-24)
(0.799217 -0.0933635 -3.52886e-23)
(0.844826 -0.00285642 0)
(0.842416 0.0631807 -6.91204e-24)
(-0.222636 -0.357464 1.59503e-20)
(0.0337994 0.0595356 -1.27911e-22)
(0.241155 0.421339 -9.23527e-21)
(0.495483 0.626307 8.80774e-21)
(0.512382 0.771108 0)
(0.365351 0.838041 1.04677e-22)
(0.521301 0.489657 -2.55522e-22)
(0.776597 -0.0581156 0)
(0.896712 -0.436711 -9.27947e-23)
(0.971811 -0.509835 0)
(0.944027 -0.47269 0)
(0.870607 -0.527829 8.50322e-23)
(0.851596 -0.531949 0)
(0.870405 -0.305492 2.20994e-21)
(0.894754 -0.00110238 -1.8366e-21)
(0.920707 0.281577 2.41325e-21)
(0.953677 0.514333 -2.30364e-21)
(0.962827 0.528649 -1.04587e-22)
(0.956874 0.344574 0)
(1.03217 0.0238145 0)
(1.07496 -0.391152 -1.20142e-22)
(1.07924 -0.553276 9.85499e-22)
(1.08624 -0.382966 -1.8126e-21)
(1.08902 0.0287425 9.26201e-22)
(1.07986 0.554666 7.17493e-22)
(1.14086 0.580284 0)
(1.12011 -0.0834211 3.82678e-22)
(0.977584 -0.524248 0)
(1.03504 -0.125413 7.07121e-23)
(1.04315 0.30346 -2.03716e-22)
(0.93405 0.131886 3.45733e-22)
(0.917086 -0.125727 -3.55423e-23)
(0.971455 -0.0548428 5.41822e-23)
(1.00947 0.0871766 -7.98208e-24)
(0.893001 0.0956512 1.90715e-23)
(0.810513 -0.0904713 -3.32263e-23)
(0.856417 -0.00640064 8.81519e-25)
(0.852916 0.0636819 -1.1393e-24)
(-0.235789 -0.461248 1.96384e-20)
(-0.0654819 -0.14682 -3.39366e-20)
(0.122631 0.228188 1.50045e-21)
(0.35301 0.548431 1.25416e-20)
(0.347061 0.807002 1.69696e-22)
(0.328783 0.830581 -2.11767e-22)
(0.616993 0.410782 2.5993e-22)
(0.911981 -0.109242 -5.55504e-22)
(0.995796 -0.462387 0)
(1.02193 -0.520248 7.87994e-21)
(0.984658 -0.444809 -7.51661e-21)
(0.895932 -0.506158 -1.71078e-22)
(0.892146 -0.546978 0)
(0.911591 -0.326552 -4.31689e-21)
(0.900116 -0.0160232 3.97546e-21)
(0.900308 0.266977 -2.39188e-21)
(0.930125 0.50195 2.28247e-21)
(0.939036 0.526556 1.71251e-21)
(0.938655 0.342402 -1.45101e-21)
(1.0379 0.0213801 0)
(1.08759 -0.382954 0)
(1.07618 -0.552661 1.84682e-21)
(1.07594 -0.387148 -1.76322e-21)
(1.05815 0.0171777 -2.14338e-21)
(1.05982 0.538775 2.26189e-22)
(1.1499 0.580162 1.74586e-21)
(1.13816 -0.0502351 -6.68027e-23)
(0.97792 -0.513226 -5.31222e-22)
(1.0252 -0.136571 9.51851e-22)
(1.0421 0.30856 -8.61877e-22)
(0.935459 0.145583 5.1256e-23)
(0.91328 -0.127613 -1.20754e-22)
(0.970516 -0.0626685 4.10632e-23)
(1.01514 0.0908993 -3.92626e-23)
(0.905144 0.109655 -3.07067e-23)
(0.821224 -0.0872525 -3.88933e-23)
(0.866858 -0.01004 -1.3993e-23)
(0.863851 0.0641668 -7.57721e-24)
(0.0335488 -0.471289 0)
(-0.00998673 -0.296833 6.14035e-21)
(0.0672471 0.0423657 -6.06106e-21)
(0.218795 0.444349 0)
(0.234016 0.765939 -1.74456e-22)
(0.358104 0.749752 2.17621e-22)
(0.72208 0.312794 0)
(1.03876 -0.151279 1.61073e-23)
(1.10338 -0.463091 -4.29468e-22)
(1.07181 -0.525799 0)
(1.04429 -0.418437 -6.22593e-21)
(0.942462 -0.472995 6.11157e-21)
(0.908907 -0.562512 -3.0355e-22)
(0.951069 -0.353279 -4.53249e-21)
(0.927248 -0.0346531 4.32265e-21)
(0.889344 0.237478 3.15285e-22)
(0.894584 0.478338 0)
(0.90012 0.526376 -1.96162e-22)
(0.914522 0.34468 2.88775e-21)
(1.03733 0.0220588 4.83604e-22)
(1.09675 -0.371675 2.87763e-22)
(1.06976 -0.549323 -2.81595e-21)
(1.06111 -0.39163 -4.02165e-21)
(1.02303 -0.00102395 4.93417e-21)
(1.03035 0.505633 -5.05566e-22)
(1.14389 0.571181 0)
(1.14612 -0.0173761 -3.23917e-22)
(0.97537 -0.497572 5.38195e-22)
(1.011 -0.151834 -1.00007e-21)
(1.03779 0.309495 9.06367e-22)
(0.935043 0.159535 -1.48746e-22)
(0.907494 -0.128506 0)
(0.966788 -0.0717125 -4.65243e-23)
(1.01817 0.093021 7.03515e-23)
(0.91652 0.12329 4.46502e-23)
(0.831307 -0.0836871 1.33764e-22)
(0.876344 -0.0138268 1.40028e-23)
(0.875094 0.0645381 -1.90329e-25)
(0.481301 -0.33911 1.53202e-22)
(0.278925 -0.294882 1.06865e-22)
(0.172377 -0.104095 0)
(0.219577 0.305196 0)
(0.261815 0.689913 0)
(0.470164 0.66618 0)
(0.846576 0.232437 1.74948e-20)
(1.14921 -0.178249 -3.28506e-20)
(1.2042 -0.431398 1.63732e-20)
(1.11077 -0.511982 0)
(1.07964 -0.396059 -6.02185e-21)
(0.996346 -0.423393 5.93129e-21)
(0.912801 -0.56631 5.18299e-21)
(0.967935 -0.395705 -4.3556e-21)
(0.956962 -0.051167 5.28321e-21)
(0.879914 0.232519 -5.36024e-21)
(0.862725 0.470633 -2.73165e-22)
(0.873981 0.522221 -2.79233e-21)
(0.899241 0.34061 2.66029e-21)
(1.0354 0.0227741 3.42347e-22)
(1.10099 -0.353785 3.63752e-22)
(1.05953 -0.542027 3.40682e-21)
(1.04161 -0.396972 -3.64341e-21)
(0.982208 -0.0183659 -1.25434e-21)
(0.996507 0.477161 -5.06535e-22)
(1.13309 0.568386 -3.12086e-22)
(1.14645 0.0223587 0)
(0.971184 -0.475499 0)
(0.992953 -0.168543 0)
(1.03187 0.309817 0)
(0.934197 0.175225 4.12547e-22)
(0.900907 -0.127525 -2.49494e-22)
(0.961145 -0.0815217 1.03358e-22)
(1.0189 0.0935847 -3.01391e-22)
(0.926819 0.136386 4.78662e-23)
(0.840649 -0.0797683 1.61296e-23)
(0.885063 -0.0177633 -4.7034e-24)
(0.886528 0.0647321 1.66458e-23)
(0.855021 -0.236106 -1.61146e-22)
(0.705566 -0.175347 -4.28482e-21)
(0.517326 -0.123654 4.05169e-21)
(0.375346 0.160954 1.16772e-20)
(0.383181 0.539216 -1.11232e-20)
(0.610888 0.556063 2.4064e-20)
(0.989897 0.174181 -2.2296e-20)
(1.24555 -0.181531 4.78111e-22)
(1.27954 -0.377378 -4.31392e-22)
(1.15079 -0.47841 0)
(1.09209 -0.38471 -2.12248e-22)
(1.04271 -0.370932 1.07479e-20)
(0.922439 -0.546729 -1.02302e-20)
(0.955334 -0.439886 -2.96641e-22)
(0.976312 -0.0837667 0)
(0.881305 0.198312 -5.49266e-21)
(0.828846 0.438709 9.04962e-21)
(0.827622 0.519548 -3.49475e-21)
(0.873317 0.348214 0)
(1.03144 0.0337729 2.49582e-21)
(1.10306 -0.330263 -4.62866e-23)
(1.04892 -0.53093 -2.89381e-21)
(1.02069 -0.401906 -5.4275e-21)
(0.944312 -0.0436757 5.30311e-21)
(0.955936 0.429994 -3.35633e-21)
(1.1038 0.554722 1.20059e-21)
(1.13528 0.0602644 2.10072e-21)
(0.96741 -0.45192 -1.66634e-21)
(0.973104 -0.188524 1.58492e-21)
(1.02287 0.303987 -4.87012e-22)
(0.931826 0.190872 4.63039e-22)
(0.894068 -0.12532 0)
(0.954426 -0.092225 1.12837e-22)
(1.01777 0.092332 -2.70833e-23)
(0.935884 0.148858 0)
(0.849188 -0.0755078 -1.45138e-22)
(0.893105 -0.0219052 -9.05874e-24)
(0.898009 0.0646969 1.1597e-23)
(1.02755 -0.185801 0)
(0.932234 -0.111086 0)
(0.868706 -0.0591431 6.29824e-24)
(0.686809 0.130374 0)
(0.577506 0.448819 0)
(0.793841 0.473148 1.69506e-20)
(1.15267 0.125954 -1.61875e-20)
(1.32843 -0.177704 2.80163e-20)
(1.32424 -0.326852 -2.67639e-20)
(1.19289 -0.436169 0)
(1.09826 -0.379743 -2.04344e-22)
(1.06934 -0.329716 1.67852e-22)
(0.949423 -0.506519 -1.03925e-20)
(0.927607 -0.492486 -1.78682e-21)
(0.981149 -0.123932 1.09695e-20)
(0.874313 0.201255 1.78278e-22)
(0.793311 0.443932 -1.4639e-22)
(0.804664 0.514021 5.27896e-21)
(0.865442 0.337755 -5.19836e-21)
(1.03424 0.0353218 0)
(1.1047 -0.302924 0)
(1.03678 -0.513601 -1.65318e-22)
(0.998384 -0.407659 0)
(0.903918 -0.0620421 5.2143e-21)
(0.914592 0.397688 -1.05125e-21)
(1.08203 0.552457 -3.12755e-21)
(1.12277 0.0993397 -1.71582e-21)
(0.964979 -0.424271 1.15982e-21)
(0.953351 -0.208049 -1.95855e-22)
(1.0137 0.299251 0)
(0.929914 0.206877 -2.8675e-22)
(0.888284 -0.121579 2.71831e-22)
(0.947697 -0.103303 7.70261e-23)
(1.01528 0.0897573 6.92577e-23)
(0.943687 0.160486 -3.52637e-23)
(0.857003 -0.0711194 7.74607e-23)
(0.900423 -0.0261861 0)
(0.909351 0.0644316 -1.48154e-23)
(1.06408 -0.155861 4.15604e-20)
(1.00721 -0.113455 1.20646e-20)
(0.991002 -0.0844644 -1.55731e-20)
(0.896457 0.0415786 1.80609e-20)
(0.782452 0.313911 -1.34505e-20)
(0.955746 0.391235 -2.18979e-23)
(1.25238 0.156899 0)
(1.36281 -0.0903645 -2.13585e-22)
(1.33957 -0.232286 -1.87474e-22)
(1.22648 -0.364373 0)
(1.11394 -0.360429 -1.24776e-20)
(1.08519 -0.29865 1.18715e-20)
(0.981108 -0.450972 1.49635e-22)
(0.901427 -0.512509 1.21056e-20)
(0.952341 -0.1951 -1.1469e-20)
(0.862652 0.144896 1.96253e-22)
(0.765446 0.398823 1.54876e-22)
(0.755884 0.507958 0)
(0.82841 0.35791 4.91022e-21)
(1.03369 0.0622877 -4.66183e-21)
(1.11222 -0.267184 -2.5871e-21)
(1.02516 -0.491891 -8.15644e-22)
(0.977102 -0.408775 3.26184e-21)
(0.867538 -0.0948833 -5.30056e-21)
(0.868067 0.337716 1.62108e-21)
(1.03623 0.53079 5.15636e-21)
(1.09991 0.143235 -1.48387e-21)
(0.96259 -0.392104 1.66072e-21)
(0.935606 -0.23061 -1.2007e-21)
(1.00083 0.28607 0)
(0.926531 0.224169 0)
(0.883882 -0.114595 0)
(0.941792 -0.115053 5.0984e-23)
(1.01212 0.0849824 -7.73358e-23)
(0.95062 0.171652 1.5097e-22)
(0.864377 -0.0660842 -1.05394e-22)
(0.906899 -0.0308627 -3.5088e-23)
(0.920353 0.0638255 0)
(1.07641 -0.0890831 0)
(1.03542 -0.0532954 0)
(0.995013 -0.0313054 0)
(0.956633 0.068825 0)
(0.956118 0.199737 0)
(1.14396 0.236418 0)
(1.33212 0.0830899 0)
(1.34094 -0.0906196 0)
(1.31108 -0.163397 0)
(1.23833 -0.278566 0)
(1.11937 -0.316044 0)
(1.10518 -0.235401 0)
(1.02062 -0.386835 0)
(0.891921 -0.537266 0)
(0.906263 -0.248841 0)
(0.827662 0.155891 0)
(0.712011 0.423489 0)
(0.720451 0.500086 0)
(0.836162 0.316295 0)
(1.06136 0.047977 0)
(1.13001 -0.232571 0)
(1.01271 -0.477544 0)
(0.945851 -0.425755 0)
(0.840914 -0.103319 0)
(0.832573 0.305295 0)
(0.995633 0.526144 0)
(1.09637 0.172832 0)
(0.960052 -0.367933 0)
(0.918137 -0.247633 0)
(0.989414 0.276321 0)
(0.920327 0.24123 0)
(0.880857 -0.109884 0)
(0.936232 -0.12626 0)
(1.00701 0.0798387 0)
(0.956858 0.183093 0)
(0.873176 -0.0601118 0)
(0.913353 -0.0358557 0)
(0.933053 0.062973 0)
(1.08281 -0.0438808 0)
(1.0618 -0.0244912 0)
(1.03134 -0.017379 0)
(1.01289 0.0515158 0)
(1.05404 0.131128 0)
(1.15888 0.133098 0)
(1.26893 0.0428739 0)
(1.27635 -0.0633784 0)
(1.23619 -0.164327 0)
(1.18821 -0.257527 0)
(1.0796 -0.275732 0)
(1.04152 -0.256216 0)
(0.976951 -0.375719 0)
(0.867352 -0.466196 0)
(0.853674 -0.172409 0)
(0.747933 0.222593 0)
(0.644982 0.448912 0)
(0.704938 0.470496 0)
(0.868137 0.240987 0)
(1.09613 -0.0378696 0)
(1.13145 -0.257736 0)
(0.97026 -0.435968 0)
(0.888827 -0.360035 0)
(0.781596 -0.0553961 0)
(0.761599 0.298049 0)
(0.950909 0.483293 0)
(1.09213 0.145797 0)
(0.954 -0.345906 0)
(0.902866 -0.236327 0)
(0.965933 0.286546 0)
(0.909408 0.250308 0)
(0.887039 -0.115067 0)
(0.939693 -0.138918 0)
(1.00304 0.0773116 0)
(0.963257 0.196659 0)
(0.884475 -0.0559508 0)
(0.920474 -0.0434616 0)
(0.947563 0.0612926 0)
(1.08401 -0.0132991 0)
(1.07716 -0.00644525 0)
(1.06368 0.00704783 0)
(1.04949 0.0368665 0)
(1.08518 0.0681034 0)
(1.13891 0.079201 0)
(1.19913 0.0046493 0)
(1.21216 -0.0646877 0)
(1.19565 -0.113973 0)
(1.15771 -0.193312 0)
(1.07157 -0.219759 0)
(1.06803 -0.179534 0)
(1.01588 -0.283306 0)
(0.843323 -0.431365 0)
(0.758264 -0.156341 0)
(0.637731 0.282218 0)
(0.604357 0.445835 0)
(0.748951 0.386082 0)
(0.93673 0.14225 0)
(1.10923 -0.0636041 0)
(1.13799 -0.199783 0)
(0.966665 -0.38711 0)
(0.827651 -0.341795 0)
(0.695098 -0.042227 0)
(0.670321 0.25593 0)
(0.917429 0.419241 0)
(1.1121 0.154142 0)
(0.962365 -0.308303 0)
(0.887797 -0.245293 0)
(0.941539 0.277904 0)
(0.906509 0.256738 0)
(0.900415 -0.117386 0)
(0.948464 -0.151923 0)
(0.999375 0.0736216 0)
(0.968774 0.209251 0)
(0.896856 -0.0501298 0)
(0.926039 -0.0510823 0)
(0.961126 0.0592919 0)
(1.08311 0.0068921 0)
(1.07988 0.00629986 0)
(1.07658 0.00847386 0)
(1.07396 0.0258099 0)
(1.08892 0.0296204 0)
(1.12087 0.0353108 0)
(1.15644 -0.0119518 0)
(1.15796 -0.0529238 0)
(1.14436 -0.110663 0)
(1.12121 -0.161199 0)
(1.04184 -0.189548 0)
(1.00627 -0.212821 0)
(0.971932 -0.256919 0)
(0.829024 -0.309262 0)
(0.667997 -0.0467166 0)
(0.568241 0.318155 0)
(0.668507 0.377183 0)
(0.869667 0.296479 0)
(1.03335 0.0760132 0)
(1.12249 -0.1191 0)
(1.11729 -0.200067 0)
(0.962223 -0.30965 0)
(0.762649 -0.251199 0)
(0.586021 0.0167268 0)
(0.587624 0.211885 0)
(0.883597 0.328922 0)
(1.11656 0.12561 0)
(0.976862 -0.265103 0)
(0.860454 -0.230871 0)
(0.906634 0.273773 0)
(0.906618 0.260013 0)
(0.924381 -0.123865 0)
(0.965473 -0.164825 0)
(1.00145 0.06952 0)
(0.978012 0.221939 0)
(0.911873 -0.0437999 0)
(0.93012 -0.0602052 0)
(0.974242 0.0556959 0)
(1.0778 0.0156297 0)
(1.08163 0.0122723 0)
(1.0796 0.00836028 0)
(1.08072 0.0178209 0)
(1.0885 0.0067268 0)
(1.10432 0.0141734 0)
(1.1187 -0.0265923 0)
(1.12336 -0.0498505 0)
(1.11225 -0.0859202 0)
(1.08954 -0.129523 0)
(1.04971 -0.134835 0)
(1.01182 -0.136157 0)
(0.95156 -0.168024 0)
(0.836237 -0.224775 0)
(0.689017 0.00772799 0)
(0.662491 0.292973 0)
(0.836312 0.268665 0)
(1.00981 0.184091 0)
(1.10653 0.0173027 0)
(1.12543 -0.108937 0)
(1.09945 -0.139366 0)
(0.980631 -0.229922 0)
(0.769985 -0.170885 0)
(0.561443 0.0499265 0)
(0.578799 0.133154 0)
(0.857419 0.217075 0)
(1.11575 0.108977 0)
(1.00782 -0.214006 0)
(0.836097 -0.21559 0)
(0.848218 0.264358 0)
(0.911686 0.250624 0)
(0.958775 -0.13398 0)
(0.986608 -0.174195 0)
(1.00062 0.0670131 0)
(0.983911 0.233089 0)
(0.92945 -0.0366001 0)
(0.932756 -0.0691549 0)
(0.986037 0.0511205 0)
(1.07119 0.0192748 0)
(1.07821 0.01426 0)
(1.07577 0.00603208 0)
(1.08053 0.0125811 0)
(1.08122 -0.00554679 0)
(1.08956 0.00179764 0)
(1.09585 -0.0308378 0)
(1.09333 -0.0433946 0)
(1.08624 -0.0698599 0)
(1.06402 -0.103339 0)
(1.02493 -0.107053 0)
(0.992516 -0.126358 0)
(0.963037 -0.127989 0)
(0.876708 -0.136174 0)
(0.774462 0.0515588 0)
(0.820068 0.222836 0)
(0.979017 0.155482 0)
(1.09285 0.127175 0)
(1.13171 0.0151134 0)
(1.09962 -0.111076 0)
(1.05806 -0.122932 0)
(0.969341 -0.164359 0)
(0.821743 -0.0692606 0)
(0.674888 0.110268 0)
(0.694404 0.0754966 0)
(0.86892 0.0964325 0)
(1.1056 0.0633094 0)
(1.03245 -0.158106 0)
(0.826906 -0.172553 0)
(0.799748 0.254089 0)
(0.948034 0.22492 0)
(1.0038 -0.147828 0)
(1.00906 -0.179499 0)
(0.998136 0.0682403 0)
(0.991806 0.243554 0)
(0.954687 -0.0281305 0)
(0.936831 -0.0784014 0)
(0.997375 0.0445432 0)
(1.06289 0.0181604 0)
(1.07251 0.0144008 0)
(1.06893 0.00419456 0)
(1.07504 0.00875358 0)
(1.0721 -0.0103318 0)
(1.07597 -0.00433186 0)
(1.07762 -0.0299534 0)
(1.07008 -0.0381461 0)
(1.06717 -0.0552406 0)
(1.04612 -0.079465 0)
(1.02646 -0.0721474 0)
(0.996057 -0.0881183 0)
(0.970809 -0.068019 0)
(0.908838 -0.0772547 0)
(0.857543 0.0392821 0)
(0.935823 0.156951 0)
(1.0249 0.0874806 0)
(1.08474 0.0780977 0)
(1.1234 0.0116146 0)
(1.08154 -0.0760594 0)
(1.04501 -0.062161 0)
(0.970435 -0.103089 0)
(0.867501 -0.0295057 0)
(0.847148 0.130625 0)
(0.897956 0.0487941 0)
(0.934866 0.0232206 0)
(1.09441 0.039026 0)
(1.06322 -0.100551 0)
(0.861487 -0.128307 0)
(0.822642 0.221808 0)
(1.02853 0.185231 0)
(1.05442 -0.152394 0)
(1.02014 -0.176864 0)
(0.993149 0.0682601 0)
(1.00545 0.249316 0)
(0.986888 -0.0170764 0)
(0.94377 -0.0848741 0)
(1.00767 0.0368559 0)
(1.05535 0.0161725 0)
(1.06487 0.0133559 0)
(1.06123 0.00320551 0)
(1.06636 0.00613911 0)
(1.06335 -0.0108333 0)
(1.06292 -0.00645847 0)
(1.06458 -0.0259003 0)
(1.05347 -0.0312001 0)
(1.0553 -0.0398828 0)
(1.03306 -0.0599773 0)
(1.0232 -0.048306 0)
(0.996367 -0.0678501 0)
(0.978357 -0.0442121 0)
(0.953716 -0.0400084 0)
(0.914866 0.020419 0)
(0.981996 0.099601 0)
(1.03207 0.0488993 0)
(1.05727 0.0558213 0)
(1.09503 0.0170017 0)
(1.04955 -0.0628133 0)
(1.02805 -0.0429494 0)
(0.992305 -0.060744 0)
(0.913103 -0.0166034 0)
(0.951715 0.113594 0)
(1.02229 0.0404485 0)
(0.994111 -0.0073676 0)
(1.06763 0.010173 0)
(1.06152 -0.0576022 0)
(0.911677 -0.0810456 0)
(0.890004 0.181539 0)
(1.09946 0.144525 0)
(1.09266 -0.142762 0)
(1.00716 -0.158814 0)
(0.950951 0.070478 0)
(0.99779 0.248071 0)
(1.02127 -0.00715246 0)
(0.956199 -0.0890594 0)
(1.01566 0.0277967 0)
(1.04861 0.0139719 0)
(1.05628 0.0117698 0)
(1.05388 0.00329266 0)
(1.05696 0.00428305 0)
(1.05518 -0.0083163 0)
(1.05183 -0.00700952 0)
(1.05429 -0.0194407 0)
(1.04181 -0.0247398 0)
(1.04526 -0.0282427 0)
(1.02672 -0.0436746 0)
(1.02056 -0.0319551 0)
(1.00603 -0.045513 0)
(0.986599 -0.0251376 0)
(0.982674 -0.0172759 0)
(0.955272 0.00705699 0)
(0.997648 0.0624806 0)
(1.02752 0.0293078 0)
(1.03376 0.0328104 0)
(1.07263 0.0160859 0)
(1.0397 -0.0391559 0)
(1.01666 -0.0178824 0)
(1.00557 -0.0261162 0)
(0.948394 -0.016696 0)
(0.985792 0.0780926 0)
(1.05367 0.0277986 0)
(1.02212 -0.00869031 0)
(1.04415 0.00910846 0)
(1.04405 -0.025092 0)
(0.950537 -0.0536465 0)
(0.945244 0.135052 0)
(1.12317 0.107606 0)
(1.09983 -0.118666 0)
(0.980057 -0.118746 0)
(0.896316 0.0728506 0)
(0.998215 0.228677 0)
(1.06726 -0.00135037 0)
(0.978455 -0.087544 0)
(1.02385 0.0193586 0)
(1.04263 0.0122726 0)
(1.04784 0.0101105 0)
(1.0471 0.00395709 0)
(1.04803 0.00329341 0)
(1.04741 -0.00525988 0)
(1.04336 -0.00581847 0)
(1.04518 -0.0135813 0)
(1.03534 -0.0179994 0)
(1.03701 -0.0191795 0)
(1.02502 -0.0295322 0)
(1.01897 -0.0206682 0)
(1.01228 -0.0290634 0)
(0.995247 -0.0165726 0)
(0.999349 -0.00736594 0)
(0.982617 0.00138519 0)
(1.00302 0.0362556 0)
(1.02602 0.0172401 0)
(1.02281 0.0207109 0)
(1.04961 0.0138183 0)
(1.03181 -0.0245452 0)
(1.00894 -0.0105295 0)
(1.0144 -0.00984111 0)
(0.978631 -0.0143057 0)
(0.995446 0.0524931 0)
(1.04722 0.0202904 0)
(1.02211 -0.00607285 0)
(1.02793 0.00210811 0)
(1.03755 -0.00898812 0)
(0.97938 -0.0338599 0)
(0.971236 0.0973508 0)
(1.10841 0.0794855 0)
(1.08153 -0.0879758 0)
(0.962347 -0.0732185 0)
(0.888488 0.0607968 0)
(1.0329 0.1876 0)
(1.11808 0.00332638 0)
(1.00661 -0.0775843 0)
(1.02577 0.0126536 0)
(1.03721 0.0108578 0)
(1.04057 0.00881152 0)
(1.04055 0.00459036 0)
(1.04069 0.00311944 0)
(1.04031 -0.00234385 0)
(1.03716 -0.00375736 0)
(1.0377 -0.00853091 0)
(1.0312 -0.0118489 0)
(1.03105 -0.0125232 0)
(1.02409 -0.0187403 0)
(1.0187 -0.0133348 0)
(1.01592 -0.0178651 0)
(1.00438 -0.0100776 0)
(1.00763 -0.00312441 0)
(0.999712 -0.000388984 0)
(1.00767 0.0209762 0)
(1.02237 0.00999003 0)
(1.01885 0.0130314 0)
(1.03447 0.00997217 0)
(1.02764 -0.0115481 0)
(1.00972 -0.00280809 0)
(1.01601 0.000353953 0)
(0.996679 -0.00846789 0)
(0.999966 0.0345271 0)
(1.03753 0.0108339 0)
(1.02191 0.000868931 0)
(1.02122 0.00250135 0)
(1.0305 0.00150102 0)
(0.996878 -0.0184608 0)
(0.982729 0.0669932 0)
(1.08416 0.0578072 0)
(1.05958 -0.0555507 0)
(0.964605 -0.0315132 0)
(0.922476 0.0380656 0)
(1.06095 0.134883 0)
(1.13901 0.0103303 0)
(1.02296 -0.0550048 0)
(1.01833 0.0123879 0)
(1.03226 0.00974417 0)
(1.03449 0.00789853 0)
(1.03476 0.0051371 0)
(1.03473 0.00347676 0)
(1.03432 2.62979e-05 0)
(1.03219 -0.00157173 0)
(1.03195 -0.00453964 0)
(1.02798 -0.00696447 0)
(1.02711 -0.00742873 0)
(1.02305 -0.0111411 0)
(1.01934 -0.00797836 0)
(1.01766 -0.0103269 0)
(1.01068 -0.00591833 0)
(1.01256 -0.00135245 0)
(1.00851 -0.00059062 0)
(1.01171 0.0118957 0)
(1.01989 0.00557069 0)
(1.01752 0.0093992 0)
(1.02565 0.00695706 0)
(1.02259 -0.0037929 0)
(1.01172 0.000486603 0)
(1.01627 0.00305081 0)
(1.00688 -0.00397868 0)
(1.0061 0.0236098 0)
(1.03006 0.00445716 0)
(1.01809 0.00501294 0)
(1.01909 -0.000449471 0)
(1.02577 0.00465904 0)
(1.00953 -0.00740637 0)
(0.993117 0.04739 0)
(1.06235 0.0425767 0)
(1.04152 -0.0303446 0)
(0.979403 -0.00458166 0)
(0.961468 0.0143313 0)
(1.06243 0.0900847 0)
(1.12263 0.018769 0)
(1.0256 -0.030452 0)
(1.01714 0.0137001 0)
(1.02797 0.00881875 0)
(1.02955 0.00724446 0)
(1.02985 0.00551223 0)
(1.0298 0.00390246 0)
(1.02943 0.00180563 0)
(1.02812 0.000272787 0)
(1.02763 -0.00151684 0)
(1.02528 -0.00328522 0)
(1.02434 -0.00371077 0)
(1.02201 -0.00586808 0)
(1.01954 -0.00426453 0)
(1.01854 -0.00547713 0)
(1.01441 -0.00305424 0)
(1.01536 -0.000286581 0)
(1.01306 -0.000186537 0)
(1.01444 0.00731787 0)
(1.01827 0.00329456 0)
(1.01677 0.00735559 0)
(1.02121 0.00494092 0)
(1.01964 0.00114484 0)
(1.0138 0.00316185 0)
(1.01687 0.00489874 0)
(1.01157 -6.41123e-05 0)
(1.01037 0.0169053 0)
(1.02574 0.000191213 0)
(1.01661 0.00840031 0)
(1.01965 -0.000628983 0)
(1.02206 0.00745738 0)
(1.01574 0.000779152 0)
(1.00164 0.0339924 0)
(1.04814 0.0323907 0)
(1.03039 -0.0111638 0)
(0.995044 0.0123421 0)
(0.98926 -0.00348268 0)
(1.05416 0.0574758 0)
(1.09473 0.0265637 0)
(1.02583 -0.00927358 0)
(1.02464 0.0149132 0)
(1.02437 0.00802552 0)
(1.0255 0.00669536 0)
(1.02577 0.00566454 0)
(1.02578 0.00423767 0)
(1.02551 0.00301775 0)
(1.02477 0.00168399 0)
(1.02429 0.00058594 0)
(1.02294 -0.000685858 0)
(1.02214 -0.00111928 0)
(1.02084 -0.00236093 0)
(1.01929 -0.00172566 0)
(1.01867 -0.00228529 0)
(1.01622 -0.00113524 0)
(1.01669 0.000549398 0)
(1.01523 0.000399646 0)
(1.01585 0.00501344 0)
(1.01738 0.00229532 0)
(1.01658 0.00633394 0)
(1.01874 0.00393171 0)
(1.01798 0.00371619 0)
(1.01486 0.00425762 0)
(1.01695 0.0052278 0)
(1.01424 0.00183275 0)
(1.01323 0.0124905 0)
(1.02283 -0.00178146 0)
(1.01551 0.00953649 0)
(1.01998 -0.00244149 0)
(1.01963 0.00805684 0)
(1.01934 0.00519169 0)
(1.00836 0.0250861 0)
(1.03853 0.0259704 0)
(1.02342 0.00126145 0)
(1.00688 0.0193223 0)
(1.00833 -0.0174598 0)
(1.046 0.0359373 0)
(1.07053 0.0319389 0)
(1.02756 0.00303369 0)
(1.03167 0.0132081 0)
(1.02135 0.00728886 0)
(1.02221 0.00617546 0)
(1.02244 0.00563337 0)
(1.02254 0.00442032 0)
(1.02234 0.00375467 0)
(1.02199 0.00265108 0)
(1.0216 0.00195776 0)
(1.02088 0.00106839 0)
(1.02027 0.000605801 0)
(1.0196 -5.49739e-05 0)
(1.0186 -4.99123e-06 0)
(1.0183 -0.000213004 0)
(1.01678 0.000223039 0)
(1.01709 0.0012504 0)
(1.01601 0.00104517 0)
(1.01644 0.00399216 0)