/*--------------------------------*- C++ -*----------------------------------*\
| =========                 |                                                 |
| \\      /  F ield         | OpenFOAM: The Open Source CFD Toolbox           |
|  \\    /   O peration     | Version:  2512                                  |
|   \\  /    A nd           | Website:  www.openfoam.com                      |
|    \\/     M anipulation  |                                                 |
\*---------------------------------------------------------------------------*/
FoamFile
{
    version     2.0;
    format      ascii;
    arch        "LSB;label=32;scalar=64";
    class       surfaceScalarField;
    location    "98.4";
    object      phi;
}
// * * * * * * * * * * * * * * * * * * * * * * * * * * * * * * * * * * * * * //

dimensions      [0 3 -1 0 0 0 0];

oriented        oriented;

internalField   nonuniform List<scalar> 
26232
(
-0.000439819
0.00103275
-0.000592933
-0.00122129
0.00193371
-0.00115223
-0.00185332
0.00204872
-0.00141669
-0.00188699
0.00136579
-0.00133212
-0.000902415
-0.000276484
-0.000708091
0.00148635
-0.003061
0.000672231
0.00566688
-0.00716681
0.00298628
0.0119255
-0.0126648
0.00640621
0.020413
-0.0194757
0.0109882
0.0310775
-0.02735
0.0166855
0.0436423
-0.0359013
0.0233364
0.0576312
-0.0446749
0.030686
0.0724321
-0.0532256
0.0384247
0.0873798
-0.0611825
0.0462348
0.101839
-0.0682873
0.0538283
0.115273
-0.0744138
0.06098
0.127309
-0.0795577
0.0675217
0.137722
-0.0838266
0.0734127
0.146595
-0.0873976
0.0785249
0.153967
-0.0905538
0.0831822
0.160423
-0.0933928
0.0869367
0.166097
-0.0965829
0.0909087
0.171365
-0.0992706
0.0940021
-0.103296
0.0980976
0.176564
-0.000200156
0.00123291
-0.000429066
0.00216262
-0.000236231
0.00185589
0.000847856
0.000281706
0.00328385
-0.00271248
0.00751143
-0.00728858
0.0138685
-0.0135239
0.0225038
-0.0213001
0.0332912
-0.0302631
0.0458101
-0.0398689
0.0594057
-0.0494969
0.073305
-0.0585741
0.0867494
-0.06667
0.0991122
-0.0735453
0.109982
-0.0791572
0.119202
-0.0836337
0.126862
-0.0872175
0.133262
-0.0902266
0.13881
-0.0929456
0.143922
-0.0956664
0.149004
-0.0984745
0.154016
-0.101595
0.159367
-0.104621
-0.108413
0.164484
-1.41496e-05
0.00124706
0.000265477
0.00188299
0.00128868
0.000832686
0.00355707
-0.00198669
0.00756899
-0.00672439
0.0137337
-0.0134533
0.0222268
-0.0220171
0.0328683
-0.0319416
0.0451002
-0.042495
0.0580956
-0.0528643
0.0709452
-0.0623465
0.0828492
-0.0704781
0.0932607
-0.0770815
0.101956
-0.0822402
0.109026
-0.0862278
0.114804
-0.0894112
0.119745
-0.0921591
0.124287
-0.0947687
0.128762
-0.0974197
0.133325
-0.10023
0.137971
-0.103121
0.142648
-0.106272
0.147285
-0.109258
-0.112848
0.15172
0.000119248
0.00112781
0.000862783
0.00113946
0.00273074
-0.00103527
0.00626917
-0.00552512
0.0119621
-0.0124173
0.0200483
-0.0215395
0.0303293
-0.0322981
0.0421304
-0.0437427
0.0544658
-0.0548304
0.0663143
-0.0647128
0.0768737
-0.0729059
0.0857144
-0.0793188
0.0928072
-0.0841743
0.0984425
-0.0878756
0.10308
-0.090865
0.107184
-0.0935157
0.111105
-0.0960803
0.115025
-0.0986881
0.118999
-0.101395
0.122973
-0.104203
0.126967
-0.107115
0.130894
-0.110199
0.134881
-0.113246
-0.116844
0.138877
0.000238318
0.000889492
0.001459
-8.12207e-05
0.00424764
-0.00382392
0.00916296
-0.0104404
0.0165447
-0.0197991
0.0262356
-0.0312303
0.0374853
-0.0435478
0.0491651
-0.0554225
0.0601486
-0.0658139
0.0696365
-0.0742007
0.0773061
-0.0805755
0.0832777
-0.0852903
0.0879554
-0.088852
0.0918263
-0.0917465
0.0952994
-0.094338
0.0986316
-0.0968479
0.101937
-0.0993861
0.105253
-0.102004
0.108582
-0.104723
0.111944
-0.107565
0.115359
-0.11053
0.11881
-0.113649
0.122374
-0.11681
-0.120345
0.125874
0.000384748
0.000504744
0.00216367
-0.00186014
0.00597729
-0.00763754
0.0123052
-0.0167684
0.0211196
-0.0286135
0.0316737
-0.0417843
0.0427198
-0.0545939
0.0530114
-0.0657141
0.0617191
-0.0745215
0.068578
-0.0810596
0.0737927
-0.0857901
0.0778132
-0.0893109
0.0811132
-0.0921519
0.0840523
-0.0946857
0.0868456
-0.0971313
0.0895985
-0.0996009
0.0923623
-0.10215
0.0951614
-0.104803
0.0980135
-0.107575
0.100913
-0.110465
0.103854
-0.113471
0.106803
-0.116599
0.109788
-0.119795
-0.123259
0.112703
0.000584322
-7.9578e-05
0.00301387
-0.00428969
0.00791837
-0.012542
0.0154994
-0.0243494
0.0251472
-0.0382613
0.0355517
-0.0521888
0.0453157
-0.064358
0.0535106
-0.073909
0.0598544
-0.0808654
0.0645709
-0.0857762
0.0681189
-0.0893381
0.0709584
-0.0921503
0.0734306
-0.0946242
0.0757439
-0.0969989
0.0780092
-0.0993966
0.0802814
-0.101873
0.0825819
-0.10445
0.084915
-0.107136
0.0872726
-0.109933
0.0896495
-0.112842
0.0920464
-0.115868
0.0944565
-0.119009
0.0969136
-0.122252
-0.125688
0.0993423
0.000834732
-0.000914311
0.00398427
-0.00743923
0.00991839
-0.0184762
0.0183391
-0.0327701
0.0280032
-0.0479254
0.0373464
-0.061532
0.0452475
-0.0722591
0.0513128
-0.0799743
0.0557244
-0.085277
0.0589314
-0.0889832
0.061395
-0.0918017
0.0634633
-0.0942187
0.0653531
-0.0965139
0.0671799
-0.0988258
0.0689966
-0.101213
0.0708213
-0.103698
0.0726583
-0.106287
0.074508
-0.108986
0.0763742
-0.111799
0.0782613
-0.114729
0.0801682
-0.117775
0.0820893
-0.12093
0.0840276
-0.12419
-0.127575
0.085915
0.00112333
-0.00203764
0.00499271
-0.0113086
0.0117294
-0.0252128
0.0203901
-0.0414308
0.0293045
-0.0568398
0.0370638
-0.0692913
0.0430454
-0.0782407
0.0473183
-0.0842472
0.0503018
-0.0882605
0.0524689
-0.0911502
0.0541903
-0.0935232
0.0556998
-0.0957282
0.0571208
-0.0979349
0.0585084
-0.100213
0.0598836
-0.102589
0.0612553
-0.105069
0.0626285
-0.10766
0.0640073
-0.110365
0.0653931
-0.113185
0.0667841
-0.11612
0.0681776
-0.119168
0.0695719
-0.122324
0.0709683
-0.125586
-0.128952
0.0723453
0.00142568
-0.00346332
0.00592708
-0.01581
0.0130916
-0.0323773
0.0213731
-0.0497123
0.0290361
-0.0645028
0.0350889
-0.0753441
0.0393828
-0.0825345
0.0422644
-0.0871289
0.0442158
-0.0902119
0.0456419
-0.0925763
0.0468056
-0.0946869
0.0478474
-0.09677
0.0488316
-0.0989191
0.0497849
-0.101167
0.0507193
-0.103523
0.0516403
-0.10599
0.0525513
-0.108571
0.0534543
-0.111268
0.0543514
-0.114082
0.0552443
-0.117013
0.0561331
-0.120057
0.0570167
-0.123208
0.0578914
-0.126461
-0.129802
0.058741
0.00171358
-0.0051769
0.0066708
-0.0207672
0.0138192
-0.0395258
0.0212415
-0.0571346
0.0274483
-0.0707097
0.0319165
-0.0798123
0.0348325
-0.0854505
0.0366614
-0.0889578
0.0378488
-0.0913993
0.038702
-0.0934295
0.0393915
-0.0953764
0.0399974
-0.0973759
0.0405534
-0.0994751
0.0410735
-0.101687
0.0415638
-0.104013
0.0420285
-0.106455
0.042471
-0.109014
0.0428955
-0.111692
0.0433051
-0.114491
0.0437006
-0.117408
0.044081
-0.120437
0.044443
-0.12357
0.0447804
-0.126799
-0.130118
0.0450969
0.00196072
-0.00713762
0.00713213
-0.0259386
0.0138509
-0.0462445
0.0201366
-0.0634203
0.0248958
-0.0754689
0.0279977
-0.0829141
0.0298203
-0.0872732
0.0308402
-0.0899776
0.0314236
-0.0919826
0.0317871
-0.093793
0.0320358
-0.0956251
0.032214
-0.097554
0.0323393
-0.0996004
0.0324196
-0.101767
0.0324597
-0.104053
0.0324636
-0.106459
0.032435
-0.108985
0.0323769
-0.111634
0.0322916
-0.114406
0.0321814
-0.117298
0.0320477
-0.120304
0.03189
-0.123412
0.0317042
-0.126613
0.0314926
-0.129907
-0.000134687
-0.00866263
0.00879732
-0.000947295
-0.0181317
0.0189443
-0.00244748
-0.022544
0.0240441
-0.00449943
-0.0240145
0.0260664
-0.00693516
-0.0241018
0.0265375
-0.00961693
-0.0236718
0.0263536
-0.0124325
-0.0230077
0.0258233
-0.0152852
-0.0220563
0.024909
-0.0180852
-0.0206443
0.0234444
-0.0207466
-0.0185914
0.0212527
-0.0231906
-0.0157442
0.0181882
-0.0253528
-0.0119827
0.0141449
-0.027186
-0.00721778
0.00905097
-0.0286648
-0.00136932
0.00284812
-0.0296943
0.00522291
-0.00419342
-0.0302818
0.0128611
-0.0122736
-0.0303779
0.0213818
-0.0212857
-0.0299231
0.0306441
-0.0310989
-0.0288606
0.04046
-0.0415224
-0.0271752
0.0505824
-0.0522678
-0.0249175
0.0607112
-0.0629689
-0.0221671
0.0705096
-0.07326
-0.0190662
0.079655
-0.0827559
0.0879273
-0.0158036
-0.0911899
-0.000475835
-0.0081868
-0.00184217
-0.0167654
-0.0039216
-0.0204645
-0.00654438
-0.0213917
-0.00958568
-0.0210605
-0.0129544
-0.020303
-0.0165688
-0.0193933
-0.0203426
-0.0182825
-0.0241814
-0.0168056
-0.0279831
-0.0147896
-0.0316427
-0.0120846
-0.03506
-0.00856541
-0.0381602
-0.00411766
-0.040689
0.00115947
-0.0427359
0.00726983
-0.0441676
0.0142928
-0.0448892
0.0221034
-0.0448045
0.0305594
-0.0438125
0.039468
-0.0418112
0.0485811
-0.0387054
0.0576054
-0.0344141
0.0662183
-0.0287705
0.0740113
0.0806873
-0.0215304
-0.000720193
-0.0074666
-0.00244211
-0.0150435
-0.00485076
-0.0180559
-0.00775808
-0.0184844
-0.011074
-0.0177446
-0.0147473
-0.0166297
-0.0187206
-0.01542
-0.0229149
-0.0140882
-0.0272314
-0.0124891
-0.0315553
-0.0104657
-0.0357565
-0.00788343
-0.0396987
-0.00462315
-0.0432467
-0.000569638
-0.0461498
0.00406254
-0.0484072
0.00952725
-0.049818
0.0157036
-0.050212
0.0224974
-0.0494157
0.0297631
-0.0472474
0.0372998
-0.043517
0.0448506
-0.0380006
0.052089
-0.0304793
0.058697
-0.0207999
0.064332
0.0684002
-0.00851286
-0.00085931
-0.00660729
-0.00274898
-0.0131538
-0.00526009
-0.0155448
-0.00818707
-0.0155574
-0.0114565
-0.0144752
-0.0150415
-0.0130447
-0.0189012
-0.0115603
-0.0229606
-0.0100288
-0.0271147
-0.00833493
-0.031236
-0.00634451
-0.0351772
-0.00394224
-0.0387689
-0.00103142
-0.0417528
0.00241431
-0.0440946
0.00640428
-0.0455165
0.0109492
-0.0458052
0.0159922
-0.0447379
0.0214301
-0.042085
0.0271102
-0.037607
0.0328218
-0.0310698
0.0383135
-0.0222588
0.0432779
-0.0108592
0.0472974
0.00307929
0.0503935
0.0510096
0.0204698
-0.000914324
-0.00569297
-0.00283623
-0.0112319
-0.00529455
-0.0130864
-0.00805673
-0.0127952
-0.0110427
-0.0114892
-0.0142305
-0.00985685
-0.017587
-0.00820391
-0.0210382
-0.00657762
-0.0244713
-0.00490174
-0.0277441
-0.00307176
-0.0306849
-0.00100139
-0.0331317
0.0014153
-0.0348673
0.00414997
-0.0356893
0.00722626
-0.0353608
0.0106207
-0.0336378
0.0142692
-0.0302714
0.0180637
-0.0250147
0.0218536
-0.0176451
0.0254522
-0.00790153
0.0285699
0.00422209
0.0311543
0.0192801
0.0322394
0.0364098
0.0332638
0.0300003
0.0574191
-0.000923496
-0.00476947
-0.00281447
-0.00934092
-0.00515772
-0.0107432
-0.00768388
-0.0102691
-0.0102854
-0.00888778
-0.0129265
-0.00721566
-0.0155719
-0.00555855
-0.0181481
-0.00400137
-0.0205379
-0.002512
-0.0225908
-0.00101889
-0.0241649
0.000572771
-0.0250285
0.00227887
-0.0249939
0.00411536
-0.0238443
0.00607664
-0.0213514
0.0081279
-0.0172845
0.0102022
-0.0114193
0.0121986
-0.00355318
0.0139875
0.00644723
0.0154518
0.0188959
0.0161212
0.033398
0.0166522
0.0508861
0.0147512
0.0697698
0.0143802
0.00776439
0.0920057
-0.00092599
-0.00384348
-0.00279003
-0.00747689
-0.00504131
-0.00849191
-0.00737059
-0.00793979
-0.0096321
-0.00662627
-0.0117634
-0.00508437
-0.0137184
-0.00360355
-0.0154247
-0.0022951
-0.0167744
-0.00116228
-0.0176258
-0.000167508
-0.0178055
0.000752541
-0.0171223
0.00159558
-0.0153849
0.00237802
-0.0123932
0.00308495
-0.0079499
0.00368458
-0.00186823
0.00412055
0.00602275
0.0043076
0.015879
0.00413124
0.0277556
0.00357515
0.041908
0.0019688
0.0578629
0.000697383
0.0765465
-0.00393234
0.0963292
-0.00540262
-0.0149858
0.119079
-0.000944205
-0.00289928
-0.00281922
-0.00560187
-0.00504438
-0.00626676
-0.00727696
-0.00570722
-0.00933484
-0.00456838
-0.011125
-0.00329416
-0.0125837
-0.00214493
-0.0136365
-0.00124226
-0.0141778
-0.000620952
-0.0140707
-0.000274652
-0.0131329
-0.000185228
-0.0111902
-0.000347166
-0.00804993
-0.000762215
-0.00351857
-0.00144641
0.00258553
-0.00241952
0.0104421
-0.00373602
0.0202015
-0.00545185
0.0319713
-0.00763852
0.0458809
-0.0103345
0.0618964
-0.0140467
0.0800664
-0.0174726
0.100388
-0.0242536
0.122426
-0.0274413
-0.0391459
0.146586
-0.000969857
-0.00192942
-0.00287256
-0.00369917
-0.00510732
-0.004032
-0.00730915
-0.00350538
-0.00926571
-0.00261183
-0.0108505
-0.00170942
-0.0119682
-0.00102718
-0.0125167
-0.000693818
-0.0123632
-0.000774448
-0.0113387
-0.0012991
-0.0092431
-0.00228084
-0.00585796
-0.0037323
-0.00096436
-0.00565581
0.00564053
-0.0080513
0.0141458
-0.0109247
0.0246987
-0.014289
0.0373741
-0.0181272
0.0522172
-0.0224816
0.0692609
-0.0273782
0.0881131
-0.0328988
0.10929
-0.03865
0.131212
-0.0461753
0.155383
-0.051612
-0.0628243
0.179061
-0.000962984
-0.000966435
-0.00283292
-0.00182923
-0.00500541
-0.00185951
-0.00710001
-0.00141078
-0.00886909
-0.00084275
-0.0101319
-0.000446573
-0.0107316
-0.000427539
-0.010496
-0.000929409
-0.00922061
-0.00204982
-0.00666873
-0.00385098
-0.00258948
-0.00636009
0.0032478
-0.00956958
0.0110393
-0.0134473
0.0209187
-0.0179307
0.0329292
-0.0229353
0.0470443
-0.028404
0.063107
-0.03419
0.0809714
-0.040346
0.100262
-0.0466687
0.120584
-0.0532208
0.14187
-0.059936
0.162437
-0.0667423
0.18399
-0.073165
-0.0809584
0.202124
-0.000874256
-9.21794e-05
-0.00255691
-0.000146579
-0.00445929
4.28711e-05
-0.00618685
0.000316777
-0.00743617
0.00040657
-0.00794803
6.52903e-05
-0.00748756
-0.000888012
-0.0057904
-0.00262657
-0.00257695
-0.00526327
0.00241393
-0.00884186
0.00939352
-0.0133397
0.01849
-0.018666
0.029715
-0.0246723
0.0429591
-0.0311748
0.0579957
-0.0379719
0.0744897
-0.0448981
0.0920332
-0.0517335
0.110176
-0.058489
0.128321
-0.0648138
0.146146
-0.0710456
0.162867
-0.0766567
0.178186
-0.0820618
0.192097
-0.0870755
-0.0913139
0.202452
-0.000685113
-0.00198393
-0.00335775
-0.0043731
-0.00467462
-0.00393709
-0.00183882
0.00194082
0.00766575
0.0155094
0.0255061
0.0375261
0.0512785
0.0663385
0.0821949
0.0982768
0.114065
0.128989
0.1427
0.154837
0.165117
0.173964
0.18089
0.187674
-0.0101344
0.128577
-0.134247
-0.00321222
0.136846
-0.143768
0.00716225
0.138904
-0.149279
0.0222583
0.132961
-0.148057
0.0421715
0.116749
-0.136663
0.0650143
0.0904177
-0.11326
0.0872685
0.0570211
-0.0792752
0.106171
0.0187959
-0.0376987
0.121672
-0.0260485
0.0105482
0.13468
-0.0769379
0.0639299
0.144906
-0.124908
0.114682
0.15144
-0.159321
0.152788
0.154276
-0.176261
0.173424
0.153941
-0.179887
0.180221
0.151595
-0.17817
0.180516
0.148864
-0.175267
0.177998
0.145693
-0.172639
0.175809
0.14024
-0.17684
0.182293
0.131955
-0.191729
0.200014
0.123409
-0.204243
0.212789
0.11832
-0.187585
0.192673
0.118677
-0.126603
0.126246
0.124731
-0.0325741
0.0265195
0.133934
0.0657814
-0.0749839
0.143337
0.144153
-0.153556
0.150914
0.192982
-0.200559
0.156863
0.212296
-0.218246
0.16047
0.215651
-0.219257
0.159992
0.227223
-0.226746
0.15474
0.2547
-0.249448
0.145669
0.274693
-0.265622
0.135399
0.257593
-0.247322
0.127592
0.186014
-0.178207
0.125217
0.0703742
-0.0679984
0.128029
-0.0579022
0.0550897
0.134455
-0.162707
0.156281
0.140879
-0.224695
0.218272
0.14156
-0.252422
0.251741
0.134206
-0.267662
0.275015
0.122864
-0.276741
0.288083
0.113711
-0.245773
0.254926
0.11185
-0.164515
0.166376
0.117735
-0.0389609
0.0330762
0.12587
0.0792215
-0.0873568
0.128836
0.180026
-0.182992
0.126353
0.2665
-0.264017
0.122462
0.298303
-0.294412
0.1205
0.289994
-0.288033
0.120838
0.174232
-0.174569
0.122948
0.0354681
-0.037578
0.121821
-0.128307
0.129433
0.119487
-0.283109
0.285443
0.117513
-0.307574
0.309548
0.11719
-0.317276
0.3176
0.113657
-0.0697773
0.0733104
0.111133
0.143961
-0.141438
0.109455
0.230634
-0.228956
0.108327
0.403407
-0.402279
0.102889
0.141315
-0.135877
-0.0978537
0.101579
-0.00878969
0.115837
0.00649622
0.12156
0.0247025
0.120698
0.0459166
0.111747
0.0692668
0.0933993
0.0926866
0.0669978
0.113246
0.036462
0.129315
0.00272691
0.141704
-0.0384381
0.151325
-0.0865584
0.157566
-0.131149
0.159649
-0.161405
0.158228
-0.174839
0.154472
-0.176131
0.149361
-0.17306
0.144312
-0.170218
0.139291
-0.167617
0.131978
-0.169528
0.121478
-0.181229
0.110866
-0.193631
0.104964
-0.181682
0.106277
-0.127916
0.114683
-0.0409805
0.12705
0.053415
0.139428
0.131774
0.149877
0.182533
0.158457
0.203717
0.164437
0.209671
0.166643
0.225017
0.164206
0.257137
0.15721
0.281689
0.147578
0.267225
0.138862
0.19473
0.134078
0.0751574
0.133566
-0.0573898
0.136401
-0.165542
0.14037
-0.228665
0.13998
-0.252032
0.131866
-0.259547
0.120039
-0.264915
0.111586
-0.237319
0.1111
-0.164029
0.118128
-0.0459888
0.126498
0.0708514
0.129992
0.176531
0.128055
0.268437
0.124347
0.302011
0.122136
0.292205
0.121932
0.174436
0.123977
0.0334226
0.12207
-0.1264
0.118989
-0.280029
0.116311
-0.304896
0.116141
-0.317106
0.114323
-0.0679593
0.111923
0.14636
0.111137
0.231421
0.110076
0.404467
0.103543
0.147848
-0.0936448
0.0096954
0.0976283
0.0300022
0.101254
0.0518735
0.0988268
0.0747555
0.0888647
0.0975874
0.0705673
0.118691
0.0458943
0.136003
0.0191496
0.149074
-0.0103435
0.158795
-0.048159
0.165545
-0.0933094
0.1682
-0.133804
0.166167
-0.159372
0.160888
-0.169559
0.154305
-0.169548
0.147115
-0.16587
0.140188
-0.16329
0.133899
-0.161328
0.125717
-0.161346
0.113707
-0.169219
0.101025
-0.180949
0.0938835
-0.17454
0.0957705
-0.129803
0.105849
-0.0510592
0.120581
0.0386829
0.135555
0.1168
0.148736
0.169352
0.159867
0.192586
0.168372
0.201167
0.173576
0.219812
0.17439
0.256323
0.169889
0.28619
0.161113
0.276001
0.151359
0.204483
0.143953
0.0825637
0.140047
-0.053484
0.139142
-0.164637
0.140395
-0.229918
0.139141
-0.250778
0.130675
-0.251081
0.118328
-0.252568
0.110129
-0.229121
0.110719
-0.164619
0.118728
-0.053998
0.127532
0.0620476
0.1318
0.172264
0.13047
0.269766
0.126754
0.305727
0.124127
0.294832
0.123352
0.175212
0.125397
0.0313768
0.1229
-0.123902
0.119004
-0.276133
0.11558
-0.301471
0.115508
-0.317034
0.115459
-0.0679109
0.113227
0.148593
0.113231
0.231417
0.112355
0.405343
0.104872
0.155332
-0.0889343
0.0402576
0.0778405
0.0615492
0.079962
0.0834691
0.076907
0.104931
0.0674026
0.124871
0.0506277
0.142047
0.0287179
0.155488
0.00570905
0.165933
-0.0207888
0.17393
-0.0561563
0.178137
-0.0975162
0.177049
-0.132716
0.171108
-0.153431
0.162475
-0.160926
0.153535
-0.160609
0.144956
-0.15729
0.1367
-0.155034
0.129283
-0.153912
0.120938
-0.153
0.108705
-0.156986
0.0945479
-0.166792
0.0855764
-0.165569
0.0869258
-0.131152
0.0977505
-0.0618839
0.114134
0.0222999
0.131302
0.0996313
0.14699
0.153665
0.160545
0.179031
0.171607
0.190105
0.180064
0.211355
0.184585
0.251802
0.183011
0.287764
0.17533
0.283682
0.164514
0.215299
0.154504
0.0925738
0.147364
-0.0463438
0.142787
-0.16006
0.14096
-0.228092
0.138781
-0.248599
0.130409
-0.242708
0.117674
-0.239833
0.109281
-0.220727
0.110469
-0.165807
0.119419
-0.0629484
0.1289
0.0525669
0.134149
0.167015
0.133481
0.270434
0.129657
0.309551
0.126452
0.298037
0.125054
0.176609
0.127184
0.0292468
0.124277
-0.120995
0.119554
-0.27141
0.115331
-0.297248
0.115276
-0.31698
0.116982
-0.0696166
0.115114
0.150461
0.115749
0.230782
0.115136
0.405956
0.106856
0.163612
-0.0837319
0.0760334
0.0592262
0.0955556
0.0604399
0.115092
0.0573707
0.133365
0.0491296
0.149248
0.0347444
0.161872
0.0160941
0.171935
-0.00435416
0.180138
-0.0289913
0.186416
-0.0624348
0.187903
-0.0990025
0.183161
-0.127975
0.173891
-0.144161
0.162825
-0.14986
0.152237
-0.150021
0.142824
-0.147878
0.13397
-0.14618
0.12583
-0.145772
0.117533
-0.144703
0.105918
-0.145371
0.0911264
-0.152001
0.080074
-0.154516
0.0797988
-0.130877
0.0904081
-0.0724932
0.107689
0.00501882
0.126534
0.0807864
0.144278
0.13592
0.159898
0.163412
0.173418
0.176584
0.185162
0.199611
0.193608
0.243356
0.195698
0.285675
0.190028
0.289352
0.1783
0.227027
0.16554
0.105334
0.15521
-0.0360143
0.147148
-0.151997
0.142029
-0.222972
0.138754
-0.245325
0.130859
-0.234813
0.117974
-0.226949
0.108967
-0.21172
0.110222
-0.167062
0.120013
-0.0727389
0.130436
0.0421435
0.13697
0.160481
0.137161
0.270243
0.133152
0.31356
0.129175
0.302014
0.127045
0.17874
0.129311
0.0269811
0.126161
-0.117845
0.120634
-0.265883
0.115558
-0.292172
0.115394
-0.316816
0.118875
-0.073098
0.117496
0.15184
0.118659
0.229619
0.118385
0.40623
0.109473
0.172524
-0.0780662
0.108342
0.0428899
0.124916
0.043866
0.141096
0.0411901
0.155782
0.0344437
0.168031
0.0224958
0.177422
0.00670281
0.185239
-0.0121711
0.192193
-0.0359448
0.196375
-0.066617
0.194562
-0.0971899
0.186348
-0.11976
0.174481
-0.132294
0.161909
-0.137288
0.150398
-0.13851
0.140558
-0.138037
0.131526
-0.137148
0.122993
-0.137239
0.115016
-0.136726
0.104833
-0.135189
0.0905732
-0.137741
0.0775623
-0.141506
0.0745376
-0.127853
0.0838187
-0.0817743
0.101166
-0.0123282
0.1211
0.060852
0.140378
0.116643
0.157666
0.146123
0.173302
0.160948
0.188126
0.184787
0.200626
0.230856
0.206594
0.279707
0.203406
0.29254
0.19195
0.238482
0.176673
0.120611
0.163281
-0.0226221
0.152008
-0.140724
0.143514
-0.214478
0.138814
-0.240624
0.131671
-0.22767
0.119039
-0.214317
0.109128
-0.201809
0.109849
-0.167782
0.120337
-0.0832278
0.131977
0.0305038
0.140042
0.152416
0.141265
0.26902
0.137155
0.31767
0.132336
0.306833
0.129351
0.181725
0.131744
0.0245881
0.128502
-0.114604
0.122218
-0.259598
0.116253
-0.286207
0.115803
-0.316366
0.12107
-0.0783649
0.120292
0.152618
0.121916
0.227995
0.122058
0.406088
0.112689
0.181894
-0.0719824
0.132563
0.0294067
0.146217
0.0302115
0.159528
0.027879
0.171644
0.0223274
0.181795
0.0123452
0.190193
-0.00169504
0.197102
-0.0190802
0.202595
-0.0414378
0.203591
-0.0676127
0.197835
-0.0914345
0.186496
-0.108421
0.172868
-0.118665
0.159634
-0.124055
0.147859
-0.126734
0.137926
-0.128104
0.129152
-0.128374
0.120568
-0.128656
0.112655
-0.128812
0.104194
-0.126728
0.0919187
-0.125465
0.0780687
-0.127656
0.071661
-0.121445
0.0783078
-0.0884211
0.0945606
-0.028581
0.115025
0.0403874
0.135277
0.0963902
0.153718
0.127683
0.170992
0.143674
0.188495
0.167284
0.204807
0.214545
0.215072
0.269442
0.215303
0.292309
0.204955
0.248831
0.188062
0.137504
0.171404
-0.00596407
0.157022
-0.126342
0.145326
-0.202782
0.138829
-0.234128
0.132507
-0.221347
0.120627
-0.202437
0.10974
-0.190923
0.109311
-0.167353
0.12021
-0.0941271
0.133286
0.0174278
0.143243
0.142459
0.145896
0.266367
0.141838
0.321728
0.136072
0.312598
0.132049
0.185748
0.134441
0.022197
0.131243
-0.111407
0.124261
-0.252616
0.11739
-0.279336
0.116464
-0.315439
0.12348
-0.0853807
0.12343
0.152668
0.125474
0.22595
0.126106
0.405457
0.116462
0.191537
-0.0655428
0.156346
0.0196476
0.166891
0.0196664
0.177504
0.0172658
0.187481
0.0123502
0.195939
0.003887
0.203023
-0.00877916
0.208134
-0.0241905
0.210164
-0.0434678
0.206484
-0.0639327
0.196759
-0.08171
0.183409
-0.0950708
0.169296
-0.104553
0.15627
-0.111029
0.144808
-0.115272
0.13494
-0.118237
0.12646
-0.119894
0.118298
-0.120493
0.110448
-0.120962
0.103197
-0.119478
0.0937553
-0.116023
0.0809887
-0.114889
0.0716776
-0.112134
0.0742534
-0.0909969
0.0883468
-0.0426744
0.108448
0.0202858
0.128997
0.0758413
0.148004
0.108676
0.166413
0.125265
0.186028
0.147669
0.205649
0.194924
0.219898
0.255193
0.223383
0.288824
0.21458
0.257634
0.197195
0.154889
0.178455
0.0127763
0.161693
-0.10958
0.147257
-0.188347
0.138686
-0.225557
0.13305
-0.215711
0.122429
-0.191817
0.110764
-0.179258
0.108631
-0.165219
0.119498
-0.104994
0.134126
0.00280039
0.146208
0.130377
0.150612
0.261963
0.14702
0.32532
0.140446
0.319173
0.135189
0.191005
0.137412
0.0199734
0.134327
-0.108321
0.12671
-0.245
0.118935
-0.271561
0.117351
-0.313856
0.126005
-0.0940349
0.126814
0.151859
0.129263
0.223501
0.130463
0.404256
0.120743
0.201258
-0.0588262
0.18467
0.0140393
0.191442
0.0128935
0.198339
0.0103696
0.204742
0.00594686
0.21024
-0.00161125
0.213678
-0.0122167
0.214654
-0.0251674
0.211587
-0.0403999
0.203432
-0.0557782
0.191365
-0.0696426
0.177735
-0.0814409
0.16429
-0.0911079
0.152003
-0.0987421
0.141177
-0.104446
0.131634
-0.108694
0.123364
-0.111623
0.115752
-0.112882
0.108202
-0.113412
0.101513
-0.112788
0.0946346
-0.109145
0.0846996
-0.104954
0.0744274
-0.101862
0.072581
-0.0891505
0.083067
-0.0531605
0.101755
0.00159833
0.122007
0.0555887
0.14104
0.0896433
0.159718
0.106587
0.180506
0.126881
0.203131
0.172299
0.221818
0.236506
0.229691
0.280951
0.223437
0.263887
0.205864
0.172462
0.184332
0.0343078
0.165751
-0.0909983
0.149148
-0.171744
0.138348
-0.214757
0.133073
-0.210436
0.124108
-0.182852
0.112095
-0.167245
0.107878
-0.161002
0.118072
-0.115188
0.134231
-0.0133594
0.14885
0.115757
0.155542
0.255272
0.152839
0.328023
0.145519
0.326493
0.138822
0.197703
0.140573
0.0182217
0.137678
-0.105426
0.129486
-0.236809
0.120822
-0.262896
0.118424
-0.311459
0.128561
-0.104171
0.130376
0.150044
0.133232
0.220645
0.13507
0.402419
0.125472
0.210855
-0.0519277
0.204811
0.0113521
0.208205
0.0095001
0.211364
0.00721057
0.213994
0.00331612
0.21545
-0.003067
0.214682
-0.0114489
0.211327
-0.0218124
0.204508
-0.0335805
0.194507
-0.0457776
0.182643
-0.0577778
0.17025
-0.0690486
0.158169
-0.0790265
0.146917
-0.0874903
0.136824
-0.0943528
0.127786
-0.099656
0.119751
-0.103588
0.112632
-0.105763
0.105721
-0.1065
0.0993001
-0.106367
0.0938796
-0.103725
0.0872333
-0.0983075
0.0784887
-0.093117
0.0736688
-0.0843305
0.0796868
-0.0591786
0.0952719
-0.0139867
0.114398
0.0364625
0.132845
0.0711967
0.151248
0.0881839
0.172515
0.105614
0.196657
0.148156
0.218332
0.214831
0.230257
0.269026
0.227294
0.266851
0.21073
0.189026
0.188784
0.0562537
0.168967
-0.0711815
0.150765
-0.153542
0.137695
-0.201687
0.132358
-0.205099
0.125326
-0.17582
0.113535
-0.155454
0.107111
-0.154577
0.11594
-0.124018
0.133295
-0.0307139
0.150484
0.0985688
0.15988
0.245876
0.158925
0.328978
0.15138
0.334037
0.142983
0.2061
0.143965
0.0172396
0.141236
-0.102696
0.132493
-0.228066
0.122963
-0.253365
0.119635
-0.308131
0.131042
-0.115578
0.134001
0.147085
0.137288
0.217357
0.139843
0.399864
0.130583
0.220115
-0.0449594
0.204214
0.00959057
0.205824
0.00789006
0.206938
0.00609594
0.207325
0.00292988
0.206361
-0.00210327
0.203623
-0.00871128
0.19871
-0.0168986
0.191525
-0.0263959
0.182558
-0.0368104
0.17247
-0.0476896
0.161821
-0.0583996
0.151158
-0.0683643
0.140958
-0.0772902
0.131564
-0.0849589
0.123062
-0.0911536
0.115366
-0.0958924
0.108577
-0.0989742
0.102396
-0.100319
0.0965011
-0.100473
0.0916254
-0.0988491
0.0872998
-0.0939819
0.081477
-0.0872942
0.0762669
-0.0791204
0.0785037
-0.0614155
0.09048
-0.025963
0.107594
0.0193487
0.124701
0.0540893
0.141807
0.0710776
0.162351
0.0850705
0.188074
0.122433
0.213795
0.18911
0.230003
0.252818
0.230219
0.266635
0.214904
0.204341
0.191551
0.079607
0.170569
-0.0501994
0.151685
-0.134658
0.136713
-0.186715
0.130833
-0.199218
0.125857
-0.170843
0.114935
-0.144533
0.10641
-0.146052
0.113039
-0.130647
0.131236
-0.0489116
0.151425
0.0783798
0.163951
0.233351
0.16509
0.327839
0.157629
0.341498
0.147504
0.216225
0.147343
0.0174013
0.144898
-0.100252
0.135672
-0.21884
0.125308
-0.243001
0.120935
-0.303758
0.133395
-0.128038
0.137636
0.142844
0.141386
0.213607
0.144731
0.396519
0.136015
0.22883
-0.0380429
0.189316
0.00794814
0.19025
0.00695644
0.190955
0.00539066
0.191182
0.00270315
0.190241
-0.00116206
0.187844
-0.00631401
0.183853
-0.0129077
0.178262
-0.0208055
0.171208
-0.0297562
0.162935
-0.0394162
0.153845
-0.0493101
0.144463
-0.0589822
0.135277
-0.0681042
0.126595
-0.0762769
0.118597
-0.0831554
0.111333
-0.088629
0.104837
-0.0924779
0.0991257
-0.0946075
0.0938966
-0.0952435
0.0893045
-0.094257
0.0858778
-0.0905553
0.0824991
-0.0839154
0.0788191
-0.0754404
0.0790208
-0.0616172
0.086967
-0.0339091
0.100982
0.0053341
0.116258
0.038813
0.131519
0.0558161
0.14987
0.0667195
0.174003
0.0983002
0.200819
0.162294
0.222039
0.231598
0.228424
0.26025
0.216355
0.21641
0.193846
0.102116
0.172429
-0.0287832
0.152976
-0.115204
0.136268
-0.170007
0.129142
-0.192092
0.12594
-0.167641
0.116378
-0.13497
0.106154
-0.135828
0.110048
-0.134541
0.127688
-0.0665517
0.150153
0.0559149
0.166396
0.217108
0.171007
0.323227
0.164735
0.347769
0.152694
0.228266
0.151149
0.0189468
0.148799
-0.0979026
0.139095
-0.209136
0.127828
-0.231733
0.122429
-0.298359
0.135549
-0.141158
0.141136
0.137257
0.145426
0.209318
0.149646
0.392299
0.141692
0.236785
-0.031327
0.201643
0.0068554
-0.20055
0.203223
0.00537627
0.20507
0.00354411
0.206773
0.00099964
0.208275
-0.00266317
0.209365
-0.00740474
0.209785
-0.0133274
0.209324
-0.0203442
0.207803
-0.0282352
0.205153
-0.0367664
0.201439
-0.0455964
0.196775
-0.0543178
0.191306
-0.0626347
0.185137
-0.0701088
0.178373
-0.0763906
0.171205
-0.0814611
0.163727
-0.0849997
0.156087
-0.0869676
0.148463
-0.0876195
0.140513
-0.0863068
0.132578
-0.0826204
0.124875
-0.0762122
0.116186
-0.0667519
0.107066
-0.0524971
0.101739
-0.0285821
0.102719
0.0043538
0.109467
0.0320655
0.12002
0.045263
0.132079
0.0546601
0.144494
0.0858851
0.157366
0.149422
0.170702
0.218262
0.182139
0.248813
0.189779
0.20877
0.192337
0.0995578
0.191378
-0.0278237
0.184359
-0.108185
0.171576
-0.157225
0.160909
-0.181425
0.15241
-0.159143
0.139839
-0.122399
0.125654
-0.121644
0.121462
-0.130349
0.127208
-0.0722985
0.137102
0.0460218
0.143939
0.21027
0.146601
0.320566
0.147194
0.347176
0.147075
0.228384
0.15323
0.0127924
0.155365
-0.100038
0.146914
-0.200685
0.134611
-0.21943
0.125014
-0.288762
0.129885
-0.146029
0.131479
0.135662
0.133728
0.207069
0.13874
0.387287
0.133803
0.241723
-0.0248277
0.211872
0.00614939
-0.211166
0.212832
0.00441545
0.214087
0.00228947
0.215493
-0.000406002
0.216677
-0.00384751
0.217454
-0.00818144
0.217588
-0.0134619
0.216911
-0.0196668
0.21529
-0.0266144
0.212638
-0.0341148
0.208953
-0.0419107
0.204271
-0.0496367
0.198675
-0.0570378
0.192339
-0.0637736
0.185432
-0.0694837
0.178195
-0.0742236
0.17085
-0.0776546
0.163358
-0.0794761
0.155951
-0.0802124
0.148509
-0.0788646
0.14084
-0.0749512
0.133612
-0.0689844
0.126797
-0.0599365
0.11976
-0.0454607
0.114358
-0.02318
0.11396
0.00475189
0.119244
0.0267818
0.128454
0.0360532
0.139487
0.0436268
0.151773
0.0735988
0.165715
0.13548
0.180798
0.203179
0.193969
0.235642
0.202893
0.199846
0.206353
0.0960983
0.205025
-0.0264958
0.197261
-0.100422
0.183271
-0.143235
0.171221
-0.169374
0.162755
-0.150677
0.150944
-0.110588
0.136205
-0.106905
0.130521
-0.124664
0.135865
-0.0776425
0.147616
0.0342709
0.156927
0.200959
0.161957
0.315536
0.164131
0.345002
0.163512
0.229004
0.168863
0.00744126
0.170311
-0.101486
0.160292
-0.190666
0.146143
-0.205281
0.135388
-0.278007
0.140741
-0.151382
0.143004
0.133399
0.14553
0.204543
0.151533
0.381284
0.147073
0.246183
-0.0180379
0.221836
0.00552307
-0.22121
0.222677
0.00357498
0.223649
0.0013169
0.224657
-0.00141355
0.225466
-0.00465643
0.225905
-0.00862051
0.225788
-0.0133451
0.224964
-0.0188426
0.22332
-0.0249708
0.220777
-0.031571
0.217305
-0.0384395
0.212949
-0.04528