/*--------------------------------*- C++ -*----------------------------------*\
| =========                 |                                                 |
| \\      /  F ield         | OpenFOAM: The Open Source CFD Toolbox           |
|  \\    /   O peration     | Version:  2312                                  |
|   \\  /    A nd           | Website:  www.openfoam.com                      |
|    \\/     M anipulation  |                                                 |
\*---------------------------------------------------------------------------*/
FoamFile
{
    version     2.0;
    format      ascii;
    arch        "LSB;label=32;scalar=64";
    class       volVectorField;
    location    "59.5";
    object      U;
}
// * * * * * * * * * * * * * * * * * * * * * * * * * * * * * * * * * * * * * //

dimensions      [0 1 -1 0 0 0 0];

internalField   nonuniform List<vector> 
2300
(
(-0.0600319 0.0300089 0)
(-0.0814844 0.050515 1.48577e-19)
(0.0227172 0.0558264 -8.0542e-20)
(0.262533 0.0664022 -3.21155e-20)
(0.556007 0.0861296 0)
(0.843936 0.106797 -4.45398e-20)
(1.09392 0.134831 1.79534e-19)
(1.26711 0.120797 -3.24689e-20)
(1.3834 0.143791 9.55609e-20)
(1.41204 0.0560902 -1.15527e-19)
(-0.081613 0.0300312 6.41894e-20)
(-0.013848 0.0212494 -5.05123e-20)
(0.300596 0.0480684 8.00855e-20)
(0.68368 0.0987607 2.92192e-20)
(1.00313 0.146454 4.81195e-20)
(1.22422 0.189116 -1.2579e-19)
(1.3334 0.190281 -3.40892e-21)
(1.36073 0.192972 -3.94688e-21)
(1.3184 0.145375 0)
(1.24731 0.117038 2.06519e-20)
(-0.0724764 0.012249 6.76242e-20)
(0.215209 0.0216201 -2.71403e-21)
(0.716246 0.119049 -1.25505e-19)
(1.07736 0.195354 6.77677e-20)
(1.26324 0.238248 -4.80156e-20)
(1.30858 0.235386 1.13452e-19)
(1.28223 0.219473 -9.23972e-20)
(1.23305 0.180714 -6.74035e-20)
(1.21247 0.160589 3.61953e-20)
(1.22172 0.139869 7.57114e-20)
(0.00761532 -0.00921743 1.85301e-20)
(0.59978 0.110043 -5.54403e-20)
(1.05578 0.232757 4.55793e-20)
(1.24407 0.28139 0)
(1.26964 0.273795 1.13142e-20)
(1.24842 0.254843 3.32957e-20)
(1.23599 0.228699 -2.77937e-20)
(1.24461 0.21961 3.71442e-20)
(1.24732 0.198124 -3.49388e-21)
(1.22669 0.18374 -5.56721e-20)
(0.195709 0.0330481 1.94099e-20)
(0.906226 0.247904 0)
(1.19266 0.329732 0)
(1.25203 0.328813 0)
(1.25318 0.312191 -1.13479e-20)
(1.24574 0.29068 0)
(1.22901 0.271927 0)
(1.19561 0.242807 -7.67059e-21)
(1.16363 0.21602 6.43369e-21)
(1.14217 0.200162 -4.08848e-21)
(-0.0213025 0.0880809 1.54386e-20)
(-0.0696837 0.160461 0)
(-0.129398 0.188496 0)
(-0.177413 0.211033 0)
(-0.214435 0.231325 -1.54994e-20)
(-0.238977 0.242727 0)
(-0.250818 0.243791 0)
(-0.244534 0.22577 2.05947e-20)
(-0.231921 0.194149 -1.72704e-20)
(-0.191417 0.127597 1.53581e-20)
(-0.0251664 0.113873 -4.64348e-20)
(-0.0593469 0.212856 5.14395e-20)
(-0.0893069 0.245417 -4.23193e-20)
(-0.104334 0.260585 0)
(-0.103796 0.271622 1.5453e-20)
(-0.0806108 0.272538 -5.63027e-20)
(-0.0543006 0.272324 4.69868e-20)
(0.0121976 0.234903 -9.04067e-20)
(0.0466459 0.197011 7.58112e-20)
(0.170159 0.133705 3.68317e-20)
(-0.0270701 0.0984645 -6.2322e-20)
(-0.049586 0.213009 1.80421e-22)
(-0.0464119 0.258034 1.26598e-19)
(-0.0198789 0.267995 -6.99031e-20)
(0.0166242 0.266509 6.15928e-20)
(0.100478 0.264211 -1.6021e-19)
(0.132037 0.239406 4.55548e-20)
(0.315759 0.227569 4.77055e-20)
(0.318104 0.168884 -7.37336e-20)
(0.611533 0.117113 -7.40479e-20)
(-0.0270533 0.0599795 -6.22026e-20)
(-0.0509206 0.15927 -4.98157e-20)
(-0.0331584 0.205695 -8.10023e-20)
(0.0182651 0.216764 3.22994e-20)
(0.0808558 0.20461 -5.8297e-20)
(0.221398 0.20293 4.80642e-20)
(0.302633 0.171497 3.98896e-21)
(0.58227 0.15163 3.65498e-21)
(0.643261 0.0966868 1.43425e-19)
(1.01183 0.0563798 -9.6874e-20)
(-0.0365052 0.0328623 0)
(-0.071547 0.0936099 4.99447e-20)
(-0.047053 0.121851 7.79729e-20)
(0.0441436 0.126893 -9.70174e-20)
(0.205803 0.125136 0)
(0.422038 0.112515 1.39714e-19)
(0.65526 0.117961 -1.16943e-19)
(0.910773 0.0911872 1.04402e-19)
(1.09123 0.0783069 -1.21133e-19)
(1.34361 0.047989 4.51673e-20)
(-0.155302 0.0620715 -1.09442e-20)
(-0.0978524 -0.069119 0)
(-0.0503284 -0.234048 2.95243e-22)
(0.0153764 -0.408909 0)
(0.0345404 -0.517471 1.55794e-22)
(0.0811414 -0.591261 0)
(0.0530027 -0.544749 3.23957e-21)
(0.238654 -0.222395 -3.0135e-21)
(0.543792 0.225387 0)
(0.805217 0.484858 -8.26294e-23)
(0.876859 0.634119 0)
(0.838008 0.613899 1.27981e-21)
(0.850634 0.396843 5.28342e-22)
(0.907936 0.132617 -1.37275e-21)
(1.08411 -0.296942 -4.65792e-22)
(1.0314 -0.738674 3.33085e-22)
(0.998319 -0.477282 0)
(1.08133 0.258443 0)
(1.06195 0.531881 0)
(0.963867 0.17412 0)
(0.846371 -0.250406 0)
(0.766547 -0.290933 -4.2194e-23)
(0.814965 -0.0515187 3.94562e-23)
(0.789039 0.223704 -1.03238e-22)
(0.789405 0.130186 0)
(0.21749 0.0204528 -4.99702e-20)
(0.290837 -0.118322 4.74963e-20)
(0.351635 -0.269743 -4.44389e-20)
(0.414308 -0.420285 2.81529e-20)
(0.405626 -0.50957 -7.82201e-21)
(0.361793 -0.55703 -2.87421e-20)
(0.178623 -0.562692 1.08412e-20)
(0.139506 -0.40368 0)
(0.383404 -0.0554611 5.84488e-23)
(0.786574 0.312755 8.4123e-23)
(0.951956 0.565704 0)
(0.860593 0.598312 -1.33149e-22)
(0.775593 0.387767 -1.26463e-22)
(0.93711 0.0821138 6.80853e-21)
(1.10338 -0.324176 -9.05669e-21)
(1.03016 -0.733947 2.63411e-21)
(0.971938 -0.488164 -2.62144e-21)
(1.04662 0.254951 2.29017e-22)
(1.05161 0.548937 5.74421e-22)
(0.981693 0.212593 1.45407e-21)
(0.871839 -0.219632 -3.67521e-22)
(0.771935 -0.285747 0)
(0.79545 -0.0533074 0)
(0.765291 0.224915 8.06696e-24)
(0.788123 0.127817 -1.67547e-23)
(0.652336 0.00172266 2.13032e-19)
(0.730494 -0.137969 -1.43345e-21)
(0.803621 -0.286948 -9.27273e-20)
(0.865856 -0.422197 0)
(0.87042 -0.470275 -3.70352e-20)
(0.837356 -0.431795 3.42694e-20)
(0.631558 -0.43392 0)
(0.419997 -0.461023 0)
(0.43596 -0.336949 -6.0819e-23)
(0.709265 0.0854606 0)
(0.77803 0.552173 -4.10217e-22)
(0.624225 0.683842 0)
(0.708443 0.395896 -4.51321e-21)
(0.953983 0.0543114 -2.01105e-21)
(1.12956 -0.295978 -1.74067e-22)
(1.08428 -0.691224 6.08875e-21)
(0.959911 -0.511139 5.32873e-22)
(1.00767 0.198172 5.61292e-22)
(1.01291 0.533527 0)
(0.979315 0.246253 1.73568e-22)
(0.901201 -0.184251 -4.51107e-23)
(0.778314 -0.274859 0)
(0.772508 -0.0537456 -8.17892e-24)
(0.740144 0.224127 1.92986e-22)
(0.78913 0.12378 1.67063e-23)
(1.03866 -0.0415951 8.38606e-22)
(1.10001 -0.152218 0)
(1.15307 -0.288618 0)
(1.1813 -0.419897 -6.02833e-20)
(1.11601 -0.494192 5.67093e-20)
(1.06326 -0.431911 0)
(0.95085 -0.263114 1.2906e-22)
(0.811236 -0.258493 -1.32018e-22)
(0.602491 -0.355769 0)
(0.577718 -0.0164056 8.72379e-21)
(0.611627 0.535452 -7.65154e-21)
(0.53444 0.633372 0)
(0.749034 0.305831 -2.25902e-22)
(0.996372 -0.0081992 0)
(1.17234 -0.294759 1.06323e-20)
(1.1379 -0.653084 -1.01996e-20)
(0.947962 -0.523589 -5.49009e-21)
(0.953098 0.172785 7.7588e-21)
(0.971897 0.536415 -3.5175e-21)
(0.979521 0.269374 0)
(0.927888 -0.151057 3.22191e-22)
(0.785712 -0.259855 -3.67656e-22)
(0.748046 -0.0525 -3.80424e-22)
(0.718159 0.220314 8.56152e-23)
(0.795001 0.117552 0)
(1.33997 -0.0313729 9.06837e-20)
(1.36535 -0.0950348 -8.39667e-20)
(1.36327 -0.206384 0)
(1.33415 -0.293453 -5.46004e-22)
(1.21521 -0.355245 -3.97171e-22)
(1.08697 -0.413945 -2.72004e-20)
(0.938883 -0.332636 2.50037e-20)
(0.945069 -0.227834 -6.8472e-21)
(0.827036 -0.319547 8.30251e-21)
(0.570685 -0.175965 -1.70269e-21)
(0.427014 0.470398 -9.6498e-21)
(0.342368 0.672421 8.9039e-21)
(0.737252 0.310105 9.13789e-21)
(1.0712 -0.013182 -1.81313e-20)
(1.20045 -0.250482 9.15156e-21)
(1.14638 -0.576074 -2.56179e-22)
(0.942832 -0.525675 -9.39452e-21)
(0.902908 0.0974253 5.33506e-21)
(0.926241 0.503152 3.56827e-21)
(0.963264 0.300007 -8.40309e-22)
(0.950564 -0.105188 8.53825e-22)
(0.799588 -0.235921 1.22808e-22)
(0.723571 -0.0507651 -6.94843e-23)
(0.695672 0.21354 -3.19231e-23)
(0.80452 0.109432 0)
(1.35299 0.00841642 0)
(1.36497 -0.0493308 0)
(1.32029 -0.117081 0)
(1.25758 -0.190445 0)
(1.1625 -0.214504 0)
(1.07142 -0.22806 0)
(0.925476 -0.235072 0)
(0.85284 -0.172698 0)
(0.857756 -0.1588 0)
(0.590623 -0.0793565 0)
(0.346959 0.435694 0)
(0.501433 0.567762 0)
(0.933184 0.14878 0)
(1.14948 -0.0791704 0)
(1.22855 -0.220177 0)
(1.12654 -0.5431 0)
(0.950277 -0.514793 0)
(0.862194 0.0722743 0)
(0.873543 0.494211 0)
(0.950321 0.303075 0)
(0.967759 -0.0816949 0)
(0.811582 -0.209672 0)
(0.705948 -0.0428465 0)
(0.684692 0.204176 0)
(0.821264 0.0992076 0)
(1.26738 0.0115842 0)
(1.27424 -0.0420845 0)
(1.25211 -0.106125 0)
(1.19586 -0.153896 0)
(1.12107 -0.190278 0)
(1.05633 -0.242129 0)
(0.977693 -0.187179 0)
(0.853098 -0.164276 0)
(0.882216 -0.176481 0)
(0.730514 0.0432372 0)
(0.498484 0.451696 0)
(0.847124 0.425719 0)
(1.15018 0.0530107 0)
(1.20031 -0.115877 0)
(1.2479 -0.23244 0)
(1.09288 -0.501286 0)
(0.915005 -0.445776 0)
(0.822305 0.11182 0)
(0.827599 0.490982 0)
(0.935529 0.287816 0)
(0.983833 -0.0684464 0)
(0.823827 -0.178511 0)
(0.687535 -0.0273052 0)
(0.68103 0.193752 0)
(0.84417 0.0866237 0)
(1.21995 0.0226555 0)
(1.2274 -0.0203313 0)
(1.21476 -0.0583766 0)
(1.1639 -0.102427 0)
(1.13216 -0.115107 0)
(1.05828 -0.137977 0)
(0.997448 -0.115424 0)
(0.931576 -0.0933272 0)
(0.893114 -0.0895377 0)
(0.804443 0.100168 0)
(0.753724 0.397647 0)
(1.11946 0.293991 0)
(1.26922 -0.0058509 0)
(1.20997 -0.125575 0)
(1.23908 -0.185023 0)
(1.09096 -0.43076 0)
(0.865315 -0.415417 0)
(0.792701 0.106459 0)
(0.762557 0.460332 0)
(0.895314 0.260823 0)
(0.991989 -0.0571729 0)
(0.852955 -0.142114 0)
(0.678821 -0.0105712 0)
(0.69133 0.176004 0)
(0.880824 0.0697035 0)
(1.17984 0.0306946 0)
(1.1827 -0.00920199 0)
(1.17498 -0.0342059 0)
(1.13982 -0.0730641 0)
(1.1065 -0.0815329 0)
(1.06301 -0.107197 0)
(1.00991 -0.0909918 0)
(0.978401 -0.0586219 0)
(0.929752 -0.0701173 0)
(0.885165 0.088773 0)
(0.944417 0.270615 0)
(1.19264 0.160325 0)
(1.2694 -0.00158059 0)
(1.19181 -0.0916981 0)
(1.17533 -0.183552 0)
(1.05223 -0.35972 0)
(0.752468 -0.312004 0)
(0.631741 0.15711 0)
(0.639451 0.438361 0)
(0.868232 0.208416 0)
(0.995895 -0.0610505 0)
(0.896856 -0.0978322 0)
(0.714944 0.0131514 0)
(0.753647 0.148262 0)
(0.943107 0.0472037 0)
(1.14585 0.0339952 0)
(1.14995 0.00505231 0)
(1.1435 -0.0107796 0)
(1.12614 -0.0362047 0)
(1.09508 -0.0460767 0)
(1.07592 -0.0492522 0)
(1.02831 -0.0522013 0)
(1.01765 -0.0170252 0)
(0.983287 -0.0117886 0)
(0.953555 0.0636841 0)
(1.02888 0.176282 0)
(1.16385 0.107879 0)
(1.20656 -0.0128324 0)
(1.15851 -0.0779503 0)
(1.14155 -0.127888 0)
(1.07412 -0.247492 0)
(0.754928 -0.198548 0)
(0.556141 0.180416 0)
(0.660691 0.36551 0)
(0.940325 0.137176 0)
(1.03229 -0.0712951 0)
(0.971565 -0.0620341 0)
(0.834931 0.0301811 0)
(0.901907 0.117172 0)
(1.03279 0.0280596 0)
(1.11995 0.0360799 0)
(1.12633 0.0152988 0)
(1.11943 0.0058551 0)
(1.11174 -0.0136433 0)
(1.08656 -0.020994 0)
(1.07486 -0.0245435 0)
(1.04765 -0.030369 0)
(1.03291 -0.00387366 0)
(1.02755 -0.00340773 0)
(1.01148 0.0363037 0)
(1.05511 0.104059 0)
(1.13606 0.0485722 0)
(1.16075 -0.00119298 0)
(1.13122 -0.0406084 0)
(1.08865 -0.123489 0)
(1.03325 -0.18272 0)
(0.81756 -0.0663495 0)
(0.678534 0.194834 0)
(0.851129 0.265234 0)
(1.07012 0.067627 0)
(1.06961 -0.0764104 0)
(1.01346 -0.0353642 0)
(0.944761 0.0348129 0)
(1.04344 0.0891802 0)
(1.10547 0.0161171 0)
(1.10386 0.0395669 0)
(1.10948 0.0264004 0)
(1.10535 0.0190814 0)
(1.10245 0.00717821 0)
(1.08581 0.000787752 0)
(1.0798 -0.00107973 0)
(1.06374 -0.00502801 0)
(1.05341 0.00785857 0)
(1.0555 0.0143735 0)
(1.04318 0.0255187 0)
(1.071 0.0608704 0)
(1.11242 0.0327321 0)
(1.11382 -0.00443121 0)
(1.11498 -0.0284003 0)
(1.09082 -0.0643785 0)
(1.02016 -0.0940511 0)
(0.895085 0.0065504 0)
(0.876216 0.168797 0)
(1.03324 0.175888 0)
(1.15415 0.0447988 0)
(1.10116 -0.0511201 0)
(1.051 -0.013224 0)
(1.01601 0.0238224 0)
(1.10983 0.0634123 0)
(1.13561 0.0141598 0)
(1.09679 0.0385332 0)
(1.10194 0.0293514 0)
(1.10049 0.0246055 0)
(1.09946 0.0155922 0)
(1.09057 0.0112611 0)
(1.08592 0.00737767 0)
(1.07838 0.00412198 0)
(1.07117 0.00823905 0)
(1.07325 0.010477 0)
(1.06914 0.0134045 0)
(1.07945 0.0296517 0)
(1.10178 0.0109647 0)
(1.1002 -0.000965106 0)
(1.09511 -0.0174247 0)
(1.07827 -0.0424812 0)
(1.02968 -0.0541827 0)
(0.967563 0.0203806 0)
(1.00154 0.11522 0)
(1.10196 0.111207 0)
(1.16342 0.0329001 0)
(1.11352 -0.0346683 0)
(1.08227 -0.000591624 0)
(1.0546 0.0106628 0)
(1.12469 0.0391783 0)
(1.13959 0.00971065 0)
(1.09415 0.0429178 0)
(1.09868 0.0370356 0)
(1.09911 0.0334912 0)
(1.09959 0.0274093 0)
(1.09508 0.024084 0)
(1.09312 0.0201151 0)
(1.08893 0.0181802 0)
(1.08569 0.0169763 0)
(1.08614 0.018942 0)
(1.08406 0.0162523 0)
(1.08795 0.0234233 0)
(1.09721 0.0128696 0)
(1.09324 0.00735886 0)
(1.09311 -0.0035181 0)
(1.08286 -0.00936091 0)
(1.05547 -0.0107102 0)
(1.02426 0.0299316 0)
(1.05466 0.0813319 0)
(1.11061 0.0765848 0)
(1.15101 0.0404547 0)
(1.11473 -0.00926161 0)
(1.10223 0.0166196 0)
(1.08086 0.00858962 0)
(1.12697 0.0262972 0)
(1.14064 0.0124233 0)
(1.09851 0.0325284 0)
(1.1027 0.0282794 0)
(1.10415 0.0258844 0)
(1.10549 0.0211108 0)
(1.10381 0.0188578 0)
(1.10329 0.014801 0)
(1.10129 0.0133666 0)
(1.10039 0.0102192 0)
(1.09968 0.0108978 0)
(1.10004 0.00660993 0)
(1.09979 0.0103398 0)
(1.10438 0.00240923 0)
(1.10039 0.00250528 0)
(1.0995 -0.0042578 0)
(1.0914 -0.00571831 0)
(1.08012 -0.00486787 0)
(1.06517 0.015791 0)
(1.08719 0.0452009 0)
(1.11399 0.0426137 0)
(1.14377 0.0295026 0)
(1.12142 -0.00884027 0)
(1.12264 0.0144618 0)
(1.10425 -0.0022303 0)
(1.13071 0.00591971 0)
(1.14252 0.00328455 0)
(1.10422 0.0405135 0)
(1.10776 0.0375463 0)
(1.10945 0.0360793 0)
(1.11158 0.0324425 0)
(1.11119 0.031151 0)
(1.11211 0.0273 0)
(1.11101 0.026766 0)
(1.11185 0.0227094 0)
(1.11094 0.0235562 0)
(1.11244 0.0186913 0)
(1.11122 0.0208558 0)
(1.11445 0.0150133 0)
(1.11135 0.0160043 0)
(1.11315 0.0120053 0)
(1.10799 0.013135 0)
(1.10657 0.0156931 0)
(1.09848 0.0246387 0)
(1.11248 0.0418388 0)
(1.12302 0.0353065 0)
(1.14543 0.0384689 0)
(1.1306 0.00666363 0)
(1.13853 0.0277773 0)
(1.1255 0.00877724 0)
(1.13903 0.00496674 0)
(1.15103 0.00865625 0)
(1.11811 0.0179193 0)
(1.12158 0.0156799 0)
(1.12299 0.0150694 0)
(1.12549 0.0121985 0)
(1.12533 0.0117831 0)
(1.12726 0.00849977 0)
(1.12636 0.00867128 0)
(1.12854 0.00495368 0)
(1.12722 0.00608251 0)
(1.13003 0.00174827 0)
(1.12794 0.0037902 0)
(1.13168 -0.000779853 0)
(1.1281 0.0010645 0)
(1.13174 -0.00164956 0)
(1.12652 -0.000474963 0)
(1.13062 0.00182142 0)
(1.12432 0.00403141 0)
(1.13727 0.0160777 0)
(1.13826 0.00852982 0)
(1.158 0.0200388 0)
(1.14699 -0.00640882 0)
(1.15668 0.0131804 0)
(1.15216 -0.00266552 0)
(1.15138 -0.0136922 0)
(1.1594 -0.00608884 0)
(1.14681 0.0345137 0)
(1.1498 0.0326448 0)
(1.15085 0.0323874 0)
(1.15393 0.0299119 0)
(1.15403 0.029919 0)
(1.15696 0.0269461 0)
(1.15619 0.0274214 0)
(1.15947 0.0239855 0)
(1.15799 0.0248627 0)
(1.16203 0.0212469 0)
(1.15959 0.022194 0)
(1.16474 0.0190694 0)
(1.16097 0.0194488 0)
(1.16709 0.0183237 0)
(1.16221 0.0176687 0)
(1.16934 0.0209914 0)
(1.16417 0.0179071 0)
(1.1753 0.0293766 0)
(1.17149 0.0171651 0)
(1.1888 0.0322855 0)
(1.17945 0.0122796 0)
(1.18908 0.0223658 0)
(1.19063 0.0188691 0)
(1.18215 0.00201552 0)
(1.18929 0.00475196 0)
(1.17108 -0.00278816 0)
(1.17425 -0.0039781 0)
(1.17465 -0.00333564 0)
(1.1782 -0.0050399 0)
(1.17763 -0.00403517 0)
(1.18179 -0.00621478 0)
(1.18011 -0.00476675 0)
(1.18535 -0.0072575 0)
(1.1824 -0.0056068 0)
(1.18892 -0.00807184 0)
(1.18461 -0.00664291 0)
(1.19231 -0.00853316 0)
(1.18673 -0.00775936 0)
(1.19545 -0.00832976 0)
(1.18859 -0.00886255 0)
(1.1992 -0.00556906 0)
(1.19114 -0.0106698 0)
(1.20498 0.00211473 0)
(1.19901 -0.0129718 0)
(1.21111 0.00613145 0)
(1.21339 -0.00882972 0)
(1.21111 -0.00467518 0)
(1.22386 0.00286492 0)
(1.21765 -0.0156607 0)
(1.21361 -0.0157229 0)
(1.28799 0.023166 0)
(1.29207 0.0226457 0)
(1.29039 0.022224 0)
(1.29571 0.0216912 0)
(1.29271 0.0212307 0)
(1.29949 0.0206117 0)
(1.29469 0.0203695 0)
(1.30341 0.0194217 0)
(1.29632 0.0196968 0)
(1.3075 0.0183449 0)
(1.29772 0.0188199 0)
(1.31158 0.0180239 0)
(1.29938 0.0166351 0)
(1.31491 0.0192016 0)
(1.30231 0.0132112 0)
(1.31618 0.0210457 0)
(1.3086 0.0114252 0)
(1.31496 0.0187349 0)
(1.31975 0.0155903 0)
(1.31461 0.0112317 0)
(1.32962 0.0200549 0)
(1.32249 0.010214 0)
(1.32974 0.0143976 0)
(1.33737 0.0181725 0)
(1.32981 0.0112493 0)
(1.16603 0.168282 4.76011e-22)
(1.16935 0.164142 2.79975e-20)
(1.24907 0.12846 -7.0882e-20)
(1.19739 0.111833 -3.39325e-22)
(1.33001 0.0786679 0)
(1.17403 0.153378 2.20136e-21)
(1.13126 0.14381 -1.12369e-20)
(1.22185 0.116107 2.84408e-20)
(1.17784 0.0887671 2.8202e-20)
(1.2429 0.0663928 -3.67068e-20)
(1.15248 0.124368 0)
(1.12084 0.117193 2.23712e-22)
(1.17717 0.0952053 1.42852e-20)
(1.16134 0.0738782 -2.49883e-20)
(1.19387 0.0534016 8.00833e-21)
(1.12645 0.11002 5.90587e-23)
(1.11469 0.102061 3.65201e-21)
(1.14285 0.0842726 -1.25563e-20)
(1.14409 0.0711314 1.16217e-20)
(1.16036 0.0503102 2.07652e-20)
(1.10816 0.0949758 0)
(1.10969 0.0879374 -3.11386e-21)
(1.11788 0.0725842 2.19009e-22)
(1.12624 0.0652296 -1.69778e-20)
(1.13063 0.0468349 0)
(1.09645 0.0831384 -1.9386e-22)
(1.10307 0.0766185 1.22496e-22)
(1.1018 0.0641304 2.281e-23)
(1.10949 0.0587676 5.8033e-21)
(1.11034 0.0440531 -1.62469e-22)
(1.09004 0.0733001 1.23405e-22)
(1.09726 0.0679364 0)
(1.09259 0.0593341 2.08592e-22)
(1.09909 0.0552419 0)
(1.09732 0.0454305 -1.61879e-21)
(1.08801 0.0626153 1.52572e-22)
(1.09383 0.058408 -4.94557e-22)
(1.0896 0.052479 -1.81775e-22)
(1.0947 0.0495075 0)
(1.09232 0.0424785 1.3951e-21)
(1.08847 0.0584655 -1.21376e-22)
(1.09287 0.0551539 5.11799e-22)
(1.08933 0.0516603 7.17191e-22)
(1.09302 0.0493179 -5.97163e-23)
(1.09056 0.0456748 1.3655e-21)
(1.09353 0.0437098 0)
(1.0965 0.0412227 0)
(1.09402 0.0386254 -1.72925e-21)
(1.09706 0.0368625 0)
(1.0953 0.0343403 -3.0596e-21)
(1.10128 0.047681 0)
(1.1037 0.0457792 2.63462e-22)
(1.10199 0.0442326 -7.70672e-22)
(1.10393 0.0428941 -8.62516e-22)
(1.10205 0.0416563 1.66484e-21)
(1.11481 0.0224282 0)
(1.11682 0.0211439 2.70797e-22)
(1.1153 0.0200403 -1.32936e-22)
(1.11733 0.0192252 9.91728e-22)
(1.11594 0.0184093 -8.85524e-22)
(1.14482 0.0381152 -2.88408e-22)
(1.14669 0.0373249 5.82929e-22)
(1.14592 0.0362312 1.64622e-21)
(1.14715 0.0358026 1.986e-24)
(1.14581 0.0347725 9.8373e-22)
(1.16756 -0.00279159 2.67892e-22)
(1.16946 -0.00313142 -5.37923e-24)
(1.16939 -0.00332741 -1.2622e-21)
(1.17072 -0.00322643 5.08186e-22)
(1.1702 -0.00322362 -4.93198e-22)
(1.28587 0.0256769 0)
(1.28642 0.0256682 0)
(1.28802 0.0246498 -2.33772e-22)
(1.28764 0.0245051 0)
(1.28901 0.0234593 0)
(0.97053 0.252434 1.79433e-20)
(0.977624 0.277005 -2.13584e-20)
(0.963875 0.3035 1.24333e-20)
(0.942704 0.33704 -2.46243e-20)
(0.932461 0.38505 1.8407e-20)
(0.931985 0.440672 0)
(0.92305 0.508583 0)
(0.917983 0.592488 -1.66269e-20)
(0.901896 0.678975 -3.80584e-21)
(0.635812 0.591057 0)
(1.00055 0.240257 -4.72936e-22)
(0.9968 0.271548 0)
(1.00668 0.306602 -1.31138e-21)
(1.01655 0.345692 -6.99348e-21)
(1.01841 0.389103 -1.15418e-20)
(1.0186 0.439027 -5.39313e-23)
(1.02275 0.50034 -1.00647e-20)
(1.03997 0.581994 2.82922e-20)
(1.03424 0.638802 2.39457e-20)
(0.709624 0.512191 -6.30668e-20)
(1.0688 0.250257 -5.20087e-21)
(1.07029 0.274673 5.22885e-21)
(1.06448 0.299462 -4.92486e-21)
(1.062 0.331732 -1.32252e-20)
(1.07663 0.375754 3.40882e-20)
(1.09999 0.423055 -1.70186e-20)
(1.11869 0.474545 4.04249e-20)
(1.13807 0.537772 -8.29142e-20)
(1.11503 0.563316 -1.45297e-20)
(0.712461 0.398669 6.79512e-20)
(1.07234 0.231915 -1.86702e-21)
(1.09186 0.256107 -2.8535e-21)
(1.11553 0.287459 1.52428e-20)
(1.13594 0.320169 -1.45219e-20)
(1.1467 0.351864 1.7398e-20)
(1.16007 0.389578 -8.38281e-21)
(1.18469 0.431103 0)
(1.20952 0.479795 4.1494e-20)
(1.13767 0.468269 -5.04383e-20)
(0.631905 0.271536 -2.06304e-20)
(1.15602 0.228529 5.4477e-21)
(1.15979 0.244276 4.90854e-21)
(1.15662 0.265538 -5.85248e-21)
(1.15988 0.288711 0)
(1.18532 0.322739 0)
(1.21956 0.354035 8.39999e-21)
(1.24469 0.384983 0)
(1.23085 0.40483 0)
(1.0686 0.362021 0)
(0.447813 0.145172 -2.04565e-20)
(0.81597 0.0852627 -1.31337e-22)
(0.78781 0.0885894 1.03361e-20)
(0.751752 0.0932592 -1.23255e-20)
(0.709101 0.0991416 0)
(0.65399 0.106533 0)
(0.589415 0.115964 -1.49385e-20)
(0.503927 0.128562 0)
(0.405372 0.144469 0)
(0.263276 0.169683 0)
(0.0970229 0.153676 2.19124e-20)
(0.830092 0.127962 2.08567e-20)
(0.805078 0.138389 -3.8505e-20)
(0.771628 0.152562 4.5916e-20)
(0.731639 0.169853 -3.38582e-20)
(0.682442 0.191654 4.05678e-20)
(0.626524 0.218119 1.49e-20)
(0.551283 0.252456 0)
(0.463029 0.293589 5.13848e-20)
(0.331485 0.3549 -6.24367e-20)
(0.154011 0.327738 -6.19766e-20)
(0.854388 0.168737 -2.38419e-20)
(0.836097 0.183946 3.34264e-20)
(0.808212 0.204123 -5.85162e-20)
(0.769657 0.228416 -8.20918e-20)
(0.721064 0.259636 1.06952e-19)
(0.673612 0.30014 -4.54674e-20)
(0.613922 0.353783 6.32711e-20)
(0.547906 0.418132 -1.16024e-19)
(0.441387 0.511034 9.01268e-22)
(0.250585 0.475215 5.72144e-20)
(0.884659 0.202542 3.10715e-20)
(0.870792 0.225276 -5.05367e-20)
(0.854663 0.255061 1.86694e-20)
(0.834725 0.288295 6.38377e-21)
(0.796023 0.324928 -7.9558e-20)
(0.751555 0.369596 3.27659e-20)
(0.704228 0.433286 -2.86588e-22)
(0.66031 0.510565 5.21701e-20)
(0.585599 0.619454 -1.7326e-20)
(0.378521 0.576172 -2.48716e-20)
(0.931941 0.222903 -3.0616e-20)
(0.91489 0.242446 3.64382e-20)
(0.887329 0.274224 -2.40445e-20)
(0.876318 0.317515 7.64426e-20)
(0.867389 0.366757 -1.27204e-20)
(0.844268 0.418215 0)
(0.808988 0.485307 2.05467e-20)
(0.786559 0.57084 -2.48612e-20)
(0.746056 0.67642 1.73654e-20)
(0.51557 0.616141 0)
(0.980686 0.156271 5.24907e-22)
(0.98392 0.149073 2.84254e-22)
(0.98568 0.118967 1.69084e-22)
(0.979273 0.119917 -1.91521e-22)
(0.978546 0.0983628 2.24481e-22)
(0.967702 0.0962384 0)
(0.964707 0.0860898 0)
(0.955215 0.0833795 -2.10956e-22)
(0.948137 0.0787361 1.0982e-21)
(0.936754 0.0770894 -2.65525e-21)
(0.924814 0.0764744 -2.04642e-22)
(0.908603 0.0750854 4.39247e-21)
(0.890714 0.0775431 -2.48867e-21)
(0.867988 0.0779486 2.2482e-22)
(0.843456 0.0831158 -5.16969e-21)
(0.980081 0.158047 -1.01196e-21)
(0.979823 0.145566 -3.21323e-22)
(0.986018 0.122375 1.3949e-21)
(0.978513 0.117169 -3.72615e-22)
(0.979391 0.104089 7.60169e-22)
(0.96851 0.0946154 -8.22543e-22)
(0.965852 0.0933364 -3.46129e-22)
(0.957056 0.0831567 2.14096e-22)
(0.950125 0.0881963 -2.66952e-22)
(0.940139 0.0802546 -6.04632e-21)
(0.928307 0.0894647 6.51582e-21)
(0.913591 0.0856557 9.07582e-21)
(0.89694 0.0988174 -2.28557e-20)
(0.875996 0.101449 -1.88049e-21)
(0.853915 0.120312 -1.53583e-21)
(0.981791 0.159874 5.18176e-22)
(0.975648 0.142678 0)
(0.985309 0.124514 -6.89063e-22)
(0.977721 0.114894 -4.43695e-22)
(0.978746 0.107892 0)
(0.970034 0.093251 -3.08082e-22)
(0.966255 0.0981998 3.56152e-22)
(0.95984 0.0837677 0)
(0.951021 0.095344 -9.70027e-21)
(0.94334 0.0856637 1.14769e-20)
(0.930437 0.101572 0)
(0.91852 0.0989614 2.84866e-22)
(0.903798 0.12112 0)
(0.887376 0.126101 -2.99306e-20)
(0.870471 0.157355 7.08272e-20)
(0.983132 0.161799 0)
(0.975671 0.139741 5.81517e-23)
(0.982401 0.126645 7.94661e-22)
(0.978063 0.111896 0)
(0.977698 0.11176 2.21397e-21)
(0.972211 0.0910538 -2.21201e-21)
(0.966666 0.103417 0)
(0.96385 0.0817297 -4.85646e-22)
(0.953161 0.102234 8.83823e-22)
(0.947958 0.0847954 1.19661e-20)
(0.935911 0.111262 -1.41639e-20)
(0.926478 0.10389 -1.91279e-20)
(0.914596 0.13864 -1.62317e-21)
(0.902535 0.143005 2.70284e-20)
(0.893066 0.187967 2.30044e-22)
(0.983123 0.16336 0)
(0.977298 0.137662 -7.52471e-22)
(0.982071 0.127257 0)
(0.977668 0.109417 0)
(0.977936 0.112784 0)
(0.974177 0.0902673 -3.53953e-22)
(0.968404 0.105873 0)
(0.966423 0.084291 5.20667e-22)
(0.954709 0.107031 1.04443e-20)
(0.952523 0.0949198 -1.24351e-20)
(0.937877 0.122201 -1.63373e-20)
(0.938134 0.121512 1.88352e-20)
(0.924108 0.158135 2.3114e-20)
(0.927596 0.165108 -5.26548e-20)
(0.922475 0.215247 2.96929e-20)
(0.983214 0.164243 0)
(0.977648 0.136186 0)
(0.981504 0.129361 0)
(0.981669 0.107871 0)
(0.974874 0.114597 0)
(0.980586 0.0877486 0)
(0.967058 0.107696 0)
(0.973806 0.0806474 0)
(0.9579 0.108344 0)
(0.960017 0.0909291 0)
(0.949437 0.126413 0)
(0.948019 0.115766 0)
(0.949038 0.166247 0)
(0.946775 0.158905 0)
(0.966995 0.220727 0)
(0.983417 0.165457 0)
(0.980348 0.13483 0)
(0.978106 0.130818 0)
(0.985293 0.106832 0)
(0.977313 0.116828 0)
(0.980066 0.0864514 0)
(0.974159 0.110859 0)
(0.972774 0.0800705 0)
(0.970453 0.114494 0)
(0.958246 0.0906825 0)
(0.970036 0.130546 0)
(0.952916 0.117594 0)
(0.973414 0.160626 0)
(0.964673 0.158137 0)
(0.989909 0.193756 0)
(0.980925 0.166595 0)
(0.985266 0.133686 0)
(0.981252 0.132927 0)
(0.979742 0.103799 0)
(0.98857 0.120256 0)
(0.974946 0.085098 0)
(0.988204 0.113369 0)
(0.97249 0.0805501 0)
(0.982749 0.118882 0)
(0.967417 0.0917495 0)
(0.982262 0.129405 0)
(0.972791 0.120358 0)
(0.984851 0.148666 0)
(0.991017 0.152827 0)
(0.999787 0.171114 0)
(0.97864 0.16778 0)
(0.983188 0.130705 0)
(0.989988 0.136785 0)
(0.977497 0.100306 0)
(0.9924 0.121616 0)
(0.979489 0.0854674 0)
(0.992932 0.112595 0)
(0.98342 0.0833943 0)
(0.98736 0.118714 0)
(0.988508 0.0932201 0)
(0.989053 0.123954 0)
(0.998064 0.121343 0)
(0.996857 0.136482 0)
(1.01361 0.143362 0)
(1.01444 0.153667 0)
(0.978913 0.170054 0)
(0.980656 0.126158 0)
(0.989616 0.139378 0)
(0.988184 0.0994651 0)
(0.988984 0.120067 0)
(0.989824 0.0868207 0)
(0.990635 0.109673 0)
(0.994319 0.0860183 0)
(0.990808 0.114394 0)
(1.0041 0.0937791 0)
(0.996926 0.117012 0)
(1.01415 0.117113 0)
(1.01181 0.127146 0)
(1.02719 0.130677 0)
(1.03061 0.139065 0)
(0.977556 0.171881 0)
(0.987031 0.123038 0)
(0.983291 0.138383 0)
(0.999931 0.100696 0)
(0.98948 0.117584 0)
(0.999913 0.0890294 0)
(0.992876 0.106183 0)
(1.0029 0.0873351 0)
(0.997953 0.107961 0)
(1.01288 0.0929128 0)
(1.00666 0.109195 0)
(1.02296 0.108569 0)
(1.02378 0.117061 0)
(1.03633 0.116451 0)
(1.04142 0.123955 0)
(0.974784 0.173173 0)
(0.995344 0.120564 0)
(0.981086 0.135429 0)
(1.00487 0.100902 0)
(0.993767 0.114401 0)
(1.0087 0.0903737 0)
(1.00102 0.103045 0)
(1.0132 0.0875267 0)
(1.00888 0.101607 0)
(1.02222 0.0907673 0)
(1.01834 0.101894 0)
(1.03183 0.0988312 0)
(1.03384 0.106487 0)
(1.045 0.102761 0)
(1.04901 0.109255 0)
(0.973982 0.17226 0)
(0.999363 0.120188 0)
(0.983248 0.130715 0)
(1.00673 0.101144 0)
(0.998802 0.108368 0)
(1.01531 0.0899331 0)
(1.01012 0.0971772 0)
(1.02366 0.0854764 0)
(1.02076 0.0931659 0)
(1.03288 0.0855741 0)
(1.03119 0.0915241 0)
(1.0426 0.0877027 0)
(1.04429 0.0921289 0)
(1.05464 0.0880256 0)
(1.05708 0.0915985 0)
(0.975168 0.170099 0)
(1.0014 0.119713 0)
(0.987686 0.12571 0)
(1.00984 0.100356 0)
(1.00496 0.103662 0)
(1.02111 0.0888647 0)
(1.01811 0.0937601 0)
(1.03202 0.0842627 0)
(1.03074 0.0891034 0)
(1.04239 0.0826314 0)
(1.04189 0.0864204 0)
(1.05203 0.0818289 0)
(1.05317 0.0847023 0)
(1.06234 0.0803158 0)
(1.06361 0.0825631 0)
(0.976199 0.16625 0)
(1.00408 0.119486 0)
(0.994707 0.116512 0)
(1.01672 0.0945329 0)
(1.01464 0.0916476 0)
(1.03073 0.0789656 0)
(1.02927 0.0795423 0)
(1.04286 0.0717834 0)
(1.04278 0.0730078 0)
(1.05407 0.0676279 0)
(1.05419 0.0685652 0)
(1.06359 0.064592 0)
(1.06431 0.0652323 0)
(1.07261 0.0617126 0)
(1.07335 0.062162 0)
(0.977645 0.160748 0)
(1.00564 0.120283 0)
(1.00222 0.113662 0)
(1.02276 0.0964076 0)
(1.02369 0.0928364 0)
(1.03963 0.0821024 0)
(1.04046 0.0813704 0)
(1.0533 0.0747256 0)
(1.05445 0.0748835 0)
(1.06494 0.070029 0)
(1.06577 0.0701659 0)
(1.07421 0.0664276 0)
(1.07497 0.066509 0)
(1.08216 0.0633154 0)
(1.08276 0.0633438 0)
(0.977998 0.149701 0)
(1.01354 0.105445 0)
(1.01549 0.0905349 0)
(1.03788 0.0725045 0)
(1.03933 0.0662224 0)
(1.05602 0.0557154 0)
(1.05733 0.0529427 0)
(1.0704 0.0465807 0)
(1.07132 0.0454501 0)
(1.08159 0.0410994 0)
(1.082 0.04044 0)
(1.09018 0.0372586 0)
(1.09038 0.0368805 0)
(1.0972 0.0343524 0)
(1.09714 0.0341025 0)
(0.978738 0.146381 0)
(1.02361 0.112301 0)
(1.03477 0.0977008 0)
(1.05936 0.083584 0)
(1.06492 0.0766088 0)
(1.0823 0.0686942 0)
(1.08628 0.0649624 0)
(1.09927 0.0600603 0)
(1.10183 0.057932 0)
(1.11157 0.0546826 0)
(1.1131 0.0532192 0)
(1.12057 0.0508887 0)
(1.12144 0.0498493 0)
(1.12738 0.0480578 0)
(1.12774 0.0472619 0)
(0.980609 0.0970157 0)
(1.03961 0.0583191 0)
(1.05453 0.0414394 0)
(1.0797 0.026559 0)
(1.08699 0.02138 0)
(1.10448 0.0147346 0)
(1.10941 0.0132512 0)
(1.12243 0.0093878 0)
(1.12547 0.00902778 0)
(1.1348 0.00659152 0)
(1.13653 0.00649332 0)
(1.14353 0.00469481 0)
(1.14446 0.00467891 0)
(1.14981 0.00323467 0)
(1.15008 0.00326765 0)
(0.982975 0.105715 0)
(1.13216 0.079091 0)
(1.15872 0.0603024 0)
(1.18774 0.0503126 0)
(1.20236 0.0429113 0)
(1.22088 0.0395352 0)
(1.22946 0.036079 0)
(1.24174 0.034994 0)
(1.24712 0.0330002 0)
(1.25511 0.0322544 0)
(1.2582 0.0307912 0)
(1.26364 0.0304109 0)
(1.26559 0.0292009 0)
(1.26944 0.029105 0)
(1.27061 0.0280685 0)
(0.972678 0.217651 0)
(1.03484 0.201947 1.35217e-23)
(1.05875 0.208438 5.97232e-21)
(1.09917 0.192316 -5.08972e-21)
(1.12883 0.196091 -3.02989e-22)
(0.992905 0.197048 -1.01045e-20)
(1.05297 0.189084 3.29216e-21)
(1.05314 0.194444 -2.81097e-21)
(1.1214 0.178414 3.65093e-21)
(1.09858 0.180275 -1.6389e-21)
(1.01766 0.176775 1.77022e-21)
(1.04948 0.165685 -2.82044e-21)
(1.06586 0.168136 -2.23932e-21)
(1.11299 0.147421 -3.12279e-21)
(1.09646 0.150293 0)
(1.03563 0.156097 6.00263e-21)
(1.05215 0.14758 1.60493e-21)
(1.07807 0.146908 1.84811e-21)
(1.09875 0.132205 -1.63243e-21)
(1.09939 0.12876 3.66532e-23)
(1.04648 0.136899 0)
(1.06148 0.131114 -2.74977e-21)
(1.08052 0.125151 -8.58131e-24)
(1.09123 0.116279 1.4295e-21)
(1.09901 0.106947 0)
(1.05475 0.118967 6.89948e-23)
(1.06814 0.114765 1.14288e-21)
(1.08102 0.106429 -3.21193e-23)
(1.08719 0.101713 2.96106e-23)
(1.09648 0.0911361 8.72053e-23)
(1.06127 0.103217 -2.90734e-21)
(1.07177 0.0994371 0)
(1.08177 0.0916728 5.80168e-22)
(1.08453 0.0878647 -3.61103e-22)
(1.09355 0.079369 -4.38524e-23)
(1.06857 0.0864898 2.50496e-21)
(1.07618 0.0829544 -2.1679e-21)
(1.08419 0.0769351 -5.05575e-22)
(1.08458 0.073408 1.05083e-21)
(1.09173 0.0673495 -1.99622e-22)
(1.07323 0.0779046 1.6434e-22)
(1.07912 0.0743585 1.72556e-21)
(1.08572 0.0694661 -1.19331e-21)
(1.08572 0.0662269 -5.32287e-22)
(1.09112 0.0618177 1.38168e-22)
(1.08163 0.0587456 3.16328e-21)
(1.08646 0.0557993 0)