/*--------------------------------*- C++ -*----------------------------------*\
| =========                 |                                                 |
| \\      /  F ield         | OpenFOAM: The Open Source CFD Toolbox           |
|  \\    /   O peration     | Version:  2512                                  |
|   \\  /    A nd           | Website:  www.openfoam.com                      |
|    \\/     M anipulation  |                                                 |
\*---------------------------------------------------------------------------*/
FoamFile
{
    version     2.0;
    format      ascii;
    arch        "LSB;label=32;scalar=64";
    class       volScalarField;
    location    "181.9";
    object      p;
}
// * * * * * * * * * * * * * * * * * * * * * * * * * * * * * * * * * * * * * //

dimensions      [0 2 -2 0 0 0 0];

internalField   nonuniform List<scalar> 
13248
(
-0.589646
-0.587349
-0.585756
-0.584903
-0.585008
-0.586006
-0.587353
-0.587995
-0.586435
-0.580979
-0.57013
-0.552979
-0.529437
-0.500233
-0.466679
-0.430323
-0.392639
-0.354837
-0.317773
-0.282077
-0.247957
-0.215768
-0.184886
-0.154944
-0.594054
-0.591521
-0.589111
-0.58701
-0.585467
-0.584385
-0.583089
-0.580369
-0.574728
-0.564777
-0.549614
-0.529045
-0.50359
-0.474281
-0.442362
-0.409029
-0.37527
-0.341822
-0.309211
-0.277799
-0.247796
-0.219446
-0.192456
-0.167182
-0.599756
-0.596867
-0.593754
-0.59056
-0.587441
-0.584127
-0.579759
-0.573098
-0.56293
-0.548451
-0.529468
-0.506393
-0.480055
-0.45145
-0.421521
-0.391053
-0.360644
-0.330743
-0.301681
-0.273722
-0.247027
-0.221756
-0.197755
-0.174772
-0.607411
-0.60392
-0.600064
-0.595775
-0.590921
-0.584965
-0.576943
-0.565851
-0.551047
-0.532437
-0.510431
-0.485755
-0.459234
-0.431625
-0.403542
-0.375456
-0.347727
-0.320629
-0.294382
-0.269167
-0.245092
-0.22232
-0.200643
-0.180047
-0.617271
-0.612868
-0.608117
-0.60253
-0.59554
-0.58636
-0.574146
-0.558427
-0.539284
-0.517241
-0.493043
-0.467441
-0.441076
-0.414435
-0.387878
-0.361669
-0.336016
-0.311087
-0.287026
-0.263947
-0.241946
-0.221089
-0.201234
-0.182362
-0.629335
-0.623731
-0.61785
-0.610583
-0.600857
-0.587792
-0.570987
-0.55072
-0.527751
-0.50298
-0.47721
-0.451044
-0.424898
-0.399039
-0.373652
-0.348873
-0.324813
-0.30157
-0.279224
-0.257846
-0.237487
-0.218178
-0.199837
-0.182473
-0.643438
-0.636432
-0.629125
-0.619628
-0.606396
-0.588783
-0.567172
-0.542644
-0.516424
-0.48951
-0.462579
-0.436025
-0.410059
-0.384794
-0.360297
-0.336617
-0.313797
-0.291875
-0.270884
-0.250852
-0.231798
-0.213722
-0.196593
-0.180399
-0.659265
-0.650735
-0.64163
-0.629174
-0.611564
-0.588852
-0.562441
-0.534067
-0.505129
-0.476508
-0.448663
-0.421782
-0.395923
-0.371088
-0.347261
-0.324432
-0.302588
-0.281724
-0.261832
-0.242906
-0.224932
-0.207892
-0.191776
-0.17649
-0.676233
-0.666115
-0.654737
-0.638434
-0.615609
-0.5875
-0.556525
-0.524782
-0.493582
-0.463565
-0.434958
-0.407782
-0.381976
-0.357463
-0.334169
-0.31203
-0.290994
-0.271015
-0.252053
-0.234067
-0.21702
-0.200882
-0.185625
-0.171093
-0.6934
-0.681656
-0.667402
-0.646305
-0.617636
-0.584132
-0.54899
-0.514346
-0.481251
-0.450064
-0.420807
-0.393365
-0.367589
-0.34334
-0.320495
-0.29895
-0.278615
-0.259413
-0.241274
-0.224136
-0.207942
-0.192648
-0.178191
-0.164394
-0.709464
-0.696052
-0.678178
-0.651396
-0.616533
-0.577862
-0.539001
-0.501871
-0.46718
-0.435019
-0.405229
-0.377587
-0.351873
-0.327893
-0.305483
-0.284503
-0.264831
-0.246365
-0.229012
-0.212692
-0.197335
-0.182884
-0.169237
-0.156246
-0.722856
-0.707715
-0.685389
-0.652165
-0.611016
-0.567537
-0.525415
-0.486193
-0.450209
-0.417296
-0.387143
-0.359432
-0.333879
-0.310244
-0.288322
-0.267943
-0.248959
-0.231244
-0.21469
-0.199204
-0.184711
-0.171148
-0.158397
-0.146373
-0.411984
-0.414432
-0.415547
-0.416718
-0.418686
-0.42167
-0.425732
-0.430883
-0.437121
-0.444432
-0.452786
-0.462136
-0.472422
-0.483573
-0.495514
-0.508159
-0.521385
-0.535016
-0.548782
-0.562295
-0.574946
-0.586075
-0.594624
-0.599208
-0.426771
-0.430242
-0.432391
-0.434797
-0.438193
-0.442711
-0.448302
-0.454828
-0.462081
-0.469793
-0.477645
-0.485293
-0.492403
-0.498702
-0.504022
-0.508332
-0.511727
-0.514395
-0.51656
-0.5184
-0.519903
-0.520652
-0.519778
-0.516842
-0.444584
-0.448724
-0.451873
-0.455598
-0.460567
-0.466823
-0.47421
-0.482435
-0.49107
-0.499572
-0.507298
-0.51355
-0.517641
-0.518993
-0.51723
-0.512254
-0.50427
-0.493762
-0.481442
-0.468126
-0.454405
-0.440191
-0.42516
-0.411467
-0.46505
-0.469489
-0.473422
-0.478375
-0.484897
-0.492899
-0.502151
-0.512212
-0.52245
-0.532048
-0.540037
-0.54534
-0.546884
-0.543728
-0.535219
-0.521105
-0.501595
-0.477355
-0.44949
-0.419378
-0.388226
-0.356539
-0.324903
-0.297534
-0.487134
-0.491349
-0.495859
-0.501866
-0.509658
-0.519128
-0.530021
-0.54172
-0.553406
-0.564021
-0.572291
-0.576793
-0.576087
-0.568892
-0.554295
-0.531909
-0.501938
-0.465211
-0.423112
-0.377399
-0.32994
-0.282182
-0.235714
-0.192624
-0.509337
-0.512914
-0.517598
-0.524223
-0.532925
-0.543489
-0.555395
-0.568181
-0.580771
-0.591899
-0.600041
-0.603479
-0.600468
-0.589478
-0.569465
-0.540034
-0.5015
-0.454935
-0.402075
-0.344973
-0.286039
-0.227065
-0.171343
-0.111793
-0.530056
-0.532674
-0.537126
-0.543853
-0.552804
-0.563696
-0.576052
-0.589012
-0.601636
-0.612438
-0.619727
-0.621574
-0.616028
-0.601451
-0.576733
-0.541611
-0.496824
-0.443835
-0.384863
-0.322274
-0.258889
-0.195948
-0.13714
-0.0786548
-0.547968
-0.549427
-0.553264
-0.559537
-0.56804
-0.578424
-0.590163
-0.602415
-0.614265
-0.623787
-0.629412
-0.629085
-0.620792
-0.602906
-0.574474
-0.535521
-0.487182
-0.431475
-0.370977
-0.308288
-0.246242
-0.186334
-0.131552
-0.0805377
-0.56229
-0.562567
-0.565458
-0.570757
-0.578177
-0.587348
-0.597705
-0.608428
-0.618374
-0.625934
-0.629253
-0.62628
-0.615072
-0.594189
-0.563024
-0.522069
-0.472895
-0.417876
-0.359692
-0.300981
-0.243979
-0.190276
-0.141383
-0.0971261
-0.572907
-0.572149
-0.573878
-0.577785
-0.583606
-0.591003
-0.599357
-0.607936
-0.61552
-0.620516
-0.621025
-0.615037
-0.600808
-0.577258
-0.544287
-0.502898
-0.455014
-0.403075
-0.349585
-0.296725
-0.246214
-0.199075
-0.156292
-0.117781
-0.580314
-0.578782
-0.579288
-0.581566
-0.585468
-0.590663
-0.596791
-0.602918
-0.607808
-0.609826
-0.607068
-0.597683
-0.580298
-0.554381
-0.520421
-0.479854
-0.43472
-0.387232
-0.339405
-0.29279
-0.248551
-0.207168
-0.16944
-0.134613
-0.585481
-0.58346
-0.582819
-0.583431
-0.585293
-0.588373
-0.592115
-0.595605
-0.597496
-0.596069
-0.589508
-0.576311
-0.555689
-0.527771
-0.493574
-0.454744
-0.413147
-0.370553
-0.328334
-0.287521
-0.248685
-0.212183
-0.178592
-0.14729
-0.600949
-0.595805
-0.570153
-0.52409
-0.457153
-0.380532
-0.309805
-0.255738
-0.221912
-0.207312
-0.208475
-0.222459
-0.250985
-0.297037
-0.353631
-0.40015
-0.412301
-0.378919
-0.315127
-0.246764
-0.191332
-0.153447
-0.131967
-0.124142
-0.128175
-0.147631
-0.185972
-0.234101
-0.267609
-0.262737
-0.223879
-0.174473
-0.134555
-0.110911
-0.10277
-0.112158
-0.140424
-0.173938
-0.187663
-0.168951
-0.134186
-0.103304
-0.0835983
-0.0766195
-0.0786069
-0.0822114
-0.0796454
-0.0722968
-0.0625408
-0.0572309
-0.0573418
-0.0605463
-0.0568578
-0.0496614
-0.0375135
-0.033141
-0.0256506
-0.0201096
-0.00992019
-0.0068228
-0.511583
-0.514216
-0.486225
-0.447852
-0.390486
-0.326442
-0.268591
-0.22579
-0.201514
-0.194821
-0.202023
-0.221079
-0.254449
-0.304443
-0.363296
-0.410713
-0.423252
-0.389482
-0.323803
-0.252511
-0.194169
-0.153403
-0.128612
-0.117311
-0.117228
-0.130941
-0.161864
-0.202918
-0.232194
-0.228357
-0.195848
-0.1547
-0.1226
-0.105586
-0.103834
-0.12054
-0.156626
-0.196902
-0.213834
-0.192328
-0.150547
-0.111842
-0.085387
-0.072352
-0.0687196
-0.0682112
-0.0649278
-0.0595911
-0.0546872
-0.0554025
-0.0619189
-0.0699523
-0.0673504
-0.058604
-0.0399999
-0.0285963
-0.0156318
-0.00796719
-0.00506249
-0.00749237
-0.401482
-0.398953
-0.373923
-0.34766
-0.303855
-0.256185
-0.213466
-0.183629
-0.170127
-0.171552
-0.184316
-0.207033
-0.242683
-0.29388
-0.353819
-0.402709
-0.418105
-0.387081
-0.32251
-0.250945
-0.192039
-0.150023
-0.122828
-0.1082
-0.10419
-0.112223
-0.135585
-0.169279
-0.19504
-0.192966
-0.166794
-0.133529
-0.108554
-0.0977986
-0.1024
-0.126382
-0.169788
-0.216263
-0.23683
-0.213733
-0.165586
-0.119198
-0.0863765
-0.0680067
-0.0595006
-0.0551404
-0.0508496
-0.0470231
-0.046707
-0.0533176
-0.0661912
-0.0789708
-0.0773486
-0.0671273
-0.0424602
-0.0240484
-0.0058774
0.00399236
-0.000471111
-0.00809122
-0.281062
-0.273856
-0.256621
-0.233785
-0.208048
-0.176278
-0.148925
-0.13259
-0.129637
-0.138403
-0.155468
-0.180077
-0.216141
-0.267273
-0.32781
-0.379135
-0.397924
-0.371491
-0.310933
-0.242345
-0.185081
-0.143476
-0.115215
-0.0980265
-0.0902092
-0.0928316
-0.108997
-0.135513
-0.15793
-0.158124
-0.137953
-0.111613
-0.0928247
-0.087553
-0.0977541
-0.128144
-0.178227
-0.230652
-0.255167
-0.231928
-0.178773
-0.125222
-0.0865222
-0.0635895
-0.0510639
-0.043146
-0.0375861
-0.0347161
-0.0386213
-0.0508786
-0.0700099
-0.0874736
-0.086669
-0.0750648
-0.0448591
-0.0196054
0.00340177
0.0156296
0.00392
-0.00856702
-0.168663
-0.152626
-0.140112
-0.121235
-0.115364
-0.095536
-0.0827679
-0.0783904
-0.0841286
-0.0984834
-0.118404
-0.144006
-0.180156
-0.230903
-0.291169
-0.344203
-0.366929
-0.345889
-0.291461
-0.228365
-0.174488
-0.134381
-0.106174
-0.0875462
-0.0768259
-0.0743782
-0.0836286
-0.103244
-0.122371
-0.125021
-0.110083
-0.0896267
-0.0758721
-0.0749744
-0.0896876
-0.125227
-0.181068
-0.238769
-0.267507
-0.245937
-0.189709
-0.129965
-0.0859452
-0.0591437
-0.0434363
-0.032341
-0.0253158
-0.0227749
-0.0303751
-0.0479901
-0.073285
-0.0953459
-0.0951616
-0.0822892
-0.0471802
-0.0153655
0.0120165
0.0268101
0.00817755
-0.00888076
-0.0824309
-0.0542185
-0.0387529
-0.0263545
-0.0214696
-0.0173973
-0.0174383
-0.02276
-0.0351997
-0.0537544
-0.0761177
-0.103316
-0.140529
-0.191184
-0.250429
-0.303684
-0.329091
-0.313303
-0.266138
-0.210241
-0.161298
-0.123606
-0.0961488
-0.0769551
-0.0644809
-0.0582738
-0.0612173
-0.0741577
-0.0897272
-0.0962994
-0.0839945
-0.0683774
-0.0584625
-0.0606753
-0.0785822
-0.117948
-0.178141
-0.240295
-0.273252
-0.255063
-0.197918
-0.133416
-0.0847604
-0.0547386
-0.036637
-0.0228172
-0.0141906
-0.0113603
-0.0220243
-0.0445917
-0.0758894
-0.102474
-0.102709
-0.0886725
-0.0493936
-0.011418
0.019809
0.03741
0.0123386
-0.00900191
-0.0360043
0.00699465
0.0337339
0.0483012
0.0528426
0.0510585
0.0446641
0.0334622
0.0166577
-0.00529776
-0.0310062
-0.0616455
-0.10133
-0.152
-0.209343
-0.261105
-0.287532
-0.276543
-0.237344
-0.189644
-0.146628
-0.112153
-0.0859199
-0.0666857
-0.0531466
-0.04452
-0.0425441
-0.0492268
-0.0605731
-0.0674098
-0.0599949
-0.0487008
-0.0415145
-0.0455511
-0.0653738
-0.106533
-0.169226
-0.235263
-0.272025
-0.258938
-0.202969
-0.1356
-0.0831305
-0.050445
-0.0306272
-0.0146337
-0.00435297
-0.00066157
-0.0135665
-0.0406429
-0.0778135
-0.108811
-0.109233
-0.0941168
-0.0514465
-0.00783142
0.0266587
0.0473124
0.0164176
-0.00890808
-0.0365551
0.0134277
0.0562743
0.0843048
0.0979649
0.0995269
0.0936779
0.0815907
0.0639567
0.0404432
0.0113564
-0.0234305
-0.0655848
-0.115549
-0.169801
-0.218342
-0.244186
-0.237496
-0.206661
-0.167755
-0.131245
-0.100589
-0.0760829
-0.0571573
-0.0430607
-0.0328701
-0.027308
-0.0286995
-0.0358177
-0.042397
-0.0388861
-0.0312813
-0.0259502
-0.0306031
-0.0507027
-0.0921996
-0.155308
-0.223345
-0.264178
-0.256646
-0.204188
-0.136385
-0.0811729
-0.0463299
-0.0253089
-0.0077953
0.00410179
0.00913714
-0.00518621
-0.0361561
-0.078895
-0.114264
-0.114649
-0.0985381
-0.0532602
-0.00463795
0.0324832
0.0564095
0.0204145
-0.00858442
-0.0575975
-0.0112384
0.0354404
0.0738048
0.10282
0.115955
0.117728
0.111544
0.0978767
0.076324
0.0463469
0.00939034
-0.0335786
-0.0816085
-0.132012
-0.17704
-0.201068
-0.198302
-0.175766
-0.145616
-0.115719
-0.0891833
-0.0668329
-0.0486204
-0.0343247
-0.0232683
-0.0153714
-0.0125992
-0.0157782
-0.0215424
-0.0206438
-0.0164957
-0.0123928
-0.016612
-0.0357843
-0.0755983
-0.136988
-0.206141
-0.250412
-0.251512
-0.201599
-0.135586
-0.0789099
-0.0424156
-0.020573
-0.00220445
0.0110963
0.0178715
0.00319857
-0.0310557
-0.0793199
-0.118878
-0.118946
-0.101892
-0.0547928
-0.00186638
0.0372533
0.0646013
0.0243135
-0.00802805
-0.0838343
-0.0425633
0.00129662
0.0404049
0.0715272
0.0964163
0.110199
0.113172
0.10809
0.0939752
0.0680352
0.032991
-0.00740865
-0.0510439
-0.0957666
-0.134332
-0.156671
-0.158757
-0.144918
-0.123578
-0.100405
-0.0782457
-0.0584169
-0.0413493
-0.0272486
-0.015805
-0.00665409
-0.000938442
-0.000548932
-0.00481245
-0.00542017
-0.00461945
-0.00122326
-0.00450541
-0.0216288
-0.0585853
-0.117102
-0.183891
-0.23099
-0.23674
-0.19395
-0.132971
-0.0765355
-0.0388584
-0.0164903
0.00213674
0.0166371
0.0253519
0.0111877
-0.0255172
-0.0787048
-0.122444
-0.122013
-0.104098
-0.0560805
0.000358554
0.0409424
0.0717618
0.0280873
-0.00724402
-0.103708
-0.0683436
-0.0290547
0.0102742
0.0439521
0.0723411
0.09099
0.101218
0.104307
0.0976743
0.0806489
0.0522814
0.0160264
-0.0237774
-0.0629857
-0.0966296
-0.118081
-0.125417
-0.119039
-0.104991
-0.0875308
-0.069305
-0.0519403
-0.0361579
-0.0224527
-0.0108319
-0.00102745
0.00656711
0.00994623
0.0073906
0.000250867
0.00477153
0.0075665
0.00546273
-0.00851887
-0.0412195
-0.0952571
-0.160567
-0.209069
-0.219519
-0.185184
-0.129733
-0.0749112
-0.0361738
-0.0131759
0.00525026
0.0205125
0.0315999
0.019119
-0.0192817
-0.0775522
-0.125292
-0.123973
-0.105262
-0.0570237
0.0020228
0.0434933
0.0777759
0.0317132
-0.00625844
-0.121164
-0.0940413
-0.0646668
-0.0303725
0.00445284
0.0348895
0.0589874
0.0756919
0.0845869
0.0864677
0.0792125
0.0627496
0.0376605
0.00756687
-0.0242314
-0.0541059
-0.0767172
-0.0862508
-0.0875776
-0.0818985
-0.0713146
-0.0580338
-0.0438949
-0.0299992
-0.0172274
-0.00594837
0.003924
0.012584
0.0180767
0.0173898
0.0117712
0.0118559
0.0142745
0.0124214
0.000924372
-0.0263872
-0.0742667
-0.135147
-0.182189
-0.194997
-0.170122
-0.122502
-0.0716918
-0.0331197
-0.0095977
0.00857648
0.0233826
0.0360377
0.0259387
-0.0127594
-0.0749647
-0.126608
-0.124439
-0.105169
-0.0566885
0.00393318
0.0453634
0.0824232
0.0351453
-0.00509098
-0.113358
-0.0953658
-0.0678277
-0.0357574
-0.00385528
0.0224856
0.0445605
0.0606806
0.0713592
0.076423
0.0735839
0.0614999
0.0413916
0.0162141
-0.0108341
-0.0360804
-0.0548894
-0.0646519
-0.0671585
-0.0633767
-0.0551213
-0.0442258
-0.0322514
-0.0201796
-0.00872532
0.00162558
0.0107077
0.0190342
0.0253229
0.0265682
0.0221088
0.0192681
0.0199159
0.0197001
0.0123687
-0.00965493
-0.0531644
-0.111537
-0.159211
-0.176769
-0.15686
-0.111105
-0.0634882
-0.026778
-0.00457774
0.0127573
0.0271821
0.0421185
0.0334282
-0.00514505
-0.0713814
-0.127823
-0.124911
-0.103491
-0.0546995
0.00653242
0.0472304
0.0859717
0.0383048
-0.00388311
-0.108557
-0.0923129
-0.0661367
-0.0372386
-0.0102605
0.0127989
0.032206
0.0474652
0.0581879
0.0634338
0.0620003
0.0533639
0.0384019
0.0191773
-0.00171665
-0.0208512
-0.0362667
-0.0450708
-0.0478984
-0.0456631
-0.0396974
-0.0312962
-0.0215741
-0.0113896
-0.00142186
0.00792617
0.0163447
0.0240015
0.0298962
0.0312799
0.0271361
0.0232674
0.023338
0.0232164
0.0178273
-0.000120169
-0.0379085
-0.0920885
-0.138563
-0.156374
-0.138457
-0.0976152
-0.0547896
-0.0207409
3.63792e-05
0.0164668
0.0301568
0.0444802
0.038207
0.000479985
-0.0684972
-0.128647
-0.123944
-0.0998837
-0.0519963
0.00894256
0.0485814
0.0878907
0.0408238
-0.0026623
-0.102246
-0.0877692
-0.0651774
-0.0402309
-0.0171735
0.00351547
0.0209821
0.0349561
0.0448558
0.0500984
0.050141
0.0447542
0.0344842
0.0207356
0.00532701
-0.0096299
-0.021533
-0.0292342
-0.0325033
-0.0316511
-0.0274787
-0.0209088
-0.0128495
-0.00407504
0.00472912
0.0131733
0.0208419
0.0278441
0.0335475
0.0353248
0.0315984
0.0270199
0.0258814
0.0252728
0.0202492
0.00442641
-0.0287524
-0.0763329
-0.116152
-0.132706
-0.119019
-0.0838491
-0.0461674
-0.0149772
0.00411483
0.0197121
0.0325702
0.0466667
0.0414234
0.00411958
-0.0666125
-0.128408
-0.121588
-0.0948796
-0.0485632
0.0112107
0.0493921
0.0884727
0.0427436
-0.00132257
-0.0934216
-0.0826201
-0.0641215
-0.0426043
-0.0220923
-0.00402777
0.0112877
0.0237134
0.0328972
0.0384317
0.0399244
0.0372059
0.0305968
0.0209981
0.00975727
-0.00158888
-0.0107838
-0.0171821
-0.0202272
-0.0198925
-0.0167233
-0.0114649
-0.00481944
0.00263742
0.0102494
0.0177237
0.0246322
0.0308473
0.0359421
0.0378552
0.034501
0.0293841
0.027699
0.0269002
0.0221496
0.00758108
-0.020919
-0.0590554
-0.0915769
-0.108165
-0.0984344
-0.0689086
-0.0369402
-0.00926596
0.00785116
0.022599
0.0343731
0.0480997
0.0437119
0.00708904
-0.0639367
-0.126386
-0.117387
-0.0883333
-0.044051
0.0134783
0.0496392
0.0876503
0.0441496
0.000175261
-0.0851815
-0.0774874
-0.0623343
-0.0437364
-0.0258649
-0.0101555
0.00322654
0.0143082
0.022882
0.0285795
0.0310735
0.0302452
0.0263196
0.0199693
0.012195
0.00409876
-0.00278269
-0.00771586
-0.0102072
-0.0101296
-0.00778691
-0.00362538
0.00182891
0.00818161
0.0148193
0.0214165
0.0276046
0.0331464
0.0375564
0.0393792
0.0364624
0.031296
0.0290046
0.028003
0.0234815
0.0105557
-0.0116281
-0.0399344
-0.0665712
-0.0831057
-0.0774996
-0.0538152
-0.0276679
-0.00381361
0.0111394
0.025008
0.035651
0.0483253
0.0451215
0.0102838
-0.0594903
-0.121923
-0.111554
-0.0802134
-0.0385048
0.0156863
0.0493044
0.0853496
0.0451027
0.00180985
-0.0774269
-0.0716988
-0.0592411
-0.0437208
-0.0284145
-0.0148042
-0.00310528
0.00674114
0.0146172
0.0202434
0.0233728
0.0239298
0.0220898
0.0183234
0.0133719
0.00787449
0.00300078
-0.000607955
-0.00249745
-0.0024245
-0.000517592
0.00295392
0.00755
0.0129855
0.0187366
0.0244555
0.0298693
0.0347577
0.0385124
0.0401053
0.0376611
0.0327699
0.0301563
0.0288727
0.0245366
0.0138023
-0.00180498
-0.0213544
-0.0423725
-0.0587313
-0.0571059
-0.0389516
-0.0183534
0.0014223
0.0140589
0.0269157
0.0364556
0.0472692
0.0456547
0.0137698
-0.053053
-0.114252
-0.103412
-0.0706442
-0.0319653
0.0178636
0.0484184
0.0815579
0.0455309
0.00350316
-0.0692631
-0.0653984
-0.0556759
-0.0428068
-0.0297879
-0.0180432
-0.00784755
0.000845022
0.00799185
0.0134155
0.0169406
0.0185101
0.0182294
0.0164062
0.0135375
0.0101721
0.00700111
0.00462074
0.00344594
0.00373048
0.00540769
0.00834208
0.0122102
0.0168228
0.0218035
0.026783
0.0314866
0.0357747
0.0390077
0.0403293
0.0384072
0.0340497
0.0313973
0.0300806
0.0255833
0.0164668
0.00659643
-0.00456311
-0.0198982
-0.036053
-0.0380685
-0.025013
-0.00940206
0.00633355
0.0166483
0.0283425
0.0368836
0.0451797
0.0451727
0.0171497
-0.0444532
-0.102578
-0.0925206
-0.0598979
-0.0246875
0.0199852
0.0470245
0.0757331
0.0452588
0.00515975
-0.0612749
-0.0590388
-0.0515489
-0.0409915
-0.0300059
-0.0199395
-0.0111094
-0.00348493
0.00294283
0.0080755
0.0117901
0.0140326
0.014863
0.014488
0.0132187
0.0114803
0.00972732
0.00843135
0.00791802
0.00844065
0.0100042
0.0125753
0.015932
0.0199089
0.0242273
0.0285543
0.0325992
0.0363012
0.0391091
0.0402266
0.0388319
0.0352292
0.032781
0.0316088
0.0273733
0.0195504
0.0145827
0.0103974
-0.000701337
-0.0166695
-0.0213473
-0.0125059
-0.00101188
0.0109208
0.0190048
0.0293746
0.0370042
0.042573
0.0436689
0.0203015
-0.0334898
-0.0863721
-0.0786045
-0.048435
-0.0170652
0.0220436
0.0452209
0.0693209
0.0441709
0.00670001
-0.0537053
-0.052616
-0.0469224
-0.038359
-0.0291829
-0.0206339
-0.0130452
-0.00639995
-0.000666719
0.00410599
0.00783664
0.0104783
0.0120687
0.0127391
0.0126598
0.0121399
0.0114991
0.0110855
0.0111619
0.0119685
0.0135424
0.0158801
0.0188367
0.0222719
0.0259986
0.0297617
0.0332569
0.0364445
0.0388948
0.0398986
0.0390046
0.0362856
0.0343233
0.0334218
0.0307673
0.0253442
0.0242118
0.0232586
0.013681
-0.00142744
-0.00728022
-0.00168685
0.00653299
0.0151059
0.0212186
0.0301348
0.0368664
0.0402347
0.0415696
0.0234132
-0.0204086
-0.0659342
-0.0617871
-0.0368012
-0.00958167
0.0239954
0.0431079
0.0620806
0.0422265
0.00806896
-0.0465308
-0.0461849
-0.0419243
-0.0350702
-0.0274965
-0.0203035
-0.0138279
-0.00807549
-0.00300915
0.00135658
0.00497518
0.00781276
0.00988597
0.0112344
0.01201
0.0123879
0.0125978
0.012897
0.013487
0.0145611
0.0161717
0.0183355
0.0209803
0.0239936
0.0272369
0.0305198
0.0335574
0.036308
0.0384575
0.0394156
0.0389753
0.037132
0.0357419
0.0355009
0.034742
0.0326283
0.0338686
0.0330896
0.023642
0.0102763
0.00427722
0.00736502
0.0130406
0.0188193
0.0233454
0.0307682
0.0365492
0.0387789
0.0395604
0.0265294
-0.00638098
-0.0429806
-0.0429942
-0.0255753
-0.0026851
0.025808
0.0408645
0.054496
0.0395318
0.00923101
-0.0395259
-0.0397854
-0.036741
-0.0313416
-0.0251424
-0.0191293
-0.0136405
-0.0086999
-0.0042663
-0.00032953
0.00308843
0.00595539
0.00826541
0.0100623
0.0114104
0.0124274
0.0132661
0.0141039
0.0150914
0.016382
0.0180425
0.0200952
0.0225058
0.0251838
0.0280223
0.0308941
0.0335541
0.0359477
0.0378612
0.0388288
0.0387801
0.0377707
0.0369991
0.0374373
0.0381741
0.0383159
0.0403167
0.0391836
0.0304284
0.0191903
0.0134965
0.0146566
0.0183621
0.022014
0.0253463
0.0313437
0.0361493
0.0382313
0.0382464
0.0292712
0.00662099
-0.0204599
-0.0238305
-0.0152616
0.00329804
0.027438
0.0387544
0.0472843
0.0364439
0.0101843
-0.0328306
-0.0336431
-0.0315719
-0.0273412
-0.0222836
-0.0172851
-0.0126671
-0.00845851
-0.00461522
-0.00111198
0.00204459
0.0048272
0.00722964
0.00925983
0.0109608
0.0123954
0.0136606
0.0148759
0.016157
0.0176198
0.0193262
0.0212961
0.0235149
0.0259213
0.0284297
0.0309596
0.0333131
0.0354261
0.0371571
0.0381729
0.0384412
0.0381192
0.0379184
0.0387451
0.0401761
0.0411538
0.0429443
0.0419403
0.0347592
0.0256054
0.0204461
0.0202818
0.0224782
0.0247098
0.0271518
0.0318625
0.0357366
0.0381549
0.0376733
0.0309712
0.0165774
-0.00156942
-0.0064027
-0.0061931
0.00819549
0.0287628
0.0370555
0.0413601
0.0336271
0.0109639
-0.0267928
-0.0278589
-0.0264577
-0.0231573
-0.0190641
-0.0149431
-0.0110879
-0.00753039
-0.0042276
-0.00115077
0.00170251
0.00432627
0.0066988
0.00881735
0.0106995
0.0123749
0.0139061
0.0153698
0.0168499
0.018427
0.0201539
0.0220512
0.0241116
0.0262991
0.0285401
0.0307871
0.0328896
0.0347871
0.0363736
0.0374513
0.037965
0.0381421
0.038403
0.0393665
0.0409459
0.0420567
0.0432845
0.042469
0.0370652
0.0298216
0.0253576
0.0244552
0.0255217
0.0269228
0.0286629
0.032271
0.035322
0.0378937
0.0368708
0.0310955
0.0225781
0.0117776
0.00696293
0.0014977
0.0120783
0.0296217
0.0358546
0.037437
0.0318626
0.0116115
-0.0211728
-0.0223313
-0.0214518
-0.0189232
-0.0156411
-0.0122648
-0.00906469
-0.00607776
-0.00326539
-0.000594772
0.00194779
0.00435361
0.00661347
0.00870864
0.0106441
0.0124289
0.0141002
0.0157015
0.0172909
0.0189252
0.0206454
0.0224719
0.0243956
0.0263999
0.028422
0.0304369
0.0323307
0.0340601
0.0355295
0.0366599
0.0373584
0.0378678
0.0384369
0.039389
0.0408314
0.0418248
0.0425241
0.0417945
0.0379101
0.0323514
0.0285001
0.0274334
0.027714
0.0286522
0.029835
0.0325177
0.0348706
0.0372375
0.0362387
0.030965
0.0258516
0.0196258
0.0154945
0.00785287
0.015158
0.0298892
0.0350069
0.0354133
0.0312177
0.0120266
-0.015893
-0.0171484
-0.0166765
-0.0147542
-0.0121296
-0.0093744
-0.00673323
-0.00424483
-0.00187341
0.000418412
0.00265253
0.00481677
0.00690643
0.00890061
0.0107979
0.0125926
0.0143034
0.0159521
0.0175777
0.0192196
0.020905
0.0226533
0.0244517
0.0262973
0.0281365
0.0299595
0.031676
0.0332696
0.0346421
0.0357987
0.0366238
0.0373228
0.0380638
0.0389457
0.0401438
0.0409501
0.0412836
0.0405954
0.0378565
0.0337353
0.0306799
0.0294993
0.0292681
0.0299015
0.0306665
0.0326011
0.0343444
0.0363094
0.0355814
0.0312543
0.0280325
0.0241085
0.0203082
0.0129118
0.0175757
0.0294553
0.0339511
0.0339628
0.0303161
0.0118846
-0.0110989
-0.0123574
-0.0121555
-0.0107011
-0.00861328
-0.0063796
-0.00421626
-0.00215955
-0.0001758
0.00177144
0.00370492
0.00561908
0.00750835
0.0093529
0.0111477
0.0128797
0.0145556
0.0161836
0.0177871
0.0193927
0.021016
0.0226749
0.0243532
0.0260563
0.027736
0.0293964
0.0309605
0.0324363
0.0337245
0.0348732
0.0357721
0.0365623
0.0373693
0.0381653
0.0391158
0.0397369
0.0398624
0.0392255
0.0373025
0.0343341
0.0319556
0.0308269
0.0303238
0.0307049
0.0311829
0.0325267
0.0337352
0.0352751
0.0348064
0.0315152
0.0292901
0.0266547
0.022899
0.0166776
0.0193554
0.028437
0.0322769
0.0318397
0.027937
0.011025
-0.00671139
-0.00791298
-0.00790291
-0.00682075
-0.00517223
-0.00337256
-0.00161171
7.71481e-05
0.00172347
0.00335979
0.00501144
0.00667794
0.00835368
0.0100203
0.0116717
0.0132924
0.0148811
0.0164376
0.0179736
0.019507
0.0210445
0.0226022
0.0241606
0.0257302
0.0272665
0.0287834
0.0302133
0.0315792
0.0327894
0.0338988
0.0348271
0.0356443
0.0364475
0.0371601
0.0379052
0.0383734
0.0384016
0.0378454
0.0364878
0.0343911
0.0325572
0.0315646
0.0309681
0.0311282
0.0314021
0.0323029
0.033065
0.0341886
0.0338929
0.031362
0.0295941
0.0277931
0.0242601
0.0192261
0.0204984
0.0269997
0.0299912
0.0288484
0.0243454
0.00970991
-0.00269729
-0.0038297
-0.00395153
-0.003156
-0.00186031
-0.000417579
0.00100725
0.00238408
0.0037376
0.00509854
0.00649264
0.0079224
0.00938273
0.0108586
0.0123435
0.0138224
0.015289
0.0167382
0.0181739
0.0196081
0.0210409
0.0224861
0.0239227
0.0253629
0.0267661
0.028151
0.0294594
0.0307171
0.0318517
0.0329018
0.0338188
0.0346208
0.0353836
0.0360232
0.0366153
0.0369715
0.0369681
0.036514
0.0355478
0.034082
0.03269
0.0318536
0.0312611
0.0312441
0.031355
0.0319341
0.0323475
0.0330659
0.0328584
0.0308499
0.0292626
0.0279153
0.0248363
0.0207879
0.0210719
0.025421
0.027421
0.0256632
0.0206489
0.0082872
0.000940147
-9.82955e-05
-0.000298726
0.000277273
0.00128812
0.00243683
0.00358047
0.00469231
0.00579536
0.006917
0.00808007
0.00928937
0.0105418
0.0118254
0.0131341
0.0144548
0.0157782
0.0170977
0.0184113
0.0197272
0.0210415
0.022365
0.0236772
0.0249895
0.0262664
0.0275253
0.0287195
0.0298696
0.0309251
0.0319041
0.0327818
0.0335466
0.0342515
0.0348274
0.0353117
0.0355951
0.0355944
0.0352459
0.0345566
0.0335341
0.0324934
0.0318086
0.0312544
0.0311154
0.0310914
0.0314284
0.0315864
0.0318888
0.0317263
0.0301158
0.0286051
0.0274186
0.0248693
0.02161
0.0211822
0.0238058
0.0248321
0.0225834
0.0173422
0.00694663
0.00424041
0.00330449
0.0030578
0.00346413
0.00424506
0.00515184
0.00606139
0.00695089
0.00784199
0.00875784
0.00971631
0.0107244
0.0117825
0.0128811
0.0140138
0.0151705
0.0163414
0.0175188
0.018698
0.0198838
0.0210704
0.022266
0.0234521
0.0246369
0.0257909
0.0269272
0.0280113
0.0290553
0.0300262
0.0309269
0.0317468
0.0324622
0.0331047
0.0336251
0.0340364
0.0342763
0.0342933
0.0340433
0.0335542
0.0328374
0.0320566
0.0314529
0.0309864
0.0307933
0.0306678
0.0308073
0.0307901
0.0307771
0.0305439
0.0292484
0.0277909
0.0266095
0.0245321
0.0218769
0.020937
0.0222185
0.0223773
0.0197617
0.0145543
0.00576998
0.00722378
0.00639007
0.00612113
0.00639815
0.00699422
0.00770261
0.00841924
0.00912362
0.00983499
0.0105743
0.0113543
0.0121832
0.0130637
0.0139895
0.014954
0.0159491
0.0169659
0.0179973
0.0190368
0.0200871
0.021142
0.0222069
0.0232658
0.0243237
0.0253574
0.0263743
0.0273502
0.0282901
0.0291726
0.0299913
0.030741
0.0313996
0.0319815
0.0324535
0.0328151
0.0330301
0.0330694
0.0329038
0.03256
0.0320566
0.0314752
0.0309975
0.0305778
0.0303286
0.0301249
0.0300955
0.0299494
0.0297147
0.0293577
0.0282927
0.0269048
0.0256741
0.0239385
0.0217277
0.0204278
0.0206708
0.0201312
0.0172757
0.01227
0.00478403
0.0099073
0.0091749
0.00890184
0.00908132
0.00952974
0.0100761
0.0106335
0.0111837
0.0117426
0.012331
0.0129603
0.0136329
0.0143525
0.0151192
0.0159275
0.0167693
0.0176369
0.0185242
0.0194247
0.0203394
0.0212624
0.0221967
0.0231296
0.0240627
0.0249783
0.0258792
0.0267484
0.0275857
0.0283769
0.0291129
0.029788
0.0303867
0.0309104
0.031338
0.0316625
0.0318626
0.031922
0.0318232
0.0315847
0.0312294
0.0307938
0.0304034
0.0300296
0.0297472
0.0294855
0.029312
0.0290691
0.028694
0.0282052
0.0272783
0.0259829
0.0247037
0.0231712
0.0212731
0.0197338
0.0191908
0.0181221
0.0151472
0.0104248
0.00398415
0.0123152
0.0116797
0.0114145
0.0115204
0.0118503
0.0122639
0.0126892
0.0131118
0.0135441
0.014004
0.014503
0.0150417
0.0156214
0.0162442
0.0169094
0.0176101
0.0183379
0.0190877
0.0198542
0.0206371
0.0214315
0.0222387
0.0230484
0.0238603
0.0246605
0.025449
0.0262131
0.0269507
0.0276509
0.0283045
0.0289036
0.0294407
0.0299082
0.0302935
0.0305867
0.0307754
0.0308489
0.030799
0.0306352
0.0303796
0.0300473
0.0297173
0.0293792
0.0290753
0.0287751
0.0284995
0.0281633
0.0277012
0.027105
0.0262358
0.0250368
0.0237354
0.0222952
0.0206023
0.0189233
0.0178061
0.0163529
0.0133595
0.00894679
0.00334771
0.0144705
0.0139239
0.0136727
0.013723
0.0139576
0.0142631
0.0145803
0.0148974
0.0152251
0.015577
0.0159632
0.0163877
0.0168485
0.0173458
0.017881
0.0184523
0.019052
0.0196745
0.0203149
0.0209731
0.0216449
0.0223305
0.023022
0.0237176
0.0244065
0.0250869
0.0257492
0.0263903
0.0270009
0.0275737
0.0281011
0.0285734
0.0289853
0.0293282
0.0295913
0.0297673
0.0298476
0.0298293
0.0297156
0.0295239
0.029262
0.0289737
0.0286607
0.0283428
0.0280094
0.0276627
0.0272491
0.0267265
0.0260579
0.0251954
0.0240723
0.0227793
0.0213643
0.0197906
0.0180504
0.0165321
0.0148048
0.0118683
0.00776932
0.00284696
0.01639
0.0159235
0.0156903
0.0156994
0.0158583
0.016076
0.0163048
0.0165351
0.0167756
0.0170381
0.0173298
0.017654
0.0180123
0.0184036
0.0188269
0.0192814
0.0197642
0.0202704
0.0207951
0.0213377
0.021895
0.0224666
0.0230465
0.0236321
0.0242151
0.0247928
0.0253571
0.0259054
0.0264291
0.0269207
0.0273769
0.0277874
0.0281452
0.028445
0.028677
0.0288362
0.0289154
0.0289134
0.0288302
0.0286773
0.0284593
0.0281979
0.0278995
0.0275723
0.0272105
0.0268132
0.0263406
0.0257684
0.0250557
0.0241799
0.0230995
0.0218362
0.0204211
0.0189004
0.0171507
0.0153744
0.0134573
0.0106257
0.00683398
0.00245576
0.0180921
0.0176972
0.0174841
0.0174627
0.017561
0.0177072
0.0178636
0.0180227
0.0181916
0.0183795
0.0185924
0.0188326
0.0191012
0.0193997
0.0197278
0.0200834
0.0204622
0.0208631
0.0212828
0.0217201
0.0221723
0.022639
0.0231152
0.0235985
0.0240819
0.0245628
0.0250346
0.025495
0.0259361
0.0263534
0.0267367
0.0270847
0.0273887
0.0276443
0.0278428
0.0279803
0.0280504
0.028052
0.0279833
0.0278508
0.0276564
0.0274111
0.0271186
0.026783
0.0263983
0.0259619
0.0254466
0.0248331
0.0240912
0.0232016
0.0221359
0.0209065
0.0194927