/*--------------------------------*- C++ -*----------------------------------*\
| =========                 |                                                 |
| \\      /  F ield         | OpenFOAM: The Open Source CFD Toolbox           |
|  \\    /   O peration     | Version:  2312                                  |
|   \\  /    A nd           | Website:  www.openfoam.com                      |
|    \\/     M anipulation  |                                                 |
\*---------------------------------------------------------------------------*/
FoamFile
{
    version     2.0;
    format      ascii;
    arch        "LSB;label=32;scalar=64";
    class       surfaceScalarField;
    location    "65.5";
    object      phi;
}
// * * * * * * * * * * * * * * * * * * * * * * * * * * * * * * * * * * * * * //

dimensions      [0 3 -1 0 0 0 0];

oriented        oriented;

internalField   nonuniform List<scalar> 
1810
(
0.00728173
0.0246809
-0.0319626
0.108356
-0.105079
0.00400496
0.250699
-0.209081
0.0667379
0.391214
-0.304239
0.163724
0.565515
-0.381589
0.207288
-0.455263
0.324384
0.696394
0.061593
-0.0369121
0.197134
-0.24062
0.308311
-0.320258
0.388713
-0.384641
0.444469
-0.437345
-0.485784
0.47499
0.111326
-0.148238
0.175717
-0.305011
0.200439
-0.34498
0.2098
-0.394003
0.224663
-0.452209
0.249776
-0.510896
-0.0390449
0.00373275
0.0353121
-0.0830077
0.00511438
0.0388485
-0.129504
0.0143509
0.0321458
-0.144933
0.00381101
0.0116176
-0.158409
0.0324884
-0.0190128
0.0306419
-0.127525
-0.061525
-0.015757
0.0194897
-0.0317749
0.0211323
-0.0304704
0.0130464
0.018703
-0.0453623
0.0953209
-0.0441296
-0.111517
0.23748
-0.0124729
0.0126643
0.0924486
0.21081
0.373969
0.586836
-0.0610605
0.0625202
-0.128985
0.0164405
0.138653
-0.216154
0.0745047
0.0607838
-0.118848
0.240264
0.000824103
-0.166584
0.566303
0.108528
-0.434566
0.624816
-0.502229
0.443715
0.579953
-1.02062
1.06548
0.620359
0.185382
-0.225788
0.57965
0.794456
-0.753747
0.505581
-0.148564
0.222634
0.384787
-0.108689
0.229482
0.298655
0.578962
-0.49283
0.342932
0.164927
-0.209203
0.435713
-0.64036
0.54758
0.567808
-0.16056
0.0284652
0.22314
-0.26744
0.249361
0.0506392
0.314939
0.0730749
0.345509
0.0302144
0.417742
-0.0714093
0.665469
-0.139199
0.63771
-0.474469
0.549159
-0.932067
0.633071
0.10147
0.569443
0.858084
0.42484
-0.00396115
0.3558
-0.0396483
0.415478
0.519284
0.508607
0.0717977
0.490921
-0.622674
0.527866
-0.197506
0.178018
0.591844
0.0456312
0.604512
0.0604065
0.614417
0.0203102
0.641099
-0.0980916
0.653439
-0.151539
0.527252
-0.348283
0.41466
-0.819474
0.514955
0.00117417
0.509657
0.863382
0.394015
0.111681
0.328594
0.0257729
0.434155
0.413722
0.541465
-0.0355122
0.509905
-0.591114
0.495432
-0.183033
0.12438
0.699952
0.0525181
-0.706839
0.722951
0.0374074
0.71142
0.0318414
0.741757
-0.128429
0.70461
-0.114391
0.616281
-0.259954
0.43536
-0.638553
0.302145
0.134389
0.390873
0.774655
0.445477
0.0570769
0.373012
0.0982376
0.425631
0.361103
0.517843
-0.127725
0.484797
-0.558068
0.438945
-0.137181
0.101719
0.848127
0.057899
-0.853508
0.866449
0.0190859
0.858035
0.0402552
0.832083
-0.102477
0.790987
-0.0732953
0.728608
-0.197575
0.543941
-0.453886
0.38495
0.293379
0.545289
0.614316
0.619825
-0.0174593
0.58153
0.136533
0.646162
0.296471
0.699407
-0.180969
0.653878
-0.51254
0.623294
-0.106596
0.0825371
1.02433
0.0507715
-1.0172
1.02286
0.0205532
1.03578
0.027334
0.993303
-0.0599984
0.970663
-0.0506547
0.900679
-0.127592
0.702102
-0.255309
0.656018
0.339464
0.852785
0.417549
0.856442
-0.0211162
0.85178
0.141194
0.941105
0.207146
0.925114
-0.164978
0.844271
-0.431697
0.841038
-0.103363
0.0555707
1.23094
0.0449518
-1.22512
1.2326
0.018888
1.23096
0.0289733
1.20589
-0.0349294
1.17291
-0.017669
1.10106
-0.0557493
0.973429
-0.127674
1.04135
0.271542
1.19464
0.264261
1.16756
0.00596277
1.16875
0.140006
1.23905
0.136849
1.19401
-0.119943
1.10523
-0.342912
1.10716
-0.105294
0.031626
1.51352
0.035077
-1.50365
1.51107
0.0213447
1.5178
0.0222413
1.48514
-0.00227222
1.46998
-0.00250348
1.41551
-0.00128738
1.32213
-0.0342847
1.42222
0.171445
1.51885
0.167634
1.48516
0.0396483
1.50019
0.12498
1.55782
0.0792188
1.51307
-0.0751881
1.42033
-0.250177
1.41187
-0.0968312
0.0152066
1.83699
0.0309024
-1.83282
1.83323
0.0251082
1.82967
0.0257997
1.81218
0.0152203
1.79707
0.0126009
1.7736
0.022188
1.73819
0.00112036
1.81151
0.0981236
1.86894
0.110203
1.86433
0.0442648
1.8914
0.0979063
1.9304
0.040215
1.88212
-0.0269056
1.79214
-0.160193
1.78515
-0.0898414
-0.00193196
2.28299
0.0248636
-2.27696
2.28317
0.0249304
2.28496
0.0240123
2.27599
0.0241938
2.26817
0.0204189
2.26077
0.0295884
2.2384
0.0234838
2.28259
0.0539357
2.32062
0.0721775
2.33019
0.0346912
2.35607
0.0720237
2.37952
0.0167706
2.35907
-0.00645446
2.2892
-0.0903268
2.26795
-0.0685879
-0.005311
2.86314
0.0192331
-2.85751
2.867
0.0210735
2.87091
0.0201029
2.87264
0.0224635
2.87358
0.0194826
2.87875
0.0244111
2.87881
0.0234261
2.90415
0.0285962
2.92875
0.0475747
2.94645
0.0169969
2.96744
0.0510311
2.98172
0.00248996
2.97292
0.00234251
2.91835
-0.0357496
2.90233
-0.0525672
-0.0149533
3.61677
0.0112179
-3.60876
3.62538
0.0124661
3.63308
0.0124059
3.64228
0.0132592
3.64823
0.0135336
3.65988
0.0127629
3.66651
0.0167931
3.68433
0.0107732
3.70639
0.0255179
3.71787
0.00551185
3.74362
0.0252853
3.74272
0.00339479
3.74766
-0.00259907
3.71703
-0.00512634
3.69048
-0.0260113
-0.0118848
4.93286
-4.92164
4.94533
4.95773
4.97099
4.98452
4.99729
5.01408
5.02485
5.05037
5.05588
5.08117
5.08456
5.08196
5.07684
5.05083
0.618383
0.23246
-0.601068
0.669128
0.424245
0.658683
0.752304
0.220639
-0.740482
0.79709
0.379458
0.602265
0.927295
0.203224
-0.90988
0.951254
0.355499
0.536318
1.15241
0.17668
-1.12587
1.17664
0.331272
0.48784
1.41938
0.14388
-1.38658
1.45184
0.298817
0.436027
1.74207
0.115948
-1.71413
1.78093
0.259954
0.384141
2.16103
0.0926361
-2.13772
2.20896
0.212027
0.316142
2.72913
0.0690789
-2.70558
2.78196
0.159201
0.240588
3.43961
0.0398542
-3.41039
3.50714
0.0916681
0.138976
4.691
-4.65114
4.78267
0.266533
0.444476
-0.38905
-0.321959
0.195962
0.414936
-0.344364
0.124032
0.357663
-0.285733
0.0689139
0.322464
-0.267346
0.0228093
0.302263
-0.256159
0.239933
-0.217124
0.0918171
0.503102
-0.150442
0.0542211
0.452532
0.0161703
0.395714
-0.00625864
0.344893
-0.023762
0.319767
0.216171
-0.0846358
0.0768414
-0.0843129
-0.0826018
-0.0826887
-0.0679334
0.494938
0.149797
-0.625391
-0.0193439
0.380735
0.131813
-0.0176105
0.270103
0.124939
-0.0143074
0.169942
0.11325
-0.013089
0.0770585
0.10576
-0.0128765
0.0899332
-0.0128748
0.444111
0.278519
-0.572833
0.343028
0.232896
0.257419
0.210549
0.165932
0.204737
0.0787309
0.192961
0.168664
0.360918
-0.47145
0.249451
0.174266
0.111657
0.0484597
0.722014
0.556782
-0.582437
0.698625
0.384934
-0.361546
0.716846
0.240247
-0.258468
0.707665
0.18643
-0.177249
0.720962
0.125242
-0.138538
0.702001
0.0947683
-0.0758078
0.697752
0.0645581
-0.0603085
0.674457
0.0653571
-0.0420626
0.655285
0.049957
-0.0307848
0.0547611
-0.0248669
0.711659
0.541482
0.68796
0.408633
0.69308
0.235128
0.675584
0.203926
0.677709
0.123116
0.66493
0.107548
0.655155
0.0743333
0.631271
0.0892404
0.607604
0.0736247
0.0895318
0.674361
0.563479
0.645905
0.437089
0.635479
0.245553
0.613733
0.225673
0.588841
0.148008
0.570246
0.126142
0.551927
0.0926527
0.52437
0.116797
0.502759
0.0952355
0.120841
0.554046
0.562093
0.549022
0.442113
0.568856
0.225719
0.556704
0.237825
0.554712
0.149999
0.537128
0.143727
0.53048
0.0993
0.528372
0.118906
0.532821
0.090786
0.110199
0.543463
0.691157
0.556989
0.679246
0.454024
0.706103
0.198862
0.680497
0.263431
0.683332
0.147164
0.678326
0.148733
0.668422
0.109204
0.676641
0.110687
0.672027
0.0954
0.0922864
0.68994
0.870177
0.538455
0.868064
0.456137
0.873165
0.193761
0.8542
0.282396
0.846148
0.155216
0.859574
0.135307
0.865332
0.103446
0.871898
0.104121
0.875605
0.091693
0.0842289
0.883663
1.0766
0.519057
1.0851
0.447631
1.07602
0.202845
1.08025
0.278163
1.07351
0.161959
1.0839
0.124916
1.10062
0.0867318
1.11006
0.0946766
1.12412
0.0776339
0.0758853
1.13246
1.32543
0.506002
1.33224
0.440814
1.33056
0.204528
1.35349
0.255234
1.36101
0.15444
1.36456
0.121361
1.37393
0.0773696
1.38294
0.0856569
1.39718
0.0633987
0.0626231
1.41044
1.64193
0.493207
1.65911
0.423634
1.6639
0.199736
1.69557
0.223562
1.71203
0.137989
1.71564
0.117743
1.71918
0.0738351
1.72956
0.0752746
1.73945
0.053507
0.049656
1.75242
2.04309
0.472468
2.08402
0.382703
2.0924
0.191355
2.12989
0.186069
2.14905
0.118828
2.16367
0.103133
2.16978
0.0677224
2.18354
0.0615143
2.19255
0.0444936
0.0382238
2.20398
2.5564
0.426541
2.62328
0.315826
2.65262
0.162015
2.69582
0.142873
2.72464
0.0900013
2.7484
0.0793767
2.76295
0.053176
2.77849
0.0459717
2.78974
0.0332404
0.0278437
2.80012
3.20002
0.342945
3.29474
0.221104
3.34266
0.114088
3.39706
0.0884794
3.43218
0.054878
3.46582
0.0457374
3.48797
0.0310304
3.50768
0.0262596
3.52201
0.0189134
0.0158637
3.53399
4.21156
4.43267
4.54675
4.63523
4.69011
4.73585
4.76688
4.79314
4.81205
4.82792
0.555564
-0.33406
0.572641
-0.167519
0.048414
0.703273
-0.347393
0.706171
-0.170417
0.0141025
0.889618
-0.353349
0.89096
-0.171758
-0.00481802
1.12328
-0.344169
1.11953
-0.168005
-0.0111542
1.38655
-0.320281
1.38357
-0.165026
-0.0141616
1.72049
-0.288357
1.71106
-0.155597
-0.0172311
2.15971
-0.244086
2.13886
-0.134739
-0.0160937
2.73969
-0.183658
2.70731
-0.102358
-0.0143566
3.45805
-0.107726
3.41602
-0.0603252
-0.0087215
4.72019
4.65987
0.0136689
0.0293961
-0.043065
-0.0820771
0.0957461
0.109713
-0.19179
-0.166197
0.171273
0.0243199
-0.289626
0.219175
0.147665
-0.327577
-0.271805
0.323356
0.119722
-0.355838
0.303208
0.154317
-0.36249
-0.37572
0.459407
0.239668
-0.416124
0.343612
0.156268
-0.418075
-0.44954
0.561688
0.34726
-0.452897
0.346969
0.162138
-0.458767
-0.484608
0.456476
0.589819
-0.502148
0.364509
0.172219
-0.512228
0.0632754
-0.0279633
0.0513564
0.011919
0.00829139
0.0679072
-0.057022
0.0487163
0.0311099
0.0813276
0.058453
-0.0833292
0.00913172
0.0804311
0.210182
0.0122555
-0.0839671
-0.0806773
0.173364
0.369172
-0.0343057
-0.0686742
-0.160863
0.299922
0.555569
-0.122631
-0.00756852
-0.301249
0.47854
0.710796
-0.157297
0.020743
-0.111245
0.432488
0.677095
-0.0775443
-0.226925
0.0315144
-0.167633
0.373195
0.625287
-0.115824
-0.164587
0.0772533
-0.13933
0.347939
0.605804
-0.119847
-0.239256
0.149925
-0.169862
0.278545
0.555886
-0.119945
-0.501903
0.217262
-0.348285
0.124927
0.401593
-0.193992
0.30825
0.352727
0.144926
0.288251
0.440656
0.105864
0.872591
0.545617
0.557247
0.603595
0.678916
0.318986
-0.341728
0.661556
-0.320147
0.582015
0.624773
-0.266004
-0.701567
0.609375
-0.620133
0.500582
0.48308
-0.478441
0.249096
0.582913
0.194423
0.555255
0.498026
0.179477
0.326422
0.485974
0.309882
0.571795
0.522396
0.285512
-0.280457
0.273601
-0.12569
0.417028
0.478796
-0.0820906
-0.17707
0.241468
-0.0937969
0.333755
0.469252
-0.0842524
0.356889
0.432158
0.182059
0.508585
0.601561
0.0497493
-0.136687
0.59731
-0.273912
0.64581
0.690214
-0.362565
-0.301935
-0.313351
-0.314711
-0.0510161
0.674617
-0.701145
-0.0289525
0.786356
-0.80842
-0.0195573
0.943441
-0.952837
-0.0122436
1.13029
-1.1376
-0.00902887
1.36815
-1.37136
-0.00647033
1.65193
-1.65449
-0.00651679
1.99158
-1.99153
-0.00551589
2.37067
-2.37167
-0.00423078
2.83153
-2.83281
2.88334
-2.88757
-0.0787749
0.637567
-0.0425838
0.750165
-0.0243972
0.925255
-0.0139534
1.11985
-0.0108954
1.36509
-0.00805956
1.6491
-0.00813826
1.99166
-0.00674054
2.36927
-0.00477185
2.82956
2.87857
-0.0998244
0.617545
-0.075846
0.726187
-0.0537495
0.903158
-0.0326767
1.09877
-0.0202351
1.35265
-0.0114605
1.64032
-0.00862995
1.98883
-0.00633219
2.36698
-0.00437399
2.8276
2.87419
-0.0897917
0.587392
-0.0502444
0.686639
-0.0302218
0.883136
-0.0229713
1.09152
-0.0168443
1.34652
-0.013219
1.6367
-0.0111122
1.98672
-0.00870827
2.36457
-0.00532392
2.82422
2.86887
-0.119646
0.513046
-0.0938924
0.660886
-0.0581597
0.847403
-0.0345111
1.06787
-0.0216976
1.33371
-0.0130901
1.62809
-0.0100393
1.98367
-0.00666355
2.3612
-0.00346008
2.82101
2.86541
0.0978437
0.521066
0.0371376
0.721592
0.00103338
0.883507
-0.0203795
1.08929
-0.0203637
1.33369
-0.0192288
1.62696
-0.0149932
1.97943
-0.0109812
2.35718
-0.00556908
2.8156
2.85984
0.19806
0.641993
0.125247
0.794405
0.0633588
0.945395
0.0288341
1.12381
0.00574841
1.35678
-0.00257863
1.63528
-0.00651448
1.98337
-0.00524017
2.35591
-0.00126631
2.81163
2.85857
-0.248128
0.624116
-0.195091
0.741368
-0.129905
0.880209
-0.0745067
1.06841
-0.0431118
1.32538
-0.0246857
1.61686
-0.0160868
1.97477
-0.0109346
2.35076
-0.00511083
2.8058
2.85346
-0.321818
0.467494
-0.189936
0.609486
-0.0940318
0.784305
-0.0454197
1.0198
-0.0203591
1.30032
-0.0155787
1.61208
-0.00863178
1.96782
-0.00695967
2.34909
7.85739e-05
2.79876
2.85354
0.231027
0.415943
0.246881
0.593632
0.194472
0.836714
0.11777
1.0965
0.0593146
1.35878
0.0227766
1.64861
0.00354934
1.98705
-0.0052031
2.35784
-0.00296566
2.79653
2.85057
0.23087
0.470585
0.166452
0.658051
0.100155
0.90301
0.055394
1.14126
0.0266614
1.38751
0.00863151
1.66664
-0.00161332
1.9973
-0.00698458
2.36321
-0.00584314
2.79539
2.84473
-0.106209
0.494704
-0.126535
0.678377
-0.11405
0.890525
-0.0897701
1.11699
-0.0669542
1.3647
-0.0543483
1.65404
-0.0451539
1.9881
-0.0371147
2.35517
-0.035377
2.79365
2.80935
-0.102912
0.513363
-0.118541
0.694006
-0.114456
0.88644
-0.104615
1.10714
-0.0861038
1.34618
-0.073045
1.64098
-0.0592181
1.97428
-0.0471218
2.34307
-0.0466699
2.7932
2.76268
-0.00315222
0.566265
-0.0344981
0.725352
-0.0484949
0.900437
-0.0484626
1.10711
-0.0488935
1.34662
-0.0452518
1.63734
-0.0466432
1.97567
-0.0544416
2.35087
-0.0625519
2.80131
2.70013
-0.368232
0.571932
-0.355106
0.712226
-0.328679
0.87401
-0.288387
1.06682
-0.257594
1.31582
-0.218408
1.59815
-0.17979
1.93705
-0.125576
2.29666
-0.0522064
2.72794
2.64793
-0.290867
-0.263725
-0.236896
-0.204886
-0.172365
-0.129516
-0.0813088
-0.0169929
0.053496
0.140268
0.626652
-0.594702
0.108354
0.738447
-0.706533
0.0929782
0.877473
-0.862097
0.0834072
1.06418
-1.05461
0.070229
1.29357
-1.28039
0.0554784
1.56335
-1.5486
0.0395237
1.88782
-1.87186
0.0257633
2.25256
-2.2388
0.0102964
2.69543
-2.67996
2.75565
-2.74535
0.340417
0.650744
0.316205
0.762659
0.284879
0.908799
0.251223
1.09783
0.221074
1.32371
0.185471
1.59895
0.145697
1.92759
0.100791
2.29747
0.0488322
2.74739
2.80448
0.539418
0.493658
0.44962
0.40985
0.3622
0.306661
0.242716
0.168511
0.0830869
0.411829
0.27426
-0.339092
-0.346998
0.485107
0.161561
-0.234839
-0.0245401
-0.00258113
0.384146
0.22244
-0.332326
0.44108
0.104628
-0.0422273
0.360308
0.1576
-0.295467
0.405643
0.0592927
-0.0546599
0.325442
0.0886192
-0.256462
0.360963
0.0237712
-0.0561869
0.300766
0.0340601
-0.246207
0.334908
-0.0103708
-0.0488557
0.251017
-0.216957
0.240646
0.113528
0.510937
-0.643809
0.247014
0.481617
-0.615103
0.425623
-0.517701
0.100912
0.392414
0.22433
0.358199
0.317627
0.0927833
0.285323
0.189983
0.260999
0.212143
0.0893096
0.182925
0.177258
0.173051
0.13294
0.0852731
0.0847751
0.176686
0.0816381
0.0634184
0.0719004
0.153538
-0.598979
0.712901
-0.598798
0.696177
0.696973
-0.599412
-0.349455
0.70081
-0.353928
0.70065
0.693423
-0.350378
-0.277274
0.719616
-0.285411
0.708787
0.664681
-0.256669
-0.170181
0.712548
-0.168808
0.707413
0.665713
-0.169839
-0.155138
0.729148
-0.16466
0.716935
0.641018
-0.139966
-0.0564435
0.709784
-0.0370543
0.697546
0.615334
-0.0113698
-0.0616348
0.71111
-0.0558887
0.6918
0.598141
-0.0386964
-0.0192363
0.688284
0.00354794
0.669016
0.56436
0.0373295
-0.0161338
0.673633
0.00646374
0.646418
0.544632
0.0261918
0.00495728
0.036272
0.0632033
-0.62635
0.579597
-0.642193
0.701896
-0.634117
0.843567
-0.62236
1.04544
-0.606092
1.2961
-0.582223
1.60526
-0.544358
1.98449
-0.481
2.44712
-0.37971
3.01513
3.48891
-0.32643
0.555649
-0.301743
0.677208
-0.300398
0.842222
-0.306463
1.05151
-0.31158
1.30122
-0.316305
1.60999
-0.311512
1.97969
-0.290898
2.4265
-0.237493
2.96173
3.25141
-0.245355
0.544336
-0.247401
0.679255
-0.255627
0.850447
-0.254918
1.0508
-0.243606
1.28991
-0.225314
1.5917
-0.201916
1.9563
-0.17001
2.3946
-0.124061
2.91578
3.12735
-0.166287
0.540783
-0.15221
0.665178
-0.134269
0.832506
-0.121686
1.03822
-0.119642
1.28786
-0.121417
1.59347
-0.118385
1.95326
-0.104743
2.38096
-0.0757213
2.88675
3.05163
-0.143824
0.544641
-0.148339
0.669693
-0.135369
0.819536
-0.11471
1.01756
-0.0954114
1.26857
-0.0845249
1.58259
-0.0755373
1.94428
-0.0634538
2.36887
-0.0444142
2.86771
3.00722
0.00260165
0.53067
0.00373967
0.668555
-0.00497966
0.828255
-0.0180211
1.0306
-0.0310093
1.28155
-0.0407544
1.59233
-0.0439629
1.94748
-0.0406696
2.36558
-0.030023
2.85707
2.97719
-0.0420805
0.534054
-0.035867
0.662342
-0.0294296
0.821818
-0.0284683
1.02964
-0.0271989
1.28028
-0.0269657
1.5921
-0.0286313
1.94915
-0.0256857
2.36263
-0.0196214
2.851
2.95757
0.0481514
0.523232
0.0400539
0.670439
0.022422
0.83945
0.00601385
1.04605
-0.00572619
1.29202
-0.0126374
1.59901
-0.0179717
1.95448
-0.0178428
2.3625
-0.0141824
2.84734
2.94339
0.0236315
0.525792
0.0279746
0.666096
0.0231261
0.844298
0.0124272
1.05674
4.87819e-06
1.30445
-0.00702247
1.60604
-0.0123165
1.95978
-0.0120791
2.36227
-0.00986147
2.84513
2.93353
0.0531553
0.53584
0.0372295
0.682022
0.0252797
0.856248
0.0141684
1.06786
0.0034566
1.31516
-0.00331798
1.61281
-0.00833584
1.9648
-0.00894273
2.36287
-0.00754648
2.84373
2.92598
-0.371236
0.560079
-0.382989
0.693775
-0.382897
0.856157
-0.370612
1.05557
-0.345024
1.28957
-0.306078
1.57387
-0.252477
1.91119
-0.184785
2.29518
-0.0954967
2.75444
2.83049
-0.253273
0.578513
-0.251427
0.691929
-0.245231
0.849961
-0.234217
1.04456
-0.217979
1.27333
-0.193162
1.54905
-0.16053
1.87856
-0.117839
2.25249
-0.0617154
2.69832
2.76877
-0.0187697
-0.0333738
-0.0455098
-0.0555609
-0.0626159
-0.0621657
-0.0554637
-0.0417735
-0.0234179
)
;

boundaryField
{
    outlet
    {
        type            calculated;
        value           nonuniform List<scalar> 
26
(
0.612107
0.572988
0.549071
0.461606
0.642476
0.868004
1.1311
1.42829
1.80229
2.27133
2.91197
3.68741
5.03894
0.631805
0.657226
0.691574
0.548088
0.685084
0.847181
1.03481
1.2833
1.5553
1.88884
2.23234
2.65745
2.70142
)
;
    }
    upperWall
    {
        type            symmetryPlane;
        value           uniform 0;
    }
    lowerWall
    {
        type            symmetryPlane;
        value           uniform 0;
    }
    inlet
    {
        type            calculated;
        value           nonuniform List<scalar> 
26
(
-0.696359
-0.696359
-0.696359
-0.55266
-0.686053
-0.851642
-1.0572
-1.31237
-1.62913
-2.02235
-2.51048
-3.11642
-3.86862
-0.696359
-0.696359
-0.696359
-0.55266
-0.686053
-0.851642
-1.0572
-1.31237
-1.62913
-2.02235
-2.51048
-3.11642
-3.86862
)
;
    }
    cylinder
    {
        type            calculated;
        value           uniform 0;
    }
    frontAndBack
    {
        type            empty;
        value           nonuniform List<scalar> 0();
    }
}


// ************************************************************************* //
