/*--------------------------------*- C++ -*----------------------------------*\
| =========                 |                                                 |
| \\      /  F ield         | OpenFOAM: The Open Source CFD Toolbox           |
|  \\    /   O peration     | Version:  2312                                  |
|   \\  /    A nd           | Website:  www.openfoam.com                      |
|    \\/     M anipulation  |                                                 |
\*---------------------------------------------------------------------------*/
FoamFile
{
    version     2.0;
    format      ascii;
    arch        "LSB;label=32;scalar=64";
    class       volVectorField;
    location    "0.2";
    object      U;
}
// * * * * * * * * * * * * * * * * * * * * * * * * * * * * * * * * * * * * * //

dimensions      [0 1 -1 0 0 0 0];

internalField   nonuniform List<vector> 
5478
(
(0.656295 -0.42477 -1.48127e-19)
(0.947566 -0.750351 0)
(1.05347 -0.628723 1.15433e-19)
(1.04187 -0.548229 -1.80597e-19)
(1.0314 -0.466023 8.98658e-20)
(1.02537 -0.392726 -3.41458e-20)
(1.02025 -0.331736 -3.4625e-20)
(1.01583 -0.28097 0)
(1.01214 -0.238464 0)
(1.00905 -0.202889 2.25996e-20)
(1.00627 -0.173464 -1.35634e-20)
(1.00407 -0.149074 -1.51485e-20)
(0.999046 -0.133422 -6.01768e-21)
(1.00175 -0.112454 0)
(0.977326 -0.152155 1.70476e-20)
(0.772278 -0.417045 3.10214e-19)
(1.11014 -0.725233 0)
(1.1878 -0.601783 0)
(1.15811 -0.525018 -1.00337e-19)
(1.13149 -0.446364 1.23208e-19)
(1.11107 -0.376221 2.4637e-20)
(1.09382 -0.317854 -3.67326e-20)
(1.07912 -0.269169 3.25766e-20)
(1.06656 -0.228311 6.30818e-20)
(1.05568 -0.19401 -5.24085e-20)
(1.04604 -0.165321 -2.38702e-21)
(1.03715 -0.141375 0)
(1.02825 -0.1224 6.00671e-21)
(1.02076 -0.102371 0)
(0.995996 -0.101607 0)
(0.887494 -0.389317 -1.92899e-20)
(1.26257 -0.669881 -1.71775e-19)
(1.31195 -0.54942 -4.48607e-21)
(1.26527 -0.479442 0)
(1.22352 -0.407015 -5.0566e-20)
(1.18981 -0.342529 3.63285e-20)
(1.1614 -0.288879 2.63121e-20)
(1.13728 -0.244022 0)
(1.11667 -0.206258 -2.37056e-20)
(1.09884 -0.174386 1.73996e-20)
(1.08315 -0.147461 1.2796e-20)
(1.06907 -0.124619 0)
(1.05589 -0.105486 0)
(1.0441 -0.0869376 -1.91166e-20)
(1.02821 -0.0802116 1.70431e-20)
(0.998555 -0.34197 -2.19777e-19)
(1.40195 -0.587706 1.41588e-19)
(1.42398 -0.474735 -1.01636e-19)
(1.362 -0.414848 8.01401e-20)
(1.30678 -0.35139 1.07554e-19)
(1.26131 -0.294894 -7.73448e-20)
(1.22301 -0.247868 -2.62987e-20)
(1.19054 -0.208412 1.58458e-20)
(1.16282 -0.17505 -1.75594e-20)
(1.13892 -0.146719 0)
(1.11805 -0.122547 0)
(1.09958 -0.101769 -2.0038e-20)
(1.08291 -0.083902 2.37059e-20)
(1.06808 -0.0670347 -1.23143e-20)
(1.05072 -0.0587675 0)
(1.10052 -0.275416 1.1254e-19)
(1.5221 -0.481221 6.54095e-20)
(1.51879 -0.380297 -2.40925e-19)
(1.44382 -0.333166 1.47694e-20)
(1.37732 -0.280982 -2.42489e-21)
(1.32203 -0.234513 -7.22927e-21)
(1.27552 -0.195807 3.23617e-20)
(1.23613 -0.163194 2.15919e-20)
(1.20255 -0.135482 1.42307e-20)
(1.17368 -0.111795 -5.11007e-21)
(1.14862 -0.0914041 -2.78224e-20)
(1.12666 -0.0736938 0)
(1.10721 -0.058165 7.96206e-21)
(1.08986 -0.043969 -3.47366e-21)
(1.07306 -0.0343183 7.66535e-21)
(1.18921 -0.191642 -2.40008e-19)
(1.61918 -0.354917 2.32469e-19)
(1.59392 -0.270142 -6.49453e-20)
(1.50872 -0.237989 3.59036e-20)
(1.43346 -0.198956 -7.22438e-20)
(1.37057 -0.16411 -4.22309e-20)
(1.31769 -0.135056 5.01015e-21)
(1.27295 -0.110437 0)
(1.23484 -0.0893885 3.17656e-20)
(1.20215 -0.0712561 -2.82456e-20)
(1.17391 -0.055492 8.69632e-21)
(1.14933 -0.0416377 0)
(1.12775 -0.0292967 4.05492e-21)
(1.10866 -0.0181487 -5.12313e-21)
(1.09129 -0.0088814 0)
(1.26007 -0.0933236 -2.6196e-20)
(1.68843 -0.213603 7.08492e-21)
(1.6462 -0.148481 3.17616e-20)
(1.55396 -0.132652 4.60171e-20)
(1.47288 -0.108208 -3.04524e-20)
(1.40496 -0.0861511 4.88316e-20)
(1.34784 -0.0677545 -1.07509e-20)
(1.29953 -0.0520246 0)
(1.25841 -0.0384416 -2.07321e-20)
(1.22322 -0.0265922 2.94885e-21)
(1.19292 -0.0161219 1.46728e-20)
(1.16668 -0.00672773 0)
(1.1438 0.00186518 -5.99129e-21)
(1.12371 0.00974136 0)
(1.10598 0.0177001 8.95716e-22)
(1.3093 0.0161743 -3.32426e-20)
(1.72636 -0.0629069 0)
(1.67227 -0.0202446 3.33394e-20)
(1.57604 -0.0207901 0)
(1.49223 -0.0119344 0)
(1.42198 -0.00332994 0)
(1.36289 0.00381311 -8.66796e-21)
(1.31292 0.0100767 0)
(1.27046 0.0156515 4.46507e-21)
(1.23421 0.0207044 0)
(1.2031 0.0253926 -4.42337e-21)
(1.17631 0.0298639 0)
(1.15314 0.0342652 1.93454e-21)
(1.13302 0.0385813 0)
(1.11561 0.0443806 5.17137e-22)
(0.120979 0.00618346 1.94474e-21)
(0.0737589 0.00389176 0)
(0.303424 0.0176001 -4.76481e-21)
(0.389007 0.0221201 0)
(0.471823 0.0262255 0)
(0.548369 0.0300304 0)
(0.612131 0.0332992 2.38554e-21)
(0.665104 0.036134 0)
(0.709791 0.0386595 -1.33668e-21)
(0.747748 0.0409632 0)
(0.780151 0.0431101 1.3951e-21)
(0.807875 0.0451665 0)
(0.831976 0.0471757 -6.66559e-22)
(0.85208 0.0489148 0)
(0.871359 0.0521009 -2.7978e-22)
(0.134859 -0.0749012 -1.09346e-20)
(0.0968327 -0.15226 1.04207e-20)
(0.325019 -0.119746 -3.36027e-21)
(0.407534 -0.0991748 -1.67514e-20)
(0.487879 -0.0783455 3.9003e-22)
(0.562296 -0.0594304 1.22689e-20)
(0.624276 -0.0435443 -7.50096e-21)
(0.675792 -0.030197 0)
(0.71929 -0.0188187 -3.62889e-21)
(0.756276 -0.0090154 7.81947e-22)
(0.787901 -0.000484272 1.8401e-21)
(0.81492 0.00700171 0)
(0.838636 0.013699 2.11791e-21)
(0.857492 0.0191861 0)
(0.877733 0.0259922 1.55565e-21)
(0.165747 -0.153038 -1.00719e-20)
(0.151831 -0.300939 -6.5285e-21)
(0.374183 -0.24977 8.10593e-21)
(0.450324 -0.213968 2.25229e-20)
(0.524674 -0.177136 -1.28295e-20)
(0.593813 -0.143817 -1.0054e-20)
(0.651384 -0.115952 1.61175e-20)
(0.699271 -0.092657 0)
(0.739769 -0.0729291 8.97181e-21)
(0.774265 -0.0560764 -7.97759e-21)
(0.803833 -0.0415562 -2.39009e-21)
(0.829077 -0.0289836 0)
(0.851484 -0.0178367 -1.45078e-21)
(0.868302 -0.00882159 1.96886e-21)
(0.888909 0.00175729 0)
(0.213081 -0.225883 8.43324e-21)
(0.236429 -0.436177 1.4812e-20)
(0.448517 -0.367325 -1.47759e-20)
(0.515146 -0.317878 1.16177e-20)
(0.580298 -0.266737 5.86849e-21)
(0.641311 -0.220558 -5.3802e-21)
(0.692113 -0.182022 -7.21041e-21)
(0.734429 -0.149855 -3.57765e-21)
(0.77031 -0.122672 9.60362e-21)
(0.800963 -0.0995126 -9.15913e-22)
(0.827341 -0.0796115 -2.19341e-21)
(0.84985 -0.0624593 0)
(0.870231 -0.0471887 -1.91296e-21)
(0.884256 -0.0351378 -5.6671e-21)
(0.905514 -0.0204631 3.28565e-21)
(0.276207 -0.291127 4.70879e-21)
(0.347272 -0.552575 1.54715e-20)
(0.544799 -0.467582 -1.10995e-20)
(0.599079 -0.406543 -4.65489e-21)
(0.65225 -0.343328 -5.13953e-21)
(0.702672 -0.286341 5.85883e-21)
(0.744661 -0.238861 8.3236e-22)
(0.779722 -0.199264 8.10921e-21)
(0.80959 -0.165845 -6.80928e-21)
(0.835251 -0.137424 0)
(0.8575 -0.113024 0)
(0.876523 -0.0920318 -3.30989e-21)
(0.894229 -0.0731515 7.57695e-21)
(0.904874 -0.0586675 -2.42083e-21)
(0.926347 -0.0397406 0)
(0.354182 -0.346451 1.0384e-20)
(0.480059 -0.645691 -3.3779e-21)
(0.659136 -0.546815 4.50104e-20)
(0.698652 -0.476729 -1.24755e-20)
(0.737575 -0.404165 -7.297e-22)
(0.775408 -0.338839 -4.78708e-22)
(0.806909 -0.284473 -8.32957e-22)
(0.833304 -0.23916 1.07639e-21)
(0.855974 -0.200982 -4.33197e-21)
(0.875683 -0.168607 2.4719e-21)
(0.893096 -0.140892 1.87219e-21)
(0.908209 -0.117154 0)
(0.923108 -0.0954473 0)
(0.930067 -0.0793983 -8.5504e-22)
(0.953662 -0.055196 7.60444e-22)
(0.445235 -0.389185 1.41627e-20)
(0.628999 -0.71167 0)
(0.786638 -0.602026 0)
(0.809785 -0.525889 3.50749e-20)
(0.832905 -0.4471 -1.37758e-20)
(0.856779 -0.376257 1.17662e-20)
(0.876591 -0.317326 1.0601e-20)
(0.893217 -0.268224 -9.40146e-21)
(0.907655 -0.226946 3.38078e-21)
(0.920462 -0.192119 -2.47537e-21)
(0.932222 -0.16256 3.01513e-21)
(0.943136 -0.137621 0)
(0.955463 -0.114776 2.97369e-21)
(0.960555 -0.0992199 0)
(0.988569 -0.0726772 0)
(0.546526 -0.416 -9.01462e-20)
(0.786464 -0.746758 0)
(0.919881 -0.62955 -8.57128e-20)
(0.926015 -0.550104 1.32497e-19)
(0.932524 -0.468189 -1.06316e-19)
(0.941732 -0.39481 -4.75988e-21)
(0.949277 -0.33381 2.41483e-20)
(0.955548 -0.283026 0)
(0.961089 -0.240459 0)
(0.966135 -0.204772 -1.57122e-20)
(0.970906 -0.174971 -2.838e-21)
(0.975963 -0.150341 1.06276e-20)
(0.982422 -0.129578 -2.97994e-21)
(0.988849 -0.114001 0)
(1.02683 -0.0981969 -1.20975e-20)
(0.889228 0.0485674 0)
(0.912023 0.0467427 1.01242e-22)
(0.929448 0.0469756 -9.51579e-23)
(0.942272 0.0471207 0)
(0.952185 0.0474838 0)
(0.959968 0.0479976 -1.09859e-23)
(0.966145 0.0485972 0)
(0.971093 0.0492217 0)
(0.975104 0.0498339 8.89505e-24)
(0.978391 0.0504618 0)
(0.981101 0.0511332 0)
(0.983347 0.0518716 -1.28882e-23)
(0.985223 0.0526963 0)
(0.986799 0.0536241 -1.0316e-23)
(0.988135 0.0546713 -9.2695e-24)
(0.989275 0.0558543 0)
(0.990254 0.0571905 -5.87096e-23)
(0.991101 0.0586981 7.00372e-23)
(0.991838 0.0603963 0)
(0.992486 0.0623073 4.68851e-23)
(0.993061 0.0644564 -5.55082e-23)
(0.993576 0.066869 1.0276e-23)
(0.994047 0.0695721 -2.02045e-23)
(0.994488 0.0725972 1.9306e-23)
(0.994913 0.0759761 -1.92208e-23)
(0.99533 0.0797449 0)
(0.995737 0.0839247 -1.65917e-23)
(0.996127 0.0884983 1.58643e-23)
(0.996401 0.0933035 -1.5532e-23)
(0.996988 0.0977929 0)
(0.993321 0.108414 -3.02146e-23)
(1.00122 -0.0582063 0)
(0.997974 -0.0547056 -1.86382e-23)
(0.998102 -0.0450113 -6.14417e-24)
(0.998359 -0.0357139 5.59109e-25)
(0.998544 -0.0262293 -4.06813e-24)
(0.998686 -0.0164001 0)
(0.998764 -0.00569612 1.01586e-24)
(0.886852 0.0249751 -5.91182e-22)
(0.911986 0.0309597 -1.48813e-24)
(0.929894 0.0358467 -5.83087e-22)
(0.942597 0.0388889 5.56133e-22)
(0.952566 0.0411547 0)
(0.96036 0.0429849 1.10719e-23)
(0.966524 0.0446171 -2.16645e-23)
(0.971441 0.0460404 0)
(0.975426 0.0472614 -8.96191e-24)
(0.978708 0.0483767 0)
(0.981425 0.0494432 0)
(0.983686 0.0505043 1.29803e-23)
(0.985583 0.051596 0)
(0.987185 0.0527481 3.36099e-22)
(0.988549 0.0539864 -2.82403e-22)
(0.989719 0.0553346 2.67414e-22)
(0.99073 0.0568157 -2.55261e-22)
(0.99161 0.0584518 -1.40677e-23)
(0.992384 0.0602651 0)
(0.993069 0.0622796 0)
(0.993683 0.0645155 -1.15102e-23)
(0.994239 0.0669978 1.0165e-22)
(0.994753 0.0697562 -1.73777e-22)
(0.995237 0.0728258 8.32595e-23)
(0.995707 0.0762401 6.07025e-23)
(0.996169 0.0800391 0)
(0.996615 0.0842458 3.76141e-23)
(0.997022 0.0888439 0)
(0.997271 0.0936734 1.55866e-23)
(0.99748 0.0981975 -6.09357e-23)
(0.993894 0.108945 1.20349e-22)
(1.00276 -0.0578044 -2.41395e-23)
(0.999727 -0.0547043 3.88241e-23)
(0.999453 -0.045036 8.44828e-25)
(0.999603 -0.0357315 7.78389e-24)
(0.999757 -0.0262384 -4.53484e-24)
(0.999881 -0.0164034 -3.15829e-25)
(0.999947 -0.00569661 5.13389e-25)
(0.88775 0.00262349 -5.74577e-22)
(0.914865 0.0190782 -1.7899e-22)
(0.931778 0.026526 -5.83461e-22)
(0.943611 0.0309622 1.23654e-21)
(0.953166 0.0353474 2.48255e-23)
(0.960854 0.0386873 -2.47537e-23)
(0.966994 0.0411942 2.20382e-23)
(0.971851 0.043222 -4.28723e-23)
(0.975787 0.0448915 0)
(0.979053 0.0463638 1.05416e-21)
(0.98177 0.047712 -1.00551e-21)
(0.984043 0.0489979 -2.80176e-23)
(0.985958 0.050273 0)
(0.987584 0.0515787 -6.7973e-22)
(0.988976 0.0529501 6.29101e-22)
(0.990176 0.0544179 -2.79732e-22)
(0.99122 0.0560104 2.6692e-22)
(0.992135 0.0577547 2.69259e-22)
(0.992944 0.0596775 -2.27542e-22)
(0.993665 0.0618041 0)
(0.994313 0.0641557 0)
(0.994906 0.0667574 1.94128e-22)
(0.995458 0.0696312 -1.85331e-22)
(0.995984 0.0727952 -1.80034e-22)
(0.996498 0.0762848 1.80807e-24)
(0.997005 0.080149 1.64796e-22)
(0.99749 0.0844156 2.22533e-24)
(0.997914 0.0890726 -7.58577e-23)
(0.998146 0.0939694 2.05783e-22)
(0.998003 0.0986026 -1.92928e-22)
(0.994497 0.109768 3.36382e-23)
(1.00427 -0.0569821 -6.27054e-23)
(1.00144 -0.0545053 3.01059e-23)
(1.00079 -0.0449785 -2.87853e-23)
(1.00084 -0.0356883 -5.8095e-24)
(1.00097 -0.0262003 -4.39945e-24)
(1.00107 -0.0163755 9.24249e-24)
(1.00113 -0.00568575 1.60731e-24)
(0.894215 -0.0196297 0)
(0.920581 0.00582897 8.98385e-22)
(0.933026 0.017891 -8.83366e-22)
(0.944826 0.0255772 0)
(0.954675 0.0302237 -2.55183e-23)
(0.961802 0.0341719 2.54359e-23)
(0.967572 0.0379852 0)
(0.97229 0.0408218 -3.41984e-24)
(0.976154 0.0429495 -4.28787e-23)
(0.97939 0.0447363 0)
(0.982098 0.0463075 -1.02529e-21)
(0.984377 0.047753 1.0063e-21)
(0.98631 0.0491417 -5.54113e-23)
(0.98796 0.0505283 -7.3444e-22)
(0.989382 0.0519583 7.00332e-22)
(0.990615 0.0534713 4.0218e-23)
(0.991695 0.0551025 0)
(0.992649 0.0568851 -3.14988e-23)
(0.993498 0.0588509 4.76322e-22)
(0.994261 0.0610308 -3.42795e-24)
(0.994952 0.0634566 1.09473e-24)
(0.995586 0.0661572 -3.5842e-22)
(0.996174 0.0691546 -3.49951e-22)
(0.996735 0.072467 4.31608e-22)
(0.997287 0.0761041 -4.49966e-23)
(0.997836 0.0800832 0)
(0.998361 0.0844462 -4.07556e-23)
(0.998806 0.0891942 7.68573e-23)
(0.999033 0.0941992 -2.15627e-22)
(0.998589 0.0989976 2.02055e-22)
(0.995159 0.110906 -6.86911e-23)
(1.00574 -0.055743 0)
(1.00308 -0.0541414 -3.30465e-23)
(1.00211 -0.0448479 6.14816e-23)
(1.00207 -0.0355913 1.94598e-23)
(1.00217 -0.0261214 1.80819e-23)
(1.00226 -0.0163214 -9.24898e-24)
(1.0023 -0.00566638 3.02444e-25)
(0.903112 -0.040313 -2.1288e-23)
(0.930229 -0.00571384 2.43157e-23)
(0.938767 0.00913159 0)
(0.946506 0.0197094 0)
(0.954743 0.0264089 0)
(0.96267 0.0310296 0)
(0.968602 0.0342121 1.70777e-21)
(0.97289 0.0376367 -3.2315e-21)
(0.976531 0.0403955 1.61651e-21)
(0.979695 0.0426311 0)
(0.982379 0.0445118 -1.12409e-21)
(0.984659 0.0461827 1.10783e-21)
(0.986606 0.0477407 9.87925e-22)
(0.988281 0.0492565 -8.313e-22)
(0.989734 0.0507858 7.4918e-22)
(0.991004 0.0523754 -7.55338e-22)
(0.992124 0.0540663 -4.06604e-23)
(0.993121 0.0558963 -5.6429e-22)
(0.994016 0.0579018 5.37676e-22)
(0.994827 0.0601182 6.36245e-23)
(0.995567 0.0625821 5.9856e-23)
(0.996251 0.0653292 3.91146e-22)
(0.996891 0.0683954 -4.22026e-22)
(0.997497 0.0718247 -1.02749e-22)
(0.998084 0.0756316 -5.0219e-23)
(0.998667 0.0798158 -4.76899e-23)
(0.999228 0.0843354 0)
(0.999698 0.0892131 0)
(0.999935 0.0943672 0)
(0.999266 0.0993695 0)
(0.995906 0.112381 2.09085e-22)
(1.00713 -0.0540894 -1.32916e-22)
(1.00462 -0.053654 7.1264e-23)
(1.0034 -0.0446578 -1.94867e-22)
(1.00329 -0.0354517 2.11186e-23)
(1.00335 -0.0260112 3.97459e-24)
(1.00343 -0.016248 -1.36589e-23)
(1.00347 -0.00564202 -3.96768e-24)
(0.91806 -0.0572353 2.24247e-23)
(0.940981 -0.0188225 2.87446e-21)
(0.943795 -0.00425517 -2.75278e-21)
(0.950489 0.0100225 -3.58233e-21)
(0.956782 0.0216849 3.41142e-21)
(0.962618 0.0292213 3.9191e-21)
(0.968588 0.0338462 -3.64581e-21)
(0.97356 0.0366796 5.4515e-23)
(0.97707 0.0395053 -4.98009e-23)
(0.980081 0.0420369 0)
(0.982695 0.0442322 -4.03396e-23)
(0.984954 0.0461571 2.30906e-21)
(0.986906 0.0478918 -2.19814e-21)
(0.988599 0.0495134 -5.78336e-23)
(0.990078 0.0510878 0)
(0.99138 0.0526714 -8.04972e-22)
(0.992536 0.0543129 1.44424e-21)
(0.993572 0.0560566 -6.08732e-22)
(0.99451 0.0579448 0)
(0.995365 0.0600199 4.73572e-22)
(0.996154 0.0623268 -6.72881e-23)
(0.996888 0.064913 -4.83355e-22)
(0.997581 0.0678321 -5.17077e-22)
(0.998245 0.0711544 4.92435e-22)
(0.998889 0.0749502 -4.21454e-22)
(0.99951 0.0792895 2.51309e-24)
(1.0001 0.0840653 4.22721e-22)
(1.00059 0.089148 -3.40768e-22)
(1.00085 0.0945036 3.2407e-22)
(1.00006 0.0997262 -1.49512e-22)
(0.996766 0.114231 1.4216e-22)
(1.00843 -0.0520294 0)
(1.00603 -0.0530926 7.54389e-23)
(1.00465 -0.0444289 -1.70894e-23)
(1.00448 -0.0352834 0)
(1.00453 -0.0258802 -2.17661e-23)
(1.00459 -0.0161621 8.92686e-24)
(1.00462 -0.00561455 -1.59046e-24)
(0.935676 -0.0621617 0)
(0.952567 -0.0239967 0)
(0.951927 -0.00939029 -1.36998e-23)
(0.956424 0.00576372 0)
(0.961009 0.0161479 0)
(0.965262 0.0240893 3.81265e-21)
(0.969171 0.0309002 -3.62763e-21)
(0.973311 0.0344522 3.60399e-21)
(0.977293 0.0376055 -3.42733e-21)
(0.980382 0.0400589 0)
(0.982974 0.0421253 -4.78287e-23)
(0.985201 0.04393 4.37268e-23)
(0.987135 0.0455617 -2.406e-21)
(0.988826 0.0470974 9.65442e-23)
(0.990315 0.0486031 2.04663e-21)
(0.991637 0.0501362 2.37388e-23)
(0.99282 0.0517472 -2.76482e-23)
(0.99389 0.0534832 1.4693e-21)
(0.994866 0.0553905 -1.43878e-21)
(0.995767 0.0575178 0)
(0.996607 0.0599189 0)
(0.997399 0.0626538 -3.64231e-23)
(0.998159 0.0657903 0)
(0.998901 0.0694247 5.1569e-22)
(0.999637 0.0736119 1.62796e-23)
(1.00035 0.078221 -4.27063e-22)
(1.00098 0.0832113 -4.83378e-22)
(1.00149 0.0885027 3.22633e-22)
(1.00178 0.0941265 -4.00269e-23)
(1.00099 0.0996722 0)
(0.997758 0.116204 -1.43023e-22)
(1.00961 -0.0496724 1.35591e-22)
(1.00727 -0.0525286 4.6498e-23)
(1.00585 -0.0441938 2.00049e-23)
(1.00565 -0.0351101 -3.13563e-23)
(1.00568 -0.0257437 7.45351e-24)
(1.00574 -0.0160719 0)
(1.00577 -0.00558553 3.32799e-24)
(0.97041 -0.0750943 7.41218e-21)
(0.963916 -0.0444122 5.16524e-21)
(0.958381 -0.0255374 -3.26373e-22)
(0.960305 -0.00740988 -8.86115e-21)
(0.962736 0.00535346 4.29446e-21)
(0.966803 0.0157259 -3.20891e-23)
(0.970653 0.0233329 0)
(0.973973 0.0293917 -3.14139e-23)
(0.977385 0.0339364 -3.00279e-23)
(0.980364 0.0375246 0)
(0.982959 0.0405071 -3.30974e-21)
(0.985221 0.0430637 3.14441e-21)
(0.9872 0.0453256 4.258e-23)
(0.988941 0.0473962 2.5557e-21)
(0.990483 0.0493613 -2.42534e-21)
(0.991861 0.0512947 3.21208e-23)
(0.993102 0.05326 2.93175e-23)
(0.994231 0.0553146 0)
(0.99527 0.0575135 1.61723e-21)
(0.996236 0.0599118 -1.53321e-21)
(0.997147 0.0625671 -6.73925e-22)
(0.998016 0.0655397 6.33724e-23)
(0.998862 0.0688925 5.81194e-22)
(0.999692 0.0726339 -5.43236e-22)
(1.00047 0.0767388 4.54179e-23)
(1.00119 0.0810816 9.24336e-22)
(1.00185 0.0857227 -3.53666e-22)
(1.00239 0.0907469 3.93677e-22)
(1.00274 0.0962153 -2.88004e-22)
(1.00211 0.101545 0)
(0.998941 0.120278 0)
(1.01065 -0.0457016 0)
(1.00835 -0.0513041 3.11355e-23)
(1.00701 -0.0435668 -4.45165e-23)
(1.0068 -0.0346913 3.00102e-23)
(1.00682 -0.0254555 -2.01495e-23)
(1.00686 -0.0158954 -7.70503e-24)
(1.0069 -0.0055247 0)
(1.02864 -0.0531909 0)
(0.997435 -0.0416382 0)
(0.977801 -0.0219278 0)
(0.972683 -0.00590648 0)
(0.971235 0.00799259 0)
(0.971311 0.0188283 0)
(0.972961 0.0260336 0)
(0.975851 0.0318402 0)
(0.978815 0.0361661 0)
(0.98147 0.0395093 0)
(0.983834 0.0421803 0)
(0.98594 0.0444004 0)
(0.98782 0.0463306 0)
(0.989504 0.0480898 0)
(0.99102 0.0497678 0)
(0.992394 0.0514336 0)
(0.993649 0.0531447 0)
(0.994806 0.0549514 0)
(0.995882 0.0569001 0)
(0.996896 0.0590353 0)
(0.997863 0.0614009 0)
(0.998793 0.0640403 0)
(0.999688 0.0669934 0)
(1.00055 0.0702433 0)
(1.00136 0.0738007 0)
(1.00214 0.0777638 0)
(1.00286 0.0821966 0)
(1.00347 0.0871462 0)
(1.00387 0.0927007 0)
(1.00371 0.0984696 0)
(1.00058 0.118547 0)
(1.01158 -0.0463754 0)
(1.00934 -0.0520521 0)
(1.00838 -0.0442923 0)
(1.00821 -0.0353407 0)
(1.00822 -0.0259655 0)
(1.00826 -0.0162233 0)
(1.00828 -0.00563771 0)
(1.03657 -0.0368966 0)
(1.00819 -0.02782 0)
(0.987958 -0.0170582 0)
(0.982467 -0.00612504 0)
(0.980508 0.00381422 0)
(0.979749 0.0127198 0)
(0.979842 0.0208886 0)
(0.98073 0.0275454 0)
(0.98223 0.0327153 0)
(0.983968 0.0368069 0)
(0.985743 0.0401337 0)
(0.987462 0.0429215 0)
(0.989089 0.0453372 0)
(0.990608 0.0475076 0)
(0.992018 0.0495297 0)
(0.993327 0.051479 0)
(0.994548 0.0534183 0)
(0.995693 0.0554022 0)
(0.996777 0.0574792 0)
(0.997813 0.0596942 0)
(0.998813 0.0620894 0)
(0.999785 0.0647048 0)
(1.00073 0.0675788 0)
(1.00165 0.070764 0)
(1.00254 0.0743101 0)
(1.00339 0.0782759 0)
(1.00419 0.0827075 0)
(1.0049 0.0876535 0)
(1.00538 0.0932129 0)
(1.00565 0.0991544 0)
(1.00263 0.118126 0)
(1.013 -0.0469253 0)
(1.01069 -0.0517373 0)
(1.0101 -0.0441259 0)
(1.00998 -0.0352614 0)
(1.00998 -0.0259227 0)
(1.01001 -0.0161995 0)
(1.01003 -0.00562761 0)
(1.03925 -0.0180694 0)
(1.01695 -0.0139166 0)
(0.998611 -0.00621341 0)
(0.99172 0.00209235 0)
(0.987518 0.00968127 0)
(0.985313 0.0163276 0)
(0.984571 0.0222044 0)
(0.984718 0.0274552 0)
(0.985453 0.0319784 0)
(0.986546 0.0358176 0)
(0.987823 0.0390878 0)
(0.989176 0.0419112 0)
(0.990537 0.0444003 0)
(0.991869 0.0466524 0)
(0.993154 0.0487512 0)
(0.994384 0.0507697 0)
(0.995561 0.0527707 0)
(0.99669 0.0548092 0)
(0.997779 0.0569351 0)
(0.998837 0.0591942 0)
(0.999872 0.06163 0)
(1.00089 0.0642843 0)
(1.00189 0.0671993 0)
(1.00288 0.0704243 0)
(1.00384 0.0740095 0)
(1.00478 0.0780119 0)
(1.00567 0.082484 0)
(1.00647 0.0874839 0)
(1.00708 0.0931203 0)
(1.00769 0.0992198 0)
(1.00477 0.117542 0)
(1.01465 -0.0475959 0)
(1.01227 -0.0516714 0)
(1.01196 -0.0440838 0)
(1.01191 -0.0352564 0)
(1.01192 -0.0259264 0)
(1.01193 -0.0162027 0)
(1.01194 -0.00562833 0)
(1.03875 -0.00325515 0)
(1.02105 -0.00222223 0)
(1.00453 0.00164057 0)
(0.998221 0.00649264 0)
(0.99404 0.0120235 0)
(0.991117 0.0175707 0)
(0.989461 0.022717 0)
(0.988777 0.0273611 0)
(0.988792 0.0314803 0)
(0.989286 0.0350944 0)
(0.990086 0.0382623 0)
(0.991071 0.04106 0)
(0.992157 0.0435672 0)
(0.993289 0.0458605 0)
(0.994435 0.0480106 0)
(0.995574 0.050082 0)
(0.996698 0.0521332 0)
(0.997804 0.0542172 0)
(0.998894 0.0563828 0)
(0.999972 0.0586762 0)
(1.00104 0.0611417 0)
(1.00211 0.0638229 0)
(1.00317 0.0667641 0)
(1.00423 0.0700149 0)
(1.00528 0.073627 0)
(1.0063 0.0776581 0)
(1.00729 0.0821656 0)
(1.00821 0.087215 0)
(1.00896 0.0929172 0)
(1.00986 0.0991065 0)
(1.00701 0.116979 0)
(1.01653 -0.0481964 0)
(1.01408 -0.0516938 0)
(1.014 -0.0440641 0)
(1.01402 -0.035255 0)
(1.01402 -0.0259288 0)
(1.01403 -0.0162039 0)
(1.01402 -0.00562832 0)
(1.03613 0.0083575 0)
(1.02267 0.00775719 0)
(1.00846 0.00964025 0)
(1.00293 0.0126071 0)
(0.998939 0.0162033 0)
(0.995845 0.0201271 0)
(0.993777 0.0240907 0)
(0.992581 0.0279058 0)
(0.992071 0.0314663 0)
(0.99208 0.0347259 0)
(0.992464 0.0376847 0)
(0.993109 0.0403721 0)
(0.993928 0.0428332 0)
(0.99486 0.04512 0)
(0.99586 0.0472864 0)
(0.996901 0.049386 0)
(0.997966 0.0514698 0)
(0.999044 0.0535867 0)
(1.00013 0.0557834 0)
(1.00123 0.0581051 0)
(1.00234 0.060596 0)
(1.00345 0.0633006 0)
(1.00458 0.0662651 0)
(1.00572 0.0695396 0)
(1.00686 0.0731777 0)
(1.00798 0.0772379 0)
(1.00909 0.0817818 0)
(1.01013 0.0868797 0)
(1.01104 0.0926392 0)
(1.01219 0.0988747 0)
(1.00939 0.116441 0)
(1.01865 -0.0487446 0)
(1.01615 -0.051793 0)
(1.01623 -0.0440722 0)
(1.01632 -0.0352581 0)
(1.01633 -0.0259286 0)
(1.01632 -0.0162017 0)
(1.0163 -0.00562686 0)
(1.03272 0.0173773 0)
(1.02256 0.0161002 0)
(1.01046 0.0166451 0)
(1.00594 0.0181401 0)
(1.0025 0.0203306 0)
(0.999591 0.022998 0)
(0.997439 0.0259185 0)
(0.995996 0.028915 0)
(0.99516 0.0318645 0)
(0.994823 0.0346907 0)
(0.99488 0.0373576 0)
(0.995237 0.0398592 0)
(0.995818 0.0422103 0)
(0.996562 0.0444394 0)
(0.997421 0.0465825 0)
(0.998364 0.0486799 0)
(0.999367 0.050774 0)
(1.00041 0.0529075 0)
(1.0015 0.0551233 0)
(1.00261 0.0574644 0)
(1.00376 0.0599745 0)
(1.00493 0.0626982 0)
(1.00613 0.0656825 0)
(1.00736 0.0689784 0)
(1.00859 0.072641 0)
(1.00983 0.0767305 0)
(1.01106 0.0813113 0)
(1.01225 0.0864568 0)
(1.01332 0.0922673 0)
(1.01468 0.0985282 0)
(1.01195 0.115907 0)
(1.02103 -0.0492582 0)
(1.01848 -0.0519566 0)
(1.01869 -0.0441105 0)
(1.01884 -0.0352666 0)
(1.01885 -0.0259251 0)
(1.01882 -0.0161947 0)
(1.01879 -0.00562341 0)
(1.0291 0.024082 0)
(1.02145 0.0226239 0)
(1.01114 0.0224621 0)
(1.00764 0.0230447 0)
(1.00489 0.0242457 0)
(1.00239 0.0259398 0)
(1.00039 0.027979 0)
(0.998928 0.0302268 0)
(0.997954 0.0325721 0)
(0.997417 0.0349328 0)
(0.997252 0.037256 0)
(0.997395 0.0395144 0)
(0.997784 0.0417009 0)
(0.998367 0.0438241 0)
(0.999102 0.0459036 0)
(0.999954 0.0479666 0)
(1.0009 0.0500455 0)
(1.00192 0.0521759 0)
(1.003 0.0543958 0)
(1.00414 0.0567452 0)
(1.00533 0.0592658 0)
(1.00656 0.062002 0)
(1.00784 0.065001 0)
(1.00915 0.0683146 0)
(1.0105 0.0719992 0)
(1.01187 0.0761167 0)
(1.01324 0.0807343 0)
(1.01459 0.0859264 0)
(1.01583 0.0917853 0)
(1.01738 0.0980682 0)
(1.01472 0.115357 0)
(1.0237 -0.0497552 0)
(1.02111 -0.0521742 0)
(1.0214 -0.0441789 0)
(1.0216 -0.0352803 0)
(1.0216 -0.0259162 0)
(1.02155 -0.0161811 0)
(1.0215 -0.00561719 0)
(1.0256 0.0289491 0)
(1.01985 0.0275662 0)
(1.011 0.0270868 0)
(1.0084 0.0271471 0)
(1.00635 0.0277026 0)
(1.00436 0.0286985 0)
(1.00267 0.030049 0)
(1.00134 0.031664 0)
(1.00039 0.0334597 0)
(0.999788 0.0353653 0)
(0.999511 0.0373267 0)
(0.999522 0.0393081 0)
(0.999778 0.04129 0)
(1.00024 0.0432671 0)
(1.00088 0.0452462 0)
(1.00166 0.0472427 0)
(1.00256 0.0492797 0)
(1.00355 0.0513852 0)
(1.00464 0.0535918 0)
(1.0058 0.0559354 0)
(1.00704 0.0584556 0)
(1.00834 0.0611954 0)
(1.00971 0.0642021 0)
(1.01113 0.0675278 0)
(1.0126 0.0712304 0)
(1.01411 0.0753735 0)
(1.01564 0.0800269 0)
(1.01716 0.0852654 0)
(1.01859 0.0911747 0)
(1.02033 0.0974898 0)
(1.01775 0.11477 0)
(1.02668 -0.0502539 0)
(1.02407 -0.0524379 0)
(1.02441 -0.0442744 0)
(1.02463 -0.0352965 0)
(1.02462 -0.0258987 0)
(1.02454 -0.016158 0)
(1.02446 -0.00560701 0)
(1.02237 0.0323631 0)
(1.01809 0.0311601 0)
(1.01039 0.0305877 0)
(1.00855 0.0303879 0)
(1.00714 0.0305588 0)
(1.00565 0.0310894 0)
(1.00434 0.031939 0)
(1.00326 0.0330565 0)
(1.00244 0.0343879 0)
(1.00189 0.0358817 0)
(1.0016 0.0374934 0)
(1.00156 0.0391885 0)
(1.00176 0.0409435 0)
(1.00215 0.0427463 0)
(1.00272 0.0445948 0)
(1.00346 0.0464962 0)
(1.00433 0.0484652 0)
(1.00532 0.0505233 0)
(1.00642 0.0526973 0)
(1.00762 0.0550192 0)
(1.00891 0.0575255 0)
(1.01029 0.0602578 0)
(1.01176 0.0632627 0)
(1.0133 0.0665929 0)
(1.01491 0.0703075 0)
(1.01658 0.0744723 0)
(1.01828 0.0791596 0)
(1.02 0.0844456 0)
(1.02163 0.090412 0)
(1.02355 0.0967799 0)
(1.02107 0.114123 0)
(1.03 -0.0507726 0)
(1.02739 -0.0527411 0)
(1.02774 -0.044391 0)
(1.02796 -0.0353098 0)
(1.02792 -0.0258669 0)
(1.02779 -0.016121 0)
(1.02769 -0.00559119 0)
(1.01949 0.0346275 0)
(1.01635 0.0336314 0)
(1.00957 0.0330833 0)
(1.00832 0.0327846 0)
(1.00745 0.0327513 0)
(1.00644 0.0329955 0)
(1.00552 0.0335048 0)
(1.00474 0.0342563 0)
(1.00413 0.0352209 0)
(1.00371 0.0363671 0)
(1.00349 0.0376641 0)
(1.00348 0.0390851 0)
(1.00367 0.0406093 0)
(1.00405 0.042223 0)
(1.00461 0.0439205 0)
(1.00533 0.0457037 0)
(1.00619 0.0475818 0)
(1.0072 0.0495706 0)
(1.00833 0.0516922 0)
(1.00958 0.0539746 0)
(1.01094 0.0564516 0)
(1.01241 0.0591627 0)
(1.01399 0.062154 0)
(1.01567 0.0654784 0)
(1.01744 0.0691966 0)
(1.01928 0.0733772 0)
(1.02119 0.0780956 0)
(1.02313 0.0834313 0)
(1.02498 0.0894664 0)
(1.02711 0.095916 0)
(1.02476 0.113391 0)
(1.03372 -0.051329 0)
(1.0311 -0.053078 0)
(1.03145 -0.0445183 0)
(1.03164 -0.0353097 0)
(1.03154 -0.0258113 0)
(1.03135 -0.0160632 0)
(1.03121 -0.00556717 0)
(1.01694 0.03597 0)
(1.01474 0.0351702 0)
(1.0087 0.034699 0)
(1.00791 0.0343917 0)
(1.00748 0.0342694 0)
(1.00689 0.0343538 0)
(1.00633 0.0346479 0)
(1.00585 0.0351465 0)
(1.00549 0.0358384 0)
(1.00526 0.0367085 0)
(1.00517 0.0377396 0)
(1.00526 0.0389149 0)
(1.00551 0.0402197 0)
(1.00592 0.0416432 0)
(1.00651 0.0431797 0)
(1.00725 0.0448293 0)
(1.00814 0.0465979 0)
(1.00918 0.048498 0)
(1.01036 0.0505479 0)
(1.01168 0.0527725 0)
(1.01313 0.0552027 0)
(1.01471 0.0578766 0)
(1.01642 0.0608395 0)
(1.01825 0.0641448 0)
(1.0202 0.0678551 0)
(1.02226 0.0720425 0)
(1.0244 0.0767876 0)
(1.02658 0.082176 0)
(1.02869 0.0882956 0)
(1.03105 0.0948635 0)
(1.02887 0.112541 0)
(1.0379 -0.0519408 0)
(1.03528 -0.0534409 0)
(1.03559 -0.0446396 0)
(1.0357 -0.0352787 0)
(1.0355 -0.0257167 0)
(1.03523 -0.0159742 0)
(1.03503 -0.00553119 0)
(1.01471 0.0365546 0)
(1.0133 0.0359247 0)
(1.00787 0.0355463 0)
(1.00744 0.0352749 0)
(1.00736 0.0351308 0)
(1.00712 0.035138 0)
(1.00688 0.0353066 0)
(1.0067 0.0356407 0)
(1.00659 0.0361408 0)
(1.00657 0.0368031 0)
(1.00666 0.0376214 0)
(1.00688 0.0385883 0)
(1.00723 0.0396963 0)
(1.00774 0.0409395 0)
(1.00839 0.0423149 0)
(1.00919 0.0438232 0)
(1.01015 0.0454697 0)
(1.01125 0.0472651 0)
(1.01251 0.0492256 0)
(1.01392 0.0513737 0)
(1.01547 0.0537385 0)
(1.01718 0.0563567 0)
(1.01904 0.059273 0)
(1.02106 0.0625418 0)
(1.02322 0.0662284 0)
(1.02551 0.0704096 0)
(1.02792 0.0751736 0)
(1.03041 0.0806166 0)
(1.03282 0.0868397 0)
(1.03547 0.093571 0)
(1.03349 0.111534 0)
(1.04263 -0.052624 0)
(1.04 -0.0538163 0)
(1.04021 -0.0447271 0)
(1.04019 -0.0351878 0)
(1.03985 -0.0255594 0)
(1.03945 -0.0158384 0)
(1.03918 -0.00547767 0)
(1.01276 0.0364947 0)
(1.01204 0.0360031 0)
(1.00715 0.0357137 0)
(1.00698 0.0354945 0)
(1.00718 0.0353629 0)
(1.00723 0.035342 0)
(1.00728 0.0354439 0)
(1.00736 0.0356774 0)
(1.00749 0.0360487 0)
(1.00769 0.0365614 0)
(1.00797 0.0372169 0)
(1.00836 0.0380148 0)
(1.00886 0.0389543 0)
(1.00948 0.0400346 0)
(1.01024 0.0412565 0)
(1.01114 0.042623 0)
(1.01219 0.0441403 0)
(1.01339 0.045819 0)
(1.01475 0.0476745 0)
(1.01628 0.0497279 0)
(1.01796 0.0520073 0)
(1.01983 0.0545484 0)
(1.02186 0.057396 0)
(1.02409 0.0606059 0)
(1.02649 0.0642466 0)
(1.02907 0.0684017 0)
(1.0318 0.0731705 0)
(1.03465 0.0786657 0)
(1.03744 0.085012 0)
(1.04045 0.0919613 0)
(1.03874 0.110315 0)
(1.04802 -0.053392 0)
(1.04535 -0.0541772 0)
(1.0454 -0.0447345 0)
(1.04516 -0.0349907 0)
(1.0446 -0.0253025 0)
(1.04403 -0.0156324 0)
(1.04366 -0.00539849 0)
(1.01105 0.0358651 0)
(1.01096 0.0354791 0)
(1.00654 0.0352638 0)
(1.00658 0.0350958 0)
(1.00701 0.0349893 0)
(1.00729 0.0349652 0)
(1.00757 0.0350357 0)
(1.00789 0.0352105 0)
(1.00825 0.0354986 0)
(1.00866 0.035907 0)
(1.00915 0.0364416 0)
(1.00971 0.0371069 0)
(1.01038 0.0379068 0)
(1.01115 0.038845 0)
(1.01205 0.0399259 0)
(1.01308 0.0411551 0)
(1.01425 0.0425407 0)
(1.01558 0.0440941 0)
(1.01707 0.0458309 0)
(1.01874 0.0477719 0)
(1.02058 0.0499444 0)
(1.02262 0.0523839 0)
(1.02487 0.0551354 0)
(1.02733 0.0582565 0)
(1.03002 0.06182 0)
(1.03294 0.065918 0)
(1.03606 0.070665 0)
(1.03935 0.0761989 0)
(1.04263 0.0826827 0)
(1.04611 0.0899139 0)
(1.0448 0.108804 0)
(1.05425 -0.0542501 0)
(1.05148 -0.0544679 0)
(1.05125 -0.0445823 0)
(1.05067 -0.0346128 0)
(1.04979 -0.0248899 0)
(1.04898 -0.0153216 0)
(1.04848 -0.00528193 0)
(1.00951 0.0347163 0)
(1.01 0.0343974 0)
(1.00604 0.0342335 0)
(1.00625 0.0341057 0)
(1.00685 0.0340242 0)
(1.00734 0.0340074 0)
(1.00783 0.0340655 0)
(1.00835 0.0342078 0)
(1.00892 0.0344433 0)
(1.00954 0.0347803 0)
(1.01022 0.0352267 0)
(1.01097 0.0357894 0)
(1.01181 0.0364755 0)
(1.01275 0.0372915 0)
(1.01381 0.0382446 0)
(1.01499 0.0393431 0)
(1.01632 0.0405967 0)
(1.01779 0.0420181 0)
(1.01944 0.0436234 0)
(1.02127 0.0454333 0)
(1.0233 0.047475 0)
(1.02555 0.0497835 0)
(1.02803 0.0524042 0)
(1.03078 0.0553963 0)
(1.0338 0.058837 0)