/*--------------------------------*- C++ -*----------------------------------*\
| =========                 |                                                 |
| \\      /  F ield         | OpenFOAM: The Open Source CFD Toolbox           |
|  \\    /   O peration     | Version:  2512                                  |
|   \\  /    A nd           | Website:  www.openfoam.com                      |
|    \\/     M anipulation  |                                                 |
\*---------------------------------------------------------------------------*/
FoamFile
{
    version     2.0;
    format      ascii;
    arch        "LSB;label=32;scalar=64";
    class       volScalarField;
    location    "103.9";
    object      p;
}
// * * * * * * * * * * * * * * * * * * * * * * * * * * * * * * * * * * * * * //

dimensions      [0 2 -2 0 0 0 0];

internalField   nonuniform List<scalar> 
13248
(
-0.548523
-0.547537
-0.54448
-0.540063
-0.535077
-0.530286
-0.526388
-0.523613
-0.52159
-0.519409
-0.515874
-0.509838
-0.500503
-0.487587
-0.471302
-0.452169
-0.430798
-0.407741
-0.383442
-0.358293
-0.33234
-0.306133
-0.277948
-0.248876
-0.557888
-0.55631
-0.553183
-0.549058
-0.544424
-0.539672
-0.534952
-0.530027
-0.524326
-0.517128
-0.507793
-0.495937
-0.481513
-0.464761
-0.446072
-0.425856
-0.404464
-0.382187
-0.359249
-0.335825
-0.312072
-0.288085
-0.263731
-0.240053
-0.569972
-0.56739
-0.563853
-0.559629
-0.554886
-0.549521
-0.543125
-0.535148
-0.525135
-0.512881
-0.498444
-0.482085
-0.46417
-0.445058
-0.425049
-0.404368
-0.383188
-0.36165
-0.339865
-0.317995
-0.296054
-0.274322
-0.252494
-0.230736
-0.58443
-0.580602
-0.576345
-0.571628
-0.566172
-0.559314
-0.550222
-0.538374
-0.523792
-0.506929
-0.488406
-0.468803
-0.448559
-0.427955
-0.407158
-0.386263
-0.36534
-0.344448
-0.323666
-0.303051
-0.282697
-0.26275
-0.242998
-0.22405
-0.6013
-0.59607
-0.590893
-0.58527
-0.578324
-0.568876
-0.556032
-0.539746
-0.520726
-0.499959
-0.478321
-0.456419
-0.434596
-0.413007
-0.391708
-0.370713
-0.35003
-0.329679
-0.309685
-0.290099
-0.270966
-0.252342
-0.234133
-0.216523
-0.620763
-0.614051
-0.607775
-0.600707
-0.591243
-0.577962
-0.560458
-0.539501
-0.516414
-0.492431
-0.468405
-0.444802
-0.421816
-0.399491
-0.377809
-0.356738
-0.336251
-0.316331
-0.29698
-0.278205
-0.260024
-0.242463
-0.225465
-0.209235
-0.642876
-0.634637
-0.626989
-0.617704
-0.604467
-0.586177
-0.563442
-0.537899
-0.511217
-0.484582
-0.458655
-0.433707
-0.409797
-0.386885
-0.364904
-0.343784
-0.323467
-0.30391
-0.285079
-0.266956
-0.249528
-0.232769
-0.216673
-0.201261
-0.667351
-0.657558
-0.648105
-0.635556
-0.617229
-0.593049
-0.564915
-0.535092
-0.505269
-0.476394
-0.448871
-0.422789
-0.398096
-0.374687
-0.352455
-0.331298
-0.311134
-0.29189
-0.273508
-0.255939
-0.239139
-0.223078
-0.207743
-0.193054
-0.693451
-0.682083
-0.670209
-0.65314
-0.628579
-0.598081
-0.564727
-0.531041
-0.498476
-0.467662
-0.438754
-0.411687
-0.38632
-0.362497
-0.340072
-0.318917
-0.298917
-0.279978
-0.262013
-0.244948
-0.228718
-0.21327
-0.198561
-0.184422
-0.719978
-0.706998
-0.691878
-0.669025
-0.637454
-0.600638
-0.562458
-0.525342
-0.490376
-0.457859
-0.427734
-0.39981
-0.373873
-0.349719
-0.327166
-0.306054
-0.286247
-0.267625
-0.25008
-0.233518
-0.217855
-0.203026
-0.188942
-0.175408
-0.745316
-0.730649
-0.711261
-0.681526
-0.64258
-0.599724
-0.557189
-0.517057
-0.479995
-0.446004
-0.414843
-0.386218
-0.359847
-0.335481
-0.312901
-0.29192
-0.272374
-0.254123
-0.23704
-0.221015
-0.205956
-0.191784
-0.178368
-0.165542
-0.767564
-0.751085
-0.726349
-0.688873
-0.642534
-0.594085
-0.547704
-0.504982
-0.466163
-0.430976
-0.399021
-0.369909
-0.343296
-0.318887
-0.296428
-0.275704
-0.25653
-0.238745
-0.222203
-0.206783
-0.192397
-0.178966
-0.16635
-0.154445
-0.521802
-0.51996
-0.519225
-0.521153
-0.526655
-0.535929
-0.548916
-0.565479
-0.585348
-0.608014
-0.632662
-0.658177
-0.683194
-0.70621
-0.72572
-0.740342
-0.748443
-0.748854
-0.74041
-0.722091
-0.69333
-0.654244
-0.606883
-0.552981
-0.539181
-0.535973
-0.535015
-0.537129
-0.543091
-0.55312
-0.567135
-0.584948
-0.606249
-0.630492
-0.656828
-0.684108
-0.710948
-0.735849
-0.757304
-0.773833
-0.784016
-0.786482
-0.779771
-0.762375
-0.733085
-0.691244
-0.638935
-0.57745
-0.551095
-0.54665
-0.545166
-0.546932
-0.552602
-0.562443
-0.576354
-0.594096
-0.615312
-0.639439
-0.665636
-0.69279
-0.719573
-0.744556
-0.766346
-0.783326
-0.794289
-0.797741
-0.791968
-0.774986
-0.745126
-0.701124
-0.645242
-0.578576
-0.557467
-0.552082
-0.549853
-0.550703
-0.555247
-0.56388
-0.576545
-0.592979
-0.612796
-0.635429
-0.660074
-0.685681
-0.711003
-0.734713
-0.755401
-0.771893
-0.782592
-0.785858
-0.779735
-0.761857
-0.730389
-0.684051
-0.625709
-0.556723
-0.559007
-0.553149
-0.55009
-0.549558
-0.552227
-0.558712
-0.569113
-0.583219
-0.600649
-0.620853
-0.643073
-0.666333
-0.689505
-0.711443
-0.730833
-0.74619
-0.755909
-0.758091
-0.750436
-0.730321
-0.69616
-0.647296
-0.587455
-0.518573
-0.556967
-0.55119
-0.547393
-0.545257
-0.545567
-0.549222
-0.556599
-0.567654
-0.582088
-0.5994
-0.618881
-0.639647
-0.660721
-0.680914
-0.698776
-0.712649
-0.720688
-0.720523
-0.709693
-0.685771
-0.648157
-0.597352
-0.537978
-0.472097
-0.552804
-0.547622
-0.543344
-0.5397
-0.537579
-0.538162
-0.54217
-0.549844
-0.561066
-0.575431
-0.592281
-0.610816
-0.630025
-0.648489
-0.664519
-0.67615
-0.681067
-0.676658
-0.660839
-0.632109
-0.591452
-0.540608
-0.48447
-0.42474
-0.547898
-0.543677
-0.539249
-0.534459
-0.53027
-0.528067
-0.528904
-0.533359
-0.54156
-0.553268
-0.567823
-0.584441
-0.601729
-0.617971
-0.631108
-0.638741
-0.63842
-0.628008
-0.606486
-0.573858
-0.532498
-0.484587
-0.434395
-0.382472
-0.543424
-0.540322
-0.536034
-0.530583
-0.524981
-0.520714
-0.519081
-0.520949
-0.526682
-0.536128
-0.548734
-0.563189
-0.577791
-0.590418
-0.59866
-0.600168
-0.593055
-0.576368
-0.550464
-0.516684
-0.477818
-0.435469
-0.392764
-0.348603
-0.540402
-0.538356
-0.534378
-0.528729
-0.522468
-0.517074
-0.513963
-0.514162
-0.518141
-0.52569
-0.535907
-0.547207
-0.557516
-0.564513
-0.565993
-0.560308
-0.546664
-0.525411
-0.497786
-0.46563
-0.431063
-0.395006
-0.35959
-0.322253
-0.539793
-0.538543
-0.534927
-0.529467
-0.523239
-0.517616
-0.513954
-0.51321
-0.515708
-0.520997
-0.527853
-0.534457
-0.538715
-0.538666
-0.532879
-0.520746
-0.502524
-0.47924
-0.452145
-0.422729
-0.392038
-0.360925
-0.330955
-0.299283
-0.542396
-0.541516
-0.538251
-0.53324
-0.527527
-0.522277
-0.518535
-0.516987
-0.517649
-0.519762
-0.521939
-0.522475
-0.519755
-0.512628
-0.500634
-0.484006
-0.463463
-0.439928
-0.414201
-0.387123
-0.358932
-0.33064
-0.302609
-0.274874
-0.488581
-0.419777
-0.362098
-0.319867
-0.295766
-0.291033
-0.305977
-0.336591
-0.371831
-0.395891
-0.394131
-0.359968
-0.303101
-0.242374
-0.193196
-0.160984
-0.144394
-0.141097
-0.149067
-0.169327
-0.208047
-0.266678
-0.327069
-0.359747
-0.343635
-0.290581
-0.225447
-0.169656
-0.133543
-0.114892
-0.110221
-0.122581
-0.153331
-0.18967
-0.207562
-0.191596
-0.15546
-0.119863
-0.0966455
-0.0882001
-0.0959002
-0.114788
-0.127663
-0.12035
-0.103869
-0.0852235
-0.0708263
-0.0638364
-0.0612434
-0.0611538
-0.0569746
-0.0496716
-0.0446059
-0.0460468
-0.0473096
-0.0413128
-0.0311507
-0.020873
-0.00911479
-0.00321075
-0.504226
-0.426179
-0.359059
-0.307019
-0.273
-0.258526
-0.263923
-0.286805
-0.318266
-0.34317
-0.344883
-0.317354
-0.269219
-0.217625
-0.176257
-0.149553
-0.137251
-0.137912
-0.149817
-0.174583
-0.218876
-0.283019
-0.347575
-0.3826
-0.365254
-0.307979
-0.237496
-0.176234
-0.134927
-0.111501
-0.101794
-0.107755
-0.131014
-0.16123
-0.176171
-0.162914
-0.133525
-0.106126
-0.0904392
-0.0892528
-0.104851
-0.131276
-0.14924
-0.140193
-0.118875
-0.0941147
-0.0737016
-0.0611483
-0.0529346
-0.0504231
-0.045227
-0.0418278
-0.0423038
-0.0494124
-0.0576079
-0.0516759
-0.039874
-0.0241895
-0.00405069
-0.000195331
-0.49936
-0.416267
-0.344519
-0.286114
-0.244182
-0.219585
-0.213509
-0.225547
-0.249603
-0.273335
-0.2805
-0.261811
-0.225242
-0.184877
-0.152087
-0.131353
-0.123715
-0.128441
-0.143918
-0.172018
-0.219355
-0.28599
-0.352952
-0.390925
-0.376204
-0.317929
-0.24416
-0.179132
-0.133849
-0.106356
-0.0919683
-0.0919371
-0.108037
-0.132386
-0.145031
-0.134471
-0.1114
-0.0914463
-0.0827883
-0.0889951
-0.112831
-0.147069
-0.170455
-0.160134
-0.133392
-0.102263
-0.0760588
-0.0584862
-0.0449549
-0.0400399
-0.0335884
-0.0340502
-0.0398346
-0.0524147
-0.0673047
-0.0616525
-0.0483506
-0.0275485
0.000939024
0.00267286
-0.474999
-0.392442
-0.321948
-0.26221
-0.215719
-0.18371
-0.166668
-0.165525
-0.178419
-0.196744
-0.20685
-0.197452
-0.173912
-0.145439
-0.121485
-0.106916
-0.103892
-0.112298
-0.130442
-0.159917
-0.207173
-0.273404
-0.342015
-0.383395
-0.3747
-0.319302
-0.244803
-0.178056
-0.130344
-0.0998932
-0.081659
-0.0761895
-0.085791
-0.104728
-0.115405
-0.107412
-0.0897061
-0.0760713
-0.0735957
-0.0868121
-0.118812
-0.161049
-0.190204
-0.179212
-0.14708
-0.109493
-0.0777963
-0.0558456
-0.0374498
-0.030186
-0.0222327
-0.0263542
-0.0371555
-0.0549446
-0.0762455
-0.0710766
-0.0564564
-0.0309663
0.00578967
0.00538632
-0.438419
-0.361428
-0.29637
-0.238714
-0.191322
-0.15482
-0.129448
-0.117013
-0.117301
-0.126354
-0.135155
-0.131843
-0.120226
-0.102609
-0.0868505
-0.0780055
-0.0790956
-0.0906277
-0.110701
-0.140098
-0.184749
-0.24735
-0.315306
-0.361052
-0.360222
-0.311613
-0.239869
-0.173443
-0.124704
-0.092478
-0.0715701
-0.0615674
-0.065244
-0.0792756
-0.0882848
-0.0824434
-0.0689354
-0.0602076
-0.062853
-0.0821233
-0.121876
-0.172034
-0.20722
-0.196511
-0.159674
-0.11575
-0.0788991
-0.0532301
-0.0305272
-0.021016
-0.0113319
-0.0186904
-0.0342379
-0.0569215
-0.0843031
-0.0797984
-0.0640813
-0.0344376
0.0104053
0.00793704
-0.397115
-0.32905
-0.27232
-0.219089
-0.172631
-0.134557
-0.104099
-0.0823849
-0.0713541
-0.070062
-0.0743261
-0.0779136
-0.0698089
-0.0602284
-0.0511187
-0.047177
-0.0517866
-0.0658704
-0.0872772
-0.115639
-0.155905
-0.212041
-0.276267
-0.32589
-0.334456
-0.295513
-0.229748
-0.165819
-0.117363
-0.0844027
-0.0618566
-0.0486144
-0.0472019
-0.0567061
-0.0643368
-0.0604255
-0.0496823
-0.0442706
-0.0507792
-0.0750361
-0.121649
-0.178898
-0.220348
-0.210876
-0.170844
-0.120955
-0.0793628
-0.0506503
-0.0242941
-0.0126602
-0.00106704
-0.0110666
-0.0310815
-0.0582678
-0.0913812
-0.0876697
-0.0711146
-0.037926
0.014671
0.0103079
-0.357913
-0.299534
-0.251423
-0.203903
-0.159949
-0.121984
-0.0895617
-0.062539
-0.0424725
-0.0310777
-0.0274792
-0.0280254
-0.0243681
-0.0209632
-0.0168517
-0.016704
-0.0240844
-0.0399042
-0.0618957
-0.088698
-0.124019
-0.172612
-0.231058
-0.282632
-0.301072
-0.273199
-0.215496
-0.155933
-0.109015
-0.0761472
-0.0528417
-0.037321
-0.0318317
-0.0373228
-0.0438376
-0.0431458
-0.0324016
-0.0288637
-0.0380196
-0.065626
-0.117589
-0.181141
-0.228814
-0.221586
-0.180338
-0.125098
-0.0792259
-0.0480919
-0.0188211
-0.00522991
0.00841524
-0.00348812
-0.0277097
-0.0589833
-0.0974211
-0.0945812
-0.0774519
-0.0413564
0.0184647
0.0124798
-0.325363
-0.27638
-0.235576
-0.193411
-0.152602
-0.115599
-0.0826768
-0.0537046
-0.0288915
-0.00950155
0.00252264
0.00735207
0.00831105
0.0119323
0.0132099
0.0109395
0.0018054
-0.0148054
-0.036498
-0.0613538
-0.0920044
-0.132858
-0.183937
-0.235338
-0.261728
-0.245748
-0.197775
-0.144262
-0.100083
-0.0680694
-0.044718
-0.0278517
-0.0191576
-0.0211656
-0.0264652
-0.026221
-0.0172843
-0.0146556
-0.0250488
-0.0544971
-0.109994
-0.178116
-0.23215
-0.226259
-0.187721
-0.128133
-0.0785333
-0.0455207
-0.0141126
0.00119918
0.0169617
0.00395784
-0.024162
-0.0590319
-0.102376
-0.100436
-0.0829985
-0.0446417
0.0216788
0.0144357
-0.300338
-0.259354
-0.224475
-0.186971
-0.149627
-0.114543
-0.0819303
-0.0520909
-0.0254445
-0.00212763
0.0168518
0.0291667
0.0348784
0.038239
0.0372223
0.0338294
0.0243289
0.0081224
-0.0124383
-0.0352515
-0.0619333
-0.0959437
-0.139487
-0.18851
-0.223716
-0.216643
-0.178189
-0.131435
-0.0908305
-0.0603126
-0.037484
-0.02013
-0.00912546
-0.00808806
-0.012073
-0.0123524
-0.00490561
-0.00216413
-0.0124602
-0.0419838
-0.098574
-0.170329
-0.231216
-0.250167
-0.193234
-0.130011
-0.0773033
-0.0429231
-0.0101385
0.00659594
0.0245213
0.0113068
-0.0204719
-0.0585424
-0.106299
-0.105219
-0.087677
-0.0477488
0.0242201
0.0161645
-0.281731
-0.247588
-0.217244
-0.183548
-0.149564
-0.116866
-0.0854581
-0.0558164
-0.0285816
-0.00395975
0.0177666
0.035544
0.047705
0.0532995
0.0543245
0.0505541
0.0415737
0.0269731
0.00867618
-0.0117532
-0.0351607
-0.0632484
-0.098694
-0.143523
-0.18133
-0.182938
-0.155656
-0.117258
-0.0814314
-0.0531136
-0.0313035
-0.0142067
-0.00177329
0.00193263
-0.000515416
-0.00148523
0.0044252
0.00823686
-0.00100885
-0.0292876
-0.0851763
-0.157326
-0.223239
-0.242408
-0.194218
-0.130593
-0.0756552
-0.0404456
-0.00703519
0.0109262
0.030717
0.0183137
-0.016713
-0.0574198
-0.109131
-0.108767
-0.0914195
-0.0506555
0.0259876
0.0176597
-0.266826
-0.239862
-0.212976
-0.181948
-0.150424
-0.119645
-0.0898486
-0.0608152
-0.0331642
-0.00767589
0.0153136
0.035205
0.051198
0.0644478
0.0669381
0.0645247
0.0569149
0.0439408
0.0279913
0.00987768
-0.0111397
-0.0350218
-0.0650899
-0.105293
-0.142566
-0.154666
-0.136344
-0.105043
-0.0737276
-0.0476414
-0.0268114
-0.0102329
0.00300383
0.00904569
0.00830602
0.00670637
0.0112327
0.0163966
0.00946905
-0.0161228
-0.0697654
-0.141572
-0.211078
-0.232181
-0.192625
-0.130558
-0.0741852
-0.0383366
-0.00479242
0.013968
0.0355929
0.0252058
-0.0128533
-0.0559487
-0.111085
-0.111633
-0.0942389
-0.0530963
0.0269509
0.0189096
-0.253553
-0.236491
-0.21405
-0.186571
-0.158552
-0.130742
-0.102997
-0.0753208
-0.0481048
-0.0221259
0.00199265
0.0234987
0.041519
0.0539781
0.0654907
0.0699387
0.0666403
0.0574418
0.0449261
0.0295409
0.0100092
-0.0110504
-0.0354174
-0.0686836
-0.101372
-0.117267
-0.109424
-0.0879804
-0.0631931
-0.0406705
-0.0214452
-0.00581795
0.00737907
0.014877
0.0155633
0.0134787
0.0164122
0.0220079
0.0165874
-0.00501547
-0.0540644
-0.122759
-0.192321
-0.216594
-0.185187
-0.127757
-0.0716874
-0.0355056
-0.00203956
0.0165715
0.0387226
0.0313944
-0.00900318
-0.0538033
-0.111756
-0.112426
-0.0959487
-0.0544487
0.0273801
0.0199249
-0.226186
-0.221759
-0.200344
-0.172429
-0.144632
-0.118221
-0.0925546
-0.0669787
-0.0416528
-0.0173078
0.00565269
0.0267397
0.0446656
0.0594255
0.0686887
0.0750277
0.075457
0.069026
0.0589863
0.0477106
0.0332807
0.01391
-0.0141147
-0.051552
-0.0848621
-0.0975508
-0.0880422
-0.069208
-0.0482591
-0.0291038
-0.0124488
0.00127421
0.0130308
0.0204034
0.0217955
0.0194754
0.0208957
0.0286691
0.0257553
0.00816027
-0.0373179
-0.103637
-0.174366
-0.203665
-0.176822
-0.120349
-0.065226
-0.0302588
0.00180129
0.0199027
0.042582
0.0376624
-0.00479571
-0.0512106
-0.11195
-0.119849
-0.0963154
-0.0548113
0.0274707
0.0206816
-0.200264
-0.199327
-0.180322
-0.153925
-0.127919
-0.104003
-0.0812728
-0.0586024
-0.0358391
-0.0136709
0.00719054
0.0262477
0.0425575
0.0546656
0.0666634
0.0744055
0.0766268
0.0726751
0.065643
0.058301
0.0479995
0.0292372
-0.000890222
-0.037547
-0.0650358
-0.0726792
-0.0646513
-0.0499927
-0.0338264
-0.0185784
-0.00453488
0.00740319
0.0175747
0.0241495
0.0256865
0.0233994
0.0236561
0.0284151
0.0300142
0.0156777
-0.0255754
-0.0879251
-0.157299
-0.187999
-0.16333
-0.110842
-0.0581454
-0.025003
0.00534732
0.0225421
0.0452127
0.0416315
-0.00196707
-0.0493395
-0.111397
-0.117479
-0.095179
-0.0546371
0.0270252
0.0210424
-0.178443
-0.177998
-0.162345
-0.13923
-0.115795
-0.0940959
-0.0735655
-0.0531126
-0.0324289
-0.0120842
0.00722731
0.0250157
0.0405324
0.0532118
0.0640718
0.071838
0.0750378
0.0729831
0.0682032
0.0631823
0.0546751
0.0366764
0.00907842
-0.0210535
-0.0422017
-0.0488102
-0.0442511
-0.0340508
-0.021736
-0.00952037
0.00226823
0.0125392
0.0213961
0.0273367
0.028984
0.0266124
0.0258207
0.0307836
0.0323681
0.0194176
-0.0188091
-0.0759404
-0.13875
-0.167988
-0.147236
-0.100141
-0.0508898
-0.0200056
0.00858502
0.0246607
0.0470781
0.0442728
-0.000564168
-0.0482661
-0.109909
-0.115419
-0.0928551
-0.0538326
0.0259749
0.021072
-0.157672
-0.157819
-0.145155
-0.125163
-0.104135
-0.0843956
-0.0657919
-0.0474365
-0.028917
-0.0105358
0.00709002
0.0234444
0.0379074
0.0500239
0.0602717
0.068007
0.0720143
0.0716749
0.0687006
0.0648944
0.0575326
0.0424618
0.0202693
-0.00368338
-0.0207229
-0.0276098
-0.026081
-0.0194253
-0.0104081
-0.00108024
0.00851576
0.0171914
0.0246625
0.0296676
0.0312741
0.0289301
0.0273267
0.0318465
0.033702
0.0218094
-0.0134789
-0.0630456
-0.117283
-0.145246
-0.12853
-0.0876872
-0.0431108
-0.0149902
0.0117027
0.0262687
0.0478542
0.0459055
0.00021914
-0.0469318
-0.107203
-0.112269
-0.0892271
-0.0521283
0.0243386
0.0207574
-0.138373
-0.139412
-0.129175
-0.112008
-0.0933941
-0.0756933
-0.0590327
-0.0427042
-0.0262395
-0.00976907
0.00618534
0.0211157
0.0345294
0.0460599
0.0557843
0.0633692
0.0679424
0.0690106
0.0675718
0.0647755
0.0589583
0.0474133
0.0301788
0.0113699
-0.00261555
-0.00985189
-0.0107534
-0.00715343
-0.000847077
0.00616537
0.0138421
0.0210983
0.0274127
0.031497
0.0328896
0.03055
0.0282842
0.0319244
0.0337448
0.0232856
-0.00739085
-0.0479221
-0.0941388
-0.120281
-0.10784
-0.0740226
-0.0351505
-0.0102303
0.0145058
0.0273745
0.0473701
0.0465104
0.00094771
-0.0448638
-0.103098
-0.107808
-0.0841924
-0.0494473
0.022148
0.0200596
-0.121344
-0.122798
-0.114444
-0.0997618
-0.0834576
-0.0677653
-0.0529539
-0.0384863
-0.0239197
-0.00927575
0.00504919
0.0185967
0.0309258
0.041706
0.0508622
0.0581834
0.0630897
0.0652048
0.065008
0.0631309
0.0586954
0.0499946
0.036954
0.0224901
0.0107887
0.00379014
0.00149493
0.0030711
0.00739182
0.012545
0.0185058
0.0244256
0.0296711
0.0328468
0.0338924
0.0316492
0.0288665
0.0314197
0.0327173
0.0242328
-0.000778289
-0.0324426
-0.0706896
-0.0943548
-0.0860578
-0.0595416
-0.027068
-0.00568272
0.016937
0.0280173
0.0455019
0.0459706
0.00164017
-0.0420155
-0.0973754
-0.101864
-0.0777555
-0.0456836
0.0195241
0.0189533
-0.105974
-0.107579
-0.100819
-0.0883699
-0.0742327
-0.0604633
-0.0474115
-0.0346819
-0.021874
-0.00893961
0.00382387
0.0160098
0.0272251
0.0371675
0.0457024
0.0526676
0.0576826
0.0604432
0.0611243
0.060047
0.056798
0.0503969
0.0407619
0.0297734
0.0202461
0.0139886
0.0111627
0.0113938
0.0141586
0.0178548
0.0223655
0.0270852
0.0314412
0.0338898
0.0344824
0.032484
0.0294399
0.0308633
0.0310193
0.0243652
0.00496338
-0.0179637
-0.0480539
-0.0687245
-0.0642554
-0.0449314
-0.0190971
-0.00142087
0.0188889
0.0283195
0.0422277
0.0441344
0.00211573
-0.038215
-0.0897539
-0.0942324
-0.070004
-0.0408557
0.0166291
0.0174375
-0.0918683
-0.0936884
-0.0883162
-0.0778476
-0.0656875
-0.0537092
-0.0423066
-0.0311834
-0.0199856
-0.00863967
0.00263197
0.0134906
0.0235954
0.0326724
0.0405533
0.0471032
0.0520606
0.0551856
0.0565048
0.0561528
0.0539287
0.0493141
0.0423015
0.0341109
0.026609
0.0212967
0.0184435
0.0179169
0.019593
0.0222166
0.0255628
0.029207
0.0327396
0.0346472
0.0348106
0.0331542
0.0301857
0.0307192
0.0294069
0.0237385
0.00965961
-0.00478406
-0.027103
-0.0446784
-0.0435899
-0.0309212
-0.0114049
0.00259096
0.0203703
0.0284566
0.0377395
0.0409978
0.00245545
-0.0330653
-0.07993
-0.0847599
-0.0611694
-0.035084
0.0136806
0.015558
-0.0791626
-0.081128
-0.0769054
-0.0681559
-0.0577678
-0.0474246
-0.0375351
-0.0278824
-0.0181624
-0.00828768
0.00158353
0.0111737
0.0201879
0.0283939
0.0356182
0.041724
0.0465192
0.0498186
0.0515769
0.0518242
0.0504638
0.0472706
0.042308
0.0363574
0.0306509
0.0263432
0.02378
0.0229177
0.0238327
0.0256442
0.0280869
0.0308272
0.0336136
0.0351193
0.0350032
0.0337132
0.0310765
0.0310583
0.0288679
0.0230887
0.0139114
0.0068389
-0.00878557
-0.0235749
-0.0253167
-0.0182348
-0.00422548
0.00633649
0.0214539
0.0285591
0.0327393
0.0370827
0.00319098
-0.0261009
-0.0677194
-0.0734189
-0.0516321
-0.0286371
0.0108998
0.0134135
-0.0677562
-0.0697435
-0.0664725
-0.0592195
-0.0504071
-0.0415342
-0.0330181
-0.0247098
-0.0163419
-0.00781151
0.00077088
0.00916997
0.0171301
0.0244837
0.031047
0.0366847
0.0412455
0.044582
0.0466251
0.0473617
0.0467417
0.0447059
0.0413439
0.0371602
0.0329951
0.0296421
0.0274958
0.0265606
0.0269985
0.0282309
0.0300088
0.0320275
0.034161
0.0353406
0.0351124
0.0341691
0.0320234
0.0317565
0.0296518
0.0240541
0.0187772
0.0166556
0.00580551
-0.00679218
-0.0104192
-0.00735474
0.0022471
0.00980469
0.022256
0.0285673
0.0286178
0.0333581
0.0052405
-0.0170086
-0.0532538
-0.0604355
-0.0418963
-0.0219135
0.00850583
0.0111542
-0.0574162
-0.0594084
-0.0569397
-0.0509759
-0.0435493
-0.0359938
-0.0287211
-0.0216268
-0.0144742
-0.00715789
0.000245772
0.00754686
0.0145408
0.0210543
0.0269515
0.0321036
0.0363847
0.0396743
0.0418916
0.0430143
0.0430137
0.0419033
0.0397841
0.0369853
0.0340739
0.0315916
0.0299141
0.0290811
0.029257
0.0300839
0.0313769
0.0328392
0.0344505
0.0353647
0.0351376
0.0345232
0.0329112
0.0326649
0.0313757
0.0275865
0.0250263
0.024554
0.0162125
0.00534926
0.00107958
0.00163495
0.00786309
0.0129674
0.0228553
0.0283457
0.0267383
0.0308232
0.00954808
-0.00607538
-0.0373747
-0.0465366
-0.0325606
-0.015418
0.00671698
0.00897218
-0.0480866
-0.0500577
-0.0482412
-0.0433758
-0.0371648
-0.0307815
-0.0246153
-0.0185974
-0.0125268
-0.00629988
3.85292e-05
0.00633665
0.0124271
0.0181539
0.023407
0.0280745
0.0320462
0.0352254
0.0375301
0.0389403
0.039435
0.0390536
0.0378881
0.0361666
0.0342644
0.032544
0.0313253
0.0306749
0.030738
0.0312999
0.0322596
0.0333144
0.0345291
0.0352526
0.0350714
0.034759
0.0336711
0.0335636
0.0333627
0.0319854
0.0312712
0.0303381
0.0231849
0.0138654
0.00971163
0.0088473
0.0125419
0.0158073
0.0232928
0.0279555
0.0273048
0.0301292
0.0162191
0.0054442
-0.0217095
-0.0328551
-0.0240879
-0.00968412
0.00571604
0.00711117
-0.0397101
-0.041604
-0.0403102
-0.0363781
-0.0312202
-0.0258611
-0.0206682
-0.0156011
-0.0104881
-0.00522909
0.000154751
0.00554543
0.0108058
0.0158052
0.0204475
0.02464
0.0282859
0.031308
0.033631
0.0352396
0.0361077
0.0362829
0.0358442
0.03495
0.0338359
0.0327534
0.0319576
0.0315245
0.031583
0.031988
0.0327291
0.0335053
0.0344224
0.0350286
0.0349211
0.0348458
0.0342463
0.0343046
0.0348866
0.0352066
0.0354102
0.0337506
0.0275666
0.0197735
0.016042
0.0144388
0.0162812
0.0182713
0.0236291
0.0276321
0.0291742
0.0300366
0.0230861
0.0151753
-0.00832555
-0.0206666
-0.0167135
-0.00511769
0.00547653
0.00578846
-0.0321588
-0.0339521
-0.0330767
-0.0299312
-0.0256819
-0.0212166
-0.0168747
-0.0126388
-0.00836404
-0.0039555
0.000581802
0.00515949
0.00966989
0.0140035
0.0180748
0.0218096
0.0251236
0.0279579
0.0302412
0.0319615
0.0330922
0.0336796
0.0337779
0.0335123
0.0329965
0.0324349
0.0320141
0.0318004
0.0319171
0.0322455
0.0328502
0.0334535
0.0341564
0.0346926
0.0346831
0.0347639
0.0345697
0.0347608
0.0355173
0.0364893
0.0369749
0.0351575
0.0300488
0.0237218
0.0204887
0.0185735
0.0191673
0.0202989
0.0239997
0.0275631
0.0305409
0.0294578
0.02773
0.0213105
0.00125571
-0.0110984
-0.0104794
-0.00181517
0.00574293
0.00506732
-0.0253448
-0.0270373
-0.0264979
-0.0240122
-0.0205389
-0.0168414
-0.0132332
-0.00971584
-0.0061679
-0.00249888
0.00129621
0.00515126
0.00899267
0.0127228
0.0162669
0.0195661
0.0225491
0.0251714
0.0273672
0.0291281
0.0304254
0.0313008
0.0317821
0.0319445
0.0319019
0.0317569
0.0316565
0.0316452
0.0318503
0.0321618
0.0326855
0.0331933
0.0337535
0.0342404
0.0343374
0.0345075
0.0345942
0.0348819
0.035529
0.0365413
0.0369141
0.0352693
0.0312217
0.0261962
0.0234364
0.0214889
0.0213307
0.0218731
0.0244976
0.0276632
0.0305946
0.0290194
0.0293261
0.0236642
0.00696117
-0.00434306
-0.00534443
0.000476072
0.00598339
0.00464365
-0.019242
-0.020814
-0.0205245
-0.0185764
-0.0157571
-0.0127177
-0.00974214
-0.00684378
-0.00392124
-0.000891709
0.00225503
0.0054947
0.0087375
0.0119215
0.0149806
0.01787
0.0205287
0.0229234
0.0249962
0.0267395
0.0281219
0.0291786
0.0299293
0.0303963
0.0306849
0.0308545
0.0310137
0.0311808
0.0314808
0.0318142
0.0322935
0.0327548
0.0332294
0.0336759
0.033864
0.034081
0.0343218
0.0346941
0.0351242
0.0359073
0.0360516
0.0346578
0.0315451
0.0276146
0.0252674
0.023463
0.0228966
0.0230461
0.0250342
0.0276893
0.0297437
0.0286289
0.0291566
0.0240102
0.0102723
0.000263896
-0.00132742
0.00212628
0.00582189
0.00407275
-0.0137756
-0.0152089
-0.0150997
-0.0135861
-0.011323
-0.00884627
-0.00641183
-0.00404051
-0.00165277
0.000833299
0.00344035
0.00612871
0.0088465
0.0115415
0.0141597
0.0166681
0.0190146
0.0211734
0.0230955
0.0247729
0.0261746
0.0273213
0.028213
0.0289109
0.0294368
0.0298351
0.0301919
0.0305076
0.0308927
0.031268
0.0317281
0.0321689
0.0325967
0.0330096
0.0332602
0.0334989
0.0337754
0.0340324
0.0344024
0.0349224
0.0348642
0.0336994
0.0313413
0.0283056
0.026304
0.0247145
0.0239755
0.0238859
0.0254053
0.0274544
0.0285594
0.0279613
0.0280218
0.0234488
0.0122732
0.00347894
0.00159363
0.00328142
0.00533009
0.00334078
-0.0088914
-0.0102038
-0.0102403
-0.00908845
-0.00726069
-0.00524288
-0.00325782
-0.00132812
0.000615349
0.00263948
0.00476955
0.006989
0.00925097
0.0115159
0.0137397
0.015898
0.0179488
0.0198708
0.0216242
0.0231993
0.0245715
0.0257456
0.0267312
0.0275472
0.0282234
0.0287771
0.0292738
0.0297051
0.0301579
0.0305792
0.0310346
0.0314676
0.0318724
0.0322576
0.0325424
0.032791
0.0330456
0.0333
0.0335107
0.0337867
0.0335886
0.032612
0.0308221
0.0284963
0.0267849
0.0253558
0.0246549
0.0244171
0.0254539
0.026833
0.0272799
0.0268452
0.0263689
0.0224089
0.0134537
0.00580452
0.00363847
0.0041883
0.00475467
0.00263182
-0.004501
-0.00568447
-0.00582122
-0.00495786
-0.0035168
-0.00189373
-0.000289482
0.00126852
0.0028349
0.00447252
0.00620435
0.00802317
0.00989201
0.011781
0.0136548
0.0154952
0.0172694
0.0189593
0.0205353
0.021984
0.0232864
0.0244445
0.025454
0.0263278
0.0270874
0.0277369
0.0283222
0.0288359
0.0293366
0.0297964
0.0302535
0.0306829
0.031076
0.0314382
0.0317349
0.0319825
0.0322046
0.0324181
0.0325174
0.0326083
0.0323287
0.0315057
0.0301265
0.0283471
0.0268996
0.025699
0.0250031
0.0246508
0.0251939
0.0259976
0.0260184
0.0253958
0.024544
0.0211503
0.0140423
0.00748301
0.00507053
0.00480361
0.00427612
0.00206317
-0.000579355
-0.00164413
-0.00185003
-0.00121614
-8.58376e-05
0.00120959
0.00249443
0.00374072
0.00499226
0.00630519
0.00770183
0.00918046
0.0107127
0.0122756
0.0138408
0.0153947
0.016914
0.018382
0.0197775
0.021084
0.0222867
0.0233854
0.0243784
0.0252637
0.0260558
0.0267532
0.0273848
0.0279484
0.0284768
0.0289616
0.0294201
0.0298437
0.0302287
0.0305709
0.0308631
0.0310992
0.0312876
0.0314485
0.031473
0.0314421
0.0311242
0.0304248
0.0293414
0.027969
0.0267553
0.0257234
0.0250483
0.0246145
0.0247166
0.0250642
0.0248018
0.0239005
0.0227621
0.0198464
0.0142084
0.00864608
0.00607287
0.00520882
0.00394607
0.00166473
0.00289737
0.00195864
0.00171861
0.00217406
0.00304957
0.00407167
0.00508969
0.00607638
0.00706621
0.00810831
0.00922431
0.0104158
0.0116613
0.0129426
0.014238
0.0155368
0.0168233
0.0180824
0.0192988
0.0204559
0.0215474
0.0225611
0.0235009
0.0243591
0.0251435
0.025851
0.0264951
0.0270789
0.0276161
0.0281095
0.0285645
0.0289782
0.029352
0.0296743
0.029952
0.0301699
0.0303257
0.0304378
0.0304153
0.0303113
0.0299849
0.0293844
0.0285167
0.0274383
0.0264184
0.0255099
0.0248392
0.0243576
0.0241167
0.0240864
0.02362
0.0224934
0.0211386
0.0185998
0.0140941
0.00939572
0.00675952
0.00546329
0.00376148
0.0014247
0.00600029
0.00517883
0.00491812
0.00523034
0.00589766
0.00669494
0.00749299
0.00826526
0.00903903
0.00985644
0.0107387
0.011689
0.0126912
0.0137311
0.0147925
0.015866
0.0169418
0.0180076
0.0190521
0.0200603
0.021029
0.021944
0.0228074
0.0236114
0.0243582
0.0250454
0.0256754
0.0262538
0.0267828
0.027269
0.0277123
0.0281104
0.0284668
0.0287689
0.0290249
0.0292207
0.0293478
0.0294193
0.0293693
0.0292243
0.028909
0.0283875
0.0276757
0.0268067
0.0259363
0.0251281
0.0244475
0.0239172
0.0234461
0.0231001
0.022476
0.0212215
0.0197169
0.0174555
0.0138064
0.00982092
0.00720227
0.00561389
0.00366213
0.00129586
0.00875565
0.00803787
0.00777043
0.00797357
0.00847425
0.00908763
0.00970451
0.0103002
0.0108964
0.0115287
0.0122169
0.0129654
0.0137625
0.0145966
0.015456
0.0163329
0.0172205
0.01811
0.018994
0.0198593
0.0206996
0.0215068
0.0222797
0.0230118
0.0237005
0.0243443
0.0249396
0.0254917
0.0259973
0.0264623
0.0268842
0.0272604
0.0275933
0.0278732
0.0281038
0.0282765
0.0283782
0.0284167
0.0283515
0.0281858
0.0278897
0.0274317
0.0268307
0.0261111
0.0253478
0.0246211
0.0239243
0.0233373
0.0227273
0.022136
0.0213795
0.020081
0.0184925
0.0164254
0.0134175
0.0100042
0.00745582
0.00569192
0.00360664
0.00122962
0.0111892
0.0105702
0.0103087
0.0104287
0.0107948
0.0112574
0.0117256
0.0121766
0.0126277
0.0131082
0.0136363
0.0142168
0.0148418
0.0155014
0.0161874
0.0168939
0.017616
0.0183467
0.0190808
0.0198085
0.0205254
0.0212229
0.0218985
0.0225475
0.023165
0.0237497
0.0242952
0.0248052
0.0252742
0.0257064
0.0260973
0.0264453
0.0267494
0.027003
0.0272055
0.0273534
0.0274347
0.0274465
0.0273722
0.0271981
0.0269208
0.026514
0.0259892
0.0253766
0.0246872
0.0240174
0.0233165
0.0226707
0.0219778
0.0212173
0.0203443
0.019052
0.0174426
0.0155068
0.0129702
0.0100181
0.00756582
0.00570904
0.00356838
0.00119507
0.0133384
0.0128084
0.0125585
0.012615
0.0128733
0.0132133
0.0135599
0.0138929
0.0142258
0.0145826
0.0149794
0.0154208
0.0159016
0.0164142
0.0169523
0.0175118
0.0180897
0.0186801
0.0192785
0.0198789
0.0204785
0.021067
0.0216432
0.0222036
0.0227424
0.0232582
0.0237435
0.0242006
0.0246227
0.025013
0.0253653
0.0256788
0.0259502
0.0261725
0.026351
0.0264693
0.0265307
0.0265201
0.0264381
0.0262624
0.0259987
0.0256328
0.0251587
0.0246188
0.0239846
0.0233488
0.0226544
0.0219587
0.0212107
0.0203507
0.0193832
0.0181128
0.0165356
0.0146927
0.0124929
0.00991681
0.00756767
0.00567001
0.0035311
0.00117532
0.0152282
0.0147769
0.0145428
0.014552
0.0147246
0.0149652
0.0152128
0.01545
0.015687
0.0159433
0.0162327
0.0165598
0.0169207
0.0173098
0.0177226
0.0181563
0.0186087
0.0190765
0.0195551
0.0200391
0.0205255
0.0210122
0.0214921
0.0219638
0.0224211
0.022863
0.023282
0.0236793
0.0240478
0.0243893
0.0246976
0.0249713
0.0252072
0.0253986
0.0255436
0.025634
0.0256748
0.0256455
0.0255537
0.0253791
0.0251233
0.0247868
0.0243475
0.023854
0.0232623
0.022645
0.0219599
0.0212313
0.0204433
0.0195327
0.0185029
0.0172507
0.0157378
0.0139765