/*--------------------------------*- C++ -*----------------------------------*\
| =========                 |                                                 |
| \\      /  F ield         | OpenFOAM: The Open Source CFD Toolbox           |
|  \\    /   O peration     | Version:  2312                                  |
|   \\  /    A nd           | Website:  www.openfoam.com                      |
|    \\/     M anipulation  |                                                 |
\*---------------------------------------------------------------------------*/
FoamFile
{
    version     2.0;
    format      ascii;
    arch        "LSB;label=32;scalar=64";
    class       volScalarField;
    location    "49";
    object      p;
}
// * * * * * * * * * * * * * * * * * * * * * * * * * * * * * * * * * * * * * //

dimensions      [0 2 -2 0 0 0 0];

internalField   nonuniform List<scalar> 
5478
(
-0.357979
-0.356595
-0.35179
-0.344995
-0.338363
-0.332884
-0.329259
-0.327505
-0.32696
-0.326357
-0.324725
-0.31941
-0.311073
-0.296401
-0.277754
-0.364246
-0.36232
-0.357544
-0.351441
-0.344676
-0.337882
-0.331255
-0.324765
-0.318041
-0.310445
-0.301116
-0.289876
-0.276791
-0.261404
-0.246114
-0.375024
-0.371545
-0.366323
-0.359692
-0.351604
-0.341792
-0.330599
-0.318559
-0.305965
-0.292852
-0.27941
-0.265506
-0.251057
-0.235631
-0.219592
-0.389865
-0.384144
-0.377312
-0.368943
-0.357563
-0.343046
-0.326651
-0.309662
-0.292841
-0.276573
-0.26069
-0.245015
-0.229364
-0.213523
-0.198606
-0.409308
-0.400506
-0.391258
-0.379163
-0.362182
-0.341827
-0.320471
-0.299587
-0.279803
-0.261143
-0.2435
-0.226713
-0.21047
-0.194911
-0.179801
-0.434194
-0.420795
-0.408243
-0.389549
-0.364894
-0.338273
-0.312378
-0.288252
-0.266072
-0.24574
-0.226976
-0.209441
-0.192923
-0.177297
-0.162247
-0.464215
-0.444744
-0.425665
-0.39739
-0.364131
-0.331437
-0.301484
-0.274607
-0.250562
-0.228936
-0.209333
-0.191442
-0.174972
-0.159768
-0.145117
-0.493932
-0.469703
-0.43921
-0.399313
-0.357772
-0.319736
-0.286325
-0.257204
-0.231716
-0.209277
-0.189351
-0.171509
-0.155504
-0.140998
-0.12742
-0.376064
-0.37724
-0.377717
-0.378921
-0.381141
-0.384444
-0.388978
-0.394981
-0.40274
-0.41254
-0.424621
-0.439007
-0.455416
-0.473155
-0.489973
-0.37477
-0.374717
-0.374489
-0.37512
-0.376958
-0.380232
-0.385324
-0.392807
-0.403357
-0.417622
-0.436097
-0.458935
-0.485442
-0.515278
-0.543249
-0.373352
-0.372044
-0.371094
-0.370939
-0.372075
-0.374854
-0.37978
-0.387585
-0.399135
-0.415199
-0.436336
-0.463144
-0.493038
-0.528618
-0.560886
-0.370886
-0.368599
-0.366732
-0.365373
-0.365182
-0.366706
-0.370512
-0.377327
-0.387956
-0.40334
-0.423072
-0.449882
-0.477336
-0.510981
-0.540285
-0.367209
-0.36443
-0.361516
-0.35849
-0.356304
-0.355788
-0.3576
-0.362456
-0.370883
-0.38424
-0.401055
-0.42514
-0.449238
-0.478098
-0.500827
-0.362828
-0.360135
-0.356243
-0.351351
-0.346825
-0.343884
-0.343427
-0.346298
-0.353034
-0.364755
-0.380176
-0.400981
-0.421199
-0.44199
-0.454686
-0.358763
-0.356598
-0.35198
-0.345536
-0.339059
-0.334221
-0.332303
-0.33422
-0.340333
-0.350077
-0.362711
-0.376944
-0.389324
-0.399477
-0.399562
-0.356498
-0.354934
-0.350009
-0.342863
-0.335669
-0.330277
-0.327858
-0.328823
-0.332893
-0.338593
-0.345312
-0.34984
-0.351039
-0.347674
-0.337235
-0.5082
-0.517901
-0.512039
-0.480392
-0.422635
-0.351984
-0.286661
-0.243585
-0.232401
-0.265952
-0.332145
-0.374149
-0.34414
-0.265041
-0.194398
-0.165006
-0.164355
-0.194713
-0.265034
-0.316809
-0.291827
-0.226936
-0.171679
-0.135729
-0.119992
-0.118278
-0.111538
-0.0947066
-0.0757835
-0.0615281
-0.0508984
-0.0446594
-0.0416471
-0.0387114
-0.032003
-0.0224535
-0.0129813
-0.00373439
-0.574081
-0.592216
-0.584158
-0.543704
-0.470723
-0.381592
-0.299251
-0.241175
-0.215964
-0.230051
-0.279965
-0.325593
-0.310468
-0.244707
-0.187473
-0.17067
-0.180072
-0.222317
-0.299438
-0.35481
-0.326421
-0.248357
-0.177704
-0.130756
-0.105407
-0.0968327
-0.0909532
-0.080115
-0.0679873
-0.0587861
-0.0513085
-0.0470517
-0.0447395
-0.0411858
-0.0335538
-0.0232422
-0.0133584
-0.00389733
-0.594916
-0.617271
-0.61269
-0.569557
-0.489518
-0.390322
-0.296022
-0.226365
-0.188272
-0.183028
-0.217581
-0.262566
-0.26537
-0.21421
-0.172058
-0.168364
-0.186895
-0.23619
-0.318139
-0.377451
-0.350982
-0.265275
-0.181928
-0.125581
-0.0920954
-0.0766096
-0.0701939
-0.0655779
-0.0603265
-0.0560562
-0.0518
-0.0495072
-0.0477863
-0.0434251
-0.0349072
-0.0239089
-0.0136771
-0.00404597
-0.568934
-0.59435
-0.594904
-0.554564
-0.476601
-0.378477
-0.285495
-0.212207
-0.164301
-0.142026
-0.154004
-0.187522
-0.203758
-0.170216
-0.147084
-0.156295
-0.183149
-0.238291
-0.323259
-0.387588
-0.36552
-0.2773
-0.184387
-0.120928
-0.0810309
-0.0590576
-0.0506589
-0.0516027
-0.0529243
-0.0533219
-0.0522837
-0.0519469
-0.0507201
-0.0455165
-0.0360478
-0.0244431
-0.013931
-0.00417563
-0.512886
-0.536937
-0.541543
-0.50681
-0.438202
-0.350613
-0.266531
-0.199738
-0.149154
-0.115027
-0.105397
-0.120644
-0.129773
-0.115568
-0.112755
-0.137044
-0.17149
-0.227075
-0.316975
-0.386224
-0.373595
-0.285871
-0.185669
-0.116603
-0.0724374
-0.0452099
-0.0340376
-0.0390759
-0.045771
-0.0504666
-0.0527712
-0.0543614
-0.053481
-0.0474563
-0.0369721
-0.0248403
-0.0141191
-0.00428426
-0.451476
-0.46541
-0.470042
-0.441153
-0.386363
-0.316512
-0.24576
-0.187019
-0.139104
-0.101384
-0.0759909
-0.0730506
-0.0699866
-0.0651707
-0.0782684
-0.112802
-0.153112
-0.208967
-0.294114
-0.370556
-0.364436
-0.285799
-0.184998
-0.112579
-0.0661357
-0.0353052
-0.021202
-0.0286123
-0.0390645
-0.0476629
-0.0531696
-0.0566023
-0.0559576
-0.0490438
-0.0376531
-0.025098
-0.0142481
-0.00437448
-0.384196
-0.391421
-0.395595
-0.375623
-0.337244
-0.286249
-0.229257
-0.176203
-0.130651
-0.0914592
-0.0591826
-0.0418019
-0.0346391
-0.0299828
-0.052354
-0.0908663
-0.128926
-0.180738
-0.268943
-0.352827
-0.362461
-0.28632
-0.186319
-0.110871
-0.0628969
-0.0297929
-0.0125944
-0.0202124
-0.0322945
-0.0444757
-0.053447
-0.0587667
-0.0581764
-0.050338
-0.0381148
-0.0252404
-0.0143301
-0.00444967
-0.324116
-0.329111
-0.328639
-0.31549
-0.293212
-0.26177
-0.221961
-0.178777
-0.136052
-0.0960846
-0.061343
-0.0346599
-0.020182
-0.0146535
-0.0372627
-0.0779106
-0.111522
-0.152741
-0.232814
-0.311691
-0.328054
-0.273083
-0.184301
-0.10968
-0.0601378
-0.0257457
-0.00672286
-0.0162152
-0.026548
-0.0413653
-0.0534827
-0.0605687
-0.0598596
-0.0511825
-0.0383015
-0.0252132
-0.0143077
-0.00448534
-0.291055
-0.305464
-0.297742
-0.279425
-0.255811
-0.227273
-0.192654
-0.155337
-0.115981
-0.0777638
-0.0460541
-0.0186731
0.00169993
0.00668607
-0.011166
-0.0491948
-0.0788782
-0.113924
-0.196894
-0.283511
-0.318498
-0.252442
-0.165651
-0.0958828
-0.0502555
-0.0186311
-0.000202877
0.014502
-0.0195513
-0.0373704
-0.0529884
-0.0623812
-0.0617444
-0.0515678
-0.0379354
-0.0248198
-0.0140868
-0.00445116
-0.242185
-0.259284
-0.254311
-0.235802
-0.212857
-0.188057
-0.159353
-0.128411
-0.0951775
-0.0614434
-0.0337678
-0.00872547
0.013883
0.0196381
0.000829198
-0.0235603
-0.0455094
-0.0779187
-0.164932
-0.25866
-0.286929
-0.224079
-0.144097
-0.0816359
-0.040694
-0.0123318
0.00364984
-0.00808838
-0.0161659
-0.0346085
-0.0527846
-0.0639893
-0.0628774
-0.0511782
-0.0371626
-0.0242325
-0.0137711
-0.00439054
-0.203438
-0.220691
-0.218059
-0.202288
-0.181915
-0.160548
-0.136564
-0.110239
-0.0821778
-0.0507919
-0.0239026
-0.00120226
0.0230571
0.0362991
0.0277228
0.0120873
-0.00407949
-0.0441745
-0.135505
-0.226556
-0.248635
-0.192399
-0.121953
-0.067614
-0.0314281
-0.00597307
0.00804263
0.00755852
-0.0125436
-0.0326233
-0.0527454
-0.0651893
-0.0632975
-0.0502429
-0.0360535
-0.023477
-0.0133727
-0.0043136
-0.171269
-0.185209
-0.183784
-0.170786
-0.152852
-0.133623
-0.11261
-0.0897702
-0.0659328
-0.039198
-0.0149124
0.00529091
0.0288297
0.0411802
0.0398578
0.0414046
0.0371252
-0.0104235
-0.102641
-0.188048
-0.202097
-0.154851
-0.0970429
-0.0525148
-0.0214902
0.00117598
0.0120319
0.00637844
-0.00953819
-0.0306385
-0.0523203
-0.0658585
-0.062662
-0.0485881
-0.0345144
-0.0225013
-0.0128628
-0.00420429
-0.140546
-0.152514
-0.152316
-0.142057
-0.126936
-0.110588
-0.0931742
-0.0742836
-0.0546338
-0.0319501
-0.00989143
0.00865442
0.0295495
0.0443609
0.0465656
0.0558438
0.0605681
0.0155495
-0.0695342
-0.141428
-0.14999
-0.116416
-0.0737493
-0.0385086
-0.0120957
0.009413
0.0183751
0.00944723
-0.00573031
-0.0279436
-0.0512328
-0.0654308
-0.0607272
-0.0461114
-0.03255
-0.0213163
-0.0122507
-0.00406567
-0.113016
-0.123724
-0.124597
-0.116677
-0.104303
-0.0906059
-0.0761594
-0.0603838
-0.04364
-0.0245434
-0.00534144
0.0113789
0.0299291
0.0446698
0.0492749
0.0579965
0.0629765
0.0301505
-0.035316
-0.0906791
-0.100961
-0.0804582
-0.0505806
-0.0238764
-0.00239549
0.0174896
0.0275191
0.0208876
0.00317352
-0.0227385
-0.0494293
-0.063274
-0.0570899
-0.0427658
-0.0301717
-0.0199227
-0.0115342
-0.00389117
-0.0900666
-0.0993599
-0.100231
-0.0939772
-0.0840727
-0.0728692
-0.0610039
-0.0480093
-0.0341588
-0.0187233
-0.0024641
0.0123917
0.0278567
0.0415853
0.0478004
0.0539778
0.0574261
0.0382282
-0.00691593
-0.0479859
-0.0597666
-0.0502465
-0.0319447
-0.0120107
0.00652112
0.0255021
0.0395748
0.0401339
0.018138
-0.0148941
-0.0464465
-0.0585781
-0.0515878
-0.0386149
-0.0274441
-0.0183503
-0.0107288
-0.00368481
-0.069908
-0.0773847
-0.0785703
-0.0740105
-0.0663372
-0.0573256
-0.0476984
-0.037264
-0.0260208
-0.0136213
-0.000216946
0.012542
0.0251965
0.0368075
0.0435124
0.0479402
0.0500649
0.0391172
0.00998938
-0.0188408
-0.0315388
-0.0274517
-0.0156791
-0.000639797
0.0150557
0.0320903
0.0482299
0.052375
0.0301595
-0.00676662
-0.0402059
-0.0505584
-0.0443307
-0.0338438
-0.0244651
-0.0166349
-0.00984642
-0.00344759
-0.0517951
-0.0582796
-0.0599672
-0.056863
-0.0508157
-0.0435721
-0.0358732
-0.0276895
-0.0187999
-0.00902142
0.00161665
0.0121036
0.0222135
0.0315674
0.0378569
0.0412586
0.0422399
0.035742
0.0180131
-0.00108247
-0.0109488
-0.0099641
-0.00281759
0.00780395
0.0209876
0.0363948
0.0520255
0.0559882
0.0358389
0.00145077
-0.0290032
-0.0385526
-0.0361108
-0.0288079
-0.0213824
-0.0148334
-0.00890543
-0.00317965
-0.0361696
-0.0419114
-0.0437633
-0.0416569
-0.0371475
-0.0316399
-0.0257504
-0.0194125
-0.0124612
-0.0048858
0.00332362
0.0116077
0.0195209
0.0267743
0.0320915
0.0349044
0.0353947
0.0314765
0.0212408
0.0093545
0.00189469
0.00169909
0.00659475
0.0145455
0.0251663
0.038084
0.0507836
0.0532338
0.0369692
0.00865385
-0.0171152
-0.0276956
-0.0281998
-0.0238528
-0.0182937
-0.0129778
-0.00792205
-0.0028936
-0.0229352
-0.0277357
-0.029533
-0.028257
-0.0250315
-0.0209399
-0.0164979
-0.0117531
-0.00657525
-0.000904922
0.00522459
0.0114868
0.0174859
0.0229341
0.0271665
0.0295679
0.0300189
0.027816
0.0221865
0.0151988
0.0104987
0.010096
0.0134088
0.0191399
0.0271072
0.0370458
0.0463127
0.0474859
0.0350878
0.0132132
-0.00766286
-0.0183978
-0.021135
-0.0191181
-0.0152389
-0.0110974
-0.00691216
-0.00258926
-0.011274
-0.0153371
-0.0171681
-0.0166084
-0.0144296
-0.0114867
-0.0082519
-0.00482979
-0.00112196
0.00294783
0.00735842
0.0119106
0.0163075
0.0203066
0.0235316
0.0255558
0.0261526
0.0250406
0.0220384
0.0181747
0.015246
0.0151947
0.0175603
0.021682
0.0274195
0.0343836
0.0402063
0.0406206
0.0313269
0.0149636
-0.00136823
-0.0115186
-0.0151346
-0.0147833
-0.0123548
-0.00926966
-0.00590468
-0.00228441
-0.000898165
-0.00447124
-0.00634158
-0.00632119
-0.00497497
-0.00299424
-0.000783769
0.00155569
0.00409289
0.00688711
0.00992494
0.0130817
0.0161585
0.0189778
0.0213148
0.0229167
0.0236223
0.0232959
0.0219349
0.0200449
0.0185816
0.0186401
0.0202616
0.0231908
0.0270583
0.0313928
0.0347695
0.0342961
0.0273867
0.0154678
0.00300975
-0.00574094
-0.0100076
-0.0107809
-0.00949463
-0.00737486
-0.00483463
-0.00194459
0.00777352
0.00467241
0.00286996
0.00252598
0.00323006
0.00445145
0.00585814
0.00734474
0.00894226
0.0107052
0.0126397
0.0146795
0.0167057
0.0185942
0.020213
0.0214128
0.0220584
0.0220567
0.0214743
0.0206075
0.0200047
0.0201172
0.0212363
0.0231216
0.0255963
0.0281755
0.0298076
0.0287958
0.0235469
0.0148304
0.00547288
-0.00189283
-0.00589711
-0.00732508
-0.00702206
-0.00575819
-0.00395092
-0.00168923
0.0157425
0.0130535
0.0113112
0.0106711
0.0108553
0.0114651
0.0122267
0.013035
0.0139023
0.0148721
0.0159647
0.0171467
0.0183497
0.0194977
0.0205181
0.0213309
0.021857
0.0220479
0.0219324
0.0216183
0.0213692
0.0214982
0.0222078
0.0232775
0.0245194
0.025693
0.0260615
0.0246582
0.0206093
0.0143297
0.00748169
0.00150569
-0.00235244
-0.00411553
-0.00444956
-0.0038664
-0.00262707
-0.00126117
0.0221089
0.0197212
0.0180268
0.0171692
0.0169554
0.0170835
0.0173318
0.0176053
0.0179038
0.0182595
0.0186979
0.0192072
0.0197532
0.0202933
0.020787
0.0211908
0.021456
0.0215371
0.0214542
0.0212783
0.0211621
0.0212378
0.021575
0.0220813
0.0226374
0.0229933
0.0226842
0.0211366
0.0178984
0.0131849
0.00771307
0.00333175
0.000123864
-0.00164927
-0.00251945
-0.00261485
-0.00217628
-0.00115892
0.0288255
0.0267452
0.0251289
0.024116
0.023591
0.0233382
0.0231845
0.0230449
0.0229097
0.0228033
0.0227507
0.0227548
0.0228031
0.0228724
0.0229522
0.0230149
0.0230392
0.0229889
0.0228599
0.0226694
0.0224791
0.0223224
0.0222721
0.0222626
0.0221705
0.0217901
0.020919
0.0192484
0.016508
0.0128714
0.00900577
0.00541535
0.00259898
0.000796734
-4.44898e-05
-0.000687547
-0.00105394
-0.000700025
0.0328619
0.0309604
0.0294042
0.028296
0.0275512
0.0270119
0.0265475
0.0260876
0.0256205
0.0251607
0.0247317
0.0243425
0.0239905
0.0236687
0.0233724
0.0230913
0.0228189
0.0225237
0.0222135
0.0218826
0.0215647
0.0212726
0.0210079
0.0206984
0.0202798
0.0196376
0.0185904
0.0169828
0.0147696
0.0120287
0.00884502
0.00605746
0.00373661
0.00224495
0.000893439
9.65723e-05
-0.000269814
-0.000564404
0.0390287
0.0374421
0.0359721
0.0347498
0.0337693
0.0329493
0.0322024
0.0314692
0.0307306
0.0299922
0.0292717
0.0285767
0.0279132
0.0272751
0.0266718
0.0260959
0.0255492
0.025006
0.0244656
0.0239049
0.0233509
0.0227694
0.0221729
0.0215049
0.0207286
0.0197231
0.0184297
0.0167344
0.0145766
0.0121261
0.00970831
0.00749938
0.0055544
0.00421224
0.0032959
0.0021878
0.000867362
-1.22556e-05
0.0406668
0.0390992
0.0377109
0.0365423
0.0355446
0.0346364
0.0337521
0.0328539
0.0319363
0.0310082
0.0300872
0.0291815
0.0282985
0.0274347
0.0266014
0.0257936
0.025027
0.0242787
0.0235562
0.0228377
0.0221353
0.021431
0.0207179
0.0199307
0.0190511
0.0180002
0.0167188
0.0151735
0.0133748
0.0113972
0.00912251
0.0072514
0.00548685
0.00432858
0.00319284
0.00215187
0.00159153
0.000252817
0.0460513
0.0447889
0.0434779
0.0422022
0.0409939
0.0398458
0.0387352
0.0376368
0.0365377
0.0354333
0.0343316
0.0332343
0.0321515
0.0310757
0.0300226
0.0289839
0.0279827
0.0269976
0.0260399
0.0250813
0.0241421
0.0231905
0.0222434
0.0212105
0.0201216
0.0188759
0.0174926
0.0158626
0.0140466
0.0121595
0.0102181
0.00853016
0.00688721
0.0058029
0.00463466
0.00334901
0.00259304
0.000770985
0.0460154
0.0447522
0.0435378
0.0423687
0.0412293
0.0400956
0.0389579
0.0378054
0.0366414
0.0354672
0.0342876
0.0331112
0.0319403
0.0307785
0.0296366
0.0284932
0.02739
0.0262787
0.0252125
0.0241555
0.0230968
0.0220654
0.0210143
0.0199132
0.0188397
0.0175957
0.0162926
0.0148822
0.0131453
0.0115003
0.00958544
0.00801546
0.00624687
0.0052785
0.00435195
0.00272779
0.00272962
0.00125845
0.0488195
0.0476626
0.0464557
0.0452208
0.0439764
0.0427274
0.0414795
0.0402285
0.0389782
0.0377233
0.0364691
0.0352096
0.0339547
0.0326958
0.0314528
0.0302095
0.0289939
0.0277806
0.0265984
0.0254206
0.0242728
0.0231162
0.0219923
0.0208132
0.0196578
0.0183151
0.0169619
0.0154516
0.013783
0.0121374
0.0101631
0.00863173
0.00703581
0.00597325
0.00489732
0.00379278
0.00352396
0.0014526
-0.114462
-0.130126
-0.146657
-0.163282
-0.183168
-0.202455
-0.228037
-0.255598
-0.101445
-0.11446
-0.12864
-0.142683
-0.159579
-0.17529
-0.192526
-0.21254
-0.0880308
-0.0982881
-0.109263
-0.120559
-0.132959
-0.145045
-0.157793
-0.175102
-0.0751965
-0.0831891
-0.0915857
-0.100712
-0.110588
-0.120978
-0.133175
-0.148819
-0.0627651
-0.0690801
-0.0757535
-0.0834778
-0.0921836
-0.101512
-0.112011
-0.123477
-0.0512017
-0.0562493
-0.061612
-0.0680315
-0.0751907
-0.0824078
-0.0898214
-0.0985963
-0.0402991
-0.0442008
-0.0483488
-0.0532897
-0.0586805
-0.0640472
-0.0699193
-0.0778585
-0.0299665
-0.0328512
-0.0359226
-0.0396433
-0.043857
-0.0483956
-0.0537626
-0.0604863
-0.0202023
-0.0223123
-0.0246102
-0.0275971
-0.031189
-0.0351921
-0.0394217
-0.0443536
-0.0110363
-0.0126366
-0.0144481
-0.0169118
-0.0197859
-0.0227676
-0.0257924
-0.0298195
-0.00248309
-0.00372116
-0.00510627
-0.00695672
-0.00908065
-0.0114075
-0.0140697
-0.0176986
0.00553865
0.00458186
0.00354156
0.00209478
0.000299787
-0.00181724
-0.00416801
-0.00710265
0.0130593
0.0122407
0.0113497
0.0100986
0.0085585
0.00682351
0.00497968
0.0026012
0.0199711
0.0191983
0.018373
0.0172993
0.0160224
0.0145566
0.0129136
0.0107727
0.0265421
0.0257589
0.0249939
0.0240629
0.0229407
0.0216188
0.0201371
0.0182765
0.0321908
0.0314337
0.0306368
0.0296774
0.0285738
0.0273316
0.0259732
0.0243144
0.0382796
0.0373209
0.0364023
0.0354572
0.0344581
0.0333564
0.0321508
0.0307017
0.0424482
0.0415791
0.0406686
0.0396558
0.0385493
0.0373511
0.0360748
0.0346241
0.048005
0.046832
0.0456931
0.0445952
0.0435437
0.0425109
0.0414874
0.0403774
0.0506747
0.0496316
0.0485516
0.0474122
0.0462192
0.0449587
0.0436345
0.0422119
0.0551967
0.0538833
0.0525998
0.0513722
0.0502247
0.0491491
0.0481414
0.0471422
0.0563866
0.0551191
0.0538496
0.0525637
0.0512653
0.0499504
0.048632
0.0473128
0.0584668
0.0571162
0.0558126
0.0545551
0.0533459
0.0521767
0.0510446
0.0499311
0.0522974
0.0549402
0.0564862
0.0563481
0.0541966
0.050068
0.0438126
0.0347984
0.0219445
0.00375942
-0.0217763
-0.0573879
-0.107475
-0.175472
-0.233799
0.0296271
0.0296651
0.0270188
0.0226344
0.0166669
0.00875449
-0.00170665
-0.0155644
-0.0339707
-0.0584744
-0.0912144
-0.134919
-0.193406
-0.27156
-0.330532
0.0075515
0.00430459
-0.00232876
-0.0103572
-0.0196246
-0.03091
-0.0450981
-0.0631333
-0.0862065
-0.11593
-0.154517
-0.204852
-0.26973
-0.352677
-0.40927
-0.0158241
-0.0222219
-0.0316043
-0.0420908
-0.0539024
-0.0680536
-0.085438
-0.106923
-0.133612
-0.167328
-0.210201
-0.265155
-0.334087
-0.41591
-0.468238
-0.0403014
-0.0492095
-0.0601797
-0.0721644
-0.085882
-0.102303
-0.122148
-0.146259
-0.175407
-0.211807
-0.257349
-0.314574
-0.383907
-0.460901
-0.506866
-0.0643057
-0.0751829
-0.0871187
-0.1002
-0.115418
-0.133502
-0.154993
-0.180689
-0.211615
-0.249242
-0.295489
-0.352151
-0.418708
-0.487564
-0.526238
-0.0873806
-0.0990431
-0.111746
-0.125981
-0.142428
-0.161598
-0.184024
-0.210449
-0.241808
-0.279258
-0.324325
-0.378041
-0.438654
-0.496356
-0.528695
-0.108446
-0.120805
-0.134346
-0.149574
-0.166906
-0.18671
-0.209438
-0.23574
-0.266417
-0.3024
-0.344684
-0.393326
-0.444872
-0.489197
-0.517026
0.194046
0.208578
0.224875
0.243095
0.263233
0.285238
0.309073
0.33471
0.36205
0.390811
0.420392
0.449635
0.476563
0.497372
0.514411
0.18973
0.202901
0.217968
0.235123
0.254175
0.274898
0.297188
0.32101
0.346248
0.37256
0.399244
0.425024
0.447757
0.463742
0.476121
0.181373
0.192412
0.20571
0.221336
0.238759
0.257508
0.277376
0.298291
0.320101
0.342383
0.364304
0.384419
0.400303
0.408383
0.413509
0.16895
0.177385
0.188533
0.20214
0.217305
0.23337
0.250056
0.267224
0.28461
0.30164
0.317286
0.32988
0.336644
0.333935
0.32978
0.152633
0.15833
0.167327
0.178742
0.191149
0.203778
0.216401
0.228897
0.240905
0.251657
0.259877
0.263627
0.259758
0.244428
0.228651
0.132732
0.135349
0.142119
0.151295
0.16081
0.169753
0.177924
0.185202
0.191137
0.194794
0.194674
0.188572
0.172966
0.143877
0.115172
0.110004
0.110045
0.114644
0.120955
0.12687
0.131653
0.135142
0.137068
0.136755
0.133053
0.124262
0.107934
0.0802195
0.0372163
-0.0040901
0.0830628
0.0824241
0.0861487
0.0895739
0.0913995
0.0915335
0.0900036
0.0863704
0.0796959
0.0686127
0.0512213
0.0248524
-0.0146551
-0.0709073
-0.122816
0.0494784
0.0514506
0.0506817
0.0519591
0.0520033
0.0539514
0.0549207
0.0574184
0.0594669
0.0627518
0.0661306
0.0705607
0.0754685
0.0814261
0.0880696
0.0958234
0.104405
0.114175
0.124895
0.136876
0.149853
0.164057
0.179204
0.0517685
0.0538393
0.0528537
0.054151
0.0540055
0.0559605
0.0567478
0.0592005
0.061092
0.0642954
0.0675229
0.0718473
0.0766154
0.0824233
0.0889094
0.0964534
0.104747
0.114196
0.124463
0.135973
0.148323
0.161896
0.176152
0.0540614
0.056188
0.0550282
0.0562945
0.0559925
0.0579164
0.0585404
0.0609356
0.0626582
0.0657904
0.0688378
0.0730634
0.0776681
0.0833083
0.0895855
0.0968596
0.104704
0.113661
0.12321
0.13395
0.145226
0.157613
0.170123
0.0563566
0.0584929
0.0572041
0.0583845
0.0579568
0.0598088
0.060293
0.0626052
0.0641691
0.0672103
0.0700689
0.0741674
0.0785983
0.084055
0.0900346
0.0969725
0.104199
0.112517
0.121061
0.130684
0.140329
0.150894
0.160818
0.0586511
0.060755
0.0593724
0.0604173
0.0598929
0.0616263
0.0619965
0.0641947
0.0656074
0.068534
0.0712103
0.0751451
0.0793993
0.0845992
0.0901409
0.0965583
0.103
0.110436
0.117722
0.125938
0.133524
0.141753
0.148207
0.0609395
0.0629784
0.0615193
0.0623974
0.0617983
0.0633631
0.0636317
0.0656901
0.0669576
0.0697499
0.0722469
0.0760164
0.0801165
0.0851117
0.0901264
0.0960664
0.101594
0.108109
0.113722
0.120133
0.124901
0.130226
0.132575
0.0632158
0.0651661
0.0636366
0.0643293
0.0636644
0.065022
0.0651867
0.0670759
0.0682229
0.0708558
0.0731708
0.0767158
0.0805335
0.0850758
0.0894545
0.0945743
0.0991135
0.104292
0.108333
0.112622
0.114633
0.116273
0.113855
0.065474
0.0673212
0.0657154
0.0662017
0.0654623
0.0665875
0.066652
0.0683347
0.0693823
0.0718823
0.0740917
0.0775297
0.0811373
0.085409
0.0891631
0.0937053
0.09702
0.10097
0.10247
0.104238
0.10208
0.100421
0.092046
0.0676564
0.0694185
0.067756
0.068036
0.0672212
0.0680853
0.0680604
0.0694932
0.0704443
0.0726585
0.0746706
0.0777437
0.0807143
0.084306
0.0872127
0.0905659
0.0926915
0.0947244
0.0947327
0.0937944
0.0893725
0.0820141
0.0679963
0.0698807
0.071582
0.0698555
0.0699578
0.0690327
0.0696554
0.0695129
0.0706801
0.0714535
0.0732967
0.07499
0.0774892
0.0797899
0.0825274
0.0846125
0.0866719
0.0876878
0.0878948
0.0864874
0.0830593
0.0771188
0.0678934
0.0564643
0.0723228
0.0739513
0.0721611
0.0720648
0.0710128
0.0713591
0.0710757
0.0719054
0.0724519
0.073818
0.0751456
0.076938
0.0786319
0.0803635
0.081666
0.0823846
0.0823326
0.0809274
0.0782064
0.0732863
0.0666235
0.05777
0.0474597
0.0750172
0.076533
0.0747002
0.0743555
0.0731872
0.07319
0.0727657
0.0731768
0.0734815
0.0743076
0.0752347
0.0763013
0.0773597
0.0781018
0.0785682
0.0781015
0.076958
0.0743316
0.0705308
0.06497
0.0580148
0.0495177
0.0397977
0.0779999
0.0793398
0.077498
0.0768389
0.0755712
0.0751535
0.0745821
0.0745274
0.0745438
0.0748234
0.0752703
0.0756362
0.075998
0.0758325
0.075403
0.0739509
0.071787
0.0683173
0.0637665
0.0579206
0.050893
0.0427183
0.0335353
0.0813106
0.0823907
0.0805814
0.0795404
0.0781712
0.0772879
0.0765185
0.0759978
0.0756417
0.0753856
0.0752812
0.074966
0.0745934
0.073611
0.0722925
0.0700331
0.0670206
0.0629811
0.0579823
0.0520163
0.0451033
0.0373115
0.0286723
0.0849958
0.0857129
0.0839745
0.0825086
0.0809895
0.0796443
0.0785819
0.0776062
0.0768004
0.0760063
0.0753119
0.0743238
0.0732217
0.0715082
0.069387
0.0664732
0.0628434
0.0584267
0.0532193
0.0472813
0.0406269
0.033295
0.025239
0.0891063
0.0893528
0.0876917
0.0858027
0.0840426
0.0822506
0.0808018
0.0793701
0.0780548
0.0767075
0.0754145
0.073776
0.0719798
0.0696247
0.0668385
0.0634206
0.0593949
0.0547629
0.0495312
0.043757
0.0374658
0.0306606
0.0232398
0.0936947
0.0933907
0.0917497
0.0894636
0.0873713
0.0851325
0.0832182
0.081311
0.0794475
0.0775314
0.0756507
0.0734123
0.0709806
0.0680776
0.0647926
0.0610156
0.0567707
0.0520691
0.0469488
0.0414488
0.0355951
0.0293648
0.0226202
0.0988136
0.0979297
0.096175
0.0935356
0.0910285
0.0883191
0.0858759
0.0834604
0.0810298
0.0785436
0.0760946
0.0733228
0.0703404
0.0669959
0.0633641
0.0593618
0.0550325
0.0503851
0.0454742
0.0403264
0.0349582
0.0293263
0.0232714
0.104524
0.103068
0.101054
0.0980689
0.0950734
0.0918479
0.0888242
0.0858653
0.082865
0.0798241
0.0768323
0.0735951
0.0701714
0.0664914
0.0626329
0.0585251
0.0542166
0.0497165
0.0450812
0.0403293
0.0354655
0.0304293
0.0250482
0.110908
0.108924
0.106504
0.103124
0.0995713
0.0957685
0.0921187
0.088586
0.0850253
0.0814596
0.0779606
0.0743243
0.0705612
0.0666427
0.0626523
0.0585369
0.0543293
0.0500366
0.0457093
0.041363
0.0369926
0.0325276
0.027787
0.118087
0.115638
0.112666
0.108778
0.104592
0.100139
0.0958235
0.0916893
0.0875834
0.0835304
0.0795778
0.0755979
0.0715745
0.0674976
0.0634506
0.0593955
0.0553435
0.0512904
0.0472768
0.0433157
0.0393974
0.0354475
0.0312957
0.126238
0.123376
0.119709
0.115137
0.110207
0.105025
0.100007
0.0952497
0.0906135
0.086118
0.0817714
0.0774958
0.0732642
0.0690821
0.0650195
0.0610529
0.0571718
0.0533599
0.0496442
0.0460378
0.0425235
0.0390177
0.0353311
0.135623
0.132335
0.127832
0.122348
0.116507
0.110503
0.104743
0.0993347
0.0941743
0.0892743
0.0846051
0.0800983
0.0757228
0.0714908
0.0674573
0.0636031
0.0599
0.0563177
0.0528711
0.0495779
0.0464297
0.0433549
0.0401829
0.146627
0.142771
0.137224
0.130563
0.123653
0.116717
0.110134
0.103995
0.0982229
0.0928429
0.0878084
0.0830392
0.0784912
0.0741792
0.0701457
0.0663671
0.0627922
0.0593707
0.0561003
0.0529981
0.0500608
0.0472266
0.0443414
0.159858
0.155069
0.148001
0.139892
0.131834
0.124049
0.116751
0.109981
0.103668
0.0978532
0.0924929
0.087491
0.08278
0.0783773
0.0743295
0.0706186
0.0671753
0.0639265
0.0608489
0.0579579
0.0552586
0.052705
0.0501539
0.176293
0.169914
0.160314
0.149785
0.139855
0.130683
0.122328
0.114744
0.107813
0.101527
0.0958356
0.0906135
0.0857505
0.0812403
0.0771334
0.0734271
0.0700477
0.0669027
0.0639445
0.0611775
0.0586131
0.0562245
0.0539022
0.197001
0.188491
0.17654
0.164013
0.152378
0.141807
0.132283
0.123726
0.115987
0.109027
0.102807
0.0971973
0.0920537
0.0873318
0.0830674
0.0792691
0.0758671
0.0727566
0.0698634
0.0671699
0.0646776
0.0623689
0.0601552
0.223325
0.206831
0.188885
0.172929
0.159149
0.147165
0.136673
0.12743
0.119192
0.111822
0.105268
0.0994205
0.0941312
0.0893244
0.0850073
0.0811906
0.0778182
0.0747904
0.0720199
0.0694689
0.067128
0.0649864
0.062986
0.269308
0.241946
0.216153
0.194967
0.177632
0.162927
0.150185
0.139121
0.129468
0.120977
0.113512
0.106963
0.101184
0.0960523
0.0915045
0.0875051
0.0839872
0.0808561
0.0780161
0.0754072
0.0730004
0.0707844
0.0687262
0.304146
0.256029
0.222723
0.200237
0.182089
0.166385
0.15272
0.140893
0.130732
0.121927
0.114238
0.107552
0.101762
0.0967187
0.0922779
0.088348
0.0848705
0.0817914
0.0790418
0.0765544
0.0742805
0.0721979
0.0702929
0.462229
0.30862
0.257662
0.226938
0.201452
0.180331
0.162901
0.148555
0.13686
0.127238
0.119124
0.112147
0.106106
0.100858
0.0962576
0.0921805
0.0885356
0.0852698
0.0823446
0.0797194
0.0773504
0.0752003
0.0732421
0.0492917
0.0265844
0.00515048
-0.0153304
-0.0371235
-0.0585221
-0.0790064
-0.0975596
0.0430741
0.0218919
-0.0010371
-0.0199218
-0.0380054
-0.0555832
-0.0724627
-0.0873219
0.0362533
0.0180887
-0.0033823
-0.0203361
-0.0347241
-0.0488047
-0.063192
-0.0763044
0.0295899
0.0139775
-0.00506047
-0.0204883
-0.0324713
-0.043871
-0.0554275
-0.0659516
0.023903
0.0102185
-0.00559132
-0.0186409
-0.0284601
-0.0376319
-0.0468721
-0.055363
0.0195055
0.00742684
-0.00523987
-0.0157598
-0.0238254
-0.0313301
-0.0385954
-0.0453468
0.0165731
0.00599598
-0.00390537
-0.0120178
-0.0184935
-0.0245976
-0.0303608
-0.0357105
0.0151564
0.00598531
-0.00161503
-0.00765572
-0.0127428
-0.0176875
-0.0222941
-0.0264705
0.0151939
0.00730811
0.00155008
-0.00280601
-0.00669562
-0.0106487
-0.0143239
-0.0175704
0.0165467
0.00980183
0.00546581
0.00242188
-0.000468616
-0.00357921
-0.00650577
-0.00903708
0.0190283
0.0132631
0.0099843
0.0079183
0.00583071
0.00341287
0.00107385
-0.000931857
0.0224517
0.0175066
0.0149717
0.0135912
0.0121204
0.0102575
0.00838
0.00676471
0.0266323
0.0223876
0.0203409
0.0193952
0.018375
0.016955
0.0154384
0.0140944
0.0311447
0.027409
0.0257116
0.0250618
0.0243551
0.0232598
0.0220203
0.0208861
0.0366082
0.0333261
0.0316942
0.0310613
0.0305014
0.0296205
0.0285397
0.0274644
0.0411327
0.0382434
0.0367965
0.0362326
0.0357381
0.0349543
0.0339831
0.0330245
0.0473382
0.0446686
0.0430744
0.0422917
0.0417473
0.041078
0.0402307
0.0392663
0.0514176
0.0490701
0.0475531
0.0466685
0.0459549
0.0451486
0.0442452
0.0433265
0.0578298
0.055551
0.0538574
0.0527249
0.0518959
0.0510946
0.0501886
0.049145
0.0609626
0.0589521
0.0572796
0.0559517
0.054828
0.0537723
0.0527322
0.0516984
0.0666878
0.0646588
0.0628668
0.0613618
0.0600784
0.0588941
0.057716
0.0564849
0.0684691
0.0666511
0.0649165
0.0632935
0.0617795
0.0603486
0.0589833
0.0576656
0.0713628
0.0694836
0.0676688
0.0659435
0.0643141
0.0627676
0.0612881
0.0598569
-0.452542
-0.460971
-0.472194
-0.487611
-0.507837
-0.531683
-0.55479
-0.571328
-0.450403
-0.45704
-0.466334
-0.479109
-0.495006
-0.513149
-0.531123
-0.543414
-0.448983
-0.453366
-0.460039
-0.46946
-0.480973
-0.492198
-0.499462
-0.498768
-0.448262
-0.449589
-0.452264
-0.456073
-0.459879
-0.461413
-0.45776
-0.446291
-0.447245
-0.444146
-0.440848
-0.437148
-0.43243
-0.425441
-0.414122
-0.396262
-0.443512
-0.434649
-0.424572
-0.413763
-0.402432
-0.389711
-0.373705
-0.352226
-0.434519
-0.41963
-0.403652
-0.387782
-0.372378
-0.356316
-0.337649
-0.314296
-0.41872
-0.398964
-0.379183
-0.360702
-0.343326
-0.325611
-0.30564
-0.281516
-0.396098
-0.37368
-0.352606
-0.333545
-0.315657
-0.297425
-0.277078
-0.252964
-0.367953
-0.3455
-0.325251
-0.30695
-0.289501
-0.271512
-0.251452
-0.227899
-0.336496
-0.316093
-0.298059
-0.281295
-0.264881
-0.247653
-0.228337
-0.205741
-0.303491
-0.286786
-0.271632
-0.256806
-0.241781
-0.225648
-0.207422
-0.186086
-0.271054
-0.258442
-0.246291
-0.233598
-0.220117
-0.205367
-0.188469
-0.168653
-0.238913
-0.230984
-0.222158
-0.211728
-0.199982
-0.186696
-0.171247
-0.153075
-0.207634
-0.205452
-0.199454
-0.191467
-0.181137
-0.169186
-0.155242
-0.138922
-0.378563
-0.383338
-0.391011
-0.401366
-0.413322
-0.42531
-0.435963
-0.444793
-0.380842
-0.386446
-0.394615
-0.405087
-0.416695
-0.427835
-0.437178
-0.444386
-0.382052
-0.388431
-0.397364
-0.408451
-0.420415
-0.431308
-0.43964
-0.445116