/*--------------------------------*- C++ -*----------------------------------*\
| =========                 |                                                 |
| \\      /  F ield         | OpenFOAM: The Open Source CFD Toolbox           |
|  \\    /   O peration     | Version:  2512                                  |
|   \\  /    A nd           | Website:  www.openfoam.com                      |
|    \\/     M anipulation  |                                                 |
\*---------------------------------------------------------------------------*/
FoamFile
{
    version     2.0;
    format      ascii;
    arch        "LSB;label=32;scalar=64";
    class       volVectorField;
    location    "3";
    object      U;
}
// * * * * * * * * * * * * * * * * * * * * * * * * * * * * * * * * * * * * * //

dimensions      [0 1 -1 0 0 0 0];

internalField   nonuniform List<vector> 
13248
(
(-0.0364324 0.0312537 6.39869e-20)
(-0.0775969 0.0824593 0)
(-0.0664226 0.115428 -1.08075e-19)
(0.00332659 0.121033 1.00058e-19)
(0.134481 0.0984032 9.19913e-20)
(0.325078 0.0517364 0)
(0.560527 -0.0114313 0)
(0.808242 -0.0806289 2.26752e-19)
(1.02915 -0.145888 -2.00651e-21)
(1.19568 -0.200457 -1.91076e-19)
(1.29995 -0.241048 1.62713e-19)
(1.34992 -0.267405 -1.0045e-19)
(1.36079 -0.281414 0)
(1.34782 -0.2859 -1.29743e-19)
(1.32278 -0.283656 2.28342e-19)
(1.2932 -0.276933 -5.34299e-20)
(1.26322 -0.267347 -7.29458e-20)
(1.23483 -0.255981 6.80134e-20)
(1.20876 -0.243489 0)
(1.18513 -0.230662 0)
(1.16416 -0.216825 0)
(1.1442 -0.204836 0)
(1.12908 -0.189902 1.18365e-20)
(1.10861 -0.179631 3.33209e-20)
(-0.038265 0.0276454 -1.92294e-19)
(-0.0667014 0.0608795 1.19587e-19)
(-0.0323337 0.0751805 -1.56932e-21)
(0.0714996 0.0671598 -1.51694e-19)
(0.246385 0.0384036 -9.18625e-20)
(0.480613 -0.00536592 -8.65835e-20)
(0.741692 -0.0560652 -1.6051e-19)
(0.985509 -0.105814 1.47915e-19)
(1.17739 -0.14931 0)
(1.30387 -0.183875 3.65246e-21)
(1.37033 -0.208729 4.78429e-21)
(1.39193 -0.224535 9.56874e-20)
(1.38525 -0.232818 0)
(1.36354 -0.235342 0)
(1.33549 -0.233682 7.79526e-20)
(1.30594 -0.229054 -1.44892e-19)
(1.27725 -0.222327 7.31913e-20)
(1.25038 -0.214123 -6.82417e-20)
(1.22564 -0.204901 -2.6832e-20)
(1.20308 -0.195021 -4.15934e-20)
(1.18256 -0.184487 -1.39953e-20)
(1.16392 -0.174683 -2.43516e-20)
(1.14758 -0.161692 4.08216e-20)
(1.12964 -0.156928 1.04066e-20)
(-0.0387551 0.024946 0)
(-0.0476759 0.0438594 0)
(0.0209524 0.0435072 5.45035e-20)
(0.170541 0.0254015 4.96728e-20)
(0.394193 -0.00539094 -4.23722e-22)
(0.661921 -0.0418165 -8.88673e-20)
(0.925142 -0.0777239 0)
(1.14103 -0.109523 -7.40015e-20)
(1.28976 -0.135797 6.5655e-20)
(1.37376 -0.15617 -1.84068e-21)
(1.40789 -0.170852 -1.02702e-19)
(1.40964 -0.180486 -8.4872e-20)
(1.39341 -0.185918 6.63999e-21)
(1.36881 -0.18799 -5.52947e-20)
(1.3413 -0.187412 1.41654e-19)
(1.3136 -0.18475 0)
(1.28697 -0.180451 -7.31522e-20)
(1.26192 -0.174896 3.59361e-20)
(1.23864 -0.168356 2.68036e-20)
(1.21712 -0.161171 0)
(1.19753 -0.153361 1.84948e-20)
(1.17926 -0.145565 -5.92502e-20)
(1.16319 -0.136878 5.53296e-20)
(1.14629 -0.131961 2.95441e-20)
(-0.0358403 0.0212674 -6.73461e-20)
(-0.0173302 0.0279393 -6.42635e-20)
(0.0953267 0.0173191 5.68107e-20)
(0.297511 -0.00534803 0)
(0.564955 -0.0323469 0)
(0.846596 -0.0577838 -1.88444e-21)
(1.08934 -0.0794636 0)
(1.26416 -0.0974517 -2.15972e-19)
(1.36895 -0.112231 1.93723e-19)
(1.41768 -0.124064 -2.31819e-19)
(1.42881 -0.133105 5.04015e-20)
(1.4182 -0.139539 0)
(1.39682 -0.143621 7.03631e-20)
(1.37108 -0.145638 -1.25446e-19)
(1.34433 -0.145874 2.94375e-20)
(1.31812 -0.144592 6.37996e-20)
(1.29309 -0.14204 -7.49258e-21)
(1.26953 -0.138438 -6.78862e-20)
(1.24752 -0.134002 0)
(1.22713 -0.128959 0)
(1.20827 -0.123239 -1.93473e-20)
(1.19086 -0.117898 1.62882e-20)
(1.17518 -0.110538 5.12671e-20)
(1.15898 -0.10834 -4.78729e-20)
(-0.0280417 0.0159963 -7.14047e-20)
(0.0266037 0.0117461 -6.57503e-20)
(0.190906 -0.00441699 1.81229e-19)
(0.445762 -0.0250018 -1.08603e-19)
(0.742349 -0.0427085 1.00588e-19)
(1.01582 -0.0556937 1.7931e-19)
(1.22277 -0.0655766 -1.24021e-19)
(1.35318 -0.0740369 -1.41414e-19)
(1.41919 -0.0817538 7.42857e-21)
(1.44073 -0.0887311 1.71778e-19)
(1.43603 -0.0947524 0)
(1.41805 -0.099631 4.12563e-20)
(1.39449 -0.103277 0)
(1.36926 -0.105676 -5.87623e-20)
(1.3441 -0.106863 8.11019e-20)
(1.31973 -0.106916 3.14218e-22)
(1.29644 -0.105944 -1.88101e-20)
(1.27437 -0.104086 3.21736e-20)
(1.25361 -0.101502 2.71362e-20)
(1.2342 -0.0982935 -2.30038e-20)
(1.21617 -0.094708 1.93379e-20)
(1.19944 -0.090774 -1.62802e-20)
(1.18397 -0.0861711 0)
(1.16878 -0.0848503 -1.17187e-20)
(-0.014539 0.00953982 7.13865e-20)
(0.0853376 -0.00374015 6.96799e-20)
(0.305897 -0.0199412 -6.096e-20)
(0.605642 -0.0320413 1.12448e-19)
(0.911358 -0.0373427 -1.04152e-19)
(1.15891 -0.0390544 9.07954e-20)
(1.3237 -0.0406425 -4.31952e-20)
(1.41326 -0.0435543 1.06716e-19)
(1.44875 -0.0477669 -6.53177e-20)
(1.45156 -0.0526658 1.05939e-19)
(1.43744 -0.0575971 -2.36846e-19)
(1.41589 -0.0620831 8.41618e-20)
(1.39173 -0.0658434 -6.73797e-20)
(1.36716 -0.0687438 6.2726e-20)
(1.34309 -0.070743 4.92756e-20)
(1.31989 -0.071859 3.99657e-20)
(1.29773 -0.0721515 -1.10523e-19)
(1.27672 -0.0717112 6.67577e-20)
(1.2569 -0.0706325 -2.71311e-20)
(1.23834 -0.0690646 6.69237e-20)
(1.22104 -0.0670072 -2.1555e-20)
(1.20493 -0.0647892 -4.80315e-20)
(1.19 -0.0618384 4.34268e-20)
(1.17565 -0.0614061 1.17151e-20)
(0.0051874 0.00283127 0)
(0.158873 -0.0161646 1.06562e-21)
(0.435846 -0.0262918 1.29744e-19)
(0.765897 -0.0252586 -1.19184e-19)
(1.0614 -0.0180835 -1.04122e-19)
(1.27256 -0.0113671 1.88521e-19)
(1.39558 -0.00814231 -8.53434e-20)
(1.45096 -0.00855595 1.06141e-19)
(1.46384 -0.0115353 -4.46471e-21)
(1.45414 -0.0158573 -5.62115e-20)
(1.43427 -0.0206114 1.13648e-19)
(1.41076 -0.0252464 -1.63635e-19)
(1.38652 -0.0294644 0)
(1.36272 -0.0331074 -2.91812e-20)
(1.33976 -0.0360888 -7.3397e-20)
(1.31777 -0.0383721 2.33631e-20)
(1.29677 -0.0399659 1.49972e-21)
(1.27681 -0.0409134 -4.28276e-20)
(1.25792 -0.0413004 4.8794e-21)
(1.24016 -0.0411783 4.78051e-20)
(1.22352 -0.0406908 -1.944e-20)
(1.20801 -0.0398145 -6.78156e-21)
(1.1935 -0.0386762 2.23404e-20)
(1.17974 -0.03903 0)
(0.0313934 -0.00299756 0)
(0.245816 -0.0226827 3.58342e-20)
(0.57372 -0.0207974 -1.69639e-19)
(0.916335 -0.00478169 6.01686e-20)
(1.18716 0.0126344 -5.57339e-20)
(1.35821 0.0243828 -4.82793e-20)
(1.44382 0.0293953 -8.06645e-20)
(1.47241 0.0292174 4.12818e-20)
(1.4695 0.0259027 3.37036e-20)
(1.45201 0.0210709 0)
(1.4291 0.0157208 6.72647e-20)
(1.40488 0.0103993 -9.65177e-20)
(1.38093 0.00539224 7.04332e-20)
(1.35779 0.000852081 2.91933e-20)
(1.33561 -0.00313499 -2.24929e-20)
(1.31441 -0.00652686 -1.72434e-20)
(1.29421 -0.00931775 -1.5079e-20)
(1.27502 -0.0115374 4.78767e-20)
(1.25686 -0.0132273 0)
(1.23977 -0.0144675 2.14754e-20)
(1.22376 -0.0152749 1.65133e-20)
(1.20879 -0.0157663 -4.23074e-20)
(1.19481 -0.0160453 -2.65028e-20)
(1.18167 -0.0168703 2.4636e-20)
(0.0638726 -0.00681126 -4.20562e-20)
(0.343039 -0.0207311 -1.75727e-21)
(0.711243 -0.00217939 3.47105e-20)
(1.04984 0.0280115 9.41769e-20)
(1.28749 0.0523255 2.5025e-20)
(1.41944 0.0658946 -4.88703e-20)
(1.47371 0.0703431 4.3523e-20)
(1.4823 0.0688935 -3.60233e-20)
(1.46872 0.0643239 6.15599e-20)
(1.44644 0.0584065 2.45432e-20)
(1.42176 0.0520728 -6.94894e-20)
(1.39716 0.0457783 1.95072e-20)
(1.37345 0.0397465 3.17499e-20)
(1.35085 0.0341008 -1.56046e-20)
(1.32939 0.0289266 0)
(1.309 0.0242811 2.09149e-20)
(1.28963 0.0201891 3.3854e-20)
(1.27124 0.016649 4.74898e-21)
(1.25383 0.0136261 -2.69464e-20)
(1.23743 0.0110912 1.07943e-20)
(1.22205 0.00897623 0)
(1.20767 0.0072229 -7.82786e-21)
(1.19422 0.00569218 -6.83804e-21)
(1.18154 0.00429683 0)
(0.101923 -0.00749932 0)
(0.445922 -0.00839135 2.04878e-20)
(0.840769 0.0293748 3.73617e-20)
(1.16255 0.0711467 -9.57234e-20)
(1.36361 0.0988158 3.05811e-20)
(1.46026 0.111497 0)
(1.48951 0.113672 4.02282e-20)
(1.48372 0.109949 -5.50888e-20)
(1.46323 0.103484 -3.0643e-20)
(1.43817 0.0959849 1.33417e-20)
(1.41267 0.088242 -2.01476e-20)
(1.38808 0.0806252 4.88678e-20)
(1.36473 0.0733158 2.30276e-20)
(1.34264 0.0664118 -1.63617e-20)
(1.32177 0.0599817 -2.05592e-21)
(1.30202 0.0540711 -4.02739e-20)
(1.28332 0.0487025 1.7945e-20)
(1.2656 0.0438787 -2.67283e-22)
(1.24887 0.0395908 0)
(1.23315 0.0358067 -1.08048e-20)
(1.21843 0.0324946 0)
(1.20468 0.029558 2.25764e-20)
(1.1918 0.0269984 -2.62788e-20)
(1.17963 0.0250634 1.16871e-20)
(0.144296 -0.00405254 -1.16483e-20)
(0.548997 0.015325 -5.1943e-20)
(0.956474 0.0726269 5.80006e-20)
(1.25295 0.122513 3.22896e-20)
(1.41765 0.150334 -1.55097e-20)
(1.48402 0.160031 2.35205e-20)
(1.49405 0.158771 -1.14891e-20)
(1.47827 0.152149 1.77698e-20)
(1.45342 0.143377 0)
(1.42679 0.13397 3.7222e-20)
(1.40089 0.124546 -1.94093e-21)
(1.3764 0.115378 -2.85906e-20)
(1.35339 0.106594 1.17796e-20)
(1.3318 0.0982605 -1.27674e-20)
(1.31155 0.0904287 -4.52071e-21)
(1.2925 0.0831394 5.42041e-21)
(1.27455 0.0764145 -4.00859e-21)
(1.2576 0.0702644 -2.06105e-20)
(1.24164 0.0646858 1.25359e-20)
(1.22667 0.0596636 2.4687e-21)
(1.21269 0.0551487 2.09903e-21)
(1.19964 0.0510882 1.78366e-21)
(1.1874 0.0475909 0)
(1.17578 0.0448946 0)
(0.189352 0.00433078 1.16624e-20)
(0.646931 0.0504107 -1.08119e-20)
(1.05464 0.125866 -1.92915e-20)
(1.32106 0.180211 0)
(1.45183 0.205485 -7.52504e-21)
(1.49323 0.210642 -6.39821e-21)
(1.48896 0.205156 -1.03466e-20)
(1.46649 0.195174 0)
(1.43909 0.183721 0)
(1.41176 0.172056 0)
(1.38592 0.160632 0)
(1.36179 0.149647 0)
(1.3393 0.139197 -7.42351e-21)
(1.31832 0.129311 3.34126e-21)
(1.29872 0.120014 5.54535e-21)
(1.28038 0.111326 2.51994e-21)
(1.26318 0.103254 6.06351e-21)
(1.24702 0.0957993 0)
(1.23186 0.0889616 -1.34854e-21)
(1.21771 0.0827168 -1.2144e-21)
(1.20453 0.0770222 -2.1023e-21)
(1.19226 0.0718493 -1.78644e-21)
(1.18073 0.0673849 0)
(1.16984 0.0637562 1.18527e-21)
(-0.0232489 0.00914447 4.63128e-21)
(-0.0917377 0.0141756 -4.58602e-21)
(-0.185444 0.0127606 -8.81237e-21)
(-0.269752 0.00943432 0)
(-0.338528 0.00569983 -1.23365e-20)
(-0.391239 0.00183666 3.80346e-21)
(-0.426091 -0.00211897 -7.339e-21)
(-0.44178 -0.00612512 0)
(-0.437701 -0.0100545 0)
(-0.41429 -0.0137166 0)
(-0.372734 -0.0170046 0)
(-0.314932 -0.0197318 0)
(-0.243663 -0.0217169 -4.6354e-22)
(-0.162219 -0.0228316 -1.32967e-21)
(-0.0739829 -0.0230317 8.32801e-22)
(0.0171253 -0.0225025 -5.12822e-22)
(0.108017 -0.0210744 -5.6217e-22)
(0.196658 -0.0190669 0)
(0.280838 -0.0165666 -8.78823e-22)
(0.359395 -0.0138767 2.48629e-21)
(0.43128 -0.0107963 1.64976e-21)
(0.496612 -0.00810862 1.56537e-21)
(0.55472 -0.0046605 0)
(0.606877 -0.00268906 0)
(-0.0277194 0.0689269 -1.42641e-20)
(-0.0964953 0.114806 2.29874e-20)
(-0.186572 0.117063 -8.79068e-21)
(-0.266724 0.102956 -1.76786e-20)
(-0.331358 0.0826814 2.46068e-20)
(-0.379924 0.0587929 -1.60439e-20)
(-0.410597 0.0319092 2.22132e-20)
(-0.421988 0.00261992 1.42476e-20)
(-0.41342 -0.0280873 0)
(-0.385572 -0.0587466 -7.88759e-21)
(-0.339768 -0.0878922 2.9178e-21)
(-0.278017 -0.113757 6.81369e-21)
(-0.203324 -0.134809 6.40533e-21)
(-0.119267 -0.150035 3.44122e-21)
(-0.0295819 -0.159029 -3.052e-21)
(0.061956 -0.16225 -7.45097e-22)
(0.152231 -0.16011 -1.19024e-21)
(0.239122 -0.153868 3.92043e-21)
(0.320631 -0.144345 0)
(0.396027 -0.133159 -1.66408e-21)
(0.464156 -0.120044 -1.64735e-21)
(0.525932 -0.107841 -1.56309e-21)
(0.579977 -0.0933324 0)
(0.629208 -0.0832986 0)
(-0.0358732 0.120373 0)
(-0.103869 0.205747 5.16954e-20)
(-0.184864 0.214335 -1.90576e-20)
(-0.254994 0.192001 1.85181e-20)
(-0.309778 0.157158 -5.43186e-20)
(-0.348624 0.114944 0)
(-0.369671 0.0667094 -3.23349e-20)
(-0.371492 0.0135758 1.5783e-20)
(-0.35326 -0.0427218 -2.82687e-20)
(-0.315911 -0.0995033 1.37857e-20)
(-0.260971 -0.153747 5.36487e-20)
(-0.190882 -0.201935 -2.47266e-20)
(-0.109324 -0.240872 -2.1615e-20)
(-0.0203544 -0.268915 -2.21314e-21)
(0.0716081 -0.284915 4.71151e-21)
(0.162797 -0.290034 5.44238e-21)
(0.250245 -0.285604 -7.90439e-22)
(0.332084 -0.27391 -1.14198e-21)
(0.406729 -0.256683 0)
(0.474344 -0.236781 4.07409e-21)
(0.533783 -0.214112 0)
(0.587328 -0.193005 5.82251e-21)
(0.632604 -0.168942 -1.90978e-20)
(0.675158 -0.151627 2.9211e-22)
(-0.0456496 0.1575 0)
(-0.112104 0.279337 2.30052e-21)
(-0.179715 0.298576 2.24375e-20)
(-0.2348 0.272485 -2.23637e-20)
(-0.274633 0.226562 1.73862e-20)
(-0.298666 0.169003 1.16298e-19)
(-0.305067 0.102207 -3.58222e-20)
(-0.292493 0.0278346 -3.56307e-20)
(-0.260158 -0.051569 6.05481e-20)
(-0.209052 -0.132856 -7.41804e-20)
(-0.141368 -0.210663 2.62144e-20)
(-0.0599835 -0.279654 1.92114e-20)
(0.02984 -0.334529 0)
(0.123744 -0.372628 7.76568e-21)
(0.216847 -0.393379 0)
(0.304672 -0.39828 8.38118e-21)
(0.385364 -0.389803 -2.04012e-21)
(0.457832 -0.371485 3.60513e-21)
(0.521212 -0.346199 -2.37743e-21)
(0.576843 -0.317834 -4.0701e-21)
(0.623835 -0.286743 0)
(0.665882 -0.257988 1.2123e-20)
(0.699745 -0.226603 -4.17585e-21)
(0.733413 -0.203377 0)
(-0.0544978 0.17649 0)
(-0.119127 0.329223 -7.38575e-20)
(-0.170823 0.363966 -2.48526e-20)
(-0.207237 0.34007 -4.60576e-20)
(-0.228042 0.28792 4.2679e-20)
(-0.23296 0.219183 -4.0138e-20)
(-0.220336 0.137774 8.08033e-20)
(-0.188828 0.0459182 3.54689e-20)
(-0.138861 -0.0535657 -1.01804e-19)
(-0.0709217 -0.156108 5.83249e-20)
(0.0123546 -0.254386 -7.5103e-20)
(0.106569 -0.3407 1.48721e-19)
(0.205728 -0.408492 -7.18733e-20)
(0.302466 -0.453912 2.66294e-20)
(0.392294 -0.47703 4.67392e-20)
(0.472278 -0.479719 -1.72871e-20)
(0.541236 -0.466043 -1.46639e-20)
(0.599494 -0.440896 -4.08729e-21)
(0.647455 -0.408363 0)
(0.687725 -0.372984 2.6581e-21)
(0.7199 -0.335672 5.51094e-21)
(0.748764 -0.30148 -6.14941e-21)
(0.770422 -0.265618 -1.10215e-20)
(0.794568 -0.238498 8.97889e-21)
(-0.0600941 0.176458 0)
(-0.123097 0.350992 -1.09977e-19)
(-0.158741 0.405236 -3.98333e-21)
(-0.174766 0.389909 9.55714e-20)
(-0.174083 0.337253 0)
(-0.15699 0.262379 0)
(-0.122439 0.171113 0)
(-0.0694504 0.0663626 -3.98909e-20)
(0.00161951 -0.0486243 1.52019e-21)
(0.08983 -0.167255 6.95521e-20)
(0.191504 -0.281282 -7.77291e-20)
(0.299158 -0.380546 6.96242e-21)
(0.404776 -0.457305 0)
(0.500958 -0.506979 -2.66132e-20)
(0.58315 -0.529561 1.82901e-20)
(0.649961 -0.528628 -5.10609e-20)
(0.702254 -0.509781 3.5067e-20)
(0.742283 -0.479071 -3.4008e-22)
(0.772098 -0.441593 -7.88056e-21)
(0.795369 -0.401978 -9.13101e-21)
(0.812209 -0.361647 -2.47391e-21)
(0.827983 -0.324959 -3.47123e-21)
(0.838143 -0.28774 1.4765e-21)
(0.853416 -0.259013 0)
(-0.0611446 0.160042 6.17448e-20)
(-0.12265 0.343903 5.55682e-20)
(-0.144572 0.418138 -5.43157e-20)
(-0.141502 0.416542 -1.03915e-19)
(-0.118991 0.369334 9.62819e-20)
(-0.0788979 0.293823 -9.6735e-20)
(-0.0211692 0.197909 1.35753e-19)
(0.0547804 0.0854621 -4.17677e-20)
(0.149203 -0.0391026 8.09108e-20)
(0.260157 -0.1684 0)
(0.38113 -0.292561 6.07254e-20)
(0.501809 -0.399662 -1.17588e-19)
(0.611451 -0.480036 7.98147e-20)
(0.702404 -0.52936 -7.42872e-20)
(0.771788 -0.548896 0)
(0.820842 -0.543799 3.5984e-20)
(0.853201 -0.520998 4.73592e-20)
(0.873254 -0.48724 -4.15036e-20)
(0.884705 -0.448111 -1.37101e-20)
(0.89173 -0.4077 -2.82096e-21)
(0.894805 -0.367845 1.37507e-20)
(0.899222 -0.331569 2.69098e-21)
(0.899708 -0.295837 -3.59099e-21)
(0.907608 -0.267426 1.19362e-21)
(-0.0576322 0.132888 -6.17593e-20)
(-0.117862 0.311451 1.78354e-19)
(-0.130128 0.40092 -5.55253e-20)
(-0.111566 0.415188 1.0581e-19)
(-0.0696239 0.378079 -9.80321e-20)
(-0.00783387 0.307028 -2.59145e-21)
(0.0726423 0.211426 4.48288e-20)
(0.172519 0.0963442 1.77699e-19)
(0.292319 -0.0325401 -6.28833e-22)
(0.428254 -0.167007 -7.72719e-20)
(0.569343 -0.294709 0)
(0.700658 -0.40207 -5.11669e-20)
(0.809523 -0.47943 9.9007e-20)
(0.889701 -0.523802 6.64902e-20)
(0.941661 -0.538217 -3.33092e-20)
(0.970288 -0.529267 2.15157e-21)
(0.982184 -0.504572 -1.40573e-20)
(0.983508 -0.470861 2.39709e-20)
(0.979065 -0.433453 1.37129e-20)
(0.972722 -0.395443 -9.26486e-21)
(0.965156 -0.358971 9.22925e-21)
(0.960818 -0.325268 -6.58288e-21)
(0.953977 -0.29314 0)
(0.956133 -0.266203 -1.19449e-21)
(-0.051022 0.102011 6.41943e-20)
(-0.109715 0.261775 -5.96608e-20)
(-0.117087 0.357118 5.53978e-20)
(-0.0880772 0.384321 0)
(-0.0307508 0.358651 0)
(0.0502558 0.295278 9.40145e-20)
(0.153039 0.20366 -8.93405e-20)
(0.278799 0.0902342 8.75278e-20)
(0.427412 -0.0381917 -4.06295e-19)
(0.590263 -0.171067 1.87877e-21)
(0.749317 -0.293854 6.58137e-20)
(0.885272 -0.392951 0)
(0.9861 -0.460544 -8.75435e-20)
(1.04963 -0.496066 1.50731e-19)
(1.08117 -0.504353 -9.30991e-20)
(1.08948 -0.49273 -1.0367e-19)
(1.0834 -0.468534 1.43818e-20)
(1.06987 -0.43771 6.09351e-20)
(1.05382 -0.404565 0)
(1.03808 -0.371204 0)
(1.0235 -0.339794 -9.2344e-21)
(1.01294 -0.309836 6.58665e-21)
(1.00107 -0.282498 -2.06945e-20)
(0.998908 -0.257469 1.93073e-20)
(-0.0437023 0.0737972 0)
(-0.100191 0.205983 0)
(-0.106251 0.295783 -1.66119e-19)
(-0.0713157 0.328615 5.00406e-20)
(-0.0023407 0.311627 -1.90056e-21)
(0.0962367 0.256063 8.72978e-20)
(0.223544 0.170599 0)
(0.380469 0.062259 -8.22528e-20)
(0.561788 -0.0602349 8.06372e-20)
(0.749561 -0.183206 -1.40099e-19)
(0.918328 -0.29175 3.44379e-21)
(1.04821 -0.374694 1.05723e-19)
(1.13215 -0.427628 -1.15172e-20)
(1.17442 -0.45256 5.86898e-20)
(1.1854 -0.455329 -1.00154e-19)
(1.17649 -0.442876 0)
(1.15723 -0.421312 6.72431e-20)
(1.13406 -0.395259 -8.9812e-20)
(1.11105 -0.367647 2.29707e-20)
(1.08978 -0.340007 0)
(1.07131 -0.314001 1.40135e-20)
(1.05644 -0.288256 3.66474e-20)
(1.04154 -0.266087 -3.42223e-20)
(1.0361 -0.24282 -2.84235e-20)
(-0.0381169 0.0522679 1.91733e-19)
(-0.09152 0.154247 -2.4003e-19)
(-0.0969113 0.228831 1.07601e-21)
(-0.0571647 0.258471 5.02854e-20)
(0.023713 0.24467 -9.27865e-20)
(0.143293 0.194577 -9.01236e-20)
(0.301564 0.115597 1.71211e-19)
(0.495256 0.015472 6.67062e-21)
(0.707446 -0.093891 -1.50756e-19)
(0.908913 -0.198037 2.76234e-19)
(1.07189 -0.284765 -4.27854e-21)
(1.18255 -0.34711 -1.11373e-19)
(1.24238 -0.384146 0)
(1.26227 -0.399446 0)
(1.25584 -0.398588 -2.98254e-20)
(1.23496 -0.387137 -4.76057e-20)
(1.20806 -0.369505 -7.05707e-20)
(1.18016 -0.348858 6.57984e-20)
(1.15401 -0.326904 -2.29969e-20)
(1.13025 -0.305027 3.50543e-20)
(1.10999 -0.283798 -1.91269e-20)
(1.09204 -0.262587 1.76495e-20)
(1.076 -0.245021 -5.03948e-20)
(1.06728 -0.223167 6.58173e-21)
(-0.0357581 0.0385246 6.39913e-20)
(-0.0845903 0.112646 0)
(-0.0857974 0.166728 1.08212e-19)
(-0.0365883 0.186137 -1.00186e-19)
(0.0630362 0.169746 9.29121e-20)
(0.213176 0.122144 0)
(0.410456 0.0499474 0)
(0.639034 -0.0372166 -7.7005e-20)
(0.867626 -0.126355 5.53946e-22)
(1.06213 -0.20587 6.60412e-20)
(1.20154 -0.268173 -5.32023e-20)
(1.28301 -0.310413 1.05843e-19)
(1.3166 -0.333876 0)
(1.31721 -0.342266 1.33997e-19)
(1.29875 -0.339919 -2.34413e-19)
(1.2714 -0.330637 1.49804e-19)
(1.2415 -0.31723 7.22957e-20)
(1.21238 -0.301626 -6.74073e-20)
(1.1856 -0.284802 0)
(1.16135 -0.267983 0)
(1.14044 -0.25066 0)
(1.12065 -0.234321 0)
(1.105 -0.219308 9.85009e-21)
(1.09163 -0.20008 -3.08316e-20)
(0.660147 0.00224259 8.16572e-22)
(0.711003 0.00715399 -8.22e-22)
(0.752552 0.0109819 2.10791e-23)
(0.786289 0.0139083 0)
(0.813866 0.0161467 5.03554e-22)
(0.836871 0.0178377 -9.31364e-22)
(0.856446 0.0194478 4.09092e-23)
(0.873121 0.0210511 3.77443e-22)
(0.887244 0.0221696 0)
(0.899323 0.022892 0)
(0.909832 0.0234884 1.56195e-23)
(0.919059 0.0240689 1.39647e-23)
(0.927188 0.0246465 2.06289e-22)
(0.934396 0.0252722 -1.88157e-22)
(0.940818 0.0259615 0)
(0.94655 0.0266794 0)
(0.951672 0.0273999 -1.32603e-22)
(0.956258 0.0281169 6.90701e-24)
(0.960374 0.0288324 1.1117e-22)
(0.964076 0.0295515 6.66771e-24)
(0.967412 0.0302818 0)
(0.970425 0.0310318 0)
(0.973149 0.0318071 0)
(0.975616 0.0326121 0)
(0.977855 0.0334516 0)
(0.979889 0.0343303 0)
(0.981741 0.0352525 -2.51354e-23)
(0.983428 0.0362225 4.07855e-23)
(0.984967 0.037245 0)
(0.986374 0.0383248 0)
(0.987661 0.0394674 2.77394e-23)
(0.988839 0.040679 -2.69538e-23)
(0.989918 0.0419662 -1.28047e-23)
(0.990908 0.0433357 0)
(0.991818 0.0447939 0)
(0.992654 0.0463468 -2.23979e-23)
(0.993425 0.0480017 2.1769e-23)
(0.994136 0.0497668 0)
(0.994793 0.0516513 -1.97591e-23)
(0.9954 0.0536656 2.87471e-23)
(0.995964 0.0558204 -9.13557e-24)
(0.996488 0.0581267 0)
(0.996976 0.0605972 1.65318e-23)
(0.997431 0.0632453 -1.60747e-23)
(0.997858 0.0660851 0)
(0.998259 0.0691319 0)
(0.998638 0.072402 6.68293e-24)
(0.998997 0.0759128 -1.92848e-23)
(0.999339 0.0796828 0)
(0.999668 0.0837311 0)
(0.999984 0.0880775 4.99126e-24)
(1.00029 0.0927445 1.08413e-26)
(1.00059 0.0977416 3.5481e-25)
(1.00088 0.103142 -3.57124e-24)
(1.00118 0.108747 0)
(1.00145 0.115368 0)
(1.00175 0.120534 0)
(1.002 0.130817 0)
(1.00226 0.13212 0)
(1.00253 0.148162 0)
(0.67788 -0.0644839 7.64645e-23)
(0.724014 -0.0456102 2.87359e-21)
(0.761481 -0.0307243 -2.66418e-22)
(0.792361 -0.0194581 -2.43593e-21)
(0.818139 -0.0108835 -3.1808e-23)
(0.840059 -0.00423001 0)
(0.859033 0.00128762 1.51493e-21)
(0.875037 0.00595179 -2.85616e-21)
(0.888456 0.00976777 1.34107e-21)
(0.900172 0.0127108 -1.07804e-21)
(0.910537 0.0149609 1.03123e-21)
(0.919644 0.0167996 -8.48948e-22)
(0.927658 0.0184058 8.25291e-22)
(0.934797 0.0199075 2.26565e-23)
(0.941186 0.0213365 6.38477e-22)
(0.9469 0.0226782 -6.2007e-22)
(0.952019 0.0239292 5.33095e-22)
(0.956609 0.025099 -5.02035e-22)
(0.960732 0.0262027 4.59587e-22)
(0.964442 0.0272556 -8.65197e-22)
(0.967788 0.0282723 4.07117e-22)
(0.970814 0.029268 2.31844e-23)
(0.973552 0.030255 3.4088e-22)
(0.976033 0.0312437 -6.51464e-22)
(0.978288 0.0322437 3.11182e-22)
(0.980338 0.0332635 -1.80845e-23)
(0.982206 0.0343101 -2.79095e-22)
(0.983909 0.0353904 -2.28963e-24)
(0.985466 0.0365113 4.94363e-22)
(0.986889 0.0376784 -4.71033e-22)
(0.988194 0.0388981 2.26699e-22)
(0.989391 0.0401763 -2.68667e-23)
(0.99049 0.0415204 1.28317e-23)
(0.991502 0.0429384 -2.4626e-23)
(0.992434 0.0444392 0)
(0.993292 0.0460313 0)
(0.994086 0.0477224 8.62103e-23)
(0.99482 0.0495202 -6.29685e-23)
(0.995502 0.0514334 -5.92857e-23)
(0.996137 0.0534727 -8.43667e-24)
(0.996728 0.0556495 8.29447e-23)
(0.997281 0.0579755 -1.75191e-23)
(0.9978 0.0604635 0)
(0.998287 0.0631271 0)
(0.998748 0.0659806 0)
(0.999184 0.0690395 0)
(0.999599 0.0723203 -2.71985e-23)
(0.999996 0.0758404 1.27981e-23)
(1.00038 0.0796184 0)
(1.00075 0.0836735 0)
(1.00111 0.0880256 0)
(1.00145 0.0926972 8.72372e-24)
(1.0018 0.0976979 -6.80203e-25)
(1.00213 0.103101 7.52309e-24)
(1.00247 0.108707 0)
(1.00278 0.115332 0)
(1.00313 0.120491 -3.80369e-24)
(1.0034 0.130783 -8.93003e-24)
(1.00372 0.132079 0)
(1.004 0.148126 0)
(0.71465 -0.1218 3.60955e-22)
(0.751305 -0.09212 5.60771e-21)
(0.780602 -0.0686943 -4.81796e-21)
(0.805503 -0.0506638 4.50726e-21)
(0.827275 -0.036617 3.2038e-23)
(0.846603 -0.0254224 0)
(0.863885 -0.0162724 3.04165e-21)
(0.878915 -0.00879312 -2.97191e-21)
(0.891649 -0.00271842 -1.96374e-23)
(0.902575 0.00206523 -3.42166e-23)
(0.912283 0.00601446 -3.06759e-23)
(0.920968 0.00928351 -2.80306e-23)
(0.928713 0.0119554 1.55518e-21)
(0.935667 0.0143391 -1.53301e-21)
(0.941913 0.0165209 0)
(0.947522 0.0185127 -3.75063e-23)
(0.952568 0.0203255 1.07226e-21)
(0.957112 0.0219745 -1.05711e-21)
(0.961206 0.0234835 0)
(0.964898 0.0248809 0)
(0.968235 0.0261938 8.10498e-22)
(0.971256 0.0274447 -1.54282e-21)
(0.973995 0.0286503 1.39916e-21)
(0.976482 0.029826 -4.21129e-23)
(0.978745 0.0309872 -1.21628e-21)
(0.980806 0.0321467 1.18448e-21)
(0.982686 0.0333154 -1.06937e-21)
(0.984403 0.0345032 4.44359e-23)
(0.985973 0.0357195 5.03e-22)
(0.987412 0.0369724 0)
(0.988733 0.0382697 0)
(0.989946 0.039618 -1.60554e-22)
(0.991063 0.0410243 2.085e-22)
(0.992093 0.0424958 -4.27493e-26)
(0.993046 0.0440409 -1.88624e-22)
(0.993927 0.0456696 1.83282e-22)
(0.994744 0.0473932 0)
(0.995503 0.0492221 -2.09092e-23)
(0.996209 0.0511643 -1.79385e-22)
(0.99687 0.0532295 3.45917e-22)
(0.997489 0.0554289 -1.48313e-22)
(0.998071 0.0577748 -1.76234e-23)
(0.99862 0.0602808 1.66686e-22)
(0.999139 0.0629608 -1.2936e-22)
(0.999633 0.0658292 -3.0461e-23)
(1.0001 0.0689015 -2.8883e-23)
(1.00056 0.0721945 2.72711e-23)
(1.00099 0.0757258 0)
(1.00141 0.0795139 0)
(1.00182 0.0835783 8.82862e-23)
(1.00222 0.0879389 -4.23746e-23)
(1.00261 0.0926183 3.7684e-23)
(1.003 0.0976259 -5.09563e-23)
(1.00338 0.103036 -5.85565e-23)
(1.00376 0.108646 1.37586e-23)
(1.00412 0.115279 -2.17155e-23)
(1.00451 0.120436 1.72463e-23)
(1.00481 0.13074 -7.3751e-24)
(1.00518 0.132033 0)
(1.00547 0.148092 0)
(0.761982 -0.166297 9.43093e-21)
(0.787056 -0.129931 -3.45386e-22)
(0.806238 -0.1012 -8.57563e-21)
(0.823812 -0.0785007 6.67112e-23)
(0.840717 -0.0601306 0)
(0.856661 -0.0450224 0)
(0.87142 -0.0326087 5.82998e-21)
(0.884432 -0.0225457 -3.78734e-22)
(0.895658 -0.0145112 -7.41766e-21)
(0.905823 -0.0080018 2.02839e-22)
(0.915096 -0.0027179 2.0705e-21)
(0.923161 0.00158567 1.65061e-21)
(0.930347 0.00540519 -1.65558e-21)
(0.93697 0.00871524 0)
(0.942986 0.0116222 1.28454e-21)
(0.948424 0.0142423 -1.17185e-21)
(0.953342 0.0166101 0)
(0.957787 0.0187434 0)
(0.961809 0.0206699 -9.18309e-22)
(0.965452 0.0224232 3.99256e-23)
(0.968756 0.0240396 8.01865e-22)
(0.971756 0.0255519 7.63996e-22)
(0.974481 0.026984 -7.63098e-22)
(0.976961 0.0283552 6.72802e-22)
(0.979223 0.0296836 -3.80336e-23)
(0.981288 0.030986 -5.97006e-22)
(0.983175 0.032277 -6.96115e-23)
(0.984902 0.0335707 3.3521e-26)
(0.986485 0.034879 0)
(0.987937 0.0362132 -4.74602e-22)
(0.989273 0.0375832 4.89548e-22)
(0.990502 0.038998 -2.72647e-23)
(0.991635 0.040466 0)
(0.992683 0.0419944 2.49756e-23)
(0.993653 0.0435908 -3.80696e-22)
(0.994555 0.0452625 6.88803e-22)
(0.995395 0.0470197 3.93457e-23)
(0.996178 0.0488756 -4.58516e-24)
(0.996909 0.0508434 -2.85281e-22)
(0.997596 0.0529337 -3.87008e-23)
(0.998242 0.0551558 2.94132e-22)
(0.998853 0.0575215 -2.5041e-22)
(0.999432 0.0600453 4.83825e-26)
(0.999984 0.0627414 -1.27482e-22)
(1.00051 0.0656245 1.54505e-22)
(1.00102 0.0687105 2.01624e-22)
(1.00151 0.0720163 -5.64152e-23)
(1.00198 0.0755594 -1.01272e-22)
(1.00244 0.0793589 1.92914e-22)
(1.00289 0.0834342 -1.36699e-22)
(1.00333 0.0878053 3.88725e-23)
(1.00377 0.0924951 -4.29987e-23)
(1.0042 0.0975127 -3.67956e-23)
(1.00462 0.102933 8.88389e-23)
(1.00505 0.108552 -1.64585e-24)
(1.00545 0.115198 2.1824e-23)
(1.00589 0.120359 0)
(1.00621 0.130679 7.46736e-24)
(1.00664 0.131975 -1.03891e-23)
(1.00694 0.148055 0)
(0.812525 -0.198048 -6.8765e-21)
(0.826176 -0.159052 1.36955e-20)
(0.835309 -0.128108 -6.72579e-21)
(0.845441 -0.102512 -6.89981e-21)
(0.857136 -0.0810056 1.32235e-20)
(0.869172 -0.0630247 -3.73096e-22)
(0.880824 -0.0481991 -5.83215e-21)
(0.891587 -0.0360476 -4.96336e-21)
(0.901291 -0.0259632 4.85608e-21)
(0.910126 -0.0176347 0)
(0.91829 -0.0110641 3.73021e-21)
(0.925907 -0.00577221 -7.0078e-21)
(0.932744 -0.00118754 3.28928e-21)
(0.938798 0.00296594 0)
(0.944406 0.00666903 0)
(0.94959 0.00992819 -3.808e-23)
(0.954321 0.0128453 2.1698e-21)
(0.958624 0.0154569 -2.10657e-21)
(0.962537 0.0177986 0)
(0.966098 0.0199116 -1.77626e-21)
(0.969345 0.0218363 3.27502e-21)
(0.972307 0.0236106 -3.05549e-21)
(0.975006 0.025267 2.9043e-21)
(0.977468 0.0268335 -4.3148e-23)
(0.979719 0.0283327 -2.567e-21)
(0.98178 0.029783 1.2463e-21)
(0.983668 0.0312012 3.52472e-23)
(0.985401 0.0326036 4.96292e-22)
(0.986993 0.0340051 -1.02626e-23)
(0.988458 0.0354197 -4.89504e-22)
(0.989807 0.0368593 -2.88901e-23)
(0.991052 0.0383354 4.38629e-22)
(0.992202 0.039859 -8.45696e-22)
(0.993268 0.0414394 4.58237e-22)
(0.994256 0.0430856 0)
(0.995176 0.0448051 4.15544e-22)
(0.996035 0.0466052 -4.02984e-22)
(0.996841 0.0484937 2.96251e-22)
(0.997599 0.0504852 -3.70034e-22)
(0.998312 0.0525969 3.91584e-23)
(0.998985 0.0548403 0)
(0.999625 0.0572259 3.57947e-23)
(1.00023 0.0597673 -1.02399e-22)
(1.00082 0.062479 0)
(1.00138 0.0653765 -3.05795e-22)
(1.00192 0.068476 1.20018e-22)
(1.00245 0.0717943 -5.51998e-23)
(1.00296 0.0753495 -5.19871e-23)
(1.00346 0.0791606 0)
(1.00395 0.0832474 0)
(1.00444 0.08763 1.22303e-22)
(1.00492 0.0923315 -1.89652e-22)
(1.00539 0.0973609 1.05367e-22)
(1.00586 0.102795 -3.36085e-23)
(1.00633 0.108425 -5.56273e-23)
(1.00677 0.115086 -2.18476e-23)
(1.00726 0.120258 3.47612e-23)
(1.00761 0.130596 0)
(1.00809 0.131901 1.66848e-23)
(1.00842 0.148014 3.82763e-24)
(0.861972 -0.218624 -4.06642e-21)
(0.865412 -0.180577 4.02867e-21)
(0.865823 -0.149754 -4.79748e-23)
(0.869412 -0.122901 3.6996e-23)
(0.875896 -0.0993114 -4.8233e-23)
(0.883654 -0.0792869 4.54523e-23)
(0.891852 -0.0626673 -7.35452e-23)
(0.900079 -0.0488056 0)
(0.908012 -0.03706 6.5567e-23)
(0.915509 -0.0272237 -6.09919e-23)
(0.922532 -0.0192257 -5.64519e-23)
(0.929104 -0.0127675 5.46089e-23)
(0.935361 -0.00745855 0)
(0.941129 -0.00275338 0)
(0.946275 0.00158527 -4.05465e-23)
(0.951049 0.00551209 0)
(0.955514 0.00897885 3.45945e-23)
(0.959622 0.0120646 0)
(0.963388 0.0148215 1.8131e-21)
(0.966837 0.0172976 -3.50368e-21)
(0.97 0.0195428 3.26377e-21)
(0.972901 0.0215969 -1.57696e-21)
(0.975559 0.0234921 -1.42543e-21)
(0.977995 0.0252606 1.38362e-21)
(0.98023 0.0269325 1.30461e-21)
(0.98228 0.0285328 -1.26529e-21)
(0.984164 0.0300818 0)
(0.985898 0.0315977 -3.39684e-23)
(0.987495 0.033097 0)
(0.988969 0.0345952 0)
(0.99033 0.036106 -8.72932e-22)
(0.99159 0.0376434 9.04376e-22)
(0.992757 0.0392194 -5.3633e-23)
(0.993841 0.040846 -5.1287e-23)
(0.994849 0.0425348 4.91727e-23)
(0.995788 0.0442954 3.74324e-22)
(0.996667 0.0461378 -3.63399e-22)
(0.997493 0.0480682 3.86736e-22)
(0.998273 0.0500923 -3.33527e-22)
(0.999013 0.0522255 -7.92418e-23)
(0.999715 0.0544866 3.0063e-22)
(1.00038 0.0568907 3.13156e-23)
(1.00102 0.0594502 -2.09628e-22)
(1.00164 0.062178 0)
(1.00223 0.0650899 1.24773e-22)
(1.00281 0.0682026 -1.74001e-22)
(1.00337 0.0715336 2.26272e-22)
(1.00392 0.0751011 5.23358e-23)
(1.00447 0.0789242 0)
(1.005 0.0830231 -4.31233e-23)
(1.00553 0.0874182 8.61011e-23)
(1.00605 0.0921327 -9.01981e-26)
(1.00657 0.0971757 3.45177e-23)
(1.00709 0.102624 -5.76692e-23)
(1.0076 0.108269 5.58637e-23)
(1.00809 0.114949 0)
(1.00862 0.120136 -3.47818e-23)
(1.00901 0.130496 0)
(1.00955 0.131815 0)
(1.00989 0.147969 -5.07669e-24)
(0.908238 -0.229834 1.15872e-21)
(0.903294 -0.195051 -1.15248e-21)
(0.896726 -0.165912 1.5973e-23)