/*--------------------------------*- C++ -*----------------------------------*\
| =========                 |                                                 |
| \\      /  F ield         | OpenFOAM: The Open Source CFD Toolbox           |
|  \\    /   O peration     | Version:  2312                                  |
|   \\  /    A nd           | Website:  www.openfoam.com                      |
|    \\/     M anipulation  |                                                 |
\*---------------------------------------------------------------------------*/
FoamFile
{
    version     2.0;
    format      ascii;
    arch        "LSB;label=32;scalar=64";
    class       volScalarField;
    location    "57";
    object      p;
}
// * * * * * * * * * * * * * * * * * * * * * * * * * * * * * * * * * * * * * //

dimensions      [0 2 -2 0 0 0 0];

internalField   nonuniform List<scalar> 
13248
(
-0.464549
-0.463741
-0.461179
-0.457383
-0.453045
-0.448925
-0.445754
-0.44405
-0.44401
-0.445423
-0.447692
-0.449929
-0.451105
-0.450222
-0.446486
-0.439439
-0.429018
-0.415485
-0.399242
-0.380862
-0.360252
-0.338312
-0.312818
-0.28504
-0.469264
-0.46837
-0.465792
-0.462134
-0.457987
-0.453962
-0.450583
-0.448132
-0.446556
-0.445457
-0.444181
-0.441966
-0.438097
-0.432054
-0.423593
-0.41275
-0.399743
-0.384863
-0.368364
-0.350399
-0.331112
-0.310586
-0.288546
-0.266498
-0.47661
-0.475234
-0.472476
-0.46884
-0.464783
-0.460688
-0.456779
-0.453035
-0.44919
-0.44482
-0.439457
-0.432701
-0.424308
-0.414228
-0.402565
-0.389498
-0.375198
-0.359817
-0.343422
-0.326199
-0.308086
-0.289427
-0.269947
-0.249997
-0.486405
-0.484168
-0.480975
-0.477119
-0.472866
-0.468299
-0.46328
-0.457517
-0.450701
-0.442618
-0.433183
-0.42244
-0.410529
-0.397631
-0.383909
-0.369478
-0.354421
-0.338785
-0.322648
-0.306053
-0.289064
-0.271919
-0.254336
-0.237227
-0.49845
-0.495094
-0.491203
-0.486844
-0.481992
-0.476359
-0.469465
-0.460925
-0.450647
-0.438818
-0.425773
-0.411866
-0.397393
-0.382547
-0.367434
-0.352104
-0.336569
-0.320851
-0.304958
-0.288939
-0.27284
-0.256757
-0.240606
-0.224815
-0.512786
-0.508117
-0.503342
-0.498183
-0.49219
-0.484677
-0.475006
-0.463015
-0.44906
-0.433755
-0.417705
-0.401363
-0.385001
-0.368745
-0.352629
-0.336643
-0.320766
-0.30498
-0.289289
-0.273707
-0.258256
-0.243005
-0.227877
-0.21327
-0.529564
-0.52346
-0.517654
-0.511306
-0.503411
-0.493001
-0.479658
-0.463767
-0.44619
-0.427817
-0.409313
-0.391067
-0.373252
-0.355907
-0.339007
-0.322508
-0.306364
-0.290545
-0.275027
-0.259801
-0.244876
-0.23024
-0.215891
-0.202031
-0.548849
-0.541246
-0.534209
-0.5261
-0.515296
-0.500912
-0.483205
-0.463256
-0.442295
-0.421264
-0.400721
-0.380915
-0.361908
-0.343665
-0.326121
-0.309205
-0.292853
-0.277012
-0.261641
-0.246711
-0.232197
-0.218081
-0.204376
-0.191125
-0.570426
-0.561294
-0.552706
-0.542014
-0.527152
-0.507873
-0.485439
-0.461533
-0.437503
-0.414156
-0.391862
-0.370717
-0.350686
-0.331679
-0.313595
-0.296342
-0.279835
-0.264004
-0.248788
-0.234135
-0.220001
-0.206347
-0.193174
-0.180394
-0.593659
-0.583
-0.572374
-0.558035
-0.537993
-0.513221
-0.486022
-0.458411
-0.43162
-0.406219
-0.382373
-0.360044
-0.339115
-0.319449
-0.300917
-0.283401
-0.266796
-0.251013
-0.235972
-0.221602
-0.207838
-0.194634
-0.181954
-0.169636
-0.61749
-0.605293
-0.591927
-0.57273
-0.546581
-0.516051
-0.484253
-0.453231
-0.423949
-0.396707
-0.371478
-0.348107
-0.326407
-0.306199
-0.287321
-0.269631
-0.253003
-0.23733
-0.222518
-0.208477
-0.195132
-0.182416
-0.170249
-0.158467
-0.640471
-0.626713
-0.609682
-0.584437
-0.551533
-0.515233
-0.479113
-0.444999
-0.413502
-0.384647
-0.358232
-0.333998
-0.311694
-0.291096
-0.272009
-0.254265
-0.237719
-0.222246
-0.207736
-0.19409
-0.181228
-0.169087
-0.15757
-0.14654
-0.423419
-0.423647
-0.423504
-0.424157
-0.426229
-0.429924
-0.435302
-0.442417
-0.451346
-0.462155
-0.474869
-0.48942
-0.505607
-0.523053
-0.541175
-0.559179
-0.576079
-0.590766
-0.602147
-0.608035
-0.60802
-0.601144
-0.586888
-0.564759
-0.437616
-0.437
-0.436697
-0.437568
-0.440167
-0.444706
-0.451273
-0.459952
-0.470861
-0.484111
-0.499761
-0.517756
-0.53788
-0.559706
-0.582562
-0.605526
-0.627453
-0.647042
-0.662947
-0.67287
-0.675984
-0.670685
-0.65637
-0.6312
-0.449642
-0.448105
-0.447587
-0.448506
-0.451356
-0.456378
-0.463663
-0.473299
-0.485411
-0.500121
-0.517505
-0.537468
-0.559785
-0.583991
-0.609356
-0.634888
-0.659365
-0.681384
-0.699349
-0.711416
-0.716046
-0.711254
-0.696197
-0.667806
-0.458822
-0.456429
-0.455548
-0.456271
-0.459005
-0.464021
-0.471416
-0.481262
-0.493667
-0.508737
-0.526513
-0.546905
-0.569653
-0.594275
-0.620032
-0.645943
-0.6708
-0.693209
-0.711506
-0.723968
-0.728947
-0.723752
-0.707909
-0.677155
-0.46489
-0.461813
-0.460468
-0.460719
-0.462915
-0.467379
-0.474232
-0.483534
-0.495358
-0.509774
-0.526794
-0.546311
-0.568051
-0.591532
-0.616043
-0.64066
-0.664259
-0.685398
-0.702731
-0.714195
-0.718263
-0.711663
-0.69427
-0.661218
-0.468015
-0.464515
-0.462674
-0.462216
-0.463481
-0.466878
-0.472591
-0.480691
-0.491227
-0.504232
-0.519685
-0.537463
-0.557291
-0.578704
-0.601028
-0.623416
-0.644812
-0.663964
-0.679227
-0.688485
-0.690164
-0.680773
-0.660314
-0.624047
-0.468715
-0.465112
-0.462822
-0.461521
-0.461575
-0.463507
-0.467613
-0.474022
-0.482793
-0.493938
-0.507412
-0.523077
-0.540664
-0.559747
-0.579634
-0.599638
-0.618618
-0.635057
-0.647356
-0.653205
-0.650916
-0.637306
-0.61261
-0.572958
-0.467721
-0.464334
-0.461714
-0.459565
-0.458302
-0.458569
-0.460807
-0.465258
-0.472035
-0.481166
-0.492597
-0.506168
-0.521581
-0.538434
-0.556191
-0.573731
-0.589823
-0.602798
-0.610927
-0.611792
-0.604002
-0.585155
-0.556141
-0.514551
-0.465825
-0.462918
-0.460126
-0.457245
-0.45475
-0.453388
-0.453755
-0.456238
-0.46105
-0.468266
-0.47784
-0.48958
-0.503219
-0.518145
-0.533473
-0.547999
-0.560245
-0.568379
-0.570758
-0.56537
-0.551722
-0.528422
-0.497234
-0.456491
-0.463801
-0.461532
-0.458714
-0.455291
-0.451804
-0.449074
-0.44783
-0.448604
-0.451724
-0.457316
-0.465343
-0.475559
-0.487378
-0.499953
-0.51212
-0.52246
-0.529339
-0.531197
-0.52681
-0.515263
-0.497118
-0.472049
-0.442548
-0.406215
-0.462409
-0.460799
-0.458048
-0.454293
-0.45015
-0.446475
-0.444084
-0.443616
-0.445473
-0.449796
-0.45641
-0.46482
-0.474198
-0.483415
-0.491106
-0.495857
-0.496284
-0.491506
-0.480943
-0.464951
-0.444419
-0.420115
-0.394623
-0.36453
-0.462423
-0.461354
-0.458685
-0.454811
-0.450389
-0.446261
-0.443259
-0.44204
-0.442964
-0.446038
-0.450882
-0.456748
-0.462587
-0.467168
-0.469244
-0.467759
-0.461983
-0.451753
-0.437153
-0.41908
-0.397828
-0.374726
-0.350724
-0.325322
-0.531015
-0.480765
-0.425917
-0.372079
-0.32629
-0.294134
-0.279526
-0.284569
-0.306775
-0.338488
-0.367611
-0.379154
-0.361478
-0.313958
-0.252028
-0.194903
-0.153997
-0.130073
-0.120382
-0.12187
-0.132539
-0.155164
-0.193484
-0.238402
-0.268116
-0.263188
-0.229489
-0.182749
-0.139363
-0.110604
-0.0988294
-0.0997536
-0.116233
-0.157413
-0.211236
-0.241946
-0.223932
-0.177048
-0.132528
-0.105137
-0.0980074
-0.114879
-0.147805
-0.175774
-0.180952
-0.164523
-0.138165
-0.113206
-0.0958978
-0.0852598
-0.0763666
-0.0629751
-0.0489072
-0.0366629
-0.0287516
-0.0244122
-0.0203529
-0.0155557
-0.0105651
-0.00269356
-0.593195
-0.533517
-0.466953
-0.400522
-0.341413
-0.295273
-0.266314
-0.258174
-0.270963
-0.297814
-0.326838
-0.341466
-0.327657
-0.286427
-0.23135
-0.181133
-0.145905
-0.12649
-0.120996
-0.12669
-0.142197
-0.171389
-0.217338
-0.269012
-0.301993
-0.294702
-0.254561
-0.201262
-0.152524
-0.118951
-0.103001
-0.100203
-0.112506
-0.149447
-0.200759
-0.2301
-0.212761
-0.169343
-0.129666
-0.107023
-0.104874
-0.127534
-0.166184
-0.197754
-0.202008
-0.180468
-0.146762
-0.114176
-0.0903947
-0.0752197
-0.0640764
-0.0506261
-0.0379584
-0.0281642
-0.0231591
-0.021305
-0.0192117
-0.0157063
-0.0111123
-0.00309322
-0.625005
-0.560056
-0.484948
-0.408508
-0.338486
-0.281382
-0.241362
-0.220698
-0.221745
-0.240515
-0.266671
-0.284471
-0.277879
-0.24599
-0.201304
-0.160322
-0.13191
-0.117763
-0.116888
-0.127015
-0.147376
-0.182435
-0.234502
-0.291352
-0.327738
-0.32035
-0.275427
-0.216545
-0.163112
-0.125175
-0.105072
-0.0983861
-0.106014
-0.137225
-0.184284
-0.211944
-0.196653
-0.158003
-0.123883
-0.10649
-0.109725
-0.138349
-0.182628
-0.2179
-0.222018
-0.195685
-0.154929
-0.115062
-0.0852184
-0.0658939
-0.0527467
-0.0391058
-0.0276545
-0.0200424
-0.017722
-0.0182535
-0.0181598
-0.0160093
-0.0117666
-0.00352832
-0.63043
-0.563221
-0.484834
-0.402
-0.324613
-0.259444
-0.210318
-0.179595
-0.168065
-0.17532
-0.194926
-0.213454
-0.214571
-0.194569
-0.162522
-0.132162
-0.11134
-0.102957
-0.106955
-0.121224
-0.145374
-0.184445
-0.240818
-0.301996
-0.342383
-0.337262
-0.290473
-0.227661
-0.170506
-0.129075
-0.10521
-0.0945789
-0.0971731
-0.121827
-0.163418
-0.18949
-0.176773
-0.143758
-0.1155
-0.103311
-0.111849
-0.146231
-0.196049
-0.235372
-0.240256
-0.209763
-0.162512
-0.115838
-0.0803918
-0.0572956
-0.0423316
-0.0283943
-0.0179824
-0.0123069
-0.0124467
-0.0152701
-0.0172154
-0.016487
-0.0125491
-0.00400346
-0.610611
-0.54441
-0.468951
-0.38609
-0.306564
-0.237661
-0.182305
-0.142502
-0.120358
-0.115174
-0.124163
-0.139323
-0.146605
-0.136875
-0.117683
-0.0979806
-0.0848069
-0.0820434
-0.0908373
-0.108939
-0.135829
-0.176811
-0.235354
-0.299835
-0.344266
-0.344525
-0.299189
-0.234282
-0.174544
-0.130677
-0.103643
-0.0894277
-0.0869852
-0.104458
-0.139655
-0.164151
-0.154628
-0.127426
-0.1048
-0.0975143
-0.110786
-0.150402
-0.205679
-0.249321
-0.256256
-0.222377
-0.16945
-0.116519
-0.0759408
-0.0494424
-0.0328222
-0.0185127
-0.00894428
-0.00496712
-0.00733129
-0.0123647
-0.0163957
-0.0171579
-0.013481
-0.0045229
-0.56932
-0.50693
-0.439951
-0.363212
-0.287101
-0.219552
-0.162602
-0.117043
-0.0848544
-0.067971
-0.0654487
-0.0723885
-0.0804721
-0.0789984
-0.0705587
-0.0601113
-0.0540228
-0.0566814
-0.0700051
-0.0915122
-0.120097
-0.160805
-0.218271
-0.284066
-0.333198
-0.339961
-0.300013
-0.235762
-0.175179
-0.130055
-0.100717
-0.0835739
-0.0764232
-0.0867161
-0.114972
-0.137494
-0.131474
-0.10974
-0.0922704
-0.0892657
-0.106575
-0.150923
-0.211023
-0.25906
-0.26912
-0.233047
-0.175622
-0.117127
-0.0719225
-0.0423878
-0.0242498
-0.00950488
-0.000555091
0.00197444
-0.00236927
-0.00954567
-0.0157137
-0.0180344
-0.0145817
-0.00509185
-0.51529
-0.458379
-0.402704
-0.336553
-0.268498
-0.205878
-0.151038
-0.104311
-0.0661141
-0.0385015
-0.0238297
-0.0206532
-0.0246682
-0.0271963
-0.024623
-0.0215426
-0.0214175
-0.0289165
-0.046067
-0.0702088
-0.0995701
-0.138469
-0.192592
-0.257185
-0.310711
-0.325831
-0.292976
-0.232395
-0.17277
-0.127444
-0.0968158
-0.0774473
-0.0664626
-0.0699072
-0.0911356
-0.111197
-0.108233
-0.0915511
-0.0785366
-0.0790789
-0.0995144
-0.14729
-0.212022
-0.264284
-0.27734
-0.241479
-0.180928
-0.117663
-0.0683631
-0.0361709
-0.0166625
-0.00142335
0.00715495
0.0085163
0.00244463
-0.00681988
-0.0151815
-0.0191268
-0.0158698
-0.00571823
-0.457328
-0.408017
-0.364045
-0.309357
-0.251409
-0.196216
-0.14542
-0.100007
-0.0604065
-0.027098
-0.00207291
0.0121552
0.0164949
0.0155538
0.016376
0.0135781
0.00948969
-0.00151249
-0.0213251
-0.0469692
-0.0760222
-0.11218
-0.161573
-0.222668
-0.279034
-0.302065
-0.278529
-0.224316
-0.167659
-0.123176
-0.0921143
-0.0712991
-0.057758
-0.0552557
-0.0695748
-0.0867614
-0.0898159
-0.0738906
-0.0644352
-0.0675491
-0.0899485
-0.140176
-0.208419
-0.264459
-0.28085
-0.247308
-0.185192
-0.118071
-0.0652421
-0.0307905
-0.0100926
0.00568477
0.0141507
0.0146447
0.00710228
-0.00419598
-0.0148047
-0.0204388
-0.0173602
-0.0064175
-0.403088
-0.362614
-0.329127
-0.285173
-0.236891
-0.189317
-0.143668
-0.10085
-0.0617046
-0.0268708
0.00308461
0.026697
0.040954
0.0462141
0.0512459
0.0422142
0.0359797
0.0234212
0.0025502
-0.023491
-0.0516044
-0.0845507
-0.12878
-0.185569
-0.242889
-0.276318
-0.259911
-0.212808
-0.160378
-0.117618
-0.0867529
-0.0652747
-0.0500627
-0.0434694
-0.0512363
-0.0648065
-0.0684284
-0.0574738
-0.0507594
-0.0551954
-0.0783592
-0.129306
-0.200361
-0.260682
-0.280565
-0.250796
-0.188279
-0.118267
-0.0625113
-0.0262076
-0.00453048
0.0117972
0.0203002
0.0203417
0.0116035
-0.00167937
-0.0145941
-0.0219766
-0.019066
-0.00724428
-0.360512
-0.328501
-0.302029
-0.266146
-0.226072
-0.185288
-0.14465
-0.104985
-0.0674026
-0.0328267
-0.00179777
0.0251266
0.046353
0.0583369
0.0577341
0.0612513
0.0557906
0.0434855
0.023404
-0.00140493
-0.0275905
-0.0571465
-0.0960962
-0.146757
-0.202836
-0.239984
-0.233281
-0.196583
-0.150756
-0.11112
-0.081271
-0.0596977
-0.0436178
-0.0341994
-0.036547
-0.0462823
-0.0502533
-0.0435599
-0.038104
-0.0429705
-0.0658268
-0.116228
-0.188249
-0.251531
-0.275826
-0.250765
-0.189989
-0.118458
-0.06038
-0.0225124
-7.42225e-06
0.016908
0.0257807
0.0255805
0.0159123
0.000714019
-0.0145411
-0.0237298
-0.02099
-0.00812395
-0.329244
-0.305381
-0.282992
-0.252197
-0.217862
-0.182102
-0.145217
-0.108224
-0.0725474
-0.0384999
-0.00717772
0.0207708
0.0445879
0.0628896
0.0761835
0.0776257
0.0734156
0.0622306
0.0433632
0.0201934
-0.00391411
-0.0305664
-0.0654488
-0.112677
-0.166741
-0.205929
-0.210254
-0.181991
-0.142208
-0.105694
-0.0770022
-0.0554891
-0.0388049
-0.027144
-0.0250969
-0.031425
-0.0355269
-0.0312703
-0.0268685
-0.0308828
-0.0519678
-0.100951
-0.173008
-0.239864
-0.268697
-0.24939
-0.190862
-0.119061
-0.05913
-0.019811
0.00340815
0.0209402
0.0304458
0.0303768
0.0200653
0.00300048
-0.0146604
-0.0257117
-0.0231385
-0.00909556
-0.304572
-0.290613
-0.271607
-0.245293
-0.216788
-0.186823
-0.155037
-0.121962
-0.0885651
-0.0555892
-0.0241252
0.0047562
0.0301252
0.0505895
0.0621592
0.0772817
0.0814328
0.0758323
0.0610762
0.0410365
0.0193217
-0.00543542
-0.0367772
-0.0779897
-0.126085
-0.163163
-0.174872
-0.158249
-0.128281
-0.0972122
-0.0706769
-0.0500152
-0.0335366
-0.0206134
-0.0153422
-0.018813
-0.0230128
-0.0209317
-0.0173281
-0.0211428
-0.0396303
-0.0848496
-0.15526
-0.22339
-0.256442
-0.24213
-0.18847
-0.117637
-0.0568491
-0.0169228
0.00642137
0.024196
0.0343068
0.0345635
0.0239302
0.00514727
-0.0149074
-0.027877
-0.0254853
-0.0101504
-0.271206
-0.272407
-0.253553
-0.226153
-0.19745
-0.168903
-0.139824
-0.109692
-0.0788875
-0.0482225
-0.0187895
0.00853684
0.033331
0.0542987
0.071365
0.0816481
0.088213
0.0878021
0.0777799
0.0612107
0.0427665
0.0215591
-0.00867506
-0.0542339
-0.10665
-0.145418
-0.153844
-0.135979
-0.109083
-0.0820601
-0.0588059
-0.0403135
-0.025421
-0.0135541
-0.00746603
-0.00866842
-0.0119558
-0.010703
-0.00742253
-0.00908626
-0.0242595
-0.066599
-0.135989
-0.206578
-0.245337
-0.23747
-0.182385
-0.111515
-0.0513024
-0.0125466
0.00995934
0.0274068
0.0378604
0.0385866
0.0277101
0.00727066
-0.0152169
-0.0301895
-0.0279846
-0.0112301
-0.237713
-0.242672
-0.226297
-0.200073
-0.173012
-0.147222
-0.121747
-0.095428
-0.0681905
-0.0407554
-0.0141603
0.0106434
0.0331545
0.0528016
0.0681508
0.080117
0.0881593
0.0900093
0.0832619
0.0705178
0.0559441
0.037977
0.00794382
-0.0394045
-0.0907184
-0.123009
-0.126418
-0.110623
-0.0888089
-0.0669599
-0.0474917
-0.0315124
-0.0181582
-0.00716548
-0.0010012
-0.00127002
-0.00397365
-0.00354961
-0.000668277
-0.000684038
-0.0132284
-0.0521751
-0.119008
-0.191095
-0.232925
-0.225444
-0.173636
-0.104524
-0.0457867
-0.00859386
0.0128756
0.0299641
0.0408193
0.0418349
0.0308318
0.00888106
-0.015885
-0.0327067
-0.0305429
-0.0122843
-0.209585
-0.214899
-0.201825
-0.17902
-0.154771
-0.13157
-0.108871
-0.0855179
-0.0611781
-0.0363688
-0.0120716
0.0107892
0.0317582
0.0503323
0.0653693
0.076873
0.0851312
0.0881442
0.0834578
0.0733133
0.0611539
0.0445345
0.0151686
-0.0282711
-0.0712832
-0.0962862
-0.0988685
-0.0873894
-0.0709384
-0.0536399
-0.0373141
-0.0233551
-0.0115931
-0.00174288
0.00446837
0.0052059
0.00304874
0.00284913
0.00515029
0.00544454
-0.00570663
-0.0420109
-0.106325
-0.175938
-0.216585
-0.211555
-0.163395
-0.0970679
-0.0402615
-0.00480082
0.0154796
0.0321554
0.0434432
0.0447654
0.033524
0.0099174
-0.0170286
-0.0355181
-0.0333216
-0.0134202
-0.184295
-0.189128
-0.178881
-0.159331
-0.137645
-0.116631
-0.0962188
-0.075452
-0.0538692
-0.0317659
-0.00993196
0.0108101
0.0299798
0.0471025
0.0612043
0.0721758
0.0803387
0.0840562
0.081118
0.0731612
0.0626566
0.0472116
0.0213306
-0.0142282
-0.0486895
-0.0690559
-0.0727709
-0.0655154
-0.0537189
-0.0405821
-0.0274199
-0.0155621
-0.00533258
0.00327564
0.0090151
0.0103131
0.00871376
0.00805033
0.00956277
0.0103495
0.000339409
-0.0340509
-0.0943106
-0.158029
-0.197111
-0.194533
-0.150819
-0.0883393
-0.0343093
-0.00104723
0.0177814
0.0339562
0.0456669
0.0473728
0.0358865
0.0105765
-0.0184615
-0.0386109
-0.03636
-0.0146357
-0.160614
-0.165558
-0.157569
-0.140924
-0.121809
-0.103068
-0.0849369
-0.0666643
-0.0477331
-0.028241
-0.00878558
0.00989615
0.027282
0.0429584
0.0561719
0.0665953
0.0744513
0.0785838
0.0772122
0.0712872
0.0624605
0.0491685
0.0282489
0.000371813
-0.0268693
-0.0440646
-0.0494116
-0.0461679
-0.0385249
-0.0289381
-0.018489
-0.00846751
0.000311789
0.00770115
0.0129288
0.0146075
0.0134348
0.0123086
0.0131248
0.0140683
0.00538469
-0.0263176
-0.080203
-0.137406
-0.174683
-0.174667
-0.136159
-0.0787025
-0.0281647
0.00262126
0.0198169
0.0353738
0.0474443
0.0495821
0.0379445
0.0109886
-0.020146
-0.0419971
-0.0396186
-0.0159027
-0.139542
-0.144511
-0.138131
-0.123968
-0.107317
-0.0908105
-0.0748312
-0.0588218
-0.0422784
-0.0251762
-0.00796246
0.00872201
0.0243588
0.0385503
0.0507399
0.0605434
0.067994
0.0723594
0.072311
0.0682001
0.0611026
0.0502237
0.0337756
0.0123796
-0.00880553
-0.0236388
-0.0302202
-0.0298445
-0.0251896
-0.0183121
-0.0102132
-0.00192897
0.00549408
0.0116685
0.0162213
0.0180939
0.0173361
0.0158575
0.0157954
0.0166234
0.00962945
-0.0179602
-0.0647269
-0.115282
-0.149873
-0.152326
-0.119534
-0.0680449
-0.0217811
0.00619454
0.0215952
0.0364066
0.0487417
0.051315
0.0396349
0.0110898
-0.0221255
-0.045608
-0.0430108
-0.0171836
-0.120972
-0.125469
-0.120347
-0.108381
-0.0940123
-0.0796181
-0.0656569
-0.0517162
-0.0373311
-0.0224213
-0.00732213
0.0074338
0.0213638
0.0340824
0.0451779
0.054271
0.0612382
0.0656219
0.0664974
0.0638417
0.0583545
0.0497607
0.0370706
0.0208547
0.00446719
-0.00810252
-0.0148541
-0.0161936
-0.013739
-0.00900571
-0.00288361
0.00383204
0.0100449
0.0151559
0.0190605
0.0210011
0.0205962
0.018904
0.0180404
0.0185548
0.0132908
-0.0100366
-0.0497704
-0.092707
-0.123443
-0.127907
-0.101276
-0.0566657
-0.0153428
0.00961459
0.0231409
0.0370744
0.0495275
0.0524739
0.0408149
0.0107685
-0.0243694
-0.0493124
-0.0464126
-0.0184257
-0.103834
-0.108045
-0.104098
-0.0940904
-0.08179
-0.0693488
-0.0572533
-0.0451931
-0.0327623
-0.0198638
-0.00674364
0.00617532
0.0184658
0.0297739
0.0397476
0.0480585
0.0545034
0.0587667
0.060248
0.05877
0.0547492
0.0481547
0.0384696
0.0262412
0.0136844
0.0033717
-0.00291979
-0.00514124
-0.00416225
-0.000970932
0.00360643
0.00893349
0.0140463
0.0182256
0.021491
0.023382
0.0232628
0.0214331
0.0200255
0.0203167
0.0162863
-0.00367709
-0.0362566
-0.0702593
-0.0961398
-0.102276
-0.0819439
-0.044776
-0.00893444
0.012843
0.024469
0.0373898
0.0497546
0.0529226
0.0413416
0.0100025
-0.0267727
-0.0529279
-0.0496444
-0.0195566
-0.0881935
-0.0922877
-0.0893328
-0.0810158
-0.0705569
-0.0598819
-0.0494798
-0.0391244
-0.0284724
-0.0174095
-0.00610289
0.00510187
0.0158422
0.0257933
0.0346691
0.042184
0.0481098
0.052197
0.0540624
0.0534994
0.0507129
0.045774
0.0384994
0.0293861
0.0198841
0.0116427
0.00617667
0.00371022
0.00378236
0.00584309
0.00922287
0.0133404
0.0174631
0.0209062
0.0236227
0.0253321
0.025372
0.0234546
0.0216347
0.0217278
0.0182505
0.00115478
-0.024039
-0.0485575
-0.0692068
-0.0766315
-0.0623414
-0.0327807
-0.00274129
0.0158227
0.0256121
0.0373638
0.0493635
0.0525313
0.041113
0.00882772
-0.0291773
-0.0561965
-0.0524655
-0.0204876
-0.0742617
-0.0780631
-0.075858
-0.0690043
-0.0601887
-0.0511039
-0.0422334
-0.0334216
-0.0243718
-0.0149597
-0.00530296
0.00431949
0.0136208
0.0223091
0.0301369
0.0368605
0.0422625
0.0461315
0.0482091
0.0483215
0.046555
0.0430109
0.0376949
0.0310136
0.0239354
0.0175551
0.0130176
0.0106545
0.0102283
0.0114911
0.0140004
0.0171479
0.0203878
0.0232347
0.0255369
0.0269805
0.0269816
0.0249912
0.0228933
0.0224359
0.0190747
0.00493163
-0.0129618
-0.0284415
-0.0438949
-0.052149
-0.0433092
-0.0210543
0.00311917
0.0185028
0.0266107
0.0370358
0.0482908
0.051197
0.0400692
0.00732592
-0.0313552
-0.0587791
-0.0545846
-0.0211182
-0.0615774
-0.065076
-0.0635306
-0.0579857
-0.0506181
-0.0429401
-0.0354336
-0.0279984
-0.0203771
-0.0124446
-0.00427663
0.00392929
0.0119079
0.019423
0.0262585
0.0322102
0.0370861
0.0407081
0.0428918
0.0435024
0.0425678
0.0401822
0.0364342
0.0316499
0.0264855
0.0216728
0.0180617
0.0160004
0.0153929
0.0161288
0.0179859
0.0203908
0.0228862
0.0252245
0.0272267
0.0284258
0.0283003
0.0262969
0.0240727
0.0232407
0.018643
0.0072967
-0.00373043
-0.0106549
-0.0210806
-0.0299232
-0.0257615
-0.0100576
0.00852224
0.020845
0.0274899
0.0364944
0.0465456
0.0488217
0.0381795
0.00565769
-0.0329884
-0.0602642
-0.0556759
-0.0213303
-0.0499145
-0.0533475
-0.0524572
-0.0479373
-0.0417772
-0.0353182
-0.029017
-0.022801
-0.0164449
-0.00982052
-0.00296241
0.003962
0.0107453
0.0171837
0.0230979
0.0283181
0.0326814
0.0360386
0.0382506
0.0392157
0.0389346
0.0374821
0.0349749
0.0316643
0.0280029
0.0244961
0.0217418
0.0200637
0.0194594
0.0198764
0.0212455
0.023106
0.0250295
0.0269317
0.0286799
0.0296929
0.0294989
0.0277023
0.0255363
0.024541
0.01834
0.00968688
0.00462356
0.00459979
-0.00218307
-0.0114859
-0.0106737
-0.000165548
0.0134287
0.0228921
0.0282975
0.0358312
0.044235
0.0453871
0.035439
0.00406096
-0.0336455
-0.0601828
-0.0553022
-0.0210022
-0.0394189
-0.0426859
-0.0422316
-0.0386496
-0.0335764
-0.0281998
-0.0229521
-0.0177964
-0.0125391
-0.00705472
-0.00135526
0.00443425
0.0101463
0.0156132
0.0206862
0.0252254
0.0290952
0.0321727
0.034349
0.0355484
0.0357619
0.0350416
0.0334995
0.0313244
0.0288371
0.0263847
0.0243821
0.0231018
0.0226064
0.0228665
0.0238888
0.0253459
0.0268524
0.028406
0.0299146
0.0307873
0.0306376
0.0293071
0.0276679
0.0267974
0.0230202
0.0161527
0.0149578
0.0173168
0.0116291
0.00256391
0.00164904
0.00844756
0.0178323
0.0247598
0.0291672
0.0352162
0.0415295
0.0412664
0.0322151
0.00300373
-0.0328555
-0.0581198
-0.0531799
-0.0200426
-0.0299125
-0.0329403
-0.0328378
-0.0300489
-0.0259257
-0.0215003
-0.0171768
-0.0129434
-0.00863843
-0.00414394
0.000544823
0.00533708
0.0101016
0.0147015
0.0190139
0.0229257
0.0263258
0.0291135
0.0312048
0.0325406
0.033108
0.03294
0.0321323
0.0308259
0.0292403
0.0276214
0.0262517
0.0253526
0.0250167
0.0252226
0.0260124
0.0271743
0.0283851
0.0296708
0.0309688
0.0317311
0.0317122
0.0309777
0.029902
0.029716
0.0289259
0.0258372
0.0262522
0.0272081
0.0211515
0.0131344
0.0115767
0.0157138
0.0217253
0.0265934
0.0302839
0.0350556
0.0388989
0.0369499
0.0290975
0.00308032
-0.0301702
-0.053746
-0.0490898
-0.0184021
-0.0211698
-0.0240083
-0.0242162
-0.0221037
-0.0187939
-0.0151867
-0.011659
-0.00822016
-0.00473573
-0.00109589
0.00271842
0.0066438
0.0105778
0.014411
0.0180429
0.0213821
0.0243402
0.0268364
0.0288021
0.0301904
0.030992
0.0312254
0.0309601
0.030301
0.0293953
0.0284205
0.0275703
0.0270112
0.0268465
0.0270612
0.0277056
0.0286595
0.0296639
0.0307449
0.0318716
0.0325659
0.0327049
0.0324713
0.0320825
0.0325843
0.033622
0.0338153
0.0347141
0.0337096
0.0276449
0.0210732
0.0190554
0.0215667
0.0250945
0.028416
0.0316738
0.0357619
0.0372719
0.0332465
0.026752
0.00485066
-0.0251583
-0.046898
-0.0430349
-0.016109
-0.0131709
-0.0158558
-0.0163112
-0.0147561
-0.0121313
-0.00922214
-0.00637663
-0.00361873
-0.000836019
0.00207334
0.00513782
0.00831557
0.011528
0.0146885
0.0177163
0.0205379
0.0230837
0.0252888
0.0270989
0.028476
0.0294113
0.0299139
0.0300322
0.0298419
0.0294382
0.0289489
0.0285091
0.0282375
0.0282337
0.0284929
0.0290527
0.0298625
0.0307262
0.0316525
0.032645
0.0333194
0.0336167
0.0337832
0.0339682
0.0348445
0.0366296
0.038131
0.0389903
0.0371926
0.0319186
0.0267942
0.02489
0.0260788
0.0279886
0.0302392
0.0332858
0.0372395
0.0375577
0.0322604
0.0268755
0.0089992
-0.0180153
-0.0380453
-0.0354548
-0.0133041
-0.00588213
-0.00840752
-0.00904287
-0.0079421
-0.00589308
-0.00357777
-0.0013136
0.000865818
0.00305368
0.00534332
0.00776935
0.0103066
0.0128964
0.0154705
0.0179648
0.0203212
0.0224849
0.0244046
0.0260381
0.0273536
0.028341
0.0290056
0.0293772
0.0295095
0.0294661
0.0293299
0.0292024
0.0291635
0.0292984
0.0296122
0.0301287
0.0308396
0.0316079
0.0324197
0.0333053
0.0339881
0.0344263
0.0348677
0.0354103
0.0364114
0.0381938
0.0398921
0.0405426
0.0386997
0.0345008
0.0306187
0.0289519
0.0293784
0.0303928
0.0320307
0.0349874
0.0391523
0.0399841
0.0360744
0.031449
0.0156218
-0.00972217
-0.0280791
-0.0269987
-0.0102033
0.000764842
-0.00157926
-0.00233399
-0.00160241
-3.82375e-05
0.00177214
0.00354267
0.00523309
0.00691961
0.00868656
0.0105722
0.0125643
0.0146199
0.0166862
0.0187124
0.0206529
0.0224653
0.0241094
0.025552
0.0267673
0.0277449
0.0284862
0.0290084
0.0293481
0.0295458
0.0296492
0.0297544
0.0298945
0.0301385
0.030503
0.0309996
0.0316394
0.0323396
0.0330691
0.0338654
0.0345558
0.0351059
0.0356804
0.0363938
0.0373659
0.0388316
0.0402728
0.0406939
0.0390967
0.0359188
0.0330332
0.031636
0.0317003
0.0322868
0.0336424
0.0365265
0.0408821
0.0435494
0.0424794
0.0386027
0.023139
-0.00114917
-0.0177745
-0.0184002
-0.00707916
0.00690035
0.00472585
0.00387784
0.0043008
0.00545635
0.00684099
0.00819654
0.00947722
0.0107442
0.0120732
0.0135044
0.0150352
0.0166354
0.0182641
0.0198819
0.0214528
0.0229441
0.0243251
0.02557
0.026658
0.0275785
0.0283308
0.0289245
0.0293806
0.0297281
0.0300028
0.030252
0.030513
0.030833
0.0312338
0.0317206
0.0323063
0.0329495
0.033615
0.0343319
0.0350091
0.035583
0.0362262
0.036973
0.0378395
0.0389372
0.0399902
0.0402143
0.0389435
0.0366063
0.0344824
0.0333414
0.0332603
0.0337121
0.0349189
0.03764
0.0419567
0.0462982
0.0467693
0.0436465
0.0290817
0.00686258
-0.00812619
-0.0106318
-0.00426155
0.0125746
0.0105394
0.00962023
0.00979488
0.0106152
0.0116463
0.0126553
0.0135938
0.0145112
0.015475
0.0165259
0.0176684
0.0188818
0.0201352
0.0213977
0.0226413
0.0238416
0.0249748
0.0260208
0.0269635
0.0277932
0.0285074
0.0291107
0.0296147
0.0300389
0.0304059
0.0307417
0.0310776
0.031444
0.0318621
0.0323364
0.0328758
0.0334643
0.034073
0.0347191
0.0353632
0.0359389
0.0365542
0.0372422
0.0379681
0.0387465
0.0394375
0.0395101
0.0385431
0.0368506
0.0352859
0.034378
0.0342643
0.0346777
0.0357818
0.0381889
0.0420702
0.0458697
0.0476614
0.0449401
0.0322874
0.0132541
-0.00023087
-0.00438827
-0.00198385
0.0177933
0.0159027
0.0149481
0.0149282
0.0154717
0.0162062
0.0169245
0.0175777
0.0182048
0.0188654
0.0195993
0.0204157
0.0213016
0.0222337
0.0231882
0.0241437
0.0250815
0.0259837
0.0268351
0.0276228
0.028339
0.0289802
0.0295477
0.0300471
0.0304898
0.0308896
0.0312655
0.0316339
0.0320176
0.0324321
0.0328839
0.0333778
0.0339093
0.034461
0.0350399
0.0356164
0.0361588
0.0367102
0.0372949
0.0378699
0.0383995
0.0388081
0.0387736
0.0380455
0.0368257
0.0356698
0.0349569
0.0348419
0.035215
0.0361629
0.0381893
0.0414212
0.0446633
0.0459553
0.0432753
0.0328943
0.0173842
0.00538229
0.000126986
-0.000302417
0.0226349
0.0208842
0.0199109
0.0197327
0.0200455
0.0205316
0.0210072
0.0214234
0.0218102
0.0222197
0.0226901
0.0232336
0.0238431
0.0245012
0.0251897
0.0258922
0.0265946
0.0272837
0.0279483
0.0285782
0.0291672
0.0297111
0.0302099
0.030666
0.0310854
0.0314749
0.0318469
0.0322133
0.0325872
0.0329799
0.0333959
0.0338401
0.0343114
0.0347974
0.0352963
0.0357986
0.036277
0.0367455
0.0372114
0.0376407
0.0379819
0.0381899
0.0380828
0.0375243
0.036637
0.0357726
0.0352103
0.0350807
0.0353835
0.0361249
0.0376684
0.0399673
0.0423647
0.0429884
0.0402483
0.0318352
0.0194595
0.0089855
0.00317994
0.000844457
0.0271369
0.025511
0.0245307
0.0242268
0.02435
0.0246295
0.0249028
0.0251222
0.0253105
0.0255129
0.0257646
0.0260799
0.026456
0.0268804
0.0273393
0.02782
0.0283124
0.0288066
0.0292947
0.0297688
0.0302241
0.0306567
0.0310663
0.0314524
0.0318175
0.0321643
0.0325
0.0328316
0.0331679
0.0335162
0.0338835
0.0342687
0.0346725
0.0350896
0.0355092
0.0359273
0.036325
0.0367009
0.0370492
0.0373473
0.0375454
0.0376151
0.0374575
0.0370091
0.0363431
0.0356754
0.0352128
0.0350508
0.0352429
0.0357415
0.0367897
0.038261
0.0396765
0.0396225
0.0368283
0.0299569
0.02009
0.0110681
0.00508855
0.00155637
0.0313343
0.0298278
0.0288536
0.028451
0.0284169
0.0285226
0.0286254
0.0286801
0.0287036
0.0287344
0.028805
0.0289302
0.0291102
0.0293359
0.0295972
0.0298843
0.0301901
0.0305074
0.0308307
0.0311541
0.0314742
0.0317877
0.0320938
0.0323909
0.0326802
0.0329622
0.0332408
0.0335192
0.0338033
0.0340962
0.0344016
0.0347174
0.0350442
0.0353769
0.0357094
0.0360361
0.0363414
0.0366191
0.0368557
0.0370374
0.0371226
0.0370951
0.0369004
0.0365156
0.0359864
0.0354413
0.035032
0.0348162
0.0348679
0.0351012
0.0356844
0.0364177
0.0369695
0.036317
0.0335017
0.0277969
0.0198429
0.0121081
0.00620008
0.00197278
0.035212
0.0338184
0.0328594
0.0323801
0.0322171
0.0321781
0.0321392
0.0320578
0.0319461
0.0318364
0.0317578
0.0317252
0.0317405
0.0317977
0.0318892
0.0320077
0.0321482
0.0323057
0.0324765
0.0326563
0.0328428
0.0330329
0.0332261
0.0334204
0.0336163
0.0338127
0.0340118
0.0342148
0.0344253
0.0346449
0.0348752
0.0351158
0.0353635
0.0356158
0.0358631
0.036102
0.0363165
0.0365017
0.0366384
0.0367204
0.0367136
0.0366112
0.0363814
0.0360225
0.0355655
0.0350815
0.0346834
0.0343863
0.0342794
0.0342404
0.0344029
0.0345164
0.0343778
0.0332541
0.0304471
0.0256038
0.0190458
0.0123922
0.00674155
0.00216528
0.0389021
0.0376124
0.0366735
0.0361334
0.0358619
0.0356995
0.0355394
0.0353428
0.0351175
0.0348906
0.0346879
0.0345234
0.0344005
0.034315
0.0342617
0.0342349
0.0342315
0.0342479
0.034282
0.0343306
0.0343926
0.0344653
0.0345487
0.0346406
0.0347412
0.0348483
0.034963
0.0350841
0.0352137
0.0353509
0.0354964
0.035648
0.0358032
0.0359585
0.0361069
0.0362447
0.0363579
0.0364427
0.0364789
0.0364654
0.036373
0.0362027
0.0359333
0.0355715
0.035139
0.0346689
0.0342463
0.0338524
0.0335798
0.0332828
0.0330696
0.0326804
0.032
0.0305232
0.0277482
0.0235594
0.0180435
0.0122681
0.00693595
0.00226875