/*--------------------------------*- C++ -*----------------------------------*\
| =========                 |                                                 |
| \\      /  F ield         | OpenFOAM: The Open Source CFD Toolbox           |
|  \\    /   O peration     | Version:  2312                                  |
|   \\  /    A nd           | Website:  www.openfoam.com                      |
|    \\/     M anipulation  |                                                 |
\*---------------------------------------------------------------------------*/
FoamFile
{
    version     2.0;
    format      ascii;
    arch        "LSB;label=32;scalar=64";
    class       volScalarField;
    location    "97.5";
    object      p;
}
// * * * * * * * * * * * * * * * * * * * * * * * * * * * * * * * * * * * * * //

dimensions      [0 2 -2 0 0 0 0];

internalField   nonuniform List<scalar> 
5478
(
-0.319939
-0.320334
-0.317008
-0.310563
-0.301067
-0.28909
-0.276132
-0.263738
-0.25302
-0.244182
-0.23682
-0.228997
-0.220726
-0.210024
-0.197941
-0.327594
-0.32642
-0.322814
-0.316691
-0.307552
-0.29526
-0.280813
-0.265782
-0.251296
-0.237803
-0.225058
-0.212916
-0.201198
-0.188976
-0.176455
-0.338615
-0.334984
-0.32989
-0.322879
-0.312522
-0.298164
-0.280985
-0.262821
-0.245096
-0.228515
-0.213329
-0.199231
-0.185591
-0.17192
-0.158528
-0.353107
-0.346533
-0.339164
-0.329904
-0.316193
-0.298044
-0.277488
-0.256644
-0.236813
-0.218529
-0.201651
-0.185936
-0.17118
-0.157234
-0.14425
-0.372531
-0.362286
-0.352217
-0.338441
-0.318925
-0.295763
-0.271755
-0.248636
-0.227183
-0.20754
-0.189654
-0.173336
-0.158131
-0.143986
-0.130547
-0.398042
-0.382378
-0.36837
-0.347159
-0.319987
-0.291373
-0.263967
-0.238755
-0.215934
-0.195414
-0.176906
-0.160069
-0.14473
-0.130698
-0.117465
-0.427478
-0.406033
-0.384019
-0.352787
-0.317548
-0.283729
-0.253167
-0.226045
-0.202069
-0.180828
-0.161983
-0.14524
-0.130213
-0.116672
-0.103944
-0.454387
-0.428926
-0.394737
-0.352049
-0.309353
-0.271029
-0.237791
-0.209143
-0.184369
-0.162861
-0.144104
-0.127691
-0.113373
-0.10075
-0.0893298
-0.442253
-0.445002
-0.44701
-0.450418
-0.454585
-0.461029
-0.466196
-0.469318
-0.469324
-0.465687
-0.459051
-0.451579
-0.446571
-0.446861
-0.448883
-0.409431
-0.410539
-0.409616
-0.408711
-0.407862
-0.406879
-0.404882
-0.401762
-0.397779
-0.393979
-0.392173
-0.394515
-0.403748
-0.424145
-0.442053
-0.383226
-0.382905
-0.380049
-0.376124
-0.371393
-0.365711
-0.358759
-0.351855
-0.345844
-0.342241
-0.343559
-0.351935
-0.367065
-0.395501
-0.420269
-0.362545
-0.361484
-0.357597
-0.351727
-0.344309
-0.335884
-0.323997
-0.314921
-0.307447
-0.303716
-0.305471
-0.316126
-0.331233
-0.35979
-0.385843
-0.345864
-0.344932
-0.340581
-0.333215
-0.323174
-0.311314
-0.298385
-0.286585
-0.277319
-0.272921
-0.274188
-0.2854
-0.300935
-0.325861
-0.350362
-0.332315
-0.332064
-0.327606
-0.319216
-0.307037
-0.292729
-0.277966
-0.26486
-0.255411
-0.251966
-0.254876
-0.265836
-0.280914
-0.299497
-0.316672
-0.322224
-0.322699
-0.318339
-0.309568
-0.296921
-0.281915
-0.267476
-0.2554
-0.24747
-0.244742
-0.247514
-0.25472
-0.263983
-0.273152
-0.277924
-0.317598
-0.318491
-0.31457
-0.306649
-0.29518
-0.282112
-0.268998
-0.257709
-0.249656
-0.245115
-0.244035
-0.243977
-0.243647
-0.241137
-0.235567
-0.48835
-0.552729
-0.512111
-0.388436
-0.259696
-0.188646
-0.168485
-0.183693
-0.191733
-0.169478
-0.148755
-0.142365
-0.124868
-0.101263
-0.103398
-0.128736
-0.14286
-0.126157
-0.101637
-0.106559
-0.128265
-0.127813
-0.109606
-0.132269
-0.146858
-0.14898
-0.120218
-0.130289
-0.0899489
-0.06969
-0.0240806
-0.0120936
-0.0101646
-0.00771455
0.00111001
-0.00229092
-0.00332633
0.000266067
-0.499223
-0.582526
-0.54043
-0.405253
-0.270047
-0.186369
-0.155168
-0.148062
-0.140694
-0.131798
-0.135572
-0.139746
-0.12311
-0.101715
-0.104298
-0.127059
-0.140433
-0.12712
-0.106603
-0.116312
-0.138142
-0.13112
-0.102018
-0.115064
-0.125347
-0.144274
-0.13697
-0.145737
-0.0887081
-0.067904
-0.0266227
-0.0138605
-0.010229
-0.00844693
0.000451971
-0.00238583
-0.0032138
0.000144617
-0.473406
-0.56517
-0.533171
-0.404101
-0.269011
-0.18211
-0.146732
-0.125602
-0.10396
-0.0994317
-0.123011
-0.135679
-0.121539
-0.103856
-0.106845
-0.125525
-0.136405
-0.12642
-0.110286
-0.124765
-0.147007
-0.133036
-0.0935821
-0.0981322
-0.103981
-0.135156
-0.150001
-0.157597
-0.0860163
-0.0648397
-0.0289917
-0.0156564
-0.0105029
-0.00923844
-0.000117372
-0.00249709
-0.00314592
8.35738e-06
-0.42685
-0.51169
-0.487126
-0.375706
-0.257637
-0.175297
-0.140084
-0.115954
-0.0876434
-0.0801071
-0.113791
-0.133104
-0.121636
-0.108601
-0.112317
-0.124093
-0.131008
-0.123591
-0.11227
-0.131613
-0.154993
-0.134968
-0.0854058
-0.0828241
-0.0845041
-0.122504
-0.159194
-0.165757
-0.0826871
-0.0608902
-0.0310748
-0.0174104
-0.0110736
-0.0100777
-0.000577891
-0.00261306
-0.00312636
-0.000139107
-0.375602
-0.438789
-0.421406
-0.335343
-0.242561
-0.170662
-0.134206
-0.111841
-0.0882822
-0.0800847
-0.112926
-0.132943
-0.122767
-0.116926
-0.119553
-0.124162
-0.125405
-0.118388
-0.112094
-0.136162
-0.161783
-0.13634
-0.0783069
-0.0698338
-0.0677857
-0.107547
-0.165011
-0.169355
-0.0793587
-0.0560784
-0.0327344
-0.0189914
-0.0119911
-0.0109608
-0.000883203
-0.00271643
-0.00315912
-0.000287418
-0.325341
-0.362132
-0.352171
-0.293195
-0.225421
-0.166136
-0.129441
-0.10805
-0.0918437
-0.0893844
-0.121974
-0.13588
-0.124917
-0.122062
-0.123827
-0.121502
-0.118297
-0.110936
-0.109297
-0.137793
-0.167774
-0.138325
-0.0734193
-0.0595309
-0.0539707
-0.0909563
-0.167543
-0.168171
-0.07666
-0.051117
-0.0340387
-0.0203375
-0.0132807
-0.0119028
-0.00106193
-0.00278934
-0.00323801
-0.000434928
-0.270639
-0.292375
-0.291679
-0.258377
-0.211061
-0.162118
-0.125932
-0.104773
-0.0889416
-0.0993295
-0.130476
-0.139922
-0.122162
-0.123911
-0.126937
-0.122802
-0.113634
-0.102189
-0.102921
-0.136025
-0.168661
-0.137235
-0.0694606
-0.0522743
-0.0434779
-0.0721205
-0.167811
-0.161727
-0.0752271
-0.0460353
-0.0350056
-0.0212942
-0.0149101
-0.012916
-0.00117218
-0.00280898
-0.00336996
-0.000583887
-0.227768
-0.241208
-0.241003
-0.224129
-0.195135
-0.157572
-0.12563
-0.106161
-0.0805995
-0.0965682
-0.140237
-0.143032
-0.119384
-0.122245
-0.120238
-0.114891
-0.10632
-0.0919371
-0.0944925
-0.12953
-0.168182
-0.137832
-0.0678816
-0.0470209
-0.0340598
-0.0530451
-0.165348
-0.151948
-0.0756632
-0.0400351
-0.0352273
-0.0220023
-0.0168394
-0.0139279
-0.00126445
-0.00276967
-0.00355755
-0.000731537
-0.207534
-0.22013
-0.211116
-0.192437
-0.164785
-0.131362
-0.104541
-0.0879827
-0.0653823
-0.073163
-0.111934
-0.122729
-0.107111
-0.113875
-0.120675
-0.113519
-0.0961824
-0.0787295
-0.0873101
-0.120911
-0.155307
-0.130257
-0.0649831
-0.0421349
-0.0340737
-0.0431432
-0.153964
-0.136947
-0.0766229
-0.0389876
-0.0349579
-0.0217796
-0.0194009
-0.015627
-0.00119215
-0.00263594
-0.00387287
-0.000913779
-0.155276
-0.169277
-0.161229
-0.142566
-0.120584
-0.0962008
-0.0769642
-0.0643537
-0.0445532
-0.0475924
-0.0756331
-0.078233
-0.0794777
-0.0967633
-0.110946
-0.0933346
-0.0735949
-0.0574698
-0.0683364
-0.11016
-0.151872
-0.119744
-0.0535598
-0.0291854
-0.0181892
-0.0273316
-0.134894
-0.127911
-0.0693486
-0.0356113
-0.0337385
-0.022227
-0.0224587
-0.0180088
-0.0010594
-0.00257444
-0.0043153
-0.00113701
-0.121676
-0.135394
-0.130926
-0.117069
-0.100209
-0.0805043
-0.0618799
-0.046262
-0.020268
-0.000460756
0.000296945
0.00916078
-0.0241361
-0.0679063
-0.0869772
-0.071303
-0.0529481
-0.0372118
-0.0431742
-0.0814195
-0.121546
-0.0947089
-0.0345585
-0.0174207
-0.0115856
-0.011387
-0.111796
-0.106587
-0.0570248
-0.0333995
-0.0323234
-0.0217539
-0.0253829
-0.0210268
-0.00114774
-0.00251912
-0.00478269
-0.00139454
-0.0938639
-0.103851
-0.100602
-0.0884139
-0.0719497
-0.0543117
-0.0382195
-0.0229788
-0.000650657
0.0213423
0.0415006
0.0560264
0.0213576
-0.0305793
-0.046568
-0.0414105
-0.0266512
-0.0132679
-0.0143553
-0.0456417
-0.0804638
-0.0585634
-0.0187769
-0.0114834
-0.0016639
0.00463709
-0.0821628
-0.0742577
-0.0434739
-0.0312437
-0.029889
-0.0206031
-0.0282925
-0.0243642
-0.00157961
-0.00257971
-0.00525353
-0.00166686
-0.0680004
-0.0764222
-0.0753818
-0.0665583
-0.0546417
-0.0413334
-0.0276157
-0.0139448
0.00721605
0.0308686
0.052519
0.0616594
0.0407898
0.000458613
-0.0192973
-0.0191008
-0.0111504
-7.39442e-06
0.0104962
-0.00376796
-0.0230501
-0.0211266
-0.0102178
-0.0112507
0.00166323
0.0136777
-0.044361
-0.0316173
-0.0265624
-0.0268854
-0.025544
-0.0189862
-0.030536
-0.0276911
-0.00247851
-0.00295532
-0.00569827
-0.00193907
-0.0482965
-0.0555849
-0.0553296
-0.0489091
-0.0392635
-0.0279521
-0.0156549
-0.00322455
0.0129814
0.0304535
0.0434318
0.0522464
0.0422562
0.0175163
1.09859e-05
-0.00209587
0.00621567
0.012568
0.0222746
0.0139753
-0.000776255
0.000607479
-0.00591305
-0.0106914
0.00609154
0.0164706
-0.00996356
0.00973025
-0.00711656
-0.0194167
-0.0181909
-0.0152823
-0.0310777
-0.031362
-0.00405087
-0.00369698
-0.00607447
-0.00222933
-0.0333651
-0.0384684
-0.0385123
-0.0339129
-0.0265605
-0.0180111
-0.0086383
0.000841623
0.0123744
0.0251296
0.0350158
0.0408782
0.0364966
0.0234334
0.0116542
0.00786537
0.0123236
0.0165423
0.0260484
0.0227139
0.0114793
0.0106404
0.00058432
-0.00449806
0.00924979
0.0166574
0.0149544
0.0338711
0.00863542
-0.0119172
-0.00861059
-0.00910891
-0.0287016
-0.0341185
-0.00638646
-0.00490141
-0.00622462
-0.00238661
-0.0205837
-0.0246937
-0.0252726
-0.0221942
-0.0168182
-0.0104521
-0.003361
0.00395904
0.0122869
0.0212358
0.027936
0.0318528
0.030078
0.0241559
0.0172085
0.014156
0.0183014
0.0208563
0.0254263
0.0232925
0.0149123
0.0139795
0.00769651
0.00511342
0.0130244
0.017756
0.0224979
0.0354866
0.0173589
-0.00323835
9.39947e-05
-0.00311274
-0.0227265
-0.0307979
-0.0082897
-0.00642105
-0.00604296
-0.002369
-0.0109691
-0.0142546
-0.0148614
-0.0127923
-0.0089561
-0.00435492
0.000787478
0.00603947
0.0116914
0.0174635
0.0222084
0.0252021
0.0250229
0.0229046
0.0196072
0.0170426
0.019069
0.0206464
0.0230372
0.0225015
0.0172723
0.0156776
0.0120337
0.0101906
0.0154717
0.0187154
0.0226755
0.0320492
0.020661
0.00493849
0.00640614
0.00222477
-0.0131485
-0.020292
-0.00709711
-0.00611
-0.00548707
-0.00241117
-0.00366384
-0.00605354
-0.0066308
-0.005361
-0.00275816
0.000426574
0.00401963
0.00766842
0.0115198
0.0154837
0.0186168
0.0209334
0.021361
0.0207421
0.0196355
0.0183372
0.019747
0.0209102
0.0217348
0.0211707
0.0179043
0.0166691
0.014422
0.0137781
0.0174827
0.0190522
0.020528
0.0273238
0.0210137
0.0105717
0.0100516
0.00599642
-0.00399311
-0.0092922
-0.00273731
-0.0029216
-0.00415238
-0.00222267
0.00222437
0.000362791
-0.000256536
0.000431714
0.00212905
0.00429262
0.00671803
0.00917003
0.0116822
0.0142379
0.0164406
0.0181951
0.0189481
0.0191596
0.0191652
0.0185876
0.0192153
0.0198551
0.0202775
0.0198246
0.01791
0.0171545
0.0156881
0.0148437
0.0176863
0.0188195
0.0192846
0.0233105
0.0200294
0.0131402
0.0121063
0.00825799
0.00220999
-0.00162292
0.00170414
0.00156441
-0.00193887
-0.00147006
0.00666895
0.00519718
0.00463948
0.00499607
0.00605609
0.00745785
0.0090226
0.0106062
0.0122093
0.013829
0.0153594
0.0166524
0.017461
0.0179023
0.0182184
0.0182277
0.018649
0.0191258
0.0192752
0.0189102
0.0177703
0.0172319
0.0164443
0.0159992
0.017632
0.0183759
0.0182451
0.0201662
0.0184402
0.0138658
0.0113992
0.00919395
0.00532995
0.0024393
0.00439246
0.00428517
3.90019e-05
-0.000644838
0.0100658
0.00893725
0.00842227
0.00854006
0.00915488
0.0100314
0.0110193
0.0120117
0.0130211
0.014082
0.0150595
0.0159491
0.0166066
0.0170969
0.0175267
0.017775
0.0180486
0.0182915
0.0184072
0.0181546
0.0174951
0.0171149
0.0166522
0.0163255
0.0170781
0.0174919
0.0173513
0.0179939
0.0167566
0.0136685
0.0117089
0.00956075
0.00658883
0.00405137
0.00526571
0.00503313
0.00129483
-7.30222e-05
0.0126871
0.0118072
0.0113314
0.0112871
0.0115984
0.0121189
0.0127106
0.0132891
0.0138728
0.0145034
0.0151389
0.015723
0.016203
0.0166163
0.0169892
0.0172624
0.0174775
0.0176295
0.0177285
0.0175675
0.0171688
0.0169049
0.0165999
0.0164105
0.0167059
0.0167203
0.0164769
0.0165068
0.0153931
0.0132237
0.0116089
0.00971491
0.00721268
0.0051613
0.00527496
0.00477774
0.0019142
0.000267987
0.0146612
0.0139727
0.0135529
0.0134239
0.0135382
0.0138038
0.0141186
0.0144247
0.0147302
0.0150688
0.0154338
0.0157896
0.0160949
0.0163751
0.0166534
0.0168694
0.0170297
0.0171083
0.0171649
0.0170727
0.0168155
0.0166177
0.0163835
0.0161341
0.0161398
0.0159482
0.0155882
0.0152947
0.0143241
0.0126037
0.0112091
0.00964092
0.00747994
0.00565412
0.00501663
0.00421043
0.0021214
0.000469322
0.0161478
0.0156117
0.0152444
0.0150655
0.0150523
0.01515
0.0152822
0.0154033
0.0155188
0.0156611
0.0158376
0.0160148
0.0161713
0.0163207
0.0164804
0.0166085
0.016692
0.0167159
0.0167259
0.0166495
0.0164615
0.0162629
0.0160459
0.015772
0.0156054
0.0153076
0.0148308
0.0143546
0.01351
0.0120963
0.0108043
0.00948421
0.0076344
0.00594853
0.00489162
0.00381104
0.00218849
0.000608206
0.0172537
0.0168309
0.0165108
0.0163115
0.0162219
0.016209
0.0162172
0.016215
0.0162067
0.0162191
0.0162603
0.016305
0.0163422
0.0163784
0.0164318
0.016468
0.0164725
0.0164369
0.0163896
0.0162885
0.0161158
0.015903
0.0156816
0.0153757
0.0150872
0.0147119
0.0141901
0.0135963
0.0128259
0.0116484
0.010426
0.00926194
0.00767487
0.00611942
0.00483127
0.00356406
0.00215099
0.000676152
0.0180606
0.0177261
0.0174494
0.0172451
0.0171087
0.0170232
0.0169501
0.016869
0.0167812
0.0167069
0.0166525
0.0166012
0.0165483
0.0164956
0.0164588
0.0164102
0.0163405
0.0162443
0.0161409
0.0159962
0.015804
0.0155655
0.0153101
0.014977
0.0146207
0.014188
0.0136506
0.0130039
0.0122648
0.011268
0.0101338
0.00904
0.00766402
0.00625345
0.00488596
0.00348923
0.00212837
0.000710484
0.018637
0.0183678
0.0181268
0.0179252
0.0177629
0.0176317
0.0175065
0.0173751
0.0172366
0.017106
0.0169864
0.0168676
0.0167483
0.0166279
0.0165194
0.0164001
0.0162662
0.0161136
0.0159529
0.0157636
0.0155338
0.0152666
0.0149738
0.0146125
0.0142196
0.0137415
0.0132016
0.0125401
0.0118075
0.010928
0.00988913
0.00885625
0.00763256
0.0063742
0.00499882
0.00352391
0.00214608
0.00074023
0.0190358
0.0188134
0.0186012
0.018406
0.0182311
0.018071
0.0179142
0.0177502
0.0175823
0.0174146
0.017253
0.0170871
0.0169205
0.0167512
0.0165878
0.0164149
0.0162274
0.0160276
0.0158153
0.0155846
0.0153167
0.0150178
0.0146903
0.014302
0.0138822
0.0133801
0.0128321
0.0121761
0.01145
0.0106356
0.00966999
0.00869603
0.00756352
0.00640814
0.00509427
0.0036439
0.00222792
0.000771223
0.0192992
0.0191082
0.0189168
0.0187292
0.0185488
0.0183725
0.0181965
0.0180134
0.0178274
0.0176376
0.0174486
0.017253
0.0170539
0.0168514
0.0166474
0.0164356
0.016209
0.0159706
0.0157197
0.0154495
0.0151518
0.0148223
0.014465
0.0140565
0.0136147
0.0130996
0.0125413
0.0118951
0.0111733
0.0103883
0.00947384
0.00851072
0.00743347
0.0062921
0.00499982
0.0036038
0.00220277
0.000754715
0.0194547
0.0192836
0.0191066
0.0189263
0.0187441
0.0185598
0.0183725
0.0181799
0.0179835
0.017782
0.0175767
0.0173635
0.017145
0.0169204
0.0166915
0.0164531
0.0162016
0.015936
0.0156568
0.0153586
0.0150392
0.0146855
0.0143084
0.0138811
0.0134238
0.0129044
0.0123348
0.011698
0.0109813
0.0102071
0.00931927
0.00837353
0.00732031
0.00618735
0.00495958
0.00361347
0.00221615
0.00075988
0.0195257
0.0193645
0.0191952
0.0190192
0.0188374
0.0186502
0.0184584
0.0182614
0.0180606
0.0178536
0.0176408
0.0174193
0.0171913
0.0169556
0.0167137
0.0164615
0.0161976
0.0159175
0.0156237
0.01531
0.0149779
0.0146133
0.014223
0.013788
0.0133199
0.0127981
0.0122235
0.0115882
0.0108752
0.0101048
0.00923459
0.00829278
0.00725799
0.00613593
0.00492047
0.00359778
0.00220789
0.00075208
-0.0754593
-0.0873296
-0.0996809
-0.111981
-0.126268
-0.14012
-0.157723
-0.178726
-0.06094
-0.0698476
-0.079114
-0.0886934
-0.0992862
-0.109301
-0.119741
-0.132766
-0.0469249
-0.0531107
-0.0592544
-0.0658624
-0.0731936
-0.0801674
-0.0884462
-0.100259
-0.0356438
-0.0399322
-0.0441872
-0.0488666
-0.054602
-0.0607402
-0.0690042
-0.0788457
-0.0257651
-0.0288566
-0.0320003
-0.0357698
-0.0406599
-0.0456608
-0.0509542
-0.0571001
-0.0176028
-0.0197758
-0.0221043
-0.0248033
-0.0279214
-0.0306812
-0.0339226
-0.0390783
-0.0106251
-0.0119944
-0.0133623
-0.0148708
-0.0167328
-0.0189379
-0.0222614
-0.026765
-0.00451298
-0.00525841
-0.00603186
-0.00714537
-0.00885056
-0.0109295
-0.0132416
-0.0160331
0.000551
6.78309e-05
-0.000490254
-0.00133734
-0.00247049
-0.00361615
-0.0050043
-0.00722813
0.00475483
0.00447805
0.00419954
0.00376507
0.00310285
0.00224397
0.000971042
-0.000891753
0.00832752
0.00817611
0.00803269
0.00774604
0.00722129
0.00650741
0.00556234
0.00423258
0.0112206
0.0110984
0.0109923
0.0107957
0.0104436
0.00996085
0.00927894
0.00823664
0.0135695
0.0134549
0.0133735
0.0132449
0.0130029
0.0126332
0.0120832
0.0112574
0.0154435
0.0153174
0.0152263
0.015113
0.014922
0.0146324
0.0142095
0.0135837
0.0168932
0.0167519
0.0166433
0.0165332
0.016379
0.0161554
0.0158286
0.0153472
0.0179972
0.0178467
0.017723
0.0176082
0.0174711
0.0172887
0.0170323
0.0166662
0.0188144
0.01866
0.0185262
0.0184064
0.01828
0.018128
0.0179258
0.0176478
0.0194058
0.0192538
0.0191167
0.0189944
0.0188738
0.0187401
0.018575
0.0183611
0.0198219
0.0196756
0.0195396
0.0194164
0.0192989
0.0191769
0.0190377
0.0188697
0.0201006
0.0199628
0.0198314
0.0197102
0.0195954
0.019481
0.0193588
0.0192221
0.0202721
0.0201452
0.0200214
0.0199046
0.0197927
0.0196835
0.0195719
0.0194552
0.0203646
0.0202475
0.0201319
0.0200198
0.0199106
0.0198043
0.0196986
0.0195926
0.0203972
0.0202883
0.0201792
0.0200712
0.0199644
0.0198598
0.0197568
0.0196553
0.0758407
0.0796194
0.08318
0.0860506
0.0874108
0.0870275
0.0847554
0.0800822
0.0720458
0.0592505
0.0397761
0.01096
-0.0315349
-0.0910624
-0.144382
0.0546259
0.0563086
0.0563863
0.0551443
0.0524513
0.0479765
0.0412364
0.0314705
0.017583
-0.00191824
-0.0290685
-0.0665122
-0.118426
-0.189129
-0.246337
0.033014
0.0325244
0.0291809
0.0242564
0.0180096
0.00990241
-0.000840627
-0.0151322
-0.0341235
-0.0593646
-0.0930199
-0.137803
-0.196886
-0.275866
-0.331344
0.0111447
0.00807284
0.00177311
-0.00596445
-0.0150367
-0.0262206
-0.0404126
-0.0585453
-0.0817597
-0.111568
-0.15031
-0.200784
-0.265411
-0.345081
-0.397489
-0.010934
-0.0166848
-0.0250895
-0.0347389
-0.0459776
-0.0597012
-0.0766994
-0.0978538
-0.124291
-0.157369
-0.199543
-0.253579
-0.320161
-0.396485
-0.443686
-0.0324359
-0.040633
-0.0504633
-0.0615058
-0.0744656
-0.0901829
-0.10926
-0.132534
-0.161065
-0.196274
-0.240179
-0.294827
-0.360093
-0.429916
-0.470278
-0.053021
-0.0627947
-0.0735775
-0.0857943
-0.10023
-0.117446
-0.137963
-0.162502
-0.192038
-0.227851
-0.271517
-0.324312
-0.385147
-0.445347
-0.479129
-0.0724456
-0.0827785
-0.0944076
-0.107759
-0.123319
-0.14154
-0.16286
-0.187867
-0.217389
-0.252455
-0.294189
-0.342985
-0.396221
-0.444116
-0.472967
0.189617
0.204522
0.221113
0.239845
0.260803
0.283894
0.309017
0.336119
0.365124
0.395778
0.427494
0.459095
0.488579
0.511917
0.531113
0.188975
0.203253
0.219215
0.237389
0.257795
0.280221
0.304502
0.330573
0.358362
0.387594
0.41763
0.44722
0.474264
0.494788
0.511215
0.184207
0.197027
0.211723
0.228799
0.248061
0.269092
0.291613
0.315514
0.34068
0.366779
0.393081
0.418221
0.439908
0.454334
0.464944
0.175309
0.186066
0.199027
0.214467
0.231875
0.250661
0.270496
0.291223
0.312631
0.334241
0.35514
0.37377
0.387536
0.392762
0.395151
0.162323
0.170639
0.18171
0.195343
0.210467
0.226275
0.242461
0.258918
0.275393
0.291253
0.30535
0.315863
0.319826
0.313423
0.305645
0.145608
0.151079
0.160047
0.171644
0.184185
0.196666
0.208765
0.220356
0.231101
0.240217
0.246355
0.247452
0.240182
0.220547
0.200487
0.125393
0.128682
0.13582
0.144853
0.153984
0.162445
0.169995
0.176393
0.181069
0.18301
0.180648
0.171679
0.152458
0.11897
0.0860394
0.101782
0.103891
0.109997
0.11641
0.12174
0.125691
0.128245
0.129069
0.127364
0.121887
0.11085
0.0917021
0.0604432
0.0133112
-0.0313937
0.0285677
0.0330117
0.0293388
0.033262
0.0308112
0.0351225
0.0333783
0.0377646
0.0371242
0.0416207
0.0424097
0.0472197
0.0497566
0.0554264
0.0601395
0.0674249
0.074937
0.0849245
0.0960913
0.110152
0.12625
0.146
0.168789
0.0286428
0.0330557
0.029433
0.0333194
0.0309343
0.0351931
0.0335356
0.0378858
0.0373243
0.0418022
0.0427104
0.0474875
0.0501346
0.0559322
0.0606478
0.0680112
0.0756085
0.0856493
0.0968454
0.110984
0.126895
0.146558
0.168869
0.0287278
0.0330743
0.0295409
0.0333461
0.0310815
0.0352293
0.0337251
0.0379736
0.0375381
0.0419415
0.0430444
0.0476933
0.0505262
0.0562522
0.0610561
0.068404
0.0760252
0.0860488
0.0970007
0.110965
0.126264
0.14533
0.166095
0.0288213
0.0330694
0.0296609
0.0333451
0.0312464
0.0352374
0.0339382
0.0380311
0.0378669
0.0420677
0.0433996
0.04795
0.0509818
0.056716
0.0615377
0.0690196
0.0764573
0.086538
0.0969747
0.110587
0.124663
0.142417
0.160372
0.0289225
0.0330436
0.0298054
0.0333208
0.0314277
0.0352228
0.0341694
0.0380581
0.0381353
0.0421551
0.043744
0.0480382
0.0513224
0.0568999
0.0617767
0.0690954
0.0763396
0.0860777
0.0959651
0.10881
0.1214
0.137336
0.151475
0.0290274
0.0329995
0.0299499
0.0332782
0.0316183
0.0351973
0.0344113
0.038075
0.0384655
0.0422917
0.0441512
0.0484066
0.0518931
0.0574568
0.0622876
0.0699014
0.0767214
0.0865293
0.0954128
0.107453
0.117614
0.130791
0.139776
0.0291383
0.0329401
0.0300997
0.0332239
0.0318106
0.035154
0.0346508
0.0380644
0.0387151
0.0423406
0.0444228
0.0482681
0.052122
0.0574271
0.0622303
0.0694099
0.0760111
0.0849452
0.093151
0.103515
0.111756
0.121597
0.125004
0.0292507
0.0328724
0.0302471
0.0331663
0.0320151
0.0351414
0.0349015
0.0381258
0.039117
0.0425956
0.044977
0.0491698
0.0528132
0.0583959
0.0630635
0.0706803
0.0766653
0.0858058
0.0923171
0.101583
0.105742
0.111088
0.106899
0.0293823
0.0327693
0.0304371
0.0330514
0.032232
0.0350209
0.0351579
0.037987
0.0392948
0.0425039
0.0450579
0.0487797
0.0526934
0.0576237
0.0623084
0.0688128
0.0743484
0.0811738
0.0867331
0.0916798
0.0935226
0.0915756
0.0823021
0.0295531
0.0326093
0.0306787
0.0328771
0.0324803
0.0347954
0.0353821
0.0376654
0.0393619
0.0420571
0.0447941
0.048055
0.0518387
0.0559468
0.0603002
0.0653054
0.0699686
0.0743119
0.0780129
0.07929
0.0786853
0.0734567
0.0656958
0.0297583
0.0323868
0.030955
0.0326452
0.0327583
0.034486
0.0356194
0.0373271
0.0393768
0.0416267
0.0444229
0.0472163
0.0507769
0.0541138
0.0579854
0.061615
0.0651931
0.0675431
0.0692255
0.0684477
0.065638
0.0599017
0.0523511
0.029999
0.0320932
0.0312682
0.0323658
0.033031
0.034222
0.0357346
0.0370513
0.039275
0.0411041
0.0438501
0.0462602
0.0493895
0.0520501
0.0552374
0.0576469
0.0599927
0.0608688
0.0607848
0.0587311
0.0546835
0.0486407
0.0413054
0.030279
0.0317235
0.0315825
0.0321417
0.0332008
0.0340139
0.0357445
0.036792
0.0390123
0.0405725
0.0430415
0.0451647
0.0476714
0.049737
0.0521323
0.0534763
0.0546473
0.0544362
0.0530656
0.0502627
0.0457871
0.0397844
0.0327465
0.0305954
0.0313351
0.0318063
0.0319889
0.0332971
0.0338369
0.035633
0.0365122
0.0385867
0.039942
0.0420259
0.0438898
0.0457189
0.0471734
0.0488191
0.0492622
0.0494285
0.0484354
0.0463431
0.043137
0.038655
0.0329885
0.0264156
0.0309067
0.030988
0.0319215
0.031892
0.0333006
0.0336843
0.0353902
0.0361975
0.0380016
0.0391919
0.0408526
0.0424068
0.0435999
0.0444474
0.0454175
0.0451736
0.0445568
0.0430426
0.0406393
0.0373082
0.0330244
0.0278494
0.021895
0.0311849
0.0306967
0.0319486
0.0318317
0.0331981
0.0335383
0.0350267
0.0358114
0.0372874
0.0382998
0.0395476
0.0407302
0.0413766
0.0416963
0.0420625
0.0413434
0.040203
0.0383724
0.035898
0.0326781
0.0287404
0.0241477
0.0189273
0.0313991
0.0304836
0.0318741
0.0317916
0.032995
0.0333734
0.0345678
0.0353252
0.0364698
0.0372644
0.0381368
0.038923
0.0391215
0.0390177
0.0388885
0.0378714
0.0364321
0.0344662
0.0320729
0.029125
0.025639
0.0216674
0.0172088
0.031532
0.0303595
0.0316972
0.0317504
0.0327076
0.0331446
0.0340472
0.0347243
0.0355634
0.0361144
0.0366555
0.0370631
0.0369086
0.0364941
0.0360008
0.0348204
0.033264
0.0313158
0.0290989
0.0264982
0.0235107
0.0201626
0.0164351
0.03157
0.0303199
0.0314355
0.031673
0.0323733
0.0328287
0.0334808
0.034017
0.0345828
0.0348875
0.0351432
0.0352272
0.0348151
0.0341916
0.0334606
0.0322218
0.0306813
0.0288585
0.026873
0.0246388
0.0221442
0.0193878
0.0163336
0.0315073
0.0303479
0.0311208
0.0315036
0.0320157
0.0324244
0.0328722
0.0332315
0.0335528
0.0336306
0.0336476
0.033483
0.0328994
0.0321507
0.0312943
0.0300749
0.028633
0.0269976
0.025269
0.0233882
0.0213417
0.0191118
0.0166501
0.0313491
0.0304076
0.0308092
0.03121
0.0316236
0.0319494
0.0322239
0.0324043
0.0325094
0.0323973
0.0322218
0.0318764
0.0311924
0.0303911
0.0294988
0.0283509
0.0270504
0.025627
0.0241559
0.0225958
0.0209346
0.0191468
0.0171777
0.0311134
0.0304397
0.0305449
0.030823
0.0311694
0.0314029
0.0315366
0.0315655
0.0314921
0.0312297
0.0309046
0.0304376
0.0297137
0.0289159
0.0280495
0.0270047
0.0258606
0.0246459
0.0234142
0.022135
0.020797
0.019373
0.0178091
0.0308228
0.030375
0.0303159
0.0304526
0.0306725
0.030792
0.0308149
0.0307323
0.0305299
0.0301574
0.0297243
0.0291845
0.0284639
0.0277061
0.0269037
0.0259769
0.0249852
0.0239595
0.0229402
0.021904
0.0208374
0.0197122
0.0184775
0.0305045
0.0302161
0.0300951
0.0300948
0.0301578
0.0301581
0.0300811
0.029913
0.0296284
0.0291943
0.0287
0.0281283
0.0274366
0.0267365
0.0260139
0.0252041
0.0243494
0.0234842
0.0226442
0.0218128
0.0209716
0.0200891
0.0191182
0.030176
0.0299795
0.0298361
0.0297363
0.0296576
0.0295424
0.0293741
0.0291368
0.0287998
0.0283422
0.027832
0.0272631
0.0266155
0.0259768
0.0253338
0.0246315
0.0238957
0.023162
0.0224664
0.0218003
0.0211418
0.0204555
0.0196981
0.0298486
0.0296981
0.0295355
0.0293691
0.0291888
0.0289738
0.0287242
0.0284294
0.0280583
0.0276
0.0271038
0.0265624
0.0259665
0.0253869
0.0248165
0.0242101
0.0235785
0.0229524
0.0223688
0.0218287
0.0213116
0.0207803
0.0201955
0.0295274
0.0293942
0.0292145
0.0290028
0.0287553
0.0284691
0.0281566
0.0278149
0.0274192
0.0269695
0.0265012
0.0260007
0.025459
0.0249337
0.0244266
0.0239028
0.0233603
0.0228207
0.0223213
0.0218722
0.0214593
0.0210476
0.0206013
0.0292241
0.0290956
0.028899
0.0286545
0.028364
0.0280318
0.0276798
0.0273061
0.0268929
0.0264518
0.0260106
0.0255549
0.0250694
0.0245956
0.0241436
0.0236897
0.0232228
0.0227543
0.0223176
0.0219308
0.0215883
0.021262
0.0209197
0.0289578
0.0288283
0.0286193
0.0283517
0.0280323
0.0276717
0.0272969
0.0269073
0.0264842
0.0260444
0.0256174
0.0251976
0.0247662
0.0243421
0.0239374
0.0235396
0.0231377
0.0227339
0.0223494
0.022005
0.0217057
0.0214356
0.0211699
0.0287486
0.0286158
0.0283981
0.0281176
0.0277826
0.0274054
0.0270163
0.0266237
0.0262071
0.025773
0.0253512
0.0249551
0.0245692
0.0241876
0.0238137
0.023446
0.0230811
0.0227189
0.0223716
0.0220554
0.0217798
0.0215392
0.0213174
0.028636
0.0285023
0.0282762
0.0279835
0.0276365
0.027247
0.0268478
0.0264544
0.0260444
0.0256153
0.0251973
0.024814
0.0244544
0.0240994
0.0237454
0.0233978
0.0230597
0.0227313
0.0224169
0.0221255
0.0218663
0.0216418
0.0214458
0.0695441
0.0514682
0.0290873
0.00894669
-0.00975842
-0.0280546
-0.0459284
-0.0618012
0.0571012
0.040511
0.0185597
-0.000389694
-0.0150975
-0.027824
-0.0402703
-0.0511632
0.0459139
0.0331
0.0143571
-0.00211799
-0.0130203
-0.021673
-0.030671
-0.0394275
0.0357882
0.0259867
0.0106374
-0.00328962
-0.0118995
-0.018097
-0.0243078
-0.0303663
0.0273457
0.0198838
0.00844942
-0.00194799
-0.00851888
-0.0131053
-0.017505
-0.0218718
0.0210449
0.0149982
0.00714793
-4.1984e-08
-0.00496451
-0.00857949
-0.0118365
-0.0148922
0.016844
0.0119982
0.00684929
0.0022125
-0.0013538
-0.00416421
-0.00662001
-0.00878834
0.0144065
0.0106161
0.00736477
0.00450791
0.00207249
-4.11126e-05
-0.00187182
-0.00337959
0.013313
0.0104151
0.00846089
0.00681521
0.00523713
0.00371038
0.0023644
0.00130093
0.0131716
0.0109951
0.00989954
0.00904625
0.00807909
0.00701053
0.00602497
0.00525756
0.0136661
0.0120573
0.0115116
0.0111568
0.0106099
0.00989493
0.00919659
0.008658
0.0145181
0.0133496
0.013144
0.013096
0.0128331
0.0123728
0.0118745
0.0114734
0.0154913
0.0146448
0.0146317
0.0147759
0.0147258
0.0144582
0.0141022
0.0137856
0.0164895
0.0158813
0.0159703
0.0162057
0.0162797
0.0161455
0.0158963
0.0156414
0.0174483
0.0170078
0.0171348
0.0173886
0.0175149
0.0174617
0.0172886
0.01708
0.0183189
0.017995
0.0181187
0.0183486
0.0184826
0.0184703
0.0183467
0.0181731
0.0190806
0.0188356
0.0189317
0.0191137
0.0192272
0.0192267
0.0191303
0.0189802
0.0197216
0.01953
0.0195862
0.0197088
0.0197857
0.0197787
0.0196945
0.0195607
0.0202418
0.0200873
0.020102
0.020164
0.0201972
0.0201724
0.0200899
0.0199663
0.0206469
0.020518
0.0204956
0.0205026
0.0204914
0.0204424
0.0203539
0.0202357
0.0209613
0.0208451
0.0207852
0.0207398
0.0206842
0.0206086
0.0205112
0.0203969
0.02115
0.0210452
0.0209646
0.0208856
0.0207981
0.0207004
0.0205938
0.0204811
0.0212961
0.0211821
0.0210697
0.0209559
0.0208413
0.0207277
0.020616
0.0205062
-0.631062
-0.641232
-0.656919
-0.678076
-0.704733
-0.734559
-0.761684
-0.780196
-0.625561
-0.635377
-0.649891
-0.668113
-0.689155
-0.712288
-0.73389
-0.747379
-0.620496
-0.628869
-0.640866
-0.655179
-0.670339
-0.6834
-0.69069
-0.687814
-0.617101
-0.621979
-0.628618
-0.634852
-0.639263
-0.639586
-0.633337
-0.618091
-0.615855
-0.613467
-0.610491
-0.605716
-0.598862
-0.588912
-0.573975
-0.551787
-0.61363
-0.600302
-0.585868
-0.570829
-0.555561
-0.539021
-0.519037
-0.493128
-0.605449
-0.580106
-0.555584
-0.533255
-0.51282
-0.492518
-0.469805
-0.442161
-0.587293
-0.551926
-0.520934
-0.49474
-0.471763
-0.449695
-0.42579
-0.39763
-0.557406
-0.516552
-0.483359
-0.456143
-0.432605
-0.410163
-0.386175
-0.358372
-0.517139
-0.476133
-0.444107
-0.418002
-0.395288
-0.373513
-0.350257
-0.323463
-0.469958
-0.432796
-0.404315
-0.380652
-0.359777
-0.339423
-0.317467
-0.292186
-0.418999
-0.388589
-0.364739
-0.344462
-0.326063
-0.307621
-0.28742
-0.264012
-0.36793
-0.344436
-0.326087
-0.309682
-0.294093
-0.277975
-0.259814
-0.238606
-0.315617
-0.301122
-0.288734
-0.276575
-0.264075
-0.250319
-0.234399
-0.21552
-0.264561
-0.261003
-0.252802
-0.2457
-0.23547
-0.224086
-0.210349
-0.194196
-0.480909
-0.521356
-0.558205
-0.58702
-0.606249
-0.61698
-0.622134
-0.625543
-0.484977
-0.525664
-0.56154
-0.588374
-0.605188
-0.613701
-0.617406
-0.620204
-0.490615