/*--------------------------------*- C++ -*----------------------------------*\
| =========                 |                                                 |
| \\      /  F ield         | OpenFOAM: The Open Source CFD Toolbox           |
|  \\    /   O peration     | Version:  2512                                  |
|   \\  /    A nd           | Website:  www.openfoam.com                      |
|    \\/     M anipulation  |                                                 |
\*---------------------------------------------------------------------------*/
FoamFile
{
    version     2.0;
    format      ascii;
    arch        "LSB;label=32;scalar=64";
    class       volVectorField;
    location    "117";
    object      U;
}
// * * * * * * * * * * * * * * * * * * * * * * * * * * * * * * * * * * * * * //

dimensions      [0 1 -1 0 0 0 0];

internalField   nonuniform List<vector> 
13248
(
(-0.020161 0.0140619 3.50411e-20)
(-0.047939 0.0277209 0)
(-0.0651049 0.0311697 -6.07997e-20)
(-0.0666911 0.0308428 5.62995e-20)
(-0.0487688 0.0294805 5.16501e-20)
(-0.00755429 0.0282206 0)
(0.0602907 0.0276484 0)
(0.156544 0.0281861 1.1407e-19)
(0.28005 0.0303651 -2.00134e-21)
(0.425856 0.0344733 -9.47063e-20)
(0.585682 0.040349 8.41868e-20)
(0.749107 0.0473415 -5.17572e-20)
(0.905289 0.0543781 0)
(1.04457 0.0601609 -8.52196e-20)
(1.15972 0.0634474 1.5785e-19)
(1.24668 0.063356 -3.72099e-20)
(1.30493 0.0594089 -6.66368e-20)
(1.33754 0.0518924 6.21282e-20)
(1.35002 0.0415797 0)
(1.35013 0.0280344 0)
(1.34395 0.0165737 0)
(1.33721 -0.00537562 0)
(1.32851 -0.00883547 1.81741e-20)
(1.32016 -0.0497165 6.57007e-20)
(-0.0258277 0.0181239 -1.05581e-19)
(-0.0534445 0.0346516 6.68727e-20)
(-0.0604967 0.038625 -3.70342e-22)
(-0.0438725 0.0371334 -8.5558e-20)
(-3.41777e-05 0.033906 -5.15749e-20)
(0.0744092 0.0310458 -4.78445e-20)
(0.181293 0.0299242 -8.52549e-20)
(0.31866 0.0315585 7.9999e-20)
(0.479476 0.0363578 0)
(0.65215 0.0439991 7.61799e-22)
(0.822896 0.0534117 2.23149e-21)
(0.978608 0.0630066 5.29352e-20)
(1.1092 0.0710686 0)
(1.20897 0.0761547 0)
(1.27701 0.0774521 5.77046e-20)
(1.31669 0.0747531 -1.076e-19)
(1.33457 0.0686668 6.35183e-20)
(1.33841 0.0598306 -5.9223e-20)
(1.33538 0.0491869 -2.5692e-20)
(1.33007 0.0376008 -4.70488e-20)
(1.3238 0.0244911 -1.90798e-20)
(1.31718 0.0121135 -3.59408e-20)
(1.30613 0.000133377 5.22528e-20)
(1.2978 -0.0161548 1.45146e-20)
(-0.0291159 0.0192102 0)
(-0.0527175 0.0359873 0)
(-0.0451352 0.0401306 3.07796e-20)
(-0.0045975 0.0384318 2.79847e-20)
(0.0717368 0.0353376 -6.80164e-22)
(0.185656 0.0337974 -4.9464e-20)
(0.334633 0.0357312 0)
(0.509422 0.0419639 -3.94536e-20)
(0.694667 0.051984 3.63689e-20)
(0.872702 0.0641234 5.19358e-22)
(1.02809 0.0761215 -5.84232e-20)
(1.15081 0.0858239 -5.17547e-20)
(1.23745 0.0917393 1.6766e-21)
(1.29071 0.093326 -4.02255e-20)
(1.31764 0.0908825 9.70231e-20)
(1.3271 0.085299 0)
(1.3272 0.0775963 -6.06042e-20)
(1.32349 0.0684057 2.94601e-20)
(1.3185 0.0589512 2.56667e-20)
(1.31241 0.0477722 0)
(1.30518 0.0389956 2.07164e-20)
(1.29627 0.0255463 -6.89879e-20)
(1.28668 0.019727 6.4425e-20)
(1.27784 0.00324382 3.91053e-20)
(-0.0300135 0.0178668 -3.71021e-20)
(-0.045021 0.0321268 -3.54708e-20)
(-0.0176102 0.0356142 3.17085e-20)
(0.0530948 0.0346632 0)
(0.168405 0.034208 0)
(0.325521 0.0376182 -9.84824e-22)
(0.513218 0.0464603 0)
(0.711909 0.0600249 -1.20908e-19)
(0.899267 0.0758181 1.10025e-19)
(1.05711 0.0907155 -1.32589e-19)
(1.17562 0.10212 2.93456e-20)
(1.25394 0.10865 0)
(1.29825 0.110248 4.58307e-20)
(1.3183 0.107792 -8.34956e-20)
(1.32394 0.102527 1.97092e-20)
(1.32251 0.0955699 4.861e-20)
(1.31809 0.0875581 -2.63192e-21)
(1.31222 0.0791252 -5.26262e-20)
(1.30518 0.0698692 0)
(1.29741 0.0609126 0)
(1.28888 0.0510621 -1.79088e-20)
(1.28064 0.0411048 1.58071e-20)
(1.27116 0.0339415 5.60742e-20)
(1.26312 0.0195674 -5.23475e-20)
(-0.0285083 0.0150033 -3.90921e-20)
(-0.0291613 0.0248761 -3.60673e-20)
(0.0247843 0.0276425 9.95969e-20)
(0.132793 0.0292216 -5.97012e-20)
(0.292074 0.0347828 5.5302e-20)
(0.490175 0.0470881 9.91843e-20)
(0.703159 0.0653758 -6.89985e-20)
(0.902923 0.086088 -8.15665e-20)
(1.06747 0.104943 2.69337e-21)
(1.1866 0.118794 1.00296e-19)
(1.26168 0.126427 0)
(1.30172 0.128358 2.57988e-20)
(1.31835 0.126043 0)
(1.32174 0.121043 -3.97693e-20)
(1.31868 0.114525 5.5348e-20)
(1.31272 0.107114 5.92998e-22)
(1.30543 0.0992162 -1.38501e-20)
(1.29753 0.0907595 2.57065e-20)
(1.28957 0.0822862 2.15855e-20)
(1.28155 0.0732385 -1.90256e-20)
(1.27359 0.0647819 1.79009e-20)
(1.26516 0.0556142 -1.58e-20)
(1.25627 0.0485159 0)
(1.24825 0.0370284 -1.12667e-20)
(-0.0241747 0.0113468 3.90823e-20)
(-0.00330116 0.0163164 3.80321e-20)
(0.085127 0.019694 -3.34131e-20)
(0.237053 0.0269387 6.14397e-20)
(0.440261 0.0424356 -5.69094e-20)
(0.667396 0.0659728 5.06893e-20)
(0.883321 0.0928089 -2.40283e-20)
(1.06017 0.117035 6.13143e-20)
(1.18585 0.134604 -3.7927e-20)
(1.26298 0.144333 6.42046e-20)
(1.30278 0.147269 -1.45159e-19)
(1.3184 0.145419 5.22113e-20)
(1.3206 0.14068 -4.38651e-20)
(1.31629 0.134358 4.08355e-20)
(1.3092 0.12716 3.39884e-20)
(1.30118 0.119475 2.90057e-20)
(1.29303 0.111414 -7.99707e-20)
(1.28503 0.103256 4.91291e-20)
(1.277 0.0948343 -2.15824e-20)
(1.26888 0.0865924 5.48225e-20)
(1.26048 0.0781799 -1.77627e-20)
(1.2521 0.0697451 -4.11376e-20)
(1.24351 0.062559 3.75701e-20)
(1.23552 0.0520639 1.12632e-20)
(-0.0161583 0.00739406 0)
(0.0346024 0.00838282 4.69832e-22)
(0.165403 0.0152944 7.0528e-20)
(0.364199 0.0322874 -6.48154e-20)
(0.602735 0.0604456 -5.76122e-20)
(0.838402 0.0942457 1.05256e-19)
(1.0343 0.125524 -4.80958e-20)
(1.17354 0.148604 6.20057e-20)
(1.25836 0.1619 -1.93617e-21)
(1.30161 0.166822 -3.36404e-20)
(1.31816 0.165932 7.03592e-20)
(1.31996 0.161579 -1.02004e-19)
(1.31475 0.155367 0)
(1.30676 0.1482 -1.89277e-20)
(1.29801 0.14055 -4.92499e-20)
(1.28922 0.132614 1.5414e-20)
(1.28056 0.124554 7.6265e-22)
(1.27194 0.116329 -3.15273e-20)
(1.26342 0.108134 2.55452e-21)
(1.25499 0.0998435 3.58203e-20)
(1.24676 0.0916822 -1.56508e-20)
(1.23858 0.0837457 -5.45366e-21)
(1.2303 0.0761783 1.73709e-20)
(1.22251 0.0671865 0)
(-0.00347238 0.00361607 0)
(0.0860842 0.00295126 1.94336e-20)
(0.265117 0.0175747 -9.24184e-20)
(0.507068 0.0480575 3.30918e-20)
(0.763971 0.0888116 -3.06508e-20)
(0.986314 0.128898 -2.74467e-20)
(1.14759 0.159764 -4.69052e-20)
(1.24684 0.178569 2.35638e-20)
(1.29777 0.186762 1.97509e-20)
(1.31743 0.187494 0)
(1.31984 0.183762 4.15524e-20)
(1.31417 0.177667 -6.02708e-20)
(1.30542 0.170424 4.42686e-20)
(1.29587 0.162641 1.89362e-20)
(1.28634 0.15458 -1.48563e-20)
(1.27703 0.146373 -1.187e-20)
(1.26801 0.138051 -1.0939e-20)
(1.25931 0.129731 3.32087e-20)
(1.25087 0.121399 0)
(1.24264 0.113192 1.56567e-20)
(1.2345 0.105112 1.25598e-20)
(1.22644 0.0971941 -3.17141e-20)
(1.21843 0.0894651 -2.08137e-20)
(1.21068 0.081439 1.90031e-20)
(0.0147353 0.000618059 -2.32053e-20)
(0.151491 0.00203394 -1.15875e-21)
(0.380446 0.029087 1.8962e-20)
(0.654201 0.0748823 5.24497e-20)
(0.909387 0.125178 1.47366e-20)
(1.10288 0.166618 -2.80977e-20)
(1.22543 0.193546 2.51206e-20)
(1.28985 0.20682 -2.12346e-20)
(1.31573 0.21017 3.68816e-20)
(1.32014 0.207483 1.50466e-20)
(1.31447 0.201609 -4.23854e-20)
(1.30497 0.194222 1.21296e-20)
(1.29448 0.186152 2.00091e-20)
(1.28405 0.17776 -9.85261e-21)
(1.27401 0.169212 0)
(1.26442 0.160586 1.37907e-20)
(1.25523 0.151969 2.24813e-20)
(1.24637 0.14338 3.36965e-21)
(1.23779 0.1349 -1.81462e-20)
(1.22949 0.126532 7.25076e-21)
(1.22145 0.118351 0)
(1.21361 0.110408 -5.36809e-21)
(1.20587 0.10254 -5.06244e-21)
(1.1983 0.0951808 0)
(0.0388761 -0.000739661 0)
(0.22943 0.00780938 1.13393e-20)
(0.504325 0.0513913 2.07538e-20)
(0.793508 0.111504 -5.38981e-20)
(1.03028 0.166696 1.73033e-20)
(1.18806 0.205388 0)
(1.27464 0.226467 2.38124e-20)
(1.31169 0.234018 -3.2697e-20)
(1.32035 0.23309 -1.83871e-20)
(1.31543 0.227626 8.09851e-21)
(1.30527 0.220023 -1.23379e-20)
(1.29373 0.211486 2.98906e-20)
(1.28228 0.202548 1.43511e-20)
(1.27136 0.193445 -1.01431e-20)
(1.26104 0.184285 -1.17246e-21)
(1.25126 0.175144 -2.55066e-20)
(1.24197 0.166061 1.14144e-20)
(1.23313 0.157098 -3.53701e-22)
(1.22472 0.148284 0)
(1.21668 0.139683 -7.25797e-21)
(1.20892 0.131326 0)
(1.20134 0.123146 1.5196e-20)
(1.1939 0.11518 -1.75583e-20)
(1.18651 0.108219 7.82899e-21)
(0.0687251 0.000496016 -6.68658e-21)
(0.31657 0.022138 -2.91921e-20)
(0.627929 0.0846335 3.29156e-20)
(0.915918 0.155751 1.86284e-20)
(1.12403 0.211225 -8.80386e-21)
(1.24575 0.244394 1.3915e-20)
(1.30212 0.25882 -6.73991e-21)
(1.31905 0.260936 1.06079e-20)
(1.31642 0.256292 0)
(1.30595 0.248443 2.25063e-20)
(1.29329 0.239244 -1.13252e-21)
(1.28063 0.229517 -1.73856e-20)
(1.26863 0.219606 7.19765e-21)
(1.25741 0.209658 -7.81939e-21)
(1.2469 0.199755 -2.74993e-21)
(1.23704 0.189952 3.3718e-21)
(1.22777 0.180306 -2.42834e-21)
(1.21901 0.170851 -1.2863e-20)
(1.21071 0.161634 7.77087e-21)
(1.20283 0.152682 1.49313e-21)
(1.19529 0.144002 1.267e-21)
(1.18801 0.135568 1.07337e-21)
(1.18089 0.127533 0)
(1.17381 0.120529 0)
(0.103501 0.0052883 6.69468e-21)
(0.408131 0.0462304 -6.16386e-21)
(0.74301 0.127768 -1.1039e-20)
(1.01658 0.205514 0)
(1.19173 0.257495 -4.3632e-21)
(1.28071 0.283476 -3.8025e-21)
(1.31325 0.291078 -6.17762e-21)
(1.31606 0.288166 0)
(1.30627 0.28018 0)
(1.29259 0.270092 0)
(1.27856 0.259252 0)
(1.26529 0.248198 0)
(1.25301 0.237143 -4.46502e-21)
(1.24166 0.226189 1.99936e-21)
(1.23114 0.215396 3.35643e-21)
(1.22135 0.204812 1.55053e-21)
(1.21222 0.19447 3.65007e-21)
(1.20369 0.184407 0)
(1.19572 0.174656 -7.93027e-22)
(1.18823 0.165244 -7.55612e-22)
(1.18113 0.156158 -1.269e-21)
(1.17429 0.147373 -1.07506e-21)
(1.16762 0.139159 0)
(1.16102 0.131872 6.69339e-22)
(-0.00299909 -0.054774 6.24321e-21)
(-0.0189242 -0.0705904 -5.95474e-21)
(-0.0466481 -0.0454435 -1.1038e-20)
(-0.0786829 -0.00780625 0)
(-0.112452 0.0309533 -1.44319e-20)
(-0.14676 0.0697858 4.57483e-21)
(-0.180582 0.111008 -8.23143e-21)
(-0.213148 0.156465 0)
(-0.243775 0.20661 0)
(-0.271713 0.261058 0)
(-0.296092 0.31896 0)
(-0.31594 0.379066 0)
(-0.330212 0.439685 3.18849e-22)
(-0.337839 0.498688 -5.39612e-21)
(-0.337766 0.55354 9.59782e-21)
(-0.329018 0.601401 1.37329e-20)
(-0.310768 0.639263 4.08126e-21)
(-0.282439 0.66415 0)
(-0.24379 0.673382 3.93071e-21)
(-0.194982 0.664857 -1.09764e-20)
(-0.136716 0.637252 -7.03099e-21)
(-0.0701324 0.590532 -6.78743e-21)
(0.00306947 0.525477 0)
(0.0831822 0.443405 0)
(-0.000242267 -0.0413669 -1.83638e-20)
(-0.013877 -0.0442233 2.92974e-20)
(-0.0391958 -0.0120319 -1.03198e-20)
(-0.068909 0.0301344 -1.97407e-20)
(-0.100431 0.0715626 2.77774e-20)
(-0.132399 0.111265 -1.69679e-20)
(-0.163542 0.151801 2.39614e-20)
(-0.192792 0.195247 1.40598e-20)
(-0.219234 0.242144 0)
(-0.241943 0.292 -1.33062e-20)
(-0.259904 0.343798 -7.30161e-23)
(-0.272015 0.396157 1.15435e-20)
(-0.277141 0.447331 1.529e-20)
(-0.274179 0.495224 1.94185e-20)
(-0.262123 0.537441 -9.38518e-21)
(-0.240149 0.571404 -2.60209e-20)
(-0.207724 0.594522 7.98524e-21)
(-0.164649 0.60439 -3.04172e-20)
(-0.111173 0.598976 0)
(-0.0482484 0.576964 7.29643e-21)
(0.0231973 0.537733 7.01821e-21)
(0.101516 0.481414 6.77507e-21)
(0.18211 0.410542 0)
(0.27184 0.322824 0)
(0.00166221 -0.0304946 0)
(-0.00951908 -0.0236306 5.41834e-20)
(-0.0310264 0.0141235 -2.01273e-20)
(-0.0563678 0.0605864 1.89507e-20)
(-0.0831758 0.105079 -5.08716e-20)
(-0.110087 0.145904 0)
(-0.135685 0.185435 -2.9062e-20)
(-0.158631 0.226077 1.29336e-20)
(-0.177766 0.268718 -2.39464e-20)
(-0.192035 0.312961 1.00213e-20)
(-0.200385 0.35772 6.33251e-20)
(-0.201752 0.401564 -2.93363e-20)
(-0.195089 0.442799 -4.71891e-20)
(-0.179448 0.479497 -1.71202e-20)
(-0.154064 0.509515 -6.04179e-22)
(-0.118427 0.530672 6.301e-20)
(-0.0723627 0.540881 -2.97363e-20)
(-0.0162165 0.538341 9.1575e-22)
(0.0494542 0.521718 0)
(0.123473 0.490034 -2.71862e-20)
(0.202681 0.443997 0)
(0.290473 0.382404 -2.87274e-20)
(0.370982 0.31126 1.05082e-19)
(0.468156 0.223987 1.87256e-21)
(0.00305815 -0.0229919 0)
(-0.00574237 -0.0103709 -1.00508e-21)
(-0.0230431 0.0307675 1.86099e-20)
(-0.0431429 0.0807122 -1.68704e-20)
(-0.0638617 0.128414 1.68715e-20)
(-0.0839872 0.170809 8.78964e-20)
(-0.102179 0.209455 -2.72977e-20)
(-0.116994 0.246898 -2.41734e-20)
(-0.127086 0.28456 4.61038e-20)
(-0.131303 0.322472 -6.43179e-20)
(-0.128615 0.35974 1.87673e-20)
(-0.118064 0.395023 1.74136e-20)
(-0.0987986 0.426738 0)
(-0.0702178 0.453132 1.66921e-20)
(-0.0319255 0.472398 0)
(0.0162177 0.482788 2.77555e-20)
(0.0739902 0.482756 -5.72615e-20)
(0.14085 0.470896 1.14518e-20)
(0.214614 0.446729 5.22659e-20)
(0.297264 0.409066 2.71529e-20)
(0.377872 0.360424 0)
(0.47193 0.297476 -7.90144e-20)
(0.5457 0.228921 2.48507e-20)
(0.644819 0.147271 0)
(0.00429348 -0.0187137 0)
(-0.0024227 -0.00432798 -5.95603e-20)
(-0.016165 0.0373414 -1.77511e-20)
(-0.0314839 0.0889061 -3.31501e-20)
(-0.0461268 0.139136 3.07151e-20)
(-0.0589929 0.183352 -2.87444e-20)
(-0.0690197 0.22168 5.07343e-20)
(-0.0749488 0.2562 2.34601e-20)
(-0.0754911 0.288717 -6.52494e-20)
(-0.0694552 0.319911 3.89925e-20)
(-0.0558562 0.34942 -5.48218e-20)
(-0.0339058 0.376229 1.14705e-19)
(-0.00305143 0.398971 -6.20188e-20)
(0.0370002 0.416141 2.78947e-20)
(0.0862663 0.4263 8.25801e-20)
(0.144519 0.428085 -2.58667e-20)
(0.210655 0.420325 -2.23201e-20)
(0.285149 0.402247 -2.5079e-20)
(0.361879 0.373627 0)
(0.449617 0.333519 -5.05565e-20)
(0.525173 0.28546 -5.26555e-20)
(0.6213 0.225011 7.0242e-20)
(0.684248 0.163683 9.76525e-20)
(0.784739 0.0888311 -8.92181e-20)
(0.00546168 -0.0167584 0)
(0.000309129 -0.0037825 -7.49317e-20)
(-0.011258 0.035313 1.19381e-21)
(-0.0233994 0.0855352 6.41716e-20)
(-0.0333815 0.136169 0)
(-0.0399534 0.181373 0)
(-0.0423267 0.219644 0)
(-0.0396616 0.251978 -2.21569e-20)
(-0.0310086 0.280023 8.0262e-22)
(-0.0154146 0.304894 3.68915e-20)
(0.00792571 0.326849 -5.15518e-20)
(0.0395838 0.345428 2.25102e-22)
(0.0798421 0.359725 0)
(0.128673 0.36866 -2.78803e-20)
(0.18567 0.371079 2.47522e-20)
(0.250324 0.366255 -7.07923e-20)
(0.320685 0.352769 9.5117e-20)
(0.398004 0.331549 2.56248e-20)
(0.473778 0.300519 5.22978e-21)
(0.561402 0.262179 -8.71294e-20)
(0.63056 0.216913 -4.2614e-20)
(0.731776 0.162384 1.55e-19)
(0.78576 0.107908 -1.02829e-19)
(0.903663 0.0356818 0)
(0.00638138 -0.0158111 3.7916e-20)
(0.00187227 -0.0059952 3.71798e-20)
(-0.00936786 0.0277967 -3.30289e-20)
(-0.0205672 0.0732017 -6.10482e-20)
(-0.0282464 0.120788 5.65617e-20)
(-0.0307746 0.164452 -5.04338e-20)
(-0.0274157 0.201482 6.94305e-20)
(-0.0177267 0.231673 -2.18739e-20)
(-0.00127221 0.255999 3.83106e-20)
(0.0224097 0.275535 0)
(0.0537104 0.290906 2.9351e-20)
(0.0928403 0.302188 -5.50869e-20)
(0.139745 0.30903 5.23287e-20)
(0.19408 0.310906 -4.87058e-20)
(0.255196 0.307015 0)
(0.322323 0.29742 4.42419e-20)
(0.394252 0.280257 8.56507e-20)
(0.471217 0.258549 -8.16162e-20)
(0.549582 0.226983 -3.98164e-20)
(0.639109 0.193738 -4.51115e-20)
(0.717307 0.148939 1.21561e-19)
(0.832816 0.101227 4.03756e-20)
(0.900148 0.0465414 -3.56541e-20)
(1.05345 -0.0213674 3.6012e-20)
(0.00649355 -0.0145449 -3.79254e-20)
(0.00114274 -0.00809704 1.05276e-19)
(-0.0117305 0.0186155 -3.21543e-20)
(-0.0242156 0.05613 5.90851e-20)
(-0.0321287 0.0968498 -5.47431e-20)
(-0.0333967 0.135259 -8.49114e-23)
(-0.0271541 0.168218 2.23701e-20)
(-0.0131831 0.194677 7.67965e-20)
(0.00849904 0.214867 -2.40459e-21)
(0.0378204 0.229517 -3.40982e-20)
(0.0746842 0.239318 0)
(0.118947 0.244699 -2.49793e-20)
(0.170426 0.245795 4.87037e-20)
(0.228957 0.242614 4.51634e-20)
(0.294507 0.234811 -2.15101e-20)
(0.367159 0.222734 -1.45072e-21)
(0.44794 0.20482 -2.05151e-20)
(0.53641 0.183928 3.76151e-20)
(0.635121 0.153428 3.98245e-20)
(0.742517 0.124106 -3.95024e-20)
(0.855078 0.0787175 3.6261e-20)
(0.986579 0.0401874 -3.53865e-20)
(1.08535 -0.0162161 0)
(1.2417 -0.0685019 -3.60229e-20)
(0.00500088 -0.0118436 3.61537e-20)
(-0.00320698 -0.00770777 -3.48425e-20)
(-0.0194333 0.0113522 3.12656e-20)
(-0.0347641 0.0390391 0)
(-0.0446843 0.0699114 0)
(-0.0468347 0.0996116 4.57064e-20)
(-0.040113 0.125263 -4.36129e-20)
(-0.0243073 0.145589 3.6194e-20)
(0.000447713 0.160371 -1.71057e-19)
(0.0340134 0.17005 9.30997e-22)
(0.0764355 0.175287 2.70532e-20)
(0.128039 0.176695 0)
(0.189516 0.17467 -4.54332e-20)
(0.26182 0.169393 8.4815e-20)
(0.345907 0.160821 -6.01538e-20)
(0.44243 0.14881 -9.79047e-20)
(0.551494 0.13276 -3.57572e-21)
(0.671196 0.113346 6.95117e-20)
(0.801282 0.0873891 0)
(0.932553 0.0617192 0)
(1.06777 0.0232107 -3.6273e-20)
(1.18936 -0.00522386 3.53986e-20)
(1.29344 -0.0558172 -1.29126e-19)
(1.38949 -0.0863365 1.20316e-19)
(0.00113611 -0.00704873 0)
(-0.0119886 -0.00321033 0)
(-0.0322372 0.00879712 -9.28441e-20)
(-0.050509 0.0262609 2.8917e-20)
(-0.0622311 0.0461096 1.10352e-21)
(-0.0649466 0.0653882 4.63891e-20)
(-0.0570907 0.0820438 0)
(-0.0377751 0.0950063 -3.71951e-20)
(-0.00647549 0.104035 3.38175e-20)
(0.0376478 0.10947 -5.78603e-20)
(0.0957444 0.111876 5.87326e-22)
(0.168976 0.111769 4.78797e-20)
(0.258128 0.109497 -3.33049e-22)
(0.363216 0.105156 4.17741e-20)
(0.482948 0.0988589 -5.77471e-20)
(0.614811 0.0898646 0)
(0.754304 0.078773 7.38607e-20)
(0.896504 0.063726 -1.04748e-19)
(1.03435 0.0462399 3.33439e-20)
(1.16082 0.0252386 0)
(1.27066 -0.00124837 3.04957e-20)
(1.35105 -0.0235836 1.22139e-19)
(1.41068 -0.0618143 -1.14054e-19)
(1.42664 -0.0776014 -1.26517e-19)
(-0.00509149 -0.000172062 1.04279e-19)
(-0.024303 0.0056042 -1.31923e-19)
(-0.0474442 0.0122279 3.88924e-22)
(-0.0660732 0.0208986 2.80287e-20)
(-0.0758337 0.0307935 -5.08583e-20)
(-0.0738754 0.0404672 -4.63889e-20)
(-0.0577922 0.0488205 8.13626e-20)
(-0.0254245 0.0553846 -2.78115e-21)
(0.0251324 0.0600476 -6.75034e-20)
(0.0953132 0.0629966 1.17828e-19)
(0.185829 0.0646785 -1.79815e-21)
(0.29606 0.0655083 -4.89563e-20)
(0.423632 0.0656965 0)
(0.564324 0.0650703 0)
(0.712311 0.0634276 -1.94727e-20)
(0.860853 0.0596693 -3.69586e-20)
(1.00249 0.0542761 -7.18395e-20)
(1.13021 0.0443657 6.69671e-20)
(1.23723 0.0334305 -3.33741e-20)
(1.31942 0.0155795 6.18111e-20)
(1.37275 -0.00156195 -3.02457e-20)
(1.39969 -0.0230025 5.38029e-20)
(1.40422 -0.0485414 -1.24325e-19)
(1.38575 -0.0607331 2.46046e-20)
(-0.0127707 0.0074697 3.46137e-20)
(-0.0374166 0.0169249 0)
(-0.0599647 0.0207903 6.04667e-20)
(-0.0734915 0.023485 -5.59925e-20)
(-0.0738266 0.0262087 5.09251e-20)
(-0.0575177 0.0289123 0)
(-0.0211145 0.0315366 0)
(0.0382021 0.0339906 -3.63571e-20)
(0.122005 0.0362549 2.24007e-21)
(0.230068 0.0387467 3.14964e-20)
(0.359727 0.0418352 -2.69872e-20)
(0.505648 0.0455562 5.01635e-20)
(0.660483 0.0495629 0)
(0.815731 0.0531604 8.44266e-20)
(0.962685 0.0554304 -1.57566e-19)
(1.0935 0.0552984 1.10548e-19)
(1.2018 0.0522468 6.95187e-20)
(1.28359 0.0447719 -6.48098e-20)
(1.33771 0.0353726 0)
(1.36589 0.0191123 0)
(1.37359 0.00704901 0)
(1.36838 -0.0163275 0)
(1.35706 -0.0295458 2.35791e-20)
(1.34703 -0.049402 -7.93551e-20)
(0.173448 0.340931 -4.50282e-21)
(0.281992 0.193372 4.51909e-21)
(0.378465 0.0362207 -1.44643e-22)
(0.46349 -0.13268 0)
(0.53686 -0.319901 -4.0075e-21)
(0.602615 -0.518107 7.38671e-21)
(0.657473 -0.691678 -5.14419e-22)
(0.691692 -0.801977 -2.79639e-21)
(0.70699 -0.837395 0)
(0.709051 -0.822101 0)
(0.69872 -0.788358 -8.025e-23)
(0.686037 -0.747195 -7.00826e-23)
(0.674637 -0.711755 -1.17751e-21)
(0.651423 -0.709812 1.07947e-21)
(0.61024 -0.736925 0)
(0.567589 -0.726711 0)
(0.553324 -0.598282 1.76339e-21)
(0.577893 -0.337264 1.66324e-22)
(0.625905 -0.00507413 -1.71516e-21)
(0.681216 0.30291 -9.91153e-23)
(0.735984 0.513088 0)
(0.780365 0.619081 0)
(0.806926 0.654359 0)
(0.824413 0.641972 0)
(0.838965 0.616885 0)
(0.837179 0.628693 0)
(0.811654 0.683726 2.2936e-22)
(0.770688 0.707042 -3.71586e-22)
(0.727287 0.615597 0)
(0.694926 0.388009 0)
(0.683232 0.0808309 -4.86595e-22)
(0.696122 -0.209098 4.72807e-22)
(0.724598 -0.409814 1.85953e-22)
(0.758304 -0.510599 0)
(0.785496 -0.54911 0)
(0.778749 -0.563726 1.50285e-22)
(0.730894 -0.576153 -1.46067e-22)
(0.661375 -0.53253 0)
(0.607124 -0.400409 1.93258e-22)
(0.58997 -0.169905 -2.77796e-22)
(0.615241 0.0726461 8.13717e-23)
(0.669147 0.25629 0)
(0.706193 0.382754 -1.06815e-22)
(0.693738 0.456054 1.03862e-22)
(0.661859 0.498103 0)
(0.635087 0.412784 0)
(0.635195 0.255669 -5.00405e-23)
(0.65818 0.0389085 1.53771e-22)
(0.678638 -0.187365 0)
(0.670051 -0.333717 0)
(0.658196 -0.452174 -2.66443e-23)
(0.644565 -0.376879 3.85753e-24)
(0.650367 -0.209626 -1.54533e-24)
(0.641558 0.0311812 1.37094e-23)
(0.6314 0.314928 0)
(0.611203 0.368872 0)
(0.621306 0.367587 0)
(0.592661 0.116952 0)
(0.560305 -0.251251 0)
(0.540604 -0.161231 0)
(0.360834 0.220136 -4.42717e-22)
(0.457909 0.083888 -1.92792e-20)
(0.543748 -0.0580022 1.40571e-23)
(0.618903 -0.210021 1.80207e-20)
(0.687852 -0.387282 2.67689e-22)
(0.750836 -0.57902 0)
(0.79633 -0.73924 -1.17273e-20)
(0.812126 -0.829654 2.10218e-20)
(0.802326 -0.846642 -9.29075e-21)
(0.780657 -0.816582 5.86795e-21)
(0.750139 -0.773844 -5.61808e-21)
(0.717231 -0.730234 4.29473e-21)
(0.689733 -0.690306 -4.16952e-21)
(0.656194 -0.677052 -1.21656e-22)
(0.604765 -0.695778 -4.70089e-21)
(0.54575 -0.694259 4.56549e-21)
(0.506694 -0.592011 -6.19582e-21)
(0.508372 -0.359139 5.83219e-21)
(0.546599 -0.047792 -6.50381e-21)
(0.60475 0.250579 1.18461e-20)
(0.670063 0.465797 -5.37771e-21)
(0.727319 0.586639 -2.25571e-22)
(0.768726 0.634767 -2.70569e-21)
(0.802373 0.629413 4.90089e-21)
(0.83057 0.611993 -2.20769e-21)
(0.841137 0.634445 1.26619e-22)
(0.82838 0.699526 2.58347e-21)
(0.80098 0.729788 7.75775e-22)
(0.770157 0.640591 -6.92031e-21)
(0.747735 0.406775 8.11795e-21)
(0.740753 0.0860357 -4.23117e-21)
(0.75099 -0.217731 5.09921e-22)
(0.770036 -0.425589 -1.86337e-22)
(0.788679 -0.525096 2.88068e-22)
(0.802897 -0.553597 0)
(0.788299 -0.552389 0)
(0.734144 -0.552454 -5.35035e-22)
(0.656913 -0.507953 3.96901e-22)
(0.598055 -0.38679 5.0268e-22)
(0.579259 -0.173071 9.48661e-23)
(0.608665 0.0548809 -6.92847e-22)
(0.663443 0.238666 1.10136e-22)
(0.700215 0.377333 0)
(0.689667 0.462363 0)
(0.66138 0.507468 0)
(0.636554 0.418668 0)
(0.636654 0.252999 2.4585e-22)
(0.664885 0.033899 -1.0521e-22)
(0.68958 -0.189949 0)
(0.679957 -0.331278 0)
(0.663873 -0.448951 0)
(0.644728 -0.376057 -3.53269e-23)
(0.649756 -0.209723 1.39894e-23)
(0.640216 0.0326221 -3.49474e-23)
(0.633325 0.316967 0)
(0.618321 0.370024 0)
(0.631205 0.368992 3.61539e-23)
(0.602385 0.124747 1.33599e-22)
(0.561727 -0.246509 0)
(0.543906 -0.15995 0)
(0.54291 0.126385 1.71737e-21)
(0.622601 0.00120437 -3.77299e-20)
(0.694439 -0.125348 3.82811e-20)
(0.759875 -0.262183 -3.57627e-20)
(0.826934 -0.428643 -2.69588e-22)
(0.888584 -0.609626 0)
(0.922612 -0.752635 -2.3996e-20)
(0.918862 -0.823098 2.34215e-20)
(0.886195 -0.827561 1.2765e-22)
(0.843753 -0.792201 1.95748e-22)
(0.798988 -0.747637 1.57479e-22)
(0.751941 -0.706421 1.38027e-22)
(0.71069 -0.66508 -7.69213e-21)
(0.669605 -0.640329 7.59236e-21)
(0.611339 -0.649117 0)
(0.538854 -0.655933 2.35574e-22)
(0.479159 -0.582444 -1.0376e-20)
(0.458515 -0.383402 1.02633e-20)
(0.482883 -0.0974673 0)
(0.540079 0.188779 0)
(0.612103 0.408796 -8.08658e-21)
(0.678965 0.54414 1.4202e-20)
(0.733331 0.605566 -1.09096e-20)
(0.781797 0.609141 6.76835e-22)
(0.823833 0.599749 8.04219e-21)
(0.847698 0.631324 -8.3854e-21)
(0.848239 0.706647 9.06608e-21)
(0.834495 0.747765 1.1907e-21)
(0.81639 0.665489 -6.347e-21)
(0.805089 0.430149 0)
(0.803809 0.10093 0)
(0.810889 -0.214317 2.77108e-21)
(0.82072 -0.429836 -3.71151e-21)
(0.82435 -0.531111 1.12122e-23)
(0.825074 -0.55419 1.43822e-21)
(0.803767 -0.539597 -1.3975e-21)
(0.745234 -0.527855 0)
(0.660781 -0.48416 1.23638e-22)
(0.597766 -0.375729 1.17895e-21)
(0.57704 -0.179593 -2.25027e-21)
(0.608888 0.0352225 9.80771e-22)
(0.662714 0.220264 6.50965e-23)
(0.699587 0.371642 -8.50391e-22)
(0.691726 0.468216 6.74066e-22)
(0.666362 0.516893 1.95357e-22)
(0.642348 0.425945 2.45405e-22)
(0.642028 0.251276 -2.46508e-22)
(0.674691 0.0294487 0)
(0.70441 -0.191649 0)
(0.694027 -0.327441 -6.182e-22)
(0.673278 -0.444484 2.74913e-22)
(0.647965 -0.375753 -1.41492e-22)
(0.65238 -0.210286 1.61576e-22)
(0.642389 0.0325046 1.34113e-22)
(0.639095 0.318152 -5.97819e-23)
(0.628694 0.370574 1.09607e-22)
(0.644359 0.370065 -1.48063e-22)
(0.616167 0.13403 1.18208e-22)
(0.567908 -0.240809 0)
(0.550773 -0.159563 0)
(0.70362 0.0577933 -7.49387e-20)
(0.767406 -0.0554511 -1.18966e-21)
(0.829924 -0.1717 7.20119e-20)
(0.893358 -0.303447 -5.66255e-22)
(0.962229 -0.464597 0)
(1.02037 -0.630443 0)
(1.03997 -0.749812 -4.62464e-20)
(1.01563 -0.798059 7.68664e-21)
(0.96278 -0.791867 5.00564e-20)
(0.902195 -0.756156 -2.75332e-21)
(0.845355 -0.712108 -1.12043e-20)
(0.789122 -0.674364 -7.61231e-21)
(0.73643 -0.63731 7.6344e-21)
(0.688803 -0.603945 0)
(0.629736 -0.596876 -6.74498e-21)
(0.550584 -0.604777 6.12078e-21)
(0.473705 -0.560888 0)
(0.431981 -0.404087 0)
(0.439902 -0.150932 8.97285e-21)
(0.490314 0.120063 -6.64375e-22)
(0.563108 0.343374 -7.56589e-21)
(0.635732 0.49234 -5.52535e-21)
(0.700853 0.567054 5.43534e-21)
(0.76224 0.579929 -3.91663e-21)
(0.816572 0.578139 5.97176e-23)
(0.854027 0.618049 3.62935e-21)
(0.869716 0.703382 5.40068e-22)
(0.869827 0.75647 1.33697e-23)
(0.86423 0.68526 0)
(0.864429 0.454985 9.46128e-21)
(0.869785 0.121941 -9.79059e-21)
(0.874476 -0.203122 5.41037e-22)
(0.876157 -0.42644 0)
(0.865631 -0.530105 -3.02921e-22)
(0.851556 -0.551069 2.8551e-21)
(0.823341 -0.526544 -4.50969e-21)
(0.762815 -0.502757 1.50425e-22)
(0.672353 -0.459609 -5.95787e-25)
(0.604778 -0.365548 1.34434e-21)
(0.58142 -0.188875 2.3281e-22)
(0.614391 0.0139663 -1.36694e-21)
(0.666617 0.200457 1.15169e-21)
(0.704362 0.363821 3.11743e-23)
(0.699243 0.472332 7.16878e-22)
(0.676027 0.526591 -8.93029e-22)
(0.652795 0.435123 -1.89554e-21)
(0.651923 0.251015 4.68029e-22)
(0.687763 0.0251408 1.06958e-21)
(0.723077 -0.193161 -1.87322e-21)
(0.712114 -0.322512 1.1469e-21)
(0.686414 -0.438402 -1.36136e-22)
(0.654262 -0.375502 2.9016e-22)
(0.65808 -0.211317 1.1169e-22)
(0.647953 0.030749 -1.16243e-22)
(0.648391 0.318378 -2.02631e-23)
(0.642021 0.370574 -9.70922e-23)
(0.660504 0.370792 0)
(0.633889 0.144599 -1.04696e-22)
(0.578915 -0.234099 2.73159e-22)
(0.561125 -0.159829 0)
(0.832911 0.00859369 7.06573e-20)
(0.890628 -0.0958664 -1.39648e-19)
(0.955427 -0.207456 6.8151e-20)
(1.02581 -0.33767 6.60337e-20)
(1.0961 -0.489375 -1.24699e-19)
(1.14177 -0.629362 6.63422e-21)
(1.1387 -0.718518 5.10131e-20)
(1.09242 -0.747399 3.47145e-20)
(1.02514 -0.736147 -3.39479e-20)
(0.953896 -0.706866 0)
(0.888829 -0.669668 -1.76496e-20)
(0.827689 -0.635525 3.18022e-20)
(0.768085 -0.60516 -1.42572e-20)
(0.714442 -0.57204 0)
(0.65653 -0.551257 0)
(0.578021 -0.551664 1.93504e-22)
(0.489955 -0.529568 -1.27616e-20)
(0.428367 -0.41736 1.23904e-20)
(0.417582 -0.204102 0)
(0.456009 0.0473734 1.32802e-20)
(0.523838 0.271216 -2.34578e-20)
(0.598279 0.432257 1.94081e-20)
(0.671075 0.520264 -1.60036e-20)
(0.74258 0.543484 5.33468e-22)
(0.808259 0.548349 1.30163e-20)
(0.85971 0.592985 -6.58226e-21)
(0.889613 0.686913 -2.64551e-22)
(0.902971 0.756333 -5.96459e-21)
(0.910818 0.703468 -1.99833e-21)
(0.922792 0.485199 7.88642e-21)
(0.935556 0.152138 6.08342e-22)
(0.938975 -0.181359 -8.15354e-21)
(0.933578 -0.413211 1.40652e-20)
(0.910875 -0.520702 -6.59403e-21)
(0.881871 -0.542788 0)
(0.846265 -0.512679 -2.15231e-21)
(0.786118 -0.478192 2.01658e-21)
(0.691375 -0.434856 -1.09708e-21)
(0.618113 -0.355568 1.37182e-21)
(0.590619 -0.19996 -1.2854e-22)
(0.623757 -0.00921383 0)
(0.67433 0.178178 -9.1769e-23)
(0.713806 0.354224 3.18522e-22)
(0.71267 0.475341 0)
(0.691845 0.53567 2.33044e-21)
(0.669213 0.445564 -7.72035e-22)
(0.667401 0.252383 6.20385e-22)
(0.704416 0.0214473 6.72002e-22)
(0.745314 -0.194342 0)
(0.734022 -0.31636 0)
(0.703169 -0.430507 -5.93106e-22)
(0.663503 -0.375155 6.12052e-22)
(0.666597 -0.21292 -1.91132e-22)
(0.656668 0.0273303 -4.36385e-23)
(0.660868 0.317355 1.73908e-23)
(0.658014 0.36989 9.71972e-23)
(0.67931 0.370977 -3.49764e-22)
(0.6553 0.156132 0)
(0.594709 -0.226313 -3.99313e-22)
(0.574856 -0.160522 -4.55448e-23)
(0.951621 -0.0373838 6.55689e-20)
(1.01417 -0.136648 -6.492e-20)
(1.0884 -0.244645 5.28933e-22)
(1.16344 -0.368094 -4.59359e-22)
(1.22306 -0.49976 4.7586e-22)
(1.24335 -0.607477 -4.21711e-22)
(1.21367 -0.668407 6.40877e-22)
(1.14903 -0.685775 0)
(1.0733 -0.675667 -4.29978e-22)
(0.997984 -0.653435 3.45063e-22)
(0.928293 -0.624456 2.76204e-22)
(0.864853 -0.594044 -2.39941e-22)
(0.80232 -0.568 0)
(0.744193 -0.539445 0)
(0.688929 -0.51056 1.32164e-22)
(0.617507 -0.498662 0)
(0.526081 -0.487694 -1.18686e-22)
(0.446695 -0.417265 0)
(0.414385 -0.25018 -1.03065e-20)
(0.436085 -0.0238402 1.98257e-20)
(0.494183 0.195025 -1.78589e-20)
(0.566586 0.365195 8.20622e-21)
(0.643649 0.465689 5.63221e-21)
(0.72298 0.498951 -5.46682e-21)
(0.798317 0.509298 -5.66226e-21)
(0.861513 0.558203 5.52036e-21)
(0.905413 0.66047 0)
(0.93296 0.744786 2.81285e-22)
(0.953086 0.711257 0)
(0.975695 0.512119 0)
(0.996453 0.187895 1.74809e-20)
(1.00125 -0.150492 -1.80702e-20)
(0.991085 -0.391525 8.79158e-22)
(0.958955 -0.504151 6.32136e-22)
(0.915552 -0.52981 -4.0598e-22)
(0.871001 -0.498283 -1.72899e-21)
(0.81307 -0.45417 1.67859e-21)
(0.716982 -0.40903 -1.06886e-21)
(0.637148 -0.344243 9.07017e-22)
(0.603316 -0.211482 2.17327e-22)
(0.635361 -0.0340352 -6.62593e-22)
(0.685042 0.153287 1.0332e-23)
(0.72758 0.340197 4.07861e-22)
(0.730766 0.474353 0)
(0.712015 0.544907 -7.87029e-22)
(0.69122 0.458775 2.0711e-21)
(0.689149 0.256413 -2.57047e-21)
(0.725027 0.0189545 -6.76505e-22)
(0.770844 -0.19537 0)
(0.759497 -0.309179 2.42264e-22)
(0.72337 -0.42054 -6.16461e-22)
(0.675526 -0.374416 -1.65772e-23)
(0.677608 -0.215103 2.31257e-23)
(0.668232 0.0221848 -1.182e-22)
(0.676075 0.315152 4.56198e-23)
(0.676277 0.36873 0)
(0.70032 0.370559 3.49971e-22)
(0.680012 0.168408 0)
(0.615159 -0.217429 0)
(0.591837 -0.161423 7.42035e-23)
(1.10183 -0.0893096 -6.0054e-20)
(1.16416 -0.181053 5.90217e-20)
(1.23554 -0.277707 -4.26547e-22)
(1.29608 -0.382814 4.70909e-22)
(1.3261 -0.484362 0)
(1.31177 -0.55854 0)
(1.2581 -0.597412 -6.56687e-22)
(1.18402 -0.610661 0)
(1.10713 -0.608041 4.40416e-22)
(1.03361 -0.595763 -2.03255e-20)