/*--------------------------------*- C++ -*----------------------------------*\
| =========                 |                                                 |
| \\      /  F ield         | OpenFOAM: The Open Source CFD Toolbox           |
|  \\    /   O peration     | Version:  2512                                  |
|   \\  /    A nd           | Website:  www.openfoam.com                      |
|    \\/     M anipulation  |                                                 |
\*---------------------------------------------------------------------------*/
FoamFile
{
    version     2.0;
    format      ascii;
    arch        "LSB;label=32;scalar=64";
    class       volScalarField;
    location    "107.25";
    object      p;
}
// * * * * * * * * * * * * * * * * * * * * * * * * * * * * * * * * * * * * * //

dimensions      [0 2 -2 0 0 0 0];

internalField   nonuniform List<scalar> 
13248
(
-0.274955
-0.276237
-0.27562
-0.273667
-0.270422
-0.265758
-0.259721
-0.2524
-0.244277
-0.235832
-0.227581
-0.219984
-0.213364
-0.207848
-0.20335
-0.199617
-0.196315
-0.193141
-0.189798
-0.1863
-0.182136
-0.177691
-0.171458
-0.16369
-0.279165
-0.279645
-0.278683
-0.276705
-0.273714
-0.269557
-0.264146
-0.25756
-0.250025
-0.24187
-0.233485
-0.225243
-0.217418
-0.210141
-0.203406
-0.197134
-0.19121
-0.185518
-0.179934
-0.174255
-0.168267
-0.161775
-0.154343
-0.146908
-0.28529
-0.284725
-0.283103
-0.280747
-0.277633
-0.27362
-0.268524
-0.262235
-0.254778
-0.246348
-0.237272
-0.227923
-0.218629
-0.209624
-0.201049
-0.192954
-0.185303
-0.178014
-0.170897
-0.163868
-0.156669
-0.149345
-0.141692
-0.134005
-0.292899
-0.291143
-0.288638
-0.285598
-0.2821
-0.277926
-0.272724
-0.26617
-0.258145
-0.248817
-0.238581
-0.22791
-0.217239
-0.206889
-0.197039
-0.187732
-0.178927
-0.17052
-0.16242
-0.154511
-0.146664
-0.138932
-0.131017
-0.123585
-0.302128
-0.299115
-0.295616
-0.291802
-0.287706
-0.282992
-0.277084
-0.269511
-0.260186
-0.249429
-0.237794
-0.225861
-0.214091
-0.202771
-0.192024
-0.181869
-0.172256
-0.163118
-0.154361
-0.145904
-0.137676
-0.129658
-0.121747
-0.114325
-0.313445
-0.309108
-0.304612
-0.299962
-0.295003
-0.289171
-0.281731
-0.272301
-0.261056
-0.248564
-0.235505
-0.222452
-0.209785
-0.197703
-0.186275
-0.17549
-0.165299
-0.155632
-0.14642
-0.137602
-0.129117
-0.120952
-0.113006
-0.10559
-0.327288
-0.321547
-0.31605
-0.310422
-0.304124
-0.296351
-0.28647
-0.274483
-0.260947
-0.246626
-0.232196
-0.218124
-0.204669
-0.191937
-0.179942
-0.168652
-0.158011
-0.147961
-0.138439
-0.129386
-0.120758
-0.112503
-0.104591
-0.0971905
-0.343832
-0.336623
-0.330053
-0.323112
-0.314728
-0.304053
-0.290936
-0.275952
-0.259989
-0.243855
-0.228114
-0.213077
-0.198877
-0.185539
-0.173037
-0.161319
-0.150326
-0.139992
-0.130256
-0.121061
-0.11235
-0.104078
-0.0962303
-0.0888334
-0.362928
-0.354209
-0.346372
-0.337523
-0.326078
-0.311585
-0.294695
-0.276546
-0.258181
-0.240306
-0.223302
-0.207322
-0.192393
-0.178478
-0.165515
-0.153433
-0.142159
-0.131622
-0.121754
-0.112491
-0.103772
-0.0955505
-0.0878048
-0.0804604
-0.383956
-0.373763
-0.364307
-0.352669
-0.337116
-0.318106
-0.297213
-0.275942
-0.255285
-0.23575
-0.217524
-0.200624
-0.184989
-0.170531
-0.157155
-0.144769
-0.133284
-0.122619
-0.112693
-0.103435
-0.094775
-0.0866647
-0.0790521
-0.0718065
-0.405908
-0.39428
-0.382644
-0.367127
-0.34652
-0.322598
-0.297714
-0.273473
-0.250667
-0.229569
-0.210187
-0.192423
-0.176142
-0.161209
-0.147496
-0.134888
-0.123278
-0.11257
-0.102674
-0.093508
-0.0850009
-0.0770926
-0.0696908
-0.062673
-0.427364
-0.414349
-0.399747
-0.379222
-0.352855
-0.323896
-0.295188
-0.268201
-0.243438
-0.220931
-0.200527
-0.182021
-0.165216
-0.149931
-0.136003
-0.123293
-0.111674
-0.101035
-0.0912747
-0.0823049
-0.074054
-0.0664587
-0.0594099
-0.0528202
-0.439213
-0.441889
-0.443216
-0.445001
-0.447907
-0.451921
-0.45682
-0.46227
-0.468075
-0.473636
-0.478396
-0.481798
-0.483348
-0.482694
-0.479707
-0.474563
-0.467779
-0.460218
-0.453008
-0.447425
-0.444704
-0.445631
-0.450167
-0.458363
-0.410137
-0.412422
-0.412763
-0.412867
-0.413436
-0.414516
-0.415995
-0.417653
-0.419249
-0.420479
-0.421046
-0.420716
-0.419373
-0.417086
-0.414126
-0.411007
-0.408473
-0.407428
-0.408826
-0.413491
-0.421934
-0.434381
-0.450204
-0.467872
-0.384379
-0.386055
-0.385511
-0.384207
-0.382819
-0.381469
-0.3801
-0.378588
-0.376794
-0.374598
-0.371937
-0.368847
-0.365513
-0.362364
-0.359932
-0.358902
-0.360085
-0.364281
-0.372145
-0.384131
-0.400143
-0.419655
-0.442122
-0.464575
-0.362107
-0.363125
-0.361913
-0.359605
-0.356779
-0.353587
-0.350045
-0.346119
-0.341782
-0.337072
-0.332115
-0.327129
-0.322364
-0.318793
-0.316939
-0.317499
-0.321209
-0.328711
-0.340362
-0.356175
-0.375997
-0.398279
-0.42307
-0.446472
-0.343023
-0.343495
-0.341894
-0.339009
-0.33525
-0.330773
-0.325655
-0.31995
-0.313735
-0.307194
-0.30064
-0.294582
-0.287799
-0.284092
-0.282447
-0.283686
-0.28846
-0.297202
-0.310206
-0.326876
-0.347378
-0.369344
-0.393367
-0.415504
-0.326621
-0.326785
-0.325078
-0.321976
-0.317702
-0.31236
-0.306077
-0.299003
-0.291259
-0.283203
-0.275147
-0.267549
-0.260859
-0.256156
-0.253992
-0.254981
-0.259655
-0.268188
-0.280918
-0.296859
-0.316502
-0.336762
-0.359032
-0.378237
-0.312402
-0.312572
-0.310996
-0.307937
-0.303433
-0.297498
-0.290284
-0.282031
-0.273029
-0.263654
-0.254353
-0.245671
-0.23824
-0.232805
-0.23004
-0.230515
-0.234711
-0.242695
-0.25471
-0.269794
-0.288278
-0.307686
-0.328313
-0.34494
-0.300037
-0.300513
-0.29922
-0.296337
-0.291765
-0.285432
-0.277479
-0.268236
-0.25812
-0.247622
-0.237296
-0.227765
-0.21971
-0.21384
-0.210824
-0.211209
-0.215416
-0.223512
-0.235416
-0.250185
-0.267507
-0.284805
-0.302017
-0.314271
-0.289494
-0.290472
-0.289498
-0.286794
-0.282232
-0.275674
-0.267246
-0.257316
-0.246427
-0.23519
-0.22428
-0.214419
-0.206345
-0.200769
-0.198315
-0.199395
-0.204181
-0.212462
-0.223765
-0.237052
-0.25136
-0.264778
-0.276118
-0.28188
-0.281124
-0.282621
-0.28185
-0.279297
-0.274818
-0.268261
-0.259761
-0.249717
-0.238714
-0.227508
-0.216838
-0.207511
-0.200216
-0.195556
-0.193944
-0.195528
-0.200166
-0.207329
-0.216349
-0.226053
-0.235636
-0.243519
-0.248615
-0.248513
-0.275576
-0.277324
-0.276759
-0.27436
-0.270124
-0.263925
-0.255897
-0.246442
-0.236136
-0.225798
-0.216106
-0.207734
-0.201321
-0.197296
-0.195827
-0.196811
-0.199798
-0.204184
-0.209128
-0.213783
-0.217704
-0.219982
-0.220991
-0.218687
-0.273533
-0.27526
-0.274724
-0.272541
-0.268759
-0.263258
-0.256115
-0.247775
-0.238674
-0.229387
-0.220624
-0.212978
-0.206902
-0.202638
-0.200156
-0.199191
-0.199211
-0.199732
-0.199998
-0.199845
-0.19877
-0.196951
-0.194944
-0.191908
-0.475244
-0.497898
-0.518117
-0.533318
-0.537486
-0.523399
-0.483246
-0.418145
-0.342294
-0.273063
-0.221355
-0.188936
-0.173632
-0.172646
-0.183484
-0.207405
-0.248998
-0.304512
-0.352659
-0.366215
-0.336823
-0.27992
-0.220151
-0.171978
-0.140734
-0.126023
-0.124713
-0.138215
-0.171933
-0.222017
-0.266108
-0.275904
-0.244671
-0.192862
-0.144788
-0.112058
-0.0958577
-0.0965077
-0.114053
-0.134167
-0.137796
-0.12124
-0.0994499
-0.0827326
-0.0759049
-0.0774246
-0.0841821
-0.0872417
-0.0806811
-0.0688706
-0.0586573
-0.0493316
-0.0483035
-0.0437741
-0.0380367
-0.0308714
-0.0323864
-0.0312307
-0.0276074
-0.00713249
-0.492312
-0.519141
-0.540056
-0.552984
-0.555228
-0.539872
-0.498361
-0.431517
-0.353816
-0.282379
-0.227737
-0.191291
-0.170609
-0.163969
-0.169211
-0.186377
-0.219255
-0.266055
-0.309284
-0.32416
-0.299985
-0.252446
-0.201544
-0.159971
-0.133721
-0.123316
-0.126192
-0.144642
-0.184525
-0.240917
-0.290554
-0.304335
-0.267863
-0.209602
-0.154381
-0.114667
-0.0920665
-0.0860245
-0.0967543
-0.111157
-0.113221
-0.100341
-0.0848097
-0.0748098
-0.0745139
-0.0831682
-0.0951763
-0.101241
-0.0930018
-0.0773363
-0.0622715
-0.0459896
-0.0406441
-0.032568
-0.0280808
-0.0273433
-0.0342053
-0.0408919
-0.0372538
-0.0089987
-0.492445
-0.520093
-0.541777
-0.552069
-0.552331
-0.535409
-0.493643
-0.427664
-0.351117
-0.280859
-0.226275
-0.188301
-0.164297
-0.152293
-0.151422
-0.161305
-0.184627
-0.221249
-0.258226
-0.274139
-0.257632
-0.220633
-0.178782
-0.143866
-0.122779
-0.116621
-0.123391
-0.146306
-0.191175
-0.252399
-0.306606
-0.325324
-0.285672
-0.222685
-0.161464
-0.115686
-0.0874873
-0.0754743
-0.0801835
-0.08963
-0.0902927
-0.0802997
-0.0700829
-0.0662702
-0.0725701
-0.0887467
-0.106313
-0.115256
-0.105073
-0.0852679
-0.0655164
-0.0427342
-0.033091
-0.0215093
-0.0182388
-0.0237794
-0.0357165
-0.0501545
-0.0467405
-0.0108739
-0.473248
-0.499759
-0.518861
-0.532186
-0.531767
-0.513335
-0.471207
-0.407796
-0.336183
-0.270706
-0.218618
-0.180807
-0.155234
-0.139775
-0.13321
-0.135822
-0.149661
-0.175876
-0.205527
-0.22179
-0.212954
-0.18618
-0.152942
-0.124455
-0.108194
-0.105801
-0.115768
-0.141732
-0.189686
-0.254732
-0.312687
-0.333442
-0.29658
-0.231365
-0.165661
-0.115095
-0.0822647
-0.0652951
-0.0648906
-0.0701493
-0.0694479
-0.061399
-0.0554131
-0.0571155
-0.0698505
-0.0938227
-0.117379
-0.12911
-0.116758
-0.0925098
-0.0682976
-0.0396356
-0.0257845
-0.0108258
-0.00858044
-0.0201771
-0.0368397
-0.0588264
-0.0558962
-0.0127785
-0.43959
-0.468737
-0.487151
-0.499545
-0.497926
-0.478204
-0.436855
-0.378139
-0.313984
-0.2554
-0.207445
-0.170799
-0.144467
-0.126828
-0.116533
-0.113008
-0.117993
-0.134068
-0.155922
-0.171063
-0.168741
-0.150644
-0.125223
-0.102659
-0.0905573
-0.0913117
-0.103691
-0.131263
-0.180231
-0.247243
-0.308179
-0.332264
-0.30038
-0.23547
-0.167083
-0.113127
-0.0766772
-0.0556991
-0.0510593
-0.0529899
-0.0509386
-0.0439367
-0.0409285
-0.0472562
-0.0660347
-0.0981286
-0.128102
-0.142556
-0.127951
-0.0989694
-0.0705714
-0.0367562
-0.0188512
-0.000727292
0.000857793
-0.0165272
-0.0375009
-0.066724
-0.0645572
-0.0147275
-0.395979
-0.414519
-0.442675
-0.45649
-0.453718
-0.43314
-0.394349
-0.342797
-0.288042
-0.237498
-0.194602
-0.160041
-0.133468
-0.114189
-0.101108
-0.0934622
-0.0918413
-0.0986783
-0.112364
-0.12476
-0.127647
-0.115496
-0.0969573
-0.0796799
-0.0710721
-0.0743159
-0.088334
-0.116202
-0.163957
-0.230267
-0.29348
-0.321485
-0.296326
-0.234588
-0.165811
-0.110006
-0.0709951
-0.0469168
-0.0388419
-0.0382405
-0.0349076
-0.0282136
-0.0268346
-0.0368227
-0.0610801
-0.101298
-0.138013
-0.155271
-0.138485
-0.104547
-0.0722894
-0.0341545
-0.0124096
0.00861201
0.0100011
-0.0128411
-0.0376348
-0.0736821
-0.0725673
-0.0167228
-0.358557
-0.374537
-0.396246
-0.40742
-0.402524
-0.382427
-0.348892
-0.306593
-0.26193
-0.219502
-0.181764
-0.149766
-0.123587
-0.103052
-0.0877104
-0.0768053
-0.0703225
-0.0699084
-0.0760016
-0.0840625
-0.088294
-0.0818183
-0.0695303
-0.0568638
-0.0510748
-0.0560438
-0.0710605
-0.0981935
-0.142634
-0.20527
-0.26837
-0.301152
-0.283966
-0.228687
-0.16204
-0.106019
-0.0655375
-0.0391423
-0.02829
-0.0258122
-0.0213787
-0.0144429
-0.0135501
-0.0260149
-0.0547224
-0.103097
-0.146719
-0.166899
-0.148225
-0.109184
-0.0734148
-0.031851
-0.00656143
0.0170408
0.0187632
-0.00914787
-0.0372119
-0.0795684
-0.0797842
-0.0187506
-0.3205
-0.32904
-0.345663
-0.353471
-0.347414
-0.330469
-0.304499
-0.272215
-0.237246
-0.202451
-0.169801
-0.140615
-0.115401
-0.0942832
-0.0772722
-0.0639179
-0.0538426
-0.0479641
-0.0474606
-0.0505882
-0.0538211
-0.0518362
-0.0441558
-0.0353366
-0.0318189
-0.0378343
-0.0530852
-0.0785785
-0.118747
-0.175554
-0.236287
-0.273294
-0.264752
-0.218409
-0.156046
-0.101284
-0.060469
-0.0324778
-0.0193901
-0.0154951
-0.010323
-0.00290363
-0.00139857
-0.0151548
-0.0472713
-0.103025
-0.153407
-0.176889
-0.156889
-0.112823
-0.0739117
-0.0298096
-0.00136983
0.0244461
0.0270287
-0.00548807
-0.0362096
-0.0842724
-0.0860806
-0.0207814
-0.278819
-0.280709
-0.293957
-0.299355
-0.294543
-0.283052
-0.265296
-0.242072
-0.21532
-0.187085
-0.159117
-0.13279
-0.108894
-0.0877531
-0.0696838
-0.0546582
-0.0421968
-0.0326092
-0.0268923
-0.0250643
-0.0257854
-0.0260659
-0.020874
-0.0157178
-0.0141549
-0.0205761
-0.0356068
-0.0591891
-0.0938649
-0.143417
-0.200458
-0.239851
-0.240835
-0.20467
-0.148098
-0.0957772
-0.0557241
-0.0268472
-0.0120275
-0.00700662
-0.00155318
0.00642223
0.00927672
-0.00448378
-0.0383052
-0.100962
-0.15796
-0.184903
-0.164393
-0.115439
-0.0737699
-0.0280072
0.00312933
0.0307429
0.0347298
-0.00189111
-0.0346819
-0.0877422
-0.0913686
-0.0227797
-0.238786
-0.238235
-0.249106
-0.253132
-0.250597
-0.244076
-0.232642
-0.216203
-0.195862
-0.173098
-0.149375
-0.125903
-0.103609
-0.0830142
-0.0645171
-0.0484313
-0.034508
-0.0226664
-0.013467
-0.00740495
-0.00433542
-0.0033564
-0.000633082
0.00116671
0.00103879
-0.00533109
-0.019618
-0.0409561
-0.0706592
-0.112739
-0.162769
-0.203526
-0.207158
-0.18604
-0.137987
-0.0896396
-0.051473
-0.0223762
-0.00618593
-0.000174282
0.00518504
0.0135066
0.0181756
0.00538913
-0.0287601
-0.0964393
-0.158925
-0.190131
-0.170013
-0.116949
-0.0730705
-0.0265696
0.00679006
0.0358898
0.0417251
0.00159544
-0.0326309
-0.0899056
-0.0955785
-0.0247084
-0.20939
-0.209474
-0.217149
-0.21951
-0.218267
-0.214681
-0.207359
-0.195803
-0.180451
-0.162187
-0.142133
-0.121346
-0.100744
-0.0810195
-0.0626181
-0.0459256
-0.0310013
-0.0177251
-0.00629514
0.00298971
0.00975243
0.0137157
0.0169507
0.0155568
0.0139281
0.00774052
-0.00551762
-0.0245421
-0.0488863
-0.0829116
-0.127854
-0.169817
-0.196495
-0.17034
-0.128853
-0.0843598
-0.0484252
-0.0195446
-0.00198182
0.00517383
0.0101225
0.0183091
0.0252516
0.0147973
-0.0180615
-0.0892671
-0.157784
-0.192808
-0.174401
-0.117796
-0.0720818
-0.0254308
0.00947426
0.0396974
0.0480381
0.00496891
-0.0301944
-0.0908426
-0.0986761
-0.0265016
-0.188648
-0.190859
-0.194022
-0.193195
-0.19131
-0.188598
-0.183746
-0.175947
-0.164952
-0.151005
-0.134737
-0.116954
-0.0984765
-0.0800139
-0.0621532
-0.045396
-0.0299258
-0.0158364
-0.00333024
0.00753597
0.0168315
0.0228864
0.0226856
0.0253447
0.0232309
0.0179881
0.00620264
-0.0113506
-0.0315287
-0.0584638
-0.0955598
-0.132389
-0.154262
-0.143157
-0.114135
-0.0761791
-0.0435189
-0.0162776
0.00182765
0.0100351
0.0145714
0.0215668
0.0299842
0.0218358
-0.00777705
-0.0791296
-0.15174
-0.191384
-0.175121
-0.117106
-0.0700188
-0.0232717
0.0120981
0.0424206
0.0533396
0.00818515
-0.0273266
-0.0904231
-0.100479
-0.0279878
-0.171939
-0.18221
-0.18294
-0.179221
-0.174673
-0.170063
-0.164587
-0.157081
-0.146871
-0.133971
-0.118922
-0.102501
-0.0854896
-0.0684799
-0.0518966
-0.0361518
-0.0213851
-0.00768093
0.00468887
0.0157266
0.0257654
0.033375
0.0358491
0.0360004
0.0318543
0.0260353
0.0167504
0.00342077
-0.0128933
-0.0355124
-0.0684717
-0.105039
-0.13039
-0.125189
-0.0979716
-0.0633838
-0.0337969
-0.00964077
0.00717312
0.0149132
0.0188928
0.0254711
0.0371227
0.0306064
0.00407779
-0.0662687
-0.144108
-0.18903
-0.174663
-0.112958
-0.0651199
-0.0194807
0.015313
0.0454693
0.0581322
0.0113545
-0.0241671
-0.088892
-0.101383
-0.0290588
-0.151651
-0.164275
-0.165999
-0.161106
-0.154799
-0.149014
-0.143332
-0.136427
-0.127352
-0.115916
-0.102564
-0.0879942
-0.0728517
-0.0576076
-0.0425854
-0.0280938
-0.0142372
-0.00121583
0.0105667
0.0210823
0.030732
0.038241
0.0399623
0.0407525
0.0365756
0.0308459
0.0231154
0.0125753
-0.000469846
-0.0185061
-0.0474341
-0.0820596
-0.106425
-0.102971
-0.0798674
-0.0499515
-0.0242926
-0.00374239
0.0114105
0.0187116
0.0223576
0.0283929
0.0386162
0.0355056
0.0120575
-0.0558384
-0.136245
-0.183731
-0.169865
-0.106849
-0.0592521
-0.0156119
0.018026
0.0478298
0.0610493
0.0135775
-0.0215045
-0.0866009
-0.101189
-0.0298227
-0.132901
-0.146034
-0.148518
-0.143789
-0.137196
-0.131141
-0.125564
-0.119296
-0.111328
-0.101301
-0.0894823
-0.0764558
-0.062782
-0.0488807
-0.0350276
-0.021512
-0.00848449
0.00392279
0.0153577
0.0255103
0.0347229
0.0425143
0.0486496
0.0453528
0.0402534
0.0344624
0.0279283
0.0188862
0.00733123
-0.00733174
-0.0300586
-0.0582049
-0.0810008
-0.0810717
-0.0629018
-0.0378823
-0.0158269
0.00167619
0.0152779
0.0218807
0.0252107
0.0306919
0.0414336
0.0385635
0.0167945
-0.0483693
-0.127297
-0.174004
-0.161769
-0.0994518
-0.0529114
-0.0117115
0.020353
0.0493786
0.0628036
0.014878
-0.0193288
-0.0833606
-0.0998196
-0.0303298
-0.116651
-0.128486
-0.131338
-0.127382
-0.121115
-0.115031
-0.109457
-0.103543
-0.096325
-0.0873695
-0.0768086
-0.0651257
-0.052814
-0.0402497
-0.0276764
-0.0153051
-0.00326757
0.00824589
0.0189768
0.0285743
0.0372494
0.0446379
0.0491823
0.0478321
0.043109
0.0378557
0.0327916
0.0249212
0.0143904
0.0037855
-0.0114219
-0.0350879
-0.0577652
-0.0599779
-0.0460432
-0.0258088
-0.00743122
0.00692171
0.0186621
0.0243655
0.0274547
0.0323203
0.0433362
0.0407231
0.0201941
-0.040676
-0.114835
-0.159892
-0.149984
-0.0904423
-0.0458942
-0.00748709
0.022365
0.0499453
0.0635575
0.0156425
-0.0170874
-0.0789333
-0.0971768
-0.0304862
-0.101081
-0.111845
-0.114925
-0.111724
-0.105967
-0.100071
-0.0946053
-0.0890387
-0.0825617
-0.0747095
-0.0654672
-0.0551627
-0.0442011
-0.0329143
-0.0215127
-0.0101911
0.00092965
0.0116372
0.0216892
0.0307042
0.038762
0.0455363
0.0496542
0.0491997
0.0454046
0.0410614
0.0375862
0.0318892
0.0242325
0.0177852
0.00638766
-0.0156331
-0.0367589
-0.0399729
-0.0301291
-0.0147791
9.76311e-05
0.0118117
0.0217038
0.0263652
0.0291316
0.0333726
0.0441174
0.0418309
0.0232854
-0.0309157
-0.098605
-0.141262
-0.134243
-0.0798918
-0.0385618
-0.00320189
0.0240149
0.0494715
0.0632417
0.016192
-0.0145117
-0.0732727
-0.0931554
-0.0302039
-0.0864331
-0.0964074
-0.0994966
-0.0968592
-0.0916948
-0.0862194
-0.0810869
-0.0759753
-0.0702167
-0.0633358
-0.0552172
-0.0460822
-0.0362741
-0.0261065
-0.0157914
-0.00551578
0.00462709
0.0144323
0.023675
0.0320097
0.0394446
0.0456459
0.049517
0.0498264
0.0472885
0.0441029
0.0424337
0.0403705
0.0367291
0.0320983
0.0206031
1.45032e-06
-0.0181678
-0.0218024
-0.0155048
-0.00456507
0.00701584
0.01642
0.0243999
0.0279785
0.030325
0.0339574
0.0438019
0.0420041
0.0263256
-0.0199039
-0.0796918
-0.118841
-0.114904
-0.0679382
-0.0310933
0.00105091
0.0253212
0.0479423
0.0617774
0.0165702
-0.0116716
-0.0664162
-0.0876604
-0.0293916
-0.0731574
-0.0821094
-0.0850445
-0.0829063
-0.0784057
-0.0734911
-0.0688085
-0.0641668
-0.059029
-0.0529635
-0.0458258
-0.0377682
-0.0290764
-0.0200301
-0.0108066
-0.00156633
0.0076049
0.0165209
0.0249736
0.0326394
0.0394675
0.0451803
0.0489558
0.0499282
0.0487257
0.0469295
0.0468377
0.0477035
0.0470896
0.0430086
0.031231
0.01323
-0.00163744
-0.00575119
-0.00257165
0.00445682
0.0130115
0.0205769
0.026826
0.0294075
0.0312177
0.034268
0.0426884
0.0412723
0.0285068
-0.00919317
-0.0594239
-0.0938597
-0.0928161
-0.0548348
-0.0237237
0.00501482
0.0262999
0.0454141
0.0591108
0.0166416
-0.00862952
-0.0584379
-0.0807163
-0.0279685
-0.0609348
-0.0688359
-0.0716447
-0.0699996
-0.0661454
-0.0617945
-0.0575807
-0.0534075
-0.0488498
-0.0435341
-0.0373088
-0.0302658
-0.0226218
-0.0146101
-0.00639205
0.00188011
0.0101164
0.0181539
0.0258135
0.03281
0.0390553
0.0443153
0.0480187
0.0495643
0.049525
0.049031
0.0499322
0.052067
0.0528024
0.0494929
0.0390669
0.0244656
0.0122733
0.00751385
0.00826796
0.0122587
0.0182252
0.0242476
0.0289964
0.0307641
0.0320162
0.0344794
0.0411637
0.0397831
0.0295043
0.000469458
-0.0391206
-0.0680447
-0.0694764
-0.0410249
-0.0165883
0.00853028
0.0270311
0.0420146
0.0552259
0.0163679
-0.0053234
-0.0494487
-0.0723409
-0.0258695
-0.0495803
-0.0566807
-0.0593928
-0.05815
-0.0548567
-0.0510398
-0.0473076
-0.0436179
-0.0396262
-0.0350069
-0.0296092
-0.023481
-0.0167893
-0.00973528
-0.00247015
0.00487137
0.0122059
0.019392
0.0262817
0.0326295
0.0383277
0.0431714
0.0468043
0.0488159
0.0496697
0.0501995
0.0516061
0.053877
0.0549837
0.052569
0.0442939
0.0329441
0.022919
0.0178239
0.0169716
0.0188042
0.0226536
0.0273342
0.0308948
0.0320427
0.0328748
0.0347756
0.0396565
0.0380025
0.0297584
0.00891343
-0.0201824
-0.0433528
-0.0449929
-0.0271045
-0.00975399
0.0115116
0.0276438
0.0380638
0.0503479
0.0159374
-0.00165035
-0.0396377
-0.062591
-0.0230649
-0.0392862
-0.0456632
-0.0482109
-0.0472755
-0.0444909
-0.0411951
-0.0379443
-0.0347277
-0.0312671
-0.0272811
-0.0226275
-0.0173276
-0.011514
-0.00535543
0.00101608
0.00748292
0.0139681
0.0203483
0.0265029
0.032223
0.0374046
0.0418709
0.04541
0.0477545
0.0492267
0.0504373
0.0520402
0.0540336
0.0550767
0.0532777
0.0470071
0.0384417
0.0303741
0.0254059
0.0236615
0.024147
0.0263862
0.0298515
0.0325211
0.0331939
0.0337495
0.0351973
0.0386366
0.0368113
0.0298174
0.0159109
-0.00384207
-0.0216803
-0.0251437
-0.0140074
-0.00324735
0.0140429
0.0283166
0.0342612
0.0451393
0.0158069
0.00246418
-0.0293315
-0.0516184
-0.0195667
-0.0300962
-0.0356609
-0.0379904
-0.037335
-0.0350345
-0.0322293
-0.0294274
-0.0266515
-0.0236822
-0.0202749
-0.0162972
-0.0117519
-0.00674227
-0.00140634
0.00414021
0.00979345
0.0154852
0.0211094
0.0265689
0.0316896
0.0363823
0.0404939
0.043896
0.0464256
0.0482733
0.0498545
0.0514812
0.0531138
0.0539203
0.0525381
0.0478955
0.0415639
0.0352403
0.0307687
0.0286459
0.0283754
0.029464
0.0318426
0.0338517
0.034189
0.0345971
0.0356671
0.0381194
0.034519
0.0297481
0.0212462
0.00912978
-0.00427634
-0.00912539
-0.00255195
0.00285078
0.0162532
0.0290897
0.0316763
0.0406648
0.0167652
0.00701622
-0.0190427
-0.0398056
-0.0154795
-0.0217107
-0.0265646
-0.0287326
-0.0283362
-0.0264595
-0.024087
-0.0216935
-0.0193264
-0.0168093
-0.013928
-0.0105601
-0.00669487
-0.0024118
0.0021752
0.00696487
0.0118673
0.0168247
0.0217468
0.0265572
0.0311135
0.0353356
0.0390961
0.0423132
0.0448931
0.046921
0.0486492
0.0502127
0.051531
0.0521022
0.0510508
0.0476698
0.0430489
0.0382047
0.0344081
0.0322384
0.0315881
0.0319157
0.0333974
0.0348826
0.0350026
0.0353343
0.0361272
0.0381188
0.0353069
0.0305177
0.025477
0.0184439
0.00822995
0.00252873
0.00667676
0.00845223
0.018319
0.0298464
0.0311059
0.0379586
0.0197518
0.0118438
-0.00952484
-0.0279408
-0.0110731
-0.0140867
-0.0184043
-0.0204337
-0.0202258
-0.018697
-0.0167081
-0.0146903
-0.0126983
-0.0105896
-0.00817875
-0.00535501
-0.00209768
0.00153239
0.0054412
0.00954206
0.0137591
0.0180431
0.0223189
0.026526
0.0305498
0.0343208
0.0377314
0.0407255
0.04324
0.045303
0.0470388
0.0485
0.0495897
0.0500002
0.0492304
0.0468106
0.0434708
0.0398305
0.0367451
0.0347334
0.0339168
0.033782
0.0345935
0.0356294
0.0356338
0.0358977
0.036493
0.0382324
0.036375
0.0323382
0.0293847
0.02465
0.0165839
0.0107212
0.013689
0.0134794
0.020332
0.0304408
0.0325257
0.0379998
0.0250596
0.0166437
-0.0015666
-0.0171131
-0.00679123
-0.00737626
-0.0111497
-0.012978
-0.0129019
-0.0116827
-0.0100452
-0.00836744
-0.00671049
-0.00496445
-0.00297098
-0.000629011
0.00208829
0.00513501
0.00843537
0.0119158
0.0155121
0.0191828
0.0228674
0.0265176
0.0300406
0.0333811
0.0364445
0.0391871
0.0415547
0.0435521
0.0452174
0.0465635
0.0475026
0.0478359
0.047307
0.0456149
0.0432294
0.0405401
0.0381176
0.0363634
0.0355086
0.0351225
0.0354749
0.036132
0.03609
0.0362851
0.0367095
0.0382211
0.0371245
0.0343777
0.0325414
0.0285668
0.0220231
0.0166306
0.0188267
0.0177928
0.0222223
0.0306996
0.034617
0.0383862
0.0307564
0.0206649
0.0042655
-0.00834942
-0.00319745
-0.00140228
-0.00463388
-0.00627619
-0.00632618
-0.00538428
-0.00405438
-0.00267348
-0.0013113
0.000115502
0.00174262
0.00366174
0.00590322
0.00843382
0.0111933
0.0141195
0.0171586
0.0202763
0.0234233
0.0265628
0.0296184
0.0325469
0.0352665
0.0377423
0.0399164
0.0417851
0.04334
0.0445729
0.0454141
0.0457318
0.0454086
0.044266
0.0425881
0.0406354
0.0387898
0.0373227
0.0365099
0.0360113
0.0360687
0.036432
0.0363666
0.0365005
0.0367779
0.0379975
0.0374089
0.0356261
0.0343262
0.0308332
0.0255168
0.0209398
0.0224346
0.02126
0.0238968
0.0306892
0.0357636
0.0373694
0.0343303
0.0230249
0.00793337
-0.00221797
-0.000673441
0.00400217
0.00118662
-0.00031851
-0.000468074
0.000250337
0.0013211
0.00244371
0.00354703
0.00469526
0.00600382
0.00755542
0.00938213
0.0114609
0.0137438
0.0161793
0.0187224
0.0213449
0.0240069
0.0266815
0.0293053
0.0318428
0.0342244
0.0364229
0.0383839
0.0400916
0.0415181
0.0426445
0.0434202
0.0437574
0.0436056
0.0428709
0.0417234
0.0403304
0.038963
0.0377736
0.0370464
0.0365259
0.036402
0.0365555
0.0364644
0.0365346
0.0366932
0.0375748
0.0372763
0.0359918
0.0348776
0.0319806
0.0277399
0.0239836
0.0248176
0.0237991
0.0252337
0.0303772
0.0354075
0.0358867
0.0346781
0.0235923
0.0101161
0.00159114
0.000796051
0.00876271
0.00631237
0.00496043
0.00475342
0.00528887
0.00613407
0.00702985
0.00790772
0.00881609
0.00985135
0.0110873
0.0125558
0.0142422
0.0161087
0.0181131
0.0202178
0.0224006
0.0246293
0.0268834
0.0291112
0.0312846
0.0333435
0.0352664
0.0370042
0.0385355
0.0398261
0.0408532
0.0415786
0.0419466
0.0419349
0.0414995
0.0407478
0.0397743
0.0387861
0.03785
0.0372241
0.0367361
0.0365077
0.0365182
0.0363972
0.0363979
0.0364608
0.0370192
0.0368395
0.035799
0.0346949
0.0323869
0.029083
0.0259982
0.0262756
0.0254565
0.02616
0.0297898
0.0339203
0.034265
0.0330341
0.0230725
0.0114674
0.00388593
0.00156322
0.0129399
0.010848
0.00965028
0.00939848
0.00977527
0.0104256
0.011127
0.0118126
0.0125172
0.0133201
0.014287
0.0154485
0.016797
0.0183028
0.0199319
0.0216531
0.0234484
0.0252929
0.02717
0.0290398
0.0308779
0.032636
0.034293
0.0358086
0.0371597
0.038312
0.0392427
0.0399224
0.0403166
0.0404142
0.0401944
0.039732
0.0390695
0.0383733
0.037658
0.0371329
0.0367025
0.0364238
0.0363355
0.0361834
0.0361136
0.0360906
0.0363936
0.0361835
0.0352807
0.0341637
0.0323158
0.0297736
0.0271856
0.026552
0.0263732
0.0266749
0.0289839
0.031962
0.0322959
0.0305998
0.0220328
0.0122282
0.00529833
0.00194491
0.016655
0.0148631
0.013792
0.0135055
0.0137536
0.0142419
0.0147787
0.0153007
0.0158327
0.0164398
0.0171796
0.0180808
0.0191411
0.0203377
0.0216428
0.0230314
0.024488
0.0259946
0.0275373
0.0290867
0.0306207
0.0321017
0.0335101
0.034811
0.0359846
0.0369989
0.0378355
0.038467
0.0388727
0.039047
0.0389782
0.0387226
0.0382888
0.0378103
0.0372784
0.0368471
0.0364777
0.0361846
0.0360281
0.0358454
0.0357059
0.035584
0.0355429
0.0353746
0.0345815
0.0334957
0.0319631
0.0299958
0.0278666
0.027051
0.0267838
0.0268142
0.0280569
0.0299187
0.0300401
0.0280122
0.0207506
0.0125014
0.00616949
0.00214798
0.0199246
0.0183874
0.0174358
0.0171305
0.0172751
0.0176271
0.0180237
0.018407
0.0187946
0.0192387
0.0197888
0.0204714
0.0212879
0.0222214
0.0232493
0.0243515
0.0255148
0.026727
0.0279761
0.0292415
0.0305027
0.0317318
0.0329108
0.0340098
0.0350137
0.0358929
0.0366343
0.0372114
0.0376126
0.0378334
0.0378642
0.0377505
0.0374816
0.0371613
0.0367731
0.0364246
0.0361083
0.0358218
0.0356198
0.0354066
0.0352092
0.0350103
0.0348333
0.034535
0.0338012
0.0327847
0.0314602
0.02989
0.028158
0.0272038
0.026824
0.0266253
0.0270566
0.0279678
0.027772
0.0255451
0.0193785
0.0124044
0.00665969
0.00225707
0.0227777
0.0214725
0.0206356
0.020325
0.0203844
0.0206206
0.0208988
0.0211663
0.0214337
0.0217425
0.0221351
0.0226358
0.0232478
0.0239594
0.024752
0.02561
0.0265217
0.0274796
0.0284731
0.0294885
0.0305081
0.0315105
0.0324814
0.0333937
0.0342381
0.0349869
0.0356314
0.0361475
0.0365281
0.0367682
0.0368581
0.036836
0.0366818
0.0364719
0.0361902
0.0359095
0.035636
0.0353635
0.0351327
0.0348913
0.0346467
0.0343819
0.0340934
0.0337002
0.0329964
0.0320605
0.0308841
0.0295659
0.0281461
0.0271107
0.0265651
0.0261915
0.0260349
0.0261561
0.0255869
0.0232941
0.0180195
0.0120539
0.00685521
0.00230353
0.025276
0.0241669
0.0234299
0.0231194
0.0231156
0.0232591
0.0234385
0.0236085
0.023776
0.0239739
0.0242373
0.024588
0.0250303
0.0255562
0.0261508
0.0268022
0.0275001
0.0282401
0.0290137
0.0298116
0.030618
0.0314133
0.0322016
0.0329454
0.0336412
0.0342655
0.0348126
0.0352616
0.0356064
0.035844
0.035963
0.0359918
0.0359105
0.0357731
0.0355664
0.0353365
0.0350952
0.0348363
0.034587
0.0343212
0.0340342
0.0337166
0.0333445
0.0328873
0.0321981
0.0313296
0.0302704
0.0291016
0.0278973
0.0268319
0.0261124
0.0255678
0.0249971
0.0245066
0.0235713
0.021286
0.0167278
0.0115472
0.00682627
0.0022992
0.0274506
0.0265087
0.0258586
0.0255519
0.0254974
0.0255684
0.0256699
0.0257621
0.0258484
0.0259559
0.0261138
0.0263416
0.0266441
0.027016
0.0274456
0.0279235
0.0284412
0.0289962
0.0295827
0.0301944
0.0308203
0.031449
0.0320595
0.0326465
0.0332029
0.0337091
0.0341591
0.0345366
0.0348345
0.0350507
0.0351739
0.0352237
0.0351837
0.0350877
0.034929
0.0347336
0.0345133
0.0342641
0.0340003
0.0337144
0.0333901
0.0330322
0.0326016
0.0320991
0.0314201
0.0305956
0.0296301
0.0285511
0.0274703
0.0264099
0.0255312
0.0248087
0.0239584
0.0230209
0.0217654
0.0195162
0.0155246
0.0109563
0.00664088
0.00225141
0.029335
0.0285374
0.027965
0.0276647
0.0275685
0.0275779
0.0276171
0.0276493
0.0276734
0.0277081
0.027781
0.0279093
0.0280978
0.0283431
0.028636
0.0289691
0.0293359
0.0297344
0.0301612
0.0306115
0.0310758
0.0315487
0.0320162
0.0324677
0.0328983
0.0332943
0.0336503
0.0339533
0.0341963
0.0343769
0.0344859
0.034534
0.0345104
0.0344326
0.0342989
0.0341232
0.0339124
0.0336676
0.0333904
0.0330873
0.0327317
0.032342
0.0318722
0.0313348
0.0306649
0.0298658
0.0289655
0.0279464
0.0269201
0.0258719
0.0248711
0.0239726
0.0229324
0.0216892
0.0201741
0.0179638
0.0144183
0.0103316
0.00635739
0.00216975
0.0309614
0.0302866
0.0297834
0.029493
0.0293654
0.0293237
0.0293066
0.0292842
0.0292556
0.0292382
0.029248
0.0292995
0.0293977
0.0295413
0.029723
0.0299348
0.0301752
0.0304432
0.0307357
0.0310502
0.0313815
0.0317186
0.032057
0.0323871
0.0327044
0.0329986
0.0332645
0.0334923
0.0336758
0.0338112
0.0338922
0.0339222
0.0338956
0.0338192
0.0336926
0.0335225
0.0333108
0.0330645
0.0327732
0.0324535
0.0320736
0.0316556
0.0311604
0.0305952
0.0299302
0.0291459
0.0282816
0.027305
0.0262942
0.025246
0.0241646
0.0231075
0.0219271
0.020494
0.0187834
0.0166046
0.0134133
0.00970732
0.00602033
0.00206599
0.032358
0.0317877
0.0313452
0.0310665
0.0309157
0.0308343
0.0307737
0.0307093
0.0306384
0.0305727
0.0305268
0.0305129
0.0305357
0.0305945
0.0306845
0.0308041
0.030946
0.031109
0.0312917
0.0314927
0.031708
0.0319317
0.0321585
0.032382
0.0325981
0.0327993
0.032981
0.033135
0.033257
0.0333414
0.0333848
0.0333858
0.0333413
0.033253
0.0331188
0.0329442
0.0327232
0.0324685
0.0321628
0.0318252
0.031426
0.0309825
0.0304688
0.0298818
0.0292146
0.0284396
0.0275897
0.0266393
0.0256283
0.0245636
0.0234308
0.0222489
0.0209545
0.0194154
0.0175753
0.0154176
0.0125082
0.00910751