/*--------------------------------*- C++ -*----------------------------------*\
| =========                 |                                                 |
| \\      /  F ield         | OpenFOAM: The Open Source CFD Toolbox           |
|  \\    /   O peration     | Version:  2312                                  |
|   \\  /    A nd           | Website:  www.openfoam.com                      |
|    \\/     M anipulation  |                                                 |
\*---------------------------------------------------------------------------*/
FoamFile
{
    version     2.0;
    format      ascii;
    arch        "LSB;label=32;scalar=64";
    class       surfaceScalarField;
    location    "123.65";
    object      phi;
}
// * * * * * * * * * * * * * * * * * * * * * * * * * * * * * * * * * * * * * //

dimensions      [0 3 -1 0 0 0 0];

oriented        oriented;

internalField   nonuniform List<scalar> 
10785
(
-0.000234824
0.00411779
-0.00388297
0.00266443
0.00357598
-0.00647523
0.0116413
-0.00619579
-0.00278104
0.0296298
-0.0265204
0.0085319
0.0566839
-0.0550006
0.0279465
0.0889007
-0.0861278
0.053911
0.120512
-0.114649
0.0830376
0.146476
-0.137357
0.111393
0.164236
-0.153377
0.135618
0.17417
-0.163811
0.153877
0.178956
-0.170786
0.166
0.182056
-0.176219
0.173119
0.185406
-0.181525
0.178175
0.189085
-0.185034
0.181354
-0.189658
0.186065
0.192679
0.000196335
0.00392146
0.00515042
-0.0013781
0.0193932
-0.0204386
0.044135
-0.0512622
0.0745769
-0.0854425
0.103791
-0.115341
0.126712
-0.13757
0.141693
-0.152337
0.150225
-0.161909
0.155324
-0.16891
0.15956
-0.175021
0.164304
-0.180964
0.169164
-0.186385
0.175551
-0.191421
-0.197209
0.183101
0.00119908
0.00272238
0.00985779
-0.0100368
0.0301973
-0.0407781
0.0579578
-0.0790226
0.0848393
-0.112324
0.105416
-0.135918
0.118673
-0.150827
0.126664
-0.160328
0.132157
-0.167403
0.136898
-0.173652
0.141463
-0.179587
0.145729
-0.18523
0.150067
-0.190723
0.154885
-0.196239
-0.201543
0.159219
0.00255693
0.000165445
0.0159244
-0.0234043
0.0399953
-0.064849
0.065132
-0.104159
0.0845902
-0.131782
0.0972078
-0.148536
0.105004
-0.158623
0.110339
-0.165663
0.114548
-0.171612
0.118144
-0.177248
0.121415
-0.182858
0.124837
-0.188651
0.128782
-0.194668
0.133444
-0.200901
-0.20762
0.139522
0.00431853
-0.00415308
0.0218311
-0.0409169
0.0452383
-0.0882562
0.0646217
-0.123543
0.0773441
-0.144505
0.0849525
-0.156145
0.0896692
-0.16334
0.0929665
-0.16896
0.095656
-0.174301
0.0982289
-0.179821
0.101
-0.185628
0.104035
-0.191686
0.107244
-0.197878
0.110737
-0.204394
-0.21085
0.113967
0.00654615
-0.0106992
0.02585
-0.0602207
0.0453452
-0.107751
0.0588621
-0.13706
0.0666421
-0.152285
0.0708693
-0.160372
0.073395
-0.165866
0.0752959
-0.170861
0.0770465
-0.176052
0.0787688
-0.181543
0.0804563
-0.187316
0.0821256
-0.193356
0.0839933
-0.199746
0.0860608
-0.206461
-0.213502
0.0887133
0.00859758
-0.0192968
0.0267266
-0.0783497
0.041546
-0.122571
0.0501718
-0.145685
0.0543279
-0.156441
0.0562358
-0.16228
0.0572489
-0.166879
0.0579179
-0.17153
0.058398
-0.176532
0.0587737
-0.181919
0.0591567
-0.187699
0.0596967
-0.193896
0.0603926
-0.200441
0.0612703
-0.207339
-0.214466
0.0622337
0.00983159
-0.0291284
0.0250365
-0.0935546
0.0353299
-0.132864
0.0401055
-0.150461
0.0416409
-0.157976
0.0417519
-0.162391
0.0413093
-0.166436
0.0406131
-0.170834
0.0397862
-0.175705
0.0388972
-0.18103
0.0379827
-0.186784
0.0370265
-0.19294
0.0361196
-0.199534
0.0353369
-0.206556
0.0349632
-0.214092
-0.00115361
0.0183558
-0.0172022
-0.00464095
0.0310979
-0.0276106
-0.00961388
0.0336128
-0.0286399
-0.0153216
0.0325745
-0.0268667
-0.0212736
0.029856
-0.0239039
-0.0272101
0.0251671
-0.0192306
-0.0329597
0.0178168
-0.0120672
-0.0385417
0.00717612
-0.00159417
-0.0431531
-0.00659517
0.0112066
-0.0468683
-0.0238077
0.0275229
-0.0493599
-0.0442498
0.0467414
-0.0502922
-0.0670724
0.0680047
-0.0495299
-0.0907495
0.0899872
-0.0468631
-0.113006
0.110339
-0.132711
-0.0418277
0.127675
0.000792301
0.0175635
0.000128049
0.0317622
-0.00175859
0.0354995
-0.00388873
0.0347046
-0.00567208
0.0316393
-0.00686276
0.0263578
-0.00738528
0.0183393
-0.00727945
0.00707029
-0.00616592
-0.0077087
-0.00372394
-0.0262497
0.000255519
-0.0482292
0.00623555
-0.0730524
0.0125439
-0.0970578
0.0198732
-0.120335
-0.136815
0.0239771
0.00252445
0.015039
0.00488895
0.0293977
0.00658081
0.0338076
0.00835798
0.0329274
0.0109208
0.0290765
0.0145515
0.022727
0.0192759
0.013615
0.0248831
0.00146307
0.0320872
-0.0149128
0.0412883
-0.0354508
0.0526981
-0.0596391
0.0667587
-0.087113
0.0822974
-0.112597
0.0981074
-0.136145
-0.151282
0.112575
0.00350399
0.011535
0.00828844
0.0246132
0.0130495
0.0290466
0.0181918
0.0277851
0.0243247
0.0229436
0.0317509
0.0153008
0.0405188
0.00484704
0.0513076
-0.00932569
0.0643047
-0.02791
0.0802218
-0.0513679
0.0988805
-0.0782978
0.119422
-0.107655
0.139683
-0.132858
0.158834
-0.155296
-0.16707
0.174623
0.00346984
0.00806519
0.00934092
0.0187421
0.0159808
0.0224067
0.0233424
0.0204236
0.0318615
0.0144245
0.0419848
0.00517747
0.0546487
-0.00781679
0.0706244
-0.0253015
0.0906456
-0.0479311
0.114403
-0.0751251
0.140329
-0.104224
0.165616
-0.132941
0.187014
-0.154256
0.204045
-0.172328
-0.176372
0.213347
0.00260652
0.00545867
0.0080712
0.0132775
0.0150558
0.0154221
0.0233312
0.0121481
0.0334294
0.00432631
0.0467026
-0.00809569
0.0644807
-0.0255949
0.0875909
-0.0484116
0.115426
-0.0757659
0.145209
-0.104908
0.173676
-0.132691
0.196416
-0.155682
0.21301
-0.17085
0.22198
-0.181298
-0.180904
0.226511
0.00134337
0.0041153
0.00538974
0.00923108
0.0117036
0.00910822
0.0206349
0.00321685
0.0337244
-0.00876321
0.0526825
-0.0270538
0.0782253
-0.0511377
0.108917
-0.0791031
0.141075
-0.107924
0.170159
-0.133992
0.192541
-0.155074
0.205778
-0.168919
0.212394
-0.177465
0.212528
-0.181432
-0.181535
0.21316
0.000232334
0.00298818
0.00931536
0.0210641
0.0402474
0.0671045
0.0990044
0.131294
0.158988
0.178873
0.189799
0.193999
0.194709
0.194631
0.19916
-0.0330515
-0.313554
0.304778
0.00794408
-0.326721
0.285725
0.0848775
-0.196592
0.119659
0.153224
0.0396321
-0.107979
0.200522
0.228878
-0.276176
0.222296
0.323119
-0.344894
0.208712
0.343234
-0.32965
0.176998
0.417086
-0.385372
0.173106
0.354302
-0.35041
0.210332
0.0569491
-0.0941758
0.257308
-0.1529
0.105925
0.265228
-0.266337
0.258416
0.259884
-0.299509
0.304853
0.26267
-0.432794
0.430008
0.268487
-0.405779
0.399962
0.271768
-0.183778
0.180497
0.286578
-0.000145247
-0.0146647
0.296301
0.396754
-0.406476
0.298382
0.51059
-0.512672
0.302265
0.415632
-0.419515
0.307939
0.271821
-0.277495
0.29814
-0.377067
0.386866
0.304292
-0.589869
0.583718
0.305343
-0.422631
0.42158
0.323634
-0.212434
0.194142
0.327484
0.800097
-0.803947
0.313938
0.855686
-0.842139
0.28624
-0.347501
0.375199
0.287689
-0.724983
0.723533
0.282971
0.0325152
-0.0277971
0.275381
0.375501
-0.367911
0.264762
0.0485674
-0.0379486
0.261826
-0.132355
0.135291
0.263197
-0.0105036
0.00913304
0.259013
0.0475047
-0.0433209
0.257891
0.00585707
-0.0047347
0.256333
-0.0115415
0.0130991
0.00649971
-0.00218603
-0.0060936
-0.283483
-0.0220267
-0.310787
0.0275255
-0.246144
0.11077
-0.0436126
0.181834
0.157815
0.21916
0.285793
0.211857
0.350537
0.193481
0.435463
0.197774
0.350009
0.222583
0.0321404
0.260944
-0.191262
0.268845
-0.274237
0.260349
-0.291013
0.257984
-0.430429
0.265702
-0.413496
0.26834
-0.186417
0.282942
-0.0147469
0.29894
0.380756
0.299612
0.509918
0.303281
0.411963
0.308449
0.266652
0.290724
-0.359341
0.29588
-0.595026
0.296448
-0.423199
0.318345
-0.234331
0.334141
0.784301
0.322337
0.867491
0.285032
-0.310197
0.282548
-0.722498
0.282049
0.0330141
0.278219
0.379331
0.26656
0.0602274
0.26189
-0.127686
0.264122
-0.0127353
0.260515
0.0511122
0.258557
0.00781518
0.256923
-0.00990775
0.0104193
0.0748918
-0.2458
0.014071
-0.249967
0.00988123
-0.241954
0.0905285
-0.12426
0.182977
0.0653658
0.230728
0.238043
0.228588
0.352676
0.220848
0.443203
0.228566
0.342291
0.238693
0.022014
0.261977
-0.214546
0.267145
-0.279406
0.253048
-0.276916
0.243068
-0.420449
0.256157
-0.426585
0.262556
-0.192816
0.27656
-0.028751
0.298787
0.358529
0.299468
0.509237
0.30235
0.409082
0.305735
0.263267
0.280981
-0.334588
0.284269
-0.598313
0.28392
-0.42285
0.308331
-0.258743
0.338162
0.75447
0.327175
0.878477
0.281909
-0.26493
0.275017
-0.715606
0.278906
0.0291248
0.278973
0.379264
0.26679
0.0724107
0.26046
-0.121357
0.263642
-0.0159174
0.260879
0.0538753
0.258234
0.0104601
0.25669
-0.008363
0.0137118
0.152901
-0.224078
0.100755
-0.197821
0.0474797
-0.18868
0.082388
-0.159168
0.179016
-0.0312619
0.237598
0.17946
0.240204
0.35007
0.24279
0.440618
0.254778
0.330302
0.253846
0.022946
0.25969
-0.220389
0.26367
-0.283386
0.24751
-0.260756
0.226457
-0.399396
0.241768
-0.441897
0.255218
-0.206265
0.26848
-0.0420134
0.293406
0.333602
0.294011
0.508632
0.296975
0.406118
0.298853
0.26139
0.269169
-0.304903
0.269965
-0.599109
0.268728
-0.421613
0.293644
-0.283658
0.336442
0.711672
0.326553
0.888366
0.277382
-0.215759
0.265747
-0.703971
0.273613
0.0212591
0.277456
0.37542
0.265402
0.0844651
0.257627
-0.113581
0.261817
-0.0201078
0.260126
0.0555662
0.256974
0.0136121
0.255685
-0.00707349
0.0161588
0.184867
-0.195598
0.16411
-0.177063
0.115009
-0.139579
0.0909565
-0.135115
0.152892
-0.0931972
0.22533
0.107022
0.243465
0.331936
0.255707
0.428375
0.273195
0.312815
0.265368
0.0307735
0.255567
-0.210589
0.253518
-0.281336
0.237203
-0.244441
0.207325
-0.369518
0.22079
-0.455362
0.243184
-0.228659
0.257232
-0.0560615
0.286381
0.304454
0.289404
0.505609
0.291042
0.40448
0.289706
0.262726
0.255067
-0.270264
0.252915
-0.596958
0.250915
-0.419613
0.275142
-0.307886
0.331795
0.655018
0.323794
0.896367
0.271479
-0.163444
0.255466
-0.687958
0.266576
0.010149
0.273949
0.368047
0.262526
0.0958883
0.253613
-0.104668
0.258792
-0.0252872
0.258332
0.0560264
0.25487
0.0170739
0.254
-0.00620274
0.0175638
0.189344
-0.15843
0.169197
-0.156916
0.154861
-0.125243
0.125097
-0.105352
0.132401
-0.100501
0.190376
0.0490467
0.223613
0.298699
0.250432
0.401555
0.276428
0.286819
0.273159
0.034043
0.251722
-0.189152
0.242232
-0.271846
0.226632
-0.228842
0.191433
-0.334319
0.197223
-0.461152
0.227028
-0.258463
0.243292
-0.0723257
0.273324
0.274422
0.278187
0.500746
0.280851
0.401815
0.278155
0.265422
0.239819
-0.231928
0.23392
-0.591059
0.230589
-0.416281
0.254195
-0.331493
0.320709
0.588505
0.315302
0.901774
0.262691
-0.110833
0.244489
-0.669756
0.257793
-0.00315527
0.268372
0.357468
0.258215
0.106046
0.248629
-0.095083
0.254738
-0.0313961
0.255606
0.0551589
0.252052
0.0206281
0.251759
-0.00591056
0.0177593
0.18297
-0.12824
0.15591
-0.129856
0.148734
-0.118067
0.144727
-0.101345
0.142495
-0.0982682
0.181817
0.00972472
0.223727
0.256789
0.254833
0.370449
0.278063
0.263589
0.269271
0.0428349
0.240786
-0.160667
0.225396
-0.256456
0.211891
-0.215337
0.175312
-0.29774
0.172249
-0.45809
0.204971
-0.291185
0.226787
-0.0941414
0.261026
0.240182
0.269052
0.49272
0.271303
0.399564
0.266191
0.270534
0.224628
-0.190365
0.214072
-0.580503
0.20791
-0.410118
0.231618
-0.355201
0.308604
0.511519
0.306549
0.903829
0.253597
-0.0578807
0.233538
-0.649697
0.248257
-0.0178738
0.261467
0.344257
0.25284
0.114673
0.242993
-0.0852364
0.2499
-0.0383031
0.252106
0.0529536
0.248687
0.0240469
0.249121
-0.00634495
0.0166148
0.174548
-0.103628
0.153299
-0.108607
0.138778
-0.103546
0.132509
-0.0950759
0.131771
-0.0975295
0.161391
-0.0198961
0.207352
0.210828
0.24821
0.329591
0.27774
0.23406
0.270124
0.0504506
0.234379
-0.124922
0.211727
-0.233804
0.19766
-0.201269
0.159783
-0.259863
0.148
-0.446306
0.177981
-0.321167
0.203242
-0.119402
0.24041
0.203014
0.252932
0.480199
0.258273
0.394223
0.253578
0.275229
0.210557
-0.147344
0.193618
-0.563564
0.18618
-0.402681
0.208075
-0.377096
0.290172
0.429422
0.291668
0.902333
0.243085
-0.00929727
0.222519
-0.629132
0.237268
-0.0326228
0.252728
0.328797
0.24652
0.120881
0.236995
-0.0757117
0.244504
-0.0458122
0.248012
0.0494455
0.244968
0.027091
0.246255
-0.00763203
0.0140358
0.422158
-0.0724021
-0.453384
0.394505
-0.0809544
0.362615
-0.0716563
0.330275
-0.0627359
0.28572
-0.052974
0.252791
0.0130323
0.266546
0.197073
0.359102
0.237035
0.46345
0.129711
0.506889
0.00701167
0.497438
-0.115471
0.463052
-0.199418
0.440976
-0.179194
0.415104
-0.233991
0.376725
-0.407927
0.355999
-0.300441
0.31959
-0.0829932
0.29987
0.222734
0.296589
0.48348
0.350211
0.340601
0.412333
0.213107
0.419219
-0.15423
0.391152
-0.535498
0.351471
-0.362999
0.319138
-0.344763
0.371142
0.377418
0.406279
0.867195
0.416983
-0.020001
0.377692
-0.589841
0.355893
-0.0108233
0.375875
0.308815
0.378774
0.117982
0.364505
-0.0614418
0.369415
-0.0507224
0.370756
0.0481046
0.362512
0.0353343
0.36073
-0.00584943
0.0133677
0.452519
-0.046974
-0.477947
0.426798
-0.0552332
0.4033
-0.0481585
0.382048
-0.0414836
0.354215
-0.0251413
0.344604
0.0226439
0.395565
0.146112
0.484285
0.148314
0.538507
0.0754894
0.549019
-0.00349987
0.52559
-0.0920426
0.485598
-0.159426
0.459341
-0.152936
0.432607
-0.207257
0.396547
-0.371867
0.360011
-0.263905
0.312454
-0.0354361
0.292115
0.243073
0.302655
0.47294
0.381731
0.261525
0.4569
0.137938
0.455476
-0.152806
0.415106
-0.495128
0.354109
-0.302002
0.317357
-0.30801
0.376116
0.318658
0.431115
0.812197
0.454706
-0.0435917
0.410208
-0.545343
0.378306
0.0210791
0.403018
0.284103
0.411142
0.109858
0.395557
-0.0458572
0.399654
-0.0548193
0.401381
0.0463779
0.392159
0.0445565
0.390323
-0.0040134
0.0118816
0.4928
-0.0293459
-0.510428
0.472834
-0.0352668
0.455827
-0.0311523
0.439118
-0.0247737
0.419985
-0.00600893
0.42546
0.0171689
0.478266
0.0933067
0.539932
0.0866475
0.569853
0.0455691
0.575267
-0.00891438
0.553936
-0.0707117
0.520971
-0.126461
0.506891
-0.138856
0.478274
-0.17864
0.416868
-0.310461
0.348972
-0.196009
0.294181
0.0193548
0.28533
0.251924
0.330661
0.427609
0.425918
0.166268
0.50418
0.0596761
0.503588
-0.152214
0.444985
-0.436524
0.353356
-0.210374
0.303892
-0.258546
0.38024
0.242311
0.468443
0.723993
0.500165
-0.0753134
0.444766
-0.489944
0.403888
0.0619575
0.433761
0.25423
0.447073
0.0965455
0.429796
-0.0285796
0.432567
-0.0575908
0.434637
0.044308
0.425082
0.0541119
0.423471
-0.00240273
0.00962664
0.535369
-0.0169834
-0.547731
0.520566
-0.0204637
0.506908
-0.0174944
0.496791
-0.0146565
0.489091
0.00169093
0.495736
0.0105239
0.533826
0.0552167
0.575589
0.0448846
0.592792
0.0283656
0.595661
-0.0117831
0.582936
-0.0579863
0.550487
-0.094013
0.523788
-0.112156
0.49308
-0.147932
0.425665
-0.243047
0.341134
-0.111478
0.291495
0.0689938
0.318247
0.225172
0.404991
0.340866
0.491722
0.0795363
0.553343
-0.00194471
0.546622
-0.145493
0.470667
-0.360569
0.355262
-0.0949691
0.295731
-0.199015
0.390411
0.147631
0.514611
0.599793
0.5494
-0.110102
0.476679
-0.417223
0.426871
0.111766
0.466272
0.214829
0.486611
0.0762062
0.467922
-0.00989035
0.469199
-0.0588683
0.471458
0.0420489
0.462383
0.0631876
0.461451
-0.00147094
0.00671896
0.58211
-0.00843092
-0.590662
0.572246
-0.0106004
0.563647
-0.00889556
0.557567
-0.00857623
0.554551
0.00470711
0.561065
0.0040101
0.58397
0.0323118
0.609411
0.0194433
0.624315
0.0134617
0.624965
-0.0124335
0.615461
-0.0484822
0.596832
-0.0753835
0.571792
-0.0871166
0.532343
-0.108482
0.463212
-0.173916
0.39428
-0.0425461
0.368815
0.0944592
0.421686
0.172301
0.520094
0.242457
0.576299
0.0233319
0.606612
-0.0322585
0.592006
-0.130886
0.512312
-0.280875
0.40326
0.0140825
0.329375
-0.12513
0.412945
0.0640598
0.56496
0.447779
0.600382
-0.145525
0.504757
-0.321598
0.449016
0.167507
0.505683
0.158162
0.532537
0.0493523
0.510477
0.0121691
0.510088
-0.058479
0.512927
0.0392102
0.505511
0.0706031
0.505918
-0.00187771
0.00331321
0.633922
-0.00283017
-0.639522
0.628
-0.00467854
0.622257
-0.00315311
0.618739
-0.00505774
0.618656
0.00478955
0.622706
-3.95518e-05
0.637557
0.0174607
0.651988
0.00501274
0.66097
0.00447978
0.663475
-0.0149393
0.652054
-0.0370604
0.630278
-0.0536081
0.611004
-0.0678426
0.582964
-0.0804425
0.525943
-0.116895
0.485256
-0.00185888
0.493826
0.0858895
0.555341
0.110785
0.635932
0.161866
0.655943
0.00332074
0.654125
-0.0304404
0.627817
-0.104579
0.557527
-0.210585
0.492291
0.0793191
0.426568
-0.0594076
0.468154
0.0224746
0.617604
0.298329
0.645079
-0.172999
0.529707
-0.206227
0.484152
0.213062
0.560762
0.0815514
0.585669
0.0244453
0.558159
0.0396796
0.557701
-0.0580218
0.561576
0.0353362
0.556717
0.0754612
0.558938
-0.00409815
-0.00024707
0.690694
0.000635922
-0.69416
0.687271
-0.00125544
0.683962
0.000155654
0.681847
-0.00294253
0.682731
0.00390525
0.684893
-0.00220201
0.693766
0.00858838
0.700917
-0.00213913
0.70645
-0.0010528
0.706465
-0.0149547
0.697944
-0.0285387
0.684856
-0.0405205
0.667074
-0.0500609
0.637966
-0.0513342
0.594816
-0.0737445
0.585546
0.00741085
0.610992
0.0604432
0.655588
0.0661897
0.712562
0.104892
0.721028
-0.00514463
0.708605
-0.0180172
0.676639
-0.0726138
0.613674
-0.147619
0.599311
0.0936828
0.572512
-0.0326087
0.578601
0.0163854
0.68363
0.193299
0.691528
-0.180897
0.578124
-0.0928235
0.556405
0.234781
0.635358
0.00259916
0.647156
0.0126463
0.618197
0.0686387
0.619297
-0.059121
0.622344
0.0322887
0.620015
0.0777899
0.623094
-0.00717697
-0.00267457
0.752274
0.00252233
-0.754161
0.750437
0.000581801
0.74881
0.00178328
0.747427
-0.00155988
0.74847
0.00286199
0.749196
-0.00292777
0.75416
0.00362389
0.757299
-0.00527743
0.759818
-0.00357245
0.758678
-0.0138141
0.751325
-0.0211856
0.738879
-0.0280751
0.724768
-0.0359497
0.706678
-0.0332446
0.677505
-0.0445713
0.678538
0.00637849
0.702228
0.0367525
0.730866
0.0375521
0.767196
0.068562
0.766721
-0.00466974
0.758416
-0.00971236
0.732377
-0.0465742
0.687318
-0.10256
0.698264
0.0827362
0.691931
-0.0262756
0.691367
0.0169493
0.750468
0.134199
0.735201
-0.16563
0.650768
-0.00839032
0.661415
0.224134
0.718473
-0.0544592
0.713216
0.0179035
0.6929
0.0889549
0.694901
-0.0611215
0.695019
0.0321699
0.696169
0.0766398
0.698412
-0.00941948
-0.00244429
0.819094
0.00335447
-0.819926
0.81826
0.00141494
0.817509
0.00253497
0.816682
-0.000732735
0.81736
0.00218397
0.817282
-0.00285002
0.819776
0.00112936
0.820215
-0.00571642
0.820971
-0.00432855
0.818532
-0.0113749
0.812904
-0.0155578
0.804302
-0.019473
0.793719
-0.0253664
0.780599
-0.0201243
0.762462
-0.0264348
0.765961
0.00287993
0.780874
0.0218392
0.798227
0.0201992
0.823865
0.0429238
0.82413
-0.00493459
0.819952
-0.00553468
0.79616
-0.0227821
0.764659
-0.0710588
0.784231
0.063164
0.779862
-0.0219065
0.785777
0.0110341
0.818834
0.101141
0.785842
-0.132638
0.742454
0.0349975
0.778843
0.187746
0.801639
-0.0772549
0.786565
0.0329771
0.782436
0.0930841
0.780553
-0.0592383
0.778446
0.0342769
0.784321
0.070764
0.783739
-0.00883687
0.000860932
0.89163
0.00359723
-0.891873
0.891267
0.00177775
0.89103
0.00277176
0.890458
-0.000160064
0.890804
0.00183757
0.890285
-0.00233093
0.891194
0.000220132
0.890481
-0.00500343
0.89008
-0.00392708
0.887461
-0.00875608
0.883087
-0.0111839
0.876483
-0.0128687
0.868266
-0.0171498
0.860372
-0.01223
0.84962
-0.0156833
0.851857
0.000643502
0.861605
0.0120905
0.871599
0.0102055
0.888886
0.025637
0.886417
-0.00246558
0.885689
-0.0048071
0.871136
-0.00822906
0.848437
-0.0483591
0.8679
0.043701
0.858999
-0.0130054
0.864448
0.00558433
0.889492
0.0760973
0.852537
-0.0956832
0.841859
0.045676
0.885585
0.14402
0.877172
-0.0688417
0.867049
0.0430997
0.878699
0.0814342
0.867683
-0.0482223
0.867091
0.0348691
0.877937
0.0599176
0.873406
-0.00430583
0.00626362
0.970476
0.00350665
-0.970385
0.970362
0.00189107
0.970344
0.00279008
0.96992
0.000264555
0.969998
0.00175929
0.969307
-0.00164025
0.96939
0.000137371
0.968207
-0.00382006
0.967228
-0.0029489
0.964732
-0.00625931
0.961133
-0.00758564
0.956569
-0.00830408
0.950797
-0.0113777
0.945838
-0.00727124
0.939692
-0.00953708
0.940601
-0.000265456
0.946708
0.00598286
0.951574
0.00534028
0.963431
0.0137797
0.961549
-0.000583756
0.960968
-0.00422627
0.953203
-0.00046395
0.934879
-0.0300347
0.950693
0.0278862
0.94274
-0.00505225
0.946715
0.0016097
0.967705
0.0551071
0.93078
-0.0587577
0.936652
0.0398034
0.977732
0.10294
0.953908
-0.045018
0.9546
0.0424077
0.972505
0.0635298
0.95374
-0.0294572
0.957614
0.0309942
0.970977
0.0465553
0.9633
0.0033708
0.0120544
1.05643
0.00327307
-1.0562
1.0564
0.00192628
1.05648
0.00270811
1.05612
0.000628392
1.05607
0.00181011
1.05535
-0.000921718
1.05503
0.000457561
1.05381
-0.00260542
1.0526
-0.00173683
1.05056
-0.00422039
1.04776
-0.0047833
1.04466
-0.00520918
1.0405
-0.00721032
1.03741
-0.00418319
1.03395
-0.00608195
1.03379
-0.000101296
1.03785
0.0019261
1.03983
0.00336004
1.0471
0.00651105
1.04565
0.000858997
1.0441
-0.00267012
1.04202
0.00161183
1.02802
-0.0160336
1.03955
0.0163586
1.03417
0.000329307
1.03364
0.00213342
1.05171
0.0370378
1.0224
-0.0294413
1.03254
0.0296602
1.06495
0.0705258
1.03976
-0.0198209
1.04771
0.0344558
1.06371
0.0475302
1.04411
-0.00985908
1.05144
0.0236606
1.06342
0.0345744
1.05492
0.0118754
0.0167807
1.15022
0.00299636
-1.14994
1.15023
0.00191437
1.15035
0.00258396
1.15006
0.000919809
1.14997
0.00190602
1.14933
-0.000284837
1.14889
0.000899925
1.14783
-0.00155191
1.14671
-0.000611656
1.14514
-0.0026528
1.14298
-0.00262195
1.14086
-0.00309537
1.13802
-0.0043653
1.13596
-0.00212171
1.13404
-0.00416339
1.13338
0.000553566
1.13576
-0.000448703
1.13627
0.00284793
1.1404
0.00238131
1.13974
0.00151635
1.13797
-0.000897099
1.13808
0.00149916
1.12805
-0.00599966
1.13563
0.00878071
1.13238
0.00358124
1.13079
0.00371512
1.14489
0.0229427
1.12363
-0.00818195
1.13274
0.0205489
1.15652
0.0467489
1.13694
-0.000239851
1.14658
0.0248081
1.15785
0.0362633
1.14242
0.00557052
1.15063
0.0154489
1.15938
0.0258293
1.15217
0.0190885
0.0198181
1.25273
0.00269953
-1.25244
1.25278
0.00187078
1.25293
0.00243436
1.25271
0.00113815
1.25264
0.00197475
1.25213
0.000224468
1.25173
0.00130168
1.2509
-0.000729147
1.24998
0.000311911
1.24883
-0.00149804
1.24724
-0.0010324
1.24581
-0.00167302
1.24386
-0.00241376
1.24247
-0.000733988
1.24127
-0.00295413
1.24049
0.0013266
1.24173
-0.00168687
1.24158
0.00299719
1.24371
0.000251538
1.24326
0.00196441
1.24166
0.000703419
1.24259
0.000575785
1.23598
0.000602462
1.24097
0.00379885
1.2389
0.00564227
1.23716
0.00545865
1.24707
0.0130315
1.23377
0.00511589
1.24108
0.0132454
1.25683
0.0309922
1.24395
0.012642
1.25303
0.0157339
1.26019
0.0291003
1.24991
0.0158528
1.25736
0.00799552
1.26303
0.020157
1.2579
0.0242265
0.0212219
1.36488
0.00241138
-1.36459
1.36495
0.00179485
1.36513
0.00226094
1.36499
0.00127042
1.36499
0.00198343
1.36461
0.000595925
1.36434
0.00158065
1.36373
-0.000126366
1.36307
0.000971603
1.36226
-0.000686477
1.36115
7.66587e-05
1.36021
-0.000726756
1.35885
-0.00106251
1.35795
0.00017249
1.35702
-0.00202889
1.35641
0.00193619
1.35679
-0.00205918
1.35644
0.00334061
1.3574
-0.000709399
1.35703
0.00233354
1.35604
0.00169801
1.35679
-0.00017341
1.35282
0.00457582
1.35596
0.000654302
1.35462
0.00698491
1.35385
0.00622714
1.36031
0.00657154
1.35262
0.012806
1.35789
0.00797884
1.36789
0.0209847
1.36098
0.0195562
1.36845
0.00826294
1.37287
0.0246826
1.367
0.0217215
1.3729
0.00209713
1.3764
0.0166542
1.37346
0.027166
0.0213186
1.48759
0.00211991
-1.4873
1.48771
0.00167403
1.48792
0.00205146
1.48788
0.00131076
1.48796
0.0019091
1.48773
0.000820886
1.48761
0.00170357
1.48721
0.000275485
1.4868
0.00137353
1.48626
-0.000142762
1.48553
0.000804309
1.48493
-0.000123587
1.48396
-9.16222e-05
1.48343
0.000704069
1.48259
-0.0011963
1.48221
0.00231707
1.48203
-0.00187491
1.48174
0.00363103
1.48205
-0.00101755
1.48171
0.00266929
1.48125
0.00215708
1.48164
-0.000559003
1.47972
0.00649292
1.48157
-0.00119621
1.4809
0.00765759
1.48086
0.00627086
1.48449
0.00293806
1.48095
0.0163458
1.48471
0.00422172
1.49059
0.0150983
1.48812
0.0220287
1.49391
0.00247237
1.49684
0.0217572
1.49435
0.0242062
1.49858
-0.00213493
1.50073
0.0145049
1.4997
0.0282032
0.0203927
1.62192
0.00181968
-1.62162
1.62209
0.0015056
1.62234
0.00179796
1.62239
0.00126339
1.62256
0.00173694
1.62246
0.000921124
1.62251
0.00165684
1.62226
0.000526428
1.62211
0.001517
1.62175
0.000219216
1.62135
0.00120741
1.62096
0.000265174
1.6203
0.00057212
1.62001
0.000990146
1.61922
-0.000405331
1.61911
0.00242686
1.61853
-0.00129533
1.6185
0.00366195
1.61834
-0.000861224
1.61818
0.00283436
1.61817
0.00216963
1.61817
-0.000559539
1.61787
0.00678561
1.61865
-0.00197164
1.61872
0.00758516
1.6192
0.0057961
1.62083
0.00129861
1.62002
0.0171599
1.62228
0.00196526
1.62598
0.0113964
1.62676
0.0212513
1.63048
-0.00124682
1.63291
0.0193202
1.63317
0.0239515
1.63533
-0.00430004
1.63684
0.0129961
1.63778
0.0272672
0.0187191
1.76892
0.00149883
-1.7686
1.76915
0.00127428
1.76946
0.00148711
1.76961
0.00111727
1.76989
0.00145568
1.76991
0.000897043
1.77014
0.00143164
1.77002
0.000647271
1.77013
0.00140371
1.76988
0.000468635
1.76978
0.00130558
1.7695
0.000553233
1.76908
0.000985117
1.76892
0.00115385
1.76816
0.00035143
1.76828
0.00231256
1.76738
-0.00039354
1.7677
0.00333577
1.76717
-0.000328307
1.76732
0.002686
1.76765
0.00183793
1.76739
-0.000301684
1.76848
0.00569989
1.76836
-0.00185342
1.76923
0.00671674
1.76991
0.00511484
1.76993
0.00127281
1.77114
0.0159542
1.77204
0.00106481
1.7746
0.00883986
1.77782
0.0180255
1.77955
-0.00297656
1.78209
0.0167809
1.78448
0.0215626
1.78447
-0.00428875
1.78577
0.0116929
1.78871
0.02433
0.016403
1.92995
0.00118812
-1.92964
1.93022
0.0010076
1.93053
0.0011747
1.93073
0.000912652
1.93105
0.00114301
1.93114
0.000801222
1.93146
0.00111626
1.9314
0.000706587
1.9317
0.00110582
1.93147
0.000691971
1.93167
0.00110536
1.93138
0.000849334
1.93131
0.00105633
1.93119
0.00127252
1.93065
0.000891198
1.93102
0.00193938
1.93002
0.000609444
1.93091
0.0024477
1.93002
0.000559079
1.93071
0.0019946
1.93108
0.00146385
1.93054
0.000241418
1.93267
0.00357265
1.93131
-0.000495098
1.93314
0.00488443
1.93391
0.00434199
1.93258
0.00260683
1.93658
0.0119511
1.93549
0.00215812
1.93752
0.00680849
1.94339
0.0121612
1.94131
-0.000904217
1.94523
0.0128676
1.9505
0.0162892
1.9462
1.44013e-05
1.94769
0.0101956
1.95414
0.0178845
0.0133044
2.10639
0.000930435
-2.10613
2.1066
0.000795577
2.10684
0.00093732
2.107
0.000750951
2.10722
0.000926771
2.10731
0.000708333
2.10752
0.000908342
2.10753
0.000693988
2.10775
0.000889929
2.1077
0.000743646
2.10792
0.000883949
2.10788
0.000887385
2.10804
0.000890306
2.10819
0.00113103
2.10818
0.000898111
2.1087
0.00142078
2.10843
0.000881258
2.10928
0.00159118
2.10894
0.000898868
2.10954
0.0013992
2.1098
0.00120493
2.10923
0.000804581
2.11067
0.00213994
2.10939
0.000778255
2.11096
0.00332197
2.1121
0.00319529
2.11142
0.00328696
2.11637
0.00700579
2.11547
0.00305212
2.11684
0.00543994
2.12211
0.00689616
2.11884
0.00236746
2.12304
0.00866513
2.12925
0.0100794
2.12504
0.00422364
2.12691
0.00832605
2.13378
0.0110108
0.00990579
2.29927
0.000661355
-2.299
2.29948
0.000588364
2.29973
0.000684772
2.29991
0.000575552
2.30013
0.000699324
2.30028
0.000558486
2.30048
0.000707759
2.30063
0.000548947
2.30081
0.000709274
2.30099
0.000566741
2.30117
0.000702349
2.30142
0.000633103
2.30163
0.000677371
2.302
0.000763941
2.30227
0.000630389
2.30274
0.000948119
2.30305
0.000572471
2.30353
0.00111054
2.30384
0.000595175
2.30412
0.00111061
2.30444
0.000884787
2.30436
0.000887818
2.3049
0.00159574
2.30483
0.00085804
2.30573
0.00241477
2.30699
0.00194119
2.30778
0.00249689
2.31087
0.00391266
2.3116
0.00231992
2.31298
0.00406361
2.31574
0.00413741
2.31527
0.00283717
2.31831
0.005624
2.32255
0.00583826
2.32268
0.00408807
2.325
0.00600746
2.32918
0.0068341
0.00676054
2.51027
0.000344476
-2.50995
2.51055
0.000312807
2.51087
0.000360025
2.51114
0.00031259
2.51146
0.000371107
2.51171
0.000310877
2.51204
0.000378274
2.51228
0.000312382
2.51261
0.000380684
2.51285
0.00032464
2.51317
0.000377963
2.51345
0.000354452
2.51376
0.000367632
2.51412
0.000406623
2.5144
0.000351923
2.51487
0.000477888
2.5151
0.000336349
2.51566
0.000548351
2.5159
0.000356716
2.51643
0.000583165
2.51683
0.000481193
2.51716
0.000561816
2.51796
0.000791605
2.51823
0.00059308
2.51942
0.00122092
2.5204
0.000968352
2.52146
0.00143529
2.52364
0.00173492
2.52458
0.00137985
2.52652
0.00212054
2.52879
0.00186395
2.52973
0.00189984
2.53261
0.00274044
2.53575
0.00270187
2.53722
0.00261582
2.54008
0.00314922
2.54368
0.00323384
0.00349583
2.74154
-2.74119
2.74185
2.74221
2.74252
2.7429
2.74321
2.74358
2.7439
2.74428
2.7446
2.74498
2.74534
2.7457
2.74611
2.74646
2.74694
2.74728
2.74782
2.74818
2.74876
2.74924
2.74981
2.7506
2.75119
2.75241
2.75338
2.75482
2.75655
2.75793
2.76005
2.76192
2.76382
2.76656
2.76926
2.77187
2.77502
2.77826
0.434842
0.0297408
-0.42962
0.441391
0.0556853
0.444877
0.0852273
0.450718
0.108125
0.452128
0.138112
0.455652
0.155695
0.454949
0.183804
0.194244
0.462312
0.0260338
-0.458605
0.46722
0.0507775
0.469952
0.0824955
0.473151
0.104926
0.47543
0.135833
0.476754
0.154372
0.478659
0.181899
0.194955
0.495046
0.0230623
-0.492074
0.49761
0.0482136
0.500524
0.0795814
0.502714
0.102736
0.506003
0.132543
0.507729
0.152646
0.510331
0.179297
0.194858
0.531543
0.0204351
-0.528916
0.533204
0.0465525
0.536406
0.0763796
0.538478
0.100664
0.541881
0.12914
0.543683
0.150844
0.546625
0.176356
0.193752
0.572796
0.0183117
-0.570672
0.574262
0.0450867
0.577173
0.0734681
0.579114
0.0987228
0.582341
0.125913
0.584625
0.148561
0.58824
0.17274
0.19133
0.619013
0.0166573
-0.617358
0.620452
0.0436471
0.623012
0.0709082
0.62519
0.0965448
0.628616
0.122487
0.631672
0.145505
0.635978
0.168435
0.187785
0.670441
0.0153661
-0.66915
0.671983
0.0421049
0.674496
0.0683959
0.677217
0.0938234
0.680998
0.118706
0.684951
0.141551
0.689672
0.163714
0.183297
0.72758
0.0142732
-0.726487
0.729335
0.0403499
0.731937
0.0657943
0.735162
0.0905981
0.739189
0.114679
0.743636
0.137105
0.748697
0.158653
0.177834
0.790714
0.0132953
-0.789736
0.792586
0.0384785
0.795242
0.0631381
0.798708
0.087132
0.802928
0.110459
0.807911
0.132122
0.813689
0.152874
0.171597
0.860122
0.0123874
-0.859214
0.862057
0.0365439
0.864858
0.0603371
0.86862
0.0833702
0.873264
0.105814
0.878779
0.126607
0.885043
0.146611
0.164767
0.936272
0.0114927
-0.935377
0.938279
0.0345371
0.941273
0.057343
0.945293
0.0793502
0.950287
0.100821
0.956164
0.12073
0.962913
0.139862
0.157294
1.0196
0.0106155
-1.01872
1.02166
0.0324774
1.02484
0.0541664
1.02912
0.0750643