/*--------------------------------*- C++ -*----------------------------------*\
| =========                 |                                                 |
| \\      /  F ield         | OpenFOAM: The Open Source CFD Toolbox           |
|  \\    /   O peration     | Version:  2312                                  |
|   \\  /    A nd           | Website:  www.openfoam.com                      |
|    \\/     M anipulation  |                                                 |
\*---------------------------------------------------------------------------*/
FoamFile
{
    version     2.0;
    format      ascii;
    arch        "LSB;label=32;scalar=64";
    class       volScalarField;
    location    "43.7";
    object      p;
}
// * * * * * * * * * * * * * * * * * * * * * * * * * * * * * * * * * * * * * //

dimensions      [0 2 -2 0 0 0 0];

internalField   nonuniform List<scalar> 
5478
(
-0.416894
-0.414518
-0.408645
-0.401775
-0.395714
-0.391387
-0.388638
-0.386402
-0.383092
-0.37703
-0.367218
-0.352718
-0.335499
-0.313246
-0.287889
-0.426846
-0.423579
-0.417916
-0.411239
-0.404193
-0.396583
-0.388104
-0.378396
-0.366962
-0.353563
-0.338099
-0.321105
-0.302386
-0.281459
-0.260299
-0.441714
-0.436592
-0.430075
-0.422302
-0.412241
-0.399318
-0.384166
-0.367648
-0.350398
-0.332705
-0.314704
-0.296109
-0.276929
-0.257126
-0.236904
-0.461232
-0.453555
-0.445014
-0.434192
-0.418627
-0.399069
-0.377688
-0.356099
-0.335009
-0.314591
-0.294647
-0.275154
-0.255967
-0.236963
-0.218859
-0.486071
-0.474497
-0.463179
-0.446398
-0.423012
-0.396453
-0.369741
-0.344251
-0.32037
-0.298008
-0.276991
-0.257033
-0.237823
-0.219529
-0.201683
-0.517078
-0.499491
-0.483018
-0.45706
-0.424569
-0.391312
-0.360041
-0.33147
-0.305488
-0.281772
-0.25993
-0.239655
-0.220737
-0.202958
-0.185923
-0.550132
-0.527248
-0.500547
-0.462971
-0.421556
-0.382408
-0.347309
-0.31622
-0.288616
-0.26393
-0.241709
-0.221552
-0.203101
-0.186194
-0.170004
-0.578891
-0.552042
-0.511529
-0.461372
-0.411972
-0.367901
-0.329759
-0.296823
-0.268175
-0.243059
-0.220868
-0.201151
-0.183609
-0.167853
-0.153327
-0.409557
-0.409848
-0.409998
-0.411825
-0.415724
-0.421921
-0.430726
-0.442464
-0.45732
-0.475174
-0.495383
-0.516557
-0.536195
-0.551567
-0.558184
-0.415274
-0.414285
-0.414033
-0.415813
-0.420109
-0.427292
-0.437897
-0.452489
-0.471433
-0.494722
-0.521666
-0.550721
-0.578187
-0.602238
-0.614054
-0.41888
-0.41654
-0.4156
-0.416639
-0.42034
-0.427213
-0.437849
-0.452873
-0.4727
-0.497289
-0.525665
-0.557174
-0.585882
-0.61117
-0.622992
-0.419705
-0.416299
-0.41416
-0.413557
-0.41547
-0.420605
-0.429548
-0.442847
-0.46078
-0.483455
-0.509286
-0.538288
-0.563731
-0.584909
-0.591208
-0.418054
-0.414143
-0.410512
-0.407507
-0.406618
-0.408903
-0.415054
-0.425629
-0.440838
-0.460631
-0.483319
-0.508298
-0.527913
-0.539845
-0.535053
-0.415077
-0.411345
-0.406327
-0.40079
-0.396868
-0.396156
-0.399731
-0.40823
-0.421561
-0.438954
-0.457159
-0.474115
-0.483729
-0.483737
-0.467214
-0.412445
-0.409373
-0.403408
-0.396092
-0.390128
-0.387639
-0.389939
-0.397
-0.407648
-0.419447
-0.429638
-0.435192
-0.432477
-0.421822
-0.399138
-0.412311
-0.40989
-0.403674
-0.395997
-0.38962
-0.386547
-0.387354
-0.391156
-0.396131
-0.399462
-0.399253
-0.392566
-0.379538
-0.36124
-0.338449
-0.550725
-0.480814
-0.376998
-0.296357
-0.241576
-0.251007
-0.30684
-0.308479
-0.221407
-0.17865
-0.184715
-0.220105
-0.297734
-0.362839
-0.334457
-0.245061
-0.161124
-0.0961108
-0.0561981
-0.0300129
-0.0140357
-0.00875675
-0.00328068
0.000120064
0.00122648
0.00241997
0.00359562
0.00213964
0.00145511
0.00157455
0.000246908
-0.000393314
0.000215606
-0.000201011
-0.000394263
2.30856e-06
7.13677e-05
-5.0267e-06
-0.609576
-0.525793
-0.400193
-0.29661
-0.22498
-0.211813
-0.259354
-0.265062
-0.197107
-0.176753
-0.196478
-0.244643
-0.331168
-0.397626
-0.360921
-0.259616
-0.166396
-0.0964151
-0.0534044
-0.0251686
-0.0089304
-0.00449541
-0.000424334
0.00154961
0.0017379
0.00290874
0.00411399
0.00232256
0.00193357
0.00188173
0.000310187
-0.000200779
0.000335164
-0.00016871
-0.000347453
5.19325e-05
8.73405e-05
-4.47686e-06
-0.614479
-0.533883
-0.402788
-0.284563
-0.202582
-0.160138
-0.198037
-0.200506
-0.161413
-0.168482
-0.201613
-0.256482
-0.349719
-0.417672
-0.380124
-0.272043
-0.171295
-0.0975486
-0.0525895
-0.0232359
-0.0065271
-0.00180487
0.00146095
0.00259648
0.00214101
0.00329478
0.00442595
0.00251447
0.00242424
0.00213174
0.000387754
6.95728e-05
0.000415541
-0.000132702
-0.000280027
9.38181e-05
9.94127e-05
-2.37722e-06
-0.570887
-0.502686
-0.383247
-0.271341
-0.185706
-0.12627
-0.144814
-0.121206
-0.119044
-0.150313
-0.194317
-0.255671
-0.35112
-0.424763
-0.390884
-0.281875
-0.176712
-0.100101
-0.0534576
-0.0234581
-0.00617529
-0.00064986
0.00228468
0.00316151
0.00241641
0.0035125
0.00447645
0.00272859
0.00343924
0.0023068
0.000515956
0.000389495
0.000452406
-9.07955e-05
-0.000190199
0.000125978
0.000106398
1.66797e-06
-0.498495
-0.447426
-0.349485
-0.255121
-0.178283
-0.111607
-0.107038
-0.0841868
-0.0780992
-0.128917
-0.180885
-0.240106
-0.34169
-0.421626
-0.399237
-0.291555
-0.182445
-0.103759
-0.0555088
-0.0251601
-0.00694661
-0.000501013
0.0023519
0.00326391
0.00250464
0.00348047
0.0042635
0.00289112
0.00382914
0.00239328
0.000700616
0.000704936
0.000451878
-4.347e-05
-8.33359e-05
0.000147716
0.000107853
7.7577e-06
-0.420223
-0.386796
-0.31377
-0.238434
-0.176008
-0.110402
-0.0881528
-0.0782554
-0.0587319
-0.110622
-0.166654
-0.221764
-0.313663
-0.398528
-0.38434
-0.292905
-0.186278
-0.107596
-0.0579876
-0.0275819
-0.00844274
-0.00100523
0.00200217
0.00303269
0.00240829
0.00321904
0.00387199
0.00294474
0.00380684
0.00240125
0.000926808
0.000966968
0.000428371
5.01063e-06
2.97647e-05
0.00016015
0.000104341
1.56475e-05
-0.35538
-0.338066
-0.287064
-0.224682
-0.171803
-0.112499
-0.0785652
-0.0681295
-0.0644408
-0.0967309
-0.150352
-0.193431
-0.283892
-0.379995
-0.387213
-0.298756
-0.192234
-0.112999
-0.0619694
-0.0309302
-0.0106156
-0.00207635
0.00138669
0.00261276
0.002203
0.00281921
0.00346106
0.00289391
0.00365859
0.00236011
0.00109716
0.00115068
0.000399287
5.0182e-05
0.000136715
0.000165248
9.74551e-05
2.51085e-05
-0.315253
-0.303904
-0.26867
-0.219958
-0.176983
-0.12425
-0.0846776
-0.0674382
-0.0671509
-0.0916284
-0.139789
-0.169802
-0.249479
-0.335744
-0.344885
-0.289099
-0.197465
-0.120342
-0.0676182
-0.0350821
-0.0137217
-0.00371169
0.00054763
0.00209219
0.00194738
0.00238294
0.0030051
0.00275281
0.00341008
0.00229998
0.00122307
0.00126117
0.000374479
9.12247e-05
0.000230276
0.000164151
8.82371e-05
3.60956e-05
-0.280134
-0.277857
-0.240219
-0.19484
-0.15275
-0.108312
-0.0697251
-0.0556601
-0.0468325
-0.0631938
-0.0930204
-0.1264
-0.201532
-0.292569
-0.342655
-0.269031
-0.180096
-0.110157
-0.0629499
-0.0334924
-0.0139575
-0.00437925
-9.63536e-05
0.0016155
0.00167607
0.00203427
0.00278898
0.00253212
0.00321255
0.00217008
0.00131215
0.0013636
0.000336767
0.000126588
0.000332766
0.000158482
7.38709e-05
4.87729e-05
-0.213657
-0.216391
-0.187652
-0.151196
-0.11892
-0.087615
-0.0580716
-0.0439506
-0.0321313
-0.0298166
-0.0391975
-0.0731071
-0.15511
-0.256949
-0.287677
-0.224608
-0.151661
-0.0959474
-0.0577099
-0.0324858
-0.0151562
-0.00562789
-0.00109028
0.000830778
0.00116763
0.00149779
0.00207828
0.00219797
0.00268054
0.00193915
0.0013017
0.00129668
0.000301262
0.000169522
0.000391032
0.000148471
6.69504e-05
5.76752e-05
-0.172423
-0.178142
-0.160142
-0.131559
-0.104636
-0.0772242
-0.0474823
-0.029398
-0.0125732
0.0146502
0.0254257
-0.0146479
-0.109877
-0.206111
-0.227323
-0.181941
-0.127222
-0.0831328
-0.0518689
-0.030504
-0.0155774
-0.00664323
-0.00205304
6.32703e-05
0.000681527
0.0010697
0.00173596
0.0018688
0.00229523
0.00174098
0.00124727
0.00119685
0.000320757
0.000204724
0.00040688
0.000150185
6.83201e-05
6.08348e-05
-0.137524
-0.141793
-0.128763
-0.105296
-0.0817986
-0.0597988
-0.0352616
-0.0163261
-0.000779761
0.0285508
0.0553332
0.0280446
-0.0555129
-0.137207
-0.154907
-0.128298
-0.0945932
-0.0673685
-0.0456189
-0.0291406
-0.0163848
-0.00787487
-0.00313108
-0.00080298
8.58766e-05
0.000588579
0.0011881
0.00149286
0.00189814
0.0015185
0.00111444
0.00108952
0.000350035
0.000226527
0.000398349
0.000155388
7.39838e-05
6.16142e-05
-0.106527
-0.111264
-0.103395
-0.0865844
-0.0683164
-0.0505615
-0.0298224
-0.0118988
0.00617594
0.0346713
0.0576334
0.0462128
-0.0131303
-0.0732459
-0.0953186
-0.0902421
-0.0746419
-0.0560148
-0.0393734
-0.0259585
-0.0154383
-0.00811989
-0.00374159
-0.00143686
-0.000410425
0.000169944
0.000872628
0.00116422
0.00153557
0.0012904
0.000996879
0.000986677
0.000381517
0.000252433
0.000379248
0.000161888
8.63879e-05
6.20684e-05
-0.083523
-0.0878461
-0.08246
-0.0701135
-0.0553968
-0.0404954
-0.0239426
-0.00712862
0.00834001
0.0284811
0.0456894
0.0428273
0.00641131
-0.0344158
-0.0553796
-0.0582696
-0.0511521
-0.0414816
-0.0320132
-0.0230293
-0.015071
-0.00875183
-0.00454436
-0.00213798
-0.000932032
-0.000227528
0.000517424
0.00081293
0.00116212
0.00104558
0.000846856
0.000867957
0.000392088
0.0002691
0.000351036
0.000166032
0.000100769
6.14108e-05
-0.064902
-0.0681264
-0.0647255
-0.0559951
-0.0448206
-0.0331326
-0.0206005
-0.00711416
0.00577785
0.0192529
0.0305847
0.0302739
0.0100463
-0.0148193
-0.0301608
-0.0380364
-0.037826
-0.0332985
-0.0269642
-0.0202128
-0.013919
-0.00860411
-0.00485913
-0.00260909
-0.00140072
-0.000636861
0.000302746
0.000487777
0.000812462
0.000807571
0.000718928
0.000753711
0.000389839
0.000291598
0.000329732
0.000168711
0.000116018
6.28179e-05
-0.0494459
-0.0524288
-0.0505401
-0.0444081
-0.0361197
-0.0271259
-0.0175121
-0.00765433
0.00193177
0.0107468
0.0176926
0.0180036
0.0074476
-0.00773045
-0.0210234
-0.0250977
-0.0257548
-0.023593
-0.0202823
-0.0163529
-0.0121405
-0.00811299
-0.00496562
-0.00290255
-0.00172415
-0.000979696
0.000347232
0.000167215
0.000466127
0.000569144
0.000578111
0.000633342
0.000366517
0.000310322
0.000310739
0.000165162
0.000131015
6.32244e-05
-0.0376976
-0.0402108
-0.0390417
-0.0347916
-0.0289488
-0.0224896
-0.0157238
-0.00869197
-0.00186981
0.00399186
0.00820524
0.00880684
0.00376026
-0.00446726
-0.0118776
-0.0157744
-0.0176941
-0.0175849
-0.0161422
-0.0136741
-0.0106713
-0.00755253
-0.00495451
-0.00315939
-0.00208923
-0.00152451
-0.00163217
-0.000497376
0.00012117
0.000338131
0.000438174
0.000514772
0.000331157
0.000326029
0.00029562
0.000162797
0.00015067
7.47535e-05
-0.0285103
-0.0303973
-0.0298262
-0.0270881
-0.0231421
-0.0186883
-0.0140233
-0.00922042
-0.00456742
-0.000637059
0.00206468
0.00269325
0.000513573
-0.00357356
-0.00765513
-0.0107178
-0.0123197
-0.0126079
-0.0118901
-0.010464
-0.00862483
-0.00651272
-0.00456
-0.00310426
-0.00220026
-0.00173308
-0.001429
-0.000695831
-0.000139686
0.000135741
0.000321261
0.000420323
0.000286192
0.000332817
0.000285077
0.000149678
0.000152944
6.43162e-05
-0.0210863
-0.022732
-0.0226207
-0.0209253
-0.0183319
-0.0153685
-0.0122689
-0.00910024
-0.00602312
-0.0034113
-0.00160724
-0.000980625
-0.0016903
-0.00345941
-0.00548133
-0.00713786
-0.00825054
-0.00869022
-0.00862796
-0.00800345
-0.00693596
-0.0055292
-0.00413166
-0.00302317
-0.00226822
-0.00184114
-0.00139553
-0.000838544
-0.000347776
-3.08194e-05
0.000216843
0.000339715
0.000260246
0.000355924
0.000295109
0.000167166
0.000192982
9.81152e-05
-0.0153646
-0.0167398
-0.0168732
-0.0158956
-0.0142858
-0.0124047
-0.0104293
-0.00839586
-0.0064097
-0.00469525
-0.00345012
-0.00286067
-0.00289295
-0.00349018
-0.0043131
-0.00510882
-0.00578157
-0.0061355
-0.00619918
-0.00582797
-0.00520993
-0.00438447
-0.00351314
-0.00278012
-0.00222281
-0.00186268
-0.00148386
-0.000968919
-0.000500398
-0.000186885
0.000105478
0.000260853
0.000187819
0.000322247
0.000275703
0.000122685
0.000151859
6.07097e-05
-0.0108818
-0.0120162
-0.0122963
-0.0118099
-0.0108687
-0.00971755
-0.0084876
-0.00724777
-0.00600554
-0.00490447
-0.00404527
-0.00353542
-0.00330303
-0.00333558
-0.00349357
-0.00375141
-0.00401222
-0.0041398
-0.00420448
-0.00408546
-0.0038402
-0.0034017
-0.00289516
-0.00243749
-0.00202496
-0.00175998
-0.00131051
-0.000887745
-0.000498798
-0.000191066
0.000126895
0.000279768
0.00023983
0.000401195
0.00034234
0.000205364
0.000245179
0.000129463
-0.00730435
-0.00826012
-0.00863005
-0.00846143
-0.00796548
-0.00730904
-0.00659739
-0.00586208
-0.00509779
-0.004406
-0.00382155
-0.0034228
-0.00311159
-0.00291079
-0.00276877
-0.00267609
-0.00266825
-0.0026383
-0.00267549
-0.00260072
-0.0025115
-0.00238178
-0.00224041
-0.00212677
-0.00191368
-0.00169708
-0.00141128
-0.000976628
-0.000607753
-0.000325748
-6.66736e-06
0.000193796
0.000129255
0.000295718
0.000283421
9.72686e-05
0.000128929
5.34326e-05
-0.00448685
-0.00527666
-0.00567278
-0.00569191
-0.00547374
-0.00512788
-0.00473571
-0.00431717
-0.00388029
-0.00347478
-0.00309444
-0.00280119
-0.00250641
-0.00225357
-0.00199379
-0.00178038
-0.00164286
-0.00151758
-0.00149859
-0.00143496
-0.00145188
-0.00146587
-0.00150141
-0.00156392
-0.00148045
-0.0014028
-0.00103965
-0.000665883
-0.00034702
-9.07719e-05
0.000210641
0.000375709
0.000330473
0.000497329
0.000450773
0.000288736
0.000304409
0.000161469
-0.00221349
-0.00286483
-0.00325153
-0.00337505
-0.00333022
-0.00318553
-0.0030028
-0.00280254
-0.00256893
-0.0023478
-0.00210681
-0.00190826
-0.00166037
-0.00141636
-0.00113297
-0.000864292
-0.000669136
-0.000453056
-0.000393322
-0.000337515
-0.000460957
-0.000708217
-0.000973521
-0.00127414
-0.00132059
-0.00121715
-0.00102519
-0.000666939
-0.000412183
-0.000205574
6.14836e-05
0.000272879
0.000175781
0.000294215
0.000327779
0.000101884
0.00010011
4.82311e-05
-0.000358054
-0.000893307
-0.00125153
-0.00142477
-0.00147927
-0.00145729
-0.00140363
-0.00133266
-0.00122951
-0.00112701
-0.000981814
-0.000857321
-0.000674306
-0.000494417
-0.000255157
-1.01847e-07
0.000202274
0.000442399
0.000567513
0.000708702
0.000619161
0.000361224
2.66766e-06
-0.000410895
-0.000580104
-0.000636115
-0.000371904
-7.74096e-05
0.000168422
0.000322721
0.00049981
0.000656356
0.000559339
0.000666388
0.000629542
0.000409538
0.00036282
0.000188681
0.00114309
0.000717785
0.000407479
0.000223163
0.000117165
6.80909e-05
4.35123e-05
3.42371e-05
6.12638e-05
8.27473e-05
0.000160225
0.000226872
0.000362066
0.000495308
0.000688981
0.000892383
0.00106729
0.0013316
0.00147494
0.00163984
0.00151251
0.00109822
0.000632004
0.000113474
-9.89116e-05
-0.000103254
-3.77523e-05
0.000138312
0.000208959
0.000294744
0.000381266
0.000552954
0.000394843
0.000374069
0.000442792
0.000173197
8.99962e-05
5.14101e-05
0.00245062
0.00210995
0.00184062
0.0016544
0.0015186
0.00141974
0.00134077
0.00126846
0.00124447
0.00122715
0.00126609
0.00129716
0.00139275
0.0014805
0.00160722
0.0018123
0.00199933
0.00229397
0.0025424
0.00278604
0.00273805
0.00240765
0.00190945
0.00139989
0.00109045
0.000926162
0.00100352
0.00100621
0.00111216
0.00106257
0.000975207
0.00112917
0.00089673
0.000882531
0.000887265
0.000548027
0.000400271
0.000208846
0.00357216
0.00330675
0.00308046
0.00290124
0.00276113
0.002635
0.00253247
0.00243247
0.00237264
0.00230989
0.00228552
0.00226567
0.00228675
0.00234447
0.00242923
0.00258591
0.00272323
0.00291624
0.00306641
0.00316451
0.00319827
0.00313074
0.00291284
0.00268029
0.00238629
0.0020536
0.0018779
0.00147884
0.0013611
0.00124008
0.000916324
0.00106668
0.00073165
0.000577509
0.000685797
0.000300414
0.00012318
8.02605e-05
0.00405039
0.0038495
0.0036772
0.00352947
0.00340238
0.00327993
0.00317099
0.00306722
0.00298148
0.00290269
0.00283984
0.00279295
0.00276597
0.0027697
0.00277937
0.00281898
0.00284889
0.0029108
0.00297074
0.00300298
0.00298057
0.00294761
0.0028272
0.00269912
0.00261259
0.00245216
0.00244897
0.00210583
0.00190336
0.00183629
0.00153691
0.00148888
0.00131287
0.00109603
0.00104236
0.000741352
0.000455758
0.000210521
0.00464461
0.00448437
0.00432877
0.00418259
0.0040496
0.00391963
0.00379581
0.00367393
0.00356926
0.00347449
0.00339098
0.00331404
0.00325284
0.00321228
0.00318153
0.00317955
0.00317337
0.00319612
0.00319788
0.00319592
0.00315645
0.00306535
0.00294178
0.0027417
0.00253515
0.00224146
0.00187982
0.00180508
0.00163341
0.00156434
0.00131944
0.00122664
0.00107316
0.000814574
0.000771956
0.000514101
0.000232727
9.78153e-05
0.00481952
0.00467786
0.00453682
0.00439783
0.00426436
0.00413474
0.00401006
0.00388902
0.00377408
0.0036681
0.0035721
0.00348762
0.00340958
0.00334719
0.00329048
0.00325139
0.00321558
0.00319457
0.00316978
0.00313679
0.00309136
0.0030037
0.00290553
0.00274749
0.00258521
0.00241015
0.00218873
0.00205326
0.00186805
0.00179797
0.00159918
0.00144464
0.0013441
0.0010712
0.000961999
0.000738655
0.000389871
0.000153743
-0.135038
-0.148108
-0.162387
-0.176072
-0.193033
-0.207732
-0.227362
-0.248504
-0.114924
-0.124145
-0.134322
-0.144313
-0.15582
-0.166133
-0.176475
-0.189804
-0.0957122
-0.101871
-0.108223
-0.115218
-0.122355
-0.129214
-0.137047
-0.150157
-0.0797322
-0.0837649
-0.0876935
-0.0924962
-0.0977574
-0.104518
-0.112857
-0.123286
-0.0656301
-0.0684151
-0.0712626
-0.0753886
-0.0802471
-0.0853661
-0.0899067
-0.0957251
-0.0538777
-0.055778
-0.0578702
-0.0606762
-0.0633898
-0.0658442
-0.0688236
-0.074339
-0.0436413
-0.0447013
-0.0457493
-0.047136
-0.0487406
-0.0510255
-0.0543285
-0.0586817
-0.0346678
-0.0351207
-0.0356533
-0.0367102
-0.0382913
-0.0402759
-0.0422427
-0.0448891
-0.0272201
-0.0274541
-0.0278002
-0.0285411
-0.0294858
-0.0304464
-0.0316083
-0.0338889
-0.0209619
-0.0210099
-0.0210761
-0.0213655
-0.0218475
-0.0226151
-0.0238161
-0.0257312
-0.0156247
-0.0155876
-0.0155564
-0.0157401
-0.0161745
-0.0168432
-0.0176962
-0.0190253
-0.0112651
-0.0112484
-0.0112213
-0.0113279
-0.0115865
-0.011992
-0.0126015
-0.0136857
-0.00765816
-0.00766468
-0.00763485
-0.00767728
-0.00784164
-0.00816334
-0.00868787
-0.00957012
-0.00470144
-0.00474315
-0.00474496
-0.00478609
-0.00491747
-0.00517163
-0.00558605
-0.00627596
-0.00228933
-0.00237117
-0.00240964
-0.00245701
-0.00256091
-0.00276086
-0.00309864
-0.00365729
-0.000348016
-0.000455108
-0.000522917
-0.000582453
-0.000674744
-0.000839366
-0.00111399
-0.00155781
0.00127086
0.00113906
0.00104567
0.000971647
0.000882476
0.000741277
0.00051545
0.000162069
0.00253766
0.00239778
0.00229354
0.00221335
0.00212996
0.0020092
0.00182619
0.00154828
0.00368025
0.00352854
0.00341147
0.00332261
0.00323881
0.00313329
0.00298359
0.00276804
0.00459087
0.00444249
0.00432078
0.00422884
0.00414697
0.00406162
0.00394904
0.0038017
0.0051001
0.00496022
0.00482664
0.00470734
0.00459568
0.00448598
0.00436555
0.0042322
0.00547273
0.00534408
0.00522151
0.0051138
0.00502096
0.00493837
0.00485702
0.00476918
0.00564323
0.00553593
0.00542478
0.0053163
0.00521409
0.00511831
0.00502635
0.00493529
0.0298604
0.032548
0.0345434
0.0351114
0.0336915
0.0302486
0.0246555
0.0163237
0.00419781
-0.0132169
-0.0379613
-0.072857
-0.122511
-0.190287
-0.250662
0.00540182
0.00569185
0.00373315
-1.08137e-05
-0.0054718
-0.0129481
-0.0230034
-0.0364891
-0.0545729
-0.0788301
-0.11142
-0.155148
-0.214416
-0.293804
-0.3575
-0.0180832
-0.0206327
-0.0265931
-0.0342729
-0.0433767
-0.0545497
-0.0686802
-0.0867641
-0.110031
-0.140129
-0.17936
-0.230623
-0.297269
-0.38504
-0.4467
-0.0419555
-0.0475804
-0.0566623
-0.0672229
-0.0792463
-0.0936298
-0.11134
-0.133367
-0.160944
-0.195704
-0.240143
-0.297268
-0.369647
-0.458201
-0.516367
-0.0665314
-0.074987
-0.0861111
-0.0985392
-0.112768
-0.129776
-0.150373
-0.175508
-0.206398
-0.244508
-0.292512
-0.353394
-0.427861
-0.512987
-0.565389
-0.0903057
-0.101314
-0.113874
-0.12773
-0.14374
-0.162795
-0.185517
-0.212809
-0.245835
-0.286166
-0.336012
-0.397639
-0.470883
-0.549263
-0.594028
-0.11317
-0.125697
-0.139258
-0.154374
-0.171919
-0.192516
-0.216716
-0.245282
-0.279312
-0.320265
-0.369925
-0.429746
-0.49859
-0.566919
-0.604037
-0.134442
-0.147706
-0.162261
-0.178674
-0.197462
-0.219089
-0.24407
-0.273067
-0.307035
-0.347181
-0.394856
-0.450624
-0.511775
-0.567118
-0.598133
0.183012
0.19736
0.213437
0.231602
0.251868
0.274115
0.29825
0.324223
0.351954
0.381181
0.41132
0.441217
0.468901
0.490512
0.50828
0.177249
0.190414
0.205438
0.222722
0.2421
0.26328
0.286107
0.310536
0.336478
0.363622
0.391299
0.418248
0.442351
0.459813
0.473522
0.167382
0.178642
0.19207
0.207978
0.225892
0.245284
0.265903
0.287674
0.310468
0.3339
0.357174
0.378872
0.396621
0.406759
0.413642
0.153474
0.162322
0.173728
0.187722
0.203493
0.220332
0.23792
0.256121
0.274704
0.293131
0.31041
0.324905
0.333888
0.33367
0.331567
0.135663
0.141918
0.15126
0.163162
0.17629
0.189802
0.203422
0.217038
0.230338
0.242604
0.252597
0.258403
0.256917
0.244237
0.230719
0.114289
0.117437
0.124578
0.134319
0.144649
0.154563
0.163803
0.172251
0.179505
0.184681
0.18632
0.182242
0.168952
0.142362
0.115682
0.0900585
0.0906954
0.0957011
0.102585
0.109284
0.114995
0.119514
0.122574
0.123522
0.121246
0.114062
0.0995305
0.0738135
0.0328468
-0.00718003
0.0618854
0.0616339
0.0658121
0.0698767
0.0724553
0.0733933
0.0727197
0.0700296
0.0644084
0.0544975
0.0383919
0.0133855
-0.0247438
-0.0797612
-0.131723
0.0223898
0.0270065
0.0231608
0.0274197
0.0247594
0.0293404
0.0275615
0.0320497
0.0315704
0.0360807
0.0372191
0.0420666
0.0448297
0.050701
0.0554273
0.0628543
0.0704272
0.0805066
0.0916542
0.105676
0.12154
0.140931
0.163018
0.0223916
0.0269187
0.0231688
0.0273211
0.0247533
0.0292551
0.0275154
0.0319597
0.0317417
0.0359636
0.0371274
0.0419034
0.0446962
0.050562
0.0552568
0.0625796
0.0699362
0.0798635
0.09058
0.104274
0.119288
0.137997
0.158769
0.0224035
0.0268046
0.0231933
0.027194
0.0247726
0.0291393
0.0274993
0.0318203
0.0316621
0.0358133
0.0370781
0.0417158
0.044563
0.0503433
0.0549569
0.0621545
0.0692507
0.0789874
0.0890119
0.102149
0.115922
0.133391
0.151694
0.0224242
0.0266669
0.0232323
0.0270429
0.0248122
0.0290036
0.0275092
0.0316441
0.0316003
0.0356324
0.0370459
0.0415138
0.044556
0.0501996
0.0547357
0.0618806
0.0684863
0.0779968
0.0870703
0.0994398
0.111374
0.126935
0.141654
0.0224523
0.0265101
0.0232764
0.0268722
0.0248705
0.0288389
0.0275348
0.0315132
0.0315827
0.0354401
0.0370374
0.0412513
0.0443114
0.049784
0.0542725
0.0611415
0.0673232
0.076311
0.0844083
0.0956394
0.105473
0.118479
0.128419
0.0224844
0.0263386
0.0233253
0.0266875
0.0249422
0.0286616
0.0275709
0.0313712
0.0315789
0.035268
0.0370623
0.0411408
0.0443727
0.049878
0.0541034
0.0608858
0.0664197
0.0750203
0.0817069
0.0916227
0.0984689
0.108371
0.11265
0.0225197
0.0261557
0.0233766
0.0264989
0.0250167
0.0284381
0.027611
0.0311968
0.0315924
0.0350737
0.0370309
0.0408401
0.043979
0.0490242
0.05333
0.0595472
0.0647053
0.0722865
0.0779464
0.0859068
0.0902947
0.0957277
0.0940309
0.022552
0.0259669
0.0234268
0.0263126
0.025111
0.0283265
0.0276752
0.0310553
0.0316032
0.0350272
0.0371909
0.0409822
0.0444617
0.0491955
0.0533335
0.0596181
0.0639399
0.0710478
0.0745977
0.0807306
0.0806647
0.0821731
0.0724816
0.0225923
0.0257145
0.0234984
0.0260367
0.0251637
0.0279937
0.027698
0.0309703
0.0315767
0.0347108
0.0369193
0.0402209
0.043499
0.0474869
0.0513741
0.0564025
0.0602035
0.0649556
0.0673544
0.0695381
0.0666994
0.0604719
0.0443337
0.022648
0.0253668
0.0235827
0.0256659
0.025223
0.0275618
0.0276358
0.0300943
0.0312482
0.0337847
0.0360168
0.0388647
0.0419754
0.0452361
0.0485899
0.0520712
0.0548277
0.0569266
0.0576175
0.0556246
0.0508642
0.0412552
0.0281615
0.0227222
0.0249449
0.0236869
0.0252258
0.0252841
0.0269986
0.0275251
0.0295623
0.0309103
0.0328709
0.0352454
0.0374103
0.0402275
0.042663
0.0452557
0.047323
0.0488529
0.0488779
0.047775
0.0436562
0.0374752
0.0278645
0.0156521
0.022819
0.0244388
0.0238072
0.0247534
0.0253019
0.0265327
0.0273242
0.0288924
0.0304027
0.0318995
0.0341039
0.0357773
0.0381326
0.0398492
0.0415549
0.0424032
0.0427057
0.0412081
0.0386163
0.0335456
0.0265278
0.0171847
0.00581853
0.0229404
0.0238595
0.0238702
0.0243467
0.0252284
0.0260266
0.027011
0.0281914
0.0297363
0.0308511
0.0327667
0.0340336
0.0357574
0.0368367
0.0376033
0.0374055
0.0366131
0.0340644
0.0304394
0.0249676
0.0178761
0.00912528
-0.00133519
0.0230653
0.0232929
0.0238284
0.0239654
0.0250674
0.0255355
0.0265805
0.0274553
0.028909
0.0297068
0.0312061
0.0321253
0.0331629
0.0336252
0.0335441
0.0324618
0.0308064
0.02763
0.0235017
0.0180166
0.0112874
0.00325894
-0.00621009
0.0231626
0.0227481
0.0236893
0.0236052
0.0248128
0.0250349
0.0260104
0.0266699
0.0279181
0.0284488
0.0294831
0.0300506
0.0304464
0.0303104
0.0295214
0.0277977
0.0255436
0.0220938
0.0178451
0.0125814
0.00643151
-0.000726188
-0.00904697
0.0232034
0.0222464
0.0234436
0.0232584
0.0244516
0.0245122
0.0253065
0.0258214
0.0267952
0.0270704
0.0276259
0.0278405
0.0276942
0.0270181
0.0256831
0.0235712
0.0209876
0.0175014
0.0133837
0.00852097
0.00307998
-0.00309849
-0.0101788
0.0231669
0.0218058
0.0230788
0.0229135
0.0239861
0.0239538
0.0244844
0.0248921
0.0255717
0.0255713
0.025684
0.025559
0.0249855
0.0238782
0.0221623
0.0198756
0.0171977
0.0138558
0.0100406
0.00570073
0.00101229
-0.004182
-0.0100573
0.0230348
0.0214349
0.0225926
0.0225533
0.0234371
0.0233324
0.0235652
0.0238736
0.0242787
0.023984
0.02371
0.0232933
0.0224126
0.0210027
0.0190611
0.0167527
0.0141658
0.011101
0.00768313
0.00391234
-3.27932e-05
-0.00428889
-0.00906168
0.0227993
0.0211268
0.0219973
0.0221505
0.0228393
0.0226328
0.0225684
0.0227733
0.0229517
0.022352
0.021747
0.0211123
0.0200586
0.018481
0.0164306
0.0142059
0.0118421
0.00914667
0.00616868
0.00295517
-0.000305505
-0.0037225
-0.00753053
0.0224497
0.0208748
0.0213203
0.0216652
0.0222254
0.0218561
0.0215086
0.0216045
0.0216263
0.020773
0.0198685
0.0190916
0.0179842
0.0163488
0.0142816
0.0122045
0.0101398
0.00786152
0.00532759
0.00262065
-4.82582e-05
-0.00275365
-0.00574872
0.0220047
0.0206239
0.0206313
0.0210342
0.0215908
0.0210458
0.0204156
0.020395
0.0203227
0.0192879
0.0181285
0.0172562
0.016192
0.0146099
0.012612
0.0107137
0.00896429
0.00710016
0.00499082
0.00273084
0.000555104
-0.00157142
-0.00390201
0.021468
0.0203475
0.019965
0.0203252
0.0208925
0.0202186
0.0193327
0.0191863
0.0190643
0.0179436
0.0165907
0.015639
0.0146704
0.0132216
0.0113692
0.00966432
0.0082007
0.00670182
0.00497689
0.00311214
0.00134791
-0.000317758
-0.00212205
0.020868
0.0200114
0.0193466
0.0195991
0.0201325
0.019374
0.0182944
0.018029
0.0178658
0.0167191
0.0152659
0.0142773
0.0134247
0.0121587
0.010509
0.00900592
0.00778329
0.00657834
0.00517962
0.0036604
0.00224207
0.000938618
-0.000456255
0.0202322
0.0195677
0.0187607
0.0188819
0.0193219
0.0185222
0.0173266
0.0169574
0.0167634
0.0156477
0.0141771
0.013185
0.0124256
0.0113524
0.0099289
0.00862145
0.00758757
0.00660625
0.0054825
0.00427278
0.00315521
0.00213808
0.00104632
0.0195642
0.0190602
0.0182078
0.0181913
0.0185019
0.0176856
0.0164563
0.0160033
0.0157708
0.0147124
0.0133049
0.0123507
0.0116898
0.010807
0.00961709
0.00849042
0.0075891
0.00676162
0.00586164
0.00492407
0.0040644
0.00327288
0.00241332
0.0189265
0.0185
0.0176733
0.0175485
0.0176872
0.0168777
0.0156912
0.0151829
0.0149118
0.0139378
0.0126448
0.011757
0.0111658
0.0104233
0.00944105
0.00847706
0.00768328
0.00697807
0.00626763
0.00555483
0.00489772
0.00426564
0.00356332
0.0182796
0.0179375
0.0171882
0.0169764
0.0169318
0.0161567
0.0150513
0.0144951
0.0142056
0.013338
0.0121571
0.0113152
0.0107683
0.0101976
0.00942317
0.00859781
0.00788291
0.00728862
0.00675812
0.00624523
0.00574509
0.00522446
0.004636
0.0176889
0.0174156
0.0167633
0.0164017
0.0162294
0.0155732
0.0145273
0.0138861
0.0136287
0.0129534
0.0118964
0.011029
0.0105248
0.0101218
0.00954465
0.00881015
0.00811932
0.00758175
0.00718217
0.00682281
0.00643789
0.00599537
0.00548943
0.017187
0.0169562
0.0163811
0.0159294
0.0156738
0.0151
0.0141031
0.0133831
0.0131148
0.0126177
0.0117045
0.0108046
0.0102385
0.00991446
0.00951833
0.00892393
0.00827529
0.00773058
0.00735734
0.00709243
0.00684715
0.0065535
0.00619414
0.0168166
0.0165984
0.016069
0.0156012
0.0152769
0.0147177
0.0138087
0.0130513
0.0127135
0.012368
0.0116647
0.0107922
0.0101223
0.0097556
0.009478
0.00906456
0.0085048
0.00794035
0.00751318
0.00724604
0.00706684
0.00688256
0.00663722
0.0166047
0.0164066
0.0159166
0.0153842
0.0149901
0.0145227
0.0137188
0.0128754
0.0124138
0.0121298
0.0116413
0.01088
0.0101242
0.00962438
0.00934094
0.00905358
0.00862977
0.00812425
0.00767112
0.00735922
0.0071775
0.00705188
0.00691142
0.0253729
0.00326729
-0.0207284
-0.0417969
-0.0625234
-0.0829291
-0.102549
-0.119834
0.0145367
-0.0054421
-0.0293743
-0.0491858
-0.0648326
-0.0791217
-0.0928449
-0.104361
0.00442816
-0.0115106
-0.0319816
-0.048113
-0.0589574
-0.0687621
-0.0787761
-0.0879808
-0.00422651
-0.0169842
-0.0333159
-0.0462922
-0.0544905
-0.0615111
-0.0684272
-0.0746684
-0.0109054
-0.0213034
-0.0327282
-0.0418987
-0.0479363
-0.0529539
-0.0576806
-0.0620913
-0.015041
-0.0233757
-0.0309218
-0.0369732
-0.0414108
-0.0451952
-0.0485438
-0.0515358
-0.0168799
-0.0233941
-0.0281509
-0.0318766
-0.0349693
-0.0377832
-0.0401766
-0.0421889
-0.0168815
-0.0218802
-0.0247381
-0.0268493
-0.0288812
-0.030905
-0.0325923
-0.0338788
-0.0156273
-0.0194051
-0.0210137
-0.0220571
-0.0233001
-0.0247112
-0.0259101
-0.0267597
-0.0135961
-0.0164293
-0.0172477
-0.0176137
-0.0182983
-0.0192548
-0.0201164
-0.0207025
-0.0111619
-0.0132826
-0.013629
-0.0135874
-0.0138793
-0.0144839
-0.0150847
-0.0154849
-0.00861482
-0.0101999
-0.010286
-0.0100275
-0.0100652
-0.0104188
-0.0108416
-0.0111466
-0.00613263
-0.00731362
-0.00727477
-0.00693019
-0.006821
-0.00700224
-0.00729662
-0.00754096
-0.00384374
-0.00472139
-0.0046324
-0.00428164
-0.00410502
-0.00417647
-0.00437787
-0.0045778
-0.00177254
-0.00242333
-0.00232952
-0.002017
-0.00182443
-0.00183382
-0.00197496
-0.0021498
1.85403e-05
-0.000480704
-0.000404109
-0.000147432
2.92368e-05
4.73736e-05
-5.418e-05
-0.000204714
0.00161405
0.0012292
0.00127995
0.00147652
0.00162292
0.00164785
0.00156657
0.00142674
0.00291617
0.00260512
0.00263163
0.00277683
0.00288988
0.0029068
0.00283016
0.00269166
0.0041163
0.00387448
0.00389261
0.00400006
0.00407988
0.00407807
0.0039917
0.00384602
0.00506804
0.00487183
0.00486933
0.00493647
0.00498448
0.00496976
0.00488526
0.00474956
0.00585445
0.00563055
0.00551342
0.00546779
0.00544657
0.00541102
0.00534027
0.00523295
0.00637432
0.00616825
0.00601105
0.00590568
0.00583476
0.00577197
0.00569497
0.00559406