/*--------------------------------*- C++ -*----------------------------------*\
| =========                 |                                                 |
| \\      /  F ield         | OpenFOAM: The Open Source CFD Toolbox           |
|  \\    /   O peration     | Version:  2512                                  |
|   \\  /    A nd           | Website:  www.openfoam.com                      |
|    \\/     M anipulation  |                                                 |
\*---------------------------------------------------------------------------*/
FoamFile
{
    version     2.0;
    format      ascii;
    arch        "LSB;label=32;scalar=64";
    class       volVectorField;
    location    "93";
    object      U;
}
// * * * * * * * * * * * * * * * * * * * * * * * * * * * * * * * * * * * * * //

dimensions      [0 1 -1 0 0 0 0];

internalField   nonuniform List<vector> 
13248
(
(-0.0208596 0.0167776 7.58925e-20)
(-0.0352696 0.0307904 0)
(-0.0221949 0.0331961 -1.30731e-19)
(0.0207687 0.0274076 1.21045e-19)
(0.0965178 0.0150696 1.11673e-19)
(0.207445 -0.00233596 0)
(0.352915 -0.0230526 0)
(0.526424 -0.0452218 2.6195e-19)
(0.714804 -0.0672467 -6.22417e-22)
(0.90067 -0.0881091 -2.24086e-19)
(1.06674 -0.107441 2.04362e-19)
(1.19989 -0.125326 -1.26866e-19)
(1.2936 -0.14197 0)
(1.34842 -0.157442 -2.00943e-19)
(1.37065 -0.171598 3.65652e-19)
(1.36957 -0.184188 -8.76941e-20)
(1.35438 -0.194938 -1.37838e-19)
(1.33196 -0.203633 1.28521e-19)
(1.30628 -0.210076 0)
(1.27917 -0.214615 0)
(1.25162 -0.215452 0)
(1.22185 -0.219221 0)
(1.19627 -0.209239 2.77678e-20)
(1.1579 -0.225137 8.65829e-20)
(-0.023001 0.0168006 -2.28448e-19)
(-0.0297197 0.0254559 1.43901e-19)
(0.000573031 0.0210406 -8.2167e-22)
(0.0698239 0.00886064 -1.84065e-19)
(0.180814 -0.00793843 -1.11513e-19)
(0.333182 -0.0267711 -1.04016e-19)
(0.519032 -0.045296 -1.89501e-19)
(0.721573 -0.0618439 1.76134e-19)
(0.919012 -0.0758305 0)
(1.0911 -0.0876908 1.41656e-21)
(1.22434 -0.0983835 1.54184e-21)
(1.31415 -0.108794 1.22941e-19)
(1.36405 -0.119347 0)
(1.38278 -0.129965 0)
(1.38071 -0.140246 1.26065e-19)
(1.3667 -0.149712 -2.35222e-19)
(1.34668 -0.157932 1.2963e-19)
(1.32376 -0.164673 -1.20867e-19)
(1.29944 -0.169727 -4.95491e-20)
(1.27443 -0.17304 -8.43259e-20)
(1.24903 -0.174677 -3.04562e-20)
(1.22427 -0.174558 -5.54513e-20)
(1.1998 -0.170297 8.70303e-20)
(1.17372 -0.173046 2.27332e-20)
(-0.0231152 0.0155431 0)
(-0.0170962 0.0188898 0)
(0.0378532 0.00942901 6.63019e-20)
(0.142344 -0.00653972 6.05333e-20)
(0.296335 -0.0244484 -9.86312e-22)
(0.491663 -0.0407346 -1.06486e-19)
(0.708315 -0.0532753 0)
(0.91923 -0.0618336 -8.75559e-20)
(1.10002 -0.067677 7.94823e-20)
(1.23618 -0.0726126 -1.2199e-21)
(1.32482 -0.0780764 -1.30448e-19)
(1.37224 -0.0846876 -1.14632e-19)
(1.38942 -0.0923148 4.60366e-21)
(1.38751 -0.100418 -8.5945e-20)
(1.37508 -0.1084 2.10606e-19)
(1.35735 -0.115784 0)
(1.337 -0.122273 -1.23045e-19)
(1.31532 -0.127697 6.04626e-20)
(1.29307 -0.13178 4.94979e-20)
(1.27053 -0.134897 0)
(1.24858 -0.135592 3.68841e-20)
(1.22617 -0.136981 -1.1888e-19)
(1.20535 -0.13289 1.11015e-19)
(1.1823 -0.1372 6.21176e-20)
(-0.0202774 0.0127103 -7.92825e-20)
(0.00479155 0.010145 -7.55817e-20)
(0.0921104 -0.00279543 6.80093e-20)
(0.23945 -0.0194194 0)
(0.439361 -0.0341408 0)
(0.669978 -0.0435874 -1.35852e-21)
(0.898211 -0.0475665 0)
(1.0935 -0.048216 -2.60263e-19)
(1.23858 -0.0482466 2.36581e-19)
(1.33135 -0.0496003 -2.86523e-19)
(1.38031 -0.0529988 6.43328e-20)
(1.3983 -0.0582014 0)
(1.39729 -0.0645321 9.80461e-20)
(1.38589 -0.071307 -1.7793e-19)
(1.36923 -0.0780143 4.22099e-20)
(1.35002 -0.0843131 1.00335e-19)
(1.32966 -0.0899728 -7.52416e-21)
(1.3089 -0.0947574 -1.07346e-19)
(1.28807 -0.0986495 0)
(1.26756 -0.101267 0)
(1.24722 -0.102873 -3.41984e-20)
(1.22741 -0.103753 2.95694e-20)
(1.20858 -0.101094 9.90194e-20)
(1.18831 -0.105576 -9.24615e-20)
(-0.0137974 0.0085765 -8.23715e-20)
(0.0378988 -0.000240732 -7.66644e-20)
(0.165426 -0.0145778 2.11791e-19)
(0.360547 -0.0278271 -1.27806e-19)
(0.601887 -0.0346945 1.18379e-19)
(0.850733 -0.0343153 2.12352e-19)
(1.06747 -0.0297237 -1.4678e-19)
(1.22892 -0.0247886 -1.71209e-19)
(1.33175 -0.0220862 6.08297e-21)
(1.38594 -0.0224387 2.12674e-19)
(1.40624 -0.0254447 0)
(1.40604 -0.0302332 5.40913e-20)
(1.39488 -0.0359763 0)
(1.37846 -0.0420675 -8.33873e-20)
(1.35984 -0.0480982 1.16138e-19)
(1.34049 -0.053789 1.29006e-21)
(1.32104 -0.0589216 -2.85428e-20)
(1.3017 -0.0633938 5.19458e-20)
(1.28261 -0.0670131 4.36143e-20)
(1.26374 -0.0698745 -3.79973e-20)
(1.24532 -0.0717162 3.4182e-20)
(1.22736 -0.0729919 -2.9555e-20)
(1.20992 -0.072361 0)
(1.1922 -0.0761622 -2.13545e-20)
(-0.00297514 0.00371714 8.23507e-20)
(0.0839213 -0.0106603 7.95035e-20)
(0.258684 -0.0232033 -7.09491e-20)
(0.501472 -0.0283757 1.30304e-19)
(0.771038 -0.0239341 -1.20691e-19)
(1.01634 -0.0135872 1.06624e-19)
(1.2033 -0.00289756 -5.03257e-20)
(1.32396 0.0044754 1.28807e-19)
(1.3885 0.00744655 -7.89464e-20)
(1.41384 0.0066092 1.33399e-19)
(1.41564 0.00315069 -3.01511e-19)
(1.40514 -0.00182509 1.08073e-19)
(1.38907 -0.00752391 -9.14974e-20)
(1.37091 -0.0134353 8.51784e-20)
(1.35215 -0.019242 7.0705e-20)
(1.33334 -0.0247369 6.00627e-20)
(1.31463 -0.0297961 -1.65362e-19)
(1.29613 -0.034288 1.01265e-19)
(1.27789 -0.0381838 -4.36067e-20)
(1.26011 -0.0413447 1.10126e-19)
(1.24284 -0.0438052 -3.54273e-20)
(1.22612 -0.0456275 -8.20912e-20)
(1.2101 -0.0459723 7.48126e-20)
(1.1942 -0.0495637 2.13476e-20)
(0.0129357 -0.00118989 0)
(0.143927 -0.0189677 6.72278e-22)
(0.370336 -0.0253113 1.46956e-19)
(0.653514 -0.0181608 -1.35476e-19)
(0.932146 -0.00160866 -1.19852e-19)
(1.15499 0.0162771 2.18262e-19)
(1.30348 0.029773 -9.94057e-20)
(1.38543 0.0370576 1.27423e-19)
(1.41976 0.0388589 -3.96659e-21)
(1.42529 0.0368308 -6.89294e-20)
(1.41586 0.0325412 1.45404e-19)
(1.39982 0.0271046 -2.10602e-19)
(1.3814 0.0211953 0)
(1.36238 0.0151917 -3.94022e-20)
(1.34344 0.00931302 -1.02806e-19)
(1.32481 0.00370119 3.22191e-20)
(1.30659 -0.00152214 1.64586e-21)
(1.28886 -0.00628253 -6.58631e-20)
(1.27167 -0.0104841 5.47292e-21)
(1.25504 -0.0141145 7.45087e-20)
(1.23896 -0.0171498 -3.18986e-20)
(1.22347 -0.019506 -1.15259e-20)
(1.20845 -0.0213479 3.67329e-20)
(1.19372 -0.0246716 0)
(0.0345621 -0.00535719 0)
(0.217794 -0.0227491 4.03396e-20)
(0.495633 -0.0178652 -1.89608e-19)
(0.805205 0.00395282 6.7795e-20)
(1.07385 0.0307384 -6.27964e-20)
(1.26294 0.0526773 -5.51337e-20)
(1.37244 0.0661102 -9.47317e-20)
(1.422 0.0716123 4.72487e-20)
(1.43435 0.0714325 4.00607e-20)
(1.42714 0.0678491 0)
(1.41129 0.0625029 8.51626e-20)
(1.39241 0.0563608 -1.23915e-19)
(1.37291 0.0499322 9.13129e-20)
(1.35367 0.0434886 3.9419e-20)
(1.33497 0.0371957 -3.13625e-20)
(1.31685 0.0311766 -2.54568e-20)
(1.2993 0.025516 -2.31811e-20)
(1.2823 0.0202898 7.02041e-20)
(1.26584 0.015535 0)
(1.24994 0.0112913 3.35361e-20)
(1.23461 0.00760733 2.71123e-20)
(1.21984 0.00444417 -6.79173e-20)
(1.20561 0.00169056 -4.45423e-20)
(1.19197 -0.00126365 4.11879e-20)
(0.0621686 -0.00788816 -4.59557e-20)
(0.303735 -0.0196076 -1.31316e-21)
(0.627079 0.00105912 3.84662e-20)
(0.94598 0.0373099 1.04518e-19)
(1.19054 0.0709286 2.87179e-20)
(1.34202 0.0935802 -5.5324e-20)
(1.41665 0.104819 4.98834e-20)
(1.4411 0.107504 -4.25422e-20)
(1.43833 0.104949 7.37912e-20)
(1.42328 0.0996472 3.0672e-20)
(1.40383 0.0930841 -8.58649e-20)
(1.38347 0.086022 2.49183e-20)
(1.36346 0.0788341 4.16529e-20)
(1.34415 0.071719 -2.03445e-20)
(1.32559 0.0648015 0)
(1.30773 0.0581711 2.92119e-20)
(1.29056 0.0518999 4.85554e-20)
(1.27407 0.0460408 7.83374e-21)
(1.25828 0.040643 -3.95378e-20)
(1.24317 0.0357414 1.63049e-20)
(1.22869 0.0313485 0)
(1.21479 0.0274345 -1.23744e-20)
(1.20143 0.0238105 -1.1217e-20)
(1.18847 0.0207886 0)
(0.0954899 -0.00779615 0)
(0.398192 -0.00749404 2.22308e-20)
(0.756152 0.0319168 4.05062e-20)
(1.06869 0.0802489 -1.05565e-19)
(1.28128 0.116947 3.33857e-20)
(1.39631 0.137577 0)
(1.44203 0.145186 4.65769e-20)
(1.44804 0.144494 -6.39156e-20)
(1.43531 0.139371 -3.66021e-20)
(1.41556 0.132204 1.63428e-20)
(1.39414 0.124223 -2.53044e-20)
(1.37305 0.115993 6.1087e-20)
(1.35285 0.107778 3.00782e-20)
(1.33363 0.0997214 -2.08296e-20)
(1.31534 0.0919201 -2.07725e-21)
(1.29792 0.0844528 -5.52386e-20)
(1.28132 0.0773764 2.48946e-20)
(1.26549 0.0707385 -4.79799e-22)
(1.25039 0.064574 0)
(1.23597 0.0589054 -1.63208e-20)
(1.22217 0.0537458 0)
(1.20892 0.0490135 3.58056e-20)
(1.19618 0.0447456 -4.22227e-20)
(1.18392 0.041592 1.90079e-20)
(0.133637 -0.00409546 -1.23768e-20)
(0.496193 0.0149318 -5.587e-20)
(0.875294 0.073912 6.22125e-20)
(1.16969 0.130827 3.53564e-20)
(1.34752 0.167192 -1.69001e-20)
(1.42999 0.183773 2.65991e-20)
(1.45296 0.186877 -1.29104e-20)
(1.44596 0.182525 2.07079e-20)
(1.42688 0.174707 0)
(1.40442 0.165516 4.5191e-20)
(1.38196 0.155903 -1.86476e-21)
(1.36053 0.146269 -3.56286e-20)
(1.34033 0.136798 1.50959e-20)
(1.32128 0.127598 -1.68452e-20)
(1.30328 0.118743 -6.34728e-21)
(1.28625 0.110291 7.24174e-21)
(1.27011 0.10228 -5.58151e-21)
(1.25481 0.0947438 -2.96206e-20)
(1.24032 0.0877143 1.8061e-20)
(1.22658 0.0812131 3.68317e-21)
(1.21354 0.0752246 3.20694e-21)
(1.20111 0.0697045 2.7919e-21)
(1.1892 0.0648098 0)
(1.17771 0.0610814 0)
(0.175226 0.0040737 1.23919e-20)
(0.592254 0.0481092 -1.15189e-20)
(0.979108 0.125577 -2.06821e-20)
(1.24784 0.187255 0)
(1.3916 0.220476 -8.24132e-21)
(1.4465 0.231588 -7.07995e-21)
(1.45227 0.229664 -1.1783e-20)
(1.43641 0.221476 0)
(1.41345 0.21081 0)
(1.38952 0.199384 0)
(1.36662 0.187893 0)
(1.34518 0.17661 0)
(1.32516 0.165655 -9.51851e-21)
(1.30644 0.155102 4.302e-21)
(1.28889 0.145002 7.38851e-21)
(1.2724 0.135393 3.40412e-21)
(1.2569 0.126297 8.40566e-21)
(1.24231 0.117743 0)
(1.22857 0.109754 -1.98646e-21)
(1.2156 0.10233 -1.83562e-21)
(1.20334 0.0954437 -3.21195e-21)
(1.19169 0.0890813 -2.79627e-21)
(1.18058 0.0835071 0)
(1.16997 0.0790618 1.98219e-21)
(-0.00374106 0.147283 8.27304e-21)
(-0.010906 0.298845 -7.84049e-21)
(-0.0253372 0.359622 -1.45364e-20)
(-0.0442743 0.370023 0)
(-0.0649462 0.35753 -1.90008e-20)
(-0.0855525 0.335926 5.80654e-21)
(-0.104862 0.309403 -1.14605e-20)
(-0.122043 0.277605 0)
(-0.136587 0.239051 0)
(-0.148205 0.192528 0)
(-0.156786 0.137413 0)
(-0.162385 0.0736525 0)
(-0.165114 0.001753 -2.42e-22)
(-0.164918 -0.0776859 -8.06173e-21)
(-0.162001 -0.163156 1.59518e-20)
(-0.156563 -0.253119 2.20293e-20)
(-0.148627 -0.345665 7.14159e-21)
(-0.138233 -0.438428 0)
(-0.125696 -0.528617 5.30323e-21)
(-0.111583 -0.61323 -1.49905e-20)
(-0.0970852 -0.689014 -8.77855e-21)
(-0.0827291 -0.753782 -7.56833e-21)
(-0.0719936 -0.80639 0)
(-0.058764 -0.846404 0)
(-0.0106066 0.143879 -2.51931e-20)
(-0.0206864 0.302438 3.96457e-20)
(-0.029454 0.372548 -1.51959e-20)
(-0.0396282 0.389543 -2.79528e-20)
(-0.0502825 0.380116 3.86207e-20)
(-0.0600831 0.358888 -2.50259e-20)
(-0.0678478 0.331108 3.46596e-20)
(-0.0727799 0.29718 2.29706e-20)
(-0.0744751 0.256039 0)
(-0.0728265 0.206689 -2.11009e-20)
(-0.0679614 0.148671 -1.34163e-21)
(-0.0602143 0.0820774 1.8207e-20)
(-0.0501533 0.00748243 2.77021e-20)
(-0.0379404 -0.0741752 3.52855e-20)
(-0.023781 -0.161703 -1.56221e-20)
(-0.00799185 -0.253775 -4.57756e-20)
(0.00959299 -0.348619 1.45992e-20)
(0.0291111 -0.443812 -5.31917e-20)
(0.0501794 -0.536018 0)
(0.0727411 -0.620918 1.0026e-20)
(0.0949054 -0.694406 8.76361e-21)
(0.116078 -0.752888 7.55546e-21)
(0.127734 -0.797593 0)
(0.143507 -0.825108 0)
(-0.0163824 0.13346 0)
(-0.0294987 0.293149 8.33443e-20)
(-0.0325675 0.37174 -3.08082e-20)
(-0.0334365 0.396287 2.88367e-20)
(-0.0331798 0.390995 -8.10769e-20)
(-0.0311834 0.370871 0)
(-0.0265499 0.342369 -4.96066e-20)
(-0.0185786 0.306949 2.31036e-20)
(-0.00698093 0.264196 -4.53945e-20)
(0.00815349 0.213474 2.247e-20)
(0.0264297 0.154532 1.26784e-19)
(0.0471431 0.0875624 -5.91851e-20)
(0.0695622 0.013138 -9.63926e-20)
(0.093335 -0.0677596 -3.81921e-20)
(0.11811 -0.154458 -6.91981e-22)
(0.143754 -0.246151 1.28962e-19)
(0.170609 -0.34162 -6.007e-20)
(0.199031 -0.43869 -7.93494e-22)
(0.228914 -0.533695 0)
(0.259902 -0.62094 -4.34094e-20)
(0.289306 -0.69539 0)
(0.317694 -0.749965 -2.85932e-20)
(0.333775 -0.787076 1.059e-19)
(0.359664 -0.794636 -5.70753e-21)
(-0.0203487 0.117277 0)
(-0.0365443 0.271305 7.27632e-22)
(-0.034956 0.356192 3.18279e-20)
(-0.0271383 0.38868 -3.02031e-20)
(-0.016172 0.388758 2.64035e-20)
(-0.00244439 0.370905 1.57405e-19)
(0.0144311 0.342606 -4.91894e-20)
(0.0349162 0.306539 -4.77627e-20)
(0.0591512 0.263136 9.11469e-20)
(0.0868741 0.212249 -1.33201e-19)
(0.117494 0.153841 4.1257e-20)
(0.150118 0.088133 4.0575e-20)
(0.184124 0.0157943 0)
(0.219077 -0.0625801 3.6777e-20)
(0.254852 -0.146837 0)
(0.291826 -0.236677 6.52813e-20)
(0.330601 -0.331302 -1.20087e-19)
(0.371401 -0.428481 3.08803e-20)
(0.413056 -0.524326 1.01239e-19)
(0.454205 -0.612135 4.3359e-20)
(0.489521 -0.6872 0)
(0.521948 -0.739876 -9.04942e-20)
(0.535143 -0.775538 2.99285e-20)
(0.5627 -0.775795 0)
(-0.0221599 0.0975073 0)
(-0.0411513 0.239094 -1.0372e-19)
(-0.0367251 0.326603 -3.19742e-20)
(-0.0219826 0.366247 -5.99604e-20)
(-0.0016225 0.37249 5.55528e-20)
(0.0228152 0.35819 -5.25298e-20)
(0.0509594 0.331306 1.01563e-19)
(0.0828413 0.295625 5.054e-20)
(0.118376 0.252542 -1.35914e-19)
(0.157157 0.202505 8.92883e-20)
(0.198486 0.145733 -1.26846e-19)
(0.241702 0.0825486 2.83024e-19)
(0.286389 0.0135546 -1.52494e-19)
(0.332385 -0.0612964 7.25952e-20)
(0.380253 -0.142244 2.0757e-19)
(0.431041 -0.229326 -6.54869e-20)
(0.485357 -0.321744 -6.09891e-20)
(0.542589 -0.416581 -5.69298e-20)
(0.599453 -0.509482 0)
(0.652813 -0.592212 -8.14587e-20)
(0.694359 -0.661626 -6.12595e-20)
(0.727922 -0.706025 9.89006e-20)
(0.733992 -0.736715 9.23248e-20)
(0.752067 -0.732662 -8.4806e-20)
(-0.0219305 0.0767498 0)
(-0.0429882 0.200333 -1.39832e-19)
(-0.0378035 0.285605 -2.42303e-22)
(-0.018716 0.330025 1.1955e-19)
(0.00875043 0.342171 0)
(0.0419975 0.332306 0)
(0.0797417 0.308059 0)
(0.121394 0.273912 -4.90471e-20)
(0.166536 0.23212 -2.58512e-21)
(0.214641 0.183741 8.5151e-20)
(0.265134 0.129173 -1.28003e-19)
(0.317858 0.0691427 -1.85537e-21)
(0.373012 0.00354685 0)
(0.431237 -0.0681727 -7.25601e-20)
(0.493972 -0.146487 6.67746e-20)
(0.562342 -0.231281 -1.87719e-19)
(0.635732 -0.321066 2.3028e-19)
(0.711133 -0.411598 4.50763e-20)
(0.782236 -0.497944 -1.12823e-20)
(0.843666 -0.570799 -1.68204e-19)
(0.886328 -0.629081 -6.60807e-20)
(0.914264 -0.659528 1.89747e-19)
(0.911222 -0.679921 -1.19381e-19)
(0.914197 -0.659879 0)
(-0.0202054 0.0574177 7.45439e-20)
(-0.0422903 0.159681 7.00155e-20)
(-0.0381167 0.237567 -6.45122e-20)
(-0.0174703 0.282928 -1.19701e-19)
(0.014246 0.299215 1.10896e-19)
(0.0537356 0.293633 -1.04834e-19)
(0.0988647 0.272721 1.45811e-19)
(0.148371 0.241053 -4.90033e-20)
(0.201504 0.20139 8.72309e-20)
(0.257653 0.155088 0)
(0.317035 0.103344 8.12331e-20)
(0.380445 0.0463083 -1.48848e-19)
(0.448876 -0.0167646 1.47256e-19)
(0.524168 -0.0863742 -1.37066e-19)
(0.607544 -0.162663 0)
(0.698185 -0.244503 1.2058e-19)
(0.792023 -0.328986 2.14624e-19)
(0.882102 -0.41072 -2.02879e-19)
(0.959208 -0.484706 -8.4433e-20)
(1.017 -0.542595 -7.13398e-20)
(1.0482 -0.585821 2.0028e-19)
(1.05857 -0.602577 4.33939e-20)
(1.0394 -0.614002 -4.72979e-20)
(1.02211 -0.588148 3.23584e-20)
(-0.0178272 0.0412664 -7.45626e-20)
(-0.0399311 0.121563 2.09818e-19)
(-0.0378362 0.187771 -6.48043e-20)
(-0.0179145 0.229588 1.18977e-19)
(0.0153215 0.246919 -1.10225e-19)
(0.0583918 0.244128 -1.15117e-21)
(0.108649 0.226237 4.71874e-20)
(0.164412 0.197342 1.81333e-19)
(0.224846 0.160184 3.57535e-21)
(0.290399 0.116702 -8.09509e-20)
(0.362163 0.0676833 0)
(0.44181 0.0125938 -7.41691e-20)
(0.531437 -0.0487339 1.39133e-19)
(0.63182 -0.116251 1.3294e-19)
(0.741041 -0.188876 -6.3363e-20)
(0.853593 -0.264015 -3.30314e-21)
(0.960811 -0.337543 -5.37127e-20)
(1.05273 -0.404295 8.92273e-20)
(1.12022 -0.460091 8.44396e-20)
(1.15953 -0.499456 -7.24814e-20)
(1.16786 -0.525455 5.57898e-20)
(1.15534 -0.529502 -4.6127e-20)
(1.11774 -0.533115 0)
(1.08315 -0.503528 -3.23756e-20)
(-0.0157566 0.0292263 7.43475e-20)
(-0.037259 0.0892811 -7.0072e-20)
(-0.0374691 0.141222 6.43459e-20)
(-0.0194331 0.175473 0)
(0.0136418 0.190236 0)
(0.0586707 0.187763 1.00812e-19)
(0.113176 0.171561 -9.4462e-20)
(0.175855 0.144913 8.93555e-20)
(0.246963 0.110357 -4.1891e-19)
(0.327924 0.0693559 -1.78042e-21)
(0.420859 0.0221304 7.44062e-20)
(0.527338 -0.0309492 0)
(0.646851 -0.0893398 -1.35697e-19)
(0.775441 -0.151791 2.52892e-19)
(0.905485 -0.21589 -1.7832e-19)
(1.0266 -0.278433 -2.67287e-19)
(1.12805 -0.335455 8.46265e-21)
(1.20098 -0.383616 1.68823e-19)
(1.24129 -0.420232 0)
(1.25055 -0.443391 0)
(1.23289 -0.456696 -5.58188e-20)
(1.20133 -0.453652 4.61523e-20)
(1.15369 -0.454968 -1.3555e-19)
(1.11503 -0.426403 1.26478e-19)
(-0.0148677 0.0214777 0)
(-0.0356292 0.0645782 0)
(-0.0374339 0.101605 -1.92695e-19)
(-0.0207308 0.12565 5.99755e-20)
(0.0127511 0.134778 4.57948e-22)
(0.061036 0.130032 1.00406e-19)
(0.122879 0.113709 0)
(0.19847 0.0882114 -8.72781e-20)
(0.289288 0.0553804 8.31662e-20)
(0.397114 0.0162922 -1.55177e-19)
(0.522211 -0.0281174 -1.38751e-21)
(0.661719 -0.07677 1.39093e-19)
(0.808854 -0.128156 4.67036e-22)
(0.953464 -0.180225 1.19094e-19)
(1.08381 -0.23043 -1.69709e-19)
(1.18896 -0.276284 0)
(1.26157 -0.315202 1.73816e-19)
(1.29903 -0.346012 -2.44156e-19)
(1.30516 -0.367258 6.50979e-20)
(1.28672 -0.380176 0)
(1.25315 -0.385984 4.71798e-20)
(1.21435 -0.382528 1.55165e-19)
(1.16876 -0.383938 -1.44907e-19)
(1.1357 -0.36015 -1.30963e-19)
(-0.0156615 0.0175705 2.22504e-19)
(-0.035628 0.0476322 -2.80626e-19)
(-0.0370077 0.0707727 8.98109e-22)
(-0.0185877 0.083757 5.98041e-20)
(0.01956 0.0855132 -1.09372e-19)
(0.07735 0.0766523 -1.00801e-19)
(0.155523 0.058689 1.87106e-19)
(0.255542 0.0333357 1.51712e-21)
(0.378228 0.00211674 -1.62257e-19)
(0.521726 -0.0335578 3.06917e-19)
(0.680036 -0.0722385 2.75392e-21)
(0.843047 -0.112372 -1.33921e-19)
(0.998106 -0.152315 0)
(1.13253 -0.190416 0)
(1.23625 -0.225128 -5.37787e-20)
(1.30396 -0.255201 -8.99356e-20)
(1.33615 -0.279606 -1.59973e-19)
(1.33838 -0.298401 1.49156e-19)
(1.31988 -0.31085 -6.51745e-20)
(1.28878 -0.319432 1.02163e-19)
(1.254 -0.322002 -5.6105e-20)
(1.21791 -0.321445 6.47632e-20)
(1.18178 -0.322061 -1.66959e-19)
(1.15459 -0.302337 2.72289e-20)
(-0.0179582 0.0165092 7.45516e-20)
(-0.0363023 0.0371815 0)
(-0.0334062 0.0486308 1.29462e-19)
(-0.00711206 0.0513545 -1.19871e-19)
(0.0442378 0.0455621 1.09519e-19)
(0.122562 0.0320229 0)
(0.229603 0.0120586 0)
(0.365206 -0.012728 -8.7283e-20)
(0.525053 -0.040673 -6.05487e-22)
(0.699596 -0.0701855 7.48359e-20)
(0.87517 -0.0998905 -6.92199e-20)
(1.03678 -0.128714 1.30496e-19)
(1.17135 -0.155863 0)
(1.27035 -0.180728 2.13299e-19)
(1.33132 -0.202811 -3.89333e-19)
(1.3578 -0.221706 2.67732e-19)
(1.3576 -0.237192 1.47966e-19)
(1.34013 -0.249337 -1.37965e-19)
(1.31366 -0.257841 0)
(1.28313 -0.264328 0)
(1.2528 -0.26534 0)
(1.22012 -0.268497 0)
(1.19125 -0.263964 3.11209e-20)
(1.1638 -0.254432 -9.5736e-20)
(-0.0581422 -0.876338 -3.19947e-21)
(-0.0497212 -0.881623 3.21271e-21)
(-0.0190756 -0.84513 -8.47598e-23)
(0.0412641 -0.758764 0)
(0.126659 -0.61369 -2.88668e-21)
(0.230256 -0.42394 5.78531e-21)
(0.336483 -0.205944 1.244e-22)
(0.432806 0.0296259 -2.93284e-21)
(0.517792 0.274313 0)
(0.591989 0.499542 0)
(0.650763 0.66371 -1.16327e-22)
(0.694047 0.746086 -9.11312e-23)
(0.723052 0.763383 -1.19309e-21)
(0.736165 0.74902 1.08881e-21)
(0.740676 0.71936 0)
(0.743606 0.689038 0)
(0.737427 0.689823 9.39765e-22)
(0.71262 0.732467 1.61073e-22)
(0.678081 0.759171 -9.69853e-22)
(0.659478 0.677132 -8.98655e-23)
(0.67037 0.445544 0)
(0.700536 0.113074 0)
(0.740193 -0.219202 0)
(0.781882 -0.461522 0)
(0.813687 -0.591734 0)
(0.82994 -0.633868 0)
(0.840307 -0.616905 1.97108e-22)
(0.845237 -0.598766 -3.22373e-22)
(0.825687 -0.622072 0)
(0.780042 -0.659367 0)
(0.717993 -0.627546 -3.01299e-22)
(0.658829 -0.485553 2.92773e-22)
(0.626399 -0.2428 1.72231e-22)
(0.626767 0.0340006 0)
(0.656945 0.272007 0)
(0.70297 0.421716 2.08205e-22)
(0.749763 0.495691 -2.02356e-22)
(0.757349 0.540029 0)
(0.719423 0.565692 1.46185e-22)
(0.657218 0.539339 -2.22183e-22)
(0.615458 0.397395 9.57368e-23)
(0.599548 0.173884 0)
(0.639508 -0.0702539 -1.57469e-22)
(0.684961 -0.242247 1.53113e-22)
(0.713265 -0.362287 0)
(0.688835 -0.44626 0)
(0.665661 -0.450359 -3.918e-23)
(0.649432 -0.380471 1.08878e-22)
(0.660123 -0.173049 0)
(0.668334 0.0362025 0)
(0.675965 0.257093 -2.75149e-23)
(0.657969 0.424152 2.87797e-24)
(0.656449 0.393243 3.4523e-25)
(0.646826 0.308411 2.91502e-23)
(0.651687 -0.00586154 0)
(0.624965 -0.198065 0)
(0.630766 -0.271523 0)
(0.615879 -0.471076 0)
(0.622285 -0.123307 0)
(0.581617 0.139765 0)
(0.121325 -0.8552 -3.20305e-22)
(0.0835584 -0.871198 -1.12733e-20)
(0.0523662 -0.861349 8.69504e-22)
(0.0470537 -0.809137 9.73228e-21)
(0.0753865 -0.697088 1.33489e-22)
(0.133952 -0.52558 0)
(0.212526 -0.309496 -1.02177e-20)
(0.29842 -0.0674334 2.0182e-20)
(0.384725 0.184563 -9.96691e-21)
(0.467626 0.418387 7.8583e-21)
(0.542744 0.596184 -7.51429e-21)
(0.608273 0.697654 4.93852e-21)
(0.659257 0.735984 -4.78708e-21)
(0.692725 0.737086 -1.06882e-22)
(0.716408 0.714411 -3.38117e-21)
(0.735403 0.689645 3.28365e-21)
(0.742297 0.699518 -3.81426e-21)
(0.730887 0.750546 3.58141e-21)
(0.714644 0.77747 -5.49824e-21)
(0.716503 0.68743 1.18817e-20)
(0.742632 0.444673 -6.33509e-21)
(0.780864 0.100992 -4.64436e-22)
(0.8197 -0.240888 -6.37193e-21)
(0.851877 -0.485584 1.1257e-20)
(0.870678 -0.608568 -4.92272e-21)
(0.871773 -0.642325 1.9838e-22)
(0.864763 -0.619647 2.23216e-21)
(0.856284 -0.592155 -2.34665e-22)
(0.826327 -0.602613 -3.42398e-21)
(0.770478 -0.630014 3.39828e-21)
(0.69847 -0.595859 -1.72285e-21)
(0.631044 -0.46207 2.57704e-22)
(0.591968 -0.235964 -1.72594e-22)
(0.592792 0.0217915 2.82835e-22)
(0.629471 0.248614 0)
(0.686869 0.397882 0)
(0.74191 0.483281 -6.11452e-22)
(0.756051 0.544681 4.58035e-22)
(0.725552 0.583067 4.85798e-22)
(0.671056 0.559729 2.25567e-22)
(0.635093 0.410891 -8.31572e-22)
(0.61817 0.172929 2.35762e-22)
(0.654602 -0.0840599 0)
(0.698724 -0.256019 0)
(0.728925 -0.363766 0)
(0.70153 -0.439725 0)
(0.673451 -0.444647 1.48542e-22)
(0.654721 -0.379927 -7.08426e-23)
(0.661403 -0.175766 0)
(0.667657 0.0331438 0)
(0.674101 0.257429 0)
(0.659664 0.426032 -5.18689e-23)
(0.663476 0.394582 -8.44915e-24)
(0.653583 0.309668 -5.3513e-23)
(0.659508 -0.00175486 0)
(0.629346 -0.19744 0)
(0.635252 -0.269309 2.69997e-23)
(0.614944 -0.470836 5.71495e-23)
(0.619243 -0.119833 0)
(0.585652 0.142673 0)
(0.328697 -0.806973 -4.39706e-21)
(0.279364 -0.813078 -2.39881e-20)
(0.208752 -0.8151 1.76908e-20)
(0.139786 -0.796154 -1.65598e-20)
(0.0989835 -0.730333 -1.34447e-22)
(0.0993716 -0.599377 0)
(0.133081 -0.405517 -1.62818e-20)
(0.193432 -0.171254 1.58847e-20)
(0.270366 0.0805785 1.36978e-22)
(0.356483 0.319109 1.85746e-22)
(0.445176 0.508932 1.55337e-22)
(0.529 0.630338 1.57818e-22)
(0.598555 0.691635 -7.00065e-21)
(0.650877 0.709904 6.90557e-21)
(0.69304 0.696744 0)
(0.727719 0.679329 1.79216e-22)
(0.74797 0.697632 -7.40288e-21)
(0.750845 0.755423 7.31307e-21)
(0.75248 0.783696 0)
(0.773124 0.69147 0)
(0.813903 0.447485 -1.51481e-20)
(0.859904 0.101751 2.99901e-20)
(0.898754 -0.244435 -2.74091e-20)
(0.922684 -0.49194 2.66005e-21)
(0.928549 -0.611187 1.75531e-20)
(0.915704 -0.640233 -1.33508e-20)
(0.892319 -0.615724 9.43562e-21)
(0.870694 -0.581141 -9.32649e-22)
(0.832673 -0.578957 -3.31574e-21)
(0.769543 -0.598037 0)
(0.688745 -0.565247 0)
(0.614064 -0.442252 1.56544e-21)
(0.568263 -0.233597 -1.97787e-21)
(0.568704 0.00545805 -4.53997e-23)
(0.610638 0.220287 1.61872e-21)
(0.677136 0.369511 -1.57287e-21)
(0.738971 0.466994 0)
(0.760403 0.546807 1.36826e-22)
(0.739262 0.599502 1.47756e-21)
(0.693365 0.580724 -3.34886e-21)
(0.664576 0.426927 1.62825e-21)
(0.647425 0.176778 2.92236e-22)
(0.677595 -0.093191 -2.10816e-21)
(0.717422 -0.267917 1.58512e-21)
(0.748907 -0.363995 2.68391e-22)
(0.718767 -0.431888 1.92448e-22)
(0.684603 -0.438546 -1.48935e-22)
(0.662489 -0.380008 0)
(0.665544 -0.179387 0)
(0.670396 0.0297103 -3.13902e-22)
(0.676128 0.256423 1.61132e-22)
(0.66484 0.427281 -1.71169e-22)
(0.673483 0.39559 3.30791e-22)
(0.663645 0.311445 5.49407e-22)
(0.670983 0.00370955 -8.79675e-23)
(0.637407 -0.196532 2.0542e-22)
(0.643084 -0.266075 -1.43594e-22)
(0.617122 -0.469897 5.67402e-23)
(0.619428 -0.117719 0)
(0.592992 0.145261 0)
(0.522193 -0.769447 -4.56047e-20)
(0.478256 -0.744214 8.43281e-21)
(0.407422 -0.7223 3.49269e-20)
(0.310012 -0.713319 -2.26311e-22)
(0.209504 -0.692461 0)
(0.142133 -0.619114 0)
(0.120498 -0.474717 -2.23469e-20)
(0.139721 -0.269828 -1.25754e-21)
(0.194166 -0.0314315 3.28482e-20)
(0.272852 0.203949 -1.17207e-21)
(0.365608 0.40256 -9.33953e-21)
(0.460057 0.543569 -6.27507e-21)
(0.543708 0.628594 6.26618e-21)
(0.612673 0.665739 0)
(0.671894 0.664724 -5.24863e-21)
(0.721098 0.655652 4.76509e-21)
(0.753544 0.680562 0)
(0.769462 0.742706 0)
(0.787684 0.773999 1.02625e-20)
(0.824655 0.688392 2.59666e-21)
(0.875961 0.454764 -1.17653e-20)
(0.930444 0.113608 -1.50033e-20)
(0.974687 -0.236186 1.49682e-20)
(0.993998 -0.487888 -1.07761e-20)
(0.987512 -0.60521 2.6694e-21)
(0.961291 -0.630267 7.49418e-21)
(0.923026 -0.605709 5.75075e-22)
(0.888706 -0.567687 1.38072e-23)
(0.843413 -0.553913 0)
(0.775566 -0.563465 2.56161e-21)
(0.688536 -0.532349 -2.63137e-21)
(0.607799 -0.422505 2.1294e-22)
(0.555553 -0.234031 0)
(0.554485 -0.0146276 -2.40611e-22)
(0.59931 0.187183 2.68377e-21)
(0.67243 0.337144 -4.5456e-21)
(0.740627 0.447031 -9.80554e-23)
(0.770352 0.543872 -2.32472e-22)
(0.758778 0.610534 1.83647e-21)
(0.721697 0.59889 3.79689e-22)
(0.702338 0.444266 -4.30685e-21)
(0.686853 0.18512 3.65302e-21)
(0.709171 -0.0975194 -4.6819e-23)
(0.74132 -0.278361 1.34679e-21)
(0.772755 -0.363862 -1.57857e-21)
(0.740261 -0.422653 -1.26213e-21)
(0.699015 -0.431117 3.87208e-22)
(0.672508 -0.380083 3.57596e-22)
(0.67241 -0.184042 -6.27705e-22)
(0.676356 0.0254408 4.20989e-22)
(0.681834 0.253923 -1.87359e-22)
(0.673113 0.428004 5.26748e-23)
(0.686197 0.396442 1.63738e-22)
(0.676766 0.313771 -8.85001e-22)
(0.685981 0.0103838 -8.87889e-25)
(0.649073 -0.195269 -2.37703e-22)
(0.654209 -0.261856 0)
(0.622537 -0.468191 -6.52689e-23)
(0.622815 -0.116933 -6.48415e-23)
(0.603441 0.147586 0)
(0.692998 -0.734964 4.22316e-20)
(0.637641 -0.703432 -7.35887e-20)
(0.57816 -0.649056 3.12974e-20)
(0.495149 -0.606383 1.85647e-20)
(0.383036 -0.591 -3.30343e-20)
(0.265842 -0.567935 1.32391e-21)
(0.182486 -0.492706 1.29762e-20)
(0.149376 -0.34287 1.33232e-20)
(0.16693 -0.137295 -1.30748e-20)
(0.224189 0.0842398 0)
(0.307696 0.285891 -1.01764e-20)
(0.401041 0.443229 1.83382e-20)
(0.491486 0.549923 -8.28752e-21)
(0.573262 0.60635 0)
(0.647396 0.619952 0)
(0.709573 0.621337 1.52212e-22)
(0.752717 0.652686 -1.17174e-20)
(0.780705 0.717799 1.13759e-20)
(0.814335 0.753081 0)
(0.865601 0.679162 2.35416e-20)
(0.926633 0.462987 -4.89404e-20)
(0.990079 0.13379 5.35678e-20)
(1.04243 -0.214623 -5.29859e-20)
(1.06161 -0.469123 4.13258e-21)
(1.04484 -0.587287 3.54281e-20)
(1.00649 -0.611328 -1.50618e-20)
(0.955368 -0.588618 -2.85629e-22)
(0.909796 -0.550553 -2.74191e-21)
(0.859106 -0.528451 5.14945e-22)
(0.788957 -0.529445 2.28619e-21)
(0.697824 -0.500223 1.44813e-22)
(0.612214 -0.403744 -2.56868e-21)
(0.553365 -0.236261 5.28623e-21)
(0.548983 -0.0380818 -3.01504e-21)
(0.594094 0.150285 0)
(0.671678 0.300083 -2.06089e-21)
(0.745797 0.420889 1.97202e-21)
(0.783964 0.535886 -1.85037e-21)
(0.783714 0.618684 2.28592e-21)
(0.757318 0.615539 -4.04332e-22)
(0.747991 0.463128 0)
(0.735242 0.198522 -6.21303e-22)
(0.748985 -0.0955029 1.67128e-21)
(0.770264 -0.285804 0)
(0.799835 -0.362858 2.58721e-21)
(0.765713 -0.411862 -1.14478e-21)
(0.716543 -0.422131 2.7291e-22)
(0.684516 -0.379951 1.63693e-22)
(0.681708 -0.189866 0)
(0.685192 0.0201102 0)
(0.691013 0.249785 -3.37662e-22)
(0.684225 0.427676 7.65535e-22)
(0.701317 0.396812 -6.20511e-22)
(0.692676 0.316321 2.72007e-22)
(0.704316 0.0180699 6.60428e-22)
(0.664197 -0.193505 2.37958e-22)
(0.668509 -0.256678 -3.76432e-22)
(0.631272 -0.465588 0)
(0.62928 -0.117424 5.43423e-23)
(0.616791 0.14951 4.16066e-23)
(0.843715 -0.663085 3.96907e-20)
(0.771222 -0.648205 -3.91857e-20)
(0.703755 -0.605013 2.08997e-22)
(0.635987 -0.538184 -1.3594e-22)
(0.551783 -0.483053 1.10586e-22)
(0.437852 -0.460424 -8.49945e-23)
(0.316146 -0.438045 6.42295e-23)
(0.226286 -0.362898 0)
(0.19253 -0.216838 -4.08384e-23)
(0.214568 -0.025523 4.20209e-23)
(0.277345 0.167741 3.65746e-23)
(0.360034 0.334112 -1.05429e-22)
(0.449565 0.457639 0)
(0.538718 0.531995 0)
(0.623714 0.56148 4.83721e-23)
(0.695023 0.5749 0)
(0.744909 0.612407 -1.06818e-22)
(0.781812 0.679103 0)
(0.82834 0.720003 -1.53831e-20)
(0.891848 0.663345 3.47434e-20)
(0.962012 0.470375 -4.27388e-20)
(1.0366 0.157479 2.32062e-20)
(1.10102 -0.185277 2.38149e-20)
(1.12399 -0.441009 -2.31139e-20)
(1.09962 -0.561334 -1.5092e-20)
(1.05068 -0.586096 1.45152e-20)
(0.988992 -0.566042 0)
(0.932778 -0.530301 1.82419e-22)
(0.877455 -0.503114 0)
(0.807938 -0.496239 0)
(0.715522 -0.468019 3.17871e-21)
(0.626373 -0.384447 -3.2504e-21)
(0.560677 -0.238313 2.13733e-22)
(0.550658 -0.0628185 3.07916e-22)
(0.593559 0.110339 -1.88872e-22)
(0.673459 0.258796 -1.38652e-21)
(0.753395 0.38986 1.34608e-21)
(0.800565 0.520243 -2.07615e-21)
(0.811573 0.617801 1.81449e-21)
(0.794893 0.627548 8.10412e-22)
(0.796531 0.482268 -4.88669e-21)
(0.789441 0.216679 -9.4677e-22)
(0.795844 -0.0866437 3.71929e-21)
(0.804018 -0.289613 0)
(0.829368 -0.361265 -1.22239e-21)
(0.794664 -0.39963 9.26092e-22)
(0.737113 -0.411052 -1.28627e-21)
(0.698224 -0.379186 -1.64787e-22)
(0.693051 -0.196769 0)
(0.696525 0.0133735 6.61687e-23)
(0.703317 0.243811 -9.03089e-23)
(0.697744 0.426864 -1.63509e-23)
(0.718363 0.397156 -2.46563e-22)
(0.7109 0.31903 7.72651e-22)
(0.725741 0.0267338 -7.13634e-22)
(0.682704 -0.191164 0)
(0.685831 -0.250582 3.76654e-22)
(0.643371 -0.461999 0)
(0.638618 -0.119106 0)
(0.6328 0.150948 -4.82357e-23)
(0.94759 -0.58958 -3.80407e-20)
(0.873239 -0.572097 3.73057e-20)
(0.800741 -0.545167 -1.88957e-22)
(0.728891 -0.5004 1.39363e-22)
(0.663 -0.431601 0)