/*--------------------------------*- C++ -*----------------------------------*\
| =========                 |                                                 |
| \\      /  F ield         | OpenFOAM: The Open Source CFD Toolbox           |
|  \\    /   O peration     | Version:  2512                                  |
|   \\  /    A nd           | Website:  www.openfoam.com                      |
|    \\/     M anipulation  |                                                 |
\*---------------------------------------------------------------------------*/
FoamFile
{
    version     2.0;
    format      ascii;
    arch        "LSB;label=32;scalar=64";
    class       surfaceScalarField;
    location    "90.5";
    object      phi;
}
// * * * * * * * * * * * * * * * * * * * * * * * * * * * * * * * * * * * * * //

dimensions      [0 3 -1 0 0 0 0];

oriented        oriented;

internalField   nonuniform List<scalar> 
19380
(
0.874551
-4.85309e-05
0.874684
-0.000132932
0.874889
-0.000205108
0.875158
-0.000268662
0.875484
-0.000326056
0.875863
-0.000379029
0.876292
-0.000429199
0.876769
-0.000477124
0.877292
-0.000522886
0.877858
-0.000566119
0.878464
-0.000606154
0.879107
-0.000642204
0.87978
-0.000673538
0.88048
-0.000699598
0.8812
-0.000720058
0.881935
-0.000734827
0.882679
-0.000744032
0.883427
-0.000747963
0.884174
-0.000747029
0.884915
-0.000741705
0.885648
-0.000732503
0.886368
-0.00071994
0.887072
-0.000704523
0.887759
-0.000686734
0.888426
-0.000667021
0.889072
-0.000645798
0.889695
-0.000623437
0.890296
-0.000600277
0.890872
-0.000576617
0.891425
-0.000552724
0.891954
-0.000528813
0.892459
-0.000505053
0.89294
-0.00048158
0.893399
-0.000458533
0.893835
-0.000436027
0.894249
-0.000414152
0.894642
-0.000392973
0.895015
-0.00037254
0.895367
-0.000352885
-0.000334072
0.895702
0.84401
-9.51929e-05
0.844138
-0.000260635
0.844335
-0.000402009
0.844593
-0.000526468
0.844905
-0.00063893
0.845269
-0.000742843
0.845682
-0.000841476
0.84614
-0.000935887
0.846644
-0.00102623
0.847189
-0.00111178
0.847774
-0.00119119
0.848395
-0.00126286
0.849047
-0.00132535
0.849725
-0.00137751
0.850423
-0.00141866
0.851137
-0.00144861
0.851861
-0.00146758
0.852589
-0.00147611
0.853317
-0.00147502
0.85404
-0.0014652
0.854755
-0.00144768
0.855459
-0.00142345
0.856148
-0.00139353
0.85682
-0.00135884
0.857473
-0.00132029
0.858106
-0.00127868
0.858718
-0.00123477
0.859307
-0.0011892
0.859872
-0.0011426
0.860415
-0.00109547
0.860935
-0.00104827
0.861431
-0.00100132
0.861904
-0.000954905
0.862355
-0.0009093
0.862784
-0.000864734
0.863191
-0.00082139
0.863577
-0.000779402
0.863944
-0.000738874
0.864291
-0.000699871
-0.000662523
0.864619
0.814535
-0.00013979
0.814657
-0.000382446
0.814845
-0.000589669
0.815091
-0.000772155
0.815389
-0.000937342
0.815736
-0.00109026
0.816131
-0.00123581
0.816571
-0.00137559
0.817054
-0.00150979
0.81758
-0.00163727
0.818144
-0.00175598
0.818745
-0.00186353
0.819377
-0.00195768
0.820037
-0.00203668
0.820717
-0.00209949
0.821414
-0.00214574
0.822123
-0.00217571
0.822837
-0.00219019
0.823552
-0.0021903
0.824264
-0.00217738
0.824969
-0.00215287
0.825664
-0.00211829
0.826346
-0.00207508
0.827012
-0.00202464
0.82766
-0.0019683
0.828288
-0.00190725
0.828896
-0.00184261
0.829482
-0.00177538
0.830046
-0.00170645
0.830587
-0.00163661
0.831105
-0.00156654
0.831601
-0.00149676
0.832074
-0.0014277
0.832524
-0.00135975
0.832953
-0.00129328
0.83336
-0.00122857
0.833746
-0.00116582
0.834113
-0.00110521
0.834459
-0.00104683
-0.000990894
0.834788
0.78609
-0.00018219
0.786205
-0.000497933
0.786383
-0.000767345
0.786616
-0.00100471
0.786898
-0.00122011
0.787228
-0.00142015
0.787604
-0.00161104
0.788023
-0.00179525
0.788486
-0.00197287
0.788991
-0.00214229
0.789536
-0.00230072
0.790117
-0.00244492
0.790732
-0.00257184
0.791374
-0.00267908
0.79204
-0.00276513
0.792723
-0.00282944
0.79342
-0.00287231
0.794124
-0.00289465
0.794832
-0.00289789
0.795538
-0.00288373
0.79624
-0.00285405
0.796932
-0.00281079
0.797613
-0.00275585
0.798279
-0.00269107
0.798929
-0.00261817
0.799561
-0.00253876
0.800172
-0.0024543
0.800763
-0.00236615
0.801332
-0.00227548
0.801879
-0.00218338
0.802403
-0.00209075
0.802905
-0.00199834
0.803384
-0.00190673
0.80384
-0.00181645
0.804275
-0.00172799
0.804688
-0.00164175
0.80508
-0.00155803
0.805452
-0.00147707
0.805805
-0.00139902
-0.00132416
0.806138
0.758637
-0.000222262
0.758746
-0.000606659
0.758913
-0.00093432
0.759132
-0.00122317
0.759398
-0.00148601
0.759709
-0.00173138
0.760064
-0.00196593
0.760462
-0.00219371
0.760904
-0.00241449
0.761388
-0.00262612
0.761912
-0.00282505
0.762474
-0.00300711
0.763071
-0.00316838
0.763697
-0.00330573
0.764349
-0.00341717
0.765022
-0.00350186
0.765709
-0.00356004
0.766408
-0.00359271
0.767111
-0.00360153
0.767816
-0.0035885
0.768518
-0.00355589
0.769213
-0.00350605
0.769898
-0.00344129
0.770571
-0.00336386
0.771229
-0.00327588
0.77187
-0.00317937
0.772491
-0.00307614
0.773093
-0.0029679
0.773674
-0.00285612
0.774233
-0.00274217
0.774769
-0.00262722
0.775283
-0.00251227
0.775774
-0.00239809
0.776243
-0.00228534
0.77669
-0.00217463
0.777115
-0.00206652
0.777518
-0.00196139
0.777901
-0.00185958
0.778263
-0.00176131
-0.00166694
0.778606
0.732144
-0.000259865
0.732245
-0.000708189
0.732401
-0.00108988
0.732604
-0.00142658
0.732852
-0.00173386
0.733143
-0.00202248
0.733476
-0.00229921
0.733852
-0.00256963
0.734271
-0.00283337
0.734733
-0.00308765
0.735236
-0.00332806
0.735778
-0.00354948
0.736357
-0.00374704
0.736968
-0.0039168
0.737607
-0.00405621
0.738269
-0.00416408
0.738949
-0.00424049
0.739643
-0.00428646
0.740345
-0.00430379
0.741052
-0.00429475
0.741758
-0.00426193
0.74246
-0.00420803
0.743154
-0.00413575
0.743838
-0.00404773
0.744509
-0.00394646
0.745164
-0.00383436
0.745801
-0.00371361
0.746419
-0.00358625
0.747017
-0.00345409
0.747594
-0.00331878
0.748148
-0.00318175
0.748681
-0.00304431
0.74919
-0.00290743
0.749676
-0.00277196
0.75014
-0.00263862
0.750582
-0.00250811
0.751002
-0.00238096
0.7514
-0.00225762
0.751777
-0.00213837
-0.0020237
0.752133
0.706575
-0.000294848
0.706668
-0.000802098
0.706812
-0.00123331
0.706999
-0.00161399
0.707228
-0.00196251
0.707497
-0.00229181
0.707808
-0.00260965
0.70816
-0.00292149
0.708554
-0.00322794
0.708992
-0.00352534
0.709472
-0.00380836
0.709993
-0.00407082
0.710553
-0.00430683
0.711148
-0.00451158
0.711774
-0.00468191
0.712426
-0.00481618
0.7131
-0.0049142
0.71379
-0.00497691
0.714492
-0.00500617
0.715202
-0.00500446
0.715915
-0.00497464
0.716626
-0.0049197
0.717333
-0.00484265
0.718032
-0.00474648
0.71872
-0.00463409
0.719394
-0.00450824
0.720052
-0.00437149
0.720691
-0.00422622
0.721312
-0.00407455
0.721912
-0.00391848
0.72249
-0.00375971
0.723045
-0.00359984
0.723578
-0.00344011
0.724087
-0.00328161
0.724574
-0.00312515
0.725038
-0.00297163
0.725478
-0.0028217
0.725897
-0.00267596
0.726293
-0.0025348
-0.00239884
0.726668
0.681898
-0.000327063
0.681984
-0.000887967
0.682115
-0.00136395
0.682285
-0.0017845
0.682494
-0.00217079
0.68274
-0.00253799
0.683026
-0.00289554
0.683352
-0.00324773
0.68372
-0.00359642
0.684132
-0.00393734
0.684588
-0.00426411
0.685087
-0.00456933
0.685626
-0.00484606
0.686203
-0.00508859
0.686814
-0.00529308
0.687455
-0.00545731
0.688122
-0.00558071
0.688809
-0.00566402
0.689512
-0.00570913
0.690226
-0.00571862
0.690947
-0.00569553
0.69167
-0.00564306
0.692392
-0.00556448
0.693109
-0.00546311
0.693817
-0.00534219
0.694513
-0.00520485
0.695196
-0.00505397
0.695862
-0.00489229
0.69651
-0.00472226
0.697137
-0.00454622
0.697744
-0.00436617
0.698328
-0.00418403
0.698889
-0.00400133
0.699427
-0.00381943
0.699941
-0.00363935
0.700432
-0.00346209
0.700898
-0.00328851
0.701342
-0.00311938
0.701762
-0.00295522
-0.0027968
0.70216
0.658083
-0.000356375
0.658161
-0.000965383
0.658278
-0.00148118
0.658431
-0.00193722
0.658618
-0.00235763
0.658839
-0.00275984
0.659099
-0.00315481
0.659398
-0.00354684
0.659738
-0.00393689
0.660123
-0.00432155
0.660551
-0.00469306
0.661025
-0.00504272
0.661541
-0.00536244
0.662098
-0.00564567
0.662693
-0.00588776
0.663321
-0.00608577
0.663979
-0.00623862
0.664662
-0.0063468
0.665365
-0.00641213
0.666084
-0.00643722
0.666813
-0.00642513
0.66755
-0.00637919
0.668288
-0.00630288
0.669025
-0.00619981
0.669756
-0.00607349
0.670478
-0.0059274
0.671189
-0.00576471
0.671885
-0.00558852
0.672565
-0.00540158
0.673225
-0.00520664
0.673865
-0.00500598
0.674483
-0.00480188
0.675078
-0.00459617
0.675649
-0.00439056
0.676196
-0.00418629
0.676718
-0.00398455
0.677216
-0.00378637
0.677689
-0.00359274
0.678139
-0.00340434
-0.00322213
0.678564
0.6351
-0.000382659
0.635169
-0.00103399
0.635272
-0.00158448
0.635406
-0.00207141
0.635571
-0.00252203
0.635767
-0.00295617
0.635998
-0.00338596
0.636268
-0.0038166
0.636578
-0.0042475
0.636933
-0.00467575
0.637332
-0.00509273
0.637778
-0.00548824
0.638269
-0.00585317
0.638803
-0.00618004
0.639378
-0.00646326
0.639992
-0.00669899
0.640639
-0.00688563
0.641315
-0.0070233
0.642017
-0.00711372
0.642739
-0.00715929
0.643477
-0.00716302
0.644226
-0.00712827
0.644982
-0.00705864
0.64574
-0.00695799
0.646496
-0.00683002
0.647247
-0.0066785
0.647989
-0.00650684
0.648719
-0.0063185
0.649434
-0.00611655
0.650132
-0.00590412
0.65081
-0.00568382
0.651466
-0.00545831
0.6521
-0.0052297
0.652709
-0.00500013
0.653294
-0.00477112
0.653854
-0.00454414
0.654388
-0.00432035
0.654896
-0.004101
0.655379
-0.00388699
-0.0036795
0.655836
0.612919
-0.00040579
0.612979
-0.00109354
0.613068
-0.00167339
0.613183
-0.0021864
0.613324
-0.00266316
0.613493
-0.003126
0.613695
-0.0035878
0.613933
-0.00405462
0.614212
-0.00452635
0.614534
-0.00499773
0.614902
-0.0054604
0.615316
-0.00590284
0.615778
-0.00631504
0.616287
-0.0066884
0.61684
-0.00701623
0.617434
-0.00729367
0.618067
-0.00751858
0.618735
-0.00769072
0.619432
-0.00781146
0.620156
-0.0078829
0.620901
-0.00790783
0.621662
-0.00788953
0.622435
-0.00783169
0.623215
-0.00773827
0.623999
-0.0076131
0.62478
-0.00746015
0.625556
-0.00728299
0.626323
-0.00708547
0.627078
-0.00687091
0.627816
-0.00664287
0.628537
-0.00640426
0.629237
-0.00615817
0.629914
-0.00590701
0.630567
-0.00565338
0.631195
-0.00539913
0.631797
-0.00514614
0.632373
-0.00489569
0.632921
-0.00464932
0.633442
-0.0044082
-0.00417377
0.633936
0.591512
-0.000425668
0.591563
-0.00114384
0.591637
-0.00174757
0.591732
-0.00228165
0.59185
-0.0027805
0.591992
-0.00326851
0.592163
-0.00375906
0.592368
-0.00425955
0.592613
-0.00477075
0.5929
-0.00528543
0.593233
-0.0057933
0.593614
-0.00628333
0.594043
-0.00674455
0.594522
-0.00716704
0.595048
-0.00754273
0.595621
-0.0078658
0.596236
-0.0081336
0.59689
-0.00834538
0.597581
-0.00850204
0.598303
-0.00860514
0.599052
-0.00865719
0.599824
-0.00866128
0.600613
-0.00862106
0.601416
-0.00854047
0.602226
-0.00842331
0.603039
-0.00827368
0.603852
-0.00809524
0.604658
-0.0078922
0.605456
-0.00766807
0.60624
-0.00742688
0.607007
-0.00717176
0.607755
-0.00690632
0.608481
-0.00663326
0.609184
-0.00635567
0.60986
-0.00607582
0.61051
-0.00579604
0.611133
-0.00551788
0.611726
-0.00524312
0.612291
-0.00497325
-0.00471005
0.612828
0.570853
-0.000442219
0.570894
-0.00118483
0.570953
-0.00180673
0.571029
-0.00235685
0.571122
-0.00287382
0.571236
-0.00338304
0.571376
-0.00389865
0.571547
-0.00443026
0.571755
-0.00497888
0.572005
-0.00553597
0.572301
-0.0060888
0.572644
-0.00662654
0.573038
-0.00713813
0.573483
-0.00761189
0.573978
-0.00803834
0.574523
-0.00841078
0.575116
-0.00872608
0.575753
-0.00898282
0.576432
-0.00918122
0.577149
-0.00932215
0.5779
-0.00940775
0.578679
-0.00944084
0.579483
-0.00942483
0.580306
-0.00936349
0.581143
-0.00926041
0.581989
-0.00911972
0.582839
-0.0089451
0.583688
-0.00874104
0.584531
-0.00851117
0.585364
-0.00825995
0.586183
-0.00799072
0.586984
-0.00770764
0.587765
-0.0074137
0.588522
-0.00711258
0.589253
-0.00680692
0.589957
-0.00649965
0.590631
-0.0061927
0.591276
-0.00588811
0.591891
-0.00558774
-0.00529374
0.592475
0.550915
-0.000455422
0.550947
-0.00121652
0.550991
-0.00185058
0.551046
-0.00241205
0.551115
-0.00294319
0.551201
-0.00346907
0.551309
-0.00400582
0.551444
-0.00456596
0.551615
-0.0051496
0.551826
-0.0057465
0.552081
-0.00634398
0.552384
-0.00692954
0.552738
-0.00749221
0.553145
-0.00801871
0.553605
-0.00849829
0.554117
-0.00892357
0.554682
-0.00929086
0.555297
-0.00959783
0.55596
-0.00984387
0.556667
-0.0100291
0.557414
-0.0101552
0.558198
-0.0102245
0.559013
-0.0102401
0.559855
-0.0102053
0.560718
-0.0101233
0.561596
-0.00999814
0.562484
-0.00983342
0.563377
-0.00963383
0.564269
-0.00940294
0.565155
-0.00914568
0.566029
-0.00886547
0.566889
-0.00856708
0.567729
-0.00825378
0.568546
-0.00792993
0.569338
-0.00759851
0.570101
-0.00726318
0.570835
-0.00692635
0.571537
-0.00659043
0.572207
-0.00625764
-0.00593061
0.572844
0.531674
-0.00046535
0.531696
-0.00123887
0.531724
-0.00187894
0.53176
-0.00244776
0.531806
-0.00298882
0.531863
-0.00352616
0.531937
-0.00408034
0.532038
-0.00466625
0.53217
-0.00528173
0.532339
-0.00591535
0.53255
-0.00655552
0.53281
-0.00718942
0.533121
-0.00780334
0.533486
-0.00838318
0.533905
-0.00891763
0.53438
-0.00939878
0.534912
-0.00982224
0.535498
-0.0101845
0.536138
-0.010484
0.536829
-0.0107201
0.537568
-0.0108941
0.538351
-0.0110075
0.539174
-0.0110628
0.540031
-0.0110626
0.540918
-0.0110097
0.541827
-0.0109079
0.542754
-0.0107603
0.543692
-0.0105718
0.544635
-0.0103457
0.545577
-0.0100874
0.546512
-0.00980026
0.547434
-0.00948971
0.54834
-0.00915921
0.549224
-0.00881391
0.550082
-0.00845715
0.550913
-0.00809338
0.551712
-0.00772558
0.552478
-0.00735678
0.55321
-0.00698951
-0.00662694
0.553906
0.513104
-0.000472181
0.513117
-0.00125163
0.51313
-0.00189186
0.513147
-0.002465
0.513169
-0.00301087
0.513197
-0.00355425
0.513239
-0.00412264
0.513304
-0.00473102
0.513397
-0.0053742
0.513522
-0.00604113
0.513689
-0.00672174
0.513902
-0.0074027
0.514167
-0.00806803
0.514484
-0.00870114
0.514858
-0.0092915
0.515291
-0.00983093
0.515782
-0.0103141
0.516334
-0.0107362
0.516945
-0.0110949
0.517613
-0.0113887
0.518337
-0.0116181
0.519114
-0.0117839
0.519939
-0.0118876
0.520807
-0.0119312
0.521714
-0.0119165
0.522653
-0.0118469
0.523618
-0.0117249
0.524601
-0.0115555
0.525597
-0.0113414
0.526598
-0.0110882
0.527597
-0.0107993
0.528588
-0.0104807
0.529565
-0.010136
0.530522
-0.00977117
0.531455
-0.00938994
0.532359
-0.00899764
0.533231
-0.00859789
0.534069
-0.00819457
0.53487
-0.00779058
-0.00738966
0.535633
0.495183
-0.000476146
0.495185
-0.0012542
0.495184
-0.00188997
0.495184
-0.00246507
0.495182
-0.00300933
0.495182
-0.00355397
0.495193
-0.00413377
0.495222
-0.00476019
0.495274
-0.00542625
0.495356
-0.00612299
0.495476
-0.00684156
0.49564
-0.00756718
0.495854
-0.00828213
0.496122
-0.00896854
0.496446
-0.00961526
0.496829
-0.0102145
0.497275
-0.01076
0.497785
-0.0112459
0.498359
-0.0116691
0.498997
-0.0120271
0.499699
-0.0123197
0.500462
-0.0125466
0.501282
-0.0127082
0.502156
-0.0128054
0.503079
-0.012839
0.504044
-0.0128119
0.505044
-0.0127255
0.506074
-0.0125846
0.507123
-0.012391
0.508186
-0.0121508
0.509253
-0.0118665
0.510318
-0.0115453
0.511372
-0.0111904
0.51241
-0.0108089
0.513425
-0.0104047
0.514411
-0.0099842
0.515365
-0.00955171
0.516282
-0.00911216
0.517161
-0.00866904
-0.00822664
0.517998
0.477888
-0.000477359
0.477879
-0.00124563
0.477864
-0.00187475
0.477848
-0.00244915
0.477823
-0.00298417
0.477796
-0.00352697
0.477777
-0.00411489
0.47777
-0.00475364
0.477782
-0.00543777
0.47782
-0.00616079
0.477892
-0.00691427
0.478006
-0.00768132
0.478167
-0.00844275
0.478379
-0.00918078
0.478648
-0.00988437
0.478978
-0.0105441
0.479372
-0.0111536
0.479832
-0.0117063
0.480362
-0.0121986
0.480962
-0.012627
0.481632
-0.0129905
0.482373
-0.0132872
0.483181
-0.0135165
0.484054
-0.013678
0.484986
-0.0137713
0.485973
-0.0137982
0.487006
-0.013759
0.488079
-0.0136577
0.489183
-0.0134949
0.490309
-0.0132772
0.491449
-0.0130059
0.492592
-0.012689
0.493731
-0.0123292
0.494857
-0.011935
0.495963
-0.0115101
0.497041
-0.0110624
0.498086
-0.0105966
0.499093
-0.0101192
0.500058
-0.0096343
-0.0091469
0.500978
0.461196
-0.000475488
0.461175
-0.00122499
0.461149
-0.00184867
0.461118
-0.0024178
0.46107
-0.00293594
0.461019
-0.00347583
0.46097
-0.00406672
0.460928
-0.00471158
0.4609
-0.00540947
0.460894
-0.00615499
0.46092
-0.00693961
0.460982
-0.00774385
0.461087
-0.0085479
0.461241
-0.00933464
0.46145
-0.0100937
0.461721
-0.0108143
0.462056
-0.0114886
0.462459
-0.0121101
0.462936
-0.0126753
0.463489
-0.0131795
0.464119
-0.013621
0.464828
-0.0139962
0.465615
-0.0143034
0.466477
-0.0145404
0.467412
-0.0147057
0.468413
-0.0147996
0.469475
-0.0148206
0.470589
-0.0147719
0.471747
-0.0146525
0.472938
-0.0144687
0.474153
-0.0142207
0.475381
-0.013917
0.476611
-0.0135596
0.477834
-0.013158
0.47904
-0.0127159
0.480221
-0.0122428
0.481368
-0.0117437
0.482475
-0.0112268
0.483539
-0.0106974
-0.010161
0.484553
0.445086
-0.000469302
0.445053
-0.00119206
0.445019
-0.00181488
0.444972
-0.00237074
0.444903
-0.00286641
0.44483
-0.00340335
0.444753
-0.00398921
0.444676
-0.00463519
0.444609
-0.00534275
0.444561
-0.00610654
0.444539
-0.00691777
0.444549
-0.00775396
0.444598
-0.00859616
0.444691
-0.00942797
0.444837
-0.0102395
0.445042
-0.0110192
0.445312
-0.0117587
0.445652
-0.0124502
0.446067
-0.0130908
0.446563
-0.0136753
0.447143
-0.0142011
0.44781
-0.0146628
0.448564
-0.0150581
0.449406
-0.0153823
0.450334
-0.0156329
0.451342
-0.0158078
0.452425
-0.015904
0.453576
-0.0159228
0.454785
-0.0158616
0.456042
-0.0157257
0.457335
-0.0155138
0.458653
-0.0152346
0.459982
-0.0148889
0.461311
-0.0144873
0.462629
-0.0140332
0.463924
-0.0135376
0.465186
-0.0130059
0.466407
-0.0124484
0.467581
-0.0118714
-0.0112817
0.468702
0.429536
-0.000456141
0.429492
-0.00114845
0.429453
-0.00177637
0.42939
-0.00230719
0.429302
-0.00277886
0.42921
-0.00331141
0.429103
-0.00388198
0.428995
-0.00452713
0.428891
-0.00523913
0.428802
-0.006017
0.428733
-0.00684933
0.428691
-0.00771146
0.428682
-0.00858687
0.428713
-0.00945909
0.428792
-0.0103192
0.428928
-0.0111544
0.429126
-0.0119572
0.429395
-0.0127195
0.429742
-0.013437
0.430171
-0.0141046
0.43069
-0.0147199
0.431303
-0.0152756
0.432013
-0.0157686
0.432823
-0.0161918
0.433731
-0.0165415
0.434736
-0.0168125
0.435832
-0.0170004
0.437013
-0.0171039
0.43827
-0.0171181
0.439591
-0.017047
0.440964
-0.0168869
0.442376
-0.0166465
0.443812
-0.0163247
0.445258
-0.0159331
0.446699
-0.0154741
0.448122
-0.0149607
0.449514
-0.0143984
0.450865
-0.0137996
0.452166
-0.013172
-0.0125243
0.453409
0.414523
-0.000431455
0.414474
-0.00109916
0.414432
-0.00173422
0.414352
-0.00222699
0.41425
-0.00267726
0.414139
-0.00320012
0.414003
-0.0037456
0.413867
-0.00439142
0.413727
-0.00509959
0.413599
-0.00588896
0.413485
-0.00673485
0.41339
-0.00761708
0.413324
-0.00852011
0.413292
-0.00942707
0.413303
-0.0103309
0.413366
-0.0112168
0.413488
-0.0120793
0.413679
-0.0129102
0.413947
-0.0137054
0.414301
-0.0144583
0.414747
-0.0151665
0.415294
-0.0158222
0.415947
-0.0164216
0.41671
-0.0169552
0.417586
-0.0174177
0.418575
-0.0178011
0.419673
-0.0180986
0.420875
-0.0183059
0.422173
-0.0184157
0.423555
-0.0184292
0.425009
-0.0183404
0.426519
-0.0181566
0.428069
-0.0178745
0.429642
-0.0175061
0.43122
-0.0170524
0.432787
-0.0165283
0.434328
-0.0159388
0.435828
-0.0152994
0.437274
-0.0146185
-0.0139076
0.438657
0.400029
-0.000388617
0.399984
-0.00105424
0.399935
-0.00168522
0.39984
-0.00213258
0.399727
-0.00256406
0.399596
-0.00306873
0.399432
-0.00358231
0.399274
-0.0042326
0.399098
-0.00492426
0.398936
-0.00572664
0.398775
-0.00657409
0.398631
-0.00747333
0.398507
-0.00839613
0.398412
-0.00933215
0.398355
-0.0102736
0.398342
-0.011204
0.398385
-0.0121217
0.398491
-0.0130169
0.398674
-0.0138875
0.398942
-0.0147265
0.399305
-0.0155299
0.399773
-0.01629
0.400354
-0.0170028
0.401056
-0.0176571
0.401884
-0.018246
0.402841
-0.0187581
0.403927
-0.0191845
0.405138
-0.0195168
0.406467
-0.0197449
0.407905
-0.0198665
0.409437
-0.0198724
0.411047
-0.0197673
0.412718
-0.0195452
0.414429
-0.0192175
0.41616
-0.0187833
0.417891
-0.0182586
0.4196
-0.0176481
0.421271
-0.01697
0.422886
-0.0162338
-0.0154548
0.424433
0.386031
-0.000319447
0.386006
-0.00102913
0.385941
-0.00161993
0.385839
-0.0020313
0.385712
-0.00243688
0.385563
-0.00291908
0.385375
-0.00339478
0.385198
-0.0040555
0.384986
-0.00471235
0.384796
-0.00553635
0.384587
-0.00636501
0.384399
-0.00728591
0.384217
-0.00821396
0.384062
-0.00917705
0.383935
-0.0101464
0.383846
-0.0111153
0.383806
-0.0120819
0.383825
-0.0130354
0.383914
-0.0139771
0.384087
-0.0148991
0.384356
-0.0157988
0.384732
-0.0166662
0.385227
-0.0174975
0.385851
-0.0182809
0.386613
-0.0190083
0.38752
-0.0196653
0.388576
-0.0202403
0.38978
-0.0207205
0.391128
-0.0210927
0.39261
-0.0213494
0.394216
-0.0214779
0.395927
-0.0214787
0.397725
-0.0213426
0.399586
-0.0210785
0.401485
-0.0206831
0.403399
-0.0201726
0.405302
-0.0195508
0.407171
-0.0188387
0.408983
-0.0180465
-0.0171945
0.410723
0.372513
-0.000215861
0.372527
-0.00104237
0.372429
-0.00152248
0.372335
-0.00193701
0.372184
-0.00228559
0.372025
-0.00276059
0.371812
-0.00318206
0.371624
-0.00386701
0.371373
-0.00446116
0.371164
-0.00532737
0.370901
-0.00610255
0.370681
-0.00706559
0.370436
-0.00796892
0.370229
-0.00896968
0.370028
-0.00994619
0.369867
-0.010954
0.369742
-0.011957
0.36967
-0.0129637
0.369662
-0.013969
0.369732
-0.0149691
0.369895
-0.0159614
0.370166
-0.016937
0.370559
-0.0178905
0.371087
-0.0188092
0.371764
-0.0196852
0.3726
-0.0205018
0.373605
-0.0212447
0.374781
-0.0218969
0.376129
-0.0224409
0.377644
-0.0228637
0.379313
-0.0231478
0.381123
-0.0232878
0.38305
-0.0232701
0.385071
-0.0230994
0.387157
-0.022769
0.389278
-0.0222936
0.391403
-0.0216756
0.393502
-0.0209377
0.395547
-0.0200913
-0.0191621
0.397514
0.359461
-7.22879e-05
0.35953
-0.00111087
0.35938
-0.0013733
0.359313
-0.00186948
0.35912
-0.00209315
0.358972
-0.00261213
0.358725
-0.00293555
0.358538
-0.00367944
0.35824
-0.0041634
0.358026
-0.00511381
0.357701
-0.00577698
0.357466
-0.00683049
0.357146
-0.00764923
0.356904
-0.00872712
0.35662
-0.00966255
0.356398
-0.0107316
0.35618
-0.0117392
0.356022
-0.012806
0.355909
-0.013856
0.355873
-0.0149331
0.355919
-0.0160075
0.356072
-0.0170898
0.356346
-0.0181645
0.35676
-0.0192236
0.357331
-0.0202556
0.358073
-0.0212444
0.359001
-0.0221728
0.360126
-0.0230211
0.361451
-0.0237663
0.362977
-0.0243894
0.364696
-0.0248671
0.366595
-0.0251865
0.368652
-0.0253278
0.370842
-0.0252889
0.373131
-0.0250583
0.375485
-0.0246472
0.377864
-0.0240552
0.380232
-0.0233057
0.382552
-0.0224108
-0.0214018
0.384792
0.346863
0.000111351
0.346995
-0.00124301
0.346779
-0.00115714
0.346757
-0.00184775
0.346507
-0.00184313
0.346391
-0.00249585
0.346095
-0.00263973
0.345927
-0.00351135
0.34557
-0.00380593
0.345372
-0.00491588
0.344967
-0.00537287
0.344744
-0.006607
0.344329
-0.00723404
0.344081
-0.0084798
0.343691
-0.00927237
0.343435
-0.0104757
0.343104
-0.0114081
0.342879
-0.0125807
0.342645
-0.0136219
0.34251
-0.0147981
0.342424
-0.0159216
0.342454
-0.0171202
0.342588
-0.018298
0.342872
-0.0195073
0.343311
-0.0206946
0.343934
-0.0218682
0.344758
-0.0229959
0.3458
-0.0240639
0.347073
-0.0250388
0.348583
-0.0258995
0.35033
-0.0266136
0.352303
-0.0271597
0.354485
-0.0275097
0.356848
-0.0276518
0.359357
-0.0275674
0.36197
-0.0272608
0.364642
-0.026727
0.367324
-0.0259881
0.36997
-0.0250564
-0.0239685
0.372537
0.334712
0.000326251
0.334901
-0.00143185
0.334617
-0.000872854
0.334649
-0.00187954
0.334334
-0.00152847
0.334265
-0.00242727
0.333906
-0.00228088
0.333776
-0.00338091
0.333345
-0.00337503
0.333184
-0.00475517
0.332685
-0.00487309
0.332503
-0.00642491
0.331966
-0.00669696
0.331754
-0.00826831
0.331222
-0.00874012
0.33098
-0.0102336
0.330495
-0.0109237
0.330246
-0.0123316
0.329852
-0.013228
0.329649
-0.0145944
0.329398
-0.0156708
0.329319
-0.0170416
0.329281
-0.0182597
0.329429
-0.019655
0.329698
-0.020964
0.330184
-0.022354
0.330864
-0.0236767
0.331795
-0.0249945
0.332977
-0.0262204
0.334438
-0.027361
0.33618
-0.0283551
0.338203
-0.0291831
0.340495
-0.0298016
0.34303
-0.0301865
0.345772
-0.0303094
0.348673
-0.0301623
0.351679
-0.029733
0.35473
-0.0290389
0.357764
-0.0280902
-0.0269296
0.360725
0.323001
0.000556041
0.323225
-0.00165533
0.322889
-0.000537161
0.322965
-0.00195533
0.322593
-0.00115692
0.322572
-0.00240589
0.32215
-0.00185934
0.322063
-0.0032936
0.321557
-0.00286886
0.321444
-0.00464218
0.320842
-0.00427152
0.320721
-0.00630345
0.320045
-0.00602076
0.319904
-0.00812734
0.319196
-0.00803214
0.31902
-0.0100576
0.318332
-0.0102359
0.318124
-0.012124
0.31751
-0.0126134
0.317304
-0.0143887
0.316822
-0.0151885
0.316686
-0.0169058
0.316412
-0.0179857
0.316451
-0.0196945
0.316486
-0.020999
0.316835
-0.022703
0.317308
-0.0241492
0.318107
-0.0257935
0.31914
-0.027253
0.320519
-0.0287409
0.322208
-0.0300438
0.32425
-0.0312254
0.326625
-0.0321767
0.32932
-0.0328813
0.332302
-0.0332911
0.335517
-0.0333776
0.338904
-0.0331196
0.342387
-0.0325217
0.345884
-0.031588
-0.0303695
0.349324
0.311719
0.000780015
0.311946
-0.00188201
0.311587
-0.000178459
0.311682
-0.00205061
0.311277
-0.000751649
0.311284
-0.00241284
0.310819
-0.00139376
0.310761
-0.00323592
0.310198
-0.00230578
0.310121
-0.00456536
0.309436
-0.00358639
0.309367
-0.00623471
0.308564
-0.00521793
0.308498
-0.00806078
0.307611
-0.0071456
0.307526
-0.00997214
0.306608
-0.0093184
0.306491
-0.0120069
0.305603
-0.0117248
0.305467
-0.0142531
0.304676
-0.0143974
0.30457
-0.0168004
0.303961
-0.0173767
0.303977
-0.0197103
0.303664
-0.0206856
0.303935
-0.0229738
0.30407
-0.0242844
0.304763
-0.0264862
0.305527
-0.0280174
0.30682
-0.0300334
0.308362
-0.0315866
0.310402
-0.0332649
0.312806
-0.0345805
0.315643
-0.0357186
0.318859
-0.0365076
0.322407
-0.0369248
0.326224
-0.0369368
0.330212
-0.0365095
0.334268
-0.0356443
-0.0343977
0.338296
0.300851
0.000978111
0.301048
-0.00207826
0.300698
0.000171065
0.300782
-0.00213418
0.300374
-0.000343622
0.30038
-0.00241873
0.2999
-0.000914471
0.299845
-0.00318073
0.299259
-0.00172002
0.299188
-0.00449363
0.298462
-0.00286033
0.298407
-0.00618031
0.297528
-0.00433848
0.297495
-0.00802815
0.296478
-0.00612887
0.296451
-0.00994519
0.295338
-0.00820496
0.2953
-0.0119686
0.294144
-0.0105693
0.294096
-0.0142049
0.292965
-0.0132668
0.292941
-0.016776
0.291923
-0.0163589
0.291999
-0.0197867
0.291216
-0.0199022
0.29152
-0.0232783
0.29114
-0.0239043
0.291847
-0.0271927
0.2921
-0.0282711
0.293398
-0.0313305
0.294562
-0.0327515
0.296645
-0.0353475
0.298927
-0.0368626
0.301926
-0.0387175
0.305333
-0.0399149
0.309229
-0.0408202
0.313529
-0.0412367
0.318096
-0.0410769
0.322835
-0.0403833
-0.0391612
0.327598
0.290379
0.00113556
0.290517
-0.00221615
0.290204
0.000483574
0.290249
-0.0021787
0.289866
3.92887e-05
0.289844
-0.00239644
0.28938
-0.00045094
0.2893
-0.00310022
0.288728
-0.00114885
0.288625
-0.00438975
0.287911
-0.0021466
0.287816
-0.00608541
0.286934
-0.0034567
0.286862
-0.00795594
0.285807
-0.00507361
0.285753
-0.0098917
0.284543
-0.00699425
0.284497
-0.011923
0.283167
-0.00923942
0.283131
-0.0141689
0.281732
-0.0118677
0.281736
-0.0167802
0.280341
-0.0149632
0.28046
-0.0199058
0.279176
-0.0186187
0.279542
-0.0236436
0.278538
-0.0229004
0.279342
-0.0279972
0.278864
-0.0277928
0.280342
-0.0328083
0.280744
-0.0331541
0.283093
-0.0376959
0.284817
-0.0385868
0.288169
-0.0420697
0.29153
-0.0432756
0.29589
-0.0451799
0.30069
-0.0460369
0.30591
-0.0462973
0.311514
-0.0459875
-0.0448353
0.317189
0.280282
0.0012444
0.280343
-0.00227735
0.280087
0.000739657
0.280076
-0.00216755
0.279737
0.00037826
0.27967
-0.00232978
0.279241
-2.20901e-05
0.279119
-0.0029779
0.278589
-0.000618614
0.278426
-0.00422681
0.277769
-0.00149053
0.277584
-0.00590037
0.276775
-0.00264733
0.276584
-0.00776453
0.275597
-0.00408726
0.275408
-0.00970263
0.274236
-0.00582217
0.274051
-0.0117377
0.272703
-0.00789137
0.27253
-0.013996
0.271029
-0.0103666
0.270903
-0.0166544
0.269293
-0.0133527
0.269294
-0.019907
0.267648
-0.0169734
0.267924
-0.0239195
0.266374
-0.0213497
0.267161
-0.0287848
0.265926
-0.0265575
0.267549
-0.0344314
0.266972
-0.0325764
0.269761
-0.0404855
0.270376
-0.0392014
0.274501
-0.0461946
0.277079
-0.0458538
0.282445
-0.0505461
0.28745
-0.051042
0.293566
-0.0524127
0.300277
-0.0526992
-0.0515529
0.306995
0.270541
0.00130259
0.270517
-0.00225394
0.27033
0.000926936
0.270257
-0.00209502
0.269973
0.000662986
0.269855
-0.00221177
0.269472
0.000360963
0.269301
-0.00280751
0.268825
-0.000142685
0.268592
-0.00399399
0.268021
-0.000918739
0.267717
-0.00559697
0.267035
-0.00196512
0.266665
-0.00739426
0.265843
-0.00326546
0.265418
-0.00927752
0.264425
-0.00482976
0.263959
-0.0112713
0.262775
-0.00670725
0.262288
-0.0135091
0.260901
-0.00898006
0.260435
-0.0161879
0.258855
-0.0117725
0.258489
-0.0195419
0.256754
-0.0152381
0.256643
-0.0238082
0.254831
-0.0195382
0.255242
-0.0291952
0.253516
-0.0248323
0.254903
-0.0358183
0.253515
-0.0311883
0.256468
-0.0434383
0.255841
-0.038574
0.260845
-0.0511987
0.261846
-0.0468553
0.268986
-0.0576855
0.273046
-0.055102
0.281289
-0.0606557
0.28898
-0.0603905
-0.0594568
0.296884
0.261139
0.00131242
0.261039
-0.00215409
0.260922
0.00104466
0.26079
-0.00196356
0.260561
0.000891658
0.260395
-0.00204509
0.260057
0.000698543
0.259845
-0.00259517
0.259419
0.000282882
0.25913
-0.00370442
0.258632
-0.000420651
0.258231
-0.00519623
0.257665
-0.0013992
0.257134
-0.0068634
0.256485
-0.00261599
0.255819
-0.00861142
0.255058
-0.00406932
0.254259
-0.0104723
0.253359
-0.00580681
0.252438
-0.0125882
0.25137
-0.00791243
0.250356
-0.0151738
0.249102
-0.0105187
0.248059
-0.018499
0.246612
-0.0137905
0.245694
-0.0228907
0.244081
-0.0179248
0.243597
-0.0287111
0.241885
-0.0231208
0.242362
-0.0362947
0.240733
-0.0295594
0.243011
-0.0457167
0.24169
-0.0372529
0.24686
-0.0563686
0.246385
-0.0463803
0.25522
-0.066521
0.25712
-0.0570013
0.269224
-0.0727605
0.276278
-0.0674442
-0.0703687
0.28719
0.252066
0.00127596
0.251906
-0.00199476
0.251849
0.00110158
0.251667
-0.0017816
0.25149
0.00106895
0.251281
-0.00183577
0.250989
0.000990657
0.250738
-0.00234481
0.250361
0.000660277
0.250026
-0.00336945
0.249588
1.76524e-05
0.249122
-0.00473069
0.248635
-0.000911552
0.248009
-0.0062376
0.247461
-0.00206835
0.246658
-0.00780856
0.246027
-0.00343778
0.245035