/*--------------------------------*- C++ -*----------------------------------*\
| =========                 |                                                 |
| \\      /  F ield         | OpenFOAM: The Open Source CFD Toolbox           |
|  \\    /   O peration     | Version:  2312                                  |
|   \\  /    A nd           | Website:  www.openfoam.com                      |
|    \\/     M anipulation  |                                                 |
\*---------------------------------------------------------------------------*/
FoamFile
{
    version     2.0;
    format      ascii;
    arch        "LSB;label=32;scalar=64";
    class       volScalarField;
    location    "65";
    object      p;
}
// * * * * * * * * * * * * * * * * * * * * * * * * * * * * * * * * * * * * * //

dimensions      [0 2 -2 0 0 0 0];

internalField   nonuniform List<scalar> 
13248
(
-0.552924
-0.550643
-0.548522
-0.546783
-0.545933
-0.546368
-0.548101
-0.550722
-0.553358
-0.554719
-0.553259
-0.547479
-0.536251
-0.519073
-0.496174
-0.468403
-0.436983
-0.403226
-0.368271
-0.333098
-0.298088
-0.263985
-0.229569
-0.195151
-0.55688
-0.554612
-0.552015
-0.549429
-0.547445
-0.546409
-0.546232
-0.546309
-0.545579
-0.542706
-0.536385
-0.525644
-0.510052
-0.489784
-0.465515
-0.4382
-0.408837
-0.378305
-0.347302
-0.316335
-0.285763
-0.255911
-0.226556
-0.19859
-0.562473
-0.560023
-0.556996
-0.553742
-0.550751
-0.548216
-0.545827
-0.542782
-0.537992
-0.530385
-0.519184
-0.504082
-0.485259
-0.463273
-0.438861
-0.412769
-0.385638
-0.357994
-0.330234
-0.302728
-0.275676
-0.249391
-0.223714
-0.198587
-0.570215
-0.567289
-0.563765
-0.559839
-0.55575
-0.551407
-0.546246
-0.539416
-0.530089
-0.517725
-0.502189
-0.483725
-0.462833
-0.440109
-0.416112
-0.391313
-0.366095
-0.340764
-0.315586
-0.290789
-0.266539
-0.243099
-0.220248
-0.198276
-0.580275
-0.576542
-0.572346
-0.567566
-0.562047
-0.555347
-0.546761
-0.535652
-0.521724
-0.505066
-0.486063
-0.46524
-0.443125
-0.420165
-0.396711
-0.37303
-0.349336
-0.325813
-0.302626
-0.279926
-0.257849
-0.236522
-0.215823
-0.195874
-0.592626
-0.587793
-0.582697
-0.576731
-0.569234
-0.559469
-0.546839
-0.531221
-0.512967
-0.492694
-0.471052
-0.448589
-0.425709
-0.402683
-0.379695
-0.356878
-0.334345
-0.3122
-0.290542
-0.269468
-0.24906
-0.229398
-0.210409
-0.192233
-0.607255
-0.601046
-0.594786
-0.587156
-0.576936
-0.563307
-0.546143
-0.526039
-0.503933
-0.480721
-0.457078
-0.43343
-0.410016
-0.386959
-0.364327
-0.342168
-0.320526
-0.299448
-0.27898
-0.259167
-0.240055
-0.221662
-0.203973
-0.187062
-0.623857
-0.616195
-0.608471
-0.598532
-0.584679
-0.56641
-0.544436
-0.520087
-0.494656
-0.469069
-0.443863
-0.419291
-0.395442
-0.372331
-0.349948
-0.328282
-0.307326
-0.28708
-0.26755
-0.248744
-0.230665
-0.21331
-0.196685
-0.180754
-0.642126
-0.632935
-0.623344
-0.610261
-0.591802
-0.568307
-0.541515
-0.513308
-0.48505
-0.457513
-0.43103
-0.405686
-0.381455
-0.358272
-0.33607
-0.314793
-0.294393
-0.274833
-0.256083
-0.238117
-0.220906
-0.204429
-0.188678
-0.173531
-0.661341
-0.650585
-0.638595
-0.621379
-0.597439
-0.56843
-0.537047
-0.505415
-0.474746
-0.445563
-0.417993
-0.391979
-0.367405
-0.344146
-0.32209
-0.301141
-0.281217
-0.262251
-0.244183
-0.226957
-0.210523
-0.194844
-0.179881
-0.165461
-0.680409
-0.668049
-0.652959
-0.63057
-0.600488
-0.565944
-0.530307
-0.495653
-0.462901
-0.432305
-0.403803
-0.377221
-0.352368
-0.329068
-0.307168
-0.286539
-0.267069
-0.248665
-0.231243
-0.214727
-0.199051
-0.184158
-0.169965
-0.156316
-0.697915
-0.683904
-0.664852
-0.636299
-0.59967
-0.559751
-0.520241
-0.482942
-0.448413
-0.416637
-0.387384
-0.360376
-0.335358
-0.312105
-0.290427
-0.270162
-0.251176
-0.233351
-0.216585
-0.200789
-0.18589
-0.171824
-0.1585
-0.145803
-0.383335
-0.385621
-0.38672
-0.387739
-0.389164
-0.391098
-0.39352
-0.396371
-0.399533
-0.402865
-0.406207
-0.409389
-0.412258
-0.414713
-0.416735
-0.418429
-0.420037
-0.421937
-0.424629
-0.428682
-0.434596
-0.44251
-0.452058
-0.463264
-0.404151
-0.406758
-0.408556
-0.410706
-0.413673
-0.417499
-0.422157
-0.427578
-0.433533
-0.439786
-0.446009
-0.451799
-0.45671
-0.460293
-0.462154
-0.462025
-0.459831
-0.455759
-0.45032
-0.444302
-0.43851
-0.433371
-0.429315
-0.428616
-0.42654
-0.429188
-0.43159
-0.434843
-0.439354
-0.445159
-0.45219
-0.460242
-0.469124
-0.478504
-0.487857
-0.496546
-0.503817
-0.508846
-0.510819
-0.509032
-0.503017
-0.492688
-0.47844
-0.461091
-0.441601
-0.420792
-0.400031
-0.383592
-0.44952
-0.451899
-0.454721
-0.45891
-0.464769
-0.4723
-0.481434
-0.491985
-0.503611
-0.515804
-0.528012
-0.539343
-0.548747
-0.555039
-0.556992
-0.553485
-0.54368
-0.527206
-0.504259
-0.475617
-0.442503
-0.406303
-0.369001
-0.334528
-0.471846
-0.473666
-0.476648
-0.481482
-0.488331
-0.497152
-0.507847
-0.520223
-0.533908
-0.548297
-0.562566
-0.57572
-0.586427
-0.593186
-0.59442
-0.588668
-0.574819
-0.552292
-0.521204
-0.482321
-0.43723
-0.387724
-0.336855
-0.284052
-0.492262
-0.493308
-0.496139
-0.50123
-0.508574
-0.518091
-0.529646
-0.543002
-0.557753
-0.57325
-0.588532
-0.602395
-0.613321
-0.619555
-0.619253
-0.610734
-0.592666
-0.564309
-0.526197
-0.479165
-0.425241
-0.366156
-0.305621
-0.241589
-0.509749
-0.509872
-0.512326
-0.517202
-0.524454
-0.533968
-0.545567
-0.558975
-0.573743
-0.589177
-0.604241
-0.617622
-0.627645
-0.63239
-0.629862
-0.618262
-0.596259
-0.563338
-0.520105
-0.467947
-0.409577
-0.346786
-0.284003
-0.219353
-0.523739
-0.522966
-0.524757
-0.528983
-0.535561
-0.544374
-0.555223
-0.567805
-0.58164
-0.59596
-0.609759
-0.62161
-0.629758
-0.632202
-0.626902
-0.612106
-0.586683
-0.550481
-0.504526
-0.450689
-0.391974
-0.330522
-0.270334
-0.211177
-0.534163
-0.532634
-0.533586
-0.536789
-0.542183
-0.549696
-0.559137
-0.570187
-0.582315
-0.594817
-0.606586
-0.616144
-0.621675
-0.621148
-0.612598
-0.594509
-0.566167
-0.527971
-0.481424
-0.42881
-0.373029
-0.316241
-0.261526
-0.208608
-0.541422
-0.539371
-0.539422
-0.541357
-0.545211
-0.551011
-0.558607
-0.567661
-0.57771
-0.587952
-0.597202
-0.603903
-0.606181
-0.602061
-0.58983
-0.568441
-0.537794
-0.498884
-0.453595
-0.404267
-0.353505
-0.302915
-0.254833
-0.208225
-0.546284
-0.543976
-0.54317
-0.543751
-0.545913
-0.549811
-0.555346
-0.562279
-0.57005
-0.577744
-0.584057
-0.587316
-0.585653
-0.577338
-0.56116
-0.536748
-0.504663
-0.466356
-0.423735
-0.378919
-0.333798
-0.289578
-0.247967
-0.20709
-0.549751
-0.547404
-0.545856
-0.545158
-0.545677
-0.547696
-0.551264
-0.55606
-0.561408
-0.566224
-0.569029
-0.568107
-0.561811
-0.548924
-0.528953
-0.50224
-0.469849
-0.433346
-0.394322
-0.354376
-0.314473
-0.275649
-0.238749
-0.203174
-0.480731
-0.504568
-0.521882
-0.533537
-0.533249
-0.515884
-0.474903
-0.41054
-0.335391
-0.266801
-0.216084
-0.185385
-0.172562
-0.174027
-0.187161
-0.214448
-0.258039
-0.307253
-0.340125
-0.335389
-0.294234
-0.236513
-0.181956
-0.140991
-0.117001
-0.108073
-0.111382
-0.130204
-0.168629
-0.215559
-0.243995
-0.230761
-0.185844
-0.135656
-0.0975454
-0.0737328
-0.0620549
-0.0643992
-0.0821597
-0.102084
-0.103933
-0.084946
-0.0644147
-0.0524304
-0.0476804
-0.0508359
-0.059087
-0.0634052
-0.05617
-0.0393458
-0.0258436
-0.0246855
-0.0382019
-0.0502774
-0.0585295
-0.0545605
-0.0393474
-0.0274685
-0.00172526
0.0104338
-0.435792
-0.45168
-0.465881
-0.478349
-0.480361
-0.466601
-0.429941
-0.372242
-0.30553
-0.245933
-0.203167
-0.179307
-0.172694
-0.179616
-0.198312
-0.231974
-0.281304
-0.334273
-0.368889
-0.363234
-0.318086
-0.254568
-0.194411
-0.148531
-0.11974
-0.106373
-0.105185
-0.118318
-0.149737
-0.190707
-0.216336
-0.205376
-0.166482
-0.123147
-0.0911045
-0.0725306
-0.066052
-0.0741853
-0.0977799
-0.122841
-0.127013
-0.105253
-0.0790585
-0.0612779
-0.0514539
-0.0492983
-0.0529046
-0.0547113
-0.0484639
-0.0349827
-0.02667
-0.0309845
-0.0491409
-0.063411
-0.0707426
-0.0634431
-0.0429698
-0.0282199
0.000148046
0.0121036
-0.376318
-0.378735
-0.386315
-0.392856
-0.403156
-0.390507
-0.362637
-0.316115
-0.262054
-0.213975
-0.180446
-0.164585
-0.16464
-0.176763
-0.199994
-0.237774
-0.290271
-0.345516
-0.382253
-0.378735
-0.332839
-0.266053
-0.20191
-0.152538
-0.119831
-0.102138
-0.0965252
-0.103948
-0.128148
-0.162724
-0.186115
-0.177774
-0.145143
-0.108775
-0.0827543
-0.0696599
-0.068772
-0.083052
-0.112676
-0.142936
-0.150006
-0.125932
-0.0937441
-0.0697546
-0.0548935
-0.0477302
-0.0468334
-0.0458971
-0.0402596
-0.0299352
-0.0268602
-0.0368184
-0.0598575
-0.0765923
-0.0830958
-0.0724874
-0.046848
-0.0294468
0.00138293
0.0134368
-0.310943
-0.297285
-0.293019
-0.294457
-0.298193
-0.290652
-0.275224
-0.242886
-0.204376
-0.169738
-0.147095
-0.140174
-0.146917
-0.163586
-0.189676
-0.229176
-0.283171
-0.340783
-0.380298
-0.381206
-0.337787
-0.270252
-0.204033
-0.152785
-0.117507
-0.0962465
-0.0862704
-0.0880937
-0.105307
-0.133455
-0.154696
-0.149375
-0.122779
-0.0929878
-0.0727129
-0.0649106
-0.0695092
-0.0898367
-0.125556
-0.161198
-0.171667
-0.146075
-0.108107
-0.0776557
-0.0578451
-0.0460996
-0.0410781
-0.037293
-0.0318328
-0.0243076
-0.0263649
-0.0419688
-0.0701669
-0.0896817
-0.0954435
-0.0815995
-0.0509252
-0.0310878
0.00203365
0.014454
-0.245656
-0.217298
-0.198584
-0.190257
-0.18877
-0.180157
-0.181279
-0.159983
-0.136713
-0.115874
-0.105077
-0.10719
-0.120425
-0.140937
-0.168589
-0.208199
-0.262247
-0.321551
-0.365004
-0.371048
-0.332659
-0.26732
-0.201427
-0.149621
-0.113033
-0.0892743
-0.0757512
-0.0721347
-0.0824088
-0.104197
-0.123154
-0.120895
-0.0999337
-0.0761273
-0.0610826
-0.0581242
-0.0676931
-0.093607
-0.135365
-0.176502
-0.19077
-0.16482
-0.121818
-0.0848949
-0.0602626
-0.0443887
-0.0357403
-0.0291369
-0.023461
-0.0181972
-0.0250578
-0.0462452
-0.0798901
-0.102501
-0.107634
-0.0906775
-0.0551368
-0.0330747
0.00216296
0.015182
-0.184161
-0.156232
-0.11832
-0.0959719
-0.0890565
-0.0836527
-0.0820876
-0.0779907
-0.0679205
-0.0596156
-0.0596416
-0.0697914
-0.0884238
-0.111652
-0.139811
-0.178606
-0.231651
-0.291444
-0.338731
-0.350646
-0.318374
-0.257834
-0.194681
-0.143696
-0.106761
-0.0815366
-0.065539
-0.057514
-0.0610852
-0.076442
-0.0926641
-0.0935636
-0.077289
-0.0587133
-0.048143
-0.0492812
-0.0632832
-0.0943919
-0.141425
-0.187817
-0.206283
-0.181311
-0.134498
-0.091409
-0.0621144
-0.0425763
-0.0308735
-0.0216385
-0.0153164
-0.0117133
-0.0229348
-0.0494774
-0.0887899
-0.114834
-0.119496
-0.0995965
-0.0594074
-0.0353323
0.00183817
0.0156527
-0.161269
-0.106162
-0.0582637
-0.0184329
-0.0118981
0.00102821
0.0032624
-0.000574137
-0.00205161
-0.00510654
-0.0137794
-0.0299867
-0.0523373
-0.0772688
-0.105744
-0.144118
-0.196268
-0.255922
-0.305881
-0.323276
-0.297576
-0.243307
-0.184708
-0.135919
-0.0994172
-0.0734754
-0.0557697
-0.0447406
-0.0425327
-0.0513991
-0.064262
-0.0684423
-0.0554269
-0.0414374
-0.0344091
-0.038827
-0.0565068
-0.0916249
-0.143416
-0.19474
-0.217614
-0.195021
-0.145806
-0.0972151
-0.0634536
-0.0406569
-0.0264335
-0.014933
-0.00759035
-0.00500973
-0.0199163
-0.0515445
-0.09674
-0.126471
-0.130859
-0.108216
-0.0636485
-0.0377751
0.00113113
0.0159014
-0.1546
-0.0952189
-0.0407908
0.00716546
0.0398761
0.0602306
0.0668229
0.0634115
0.0563546
0.0467372
0.0325954
0.012513
-0.0125323
-0.0394504
-0.0693914
-0.108316
-0.159468
-0.217894
-0.268848
-0.290158
-0.271405
-0.224757
-0.172233
-0.126908
-0.0916652
-0.0655202
-0.0467396
-0.0335511
-0.026942
-0.0298156
-0.0386901
-0.0436034
-0.0348437
-0.0250695
-0.020714
-0.0272657
-0.0474212
-0.0859165
-0.141369
-0.196478
-0.224123
-0.205058
-0.155276
-0.10225
-0.064312
-0.0386499
-0.0223351
-0.00908219
-0.000391781
0.00176124
-0.0161419
-0.0523367
-0.103436
-0.13714
-0.141523
-0.116375
-0.0677565
-0.040309
0.000119489
0.0159741
-0.157133
-0.102415
-0.050849
-0.0018115
0.041819
0.0774754
0.10009
0.108073
0.103844
0.0933835
0.0777441
0.0568973
0.0304082
0.000559266
-0.0329347
-0.0741663
-0.125119
-0.181743
-0.232125
-0.2563
-0.243281
-0.204127
-0.158195
-0.117079
-0.0838111
-0.0580217
-0.0386115
-0.0240766
-0.0142703
-0.0120728
-0.0168261
-0.0214121
-0.0161456
-0.0102522
-0.00772521
-0.0152402
-0.0366161
-0.0765504
-0.134976
-0.194431
-0.22619
-0.212181
-0.162709
-0.106431
-0.064691
-0.0365975
-0.0185768
-0.00409301
0.00593381
0.00844634
-0.0114642
-0.0517673
-0.108951
-0.146694
-0.151396
-0.123926
-0.0716326
-0.0428583
-0.00113302
0.0159125
-0.162726
-0.115014
-0.0698762
-0.0236395
0.0199918
0.0580259
0.0893914
0.113286
0.123714
0.120577
0.110061
0.0932342
0.0684921
0.037283
0.00108154
-0.0411557
-0.0901128
-0.143659
-0.19236
-0.216745
-0.210091
-0.180009
-0.142199
-0.106464
-0.0760387
-0.0513068
-0.0318107
-0.0165411
-0.00476864
0.00137801
0.000656884
-0.00286117
4.42978e-05
0.00247946
0.00390013
-0.00365081
-0.0249907
-0.0652529
-0.124948
-0.186638
-0.223079
-0.213838
-0.167326
-0.1098
-0.0648396
-0.0346722
-0.0152943
-0.000110663
0.011438
0.0148106
-0.00620208
-0.0498827
-0.112773
-0.154752
-0.160121
-0.130741
-0.0752281
-0.04538
-0.00259618
0.0157538
-0.167562
-0.126812
-0.0876272
-0.0444264
-0.000632669
0.0396732
0.0749402
0.103679
0.121288
0.12805
0.127113
0.119182
0.099684
0.0685536
0.0294234
-0.0144977
-0.0627949
-0.113534
-0.15834
-0.184206
-0.18236
-0.159667
-0.12876
-0.097843
-0.0701963
-0.0466672
-0.0272973
-0.0115502
0.00143504
0.0104911
0.0133805
0.0114461
0.0157843
0.0131083
0.0137743
0.00727459
-0.0124734
-0.0515257
-0.111305
-0.17654
-0.216981
-0.215825
-0.170155
-0.112889
-0.0654301
-0.033147
-0.0122569
0.00289858
0.0157927
0.0209915
-7.52613e-05
-0.0465524
-0.115411
-0.16146
-0.169056
-0.136737
-0.0784781
-0.0477543
-0.00417746
0.015529
-0.17367
-0.143963
-0.111085
-0.074678
-0.0366972
0.000696079
0.0363478
0.0680272
0.0945588
0.111838
0.119935
0.119766
0.111271
0.089459
0.0553078
0.014983
-0.0287296
-0.0742371
-0.115221
-0.13955
-0.142845
-0.130689
-0.109793
-0.0858244
-0.0622976
-0.0408534
-0.0222204
-0.00664031
0.00674244
0.0177585
0.0234296
0.0219697
0.0130611
0.0203061
0.0214632
0.0156986
-0.00192605
-0.037748
-0.095559
-0.160817
-0.204525
-0.205752
-0.167441
-0.112965
-0.064671
-0.0308817
-0.00831382
0.00650476
0.0192523
0.0261056
0.00619544
-0.0419025
-0.115843
-0.165864
-0.174224
-0.141281
-0.0808369
-0.0495932
-0.00557546
0.0153048
-0.155233
-0.139237
-0.108698
-0.0726577
-0.0367525
-0.00214359
0.0307377
0.0593893
0.0839133
0.101539
0.111906
0.116752
0.113686
0.096736
0.0662235
0.0285411
-0.0129352
-0.0560209
-0.0923111
-0.113926
-0.115618
-0.105186
-0.087882
-0.0678206
-0.047775
-0.029104
-0.0123393
0.00202546
0.0143987
0.0252527
0.0322081
0.0324119
0.0263327
0.0278356
0.0288546
0.0256029
0.0115689
-0.021194
-0.0778042
-0.145166
-0.19349
-0.200437
-0.162013
-0.107686
-0.0593493
-0.0260218
-0.00351616
0.0109887
0.0238363
0.0324373
0.0137255
-0.0354159
-0.114556
-0.169338
-0.178417
-0.14402
-0.0817364
-0.0506492
-0.00661756
0.015108
-0.138757
-0.125828
-0.0973801
-0.0640278
-0.031997
-0.00224348
0.0256128
0.0507015
0.0726514
0.0896072
0.100453
0.10538
0.102807
0.0889699
0.0637515
0.0316296
-0.00375348
-0.0393009
-0.0682618
-0.0842069
-0.0862672
-0.0787821
-0.065948
-0.0504263
-0.034145
-0.0183653
-0.00364894
0.00944558
0.0209696
0.0311572
0.0380571
0.0385088
0.0333239
0.0326715
0.0335878
0.0315304
0.0198252
-0.00977289
-0.0637456
-0.131773
-0.181517
-0.185712
-0.15227
-0.100421
-0.0535751
-0.0209878
0.00126429
0.0152198
0.027484
0.0367083
0.0195939
-0.029456
-0.112839
-0.171759
-0.180698
-0.145374
-0.0818862
-0.0512571
-0.00758245
0.014786
-0.123985
-0.11253
-0.0884352
-0.0594666
-0.0312523
-0.00503429
0.0191993
0.0416571
0.0612866
0.0767419
0.0868016
0.0912762
0.0892836
0.0785597
0.0589094
0.0335371
0.0060428
-0.0208479
-0.0432404
-0.0570017
-0.0608348
-0.0569404
-0.0480521
-0.0360967
-0.0226552
-0.00910248
0.00392684
0.015829
0.0263574
0.0358166
0.0428151
0.0438459
0.0392943
0.0367918
0.0369354
0.0351792
0.0244324
-0.00315305
-0.0548778
-0.119761
-0.166031
-0.172446
-0.140579
-0.0921716
-0.0474567
-0.0159535
0.00579178
0.0192649
0.0309385
0.0403599
0.0243216
-0.0247342
-0.111197
-0.172609
-0.18142
-0.145433
-0.0813439
-0.051442
-0.00855745
0.0143462
-0.108667
-0.0999411
-0.0801846
-0.0551809
-0.0302515
-0.00718803
0.0140013
0.0334235
0.0505029
0.0641849
0.0734829
0.0780179
0.0772231
0.0698105
0.0556424
0.0368381
0.015946
-0.00493234
-0.02264
-0.0350385
-0.0399146
-0.0382383
-0.0319073
-0.0226763
-0.0117548
-0.000348333
0.0109168
0.0215481
0.0310487
0.0395045
0.0461053
0.0475393
0.0433547
0.0396515
0.0393238
0.037924
0.0278817
0.0016983
-0.0463626
-0.104809
-0.147326
-0.15408
-0.125992
-0.0819588
-0.0405852
-0.01067
0.0103148
0.0231896
0.0339581
0.0436495
0.0284534
-0.0202642
-0.108194
-0.171334
-0.180076
-0.143793
-0.0798617
-0.0510419
-0.00946672
0.0137901
-0.0947117
-0.0885742
-0.072325
-0.0508728
-0.0291422
-0.00911373
0.00914417
0.0258297
0.0406374
0.0528279
0.0615737
0.0663614
0.0667771
0.0621251
0.0522563
0.0384147
0.022482
0.00639932
-0.0068415
-0.0177089
-0.0226162
-0.0223362
-0.0180919
-0.0111817
-0.0024174
0.00719665
0.016937
0.0263757
0.0349132
0.0423781
0.0483935
0.0500722
0.0462211
0.0418166
0.0409785
0.0398641
0.0304245
0.00653888
-0.0352823
-0.0865102
-0.125603
-0.133323
-0.109278
-0.0703687
-0.0332381
-0.00542317
0.0145061
0.0269471
0.0365622
0.046509
0.0324114
-0.0148441
-0.102991
-0.167439
-0.176169
-0.140178
-0.0773222
-0.049978
-0.0102795
0.0131005
-0.0823821
-0.0778803
-0.0645772
-0.0464562
-0.0278623
-0.0106108
0.0050823
0.0194059
0.0322356
0.043035
0.0511151
0.0559592
0.0572274
0.0545384
0.047837
0.037945
0.0262219
0.0140295
0.00272119
-0.00475449
-0.00901491
-0.00946465
-0.00654612
-0.00122203
0.0058856
0.0139886
0.0223076
0.0304998
0.0380546
0.0445413
0.0497613
0.0515577
0.0480683
0.0431525
0.0419384
0.0410706
0.0324557
0.0119821
-0.0225697
-0.0662526
-0.101516
-0.110471
-0.0908941
-0.0575347
-0.0253839
-0.000231689
0.0182836
0.0303859
0.0386883
0.0488454
0.0364251
-0.00821347
-0.0955143
-0.160505
-0.169319
-0.134326
-0.0736006
-0.0481555
-0.0109407
0.0122652
-0.0706632
-0.0676389
-0.057033
-0.041972
-0.0261914
-0.0114397
0.00198935
0.0142422
0.0252732
0.0347069
0.0420173
0.0467595
0.0486552
0.0475079
0.0433263
0.0366184
0.0282956
0.0193507
0.0108545
0.00510619
0.00167174
0.00106435
0.00315856
0.00727261
0.0129547
0.0197011
0.0268003
0.033846
0.0404634
0.0461471
0.0505661
0.0522936
0.0491528
0.0441432
0.0424525
0.0416415
0.033931
0.0171696
-0.00985599
-0.0450645
-0.0758588
-0.0862608
-0.0716374
-0.0440901
-0.0172498
0.00472675
0.021468
0.0332975
0.0403721
0.0506447
0.0402756
-0.000986589
-0.0859268
-0.150184
-0.159171
-0.126061
-0.0686571
-0.0455322
-0.0114024
0.0112752
-0.0596598
-0.0580181
-0.0497151
-0.0373075
-0.0240338
-0.0115185
-0.000104583
0.010305
0.0197166
0.0278911
0.0344475
0.0390281
0.0413988
0.041435
0.0391512
0.0348633
0.0292085
0.0229458
0.0169543
0.0126235
0.0100121
0.00946463
0.0110189
0.0142706
0.0188968
0.0245397
0.0305979
0.0366073
0.0422855
0.0472344
0.0509999
0.0525474
0.0498636
0.0450568
0.0431222
0.0417828
0.0347091
0.0213088
0.00228871
-0.0234276
-0.0495094
-0.0618349
-0.0524646
-0.0306265
-0.00897871
0.00942828
0.0240655
0.0354147
0.0416024
0.05165
0.0433721
0.00616569
-0.0743894
-0.136246
-0.145532
-0.115342
-0.0625419
-0.0421106
-0.0116154
0.010133
-0.0495354
-0.0489002
-0.0425015
-0.0324035
-0.0213545
-0.0108301
-0.0012034
0.00758574
0.0155788
0.0226296
0.0284649
0.0328083
0.0354639
0.0363355
0.0354396
0.0329869
0.0294224
0.0253023
0.0212632
0.018215
0.0163792
0.0160569
0.017357
0.0200296
0.02384
0.0285271
0.0336485
0.0387718
0.0436067
0.0478747
0.051137
0.052497
0.0504005
0.0461321
0.0441499
0.0425752
0.0356699
0.0252927
0.0141956
-0.00250775
-0.0246068
-0.0388675
-0.0343814
-0.0178415
-0.000891973
0.0138112
0.0261565
0.0366049
0.0422883
0.0513018
0.0452856
0.0127924
-0.0611674
-0.118716
-0.128446
-0.102334
-0.055448
-0.0379748
-0.0115467
0.0088559
-0.0400554
-0.0401532
-0.0353745
-0.0272815
-0.0181788
-0.00940432
-0.00134451
0.00603241
0.0127822
0.0188224
0.023965
0.0280053
0.0307848
0.0322241
0.032334
0.031247
0.0292706
0.0267969
0.0242765
0.0223352
0.0212275
0.0212051
0.0223907
0.0246387
0.0278179
0.0317405
0.036065
0.0404397
0.044553
0.0481966
0.0510316
0.0522705
0.0508113
0.0473874
0.0455997
0.0443178
0.0387705
0.0317971
0.0267973
0.0157867
-0.00378961
-0.0189476
-0.018171
-0.00622989
0.00671806
0.0178675
0.0278603
0.0369641
0.0423725
0.0497395
0.0457592
0.0184382
-0.046874
-0.0981137
-0.10837
-0.0874767
-0.0477241
-0.0332995
-0.0111858
0.0074798
-0.0310905
-0.0318059
-0.0283859
-0.0219931
-0.0145674
-0.00731292
-0.000615179
0.00553321
0.0111938
0.0163317
0.0208232
0.0245204
0.0272993
0.0290889
0.0298913
0.0297884
0.0289793
0.0277384
0.0263893
0.0253606
0.0248781
0.0251472
0.0263043
0.028272
0.0309808
0.0342946
0.0379369
0.0416633
0.045174
0.0482771
0.0507392
0.0519194
0.0510528
0.0485713
0.0472966
0.0471084
0.0442184
0.0408274
0.038979
0.0298945
0.0121307
-0.00244447
-0.00420652
0.00388201
0.0135209
0.0215688
0.0292682
0.0367473
0.0418457
0.0472816
0.0446331
0.0225283
-0.032461
-0.0754488
-0.0861615
-0.0714773
-0.0398565
-0.0283637
-0.0105591
0.00605856
-0.0226122
-0.0238768
-0.0215838
-0.0166128
-0.0106082
-0.00465302
0.000872709
0.00595867
0.0106708
0.0150083
0.0188946
0.0222254
0.0249056
0.0268724
0.0281171
0.0286855
0.0287062
0.0283725
0.0278964
0.0275757
0.0276023
0.028142
0.0293225
0.0311014
0.0334436
0.036266
0.0393437
0.0425182
0.0455289
0.0481782
0.050321
0.0514763
0.0511727
0.0495621
0.0488975
0.0496487
0.0492772
0.0485349
0.0477007
0.0394281
0.0239889
0.0108675
0.0073537
0.0123223
0.0192949
0.0248685
0.0304543
0.0362725
0.0407761
0.0444916
0.0420988
0.0245552
-0.0191073
-0.0523991
-0.0633239
-0.0553659
-0.0323947
-0.0235126
-0.00973817
0.00466159
-0.01482
-0.0164514
-0.0150063
-0.0111803
-0.0063644
-0.00151739
0.00300185
0.00717288
0.0110625
0.0146923
0.0180198
0.0209736
0.0234826
0.0254912
0.0269833
0.0279842
0.0285704
0.0288638
0.0290125
0.0292234
0.0296498
0.0304136
0.0316241
0.0332663
0.0353235
0.0377529
0.0403723
0.0430792
0.0456687
0.0479448
0.0498192
0.0509504
0.0510681
0.0502592
0.0501522
0.0514078
0.0522927
0.0524983
0.0517382
0.0448415
0.032357
0.021055
0.0165119
0.0190851
0.023941
0.0276776
0.0314429
0.0357809
0.0393858
0.0417358
0.0385051
0.024537
-0.00790538
-0.0312353
-0.041869
-0.0402456
-0.0257869
-0.0190653
-0.00881901
0.0033675
-0.00767177
-0.00942635
-0.00861018
-0.0057285
-0.00192079
0.0019816
0.00564397
0.00903431
0.0122142
0.01522
0.0180351
0.0206132
0.0229029
0.0248558
0.0264478
0.0276898
0.0286274
0.0293373
0.0299138
0.0304986
0.0312101
0.0321383
0.0333698
0.034907
0.0367399
0.0388498
0.0410968
0.0434102
0.0456431
0.0476146
0.0492642
0.0503473
0.0506039
0.0505788
0.0508698
0.0521769
0.053361
0.0536318
0.0525862
0.0471846
0.0376375
0.0282903
0.0234479
0.0243201
0.0275021
0.0299116
0.0322402
0.0353159
0.0378963
0.0391825
0.0350943
0.0228244
0.000453314
-0.0137752
-0.0236137
-0.0269546
-0.020264
-0.0152679
-0.00788018
0.00225477
-0.000862002
-0.00274158
-0.00245829
-0.00035556
0.00262019
0.00573677
0.00867878
0.0114063
0.0139763
0.0164353
0.0187862
0.0210004
0.0230396
0.0248653
0.0264505
0.0277922
0.028917
0.0298729
0.0307189
0.0315432
0.0324389
0.033472
0.0347052
0.0361498
0.0377971
0.0396418
0.0415844
0.0435698
0.0454983
0.0472195
0.0486845
0.0497449
0.0502653
0.0505735
0.0510492
0.0521483
0.0531723
0.0532382
0.0519082
0.0476719
0.0405626
0.0330912
0.0284909
0.0282511
0.0301257
0.0315525
0.0328366
0.0348553
0.0364452
0.036864
0.0323138
0.0197407
0.00583513
-0.00107816
-0.00998484
-0.0163331
-0.0157377
-0.0123627
-0.00691703
0.00139471
0.00547972
0.00350519
0.00339712
0.00489653
0.00719974
0.00966393
0.012
0.0141661
0.0162153
0.0181982
0.0201305
0.0219975
0.0237708
0.0254211
0.0269234
0.0282634
0.0294529
0.030522
0.0315105
0.0324658
0.0334608
0.0345415
0.0357503
0.0371015
0.0385871
0.0402077
0.0418962
0.0436065
0.0452729
0.0467806
0.0480876
0.0491106
0.0497671
0.050245
0.0507643
0.0515707
0.0522706
0.0520934
0.0506288
0.0472311
0.0419482
0.0360895
0.0319613
0.0311079
0.0320016
0.0326756
0.0332303
0.0344084
0.0351413
0.0348304
0.0303781
0.0181984
0.0098492
0.00667948
-0.00154964
-0.00899116
-0.0118564
-0.00963263
-0.00570589
0.0008575
0.0113234
0.00937048
0.00899556
0.0100155
0.0117636
0.0136833
0.015512
0.0172052
0.0188105
0.0203802
0.0219373
0.0234787
0.0249851
0.026431
0.0277948
0.0290615
0.0302298
0.0313122
0.0323303
0.033345
0.0343705
0.0354475
0.036604
0.0378539
0.0391913
0.0406154
0.0420846
0.0435606
0.0449981
0.0463157
0.0474752
0.048432
0.0491201
0.049649
0.0501267
0.0506514
0.0510173
0.0506361
0.0491762
0.0463905
0.0424102
0.0378633
0.0344175
0.0331467
0.0333045
0.0333878
0.0334482
0.0339885
0.0340363
0.0332573
0.0294891
0.0211741
0.0144009
0.0112068
0.00317761
-0.0071559
-0.00840684
-0.00694554
-0.00393162
0.00070267
0.0168178
0.0149084
0.0143285
0.014963
0.0162578
0.0177279
0.0191336
0.0204294
0.0216573
0.0228696
0.0240949
0.0253363
0.0265815
0.02781
0.0290024
0.0301452
0.0312323
0.0322666
0.0332645
0.0342538
0.035241
0.0362672
0.037345
0.0384834
0.0396774
0.0409231
0.0421964
0.0434661
0.0446998
0.0458419
0.0468543
0.0477176
0.0483692
0.048866
0.049256
0.0495462
0.0496334
0.0491084
0.0477343
0.045414
0.0423537
0.0388229
0.0359846
0.0345247
0.0341618
0.0338131
0.0335129
0.0335977
0.0331374
0.0321018
0.0291002
0.0244398
0.0184714
0.0140176
0.0064053
-0.00275566
-0.00494537
-0.00420446
-0.00155099
0.000932528
0.0219628
0.020109
0.0193852
0.0197197
0.0206474
0.0217459
0.0227989
0.023761
0.0246695
0.0255747
0.0265073
0.0274755
0.0284716
0.02948
0.0304851
0.031472
0.0324333
0.0333693
0.0342845
0.0351863
0.036112
0.0370566
0.0380344
0.0390501
0.0401
0.0411785
0.0422712
0.0433538
0.0444004
0.0453756
0.0462414
0.0469813
0.0475581
0.0479766
0.048261
0.0483678
0.0482488
0.0476358
0.046381
0.0444274
0.042017
0.0392428
0.0368917
0.035385
0.034677
0.034033
0.0334506
0.03321
0.0323953
0.0311687
0.0284649
0.0236611
0.0207535
0.0156729
0.00885495
0.0010033
-0.00163192
-0.00155242
0.00104954
0.00143861
0.0267698
0.0249975
0.0241801
0.0242789
0.0249061
0.0256962
0.0264546
0.0271372
0.0277757
0.028417
0.0290929
0.0298143
0.030578
0.0313724
0.0321835
0.0329995
0.0338121
0.034617
0.0354167
0.0362192
0.0370319
0.0378638
0.0387195
0.0396007
0.0405035
0.0414206
0.0423417
0.0432493
0.0441216
0.044934
0.0456531
0.046263
0.0467359
0.0470536
0.0472275
0.0471958
0.0469369
0.0462777
0.0451468
0.0434844
0.0415348
0.0393094
0.0373315
0.0358619
0.0349299
0.0340927
0.0332911
0.0328007
0.0317382
0.0303917
0.0279762
0.0247626
0.0217906
0.0166441
0.0107571
0.00413551
0.00131782
0.000740444
0.00314848
0.0022739
0.0312807
0.0295979
0.0287191
0.0286317
0.0290128
0.0295465
0.0300588
0.0305065
0.0309166
0.0313318
0.0317836
0.032285
0.0328355
0.0334262
0.0340463
0.0346854
0.0353353
0.0359919
0.0366542
0.0373251
0.0380096
0.0387122
0.0394331
0.0401708
0.0409224
0.0416804
0.0424355
0.0431755
0.0438813
0.044533
0.0451077
0.0455835
0.0459427
0.0461523
0.0462196
0.0460825
0.0457334
0.0450567
0.0440384
0.042606
0.0409849
0.0391505
0.0374464
0.036011
0.0349806
0.0340259
0.0330507
0.0323584
0.0311311
0.0297135
0.0274843
0.0249677
0.0220548
0.0172181
0.0121639
0.00659495
0.00373459
0.00251424
0.00430128
0.00258836
0.0355126
0.0339235
0.0330093
0.0327758
0.0329549
0.0332746
0.0335797
0.0338294
0.0340458
0.0342678
0.0345252
0.0348315
0.0351882
0.0355891
0.0360258
0.0364898
0.036974
0.0374733
0.0379855
0.0385115
0.0390539
0.0396141
0.0401906
0.0407804
0.0413793
0.0419807
0.0425758
0.0431536
0.0436984
0.0441981
0.0446303
0.0449726
0.0452136
0.0453159
0.0452855
0.0450657
0.0446583
0.0439776
0.0430502
0.0417973
0.0404121
0.0388577
0.0373578
0.0360108
0.0348954
0.0338651
0.0327524
0.0318926
0.0305613
0.0290691
0.0269682
0.0246889
0.0219204
0.0175343
0.0131455
0.0083939
0.00553523
0.0038075
0.00462223
0.00258145
0.0394811
0.0379874
0.0370566
0.0367079
0.0367197
0.0368591
0.0369893
0.0370716
0.037124
0.0371808
0.0372694
0.0374036
0.037586
0.0378129
0.0380775
0.0383733
0.0386941
0.0390354
0.0393944
0.0397708
0.0401649
0.0405763
0.041003
0.0414411
0.0418861
0.0423318
0.0427703
0.0431921
0.0435853
0.0439358
0.0442297
0.0444417
0.0445665
0.0445667
0.0444485
0.0441601
0.0437132
0.0430372
0.0421806
0.041064
0.0398405
0.0384816
0.0371266
0.0358553
0.0346822
0.0335947
0.0323981
0.0314036
0.0300017
0.0284444
0.0264444
0.0242177
0.0216061
0.0176748
0.0137801
0.00966019
0.00675376
0.00470285
0.00445271
0.00236489
0.0432183
0.0418182
0.0408839
0.0404436
0.0403157
0.0403022
0.0402832
0.0402226
0.0401345
0.0400488
0.0399904
0.0399726
0.0399992
0.0400674
0.0401727
0.0403099
0.0404741
0.0406614
0.0408693
0.0410966
0.0413428
0.0416069
0.0418866
0.0421776
0.0424745
0.0427711
0.0430597
0.043332
0.0435782
0.0437848
0.0439418
0.0440269
0.0440365
0.0439371
0.043735
0.0433835
0.0429032
0.0422295
0.0414214
0.040406
0.0393027
0.0380847
0.0368385
0.035626
0.0344298
0.0333093
0.0320421
0.0309338
0.0294808
0.0278762
0.0259457
0.0237208
0.0212371
0.0177088
0.0141744
0.0105578
0.0075959
0.00534986
0.00420406
0.00208137
0.0466905
0.0453813
0.0444538
0.0439418
0.0436979
0.0435552
0.0434095
0.0432275
0.0430202
0.0428132
0.0426285
0.0424785
0.0423674
0.0422936
0.0422538
0.0422441
0.0422607
0.0423002
0.04236
0.0424389
0.0425359
0.0426498
0.0427785
0.0429181
0.0430642
0.0432108
0.0433524
0.0434801
0.0435879
0.0436603
0.0436932
0.0436613
0.0435677
0.0433766
0.0431016
0.0426946
0.0421856
0.0415117
0.0407334
0.0397869
0.0387563
0.0376308
0.0364471
0.0352798
0.0340672
0.032931
0.0316251
0.0304173
0.0289524
0.0273027
0.0254437
0.0232204
0.0208451
0.0176557
0.014387
0.0111623
0.00818528
0.00582643
0.00405001
0.00180871
0.0500184
0.048794
0.0478781
0.0473075
0.0469642
0.0467092
0.0464534
0.0461665
0.0458566
0.0455452
0.0452517
0.0449872
0.0447561
0.044558
0.0443903
0.0442505
0.0441355
0.0440425
0.0439693
0.0439146
0.0438774
0.0438565
0.0438494
0.0438526
0.0438614
0.0438702
0.0438735
0.0438634
0.0438347
0.0437747
0.0436799
0.04353
0.0433278
0.0430427
0.0426892
0.0422229
0.0416765
0.0409916
0.0402248
0.0393201
0.0383416
0.0372783
0.036147
0.0350112
0.0337903
0.0326289
0.031286
0.0300076
0.0285076
0.0268368
0.0250043
0.022803
0.0204983
0.0175938
0.0145332
0.0115952
0.00864341
0.00619366
0.00408171
0.00166775
0.0529616
0.0518154
0.050915
0.0502987
0.0498725