/*--------------------------------*- C++ -*----------------------------------*\
| =========                 |                                                 |
| \\      /  F ield         | OpenFOAM: The Open Source CFD Toolbox           |
|  \\    /   O peration     | Version:  2312                                  |
|   \\  /    A nd           | Website:  www.openfoam.com                      |
|    \\/     M anipulation  |                                                 |
\*---------------------------------------------------------------------------*/
FoamFile
{
    version     2.0;
    format      ascii;
    arch        "LSB;label=32;scalar=64";
    class       volVectorField;
    location    "11.5";
    object      U;
}
// * * * * * * * * * * * * * * * * * * * * * * * * * * * * * * * * * * * * * //

dimensions      [0 1 -1 0 0 0 0];

internalField   nonuniform List<vector> 
13248
(
(-0.0127722 0.00895152 4.23912e-20)
(-0.0296727 0.0219651 0)
(-0.0340762 0.0314904 -7.30033e-20)
(-0.0224329 0.0387087 6.75968e-20)
(0.00758203 0.0437412 6.18185e-20)
(0.0579143 0.0466433 0)
(0.130127 0.0479863 0)
(0.224885 0.0487466 1.44811e-19)
(0.341001 0.049912 8.36543e-22)
(0.474774 0.0520676 -1.2622e-19)
(0.61996 0.0552433 1.20525e-19)
(0.768518 0.0589099 -7.5144e-20)
(0.911759 0.0621222 0)
(1.04155 0.0637619 -1.36796e-19)
(1.15128 0.0627923 2.55622e-19)
(1.23669 0.0585285 -6.16333e-20)
(1.29611 0.0506717 -1.10412e-19)
(1.33085 0.0395543 1.02941e-19)
(1.34488 0.0260926 0)
(1.34337 0.00988929 0)
(1.33368 -0.00343039 0)
(1.32007 -0.0264299 0)
(1.30628 -0.028882 2.94644e-20)
(1.29406 -0.0717366 1.05391e-19)
(-0.0166382 0.0106772 -1.27369e-19)
(-0.0316745 0.0201822 8.01835e-20)
(-0.0279388 0.0232856 -6.3575e-22)
(-0.00223211 0.0239481 -1.02237e-19)
(0.04842 0.023971 -6.17339e-20)
(0.12643 0.024542 -5.72654e-20)
(0.232456 0.02678 -1.04341e-19)
(0.363895 0.0314873 9.71809e-20)
(0.514234 0.0388781 0)
(0.673708 0.0483734 -3.16141e-22)
(0.831054 0.0586837 -1.30449e-21)
(0.975549 0.0681165 7.35162e-20)
(1.09866 0.0749922 0)
(1.19507 0.0780051 0)
(1.26311 0.0765301 9.08241e-20)
(1.30458 0.0705867 -1.69656e-19)
(1.32418 0.0610096 1.01738e-19)
(1.32838 0.0487678 -9.48582e-20)
(1.32358 0.0351274 -4.11593e-20)
(1.31563 0.0212579 -7.63738e-20)
(1.30697 0.00686766 -3.10113e-20)
(1.29906 -0.00608086 -5.87026e-20)
(1.29015 -0.0177834 8.52994e-20)
(1.28094 -0.0338185 2.38616e-20)
(-0.0194737 0.0118637 0)
(-0.0289196 0.0191663 0)
(-0.0104646 0.0189089 3.67379e-20)
(0.0381415 0.0164626 3.33409e-20)
(0.119491 0.0149955 -7.34169e-22)
(0.234223 0.0166505 -5.8853e-20)
(0.37859 0.0226526 0)
(0.543236 0.0331106 -4.84764e-20)
(0.714572 0.0468833 4.50926e-20)
(0.877964 0.0618599 -1.94637e-22)
(1.02096 0.075562 -7.74731e-20)
(1.13541 0.0858035 -7.18357e-20)
(1.21823 0.0911773 3.41151e-22)
(1.27109 0.0912918 -6.08279e-20)
(1.29929 0.0866602 1.43548e-19)
(1.31007 0.0784461 0)
(1.31074 0.0680276 -9.43769e-20)
(1.30685 0.0563611 4.60062e-20)
(1.3018 0.0448934 4.1119e-20)
(1.29616 0.0322774 0)
(1.28973 0.0225296 3.35487e-20)
(1.28161 0.00847754 -1.12572e-19)
(1.27142 0.00298719 1.05127e-19)
(1.26075 -0.0136638 6.51119e-20)
(-0.0200493 0.0114666 -4.41133e-20)
(-0.0190462 0.0162262 -4.20942e-20)
(0.0207277 0.0143788 3.77846e-20)
(0.100081 0.011687 0)
(0.219419 0.0122236 0)
(0.374224 0.018455 -1.01069e-21)
(0.552398 0.0308701 0)
(0.735995 0.0478938 -1.47113e-19)
(0.906391 0.0665358 1.35489e-19)
(1.04928 0.0834853 -1.66286e-19)
(1.15729 0.0961163 3.84176e-20)
(1.23006 0.103066 0)
(1.27268 0.104314 6.37724e-20)
(1.29325 0.100838 -1.17703e-19)
(1.30019 0.0940666 2.80967e-20)
(1.30022 0.0853791 7.31137e-20)
(1.2973 0.0756421 -2.32215e-21)
(1.29308 0.0656454 -7.9299e-20)
(1.28755 0.0550701 0)
(1.28068 0.0450381 0)
(1.27251 0.0344523 -2.85693e-20)
(1.2637 0.0240921 2.55738e-20)
(1.25464 0.0169679 9.2607e-20)
(1.24668 0.00234972 -8.64558e-20)
(-0.0176721 0.00944692 -4.60757e-20)
(-0.000242735 0.0107748 -4.26691e-20)
(0.0677362 0.00863822 1.17927e-19)
(0.184674 0.00856299 -7.08592e-20)
(0.345667 0.0148149 6.56377e-20)
(0.536464 0.0289504 1.18064e-19)
(0.734204 0.0491907 -8.21182e-20)
(0.915031 0.0715348 -9.85486e-20)
(1.0619 0.0916839 1.72694e-21)
(1.1679 0.10656 1.24367e-19)
(1.2353 0.11493 0)
(1.27219 0.117213 3.35997e-20)
(1.2886 0.114801 0)
(1.29334 0.109291 -5.56069e-20)
(1.29233 0.101974 7.80099e-20)
(1.28863 0.0936079 1.30325e-21)
(1.28344 0.0847007 -2.03413e-20)
(1.27714 0.0752659 3.91462e-20)
(1.27018 0.0658883 3.29808e-20)
(1.26293 0.0561157 -2.96083e-20)
(1.25569 0.047089 2.85567e-20)
(1.24852 0.0375508 -2.55623e-20)
(1.24089 0.0304468 0)
(1.23356 0.0188521 -1.88274e-20)
(-0.0118321 0.00631432 4.60641e-20)
(0.0292137 0.00389093 4.45821e-20)
(0.132642 0.00332655 -3.9508e-20)
(0.292118 0.0093114 7.25362e-20)
(0.492508 0.0248958 -6.71881e-20)
(0.706228 0.0486331 6.00049e-20)
(0.902438 0.0753765 -2.83148e-20)
(1.05935 0.0994734 7.39019e-20)
(1.16931 0.117181 -4.56705e-20)
(1.2365 0.127351 8.01759e-20)
(1.27151 0.13084 -1.83165e-19)
(1.28596 0.129437 6.63139e-20)
(1.28909 0.124908 -5.8866e-20)
(1.28671 0.118533 5.48e-20)
(1.28181 0.111049 4.78502e-20)
(1.27581 0.102901 4.23774e-20)
(1.26936 0.0942684 -1.1653e-19)
(1.26286 0.085501 7.22979e-20)
(1.25636 0.0765173 -3.29761e-20)
(1.24976 0.0677937 8.55638e-20)
(1.24284 0.0590247 -2.7572e-20)
(1.23545 0.0504322 -6.66177e-20)
(1.22766 0.0431792 6.12595e-20)
(1.2201 0.0326144 1.88219e-20)
(-0.001884 0.00273218 0)
(0.0709133 -0.00252979 4.18402e-22)
(0.216432 0.00143585 8.2378e-20)
(0.419206 0.0172804 -7.58671e-20)
(0.648728 0.0443212 -6.75176e-20)
(0.865694 0.0763798 1.23519e-19)
(1.04024 0.105833 -5.65193e-20)
(1.16138 0.127694 7.40935e-20)
(1.23394 0.140606 -1.63454e-21)
(1.27058 0.145787 -4.08777e-20)
(1.28472 0.145457 8.90662e-20)
(1.28669 0.141674 -1.29837e-19)
(1.28292 0.135875 0)
(1.27684 0.128899 -2.52548e-20)
(1.27005 0.121226 -6.80206e-20)
(1.26318 0.113106 2.10032e-20)
(1.25638 0.104762 7.43886e-22)
(1.24956 0.096221 -4.73993e-20)
(1.24261 0.0877056 2.52335e-21)
(1.23553 0.0791285 5.44437e-20)
(1.22838 0.070719 -2.4658e-20)
(1.22133 0.0625764 -9.18538e-21)
(1.21424 0.0548675 2.8117e-20)
(1.20757 0.0458686 0)
(0.0129251 -0.000624106 0)
(0.125834 -0.00635488 2.26533e-20)
(0.317651 0.00607459 -1.07072e-19)
(0.558003 0.0348271 3.83573e-20)
(0.799725 0.072715 -3.55287e-20)
(1.00056 0.109331 -3.1713e-20)
(1.14169 0.137343 -5.5057e-20)
(1.22624 0.154521 2.71114e-20)
(1.26851 0.162237 2.33834e-20)
(1.28429 0.163238 0)
(1.28587 0.160094 5.20035e-20)
(1.28101 0.154609 -7.6493e-20)
(1.27379 0.147841 5.67329e-20)
(1.26603 0.140353 2.52662e-20)
(1.25835 0.132423 -2.05278e-20)
(1.25085 0.124216 -1.7354e-20)
(1.2435 0.115801 -1.65029e-20)
(1.23632 0.10732 4.80946e-20)
(1.22936 0.0987968 0)
(1.2226 0.0903951 2.42298e-20)
(1.21594 0.0821492 2.04878e-20)
(1.20919 0.0741282 -5.04382e-20)
(1.20228 0.0663049 -3.47117e-20)
(1.19539 0.0583323 3.17394e-20)
(0.033199 -0.00298648 -2.64489e-20)
(0.193698 -0.00537254 -1.01454e-21)
(0.431653 0.0196955 2.18265e-20)
(0.697328 0.0623601 5.99082e-20)
(0.932969 0.107939 1.68314e-20)
(1.10492 0.144773 -3.21767e-20)
(1.21024 0.168478 2.89711e-20)
(1.26364 0.180135 -2.49541e-20)
(1.28389 0.183089 4.3786e-20)
(1.28632 0.180699 1.85907e-20)
(1.28073 0.175386 -5.17563e-20)
(1.27231 0.168566 1.53136e-20)
(1.26332 0.160956 2.59815e-20)
(1.25452 0.152882 -1.27017e-20)
(1.24612 0.144516 0)
(1.23814 0.135958 1.90941e-20)
(1.23055 0.127322 3.21391e-20)
(1.22332 0.118666 5.61136e-21)
(1.21633 0.11009 -2.66076e-20)
(1.20948 0.10162 1.10657e-20)
(1.20268 0.0933256 0)
(1.19593 0.0852308 -8.6785e-21)
(1.18926 0.0772183 -8.37219e-21)
(1.18283 0.0698826 0)
(0.0591034 -0.0034828 0)
(0.272489 0.00249075 1.28375e-20)
(0.551058 0.0435513 2.34119e-20)
(0.826365 0.098624 -6.10188e-20)
(1.04174 0.147617 1.94194e-20)
(1.1799 0.181191 0)
(1.25273 0.199097 2.74469e-20)
(1.28203 0.205214 -3.77083e-20)
(1.28732 0.203995 -2.17409e-20)
(1.28164 0.198819 9.81869e-21)
(1.27205 0.191697 -1.53e-20)
(1.26165 0.183635 3.68955e-20)
(1.25158 0.175085 1.85693e-20)
(1.24213 0.166258 -1.27399e-20)
(1.23332 0.157275 -1.07944e-21)
(1.22507 0.148228 -3.48899e-20)
(1.2173 0.139179 1.582e-20)
(1.20994 0.130198 -5.2347e-22)
(1.20295 0.121326 0)
(1.19627 0.112637 -1.10767e-20)
(1.18981 0.104169 0)
(1.18344 0.0958689 2.48694e-20)
(1.17711 0.0878102 -2.93996e-20)
(1.17079 0.0808436 1.33415e-20)
(0.0902142 -0.00118076 -7.355e-21)
(0.358436 0.0188716 -3.25936e-20)
(0.667459 0.0775314 3.64962e-20)
(0.93759 0.141677 2.07528e-20)
(1.12461 0.19002 -9.85845e-21)
(1.2296 0.218014 1.5699e-20)
(1.27557 0.229525 -7.60366e-21)
(1.28736 0.230425 1.22476e-20)
(1.28294 0.225558 0)
(1.27245 0.217938 2.69315e-20)
(1.26058 0.209099 -1.05111e-21)
(1.24906 0.199724 -2.1368e-20)
(1.23835 0.190101 9.11902e-21)
(1.22849 0.180367 -1.02498e-20)
(1.21937 0.170607 -3.88906e-21)
(1.21093 0.160884 4.48011e-21)
(1.2031 0.151265 -3.41058e-21)
(1.19581 0.141795 -1.87393e-20)
(1.18896 0.132531 1.1378e-20)
(1.18243 0.123511 2.30822e-21)
(1.17607 0.114727 2.02921e-21)
(1.16984 0.106148 1.78466e-21)
(1.16374 0.0979782 0)
(1.1578 0.0908654 0)
(0.125532 0.00480796 7.36392e-21)
(0.446595 0.0446637 -6.79589e-21)
(0.773521 0.120499 -1.21781e-20)
(1.02729 0.189665 0)
(1.18306 0.2341 -4.84847e-21)
(1.25847 0.255133 -4.2012e-21)
(1.28353 0.260152 -6.97014e-21)
(1.28317 0.256212 0)
(1.27265 0.24802 0)
(1.25939 0.238066 0)
(1.24627 0.227453 0)
(1.23412 0.216626 0)
(1.22305 0.20576 -5.65941e-21)
(1.21296 0.194944 2.54647e-21)
(1.20375 0.184242 4.45527e-21)
(1.19533 0.173708 2.08949e-21)
(1.18758 0.163385 5.10197e-21)
(1.18044 0.153303 0)
(1.17379 0.143499 -1.21187e-21)
(1.16753 0.134 -1.18122e-21)
(1.16156 0.124784 -2.03241e-21)
(1.15581 0.115847 -1.78747e-21)
(1.15022 0.107496 0)
(1.14477 0.100042 1.26273e-21)
(-0.0129939 0.0432847 4.04733e-21)
(-0.053632 0.0799605 -3.94881e-21)
(-0.115372 0.0914511 -7.50273e-21)
(-0.178764 0.0920605 0)
(-0.238987 0.088795 -1.05138e-20)
(-0.296043 0.0842044 3.26331e-21)
(-0.3499 0.0788616 -6.74531e-21)
(-0.400434 0.0728078 0)
(-0.447498 0.0660442 0)
(-0.490903 0.0586106 0)
(-0.53045 0.0505817 0)
(-0.565956 0.0420571 0)
(-0.597275 0.0331441 2.7286e-23)
(-0.624274 0.0239431 -5.69644e-21)
(-0.646817 0.0145678 1.13751e-20)
(-0.664768 0.00516854 1.63023e-20)
(-0.678103 -0.00411984 5.29543e-21)
(-0.686859 -0.0131872 0)
(-0.691063 -0.0219594 4.50449e-21)
(-0.690734 -0.0303855 -1.27073e-20)
(-0.685969 -0.0384041 -7.84872e-21)
(-0.67706 -0.0459188 -7.18626e-21)
(-0.664106 -0.0528449 0)
(-0.647221 -0.0591805 0)
(-0.0156016 0.0735744 -1.2459e-20)
(-0.053625 0.139929 1.9953e-20)
(-0.107916 0.162847 -7.65457e-21)
(-0.163503 0.165961 -1.50403e-20)
(-0.2161 0.161681 2.09225e-20)
(-0.265379 0.154931 -1.43671e-20)
(-0.31111 0.146964 2.00647e-20)
(-0.353063 0.137882 1.3824e-20)
(-0.391033 0.127637 0)
(-0.424806 0.116237 -1.36728e-20)
(-0.454185 0.103757 -1.38347e-21)
(-0.479001 0.0903174 1.18205e-20)
(-0.49913 0.0760829 1.86339e-20)
(-0.514492 0.0612552 2.43302e-20)
(-0.525033 0.0460474 -1.06684e-20)
(-0.530737 0.0306573 -3.26139e-20)
(-0.531645 0.0152426 1.07362e-20)
(-0.527857 -3.6938e-05 -3.96629e-20)
(-0.519514 -0.0150452 0)
(-0.506706 -0.0296864 8.48974e-21)
(-0.489471 -0.043936 7.83447e-21)
(-0.468028 -0.05795 7.17313e-21)
(-0.442309 -0.0714632 0)
(-0.413345 -0.0845063 0)
(-0.0194873 0.094035 0)
(-0.0545181 0.18583 4.33492e-20)
(-0.0982498 0.221771 -1.60446e-20)
(-0.142382 0.229612 1.57451e-20)
(-0.183777 0.225692 -4.46134e-20)
(-0.221778 0.217434 0)
(-0.255907 0.207168 -2.94692e-20)
(-0.285806 0.195286 1.35496e-20)
(-0.311223 0.181781 -2.81743e-20)
(-0.331951 0.166674 1.42771e-20)
(-0.347829 0.150061 8.20171e-20)
(-0.358746 0.132103 -3.81759e-20)
(-0.364641 0.113008 -6.44411e-20)
(-0.365506 0.0930239 -2.66396e-20)
(-0.361382 0.0724212 -1.36629e-21)
(-0.352355 0.051467 9.0401e-20)
(-0.33856 0.0304144 -4.25872e-20)
(-0.320169 0.00949427 -4.51825e-22)
(-0.297389 -0.0110895 0)
(-0.270452 -0.031238 -3.56091e-20)
(-0.240041 -0.0509638 0)
(-0.205649 -0.070342 -2.8844e-20)
(-0.167403 -0.0887223 1.0856e-19)
(-0.121529 -0.10734 -1.72547e-21)
(-0.0232698 0.10249 0)
(-0.0554143 0.213067 9.50799e-22)
(-0.087141 0.263384 1.74489e-20)
(-0.117614 0.278954 -1.72545e-20)
(-0.145505 0.277674 1.39752e-20)
(-0.170051 0.269212 9.16514e-20)
(-0.19056 0.257416 -2.89159e-20)
(-0.206546 0.243331 -2.93906e-20)
(-0.217717 0.227148 5.69435e-20)
(-0.223903 0.208953 -8.51698e-20)
(-0.225013 0.188887 2.63802e-20)
(-0.22103 0.167158 2.6876e-20)
(-0.211999 0.144024 0)
(-0.198025 0.119784 2.48635e-20)
(-0.179278 0.094771 0)
(-0.155981 0.0693179 4.61285e-20)
(-0.12841 0.0437584 -8.78964e-20)
(-0.0968503 0.0183524 1.97993e-20)
(-0.0618569 -0.00669314 7.69933e-20)
(-0.0235703 -0.0314131 3.55607e-20)
(0.0163936 -0.0556365 0)
(0.0624554 -0.0795378 -9.02547e-20)
(0.103603 -0.102781 2.83355e-20)
(0.167705 -0.126269 0)
(-0.0256355 0.0991202 0)
(-0.0552436 0.219509 -5.68841e-20)
(-0.0752926 0.28404 -1.8104e-20)
(-0.0915687 0.310343 -3.42635e-20)
(-0.104931 0.314711 3.1748e-20)
(-0.115011 0.308107 -3.07825e-20)
(-0.121051 0.296061 6.22685e-20)
(-0.122471 0.280691 3.24118e-20)
(-0.118936 0.262673 -8.52807e-20)
(-0.110309 0.242276 5.81217e-20)
(-0.0965911 0.219724 -8.31228e-20)
(-0.077892 0.195282 1.89399e-19)
(-0.0544086 0.169261 -1.02358e-19)
(-0.0263967 0.142009 4.99929e-20)
(0.00581935 0.113886 1.45791e-19)
(0.0418467 0.0852847 -4.41934e-20)
(0.0811432 0.0565724 -4.21127e-20)
(0.123452 0.0281558 -4.11394e-20)
(0.167468 0.000185677 0)
(0.215638 -0.0270664 -7.14898e-20)
(0.260244 -0.0538744 -6.50297e-20)
(0.319189 -0.0797695 9.27313e-20)
(0.356162 -0.106598 1.09754e-19)
(0.439592 -0.13227 -1.0228e-19)
(-0.0256889 0.0863571 0)
(-0.0530564 0.206058 -7.90312e-20)
(-0.0634171 0.281802 -1.18843e-21)
(-0.0667647 0.320433 6.82547e-20)
(-0.0659933 0.333569 0)
(-0.0615932 0.331625 0)
(-0.0531886 0.321259 0)
(-0.0402608 0.305881 -3.13535e-20)
(-0.0224602 0.287021 -2.75402e-21)
(0.000319925 0.265376 5.49448e-20)
(0.0279785 0.241366 -8.55212e-20)
(0.0602543 0.215352 -1.72339e-21)
(0.096756 0.187703 0)
(0.136963 0.158804 -4.99577e-20)
(0.180401 0.128856 4.81453e-20)
(0.226466 0.0985194 -1.33877e-19)
(0.274367 0.0681932 1.71655e-19)
(0.324625 0.0385195 4.08606e-20)
(0.373721 0.00876469 1.94681e-22)
(0.430236 -0.0193862 -1.41184e-19)
(0.475078 -0.0488437 -6.42016e-20)
(0.547498 -0.0761442 2.07971e-19)
(0.579846 -0.106336 -1.37222e-19)
(0.681974 -0.134958 0)
(-0.0233263 0.0681348 4.27996e-20)
(-0.0484227 0.176906 3.96326e-20)
(-0.0522517 0.257594 -3.70315e-20)
(-0.0456799 0.307043 -6.99745e-20)
(-0.0328555 0.330608 6.48305e-20)
(-0.0152862 0.336073 -6.36679e-20)
(0.00662576 0.329918 8.86875e-20)
(0.0329671 0.316417 -3.16609e-20)
(0.063881 0.298041 5.51337e-20)
(0.0993407 0.276164 0)
(0.139096 0.25159 5.42972e-20)
(0.182708 0.224862 -9.83481e-20)
(0.229631 0.196416 1.00775e-19)
(0.278796 0.166568 -9.38026e-20)
(0.329761 0.13612 0)
(0.382361 0.105731 8.67445e-20)
(0.435668 0.0751203 1.64139e-19)
(0.49114 0.0454663 -1.54776e-19)
(0.544673 0.0143959 -7.12117e-20)
(0.608703 -0.0138072 -6.92488e-20)
(0.658656 -0.0463188 1.90757e-19)
(0.745007 -0.0739154 5.58294e-20)
(0.781016 -0.108293 -5.32423e-20)
(0.902676 -0.13763 4.64978e-20)
(-0.0192006 0.0487536 -4.28102e-20)
(-0.0417081 0.139048 1.20478e-19)
(-0.0424812 0.216401 -3.72428e-20)
(-0.0303141 0.271325 6.93669e-20)
(-0.00933362 0.303524 -6.42653e-20)
(0.0182618 0.31711 -1.71094e-21)
(0.0511848 0.317015 2.79236e-20)
(0.0887602 0.307385 1.11675e-19)
(0.130579 0.29119 4.06565e-21)
(0.176218 0.270404 -5.1611e-20)
(0.22511 0.246311 0)
(0.276617 0.219641 -4.89699e-20)
(0.330053 0.191258 9.20694e-20)
(0.385118 0.162081 9.1389e-20)
(0.441645 0.132667 -4.32701e-20)
(0.49933 0.10304 -2.41504e-21)
(0.558973 0.0727712 -4.01989e-20)
(0.622116 0.0434478 7.17393e-20)
(0.688113 0.0116851 7.12152e-20)
(0.763839 -0.0161426 -6.63931e-20)
(0.832843 -0.0510948 5.82079e-20)
(0.931286 -0.0765852 -5.34065e-20)
(0.983301 -0.114496 0)
(1.11239 -0.138858 -4.64951e-20)
(-0.0144928 0.0317197 4.29303e-20)
(-0.03423 0.100342 -4.02147e-20)
(-0.0348954 0.166753 3.68383e-20)
(-0.0216185 0.219522 0)
(0.00257988 0.254921 0)
(0.035427 0.273807 5.83379e-20)
(0.0750232 0.278992 -5.567e-20)
(0.119927 0.273671 5.36616e-20)
(0.169051 0.260657 -2.54196e-19)
(0.221522 0.242145 -1.72477e-21)
(0.27647 0.219727 4.57678e-20)
(0.333543 0.19486 0)
(0.392965 0.168741 -8.91728e-20)
(0.455065 0.141866 1.6868e-19)
(0.520794 0.114322 -1.21632e-19)
(0.591313 0.0862989 -1.96354e-19)
(0.668067 0.0580427 -2.52801e-21)
(0.750815 0.0300306 1.33823e-19)
(0.840692 0.00054729 0)
(0.933473 -0.0255439 0)
(1.02655 -0.0581247 -5.82266e-20)
(1.12271 -0.0788202 5.34238e-20)
(1.18949 -0.115785 -1.84055e-19)
(1.28863 -0.130201 1.71552e-19)
(-0.0105888 0.0190824 0)
(-0.0280463 0.0671269 0)
(-0.0305707 0.118 -1.10163e-19)
(-0.0195276 0.161692 3.40387e-20)
(0.0035961 0.193531 8.6749e-23)
(0.0369795 0.212463 5.65084e-20)
(0.0786193 0.219559 0)
(0.12676 0.216893 -5.0097e-20)
(0.180087 0.206782 4.97579e-20)
(0.237906 0.191348 -9.13644e-20)
(0.300312 0.172585 -1.79679e-21)
(0.367864 0.15188 8.6893e-20)
(0.441582 0.129922 2.84627e-21)
(0.522846 0.107201 8.29997e-20)
(0.612385 0.0843469 -1.12876e-19)
(0.710131 0.0611118 0)
(0.81417 0.0385509 1.38983e-19)
(0.921555 0.0151238 -1.96972e-19)
(1.0286 -0.0072892 5.86208e-20)
(1.12783 -0.0298198 0)
(1.21942 -0.0541737 4.9788e-20)
(1.28982 -0.0715256 1.87511e-19)
(1.34373 -0.102399 -1.75096e-19)
(1.37917 -0.109774 -1.84864e-19)
(-0.00874387 0.0114986 1.26981e-19)
(-0.0251925 0.0429124 -1.5961e-19)
(-0.0303271 0.0773229 6.45924e-22)
(-0.0226659 0.108046 3.37897e-20)
(-0.00228099 0.131308 -6.14926e-20)
(0.0298715 0.145604 -5.7419e-20)
(0.07248 0.151167 1.05759e-19)
(0.124543 0.149361 2.47477e-21)
(0.185743 0.142014 -9.21491e-20)
(0.256485 0.130961 1.78189e-19)
(0.337692 0.117805 4.37948e-21)
(0.430232 0.103503 -7.97749e-20)
(0.533965 0.0888147 0)
(0.64744 0.0740919 0)
(0.767536 0.0596145 -3.69779e-20)
(0.889888 0.0447455 -6.61503e-20)
(1.00865 0.0302938 -1.29511e-19)
(1.11868 0.0137457 1.20731e-19)
(1.21332 -0.00122675 -5.86743e-20)
(1.28953 -0.0207023 1.02758e-19)
(1.34347 -0.0370258 -5.20751e-20)
(1.37307 -0.0563215 8.22946e-20)
(1.3861 -0.079003 -1.95377e-19)
(1.37086 -0.0872592 3.66184e-20)
(-0.00961996 0.00856713 4.23202e-20)
(-0.026319 0.0284002 0)
(-0.0329669 0.0484232 7.28127e-20)
(-0.0264851 0.0660168 -6.74197e-20)
(-0.00570954 0.0792606 6.15804e-20)
(0.0297833 0.0872455 0)
(0.0803186 0.0901632 0)
(0.146428 0.0890232 -4.83388e-20)
(0.22879 0.0852283 -1.27876e-21)
(0.327621 0.0801312 4.14698e-20)
(0.441851 0.0747039 -4.12692e-20)
(0.568629 0.0694469 7.70196e-20)
(0.703218 0.0644325 0)
(0.839458 0.0593298 1.44187e-19)
(0.970507 0.0535762 -2.70836e-19)
(1.08957 0.046402 1.93454e-19)
(1.19093 0.0375501 1.19879e-19)
(1.27008 0.0256931 -1.1176e-19)
(1.32515 0.0132324 0)
(1.35641 -0.00488208 0)
(1.36596 -0.0178618 0)
(1.36093 -0.0418135 0)
(1.34473 -0.0540594 3.69277e-20)
(1.32561 -0.071934 -1.23039e-19)
(-0.622677 -0.0664534 -3.62601e-21)
(-0.596331 -0.0752891 3.63286e-21)
(-0.55355 -0.082488 -9.62445e-23)
(-0.50634 -0.090333 0)
(-0.444816 -0.0964898 -1.76771e-21)
(-0.37482 -0.102143 2.95832e-21)
(-0.292373 -0.106512 -4.67593e-22)
(-0.199804 -0.109444 -7.16858e-22)
(-0.0976387 -0.110357 0)
(0.0106346 -0.108631 0)
(0.121036 -0.104764 3.07039e-23)
(0.228884 -0.0987336 4.07977e-23)
(0.330273 -0.0910225 8.1596e-22)
(0.422291 -0.0826582 -7.48136e-22)
(0.503241 -0.074356 0)
(0.572595 -0.0663879 0)
(0.630907 -0.0590908 -5.58454e-22)
(0.679485 -0.0526383 5.43325e-23)
(0.719935 -0.0469868 4.46336e-22)
(0.753803 -0.0420574 2.4037e-23)
(0.782393 -0.0377765 0)
(0.806777 -0.0340694 0)
(0.827859 -0.0308322 0)
(0.846399 -0.0279113 0)
(0.862982 -0.0252262 0)
(0.877995 -0.0227192 0)
(0.891672 -0.0203357 -5.13391e-23)
(0.904109 -0.0179871 8.37641e-23)
(0.915295 -0.0155831 0)
(0.925159 -0.0131086 0)
(0.933643 -0.0106444 4.19493e-23)
(0.940777 -0.00830021 -4.07611e-23)
(0.9467 -0.00613223 -1.73042e-23)
(0.951622 -0.00410989 0)
(0.955763 -0.00215264 0)
(0.959297 -0.000173967 -2.331e-23)
(0.962362 0.00184002 2.26554e-23)
(0.965047 0.00389884 0)
(0.967412 0.00600208 -1.68377e-23)
(0.969484 0.00816798 2.43038e-23)
(0.971326 0.0103428 -7.15981e-24)
(0.972932 0.0126448 0)
(0.974393 0.014854 1.12136e-23)
(0.97565 0.0174365 -1.09035e-23)
(0.976844 0.0195503 0)
(0.977837 0.0227578 0)
(0.978835 0.0244061 3.79761e-24)
(0.979641 0.0288742 -1.08821e-23)
(0.980473 0.0294413 0)
(0.981163 0.035882 0)
(0.981856 0.0350458 2.51343e-24)
(0.982447 0.0434125 4.18705e-26)
(0.983087 0.0420251 2.08065e-25)
(0.983553 0.0511684 -1.7389e-24)
(0.984171 0.0504684 0)
(0.984655 0.0601413 0)
(0.985061 0.0595908 0)
(0.985786 0.0709378 0)
(0.985972 0.0703225 0)
(0.986855 0.0829602 0)
(-0.378649 -0.0989497 -3.81982e-22)
(-0.358573 -0.119996 -1.37258e-20)
(-0.317182 -0.136949 1.64101e-21)
(-0.2742 -0.154403 1.1271e-20)
(-0.218779 -0.171117 1.39215e-22)
(-0.155305 -0.185393 0)
(-0.0825514 -0.198457 -3.3791e-21)
(-0.000849513 -0.207681 4.9274e-21)
(0.0899042 -0.212252 -1.54451e-21)
(0.185378 -0.210874 -1.29869e-21)
(0.280846 -0.20303 1.23029e-21)
(0.372689 -0.188934 -2.65676e-21)
(0.457599 -0.170206 2.56246e-21)
(0.533274 -0.149403 8.47073e-23)
(0.598879 -0.129176 2.68758e-21)
(0.65442 -0.110741 -2.61001e-21)
(0.700452 -0.0946116 2.17236e-21)
(0.738263 -0.0809856 -2.04867e-21)
(0.769393 -0.0697061 1.69421e-21)
(0.795252 -0.0604267 -3.09265e-21)
(0.816984 -0.0527986 1.40835e-21)
(0.835493 -0.0465315 7.1512e-23)
(0.85152 -0.0413553 9.55427e-22)
(0.865679 -0.0369856 -1.7619e-21)
(0.878441 -0.0331888 8.09978e-22)
(0.890131 -0.0297911 -4.18681e-23)
(0.900952 -0.0266456 -5.79469e-22)
(0.911004 -0.0235916 3.52292e-23)
(0.920288 -0.0204894 9.14939e-22)
(0.928716 -0.0173065 -8.0721e-22)
(0.936175 -0.0141447 3.7341e-22)
(0.942611 -0.0111604 -3.95304e-23)
(0.948075 -0.00845125 1.73407e-23)
(0.952704 -0.00600417 -3.12085e-23)
(0.956665 -0.00372913 0)
(0.96009 -0.00151319 0)
(0.963086 0.000727246 8.5008e-23)
(0.965733 0.00296193 -6.26402e-23)
(0.968086 0.00520842 -5.07061e-23)
(0.970159 0.00749385 -3.09447e-24)
(0.972007 0.0097674 6.73391e-23)
(0.973625 0.0121526 -1.31999e-23)
(0.975096 0.0144273 0)
(0.976367 0.0170699 0)
(0.977573 0.0192234 0)
(0.978582 0.0224808 0)
(0.979598 0.0241461 -1.61912e-23)
(0.980416 0.0286635 7.19587e-24)
(0.981278 0.0292294 0)
(0.981974 0.0357152 0)
(0.982708 0.0348778 0)
(0.983313 0.0432659 4.37042e-24)
(0.983982 0.0418972 -3.62359e-25)
(0.984494 0.0510364 3.65312e-24)
(0.985117 0.0503564 0)
(0.985673 0.0600336 0)
(0.986087 0.0594825 -1.81778e-24)
(0.986885 0.0708357 -4.33183e-24)
(0.987082 0.0702247 0)
(0.988058 0.0828619 0)
(-0.084398 -0.125609 -1.80778e-21)
(-0.0626518 -0.152688 -3.16625e-20)
(-0.0268144 -0.180071 2.56173e-20)
(0.0117956 -0.205094 -2.39189e-20)
(0.0595441 -0.228922 -1.40188e-22)
(0.116218 -0.251146 0)
(0.179126 -0.271447 -8.5306e-21)
(0.248346 -0.286496 8.32227e-21)
(0.32272 -0.294295 1.60959e-23)
(0.399324 -0.293508 8.20675e-24)
(0.474249 -0.282434 -2.82721e-23)
(0.544086 -0.261536 -7.04758e-23)
(0.606599 -0.233734 5.06156e-21)
(0.660517 -0.202761 -5.00028e-21)
(0.705872 -0.17234 0)
(0.74378 -0.145155 -1.38914e-22)
(0.775083 -0.121872 4.1188e-21)
(0.80069 -0.102526 -4.06134e-21)
(0.821753 -0.0868197 0)
(0.839319 -0.0741793 0)
(0.854185 -0.0640016 2.55769e-21)
(0.866942 -0.0558013 -4.71671e-21)
(0.878073 -0.0491733 4.00363e-21)
(0.887975 -0.0437282 -2.34332e-22)
(0.896951 -0.0391263 -3.02724e-21)
(0.905214 -0.0351115 2.74238e-21)
(0.912929 -0.0314758 -2.30146e-21)
(0.920226 -0.0280026 1.6614e-22)
(0.927169 -0.0244938 9.67487e-22)
(0.933719 -0.0208734 0)
(0.939759 -0.0172383 0)
(0.945179 -0.0137791 -2.26066e-22)
(0.949946 -0.0106394 2.97175e-22)
(0.954111 -0.00783579 -3.67814e-25)
(0.957773 -0.00528192 -2.16242e-22)
(0.961023 -0.00285491 2.10117e-22)
(0.963908 -0.000427802 0)
(0.966481 0.00197415 -2.00652e-23)
(0.968796 0.00436252 -1.58321e-22)
(0.970855 0.00676965 2.95861e-22)
(0.972699 0.00914569 -1.22925e-22)
(0.974323 0.0116184 -1.3724e-23)
(0.9758 0.0139627 1.18005e-22)
(0.977084 0.0166687 -9.0972e-23)
(0.9783 0.0188648 -2.00823e-23)
(0.979324 0.0221743 -1.82152e-23)
(0.980358 0.0238586 1.62344e-23)
(0.981187 0.0284262 0)
(0.982081 0.028993 0)
(0.982781 0.0355242 4.77343e-23)
(0.983557 0.0346865 -2.26678e-23)
(0.984175 0.0430985 1.95709e-23)
(0.984873 0.0417459 -2.57841e-23)
(0.985433 0.0508871 -2.9152e-23)
(0.98606 0.0502227 6.73528e-24)
(0.986689 0.0599102 -1.05938e-23)
(0.98711 0.0593562 8.38244e-24)
(0.987983 0.0707209 -3.66807e-24)
(0.988191 0.0701122 0)
(0.98926 0.0827541 0)
(0.195911 -0.152754 -6.78452e-20)
(0.221189 -0.185256 5.43878e-21)
(0.252366 -0.217998 5.88165e-20)
(0.288654 -0.248819 -3.71482e-22)
(0.329991 -0.277315 0)
(0.377736 -0.305328 0)
(0.430974 -0.330149 -2.05732e-20)
(0.487963 -0.349235 7.04459e-21)
(0.546402 -0.359226 1.52234e-20)
(0.602797 -0.357217 -2.72651e-21)
(0.653998 -0.34192 -5.27042e-23)
(0.698137 -0.314511 3.29323e-21)
(0.734889 -0.278966 -3.26155e-21)
(0.764979 -0.240495 0)
(0.789376 -0.2029 4.3556e-21)
(0.809795 -0.169395 -3.96719e-21)
(0.827552 -0.14117 0)
(0.842961 -0.117983 0)
(0.856364 -0.0992728 -3.07583e-21)
(0.868162 -0.084309 2.5582e-22)
(0.878629 -0.0723381 2.57132e-21)
(0.887945 -0.0627481 2.20051e-21)
(0.896287 -0.0550482 -2.18918e-21)
(0.90383 -0.048782 1.70809e-21)
(0.910702 -0.0435436 -1.9624e-22)
(0.916988 -0.0390335 -1.41548e-21)
(0.922783 -0.035028 -1.48426e-22)
(0.928231 -0.0312906 -1.93408e-25)
(0.933468 -0.0275722 0)
(0.938542 -0.0237313 -7.88481e-22)
(0.943388 -0.019827 8.11606e-22)
(0.947898 -0.0160599 -4.04009e-23)
(0.952001 -0.0126132 0)
(0.955697 -0.00953805 3.19674e-23)
(0.959034 -0.00675847 -4.41108e-22)
(0.962072 -0.00414843 7.72117e-22)
(0.964817 -0.00157785 1.72792e-23)
(0.967292 0.000970253 -2.58827e-23)
(0.969549 0.0034889 -2.72275e-22)
(0.971578 0.00601138 -3.3254e-23)
(0.973407 0.00848727 2.33826e-22)
(0.975029 0.0110473 -2.0009e-22)
(0.976507 0.0134618 4.34365e-25)
(0.977801 0.0162326 -8.68399e-23)
(0.979026 0.0184727 1.04577e-22)
(0.980063 0.0218353 1.26993e-22)
(0.981115 0.0235407 -3.56312e-23)
(0.981954 0.0281587 -5.85983e-23)
(0.982881 0.0287286 1.0987e-22)
(0.983583 0.0353054 -7.59391e-23)
(0.984403 0.0344684 2.01802e-23)
(0.985032 0.042907 -2.32421e-23)
(0.98576 0.0415683 -1.94068e-23)
(0.986368 0.0507173 4.47701e-23)
(0.986998 0.0500647 -1.02381e-24)
(0.987701 0.0597686 1.08652e-23)
(0.98813 0.0592096 0)
(0.989078 0.0705915 3.63478e-24)
(0.989296 0.0699834 -5.22049e-24)
(0.990461 0.0826363 0)
(0.455083 -0.163896 6.95356e-20)
(0.477318 -0.20464 -1.30795e-19)
(0.506851 -0.242658 6.08315e-20)
(0.540379 -0.278673 4.82702e-20)
(0.57692 -0.314043 -8.73686e-20)
(0.617768 -0.347191 7.36477e-21)
(0.661716 -0.375767 3.11793e-20)
(0.705878 -0.396271 1.60498e-20)
(0.746598 -0.405132 -1.56637e-20)
(0.780307 -0.399647 0)
(0.805159 -0.379321 1.0676e-21)
(0.82174 -0.346425 -5.12008e-21)
(0.832102 -0.305626 4.00728e-21)
(0.839075 -0.262737 0)
(0.844653 -0.221915 0)
(0.850202 -0.185322 -1.23439e-22)
(0.856985 -0.154575 6.87257e-21)
(0.864925 -0.129493 -6.6723e-21)
(0.873356 -0.109219 0)
(0.881848 -0.0928756 -5.3874e-21)
(0.890106 -0.0796828 9.74784e-21)
(0.897921 -0.0690331 -8.70535e-21)
(0.905202 -0.0604405 7.86741e-21)
(0.911942 -0.0534356 -3.11089e-22)
(0.91814 -0.0475759 -6.18849e-21)
(0.923779 -0.0425385 2.90729e-21)
(0.928879 -0.038116 7.48834e-23)
(0.933558 -0.034092 9.47252e-22)
(0.937985 -0.0301904 -8.42246e-23)
(0.942273 -0.0261992 -8.73856e-22)
(0.946418 -0.0221152 -4.6273e-23)
(0.950343 -0.0181252 6.33336e-22)
(0.95398 -0.0144395 -1.17965e-21)
(0.957313 -0.0111443 6.14188e-22)
(0.960372 -0.00817974 0)
(0.963206 -0.00541775 4.56826e-22)
(0.965805 -0.00274998 -4.39907e-22)
(0.96817 -4.67739e-05 2.83955e-22)
(0.970348 0.00259547 -3.55045e-22)
(0.972331 0.00522745 3.46273e-23)
(0.974133 0.00780001 0)
(0.975745 0.0104462 2.82792e-23)
(0.977219 0.0129306 -7.63845e-23)
(0.978519 0.0157665 0)
(0.97975 0.0180512 -2.03472e-22)
(0.980799 0.0214674 8.11436e-23)
(0.981868 0.023195 -3.39948e-23)
(0.982715 0.0278633 -3.13127e-23)
(0.983675 0.028438 0)
(0.984379 0.0350605 0)
(0.985243 0.0342248 6.59386e-23)
(0.985884 0.0426922 -1.01103e-22)
(0.986641 0.041365 5.54058e-23)
(0.987299 0.0505274 -1.74809e-23)
(0.987931 0.0498831 -2.83216e-23)
(0.988709 0.0596087 -1.0877e-23)
(0.989145 0.059043 1.74933e-23)
(0.99017 0.0704473 0)
(0.990398 0.0698384 8.34591e-24)
(0.991662 0.0825081 1.96389e-24)
(0.69087 -0.171697 6.98882e-20)
(0.711157 -0.217504 -6.9077e-20)
(0.73988 -0.259043 4.68819e-22)
(0.769962 -0.298672 -4.12001e-22)
(0.80121 -0.33745 3.51986e-22)
(0.834433 -0.373636 -2.89257e-22)
(0.867055 -0.404092 4.76757e-22)
(0.895193 -0.424379 0)
(0.914798 -0.430331 -2.57703e-22)
(0.922864 -0.419964 1.62169e-22)
(0.919858 -0.394681 8.19414e-23)
(0.909699 -0.358163 2.32875e-23)
(0.896942 -0.315585 0)
(0.885358 -0.272191 0)
(0.877343 -0.231831 -7.2345e-23)
(0.873209 -0.195785 0)
(0.872835 -0.164691 8.59535e-23)
(0.875963 -0.139019 0)
(0.881434 -0.118121 5.24261e-21)
(0.888109 -0.101025 -1.00424e-20)
(0.895239 -0.0869652 9.17893e-21)
(0.902367 -0.0754215 -4.37205e-21)
(0.90925 -0.0659942 -3.63959e-21)
(0.915761 -0.0582546 3.53283e-21)
(0.921817 -0.0517476 2.99527e-21)
(0.927343 -0.0461296 -2.89959e-21)
(0.93231 -0.0412157 0)
(0.936799 -0.0368324 -6.6366e-23)
(0.940968 -0.0327027 0)
(0.944952 -0.0285514 0)
(0.948784 -0.0243014 -1.35376e-21)
(0.952413 -0.0201087 1.40571e-21)
(0.955784 -0.0162012 -7.52453e-23)
(0.958882 -0.0126984 -6.67545e-23)
(0.961735 -0.0095605 6.02502e-23)
(0.964385 -0.00666023 4.14285e-22)
(0.966854 -0.00389231 -4.02194e-22)
(0.969116 -0.00106823 3.78219e-22)
(0.971193 0.00168762 -3.25311e-22)
(0.973114 0.00442241 -7.05315e-23)
(0.974878 0.00708736 2.46123e-22)
(0.976472 0.00981799 1.31681e-23)
(0.977936 0.0123714 -1.64484e-22)
(0.979238 0.0152726 0)
(0.980472 0.0176023 8.55926e-23)
(0.981532 0.0210724 -1.11583e-22)
(0.982616 0.0228233 1.45695e-22)
(0.983471 0.0275417 3.15227e-23)
(0.984464 0.0281229 0)
(0.985168 0.0347907 -2.36657e-23)
(0.986077 0.0339572 4.8285e-23)
(0.986729 0.0424553 -3.32199e-25)
(0.987515 0.0411376 1.8618e-23)
(0.988224 0.0503183 -3.01626e-23)