/*--------------------------------*- C++ -*----------------------------------*\
| =========                 |                                                 |
| \\      /  F ield         | OpenFOAM: The Open Source CFD Toolbox           |
|  \\    /   O peration     | Version:  2512                                  |
|   \\  /    A nd           | Website:  www.openfoam.com                      |
|    \\/     M anipulation  |                                                 |
\*---------------------------------------------------------------------------*/
FoamFile
{
    version     2.0;
    format      ascii;
    arch        "LSB;label=32;scalar=64";
    class       surfaceScalarField;
    location    "84.15";
    object      phi;
}
// * * * * * * * * * * * * * * * * * * * * * * * * * * * * * * * * * * * * * //

dimensions      [0 3 -1 0 0 0 0];

oriented        oriented;

internalField   nonuniform List<scalar> 
26232
(
-0.000302516
0.00207998
-0.00177747
-0.000385689
0.00386443
-0.00378126
0.000365214
0.0037469
-0.0044978
0.00251475
0.00171983
-0.00386937
0.00661815
-0.00243298
-0.00167042
0.013196
-0.00894408
0.00236627
0.0225783
-0.017854
0.00847165
0.0346989
-0.0288298
0.0167092
0.0489788
-0.0411405
0.0268606
0.0643824
-0.0538136
0.0384099
0.0796388
-0.0658714
0.050615
0.0935314
-0.0765397
0.0626471
0.105167
-0.0853788
0.073743
0.114151
-0.0923184
0.0833346
0.120615
-0.0976045
0.0911403
0.12509
-0.10167
0.097195
0.128259
-0.104969
0.1018
0.1307
-0.107845
0.105405
0.132784
-0.11048
0.108395
0.13462
-0.11296
0.111125
0.13634
-0.115196
0.113476
0.137793
-0.117478
0.116024
0.138596
-0.11877
0.117967
-0.120895
0.121008
0.138483
-0.000136725
0.00221671
0.000203842
0.00352386
0.00169493
0.00225581
0.00500974
-0.00159497
0.0107768
-0.00820002
0.0194167
-0.017584
0.030881
-0.0293184
0.0444991
-0.042448
0.0590889
-0.0557302
0.0732792
-0.0680038
0.085879
-0.0784711
0.0961532
-0.086814
0.103929
-0.0931547
0.109521
-0.0979102
0.113514
-0.101598
0.116512
-0.104668
0.118956
-0.107414
0.121098
-0.109987
0.123058
-0.11244
0.124892
-0.114795
0.126744
-0.117049
0.128519
-0.119253
0.130942
-0.121192
-0.123855
0.133902
6.54313e-05
0.00215128
0.000961959
0.00262733
0.00342377
-0.000206004
0.00817997
-0.00635117
0.0157892
-0.0158093
0.026313
-0.0281077
0.0390719
-0.0420773
0.0527729
-0.056149
0.0659481
-0.0689054
0.0774196
-0.0794753
0.0865796
-0.0876312
0.093423
-0.0936574
0.0983749
-0.0981066
0.102023
-0.101559
0.104889
-0.104464
0.10732
-0.107098
0.109506
-0.1096
0.111553
-0.112033
0.113527
-0.114414
0.115501
-0.116769
0.117496
-0.119043
0.119584
-0.121341
0.121778
-0.123386
-0.125727
0.12365
0.000269392
0.00188188
0.00179941
0.00109731
0.00537659
-0.00378318
0.0117033
-0.0126778
0.0210403
-0.0251463
0.0328116
-0.039879
0.0456646
-0.0549303
0.0580211
-0.0685055
0.0686687
-0.079553
0.0770606
-0.0878672
0.083281
-0.0938515
0.0877967
-0.0981731
0.0911676
-0.101477
0.0938507
-0.104242
0.0961418
-0.106755
0.0982106
-0.109167
0.100157
-0.111547
0.102041
-0.113917
0.103913
-0.116286
0.105785
-0.118642
0.107728
-0.120986
0.109742
-0.123354
0.111963
-0.125607
-0.128287
0.114523
0.000484248
0.00139764
0.00271371
-0.00113215
0.00749953
-0.008569
0.0153527
-0.020531
0.0259455
-0.0357392
0.0379582
-0.0518917
0.0496815
-0.0666536
0.0597858
-0.0786097
0.0676907
-0.0874579
0.0734928
-0.0936694
0.0776645
-0.0980232
0.0807498
-0.101258
0.0831872
-0.103915
0.085266
-0.106321
0.0871568
-0.108646
0.0889542
-0.110964
0.0907077
-0.1133
0.0924475
-0.115657
0.0941906
-0.118029
0.0959694
-0.12042
0.0978134
-0.12283
0.0997225
-0.125263
0.101784
-0.127669
-0.130267
0.103764
0.000730158
0.000667478
0.00372774
-0.00412973
0.00973447
-0.0145757
0.0188165
-0.029613
0.0298651
-0.0467878
0.0410593
-0.0630859
0.0508551
-0.0764494
0.0585252
-0.0862798
0.0641033
-0.0930361
0.0680445
-0.0976106
0.0708947
-0.100873
0.0731023
-0.103466
0.0749655
-0.105778
0.0766547
-0.10801
0.0782549
-0.110246
0.0798045
-0.112514
0.081325
-0.114821
0.0828335
-0.117165
0.0843537
-0.119549
0.0859061
-0.121973
0.0875122
-0.124436
0.0891967
-0.126947
0.0910104
-0.129483
-0.132197
0.09294
0.00101741
-0.000349936
0.00482512
-0.00793744
0.0119202
-0.0216708
0.0216701
-0.039363
0.0322817
-0.0573994
0.0419194
-0.0727236
0.0495717
-0.0841016
0.0551131
-0.0918212
0.0589456
-0.0968685
0.0616211
-0.100286
0.0636136
-0.102866
0.0652428
-0.105095
0.0666882
-0.107224
0.0680377
-0.109359
0.0693316
-0.11154
0.0705933
-0.113776
0.0718408
-0.116068
0.0730922
-0.118417
0.0743626
-0.12082
0.0756675
-0.123278
0.0770246
-0.125793
0.0784386
-0.128361
0.0799384
-0.130983
-0.133706
0.081447
0.0013376
-0.00168754
0.00593269
-0.0125325
0.0138058
-0.0295439
0.0235317
-0.0490889
0.0330138
-0.0668814
0.0408081
-0.0805179
0.0464947
-0.0897882
0.0503561
-0.0956826
0.0529371
-0.0994495
0.0547484
-0.102097
0.0561473
-0.104265
0.0573384
-0.106286
0.0584225
-0.108308
0.0594459
-0.110383
0.0604319
-0.112526
0.0613949
-0.114739
0.0623467
-0.11702
0.0632983
-0.119368
0.0642625
-0.121784
0.0652539
-0.124269
0.066284
-0.126823
0.0673701
-0.129448
0.0685324
-0.132145
-0.134925
0.0697516
0.00167119
-0.00335873
0.00693852
-0.0177999
0.0151415
-0.0377469
0.0242214
-0.0581688
0.0322085
-0.0748686
0.0382043
-0.0865137
0.0422521
-0.0938361
0.0448451
-0.0982755
0.0465305
-0.101135
0.0477197
-0.103287
0.0486579
-0.105203
0.0494679
-0.107096
0.0502052
-0.109045
0.0508946
-0.111072
0.0515497
-0.113181
0.0521817
-0.115371
0.0528015
-0.11764
0.0534216
-0.119988
0.0540541
-0.122417
0.0547099
-0.124925
0.0553998
-0.127513
0.056132
-0.13018
0.0569104
-0.132923
-0.13573
0.0577159
0.00198727
-0.005346
0.00771939
-0.023532
0.0157688
-0.0457963
0.0237815
-0.0661815
0.0301846
-0.0812717
0.0345868
-0.0909158
0.0373288
-0.0965781
0.0389701
-0.0999168
0.0399876
-0.102152
0.0406848
-0.103984
0.04122
-0.105738
0.0416644
-0.107541
0.0420484
-0.109429
0.0423874
-0.111411
0.0426923
-0.113486
0.0429732
-0.115651
0.0432397
-0.117906
0.0435017
-0.12025
0.0437688
-0.122684
0.0440512
-0.125207
0.0443582
-0.12782
0.0447003
-0.130522
0.0450846
-0.133308
-0.136161
0.0455154
0.00225463
-0.00760063
0.00817882
-0.0294562
0.0156598
-0.0532772
0.0223968
-0.0729185
0.027295
-0.0861699
0.030354
-0.0939749
0.0320697
-0.0982938
0.0329788
-0.100826
0.0334622
-0.102636
0.0337314
-0.104253
0.0338841
-0.105891
0.0339615
-0.107618
0.033982
-0.109449
0.0339566
-0.111386
0.0338943
-0.113424
0.0338035
-0.115561
0.033693
-0.117796
0.0335718
-0.120129
0.0334498
-0.122562
0.0333367
-0.125094
0.033242
-0.127726
0.0331715
-0.130451
0.0331238
-0.13326
-0.136138
0.033101
0.00245072
-0.0100514
0.00827891
-0.0352844
0.0149054
-0.0599037
0.0203151
-0.0783282
0.0238638
-0.0897186
0.025814
-0.0959251
0.0267124
-0.0991921
0.0270271
-0.101141
0.0270466
-0.102655
0.0269121
-0.104118
0.0266832
-0.105662
0.0263843
-0.107319
0.0260274
-0.109093
0.0256212
-0.110979
0.0251733
-0.112976
0.0246914
-0.115079
0.0241833
-0.117288
0.0236563
-0.119602
0.0231187
-0.122024
0.0225789
-0.124554
0.0220469
-0.127193
0.0215325
-0.129937
0.0210433
-0.132771
0.0205913
-0.135686
0.000477038
0.00739097
-0.00786801
0.00086576
0.0181621
-0.0185509
0.000719121
0.0253092
-0.0251626
-2.82368e-06
0.0294933
-0.0287713
-0.00111812
0.0318085
-0.0306932
-0.00239862
0.0332009
-0.0319205
-0.00364753
0.0341958
-0.0329469
-0.0047094
0.0349213
-0.0338595
-0.00545573
0.0352656
-0.0345193
-0.00577184
0.035023
-0.0347069
-0.00555543
0.0339813
-0.0341978
-0.00472465
0.0319632
-0.032794
-0.00322885
0.0288449
-0.0303407
-0.00105713
0.0245649
-0.0267366
0.00176281
0.0191193
-0.0219392
0.00517345
0.0125439
-0.0159545
0.00902979
0.00493638
-0.00879272
0.0132258
-0.00369109
-0.00050491
0.0178271
-0.0133003
0.008699
0.0227447
-0.0239815
0.0190638
0.0281403
-0.0359422
0.0305467
0.0341947
-0.0489732
0.0429188
0.04122
-0.0631795
0.0561542
-0.0773512
0.0492451
0.0693261
0.000808913
0.00658206
0.00197501
0.016996
0.00282913
0.0244551
0.00319934
0.0291231
0.00322265
0.0317852
0.00314905
0.0332745
0.00321956
0.0341253
0.00362022
0.0345207
0.00448385
0.034402
0.00590433
0.0336025
0.00794448
0.0319412
0.010636
0.0292717
0.0139766
0.0255042
0.0179295
0.0206121
0.0224209
0.0146279
0.027331
0.00763379
0.0325738
-0.000306442
0.038068
-0.00918526
0.0437729
-0.0190052
0.0496613
-0.0298699
0.0559689
-0.0422498
0.0626918
-0.055696
0.0700807
-0.0705684
-0.0850931
0.0778225
0.00104146
0.0055406
0.00287742
0.0151601
0.00470586
0.0226266
0.00620429
0.0276247
0.00742002
0.0305695
0.00858283
0.0321117
0.00995164
0.0327565
0.0117347
0.0327376
0.0140703
0.0320665
0.0170354
0.0306374
0.0206598
0.0283169
0.0249338
0.0249977
0.0298137
0.0206243
0.0352244
0.0152014
0.0410592
0.00879307
0.047151
0.00154202
0.0535733
-0.00672873
0.0601209
-0.0157328
0.0669127
-0.0257971
0.0739831
-0.0369403
0.0816785
-0.0499452
0.0898424
-0.0638599
0.0985995
-0.0793255
-0.0936805
0.107187
0.00114025
0.00440035
0.00343507
0.0128652
0.00607261
0.0199891
0.00860951
0.0250877
0.0109696
0.0282094
0.0133108
0.0297705
0.0158707
0.0301966
0.0188616
0.0297467
0.0224265
0.0285015
0.0266352
0.0264287
0.0314958
0.0234563
0.0369672
0.0195263
0.0429691
0.0146223
0.0493896
0.00878098
0.056072
0.00211064
0.0631096
-0.00549564
0.0702665
-0.0138856
0.0776518
-0.0231181
0.0855263
-0.0336715
0.094011
-0.045425
0.103401
-0.0593349
0.113203
-0.0736624
0.123211
-0.0893329
-0.102559
0.132089
0.00110147
0.00329888
0.00357401
0.0103927
0.00672354
0.0168396
0.0100592
0.0217521
0.0133868
0.0248818
0.0167559
0.0264014
0.0203381
0.0266144
0.024318
0.0257668
0.0288304
0.0239891
0.0339393
0.0213198
0.0396404
0.0177552
0.0458736
0.0132931
0.0525375
0.0079584
0.0594894
0.00182916
0.0668196
-0.0052196
0.0743549
-0.0130309
0.0822826
-0.0218133
0.0908617
-0.0316972
0.100451
-0.0432606
0.111097
-0.0560716
0.122651
-0.0708881
0.134089
-0.0851008
0.144696
-0.0999399
-0.110573
0.15271
0.00094856
0.00235032
0.00330557
0.0080357
0.00658386
0.0135613
0.0103388
0.0179972
0.0143073
0.0209132
0.0184307
0.022278
0.0227855
0.0222596
0.0274943
0.021058
0.0326591
0.0188244
0.0383279
0.0156509
0.0444901
0.011593
0.0510872
0.00669597
0.058017
0.00102862
0.065425
-0.00557882
0.0732297
-0.0130244
0.0817005
-0.0215017
0.0911851
-0.031298
0.10201
-0.042522
0.114227
-0.055478
0.127417
-0.0692615
0.140611
-0.084082
0.152434
-0.0969236
0.161864
-0.10937
-0.116233
0.167523
0.000718709
0.00163161
0.00271285
0.00604156
0.00573265
0.0105415
0.00945451
0.0142753
0.0136169
0.0167508
0.0180895
0.0178054
0.0228571
0.017492
0.0279646
0.0159505
0.033464
0.0133249
0.039386
0.00972899
0.0457396
0.00523944
0.052532
-9.64e-05
0.0599796
-0.006419
0.0681463
-0.0137455
0.0774031
-0.0222812
0.0881191
-0.0322177
0.100497
-0.0436757
0.114414
-0.0564396
0.12914
-0.0702035
0.1436
-0.0837217
0.156232
-0.0967135
0.165899
-0.106591
0.171862
-0.115333
-0.118327
0.173956
0.000447756
0.00118385
0.00191334
0.00457597
0.00436767
0.00808716
0.0076406
0.0110024
0.0115308
0.0128606
0.0158909
0.0134453
0.0206514
0.0127315
0.0258054
0.0107965
0.0313876
0.00774274
0.0374722
0.00364441
0.0442161
-0.00150446
0.0518869
-0.00776717
0.0607518
-0.0152839
0.0712012
-0.0241949
0.0834941
-0.0345741
0.0976109
-0.0463345
0.113065
-0.0591292
0.12895
-0.0723251
0.14388
-0.0851331
0.156585
-0.096427
0.16576
-0.105889
0.171226
-0.112056
0.173058
-0.117165
-0.117778
0.172508
0.000164473
0.00101938
0.0010291
0.00371134
0.0027484
0.00636785
0.00530181
0.008449
0.00858324
0.00957918
0.01249
0.00953849
0.0169763
0.00824524
0.0220813
0.00569144
0.0279384
0.00188566
0.0348057
-0.00322295
0.0430249
-0.00972367
0.0529705
-0.0177128
0.064911
-0.0272244
0.0788703
-0.0381542
0.0944848
-0.0501886
0.110969
-0.0628191
0.127153
-0.0753132
0.141742
-0.0869142
0.153462
-0.0968528
0.161675
-0.104639
0.166104
-0.110318
0.167732
-0.113684
0.167299
-0.116731
-0.116854
0.166374
-9.92641e-05
0.00111864
0.000196159
0.00341592
0.00118724
0.00537677
0.00299285
0.00664339
0.00563224
0.00693978
0.00912848
0.00604225
0.0135749
0.00379886
0.0192033
6.30083e-05
0.0262988
-0.00520981
0.0352529
-0.0121771
0.0463563
-0.0208271
0.0596729
-0.0310294
0.0749126
-0.0424641
0.0913822
-0.0546238
0.108042
-0.0668481
0.123648
-0.0784253
0.136997
-0.0886627
0.147209
-0.0971262
0.153922
-0.103565
0.157571
-0.108289
0.158879
-0.111625
0.159245
-0.114051
0.159034
-0.11652
-0.117087
0.159267
-0.000293891
0.00141253
-0.000408681
0.00353071
7.95043e-05
0.00488859
0.00142026
0.00530264
0.00381654
0.0045435
0.00749428
0.00236451
0.0127616
-0.00146846
0.0199589
-0.00713432
0.0294581
-0.014709
0.0413814
-0.0241003
0.05554
-0.0349857
0.071342
-0.0468313
0.0878327
-0.0589548
0.103832
-0.0706233
0.11815
-0.0811657
0.12982
-0.0900951
0.138345
-0.0971884
0.143797
-0.102578
0.146801
-0.106569
0.148298
-0.109786
0.149053
-0.112381
0.149985
-0.114982
0.15073
-0.117265
-0.118436
0.152079
-0.000364931
-0.000615476
-0.000224689
0.00120858
0.00408165
0.00881243
0.0158156
0.0253905
0.0375421
0.0518517
0.067481
0.0832968
0.0980849
0.110796
0.120771
0.127871
0.132483
0.13531
0.137136
0.138475
0.13957
0.140612
0.141314
0.143886
0.055685
-0.118816
0.112376
0.0622014
-0.136227
0.12971
0.0675287
-0.14699
0.141663
0.0702242
-0.151244
0.148549
0.0683176
-0.151451
0.153357
0.062162
-0.152353
0.158509
0.0562199
-0.156026
0.161969
0.0564722
-0.156602
0.156349
0.0655577
-0.143257
0.134171
0.080597
-0.109809
0.0947694
0.0971621
-0.0588426
0.0422775
0.113107
0.00301338
-0.0189586
0.127598
0.0676168
-0.0821079
0.139761
0.123164
-0.135327
0.148635
0.160347
-0.169221
0.153567
0.1788
-0.183733
0.155206
0.185547
-0.187186
0.155521
0.185575
-0.185891
0.155223
0.183101
-0.182803
0.152911
0.188311
-0.185999
0.147649
0.208359
-0.203096
0.140935
0.229214
-0.2225
0.13551
0.220891
-0.215466
0.133276
0.162473
-0.160239
0.135108
0.0614933
-0.0633256
0.140149
-0.0512776
0.0462369
0.146112
-0.14491
0.138947
0.151494
-0.202515
0.197133
0.155729
-0.22436
0.220126
0.157147
-0.227842
0.226424
0.153655
-0.236834
0.240327
0.144843
-0.252071
0.260882
0.132912
-0.258371
0.270303
0.121804
-0.227808
0.238916
0.115694
-0.153221
0.159331
0.116664
-0.0388625
0.0378928
0.123919
0.0763255
-0.0835805
0.133801
0.167875
-0.177757
0.139597
0.222228
-0.228024
0.136717
0.263935
-0.261055
0.12772
0.294912
-0.285914
0.118525
0.28625
-0.277055
0.114564
0.21707
-0.213108
0.118429
0.0851118
-0.0889773
0.125509
-0.0405333
0.033454
0.128617
-0.161596
0.158488
0.126598
-0.24078
0.242799
0.123329
-0.3007
0.303969
0.121273
-0.286905
0.288961
0.120584
-0.191472
0.192161
0.120539
-0.0478198
0.047865
0.120368
0.140129
-0.139958
0.120803
0.229968
-0.230403
0.120697
0.312286
-0.31218
0.121905
0.306079
-0.307287
0.123059
0.166316
-0.16747
0.121755
0.0094354
-0.00813109
0.118424
-0.361249
0.36458
0.115944
-0.417073
0.419553
-0.0884289
0.0923505
0.0797534
-0.120747
0.0813587
-0.137832
0.0821319
-0.147764
0.0817914
-0.150903
0.0788506
-0.14851
0.0710382
-0.144541
0.0595845
-0.144573
0.0506473
-0.147664
0.0505199
-0.143129
0.0602571
-0.119546
0.0760817
-0.0746672
0.0942946
-0.0151994
0.112655
0.0492565
0.129421
0.106398
0.142781
0.146987
0.151652
0.16993
0.156672
0.180526
0.159758
0.18249
0.161785
0.181074
0.162032
0.188063
0.159888
0.210503
0.156057
0.233045
0.152015
0.224933
0.148985
0.165503
0.147875
0.0626031
0.149131
-0.0525333
0.151477
-0.147256
0.153577
-0.204616
0.154927
-0.22571
0.15404
-0.226955
0.148664
-0.231458
0.138301
-0.241708
0.125402
-0.245472
0.114386
-0.216792
0.109477
-0.148312
0.11272
-0.0421051
0.122867
0.0661786
0.134853
0.155889
0.141834
0.215246
0.140065
0.265704
0.131882
0.303094
0.122526
0.295606
0.117316
0.222279
0.119605
0.0828229
0.126158
-0.0470865
0.128946
-0.164383
0.126244
-0.238079
0.122293
-0.296748
0.120332
-0.284944
0.120014
-0.191155
0.120809
-0.0486141
0.121219
0.139719
0.121793
0.229394
0.12196
0.312119
0.123225
0.304814
0.124811
0.16473
0.122748
0.0114992
0.118127
-0.356629
0.116388
-0.415334
-0.085323
0.106204
-0.119764
0.103436
-0.135064
0.0986617
-0.142989
0.0930474
-0.145289
0.0874915
-0.142954
0.0795629
-0.136612
0.0666305
-0.13164
0.0517051
-0.132739
0.0425814
-0.134006
0.0446794
-0.121644
0.0571321
-0.0871199
0.0757622
-0.0338295
0.0971912
0.0278275
0.118142
0.0854474
0.135917
0.129212
0.148892
0.156955
0.157574
0.171844
0.163705
0.176359
0.168393
0.176386
0.171613
0.184843
0.172955
0.209161
0.172296
0.233703
0.169786
0.227443
0.165689
0.1696
0.161317
0.066975
0.158447
-0.0496624
0.157012
-0.145821
0.155807
-0.203411
0.154325
-0.224227
0.151376
-0.224007
0.144667
-0.224748
0.133346
-0.230387
0.119668
-0.231794
0.108542
-0.205666
0.104708
-0.144479
0.109922
-0.047319
0.122398
0.0537033
0.136316
0.141971
0.144715
0.206847
0.144518
0.265901
0.137444
0.310169
0.128069
0.304982
0.121464
0.228884
0.121721
0.0825658
0.127359
-0.0527244
0.12985
-0.166873
0.126472
-0.234701
0.121599
-0.291875
0.119578
-0.282923
0.119766
-0.191342
0.12148
-0.0503285
0.122537
0.138662
0.123153
0.228778
0.123506
0.311766
0.124792
0.303528
0.126808
0.162713
0.124174
0.0141334
0.11839
-0.350844
0.11728
-0.414224
-0.0829694
0.128234
-0.115909
0.122156
-0.128987
0.113969
-0.134801
0.104192
-0.135512
0.0949129
-0.133675
0.0868473
-0.128547
0.0758631
-0.120656
0.0595905
-0.116466
0.0437094
-0.118124
0.0370169
-0.114952
0.0433154
-0.0934183
0.0599477
-0.0504618
0.0826033
0.00517187
0.106503
0.0615476
0.127906
0.107809
0.144663
0.140198
0.156928
0.159579
0.166122
0.167165
0.17356
0.168948
0.179867
0.178536
0.18483
0.204199
0.187638
0.230895
0.187194
0.227887
0.182455
0.174339
0.174881
0.0745494
0.16799
-0.0427721
0.162763
-0.140594
0.158254
-0.198902
0.154026
-0.219999
0.149146
-0.219127
0.141429
-0.217032
0.129733
-0.218691
0.115727
-0.217787
0.10438
-0.194319
0.101064
-0.141163
0.107718
-0.0539734
0.122143
0.0392783
0.13797
0.126144
0.148164
0.196653
0.149881
0.264185
0.144149
0.3159
0.135012
0.314118
0.127097
0.236799
0.124929
0.0847336
0.129141
-0.056937
0.131302
-0.169034
0.127279
-0.230679
0.121298
-0.285894
0.11906
-0.280685
0.119797
-0.192078
0.122521
-0.0530528
0.124264
0.136919
0.124855
0.228187
0.125299
0.311322
0.126528
0.302299
0.128999
0.160243
0.126004
0.0171279
0.119188
-0.344028
0.118575
-0.413611
-0.0813295
0.145185
-0.108383
0.135121
-0.118923
0.124002
-0.123682
0.112422
-0.123933
0.10065
-0.121903
0.090839
-0.118735
0.082432
-0.112249
0.07005
-0.104084
0.0527828
-0.100857
0.0388114
-0.10098
0.036939
-0.0915459
0.0487112
-0.0622341
0.0700014
-0.0161183
0.0950814
0.0364676
0.119006
0.0838838
0.138998
0.120206
0.154577
0.144001
0.166673
0.155069
0.176658
0.158963
0.185738
0.169456
0.194135
0.195802
0.200496
0.224534
0.20238
0.226003
0.197939
0.17878
0.188171
0.0843177
0.177446
-0.0320474
0.168325
-0.131472
0.160636
-0.191213
0.153878
-0.213241
0.147295
-0.212544
0.138943
-0.208679
0.127362
-0.20711
0.113473
-0.203899
0.101878
-0.182724
0.0985189
-0.137804
0.105916
-0.0613702
0.121765
0.0234291
0.139413
0.108496
0.15178
0.184285
0.155979
0.259986
0.152141
0.319739
0.143526
0.322733
0.134323
0.246002
0.129329
0.0897276
0.131505
-0.0591128
0.133215
-0.170744
0.128632
-0.226096
0.121398
-0.27866
0.118754
-0.278042
0.120043
-0.193367
0.123867
-0.0568762
0.126351
0.134435
0.126871
0.227667
0.127305
0.310888
0.128368
0.301236
0.131328
0.157282
0.128214
0.0202424
0.120494
-0.336309
0.120255
-0.413373
-0.0803598
0.157043
-0.0979037
0.1442
-0.10608
0.130522
-0.110004
0.117836
-0.111246
0.105934
-0.110002
0.0947903
-0.107591
0.0863083
-0.103767
0.0784076
-0.0961838
0.0656109
-0.0880605
0.0493922
-0.0847614
0.0394931
-0.0816468
0.0434513
-0.0661922
0.0600444
-0.0327114
0.0839695
0.0125425
0.108923
0.0589305
0.13139
0.0977395
0.149967
0.125423
0.164823
0.140213
0.177138
0.146648
0.188607
0.157987
0.199991
0.184418
0.209527
0.214998
0.213632
0.221898
0.209748
0.182664
0.19897
0.0950956
0.185666
-0.018744
0.173278
-0.119084
0.162788
-0.180724
0.153819
-0.204272
0.145685
-0.204409
0.136848
-0.199843
0.125829
-0.196092
0.112602
-0.190672
0.100872
-0.170994
0.096904
-0.133836
0.104234
-0.0687006
0.120913
0.00675036
0.140283
0.0891258
0.15513
0.169439
0.162124
0.252992
0.160578
0.321285
0.15297
0.33034
0.14281
0.256162
0.134897
0.0976406
0.134431
-0.0586461
0.135464
-0.171777
0.130463
-0.221096
0.121899
-0.270096
0.118621
-0.274763
0.120425
-0.195172
0.125427
-0.0618781
0.128735
0.131127
0.129177
0.227224
0.129488
0.310577
0.130262
0.300463
0.133752
0.153792
0.130778
0.0232169
0.122276
-0.327807
0.122289
-0.413385
-0.0800161
0.161403
-0.0853501
0.147735
-0.0924122
0.133771
-0.0960399
0.120685
-0.0981609
0.10933
-0.0986468
0.0988001
-0.0970612
0.0894991
-0.0944661
0.0830356
-0.0897202
0.0761931
-0.081218
0.0642188
-0.0727871
0.05067
-0.0680981
0.0456044
-0.0611266
0.0543527
-0.0414598
0.0743176
-0.00742243
0.0984523
0.0347958
0.122099
0.0740925
0.142901
0.104621
0.1601
0.123014
0.174396
0.132352
0.187764
0.144619
0.201628
0.170554
0.214228
0.202397
0.220912
0.215215
0.218129
0.185446
0.206925
0.106301
0.192006
-0.00382512
0.177254
-0.104332
0.164438
-0.167907
0.153651
-0.193485
0.144244
-0.195002
0.134989
-0.190588
0.124716
-0.185819
0.112702
-0.178657
0.10118
-0.159473
0.0961412
-0.128797
0.102494
-0.0750532
0.119274
-0.0100298
0.140161
0.0682387
0.157743
0.151857
0.168037
0.242698
0.16952
0.319802
0.163489
0.336372
0.152431
0.26722
0.141535
0.108537
0.137887
-0.054998
0.1379
-0.17179
0.132666
-0.215862
0.122788
-0.260218
0.118614
-0.270589
0.120834
-0.197392
0.127106
-0.0681495
0.131354
0.126879
0.131737
0.226841
0.131808
0.310506
0.132185
0.300086
0.136261
0.149716
0.133659
0.0258194
0.124502
-0.318651
0.124637
-0.41352
-0.0802533
0.159895
-0.0727366
0.146858
-0.0793755
0.134303
-0.0834849
0.122461
-0.0863191
0.111797
-0.0879824
0.102461
-0.0877249
0.0936081
-0.0856137
0.086277
-0.0823891
0.0817236
-0.0766646
0.0763824
-0.0674458
0.0664487
-0.0581643
0.0563644
-0.0510424
0.0555318
-0.0406271
0.0674135
-0.0193041
0.0885905
0.0136188
0.112271
0.0504122
0.134554
0.0823374
0.153378
0.104191
0.168844
0.116885
0.183264
0.130199
0.19881
0.155009
0.213762
0.187445
0.222809
0.206168
0.221767
0.186488
0.211348
0.116719
0.196229
0.0112943
0.18009
-0.0881932
0.165463
-0.15328
0.1532
-0.181222
0.142791
-0.184594
0.133169
-0.180966
0.123622
-0.176271
0.113219
-0.168254
0.102491
-0.148745
0.0962458
-0.122552
0.100761
-0.0795681
0.116645
-0.0259139
0.138813
0.0460704
0.159137
0.131533
0.17274
0.229095
0.177422
0.31512
0.173714
0.340079
0.162378
0.278556
0.148954
0.121961
0.141822
-0.0478669
0.140381
-0.170348
0.135098
-0.210579
0.124046
-0.249166
0.118702
-0.265245
0.121173
-0.199864
0.12879
-0.0757662
0.134125
0.121544
0.134507
0.226459
0.13425
0.310763
0.134146
0.30019
0.138849
0.145013
0.136852
0.0278158
0.127139
-0.308938
0.127264
-0.413645
-0.0810226
0.155531
-0.0618927
0.144273
-0.0681181
0.133217
-0.0724293
0.122849
-0.0759503
0.113141
-0.0782746
0.10449
-0.0790737
0.0969196
-0.0780437
0.0899178
-0.0753872
0.0845933
-0.0713402
0.0818935
-0.064746
0.0786638
-0.0549347
0.071775
-0.0441535
0.0653433
-0.0341954
0.0674132
-0.0213741
0.0815851
-0.000553053
0.102635
0.0293618
0.125526
0.0594464
0.145878
0.0838389
0.162295
0.100468
0.176868
0.115627
0.19285
0.139027
0.209697
0.170598
0.221582
0.194282
0.222694
0.185376
0.213362
0.126052
0.197945
0.0267108
0.181399
-0.0716471
0.165614
-0.137495
0.152278
-0.167886
0.1412
-0.173515
0.131273
-0.171039
0.122242
-0.16724
0.113543
-0.159555
0.104323
-0.139525
0.0972832
-0.115512
0.0992061
-0.081491
0.113136
-0.0398437
0.135847
0.0233592
0.158988
0.108392
0.176443
0.21164
0.184755
0.306809
0.183652
0.341182
0.172655
0.289553
0.156847
0.137769
0.146113
-0.0371333
0.142771
-0.167006
0.137586
-0.205394
0.125612
-0.237192
0.118859
-0.258493
0.121332
-0.202336
0.130365
-0.0847998
0.136967
0.114942
0.137432
0.225995
0.136782
0.311412
0.136162
0.30081
0.141538
0.139637
0.140334
0.0290199
0.130152
-0.298755
0.130132
-0.413626
-0.0822697
0.150404
-0.0530296
0.140963
-0.0586768
0.131354
-0.0628207
0.122059
-0.0666549
0.113321
-0.0695371
0.105267
-0.0710196
0.0982767
-0.0710531
0.0923862
-0.0694968
0.087304
-0.066258
0.083983
-0.0614249
0.0831383
-0.05409
0.0822639
-0.0432792
0.0787082
-0.0306397
0.0757154
-0.0183812
0.0796612
-0.00449892
0.0939652
0.0150578
0.114143
0.0392681
0.134704
0.0632781
0.152275
0.0828972
0.167832
0.10007
0.184452
0.122408
0.201859
0.153191
0.214724
0.181417
0.217784
0.182316
0.210842
0.132993
0.197701
0.0398521
0.181642
-0.0555878
0.165047
-0.1209
0.150745
-0.153585
0.139211
-0.161981
0.129116
-0.160944
0.120359
-0.158483
0.113128
-0.152325
0.105975
-0.132371
0.0990812
-0.108618
0.0982556
-0.0806654
0.109091
-0.0506794
0.131381
0.00106963
0.156718
0.0830553
0.177541
0.190816
0.189496
0.294854
0.191575
0.339103
0.182305
0.298823
0.164929
0.155146
0.150713
-0.0229174
0.144948
-0.161241
0.139925
-0.20037
0.127376
-0.224643
0.119061
-0.250177
0.121228
-0.204504
0.1317
-0.0952711
0.139776
0.106866
0.140476
0.225295
0.139444
0.312444
0.138304
0.30195
0.144359
0.133582
0.144091
0.0292882
0.133512
-0.288177
0.133209
-0.413322
-0.0839362
0.144714
-0.0456641
0.136374
-0.0503374
0.127789
-0.0542354
0.119332
-0.0581979
0.111272
-0.061477
0.103889
-0.0636372
0.0973425
-0.0645063
0.0919571
-0.0641113
0.0878249
-0.0621259
0.084711
-0.058311
0.0833862
-0.0527652
0.0847276
-0.0446206
0.0869095
-0.0328215
0.0873151
-0.0187868
0.088064
-0.00524783
0.0934617
0.00966013
0.105693
0.0270364
0.121912
0.0470599
0.138173
0.0666355
0.154209
0.0840336
0.172247
0.10437
0.191997
0.133441
0.208086
0.165327
0.213588
0.176814
0.207733
0.138848
0.195068
0.0525181
0.179605
-0.0401253
0.162952
-0.104247
0.148201
-0.138834
0.136574
-0.150354
0.126583
-0.150953
0.117966
-0.149866
0.111751
-0.146109
0.106774
-0.127394
0.101122
-0.102967
0.0982612
-0.0778042
0.105053
-0.0574716
0.125423
-0.0192997
0.152697
0.0557815
0.177661
0.165852
0.193428
0.279086
0.198137
0.334394
0.190489
0.306471
0.172943
0.172692
0.155306
-0.00528069
0.146821
-0.152756
0.141913
-0.195462
0.129318
-0.212049
0.119381
-0.24024
0.120771
-0.205893
0.132691
-0.107192
0.142464
0.0970927
0.143539
0.22422
0.142182
0.313801
0.14059
0.303542
0.147327
0.126845
0.148075
0.0285401
0.137184
-0.277286
0.13646
-0.412597
-0.0859693
0.137874
-0.0396524
0.130735
-0.0431985
0.123371
-0.0468709
0.115932
-0.0507594
0.108784
-0.0543284
0.102295
-0.0571481
0.0966381
-0.0588498
0.0918161
-0.0592893
0.0880452
-0.0583549
0.0853573
-0.0556231
0.0836597
-0.0510677
0.0838642
-0.0448251
0.0867287
-0.035686
0.0906648
-0.0227229
0.0934277
-0.00801077
0.0969434
0.00614444
0.10329
0.0206899
0.112798
0.0375524
0.124224
0.0552088
0.137605
0.0706525
0.154647
0.0873286
0.174787
0.113301
0.192051
0.148063
0.199905
0.16896
0.198891
0.139862
0.191867
0.059542
0.178636
-0.0268947
0.16176
-0.0873708
0.146154
-0.123227
0.13424
-0.138441
0.124382
-0.141094
0.115725
-0.141209
0.109935
-0.140319
0.106672
-0.124131
0.102809
-0.0991042
0.0990844
-0.0740798
0.102047
-0.0604341
0.118577
-0.0358302
0.145534
0.0288247
0.173243
0.138144
0.193307
0.259023
0.202212
0.325489
0.197319
0.311364
0.180353
0.189657
0.160397
0.0146754
0.148894
-0.141253
0.143731
-0.190299
0.131591
-0.199909
0.120066
-0.228714
0.120353
-0.20618
0.133149
-0.119988
0.144852
0.0853896
0.14671
0.222362
0.145129
0.315382
0.143098
0.305572
0.150497
0.119446
0.152264
0.0267727
0.141153
-0.266175
0.139828
-0.411272
-0.0883291
0.1926
-0.034018
-0.198234
0.187889
-0.0384879
0.183103
-0.0420843
0.177821
-0.0454771
0.171999
-0.0485066
0.165784
-0.0509328
0.159348
-0.0524147
0.152763
-0.0527039
0.146088
-0.0516794
0.139485
-0.0490205
0.13299
-0.0445732
0.126625
-0.0384596
0.12101
-0.0300712
0.116895
-0.0186073
0.113885
-0.00500083
0.110571
0.00945769
0.107138
0.0241235
0.104829
0.0398609
0.105496
0.0545416
0.110292
0.0658565
0.118361
0.0792593
0.127209
0.104454
0.137075
0.138197
0.154133
0.151902
0.179072
0.114923
0.199243
0.0393715
0.206543
-0.0341943
0.202027
-0.082855
0.191633
-0.112834
0.17987
-0.126678
0.168114
-0.129339
0.156522
-0.129618
0.146389
-0.130185
0.137454
-0.115196
0.127787
-0.0894371
0.118282
-0.0645748
0.113963
-0.0561156
0.120624
-0.0424906
0.134166
0.0152822
0.147764
0.124545
0.15834
0.248447
0.167493
0.316336
0.173296
0.305561
0.174496
0.188457
0.169539
0.0196325
0.16482
-0.136533
0.160442
-0.185921
0.14761
-0.187077
0.133318
-0.214422
0.126727
-0.19959
0.130542
-0.123803
0.134655
0.0812765
0.132548
0.22447
0.130474
0.317456
0.132091
0.303956
0.142383
0.109154
0.146869
0.0222873
0.136765
-0.256071
0.131674
-0.406181
-0.088269
0.200737
-0.029461
-0.205294
0.195943
-0.0336944
0.19103
-0.0371714
0.185735
-0.0401811
0.179999
-0.0427709
0.173883
-0.0448168
0.167534
-0.0460663
0.161119
-0.0462889
0.154765
-0.045325
0.148651
-0.0429067
0.142975
-0.0388967
0.137822
-0.0333065
0.133327
-0.025577
0.130018
-0.0152981
0.12807
-0.00305265
0.126964
0.0105638
0.125269
0.025818
0.123201
0.0419297
0.122387
0.055355
0.124096
0.0641481
0.128088
0.0752667
0.134457
0.0980851
0.147529
0.125125
0.171722
0.127709
0.199466
0.0871786
0.217165
0.0216731
0.220285
-0.0373143
0.212922
-0.075492
0.200889
-0.100801
0.188544
-0.114332
0.176865
-0.11766
0.165354
-0.118107
0.155293
-0.120124
0.147109
-0.107012
0.138967
-0.0812952
0.129879
-0.0554875
0.123866
-0.0501023
0.128858
-0.0474828
0.142939
0.00120196
0.158668
0.108816
0.171462
0.235653
0.182836
0.304961
0.190301
0.298096
0.191975
0.186783
0.186525
0.0250832
0.179293
-0.129302
0.173475
-0.180104
0.159756
-0.173358
0.143925
-0.198591
0.136142
-0.191806
0.140857
-0.128518
0.146245
0.0758879
0.144124
0.226591
0.141954
0.319626
0.143873
0.302036
0.155031
0.0979959
0.160372
0.0169463
0.148989
-0.244688
0.142652
-0.399845
-0.087998
0.209372
-0.0257544
-0.213079
0.204959
-0.0292816
0.200284
-0.0324963
0.195325
-0.0352222
0.190018
-0.0374634
0.184374
-0.0391735
0.178499
-0.0401909
0.172528
-0.0403175
0.166589
-0.0393863
0.160838
-0.0371559
0.155427
-0.0334858
0.150521
-0.0284005
0.14635
-0.0214057
0.143369
-0.0123175
0.142038
-0.00172121
0.14207
0.0105315
0.142792
0.0250957
0.143721
0.0410009
0.144878
0.0541983
0.146215
0.0628108
0.148228
0.0732539
0.154313
0.0920001
0.170722
0.108717
0.197369
0.101062
0.222155
0.0623925
0.233829
0.0099991
0.232698
-0.0361835
0.223864
-0.0666574
0.211849
-0.0887867
0.19983
-0.102313
0.18855
-0.106381
0.17707
-0.106626
0.166655
-0.109709
0.158517
-0.0988738
0.151442