/*--------------------------------*- C++ -*----------------------------------*\
| =========                 |                                                 |
| \\      /  F ield         | OpenFOAM: The Open Source CFD Toolbox           |
|  \\    /   O peration     | Version:  2312                                  |
|   \\  /    A nd           | Website:  www.openfoam.com                      |
|    \\/     M anipulation  |                                                 |
\*---------------------------------------------------------------------------*/
FoamFile
{
    version     2.0;
    format      ascii;
    arch        "LSB;label=32;scalar=64";
    class       volScalarField;
    location    "10.5";
    object      p;
}
// * * * * * * * * * * * * * * * * * * * * * * * * * * * * * * * * * * * * * //

dimensions      [0 2 -2 0 0 0 0];

internalField   nonuniform List<scalar> 
5478
(
-0.358459
-0.354926
-0.34798
-0.341501
-0.338923
-0.341762
-0.34912
-0.357919
-0.364491
-0.365781
-0.360367
-0.347168
-0.329012
-0.304219
-0.276622
-0.364246
-0.360801
-0.354383
-0.347506
-0.342579
-0.34043
-0.340329
-0.340194
-0.337632
-0.331115
-0.320021
-0.305211
-0.287407
-0.266797
-0.245804
-0.376027
-0.371106
-0.364104
-0.35602
-0.347627
-0.339438
-0.331493
-0.323057
-0.313267
-0.301611
-0.288131
-0.272748
-0.255682
-0.237116
-0.217814
-0.39258
-0.385033
-0.376117
-0.365203
-0.351669
-0.3368
-0.32181
-0.307051
-0.292327
-0.277359
-0.261783
-0.245603
-0.228882
-0.211769
-0.195367
-0.414002
-0.402342
-0.390599
-0.374428
-0.353914
-0.332203
-0.311296
-0.291706
-0.273305
-0.255729
-0.238765
-0.2222
-0.205833
-0.189861
-0.174027
-0.440491
-0.422963
-0.406173
-0.381828
-0.353127
-0.324887
-0.299004
-0.275703
-0.254605
-0.235283
-0.217292
-0.200307
-0.1842
-0.168849
-0.154012
-0.468094
-0.445331
-0.419045
-0.384253
-0.347416
-0.313461
-0.283563
-0.257402
-0.234324
-0.213711
-0.195101
-0.178137
-0.162516
-0.148026
-0.134066
-0.490515
-0.463928
-0.42499
-0.378912
-0.334796
-0.296155
-0.263187
-0.235024
-0.210729
-0.189567
-0.170914
-0.154312
-0.139474
-0.125995
-0.113513
-0.259019
-0.274805
-0.296714
-0.327501
-0.363684
-0.401975
-0.439302
-0.472849
-0.50012
-0.519249
-0.52868
-0.527249
-0.514433
-0.490771
-0.45602
-0.287331
-0.300229
-0.320852
-0.350948
-0.386774
-0.424873
-0.462078
-0.495565
-0.522937
-0.542292
-0.552292
-0.552185
-0.541503
-0.51997
-0.485057
-0.321356
-0.329593
-0.347443
-0.375382
-0.40927
-0.445658
-0.481382
-0.513658
-0.540217
-0.559177
-0.569499
-0.572148
-0.558653
-0.545011
-0.510975
-0.348452
-0.350933
-0.364596
-0.388319
-0.418072
-0.450594
-0.48288
-0.512326
-0.536864
-0.554942
-0.564387
-0.567624
-0.557039
-0.542512
-0.513274
-0.363062
-0.360292
-0.36824
-0.385139
-0.408245
-0.434886
-0.462406
-0.488349
-0.510451
-0.52754
-0.537563
-0.541337
-0.533464
-0.51839
-0.490332
-0.366336
-0.360183
-0.361476
-0.369295
-0.383211
-0.402039
-0.423764
-0.445841
-0.467065
-0.484812
-0.496013
-0.499712
-0.492525
-0.476365
-0.446784
-0.363306
-0.356688
-0.352728
-0.352097
-0.356906
-0.368207
-0.385295
-0.406112
-0.426345
-0.442127
-0.450884
-0.450832
-0.440495
-0.422064
-0.391821
-0.359123
-0.353989
-0.347474
-0.34196
-0.341516
-0.34833
-0.361613
-0.377929
-0.393058
-0.40275
-0.405114
-0.397947
-0.382374
-0.360197
-0.33242
-0.404395
-0.326666
-0.234688
-0.13472
-0.0383133
0.0409734
0.0928934
0.117066
0.120133
0.110939
0.0969785
0.0826136
0.0697689
0.0588827
0.0498249
0.0423143
0.0361027
0.0308901
0.026511
0.0228876
0.0198693
0.01725
0.0152756
0.0135293
0.0120315
0.0107544
0.00966515
0.00870835
0.00787854
0.00710346
0.00642065
0.00572172
0.00506968
0.00437062
0.0035923
0.0027981
0.00177287
0.000654544
-0.438691
-0.363048
-0.270893
-0.170162
-0.070371
0.0144734
0.0723128
0.101924
0.10928
0.103695
0.0921862
0.0795623
0.0679282
0.0578542
0.0493446
0.0422035
0.0362102
0.0311427
0.0268583
0.0232707
0.0202622
0.017529
0.0156649
0.0138883
0.0123578
0.0110549
0.00994001
0.00896034
0.00810281
0.00730737
0.0065949
0.00587703
0.00519883
0.00447342
0.00368251
0.00284795
0.00181557
0.000653313
-0.468015
-0.401846
-0.315177
-0.216644
-0.116626
-0.0281726
0.0361477
0.0727965
0.0872673
0.0880892
0.081995
0.0730631
0.0638945
0.0554735
0.048041
0.0415854
0.0360226
0.0312326
0.0271183
0.0236158
0.0206718
0.0184683
0.0160792
0.0142422
0.0126786
0.0113522
0.0102131
0.00921128
0.00832645
0.00751105
0.00676935
0.00603333
0.00532931
0.00457835
0.00377486
0.00290075
0.00186113
0.000654526
-0.469635
-0.411815
-0.339819
-0.254496
-0.160946
-0.0736724
-0.00618799
0.0365819
0.0586638
0.0671517
0.068001
0.064163
0.0582793
0.0519804
0.0459289
0.0403629
0.0353814
0.0309856
0.0271346
0.0237959
0.020945
0.0186009
0.0164482
0.0145751
0.0129821
0.0116394
0.0104805
0.00945902
0.00854864
0.00771424
0.00694437
0.00619097
0.00546142
0.00468643
0.00386913
0.0029578
0.00190944
0.000659093
-0.445215
-0.39828
-0.340967
-0.26746
-0.189785
-0.112779
-0.0466554
0.000509618
0.0294969
0.0452892
0.0523148
0.0539376
0.0519159
0.0481049
0.0436363
0.0390779
0.0347366
0.0307507
0.0271568
0.0239656
0.0211807
0.0187965
0.0167312
0.0148679
0.013262
0.0119144
0.0107408
0.00970206
0.00876824
0.00791584
0.00711917
0.00634906
0.00559426
0.00479741
0.00396408
0.00301951
0.00195939
0.000667736
-0.400329
-0.36521
-0.324353
-0.264551
-0.199136
-0.138004
-0.0811155
-0.0331617
0.00130649
0.0235459
0.0367242
0.042718
0.0442708
0.0430966
0.0403763
0.0369773
0.0334543
0.0300585
0.0268781
0.0239549
0.0213252
0.0190107
0.0169307
0.0151833
0.0135305
0.0121833
0.0109974
0.00994219
0.00898602
0.00811573
0.00729367
0.00650711
0.00572728
0.00491112
0.00405856
0.00308621
0.00200984
0.000681691
-0.349242
-0.325971
-0.297172
-0.251701
-0.199791
-0.148549
-0.101991
-0.0577612
-0.0209502
0.0054003
0.0223748
0.0325976
0.0374181
0.0386162
0.0377305
0.0354418
0.0325389
0.0295316
0.0266279
0.0239005
0.0213961
0.0191388
0.0170458
0.015371
0.0137434
0.0124267
0.0112381
0.0101708
0.00919737
0.00831065
0.00746663
0.00666417
0.0058599
0.00502778
0.00415169
0.00315858
0.0020602
0.000702862
-0.30717
-0.296107
-0.275649
-0.243879
-0.206251
-0.16559
-0.124886
-0.0869133
-0.0507899
-0.0205367
0.00184737
0.0170829
0.0263617
0.0309839
0.0324569
0.032127
0.0306287
0.0285078
0.0261542
0.0237687
0.0214696
0.0193232
0.0173343
0.0155627
0.0139492
0.0126832
0.0114914
0.010409
0.0094138
0.00850938
0.00764066
0.0068231
0.0059916
0.00514811
0.00424194
0.00323714
0.00210932
0.000734039
-0.272163
-0.276073
-0.255071
-0.223981
-0.190018
-0.154981
-0.119859
-0.085632
-0.0536589
-0.0260815
-0.00481289
0.0102428
0.0200693
0.0258149
0.0285637
0.0292423
0.0285556
0.0270969
0.0252545
0.0232374
0.0211929
0.0192257
0.0173786
0.0156255
0.0141866
0.0128764
0.0116872
0.010598
0.00960138
0.00867924
0.00780514
0.00696643
0.00611971
0.0052642
0.00432672
0.00331623
0.00215331
0.000769991
-0.227842
-0.236173
-0.220759
-0.193872
-0.164862
-0.135946
-0.107317
-0.0795984
-0.0533533
-0.0297048
-0.0103674
0.00406948
0.0141012
0.0204966
0.0240756
0.0256015
0.0257228
0.0249721
0.0237075
0.0221419
0.0204417
0.0187321
0.01708
0.0155136
0.0138246
0.0128894
0.0117525
0.0106921
0.00971207
0.00879382
0.00792239
0.00707248
0.00622067
0.00535002
0.00439596
0.0033741
0.00218528
0.000792031
-0.190607
-0.201351
-0.192188
-0.171344
-0.147615
-0.123819
-0.100406
-0.0772877
-0.0547393
-0.0337658
-0.0157806
-0.00167224
0.00854949
0.0154691
0.0198093
0.0221628
0.0230457
0.0229564
0.0222402
0.021106
0.0197396
0.0182903
0.0168401
0.0154587
0.0144093
0.0129626
0.0118331
0.010792
0.00982439
0.00890675
0.0080362
0.00717446
0.00631575
0.00542879
0.00445928
0.00342283
0.00221017
0.000804757
-0.159731
-0.169843
-0.164751
-0.148936
-0.1295
-0.109618
-0.0899414
-0.0706065
-0.0518649
-0.0342902
-0.0186527
-0.00571347
0.00410074
0.0111144
0.015917
0.0188712
0.0203568
0.0208436
0.020647
0.0199445
0.0189223
0.017747
0.0165155
0.0152984
0.0142169
0.0129809
0.0118962
0.010883
0.00993444
0.00902178
0.0081537
0.00728179
0.00641463
0.00551328
0.00452528
0.00347472
0.00223747
0.000816975
-0.131463
-0.141063
-0.138928
-0.127427
-0.112115
-0.0960493
-0.080142
-0.0646625
-0.0495499
-0.0349901
-0.0214624
-0.00960661
-0.000129288
0.0069752
0.0121644
0.0156307
0.0176417
0.0186656
0.018981
0.0187089
0.0180327
0.0171386
0.0161326
0.0150874
0.0140806
0.0129739
0.0119437
0.0109649
0.0100398
0.0091358
0.00827153
0.00739192
0.00651637
0.00560271
0.00459477
0.00353101
0.0022693
0.000831158
-0.106593
-0.115714
-0.115532
-0.107499
-0.0958517
-0.08326
-0.0706583
-0.0582977
-0.0459473
-0.0337626
-0.0222035
-0.0117072
-0.00295722
0.00386191
0.00910802
0.0128337
0.0151763
0.0165968
0.0173441
0.0174612
0.0171076
0.0164854
0.0157042
0.0148264
0.0139137
0.0129287
0.0119689
0.0110333
0.010137
0.00924557
0.00838728
0.00750334
0.00661981
0.00569528
0.00466692
0.00358994
0.00230455
0.000845142
-0.0855873
-0.0937795
-0.0947421
-0.0893038
-0.0806569
-0.071008
-0.0611547
-0.0513079
-0.0413598
-0.0314646
-0.0219317
-0.0129478
-0.00511281
0.00125612
0.00642538
0.0103106
0.012889
0.0146119
0.0157301
0.0162061
0.0161536
0.0157866
0.0152225
0.0145169
0.0137268
0.0128601
0.0119741
0.0110875
0.0102243
0.00934977
0.00850043
0.00761522
0.00672368
0.00578941
0.00474036
0.00365006
0.00234167
0.000857345
-0.0674049
-0.0745473
-0.0761888
-0.0727284
-0.0665037
-0.059263
-0.051677
-0.0440143
-0.036225
-0.0283776
-0.0206652
-0.0131277
-0.00628562
-0.000510729
0.00441688
0.00830683
0.0109724
0.0128523
0.0142281
0.014997
0.0152113
0.015082
0.0147251
0.0141848
0.0135188
0.0127559
0.0119536
0.0111235
0.0102995
0.00944725
0.00860959
0.00772541
0.00682624
0.00588357
0.00481437
0.00371058
0.00237987
0.000868631
-0.0513474
-0.057661
-0.0597706
-0.0578007
-0.0534499
-0.0481213
-0.0424299
-0.0366518
-0.0307005
-0.0245818
-0.0184553
-0.0122836
-0.00649973
-0.00146537
0.0030501
0.00679874
0.0094328
0.0113584
0.0128972
0.0138891
0.0143133
0.014379
0.0142096
0.0138325
0.0132936
0.0126757
0.0119238
0.0111494
0.0103662
0.00953838
0.00871348
0.00783227
0.00692656
0.00597689
0.00488861
0.00377079
0.00241911
0.000880152
-0.0375694
-0.0431423
-0.0454535
-0.0444818
-0.0415162
-0.037699
-0.0335595
-0.0293366
-0.0248989
-0.0202316
-0.0154929
-0.0105864
-0.00585605
-0.00163377
0.00235049
0.00584061
0.00834682
0.0102161
0.0118147
0.0129537
0.0135347
0.0137439
0.0137077
0.0134537
0.0130322
0.012401
0.0118245
0.0111374
0.0104095
0.00961489
0.00880762
0.00793313
0.00702303
0.00606799
0.00496191
0.00382984
0.00245909
0.000891905
-0.0256418
-0.0304386
-0.0327474
-0.0324819
-0.0306008
-0.0279955
-0.0250945
-0.0221196
-0.0189345
-0.015505
-0.0119688
-0.00818616
-0.0044441
-0.0010467
0.00232953
0.00545201
0.00772964
0.00944152
0.0109949
0.0121981
0.0128864
0.0132186
0.0133208
0.0131926
0.0128711
0.0127145
0.0118667
0.0111882
0.0104877
0.00970593
0.0089068
0.00803504
0.00711838
0.00615779
0.00503422
0.00388785
0.00249948
0.000904186
-0.0152748
-0.0194135
-0.0216685
-0.0219043
-0.020822
-0.0191138
-0.0171423
-0.0151396
-0.0129753
-0.0105832
-0.00806631
-0.00525599
-0.00240516
0.000205142
0.0029511
0.00563659
0.00760582
0.0090753
0.0104822
0.0116442
0.0123429
0.0126992
0.0128337
0.0127414
0.0123783
0.0113133
0.0114634
0.0110271
0.0104161
0.00970489
0.00894339
0.00810073
0.00718963
0.00623225
0.00509697
0.00393879
0.00253612
0.000912991
-0.00600594
-0.00961877
-0.0118003
-0.0123943
-0.0119231
-0.01092
-0.00968005
-0.00843141
-0.007051
-0.00547088
-0.0037878
-0.00180642
0.000254211
0.00212913
0.00424619
0.0064616
0.00808644
0.00928079
0.0105011
0.0115812
0.0122678
0.0126521
0.012852
0.0128545
0.012672
0.012566
0.0119408
0.0113363
0.0107007
0.00994525
0.00916078
0.00827115
0.00733858
0.00634749
0.00518884
0.00400674
0.00258466
0.000938008
0.00187009
-0.00124028
-0.00327426
-0.0040786
-0.00404553
-0.0035799
-0.00291552
-0.0022724
-0.00152759
-0.00060809
0.000382212
0.0016445
0.0029946
0.00419216
0.00570441
0.00743094
0.00866389
0.00951879
0.010467
0.0113623
0.0119297
0.0122319
0.012379
0.0123577
0.0121437
0.0116278
0.0113478
0.0109093
0.0103314
0.00966223
0.00892725
0.00812148
0.00721011
0.00628372
0.00512674
0.00398208
0.00254586
0.000889105
0.00912248
0.00644699
0.0045978
0.00370619
0.00346214
0.00355476
0.00380102
0.00399276
0.00425255
0.00466676
0.00513974
0.00585986
0.0066406
0.00726219
0.00823939
0.00951485
0.0103699
0.010889
0.0115605
0.01226
0.0127013
0.0129278
0.0130497
0.0130595
0.0129595
0.0128738
0.0123154
0.0116803
0.0110537
0.0103045
0.00953169
0.0086268
0.00768341
0.00665641
0.00546507
0.00424514
0.00280406
0.00105288
0.0151251
0.0127127
0.0108835
0.00979454
0.00923993
0.00900272
0.00893339
0.00881052
0.00872043
0.00871572
0.00871023
0.00894259
0.0092504
0.00938801
0.00988146
0.01073
0.011218
0.0113951
0.0117593
0.0122122
0.0124608
0.0125309
0.0125225
0.0124136
0.0121698
0.0117355
0.0113
0.0108181
0.0102169
0.00953826
0.00879146
0.00799293
0.00706594
0.00615576
0.00497289
0.00382488
0.00240067
0.000783528
0.0214534
0.0195549
0.0180442
0.0170085
0.0162824
0.0157397
0.0153147
0.0148257
0.0143916
0.0141205
0.0138856
0.0137903
0.0136543
0.0133322
0.0134045
0.0138735
0.0140122
0.0138525
0.0139052
0.0140999
0.0141452
0.0140563
0.0139376
0.0137795
0.0135479
0.0132509
0.0127948
0.0121535
0.0115122
0.0107449
0.00997458
0.00904831
0.00810167
0.00705273
0.00582959
0.00461101
0.00306053
0.00118634
0.0250527
0.0230569
0.0214346
0.0203251
0.0195756
0.0190327
0.0185818
0.0180117
0.0174106
0.0168512
0.0162547
0.015848
0.0154845
0.014914
0.0146649
0.0148151
0.0146788
0.0142548
0.0140457
0.0140064
0.0138501
0.0135814
0.0132961
0.0129774
0.0125907
0.0120988
0.0114709
0.0108637
0.0101743
0.00943874
0.00863685
0.00780517
0.00684049
0.00591358
0.00471956
0.00357488
0.00223922
0.000703731
0.0313377
0.0299225
0.0286075
0.0274793
0.0264541
0.0255189
0.0246907
0.0238074
0.0229629
0.022244
0.021529
0.0209342
0.020257
0.0192975
0.0186733
0.0185198
0.018119
0.0174035
0.0168865
0.0165762
0.0161944
0.0157321
0.0152901
0.0148824
0.0144971
0.0142491
0.0134562
0.0126823
0.011965
0.0111595
0.010377
0.00941225
0.00847391
0.00737378
0.00612199
0.00488495
0.00318807
0.00124165
0.0327775
0.0311801
0.0298107
0.0287231
0.0278044
0.0269914
0.0262464
0.025391
0.0244811
0.0235954
0.0226794
0.0218918
0.0210743
0.0200438
0.0193116
0.018954
0.0183411
0.0174623
0.0167863
0.0162998
0.0157428
0.015113
0.0144863
0.0138515
0.0131284
0.0122282
0.0116777
0.0110547
0.0102798
0.00949862
0.00860172
0.0077102
0.00670688
0.00572345
0.00460557
0.00343387
0.00215441
0.000721161
0.0383844
0.0371809
0.0359504
0.0347538
0.0335618
0.0324075
0.031345
0.0302574
0.0292037
0.0282408
0.0272428
0.0262906
0.0252569
0.0239769
0.0229444
0.0223318
0.0215543
0.0204886
0.0195591
0.0188394
0.0180965
0.0173106
0.0165332
0.0158136
0.0150486
0.0143729
0.0136329
0.012961
0.0121355
0.0114053
0.0105339
0.00954148
0.00853687
0.00728944
0.00624064
0.00474836
0.00309104
0.00126464
0.038496
0.0372729
0.0361196
0.0350346
0.033944
0.0328614
0.03184
0.0307677
0.029661
0.0285787
0.0274858
0.0264823
0.0254163
0.024131
0.0230572
0.0223255
0.0214345
0.0203069
0.0193086
0.0184902
0.0176457
0.0167725
0.0158993
0.0150904
0.0142181
0.0134606
0.0125014
0.0117596
0.0107395
0.0100495
0.00898461
0.00819752
0.00718919
0.0060032
0.00509518
0.00351285
0.00239379
0.000917974
0.0413073
0.0401553
0.0389806
0.037794
0.0365711
0.0353532
0.0341993
0.0330399
0.0318882
0.0307763
0.0296482
0.0285427
0.0273568
0.0260057
0.0248298
0.0239541
0.0229859
0.0218228
0.0207292
0.0198032
0.0188589
0.0179382
0.0169624
0.016161
0.0151751
0.0145104
0.0133562
0.0128625
0.0115164
0.0111379
0.00970062
0.00915853
0.00812865
0.00682696
0.00617458
0.00414741
0.00295195
0.00127002
-0.102065
-0.120083
-0.138735
-0.156814
-0.177952
-0.197265
-0.221358
-0.245264
-0.0904597
-0.105233
-0.120636
-0.135529
-0.152308
-0.167885
-0.183359
-0.202312
-0.0781705
-0.0899681
-0.101817
-0.113884
-0.126021
-0.138447
-0.1501
-0.166774
-0.0669029
-0.0762923
-0.0853874
-0.0952012
-0.104815
-0.115519
-0.126471
-0.140749
-0.0558288
-0.0634239
-0.0707036
-0.0789115
-0.0872175
-0.0964646
-0.105646
-0.116338
-0.0457269
-0.0518022
-0.0576655
-0.0643196
-0.0710453
-0.0781467
-0.0850678
-0.0936384
-0.036143
-0.040913
-0.0455457
-0.0507092
-0.0559803
-0.0615209
-0.06734
-0.0747832
-0.0272235
-0.0308972
-0.0345237
-0.0385731
-0.04289
-0.0475539
-0.0525793
-0.0587086
-0.0189152
-0.0217524
-0.0246236
-0.0278931
-0.0314726
-0.0353172
-0.0393322
-0.0442078
-0.0112122
-0.0134256
-0.0157038
-0.0183094
-0.0211614
-0.0242128
-0.0274594
-0.0315634
-0.00397992
-0.00571271
-0.00750306
-0.00955438
-0.0118457
-0.0143862
-0.0171756
-0.0206704
0.00272269
0.00132172
-0.000138669
-0.00182182
-0.00373946
-0.00590648
-0.00826239
-0.0111623
0.00913229
0.007933
0.00668553
0.00528279
0.00369659
0.00189243
-7.78942e-05
-0.00252924
0.0149125
0.0138747
0.0127889
0.011588
0.0102348
0.00866534
0.00693177
0.00480438
0.0205885
0.0196094
0.0185904
0.0175245
0.0163531
0.0149766
0.0134564
0.0116192
0.0256128
0.0246593
0.023665
0.0226589
0.0215793
0.0203203
0.018941
0.017308
0.0306909
0.0297497
0.0287698
0.0278054
0.0268023
0.0256639
0.0244795
0.0231623
0.0348251
0.0338488
0.0328432
0.0318744
0.030879
0.0297128
0.0284091
0.0269078
0.0396012
0.0385871
0.0374922
0.0364436
0.0354531
0.034445
0.033494
0.0325342
0.0425608
0.0414911
0.0403918
0.0393396
0.0382844
0.0370886
0.035781
0.0343612
0.0468758
0.0457569
0.0445705
0.043436
0.0423836
0.0413506
0.0403797
0.0394387
0.048288
0.0470651
0.0458277
0.0446318
0.0434648
0.0422426
0.0409958
0.0397485
0.0506912
0.0494703
0.0482406
0.0470431
0.0458799
0.0447111
0.0435617
0.0424356
0.080369
0.0849774
0.0889665
0.0922117
0.0941483
0.0945762
0.093342
0.0899447
0.0834647
0.0725751
0.0554346
0.029462
-0.0095319
-0.0647168
-0.115312
0.0582096
0.0604674
0.0603568
0.0590431
0.0567344
0.0530083
0.0472679
0.0387284
0.0263251
0.0086247
-0.0163399
-0.0511765
-0.100141
-0.16684
-0.223468
0.0345458
0.0342653
0.0304843
0.025402
0.0194438
0.0119367
0.00201701
-0.0112252
-0.0289196
-0.0525882
-0.0843544
-0.126906
-0.18364
-0.260207
-0.316453
0.00889679
0.00590075
-0.000615328
-0.00833261
-0.0171005
-0.0277962
-0.0413427
-0.0586332
-0.0808098
-0.109415
-0.146617
-0.195515
-0.258193
-0.33798
-0.391734
-0.0176753
-0.0232701
-0.0317469
-0.0413018
-0.0522498
-0.0655648
-0.0820597
-0.102534
-0.128146
-0.160484
-0.20146
-0.254512
-0.320594
-0.398295
-0.447674
-0.0434024
-0.0515595
-0.0616055
-0.0726411
-0.0853979
-0.10081
-0.119552
-0.142279
-0.170177
-0.204799
-0.248152
-0.302644
-0.368515
-0.44081
-0.483853
-0.067956
-0.0781851
-0.0893981
-0.101759
-0.116131
-0.133137
-0.153357
-0.177516
-0.206633
-0.2421
-0.285696
-0.338996
-0.401424
-0.465191
-0.501431
-0.0915429
-0.102815
-0.115095
-0.128791
-0.144455
-0.162562
-0.183614
-0.208286
-0.237471
-0.272339
-0.314286
-0.364116
-0.419933
-0.472267
-0.502828
0.199817
0.215282
0.232364
0.251279
0.272128
0.294908
0.319568
0.346061
0.374297
0.404016
0.434647
0.465068
0.493352
0.515723
0.534261
0.199398
0.214096
0.230447
0.248774
0.26912
0.29137
0.31541
0.341182
0.368598
0.397387
0.426944
0.456095
0.482845
0.503423
0.52019
0.194827
0.207693
0.222708
0.240071
0.259447
0.280482
0.303002
0.326942
0.352188
0.378408
0.404912
0.430426
0.452799
0.468391
0.480363
0.185497
0.196216
0.209646
0.225622
0.243382
0.262386
0.282445
0.303499
0.325375
0.347619
0.369371
0.389174
0.4046
0.412155
0.416829
0.172059
0.180269
0.191868
0.206144
0.221788
0.238059
0.254772
0.271894
0.289218
0.306159
0.321654
0.334008
0.340436
0.337341
0.332855
0.154738
0.160173
0.169747
0.181975
0.195034
0.208074
0.220902
0.233454
0.245409
0.256023
0.264036
0.267522
0.263347
0.247714
0.231761
0.133589
0.136744
0.144642
0.154442
0.164164
0.173216
0.18157
0.189073
0.195174
0.198892
0.198738
0.192539
0.176842
0.147759
0.119215
0.108283
0.110445
0.117337
0.124538
0.130544
0.135214
0.138695
0.140729
0.14055
0.136969
0.128283
0.112059
0.0844768
0.0418265
0.00110559
0.0338069
0.0342565
0.0347999
0.0360308
0.0370674
0.0394774
0.0411043
0.0448935
0.0476577
0.0523823
0.0570613
0.0626453
0.0687446
0.0759278
0.0837068
0.0925965
0.102387
0.113324
0.125203
0.138284
0.152377
0.167633
0.183871
0.0361973
0.0365062
0.0369314
0.0381451
0.0390882
0.0414375
0.0429592
0.0466632
0.0493521
0.0540592
0.0586105
0.064171
0.0701966
0.0773314
0.0850278
0.0938825
0.103614
0.114456
0.12622
0.139174
0.153072
0.168213
0.184075
0.0385644
0.0387321
0.0390462
0.0402254
0.0410851
0.0433433
0.0447887
0.0483966
0.0510557
0.0557134
0.0600975
0.065636
0.0715713
0.0786327
0.0861738
0.0948743
0.104346
0.114848
0.126093
0.138595
0.151843
0.166549
0.181448
0.0409037
0.0409364
0.0411465
0.0422712
0.043052
0.0451971
0.0465883
0.050067
0.0526528
0.0572873
0.061497
0.0669865
0.0727879
0.079717
0.0871973
0.0958562
0.105135
0.115442
0.126013
0.137792
0.149811
0.162618
0.174936
0.0432124
0.0431224
0.0432333
0.0442816
0.0449812
0.0469857
0.048334
0.0516738
0.054268
0.0587922
0.0628316
0.0682672
0.0739241
0.0806026
0.0877391
0.0959251
0.104372
0.113825
0.123606
0.134596
0.145107
0.15565
0.164872
0.0454878
0.0452935
0.04531
0.0462536
0.0468543
0.0487004
0.0500161
0.0531453
0.0556946
0.0601788
0.0640982
0.0694495
0.0750623
0.081683
0.0888449
0.0970524
0.105023
0.113957
0.121988
0.130995
0.138218
0.146268
0.151581
0.0477289
0.0474529
0.0473724
0.0481806
0.0486682
0.050329
0.051639
0.0546082
0.0572979
0.0614606
0.0652419
0.0704662
0.0757639
0.0818389
0.0884245
0.0956352
0.102443
0.110518
0.117576
0.124392
0.129089
0.134091
0.134781
0.0499323
0.0495987
0.0494239
0.0500713
0.0504193
0.0518487
0.0530711
0.0557878
0.0584643
0.0627228
0.0665562
0.0717894
0.0772577
0.08345
0.0898143
0.0969521
0.102968
0.109389
0.113252
0.117608
0.117925
0.119119
0.113602
0.0520477
0.0516892
0.0514083
0.0518819
0.0521483
0.0534659
0.0547688
0.0572365
0.0603329
0.0636286
0.0673217
0.0720811
0.0770828
0.0823597
0.0878751
0.0934192
0.0980613
0.101942
0.104515
0.105627
0.103763
0.0986895
0.0885678
0.0542014
0.0538396
0.0534734
0.0538048
0.0539413
0.0550315
0.0561354
0.0581933
0.0605667
0.0639614
0.0674949
0.0716063
0.0760781
0.0803945
0.0850418
0.0891455
0.0925784
0.094722
0.0958356
0.0945019
0.0912078
0.0847634
0.0764086
0.0565656
0.0562032
0.0557473
0.0558958
0.05581
0.0566014
0.0575543
0.059246
0.0619649
0.0643818
0.0676297
0.0711175
0.0749237
0.0783239
0.0820196
0.0848688
0.0869148
0.0875309
0.0870468
0.0842697
0.079779
0.0731906
0.0652549
0.0591658
0.0587932
0.0582162
0.0581301
0.0578055
0.0583094
0.0591284
0.0603608
0.0627227
0.0647509
0.0676165
0.0705454
0.0735295
0.0760727
0.0787151
0.0804062
0.080991
0.0804105
0.0786102
0.0748863
0.0696109
0.0630351
0.0555355
0.062026
0.0616172
0.0608877
0.0605581
0.0599948
0.0601735
0.0607744
0.0615195
0.0636905
0.0651448
0.0674596
0.0698818
0.0719456
0.0736196
0.0752303
0.0758467
0.0751745
0.0735931
0.070883
0.0665188
0.0608629
0.0543709
0.0472954
0.0651713
0.0647019
0.0638082
0.0632238
0.0623705
0.0621706
0.0625055
0.0627594
0.0646369
0.0655506
0.0671887
0.0691108
0.0702574
0.0710143
0.0717314
0.0713908
0.0696705
0.0672948
0.0640359
0.0592953
0.0534837
0.0471483
0.0404411
0.0686379
0.0680914
0.0670125
0.066133
0.0649341
0.0643275
0.0643335
0.0640824
0.0655959
0.065966
0.0668624
0.068241
0.0685582
0.0683918
0.0683328
0.0671998
0.0646546
0.0616699
0.0581295
0.0532627
0.047466
0.0413817
0.0350354
0.0724724
0.071827
0.0705243
0.0693085
0.0677162
0.066668
0.066272
0.065494
0.0663358
0.0663796
0.0665438
0.0673305
0.0669277
0.0658949
0.0651569
0.0634266
0.0602483
0.0568365
0.0531806
0.0483847
0.0427314
0.0369519
0.0310128
0.0767275
0.0759526
0.0743847
0.0727928
0.0707505
0.0692151
0.0683484
0.0670472
0.0673466
0.066863
0.0663058
0.0664745
0.0654445
0.0636542
0.0623302
0.0601773
0.0565856
0.0528783
0.0492239
0.0446326
0.0392397
0.0338257
0.0283434
0.0814691
0.0805327
0.0786494
0.0766237
0.0740672
0.0720011
0.0706068
0.0687708
0.0684836
0.0674608
0.0662211
0.0657867
0.0642117
0.0618061
0.0599937
0.0575329
0.0537
0.0498662
0.0463228
0.0419677
0.0368479
0.0318878
0.0269042
0.0867781
0.0856425
0.0833907
0.0808647
0.0777158
0.0750524
0.0730725
0.0706922
0.069829
0.0682389
0.0663625
0.0653612
0.0633202
0.0604387
0.0582568
0.0556205
0.0517116
0.0478952
0.0445418
0.0405778
0.0359364
0.0312684
0.0267481
0.0927678
0.0913812
0.0886774
0.0855634
0.081755
0.078446
0.0758318
0.0728711
0.0713619
0.069266
0.0668201
0.065314
0.0628815
0.059636
0.0571724
0.0544225
0.0505098
0.0467509
0.0435811
0.0399401
0.035666
0.0315028
0.0275004
0.0995748
0.097895
0.0946493
0.090808
0.086218
0.0821831
0.0789015
0.0753556
0.0732846
0.0706417
0.0676921
0.0657479
0.0630034
0.0595159
0.0568698
0.0541023
0.050288
0.0466752
0.0437444
0.0404561
0.0365962
0.0328776
0.0293631
0.107389
0.105307
0.101407
0.0967599
0.0912903
0.086379
0.0823231
0.078173
0.0754251
0.0723568
0.0689586
0.0666172
0.0636251
0.0599568
0.0571787
0.0544202
0.0507223
0.0472687
0.0445549
0.0415816
0.0380903
0.0347502
0.0316429
0.11651
0.113936
0.109094
0.103331
0.0968991
0.0912088
0.0864087
0.0815674
0.0783208
0.0747464
0.0709676
0.0683043
0.0651221
0.0613556
0.058515
0.0558009
0.0522632
0.0489936
0.0464903
0.0438123
0.040674
0.0376997
0.034989
0.127217
0.123994
0.118156
0.111086
0.103153
0.096137
0.0904311
0.0850415
0.0810829
0.0771644
0.0730519
0.0700891
0.0667655
0.0629478
0.0600492
0.0573793
0.0539984
0.0508891
0.0485514
0.0461061
0.0432439
0.0405398
0.0381143
0.140225
0.135844
0.128353
0.119899
0.111009
0.103084
0.0963192
0.0898421
0.0855269
0.0811467
0.0767152
0.0734407
0.0699607
0.0660768
0.0631136
0.0604649
0.0572071
0.0542248
0.0520097
0.0497548
0.0471401
0.0446876
0.042525
0.156389
0.150425
0.140307
0.128961
0.117594
0.108012
0.100385
0.0931756
0.0884502
0.0838058
0.0791555
0.0757063
0.0721702
0.068321
0.0653452
0.062726
0.0596129
0.0567671
0.0546415
0.0525196
0.0500965
0.0478351
0.0458744
0.176833
0.16861
0.156163
0.14292
0.130015
0.118873
0.109889
0.102844
0.0960067
0.0903314
0.0851173
0.0811405
0.0773322
0.0733359
0.070162
0.0674385
0.0643519
0.0615069
0.0593567
0.0572968
0.0550008
0.052847
0.0509869
0.202861
0.187018
0.168487
0.151
0.135124
0.122402
0.112594
0.103709
0.0973773
0.0918719
0.0868209
0.082959
0.0792472
0.0753763
0.072258
0.0695745
0.0666121
0.0638894
0.061791
0.059798
0.0576377
0.0556439
0.0539578
0.248601
0.221891
0.195563
0.173218
0.153885
0.137732
0.124621
0.114647
0.106764
0.100414
0.0948046
0.090267
0.0860952
0.0819579
0.078463
0.0754423
0.0723518
0.0695002
0.0671879
0.0650637
0.0628897
0.0608755
0.0591333
0.282982
0.236563
0.203418
0.178639
0.157265
0.139442
0.125768
0.114474
0.106521
0.100536
0.0954554
0.0912151
0.087272
0.0833261
0.079863
0.0768659
0.0738937
0.0711074
0.0687728
0.0666786
0.0646197
0.0627213
0.061088
0.440909
0.288854
0.238045
0.205958
0.177566
0.153528
0.135301
0.122995
0.114694
0.108518
0.103096
0.0982502
0.0937005
0.0892849
0.085328
0.0818396
0.0785249
0.0754586
0.0728031
0.0704299
0.0681942
0.0661548
0.0643705
0.0746481
0.0534511
0.0297144
0.00630244
-0.0174183
-0.0403941
-0.0624651
-0.0827907
0.0660998
0.0454383
0.0212898
-0.000529835
-0.0206706
-0.0397489
-0.0580514
-0.0745549
0.0567103
0.0393065
0.0170135
-0.00321533
-0.0200064
-0.0355119
-0.0508067
-0.0650746
0.048003
0.0332692
0.0130989
-0.00574296
-0.0202102
-0.0327902
-0.0449841
-0.0565199
0.0402867
0.0277422
0.010295
-0.00633392
-0.0184963
-0.0285091
-0.0380183
-0.0473631
0.0337598
0.023023
0.00833276
-0.00569896
-0.0159149
-0.0240638
-0.0315859
-0.0390147
0.0285083
0.0190809
0.00712573
-0.00398653
-0.0123355
-0.0190096
-0.0250203
-0.0308503
0.024683
0.0162558
0.0068729
-0.00151974
-0.00815108
-0.0136548
-0.0185518
-0.0231251
0.0223598
0.014936
0.0076662
0.00149624
-0.00361929
-0.0081121
-0.0121261
-0.0157399
0.0213747
0.0149177
0.00932203
0.00487976
0.00104388
-0.00255848
-0.00584655
-0.00873105
0.0217194
0.0161611
0.0118497
0.00868649
0.00586644
0.00301571
0.000320057
-0.00201592
0.0230085
0.0182348
0.0148841
0.0126527
0.01062
0.00839563
0.00620231
0.00430367
0.0254074
0.0212935
0.0185935
0.0169838
0.0155339
0.0138104
0.0120142
0.0104409
0.0281463
0.0245948
0.0223963
0.021231
0.0202076
0.0188703
0.0173837
0.0160451
0.0319495
0.0288368
0.0268879
0.0259203
0.0251469
0.0240714
0.0227947
0.0216096
0.0354261
0.0327015
0.0309879
0.0301663
0.0295606
0.0286879
0.0276002
0.0265567
0.0401539
0.0376816
0.0359829
0.0350957
0.0344974
0.0336918
0.0326564
0.0316275
0.0437839
0.0416121
0.0400389
0.0391492
0.0385432
0.0377749
0.036784
0.0357747
0.04905
0.0469791
0.0452893
0.0441738
0.0433997
0.0425614
0.0415582
0.0405539
0.0522695
0.0504614
0.0488694
0.0476882
0.0467817
0.0458238
0.0447177
0.0436086
0.0574266
0.0556097
0.0538938
0.0524759
0.0513346
0.0502382
0.0490816
0.0479518
0.0595622
0.0579637
0.0563433
0.0548383
0.0534971
0.0521917
0.0508435
0.0495259
0.0627009
0.0609918
0.0592699
0.0576305
0.0561253
0.0546881
0.0532782
0.0519406
-0.345021
-0.3472
-0.355743
-0.36975
-0.38852
-0.412442
-0.441237
-0.469944
-0.341161
-0.344211
-0.352108
-0.364151
-0.379972
-0.399524
-0.422584
-0.446688
-0.334125
-0.337349
-0.345789
-0.357
-0.370907
-0.387629
-0.404911
-0.418571
-0.327056
-0.330535
-0.338812
-0.348918
-0.359912
-0.370975
-0.379527
-0.382252
-0.324436
-0.326618
-0.333125
-0.340058
-0.345942
-0.349869
-0.350146
-0.344731
-0.328634
-0.32733
-0.329428
-0.33083
-0.330429
-0.327768
-0.321695
-0.310717
-0.33918
-0.33217
-0.327304
-0.321607
-0.314897
-0.306747
-0.295994
-0.281171
-0.353274
-0.338597
-0.325242
-0.312196
-0.299915
-0.287382
-0.273189
-0.255681
-0.366911
-0.343373
-0.321469
-0.302128
-0.28547
-0.269563
-0.252906
-0.233553
-0.376152
-0.343893
-0.314763
-0.291159
-0.27124
-0.253036
-0.234661
-0.21419
-0.378738
-0.338515
-0.305029
-0.278994
-0.257016
-0.23749
-0.218031
-0.197072
-0.37193
-0.327296
-0.292593
-0.265571
-0.242742
-0.222618
-0.20273
-0.181788
-0.357764
-0.311498
-0.27799
-0.250999
-0.228328
-0.208256
-0.188555
-0.168096
-0.334118
-0.291824
-0.261304
-0.23543
-0.21407
-0.194405
-0.175413
-0.155718
-0.305531
-0.272064
-0.243376
-0.220338
-0.199905
-0.180926
-0.162728
-0.1442
-0.250123
-0.264457
-0.293183
-0.322504
-0.342733
-0.351585
-0.351726
-0.348066
-0.266335
-0.278569
-0.303164
-0.327121
-0.342038
-0.346698
-0.345165
-0.342348
-0.288165
-0.299085
-0.321144
-0.341453
-0.351628
-0.350361
-0.343026
-0.336553
-0.318646
-0.328575
-0.348625