/*--------------------------------*- C++ -*----------------------------------*\
| =========                 |                                                 |
| \\      /  F ield         | OpenFOAM: The Open Source CFD Toolbox           |
|  \\    /   O peration     | Version:  2312                                  |
|   \\  /    A nd           | Website:  www.openfoam.com                      |
|    \\/     M anipulation  |                                                 |
\*---------------------------------------------------------------------------*/
FoamFile
{
    version     2.0;
    format      ascii;
    arch        "LSB;label=32;scalar=64";
    class       volVectorField;
    location    "10.5";
    object      U;
}
// * * * * * * * * * * * * * * * * * * * * * * * * * * * * * * * * * * * * * //

dimensions      [0 1 -1 0 0 0 0];

internalField   nonuniform List<vector> 
5478
(
(-0.0254195 0.0135642 -7.86365e-20)
(-0.0459059 0.0324787 0)
(-0.0193152 0.0447841 1.16889e-19)
(0.065491 0.0492525 -2.04523e-19)
(0.215155 0.0486836 1.34378e-19)
(0.420726 0.048819 -3.85354e-20)
(0.655465 0.0521725 -7.11593e-20)
(0.887664 0.0562591 0)
(1.08846 0.0594162 0)
(1.24081 0.0549053 1.04754e-19)
(1.33455 0.0437223 -4.60315e-20)
(1.36819 0.0269099 -8.10111e-20)
(1.36165 -0.00936276 -3.14644e-20)
(1.31938 -0.0125315 0)
(1.26971 -0.0810931 8.51081e-20)
(-0.0340719 0.0168471 1.57615e-19)
(-0.0355789 0.0214509 0)
(0.0380981 0.0186523 0)
(0.202701 0.01907 -1.02814e-19)
(0.444053 0.0288031 1.35479e-19)
(0.713214 0.0471126 3.96105e-20)
(0.960112 0.0674163 -6.99584e-20)
(1.15145 0.0828765 6.20297e-20)
(1.27426 0.0872472 1.60981e-19)
(1.33106 0.0794738 -1.4184e-19)
(1.33643 0.0627607 4.62978e-21)
(1.31611 0.03633 0)
(1.28939 0.0183397 3.14115e-20)
(1.26988 -0.00527707 0)
(1.27226 -0.0251073 0)
(-0.0363038 0.0173251 -5.12899e-22)
(0.00147082 0.0132096 -7.37963e-20)
(0.158491 0.00880239 4.0008e-22)
(0.427158 0.0219233 0)
(0.732246 0.0502506 -4.5868e-20)
(0.994958 0.0809849 3.92014e-20)
(1.17651 0.103109 3.35306e-20)
(1.27408 0.110781 0)
(1.30669 0.104649 -5.2625e-20)
(1.30307 0.0902086 4.54928e-20)
(1.29059 0.0705291 3.89306e-20)
(1.28203 0.0566785 0)
(1.27765 0.0365694 0)
(1.27313 0.0281597 -8.28279e-20)
(1.25401 0.00658203 7.40056e-20)
(-0.0276819 0.0124556 -8.6278e-20)
(0.0761634 0.00149491 7.26041e-20)
(0.346269 0.0127527 -6.24524e-20)
(0.693845 0.0510695 5.49419e-20)
(0.98859 0.0927147 9.20663e-20)
(1.17623 0.12107 -7.7926e-20)
(1.26538 0.131499 -3.35117e-20)
(1.29163 0.127796 2.73463e-20)
(1.29161 0.117099 -2.56268e-20)
(1.28721 0.103151 0)
(1.28236 0.0912195 0)
(1.27307 0.0742982 -5.41849e-20)
(1.25793 0.061841 7.11216e-20)
(1.23608 0.0457532 -4.00909e-20)
(1.21922 0.0275719 0)
(-0.00481493 0.00400412 4.37183e-20)
(0.200074 -0.00535446 3.65539e-20)
(0.580708 0.0402443 -1.31507e-19)
(0.933205 0.0991072 1.93207e-21)
(1.15423 0.138656 -1.22232e-21)
(1.25586 0.154478 -1.03863e-21)
(1.28734 0.154072 3.13123e-20)
(1.2902 0.146085 2.72477e-20)
(1.28385 0.134563 1.99549e-20)
(1.2723 0.122185 -2.48484e-21)
(1.25677 0.106453 -4.62809e-20)
(1.24116 0.0929813 0)
(1.2283 0.0782358 2.21209e-20)
(1.22072 0.0643058 -1.68202e-20)
(1.2141 0.0537756 2.95797e-20)
(0.0378497 -0.00433681 -9.46434e-20)
(0.373011 0.00924776 1.01992e-19)
(0.806168 0.0908656 -3.48215e-20)
(1.10012 0.152954 2.62331e-20)
(1.24004 0.180327 -4.827e-20)
(1.28608 0.184729 -3.62312e-20)
(1.29025 0.178202 7.47443e-22)
(1.27907 0.166846 0)
(1.26336 0.153627 3.96939e-20)
(1.24857 0.138751 -3.52988e-20)
(1.2372 0.125457 1.46068e-20)
(1.22777 0.111122 0)
(1.21762 0.0980994 8.8288e-21)
(1.20354 0.0845033 -1.63122e-20)
(1.18651 0.0728514 0)
(0.104405 -0.0053261 -1.18098e-20)
(0.565856 0.0548781 1.10634e-21)
(0.981777 0.154025 1.70348e-20)
(1.2007 0.206762 2.85047e-20)
(1.27894 0.220931 -2.17443e-20)
(1.28962 0.216086 3.65943e-20)
(1.27665 0.203894 -8.3519e-21)
(1.25963 0.189514 0)
(1.24466 0.174319 -2.26921e-20)
(1.23137 0.159699 1.41602e-21)
(1.21764 0.144178 1.90059e-20)
(1.20339 0.129591 0)
(1.19003 0.114994 -1.26931e-20)
(1.17989 0.10076 0)
(1.173 0.0914668 7.89331e-21)
(0.192057 0.00835293 -1.30358e-20)
(0.737924 0.124002 0)
(1.10232 0.223202 1.78651e-20)
(1.25227 0.260987 0)
(1.28557 0.261724 0)
(1.2758 0.248448 0)
(1.25684 0.231693 -7.04582e-21)
(1.23825 0.214235 0)
(1.22094 0.196843 4.51808e-21)
(1.20528 0.179244 0)
(1.19246 0.162892 -5.88331e-21)
(1.18247 0.146928 0)
(1.1736 0.13195 3.8592e-21)
(1.16317 0.118258 0)
(1.15027 0.107107 2.52431e-21)
(-0.0370255 0.0711222 -7.43187e-21)
(-0.129985 0.100297 0)
(-0.243005 0.0952179 1.30946e-20)
(-0.337886 0.0839638 0)
(-0.421131 0.0714151 0)
(-0.492572 0.0577704 0)
(-0.551997 0.0432512 -1.16443e-20)
(-0.599107 0.0281201 0)
(-0.633789 0.0128388 1.041e-20)
(-0.656114 -0.00224653 0)
(-0.666071 -0.016766 -1.74119e-20)
(-0.663565 -0.0305403 0)
(-0.648833 -0.0437327 1.35183e-20)
(-0.623138 -0.0565375 0)
(-0.584356 -0.0696656 9.63258e-21)
(-0.0387932 0.141518 3.89641e-20)
(-0.113582 0.211503 -2.92819e-20)
(-0.200674 0.208068 1.52134e-20)
(-0.271405 0.188861 5.45374e-20)
(-0.329597 0.166145 2.4308e-21)
(-0.374755 0.140914 -4.93538e-20)
(-0.406625 0.113716 3.44417e-20)
(-0.425333 0.0852561 0)
(-0.431244 0.0561799 3.28363e-20)
(-0.424787 0.0269823 1.07204e-21)
(-0.406598 -0.00188106 -1.77935e-20)
(-0.377621 -0.030625 0)
(-0.338194 -0.0614253 -4.15786e-20)
(-0.294228 -0.0856575 0)
(-0.21825 -0.121401 -4.75663e-20)
(-0.0408936 0.174818 7.01496e-20)
(-0.092197 0.285434 1.65696e-20)
(-0.142583 0.294744 -2.82341e-20)
(-0.179066 0.273513 -8.53508e-20)
(-0.203063 0.244084 5.14739e-20)
(-0.21346 0.210674 5.37821e-20)
(-0.210149 0.174404 -9.72384e-20)
(-0.19371 0.136433 0)
(-0.165141 0.0977673 -8.90345e-20)
(-0.125245 0.0590395 7.91609e-20)
(-0.0757208 0.020197 3.63592e-20)
(-0.0261919 -0.0203156 0)
(0.0566483 -0.0580728 2.80364e-20)
(0.10184 -0.0971423 -4.94833e-20)
(0.238028 -0.136943 0)
(-0.0401583 0.165676 3.85657e-20)
(-0.0713154 0.308942 -1.01335e-19)
(-0.0842761 0.34445 1.23834e-19)
(-0.084272 0.330861 -1.13434e-19)
(-0.0730109 0.299121 -5.42315e-20)
(-0.0491361 0.260353 5.13804e-20)
(-0.0126232 0.217889 4.95466e-20)
(0.0355855 0.173284 4.55977e-20)
(0.0933693 0.127312 -1.30681e-19)
(0.158145 0.0799609 -2.00306e-21)
(0.235876 0.0383544 3.53556e-20)
(0.295876 -0.0160113 0)
(0.420531 -0.0508126 5.55068e-20)
(0.450248 -0.106333 1.45464e-19)
(0.635955 -0.14871 -8.57192e-20)
(-0.034169 0.124349 7.91835e-22)
(-0.0540217 0.276361 6.91769e-20)
(-0.0392251 0.34253 -6.15808e-20)
(-0.00764803 0.349286 5.7493e-20)
(0.0358185 0.325311 1.06127e-19)
(0.0903124 0.287038 -9.98933e-20)
(0.154441 0.242184 -4.55097e-20)
(0.226462 0.193267 -1.36475e-19)
(0.303735 0.145032 1.23076e-19)
(0.385644 0.0930278 0)
(0.481011 0.0520529 0)
(0.560426 -0.0059981 1.22642e-19)
(0.704549 -0.0425833 -2.71947e-19)
(0.755946 -0.107089 9.55952e-20)
(0.96313 -0.147189 0)
(-0.0247451 0.0735919 6.41214e-22)
(-0.0418475 0.201705 -6.8725e-20)
(-0.0158704 0.281595 1.84226e-19)
(0.0332949 0.307794 -5.43244e-20)
(0.0978083 0.297653 -5.19423e-20)
(0.17323 0.266895 4.85577e-20)
(0.255556 0.22527 4.5527e-20)
(0.344538 0.179794 8.31119e-20)
(0.439986 0.133887 -1.46088e-19)
(0.550792 0.0867218 6.66804e-20)
(0.666557 0.0424329 6.06301e-20)
(0.801547 -0.0132562 0)
(0.947795 -0.0492825 0)
(1.0551 -0.116284 1.67949e-19)
(1.2317 -0.142255 -1.49897e-19)
(-0.0172377 0.0347927 -4.54461e-22)
(-0.0362811 0.120422 0)
(-0.0138635 0.18757 0)
(0.0368181 0.216563 1.05573e-19)
(0.108027 0.214397 -4.72662e-20)
(0.195766 0.19302 4.16274e-20)
(0.300315 0.161922 8.13421e-20)
(0.423236 0.12884 -7.21287e-20)
(0.567085 0.0899096 7.23677e-20)
(0.728337 0.0563582 -6.67509e-20)
(0.892408 0.0138491 -5.82694e-21)
(1.06572 -0.0195426 0)
(1.19557 -0.0551105 4.19145e-20)
(1.31732 -0.101855 0)
(1.38475 -0.114738 0)
(-0.0174708 0.0161191 -7.86048e-20)
(-0.0402841 0.0618516 0)
(-0.0251664 0.100566 -1.16865e-19)
(0.0258291 0.118197 2.04946e-19)
(0.113028 0.117074 -2.26838e-19)
(0.239254 0.104877 -4.4022e-20)
(0.403639 0.0884046 7.31255e-20)
(0.595789 0.0712589 0)
(0.80162 0.052691 0)
(0.99541 0.0380255 -1.1653e-19)
(1.16822 0.0128944 -5.43811e-20)
(1.29506 0.00112877 9.19151e-20)
(1.36843 -0.0381142 -4.19922e-20)
(1.4059 -0.0552508 0)
(1.36245 -0.0824801 -1.04347e-19)
(-0.531974 -0.0797786 0)
(-0.461852 -0.097373 3.8894e-21)
(-0.361784 -0.107317 -3.70987e-21)
(-0.239566 -0.116531 0)
(-0.0935731 -0.119175 -2.03674e-23)
(0.0635505 -0.116302 0)
(0.220176 -0.106797 -5.62509e-23)
(0.363415 -0.0926597 0)
(0.486051 -0.0776055 7.11244e-23)
(0.585727 -0.0641198 -9.85872e-22)
(0.664128 -0.052712 9.40773e-22)
(0.724983 -0.0436059 4.36949e-23)
(0.772788 -0.0365409 0)
(0.811573 -0.0309741 -5.73062e-23)
(0.844147 -0.0261363 -4.64712e-23)
(0.871986 -0.0213968 0)
(0.895472 -0.0166554 0)
(0.914577 -0.0122017 0)
(0.929525 -0.00826163 2.07852e-23)
(0.940936 -0.00478541 0)
(0.94961 -0.00155477 0)
(0.956276 0.00162975 2.0611e-23)
(0.961528 0.00476034 -4.22469e-23)
(0.965745 0.00794951 -1.69907e-23)
(0.969196 0.0111737 0)
(0.97201 0.0145959 0)
(0.974401 0.0179515 0)
(0.976337 0.0220034 0)
(0.978098 0.0252398 1.58177e-23)
(0.979454 0.0309574 1.36435e-23)
(0.980823 0.0329271 -1.17895e-23)
(0.98183 0.042525 -5.37037e-24)
(0.982889 0.0412024 4.03673e-24)
(0.983764 0.0567399 0)
(0.984601 0.0525946 1.21892e-24)
(0.985422 0.0716365 -1.16767e-24)
(0.986092 0.0695487 2.14164e-25)
(0.987243 0.0898425 -2.04651e-25)
(-0.170789 -0.14948 3.7185e-21)
(-0.109624 -0.191862 2.26834e-20)
(-0.0318827 -0.227087 0)
(0.067925 -0.251645 1.53103e-22)
(0.188028 -0.265501 -5.0161e-23)
(0.313102 -0.260611 0)
(0.433775 -0.236418 5.66609e-23)
(0.540937 -0.198917 -4.30685e-21)
(0.629935 -0.158111 4.1462e-21)
(0.700519 -0.122719 -1.14209e-22)
(0.755109 -0.0952125 0)
(0.796543 -0.0746732 -4.39932e-23)
(0.828208 -0.0597522 0)
(0.853195 -0.049033 1.13673e-22)
(0.874008 -0.0408094 4.67697e-23)
(0.892276 -0.033527 7.54337e-23)
(0.908527 -0.0265098 -9.27845e-22)
(0.922598 -0.0199246 8.85791e-22)
(0.934317 -0.0141209 6.08489e-22)
(0.943811 -0.00916997 -6.3606e-22)
(0.951447 -0.00486676 -2.92426e-23)
(0.957581 -0.000908877 2.05142e-22)
(0.962581 0.0028896 -2.14663e-22)
(0.966721 0.00653214 -1.48858e-22)
(0.970164 0.0100839 2.36626e-22)
(0.973006 0.0137501 -1.06604e-22)
(0.975427 0.0172809 -2.18976e-23)
(0.977406 0.021474 0)
(0.979204 0.0247949 -4.84962e-23)
(0.980608 0.0306169 -1.36827e-23)
(0.982036 0.0326055 1.18192e-23)
(0.983079 0.0423059 5.00382e-23)
(0.98424 0.0409629 -4.44734e-23)
(0.985154 0.0565695 1.39603e-24)
(0.986087 0.0524366 1.09178e-24)
(0.987043 0.0714708 1.67649e-23)
(0.987736 0.0694102 1.11409e-23)
(0.98911 0.0896998 -8.32267e-25)
(0.271058 -0.186306 5.16715e-20)
(0.329034 -0.250556 -4.96518e-20)
(0.39089 -0.301528 0)
(0.460094 -0.336207 1.74989e-20)
(0.539244 -0.35916 -1.64032e-20)
(0.617939 -0.356004 7.49578e-23)
(0.686456 -0.323432 0)
(0.742153 -0.271049 -1.16074e-22)
(0.785471 -0.213798 0)
(0.818085 -0.162708 2.09814e-22)
(0.843778 -0.123573 5.73823e-21)
(0.864567 -0.0949701 -5.47406e-21)
(0.881062 -0.0743318 -4.14985e-21)
(0.89405 -0.0597803 7.21497e-21)
(0.904769 -0.0493136 -3.08475e-21)
(0.914487 -0.0407672 -7.64864e-23)
(0.923795 -0.0327975 0)
(0.932606 -0.025236 8.29155e-22)
(0.94064 -0.018447 -6.55876e-22)
(0.947745 -0.0126183 3.55062e-23)
(0.953951 -0.00761872 -3.05767e-23)
(0.959333 -0.0031823 -3.82037e-22)
(0.96394 0.00107249 3.637e-22)
(0.967862 0.00507984 2.70431e-22)
(0.971223 0.00891945 -2.89889e-22)
(0.974049 0.0128161 0)
(0.976474 0.0165203 2.20833e-23)
(0.978483 0.0208595 3.90869e-23)
(0.98031 0.0242701 -9.39907e-23)
(0.981756 0.030202 6.65609e-23)
(0.983243 0.0322152 9.90461e-23)
(0.984317 0.0420193 -2.58201e-23)
(0.985585 0.040663 -5.3531e-23)
(0.986532 0.0563412 1.72288e-23)
(0.987565 0.0522236 2.15948e-23)
(0.988658 0.0712668 -3.35365e-23)
(0.989369 0.0692292 8.72075e-24)
(0.990974 0.0895358 -1.69415e-24)
(0.649563 -0.212409 4.34978e-22)
(0.69011 -0.286125 4.38026e-20)
(0.740574 -0.342225 -7.54097e-20)
(0.789795 -0.389261 3.15598e-20)
(0.834749 -0.416385 2.7658e-22)
(0.866152 -0.408713 -7.69314e-23)
(0.879601 -0.367373 0)
(0.881651 -0.305486 0)
(0.881015 -0.240709 0)
(0.881619 -0.183715 5.26951e-21)
(0.885311 -0.139293 -4.97424e-21)
(0.892729 -0.107062 -1.33034e-22)
(0.901742 -0.0837667 2.49784e-22)
(0.91041 -0.0671254 -1.10187e-22)
(0.918207 -0.0552968 -1.79482e-22)
(0.925497 -0.0460647 0)
(0.932553 -0.0376815 -1.89247e-21)
(0.939291 -0.0296406 1.75207e-21)
(0.945545 -0.0222703 -8.78087e-23)
(0.951246 -0.0158619 0)
(0.956423 -0.0103351 6.12823e-23)
(0.961144 -0.00542058 0)
(0.965365 -0.000804155 4.35859e-23)
(0.969063 0.00353727 -3.84386e-23)
(0.972314 0.00765865 3.1295e-23)
(0.975105 0.0117915 0)
(0.977524 0.0156755 0)
(0.979556 0.020168 -1.9236e-22)
(0.981409 0.0236721 2.42494e-22)
(0.982893 0.0297179 -1.23954e-23)
(0.984439 0.0317581 -1.08134e-22)
(0.985542 0.0416664 -8.2072e-23)
(0.986917 0.0403035 1.49595e-22)
(0.987898 0.0560538 -3.54983e-23)
(0.98903 0.0519541 -2.62431e-23)
(0.990264 0.0710199 0)
(0.99099 0.0690017 -1.05249e-23)
(0.992838 0.0893488 0)
(0.966001 -0.217915 -4.51717e-22)
(0.995262 -0.289569 0)
(1.02459 -0.346531 6.12109e-22)
(1.04613 -0.394759 -4.47458e-22)
(1.05756 -0.42489 -6.04648e-22)
(1.04211 -0.415955 1.95661e-22)
(1.00295 -0.371527 2.14912e-21)
(0.959415 -0.309991 -8.13431e-22)
(0.925902 -0.247666 -1.24301e-21)
(0.906509 -0.193941 0)
(0.898762 -0.151329 -2.55322e-22)
(0.899615 -0.118462 1.37466e-22)
(0.905694 -0.0934781 3.43652e-21)
(0.913598 -0.0748913 -3.4876e-21)
(0.921576 -0.0614316 9.03033e-23)
(0.929194 -0.0511077 -2.20045e-21)
(0.936357 -0.0420065 3.69155e-22)
(0.942919 -0.0333451 3.45102e-21)
(0.948795 -0.0253844 -1.54321e-21)
(0.95403 -0.0184923 1.22234e-21)
(0.958743 -0.0126162 -6.09333e-23)
(0.963061 -0.00743318 -1.02609e-22)
(0.966943 -0.00269329 -7.80421e-22)
(0.970387 0.00198869 1.55463e-22)
(0.973487 0.0063721 0)
(0.976205 0.0107229 0)
(0.978591 0.0147753 0)
(0.980628 0.0194178 0)
(0.982497 0.0230124 1.72673e-22)
(0.984015 0.0291737 -1.30667e-22)
(0.985617 0.0312411 -1.54243e-22)
(0.986751 0.0412533 9.57872e-23)
(0.988228 0.0398876 -1.0787e-22)
(0.98925 0.0557101 6.64126e-23)
(0.990475 0.0516317 2.46505e-23)
(0.991861 0.0707291 1.05506e-23)
(0.992595 0.0687294 6.981e-24)
(0.994702 0.0891323 0)
(1.22042 -0.214918 0)
(1.2296 -0.276395 8.75998e-20)
(1.23533 -0.325761 -8.31478e-20)
(1.21989 -0.368358 -5.35484e-20)
(1.18508 -0.390828 5.13354e-20)
(1.13028 -0.381168 2.89268e-23)
(1.0592 -0.34466 9.99252e-23)
(0.993769 -0.295419 0)
(0.948134 -0.245969 2.17104e-21)
(0.922245 -0.201452 -2.0875e-21)
(0.911269 -0.162676 1.13276e-22)
(0.909767 -0.130956 -6.67704e-21)
(0.913381 -0.105569 1.29203e-20)
(0.919622 -0.0854252 -1.71679e-22)
(0.926729 -0.0703944 -5.61018e-21)
(0.933732 -0.0587967 -7.59206e-23)
(0.94023 -0.0486241 -6.68889e-23)
(0.946147 -0.0388822 0)
(0.951518 -0.0298152 0)
(0.956389 -0.0219407 -1.08432e-25)
(0.9608 -0.0153207 3.34413e-25)
(0.964822 -0.00962189 5.66154e-23)
(0.968512 -0.00454583 -4.7974e-23)
(0.971799 0.000438192 -3.96981e-23)
(0.974711 0.0050382 5.26393e-22)
(0.977329 0.00960477 -5.00721e-22)
(0.979665 0.0138245 -5.14228e-23)
(0.981696 0.0186195 0)
(0.983573 0.0222997 3.80337e-23)
(0.985121 0.0285797 0)
(0.986771 0.0306723 1.59039e-22)
(0.987941 0.04079 -1.23057e-22)
(0.989511 0.0394255 0)
(0.990587 0.0553186 -2.68743e-23)
(0.991894 0.0512674 5.28828e-23)
(0.993447 0.0704022 -2.06267e-23)
(0.994183 0.0684238 0)
(0.996565 0.0888931 3.65624e-24)
(1.35638 -0.183977 -1.8109e-22)
(1.34259 -0.229944 0)
(1.31864 -0.270037 -7.06883e-20)
(1.27304 -0.306637 6.72548e-20)
(1.20872 -0.321379 4.06846e-20)
(1.13549 -0.316312 -3.89644e-20)
(1.06649 -0.298885 0)
(1.00957 -0.269203 -7.98204e-21)
(0.96928 -0.234072 7.59354e-21)
(0.945635 -0.198007 0)
(0.933174 -0.164282 -1.58341e-23)
(0.927776 -0.135653 -1.27705e-22)
(0.927896 -0.111396 3.86525e-23)
(0.931295 -0.0911685 5.70636e-21)
(0.936263 -0.074844 -5.38667e-21)
(0.941682 -0.062342 -4.56275e-21)
(0.946691 -0.0519601 4.33378e-21)
(0.951194 -0.0422286 3.40531e-21)
(0.955434 -0.0330207 -3.23571e-21)
(0.959538 -0.0248124 -1.22472e-22)
(0.96344 -0.0178111 -1.08854e-21)
(0.967054 -0.0117879 1.83595e-21)
(0.970394 -0.00638268 -8.49285e-22)
(0.973389 -0.00133644 6.05875e-22)
(0.976081 0.00361258 -9.88663e-23)
(0.97856 0.00839772 -5.25077e-22)
(0.980806 0.0127798 -3.54779e-22)
(0.982798 0.0177332 4.10009e-22)
(0.984664 0.0215105 -3.8915e-23)
(0.986229 0.0279181 3.41433e-23)
(0.987914 0.0300454 1.38021e-22)
(0.989124 0.0402707 3.69239e-23)
(0.990768 0.0389161 -6.6287e-23)
(0.991916 0.0548771 -1.66813e-23)
(0.993285 0.0508603 0)
(0.995023 0.0700323 6.47104e-24)
(0.995749 0.0680839 -1.85142e-23)
(0.998429 0.0886139 3.81559e-24)
(1.33582 -0.141188 9.82707e-20)
(1.31755 -0.170986 0)
(1.28748 -0.20499 7.18211e-20)
(1.24205 -0.239033 -1.28041e-19)
(1.18757 -0.262508 5.65248e-20)
(1.1315 -0.275765 0)
(1.08339 -0.278193 0)
(1.04334 -0.268415 0)
(1.00703 -0.249093 0)
(0.97875 -0.222679 0)
(0.960295 -0.19301 1.69173e-23)
(0.949805 -0.162706 3.81678e-21)
(0.945345 -0.134376 -3.63283e-21)
(0.945266 -0.109386 -4.27401e-23)
(0.947469 -0.0885565 0)
(0.950376 -0.0723669 0)
(0.953396 -0.0592725 -6.64574e-23)
(0.956322 -0.0477645 0)
(0.95936 -0.0373411 3.02984e-21)
(0.962642 -0.0281645 -2.82972e-21)
(0.966006 -0.0203727 1.07606e-21)
(0.969252 -0.0137643 -1.06835e-22)
(0.972302 -0.00799263 -8.45088e-22)
(0.975125 -0.00283668 0)
(0.977649 0.00224974 6.22802e-22)
(0.979934 0.00728659 -1.05623e-21)
(0.98207 0.0118285 4.75654e-22)
(0.984002 0.0169333 -2.392e-23)
(0.985834 0.0207579 0)
(0.987397 0.0272948 -3.49699e-23)
(0.989094 0.0294 -2.96898e-23)
(0.990343 0.0397533 -1.20386e-22)
(0.992028 0.0383658 6.92718e-23)
(0.993266 0.0544101 1.68576e-23)
(0.994664 0.0504172 0)
(0.996606 0.0696327 -9.43805e-24)
(0.9973 0.0677253 0)
(1.0003 0.0883271 -3.76032e-24)
(1.2772 -0.0912981 0)
(1.27477 -0.118188 0)
(1.25172 -0.143639 0)
(1.21911 -0.167281 0)
(1.18314 -0.187348 0)
(1.14771 -0.201382 0)
(1.11287 -0.206296 0)
(1.07865 -0.205399 0)
(1.04621 -0.196518 0)
(1.01794 -0.181181 0)
(0.995908 -0.162518 0)
(0.980021 -0.142692 0)
(0.969369 -0.12317 0)
(0.963127 -0.104884 0)
(0.960378 -0.0888955 0)
(0.959961 -0.0751379 0)
(0.960685 -0.0630833 0)
(0.961855 -0.0519983 0)
(0.963514 -0.0416259 0)
(0.96579 -0.0321895 0)
(0.968481 -0.0239152 0)
(0.971276 -0.0167333 0)
(0.973987 -0.0103965 0)
(0.976607 -0.00461466 0)
(0.979082 0.000637771 0)
(0.981306 0.00577825 0)
(0.983354 0.0104758 0)
(0.985231 0.0157436 0)
(0.987035 0.0197062 0)
(0.988598 0.026369 0)
(0.990295 0.0285768 0)
(0.9916 0.0390042 0)
(0.993292 0.0377058 0)
(0.994648 0.0537782 0)
(0.996045 0.0498676 0)
(0.998188 0.0691131 0)
(0.998845 0.0672692 0)
(1.00212 0.0879776 0)
(1.24757 -0.0774456 0)
(1.24975 -0.110515 0)
(1.23206 -0.139497 0)
(1.2038 -0.164958 0)
(1.17291 -0.186108 0)
(1.14085 -0.201447 0)
(1.10801 -0.20963 0)
(1.07604 -0.209813 0)
(1.04558 -0.201946 0)
(1.01857 -0.187117 0)
(0.997221 -0.168073 0)
(0.981751 -0.147563 0)
(0.971615 -0.127196 0)
(0.96585 -0.10787 0)
(0.963269 -0.0906163 0)
(0.962911 -0.07579 0)
(0.963743 -0.062898 0)
(0.964954 -0.0513433 0)
(0.966457 -0.0409203 0)
(0.968412 -0.0316798 0)
(0.970735 -0.0236509 0)
(0.973226 -0.016672 0)
(0.975744 -0.0104693 0)
(0.978155 -0.00473186 0)
(0.98039 0.000465836 0)
(0.982516 0.00555024 0)
(0.984562 0.0101923 0)
(0.986425 0.0154171 0)
(0.988228 0.0193794 0)
(0.989803 0.0260223 0)
(0.991508 0.0282427 0)
(0.992881 0.0386613 0)
(0.994565 0.0373421 0)
(0.996072 0.0534473 0)
(0.997436 0.0494613 0)
(0.999805 0.0687695 0)
(1.00042 0.0668495 0)
(1.00397 0.0876422 0)
(1.21748 -0.0674231 0)
(1.2225 -0.0941894 0)
(1.21022 -0.118389 0)
(1.18748 -0.13805 0)
(1.16142 -0.153477 0)
(1.13452 -0.164369 0)
(1.10751 -0.169665 0)
(1.08092 -0.169535 0)
(1.05485 -0.164636 0)
(1.03089 -0.155197 0)
(1.01085 -0.142318 0)
(0.995195 -0.128064 0)
(0.984126 -0.113442 0)
(0.977001 -0.0988536 0)
(0.972654 -0.0852868 0)
(0.970435 -0.0731993 0)
(0.9697 -0.0621043 0)
(0.969743 -0.0516079 0)
(0.970398 -0.0417961 0)
(0.971718 -0.0328786 0)
(0.973534 -0.0249557 0)
(0.975592 -0.017951 0)
(0.977743 -0.011699 0)
(0.979926 -0.00596763 0)
(0.982084 -0.000592515 0)
(0.984101 0.0047462 0)
(0.986012 0.00955928 0)
(0.987799 0.0148982 0)
(0.989568 0.0189454 0)
(0.991136 0.0256395 0)
(0.992838 0.0278981 0)
(0.99428 0.0383467 0)
(0.995944 0.0370103 0)
(0.997624 0.0531768 0)
(0.99894 0.0490976 0)
(1.00156 0.0684869 0)
(1.00215 0.0664665 0)
(1.00597 0.0872885 0)
(1.19056 -0.0575806 0)
(1.19584 -0.0797366 0)
(1.18758 -0.10086 0)
(1.16954 -0.118817 0)
(1.14782 -0.133664 0)
(1.12515 -0.144968 0)
(1.10193 -0.152524 0)
(1.07908 -0.15607 0)
(1.05689 -0.1551 0)
(1.0364 -0.149413 0)
(1.01868 -0.139516 0)
(1.00405 -0.127156 0)
(0.993184 -0.113701 0)
(0.985687 -0.0997649 0)
(0.98051 -0.0864223 0)
(0.977322 -0.0742538 0)
(0.975675 -0.0629165 0)
(0.974891 -0.0522134 0)
(0.974821 -0.0423587 0)
(0.97552 -0.0335183 0)
(0.976805 -0.0256863 0)
(0.978434 -0.0187162 0)
(0.980252 -0.0123997 0)
(0.982131 -0.00652636 0)
(0.984005 -0.00111167 0)
(0.985835 0.00413417 0)
(0.987647 0.00895964 0)
(0.989352 0.0143415 0)
(0.991073 0.0184349 0)
(0.992623 0.0251731 0)
(0.994311 0.0274541 0)
(0.995821 0.037954 0)
(0.997461 0.0365901 0)
(0.999319 0.0528357 0)
(1.00059 0.0486728 0)
(1.00346 0.0681395 0)
(1.00404 0.0660475 0)
(1.00815 0.0868761 0)
(1.16583 -0.0510634 0)
(1.17134 -0.0691855 0)
(1.1662 -0.0870101 0)
(1.15241 -0.10271 0)
(1.13487 -0.115704 0)
(1.1162 -0.125713 0)
(1.09709 -0.132419 0)
(1.07864 -0.135391 0)
(1.06051 -0.134526 0)
(1.04314 -0.130217 0)
(1.02734 -0.122751 0)
(1.01333 -0.113176 0)
(1.00227 -0.102698 0)
(0.994163 -0.091695 0)
(0.988056 -0.0808357 0)
(0.983916 -0.0706226 0)
(0.981474 -0.0607514 0)
(0.979985 -0.051103 0)
(0.979308 -0.0420133 0)
(0.979519 -0.0336986 0)
(0.980368 -0.02617 0)
(0.981562 -0.0193576 0)
(0.982977 -0.0131516 0)
(0.984539 -0.0073597 0)
(0.986189 -0.00191969 0)
(0.987836 0.00342979 0)
(0.989499 0.00831657 0)
(0.991095 0.0137494 0)
(0.99275 0.0178772 0)
(0.994273 0.0246601 0)
(0.995943 0.0269442 0)
(0.997517 0.0375075 0)
(0.999133 0.0360825 0)
(1.00117 0.0524187 0)
(1.0024 0.0481525 0)
(1.00552 0.0676901 0)
(1.0061 0.0655332 0)
(1.01053 0.0863681 0)
(1.14423 -0.0463736 0)
(1.14977 -0.0607435 0)
(1.14684 -0.07531 0)
(1.13657 -0.0884773 0)
(1.12277 -0.0995775 0)
(1.1078 -0.108291 0)
(1.09235 -0.114305 0)
(1.07729 -0.117639 0)
(1.06201 -0.1183 0)
(1.04697 -0.116401 0)
(1.0331 -0.111857 0)
(1.0203 -0.105055 0)
(1.00978 -0.0968965 0)
(1.00179 -0.0877522 0)
(0.995332 -0.0782093 0)
(0.990626 -0.0688952 0)
(0.987633 -0.0596949 0)
(0.98555 -0.0505501 0)
(0.984241 -0.0418632 0)
(0.983875 -0.0338946 0)
(0.984212 -0.0266328 0)
(0.984954 -0.0199757 0)
(0.985989 -0.0138173 0)
(0.987231 -0.00801119 0)
(0.988605 -0.00256705 0)
(0.990031 0.00277911 0)
(0.991539 0.00768206 0)
(0.99302 0.013147 0)
(0.994601 0.0172919 0)
(0.996093 0.0241223 0)
(0.997738 0.0263852 0)
(0.999374 0.0370196 0)
(1.00097 0.0354976 0)
(1.00318 0.0519383 0)
(1.00438 0.0475424 0)
(1.00778 0.0671504 0)
(1.00834 0.0649165 0)
(1.01313 0.0857557 0)
(1.12599 -0.0424101 0)
(1.13119 -0.0537397 0)
(1.12974 -0.065421 0)
(1.12216 -0.0762071 0)
(1.1114 -0.0855411 0)
(1.09959 -0.0930908 0)
(1.0871 -0.0986183 0)
(1.07474 -0.102246 0)
(1.06205 -0.103776 0)
(1.04945 -0.103065 0)
(1.03773 -0.100056 0)
(1.02639 -0.0949934 0)
(1.01662 -0.0885928 0)
(1.0089 -0.0811831 0)
(1.00224 -0.0732016 0)
(0.997067 -0.0652308 0)
(0.993643 -0.0572043 0)
(0.991091 -0.0490193 0)
(0.989232 -0.0410617 0)
(0.988359 -0.0336322 0)
(0.988261 -0.0267379 0)
(0.98859 -0.0203138 0)
(0.989229 -0.0143059 0)
(0.990121 -0.00858516 0)
(0.991223 -0.0031664 0)
(0.99244 0.00216665 0)
(0.993782 0.00706024 0)
(0.995136 0.0125394 0)
(0.996634 0.0166797 0)
(0.998089 0.0235533 0)
(0.999704 0.0257638 0)
(1.0014 0.0364814 0)
(1.00298 0.0348318 0)
(1.00538 0.0513941 0)
(1.00654 0.0468483 0)
(1.01025 0.0665216 0)
(1.01078 0.0642072 0)
(1.01597 0.0850383 0)
(1.11043 -0.0392417 0)
(1.11504 -0.048199 0)
(1.1145 -0.0574674 0)
(1.10897 -0.0661765 0)
(1.10076 -0.0739037 0)
(1.09156 -0.0803387 0)
(1.08153 -0.0852996 0)
(1.07159 -0.0888 0)
(1.06131 -0.0906191 0)
(1.0509 -0.0906281 0)
(1.04111 -0.088845 0)
(1.03122 -0.0853734 0)
(1.02234 -0.0806483 0)
(1.01512 -0.0748835 0)
(1.00853 -0.0683603 0)
(1.00313 -0.0615952 0)
(0.999476 -0.0546044 0)
(0.99665 -0.047289 0)
(0.994376 -0.0400065 0)
(0.993036 -0.0330919 0)
(0.992485 -0.026581 0)
(0.992388 -0.0204268 0)
(0.992664 -0.0146129 0)
(0.993259 -0.00905161 0)
(0.994079 -0.00376717 0)
(0.995048 0.00152861 0)
(0.996216 0.00641696 0)
(0.997445 0.0119098 0)
(0.998855 0.0160279 0)
(1.00027 0.0229423 0)
(1.00185 0.0250719 0)
(1.00361 0.0358889 0)
(1.00517 0.0340752 0)
(1.00776 0.0507746 0)
(1.0089 0.0460528 0)
(1.01293 0.0657836 0)
(1.01344 0.063389 0)
(1.01908 0.0841939 0)
(1.09703 -0.036844 0)
(1.1011 -0.0437867 0)
(1.10122 -0.0509724 0)
(1.09733 -0.0578469 0)
(1.09114 -0.0641059 0)
(1.084 -0.0694768 0)
(1.07606 -0.0737502 0)
(1.06823 -0.0769032 0)
(1.06 -0.0788002 0)
(1.05146 -0.0793131 0)
(1.04337 -0.0784323 0)
(1.03491 -0.0761715 0)
(1.02704 -0.0727703 0)
(1.02053 -0.0683583 0)
(1.01425 -0.0630898 0)
(1.00882 -0.0574072 0)
(1.00508 -0.0514057 0)
(1.0021 -0.045002 0)
(0.999487 -0.0384991 0)
(0.997752 -0.032224 0)
(0.996847 -0.0262073 0)
(0.996391 -0.020389 0)
(0.996278 -0.0147745 0)
(0.996509 -0.00931086 0)
(0.997092 -0.00405873 0)
(0.9979 0.0011695 0)
(0.998894 0.00591862 0)
(0.999975 0.0113397 0)
(1.00128 0.0153729 0)
(1.00265 0.0223072 0)
(1.00419 0.0243147 0)
(1.00602 0.0352392 0)
(1.00755 0.0332139 0)
(1.01036 0.050064 0)
(1.01145 0.0451323 0)
(1.01585 0.0649149 0)
(1.01632 0.0624317 0)
(1.02246 0.0831925 0)
(1.08583 -0.0352668 0)
(1.08944 -0.0404789 0)
(1.08998 -0.0459291 0)
(1.08725 -0.05125 0)
(1.08256 -0.0562057 0)
(1.07707 -0.0605361 0)
(1.07086 -0.064058 0)
(1.06478 -0.0667729 0)
(1.05826 -0.0685813 0)
(1.0513 -0.0693321 0)
(1.04473 -0.068991 0)
(1.03763 -0.0675503 0)
(1.03082 -0.0651345 0)
(1.02513 -0.0618079 0)
(1.01934 -0.0576287 0)
(1.01404 -0.0529329 0)
(1.01032 -0.0478592 0)
(1.0073 -0.0423425 0)
(1.00449 -0.0365971 0)
(1.00245 -0.0309305 0)
(1.00124 -0.0254269 0)
(1.0005 -0.0200557 0)
(1.00015 -0.014825 0)
(1.00016 -0.00968511 0)
(1.00043 -0.00471495 0)
(1.00088 0.000339824 0)
(1.00166 0.00511269 0)
(1.00265 0.0105923 0)
(1.00388 0.0145968 0)
(1.00522 0.0215903 0)
(1.00672 0.0234567 0)
(1.00863 0.0345084 0)
(1.01013 0.0322239 0)
(1.01318 0.049243 0)
(1.01421 0.0440632 0)
(1.01904 0.063891 0)
(1.01944 0.0613053 0)
(1.02614 0.0820034 0)
(1.07691 -0.0333858 0)
(1.07996 -0.0372866 0)
(1.08065 -0.0414128 0)
(1.07873 -0.0454987 0)
(1.07522 -0.0493498 0)
(1.07106 -0.0527687 0)
(1.06622 -0.0556294 0)
(1.06153 -0.0579388 0)
(1.05641 -0.0595937 0)
(1.05082 -0.0604263 0)
(1.04556 -0.0604025 0)
(1.03967 -0.0595321 0)
(1.03387 -0.0578683 0)
(1.02902 -0.0554181 0)
(1.02382 -0.0521839 0)
(1.01878 -0.0483852 0)
(1.0152 -0.044151 0)
(1.01227 -0.0394395 0)
(1.00938 -0.0344004 0)
(1.00711 -0.0292974 0)
(1.00563 -0.0242216 0)
(1.0046 -0.0191524 0)
(1.00389 -0.0141292 0)
(1.00357 -0.00913955 0)
(1.0037 -0.00427425 0)
(1.0042 0.000720951 0)
(1.00492 0.00519742 0)
(1.00571 0.0104212 0)
(1.00678 0.0141413 0)
(1.00804 0.0210324 0)
(1.00948 0.0226186 0)
(1.01146 0.0337597 0)
(1.01291 0.0311249 0)
(1.01624 0.0483206 0)
(1.01719 0.0428334 0)
(1.02249 0.0626947 0)
(1.02282 0.0599855 0)
(1.03015 0.0805962 0)
(1.0695 -0.0329089 0)
(1.07204 -0.0357071 0)
(1.07281 -0.0386879 0)
(1.07149 -0.0416649 0)
(1.06888 -0.0444795 0)
(1.06573 -0.047003 0)
(1.06193 -0.0491534 0)
(1.05835 -0.0509333 0)
(1.05441 -0.0522552 0)
(1.04999 -0.0529718 0)
(1.04586 -0.0530511 0)
(1.04105 -0.0525014 0)
(1.03618 -0.0513354 0)
(1.03216 -0.0495238 0)
(1.02761 -0.0470335 0)
(1.02297 -0.0440005 0)
(1.01965 -0.0405382 0)
(1.01693 -0.036632 0)
(1.01411 -0.0323861 0)
(1.01177 -0.0280068 0)
(1.01018 -0.0235891 0)
(1.00902 -0.0191175 0)
(1.0082 -0.0146079 0)
(1.00773 -0.0100262 0)
(1.00754 -0.00549774 0)
(1.00748 -0.000804653 0)
(1.0078 0.00361192 0)
(1.00853 0.00893373 0)
(1.0096 0.0126911 0)
(1.0109 0.0197895 0)
(1.01235 0.0212615 0)
(1.01447 0.0326664 0)
(1.01588 0.0296993 0)
(1.01954 0.0471517 0)
(1.02037 0.0413326 0)
(1.02624 0.0612325 0)
(1.02645 0.0583961 0)
(1.03451 0.0788882 0)
(1.06419 -0.0308112 0)
(1.06631 -0.0327671 0)
(1.06711 -0.0349038 0)
(1.06621 -0.0370692 0)
(1.06427 -0.0391279 0)
(1.06187 -0.0409894 0)
(1.05886 -0.0425936 0)
(1.05609 -0.0439452 0)
(1.05299 -0.0449746 0)
(1.04942 -0.0455602 0)
(1.04617 -0.0456751 0)
(1.04222 -0.0453136 0)
(1.03813 -0.0444577 0)
(1.03484 -0.0430583 0)
(1.03091 -0.0410644 0)
(1.02666 -0.0385553 0)
(1.02359 -0.0356185 0)
(1.02107 -0.0322499 0)
(1.01832 -0.0285229 0)
(1.01591 -0.0245932 0)
(1.01418 -0.0205444 0)
(1.01284 -0.0163762 0)
(1.01179 -0.0121354 0)
(1.01112 -0.00781423 0)
(1.01091 -0.00354058 0)
(1.01119 0.000973929 0)
(1.01177 0.00509054 0)
(1.01236 0.0100853 0)
(1.01324 0.0133727 0)
(1.01441 0.0201863 0)
(1.0157 0.0210692 0)
(1.01788 0.0324058 0)
(1.01915 0.0287637 0)
(1.02316 0.0463056 0)
(1.0238 0.0399424 0)
(1.03032 0.0597648 0)
(1.03036 0.0567066 0)
(1.03926 0.076997 0)
(1.05964 -0.0316685 0)
(1.06133 -0.0328844 0)
(1.06204 -0.0342767 0)
(1.0614 -0.0357177 0)
(1.05995 -0.0371022 0)
(1.05816 -0.03837 0)
(1.0558 -0.0394712 0)
(1.05374 -0.0404134 0)
(1.0514 -0.0411365 0)
(1.0486 -0.0415261 0)
(1.04616 -0.0415818 0)
(1.04304 -0.0413187 0)
(1.03975 -0.0406959 0)
(1.03721 -0.0396504 0)
(1.03395 -0.0381336 0)
(1.0302 -0.0361865 0)
(1.02752 -0.0338635 0)
(1.02534 -0.0311583 0)
(1.02283 -0.0281184 0)
(1.02055 -0.024854 0)
(1.01886 -0.02143 0)
(1.01752 -0.0178362 0)
(1.01642 -0.0140968 0)
(1.01562 -0.0101759 0)
(1.0151 -0.00622837 0)
(1.01464 -0.00200134 0)
(1.01457 0.00186869 0)
(1.01504 0.00682808 0)
(1.01591 0.010026 0)
(1.0172 0.0170832 0)
(1.01855 0.017808 0)
(1.02101 0.0296416 0)
(1.02227 0.0256239 0)
(1.02679 0.0437237 0)
(1.02728 0.0370104 0)
(1.03458 0.0570448 0)
(1.03449 0.0538851 0)
(1.0443 0.0741123 0)
(1.05779 -0.0279294 0)
(1.05908 -0.0286472 0)
(1.05962 -0.0294855 0)
(1.05905 -0.0303413 0)
(1.05784 -0.0311393 0)
(1.05638 -0.0318477 0)
(1.0544 -0.0324416 0)
(1.05274 -0.03294 0)