/*--------------------------------*- C++ -*----------------------------------*\
| =========                 |                                                 |
| \\      /  F ield         | OpenFOAM: The Open Source CFD Toolbox           |
|  \\    /   O peration     | Version:  2312                                  |
|   \\  /    A nd           | Website:  www.openfoam.com                      |
|    \\/     M anipulation  |                                                 |
\*---------------------------------------------------------------------------*/
FoamFile
{
    version     2.0;
    format      ascii;
    arch        "LSB;label=32;scalar=64";
    class       volVectorField;
    location    "57";
    object      U;
}
// * * * * * * * * * * * * * * * * * * * * * * * * * * * * * * * * * * * * * //

dimensions      [0 1 -1 0 0 0 0];

internalField   nonuniform List<vector> 
5478
(
(-0.0332762 0.0251384 -1.07894e-19)
(-0.0537872 0.0520847 0)
(-0.0212813 0.0614793 1.62678e-19)
(0.0690952 0.0565918 -2.85515e-19)
(0.22594 0.0459247 1.88143e-19)
(0.442726 0.0361138 -5.48073e-20)
(0.690714 0.0293219 -9.86804e-20)
(0.933161 0.0235808 0)
(1.13669 0.0168046 0)
(1.28026 0.00377583 1.32408e-19)
(1.35578 -0.0150879 -6.09813e-20)
(1.36918 -0.034245 -9.94892e-20)
(1.33925 -0.0688788 -3.7213e-20)
(1.29437 -0.065883 0)
(1.23104 -0.125349 8.93334e-20)
(-0.0388441 0.0226068 2.16175e-19)
(-0.0424066 0.0335931 0)
(0.0330204 0.0302829 0)
(0.200343 0.0237095 -1.43259e-19)
(0.450351 0.0245004 1.89068e-19)
(0.733622 0.0339292 5.52673e-20)
(0.993618 0.0462298 -9.5713e-20)
(1.19179 0.0544475 8.48661e-20)
(1.3128 0.0529499 2.12056e-19)
(1.36159 0.0406748 -1.8549e-19)
(1.35786 0.0226648 5.10421e-21)
(1.32799 -0.00155479 0)
(1.29577 -0.017057 3.71481e-20)
(1.2655 -0.0326334 0)
(1.24459 -0.0499365 0)
(-0.040769 0.020054 -5.50481e-22)
(-0.00855665 0.0188666 -1.00061e-19)
(0.145139 0.0120965 5.63474e-22)
(0.418474 0.0194267 0)
(0.739284 0.0426247 -6.35281e-20)
(1.02044 0.0694116 5.42963e-20)
(1.21532 0.0881712 4.61574e-20)
(1.31808 0.0929795 0)
(1.34942 0.0845311 -7.00162e-20)
(1.34098 0.0691667 5.91905e-20)
(1.32044 0.0501317 4.94797e-20)
(1.3024 0.0368556 0)
(1.28436 0.0200609 0)
(1.26577 0.014845 -9.77785e-20)
(1.24027 -0.00313348 8.73641e-20)
(-0.0340373 0.0148312 -1.16119e-19)
(0.0603963 0.00462711 9.88322e-20)
(0.327078 0.0117307 -8.55116e-20)
(0.689233 0.0476036 7.53058e-20)
(1.00723 0.0890631 1.27193e-19)
(1.21442 0.117487 -1.0774e-19)
(1.31419 0.12741 -4.61301e-20)
(1.34272 0.12255 3.67159e-20)
(1.33894 0.11078 -3.47651e-20)
(1.32675 0.0963229 0)
(1.31281 0.0842645 0)
(1.29412 0.0694621 -6.87864e-20)
(1.27127 0.0590049 8.91239e-20)
(1.24616 0.0474768 -4.99407e-20)
(1.22043 0.0318802 0)
(-0.0146333 0.0067101 5.86843e-20)
(0.177237 -0.00388914 4.98242e-20)
(0.564028 0.0389863 -1.78408e-19)
(0.942824 0.100363 2.13015e-21)
(1.18946 0.143194 -1.75554e-21)
(1.30659 0.160825 -1.28847e-21)
(1.34311 0.160677 4.31923e-20)
(1.34372 0.15221 3.72105e-20)
(1.33149 0.140298 2.69958e-20)
(1.31331 0.127973 -3.87949e-21)
(1.29108 0.113661 -6.19934e-20)
(1.26875 0.101148 0)
(1.24875 0.0891017 2.81764e-20)
(1.23105 0.0773199 -2.06845e-20)
(1.21616 0.0689349 3.73136e-20)
(0.0234322 -0.00229363 -1.25369e-19)
(0.346618 0.0081195 1.36056e-19)
(0.802439 0.0933466 -4.68578e-20)
(1.1279 0.16236 3.59969e-20)
(1.28932 0.194584 -6.59533e-20)
(1.3445 0.201125 -5.00416e-20)
(1.3491 0.195119 1.08865e-21)
(1.33411 0.183653 0)
(1.31296 0.17041 5.45438e-20)
(1.29174 0.156076 -4.85048e-20)
(1.27332 0.143171 1.96305e-20)
(1.25681 0.130525 0)
(1.24013 0.119392 1.20047e-20)
(1.22291 0.108122 -2.11122e-20)
(1.20424 0.0999187 0)
(0.0853677 -0.00535739 -1.56784e-20)
(0.545411 0.0534564 1.18522e-21)
(0.995374 0.163591 2.29467e-20)
(1.24408 0.225716 3.87944e-20)
(1.33785 0.24491 -3.00508e-20)
(1.3527 0.241944 5.07596e-20)
(1.3375 0.230208 -1.15091e-20)
(1.31549 0.215873 0)
(1.29458 0.201026 -3.19738e-20)
(1.27547 0.186971 2.01525e-21)
(1.25644 0.1729 2.68154e-20)
(1.23718 0.159592 0)
(1.21891 0.146955 -1.74906e-20)
(1.20257 0.134543 0)
(1.18789 0.127506 1.05809e-20)
(0.170329 0.00558902 -1.70656e-20)
(0.731199 0.126879 0)
(1.13287 0.241741 2.40145e-20)
(1.30779 0.289723 0)
(1.35083 0.295041 0)
(1.34126 0.283224 0)
(1.31822 0.266968 -9.93589e-21)
(1.29459 0.249819 0)
(1.27225 0.232979 6.43758e-21)
(1.25134 0.216312 0)
(1.23271 0.20069 -8.39957e-21)
(1.21679 0.186068 0)
(1.20285 0.172686 5.47965e-21)
(1.18985 0.160749 0)
(1.17715 0.153221 3.54237e-21)
(-0.010767 0.130716 -1.14206e-20)
(-0.0341542 0.210992 0)
(-0.0683454 0.216511 1.79737e-20)
(-0.103532 0.200973 0)
(-0.138112 0.182052 0)
(-0.171576 0.15986 0)
(-0.20306 0.130683 -1.20991e-20)
(-0.231616 0.0911315 0)
(-0.256254 0.0384939 1.02907e-20)
(-0.274498 -0.0290615 0)
(-0.285349 -0.111256 -1.72473e-20)
(-0.288758 -0.205042 0)
(-0.283232 -0.305611 1.36391e-20)
(-0.271646 -0.405398 0)
(-0.242871 -0.499006 9.78215e-21)
(-0.0199576 0.140248 5.84193e-20)
(-0.042912 0.237221 -4.22296e-20)
(-0.0672459 0.252051 1.99651e-20)
(-0.0901489 0.240497 6.75321e-20)
(-0.1111 0.222803 8.86357e-22)
(-0.129365 0.200691 -5.49378e-20)
(-0.143912 0.170812 3.68486e-20)
(-0.153858 0.129666 0)
(-0.158382 0.0745314 3.42509e-20)
(-0.157135 0.00419739 1.46727e-21)
(-0.148623 -0.0828584 -1.93368e-20)
(-0.132484 -0.181997 0)
(-0.106881 -0.289731 -4.47437e-20)
(-0.0897602 -0.396612 0)
(-0.0380219 -0.492034 -5.01926e-20)
(-0.0279152 0.13676 9.87515e-20)
(-0.0497821 0.246107 2.20939e-20)
(-0.0612395 0.272106 -3.78503e-20)
(-0.0677276 0.265875 -1.0452e-19)
(-0.0701899 0.249895 6.22949e-20)
(-0.0677511 0.228394 5.93738e-20)
(-0.0592492 0.199059 -1.07183e-19)
(-0.0438072 0.158579 0)
(-0.020356 0.104171 -9.63857e-20)
(0.00990403 0.0334796 8.57018e-20)
(0.0497282 -0.0523077 4.11055e-20)
(0.0944704 -0.151891 0)
(0.161723 -0.253124 3.10789e-20)
(0.196455 -0.365288 -5.60995e-20)
(0.300183 -0.437632 0)
(-0.0327241 0.120595 5.17453e-20)
(-0.0542001 0.23473 -1.35103e-19)
(-0.0534019 0.271965 1.60326e-19)
(-0.0430228 0.272264 -1.43087e-19)
(-0.0258376 0.258528 -6.52311e-20)
(-0.00157509 0.237682 5.97311e-20)
(0.0307917 0.209134 5.45514e-20)
(0.072142 0.170099 5.14359e-20)
(0.123108 0.117194 -1.47018e-19)
(0.184372 0.0481634 -3.77507e-21)
(0.26106 -0.0327319 4.06391e-20)
(0.339612 -0.136153 0)
(0.455694 -0.224096 6.49211e-20)
(0.511561 -0.343964 1.63235e-19)
(0.666573 -0.402192 -9.57011e-20)
(-0.0335873 0.0960089 5.68103e-22)
(-0.0559466 0.204662 9.24425e-20)
(-0.0464404 0.249917 -8.13036e-20)
(-0.0218749 0.256762 7.20455e-20)
(0.0129443 0.245596 1.30257e-19)
(0.0571124 0.225119 -1.1891e-19)
(0.11132 0.196619 -5.44208e-20)
(0.176696 0.157932 -1.56276e-19)
(0.25613 0.10747 1.4113e-19)
(0.352868 0.0411385 0)
(0.469944 -0.0332774 0)
(0.592324 -0.132992 1.44564e-19)
(0.742825 -0.20991 -3.17395e-19)
(0.827403 -0.318117 1.10314e-19)
(0.984276 -0.35861 0)
(-0.0314282 0.0693789 4.43575e-22)
(-0.0553784 0.162387 -9.19957e-20)
(-0.0419545 0.208836 2.4462e-19)
(-0.0078078 0.219446 -7.19726e-20)
(0.0409351 0.210043 -6.50733e-20)
(0.102663 0.189433 5.92232e-20)
(0.178819 0.160215 5.44476e-20)
(0.274331 0.122673 1.0125e-19)
(0.392942 0.0740605 -1.79543e-19)
(0.538951 0.0131855 8.20516e-20)
(0.697161 -0.0561578 7.38916e-20)
(0.867522 -0.137833 0)
(1.01625 -0.196908 0)
(1.12032 -0.284417 1.82621e-19)
(1.2201 -0.29487 -1.63031e-19)
(-0.0288636 0.0468505 6.68106e-23)
(-0.0542325 0.11765 0)
(-0.0402552 0.156753 0)
(0.000276935 0.165934 1.43601e-19)
(0.0625846 0.15638 -6.35872e-20)
(0.147933 0.13599 5.66113e-20)
(0.26202 0.107919 1.05767e-19)
(0.40882 0.0735517 -9.37816e-20)
(0.585187 0.0288183 8.97301e-20)
(0.780132 -0.0180832 -8.21297e-20)
(0.967534 -0.0743929 -6.39749e-21)
(1.13736 -0.124264 0)
(1.24737 -0.170893 4.84379e-20)
(1.31426 -0.223129 0)
(1.31817 -0.220162 0)
(-0.0290766 0.0320924 -1.06467e-19)
(-0.0545788 0.0794375 0)
(-0.0381257 0.104655 -1.62157e-19)
(0.0147388 0.107608 2.85131e-19)
(0.106243 0.0964678 -3.15108e-19)
(0.242461 0.0779442 -5.84132e-20)
(0.423582 0.0554025 1.00322e-19)
(0.636049 0.0305742 0)
(0.858549 0.00277777 0)
(1.06077 -0.0235811 -1.45996e-19)
(1.22235 -0.0588209 -6.33452e-20)
(1.32509 -0.0822815 1.11946e-19)
(1.35961 -0.123204 -4.85308e-20)
(1.35039 -0.141234 0)
(1.29093 -0.152224 -1.07754e-19)
(-0.224289 -0.581655 0)
(-0.187342 -0.648179 4.81004e-21)
(-0.138532 -0.665195 -4.58821e-21)
(-0.0409294 -0.61313 0)
(0.080755 -0.466169 -1.21767e-22)
(0.231644 -0.2112 0)
(0.388844 0.123097 2.39154e-22)
(0.547594 0.442773 0)
(0.655004 0.654913 -1.40342e-22)
(0.670724 0.733752 1.44065e-21)
(0.696105 0.686011 -1.3748e-21)
(0.692964 0.662317 -7.16802e-23)
(0.593295 0.692762 0)
(0.51766 0.576112 2.15033e-22)
(0.546958 0.244922 2.54739e-22)
(0.62717 -0.120644 0)
(0.716713 -0.36254 0)
(0.82074 -0.453335 0)
(0.880859 -0.497526 -7.67048e-23)
(0.786472 -0.581208 0)
(0.639996 -0.586783 0)
(0.629815 -0.333872 -2.27884e-22)
(0.723477 0.0217704 4.00209e-22)
(0.829125 0.255201 1.3725e-22)
(0.854388 0.402822 0)
(0.803495 0.531964 0)
(0.737882 0.515001 0)
(0.713488 0.280801 0)
(0.711293 -0.0615838 -1.75998e-22)
(0.698393 -0.331907 -1.61857e-22)
(0.658356 -0.453383 1.18017e-22)
(0.639764 -0.350356 3.74374e-23)
(0.665054 -0.138135 -1.31017e-23)
(0.740095 0.0864522 0)
(0.767043 0.226922 -8.48667e-24)
(0.764165 0.272241 8.12989e-24)
(0.730099 0.276934 -1.51247e-24)
(0.773476 0.0747282 1.44627e-24)
(-0.042836 -0.588252 3.7983e-21)
(-0.0580101 -0.671705 2.43154e-20)
(-0.07751 -0.717293 0)
(-0.0745912 -0.700168 2.14964e-22)
(-0.0314317 -0.588601 -6.33167e-23)
(0.068598 -0.363545 0)
(0.204043 -0.0358287 -2.40963e-22)
(0.369178 0.305799 9.66337e-21)
(0.492321 0.574147 -9.35834e-21)
(0.571039 0.6904 1.42907e-22)
(0.668642 0.669735 0)
(0.682932 0.692057 7.21779e-23)
(0.604668 0.74461 0)
(0.571918 0.601254 -4.54326e-22)
(0.637554 0.228907 -2.56375e-22)
(0.735163 -0.158732 -5.09935e-22)
(0.803096 -0.408622 4.65216e-21)
(0.853775 -0.491033 -4.44116e-21)
(0.893195 -0.493198 -2.21532e-21)
(0.808836 -0.531293 2.30757e-21)
(0.641902 -0.546713 1.28344e-22)
(0.591584 -0.347805 -1.50587e-21)
(0.682952 -0.0241982 1.52022e-21)
(0.803516 0.217569 1.05415e-21)
(0.840849 0.395669 -1.76293e-21)
(0.786332 0.553084 8.05703e-22)
(0.718206 0.535344 1.93279e-22)
(0.705292 0.288093 0)
(0.715704 -0.0580278 5.98742e-22)
(0.70891 -0.325323 1.62318e-22)
(0.681591 -0.447769 -1.1831e-22)
(0.666049 -0.352893 -2.9485e-22)
(0.683754 -0.14958 2.05063e-22)
(0.746666 0.0757635 1.10843e-23)
(0.765046 0.224813 -3.48244e-24)
(0.755373 0.275589 -1.04911e-22)
(0.725055 0.27598 -8.49477e-23)
(0.778126 0.0706215 6.21741e-24)
(0.281877 -0.53585 5.3196e-20)
(0.249184 -0.618234 -5.11208e-20)
(0.178403 -0.676571 0)
(0.0898659 -0.699555 2.35172e-20)
(0.0164594 -0.650985 -2.21111e-20)
(0.0143881 -0.490004 2.03825e-22)
(0.0827043 -0.200634 0)
(0.21592 0.15215 2.98854e-22)
(0.359855 0.452399 0)
(0.514005 0.60021 -2.34277e-22)
(0.662262 0.632439 -8.69293e-21)
(0.690307 0.710513 8.29279e-21)
(0.635567 0.777906 1.43936e-20)
(0.630826 0.616716 -3.14282e-20)
(0.724882 0.217864 1.63748e-20)
(0.836604 -0.179464 5.17025e-22)
(0.890964 -0.426235 0)
(0.901597 -0.507532 -3.57902e-21)
(0.914852 -0.483446 2.85634e-21)
(0.837643 -0.47746 -1.19985e-22)
(0.671544 -0.49959 8.12966e-23)
(0.588371 -0.365057 1.99117e-21)
(0.668854 -0.0821313 -1.97455e-21)
(0.792047 0.185598 -1.71977e-21)
(0.830637 0.40654 1.7872e-21)
(0.774496 0.571443 0)
(0.70942 0.545269 -1.94928e-22)
(0.708108 0.292985 -4.94004e-22)
(0.729586 -0.0525528 1.30978e-21)
(0.724854 -0.319382 -1.00418e-21)
(0.705294 -0.445799 -9.99023e-22)
(0.695536 -0.357537 3.10559e-22)
(0.707381 -0.16031 1.9845e-22)
(0.755651 0.0669269 -3.93626e-23)
(0.764113 0.224109 -1.13687e-22)
(0.747571 0.279053 2.03185e-22)
(0.722121 0.27378 -6.19558e-23)
(0.784601 0.0658402 1.33691e-23)
(0.635066 -0.485763 4.34084e-22)
(0.61106 -0.536642 3.9104e-20)
(0.542725 -0.556476 -6.44295e-20)
(0.424682 -0.577315 2.53633e-20)
(0.26756 -0.587362 1.62137e-22)
(0.129398 -0.523661 -2.09212e-22)
(0.0762168 -0.336755 0)
(0.135528 -0.027323 0)
(0.281818 0.270733 0)
(0.478802 0.44931 -4.90488e-21)
(0.649258 0.548769 4.62464e-21)
(0.689665 0.691242 2.24172e-22)
(0.646844 0.795304 -6.71882e-22)
(0.669699 0.639205 4.9826e-22)
(0.800475 0.223726 1.19371e-21)
(0.934296 -0.184379 0)
(0.982259 -0.426083 1.0996e-20)
(0.959051 -0.508704 -1.02302e-20)
(0.943613 -0.476424 3.26038e-22)
(0.875668 -0.436458 0)
(0.724231 -0.454515 -2.15062e-22)
(0.621364 -0.373914 0)
(0.678782 -0.133821 -1.97856e-22)
(0.795132 0.140099 1.01284e-22)
(0.832288 0.38798 -1.92422e-22)
(0.767521 0.590967 0)
(0.704803 0.574622 0)
(0.717442 0.307397 2.68532e-21)
(0.750905 -0.0432643 -3.49062e-21)
(0.747194 -0.310689 4.51531e-22)
(0.729484 -0.443518 1.36189e-21)
(0.725533 -0.362923 2.85417e-22)
(0.733893 -0.170283 -3.89769e-22)
(0.766458 0.0596609 3.01813e-23)
(0.763908 0.22492 7.32378e-23)
(0.740563 0.282904 0)
(0.721345 0.27048 8.18076e-23)
(0.792944 0.0604723 0)
(0.939384 -0.446885 -4.50798e-22)
(0.903521 -0.497313 0)
(0.844315 -0.493436 4.94529e-22)
(0.758386 -0.44644 -3.10512e-22)
(0.621888 -0.412146 -3.07881e-22)
(0.423861 -0.408879 2.8542e-23)
(0.239806 -0.352385 -7.06632e-22)
(0.163163 -0.158736 1.45946e-21)
(0.238095 0.0946503 -6.72755e-22)
(0.408122 0.286931 0)
(0.57412 0.455819 1.9046e-22)
(0.634903 0.666862 -2.3167e-22)
(0.638208 0.795363 -1.19842e-20)
(0.70817 0.639609 1.21365e-20)
(0.870504 0.220755 -6.08088e-22)
(1.02407 -0.188204 1.58362e-20)
(1.06631 -0.412901 -5.02888e-21)
(1.01844 -0.491994 -1.80141e-20)
(0.974942 -0.462298 6.80951e-21)
(0.908031 -0.398847 -3.30053e-21)
(0.775886 -0.407788 5.72403e-23)
(0.672735 -0.37851 2.81217e-22)
(0.712525 -0.192699 2.21776e-21)
(0.813119 0.0963888 -5.23424e-22)
(0.838481 0.394237 0)
(0.768314 0.609526 0)
(0.713656 0.57875 0)
(0.734234 0.30945 0)
(0.776826 -0.0357932 -2.77956e-21)
(0.77483 -0.301143 2.10394e-21)
(0.754429 -0.441976 1.37158e-21)
(0.753839 -0.369831 -7.52223e-22)
(0.760949 -0.179377 1.27385e-22)
(0.77814 0.0546953 -9.52597e-23)
(0.764433 0.227208 -6.68138e-23)
(0.734687 0.286444 -4.50503e-23)
(0.723016 0.265663 -4.39919e-23)
(0.803217 0.0544891 0)
(1.15585 -0.371278 0)
(1.10198 -0.410468 7.30524e-20)
(1.02937 -0.432352 -6.93592e-20)
(0.945838 -0.415261 -3.03381e-20)
(0.853435 -0.334385 2.90444e-20)
(0.730087 -0.257938 1.69159e-23)
(0.547874 -0.232346 -3.87252e-23)
(0.353517 -0.178366 0)
(0.277256 -0.0487303 7.99168e-21)
(0.331915 0.106354 -7.65227e-21)
(0.455421 0.304064 -4.8785e-23)
(0.545745 0.571848 1.01933e-20)
(0.59534 0.757255 -2.90094e-20)
(0.711438 0.651554 -1.2462e-20)
(0.920692 0.254446 2.89169e-20)
(1.10453 -0.154763 5.71453e-22)
(1.14712 -0.372959 4.50251e-22)
(1.07523 -0.458423 0)
(1.01206 -0.443781 0)
(0.944749 -0.367305 1.18919e-23)
(0.823055 -0.364995 1.95649e-23)
(0.720567 -0.375131 -1.3603e-22)
(0.752257 -0.239849 9.52126e-23)
(0.837042 0.0407197 1.45194e-22)
(0.852443 0.360633 -2.82284e-21)
(0.778402 0.616782 2.68553e-21)
(0.723971 0.614234 5.78821e-22)
(0.751831 0.334161 0)
(0.805501 -0.019019 -6.96871e-22)
(0.807307 -0.286822 0)
(0.781211 -0.438498 -1.42206e-21)
(0.779575 -0.377525 8.95007e-22)
(0.786724 -0.18843 0)
(0.790317 0.0501193 5.03565e-23)
(0.765526 0.230468 -7.74361e-23)
(0.729574 0.290402 7.59001e-23)
(0.727126 0.259852 0)
(0.815413 0.0480768 -4.70437e-23)
(1.24807 -0.293082 -1.80101e-22)
(1.19049 -0.323231 0)
(1.10826 -0.328965 -5.23699e-20)
(1.01906 -0.328829 4.98401e-20)
(0.929395 -0.295375 1.64378e-20)
(0.849674 -0.21313 -1.5693e-20)
(0.77919 -0.124417 0)
(0.643495 -0.0434686 1.61873e-20)
(0.49097 0.00965188 -1.54011e-20)
(0.406602 0.0509446 0)
(0.405902 0.177557 -1.00967e-22)
(0.474677 0.456255 -3.72473e-23)
(0.590693 0.675476 -5.26058e-24)
(0.767856 0.595194 -2.59454e-20)
(0.995306 0.225003 2.45483e-20)
(1.17686 -0.159166 3.10042e-20)
(1.21597 -0.347055 -2.94229e-20)
(1.12349 -0.423332 -1.45644e-20)
(1.04337 -0.428193 1.38394e-20)
(0.982087 -0.34304 3.01722e-22)
(0.866063 -0.320938 2.34294e-21)
(0.751377 -0.366868 -3.87658e-21)
(0.775129 -0.292312 1.77227e-21)
(0.860373 -0.00543067 -1.53903e-21)
(0.869214 0.358406 -9.26879e-22)
(0.789768 0.63334 2.45822e-21)
(0.744672 0.613764 4.99834e-21)
(0.774839 0.332025 -5.69132e-21)
(0.835188 -0.0115761 7.13016e-22)
(0.841455 -0.273523 -5.66572e-22)
(0.809452 -0.434827 -1.22339e-21)
(0.803008 -0.387256 3.97058e-22)
(0.809637 -0.197476 2.17259e-22)
(0.801147 0.0484105 -8.15299e-24)
(0.766558 0.235326 0)
(0.725976 0.293254 -4.83916e-23)
(0.734222 0.252077 1.26108e-22)
(0.82957 0.0411036 -4.06084e-23)
(1.23743 -0.214196 1.01472e-19)
(1.19114 -0.24175 0)
(1.12587 -0.262315 5.85131e-20)
(1.05099 -0.272456 -9.74395e-20)
(0.97176 -0.265232 3.95093e-20)
(0.895005 -0.230148 0)
(0.85018 -0.181156 0)
(0.793355 -0.0818635 0)
(0.697659 0.0336142 0)
(0.619231 0.0593162 0)
(0.551592 0.0849994 1.07804e-22)
(0.517715 0.286909 8.84994e-21)
(0.563704 0.559817 -8.33194e-21)
(0.72266 0.600876 1.18429e-22)
(1.009 0.302056 0)
(1.22657 -0.0800153 0)
(1.27976 -0.277753 4.0572e-22)
(1.17706 -0.364107 0)
(1.07128 -0.404955 -8.96996e-21)
(1.02083 -0.328075 8.40099e-21)
(0.918416 -0.2787 -2.02285e-21)
(0.782439 -0.338571 2.19801e-22)
(0.779104 -0.331519 1.57425e-21)
(0.871734 -0.0854058 0)
(0.887797 0.297531 -2.57057e-21)
(0.81629 0.624808 6.49153e-21)
(0.766337 0.655507 -3.94649e-21)
(0.793992 0.374151 3.96618e-22)
(0.866284 0.0142806 0)
(0.878336 -0.254432 5.8035e-22)
(0.839172 -0.425204 3.38885e-22)
(0.825188 -0.393642 3.45176e-22)
(0.829985 -0.207458 -2.17619e-22)
(0.81131 0.0441463 8.23916e-24)
(0.768544 0.239548 0)
(0.723121 0.296681 4.32607e-23)
(0.743698 0.243954 0)
(0.845517 0.0340281 5.20173e-23)
(1.20689 -0.131187 0)
(1.1821 -0.152672 0)
(1.12604 -0.165062 0)
(1.06563 -0.170688 0)
(1.00111 -0.166026 0)
(0.938908 -0.136001 0)
(0.8842 -0.109609 0)
(0.840961 -0.0526026 0)
(0.805137 0.0530003 0)
(0.791694 0.101752 0)
(0.751787 0.121618 0)
(0.670066 0.247261 0)
(0.68824 0.436461 0)
(0.908251 0.442503 0)
(1.19567 0.191541 0)
(1.3062 -0.104185 0)
(1.30927 -0.233854 0)
(1.21386 -0.285523 0)
(1.08928 -0.354183 0)
(1.04587 -0.303236 0)
(0.978618 -0.23057 0)
(0.828824 -0.300083 0)
(0.76899 -0.351844 0)
(0.85878 -0.128831 0)
(0.895177 0.27833 0)
(0.834962 0.626678 0)
(0.789864 0.649039 0)
(0.825824 0.361621 0)
(0.900329 0.0187221 0)
(0.915454 -0.22985 0)
(0.870171 -0.404681 0)
(0.845804 -0.391146 0)
(0.846907 -0.209888 0)
(0.819087 0.0461423 0)
(0.768963 0.246091 0)
(0.721723 0.297813 0)
(0.757181 0.233087 0)
(0.862859 0.0264609 0)
(1.18163 -0.09887 0)
(1.16551 -0.126269 0)
(1.11797 -0.143833 0)
(1.06845 -0.150011 0)
(1.01192 -0.149169 0)
(0.963755 -0.121263 0)
(0.926841 -0.0963683 0)
(0.882082 -0.0447378 0)
(0.864602 0.058438 0)
(0.880784 0.104012 0)
(0.891481 0.140928 0)
(0.852671 0.267438 0)
(0.889958 0.372669 0)
(1.11412 0.326688 0)
(1.32261 0.125136 0)
(1.34489 -0.113751 0)
(1.30066 -0.22134 0)
(1.20251 -0.260847 0)
(1.08129 -0.330085 0)
(1.02772 -0.284119 0)
(0.981062 -0.197074 0)
(0.861776 -0.261806 0)
(0.784349 -0.342617 0)
(0.848422 -0.134811 0)
(0.90138 0.277306 0)
(0.860408 0.630877 0)
(0.822534 0.647909 0)
(0.86358 0.347829 0)
(0.940624 -0.00448453 0)
(0.957027 -0.239703 0)
(0.901692 -0.403987 0)
(0.864793 -0.389364 0)
(0.861686 -0.20341 0)
(0.824573 0.0559801 0)
(0.768443 0.255523 0)
(0.722408 0.298563 0)
(0.773861 0.220341 0)
(0.881924 0.0179385 0)
(1.1606 -0.0655128 0)
(1.15011 -0.0856094 0)
(1.11405 -0.0999536 0)
(1.07508 -0.100741 0)
(1.03118 -0.0964197 0)
(0.990627 -0.0749528 0)
(0.965253 -0.0491734 0)
(0.921909 -0.0185497 0)
(0.911138 0.0602341 0)
(0.932945 0.0994777 0)
(0.951437 0.133624 0)
(0.972613 0.249686 0)
(1.04741 0.300253 0)
(1.22082 0.228826 0)
(1.35126 0.0835564 0)
(1.3241 -0.101898 0)
(1.27502 -0.181625 0)
(1.20465 -0.196594 0)
(1.09553 -0.279875 0)
(1.04325 -0.262083 0)
(1.01385 -0.163548 0)
(0.906358 -0.21974 0)
(0.80468 -0.34086 0)
(0.845109 -0.163246 0)
(0.907315 0.272326 0)
(0.88185 0.641879 0)
(0.859644 0.650189 0)
(0.910205 0.330549 0)
(0.984754 -0.0111576 0)
(1.00211 -0.224628 0)
(0.93905 -0.383878 0)
(0.884281 -0.383908 0)
(0.874325 -0.199444 0)
(0.828246 0.0666695 0)
(0.767612 0.266862 0)
(0.725912 0.297781 0)
(0.795674 0.204197 0)
(0.904557 0.00865558 0)
(1.14025 -0.0382069 0)
(1.13346 -0.0536921 0)
(1.10833 -0.0666822 0)
(1.07589 -0.0686374 0)
(1.04284 -0.0656615 0)
(1.00841 -0.0530262 0)
(0.990741 -0.0283493 0)
(0.963302 -0.00730167 0)
(0.95451 0.0506836 0)
(0.976393 0.0902529 0)
(0.987369 0.112273 0)
(1.02873 0.198851 0)
(1.11293 0.218278 0)
(1.22484 0.150747 0)
(1.31378 0.0638309 0)
(1.28589 -0.0744797 0)
(1.23518 -0.153799 0)
(1.19001 -0.167369 0)
(1.09172 -0.250184 0)
(1.02754 -0.246668 0)
(1.00524 -0.140121 0)
(0.932034 -0.177666 0)
(0.835525 -0.317621 0)
(0.848811 -0.1792 0)
(0.923917 0.257641 0)
(0.91596 0.646012 0)
(0.909755 0.650151 0)
(0.971137 0.313791 0)
(1.03571 -0.0286712 0)
(1.04817 -0.225615 0)
(0.977237 -0.371927 0)
(0.902981 -0.375458 0)
(0.882686 -0.190314 0)
(0.82855 0.0803471 0)
(0.767057 0.278862 0)
(0.733502 0.294106 0)
(0.824053 0.184552 0)
(0.93121 -0.001509 0)
(1.12299 -0.0165229 0)
(1.11966 -0.027761 0)
(1.10292 -0.0382486 0)
(1.07736 -0.0407614 0)
(1.05365 -0.0374292 0)
(1.02833 -0.0290038 0)
(1.01343 -0.00754029 0)
(0.998168 0.00898085 0)
(0.988741 0.045908 0)
(1.00772 0.0805633 0)
(1.01992 0.0928874 0)
(1.05313 0.146086 0)
(1.1291 0.155844 0)
(1.19479 0.10372 0)
(1.25343 0.0480816 0)
(1.24727 -0.0564175 0)
(1.19729 -0.12947 0)
(1.17219 -0.129607 0)
(1.10102 -0.201069 0)
(1.0314 -0.218312 0)
(1.01715 -0.114827 0)
(0.961403 -0.14119 0)
(0.87546 -0.301367 0)
(0.864322 -0.198648 0)
(0.935656 0.2407 0)
(0.944966 0.647507 0)
(0.964442 0.643627 0)
(1.04413 0.293148 0)
(1.09019 -0.0392492 0)
(1.09383 -0.209991 0)
(1.01934 -0.343142 0)
(0.920818 -0.359875 0)
(0.886976 -0.178291 0)
(0.822711 0.0964357 0)
(0.764363 0.290603 0)
(0.746334 0.286252 0)
(0.860363 0.160858 0)
(0.962122 -0.0123104 0)
(1.11076 0.00159073 0)
(1.10966 -0.00678339 0)
(1.09839 -0.015202 0)
(1.0797 -0.0176223 0)
(1.06226 -0.0154861 0)
(1.044 -0.0102114 0)
(1.03214 0.00471619 0)
(1.02401 0.0168897 0)
(1.01884 0.0410442 0)
(1.03053 0.0665963 0)
(1.04684 0.0763399 0)
(1.06921 0.105753 0)
(1.12427 0.108157 0)
(1.16798 0.0719827 0)
(1.20212 0.0308639 0)
(1.21113 -0.041659 0)
(1.16923 -0.101723 0)
(1.14615 -0.107647 0)
(1.10246 -0.169394 0)
(1.02107 -0.199906 0)
(1.0124 -0.104171 0)
(0.984895 -0.108649 0)
(0.899436 -0.274512 0)
(0.881333 -0.210183 0)
(0.938039 0.222456 0)
(0.957364 0.638521 0)
(1.02443 0.623911 0)
(1.12808 0.274972 0)
(1.1501 -0.0459635 0)
(1.13077 -0.202355 0)
(1.05886 -0.3162 0)
(0.935258 -0.337801 0)
(0.883957 -0.161755 0)
(0.813491 0.113607 0)
(0.764002 0.299431 0)
(0.769058 0.27211 0)
(0.906149 0.132832 0)
(0.99718 -0.0233684 0)
(1.10145 0.0156341 0)
(1.10174 0.00891683 0)
(1.09505 0.00231823 0)
(1.08193 -2.65818e-05 0)
(1.06996 0.00096665 0)
(1.05679 0.00416407 0)
(1.04911 0.0143831 0)
(1.04346 0.0224973 0)
(1.04194 0.0380004 0)
(1.04947 0.0541748 0)
(1.06323 0.0605174 0)
(1.08146 0.0766893 0)
(1.1153 0.0718856 0)
(1.14632 0.0489552 0)
(1.16689 0.0186217 0)
(1.17452 -0.0342359 0)
(1.14781 -0.0811229 0)
(1.1221 -0.0913281 0)
(1.10285 -0.132617 0)
(1.02772 -0.163457 0)
(1.00287 -0.0919564 0)
(1.00842 -0.0811329 0)
(0.926178 -0.242181 0)
(0.876671 -0.219174 0)
(0.939523 0.185095 0)
(0.985354 0.60062 0)
(1.08197 0.584538 0)
(1.19436 0.252724 0)
(1.20397 -0.0419142 0)
(1.15856 -0.180621 0)
(1.09322 -0.276425 0)
(0.953237 -0.301885 0)
(0.869244 -0.139317 0)
(0.796328 0.131132 0)
(0.767413 0.303965 0)
(0.804409 0.250483 0)
(0.96122 0.101206 0)
(1.0354 -0.0338401 0)
(1.09434 0.0258571 0)
(1.096 0.0205912 0)
(1.09277 0.0154825 0)
(1.08396 0.013067 0)
(1.07609 0.0130878 0)
(1.06686 0.0145171 0)
(1.06207 0.020602 0)
(1.05867 0.0253933 0)
(1.05825 0.0344095 0)
(1.06475 0.0440782 0)
(1.07331 0.046491 0)
(1.08843 0.0553197 0)
(1.10916 0.0471648 0)
(1.12758 0.0319718 0)
(1.14305 0.0100333 0)
(1.14459 -0.0298249 0)
(1.13065 -0.0604809 0)
(1.10693 -0.0735945 0)
(1.09043 -0.107655 0)
(1.03405 -0.130712 0)
(0.996814 -0.0873142 0)
(1.01605 -0.0681191 0)
(0.957231 -0.198316 0)
(0.853662 -0.206687 0)
(0.887331 0.159952 0)
(0.954395 0.558914 0)
(1.08223 0.531662 0)
(1.22204 0.226374 0)
(1.24339 -0.0325713 0)
(1.17658 -0.159897 0)
(1.10947 -0.241198 0)
(0.972487 -0.255715 0)
(0.845484 -0.104382 0)
(0.757432 0.149891 0)
(0.769588 0.298564 0)
(0.85522 0.217065 0)
(1.02468 0.0663156 0)
(1.07495 -0.0428936 0)
(1.08924 0.0328364 0)
(1.09208 0.0287491 0)
(1.09116 0.0246557 0)
(1.08573 0.0222049 0)
(1.08063 0.0213031 0)
(1.07473 0.0215354 0)
(1.07155 0.0243274 0)
(1.07011 0.0268722 0)
(1.06979 0.0310716 0)
(1.07519 0.0361585 0)
(1.08056 0.0358729 0)
(1.09095 0.0395396 0)
(1.10477 0.0313392 0)
(1.11341 0.0197574 0)
(1.12543 0.00421858 0)
(1.12372 -0.0243751 0)
(1.11253 -0.046789 0)
(1.09687 -0.0591818 0)
(1.07916 -0.0855892 0)
(1.0399 -0.0974433 0)
(1.00318 -0.0746021 0)
(1.01042 -0.0601995 0)
(0.973857 -0.146259 0)
(0.839609 -0.159059 0)
(0.801675 0.146405 0)
(0.884943 0.497749 0)
(1.07481 0.45014 0)
(1.23437 0.180768 0)
(1.25992 -0.0247804 0)
(1.19036 -0.126424 0)
(1.11795 -0.197691 0)
(0.995933 -0.200138 0)
(0.847866 -0.0551051 0)
(0.743482 0.161992 0)
(0.808181 0.271892 0)
(0.935649 0.170119 0)
(1.09459 0.0315926 0)
(1.11252 -0.0486585 0)
(1.08649 0.0372648 0)
(1.0898 0.0340074 0)
(1.09014 0.0305388 0)
(1.08718 0.0281095 0)
(1.08397 0.0265132 0)
(1.08046 0.0258377 0)
(1.07842 0.0263515 0)
(1.07798 0.0271193 0)
(1.07797 0.0281814 0)
(1.08175 0.0300879 0)
(1.08549 0.028229 0)
(1.0916 0.0285698 0)
(1.10067 0.0212517 0)
(1.10433 0.0123678 0)
(1.11126 0.000421559 0)
(1.10922 -0.019122 0)
(1.09916 -0.0356025 0)
(1.0892 -0.0449552 0)
(1.07205 -0.0646552 0)
(1.04171 -0.0707451 0)
(1.01392 -0.059907 0)
(1.00635 -0.0499089 0)
(0.980159 -0.0950871 0)
(0.863339 -0.0895813 0)
(0.788139 0.131679 0)
(0.889083 0.39046 0)
(1.10884 0.339254 0)
(1.24354 0.135899 0)
(1.25283 -0.0123776 0)
(1.19093 -0.0925104 0)
(1.11431 -0.156277 0)
(1.00499 -0.147193 0)
(0.884338 -0.00369047 0)
(0.806964 0.163153 0)
(0.91495 0.227813 0)
(1.04025 0.120086 0)
(1.1579 0.00483618 0)
(1.14169 -0.0489921 0)
(1.08499 0.0396755 0)
(1.08835 0.0369077 0)
(1.08954 0.03386 0)
(1.08829 0.0315103 0)
(1.08649 0.0294807 0)
(1.08453 0.0281861 0)
(1.08335 0.0272784 0)
(1.08333 0.0267913 0)
(1.0836 0.0259824 0)
(1.08592 0.025896 0)
(1.08852 0.0231133 0)
(1.0918 0.0217631 0)
(1.09708 0.0153881 0)
(1.09836 0.00873911 0)
(1.10137 -0.000721815 0)
(1.09936 -0.0133304 0)
(1.09078 -0.025487 0)
(1.08276 -0.0326063 0)
(1.06859 -0.0463418 0)
(1.04494 -0.0483364 0)
(1.02459 -0.0431995 0)
(1.01086 -0.0340252 0)
(0.987712 -0.0502108 0)
(0.91015 -0.0279794 0)
(0.855072 0.115464 0)
(0.955318 0.278197 0)
(1.13787 0.240601 0)
(1.2266 0.104734 0)
(1.22403 0.00151989 0)
(1.18048 -0.0585192 0)
(1.11646 -0.108155 0)
(1.01437 -0.0983771 0)
(0.937377 0.0299417 0)
(0.915983 0.147267 0)
(1.03986 0.179941 0)
(1.12518 0.0822385 0)
(1.1938 -0.00754757 0)
(1.15688 -0.043358 0)
(1.08453 0.0400159 0)
(1.08795 0.0376668 0)
(1.08968 0.0349898 0)
(1.08948 0.0327598 0)
(1.08864 0.0305322 0)
(1.08762 0.0288722 0)
(1.08706 0.0271411 0)
(1.08714 0.0259032 0)
(1.08753 0.0240043 0)
(1.08883 0.0228571 0)
(1.0905 0.0196059 0)
(1.09212 0.0175604 0)
(1.09493 0.0120201 0)
(1.09502 0.00703424 0)
(1.09557 -0.000443278 0)
(1.09311 -0.0084672 0)
(1.08641 -0.0173396 0)
(1.07942 -0.0219904 0)
(1.06849 -0.0309947 0)
(1.0509 -0.0302858 0)
(1.03575 -0.0277792 0)
(1.02209 -0.018126 0)
(1.00359 -0.01823 0)
(0.960211 0.00911389 0)
(0.936279 0.0951002 0)
(1.0119 0.189951 0)
(1.13524 0.167907 0)
(1.19346 0.0851148 0)
(1.19178 0.0143668 0)
(1.1621 -0.0328413 0)
(1.11738 -0.0672177 0)
(1.03176 -0.0602384 0)
(0.990282 0.0415145 0)
(1.0035 0.116211 0)
(1.11468 0.136385 0)
(1.1603 0.0585226 0)
(1.19865 -0.0105505 0)
(1.16009 -0.0357276 0)
(1.0853 0.0397632 0)
(1.08855 0.0377752 0)
(1.09049 0.0353977 0)
(1.09091 0.0333279 0)
(1.09071 0.0310601 0)
(1.09024 0.0292789 0)
(1.09005 0.027149 0)
(1.09015 0.0255839 0)
(1.09056 0.0231978 0)
(1.0912 0.0216455 0)
(1.09224 0.0183776 0)
(1.09278 0.0163021 0)
(1.09399 0.0116676 0)
(1.09335 0.00810102 0)
(1.0929 0.00236724 0)
(1.09048 -0.00237531 0)
(1.08553 -0.00877192 0)
(1.07943 -0.0110906 0)
(1.07136 -0.0169236 0)
(1.05863 -0.0145019 0)
(1.04775 -0.0128918 0)
(1.03678 -0.00313188 0)
(1.02423 0.00245527 0)
(1.0032 0.0268213 0)
(0.998118 0.0752483 0)
(1.04584 0.129398 0)
(1.12185 0.118679 0)
(1.16109 0.0701743 0)
(1.16546 0.0224523 0)
(1.14621 -0.0130922 0)
(1.1184 -0.0321257 0)
(1.05519 -0.0302381 0)
(1.03657 0.0440219 0)
(1.05293 0.0865494 0)
(1.13843 0.104879 0)
(1.16238 0.0457491 0)
(1.18873 -0.00921939 0)
(1.15866 -0.0273089 0)
(1.08738 0.0372674 0)
(1.09032 0.0355392 0)
(1.09228 0.0334031 0)
(1.09303 0.0315134 0)
(1.09323 0.0292981 0)
(1.0931 0.0275279 0)
(1.0932 0.0252612 0)
(1.09332 0.0235896 0)
(1.09378 0.0210414 0)
(1.0941 0.019353 0)
(1.09482 0.0162107 0)
(1.09492 0.0142464 0)
(1.09547 0.0103139 0)
(1.09465 0.00777222 0)
(1.09382 0.00323752 0)
(1.09129 0.000496628 0)
(1.08773 -0.00431912 0)
(1.08269 -0.00497439 0)
(1.07714 -0.00874033 0)
(1.06833 -0.00538878 0)
(1.06095 -0.00393152 0)
(1.05293 0.00541889 0)
(1.0458 0.0117955 0)
(1.03687 0.0314144 0)
(1.03966 0.0575879 0)
(1.06794 0.0879431 0)
(1.11411 0.0826417 0)
(1.14071 0.0551611 0)
(1.14879 0.0249611 0)
(1.13577 -0.00199964 0)
(1.12088 -0.0102466 0)
(1.07778 -0.0126889 0)
(1.07247 0.0409976 0)
(1.08101 0.0617051 0)
(1.14358 0.0791007 0)
(1.15689 0.0346466 0)
(1.17714 -0.0105628 0)
(1.15661 -0.0228291 0)
(1.0903 0.036999 0)
(1.09291 0.0355672 0)
(1.09482 0.0337304 0)
(1.09571 0.0321313 0)
(1.09616 0.0301355 0)
(1.09622 0.0285845 0)
(1.09649 0.0264615 0)
(1.0966 0.0249666 0)
(1.09707 0.0225866 0)
(1.09719 0.0211029 0)
(1.09772 0.0183177 0)
(1.09753 0.016769 0)
(1.09778 0.0135008 0)
(1.09683 0.0118734 0)
(1.09617 0.00825139 0)
(1.09409 0.00705179 0)
(1.092 0.0035211 0)
(1.08825 0.00414185 0)
(1.08492 0.00163204 0)
(1.07915 0.00531329 0)
(1.07499 0.00618556 0)
(1.06985 0.0144263 0)
(1.06697 0.0192642 0)
(1.06373 0.0338726 0)
(1.06892 0.047349 0)
(1.08504 0.0643 0)
(1.11274 0.0615562 0)
(1.12913 0.0457683 0)
(1.13863 0.0280858 0)
(1.13005 0.00768447 0)