/*--------------------------------*- C++ -*----------------------------------*\
| =========                 |                                                 |
| \\      /  F ield         | OpenFOAM: The Open Source CFD Toolbox           |
|  \\    /   O peration     | Version:  2312                                  |
|   \\  /    A nd           | Website:  www.openfoam.com                      |
|    \\/     M anipulation  |                                                 |
\*---------------------------------------------------------------------------*/
FoamFile
{
    version     2.0;
    format      ascii;
    arch        "LSB;label=32;scalar=64";
    class       volVectorField;
    location    "134";
    object      U;
}
// * * * * * * * * * * * * * * * * * * * * * * * * * * * * * * * * * * * * * //

dimensions      [0 1 -1 0 0 0 0];

internalField   nonuniform List<vector> 
5478
(
(-0.0382127 0.0261814 -1.3378e-19)
(-0.0444098 0.0400839 0)
(0.0287402 0.0314051 2.00875e-19)
(0.196204 0.00678902 -3.52176e-19)
(0.453553 -0.0221102 2.30936e-19)
(0.750986 -0.0479185 -6.84107e-20)
(1.02531 -0.0692552 -1.1933e-19)
(1.23063 -0.0887327 0)
(1.34828 -0.108953 0)
(1.3851 -0.130976 1.43133e-19)
(1.36746 -0.152533 -6.87654e-20)
(1.32764 -0.168502 -1.04596e-19)
(1.28126 -0.189951 -3.8348e-20)
(1.24857 -0.180594 0)
(1.19648 -0.219407 8.78971e-20)
(-0.0421625 0.0251452 2.68516e-19)
(-0.0149109 0.0218267 0)
(0.134836 -0.00110853 0)
(0.412917 -0.0241136 -1.77308e-19)
(0.749087 -0.0368915 2.33598e-19)
(1.04789 -0.0423068 6.72585e-20)
(1.25462 -0.047384 -1.12504e-19)
(1.36039 -0.0569986 9.97727e-20)
(1.38771 -0.0722332 2.38221e-19)
(1.37182 -0.0899661 -2.06988e-19)
(1.34301 -0.10567 4.54235e-21)
(1.31193 -0.121232 0)
(1.28349 -0.126885 3.82789e-20)
(1.24807 -0.133508 0)
(1.2113 -0.140601 0)
(-0.0377436 0.0205458 -7.12835e-22)
(0.0488421 0.00179414 -1.25373e-19)
(0.314351 -0.020387 7.02772e-22)
(0.691661 -0.0232211 0)
(1.03062 -0.0154886 -7.7801e-20)
(1.25325 -0.0098142 6.53567e-20)
(1.35936 -0.0121162 5.45456e-20)
(1.38677 -0.0220014 0)
(1.37717 -0.035269 -7.94012e-20)
(1.35669 -0.0483098 6.57518e-20)
(1.33157 -0.060839 5.39726e-20)
(1.30361 -0.0691216 0)
(1.26969 -0.0794816 0)
(1.23784 -0.0821546 -1.03508e-19)
(1.2039 -0.0929111 9.22465e-20)
(-0.0212406 0.0110284 -1.45898e-19)
(0.160405 -0.018499 1.23739e-19)
(0.556659 -0.0165033 -1.06866e-19)
(0.960307 0.00675029 9.30699e-20)
(1.22784 0.0247156 1.55307e-19)
(1.35561 0.029795 -1.29401e-19)
(1.39411 0.0247668 -5.452e-20)
(1.39117 0.0150395 4.20393e-20)
(1.37264 0.00388343 -4.02928e-20)
(1.34649 -0.00783303 0)
(1.3171 -0.0181914 0)
(1.28627 -0.0295235 -7.58415e-20)
(1.25896 -0.0360624 9.7655e-20)
(1.23267 -0.0427385 -5.46593e-20)
(1.20712 -0.0506212 0)
(0.0129805 -0.00183864 7.37767e-20)
(0.328726 -0.0245616 6.22496e-20)
(0.80928 0.0161849 -2.22275e-19)
(1.16268 0.0547716 2.99726e-21)
(1.34069 0.0717306 -2.89896e-21)
(1.40132 0.0725173 -1.92599e-21)
(1.40418 0.0652851 5.09743e-20)
(1.38375 0.0547688 4.33324e-20)
(1.35544 0.0429198 3.10101e-20)
(1.32684 0.0313935 -4.94515e-21)
(1.30006 0.0200293 -7.06545e-20)
(1.2759 0.0111161 0)
(1.25132 0.00299736 3.12239e-20)
(1.22655 -0.00564825 -2.27729e-20)
(1.20258 -0.00964955 4.15002e-20)
(0.0713965 -0.0121617 -1.57238e-19)
(0.536038 0.000494825 1.70298e-19)
(1.02049 0.0709372 -5.7743e-20)
(1.29484 0.111768 4.36411e-20)
(1.39984 0.122825 -8.0046e-20)
(1.41581 0.118159 -5.93554e-20)
(1.3966 0.107334 1.54895e-21)
(1.36838 0.0946749 0)
(1.34082 0.0819694 6.31746e-20)
(1.31475 0.0696099 -5.61794e-20)
(1.28937 0.0584065 2.23927e-20)
(1.26351 0.0475869 0)
(1.23861 0.0378586 1.37943e-20)
(1.21554 0.0293001 -2.37846e-20)
(1.19263 0.0235698 0)
(0.155627 -0.0112992 -1.96399e-20)
(0.73844 0.0572663 1.3402e-21)
(1.17687 0.139803 2.8658e-20)
(1.37269 0.1745 4.71258e-20)
(1.42178 0.17677 -3.58068e-20)
(1.41009 0.165707 6.02812e-20)
(1.38164 0.151302 -1.36646e-20)
(1.35151 0.136479 0)
(1.32235 0.121703 -3.73009e-20)
(1.29469 0.107621 2.42472e-21)
(1.26892 0.0942422 3.11975e-20)
(1.24588 0.0822225 0)
(1.22479 0.0717273 -2.02048e-20)
(1.2045 0.0613973 0)
(1.18639 0.0570769 1.23341e-20)
(0.259419 0.00761026 -2.10315e-20)
(0.905145 0.13462 0)
(1.27949 0.217519 2.92183e-20)
(1.40767 0.240935 0)
(1.41885 0.232798 0)
(1.39228 0.215301 0)
(1.35887 0.196624 -1.1709e-20)
(1.32705 0.17814 0)
(1.29872 0.16045 7.53346e-21)
(1.27358 0.143993 0)
(1.25073 0.128943 -9.79776e-21)
(1.22896 0.115086 0)
(1.20817 0.101984 6.40376e-21)
(1.1891 0.0911829 0)
(1.17048 0.0842136 4.17668e-21)
(-0.00878892 0.203882 -1.4749e-20)
(-0.0296342 0.331847 0)
(-0.063767 0.34327 2.32825e-20)
(-0.0971615 0.319987 0)
(-0.126315 0.28555 0)
(-0.149648 0.239294 0)
(-0.166192 0.177253 -1.66211e-20)
(-0.175955 0.0973785 0)
(-0.179551 0.000221464 1.43246e-20)
(-0.175813 -0.114046 0)
(-0.163869 -0.240121 -2.33602e-20)
(-0.146524 -0.371134 0)
(-0.118818 -0.496986 1.71764e-20)
(-0.100234 -0.607323 0)
(-0.0542177 -0.693188 1.10659e-20)
(-0.0194493 0.201105 7.54751e-20)
(-0.0344892 0.348658 -5.43611e-20)
(-0.0473359 0.373008 2.55828e-20)
(-0.0560139 0.352277 8.83686e-20)
(-0.0584782 0.314942 1.74938e-21)
(-0.0528081 0.26419 -7.39695e-20)
(-0.0387956 0.197586 5.01607e-20)
(-0.016781 0.113708 0)
(0.0105297 0.0124351 4.63103e-20)
(0.0436993 -0.103844 9.85499e-22)
(0.0861773 -0.23109 -2.55395e-20)
(0.130315 -0.365873 0)
(0.192364 -0.488331 -5.34612e-20)
(0.225719 -0.601669 0)
(0.29746 -0.667832 -5.32863e-20)
(-0.0272312 0.1771 1.26579e-19)
(-0.0381553 0.335256 2.78335e-20)
(-0.0299939 0.375058 -4.87456e-20)
(-0.0130316 0.360134 -1.35483e-19)
(0.0122363 0.322337 8.06645e-20)
(0.0465443 0.269629 7.81493e-20)
(0.0894996 0.202034 -1.39917e-19)
(0.138984 0.11812 0)
(0.194308 0.0176691 -1.2461e-19)
(0.257244 -0.098203 1.10794e-19)
(0.331636 -0.225147 4.9843e-20)
(0.407989 -0.366238 0)
(0.502309 -0.484629 3.62611e-20)
(0.553304 -0.598376 -5.71544e-20)
(0.645439 -0.650993 0)
(-0.0305101 0.13831 6.50614e-20)
(-0.0415554 0.292055 -1.70555e-19)
(-0.0180358 0.345565 2.0191e-19)
(0.0203201 0.33971 -1.79322e-19)
(0.0693077 0.304503 -8.14677e-20)
(0.127614 0.252157 7.47293e-20)
(0.193796 0.185401 7.06452e-20)
(0.267467 0.104432 6.39858e-20)
(0.350542 0.00870983 -1.8134e-19)
(0.448298 -0.105235 -1.67525e-21)
(0.560459 -0.229707 4.85029e-20)
(0.676164 -0.367343 0)
(0.789944 -0.477581 6.74629e-20)
(0.85097 -0.581617 1.59724e-19)
(0.929048 -0.620304 -9.13107e-20)
(-0.0296007 0.0958515 2.57723e-22)
(-0.0442157 0.228399 1.14287e-19)
(-0.0141137 0.287462 -1.00028e-19)
(0.0377321 0.289734 8.98514e-20)
(0.103828 0.25924 1.60964e-19)
(0.180746 0.209523 -1.4702e-19)
(0.26796 0.145924 -6.63746e-20)
(0.370096 0.0696051 -1.91485e-19)
(0.49212 -0.0230958 1.72237e-19)
(0.638607 -0.132424 0)
(0.794626 -0.246406 0)
(0.943314 -0.366702 1.51796e-19)
(1.05584 -0.443592 -3.24569e-19)
(1.10807 -0.531334 1.08688e-19)
(1.13939 -0.516289 0)
(-0.027125 0.0604682 7.81801e-22)
(-0.046121 0.160438 -1.13219e-19)
(-0.0169529 0.212623 2.99888e-19)
(0.0405387 0.217016 -8.78283e-20)
(0.118503 0.190192 -7.95584e-20)
(0.215664 0.144333 7.23464e-20)
(0.337445 0.0842643 6.64113e-20)
(0.490108 0.0100416 1.20867e-19)
(0.672211 -0.0787375 -2.12673e-19)
(0.868176 -0.174182 9.34227e-20)
(1.04762 -0.266986 8.05052e-20)
(1.18392 -0.35161 0)
(1.25227 -0.402803 0)
(1.26058 -0.453069 1.66229e-19)
(1.22114 -0.434074 -1.47855e-19)
(-0.0270015 0.0379735 1.16667e-22)
(-0.0489779 0.103297 0)
(-0.0222669 0.137911 0)
(0.0416936 0.136375 1.73989e-19)
(0.142236 0.10916 -7.68608e-20)
(0.285699 0.0649356 6.86025e-20)
(0.474918 0.00768551 1.26808e-19)
(0.69775 -0.0582508 -1.12428e-19)
(0.927329 -0.128926 1.05461e-19)
(1.12804 -0.193656 -9.35153e-20)
(1.27015 -0.256736 -8.44516e-21)
(1.33714 -0.299001 0)
(1.33535 -0.332784 4.73914e-20)
(1.28309 -0.353273 0)
(1.21586 -0.33431 0)
(-0.0314709 0.0280746 -1.30788e-19)
(-0.0517338 0.0640891 0)
(-0.0160612 0.0764822 -1.98372e-19)
(0.0775482 0.0629892 3.4839e-19)
(0.239068 0.0316904 -3.83765e-19)
(0.465472 -0.00914089 -6.99724e-20)
(0.72769 -0.0533294 1.21369e-19)
(0.982959 -0.0968654 0)
(1.19026 -0.137354 0)
(1.32385 -0.174811 -1.58203e-19)
(1.37574 -0.208476 -6.21456e-20)
(1.3636 -0.231989 1.16495e-19)
(1.31193 -0.255191 -4.74916e-20)
(1.2501 -0.262328 0)
(1.20558 -0.255328 -1.01366e-19)
(-0.0471568 -0.801895 0)
(-0.0442134 -0.849632 3.31907e-21)
(0.0765436 -0.547779 -3.07643e-21)
(0.389822 0.00779937 0)
(0.581782 0.430392 0)
(0.713377 0.650277 -8.35112e-23)
(0.766447 0.624809 0)
(0.688513 0.689023 0)
(0.555415 0.694387 7.85571e-23)
(0.598861 0.25887 0)
(0.787215 -0.103053 0)
(0.940569 -0.349924 -1.19545e-22)
(0.918122 -0.406182 0)
(0.930476 -0.548827 -8.9113e-23)
(0.945144 -0.579056 -6.81628e-23)
(0.940652 -0.267446 0)
(0.955323 -0.0860916 -6.30193e-22)
(1.01489 0.397299 7.64794e-22)
(1.04358 0.530054 0)
(1.011 0.454387 4.40719e-22)
(1.08697 0.337473 -5.65488e-22)
(1.04631 -0.269615 1.13286e-22)
(1.09822 -0.493508 -1.96958e-22)
(1.07063 -0.402065 1.882e-22)
(1.10737 -0.221446 -2.18275e-22)
(1.16888 0.506174 0)
(1.15733 0.681584 -2.62922e-22)
(1.12362 -0.141753 2.5139e-22)
(1.01014 -0.514484 -1.27379e-22)
(1.0475 -0.0116552 0)
(1.02059 0.220493 -9.22842e-23)
(0.967352 0.0235633 0)
(0.970083 -0.0586648 -3.93141e-23)
(0.961071 -0.00137908 -1.04807e-23)
(0.964657 0.00882581 1.27235e-24)
(0.954475 -0.00156557 -8.9074e-24)
(0.94929 0.000571965 0)
(0.950315 0.00166697 2.10151e-24)
(0.273896 -0.764031 1.94962e-20)
(0.140618 -0.827757 -9.41436e-23)
(-0.00257332 -0.66055 -8.55514e-21)
(0.199806 -0.150689 8.15964e-21)
(0.414958 0.302381 0)
(0.618365 0.576969 8.41738e-23)
(0.722605 0.621657 -1.33279e-22)
(0.623458 0.737848 0)
(0.567928 0.715572 -7.9154e-23)
(0.669252 0.217339 0)
(0.838462 -0.186031 0)
(0.992001 -0.379807 1.20392e-22)
(0.972516 -0.407746 0)
(0.981634 -0.554667 2.72724e-21)
(0.971218 -0.591347 -2.30216e-21)
(0.976172 -0.267838 2.38113e-21)
(0.937349 -0.104251 -2.27297e-21)
(0.992625 0.375424 -1.64092e-22)
(1.02638 0.521297 0)
(0.971484 0.447263 0)
(1.09026 0.334383 -1.066e-22)
(1.05462 -0.260152 1.03672e-21)
(1.10306 -0.500156 -1.67672e-21)
(1.08769 -0.401353 7.71456e-22)
(1.0798 -0.236793 7.08998e-22)
(1.15011 0.495805 0)
(1.16961 0.681003 4.75455e-22)
(1.14827 -0.120353 0)
(1.02042 -0.512192 1.27822e-22)
(1.03955 -0.0141729 -2.25386e-22)
(1.02456 0.225027 4.01977e-22)
(0.977745 0.0280235 -4.69476e-23)
(0.977216 -0.0587038 7.79885e-23)
(0.969671 -0.00105375 1.74159e-24)
(0.970894 0.00946017 1.41766e-23)
(0.959406 -0.000665291 -7.48095e-24)
(0.956131 0.000766073 -5.75498e-25)
(0.956209 0.00165971 5.57908e-25)
(0.602056 -0.68664 2.52898e-20)
(0.486724 -0.694398 -3.98488e-20)
(0.169061 -0.666268 4.91933e-21)
(0.160318 -0.334605 9.72258e-21)
(0.374483 0.110532 5.90208e-23)
(0.606462 0.473839 -8.77363e-23)
(0.722133 0.627148 1.35588e-22)
(0.603978 0.780667 -2.86679e-22)
(0.614056 0.725929 0)
(0.769269 0.199942 1.30729e-20)
(0.918353 -0.240011 -1.24673e-20)
(1.03846 -0.401812 -2.69338e-22)
(1.01461 -0.395948 0)
(1.00539 -0.540677 -5.49278e-21)
(0.967155 -0.60203 5.09179e-21)
(1.00626 -0.269573 -2.50456e-21)
(0.922344 -0.116565 2.38995e-21)
(0.967827 0.356321 2.74176e-21)
(1.00821 0.520894 -2.29198e-21)
(0.938884 0.441636 0)
(1.08966 0.331015 0)
(1.06238 -0.240039 1.69696e-21)
(1.10011 -0.500613 -1.61996e-21)
(1.09855 -0.398026 -1.86454e-21)
(1.0421 -0.25412 -4.93471e-22)
(1.12602 0.478331 2.2132e-21)
(1.17536 0.68158 -4.46915e-23)
(1.16565 -0.0892358 -6.54222e-22)
(1.02678 -0.501877 1.28441e-21)
(1.02761 -0.0179483 -1.03632e-21)
(1.02558 0.228148 5.88023e-23)
(0.985672 0.0336482 -1.46477e-22)
(0.981958 -0.0580108 5.12291e-23)
(0.976173 -0.000762846 -4.89823e-23)
(0.974806 0.0103558 -1.00456e-23)
(0.961952 0.000245589 -5.10038e-24)
(0.960596 0.000901437 1.38555e-23)
(0.959827 0.0017031 2.11403e-24)
(0.834883 -0.661874 0)
(0.778863 -0.557967 1.30028e-20)
(0.517028 -0.529349 -1.28117e-20)
(0.296277 -0.429164 0)
(0.400366 -0.101991 -6.06619e-23)
(0.63748 0.327537 9.01539e-23)
(0.728417 0.592803 0)
(0.588687 0.789639 2.95456e-23)
(0.650403 0.726409 -3.48074e-22)
(0.866396 0.202226 0)
(1.00703 -0.264741 -1.10557e-20)
(1.08199 -0.420515 1.08163e-20)
(1.06454 -0.383499 -4.24556e-22)
(1.03976 -0.512812 -5.64441e-21)
(0.956847 -0.614293 5.38204e-21)
(1.03429 -0.282496 3.08421e-22)
(0.918334 -0.131507 0)
(0.947945 0.317503 -3.47606e-22)
(0.977388 0.506843 3.41925e-21)
(0.901016 0.43182 -5.10681e-22)
(1.07803 0.328521 2.58098e-22)
(1.06782 -0.218208 -2.40265e-21)
(1.0936 -0.499798 -2.85948e-21)
(1.10112 -0.39518 3.4829e-21)
(0.99986 -0.269766 -5.46631e-22)
(1.09447 0.442999 0)
(1.16543 0.669169 -4.41362e-22)
(1.17365 -0.0606876 6.62837e-22)
(1.03116 -0.488769 -1.2804e-21)
(1.01244 -0.0253613 1.02903e-21)
(1.02288 0.227936 -1.88703e-22)
(0.990546 0.0390525 0)
(0.984278 -0.0571514 -5.14496e-23)
(0.980497 -0.00067212 9.23397e-23)
(0.976348 0.0114453 2.97133e-23)
(0.962196 0.00112476 2.99793e-23)
(0.962771 0.000960147 -1.38653e-23)
(0.961244 0.00179006 -2.15161e-27)
(1.00818 -0.595066 4.16463e-22)
(0.901011 -0.520708 5.39548e-22)
(0.788827 -0.387574 0)
(0.553017 -0.359311 0)
(0.450767 -0.251086 0)
(0.598835 0.175654 0)
(0.692371 0.573416 7.68909e-21)
(0.579588 0.784072 -1.69622e-20)
(0.678925 0.695245 9.92192e-21)
(0.939439 0.203318 0)
(1.09408 -0.263466 -1.11125e-20)
(1.12216 -0.426732 1.09619e-20)
(1.09292 -0.370669 6.89417e-21)
(1.06539 -0.470887 -5.80859e-21)
(0.941836 -0.620341 5.4498e-21)
(1.04858 -0.305053 -5.51204e-21)
(0.914419 -0.14228 -3.52461e-22)
(0.920768 0.295834 -4.98716e-21)
(0.951192 0.511198 4.75252e-21)
(0.876558 0.424507 3.01427e-22)
(1.06478 0.325008 2.92627e-22)
(1.07207 -0.190379 2.53417e-21)
(1.08477 -0.493947 -2.77975e-21)
(1.09299 -0.389266 -7.80506e-22)
(0.952352 -0.28665 -6.09131e-22)
(1.05693 0.408297 -6.55217e-22)
(1.15171 0.666427 0)
(1.17477 -0.0242317 0)
(1.0341 -0.468988 0)
(0.9952 -0.0330691 0)
(1.01786 0.226887 4.81108e-22)
(0.992989 0.0451892 -2.76256e-22)
(0.984646 -0.0556633 1.02875e-22)
(0.982813 -0.000570951 -2.81497e-22)
(0.975672 0.0128017 3.02978e-23)
(0.960412 0.00202047 5.52576e-24)
(0.962938 0.000958468 -1.79427e-23)
(0.960684 0.00192196 -5.30851e-24)
(1.10844 -0.47675 -4.38571e-22)
(0.946304 -0.467795 2.89383e-20)
(0.847336 -0.356296 -2.78329e-20)
(0.764284 -0.267709 -6.23177e-21)
(0.604041 -0.276108 5.93466e-21)
(0.544776 -0.00120018 6.86106e-21)
(0.578641 0.48255 -6.32426e-21)
(0.478095 0.755574 1.73779e-22)
(0.639037 0.678889 -3.17146e-22)
(0.973905 0.228823 0)
(1.16614 -0.225914 -4.11262e-22)
(1.17053 -0.40955 1.67003e-20)
(1.12087 -0.353001 -1.58993e-20)
(1.09519 -0.421611 -3.56639e-22)
(0.946176 -0.616479 0)
(1.04885 -0.337395 -5.98562e-21)
(0.916436 -0.15807 1.18978e-20)
(0.900199 0.244122 -5.46115e-21)
(0.91569 0.487667 0)
(0.840293 0.415567 2.08675e-21)
(1.04084 0.328602 -2.28127e-22)
(1.07269 -0.159356 -2.24213e-21)
(1.07814 -0.483831 -3.3964e-21)
(1.07492 -0.383186 3.26748e-21)
(0.908606 -0.300714 -5.33358e-21)
(1.01535 0.356034 8.5363e-22)
(1.12044 0.648482 4.37617e-21)
(1.16386 0.00826073 -1.52745e-21)
(1.03698 -0.448334 1.45231e-21)
(0.97657 -0.044205 -4.90898e-22)
(1.00898 0.222304 4.66806e-22)
(0.992304 0.0508812 0)
(0.983198 -0.0540285 1.02549e-22)
(0.98323 -0.000661706 -1.99777e-23)
(0.973008 0.0143141 0)
(0.957015 0.00286385 -2.86716e-23)
(0.961511 0.000875544 1.15425e-23)
(0.958493 0.00209241 -1.97331e-24)
(1.11032 -0.393322 0)
(0.999177 -0.378607 0)
(0.845851 -0.332465 -9.60339e-23)
(0.807395 -0.248693 0)
(0.76832 -0.236229 0)
(0.592211 -0.0530132 2.13958e-21)
(0.529065 0.429513 -2.04315e-21)
(0.477116 0.697707 1.25321e-20)
(0.683854 0.591498 -1.19437e-20)
(1.03427 0.187987 0)
(1.22556 -0.215248 -3.54505e-22)
(1.20596 -0.397557 2.79049e-22)
(1.1373 -0.344165 -1.31748e-20)
(1.11286 -0.372888 9.26203e-22)
(0.963721 -0.602253 1.08266e-20)
(1.03663 -0.373658 1.74721e-22)
(0.910147 -0.174155 -1.95931e-22)
(0.87181 0.226164 1.04065e-20)
(0.880399 0.495864 -1.02675e-20)
(0.820164 0.403015 0)
(1.02506 0.321168 0)
(1.07342 -0.128089 -1.17204e-22)
(1.07513 -0.46764 0)
(1.05189 -0.371727 4.28133e-21)
(0.866597 -0.317099 1.84068e-21)
(0.970274 0.312928 -5.12542e-21)
(1.0919 0.646363 -2.60053e-21)
(1.15012 0.042474 1.7115e-21)
(1.04088 -0.423548 -1.61062e-22)
(0.95883 -0.0534785 0)
(0.999543 0.218189 -2.69563e-22)
(0.989981 0.0565908 2.55554e-22)
(0.980619 -0.0521997 5.75862e-23)
(0.982102 -0.000564897 2.5042e-23)
(0.968816 0.0160906 -4.24805e-23)
(0.952563 0.00368928 1.01169e-23)
(0.95898 0.000761026 0)
(0.955097 0.0023157 4.15301e-24)
(1.12279 -0.313883 6.21753e-20)
(1.04402 -0.322299 3.63775e-20)
(0.921026 -0.305773 -1.16963e-20)
(0.834991 -0.271201 -3.3325e-20)
(0.814467 -0.265295 1.10934e-20)
(0.680228 -0.156888 6.84223e-24)
(0.500706 0.284295 0)
(0.387225 0.642347 -5.55492e-23)
(0.631424 0.601084 -1.07324e-22)
(1.04357 0.248913 0)
(1.26664 -0.131661 -2.01232e-20)
(1.23906 -0.342794 1.91896e-20)
(1.16003 -0.323694 2.33358e-22)
(1.13021 -0.326713 1.10759e-20)
(0.986763 -0.572668 -1.0526e-20)
(1.01191 -0.398223 1.66971e-22)
(0.897209 -0.204087 2.08106e-22)
(0.837497 0.156039 0)
(0.844645 0.459871 6.79282e-21)
(0.782793 0.401361 -6.44253e-21)
(0.99391 0.334049 -2.05302e-21)
(1.07223 -0.0859077 -8.86195e-23)
(1.07793 -0.447234 2.05099e-21)
(1.02746 -0.353145 -4.1848e-21)
(0.841502 -0.332637 -1.35637e-21)
(0.919765 0.246566 1.00543e-20)
(1.04334 0.619147 -3.60251e-21)
(1.1278 0.0795381 9.91466e-22)
(1.04501 -0.39723 -6.84799e-22)
(0.942477 -0.065933 0)
(0.985406 0.209661 0)
(0.984403 0.0626515 0)
(0.976833 -0.0498148 4.32482e-23)
(0.979639 -0.000870265 -5.49738e-23)
(0.963581 0.0177756 3.95566e-23)
(0.947625 0.00434602 -2.654e-23)
(0.955767 0.000541218 -1.01781e-23)
(0.950924 0.00256506 0)
(1.14495 -0.206354 0)
(1.08857 -0.217361 0)
(1.00114 -0.195472 0)
(0.906991 -0.159569 0)
(0.824232 -0.147986 0)
(0.70612 -0.0935498 0)
(0.576143 0.274388 0)
(0.611179 0.520921 0)
(0.946852 0.387217 0)
(1.23611 0.121422 0)
(1.3396 -0.116867 0)
(1.25733 -0.28702 0)
(1.16835 -0.27793 0)
(1.15584 -0.25017 0)
(1.0087 -0.528818 0)
(0.984909 -0.439887 0)
(0.866099 -0.215465 0)
(0.805093 0.147491 0)
(0.789257 0.473315 0)
(0.740158 0.374121 0)
(1.00948 0.313986 0)
(1.08729 -0.0648902 0)
(1.0865 -0.427303 0)
(1.00176 -0.357653 0)
(0.816714 -0.340185 0)
(0.882657 0.200831 0)
(0.991968 0.618405 0)
(1.11914 0.0970583 0)
(1.04649 -0.374514 0)
(0.928862 -0.0720982 0)
(0.97147 0.204723 0)
(0.978237 0.0672545 0)
(0.971271 -0.0473518 0)
(0.975209 -0.000259119 0)
(0.956648 0.020627 0)
(0.941579 0.00521174 0)
(0.951281 0.000357217 0)
(0.945322 0.00300999 0)
(1.11156 -0.151043 0)
(1.0622 -0.179531 0)
(0.989986 -0.158254 0)
(0.926868 -0.138779 0)
(0.886713 -0.111502 0)
(0.806442 -0.0211058 0)
(0.757274 0.275931 0)
(0.912196 0.370797 0)
(1.18082 0.237809 0)
(1.2955 0.0569029 0)
(1.31589 -0.136496 0)
(1.214 -0.243457 0)
(1.12578 -0.255608 0)
(1.09805 -0.27625 0)
(0.964336 -0.498142 0)
(0.944163 -0.355497 0)
(0.776583 -0.134037 0)
(0.73318 0.193175 0)
(0.68488 0.500893 0)
(0.712348 0.32463 0)
(1.02527 0.233225 0)
(1.09844 -0.12001 0)
(1.08174 -0.409925 0)
(0.95024 -0.290115 0)
(0.741196 -0.294935 0)
(0.813218 0.203013 0)
(0.914498 0.583672 0)
(1.10959 0.0561324 0)
(1.03917 -0.347003 0)
(0.904202 -0.0492276 0)
(0.944559 0.201018 0)
(0.967735 0.0635808 0)
(0.962739 -0.0475949 0)
(0.966507 0.00131155 0)
(0.946769 0.0239497 0)
(0.934211 0.00545302 0)
(0.945167 -0.000172354 0)
(0.938209 0.00358243 0)
(1.09128 -0.0985291 0)
(1.05934 -0.113534 0)
(1.01114 -0.0994114 0)
(0.967877 -0.0805402 0)
(0.93202 -0.0357382 0)
(0.880778 -0.00211345 0)
(0.887442 0.194049 0)
(1.04536 0.230529 0)
(1.18988 0.127895 0)
(1.25174 0.0286888 0)
(1.26123 -0.0893401 0)
(1.17052 -0.187223 0)
(1.11492 -0.207983 0)
(1.11308 -0.183863 0)
(0.986001 -0.421555 0)
(0.873687 -0.324798 0)
(0.672438 -0.0928902 0)
(0.636863 0.217728 0)
(0.609 0.483182 0)
(0.753002 0.216907 0)
(1.02278 0.157198 0)
(1.12551 -0.100802 0)
(1.08357 -0.36665 0)
(0.9053 -0.246889 0)
(0.659598 -0.27268 0)
(0.71671 0.169818 0)
(0.859047 0.52261 0)
(1.12178 0.0428558 0)
(1.03215 -0.310146 0)
(0.876781 -0.0413253 0)
(0.919231 0.185844 0)
(0.959669 0.0613719 0)
(0.953018 -0.0456024 0)
(0.954942 0.0026903 0)
(0.936507 0.0270975 0)
(0.927685 0.00559158 0)
(0.938752 -0.000546738 0)
(0.931314 0.00435282 0)
(1.07256 -0.0613758 0)
(1.0553 -0.0729299 0)
(1.02241 -0.0619688 0)
(0.989478 -0.0556112 0)
(0.968889 -0.0144666 0)
(0.951364 0.00541067 0)
(0.958801 0.118399 0)
(1.06977 0.124762 0)
(1.14907 0.0880889 0)
(1.18619 0.00965065 0)
(1.18834 -0.0842375 0)
(1.14053 -0.130447 0)
(1.0785 -0.196676 0)
(1.02802 -0.210274 0)
(0.959227 -0.359436 0)
(0.783562 -0.192256 0)
(0.611885 -0.00116038 0)
(0.575509 0.223532 0)
(0.643751 0.433503 0)
(0.871081 0.132018 0)
(1.02848 0.0731722 0)
(1.13625 -0.146787 0)
(1.06498 -0.316243 0)
(0.849933 -0.145299 0)
(0.609817 -0.211837 0)
(0.621076 0.140014 0)
(0.831218 0.438966 0)
(1.13485 -0.004621 0)
(1.01295 -0.26399 0)
(0.83 -0.0160283 0)
(0.884628 0.17093 0)
(0.949675 0.0542213 0)
(0.94094 -0.0447137 0)
(0.939588 0.00430771 0)
(0.925259 0.0299731 0)
(0.92202 0.00510883 0)
(0.932513 -0.00105663 0)
(0.925743 0.00517117 0)
(1.06166 -0.035688 0)
(1.05079 -0.0427764 0)
(1.03212 -0.0351014 0)
(1.0131 -0.0340253 0)
(0.997024 0.00338394 0)
(0.996839 0.00254574 0)
(0.999758 0.074747 0)
(1.06581 0.0650179 0)
(1.10276 0.0434991 0)
(1.14473 0.00562923 0)
(1.13104 -0.0707514 0)
(1.1055 -0.111527 0)
(1.08382 -0.137573 0)
(1.01421 -0.117207 0)
(0.970473 -0.274092 0)
(0.762359 -0.109607 0)
(0.692785 0.0485579 0)
(0.660116 0.186117 0)
(0.796471 0.328382 0)
(1.015 0.0393311 0)
(1.04477 0.0259966 0)
(1.14465 -0.127254 0)
(1.04413 -0.250773 0)
(0.840132 -0.0616527 0)
(0.66926 -0.166035 0)
(0.56838 0.090673 0)
(0.822089 0.329002 0)
(1.14507 -0.028738 0)
(0.986135 -0.203675 0)
(0.773747 0.00682846 0)
(0.858583 0.146489 0)
(0.948382 0.045054 0)
(0.931461 -0.0412495 0)
(0.922258 0.00624786 0)
(0.91504 0.0314775 0)
(0.919437 0.00387124 0)
(0.928061 -0.00158595 0)
(0.922962 0.00593415 0)
(1.05421 -0.0176646 0)
(1.04729 -0.022358 0)
(1.0395 -0.0168559 0)
(1.02545 -0.0205255 0)
(1.01707 0.0070704 0)
(1.0223 -0.00217103 0)
(1.01832 0.0430768 0)
(1.06586 0.0265335 0)
(1.07164 0.0216302 0)
(1.10766 -0.00733229 0)
(1.09974 -0.0586996 0)
(1.07083 -0.0754956 0)
(1.04336 -0.12185 0)
(0.994943 -0.113972 0)
(0.981406 -0.206293 0)
(0.795614 -0.0248751 0)
(0.816244 0.0727272 0)
(0.818133 0.131157 0)
(0.953313 0.230157 0)
(1.11238 0.0117486 0)
(1.04928 0.00443051 0)
(1.12512 -0.138819 0)
(1.0004 -0.192804 0)
(0.846172 0.0191607 0)
(0.809891 -0.0880606 0)
(0.618734 0.0718521 0)
(0.846802 0.198945 0)
(1.14309 -0.0708104 0)
(0.950276 -0.128992 0)
(0.74581 0.0349428 0)
(0.866908 0.109266 0)
(0.959675 0.0320573 0)
(0.930556 -0.0357733 0)
(0.911868 0.00864256 0)
(0.913794 0.0309021 0)
(0.925301 0.00153308 0)
(0.929537 -0.00212428 0)
(0.925877 0.00653297 0)
(1.04843 -0.00589317 0)
(1.04411 -0.0104145 0)
(1.04245 -0.00596794 0)
(1.03375 -0.01235 0)
(1.02889 0.00723816 0)
(1.03456 -0.00425287 0)
(1.02837 0.0225485 0)
(1.05981 0.00730849 0)
(1.05311 0.00526526 0)
(1.08182 -0.0134767 0)
(1.06693 -0.048025 0)
(1.05462 -0.0584091 0)
(1.03969 -0.0883884 0)
(0.996803 -0.0594186 0)
(0.974117 -0.13694 0)
(0.846313 0.00418232 0)
(0.915316 0.0581831 0)
(0.927903 0.0847604 0)
(1.01534 0.14617 0)
(1.1256 -0.0141509 0)
(1.04968 0.0181256 0)
(1.10752 -0.0990813 0)
(0.981532 -0.123761 0)
(0.86504 0.0461063 0)
(0.946272 -0.0553124 0)
(0.781283 0.0684125 0)
(0.916392 0.107006 0)
(1.12905 -0.0801492 0)
(0.93802 -0.0517417 0)
(0.79226 0.0442593 0)
(0.915875 0.0648877 0)
(0.982573 0.0246004 0)
(0.94817 -0.0258931 0)
(0.923745 0.0110094 0)
(0.932484 0.0282805 0)
(0.945124 -0.000936792 0)
(0.9431 -0.00192549 0)
(0.939219 0.00712043 0)
(1.04362 0.000799818 0)
(1.04147 -0.00290502 0)
(1.04254 -0.000318258 0)
(1.03722 -0.00658358 0)
(1.03405 0.00518306 0)
(1.03897 -0.00532247 0)
(1.03225 0.0105522 0)
(1.05266 -0.00332576 0)
(1.0422 -0.00245483 0)
(1.06296 -0.0157688 0)
(1.04758 -0.0373951 0)
(1.0436 -0.0390474 0)
(1.0206 -0.0690754 0)
(0.99818 -0.042585 0)
(0.984697 -0.0926589 0)
(0.903856 0.0133103 0)
(0.967004 0.0316115 0)
(0.971158 0.0499748 0)
(1.03341 0.0981773 0)
(1.0867 -0.015441 0)
(1.03351 0.0223394 0)
(1.07635 -0.0902968 0)
(0.977546 -0.0775145 0)
(0.915092 0.0498452 0)
(1.00311 -0.0436664 0)
(0.906398 0.0791915 0)
(0.984239 0.0484696 0)
(1.08989 -0.0874211 0)
(0.935785 0.0129979 0)
(0.880829 0.0491054 0)
(0.970662 0.0315071 0)
(1.00113 0.0216552 0)
(0.973462 -0.0163643 0)
(0.950521 0.0132114 0)
(0.964031 0.0253815 0)
(0.97234 -0.00236329 0)
(0.965166 -0.000680022 0)
(0.961334 0.0078817 0)
(1.03943 0.00462312 0)
(1.039 0.000997248 0)
(1.04035 0.00256293 0)
(1.03753 -0.00333949 0)
(1.0354 0.00347794 0)
(1.03862 -0.00503895 0)
(1.03284 0.00329864 0)
(1.04555 -0.0065279 0)
(1.03463 -0.00697938 0)
(1.0497 -0.014227 0)
(1.03327 -0.0300335 0)
(1.03545 -0.02649 0)
(1.01673 -0.0511352 0)
(1.00377 -0.020909 0)
(0.993091 -0.0575596 0)
(0.945873 0.0112435 0)
(0.993149 0.0188242 0)
(0.982265 0.027087 0)
(1.03255 0.0660089 0)
(1.05516 -0.0213944 0)
(1.03113 0.0289381 0)
(1.0585 -0.0587551 0)
(0.9751 -0.0430816 0)
(0.961605 0.0457692 0)
(1.0121 -0.0458098 0)
(0.962027 0.0706009 0)
(1.03143 0.0250953 0)
(1.0458 -0.0668217 0)
(0.943676 0.0493763 0)
(0.964923 0.0347685 0)
(1.00726 0.0107411 0)
(1.01447 0.0254626 0)
(0.999012 -0.00800847 0)
(0.980153 0.0140593 0)
(0.9972 0.0224901 0)
(0.999266 -0.00216441 0)
(0.989417 0.00133623 0)
(0.987182 0.00869787 0)
(1.03529 0.00634041 0)
(1.03614 0.00323251 0)
(1.03697 0.00375029 0)
(1.03627 -0.0009745 0)
(1.03363 0.00231619 0)
(1.0367 -0.00402129 0)
(1.03075 -0.000124987 0)
(1.03964 -0.0067636 0)
(1.02922 -0.00816235 0)
(1.0401 -0.0113392 0)
(1.02601 -0.0231623 0)
(1.02966 -0.016158 0)
(1.01529 -0.0363561 0)
(1.00501 -0.0121092 0)
(1.00391 -0.0367106 0)
(0.970607 0.00659796 0)
(1.00745 0.0103151 0)
(0.989453 0.0114339 0)
(1.03016 0.0452642 0)
(1.03576 -0.0201444 0)
(1.01889 0.0252269 0)
(1.04808 -0.0419314 0)
(0.978054 -0.0281348 0)
(0.995783 0.0367826 0)
(1.01255 -0.0400507 0)
(0.977161 0.0613669 0)
(1.04862 0.0105705 0)
(1.01281 -0.0517487 0)
(0.96748 0.0589704 0)
(1.01685 0.0223461 0)
(1.01402 0.00468398 0)
(1.02178 0.0275419 0)
(1.01719 -0.00382896 0)
(1.00083 0.0136014 0)
(1.0203 0.0198202 0)
(1.01758 -0.000631755 0)
(1.00741 0.00320156 0)
(1.00821 0.0089628 0)
(1.03134 0.00683944 0)
(1.03302 0.00439749 0)
(1.03318 0.00420967 0)
(1.03364 0.000666988 0)
(1.0309 0.00174106 0)
(1.03357 -0.00244681 0)
(1.02825 -0.00150372 0)
(1.03425 -0.00515107 0)
(1.02576 -0.00768937 0)
(1.03275 -0.00801086 0)
(1.02265 -0.0171645 0)
(1.0241 -0.0100737 0)
(1.01668 -0.024995 0)
(1.00684 -0.0068058 0)
(1.01151 -0.0216609 0)
(0.986406 0.00208698 0)
(1.01471 0.00736398 0)
(0.995537 0.00270309 0)
(1.02479 0.0298525 0)
(1.02678 -0.0165994 0)
(1.01178 0.0192888 0)
(1.04277 -0.022647 0)
(0.981787 -0.0169236 0)
(1.01203 0.0291734 0)
(1.00997 -0.0301872 0)
(0.984451 0.0447197 0)
(1.05387 0.00726841 0)
(0.995235 -0.0302011 0)
(0.987164 0.0528251 0)
(1.03453 0.0137707 0)
(1.00978 0.005326 0)
(1.02761 0.0262487 0)
(1.0253 -0.000100569 0)
(1.01031 0.0127886 0)
(1.03078 0.016968 0)
(1.02613 0.00194278 0)
(1.017 0.00482539 0)
(1.02018 0.00878891 0)
(1.02777 0.00667043 0)
(1.02966 0.00503563 0)
(1.02941 0.00423138 0)
(1.03041 0.00194108 0)
(1.02789 0.00165548 0)
(1.03003 -0.000900697 0)
(1.02575 -0.00141688 0)
(1.02944 -0.00338541 0)
(1.02357 -0.00591107 0)
(1.02703 -0.00541979 0)
(1.02126 -0.0117229 0)
(1.02035 -0.00642273 0)
(1.01816 -0.0156957 0)
(1.00843 -0.00454742 0)
(1.01578 -0.0123492 0)
(0.996644 -0.000317809 0)
(1.01699 0.00441067 0)
(1.00209 -0.000681585 0)
(1.01961 0.018431 0)
(1.02289 -0.0109084 0)
(1.00681 0.0126598 0)
(1.03585 -0.0120859 0)
(0.988266 -0.0108987 0)
(1.01779 0.019912 0)
(1.0109 -0.0189662 0)
(0.990822 0.0306665 0)
(1.04625 0.0058198 0)
(0.992666 -0.0168792 0)
(1.00172 0.038272 0)
(1.03492 0.0113057 0)
(1.00753 0.00695375 0)
(1.03006 0.020908 0)
(1.02663 0.00302489 0)
(1.01493 0.0109753 0)
(1.03316 0.0135448 0)
(1.02827 0.00444268 0)
(1.02123 0.00558873 0)
(1.02515 0.00792052 0)
(1.02451 0.00622395 0)
(1.02628 0.00528978 0)
(1.02599 0.00414708 0)
(1.02696 0.00282716 0)
(1.02498 0.00185787 0)
(1.02643 0.000406271 0)
(1.02342 -0.000668086 0)
(1.02547 -0.00175481 0)
(1.02173 -0.00372276 0)
(1.02314 -0.00347072 0)
(1.02011 -0.00708098 0)
(1.01826 -0.00428862 0)
(1.01834 -0.00906043 0)
(1.01055 -0.003394 0)
(1.01702 -0.00660015 0)
(1.00387 -0.00118706 0)
(1.01712 0.00248012 0)
(1.00677 -0.000968114 0)
(1.01621 0.0101161 0)
(1.01986 -0.00562023 0)
(1.00644 0.00714164 0)
(1.02937 -0.00459396 0)
(0.995839 -0.00522219 0)
(1.0182 0.0130238 0)
(1.01138 -0.00891142 0)
(0.997895 0.0189279 0)
(1.03677 0.00676145 0)
(0.997704 -0.00555552 0)
(1.00908 0.0261271 0)
(1.02932 0.0114068 0)
(1.00932 0.0079678 0)
(1.0292 0.0164989 0)
(1.02504 0.00677156 0)
(1.01796 0.0092993 0)
(1.03168 0.0109129 0)
(1.02759 0.00695669 0)
(1.02298 0.0062629 0)
(1.02658 0.00728674 0)
(1.02169 0.00565432 0)
(1.02311 0.00532693 0)
(1.02291 0.00397857 0)
(1.02366 0.00340879 0)
(1.02228 0.00215174 0)
(1.02321 0.00141809 0)
(1.02121 0.000305845 0)
(1.02233 -0.000482896 0)
(1.01994 -0.00161926 0)
(1.02047 -0.00208474 0)
(1.01876 -0.00345945 0)
(1.01723 -0.00299045 0)
(1.01763 -0.00441258 0)
(1.01242 -0.00260765 0)
(1.01676 -0.00312991 0)
(1.00855 -0.00102881 0)
(1.01632 0.0010395 0)
(1.0099 -5.4948e-05 0)
(1.0146 0.00474196 0)
(1.01748 -0.00144056 0)
(1.00804 0.00358983 0)
(1.02324 -0.000612361 0)
(1.00225 -0.00179726 0)
(1.01712 0.00763258 0)
(1.01209 -0.00186041 0)
(1.00419 0.0110419 0)
(1.02758 0.00721434 0)
(1.00359 0.000188791 0)
(1.01326 0.0162097 0)
(1.02423 0.0118932 0)
(1.01198 0.00745338 0)
(1.02674 0.0125031 0)
(1.02327 0.0090437 0)
(1.02017 0.00716042 0)
(1.02921 0.00863853 0)
(1.02639 0.00841551 0)
(1.02385 0.00612859 0)
(1.02684 0.00637341 0)
(1.01922 0.00509306 0)
(1.02024 0.00518729 0)
(1.02023 0.00379067 0)
(1.0207 0.00374174 0)
(1.0199 0.00242275 0)
(1.02038 0.00214591 0)
(1.0192 0.00115602 0)
(1.01974 0.000487993 0)
(1.01828 3.57417e-05 0)
(1.01849 -0.00103472 0)
(1.01739 -0.00085961 0)
(1.01651 -0.00205057 0)
(1.01656 -0.0013027 0)
(1.01366 -0.00198704 0)