/*--------------------------------*- C++ -*----------------------------------*\
| =========                 |                                                 |
| \\      /  F ield         | OpenFOAM: The Open Source CFD Toolbox           |
|  \\    /   O peration     | Version:  2312                                  |
|   \\  /    A nd           | Website:  www.openfoam.com                      |
|    \\/     M anipulation  |                                                 |
\*---------------------------------------------------------------------------*/
FoamFile
{
    version     2.0;
    format      ascii;
    arch        "LSB;label=32;scalar=64";
    class       volScalarField;
    location    "86.45";
    object      p;
}
// * * * * * * * * * * * * * * * * * * * * * * * * * * * * * * * * * * * * * //

dimensions      [0 2 -2 0 0 0 0];

internalField   nonuniform List<scalar> 
5478
(
-0.345152
-0.344513
-0.339622
-0.331566
-0.322065
-0.312545
-0.304537
-0.298752
-0.294691
-0.290848
-0.285643
-0.27688
-0.265801
-0.250417
-0.231824
-0.354395
-0.352394
-0.347624
-0.340567
-0.33154
-0.320888
-0.309489
-0.298152
-0.286993
-0.275674
-0.263584
-0.25086
-0.237063
-0.221081
-0.20455
-0.367875
-0.363532
-0.357654
-0.350078
-0.339584
-0.325715
-0.30967
-0.292951
-0.276537
-0.260737
-0.245559
-0.230349
-0.214732
-0.198707
-0.182374
-0.385463
-0.378204
-0.370229
-0.360368
-0.345822
-0.326969
-0.306129
-0.285323
-0.26553
-0.247004
-0.229409
-0.21262
-0.196428
-0.180489
-0.16535
-0.408479
-0.397259
-0.386706
-0.371718
-0.350417
-0.325597
-0.300345
-0.276293
-0.254034
-0.233555
-0.214725
-0.197172
-0.180451
-0.164725
-0.149489
-0.437989
-0.420883
-0.405899
-0.382475
-0.352645
-0.321688
-0.292399
-0.265667
-0.241532
-0.219767
-0.199972
-0.181843
-0.165182
-0.149669
-0.13488
-0.470977
-0.448161
-0.423757
-0.389232
-0.35073
-0.314129
-0.281273
-0.252236
-0.226601
-0.203872
-0.183648
-0.165531
-0.14912
-0.134234
-0.120115
-0.50031
-0.473696
-0.435817
-0.388921
-0.34253
-0.301114
-0.26532
-0.234529
-0.20791
-0.184771
-0.164525
-0.146741
-0.131112
-0.117199
-0.104526
-0.415409
-0.417133
-0.417813
-0.419599
-0.422973
-0.428023
-0.434852
-0.443613
-0.4546
-0.468339
-0.48544
-0.50633
-0.530701
-0.556394
-0.580441
-0.39982
-0.399373
-0.398151
-0.397669
-0.398582
-0.401396
-0.406841
-0.415815
-0.429223
-0.447852
-0.472382
-0.502151
-0.535744
-0.569968
-0.59959
-0.387187
-0.384841
-0.382146
-0.379658
-0.37827
-0.378794
-0.382317
-0.39008
-0.403289
-0.422657
-0.448239
-0.479519
-0.512924
-0.547412
-0.575453
-0.37563
-0.372308
-0.368251
-0.363511
-0.359246
-0.356723
-0.357235
-0.362137
-0.372597
-0.389616
-0.412424
-0.441422
-0.471832
-0.503784
-0.527408
-0.364537
-0.361306
-0.356077
-0.348706
-0.340808
-0.334317
-0.330927
-0.332249
-0.339527
-0.353965
-0.37468
-0.401946
-0.429216
-0.455891
-0.470384
-0.354143
-0.351975
-0.345985
-0.336191
-0.324822
-0.314532
-0.307826
-0.306916
-0.313208
-0.327315
-0.346424
-0.369842
-0.38996
-0.405388
-0.406789
-0.345723
-0.344753
-0.338742
-0.32751
-0.31471
-0.303157
-0.296021
-0.295303
-0.301161
-0.312457
-0.326371
-0.340107
-0.348709
-0.350798
-0.340992
-0.342015
-0.341616
-0.3359
-0.325928
-0.313992
-0.303839
-0.297186
-0.295225
-0.297788
-0.302502
-0.307426
-0.308593
-0.304546
-0.295086
-0.28112
-0.618621
-0.604361
-0.457082
-0.309182
-0.214736
-0.181947
-0.197863
-0.203318
-0.178077
-0.140886
-0.130523
-0.119126
-0.0991903
-0.0993119
-0.120152
-0.134952
-0.125097
-0.0983971
-0.0958337
-0.119692
-0.130196
-0.114674
-0.127152
-0.148775
-0.134567
-0.103856
-0.108623
-0.0875939
-0.0614758
-0.0444952
-0.00857761
-0.00225521
-0.00911729
-0.014244
-0.0047993
0.017425
0.0148912
0.000259293
-0.640119
-0.623655
-0.480537
-0.320766
-0.208013
-0.162821
-0.155769
-0.145819
-0.134108
-0.124425
-0.128443
-0.121314
-0.107612
-0.110488
-0.125038
-0.135526
-0.127059
-0.103366
-0.105217
-0.129524
-0.138098
-0.111523
-0.112605
-0.129862
-0.121873
-0.114106
-0.12317
-0.092104
-0.0576287
-0.0441317
-0.0112714
-0.00512534
-0.0102128
-0.0151317
-0.00537066
0.017961
0.0147136
-3.31095e-05
-0.608006
-0.589351
-0.463905
-0.311717
-0.19935
-0.150381
-0.126806
-0.0991984
-0.0924369
-0.108621
-0.125664
-0.123614
-0.119253
-0.124357
-0.131086
-0.135035
-0.127145
-0.107234
-0.113182
-0.138827
-0.143827
-0.106899
-0.0972876
-0.111162
-0.106884
-0.121132
-0.134469
-0.0955218
-0.0534744
-0.0431349
-0.0140022
-0.00801366
-0.0112868
-0.015921
-0.00607422
0.0183003
0.0144966
-0.00026231
-0.545066
-0.531444
-0.42324
-0.292356
-0.191331
-0.142246
-0.113485
-0.0760784
-0.0599284
-0.0951173
-0.123698
-0.127946
-0.133377
-0.141085
-0.137521
-0.133063
-0.124621
-0.109531
-0.119369
-0.147087
-0.148363
-0.10204
-0.0826636
-0.0935333
-0.0908137
-0.124493
-0.141767
-0.0983515
-0.0496014
-0.0416071
-0.0166713
-0.0107108
-0.0123262
-0.0166644
-0.00686884
0.0184338
0.0142671
-0.000426793
-0.466348
-0.455211
-0.372328
-0.26897
-0.184268
-0.134787
-0.108482
-0.0752415
-0.0555338
-0.0898589
-0.120946
-0.130072
-0.145778
-0.155503
-0.144666
-0.131168
-0.119751
-0.109579
-0.122971
-0.153688
-0.151556
-0.0976268
-0.0695411
-0.0776235
-0.0748706
-0.124021
-0.145027
-0.10016
-0.0463503
-0.0395821
-0.0192018
-0.0130085
-0.0133238
-0.0173783
-0.00773565
0.0183528
0.0140369
-0.000532585
-0.382704
-0.374914
-0.320083
-0.246382
-0.177135
-0.129583
-0.105293
-0.0800196
-0.0651799
-0.0977314
-0.124515
-0.130168
-0.148194
-0.161419
-0.145501
-0.126838
-0.112912
-0.106516
-0.123461
-0.157749
-0.154196
-0.0951108
-0.058788
-0.0639268
-0.0596526
-0.119619
-0.145305
-0.101257
-0.0441868
-0.037346
-0.0216134
-0.0147342
-0.0142852
-0.0180662
-0.0086395
0.0180525
0.0138089
-0.000588701
-0.310936
-0.311595
-0.279875
-0.229571
-0.172837
-0.126762
-0.101422
-0.0801696
-0.0771213
-0.10498
-0.12584
-0.12082
-0.145389
-0.163741
-0.149884
-0.125144
-0.106319
-0.100021
-0.12004
-0.159365
-0.153518
-0.0920361
-0.0508432
-0.0534504
-0.0450539
-0.11137
-0.141396
-0.10002
-0.0436557
-0.0346984
-0.0239623
-0.0157561
-0.0152056
-0.0187523
-0.00962702
0.0175432
0.0135962
-0.000609129
-0.265344
-0.267054
-0.245809
-0.213084
-0.170506
-0.128752
-0.104417
-0.074259
-0.0747603
-0.112819
-0.126645
-0.111515
-0.134846
-0.147777
-0.13788
-0.119307
-0.0975941
-0.0912517
-0.11198
-0.156978
-0.154609
-0.0914037
-0.0453683
-0.0445884
-0.0313248
-0.0996967
-0.136385
-0.0979112
-0.0444625
-0.0320121
-0.0258228
-0.0160574
-0.0160977
-0.0193916
-0.0106088
0.0167751
0.0133905
-0.000605997
-0.234204
-0.23997
-0.216141
-0.18257
-0.143386
-0.107535
-0.0850186
-0.0571121
-0.0457948
-0.07738
-0.0964848
-0.0871357
-0.11506
-0.141265
-0.134529
-0.10778
-0.083577
-0.0810994
-0.104163
-0.144666
-0.144981
-0.0868563
-0.0407557
-0.0382861
-0.0235341
-0.0867331
-0.124427
-0.0928299
-0.0471085
-0.0324791
-0.0271988
-0.0153859
-0.0170474
-0.0204255
-0.0116682
0.0159507
0.0131471
-0.000599162
-0.171287
-0.180622
-0.161739
-0.133814
-0.104324
-0.0772894
-0.0598616
-0.0359281
-0.0205795
-0.0317429
-0.0343512
-0.0446482
-0.083272
-0.121177
-0.108469
-0.0817992
-0.0604756
-0.0594951
-0.0898599
-0.135175
-0.134889
-0.0758257
-0.0279384
-0.0252386
-0.0112669
-0.0667513
-0.11333
-0.0864979
-0.044694
-0.0342232
-0.0279228
-0.0159258
-0.0184503
-0.0215476
-0.0128432
0.0148102
0.0124429
-0.000607837
-0.13253
-0.143486
-0.131936
-0.11159
-0.0879157
-0.062523
-0.0434676
-0.0166073
0.0136182
0.0355081
0.0427099
0.0130683
-0.0440864
-0.083172
-0.0774317
-0.0592164
-0.0401835
-0.0346359
-0.0594497
-0.105041
-0.104743
-0.0529885
-0.0138884
-0.0170737
-0.00139912
-0.0440767
-0.0913305
-0.0720632
-0.0406635
-0.0376709
-0.0291417
-0.0158281
-0.0195641
-0.0225236
-0.0141691
0.0132289
0.0114214
-0.000563782
-0.101155
-0.108607
-0.100229
-0.0823724
-0.0610589
-0.0396828
-0.022092
0.000651939
0.0269214
0.0448565
0.0652487
0.0458918
-0.00732636
-0.0413179
-0.0425302
-0.0304935
-0.0156661
-0.00686371
-0.0239041
-0.0652744
-0.0602346
-0.0274014
-0.00658742
-0.00392846
0.00887922
-0.019725
-0.0622816
-0.0502757
-0.0369221
-0.0410358
-0.0298533
-0.0157883
-0.0206673
-0.023353
-0.0154415
0.0112264
0.0101996
-0.000422909
-0.0723882
-0.0793559
-0.074682
-0.0621438
-0.0465348
-0.0293071
-0.0141502
0.00554618
0.0294769
0.0494532
0.061859
0.0515379
0.0168824
-0.0099743
-0.0171438
-0.0124116
-0.00314999
0.0124978
0.014526
-0.00851327
-0.0156625
-0.00614531
-0.00729929
-0.00550951
0.0128322
0.00199328
-0.0263933
-0.0209026
-0.0302208
-0.0422657
-0.0295706
-0.0157995
-0.0215602
-0.0240723
-0.0167266
0.00884009
0.00887928
-0.000180819
-0.0517089
-0.0576634
-0.0546433
-0.0452687
-0.032855
-0.0187204
-0.00535735
0.0100119
0.027951
0.0417072
0.0506081
0.045629
0.0266061
0.00828923
0.000451188
0.00534347
0.0113871
0.0239715
0.0288864
0.00569543
0.00487878
0.00590795
-0.00633096
-0.00242943
0.0158723
0.0133291
0.00135629
0.00912054
-0.0191532
-0.0362072
-0.027231
-0.0162477
-0.021983
-0.0241489
-0.0174959
0.00621652
0.00756714
0.000162738
-0.0354696
-0.0397065
-0.037928
-0.0312119
-0.0220074
-0.0115137
-0.00137402
0.00968363
0.0215599
0.0324207
0.0389582
0.0369869
0.0280649
0.0172632
0.0107178
0.0130607
0.0163735
0.0267261
0.0342637
0.0161391
0.0126384
0.012669
0.000738224
0.00285576
0.0168642
0.0179741
0.0181744
0.027739
-0.00577254
-0.0219059
-0.0211933
-0.0170652
-0.0211997
-0.0229589
-0.0172066
0.00368106
0.00640308
0.000597165
-0.02204
-0.0256361
-0.0248957
-0.0203084
-0.0136586
-0.00600799
0.00163722
0.00973532
0.0181537
0.0254436
0.0301943
0.0298825
0.0261238
0.0207572
0.0164965
0.0191774
0.0219353
0.0270194
0.0318311
0.0201709
0.0149156
0.0158363
0.00846249
0.00993275
0.0179672
0.0163958
0.0222686
0.0308243
0.00560709
-0.00697892
-0.0106988
-0.0120717
-0.016999
-0.0207252
-0.0155691
0.00180429
0.00567047
0.00111693
-0.0120244
-0.0148925
-0.0146372
-0.0115446
-0.00685758
-0.00143315
0.00403789
0.00971453
0.0153704
0.0203419
0.0239453
0.024698
0.0236333
0.0216469
0.0191295
0.0204445
0.0222676
0.0249379
0.0276649
0.0222359
0.0175171
0.0170149
0.0130369
0.0144984
0.0185074
0.0174917
0.0227166
0.0275913
0.0131355
0.00408952
0.00241193
0.000401177
-0.00836623
-0.0163099
-0.0114966
0.00128344
0.00539688
0.00165315
-0.00429892
-0.0064687
-0.00652461
-0.00456623
-0.00140702
0.00232071
0.00612564
0.0100373
0.0138746
0.0172876
0.0200179
0.0211749
0.0212198
0.02088
0.0200462
0.0210877
0.0227357
0.0238507
0.0247271
0.0223801
0.0192274
0.017737
0.0155567
0.0176099
0.0195049
0.0178729
0.0207176
0.0240893
0.0169092
0.0111325
0.0118233
0.00987396
0.00185379
-0.00864835
-0.00482534
0.00241741
0.0055757
0.00212295
0.00179486
9.09436e-05
-0.000182999
0.000961266
0.00302886
0.00554296
0.00812706
0.0107458
0.0133234
0.0156836
0.0177078
0.0189272
0.019549
0.0199603
0.020027
0.0206256
0.0215142
0.0222741
0.0224592
0.0214032
0.0197858
0.018391
0.0167503
0.018104
0.0195115
0.0182776
0.0197658
0.0215327
0.0181088
0.0145313
0.0162636
0.014504
0.00861597
-0.00105818
0.000865679
0.00476615
0.00628255
0.00248207
0.00643881
0.00507186
0.00472342
0.00537851
0.00669037
0.00832244
0.0100109
0.0117276
0.0134435
0.0150649
0.0165137
0.0175855
0.0183527
0.0189676
0.0193525
0.0199496
0.0206049
0.0211267
0.0212924
0.0204821
0.0196101
0.018719
0.0174458
0.0183202
0.019499
0.0184154
0.0181312
0.0194267
0.0179963
0.0160534
0.0172001
0.0156638
0.0114775
0.00390838
0.00387423
0.00648451
0.00667042
0.00264054
0.00998453
0.00891602
0.00853515
0.00884235
0.00964613
0.0106837
0.0117706
0.0128603
0.0139579
0.015046
0.016076
0.016919
0.0176056
0.0182212
0.0187468
0.0192563
0.0196678
0.0199996
0.0201382
0.0196714
0.0191367
0.0186862
0.0177883
0.0179486
0.0186824
0.0181592
0.017563
0.0179382
0.0172868
0.0163044
0.0165537
0.0152832
0.0118525
0.00620977
0.00539986
0.00692401
0.00617633
0.00249938
0.0127417
0.0118964
0.0115119
0.0116042
0.0120527
0.0126818
0.0133474
0.0140077
0.0146816
0.0153826
0.0160788
0.0166841
0.0172207
0.0177207
0.0181838
0.0185907
0.0188994
0.0191374
0.0192492
0.0190257
0.0186672
0.0184137
0.0178857
0.0177311
0.0180662
0.0177844
0.0171492
0.016902
0.0164816
0.0159119
0.0156337
0.0143302
0.0114888
0.00730608
0.00605542
0.00648075
0.00516028
0.00214556
0.0148326
0.0141672
0.0138116
0.0137775
0.0139911
0.0143358
0.0147106
0.0150799
0.0154689
0.0158889
0.0163264
0.0167201
0.0170868
0.0174433
0.0177919
0.0180986
0.0183074
0.0184711
0.0185391
0.0184478
0.0182033
0.0180073
0.0176952
0.0173925
0.0173921
0.017186
0.0166613
0.0161177
0.0156445
0.0151251
0.0145129
0.0132107
0.0108329
0.00767461
0.00621801
0.00583358
0.00425828
0.00174809
0.0164277
0.0159064
0.015584
0.0154733
0.0155358
0.0156918
0.0158709
0.0160417
0.0162296
0.0164484
0.0166908
0.0169139
0.0171256
0.0173439
0.0175637
0.0177616
0.0178816
0.0179797
0.018006
0.0179458
0.0177715
0.0175883
0.0173541
0.017066
0.016865
0.0165882
0.0161361
0.0154993
0.0148966
0.0143365
0.0136214
0.0122875
0.0102323
0.00779031
0.00628014
0.00537881
0.00360601
0.00142489
0.0176297
0.017218
0.0169328
0.0167847
0.0167526
0.0167821
0.0168266
0.0168627
0.0169137
0.0169907
0.0170901
0.0171799
0.017263
0.0173596
0.0174626
0.0175562
0.0175934
0.0176203
0.0175962
0.0175238
0.0173658
0.0171839
0.0169587
0.016664
0.0163741
0.0160178
0.0155819
0.0149532
0.014264
0.0135913
0.0127909
0.0115104
0.00975908
0.0077841
0.00627721
0.00503054
0.00317469
0.00118583
0.0185227
0.0181974
0.0179484
0.0177822
0.0176902
0.0176358
0.0175909
0.0175389
0.0174981
0.0174773
0.0174713
0.0174614
0.0174454
0.0174446
0.0174487
0.0174501
0.0174116
0.0173679
0.0172893
0.0171808
0.0170086
0.0168078
0.0165682
0.016257
0.0159275
0.0155163
0.0150551
0.0144472
0.0137233
0.012967
0.0121397
0.010931
0.00938993
0.00769999
0.0062565
0.00480723
0.00296389
0.00106479
0.0191777
0.0189153
0.018696
0.0185233
0.0183962
0.0182887
0.0181856
0.0180757
0.0179732
0.017886
0.0178057
0.0177258
0.0176347
0.0175596
0.0174829
0.0174093
0.0173058
0.0171965
0.0170635
0.016906
0.0167068
0.0164741
0.0162097
0.0158766
0.0155195
0.0150836
0.0145925
0.014004
0.0132717
0.0124778
0.0116188
0.0104835
0.00913674
0.00767611
0.00627254
0.00474088
0.00285889
0.000988473
0.0196398
0.0194222
0.0192267
0.0190547
0.0189075
0.0187686
0.0186284
0.0184832
0.0183395
0.0182088
0.0180769
0.0179483
0.0178036
0.0176737
0.0175351
0.0174034
0.017247
0.0170831
0.0169056
0.0166959
0.0164719
0.0161952
0.0159098
0.0155486
0.0151628
0.0147126
0.0141829
0.0136075
0.0128896
0.0121031
0.0112546
0.0101783
0.00900119
0.00764351
0.00624547
0.00476906
0.00283517
0.000947802
0.0199545
0.019769
0.0195899
0.0194207
0.0192608
0.0191041
0.0189424
0.0187767
0.0186088
0.018447
0.018283
0.0181184
0.0179423
0.0177703
0.0175899
0.0174104
0.0172138
0.0170082
0.01679
0.0165426
0.0162837
0.0159793
0.0156602
0.0152849
0.0148668
0.0144007
0.013857
0.0132572
0.0125513
0.0117547
0.0108789
0.0098332
0.00869539
0.00741001
0.00600081
0.00442048
0.00270059
0.000908007
0.0201524
0.019986
0.0198177
0.0196505
0.0194846
0.0193174
0.0191447
0.0189674
0.0187854
0.0186045
0.0184195
0.0182334
0.0180375
0.0178396
0.0176326
0.0174208
0.0171982
0.016963
0.0167163
0.0164434
0.0161542
0.0158299
0.0154827
0.0150901
0.0146533
0.0141678
0.0136142
0.0129979
0.0123002
0.0114967
0.0106205
0.00960637
0.00848597
0.00724023
0.00584247
0.00433838
0.00266896
0.00090374
0.0202451
0.0200891
0.0199266
0.019761
0.0195924
0.0194213
0.0192443
0.0190628
0.0188748
0.0186848
0.0184895
0.0182923
0.0180872
0.0178768
0.0176561
0.0174273
0.0171894
0.0169383
0.016676
0.0163886
0.0160837
0.0157468
0.0153847
0.0149825
0.0145355
0.0140383
0.0134806
0.012855
0.012155
0.011354
0.0104752
0.00947497
0.00836202
0.00713192
0.0057529
0.00426314
0.00263403
0.000895843
-0.0889461
-0.101375
-0.114699
-0.127934
-0.143912
-0.159156
-0.178691
-0.201398
-0.0723064
-0.0812854
-0.0909207
-0.100913
-0.111879
-0.122513
-0.132965
-0.146507
-0.0563651
-0.0623916
-0.0684713
-0.0753132
-0.082411
-0.0893305
-0.097245
-0.10975
-0.0433377
-0.047288
-0.0511333
-0.0557157
-0.0609584
-0.0673089
-0.0758906
-0.0862796
-0.0318883
-0.0345917
-0.0373883
-0.0412486
-0.0461671
-0.0512786
-0.0561171
-0.0617461
-0.0225134
-0.024361
-0.0264567
-0.0291463
-0.0319917
-0.0343821
-0.0372949
-0.0424754
-0.0144
-0.0154505
-0.016543
-0.0178766
-0.0195736
-0.0217275
-0.0249419
-0.0292285
-0.00737123
-0.00785555
-0.00844643
-0.00946892
-0.0110418
-0.0128883
-0.014912
-0.0175764
-0.0016358
-0.0018905
-0.00224812
-0.00292189
-0.00387928
-0.00491456
-0.00622851
-0.00844341
0.00317947
0.00310245
0.00299864
0.0026771
0.00209621
0.00127873
0.000106947
-0.00167377
0.00719025
0.00718035
0.00716132
0.0069632
0.00653291
0.00590058
0.00504897
0.00374924
0.0104356
0.0104244
0.010424
0.0103126
0.0100412
0.00961657
0.00899192
0.00797025
0.0130732
0.0130462
0.0130475
0.0129853
0.0128012
0.0124752
0.0119663
0.011158
0.0151777
0.0151174
0.0150898
0.0150295
0.0148842
0.0146318
0.0142418
0.0136303
0.0168195
0.0167283
0.0166701
0.0166037
0.0164856
0.0162902
0.0159862
0.0155148
0.0180841
0.0179713
0.0178868
0.0178068
0.0176979
0.0175376
0.0172993
0.0169425
0.019036
0.0189101
0.0188082
0.0187179
0.0186155
0.0184815
0.0182928
0.0180213
0.0197453
0.0196136
0.0195023
0.0194051
0.0193045
0.0191851
0.0190296
0.0188205
0.0202621
0.020128
0.0200115
0.0199096
0.0198102
0.0197011
0.0195706
0.0194071
0.0206288
0.0204945
0.0203756
0.0202706
0.0201718
0.0200691
0.0199551
0.0198219
0.0208724
0.020742
0.0206239
0.0205181
0.0204197
0.0203217
0.0202186
0.0201059
0.0210195
0.020896
0.0207813
0.0206767
0.0205791
0.020484
0.0203872
0.0202862
0.0210847
0.020968
0.0208564
0.0207523
0.0206543
0.0205599
0.0204657
0.02037
0.0659759
0.0695034
0.0727138
0.0749268
0.0753654
0.0738791
0.070344
0.0642125
0.0544592
0.0396083
0.0176384
-0.0142469
-0.0606216
-0.124982
-0.182947
0.0437195
0.0451192
0.0446562
0.0426139
0.0389347
0.033314
0.0252387
0.0138957
-0.00186959
-0.0236247
-0.0535098
-0.094297
-0.150406
-0.226477
-0.288339
0.0217438
0.0206865
0.0164651
0.0105342
0.0032018
-0.00611466
-0.0182697
-0.0342419
-0.0552465
-0.0829087
-0.119503
-0.167891
-0.231403
-0.316271
-0.376118
-0.000360268
-0.00431792
-0.011693
-0.02057
-0.0308464
-0.0433613
-0.0590774
-0.0789989
-0.104348
-0.136733
-0.178567
-0.232896
-0.302216
-0.387883
-0.444348
-0.0231882
-0.0298665
-0.0393542
-0.0501698
-0.0626783
-0.0778262
-0.0964231
-0.119472
-0.148149
-0.183942
-0.22932
-0.287395
-0.358867
-0.441067
-0.491879
-0.0453148
-0.05457
-0.065547
-0.077776
-0.0920468
-0.109285
-0.129928
-0.155196
-0.186033
-0.224002
-0.271247
-0.330023
-0.400227
-0.475696
-0.519
-0.0664371
-0.0775598
-0.0894977
-0.102908
-0.118664
-0.137394
-0.159631
-0.186147
-0.217987
-0.256561
-0.30359
-0.360488
-0.426203
-0.491674
-0.527587
-0.0868558
-0.0983697
-0.111167
-0.125782
-0.142707
-0.162423
-0.185439
-0.212391
-0.244182
-0.281948
-0.32696
-0.37973
-0.437651
-0.490213
-0.520483
0.191301
0.206085
0.222594
0.241269
0.262174
0.285198
0.310236
0.33724
0.366131
0.396651
0.428206
0.459613
0.488862
0.511922
0.530847
0.1893
0.203287
0.219033
0.237056
0.257314
0.279549
0.303588
0.329374
0.35683
0.385667
0.415223
0.44422
0.470526
0.490165
0.505726
0.183177
0.195555
0.209926
0.226762
0.245778
0.266488
0.288604
0.312025
0.336631
0.362068
0.38757
0.411728
0.432181
0.445106
0.454317
0.172916
0.183107
0.19563
0.210723
0.227772
0.246118
0.265411
0.285493
0.306139
0.326838
0.346628
0.363889
0.375933
0.378988
0.379514
0.158578
0.166262
0.176841
0.190044
0.204677
0.219885
0.235355
0.250982
0.266491
0.281203
0.293903
0.302691
0.304491
0.295343
0.284904
0.140503
0.145174
0.153598
0.164748
0.176745
0.188525
0.199768
0.210352
0.219918
0.227634
0.232076
0.231085
0.221199
0.198257
0.174829
0.119003
0.121431
0.127959
0.136417
0.144871
0.152511
0.159089
0.164346
0.167669
0.167985
0.163643
0.15223
0.129943
0.0926128
0.0557496
0.0939167
0.095294
0.100898
0.106665
0.111159
0.114114
0.115533
0.115054
0.111817
0.104501
0.0912221
0.0693026
0.0345512
-0.0169298
-0.0660176
0.0310292
0.0355296
0.0317852
0.035744
0.0332881
0.0375838
0.0358366
0.0402222
0.0395442
0.0440526
0.0448318
0.0496014
0.052143
0.0578013
0.0624471
0.0697397
0.077208
0.0871758
0.0983093
0.112354
0.128375
0.148039
0.170669
0.0310782
0.0355489
0.0318523
0.0357667
0.0333725
0.0376183
0.0359456
0.0402939
0.0397212
0.044161
0.0450328
0.0497555
0.0523908
0.0581146
0.0627523
0.0701163
0.0775555
0.0875333
0.0985586
0.112551
0.128218
0.147644
0.169597
0.0311371
0.0355425
0.0319371
0.0357596
0.0334855
0.0376176
0.0360854
0.0403272
0.0398939
0.0442298
0.0452671
0.0498499
0.0526483
0.0582345
0.0629787
0.0703117
0.077687
0.0876343
0.0982961
0.112039
0.12694
0.145587
0.165732
0.0312048
0.0355122
0.0320371
0.0357258
0.0336176
0.037587
0.0362495
0.0403273
0.0400965
0.0442869
0.0455204
0.0499953
0.0529763
0.0585463
0.063255
0.0706977
0.0777747
0.0877232
0.0977402
0.111015
0.124535
0.141707
0.158867
0.0312804
0.0354611
0.0321476
0.0356691
0.033766
0.0375347
0.0364332
0.040298
0.0403114
0.0443024
0.0457642
0.0499691
0.0531948
0.0583565
0.063312
0.0705911
0.0773983
0.0869848
0.0963434
0.108764
0.120647
0.135758
0.148808
0.0313571
0.0353923
0.0322694
0.0355943
0.0339244
0.0374716
0.0366283
0.0402635
0.0405567
0.0443647
0.0460762
0.050246
0.0536617
0.0592379
0.063642
0.0710969
0.0773925
0.0869596
0.0951476
0.106648
0.115937
0.128209
0.136008
0.0314562
0.0353079
0.0323925
0.035509
0.0340851
0.037389
0.036823
0.0402
0.0407541
0.0443409
0.0462493
0.0500031
0.0537905
0.0588235
0.0634296
0.0704063
0.0764477
0.0851231
0.0925416
0.102324
0.109555
0.118113
0.120253
0.03154
0.0352147
0.0325143
0.0354218
0.0342591
0.0373384
0.0370299
0.0402137
0.0410619
0.0445127
0.0467153
0.0508415
0.0543185
0.0596327
0.0640471
0.071315
0.0766635
0.0854227
0.0909077
0.0994974
0.102378
0.106668
0.100673
0.0316421
0.0350811
0.0326733
0.0352687
0.0344347
0.0371705
0.0372293
0.0400166
0.0411787
0.0443559
0.0466988
0.0503142
0.0540273
0.0586076
0.0630811
0.0690895
0.074022
0.0803875
0.0848921
0.0892567
0.0896224
0.0864043
0.0750059
0.0317767
0.0348834
0.0328747
0.0350479
0.0346353
0.0368865
0.0373873
0.0396325
0.0411654
0.04376
0.0463097
0.0494398
0.0530186
0.0567594
0.0608716
0.0653735
0.0694308
0.073217
0.0760123
0.0764447
0.0745691
0.0680408
0.0585962
0.0319423
0.0346204
0.0331075
0.0347654
0.0348592
0.0365125
0.037549
0.0392168
0.0410923
0.0432188
0.0458334
0.0484582
0.0517686
0.0547436
0.0583156
0.0614222
0.0644037
0.0661235
0.0670473
0.0653779
0.0615427
0.0545591
0.0454282
0.0321404
0.034284
0.0333726
0.0344296
0.0350776
0.0361837
0.037585
0.0388576
0.040904
0.0425859
0.0451488
0.0473507
0.0501908
0.0525212
0.0553208
0.0572289
0.0590177
0.0592173
0.058503
0.0556374
0.050703
0.0435921
0.0347701
0.0323744
0.0338666
0.0336401
0.0341439
0.0351911
0.0359098
0.0375099
0.0385027
0.0405537
0.0419236
0.0442244
0.0461056
0.0482903
0.0500689
0.0520141
0.0528645
0.0535444
0.0526571
0.0507387
0.0472304
0.0419678
0.0351024
0.0268486
0.0326415
0.03342
0.0338142
0.0339299
0.0352267
0.035661
0.0373131
0.0381282
0.0400324
0.0411703
0.0430953
0.0446895
0.0461814
0.0473854
0.0485466
0.0484989
0.0482339
0.046634
0.0440382
0.0402193
0.0350737
0.0286672
0.0210997
0.032902
0.0330131
0.0338718
0.0337709
0.0351662
0.035433
0.0369858
0.0377216
0.0393477
0.0403011
0.0418091
0.0430768
0.0439312
0.0445494
0.0450354
0.0443248
0.0433268
0.0413025
0.0384361
0.0345721
0.0297598
0.0239844
0.0172631
0.0331265
0.0326572
0.0338385
0.0336453
0.0349961
0.0352109
0.0365351
0.0372409
0.0385363
0.0392991
0.040396
0.0412857
0.0416049
0.0417073
0.0416157
0.0404803
0.0389962
0.0367443
0.0338735
0.0302039
0.0258582
0.020814
0.0150278
0.0332835
0.0323762
0.0337005
0.0335361
0.0347184
0.0349657
0.0359927
0.0366633
0.0376268
0.0381667
0.0388846
0.0393844
0.0392792
0.0389679
0.0384251
0.0370444
0.0353025
0.0329971
0.0302858
0.0269786
0.0231818
0.0188871
0.0140254
0.0333563
0.0321813
0.0334566
0.0334232
0.0343534
0.0346596
0.0353914
0.0359737
0.0366365
0.0369344
0.0373123
0.0374515
0.0370269
0.0364185
0.0355626
0.034069
0.032259
0.0300459
0.0275817
0.02471
0.0214936
0.0179193
0.0139114
0.0333314
0.0320679
0.0331246
0.0332739
0.0339399
0.0342673
0.0347474
0.0351814
0.035581
0.0356435
0.0357256
0.0355647
0.0349244
0.0341248
0.0330845
0.0315794
0.0298323
0.027812
0.0256418
0.023212
0.0205551
0.0176409
0.0143904
0.0332037
0.0320185
0.0327374
0.0330329
0.0335003
0.0337886
0.0340699
0.0343175
0.034482
0.0343399
0.0341794
0.0337969
0.0330249
0.0321222
0.0310077
0.0295642
0.0279577
0.0261834
0.0243263
0.0223091
0.0201495
0.0178078
0.0152031
0.0329786
0.0320026
0.0323518
0.0326698
0.0330263
0.0332424
0.0333646
0.0334232
0.0333743
0.0330688
0.0327271
0.032195
0.0313575
0.0304233
0.0293176
0.0279854
0.0265587
0.0250447
0.0234923
0.0218402
0.0200982
0.0182285
0.0161542
0.0326722
0.0319628
0.0320137
0.0322097
0.0324907
0.0326307
0.0326336
0.0325336
0.0323019
0.0318704
0.0314045
0.0307889
0.0299407
0.0290233
0.0279771
0.0267847
0.0255538
0.0242913
0.0230165
0.0216747
0.0202723
0.0187822
0.0171402
0.0323097
0.0318292
0.0317127
0.0317664
0.0319174
0.0319579
0.0318755
0.0316646
0.0312991
0.0307759
0.0302332
0.0295888
0.0287707
0.0278975
0.0269321
0.025887
0.0248509
0.0238229
0.0227944
0.0217122
0.0205815
0.0193913
0.0180949
0.0319179
0.0316003
0.0314254
0.0313419
0.0313333
0.0312669
0.0311073
0.0308204
0.0303776
0.0298045
0.0292257
0.0285937
0.0278346
0.0270198
0.026136
0.0252249
0.0243655
0.0235456
0.022731
0.0218649
0.0209494
0.0199897
0.0189615
0.0315178
0.0312964
0.031104
0.0309234
0.0307743
0.0306025
0.0303651
0.0300242
0.0295477
0.0289608
0.0283788
0.027784
0.0270999
0.026354
0.0255495
0.0247521
0.0240369
0.0233859
0.0227479
0.0220612
0.0213217
0.0205439
0.0197256
0.0311242
0.0309523
0.0307453
0.0305036
0.0302574
0.0299948
0.0296821
0.0292994
0.028816
0.0282407
0.0276765
0.0271292
0.0265232
0.0258543
0.0251332
0.0244329
0.0238261
0.0232977
0.0227935
0.0222517
0.0216603
0.0210336
0.0203815
0.0307433
0.0305888
0.0303692
0.0300937
0.0297898
0.0294571
0.029081
0.0286687
0.0281928
0.0276425
0.0271057
0.0266071
0.0260763
0.0254854
0.0248454
0.0242271
0.0236991
0.0232526
0.0228402
0.0224073
0.0219384
0.0214404
0.020925
0.0303894
0.0302421
0.0300077
0.0297064
0.0293714
0.0290009
0.0285797
0.0281431
0.0276792
0.0271602
0.0266517
0.0261948
0.0257335
0.0252189
0.0246562
0.0241081
0.0236378
0.023245
0.0228936
0.0225397
0.0221651
0.0217694
0.0213607
0.0300808
0.0299373
0.0296922
0.0293696
0.0290152
0.0286287
0.0281878
0.0277307
0.0272697
0.02678
0.0263005
0.0258721
0.0254599
0.0250133
0.0245267
0.0240464
0.0236233
0.0232678
0.0229585
0.0226623
0.0223578
0.0220394
0.021713
0.0298409
0.0296967
0.029449
0.0291135
0.0287404
0.0283494
0.027914
0.0274467
0.0269808
0.0265199
0.0260746
0.0256647
0.0252792
0.0248833
0.0244597
0.0240298
0.0236314
0.0232868
0.022992
0.0227257
0.0224662
0.0222018
0.0219335
0.029711
0.0295674
0.029314
0.0289671
0.0285797
0.0281826
0.0277496
0.0272792
0.026814
0.02637
0.0259447
0.0255453
0.0251716
0.0248031
0.0244192
0.0240266
0.0236534
0.0233245
0.0230434
0.0227956
0.0225618
0.0223303
0.0221014
0.0601587
0.0407649
0.017961
-0.00177896
-0.0210691
-0.0401137
-0.0588904
-0.0748272
0.0483476
0.0308258
0.00830299
-0.0105999
-0.0252707
-0.0383676
-0.0513894
-0.062353
0.0375058
0.0238294
0.00459917
-0.0114472
-0.0218518
-0.0307094
-0.0401331
-0.0489245
0.0275914
0.0171116
0.00180199
-0.0112127
-0.019248
-0.0256942
-0.0322228
-0.0382953
0.0197864
0.0113864
0.000573182
-0.00871776
-0.0147851
-0.0195302
-0.0240488
-0.0283257
0.0144206
0.00765044
0.000440639
-0.00576214
-0.0102587
-0.0138946
-0.0171543
-0.0201002
0.0112269
0.00590272
0.00129429
-0.00260224
-0.00576027
-0.00850173
-0.0108848
-0.0128687
0.00977416
0.00567878
0.00287278
0.000594929
-0.00150033
-0.00348431
-0.00519267
-0.00649557
0.00959362
0.0064995
0.00490016
0.00370662
0.00240389
0.00101408
-0.000215373
-0.00110433
0.010263
0.00795814
0.00713925
0.0066403
0.00590184
0.0049671
0.00409638
0.00348843
0.0114474
0.00975185
0.00941825
0.00934209
0.00898848
0.00839404
0.00779424
0.00737723
0.0128677
0.0116331
0.0115841
0.0117572
0.0116609
0.011306
0.0108887
0.0105797
0.0143169
0.0134189
0.0135184
0.0138309
0.0139168
0.0137387
0.0134496
0.0132051
0.0157123
0.0150666
0.0152353
0.0155933
0.0157715
0.0157097
0.0155143
0.0153137
0.0169943
0.0165331
0.0167178
0.0170584
0.0172604
0.0172621
0.0171298
0.0169611
0.0181206
0.0177956
0.0179686
0.0182612
0.0184468
0.0184711
0.0183745
0.0182279
0.0190841
0.0188541
0.0190003
0.0192333
0.0193816
0.019401
0.0193168
0.0191809
0.0198882
0.0197178
0.0198265
0.0199977
0.0201025
0.020105
0.0200211
0.0198897
0.0205422
0.0204055
0.02047
0.0205803
0.0206414
0.0206234
0.0205351
0.0204052
0.0210576
0.0209366
0.0209553
0.0210083
0.0210284
0.0209903
0.0208974
0.0207693
0.0214655
0.0213442
0.0213124
0.0213078
0.0212863
0.0212277
0.0211306
0.0210067
0.0217268
0.021609
0.0215444
0.0214975
0.0214423
0.0213655
0.0212645
0.0211457
0.0219162
0.0217858
0.0216812
0.0215922
0.0215068
0.0214157
0.0213139
0.0212021
-0.593034
-0.600853
-0.612728
-0.629606
-0.651652
-0.67729
-0.701521
-0.718302
-0.589126
-0.595697
-0.606154
-0.620471
-0.637701
-0.656929
-0.675454
-0.687358
-0.586873
-0.591029
-0.598549
-0.608891
-0.620691
-0.631294
-0.637064
-0.6339
-0.586647
-0.586566
-0.588652
-0.591425
-0.593397
-0.592333
-0.58552
-0.570446
-0.587369
-0.580345
-0.573555
-0.566088
-0.557448
-0.54654
-0.531317
-0.509469
-0.585027
-0.568551
-0.551567
-0.534573
-0.517971
-0.500731
-0.480638
-0.455176
-0.574609
-0.548338
-0.522744
-0.499303
-0.478109
-0.457465
-0.434859
-0.407768
-0.552644
-0.518903
-0.488363
-0.462128
-0.439149
-0.417187
-0.393661
-0.366187
-0.51845
-0.481574
-0.450357
-0.424316
-0.401556
-0.379708
-0.356362
-0.329379
-0.474303
-0.439156
-0.410614
-0.386754
-0.365539
-0.344772
-0.322409
-0.296533
-0.4243
-0.394446
-0.370593
-0.350087
-0.331209
-0.312211
-0.291347
-0.267042
-0.372025
-0.34964
-0.331392
-0.314749
-0.29869
-0.281844
-0.262859
-0.240437
-0.320784
-0.30613
-0.293583
-0.281104
-0.267971
-0.253573
-0.23668
-0.216429
-0.270454
-0.264183
-0.257626
-0.249382
-0.239258
-0.227293
-0.212614
-0.194701
-0.222271
-0.225584
-0.223618
-0.219891
-0.212197
-0.202418
-0.189982
-0.174699
-0.435928
-0.461757
-0.491365
-0.520876
-0.546568
-0.56599
-0.578899
-0.586857
-0.439727
-0.466952
-0.497338
-0.526365
-0.550619
-0.567976
-0.578586
-0.58448
-0.442759
-0.47221
-0.505394
-0.53534