/*--------------------------------*- C++ -*----------------------------------*\
| =========                 |                                                 |
| \\      /  F ield         | OpenFOAM: The Open Source CFD Toolbox           |
|  \\    /   O peration     | Version:  2312                                  |
|   \\  /    A nd           | Website:  www.openfoam.com                      |
|    \\/     M anipulation  |                                                 |
\*---------------------------------------------------------------------------*/
FoamFile
{
    version     2.0;
    format      ascii;
    arch        "LSB;label=32;scalar=64";
    class       volScalarField;
    location    "48";
    object      p;
}
// * * * * * * * * * * * * * * * * * * * * * * * * * * * * * * * * * * * * * //

dimensions      [0 2 -2 0 0 0 0];

internalField   nonuniform List<scalar> 
940
(
-0.285617
-0.251532
-0.241415
-0.238028
-0.229189
-0.233842
-0.305028
-0.278036
-0.235813
-0.208431
-0.190933
-0.173511
-0.290863
-0.254654
-0.212665
-0.167981
-0.144904
-0.121392
-0.238925
-0.250971
-0.275122
-0.279938
-0.308397
-0.290449
-0.275575
-0.262849
-0.302607
-0.276919
-0.348195
-0.32792
-0.267512
-0.241273
-0.267724
-0.261638
-0.277888
-0.31228
-0.283493
-0.288985
-0.275179
-0.261905
-0.222953
-0.142897
-0.157418
-0.17095
-0.168574
-0.0701698
-0.0528651
-0.0220152
0.0103942
-0.00358249
-0.0108217
-0.00256039
-0.302684
-0.345366
-0.312458
-0.296518
-0.199587
0.0193361
-0.0685135
-0.242524
-0.205207
-0.0352511
0.0124195
-0.00341701
0.00726052
-0.00869472
-0.0120407
-0.00283501
-0.297813
-0.314678
-0.307435
-0.284773
-0.226459
0.00865457
0.0158545
-0.206057
-0.210732
-0.0385382
0.0402636
0.0201536
0.00362167
-0.00953793
-0.0117928
-0.00298477
-0.243679
-0.266814
-0.261255
-0.225997
-0.191694
-0.0229263
-0.0018618
-0.18845
-0.183123
-0.0369101
0.0302958
0.0232376
0.000195092
-0.0104601
-0.0109538
-0.00310727
-0.187376
-0.207247
-0.200277
-0.174787
-0.139968
-0.0450104
-0.0285933
-0.150291
-0.134762
-0.024617
0.0270872
0.0176576
-0.00133749
-0.00880409
-0.00982843
-0.00308674
-0.142217
-0.16193
-0.165663
-0.145007
-0.119865
-0.0698672
-0.0403055
-0.108336
-0.104982
-0.0365861
0.00838328
0.0108244
-0.00229452
-0.0096108
-0.00897521
-0.00304398
-0.0996286
-0.113842
-0.116255
-0.104907
-0.0894418
-0.0670753
-0.0479157
-0.0765267
-0.0727213
-0.0253826
0.0048256
0.00607358
-0.00273405
-0.00605294
-0.00754694
-0.00298898
-0.0667465
-0.0807446
-0.0882218
-0.086033
-0.0784939
-0.0678702
-0.0545346
-0.0626017
-0.0606862
-0.035067
-0.011157
-0.00323918
-0.00620165
-0.0100641
-0.00865054
-0.00347138
-0.0355313
-0.0452581
-0.0511537
-0.05181
-0.0489826
-0.0450376
-0.0400387
-0.0403335
-0.0385573
-0.0228326
-0.00792914
-0.00324294
-0.00451608
-0.00590744
-0.0061194
-0.00263052
-0.0204495
-0.0290304
-0.0357504
-0.0397511
-0.0410889
-0.0410114
-0.0392825
-0.0375261
-0.0352131
-0.0277979
-0.0183502
-0.0120845
-0.0100457
-0.00995977
-0.00911837
-0.00417587
0.00383312
-0.00197577
-0.00735588
-0.0115181
-0.0141355
-0.0157006
-0.0164577
-0.0168466
-0.0166547
-0.0141415
-0.00994145
-0.00688468
-0.00570943
-0.00593464
-0.00563093
-0.00261869
0.00767557
0.00275729
-0.00215949
-0.00664549
-0.010403
-0.0133863
-0.0155621
-0.0168541
-0.0174218
-0.0166069
-0.0146879
-0.0125191
-0.0102009
-0.00863924
-0.00854797
-0.00451118
0.021683
0.0177709
0.0134754
0.00910342
0.004935
0.00114903
-0.00202365
-0.00445238
-0.00622952
-0.00746498
-0.00769739
-0.0072559
-0.00649282
-0.00629493
-0.00729441
-0.00346591
-0.105829
-0.145882
-0.209805
-0.0881195
-0.109056
-0.149439
-0.0655903
-0.0808973
-0.106806
-0.0482065
-0.0603517
-0.0760437
-0.0306054
-0.0387106
-0.04894
-0.0129221
-0.0184249
-0.0247263
-0.00116818
-0.00560399
-0.011759
0.0149128
0.0119447
0.00863524
0.0205404
0.0164909
0.012298
0.0330594
0.0290172
0.0253296
0.0557912
0.052136
0.047079
0.0135704
-0.00837084
-0.188259
-0.000853322
-0.0223309
-0.0359264
-0.101026
-0.135555
-0.330576
-0.0672632
-0.091498
-0.116282
-0.171145
-0.213999
-0.328688
0.208171
0.246371
0.29385
0.350313
0.399675
0.426926
0.178312
0.202309
0.232499
0.268218
0.302241
0.293651
0.120919
0.132401
0.14327
0.145622
0.142057
0.0345386
0.0539595
0.0365677
0.0638223
0.0489904
0.0756728
0.0781017
0.102295
0.12088
0.147907
0.176622
0.0607542
0.0417182
0.0686739
0.053101
0.077645
0.0799311
0.0989588
0.116056
0.139757
0.158135
0.0668198
0.0479026
0.0725194
0.057674
0.0816199
0.0829314
0.102254
0.111389
0.126702
0.121167
0.072105
0.052878
0.0750954
0.0609541
0.080447
0.0817535
0.0915508
0.0955658
0.0924047
0.0794194
0.07735
0.0580169
0.0768959
0.0639875
0.0774137
0.0788029
0.0790494
0.0801502
0.0698383
0.0574669
0.0839726
0.0644361
0.0792525
0.0673581
0.07431
0.0735096
0.0684389
0.0655312
0.0544107
0.0404542
0.0921209
0.073036
0.0817719
0.0717661
0.0714778
0.0687358
0.0606169
0.0539217
0.0427049
0.0292126
0.102028
0.0847301
0.083255
0.0765242
0.0695148
0.0647712
0.0546478
0.0449191
0.0343227
0.0226765
0.115343
0.100096
0.0893707
0.0825196
0.0716461
0.0636352
0.0533375
0.0432011
0.033796
0.024721
0.132898
0.115199
0.0942431
0.0861782
0.0734618
0.0628802
0.0523775
0.0425916
0.0339304
0.0262723
0.1695
0.14121
0.113747
0.0991289
0.0851269
0.0726981
0.0617704
0.0522878
0.044404
0.0378992
0.196021
0.154731
0.120976
0.10346
0.088445
0.0755735
0.0646713
0.0555191
0.0481021
0.0421932
0.345445
0.201238
0.157035
0.131706
0.110565
0.0935443
0.0800756
0.0694959
0.061166
0.0547548
0.0513141
-0.00188635
-0.0565957
0.0351853
-0.0124532
-0.0535039
0.0234742
-0.00915617
-0.0402489
0.0147211
-0.00773374
-0.0300304
0.00991378
-0.00615228
-0.0198434
0.0146436
0.00317659
-0.00597241
0.0180233
0.00959098
0.00337941
0.0311575
0.0241464
0.0188156
0.0364184
0.0303134
0.0249763
0.0488997
0.0430137
0.0377344
-0.338319
-0.326943
-0.335363
-0.308341
-0.30406
-0.267816
-0.282703
-0.263151
-0.225985
-0.258279
-0.223769
-0.175803
-0.227563
-0.19083
-0.146749
-0.195299
-0.161517
-0.11921
-0.248146
-0.294836
-0.303981
-0.259525
-0.285933
-0.283683
-0.281653
-0.324856
-0.305561
-0.27373
-0.285512
-0.28576
-0.279597
-0.288395
-0.259459
-0.244725
-0.239954
-0.236779
-0.214527
-0.171274
-0.209363
-0.210488
-0.149109
-0.17343
-0.205963
-0.171389
-0.158687
-0.201442
-0.173516
-0.158658
-0.23967
-0.229102
-0.189388
-0.28032
-0.364815
-0.290977
-0.186514
-0.197453
-0.218468
-0.0323164
0.0459779
-0.0165346
-0.0633797
0.0104029
0.0045082
-0.067428
-0.0728124
-0.0733987
-0.0647918
-0.0827461
-0.0712001
-0.0181795
-0.0262624
-0.0279195
0.0116864
0.00335791
-0.00112684
-0.000594587
-0.00117217
-0.00140571
-0.00914032
-0.00747463
-0.00551836
-0.00222557
-0.0021475
-0.0019892
-0.188031
-0.148748
-0.121129
-0.0977565
-0.0769078
-0.0663477
-0.0547626
-0.0550753
-0.0486296
-0.0523296
-0.177158
-0.153427
-0.132893
-0.108157
-0.0851802
-0.0715463
-0.057213
-0.0557238
-0.0487336
-0.0513936
-0.163129
-0.144261
-0.132053
-0.111285
-0.0904269
-0.0751966
-0.0597792
-0.0561673
-0.0489057
-0.0504146
-0.157746
-0.141826
-0.131302
-0.110628
-0.0919471
-0.0765232
-0.0615158
-0.0562523
-0.0489178
-0.0494856
-0.163618
-0.14258
-0.126742
-0.106488
-0.0906805
-0.0753708
-0.0619912
-0.0558027
-0.0487396
-0.0485916
-0.23339
-0.169291
-0.134434
-0.103606
-0.0872029
-0.0720019
-0.0608024
-0.0546744
-0.0483294
-0.0475767
-0.181601
-0.136551
-0.120653
-0.0928164
-0.0807353
-0.066801
-0.0580368
-0.052669
-0.0476301
-0.0464263
-0.0339338
-0.0477941
-0.06091
-0.0599954
-0.0641915
-0.0573738
-0.0535612
-0.0496324
-0.0466165
-0.0450635
0.00213859
-0.0193897
-0.0272894
-0.0390842
-0.0461569
-0.0470138
-0.0473934
-0.0455983
-0.0450154
-0.0433179
-0.0560628
-0.0539547
-0.0458882
-0.0452358
-0.0427251
-0.0416367
-0.0418088
-0.0411122
-0.0425746
-0.0411151
-0.0567022
-0.0518489
-0.044465
-0.0404545
-0.0381323
-0.0359639
-0.0370192
-0.0362379
-0.0390209
-0.0381851
-0.0250256
-0.0246322
-0.0232365
-0.0238243
-0.0260267
-0.0266565
-0.0305149
-0.0308493
-0.0344035
-0.0340045
-0.00175256
-0.00435307
-0.00674589
-0.0110828
-0.0152852
-0.0188862
-0.0233511
-0.0251863
-0.0282594
-0.0278413
-0.000313724
-0.00196725
-0.00369825
-0.00731254
-0.010634
-0.0138272
-0.0173355
-0.0189423
-0.0204036
-0.0195683
-0.00435731
-0.00420224
-0.00465502
-0.0060347
-0.00756809
-0.00919402
-0.011005
-0.0117491
-0.0120513
-0.0108507
-0.00197339
-0.00218035
-0.00213968
-0.00250602
-0.00274389
-0.0031065
-0.00350338
-0.0036028
-0.00360309
-0.00303708
-0.103238
-0.0899676
-0.0737782
-0.0662824
-0.0576222
-0.0536157
-0.0491827
-0.0514369
-0.0486459
-0.054457
-0.137293
-0.108268
-0.0864764
-0.0753427
-0.063748
-0.0581103
-0.0518475
-0.0530976
-0.0487502
-0.0538637
-0.162766
-0.126664
-0.100844
-0.0847282
-0.068893
-0.0615022
-0.0531932
-0.054232
-0.0486718
-0.0531536
0.0612452
-0.00154752
-0.065598
0.067976
-0.0118771
-0.0893289
0.0707044
-0.0234356
-0.110982
0.0555067
-0.0756835
-0.173382
0.0415969
-0.101524
-0.214371
-0.113384
-0.315663
-0.373682
0.212239
0.186813
0.128434
0.252839
0.218568
0.14958
0.302212
0.258879
0.172899
0.361894
0.305613
0.19041
0.424391
0.355205
0.200872
0.475066
0.381655
0.142519
0.0472116
0.0399889
0.032548
0.0312365
0.0278037
0.024018
0.0579835
0.0510539
0.0453956
0.044913
0.041896
0.0395459
0.0708663
0.0626238
0.0601644
0.0750741
0.0697388
0.0690189
0.0996883
0.0891378
0.0907256
0.119873
0.107572
0.102897
0.148798
0.13728
0.12451
0.177686
0.161932
0.120051
0.0251872
0.0176331
0.00866784
-0.00250139
-0.0164159
-0.0339206
-0.0550471
-0.0928956
-0.114079
-0.250901
0.0205372
0.0168889
0.0121541
0.00567127
-0.00348315
-0.0166433
-0.0305754
-0.0595008
-0.0701034
-0.11554
0.0383301
0.0304747
0.0212062
0.0106375
-0.00174711
-0.0175196
-0.0295594
-0.0551918
-0.0641251
-0.103865
0.0355942
0.032013
0.0258533
0.0173481
0.00628933
-0.0105887
-0.0243647
-0.0501466
-0.059538
-0.0876742
0.052059
0.0424479
0.0321355
0.0195542
0.00682532
-0.0108157
-0.0228071
-0.0464217
-0.0546856
-0.0750587
0.0628347
0.0523685
0.0399925
0.023394
0.00902315
-0.0108999
-0.022888
-0.0437969
-0.0513077
-0.0677972
0.0722043
0.055543
0.0405453
0.0217774
0.00600584
-0.013553
-0.0248272
-0.0429086
-0.0495023
-0.0637242
0.0809028
0.0613654
0.039586
0.0181696
0.00157774
-0.0169336
-0.0274481
-0.043019
-0.0486571
-0.0611864
0.0806858
0.0562155
0.0325139
0.0108275
-0.00481312
-0.0210314
-0.0301782
-0.0436531
-0.0484966
-0.059459
0.0736058
0.047805
0.0233611
0.00304113
-0.0112769
-0.025088
-0.0328165
-0.0444041
-0.0485831
-0.0581779
0.0532305
0.0292858
0.010999
-0.00625183
-0.0180585
-0.0293362
-0.0355286
-0.045133
-0.0485851
-0.0569983
-0.005204
-0.0220931
-0.0214978
-0.0279857
-0.0309748
-0.0368583
-0.0396237
-0.0466978
-0.0484261
-0.0559026
-0.0596066
-0.0621783
-0.0522683
-0.0506445
-0.0462283
-0.0463035
-0.0449142
-0.0492284
-0.0484956
-0.0550807
)
;

boundaryField
{
    outlet
    {
        type            fixedValue;
        value           uniform 0;
    }
    upperWall
    {
        type            symmetryPlane;
    }
    lowerWall
    {
        type            symmetryPlane;
    }
    inlet
    {
        type            zeroGradient;
    }
    cylinder
    {
        type            zeroGradient;
    }
    frontAndBack
    {
        type            empty;
    }
}


// ************************************************************************* //
