/*--------------------------------*- C++ -*----------------------------------*\
| =========                 |                                                 |
| \\      /  F ield         | OpenFOAM: The Open Source CFD Toolbox           |
|  \\    /   O peration     | Version:  2512                                  |
|   \\  /    A nd           | Website:  www.openfoam.com                      |
|    \\/     M anipulation  |                                                 |
\*---------------------------------------------------------------------------*/
FoamFile
{
    version     2.0;
    format      ascii;
    arch        "LSB;label=32;scalar=64";
    class       volVectorField;
    location    "110";
    object      U;
}
// * * * * * * * * * * * * * * * * * * * * * * * * * * * * * * * * * * * * * //

dimensions      [0 1 -1 0 0 0 0];

internalField   nonuniform List<vector> 
13248
(
(-0.0157689 0.0160948 5.72817e-20)
(-0.0238545 0.0273028 0)
(-0.0145245 0.0260332 -1.00205e-19)
(0.0107231 0.0175952 9.27843e-20)
(0.0530024 0.00528662 8.64716e-20)
(0.114255 -0.0091168 0)
(0.195949 -0.0245076 0)
(0.297809 -0.0398484 2.06066e-19)
(0.416827 -0.0539724 -1.80317e-21)
(0.547031 -0.0657536 -1.74095e-19)
(0.6802 -0.0743287 1.53589e-19)
(0.80739 -0.0792484 -9.49567e-20)
(0.920617 -0.0805077 0)
(1.01414 -0.0784754 -1.35504e-19)
(1.08509 -0.0737184 2.41381e-19)
(1.13338 -0.0669422 -5.69355e-20)
(1.16146 -0.0586703 -8.06906e-20)
(1.17288 -0.0496026 7.52304e-20)
(1.17251 -0.0398184 0)
(1.16478 -0.0300754 0)
(1.1527 -0.019999 0)
(1.14186 -0.00994534 0)
(1.12989 -0.00172798 1.30614e-20)
(1.12272 0.0102878 3.62418e-20)
(-0.0142273 0.0129778 -1.72356e-19)
(-0.0178577 0.0222275 1.08915e-19)
(0.00109675 0.0212203 -5.39439e-23)
(0.0417153 0.0135812 -1.39991e-19)
(0.105312 0.00239551 -8.63487e-20)
(0.193396 -0.0101168 -7.99483e-20)
(0.305833 -0.0221965 -1.47555e-19)
(0.439022 -0.0324132 1.36135e-19)
(0.58519 -0.0397594 0)
(0.733474 -0.0438328 1.85562e-21)
(0.872281 -0.0448532 2.79391e-21)
(0.991801 -0.0434759 9.21434e-20)
(1.08572 -0.0405214 0)
(1.15186 -0.0367172 0)
(1.19176 -0.0325635 8.31529e-20)
(1.20981 -0.0282744 -1.54582e-19)
(1.21169 -0.0238284 7.98288e-20)
(1.20346 -0.0191884 -7.44293e-20)
(1.19034 -0.0139442 -2.94269e-20)
(1.17584 -0.00862526 -4.61196e-20)
(1.16318 -0.00190055 -1.55096e-20)
(1.15229 0.00347851 -2.70457e-20)
(1.14463 0.0116322 4.54035e-20)
(1.13777 0.0148496 1.15241e-20)
(-0.0120416 0.0094886 0)
(-0.00838768 0.0145628 0)
(0.0237021 0.0120512 5.03006e-20)
(0.0843224 0.00462527 4.63869e-20)
(0.174845 -0.00470124 -3.22527e-22)
(0.2952 -0.0132224 -7.96957e-20)
(0.441035 -0.0189841 0)
(0.602372 -0.0210129 -6.76736e-20)
(0.765064 -0.0194648 6.05187e-20)
(0.914407 -0.0154177 -1.43387e-21)
(1.03878 -0.0103475 -9.82308e-20)
(1.13181 -0.00557623 -8.41657e-20)
(1.19272 -0.0019094 5.04558e-21)
(1.22533 0.000460837 -5.83519e-20)
(1.23623 0.00183606 1.46591e-19)
(1.23282 0.00278895 0)
(1.22174 0.00387767 -7.8651e-20)
(1.20793 0.00557148 3.87101e-20)
(1.19416 0.00804727 2.93962e-20)
(1.1822 0.0112527 0)
(1.17158 0.015256 2.04588e-20)
(1.1631 0.0190764 -6.56731e-20)
(1.15481 0.0236709 6.13277e-20)
(1.14804 0.0256249 3.29423e-20)
(-0.0091891 0.00622881 -5.88579e-20)
(0.00575667 0.0062966 -5.5864e-20)
(0.0564662 0.00171624 5.08413e-20)
(0.143742 -0.00498574 0)
(0.2677 -0.0104791 0)
(0.423632 -0.0120807 1.03798e-22)
(0.599298 -0.00870301 0)
(0.77665 -0.00112337 -1.9651e-19)
(0.937185 0.00854476 1.78456e-19)
(1.06725 0.0178706 -2.16306e-19)
(1.16065 0.0250229 4.82983e-20)
(1.21847 0.0292182 0)
(1.2469 0.0306784 7.05744e-20)
(1.2545 0.0302648 -1.26782e-19)
(1.2496 0.0290296 2.99843e-20)
(1.23865 0.0278402 6.71059e-20)
(1.22572 0.0272505 -6.97955e-21)
(1.21275 0.0274329 -7.1351e-20)
(1.2006 0.0283961 0)
(1.18911 0.0298155 0)
(1.17861 0.031948 -2.09518e-20)
(1.16884 0.0333362 1.77473e-20)
(1.16011 0.036453 5.65345e-20)
(1.15199 0.035593 -5.278e-20)
(-0.00500847 0.00323835 -6.02779e-20)
(0.0265859 -0.00155082 -5.61477e-20)
(0.103049 -0.00727804 1.55582e-19)
(0.224268 -0.0111573 -9.42386e-20)
(0.385973 -0.00983221 8.72954e-20)
(0.574422 -0.00173904 1.58054e-19)
(0.767261 0.0118031 -1.08938e-19)
(0.941085 0.027449 -1.2741e-19)
(1.07935 0.0416017 4.57172e-21)
(1.17579 0.0518354 1.59253e-19)
(1.23327 0.0574039 0)
(1.26022 0.058955 3.96279e-20)
(1.26677 0.057848 0)
(1.26168 0.0554873 -5.90131e-20)
(1.25108 0.0529078 8.18509e-20)
(1.23842 0.0506893 6.87095e-22)
(1.22531 0.0490335 -1.93499e-20)
(1.21248 0.0479551 3.39936e-20)
(1.20019 0.0473628 2.84929e-20)
(1.18887 0.0471972 -2.43658e-20)
(1.17857 0.0473857 2.09419e-20)
(1.16966 0.0475046 -1.77389e-20)
(1.16161 0.0487383 0)
(1.15483 0.0466381 -1.27308e-20)
(0.00155623 0.000363464 6.02628e-20)
(0.056439 -0.00833411 5.76945e-20)
(0.166228 -0.0129147 -5.19552e-20)
(0.326988 -0.0106986 9.50858e-20)
(0.525125 0.000570446 -8.80765e-20)
(0.734473 0.0194913 7.84158e-20)
(0.925275 0.041353 -3.6741e-20)
(1.07632 0.0610122 9.58628e-20)
(1.18013 0.0751744 -5.85029e-20)
(1.2409 0.0830053 9.85171e-20)
(1.26906 0.0855111 -2.21789e-19)
(1.27614 0.084483 7.90332e-20)
(1.27147 0.0816253 -6.57002e-20)
(1.26116 0.0781326 6.1162e-20)
(1.24861 0.074672 4.93553e-20)
(1.23549 0.0715426 4.08436e-20)
(1.22262 0.0688557 -1.1256e-19)
(1.21041 0.0666403 6.84509e-20)
(1.19915 0.0648751 -2.8488e-20)
(1.18884 0.0635145 7.06909e-20)
(1.17952 0.0624866 -2.28125e-20)
(1.171 0.0615166 -5.12057e-20)
(1.1631 0.061243 4.64029e-20)
(1.15586 0.0584467 1.27266e-20)
(0.0116331 -0.00241561 0)
(0.0973366 -0.0133078 2.29514e-22)
(0.247121 -0.0133784 1.05949e-19)
(0.448739 -0.00130433 -9.78801e-20)
(0.674333 0.021821 -8.70437e-20)
(0.886715 0.0500852 1.58906e-19)
(1.057 0.0762388 -7.25544e-20)
(1.1742 0.0955396 9.37768e-20)
(1.2427 0.106738 -2.9284e-21)
(1.27472 0.111072 -5.06537e-20)
(1.28347 0.110752 1.06223e-19)
(1.27936 0.107841 -1.53099e-19)
(1.26913 0.103785 0)
(1.25651 0.099423 -2.79772e-20)
(1.24334 0.095187 -7.1958e-20)
(1.23048 0.0912757 2.269e-20)
(1.21825 0.0877665 1.32878e-21)
(1.20677 0.084656 -4.37737e-20)
(1.19601 0.0819112 4.46921e-21)
(1.186 0.0794727 4.91753e-20)
(1.17668 0.077246 -2.04278e-20)
(1.16813 0.0752283 -7.15564e-21)
(1.16021 0.0734934 2.33263e-20)
(1.15306 0.0702381 0)
(0.0261778 -0.00480708 0)
(0.150461 -0.0152343 2.90085e-20)
(0.344427 -0.00669344 -1.36078e-19)
(0.582054 0.0183741 4.87406e-20)
(0.819801 0.0529068 -4.51469e-20)
(1.01732 0.0868508 -3.98441e-20)
(1.15592 0.112987 -6.90246e-20)
(1.23807 0.129003 3.42737e-20)
(1.27738 0.136149 2.93265e-20)
(1.28932 0.137104 0)
(1.28624 0.134448 6.17224e-20)
(1.27612 0.130032 -8.89771e-20)
(1.26337 0.124961 6.55653e-20)
(1.25007 0.119811 2.79891e-20)
(1.23707 0.114847 -2.17157e-20)
(1.22464 0.110177 -1.71264e-20)
(1.21287 0.105825 -1.54246e-20)
(1.20177 0.101791 4.76708e-20)
(1.19142 0.0980614 0)
(1.18185 0.0946181 2.19015e-20)
(1.17308 0.0914407 1.71392e-20)
(1.165 0.0885319 -4.36e-20)
(1.15744 0.0856718 -2.77418e-20)
(1.15046 0.0823585 2.5664e-20)
(0.045825 -0.00620991 -3.28233e-20)
(0.21572 -0.0123812 -7.88997e-22)
(0.454029 0.00901985 2.74997e-20)
(0.716685 0.0483667 7.47335e-20)
(0.949626 0.0914723 2.07971e-20)
(1.12001 0.1268 -3.9785e-20)
(1.22416 0.149747 3.60425e-20)
(1.27594 0.161124 -3.09489e-20)
(1.29364 0.164124 5.34931e-20)
(1.29255 0.16208 2.21643e-20)
(1.28272 0.157468 -6.18221e-20)
(1.26965 0.151777 1.7895e-20)
(1.2559 0.145776 2.94736e-20)
(1.24243 0.139813 -1.45004e-20)
(1.22956 0.13404 0)
(1.21739 0.128522 2.0215e-20)
(1.20596 0.123296 3.29646e-20)
(1.1953 0.118377 4.89128e-21)
(1.18542 0.113768 -2.65084e-20)
(1.17625 0.109451 1.06776e-20)
(1.16771 0.105404 0)
(1.15968 0.101584 -7.86686e-21)
(1.1521 0.0977687 -7.0443e-21)
(1.14494 0.0942584 0)
(0.0707654 -0.00581437 0)
(0.291416 -0.00285739 1.58394e-20)
(0.569327 0.0348921 2.87773e-20)
(0.842531 0.0873889 -7.53604e-20)
(1.05698 0.13498 2.37588e-20)
(1.195 0.168063 0)
(1.2674 0.185964 3.358e-20)
(1.29531 0.192288 -4.60401e-20)
(1.2981 0.191408 -2.64407e-20)
(1.28907 0.186747 1.18553e-20)
(1.2756 0.180408 -1.78889e-20)
(1.2611 0.173473 4.34451e-20)
(1.24691 0.166435 2.11281e-20)
(1.23344 0.15951 -1.48333e-20)
(1.22079 0.152803 -1.65044e-21)
(1.20897 0.14637 -3.78982e-20)
(1.19793 0.140239 1.69865e-20)
(1.18767 0.13442 -3.79875e-22)
(1.17814 0.128912 0)
(1.16931 0.12371 -1.06881e-20)
(1.1611 0.118807 0)
(1.15342 0.114129 2.26001e-20)
(1.14618 0.109573 -2.63385e-20)
(1.13931 0.105838 1.17522e-20)
(0.100644 -0.00272718 -8.79706e-21)
(0.374217 0.0149304 -3.96363e-20)
(0.682578 0.0708864 4.41236e-20)
(0.952181 0.133487 2.52219e-20)
(1.13985 0.181478 -1.2034e-20)
(1.24555 0.209747 1.90839e-20)
(1.29131 0.221703 -9.27734e-21)
(1.30164 0.223043 1.48898e-20)
(1.29468 0.218633 0)
(1.281 0.211596 3.2169e-20)
(1.26559 0.203566 -1.42999e-21)
(1.25043 0.195286 -2.51688e-20)
(1.23613 0.187071 1.05603e-20)
(1.22279 0.179059 -1.16177e-20)
(1.21038 0.171316 -4.22126e-21)
(1.19884 0.163881 4.99841e-21)
(1.18813 0.156777 -3.72154e-21)
(1.17824 0.150018 -1.96047e-20)
(1.16914 0.143615 1.19057e-20)
(1.16073 0.137566 2.35672e-21)
(1.15289 0.131848 2.01983e-21)
(1.14548 0.126365 1.729e-21)
(1.13841 0.121181 0)
(1.1316 0.116957 0)
(0.134593 0.00391327 8.80773e-21)
(0.459636 0.0419268 -8.16498e-21)
(0.78674 0.11597 -1.46713e-20)
(1.04161 0.184741 0)
(1.1991 0.229722 -5.88895e-21)
(1.27554 0.251545 -5.06033e-21)
(1.30027 0.25724 -8.43856e-21)
(1.29827 0.253826 0)
(1.2852 0.246129 0)
(1.26891 0.236778 0)
(1.25258 0.226971 0)
(1.2372 0.217192 0)
(1.22297 0.207632 -6.58032e-21)
(1.20984 0.198375 2.95849e-21)
(1.19773 0.189466 5.03854e-21)
(1.18657 0.180934 2.32255e-21)
(1.17631 0.172797 5.60255e-21)
(1.16689 0.165063 0)
(1.15825 0.157734 -1.26971e-21)
(1.15028 0.150804 -1.17581e-21)
(1.14287 0.144238 -2.023e-21)
(1.1359 0.137964 -1.73172e-21)
(1.12932 0.132168 0)
(1.12306 0.127293 1.15617e-21)
(0.00493737 -0.117258 6.91837e-21)
(0.00962878 -0.27856 -6.56512e-21)
(0.0026133 -0.375829 -1.21363e-20)
(-0.0141668 -0.426376 0)
(-0.0363442 -0.451553 -1.58143e-20)
(-0.0601295 -0.467614 4.93822e-21)
(-0.0831759 -0.482511 -9.26849e-21)
(-0.104193 -0.497716 0)
(-0.122357 -0.511408 0)
(-0.136925 -0.520782 0)
(-0.147121 -0.523075 0)
(-0.152174 -0.515905 0)
(-0.151434 -0.497429 3.55915e-22)
(-0.144519 -0.466497 -7.02291e-21)
(-0.131418 -0.422803 1.33907e-20)
(-0.112485 -0.366484 1.96653e-20)
(-0.0884753 -0.298781 5.9634e-21)
(-0.0605001 -0.221163 0)
(-0.0299713 -0.135117 5.83066e-21)
(0.00186769 -0.041811 -1.57371e-20)
(0.0341929 0.057996 -9.53572e-21)
(0.0677045 0.163335 -8.73449e-21)
(0.0996494 0.274787 0)
(0.136674 0.389933 0)
(0.00994351 -0.114437 -2.05773e-20)
(0.0164286 -0.265079 3.26277e-20)
(0.0039678 -0.351674 -1.18873e-20)
(-0.0201264 -0.394767 -2.23205e-20)
(-0.0495232 -0.416272 3.11593e-20)
(-0.0802857 -0.431602 -1.95793e-20)
(-0.110416 -0.447692 2.74225e-20)
(-0.139041 -0.465415 1.70974e-20)
(-0.165645 -0.482844 0)
(-0.189654 -0.497318 -1.65232e-20)
(-0.210336 -0.506233 -9.57152e-22)
(-0.226856 -0.50724 1.44331e-20)
(-0.238389 -0.49835 2.06672e-20)
(-0.244245 -0.478057 2.72416e-20)
(-0.243979 -0.445436 -1.26501e-20)
(-0.237469 -0.400204 -3.7162e-20)
(-0.224961 -0.342718 1.1318e-20)
(-0.20705 -0.273851 -4.2697e-20)
(-0.184567 -0.194753 0)
(-0.158435 -0.106626 1.02869e-20)
(-0.130206 -0.0109556 9.52537e-21)
(-0.0997023 0.0910592 8.7248e-21)
(-0.0669198 0.197864 0)
(-0.0306155 0.307227 0)
(0.0136939 -0.104896 0)
(0.0209028 -0.240173 6.33039e-20)
(0.0038135 -0.316369 -2.34773e-20)
(-0.0257747 -0.353623 2.20953e-20)
(-0.0601624 -0.372652 -6.06419e-20)
(-0.0954342 -0.387527 0)
(-0.12995 -0.404317 -3.60102e-20)
(-0.163222 -0.423667 1.6346e-20)
(-0.195054 -0.443847 -3.14618e-20)
(-0.225106 -0.462523 1.43163e-20)
(-0.252811 -0.477361 8.63067e-20)
(-0.277428 -0.486151 -4.0012e-20)
(-0.298125 -0.48687 -6.59994e-20)
(-0.314084 -0.47779 -2.45367e-20)
(-0.324592 -0.457589 -6.43407e-22)
(-0.329136 -0.425452 8.79317e-20)
(-0.327455 -0.381113 -4.1147e-20)
(-0.319557 -0.324833 3.03372e-21)
(-0.305696 -0.25731 0)
(-0.286334 -0.17963 -2.90397e-20)
(-0.261801 -0.0932071 0)
(-0.233082 0.000479987 -2.83464e-20)
(-0.200251 0.099601 9.27307e-20)
(-0.165514 0.202465 -3.09329e-21)
(0.0154649 -0.0900257 0)
(0.022273 -0.206949 -4.11272e-22)
(0.00177439 -0.273419 2.29176e-20)
(-0.0312214 -0.306289 -2.13522e-20)
(-0.0682252 -0.323755 1.98365e-20)
(-0.105365 -0.338238 1.11858e-19)
(-0.141224 -0.355068 -3.4827e-20)
(-0.175562 -0.374857 -3.27032e-20)
(-0.20843 -0.396206 6.21652e-20)
(-0.239738 -0.417207 -8.85083e-20)
(-0.269181 -0.435927 2.65273e-20)
(-0.296276 -0.450463 2.52824e-20)
(-0.320414 -0.458975 0)
(-0.340917 -0.459744 2.36414e-20)
(-0.357101 -0.451281 0)
(-0.368333 -0.432431 3.64086e-20)
(-0.374064 -0.402454 -6.99166e-20)
(-0.373859 -0.361064 1.96964e-20)
(-0.367434 -0.308418 5.88558e-20)
(-0.354717 -0.245096 2.90201e-20)
(-0.335758 -0.172081 0)
(-0.310453 -0.0908361 -6.00119e-20)
(-0.278831 -0.00206714 2.13228e-20)
(-0.246623 0.0930484 0)
(0.0148479 -0.0715722 0)
(0.020123 -0.168447 -7.37778e-20)
(-0.00245061 -0.225922 -2.2913e-20)
(-0.0367827 -0.255649 -4.24882e-20)
(-0.0741614 -0.272456 3.93722e-20)
(-0.110765 -0.286936 -3.71302e-20)
(-0.145234 -0.303756 6.95732e-20)
(-0.177386 -0.323578 3.33216e-20)
(-0.207341 -0.345319 -9.12812e-20)
(-0.235118 -0.367428 5.70804e-20)
(-0.260581 -0.388295 -7.98675e-20)
(-0.283484 -0.406311 1.71304e-19)
(-0.30352 -0.419873 -9.15921e-20)
(-0.320349 -0.427429 4.06196e-20)
(-0.33361 -0.427556 1.11074e-19)
(-0.342939 -0.419051 -3.92752e-20)
(-0.347948 -0.401022 -3.16494e-20)
(-0.348205 -0.372941 -3.04108e-20)
(-0.343235 -0.334669 0)
(-0.332666 -0.286454 -3.65706e-20)
(-0.316342 -0.228845 -2.59011e-20)
(-0.293477 -0.162254 4.5536e-20)
(-0.262271 -0.0865297 4.28451e-20)
(-0.22365 -0.00333501 -3.48594e-20)
(0.0118236 -0.0514567 0)
(0.0145317 -0.127705 -9.76847e-20)
(-0.00876201 -0.176766 -2.93042e-22)
(-0.0424406 -0.204185 8.42347e-20)
(-0.0781254 -0.221 0)
(-0.112083 -0.235884 0)
(-0.142893 -0.252899 0)
(-0.170276 -0.272795 -3.2429e-20)
(-0.194264 -0.294789 -2.65715e-22)
(-0.214831 -0.317609 5.6236e-20)
(-0.231848 -0.339855 -7.80524e-20)
(-0.245161 -0.360074 1.1445e-22)
(-0.254645 -0.376783 0)
(-0.260243 -0.388526 -4.0603e-20)
(-0.261959 -0.393953 3.14996e-20)
(-0.259858 -0.391911 -9.28731e-20)
(-0.253993 -0.381536 1.03403e-19)
(-0.244327 -0.362292 1.22409e-20)
(-0.230707 -0.333995 -1.03551e-20)
(-0.212896 -0.296871 -6.27589e-20)
(-0.1906 -0.251681 -1.88168e-20)
(-0.162095 -0.199254 5.08135e-20)
(-0.135123 -0.136341 -2.60451e-20)
(-0.0748098 -0.0663121 0)
(0.00679652 -0.0315663 5.12826e-20)
(0.00618733 -0.0875514 4.88177e-20)
(-0.0164309 -0.128496 -4.58432e-20)
(-0.0474605 -0.153938 -8.53386e-20)
(-0.0793458 -0.171065 7.90788e-20)
(-0.108494 -0.186606 -7.46807e-20)
(-0.133344 -0.204028 1.04351e-19)
(-0.153402 -0.22417 -3.21054e-20)
(-0.168513 -0.246526 6.06017e-20)
(-0.178521 -0.270051 0)
(-0.183262 -0.293475 5.09526e-20)
(-0.182642 -0.31539 -9.5614e-20)
(-0.176722 -0.334304 8.37412e-20)
(-0.16574 -0.348735 -7.79491e-20)
(-0.150078 -0.357318 0)
(-0.130259 -0.35888 5.7352e-20)
(-0.106806 -0.352633 8.67613e-20)
(-0.0800827 -0.338136 -8.27635e-20)
(-0.0501904 -0.315268 -2.83552e-20)
(-0.0171462 -0.284286 -1.84647e-20)
(0.0158254 -0.246339 5.53812e-20)
(0.0659423 -0.200379 2.63639e-21)
(0.0917191 -0.150424 -6.28722e-21)
(0.177138 -0.094217 2.92976e-23)
(0.000555259 -0.0136178 -5.1295e-20)
(-0.00362405 -0.0505702 1.49205e-19)
(-0.0240503 -0.083413 -4.60533e-20)
(-0.0502762 -0.106676 8.65209e-20)
(-0.0759134 -0.123954 -8.01732e-20)
(-0.0975403 -0.140042 3.46324e-22)
(-0.113373 -0.15777 3.52526e-20)
(-0.122595 -0.178007 1.33473e-19)
(-0.124779 -0.200466 2.63212e-23)
(-0.119621 -0.224271 -5.67697e-20)
(-0.106973 -0.248217 0)
(-0.0869386 -0.27088 -4.5905e-20)
(-0.0599745 -0.290697 8.69283e-20)
(-0.0268854 -0.306146 7.22976e-20)
(0.0113796 -0.315822 -3.5152e-20)
(0.0535798 -0.318453 -8.52654e-22)
(0.0985452 -0.3134 -2.29898e-20)
(0.145363 -0.30044 3.46283e-20)
(0.193212 -0.279761 2.83503e-20)
(0.244741 -0.251277 -2.07235e-20)
(0.288052 -0.217339 1.25217e-20)
(0.35735 -0.176374 -7.26024e-21)
(0.379316 -0.134342 0)
(0.494171 -0.0875362 -2.92656e-23)
(-0.00585619 0.000928151 5.25782e-20)
(-0.0133192 -0.0190144 -4.99188e-20)
(-0.0299294 -0.0437093 4.73887e-20)
(-0.0490534 -0.0642625 0)
(-0.0656306 -0.0812125 0)
(-0.0764282 -0.0975064 7.86482e-20)
(-0.0793965 -0.115261 -7.16635e-20)
(-0.0733675 -0.135246 6.80911e-20)
(-0.0576474 -0.157295 -3.13385e-19)
(-0.0318982 -0.180598 3.7095e-22)
(0.00376237 -0.203931 5.33425e-20)
(0.0487293 -0.225841 0)
(0.101737 -0.244691 -8.30213e-20)
(0.160931 -0.258969 1.49113e-19)
(0.22444 -0.26715 -9.90659e-20)
(0.29029 -0.268223 -1.27074e-19)
(0.356295 -0.261758 1.32602e-20)
(0.421224 -0.247788 7.40458e-20)
(0.483233 -0.226868 0)
(0.546416 -0.199259 0)
(0.595903 -0.167466 -1.25222e-20)
(0.670302 -0.130731 7.26065e-21)
(0.692069 -0.0931064 -9.19912e-21)
(0.802261 -0.0523079 8.58286e-21)
(-0.0111811 0.0110359 0)
(-0.0210734 0.00501063 0)
(-0.0326034 -0.0117287 -1.43554e-19)
(-0.0425512 -0.0289187 4.42631e-20)
(-0.0473363 -0.0449692 -8.25552e-22)
(-0.044004 -0.061176 7.91713e-20)
(-0.0303344 -0.0788032 0)
(-0.0049661 -0.098327 -6.88044e-20)
(0.0329138 -0.119638 6.31703e-20)
(0.0833793 -0.141822 -1.16893e-19)
(0.145586 -0.163645 1.2157e-21)
(0.217822 -0.183567 9.44423e-20)
(0.297574 -0.199946 -4.85319e-21)
(0.381657 -0.211312 6.58386e-20)
(0.466627 -0.21641 -1.01592e-19)
(0.549552 -0.214698 0)
(0.627741 -0.205918 7.98657e-20)
(0.699518 -0.190714 -1.08541e-19)
(0.764382 -0.169456 2.68023e-20)
(0.821581 -0.143853 0)
(0.870772 -0.114518 1.49961e-20)
(0.92076 -0.083795 3.20118e-20)
(0.947404 -0.0513141 -2.98907e-20)
(1.01279 -0.0203608 -1.66686e-20)
(-0.0146862 0.0163944 1.64604e-19)
(-0.0255873 0.020395 -2.09529e-19)
(-0.0309454 0.0108249 -6.42411e-22)
(-0.0302941 -0.00282003 4.55028e-20)
(-0.0212666 -0.0176398 -8.54312e-20)
(-0.00120084 -0.0335374 -7.8947e-20)
(0.0321826 -0.0508608 1.48824e-19)
(0.0801406 -0.0698583 -2.46424e-22)
(0.143076 -0.0901195 -1.28405e-19)
(0.220387 -0.110546 2.3444e-19)
(0.309884 -0.129854 -2.72758e-21)
(0.408 -0.146504 -9.81321e-20)
(0.510215 -0.159074 0)
(0.611605 -0.166415 0)
(0.707553 -0.167844 -3.16719e-20)
(0.79445 -0.163237 -5.23309e-20)
(0.86964 -0.152882 -8.05738e-20)
(0.932273 -0.137741 7.51132e-20)
(0.982445 -0.118448 -2.68234e-20)
(1.01997 -0.0968769 3.85112e-20)
(1.0501 -0.0731759 -2.20214e-20)
(1.06791 -0.0501718 1.54851e-20)
(1.08398 -0.0257849 -4.94137e-20)
(1.09715 -0.00645537 4.85133e-21)
(-0.0161241 0.017695 5.55331e-20)
(-0.0265291 0.0273995 0)
(-0.0250121 0.0231973 9.92724e-20)
(-0.0126836 0.0127082 -9.1924e-20)
(0.0119234 -0.00074644 8.5534e-20)
(0.0510534 -0.0160759 0)
(0.106764 -0.0328869 0)
(0.180107 -0.0508401 -6.9088e-20)
(0.270445 -0.06904 1.24338e-21)
(0.375281 -0.086336 5.93842e-20)
(0.489984 -0.101413 -5.08903e-20)
(0.608353 -0.113044 9.70259e-20)
(0.723601 -0.12031 0)
(0.829455 -0.122749 1.39237e-19)
(0.921071 -0.120374 -2.47584e-19)
(0.995535 -0.113623 1.62248e-19)
(1.05181 -0.103231 8.10192e-20)
(1.09121 -0.0900673 -7.55328e-20)
(1.11479 -0.0750988 0)
(1.1274 -0.0590511 0)
(1.12985 -0.0431327 0)
(1.12674 -0.0267124 0)
(1.12272 -0.0128237 9.75203e-21)
(1.1126 0.00235928 -3.05735e-20)
(0.178999 0.522486 -4.58256e-21)
(0.231875 0.663955 4.59594e-21)
(0.286202 0.770981 -1.04202e-22)
(0.336387 0.832158 0)
(0.381389 0.848452 -2.25433e-21)
(0.41797 0.833062 4.15738e-21)
(0.432304 0.815396 -8.95176e-23)
(0.417969 0.817049 -1.76923e-21)
(0.395637 0.817419 0)
(0.402076 0.760375 0)
(0.457313 0.60698 -1.34503e-22)
(0.543605 0.369972 -1.48878e-22)
(0.632442 0.0829494 -2.62421e-21)
(0.713503 -0.216603 2.39677e-21)
(0.779947 -0.474457 0)
(0.821952 -0.641446 0)
(0.8428 -0.707491 1.14451e-21)
(0.847232 -0.708666 -2.21909e-22)
(0.838059 -0.686776 -8.15632e-22)
(0.827463 -0.655182 -4.09625e-23)
(0.817965 -0.632263 0)
(0.793476 -0.651189 0)
(0.747719 -0.699165 0)
(0.693714 -0.695999 0)
(0.652746 -0.564814 0)
(0.638683 -0.3035 0)
(0.651244 0.0160806 4.20762e-22)
(0.679983 0.300035 -6.62892e-22)
(0.716669 0.478352 0)
(0.760309 0.550817 0)
(0.799288 0.571333 -2.15453e-22)
(0.813434 0.596955 2.0935e-22)
(0.793583 0.630394 9.34307e-23)
(0.742216 0.634159 0)
(0.686032 0.553115 0)
(0.64679 0.359223 3.17444e-22)
(0.637999 0.0913946 -3.08529e-22)
(0.654726 -0.177945 0)
(0.694316 -0.354387 1.911e-22)
(0.736007 -0.44804 -2.68933e-22)
(0.733857 -0.487041 6.19008e-23)
(0.685481 -0.514052 0)
(0.635507 -0.466236 -1.12309e-22)
(0.608224 -0.322114 1.09204e-22)
(0.62627 -0.1212 0)
(0.660282 0.104649 0)
(0.683373 0.261482 -3.99018e-23)
(0.675008 0.419713 1.08475e-22)
(0.661939 0.445759 0)
(0.649058 0.378286 0)
(0.66229 0.21753 -3.32214e-23)
(0.662215 -0.0676906 -6.97286e-24)
(0.655274 -0.238672 -4.35411e-24)
(0.635738 -0.420626 2.0963e-23)
(0.634547 -0.400586 0)
(0.623371 -0.174682 0)
(0.616043 0.0192491 0)
(0.580618 0.350247 0)
(0.584908 0.32375 0)
(0.545912 0.0374665 0)
(0.0138988 0.429875 -3.78787e-22)
(0.0844022 0.574644 -1.37431e-20)
(0.155268 0.683618 1.98931e-21)
(0.225432 0.755756 1.09834e-20)
(0.288868 0.791952 1.23607e-22)
(0.335179 0.80603 0)
(0.355856 0.818029 -6.91915e-21)
(0.359576 0.830904 1.38816e-20)
(0.374837 0.813496 -6.96525e-21)
(0.431029 0.721435 8.35764e-21)
(0.528197 0.543609 -7.98065e-21)
(0.636322 0.303641 9.8802e-21)
(0.734584 0.0221867 -9.58182e-21)
(0.819622 -0.270888 -3.02189e-22)
(0.882222 -0.517543 -7.80698e-21)
(0.910576 -0.668417 7.58168e-21)
(0.911212 -0.718675 -4.65291e-21)
(0.896649 -0.706403 4.39646e-21)
(0.871072 -0.677025 -2.93786e-21)
(0.845073 -0.644411 5.35038e-21)
(0.824411 -0.617376 -2.43121e-21)
(0.791564 -0.625242 -1.35891e-22)
(0.736148 -0.664183 -2.72951e-21)
(0.671801 -0.662835 5.93092e-21)
(0.619768 -0.544996 -3.18578e-21)
(0.595088 -0.30256 2.34698e-22)
(0.602812 -0.000762538 4.06124e-21)
(0.632954 0.272846 -3.92776e-22)
(0.678323 0.44846 -5.75953e-21)
(0.734651 0.525125 4.45854e-21)
(0.78658 0.55638 -1.91955e-21)
(0.812712 0.596987 1.83891e-22)
(0.804375 0.645 -9.36307e-23)
(0.763973 0.657568 2.26517e-22)
(0.718914 0.576635 0)
(0.688156 0.37407 0)
(0.681764 0.093978 -1.37234e-21)
(0.692742 -0.187538 1.00252e-21)
(0.71911 -0.371151 5.88895e-22)
(0.75392 -0.456975 -1.28968e-22)
(0.748667 -0.479734 -6.50672e-22)
(0.69633 -0.497372 9.8819e-23)
(0.640671 -0.453904 0)
(0.613311 -0.321061 0)
(0.629015 -0.130184 0)
(0.658725 0.0950948 0)
(0.679543 0.258242 1.3102e-22)
(0.671729 0.422156 -6.97387e-23)
(0.663721 0.44924 0)
(0.65129 0.378847 0)
(0.668631 0.217107 0)
(0.671218 -0.0665982 -6.48156e-23)
(0.662456 -0.236317 7.04806e-24)
(0.639948 -0.417219 -4.39754e-23)
(0.632418 -0.400227 0)
(0.621401 -0.172449 0)
(0.615971 0.0221127 1.01464e-23)
(0.58677 0.352751 9.52096e-24)
(0.593623 0.327614 0)
(0.545983 0.0422582 0)
(-0.124728 0.320375 -2.45345e-21)
(-0.0368189 0.4669 -2.4537e-20)
(0.0357495 0.581457 1.88012e-20)
(0.116443 0.669833 -1.76322e-20)
(0.186638 0.729697 -1.24517e-22)
(0.240114 0.770533 0)
(0.277301 0.800051 -1.27169e-20)
(0.313683 0.80924 1.24262e-20)
(0.374847 0.767333 1.07612e-22)
(0.476899 0.648706 2.22733e-22)
(0.603418 0.464905 2.565e-22)
(0.723465 0.239072 2.99872e-22)
(0.828414 -0.025524 -1.99008e-20)
(0.917956 -0.305571 1.96277e-20)
(0.977153 -0.537026 0)
(0.993172 -0.671158 4.14325e-22)
(0.97553 -0.71009 -9.21571e-21)
(0.944099 -0.691594 9.07318e-21)
(0.905713 -0.659659 0)
(0.86613 -0.628434 0)
(0.834606 -0.598313 -4.4274e-21)
(0.796529 -0.594284 8.69885e-21)
(0.73453 -0.625026 -8.82336e-21)
(0.65968 -0.630018 -8.50718e-22)
(0.597897 -0.529654 1.1744e-20)
(0.56368 -0.30705 -1.37126e-20)
(0.564565 -0.0221379 1.33257e-20)
(0.594618 0.240028 -1.25391e-21)
(0.647106 0.412379 -5.55525e-21)
(0.713611 0.493406 0)
(0.777535 0.535087 0)
(0.815889 0.589935 1.1431e-21)
(0.820133 0.654046 -1.45681e-21)
(0.792425 0.678941 6.3204e-24)
(0.758655 0.600935 2.73966e-21)
(0.73663 0.39233 -2.662e-21)
(0.733035 0.103621 0)
(0.738897 -0.18762 3.32651e-22)
(0.750699 -0.380584 2.07571e-21)
(0.776325 -0.462987 -3.41621e-21)
(0.768863 -0.471391 1.23143e-21)
(0.71341 -0.479934 8.77235e-23)
(0.650947 -0.442549 -8.11225e-22)
(0.622214 -0.321431 6.38943e-22)
(0.635239 -0.140154 1.27826e-22)
(0.661001 0.0856079 1.13666e-22)
(0.6802 0.254633 -1.31371e-22)
(0.672856 0.423482 0)
(0.669008 0.452897 0)
(0.656298 0.379397 -6.79247e-22)
(0.677324 0.217172 3.35231e-22)
(0.683563 -0.0644351 -3.53327e-22)
(0.673514 -0.232834 3.93189e-22)
(0.64781 -0.412192 3.41686e-22)
(0.633788 -0.400315 -9.28889e-23)
(0.622841 -0.170652 5.21701e-23)
(0.61968 0.0235808 -1.77685e-23)
(0.596511 0.354014 -2.77685e-23)
(0.605948 0.332661 0)
(0.550072 0.0480455 0)
(-0.22648 0.206237 -3.49495e-20)
(-0.131807 0.349696 3.57287e-21)
(-0.0634777 0.471275 2.93958e-20)
(0.0163379 0.574126 -2.26785e-22)
(0.0913204 0.652595 0)
(0.159174 0.710779 0)
(0.223492 0.747113 -2.0919e-20)
(0.298354 0.747166 -2.69211e-21)
(0.402104 0.685519 3.51913e-20)
(0.538059 0.554739 2.27445e-21)
(0.68013 0.380583 -1.49274e-20)
(0.803907 0.177997 -1.82673e-20)
(0.914144 -0.0662012 1.82587e-20)
(1.00994 -0.331038 0)
(1.0667 -0.545533 -1.48753e-20)
(1.07082 -0.661844 1.36313e-20)
(1.036 -0.690353 0)
(0.988232 -0.668461 0)
(0.939445 -0.635737 5.35207e-21)
(0.889839 -0.607648 -7.93741e-22)
(0.847543 -0.577891 -4.14546e-21)
(0.804847 -0.562707 -3.79336e-21)
(0.740993 -0.581269 3.77026e-21)
(0.658701 -0.590982 -4.6447e-21)
(0.58674 -0.51219 -7.77024e-22)
(0.543451 -0.314244 5.16772e-21)
(0.536998 -0.0483029 7.38768e-22)
(0.564996 0.202375 6.60583e-23)
(0.622305 0.370847 0)
(0.696535 0.455309 3.07931e-21)
(0.77065 0.506615 -3.14942e-21)
(0.82148 0.575666 1.72906e-22)
(0.840162 0.655695 0)
(0.825383 0.693039 -2.35721e-22)
(0.802251 0.621124 5.76778e-21)
(0.789195 0.411494 -1.14169e-20)
(0.789273 0.117703 -8.84697e-22)
(0.792079 -0.180461 9.26928e-22)
(0.789452 -0.383611 4.60489e-21)
(0.802913 -0.466995 3.8065e-22)
(0.79306 -0.462997 -1.78126e-21)
(0.735844 -0.461205 1.54297e-21)
(0.665899 -0.430474 2.15801e-23)
(0.633974 -0.322511 4.85953e-22)
(0.644349 -0.151209 -6.00741e-22)
(0.666953 0.0752416 -6.65664e-22)
(0.68511 0.249847 2.15494e-22)
(0.67795 0.423785 4.90725e-22)
(0.677423 0.457206 -1.10688e-21)
(0.663936 0.380509 9.47934e-22)
(0.688083 0.217686 -3.65768e-22)
(0.699036 -0.0616365 4.47714e-22)
(0.688316 -0.22851 3.76634e-22)
(0.659333 -0.405519 -5.43108e-22)
(0.638735 -0.400519 5.10316e-23)
(0.627537 -0.169398 -5.44164e-24)
(0.626938 0.0236515 0)
(0.609515 0.354093 1.28108e-23)
(0.621742 0.33869 6.40745e-23)
(0.558247 0.0547737 0)
(-0.224583 0.10219 1.87814e-20)
(-0.152344 0.237598 -3.45507e-20)
(-0.0984907 0.356251 1.56641e-20)
(-0.0259133 0.465321 1.31504e-20)
(0.050738 0.554224 -2.5632e-20)
(0.133509 0.621886 -1.10327e-21)
(0.223228 0.661075 1.33387e-20)
(0.329392 0.654979 1.87994e-20)
(0.463021 0.583693 -1.84224e-20)
(0.61663 0.454366 0)
(0.760543 0.298966 -3.20322e-20)
(0.882953 0.120196 6.61446e-20)
(0.998954 -0.103965 -3.40717e-20)
(1.09896 -0.34725 0)
(1.14847 -0.537605 0)
(1.13818 -0.634494 3.99198e-22)
(1.08859 -0.655517 -1.6887e-20)
(1.02778 -0.635645 1.63956e-20)
(0.970936 -0.605676 0)
(0.91526 -0.581809 8.37436e-21)
(0.865016 -0.555765 -1.47447e-20)
(0.818283 -0.53284 1.28881e-20)
(0.755033 -0.538404 -1.24909e-20)
(0.668624 -0.550045 -9.6878e-22)
(0.586906 -0.493258 1.53207e-20)
(0.533636 -0.322876 -8.28975e-21)
(0.51944 -0.0782132 -3.33454e-22)
(0.544088 0.160148 -3.63026e-21)
(0.603467 0.324738 6.6638e-22)
(0.682194 0.412244 3.05885e-21)
(0.764793 0.47104 1.60338e-22)
(0.828241 0.551081 -2.5764e-21)
(0.86118 0.64764 5.7838e-21)
(0.860926 0.702539 -3.63608e-21)
(0.849794 0.642413 0)
(0.844741 0.435036 -7.64787e-21)
(0.848211 0.138029 7.51117e-21)
(0.849658 -0.164987 -4.83598e-21)
(0.834244 -0.378471 6.05602e-21)
(0.833288 -0.467322 -4.10347e-22)
(0.8203 -0.454318 0)
(0.762756 -0.441522 -1.65153e-22)
(0.685314 -0.417244 3.63003e-22)
(0.647991 -0.323789 0)
(0.655716 -0.163427 7.23354e-22)
(0.676064 0.0635483 -3.07196e-22)
(0.694087 0.244062 1.62182e-22)
(0.687245 0.422596 1.62719e-22)
(0.689216 0.461308 0)
(0.674205 0.381894 0)
(0.700697 0.218375 -1.27581e-21)
(0.717442 -0.0583521 1.9892e-21)
(0.706738 -0.223312 -1.02435e-21)
(0.67442 -0.397128 3.56422e-22)
(0.647232 -0.400673 2.67364e-22)
(0.635256 -0.168784 5.44749e-24)
(0.637443 0.0223488 1.6369e-22)
(0.625445 0.352822 0)
(0.640829 0.345499 -7.62712e-23)
(0.570501 0.0623764 -9.66633e-23)
(-0.0804784 0.0304394 4.72037e-21)
(-0.049856 0.140656 -4.66743e-21)
(-0.0201338 0.248676 6.92565e-23)
(0.0359582 0.35148 4.21645e-24)
(0.106418 0.441386 6.42412e-23)
(0.193077 0.512057 -7.18951e-23)
(0.294436 0.553671 9.20391e-23)
(0.415601 0.547173 0)
(0.561187 0.4765 -2.38335e-22)
(0.714488 0.358956 3.17512e-22)
(0.847981 0.226166 3.90843e-22)
(0.965261 0.068517 -5.07943e-22)
(1.08468 -0.136387 0)
(1.18327 -0.354522 0)
(1.22086 -0.518282 4.08414e-22)
(1.1954 -0.597357 0)
(1.13402 -0.613253 -2.60833e-22)
(1.06393 -0.597834 0)
(1.00104 -0.572292 -9.03062e-21)
(0.941438 -0.551666 1.61858e-20)
(0.884933 -0.531413 -1.30317e-20)
(0.834712 -0.505851 5.87407e-21)
(0.774965 -0.497717 4.918e-21)
(0.689024 -0.506122 -4.77387e-21)
(0.598799 -0.469915 -6.33806e-21)
(0.534476 -0.330423 6.19561e-21)
(0.511537 -0.109772 0)
(0.531032 0.115066 1.7807e-22)
(0.589656 0.275494 0)
(0.670096 0.364291 0)
(0.758892 0.428082 3.68039e-21)
(0.833712 0.518209 -3.76989e-21)
(0.882168 0.630015 2.83108e-22)
(0.897101 0.701476 4.54983e-22)
(0.89553 0.656925 -6.10563e-22)
(0.898278 0.457926 -6.92073e-21)
(0.90639 0.161661 6.71805e-21)
(0.908795 -0.143313 -6.63925e-21)
(0.883707 -0.365748 5.66413e-21)
(0.866958 -0.463826 8.35639e-22)
(0.849416 -0.445892 -1.69172e-21)
(0.792861 -0.421122 4.17109e-22)
(0.708891 -0.402054 8.20347e-22)
(0.663797 -0.324409 0)
(0.668792 -0.17666 -2.10582e-22)
(0.68795 0.0497968 2.24645e-22)
(0.706837 0.23586 -3.1987e-22)
(0.700052 0.419887 -1.63813e-22)
(0.703821 0.466728 0)
(0.686964 0.384589 4.76157e-22)
(0.715044 0.219412 -8.5187e-22)
(0.738547 -0.0548473 3.15303e-23)
(0.728621 -0.217405 -3.54455e-22)
(0.692879 -0.387025 2.79804e-22)
(0.659185 -0.400524 -2.60131e-22)
(0.645728 -0.168795 0)
(0.650828 0.0197331 -1.63787e-22)
(0.643867 0.350234 0)
(0.66296 0.352968 0)