/*--------------------------------*- C++ -*----------------------------------*\
| =========                 |                                                 |
| \\      /  F ield         | OpenFOAM: The Open Source CFD Toolbox           |
|  \\    /   O peration     | Version:  2512                                  |
|   \\  /    A nd           | Website:  www.openfoam.com                      |
|    \\/     M anipulation  |                                                 |
\*---------------------------------------------------------------------------*/
FoamFile
{
    version     2.0;
    format      ascii;
    arch        "LSB;label=32;scalar=64";
    class       volScalarField;
    location    "102.15";
    object      p;
}
// * * * * * * * * * * * * * * * * * * * * * * * * * * * * * * * * * * * * * //

dimensions      [0 2 -2 0 0 0 0];

internalField   nonuniform List<scalar> 
13248
(
-0.637566
-0.635103
-0.631935
-0.628556
-0.625783
-0.624148
-0.623601
-0.623386
-0.622125
-0.618101
-0.609686
-0.595756
-0.57594
-0.550664
-0.520937
-0.488029
-0.453175
-0.417406
-0.381498
-0.34605
-0.311267
-0.277643
-0.243952
-0.21055
-0.643761
-0.641244
-0.637864
-0.634053
-0.63042
-0.627217
-0.624086
-0.620047
-0.613763
-0.60394
-0.589698
-0.570773
-0.547519
-0.520721
-0.491343
-0.460301
-0.428363
-0.396125
-0.364046
-0.332461
-0.301627
-0.271751
-0.242647
-0.215131
-0.652547
-0.649593
-0.645854
-0.641533
-0.636856
-0.631665
-0.625281
-0.616704
-0.604998
-0.5896
-0.570444
-0.547915
-0.522679
-0.49548
-0.466998
-0.437792
-0.408307
-0.378901
-0.349853
-0.321431
-0.293777
-0.267129
-0.241308
-0.216243
-0.663872
-0.66008
-0.655721
-0.650596
-0.644407
-0.636548
-0.626173
-0.612597
-0.595581
-0.575345
-0.55243
-0.527506
-0.501214
-0.474087
-0.446538
-0.418882
-0.391372
-0.364218
-0.337611
-0.31171
-0.28665
-0.262615
-0.23941
-0.217297
-0.677562
-0.672605
-0.667333
-0.660963
-0.652585
-0.641238
-0.626239
-0.607556
-0.585737
-0.561605
-0.535976
-0.509509
-0.482675
-0.455786
-0.429056
-0.402644
-0.37668
-0.35129
-0.326585
-0.302672
-0.279647
-0.257579
-0.236357
-0.21605
-0.693502
-0.687151
-0.68066
-0.672468
-0.661027
-0.645308
-0.625224
-0.601599
-0.575643
-0.548465
-0.520872
-0.493361
-0.466202
-0.439538
-0.413449
-0.387996
-0.363239
-0.339233
-0.316035
-0.293701
-0.272279
-0.251806
-0.232219
-0.213594
-0.711514
-0.703653
-0.695586
-0.684817
-0.669279
-0.648364
-0.622982
-0.594794
-0.565372
-0.535818
-0.506759
-0.478483
-0.451093
-0.424609
-0.399023
-0.37433
-0.350526
-0.327619
-0.305619
-0.284538
-0.264391
-0.24517
-0.226861
-0.209453
-0.731246
-0.721803
-0.711697
-0.697399
-0.676694
-0.649993
-0.619392
-0.587137
-0.554837
-0.523385
-0.493164
-0.464273
-0.436682
-0.410324
-0.38513
-0.361041
-0.338011
-0.316004
-0.294991
-0.274949
-0.255853
-0.237684
-0.220434
-0.203999
-0.751985
-0.74091
-0.72817
-0.70926
-0.68248
-0.649772
-0.614288
-0.578498
-0.543801
-0.510791
-0.479612
-0.450205
-0.422442
-0.396191
-0.371332
-0.347763
-0.325397
-0.304164
-0.283999
-0.264848
-0.246659
-0.229397
-0.213023
-0.197361
-0.772611
-0.75985
-0.743731
-0.719154
-0.685723
-0.64714
-0.607256
-0.568434
-0.531724
-0.497409
-0.465427
-0.435592
-0.407699
-0.381561
-0.357014
-0.333919
-0.312157
-0.291625
-0.272235
-0.253905
-0.236565
-0.220162
-0.204614
-0.189723
-0.79163
-0.777108
-0.75673
-0.725577
-0.685276
-0.641173
-0.597403
-0.555995
-0.517594
-0.482201
-0.449577
-0.419432
-0.391494
-0.365527
-0.341328
-0.318722
-0.297563
-0.277722
-0.25909
-0.241566
-0.225068
-0.209528
-0.194822
-0.180789
-0.807304
-0.790909
-0.765356
-0.726922
-0.679812
-0.630662
-0.583529
-0.539962
-0.500206
-0.463997
-0.430943
-0.400664
-0.372826
-0.347148
-0.323388
-0.301343
-0.280842
-0.261738
-0.243897
-0.227207
-0.211587
-0.196964
-0.183206
-0.170221
-0.467193
-0.470011
-0.472319
-0.475786
-0.480968
-0.487815
-0.49609
-0.505403
-0.515154
-0.52488
-0.533774
-0.540977
-0.545629
-0.546971
-0.544454
-0.537864
-0.527417
-0.513817
-0.498254
-0.482306
-0.467653
-0.455567
-0.446851
-0.443056
-0.499202
-0.501711
-0.504764
-0.509808
-0.517235
-0.526906
-0.53856
-0.551756
-0.565807
-0.579772
-0.59294
-0.604023
-0.611774
-0.61499
-0.61264
-0.604036
-0.588996
-0.567978
-0.542119
-0.513177
-0.483201
-0.454048
-0.427572
-0.406926
-0.530311
-0.532118
-0.535577
-0.541808
-0.550993
-0.562906
-0.577205
-0.593404
-0.610749
-0.628198
-0.644658
-0.658607
-0.668504
-0.672769
-0.669948
-0.658933
-0.639178
-0.610864
-0.575035
-0.533543
-0.488842
-0.443455
-0.400172
-0.361548
-0.558543
-0.55931
-0.562763
-0.569578
-0.579752
-0.592977
-0.60884
-0.62678
-0.646012
-0.665474
-0.683547
-0.698821
-0.709465
-0.713575
-0.709354
-0.695373
-0.670765
-0.635533
-0.590731
-0.538324
-0.481248
-0.422299
-0.365821
-0.30924
-0.582325
-0.581836
-0.584847
-0.59155
-0.60182
-0.615305
-0.631529
-0.649869
-0.669482
-0.689249
-0.70759
-0.722889
-0.733142
-0.73622
-0.73004
-0.712858
-0.6836
-0.642275
-0.59019
-0.529709
-0.464186
-0.396503
-0.330538
-0.266316
-0.600776
-0.599054
-0.601215
-0.607137
-0.616633
-0.629359
-0.644813
-0.662348
-0.681101
-0.699893
-0.717336
-0.731613
-0.740649
-0.74215
-0.733822
-0.713731
-0.680737
-0.634994
-0.578181
-0.513118
-0.44372
-0.373004
-0.304926
-0.239253
-0.613852
-0.611108
-0.612169
-0.616755
-0.624724
-0.635818
-0.649565
-0.665338
-0.682319
-0.699198
-0.714778
-0.727174
-0.73421
-0.733467
-0.722552
-0.699555
-0.663572
-0.61518
-0.556548
-0.490869
-0.422107
-0.353318
-0.288059
-0.226786
-0.622223
-0.618815
-0.61871
-0.621607
-0.627521
-0.636361
-0.64775
-0.661086
-0.675479
-0.69012
-0.703319
-0.71321
-0.717528
-0.713768
-0.699602
-0.673424
-0.634892
-0.585251
-0.527204
-0.464143
-0.39977
-0.336627
-0.277455
-0.222027
-0.627034
-0.623386
-0.622214
-0.623325
-0.626959
-0.633256
-0.641993
-0.652622
-0.664485
-0.676397
-0.686756
-0.693533
-0.694321
-0.686665
-0.668592
-0.639165
-0.598856
-0.549574
-0.494269
-0.436054
-0.378039
-0.321936
-0.269802
-0.220729
-0.629642
-0.626133
-0.624111
-0.623575
-0.625014
-0.628802
-0.634878
-0.642905
-0.652042
-0.66101
-0.668031
-0.670877
-0.667151
-0.654766
-0.63248
-0.600274
-0.559413
-0.512198
-0.46133
-0.409348
-0.358414
-0.309471
-0.264065
-0.220655
-0.631426
-0.628292
-0.625679
-0.623805
-0.623377
-0.62494
-0.628652
-0.6341
-0.640345
-0.645887
-0.648718
-0.646594
-0.637481
-0.620048
-0.594008
-0.560195
-0.520312
-0.476529
-0.430896
-0.385215
-0.340729
-0.298142
-0.258614
-0.220037
-0.633695
-0.630973
-0.627996
-0.62517
-0.623335
-0.623142
-0.624703
-0.627512
-0.630407
-0.631658
-0.629242
-0.621278
-0.606483
-0.584478
-0.555833
-0.521843
-0.48416
-0.444424
-0.403949
-0.363823
-0.324537
-0.286834
-0.251132
-0.217076
-0.448031
-0.462671
-0.478573
-0.492827
-0.492307
-0.479995
-0.44035
-0.378243
-0.308621
-0.247751
-0.204992
-0.180901
-0.173058
-0.178548
-0.195775
-0.22768
-0.278648
-0.340802
-0.389692
-0.397702
-0.358212
-0.292537
-0.226627
-0.174897
-0.141301
-0.12439
-0.120564
-0.130927
-0.160189
-0.203866
-0.240541
-0.244803
-0.215477
-0.170463
-0.131385
-0.107441
-0.099168
-0.108647
-0.134852
-0.161063
-0.164372
-0.141905
-0.112954
-0.0895046
-0.0769206
-0.0722826
-0.0739114
-0.0737489
-0.0682509
-0.0600518
-0.0552054
-0.0537099
-0.0571307
-0.0563734
-0.0503151
-0.0348333
-0.0310608
-0.020865
-0.0175222
-0.00497684
-0.395797
-0.397578
-0.406182
-0.422696
-0.428678
-0.41373
-0.378243
-0.32493
-0.266277
-0.216539
-0.182936
-0.166033
-0.164072
-0.174607
-0.196615
-0.233521
-0.288967
-0.353896
-0.404453
-0.413517
-0.373064
-0.303931
-0.233743
-0.178292
-0.140964
-0.120158
-0.112306
-0.117405
-0.13962
-0.175887
-0.207567
-0.21171
-0.187024
-0.149702
-0.118696
-0.101892
-0.100443
-0.117689
-0.15177
-0.184536
-0.189426
-0.162119
-0.125934
-0.0953731
-0.076929
-0.0663522
-0.063492
-0.0603923
-0.0557885
-0.05115
-0.0512327
-0.0570738
-0.0644774
-0.0671267
-0.0600011
-0.0377034
-0.0289846
-0.0114806
-0.00808369
-0.00303324
-0.333727
-0.318388
-0.316966
-0.323622
-0.327512
-0.320952
-0.296058
-0.2567
-0.212514
-0.175404
-0.151516
-0.14212
-0.146271
-0.161676
-0.187305
-0.226641
-0.283139
-0.348924
-0.401212
-0.414389
-0.376498
-0.306973
-0.234831
-0.177589
-0.13787
-0.113786
-0.102104
-0.102153
-0.117367
-0.146097
-0.173306
-0.178718
-0.158025
-0.127979
-0.104335
-0.0942778
-0.0996801
-0.124769
-0.16647
-0.205524
-0.212834
-0.181291
-0.137921
-0.100293
-0.0764777
-0.0606901
-0.0536838
-0.0476408
-0.0435765
-0.0421587
-0.0470371
-0.0602162
-0.071455
-0.0773067
-0.0692834
-0.0404926
-0.0268877
-0.00237728
0.00108824
-0.00113107
-0.268482
-0.236614
-0.222134
-0.218649
-0.217488
-0.215199
-0.201172
-0.177951
-0.149372
-0.125434
-0.111602
-0.10983
-0.119998
-0.139501
-0.167047
-0.206224
-0.261258
-0.326665
-0.381595
-0.39948
-0.367498
-0.300969
-0.229836
-0.172753
-0.132232
-0.106001
-0.0910355
-0.0863139
-0.0949632
-0.116535
-0.139367
-0.145592
-0.129443
-0.105942
-0.0886584
-0.0845452
-0.0961335
-0.128468
-0.177395
-0.222624
-0.233087
-0.198543
-0.148628
-0.104144
-0.0755202
-0.0553383
-0.044628
-0.0356909
-0.0317335
-0.033154
-0.0425587
-0.063011
-0.0779679
-0.0867368
-0.0780122
-0.0431802
-0.0248311
0.0062613
0.00993002
0.000751698
-0.210159
-0.161251
-0.138088
-0.121765
-0.113918
-0.11168
-0.109215
-0.0968095
-0.0821068
-0.0704512
-0.0661158
-0.0718377
-0.0875319
-0.110217
-0.138443
-0.175903
-0.227666
-0.290854
-0.347998
-0.372102
-0.347541
-0.287186
-0.219852
-0.164538
-0.124433
-0.097228
-0.080116
-0.0713438
-0.0738059
-0.0886047
-0.107177
-0.113901
-0.102136
-0.0842329
-0.0720063
-0.0727594
-0.0894337
-0.127971
-0.183418
-0.234472
-0.248796
-0.213092
-0.157898
-0.10698
-0.0741044
-0.0503086
-0.0364105
-0.0247227
-0.0203398
-0.0241749
-0.0377341
-0.0653784
-0.0839266
-0.0952579
-0.0860759
-0.0457558
-0.0228632
0.0142605
0.0183874
0.00262624
-0.176483
-0.117755
-0.0751382
-0.0458835
-0.026736
-0.0279791
-0.0269314
-0.0232417
-0.0198174
-0.0176866
-0.0211504
-0.0330202
-0.0529687
-0.0776641
-0.105474
-0.140203
-0.187677
-0.247382
-0.30544
-0.335553
-0.319379
-0.267059
-0.205742
-0.153795
-0.115059
-0.0877967
-0.0694465
-0.0580568
-0.0552749
-0.0637043
-0.077947
-0.08518
-0.0771364
-0.0636219
-0.0550283
-0.0593174
-0.0798526
-0.12339
-0.184039
-0.240237
-0.258964
-0.224145
-0.165479
-0.108843
-0.0722938
-0.0456197
-0.0291031
-0.0148922
-0.00951483
-0.0153363
-0.0325559
-0.0672163
-0.0892413
-0.102754
-0.0933597
-0.0481979
-0.0210267
0.0214717
0.0263986
0.00448937
-0.167104
-0.106266
-0.0530868
-0.00869916
0.0214334
0.0339039
0.0372416
0.0354251
0.0327876
0.028025
0.0191404
0.00339367
-0.0187897
-0.043881
-0.0703046
-0.102188
-0.145582
-0.201386
-0.259218
-0.294253
-0.286094
-0.242635
-0.188745
-0.141468
-0.104963
-0.0782513
-0.059379
-0.0462888
-0.0397319
-0.0425392
-0.0524704
-0.059955
-0.0552107
-0.0448337
-0.0385015
-0.0450329
-0.0680267
-0.114501
-0.179067
-0.239787
-0.26302
-0.231219
-0.171169
-0.109853
-0.0701814
-0.0412577
-0.0227326
-0.00633261
0.000594231
-0.00671831
-0.0270175
-0.0685081
-0.0938867
-0.109145
-0.099778
-0.0504676
-0.0193453
0.0277732
0.0338917
0.00632945
-0.168031
-0.111616
-0.0600709
-0.0129272
0.0277972
0.0581517
0.0744109
0.0778329
0.0732554
0.0655847
0.0540188
0.0368013
0.0142632
-0.0101452
-0.0351211
-0.0649264
-0.104975
-0.156876
-0.213
-0.250505
-0.249472
-0.215298
-0.169815
-0.128185
-0.0946941
-0.0690675
-0.0501622
-0.0361697
-0.0269219
-0.0251896
-0.0311047
-0.0384023
-0.0368741
-0.0283933
-0.0233139
-0.030653
-0.0545354
-0.102438
-0.16865
-0.232918
-0.260656
-0.233625
-0.174617
-0.110079
-0.067854
-0.0371834
-0.0172659
0.000872078
0.00985099
0.00150274
-0.0211991
-0.0691419
-0.0977941
-0.114373
-0.105246
-0.0525079
-0.0178167
0.0330822
0.0407942
0.00812947
-0.172791
-0.122536
-0.0754768
-0.0296018
0.0118936
0.0473802
0.0759133
0.0957239
0.101971
0.0962408
0.0852455
0.0689855
0.0477112
0.0241222
-0.000506762
-0.0298557
-0.0681937
-0.116949
-0.170528
-0.208987
-0.212888
-0.187135
-0.150045
-0.114439
-0.0844852
-0.0604618
-0.0419334
-0.0276359
-0.0167852
-0.0115774
-0.0138296
-0.0203859
-0.0219028
-0.0144886
-0.0100593
-0.016953
-0.040306
-0.0873379
-0.153653
-0.220675
-0.252796
-0.231648
-0.175503
-0.1095
-0.0653351
-0.033371
-0.0126181
0.00669049
0.0181562
0.00931248
-0.0150422
-0.0692409
-0.101026
-0.118433
-0.109703
-0.0542854
-0.0164582
0.0373522
0.0470448
0.00986805
-0.178778
-0.13501
-0.0937118
-0.0512636
-0.0104441
0.0257615
0.0571312
0.085689
0.0982178
0.105396
0.103328
0.0936578
0.0763819
0.0542335
0.0297753
0.00111228
-0.0348904
-0.0799898
-0.129609
-0.16581
-0.174063
-0.157168
-0.129257
-0.100385
-0.074576
-0.0527025
-0.0349825
-0.0208176
-0.00929556
-0.00169321
-0.0006214
-0.00557754
-0.00824502
-0.00326706
0.000763368
-0.00480614
-0.0263942
-0.0713811
-0.135824
-0.202285
-0.239066
-0.223388
-0.173244
-0.10818
-0.0627701
-0.0299729
-0.00884227
0.0110668
0.0254659
0.0164186
-0.00881607
-0.0685576
-0.103404
-0.121273
-0.113078
-0.0558252
-0.015364
0.0405113
0.0525863
0.0115183
-0.183471
-0.145526
-0.108976
-0.0695867
-0.0302274
0.00642031
0.0388008
0.0638564
0.0887697
0.101092
0.106562
0.106637
0.0980367
0.0792
0.054579
0.0258747
-0.00906177
-0.0515295
-0.0966827
-0.132421
-0.141891
-0.132011
-0.111674
-0.0885624
-0.0665235
-0.0468169
-0.0300359
-0.0161104
-0.00438216
0.00471577
0.00870157
0.00587207
0.00283752
0.00566336
0.00905258
0.00556178
-0.0127895
-0.0542433
-0.115893
-0.182413
-0.222507
-0.215232
-0.169506
-0.106892
-0.0608138
-0.0272256
-0.00589481
0.0137126
0.0323197
0.0230889
-0.00223712
-0.0674201
-0.105249
-0.122964
-0.11535
-0.057053
-0.0144948
0.0425053
0.0573629
0.0130505
-0.189456
-0.161647
-0.130296
-0.095658
-0.0606781
-0.0268412
0.00524797
0.0349129
0.0612547
0.0814899
0.0946174
0.101026
0.0996981
0.0902056
0.0717831
0.0473773
0.0172045
-0.0190206
-0.057381
-0.0822326
-0.0998646
-0.0991199
-0.0886005
-0.0731365
-0.0561089
-0.0394195
-0.0242884
-0.0111235
0.000323362
0.0101177
0.0160831
0.0149389
0.0112928
0.0101917
0.0150024
0.0124554
-0.00247709
-0.0384293
-0.0953943
-0.158727
-0.200898
-0.194771
-0.160389
-0.103023
-0.0580743
-0.0240687
-0.00249843
0.0157155
0.0315736
0.0282634
0.00411581
-0.0652624
-0.105826
-0.123333
-0.116118
-0.0572217
-0.0132253
0.0437971
0.0613139
0.0144387
-0.171564
-0.155919
-0.126753
-0.0927569
-0.0593157
-0.0276171
0.00233849
0.0302522
0.0540968
0.0734749
0.0867582
0.0957689
0.0992397
0.093487
0.0786305
0.0574893
0.0297929
-0.00462688
-0.039688
-0.0680177
-0.0765633
-0.0760747
-0.0682672
-0.056133
-0.0422135
-0.0281686
-0.0150138
-0.00327328
0.00698381
0.0161101
0.0225896
0.0228576
0.0190152
0.0166279
0.0204451
0.0205043
0.0102049
-0.0211634
-0.0750029
-0.137139
-0.182455
-0.191827
-0.149533
-0.094417
-0.0511037
-0.0189764
0.00194246
0.0190164
0.0368484
0.0341699
0.0111729
-0.0622104
-0.106501
-0.123125
-0.115794
-0.0559709
-0.0113516
0.0449671
0.0643356
0.0156109
-0.15603
-0.143421
-0.116365
-0.0846739
-0.0543844
-0.0264179
-0.00029417
0.0239888
0.0455305
0.0635352
0.0770576
0.0863918
0.0902603
0.0864981
0.0750596
0.0574646
0.0340744
0.00579179
-0.0222899
-0.0429685
-0.0523215
-0.0532695
-0.0484547
-0.0399131
-0.0292626
-0.017952
-0.00694501
0.00336654
0.0126245
0.0207738
0.0267336
0.0271085
0.0233276
0.0204701
0.0233275
0.0240503
0.0165871
-0.0104646
-0.0592907
-0.118561
-0.163308
-0.167701
-0.13499
-0.0845046
-0.0440543
-0.0140584
0.00602907
0.0217435
0.040057
0.03796
0.0162018
-0.0598636
-0.107377
-0.121723
-0.113705
-0.0540627
-0.00942311
0.0455498
0.0661637
0.0165119
-0.141776
-0.130608
-0.107462
-0.079607
-0.0525968
-0.0277435
-0.00459136
0.0171202
0.036808
0.0535063
0.0663202
0.0750787
0.0790827
0.0770453
0.0686657
0.0549427
0.0368338
0.0155589
-0.00574742
-0.0224762
-0.0320054
-0.0348259
-0.0326503
-0.0268812
-0.0187053
-0.00941795
-5.4525e-05
0.00895999
0.0171749
0.0244416
0.0301316
0.0307365
0.0270514
0.0235645
0.0243929
0.025791
0.01936
-0.00506084
-0.0489996
-0.101462
-0.140823
-0.146592
-0.119132
-0.0742169
-0.0371147
-0.00947554
0.00966858
0.0239179
0.0427799
0.0406331
0.0194463
-0.0586909
-0.107948
-0.118886
-0.110072
-0.0515481
-0.00740439
0.0454092
0.0670343
0.0171963
-0.126932
-0.118305
-0.0990645
-0.0748748
-0.0508879
-0.0287251
-0.00820292
0.010988
0.0285327
0.0436179
0.0554931
0.0638726
0.0683113
0.0679462
0.062487
0.0526522
0.0392388
0.0231033
0.0064646
-0.00745002
-0.0162815
-0.0198848
-0.0191558
-0.0152259
-0.00901588
-0.00154873
0.00619187
0.0139073
0.0211248
0.0273718
0.0324283
0.0330917
0.0296514
0.0257701
0.0260565
0.0268197
0.0210686
-0.00134297
-0.0391596
-0.0820276
-0.116349
-0.123244
-0.101343
-0.0627698
-0.0299409
-0.00499053
0.0129904
0.0256302
0.0445229
0.042392
0.0218975
-0.0572575
-0.1075
-0.114689
-0.104757
-0.0481577
-0.00516701
0.0445435
0.066941
0.0176792
-0.113323
-0.107068
-0.09115
-0.0702878
-0.0491644
-0.0295557
-0.0115214
0.00523322
0.0207076
0.0342839
0.0453291
0.0534519
0.0582757
0.0592426
0.0561146
0.0493009
0.0393912
0.0272432
0.0145688
0.00358912
-0.00400186
-0.0077248
-0.00797739
-0.00551673
-0.000950823
0.0050207
0.011452
0.0179957
0.0242965
0.0296766
0.0340423
0.0346345
0.0314686
0.02737
0.0270374
0.0271188
0.0217915
0.00230181
-0.0274266
-0.0609579
-0.0909613
-0.0990184
-0.082679
-0.0508445
-0.0228323
-0.000812461
0.0158299
0.0269284
0.0451377
0.0431982
0.0241789
-0.0546669
-0.105617
-0.108852
-0.0975879
-0.0438597
-0.00275275
0.0429561
0.0658052
0.017933
-0.101182
-0.0965488
-0.0834597
-0.0656439
-0.0472659
-0.0301294
-0.0143986
0.000248023
0.0138186
0.025961
0.0361123
0.0438364
0.0488044
0.0506647
0.0492587
0.0448415
0.0378889
0.0291483
0.0198177
0.0113586
0.0050987
0.00161396
0.000891496
0.00247787
0.00591148
0.0107002
0.0160034
0.0214318
0.0268202
0.0313992
0.0350411
0.0355017
0.032655
0.0285781
0.027658
0.026969
0.0218841
0.00636434
-0.0152337
-0.0402453
-0.0658659
-0.0750759
-0.0638881
-0.0386491
-0.0157638
0.00309618
0.0181874
0.0278928
0.044561
0.0429863
0.0263048
-0.0507635
-0.10172
-0.101197
-0.0885735
-0.0386027
-0.000148361
0.0407328
0.0635467
0.0178984
-0.0898043
-0.0865316
-0.075916
-0.0609132
-0.0451481
-0.0303208
-0.0166645
-0.0039339
0.00792922
0.0186789
0.0278675
0.0350942
0.0400836
0.0426068
0.0425559
0.0400885
0.0355396
0.0295074
0.0228697
0.0165523
0.0116665
0.00874776
0.00793277
0.00896612
0.011515
0.0152941
0.0196624
0.0241485
0.0287012
0.0325935
0.035625
0.0359591
0.0334556
0.02964
0.0283526
0.0269945
0.0216389
0.00987395
-0.00420633
-0.0209241
-0.0419576
-0.0522348
-0.0458472
-0.0267597
-0.00893239
0.00667965
0.0200856
0.0286408
0.042933
0.0416916
0.027952
-0.0453952
-0.094988
-0.0915268
-0.0778751
-0.0324622
0.00260162
0.0379981
0.0601231
0.0175127
-0.0791714
-0.0771064
-0.068645
-0.0561577
-0.0427504
-0.0300094
-0.018239
-0.00723329
0.00306993
0.0125113
0.0207507
0.0274553
0.0323889
0.0353772
0.0363346
0.0353576
0.0326817
0.0287802
0.0243388
0.01984
0.0162408
0.0139748
0.0132479
0.0139805
0.015954
0.0189849
0.0225935
0.0262906
0.030078
0.0333237
0.0358521
0.0361227
0.0340222
0.0306566
0.0292344
0.0276537
0.0212552
0.0126798
0.00554401
-0.00350647
-0.0204073
-0.031746
-0.0294693
-0.0156339
-0.00241696
0.00997918
0.0216437
0.0292539
0.0406488
0.0393671
0.0290192
-0.0381228
-0.0845309
-0.0797026
-0.0659103
-0.0256333
0.00545084
0.0349167
0.0555529
0.0167393
-0.0694649
-0.0683229
-0.0616322
-0.0513012
-0.0400002
-0.0291911
-0.0190548
-0.00961476
-0.000724928
0.00751177
0.014845
0.0210045
0.0257858
0.0290458
0.0307141
0.0308517
0.0296285
0.0273764
0.024486
0.0216348
0.0192022
0.0176333
0.0171601
0.0177946
0.0193859
0.0218268
0.0247926
0.0278487
0.0309995
0.0336773
0.0357871
0.0360666
0.034405
0.0316714
0.0303505
0.0288852
0.022748
0.0170383
0.0151738
0.0111038
-0.00299799
-0.0147619
-0.0153637
-0.00568241
0.00362829
0.0130309
0.0229728
0.0297516
0.0384014
0.036463
0.029797
-0.028503
-0.0697208
-0.0657025
-0.0533186
-0.0184573
0.00831241
0.0316832
0.049963
0.0155872
-0.0604985
-0.0600251
-0.0548126
-0.0463512
-0.0368896
-0.0276629
-0.019139
-0.011108
-0.00349001
0.00364727
0.0101212
0.0157174
0.0202654
0.0236446
0.0257973
0.0267519
0.0266255
0.0256519
0.0240896
0.0224296
0.0209842
0.0200761
0.0199026
0.0205337
0.021883
0.0239042
0.0263719
0.028917
0.0315446
0.0337573
0.0355029
0.0358389
0.0346389
0.0325821
0.0316655
0.0307398
0.0274031
0.0242061
0.0249555
0.0220835
0.0095575
-0.00150445
-0.00369083
0.00288633
0.00906978
0.0158857
0.0241432
0.030116
0.0368399
0.0338086
0.0305531
-0.0167191
-0.0508139
-0.0498837
-0.0408758
-0.0113741
0.0110917
0.0285657
0.0436219
0.0141162
-0.0521322
-0.0522232
-0.0482668
-0.0414114
-0.0335514
-0.0258452
-0.0186199
-0.0118077
-0.005314
0.000834009
0.006508
0.0115426
0.0158016
0.0191807
0.0216269
0.0231432
0.0238086
0.0237893
0.0232532
0.0225322
0.0218822
0.021545
0.0216801
0.0223879
0.0236108
0.0253364
0.0274137
0.029552
0.0317508
0.0336112
0.0350636
0.0354815
0.0347543
0.0333495
0.0329683
0.0327861
0.0317692
0.0315617
0.0330422
0.0295652
0.0183303
0.00869017
0.00571415
0.00996936
0.0137692
0.0185176
0.0251603
0.0303648
0.0360823
0.0330397
0.0311709
-0.00385782
-0.0297244
-0.0332483
-0.0292869
-0.00484381
0.0136866
0.0259412
0.0369828
0.012467
-0.0444448
-0.0449521
-0.0420111
-0.036512
-0.03004
-0.0236075
-0.0175373
-0.0117977
-0.00629547
-0.0010311
0.00390921
0.0083983
0.012328
0.0156086
0.0181913
0.020065
0.0212785
0.0219201
0.0221546
0.0221602
0.0221424
0.022289
0.0227169
0.0235303
0.0246904
0.0262105
0.0279924
0.0298246
0.0316812
0.0332823
0.0345253
0.0350343
0.0347549
0.0339419
0.0340796
0.0345336
0.0350391
0.0363582
0.0376958
0.0339834
0.0244081
0.0163719
0.0129579
0.0155559
0.0176677
0.0208686
0.0260291
0.0304879
0.0356596
0.0324987
0.0308476
0.0080187
-0.00973606
-0.017369
-0.0190413
0.000752946
0.0159549
0.024224
0.0308542
0.0109439
-0.0374142
-0.0381902
-0.0360543
-0.0316805
-0.0263821
-0.0210472
-0.015984
-0.0111786
-0.00654332
-0.0020623
0.00220919
0.00617445
0.00975019
0.0128605
0.015461
0.0175302
0.0190964
0.0202023
0.0209648
0.0215087
0.0219755
0.0225066
0.0231827
0.0241039
0.0252443
0.0266322
0.0281944
0.0297997
0.0313916
0.0328035
0.0339161
0.0345074
0.0346161
0.0343066
0.0348299
0.0356025
0.0365917
0.0382032
0.0392587
0.0359946
0.0283262
0.0218635
0.0184316
0.0197759
0.0207811
0.0228617
0.02675
0.0304468
0.0350127
0.0324612
0.0291321
0.0169742
0.00594959
-0.00423868
-0.0104
0.00520994
0.0177384
0.0235379
0.0260453
0.00999778
-0.031
-0.0319205
-0.030404
-0.0269512
-0.0226455
-0.0182538
-0.0140582
-0.0100581
-0.00617596
-0.00238562
0.00128094
0.00475178
0.00796443
0.0108543
0.0133825
0.0155192
0.017276
0.0186802
0.0197992
0.0207203
0.0215359
0.022355
0.0232302
0.02425
0.0253914
0.0266949
0.028095
0.0295341
0.0309302
0.0322008
0.0332403
0.0338961
0.0343041
0.0343921
0.0349727
0.0359532
0.0369711
0.0383245
0.0390283
0.0364077
0.0305392
0.0255346
0.0223997
0.0228237
0.0231646
0.0244454
0.0273011
0.030245
0.033981
0.0320785
0.0271886
0.0223401
0.0157686
0.00500734
-0.00337501
0.00854719
0.0189631
0.0236433
0.0232644
0.0098386
-0.0250611
-0.0260778
-0.025068
-0.0223842
-0.0189129
-0.0153163
-0.0118564
-0.00854465
-0.00531194
-0.00212618
0.000998439
0.00401013
0.00686105
0.00949793
0.0118856
0.0139989
0.0158302
0.0173948
0.0187298
0.0198944
0.0209462
0.0219685
0.0229902
0.0240868
0.0252338
0.0264817
0.0277645
0.0290803
0.0303357
0.0314953
0.0324942
0.0331942
0.0337983
0.03424
0.0347804
0.0357288
0.0366151
0.037572
0.0379441
0.0359291
0.0315713
0.0278077
0.02509
0.0249114
0.0248951
0.0256255
0.0276504
0.0298913
0.0327441
0.0313249
0.0269121
0.0255501
0.0205938
0.0107692
0.00225679
0.0109189
0.0194875
0.0235502
0.021139
0.00986194
-0.019629
-0.0207241
-0.0201042
-0.0180269
-0.0152344
-0.0123008
-0.00946356
-0.00673859
-0.00406376
-0.00140308
0.0012409
0.00383115
0.0063311
0.00869722
0.0109006
0.0129207
0.0147412
0.0163643
0.0178056
0.0191076
0.0203018
0.0214514
0.0225672
0.0237134
0.0248617
0.0260674
0.0272663
0.0284849
0.0296395
0.030709
0.0316769
0.0323956
0.0330568
0.0334322
0.0342041
0.0350785
0.0358076
0.036414
0.0365284
0.0350207
0.0318477
0.0290534
0.0267994
0.0262542
0.0260657
0.0264335
0.0277856
0.0294265
0.0315165
0.0304925
0.0274832
0.0272423
0.0226959
0.0142497
0.00665848
0.0123094
0.0193146
0.0225484
0.0187424
0.00928771
-0.0147694
-0.0158378
-0.0154767
-0.0138783
-0.0116492
-0.00927438
-0.00696284
-0.00473418
-0.00253394
-0.000325279
0.00189606
0.00410423
0.00626957
0.00835095
0.0103631
0.0122435
0.0139864
0.01559
0.0170543
0.0184103
0.01967
0.0208824
0.0220455
0.0232122
0.0243521
0.0255173
0.0266531
0.0277895
0.0288698
0.0298654
0.0307983
0.0315299
0.0322316
0.03276
0.0334274
0.0341606
0.0347379
0.0350953
0.0350429
0.0339299
0.0316487
0.029579
0.0277687
0.0270419
0.0267657
0.0269059
0.0277286
0.0288736
0.03035
0.0296399
0.0276601
0.0274847
0.0234003
0.016347
0.00995695
0.013307
0.0184555
0.0205528
0.0159572
0.00805789
-0.0103265
-0.0113403
-0.0111818
-0.00997445
-0.00820891
-0.0062967
-0.00442319
-0.00261054
-0.000811332
0.00101082
0.00286451
0.00473438
0.00660089
0.00844265
0.0102109
0.011915
0.013533
0.0150607
0.0164863
0.0178323
0.0190977
0.0203206
0.0214907
0.0226484
0.0237674
0.0248866
0.0259691
0.0270321
0.0280508
0.0289845
0.0298761
0.0306092
0.0313133
0.0318936
0.0324881
0.0330857
0.0335358
0.0337381
0.0336005
0.0327805
0.0311534
0.0296149
0.0281897
0.0274188
0.0270802
0.0270778
0.0275137
0.0282327
0.0292228
0.028717
0.0271803
0.026696
0.0233073
0.0175418
0.0122799
0.0138714
0.0173728
0.018181
0.0134979
0.00664916
-0.00629063
-0.00725224
-0.00723937
-0.00633422
-0.00494077
-0.00340854
-0.0018995
-0.000435015
0.00102572
0.00251759
0.00405153
0.00561854
0.00720202
0.00878618
0.0103426
0.0118665
0.0133373
0.014754
0.0160988
0.0173888
0.0186155
0.0198068
0.0209507
0.0220731
0.0231568
0.0242215
0.0252516
0.0262465
0.0272063
0.0280853
0.0289281
0.0296486
0.0303279
0.0309112
0.0314454
0.0319333
0.0322855
0.0324017
0.0322388
0.0316339
0.030475
0.0293251
0.0282121
0.0274818
0.0270959
0.0269885
0.027161
0.0275162
0.0281042
0.0276961
0.0263129
0.0254646
0.0227451
0.0181016
0.0137791
0.0140965
0.0161076
0.0158957
0.0114176
0.00535561
-0.00266582
-0.00354596
-0.00362456
-0.00295463
-0.00186392
-0.000645139
0.000561609
0.00173589
0.00291232
0.00412441
0.00538393
0.00668504
0.00801388
0.00936242
0.0107095
0.0120492
0.0133606
0.0146447
0.0158815
0.0170835
0.0182395
0.0193678
0.0204588
0.0215244
0.022557
0.0235591
0.024532
0.025461
0.0263596
0.0271858
0.0279736
0.0286689
0.0293081
0.0298673
0.03035
0.0307567
0.0310393
0.0311149
0.0309624
0.0305153
0.0296849
0.0288223
0.0279527
0.0272965
0.0268856
0.0266864
0.0266807
0.0267481
0.0269757
0.0265899
0.025267
0.0241431
0.0219287
0.0182119
0.0146145
0.0140538
0.0148308
0.0138664
0.00968936
0.00428967
0.000606033
-0.000186923
-0.000326802
0.000158538
0.00100467
0.00196713
0.0029247
0.00385871
0.00479849
0.00577489
0.00679971
0.00787042
0.00897462
0.0101088
0.011258
0.0124166
0.0135653
0.0147054
0.0158185
0.0169119
0.0179754
0.0190188
0.0200363
0.0210285
0.0219954
0.0229278
0.0238355
0.0246981
0.0255319
0.026304
0.0270329
0.0276902
0.0282831
0.0288051
0.0292426
0.0295919
0.0298272
0.0298897
0.0297631
0.0294333
0.0288331
0.0281794
0.0274946
0.0269067
0.0265058
0.0262244
0.0260861
0.0259488
0.0258609
0.0254358
0.0241773
0.022879
0.020998
0.0180053
0.0149487
0.0138014
0.0136431
0.0121526
0.00828802
0.00346203
0.00354662
0.0028402
0.00266491
0.00300897
0.00365888
0.00441211
0.00516499
0.00590098
0.00664467
0.00742324
0.00824853
0.00912132
0.0100305
0.010974
0.0119381
0.012924
0.0139142
0.0149076
0.0158897
0.0168635
0.0178213
0.0187659
0.0196948
0.0206022
0.0214911
0.0223476
0.0231824
0.0239765
0.0247415
0.0254559
0.0261243
0.0267342
0.0272783
0.027758
0.0281551
0.0284636
0.0286661
0.0287287
0.0286328
0.0283895
0.0279524
0.0274453
0.026901
0.0263859
0.0259737
0.0256477
0.0253962
0.0251225
0.0247838
0.0242755
0.0231005
0.0217162
0.0200327
0.0175804
0.0149243
0.0133931
0.0125727
0.0107502
0.00716619
0.00284144
0.00618015
0.00556062
0.00536908
0.00560496
0.00609729
0.0066798
0.00726493
0.00783782
0.00841915
0.009033
0.0096897
0.0103921
0.0111319
0.0119048
0.0127035
0.0135297
0.0143706
0.0152221
0.016073
0.0169235
0.0177688
0.0186075
0.0194386
0.0202539
0.0210561
0.0218317
0.0225879
0.0233101
0.0240037
0.024656
0.0252627
0.0258202
0.0263141
0.0267507
0.0271093
0.0273867
0.0275655
0.0276317
0.0275656
0.0273832
0.0270617
0.0266565
0.0262177
0.0257616
0.0253585
0.0249894
0.0246326
0.0242678
0.0237589
0.0231451
0.0220526
0.020655
0.019078
0.0170079
0.0146568
0.0128839
0.0116265
0.00961989
0.00627669
0.00238218
0.00853537
0.00799807
0.00780252
0.00795562
0.00832162
0.00876497
0.0092127
0.00965206
0.0100999
0.0105772
0.0110931
0.0116499
0.0122431
0.0128696
0.0135224
0.0142023
0.0149032
0.0156208
0.0163453
0.0170746
0.0178061
0.0185368
0.019266
0.0199856
0.0206964
0.0213874
0.0220615
0.0227088
0.0233292
0.023916
0.0244605
0.024963
0.0254068
0.0257993
0.0261203
0.0263704
0.0265308
0.0265978
0.0265576
0.0264154
0.0261739
0.0258405
0.0254753
0.0250644
0.0246617
0.0242698
0.0238329
0.0233932
0.0227833
0.0220699
0.0210365
0.019679
0.018159
0.0163391
0.0142335
0.0123273
0.0107891
0.00870378
0.00557507
0.00204186
0.0106342
0.0101726
0.00998142
0.0100717
0.0103367
0.0106671
0.0110028
0.011333
0.0116716
0.0120358
0.0124341
0.0128685
0.0133357
0.0138346
0.0143608
0.0149124
0.0154856
0.0160782
0.0166836
0.0172979
0.0179187
0.0185434
0.0191708
0.0197941
0.0204123
0.0210171
0.0216077
0.0221784
0.0227249
0.0232447
0.0237264
0.0241708
0.0245657
0.0249138
0.025198
0.0254201
0.0255645
0.0256274
0.0256056
0.0254886
0.0252991
0.025016
0.0246963
0.0243219
0.0239157
0.0235084
0.0230178
0.0225135
0.0218491
0.0210628
0.0200577
0.0187658
0.0172892
0.0156198
0.0137142
0.0117606
0.0100415
0.00795025
0.00502485
0.00178881
0.0124967
0.0121041
0.0119228
0.0119659
0.0121503
0.012389
0.0126333
0.0128744
0.0131234
0.0133948
0.0136955
0.0140273
0.0143882
0.014777
0.0151918
0.0156321
0.0160935
0.0165732
0.0170678
0.0175746
0.0180911
0.0186147
0.0191436
0.019673
0.0202
0.0207192
0.0212273
0.021721
0.0221942
0.0226467
0.0230661
0.0234554
0.0237973
0.0240999
0.0243475
0.0245396
0.0246675
0.024721
0.0247079
0.0246061
0.0244458
0.0241983
0.0239036
0.0235558
0.0231465
0.0227243
0.0222028
0.0216464
0.0209516
0.0201237
0.019126
0.0178984
0.016474
0.0148915
0.0131391