/*--------------------------------*- C++ -*----------------------------------*\
| =========                 |                                                 |
| \\      /  F ield         | OpenFOAM: The Open Source CFD Toolbox           |
|  \\    /   O peration     | Version:  2312                                  |
|   \\  /    A nd           | Website:  www.openfoam.com                      |
|    \\/     M anipulation  |                                                 |
\*---------------------------------------------------------------------------*/
FoamFile
{
    version     2.0;
    format      ascii;
    arch        "LSB;label=32;scalar=64";
    class       volVectorField;
    location    "98";
    object      U;
}
// * * * * * * * * * * * * * * * * * * * * * * * * * * * * * * * * * * * * * //

dimensions      [0 1 -1 0 0 0 0];

internalField   nonuniform List<vector> 
5478
(
(-0.0306855 0.0164 -7.06325e-20)
(-0.0591245 0.0221392 0)
(-0.0545937 0.0160025 1.0746e-19)
(0.00319369 0.00954618 -1.87228e-19)
(0.127632 0.00619765 1.20021e-19)
(0.313839 0.0089262 -3.75958e-20)
(0.535577 0.0194691 -5.88292e-20)
(0.760833 0.0354608 0)
(0.961675 0.0547851 0)
(1.12265 0.0697528 6.4765e-20)
(1.23553 0.0801873 -3.0538e-20)
(1.29357 0.0831862 -4.87641e-20)
(1.32021 0.0661795 -1.95358e-20)
(1.29725 0.0662386 0)
(1.26959 0.0180957 5.55859e-20)
(-0.0395433 0.0234412 1.41802e-19)
(-0.0526539 0.0313715 0)
(-0.000806808 0.0240805 0)
(0.134948 0.0182185 -9.37709e-20)
(0.352983 0.0226492 1.2318e-19)
(0.61198 0.0383648 3.4253e-20)
(0.859962 0.0602688 -5.58659e-20)
(1.06008 0.0821737 4.95323e-20)
(1.19664 0.097522 1.15534e-19)
(1.2702 0.104016 -1.00164e-19)
(1.29116 0.102012 9.63226e-22)
(1.28474 0.0889214 0)
(1.26254 0.0787839 1.95026e-20)
(1.24729 0.0614417 0)
(1.25699 0.0447028 0)
(-0.0414591 0.0223169 -3.48371e-22)
(-0.0248076 0.0266505 -6.6126e-20)
(0.098103 0.0222299 2.39194e-22)
(0.335131 0.0302329 0)
(0.631818 0.0548082 -4.11759e-20)
(0.906313 0.0855389 3.44296e-20)
(1.10821 0.111489 2.84203e-20)
(1.22563 0.126041 0)
(1.27253 0.128674 -3.90623e-20)
(1.27534 0.122828 3.21748e-20)
(1.26383 0.111067 2.6565e-20)
(1.2525 0.102383 0)
(1.25054 0.0882424 0)
(1.2518 0.0809679 -5.58632e-20)
(1.23885 0.0631391 4.97364e-20)
(-0.0353633 0.0160735 -7.71677e-20)
(0.0344193 0.0134768 6.53078e-20)
(0.25988 0.0231281 -5.63828e-20)
(0.591038 0.0594884 4.93378e-20)
(0.902231 0.104131 8.2461e-20)
(1.11832 0.138044 -6.84888e-20)
(1.23123 0.154179 -2.84016e-20)
(1.26963 0.1552 2.14895e-20)
(1.27134 0.148041 -2.08397e-20)
(1.26443 0.137472 0)
(1.25776 0.128925 0)
(1.25146 0.116247 -3.87575e-20)
(1.24033 0.107164 5.02449e-20)
(1.22141 0.0940026 -2.81993e-20)
(1.21084 0.079682 0)
(-0.0183618 0.00780941 3.90652e-20)
(0.138022 0.0035261 3.26959e-20)
(0.48104 0.046461 -1.17632e-19)
(0.843738 0.11066 1.57392e-21)
(1.09554 0.158952 -1.40361e-21)
(1.22323 0.18138 -1.19801e-21)
(1.26758 0.184277 2.70576e-20)
(1.27348 0.177632 2.2597e-20)
(1.267 0.167564 1.59778e-20)
(1.25574 0.157428 -2.80081e-21)
(1.24166 0.144784 -3.59906e-20)
(1.22625 0.133868 0)
(1.21351 0.121874 1.59154e-20)
(1.20785 0.108684 -1.17885e-20)
(1.20107 0.099727 2.10718e-20)
(0.0153241 -0.000380197 -8.44596e-20)
(0.293055 0.0122465 9.11178e-20)
(0.714313 0.0970215 -3.12828e-20)
(1.03425 0.17033 2.33673e-20)
(1.2018 0.20688 -4.32253e-20)
(1.26421 0.215831 -3.17437e-20)
(1.27539 0.211006 1.032e-21)
(1.2667 0.200668 0)
(1.2514 0.188651 3.24852e-20)
(1.23585 0.175267 -2.88883e-20)
(1.22314 0.163301 1.13429e-20)
(1.21373 0.150433 0)
(1.20473 0.138706 6.70635e-21)
(1.19149 0.126753 -1.18698e-20)
(1.17822 0.116586 0)
(0.0716262 -0.00327457 -1.05247e-20)
(0.481585 0.0522759 1.0425e-21)
(0.907277 0.162936 1.51707e-20)
(1.15348 0.228366 2.5651e-20)
(1.25247 0.250162 -1.94356e-20)
(1.27411 0.248725 3.25104e-20)
(1.26522 0.237866 -7.39501e-21)
(1.24871 0.224084 0)
(1.23311 0.209552 -1.89425e-20)
(1.21957 0.195871 1.45541e-21)
(1.20656 0.181673 1.54284e-20)
(1.193 0.168558 0)
(1.18035 0.155658 -9.69135e-21)
(1.17201 0.141889 0)
(1.16456 0.134009 5.72194e-21)
(0.150583 0.00673454 -1.17726e-20)
(0.662283 0.120075 0)
(1.04474 0.234911 1.61809e-20)
(1.21876 0.284869 0)
(1.267 0.291941 0)
(1.26348 0.281138 0)
(1.24635 0.265336 -6.19195e-21)
(1.2284 0.248606 0)
(1.21159 0.2322 3.82011e-21)
(1.19612 0.215739 0)
(1.18306 0.200378 -4.75547e-21)
(1.17312 0.185319 0)
(1.16466 0.171142 2.98129e-21)
(1.15442 0.158685 0)
(1.14363 0.148248 1.86756e-21)
(-0.00267435 -0.148258 -1.20021e-20)
(-0.0331146 -0.206338 0)
(-0.0841451 -0.185251 1.88394e-20)
(-0.136964 -0.147272 0)
(-0.187868 -0.10355 0)
(-0.23533 -0.0496459 0)
(-0.276295 0.0180193 -1.19253e-20)
(-0.309791 0.100511 0)
(-0.334982 0.195138 9.35486e-21)
(-0.348811 0.2979 0)
(-0.349317 0.401886 -1.41459e-20)
(-0.335131 0.499135 0)
(-0.304835 0.581762 1.04084e-20)
(-0.25911 0.637954 0)
(-0.174513 0.65863 7.74686e-21)
(0.00558914 -0.117479 5.78906e-20)
(-0.0224731 -0.153829 -3.99725e-20)
(-0.0740053 -0.125154 1.55693e-20)
(-0.12803 -0.0851434 6.18201e-20)
(-0.179542 -0.0435417 3.59068e-23)
(-0.225992 0.00455769 -4.94553e-20)
(-0.26504 0.0625001 3.37994e-20)
(-0.294231 0.129884 0)
(-0.310801 0.205809 2.38189e-20)
(-0.311969 0.286435 -8.82284e-22)
(-0.294677 0.366217 -1.13388e-20)
(-0.256078 0.436855 0)
(-0.195539 0.487792 -2.73329e-20)
(-0.121769 0.519288 0)
(0.00795472 0.517407 -3.76305e-20)
(0.0114407 -0.0883794 8.48572e-20)
(-0.0113018 -0.107118 1.83993e-20)
(-0.0562118 -0.0722012 -3.4327e-20)
(-0.102482 -0.0298791 -8.72562e-20)
(-0.144463 0.00922543 5.04183e-20)
(-0.179045 0.0497859 4.3202e-20)
(-0.203471 0.0955619 -7.40162e-20)
(-0.21511 0.147195 0)
(-0.211078 0.203356 -5.45749e-20)
(-0.188125 0.261169 4.85216e-20)
(-0.145023 0.314624 1.86835e-20)
(-0.080537 0.360257 0)
(0.0177806 0.389386 1.6918e-20)
(0.101662 0.40072 -2.67105e-20)
(0.277492 0.350764 0)
(0.0147814 -0.065416 3.86487e-20)
(-0.00299687 -0.0725907 -1.06413e-19)
(-0.0397039 -0.0346285 1.22378e-19)
(-0.0745549 0.00928439 -1.05212e-19)
(-0.101736 0.046454 -4.44471e-20)
(-0.11836 0.0796813 3.79803e-20)
(-0.12203 0.1135 3.5724e-20)
(-0.110522 0.149605 2.7064e-20)
(-0.0816098 0.187041 -6.9345e-20)
(-0.0346528 0.223202 2.11803e-21)
(0.0389181 0.256813 1.64036e-20)
(0.10953 0.277752 0)
(0.254574 0.281578 2.49566e-20)
(0.314475 0.298122 7.79287e-20)
(0.538616 0.217571 -4.55947e-20)
(0.0150758 -0.0482678 -1.05167e-21)
(-0.00115774 -0.050357 6.52887e-20)
(-0.0330467 -0.0158982 -5.68012e-20)
(-0.0587181 0.0249597 5.16306e-20)
(-0.0720654 0.0584958 8.63365e-20)
(-0.0710926 0.0845068 -7.34282e-20)
(-0.0546268 0.107087 -2.96941e-20)
(-0.0217786 0.128531 -7.67719e-20)
(0.0288026 0.150628 6.67852e-20)
(0.094956 0.165578 0)
(0.193987 0.186304 0)
(0.272551 0.189873 5.29658e-20)
(0.458424 0.178969 -1.20857e-19)
(0.50721 0.187135 4.34467e-20)
(0.785477 0.112021 0)
(0.0105685 -0.033362 -8.73724e-23)
(-0.00936831 -0.0348146 -6.50975e-20)
(-0.0413687 -0.0107424 1.67854e-19)
(-0.062783 0.0195197 -4.85064e-20)
(-0.0674023 0.0437987 -4.19214e-20)
(-0.0529786 0.0604497 3.54758e-20)
(-0.0184108 0.0727812 2.97112e-20)
(0.0380224 0.082534 4.59477e-20)
(0.118331 0.0922296 -7.95781e-20)
(0.224393 0.0968854 3.25161e-20)
(0.353447 0.106086 2.78299e-20)
(0.494168 0.101266 0)
(0.68883 0.0955736 0)
(0.799308 0.0846128 8.72888e-20)
(1.07474 0.0427472 -7.75221e-20)
(-0.000480887 -0.0169862 -4.17499e-22)
(-0.0281686 -0.0183335 0)
(-0.0613768 -0.00787484 0)
(-0.0778065 0.00682599 9.16416e-20)
(-0.0690305 0.017934 -4.12854e-20)
(-0.0288292 0.0247273 3.33582e-20)
(0.0469682 0.0289519 5.37981e-20)
(0.157779 0.0328366 -4.77009e-20)
(0.301151 0.0359004 3.88194e-20)
(0.467516 0.0453086 -3.2546e-20)
(0.642322 0.0470823 3.74925e-23)
(0.835892 0.0538338 0)
(0.998803 0.0524555 2.17299e-20)
(1.16051 0.0397685 0)
(1.31211 0.0262689 0)
(-0.0161358 0.00126886 -6.9624e-20)
(-0.0490076 0.00239235 0)
(-0.0730451 0.00143002 -1.06399e-19)
(-0.0662975 0.00243409 1.85013e-19)
(-0.0156848 0.00300305 -1.97706e-19)
(0.0861175 0.00343733 -3.00316e-20)
(0.236318 0.00583889 5.76401e-20)
(0.420389 0.012782 0)
(0.622386 0.0228563 0)
(0.816964 0.0390778 -6.44769e-20)
(1.0015 0.0460611 -2.60864e-20)
(1.15129 0.0633734 4.94855e-20)
(1.2596 0.0525849 -2.17668e-20)
(1.3478 0.052537 0)
(1.34827 0.0297991 -6.57412e-20)
(-0.105747 0.669991 0)
(0.165156 0.428227 4.40188e-21)
(0.444056 0.00571002 -4.06862e-21)
(0.704595 -0.429942 0)
(0.767604 -0.693959 0)
(0.776439 -0.683508 -9.2206e-23)
(0.755637 -0.634207 0)
(0.584515 -0.670689 0)
(0.507905 -0.46521 6.07537e-23)
(0.641879 -0.0305744 0)
(0.829653 0.273314 0)
(0.901654 0.408806 -9.79484e-23)
(0.888734 0.529846 0)
(0.871906 0.589674 -6.87757e-23)
(0.876914 0.41938 -5.69222e-23)
(0.923816 0.171178 0)
(0.988126 -0.159036 -5.99111e-22)
(1.0145 -0.465937 7.13906e-22)
(1.04449 -0.534237 0)
(1.01102 -0.42587 4.11114e-22)
(1.04306 -0.0543609 -5.07844e-22)
(1.07797 0.389555 9.80826e-23)
(1.08396 0.496251 -1.97493e-22)
(1.1084 0.429417 1.88708e-22)
(1.17528 -0.00417801 -2.04645e-22)
(1.07173 -0.627582 0)
(1.10329 -0.4309 -1.75128e-22)
(1.13427 0.375208 1.67456e-22)
(1.01716 0.43234 -1.13401e-22)
(0.939091 -0.101726 0)
(0.934926 -0.182675 -6.71831e-23)
(0.998011 0.0452678 0)
(0.93295 0.100068 -2.41314e-23)
(0.88165 -0.0792627 -1.39596e-23)
(0.977535 0.0027921 -5.81486e-26)
(0.97537 0.067687 -3.17609e-24)
(0.898722 -0.0173152 0)
(0.846009 -0.0069802 -6.93913e-25)
(0.137484 0.528826 1.37959e-20)
(0.410047 0.265551 -1.36567e-22)
(0.669444 -0.16273 -1.66625e-20)
(0.874068 -0.53354 1.58899e-20)
(0.895002 -0.720892 0)
(0.832713 -0.68641 9.29181e-23)
(0.796518 -0.595374 -1.36956e-22)
(0.652159 -0.607145 0)
(0.526099 -0.473238 -6.12062e-23)
(0.611426 -0.117657 0)
(0.799681 0.203285 0)
(0.881744 0.380086 9.86537e-23)
(0.8517 0.520627 0)
(0.812974 0.583977 2.11981e-21)
(0.835611 0.407897 -1.78589e-21)
(0.9192 0.152371 2.25568e-21)
(1.01678 -0.1716 -2.15302e-21)
(1.03473 -0.474563 -1.42757e-22)
(1.06553 -0.537003 0)
(1.02694 -0.425544 0)
(1.03093 -0.0661622 -1.11949e-22)
(1.06739 0.376389 9.89008e-22)
(1.06421 0.485196 -1.5633e-21)
(1.09327 0.419874 6.99468e-22)
(1.1934 0.00268515 5.42108e-22)
(1.08052 -0.612651 0)
(1.08001 -0.44223 3.90909e-22)
(1.12354 0.378577 0)
(1.02567 0.445022 1.13803e-22)
(0.95316 -0.0921987 -2.37156e-22)
(0.943149 -0.189827 3.66903e-22)
(1.00518 0.0445181 -2.47579e-23)
(0.938308 0.10959 4.31416e-23)
(0.87629 -0.081756 9.42043e-24)
(0.977949 -0.00472238 8.69802e-24)
(0.980809 0.0727638 -3.89399e-24)
(0.907203 -0.00961602 -5.99035e-25)
(0.856235 -0.00429474 9.58258e-25)
(0.405343 0.366907 3.25213e-20)
(0.65291 0.160372 -6.81495e-20)
(0.896136 -0.237628 1.95262e-21)
(1.04028 -0.558664 3.23692e-20)
(1.01609 -0.697968 3.03158e-22)
(0.903512 -0.659283 -1.90766e-22)
(0.841639 -0.554611 1.39306e-22)
(0.727509 -0.55332 -2.13713e-22)
(0.606179 -0.477184 0)
(0.637658 -0.20105 4.98924e-21)
(0.783504 0.132769 -4.75929e-21)
(0.854696 0.382951 -1.8072e-22)
(0.816625 0.552473 0)
(0.769391 0.594892 -4.12774e-21)
(0.805987 0.397399 3.82238e-21)
(0.917606 0.133895 -2.22621e-21)
(1.04282 -0.171934 2.124e-21)
(1.05176 -0.469662 2.35518e-21)
(1.07688 -0.538082 -1.98675e-21)
(1.03965 -0.426503 0)
(1.01395 -0.0803909 0)
(1.05314 0.365197 1.76789e-21)
(1.04285 0.478894 -1.68781e-21)
(1.07015 0.411118 -1.25248e-21)
(1.1994 0.0140452 -2.25476e-22)
(1.08619 -0.586203 1.29525e-21)
(1.04571 -0.454356 2.90075e-23)
(1.10825 0.376296 -9.16648e-22)
(1.0332 0.460021 1.23095e-21)
(0.964386 -0.0772531 -1.04392e-21)
(0.949119 -0.195429 3.83075e-23)
(1.00965 0.0432759 -1.06553e-22)
(0.942456 0.120117 4.24098e-23)
(0.869469 -0.0832669 -4.05487e-23)
(0.975047 -0.0131622 -1.67316e-24)
(0.98456 0.0771668 -6.82118e-24)
(0.914144 -0.00216515 1.87283e-23)
(0.865617 -0.00171903 5.19387e-25)
(0.627967 0.22636 0)
(0.848035 0.0605282 3.41721e-20)
(1.09643 -0.286288 -3.35876e-20)
(1.19537 -0.550523 0)
(1.13618 -0.644138 -3.11575e-22)
(0.986327 -0.617882 1.96e-22)
(0.900871 -0.514296 0)
(0.792853 -0.502389 8.28864e-24)
(0.696383 -0.477613 -1.67509e-22)
(0.709307 -0.269149 0)
(0.812169 0.0624045 -5.27733e-21)
(0.88201 0.334991 5.21762e-21)
(0.79836 0.534057 -3.50209e-22)
(0.716312 0.592011 -4.25499e-21)
(0.776053 0.383324 4.05687e-21)
(0.916097 0.112636 2.60392e-22)
(1.06127 -0.174271 0)
(1.06907 -0.462369 -2.79246e-22)
(1.08344 -0.53958 3.84858e-21)
(1.04868 -0.427753 5.50244e-22)
(0.997927 -0.100079 4.63669e-22)
(1.03532 0.339838 -3.73771e-21)
(1.01357 0.464901 -2.15086e-21)
(1.037 0.399969 2.61582e-21)
(1.19141 0.0262037 -2.79578e-22)
(1.09051 -0.557387 0)
(1.00582 -0.466152 -4.29479e-22)
(1.08475 0.360827 9.28754e-22)
(1.03333 0.468319 -1.21798e-21)
(0.970965 -0.0621072 1.02869e-21)
(0.952854 -0.200868 -1.65195e-22)
(1.0115 0.0407244 0)
(0.945299 0.13121 -4.58444e-23)
(0.862166 -0.0837615 1.11364e-22)
(0.969495 -0.0224964 2.16904e-23)
(0.986741 0.0807496 1.55981e-23)
(0.919582 0.00494918 -1.87414e-23)
(0.874138 0.000705246 8.53209e-25)
(0.843126 0.116415 3.55109e-22)
(1.04525 -0.0292528 9.19672e-22)
(1.27684 -0.31649 0)
(1.29923 -0.514647 0)
(1.1964 -0.568384 0)
(1.04097 -0.561745 0)
(0.949622 -0.475373 7.7219e-21)
(0.859971 -0.45128 -1.37523e-20)
(0.754313 -0.475482 6.40193e-21)
(0.783024 -0.344717 0)
(0.874307 -0.0201733 -5.25511e-21)
(0.885855 0.342353 5.15086e-21)
(0.756862 0.587691 5.71913e-21)
(0.689273 0.609813 -4.80648e-21)
(0.775671 0.364753 4.36664e-21)
(0.926682 0.0853571 -4.42843e-21)
(1.07636 -0.171463 -2.73459e-22)
(1.08498 -0.443839 -4.09349e-21)
(1.08471 -0.537257 3.90024e-21)
(1.05105 -0.429899 4.95058e-22)
(0.974766 -0.119756 6.11946e-22)
(1.01109 0.325336 3.13393e-21)
(0.987623 0.462007 -3.53189e-21)
(1.00501 0.391729 -4.66588e-22)
(1.17394 0.0408156 -1.82168e-22)
(1.09184 -0.522459 -2.22693e-22)
(0.960074 -0.478147 0)
(1.05807 0.343074 0)
(1.03398 0.479787 0)
(0.975071 -0.0419523 0)
(0.955057 -0.204366 4.29042e-22)
(1.0113 0.037566 -2.49376e-22)
(0.947086 0.142912 1.00359e-22)
(0.855452 -0.0830389 -3.08589e-22)
(0.96223 -0.0324956 2.38354e-23)
(0.987616 0.0834845 4.56043e-24)
(0.92361 0.0116674 -2.15773e-23)
(0.881817 0.00294952 -2.273e-24)
(1.11456 0.0276399 -3.73692e-22)
(1.27158 -0.0919929 5.399e-20)
(1.40608 -0.297182 -5.18293e-20)
(1.35296 -0.432995 -4.16426e-20)
(1.21904 -0.479768 3.9657e-20)
(1.08349 -0.505136 2.20892e-20)
(0.973442 -0.447444 -2.05724e-20)
(0.920511 -0.398873 2.15742e-22)
(0.805559 -0.454895 -1.78837e-22)
(0.787696 -0.407058 0)
(0.901226 -0.0942297 -1.56338e-22)
(0.909375 0.289502 1.29583e-20)
(0.757624 0.567426 -1.23392e-20)
(0.662964 0.625378 -3.10919e-22)
(0.770548 0.371895 0)
(0.938806 0.0822582 -4.85325e-21)
(1.09021 -0.160993 9.00335e-21)
(1.09876 -0.422093 -3.91034e-21)
(1.08205 -0.532321 0)
(1.04605 -0.432115 4.22053e-21)
(0.9522 -0.144486 -4.87952e-23)
(0.982839 0.288042 -4.8441e-21)
(0.952155 0.447077 -2.56524e-21)
(0.967462 0.385106 2.33769e-21)
(1.14861 0.056726 -1.4654e-21)
(1.0881 -0.485549 -1.29886e-21)
(0.91749 -0.487248 3.12505e-21)
(1.02449 0.309221 -2.97829e-21)
(1.02571 0.484121 2.83252e-21)
(0.973805 -0.0222846 -4.43316e-22)
(0.955658 -0.207692 4.2149e-22)
(1.00917 0.0327074 0)
(0.947635 0.154664 1.11075e-22)
(0.850172 -0.0812525 -7.70183e-24)
(0.954255 -0.0430364 0)
(0.987565 0.085333 -1.77846e-23)
(0.9264 0.0179896 1.5835e-23)
(0.888695 0.00499171 -2.4644e-25)
(1.33187 -0.0148435 0)
(1.4123 -0.101758 0)
(1.42724 -0.24065 -1.63072e-22)
(1.34527 -0.344528 0)
(1.22321 -0.39489 0)
(1.11946 -0.443594 2.24864e-20)
(0.998851 -0.426333 -2.14035e-20)
(0.952086 -0.364794 1.31734e-20)
(0.879395 -0.404275 -1.25529e-20)
(0.766079 -0.456862 0)
(0.879738 -0.209068 -2.06431e-22)
(0.935796 0.263951 2.45804e-22)
(0.749883 0.610703 -1.20798e-20)
(0.679346 0.635791 8.02833e-22)
(0.802632 0.347534 9.97221e-21)
(0.963662 0.0546617 1.51735e-22)
(1.10325 -0.158543 -1.36345e-22)
(1.10895 -0.396655 7.49119e-21)
(1.07629 -0.519907 -7.36215e-21)
(1.03502 -0.435452 0)
(0.921413 -0.166722 0)
(0.949413 0.271698 -3.12593e-22)
(0.921998 0.446759 0)
(0.940835 0.378873 1.44862e-21)
(1.1273 0.0704582 -1.33037e-23)
(1.07838 -0.442472 -1.0665e-21)
(0.88074 -0.49819 -4.96982e-21)
(0.992622 0.277768 3.32536e-21)
(1.02 0.491654 -2.371e-22)
(0.971872 -0.00193634 0)
(0.956049 -0.209612 -2.93627e-22)
(1.00602 0.0276767 2.78419e-22)
(0.947395 0.166524 6.99167e-23)
(0.847168 -0.0784755 3.89476e-24)
(0.946533 -0.0538189 -5.05798e-23)
(0.987018 0.0864444 1.14264e-23)
(0.928214 0.0238996 0)
(0.89482 0.00679063 2.7924e-24)
(1.35442 -0.0158272 4.03059e-20)
(1.37718 -0.0603142 4.15706e-20)
(1.35364 -0.152926 5.42373e-22)
(1.30348 -0.251519 -7.38043e-20)
(1.22624 -0.317795 3.40869e-20)
(1.1463 -0.384355 -2.08185e-22)
(1.03931 -0.400614 0)
(0.96717 -0.356613 -1.21746e-22)
(0.944957 -0.357286 -9.41479e-23)
(0.791952 -0.435291 0)
(0.790372 -0.323261 -1.62247e-20)
(0.874273 0.129953 1.53132e-20)
(0.744624 0.550924 2.10718e-22)
(0.668733 0.661634 1.11263e-20)
(0.779386 0.402976 -1.05744e-20)
(0.970387 0.0850067 1.52674e-22)
(1.11845 -0.130066 1.4474e-22)
(1.12171 -0.360094 0)
(1.07141 -0.504353 7.62531e-21)
(1.0217 -0.43177 -7.22709e-21)
(0.892852 -0.198836 -5.64281e-21)
(0.905962 0.218017 1.51626e-21)
(0.885879 0.42557 3.92525e-21)
(0.904487 0.377084 -1.35735e-21)
(1.11238 0.0949585 3.55757e-22)
(1.06586 -0.394956 3.39423e-21)
(0.859673 -0.506082 -1.7815e-21)
(0.956236 0.228501 3.43477e-21)
(1.00699 0.49066 -2.54097e-21)
(0.96529 0.0250553 0)
(0.95626 -0.209178 0)
(1.00214 0.0201003 0)
(0.946394 0.177801 6.71855e-23)
(0.84674 -0.0740628 -7.32289e-23)
(0.939699 -0.0650237 1.46715e-23)
(0.986518 0.0867326 -4.21231e-24)
(0.929413 0.0295146 -9.08029e-24)
(0.900259 0.00837892 0)
(1.28786 -0.0104824 0)
(1.30593 -0.0455426 0)
(1.30229 -0.107365 0)
(1.27397 -0.185313 0)
(1.22032 -0.226234 0)
(1.16416 -0.278679 0)
(1.08339 -0.318198 0)
(0.989461 -0.298706 0)
(1.00043 -0.283187 0)
(0.86114 -0.395567 0)
(0.704005 -0.385013 0)
(0.790769 0.0606098 0)
(0.727665 0.551903 0)
(0.668831 0.658925 0)
(0.857579 0.350669 0)
(1.02444 0.0421286 0)
(1.13952 -0.11768 0)
(1.13438 -0.309267 0)
(1.06882 -0.487115 0)
(0.99643 -0.449313 0)
(0.869222 -0.212365 0)
(0.86578 0.204001 0)
(0.836148 0.426862 0)
(0.88173 0.368569 0)
(1.13176 0.103631 0)
(1.05603 -0.364787 0)
(0.838647 -0.508584 0)
(0.922578 0.186184 0)
(0.993033 0.498303 0)
(0.95863 0.0405859 0)
(0.956467 -0.208588 0)
(0.996421 0.0150284 0)
(0.94283 0.191628 0)
(0.849163 -0.0693597 0)
(0.932327 -0.0769758 0)
(0.985291 0.086599 0)
(0.930334 0.0356773 0)
(0.906172 0.0100614 0)
(1.23808 -0.0137776 0)
(1.25372 -0.0556611 0)
(1.24991 -0.12063 0)
(1.21417 -0.170368 0)
(1.16907 -0.223392 0)
(1.10515 -0.28813 0)
(1.043 -0.275402 0)
(0.939541 -0.294032 0)
(0.902879 -0.311929 0)
(0.840589 -0.303494 0)
(0.664547 -0.276613 0)
(0.652721 0.117316 0)
(0.600202 0.600364 0)
(0.697424 0.601045 0)
(0.962435 0.249625 0)
(1.09561 -0.0295414 0)
(1.17251 -0.172617 0)
(1.12951 -0.335939 0)
(1.03381 -0.456326 0)
(0.926164 -0.370835 0)
(0.797546 -0.149709 0)
(0.795321 0.235401 0)
(0.757161 0.428784 0)
(0.87014 0.308227 0)
(1.14228 0.0462162 0)
(1.02878 -0.328798 0)
(0.785133 -0.464853 0)
(0.892006 0.18771 0)
(0.965634 0.492438 0)
(0.956329 0.0341616 0)
(0.963691 -0.212298 0)
(0.990284 0.0192087 0)
(0.936271 0.208349 0)
(0.858634 -0.0684522 0)
(0.930278 -0.0916057 0)
(0.986879 0.0874597 0)
(0.932786 0.042553 0)
(0.912956 0.0113912 0)
(1.19867 -0.0160697 0)
(1.21222 -0.0492047 0)
(1.20705 -0.0877318 0)
(1.17382 -0.139591 0)
(1.15474 -0.153464 0)
(1.09344 -0.19871 0)
(1.04238 -0.206628 0)
(1.00216 -0.185956 0)
(0.926235 -0.214745 0)
(0.833967 -0.221436 0)
(0.691495 -0.213225 0)
(0.579597 0.12528 0)
(0.573204 0.55128 0)
(0.844364 0.469344 0)
(1.1007 0.146558 0)
(1.15982 -0.0744005 0)
(1.17792 -0.146753 0)
(1.13373 -0.253691 0)
(1.01941 -0.394833 0)
(0.853334 -0.337181 0)
(0.694488 -0.134372 0)
(0.695681 0.235231 0)
(0.692713 0.392694 0)
(0.871502 0.238068 0)
(1.14891 0.0415381 0)
(1.0356 -0.268239 0)
(0.739119 -0.448306 0)
(0.850431 0.150308 0)
(0.934985 0.47111 0)
(0.962365 0.0378569 0)
(0.970514 -0.213205 0)
(0.97971 0.0194085 0)
(0.927863 0.221873 0)
(0.873294 -0.0665339 0)
(0.932858 -0.106454 0)
(0.990496 0.0878541 0)
(0.936476 0.0497391 0)
(0.919653 0.0126393 0)
(1.16525 -0.0126655 0)
(1.16904 -0.0435315 0)
(1.1683 -0.0767096 0)
(1.14037 -0.111664 0)
(1.11166 -0.133715 0)
(1.07408 -0.171554 0)
(1.01824 -0.179585 0)
(0.975894 -0.174454 0)
(0.933132 -0.195845 0)
(0.857767 -0.152046 0)
(0.765149 -0.105027 0)
(0.658871 0.154888 0)
(0.732512 0.41982 0)
(1.0176 0.284564 0)
(1.18688 0.0707666 0)
(1.19212 -0.0650115 0)
(1.15329 -0.150809 0)
(1.09116 -0.254611 0)
(0.979407 -0.324845 0)
(0.776463 -0.228184 0)
(0.59135 -0.0691608 0)
(0.584132 0.240497 0)
(0.66575 0.340788 0)
(0.878104 0.140182 0)
(1.13267 -0.0104432 0)
(1.03436 -0.202282 0)
(0.701321 -0.383493 0)
(0.775823 0.123575 0)
(0.898029 0.443393 0)
(0.979509 0.0245915 0)
(0.981317 -0.214098 0)
(0.968457 0.0250388 0)
(0.921885 0.235845 0)
(0.894217 -0.0665021 0)
(0.940908 -0.122303 0)
(0.998865 0.088342 0)
(0.944139 0.0576518 0)
(0.927445 0.0136511 0)
(1.1322 -0.0123932 0)
(1.13651 -0.0374021 0)
(1.13242 -0.0593864 0)
(1.11272 -0.089514 0)
(1.09078 -0.101051 0)
(1.06179 -0.124773 0)
(1.02252 -0.127539 0)
(0.988265 -0.111953 0)
(0.950726 -0.12971 0)
(0.882696 -0.0780614 0)
(0.828469 -0.0471511 0)
(0.790692 0.1214 0)
(0.906809 0.281757 0)
(1.10509 0.179546 0)
(1.18117 0.0358927 0)
(1.16097 -0.0662314 0)
(1.12975 -0.10227 0)
(1.0822 -0.170563 0)
(0.985176 -0.237822 0)
(0.779558 -0.136479 0)
(0.618736 -0.0220468 0)
(0.591298 0.200987 0)
(0.734342 0.248739 0)
(0.910663 0.0515841 0)
(1.10963 -0.0254146 0)
(1.05482 -0.130249 0)
(0.716672 -0.326723 0)
(0.697011 0.0855348 0)
(0.88141 0.402327 0)
(1.01622 0.0141036 0)
(0.994176 -0.208053 0)
(0.95477 0.0303526 0)
(0.919051 0.245052 0)
(0.920818 -0.0674062 0)
(0.952118 -0.137438 0)
(1.01107 0.0883251 0)
(0.954939 0.0664583 0)
(0.936265 0.0150618 0)
(1.10625 -0.00961436 0)
(1.10816 -0.0296375 0)
(1.10602 -0.0453162 0)
(1.09044 -0.066578 0)
(1.07232 -0.0762807 0)
(1.05052 -0.0922766 0)
(1.01616 -0.0969737 0)
(0.993338 -0.0850986 0)
(0.962666 -0.0980862 0)
(0.921647 -0.0431215 0)
(0.897776 -0.0223951 0)
(0.888109 0.082187 0)
(0.97878 0.176148 0)
(1.09503 0.0941639 0)
(1.14439 0.0357922 0)
(1.1217 -0.0321892 0)
(1.08642 -0.095318 0)
(1.04009 -0.158179 0)
(0.969672 -0.174106 0)
(0.824275 -0.0385698 0)
(0.737144 0.0322295 0)
(0.728529 0.168678 0)
(0.891378 0.18624 0)
(0.981046 -0.0179231 0)
(1.07444 -0.0718933 0)
(1.06367 -0.0626835 0)
(0.789863 -0.226602 0)
(0.653555 0.0550075 0)
(0.883133 0.330581 0)
(1.05787 -0.0110705 0)
(1.00477 -0.191266 0)
(0.920672 0.0450322 0)
(0.907855 0.248361 0)
(0.954647 -0.0737977 0)
(0.965073 -0.152158 0)
(1.02003 0.0895588 0)
(0.967109 0.0764452 0)
(0.947418 0.0165018 0)
(1.0853 -0.00640951 0)
(1.08636 -0.0227366 0)
(1.08318 -0.0328284 0)
(1.07304 -0.0485643 0)
(1.05706 -0.0566339 0)
(1.04347 -0.063792 0)
(1.01643 -0.0709041 0)
(1.00401 -0.0534036 0)
(0.978615 -0.0653735 0)
(0.955921 -0.0190156 0)
(0.947295 -0.00687617 0)
(0.939077 0.0445344 0)
(1.0087 0.107657 0)
(1.06237 0.0551821 0)
(1.0909 0.024185 0)
(1.0939 -0.0298335 0)
(1.07274 -0.0585915 0)
(1.03142 -0.0891844 0)
(0.955914 -0.116951 0)
(0.876509 0.00885797 0)
(0.870241 0.0446546 0)
(0.874529 0.108263 0)
(1.02599 0.125873 0)
(1.06318 -0.0248788 0)
(1.03954 -0.0732392 0)
(1.05371 -0.0143066 0)
(0.910057 -0.135447 0)
(0.711102 0.0342464 0)
(0.920334 0.245191 0)
(1.0925 -0.0309965 0)
(1.01458 -0.160422 0)
(0.893724 0.0620298 0)
(0.927294 0.237829 0)
(1.00703 -0.0822499 0)
(0.977221 -0.164702 0)
(1.03146 0.0899324 0)
(0.987355 0.0870661 0)
(0.963997 0.0187994 0)
(1.06747 -0.0036906 0)
(1.06943 -0.0155072 0)
(1.0652 -0.0230917 0)
(1.06087 -0.0323921 0)
(1.04567 -0.0404657 0)
(1.03944 -0.0411955 0)
(1.01754 -0.0496613 0)
(1.01047 -0.0340764 0)
(0.993883 -0.0429989 0)
(0.977046 -0.0119935 0)
(0.982863 -0.00218129 0)
(0.97012 0.0228303 0)
(1.01653 0.0629624 0)
(1.04362 0.0245052 0)
(1.06157 0.0197264 0)
(1.06761 -0.0161514 0)
(1.04016 -0.0509516 0)
(1.02608 -0.0593997 0)
(0.966711 -0.0810012 0)
(0.922886 0.016953 0)
(0.960423 0.0413414 0)
(0.960429 0.0678957 0)
(1.05975 0.0842519 0)
(1.08168 -0.0183644 0)
(1.01962 -0.0732315 0)
(1.02396 -0.00140513 0)
(0.981215 -0.0639481 0)
(0.829582 0.0383395 0)
(0.986696 0.174331 0)
(1.1035 -0.0463264 0)
(1.00996 -0.121633 0)
(0.894677 0.0739643 0)
(0.990561 0.21404 0)
(1.07568 -0.0826237 0)
(0.983272 -0.167737 0)
(1.02794 0.0881706 0)
(0.99767 0.0968194 0)
(0.979344 0.0217996 0)
(1.05363 -0.00134872 0)
(1.0568 -0.00911937 0)
(1.05196 -0.015034 0)
(1.05071 -0.020184 0)
(1.03857 -0.0275684 0)
(1.03485 -0.0255303 0)
(1.02051 -0.0335205 0)
(1.01418 -0.0212167 0)
(1.00659 -0.0268122 0)
(0.99334 -0.00837179 0)
(1.00218 0.000743784 0)
(0.99041 0.00903052 0)
(1.0198 0.0354027 0)
(1.03273 0.0112075 0)
(1.03763 0.00988899 0)
(1.05274 -0.0104795 0)
(1.02857 -0.035935 0)
(1.02071 -0.0261965 0)
(0.98302 -0.0492276 0)
(0.955263 0.0140941 0)
(0.994061 0.0316289 0)
(0.990178 0.0389774 0)
(1.05076 0.0519224 0)
(1.07361 -0.00250329 0)
(1.01597 -0.0483449 0)
(1.00389 0.0103911 0)
(1.00343 -0.0314692 0)
(0.916479 0.0238902 0)
(1.03302 0.125053 0)
(1.09503 -0.0390776 0)
(1.00203 -0.0792064 0)
(0.91821 0.0687635 0)
(1.05109 0.173539 0)
(1.12629 -0.0728225 0)
(0.975639 -0.151693 0)
(0.990488 0.0894914 0)
(0.995107 0.101547 0)
(0.997071 0.0226779 0)
(1.04374 0.000764322 0)
(1.04655 -0.0041677 0)
(1.04261 -0.00879965 0)
(1.04234 -0.0114912 0)
(1.03409 -0.0173664 0)
(1.03104 -0.0150481 0)
(1.02303 -0.0210181 0)
(1.01684 -0.0129432 0)
(1.01479 -0.0159956 0)
(1.00417 -0.00614003 0)
(1.01193 0.000285087 0)
(1.00432 0.00268149 0)
(1.01851 0.0181955 0)
(1.02843 0.00352068 0)
(1.02599 0.00438668 0)
(1.03936 -0.00477987 0)
(1.02022 -0.0264769 0)
(1.01468 -0.0130956 0)
(0.998313 -0.0310813 0)
(0.976275 0.00841563 0)
(1.00667 0.0202141 0)
(1.00371 0.0250247 0)
(1.03306 0.0321289 0)
(1.05372 0.00398692 0)
(1.01492 -0.0343776 0)
(1.0008 0.0109641 0)
(1.01805 -0.0119634 0)
(0.957088 0.014287 0)
(1.03673 0.0907225 0)
(1.0755 -0.0308717 0)
(1.00143 -0.0457342 0)
(0.947907 0.0513814 0)
(1.07408 0.129322 0)
(1.13495 -0.0524465 0)
(0.96043 -0.11992 0)
(0.952778 0.0869392 0)
(1.01367 0.0944534 0)
(1.02755 0.019869 0)
(1.03633 0.00256553 0)
(1.03844 -0.000627447 0)
(1.03604 -0.00389298 0)
(1.03572 -0.00552 0)
(1.03086 -0.0097226 0)
(1.02807 -0.00803906 0)
(1.02395 -0.0123459 0)
(1.01895 -0.00725248 0)
(1.01867 -0.00949849 0)
(1.01184 -0.00397156 0)
(1.01615 -0.000356278 0)
(1.01239 -1.62365e-05 0)
(1.01801 0.0085906 0)
(1.02471 0.000605548 0)
(1.02013 0.000633763 0)
(1.02928 -0.00277033 0)
(1.01847 -0.0174047 0)
(1.0125 -0.00418459 0)
(1.00788 -0.0184422 0)
(0.991104 0.00805575 0)
(1.01073 0.0119752 0)
(1.00943 0.0165231 0)
(1.0234 0.019155 0)
(1.03964 0.00775628 0)
(1.01738 -0.0178525 0)
(1.00026 0.0135527 0)
(1.02266 -0.00134908 0)
(0.978333 0.00609962 0)
(1.02984 0.0652314 0)
(1.0583 -0.0212543 0)
(1.00362 -0.0175631 0)
(0.971534 0.0341701 0)
(1.06576 0.0896797 0)
(1.11687 -0.0268528 0)
(0.957087 -0.0808656 0)
(0.948676 0.0717214 0)
(1.04717 0.0740291 0)
(1.05426 0.0168346 0)
(1.03083 0.00392798 0)
(1.03229 0.00186704 0)
(1.03099 -0.000422577 0)
(1.0307 -0.00149619 0)
(1.02783 -0.00444363 0)
(1.02583 -0.00343618 0)
(1.02352 -0.00648442 0)
(1.02021 -0.00343898 0)
(1.02015 -0.00529645 0)
(1.01605 -0.00209585 0)
(1.01812 -0.00074935 0)
(1.01622 -0.00055643 0)
(1.01798 0.00354637 0)
(1.02183 -0.000528733 0)
(1.01834 -0.000614064 0)
(1.023 -0.00114138 0)
(1.01721 -0.0107991 0)
(1.01224 -0.000339949 0)
(1.01227 -0.0115327 0)
(1.00055 0.00729138 0)
(1.01372 0.00547739 0)
(1.01206 0.0122614 0)
(1.01905 0.0117381 0)
(1.02795 0.00801478 0)
(1.01794 -0.00872251 0)
(1.00315 0.0114536 0)
(1.0247 0.00444322 0)
(0.992539 0.00402857 0)
(1.0234 0.0465081 0)
(1.04422 -0.0170259 0)
(1.00808 0.000321714 0)
(0.99161 0.0203049 0)
(1.05071 0.0601106 0)
(1.09029 -0.00319736 0)
(0.966885 -0.0479032 0)
(0.969511 0.0483963 0)
(1.06299 0.0513305 0)
(1.06069 0.0158243 0)
(1.02656 0.00482681 0)
(1.02758 0.00346446 0)
(1.02694 0.00185516 0)
(1.02677 0.00108575 0)
(1.02511 -0.00095745 0)
(1.02383 -0.000428608 0)
(1.02241 -0.00265149 0)
(1.02042 -0.00083379 0)
(1.02028 -0.00255463 0)
(1.01795 -0.000521346 0)
(1.01878 -0.000616062 0)
(1.0176 -0.000180269 0)
(1.01804 0.00123769 0)
(1.01979 -0.00038947 0)
(1.01743 -0.000907433 0)
(1.01953 -0.000382107 0)
(1.01646 -0.00635389 0)
(1.01328 0.00152762 0)
(1.0144 -0.00706228 0)
(1.00656 0.00720869 0)
(1.01545 0.0018772 0)
(1.01256 0.0102068 0)
(1.01783 0.007008 0)
(1.02154 0.00820713 0)
(1.01848 -0.0008389 0)
(1.00659 0.0105408 0)
(1.02373 0.00797043 0)
(1.00138 0.00377049 0)
(1.02176 0.0333938 0)
(1.03468 -0.0131303 0)
(1.01165 0.0127198 0)
(1.00533 0.0113738 0)
(1.03972 0.0391403 0)
(1.06711 0.0150462 0)
(0.982825 -0.0230084 0)
(0.993043 0.0271089 0)
(1.05917 0.0340605 0)
(1.05508 0.0166976 0)
(1.02309 0.00529884 0)
(1.02384 0.00439905 0)
(1.02359 0.00324397 0)
(1.02358 0.00268058 0)
(1.02262 0.00122591 0)
(1.02186 0.00145191 0)
(1.02095 -0.000209647 0)
(1.01986 0.000882883 0)
(1.01965 -0.000695183 0)
(1.01838 0.000720534 0)
(1.01859 -0.000188934 0)
(1.01785 0.000536447 0)
(1.01776 0.000483286 0)
(1.01844 0.000119494 0)
(1.01694 -0.000532191 0)
(1.01775 0.000258003 0)
(1.01608 -0.00329516 0)
(1.01406 0.00229936 0)
(1.0153 -0.00438084 0)
(1.00998 0.00686453 0)
(1.01636 -0.000355166 0)
(1.01282 0.00938999 0)
(1.01744 0.00414208 0)
(1.01752 0.0078751 0)
(1.01805 0.00320533 0)
(1.00964 0.00838184 0)
(1.02274 0.00922128 0)
(1.00703 0.00433269 0)
(1.021 0.0240011 0)
(1.02808 -0.0113082 0)
(1.01422 0.018367 0)
(1.01465 0.00433258 0)
(1.03292 0.0258117 0)
(1.04912 0.0276525 0)
(0.998027 -0.00880386 0)
(1.01023 0.00984672 0)
(1.04999 0.0224968 0)
(1.04777 0.0170274 0)
(1.02023 0.00542349 0)
(1.02083 0.00482232 0)
(1.02077 0.00398009 0)
(1.02088 0.00354972 0)
(1.02032 0.00249023 0)
(1.01997 0.00254754 0)
(1.01936 0.0012808 0)
(1.01885 0.00196054 0)
(1.01861 0.000547603 0)
(1.018 0.00161722 0)
(1.01793 0.000372914 0)
(1.01751 0.00125557 0)
(1.01725 0.000487857 0)
(1.01751 0.000763922 0)
(1.01647 5.98458e-05 0)
(1.01679 0.000784911 0)
(1.01577 -0.00133756 0)
(1.01456 0.00257244 0)
(1.01564 -0.00259883 0)