/*--------------------------------*- C++ -*----------------------------------*\
| =========                 |                                                 |
| \\      /  F ield         | OpenFOAM: The Open Source CFD Toolbox           |
|  \\    /   O peration     | Version:  2512                                  |
|   \\  /    A nd           | Website:  www.openfoam.com                      |
|    \\/     M anipulation  |                                                 |
\*---------------------------------------------------------------------------*/
FoamFile
{
    version     2.0;
    format      ascii;
    arch        "LSB;label=32;scalar=64";
    class       volScalarField;
    location    "64";
    object      p;
}
// * * * * * * * * * * * * * * * * * * * * * * * * * * * * * * * * * * * * * //

dimensions      [0 2 -2 0 0 0 0];

internalField   nonuniform List<scalar> 
9800
(
0.0557104
0.0556094
0.0554171
0.0551431
0.0547955
0.0543816
0.0539081
0.0533809
0.0528059
0.0521882
0.0515328
0.0508447
0.0501288
0.0493901
0.0486333
0.047863
0.0470838
0.0462999
0.0455156
0.0447346
0.0439603
0.0431959
0.0424442
0.0417077
0.0409884
0.0402881
0.0396084
0.0389504
0.038315
0.0377028
0.0371143
0.0365495
0.0360085
0.0354913
0.0349974
0.0345265
0.0340781
0.0336516
0.0332464
0.0328618
0.0558109
0.0557105
0.0555193
0.0552466
0.0549007
0.0544886
0.0540167
0.0534909
0.0529169
0.0522996
0.051644
0.050955
0.0502373
0.0494959
0.0487355
0.0479608
0.0471762
0.0463862
0.0455949
0.0448062
0.0440236
0.0432504
0.0424894
0.0417431
0.0410139
0.0403036
0.0396137
0.0389456
0.0383001
0.037678
0.0370798
0.0365057
0.0359557
0.0354297
0.0349274
0.0344486
0.0339927
0.0335591
0.0331473
0.0327564
0.056001
0.0559018
0.0557126
0.0554427
0.0551
0.0546913
0.0542228
0.0537
0.0531281
0.052512
0.0518564
0.0511658
0.0504451
0.0496989
0.048932
0.0481491
0.0473546
0.046553
0.0457486
0.0449453
0.0441469
0.0433568
0.0425779
0.0418131
0.0410648
0.040335
0.0396255
0.0389378
0.0382729
0.0376316
0.0370146
0.0364223
0.0358547
0.0353117
0.0347933
0.034299
0.0338284
0.033381
0.0329561
0.032553
0.05627
0.0561725
0.0559864
0.0557207
0.0553831
0.0549799
0.0545167
0.0539986
0.0534305
0.0528169
0.0521618
0.0514698
0.0507454
0.0499931
0.0492176
0.0484234
0.0476152
0.0467974
0.0459745
0.0451506
0.0443296
0.0435151
0.0427106
0.0419189
0.0411428
0.0403847
0.0396466
0.0389301
0.0382366
0.0375672
0.0369226
0.0363034
0.0357098
0.0351418
0.0345994
0.0340822
0.0335899
0.0331219
0.0326777
0.0322565
0.0566076
0.0565125
0.0563307
0.056071
0.0557404
0.0553449
0.0548894
0.0543784
0.0538162
0.0532067
0.0525537
0.0518611
0.0511331
0.0503741
0.0495887
0.0487812
0.0479564
0.0471187
0.0462726
0.0454227
0.044573
0.0437275
0.0428898
0.0420634
0.0412513
0.0404562
0.0396806
0.0389264
0.0381953
0.0374887
0.0368075
0.0361526
0.0355244
0.0349231
0.0343487
0.0338009
0.0332796
0.0327841
0.032314
0.0318685
0.0570039
0.056912
0.0567359
0.056484
0.0561628
0.0557777
0.0553327
0.0548317
0.0542781
0.0536753
0.0530263
0.0523348
0.0516044
0.0508392
0.0500434
0.0492216
0.0483781
0.0475176
0.0466447
0.0457641
0.0448804
0.0439976
0.04312
0.0422513
0.0413951
0.0405546
0.0397326
0.0389316
0.0381536
0.0374005
0.0366735
0.0359738
0.035302
0.0346586
0.0340437
0.0334573
0.0328991
0.0323688
0.0318658
0.0313895
0.0574497
0.0573617
0.0571928
0.0569509
0.0566417
0.05627
0.0558388
0.0553511
0.0548095
0.0542166
0.0535748
0.0528869
0.0521561
0.0513861
0.0505809
0.0497446
0.0488816
0.0479965
0.047094
0.0461791
0.0452566
0.044331
0.043407
0.0424888
0.0415805
0.0406861
0.0398088
0.0389516
0.0381172
0.0373078
0.0365252
0.0357708
0.0350458
0.0343509
0.0336864
0.0330525
0.032449
0.0318757
0.0313322
0.0308179
0.057936
0.0578528
0.0576928
0.0574631
0.0571689
0.0568138
0.0564003
0.0559299
0.0554043
0.0548253
0.0541944
0.0535138
0.0527858
0.0520137
0.051201
0.0503515
0.0494692
0.0485587
0.0476249
0.0466729
0.0457077
0.0447344
0.043758
0.0427834
0.0418154
0.0408585
0.0399167
0.0389938
0.0380928
0.0372167
0.0363678
0.0355483
0.0347596
0.0340027
0.0332785
0.0325873
0.0319292
0.031304
0.0307114
0.0301509
0.0584544
0.0583769
0.0582275
0.0580125
0.0577364
0.0574017
0.0570099
0.0565613
0.0560564
0.055496
0.0548809
0.0542121
0.0534912
0.0527208
0.0519039
0.0510436
0.0501436
0.0492083
0.0482426
0.0472518
0.0462411
0.0452159
0.0441818
0.0431443
0.042109
0.0410811
0.0400655
0.0390665
0.0380882
0.0371343
0.0362079
0.0353115
0.0344475
0.0336173
0.032822
0.0320625
0.0313391
0.0306518
0.0300006
0.0293848
0.0589969
0.0589261
0.0587891
0.0585914
0.0583366
0.0580263
0.0576605
0.0572385
0.0567598
0.0562236
0.0556298
0.0549782
0.0542699
0.0535065
0.05269
0.0518227
0.0509079
0.0499498
0.0489531
0.0479231
0.0468651
0.0457847
0.0446882
0.0435819
0.042472
0.0413647
0.0402656
0.03918
0.038113
0.0370693
0.0360528
0.0350669
0.0341146
0.0331981
0.032319
0.0314788
0.030678
0.0299171
0.0291961
0.0285147
0.0595562
0.059493
0.0593702
0.0591924
0.0589623
0.0586804
0.0583452
0.057955
0.0575082
0.0570027
0.0564364
0.0558086
0.0551195
0.0543695
0.0535594
0.0526905
0.0517654
0.0507881
0.0497629
0.0486948
0.0475889
0.0464512
0.0452887
0.0441083
0.0429171
0.041722
0.0405295
0.0393463
0.0381785
0.0370319
0.0359116
0.0348221
0.033767
0.0327496
0.0317723
0.030837
0.0299451
0.0290973
0.0282938
0.0275346
0.0601254
0.0600707
0.0599639
0.0598086
0.0596066
0.059357
0.059057
0.0587041
0.0582955
0.0578273
0.0572958
0.0566992
0.0560371
0.0553084
0.0545121
0.0536483
0.0527192
0.0517281
0.0506787
0.0495751
0.0484223
0.0472267
0.0459957
0.044737
0.0434583
0.0421673
0.0408716
0.0395792
0.0382978
0.0370344
0.0357954
0.0345864
0.0334123
0.0322775
0.0311854
0.0301388
0.0291397
0.0281895
0.0272887
0.0264377
0.060698
0.0606527
0.0605637
0.0604334
0.0602629
0.0600494
0.0597892
0.0594793
0.0591154
0.0586914
0.0582022
0.0576454
0.0570193
0.0563208
0.0555469
0.0546969
0.053772
0.0527746
0.051707
0.0505725
0.0493757
0.0481233
0.0468231
0.0454832
0.0441116
0.042717
0.0413084
0.0398952
0.0384867
0.0370914
0.0357171
0.0343711
0.0330597
0.0317888
0.0305629
0.0293862
0.0282615
0.0271908
0.0261755
0.0252162
0.0612684
0.0612333
0.0611635
0.0610609
0.0609249
0.060751
0.060535
0.0602739
0.0599611
0.0595881
0.0591495
0.0586421
0.0580621
0.0574036
0.0566622
0.0558361
0.0549257
0.0539314
0.0528539
0.0516952
0.0504596
0.0491539
0.0477857
0.046363
0.0448944
0.0433895
0.0418588
0.0403132
0.0387635
0.0372201
0.0356926
0.0341901
0.0327209
0.0312924
0.0299112
0.0285825
0.0273105
0.0260983
0.0249481
0.0238611
0.0618312
0.0618071
0.061758
0.0616855
0.0615867
0.0614553
0.0612882
0.0610817
0.0608259
0.0605107
0.0601311
0.0596835
0.0591603
0.0585528
0.0578551
0.0570651
0.0561813
0.0552017
0.0541248
0.0529511
0.0516847
0.0503316
0.0488988
0.047394
0.0458261
0.0442055
0.0425443
0.0408548
0.0391497
0.0374411
0.0357409
0.0340603
0.0324101
0.0307999
0.0292382
0.0277321
0.0262877
0.0249092
0.0236001
0.0223626
0.0623819
0.0623693
0.0623425
0.0623025
0.0622427
0.0621564
0.0620429
0.0618961
0.0617024
0.0614518
0.0611405
0.060763
0.0603077
0.0597627
0.0591218
0.0583817
0.0575385
0.0565872
0.0555237
0.0543474
0.0530611
0.0516695
0.0501784
0.0485948
0.0469275
0.0451879
0.0433891
0.0415451
0.0396701
0.0377784
0.0358843
0.034002
0.0321449
0.0303254
0.0285545
0.0268417
0.0251952
0.0236212
0.0221249
0.0207096
0.0629163
0.0629156
0.0629129
0.0629073
0.0628873
0.0628487
0.0627934
0.0627105
0.0625834
0.0624044
0.0621708
0.0618734
0.0614965
0.0610268
0.0604571
0.0597823
0.0589953
0.0580878
0.0570535
0.05589
0.0545981
0.0531804
0.0516406
0.0499846
0.048221
0.0463616
0.0444202
0.0424122
0.0403532
0.0382601
0.03615
0.0340402
0.0319474
0.0298871
0.0278739
0.0259201
0.0240367
0.0222328
0.0205154
0.0188898
0.0634305
0.0634426
0.0634661
0.0634958
0.0635155
0.0635278
0.0635345
0.0635179
0.0634616
0.0633616
0.0632146
0.0630066
0.0627185
0.0623369
0.061854
0.0612615
0.0605479
0.059702
0.0587153
0.0575832
0.0563035
0.0548757
0.0533008
0.051583
0.04973
0.0477535
0.0456674
0.0434877
0.041232
0.0389194
0.03657
0.0342047
0.0318441
0.0295077
0.027214
0.0249793
0.0228183
0.0207434
0.0187646
0.0168897
0.0639211
0.0639474
0.0639997
0.064064
0.0641231
0.0641897
0.0642604
0.0643116
0.0643307
0.0643169
0.0642643
0.064154
0.0639649
0.0636846
0.0633043
0.0628113
0.0621901
0.0614259
0.0605081
0.0594291
0.058183
0.0567654
0.0551737
0.0534095
0.0514789
0.0493922
0.0471629
0.0448071
0.0423438
0.0397943
0.037182
0.0345317
0.0318681
0.0292156
0.0265976
0.0240356
0.0215489
0.0191542
0.0168658
0.0146946
0.064385
0.0644284
0.0645117
0.0646082
0.064707
0.0648308
0.0649653
0.0650855
0.0651849
0.0652636
0.0653119
0.0653064
0.0652265
0.0650606
0.064798
0.0644221
0.0639131
0.0632533
0.0624285
0.0614274
0.0602401
0.0588572
0.0572721
0.0554826
0.0534918
0.0513075
0.0489415
0.0464093
0.0437307
0.040929
0.0380306
0.0350642
0.0320594
0.0290462
0.0260541
0.0231107
0.0202415
0.017469
0.0148128
0.0122884
0.0648194
0.0648846
0.0650004
0.0651252
0.0652648
0.0654472
0.0656435
0.0658349
0.0660189
0.0661949
0.066349
0.0664548
0.0664936
0.0664546
0.0663243
0.0660823
0.0657061
0.0651746
0.0644695
0.0635746
0.0624749
0.061156
0.0596063
0.0578189
0.0557921
0.0535295
0.0510397
0.0483367
0.0454399
0.0423739
0.0391677
0.0358536
0.0324669
0.0290437
0.0256207
0.0222332
0.0189147
0.015695
0.0126009
0.00965421
0.065222
0.0653163
0.0654644
0.0656126
0.0657951
0.0660346
0.0662903
0.066556
0.0668277
0.0671045
0.0673677
0.0675902
0.0677564
0.0678555
0.0678711
0.0677796
0.0675564
0.0671776
0.0666203
0.065863
0.064884
0.0636634
0.0621838
0.0604324
0.0584012
0.0560876
0.0534953
0.0506347
0.0475235
0.0441861
0.0406532
0.036961
0.0331496
0.0292625
0.0253447
0.0214409
0.0175942
0.0138445
0.0102278
0.00677439
0.0655908
0.0657244
0.0659016
0.0660689
0.066296
0.0665883
0.0669028
0.0672463
0.0676064
0.0679862
0.0683599
0.0687039
0.0690051
0.0692517
0.0694255
0.0695001
0.0694499
0.0692476
0.0688668
0.0682801
0.0674589
0.0663762
0.0650077
0.0633334
0.0613376
0.0590097
0.056346
0.053351
0.050038
0.0464296
0.0425567
0.0384579
0.0341788
0.0297699
0.0252858
0.0207823
0.0163149
0.0119361
0.00769415
0.00363097
0.0659248
0.0661102
0.0663099
0.0664938
0.0667652
0.0671049
0.0674797
0.067903
0.0683502
0.0688345
0.0693181
0.0697881
0.0702294
0.0706316
0.0709741
0.0712292
0.0713708
0.071368
0.0711919
0.0708095
0.0701857
0.0692853
0.0680754
0.0665271
0.0646154
0.0623202
0.0596278
0.0565337
0.0530438
0.0491753
0.0449571
0.0404288
0.0356399
0.0306484
0.0255191
0.0203208
0.0151239
0.0099972
0.00500518
0.000205518
0.0662249
0.0664749
0.0666862
0.0668872
0.0671996
0.0675833
0.0680211
0.0685235
0.0690551
0.0696447
0.0702351
0.070836
0.0714192
0.0719844
0.0725033
0.0729515
0.0733016
0.0735199
0.0735761
0.0734312
0.0730451
0.0723747
0.0713771
0.070012
0.0682433
0.0660391
0.0633736
0.0602299
0.0566027
0.0524997
0.0479434
0.0429716
0.0376355
0.0319996
0.0261393
0.0201381
0.0140845
0.00806748
0.00217305
-0.00351989
0.0664937
0.0668181
0.067027
0.0672497
0.0675962
0.0680251
0.0685266
0.0691053
0.069718
0.0704122
0.0711046
0.0718418
0.0725643
0.0733001
0.0739987
0.0746522
0.0752237
0.0756832
0.0759971
0.0761219
0.0760138
0.0756219
0.0748941
0.0737776
0.0722216
0.0701797
0.0676112
0.064484
0.0607768
0.0564828
0.0516131
0.0461977
0.0402862
0.033947
0.0272652
0.0203401
0.0132814
0.00620366
-0.000779493
-0.00756061
0.0667358
0.067137
0.0673288
0.0675818
0.0679534
0.0684332
0.0689942
0.069647
0.070336
0.0711335
0.0719218
0.0728006
0.073655
0.0745707
0.0754452
0.0763177
0.0771169
0.0778376
0.0784298
0.0788557
0.079064
0.0789992
0.0786
0.0778026
0.0765391
0.0747455
0.0723612
0.0693357
0.0656264
0.0612071
0.0560704
0.0502316
0.0437318
0.0366384
0.0290433
0.0210614
0.0128263
0.00448389
-0.00381618
-0.0119282
0.0669589
0.0674255
0.0675905
0.0678837
0.0682724
0.0688109
0.0694216
0.070148
0.070906
0.0718059
0.0726831
0.0737075
0.0746826
0.0757888
0.0768277
0.0779363
0.0789589
0.0799643
0.0808455
0.0816058
0.082162
0.0824745
0.0824606
0.0820561
0.0811702
0.0797259
0.0776321
0.0748171
0.0712086
0.0667571
0.0614267
0.0552105
0.0481315
0.0402474
0.0316515
0.0224707
0.0128637
0.00301287
-0.00688509
-0.0166321
0.067169
0.0676763
0.0678146
0.0681548
0.0685569
0.0691588
0.0698082
0.0706078
0.0714267
0.0724271
0.0733865
0.0745574
0.0756415
0.0769465
0.0781334
0.0794968
0.0807271
0.082046
0.0832112
0.0843455
0.085267
0.0860122
0.086431
0.0864998
0.0860747
0.0850937
0.0834103
0.0809459
0.0775722
0.0732189
0.0678024
0.0612894
0.0536689
0.0449795
0.0353051
0.0247779
0.0135785
0.00192924
-0.00991441
-0.0216824
0.0673709
0.067883
0.0680049
0.0683935
0.0688122
0.0694741
0.0701562
0.0710243
0.0719
0.0729942
0.0740335
0.0753431
0.0765308
0.0780329
0.0793558
0.0809848
0.0824044
0.0840638
0.085495
0.0870483
0.0883308
0.0895746
0.0904523
0.0910875
0.091193
0.0908052
0.0896511
0.0877149
0.0847363
0.0806713
0.0753212
0.0686497
0.0605639
0.0510877
0.0402718
0.0282471
0.0152092
0.00141678
-0.012804
-0.0270892
0.0675669
0.0680432
0.0681666
0.0685983
0.0690434
0.0697525
0.0704693
0.0713938
0.0723298
0.0735026
0.0746282
0.076056
0.0773546
0.0790334
0.0804967
0.0823794
0.0839853
0.0859901
0.0876772
0.0896799
0.0913128
0.0931189
0.0944593
0.0957663
0.096442
0.0968033
0.0962772
0.0950838
0.0926608
0.0891588
0.0840692
0.0774884
0.0690707
0.058902
0.0469025
0.0332291
0.0180712
0.00171984
-0.0154145
-0.0328614
0.0677569
0.0681586
0.0683042
0.0687693
0.0692545
0.0699913
0.0707515
0.0717134
0.0727205
0.0739478
0.0751749
0.0766877
0.0781184
0.0799326
0.0815622
0.083655
0.0854735
0.0877877
0.0897534
0.0921894
0.0941923
0.0965804
0.0984058
0.10046
0.101745
0.10301
0.103187
0.102986
0.101254
0.0986708
0.0940302
0.0879655
0.0793982
0.0688398
0.0556505
0.0402344
0.0226076
0.00317657
-0.017554
-0.039022
0.067938
0.0682341
0.0684211
0.0689082
0.0694468
0.0701918
0.0710053
0.0719835
0.0730744
0.0743298
0.0756758
0.0772353
0.0788251
0.0807222
0.0825566
0.0847934
0.0868733
0.089422
0.0917251
0.0945199
0.0969624
0.0998737
0.102269
0.105052
0.107054
0.109283
0.110308
0.111291
0.11043
0.109122
0.105127
0.100143
0.0915784
0.0813187
0.0669221
0.0500395
0.02944
0.00631779
-0.0189649
-0.0456615
0.0681049
0.0682772
0.0685199
0.0690181
0.0696193
0.0703568
0.0712309
0.0722085
0.073391
0.0746536
0.0761287
0.0777048
0.0794713
0.0814067
0.0834759
0.0857939
0.088181
0.0908821
0.0935865
0.0966416
0.0996118
0.102937
0.106027
0.109431
0.112335
0.115446
0.117592
0.119758
0.120163
0.120292
0.117387
0.113892
0.105642
0.0965111
0.0808446
0.0636328
0.0391892
0.0122029
-0.0193645
-0.0529935
0.0682523
0.0682965
0.068603
0.0691033
0.0697697
0.0704898
0.071426
0.0723948
0.0736669
0.074926
0.0765283
0.0781048
0.0800491
0.0819969
0.0843085
0.0866683
0.0893791
0.0921785
0.0953115
0.0985579
0.102101
0.105756
0.109623
0.11355
0.117515
0.121391
0.124962
0.128185
0.130401
0.131889
0.130964
0.128944
0.122049
0.114244
0.0977491
0.0812952
0.0521284
0.0231479
-0.0186256
-0.0609905
0.0683764
0.0682992
0.0686717
0.0691674
0.0698963
0.0705945
0.07159
0.072548
0.0739013
0.0751542
0.0768699
0.0784462
0.0805485
0.0825074
0.0850378
0.0874334
0.0904452
0.0933263
0.0968734
0.100277
0.104396
0.108325
0.113005
0.117374
0.122492
0.127052
0.132257
0.136471
0.140945
0.143743
0.145753
0.145094
0.141423
0.134385
0.119311
0.102599
0.0692529
0.0398887
-0.0168915
-0.067056
0.0684765
0.0682911
0.0687263
0.0692134
0.0699983
0.070675
0.0717228
0.0726719
0.0740923
0.0753447
0.0771518
0.078737
0.0809655
0.0829494
0.0856531
0.0881049
0.0913553
0.0943454
0.0982255
0.101821
0.106418
0.110662
0.116047
0.120912
0.127097
0.132403
0.139247
0.144505
0.151503
0.155598
0.161393
0.162111
0.16365
0.157284
0.147559
0.127727
0.0949966
0.0602028
-0.0122242
-0.0655234
0.0685531
0.0682758
0.068767
0.0692434
0.0700762
0.0707343
0.0718256
0.0727698
0.0742429
0.0755014
0.0773779
0.0789815
0.0813049
0.0833272
0.0861604
0.0886863
0.0921146
0.0952387
0.0993671
0.103192
0.108146
0.112769
0.118686
0.124161
0.131165
0.137429
0.145566
0.15227
0.161365
0.167488
0.176855
0.179974
0.187688
0.182493
0.182819
0.159395
0.135539
0.0826769
0.00383566
-0.0619323
0.0686074
0.0682553
0.0687941
0.0692593
0.0701312
0.0707746
0.0719005
0.072844
0.0743557
0.0756266
0.0775509
0.0791823
0.0815717
0.0836427
0.0865662
0.089177
0.0927326
0.0959996
0.10031
0.104372
0.109595
0.114605
0.120933
0.127043
0.134686
0.141996
0.151138
0.159567
0.170255
0.179204
0.191129
0.198619
0.210732
0.211195
0.220902
0.199476
0.195316
0.114001
0.0391241
-0.120906
0.0686411
0.0682304
0.068808
0.0692624
0.0701656
0.0707975
0.0719498
0.0728959
0.0744336
0.0757214
0.0776746
0.0793408
0.0817697
0.0838967
0.0868749
0.0895768
0.0932142
0.0966248
0.101062
0.105348
0.110773
0.11614
0.122795
0.129482
0.137663
0.145929
0.155955
0.166008
0.178136
0.189926
0.204117
0.216766
0.232223
0.242356
0.256848
0.252031
0.261673
0.190771
0.154142
-0.250746
0.0325062
0.0321722
0.0318443
0.0315228
0.0312079
0.0308999
0.0305989
0.0303052
0.030019
0.0297405
0.0323952
0.0320559
0.031723
0.0313966
0.0310772
0.0307648
0.0304597
0.0301622
0.0298725
0.0295907
0.0321807
0.0318312
0.0314884
0.0311527
0.0308243
0.0305034
0.0301904
0.0298855
0.0295889
0.0293008
0.0318677
0.0315029
0.0311455
0.0307958
0.030454
0.0301206
0.0297958
0.0294798
0.029173
0.0288756
0.0314576
0.0310725
0.0306955
0.030327
0.0299674
0.0296172
0.0292765
0.0289458
0.0286253
0.0283154
0.0309505
0.0305394
0.0301375
0.0297451
0.0293629
0.0289912
0.0286304
0.0282809
0.0279432
0.0276175
0.0303442
0.0299011
0.0294683
0.0290466
0.0286364
0.0282382
0.0278526
0.0274801
0.027121
0.0267759
0.0296352
0.0291533
0.0286831
0.0282257
0.0277816
0.0273514
0.0269358
0.0265353
0.0261506
0.025782
0.0288187
0.0282902
0.0277752
0.027275
0.0267902
0.0263218
0.0258703
0.0254365
0.0250211
0.0246248
0.0278886
0.0273045
0.0267363
0.0261851
0.025652
0.025138
0.024644
0.0241708
0.0237193
0.0232902
0.0268374
0.0261876
0.0255561
0.0249446
0.0243544
0.0237867
0.0232425
0.0227229
0.022229
0.0217617
0.0256565
0.024929
0.0242228
0.0235401
0.0228825
0.0222515
0.0216484
0.0210745
0.0205311
0.0200195
0.0243359
0.0235166
0.0227223
0.0219557
0.0212187
0.0205134
0.0198412
0.019204
0.0186032
0.0180403
0.0228639
0.0219365
0.0210382
0.0201727
0.0193424
0.0185498
0.0177969
0.0170859
0.0164187
0.0157969
0.0212275
0.0201722
0.0191514
0.0181692
0.0172292
0.0163342
0.0154871
0.0146903
0.0139463
0.0132573
0.0194114
0.0182051
0.0170393
0.0159196
0.0148503
0.0138353
0.012878
0.0119818
0.0111494
0.0103836
0.0173984
0.0160132
0.0146758
0.0133934
0.0121718
0.0110158
0.00992986
0.00891814
0.00798434
0.00713155
0.015169
0.0135711
0.0120301
0.0105549
0.0091532
0.00783127
0.00659495
0.00544942
0.00439932
0.00344842
0.0127007
0.0108494
0.00906576
0.00736142
0.00574635
0.00422877
0.00281633
0.00151563
0.000332538
-0.000728378
0.00996817
0.00781388
0.00574013
0.00376232
0.00189355
0.000144579
-0.0014745
-0.00295526
-0.00429013
-0.00547365
0.00694251
0.0044243
0.0020023
-0.000303153
-0.00247473
-0.00449823
-0.00636031
-0.0080501
-0.00955784
-0.010877
0.00359135
0.000634107
-0.00220806
-0.004908
-0.00744267
-0.00979312
-0.0119417
-0.0138743
-0.0155784
-0.0170461
-0.000121748
-0.00361095
-0.00696249
-0.0101399
-0.0131121
-0.0158537
-0.0183413
-0.0205564
-0.0224828
-0.0241111
-0.00423856
-0.00837512
-0.012347
-0.0161049
-0.019607
-0.0228186
-0.0257086
-0.0282525
-0.03043
-0.0322293
-0.00880723
-0.0137357
-0.0184669
-0.0229338
-0.02708
-0.0308581
-0.0342267
-0.0371534
-0.0396126
-0.0415903
-0.0138822
-0.0197854
-0.0254516
-0.0307893
-0.0357214
-0.0401839
-0.0441219
-0.0474929
-0.0502652
-0.0524227
-0.0195249
-0.0266352
-0.0334602
-0.0398733
-0.0457689
-0.0510598
-0.0556741
-0.0595576
-0.0626727
-0.0650022
-0.0258089
-0.0344222
-0.0426909
-0.0504386
-0.0575188
-0.0638131
-0.0692274
-0.0736958
-0.0771767
-0.079656
-0.0328313
-0.0433282
-0.0534045
-0.0628126
-0.0713486
-0.078852
-0.085203
-0.090326
-0.0941823
-0.0967684
-0.0407248
-0.0536054
-0.0659599
-0.0774372
-0.0877527
-0.0966923
-0.104113
-0.109942
-0.114159
-0.116784
-0.0496722
-0.0656062
-0.0808601
-0.0949234
-0.107392
-0.117989
-0.126569
-0.133101
-0.13762
-0.140194
-0.0599294
-0.0798269
-0.0988242
-0.116132
-0.131156
-0.143571
-0.153293
-0.160416
-0.165101
-0.167503
-0.0718724
-0.097009
-0.120944
-0.142309
-0.160242
-0.174474
-0.185142
-0.1926
-0.197218
-0.199271
-0.0861218
-0.11844
-0.148967
-0.175206
-0.196117
-0.211803
-0.222967
-0.230422
-0.234747
-0.236301
-0.104118
-0.14692
-0.185703
-0.217029
-0.240282
-0.25637
-0.267056
-0.273948
-0.27785
-0.279095
-0.130969
-0.189569
-0.236344
-0.271068
-0.294735
-0.309011
-0.317136
-0.32207
-0.325195
-0.326593
-0.177857
-0.258286
-0.310494
-0.343333
-0.361919
-0.370402
-0.37279
-0.372383
-0.37173
-0.372174
-0.24511
-0.350105
-0.413766
-0.436752
-0.438356
-0.436068
-0.43191
-0.423935
-0.415047
-0.409416
-0.332285
-0.423557
-0.539578
-0.546196
-0.499568
-0.4621
-0.440407
-0.428634
-0.422602
-0.419768
-0.777498
-0.488831
-0.572621
-0.56914
-0.544008
-0.50002
-0.463731
-0.438587
-0.425094
-0.417893
0.0294545
0.0291597
0.0288687
0.0285824
0.0283014
0.0280268
0.0277595
0.0275003
0.0272503
0.0270105
0.0267815
0.0265646
0.0263603
0.0261697
0.0259933
0.0258321
0.0256863
0.0255566
0.0254429
0.0253458
0.0252647
0.0251997
0.0251496
0.0251141
0.0250914
0.0250806
0.0250794
0.0250862
0.0250977
0.0251115
0.0251233
0.0251301
0.025127
0.0251103
0.0250741
0.025014
0.0249231
0.024797
0.0246281
0.024412
0.0241404
0.0238092
0.0234097
0.0229385
0.0223866
0.021751
0.0210228
0.0201994
0.019272
0.0182381
0.0170894
0.0158235
0.0144334
0.0129177
0.0112712
0.00949608
0.00759017
0.00556211
0.00341359
0.00115995
0.0293016
0.0290039
0.0287104
0.0284219
0.0281392
0.0278633
0.0275952
0.0273359
0.0270863
0.0268475
0.0266203
0.0264057
0.0262046
0.0260179
0.0258462
0.0256904
0.0255508
0.0254282
0.0253224
0.025234
0.0251622
0.0251073
0.025068
0.0250438
0.0250331
0.0250348
0.0250465
0.0250666
0.0250915
0.0251187
0.0251439
0.0251641
0.0251739
0.0251697
0.0251452
0.0250962
0.0250155
0.0248987
0.024738
0.024529
0.0242632
0.0239367
0.0235407
0.0230722
0.0225217
0.0218868
0.0211584
0.0203343
0.0194053
0.0183692
0.0172173
0.0159472
0.0145515
0.0130282
0.011372
0.00958456
0.00766348
0.00561753
0.00344821
0.00117204
0.0290057
0.0287024
0.0284039
0.0281112
0.0278251
0.0275469
0.0272774
0.0270178
0.026769
0.0265322
0.0263083
0.0260985
0.0259035
0.0257244
0.0255618
0.0254167
0.0252894
0.0251805
0.02509
0.0250184
0.0249649
0.0249296
0.0249111
0.024909
0.0249215
0.0249474
0.0249841
0.0250298
0.0250805
0.0251337
0.0251848
0.0252305
0.0252652
0.0252848
0.025283
0.0252551
0.025194
0.0250949
0.0249496
0.0247538
0.0244988
0.0241811
0.0237915
0.0233274
0.0227795
0.0221457
0.0214168
0.0205912
0.0196592
0.0186191
0.0174614
0.0161833
0.0147773
0.01324
0.0115657
0.00975491
0.00780508
0.00572476
0.00351565
0.00119559
0.0285715
0.0282598
0.027954
0.0276551
0.0273642
0.0270824
0.0268108
0.0265508
0.0263033
0.0260697
0.0258508
0.0256481
0.0254623
0.0252946
0.0251456
0.0250164
0.0249072
0.0248189
0.0247511
0.0247043
0.0246778
0.0246713
0.0246835
0.0247139
0.0247605
0.0248221
0.0248955
0.0249784
0.025067
0.0251581
0.025247
0.0253297
0.0254002
0.0254546
0.0254855
0.0254883
0.0254552
0.0253811
0.0252576
0.0250804
0.0248403
0.0245344
0.0241531
0.0236948
0.0231498
0.022517
0.0217871
0.0209591
0.020023
0.0189774
0.0178119
0.0165231
0.0151031
0.0135463
0.0118467
0.010003
0.00801196
0.00588195
0.00361493
0.00123024
0.0279994
0.0276766
0.027361
0.027054
0.0267566
0.0264702
0.026196
0.0259356
0.02569
0.0254607
0.0252488
0.0250558
0.0248824
0.0247301
0.0245994
0.0244915
0.0244067
0.0243457
0.0243084
0.0242947
0.0243036
0.0243352
0.0243882
0.0244618
0.0245536
0.024662
0.0247836
0.0249157
0.0250538
0.0251946
0.0253327
0.0254639
0.0255814
0.0256803
0.0257534
0.0257953
0.025798
0.0257554
0.0256592
0.0255048
0.0252828
0.0249908
0.0246187
0.0241663
0.0236239
0.0229912
0.0222595
0.021428
0.0204868
0.0194348
0.0182604
0.0169594
0.0155231
0.0139426
0.0122118
0.0103265
0.00828263
0.00608862
0.00374613
0.00127601
0.0272864
0.0269495
0.0266217
0.0263044
0.0259989
0.0257069
0.0254297
0.0251689
0.024926
0.0247026
0.0244998
0.0243193
0.024162
0.0240294
0.0239222
0.0238415
0.0237876
0.0237613
0.0237616
0.0237895
0.0238433
0.0239232
0.0240275
0.0241553
0.0243036
0.0244704
0.0246518
0.0248447
0.0250442
0.0252462
0.0254453
0.0256358
0.0258107
0.025964
0.0260885
0.0261777
0.026223
0.0262179
0.0261536
0.0260253
0.0258232
0.025546
0.0251825
0.0247352
0.0241937
0.0235599
0.0228248
0.0219887
0.0210418
0.0199831
0.0187996
0.0174857
0.0160326
0.0144258
0.0126591
0.0107248
0.00861706
0.00634553
0.00391011
0.00133319
0.0264263
0.0260722
0.0257295
0.0253998
0.0250847
0.024786
0.0245054
0.0242447
0.0240055
0.0237896
0.0235985
0.0234338
0.0232967
0.0231888
0.0231107
0.0230637
0.0230478
0.0230638
0.023111
0.0231893
0.0232979
0.0234367
0.0236034
0.0237967
0.0240131
0.0242501
0.0245034
0.024769
0.0250419
0.025317
0.0255885
0.0258489
0.0260915
0.0263092
0.0264939
0.0266382
0.0267325
0.0267701
0.0267414
0.0266414
0.0264597
0.0261968
0.02584
0.0253956
0.0248517
0.0242144
0.0234742
0.022632
0.0216794
0.0206143
0.0194227
0.0180965
0.0166279
0.0149934
0.0131882
0.0111987
0.0090167
0.00665499
0.0041082
0.0014021
0.0254103
0.0250356
0.0246752
0.0243308
0.0240045
0.0236982
0.023414
0.0231539
0.0229198
0.0227137
0.0225373
0.0223924
0.0222803
0.0222027
0.02216
0.0221539
0.022184
0.0222515
0.0223541
0.0224933
0.0226676
0.0228767
0.0231173
0.023388
0.0236847
0.0240043
0.0243419
0.0246927
0.0250513
0.0254114
0.0257667
0.0261079
0.0264287
0.0267204
0.0269741
0.0271806
0.0273303
0.0274152
0.0274248
0.027354
0.0271919
0.0269408
0.0265869
0.0261419
0.0255905
0.0249465
0.024198
0.0233486
0.0223906
0.0213205
0.020123
0.0187871
0.0173068
0.0156438
0.0137992
0.0117493
0.00948421
0.00702081
0.00434206
0.00148317
0.0242268
0.0238278
0.0234466
0.0230853
0.0227461
0.0224315
0.0221437
0.0218852
0.021658
0.0214646
0.0213066
0.0211862
0.0211047
0.0210638
0.0210641
0.0211071
0.0211928
0.0213201
0.0214887
0.0217002
0.021952
0.0222434
0.0225703
0.0229312
0.023321
0.0237362
0.0241711
0.0246198
0.0250769
0.0255341
0.0259848
0.0264176
0.0268276
0.0272027
0.027534
0.0278101
0.028021
0.0281573
0.0282071
0.0281651
0.0280203
0.0277762
0.027419
0.0269676
0.0264019
0.0257473
0.0249863
0.0241284
0.0231656
0.0220933
0.0208932
0.0195524
0.0180676
0.0163763
0.0144935
0.0123781
0.0100234
0.00744745
0.00461356
0.00157734
0.0228614
0.0224342
0.022029
0.0216484
0.0212949
0.0209713
0.0206804
0.020425
0.0202073
0.02003
0.019895
0.0198047
0.0197603
0.0197636
0.0198162
0.0199186
0.0200675
0.0202655
0.0205124
0.0208087
0.0211506
0.0215371
0.0219636
0.0224283
0.0229247
0.0234492
0.0239947
0.0245548
0.0251235
0.0256898
0.0262479
0.0267838
0.027294
0.0277618
0.0281794
0.0285325
0.0288104
0.0290019
0.0290929
0.0290781
0.0289461
0.0287013
0.0283329
0.0278657
0.0272763
0.0266065
0.0258277
0.0249607
0.0239943
0.0229237
0.0217251
0.0203873
0.018908
0.0171903
0.0152728
0.0130875
0.0106396
0.00793919
0.00492488
0.00168661
0.0212971
0.0208374
0.0204048
0.0200024
0.0196333
0.0193007
0.0190076
0.0187573
0.0185525
0.0183959
0.0182896
0.0182363
0.0182367
0.0182938
0.0184071
0.0185774
0.0188018
0.0190843
0.0194228
0.0198172
0.0202625
0.0207582
0.0212984
0.0218813
0.0224987
0.0231468
0.0238168
0.0245022
0.0251954
0.0258834
0.0265612
0.0272116
0.0278331
0.0284027
0.0289163
0.0293539
0.0297051
0.0299556
0.0300881
0.0300978
0.0299717
0.0297155
0.0293246
0.0288285
0.0282035
0.0275115
0.026708
0.0258329
0.0248651
0.0238016
0.0226091
0.0212866
0.0198254
0.0180832
0.0161371
0.0138809
0.0113399
0.00849959
0.00527972
0.00181467
0.0195136
0.0190166
0.0185532
0.0181268
0.017741
0.0173998
0.0171063
0.0168644
0.0166768
0.0165466
0.0164762
0.0164678
0.0165225
0.0166429
0.0168296
0.017079
0.0173926
0.0177734
0.0182173
0.0187238
0.0192871
0.0199071
0.0205761
0.0212923
0.0220455
0.0228321
0.0236412
0.0244661
0.025297
0.0261196
0.0269295
0.0277059
0.0284494
0.0291303
0.0297503
0.0302801
0.0307118
0.0310257
0.0311995
0.0312305
0.0311002
0.0308183
0.0303901
0.029846
0.0291722
0.0284485
0.0276108
0.0267294
0.0257643
0.024715
0.0235339
0.0222443
0.0208173
0.0190494
0.0170817
0.0147596
0.0121292
0.00913148
0.00568544
0.00196709
0.0174871
0.016948
0.0164502
0.0159978
0.015595
0.0152462
0.0149552
0.014726
0.0145616
0.0144655
0.0144397
0.0144863
0.0146083
0.0148071
0.0150757
0.015418
0.0158355
0.0163294
0.0168934
0.0175272
0.0182242
0.0189843
0.019798
0.0206632
0.0215679
0.0225083
0.0234714
0.0244502
0.0254319
0.0264023
0.0273563
0.0282701
0.029146
0.0299479
0.0306853
0.0313161
0.0318375
0.0322201
0.0324359
0.0324842
0.0323351
0.0320091
0.0315234
0.0309053
0.0301686
0.0293993
0.0285195
0.0276338
0.0266754
0.025648
0.0244858
0.0232552
0.0218808
0.0200803
0.0181001
0.0157213
0.013004
0.00983521
0.00615553
0.00215164
0.0151898
0.0146034
0.0140678
0.013588
0.0131687
0.0128147
0.0125304
0.0123201
0.0121868
0.0121345
0.0121637
0.0122777
0.0124765
0.0127662
0.013134
0.0135873
0.0141256
0.0147484
0.0154483
0.0162259
0.0170731
0.01799
0.0189649
0.0199956
0.021068
0.022178
0.0233104
0.0244572
0.025603
0.026734
0.0278434
0.0289052
0.0299238
0.0308571
0.0317233
0.0324647
0.033088
0.0335468
0.0338077
0.0338692
0.0336803
0.0332872
0.0327142
0.0319899
0.0311769
0.0303361
0.0294166
0.0285421
0.0275823
0.0265836
0.0254508
0.0243132
0.0230107
0.021159
0.0191817
0.0167576
0.0139474
0.0106055
0.00670703
0.00237762
0.0125892
0.0119503
0.0113739
0.010866
0.0104318
0.0100767
0.00980565
0.00962266
0.00953139
0.00953516
0.00963453
0.00983462
0.0101333
0.0105214
0.0110028
0.0115836
0.0122591
0.0130273
0.01388
0.0148185
0.0158331
0.0169239
0.0180769
0.0192901
0.0205469
0.0218427
0.0231599
0.0244887
0.0258124
0.0271158
0.0283904
0.0296098
0.0307801
0.0318548
0.032861
0.0337248
0.0344675
0.0350139
0.0353275
0.0353967
0.0351405
0.0346514
0.0339464
0.0330773
0.0321791
0.0312898
0.0302844
0.0294175
0.0284653
0.0275033
0.0264016
0.0254079
0.0241988
0.0222612
0.0203067
0.0178419
0.0149247
0.011434
0.00735714
0.00265181
0.00964717
0.00895064
0.0083313
0.00779594
0.00735034
0.00700073
0.00675173
0.00660761
0.00657195
0.00664644
0.00683232
0.00713383
0.00754341
0.00805577
0.00867328
0.0094015
0.0102321
0.0111634
0.0121864
0.0133035
0.0145026
0.0157849
0.0171332
0.0185462
0.0200044
0.0215027