/*--------------------------------*- C++ -*----------------------------------*\
| =========                 |                                                 |
| \\      /  F ield         | OpenFOAM: The Open Source CFD Toolbox           |
|  \\    /   O peration     | Version:  2312                                  |
|   \\  /    A nd           | Website:  www.openfoam.com                      |
|    \\/     M anipulation  |                                                 |
\*---------------------------------------------------------------------------*/
FoamFile
{
    version     2.0;
    format      ascii;
    arch        "LSB;label=32;scalar=64";
    class       surfaceScalarField;
    location    "84.05";
    object      phi;
}
// * * * * * * * * * * * * * * * * * * * * * * * * * * * * * * * * * * * * * //

dimensions      [0 3 -1 0 0 0 0];

oriented        oriented;

internalField   nonuniform List<scalar> 
10785
(
-0.000813346
0.00499702
-0.00418368
0.000990633
0.00596908
-0.00777306
0.00868281
-0.00172892
-0.00596326
0.0255197
-0.0198206
0.00298371
0.0522671
-0.0467279
0.0199805
0.085627
-0.0773885
0.0440285
0.120055
-0.106605
0.0721765
0.150066
-0.130882
0.100871
0.172031
-0.148829
0.126863
0.185322
-0.161034
0.147743
0.191992
-0.169446
0.162776
0.196013
-0.176239
0.172218
0.199753
-0.183181
0.17944
0.203509
-0.188333
0.184577
-0.19467
0.192893
0.205286
-0.000112481
0.0051095
0.00397081
0.00188579
0.0170635
-0.0148216
0.0412249
-0.043982
0.0724253
-0.0779284
0.103814
-0.108777
0.129726
-0.132517
0.147631
-0.148786
0.158324
-0.159522
0.164746
-0.167456
0.169791
-0.174491
0.175042
-0.18149
0.179889
-0.188029
0.185608
-0.194052
-0.201054
0.191992
0.000974041
0.00413546
0.00883695
-0.00597712
0.0284391
-0.0344238
0.0566178
-0.0721607
0.0851565
-0.106467
0.107958
-0.131578
0.123249
-0.147808
0.132687
-0.158225
0.139154
-0.165989
0.14459
-0.172892
0.149645
-0.179546
0.154077
-0.185921
0.158215
-0.192167
0.162637
-0.198474
-0.20467
0.166254
0.00228171
0.00185375
0.0149684
-0.0186638
0.0391148
-0.0585701
0.0654941
-0.0985401
0.0866664
-0.127639
0.100791
-0.145703
0.109655
-0.156672
0.115747
-0.164317
0.120515
-0.170757
0.12451
-0.176887
0.127976
-0.183012
0.13143
-0.189375
0.135258
-0.195995
0.139602
-0.202818
-0.210155
0.145087
0.00400498
-0.00215123
0.0211904
-0.0358493
0.0454159
-0.0827956
0.0661734
-0.119298
0.0801381
-0.141604
0.0886366
-0.154201
0.0939743
-0.16201
0.0977166
-0.168059
0.100739
-0.173779
0.103539
-0.179687
0.106444
-0.185916
0.109451
-0.192383
0.11241
-0.198955
0.11545
-0.205858
-0.212684
0.117979
0.00619587
-0.0083471
0.0257178
-0.0553712
0.046289
-0.103367
0.0609305
-0.133939
0.0695546
-0.150228
0.074348
-0.158994
0.077253
-0.164915
0.079431
-0.170237
0.0813803
-0.175729
0.0832285
-0.181535
0.0849295
-0.187617
0.0865189
-0.193972
0.0882612
-0.200697
0.0901504
-0.207747
-0.215207
0.0926728
0.00837982
-0.0167269
0.0271437
-0.0741352
0.0429171
-0.11914
0.0523763
-0.143398
0.0571034
-0.154955
0.0593727
-0.161264
0.0606334
-0.166176
0.0614861
-0.17109
0.0621044
-0.176347
0.0625624
-0.181993
0.0629824
-0.188037
0.0634923
-0.194482
0.0640516
-0.201256
0.0647235
-0.208419
-0.215759
0.0652762
0.00980411
-0.026531
0.0257291
-0.0900601
0.0368445
-0.130256
0.0422259
-0.14878
0.0441515
-0.156881
0.0445221
-0.161634
0.0442714
-0.165925
0.0437256
-0.170544
0.0430059
-0.175627
0.042182
-0.181169
0.0412714
-0.187127
0.0402633
-0.193474
0.0392841
-0.200277
0.0383904
-0.207526
0.0379913
-0.21536
0.000177715
0.0179184
-0.0180961
-0.00158768
0.0352707
-0.0335053
-0.00495894
0.0421866
-0.0388153
-0.00900129
0.0446005
-0.0405581
-0.0129274
0.0454013
-0.0414752
-0.0161953
0.0448338
-0.0415659
-0.018397
0.042182
-0.0399803
-0.0192019
0.036679
-0.0358742
-0.018398
0.0277301
-0.0285339
-0.0159054
0.0148782
-0.0173708
-0.0121525
-0.00198181
-0.00177117
-0.00548792
-0.0232698
0.0166053
0.00360676
-0.0480067
0.038912
0.0166465
-0.0774484
0.0644087
-0.106602
0.0323915
0.0908567
0.0020146
0.0159038
0.00335999
0.0339253
0.00350939
0.0420372
0.00341149
0.0446984
0.00408389
0.0447289
0.00615698
0.0427607
0.00996494
0.0383741
0.0156225
0.0310215
0.0230264
0.0203262
0.0319149
0.00598969
0.04225
-0.012317
0.0553044
-0.0363242
0.0703603
-0.0630626
0.0888003
-0.0958884
-0.126438
0.108637
0.00336746
0.0125363
0.00766696
0.0296258
0.0114648
0.0382394
0.0153569
0.0408063
0.0203653
0.0397205
0.0271652
0.0359607
0.0359714
0.0295679
0.0466865
0.0203064
0.0588945
0.00811814
0.0731068
-0.00822264
0.0887971
-0.0280072
0.107616
-0.0551427
0.128263
-0.0837102
0.151336
-0.118962
-0.147816
0.172714
0.00372427
0.00881203
0.00989899
0.0234511
0.0165376
0.0316008
0.0236484
0.0336954
0.0319342
0.0314347
0.0419573
0.0259376
0.0538999
0.0176254
0.0676877
0.00651857
0.0837201
-0.00791424
0.102642
-0.0271442
0.124872
-0.0502374
0.150866
-0.0811367
0.178764
-0.111609
0.20638
-0.146577
-0.1701
0.228663
0.0030729
0.00573913
0.00942915
0.0170949
0.0172788
0.0237511
0.0261288
0.0248455
0.0362075
0.021356
0.0479025
0.0142426
0.0616132
0.00391468
0.0783702
-0.0102384
0.0991971
-0.0287412
0.124578
-0.0525248
0.155173
-0.0808326
0.18721
-0.113174
0.218489
-0.142887
0.243006
-0.171094
-0.185634
0.258541
0.00180346
0.00393568
0.00678925
0.0121091
0.0139833
0.0165571
0.0228068
0.016022
0.0334049
0.0107579
0.0466023
0.00104519
0.0640125
-0.0134955
0.0868239
-0.0330498
0.115885
-0.0578022
0.149582
-0.0862223
0.185333
-0.116583
0.216887
-0.144728
0.241487
-0.167487
0.2543
-0.183907
-0.189005
0.257671
0.000397423
0.00353826
0.00328114
0.00922535
0.00882725
0.011011
0.0172064
0.00764286
0.0296159
-0.00165166
0.0478885
-0.0172274
0.0732371
-0.0388442
0.105268
-0.0650812
0.14127
-0.0938034
0.176902
-0.121854
0.207029
-0.146711
0.227587
-0.165287
0.238337
-0.178237
0.239598
-0.185167
-0.188665
0.239258
-0.000645422
0.000806868
0.0058546
0.0164812
0.03481
0.0616112
0.0949436
0.130733
0.163793
0.189682
0.205748
0.21268
0.213883
0.213293
0.217521
0.0427622
-0.271512
0.261142
0.0250462
-0.317112
0.334828
0.0202559
-0.354311
0.359101
0.0796887
-0.29253
0.233097
0.153394
-0.0561384
-0.0175665
0.205219
0.17734
-0.229166
0.233134
0.293327
-0.321241
0.228997
0.33364
-0.329503
0.193194
0.400321
-0.364518
0.172081
0.40106
-0.379947
0.202008
0.177127
-0.207054
0.247272
-0.0797116
0.034447
0.262927
-0.205286
0.189631
0.262774
-0.304167
0.30432
0.266327
-0.419578
0.416025
0.270751
-0.430121
0.425697
0.275441
-0.248482
0.243792
0.287119
0.0416417
-0.0533195
0.299534
0.355838
-0.368253
0.305291
0.579497
-0.585255
0.30647
0.48492
-0.486099
0.303366
0.0899757
-0.0868715
0.296715
-0.370084
0.376734
0.295618
-0.690787
0.691884
0.310171
-0.427137
0.412584
0.310783
0.407958
-0.40857
0.298135
0.766847
-0.7542
0.273659
0.222422
-0.197946
0.269502
-0.460021
0.464178
0.27994
-0.286949
0.276511
0.268554
0.226378
-0.214991
0.237976
0.360375
-0.329797
0.217916
0.00239637
0.0176641
0.221622
-0.167292
0.163586
0.236159
-0.0559845
0.0414481
0.235536
0.247938
-0.247316
0.214958
0.352806
-0.332227
0.0156098
-0.00480467
0.111318
-0.274194
0.0863989
-0.292193
0.0342381
-0.30215
0.0408246
-0.299116
0.114013
-0.129327
0.184828
0.106525
0.230045
0.24811
0.232117
0.331567
0.202941
0.429497
0.188492
0.415509
0.210788
0.154831
0.250408
-0.119331
0.266209
-0.221088
0.260807
-0.298764
0.260357
-0.419128
0.266021
-0.435785
0.271841
-0.254302
0.285091
0.0283916
0.301565
0.339364
0.310654
0.570409
0.31004
0.485534
0.301859
0.0981572
0.290586
-0.358812
0.283897
-0.684098
0.301523
-0.444762
0.312798
0.396683
0.304393
0.775252
0.275215
0.2516
0.266824
-0.45163
0.280398
-0.300523
0.272406
0.23437
0.242137
0.390643
0.221281
0.0232528
0.22443
-0.170441
0.239045
-0.0705999
0.239201
0.247782
0.218877
0.373129
0.0266934
0.164277
-0.265757
0.15146
-0.279376
0.0951845
-0.245874
0.0471357
-0.251068
0.0928907
-0.175082
0.176391
0.0230244
0.231168
0.193333
0.242093
0.320642
0.225006
0.446584
0.215189
0.425327
0.22504
0.14498
0.252051
-0.146342
0.265293
-0.23433
0.25373
-0.287201
0.247187
-0.412585
0.255073
-0.443671
0.264753
-0.263982
0.279666
0.0134778
0.29972
0.31931
0.312523
0.557606
0.310284
0.487773
0.297471
0.11097
0.281751
-0.343091
0.269301
-0.671648
0.288736
-0.464197
0.311618
0.373801
0.308344
0.778527
0.275025
0.284919
0.261629
-0.438234
0.278288
-0.317183
0.274907
0.237752
0.2456
0.419949
0.223954
0.0448989
0.226488
-0.172974
0.241244
-0.0853557
0.242711
0.246314
0.223051
0.39279
0.0379658
0.198152
-0.235245
0.179131
-0.260356
0.152899
-0.219642
0.0918594
-0.190028
0.0949411
-0.178164
0.178771
-0.0608057
0.238976
0.133128
0.250681
0.308937
0.244553
0.452711
0.242296
0.427584
0.2408
0.146476
0.251742
-0.157285
0.261983
-0.244571
0.247982
-0.273201
0.233252
-0.397855
0.240455
-0.450873
0.255465
-0.278992
0.27187
-0.00292722
0.292867
0.298313
0.308491
0.541982
0.305835
0.490429
0.290223
0.126581
0.270688
-0.323557
0.253082
-0.654042
0.272468
-0.483583
0.306049
0.34022
0.308374
0.776201
0.272602
0.320691
0.25426
-0.419892
0.273785
-0.336708
0.275923
0.235614
0.248185
0.447687
0.225838
0.0672463
0.227817
-0.174953
0.242833
-0.100372
0.245926
0.243222
0.227254
0.411461
0.0492669
0.220869
-0.197574
0.180589
-0.220075
0.167304
-0.206357
0.135434
-0.158158
0.107952
-0.150682
0.166015
-0.118869
0.240554
0.0585896
0.268766
0.280725
0.274381
0.447097
0.272323
0.429642
0.25595
0.16285
0.250573
-0.151908
0.253402
-0.2474
0.238636
-0.258435
0.216803
-0.376021
0.220676
-0.454746
0.241451
-0.299767
0.260584
-0.02206
0.28329
0.275607
0.302729
0.522542
0.299829
0.49333
0.281107
0.145304
0.257952
-0.300402
0.23523
-0.631319
0.253142
-0.501496
0.297829
0.295533
0.306736
0.767294
0.268657
0.35877
0.245377
-0.396611
0.267204
-0.358535
0.275373
0.227445
0.2498
0.47326
0.226847
0.0901997
0.22842
-0.176527
0.243871
-0.115823
0.24873
0.238363
0.231319
0.428872
0.0603682
0.220436
-0.160339
0.177897
-0.177536
0.153618
-0.182079
0.147386
-0.151926
0.126438
-0.129733
0.146896
-0.139327
0.213645
-0.00815961
0.252586
0.241784
0.269884
0.4298
0.278049
0.421476
0.265218
0.175681
0.248936
-0.135627
0.243962
-0.242425
0.228737
-0.24321
0.201733
-0.349017
0.198979
-0.451992
0.224156
-0.324945
0.246438
-0.0443418
0.269055
0.252991
0.290668
0.500929
0.289557
0.494441
0.269717
0.165143
0.244071
-0.274756
0.217003
-0.604251
0.232007
-0.5165
0.284777
0.242763
0.300216
0.751855
0.261976
0.39701
0.235096
-0.369731
0.258644
-0.382084
0.27327
0.21282
0.250376
0.496154
0.226986
0.113589
0.228292
-0.177832
0.244366
-0.131898
0.251044
0.231685
0.235151
0.444765
0.070997
0.204927
-0.126008
0.172233
-0.144842
0.144247
-0.154092
0.13639
-0.144069
0.132512
-0.125855
0.134844
-0.14166
0.187099
-0.0604141
0.242638
0.186245
0.276018
0.39642
0.285127
0.412368
0.26672
0.194088
0.24088
-0.109787
0.22892
-0.230465
0.213766
-0.228056
0.184933
-0.320184
0.17551
-0.442569
0.202061
-0.351495
0.230341
-0.0726219
0.254896
0.228435
0.279754
0.476071
0.280028
0.494168
0.257788
0.187382
0.229694
-0.246663
0.19854
-0.573096
0.210371
-0.528331
0.27132
0.181814
0.293734
0.729442
0.25469
0.436053
0.224375
-0.339416
0.248552
-0.40626
0.269607
0.191765
0.249797
0.515963
0.226191
0.137196
0.227383
-0.179024
0.244289
-0.148803
0.25281
0.223164
0.238697
0.458879
0.0808467
0.192321
-0.100808
0.166204
-0.118725
0.143463
-0.131351
0.129076
-0.129682
0.119857
-0.116636
0.116215
-0.138019
0.147079
-0.0912777
0.200741
0.132583
0.243547
0.353613
0.269403
0.386512
0.263207
0.200284
0.236162
-0.0827431
0.217069
-0.211372
0.199856
-0.210843
0.168717
-0.289045
0.152318
-0.42617
0.177102
-0.376279
0.208523
-0.104044
0.234065
0.202894
0.261045
0.449091
0.265559
0.489654
0.2456
0.207341
0.214913
-0.215976
0.181169
-0.539352
0.188986
-0.536148
0.252043
0.118757
0.281409
0.700076
0.245168
0.472294
0.212841
-0.307089
0.237065
-0.430484
0.264455
0.164375
0.248289
0.532129
0.224663
0.160822
0.225789
-0.18015
0.243581
-0.166595
0.25401
0.212735
0.24199
0.470898
0.0896427
0.448044
-0.0736443
-0.475207
0.421553
-0.0922347
0.393127
-0.102925
0.361375
-0.0979304
0.325326
-0.0805873
0.279477
-0.092169
0.231867
-0.0436683
0.199088
0.165362
0.248157
0.304544
0.371386
0.263283
0.466048
0.105623
0.488656
-0.105351
0.465755
-0.188471
0.443995
-0.189082
0.42002
-0.265071
0.382287
-0.388437
0.356852
-0.350844
0.328758
-0.0759498
0.298165
0.233487
0.314522
0.432734
0.363146
0.44103
0.406295
0.164192
0.418966
-0.228647
0.374942
-0.495328
0.322657
-0.483863
0.344516
0.0968972
0.378854
0.665737
0.377921
0.473227
0.365102
-0.294269
0.379491
-0.444874
0.392205
0.151661
0.370381
0.553953
0.34935
0.181853
0.354234
-0.185035
0.371371
-0.183732
0.37935
0.204756
0.362851
0.487398
0.103646
0.472191
-0.0508207
-0.495014
0.447247
-0.0672911
0.418724
-0.0744023
0.392772
-0.0719781
0.369298
-0.0571131
0.336503
-0.0593741
0.302774
-0.00993882
0.307547
0.160589
0.393005
0.219086
0.494619
0.161669
0.544864
0.0553784
0.534276
-0.0947633
0.493773
-0.147969
0.467008
-0.162316
0.439367
-0.23743
0.396889
-0.345959
0.36669
-0.320645
0.32516
-0.0344205
0.290315
0.268332
0.322642
0.400407
0.395388
0.368284
0.449047
0.110533
0.451378
-0.230978
0.388974
-0.432923
0.328317
-0.423205
0.35331
0.0719042
0.397899
0.621148
0.407125
0.464002
0.397611
-0.284756
0.411859
-0.459122
0.426634
0.136886
0.406692
0.573895
0.387046
0.2015
0.393785
-0.191774
0.411668
-0.201615
0.420824
0.1956
0.406153
0.502068
0.11772
0.508049
-0.0348424
-0.524027
0.488526
-0.0477685
0.464742
-0.050618
0.444142
-0.0513778
0.423267
-0.0362384
0.392741
-0.0288485
0.381145
0.00165732
0.420924
0.12081
0.501416
0.138594
0.56533
0.0977546
0.587207
0.033502
0.567033
-0.07459
0.529216
-0.110152
0.512848
-0.145948
0.481527
-0.206108
0.41533
-0.279763
0.360177
-0.265491
0.305994
0.0197618
0.275489
0.298838
0.337996
0.337899
0.434468
0.271812
0.496824
0.0481773
0.494064
-0.228218
0.408663
-0.347522
0.325599
-0.340141
0.349985
0.0475181
0.416455
0.554679
0.444291
0.436166
0.435999
-0.276464
0.448373
-0.471496
0.465443
0.119816
0.447753
0.591585
0.428881
0.220372
0.437139
-0.200032
0.455795
-0.220271
0.466563
0.184832
0.455227
0.513404
0.131208
0.545362
-0.0219033
-0.558301
0.529665
-0.032071
0.511308
-0.0322619
0.493502
-0.0335718
0.480312
-0.0230479
0.462553
-0.0110899
0.459611
0.00459939
0.50128
0.0791413
0.561328
0.0785462
0.597237
0.0618451
0.607901
0.0228382
0.595808
-0.0624966
0.559973
-0.0743168
0.531799
-0.117775
0.49706
-0.171369
0.424357
-0.20706
0.349862
-0.190996
0.294145
0.0754782
0.299178
0.293805
0.391229
0.245848
0.488749
0.174292
0.544242
-0.00731551
0.533249
-0.217226
0.427393
-0.241666
0.319877
-0.232625
0.347067
0.0203279
0.445092
0.456653
0.495981
0.385277
0.486176
-0.266659
0.489395
-0.474715
0.504878
0.104333
0.490586
0.605877
0.47519
0.235768
0.485271
-0.210113
0.504446
-0.239445
0.518065
0.171213
0.51157
0.519898
0.143786
0.588445
-0.0125801
-0.597768
0.576818
-0.0204435
0.563796
-0.0192406
0.551222
-0.0209975
0.542292
-0.014118
0.532218
-0.00101576
0.534523
0.00229413
0.563515
0.05015
0.600772
0.0412884
0.62748
0.0351379
0.633155
0.0171623
0.625257
-0.054598
0.604512
-0.0535715
0.579272
-0.0925357
0.541023
-0.133119
0.466679
-0.132717
0.392085
-0.116402
0.359213
0.10835
0.400153
0.252865
0.494879
0.151122
0.567803
0.101368
0.596785
-0.0362978
0.58278
-0.20322
0.478159
-0.137046
0.350697
-0.105163
0.375042
-0.0040169
0.502189
0.329507
0.567737
0.319728
0.547159
-0.24608
0.534458
-0.462014
0.544761
0.0940301
0.537268
0.61337
0.528426
0.24461
0.538532
-0.220219
0.556153
-0.257067
0.573492
0.153873
0.574399
0.518992
0.154362
0.637535
-0.00615934
-0.643956
0.628828
-0.0117365
0.620471
-0.0108837
0.610699
-0.0112259
0.605459
-0.00887707
0.601462
0.00298065
0.603542
0.000214666
0.623955
0.0297366
0.644621
0.0206225
0.662559
0.0171996
0.669711
0.0100106
0.659245
-0.0441319
0.638701
-0.0330277
0.615976
-0.0698108
0.588402
-0.105545
0.529696
-0.0740104
0.475936
-0.0626419
0.48245
0.101837
0.541828
0.193487
0.613055
0.0798948
0.652599
0.0618241
0.644708
-0.0284071
0.621058
-0.17957
0.547591
-0.0635788
0.434029
0.00839865
0.440834
-0.0108219
0.576108
0.194232
0.652277
0.243559
0.616725
-0.210527
0.582547
-0.427836
0.591594
0.0849829
0.594117
0.610846
0.591699
0.247028
0.598176
-0.226696
0.611553
-0.270444
0.634366
0.131061
0.645364
0.507993
0.162278
0.692338
-0.00213946
-0.696358
0.686069
-0.00546754
0.680785
-0.00560005
0.674375
-0.00481594
0.671174
-0.00567573
0.67009
0.00406468
0.671143
-0.000838355
0.684472
0.0164072
0.695032
0.0100628
0.70705
0.00518128
0.710832
0.00622928
0.701794
-0.0350944
0.693272
-0.0245057
0.670817
-0.0473555
0.640643
-0.0753707
0.600051
-0.0334185
0.573129
-0.0357197
0.605638
0.0693278
0.658167
0.140958
0.700278
0.0377836
0.725834
0.0362682
0.703412
-0.00598493
0.665065
-0.141223
0.631981
-0.0304942
0.570673
0.0697066
0.559018
0.000832463
0.659825
0.0934262
0.732332
0.171052
0.689873
-0.168069
0.624287
-0.36225
0.623943
0.0853269
0.649
0.58579
0.664178
0.23185
0.665045
-0.227563
0.668385
-0.273784
0.69701
0.102437
0.721022
0.483981
0.166234
0.752573
0.000273319
-0.754986
0.748524
-0.00141757
0.745178
-0.00225458
0.741474
-0.00111185
0.738846
-0.00304825
0.739486
0.00342541
0.739415
-0.000767929
0.747702
0.00812052
0.753214
0.0045505
0.759023
-0.00062757
0.762829
0.00242323
0.752628
-0.0248933
0.745407
-0.0172843
0.72797
-0.0299189
0.705158
-0.0525588
0.684913
-0.0131739
0.667185
-0.0179913
0.699941
0.0365723
0.74459
0.0963085
0.759546
0.0228276
0.774567
0.0212474
0.761314
0.007268
0.72076
-0.100669
0.710151
-0.0198857
0.69988
0.0799776
0.688302
0.0124102
0.740201
0.041528
0.792805
0.118448
0.750431
-0.125696
0.659132
-0.270951
0.648305
0.0961545
0.71405
0.520044
0.755439
0.19046
0.743054
-0.215178
0.726961
-0.257691
0.75945
0.0699482
0.799692
0.443739
0.164449
0.818583
0.00170483
-0.820015
0.81624
0.000925336
0.814121
-0.000134713
0.812194
0.000814365
0.81025
-0.00110363
0.811021
0.00265434
0.810585
-0.000331789
0.814962
0.00374356
0.817642
0.00187023
0.819472
-0.00245785
0.82185
4.57435e-05
0.813171
-0.0162141
0.808799
-0.012913
0.797047
-0.0181668
0.777404
-0.0329155
0.769622
-0.00539201
0.758604
-0.00697352
0.777342
0.0178343
0.812557
0.0610939
0.820735
0.0146494
0.831161
0.0108214
0.825532
0.0128965
0.78767
-0.0628062
0.78096
-0.0131763
0.794668
0.0662696
0.790522
0.0165561
0.812241
0.0198098
0.84617
0.0845186
0.806933
-0.0864586
0.712735
-0.176752
0.714796
0.094093
0.818778
0.416063
0.866988
0.14225
0.827148
-0.175338
0.786707
-0.21725
0.823469
0.0331865
0.879389
0.387819
0.157695
0.890937
0.00249205
-0.891724
0.889691
0.00217072
0.888357
0.001199
0.887366
0.00180544
0.886048
0.000214431
0.886452
0.00225084
0.885995
0.000124861
0.887758
0.00198091
0.889006
0.000621703
0.888732
-0.00218362
0.889683
-0.000905607
0.883373
-0.00990406
0.878807
-0.00834643
0.871333
-0.0106932
0.857026
-0.0186079
0.854333
-0.00269918
0.849148
-0.00178897
0.857609
0.00937354
0.882943
0.0357602
0.887746
0.00984629
0.89145
0.00711775
0.893186
0.0111595
0.866622
-0.0362412
0.858595
-0.00515023
0.876606
0.0482587
0.874306
0.0188569
0.879625
0.0144906
0.903169
0.0609748
0.872391
-0.0556813
0.797217
-0.101578
0.82049
0.0708195
0.936197
0.300356
0.972755
0.105692
0.908277
-0.11086
0.845619
-0.154592
0.878058
0.000747426
0.944688
0.321189
0.143346
0.969944
0.00285095
-0.970303
0.969347
0.00276735
0.968609
0.00193673
0.96805
0.00236522
0.967207
0.00105686
0.967241
0.00221709
0.96676
0.00060611
0.967203
0.00153793
0.967374
0.000450121
0.966363
-0.00117194
0.96609
-0.000632826
0.961617
-0.00543175
0.957921
-0.00465006
0.953241
-0.00601339
0.944062
-0.00942869
0.942418
-0.00105457
0.940455
0.000173798
0.944206
0.00562268
0.95977
0.0201954
0.964195
0.00542183
0.966015
0.00529753
0.968422
0.00875311
0.95174
-0.01956
0.94331
0.0032797
0.957573
0.0339957
0.957659
0.0187708
0.956418
0.0157325
0.972214
0.0451788
0.95119
-0.0346576
0.898746
-0.0491334
0.926266
0.0432988
1.02719
0.199429
1.05397
0.078912
0.98643
-0.0433166
0.915364
-0.0835249
0.93542
-0.0193095
1.00581
0.250798
0.119343
1.05623
0.00293809
-1.05632
1.056
0.00299725
1.05561
0.0023217
1.05532
0.0026634
1.05474
0.00162902
1.0546
0.00236336
1.05409
0.00111712
1.0539
0.00172523
1.05355
0.000803253
1.05232
5.40374e-05
1.05153
0.000159839
1.04849
-0.00239543
1.0456
-0.00175571
1.04242
-0.0028379
1.0368
-0.00380241
1.0358
-5.82001e-05
1.03497
0.00100145
1.03719
0.00340784
1.04614
0.0112414
1.04873
0.00282941
1.05
0.00403412
1.05196
0.00679326
1.04195
-0.00955298
1.03692
0.00831134
1.04647
0.0244406
1.04594
0.0193022
1.04287
0.0188017
1.05321
0.0348447
1.03964
-0.0210958
1.00738
-0.016868
1.03016
0.0205166
1.10421
0.125384
1.1224
0.0607177
1.06863
0.0104498
1.01105
-0.0259401
1.02516
-0.0334193
1.0893
0.186652
0.0938089
1.15045
0.00288399
-1.1504
1.15042
0.00303404
1.15026
0.00248196
1.1501
0.00281906
1.14974
0.00198771
1.14952
0.00259005
1.14904
0.00158881
1.14864
0.00213216
1.14808
0.00135504
1.14701
0.00112658
1.14607
0.00110303
1.14396
-0.000286881
1.14184
0.000363398
1.13976
-0.000755487
1.13645
-0.000493169
1.1358
0.000591472
1.13535
0.00145506
1.1366
0.00215421
1.14172
0.00611689
1.14306
0.00149462
1.14436
0.0027307
1.14586
0.00529314
1.13961
-0.00329752
1.13688
0.0110354
1.14291
0.018409
1.14213
0.0200858
1.13988
0.0210493
1.14701
0.0277143
1.13783
-0.0119074
1.11926
0.00169741
1.13744
0.0023388
1.18868
0.0741399
1.19942
0.0499815
1.16148
0.0483876
1.12548
0.0100577
1.13815
-0.0460911
1.18946
0.135345
0.0734002
1.25337
0.00273555
-1.25322
1.25346
0.00295093
1.25344
0.00250073
1.25338
0.00287462
1.25317
0.00219442
1.25298
0.00277949
1.25261
0.00196231
1.2522
0.00254613
1.25166
0.00189123
1.25081
0.00197414
1.24996
0.00195502
1.24857
0.00110019
1.2471
0.00184187
1.24574
0.000600985
1.24382
0.00143152
1.24335
0.00105897
1.2431
0.00170306
1.2437
0.00154886
1.24663
0.00319018
1.24723
0.000897432
1.24808
0.00187868
1.24927
0.00410034
1.24566
0.000315821
1.24458
0.0121187
1.24831
0.0146781
1.24748
0.0209102
1.24603
0.0225057
1.25107
0.0226724
1.24504
-0.00587858
1.23667
0.01007
1.25133
-0.0123249
1.28439
0.0410815
1.28894
0.0454352
1.26522
0.0721038
1.24784
0.0274412
1.25704
-0.0552943
1.29341
0.0989751
0.0581682
1.36588
0.00253742
-1.36568
1.36603
0.0027991
1.3661
0.00242762
1.36614
0.00283971
1.36606
0.00227357
1.36596
0.00287997
1.36572
0.00220224
1.36542
0.002841
1.36501
0.0023013
1.36443
0.00255341
1.3638
0.00258634
1.36292
0.00197942
1.36196
0.00280772
1.36111
0.0014436
1.36001
0.00253668
1.35967
0.00139348
1.35954
0.00184088
1.35974
0.00134606
1.36137
0.00156307
1.36163
0.00063034
1.36222
0.00129634
1.36319
0.00312763
1.36118
0.00232096
1.36101
0.0122949
1.36319
0.0124991
1.36292
0.021171
1.36265
0.0227777
1.36648
0.0188501
1.36263
-0.00203539
1.36036
0.0123376
1.37114
-0.0230986
1.39165
0.0205699
1.39336
0.0437284
1.38168
0.0837783
1.37559
0.033536
1.3789
-0.0586083
1.40344
0.0744399
0.0463044
1.48887
0.00230015
-1.48863
1.48908
0.00258531
1.48924
0.00227307
1.48937
0.00270909
1.48941
0.00223452
1.48943
0.00285811
1.48934
0.00228916
1.48921
0.00296797
1.48899
0.0025223
1.48866
0.00288193
1.48829
0.0029617
1.48779
0.00248319
1.48722
0.00337049
1.48674
0.00192469
1.48613
0.00315336
1.48593
0.00158952
1.48583
0.00193701
1.48589
0.00129223
1.48676
0.000686013
1.48682
0.000569818
1.48727
0.000851056
1.48791
0.00249167
1.48694
0.00328792
1.48749
0.0117387
1.48889
0.0111073
1.48911
0.0209432
1.48985
0.022041
1.49301
0.0156933
1.49063
0.000343231
1.49219
0.0107765
1.49981
-0.0307227
1.51141
0.00897618
1.51169
0.0434434
1.50884
0.0866284
1.51002
0.0323583
1.50823
-0.0568187
1.52437
0.0583038
0.0367845
1.62333
0.00202135
-1.62305
1.6236
0.00231112
1.62384
0.00203939
1.62407
0.00247214
1.62423
0.00207544
1.62441
0.00267824
1.62448
0.00221921
1.62457
0.00288299
1.62454
0.00254554
1.62448
0.00294391
1.62437
0.00307254
1.62416
0.00269046
1.62396
0.00357365
1.62373
0.00215843
1.62346
0.0034228
1.62338
0.00167038
1.62327
0.00204592
1.62326
0.00129782
1.62363
0.000318949
1.62344
0.000763215
1.62381
0.000475675
1.62407
0.00223672
1.62379
0.00356928
1.62506
0.0104619
1.62611
0.0100578
1.62736
0.0196965
1.6295
0.0198959
1.63201
0.0131828
1.63048
0.00187948
1.63386
0.00739242
1.63688
-0.0337392
1.64207
0.0037837
1.6436
0.0419169
1.64972
0.0805092
1.65335
0.0287233
1.64623
-0.0496982
1.65881
0.0457292
0.0283189
1.77037
0.00169677
-1.77004
1.77071
0.00196927
1.77103
0.00171773
1.77139
0.00211287
1.77168
0.00178926
1.77204
0.00231613
1.77227
0.00198956
1.7726
0.00255626
1.77277
0.00237053
1.77299
0.00272566
1.77314
0.00292478
1.77318
0.0026474
1.77332
0.00343709
1.77324
0.00223842
1.77328
0.00338271
1.77326
0.00168968
1.77311
0.00218885
1.77311
0.00130027
1.77301
0.000417106
1.7726
0.0011764
1.77287
0.000204624
1.77263
0.00247605
1.77296
0.00324255
1.77481
0.00861252
1.77586
0.00900866
1.77848
0.0170719
1.78193
0.0164515
1.78366
0.0114523
1.78299
0.002544
1.78746
0.00292115
1.78552
-0.0317916
1.7853
0.00399511
1.78955
0.0376713
1.80358
0.0664781
1.80713
0.0251757
1.79506
-0.0376294
1.80665
0.0341354
0.0200866
1.93112
0.00139829
-1.93082
1.93148
0.00161028
1.93181
0.00138825
1.93225
0.00167786
1.9326
0.00143605
1.93314
0.00177824
1.93352
0.00160664
1.93415
0.00192278
1.9346
0.00192016
1.93523
0.00210204
1.93582
0.00233219
1.93622
0.00224388
1.93696
0.00270331
1.93701
0.00218664
1.93755
0.00284474
1.93739
0.00184294
1.93709
0.00248948
1.93683
0.0015677
1.9357
0.00154204
1.93489
0.00198673
1.93428
0.00080981
1.93342
0.00333629
1.9345
0.00216234
1.93667
0.00645168
1.93897
0.00670374
1.94526
0.0107798
1.95105
0.0106614
1.95225
0.0102549
1.95268
0.00211596
1.95391
0.00168741
1.93929
-0.0171745
1.93364
0.00965376
1.9473
0.024012
1.97478
0.0389893
1.97759
0.0223712
1.95925
-0.0192893
1.97056
0.0228267
0.0122728
2.10828
0.00115641
-2.10803
2.10861
0.00127735
2.10884
0.0011554
2.10921
0.00131093
2.10947
0.00117645
2.1099
0.00134279
2.11025
0.00125688
2.11078
0.00139188
2.1113
0.00140494
2.1119
0.00149802
2.11264
0.00159556
2.11321
0.00167586
2.11412
0.00179358
2.11448
0.0018217
2.1153
0.00203019
2.11536
0.0017839
2.11558
0.00226875
2.11538
0.00176235
2.11476
0.00216242
2.11447
0.00227549
2.11367
0.00161545
2.1137
0.00330029
2.11423
0.00163419
2.11604
0.00464132
2.11886
0.00388658
2.12411
0.00552872
2.12931
0.00546478
2.1317
0.00785921
2.13208
0.00174117
2.12941
0.00435329
2.11492
-0.00268102
2.11283
0.0117389
2.12639
0.0104515
2.14925
0.016136
2.15685
0.01477
2.1444
-0.0068389
2.14898
0.0182469
0.00834452
2.30217
0.000844248
-2.30186
2.30255
0.000904012
2.30283
0.000871459
2.30319
0.000951187
2.30347
0.000895755
2.30382
0.000998581
2.30414
0.00093166
2.30448
0.00104873
2.3049
0.000991969
2.30529
0.00110746
2.30579
0.00109032
2.30629
0.00117603
2.30686
0.00122343
2.30745
0.00123942
2.3081
0.00137455
2.30859
0.00129873
2.30936
0.00149339
2.30971
0.00140959
2.31038
0.00149964
2.31099
0.00166113
2.31116
0.00144803
2.31229
0.00217099
2.31235
0.00157279
2.31384
0.00315299
2.31551
0.0022102
2.31711
0.00393665
2.31944
0.00313543
2.32278
0.00451513
2.32274
0.00178553
2.32237
0.00471516
2.31978
-8.60932e-05
2.32398
0.0075336
2.32806
0.00637092
2.33535
0.00884927
2.34362
0.00650008
2.34055
-0.00376294
2.34366
0.0151329
0.006356
2.51336
0.000440587
-2.51296
2.5138
0.000466093
2.51421
0.000457451
2.51467
0.000490398
2.5151
0.000472304
2.51558
0.000514658
2.51602
0.000490936
2.51653
0.00054085
2.517
0.000518478
2.51753
0.000574278
2.51806
0.000561636
2.51862
0.00061918
2.51922
0.000622354
2.51979
0.000671015
2.52046
0.00070414
2.52103
0.000727719
2.52173
0.000795485
2.52233
0.000810546
2.52298
0.000849469
2.52367
0.000971399
2.52428
0.000833387
2.52523
0.00122676
2.52596
0.000840145
2.52757
0.00153966
2.52875
0.00103014
2.53085
0.00183798
2.53274
0.00124818
2.53487
0.00238104
2.53556
0.00110117
2.53746
0.00280965
2.53627
0.0011078
2.53966
0.00414472
2.54354
0.00248992
2.54977
0.00261999
2.55322
0.00304804
2.55032
-0.000863876
2.55801
0.00744322
0.00317761
2.74504
-2.7446
2.74551
2.74597
2.74646
2.74693
2.74744
2.74794
2.74848
2.749
2.74957
2.75013
2.75075
2.75137
2.75204
2.75275
2.75348
2.75427
2.75508
2.75593
2.7569
2.75774
2.75896
2.7598
2.76134
2.76237
2.76421
2.76546
2.76784
2.76894
2.77175
2.77286
2.777
2.77949
2.78211
2.78516
2.7843
2.79174
0.438319
0.0322455
-0.432573
0.445789
0.057806
0.450375
0.0880868
0.457907
0.110446
0.46172
0.141274
0.468666
0.159308
0.471648
0.18901
0.201727
0.466635
0.0275717
-0.461962
0.47217
0.0522719
0.476344
0.0839122
0.481172
0.105618
0.484452
0.137995
0.488145
0.155615
0.492263
0.184891
0.198976
0.499528
0.0238881
-0.495845
0.502952
0.0488486
0.506247
0.0806173
0.509247
0.102618
0.51333
0.133912
0.516341
0.152603
0.521086
0.180146
0.196035
0.535716
0.0208807
-0.532708
0.538048
0.0465166
0.541584
0.0770816
0.544312
0.0998899
0.548611
0.129612
0.551361
0.149853
0.555296
0.176211
0.19303
0.576536
0.0184959
-0.574151
0.578475
0.0445769
0.581803
0.0737534
0.584139
0.0975546
0.587762
0.125989
0.590531
0.147084
0.594375
0.172367
0.189637
0.622218
0.0166514
-0.620374
0.623878
0.0429176
0.626646
0.0709855
0.628975
0.0952253
0.632539
0.122426
0.635815
0.143807
0.640195
0.167987
0.185876
0.673061
0.015307
-0.671717
0.674634
0.0413451
0.677215
0.0684046
0.679849
0.0925908
0.683678
0.118597
0.687343
0.140142
0.692214
0.163116
0.181732
0.729687
0.0142129
-0.728593
0.731303
0.0397297
0.73394
0.065767
0.736832
0.0896992
0.740944
0.114485
0.744943
0.136143
0.750104
0.157955
0.17685
0.792398
0.0132341
-0.79142
0.794058
0.0380705
0.796764
0.0630612
0.79985
0.0866126
0.804102
0.110233
0.808579
0.131666
0.814256
0.152278
0.171092
0.861451
0.0123382
-0.860555
0.863162
0.0363592
0.865953
0.0602709
0.869376
0.0831892
0.873967
0.105642
0.879149
0.126483
0.885244
0.146184
0.164612
0.93737
0.0114787
-0.93651
0.939207
0.0345224
0.942165
0.0573124
0.945981
0.0793732
0.950901
0.100722
0.956559
0.120826
0.963086
0.139656
0.157395
1.02063
0.0106426
-1.0198
1.02258
0.0325733
1.0257
0.0541943
1.02984
0.0752308
1.0351
0.0954672
1.04126
0.114657
1.04838
0.132542
0.149458
1.1118
0.00981834
-1.11098
1.11387
0.0305047
1.11719
0.0508708
1.12169
0.0707376
1.12735
0.0898018
1.13406
0.107952
1.14176
0.124838
0.140818
1.21156
0.00899413
-1.21074
1.21375
0.0283149
1.2173
0.047328
1.22213
0.0659007
1.22823
0.0837057
1.23548
0.100696
1.24383
0.11649
0.131427
1.32067
0.00817085
-1.31984