/*--------------------------------*- C++ -*----------------------------------*\
| =========                 |                                                 |
| \\      /  F ield         | OpenFOAM: The Open Source CFD Toolbox           |
|  \\    /   O peration     | Version:  2312                                  |
|   \\  /    A nd           | Website:  www.openfoam.com                      |
|    \\/     M anipulation  |                                                 |
\*---------------------------------------------------------------------------*/
FoamFile
{
    version     2.0;
    format      ascii;
    arch        "LSB;label=32;scalar=64";
    class       surfaceScalarField;
    location    "34.5";
    object      phi;
}
// * * * * * * * * * * * * * * * * * * * * * * * * * * * * * * * * * * * * * //

dimensions      [0 3 -1 0 0 0 0];

oriented        oriented;

internalField   nonuniform List<scalar> 
64047
(
4.06109e-06
0.000484126
-0.000488187
5.69342e-05
0.00129834
-0.00135121
0.000188078
0.00194257
-0.00207371
0.000419438
0.00239571
-0.00262707
0.000768958
0.00264626
-0.00299578
0.00125342
0.0026873
-0.00317176
0.00189098
0.0025144
-0.00315195
0.00270335
0.00212398
-0.00293635
0.00371749
0.00151183
-0.00252597
0.00496656
0.000672013
-0.00192108
0.00649021
-0.000403764
-0.00111989
0.0083337
-0.00172599
-0.000117491
0.0105464
-0.00330618
0.0010935
0.013178
-0.00515552
0.00252389
0.0162749
-0.0072822
0.00418532
0.0198747
-0.00968885
0.00608899
0.0240012
-0.01237
0.00824351
0.0286587
-0.0153099
0.0106525
0.033828
-0.0184816
0.0133123
0.0394642
-0.0218468
0.0162105
0.0454958
-0.0253565
0.0193249
0.0518265
-0.0289538
0.0226231
0.05834
-0.0325767
0.0260632
0.0649057
-0.0361615
0.0295958
0.0713869
-0.0396469
0.0331657
0.0776498
-0.0429779
0.0367149
0.0835728
-0.0461097
0.0401867
0.0890553
-0.0490096
0.0435272
0.0940238
-0.051661
0.0466925
0.0984402
-0.0540597
0.0496434
0.102295
-0.0562234
0.0523685
0.105623
-0.0581643
0.0548362
0.108461
-0.0599485
0.0571108
0.110896
-0.0615344
0.0590993
0.112937
-0.0631397
0.0610988
0.114508
-0.0643168
0.0627461
-0.065979
0.0650057
0.115481
-9.75288e-06
0.000493879
1.67809e-05
0.00127181
0.000120339
0.00183901
0.000332778
0.00218327
0.000681864
0.00229718
0.00119456
0.0021746
0.00189992
0.00180903
0.00283135
0.00119255
0.0040279
0.000315278
0.00553462
-0.000834705
0.00740136
-0.00227051
0.00968023
-0.00400486
0.0124216
-0.00604759
0.0156687
-0.00840264
0.0194515
-0.0110649
0.0237803
-0.0140177
0.028641
-0.0172307
0.0339916
-0.0206604
0.0397607
-0.0242507
0.0458501
-0.0279362
0.0521394
-0.0316458
0.058493
-0.0353074
0.0647694
-0.0388531
0.0708312
-0.0422233
0.0765555
-0.0453711
0.0818429
-0.0482653
0.0866249
-0.0508916
0.0908677
-0.0532525
0.0945732
-0.0553665
0.0977759
-0.0572625
0.100533
-0.0589807
0.102924
-0.0605548
0.105012
-0.0620367
0.106898
-0.0634205
0.108567
-0.0648091
0.11026
-0.0660095
-0.0675308
0.111812
-1.86976e-05
0.000512576
-5.9719e-06
0.00125908
8.94727e-05
0.00174356
0.000310145
0.0019626
0.000694701
0.00191262
0.00128177
0.00158754
0.00211281
0.000977986
0.0032339
7.14651e-05
0.00469606
-0.00114688
0.00655382
-0.00269246
0.00886202
-0.00457871
0.0116707
-0.00681358
0.0150188
-0.00939567
0.0189268
-0.0123106
0.0233902
-0.0155284
0.0283749
-0.0190024
0.0338147
-0.0226705
0.0396129
-0.0264586
0.0456468
-0.0302847
0.0517763
-0.0340657
0.0578536
-0.0377232
0.0637356
-0.0411894
0.0692946
-0.0444121
0.0744289
-0.0473576
0.0790703
-0.0500125
0.0831876
-0.0523826
0.0867867
-0.0544907
0.0899062
-0.056372
0.0926088
-0.0580691
0.0949713
-0.059625
0.0970738
-0.0610832
0.0989894
-0.0624704
0.10078
-0.0638273
0.10249
-0.0651303
0.104155
-0.0664745
0.105808
-0.0676625
-0.0691254
0.107403
-2.15415e-05
0.000534118
-6.98086e-06
0.00124452
0.000105032
0.00163155
0.000367779
0.00169985
0.00083159
0.00144881
0.00154758
0.000871549
0.00256991
-4.43446e-05
0.00395634
-0.00131497
0.00576661
-0.00295714
0.00805859
-0.00498445
0.0108823
-0.00740243
0.0142723
-0.0102036
0.0182398
-0.0133631
0.0227654
-0.0168362
0.0277953
-0.0205583
0.0332405
-0.0244475
0.0389807
-0.0284108
0.0448733
-0.0323511
0.0507638
-0.0361753
0.0565003
-0.0398021
0.0619456
-0.0431685
0.06699
-0.0462338
0.0715588
-0.0489809
0.0756173
-0.0514161
0.0791695
-0.0535647
0.0822532
-0.0554662
0.0849306
-0.0571682
0.0872779
-0.0587192
0.0893732
-0.0601644
0.0912888
-0.0615406
0.0930822
-0.0628767
0.0948003
-0.0641884
0.0964672
-0.0654942
0.0981142
-0.0667772
0.0997357
-0.068096
0.10138
-0.0693064
-0.0707603
0.103014
-1.76511e-05
0.000551769
1.60358e-05
0.00121083
0.000171953
0.00147563
0.000513947
0.00135785
0.00110421
0.000858542
0.00200611
-3.03472e-05
0.00328503
-0.00132327
0.00500681
-0.00303675
0.00723339
-0.00518372
0.0100159
-0.00776698
0.013386
-0.0107726
0.0173469
-0.0141645
0.0218658
-0.0178821
0.0268708
-0.0218412
0.0322518
-0.0259393
0.0378685
-0.0300641
0.0435614
-0.0341037
0.0491674
-0.0379571
0.0545354
-0.0415433
0.0595404
-0.0448071
0.0640939
-0.047722
0.0681496
-0.0502895
0.0717034
-0.0525347
0.0747876
-0.0545002
0.0774612
-0.0562384
0.0797988
-0.0578038
0.081878
-0.0592474
0.0837705
-0.0606118
0.0855359
-0.0619298
0.0872191
-0.0632239
0.0888514
-0.064509
0.0904539
-0.0657909
0.0920387
-0.0670791
0.0936201
-0.0683586
0.0951968
-0.0696727
0.0968018
-0.0709115
-0.0723488
0.0983903
-7.32263e-06
0.000559091
6.29976e-05
0.00114051
0.000290206
0.00124842
0.000748557
0.000899503
0.0015115
9.5603e-05
0.00265298
-0.00117183
0.00424603
-0.00291632
0.00635817
-0.00514888
0.00904366
-0.00786921
0.0123336
-0.0110569
0.0162258
-0.0146647
0.0206767
-0.0186153
0.0255985
-0.0228039
0.0308632
-0.0271059
0.0363125
-0.0313886
0.0417739
-0.0355255
0.0470792
-0.039409
0.0520819
-0.0429598
0.0566714
-0.0461329
0.0607817
-0.0489173
0.0643923
-0.0513327
0.0675246
-0.0534217
0.0702309
-0.0552411
0.0725828
-0.0568521
0.074658
-0.0583136
0.0765302
-0.059676
0.0782617
-0.0609789
0.0799008
-0.0622509
0.0814819
-0.0635108
0.083028
-0.06477
0.0845537
-0.0660347
0.0860697
-0.0673069
0.0875813
-0.0685907
0.0890988
-0.0698761
0.090619
-0.071193
0.092166
-0.0724585
-0.0738927
0.09371
9.03073e-06
0.000550061
0.000131832
0.00101771
0.000455902
0.000924354
0.00106511
0.000290291
0.00204256
-0.000881847
0.00346952
-0.00259878
0.00542072
-0.00486753
0.00795602
-0.00768418
0.0111092
-0.0110224
0.0148761
-0.0148239
0.0192061
-0.0189947
0.023999
-0.0234082
0.029111
-0.0279159
0.0343687
-0.0323636
0.0395889
-0.0366088
0.0446001
-0.0405368
0.049262
-0.0440709
0.0534786
-0.0471764
0.0572039
-0.0498582
0.0604395
-0.0521529
0.0632254
-0.0541187
0.0656273
-0.0558237
0.0677223
-0.057336
0.0695866
-0.0587165
0.0712876
-0.0600146
0.0728789
-0.0612673
0.0744
-0.0624999
0.0758778
-0.0637287
0.0773302
-0.0649632
0.0787684
-0.0662081
0.0801996
-0.0674659
0.0816296
-0.0687368
0.0830617
-0.0700227
0.0845028
-0.0713173
0.0859502
-0.0726404
0.0874243
-0.0739325
-0.0753657
0.0888973
2.99893e-05
0.000520071
0.000219538
0.000828165
0.000663407
0.000480485
0.00145392
-0.000500222
0.00268114
-0.00210907
0.00442849
-0.00434613
0.00676389
-0.00720293
0.00972735
-0.0106476
0.0133174
-0.0146124
0.0174805
-0.018987
0.022108
-0.0236222
0.0270435
-0.0283438
0.0321004
-0.0329729
0.0370857
-0.0373489
0.0418251
-0.0413481
0.0461835
-0.0448952
0.0500775
-0.0479649
0.0534776
-0.0505766
0.0564024
-0.0527829
0.0589051
-0.0546556
0.0610591
-0.0562727
0.0629432
-0.0577078
0.0646306
-0.0590234
0.0661826
-0.0602685
0.0676458
-0.0614779
0.0690536
-0.062675
0.0704279
-0.0638742
0.0717829
-0.0650838
0.0731274
-0.0663077
0.0744672
-0.0675479
0.0758061
-0.0688048
0.0771476
-0.0700783
0.0784941
-0.0713693
0.0798511
-0.0726742
0.0812168
-0.0740061
0.0826077
-0.0753234
-0.0767584
0.0840004
5.50635e-05
0.000465008
0.000323658
0.00055957
0.000907328
-0.000103185
0.00190482
-0.00149772
0.00340897
-0.00361322
0.00549789
-0.00643505
0.00822145
-0.00992649
0.0115856
-0.0140118
0.0155395
-0.0185662
0.0199707
-0.0234181
0.0247135
-0.0283651
0.0295698
-0.0332
0.0343366
-0.0377397
0.0388354
-0.0418476
0.0429339
-0.0454466
0.0465575
-0.0485188
0.0496891
-0.0510965
0.052359
-0.0532465
0.0546296
-0.0550535
0.0565788
-0.0566047
0.0582852
-0.0579791
0.0598191
-0.0592416
0.0612366
-0.060441
0.0625795
-0.0616114
0.0638765
-0.0627749
0.0651464
-0.0639449
0.0664008
-0.0651286
0.0676466
-0.0663296
0.0688883
-0.0675494
0.070129
-0.0687886
0.0713713
-0.0700471
0.0726177
-0.0713248
0.0738706
-0.0726222
0.0751344
-0.073938
0.0764083
-0.07528
0.0777056
-0.0766207
-0.0780589
0.0790061
8.38577e-05
0.00038115
0.000442575
0.000200853
0.00118333
-0.000843935
0.00240817
-0.00272256
0.00420657
-0.00541162
0.00664138
-0.00886985
0.00973102
-0.0130161
0.0134333
-0.0177141
0.017638
-0.0227709
0.0221742
-0.0279544
0.0268338
-0.0330246
0.031403
-0.0377693
0.0356963
-0.042033
0.0395801
-0.0457315
0.0429842
-0.0488507
0.0458988
-0.0514334
0.048362
-0.0535597
0.0504422
-0.0553267
0.0522198
-0.0568311
0.0537732
-0.0581581
0.0551701
-0.059376
0.0564634
-0.0605349
0.0576912
-0.0616688
0.0588794
-0.0627995
0.0600441
-0.0639397
0.0611953
-0.0650961
0.0623388
-0.0662721
0.0634783
-0.067469
0.0646162
-0.0686873
0.0657546
-0.069927
0.0668957
-0.0711881
0.0680418
-0.0724708
0.0691951
-0.0737756
0.0703592
-0.075102
0.0715341
-0.0764549
0.0727301
-0.0778167
-0.0792582
0.0739294
0.000116383
0.000264767
0.000575396
-0.000258159
0.00148766
-0.0017562
0.00295383
-0.00418873
0.00505163
-0.00750941
0.00781645
-0.0116347
0.0112214
-0.0164211
0.0151655
-0.0216582
0.0194782
-0.0270836
0.0239432
-0.0324195
0.0283353
-0.0374167
0.032458
-0.0418919
0.0361711
-0.0457462
0.0394034
-0.0489637
0.0421476
-0.0515949
0.044446
-0.0537318
0.0463704
-0.0554842
0.0480032
-0.0569595
0.0494229
-0.0582508
0.0506959
-0.059431
0.0518729
-0.060553
0.0529899
-0.0616519
0.0540707
-0.0627497
0.0551301
-0.0638589
0.0561768
-0.0649863
0.0572158
-0.0661351
0.0582503
-0.0673066
0.0592824
-0.0685011
0.0603139
-0.0697188
0.0613464
-0.0709596
0.0623819
-0.0722237
0.0634225
-0.0735114
0.0644704
-0.0748235
0.0655284
-0.07616
0.066597
-0.0775235
0.0676837
-0.0789035
-0.080348
0.0687735
0.000152788
0.000111979
0.000721286
-0.000826657
0.00181593
-0.00285084
0.00352926
-0.00590207
0.00591673
-0.00989687
0.00897313
-0.0146911
0.0126148
-0.0200628
0.0166787
-0.0257221
0.0209447
-0.0313495
0.0251748
-0.0366497
0.0291578
-0.0413996
0.032741
-0.0454751
0.0358456
-0.0488508
0.0384619
-0.05158
0.0406327
-0.0537657
0.0424317
-0.0555307
0.0439426
-0.0569951
0.0452449
-0.0582618
0.0464047
-0.0594106
0.047472
-0.0604984
0.048482
-0.061563
0.0494572
-0.0626271
0.0504116
-0.0637041
0.0513533
-0.0648006
0.0522868
-0.0659198
0.0532149
-0.0670632
0.0541395
-0.0682312
0.055062
-0.0694237
0.055984
-0.0706407
0.0569069
-0.0718825
0.0578327
-0.0731494
0.0587632
-0.074442
0.0597007
-0.0757609
0.0606471
-0.0771065
0.0616032
-0.0784796
0.0625743
-0.0798745
-0.0813213
0.0635476
0.000193077
-8.10985e-05
0.000878681
-0.00151226
0.00216167
-0.00413384
0.00411782
-0.00785822
0.00676835
-0.0125474
0.0100555
-0.0179782
0.0138331
-0.0238404
0.0178832
-0.0297722
0.0219569
-0.0354232
0.0258239
-0.0405167
0.0293128
-0.0448885
0.0323301
-0.0484924
0.0348577
-0.0513784
0.0369353
-0.0536576
0.0386363
-0.0554667
0.0400462
-0.0569405
0.0412457
-0.0581946
0.0423022
-0.0593182
0.0432662
-0.0603746
0.0441728
-0.0614051
0.0450446
-0.0624347
0.045895
-0.0634776
0.046732
-0.064541
0.0475598
-0.0656284
0.0483811
-0.0667411
0.0491975
-0.0678797
0.0500103
-0.069044
0.0508208
-0.0702342
0.0516304
-0.0714503
0.0524405
-0.0726926
0.0532529
-0.0739618
0.0540694
-0.0752585
0.0548918
-0.0765833
0.0557218
-0.0779365
0.05656
-0.0793178
0.0574096
-0.0807241
-0.0821723
0.0582606
0.000236911
-0.000318009
0.00104475
-0.0023201
0.00251568
-0.00560476
0.00469842
-0.010041
0.00756816
-0.0154171
0.0110065
-0.0214165
0.0148075
-0.0276414
0.0187153
-0.0336801
0.022479
-0.0391869
0.0259017
-0.0439393
0.0288675
-0.0478543
0.0313431
-0.050968
0.0333602
-0.0533955
0.0349899
-0.0552873
0.0363187
-0.0567955
0.0374297
-0.0580515
0.0383924
-0.0591574
0.0392594
-0.0601852
0.0400667
-0.0611819
0.0408375
-0.0621759
0.0415856
-0.0631828
0.0423188
-0.0642108
0.0430416
-0.0652638
0.0437564
-0.0663432
0.0444648
-0.0674495
0.045168
-0.0685828
0.0458671
-0.0697431
0.0465632
-0.0709303
0.0472577
-0.0721447
0.0479519
-0.0733869
0.0486476
-0.0746575
0.0493464
-0.0759573
0.0500498
-0.0772867
0.0507589
-0.0786457
0.0514743
-0.0800332
0.0521978
-0.0814476
-0.0828963
0.0529218
0.000283545
-0.000601554
0.00121524
-0.0032518
0.002866
-0.00725551
0.0052466
-0.0124216
0.00827644
-0.018447
0.0117747
-0.0249147
0.0154876
-0.0313543
0.0191449
-0.0373374
0.0225189
-0.0425609
0.025463
-0.0468834
0.0279204
-0.0503117
0.0299089
-0.0529565
0.031494
-0.0549806
0.0327621
-0.0565555
0.0337992
-0.0578325
0.0346782
-0.0589305
0.0354547
-0.0599339
0.0361671
-0.0608976
0.03684
-0.0618547
0.0374878
-0.0628237
0.038119
-0.063814
0.038738
-0.0648298
0.0393473
-0.0658732
0.0399486
-0.0669445
0.040543
-0.0680439
0.0411313
-0.0691712
0.0417147
-0.0703265
0.0422942
-0.0715098
0.0428712
-0.0727217
0.0434469
-0.0739626
0.0440229
-0.0752335
0.0446007
-0.0765351
0.0451815
-0.0778675
0.0457661
-0.0792302
0.0463547
-0.0806218
0.0469482
-0.0820411
-0.0834896
0.0475414
0.000331779
-0.000933333
0.0013846
-0.00430462
0.0031987
-0.00906961
0.00573671
-0.0149596
0.00885662
-0.0215669
0.0123211
-0.0283792
0.0158474
-0.0348806
0.019175
-0.040665
0.0221183
-0.0455042
0.0245876
-0.0493526
0.0265786
-0.0523028
0.0281467
-0.0545245
0.0293759
-0.0562098
0.0303548
-0.0575344
0.0311611
-0.0586388
0.0318546
-0.059624
0.0324771
-0.0605564
0.0330554
-0.0614759
0.0336056
-0.0624049
0.0341367
-0.0633548
0.0346536
-0.0643309
0.0351591
-0.0653353
0.0356546
-0.0663687
0.0361414
-0.0674313
0.0366203
-0.0685228
0.0370923
-0.0696432
0.0375582
-0.0707924
0.0380192
-0.0719708
0.0384765
-0.0731789
0.0389313
-0.0744174
0.0393851
-0.0756873
0.039839
-0.076989
0.0402941
-0.0783225
0.0407506
-0.0796868
0.0412089
-0.0810801
0.0416691
-0.0825013
-0.0839486
0.0421281
0.000380011
-0.00131334
0.00154636
-0.00547097
0.00349913
-0.0110224
0.0061447
-0.0176051
0.00927967
-0.0247019
0.0126231
-0.0317226
0.015885
-0.0381425
0.018835
-0.043615
0.0213397
-0.0480089
0.0233631
-0.051376
0.0249426
-0.0538823
0.0261567
-0.0557386
0.0270955
-0.0571486
0.0278416
-0.0582805
0.0284605
-0.0592577
0.0289988
-0.0601623
0.0294866
-0.0610442
0.0299422
-0.0619315
0.0303757
-0.0628384
0.0307927
-0.0637718
0.0311962
-0.0647343
0.0315878
-0.0657269
0.0319688
-0.0667497
0.03234
-0.0678025
0.0327022
-0.068885
0.0330564
-0.0699973
0.0334033
-0.0711394
0.0337441
-0.0723116
0.0340798
-0.0735146
0.0344117
-0.0747493
0.0347411
-0.0760166
0.0350688
-0.0773168
0.0353956
-0.0786494
0.0357217
-0.0800128
0.0360469
-0.0814053
0.036371
-0.0828254
-0.08427
0.0366925
0.000426607
-0.00173995
0.00169428
-0.00673865
0.00375403
-0.0130821
0.00645126
-0.0203024
0.00952726
-0.0277779
0.0126751
-0.0348705
0.0156187
-0.0410861
0.0181713
-0.0461676
0.0202529
-0.0500906
0.0218734
-0.0529965
0.0230987
-0.0551077
0.0240181
-0.056658
0.024719
-0.0578495
0.0252736
-0.0588351
0.0257346
-0.0597187
0.0261367
-0.0605644
0.0265011
-0.0614086
0.0268398
-0.0622702
0.0271593
-0.0631579
0.027463
-0.0640755
0.0277529
-0.0650242
0.0280301
-0.0660042
0.0282957
-0.0670153
0.0285504
-0.0680571
0.0287949
-0.0691295
0.02903
-0.0702325
0.0292566
-0.071366
0.0294758
-0.0725307
0.0296884
-0.0737273
0.0298957
-0.0749566
0.0300987
-0.0762196
0.0302984
-0.0775164
0.0304951
-0.0788461
0.0306889
-0.0802066
0.0308795
-0.0815959
0.0310663
-0.0830122
-0.0844521
0.0312484
0.000470876
-0.00221083
0.0018238
-0.00809157
0.00395322
-0.0152115
0.00664343
-0.0229926
0.00959242
-0.0307269
0.0124871
-0.0377651
0.0150817
-0.0436808
0.0172394
-0.0483252
0.0189288
-0.05178
0.0201942
-0.0542619
0.0211185
-0.056032
0.0217924
-0.0573319
0.0222952
-0.0583523
0.0226871
-0.059227
0.023009
-0.0600406
0.0232862
-0.0608416
0.0235331
-0.0616556
0.0237578
-0.0624948
0.0239642
-0.0633644
0.0241547
-0.064266
0.0243306
-0.0652001
0.0244928
-0.0661664
0.0246422
-0.0671647
0.0247795
-0.0681944
0.0249054
-0.0692554
0.0250205
-0.0703476
0.0251258
-0.0714713
0.0252221
-0.072627
0.0253103
-0.0738155
0.0253916
-0.0750379
0.0254669
-0.0762949
0.0255369
-0.0775864
0.025602
-0.0789112
0.0256622
-0.0802669
0.0257176
-0.0816513
0.0257676
-0.0830622
0.0258129
-0.0844974
-6.09457e-05
0.00156758
-0.00150663
-0.000234322
0.00383111
-0.00365773
-0.000511418
0.0054304
-0.00515331
-0.00088091
0.00649216
-0.00612267
-0.00133038
0.00713737
-0.0066879
-0.00184803
0.00747595
-0.0069583
-0.00242378
0.00760072
-0.00702498
-0.00304971
0.00758433
-0.0069584
-0.00372013
0.00747911
-0.0068087
-0.00443136
0.00731933
-0.00660809
-0.00518146
0.00712464
-0.00637454
-0.00596988
0.00690415
-0.00611573
-0.00679719
0.00666002
-0.00583272
-0.00766478
0.00639042
-0.00552283
-0.00857469
0.00609148
-0.00518157
-0.00952941
0.00575844
-0.00480373
-0.0105318
0.00538627
-0.00438392
-0.0115849
0.0049698
-0.00391671
-0.012692
0.00450381
-0.00339665
-0.0138567
0.00398297
-0.00281827
-0.0150827
0.00340182
-0.00217582
-0.0163736
0.00275477
-0.00146385
-0.0177362
0.00203596
-0.000673386
-0.0191687
0.00124094
0.000191546
-0.0206756
0.000361724
0.00114525
-0.0222653
-0.000600663
0.00219036
-0.0239394
-0.00165794
0.00333196
-0.0257017
-0.00281214
0.0045745
-0.0275561
-0.00406772
0.0059221
-0.0295061
-0.00542829
0.00737829
-0.0315553
-0.00689666
0.00894586
-0.0337072
-0.00847472
0.0106267
-0.0359653
-0.0101633
0.0124213
-0.0383322
-0.0119625
0.0143294
-0.040811
-0.0138724
0.0163513
-0.0434062
-0.015894
0.0184892
-0.0180169
-0.0461207
0.0207315
-4.18978e-05
0.00160948
-0.000173314
0.00396252
-0.000395893
0.00565298
-0.000705201
0.00680147
-0.00109279
0.00752496
-0.00154861
0.00793176
-0.0020628
0.00811492
-0.00262688
0.0081484
-0.00323423
0.00808647
-0.00388031
0.0079654
-0.00456243
0.00780676
-0.00527958
0.0076213
-0.00603204
0.00741248
-0.0068211
0.00717948
-0.00764878
0.00691916
-0.00851766
0.00662732
-0.00943068
0.0062993
-0.0103912
0.00593027
-0.0114026
0.00551529
-0.0124689
0.00504925
-0.0135941
0.00452697
-0.0147824
0.00394307
-0.0160386
0.00329217
-0.0173664
0.00256878
-0.0187719
0.00176726
-0.0202536
0.000881
-0.0218213
-9.02443e-05
-0.0234794
-0.00115405
-0.0252317
-0.00231537
-0.0270823
-0.00357771
-0.0290355
-0.0049435
-0.0310959
-0.00641432
-0.0332684
-0.00799074
-0.0355584
-0.00967253
-0.0379725
-0.0114583
-0.0405218
-0.0133447
-0.0153216
-0.0432171
-2.05722e-05
0.00163005
-0.000104071
0.00404602
-0.000262965
0.00581188
-0.000500255
0.00703876
-0.000812033
0.00783674
-0.00119047
0.0083102
-0.00162631
0.00855076
-0.00211065
0.00863274
-0.00263599
0.00861181
-0.00319674
0.00852615
-0.00378931
0.00839933
-0.00441191
0.0082439
-0.00506427
0.00806484
-0.00574724
0.00786246
-0.00646254
0.00763446
-0.00721249
0.00737727
-0.00799988
0.00708668
-0.00882782
0.00675822
-0.00969976
0.00638722
-0.0106194
0.00596888
-0.0115906
0.00549822
-0.0126177
0.00497012
-0.0137048
0.00437933
-0.0148565
0.00372047
-0.0160773
0.00298803
-0.0173728
0.00217648
-0.0187432
0.0012802
-0.0201899
0.000292609
-0.0217266
-0.000778642
-0.023352
-0.00195236
-0.0250695
-0.00322593
-0.0268831
-0.00460075
-0.0287969
-0.00607698
-0.0308159
-0.00765354
-0.0329471
-0.00932707
-0.0352024
-0.0110894
-0.0129291
-0.0375949
1.85967e-06
0.00162819
-2.95309e-05
0.00407741
-0.00011767
0.00590002
-0.000273203
0.00719429
-0.000497284
0.00806082
-0.000784834
0.00859775
-0.0011276
0.00889353
-0.00151653
0.00902167
-0.00194332
0.00903859
-0.00240129
0.00898412
-0.00288577
0.00888381
-0.00339398
0.00875211
-0.0039248
0.00859566
-0.0044784
0.00841606
-0.00505594
0.008212
-0.00565924
0.00798057
-0.00629066
0.0077181
-0.00695295
0.00742051
-0.00764919
0.00708346
-0.00838276
0.00670245
-0.00915728
0.00627274
-0.00997661
0.00578944
-0.0108447
0.00524745
-0.0117658
0.00464149
-0.0127438
0.00396609
-0.013783
0.00321569
-0.0148874
0.00238455
-0.016062
0.00146726
-0.017298
0.000457365
-0.0186104
-0.000640008
-0.0199966
-0.00183974
-0.0214572
-0.00314015
-0.0229931
-0.00454102
-0.0246064
-0.00604031
-0.0263007
-0.00763279
-0.0280838
-0.00930623
-0.0110426
-0.0299704
2.45849e-05
0.0016036
4.70043e-05
0.00405499
3.40325e-05
0.00591299
-3.28997e-05
0.00726123
-0.000160191
0.00818811
-0.000345988
0.00878355
-0.00058356
0.0091311
-0.000864055
0.00930217
-0.00117856
0.0093531
-0.00151939
0.00932495
-0.00188066
0.00924509
-0.00225847
0.00912991
-0.00265064
0.00898783
-0.00305646
0.00882188
-0.00347631
0.00863185
-0.00391136
0.00841562
-0.0043634
0.00817014
-0.00483466
0.00789177
-0.00532779
0.00757659
-0.00584574
0.0072204
-0.00639177
0.00681877
-0.00696937
0.00636705
-0.00758221
0.00586029
-0.00823399
0.00529328
-0.0089284
0.0046605
-0.0096689
0.00395618
-0.0104587
0.00317432
-0.0112999
0.00230854
-0.0121955
0.00135295
-0.0131368
0.000301245
-0.0141319
-0.000844674
-0.0151746
-0.0020974
-0.0162611
-0.00345451
-0.0173879
-0.0049135
-0.0185531
-0.00646757
-0.0197572
-0.00810218
-0.00978528
-0.0210145
4.62068e-05
0.0015574
0.000122002
0.0039792
0.000185292
0.0058497
0.000210602
0.00723592
0.000185953
0.00821276
0.00010956
0.00885994
-1.37767e-05
0.00925444
-0.000175862
0.00946425
-0.00036752
0.00954476
-0.000580183
0.00953761
-0.000806822
0.00947172
-0.00104231
0.0093654
-0.00128328
0.0092288
-0.00152801
0.00906662
-0.00177598
0.00887982
-0.00202751
0.00866716
-0.00228372
0.00842635
-0.00254626
0.00815431
-0.0028172
0.00784753
-0.003099
0.0075022
-0.00339443
0.00711421
-0.00370652
0.00667914
-0.00403844
0.00619221
-0.00439343
0.00564826
-0.00477458
0.00504166
-0.00518469
0.00436629
-0.00562591
0.00361554
-0.00609966
0.00278229
-0.00660574
0.00185903
-0.00714172
0.000837228
-0.00770153
-0.00028487
-0.00828048
-0.00151845
-0.00886836
-0.00286663
-0.00945393
-0.00432793
-0.0100276
-0.00589388
-0.0105804
-0.00754939
-0.00927485
-0.0110908
6.59024e-05
0.0014915
0.000192113
0.00385299
0.000329723
0.00571209
0.000447055
0.00711858
0.000527033
0.00813278
0.000564041
0.00882293
0.000560424
0.00925806
0.000523227
0.00950145
0.000461512
0.00960647
0.000384409
0.00961471
0.000299926
0.00955621
0.000214454
0.00945087
0.000132503
0.00931075
5.71003e-05
0.00914202
-1.01645e-05
0.00894708
-6.89103e-05
0.0087259
-0.000119374
0.00847681
-0.000162423
0.00819736
-0.000199407
0.00788451
-0.000232058
0.00753485
-0.000262407
0.00714455
-0.000292685
0.00670941
-0.000325226
0.00622475
-0.000362314
0.00568535
-0.000406006
0.00508535
-0.000457912
0.0044182
-0.000518861
0.00367649
-0.000588612
0.00285204
-0.000665219
0.00193564
-0.000745367
0.000917376
-0.000820563
-0.000209674
-0.000881753
-0.00145726
-0.000914444
-0.00283394
-0.00089912
-0.00434326
-0.000811507
-0.0059815
-0.000630955
-0.00772994
-0.00953733
-0.000368473
8.27541e-05
0.00140874
0.000254186
0.00368155
0.000460816
0.00550546
0.000666197
0.0069132
0.000848719
0.00795026
0.000998978
0.00867267
0.00111659
0.00914044
0.00120699
0.00941106
0.00127862
0.00953484
0.00134081
0.00955252
0.00140234
0.00949467
0.0014706
0.00938261
0.00155136
0.00922999
0.00164871
0.00904468
0.00176536
0.00883042
0.001903
0.00858827
0.00206233
0.00831748
0.00224348
0.00801621
0.0024461
0.0076819
0.00266953
0.00731141
0.00291296
0.00690113
0.00317551
0.00644687
0.00345638
0.00594387
0.0037551
0.00538664
0.00407162
0.00476883
0.00440669
0.00408312
0.00476203
0.00332116
0.00514066
0.0024734
0.00554722
0.00152908
0.0059887
0.00047589
0.00647431
-0.000695287
0.00701732
-0.00200026
0.00763358
-0.0034502
0.00834458
-0.00505426
0.00918025
-0.00681716
0.0101676
-0.00871728
-0.0107318
0.011362
9.60679e-05
0.00131267
0.000305564
0.00347206
0.0005729
0.00523812
0.000858542
0.00662756
0.0011373
0.0076715
0.00139632
0.00841366
0.00163236
0.0089044
0.00184886
0.00919455
0.0020532
0.00933051
0.00225443
0.00935129
0.00246171
0.00928739
0.00268327
0.00916105
0.00292593
0.00898733
0.00319504
0.00877556
0.00349458
0.00853089
0.00382739
0.00825545
0.00419551
0.00794936
0.00460033
0.00761138
0.00504295
0.00723928
0.00552427
0.00683009
0.00604529
0.00638011
0.00660724
0.00588492
0.00721182
0.0053393
0.00786141
0.00473705
0.00855936
0.00407088
0.00931021
0.00333227
0.01012
0.00251139
0.0109963
0.00159705
0.0119493
0.000576112
0.0129895
-0.00056431
0.0141331
-0.0018389
0.0153953
-0.00326244
0.0167948
-0.00484972
0.0183507
-0.00661017
0.0200956
-0.00856207
0.0220346
-0.0106563
-0.0129941
0.0242969
0.000105377
0.0012073
0.000344227
0.00323321
0.000661325
0.00492103
0.00101592
0.00627297
0.00138046
0.00730695
0.00173929
0.00805483
0.00208643
0.00855726
0.00242314
0.00885785
0.00275531
0.00899834
0.00309128
0.00901531
0.00344019
0.00893849
0.00381077
0.00879048
0.00421076
0.00858734
0.00464664
0.00833968
0.00512369
0.00805383
0.00564621
0.00773294
0.00621772
0.00737785
0.00684133
0.00698777
0.00751999
0.00656063
0.00825678
0.00609329
0.00905521
0.00558168
0.00991946
0.00502067
0.0108547
0.00440406
0.0118674
0.00372439
0.0129654
0.00297281
0.0141587
0.00213903
0.0154593
0.00121075
0.0168799
0.000176429
0.0184395
-0.000983422
0.0201552
-0.00228006
0.0220481
-0.00373181
0.0241394
-0.00535376
0.0264536
-0.00716389
0.0290043
-0.00916083
0.0318353
-0.0113931
0.0349067
-0.0137278
-0.0165173
0.03843
0.000110438
0.00109686
0.000368855
0.00297479
0.0007227
0.00456718
0.0011319
0.00586377
0.001568
0.00687085
0.00201339
0.00760945
0.0024598
0.00811085
0.00290628
0.00841136
0.00335702
0.0085476
0.00381929
0.00855304
0.00430177
0.00845601
0.00481337
0.00827887
0.0053625
0.00803821
0.00595669
0.0077455
0.00660257
0.00740796
0.007306
0.00702951
0.00807236
0.00661149
0.00890686
0.00615327
0.00981489
0.00565259
0.0108024
0.00510579
0.0118762
0.00450787
0.0130444
0.00385247
0.0143167
0.00313178
0.0157046
0.00233645
0.0172223
0.00145517
0.0188849
0.000476443
0.0207128
-0.00061723
0.0227284
-0.00183917
0.0249527
-0.00320766
0.0274125
-0.00473985
0.0301346
-0.00645391
0.0331432
-0.00836245
0.0364686
-0.0104893
0.0401131
-0.0128054
0.0441395
-0.0154194
0.0484363
-0.0180246
-0.0213928
0.0533118
0.000111214
0.000985645
0.000378832
0.00270717
0.000755007
0.004191
0.00120217
0.00541661
0.00169243
0.00638059
0.00220733
0.00709454
0.00273696
0.00758122
0.00327845
0.00786987
0.00383423
0.00799182
0.00441026
0.00797701
0.00501451
0.00785176
0.00565576
0.00763762
0.00634287
0.0073511
0.00708433
0.00700403
0.00788819
0.0066041
0.00876214
0.00615556
0.00971381
0.00565982
0.0107511
0.00511597
0.0118826
0.00452106
0.0131181
0.00387032
0.0144688
0.00315721
0.0159478
0.00237346
0.0175708
0.00150875
0.0193552
0.000552021
0.021323
-0.000512603
0.0234989
-0.00169948
0.0259075
-0.00302585
0.0285783
-0.00450988
0.0315407
-0.00617014
0.0348248
-0.00802392
0.0384596
-0.0100887
0.0424665
-0.0123694
0.0468731
-0.0148958
0.051662
-0.0175943
0.0569018
-0.0206592
0.0624116
-0.0235344
-0.027504
0.0685229
0.000107831
0.000877813
0.000374184
0.00244082
0.000757612
0.00380758
0.00122465
0.00494957
0.00174945
0.00585579
0.0023139
0.0065301
0.00290726
0.00698786
0.00352526
0.00725187
0.0041688
0.00734828
0.00484256
0.00730326
0.00555365
0.00714067
0.00631065
0.00688062
0.00712279
0.00653896
0.00799961
0.00612721
0.00895082
0.00565289
0.00998644
0.00511994
0.011117
0.00452921
0.0123542
0.00387881
0.0137109
0.00316436
0.015202
0.00237922
0.0168448
0.00151439
0.0186588
0.000559495
0.0206675
-0.000499939
0.022898
-0.00167845
0.0253779
-0.00299252
0.0281389
-0.00446044
0.0312138
-0.0061008
0.0346359
-0.00793195
0.0384365
-0.00997078
0.0426429
-0.0122303
0.0472762
-0.014722
0.0523454
-0.0174386
0.0578562
-0.0204066
0.0637702
-0.0235083
0.0701133
-0.0270023
0.0767
-0.030121
-0.0345321
0.0837281
0.000100538
0.000777275
0.00035551
0.00218585
0.000731222
0.00343187
0.00119968
0.00448111
0.00173838
0.0053171
0.00233072
0.00593775
0.00296616
0.00635242
0.00363972
0.0065783
0.00435128
0.00663672
0.00510453
0.00655001
0.005906
0.0063392
0.00676422
0.0060224
0.00768915
0.00561403
0.00869183
0.00512454
0.00978434
0.00456037
0.01098
0.00392429
0.0122936
0.0032156
0.013742
0.00243045
0.0153443
0.00156204
0.0171223
0.0006012
0.0191014
-0.000464732
0.0213111
-0.00165016
0.0237819
-0.00297071
0.0265478
-0.00444436
0.0296446
-0.00608938
0.0331082
-0.00792397
0.0369722
-0.00996483
0.0412659
-0.0122257
0.0460109
-0.0147158
0.0512185
-0.0174379
0.0568849
-0.0203884
0.0629926
-0.0235463
0.0695002
-0.0269142
0.0763552
-0.0303634
0.0834777
-0.0341248
0.0907744
-0.0374177
-0.0419169
0.0981592
8.96804e-05
0.000687595
0.000323933
0.0019516
0.000677883
0.00307792
0.00113009
0.00402891
0.00166251
0.00478468
0.00226119
0.00533907
0.00291677
0.00569684
0.00362456
0.00587051
0.0043842
0.00587708
0.00519912
0.00573509
0.00607595
0.00546236
0.00702399
0.00507436
0.0080548
0.00458323
0.00918208
0.00399725
0.0104218
0.0033207
0.0117921
0.0025539
0.0133143
0.00169345
0.0150125
0.000732279
0.016914
-0.000339498
0.019051
-0.0015358
0.0214571
-0.00287082
0.0241688
-0.00436192
0.0272248
-0.00602663
0.0306628
-0.00788237
0.0345183
-0.00994491
0.0388213
-0.012227
0.0435932
-0.0147367
0.0488434
-0.0174759
0.0545664
-0.0204388
0.0607388
-0.0236103
0.0673161
-0.0269657
0.0742382
-0.0304685
0.0814073
-0.0340832
0.0887555
-0.0377115
0.0960873
-0.0414567
0.10344
-0.04477
-0.0488701
0.110393
7.57167e-05
0.000611878
0.000281167
0.00174614
0.000601129
0.00275795
0.00102154
0.00360849
0.00152975
0.00427647
0.00211549
0.00475333
0.0027717
0.00504063
0.00349509
0.00514713
0.00428625
0.00508592
0.00514965
0.0048717
0.00609337
0.00451864
0.00712899
0.00403874
0.00827147
0.00344074
0.00953923
0.00272949
0.0109543
0.00190567
0.0125425
0.000965663
0.0143329
-9.69172e-05
0.0163605
-0.00129535
0.0186619
-0.00264088
0.0212762
-0.00415009
0.0242447
-0.0058393
0.0276073
-0.00772461
0.031401
-0.00982025
0.0356556
-0.012137
0.0403913
-0.0146806
0.0456147
-0.0174504
0.0513157
-0.0204377
0.0574649
-0.0236251
0.0640127
-0.0269866
0.0708872
-0.0304848
0.0779991
-0.0340776
0.0852401
-0.0377095
0.0924826
-0.0413257
0.0996289
-0.0448579
0.106457
-0.0482845
0.11308
-0.0513936
-0.0547223
0.118933
5.92889e-05
0.000552589
0.000229696
0.00157574
0.000506312
0.00248134
0.00088309
0.00323172
0.00135355
0.00380601
0.00191209
0.0041948
0.0025552
0.00439752
0.00328242
0.00441991
0.004097
0.00427133
0.00500632
0.00396238