/*--------------------------------*- C++ -*----------------------------------*\
| =========                 |                                                 |
| \\      /  F ield         | OpenFOAM: The Open Source CFD Toolbox           |
|  \\    /   O peration     | Version:  2312                                  |
|   \\  /    A nd           | Website:  www.openfoam.com                      |
|    \\/     M anipulation  |                                                 |
\*---------------------------------------------------------------------------*/
FoamFile
{
    version     2.0;
    format      ascii;
    arch        "LSB;label=32;scalar=64";
    class       surfaceScalarField;
    location    "82.65";
    object      phi;
}
// * * * * * * * * * * * * * * * * * * * * * * * * * * * * * * * * * * * * * //

dimensions      [0 3 -1 0 0 0 0];

oriented        oriented;

internalField   nonuniform List<scalar> 
10785
(
0.000119807
0.00363396
-0.00375377
0.00323057
0.00303237
-0.00614313
0.0118127
-0.00614301
-0.00243913
0.0285897
-0.0250781
0.00830103
0.0540099
-0.0519417
0.0265215
0.0848806
-0.0819415
0.0510707
0.115957
-0.110106
0.0790297
0.142355
-0.133114
0.106716
0.161228
-0.149739
0.130866
0.172446
-0.160689
0.149472
0.177985
-0.167697
0.162157
0.181302
-0.172765
0.169448
0.184466
-0.177489
0.174326
0.188245
-0.180556
0.176777
-0.184953
0.180292
0.192906
0.000283414
0.00335055
0.00509195
-0.00177617
0.0184912
-0.0195423
0.0419474
-0.0485342
0.071481
-0.0814753
0.100639
-0.111099
0.124274
-0.133741
0.140264
-0.149104
0.149555
-0.15903
0.154838
-0.165971
0.158936
-0.171796
0.163623
-0.177452
0.168855
-0.182721
0.176024
-0.187725
-0.193488
0.184559
0.0011233
0.00222725
0.00929827
-0.00995114
0.0286197
-0.0388637
0.0556711
-0.0755856
0.0826481
-0.108452
0.10391
-0.132361
0.117907
-0.147738
0.126289
-0.157486
0.131811
-0.164552
0.136557
-0.170717
0.141363
-0.176602
0.14614
-0.182229
0.151088
-0.187669
0.156463
-0.1931
-0.198302
0.161278
0.00240835
-0.000181098
0.0150678
-0.0226106
0.0383993
-0.0621952
0.0635206
-0.100707
0.0834883
-0.12842
0.0966415
-0.145514
0.10474
-0.155837
0.110231
-0.162976
0.114647
-0.168968
0.118536
-0.174607
0.122091
-0.180157
0.125697
-0.185835
0.12978
-0.191751
0.134617
-0.197937
-0.204664
0.140979
0.00410209
-0.00428319
0.0209059
-0.0394144
0.0440555
-0.0853448
0.063723
-0.120374
0.0768656
-0.141563
0.0848067
-0.153455
0.0897786
-0.160809
0.0932996
-0.166497
0.0961554
-0.171824
0.0988279
-0.177279
0.101696
-0.183025
0.104937
-0.189077
0.108498
-0.195313
0.112469
-0.201908
-0.208478
0.116283
0.00624475
-0.0105279
0.0250498
-0.0582194
0.0446059
-0.104901
0.0584411
-0.13421
0.0665527
-0.149674
0.0710414
-0.157944
0.0737458
-0.163513
0.0757605
-0.168512
0.0776233
-0.173687
0.0795234
-0.179179
0.0814715
-0.184973
0.0834312
-0.191036
0.0855652
-0.197446
0.0878505
-0.204194
-0.211217
0.0905897
0.00827439
-0.0188023
0.0261952
-0.0761402
0.0411644
-0.11987
0.050074
-0.143119
0.0544789
-0.154079
0.0565606
-0.160026
0.0577118
-0.164665
0.0585349
-0.169335
0.0591955
-0.174347
0.0597541
-0.179738
0.0603009
-0.185519
0.0610009
-0.191736
0.0618933
-0.198339
0.0630088
-0.205309
-0.212536
0.0643281
0.00954516
-0.0283475
0.0247146
-0.0913096
0.0352024
-0.130358
0.0402073
-0.148124
0.0419285
-0.1558
0.0421933
-0.160291
0.0418966
-0.164368
0.0413409
-0.168779
0.0406516
-0.173658
0.0399134
-0.179
0.0391861
-0.184792
0.0384606
-0.191011
0.0377931
-0.197671
0.0372474
-0.204763
0.0370115
-0.2123
-0.00183928
0.0151709
-0.0133316
-0.00606762
0.0236981
-0.0194697
-0.011765
0.0240778
-0.0183805
-0.0183893
0.021969
-0.0153446
-0.0256605
0.0185092
-0.0112381
-0.0334554
0.0131664
-0.00537141
-0.0413337
0.00521123
0.00266705
-0.0491017
-0.00545516
0.0132232
-0.0565296
-0.0192332
0.026661
-0.0630855
-0.036183
0.0427389
-0.0682132
-0.0556533
0.0607811
-0.0713054
-0.0766092
0.0797014
-0.0719514
-0.0974508
0.0980967
-0.0695405
-0.116131
0.113721
-0.1316
-0.0628502
0.12491
-0.000376801
0.0155477
-0.00254007
0.0258613
-0.00592121
0.027459
-0.00983495
0.0258827
-0.0139143
0.0225886
-0.0180267
0.0172788
-0.0221337
0.00931818
-0.0258724
-0.00171647
-0.0291078
-0.0159977
-0.0316294
-0.0336614
-0.0332258
-0.0540569
-0.0339528
-0.0758823
-0.0341607
-0.0972428
-0.0340681
-0.116224
-0.131332
-0.0343362
0.00126379
0.0142839
0.00170027
0.0254249
0.00130829
0.027851
0.000829568
0.0263614
0.000730259
0.0226879
0.00120378
0.0168053
0.00237135
0.0081506
0.00448147
-0.00382658
0.00803475
-0.019551
0.0134438
-0.0390704
0.0205065
-0.0611195
0.029555
-0.0849308
0.0382428
-0.105931
0.0468683
-0.12485
-0.135727
0.0512631
0.00249186
0.011792
0.00534076
0.022576
0.00792961
0.0252621
0.010805
0.0234861
0.0145223
0.0189706
0.0193825
0.0119451
0.0254891
0.00204396
0.0334929
-0.0118304
0.043824
-0.0298822
0.0569103
-0.0521567
0.0725774
-0.0767867
0.0902733
-0.102627
0.108436
-0.124093
0.125839
-0.142253
-0.151491
0.141603
0.00296563
0.00882642
0.0073834
0.0181582
0.0121825
0.020463
0.0176516
0.018017
0.0243375
0.0122846
0.0326919
0.00359074
0.0436498
-0.00891394
0.0577095
-0.0258901
0.0754519
-0.0476246
0.0964682
-0.073173
0.119477
-0.0997957
0.142386
-0.125535
0.162842
-0.144549
0.180974
-0.160385
-0.165354
0.194838
0.00263301
0.00619341
0.0074179
0.0133733
0.0132718
0.0146092
0.02032
0.0109687
0.029243
0.00336163
0.0413657
-0.00853196
0.0577461
-0.0252943
0.0789729
-0.0471169
0.104456
-0.0731073
0.131916
-0.100633
0.158758
-0.126638
0.181701
-0.148479
0.199722
-0.162571
0.212553
-0.173215
-0.172588
0.219786
0.00173064
0.00446277
0.00582443
0.00927951
0.0117559
0.00867766
0.0199988
0.00272583
0.0321301
-0.00876959
0.049691
-0.0260929
0.0733437
-0.0489469
0.10187
-0.0756431
0.132122
-0.103359
0.160172
-0.128684
0.183002
-0.149467
0.198053
-0.16353
0.207675
-0.172192
0.211113
-0.176654
-0.1758
0.214326
0.000709006
0.00384539
0.0100839
0.0211108
0.0388627
0.0638405
0.0939232
0.124996
0.152503
0.173291
0.185981
0.191899
0.194032
0.194156
0.198648
-0.0356724
-0.300155
0.272977
0.0290414
-0.25892
0.194206
0.103444
-0.0917676
0.0173655
0.158735
0.133262
-0.188554
0.196575
0.29218
-0.33002
0.209371
0.334767
-0.347564
0.183413
0.381718
-0.35576
0.159344
0.408131
-0.384062
0.177291
0.240678
-0.258625
0.221439
-0.059488
0.01534
0.257228
-0.234683
0.198894
0.256037
-0.274127
0.275318
0.247516
-0.345136
0.353658
0.250725
-0.399816
0.396607
0.258822
-0.350512
0.342416
0.270544
-0.138896
0.127174
0.282374
0.156548
-0.168378
0.29434
0.399979
-0.411945
0.301109
0.537835
-0.544604
0.302907
0.438549
-0.440347
0.299839
0.0443608
-0.0412922
0.296747
-0.397252
0.400343
0.297091
-0.629347
0.629004
0.30788
-0.456832
0.446042
0.314665
0.226476
-0.23326
0.309332
0.772649
-0.767316
0.288363
0.460447
-0.439478
0.270603
-0.306782
0.324542
0.280112
-0.503427
0.493918
0.278631
0.0551655
-0.0536842
0.253463
0.400798
-0.37563
0.223689
0.230878
-0.201103
0.218014
-0.170259
0.175934
0.230569
-0.141203
0.128648
0.240547
0.0785652
-0.0885432
0.22966
0.338078
-0.327191
0.207605
0.26928
-0.247224
-0.0890742
0.0960406
-0.0491203
-0.285371
-0.0273939
-0.280646
0.0450162
-0.164178
0.127208
0.0510704
0.190574
0.228814
0.212645
0.312696
0.194041
0.400322
0.184051
0.418121
0.202718
0.22201
0.230773
-0.087543
0.260513
-0.264422
0.258753
-0.272368
0.245483
-0.331866
0.249438
-0.403771
0.257168
-0.358243
0.26792
-0.149647
0.28199
0.142478
0.295682
0.386287
0.304276
0.529241
0.305973
0.436851
0.297356
0.0529785
0.288807
-0.388703
0.285486
-0.626027
0.297569
-0.468915
0.314097
0.209948
0.315982
0.770764
0.292771
0.483659
0.268463
-0.282474
0.278588
-0.513552
0.281569
0.0521839
0.258293
0.424073
0.22764
0.261531
0.22104
-0.163659
0.233343
-0.153506
0.243689
0.0682192
0.233772
0.347994
0.21186
0.291192
-0.0815432
0.00289689
-0.237005
-0.0278594
-0.24989
0.0120533
-0.20409
0.112856
-0.0497326
0.199075
0.142596
0.226651
0.28512
0.214276
0.412697
0.214531
0.417866
0.230802
0.205739
0.241892
-0.0986331
0.260419
-0.282949
0.25702
-0.268969
0.236468
-0.311314
0.239353
-0.406656
0.250744
-0.369634
0.262471
-0.161375
0.278998
0.125951
0.294561
0.370724
0.304875
0.518928
0.30613
0.435596
0.2923
0.0668077
0.278056
-0.374458
0.270745
-0.618716
0.283059
-0.481229
0.309688
0.183318
0.319783
0.76067
0.294879
0.508562
0.263998
-0.251593
0.274109
-0.523663
0.282534
0.0437589
0.262248
0.44436
0.230958
0.29282
0.223235
-0.155936
0.235315
-0.165586
0.246258
0.0572764
0.237803
0.356449
0.216321
0.312673
-0.0735561
0.10234
-0.197742
0.038694
-0.186244
0.0190532
-0.18445
0.0925322
-0.123212
0.188355
0.046773
0.224364
0.249111
0.22339
0.41367
0.236638
0.404619
0.254
0.188377
0.251567
-0.0962
0.256915
-0.288297
0.255833
-0.267887
0.229807
-0.285288
0.224908
-0.401756
0.240028
-0.384754
0.255791
-0.177137
0.273325
0.108417
0.287905
0.356143
0.299359
0.507474
0.301406
0.433549
0.284862
0.083352
0.265346
-0.354943
0.254227
-0.607596
0.265538
-0.49254
0.300671
0.148184
0.318717
0.742624
0.293431
0.533849
0.257412
-0.215574
0.266828
-0.53308
0.281471
0.0291159
0.265071
0.46076
0.233464
0.324427
0.22455
-0.147022
0.236553
-0.177589
0.248269
0.0455598
0.241535
0.363183
0.220763
0.333445
-0.0653206
0.172867
-0.175772
0.133492
-0.146869
0.0753956
-0.126353
0.0795548
-0.127371
0.155141
-0.0288131
0.208983
0.195269
0.226688
0.395965
0.249949
0.381358
0.270889
0.167437
0.260215
-0.0855257
0.249516
-0.277598
0.24716
-0.265531
0.220512
-0.25864
0.205906
-0.38715
0.222033
-0.400882
0.244344
-0.199449
0.264905
0.0878569
0.280084
0.340964
0.292675
0.494883
0.294883
0.431342
0.275265
0.102969
0.251072
-0.33075
0.235909
-0.592433
0.245188
-0.501819
0.288317
0.105056
0.315328
0.715612
0.290094
0.559083
0.249386
-0.174867
0.257447
-0.541141
0.278442
0.00812082
0.266636
0.472566
0.235074
0.35599
0.224963
-0.136911
0.237089
-0.189715
0.249731
0.0329179
0.244815
0.3681
0.225048
0.353212
-0.0571107
0.190146
-0.146132
0.175723
-0.132445
0.144584
-0.0952146
0.108563
-0.0913503
0.130383
-0.050633
0.185787
0.139866
0.221834
0.359918
0.255074
0.348118
0.278408
0.144103
0.265559
-0.0726758
0.24227
-0.25431
0.235854
-0.259115
0.211294
-0.23408
0.187285
-0.363141
0.199299
-0.412896
0.228738
-0.228888
0.253115
0.0634805
0.267391
0.326688
0.280267
0.482007
0.284384
0.427224
0.264014
0.12334
0.23611
-0.302846
0.217072
-0.573395
0.223937
-0.508684
0.271756
0.0572373
0.306283
0.681085
0.283129
0.582237
0.239863
-0.1316
0.246208
-0.547486
0.273455
-0.0191267
0.266866
0.479155
0.235737
0.387119
0.224474
-0.125647
0.236905
-0.202147
0.25063
0.0191927
0.247575
0.371155
0.229123
0.371664
-0.0492241
0.185014
-0.11682
0.16604
-0.113472
0.161136
-0.0903105
0.148371
-0.0785846
0.152034
-0.0542959
0.19219
0.0997091
0.235331
0.316776
0.265147
0.318302
0.280119
0.129131
0.260713
-0.05327
0.229889
-0.223485
0.219736
-0.248963
0.19848
-0.212823
0.169375
-0.334036
0.173246
-0.416766
0.207984
-0.263627
0.240272
0.0311926
0.256079
0.310881
0.268885
0.4692
0.273809
0.4223
0.252089
0.14506
0.220924
-0.27168
0.198119
-0.550591
0.202137
-0.512702
0.254116
0.00525766
0.297031
0.63817
0.275607
0.603661
0.230034
-0.0860266
0.233724
-0.551176
0.266715
-0.0521174
0.265563
0.480307
0.235329
0.417353
0.223064
-0.113382
0.235954
-0.215037
0.250934
0.00421309
0.249778
0.372311
0.232974
0.388469
-0.0419652
0.176137
-0.0943098
0.157738
-0.0950718
0.148896
-0.0814691
0.145417
-0.075105
0.149516
-0.0583957
0.189395
0.0598308
0.238161
0.26801
0.272467
0.283996
0.285305
0.116293
0.260365
-0.0283299
0.221251
-0.184371
0.205471
-0.233183
0.185046
-0.192398
0.152341
-0.301331
0.147557
-0.411983
0.181942
-0.298011
0.219661
-0.0065268
0.239119
0.291424
0.252035
0.456284
0.259671
0.414664
0.24066
0.164072
0.205838
-0.236859
0.180068
-0.52482
0.181114
-0.513748
0.231382
-0.0450106
0.280963
0.588589
0.264215
0.620409
0.218882
-0.0406938
0.220296
-0.55259
0.258045
-0.0898665
0.262964
0.475388
0.234161
0.446155
0.220868
-0.100089
0.234246
-0.228415
0.250597
-0.0121376
0.251476
0.371432
0.236648
0.403297
-0.0355733
0.414764
-0.0631137
-0.44596
0.387161
-0.067469
0.358193
-0.0525004
0.330228
-0.0471406
0.294162
-0.0223291
0.28269
0.0713022
0.338343
0.212357
0.436535
0.185804
0.503973
0.0488549
0.511873
-0.0362307
0.485549
-0.158047
0.452126
-0.199759
0.427668
-0.16794
0.402009
-0.275672
0.36639
-0.376363
0.342606
-0.274227
0.321056
0.0150232
0.28764
0.32484
0.301228
0.442695
0.366772
0.34912
0.410347
0.120497
0.414008
-0.24052
0.381224
-0.492036
0.325474
-0.457998
0.324279
-0.0438155
0.366614
0.546254
0.385314
0.601709
0.373856
-0.0292357
0.371826
-0.550559
0.39076
-0.108801
0.384827
0.481322
0.357785
0.473197
0.350555
-0.0928589
0.365461
-0.243321
0.378516
-0.0251931
0.375659
0.374289
0.356507
0.422449
-0.0241166
0.448809
-0.0384774
-0.473445
0.425601
-0.0442607
0.40571
-0.0326102
0.386403
-0.0278329
0.36718
-0.00310627
0.381427
0.0570546
0.452875
0.140909
0.524267
0.114413
0.550291
0.0228308
0.540269
-0.0262094
0.510675
-0.128453
0.470865
-0.159949
0.445392
-0.142467
0.422846
-0.253126
0.38153
-0.335047
0.348094
-0.24079
0.315387
0.0477298
0.279833
0.360394
0.314855
0.407673
0.404451
0.259525
0.454278
0.0706702
0.447702
-0.233944
0.399435
-0.44377
0.332722
-0.391285
0.323838
-0.0349315
0.37647
0.493622
0.411016
0.567164
0.405491
-0.0237108
0.403363
-0.548432
0.423083
-0.128521
0.420372
0.484033
0.395345
0.498224
0.389665
-0.0871783
0.406272
-0.259928
0.419506
-0.0384267
0.418091
0.375704
0.400752
0.439788
-0.0120758
0.491089
-0.0217266
-0.50784
0.473688
-0.0268591
0.459998
-0.0189206
0.445911
-0.0137461
0.435456
0.00734868
0.45648
0.0360313
0.512445
0.0849439
0.557527
0.069331
0.573285
0.00707235
0.566535
-0.0194592
0.541264
-0.103182
0.510046
-0.128731
0.495528
-0.127949
0.463645
-0.221244
0.392154
-0.263556
0.335732
-0.184369
0.297882
0.0855802
0.280444
0.377832
0.347853
0.340263
0.451408
0.15597
0.503103
0.0189745
0.493311
-0.224151
0.42339
-0.373849
0.330464
-0.298359
0.314933
-0.0194006
0.387833
0.420722
0.447402
0.507594
0.444763
-0.0210719
0.438132
-0.5418
0.460033
-0.150422
0.460424
0.483641
0.437317
0.521331
0.432589
-0.0824501
0.450857
-0.278196
0.464655
-0.052225
0.465635
0.374724
0.451527
0.453896
0.000408722
0.535794
-0.0104181
-0.547102
0.52324
-0.0143051
0.512452
-0.00813263
0.505836
-0.00713048
0.50303
0.0101549
0.518082
0.0209794
0.556047
0.0469791
0.586028
0.0393493
0.594643
-0.00154187
0.589979
-0.0147957
0.571371
-0.0845745
0.537732
-0.0950915
0.511789
-0.102007
0.479461
-0.188916
0.400384
-0.184479
0.325039
-0.109023
0.301419
0.1092
0.33297
0.346281
0.427168
0.246065
0.515565
0.0675727
0.552052
-0.0175127
0.533424
-0.205523
0.444425
-0.284849
0.324878
-0.178813
0.30831
-0.00283288
0.414844
0.314188
0.500111
0.422328
0.496879
-0.0178403
0.478956
-0.523877
0.496246
-0.167712
0.499422
0.480466
0.482374
0.538379
0.480733
-0.0808089
0.500237
-0.2977
0.51494
-0.0669285
0.519855
0.369809
0.51
0.463751
0.0134133
0.584049
-0.0028933
-0.591573
0.576256
-0.00651215
0.569723
-0.00160043
0.566069
-0.00347592
0.566552
0.00967169
0.576596
0.0109357
0.599274
0.0243014
0.617486
0.0211372
0.626288
-0.0103442
0.621497
-0.0100045
0.607561
-0.070639
0.588556
-0.0760863
0.559167
-0.0726175
0.51733
-0.147079
0.444924
-0.112072
0.378173
-0.0422727
0.380998
0.106375
0.451235
0.276045
0.539486
0.157814
0.59394
0.0131192
0.604768
-0.0283412
0.582313
-0.183068
0.495691
-0.198228
0.362821
-0.0459422
0.339151
0.0208372
0.466697
0.186641
0.572205
0.31682
0.562339
-0.00797482
0.525246
-0.486784
0.535264
-0.17773
0.542235
0.473495
0.53498
0.545634
0.535472
-0.081301
0.553263
-0.315491
0.568102
-0.0817676
0.579011
0.3589
0.575752
0.467009
0.0263781
0.636913
0.00170789
-0.641515
0.632246
-0.00184515
0.628539
0.00210698
0.626316
-0.00125326
0.628764
0.00722433
0.633826
0.00587323
0.648195
0.00993232
0.658491
0.0108418
0.662616
-0.0144691
0.661841
-0.00922973
0.64342
-0.0522179
0.62457
-0.0572363
0.603025
-0.0510728
0.569801
-0.113855
0.518836
-0.0611076
0.475012
0.00155133
0.507047
0.0743403
0.586943
0.196149
0.644592
0.100165
0.665121
-0.00741032
0.650291
-0.0135107
0.615897
-0.148674
0.55685
-0.139181
0.456317
0.0545909
0.424008
0.0531461
0.536537
0.0741129
0.64911
0.204247
0.638324
0.00281107
0.577153
-0.425613
0.57602
-0.176597
0.59203
0.457485
0.597063
0.540601
0.598261
-0.0824988
0.610599
-0.327828
0.625397
-0.0965657
0.645209
0.339088
0.650192
0.462026
0.0393369
0.694236
0.0041469
-0.696675
0.691356
0.00103537
0.689855
0.00360842
0.688176
0.000425203
0.690799
0.00460172
0.693137
0.00353524
0.701044
0.00202452
0.706669
0.00521777
0.707041
-0.0148413
0.70681
-0.00899887
0.69186
-0.0372683
0.680051
-0.0454268
0.661155
-0.0321767
0.62526
-0.0779604
0.596847
-0.0326945
0.581953
0.0164455
0.617405
0.0388878
0.682679
0.130875
0.715934
0.0669095
0.726607
-0.0180834
0.707944
0.00515222
0.661265
-0.101995
0.625782
-0.103697
0.589222
0.0911502
0.567624
0.0747446
0.630193
0.0115433
0.720033
0.114407
0.714521
0.00832329
0.63119
-0.342282
0.600584
-0.145992
0.629242
0.428828
0.664699
0.505144
0.671207
-0.0890072
0.671184
-0.327806
0.682471
-0.107852
0.713704
0.307855
0.729511
0.446219
0.0512451
0.755884
0.00500737
-0.756745
0.754175
0.00274489
0.753881
0.00390253
0.752672
0.00163355
0.754495
0.00277948
0.755667
0.00236256
0.75891
-0.0012177
0.762492
0.00163532
0.759985
-0.012334
0.75976
-0.00877446
0.747046
-0.0245541
0.734434
-0.0328148
0.722985
-0.0207282
0.695137
-0.0501121
0.681564
-0.0191213
0.679887
0.0181227
0.701527
0.0172481
0.751868
0.0805339
0.770273
0.0485043
0.768712
-0.0165216
0.763672
0.0101917
0.723213
-0.0615356
0.697435
-0.0779196
0.705625
0.0829599
0.705104
0.0752664
0.723926
-0.00727955
0.775546
0.0627873
0.773432
0.0104374
0.682231
-0.251081
0.626759
-0.0905191
0.67793
0.377656
0.755149
0.427925
0.76038
-0.0942382
0.736284
-0.30371
0.738612
-0.11018
0.783297
0.263171
0.812873
0.416643
0.0612487
0.822466
0.0050608
-0.82252
0.821606
0.00360525
0.821692
0.00381675
0.820975
0.00235005
0.821802
0.00195252
0.822363
0.00180146
0.822987
-0.00184108
0.824576
4.57156e-05
0.821158
-0.00891521
0.819793
-0.00741024
0.810977
-0.0157374
0.800621
-0.0224591
0.793622
-0.0137288
0.772783
-0.0292733
0.765378
-0.0117164
0.770279
0.0132214
0.778421
0.00910661
0.812438
0.0465168
0.828927
0.0320147
0.825307
-0.0129011
0.825096
0.0104025
0.794756
-0.0311953
0.76954
-0.0527039
0.791131
0.0613689
0.804634
0.0617639
0.804268
-0.00691363
0.829973
0.0370819
0.827027
0.0133837
0.744794
-0.168848
0.694564
-0.0402891
0.776138
0.296082
0.873134
0.330928
0.858275
-0.0793785
0.802
-0.247436
0.794611
-0.102791
0.853589
0.204193
0.894943
0.375288
0.0694295
0.894612
0.00481816
-0.89437
0.894295
0.00392283
0.894459
0.00365202
0.894054
0.00275495
0.89421
0.00179672
0.894295
0.0017167
0.893696
-0.00124165
0.89393
-0.000188997
0.890867
-0.0058524
0.888646
-0.00518907
0.882782
-0.009873
0.874102
-0.0137788
0.869181
-0.00880849
0.856264
-0.0163556
0.851179
-0.00663178
0.85675
0.00765004
0.860295
0.00556142
0.881171
0.0256412
0.893657
0.0195291
0.888029
-0.00727345
0.89028
0.00815122
0.873874
-0.0147891
0.851621
-0.0304509
0.869617
0.0433731
0.885382
0.0459993
0.877
0.00146746
0.888987
0.0250949
0.888935
0.0134359
0.826615
-0.106528
0.797406
-0.0110803
0.891188
0.202301
0.981013
0.241103
0.947854
-0.0462194
0.865994
-0.165575
0.845496
-0.0822932
0.909269
0.14042
0.961988
0.322569
0.0704747
0.973127
0.00444912
-0.972758
0.973115
0.00393543
0.973261
0.00350542
0.973005
0.00301186
0.972833
0.00196863
0.972572
0.00197684
0.971638
-0.000306991
0.971043
0.000405865
0.968481
-0.00329047
0.966103
-0.00281144
0.961862
-0.00563164
0.955773
-0.00768952
0.952136
-0.00517174
0.944512
-0.0087319
0.941046
-0.0031655
0.944933
0.00376347
0.946993
0.00350083
0.958835
0.0137997
0.967614
0.0107494
0.964343
-0.00400201
0.965615
0.0068788
0.956815
-0.00598857
0.94023
-0.0138656
0.951213
0.0323897
0.964984
0.0322286
0.957208
0.0092429
0.961451
0.0208518
0.963056
0.0118309
0.921024
-0.0644959
0.904936
0.00500809
0.984607
0.12263
1.05791
0.167804
1.02467
-0.0129845
0.938817
-0.0797209
0.908107
-0.0515837
0.965616
0.0829111
1.02753
0.260658
0.0616303
1.05883
0.00407245
-1.05845
1.05893
0.00382984
1.05905
0.00339016
1.05887
0.00318389
1.05859
0.00224949
1.05818
0.00238983
1.05722
0.000658607
1.05636
0.00126081
1.0543
-0.00122932
1.05221
-0.000724309
1.04924
-0.00266441
1.04507
-0.00351641
1.04232
-0.00242241
1.03784
-0.00425345
1.03569
-0.00101161
1.0378
0.00164923
1.03914
0.0021646
1.04602
0.00692432
1.05091
0.00585225
1.04893
-0.00201739
1.05021
0.00559933
1.0452
-0.000975879
1.03513
-0.00380262
1.04206
0.0254571
1.05067
0.0236245
1.0444
0.0155129
1.0458
0.0194501
1.04784
0.00978724
1.02135
-0.0380054
1.01443
0.0119363
1.07159
0.0654628
1.12381
0.115592
1.09742
0.0134
1.02995
-0.012255
1.00502
-0.0266523
1.05323
0.0347058
1.11122
0.202668
0.0504383
1.15245
0.00372829
-1.15211
1.15262
0.00365927
1.15273
0.00327933
1.15263
0.0032845
1.15237
0.0025107
1.15196
0.00280128
1.15115
0.00146656
1.15031
0.00210619
1.14878
0.000296703
1.14713
0.000925512
1.14501
-0.000546476
1.14227
-0.000767576
1.14029
-0.000445402
1.13766
-0.0016277
1.1363
0.000349818
1.13736
0.000594165
1.13799
0.00152956
1.14188
0.0030399
1.14469
0.00303744
1.14354
-0.000864128
1.14488
0.00426087
1.14189
0.00201268
1.13568
0.00240441
1.1401
0.0210372
1.14507
0.018654
1.14097
0.0196113
1.14209
0.0183341
1.1436
0.00827759
1.127
-0.0214081
1.12617
0.012763
1.16584
0.0258018
1.20075
0.0806806
1.18029
0.0338574
1.13591
0.0321275
1.12358
-0.0143232
1.16075
-0.00246216
1.2062
0.157218
0.0417974
1.25491
0.00339711
-1.25458
1.25511
0.00345185
1.25524
0.00315274
1.25521
0.00331557
1.25503
0.00268899
1.25472
0.00311423
1.25412
0.00206035
1.25345
0.00278367
1.25237
0.00137118
1.25118
0.00212018
1.24973
0.000897407
1.24799
0.00097955
1.2466
0.000940271
1.24506
-8.13167e-05
1.24414
0.00126201
1.24459
0.000142378
1.24485
0.00127763
1.24687
0.00101303
1.24847
0.00144432
1.2477
-0.000101122
1.24869
0.00327242
1.24719
0.0035125
1.24375
0.00584266
1.24659
0.0181965
1.24918
0.0160639
1.24665
0.0221453
1.24769
0.0172921
1.24918
0.00678771
1.23964
-0.0118684
1.24319
0.00921896
1.26957
-0.000582224
1.29046
0.0597875
1.27561
0.0487165
1.25071
0.0570191
1.24822
-0.0118341
1.27188
-0.0261174
1.30418
0.124921
0.0347159
1.36705
0.00308029
-1.36674
1.36729
0.00321868
1.36745
0.00298836
1.36751
0.00326019
1.36744
0.00275548
1.36727
0.00328336
1.36691
0.0024268
1.36646
0.00322646
1.36577
0.00206527
1.365
0.00289203
1.36407
0.00182695
1.363
0.00204838
1.36209
0.0018531
1.36118
0.000824797
1.36057
0.00187569
1.36069
1.31929e-05
1.36073
0.00124233
1.36166
8.27427e-05
1.36256
0.000546951
1.36209
0.000365443
1.36284
0.00252685
1.3622
0.00414885
1.36044
0.00760155
1.36235
0.0162843
1.36367
0.0147437
1.3628
0.0230183
1.36418
0.0159125
1.36545
0.00552123
1.36034
-0.00676392
1.36563
0.00392691
1.38198
-0.0169252
1.39443
0.0473326
1.38544
0.0577133
1.3746
0.0678543
1.37548
-0.0127138
1.387
-0.037633
1.41042
0.101493
0.0281972
1.48982
0.00274721
-1.48949
1.4901
0.0029415
1.49032
0.00276236
1.49048
0.00310808
1.49053
0.00269855
1.49053
0.00329043
1.49037
0.00258214
1.49017
0.00342487
1.48979
0.00244253
1.48937
0.00331694
1.48884
0.00236024
1.48823
0.0026546
1.48769
0.00239459
1.48716
0.00135251
1.48677
0.00226981
1.48677
1.25869e-05
1.48669
0.00132242
1.48711
-0.00033715
1.48753
0.000122295
1.48725
0.000645365
1.48784
0.00194301
1.48756
0.00442848
1.487
0.00816054
1.48858
0.0146969
1.4893
0.0140298
1.48957
0.0227443
1.49132
0.0141649
1.49256
0.00428127
1.4902
-0.00440103
1.4962
-0.00208065
1.50543
-0.0261469
1.5121
0.04066
1.50792
0.0618954
1.50674
0.0690324
1.50882
-0.0147964
1.51143
-0.0402446
1.52891
0.0840168
0.0220989
1.62418
0.00237492
-1.6238
1.62451
0.00260658
1.62482
0.00245254
1.62508
0.00284475
1.62528
0.00250098
1.62545
0.00312172
1.6255
0.00253807
1.62555
0.00337362
1.62542
0.00256556
1.62533
0.00341188
1.62509
0.00260144
1.62484
0.00290232
1.62459
0.00264744
1.62429
0.00165316
1.62409
0.00246612
1.62398
0.000123643
1.62382
0.00147699
1.62392
-0.000436316
1.62395
9.96039e-05
1.62374
0.000856097
1.62421
0.00146857
1.62409
0.00454671
1.62456
0.00768721
1.62625
0.0130103
1.62703
0.0132488
1.62882
0.0209586
1.6309
0.0120808
1.63156
0.00362549
1.63068
-0.0035199
1.63558
-0.00698717
1.6382
-0.0287677
1.64249
0.0363707
1.64439
0.0599952
1.65065
0.0627788
1.65
-0.0141501
1.64642
-0.0366653
1.66261
0.0678242
0.0163753
1.77122
0.00194077
-1.77079
1.77164
0.0021931
1.77205
0.00203608
1.77244
0.00245449
1.77279
0.00215053
1.77315
0.00276852
1.77338
0.00230262
1.77368
0.00306999
1.77378
0.00247469
1.77399
0.00319435
1.77397
0.00262468
1.77402
0.00284983
1.77399
0.00267782
1.77383
0.00181762
1.77383
0.00246829
1.77355
0.00039512
1.77338
0.00165456
1.77321
-0.000269108
1.77283
0.000482122
1.77267
0.00101269
1.77296
0.00118165
1.77293
0.0045786
1.77439
0.0062207
1.77627
0.0111284
1.77763
0.0118905
1.781
0.0175939
1.78313
0.0099426
1.78315
0.00361513
1.78347
-0.00384618
1.78662
-0.0101344
1.783
-0.0251515
1.78622
0.0331495
1.79465
0.0515653
1.80615
0.0512865
1.80126
-0.00926849
1.79345
-0.0288559
1.81052
0.0507595
0.0108545
1.93183
0.00150372
-1.93139
1.93232
0.00170684
1.9328
0.00155184
1.93335
0.00190447
1.93386
0.00163759
1.93449
0.00214352
1.93499
0.00180397
1.93569
0.00236935
1.93611
0.00205561
1.93681
0.00249295
1.93712
0.00231442
1.93757
0.00239786
1.93783
0.00241866
1.93766
0.00198491
1.93784
0.00228649
1.93696
0.00127729
1.9366
0.00202097
1.93562
0.000708791
1.93441
0.00168659
1.93406
0.00136333
1.93361
0.00163314
1.93413
0.00405742
1.93673
0.00362523
1.93945
0.00841005
1.9437
0.00764095
1.95023
0.0110584
1.95235
0.00781882
1.95128
0.00469023
1.95071
-0.00327198
1.94548
-0.00491326
1.93121
-0.0108759
1.93866
0.025699
1.96092
0.0293079
1.97999
0.032211
1.96827
0.00245001
1.95568
-0.0162641
1.97447
0.0319753
0.006051
2.10857
0.00119195
-2.10826
2.10899
0.00129196
2.10933
0.00121058
2.10984
0.0013953
2.11023
0.00124198
2.11086
0.00151515
2.11134
0.00132722
2.11208
0.00162782
2.11264
0.00149284
2.11342
0.00171701
2.11403
0.00169916
2.11464
0.00178799
2.11523
0.0018297
2.11538
0.00184034
2.1158
0.00186298
2.1153
0.00177254
2.11532
0.00200694
2.1145
0.00152334
2.11398
0.00220777
2.11365
0.00169355
2.11327
0.00201957
2.11428
0.00304354
2.11577
0.00213145
2.11883
0.00535306
2.12299
0.00348082
2.12825
0.00579529
2.13098
0.00509461
2.13067
0.00499624
2.12795
-0.000552414
2.11997
0.00307031
2.10874
0.000351461
2.11859
0.0158547
2.13804
0.00985457
2.15496
0.0152911
2.15086
0.00655457
2.13959
-0.00500202
2.14928
0.0222906
0.00351356
2.30242
0.000879319
-2.30211
2.30279
0.00092153
2.30309
0.000912243
2.3035
0.000983737
2.3038
0.000940798
2.30426
0.00105439
2.30461
0.000976297
2.30511
0.00113038
2.30557
0.00103162
2.30608
0.0012067
2.30666
0.00111441
2.30719
0.0012675
2.3078
0.00121285
2.30835
0.00129325
2.30889
0.00131799
2.30939
0.00127772
2.30997
0.00142603
2.31022
0.00127043
2.31094
0.00149502
2.31117
0.00146244
2.31163
0.0015587
2.3126
0.00206835
2.3129
0.00183039
2.31509
0.00316245
2.31643
0.00214271
2.31826
0.00396798
2.32077
0.00258555
2.32232
0.00344897
2.3205
0.00126024
2.31975
0.00382463
2.31927
0.000826704
2.32572
0.00941271
2.33007
0.00549929
2.33767
0.00769483
2.3419
0.00232638
2.33753
-0.000639135
2.3424
0.0174237
0.00235271
2.5138
0.00045455
-2.51337
2.51425
0.000472739
2.51468
0.000473883
2.51517
0.000503056
2.51562
0.000491289
2.51613
0.000537059
2.5166
0.000511619
2.51715
0.000574441
2.51764
0.000541167
2.51823
0.000616485
2.51876
0.000584539
2.51937
0.000661728
2.51994
0.000637337
2.52053
0.000706984
2.52115
0.000700291
2.52168
0.000745461
2.52233
0.000777681
2.52282
0.000777283
2.52347
0.000849578
2.52406
0.000866283
2.52476
0.000862104
2.52572
0.00111022
2.5267
0.000852646
2.52837
0.00148895
2.52957
0.000942316
2.53175
0.00178551
2.53317
0.00117315
2.53452
0.00209883
2.5348
0.000977876
2.53595
0.00267539
2.53546
0.00131048
2.54063
0.0042436
2.54468
0.00145471
2.54988
0.00249546
2.5503
0.00190131
2.54913
0.000529425
2.5583
0.00825407
0.00129629
2.74548
-2.74503
2.74595
2.74643
2.74693
2.74742
2.74796
2.74847
2.74904
2.74959
2.7502
2.75079
2.75145
2.75209
2.75279
2.75349
2.75424
2.75502
2.75579
2.75664
2.75751
2.75837
2.75948
2.76033
2.76182
2.76277
2.76455
2.76572
2.76782
2.7688
2.77148
2.77279
2.77703
2.77848
2.78098
2.78288
2.78341
2.79166
0.431672
0.0317067
-0.426367
0.437792
0.0582081
0.441281
0.0871001
0.446886
0.110678
0.447584
0.14028
0.450908
0.157954
0.44924
0.186226
0.196186
0.459653
0.0280249
-0.455971
0.464427
0.0534345
0.466958
0.0845684
0.470162
0.107474
0.472096
0.138347
0.473131
0.156918
0.474838
0.18452
0.197578
0.493127
0.0250587
-0.490161
0.495748
0.0508135
0.498555
0.0817619
0.500708
0.10532
0.504078
0.134978
0.505574
0.155422
0.508119
0.181975
0.197857
0.530352
0.022364
-0.527657
0.532069
0.0490963
0.535407
0.0784238
0.537467
0.10326
0.541107
0.131338
0.542937
0.153592
0.545924
0.178987
0.196679
0.572319
0.0200492
-0.570005
0.573957
0.0474584
0.577136
0.0752446
0.579267
0.10113
0.582654
0.127951
0.585155
0.151091
0.58885
0.175293
0.193956
0.619091
0.018179
-0.61722
0.620838
0.0457112
0.623577
0.0725054
0.626015
0.098692
0.62952
0.124446
0.632974
0.147636
0.637555
0.170712
0.189996
0.670913
0.0167166
-0.669451
0.67279
0.0438342
0.675406
0.0698892
0.678511
0.0955874
0.682514
0.120443
0.686946
0.143204
0.691921
0.165738
0.185242
0.728358
0.0154665
-0.727108
0.730447
0.0417453
0.733211
0.0671251
0.736775
0.0920237
0.741043
0.116175
0.745678
0.138568
0.751091
0.160325
0.179588
0.791742
0.014325
-0.7906
0.793868
0.0396189
0.796715
0.0642786
0.800388
0.0883509
0.804875
0.111687
0.810002
0.133441
0.816134
0.154193
0.173202
0.861314
0.0132524
-0.860242
0.863434
0.0374991
0.866434
0.0612792
0.870341
0.084444
0.875222
0.106806
0.880846
0.127817
0.887364
0.147675
0.166196
0.937581
0.0122162
-0.936545
0.939721
0.0353585
0.942872
0.0581287
0.947012
0.0803041
0.952179
0.101639
0.958184
0.121812
0.965108
0.140751
0.158546
1.021
0.0112303
-1.02002
1.02317
0.0331934
1.02646
0.0548353
1.03087
0.0758989
1.03636
0.0961491
1.0428
0.115368
1.0502
0.133354
0.150295
1.11226
0.0102758
-1.11131
1.1145
0.0309589
1.11797
0.0513607
1.12264
0.0712253
1.12846
0.0903316
1.13534
0.108488
1.14324
0.125452
0.141428
1.21202
0.00935166
-1.2111
1.21432
0.028657