/*--------------------------------*- C++ -*----------------------------------*\
| =========                 |                                                 |
| \\      /  F ield         | OpenFOAM: The Open Source CFD Toolbox           |
|  \\    /   O peration     | Version:  2512                                  |
|   \\  /    A nd           | Website:  www.openfoam.com                      |
|    \\/     M anipulation  |                                                 |
\*---------------------------------------------------------------------------*/
FoamFile
{
    version     2.0;
    format      ascii;
    arch        "LSB;label=32;scalar=64";
    class       volVectorField;
    location    "103.55";
    object      U;
}
// * * * * * * * * * * * * * * * * * * * * * * * * * * * * * * * * * * * * * //

dimensions      [0 1 -1 0 0 0 0];

internalField   nonuniform List<vector> 
13248
(
(-0.0238259 0.0190327 7.20172e-20)
(-0.0425149 0.0348123 0)
(-0.0334973 0.0376828 -1.2395e-19)
(0.00609804 0.0324677 1.14766e-19)
(0.0795526 0.0210557 1.05864e-19)
(0.189771 0.00485352 0)
(0.336385 -0.0145504 0)
(0.512812 -0.0354268 2.46996e-19)
(0.70546 -0.0562387 -6.08807e-22)
(0.896301 -0.0760008 -2.11261e-19)
(1.0674 -0.0943882 1.93119e-19)
(1.2051 -0.111546 -1.19842e-19)
(1.3026 -0.127752 0)
(1.36042 -0.143138 -1.91944e-19)
(1.38508 -0.157606 3.50122e-19)
(1.38616 -0.170928 -8.39827e-20)
(1.37309 -0.182831 -1.33791e-19)
(1.35273 -0.193068 1.24748e-19)
(1.32885 -0.201424 0)
(1.30309 -0.20814 0)
(1.27641 -0.211404 0)
(1.24721 -0.218047 0)
(1.22174 -0.210019 2.77697e-20)
(1.18353 -0.230739 8.79877e-20)
(-0.0265996 0.0195987 -2.16923e-19)
(-0.0380011 0.0311004 1.36711e-19)
(-0.0112413 0.0279289 -8.0631e-22)
(0.0557068 0.0164598 -1.74877e-19)
(0.165785 0.000238691 -1.05711e-19)
(0.318934 -0.0180528 -9.87724e-20)
(0.507328 -0.0360701 -1.79468e-19)
(0.713786 -0.0521236 1.67157e-19)
(0.915774 -0.065608 0)
(1.09227 -0.0769668 1.22838e-21)
(1.22928 -0.0872024 1.54013e-21)
(1.32202 -0.0972678 1.16645e-19)
(1.37414 -0.107665 0)
(1.3947 -0.118376 0)
(1.39431 -0.129046 1.21136e-19)
(1.38196 -0.139214 -2.26071e-19)
(1.3635 -0.148446 1.25564e-19)
(1.34194 -0.156499 -1.17076e-19)
(1.31873 -0.16311 -4.82518e-20)
(1.29462 -0.168238 -8.28533e-20)
(1.26993 -0.171861 -3.02569e-20)
(1.24576 -0.173787 -5.53366e-20)
(1.22128 -0.171793 8.61243e-20)
(1.19587 -0.176715 2.2611e-20)
(-0.0270729 0.018367 0)
(-0.0260674 0.024971 0)
(0.0256802 0.0171645 6.30217e-20)
(0.12862 0.00200747 5.75127e-20)
(0.282836 -0.0155272 -9.67329e-22)
(0.480313 -0.0316627 -1.01534e-19)
(0.700703 -0.0441248 0)
(0.916085 -0.0525814 -8.30495e-20)
(1.10113 -0.0582714 7.56648e-20)
(1.24073 -0.0630246 -9.06589e-22)
(1.33188 -0.0683281 -1.24093e-19)
(1.38109 -0.0748623 -1.09315e-19)
(1.39966 -0.0825509 4.19152e-21)
(1.39901 -0.0908985 -8.25511e-20)
(1.38778 -0.0993343 2.01784e-19)
(1.3712 -0.107398 0)
(1.35191 -0.114791 -1.1896e-19)
(1.33122 -0.121331 5.84173e-20)
(1.30989 -0.126714 4.82022e-20)
(1.28813 -0.131315 0)
(1.26678 -0.133496 3.62261e-20)
(1.2446 -0.136746 -1.17008e-19)
(1.22394 -0.133933 1.09267e-19)
(1.20063 -0.140426 6.15253e-20)
(-0.024476 0.0153093 -7.56194e-20)
(-0.00469578 0.0159258 -7.21425e-20)
(0.0796308 0.00470276 6.47741e-20)
(0.226116 -0.0111285 0)
(0.427436 -0.0255723 0)
(0.661494 -0.0349622 -1.55344e-21)
(0.894232 -0.0389346 0)
(1.0939 -0.0395711 -2.48281e-19)
(1.24247 -0.0395847 2.25736e-19)
(1.33766 -0.0409366 -2.73247e-19)
(1.38822 -0.0443722 6.13029e-20)
(1.40735 -0.0496782 0)
(1.40727 -0.0562103 9.38365e-20)
(1.39675 -0.0633149 -1.70434e-19)
(1.38094 -0.0705035 4.04264e-20)
(1.36259 -0.0774456 9.66464e-20)
(1.34308 -0.0839095 -6.97036e-21)
(1.3231 -0.089645 -1.03495e-19)
(1.30293 -0.0946352 0)
(1.28292 -0.0984262 0)
(1.26281 -0.101389 -3.32403e-20)
(1.24317 -0.103562 2.8804e-20)
(1.22421 -0.102252 9.70616e-20)
(1.20395 -0.108354 -9.06327e-20)
(-0.0182361 0.0109 -7.88337e-20)
(0.0280152 0.00493499 -7.33012e-20)
(0.152875 -0.0078474 2.02398e-19)
(0.348041 -0.0203772 -1.22089e-19)
(0.592051 -0.0269287 1.13083e-19)
(0.845253 -0.0263796 2.0284e-19)
(1.06657 -0.0216959 -1.40369e-19)
(1.23176 -0.0167498 -1.63924e-19)
(1.33716 -0.0141113 5.80634e-21)
(1.39297 -0.0145837 2.03282e-19)
(1.41431 -0.0177545 0)
(1.41487 -0.0227599 5.1804e-20)
(1.40437 -0.0287918 0)
(1.38861 -0.0352645 -7.99923e-20)
(1.37067 -0.0417839 1.1143e-19)
(1.352 -0.0480773 1.25417e-21)
(1.33318 -0.0539251 -2.74691e-20)
(1.31438 -0.059227 5.0154e-20)
(1.29572 -0.0637594 4.20955e-20)
(1.27715 -0.0676485 -3.67292e-20)
(1.25898 -0.070517 3.32244e-20)
(1.24111 -0.0729205 -2.879e-20)
(1.22366 -0.0733422 0)
(1.20594 -0.0783095 -2.07596e-20)
(-0.00768915 0.00578723 7.88138e-20)
(0.0737982 -0.00616392 7.624e-20)
(0.246494 -0.0173979 -6.78487e-20)
(0.49046 -0.021886 1.24786e-19)
(0.76375 -0.0169884 -1.1558e-19)
(1.01367 -0.00631335 1.02182e-19)
(1.20469 0.00453956 -4.82824e-20)
(1.32823 0.01191 1.23308e-19)
(1.39458 0.0147605 -7.56654e-20)
(1.421 0.0137337 1.27835e-19)
(1.4235 0.0100425 -2.88988e-19)
(1.41357 0.00479207 1.03645e-19)
(1.39804 -0.00123453 -8.77517e-20)
(1.38041 -0.00754073 8.16914e-20)
(1.36218 -0.0138206 6.79089e-20)
(1.34386 -0.0198731 5.77728e-20)
(1.32559 -0.0255759 -1.59054e-19)
(1.30747 -0.0307844 9.74537e-20)
(1.28955 -0.035476 -4.20883e-20)
(1.27201 -0.0394668 1.06381e-19)
(1.25486 -0.0428312 -3.424e-20)
(1.23816 -0.0455599 -7.93817e-20)
(1.22206 -0.0468099 7.2363e-20)
(1.20602 -0.0513655 2.0753e-20)
(0.00798373 0.000598014 0)
(0.133813 -0.0151999 7.35211e-22)
(0.359044 -0.020428 1.41182e-19)
(0.644555 -0.0125338 -1.30061e-19)
(0.927463 0.00463931 -1.15129e-19)
(1.15461 0.0229542 2.09678e-19)
(1.30637 0.0366306 -9.5504e-20)
(1.39044 0.0438907 1.22345e-19)
(1.42601 0.04554 -3.83189e-21)
(1.43229 0.0432912 -6.61833e-20)
(1.42339 0.0387407 1.39485e-19)
(1.4078 0.0330076 -2.02105e-19)
(1.38981 0.0267586 0)
(1.37121 0.0203624 -3.78263e-20)
(1.35267 0.014032 -9.87162e-20)
(1.33442 0.00790766 3.09264e-20)
(1.31655 0.00211552 1.57045e-21)
(1.29911 -0.00327127 -6.335e-20)
(1.28215 -0.00814043 5.21844e-21)
(1.26564 -0.0124916 7.17014e-20)
(1.24962 -0.0162644 -3.07735e-20)
(1.23411 -0.0193811 -1.10865e-20)
(1.219 -0.0220004 3.53302e-20)
(1.20417 -0.0260442 0)
(0.0294767 -0.0038519 0)
(0.208021 -0.0196758 3.87756e-20)
(0.485744 -0.0137993 -1.82512e-19)
(0.798538 0.00888406 6.52906e-20)
(1.07147 0.0364096 -6.04763e-20)
(1.26423 0.0588062 -5.31705e-20)
(1.37625 0.0724037 -9.1205e-20)
(1.42731 0.0778618 4.55575e-20)
(1.44052 0.0775181 3.85313e-20)
(1.43385 0.073709 0)
(1.41843 0.0681001 8.18166e-20)
(1.39992 0.0616629 -1.19075e-19)
(1.38078 0.0549023 8.77092e-20)
(1.36189 0.0480856 3.78425e-20)
(1.34352 0.0413758 -3.01104e-20)
(1.32569 0.0348948 -2.44351e-20)
(1.30839 0.0287263 -2.22712e-20)
(1.29157 0.0229533 6.74237e-20)
(1.27524 0.0176112 0)
(1.25942 0.01276 3.22098e-20)
(1.24413 0.00844503 2.60428e-20)
(1.22933 0.00464042 -6.52563e-20)
(1.21503 0.00126554 -4.28166e-20)
(1.20126 -0.00227785 3.9556e-20)
(0.057045 -0.00668346 -4.44131e-20)
(0.294633 -0.0172056 -1.39567e-21)
(0.618934 0.00444227 3.70926e-20)
(0.941527 0.0416951 1.01001e-19)
(1.19002 0.0761081 2.77703e-20)
(1.34447 0.0991991 -5.34802e-20)
(1.42095 0.110574 4.81541e-20)
(1.44646 0.113204 -4.09878e-20)
(1.44431 0.110489 7.11045e-20)
(1.42968 0.104973 2.94937e-20)
(1.41058 0.0981601 -8.26538e-20)
(1.39053 0.0908181 2.39491e-20)
(1.37083 0.083318 4.00177e-20)
(1.3518 0.075856 -1.95492e-20)
(1.33348 0.0685562 0)
(1.31584 0.0615078 2.80399e-20)
(1.29885 0.0547877 4.65741e-20)
(1.28251 0.0484506 7.49369e-21)
(1.26682 0.0425535 -3.79128e-20)
(1.25176 0.0371316 1.56124e-20)
(1.23728 0.0322049 0)
(1.22335 0.0277549 -1.18355e-20)
(1.20989 0.0235926 -1.07558e-20)
(1.19681 0.0200546 0)
(0.0904617 -0.00690952 0)
(0.390073 -0.00570202 2.15107e-20)
(0.749887 0.0347698 3.92434e-20)
(1.06619 0.0842092 -1.02204e-19)
(1.28218 0.1217 3.2382e-20)
(1.39951 0.142728 0)
(1.44658 0.150446 4.50201e-20)
(1.45333 0.149695 -6.17848e-20)
(1.44106 0.144424 -3.52978e-20)
(1.42165 0.137063 1.57286e-20)
(1.40053 0.128853 -2.43645e-20)
(1.3797 0.120366 5.88103e-20)
(1.35975 0.111864 2.8902e-20)
(1.34075 0.10349 -2.00365e-20)
(1.32266 0.0953444 -2.01713e-21)
(1.30541 0.0875052 -5.29866e-20)
(1.28895 0.0800314 2.38708e-20)
(1.27321 0.0729746 -4.72482e-22)
(1.25815 0.0663698 0)
(1.24374 0.0602488 -1.56276e-20)
(1.22992 0.0546296 0)
(1.21664 0.0494414 3.42059e-20)
(1.20383 0.0447255 -4.0293e-20)
(1.19148 0.0411466 1.81305e-20)
(0.128842 -0.00352517 -1.20521e-20)
(0.489291 0.016219 -5.42446e-20)
(0.870863 0.0763833 6.04836e-20)
(1.16882 0.134461 3.43366e-20)
(1.34947 0.171577 -1.64005e-20)
(1.43368 0.188505 2.57851e-20)
(1.45762 0.191695 -1.2513e-20)
(1.45115 0.187287 2.00214e-20)
(1.43241 0.179339 0)
(1.41022 0.169976 4.35932e-20)
(1.38801 0.160158 -1.82904e-21)
(1.3668 0.150292 -3.43164e-20)
(1.34679 0.140561 1.45168e-20)
(1.32792 0.131076 -1.61738e-20)
(1.31007 0.121912 -6.07286e-21)
(1.29316 0.113127 6.95185e-21)
(1.27711 0.104763 -5.3413e-21)
(1.26187 0.0968592 -2.8332e-20)
(1.24741 0.0894489 1.72682e-20)
(1.23369 0.0825587 3.51184e-21)
(1.22063 0.0761783 3.05389e-21)
(1.20816 0.0702694 2.65518e-21)
(1.19619 0.0649727 0)
(1.1846 0.0608647 0)
(0.170795 0.00435068 1.20667e-20)
(0.586701 0.0490256 -1.12113e-20)
(0.976353 0.127799 -2.01254e-20)
(1.2483 0.190647 0)
(1.39432 0.224554 -8.006e-21)
(1.45052 0.235961 -6.88478e-21)
(1.45697 0.234104 -1.14248e-20)
(1.44149 0.225865 0)
(1.41879 0.215087 0)
(1.39508 0.203509 0)
(1.37237 0.191837 0)
(1.35111 0.180346 0)
(1.33126 0.169159 -9.15137e-21)
(1.31267 0.15835 4.13465e-21)
(1.29524 0.147974 7.08783e-21)
(1.27884 0.138069 3.26487e-21)
(1.26341 0.128663 8.04414e-21)
(1.24885 0.119786 0)
(1.23511 0.111461 -1.89316e-21)
(1.22212 0.103693 -1.75106e-21)
(1.20982 0.0964639 -3.05867e-21)
(1.19812 0.0897565 -2.65933e-21)
(1.18695 0.0838332 0)
(1.17624 0.0790913 1.8744e-21)
(-0.00204168 0.152165 8.31259e-21)
(-0.00404872 0.327244 -7.85763e-21)
(-0.0118589 0.410836 -1.45382e-20)
(-0.0252302 0.437969 0)
(-0.0414537 0.436855 -1.89812e-20)
(-0.0579494 0.423934 5.82427e-21)
(-0.0729457 0.405409 -1.14236e-20)
(-0.085258 0.381638 0)
(-0.0941426 0.350987 0)
(-0.0992073 0.311844 0)
(-0.100324 0.263189 0)
(-0.0976099 0.204785 0)
(-0.0914692 0.137035 -1.18631e-22)
(-0.0825409 0.060822 -8.34243e-21)
(-0.0714432 -0.0225846 1.65433e-20)
(-0.0581875 -0.111897 2.31945e-20)
(-0.0431052 -0.205866 7.52054e-21)
(-0.0262315 -0.303079 0)
(-0.00718445 -0.401561 5.8402e-21)
(0.014284 -0.498318 -1.64907e-20)
(0.0378462 -0.589347 -9.75596e-21)
(0.064299 -0.669701 -8.47111e-21)
(0.0874582 -0.737099 0)
(0.115162 -0.786439 0)
(-0.00895806 0.14355 -2.52062e-20)
(-0.0146727 0.321684 3.96451e-20)
(-0.0169432 0.414768 -1.50745e-20)
(-0.0213127 0.449815 -2.7728e-20)
(-0.0270452 0.452789 3.8373e-20)
(-0.0322059 0.440455 -2.47782e-20)
(-0.0351603 0.420132 3.43924e-20)
(-0.0347383 0.393218 2.25943e-20)
(-0.030245 0.358769 0)
(-0.0215682 0.315574 -2.12662e-20)
(-0.00893123 0.262961 -1.51747e-21)
(0.00724764 0.200957 1.83742e-20)
(0.026209 0.130173 2.78937e-20)
(0.0470292 0.0516296 3.60501e-20)
(0.0689899 -0.0334096 -1.59011e-20)
(0.0916088 -0.123888 -4.74298e-20)
(0.114583 -0.219199 1.53304e-20)
(0.138222 -0.318558 -5.60193e-20)
(0.163149 -0.420495 0)
(0.190222 -0.521738 1.10236e-20)
(0.218687 -0.617623 9.73951e-21)
(0.25028 -0.700157 8.4569e-21)
(0.275215 -0.767351 0)
(0.311447 -0.806544 0)
(-0.0144035 0.128399 0)
(-0.0240953 0.302635 8.20957e-20)
(-0.0214891 0.403312 -3.03556e-20)
(-0.0168601 0.447036 2.83929e-20)
(-0.0116702 0.455414 -7.93002e-20)
(-0.00498503 0.444682 0)
(0.00445982 0.423259 -4.84475e-20)
(0.017707 0.393892 2.2403e-20)
(0.0352952 0.356615 -4.40533e-20)
(0.0571937 0.310799 2.15148e-20)
(0.0829393 0.256199 1.24397e-19)
(0.111766 0.193097 -5.80497e-20)
(0.142618 0.122247 -9.60027e-20)
(0.174456 0.0446468 -3.83114e-20)
(0.206535 -0.0384726 -1.3012e-21)
(0.238447 -0.12666 1.31054e-19)
(0.27026 -0.219958 -6.13753e-20)
(0.302753 -0.318297 -3.47067e-22)
(0.336554 -0.420871 0)
(0.372409 -0.523778 -4.66197e-20)
(0.407117 -0.6229 0)
(0.443732 -0.706953 -3.24056e-20)
(0.465944 -0.776876 1.19572e-19)
(0.502644 -0.814072 -6.34624e-21)
(-0.0177998 0.108587 0)
(-0.0314733 0.271474 3.94436e-22)
(-0.0256553 0.37633 3.08615e-20)
(-0.013286 0.428453 -2.90932e-20)
(0.0021031 0.443415 2.58591e-20)
(0.0201928 0.43574 1.51751e-19)
(0.0415652 0.414492 -4.74623e-20)
(0.0669194 0.383761 -4.5725e-20)
(0.0965956 0.344754 8.78479e-20)
(0.130411 0.297634 -1.28918e-19)
(0.167727 0.242558 3.94752e-20)
(0.207569 0.18 3.90804e-20)
(0.248645 0.110678 0)
(0.290259 0.0357854 3.63772e-20)
(0.331868 -0.0439987 0)
(0.373468 -0.128935 6.46203e-20)
(0.416036 -0.219682 -1.22179e-19)
(0.461042 -0.316356 2.99939e-20)
(0.508583 -0.418298 1.04764e-19)
(0.558582 -0.519676 4.65659e-20)
(0.604301 -0.617177 0)
(0.64881 -0.695204 -1.01359e-19)
(0.669665 -0.760349 3.34263e-20)
(0.702805 -0.787987 0)
(-0.0190065 0.0867294 0)
(-0.0361771 0.231583 -1.00452e-19)
(-0.0293961 0.335631 -3.06942e-20)
(-0.011693 0.394213 -5.75775e-20)
(0.0120201 0.416115 5.33437e-20)
(0.0401139 0.412932 -5.04532e-20)
(0.0721937 0.393486 9.67021e-20)
(0.108347 0.362844 4.82782e-20)
(0.148579 0.323379 -1.29555e-19)
(0.192509 0.276138 8.50409e-20)
(0.239359 0.221777 -1.21206e-19)
(0.288009 0.160917 2.70089e-19)
(0.337676 0.0945072 -1.46111e-19)
(0.387924 0.0233702 6.96968e-20)
(0.43865 -0.0528269 2.0221e-19)
(0.491153 -0.134784 -6.34078e-20)
(0.547259 -0.223585 -5.86942e-20)
(0.608385 -0.318716 -5.68869e-20)
(0.67275 -0.419002 0)
(0.737773 -0.515887 -8.66868e-20)
(0.793357 -0.607156 -6.84771e-20)
(0.841107 -0.673485 1.0743e-19)
(0.858278 -0.728636 1.05026e-19)
(0.881452 -0.73849 -9.61564e-20)
(-0.0183556 0.0655236 0)
(-0.0380719 0.187742 -1.34069e-19)
(-0.0325396 0.28515 2.92267e-22)
(-0.012564 0.346367 1.14363e-19)
(0.0166252 0.373959 0)
(0.0523614 0.375835 0)
(0.0931781 0.359609 0)
(0.138328 0.330653 -4.62977e-20)
(0.187285 0.292196 -2.39063e-21)
(0.239399 0.246094 8.00719e-20)
(0.293815 0.193483 -1.21383e-19)
(0.349813 0.135343 -2.12187e-21)
(0.407277 0.0724672 0)
(0.466642 0.00457772 -6.96664e-20)
(0.529385 -0.0691253 6.45155e-20)
(0.597844 -0.149527 -1.81622e-19)
(0.673334 -0.237277 2.27855e-19)
(0.754944 -0.330106 4.76892e-20)
(0.83685 -0.425329 -7.72004e-21)
(0.912576 -0.512396 -1.73422e-19)
(0.969847 -0.5905 -7.00077e-20)
(1.0093 -0.640254 2.07196e-19)
(1.01377 -0.681333 -1.3068e-19)
(1.01662 -0.67714 0)
(-0.016571 0.0471474 7.10888e-20)
(-0.0376957 0.145023 6.70751e-20)
(-0.0350149 0.230432 -6.13805e-20)
(-0.0157156 0.289196 -1.13417e-19)
(0.015686 0.319386 1.05073e-19)
(0.0560222 0.325306 -9.84048e-20)
(0.102942 0.312717 1.36672e-19)
(0.154843 0.286575 -4.60622e-20)
(0.210612 0.250437 8.13782e-20)
(0.269408 0.206633 0)
(0.330783 0.156758 7.5732e-20)
(0.395089 0.1018 -1.38674e-19)
(0.463491 0.0417079 1.38998e-19)
(0.538058 -0.0242404 -1.2938e-19)
(0.62116 -0.0967825 0)
(0.71378 -0.176041 1.16571e-19)
(0.81356 -0.260805 2.11572e-19)
(0.914452 -0.34676 -2.00206e-19)
(1.00596 -0.429758 -8.53129e-20)
(1.07951 -0.499696 -7.5385e-20)
(1.12377 -0.557628 2.09924e-19)
(1.14267 -0.587261 4.70254e-20)
(1.12585 -0.61261 -5.03285e-20)
(1.10425 -0.593964 3.56674e-20)
(-0.0145989 0.0329278 -7.11068e-20)
(-0.0362346 0.107629 1.99404e-19)
(-0.0371177 0.17739 -6.15399e-20)
(-0.0205639 0.228632 1.12352e-19)
(0.010249 0.257165 -1.04087e-19)
(0.0522329 0.264529 -9.10548e-22)
(0.102599 0.254554 4.41285e-20)
(0.15925 0.231294 1.68083e-19)
(0.220911 0.198076 3.20562e-21)
(0.287281 0.157336 -7.51699e-20)
(0.359229 0.110567 0)
(0.438653 0.0581332 -6.92928e-20)
(0.528023 -0.000265852 1.29983e-19)
(0.629166 -0.0648868 1.25989e-19)
(0.741533 -0.135344 -5.97894e-20)
(0.860745 -0.210051 -3.28488e-21)
(0.978503 -0.285736 -5.25119e-20)
(1.08393 -0.357595 8.82534e-20)
(1.16562 -0.421417 8.53211e-20)
(1.21732 -0.470133 -7.45636e-20)
(1.23366 -0.506955 5.77505e-20)
(1.22491 -0.519475 -4.84741e-20)
(1.18706 -0.533306 0)
(1.14945 -0.509151 -3.56908e-20)
(-0.01342 0.0233388 7.05008e-20)
(-0.0352355 0.0781581 -6.65697e-20)
(-0.0395101 0.130878 6.09386e-20)
(-0.0263526 0.170832 0)
(0.00252776 0.193584 0)
(0.0446421 0.199099 9.41156e-20)
(0.0975161 0.189664 -8.82082e-20)
(0.159518 0.168279 8.26987e-20)
(0.230385 0.137652 -3.88158e-19)
(0.311334 0.0996978 -1.77067e-21)
(0.404583 0.0553523 6.90615e-20)
(0.512185 0.00499024 0)
(0.634335 -0.0509256 -1.2748e-19)
(0.767814 -0.111465 2.38578e-19)
(0.905466 -0.174706 -1.69212e-19)
(1.03676 -0.237986 -2.5844e-19)
(1.15012 -0.29754 5.85969e-21)
(1.23494 -0.350097 1.65121e-19)
(1.28531 -0.392411 0)
(1.30129 -0.422039 0)
(1.28681 -0.442057 -5.77821e-20)
(1.25584 -0.445443 4.85021e-20)
(1.20724 -0.453812 -1.44495e-19)
(1.16724 -0.431061 1.3481e-19)
(-0.0138329 0.018179 0)
(-0.0360011 0.0574722 0)
(-0.0425575 0.0938191 -1.82291e-19)
(-0.0315365 0.12074 5.69808e-20)
(-0.00326992 0.134908 8.44722e-22)
(0.0409791 0.135797 9.44226e-20)
(0.100181 0.124709 0)
(0.174454 0.103642 -8.12645e-20)
(0.265174 0.0744633 7.70808e-20)
(0.374141 0.0385438 -1.44252e-19)
(0.501839 -0.00307282 -1.49892e-21)
(0.645642 -0.0492976 1.30087e-19)
(0.798904 -0.0987336 1.22183e-21)
(0.951387 -0.149575 1.13894e-19)
(1.09092 -0.199541 -1.60741e-19)
(1.20576 -0.246357 0)
(1.2874 -0.287399 1.69905e-19)
(1.33212 -0.321489 -2.39297e-19)
(1.3432 -0.34664 6.45578e-20)
(1.3276 -0.364178 0)
(1.29574 -0.374838 4.78248e-20)
(1.25813 -0.37608 1.60965e-19)
(1.21381 -0.383673 -1.50324e-19)
(1.18093 -0.36292 -1.39084e-19)
(-0.0161467 0.016694 2.10508e-19)
(-0.0387088 0.0448737 -2.65601e-19)
(-0.0450605 0.0670231 9.73083e-22)
(-0.0322411 0.0812149 5.66137e-20)
(0.000809647 0.0858478 -1.03173e-19)
(0.0547781 0.0806384 -9.45391e-20)
(0.130813 0.0663767 1.74804e-19)
(0.23054 0.044432 6.88257e-22)
(0.354811 0.0162711 -1.51241e-19)
(0.501683 -0.0166916 2.86042e-19)
(0.664982 -0.0530061 2.60698e-21)
(0.834307 -0.0911708 -1.25193e-19)
(0.996594 -0.129665 0)
(1.13861 -0.166987 0)
(1.24963 -0.201716 -5.12884e-20)
(1.32368 -0.232641 -8.65491e-20)
(1.36078 -0.258698 -1.55946e-19)
(1.3665 -0.279861 1.45401e-19)
(1.35055 -0.295221 -6.46351e-20)
(1.32157 -0.30741 1.02491e-19)
(1.28886 -0.313659 -5.58804e-20)
(1.25445 -0.317683 6.72623e-20)
(1.2197 -0.322448 -1.71086e-19)
(1.19235 -0.306722 2.86242e-20)
(-0.0198843 0.0175409 7.05431e-20)
(-0.0418251 0.0383123 0)
(-0.0435781 0.0493107 1.22552e-19)
(-0.0219617 0.0526094 -1.13474e-19)
(0.0254947 0.0484148 1.03311e-19)
(0.101406 0.0370778 0)
(0.207919 0.0194953 0)
(0.344996 -0.00295272 -8.19451e-20)
(0.508168 -0.0287233 -4.99895e-22)
(0.687499 -0.0562822 7.0283e-20)
(0.868797 -0.0843037 -6.53387e-20)
(1.03649 -0.111788 1.22634e-19)
(1.17695 -0.138034 0)
(1.28119 -0.162519 2.03303e-19)
(1.34646 -0.184795 -3.7223e-19)
(1.37626 -0.204474 2.5708e-19)
(1.37872 -0.221305 1.43913e-19)
(1.36365 -0.235352 -1.34186e-19)
(1.33952 -0.246183 0)
(1.31118 -0.25555 0)
(1.28258 -0.259343 0)
(1.25089 -0.266297 0)
(1.22238 -0.264334 3.1887e-20)
(1.19424 -0.258976 -9.88868e-20)
(0.123911 -0.831658 -3.40571e-21)
(0.119641 -0.865535 3.42617e-21)
(0.105803 -0.885155 -8.45107e-23)
(0.0971046 -0.88101 0)
(0.111862 -0.830781 -2.4079e-21)
(0.162807 -0.716063 4.82633e-21)
(0.247275 -0.537614 2.09734e-22)
(0.347555 -0.314053 -2.54977e-21)
(0.445105 -0.0645187 0)
(0.532787 0.196912 0)
(0.609455 0.44058 -1.35995e-22)
(0.670672 0.623418 -1.11978e-22)
(0.715488 0.721045 -1.42607e-21)
(0.745655 0.74726 1.29974e-21)
(0.759545 0.736792 0)
(0.763461 0.709722 0)
(0.766099 0.67915 7.90775e-22)
(0.761453 0.676845 7.03657e-23)
(0.738727 0.719346 -7.59602e-22)
(0.702028 0.757034 -6.52413e-23)
(0.675437 0.69528 0)
(0.674845 0.483568 0)
(0.696314 0.160417 0)
(0.730189 -0.17449 0)
(0.77005 -0.429202 0)
(0.800822 -0.573529 0)
(0.819975 -0.620313 2.29852e-22)
(0.835139 -0.606573 -3.81616e-22)
(0.840314 -0.596921 0)
(0.817588 -0.625617 0)
(0.768589 -0.649351 -2.34725e-22)
(0.70288 -0.6028 2.28082e-22)
(0.646426 -0.447706 1.42443e-22)
(0.617786 -0.203172 0)
(0.625532 0.0702555 0)
(0.657795 0.293998 2.38479e-22)
(0.709503 0.428822 -2.3178e-22)
(0.748077 0.497481 0)
(0.743068 0.53873 1.30742e-22)
(0.692826 0.560271 -1.93042e-22)
(0.63863 0.493301 7.81156e-23)
(0.601923 0.33108 0)
(0.615183 0.0860083 -1.6123e-22)
(0.654513 -0.128834 1.5677e-22)
(0.701146 -0.284309 0)
(0.697642 -0.406044 0)
(0.674817 -0.449757 -3.77818e-23)
(0.651688 -0.44154 1.04962e-22)
(0.653116 -0.267678 0)
(0.65652 -0.0805793 0)
(0.671668 0.163936 -2.68187e-23)
(0.655211 0.366379 4.1139e-24)
(0.651413 0.390319 -3.2384e-25)
(0.646637 0.403861 2.5287e-23)
(0.657368 0.122843 0)
(0.619397 -0.144588 0)
(0.611865 -0.284965 0)
(0.592021 -0.434892 0)
(0.588006 -0.125741 0)
(0.551557 0.100315 0)
(0.312654 -0.834955 -3.56471e-22)
(0.303323 -0.845524 -1.18679e-20)
(0.269294 -0.847943 1.55229e-21)
(0.21765 -0.848249 9.63194e-21)
(0.171871 -0.829012 1.20371e-22)
(0.156827 -0.757637 0)
(0.183382 -0.614255 -8.818e-21)
(0.244914 -0.40622 1.80443e-20)
(0.323362 -0.156552 -9.22638e-21)
(0.407433 0.109139 8.75768e-21)
(0.49037 0.360195 -8.36795e-21)
(0.56608 0.555924 6.0254e-21)
(0.632053 0.672071 -5.84037e-21)
(0.683891 0.719169 -1.20873e-22)
(0.717678 0.724773 -3.31206e-21)
(0.740168 0.705119 3.21652e-21)
(0.758619 0.679216 -3.1273e-21)
(0.766797 0.685073 2.94071e-21)
(0.756856 0.736818 -4.03055e-21)
(0.736699 0.77787 8.81245e-21)
(0.729179 0.711278 -4.74524e-21)
(0.743764 0.489067 -4.02582e-22)
(0.773411 0.15362 -6.85497e-21)
(0.806633 -0.192564 1.2758e-20)
(0.837955 -0.451291 -5.92488e-21)
(0.856865 -0.590579 2.625e-22)
(0.860598 -0.630891 2.74737e-21)
(0.858713 -0.610644 -4.89247e-22)
(0.850816 -0.589831 -3.63283e-21)
(0.817696 -0.605292 3.16433e-21)
(0.758857 -0.619591 -1.4987e-21)
(0.684388 -0.572042 1.98568e-22)
(0.619454 -0.426703 -1.42741e-22)
(0.585601 -0.19983 2.67411e-22)
(0.594586 0.0559184 0)
(0.635137 0.270012 0)
(0.696882 0.407244 -6.4764e-22)
(0.742125 0.489787 4.95347e-22)
(0.743091 0.547534 4.09028e-22)
(0.69989 0.57883 1.58767e-22)
(0.652697 0.51153 -6.72668e-22)
(0.617598 0.338357 2.08775e-22)
(0.629693 0.0796173 0)
(0.666711 -0.144024 0)
(0.715696 -0.291919 0)
(0.712025 -0.403097 0)
(0.683861 -0.44322 1.55757e-22)
(0.657688 -0.438552 -6.8284e-23)
(0.654816 -0.268585 0)
(0.656926 -0.0836447 0)
(0.66857 0.163344 0)
(0.65602 0.367806 -4.22918e-23)
(0.655342 0.391146 -2.36423e-24)
(0.653001 0.403267 -4.71897e-23)
(0.668058 0.127629 0)
(0.625205 -0.140762 0)
(0.61517 -0.28088 2.39866e-23)
(0.59071 -0.433555 4.21414e-23)
(0.589241 -0.122163 0)
(0.55906 0.103157 0)
(0.485556 -0.838028 -5.25099e-21)
(0.46941 -0.830183 -2.70559e-20)
(0.436174 -0.802438 1.87188e-20)
(0.373441 -0.782074 -1.75129e-20)
(0.289828 -0.77272 -1.21227e-22)
(0.215508 -0.74297 0)
(0.178437 -0.650939 -1.40491e-20)
(0.187952 -0.481058 1.37133e-20)
(0.233031 -0.249228 1.31821e-22)
(0.301497 0.0115881 1.96974e-22)
(0.38382 0.264481 1.796e-22)
(0.470322 0.470603 1.93041e-22)
(0.553284 0.6053 -8.16916e-21)
(0.623166 0.674763 8.05431e-21)
(0.6753 0.698156 0)
(0.715921 0.688446 1.57854e-22)
(0.750318 0.669138 -5.91306e-21)
(0.772338 0.682613 5.83948e-21)
(0.776756 0.742248 0)
(0.773516 0.787524 0)
(0.784156 0.721017 -1.24137e-20)
(0.813831 0.497283 2.63456e-20)
(0.851525 0.158938 -2.747e-20)
(0.884467 -0.193149 1.48625e-21)
(0.90755 -0.456309 2.19447e-20)
(0.914531 -0.593722 -1.74989e-20)
(0.903929 -0.63105 1.22359e-20)
(0.885669 -0.608259 -1.51194e-21)
(0.865168 -0.578481 -3.8714e-21)
(0.824078 -0.581262 0)
(0.757979 -0.588218 0)
(0.675888 -0.542707 1.25362e-21)
(0.603385 -0.40927 -1.57047e-21)
(0.564215 -0.200563 -5.0171e-23)
(0.573492 0.0371637 1.7214e-21)
(0.620767 0.241452 -1.67267e-21)
(0.690071 0.381618 0)
(0.741205 0.479129 1.34673e-22)
(0.749572 0.554585 1.20071e-21)
(0.714836 0.597171 -2.65301e-21)
(0.675442 0.531079 1.28301e-21)
(0.643338 0.348886 2.57394e-22)
(0.653275 0.0777548 -2.19322e-21)
(0.685117 -0.156417 1.66057e-21)
(0.734412 -0.298205 3.06508e-22)
(0.731133 -0.398732 2.18939e-22)
(0.696989 -0.435667 -1.56169e-22)
(0.666573 -0.435716 0)
(0.659219 -0.270419 0)
(0.660485 -0.0870512 -2.98326e-22)
(0.669271 0.161302 1.50969e-22)
(0.660546 0.368757 -1.35277e-22)
(0.662382 0.391315 2.61634e-22)
(0.661967 0.402322 4.66751e-22)
(0.681756 0.133601 -7.74789e-23)
(0.635132 -0.135902 2.03534e-22)
(0.622355 -0.275605 -1.41803e-22)
(0.592879 -0.432123 5.55895e-23)
(0.594157 -0.120189 0)
(0.569977 0.105821 0)
(0.66264 -0.815413 -5.29639e-20)
(0.622101 -0.80932 9.78167e-21)
(0.579949 -0.766652 4.06177e-20)
(0.524528 -0.712739 -2.42869e-22)
(0.440736 -0.681135 0)
(0.333937 -0.668556 0)
(0.240667 -0.629977 -1.99632e-20)
(0.191154 -0.519611 -1.6477e-21)
(0.191795 -0.329869 3.09828e-20)
(0.232695 -0.0904822 -2.40076e-22)
(0.303907 0.155111 -1.02592e-20)
(0.392697 0.367779 -7.60264e-21)
(0.485042 0.520293 7.59461e-21)
(0.567907 0.61286 0)
(0.635767 0.655479 -4.81872e-21)
(0.692943 0.657791 4.39351e-21)
(0.742142 0.645885 0)
(0.776928 0.665115 0)
(0.794644 0.730198 7.4302e-21)
(0.80762 0.780839 2.15311e-21)
(0.835102 0.722148 -8.76476e-21)
(0.877123 0.508709 -1.38886e-20)
(0.923016 0.174938 1.39377e-20)
(0.960012 -0.181905 -1.30521e-20)
(0.978125 -0.451078 2.4704e-21)
(0.973851 -0.588277 9.85527e-21)
(0.949671 -0.623288 7.64973e-22)
(0.916109 -0.600126 9.0865e-24)
(0.88334 -0.564822 0)
(0.835268 -0.555846 2.43583e-21)
(0.764308 -0.554653 -2.49379e-21)
(0.67698 -0.511604 1.64501e-22)
(0.597922 -0.392339 0)
(0.553468 -0.204114 -2.20181e-22)
(0.561832 0.0143812 2.79525e-21)
(0.613333 0.208709 -4.72764e-21)
(0.688065 0.352587 8.9309e-23)
(0.745311 0.464771 2.32511e-23)
(0.762059 0.556435 1.56293e-21)
(0.735443 0.611376 2.89456e-22)
(0.705182 0.549969 -3.60301e-21)
(0.678612 0.362195 3.03143e-21)
(0.686387 0.080481 -4.93397e-23)
(0.710488 -0.165988 1.51821e-21)
(0.757129 -0.304047 -1.78345e-21)
(0.754615 -0.393452 -1.44857e-21)
(0.714075 -0.426477 4.41497e-22)
(0.678202 -0.432137 3.74341e-22)
(0.666208 -0.273009 -6.39229e-22)
(0.667024 -0.0911507 4.11224e-22)
(0.673637 0.157578 -1.48522e-22)
(0.668458 0.36924 5.25757e-23)
(0.672307 0.391071 1.18475e-22)
(0.673249 0.401165 -7.36842e-22)
(0.69814 0.140372 -1.37064e-23)
(0.649031 -0.130177 -2.52592e-22)
(0.633406 -0.26916 0)
(0.598562 -0.430471 -5.71113e-23)
(0.602507 -0.119743 -8.23368e-23)
(0.584056 0.108203 0)
(0.824899 -0.758217 4.97189e-20)
(0.763467 -0.755445 -8.76017e-20)
(0.699856 -0.726283 3.77525e-20)
(0.636408 -0.66818 2.3282e-20)
(0.569524 -0.603575 -4.07537e-20)
(0.476029 -0.568138 2.94696e-21)
(0.359436 -0.55423 1.43446e-20)
(0.258541 -0.506199 1.29857e-20)
(0.20709 -0.380404 -1.27416e-20)
(0.209422 -0.182941 0)
(0.258068 0.0440554 -1.18994e-20)
(0.337118 0.255076 2.20536e-20)
(0.428453 0.421588 -1.02786e-20)
(0.517878 0.535643 0)
(0.597922 0.598225 0)
(0.669543 0.615088 1.27585e-22)
(0.732134 0.612491 -8.72943e-21)
(0.778359 0.637003 8.47486e-21)
(0.80802 0.705525 0)
(0.835944 0.761585 1.73456e-20)
(0.878172 0.715152 -3.78382e-20)
(0.930372 0.51999 4.60342e-20)
(0.983903 0.199545 -5.20025e-20)
(1.02789 -0.156638 1.2689e-21)
(1.04557 -0.43106 4.45224e-20)
(1.03206 -0.570904 -1.99142e-20)
(0.995725 -0.606351 -3.83563e-22)
(0.948474 -0.585017 -3.43895e-21)
(0.904633 -0.547662 8.78733e-22)
(0.851663 -0.530176 2.64524e-21)
(0.778041 -0.522017 1.29246e-22)
(0.687451 -0.481406 -1.99879e-21)
(0.602859 -0.376261 4.24401e-21)
(0.552486 -0.209481 -2.49794e-21)
(0.55812 -0.0109649 0)
(0.611304 0.172332 -2.07931e-21)
(0.689969 0.318554 1.97142e-21)
(0.753037 0.444911 -1.4416e-21)
(0.77905 0.554547 1.78118e-21)
(0.762465 0.623208 -2.85942e-22)
(0.742926 0.568334 0)
(0.723034 0.378368 -5.45142e-22)
(0.728629 0.0888348 1.70421e-21)
(0.742955 -0.171083 0)
(0.783432 -0.308531 3.06042e-21)
(0.781987 -0.386982 -1.34908e-21)
(0.734958 -0.415465 3.09527e-22)
(0.692384 -0.427565 1.91193e-22)
(0.675524 -0.276363 0)
(0.676223 -0.0961169 0)
(0.681463 0.15209 -2.32907e-22)
(0.679508 0.36876 5.14862e-22)
(0.684956 0.390245 -4.33086e-22)
(0.686467 0.399556 1.73914e-22)
(0.716806 0.147698 5.65876e-22)
(0.666703 -0.123614 2.52863e-22)
(0.648264 -0.261524 -4.0167e-22)
(0.607774 -0.428406 0)
(0.613962 -0.120803 8.05669e-23)
(0.601029 0.110199 4.95813e-23)
(0.946634 -0.693055 4.65534e-20)
(0.876784 -0.681277 -4.59857e-20)
(0.805103 -0.656038 2.58786e-22)
(0.727858 -0.619357 -1.81758e-22)
(0.65859 -0.557402 1.48214e-22)
(0.589945 -0.489556 -1.11656e-22)
(0.495382 -0.453497 1.26649e-22)
(0.378748 -0.436889 0)
(0.281248 -0.380001 -7.00694e-23)
(0.235965 -0.246543 6.81373e-23)
(0.248442 -0.0565419 7.54676e-23)
(0.305087 0.141706 -1.38873e-22)
(0.385671 0.315401 0)
(0.473507 0.445861 0)
(0.560434 0.526538 3.83318e-23)
(0.643325 0.558888 0)
(0.71683 0.567163 -6.8644e-23)
(0.772051 0.596863 0)
(0.811414 0.667319 -1.08543e-20)
(0.851781 0.729771 2.48946e-20)
(0.906141 0.700834 -3.23735e-20)
(0.968032 0.529845 1.81763e-20)
(1.03126 0.227889 2.45834e-20)
(1.08595 -0.122794 -2.38585e-20)
(1.10773 -0.401085 -1.99004e-20)
(1.08789 -0.545212 1.9174e-20)
(1.04133 -0.582744 0)
(0.982556 -0.56447 2.44918e-22)
(0.927899 -0.527658 0)
(0.870997 -0.504441 0)
(0.797458 -0.490213 2.78137e-21)
(0.70607 -0.451245 -2.8681e-21)
(0.617284 -0.359546 1.57887e-22)
(0.560177 -0.214738 2.64897e-22)
(0.560735 -0.0380829 -1.86879e-22)
(0.612849 0.132696 -1.32766e-21)
(0.69449 0.280515 1.28894e-21)
(0.763508 0.419658 -1.50369e-21)
(0.799569 0.544285 1.29938e-21)
(0.792365 0.627692 5.61429e-22)
(0.783528 0.584679 -4.02976e-21)
(0.772925 0.397023 -1.41417e-21)
(0.778102 0.103139 3.4281e-21)
(0.782187 -0.170835 0)
(0.812873 -0.311522 -1.46594e-21)
(0.812527 -0.379666 1.1188e-21)
(0.759488 -0.402374 -1.55057e-21)
(0.70895 -0.421454 -1.9247e-22)
(0.686852 -0.280249 0)
(0.687726 -0.101972 3.14045e-23)
(0.692428 0.144548 -5.44183e-23)
(0.693292 0.367505 -2.45821e-23)
(0.700021 0.389454 -1.55376e-22)
(0.701247 0.397738 6.44762e-22)
(0.737326 0.155486 -6.06536e-22)
(0.687823 -0.116378 0)
(0.666805 -0.252725 4.01906e-22)
(0.620503 -0.425775 0)
(0.628157 -0.123232 0)
(0.620606 0.111784 -5.81531e-23)
(1.02477 -0.614673 -4.38024e-20)
(0.948924 -0.610605 4.29754e-20)
(0.879299 -0.584873 -2.31299e-22)
(0.804042 -0.554484 1.86339e-22)
(0.728392 -0.516537 0)
(0.664112 -0.453884 0)