/*--------------------------------*- C++ -*----------------------------------*\
| =========                 |                                                 |
| \\      /  F ield         | OpenFOAM: The Open Source CFD Toolbox           |
|  \\    /   O peration     | Version:  2312                                  |
|   \\  /    A nd           | Website:  www.openfoam.com                      |
|    \\/     M anipulation  |                                                 |
\*---------------------------------------------------------------------------*/
FoamFile
{
    version     2.0;
    format      ascii;
    arch        "LSB;label=32;scalar=64";
    class       volVectorField;
    location    "193.95";
    object      U;
}
// * * * * * * * * * * * * * * * * * * * * * * * * * * * * * * * * * * * * * //

dimensions      [0 1 -1 0 0 0 0];

internalField   nonuniform List<vector> 
5478
(
(-0.0324107 0.0241486 -1.37348e-19)
(-0.0314404 0.0377437 0)
(0.0449985 0.0286904 2.07282e-19)
(0.207325 0.00307333 -3.64032e-19)
(0.452664 -0.0269582 2.39698e-19)
(0.737247 -0.0542059 -7.0774e-20)
(1.00224 -0.0768131 -1.23903e-19)
(1.2032 -0.0971082 0)
(1.32042 -0.116865 0)
(1.36024 -0.137916 1.44462e-19)
(1.34375 -0.156107 -7.05297e-20)
(1.3021 -0.16947 -1.04282e-19)
(1.2518 -0.185339 -3.76153e-20)
(1.21281 -0.173316 0)
(1.16201 -0.202217 8.28273e-20)
(-0.0341883 0.0203531 2.75431e-19)
(-0.00176427 0.0153321 0)
(0.145326 -0.00693525 0)
(0.411324 -0.0294044 -1.82319e-19)
(0.734473 -0.0420997 2.40595e-19)
(1.02602 -0.0474381 6.96019e-20)
(1.23184 -0.0521834 -1.15702e-19)
(1.34006 -0.0613295 1.02607e-19)
(1.37013 -0.0757289 2.42568e-19)
(1.35338 -0.0920706 -2.10342e-19)
(1.32079 -0.106331 4.464e-21)
(1.28604 -0.118861 0)
(1.25543 -0.122506 3.75471e-20)
(1.22231 -0.124613 0)
(1.18927 -0.12927 0)
(-0.0291215 0.0153767 -7.26315e-22)
(0.0608443 -0.00538836 -1.27769e-19)
(0.317458 -0.0267309 5.33172e-22)
(0.680482 -0.0289166 0)
(1.01149 -0.0202142 -7.94099e-20)
(1.2335 -0.0132474 6.67566e-20)
(1.34202 -0.0145462 5.5701e-20)
(1.37088 -0.0236801 0)
(1.35982 -0.0365771 -8.09459e-20)
(1.33691 -0.0490225 6.66146e-20)
(1.31095 -0.059994 5.42798e-20)
(1.28358 -0.0669322 0)
(1.25161 -0.0737969 0)
(1.2205 -0.0749056 -1.01638e-19)
(1.18644 -0.0816456 9.05792e-20)
(-0.0126232 0.00682592 -1.48257e-19)
(0.169477 -0.023945 1.26128e-19)
(0.552158 -0.022056 -1.08949e-19)
(0.945334 0.00177697 9.45162e-20)
(1.2102 0.0211299 1.58165e-19)
(1.33883 0.0274942 -1.31871e-19)
(1.37798 0.0233061 -5.56744e-20)
(1.37467 0.0139072 4.27468e-20)
(1.35609 0.00335955 -4.10356e-20)
(1.33076 -0.00728097 0)
(1.30166 -0.0165322 0)
(1.27043 -0.0257565 -7.58646e-20)
(1.24154 -0.0315905 9.73905e-20)
(1.21442 -0.0359641 -5.43791e-20)
(1.18851 -0.0425921 0)
(0.0212106 -0.00476833 7.48988e-20)
(0.332668 -0.028391 6.3238e-20)
(0.800082 0.0114331 -2.25308e-19)
(1.14754 0.0506495 2.84939e-21)
(1.32446 0.0687732 -3.07964e-21)
(1.38542 0.070561 -1.79979e-21)
(1.38896 0.0640009 5.16464e-20)
(1.36942 0.0542154 4.40169e-20)
(1.34152 0.0431083 3.12945e-20)
(1.31211 0.0322612 -5.13671e-21)
(1.28432 0.0219901 -7.12709e-20)
(1.2596 0.0136332 0)
(1.23602 0.00751742 3.11951e-20)
(1.21279 1.42286e-05 -2.25792e-20)
(1.19124 -0.00221824 4.12908e-20)
(0.0786206 -0.0139039 -1.58665e-19)
(0.534584 -0.0027866 1.71983e-19)
(1.00925 0.066791 -5.81815e-20)
(1.27997 0.10815 4.41777e-20)
(1.38463 0.120132 -8.08576e-20)
(1.40137 0.116311 -6.00307e-20)
(1.38277 0.106184 1.47445e-21)
(1.35448 0.0940261 0)
(1.32644 0.0818394 6.38117e-20)
(1.30059 0.0702545 -5.67459e-20)
(1.27599 0.0597971 2.25642e-20)
(1.25131 0.0504143 0)
(1.22697 0.0414915 1.38403e-20)
(1.20405 0.0341306 -2.37453e-20)
(1.18035 0.0293485 0)
(0.160968 -0.012224 -1.97821e-20)
(0.733263 0.0539863 1.26612e-21)
(1.16452 0.135944 2.89804e-20)
(1.35837 0.171096 4.75094e-20)
(1.40766 0.174103 -3.60868e-20)
(1.39635 0.163681 6.07738e-20)
(1.3681 0.149753 -1.37911e-20)
(1.33836 0.135479 0)
(1.30995 0.12143 -3.76203e-20)
(1.28268 0.108036 2.46579e-21)
(1.25693 0.0955041 3.14328e-20)
(1.23356 0.0840068 0)
(1.21259 0.0744657 -2.02774e-20)
(1.1929 0.0648727 0)
(1.17597 0.0613193 1.23056e-20)
(0.262378 0.00709357 -2.10976e-20)
(0.897688 0.131203 0)
(1.26679 0.213632 2.9335e-20)
(1.39391 0.23743 0)
(1.40532 0.229862 0)
(1.37925 0.212888 0)
(1.3464 0.194726 -1.17996e-20)
(1.31494 0.176777 0)
(1.28658 0.159596 7.59499e-21)
(1.26153 0.143702 0)
(1.23921 0.129226 -9.86562e-21)
(1.21859 0.116262 0)
(1.19893 0.103971 6.43026e-21)
(1.18059 0.0938946 0)
(1.16216 0.0877212 4.17755e-21)
(-0.0130578 0.16227 -1.40856e-20)
(-0.0420218 0.232864 0)
(-0.083649 0.21636 2.23753e-20)
(-0.125009 0.179032 0)
(-0.163912 0.13342 0)
(-0.199716 0.0761108 0)
(-0.230753 0.00377868 -1.56128e-20)
(-0.255852 -0.0846702 0)
(-0.274402 -0.187302 1.3046e-20)
(-0.285137 -0.300054 0)
(-0.287108 -0.416306 -2.05006e-20)
(-0.281583 -0.527343 0)
(-0.266088 -0.622937 1.45425e-20)
(-0.248689 -0.690255 0)
(-0.200231 -0.729082 9.37312e-21)
(-0.0228173 0.173542 7.25432e-20)
(-0.04593 0.265267 -5.27134e-20)
(-0.0698757 0.259069 2.54562e-20)
(-0.0905294 0.224779 8.6034e-20)
(-0.106859 0.179226 1.52682e-21)
(-0.118225 0.121175 -7.10068e-20)
(-0.124131 0.0480482 4.77063e-20)
(-0.124102 -0.0417929 0)
(-0.116798 -0.146765 4.27896e-20)
(-0.101786 -0.262837 -4.22837e-23)
(-0.0799768 -0.383457 -2.36818e-20)
(-0.0588086 -0.499982 0)
(-0.0269407 -0.600262 -4.59172e-20)
(-0.0235402 -0.678675 0)
(0.0205452 -0.722805 -4.5123e-20)
(-0.0308553 0.166118 1.2399e-19)
(-0.0479489 0.273798 2.78185e-20)
(-0.0513606 0.280567 -4.7717e-20)
(-0.0477379 0.251499 -1.33761e-19)
(-0.0378911 0.207669 7.99284e-20)
(-0.0210213 0.150986 7.70815e-20)
(0.00300653 0.0793489 -1.38907e-19)
(0.0345 -0.00868535 0)
(0.075229 -0.111756 -1.1922e-19)
(0.125656 -0.226292 1.06003e-19)
(0.186551 -0.343391 4.67931e-20)
(0.242259 -0.457682 0)
(0.315438 -0.54195 3.13482e-20)
(0.332266 -0.616062 -4.90785e-20)
(0.405 -0.634074 0)
(-0.0350591 0.141944 6.52302e-20)
(-0.0486676 0.255905 -1.70652e-19)
(-0.034386 0.27615 2.0339e-19)
(-0.00833121 0.254425 -1.8222e-19)
(0.0262372 0.21386 -8.36263e-20)
(0.069408 0.159618 7.68261e-20)
(0.121371 0.0900359 7.05759e-20)
(0.183974 0.00466254 6.5269e-20)
(0.259959 -0.0968265 -1.80216e-19)
(0.350776 -0.211375 7.78861e-22)
(0.451873 -0.326105 4.81171e-20)
(0.54475 -0.439027 0)
(0.643805 -0.514524 6.08527e-20)
(0.679151 -0.575884 1.3665e-19)
(0.760193 -0.576156 -7.80511e-20)
(-0.0347948 0.108244 7.45397e-22)
(-0.0479844 0.215517 1.16632e-19)
(-0.0221903 0.245491 -1.02844e-19)
(0.0212221 0.231526 9.1829e-20)
(0.0765715 0.195149 1.66568e-19)
(0.143029 0.143371 -1.5247e-19)
(0.223372 0.0774031 -6.9367e-20)
(0.322252 -0.0037653 -1.96109e-19)
(0.441425 -0.101351 1.75662e-19)
(0.579892 -0.20853 0)
(0.717859 -0.31455 0)
(0.840394 -0.409296 1.41046e-19)
(0.933731 -0.472835 -2.96149e-19)
(0.969228 -0.518598 9.77762e-20)
(1.01012 -0.51382 0)
(-0.0315575 0.0742542 5.47358e-22)
(-0.045959 0.162638 -1.16192e-19)
(-0.0151973 0.194186 3.09313e-19)
(0.0397921 0.184748 -9.1108e-20)
(0.112938 0.151315 -8.3004e-20)
(0.20588 0.102298 7.57001e-20)
(0.325065 0.0392745 6.93983e-20)
(0.474313 -0.0387102 1.25383e-19)
(0.64778 -0.128581 -2.19945e-19)
(0.828369 -0.219329 9.45807e-20)
(0.984112 -0.302672 7.97058e-20)
(1.10303 -0.371774 0)
(1.16071 -0.40385 0)
(1.17218 -0.440001 1.49873e-19)
(1.15261 -0.398884 -1.33344e-19)
(-0.0286521 0.0476024 2.5617e-22)
(-0.0437806 0.110075 0)
(-0.0107732 0.133523 0)
(0.0556561 0.12264 1.82344e-19)
(0.155142 0.0900207 -8.04808e-20)
(0.294397 0.0426751 7.2148e-20)
(0.476024 -0.0173217 1.32997e-19)
(0.687148 -0.0855031 -1.17919e-19)
(0.901702 -0.155313 1.0872e-19)
(1.0852 -0.218995 -9.46718e-20)
(1.21341 -0.2741 -7.8531e-21)
(1.2758 -0.311353 0)
(1.27461 -0.333359 4.54665e-20)
(1.23727 -0.346534 0)
(1.17375 -0.319831 0)
(-0.0291063 0.031537 -1.34555e-19)
(-0.0413051 0.0676779 0)
(0.0014506 0.076051 -2.05821e-19)
(0.0967737 0.058225 3.62493e-19)
(0.252906 0.024055 -4.01456e-19)
(0.468267 -0.019234 -7.35875e-20)
(0.717141 -0.0658139 1.27125e-19)
(0.95951 -0.11078 0)
(1.15648 -0.152214 0)
(1.28364 -0.187163 -1.59497e-19)
(1.33616 -0.218688 -5.98175e-20)
(1.32633 -0.23527 1.15635e-19)
(1.27884 -0.252761 -4.55604e-20)
(1.21757 -0.253231 0)
(1.16225 -0.23867 -9.29864e-20)
(-0.203874 -0.743526 0)
(-0.0207313 -0.567168 3.7416e-21)
(0.257586 -0.111801 -3.47201e-21)
(0.495862 0.401351 0)
(0.605268 0.647894 0)
(0.720615 0.704548 -8.14861e-23)
(0.676351 0.681948 0)
(0.513958 0.722088 0)
(0.581167 0.405461 9.60069e-23)
(0.726172 -0.130266 0)
(0.90706 -0.313321 0)
(0.940393 -0.461108 -1.08122e-22)
(0.891711 -0.487889 0)
(0.90681 -0.588239 -7.40839e-23)
(0.931428 -0.432743 -6.0867e-23)
(0.928016 -0.0762191 0)
(0.980225 0.150392 -6.1776e-22)
(1.02877 0.561224 7.39543e-22)
(1.03834 0.522091 0)
(1.0065 0.351479 4.43101e-22)
(1.09248 0.0940033 -5.65575e-22)
(1.07497 -0.504172 1.1481e-22)
(1.09282 -0.494072 -2.03108e-22)
(1.06922 -0.288054 1.94077e-22)
(1.14011 0.00193058 -2.37229e-22)
(1.12496 0.694654 0)
(1.17746 0.475797 -2.51257e-22)
(1.10688 -0.428085 2.40236e-22)
(1.04575 -0.431462 -1.14002e-22)
(1.04732 0.147957 0)
(1.00454 0.19941 -8.99335e-23)
(0.990971 -0.0250612 0)
(0.983146 -0.0538224 -3.81546e-23)
(0.97747 0.00513017 -1.27352e-23)
(0.973558 0.0134439 1.33557e-24)
(0.96852 0.00160658 -9.33825e-24)
(0.968037 -0.000360309 0)
(0.962998 0.00139552 2.61696e-24)
(-0.0481935 -0.779248 1.6473e-20)
(-0.0755524 -0.715443 -1.01837e-22)
(0.0664111 -0.290767 -8.96912e-21)
(0.295307 0.256267 8.55423e-21)
(0.504687 0.532076 0)
(0.67771 0.668276 8.21322e-23)
(0.638526 0.725719 -1.529e-22)
(0.505323 0.744491 0)
(0.665895 0.362977 -9.67299e-23)
(0.805362 -0.200647 0)
(0.959037 -0.371948 0)
(1.00295 -0.452935 1.08888e-22)
(0.937748 -0.484627 0)
(0.961672 -0.599404 2.34732e-21)
(0.959624 -0.440936 -1.97755e-21)
(0.94113 -0.0842355 2.4568e-21)
(0.94893 0.124624 -2.34521e-21)
(1.00376 0.543071 -1.50634e-22)
(1.01414 0.520964 0)
(0.980931 0.347023 0)
(1.10905 0.0874588 -1.08192e-22)
(1.07839 -0.496384 1.01749e-21)
(1.09395 -0.496973 -1.70786e-21)
(1.07519 -0.291944 8.16807e-22)
(1.10111 -0.0121065 7.56037e-22)
(1.11773 0.685822 0)
(1.19418 0.477113 4.05987e-22)
(1.12118 -0.407869 0)
(1.03959 -0.431704 1.14398e-22)
(1.03551 0.14939 -2.68576e-22)
(1.00502 0.201348 4.34051e-22)
(0.997353 -0.0229161 -4.28509e-23)
(0.986033 -0.0530452 7.28126e-23)
(0.978866 0.00571717 2.54318e-24)
(0.975973 0.0139667 1.56575e-23)
(0.971674 0.001936 -7.77739e-24)
(0.970989 -4.7643e-05 -7.13283e-25)
(0.966182 0.00167928 7.0079e-25)
(0.313984 -0.695237 2.17174e-20)
(0.121781 -0.722107 -3.50938e-20)
(0.0167624 -0.460942 4.02865e-21)
(0.234273 0.041219 9.34502e-21)
(0.500078 0.366797 8.4624e-23)
(0.678814 0.634674 -1.31671e-22)
(0.6186 0.778966 1.55555e-22)
(0.530213 0.758079 -3.56205e-22)
(0.761775 0.338735 0)
(0.913942 -0.230232 1.21772e-20)
(1.01767 -0.41552 -1.16142e-20)
(1.05049 -0.438758 -2.22492e-22)
(0.968869 -0.469415 0)
(0.98315 -0.605238 -4.83311e-21)
(0.974869 -0.451597 4.47909e-21)
(0.958254 -0.0884535 -2.55772e-21)
(0.919156 0.107201 2.4407e-21)
(0.978476 0.527246 2.33912e-21)
(0.992226 0.523201 -1.94424e-21)
(0.961221 0.342202 0)
(1.11782 0.0860425 0)
(1.08061 -0.47644 1.69222e-21)
(1.0858 -0.497815 -1.61554e-21)
(1.07597 -0.29457 -2.06223e-21)
(1.05388 -0.0305582 -3.10251e-22)
(1.10562 0.671244 2.21846e-21)
(1.20138 0.482865 -6.77038e-23)
(1.12886 -0.375891 -5.99001e-22)
(1.02776 -0.427101 1.34493e-21)
(1.01993 0.148874 -1.20227e-21)
(1.0023 0.203152 4.92806e-23)
(1.00021 -0.0192496 -1.30768e-22)
(0.985755 -0.0515024 5.32697e-23)
(0.977244 0.00627147 -5.09334e-23)
(0.97542 0.0144023 -1.05064e-23)
(0.971966 0.00227323 -5.21083e-24)
(0.971103 0.000270148 1.69862e-23)
(0.966703 0.00194693 2.66259e-24)
(0.675017 -0.556585 0)
(0.491884 -0.565517 9.433e-21)
(0.188285 -0.512378 -9.30957e-21)
(0.253617 -0.179397 0)
(0.47763 0.186138 -8.6984e-23)
(0.625198 0.569003 1.35313e-22)
(0.551781 0.788492 0)
(0.539006 0.735178 4.21613e-23)
(0.841377 0.316188 -4.48781e-22)
(1.02632 -0.237296 0)
(1.07403 -0.444674 -8.97974e-21)
(1.09733 -0.426394 8.79e-21)
(1.01934 -0.44298 -3.63528e-22)
(0.993638 -0.60196 -5.07861e-21)
(0.98117 -0.469857 4.84306e-21)
(0.98328 -0.100929 3.25293e-22)
(0.899873 0.0810601 0)
(0.946952 0.492323 -3.08404e-22)
(0.95665 0.519111 2.75333e-21)
(0.936254 0.337782 -6.27112e-23)
(1.11479 0.0882571 4.167e-22)
(1.08315 -0.454709 -2.3798e-21)
(1.07287 -0.499336 -3.1988e-21)
(1.07072 -0.298142 3.89853e-21)
(1.00376 -0.0513254 -5.75308e-22)
(1.07915 0.636443 0)
(1.19227 0.482313 -3.46897e-22)
(1.13142 -0.345488 6.06874e-22)
(1.01287 -0.421964 -1.3635e-21)
(1.0004 0.143302 1.21767e-21)
(0.995357 0.202374 -1.61072e-22)
(0.999166 -0.0157171 0)
(0.9824 -0.0498696 -5.40135e-23)
(0.972827 0.00654861 1.00994e-22)
(0.972086 0.014661 3.25533e-23)
(0.969524 0.00257348 3.12015e-23)
(0.968519 0.000568019 -1.69982e-23)
(0.964678 0.00218618 1.85904e-26)
(0.90605 -0.519197 3.43801e-22)
(0.812189 -0.412514 3.86822e-22)
(0.553094 -0.392782 0)
(0.365942 -0.294402 0)
(0.421919 0.0156752 0)
(0.507808 0.512585 0)
(0.469542 0.792492 8.91153e-21)
(0.546107 0.687504 -2.07715e-20)
(0.902045 0.275921 1.27161e-20)
(1.12306 -0.224181 0)
(1.13176 -0.446386 -8.88637e-21)
(1.11861 -0.415674 8.77277e-21)
(1.05521 -0.408597 6.03964e-21)
(0.994317 -0.583289 -5.08488e-21)
(0.968085 -0.496801 5.38716e-21)
(1.00028 -0.116436 -5.46995e-21)
(0.879441 0.0697237 -3.50327e-22)
(0.913243 0.475954 -4.00467e-21)
(0.931639 0.521891 3.81584e-21)
(0.919588 0.332669 2.53388e-22)
(1.10642 0.0935723 2.75583e-22)
(1.08483 -0.426183 2.59427e-21)
(1.05537 -0.498706 -2.83588e-21)
(1.05606 -0.300051 -9.59861e-22)
(0.949626 -0.07289 -6.44399e-22)
(1.04857 0.608808 -5.71193e-22)
(1.17642 0.492842 0)
(1.12968 -0.307149 0)
(0.996062 -0.412727 0)
(0.978972 0.136983 0)
(0.986043 0.201928 4.09516e-22)
(0.995181 -0.0110131 -2.34712e-22)
(0.976622 -0.0476098 1.08962e-22)
(0.966128 0.00679825 -3.08048e-22)
(0.966358 0.0148368 3.30127e-23)
(0.964644 0.00287786 6.05197e-24)
(0.963538 0.000856253 -2.11718e-23)
(0.96035 0.0023961 -6.65241e-24)
(1.03731 -0.446736 -3.61953e-22)
(0.914017 -0.371818 1.9086e-20)
(0.826192 -0.273951 -1.83711e-20)
(0.624386 -0.244428 3.36411e-21)
(0.468707 -0.110665 -3.20413e-21)
(0.416677 0.375894 6.85763e-21)
(0.390517 0.736907 -6.34043e-21)
(0.551576 0.633288 2.27941e-22)
(0.952719 0.2517 -4.39285e-22)
(1.19999 -0.186732 0)
(1.19421 -0.416808 -3.34982e-22)
(1.14183 -0.400046 1.34438e-20)
(1.08706 -0.370202 -1.27987e-20)
(1.00659 -0.550769 -3.24638e-22)
(0.947962 -0.523591 0)
(1.00549 -0.145939 -6.26486e-21)
(0.871378 0.0429422 1.1655e-20)
(0.877618 0.426279 -5.06821e-21)
(0.885429 0.513095 0)
(0.891829 0.332873 1.83973e-21)
(1.09132 0.106396 -6.71383e-24)
(1.08552 -0.394175 -2.16717e-21)
(1.03801 -0.496179 -3.88515e-21)
(1.03197 -0.302803 3.81568e-21)
(0.901541 -0.0967173 -5.11252e-21)
(1.00459 0.557404 1.60899e-21)
(1.14198 0.492875 3.32404e-21)
(1.12138 -0.27268 -1.44039e-21)
(0.980072 -0.403395 1.36976e-21)
(0.955175 0.125239 -5.49671e-22)
(0.973029 0.198832 5.2265e-22)
(0.987973 -0.00666206 0)
(0.968755 -0.0453876 1.09364e-22)
(0.957604 0.00676809 -1.7722e-23)
(0.95867 0.0148326 0)
(0.957725 0.00313016 -2.96906e-23)
(0.956577 0.00110218 1.40143e-23)
(0.954072 0.00256551 -2.60267e-24)
(1.08294 -0.359203 0)
(0.948256 -0.315488 0)
(0.857961 -0.251421 -6.56082e-23)
(0.814184 -0.176454 0)
(0.666248 -0.0890723 0)
(0.459644 0.312538 -2.61468e-21)
(0.427832 0.678092 2.43473e-21)
(0.646668 0.539901 1.92387e-20)
(1.04402 0.181168 -1.82792e-20)
(1.2618 -0.181706 0)
(1.24236 -0.391593 -2.95989e-22)
(1.15765 -0.390037 2.22319e-22)
(1.10535 -0.338259 -1.10178e-20)
(1.02625 -0.504858 -2.31896e-22)
(0.932408 -0.549091 1.00142e-20)
(0.995631 -0.182701 1.91218e-22)
(0.857318 0.0374793 -1.98885e-22)
(0.837135 0.418878 8.06385e-21)
(0.854774 0.514919 -7.98332e-21)
(0.879699 0.322021 0)
(1.08196 0.113128 0)
(1.08579 -0.357937 -1.09919e-22)
(1.02182 -0.487842 0)
(1.0003 -0.303519 4.97095e-21)
(0.850375 -0.11801 9.91731e-22)
(0.960965 0.526041 -4.86092e-21)
(1.11176 0.503783 -1.49442e-21)
(1.1109 -0.230218 9.90954e-22)
(0.966365 -0.391658 -2.01407e-22)
(0.932583 0.115388 0)
(0.959699 0.196705 -2.30977e-22)
(0.979194 -0.0021368 2.1897e-22)
(0.95979 -0.0428832 6.13619e-23)
(0.948 0.00684794 2.68898e-23)
(0.949631 0.0148407 -4.65768e-23)
(0.949301 0.00340485 1.04739e-23)
(0.948163 0.00134152 0)
(0.946287 0.00270483 5.27651e-24)
(1.08809 -0.295843 5.70269e-20)
(1.00007 -0.269729 2.89911e-20)
(0.894664 -0.25176 -1.3242e-20)
(0.860132 -0.214332 -1.50081e-20)
(0.791427 -0.159706 1.39418e-21)
(0.565803 0.176765 8.94882e-23)
(0.45741 0.593638 0)
(0.699748 0.529503 -8.61645e-23)
(1.10209 0.221309 -1.75932e-22)
(1.30308 -0.0970075 0)
(1.28068 -0.317479 -1.66546e-20)
(1.17636 -0.358387 1.58821e-20)
(1.12416 -0.307027 1.91444e-22)
(1.04681 -0.451336 1.02378e-20)
(0.929898 -0.554574 -9.72292e-21)
(0.967594 -0.229276 1.89913e-22)
(0.839987 -0.0101617 2.10971e-22)
(0.7979 0.352985 0)
(0.804334 0.500006 4.74045e-21)
(0.841598 0.334563 -4.49845e-21)
(1.0706 0.139368 -1.84978e-21)
(1.08829 -0.3144 -2.72461e-22)
(1.01076 -0.475357 2.03363e-21)
(0.965664 -0.297713 -4.92802e-21)
(0.811592 -0.151812 -3.67287e-22)
(0.91085 0.462917 8.48437e-21)
(1.06185 0.500469 -2.67423e-21)
(1.09603 -0.191767 9.09762e-22)
(0.95667 -0.37902 -6.15006e-22)
(0.909485 0.0995682 0)
(0.942743 0.191836 0)
(0.968175 0.00342636 0)
(0.950159 -0.0401499 4.61962e-23)
(0.937886 0.00648656 -5.81211e-23)
(0.939804 0.0145568 4.08607e-23)
(0.939944 0.00356192 -2.67642e-23)
(0.938849 0.00148681 -1.11268e-23)
(0.937486 0.00278378 0)
(1.11128 -0.190903 0)
(1.05626 -0.170478 0)
(0.962557 -0.143818 0)
(0.88346 -0.114046 0)
(0.808777 -0.0689822 0)
(0.691542 0.15596 0)
(0.738923 0.455047 0)
(1.03868 0.333076 0)
(1.2845 0.0971873 0)
(1.34783 -0.0857999 0)
(1.29763 -0.246526 0)
(1.17735 -0.308906 0)
(1.14238 -0.24136 0)
(1.07553 -0.385531 0)
(0.937406 -0.561947 0)
(0.923292 -0.27809 0)
(0.808214 -0.00512194 0)
(0.752482 0.359446 0)
(0.740858 0.5008 0)
(0.830043 0.294586 0)
(1.09366 0.135906 0)
(1.09843 -0.278978 0)
(1.00317 -0.469005 0)
(0.920027 -0.311058 0)
(0.783642 -0.161122 0)
(0.864272 0.426553 0)
(1.02635 0.51507 0)
(1.09198 -0.170355 0)
(0.947618 -0.365966 0)
(0.887694 0.089288 0)
(0.925669 0.189444 0)
(0.955378 0.00629837 0)
(0.937998 -0.0368536 0)
(0.925426 0.00706221 0)
(0.927414 0.0147562 0)
(0.927893 0.00394119 0)
(0.926832 0.00177645 0)
(0.926001 0.00291362 0)
(1.09266 -0.132304 0)
(1.04268 -0.129828 0)
(0.984394 -0.109662 0)
(0.932995 -0.0917139 0)
(0.889377 -0.0212299 0)
(0.842678 0.151212 0)
(0.963379 0.314629 0)
(1.19002 0.197688 0)
(1.2985 0.0616914 0)
(1.29554 -0.094947 0)
(1.24392 -0.223317 0)
(1.13135 -0.262398 0)
(1.08643 -0.257964 0)
(1.02231 -0.386079 0)
(0.900699 -0.481329 0)
(0.85411 -0.191417 0)
(0.709621 0.0626626 0)
(0.665061 0.397079 0)
(0.675275 0.482936 0)
(0.845252 0.218739 0)
(1.10717 0.0534392 0)
(1.09448 -0.295475 0)
(0.970457 -0.413062 0)
(0.849748 -0.247483 0)
(0.701597 -0.126913 0)
(0.784962 0.411858 0)
(0.996465 0.455164 0)
(1.08591 -0.177468 0)
(0.923506 -0.324048 0)
(0.855872 0.105778 0)
(0.900812 0.178195 0)
(0.939443 0.00244285 0)
(0.922312 -0.0333442 0)
(0.90888 0.00827912 0)
(0.911391 0.0143075 0)
(0.912673 0.00382592 0)
(0.911782 0.00182732 0)
(0.911545 0.00292021 0)
(1.08164 -0.0788838 0)
(1.04649 -0.0781371 0)
(1.01657 -0.0635021 0)
(0.976486 -0.0350212 0)
(0.94881 0.0100706 0)
(0.938638 0.0915711 0)
(1.03828 0.198257 0)
(1.17339 0.10599 0)
(1.22232 0.0253891 0)
(1.24511 -0.06488 0)
(1.19331 -0.164104 0)
(1.11015 -0.213882 0)
(1.09677 -0.183511 0)
(1.05125 -0.291221 0)
(0.877528 -0.433643 0)
(0.753581 -0.158768 0)
(0.603366 0.10874 0)
(0.581877 0.394216 0)
(0.689225 0.401935 0)
(0.892664 0.114415 0)
(1.10368 0.0289632 0)
(1.11892 -0.241117 0)
(0.952869 -0.370829 0)
(0.78189 -0.214312 0)
(0.600563 -0.119392 0)
(0.701801 0.351249 0)
(0.996011 0.401492 0)
(1.09829 -0.153207 0)
(0.900061 -0.291234 0)
(0.825068 0.10209 0)
(0.881914 0.162234 0)
(0.926888 0.00204254 0)
(0.906851 -0.029203 0)
(0.893034 0.00887661 0)
(0.896389 0.0137298 0)
(0.89818 0.00391367 0)
(0.897158 0.00199627 0)
(0.897344 0.00294354 0)
(1.07063 -0.0447251 0)
(1.05022 -0.0416935 0)
(1.03052 -0.0372257 0)
(1.00298 -0.0186771 0)
(0.99698 0.0131245 0)
(0.994813 0.0520934 0)
(1.05369 0.109229 0)
(1.13886 0.0566968 0)
(1.16139 0.0196101 0)
(1.18065 -0.0731703 0)
(1.14359 -0.125293 0)
(1.09016 -0.17367 0)
(1.02496 -0.21188 0)
(0.992142 -0.274523 0)
(0.847336 -0.308545 0)
(0.664015 -0.0397068 0)
(0.571494 0.151547 0)
(0.592035 0.347829 0)
(0.808616 0.315149 0)
(0.976725 0.0392231 0)
(1.09531 -0.0434501 0)
(1.12055 -0.234783 0)
(0.921956 -0.27821 0)
(0.721577 -0.121257 0)
(0.530271 -0.0846438 0)
(0.633438 0.277392 0)
(0.997062 0.311256 0)
(1.10254 -0.145846 0)
(0.862183 -0.232289 0)
(0.77749 0.108975 0)
(0.865477 0.142532 0)
(0.919546 -0.00231781 0)
(0.892987 -0.0244505 0)
(0.878337 0.0101313 0)
(0.883787 0.0129971 0)
(0.886677 0.00376862 0)
(0.885586 0.00204648 0)
(0.88627 0.00288883 0)
(1.06355 -0.0219127 0)
(1.0497 -0.0182521 0)
(1.04461 -0.0197258 0)
(1.02345 -0.00542361 0)
(1.02549 0.0134788 0)
(1.02668 0.0256602 0)
(1.0571 0.0636085 0)
(1.10404 0.017169 0)
(1.11789 0.00419207 0)
(1.14092 -0.0561806 0)
(1.09501 -0.109301 0)
(1.09039 -0.130807 0)
(1.02806 -0.125246 0)
(0.980739 -0.183375 0)
(0.856339 -0.226646 0)
(0.689657 0.0218763 0)
(0.694481 0.153295 0)
(0.735932 0.256301 0)
(0.968797 0.199353 0)
(1.05927 -0.0161509 0)
(1.08679 -0.0458525 0)
(1.12225 -0.180818 0)
(0.921871 -0.198566 0)
(0.749464 -0.0496531 0)
(0.576459 -0.0680963 0)
(0.608022 0.174307 0)
(0.995763 0.219453 0)
(1.10979 -0.116534 0)
(0.836499 -0.172419 0)
(0.744563 0.106689 0)
(0.874712 0.116103 0)
(0.929283 -0.0043989 0)
(0.890394 -0.0174721 0)
(0.874608 0.011083 0)
(0.882942 0.0115648 0)
(0.886228 0.0035311 0)
(0.884595 0.00212984 0)
(0.884942 0.00280167 0)
(1.05823 -0.00709523 0)
(1.04909 -0.00350114 0)
(1.05142 -0.00863519 0)
(1.03397 -0.000255647 0)
(1.04273 0.00851948 0)
(1.03899 0.00982776 0)
(1.05744 0.0306135 0)
(1.08556 -0.0018182 0)
(1.0821 -0.00513882 0)
(1.111 -0.051769 0)
(1.06669 -0.0801271 0)
(1.05313 -0.10324 0)
(1.00184 -0.119723 0)
(0.984823 -0.151523 0)
(0.888193 -0.134812 0)
(0.772872 0.0641725 0)
(0.851656 0.120497 0)
(0.898377 0.168294 0)
(1.07606 0.133134 0)
(1.10156 -0.0187122 0)
(1.06231 -0.0655705 0)
(1.08908 -0.16022 0)
(0.906567 -0.120759 0)
(0.824739 0.0318757 0)
(0.738882 -0.0116029 0)
(0.676024 0.0922312 0)
(0.99844 0.106885 0)
(1.10345 -0.0949962 0)
(0.832457 -0.0959789 0)
(0.757588 0.0971944 0)
(0.911682 0.0803835 0)
(0.952329 -0.00649553 0)
(0.904701 -0.00812691 0)
(0.890928 0.0120396 0)
(0.901681 0.00966345 0)
(0.903696 0.00333961 0)
(0.901438 0.00239814 0)
(0.900382 0.00281962 0)
(1.0526 0.00150587 0)
(1.04739 0.00361598 0)
(1.05299 -0.00201562 0)
(1.04053 0.00165264 0)
(1.04861 0.00475817 0)
(1.04426 0.00145018 0)
(1.05402 0.0112883 0)
(1.0691 -0.0104111 0)
(1.06145 -0.0136554 0)
(1.08192 -0.0434506 0)
(1.0462 -0.0618782 0)
(1.04675 -0.0775502 0)
(1.00653 -0.0731701 0)
(0.9824 -0.090538 0)
(0.911006 -0.0793614 0)
(0.858342 0.0535637 0)
(0.952967 0.0829673 0)
(0.972468 0.105623 0)
(1.08612 0.0727986 0)
(1.10315 -0.0139783 0)
(1.0525 -0.0356765 0)
(1.07042 -0.103029 0)
(0.910172 -0.0680334 0)
(0.8909 0.0413085 0)
(0.92185 0.0127073 0)
(0.837436 0.0513522 0)
(1.0144 0.0411751 0)
(1.09034 -0.0612174 0)
(0.875576 -0.032995 0)
(0.829737 0.0760558 0)
(0.965507 0.0461955 0)
(0.98576 -0.00340104 0)
(0.940879 0.00214073 0)
(0.93102 0.0119712 0)
(0.941083 0.00761376 0)
(0.940028 0.00355548 0)
(0.937454 0.00303698 0)
(0.934112 0.00309999 0)
(1.04731 0.00576061 0)
(1.04528 0.00716642 0)
(1.05079 0.00106458 0)
(1.04251 0.00298265 0)
(1.04836 0.000880026 0)
(1.04455 -0.0014721 0)
(1.04924 0.000199804 0)
(1.05611 -0.0132189 0)
(1.0494 -0.0154271 0)
(1.06025 -0.0356569 0)
(1.03682 -0.0430412 0)
(1.03232 -0.0579588 0)
(1.00088 -0.05433 0)
(0.990359 -0.0647245 0)
(0.946169 -0.043805 0)
(0.920502 0.0337138 0)
(0.988112 0.0456018 0)
(0.999005 0.0698445 0)
(1.0662 0.0450758 0)
(1.06939 -0.00355335 0)
(1.03614 -0.031502 0)
(1.04652 -0.0791235 0)
(0.94192 -0.0320708 0)
(0.945072 0.0295413 0)
(0.999035 0.0230458 0)
(0.952849 0.0425257 0)
(1.02754 -0.0026894 0)
(1.05217 -0.0433908 0)
(0.923507 0.0175233 0)
(0.920139 0.0638972 0)
(1.00985 0.0215838 0)
(1.00915 0.000293393 0)
(0.97884 0.0110018 0)
(0.975687 0.0122232 0)
(0.982859 0.00651236 0)
(0.979425 0.00433388 0)
(0.977504 0.00409167 0)
(0.973345 0.00377945 0)
(1.0423 0.00766524 0)
(1.04256 0.00810641 0)
(1.04638 0.00267289 0)
(1.04167 0.00316067 0)
(1.04539 -0.000508563 0)
(1.04157 -0.00255433 0)
(1.04472 -0.00434852 0)
(1.04508 -0.0124234 0)
(1.04172 -0.0149115 0)
(1.04402 -0.0278868 0)
(1.02979 -0.0307552 0)
(1.02583 -0.0422853 0)
(1.00551 -0.0342645 0)
(0.997747 -0.0381887 0)
(0.970215 -0.0239062 0)
(0.96256 0.019156 0)
(0.996983 0.0262405 0)
(1.00493 0.0442485 0)
(1.04649 0.0236694 0)
(1.04774 -0.000362835 0)
(1.03524 -0.0147343 0)
(1.02683 -0.045464 0)
(0.967173 -0.0131393 0)
(0.97662 0.0147632 0)
(1.00931 0.0160033 0)
(1.00344 0.0322644 0)
(1.03482 -0.00575803 0)
(1.01443 -0.0191436 0)
(0.957936 0.0313836 0)
(0.988788 0.0431759 0)
(1.03239 0.010544 0)
(1.01809 0.00741593 0)
(1.0057 0.0153043 0)
(1.00864 0.010769 0)
(1.01201 0.00596073 0)
(1.00793 0.00527502 0)
(1.00708 0.0049502 0)
(1.00375 0.00440505 0)
(1.03749 0.00810791 0)
(1.0388 0.00797237 0)
(1.04141 0.00338886 0)
(1.03881 0.00325011 0)
(1.04081 -0.000840977 0)
(1.03766 -0.00241254 0)
(1.0394 -0.00530125 0)
(1.03729 -0.0104404 0)
(1.03571 -0.012283 0)
(1.03393 -0.0208146 0)
(1.02636 -0.020783 0)
(1.02193 -0.0286615 0)
(1.00817 -0.0225159 0)
(1.00384 -0.0246942 0)
(0.98799 -0.0138868 0)
(0.986356 0.00946596 0)
(1.00196 0.0130179 0)
(1.00982 0.026937 0)
(1.03318 0.0131717 0)
(1.03047 0.00118432 0)
(1.02834 -0.00996579 0)
(1.0179 -0.0298565 0)
(0.988016 -0.0061786 0)
(0.995976 0.00678971 0)
(1.00686 0.0136495 0)
(1.01291 0.0249867 0)
(1.02915 -0.00760874 0)
(1.00294 -0.00918784 0)
(0.986291 0.0310485 0)
(1.01715 0.0309396 0)
(1.03132 0.00885114 0)
(1.01997 0.0107638 0)
(1.02072 0.0148374 0)
(1.02439 0.00957075 0)
(1.02454 0.00630248 0)
(1.02172 0.0059294 0)
(1.02181 0.00536848 0)
(1.01977 0.00482285 0)
(1.03304 0.00789014 0)
(1.03473 0.00728586 0)
(1.03633 0.00389554 0)
(1.03497 0.00307909 0)
(1.03588 -0.000180141 0)
(1.03349 -0.00175384 0)
(1.03436 -0.00433494 0)
(1.03166 -0.00769961 0)
(1.03081 -0.00925354 0)
(1.02795 -0.0143675 0)
(1.02362 -0.0140757 0)
(1.01968 -0.0188766 0)
(1.01162 -0.0147415 0)
(1.00866 -0.0147578 0)
(0.999588 -0.00834279 0)
(1.00038 0.00406544 0)
(1.00584 0.00696193 0)
(1.01179 0.0149248 0)
(1.02458 0.00684672 0)
(1.02231 0.00135789 0)
(1.02406 -0.00433341 0)
(1.01445 -0.015026 0)
(0.999322 -0.0016284 0)
(1.00389 0.00406763 0)
(1.006 0.00951529 0)
(1.01612 0.0171277 0)
(1.02464 -0.000764604 0)
(1.00233 0.000417847 0)
(0.999978 0.0243807 0)
(1.0223 0.0218774 0)
(1.02638 0.0102806 0)
(1.02109 0.0125969 0)
(1.02553 0.0135007 0)
(1.02797 0.00901531 0)
(1.02739 0.00681047 0)
(1.02611 0.00633707 0)
(1.02644 0.00566807 0)
(1.02536 0.00516622 0)
(1.02904 0.00742455 0)
(1.0306 0.00660961 0)
(1.03159 0.00417679 0)
(1.03098 0.00315836 0)
(1.03121 0.0007077 0)
(1.02962 -0.000711088 0)
(1.02971 -0.00275433 0)
(1.02754 -0.00504487 0)
(1.02681 -0.00625095 0)
(1.02418 -0.00929457 0)
(1.02177 -0.00917665 0)
(1.01869 -0.0116723 0)
(1.01405 -0.00929914 0)
(1.01183 -0.0089381 0)
(1.00685 -0.00506887 0)
(1.00756 0.00114386 0)
(1.00918 0.00311708 0)
(1.01309 0.00790111 0)
(1.01935 0.00366762 0)
(1.01781 0.00124032 0)
(1.01927 -0.00207177 0)
(1.0132 -0.00795942 0)
(1.00605 -0.000220245 0)
(1.00844 0.00298891 0)
(1.00829 0.00750991 0)
(1.0147 0.0122991 0)
(1.01908 0.00163014 0)
(1.00693 0.00289372 0)
(1.00837 0.0180993 0)
(1.02096 0.017176 0)
(1.02246 0.0105687 0)
(1.02167 0.0115535 0)
(1.02611 0.0115093 0)
(1.02767 0.00843585 0)
(1.02729 0.00673807 0)
(1.02688 0.0061245 0)
(1.02718 0.00550994 0)
(1.02666 0.00514935 0)
(1.02544 0.00687933 0)
(1.02677 0.0060267 0)
(1.02742 0.00435838 0)
(1.02714 0.00331548 0)
(1.02707 0.00157313 0)
(1.02603 0.000352159 0)
(1.02585 -0.00117135 0)
(1.02428 -0.0026811 0)
(1.02366 -0.00371177 0)
(1.0217 -0.00540313 0)
(1.02026 -0.00557295 0)
(1.01804 -0.0068051 0)
(1.01542 -0.00565157 0)
(1.01381 -0.00522352 0)
(1.01102 -0.00305691 0)
(1.01147 3.56203e-05 0)
(1.01151 0.001429 0)
(1.01353 0.0039971 0)
(1.01648 0.00205023 0)
(1.01565 0.00112782 0)
(1.01657 -0.000293384 0)
(1.01321 -0.00286726 0)
(1.00966 0.00123173 0)
(1.01055 0.00319273 0)
(1.01026 0.00588151 0)
(1.01449 0.00901675 0)
(1.017 0.00463671 0)
(1.01039 0.00588673 0)
(1.01179 0.0139027 0)
(1.0193 0.013689 0)
(1.02089 0.0106334 0)
(1.02168 0.0111726 0)
(1.02499 0.010633 0)
(1.02646 0.00829862 0)
(1.02653 0.00691739 0)
(1.02656 0.00623338 0)
(1.02678 0.00568687 0)
(1.02664 0.00535822 0)
(1.02234 0.00630691 0)
(1.02337 0.0055583 0)
(1.02382 0.00438832 0)
(1.02371 0.0034914 0)
(1.02356 0.00225747 0)
(1.02295 0.00130056 0)
(1.02268 0.000187009 0)
(1.02164 -0.00084296 0)
(1.02111 -0.00164992 0)
(1.01979 -0.00266271 0)
(1.01889 -0.0029365 0)
(1.01746 -0.00359565 0)
(1.0159 -0.00307332 0)
(1.0148 -0.00281862 0)
(1.01321 -0.00166011 0)
(1.01327 -0.00012865 0)
(1.01294 0.000621954 0)
(1.01379 0.00214799 0)
(1.01503 0.00133854 0)
(1.01461 0.00113557 0)
(1.01484 0.000646652 0)
(1.01324 -0.000448498 0)
(1.01157 0.00178645 0)
(1.01196 0.00313474 0)
(1.01191 0.00497869 0)
(1.01398 0.00707155 0)
(1.01531 0.00505533 0)
(1.01281 0.00597864 0)
(1.01411 0.0106522 0)
(1.01831 0.0110796 0)
(1.01967 0.00960899 0)
(1.02119 0.00974701 0)
(1.02376 0.00933121 0)
(1.02528 0.00770054 0)
(1.02558 0.00651763 0)
(1.02596 0.00582579 0)
(1.02613 0.00537019 0)
(1.02631 0.00514982 0)
(1.01963 0.00575151 0)
(1.02042 0.00513086 0)
(1.02077 0.00432644 0)
(1.02076 0.00359541 0)
(1.02064 0.00274737 0)
(1.02028 0.00199655 0)
(1.02006 0.00120899 0)
(1.01942 0.000471216 0)
(1.01901 -0.000130788 0)
(1.0182 -0.000777585 0)
(1.01762 -0.00106595 0)
(1.01676 -0.00145926 0)
(1.0158 -0.00130366 0)
(1.0151 -0.0011605 0)