/*--------------------------------*- C++ -*----------------------------------*\
| =========                 |                                                 |
| \\      /  F ield         | OpenFOAM: The Open Source CFD Toolbox           |
|  \\    /   O peration     | Version:  2512                                  |
|   \\  /    A nd           | Website:  www.openfoam.com                      |
|    \\/     M anipulation  |                                                 |
\*---------------------------------------------------------------------------*/
FoamFile
{
    version     2.0;
    format      ascii;
    arch        "LSB;label=32;scalar=64";
    class       surfaceScalarField;
    location    "76.5";
    object      phi;
}
// * * * * * * * * * * * * * * * * * * * * * * * * * * * * * * * * * * * * * //

dimensions      [0 3 -1 0 0 0 0];

oriented        oriented;

internalField   nonuniform List<scalar> 
19380
(
0.874547
-4.40386e-05
0.87467
-0.000123067
0.874863
-0.000193718
0.875122
-0.000258794
0.875442
-0.000320093
0.875821
-0.000378798
0.876257
-0.000435734
0.876747
-0.000490533
0.87729
-0.000542392
0.87788
-0.000590267
0.878513
-0.000633121
0.879183
-0.000670123
0.879884
-0.000700754
0.880609
-0.000724814
0.881351
-0.000742393
0.882105
-0.000753793
0.882864
-0.000759465
0.883624
-0.00075994
0.88438
-0.000755788
0.885128
-0.000747577
0.885864
-0.000735865
0.886585
-0.000721178
0.887289
-0.000704014
0.887974
-0.000684828
0.888638
-0.00066404
0.88928
-0.000642025
0.889899
-0.000619123
0.890495
-0.000595634
0.891066
-0.000571822
0.891614
-0.000547921
0.892138
-0.000524108
0.892639
-0.000500512
0.893116
-0.000477254
0.893571
-0.000454456
0.894003
-0.000432212
0.894413
-0.000410596
0.894803
-0.000389662
0.895173
-0.000369453
0.895522
-0.000349993
-0.000331346
0.895854
0.844006
-8.62658e-05
0.844124
-0.000240988
0.844309
-0.000379272
0.844557
-0.000506703
0.844864
-0.000626885
0.845227
-0.000742145
0.845646
-0.000854172
0.846117
-0.000962197
0.84664
-0.00106463
0.847209
-0.00115939
0.84782
-0.0012444
0.848468
-0.00131801
0.849146
-0.00137916
0.849849
-0.00142741
0.850569
-0.00146293
0.851302
-0.00148626
0.852041
-0.00149829
0.852781
-0.00150004
0.853518
-0.00149261
0.854247
-0.00147712
0.854966
-0.00145466
0.855671
-0.00142626
0.85636
-0.0013929
0.857031
-0.00135547
0.857681
-0.0013148
0.858311
-0.00127164
0.858918
-0.00122666
0.859503
-0.00118044
0.860065
-0.00113353
0.860603
-0.00108638
0.861119
-0.00103935
0.861611
-0.000992705
0.86208
-0.00094669
0.862527
-0.000901547
0.862953
-0.000857466
0.863357
-0.000814602
0.86374
-0.000773063
0.864104
-0.00073294
0.864448
-0.000694287
-0.00065723
0.864774
0.814531
-0.000126408
0.814643
-0.000352901
0.814819
-0.000555354
0.815054
-0.000742175
0.815346
-0.000918843
0.815693
-0.00108865
0.816093
-0.00125417
0.816545
-0.00141426
0.817047
-0.0015665
0.817595
-0.00170776
0.818186
-0.00183491
0.818813
-0.00194545
0.819472
-0.00203772
0.820155
-0.00211105
0.820858
-0.00216558
0.821574
-0.00220211
0.822297
-0.00222187
0.823024
-0.00222634
0.823748
-0.00221711
0.824467
-0.00219582
0.825176
-0.00216404
0.825873
-0.0021233
0.826556
-0.00207503
0.827221
-0.00202056
0.827867
-0.0019611
0.828493
-0.00189776
0.829098
-0.00183155
0.829681
-0.00176335
0.830241
-0.00169394
0.830779
-0.00162404
0.831294
-0.0015542
0.831786
-0.00148483
0.832256
-0.00141631
0.832703
-0.00134898
0.833129
-0.00128316
0.833533
-0.00121908
0.833917
-0.00115692
0.834281
-0.00109682
0.834625
-0.00103888
-0.000983288
0.834952
0.786085
-0.000164271
0.786191
-0.000458212
0.786356
-0.000720999
0.786578
-0.00096397
0.786854
-0.00119458
0.787182
-0.00141701
0.787563
-0.00163448
0.787994
-0.00184571
0.788475
-0.00204735
0.789002
-0.00223516
0.789572
-0.00240495
0.79018
-0.0025533
0.79082
-0.00267795
0.791487
-0.00277786
0.792175
-0.00285316
0.792877
-0.00290479
0.79359
-0.00293428
0.794307
-0.00294352
0.795024
-0.00293454
0.795738
-0.00290941
0.796444
-0.00287021
0.79714
-0.00281891
0.797822
-0.00275736
0.798489
-0.00268731
0.799138
-0.00261035
0.799768
-0.00252796
0.800378
-0.00244145
0.800967
-0.00235202
0.801534
-0.00226072
0.802078
-0.00216848
0.8026
-0.0020761
0.803099
-0.00198417
0.803576
-0.00189319
0.804031
-0.00180362
0.804464
-0.0017159
0.804875
-0.00163037
0.805265
-0.00154727
0.805635
-0.00146685
0.805986
-0.00138921
-0.00131465
0.806317
0.758633
-0.000199684
0.758731
-0.000556371
0.758885
-0.000875338
0.759092
-0.00117095
0.75935
-0.0014527
0.759659
-0.00172599
0.760019
-0.00199376
0.760428
-0.00225533
0.760887
-0.00250617
0.761393
-0.00274091
0.761942
-0.00295421
0.762531
-0.00314171
0.763153
-0.00330045
0.763804
-0.003429
0.764478
-0.00352735
0.76517
-0.00359654
0.765874
-0.00363835
0.766586
-0.00365495
0.7673
-0.00364878
0.768013
-0.00362231
0.768721
-0.00357805
0.76942
-0.00351837
0.770108
-0.00344556
0.770783
-0.00336172
0.771441
-0.00326882
0.772082
-0.00316869
0.772703
-0.00306299
0.773305
-0.00295319
0.773885
-0.00284063
0.774443
-0.00272648
0.774978
-0.00261177
0.775491
-0.00249733
0.775982
-0.0023838
0.77645
-0.00227178
0.776896
-0.00216181
0.77732
-0.00205437
0.777723
-0.0019498
0.778104
-0.00184843
0.778465
-0.00175043
-0.0016562
0.778807
0.732139
-0.000232481
0.732229
-0.000646868
0.732371
-0.00101756
0.732563
-0.00136203
0.732802
-0.00169191
0.73309
-0.00201407
0.733427
-0.00233066
0.733813
-0.00264173
0.734249
-0.00294167
0.734732
-0.00322385
0.735259
-0.00348178
0.735827
-0.00371007
0.736432
-0.00390498
0.737068
-0.00406462
0.737729
-0.00418878
0.738411
-0.0042785
0.739108
-0.0043357
0.739816
-0.00436277
0.74053
-0.00436249
0.741245
-0.00433768
0.741958
-0.00429121
0.742666
-0.00422584
0.743364
-0.00414418
0.744051
-0.00404872
0.744724
-0.00394179
0.745381
-0.00382554
0.74602
-0.00370196
0.74664
-0.00357284
0.747239
-0.00343977
0.747817
-0.00330421
0.748372
-0.00316741
0.748906
-0.00303049
0.749416
-0.00289425
0.749904
-0.00275945
0.750369
-0.00262674
0.750811
-0.00249677
0.751231
-0.00236999
0.75163
-0.00224685
0.752007
-0.0021276
-0.00201274
0.752363
0.70657
-0.000262498
0.706652
-0.000729242
0.706781
-0.0011469
0.706955
-0.00153622
0.707175
-0.00191099
0.70744
-0.00227952
0.707753
-0.00264389
0.708115
-0.00300332
0.708525
-0.00335219
0.708984
-0.0036824
0.709488
-0.0039862
0.710035
-0.00425707
0.710621
-0.00449046
0.71124
-0.00468395
0.711888
-0.00483705
0.712561
-0.00495068
0.713252
-0.0050268
0.713957
-0.00506796
0.714672
-0.00507716
0.715391
-0.00505754
0.716112
-0.00501225
0.716831
-0.00494435
0.717544
-0.00485677
0.718247
-0.00475232
0.718939
-0.00463367
0.719617
-0.0045033
0.720278
-0.0043635
0.720922
-0.00421636
0.721546
-0.00406375
0.722149
-0.00390742
0.722731
-0.00374888
0.72329
-0.00358952
0.723826
-0.0034304
0.724339
-0.00327246
0.724828
-0.00311645
0.725295
-0.00296321
0.725738
-0.00281333
0.726159
-0.00266741
0.726557
-0.00252581
-0.00238917
0.726933
0.681893
-0.000289587
0.681967
-0.000803075
0.682083
-0.00126268
0.682239
-0.00169259
0.682437
-0.00210875
0.682678
-0.00252089
0.682966
-0.00293176
0.683301
-0.00333845
0.683685
-0.00373587
0.684117
-0.00411461
0.684596
-0.00446549
0.68512
-0.00478079
0.685685
-0.00505508
0.686286
-0.00528538
0.68692
-0.00547084
0.687581
-0.00561212
0.688266
-0.00571109
0.688968
-0.00577038
0.689684
-0.00579318
0.690409
-0.00578282
0.69114
-0.00574266
0.691871
-0.00567595
0.692601
-0.00558591
0.693324
-0.00547563
0.694038
-0.00534808
0.694741
-0.00520605
0.69543
-0.00505208
0.696102
-0.00488858
0.696756
-0.00471771
0.69739
-0.00454152
0.698003
-0.00436176
0.698593
-0.00418015
0.699161
-0.00399803
0.699705
-0.00381656
0.700225
-0.00363666
0.700722
-0.00345935
0.701194
-0.00328538
0.701642
-0.00311555
0.702066
-0.00295033
-0.00279056
0.702468
0.658078
-0.000313621
0.658143
-0.000867981
0.658245
-0.00136432
0.658382
-0.00183029
0.658558
-0.00228413
0.658774
-0.002737
0.659034
-0.00319213
0.659341
-0.00364553
0.659696
-0.00409069
0.6601
-0.00451826
0.660552
-0.00491729
0.66105
-0.00527875
0.661591
-0.00559637
0.662172
-0.00586657
0.662789
-0.00608799
0.663438
-0.00626087
0.664114
-0.00638696
0.664812
-0.00646886
0.665529
-0.00650988
0.66626
-0.00651339
0.667
-0.00648286
0.667745
-0.00642167
0.668493
-0.00633324
0.669238
-0.00622091
0.669978
-0.00608789
0.670709
-0.00593719
0.671429
-0.00577163
0.672134
-0.00559389
0.672823
-0.00540642
0.673493
-0.00521159
0.674142
-0.00501144
0.67477
-0.00480798
0.675375
-0.00460284
0.675956
-0.00439755
0.676513
-0.00419319
0.677044
-0.00399099
0.677551
-0.00379186
0.678032
-0.00359688
0.678488
-0.00340664
-0.00322223
0.67892
0.635095
-0.000334489
0.63515
-0.000923662
0.635237
-0.00145135
0.635356
-0.0019486
0.635508
-0.00243619
0.635697
-0.00292667
0.635929
-0.00342339
0.636206
-0.00392239
0.63653
-0.00441474
0.636902
-0.004891
0.637324
-0.00533887
0.637793
-0.005748
0.638308
-0.00611132
0.638866
-0.00642449
0.639464
-0.00668552
0.640097
-0.00689411
0.640762
-0.00705183
0.641454
-0.00716121
0.64217
-0.00722554
0.642904
-0.00724806
0.643654
-0.00723226
0.644414
-0.00718153
0.64518
-0.00709948
0.645948
-0.00698955
0.646716
-0.00685514
0.647478
-0.00669944
0.648232
-0.00652545
0.648974
-0.00633616
0.649702
-0.00613426
0.650413
-0.00592248
0.651104
-0.00570311
0.651775
-0.00547851
0.652423
-0.00525058
0.653046
-0.0050213
0.653645
-0.00479196
0.654218
-0.00456409
0.654765
-0.00433873
0.655286
-0.00411728
0.655779
-0.0039005
-0.00368977
0.656247
0.612914
-0.000352096
0.61296
-0.000969928
0.613032
-0.00152338
0.61313
-0.00204694
0.613258
-0.00256421
0.61342
-0.00308894
0.613621
-0.00362429
0.613866
-0.00416657
0.614157
-0.00470609
0.614496
-0.00523042
0.614885
-0.00572733
0.615322
-0.00618531
0.615807
-0.00659649
0.616338
-0.00695559
0.616913
-0.00725977
0.617527
-0.0075082
0.618177
-0.00770227
0.61886
-0.00784432
0.619572
-0.00793744
0.620309
-0.00798461
0.621066
-0.00798919
0.621839
-0.00795455
0.622624
-0.00788435
0.623416
-0.00778206
0.624212
-0.0076511
0.625007
-0.00749478
0.625798
-0.00731626
0.626581
-0.00711877
0.627352
-0.00690524
0.628108
-0.00667872
0.628847
-0.00644177
0.629565
-0.00619714
0.630262
-0.00594697
0.630934
-0.00569375
0.631581
-0.00543905
0.632202
-0.00518481
0.632795
-0.00493217
0.633361
-0.00468291
0.633898
-0.00443798
-0.00419915
0.634408
0.591507
-0.000366375
0.591544
-0.00100668
0.5916
-0.00158013
0.591678
-0.00212496
0.591782
-0.00266777
0.591916
-0.00322295
0.592085
-0.0037936
0.592295
-0.0043767
0.592551
-0.00496202
0.592855
-0.0055343
0.593208
-0.00607969
0.59361
-0.00658728
0.594061
-0.00704817
0.594561
-0.00745582
0.595108
-0.00780646
0.595699
-0.0080988
0.59633
-0.00833403
0.597
-0.00851415
0.597705
-0.00864186
0.59844
-0.00871972
0.599202
-0.00875093
0.599986
-0.00873869
0.600788
-0.00868659
0.601604
-0.00859795
0.602429
-0.00847613
0.603259
-0.00832442
0.604088
-0.00814608
0.604914
-0.00794454
0.605732
-0.00772291
0.606538
-0.00748456
0.607328
-0.00723225
0.6081
-0.00696918
0.608851
-0.00669776
0.609578
-0.00642097
0.61028
-0.00614076
0.610955
-0.00585955
0.611601
-0.00557867
0.612218
-0.00530026
0.612806
-0.00502551
-0.00475667
0.613364
0.570848
-0.000377308
0.570875
-0.00103391
0.570916
-0.00162142
0.570974
-0.00218255
0.571053
-0.00274671
0.571158
-0.00332802
0.571294
-0.00393033
0.571469
-0.00455172
0.571688
-0.00518047
0.571953
-0.00579965
0.572267
-0.00639319
0.57263
-0.00695059
0.573044
-0.00746251
0.573509
-0.00792079
0.574024
-0.00832083
0.574586
-0.00866098
0.575194
-0.00894217
0.575846
-0.00916583
0.576538
-0.00933411
0.577267
-0.00944908
0.57803
-0.00951369
0.578822
-0.00953084
0.57964
-0.00950386
0.580477
-0.00943573
0.581331
-0.00932961
0.582195
-0.00918868
0.583065
-0.00901619
0.583936
-0.0088157
0.584804
-0.00859036
0.585663
-0.00834388
0.58651
-0.00807915
0.587341
-0.00779988
0.588152
-0.00750869
0.58894
-0.00720917
0.589703
-0.00690357
0.590438
-0.006595
0.591144
-0.00628499
0.59182
-0.00597616
0.592465
-0.0056699
-0.00536906
0.593077
0.55091
-0.000384942
0.550927
-0.00105162
0.550953
-0.00164714
0.550991
-0.00222001
0.551045
-0.00280104
0.551121
-0.00340363
0.551224
-0.00403391
0.551363
-0.00469089
0.551543
-0.00536014
0.551767
-0.00602343
0.552039
-0.00666492
0.55236
-0.00727217
0.552733
-0.00783566
0.553158
-0.00834592
0.553635
-0.00879781
0.554164
-0.00918938
0.554743
-0.00952112
0.555371
-0.00979368
0.556045
-0.0100086
0.556763
-0.0101673
0.557522
-0.0102726
0.558318
-0.0103268
0.559147
-0.0103327
0.560004
-0.0102928
0.560884
-0.0102099
0.561783
-0.010087
0.562693
-0.00992705
0.563611
-0.00973373
0.564531
-0.00951012
0.565447
-0.00926015
0.566355
-0.0089868
0.56725
-0.00869432
0.568126
-0.0083855
0.568982
-0.00806464
0.569812
-0.00773418
0.570616
-0.00739816
0.571389
-0.00705829
0.572131
-0.00671787
0.572839
-0.00637838
-0.00604346
0.573513
0.531668
-0.000389404
0.531676
-0.00105972
0.531687
-0.00165744
0.531705
-0.00223806
0.531734
-0.00283086
0.53178
-0.00344958
0.531851
-0.00410441
0.531954
-0.00479372
0.532093
-0.00549969
0.532274
-0.00620394
0.5325
-0.00689154
0.532777
-0.00754898
0.533105
-0.00816388
0.533486
-0.00872663
0.533921
-0.00923222
0.534409
-0.00967833
0.534953
-0.0100648
0.535551
-0.0103913
0.536201
-0.0106588
0.536902
-0.0108682
0.537651
-0.0110217
0.538445
-0.011121
0.539281
-0.0111683
0.540153
-0.0111653
0.541058
-0.0111142
0.541988
-0.0110175
0.542939
-0.0108781
0.543905
-0.0106993
0.544879
-0.010484
0.545855
-0.0102363
0.546827
-0.00995922
0.547791
-0.00965748
0.548739
-0.00933396
0.549668
-0.00899381
0.550574
-0.00863958
0.551452
-0.00827637
0.5523
-0.00790611
0.553115
-0.00753306
0.553895
-0.00715865
-0.0067875
0.554639
0.513099
-0.000390871
0.513097
-0.00105794
0.513092
-0.00165289
0.513092
-0.00223766
0.513097
-0.00283618
0.513114
-0.00346623
0.513152
-0.00414244
0.513218
-0.00485989
0.513316
-0.00559801
0.513452
-0.00633988
0.513632
-0.00707127
0.51386
-0.00777736
0.51414
-0.00844349
0.514472
-0.00905858
0.514859
-0.00961899
0.515302
-0.010122
0.515804
-0.0105666
0.516365
-0.0109516
0.516983
-0.0112775
0.51766
-0.0115444
0.518392
-0.0117541
0.519178
-0.0119071
0.520014
-0.0120049
0.520897
-0.012048
0.521821
-0.0120384
0.522781
-0.0119776
0.523771
-0.0118679
0.524784
-0.0117123
0.525813
-0.0115132
0.526852
-0.0112749
0.527893
-0.011
0.528929
-0.0106941
0.529955
-0.0103598
0.530964
-0.0100033
0.531952
-0.00962703
0.532913
-0.0092374
0.533843
-0.00883654
0.53474
-0.00842997
0.535601
-0.008019
-0.0076094
0.536423
0.495177
-0.000389448
0.495165
-0.00104581
0.495147
-0.00163468
0.495129
-0.00221974
0.49511
-0.00281713
0.495099
-0.00345482
0.495105
-0.00414894
0.495134
-0.00488911
0.495191
-0.00565445
0.495282
-0.00643055
0.495413
-0.00720296
0.495591
-0.00795482
0.495817
-0.00867023
0.496097
-0.00933768
0.496431
-0.0099533
0.496823
-0.0105146
0.497277
-0.0110199
0.497792
-0.0114673
0.498372
-0.0118569
0.499015
-0.012188
0.499723
-0.0124616
0.500493
-0.012677
0.501323
-0.0128349
0.502209
-0.0129346
0.503148
-0.012977
0.504133
-0.0129627
0.505159
-0.0128934
0.506217
-0.0127711
0.507302
-0.0125978
0.508405
-0.0123774
0.509517
-0.0121125
0.510632
-0.0118088
0.511741
-0.0114688
0.512837
-0.0110998
0.513914
-0.0107041
0.514966
-0.0102895
0.515988
-0.00985826
0.516976
-0.00941748
0.517925
-0.00896838
-0.00851805
0.518834
0.477882
-0.000384956
0.477859
-0.00102289
0.477829
-0.00160471
0.477794
-0.00218484
0.477751
-0.00277434
0.477714
-0.00341749
0.47769
-0.00412469
0.477682
-0.00488126
0.477697
-0.00566916
0.477742
-0.00647586
0.477825
-0.00728578
0.47795
-0.00807965
0.47812
-0.00884104
0.478342
-0.00955933
0.478619
-0.0102305
0.478955
-0.0108504
0.479353
-0.0114179
0.479817
-0.0119308
0.480348
-0.0123886
0.48095
-0.01279
0.481624
-0.0131351
0.482369
-0.0134219
0.483184
-0.0136498
0.484066
-0.0138168
0.485012
-0.013923
0.486016
-0.0139673
0.487073
-0.0139504
0.488175
-0.0138732
0.489315
-0.0137368
0.490482
-0.0135449
0.491669
-0.0132991
0.492865
-0.0130057
0.494063
-0.0126667
0.495254
-0.0122904
0.496429
-0.0118789
0.497581
-0.0114417
0.498703
-0.0109807
0.499791
-0.0105053
0.500839
-0.0100166
-0.00952321
0.501845
0.46119
-0.000376628
0.461156
-0.000989212
0.461116
-0.00156537
0.461065
-0.00213291
0.461
-0.00270956
0.460939
-0.00335677
0.460884
-0.00406993
0.46084
-0.0048369
0.460814
-0.00564303
0.460814
-0.00647625
0.460848
-0.0073193
0.460919
-0.00815054
0.461032
-0.00895402
0.461192
-0.00972021
0.461407
-0.0104454
0.461681
-0.0111241
0.462017
-0.0117543
0.462421
-0.0123345
0.462897
-0.0128641
0.463448
-0.0133412
0.464077
-0.0137648
0.464787
-0.0141314
0.465577
-0.0144395
0.466445
-0.0146853
0.46739
-0.0148676
0.468406
-0.0149837
0.469489
-0.0150328
0.47063
-0.0150142
0.471821
-0.014928
0.473053
-0.0147769
0.474316
-0.0145617
0.475599
-0.0142886
0.476891
-0.013959
0.478183
-0.0135823
0.479464
-0.01316
0.480726
-0.0127034
0.481959
-0.0122143
0.483158
-0.0117044
0.484316
-0.0111747
-0.0106357
0.485429
0.445078
-0.000362758
0.445035
-0.000945898
0.444988
-0.00151896
0.444919
-0.00206366
0.444836
-0.00262601
0.444753
-0.00327455
0.444668
-0.0039845
0.444589
-0.00475767
0.444523
-0.0055774
0.44448
-0.00643265
0.444464
-0.0073036
0.44448
-0.00816673
0.444534
-0.00900785
0.444632
-0.0098182
0.44478
-0.0105941
0.444986
-0.0113296
0.445255
-0.0120228
0.445591
-0.0126712
0.446002
-0.013275
0.446493
-0.0138318
0.447068
-0.0143399
0.447731
-0.0147944
0.448484
-0.0151926
0.449327
-0.0155288
0.45026
-0.0158005
0.451279
-0.0160025
0.452379
-0.0161328
0.453553
-0.0161881
0.454793
-0.0161676
0.456088
-0.0160719
0.457427
-0.0159011
0.458799
-0.0156608
0.460192
-0.0153514
0.461592
-0.014983
0.462989
-0.0145566
0.464371
-0.0140853
0.465727
-0.0135706
0.467049
-0.0130267
0.46833
-0.0124548
-0.0118678
0.469562
0.429526
-0.000340367
0.429476
-0.000896003
0.429424
-0.00146688
0.429338
-0.00197734
0.42924
-0.0025279
0.429136
-0.0031711
0.429021
-0.00386886
0.428909
-0.00464635
0.428806
-0.00547363
0.42872
-0.00634667
0.428655
-0.0072391
0.428617
-0.00812826
0.428611
-0.00900199
0.428644
-0.00985171
0.428724
-0.010674
0.428857
-0.0114626
0.429051
-0.0122169
0.429314
-0.0129339
0.429652
-0.013613
0.430073
-0.0142522
0.430582
-0.0148495
0.431186
-0.0153988
0.43189
-0.0158964
0.432696
-0.0163345
0.433605
-0.0167091
0.434614
-0.0170121
0.435722
-0.0172401
0.43692
-0.0173866
0.438202
-0.0174494
0.439557
-0.0174266
0.440972
-0.0173169
0.442436
-0.0171245
0.443934
-0.0168489
0.445451
-0.0165001
0.446973
-0.0160787
0.448487
-0.0155992
0.449979
-0.0150627
0.451438
-0.0144864
0.452855
-0.0138715
-0.0132338
0.454221
0.414513
-0.000304939
0.414462
-0.000845595
0.414404
-0.00140827
0.414302
-0.00187599
0.414193
-0.00241889
0.414067
-0.00304508
0.413924
-0.00372515
0.413783
-0.00450621
0.413643
-0.0053329
0.413517
-0.00622093
0.413404
-0.00712625
0.413312
-0.0080363
0.413247
-0.00893648
0.413215
-0.00982002
0.413224
-0.0106834
0.413282
-0.0115202
0.413397
-0.0123319
0.413578
-0.0131151
0.413835
-0.01387
0.414176
-0.0145929
0.414609
-0.0152824
0.415142
-0.0159321
0.415783
-0.0165371
0.416536
-0.017088
0.417406
-0.0175788
0.418392
-0.0179986
0.419494
-0.0183419
0.420707
-0.0185988
0.422022
-0.0187651
0.423431
-0.0188354
0.424921
-0.0188068
0.426477
-0.0186809
0.428085
-0.0184561
0.429726
-0.0181415
0.431384
-0.0177371
0.433043
-0.0172581
0.434686
-0.0167057
0.436299
-0.0160996
0.437869
-0.0154416
-0.0147505
0.439386
0.400017
-0.000250302
0.399976
-0.000805026
0.399906
-0.00133828
0.399795
-0.00176498
0.399676
-0.00229934
0.399526
-0.00289554
0.399358
-0.00355722
0.399192
-0.00434017
0.399016
-0.00515649
0.398854
-0.0060591
0.398693
-0.00696511
0.39855
-0.00789382
0.398425
-0.00881144
0.398329
-0.00972389
0.398267
-0.0106212
0.398247
-0.0115006
0.39828
-0.0123646
0.398374
-0.0132093
0.398542
-0.0140375
0.398793
-0.0148444
0.399139
-0.0156277
0.399588
-0.0163813
0.400151
-0.0171002
0.400836
-0.0177734
0.401651
-0.0183931
0.402598
-0.0189456
0.403678
-0.0194227
0.40489
-0.0198108
0.406229
-0.0201032
0.407683
-0.02029
0.409242
-0.0203662
0.410891
-0.0203294
0.412612
-0.0201768
0.414385
-0.019915
0.416191
-0.0195432
0.41801
-0.0190768
0.419821
-0.018517
0.421607
-0.0178854
0.423351
-0.017185
-0.016438
0.425038
0.386019
-0.000169037
0.386003
-0.000789136
0.385911
-0.00124667
0.385801
-0.00165443
0.385665
-0.00216339
0.385496
-0.00272608
0.385306
-0.00336817
0.385118
-0.00415136
0.384907
-0.00494567
0.384714
-0.00586591
0.384504
-0.00675497
0.384316
-0.00770641
0.384131
-0.0086259
0.383973
-0.00956678
0.383839
-0.0104865
0.383742
-0.011404
0.38369
-0.0123124
0.383694
-0.0132129
0.383766
-0.0141095
0.383918
-0.0149967
0.384165
-0.0158745
0.384517
-0.0167337
0.384988
-0.0175708
0.385588
-0.0183737
0.386328
-0.0191335
0.387217
-0.0198338
0.388257
-0.0204636
0.389452
-0.0210052
0.390797
-0.0214484
0.392286
-0.0217786
0.393907
-0.0219873
0.395645
-0.0220673
0.397481
-0.0220132
0.399394
-0.021828
0.40136
-0.0215097
0.403356
-0.0210721
0.405356
-0.0205169
0.407337
-0.0198666
0.409278
-0.0191261
-0.0183212
0.411161
0.372502
-5.38863e-05
0.372528
-0.000815293
0.372399
-0.00111798
0.372305
-0.0015598
0.372139
-0.00199727
0.371962
-0.00254953
0.371749
-0.00315561
0.371544
-0.00394615
0.371298
-0.00469989
0.371081
-0.00564813
0.370819
-0.00649358
0.370596
-0.00748328
0.370346
-0.00837619
0.370137
-0.00935692
0.369926
-0.0102755
0.369757
-0.0112349
0.369616
-0.0121717
0.369528
-0.0131254
0.369499
-0.0140806
0.369546
-0.0150432
0.369682
-0.0160109
0.369924
-0.0169758
0.370288
-0.0179338
0.370785
-0.0188711
0.371432
-0.0197801
0.372239
-0.0206417
0.373218
-0.0214421
0.374373
-0.0221602
0.375706
-0.0227812
0.377212
-0.023285
0.378883
-0.0236584
0.380704
-0.0238884
0.382656
-0.0239652
0.384715
-0.023887
0.386855
-0.0236493
0.389046
-0.0232629
0.391258
-0.0227291
0.393462
-0.0220708
0.395631
-0.0212946
-0.0204304
0.39774
0.359451
0.000100174
0.359534
-0.000899183
0.359351
-0.000934163
0.359291
-0.00150061
0.359076
-0.00178168
0.358915
-0.00238844
0.358667
-0.00290773
0.358459
-0.0037385
0.358172
-0.00441262
0.357941
-0.00541767
0.357623
-0.00617491
0.357379
-0.00723919
0.357056
-0.00805352
0.356809
-0.00911018
0.356512
-0.00997858
0.356284
-0.0110061
0.356046
-0.0119337
0.355873
-0.012953
0.355735
-0.0139424
0.355674
-0.0149826
0.35569
-0.0160262
0.355809
-0.0170957
0.356048
-0.0181722
0.356424
-0.0192474
0.356956
-0.0203121
0.35766
-0.0213456
0.358551
-0.022333
0.359641
-0.0232501
0.360936
-0.0240765
0.362438
-0.0247871
0.364142
-0.0253621
0.366035
-0.0257815
0.368099
-0.0260293
0.370309
-0.0260968
0.372634
-0.025975
0.375041
-0.0256698
0.377494
-0.0251813
0.379954
-0.0245311
0.382387
-0.0237276
-0.0228044
0.384761
0.346854
0.000292348
0.347003
-0.00104775
0.346751
-0.000681731
0.346744
-0.00149407
0.346462
-0.00149997
0.346341
-0.00226754
0.346039
-0.00260557
0.345851
-0.00355029
0.345508
-0.00406933
0.345284
-0.00519427
0.344896
-0.00578664
0.344653
-0.00699653
0.344242
-0.0076417
0.343985
-0.00885332
0.343581
-0.00957532
0.34332
-0.0107448
0.342964
-0.0115771
0.342727
-0.0127168
0.342461
-0.0136757
0.342303
-0.0148252
0.34218
-0.0159026
0.342176
-0.0170915
0.342267
-0.0182634
0.342506
-0.0194869
0.342899
-0.0207046
0.343474
-0.0219208
0.344249
-0.0231078
0.345244
-0.0242451
0.346471
-0.0253039
0.347941
-0.0262566
0.349653
-0.0270741
0.3516
-0.0277289
0.353767
-0.0281962
0.356128
-0.028458
0.358651
-0.0284981
0.361296
-0.0283151
0.36402
-0.0279052
0.366776
-0.0272869
0.369519
-0.0264705
-0.0254917
0.372206
0.334705
0.000514138
0.334911
-0.00125352
0.33459
-0.000361027
0.334642
-0.00154583
0.334289
-0.00114652
0.334224
-0.00220301
0.333852
-0.00223339
0.333705
-0.00340303
0.333289
-0.0036536
0.333096
-0.0050013
0.332622
-0.00531256
0.332408
-0.00678244
0.331885
-0.00711912
0.331654
-0.00862206
0.331114
-0.00903499
0.330864
-0.0104952
0.33035
-0.0110635
0.330096
-0.0124621
0.329659
-0.0132394
0.329441
-0.0146068
0.32914
-0.015602
0.329032
-0.0169829
0.32894
-0.0181718
0.329042
-0.0195888
0.329255
-0.0209173
0.329683
-0.0223494
0.330304
-0.0237287
0.331173
-0.0251141
0.332295
-0.0264254
0.333697
-0.0276592
0.335385
-0.0287611
0.33736
-0.029704
0.339612
-0.0304487
0.34212
-0.0309654
0.344849
-0.0312272
0.347755
-0.0312214
0.350786
-0.0309366
0.353885
-0.0303857
0.356993
-0.0295785
-0.0285533
0.360055
0.322995
0.000749706
0.323236
-0.00149377
0.322865
9.831e-06
0.322963
-0.00164416
0.322548
-0.000731936
0.322538
-0.002193
0.322097
-0.00179187
0.321998
-0.00330411
0.321505
-0.00316101
0.321357
-0.00485236
0.320789
-0.00474483
0.320623
-0.00661656
0.319975
-0.00647075
0.3198
-0.00844758
0.319094
-0.00832883
0.318904
-0.0103049
0.318187
-0.0103465
0.317977
-0.0122527
0.317309
-0.0125715
0.317101
-0.0143985
0.316551
-0.015052
0.3164
-0.0168314
0.316052
-0.0178246
0.316055
-0.019591
0.316016
-0.0208782
0.316306
-0.0226401
0.316704
-0.0241262
0.31743
-0.0258404
0.318387
-0.0273822
0.319689
-0.0289615
0.321304
-0.0303755
0.323273
-0.0316735
0.325582
-0.0327579
0.328221
-0.0336038
0.331158
-0.0341646
0.334346
-0.0344094
0.337725
-0.0343159
0.341224
-0.0338846
0.344766
-0.0331199
-0.0320659
0.348278
0.311714
0.000979295
0.311956
-0.00173591
0.311565
0.000400821
0.311683
-0.00176224
0.311234
-0.000283257
0.311257
-0.00221614
0.310767
-0.00130195
0.310704
-0.00324032
0.310151
-0.00260838
0.310038
-0.00473944
0.309391
-0.00409805
0.309269
-0.00649463
0.308506
-0.00570721
0.308392
-0.0083341
0.307519
-0.00745585
0.30741
-0.0101953
0.306467
-0.00940368
0.306348
-0.0121344
0.305398
-0.011621
0.305273
-0.014273
0.304393
-0.0141723
0.304293
-0.016732
0.303583
-0.0171139
0.303585
-0.019593
0.303167
-0.0204601
0.303395
-0.0228684
0.303427
-0.024158
0.304047
-0.0264607
0.304712
-0.0280476
0.305912
-0.0301608
0.30736
-0.0318238
0.3093
-0.0336137
0.311612
-0.0350698
0.31436
-0.0363518
0.317497
-0.0373015
0.32098
-0.0378925
0.32475
-0.0380866
0.328716
-0.0378498
0.332777
-0.0371816
-0.0361307
0.336842
0.300845
0.00118425
0.301053
-0.00194439
0.300677
0.000776975
0.300781
-0.00186587
0.300334
0.000163755
0.300357
-0.00223937
0.299853
-0.000798264
0.299796
-0.0031831
0.299217
-0.0020298
0.299113
-0.00463477
0.298424
-0.00340983
0.298315
-0.00638479
0.29748
-0.00487262
0.297392
-0.00824589
0.296398
-0.00646206
0.296337
-0.0101341
0.295205
-0.00827142
0.295161
-0.0120913
0.29394
-0.0104
0.29391
-0.0142429
0.292675
-0.0129366
0.292677
-0.0167343
0.291528
-0.0159645
0.29162
-0.0196856
0.290694
-0.0195334
0.290986
-0.0231611
0.290462
-0.0236335
0.291118
-0.0271171
0.291232
-0.0281616
0.292437
-0.0313659
0.293473
-0.0328597
0.295433
-0.0355731
0.297596
-0.0372327
0.300466
-0.0392225
0.303758
-0.0405934
0.307546
-0.0416801
0.311752
-0.0422929
0.316251
-0.042349
0.32095
-0.0418801
-0.0408862
0.325705
0.290369
0.00135146
0.290514
-0.00208954
0.290183
0.00110817
0.290242
-0.0019243
0.28983
0.000575049
0.289821
-0.00223049
0.289339
-0.000316196
0.289258
-0.00310174
0.288692
-0.00146365
0.288561
-0.00450412
0.287879
-0.00272759
0.287735
-0.00624082
0.286894
-0.00403199
0.286767
-0.00811819
0.285738
-0.00543293
0.285643
-0.0100393
0.284421
-0.0070493
0.284362
-0.0120331
0.282971
-0.00900877
0.282951
-0.0142233
0.281443
-0.011428
0.281483
-0.0167742
0.279938
-0.0144196
0.280095
-0.0198423
0.278637
-0.0180753
0.27902
-0.0235443
0.27783
-0.022444
0.278613
-0.0278994
0.27795
-0.0274993
0.279351
-0.0327662
0.279579
-0.0330883
0.281796
-0.0377899
0.283359
-0.038796
0.286543
-0.0424057
0.289752
-0.0438028
0.293947
-0.0458754
0.298602
-0.0469476
0.303699
-0.0474464
0.309205
-0.0473861
-0.0465004
0.31482
0.280267
0.00147439
0.28033
-0.00215162
0.280065
0.00137237
0.280058
-0.00191685
0.279707
0.000925447
0.279644
-0.00216725
0.27921
0.000118435
0.279083
-0.00297555
0.278558
-0.00093838
0.278377
-0.00432291
0.27774
-0.0020905
0.277522
-0.00602296
0.276738
-0.00324818
0.276504
-0.00788364
0.275536
-0.00446565
0.275306
-0.00980876
0.274128
-0.00587125
0.273919
-0.0118245
0.272522
-0.0076119
0.272351
-0.0140525
0.270754
-0.00983036
0.270653
-0.0166732
0.268898
-0.0126652
0.268936
-0.0198797
0.267108
-0.0162474
0.267411
-0.0238472
0.265652
-0.0206858
0.266433
-0.0286796
0.264981
-0.0260475
0.266534
-0.0343189
0.265751
-0.0323061
0.268387
-0.0404251
0.268816
-0.0392256
0.272721
-0.0463104
0.275113
-0.0461952
0.280242
-0.0510046
0.285052
-0.0517573
0.290975
-0.053369
0.297512
-0.0539238
-0.0531049
0.304117
0.270522
0.00155141
0.270493
-0.00212256
0.270309
0.00155609
0.270227
-0.00183474
0.269952
0.00120017
0.269823
-0.00203773
0.269451
0.000489562
0.26927
-0.00279432
0.268802
-0.000470065
0.26856
-0.00408087
0.26799
-0.00152092
0.267678
-0.00571103
0.266994
-0.00256384
0.266607
-0.00749688
0.265783
-0.00364133
0.265329
-0.00935507
0.264329
-0.00487066
0.26383
-0.0113258
0.262617
-0.00639868
0.262104
-0.0135397
0.260655
-0.00838162
0.260177
-0.0161948
0.258489
-0.0109773
0.258128
-0.0195187
0.256236
-0.0143549
0.256131
-0.0237425
0.254122
-0.0186771
0.254512
-0.0290692
0.252566
-0.0241018
0.253871
-0.0356235
0.252264
-0.0306998
0.255027
-0.0431879
0.254223
-0.0384219
0.25891
-0.050997
0.259766
-0.0470514
0.266526
-0.057765
0.270384
-0.0556148
0.278328
-0.0613128
0.285759
-0.0613547
-0.0608472
0.293501
0.261117
0.00158342
0.261008
-0.00201333
0.260902
0.00166191
0.260749
-0.00168139
0.26055
0.00139911
0.260356
-0.00184368
0.260049
0.000795718
0.259815
-0.00256043
0.259404
-5.8856e-05
0.259109
-0.00378593
0.258602
-0.00101337
0.258213
-0.00532212
0.257618
-0.00196888
0.257101
-0.00698037
0.256417
-0.00295711
0.255752
-0.00868972
0.254961
-0.00407966
0.254142
-0.0105072
0.253215
-0.00547187
0.252254
-0.0125783
0.251159
-0.00728674
0.250088
-0.0151234
0.248792
-0.0096814
0.247682
-0.0184092
0.246158
-0.012831
0.24517
-0.0227542
0.243428
-0.0169352
0.242872
-0.0285127
0.240974
-0.0222039
0.241346
-0.0359955
0.239497
-0.0288507
0.24156
-0.0452513
0.240063
-0.0369251
0.244831
-0.0557646
0.244286
-0.046506
0.252536
-0.066015
0.254383
-0.0574616
0.265906
-0.0728363
0.272698
-0.0681471
-0.0715188
0.28337
0.252044
0.00156843
0.251872
-0.0018412
0.251832
0.00170163
0.25162
-0.00146897
0.251484
0.00153456
0.251238
-0.00159712
0.250988
0.00104555
0.250711
-0.00228358
0.25035
0.000302141
0.250015
-0.00345033
0.249558
-0.000556318
0.249118
-0.00488213
0.248584
-0.00143526
0.247992
-0.00638873
0.247389
-0.00235406
0.24661
-0.00791005
0.245928
-0.00339814
0.244936
-0.00951501