/*--------------------------------*- C++ -*----------------------------------*\
| =========                 |                                                 |
| \\      /  F ield         | OpenFOAM: The Open Source CFD Toolbox           |
|  \\    /   O peration     | Version:  2512                                  |
|   \\  /    A nd           | Website:  www.openfoam.com                      |
|    \\/     M anipulation  |                                                 |
\*---------------------------------------------------------------------------*/
FoamFile
{
    version     2.0;
    format      ascii;
    arch        "LSB;label=32;scalar=64";
    class       volVectorField;
    location    "189.55";
    object      U;
}
// * * * * * * * * * * * * * * * * * * * * * * * * * * * * * * * * * * * * * //

dimensions      [0 1 -1 0 0 0 0];

internalField   nonuniform List<vector> 
13248
(
(-0.012888 0.00881701 4.07615e-20)
(-0.0265647 0.0112741 0)
(-0.0335225 0.00511034 -7.15385e-20)
(-0.0294557 -0.00329615 6.62439e-20)
(-0.0102801 -0.0117868 6.1522e-20)
(0.0273659 -0.019615 0)
(0.086005 -0.0262459 0)
(0.166578 -0.0310429 1.40877e-19)
(0.267798 -0.0332939 -2.69709e-21)
(0.385861 -0.0323394 -1.16442e-19)
(0.514724 -0.027793 9.98527e-20)
(0.646998 -0.0197136 -6.131e-20)
(0.775115 -0.00864106 0)
(0.892415 0.00448428 -8.49075e-20)
(0.993903 0.0185098 1.51407e-19)
(1.0765 0.0322253 -3.50157e-20)
(1.13942 0.0445696 -5.22984e-20)
(1.18315 0.0546903 4.87573e-20)
(1.21035 0.0622259 0)
(1.22452 0.0662911 0)
(1.22756 0.0690201 0)
(1.22911 0.0657589 0)
(1.22166 0.0664206 1.12742e-20)
(1.22356 0.0554127 3.82442e-20)
(-0.0160905 0.0117938 -1.2276e-19)
(-0.0286142 0.0187729 7.79418e-20)
(-0.0257359 0.0161165 -2.35707e-23)
(-0.00492771 0.0095365 -1.00256e-19)
(0.0370485 0.00192419 -6.1432e-20)
(0.10303 -0.00500217 -5.68479e-20)
(0.19432 -0.00999001 -1.03125e-19)
(0.309437 -0.0119927 9.57157e-20)
(0.443269 -0.0102858 0)
(0.587431 -0.00467223 1.67352e-21)
(0.73178 0.00440428 3.51096e-21)
(0.866397 0.0159376 6.11557e-20)
(0.983292 0.0285967 0)
(1.07742 0.0410123 0)
(1.14695 0.0520548 5.40971e-20)
(1.19309 0.0609037 -1.00438e-19)
(1.21915 0.0673172 5.34465e-20)
(1.23014 0.0711318 -4.98305e-20)
(1.23134 0.0729235 -2.05234e-20)
(1.22737 0.0727892 -3.37879e-20)
(1.22287 0.0714367 -1.28193e-20)
(1.21906 0.0686598 -2.32024e-20)
(1.21637 0.0658705 3.58278e-20)
(1.2185 0.0594375 9.77083e-21)
(-0.0171308 0.0118594 0)
(-0.0254116 0.0196803 0)
(-0.00987774 0.0186512 3.60657e-20)
(0.0312439 0.0135976 3.31477e-20)
(0.100546 0.00787388 -4.43354e-22)
(0.199577 0.00386652 -5.72453e-20)
(0.326657 0.00333209 0)
(0.475221 0.00723488 -4.72759e-20)
(0.634069 0.0155234 4.23628e-20)
(0.789757 0.0271508 -3.47407e-22)
(0.929791 0.0404175 -6.69405e-20)
(1.04514 0.0534759 -5.68041e-20)
(1.13143 0.0647889 3.63368e-21)
(1.1889 0.0734262 -3.90616e-20)
(1.22147 0.0791034 9.80282e-20)
(1.23525 0.0821166 0)
(1.23706 0.0830672 -5.37348e-20)
(1.23295 0.0825316 2.61773e-20)
(1.22708 0.0814267 2.05025e-20)
(1.22232 0.0790657 0)
(1.21829 0.0776367 1.51807e-20)
(1.21599 0.0732933 -5.05463e-20)
(1.21239 0.0720016 4.72024e-20)
(1.21048 0.0653062 2.7613e-20)
(-0.0163927 0.0101655 -4.23789e-20)
(-0.0165637 0.0159709 -4.03328e-20)
(0.0158775 0.01511 3.65795e-20)
(0.082404 0.0117638 0)
(0.184581 0.00960662 0)
(0.320665 0.0114278 -1.58688e-22)
(0.482661 0.0186545 0)
(0.656126 0.0309718 -1.39204e-19)
(0.823661 0.046519 1.25963e-19)
(0.969842 0.062677 -1.515e-19)
(1.08479 0.0769964 3.32475e-20)
(1.16535 0.087859 0)
(1.21432 0.0947215 4.84082e-20)
(1.23841 0.0979643 -8.68727e-20)
(1.24579 0.0985192 2.04163e-20)
(1.244 0.0974413 4.60496e-20)
(1.23854 0.0955133 -4.46467e-21)
(1.2324 0.0933457 -4.94617e-20)
(1.2268 0.0907981 0)
(1.22145 0.0882475 0)
(1.21627 0.0852293 -1.50304e-20)
(1.21115 0.0812909 1.29173e-20)
(1.20544 0.0788752 4.30236e-20)
(1.20174 0.0716511 -4.01627e-20)
(-0.0139301 0.00763444 -4.3758e-20)
(-0.000948578 0.00990018 -4.06481e-20)
(0.0544003 0.00893462 1.12536e-19)
(0.1529 0.00861535 -6.79408e-20)
(0.293072 0.0128025 6.29365e-20)
(0.466048 0.0237317 1.13444e-19)
(0.654001 0.0409354 -7.82727e-20)
(0.834751 0.061548 -9.12478e-20)
(0.989182 0.0817624 3.63833e-21)
(1.10633 0.0983936 1.12722e-19)
(1.18439 0.109774 0)
(1.22871 0.115845 2.78831e-20)
(1.24836 0.117667 0)
(1.25278 0.116727 -4.09342e-20)
(1.24947 0.114348 5.66354e-20)
(1.2431 0.111364 3.48753e-22)
(1.23587 0.108222 -1.34443e-20)
(1.2286 0.104879 2.36337e-20)
(1.22142 0.101515 1.99083e-20)
(1.21466 0.0977313 -1.71104e-20)
(1.20839 0.094035 1.50236e-20)
(1.20302 0.0895483 -1.29114e-20)
(1.19791 0.0862598 0)
(1.19468 0.0794739 -9.23794e-21)
(-0.00923729 0.00477544 4.37471e-20)
(0.0232565 0.00333994 4.20656e-20)
(0.108816 0.00353252 -3.76154e-20)
(0.245663 0.00894327 6.882e-20)
(0.425202 0.0227867 -6.37477e-20)
(0.626971 0.0449043 5.66366e-20)
(0.823177 0.0713636 -2.66372e-20)
(0.989576 0.0967964 6.87076e-20)
(1.11313 0.116981 -4.20711e-20)
(1.1929 0.130079 7.0235e-20)
(1.23645 0.136478 -1.57809e-19)
(1.25477 0.137858 5.62713e-20)
(1.25817 0.136162 -4.61235e-20)
(1.2541 0.13292 4.29375e-20)
(1.24689 0.12903 3.44145e-20)
(1.23866 0.124927 2.83628e-20)
(1.23036 0.1207 -7.83532e-20)
(1.22246 0.11648 4.76348e-20)
(1.21525 0.112128 -1.99052e-20)
(1.20875 0.107842 4.95378e-20)
(1.20285 0.103427 -1.60525e-20)
(1.19735 0.0987968 -3.59916e-20)
(1.19185 0.0948812 3.26475e-20)
(1.18698 0.0883067 9.23495e-21)
(-0.00139345 0.00186011 0)
(0.0580977 -0.00222911 2.48347e-22)
(0.181196 0.00183011 7.73453e-20)
(0.359899 0.01658 -7.13561e-20)
(0.573103 0.0425911 -6.33462e-20)
(0.787305 0.0752308 1.15616e-19)
(0.9709 0.107129 -5.2775e-20)
(1.10661 0.132431 6.78943e-20)
(1.19312 0.148746 -2.27966e-21)
(1.23961 0.156725 -3.65516e-20)
(1.25883 0.158586 7.57292e-20)
(1.26218 0.156722 -1.09087e-19)
(1.25756 0.152936 0)
(1.24957 0.148298 -1.97054e-20)
(1.24057 0.143353 -5.03345e-20)
(1.23164 0.138321 1.59054e-20)
(1.22323 0.133332 9.35311e-22)
(1.21544 0.12835 -3.02433e-20)
(1.20817 0.12344 3.15765e-21)
(1.20132 0.118484 3.40068e-20)
(1.19484 0.113495 -1.42157e-20)
(1.18879 0.108504 -4.86793e-21)
(1.18301 0.103668 1.58938e-20)
(1.17824 0.0973606 0)
(0.0106153 -0.00080727 0)
(0.105155 -0.00534258 2.12196e-20)
(0.271441 0.00638901 -1.00071e-19)
(0.489975 0.0339172 3.5781e-20)
(0.723419 0.0723266 -3.31424e-20)
(0.93042 0.111944 -2.93734e-20)
(1.08571 0.144296 -5.05242e-20)
(1.18516 0.165675 2.52824e-20)
(1.23871 0.176634 2.13837e-20)
(1.26104 0.179863 0)
(1.26522 0.178312 4.42644e-20)
(1.26039 0.174226 -6.35681e-20)
(1.25184 0.168982 4.66937e-20)
(1.24226 0.163304 1.97139e-20)
(1.2328 0.157519 -1.51226e-20)
(1.22381 0.151764 -1.1724e-20)
(1.21535 0.146049 -1.05687e-20)
(1.2074 0.140402 3.29301e-20)
(1.19999 0.134776 0)
(1.19314 0.129211 1.4901e-20)
(1.18686 0.123696 1.15378e-20)
(1.181 0.11828 -2.95696e-20)
(1.1754 0.112853 -1.87342e-20)
(1.17009 0.107024 1.72087e-20)
(0.0276046 -0.00269343 -2.45414e-20)
(0.164908 -0.00425937 -8.32746e-22)
(0.376544 0.0194144 2.03239e-20)
(0.626153 0.0616098 5.55346e-20)
(0.862233 0.109866 1.54879e-20)
(1.0462 0.151611 -2.95862e-20)
(1.16676 0.180449 2.66637e-20)
(1.23288 0.196173 -2.26964e-20)
(1.26128 0.201848 3.91292e-20)
(1.26762 0.201159 1.59706e-20)
(1.26304 0.197034 -4.47283e-20)
(1.25403 0.191307 1.27967e-20)
(1.24379 0.18495 2.08486e-20)
(1.23359 0.1784 -1.03118e-20)
(1.22387 0.171835 0)
(1.21473 0.16531 1.40436e-20)
(1.20621 0.158867 2.25785e-20)
(1.19831 0.152508 3.1416e-21)
(1.191 0.14627 -1.80111e-20)
(1.18421 0.140139 7.09555e-21)
(1.17782 0.13412 0)
(1.17175 0.128222 -5.11741e-21)
(1.1659 0.12223 -4.66927e-21)
(1.16047 0.116538 0)
(0.0499814 -0.00304732 0)
(0.236275 0.00292917 1.19063e-20)
(0.490556 0.0423617 2.16506e-20)
(0.757347 0.0986202 -5.64225e-20)
(0.97997 0.152374 1.79216e-20)
(1.13255 0.191927 0)
(1.21931 0.214985 2.49362e-20)
(1.25847 0.224681 -3.41813e-20)
(1.26918 0.225641 -1.93885e-20)
(1.26563 0.221777 8.6116e-21)
(1.25625 0.215626 -1.2815e-20)
(1.24517 0.208539 3.12136e-20)
(1.23409 0.201128 1.48952e-20)
(1.22356 0.193653 -1.06063e-20)
(1.21373 0.186222 -1.30313e-21)
(1.20462 0.178893 -2.60738e-20)
(1.19617 0.171692 1.16232e-20)
(1.18834 0.164642 -3.28846e-22)
(1.18109 0.157741 0)
(1.17437 0.151005 -7.10259e-21)
(1.16813 0.14444 0)
(1.16225 0.138002 1.45016e-20)
(1.15663 0.131603 -1.66581e-20)
(1.15113 0.126039 7.37477e-21)
(0.077612 -0.000985432 -6.78824e-21)
(0.316432 0.0179627 -3.00905e-20)
(0.605638 0.0755097 3.36784e-20)
(0.874432 0.142926 1.91409e-20)
(1.07274 0.19758 -9.09828e-21)
(1.19211 0.231915 1.43593e-20)
(1.2497 0.248207 -6.98388e-21)
(1.26867 0.252129 1.10497e-20)
(1.26766 0.249016 0)
(1.25826 0.242497 2.33963e-20)
(1.24627 0.234564 -1.18157e-21)
(1.23413 0.226137 -1.80511e-20)
(1.22264 0.217601 7.45502e-21)
(1.21199 0.209116 -8.05296e-21)
(1.20216 0.200757 -2.79107e-21)
(1.19307 0.192556 3.46575e-21)
(1.1847 0.184542 -2.46979e-21)
(1.177 0.176732 -1.29423e-20)
(1.16994 0.16915 7.81488e-21)
(1.16344 0.161806 1.48568e-21)
(1.15734 0.154682 1.24877e-21)
(1.15153 0.147729 1.04668e-21)
(1.14589 0.140976 0)
(1.14045 0.135147 0)
(0.109816 0.0043917 6.79647e-21)
(0.401148 0.0420172 -6.27021e-21)
(0.714016 0.117991 -1.12379e-20)
(0.971935 0.192429 0)
(1.14063 0.244103 -4.47801e-21)
(1.22902 0.271386 -3.86341e-21)
(1.26321 0.280674 -6.34592e-21)
(1.26784 0.279279 0)
(1.2594 0.272576 0)
(1.24664 0.263643 0)
(1.2333 0.25395 0)
(1.22066 0.244096 0)
(1.20903 0.23431 -4.60096e-21)
(1.19837 0.22469 2.05662e-21)
(1.18862 0.215285 3.44582e-21)
(1.1797 0.206125 1.58829e-21)
(1.17155 0.197232 3.71593e-21)
(1.16411 0.188626 0)
(1.15731 0.180317 -7.94681e-22)
(1.15107 0.172304 -7.46599e-22)
(1.14527 0.164566 -1.25073e-21)
(1.1398 0.157076 -1.04833e-21)
(1.13455 0.14995 0)
(1.12944 0.143714 6.35694e-22)
(0.0059767 -0.154776 7.52991e-21)
(0.00910634 -0.327121 -7.14495e-21)
(-0.00206084 -0.406604 -1.3208e-20)
(-0.0221438 -0.431366 0)
(-0.0464115 -0.430411 -1.73986e-20)
(-0.0718207 -0.420079 5.51078e-21)
(-0.0965311 -0.4062 -1.01878e-20)
(-0.119356 -0.388643 0)
(-0.13945 -0.365236 0)
(-0.156158 -0.333827 0)
(-0.168995 -0.292948 0)
(-0.177674 -0.241908 0)
(-0.182157 -0.18074 5.31355e-22)
(-0.182686 -0.110087 -7.72566e-21)
(-0.179834 -0.0310149 1.39901e-20)
(-0.173835 0.0551089 2.00862e-20)
(-0.164611 0.146748 5.63746e-21)
(-0.152553 0.24219 0)
(-0.137621 0.339412 5.37974e-21)
(-0.119681 0.435952 -1.40973e-20)
(-0.098818 0.528562 -8.02829e-21)
(-0.0749745 0.613521 -7.00698e-21)
(-0.0515191 0.688108 0)
(-0.0260489 0.749663 0)
(0.0132846 -0.150636 -2.21501e-20)
(0.0197162 -0.310501 3.52782e-20)
(0.00427174 -0.379736 -1.24889e-20)
(-0.0224096 -0.398046 -2.38794e-20)
(-0.0538527 -0.393885 3.35692e-20)
(-0.0868517 -0.382771 -2.10098e-20)
(-0.119743 -0.369936 2.96676e-20)
(-0.15154 -0.354929 1.78908e-20)
(-0.1815 -0.33543 0)
(-0.208938 -0.309176 -1.81863e-20)
(-0.233204 -0.274531 -8.40812e-22)
(-0.253733 -0.230537 1.59242e-20)
(-0.270114 -0.176884 2.14702e-20)
(-0.282081 -0.113855 2.79706e-20)
(-0.28976 -0.0423097 -1.38208e-20)
(-0.29298 0.0371694 -3.7489e-20)
(-0.291536 0.122621 1.01638e-20)
(-0.28584 0.212217 -3.9396e-20)
(-0.275815 0.30387 0)
(-0.261434 0.395164 9.0678e-21)
(-0.242762 0.483333 8.01862e-21)
(-0.219725 0.565367 6.99839e-21)
(-0.193436 0.638458 0)
(-0.164741 0.701366 0)
(0.0196018 -0.140459 0)
(0.0289248 -0.284721 6.49206e-20)
(0.0106699 -0.344447 -2.41603e-20)
(-0.0203748 -0.357555 2.31053e-20)
(-0.0563997 -0.350789 -6.15772e-20)
(-0.0940411 -0.33873 0)
(-0.131794 -0.326334 -3.6643e-20)
(-0.168877 -0.31317 1.61413e-20)
(-0.204694 -0.296972 -3.08346e-20)
(-0.23862 -0.275481 1.28786e-20)
(-0.269966 -0.246993 8.51611e-20)
(-0.298029 -0.210389 -3.94549e-20)
(-0.322165 -0.165105 -6.47383e-20)
(-0.341896 -0.111073 -2.18001e-20)
(-0.356044 -0.0486576 4.15097e-22)
(-0.364728 0.0213015 8.0772e-20)
(-0.368308 0.0970599 -3.73211e-20)
(-0.36588 0.177019 3.88567e-21)
(-0.357115 0.25915 0)
(-0.341698 0.341108 -2.25189e-20)
(-0.319459 0.420351 0)
(-0.289917 0.494316 -2.06872e-20)
(-0.251816 0.560177 6.66511e-20)
(-0.206855 0.616231 -2.20573e-21)
(0.0243678 -0.126083 0)
(0.0360493 -0.253164 -1.50262e-21)
(0.0164727 -0.30427 2.20065e-20)
(-0.0167138 -0.313276 -2.02624e-20)
(-0.054693 -0.304369 2.00303e-20)
(-0.0938633 -0.291097 1.07157e-19)
(-0.132786 -0.278373 -3.35678e-20)
(-0.170854 -0.266062 -3.01873e-20)
(-0.207636 -0.252142 5.88722e-20)
(-0.242611 -0.23448 -8.37405e-20)
(-0.275125 -0.211392 2.38063e-20)
(-0.304418 -0.181694 2.21732e-20)
(-0.329618 -0.144648 0)
(-0.349916 -0.0999519 2.19052e-20)
(-0.364575 -0.0477209 0)
(-0.373015 0.0106857 2.9366e-20)
(-0.374791 0.0744991 -5.65132e-20)
(-0.369061 0.142207 1.79715e-20)
(-0.355124 0.211909 4.60675e-20)
(-0.332242 0.281388 2.24984e-20)
(-0.299747 0.34813 0)
(-0.257921 0.409536 -4.25634e-20)
(-0.205549 0.463684 1.46643e-20)
(-0.134659 0.509168 0)
(0.0272346 -0.109296 0)
(0.0404072 -0.218722 -6.99574e-20)
(0.0205294 -0.262278 -2.08106e-20)
(-0.0130762 -0.268487 -3.93478e-20)
(-0.0508651 -0.258367 3.64613e-20)
(-0.0889199 -0.244226 -3.49047e-20)
(-0.125746 -0.230966 6.2442e-20)
(-0.160837 -0.218895 2.9989e-20)
(-0.193904 -0.206393 -8.17084e-20)
(-0.224553 -0.19155 4.90727e-20)
(-0.252216 -0.172801 -6.89631e-20)
(-0.276171 -0.149006 1.40177e-19)
(-0.29553 -0.119406 -7.58772e-20)
(-0.309366 -0.0836992 3.10288e-20)
(-0.317069 -0.0420864 8.4977e-20)
(-0.317867 0.00480878 -3.28218e-20)
(-0.310775 0.0562517 -2.38061e-20)
(-0.294958 0.110978 -2.33438e-20)
(-0.26959 0.167332 0)
(-0.234052 0.223305 -2.53722e-20)
(-0.187567 0.276824 -1.81567e-20)
(-0.128563 0.325247 3.13693e-20)
(-0.0635483 0.367797 3.26475e-20)
(0.0334644 0.397409 -2.75877e-20)
(0.0279927 -0.0915031 0)
(0.041331 -0.183558 -8.62488e-20)
(0.0214953 -0.220751 1.292e-21)
(-0.0115283 -0.225652 7.46407e-20)
(-0.0477827 -0.21575 0)
(-0.0830332 -0.201834 0)
(-0.115632 -0.18865 0)
(-0.145082 -0.176964 -2.73899e-20)
(-0.1712 -0.165654 7.64889e-22)
(-0.193719 -0.153132 4.55435e-20)
(-0.212181 -0.137999 -6.2684e-20)
(-0.225953 -0.119224 7.11143e-22)
(-0.234308 -0.0961447 0)
(-0.236477 -0.0685317 -3.10141e-20)
(-0.231722 -0.0364002 2.02885e-20)
(-0.219359 2.86284e-05 -6.37457e-20)
(-0.198591 0.0400062 6.98326e-20)
(-0.168721 0.082481 6.75131e-21)
(-0.1292 0.126141 -6.83297e-21)
(-0.0787027 0.169155 -4.14186e-20)
(-0.0202502 0.210815 -1.33761e-20)
(0.0570255 0.245494 4.22175e-20)
(0.1248 0.280664 -2.49811e-20)
(0.244293 0.291841 0)
(0.0264847 -0.0735579 4.25798e-20)
(0.0382328 -0.14894 4.26117e-20)
(0.0181746 -0.180974 -3.77431e-20)
(-0.0139217 -0.186139 -7.09419e-20)
(-0.0480779 -0.178244 6.57365e-20)
(-0.07986 -0.166321 -6.02047e-20)
(-0.107441 -0.154713 8.30934e-20)
(-0.130266 -0.144519 -2.68302e-20)
(-0.148203 -0.135123 4.68301e-20)
(-0.161095 -0.125322 0)
(-0.16864 -0.113936 3.42447e-20)
(-0.170395 -0.100042 -6.54821e-20)
(-0.165866 -0.0830558 5.62748e-20)
(-0.154369 -0.0625972 -5.2381e-20)
(-0.135271 -0.0385609 0)
(-0.108244 -0.0112981 3.6244e-20)
(-0.0729487 0.0187293 5.17777e-20)
(-0.0287861 0.0508026 -5.0634e-20)
(0.0235727 0.0837992 -1.70666e-20)
(0.0891194 0.115626 -1.33691e-20)
(0.152927 0.14829 3.8253e-20)
(0.249546 0.169989 6.96835e-21)
(0.311909 0.20072 -7.25778e-21)
(0.450617 0.198828 7.07655e-21)
(0.0226119 -0.0558728 -4.25903e-20)
(0.0308351 -0.115408 1.19312e-19)
(0.0100685 -0.143292 -3.62317e-20)
(-0.0210079 -0.150033 6.83297e-20)
(-0.0528551 -0.145808 -6.33157e-20)
(-0.0810512 -0.137771 -4.59804e-22)
(-0.103629 -0.129629 2.64466e-20)
(-0.119917 -0.122596 9.44619e-20)
(-0.129744 -0.116448 -2.52933e-21)
(-0.132981 -0.110341 -4.17691e-20)
(-0.129392 -0.103313 0)
(-0.118659 -0.0945212 -2.77535e-20)
(-0.100419 -0.0833263 5.57566e-20)
(-0.0742894 -0.0692726 4.36316e-20)
(-0.0399901 -0.0522778 -2.20351e-20)
(0.00284434 -0.0324217 -1.56975e-21)
(0.0543482 -0.0100034 -1.362e-20)
(0.114709 0.0144347 1.93647e-20)
(0.181509 0.0395449 1.7067e-20)
(0.26467 0.0640564 -1.3296e-20)
(0.335347 0.0897608 9.75161e-21)
(0.454721 0.104983 -8.15231e-21)
(0.511967 0.130942 0)
(0.67734 0.126322 -7.07472e-21)
(0.0164923 -0.0387476 4.04902e-20)
(0.0195567 -0.0832306 -3.93873e-20)
(-0.00200778 -0.107492 3.57139e-20)
(-0.0315218 -0.116417 0)
(-0.0603244 -0.116753 0)
(-0.0841896 -0.113764 5.51425e-20)
(-0.101004 -0.110359 -5.22608e-20)
(-0.109835 -0.107634 4.53343e-20)
(-0.110247 -0.105556 -2.1307e-19)
(-0.101899 -0.103512 1.07908e-21)
(-0.0844188 -0.100692 3.35732e-20)
(-0.0574538 -0.096298 0)
(-0.0207576 -0.0896412 -4.87008e-20)
(0.0257494 -0.0801787 8.62279e-20)
(0.0819312 -0.0676549 -5.66812e-20)
(0.147427 -0.0520936 -6.99037e-20)
(0.221588 -0.033847 7.26542e-21)
(0.303968 -0.0134139 4.02746e-20)
(0.392012 0.00777403 0)
(0.492232 0.0295975 0)
(0.580441 0.0506514 -9.75369e-21)
(0.709046 0.0665964 8.15406e-21)
(0.773573 0.0864658 -3.15242e-20)
(0.941997 0.0872762 2.9393e-20)
(0.00868628 -0.0227192 0)
(0.00582197 -0.0529444 0)
(-0.0156372 -0.0734411 -1.06633e-19)
(-0.0418478 -0.0841574 3.28245e-20)
(-0.0653048 -0.0887282 2.76085e-22)
(-0.0820077 -0.0905961 5.55778e-20)
(-0.0895445 -0.0918223 0)
(-0.0864738 -0.093202 -4.66122e-20)
(-0.0718566 -0.0946883 4.24452e-20)
(-0.0450168 -0.0957363 -7.32298e-20)
(-0.00554903 -0.0955745 1.43044e-21)
(0.046535 -0.0933898 5.59419e-20)
(0.110744 -0.0884535 -4.30183e-21)
(0.186023 -0.0802543 3.5828e-20)
(0.270796 -0.0686086 -5.6945e-20)
(0.363415 -0.0537752 0)
(0.461558 -0.0358879 4.41944e-20)
(0.563281 -0.0164308 -6.01148e-20)
(0.667307 0.00444779 1.63828e-20)
(0.769935 0.0247601 0)
(0.869525 0.0437275 1.1813e-20)
(0.972261 0.059458 3.87054e-20)
(1.04569 0.0733213 -3.61391e-20)
(1.16077 0.0765859 -4.43927e-20)
(0.000183876 -0.00860359 1.19189e-19)
(-0.00814315 -0.0256813 -1.51673e-19)
(-0.0274653 -0.0417278 -1.60261e-22)
(-0.0472509 -0.0529527 3.25899e-20)
(-0.061188 -0.0603604 -6.06337e-20)
(-0.0654078 -0.0658321 -5.5857e-20)
(-0.0572297 -0.0705219 1.01433e-19)
(-0.0347052 -0.0747728 -2.22707e-21)
(0.00337819 -0.0783613 -8.54842e-20)
(0.0574714 -0.0806819 1.49261e-19)
(0.127128 -0.0809441 -3.88759e-21)
(0.210871 -0.0783818 -6.0225e-20)
(0.306252 -0.0724242 0)
(0.410133 -0.062838 0)
(0.518883 -0.0497143 -1.77994e-20)
(0.629178 -0.033768 -3.05217e-20)
(0.737021 -0.0152958 -4.69148e-20)
(0.840483 0.00330482 4.37321e-20)
(0.936229 0.0231631 -1.63947e-20)
(1.02151 0.0393589 2.81675e-20)
(1.09946 0.0554506 -1.34243e-20)
(1.15846 0.0650027 2.12585e-20)
(1.21312 0.0729093 -5.19106e-20)
(1.25057 0.0714827 9.03397e-21)
(-0.00742099 0.00213508 3.98268e-20)
(-0.0195841 -0.00368494 0)
(-0.0340165 -0.0146476 7.09691e-20)
(-0.0436346 -0.0249217 -6.5719e-20)
(-0.0432894 -0.0335487 6.07077e-20)
(-0.0291811 -0.0409749 0)
(0.00153516 -0.0474504 0)
(0.0506968 -0.052867 -4.59769e-20)
(0.118916 -0.0567467 2.65761e-21)
(0.205276 -0.0583925 3.96873e-20)
(0.30717 -0.057085 -3.19114e-20)
(0.42049 -0.0523104 6.08783e-20)
(0.540097 -0.0439041 0)
(0.660505 -0.0321379 8.33901e-20)
(0.776507 -0.0176748 -1.48147e-19)
(0.883739 -0.00155741 9.62241e-20)
(0.978562 0.0152133 5.00262e-20)
(1.05961 0.0308727 -4.66355e-20)
(1.12386 0.0456441 0)
(1.17479 0.0556689 0)
(1.2084 0.0654127 0)
(1.23049 0.0665369 0)
(1.24441 0.0692583 1.05604e-20)
(1.2404 0.0622375 -3.9e-20)
(-0.00405808 0.806286 -3.263e-21)
(0.0178565 0.853443 3.27035e-21)
(0.03748 0.878768 -8.0479e-23)
(0.0669636 0.873226 0)
(0.120097 0.818756 -2.45158e-21)
(0.20596 0.70225 4.93844e-21)
(0.31885 0.527817 2.37199e-22)
(0.438464 0.316996 -2.6421e-21)
(0.545221 0.0848379 0)
(0.635332 -0.16679 0)
(0.711967 -0.41537 -1.63297e-22)
(0.769263 -0.613391 -1.37193e-22)
(0.801293 -0.726196 -1.6357e-21)
(0.814082 -0.756761 1.48369e-21)
(0.812511 -0.740499 0)
(0.799612 -0.710635 0)
(0.786221 -0.676931 7.50777e-22)
(0.773118 -0.656037 2.66432e-23)
(0.746532 -0.675716 -6.88603e-22)
(0.7 -0.719561 -5.06525e-23)
(0.648692 -0.707527 0)
(0.618484 -0.560744 0)
(0.620577 -0.282609 0)
(0.648265 0.0456432 0)
(0.691518 0.327237 0)
(0.734671 0.511441 0)
(0.770867 0.592651 2.36569e-22)
(0.804744 0.598261 -3.80122e-22)
(0.828567 0.594854 0)
(0.825404 0.627888 0)
(0.79342 0.668565 -2.40471e-22)
(0.740523 0.647293 2.33664e-22)
(0.689192 0.516402 1.70408e-22)
(0.659018 0.278412 0)
(0.658589 -0.00900092 0)
(0.678519 -0.261302 2.79525e-22)
(0.715398 -0.421189 -2.71672e-22)
(0.750839 -0.49058 0)
(0.751191 -0.522103 1.24526e-22)
(0.701063 -0.536634 -1.764e-22)
(0.639981 -0.494697 5.60435e-23)
(0.598428 -0.355933 0)
(0.602224 -0.136911 -1.31016e-22)
(0.639451 0.0787935 1.27393e-22)
(0.68183 0.257038 0)
(0.683305 0.387089 0)
(0.667014 0.461757 -3.70207e-23)
(0.646321 0.441802 1.11046e-22)
(0.647096 0.295257 0)
(0.653961 0.0932024 0)
(0.666512 -0.153518 -2.92158e-23)
(0.647297 -0.339644 -1.98552e-24)
(0.637441 -0.417399 -3.56955e-24)
(0.627188 -0.370034 1.25925e-23)
(0.629616 -0.110818 0)
(0.603627 0.123056 0)
(0.591373 0.335394 0)
(0.57665 0.401134 0)
(0.558097 0.0651009 0)
(0.515508 -0.0989681 0)
(-0.13147 0.760366 -2.7125e-22)
(-0.0756271 0.810437 -1.04771e-20)
(-0.0152111 0.824534 4.79536e-22)
(0.0644791 0.799234 9.35043e-21)
(0.168024 0.721084 1.46364e-22)
(0.294773 0.586241 0)
(0.432064 0.409505 -1.11154e-20)
(0.559412 0.214532 2.27709e-20)
(0.666101 0.0028495 -1.1656e-20)
(0.756571 -0.234766 1.12757e-20)
(0.831339 -0.472258 -1.07855e-20)
(0.879068 -0.653974 7.93566e-21)
(0.893117 -0.747545 -7.73305e-21)
(0.883504 -0.761866 -1.66257e-22)
(0.861925 -0.733135 -3.80388e-21)
(0.8318 -0.696597 3.69429e-21)
(0.802777 -0.661913 -2.87405e-21)
(0.778298 -0.636834 2.70908e-21)
(0.742942 -0.645611 -3.01396e-21)
(0.686551 -0.681131 6.32934e-21)
(0.623094 -0.674215 -3.29805e-21)
(0.577452 -0.546416 -2.51347e-22)
(0.5667 -0.292177 -5.03197e-21)
(0.590828 0.0160811 9.62192e-21)
(0.637091 0.290543 -4.59856e-21)
(0.687558 0.478834 2.04156e-22)
(0.736587 0.566706 2.46765e-21)
(0.784835 0.579977 -3.21684e-22)
(0.821486 0.58798 -3.59773e-21)
(0.831191 0.634811 3.44236e-21)
(0.812011 0.68768 -1.7137e-21)
(0.771762 0.673184 2.88747e-22)
(0.731178 0.54007 -1.7077e-22)
(0.707357 0.290949 4.32583e-22)
(0.707923 -0.00957112 0)
(0.72129 -0.272585 0)
(0.744126 -0.437027 -9.01079e-22)
(0.768952 -0.498985 6.87676e-22)
(0.764808 -0.513822 3.53615e-22)
(0.709162 -0.516787 1.14124e-23)
(0.64261 -0.476656 -4.72669e-22)
(0.598966 -0.349936 1.0089e-22)
(0.603033 -0.145228 0)
(0.638383 0.0643704 0)
(0.677222 0.249085 0)
(0.678744 0.388402 0)
(0.66564 0.466726 1.41667e-22)
(0.647657 0.445516 -7.51174e-23)
(0.650263 0.295388 0)
(0.6607 0.0910088 0)
(0.676317 -0.152402 0)
(0.654967 -0.336817 -4.49412e-23)
(0.6397 -0.414639 1.45681e-23)
(0.625802 -0.369577 -3.09747e-23)
(0.628201 -0.108589 0)
(0.604535 0.125686 0)
(0.598631 0.337641 1.22016e-23)
(0.588469 0.404293 4.74337e-23)
(0.562718 0.072981 0)
(0.514763 -0.0957863 0)
(-0.155441 0.674862 -1.13258e-21)
(-0.069107 0.716673 -1.79984e-20)
(0.0220992 0.720826 1.76847e-20)
(0.13673 0.68371 -1.65332e-20)
(0.268395 0.595549 -1.47415e-22)
(0.412251 0.45804 0)
(0.55353 0.292984 -2.27446e-20)
(0.674847 0.122914 2.22703e-20)
(0.775987 -0.0630274 1.85067e-22)
(0.867576 -0.282769 3.5283e-22)
(0.941708 -0.504727 3.21176e-22)
(0.979403 -0.667217 2.78337e-22)
(0.976254 -0.742462 -1.24708e-20)
(0.946163 -0.746362 1.22777e-20)
(0.907393 -0.713046 0)
(0.864625 -0.675167 2.01128e-22)
(0.822609 -0.642112 -5.39993e-21)
(0.788157 -0.613778 5.32698e-21)
(0.748099 -0.610652 0)
(0.685089 -0.638375 0)
(0.610213 -0.640548 -7.0072e-21)
(0.551818 -0.535833 1.50748e-20)
(0.529154 -0.307266 -1.63372e-20)
(0.546221 -0.0183827 3.9404e-22)
(0.591861 0.247924 1.46956e-20)
(0.64744 0.439042 -1.2451e-20)
(0.707088 0.533467 9.32992e-21)
(0.767687 0.555346 -8.20052e-22)
(0.817035 0.573886 -3.44472e-21)
(0.840335 0.633177 0)
(0.835377 0.700432 0)
(0.808885 0.697439 2.17423e-21)
(0.779197 0.565766 -2.68471e-21)
(0.761985 0.30891 2.47642e-23)
(0.763543 -0.000937525 3.37898e-21)
(0.770941 -0.273303 -3.28314e-21)
(0.779208 -0.444543 0)
(0.791765 -0.50385 1.88878e-22)
(0.784043 -0.504336 1.0757e-21)
(0.724441 -0.496354 -1.87191e-21)
(0.651883 -0.459541 7.43823e-22)
(0.605237 -0.346231 6.07944e-23)
(0.608846 -0.155249 -8.2507e-22)
(0.64156 0.0498027 6.52639e-22)
(0.677219 0.240983 1.1918e-22)
(0.679289 0.389197 1.18617e-22)
(0.668842 0.471172 -1.42047e-22)
(0.652331 0.449585 0)
(0.656102 0.296128 0)
(0.67026 0.0893352 -7.88016e-22)
(0.689688 -0.149976 3.63041e-22)
(0.666826 -0.332675 -2.59296e-22)
(0.645716 -0.410874 2.43701e-22)
(0.62764 -0.369674 1.40814e-22)
(0.630432 -0.107558 -5.64957e-23)
(0.609261 0.127412 1.78725e-23)
(0.609607 0.338147 -2.56002e-23)
(0.603781 0.408243 2.32088e-23)
(0.572185 0.0824104 0)
(0.518296 -0.0922846 0)
(-0.072246 0.561885 -2.81433e-20)
(0.0268032 0.593689 -1.22989e-21)
(0.13755 0.59467 2.76811e-20)
(0.265272 0.555028 -2.61244e-22)
(0.40409 0.46831 0)
(0.547426 0.338649 0)
(0.679393 0.191623 -4.44559e-20)
(0.787004 0.0460371 -3.37846e-21)
(0.880694 -0.118394 6.78168e-20)
(0.973658 -0.322459 -1.00759e-21)
(1.04664 -0.526431 -2.13117e-20)
(1.0729 -0.666924 -1.49516e-20)
(1.05254 -0.723267 1.50151e-20)
(1.00415 -0.718673 0)
(0.949887 -0.684297 -7.27211e-21)
(0.897954 -0.647297 6.66616e-21)
(0.847106 -0.617993 0)
(0.8027 -0.590019 0)
(0.758717 -0.57521 4.45279e-21)
(0.694422 -0.590123 4.51128e-22)
(0.611862 -0.598758 -4.46273e-21)
(0.541136 -0.521613 -6.65926e-21)
(0.507147 -0.324448 6.64003e-21)
(0.514708 -0.0572592 -7.06222e-21)
(0.555684 0.200116 9.53641e-22)
(0.613751 0.392902 5.71686e-21)
(0.681846 0.493424 5.04438e-22)
(0.75288 0.523337 3.26477e-23)
(0.813652 0.551354 0)
(0.851092 0.622672 3.40571e-21)
(0.861776 0.704269 -3.5289e-21)
(0.848929 0.714329 3.01311e-22)
(0.830192 0.58918 0)
(0.82023 0.330095 -4.62923e-22)
(0.823252 0.0133594 7.21389e-21)
(0.826339 -0.266664 -1.19004e-20)
(0.820954 -0.445027 8.84431e-22)
(0.818923 -0.505729 1.23931e-21)
(0.807222 -0.494703 2.36763e-21)
(0.745773 -0.475151 1.91631e-22)
(0.66724 -0.441598 -1.19492e-21)
(0.615909 -0.343543 9.98209e-22)
(0.618332 -0.166752 4.11587e-23)
(0.648522 0.0344443 4.44182e-22)
(0.6818 0.23147 -5.51457e-22)
(0.684502 0.388718 -8.09814e-22)
(0.676056 0.475546 2.18312e-22)
(0.660148 0.45464 7.93451e-22)
(0.664587 0.297848 -1.65238e-21)
(0.682506 0.0878923 1.27259e-21)
(0.706422 -0.146887 -2.61508e-22)
(0.682755 -0.327385 4.66967e-22)
(0.65554 -0.405778 2.64092e-22)
(0.63262 -0.37003 -1.6596e-22)
(0.636168 -0.107869 1.44098e-23)
(0.617511 0.128141 4.0269e-23)
(0.623893 0.33706 0)
(0.622383 0.412718 -1.64721e-23)
(0.586536 0.0932992 2.13176e-22)
(0.526201 -0.0883158 0)
(0.0957952 0.441092 2.11317e-20)
(0.193849 0.467956 -4.42295e-20)
(0.305193 0.466286 2.27736e-20)
(0.428641 0.429986 3.14552e-20)
(0.559484 0.352679 -6.66007e-20)
(0.690079 0.238072 -4.46072e-21)
(0.803556 0.112086 3.86803e-20)
(0.895554 -0.0127201 4.37157e-20)
(0.985679 -0.164291 -4.2788e-20)
(1.07959 -0.353134 0)
(1.1449 -0.531129 -3.55938e-20)
(1.15386 -0.644782 6.36557e-20)
(1.11549 -0.684484 -2.82955e-20)
(1.0534 -0.676371 0)
(0.988323 -0.646794 0)
(0.929993 -0.614112 1.94834e-22)
(0.874826 -0.589288 -9.25081e-21)
(0.823624 -0.565223 8.98151e-21)
(0.775831 -0.543082 0)
(0.712746 -0.543926 7.86323e-21)
(0.626861 -0.5542 -1.60322e-20)
(0.544503 -0.503784 1.83439e-20)
(0.49811 -0.341628 -2.11304e-20)
(0.494787 -0.0992764 -2.09515e-22)
(0.528725 0.147859 2.05107e-20)
(0.586602 0.34098 -9.56956e-21)
(0.660153 0.447433 -2.32787e-22)
(0.738879 0.485409 -2.5014e-21)
(0.810263 0.520467 -8.73557e-23)
(0.861811 0.600272 2.62142e-21)
(0.887595 0.697358 2.23404e-22)
(0.889784 0.726865 -5.65179e-21)
(0.883405 0.615318 1.26368e-20)
(0.880481 0.357688 -7.89276e-21)
(0.884736 0.0352804 0)
(0.884857 -0.251391 -6.78762e-21)
(0.867919 -0.436915 6.39825e-21)
(0.850082 -0.502984 -2.32289e-21)
(0.83341 -0.48455 2.92297e-21)
(0.772187 -0.453601 -1.59798e-22)
(0.688334 -0.422591 0)
(0.630223 -0.341033 -9.59037e-23)
(0.630394 -0.179703 2.69917e-22)
(0.658449 0.0175404 0)
(0.690471 0.220543 7.59327e-22)
(0.69453 0.3872 -2.78104e-22)
(0.687974 0.479062 2.63601e-22)
(0.671638 0.459953 3.77338e-22)
(0.675913 0.300365 0)
(0.697406 0.0863895 0)
(0.726352 -0.143208 -1.12724e-21)
(0.702576 -0.320825 1.45939e-21)
(0.66912 -0.399221 -6.06827e-22)
(0.640606 -0.370532 1.23596e-22)
(0.64515 -0.109567 5.92141e-24)
(0.628953 0.127795 -4.03124e-23)
(0.641075 0.334291 8.93763e-23)
(0.644 0.417398 0)
(0.605663 0.105395 -2.83207e-22)
(0.538528 -0.0837793 -9.29072e-23)
(0.301871 0.330021 1.67077e-20)
(0.388232 0.352809 -1.65395e-20)
(0.487526 0.349775 1.8259e-22)
(0.59587 0.319587 -1.89597e-22)
(0.709783 0.255959 2.51597e-22)
(0.821612 0.160551 -2.84467e-22)
(0.916864 0.0544059 5.62734e-22)
(0.999705 -0.0571529 0)
(1.09153 -0.201734 -5.98615e-22)
(1.18258 -0.372973 5.74069e-22)
(1.23197 -0.521266 5.15358e-22)
(1.22041 -0.60894 -4.85088e-22)
(1.16573 -0.636602 0)
(1.0942 -0.628316 0)
(1.02288 -0.605485 2.17056e-22)
(0.960484 -0.578577 0)
(0.903139 -0.557005 -1.35659e-22)
(0.847454 -0.538121 0)
(0.796919 -0.513989 -6.13209e-21)
(0.73786 -0.500793 1.19717e-20)
(0.654096 -0.5061 -1.21547e-20)
(0.562201 -0.478731 6.25774e-21)
(0.501293 -0.35466 8.25186e-21)
(0.485357 -0.141171 -8.01052e-21)
(0.510389 0.092999 -7.79443e-21)
(0.565373 0.284781 7.52714e-21)
(0.64129 0.396377 0)
(0.725599 0.44093 1.17285e-22)
(0.805635 0.481233 0)
(0.869664 0.568744 0)
(0.911557 0.67965 7.35525e-21)
(0.928683 0.728067 -7.49177e-21)
(0.932936 0.635143 7.4509e-22)
(0.937915 0.386943 9.6386e-22)
(0.944697 0.0625413 -9.76634e-22)
(0.943839 -0.229596 -6.09157e-21)
(0.918733 -0.421033 5.91344e-21)
(0.88477 -0.495582 -3.16866e-21)
(0.861243 -0.474465 2.66852e-21)
(0.802015 -0.432164 3.07173e-22)
(0.714542 -0.401815 -7.484e-22)
(0.647768 -0.33738 1.01854e-22)
(0.644072 -0.19344 4.09054e-22)
(0.670691 -0.00110422 0)
(0.703041 0.206589 -1.63744e-22)
(0.708692 0.382799 6.00349e-22)
(0.703527 0.482645 -7.33232e-22)
(0.686452 0.467258 -3.79875e-22)
(0.690226 0.304398 0)
(0.715006 0.0851689 4.52631e-22)
(0.749273 -0.139206 -9.72407e-22)
(0.72603 -0.313107 1.52466e-23)
(0.686352 -0.39103 -1.58366e-22)
(0.651441 -0.370918 -8.24985e-23)
(0.657059 -0.11269 4.69572e-23)
(0.643176 0.126408 0)
(0.660654 0.329921 -8.94294e-23)
(0.668238 0.422088 0)
(0.629313 0.118595 0)
(0.555257 -0.0785869 1.16333e-22)
(0.50011 0.232882 -1.44621e-20)