/*--------------------------------*- C++ -*----------------------------------*\
| =========                 |                                                 |
| \\      /  F ield         | OpenFOAM: The Open Source CFD Toolbox           |
|  \\    /   O peration     | Version:  2312                                  |
|   \\  /    A nd           | Website:  www.openfoam.com                      |
|    \\/     M anipulation  |                                                 |
\*---------------------------------------------------------------------------*/
FoamFile
{
    version     2.0;
    format      ascii;
    arch        "LSB;label=32;scalar=64";
    class       volScalarField;
    location    "128.9";
    object      p;
}
// * * * * * * * * * * * * * * * * * * * * * * * * * * * * * * * * * * * * * //

dimensions      [0 2 -2 0 0 0 0];

internalField   nonuniform List<scalar> 
5478
(
-0.345143
-0.346483
-0.345295
-0.341748
-0.333966
-0.321269
-0.303717
-0.282759
-0.260576
-0.239238
-0.220199
-0.203517
-0.189362
-0.176243
-0.164327
-0.352499
-0.351858
-0.349581
-0.344986
-0.3364
-0.322584
-0.303808
-0.281927
-0.259162
-0.237223
-0.217
-0.198845
-0.182754
-0.168124
-0.154905
-0.361851
-0.358571
-0.354121
-0.347545
-0.336749
-0.320524
-0.29977
-0.276653
-0.253247
-0.230982
-0.210581
-0.192208
-0.175615
-0.1602
-0.145895
-0.373969
-0.367744
-0.360556
-0.350899
-0.336173
-0.316213
-0.292915
-0.268557
-0.244843
-0.222695
-0.202363
-0.183802
-0.166733
-0.151107
-0.137066
-0.390536
-0.380755
-0.370397
-0.355799
-0.33518
-0.310516
-0.284504
-0.258991
-0.23495
-0.212748
-0.192456
-0.173994
-0.157145
-0.141812
-0.127537
-0.412659
-0.39761
-0.382993
-0.361017
-0.333029
-0.303366
-0.27462
-0.247823
-0.223279
-0.201009
-0.18087
-0.162619
-0.14602
-0.130978
-0.117014
-0.438142
-0.417384
-0.395026
-0.363452
-0.32784
-0.293447
-0.262085
-0.233983
-0.208911
-0.186544
-0.16658
-0.148776
-0.132896
-0.118651
-0.105392
-0.461254
-0.436186
-0.402281
-0.359861
-0.317268
-0.278821
-0.245241
-0.21607
-0.190654
-0.168433
-0.148955
-0.131849
-0.116852
-0.103636
-0.0917691
-0.486674
-0.488582
-0.491712
-0.499556
-0.511701
-0.526805
-0.542865
-0.557013
-0.56592
-0.568133
-0.560099
-0.540486
-0.51049
-0.473722
-0.433406
-0.44803
-0.449511
-0.449805
-0.452256
-0.456553
-0.461303
-0.464781
-0.464871
-0.459376
-0.448462
-0.431025
-0.407474
-0.381032
-0.357179
-0.329266
-0.414534
-0.415565
-0.413859
-0.412214
-0.410276
-0.406615
-0.400554
-0.390182
-0.374763
-0.354751
-0.331763
-0.308066
-0.281792
-0.271829
-0.249469
-0.387557
-0.388524
-0.385993
-0.382018
-0.376214
-0.368037
-0.355357
-0.338247
-0.316879
-0.292099
-0.265323
-0.247238
-0.219609
-0.218273
-0.211956
-0.366823
-0.368191
-0.365734
-0.360813
-0.353012
-0.341136
-0.324837
-0.30412
-0.279791
-0.254026
-0.227025
-0.210239
-0.189989
-0.188582
-0.193517
-0.351863
-0.353841
-0.351719
-0.346371
-0.337165
-0.323543
-0.305427
-0.283344
-0.258567
-0.23364
-0.210275
-0.194651
-0.182526
-0.180282
-0.188528
-0.342992
-0.345414
-0.343687
-0.338523
-0.329273
-0.315654
-0.297676
-0.276235
-0.252924
-0.230054
-0.210464
-0.195994
-0.187385
-0.184133
-0.187158
-0.341002
-0.343333
-0.342075
-0.337765
-0.329775
-0.316991
-0.299684
-0.279016
-0.25688
-0.23547
-0.217235
-0.202411
-0.191951
-0.184385
-0.178935
-0.390445
-0.399883
-0.447719
-0.439889
-0.32942
-0.22837
-0.170582
-0.154025
-0.154687
-0.160486
-0.150813
-0.152809
-0.150214
-0.135072
-0.105391
-0.109413
-0.132031
-0.148967
-0.125926
-0.110257
-0.117006
-0.161405
-0.122865
-0.117347
-0.157017
-0.177593
-0.143178
-0.139945
-0.105617
-0.0777684
-0.0414259
-0.0158107
-0.0133509
-0.0103853
-0.0060302
-0.00324724
-0.00200501
-0.000809273
-0.329357
-0.409587
-0.486798
-0.475282
-0.357477
-0.242836
-0.170928
-0.146767
-0.130961
-0.123129
-0.121017
-0.140512
-0.145759
-0.131151
-0.101459
-0.10484
-0.126487
-0.141779
-0.127815
-0.116122
-0.131691
-0.175913
-0.120308
-0.108769
-0.13843
-0.153809
-0.155395
-0.157862
-0.105088
-0.0718999
-0.0411543
-0.017067
-0.0135352
-0.0100135
-0.00599789
-0.0033237
-0.00197642
-0.000785857
-0.26812
-0.388446
-0.490412
-0.476411
-0.364503
-0.245894
-0.168687
-0.141012
-0.119057
-0.100757
-0.0993593
-0.129477
-0.140431
-0.126776
-0.0987911
-0.100983
-0.120916
-0.133181
-0.12812
-0.119924
-0.14559
-0.186936
-0.11648
-0.0994206
-0.120714
-0.129129
-0.163374
-0.17073
-0.102703
-0.0646294
-0.0400747
-0.0181595
-0.0136515
-0.0095781
-0.00595096
-0.00339568
-0.00194341
-0.000763025
-0.226658
-0.335862
-0.425066
-0.432146
-0.340318
-0.23796
-0.165237
-0.135115
-0.115373
-0.0935951
-0.0899405
-0.121987
-0.135689
-0.121892
-0.0969819
-0.0982402
-0.114868
-0.124325
-0.126486
-0.121029
-0.157663
-0.194769
-0.113493
-0.0898494
-0.105095
-0.105171
-0.166941
-0.178019
-0.099571
-0.0566409
-0.038214
-0.0190278
-0.013707
-0.00911263
-0.00588629
-0.00345578
-0.00190766
-0.000741331
-0.206768
-0.286681
-0.374247
-0.378385
-0.307107
-0.225579
-0.162704
-0.130473
-0.112737
-0.0959458
-0.0947681
-0.125334
-0.133465
-0.118638
-0.0977353
-0.0985563
-0.115421
-0.116083
-0.122742
-0.118925
-0.166998
-0.199221
-0.111478
-0.0801675
-0.0923002
-0.0837627
-0.166411
-0.179408
-0.0960082
-0.0483676
-0.0356633
-0.0195913
-0.0136893
-0.00864783
-0.00580552
-0.00349832
-0.00187087
-0.000721095
-0.199069
-0.244904
-0.312363
-0.316231
-0.267654
-0.207608
-0.157069
-0.125336
-0.108607
-0.0973276
-0.105914
-0.13495
-0.134892
-0.117423
-0.0998814
-0.0990459
-0.105976
-0.107715
-0.11674
-0.113662
-0.171999
-0.200869
-0.111631
-0.0706144
-0.0824702
-0.0656813
-0.162112
-0.175562
-0.0925654
-0.0403605
-0.0326774
-0.0198526
-0.0136079
-0.00822012
-0.00571266
-0.00351966
-0.00183454
-0.000702626
-0.189954
-0.210177
-0.249754
-0.258965
-0.234677
-0.193577
-0.152717
-0.122019
-0.105663
-0.0926208
-0.117358
-0.142489
-0.137312
-0.113693
-0.101373
-0.100315
-0.107174
-0.10101
-0.108983
-0.104057
-0.17289
-0.198373
-0.110539
-0.0619151
-0.076035
-0.0504782
-0.154313
-0.167788
-0.0882348
-0.0333919
-0.029427
-0.0198315
-0.0134239
-0.00784534
-0.00561759
-0.00351344
-0.00179737
-0.000685689
-0.17416
-0.177879
-0.198302
-0.205874
-0.198352
-0.175849
-0.145444
-0.119353
-0.10554
-0.0830086
-0.115877
-0.148747
-0.144195
-0.114494
-0.104635
-0.0973717
-0.100027
-0.0930339
-0.0987318
-0.0916846
-0.168257
-0.197513
-0.112277
-0.0535123
-0.0724719
-0.037567
-0.142648
-0.159453
-0.0849278
-0.0268239
-0.0256383
-0.0194879
-0.013221
-0.00754706
-0.00552555
-0.00350278
-0.00176559
-0.000672052
-0.164818
-0.17513
-0.177202
-0.175899
-0.167712
-0.147949
-0.121418
-0.100086
-0.088954
-0.0727696
-0.0952587
-0.128392
-0.13016
-0.107342
-0.103233
-0.100797
-0.105179
-0.0860125
-0.0851634
-0.0852055
-0.15513
-0.184759
-0.109739
-0.044802
-0.0669276
-0.0320852
-0.126146
-0.141003
-0.0790745
-0.0223898
-0.0216338
-0.0185059
-0.0126275
-0.00724749
-0.00538526
-0.00339669
-0.00170529
-0.000651909
-0.134557
-0.144028
-0.144083
-0.136261
-0.125001
-0.109714
-0.0906274
-0.0770337
-0.0673191
-0.054396
-0.072032
-0.106514
-0.111694
-0.0901235
-0.0915715
-0.0961652
-0.0876843
-0.0675661
-0.0631693
-0.0674922
-0.13735
-0.181653
-0.102332
-0.0332612
-0.0489938
-0.0194757
-0.102473
-0.138509
-0.0680475
-0.0145081
-0.0169107
-0.0170234
-0.0117993
-0.00675907
-0.00515822
-0.00321575
-0.00161997
-0.000627333
-0.108964
-0.120584
-0.119783
-0.11225
-0.10267
-0.0908457
-0.076114
-0.0632193
-0.0497881
-0.0302533
-0.0231287
-0.0321661
-0.0413978
-0.049117
-0.0691611
-0.0802717
-0.0714382
-0.0521218
-0.0414157
-0.0432852
-0.105727
-0.141337
-0.0838567
-0.0237553
-0.0327554
-0.00896272
-0.074713
-0.103762
-0.0502158
-0.00762094
-0.0125481
-0.0149304
-0.0105699
-0.00630805
-0.00495641
-0.00297391
-0.0015199
-0.000609916
-0.0869273
-0.0961784
-0.0958102
-0.0883406
-0.0780255
-0.0651953
-0.0519659
-0.0403381
-0.027023
-0.00949868
0.0042513
0.0242205
0.0198539
-0.00818925
-0.0415368
-0.0545981
-0.0459689
-0.0304294
-0.0167798
-0.0194888
-0.0670627
-0.0836752
-0.0594284
-0.0232355
-0.0189577
0.00228568
-0.0407646
-0.0724568
-0.0316826
-0.0034147
-0.00833352
-0.0123597
-0.00908772
-0.00593312
-0.00475983
-0.00265124
-0.00139969
-0.000600083
-0.0654862
-0.0738249
-0.074429
-0.0686705
-0.0601191
-0.0507226
-0.0402732
-0.0300739
-0.0172013
0.00208214
0.0218365
0.0460887
0.04742
0.0153091
-0.0150017
-0.0285856
-0.0241508
-0.0191065
-0.00275506
-7.06096e-05
-0.0220015
-0.0206849
-0.0321963
-0.0285128
-0.00875327
0.00864649
-0.00353907
-0.0323053
-0.0121857
-0.00106439
-0.00436873
-0.00930361
-0.00716059
-0.00554875
-0.00457652
-0.00224735
-0.00125233
-0.0006016
-0.048222
-0.0555497
-0.0565745
-0.0523246
-0.0453173
-0.036944
-0.0272536
-0.0171014
-0.00554807
0.010015
0.0246214
0.0392001
0.0469213
0.0256247
0.00312526
-0.00956753
-0.00658058
-0.00295478
0.0092738
0.00766738
0.000451634
0.0104376
-0.0120961
-0.0271209
-0.0013809
0.0146917
0.0277856
-0.00111445
0.00311409
0.00113658
-0.000702932
-0.00609544
-0.00487999
-0.00512941
-0.00437447
-0.00172455
-0.00106604
-0.000616089
-0.0346591
-0.0402041
-0.0411794
-0.0381169
-0.0325056
-0.0258194
-0.0183597
-0.0103957
-0.00167722
0.0100698
0.0219092
0.0324434
0.0382779
0.026949
0.0120508
0.00135406
0.00333418
0.0032196
0.0134809
0.0145342
0.0113067
0.0203056
0.00267656
-0.0131702
0.0045663
0.0173518
0.0456223
0.0169876
0.00855119
0.00181369
0.00116542
-0.00347909
-0.0027268
-0.00456692
-0.00405575
-0.000927639
-0.000849155
-0.000626926
-0.023019
-0.0274039
-0.0286048
-0.0266348
-0.022462
-0.0173157
-0.0115666
-0.00520765
0.00171145
0.010299
0.018563
0.0254215
0.0292239
0.0239899
0.0157819
0.0081266
0.0100506
0.0108611
0.0165205
0.0174765
0.0125297
0.0192019
0.0120602
0.00106865
0.0105353
0.0184897
0.0454434
0.0202742
0.00631065
0.00359128
0.000935101
-0.00298886
-0.00120935
-0.00382162
-0.00355729
-0.000480146
-0.000654355
-0.000622922
-0.0138907
-0.0174633
-0.0185607
-0.0172348
-0.0142025
-0.010361
-0.0060774
-0.0013413
0.00362413
0.00940148
0.0149774
0.0197054
0.0222112
0.0203352
0.0166784
0.0117831
0.0125887
0.0127293
0.0159017
0.0182282
0.0146926
0.0185875
0.0157693
0.00910897
0.0132016
0.018169
0.0390481
0.0225794
0.00618403
0.00558465
0.00120778
-0.00209608
-0.00020921
-0.00287462
-0.00283992
-0.00011996
-0.000472511
-0.000560293
-0.00688934
-0.00951856
-0.0104174
-0.00964954
-0.00759874
-0.0048804
-0.00184461
0.00149131
0.00494977
0.00886936
0.0125895
0.0157685
0.0176657
0.0173262
0.0161331
0.0136025
0.0140933
0.0149976
0.0162629
0.0181507
0.0158497
0.0176155
0.0165645
0.0138474
0.0162008
0.0184208
0.0311634
0.0232704
0.00953362
0.00734907
0.00233606
-0.000935517
0.0004968
-0.00176931
-0.00193865
0.000101843
-0.000297118
-0.000441792
-0.00120874
-0.00322323
-0.00404775
-0.00367576
-0.00235243
-0.000488599
0.00159949
0.00387837
0.00619967
0.0087746
0.0112414
0.0133894
0.0148844
0.0151931
0.0152634
0.0143053
0.0144734
0.0150696
0.0158908
0.0171474
0.0160944
0.017033
0.0166438
0.0156144
0.0173285
0.0180645
0.025118
0.0223741
0.0120073
0.00865155
0.00410916
0.00085776
0.00124915
-0.000591357
-0.000945415
0.000337915
-8.37822e-05
-0.000284547
0.00319326
0.0016354
0.000922438
0.00105797
0.00186818
0.00308744
0.0044614
0.00594305
0.00745382
0.00911114
0.010744
0.0122094
0.0133828
0.013939
0.0143613
0.0142336
0.0145229
0.0152077
0.0157289
0.0164772
0.016033
0.0165368
0.0164528
0.0163363
0.0177071
0.0177567
0.0209498
0.020199
0.0133469
0.0100901
0.00580442
0.00247676
0.00198508
0.000453827
-4.47099e-05
0.000587999
0.000134216
-0.000138909
0.00656851
0.0053883
0.00478851
0.00477452
0.00522719
0.00597314
0.00684512
0.00777678
0.00872385
0.00975181
0.0108182
0.0118242
0.0126925
0.0132729
0.0137891
0.0141041
0.0144288
0.014897
0.0153239
0.015791
0.0156453
0.0160501
0.0161313
0.0161128
0.0169717
0.0167037
0.0179998
0.0175852
0.0130428
0.010371
0.00692533
0.00381326
0.00270646
0.00129478
0.000686775
0.000856474
0.000347231
-1.55161e-05
0.00922182
0.00832052
0.00780526
0.00768224
0.00789095
0.00832173
0.0088525
0.00940142
0.00994967
0.0105551
0.0112261
0.0118886
0.0124911
0.0129879
0.0134506
0.0138469
0.0141889
0.0145557
0.0149067
0.0152466
0.0152565
0.0155156
0.0156202
0.0156019
0.0160514
0.0157224
0.0159286
0.0153671
0.0125738
0.0104532
0.00764566
0.00489725
0.00343791
0.00201939
0.00128412
0.00112229
0.000555128
9.68608e-05
0.0112619
0.0105657
0.0101276
0.0099504
0.0100016
0.0102135
0.0105021
0.0107955
0.0110901
0.0114271
0.0118151
0.0122296
0.01261
0.0129661
0.0133225
0.0136685
0.0139684
0.0142412
0.0144991
0.0147489
0.0147929
0.0149419
0.0149993
0.014886
0.0150128
0.0146411
0.0143816
0.0137009
0.0118123
0.0101235
0.00795377
0.00565176
0.00409254
0.00265678
0.00176953
0.00135892
0.000735593
0.000188638
0.0128223
0.0122883
0.0119187
0.011715
0.0116639
0.0117283
0.0118524
0.0119795
0.0120992
0.0122451
0.0124398
0.0126687
0.012887
0.0131042
0.0133386
0.0135811
0.0137906
0.0139683
0.0141363
0.0142996
0.0143288
0.0143643
0.0143466
0.0141737
0.0140963
0.0136985
0.0132324
0.0125016
0.0111228
0.00976383
0.00805334
0.00617097
0.00465123
0.00323995
0.00222551
0.00160387
0.000906141
0.000271142
0.0140075
0.0135933
0.0132784
0.0130684
0.0129581
0.0129286
0.0129403
0.012951
0.0129558
0.0129776
0.0130401
0.0131289
0.0132181
0.0133106
0.0134258
0.0135578
0.0136686
0.0137567
0.0138336
0.0139016
0.013883
0.013828
0.0137422
0.0135132
0.0132869
0.0128682
0.0123254
0.0116114
0.0105188
0.00937322
0.00798377
0.00643973
0.00504975
0.00372097
0.00263058
0.00183184
0.0010499
0.000332055
0.0148899
0.0145666
0.0142985
0.0140933
0.0139486
0.0138583
0.0137952
0.0137303
0.0136603
0.0135999
0.0135702
0.013555
0.013547
0.0135406
0.0135566
0.0135833
0.0136005
0.0136003
0.0135896
0.0135677
0.013487
0.0133613
0.0132005
0.0129352
0.0126294
0.0121962
0.0116351
0.0109464
0.0100325
0.00903605
0.00786977
0.00658557
0.0053353
0.00409144
0.00298473
0.00205976
0.00119345
0.000388855
0.0155363
0.0152794
0.0150477
0.0148516
0.0146885
0.0145609
0.0144484
0.0143343
0.0142152
0.0141008
0.0140081
0.0139208
0.0138423
0.0137582
0.0136958
0.0136361
0.0135715
0.0134912
0.0134032
0.0133048
0.0131575
0.0129768
0.0127539
0.012458
0.0121015
0.0116554
0.0111094
0.010458
0.00965077
0.00875441
0.00773613
0.00663427
0.00548512
0.00434318
0.00326592
0.00226081
0.00132414
0.000440231
0.0159918
0.0157808
0.0155786
0.0153924
0.0152224
0.0150718
0.0149287
0.0147832
0.0146333
0.014485
0.0143484
0.014213
0.0140811
0.013944
0.0138202
0.0136962
0.0135668
0.0134258
0.0132707
0.0131064
0.0129027
0.0126733
0.0124033
0.0120772
0.0116966
0.0112362
0.0107017
0.0100777
0.00934407
0.0085313
0.00761186
0.00663153
0.00558973
0.00451284
0.00346709
0.00243298
0.00144117
0.00048477
0.0163001
0.0161193
0.0159383
0.0157609
0.0155896
0.0154255
0.015264
0.0150992
0.0149302
0.0147608
0.0145947
0.0144283
0.0142595
0.0140874
0.0139177
0.0137463
0.0135675
0.0133772
0.0131754
0.0129594
0.0127148
0.0124446
0.0121379
0.011788
0.0113852
0.0109219
0.0103951
0.00979172
0.00910861
0.0083471
0.00750078
0.00659748
0.0056253
0.00460863
0.00359179
0.00255073
0.00152155
0.000511696
0.0164888
0.0163271
0.0161597
0.0159899
0.0158189
0.0156485
0.0154765
0.0153008
0.0151213
0.0149389
0.0147561
0.0145692
0.0143792
0.0141832
0.0139855
0.0137822
0.0135713
0.0133493
0.0131136
0.0128644
0.0125893
0.0122917
0.0119597
0.0115911
0.0111759
0.0107086
0.0101857
0.00959812
0.00894146
0.00821583
0.00741702
0.0065563
0.00563538
0.00465967
0.00366113
0.00263111
0.00157996
0.000529663
0.0165747
0.0164225
0.0162627
0.0160977
0.0159283
0.0157557
0.0155795
0.0153994
0.0152153
0.0150274
0.0148362
0.01464
0.0144393
0.0142322
0.0140202
0.0138008
0.0135733
0.0133347
0.013082
0.0128144
0.012524
0.0122112
0.0118662
0.011488
0.0110658
0.0105969
0.0100753
0.0094954
0.00885309
0.0081436
0.00736873
0.00653145
0.0056348
0.00468102
0.00369254
0.00266921
0.00161024
0.000539068
-0.077505
-0.088255
-0.0985679
-0.108302
-0.118301
-0.127192
-0.137026
-0.149594
-0.062464
-0.0704114
-0.0782234
-0.0859822
-0.0939633
-0.101872
-0.109222
-0.119516
-0.0482687
-0.0539022
-0.0593288
-0.0649151
-0.0708599
-0.0769179
-0.083441
-0.0931822
-0.0371155
-0.0411325
-0.0450384
-0.0491233
-0.0539985
-0.059408
-0.0659237
-0.0743493
-0.0274186
-0.0304134
-0.0333774
-0.0366501
-0.0407155
-0.045005
-0.049642
-0.0555562
-0.0195462
-0.021687
-0.0238332
-0.0261564
-0.0289234
-0.0316959
-0.0350005
-0.0398992
-0.0128348
-0.0142471
-0.0156117
-0.0170794
-0.0189487
-0.0210896
-0.0240714
-0.0282484
-0.00710396
-0.00796629
-0.0087996
-0.00983513
-0.0113954
-0.0133133
-0.0155964
-0.0184691
-0.00226074
-0.00283453
-0.00344051
-0.00426754
-0.00539898
-0.00658522
-0.00800763
-0.0101993
0.00172792
0.00134312
0.000978545
0.000518397
-0.000127666
-0.000961156
-0.00220595
-0.00408789
0.00514965
0.00491145
0.00470532
0.00439625
0.00386734
0.00313352
0.00216355
0.000809487
0.00796548
0.00776982
0.00760056
0.00736121
0.00698379
0.00648443
0.00580134
0.00476406
0.0102676
0.0100902
0.0099524
0.00978619
0.00952645
0.00914902
0.00859678
0.0077696
0.0121365
0.0119631
0.0118271
0.0116809
0.0114697
0.011169
0.010742
0.0101191
0.0136066
0.0134305
0.0132862
0.0131475
0.012975
0.0127437
0.0124176
0.0119438
0.0147458
0.0145722
0.0144236
0.0142877
0.0141368
0.0139488
0.0136936
0.0133349
0.0156067
0.0154391
0.0152897
0.0151559
0.0150193
0.0148633
0.014663
0.0143931
0.0162447
0.0160866
0.0159418
0.0158122
0.0156858
0.0155509
0.0153885
0.0151825
0.0167063
0.0165588
0.0164208
0.0162962
0.0161773
0.0160571
0.0159215
0.0157614
0.0170268
0.0168896
0.0167599
0.0166408
0.0165282
0.0164175
0.0162998
0.0161699
0.0172364
0.0171094
0.0169883
0.0168752
0.0167681
0.0166641
0.0165584
0.0164476
0.0173571
0.0172402
0.0171274
0.0170201
0.0169172
0.0168177
0.0167187
0.016619
0.0174034
0.0172959
0.0171898
0.0170867
0.0169862
0.0168885
0.0167922
0.0166968
0.0732059
0.0768883
0.0803007
0.0831329
0.0846203
0.0844994
0.0825992
0.0784253
0.0710653
0.0591858
0.0409392
0.01375
-0.0265716
-0.0832533
-0.134054
0.0520635
0.0534949
0.0533512
0.0520436
0.0494483
0.0451973
0.0388023
0.0295307
0.0163331
-0.00222472
-0.0281059
-0.0638655
-0.113552
-0.181251
-0.236211
0.0302331
0.0294479
0.0259585
0.0210075
0.0148167
0.00684975
-0.00362694
-0.0174776
-0.0358122
-0.0601308
-0.0925278
-0.135625
-0.192461
-0.268557
-0.321988
0.00766347
0.00445954
-0.00183635
-0.00954148
-0.0185724
-0.0296651
-0.0436528
-0.0614143
-0.0840459
-0.113012
-0.150561
-0.199429
-0.261891
-0.338827
-0.389556
-0.0147305
-0.0205832
-0.029026
-0.038711
-0.0499767
-0.0636617
-0.0805153
-0.101379
-0.127333
-0.159704
-0.200797
-0.253345
-0.317964
-0.391868
-0.437832
-0.036239
-0.0445694
-0.0545498
-0.0657571
-0.0788627
-0.0946607
-0.113716
-0.136831
-0.165021
-0.199661
-0.242689
-0.296064
-0.359656
-0.42749
-0.467087
-0.0565781
-0.0665849
-0.0776354
-0.0901974
-0.10493
-0.122372
-0.143044
-0.16762
-0.197031
-0.232504
-0.275551
-0.327389
-0.386921
-0.445629
-0.479032
-0.0755692
-0.0862416
-0.0983078
-0.112129
-0.128175
-0.146847
-0.168551
-0.193853
-0.223536
-0.258571
-0.300022
-0.34826
-0.400656
-0.447619
-0.476247
0.186561
0.201509
0.21812
0.236855
0.257809
0.280903
0.306042
0.333172
0.362214
0.392917
0.424699
0.456382
0.485967
0.509423
0.528732
0.185999
0.200363
0.216392
0.23459
0.255004
0.277465
0.301825
0.328014
0.355954
0.385381
0.415672
0.445595
0.473072
0.494124
0.511075
0.181302
0.194247
0.20904
0.226152
0.245431
0.266522
0.289178
0.313285
0.338723
0.36517
0.391921
0.417642
0.440089
0.455454
0.466958
0.172496
0.183386
0.196464
0.211969
0.229428
0.248308
0.268316
0.289304
0.311068
0.333149
0.354669
0.374114
0.388955
0.395559
0.399169
0.159576
0.168026
0.179185
0.19286
0.208053
0.224013
0.240449
0.257253
0.27418
0.290627
0.305496
0.317027
0.322335
0.317688
0.311577
0.142903
0.148542
0.157586
0.169182
0.181765
0.194406
0.206795
0.2188
0.230091
0.239918
0.246985
0.249298
0.24363
0.226089
0.208115
0.122777
0.126186
0.133355
0.14239
0.151583
0.160215
0.168065
0.174899
0.180171
0.182912
0.18161
0.174036
0.156656
0.125558
0.0950132
0.0991159
0.101258
0.107329
0.11375
0.119188
0.123366
0.126262
0.127555
0.126489
0.121875
0.111994
0.0943802
0.06516
0.0206679
-0.0214875
0.0252255
0.0296336
0.0259723
0.0299012
0.0274648
0.0317725
0.0300132
0.0344365
0.0338006
0.0382982
0.0391087
0.0439369
0.046475
0.0521743
0.0568863
0.0641906
0.0716941
0.0817136
0.0928502
0.1069
0.123051
0.142816
0.165664
0.0253035
0.0296792
0.0260678
0.0299588
0.0275864
0.0318457
0.0301751
0.0345606
0.0340192
0.0384757
0.039422
0.044222
0.0468558
0.0526349
0.0574074
0.0647806
0.0724409
0.0824167
0.0937117
0.107887
0.123817
0.143494
0.16583
0.0253915
0.0296991
0.0261814
0.0299866
0.0277332
0.0318845
0.0303686
0.0346511
0.0342645
0.0386138
0.0397643
0.0444572
0.0472312
0.0529782
0.0577947
0.0650134
0.0727994
0.0827895
0.0937817
0.107754
0.123102
0.14222
0.163058
0.025488
0.0296952
0.0263091
0.0299882
0.0278906
0.0318935
0.0305848
0.0347138
0.0345293
0.0387332
0.040125
0.0447115
0.0476666
0.0534838
0.0583503
0.0657678
0.0733156
0.0833477
0.0938643
0.107512
0.121628
0.139448
0.157421
0.025592
0.0296711
0.0264484
0.0299671
0.0280949
0.0318793
0.0308183
0.0347486
0.0348255
0.0388192
0.0404753
0.044847
0.0480019
0.0536019
0.0585338
0.0656971
0.0731507
0.082809
0.0927836
0.105656
0.118292
0.134346
0.148538
0.0257006
0.0296289
0.0265994
0.0299274
0.0282882
0.0318546
0.0310625
0.0347743
0.0351678
0.0389534
0.0408946
0.0451528
0.0485425
0.0543182
0.0591449
0.066613
0.0736411
0.0833619
0.0924056
0.104452
0.114679
0.127938
0.136882
0.025814
0.0295716
0.0267531
0.0298763
0.0284859
0.0318135
0.0313024
0.0347706
0.0354157
0.0390058
0.0411675
0.045198
0.048747
0.0541069
0.0590535
0.0660692
0.0728961
0.081703
0.0900932
0.10043
0.10874
0.118739
0.122076
0.025931
0.029506
0.0269039
0.0298215
0.0286984
0.0318044
0.0315575
0.0348379
0.0358342
0.0392614
0.0417066
0.0456989
0.0495032
0.0552551
0.0598643
0.0674024
0.0736562
0.0826391
0.0894817
0.0985559
0.102955
0.108234
0.104177
0.0260664
0.0294057
0.027099
0.0297112
0.0289223
0.0316825
0.0318119
0.0347128
0.0360259
0.0391747
0.0418073
0.0456082
0.0494162
0.0544677
0.0590934
0.0656069
0.0713624
0.0780417
0.0838893
0.0886478
0.0907806
0.0887784
0.0797471
0.0262427
0.0292498
0.0273458
0.0295395
0.0291788
0.0314708
0.0320468
0.0343784
0.0360938
0.0387581
0.0415544
0.0447571
0.0485432
0.0527961
0.0570957
0.0621278
0.0669418
0.0712423
0.0750859
0.0763369
0.0759801
0.0708059
0.0632234
0.0264538
0.029032
0.0276277
0.0293104
0.0294677
0.0311742
0.0322892
0.034048
0.0361162
0.0383328
0.0411909
0.0439553
0.0475346
0.0509774
0.0548151
0.0585107
0.0621556
0.0645752
0.0662656
0.0655437
0.0629391
0.0573856
0.0501232
0.0267009
0.0287437
0.027948
0.0290388
0.0297419
0.0309249
0.0324205
0.0337781
0.0360137
0.0378489
0.0406266
0.0430091
0.0462038
0.0489102
0.0521087
0.0546076
0.0569352
0.0579564
0.0578298
0.0558155
0.0519836
0.0462151
0.0393899
0.0269882
0.0283783
0.0282619
0.0288278
0.0299172
0.0307272
0.0324457
0.0335284
0.0357507
0.0373316
0.039822
0.0419244
0.0445416
0.0465961
0.0490308
0.0505102
0.0515897
0.0515352
0.0501544
0.0473665
0.0430989
0.0373762
0.0308465
0.0273117
0.0280047
0.0284841
0.0286847
0.030019
0.0305612
0.0323494
0.0332564
0.0353284
0.036722
0.0388073
0.0406593
0.0426315
0.044037
0.0457333
0.046347
0.0464018
0.0455314
0.0434802
0.0403128
0.0360237
0.0306232
0.0245168
0.0276236
0.0276715
0.0286101
0.0285954
0.0300271
0.0304193
0.0321182
0.0329483
0.0347529
0.0359908
0.0376371
0.0391903
0.0405409
0.0413247
0.0423422
0.0422781
0.0415781
0.0401424
0.0378109
0.0345638
0.0304498
0.0255241
0.0199633
0.0279008
0.0273962
0.0286463
0.0285427
0.0299299
0.0302828
0.031763
0.0325682
0.034055
0.0351158
0.0363369
0.0375315
0.0383336
0.0385915
0.0390016
0.0384383
0.0372658
0.0354853
0.0330808
0.0299683
0.0261759
0.021787
0.0168678
0.028116
0.0271993
0.0285805
0.0285111
0.029733
0.0301262
0.0313122
0.0320878
0.0332556
0.0340929
0.0349322
0.0357459
0.0360845
0.0359292
0.0358386
0.0349443
0.0335166
0.0315867
0.0292423
0.0263966
0.0230315
0.0192165
0.0149767
0.0282505
0.0270905
0.0284128
0.028479
0.0294515
0.0299074
0.0308016
0.0314919
0.0323665
0.0329525
0.033458
0.0339072
0.0338716
0.0334156
0.0329599
0.0318705
0.0303444
0.0284261
0.0262396
0.0237215
0.0208274
0.0175931
0.014019
0.028291
0.0270659
0.0281615
0.0284112
0.029126
0.0296003
0.0302458
0.0307893
0.0313996
0.0317335
0.0319527
0.0320888
0.031773
0.0311181
0.0304223
0.0292472
0.0277374
0.0259413
0.023976
0.0218021
0.0193729
0.0166952
0.0137451
0.0282322
0.0271076
0.0278592
0.0282492
0.0287782
0.029204
0.0296479
0.0300089
0.0303787
0.0304844
0.0304672
0.0303548
0.029849
0.0290757
0.0282494
0.0270737
0.0256551
0.0240419
0.0223286
0.0204906
0.018487
0.01631
0.0139207
0.0280799
0.0271791
0.0275638
0.027961
0.0283935
0.0287351
0.0290091
0.0291871
0.0293385
0.0292558
0.0290526
0.0287555
0.0281322
0.027309
0.0264402
0.025323
0.0240374
0.0226305
0.0211724
0.019643
0.0180088
0.0162561
0.0143398
0.027852
0.0272179
0.0273173
0.0275908
0.0279485
0.0281908
0.0283283
0.0283536
0.0283192
0.0280884
0.0277477
0.0273221
0.0266423
0.0258222
0.0249706
0.0239484
0.0228154
0.0216138
0.020393
0.0191344
0.0178104
0.0164061
0.0148784
0.0275725
0.0271559
0.0271033
0.0272355
0.0274606
0.0275878
0.0276132
0.0275226
0.0273489
0.02701
0.0265766
0.0260738
0.0253835
0.0246009
0.023803
0.0228941
0.0219162
0.0209046
0.0198938
0.0188672
0.017802
0.0166839
0.0154743
0.0272676
0.0270008
0.0268898
0.0268879
0.0269563
0.0269648
0.0268886
0.0267087
0.0264406
0.0260365
0.0255543
0.025019
0.0243505
0.0236256
0.0228984
0.0221025
0.021267
0.0204206
0.0195876
0.0187536
0.0178998
0.0170131
0.0160604
0.0269534
0.0267719
0.0266358
0.0265351
0.026465
0.0263596
0.0261897
0.0259382
0.02561
0.0251762
0.024683
0.024152
0.0235289
0.0228719
0.0222187
0.0215239
0.0208089
0.0200978
0.0194086
0.0187302
0.0180469
0.017346
0.0165999
0.0266381
0.0264971
0.0263406
0.0261731
0.0260006
0.0257977
0.0255461
0.0252373
0.0248717
0.0244316
0.0239511
0.0234476
0.0228835
0.0222982
0.0217169
0.0211107
0.0204959
0.0198922
0.0193151
0.0187581
0.0182087
0.0176543
0.017073
0.0263273
0.0262009
0.0260251
0.025811
0.0255697
0.0252959
0.0249818
0.0246297
0.0242422
0.0238091
0.0233518
0.0228824
0.0223758
0.0218561
0.0213399
0.0208112
0.0202823
0.0197669
0.0192781
0.018814
0.0183663
0.0179246
0.0174716
0.0260311
0.025907
0.0257146
0.0254679
0.0251814
0.0248617
0.0245076
0.0241274
0.0237293
0.0233086
0.0228759
0.0224378
0.0219809
0.0215192
0.0210626
0.0206024
0.0201465
0.0197042
0.0192854
0.0188909
0.0185164
0.0181552
0.0177957
0.0257692
0.0256439
0.0254384
0.0251695
0.0248542
0.0245067
0.024131
0.0237347
0.0233292
0.0229177
0.0225037
0.0220898
0.0216724
0.0212598
0.020857
0.0204585
0.0200679
0.0196901
0.0193299
0.0189879
0.0186641
0.0183575
0.0180635
0.0255612
0.0254325
0.0252196
0.0249398
0.0246081
0.0242457
0.0238613
0.0234604
0.0230544
0.0226525
0.0222552
0.0218619
0.0214733
0.0210941
0.0207264
0.0203669
0.0200166
0.019679
0.0193581
0.0190558
0.0187724
0.0185074
0.0182591
0.0254502
0.0253209
0.0251003
0.0248093
0.0244651
0.0240912
0.0236999
0.023295
0.0228874
0.0224893
0.0221034
0.0217275
0.0213602
0.0210036
0.0206592
0.0203255
0.0200026
0.0196931
0.019401
0.0191288
0.0188767
0.0186443
0.0184315
0.0670529
0.0490711
0.0268485
0.00591639
-0.0132529
-0.0314068
-0.0488615
-0.0643917
0.0546039
0.0378656
0.0160044
-0.00298867
-0.0180857
-0.0308725
-0.042806
-0.0532193
0.0436247
0.0308137
0.0122891
-0.00422191
-0.0156172
-0.0243744
-0.0329319
-0.0411529
0.0339981
0.0240436
0.00862963
-0.00555284
-0.0146778
-0.0208163
-0.026574
-0.0321004
0.026072
0.0187024
0.00686454
-0.00433515
-0.0113522
-0.0156866
-0.0196725
-0.0236703
0.0197733
0.0140412
0.0056133
-0.00237107
-0.00772749
-0.0111281
-0.014091
-0.0169108
0.0154037
0.0107915
0.00518767
-8.8971e-05
-0.00400225
-0.00671011
-0.00898316
-0.0110098
0.0127222
0.00909167
0.00548993
0.00216004
-0.000567309
-0.00266537
-0.00442464
-0.0058868
0.0113652
0.00857629
0.00634915
0.00434807
0.00253268
0.000973102
-0.000364616
-0.00143133
0.010964
0.00886025
0.00755349
0.00642805
0.00526689
0.00413908
0.00312461
0.00232124
0.011224
0.00966048
0.00895096
0.00838342
0.00767609
0.00688984
0.00614686
0.0055604
0.0118938
0.0107552
0.0104236
0.0102005
0.00979654
0.00926324
0.00872297
0.00828138
0.0127352
0.0119155
0.0118107
0.0118081
0.0116271
0.0112862
0.0108896
0.0105367
0.0136214
0.0130362
0.0130593
0.0131829
0.0131511
0.0129494
0.0126607
0.0123748
0.0144954
0.0140777
0.0141615
0.0143341
0.0143782
0.0142663
0.0140572
0.0138231
0.0153048
0.0150067
0.0151075
0.0152806
0.0153512
0.01529
0.0151353
0.0149418
0.016022
0.0158081
0.0159001
0.0160469
0.0161133
0.0160728
0.01595
0.0157848
0.0166339
0.0164773
0.0165462
0.0166533
0.0166985
0.0166596
0.0165527
0.0164068
0.0171383
0.0170185
0.017058
0.0171217
0.017138
0.0170901
0.0169889
0.016855
0.0175374
0.0174377
0.017446
0.0174681
0.0174546
0.0173931
0.0172914
0.0171648
0.0178537
0.0177571
0.0177287
0.0177088
0.0176651
0.0175889
0.0174852
0.0173645
0.0180783
0.0179764
0.0179131
0.017855
0.0177839
0.0176947
0.0175898
0.0174753
0.0182646
0.0181406
0.0180287
0.0179246
0.0178234
0.0177217
0.0176176
0.0175112
-0.612588
-0.62584
-0.644951
-0.669567
-0.700132
-0.734407
-0.765685
-0.78801
-0.607539
-0.620354
-0.638071
-0.659313
-0.683837
-0.711267
-0.737334
-0.754788
-0.600365
-0.613082
-0.628741
-0.646569
-0.665491
-0.682317
-0.693185
-0.693441
-0.593915
-0.604623
-0.615958
-0.626275
-0.634416
-0.638041
-0.634706
-0.621986
-0.589782
-0.594478
-0.597132
-0.596866
-0.593698
-0.586795
-0.57441
-0.554349
-0.586609
-0.580858
-0.572435
-0.562067
-0.550378
-0.536642
-0.518887
-0.494769
-0.580701
-0.562405
-0.543499
-0.525464
-0.508185
-0.490296
-0.469429
-0.443246
-0.568282
-0.538352
-0.511753
-0.488818
-0.468239
-0.448021
-0.425505
-0.398453
-0.546854
-0.508915
-0.478165
-0.452728
-0.430625
-0.409335
-0.386249
-0.359186
-0.516327
-0.475194
-0.443336
-0.417409
-0.395072
-0.373741
-0.350866
-0.324482
-0.478725
-0.438405
-0.407865
-0.382863
-0.361396
-0.340755
-0.31873
-0.293532
-0.436278
-0.399945
-0.372099
-0.349302
-0.32938
-0.310055
-0.289377
-0.265764
-0.391887
-0.360402
-0.336621
-0.316779
-0.29893
-0.281431
-0.262468
-0.240794
-0.343911
-0.320475
-0.301697
-0.285511
-0.270213
-0.254643
-0.2377
-0.218092
-0.295424
-0.282833
-0.267442