/*--------------------------------*- C++ -*----------------------------------*\
| =========                 |                                                 |
| \\      /  F ield         | OpenFOAM: The Open Source CFD Toolbox           |
|  \\    /   O peration     | Version:  2512                                  |
|   \\  /    A nd           | Website:  www.openfoam.com                      |
|    \\/     M anipulation  |                                                 |
\*---------------------------------------------------------------------------*/
FoamFile
{
    version     2.0;
    format      ascii;
    arch        "LSB;label=32;scalar=64";
    class       volVectorField;
    location    "193";
    object      U;
}
// * * * * * * * * * * * * * * * * * * * * * * * * * * * * * * * * * * * * * //

dimensions      [0 1 -1 0 0 0 0];

internalField   nonuniform List<vector> 
13248
(
(-0.0147834 0.0129545 7.88777e-20)
(-0.0215001 0.0256502 0)
(-0.00178928 0.0289985 -1.36216e-19)
(0.044861 0.0232488 1.26122e-19)
(0.119822 0.00992861 1.1645e-19)
(0.224555 -0.00899561 0)
(0.358653 -0.0314464 0)
(0.517305 -0.0554432 2.76336e-19)
(0.690063 -0.0793277 -7.55984e-22)
(0.862276 -0.101945 -2.36232e-19)
(1.01852 -0.12269 2.13917e-19)
(1.14624 -0.14138 -1.32849e-19)
(1.23833 -0.157988 0)
(1.29388 -0.172443 -2.03942e-19)
(1.31739 -0.184562 3.68511e-19)
(1.31666 -0.194115 -8.83048e-20)
(1.30024 -0.200923 -1.33375e-19)
(1.27546 -0.204885 1.24359e-19)
(1.2473 -0.205903 0)
(1.21848 -0.204611 0)
(1.1908 -0.199275 0)
(1.16214 -0.195795 0)
(1.13886 -0.181909 2.43126e-20)
(1.10544 -0.184416 7.16229e-20)
(-0.0149657 0.0110122 -2.37092e-19)
(-0.0136929 0.0159198 1.49145e-19)
(0.0204659 0.0114282 -7.69015e-22)
(0.0889534 -0.000182569 -1.90765e-19)
(0.193926 -0.0165294 -1.16287e-19)
(0.335158 -0.0351414 -1.07989e-19)
(0.506486 -0.0537198 -1.9803e-19)
(0.69424 -0.0706066 1.83209e-19)
(0.879765 -0.0851298 0)
(1.04463 -0.0975415 1.80439e-21)
(1.17541 -0.108592 1.63603e-21)
(1.26615 -0.118987 1.27647e-19)
(1.31834 -0.129024 0)
(1.33883 -0.138544 0)
(1.33695 -0.147092 1.25877e-19)
(1.32157 -0.154161 -2.34713e-19)
(1.29943 -0.159328 1.26216e-19)
(1.27456 -0.16237 -1.17683e-19)
(1.24898 -0.163225 -4.7381e-20)
(1.22365 -0.161885 -7.83714e-20)
(1.19864 -0.158495 -2.71664e-20)
(1.17466 -0.153697 -4.87294e-20)
(1.15231 -0.144322 7.87806e-20)
(1.12676 -0.142153 2.01217e-20)
(-0.0141662 0.00928467 0)
(-0.000445922 0.00769627 0)
(0.055651 -0.00268394 6.86103e-20)
(0.155309 -0.0179854 6.27386e-20)
(0.298878 -0.0347077 -9.05786e-22)
(0.479884 -0.0498151 -1.09421e-19)
(0.681772 -0.061444 0)
(0.881189 -0.0693858 -9.11833e-20)
(1.05577 -0.0748019 8.21235e-20)
(1.19075 -0.0793749 -1.86041e-21)
(1.28138 -0.0844468 -1.34784e-19)
(1.33163 -0.0905602 -1.17502e-19)
(1.3507 -0.0974963 5.43906e-21)
(1.34914 -0.104602 -8.59722e-20)
(1.3358 -0.111163 2.12454e-19)
(1.31666 -0.116626 0)
(1.29499 -0.120657 -1.20436e-19)
(1.27231 -0.123152 5.93598e-20)
(1.24942 -0.123927 4.73312e-20)
(1.22659 -0.123373 0)
(1.20465 -0.120604 3.42572e-20)
(1.18316 -0.117687 -1.09163e-19)
(1.16331 -0.110977 1.0194e-19)
(1.14245 -0.110093 5.54324e-20)
(-0.0111265 0.0069158 -8.14498e-20)
(0.020901 -0.000573526 -7.75057e-20)
(0.106872 -0.0147118 7.00517e-20)
(0.245857 -0.0306656 0)
(0.432105 -0.0440388 0)
(0.647449 -0.052108 -7.79768e-22)
(0.863348 -0.0548663 0)
(1.05191 -0.0544229 -2.67661e-19)
(1.19567 -0.0534684 2.43153e-19)
(1.2904 -0.0539745 -2.94757e-19)
(1.34219 -0.0566744 6.62214e-20)
(1.36225 -0.0612608 0)
(1.36208 -0.066913 9.94265e-20)
(1.35055 -0.0727807 -1.7986e-19)
(1.33327 -0.0782295 4.26866e-20)
(1.31327 -0.0828658 9.93591e-20)
(1.29208 -0.0864838 -8.49153e-21)
(1.27057 -0.0889112 -1.0579e-19)
(1.24925 -0.0901513 0)
(1.22861 -0.0900638 0)
(1.20879 -0.0885959 -3.26293e-20)
(1.18985 -0.0867097 2.79438e-20)
(1.1726 -0.0813738 9.14768e-20)
(1.1541 -0.0822168 -8.54175e-20)
(-0.00481364 0.0036318 -8.40371e-20)
(0.0526089 -0.00935652 -7.83038e-20)
(0.176239 -0.024754 2.1659e-19)
(0.35991 -0.0374645 -1.30782e-19)
(0.585887 -0.0433068 1.21139e-19)
(0.820933 -0.0417954 2.17538e-19)
(1.02935 -0.0359559 -1.5004e-19)
(1.18831 -0.0297068 -1.74671e-19)
(1.29243 -0.0257897 6.3128e-21)
(1.34921 -0.0251604 2.17658e-19)
(1.37177 -0.0274167 0)
(1.37291 -0.0315621 5.49079e-20)
(1.36221 -0.0366029 0)
(1.34564 -0.0418044 -8.3859e-20)
(1.32649 -0.0466925 1.16701e-19)
(1.30644 -0.0509759 1.26675e-21)
(1.28635 -0.0544496 -2.82751e-20)
(1.26663 -0.0570168 5.09238e-20)
(1.2475 -0.0585805 4.26261e-20)
(1.22901 -0.0591505 -3.68682e-20)
(1.21123 -0.0587598 3.26134e-20)
(1.19431 -0.0576586 -2.793e-20)
(1.17809 -0.0548845 0)
(1.16175 -0.0561303 -2.00733e-20)
(0.00565426 -0.000357585 8.40159e-20)
(0.0964755 -0.0179006 8.0782e-20)
(0.264559 -0.0312583 -7.24507e-20)
(0.493495 -0.0362395 1.3269e-19)
(0.748005 -0.0312792 -1.22903e-19)
(0.982739 -0.0200375 1.08525e-19)
(1.16529 -0.00808599 -5.10942e-20)
(1.28603 0.000653883 1.31442e-19)
(1.35265 0.00482617 -8.03529e-20)
(1.38024 0.00491988 1.35554e-19)
(1.38364 0.00218268 -3.05984e-19)
(1.37394 -0.00214795 1.09408e-19)
(1.35802 -0.00715226 -9.22417e-20)
(1.33962 -0.0122333 8.5871e-20)
(1.32051 -0.0170248 7.06677e-20)
(1.30142 -0.021299 5.95449e-20)
(1.28261 -0.0249304 -1.63877e-19)
(1.26419 -0.0278347 1.00135e-19)
(1.24624 -0.0299797 -4.26183e-20)
(1.22888 -0.0313636 1.06865e-19)
(1.21227 -0.0319448 -3.43955e-20)
(1.1964 -0.0319686 -7.87619e-20)
(1.18148 -0.0306081 7.16206e-20)
(1.16684 -0.0322563 2.00668e-20)
(0.021026 -0.00442761 0)
(0.15361 -0.0244191 4.90756e-22)
(0.3705 -0.0315311 1.48755e-19)
(0.638693 -0.0246887 -1.37317e-19)
(0.90438 -0.00798091 -1.21403e-19)
(1.12026 0.0107278 2.2109e-19)
(1.26709 0.0254683 -1.00694e-19)
(1.35029 0.0340268 1.29201e-19)
(1.38666 0.0368954 -4.04549e-21)
(1.39391 0.0356927 -6.98088e-20)
(1.38552 0.0320688 1.47118e-19)
(1.36993 0.0272528 -2.12711e-19)
(1.35162 0.0220182 0)
(1.33259 0.016808 -3.95334e-20)
(1.31362 0.0118703 -1.02751e-19)
(1.29499 0.00734691 3.2253e-20)
(1.27684 0.00333505 1.73833e-21)
(1.25927 -0.000100035 -6.47799e-20)
(1.24238 -0.00291668 5.79174e-21)
(1.22627 -0.00507409 7.30918e-20)
(1.21092 -0.00663464 -3.09407e-20)
(1.19639 -0.00750668 -1.10808e-20)
(1.18251 -0.00783485 3.56229e-20)
(1.16903 -0.00974947 0)
(0.0418231 -0.00781921 0)
(0.223936 -0.0267174 4.07935e-20)
(0.489847 -0.0228189 -1.91305e-19)
(0.784858 -0.00175647 6.83443e-20)
(1.0435 0.0250609 -6.33057e-20)
(1.22857 0.0478266 -5.54657e-20)
(1.33804 0.0624257 -9.55586e-20)
(1.3892 0.0690462 4.75696e-20)
(1.40326 0.0697748 4.04871e-20)
(1.39727 0.0669031 0)
(1.38212 0.0621633 8.58315e-20)
(1.36359 0.0566206 -1.24537e-19)
(1.34426 0.0508522 9.18154e-20)
(1.32513 0.0451617 3.955e-20)
(1.30652 0.0397234 -3.12446e-20)
(1.28855 0.0346555 -2.51811e-20)
(1.27125 0.0300424 -2.28399e-20)
(1.25464 0.0259395 6.95624e-20)
(1.23874 0.0223838 0)
(1.22353 0.0193651 3.28579e-20)
(1.20901 0.0169228 2.63071e-20)
(1.19513 0.0149889 -6.61763e-20)
(1.18187 0.0133852 -4.29705e-20)
(1.16924 0.0114601 3.97906e-20)
(0.0683185 -0.00965454 -4.60758e-20)
(0.30588 -0.0224905 -1.09446e-21)
(0.615768 -0.00322187 3.8689e-20)
(0.921714 0.0320098 1.0476e-19)
(1.15911 0.0656868 2.87647e-20)
(1.30864 0.0891676 -5.54133e-20)
(1.38407 0.101461 5.00875e-20)
(1.41009 0.105098 -4.28341e-20)
(1.40868 0.103299 7.41675e-20)
(1.39452 0.0986118 3.08584e-20)
(1.37561 0.0926101 -8.621e-20)
(1.35558 0.0861259 2.50405e-20)
(1.33583 0.0795709 4.17122e-20)
(1.31676 0.073161 -2.04057e-20)
(1.29848 0.0670268 0)
(1.28097 0.0612548 2.91112e-20)
(1.26421 0.0559054 4.81818e-20)
(1.2482 0.05102 7.63102e-21)
(1.23295 0.0466187 -3.9114e-20)
(1.21847 0.0427325 1.60601e-20)
(1.20471 0.0393525 0)
(1.19162 0.036433 -1.21044e-20)
(1.17917 0.0337766 -1.08876e-20)
(1.16723 0.0316297 0)
(0.100274 -0.0089722 0)
(0.396178 -0.00974366 2.22417e-20)
(0.740212 0.0278046 4.04276e-20)
(1.04191 0.075037 -1.05485e-19)
(1.24966 0.111878 3.32573e-20)
(1.36407 0.133322 0)
(1.41095 0.141864 4.66106e-20)
(1.41836 0.141971 -6.39318e-20)
(1.40671 0.137484 -3.67196e-20)
(1.38768 0.130864 1.64452e-20)
(1.36675 0.123411 -2.52797e-20)
(1.34604 0.115739 6.11301e-20)
(1.32619 0.108134 3.00641e-20)
(1.30732 0.100745 -2.08674e-20)
(1.2894 0.0936666 -2.1222e-21)
(1.27239 0.0869688 -5.49912e-20)
(1.25625 0.0807049 2.47587e-20)
(1.24096 0.07491 -4.73984e-22)
(1.2265 0.0696129 0)
(1.2128 0.0648244 -1.60757e-20)
(1.19979 0.0605409 0)
(1.18737 0.056662 3.50195e-20)
(1.17548 0.0531781 -4.12226e-20)
(1.16411 0.0507222 1.85233e-20)
(0.136863 -0.00482243 -1.22598e-20)
(0.490183 0.0128483 -5.55704e-20)
(0.855782 0.0695715 6.17459e-20)
(1.14144 0.125429 3.5152e-20)
(1.3162 0.162029 -1.6825e-20)
(1.39884 0.179394 2.64983e-20)
(1.42308 0.18332 -1.28759e-20)
(1.41731 0.179647 2.06929e-20)
(1.39913 0.172381 0)
(1.3773 0.163694 4.51403e-20)
(1.35534 0.154589 -1.86366e-21)
(1.33436 0.145497 -3.55806e-20)
(1.31459 0.136612 1.50667e-20)
(1.29597 0.128039 -1.67843e-20)
(1.27844 0.119851 -6.29721e-21)
(1.26191 0.112102 7.2154e-21)
(1.24633 0.104826 -5.53945e-21)
(1.23165 0.0980458 -2.93368e-20)
(1.21781 0.0917775 1.78814e-20)
(1.20475 0.0860367 3.63413e-21)
(1.19239 0.0807906 3.15652e-21)
(1.18066 0.0759721 2.74068e-21)
(1.16949 0.0717403 0)
(1.15878 0.0686517 0)
(0.176782 0.00362435 1.22747e-20)
(0.582678 0.0457567 -1.14132e-20)
(0.956999 0.120689 -2.04973e-20)
(1.21886 0.181422 0)
(1.36079 0.214961 -8.1921e-21)
(1.41634 0.226829 -7.01946e-21)
(1.42337 0.225639 -1.17238e-20)
(1.40859 0.218047 0)
(1.38644 0.207886 0)
(1.36313 0.196943 0)
(1.34076 0.185951 0)
(1.31982 0.1752 0)
(1.3003 0.164812 -9.47942e-21)
(1.28209 0.154858 4.28131e-21)
(1.26506 0.145386 7.35189e-21)
(1.24911 0.136429 3.38704e-21)
(1.23418 0.128004 8.34283e-21)
(1.22021 0.120127 0)
(1.20713 0.112815 -1.96227e-21)
(1.19486 0.10607 -1.80907e-21)
(1.1833 0.0998469 -3.16145e-21)
(1.17237 0.0941118 -2.74496e-21)
(1.16198 0.0891346 0)
(1.1521 0.0852423 1.9325e-21)
(-0.0068618 0.0927514 7.35505e-21)
(-0.0241835 0.152341 -7.01702e-21)
(-0.0513046 0.150483 -1.30618e-20)
(-0.0818179 0.124242 0)
(-0.113467 0.0907442 -1.69996e-20)
(-0.145422 0.0543545 5.14543e-21)
(-0.17691 0.0141103 -1.02034e-20)
(-0.207089 -0.0314786 0)
(-0.235831 -0.0833425 0)
(-0.262974 -0.14129 0)
(-0.28776 -0.205199 0)
(-0.309651 -0.274305 0)
(-0.328101 -0.347361 -4.16802e-22)
(-0.342547 -0.422621 -6.43012e-21)
(-0.352408 -0.49785 1.26746e-20)
(-0.357083 -0.570358 1.70869e-20)
(-0.355923 -0.637074 5.54284e-21)
(-0.348222 -0.69466 0)
(-0.333244 -0.739677 4.08352e-21)
(-0.310319 -0.768846 -1.15229e-20)
(-0.278869 -0.779371 -6.90195e-21)
(-0.23807 -0.769195 -6.19357e-21)
(-0.187016 -0.736998 0)
(-0.127275 -0.682928 0)
(-0.012311 0.103225 -2.2572e-20)
(-0.0312034 0.177216 3.55671e-20)
(-0.054935 0.183919 -1.38392e-20)
(-0.0803561 0.16234 -2.54085e-20)
(-0.106151 0.131154 3.49792e-20)
(-0.131695 0.095798 -2.26495e-20)
(-0.15634 0.0560078 3.12019e-20)
(-0.179775 0.010371 2.10077e-20)
(-0.201243 -0.0421185 0)
(-0.220555 -0.101535 -1.787e-20)
(-0.237873 -0.167536 -6.81433e-22)
(-0.252667 -0.239414 1.53765e-20)
(-0.264735 -0.315969 2.35245e-20)
(-0.273937 -0.395503 2.88539e-20)
(-0.280203 -0.475855 -1.2921e-20)
(-0.283544 -0.554466 -3.64164e-20)
(-0.284023 -0.628482 1.13473e-20)
(-0.281667 -0.694871 -4.12811e-20)
(-0.276379 -0.750538 0)
(-0.267817 -0.792408 7.70283e-21)
(-0.255151 -0.817461 6.8927e-21)
(-0.236318 -0.822954 6.18551e-21)
(-0.20972 -0.806819 0)
(-0.177463 -0.768903 0)
(-0.0178706 0.108657 0)
(-0.0380088 0.194923 7.72829e-20)
(-0.0565488 0.210697 -2.85294e-20)
(-0.0744952 0.194524 2.65646e-20)
(-0.0918107 0.16615 -7.61059e-20)
(-0.108127 0.132262 0)
(-0.122896 0.0933789 -4.62248e-20)
(-0.135711 0.0484131 2.19258e-20)
(-0.146356 -0.00335404 -4.28387e-20)
(-0.154421 -0.0625082 2.18707e-20)
(-0.159813 -0.12856 1.15411e-19)
(-0.162677 -0.200826 -5.38733e-20)
(-0.162965 -0.27812 -8.40623e-20)
(-0.160754 -0.358731 -3.26533e-20)
(-0.15628 -0.440448 6.93381e-22)
(-0.150041 -0.520677 1.06968e-19)
(-0.142835 -0.596614 -4.92243e-20)
(-0.135673 -0.665467 -1.18333e-21)
(-0.129641 -0.724712 0)
(-0.1255 -0.772179 -3.27978e-20)
(-0.123445 -0.8058 0)
(-0.121363 -0.82356 -2.21642e-20)
(-0.118225 -0.8241 8.05342e-20)
(-0.109892 -0.806885 -2.77684e-21)
(-0.0227459 0.107955 0)
(-0.0439281 0.202835 1.4908e-21)
(-0.056362 0.227751 3.07249e-20)
(-0.0654152 0.217754 -2.94431e-20)
(-0.0726333 0.192791 2.48582e-20)
(-0.0780082 0.160775 1.52664e-19)
(-0.081092 0.123219 -4.74908e-20)
(-0.0815148 0.0794778 -4.68964e-20)
(-0.0791079 0.0288491 8.76635e-20)
(-0.0737423 -0.0289144 -1.26162e-19)
(-0.0652288 -0.0937288 4.0309e-20)
(-0.0537672 -0.164858 3.88586e-20)
(-0.0394321 -0.241225 0)
(-0.0223021 -0.321052 3.26372e-20)
(-0.00265878 -0.401959 0)
(0.0188133 -0.48102 5.74157e-20)
(0.0409427 -0.554908 -9.89036e-20)
(0.0620939 -0.620287 2.77801e-20)
(0.0801204 -0.674539 8.05569e-20)
(0.0930349 -0.716199 3.27577e-20)
(0.0983544 -0.745197 0)
(0.097437 -0.761633 -6.49189e-20)
(0.0855196 -0.767998 2.19355e-20)
(0.0842293 -0.760068 0)
(-0.0262166 0.101152 0)
(-0.04823 0.199794 -1.005e-19)
(-0.0546314 0.233088 -3.18141e-20)
(-0.0545877 0.229869 -5.92149e-20)
(-0.0511896 0.209061 5.48661e-20)
(-0.0450282 0.179498 -5.14935e-20)
(-0.035878 0.143723 1.0141e-19)
(-0.0234539 0.101706 4.96451e-20)
(-0.00755894 0.0529442 -1.34834e-19)
(0.0117389 -0.00287841 8.84559e-20)
(0.0345439 -0.0656561 -1.24382e-19)
(0.0607052 -0.134957 2.78186e-19)
(0.0900538 -0.209851 -1.48055e-19)
(0.122639 -0.288701 6.98794e-20)
(0.158097 -0.369115 1.9078e-19)
(0.195553 -0.447853 -6.14385e-20)
(0.233555 -0.520874 -5.73516e-20)
(0.270142 -0.583801 -4.85995e-20)
(0.30274 -0.632938 0)
(0.329297 -0.665553 -6.05028e-20)
(0.345798 -0.681973 -4.10074e-20)
(0.35499 -0.681926 7.07689e-20)
(0.342342 -0.674795 6.01434e-20)
(0.34718 -0.646763 -5.46727e-20)
(-0.0277578 0.0893702 0)
(-0.0503273 0.186263 -1.39704e-19)
(-0.051591 0.226067 -1.71565e-21)
(-0.0432427 0.229698 1.20027e-19)
(-0.0297275 0.213685 0)
(-0.0123912 0.187166 0)
(0.00865641 0.153617 0)
(0.0335866 0.113754 -4.99395e-20)
(0.0624967 0.0673319 -2.54966e-21)
(0.0954495 0.0141243 8.76441e-20)
(0.132478 -0.0457866 -1.28196e-19)
(0.173603 -0.112256 -7.78392e-22)
(0.218839 -0.184484 0)
(0.26812 -0.261024 -6.98376e-20)
(0.320812 -0.339488 6.28053e-20)
(0.375304 -0.416461 -1.76083e-19)
(0.42908 -0.487638 2.02345e-19)
(0.479024 -0.548379 3.28719e-20)
(0.521906 -0.594895 -1.65306e-20)
(0.556183 -0.623742 -1.3313e-19)
(0.577874 -0.635297 -4.88783e-20)
(0.593811 -0.626116 1.29232e-19)
(0.586931 -0.60787 -7.95636e-20)
(0.600997 -0.558794 0)
(-0.0272682 0.0744684 7.56458e-20)
(-0.0498609 0.1642 7.01546e-20)
(-0.0473982 0.207582 -6.61328e-20)
(-0.032343 0.217163 -1.23539e-19)
(-0.0100674 0.206078 1.1446e-19)
(0.0173507 0.182963 -1.09957e-19)
(0.0493181 0.151923 1.53522e-19)
(0.08581 0.114322 -5.0357e-20)
(0.127022 0.0702674 9.21989e-20)
(0.173182 0.019879 0)
(0.224566 -0.0369988 8.56985e-20)
(0.281505 -0.100282 -1.57396e-19)
(0.344253 -0.169284 1.49499e-19)
(0.412451 -0.242436 -1.39155e-19)
(0.484523 -0.317037 0)
(0.557319 -0.389272 1.13837e-19)
(0.626514 -0.454615 1.9226e-19)
(0.687437 -0.508534 -1.80794e-19)
(0.73598 -0.547931 -7.10062e-20)
(0.770696 -0.570173 -5.28087e-20)
(0.788296 -0.577288 1.52376e-19)
(0.798315 -0.566062 2.90144e-20)
(0.784722 -0.547267 -3.38389e-20)
(0.79371 -0.504807 2.01097e-20)
(-0.0250822 0.0586051 -7.56644e-20)
(-0.0469289 0.13677 2.15978e-19)
(-0.0422163 0.180006 -6.69016e-20)
(-0.0224485 0.193536 1.24461e-19)
(0.00672493 0.186693 -1.15312e-19)
(0.04268 0.166898 -1.20603e-21)
(0.0843822 0.138338 5.04999e-20)
(0.131586 0.10276 1.96381e-19)
(0.184757 0.0610309 3.95904e-21)
(0.244643 0.0132082 -8.68255e-20)
(0.311872 -0.0409627 0)
(0.387124 -0.101246 -7.80005e-20)
(0.470291 -0.166717 1.46151e-19)
(0.559687 -0.235379 1.33903e-19)
(0.651538 -0.304033 -6.44037e-20)
(0.740217 -0.368592 -2.41135e-21)
(0.819429 -0.424683 -4.93065e-20)
(0.88356 -0.468417 8.01678e-20)
(0.92914 -0.49762 7.10051e-20)
(0.955433 -0.510569 -5.81114e-20)
(0.962634 -0.510188 4.4052e-20)
(0.958212 -0.493755 -3.46241e-20)
(0.93491 -0.474251 0)
(0.923745 -0.432819 -2.01109e-20)
(-0.021899 0.0437602 7.69147e-20)
(-0.042169 0.107636 -7.222e-20)
(-0.036332 0.146858 6.71065e-20)
(-0.0136649 0.161448 0)
(0.020606 0.157237 0)
(0.0636787 0.139994 1.08768e-19)
(0.11433 0.11349 -1.01449e-19)
(0.172721 0.0799539 9.75551e-20)
(0.239663 0.0403174 -4.54945e-19)
(0.316252 -0.00548092 -1.40015e-21)
(0.403619 -0.0571658 8.02022e-20)
(0.501729 -0.114055 0)
(0.608414 -0.174618 -1.40993e-19)
(0.718869 -0.23624 2.59767e-19)
(0.826001 -0.295432 -1.79987e-19)
(0.921751 -0.348444 -2.56427e-19)
(0.999031 -0.391803 1.41828e-20)
(1.05321 -0.423083 1.57829e-19)
(1.08316 -0.441455 0)
(1.0909 -0.446459 0)
(1.08024 -0.441784 -4.40704e-20)
(1.05886 -0.424014 3.46396e-20)
(1.02507 -0.406465 -9.58322e-20)
(0.99984 -0.36917 8.94306e-20)
(-0.0186204 0.0313827 0)
(-0.0366312 0.0801814 0)
(-0.0300874 0.112129 -2.01684e-19)
(-0.00543952 0.12458 6.21313e-20)
(0.0331405 0.120727 -5.38549e-22)
(0.0833101 0.104699 1.06893e-19)
(0.144371 0.0797669 0)
(0.21702 0.0479028 -9.44252e-20)
(0.30268 0.00986345 9.03974e-20)
(0.40248 -0.0336678 -1.675e-19)
(0.516038 -0.0818473 -7.48249e-22)
(0.640166 -0.133291 1.47181e-19)
(0.768461 -0.185828 -1.84484e-21)
(0.892054 -0.236668 1.18697e-19)
(1.00136 -0.282802 -1.7346e-19)
(1.08817 -0.321603 0)
(1.14759 -0.350977 1.63345e-19)
(1.1787 -0.370177 -2.27487e-19)
(1.18454 -0.379091 5.88462e-20)
(1.1706 -0.37873 0)
(1.14296 -0.371568 3.98815e-20)
(1.10965 -0.355678 1.21393e-19)
(1.0697 -0.342247 -1.13365e-19)
(1.03993 -0.31098 -9.34126e-20)
(-0.0161119 0.0222244 2.32442e-19)
(-0.031353 0.0568513 -2.93172e-19)
(-0.023429 0.0794556 4.5118e-22)
(0.00401785 0.0870155 6.25402e-20)
(0.0484223 0.0812151 -1.15497e-19)
(0.108694 0.0649694 -1.07739e-19)
(0.185206 0.0407518 2.01363e-19)
(0.279257 0.0101768 2.9164e-21)
(0.391686 -0.0254941 -1.75139e-19)
(0.521085 -0.0650184 3.30104e-19)
(0.662485 -0.106926 2.30479e-21)
(0.807279 -0.149379 -1.42737e-19)
(0.944573 -0.190278 0)
(1.06346 -0.227544 0)
(1.15543 -0.25938 -5.4189e-20)
(1.21606 -0.284548 -8.89132e-20)
(1.24575 -0.302261 -1.52274e-19)
(1.24872 -0.312848 1.41975e-19)
(1.23223 -0.316299 -5.89114e-20)
(1.20297 -0.314463 8.9246e-20)
(1.16839 -0.30741 -5.01653e-20)
(1.1327 -0.295431 5.0207e-20)
(1.09611 -0.285406 -1.35843e-19)
(1.0706 -0.258848 2.02064e-20)
(-0.014884 0.0163034 7.78918e-20)
(-0.0266566 0.0387745 0)
(-0.0150654 0.0514202 1.35448e-19)
(0.0186516 0.0524769 -1.25412e-19)
(0.0739782 0.0431822 1.15652e-19)
(0.151468 0.0256265 0)
(0.252284 0.00176824 0)
(0.376576 -0.0266116 -9.2854e-20)
(0.521347 -0.057853 -5.40148e-22)
(0.679132 -0.0903546 7.96051e-20)
(0.838539 -0.122579 -7.2482e-20)
(0.986484 -0.153143 1.37908e-19)
(1.1111 -0.180907 0)
(1.20427 -0.204994 2.17051e-19)
(1.26303 -0.224787 -3.9285e-19)
(1.28964 -0.239919 2.66723e-19)
(1.29024 -0.250286 1.42168e-19)
(1.27278 -0.256213 -1.32557e-19)
(1.24509 -0.257593 0)
(1.21256 -0.256095 0)
(1.18042 -0.249617 0)
(1.14778 -0.24274 0)
(1.11939 -0.232422 2.52975e-20)
(1.0962 -0.212761 -7.52137e-20)
(-0.060475 -0.600299 -3.80518e-21)
(0.0522551 -0.457388 3.80491e-21)
(0.152063 -0.293984 -1.11919e-22)
(0.255733 -0.10716 0)
(0.347621 0.0926529 -3.66116e-21)
(0.428327 0.305327 6.86662e-21)
(0.50062 0.513292 -3.9542e-22)
(0.561788 0.680349 -2.73862e-21)
(0.609181 0.776437 0)
(0.644239 0.805014 0)
(0.66403 0.795314 -7.39483e-23)
(0.673113 0.766899 -6.52478e-23)
(0.680083 0.730698 -1.11206e-21)
(0.679019 0.715518 1.01918e-21)
(0.660116 0.740708 0)
(0.63043 0.76706 0)
(0.6169 0.708311 1.69993e-21)
(0.637193 0.510308 2.72077e-22)
(0.680836 0.198056 -1.74182e-21)
(0.73161 -0.146033 -1.22008e-22)
(0.779265 -0.425119 0)
(0.817872 -0.586828 0)
(0.840571 -0.650579 0)
(0.846208 -0.655807 0)
(0.848464 -0.627181 0)
(0.845518 -0.607318 0)
(0.821589 -0.634857 1.92376e-22)
(0.774547 -0.677382 -3.02413e-22)
(0.71766 -0.646254 0)
(0.664548 -0.487782 0)
(0.634051 -0.22495 -4.26662e-22)
(0.634514 0.0659707 4.1458e-22)
(0.664058 0.302164 1.61499e-22)
(0.70888 0.448045 0)
(0.75528 0.518481 0)
(0.773963 0.5566 1.53279e-22)
(0.749448 0.586694 -1.48976e-22)
(0.69165 0.578119 0)
(0.637499 0.477375 2.07641e-22)
(0.606844 0.266551 -3.19461e-22)
(0.617 0.00555024 1.11765e-22)
(0.659466 -0.210829 0)
(0.706802 -0.345373 -1.20814e-22)
(0.707033 -0.429599 1.17473e-22)
(0.675604 -0.479787 0)
(0.642072 -0.440849 0)
(0.636725 -0.310581 -4.05114e-23)
(0.645838 -0.100867 1.10629e-22)
(0.665795 0.123382 0)
(0.660601 0.30919 0)
(0.652499 0.43698 -2.60541e-23)
(0.640177 0.396615 -1.56563e-24)
(0.648926 0.254825 2.03379e-25)
(0.637686 0.0050384 2.92598e-23)
(0.623301 -0.271627 0)
(0.59553 -0.361815 0)
(0.601484 -0.372379 0)
(0.5698 -0.109249 0)
(0.546912 0.229403 0)
(0.524345 0.144914 0)
(-0.152424 -0.700864 -3.0728e-22)
(-0.0693552 -0.574459 -1.343e-20)
(0.00799942 -0.413084 -2.25741e-22)
(0.101102 -0.223294 1.28099e-20)
(0.188195 -0.0122359 1.76034e-22)
(0.274057 0.209449 0)
(0.35728 0.424403 -9.52827e-21)
(0.436045 0.602058 1.72219e-20)
(0.507378 0.715105 -7.6975e-21)
(0.566562 0.76568 5.01427e-21)
(0.60855 0.775086 -4.79509e-21)
(0.639213 0.756581 3.97704e-21)
(0.664212 0.72726 -3.84912e-21)
(0.676461 0.722499 -1.23943e-22)
(0.670339 0.756726 -4.99955e-21)
(0.659224 0.781194 4.85543e-21)
(0.669528 0.710247 -7.07552e-21)
(0.708896 0.49899 6.63734e-21)
(0.763997 0.176716 -8.34986e-21)
(0.819595 -0.173706 1.56284e-20)
(0.861904 -0.454376 -7.30302e-21)
(0.886505 -0.609661 -3.34735e-22)
(0.893629 -0.661023 -3.49662e-21)
(0.882819 -0.657407 6.03746e-21)
(0.868122 -0.624439 -2.56544e-21)
(0.852914 -0.596692 1.15363e-22)
(0.81954 -0.612438 1.86965e-21)
(0.761739 -0.646615 3.08787e-22)
(0.694478 -0.614887 -4.36831e-21)
(0.632159 -0.464498 5.17632e-21)
(0.595217 -0.218668 -2.74855e-21)
(0.595506 0.0525795 3.28066e-22)
(0.631436 0.277132 -1.61843e-22)
(0.68739 0.422353 2.15045e-22)
(0.744767 0.502486 0)
(0.771996 0.556749 0)
(0.755869 0.601545 -6.5083e-22)
(0.707385 0.599964 4.53792e-22)
(0.662008 0.496358 7.24713e-22)
(0.635398 0.274505 1.95953e-22)
(0.642267 -0.00157872 -1.08887e-21)
(0.677451 -0.22696 2.14033e-22)
(0.722961 -0.355251 0)
(0.722828 -0.425625 0)
(0.686594 -0.469981 0)
(0.648672 -0.435113 0)
(0.641118 -0.311563 1.25483e-22)
(0.646729 -0.105191 -7.12997e-23)
(0.663327 0.120262 0)
(0.658611 0.309952 0)
(0.654372 0.438916 0)
(0.645267 0.397987 -6.34258e-23)
(0.656532 0.255195 -1.43029e-23)
(0.646009 0.00945411 -5.40325e-23)
(0.629324 -0.26764 0)
(0.596087 -0.35883 0)
(0.597649 -0.370176 1.27814e-23)
(0.569343 -0.104885 -6.86068e-24)
(0.556385 0.232835 0)
(0.528638 0.14836 0)
(-0.13304 -0.764135 -1.23357e-21)
(-0.112936 -0.666458 -2.16483e-20)
(-0.0762104 -0.518867 2.09947e-20)
(-0.00704479 -0.339719 -1.96771e-20)
(0.0650348 -0.131855 -1.77325e-22)
(0.142517 0.0951079 0)
(0.229685 0.312746 -1.53787e-20)
(0.322782 0.49966 1.49702e-20)
(0.413662 0.630848 9.6237e-23)
(0.493038 0.706098 1.17416e-22)
(0.55596 0.736556 1.01375e-22)
(0.607656 0.730853 1.175e-22)
(0.650155 0.711846 -7.49788e-21)
(0.675553 0.717856 7.40571e-21)
(0.682523 0.75864 0)
(0.689475 0.780435 3.09921e-22)
(0.720706 0.702406 -1.40075e-20)
(0.776508 0.488144 1.3838e-20)
(0.842182 0.166122 0)
(0.903462 -0.183952 0)
(0.942719 -0.463419 -1.29651e-20)
(0.954522 -0.614521 2.23858e-20)
(0.946548 -0.658128 -1.62894e-20)
(0.921229 -0.649771 1.77397e-21)
(0.890839 -0.615922 9.02271e-21)
(0.86381 -0.581689 -7.51522e-21)
(0.823705 -0.585205 6.36372e-21)
(0.757839 -0.612706 1.24049e-22)
(0.680724 -0.584927 -3.32732e-21)
(0.610308 -0.445976 0)
(0.567275 -0.217411 0)
(0.566454 0.0344907 1.65294e-21)
(0.607473 0.246981 -2.19115e-21)
(0.672472 0.391502 -3.40291e-23)
(0.739219 0.481509 1.21905e-21)
(0.774928 0.552583 -1.18452e-21)
(0.7688 0.614043 0)
(0.731059 0.621675 1.79531e-22)
(0.695341 0.51683 2.36372e-21)
(0.67401 0.286775 -4.94872e-21)
(0.677662 -0.00155766 2.21461e-21)
(0.702482 -0.237962 2.63493e-22)
(0.743635 -0.363212 -1.48325e-21)
(0.743455 -0.42033 1.10853e-21)
(0.702386 -0.459087 1.67709e-22)
(0.658652 -0.429767 1.26104e-22)
(0.648256 -0.313296 -1.25816e-22)
(0.650633 -0.110332 0)
(0.664762 0.116688 0)
(0.660722 0.309592 -3.28997e-22)
(0.659894 0.440106 1.74538e-22)
(0.653211 0.399425 -2.42094e-22)
(0.667089 0.255855 4.13171e-22)
(0.65768 0.0151203 5.43066e-22)
(0.639506 -0.26228 -1.00498e-22)
(0.600769 -0.354949 1.32537e-22)
(0.597402 -0.367934 -5.96128e-23)
(0.57285 -0.102919 -2.40894e-23)
(0.569944 0.236069 0)
(0.536634 0.152769 0)
(0.0175141 -0.748622 -3.43543e-20)
(-0.0403534 -0.696211 3.13067e-21)
(-0.0622633 -0.590604 2.92808e-20)
(-0.0450976 -0.439202 -2.66042e-22)
(0.00143005 -0.24929 0)
(0.0624447 -0.0302264 0)
(0.138243 0.184468 -2.10263e-20)
(0.232605 0.379144 2.6961e-21)
(0.330108 0.52795 2.41084e-20)
(0.421954 0.626789 -9.92683e-22)
(0.502982 0.677407 -5.95705e-21)
(0.574541 0.686772 -5.62614e-21)
(0.633356 0.68108 5.59978e-21)
(0.670654 0.698186 0)
(0.689904 0.7434 -8.859e-21)
(0.714756 0.762485 8.01208e-21)
(0.765642 0.684396 0)
(0.834191 0.478946 0)
(0.90902 0.165035 1.59867e-20)
(0.979874 -0.183202 -6.11033e-22)
(1.02108 -0.461379 -1.40453e-20)
(1.0225 -0.609116 -9.75908e-21)
(0.999295 -0.646891 9.6298e-21)
(0.960579 -0.634586 -5.26587e-21)
(0.91656 -0.602124 1.20089e-21)
(0.877935 -0.564935 3.76158e-21)
(0.832053 -0.556358 3.53443e-22)
(0.761517 -0.57502 3.19951e-23)
(0.676805 -0.5518 0)
(0.599347 -0.428113 3.81161e-21)
(0.550653 -0.219555 -3.92421e-21)
(0.547431 0.0125282 2.74791e-22)
(0.591398 0.211939 0)
(0.66279 0.355426 -1.83443e-22)
(0.737545 0.456006 2.15225e-21)
(0.782727 0.543474 -4.08568e-21)
(0.787324 0.620194 -8.74599e-22)
(0.759878 0.638042 -1.00028e-21)
(0.734888 0.535614 3.04855e-21)
(0.720795 0.302093 5.99902e-22)
(0.722472 0.00471638 -4.65558e-21)
(0.735025 -0.244164 4.04271e-21)
(0.768674 -0.370133 -2.37743e-23)
(0.768181 -0.414485 8.27446e-22)
(0.722616 -0.446503 -9.72694e-22)
(0.6718 -0.423668 -7.83168e-22)
(0.657813 -0.315466 2.53448e-22)
(0.657421 -0.116637 2.77999e-22)
(0.669921 0.112067 -5.34159e-22)
(0.666603 0.307983 4.06587e-22)
(0.668736 0.440862 -2.62504e-22)
(0.663747 0.40123 1.02762e-22)
(0.680207 0.256832 2.563e-22)
(0.672474 0.0216121 -9.07505e-22)
(0.653737 -0.255723 4.61999e-23)
(0.609648 -0.350084 -1.38288e-22)
(0.600721 -0.365503 0)
(0.579934 -0.103268 9.34265e-24)
(0.587184 0.238982 -7.51193e-23)
(0.548343 0.158043 0)
(0.266778 -0.648055 2.51156e-20)
(0.157591 -0.639039 -4.39987e-20)
(0.0682702 -0.592699 1.88494e-20)
(0.0154811 -0.493078 1.45907e-20)
(0.0110229 -0.33901 -2.78159e-20)
(0.039431 -0.150645 1.07988e-21)
(0.0950189 0.0539538 1.19438e-20)
(0.17901 0.247996 9.40011e-21)
(0.272807 0.409324 -9.21929e-21)
(0.369698 0.527898 0)
(0.463103 0.598213 -7.09042e-21)
(0.548981 0.625934 1.50157e-20)
(0.618361 0.637276 -7.95286e-21)
(0.662486 0.666695 0)
(0.691045 0.714947 0)
(0.732201 0.731797 2.8066e-22)
(0.799571 0.65916 -2.36339e-20)
(0.879212 0.468687 2.29428e-20)
(0.965349 0.167969 0)
(1.0479 -0.172751 2.92802e-20)
(1.09314 -0.445056 -5.13852e-20)
(1.0866 -0.5891 4.13424e-20)
(1.04947 -0.624801 -3.15068e-20)
(0.998994 -0.61139 3.22229e-21)
(0.94399 -0.582113 1.69359e-20)
(0.895731 -0.545678 -7.22579e-21)
(0.845679 -0.527602 -1.67024e-22)
(0.773144 -0.537367 -2.10308e-21)
(0.683058 -0.518863 -3.16298e-22)
(0.599369 -0.411695 2.43379e-21)
(0.545181 -0.224328 2.24265e-22)
(0.537966 -0.012386 -2.98299e-21)
(0.58195 0.173124 5.34072e-21)
(0.657104 0.314789 -2.60605e-21)
(0.738903 0.423851 0)
(0.793459 0.526986 -2.28588e-21)
(0.809527 0.621599 2.27116e-21)
(0.794381 0.652377 -3.41922e-21)
(0.780817 0.555053 4.23155e-21)
(0.773977 0.321097 -6.77023e-22)
(0.77491 0.0173699 0)
(0.774672 -0.243757 -5.6111e-22)
(0.797661 -0.374554 1.15364e-21)
(0.796288 -0.407816 0)
(0.746914 -0.432177 1.41646e-21)
(0.68791 -0.416502 -6.35043e-22)
(0.669435 -0.317905 1.65662e-22)
(0.666794 -0.124259 7.39175e-23)
(0.678496 0.106173 0)
(0.676076 0.304883 0)
(0.680798 0.440598 -5.96663e-22)
(0.676629 0.403108 1.28139e-21)
(0.695514 0.257806 -9.21242e-22)
(0.690174 0.0288598 4.30442e-22)
(0.671749 -0.247915 6.08581e-22)
(0.622695 -0.34421 1.38436e-22)
(0.607552 -0.36273 -6.28064e-23)
(0.590117 -0.105888 0)
(0.607658 0.241343 1.03005e-22)
(0.563731 0.164076 -1.00743e-23)
(0.527112 -0.531969 1.94862e-20)
(0.424401 -0.512711 -1.92097e-20)
(0.304503 -0.497989 1.02661e-22)
(0.191905 -0.461004 -1.68171e-23)
(0.114697 -0.372626 6.98807e-23)
(0.0855689 -0.23934 -6.26789e-23)
(0.0994301 -0.0655896 -6.14049e-24)
(0.157731 0.115338 0)
(0.242194 0.280974 1.77951e-23)
(0.339033 0.412918 -1.35591e-23)
(0.438308 0.501877 -1.34197e-25)
(0.531003 0.551151 -8.52937e-23)
(0.60413 0.583206 0)
(0.650229 0.625663 0)
(0.685373 0.674999 1.35158e-22)
(0.739729 0.689824 0)
(0.81909 0.627184 -2.4412e-22)
(0.908415 0.456792 0)
(1.00918 0.172605 -2.64614e-20)
(1.10699 -0.157414 5.18632e-20)
(1.15814 -0.420877 -4.72332e-20)
(1.14607 -0.560277 2.17363e-20)
(1.09691 -0.595734 1.26528e-20)
(1.03644 -0.582852 -1.22821e-20)
(0.972714 -0.557085 -6.94924e-21)
(0.915684 -0.52422 6.69147e-21)
(0.862506 -0.500093 0)
(0.79132 -0.500195 9.81189e-23)
(0.698871 -0.484849 0)
(0.609863 -0.394929 0)
(0.550138 -0.229527 4.53856e-21)
(0.536807 -0.0384543 -4.63865e-21)
(0.577627 0.131729 2.17157e-22)
(0.654105 0.269425 2.35858e-22)
(0.741753 0.386125 -1.46256e-22)
(0.806182 0.503915 -1.78942e-21)
(0.834424 0.613465 1.73723e-21)
(0.830079 0.658523 -4.21108e-21)
(0.826979 0.571464 3.70846e-21)
(0.82887 0.342002 1.37764e-21)
(0.831961 0.0363557 -5.26083e-21)
(0.820539 -0.23642 4.94994e-22)
(0.83015 -0.376218 3.09197e-21)
(0.826891 -0.400747 0)
(0.774817 -0.416011 -6.33853e-22)
(0.706805 -0.407569 4.10207e-22)
(0.682743 -0.320261 -5.96422e-22)
(0.678409 -0.133178 -7.44123e-23)
(0.690132 0.0983996 0)
(0.688728 0.30006 1.66418e-22)
(0.695668 0.440156 -2.03187e-22)
(0.691484 0.405723 7.8335e-24)
(0.712604 0.258935 -3.84385e-22)
(0.710518 0.0366785 7.38392e-22)
(0.693224 -0.238982 -6.63589e-22)
(0.639774 -0.337325 0)
(0.617855 -0.359412 6.28432e-23)
(0.602891 -0.110657 0)
(0.630868 0.24303 0)
(0.582679 0.170764 3.14952e-24)
(0.730683 -0.473655 -1.83512e-20)
(0.654343 -0.420945 1.79716e-20)