/*--------------------------------*- C++ -*----------------------------------*\
| =========                 |                                                 |
| \\      /  F ield         | OpenFOAM: The Open Source CFD Toolbox           |
|  \\    /   O peration     | Version:  2312                                  |
|   \\  /    A nd           | Website:  www.openfoam.com                      |
|    \\/     M anipulation  |                                                 |
\*---------------------------------------------------------------------------*/
FoamFile
{
    version     2.0;
    format      ascii;
    arch        "LSB;label=32;scalar=64";
    class       volScalarField;
    location    "61";
    object      p;
}
// * * * * * * * * * * * * * * * * * * * * * * * * * * * * * * * * * * * * * //

dimensions      [0 2 -2 0 0 0 0];

internalField   nonuniform List<scalar> 
5478
(
-0.293018
-0.293163
-0.289646
-0.283297
-0.274976
-0.2653
-0.255373
-0.246319
-0.238904
-0.233285
-0.229449
-0.225286
-0.220828
-0.212739
-0.202128
-0.298642
-0.297886
-0.29441
-0.288772
-0.280806
-0.270932
-0.259821
-0.248458
-0.23766
-0.227661
-0.218018
-0.208268
-0.198148
-0.187077
-0.176834
-0.308115
-0.305494
-0.301138
-0.294944
-0.28629
-0.274772
-0.261089
-0.246508
-0.232002
-0.218029
-0.204847
-0.192335
-0.180391
-0.168392
-0.15644
-0.320915
-0.315755
-0.309552
-0.301743
-0.290639
-0.275861
-0.258731
-0.240907
-0.223554
-0.207329
-0.192239
-0.178085
-0.164519
-0.15126
-0.13916
-0.337878
-0.329638
-0.320963
-0.309887
-0.294142
-0.274711
-0.253857
-0.233298
-0.213941
-0.196012
-0.179458
-0.164128
-0.14975
-0.136391
-0.123822
-0.360176
-0.347608
-0.335882
-0.31896
-0.296399
-0.271532
-0.246982
-0.223959
-0.202825
-0.183622
-0.166175
-0.150191
-0.135411
-0.1217
-0.10872
-0.387933
-0.369433
-0.352048
-0.326412
-0.295858
-0.265453
-0.237372
-0.212079
-0.189481
-0.169283
-0.151146
-0.13479
-0.119968
-0.106518
-0.0937768
-0.416317
-0.392962
-0.3652
-0.328721
-0.290294
-0.254879
-0.223664
-0.196425
-0.172626
-0.151772
-0.133403
-0.117135
-0.102711
-0.089793
-0.0778554
-0.38338
-0.386003
-0.387844
-0.390608
-0.394374
-0.399128
-0.404092
-0.408753
-0.412422
-0.414529
-0.414945
-0.4142
-0.413634
-0.414921
-0.419857
-0.360555
-0.361895
-0.362019
-0.362033
-0.362235
-0.362537
-0.362745
-0.362828
-0.362975
-0.363711
-0.366036
-0.371434
-0.381784
-0.399005
-0.417604
-0.3423
-0.342757
-0.341065
-0.338834
-0.336245
-0.333306
-0.330137
-0.327135
-0.325112
-0.325158
-0.328777
-0.338306
-0.352641
-0.377899
-0.404809
-0.32752
-0.326923
-0.32433
-0.320482
-0.315732
-0.310327
-0.304651
-0.299245
-0.295501
-0.294865
-0.297919
-0.309321
-0.323438
-0.349303
-0.375968
-0.315325
-0.314342
-0.311117
-0.305889
-0.299185
-0.29154
-0.283612
-0.276336
-0.270802
-0.269331
-0.270959
-0.282201
-0.295738
-0.319466
-0.344013
-0.305189
-0.3044
-0.300759
-0.294362
-0.285806
-0.276071
-0.266138
-0.257265
-0.250669
-0.248777
-0.250983
-0.261817
-0.27588
-0.296501
-0.317127
-0.297234
-0.296973
-0.293095
-0.285999
-0.276016
-0.265008
-0.254183
-0.245194
-0.239337
-0.237781
-0.24101
-0.249271
-0.260675
-0.274962
-0.286959
-0.292545
-0.292786
-0.288948
-0.281838
-0.272104
-0.261435
-0.251293
-0.242865
-0.237262
-0.234715
-0.236017
-0.238879
-0.243103
-0.246658
-0.246639
-0.437332
-0.465392
-0.493099
-0.507602
-0.491916
-0.428167
-0.325367
-0.230056
-0.17634
-0.163631
-0.18523
-0.243578
-0.277143
-0.24069
-0.173147
-0.114905
-0.0818618
-0.0723011
-0.091928
-0.12076
-0.117318
-0.0925592
-0.0792436
-0.0748984
-0.0728962
-0.0670133
-0.0657632
-0.0716727
-0.066967
-0.0477757
-0.0387333
-0.0485521
-0.0522807
-0.0351343
-0.0178322
-0.013435
-0.00859074
-0.00270422
-0.459211
-0.505346
-0.544187
-0.568225
-0.549434
-0.476044
-0.361875
-0.251985
-0.178799
-0.148438
-0.150526
-0.192998
-0.223795
-0.197962
-0.142763
-0.0996132
-0.0806064
-0.0824719
-0.115003
-0.158148
-0.160064
-0.121702
-0.0927798
-0.0794316
-0.0720012
-0.0598519
-0.053935
-0.061065
-0.0621482
-0.0512335
-0.049397
-0.0608314
-0.0602728
-0.0357069
-0.0139139
-0.00874809
-0.00525511
-0.00184547
-0.448887
-0.501837
-0.54452
-0.569422
-0.554219
-0.482028
-0.366175
-0.251323
-0.171864
-0.130402
-0.113027
-0.134743
-0.161959
-0.146742
-0.105106
-0.0794534
-0.0766243
-0.0917377
-0.137077
-0.190945
-0.199451
-0.149745
-0.105299
-0.0831494
-0.0718228
-0.0548496
-0.0436446
-0.0506242
-0.0570676
-0.0549823
-0.0605494
-0.0738488
-0.0686574
-0.0370518
-0.0107837
-0.00464357
-0.00232449
-0.00105586
-0.412282
-0.463913
-0.50799
-0.532503
-0.520337
-0.453498
-0.345913
-0.238109
-0.161658
-0.114033
-0.0849587
-0.0838188
-0.100323
-0.09314
-0.0628398
-0.0542247
-0.0654883
-0.0929758
-0.148765
-0.213212
-0.228985
-0.173676
-0.115822
-0.0856528
-0.0715627
-0.0518646
-0.0355653
-0.0411467
-0.0523705
-0.058919
-0.0714576
-0.0863727
-0.0770772
-0.0390009
-0.0083566
-0.0010873
0.000200176
-0.000345008
-0.37141
-0.416118
-0.455065
-0.475869
-0.465736
-0.407396
-0.315195
-0.221303
-0.150731
-0.102574
-0.0659041
-0.0479968
-0.051892
-0.0455293
-0.0236826
-0.0256889
-0.0501703
-0.0857599
-0.14927
-0.223192
-0.247304
-0.194746
-0.125343
-0.0875666
-0.0709502
-0.0506528
-0.029959
-0.0326023
-0.0473989
-0.062081
-0.0817166
-0.0982954
-0.0852684
-0.0413794
-0.00650876
0.00197702
0.00234954
0.000279482
-0.332571
-0.36362
-0.397037
-0.409007
-0.396926
-0.349824
-0.279141
-0.204908
-0.142494
-0.0964514
-0.0567578
-0.0286508
-0.0239238
-0.0177806
0.00183863
-0.000402818
-0.0318372
-0.0728772
-0.136864
-0.214
-0.248378
-0.204744
-0.131745
-0.0879533
-0.0694708
-0.0508417
-0.026727
-0.0252687
-0.0428083
-0.0643874
-0.0903435
-0.108836
-0.0928514
-0.0442081
-0.00519952
0.00463026
0.00415665
0.000803076
-0.290593
-0.309131
-0.331014
-0.34021
-0.331834
-0.299972
-0.250552
-0.194717
-0.139798
-0.094299
-0.0550081
-0.0211863
-0.00874817
-0.00391141
0.0102635
0.0154049
-0.0132971
-0.0524517
-0.114198
-0.198671
-0.242482
-0.213393
-0.139775
-0.0888362
-0.0678898
-0.0514958
-0.0265916
-0.0177205
-0.0374702
-0.0651642
-0.0979063
-0.117962
-0.0998659
-0.0474611
-0.00446423
0.00688673
0.00569882
0.00122251
-0.243479
-0.251593
-0.265734
-0.268098
-0.26477
-0.249771
-0.222621
-0.185968
-0.143489
-0.102812
-0.065364
-0.028914
-0.00773599
-0.00175825
0.00933205
0.0154427
-0.00615568
-0.0368748
-0.089353
-0.166044
-0.216548
-0.199706
-0.140205
-0.0897697
-0.0663258
-0.0487451
-0.0267366
-0.015309
-0.0332228
-0.0651675
-0.102742
-0.124683
-0.105119
-0.0495192
-0.00363068
0.00888105
0.00700914
0.00152442
-0.219917
-0.241571
-0.240897
-0.235781
-0.227691
-0.212294
-0.18992
-0.15918
-0.122185
-0.0863768
-0.0533157
-0.0221718
-0.000635471
0.00487414
0.0113535
0.018462
0.0175565
-0.00975422
-0.0600528
-0.136553
-0.194929
-0.18831
-0.130699
-0.0818851
-0.0606313
-0.0442692
-0.0235993
0.00313902
-0.0261487
-0.0624563
-0.106084
-0.131046
-0.108861
-0.049312
-0.00196258
0.0111362
0.00811351
0.00170619
-0.182413
-0.199691
-0.2056
-0.199001
-0.187732
-0.17264
-0.153578
-0.129254
-0.0995163
-0.0700752
-0.0416766
-0.0162329
0.000504976
0.0068471
0.0138495
0.0207019
0.0170607
-0.000707174
-0.0415196
-0.109983
-0.169181
-0.165688
-0.116516
-0.0729791
-0.0535768
-0.0396659
-0.0211564
-0.0275685
-0.0234364
-0.0608067
-0.108508
-0.135031
-0.110379
-0.0484609
-0.000188323
0.0133298
0.00876039
0.00176373
-0.151852
-0.171602
-0.175498
-0.168321
-0.157
-0.143244
-0.127444
-0.108539
-0.0844817
-0.0598353
-0.0353513
-0.0113296
0.00555792
0.0127899
0.0177521
0.0247092
0.0206373
0.00326432
-0.0292043
-0.0836698
-0.136974
-0.138011
-0.0999471
-0.0638293
-0.0468651
-0.035188
-0.017951
-0.0136223
-0.0211754
-0.060566
-0.109766
-0.136403
-0.109841
-0.0467585
0.00190106
0.0156427
0.00912792
0.00175045
-0.125643
-0.141807
-0.145639
-0.139557
-0.129236
-0.116734
-0.102723
-0.0864717
-0.0667533
-0.0462934
-0.0254218
-0.00519756
0.00921195
0.0174423
0.0230335
0.0307226
0.032629
0.0192289
-0.00951073
-0.0570323
-0.103472
-0.10562
-0.0795999
-0.0533945
-0.0392776
-0.0296439
-0.0150276
-0.00941451
-0.0197849
-0.0601231
-0.108905
-0.134756
-0.106418
-0.043317
0.00459546
0.0180889
0.00937177
0.00167578
-0.100045
-0.113851
-0.118034
-0.113395
-0.104427
-0.0935031
-0.0815517
-0.0687055
-0.0533012
-0.0368488
-0.0196747
-0.00164467
0.0122955
0.0218757
0.029918
0.0410416
0.0549644
0.0477744
0.0161307
-0.031327
-0.0687094
-0.0726106
-0.0581878
-0.0427877
-0.0321756
-0.0238155
-0.0129512
-0.0058703
-0.0183266
-0.0578249
-0.105155
-0.129309
-0.0996756
-0.0380065
0.00815915
0.020853
0.00961364
0.00150379
-0.0767644
-0.0890123
-0.0932497
-0.0898609
-0.0824709
-0.073371
-0.063537
-0.053045
-0.0406159
-0.0268703
-0.0122032
0.003465
0.0162649
0.0263106
0.0365159
0.0501394
0.0684411
0.0679548
0.0376939
-0.00622364
-0.0371382
-0.0423977
-0.0370805
-0.0310983
-0.0243447
-0.0172274
-0.0119564
-0.00962386
-0.0180195
-0.0535921
-0.0982404
-0.119896
-0.0890996
-0.0301801
0.0128195
0.0242492
0.0101053
0.0011962
-0.0566768
-0.0671541
-0.0711269
-0.0687189
-0.0628207
-0.05548
-0.0474247
-0.0388258
-0.0288392
-0.0176589
-0.0057739
0.00724794
0.0190704
0.0292387
0.0405344
0.053942
0.0695078
0.0738699
0.0503323
0.0142667
-0.011936
-0.0185555
-0.0185851
-0.019536
-0.0158804
-0.00925628
-0.0109303
-0.0112034
-0.018091
-0.0472482
-0.0880268
-0.106277
-0.0748733
-0.0196214
0.0188984
0.0283654
0.0111265
0.000726092
-0.0389262
-0.047725
-0.0514014
-0.0499039
-0.0454137
-0.0396227
-0.0331671
-0.0262194
-0.0183715
-0.00948044
0.000215411
0.0110123
0.0215692
0.0310002
0.0410214
0.0526953
0.0640637
0.0691341
0.0537087
0.0270125
0.00545899
-0.00121509
-0.00303826
-0.00778096
-0.00575057
0.00163534
-0.0071307
-0.0116366
-0.0159385
-0.0361486
-0.072094
-0.0869112
-0.0569548
-0.00668622
0.0268301
0.0335004
0.0130997
0.000101793
-0.0230702
-0.0305392
-0.0339958
-0.0333295
-0.0300274
-0.0255014
-0.0204331
-0.0149687
-0.00890225
-0.00190128
0.0059256
0.0145864
0.0234793
0.0317635
0.0402382
0.0492294
0.0570294
0.0607394
0.0517134
0.0337321
0.0176337
0.0113199
0.00930962
0.00369023
0.00482736
0.013436
0.00311919
-0.0135111
-0.0091547
-0.0169341
-0.0469791
-0.0613655
-0.0369358
0.00678931
0.0362363
0.0416099
0.0171686
-0.00072565
-0.00918278
-0.0156416
-0.0189416
-0.0188089
-0.0163369
-0.012866
-0.00903679
-0.00488786
-0.000276263
0.00507849
0.0111866
0.0179133
0.0250715
0.03195
0.0387381
0.0454137
0.0506265
0.0529513
0.0480285
0.0367724
0.0256412
0.0202287
0.0187222
0.014587
0.0157467
0.024836
0.0209156
0.00852501
0.0102725
0.00755865
-0.0194118
-0.0345679
-0.016858
0.018731
0.0451405
0.0500181
0.0227097
-0.00164768
0.00277824
-0.00266923
-0.005624
-0.00584759
-0.00421511
-0.00168994
0.00112685
0.00418179
0.00757468
0.011508
0.0160946
0.0211743
0.026658
0.0320474
0.0371987
0.0420308
0.0455799
0.0470997
0.0446253
0.0380644
0.0311079
0.0271734
0.0259597
0.0240182
0.0253687
0.0341972
0.0403625
0.0404554
0.0377355
0.0296267
0.00403534
-0.0106132
0.000996707
0.0277293
0.0502374
0.0534123
0.02686
-0.00127929
0.0133061
0.00872232
0.00601635
0.00542555
0.00636097
0.00808962
0.0101232
0.0123077
0.0146913
0.0174196
0.0206338
0.0243716
0.0283898
0.032404
0.0361664
0.0396282
0.0421208
0.0432001
0.0420789
0.0385554
0.0345648
0.0319623
0.0313245
0.0312701
0.0332345
0.0411579
0.0516179
0.0557547
0.0557997
0.0430157
0.0206253
0.00808915
0.0149739
0.0332967
0.0505078
0.0509984
0.0282589
0.00120344
0.022779
0.0188433
0.0163323
0.0154947
0.0159228
0.0170267
0.0183922
0.0198711
0.0215117
0.0234011
0.0256675
0.0280885
0.0307802
0.0335521
0.0361682
0.0385646
0.0403272
0.0411818
0.0408771
0.0392053
0.0370922
0.0358784
0.0357565
0.0366915
0.0389962
0.0452701
0.054831
0.0599172
0.0602181
0.0481909
0.031058
0.0210062
0.0241273
0.0356985
0.0471076
0.0459853
0.0276695
0.00412801
0.0307764
0.027363
0.0250508
0.0240533
0.0240653
0.0246165
0.0253719
0.026196
0.0271133
0.0281947
0.029527
0.031099
0.0328549
0.0347124
0.0364839
0.0381059
0.0393618
0.040051
0.0401083
0.0394658
0.0386408
0.0381676
0.0385246
0.0398078
0.0421133
0.0468481
0.0537969
0.058009
0.057932
0.0486064
0.0362603
0.0283578
0.0289308
0.035768
0.042057
0.0400876
0.0255076
0.00574783
0.0382911
0.0354038
0.0333341
0.0322625
0.0319847
0.0321482
0.0324852
0.0328651
0.0332862
0.0337973
0.0344683
0.0353149
0.0363032
0.0373823
0.0384487
0.0394484
0.0402808
0.0408182
0.041048
0.040949
0.0406661
0.0406666
0.0411293
0.0422956
0.0443184
0.0475879
0.0518083
0.0547309
0.0542086
0.0475131
0.0389174
0.0327197
0.0317702
0.0347274
0.037384
0.0346286
0.0227629
0.00630739
0.0441012
0.0415181
0.0395487
0.0383556
0.0377954
0.0375939
0.0375303
0.0374901
0.0374623
0.0374891
0.0376269
0.0379088
0.0383184
0.0388281
0.0393728
0.0399105
0.0403858
0.0407312
0.0409276
0.0410127
0.0410564
0.0413365
0.0418902
0.042844
0.0442195
0.0461539
0.0488497
0.0504955
0.0498222
0.0450992
0.0390362
0.0340929
0.0322706
0.0328593
0.0329444
0.0295422
0.0196317
0.00591828
0.0508447
0.0486907
0.0469234
0.0457019
0.0449572
0.0445017
0.0441672
0.0438512
0.0435318
0.0432315
0.0429959
0.0428565
0.0428169
0.0428614
0.0429587
0.0430863
0.0432149
0.0433223
0.0433709
0.0434084
0.0434187
0.0435667
0.0438677
0.0444292
0.0451594
0.0461848
0.0472882
0.0477398
0.0467721
0.0433278
0.0389622
0.034917
0.0324637
0.0312797
0.0295533
0.025626
0.0171301
0.00551278
0.0542481
0.0522188
0.0505316
0.0492887
0.0484161
0.0477584
0.0471837
0.0466133
0.0460296
0.0454528
0.0449193
0.0444625
0.0440901
0.0438025
0.043576
0.0434072
0.0432687
0.0431651
0.0430605
0.0429936
0.0429555
0.0430155
0.0432117
0.0435034
0.0439565
0.0443629
0.0448062
0.0445931
0.0435613
0.0408526
0.0374634
0.0340118
0.0311765
0.029152
0.0262838
0.022057
0.0146898
0.00475648
0.0607936
0.0592109
0.0576942
0.0563898
0.0553216
0.054427
0.0536272
0.0528535
0.0520781
0.0513004
0.0505423
0.0498294
0.0491727
0.0485811
0.048037
0.0475523
0.0470977
0.0467014
0.0463098
0.0459755
0.0456417
0.0453864
0.0451574
0.0449841
0.0448163
0.0445579
0.0442369
0.0433917
0.0420899
0.0397044
0.0368294
0.0336849
0.0305864
0.0278423
0.0242497
0.0197907
0.0131631
0.0044089
0.0618058
0.0601574
0.0587167
0.0575176
0.0565085
0.0555987
0.0547189
0.0538248
0.0529093
0.0519865
0.0510786
0.0502138
0.0493935
0.048637
0.0479184
0.047267
0.0466452
0.0460912
0.0455623
0.0450839
0.0446497
0.0442346
0.0439091
0.0435122
0.0432202
0.0426647
0.0421531
0.0410707
0.0397225
0.0375907
0.0349231
0.0321197
0.0287989
0.025849
0.0219588
0.0173081
0.0115381
0.00385304
0.0676359
0.0663863
0.0650748
0.06379
0.0625788
0.0614364
0.060346
0.0592772
0.0582141
0.057153
0.0560946
0.0550617
0.054045
0.0530783
0.0521246
0.0512339
0.0503493
0.0495354
0.0487236
0.0479669
0.0472161
0.0464783
0.0457717
0.0449762
0.0442548
0.0432331
0.04233
0.0408742
0.0393006
0.0371823
0.0344907
0.0318
0.0283219
0.0250424
0.0209835
0.0162033
0.0107713
0.00371945
0.0672276
0.0659495
0.0647339
0.0635749
0.0624555
0.0613497
0.0602443
0.0591299
0.0580091
0.0568879
0.055774
0.054682
0.0536075
0.0525742
0.0515546
0.0505873
0.0496349
0.0487247
0.0478641
0.0469815
0.0462307
0.0453336
0.0446473
0.0437073
0.0429202
0.0418924
0.0407074
0.0394391
0.0375726
0.0357506
0.0330999
0.0304146
0.0271957
0.0235161
0.0196491
0.0148127
0.00949034
0.00331304
0.0702449
0.0691007
0.0679115
0.0666911
0.0654714
0.0642518
0.0630443
0.061843
0.0606472
0.0594627
0.0582761
0.0571155
0.0559478
0.0548262
0.0536949
0.0526229
0.0515464
0.0505176
0.0495082
0.0484939
0.0475513
0.0465091
0.0456159
0.0444898
0.0435554
0.0422639
0.0410392
0.0395405
0.0375986
0.0358217
0.0329503
0.0304154
0.0270802
0.0232265
0.0194702
0.0144488
0.00919651
0.00330656
-0.0667115
-0.0810065
-0.0956172
-0.110472
-0.127295
-0.144407
-0.165641
-0.189898
-0.0558197
-0.0678963
-0.0808162
-0.093732
-0.10897
-0.12359
-0.139274
-0.157446
-0.0446783
-0.0543596
-0.0646549
-0.0751399
-0.0868477
-0.0981402
-0.110273
-0.126389
-0.0340483
-0.0417188
-0.0498017
-0.0583598
-0.0680075
-0.0779597
-0.0898462
-0.104676
-0.023726
-0.0299431
-0.03661
-0.0439939
-0.0527376
-0.0618614
-0.0721255
-0.083495
-0.0142208
-0.0193448
-0.0249007
-0.0311297
-0.0384
-0.0455829
-0.0532894
-0.0624909
-0.00530362
-0.00940451
-0.0138075
-0.018742
-0.024409
-0.0301146
-0.0365967
-0.0447037
0.00315414
-2.07865e-05
-0.00343402
-0.0073708
-0.0120221
-0.016947
-0.0225716
-0.0292984
0.0111456
0.00867896
0.00598922
0.00274076
-0.00116547
-0.00533024
-0.00987028
-0.0152376
0.0186699
0.0167154
0.0145697
0.0119007
0.00872777
0.00539399
0.00180763
-0.00263724
0.0257669
0.0242004
0.0224954
0.0203674
0.0178499
0.0151282
0.0120808
0.00823006
0.0324735
0.0311955
0.0298299
0.0281007
0.0259976
0.0236216
0.0209787
0.0177585
0.0388282
0.0377293
0.0365724
0.035099
0.0333062
0.0313032
0.0291359
0.0264856
0.0447509
0.04374
0.0426818
0.041392
0.0398749
0.0381751
0.0362936
0.0339581
0.0504904
0.0495129
0.0485564
0.0474499
0.0461456
0.044647
0.0429788
0.040957
0.0554237
0.0545121
0.0535656
0.052464
0.0512075
0.0498065
0.0482779
0.046459
0.0609817
0.0599062
0.0588671
0.0578081
0.0567022
0.0555103
0.0542346
0.0527443
0.0646706
0.0637191
0.0627284
0.0616355
0.0604414
0.0591404
0.0577391
0.0561479
0.0699156
0.0686829
0.0674834
0.0663317
0.0652403
0.0641875
0.0631715
0.0620959
0.0723077
0.0712305
0.0701178
0.0689426
0.0677067
0.0663871
0.0649824
0.0634569
0.0767113
0.0753804
0.0740804
0.0728422
0.0716968
0.0706359
0.0696573
0.0686934
0.0777673
0.0764862
0.0752017
0.0738983
0.0725821
0.071245
0.0699006
0.0685508
0.0798344
0.0784842
0.0771794
0.0759182
0.0747121
0.0735494
0.0724335
0.0713364
0.0898645
0.0928681
0.0950612
0.0959341
0.0950306
0.0922918
0.0875538
0.0802221
0.0692682
0.0532598
0.0302491
-0.00239029
-0.0488907
-0.112638
-0.167257
0.0687427
0.0694005
0.067695
0.0644504
0.059746
0.0532177
0.0442947
0.0321712
0.0157407
-0.00649206
-0.0365908
-0.0771856
-0.131929
-0.205537
-0.260994
0.0477796
0.0455557
0.0401505
0.0334053
0.0254662
0.0156078
0.00300393
-0.0132443
-0.034285
-0.0616626
-0.0975002
-0.144599
-0.205592
-0.283808
-0.337109
0.025743
0.0205584
0.012511
0.00338304
-0.00702488
-0.01967
-0.0353981
-0.0550347
-0.0796381
-0.110951
-0.150973
-0.202581
-0.267481
-0.34457
-0.393861
0.00285883
-0.00476664
-0.0143995
-0.025014
-0.0372908
-0.0521452
-0.0702764
-0.0924744
-0.119526
-0.153459
-0.196091
-0.249839
-0.315085
-0.387442
-0.430749
-0.0196148
-0.0290956
-0.0396629
-0.0513349
-0.065099
-0.0815921
-0.10135
-0.125136
-0.153902
-0.189042
-0.232343
-0.285483
-0.347942
-0.412365
-0.448918
-0.0411044
-0.051309
-0.0626056
-0.0754058
-0.0903428
-0.107905
-0.128606
-0.153145
-0.182377
-0.217354
-0.259493
-0.30972
-0.366285
-0.419889
-0.450723
-0.0605766
-0.0714089
-0.0834614
-0.0971872
-0.112982
-0.131189
-0.152229
-0.176707
-0.205341
-0.238944
-0.2784
-0.323673
-0.371352
-0.412107
-0.438932
0.213221
0.22814
0.24482
0.263442
0.284045
0.306593
0.33105
0.357385
0.385504
0.41513
0.445662
0.475935
0.503965
0.525858
0.543815
0.2111
0.22491
0.240525
0.258187
0.277807
0.299205
0.322277
0.34698
0.373206
0.400628
0.428564
0.455746
0.480051
0.497693
0.51153
0.204966
0.21682
0.230779
0.246998
0.265093
0.284649
0.305454
0.327421
0.350405
0.374012
0.397445
0.419285
0.437155
0.447431
0.454443
0.194762
0.204143
0.216048
0.230342
0.246279
0.263262
0.281011
0.299375
0.318101
0.336645
0.354025
0.368619
0.377719
0.377702
0.375852
0.180608
0.187311
0.197124
0.209327
0.222633
0.236302
0.250105
0.263921
0.277413
0.28985
0.300003
0.305993
0.304758
0.292508
0.279573
0.162857
0.166584
0.174204
0.184211
0.194704
0.204792
0.214253
0.222964
0.230507
0.235996
0.237991
0.23435
0.221657
0.195992
0.170545
0.142034
0.143363
0.148951
0.1562
0.163177
0.169189
0.174049
0.177493
0.178885
0.177137
0.170612
0.156941
0.132392
0.0931142
0.0553468
0.117419
0.117905
0.122476
0.126917
0.129952
0.131434
0.131368
0.129342
0.124474
0.115458
0.100467
0.0769254
0.0408079
-0.0114514
-0.0596555
0.0664866
0.0684102
0.0676985
0.0689705
0.0690073
0.071015
0.0719361
0.0744998
0.0765382
0.0798378
0.0832364
0.0876931
0.0925883
0.0985802
0.105268
0.113085
0.121774
0.131675
0.142571
0.154753
0.167984
0.182476
0.197977
0.0688718
0.0709076
0.0699703
0.0712911
0.0711426
0.0731846
0.0739481
0.0764984
0.0784094
0.0816854
0.0849672
0.0893775
0.0941947
0.100101
0.106726
0.114423
0.122959
0.132662
0.143271
0.155143
0.167943
0.181993
0.196834
0.0712592
0.0733636
0.0722452
0.0735611
0.0732619
0.0752982
0.0759231
0.0784482
0.080215
0.0834834
0.0866173
0.0909907
0.0956986
0.101499
0.108009
0.11553
0.123751
0.133086
0.143144
0.154412
0.166349
0.179425
0.192775
0.0736479
0.0757736
0.0745222
0.0757734
0.0753571
0.0773433
0.0778552
0.080328
0.081961
0.0852034
0.0881781
0.0924909
0.0970677
0.10274
0.109064
0.116353
0.124105
0.132941
0.142178
0.152507
0.163027
0.174485
0.185478
0.0760349
0.0781381
0.0767918
0.0779234
0.0774241
0.0793059
0.0797366
0.0821219
0.0836331
0.0868205
0.0896413
0.0938577
0.0983029
0.103767
0.109777
0.116642
0.123737
0.131808
0.139948
0.14903
0.157708
0.167055
0.17486
0.0784144
0.0804612
0.0790398
0.0800157
0.0794605
0.0811818
0.0815453
0.0838138
0.0852149
0.0883219
0.0909903
0.0951091
0.0994537
0.104802
0.110424
0.116944
0.123286
0.1306
0.137269
0.144723
0.15079
0.157344
0.161214
0.0807802
0.0827457
0.081258
0.0820544
0.0814559
0.0829741
0.0832695
0.0853861
0.0867092
0.0896991
0.0922064
0.0961746
0.100283
0.105265
0.110338
0.116127
0.121574
0.127649
0.132875
0.138362
0.141894
0.145133
0.144434
0.0831262
0.0849947
0.0834379
0.0840299
0.0833802
0.0846688
0.0848998
0.0868225
0.0881029
0.0910045
0.0934449
0.0973726
0.101381
0.106252
0.110814
0.1162
0.120592
0.125646
0.128541
0.131701
0.131086
0.130705
0.124212
0.0853929
0.0871814
0.085577
0.0859617
0.0852613
0.0862911
0.0864682
0.0881395
0.0893774
0.0920026
0.0942935
0.0979376
0.101365
0.105664
0.109404
0.113678
0.116915
0.120072
0.121478
0.121826
0.119156
0.113692
0.102189
0.0877023
0.0894349
0.0877784
0.0879841
0.0871993
0.0879888
0.088082
0.0894864
0.0905931
0.0928574
0.0948745
0.0979906
0.100785
0.104285
0.107217
0.110225
0.112364
0.113722
0.113676
0.111653
0.10741
0.0999729
0.0904907
0.0902369
0.0919003
0.0901942
0.0901977
0.0893144
0.0898223
0.0898146
0.0908762
0.0918097
0.0935983
0.0952995
0.0977362
0.0999737
0.102495
0.104665
0.106352
0.107397
0.107173
0.105747
0.102241
0.0970623
0.0898056
0.0813221
0.0930317
0.0945847
0.0928524
0.0926008
0.0916333
0.0917897
0.0916868
0.0923219
0.0930681
0.0943127
0.0956688
0.0973929
0.0990543
0.100597
0.101938
0.10246
0.102371
0.100922
0.098336
0.0940822
0.0884775
0.081449
0.0734408
0.096123
0.0975007
0.0957789
0.0952023
0.0941714
0.0939021
0.0936912
0.0938604
0.0943593
0.0950569
0.0959926
0.0970129
0.0980324
0.0986713
0.099101
0.0986474
0.0974842
0.0951429
0.0917324
0.0870764
0.0813027
0.074462
0.0668232
0.0995504
0.100668
0.0990009
0.0980293
0.0969319
0.0962027
0.0958106
0.0955301
0.0956829
0.0958507
0.0962852
0.0966155
0.0969345
0.0967582
0.0962646
0.0949862
0.0929274
0.089936
0.0860088
0.0811266
0.0753557
0.0687706
0.061519
0.10336
0.104113
0.102541
0.101134
0.0999116
0.0987384
0.0980483
0.0973511
0.097058
0.096702
0.096578
0.0962305
0.0958243
0.0949117
0.0935814
0.0915969
0.088875
0.085416
0.0811971
0.0762399
0.0706016
0.0643425
0.057506
0.107605
0.107882
0.10641
0.104577
0.103126
0.101537
0.100431
0.099335
0.0985235
0.0976218
0.0969154
0.0959119
0.0947968
0.0932186
0.0911951
0.0886327
0.0854536
0.0816887
0.0773416
0.0724413
0.0670335
0.0611559
0.0547739
0.112336
0.112057
0.110619
0.108396
0.106614
0.10462
0.103005
0.101489
0.100124
0.0986458
0.0973501
0.0957378
0.0939649
0.0917918
0.0892348
0.086234
0.0827551
0.0788267
0.074477
0.0697355
0.0646307
0.059177
0.0532908
0.117605
0.116744
0.115194
0.112635
0.110428
0.108009
0.105826
0.103829
0.101902
0.0998404
0.0979521
0.0957871
0.0934386
0.0907616
0.0878035
0.0844994
0.0808454
0.0768698
0.0726135
0.0681032
0.0633514
0.0583494
0.0529852
0.123471
0.12204
0.120223
0.117339
0.114629
0.11173
0.108946
0.106397
0.103903
0.10128
0.0988082
0.0961438
0.0933228
0.0902427
0.0869834
0.0834883
0.079763
0.0758315
0.0717371
0.0675036
0.0631309
0.0585905
0.0537504
0.130011
0.128064
0.125821
0.122566
0.119281
0.115826
0.112417
0.109263
0.10619
0.103033
0.100012
0.0969037
0.0937018
0.0903157
0.0868367
0.0832365
0.0795204
0.0756994
0.0718088
0.0678702
0.0638771
0.0597889
0.0554604
0.137345
0.134952
0.132131
0.128386
0.124452
0.12035
0.116292
0.112505
0.10884
0.105175
0.101658
0.0981545
0.0946391
0.0910262
0.0873995
0.0837563
0.0801035
0.0764349
0.07277
0.0691214
0.0654802
0.0618027
0.0579551
0.145648
0.142865
0.139322
0.134903
0.130213
0.125367
0.120626
0.116189
0.111935
0.107789
0.103832
0.0999769
0.0961922
0.0924058
0.0886783
0.0850233
0.0814494
0.0779427
0.074505
0.0711368
0.0678192
0.0644962
0.0610145
0.155183
0.151993
0.147594
0.142266
0.13665
0.130957
0.12548
0.120371
0.115534
0.110932
0.106594
0.10245
0.0984614
0.0945638
0.0907921
0.0871608
0.0836799
0.0803332
0.077111
0.0740041
0.0709926
0.0680288
0.0649814
0.166333
0.162587
0.157136
0.150627
0.143921
0.137264
0.130947
0.125084
0.119589
0.114446
0.109667
0.105193
0.100973
0.096944
0.093111
0.0894757
0.0860406
0.0827869
0.0796967
0.0767506
0.0739205
0.0711571
0.0683451
0.179707
0.175029
0.168049
0.160087
0.152215
0.14467
0.137609
0.131093
0.125033
0.119409
0.114229
0.10945
0.105019
0.100872
0.0969938
0.0933709
0.0899941
0.0868425
0.0838955
0.0811309
0.0785151
0.0759981
0.0734682
0.196277
0.190003
0.180483
0.170091
0.160318
0.151347
0.14319
0.135815
0.129098
0.122966
0.117388
0.112308
0.107663
0.103383
0.0994317
0.0957833
0.0924178
0.0893104
0.0864391
0.0837812
0.0813032
0.0789574
0.0766502
0.217106
0.20869
0.19682
0.184417
0.172918
0.16252
0.153167
0.14478
0.137223
0.130402
0.12426
0.118737
0.113754
0.109229
0.105108
0.101353
0.0979294
0.0948027
0.0919404
0.0893144
0.0868864
0.0846099
0.0823984
0.243527
0.227113
0.209246
0.193404
0.179727
0.167879
0.157518
0.148379
0.140264
0.133018
0.126543
0.120762
0.115586
0.110927
0.106726
0.102944
0.0995467
0.0964924
0.0937353
0.0912361
0.0889552
0.0868546
0.08487
0.289597
0.262302
0.236587
0.215505
0.198258
0.183672
0.171049
0.160065
0.150483
0.142089
0.134714
0.128235
0.122533
0.117492
0.113012
0.109027
0.10548
0.102316
0.0994711
0.096893
0.0945329
0.0923555
0.0903154
0.324481
0.276423
0.243168
0.220795
0.202732
0.187119
0.173575
0.161827
0.151681
0.14291
0.135296
0.128685
0.122946
0.117944
0.113545
0.109646
0.106175
0.103086
0.100332
0.0978641
0.0956326
0.0935997
0.0917332
0.482601
0.329052
0.278125
0.247529
0.222139
0.201071
0.183719
0.169461
0.157799
0.148204
0.140154
0.133255
0.127261
0.122023
0.117418
0.113344
0.109716
0.106475
0.103574
0.100976
0.0986397
0.0965255
0.0945986
0.0861955
0.0655708
0.0448187
0.0253582
0.0050773
-0.0149633
-0.0340285
-0.0512447
0.0794259
0.0603186
0.0385778
0.0201973
0.00325969
-0.0131126
-0.0288139
-0.0427069
0.0723113
0.056169
0.0358313
0.0189103
0.00520405
-0.00782134
-0.021225
-0.0335725
0.0653348
0.0515908
0.0333916
0.0177686
0.00617385
-0.00424238
-0.0149617
-0.0250909
0.0591456
0.0473604
0.0319204
0.0184977
0.00882081
0.000385178
-0.0082801
-0.0163959
0.0540977
0.0436641
0.0311243
0.020181
0.0121078
0.00515184
-0.00170962
-0.00824222
0.0503541
0.0410976
0.0311815
0.0226559
0.0160753
0.0103223
0.00475632
-0.000497292
0.0479748
0.0398274
0.0321105
0.0256727
0.0204317
0.0156723
0.0111236
0.0069248
0.0469297
0.0398228
0.0338833
0.0291437
0.0250723
0.021181
0.0174615
0.0140938
0.0471252
0.0409659
0.0364148
0.0329986
0.0299056
0.0267674
0.023726
0.0210038
0.0484168
0.043086
0.0395828
0.0371608
0.0348577
0.0323552
0.0298654
0.0276408
0.0506579
0.0460302
0.0432782
0.0415633
0.0398715
0.0378894
0.0358463
0.0340057
0.0536985
0.0496887
0.0474469
0.0461932
0.0449503
0.0433893
0.0417038
0.0401414
0.0571222
0.0535528
0.0516896
0.0507723
0.049859
0.0486215
0.0472266
0.0459004
0.061605
0.0584424
0.0566871
0.0558316
0.0550791
0.0540568
0.0528378
0.0516022
0.0652673
0.062458
0.0609171
0.0601783
0.0595239
0.0586123
0.0575144
0.0564139
0.0707106
0.0680815
0.0664267
0.0655208
0.0648486
0.0640732
0.0631335
0.0620753
0.0741952
0.0718636
0.0703005
0.0693306
0.068525
0.0676311
0.0666416
0.0656354
0.0800744
0.07779
0.0760627
0.0748774
0.073994
0.0731452
0.0721968
0.0711083
0.0828531
0.0808384
0.0791424
0.0777774
0.0766137
0.075518
0.0744394
0.0733672
0.0882803
0.0862432
0.0844352
0.0829138
0.0816202
0.0804305
0.0792494
0.0780117
0.0899288
0.0881084
0.0863572
0.0847141
0.0831862
0.0817476
0.0803786
0.0790549
0.0927393
0.0908636
0.0890399
0.0872997
0.0856606
0.084112
0.0826397
0.081217
-0.531546
-0.54141
-0.556224
-0.576262
-0.601616
-0.629786
-0.654916
-0.671311
-0.52694
-0.535934
-0.549167
-0.566114
-0.586003
-0.607901
-0.627977
-0.639766
-0.522567
-0.529924
-0.540653
-0.553964
-0.56841
-0.580936
-0.587757
-0.584447
-0.519416
-0.523646
-0.529708
-0.535927
-0.540712
-0.541575
-0.535877
-0.521134
-0.517876
-0.516209
-0.514282
-0.510955
-0.505614
-0.49699
-0.48313
-0.461821
-0.515812
-0.50546
-0.494031
-0.481727
-0.468664
-0.453758
-0.43497
-0.410003
-0.509798
-0.489728
-0.469686
-0.450752
-0.432691
-0.413966
-0.392329
-0.365512
-0.496905
-0.468242
-0.442201
-0.419359
-0.398503
-0.377717
-0.354614
-0.327081
-0.475552
-0.441378
-0.41259
-0.388133
-0.366174
-0.344561
-0.321014
-0.293577
-0.446186
-0.410501
-0.381707
-0.357414
-0.335563
-0.314068
-0.290826
-0.264095
-0.410888
-0.377059
-0.350316
-0.327379
-0.306567
-0.285876
-0.263497
-0.237931
-0.37169
-0.342485
-0.318912
-0.29826
-0.279086
-0.259714
-0.238637
-0.2146
-0.331439
-0.30752
-0.288015
-0.270199
-0.253054
-0.235431
-0.215959
-0.193762
-0.289085
-0.272567
-0.257877
-0.243369
-0.228622
-0.212838
-0.19518
-0.17492
-0.24633
-0.239729
-0.228757
-0.21834
-0.20535
-0.191473
-0.17565
-0.157639
-0.410177
-0.438587
-0.465448
-0.487874
-0.504277
-0.514791
-0.520976
-0.525512
-0.413586
-0.442058
-0.468281
-0.489402
-0.504152
-0.513026
-0.517906
-0.521563
-0.417464
-0.447514
-0.474533
-0.495423
-0.508757
-0.515295
-0.517501
-0.518806
-0.42349
-0.456316
-0.485091
-0.506184
-0.517997
-0.52158
-0.520187
-0.51823
-0.431807
-0.468478
-0.499764
-0.521414
-0.531646
-0.531933
-0.526445
-0.520896
-0.441568
-0.48337
-0.517932
-0.540409
-0.549013
-0.545586
-0.536041
-0.525548
-0.452144
-0.499894
-0.538279
-0.561649
-0.56824
-0.560922
-0.546214
-0.528627
-0.462599
-0.515809
-0.558289
-0.582164
-0.586135
-0.57397
-0.552279