/*--------------------------------*- C++ -*----------------------------------*\
| =========                 |                                                 |
| \\      /  F ield         | OpenFOAM: The Open Source CFD Toolbox           |
|  \\    /   O peration     | Version:  2312                                  |
|   \\  /    A nd           | Website:  www.openfoam.com                      |
|    \\/     M anipulation  |                                                 |
\*---------------------------------------------------------------------------*/
FoamFile
{
    version     2.0;
    format      ascii;
    arch        "LSB;label=32;scalar=64";
    class       volVectorField;
    location    "61";
    object      U;
}
// * * * * * * * * * * * * * * * * * * * * * * * * * * * * * * * * * * * * * //

dimensions      [0 1 -1 0 0 0 0];

internalField   nonuniform List<vector> 
5478
(
(-0.0280778 0.014168 -6.43786e-20)
(-0.0603817 0.0243767 0)
(-0.0665231 0.0255185 9.71551e-20)
(-0.030847 0.0262485 -1.68976e-19)
(0.0587795 0.0288654 1.08211e-19)
(0.206201 0.035584 -3.35047e-20)
(0.398855 0.0488324 -5.37146e-20)
(0.613176 0.0675137 0)
(0.82566 0.0902701 0)
(1.01215 0.110103 6.67733e-20)
(1.16905 0.123609 -2.97535e-20)
(1.27021 0.134228 -5.20466e-20)
(1.3361 0.113989 -2.13826e-20)
(1.35161 0.120215 0)
(1.32576 0.0570932 6.39334e-20)
(-0.0394387 0.0214958 1.29132e-19)
(-0.0624168 0.0312812 0)
(-0.0326491 0.0283959 0)
(0.0662853 0.0273017 -8.49032e-20)
(0.241907 0.0354415 1.1144e-19)
(0.472944 0.0553813 3.11479e-20)
(0.718373 0.0834824 -5.23134e-20)
(0.941437 0.113629 4.63798e-20)
(1.1162 0.138727 1.13415e-19)
(1.23672 0.153234 -9.9112e-20)
(1.29727 0.158348 1.5764e-21)
(1.31543 0.145522 0)
(1.30435 0.133204 2.13456e-20)
(1.27475 0.109994 0)
(1.26775 0.0879476 0)
(-0.0451272 0.0228692 -2.73236e-22)
(-0.0454257 0.0304465 -6.03637e-20)
(0.043181 0.0290026 3.28425e-22)
(0.233946 0.038424 0)
(0.500378 0.0660716 -3.78536e-20)
(0.777102 0.104266 3.19285e-20)
(1.00915 0.141301 2.66836e-20)
(1.1693 0.168094 0)
(1.2578 0.179952 -3.79681e-20)
(1.28688 0.179716 3.20395e-20)
(1.2836 0.166367 2.70644e-20)
(1.26978 0.15521 0)
(1.25869 0.135483 0)
(1.26176 0.128625 -5.91198e-20)
(1.26437 0.107386 5.28187e-20)
(-0.0432234 0.0187376 -7.04995e-20)
(-0.00129655 0.0214167 5.96569e-20)
(0.175956 0.0309315 -5.15337e-20)
(0.469696 0.0671953 4.54445e-20)
(0.78345 0.11898 7.61446e-20)
(1.03268 0.165562 -6.37937e-20)
(1.18716 0.194971 -2.6663e-20)
(1.25821 0.205011 2.07425e-20)
(1.2748 0.201852 -1.99055e-20)
(1.27042 0.189957 0)
(1.26455 0.180281 0)
(1.26161 0.166042 -3.91236e-20)
(1.26075 0.156557 5.10899e-20)
(1.25024 0.142788 -2.87278e-20)
(1.23494 0.124369 0)
(-0.0312575 0.0115437 3.57088e-20)
(0.0820929 0.0118391 2.99873e-20)
(0.374323 0.050841 -1.08175e-19)
(0.731752 0.120414 1.45907e-21)
(1.01532 0.182618 -9.96054e-22)
(1.18157 0.219221 -1.10119e-21)
(1.25254 0.231035 2.56921e-20)
(1.27008 0.228021 2.15756e-20)
(1.26904 0.218085 1.55061e-20)
(1.26385 0.208366 -2.48227e-21)
(1.25584 0.195345 -3.5122e-20)
(1.24488 0.183586 0)
(1.22987 0.169814 1.59889e-20)
(1.21858 0.155232 -1.19582e-20)
(1.21427 0.143483 2.1149e-20)
(-0.00534858 0.00389089 -7.74815e-20)
(0.215082 0.0158158 8.37712e-20)
(0.608593 0.100048 -2.90315e-20)
(0.952322 0.187361 2.18133e-20)
(1.15584 0.239577 -4.04072e-20)
(1.244 0.258453 -3.0113e-20)
(1.26895 0.258148 9.54357e-22)
(1.26864 0.249432 0)
(1.25907 0.23843 3.13176e-20)
(1.24587 0.224686 -2.78501e-20)
(1.23308 0.211956 1.1068e-20)
(1.22264 0.198148 0)
(1.2167 0.185808 6.50184e-21)
(1.21117 0.172843 -1.17346e-20)
(1.20117 0.161966 0)
(0.0407805 -0.000695723 -9.66415e-21)
(0.392312 0.0484204 9.86853e-22)
(0.821341 0.169623 1.3913e-20)
(1.09943 0.252625 2.4011e-20)
(1.22647 0.287103 -1.84671e-20)
(1.26539 0.292358 3.09557e-20)
(1.26585 0.284479 -7.0282e-21)
(1.25318 0.271973 0)
(1.23885 0.257357 -1.82303e-20)
(1.22706 0.24364 1.38384e-21)
(1.2172 0.229413 1.48607e-20)
(1.20774 0.216055 0)
(1.19632 0.202531 -9.35067e-21)
(1.18484 0.188076 0)
(1.17672 0.178698 5.42839e-21)
(0.110216 0.00538959 -1.09371e-20)
(0.579344 0.113263 0)
(0.980704 0.24649 1.51805e-20)
(1.18478 0.313585 0)
(1.25421 0.330899 0)
(1.26139 0.324782 0)
(1.2485 0.310811 -5.93992e-21)
(1.23312 0.294784 0)
(1.21928 0.279012 3.67526e-21)
(1.20613 0.262866 0)
(1.19368 0.247514 -4.57293e-21)
(1.18282 0.232247 0)
(1.17539 0.217648 2.84514e-21)
(1.17027 0.20452 0)
(1.16307 0.194697 1.74925e-21)
(-0.00528553 -0.061003 -1.01187e-20)
(-0.0313076 -0.0594464 0)
(-0.0721023 -0.0276776 1.58912e-20)
(-0.114846 0.00539676 0)
(-0.156959 0.0400737 0)
(-0.197728 0.0812613 0)
(-0.236035 0.130617 -9.89757e-21)
(-0.27029 0.188301 0)
(-0.298354 0.253217 7.88336e-21)
(-0.317954 0.322703 0)
(-0.32697 0.39235 -1.257e-20)
(-0.323196 0.456513 0)
(-0.304681 0.508407 1.01756e-20)
(-0.270661 0.539501 0)
(-0.216032 0.544152 8.5539e-21)
(-0.00157711 -0.0394156 4.92962e-20)
(-0.0259081 -0.0210228 -3.43326e-20)
(-0.0641446 0.0182514 1.38814e-20)
(-0.104083 0.0542375 5.31115e-20)
(-0.142311 0.0884383 1.64683e-23)
(-0.177276 0.126716 -4.21768e-20)
(-0.207398 0.170962 2.85598e-20)
(-0.23075 0.220607 0)
(-0.244996 0.274039 2.16198e-20)
(-0.247649 0.328551 1.08356e-22)
(-0.235896 0.38034 -1.08923e-20)
(-0.207619 0.424114 0)
(-0.161991 0.453463 -2.88976e-20)
(-0.0978151 0.465453 0)
(-0.00812668 0.449612 -4.39617e-20)
(0.000667537 -0.0230679 7.42887e-20)
(-0.0206015 0.00745883 1.61929e-20)
(-0.0520881 0.0536274 -2.97017e-20)
(-0.0835187 0.0928572 -7.63377e-20)
(-0.111388 0.126042 4.43565e-20)
(-0.133465 0.159749 3.8544e-20)
(-0.147683 0.196851 -6.6787e-20)
(-0.152041 0.236941 0)
(-0.14446 0.278189 -5.26859e-20)
(-0.12236 0.317796 4.68433e-20)
(-0.0846038 0.351784 2.00921e-20)
(-0.0291035 0.378703 0)
(0.0499723 0.387943 1.87122e-20)
(0.12768 0.383506 -3.30798e-20)
(0.261386 0.348223 0)
(0.00203878 -0.0139466 3.48459e-20)
(-0.0164465 0.022019 -9.47175e-20)
(-0.0405325 0.0727351 1.09445e-19)
(-0.0613947 0.115269 -9.45534e-20)
(-0.0758668 0.147666 -4.03643e-20)
(-0.0819431 0.175912 3.493e-20)
(-0.0775245 0.204285 3.26237e-20)
(-0.0606305 0.233498 2.62324e-20)
(-0.0297715 0.261694 -7.07051e-20)
(0.0141782 0.287502 -1.64423e-22)
(0.0834205 0.305619 1.78912e-20)
(0.144218 0.318402 0)
(0.266833 0.310086 3.15168e-20)
(0.329767 0.299377 9.88709e-20)
(0.499423 0.248783 -5.8741e-20)
(0.0027524 -0.0102994 -6.61047e-22)
(-0.0148242 0.0239848 5.94246e-20)
(-0.0344153 0.0735538 -5.16564e-20)
(-0.0466131 0.11659 4.65812e-20)
(-0.0485285 0.1478 7.87537e-20)
(-0.0390006 0.170919 -6.78602e-20)
(-0.0170073 0.190305 -2.82472e-20)
(0.0179835 0.20762 -7.61056e-20)
(0.0695483 0.223558 6.72039e-20)
(0.125391 0.234096 0)
(0.224464 0.241263 0)
(0.278416 0.242765 6.58943e-20)
(0.447239 0.225219 -1.52804e-19)
(0.488892 0.212476 5.58173e-20)
(0.711534 0.160757 0)
(0.00163419 -0.0083406 8.22534e-23)
(-0.0179427 0.0191143 -5.90473e-20)
(-0.0374041 0.0600439 1.53118e-19)
(-0.0453646 0.09701 -4.43031e-20)
(-0.0388046 0.123233 -3.84181e-20)
(-0.0176325 0.140212 3.29555e-20)
(0.0181819 0.151362 2.82633e-20)
(0.0687176 0.158871 4.63357e-20)
(0.137684 0.165861 -8.08161e-20)
(0.218691 0.166466 3.5022e-20)
(0.338836 0.169059 3.15195e-20)
(0.431178 0.160456 0)
(0.633815 0.149175 0)
(0.702482 0.12727 1.11411e-19)
(0.977665 0.0912622 -9.94361e-20)
(-0.00356001 -0.00417807 -5.09424e-22)
(-0.0284073 0.0149334 0)
(-0.0507592 0.0414911 0)
(-0.0576051 0.0657734 8.38104e-20)
(-0.0447049 0.0823728 -3.7922e-20)
(-0.0106575 0.0920069 3.06056e-20)
(0.0470014 0.0971961 5.14472e-20)
(0.130937 0.100911 -4.56193e-20)
(0.243301 0.102566 3.9718e-20)
(0.38267 0.107371 -3.50597e-20)
(0.539052 0.105718 -9.59733e-22)
(0.712642 0.105454 0)
(0.900559 0.0999903 2.56697e-20)
(1.04043 0.0810007 0)
(1.25967 0.0665793 0)
(-0.0143582 0.00404156 -6.41741e-20)
(-0.0455121 0.0167668 0)
(-0.0671174 0.0282531 -9.67972e-20)
(-0.0650166 0.0382712 1.68034e-19)
(-0.0310311 0.0453165 -1.79516e-19)
(0.0419443 0.0500606 -2.82353e-20)
(0.156668 0.0546076 5.29193e-20)
(0.307975 0.0621695 0)
(0.48918 0.069849 0)
(0.67907 0.0864774 -6.79342e-20)
(0.869323 0.0888048 -3.11645e-20)
(1.05122 0.107779 5.4338e-20)
(1.18898 0.0944433 -2.57111e-20)
(1.31798 0.0940983 0)
(1.38409 0.0718752 -7.98948e-20)
(-0.153926 0.516378 0)
(-0.0422098 0.417655 6.60797e-21)
(0.0736669 0.267415 -6.30293e-21)
(0.207094 0.0482895 0)
(0.333813 -0.212468 -1.94892e-22)
(0.460159 -0.480958 0)
(0.550636 -0.698334 2.34109e-22)
(0.591651 -0.772528 0)
(0.652678 -0.707029 -1.10113e-22)
(0.630081 -0.700519 1.649e-21)
(0.502537 -0.733724 -1.5737e-21)
(0.472607 -0.517783 -1.17595e-22)
(0.570239 -0.0915764 0)
(0.68758 0.270117 2.15284e-22)
(0.755337 0.480777 1.47999e-22)
(0.804934 0.559767 0)
(0.836833 0.53037 0)
(0.754961 0.516271 0)
(0.588596 0.530123 -8.063e-23)
(0.517316 0.413432 0)
(0.594202 0.124425 0)
(0.742881 -0.133648 -8.81737e-23)
(0.850604 -0.284035 2.23248e-22)
(0.827826 -0.402875 9.56455e-23)
(0.742589 -0.493121 0)
(0.73095 -0.41795 0)
(0.799166 -0.187309 0)
(0.854363 0.131308 0)
(0.844995 0.41269 -1.27787e-22)
(0.829531 0.505628 -9.37452e-23)
(0.780654 0.318648 7.98459e-23)
(0.731362 -0.0137632 5.11677e-23)
(0.696626 -0.298881 -5.16013e-23)
(0.695507 -0.396957 0)
(0.689367 -0.220448 -5.9665e-24)
(0.740954 -0.0743233 5.71565e-24)
(0.758193 0.20905 -9.97943e-25)
(0.751279 0.20833 9.54324e-25)
(0.0860303 0.412516 -2.71501e-21)
(0.209628 0.30262 2.72292e-20)
(0.336267 0.148265 0)
(0.457254 -0.0564162 4.49671e-22)
(0.567828 -0.310211 -2.1976e-22)
(0.675847 -0.559539 0)
(0.746118 -0.736318 -2.3581e-22)
(0.717266 -0.804043 8.73057e-21)
(0.692633 -0.72281 -8.53332e-21)
(0.661383 -0.645753 1.66069e-22)
(0.52541 -0.663261 0)
(0.426832 -0.52617 1.184e-22)
(0.476132 -0.162266 0)
(0.577327 0.193843 -3.86877e-22)
(0.663024 0.42892 -1.48964e-22)
(0.764651 0.527374 -1.61104e-22)
(0.822937 0.530871 2.2422e-21)
(0.72812 0.565116 -2.14065e-21)
(0.582025 0.584079 -3.33043e-21)
(0.55198 0.417636 3.51885e-21)
(0.636211 0.0834671 2.57031e-22)
(0.766394 -0.185981 -1.32069e-21)
(0.866776 -0.305347 1.38005e-21)
(0.847882 -0.389262 8.61455e-22)
(0.772677 -0.478485 -1.35025e-21)
(0.75558 -0.428655 6.00883e-22)
(0.80145 -0.208784 1.05967e-22)
(0.843629 0.119557 0)
(0.83547 0.413149 3.64919e-22)
(0.816789 0.515363 9.40178e-23)
(0.771891 0.333824 -8.00485e-23)
(0.730564 -0.00103734 -5.39525e-22)
(0.704663 -0.294692 5.09255e-22)
(0.71225 -0.398473 -3.60025e-23)
(0.707722 -0.226182 -3.87404e-23)
(0.754293 -0.0800498 -3.90419e-23)
(0.755615 0.208883 -2.36738e-23)
(0.747884 0.208453 2.39606e-24)
(0.34784 0.304427 5.62727e-20)
(0.465582 0.200594 -5.41692e-20)
(0.581013 0.0624238 0)
(0.684284 -0.110853 5.82652e-20)
(0.789573 -0.35173 -5.47321e-20)
(0.874624 -0.600288 6.83756e-22)
(0.916928 -0.734335 0)
(0.857654 -0.763341 3.34788e-22)
(0.758128 -0.697273 0)
(0.700739 -0.59526 -3.16518e-22)
(0.570604 -0.582167 -9.1376e-21)
(0.414329 -0.508604 8.71758e-21)
(0.397037 -0.224137 1.06718e-20)
(0.481936 0.108499 -1.81023e-20)
(0.603068 0.347388 7.58269e-21)
(0.736977 0.474755 1.63365e-22)
(0.796774 0.553857 0)
(0.723085 0.640901 -3.1834e-21)
(0.624936 0.639617 2.43774e-21)
(0.623235 0.426282 -2.64577e-22)
(0.700274 0.0577229 3.59784e-22)
(0.806477 -0.225399 2.82744e-21)
(0.897291 -0.316856 -2.66886e-21)
(0.873263 -0.367401 -1.5544e-21)
(0.79841 -0.461594 1.66399e-21)
(0.783708 -0.439033 0)
(0.814717 -0.227021 -1.06863e-22)
(0.840469 0.114165 -1.91978e-22)
(0.829497 0.415031 6.58449e-22)
(0.807121 0.521245 -4.15868e-22)
(0.768591 0.346894 -9.11296e-22)
(0.736021 0.0113351 2.05329e-22)
(0.716378 -0.291265 6.16096e-22)
(0.729052 -0.401846 -2.23601e-22)
(0.727091 -0.232535 -6.14344e-23)
(0.768741 -0.08435 7.20499e-23)
(0.75386 0.210091 3.04936e-24)
(0.745519 0.208721 2.27281e-24)
(0.569974 0.206651 3.72453e-22)
(0.676013 0.11479 5.64531e-20)
(0.783781 -0.00596864 -1.12299e-19)
(0.875074 -0.154709 5.48787e-20)
(0.985166 -0.36679 7.75382e-22)
(1.0559 -0.601245 -7.01779e-22)
(1.04453 -0.717071 0)
(0.96268 -0.704542 0)
(0.821425 -0.646024 0)
(0.741131 -0.548494 -7.77717e-21)
(0.644345 -0.500012 7.38254e-21)
(0.459718 -0.462275 1.48004e-22)
(0.366378 -0.272916 -4.44242e-22)
(0.41515 0.00697286 2.45463e-22)
(0.551098 0.24709 2.4786e-22)
(0.714476 0.41751 0)
(0.803325 0.534922 4.49389e-21)
(0.744633 0.650886 -4.1293e-21)
(0.664095 0.668801 4.63008e-22)
(0.691719 0.444963 0)
(0.77151 0.057126 -6.31349e-22)
(0.854221 -0.252172 0)
(0.935447 -0.331358 -2.96371e-22)
(0.909454 -0.348064 2.27064e-22)
(0.823839 -0.44381 -1.74831e-22)
(0.808748 -0.449598 0)
(0.835785 -0.24936 0)
(0.848226 0.0968908 9.84633e-22)
(0.829801 0.412111 -1.45156e-21)
(0.800517 0.534587 -1.46251e-22)
(0.770228 0.365313 9.58463e-22)
(0.747498 0.0258952 1.15113e-21)
(0.732507 -0.286663 -2.03674e-21)
(0.745945 -0.405562 4.7848e-22)
(0.746493 -0.23924 1.47171e-22)
(0.783556 -0.087336 0)
(0.752652 0.212646 5.92389e-24)
(0.74419 0.209162 0)
(0.767681 0.12456 -3.86923e-22)
(0.861482 0.0483372 0)
(0.964741 -0.049844 8.65046e-22)
(1.05385 -0.192374 -8.63089e-22)
(1.16212 -0.378202 -1.50717e-21)
(1.21915 -0.552759 5.88012e-22)
(1.14757 -0.64069 2.51265e-20)
(1.03128 -0.618454 -4.12688e-20)
(0.885545 -0.573378 1.59117e-20)
(0.771097 -0.512527 0)
(0.71293 -0.43828 3.33922e-22)
(0.561914 -0.392688 -1.52928e-22)
(0.408789 -0.284833 -3.3009e-21)
(0.406591 -0.0806389 3.37236e-21)
(0.532151 0.122389 -8.66351e-23)
(0.70798 0.311771 2.29104e-21)
(0.813548 0.512669 1.60365e-21)
(0.773409 0.694311 -1.02968e-20)
(0.739489 0.698353 6.21583e-21)
(0.786493 0.456328 -1.26111e-20)
(0.854302 0.0618083 -1.06077e-22)
(0.907606 -0.268378 2.798e-21)
(0.975123 -0.342948 7.05717e-21)
(0.953815 -0.323492 -9.11112e-22)
(0.854363 -0.418994 0)
(0.827113 -0.460239 0)
(0.857849 -0.27226 0)
(0.859475 0.0887465 0)
(0.831526 0.415211 -1.10066e-21)
(0.798389 0.539963 8.5376e-22)
(0.777322 0.376648 1.98052e-21)
(0.764046 0.0388938 -1.2757e-21)
(0.752809 -0.281389 1.41375e-21)
(0.763211 -0.409509 -8.0673e-22)
(0.765196 -0.246374 -3.59565e-23)
(0.798033 -0.0889886 1.30465e-23)
(0.751851 0.216441 6.02298e-24)
(0.744003 0.209662 0)
(1.01543 0.0556078 0)
(1.08697 -0.0107366 9.64156e-20)
(1.17023 -0.0907016 -9.14861e-20)
(1.25116 -0.207331 -9.27927e-20)
(1.31866 -0.364729 8.91038e-20)
(1.32488 -0.485694 -8.77019e-23)
(1.22401 -0.53988 4.60863e-22)
(1.08507 -0.529609 0)
(0.966831 -0.492018 -2.14373e-20)
(0.838963 -0.471004 2.06103e-20)
(0.766609 -0.410377 -1.56405e-22)
(0.678655 -0.328511 4.04097e-21)
(0.519049 -0.261313 -7.00694e-21)
(0.450708 -0.154354 1.7255e-21)
(0.549615 0.000355724 1.10295e-21)
(0.710904 0.206984 2.55359e-23)
(0.806836 0.444242 1.12796e-22)
(0.795405 0.653669 0)
(0.775542 0.71196 0)
(0.827665 0.512443 4.05017e-23)
(0.920937 0.113875 7.75403e-24)
(0.966343 -0.255276 -6.20664e-22)
(1.01426 -0.352556 3.83501e-22)
(1.00176 -0.301247 2.34012e-22)
(0.895279 -0.386218 -2.46866e-21)
(0.841625 -0.46586 2.3482e-21)
(0.874862 -0.300104 1.23265e-22)
(0.875339 0.0631485 0)
(0.839224 0.405462 -1.67771e-22)
(0.799236 0.553071 0)
(0.78732 0.397759 -2.15438e-21)
(0.784615 0.0568419 1.83694e-21)
(0.777001 -0.273524 0)
(0.781397 -0.412971 4.91595e-23)
(0.782875 -0.253786 -2.77408e-22)
(0.811687 -0.0897657 1.67879e-23)
(0.751202 0.221073 0)
(0.744919 0.210211 5.35339e-24)
(1.2748 0.0228085 -1.47222e-22)
(1.31441 -0.0302156 0)
(1.35532 -0.103609 -8.62867e-20)
(1.39825 -0.195191 8.20521e-20)
(1.41078 -0.307123 7.3608e-20)
(1.35182 -0.394953 -7.06009e-20)
(1.2425 -0.432539 0)
(1.11248 -0.448704 -3.36651e-20)
(1.01633 -0.426605 3.20275e-20)
(0.924178 -0.406596 0)
(0.82226 -0.389539 8.13879e-23)
(0.758819 -0.29856 9.59174e-23)
(0.657692 -0.202144 -1.00289e-23)
(0.546445 -0.162571 4.42243e-22)
(0.570544 -0.106367 -4.2352e-22)
(0.714089 0.0847188 -1.88754e-22)
(0.831355 0.385067 2.04767e-22)
(0.834952 0.655621 -1.00063e-20)
(0.828039 0.710448 9.50831e-21)
(0.906625 0.499837 1.01567e-21)
(0.999842 0.126921 1.22821e-20)
(1.02766 -0.246679 -1.93672e-20)
(1.04965 -0.366075 8.32392e-21)
(1.04234 -0.284963 -3.25042e-21)
(0.940149 -0.347207 9.67527e-22)
(0.859412 -0.467225 2.39985e-21)
(0.885589 -0.332862 7.20025e-22)
(0.888504 0.0475559 -8.40817e-22)
(0.845371 0.40743 1.71664e-22)
(0.804617 0.555435 -2.64594e-22)
(0.802113 0.403846 -2.0447e-21)
(0.808232 0.0696256 -8.78227e-22)
(0.803616 -0.265251 1.1555e-21)
(0.800626 -0.416351 1.58978e-22)
(0.799729 -0.261839 0)
(0.823941 -0.0892218 2.64165e-23)
(0.75034 0.226903 -4.495e-23)
(0.747034 0.21066 1.11549e-23)
(1.38343 0.0235255 7.52448e-20)
(1.39744 -0.00742248 0)
(1.40607 -0.0586436 7.36546e-20)
(1.4056 -0.130192 -1.40571e-19)
(1.38325 -0.204925 6.67703e-20)
(1.31634 -0.278794 0)
(1.23488 -0.328985 0)
(1.14995 -0.371388 0)
(1.05995 -0.392429 0)
(0.992972 -0.372136 0)
(0.899424 -0.367132 -8.69804e-23)
(0.809776 -0.322028 -3.28957e-21)
(0.761902 -0.199356 3.1009e-21)
(0.676909 -0.136735 3.45047e-24)
(0.621914 -0.156332 0)
(0.711119 -0.0574119 0)
(0.821252 0.239523 2.02527e-23)
(0.833642 0.567245 0)
(0.843716 0.712807 -1.536e-20)
(0.906594 0.58418 1.42367e-20)
(1.03024 0.230812 -1.09572e-20)
(1.08504 -0.180705 1.94275e-21)
(1.08929 -0.360054 7.92127e-21)
(1.07965 -0.276663 0)
(0.982144 -0.306817 -2.71769e-21)
(0.882744 -0.447963 3.9777e-21)
(0.89097 -0.365511 -1.49437e-21)
(0.899257 0.000617607 3.83346e-23)
(0.855854 0.386537 0)
(0.813113 0.565517 2.70942e-22)
(0.815158 0.429803 3.94424e-22)
(0.833845 0.0930074 2.16135e-21)
(0.832911 -0.251649 -1.25621e-21)
(0.820778 -0.415348 -1.60654e-22)
(0.816495 -0.268672 0)
(0.835124 -0.0893123 -2.32779e-23)
(0.74949 0.232466 0)
(0.750403 0.21096 -7.19495e-24)
(1.32855 0.0336074 0)
(1.34541 0.0010457 0)
(1.34614 -0.0389086 0)
(1.33444 -0.0869487 0)
(1.31163 -0.137882 0)
(1.27439 -0.194473 0)
(1.22216 -0.240034 0)
(1.1737 -0.270359 0)
(1.09938 -0.298799 0)
(1.03043 -0.294949 0)
(0.97721 -0.279588 0)
(0.875472 -0.2764 0)
(0.831775 -0.187495 0)
(0.803785 -0.0905177 0)
(0.699276 -0.138504 0)
(0.690939 -0.122965 0)
(0.807678 0.165348 0)
(0.856923 0.521785 0)
(0.875985 0.666605 0)
(0.954239 0.523012 0)
(1.10852 0.211464 0)
(1.14474 -0.148603 0)
(1.1189 -0.335771 0)
(1.10858 -0.250448 0)
(1.01942 -0.256664 0)
(0.910204 -0.42149 0)
(0.894426 -0.376157 0)
(0.902857 -0.0126734 0)
(0.865719 0.383598 0)
(0.822351 0.562435 0)
(0.834769 0.42437 0)
(0.864232 0.100521 0)
(0.864372 -0.23633 0)
(0.841267 -0.408113 0)
(0.832301 -0.271021 0)
(0.84383 -0.0844255 0)
(0.748089 0.239394 0)
(0.755039 0.210686 0)
(1.28862 0.0324612 0)
(1.30587 -0.0045212 0)
(1.30816 -0.0465285 0)
(1.2971 -0.0883685 0)
(1.27487 -0.136376 0)
(1.24483 -0.187254 0)
(1.20132 -0.227445 0)
(1.14789 -0.267342 0)
(1.08922 -0.283441 0)
(1.00807 -0.280785 0)
(0.951212 -0.269732 0)
(0.87489 -0.245845 0)
(0.818257 -0.169752 0)
(0.832785 -0.0711607 0)
(0.789963 -0.100667 0)
(0.718043 -0.11772 0)
(0.805763 0.131864 0)
(0.891933 0.488686 0)
(0.903163 0.633919 0)
(1.00121 0.485911 0)
(1.17024 0.178128 0)
(1.19936 -0.168719 0)
(1.15142 -0.34177 0)
(1.11816 -0.239718 0)
(1.02438 -0.237278 0)
(0.923624 -0.408388 0)
(0.910129 -0.368472 0)
(0.910599 0.000964883 0)
(0.871882 0.392591 0)
(0.832147 0.562723 0)
(0.85825 0.41947 0)
(0.899002 0.0923235 0)
(0.900652 -0.240777 0)
(0.863057 -0.408897 0)
(0.84721 -0.270158 0)
(0.851457 -0.0753829 0)
(0.74643 0.248055 0)
(0.760925 0.210158 0)
(1.25724 0.0276212 0)
(1.27409 -0.00123005 0)
(1.27512 -0.0370666 0)
(1.26227 -0.0742929 0)
(1.24468 -0.10951 0)
(1.21388 -0.149774 0)
(1.18214 -0.176666 0)
(1.13636 -0.20266 0)
(1.08657 -0.216008 0)
(1.02806 -0.211989 0)
(0.98 -0.201772 0)
(0.921531 -0.188728 0)
(0.853149 -0.148449 0)
(0.849178 -0.0638734 0)
(0.845195 -0.0770774 0)
(0.771359 -0.124843 0)
(0.796028 0.0912407 0)
(0.859538 0.474071 0)
(0.875224 0.616296 0)
(1.03282 0.422092 0)
(1.22718 0.138921 0)
(1.24278 -0.149487 0)
(1.17151 -0.318408 0)
(1.13711 -0.212149 0)
(1.05196 -0.19264 0)
(0.94406 -0.383626 0)
(0.923557 -0.371828 0)
(0.923113 -0.000996649 0)
(0.884578 0.401642 0)
(0.847833 0.563552 0)
(0.887021 0.410238 0)
(0.937964 0.091408 0)
(0.940884 -0.229758 0)
(0.887115 -0.400823 0)
(0.86191 -0.268751 0)
(0.857656 -0.0651917 0)
(0.74432 0.257998 0)
(0.768815 0.208852 0)
(1.22965 0.0263543 0)
(1.24171 0.00071176 0)
(1.24346 -0.030806 0)
(1.23051 -0.0622796 0)
(1.21518 -0.0910887 0)
(1.18792 -0.126066 0)
(1.15918 -0.147095 0)
(1.12122 -0.175311 0)
(1.07812 -0.189192 0)
(1.03033 -0.187464 0)
(0.983111 -0.188991 0)
(0.940698 -0.1665 0)
(0.886202 -0.128401 0)
(0.870634 -0.0629138 0)
(0.878418 -0.0593236 0)
(0.819211 -0.0975524 0)
(0.773515 0.0965691 0)
(0.78024 0.472018 0)
(0.866105 0.560395 0)
(1.09407 0.330121 0)
(1.27888 0.093105 0)
(1.27533 -0.142745 0)
(1.18362 -0.301098 0)
(1.13601 -0.193664 0)
(1.05837 -0.163247 0)
(0.958162 -0.362844 0)
(0.940201 -0.36618 0)
(0.935755 0.00734481 0)
(0.897084 0.41403 0)
(0.86555 0.564316 0)
(0.917993 0.398691 0)
(0.979763 0.0825895 0)
(0.985505 -0.227017 0)
(0.91354 -0.393656 0)
(0.876014 -0.264804 0)
(0.862075 -0.0518515 0)
(0.742052 0.268509 0)
(0.779673 0.206311 0)
(1.20246 0.0251437 0)
(1.21141 0.00266075 0)
(1.21395 -0.022795 0)
(1.20203 -0.0501023 0)
(1.1886 -0.0728223 0)
(1.1656 -0.101629 0)
(1.13978 -0.118536 0)
(1.11273 -0.138366 0)
(1.07414 -0.149856 0)
(1.03983 -0.143374 0)
(0.999355 -0.14569 0)
(0.959871 -0.124334 0)
(0.917505 -0.0968426 0)
(0.896813 -0.0538426 0)
(0.900346 -0.0400429 0)
(0.845191 -0.0616021 0)
(0.775512 0.108539 0)
(0.786768 0.432983 0)
(0.957125 0.456736 0)
(1.18144 0.22592 0)
(1.31146 0.0571787 0)
(1.28092 -0.113738 0)
(1.18226 -0.26544 0)
(1.13958 -0.165293 0)
(1.0794 -0.123702 0)
(0.975244 -0.336974 0)
(0.953759 -0.366951 0)
(0.953131 0.0123137 0)
(0.913391 0.427195 0)
(0.887596 0.560519 0)
(0.952556 0.380437 0)
(1.02398 0.0750291 0)
(1.03337 -0.213777 0)
(0.941702 -0.377576 0)
(0.888596 -0.256573 0)
(0.863176 -0.0358619 0)
(0.740111 0.278651 0)
(0.794551 0.202122 0)
(1.17783 0.0243249 0)
(1.18526 0.00587056 0)
(1.18706 -0.0148323 0)
(1.17777 -0.0371515 0)
(1.16493 -0.0557027 0)
(1.14755 -0.0783739 0)
(1.12436 -0.0920866 0)
(1.10416 -0.107089 0)
(1.07158 -0.118255 0)
(1.04296 -0.113365 0)
(1.01159 -0.118389 0)
(0.974453 -0.100161 0)
(0.94647 -0.0758344 0)
(0.923209 -0.0475998 0)
(0.923136 -0.0204231 0)
(0.878081 -0.0185289 0)
(0.815094 0.108973 0)
(0.876897 0.351609 0)
(1.0727 0.338027 0)
(1.22645 0.145243 0)
(1.30005 0.0420132 0)
(1.26524 -0.081979 0)
(1.16865 -0.233889 0)
(1.12682 -0.146035 0)
(1.08597 -0.0945193 0)
(0.990721 -0.310941 0)
(0.958187 -0.362238 0)
(0.969623 0.0139227 0)
(0.939995 0.432343 0)
(0.916017 0.551699 0)
(0.991209 0.358514 0)
(1.06817 0.0618652 0)
(1.08272 -0.203295 0)
(0.971012 -0.358147 0)
(0.899427 -0.244107 0)
(0.859257 -0.0158884 0)
(0.736401 0.288049 0)
(0.814199 0.195347 0)
(1.15655 0.0244874 0)
(1.16301 0.00950488 0)
(1.16394 -0.00739202 0)
(1.15679 -0.0251878 0)
(1.14539 -0.0404758 0)
(1.13162 -0.0578877 0)
(1.11255 -0.0694125 0)
(1.09559 -0.0808538 0)
(1.07108 -0.0898386 0)
(1.04594 -0.0865409 0)
(1.02422 -0.0889012 0)
(0.991265 -0.0744495 0)
(0.972009 -0.0535708 0)
(0.951502 -0.0347465 0)
(0.943917 -0.00387412 0)
(0.921494 0.0157208 0)
(0.879827 0.0946044 0)
(0.957393 0.254285 0)
(1.12526 0.241664 0)
(1.21197 0.097751 0)
(1.25216 0.0332053 0)
(1.2389 -0.052396 0)
(1.15153 -0.196493 0)
(1.11136 -0.125204 0)
(1.09908 -0.0617981 0)
(1.0125 -0.278165 0)
(0.959361 -0.359271 0)
(0.969193 0.0176224 0)
(0.945903 0.445612 0)
(0.942319 0.54217 0)
(1.04154 0.329771 0)
(1.11326 0.0467131 0)
(1.13008 -0.184857 0)
(1.00217 -0.326074 0)
(0.906512 -0.224735 0)
(0.852639 0.00638128 0)
(0.737383 0.293776 0)
(0.841908 0.18492 0)
(1.13851 0.0252377 0)
(1.14386 0.0132116 0)
(1.14449 -0.000487871 0)
(1.13876 -0.0145054 0)
(1.12977 -0.0267234 0)
(1.11811 -0.0401916 0)
(1.10385 -0.049242 0)
(1.08895 -0.0582573 0)
(1.07137 -0.0645509 0)
(1.05071 -0.062831 0)
(1.03418 -0.063708 0)
(1.00872 -0.0524728 0)
(0.99269 -0.0371975 0)
(0.978926 -0.0210998 0)
(0.967206 0.00548987 0)
(0.96186 0.0316213 0)
(0.946202 0.0771829 0)
(1.00059 0.17221 0)
(1.12369 0.16965 0)
(1.17777 0.0701417 0)
(1.19948 0.0253881 0)
(1.20896 -0.0300895 0)
(1.13627 -0.158779 0)
(1.08553 -0.113715 0)
(1.10299 -0.0459012 0)
(1.03204 -0.238463 0)
(0.945097 -0.342744 0)
(0.950984 0.0154367 0)
(0.953166 0.445412 0)
(0.998642 0.52017 0)
(1.11574 0.301997 0)
(1.15933 0.0341419 0)
(1.16639 -0.167329 0)
(1.03549 -0.286911 0)
(0.908945 -0.196458 0)
(0.833902 0.031793 0)
(0.741177 0.29456 0)
(0.877685 0.170039 0)
(1.12358 0.0263232 0)
(1.12787 0.0167236 0)
(1.12873 0.00600657 0)
(1.12415 -0.00486201 0)
(1.1174 -0.0144733 0)
(1.10765 -0.0247813 0)
(1.09694 -0.0319944 0)
(1.08494 -0.0388343 0)
(1.07163 -0.0435273 0)
(1.05647 -0.0425888 0)
(1.04242 -0.0431419 0)
(1.02525 -0.0340584 0)
(1.01201 -0.0235546 0)
(1.00241 -0.00914899 0)
(0.993757 0.011161 0)
(0.993655 0.0346518 0)
(0.99549 0.0622476 0)
(1.02642 0.113409 0)
(1.10797 0.115346 0)
(1.14736 0.0527138 0)
(1.15658 0.0151066 0)
(1.17507 -0.0199833 0)
(1.12779 -0.120868 0)
(1.06626 -0.101092 0)
(1.09431 -0.0385343 0)
(1.05149 -0.193717 0)
(0.925892 -0.307482 0)
(0.904383 0.00717079 0)
(0.949963 0.419368 0)
(1.04608 0.47782 0)
(1.17306 0.273591 0)
(1.19465 0.0308534 0)
(1.18496 -0.142805 0)
(1.06388 -0.237773 0)
(0.918163 -0.153252 0)
(0.805763 0.0621423 0)
(0.748782 0.284836 0)
(0.924113 0.147826 0)
(1.11156 0.0274175 0)
(1.11522 0.0199276 0)
(1.11631 0.0116356 0)
(1.11286 0.00328079 0)
(1.10759 -0.00436042 0)
(1.09998 -0.0120399 0)
(1.09182 -0.0178878 0)
(1.08293 -0.0228353 0)
(1.07266 -0.0265607 0)
(1.06215 -0.0260286 0)
(1.05098 -0.0264094 0)
(1.0394 -0.0194303 0)
(1.02984 -0.012505 0)
(1.02227 -0.000829463 0)
(1.01847 0.0137275 0)
(1.01896 0.0311223 0)
(1.02693 0.0482679 0)
(1.04617 0.0747559 0)
(1.09459 0.0749511 0)
(1.12499 0.0386017 0)
(1.12932 0.00829095 0)
(1.14324 -0.0157326 0)
(1.11742 -0.0865099 0)
(1.05645 -0.0851786 0)
(1.07573 -0.041364 0)
(1.05751 -0.149773 0)
(0.916661 -0.244903 0)
(0.835681 0.0106112 0)
(0.899504 0.371795 0)
(1.03973 0.410498 0)
(1.19072 0.238725 0)
(1.21557 0.0320329 0)
(1.19036 -0.117635 0)
(1.0746 -0.189184 0)
(0.940149 -0.100495 0)
(0.807933 0.091773 0)
(0.801557 0.256837 0)
(0.992052 0.11782 0)
(1.10259 0.0285784 0)
(1.10575 0.0228322 0)
(1.10677 0.0163728 0)
(1.10437 0.0100382 0)
(1.10042 0.00399234 0)
(1.09482 -0.00156323 0)
(1.08871 -0.00627691 0)
(1.0823 -0.00984252 0)
(1.07478 -0.0128595 0)
(1.06752 -0.0126965 0)
(1.05938 -0.0130492 0)
(1.05144 -0.00821898 0)
(1.04523 -0.00384192 0)
(1.0396 0.00490565 0)
(1.03847 0.0142333 0)
(1.03951 0.0262638 0)
(1.047 0.0361017 0)
(1.06029 0.0494508 0)
(1.08728 0.0475665 0)
(1.10816 0.027529 0)
(1.1118 0.00404111 0)
(1.1183 -0.0139293 0)
(1.10523 -0.060207 0)
(1.05698 -0.0657145 0)
(1.06021 -0.0409914 0)
(1.0503 -0.107514 0)
(0.92736 -0.165709 0)
(0.811125 0.0235105 0)
(0.876398 0.301041 0)
(1.03856 0.319106 0)
(1.19161 0.189997 0)
(1.21833 0.0325079 0)
(1.19225 -0.0837344 0)
(1.07751 -0.137681 0)
(0.973449 -0.0492797 0)
(0.869902 0.112499 0)
(0.919045 0.218102 0)
(1.07514 0.0888024 0)
(1.09634 0.0292605 0)
(1.09906 0.0248344 0)
(1.10014 0.0197969 0)
(1.09871 0.0150557 0)
(1.09595 0.0102954 0)
(1.09196 0.00621042 0)
(1.08754 0.00238999 0)
(1.08297 -0.000262799 0)
(1.07781 -0.00279238 0)
(1.07285 -0.00294959 0)
(1.0674 -0.00356718 0)
(1.0621 -0.000393322 0)
(1.05818 0.00191849 0)
(1.05443 0.00805564 0)
(1.05434 0.0132209 0)
(1.05544 0.021102 0)
(1.06097 0.0258798 0)
(1.06998 0.0324281 0)
(1.08485 0.0293968 0)
(1.09775 0.0182398 0)
(1.10073 0.00108491 0)
(1.10201 -0.0116271 0)
(1.09401 -0.0406925 0)
(1.06029 -0.0471816 0)
(1.05388 -0.0350374 0)
(1.04212 -0.070872 0)
(0.954948 -0.0918767 0)
(0.855897 0.0385091 0)
(0.922332 0.224058 0)
(1.06491 0.227956 0)
(1.18639 0.145471 0)
(1.20221 0.0332722 0)
(1.18388 -0.0510849 0)
(1.07913 -0.0906554 0)
(1.00545 -0.0142441 0)
(0.956018 0.112813 0)
(1.03969 0.175856 0)
(1.13991 0.0664473 0)
(1.0925 0.030048 0)
(1.09494 0.0267083 0)
(1.09615 0.0228403 0)
(1.09546 0.0193094 0)
(1.09367 0.0155638 0)
(1.09094 0.0125328 0)
(1.08796 0.0094231 0)
(1.08484 0.0074552 0)
(1.08153 0.00525423 0)
(1.07822 0.00497663 0)
(1.07487 0.00400461 0)
(1.07145 0.00599302 0)
(1.06917 0.00670692 0)
(1.06679 0.0107751 0)
(1.06706 0.0129978 0)
(1.06786 0.0179226 0)
(1.0716 0.0196273 0)
(1.07705 0.0228484 0)
(1.08491 0.0194752 0)
(1.09186 0.0134783 0)
(1.09428 0.00146041 0)
(1.09303 -0.00701623 0)
(1.08739 -0.024334 0)
(1.06452 -0.0296067 0)
(1.0559 -0.0228014 0)
(1.04199 -0.0383844 0)
(0.988693 -0.0361775 0)
(0.927046 0.0449694 0)
(0.986568 0.161645 0)
(1.08449 0.159428 0)
(1.16924 0.11351 0)
(1.17695 0.0352374 0)
(1.16954 -0.0204952 0)
(1.08743 -0.0478551 0)
(1.03822 0.00565216 0)
(1.02611 0.0980266 0)
(1.10766 0.139091 0)
(1.16786 0.0533553 0)
(1.09143 0.0290101 0)
(1.09367 0.0264759 0)
(1.09497 0.0234482 0)
(1.0948 0.0207568 0)
(1.0938 0.0177376 0)
(1.09205 0.0154226 0)
(1.09022 0.0127866 0)
(1.0882 0.0112303 0)
(1.08626 0.0091379 0)
(1.08415 0.00872535 0)
(1.08228 0.00735629 0)
(1.08009 0.00842864 0)
(1.07892 0.0079764 0)
(1.07742 0.0103853 0)
(1.07784 0.0106715 0)
(1.07829 0.0134972 0)
(1.08073 0.0132379 0)
(1.08372 0.0147139 0)
(1.0881 0.0113136 0)
(1.0913 0.00817775 0)
(1.09264 -5.52064e-05 0)
(1.08971 -0.00538607 0)
(1.08593 -0.0150002 0)
(1.0707 -0.0185481 0)
(1.06319 -0.0130064 0)
(1.04968 -0.0183068 0)
(1.02169 -0.00530627 0)
(0.988045 0.0403537 0)
(1.03288 0.113147 0)
(1.09139 0.10926 0)
(1.15107 0.0883678 0)
(1.15528 0.0340392 0)
(1.15575 -0.00164149 0)
(1.0996 -0.0184288 0)
(1.06936 0.0138143 0)
(1.0708 0.0781868 0)
(1.13273 0.108353 0)
(1.17293 0.0425771 0)
(1.0923 0.0302569 0)
(1.09426 0.0283654 0)
(1.09558 0.0260075 0)
(1.09576 0.0240207 0)
(1.09538 0.0216184 0)
(1.09434 0.0199244 0)
(1.09338 0.0177179 0)
(1.09213 0.0165696 0)
(1.0912 0.0146465 0)
(1.08995 0.0142741 0)
(1.08914 0.0127272 0)
(1.08783 0.0133228 0)
(1.08743 0.0122393 0)
(1.08647 0.0136904 0)
(1.08696 0.0129035 0)
(1.087 0.0146045 0)
(1.08855 0.0133435 0)
(1.08972 0.0142259 0)
(1.0921 0.0111327 0)
(1.09288 0.00960535 0)
(1.09401 0.00420386 0)
(1.09108 0.00123247 0)
(1.08895 -0.00321352 0)
(1.07857 -0.00572127 0)
(1.07392 7.04159e-05 0)
(1.06279 -0.00161432 0)
(1.05159 0.0144554 0)
(1.03382 0.0367809 0)
(1.06468 0.0839427 0)