/*--------------------------------*- C++ -*----------------------------------*\
| =========                 |                                                 |
| \\      /  F ield         | OpenFOAM: The Open Source CFD Toolbox           |
|  \\    /   O peration     | Version:  2512                                  |
|   \\  /    A nd           | Website:  www.openfoam.com                      |
|    \\/     M anipulation  |                                                 |
\*---------------------------------------------------------------------------*/
FoamFile
{
    version     2.0;
    format      ascii;
    arch        "LSB;label=32;scalar=64";
    class       surfaceScalarField;
    location    "192.95";
    object      phi;
}
// * * * * * * * * * * * * * * * * * * * * * * * * * * * * * * * * * * * * * //

dimensions      [0 3 -1 0 0 0 0];

oriented        oriented;

internalField   nonuniform List<scalar> 
26232
(
0.000105356
0.00107991
-0.00118527
0.000878655
0.00157217
-0.00234547
0.0026018
0.000361856
-0.002085
0.00556322
-0.0027062
-0.000255225
0.0101223
-0.00779593
0.00323683
0.0166546
-0.0150173
0.00848508
0.0253863
-0.0242908
0.015559
0.0361986
-0.0352217
0.0244095
0.0485311
-0.0470944
0.0347619
0.0614588
-0.0590091
0.0460814
0.0739077
-0.0700878
0.0576389
0.0849185
-0.07966
0.0686493
0.0938606
-0.0873696
0.0784275
0.100539
-0.0931929
0.0865142
0.105174
-0.0973726
0.0927381
0.108264
-0.100296
0.0972058
0.11041
-0.102365
0.100219
0.112146
-0.103907
0.102171
0.113871
-0.105128
0.103402
0.115811
-0.106166
0.104227
0.118077
-0.107002
0.104736
0.120705
-0.107812
0.105183
0.123255
-0.10815
0.1056
-0.108479
0.106195
0.125539
7.79786e-05
0.00100193
0.000920376
0.000729772
0.00299091
-0.00170868
0.00674802
-0.00646331
0.0126417
-0.0136896
0.0209432
-0.0233188
0.0315105
-0.0348581
0.0436765
-0.0473877
0.0563726
-0.0597905
0.0684238
-0.0710602
0.0788639
-0.0805279
0.0871498
-0.087946
0.0932231
-0.0934429
0.0974217
-0.0973915
0.100296
-0.100247
0.102417
-0.102416
0.104236
-0.104185
0.106047
-0.105718
0.108016
-0.107097
0.110208
-0.108358
0.112721
-0.109515
0.115558
-0.110649
0.119046
-0.111637
-0.113024
0.123591
0.000154961
0.00084697
0.00130294
-0.000418207
0.0040496
-0.00445534
0.00896082
-0.0113745
0.0164197
-0.0211485
0.0263431
-0.0332422
0.0380149
-0.0465299
0.050244
-0.0596168
0.0617561
-0.0713026
0.0715782
-0.0808824
0.079251
-0.0882006
0.0848321
-0.0935271
0.0887394
-0.0973503
0.0915281
-0.10018
0.0937022
-0.102421
0.0956209
-0.104335
0.0974967
-0.106061
0.0994475
-0.107669
0.101543
-0.109192
0.103852
-0.110666
0.106434
-0.112097
0.109335
-0.11355
0.112627
-0.114929
-0.116485
0.116088
0.00031499
0.00053198
0.00196503
-0.00206825
0.00564242
-0.00813273
0.0118955
-0.0176276
0.0208117
-0.0300646
0.0317324
-0.0441629
0.0433861
-0.0581836
0.0543868
-0.0706175
0.0637179
-0.0806337
0.0709553
-0.0881197
0.0762167
-0.093462
0.0799452
-0.0972556
0.0826655
-0.100071
0.0848171
-0.102332
0.0866975
-0.104302
0.0884851
-0.106123
0.0902902
-0.107866
0.0921894
-0.109568
0.0942503
-0.111253
0.0965232
-0.112939
0.0990589
-0.114633
0.101894
-0.116385
0.105078
-0.118113
-0.120097
0.10869
0.000529253
2.72747e-06
0.00281685
-0.00435584
0.00756626
-0.0128821
0.0151223
-0.0251836
0.0250334
-0.0399758
0.0360275
-0.0551571
0.0465855
-0.0687416
0.0555764
-0.0796084
0.0625354
-0.0875927
0.0675805
-0.0931649
0.0711514
-0.0970328
0.0737502
-0.0998544
0.0757886
-0.102109
0.0775469
-0.10409
0.0791993
-0.105954
0.0808539
-0.107777
0.0825808
-0.109593
0.084429
-0.111416
0.0864332
-0.113257
0.0886182
-0.115124
0.0910154
-0.11703
0.0936197
-0.11899
0.0964724
-0.120966
-0.123127
0.0995027
0.000777191
-0.000774463
0.0037861
-0.00736475
0.00961811
-0.0187142
0.0181851
-0.0337506
0.0283703
-0.050161
0.038529
-0.0653157
0.0473287
-0.0775413
0.054169
-0.0864487
0.0591082
-0.0925319
0.0625656
-0.0966223
0.0650388
-0.099506
0.0669405
-0.101756
0.0685537
-0.103722
0.0700504
-0.105587
0.071529
-0.107433
0.0730443
-0.109292
0.0746299
-0.111178
0.0763111
-0.113097
0.0781113
-0.115058
0.0800576
-0.117071
0.0821724
-0.119145
0.0844745
-0.121292
0.0870089
-0.1235
-0.125871
0.0897531
0.00105862
-0.00183309
0.00481302
-0.0111191
0.0115843
-0.0254854
0.0206508
-0.0428172
0.0303469
-0.0598571
0.0390616
-0.0740305
0.0459385
-0.0844182
0.0508958
-0.091406
0.0543066
-0.0959426
0.0566717
-0.0989875
0.0584237
-0.101258
0.0598606
-0.103193
0.0611592
-0.105021
0.0624136
-0.106841
0.0636733
-0.108692
0.0649687
-0.110588
0.0663248
-0.112534
0.0677653
-0.114538
0.0693137
-0.116606
0.0709886
-0.118745
0.0728049
-0.120961
0.0747685
-0.123255
0.0768957
-0.125627
-0.128126
0.0791502
0.00136047
-0.00319355
0.00581955
-0.0155782
0.0132313
-0.0328971
0.0221926
-0.0517785
0.0308198
-0.0684843
0.0378614
-0.081072
0.0429763
-0.0895332
0.0464364
-0.0948661
0.0487386
-0.0982448
0.0503474
-0.100596
0.051592
-0.102502
0.0526665
-0.104268
0.0536723
-0.106027
0.0546607
-0.10783
0.0556618
-0.109693
0.0566977
-0.111624
0.0577874
-0.113624
0.0589475
-0.115698
0.060192
-0.117851
0.0615328
-0.120086
0.0629782
-0.122407
0.0645358
-0.124813
0.0662215
-0.127313
-0.129916
0.0680117
0.00166525
-0.0048588
0.00670702
-0.02062
0.0143516
-0.0405417
0.0226741
-0.060101
0.0299271
-0.0757373
0.0353403
-0.0864852
0.0389777
-0.0931706
0.0412957
-0.097184
0.0427937
-0.0997429
0.0438488
-0.101651
0.0446888
-0.103342
0.0454326
-0.105012
0.046138
-0.106732
0.0468349
-0.108527
0.0475424
-0.110401
0.0482756
-0.112357
0.0490482
-0.114396
0.0498734
-0.116523
0.0507638
-0.118741
0.0517298
-0.121052
0.0527791
-0.123456
0.0539192
-0.125953
0.0551511
-0.128545
-0.131222
0.0564574
0.00194746
-0.00680626
0.00737163
-0.0260442
0.0148201
-0.0479902
0.0221427
-0.0674235
0.0279476
-0.0815422
0.0319115
-0.0904491
0.0343609
-0.09562
0.0358112
-0.0986343
0.0366998
-0.100631
0.0373068
-0.102258
0.0377815
-0.103817
0.0381943
-0.105424
0.0385781
-0.107116
0.0389515
-0.1089
0.0393283
-0.110778
0.039721
-0.11275
0.040142
-0.114818
0.0406032
-0.116984
0.0411144
-0.119252
0.0416829
-0.121621
0.0423146
-0.124088
0.0430141
-0.126652
0.0437833
-0.129314
-0.132062
0.0446232
0.00217997
-0.00898623
0.00773472
-0.0315989
0.0146244
-0.0548798
0.0207643
-0.0735634
0.0251893
-0.0859673
0.0279225
-0.0931823
0.029428
-0.0971255
0.0302013
-0.0994076
0.0305937
-0.101024
0.0308024
-0.102467
0.0309208
-0.103936
0.0309902
-0.105494
0.0310309
-0.107156
0.0310561
-0.108925
0.0310772
-0.110799
0.0311042
-0.112777
0.0311468
-0.11486
0.0312143
-0.117052
0.0313143
-0.119352
0.0314541
-0.121761
0.0316405
-0.124274
0.0318785
-0.12689
0.0321678
-0.129603
-0.132406
0.032512
0.00234332
-0.0113295
0.00776848
-0.0370241
0.0138474
-0.0609587
0.0187584
-0.0784744
0.0219389
-0.0891479
0.0236469
-0.0948903
0.0243918
-0.0978704
0.0246073
-0.0996231
0.0245613
-0.100978
0.024387
-0.102293
0.0241418
-0.10369
0.0238506
-0.105202
0.023527
-0.106833
0.0231809
-0.108579
0.022821
-0.110439
0.0224556
-0.112411
0.0220929
-0.114497
0.0217407
-0.1167
0.0214057
-0.119017
0.0210952
-0.12145
0.0208167
-0.123996
0.0205767
-0.12665
0.0203776
-0.129404
0.0202293
-0.132258
-0.000757594
0.00545768
-0.00470008
-0.00248986
0.00932547
-0.00759321
-0.00488118
0.009664
-0.00727268
-0.00774739
0.00847458
-0.00560837
-0.0109789
0.00671542
-0.00348394
-0.014525
0.00462088
-0.00107475
-0.0182883
0.00209965
0.00166369
-0.022274
-0.000954002
0.00493962
-0.0264313
-0.00466656
0.0088239
-0.0306966
-0.00910073
0.013366
-0.0349891
-0.0142894
0.0185819
-0.0392114
-0.0202281
0.0244504
-0.0432475
-0.0268693
0.0309054
-0.0469606
-0.0341148
0.0378279
-0.0501898
-0.0418098
0.0450389
-0.0527464
-0.0497398
0.0522965
-0.0544108
-0.0576313
0.0592956
-0.0549307
-0.0651545
0.0656744
-0.0540268
-0.0719316
0.0710277
-0.0514071
-0.0775488
0.0749291
-0.0467943
-0.081586
0.0769732
-0.0399706
-0.083655
0.0768313
-0.0308264
-0.083392
0.0742478
-0.0805208
-0.0194041
0.0690985
-0.000548528
0.0060062
-0.00198563
0.0107626
-0.00407504
0.0117534
-0.0066194
0.0110189
-0.00948824
0.00958426
-0.0126132
0.00774584
-0.0159646
0.00545107
-0.0194744
0.00255578
-0.0231511
-0.000989821
-0.0269659
-0.00528592
-0.0308598
-0.0103956
-0.0347759
-0.0163119
-0.0386519
-0.0229933
-0.0424186
-0.0303482
-0.0460001
-0.0382282
-0.0493107
-0.0464292
-0.052246
-0.054696
-0.054666
-0.0627345
-0.0563754
-0.0702222
-0.0571076
-0.0768165
-0.0565453
-0.0821483
-0.0543655
-0.0858348
-0.0502346
-0.0875229
-0.0869411
-0.0438144
-0.000240582
0.00624679
-0.00117616
0.0116981
-0.0027041
0.0132814
-0.00463842
0.0129532
-0.00682639
0.0117722
-0.00918241
0.0101019
-0.0116705
0.00793917
-0.0142837
0.00516893
-0.0169438
0.00167027
-0.0196827
-0.002547
-0.0224578
-0.00762042
-0.0252331
-0.0135365
-0.0279693
-0.0202571
-0.0306292
-0.0276883
-0.0331863
-0.0356712
-0.035635
-0.0439805
-0.0379963
-0.0523347
-0.0403118
-0.060419
-0.0426046
-0.0679294
-0.0448282
-0.0745929
-0.0468269
-0.0801496
-0.0483189
-0.0843428
-0.0488093
-0.0870326
-0.0881359
-0.0476144
0.000112646
0.00613414
-0.000187835
0.0119986
-0.000975133
0.0140687
-0.00210033
0.0140784
-0.00340023
0.0130721
-0.00476779
0.0114694
-0.00615316
0.00932454
-0.00753682
0.0065526
-0.00891334
0.00304679
-0.0102228
-0.00123751
-0.0114599
-0.00638334
-0.0126007
-0.0123957
-0.0135904
-0.0192675
-0.0143753
-0.0269034
-0.0149105
-0.035136
-0.0151829
-0.0437081
-0.015246
-0.0522716
-0.0152457
-0.0604193
-0.0154265
-0.0677486
-0.0160768
-0.0739427
-0.0174381
-0.0787883
-0.0195353
-0.0822456
-0.0222453
-0.0843226
-0.0854238
-0.0249574
0.000444976
0.00568916
0.000809437
0.0116342
0.000841835
0.0140363
0.000617078
0.0143032
0.000295779
0.0133934
-9.89603e-07
0.0117662
-0.000208895
0.00953245
-0.000300743
0.00664444
-0.0002694
0.00301545
-8.14288e-05
-0.00142548
0.000280679
-0.00674545
0.000878969
-0.012994
0.00175225
-0.0201407
0.00297403
-0.0281252
0.00461866
-0.0367806
0.00673354
-0.045823
0.00930026
-0.0548383
0.0122012
-0.0633202
0.0152219
-0.0707693
0.0180001
-0.0767208
0.0201496
-0.0809379
0.021151
-0.0832469
0.0209653
-0.0841369
-0.082564
0.0181055
0.00070219
0.00498697
0.00166446
0.0106719
0.00248803
0.0132127
0.00315859
0.0136326
0.00380261
0.0127494
0.00454938
0.0110194
0.00548182
0.00860001
0.00664134
0.00548493
0.00804305
0.00161373
0.00973268
-0.0031151
0.0117386
-0.00875138
0.0140975
-0.0153529
0.0168895
-0.0229327
0.0201848
-0.0314205
0.0240324
-0.0406281
0.0284195
-0.0502101
0.033262
-0.0596807
0.0384081
-0.0684663
0.0436777
-0.076039
0.0488832
-0.0819264
0.0538597
-0.0859144
0.0584243
-0.0878116
0.0621594
-0.0878719
-0.0858097
0.0654051
0.00084801
0.00413896
0.00225449
0.00926541
0.00373342
0.0117338
0.00518467
0.0121814
0.00668762
0.0112465
0.00836182
0.00934522
0.0103016
0.00666019
0.0125628
0.00322372
0.0152076
-0.00103106
0.0182909
-0.00619833
0.0218738
-0.0123343
0.0260448
-0.0195239
0.0308912
-0.0277791
0.0364644
-0.0369938
0.0427276
-0.0468913
0.049532
-0.0570145
0.0566217
-0.0667705
0.0636805
-0.0755251
0.0704092
-0.0827677
0.0765822
-0.0880994
0.0821666
-0.0914987
0.0872673
-0.0929123
0.0921203
-0.0927249
-0.0910802
0.0973908
0.000872631
0.00326633
0.00251456
0.00762348
0.00443475
0.00981359
0.00647076
0.0101454
0.00864984
0.00906738
0.0110721
0.00692299
0.0138453
0.003887
0.0170199
4.90707e-05
0.0207951
-0.00480629
0.0252093
-0.0106125
0.0304053
-0.0175303
0.0365007
-0.0256193
0.0435485
-0.034827
0.0514777
-0.044923
0.060058
-0.0554716
0.0689164
-0.0658729
0.0776051
-0.0754592
0.0857022
-0.0836222
0.0929002
-0.0899657
0.0990479
-0.094247
0.104215
-0.0966656
0.108507
-0.0972044
0.112447
-0.0966654
-0.0946915
0.116059
0.000789583
0.00247675
0.00244725
0.00596581
0.00455444
0.00770639
0.0069297
0.00777012
0.00956372
0.00643335
0.0125415
0.00394519
0.0159714
0.000457167
0.0200991
-0.00407869
0.0249896
-0.00969676
0.0308824
-0.0165053
0.0379326
-0.0245805
0.0461945
-0.0338811
0.0555433
-0.0441759
0.0656381
-0.0550178
0.0759522
-0.0657856
0.0858717
-0.0757924
0.0948236
-0.0844111
0.102413
-0.091212
0.108474
-0.0960266
0.113129
-0.0989013
0.116675
-0.100212
0.119525
-0.100055
0.122181
-0.0993211
-0.0972782
0.124768
0.000628007
0.00184874
0.00211516
0.00447866
0.0041749
0.00564666
0.00666097
0.00528405
0.00956997
0.00352435
0.0130013
0.000513892
0.0171851
-0.00372667
0.0223241
-0.0092177
0.0286798
-0.0160524
0.0364544
-0.0242799
0.0456913
-0.0338174
0.0561894
-0.0443793
0.0674763
-0.0554627
0.0788674
-0.0664089
0.0896007
-0.0765189
0.0990012
-0.0851929
0.106626
-0.0920356
0.112351
-0.0969375
0.116344
-0.100019
0.119037
-0.101595
0.120893
-0.102068
0.122503
-0.101664
0.124247
-0.101065
-0.0996318
0.126601
0.00042719
0.00142155
0.00163328
0.00327257
0.00350217
0.00377776
0.0059806
0.00280562
0.00912849
0.000376465
0.0131581
-0.00351576
0.0183305
-0.00889906
0.0249556
-0.0158428
0.0332519
-0.0243487
0.0432229
-0.0342508
0.0545634
-0.0451579
0.0666549
-0.0564708
0.0786664
-0.0674742
0.0897286
-0.0774711
0.0991262
-0.0859165
0.106448
-0.0925146
0.111654
-0.0972415
0.115041
-0.100324
0.11712
-0.102098
0.118508
-0.102983
0.119718
-0.103278
0.121271
-0.103217
0.12329
-0.103084
-0.102199
0.125857
0.000236285
0.00116339
0.00285615
0.00540655
0.00901985
0.0139892
0.0206491
0.0292158
0.0396289
0.0514594
0.0639404
0.0761188
0.0870722
0.0961152
0.102937
0.107628
0.110606
0.112452
0.113756
0.115
0.116458
0.118424
0.12094
0.124936
-8.68553e-05
-0.101155
0.0818382
0.0213871
-0.0813287
0.0598547
0.0423595
-0.0553624
0.0343901
0.0612313
-0.0232011
0.00432925
0.0776429
0.0137166
-0.0301282
0.0922207
0.0549829
-0.0695607
0.105462
0.0968687
-0.11011
0.116822
0.132463
-0.143823
0.125406
0.15588
-0.164464
0.130585
0.167334
-0.172512
0.132939
0.171233
-0.173588
0.134027
0.170275
-0.171363
0.134022
0.167849
-0.167843
0.131706
0.171712
-0.169396
0.127324
0.184907
-0.180525
0.123897
0.194909
-0.191483
0.124478
0.179158
-0.179739
0.129093
0.124928
-0.129543
0.136276
0.0387168
-0.0459
0.144724
-0.05726
0.0488121
0.153052
-0.136772
0.128444
0.159066
-0.184428
0.178414
0.161555
-0.20553
0.20304
0.162086
-0.211076
0.210546
0.161608
-0.207306
0.207784
0.15844
-0.207139
0.210306
0.151395
-0.223122
0.230168
0.141604
-0.243247
0.253038
0.131189
-0.23469
0.245105
0.12276
-0.176667
0.185096
0.119978
-0.076938
0.0797198
0.123692
0.0363898
-0.0401032
0.131916
0.132199
-0.140424
0.141018
0.196049
-0.205151
0.14669
0.23341
-0.239082
0.145423
0.26121
-0.259943
0.137367
0.286339
-0.278283
0.126359
0.289778
-0.27877
0.117275
0.242037
-0.232952
0.114183
0.13189
-0.128799
0.119014
-0.0095271
0.00469645
0.127429
-0.129226
0.120811
0.131478
-0.205493
0.201444
0.127965
-0.256126
0.259639
0.121646
-0.290592
0.296911
0.11778
-0.272137
0.276002
0.118177
-0.194259
0.193862
0.120595
-0.0590256
0.0566078
0.122033
0.093407
-0.0948452
0.120617
0.227453
-0.226037
0.118657
0.323693
-0.321733
0.117435
0.296961
-0.295739
0.116852
0.191032
-0.190449
0.113312
-0.00452234
0.00806182
0.109867
-0.230689
0.234134
0.107232
-0.309394
0.312028
0.104873
-0.321915
0.324275
0.0992997
-0.0853932
0.0909663
0.0955235
0.222748
-0.218972
0.140893
-0.137634
-0.0298056
-0.115164
-0.0117424
-0.099392
0.00818117
-0.0752859
0.0295301
-0.04455
0.0499938
-0.0067472
0.0693232
0.0356535
0.0877962
0.0783957
0.104532
0.115726
0.118226
0.142187
0.127924
0.157635
0.134258
0.1649
0.138635
0.165899
0.141228
0.165256
0.14154
0.1714
0.140515
0.185932
0.140675
0.194749
0.143263
0.17657
0.147292
0.120899
0.151923
0.0340866
0.156574
-0.0619112
0.160714
-0.140912
0.163051
-0.186764
0.162428
-0.204907
0.160166
-0.208815
0.157496
-0.204636
0.152469
-0.202112
0.143317
-0.21397
0.131739
-0.231669
0.120934
-0.223885
0.113657
-0.169391
0.112784
-0.0760649
0.119306
0.0298676
0.130439
0.121067
0.142119
0.184369
0.149853
0.225676
0.150388
0.260675
0.143963
0.292765
0.133888
0.299852
0.124566
0.251359
0.119472
0.136984
0.121418
-0.0114734
0.128042
-0.13585
0.131629
-0.20908
0.127533
-0.25203
0.120582
-0.28364
0.116961
-0.268516
0.11779
-0.195088
0.120759
-0.0619948
0.122661
0.091505
0.122172
0.227942
0.12078
0.325085
0.11941
0.298331
0.118509
0.191934
0.113955
3.17156e-05
0.109545
-0.226279
0.10621
-0.306058
0.103951
-0.319656
0.100672
-0.082114
0.097014
0.226406
0.145165
-0.0439084
-0.11887
-0.0334639
-0.109836
-0.0181892
-0.0905606
0.000631159
-0.0633703
0.0230161
-0.0291321
0.0458639
0.0128057
0.069118
0.0551416
0.0910675
0.093777
0.10985
0.123404
0.12431
0.143175
0.134969
0.15424
0.142938
0.15793
0.148396
0.159798
0.151531
0.168265
0.153826
0.183637
0.157233
0.191342
0.161491
0.172313
0.164644
0.117745
0.166403
0.0323279
0.167556
-0.0630644
0.167817
-0.141173
0.166571
-0.185518
0.163098
-0.201434
0.158323
-0.204039
0.153677
-0.19999
0.147369
-0.195805
0.136826
-0.203427
0.123708
-0.218551
0.11233
-0.212506
0.106016
-0.163076
0.106984
-0.0770334
0.115764
0.0210878
0.129398
0.107433
0.143545
0.170222
0.153479
0.215742
0.156223
0.257931
0.151878
0.297109
0.143067
0.308664
0.13366
0.260766
0.126517
0.144128
0.125096
-0.0100523
0.12932
-0.140074
0.13235
-0.21211
0.127795
-0.247475
0.120009
-0.275854
0.116284
-0.264791
0.117526
-0.19633
0.121227
-0.0656958
0.123792
0.0889399
0.124254
0.227481
0.123341
0.325998
0.12179
0.299882
0.120635
0.193088
0.115247
0.00542043
0.109874
-0.220907
0.10583
-0.302014
0.103617
-0.317443
0.102546
-0.0810433
0.0991455
0.229806
0.150376
-0.0340847
-0.109743
-0.0364195
-0.107502
-0.0298424
-0.0971377
-0.0160683
-0.0771444
0.00261342
-0.0478139
0.0264861
-0.011067
0.0520083
0.0296194
0.0771243
0.0686611
0.0997338
0.100795
0.118526
0.124383
0.13354
0.139225
0.145185
0.146286
0.153562
0.151421
0.159477
0.162349
0.164966
0.178148
0.171422
0.184887
0.177207
0.166528
0.17989
0.115062
0.179622
0.0325968
0.177771
-0.0612136
0.17443
-0.137833
0.169699
-0.180787
0.163584
-0.195318
0.156618
-0.197073
0.150169
-0.193542
0.142875
-0.188511
0.131688
-0.19224
0.117639
-0.204502
0.105684
-0.200552
0.0998548
-0.157246
0.10206
-0.0792388
0.112623
0.0105249
0.128362
0.0916934
0.144845
0.153739
0.157316
0.203271
0.162731
0.252516
0.160712
0.299128
0.153338
0.316038
0.144057
0.270046
0.135081
0.153104
0.130103
-0.00507461
0.13132
-0.141291
0.133547
-0.214337
0.128678
-0.242606
0.119956
-0.267132
0.115812
-0.260647
0.117387
-0.197906
0.12193
-0.0702386
0.125349
0.0855202
0.126777
0.226053
0.126278
0.326497
0.124498
0.301662
0.123183
0.194403
0.117137
0.0114665
0.110853
-0.214623
0.106104
-0.297266
0.103851
-0.31519
0.104933
-0.0821256
0.10189
0.23285
0.156438
-0.000382755
-0.0912548
-0.0151451
-0.0927393
-0.0218848
-0.090398
-0.0186447
-0.0803845
-0.00646086
-0.0599978
0.0136074
-0.0311353
0.038768
0.00445878
0.0652436
0.0421854
0.0904387
0.0755999
0.112715
0.102107
0.131379
0.120561
0.145986
0.131679
0.156586
0.140822
0.164673
0.154262
0.17285
0.16997
0.181836
0.175901
0.188819
0.159545
0.191414
0.112467
0.190201
0.0338094
0.186322
-0.0573341
0.179943
-0.131454
0.172102
-0.172947
0.163658
-0.186874
0.154929
-0.188344
0.147047
-0.185659
0.139162
-0.180626
0.127931
-0.181009
0.113506
-0.190077
0.101046
-0.188092
0.0953338
-0.151535
0.0981812
-0.0820862
0.109761
-0.00105517
0.126978
0.0744767
0.145537
0.13518
0.160704
0.188104
0.169222
0.243998
0.170194
0.298156
0.164733
0.321499
0.155594
0.279186
0.144893
0.163805
0.13632
0.00349865
0.134021
-0.138992
0.135102
-0.215418
0.130076
-0.237581
0.120392
-0.257447
0.115525
-0.25578
0.117317
-0.199697
0.122805
-0.075727
0.127249
0.0810759
0.129678
0.223624
0.129536
0.32664
0.127452
0.303745
0.126089
0.195766
0.11958
0.017976
0.112467
-0.20751
0.10703
-0.291829
0.104615
-0.312775
0.107793
-0.0853029
0.105208
0.235434
0.163243
0.0500091
-0.0758588
0.0301454
-0.0728756
0.0104922
-0.0707447
-0.00158515
-0.0683071
-0.00203614
-0.0595468
0.0093101
-0.0424815
0.0296128
-0.0158439
0.0550708
0.0167274
0.0815387
0.049132
0.106302
0.0773446
0.127694
0.0991683
0.144513
0.114859
0.156736
0.128599
0.166448
0.14455
0.17668
0.159738
0.187582
0.164999
0.195697
0.15143
0.198807
0.109356
0.197616
0.035001
0.192652
-0.0523702
0.18413
-0.122931
0.173739
-0.162556
0.16332
-0.176455
0.153236
-0.178259
0.144153
-0.176576
0.135869
-0.172343
0.125197
-0.170337
0.111097
-0.175977
0.0983132
-0.175308
0.0923845
-0.145606
0.0953
-0.0850016
0.106881
-0.0126364
0.124912
0.056446
0.145182
0.11491
0.163142
0.170144
0.175078
0.232063
0.179221
0.294012
0.175924
0.324797
0.167238
0.287871
0.155315
0.175729
0.14342
0.015393
0.137346
-0.132918
0.136866
-0.214938
0.131843
-0.232558
0.121276
-0.24688
0.115394
-0.249899
0.117241
-0.201544
0.123762
-0.0822477
0.12937
0.0754677
0.13284
0.220154
0.133032
0.326448
0.130573
0.306205
0.129277
0.197062
0.122518
0.0247348
0.114682
-0.199673
0.108594
-0.285742
0.105867
-0.310048
0.11104
-0.0904762
0.109049
0.237426
0.170657
0.0880694
-0.0665374
0.0764289
-0.0612351
0.0602896
-0.0546054
0.0414279
-0.0494454
0.0264715
-0.0445904
0.0216648
-0.0376748
0.0294495
-0.0236287
0.0475713
-0.00139441
0.0711052
0.0255981
0.095897
0.0525528
0.118677
0.0763884
0.137186
0.0963507
0.151102
0.114683
0.162774
0.132879
0.175244
0.147268
0.188108
0.152136
0.197815
0.141722
0.202493
0.104678
0.202236
0.0352583
0.196911
-0.0470452
0.186855
-0.112875
0.174462
-0.150163
0.162395
-0.164388
0.151357
-0.167222
0.141477
-0.166696
0.132847
-0.163712
0.123008
-0.160498
0.109938
-0.162907
0.0972134
-0.162584
0.0908319
-0.139225
0.0932282
-0.0873979
0.104015
-0.0234236
0.121984
0.038477
0.143384
0.0935107
0.164017
0.14951
0.179677
0.216403
0.187624
0.286064
0.187153
0.325268
0.179405
0.295619
0.166166
0.188967
0.151158
0.030401
0.141214
-0.122974
0.138703
-0.212427
0.133809
-0.227664
0.122555
-0.235625
0.115396
-0.24274
0.117069
-0.203217
0.124673
-0.089852
0.131607
0.0685336
0.136197
0.215564
0.136707
0.325938
0.133784
0.309127
0.132671
0.198175
0.125875
0.0315308
0.117449
-0.191247
0.110767
-0.279059
0.107561
-0.306842
0.114582
-0.0974981
0.11335
0.238659
0.17852
0.107256
-0.0577344
0.100276
-0.0542549
0.0934827
-0.0478126
0.0836155
-0.0395782
0.0701179
-0.0310928
0.0562138
-0.0237707
0.0485789
-0.0159937
0.0516864
-0.0045019
0.0647335
0.012551
0.0841732
0.0331131
0.105368
0.0551937
0.124486
0.0772322
0.140175
0.0989937
0.15434
0.118714
0.169429
0.132178
0.184429
0.137136
0.196177
0.129975
0.203196
0.0976582
0.204613
0.0338421
0.199274
-0.0417064
0.188042
-0.101643
0.174172
-0.136294
0.160849
-0.151065
0.149128
-0.155501
0.138809
-0.156376
0.129948
-0.154851
0.120947
-0.151497
0.109441
-0.1514
0.0973797
-0.150523
0.0905033
-0.132348
0.0918664
-0.088761
0.101185
-0.0327423
0.118094
0.0215682
0.139975
0.0716297
0.163067
0.126418
0.182347
0.197123
0.193923
0.274488
0.196202
0.322989
0.19007
0.301751
0.176536
0.2025
0.159272
0.0476657
0.145507
-0.109209
0.140489
-0.207409
0.135783
-0.222957
0.124165
-0.224007
0.115535
-0.23411
0.116708
-0.204391
0.125412
-0.0985563
0.133815
0.0601307
0.139607
0.209772
0.140486
0.325059
0.137036
0.312577
0.136184
0.199027
0.1296
0.0381147
0.120708
-0.182356
0.113504
-0.271855
0.109657
-0.302995
0.118316
-0.106157
0.118032
0.238943
0.186645
0.116421
-0.0493882
0.109508
-0.0473414
0.104706
-0.0430106
0.101552
-0.0364241
0.0980171
-0.0275581
0.0920208
-0.0177744
0.0841283
-0.00810119
0.0776609
0.00196547
0.076378
0.0138339
0.0835997
0.0258914
0.0972611
0.0415323
0.113569
0.0609244
0.129784
0.082779
0.14606
0.102437
0.163212
0.115026
0.179675
0.120673
0.193167
0.116482
0.202425
0.0884003
0.205222
0.0310455
0.199789
-0.0362733
0.187621
-0.0894756
0.172761
-0.121434
0.158623
-0.136927
0.146476
-0.143354
0.136021
-0.145922
0.127067
-0.145897
0.11871
-0.14314
0.108902
-0.141593
0.0981432
-0.139764
0.0910776
-0.125283
0.0912061
-0.0888895
0.0986443
-0.0401805
0.113574
0.00663857
0.134824
0.0503798
0.159659
0.101583
0.182899
0.173883
0.198979
0.258409
0.204435
0.317533
0.199723
0.306463
0.186788
0.215435
0.167553
0.0669011
0.150098
-0.0917543
0.142115
-0.199426
0.137556
-0.218398
0.126004
-0.212455
0.115831
-0.223936
0.116082
-0.204642
0.125827
-0.108301
0.135889
0.0500683
0.143021
0.202641
0.144304
0.323776
0.140252
0.316629
0.139746
0.199533
0.133614
0.0442469
0.124386
-0.173128
0.116744
-0.264213
0.112114
-0.298365
0.122148
-0.116191
0.123017
0.238074
0.194831
0.119642
-0.0424301
0.113821
-0.0415201
0.109403
-0.0385929
0.106958
-0.033979
0.10664
-0.0272398
0.107277
-0.0184114
0.107043
-0.00786763
0.104757
0.00425226
0.102184
0.0164065
0.101041
0.027034
0.104527
0.0380463
0.113305
0.0521466
0.125995
0.0700894
0.141491
0.0869413
0.158622
0.0978956
0.175368
0.103927
0.190167
0.101683
0.201239
0.0773281
0.205007
0.0272783
0.199072
-0.0303383
0.185873
-0.0762773
0.17026
-0.105821
0.155638
-0.122304
0.143216
-0.130932
0.132798
-0.135503
0.123963
-0.137062
0.116077
-0.135254
0.107752
-0.133268
0.0987243
-0.130736
0.0921046
-0.118663
0.0912141
-0.0879989
0.09661
-0.0455765
0.108733
-0.00548453
0.128309
0.030804
0.153959
0.0759333
0.180204
0.147637
0.200165
0.238448
0.209164
0.308534
0.206666
0.308962
0.194572
0.22753
0.175205
0.086268
0.154713
-0.0712623
0.14347
-0.188183
0.138882
-0.213811
0.127898
-0.201471
0.116293
-0.212331
0.115154
-0.203504
0.125747
-0.118893
0.137615
0.0382002
0.146261
0.193996
0.148121
0.321916
0.143469
0.321281
0.143326
0.199676
0.137884
0.0496888
0.128408
-0.163653
0.12041
-0.256214
0.114893
-0.292848
0.125987
-0.127285
0.128206
0.235855
0.202859
0.119746
-0.0363183
0.114408
-0.0361829
0.110357
-0.034542
0.108036
-0.0316572
0.107782
-0.0269861
0.109632
-0.0202616
0.11334
-0.0115758
0.118625
-0.00103242
0.122023
0.0130087
0.123581
0.0254757
0.125336
0.0362911
0.129282
0.0482014
0.136766
0.0626052
0.147976
0.0757315
0.161485
0.0843863
0.175769
0.0896426
0.189733
0.0877192
0.200382
0.0666792
0.202598
0.0250627
0.195451
-0.0231912
0.181614
-0.0624406
0.16598
-0.0901871
0.151545
-0.107869
0.139218
-0.118606
0.128976
-0.125262
0.12046
-0.128546
0.112997
-0.127791
0.105761
-0.126032
0.0984722
-0.123447
0.0929431
-0.113134
0.0916772
-0.086733
0.0954551
-0.0493543
0.104471
-0.0145009
0.120928
0.0143471
0.145923
0.0509384
0.175541
0.11802
0.200594
0.213395
0.213082
0.296046
0.211957
0.310087
0.20064
0.238847
0.181339
0.105569
0.158842
-0.0487655
0.144454
-0.173794
0.139558
-0.208916
0.129676
-0.191588
0.116996
-0.199651
0.113932
-0.200441
0.125074
-0.130035
0.138982
0.0242926
0.149316
0.183662
0.151832
0.3194
0.146539
0.326574
0.146844
0.199371
0.142323
0.0542104
0.132714
-0.154044
0.12443
-0.24793
0.11796
-0.286379
0.129769
-0.139094
0.133515
0.232109
0.210508
0.120269
-0.0316518
0.115324
-0.0312377
0.110912
-0.0301296
0.107756
-0.0285016
0.106326
-0.0255563
0.10692
-0.0208553
0.109711
-0.0143666
0.11432
-0.00564179
0.121197
0.00613236
0.128204
0.018468
0.134528
0.0299673
0.140918
0.0418117
0.148718
0.0548052
0.158088
0.0663607
0.168586
0.0738885
0.180008
0.0782208
0.191896
0.0758313
0.200595
0.0579798
0.201493
0.0241656
0.192792
-0.014491
0.178286
-0.0479345
0.162404
-0.0743051
0.147988
-0.0934528
0.135667
-0.106284
0.125447
-0.115041
0.117226
-0.120325
0.11015
-0.120715
0.103547
-0.119429
0.0975722
-0.117472
0.0934129
-0.108975
0.0924339
-0.085754
0.0951115
-0.0520319
0.101436
-0.0208256
0.114011
0.00177277
0.13583
0.0291189
0.165531
0.0883189
0.194478
0.184447
0.21235
0.278174
0.21517
0.307267
0.205558
0.248459
0.187046
0.124082
0.163266
-0.0249855
0.145805
-0.156334
0.139997
-0.203108
0.131436
-0.183027
0.118146
-0.186361
0.112992
-0.195286
0.123759
-0.140803
0.139512
0.00854016
0.151896
0.171277
0.155554
0.315741
0.149717
0.332412
0.15036
0.198728
0.146968
0.0576021
0.137299
-0.144375
0.12872
-0.23935
0.12133
-0.278989
0.133446
-0.15121
0.138838
0.226717
0.217561
0.169839
-0.025501
-0.17599
0.164581
-0.0259792
0.159515
-0.0250637
0.154394
-0.0233808
0.14944
-0.0206024
0.144982
-0.0163969
0.141315
-0.0106994
0.138871
-0.00319795
0.13848
0.00652312
0.13961
0.0173379
0.141284
0.0282933
0.143327
0.0397685
0.14689
0.051243
0.152921
0.0603293
0.161279
0.0655307
0.172848
0.0666516
0.188586
0.0600934
0.204889
0.0416764
0.215261
0.0137934
0.217558
-0.0167874
0.213384
-0.0437607
0.205514
-0.0664354
0.196033
-0.0839715
0.185898
-0.0961499
0.1757
-0.104843
0.166009
-0.110634
0.156425
-0.111131
0.146894
-0.109899
0.13751
-0.108088
0.127819
-0.0992834
0.11824
-0.0761747
0.111411
-0.0452033
0.109956
-0.01937
0.115034
-0.00330613
0.126825
0.0173286
0.143057
0.0720868
0.158722
0.168782
0.169999
0.266897
0.177981
0.299285
0.183959
0.242481
0.18549
0.12255
0.17897
-0.0184655
0.169367
-0.146731
0.162648
-0.196389
0.151811
-0.17219
0.136701
-0.17125
0.12538
-0.183966
0.126244
-0.141667
0.131804
0.00297982
0.13615
0.166931
0.137034
0.314858
0.135227
0.334219
0.142223
0.191732
0.145168
0.0546569
0.138644
-0.137851
0.129538
-0.230244
0.119011
-0.268462
0.125545
-0.157744
0.129985
0.222277
0.223231
0.179603
-0.020604
-0.1845
0.174747
-0.0211236
0.170095
-0.0204122
0.165587
-0.0188724
0.161353
-0.0163688
0.157654
-0.0126977
0.154719
-0.00776388
0.152905
-0.00138372
0.152737
0.00669077
0.154306
0.0157687
0.15735
0.0252489
0.161889
0.0352296
0.168277
0.0448553
0.176431
0.0521751
0.186102
0.0558603
0.19772
0.0550333
0.210648
0.0471648
0.221442
0.0308834
0.226858
0.00837703
0.22614
-0.016069
0.220936
-0.038557
0.212831
-0.0583304
0.203354
-0.0744946
0.193414
-0.0862101
0.183374
-0.0948021
0.173896
-0.101156
0.164632
-0.101867
0.155125
-0.100392
0.145978
-0.0989403
0.137633
-0.0909385
0.129526
-0.0680675
0.123107
-0.0387844
0.120968
-0.0172314
0.124475
-0.00681297
0.135059
0.00674438
0.151967
0.0551793
0.169911
0.150837
0.18345
0.253358
0.193105
0.28963
0.19974
0.235847
0.201729
0.12056
0.194792
-0.0115282
0.183195
-0.135134
0.174764
-0.187958
0.163461
-0.160887
0.147836
-0.155625
0.134957
-0.171087
0.135556
-0.142266
0.142596
-0.00405997
0.148332
0.161196
0.149736
0.313453
0.147621
0.336335
0.155434
0.183918
0.159635
0.0504564
0.152264
-0.13048
0.142067
-0.220047
0.129967
-0.256363
0.13646
-0.164237
0.142238
0.216499
0.2286
0.190468
-0.0164048
-0.194667
0.186014
-0.0166698
0.181782
-0.0161805
0.17778
-0.0148703
0.174093
-0.0126815
0.170927
-0.00953126
0.168469
-0.00530627
0.167021
6.40646e-05
0.167057
0.00665524
0.168727
0.0140986
0.172069
0.0219071
0.177268
0.0300302
0.184455
0.0376682
0.193234
0.0433966
0.203136
0.0459581
0.213819
0.0443497
0.224027
0.0369572
0.231488
0.0234227
0.23453
0.00533484
0.233074
-0.0146135
0.228255
-0.0337379
0.221082
-0.0511572
0.212632
-0.0660447
0.20367