/*--------------------------------*- C++ -*----------------------------------*\
| =========                 |                                                 |
| \\      /  F ield         | OpenFOAM: The Open Source CFD Toolbox           |
|  \\    /   O peration     | Version:  2512                                  |
|   \\  /    A nd           | Website:  www.openfoam.com                      |
|    \\/     M anipulation  |                                                 |
\*---------------------------------------------------------------------------*/
FoamFile
{
    version     2.0;
    format      ascii;
    arch        "LSB;label=32;scalar=64";
    class       volScalarField;
    location    "1.8";
    object      p;
}
// * * * * * * * * * * * * * * * * * * * * * * * * * * * * * * * * * * * * * //

dimensions      [0 2 -2 0 0 0 0];

internalField   nonuniform List<scalar> 
13248
(
-0.553354
-0.545621
-0.542758
-0.543707
-0.541837
-0.5287
-0.500268
-0.458883
-0.410671
-0.361501
-0.315178
-0.273483
-0.236844
-0.205011
-0.177481
-0.153696
-0.133125
-0.115298
-0.0997964
-0.0862775
-0.0743888
-0.0639057
-0.0545816
-0.0460892
-0.585574
-0.57724
-0.573783
-0.573003
-0.567413
-0.549437
-0.516814
-0.473261
-0.424864
-0.376681
-0.33169
-0.291144
-0.255249
-0.223722
-0.19612
-0.171969
-0.150823
-0.132278
-0.11598
-0.101626
-0.0889263
-0.0777412
-0.0676509
-0.0586355
-0.619915
-0.611096
-0.606925
-0.603627
-0.593057
-0.569188
-0.531926
-0.486109
-0.43745
-0.390079
-0.346187
-0.306579
-0.271288
-0.240018
-0.212373
-0.187947
-0.166353
-0.147244
-0.130311
-0.115276
-0.101908
-0.0899986
-0.0792682
-0.0694422
-0.656744
-0.647462
-0.642171
-0.635252
-0.618439
-0.587865
-0.545759
-0.497654
-0.448619
-0.401834
-0.358783
-0.319892
-0.285061
-0.253984
-0.2263
-0.20165
-0.179696
-0.160131
-0.142677
-0.127093
-0.113153
-0.100684
-0.0893602
-0.0789432
-0.695846
-0.686058
-0.678991
-0.667185
-0.643109
-0.605467
-0.558612
-0.508276
-0.458706
-0.412194
-0.369641
-0.331184
-0.296621
-0.265633
-0.237881
-0.213032
-0.190778
-0.170836
-0.152955
-0.136905
-0.122489
-0.109513
-0.0977293
-0.0869635
-0.736948
-0.726216
-0.716461
-0.698464
-0.66631
-0.621578
-0.570215
-0.517723
-0.467462
-0.420949
-0.378616
-0.340374
-0.305938
-0.274972
-0.247137
-0.222117
-0.199618
-0.179374
-0.161146
-0.144722
-0.129902
-0.116508
-0.104344
-0.0932207
-0.778423
-0.766754
-0.75329
-0.727971
-0.687289
-0.635764
-0.580274
-0.525753
-0.474686
-0.427943
-0.385593
-0.347382
-0.312956
-0.281956
-0.254038
-0.228885
-0.206207
-0.185743
-0.16726
-0.150549
-0.135423
-0.121714
-0.109258
-0.0978704
-0.819235
-0.806263
-0.787979
-0.754507
-0.705265
-0.647467
-0.588296
-0.531909
-0.479988
-0.432882
-0.390381
-0.352098
-0.317626
-0.286577
-0.258593
-0.233354
-0.210568
-0.189973
-0.171338
-0.154448
-0.139116
-0.125186
-0.11251
-0.100861
-0.857711
-0.843062
-0.818965
-0.77682
-0.719449
-0.656106
-0.593769
-0.535737
-0.482991
-0.435471
-0.39276
-0.354373
-0.31985
-0.288772
-0.260768
-0.235504
-0.212683
-0.192043
-0.173349
-0.156387
-0.140971
-0.126943
-0.11413
-0.102285
-0.891996
-0.875286
-0.844622
-0.793662
-0.728886
-0.660814
-0.595842
-0.536419
-0.482953
-0.435065
-0.392182
-0.35374
-0.319232
-0.28821
-0.260281
-0.235098
-0.212357
-0.191788
-0.173151
-0.156233
-0.140855
-0.126857
-0.114039
-0.102147
-0.920181
-0.90101
-0.863327
-0.803686
-0.732318
-0.6603
-0.593207
-0.532695
-0.4787
-0.430591
-0.387669
-0.349308
-0.314956
-0.284133
-0.256428
-0.231483
-0.208984
-0.188652
-0.170241
-0.153539
-0.138377
-0.124582
-0.11193
-0.10022
-0.940493
-0.918488
-0.873535
-0.805537
-0.728379
-0.653146
-0.584451
-0.523232
-0.469013
-0.420951
-0.378239
-0.340193
-0.306229
-0.275832
-0.248564
-0.22406
-0.201998
-0.182094
-0.164097
-0.147807
-0.133059
-0.119666
-0.107392
-0.096145
-0.13653
-0.143843
-0.14457
-0.139789
-0.127515
-0.106247
-0.0766958
-0.0414232
-0.00402566
0.0319352
0.0633637
0.0886419
0.107166
0.119263
0.125812
0.127933
0.126743
0.123243
0.118225
0.112325
0.10595
0.0994603
0.0929707
0.0866956
-0.146213
-0.153235
-0.153999
-0.149511
-0.137643
-0.116732
-0.0873391
-0.0519374
-0.0141043
0.0224126
0.0546094
0.0806775
0.0999715
0.112795
0.120016
0.122755
0.122131
0.119141
0.114588
0.109104
0.103101
0.0969556
0.0907761
0.0848112
-0.169558
-0.175841
-0.176705
-0.172977
-0.1622
-0.142287
-0.113405
-0.077779
-0.0389563
-0.0010303
0.0328941
0.0607974
0.0819063
0.096468
0.105328
0.109595
0.110385
0.10869
0.105315
0.100888
0.0958271
0.0905249
0.0850672
0.0796911
-0.204053
-0.209211
-0.210223
-0.207671
-0.198628
-0.180357
-0.152362
-0.11639
-0.0760634
-0.036075
0.000363583
0.0309441
0.0547105
0.071824
0.0830955
0.0896222
0.092509
0.0927397
0.0911208
0.0882704
0.0846217
0.0805751
0.0762042
0.0717244
-0.246193
-0.249922
-0.251074
-0.249984
-0.243191
-0.227077
-0.200336
-0.163576
-0.121938
-0.0794035
-0.0399162
-0.00612214
0.0208208
0.0409847
0.0551526
0.0644074
0.0698421
0.0724266
0.0729653
0.0720613
0.0701653
0.0676732
0.0646543
0.0612976
-0.292125
-0.29421
-0.29538
-0.295811
-0.291569
-0.277837
-0.252191
-0.215658
-0.172293
-0.127052
-0.0843787
-0.0472548
-0.0170193
0.00632609
0.0235486
0.0357118
0.0438945
0.049041
0.0519476
0.0531993
0.0532615
0.0525132
0.0510235
0.0489395
-0.338324
-0.33866
-0.33961
-0.341322
-0.339975
-0.328357
-0.30417
-0.267613
-0.222715
-0.175017
-0.129473
-0.089361
-0.0561381
-0.0298468
-0.00972849
0.00525163
0.0161477
0.0238614
0.0291671
0.0326327
0.0347217
0.0357993
0.0359483
0.0352443
-0.382211
-0.380729
-0.381379
-0.384181
-0.384384
-0.375093
-0.352267
-0.315686
-0.269581
-0.219998
-0.172292
-0.129912
-0.0943419
-0.0656224
-0.0430093
-0.0255079
-0.0121148
-0.00198076
0.00562189
0.0112485
0.0153248
0.0182124
0.0200303
0.0207631
-0.422258
-0.419051
-0.419088
-0.422303
-0.423789
-0.416105
-0.394175
-0.357503
-0.310606
-0.259929
-0.211013
-0.1673
-0.130198
-0.0997104
-0.0751247
-0.0555047
-0.0399308
-0.0276112
-0.017886
-0.0102112
-0.00422156
0.000438053
0.00390863
0.00606205
-0.458286
-0.453539
-0.452765
-0.455944
-0.45799
-0.450948
-0.429164
-0.392181
-0.34489
-0.293946
-0.244813
-0.200719
-0.162904
-0.131325
-0.105313
-0.0840173
-0.0666201
-0.0524008
-0.0407679
-0.0312088
-0.0233882
-0.0169678
-0.011823
-0.00822047
-0.49114
-0.485112
-0.483478
-0.486141
-0.487941
-0.480352
-0.457661
-0.419906
-0.372423
-0.321847
-0.273292
-0.2296
-0.191771
-0.159705
-0.132791
-0.110281
-0.0914566
-0.0756837
-0.0624243
-0.0512247
-0.0417344
-0.0336183
-0.0267725
-0.0213846
-0.522294
-0.51527
-0.512906
-0.514841
-0.51532
-0.505715
-0.480785
-0.441531
-0.393749
-0.343825
-0.296299
-0.253505
-0.216156
-0.184078
-0.156718
-0.133429
-0.113586
-0.0966433
-0.0821139
-0.0696055
-0.0587533
-0.0492308
-0.0409014
-0.0333686
0.0793848
0.0717771
0.0650857
0.0594774
0.0545975
0.0501762
0.0462573
0.0428634
0.0398808
0.0372351
0.0349093
0.0328649
0.0310586
0.0294641
0.0280597
0.0268219
0.0257303
0.0247678
0.0239198
0.0231732
0.0225163
0.0219384
0.0214295
0.0209801
0.0205823
0.0202291
0.0199136
0.0196298
0.019372
0.0191357
0.0189166
0.0187107
0.0185142
0.0183232
0.018134
0.0179428
0.017746
0.0175403
0.0173226
0.0170899
0.0168396
0.0165685
0.0162728
0.0159485
0.0155906
0.0151939
0.0147526
0.0142603
0.0137098
0.0130934
0.0124023
0.0116269
0.0107566
0.00977938
0.00868375
0.00745304
0.00608272
0.00454044
0.00285363
0.000998365
0.0778903
0.0702763
0.0640646
0.0589867
0.0541709
0.0497577
0.0460463
0.0428301
0.0398736
0.0372235
0.034929
0.0329141
0.0311183
0.0295266
0.0281232
0.0268851
0.0257929
0.02483
0.0239811
0.023233
0.0225738
0.0219936
0.0214823
0.0210305
0.0206303
0.020275
0.0199578
0.0196724
0.0194133
0.0191753
0.0189537
0.0187447
0.0185446
0.01835
0.0181573
0.0179628
0.0177629
0.0175538
0.0173323
0.0170958
0.0168417
0.0165671
0.0162681
0.0159404
0.0155793
0.0151794
0.0147349
0.0142393
0.0136855
0.0130658
0.0123714
0.0115927
0.0107194
0.00973958
0.00864182
0.0074109
0.00604036
0.00450433
0.0028233
0.000978019
0.0731777
0.066339
0.0612968
0.057274
0.0530149
0.0486776
0.0452241
0.0422615
0.0394924
0.0369664
0.0347583
0.0328026
0.0310492
0.0294899
0.0281085
0.0268829
0.025798
0.0248412
0.0239985
0.0232558
0.0226005
0.0220227
0.0215129
0.0210617
0.0206618
0.0203066
0.0199896
0.0197048
0.0194469
0.0192103
0.0189902
0.018782
0.0185814
0.018385
0.0181895
0.017992
0.0177891
0.0175772
0.0173526
0.0171128
0.0168556
0.0165778
0.0162757
0.0159451
0.0155811
0.0151782
0.0147305
0.0142317
0.0136746
0.0130515
0.0123535
0.0115713
0.0106944
0.00971141
0.00861074
0.00737864
0.00600665
0.00447535
0.00279802
0.000959925
0.0659007
0.0600563
0.056634
0.0541487
0.0508456
0.0470661
0.0438172
0.0411593
0.0385676
0.0363971
0.0343727
0.0325125
0.0308331
0.0293386
0.0280083
0.0268201
0.0257597
0.0248173
0.0239838
0.0232486
0.0226007
0.0220297
0.021525
0.0210772
0.0206798
0.0203264
0.0200107
0.019727
0.0194703
0.0192354
0.019018
0.0188133
0.0186165
0.018423
0.0182286
0.01803
0.0178244
0.0176096
0.0173823
0.01714
0.0168803
0.0166001
0.0162955
0.0159625
0.015596
0.0151906
0.0147403
0.0142387
0.0136787
0.0130523
0.012351
0.0115652
0.0106845
0.00969794
0.00859366
0.00735938
0.00598459
0.00445608
0.00277995
0.000945356
0.0563603
0.0519277
0.0505948
0.0498895
0.0477007
0.0446364
0.0419658
0.0397551
0.0376775
0.0355718
0.0336962
0.0320321
0.0304814
0.0290744
0.0278078
0.0266711
0.0256559
0.024749
0.0239387
0.0232168
0.0225779
0.0220156
0.021519
0.0210779
0.0206855
0.0203359
0.0200229
0.0197411
0.0194855
0.0192517
0.0190357
0.0188331
0.01864
0.0184519
0.0182635
0.0180695
0.0178655
0.017649
0.0174187
0.017174
0.0169126
0.0166306
0.0163242
0.0159894
0.0156212
0.0152139
0.0147617
0.0142579
0.0136955
0.0130665
0.0123622
0.0115732
0.010689
0.00969879
0.00859065
0.00735353
0.00597493
0.00444741
0.00276992
0.00093479
0.045019
0.0423512
0.0433573
0.0445105
0.0435826
0.0414845
0.0395278
0.0378251
0.0361324
0.0343999
0.0328156
0.031264
0.029939
0.0286873
0.0275173
0.0264445
0.0254776
0.0246151
0.0238459
0.0231552
0.0225356
0.0219852
0.0214975
0.0210643
0.0206789
0.020335
0.0200265
0.0197479
0.0194946
0.0192625
0.0190475
0.0188457
0.0186541
0.0184687
0.0182855
0.0180994
0.0179035
0.0176917
0.0174611
0.0172141
0.0169509
0.0166677
0.0163601
0.0160242
0.0156548
0.0152463
0.0147926
0.0142873
0.0137232
0.0130921
0.0123854
0.0115936
0.0107063
0.00971263
0.00860063
0.0073603
0.00597721
0.00444912
0.00276795
0.000928507
0.0324699
0.0318399
0.0352955
0.0380618
0.0384787
0.0375592
0.0364639
0.0353985
0.0342691
0.0330074
0.0316744
0.0304435
0.0291998
0.0281535
0.0271381
0.0261682
0.0252674
0.024445
0.0237082
0.0230512
0.0224638
0.0219374
0.0214647
0.0210411
0.020663
0.0203255
0.0200225
0.0197484
0.0194987
0.0192691
0.0190558
0.0188555
0.0186645
0.0184799
0.0182984
0.0181164
0.0179286
0.0177275
0.0175047
0.0172596
0.0169952
0.0167103
0.016402
0.0160657
0.0156958
0.0152867
0.0148323
0.0143261
0.0137607
0.0131281
0.0124196
0.0116255
0.0107355
0.00973868
0.00862295
0.00737917
0.00599117
0.00446109
0.00277419
0.000926976
0.0193136
0.020938
0.0265543
0.0306243
0.0323718
0.0328624
0.0328117
0.0325038
0.0320032
0.0312663
0.0303217
0.0293059
0.0283912
0.0273967
0.0265631
0.025739
0.0249527
0.0242134
0.0235272
0.022903
0.0223474
0.0218547
0.0214109
0.0210069
0.0206407
0.020311
0.0200139
0.0197446
0.0194987
0.0192722
0.0190614
0.0188629
0.0186733
0.0184897
0.0183089
0.0181279
0.0179431
0.0177488
0.0175384
0.0173048
0.0170446
0.0167591
0.0164495
0.0161128
0.015743
0.015334
0.0148796
0.0143731
0.0138072
0.0131739
0.0124641
0.0116684
0.0107761
0.00977652
0.00865729
0.00740994
0.00601682
0.00448341
0.00278909
0.000930916
0.00606549
0.0100432
0.0171132
0.0223409
0.0254428
0.0274356
0.0285175
0.0290459
0.0292712
0.029153
0.0287147
0.0280987
0.0274025
0.02674
0.0259565
0.0252811
0.0246126
0.0239632
0.0233493
0.0227658
0.0222269
0.0217491
0.0213273
0.020947
0.0206002
0.0202846
0.0199974
0.0197353
0.019495
0.0192729
0.0190656
0.0188697
0.0186821
0.0185
0.0183201
0.0181395
0.017955
0.0177611
0.0175564
0.017337
0.0170905
0.0168113
0.0165032
0.0161664
0.0157966
0.0153878
0.0149337
0.0144275
0.0138616
0.013228
0.0125176
0.0117207
0.0108268
0.00982492
0.00870259
0.00745168
0.00605348
0.00451557
0.00281266
0.000940681
-0.00674459
-0.000758846
0.00725167
0.0134894
0.0181138
0.0215374
0.0237444
0.0251116
0.0260529
0.0265677
0.0266458
0.0264433
0.0260835
0.0256132
0.0251322
0.0245258
0.024043
0.0235305
0.0230285
0.0225411
0.0220668
0.0216237
0.0212255
0.0208679
0.0205428
0.0202454
0.019972
0.0197199
0.0194868
0.01927
0.0190666
0.0188737
0.0186885
0.0185081
0.0183299
0.0181504
0.0179672
0.0177753
0.0175728
0.0173594
0.0171242
0.0168568
0.0165562
0.0162231
0.0158553
0.0154479
0.0149951
0.0144899
0.0139248
0.0132916
0.0125813
0.011784
0.010889
0.00988543
0.00876042
0.00750596
0.00610282
0.00455898
0.00284675
0.000958363
-0.0181608
-0.0110155
-0.00264395
0.00433305
0.0103106
0.0151023
0.0184575
0.0208312
0.0226537
0.0239176
0.0245959
0.0248609
0.0248902
0.0247472
0.0244407
0.0240894
0.0235974
0.0231806
0.0227653
0.0223449
0.021931
0.0215303
0.0211557
0.020813
0.0205009
0.0202153
0.0199518
0.0197079
0.0194813
0.0192696
0.0190703
0.0188808
0.0186984
0.0185204
0.0183442
0.0181664
0.0179843
0.0177938
0.0175937
0.0173811
0.0171484
0.0168891
0.0165981
0.0162721
0.0159091
0.0155053
0.0150553
0.0145523
0.0139891
0.0133574
0.0126481
0.0118513
0.0109562
0.00995174
0.00882494
0.00756745
0.00616017
0.00460984
0.00288856
0.000981866
-0.0276364
-0.0208088
-0.0131519
-0.00599714
0.000809058
0.00680636
0.0112818
0.0146384
0.0174969
0.0197802
0.0212961
0.0222004
0.0227222
0.0229801
0.0230296
0.022933
0.0227563
0.0224574
0.0222107
0.0219241
0.0216173
0.0213017
0.0209884
0.0206883
0.0204071
0.0201446
0.019899
0.0196692
0.0194538
0.0192509
0.0190585
0.0188744
0.0186961
0.0185211
0.0183466
0.0181699
0.0179875
0.0177986
0.0176054
0.0174006
0.0171761
0.0169263
0.0166438
0.0163243
0.0159664
0.0155667
0.0151201
0.0146201
0.0140596
0.0134302
0.012723
0.0119277
0.0110335
0.0100291
0.00890137
0.00764138
0.00623067
0.00467228
0.0029439
0.0010174
-0.0312004
-0.0240413
-0.0165083
-0.00970899
-0.00285958
0.00360498
0.00826229
0.0115663
0.0145469
0.0171563
0.0190685
0.0203638
0.0212493
0.021825
0.0221451
0.0222576
0.0221908
0.0221139
0.0218621
0.0216348
0.0213868
0.0211211
0.0208488
0.0205821
0.020328
0.0200873
0.0198593
0.0196437
0.0194398
0.0192461
0.0190612
0.018883
0.0187093
0.018538
0.0183664
0.0181926
0.0180145
0.0178351
0.0176532
0.0174572
0.0172384
0.0169918
0.0167119
0.0163955
0.0160407
0.0156441
0.0152005
0.0147035
0.0141458
0.0135192
0.0128143
0.0120211
0.0111284
0.0101245
0.00899655
0.00773357
0.00632034
0.00474929
0.00301288
0.00106078
-0.0362222
-0.0278642
-0.0195038
-0.0129083
-0.00611027
0.000818698
0.00562271
0.00873407
0.0117618
0.0146761
0.0168502
0.0183295
0.0194114
0.0202003
0.0207102
0.0209908
0.0211108
0.0210378
0.0211289
0.0210486
0.0209117
0.0207411
0.0205465
0.0203427
0.0201396
0.0199401
0.0197455
0.0195568
0.0193747
0.0191986
0.0190279
0.0188612
0.0186969
0.0185332
0.0183684
0.0182008
0.0180301
0.0178583
0.0176808
0.0174857
0.0172663
0.0170192
0.0167404
0.0164263
0.0160742
0.0156802
0.0152393
0.0147451
0.0141902
0.0135665
0.0128646
0.0120742
0.0111842
0.0101826
0.00905639
0.00779319
0.00637971
0.00480015
0.00305497
0.00107988
-0.0380809
-0.0304269
-0.0220758
-0.0154029
-0.0086073
-0.00155321
0.00322164
0.00612135
0.00913127
0.0122673
0.0146739
0.0163424
0.0176273
0.0186325
0.0193588
0.0198624
0.0202074
0.0204682
0.0204831
0.0204826
0.0204341
0.0203426
0.0202185
0.0200758
0.0199241
0.0197675
0.0196085
0.0194493
0.0192914
0.0191354
0.018981
0.0188276
0.0186742
0.0185195
0.0183623
0.0182017
0.0180375
0.0178683
0.0176881
0.0174895
0.0172678
0.0170199
0.0167417
0.0164288
0.0160777
0.0156846
0.0152446
0.0147512
0.0141973
0.0135746
0.0128739
0.0120849
0.0111964
0.0101963
0.00907156
0.00780867
0.00639575
0.00481113
0.00305816
0.00107822
-0.037102
-0.0315766
-0.0239068
-0.0173101
-0.0107049
-0.00373277
0.00106367
0.00386355
0.00681579
0.0100815
0.0126796
0.0145106
0.0159588
0.0171528
0.0180798
0.0187666
0.0192544
0.019592
0.0197785
0.0198927
0.0199395
0.0199311
0.0198804
0.0198004
0.0197012
0.0195888
0.0194669
0.0193388
0.0192068
0.0190722
0.0189354
0.0187965
0.0186549
0.01851
0.0183607
0.0182067
0.0180464
0.017877
0.0176947
0.0174953
0.0172741
0.017027
0.0167498
0.0164378
0.0160876
0.0156952
0.0152557
0.0147626
0.014209
0.0135865
0.012886
0.0120972
0.0112088
0.0102085
0.00908355
0.00781932
0.00640535
0.00481515
0.00305688
0.0010795
-0.0356497
-0.0317167
-0.0248547
-0.0185944
-0.0122664
-0.00541486
-0.000624391
0.0020415
0.00485032
0.00815066
0.0108844
0.01284
0.0144133
0.0157589
0.0168382
0.0176582
0.0182769
0.0187435
0.0190701
0.0192918
0.019431
0.0195053
0.019528
0.0195109
0.0194651
0.019398
0.0193147
0.0192191
0.0191142
0.0190023
0.0188843
0.0187609
0.0186322
0.0184978
0.0183571
0.0182094
0.018053
0.0178856
0.0177051
0.0175077
0.0172883
0.0170428
0.016767
0.0164567
0.016108
0.015717
0.0152786
0.0147865
0.0142338
0.013612
0.0129121
0.0121237
0.0112356
0.0102352
0.00910973
0.0078437
0.00642772
0.00483158
0.00306834
0.00108767
-0.0335068
-0.0305912
-0.0246746
-0.0190773
-0.0131921
-0.0065617
-0.00186266
0.000628868
0.00324803
0.0065064
0.00930913
0.0113463
0.013004
0.0144515
0.0156456
0.016591
0.0173395
0.0179244
0.0183633
0.0186855
0.0189149
0.0190697
0.0191635
0.0192086
0.0192164
0.0191954
0.0191514
0.0190893
0.0190127
0.0189244
0.0188262
0.0187193
0.0186042
0.018481
0.0183493
0.0182086
0.0180573
0.017894
0.0177165
0.0175213
0.0173038
0.0170598
0.0167857
0.0164772
0.0161304
0.0157411
0.0153042
0.0148137
0.0142622
0.0136417
0.0129429
0.0121554
0.011268
0.0102678
0.00914211
0.00787448
0.00645621
0.00485436
0.00308453
0.00109579
-0.0302208
-0.0284268
-0.0236307
-0.0188532
-0.0135054
-0.00717791
-0.00264365
-0.000364418
0.00202533
0.00517466
0.00798209
0.0100544
0.0117535
0.0132668
0.0145544
0.0156044
0.016454
0.0171356
0.0176719
0.0180865
0.0184003
0.0186311
0.0187931
0.0188989
0.0189598
0.0189848
0.0189805
0.0189524
0.0189048
0.0188411
0.0187636
0.0186739
0.0185732
0.0184618
0.0183397
0.0182066
0.0180614
0.0179026
0.0177282
0.0175352
0.0173196
0.0170774
0.0168051
0.0164985
0.0161536
0.0157661
0.0153309
0.0148418
0.0142917
0.0136725
0.0129748
0.0121884
0.0113016
0.0103017
0.00917572
0.0079064
0.00648549
0.0048779
0.00310028
0.00110259
-0.0264831
-0.0256888
-0.0218969
-0.0179508
-0.0132185
-0.00727798
-0.00297348
-0.000939601
0.00119018
0.00417745
0.0069301
0.00898957
0.0106937
0.0122401
0.013586
0.0147059
0.0156311
0.0163933
0.017013
0.0175081
0.0178976
0.0181981
0.0184241
0.0185876
0.0186998
0.0187697
0.0188048
0.0188108
0.0187925
0.0187538
0.0186975
0.0186257
0.01854
0.018441
0.0183291
0.0182041
0.0180653
0.0179114
0.0177406
0.0175502
0.0173368
0.0170968
0.0168264
0.0165219
0.016179
0.0157933
0.0153598
0.0148723
0.0143237
0.0137058
0.0130094
0.012224
0.0113379
0.0103382
0.00921165
0.00794045
0.00651643
0.00490283
0.00311681
0.00110952
-0.0226536
-0.0225076
-0.019577
-0.0164695
-0.0124023
-0.00689829
-0.0028672
-0.00110544
0.000739332
0.00352232
0.00616907
0.00817171
0.00984384
0.011386
0.0127538
0.0139147
0.0148935
0.0157164
0.0164016
0.0169632
0.0174177
0.0177801
0.0180639
0.0182807
0.0184411
0.018554
0.0186272
0.0186665
0.0186773
0.0186637
0.0186289
0.0185754
0.018505
0.0184189
0.0183176
0.0182012
0.0180693
0.0179207
0.0177539
0.0175667
0.0173559
0.0171182
0.0168501
0.0165477
0.0162069
0.0158233
0.0153916
0.0149059
0.0143589
0.0137426
0.0130475
0.0122631
0.0113778
0.0103782
0.00925096
0.00797767
0.00655012
0.0049302
0.00313516
0.001117
-0.0186894
-0.0190334
-0.0168618
-0.0145433
-0.0111326
-0.00608414
-0.00235678
-0.000888322
0.000652862
0.00320135
0.00570339
0.00761079
0.00921464
0.0107185
0.0120775
0.0132517
0.0142589
0.0151197
0.0158524
0.0164652
0.0169723
0.0173869
0.0177209
0.0179852
0.0181895
0.0183424
0.0184514
0.0185228
0.0185618
0.0185728
0.0185593
0.018524
0.0184692
0.0183961
0.0183057
0.0181983
0.0180736
0.0179308
0.0177685
0.0175848
0.017377
0.0171419
0.0168761
0.0165761
0.0162376
0.0158561
0.0154265
0.0149427
0.0143976
0.0137828
0.0130892
0.012306
0.0114215
0.010422
0.00929398
0.00801842
0.00658692
0.00496027
0.00315546
0.00112504
-0.0147174
-0.0154547
-0.0139126
-0.0122931
-0.00949941
-0.00490231
-0.00148938
-0.000320321
0.000908504
0.00320017
0.00552694
0.0073084
0.00881406
0.0102498
0.0115711
0.0127313
0.0137424
0.0146234
0.0153807
0.0160274
0.0165734
0.0170289
0.0174042
0.0177088
0.0179514
0.0181401
0.018282
0.0183831
0.0184488
0.0184833
0.0184905
0.0184732
0.0184337
0.0183737
0.0182944
0.0181961
0.0180788
0.0179421
0.0177846
0.0176048
0.0174002
0.017168
0.0169049
0.0166074
0.0162713
0.0158922
0.0154648
0.0149831
0.0144399
0.013827
0.013135
0.0123531
0.0114694
0.01047
0.00934109
0.00806303
0.00662717
0.00499329
0.00317788
0.00113378
-0.0108803
-0.01188
-0.0108391
-0.00982518
-0.00759303
-0.00342531
-0.000322524
0.000553596
0.00147532
0.00350025
0.00562968
0.00726097
0.00864443
0.00998626
0.0112433
0.0123641
0.0133542
0.01423
0.0149967
0.0156618
0.0162323
0.0167165
0.017123
0.0174595
0.0177339
0.0179532
0.0181239
0.0182517
0.0183416
0.0183981
0.0184247
0.0184246
0.0184
0.0183529
0.0182844
0.0181953
0.0180857
0.0179552
0.0178028
0.0176272
0.0174261
0.017197
0.0169367
0.0166418
0.0163084
0.0159318
0.0155068
0.0150274
0.0144864
0.0138755
0.0131853
0.0124048
0.011522
0.0105227
0.00939274
0.00811196
0.00667132
0.00502961
0.00320269
0.0011434
-0.0072045
-0.00836773
-0.00772682
-0.00723013
-0.00549489
-0.00172033
0.00108852
0.00168456
0.00230865
0.00406657
0.00598902
0.00745512
0.00869808
0.00992561
0.0110967
0.0121557
0.0131037
0.0139551
0.0147127
0.0153793
0.0159596
0.0164597
0.0168863
0.0172457
0.0175442
0.0177879
0.0179824
0.018133
0.0182443
0.0183204
0.0183648
0.0183805
0.01837
0.0183351
0.0182771
0.018197
0.0180949
0.0179707
0.0178236
0.0176523
0.017455
0.0172291
0.0169719
0.0166799
0.0163492
0.0159753
0.0155529
0.015076
0.0145374
0.0139287
0.0132404
0.0124616
0.0115797
0.0105806
0.00944947
0.00816575
0.00671989
0.00506967
0.00323022
0.00115407
-0.00369953
-0.00496535
-0.00464207
-0.00457994
-0.00327719
0.000143218
0.0026815
0.00301944
0.0033654
0.00486488
0.00657703
0.00786799
0.00895906
0.0100595
0.0111282
0.012106
0.0129969
0.0138066
0.0145374
0.0151892
0.0157645
0.0162676
0.0167029
0.0170753
0.0173896
0.0176507
0.0178633
0.018032
0.0181609
0.0182537
0.0183135
0.0183434
0.0183456
0.018322
0.0182739
0.0182023
0.0181075
0.0179895
0.0178477
0.0176809
0.0174874
0.017265
0.0170109
0.0167219
0.0163941
0.0160231
0.0156035
0.0151293
0.0145933
0.0139871
0.013301
0.0125239
0.0116432
0.0106442
0.00951188
0.00822497
0.00677344
0.00511394
0.00326084
0.00116597
-0.000386032
-0.00170591
-0.00163238
-0.00193327
-0.0010024
0.00210611
0.00440323
0.00451073
0.00460224
0.00585577
0.00736095
0.00847619
0.00941222
0.0103766
0.0113304
0.0122185
0.0130345
0.0137875
0.0144758
0.0150979
0.0156545
0.0161478
0.0165805
0.0169558
0.017277
0.017548
0.0177724
0.0179539
0.018096
0.0182019
0.0182744
0.0183161
0.0183293
0.0183156
0.0182764
0.0182126
0.0181247
0.0180126
0.0178759
0.0177135
0.0175238
0.017305
0.0170542
0.0167683
0.0164436
0.0160756
0.0156591
0.0151879
0.0146547
0.0140512
0.0133676
0.0125924
0.011713
0.0107142
0.00958064
0.00829031
0.00683265
0.00516302
0.00329497
0.00117931
0.00272538
0.0013901
0.00126995
0.000667474
0.00128311
0.00412127
0.00620676
0.00611184
0.00597506
0.00700094
0.00830925
0.00924975
0.0100341
0.010859
0.0116943
0.0124805
0.0132128
0.0138964
0.0145294
0.0151091
0.0156346
0.0161064
0.0165255
0.0168936
0.0172129
0.0174859
0.0177153
0.0179038
0.0180542
0.018169
0.0182508
0.0183017
0.0183236
0.0183182
0.0182865
0.0182296
0.0181478
0.0180411
0.0179091
0.0177509
0.0175651
0.0173497
0.0171023
0.0168197
0.0164982
0.0161335
0.0157202
0.0152522
0.0147222
0.0141216
0.0134407
0.0126678
0.0117898
0.0107913
0.0096565
0.00836252
0.00689825
0.00521755
0.0033331
0.00119431
0.00563635
0.00430583
0.00403115
0.00318449
0.00353873
0.00614571
0.00804891
0.00778148
0.00744623
0.00826798
0.00939707
0.0101869
0.0108103
0.0114933
0.0122043
0.0128832
0.0135231
0.0141284
0.0146966
0.0152236
0.0157073
0.0161469
0.0165423
0.0168939
0.0172025
0.0174697
0.017697
0.0178864
0.0180398
0.0181592
0.0182464
0.0183033
0.0183315
0.0183321
0.0183063
0.0182549
0.0181782
0.0180762
0.0179484
0.0177941
0.0176119
0.0174
0.0171558
0.0168765
0.0165584
0.016197
0.0157872
0.0153227
0.0147962
0.014199
0.013521
0.0127506
0.0118744
0.0108764
0.0097403
0.00844246
0.00697109
0.00527829
0.00337582
0.00121123
0.00835178
0.00704375
0.0066487
0.00559944
0.0057353
0.00814502
0.00989298
0.00948039
0.00897292
0.00961035
0.0105718
0.0112081
0.0116959
0.0122484
0.0128393
0.0134102
0.0139545
0.0144763
0.0149727
0.0154389
0.0158723
0.016271
0.0166338
0.0169602
0.0172501
0.0175038
0.0177222
0.0179063
0.0180572
0.0181763
0.0182649
0.0183242
0.0183556
0.0183599
0.0183381
0.0182905
0.0182176
0.0181193
0.0179951
0.0178441
0.0176652
0.0174564
0.0172155
0.0169395
0.0166248
0.016267
0.0158609
0.0154001
0.0148774
0.0142839
0.0136093
0.0128418
0.0119676
0.0109703
0.00983298
0.0085311
0.00705214
0.00534612
0.00342381
0.00123039
0.0108744
0.00959926
0.00910881
0.00789536
0.00785183
0.0100944
0.0117116
0.0111803
0.0105275
0.0110031
0.0118152
0.0123165
0.0126756
0.0131041
0.0135794
0.0140448
0.0144934
0.0149294
0.01535
0.0157502
0.0161268
0.0164775
0.0168005
0.0170943
0.017358
0.0175914
0.0177942
0.0179669
0.0181099
0.0182238
0.0183094
0.0183675
0.0183989
0.0184042
0.0183839
0.0183384
0.0182678
0.0181719
0.0180503
0.017902
0.0177257
0.0175198
0.0172819
0.0170092
0.0166979
0.0163439
0.0159417
0.015485
0.0149665
0.014377
0.0137064
0.0129421
0.0120703
0.011074
0.00993558
0.00862951
0.0071425
0.00542205
0.00347786
0.00125215
0.0132105
0.011974
0.0114075
0.010062
0.00987278
0.0119742
0.0134824
0.0128565
0.0120836
0.0124191
0.0130993
0.0134807
0.0137233
0.0140377
0.0144046
0.0147692
0.0151245
0.0154752
0.0158185
0.0161498
0.0164655
0.0167632
0.0170406
0.0172957
0.0175272
0.017734
0.0179154
0.018071
0.0182008
0.0183047
0.018383
0.018436
0.018464
0.0184673
0.0184461
0.0184005
0.0183304
0.0182356
0.0181153
0.0179688
0.0177946
0.0175911
0.0173559
0.0170863
0.0167785
0.0164283
0.0160303
0.0155781
0.0150641
0.0144793
0.0138129
0.0130525
0.0121835
0.0111885
0.0100493
0.00873892
0.00724341
0.00550725
0.00353893
0.00127694
0.015367
0.0141718
0.013544
0.0120931
0.011787
0.013769
0.0151868
0.0144882
0.0136181
0.0138335
0.0143987
0.0146755
0.0148152
0.0150267
0.0152942
0.0155646
0.0158313
0.0160993
0.0163662
0.0166279
0.0168808
0.0171224
0.0173503
0.0175623
0.0177566
0.0179317
0.0180865
0.0182201
0.0183318
0.0184212
0.018488
0.018532
0.0185532
0.0185515
0.0185267
0.0184787
0.0184072
0.0183117
0.0181915
0.0180456
0.0178727
0.017671
0.0174382
0.0171714
0.0168671
0.0165209
0.0161273
0.01568
0.0151711
0.0145914
0.0139299
0.0131739
0.0123083
0.011315
0.0101752
0.00886065
0.00735625
0.00560305
0.00360812
0.00130532
0.0173518
0.0161981
0.0155198
0.013986
0.0135871
0.0154676
0.0168105
0.0160585
0.0151122
0.0152256
0.0156915
0.0158785
0.015929
0.0160495
0.0162276
0.0164119
0.0165963
0.0167861
0.0169796
0.017173
0.0173631
0.0175475
0.0177238
0.0178897
0.0180433
0.0181829
0.018307
0.0184143
0.0185037
0.0185745
0.0186259
0.0186573
0.0186684
0.0186586
0.0186275
0.0185747
0.0184997
0.0184018
0.0182801
0.0181337
0.017961
0.0177603
0.0175293
0.0172652
0.0169643
0.0166222
0.0162334
0.0157913
0.015288
0.0147141
0.0140583
0.0133073
0.0124457
0.0114548
0.0103149
0.00899614
0.00748258
0.00571097
0.00368675
0.00133793
0.019172
0.0180587
0.0173379
0.0157403
0.0152693
0.0170622
0.0183428
0.0175545
0.0165506
0.0165783
0.0169591
0.01707
0.0170445
0.0170861
0.0171851
0.0172923
0.0174019
0.0175194
0.017644
0.0177721
0.0179012
0.0180289
0.0181531
0.0182717
0.0183826
0.0184841
0.0185744
0.0186522
0.018716
0.0187647
0.0187973
0.0188129
0.0188107
0.0187899
0.0187499
0.0186898
0.0186091
0.0185068
0.0183821
0.0182336
0.0180601
0.0178596
0.0176299
0.0173681
0.0170705
0.0167326
0.0163489
0.0159126
0.0154157
0.0148483
0.0141988
0.0134537
0.0125969
0.0116091
0.0104696
0.00914692
0.00762408
0.0058327
0.00377634
0.00137556
0.020836
0.0197612
0.0190035
0.0173582
0.0168323
0.0185483
0.0197763
0.0189665
0.0179216
0.0178779
0.018186
0.0182334
0.0181443
0.0181184
0.0181487
0.018188
0.0182307
0.0182829
0.0183441
0.0184114
0.0184826
0.0185557
0.018629
0.0187004
0.018768
0.0188301
0.018885
0.018931
0.0189667
0.0189908
0.0190019
0.0189989
0.0189807
0.0189463
0.0188947
0.018825
0.0187364
0.0186278
0.0184981
0.0183462
0.0181705
0.0179693
0.0177402
0.0174803
0.0171859
0.0168524
0.0164743
0.0160445
0.0155546
0.0149947
0.0143526
0.0136143
0.0127632
0.0117791
0.0106407
0.00931453
0.0077825
0.00597009
0.00387866
0.00141922
0.0223513
0.0213125
0.0205222
0.0188434
0.018277
0.0199235
0.0211056
0.0202872
0.0192163
0.0191133
0.0193594
0.0193543
0.0192131
0.0191303
0.0191019
0.0190824
0.0190666
0.0190607
0.0190648
0.0190766
0.0190942
0.0191161
0.0191407
0.0191664
0.0191914
0.0192142
0.0192331
0.0192464
0.0192527
0.0192503
0.019238
0.0192143
0.0191779
0.0191275
0.0190621
0.0189806
0.0188819
0.0187649
0.0186285
0.0184714
0.0182923
0.0180893
0.01786
0.0176016
0.0173104
0.0169817
0.0166096
0.0161871
0.0157054
0.0151539
0.0145203
0.0137899
0.0129455
0.0119661
0.0108296
0.00950039
0.00795955
0.00612507
0.00399573
0.0014701
0.0237294
0.0227242
0.0219037
0.020203
0.0196076
0.0211877
0.0223272
0.0215107
0.0204265
0.0202742
0.0204669
0.0204188
0.0202356
0.020106
0.0200281
0.0199588
0.0198929
0.0198367
0.0197907
0.0197531
0.0197223
0.0196973
0.0196769
0.0196596
0.0196441
0.0196289
0.0196125
0.0195933
0.0195697
0.0195403
0.0195034
0.0194576
0.0194013
0.0193332
0.019252
0.0191565
0.0190455
0.018918
0.0187729
0.018609
0.0184249
0.0182188
0.0179886
0.0177314
0.0174433
0.0171198
0.0167547
0.0163406
0.0158682
0.0153267
0.0147029
0.0139815
0.0131448
0.012171
0.0110372
0.00970557
0.00815667
0.0062994
0.00412972
0.0015297
0.0249796
0.0240137
0.0231685
0.021458
0.0208425
0.0223548
0.023449
0.0226393
0.0215484
0.0213493
0.0214889
0.0213991
0.021176
0.021002
0.0208774
0.0207613
0.020649
0.0205469
0.0204559
0.0203745
0.0203017
0.0202365
0.020178
0.0201247
0.0200755