/*--------------------------------*- C++ -*----------------------------------*\
| =========                 |                                                 |
| \\      /  F ield         | OpenFOAM: The Open Source CFD Toolbox           |
|  \\    /   O peration     | Version:  2312                                  |
|   \\  /    A nd           | Website:  www.openfoam.com                      |
|    \\/     M anipulation  |                                                 |
\*---------------------------------------------------------------------------*/
FoamFile
{
    version     2.0;
    format      ascii;
    arch        "LSB;label=32;scalar=64";
    class       volScalarField;
    location    "29";
    object      p;
}
// * * * * * * * * * * * * * * * * * * * * * * * * * * * * * * * * * * * * * //

dimensions      [0 2 -2 0 0 0 0];

internalField   nonuniform List<scalar> 
940
(
-0.329246
-0.293903
-0.28637
-0.278534
-0.2611
-0.246866
-0.343066
-0.317621
-0.275666
-0.244468
-0.220449
-0.194932
-0.329877
-0.290688
-0.247924
-0.200383
-0.172523
-0.145874
-0.261224
-0.274336
-0.298706
-0.300664
-0.322685
-0.304961
-0.302131
-0.29223
-0.330939
-0.301596
-0.351547
-0.324239
-0.306864
-0.284566
-0.311187
-0.30265
-0.30527
-0.310616
-0.291002
-0.270023
-0.249684
-0.219026
-0.188448
-0.186686
-0.145697
-0.076836
-0.008881
0.0231881
0.0225102
0.0167804
0.00965523
0.00638437
0.00360571
0.00148893
-0.288577
-0.273962
-0.252383
-0.223009
-0.194941
-0.200149
-0.173373
-0.0936359
-0.0281806
0.00408184
0.0100841
0.00966831
0.00732723
0.00521001
0.00343069
0.00131137
-0.293451
-0.275689
-0.25525
-0.228912
-0.202363
-0.196993
-0.175199
-0.112382
-0.0512535
-0.0127332
0.00116801
0.00586419
0.00572092
0.00443167
0.00311246
0.00111273
-0.253347
-0.260184
-0.240641
-0.215313
-0.189887
-0.175918
-0.153476
-0.103996
-0.0528593
-0.0176741
-0.00172881
0.00477255
0.00491874
0.00425616
0.00288888
0.00108342
-0.194284
-0.205989
-0.193891
-0.179265
-0.16435
-0.150068
-0.130821
-0.0936067
-0.0527308
-0.022281
-0.00697266
0.000667529
0.00299829
0.0033702
0.00254836
0.00105543
-0.15571
-0.174782
-0.175376
-0.16478
-0.148431
-0.134451
-0.118296
-0.0911295
-0.0567579
-0.0272941
-0.0109028
-0.00213033
0.00125844
0.00228038
0.00193928
0.000794472
-0.114263
-0.127798
-0.129574
-0.124047
-0.117568
-0.108264
-0.0948753
-0.0743979
-0.0493229
-0.0271158
-0.0128151
-0.00387806
0.000402233
0.00215104
0.00204678
0.000972288
-0.0838994
-0.0980705
-0.105833
-0.105717
-0.100819
-0.0935529
-0.0843846
-0.0717369
-0.0537601
-0.0340946
-0.0190797
-0.00931627
-0.00356499
-0.000537062
0.000440298
0.000322431
-0.0533171
-0.0632343
-0.0695175
-0.0714548
-0.070081
-0.0667127
-0.0607334
-0.0516192
-0.0395508
-0.0262263
-0.0148319
-0.00656744
-0.00156314
0.00108107
0.00162108
0.000875865
-0.0377652
-0.0462807
-0.0528905
-0.0564583
-0.0574014
-0.0562332
-0.0535094
-0.0489145
-0.041954
-0.0322916
-0.0222861
-0.0137872
-0.00741683
-0.0033646
-0.00123348
-0.000243433
-0.0131839
-0.0190008
-0.024302
-0.028327
-0.0305676
-0.0315071
-0.0309474
-0.0284994
-0.024329
-0.0183098
-0.011662
-0.00583418
-0.00142422
0.00103422
0.00158762
0.000821581
-0.00782399
-0.0127526
-0.0177666
-0.0222412
-0.0257549
-0.0278202
-0.0286686
-0.0282555
-0.0262761
-0.0221535
-0.0166747
-0.0112818
-0.00656628
-0.00329575
-0.00138992
-0.000375439
0.00598997
0.00233813
-0.00163589
-0.00582162
-0.00986934
-0.0127046
-0.0141162
-0.0140854
-0.0124933
-0.00910166
-0.00473415
-0.00114715
0.00122551
0.00214203
0.00190534
0.000779432
-0.127255
-0.164505
-0.21759
-0.107579
-0.127996
-0.160945
-0.0846786
-0.0989554
-0.121842
-0.0664354
-0.0775823
-0.092591
-0.0487011
-0.0562962
-0.0670001
-0.0309614
-0.0361351
-0.0426571
-0.0184144
-0.0228355
-0.0291083
-0.00167055
-0.00493883
-0.00832356
0.00567267
0.00126739
-0.00320364
0.018619
0.0142654
0.00987178
0.0343133
0.0299255
0.0234364
-0.0139447
-0.0354512
-0.226753
-0.0254959
-0.0477786
-0.0632057
-0.131868
-0.16599
-0.374463
-0.0918218
-0.118005
-0.145705
-0.205398
-0.248942
-0.373217
0.191551
0.230262
0.278005
0.33627
0.392634
0.42881
0.161048
0.18555
0.216844
0.252089
0.284533
0.276079
0.100665
0.112589
0.124238
0.125286
0.12011
0.00402203
0.0353469
0.0264885
0.045041
0.0360967
0.0613174
0.0624305
0.0876056
0.104898
0.131363
0.159713
0.0416658
0.0322001
0.0497347
0.0403717
0.0624496
0.0641551
0.083562
0.0997351
0.123068
0.141844
0.0475028
0.0378843
0.0532806
0.0451631
0.0659475
0.0665632
0.0858605
0.0935157
0.108175
0.101078
0.0525656
0.0434915
0.0557632
0.0477547
0.0645238
0.0650285
0.0755524
0.0775606
0.0745357
0.0597177
0.0577934
0.0486496
0.057645
0.0504334
0.0615304
0.0620251
0.0633722
0.0619135
0.0516508
0.0377834
0.0644238
0.0550122
0.0597173
0.0535462
0.0578918
0.0571367
0.0535557
0.0470579
0.0355334
0.0214799
0.0726905
0.0632551
0.0624348
0.0572156
0.0550231
0.0526259
0.0453896
0.0352991
0.0234667
0.0108645
0.0831356
0.0737176
0.0660996
0.0607983
0.0532386
0.0482857
0.038759
0.02741
0.0156707
0.00459594
0.0974992
0.0868631
0.0735676
0.0660031
0.0553743
0.0473608
0.037512
0.0266321
0.0160802
0.00703309
0.116233
0.0998524
0.0799539
0.0690332
0.0569825
0.0470831
0.0370422
0.0266441
0.0168783
0.00886701
0.153937
0.123956
0.099443
0.0826873
0.0683718
0.0570406
0.0469104
0.0371284
0.0281626
0.0211679
0.182396
0.135027
0.106532
0.0877593
0.0722624
0.060387
0.0503888
0.0411537
0.0328205
0.0264114
0.331328
0.180769
0.144213
0.11679
0.0941746
0.077574
0.0651262
0.0551401
0.0466522
0.039879
0.0299713
-0.0260688
-0.0811196
0.0143907
-0.0348006
-0.0754239
0.00325088
-0.0295913
-0.0611724
-0.00427577
-0.0270671
-0.0497544
-0.00823195
-0.0243192
-0.0384296
-0.00284452
-0.014248
-0.0238123
0.000738953
-0.0074893
-0.013755
0.0145157
0.00777289
0.00248654
0.0207262
0.0149918
0.00999805
0.0339722
0.0283772
0.0232094
-0.332576
-0.322074
-0.326778
-0.29756
-0.299709
-0.263213
-0.272159
-0.258908
-0.223357
-0.263408
-0.22724
-0.178102
-0.249596
-0.205669
-0.155922
-0.237846
-0.183952
-0.132881
-0.246224
-0.3082
-0.292681
-0.266756
-0.294978
-0.266164
-0.298963
-0.34503
-0.296876
-0.308431
-0.314491
-0.295149
-0.334041
-0.359378
-0.2941
-0.306681
-0.332331
-0.305634
-0.29845
-0.285546
-0.290458
-0.301582
-0.31777
-0.286482
-0.289508
-0.315037
-0.295203
-0.262024
-0.291607
-0.284237
-0.223563
-0.248918
-0.260854
-0.167907
-0.144415
-0.178342
-0.096598
-0.0354285
-0.0574413
-0.0489749
0.000627402
0.00587787
0.00856336
0.0233619
0.0208558
0.030538
0.0290761
0.0208629
0.0258988
0.025209
0.0209641
0.0180248
0.0167972
0.0140703
0.0103666
0.010163
0.00915866
0.00658419
0.00568747
0.00519676
0.00360768
0.00311753
0.00287701
0.00143017
0.00117107
0.00107733
-0.247248
-0.196871
-0.159005
-0.127405
-0.100643
-0.0864034
-0.0738215
-0.0711879
-0.0674131
-0.0679936
-0.261441
-0.213952
-0.176779
-0.140187
-0.110006
-0.0915469
-0.0759454
-0.0713957
-0.0665408
-0.0661134
-0.257802
-0.211255
-0.179194
-0.143563
-0.114688
-0.0941569
-0.0773625
-0.0709809
-0.0651195
-0.0637032
-0.241882
-0.198934
-0.169041
-0.136898
-0.112718
-0.092872
-0.0770636
-0.0696863
-0.0631872
-0.0611417
-0.216161
-0.177762
-0.150752
-0.122924
-0.104952
-0.0871719
-0.0743601
-0.0671996
-0.0606444
-0.0579481
-0.1608
-0.136482
-0.12217
-0.10216
-0.091329
-0.077449
-0.0688777
-0.0628304
-0.0568785
-0.0539269
-0.0798731
-0.0738291
-0.0825389
-0.0735984
-0.0735787
-0.0646811
-0.0611423
-0.0567198
-0.052052
-0.0492508
-0.024435
-0.0264561
-0.0459344
-0.0459203
-0.0539083
-0.0506173
-0.0519662
-0.0494334
-0.0464502
-0.0441295
0.00450234
-0.00378612
-0.0190326
-0.0242007
-0.0353896
-0.0368789
-0.0418001
-0.0412949
-0.0403422
-0.0386252
0.0120774
0.00561469
-0.00378421
-0.0102789
-0.0203767
-0.0246246
-0.0314562
-0.0329012
-0.0338652
-0.0328468
0.0154755
0.00957249
0.0031313
-0.00320071
-0.0107314
-0.015795
-0.0222455
-0.0250485
-0.0272859
-0.0270303
0.0112094
0.00773232
0.00389244
-0.000458432
-0.00568037
-0.0099969
-0.0150462
-0.0181266
-0.0206809
-0.021187
0.00730249
0.00515542
0.00297173
0.000101516
-0.00315452
-0.00649917
-0.0100998
-0.0129168
-0.015239
-0.01608
0.00424808
0.00313292
0.00203743
0.000188166
-0.00156509
-0.0039242
-0.00621218
-0.00846615
-0.0102741
-0.0110878
0.00238573
0.00179104
0.00128333
0.000207382
-0.000590228
-0.00212189
-0.00319424
-0.00476732
-0.00572102
-0.00650876
0.000955063
0.000661558
0.000682865
0.000107653
0.000203488
-0.00131092
-0.000571814
-0.00176799
-0.00177334
-0.00220093
-0.1216
-0.11049
-0.0943436
-0.087227
-0.0775496
-0.0727623
-0.0685013
-0.0693974
-0.0691734
-0.0725473
-0.163199
-0.133388
-0.110796
-0.0987063
-0.0848693
-0.077677
-0.0712398
-0.0706464
-0.069032
-0.0713403
-0.21106
-0.162559
-0.129664
-0.109625
-0.0906748
-0.0811432
-0.0724616
-0.0710529
-0.0683533
-0.0697239
0.0548867
-0.00697408
-0.0742422
0.0629892
-0.0146648
-0.0943401
0.0679571
-0.023038
-0.112241
0.055655
-0.0743199
-0.170685
0.0438139
-0.0986391
-0.209424
-0.111007
-0.318274
-0.367573
0.200803
0.175945
0.120471
0.243179
0.20995
0.143946
0.296242
0.251906
0.167652
0.359598
0.302105
0.187462
0.42067
0.358746
0.20218
0.462686
0.391382
0.14588
0.0287323
0.0218539
0.0148641
0.0214202
0.0170936
0.0124278
0.038653
0.0314822
0.0262204
0.0323391
0.0287
0.0256664
0.0560043
0.0484839
0.0450875
0.0593714
0.0544765
0.053259
0.084642
0.0751563
0.0764306
0.104923
0.0919879
0.0893354
0.134837
0.121245
0.11381
0.165505
0.148167
0.111141
0.00826525
0.00137455
-0.00718464
-0.0177522
-0.0312766
-0.0483405
-0.069322
-0.107509
-0.129042
-0.26651
0.00812068
0.00399073
-0.0016556
-0.00941594
-0.0193726
-0.0335214
-0.0478941
-0.0760079
-0.0859245
-0.130353
0.0200039
0.0131747
0.00462414
-0.0052558
-0.0170368
-0.0322746
-0.0441511
-0.0701331
-0.0792297
-0.119128
0.0224749
0.0187028
0.0120723
0.00345769
-0.00829342
-0.0248101
-0.0388165
-0.0640268
-0.0732942
-0.101335
0.0366818
0.027484
0.0171472
0.00436882
-0.00901582
-0.0263319
-0.039044
-0.0614536
-0.0702184
-0.0904302
0.0488572
0.0365623
0.0249846
0.00814631
-0.00642553
-0.0267528
-0.0402557
-0.060902
-0.0692681
-0.0843065
0.0584895
0.0421
0.0263698
0.00634591
-0.00928707
-0.0294946
-0.0421199
-0.0605684
-0.0685426
-0.0806882
0.0674971
0.0487857
0.0256702
0.00229197
-0.0139587
-0.0334844
-0.0445334
-0.0604891
-0.0680519
-0.0786424
0.0685558
0.0442882
0.0195745
-0.00377721
-0.0206391
-0.0380642
-0.0476753
-0.0612949
-0.0681998
-0.0773949
0.0646748
0.0371458
0.0105321
-0.0115326
-0.0274086
-0.0424695
-0.0508644
-0.0624262
-0.0686105
-0.0765837
0.0456587
0.0187871
-0.00214249
-0.0215912
-0.0352421
-0.0472896
-0.0542396
-0.0635748
-0.0690965
-0.0757563
-0.013132
-0.0346814
-0.0362705
-0.0450223
-0.0495661
-0.0555737
-0.059006
-0.0654489
-0.0694787
-0.0746564
-0.0704937
-0.0775965
-0.0697723
-0.069723
-0.0658459
-0.0653827
-0.0643603
-0.0676359
-0.0693976
-0.0734987
)
;

boundaryField
{
    outlet
    {
        type            fixedValue;
        value           uniform 0;
    }
    upperWall
    {
        type            symmetryPlane;
    }
    lowerWall
    {
        type            symmetryPlane;
    }
    inlet
    {
        type            zeroGradient;
    }
    cylinder
    {
        type            zeroGradient;
    }
    frontAndBack
    {
        type            empty;
    }
}


// ************************************************************************* //
