/*--------------------------------*- C++ -*----------------------------------*\
| =========                 |                                                 |
| \\      /  F ield         | OpenFOAM: The Open Source CFD Toolbox           |
|  \\    /   O peration     | Version:  2312                                  |
|   \\  /    A nd           | Website:  www.openfoam.com                      |
|    \\/     M anipulation  |                                                 |
\*---------------------------------------------------------------------------*/
FoamFile
{
    version     2.0;
    format      ascii;
    arch        "LSB;label=32;scalar=64";
    class       volVectorField;
    location    "3.5";
    object      U;
}
// * * * * * * * * * * * * * * * * * * * * * * * * * * * * * * * * * * * * * //

dimensions      [0 1 -1 0 0 0 0];

internalField   nonuniform List<vector> 
940
(
(-0.28426 0.244439 2.32436e-19)
(0.969061 -0.0777747 0)
(1.30092 -0.127536 1.02406e-19)
(1.33537 -0.200647 -7.44884e-20)
(1.25408 -0.149829 -4.34346e-20)
(1.14382 -0.143181 3.20016e-20)
(0.414513 0.218969 -2.6658e-19)
(1.36394 0.0180398 8.34792e-21)
(1.42444 0.052377 -5.64155e-20)
(1.32514 -0.0701745 6.68502e-20)
(1.22926 -0.027712 0)
(1.18346 -0.0608972 -2.14467e-20)
(0.990105 0.253 -3.26457e-20)
(1.44298 0.0813465 -1.30352e-20)
(1.34114 0.161554 7.13119e-20)
(1.28908 0.0472772 -3.38745e-20)
(1.23782 0.0739294 1.42292e-20)
(1.16236 0.028342 0)
(-0.273415 0.125222 2.02989e-20)
(-0.319789 -0.0170105 -1.45176e-20)
(-0.149998 -0.125033 9.28413e-21)
(0.0600905 -0.166146 1.33605e-20)
(0.297806 -0.166982 -3.75117e-21)
(0.506632 -0.159737 0)
(-0.315873 0.373771 5.09563e-20)
(-0.0855068 -0.00414939 -1.00483e-20)
(0.250929 -0.277485 4.22249e-21)
(0.54143 -0.403416 -2.86757e-20)
(0.696428 -0.389217 -2.26243e-20)
(0.839523 -0.338644 2.15752e-21)
(-0.388996 0.340428 -9.39616e-20)
(0.398117 -0.0954703 0)
(0.840983 -0.273535 -1.02804e-19)
(1.07348 -0.352396 7.47485e-20)
(1.13612 -0.320822 3.70792e-20)
(1.11612 -0.239467 -2.73096e-20)
(0.661448 -0.0940791 0)
(0.77851 -0.0454745 -3.18208e-21)
(0.852638 -0.0183613 6.19456e-22)
(0.897978 -0.00530808 3.5333e-21)
(0.926113 0.00266875 -1.9044e-21)
(0.94431 0.0104897 4.81711e-22)
(0.956881 0.0179343 0)
(0.965978 0.0248288 2.67317e-22)
(0.972515 0.031506 -2.38453e-22)
(0.977103 0.0384309 -5.02077e-23)
(0.980375 0.0462703 -4.23938e-23)
(0.982789 0.0557592 0)
(0.984696 0.0673926 0)
(0.986198 0.0831196 0)
(0.987786 0.0991921 0)
(0.98891 0.1394 -2.09412e-23)
(0.868353 -0.246122 -1.61334e-21)
(0.878554 -0.143704 -4.68299e-21)
(0.891058 -0.0681731 4.14031e-21)
(0.911306 -0.0241813 -3.53524e-21)
(0.933941 -0.0010965 3.10065e-21)
(0.951857 0.0116979 0)
(0.963491 0.0194325 0)
(0.971122 0.0253021 -4.05948e-23)
(0.976468 0.0310449 0)
(0.980471 0.0374518 -7.86273e-22)
(0.98366 0.0450772 7.89276e-22)
(0.986239 0.05444 7.63132e-23)
(0.988482 0.0662881 0)
(0.990561 0.0822464 -4.59655e-23)
(0.992804 0.0984579 0)
(0.99471 0.139034 2.08962e-23)
(1.06515 -0.218049 -3.63628e-23)
(1.00923 -0.172242 0)
(0.962581 -0.116371 -3.91642e-21)
(0.94212 -0.0711856 3.43962e-21)
(0.94261 -0.0380952 5.08605e-21)
(0.95184 -0.0138087 -4.44994e-21)
(0.961777 0.00349026 0)
(0.970327 0.0159084 4.50645e-23)
(0.977036 0.0254476 1.16625e-21)
(0.982066 0.0340082 -1.0262e-21)
(0.985946 0.0428866 0)
(0.989174 0.053062 -8.11856e-23)
(0.992053 0.0655466 2.41828e-22)
(0.994752 0.0820233 -1.64314e-22)
(0.997689 0.0985643 0)
(1.00058 0.139221 0)
(1.07448 -0.128416 0)
(1.03488 -0.121214 0)
(1.001 -0.0864306 0)
(0.980031 -0.0576021 0)
(0.971693 -0.036708 0)
(0.970422 -0.0173752 0)
(0.972591 -0.000663892 0)
(0.976499 0.0123041 0)
(0.980898 0.0225643 0)
(0.985068 0.0315979 0)
(0.988784 0.0406884 0)
(0.992166 0.0509617 0)
(0.995389 0.0632022 0)
(0.998604 0.0796624 0)
(1.00214 0.096425 0)
(1.0059 0.13809 0)
(1.06896 -0.0883588 0)
(1.04063 -0.0963293 0)
(1.00847 -0.0759868 0)
(0.986759 -0.0504147 0)
(0.979541 -0.0302829 0)
(0.977971 -0.0135249 0)
(0.978274 0.000489006 0)
(0.980836 0.0116785 0)
(0.98455 0.0215075 0)
(0.988287 0.0307171 0)
(0.991827 0.0400961 0)
(0.995266 0.0505084 0)
(0.99877 0.0627857 0)
(1.00246 0.079182 0)
(1.00658 0.0957303 0)
(1.01123 0.137606 0)
(1.06068 -0.0538602 0)
(1.04561 -0.0608651 0)
(1.02092 -0.0524255 0)
(0.998306 -0.039465 0)
(0.989591 -0.0274688 0)
(0.987689 -0.0151625 0)
(0.986593 -0.00271763 0)
(0.987067 0.00882155 0)
(0.989346 0.0190455 0)
(0.99235 0.0286132 0)
(0.995638 0.0383044 0)
(0.999163 0.0489825 0)
(1.00302 0.0614805 0)
(1.0073 0.0780217 0)
(1.01213 0.0945865 0)
(1.01791 0.136934 0)
(1.04509 -0.0270641 0)
(1.04087 -0.0326192 0)
(1.02776 -0.03115 0)
(1.00925 -0.0247697 0)
(1.00001 -0.0166234 0)
(0.996831 -0.00739852 0)
(0.994716 0.002185 0)
(0.994266 0.0115889 0)
(0.995445 0.0205464 0)
(0.997693 0.0293313 0)
(1.00062 0.038458 0)
(1.00416 0.0486662 0)
(1.00837 0.0607328 0)
(1.01334 0.0768883 0)
(1.01905 0.0930795 0)
(1.02637 0.135918 0)
(1.0347 -0.0151532 0)
(1.03672 -0.0192233 0)
(1.03087 -0.020888 0)
(1.0165 -0.0192037 0)
(1.00869 -0.0152522 0)
(1.00589 -0.00953161 0)
(1.00284 -0.00223508 0)
(1.00092 0.00561428 0)
(1.00121 0.0138323 0)
(1.00299 0.0224681 0)
(1.00583 0.031828 0)
(1.00966 0.0424844 0)
(1.01449 0.0551268 0)
(1.02052 0.0719523 0)
(1.02746 0.0887069 0)
(1.03697 0.133509 0)
(1.02128 0.00383894 0)
(1.0262 0.00219988 0)
(1.02787 0.000423155 0)
(1.01853 0.000477181 0)
(1.013 0.00246588 0)
(1.01201 0.00586926 0)
(1.0107 0.0106054 0)
(1.00961 0.0165687 0)
(1.00985 0.0233095 0)
(1.01138 0.0307198 0)
(1.0141 0.0389612 0)
(1.01812 0.0484628 0)
(1.02352 0.0598245 0)
(1.0307 0.0751613 0)
(1.03892 0.0900798 0)
(1.05159 0.133159 0)
(1.0234 -0.0102069 0)
(1.02927 -0.0101839 0)
(1.03053 -0.0110293 0)
(1.02267 -0.0106957 0)
(1.0185 -0.00903813 0)
(1.01795 -0.00659346 0)
(1.0166 -0.00329874 0)
(1.01536 0.000946934 0)
(1.01546 0.00613237 0)
(1.01697 0.0123126 0)
(1.01989 0.0197063 0)
(1.02446 0.0286878 0)
(1.03073 0.0399982 0)
(1.03969 0.0555921 0)
(1.04925 0.0716458 0)
(1.06644 0.121342 0)
(1.01686 0.0192328 0)
(1.0214 0.0195471 0)
(1.02672 0.0181874 0)
(1.02323 0.017423 0)
(1.02093 0.0179086 0)
(1.022 0.0192599 0)
(1.02281 0.0214976 0)
(1.02339 0.02466 0)
(1.0248 0.0287237 0)
(1.02735 0.0337318 0)
(1.03122 0.0398608 0)
(1.03715 0.0473632 0)
(1.04483 0.0569144 0)
(1.05763 0.070036 0)
(1.06923 0.0831813 0)
(1.09988 0.126502 0)
(1.02124 -0.0192411 0)
(1.0265 -0.0190017 0)
(1.03094 -0.0191882 0)
(1.02754 -0.0184068 0)
(1.0256 -0.0168617 0)
(1.02666 -0.015325 0)
(1.02736 -0.0137706 0)
(1.02791 -0.0118975 0)
(1.02935 -0.00952166 0)
(1.03205 -0.0065282 0)
(1.03619 -0.00256168 0)
(1.04278 0.00227367 0)
(1.05099 0.0101196 0)
(1.06622 0.018508 0)
(1.07722 0.0333695 0)
(1.1142 0.0800598 0)
(1.02381 0.0229391 0)
(1.02717 0.0228841 0)
(1.03068 0.0245811 0)
(1.02879 0.0267516 0)
(1.02769 0.0282983 0)
(1.02918 0.0290797 0)
(1.03101 0.0296389 0)
(1.03301 0.0303885 0)
(1.03579 0.0314943 0)
(1.04012 0.03303 0)
(1.04548 0.0352699 0)
(1.05624 0.0380068 0)
(1.06204 0.0431336 0)
(1.10009 0.0477513 0)
(1.08374 0.0585062 0)
(1.20717 0.0920773 0)
(1.12608 0.00913177 -3.86868e-21)
(1.14557 -0.0128307 2.88185e-20)
(1.10135 -0.117984 0)
(1.08371 -0.00739504 3.12755e-21)
(1.09548 0.00772701 -4.8408e-21)
(1.0867 -0.0602423 -1.06207e-20)
(1.05688 -0.00994121 0)
(1.06654 0.0154151 -3.03516e-21)
(1.07163 -0.0317943 5.65273e-21)
(1.03864 0.00100636 -2.72969e-23)
(1.04674 0.012166 2.87539e-23)
(1.05306 -0.0156138 2.28016e-21)
(1.02666 0.000945845 -6.18135e-22)
(1.03537 0.0032709 0)
(1.03944 -0.0105796 0)
(1.02101 0.0110093 6.47768e-22)
(1.02871 0.00906209 -2.57007e-21)
(1.02984 0.00474811 0)
(1.01648 -0.00630125 2.63184e-22)
(1.02362 -0.00793869 2.94825e-21)
(1.0263 -0.0106736 0)
(1.01785 0.0191644 3.12742e-22)
(1.02238 0.018132 -2.53922e-21)
(1.02281 0.0174743 0)
(1.01941 -0.0200539 4.59914e-22)
(1.02141 -0.0214831 9.37973e-22)
(1.02411 -0.0201478 -1.44289e-21)
(1.02575 0.0299794 0)
(1.02617 0.0295415 0)
(1.02606 0.0251189 7.79709e-22)
(0.997824 0.169122 -1.24922e-20)
(1.01195 0.213453 1.69845e-20)
(1.01235 0.282665 4.58421e-21)
(0.99884 0.408561 -5.3883e-21)
(1.06464 0.477036 0)
(0.870165 0.726837 -1.29647e-19)
(1.06822 0.136929 -6.72776e-22)
(1.10686 0.200007 0)
(1.12735 0.218761 2.22468e-20)
(1.14523 0.386345 8.3794e-21)
(1.27324 0.380147 3.815e-20)
(1.10042 0.61262 -4.76239e-20)
(1.11452 0.101839 0)
(1.18265 0.164122 9.90916e-21)
(1.23993 0.160812 -2.44182e-20)
(1.29093 0.305291 2.12925e-20)
(1.41608 0.227401 -5.79953e-21)
(1.10876 0.411768 -3.3095e-20)
(0.824522 0.0399746 0)
(0.792784 0.0542424 2.06653e-20)
(0.713378 0.0706521 -4.53626e-20)
(0.609539 0.0930826 4.65548e-20)
(0.455108 0.134356 2.26727e-20)
(0.211756 0.173731 -3.16861e-20)
(0.854719 0.100005 3.79046e-20)
(0.834955 0.131489 3.42967e-20)
(0.771559 0.186923 2.86864e-20)
(0.690343 0.249139 -5.49726e-20)
(0.585579 0.359066 3.7778e-21)
(0.349372 0.481685 -7.07219e-20)
(0.921575 0.156172 2.93584e-20)
(0.921291 0.197432 -3.99195e-20)
(0.87833 0.266269 -5.25064e-20)
(0.825886 0.364128 4.41157e-20)
(0.798639 0.484009 0)
(0.591153 0.682639 1.30754e-20)
(0.9847 0.108463 4.05324e-22)
(0.982368 0.0170274 -2.50121e-22)
(0.979032 -0.00744057 -2.06818e-23)
(0.973915 -0.0111046 0)
(0.966682 -0.00520919 -1.23366e-21)
(0.961835 -0.00626126 1.71234e-21)
(0.934314 0.0062937 0)
(0.942754 0.014661 2.10025e-22)
(0.881589 0.0138802 0)
(0.889652 0.027209 0)
(0.985157 0.108407 -4.04082e-22)
(0.983548 0.0172613 0)
(0.980096 -0.00662985 -1.09616e-21)
(0.975843 -0.00899285 1.75888e-21)
(0.968059 -0.00516576 3.19131e-22)
(0.967136 0.000600476 -2.10747e-22)
(0.936827 0.00478962 0)
(0.94972 0.0324746 -2.21997e-22)
(0.894285 0.0265814 -2.24953e-20)
(0.901216 0.0738226 -3.63912e-21)
(0.985331 0.108191 9.24427e-22)
(0.984274 0.0158436 -1.17305e-21)
(0.980865 -0.00597261 0)
(0.976221 -0.00520197 0)
(0.969727 -0.00087818 -3.48326e-22)
(0.965578 0.0142134 0)
(0.944115 0.0190082 -2.39558e-20)
(0.953375 0.0568635 6.31841e-20)
(0.917131 0.0687767 -8.37924e-20)
(0.946547 0.124333 5.29395e-20)
(0.985215 0.107341 0)
(0.984803 0.0151608 0)
(0.9824 -0.00644114 0)
(0.977599 -0.00523524 0)
(0.975866 -0.00028647 0)
(0.962352 0.0190325 0)
(0.972335 0.0133952 0)
(0.948772 0.0761494 0)
(0.977263 0.0462347 0)
(0.970267 0.144131 0)
(0.985242 0.107122 0)
(0.985314 0.0163524 0)
(0.983693 -0.00416923 0)
(0.979944 -0.00217719 0)
(0.980478 0.00397115 0)
(0.968121 0.0190876 0)
(0.98538 0.0255646 0)
(0.961013 0.0586181 0)
(0.999329 0.0552673 0)
(0.98698 0.0977563 0)
(0.985435 0.107092 0)
(0.986697 0.015047 0)
(0.986249 -0.00623314 0)
(0.982636 -0.00421237 0)
(0.985731 0.00270105 0)
(0.973196 0.0177167 0)
(0.997619 0.0221103 0)
(0.972756 0.0493598 0)
(1.01137 0.0441841 0)
(1.00289 0.0652684 0)
(0.985256 0.106722 0)
(0.986866 0.0182497 0)
(0.987965 -0.00127973 0)
(0.986775 0.000975707 0)
(0.992898 0.00814643 0)
(0.981728 0.0188487 0)
(1.00874 0.0240233 0)
(0.983348 0.040383 0)
(1.02162 0.0364784 0)
(1.01207 0.048124 0)
(0.986292 0.103998 0)
(0.991066 0.0117285 0)
(0.992846 -0.00868538 0)
(0.991206 -0.00683705 0)
(0.997509 -0.000419686 0)
(0.987119 0.00757431 0)
(1.01474 0.0121184 0)
(0.989451 0.0225172 0)
(1.02473 0.0202704 0)
(1.01425 0.0245498 0)
(0.985671 0.106885 0)
(0.990201 0.0206733 0)
(0.99498 0.00178083 0)
(0.996843 0.00311611 0)
(1.00531 0.0090084 0)
(0.997086 0.0146473 0)
(1.02233 0.0173916 0)
(0.999011 0.0243498 0)
(1.02861 0.0208751 0)
(1.01934 0.0229689 0)
(0.987977 0.0946924 0)
(0.998717 0.00105843 0)
(1.00253 -0.0178425 0)
(1.00261 -0.0164655 0)
(1.00879 -0.0115237 0)
(0.999928 -0.00798957 0)
(1.02199 -0.00543389 0)
(0.998933 -0.00143289 0)
(1.02457 -0.00281097 0)
(1.01504 -0.0027366 0)
(0.988618 0.103681 0)
(1.00167 0.0222372 0)
(1.00858 0.00500745 0)
(1.01088 0.00560185 0)
(1.01667 0.00969702 0)
(1.01146 0.0126218 0)
(1.02773 0.0148762 0)
(1.01131 0.0186583 0)
(1.03001 0.0174455 0)
(1.02274 0.0174733 0)
(0.992237 0.0625581 0)
(1.0131 -0.0217468 0)
(1.01662 -0.034707 0)
(1.01641 -0.0318587 0)
(1.01924 -0.0273787 0)
(1.01427 -0.0244038 0)
(1.02474 -0.0233558 0)
(1.01243 -0.0197717 0)
(1.0239 -0.0215059 0)
(1.02046 -0.0212021 0)
(1.0126 0.0838179 0)
(1.06328 0.0218403 0)
(1.04871 0.0124437 0)
(1.03741 0.0145887 0)
(1.03375 0.0180378 0)
(1.0284 0.0200134 0)
(1.033 0.0230026 0)
(1.0248 0.0225566 0)
(1.03178 0.0252023 0)
(1.02903 0.0254011 0)
(1.02492 0.118523 -2.26279e-20)
(1.06426 0.0895858 1.7633e-21)
(1.11717 0.0911904 2.84617e-21)
(1.0331 0.0839735 2.43111e-21)
(1.04358 0.0736651 7.82613e-22)
(1.10639 0.0684692 -2.30087e-21)
(1.03718 0.065875 8.9822e-22)
(1.03511 0.0448731 -1.40831e-21)
(1.09166 0.0418839 0)
(1.03619 0.0439939 1.87526e-20)
(1.0319 0.0312933 5.81517e-23)
(1.07259 0.0301783 -5.52285e-23)
(1.03202 0.024346 -7.51193e-21)
(1.02639 0.0162448 0)
(1.05554 0.0143337 6.02444e-22)
(1.03065 0.0224198 0)
(1.0252 0.0169417 -1.6512e-22)
(1.04589 0.0145845 -3.30658e-22)
(1.02281 -0.00150327 0)
(1.01876 -0.00404359 -1.68674e-21)
(1.03841 -0.00514028 2.78614e-22)
(1.02814 0.0200557 -2.99392e-21)
(1.02433 0.018976 2.11914e-21)
(1.03582 0.0177498 3.17959e-22)
(1.02105 -0.0202689 3.06358e-21)
(1.01943 -0.0212121 -1.01774e-21)
(1.03076 -0.0215003 4.99341e-22)
(1.02941 0.026129 -9.95043e-22)
(1.02923 0.027723 0)
(1.03456 0.0292845 0)
(-0.212608 -0.250014 -2.34211e-19)
(0.515281 -0.199848 2.06563e-19)
(1.00421 -0.228861 3.50527e-20)
(1.01293 0.0979275 0)
(1.38321 0.0275441 -9.28598e-21)
(1.42852 -0.0518478 -2.50505e-20)
(1.31797 0.141895 -1.04952e-19)
(1.40821 -0.0129411 6.01041e-20)
(1.33282 -0.140865 -4.73634e-20)
(1.32138 0.221049 1.05548e-19)
(1.30801 0.0999315 -4.96881e-20)
(1.28416 -0.0205919 3.66579e-20)
(1.2301 0.171532 4.82393e-20)
(1.22249 0.0529504 -3.59327e-20)
(1.22369 -0.0532335 -1.56043e-20)
(1.12146 0.149692 -3.554e-20)
(1.15692 0.0801401 2.60651e-20)
(1.14766 -0.00858973 0)
(-0.269733 -0.176948 -2.14256e-20)
(-0.312171 -0.396239 -1.23406e-19)
(-0.38082 -0.335442 9.53257e-20)
(-0.298597 0.00895464 -1.20481e-20)
(-0.0339595 0.0146289 1.14659e-20)
(0.474545 0.124807 0)
(-0.115376 0.159692 1.02711e-20)
(0.313457 0.297339 -4.5231e-21)
(0.89888 0.298222 1.05483e-19)
(0.0841356 0.207735 -1.48876e-20)
(0.590988 0.41676 3.65636e-20)
(1.10709 0.373666 -5.07164e-20)
(0.32263 0.207007 4.43366e-21)
(0.742597 0.409162 0)
(1.14327 0.331378 -4.14907e-20)
(0.523407 0.196709 0)
(0.862917 0.351284 -5.12541e-21)
(1.1078 0.251756 3.05593e-20)
(0.67341 0.134294 0)
(0.881501 0.255626 3.90743e-21)
(1.04932 0.222406 0)
(0.782941 0.0840819 2.84227e-21)
(0.881264 0.165755 2.75463e-21)
(0.987765 0.181691 0)
(0.850811 0.0571643 -4.87176e-22)
(0.890687 0.102894 -2.45399e-21)
(0.947149 0.142985 8.63511e-24)
(0.895925 0.0429835 -3.22394e-21)
(0.91185 0.062312 2.46301e-21)
(0.93652 0.103988 0)
(0.925478 0.0360747 1.75152e-21)
(0.931159 0.0411801 -2.16521e-21)
(0.939012 0.0734945 -2.41421e-21)
(0.944307 0.0333379 -4.44325e-22)
(0.945578 0.0328133 0)
(0.945968 0.0545598 2.10847e-21)
(0.956645 0.0326673 0)
(0.956126 0.030923 0)
(0.953994 0.0443485 0)
(0.964928 0.0337083 -2.47321e-22)
(0.963539 0.0322092 0)
(0.960872 0.0400385 0)
(0.970629 0.0366512 2.20617e-22)
(0.968678 0.0354441 0)
(0.965931 0.039886 -8.03407e-22)
(0.974624 0.0413775 4.37966e-23)
(0.972227 0.0403788 6.5009e-22)
(0.96941 0.0428242 7.06919e-22)
(0.977444 0.0479502 3.77542e-23)
(0.974661 0.0470251 -6.57483e-22)
(0.971646 0.0483102 0)
(0.979412 0.0565567 0)
(0.97622 0.0558462 -6.35309e-23)
(0.97287 0.0565507 6.75839e-23)
(0.98083 0.0677485 0)
(0.977125 0.0672336 0)
(0.973373 0.0676054 -2.06361e-22)
(0.981756 0.0832262 0)
(0.97741 0.0828783 4.12352e-23)
(0.973097 0.083139 1.38137e-22)
(0.982695 0.0992266 0)
(0.977663 0.0991732 0)
(0.972669 0.0995007 0)
(0.983024 0.139396 2.17332e-23)
(0.977109 0.139459 -2.16868e-23)
(0.971107 0.139668 0)
(1.06897 0.140811 0)
(1.05813 0.102713 0)
(1.04632 0.0717498 0)
(1.03112 0.0463059 0)
(1.01726 0.0269574 0)
(1.00457 0.0257996 0)
(0.990983 0.00208472 0)
(0.982858 0.0257687 0)
(0.97402 -0.016658 0)
(0.966676 0.0236284 0)
(1.02645 0.127368 0)
(1.02261 0.10368 0)
(1.02303 0.0770148 0)
(1.01582 0.0541341 0)
(1.00577 0.0338811 0)
(0.995986 0.0316208 0)
(0.982692 0.00615885 0)
(0.977107 0.0284322 0)
(0.967696 -0.0156359 0)
(0.962703 0.0244921 0)
(0.985084 0.112243 0)
(0.989068 0.0945369 0)
(0.996556 0.0752999 0)
(0.996246 0.056965 0)
(0.992398 0.0376143 0)
(0.985707 0.0349738 0)
(0.977045 0.0088829 0)
(0.970561 0.029373 0)
(0.962931 -0.0146809 0)
(0.959221 0.0269925 0)
(0.966164 0.0923114 0)
(0.97437 0.0807045 0)
(0.984635 0.0687145 0)
(0.988426 0.0557464 0)
(0.98888 0.0390026 0)
(0.984812 0.0371904 0)
(0.979016 0.0116093 0)
(0.971647 0.0306511 0)
(0.964849 -0.0127835 0)
(0.960396 0.0296827 0)
(0.958091 0.0705254 0)
(0.965923 0.0662612 0)
(0.97551 0.0597723 0)
(0.980499 0.0523943 0)
(0.982942 0.0389713 0)
(0.981079 0.0390092 0)
(0.976944 0.0143635 0)
(0.970802 0.032644 0)
(0.96449 -0.0104619 0)
(0.960092 0.0315526 0)
(0.95585 0.0541079 0)
(0.961102 0.0548708 0)
(0.967913 0.0514841 0)
(0.972168 0.048436 0)
(0.974925 0.0380121 0)
(0.974321 0.0402162 0)
(0.971579 0.0166089 0)
(0.966672 0.0347756 0)
(0.961268 -0.00847151 0)
(0.957226 0.0325995 0)
(0.958121 0.0443071 0)
(0.961063 0.0471838 0)
(0.964921 0.0453634 0)
(0.967689 0.0450226 0)
(0.969666 0.0368955 0)
(0.969242 0.0410133 0)
(0.967285 0.018544 0)
(0.962724 0.036939 0)
(0.958184 -0.00673356 0)
(0.953861 0.0333685 0)
(0.961885 0.0397192 0)
(0.9631 0.0429244 0)
(0.964555 0.0418982 0)
(0.965712 0.0429098 0)
(0.966427 0.0363879 0)
(0.965436 0.041891 0)
(0.963618 0.0205263 0)
(0.958927 0.0392258 0)
(0.954945 -0.00495771 0)
(0.950026 0.0342149 0)
(0.965312 0.0391649 0)
(0.965203 0.0419395 0)
(0.964912 0.0412267 0)
(0.964558 0.0426193 0)
(0.96392 0.037092 0)
(0.961913 0.0433622 0)
(0.959758 0.0228964 0)
(0.954536 0.0417962 0)
(0.950812 -0.00295516 0)
(0.94516 0.0352821 0)
(0.967905 0.0417401 0)
(0.966821 0.0439279 0)
(0.965327 0.0432514 0)
(0.96368 0.0444688 0)
(0.961771 0.0394961 0)
(0.958504 0.0459392 0)
(0.955655 0.0260882 0)
(0.949404 0.0449451 0)
(0.945596 -0.000541166 0)
(0.938723 0.0366816 0)
(0.969562 0.0469933 0)
(0.967754 0.0486232 0)
(0.965385 0.0478856 0)
(0.96266 0.0486642 0)
(0.959588 0.0440224 0)
(0.954961 0.0501339 0)
(0.951159 0.0306554 0)
(0.943419 0.0491274 0)
(0.939211 0.00270357 0)
(0.930958 0.0387055 0)
(0.970312 0.0549193 0)
(0.967887 0.0560845 0)
(0.964782 0.0552773 0)
(0.961099 0.0555029 0)
(0.956889 0.0511409 0)
(0.950823 0.0564868 0)
(0.945771 0.0372233 0)
(0.935872 0.0548461 0)
(0.930698 0.00692834 0)
(0.918447 0.0413817 0)
(0.970299 0.0657925 0)
(0.967268 0.0666351 0)
(0.963446 0.0657548 0)
(0.958829 0.0654332 0)
(0.953436 0.0614419 0)
(0.945901 0.0656781 0)
(0.939438 0.0468299 0)
(0.927211 0.0631462 0)
(0.921234 0.0143604 0)
(0.909282 0.0465826 0)
(0.969413 0.0813614 0)
(0.965726 0.0818786 0)
(0.961101 0.0809117 0)
(0.95542 0.080082 0)
(0.948565 0.0765281 0)
(0.939181 0.079191 0)
(0.930355 0.0608452 0)
(0.913263 0.0747354 0)
(0.90403 0.0219035 0)
(0.870482 0.0511687 0)
(0.968329 0.0979337 0)
(0.963984 0.0982471 0)
(0.958556 0.0973402 0)
(0.951851 0.0963153 0)
(0.943635 0.093511 0)
(0.932806 0.0946705 0)
(0.922666 0.0787974 0)
(0.903263 0.0906741 0)
(0.89546 0.0431873 0)
(0.881472 0.0690424 0)
(0.965847 0.138797 0)
(0.960557 0.138864 0)
(0.9539 0.138229 0)
(0.945529 0.137395 0)
(0.934881 0.135688 0)
(0.920742 0.134637 0)
(0.904915 0.124193 0)
(0.872112 0.128022 0)
(0.856528 0.0813367 0)
(0.748362 0.0968727 0)
(1.12218 -0.00460614 6.41286e-21)
(1.08205 0.00714146 -5.18428e-21)
(1.05656 0.0159701 0)
(1.04045 0.00974757 -8.69959e-23)
(1.02351 0.00436688 -3.73908e-22)
(1.00754 0.00938858 3.71686e-22)
(0.99751 -0.00761763 7.13522e-23)
(0.983529 0.0174653 9.94047e-23)
(0.976456 -0.0207425 1.00791e-22)
(0.965528 0.0297197 0)
(1.11994 0.0312134 -3.71995e-20)
(1.07748 0.00635451 4.22014e-21)
(1.05106 0.00673381 6.4452e-21)
(1.02816 0.00482685 9.16397e-23)
(1.01125 0.00525794 0)
(0.996591 0.0107244 -7.09484e-23)
(0.988498 -0.0058105 3.04474e-22)
(0.977159 0.0189004 -5.40194e-22)
(0.973392 -0.0209978 2.56774e-22)
(0.964186 0.0291856 0)
(1.08171 0.146349 3.01191e-20)
(1.07129 0.08907 -4.65211e-21)
(1.04996 0.0579782 -4.73076e-21)
(1.02644 0.0356551 -1.433e-20)
(1.01089 0.019052 4.5011e-21)
(0.996145 0.0194324 0)
(0.987315 -0.00230892 0)
(0.977307 0.0215352 4.455e-22)
(0.971597 -0.0183096 -8.67997e-22)
(0.964754 0.0250374 2.03081e-22)
(0.98183 -0.174737 7.36504e-21)
(1.05018 -0.150741 -3.57207e-21)
(1.1076 -0.0828499 0)
(1.00725 -0.226739 -1.00134e-20)
(1.09056 -0.204137 -9.68658e-21)
(1.16776 -0.153917 -1.10897e-20)
(1.00486 -0.291464 6.33525e-22)
(1.11594 -0.227509 -1.35855e-20)
(1.22239 -0.144858 2.69596e-20)
(0.994955 -0.419982 -8.71038e-22)
(1.13657 -0.388435 -7.51332e-21)
(1.27907 -0.289587 1.09106e-22)
(1.06471 -0.485681 0)
(1.26425 -0.378116 -3.91137e-20)
(1.41651 -0.216009 -2.50114e-20)
(0.88158 -0.737677 1.40483e-19)
(1.10214 -0.614507 -2.37925e-20)
(1.1211 -0.40723 3.49875e-20)
(0.821534 -0.0383867 0)
(0.856867 -0.101125 -3.51918e-20)
(0.923891 -0.140452 -2.46566e-20)
(0.790278 -0.0499078 -2.03712e-20)
(0.83791 -0.126298 0)
(0.925115 -0.180577 3.35269e-20)
(0.712805 -0.0691208 4.4828e-20)
(0.772165 -0.17542 -5.36647e-20)
(0.884137 -0.257131 2.86923e-20)
(0.613479 -0.095347 -7.43147e-20)
(0.6915 -0.239018 5.34533e-20)
(0.830134 -0.359135 -3.9449e-20)
(0.464005 -0.13384 1.63828e-20)
(0.591482 -0.354277 -4.09853e-21)
(0.80551 -0.482785 0)
(0.217719 -0.16396 3.18053e-20)
(0.35795 -0.48162 1.13553e-19)
(0.599351 -0.688284 -1.57126e-20)
(0.98419 0.108132 -3.21499e-22)
(0.983849 0.107401 3.20512e-22)
(0.983819 0.106505 -5.42493e-22)
(0.981149 0.0162793 -1.85858e-22)
(0.980069 0.0148636 4.19681e-22)
(0.979397 0.0121935 6.88499e-22)
(0.978253 -0.00883378 -3.33466e-24)
(0.977457 -0.0104943 3.52272e-22)
(0.976327 -0.0132368 5.38848e-22)
(0.971908 -0.0141202 0)
(0.970757 -0.0154059 -1.41142e-21)
(0.96935 -0.0167454 0)
(0.968014 -0.01031 1.17459e-21)
(0.970447 -0.0122872 -2.52786e-22)
(0.971016 -0.0225976 2.75914e-22)
(0.954849 -0.0193313 -1.62356e-21)
(0.950726 -0.0265317 -1.72455e-22)
(0.93772 -0.0279009 4.05088e-22)
(0.93721 -0.0087787 0)
(0.948617 -0.00196805 0)
(0.970544 -0.0233137 1.9731e-20)
(0.938771 -0.0177894 -1.97166e-22)
(0.939646 -0.0472215 2.08406e-22)
(0.925391 -0.0784894 -5.21495e-20)
(0.878649 -0.0263065 0)
(0.890825 -0.0399839 2.06826e-20)
(0.904938 -0.0702908 3.39788e-20)
(0.886546 -0.0327996 0)
(0.900138 -0.0785388 3.60731e-21)
(0.941477 -0.118833 0)
(0.983917 0.105168 0)
(0.983912 0.10447 0)
(0.98365 0.104069 0)
(0.983975 0.103212 0)
(0.982983 0.0997272 0)
(0.983647 0.102223 0)
(0.981517 0.0901606 0)
(0.980844 0.0989473 0)
(0.977415 0.0593573 0)
(0.956019 0.0829613 0)
(0.979132 0.0100648 0)
(0.979239 0.0109454 0)
(0.978341 0.00776478 0)
(0.979321 0.0102962 0)
(0.976347 0.00227011 0)
(0.978287 0.0107809 0)
(0.972155 -0.00842249 0)
(0.96932 0.0129719 0)
(0.960569 -0.0272219 0)
(0.909505 0.018279 0)
(0.974927 -0.0149137 0)
(0.974889 -0.0142179 0)
(0.974181 -0.0179598 0)
(0.974569 -0.014554 0)
(0.973421 -0.023071 0)
(0.973456 -0.0126769 0)
(0.970453 -0.0310206 0)
(0.965158 -0.00604307 0)
(0.959891 -0.0413862 0)
(0.928993 0.00940815 0)
(0.972372 -0.0174241 0)
(0.973558 -0.0190933 0)
(0.974217 -0.0232152 0)
(0.974781 -0.020542 0)
(0.975017 -0.0283896 0)
(0.974074 -0.0170499 0)
(0.972811 -0.0334657 0)
(0.966525 -0.00715233 0)
(0.962925 -0.0393068 0)
(0.942812 0.0118569 0)
(0.960149 -0.0270785 0)
(0.959304 -0.0248723 0)
(0.962021 -0.0273889 0)
(0.96512 -0.0230806 0)
(0.968412 -0.0293177 0)
(0.969219 -0.0169499 0)
(0.9699 -0.0315015 0)
(0.96505 -0.00444175 0)
(0.963277 -0.035282 0)
(0.949142 0.0153681 0)
(0.970323 -0.0229851 0)
(0.984041 -0.0302788 0)
(0.985376 -0.0349154 0)
(0.986063 -0.0301911 0)
(0.987519 -0.0337081 0)
(0.984278 -0.0186274 0)
(0.983925 -0.0308455 0)
(0.973993 -0.00278308 0)
(0.970686 -0.0323848 0)
(0.956321 0.0175141 0)
(0.940484 -0.0270603 0)
(0.92901 -0.0353568 0)
(0.943229 -0.0328011 0)
(0.95456 -0.0298121 0)
(0.962201 -0.032165 0)
(0.964084 -0.0173604 0)
(0.966359 -0.0285596 0)
(0.961932 -8.35347e-05 0)
(0.963019 -0.0307783 0)
(0.953878 0.0204807 0)
(0.958163 -0.111363 0)
(0.989925 -0.0742689 0)
(1.00165 -0.0624631 0)
(1.00199 -0.0427896 0)
(1.00502 -0.0357358 0)
(0.997782 -0.0159968 0)
(0.996451 -0.0255699 0)
(0.981869 0.00358577 0)
(0.977109 -0.0267407 0)
(0.963179 0.0204799 0)
(0.955933 -0.0307825 0)
(0.971934 -0.0476318 0)
(0.970261 -0.052439 0)
(0.975517 -0.0380359 0)
(0.977271 -0.0347198 0)
(0.973019 -0.0161973 0)
(0.974184 -0.0251803 0)
(0.964758 0.00382421 0)
(0.966809 -0.0277238 0)
(0.956902 0.0233969 0)
(0.972011 -0.120957 0)
(0.986309 -0.0999851 0)
(0.998916 -0.061698 0)
(1.00436 -0.0489863 0)
(1.00225 -0.0362568 0)
(0.992501 -0.0156531 0)
(0.989286 -0.0244562 0)
(0.975772 0.00490575 0)
(0.972124 -0.0266014 0)
(0.960942 0.0235284 0)
(0.996915 -0.114501 0)
(0.998956 -0.0868648 5.66412e-21)
(1.01083 -0.0662512 -2.53742e-21)
(1.00288 -0.0385041 -1.5954e-21)
(1.00094 -0.0282536 0)
(0.98826 -0.00964165 0)
(0.986238 -0.0193513 0)
(0.972081 0.00986805 -1.64199e-22)
(0.972305 -0.0244445 2.1772e-22)
(0.961022 0.024653 -2.693e-22)
(1.06076 -0.091382 5.92794e-21)
(1.03852 -0.0567795 -2.36157e-22)
(1.03524 -0.0477769 -1.70225e-21)
(1.02194 -0.0226127 4.36392e-23)
(1.01207 -0.0196034 0)
(0.99791 -0.00460461 -3.99989e-23)
(0.991716 -0.016492 -2.97455e-22)
(0.975848 0.0115261 5.72347e-22)
(0.974207 -0.0240956 -2.13161e-22)
(0.961166 0.0268785 0)
(1.11436 -0.0823568 -4.8701e-21)
(1.07197 -0.0499534 3.93703e-21)
(1.0412 -0.0357693 0)
(1.01929 -0.0203695 -4.14451e-23)
(0.998373 -0.0146482 2.32776e-22)
(0.984149 -0.00182312 -1.50612e-22)
(0.975331 -0.0134764 4.08649e-23)
(0.965618 0.0129526 7.69418e-23)
(0.96451 -0.0231718 1.00827e-22)
(0.956567 0.0289121 0)
)
;

boundaryField
{
    outlet
    {
        type            zeroGradient;
    }
    upperWall
    {
        type            symmetryPlane;
    }
    lowerWall
    {
        type            symmetryPlane;
    }
    inlet
    {
        type            fixedValue;
        value           uniform (0.9848 0.1736 0);
    }
    cylinder
    {
        type            fixedValue;
        value           uniform (0 0 0);
    }
    frontAndBack
    {
        type            empty;
    }
}


// ************************************************************************* //
