/*--------------------------------*- C++ -*----------------------------------*\
| =========                 |                                                 |
| \\      /  F ield         | OpenFOAM: The Open Source CFD Toolbox           |
|  \\    /   O peration     | Version:  2312                                  |
|   \\  /    A nd           | Website:  www.openfoam.com                      |
|    \\/     M anipulation  |                                                 |
\*---------------------------------------------------------------------------*/
FoamFile
{
    version     2.0;
    format      ascii;
    arch        "LSB;label=32;scalar=64";
    class       volScalarField;
    location    "36";
    object      p;
}
// * * * * * * * * * * * * * * * * * * * * * * * * * * * * * * * * * * * * * //

dimensions      [0 2 -2 0 0 0 0];

internalField   nonuniform List<scalar> 
5478
(
-0.251133
-0.25207
-0.2506
-0.247181
-0.241394
-0.232809
-0.221576
-0.208414
-0.194511
-0.18111
-0.169682
-0.160426
-0.154456
-0.15052
-0.148656
-0.255877
-0.255638
-0.253608
-0.249818
-0.243619
-0.234526
-0.222671
-0.209031
-0.194901
-0.181566
-0.169699
-0.159673
-0.151475
-0.144639
-0.139444
-0.262951
-0.260858
-0.257506
-0.252551
-0.245176
-0.234772
-0.221724
-0.20723
-0.192583
-0.178686
-0.166105
-0.155058
-0.145609
-0.137572
-0.13112
-0.272381
-0.267928
-0.262649
-0.255806
-0.246227
-0.233558
-0.218678
-0.202933
-0.187437
-0.17301
-0.159979
-0.148494
-0.138345
-0.129382
-0.121601
-0.285154
-0.277943
-0.270229
-0.260473
-0.247268
-0.23124
-0.213943
-0.196709
-0.180438
-0.165535
-0.152121
-0.140148
-0.129381
-0.119911
-0.111632
-0.302194
-0.291325
-0.280679
-0.266296
-0.247823
-0.227602
-0.207588
-0.188784
-0.171578
-0.156089
-0.142268
-0.129982
-0.119047
-0.10945
-0.100634
-0.323374
-0.307605
-0.292425
-0.271225
-0.246334
-0.221612
-0.198803
-0.178324
-0.16015
-0.144113
-0.130002
-0.11759
-0.106676
-0.0971265
-0.0884617
-0.345493
-0.325032
-0.301965
-0.272042
-0.240542
-0.211581
-0.186186
-0.164199
-0.145182
-0.128741
-0.114522
-0.102245
-0.091711
-0.0826988
-0.0747186
-0.340558
-0.341467
-0.34191
-0.343294
-0.345581
-0.348475
-0.351665
-0.35479
-0.357355
-0.359393
-0.360506
-0.360415
-0.358958
-0.35647
-0.353898
-0.319445
-0.320357
-0.320003
-0.319795
-0.319726
-0.31948
-0.318735
-0.317178
-0.314708
-0.311257
-0.306911
-0.30193
-0.296849
-0.292443
-0.289417
-0.300336
-0.301152
-0.300143
-0.298568
-0.296411
-0.293367
-0.289163
-0.283649
-0.27682
-0.26884
-0.260147
-0.251637
-0.243487
-0.239012
-0.232103
-0.283912
-0.284688
-0.283278
-0.280696
-0.276884
-0.271581
-0.264598
-0.255896
-0.245675
-0.234363
-0.22217
-0.212779
-0.200982
-0.198196
-0.192554
-0.270393
-0.271288
-0.269722
-0.266479
-0.261437
-0.254385
-0.245272
-0.234176
-0.221424
-0.208559
-0.193568
-0.184177
-0.170746
-0.170022
-0.166811
-0.259902
-0.261064
-0.259483
-0.255821
-0.249895
-0.241574
-0.230964
-0.218323
-0.203872
-0.190181
-0.17389
-0.165962
-0.153462
-0.153176
-0.154341
-0.252806
-0.254222
-0.25266
-0.248795
-0.242445
-0.233478
-0.222215
-0.209016
-0.194491
-0.180593
-0.166147
-0.15748
-0.149985
-0.14905
-0.153834
-0.249791
-0.25121
-0.249734
-0.24601
-0.239852
-0.231176
-0.219974
-0.206883
-0.192817
-0.179044
-0.166957
-0.157735
-0.152651
-0.151424
-0.155912
-0.352212
-0.3656
-0.410512
-0.488756
-0.57752
-0.662397
-0.662213
-0.546541
-0.362237
-0.212824
-0.103358
-0.0325477
1.45434e-05
0.0124272
0.0106447
0.00881432
0.0123768
0.0147125
0.0164765
0.0173553
0.0159585
0.014735
0.0126405
0.00968738
0.00802821
0.00632914
0.00443139
0.00377266
0.0029993
0.00205302
0.0017603
0.00177829
0.00111399
0.000792174
0.000790913
0.000575743
0.000222067
5.43588e-05
-0.29708
-0.331638
-0.402967
-0.492868
-0.585757
-0.664885
-0.660198
-0.537218
-0.357024
-0.209897
-0.107573
-0.0336332
0.00613437
0.0243566
0.0216834
0.0150819
0.0139411
0.0133559
0.0154988
0.0165519
0.0156173
0.0152247
0.0128281
0.0101283
0.00844439
0.00644583
0.00463518
0.0038865
0.00306717
0.00209836
0.00180994
0.00185661
0.00110523
0.00084251
0.000840541
0.000555518
0.000240655
6.79863e-05
-0.248095
-0.296071
-0.380969
-0.475877
-0.568437
-0.639264
-0.633849
-0.514939
-0.346756
-0.205548
-0.109333
-0.0384339
0.00398772
0.0271931
0.0267693
0.0184539
0.0143289
0.0116141
0.0142511
0.0156534
0.0151702
0.0154752
0.0129304
0.0105654
0.00883381
0.00656235
0.00492615
0.0040041
0.00312308
0.00217012
0.00188079
0.00189448
0.0011154
0.00089911
0.000878669
0.000539433
0.000259983
8.06925e-05
-0.20917
-0.262635
-0.349628
-0.443948
-0.532234
-0.600509
-0.593122
-0.482859
-0.333484
-0.205721
-0.112514
-0.0447414
-0.000947675
0.0237028
0.0266781
0.019086
0.0138847
0.0103852
0.0130093
0.0147209
0.0146309
0.0153183
0.0128757
0.010858
0.00909082
0.00668787
0.00523906
0.00411855
0.00316519
0.00226683
0.00196998
0.00188453
0.00114681
0.000960536
0.000902107
0.000529447
0.000279968
9.19532e-05
-0.182166
-0.234592
-0.315718
-0.404967
-0.488244
-0.551153
-0.545285
-0.448503
-0.320724
-0.207989
-0.119743
-0.0533014
-0.00807636
0.0187922
0.0246142
0.0193292
0.0140835
0.0100762
0.0119984
0.0136911
0.013921
0.0147428
0.0126254
0.0109598
0.00916576
0.00679391
0.00548905
0.00421997
0.00319208
0.00237455
0.0020635
0.001836
0.00119402
0.00102258
0.000910809
0.000526715
0.000300024
0.000101272
-0.16696
-0.210982
-0.281728
-0.361849
-0.435539
-0.492955
-0.486547
-0.408457
-0.305367
-0.208782
-0.128556
-0.0635791
-0.0176969
0.0118965
0.0214044
0.018612
0.0140123
0.0101183
0.0110735
0.0125315
0.013016
0.0138329
0.0121487
0.0107749
0.00906044
0.00685868
0.00563953
0.00430112
0.00320874
0.00247844
0.00214655
0.00176883
0.0012474
0.00108081
0.000907036
0.000531395
0.000319554
0.000108322
-0.166934
-0.196433
-0.254505
-0.325403
-0.390968
-0.438924
-0.439041
-0.381059
-0.297366
-0.211153
-0.138284
-0.0750767
-0.0280235
0.00405056
0.0171924
0.0172327
0.0138974
0.0101505
0.0101718
0.0113532
0.0120159
0.0128686
0.0116619
0.0104627
0.00886247
0.00684458
0.00568896
0.00435281
0.00321447
0.00256173
0.00221145
0.00170332
0.001296
0.00113147
0.000894723
0.000543436
0.000337917
0.000112912
-0.167739
-0.184193
-0.218812
-0.270584
-0.323607
-0.367532
-0.371046
-0.341106
-0.285142
-0.216991
-0.152262
-0.0914544
-0.0437889
-0.00891996
0.00970212
0.0135025
0.0122081
0.00951244
0.0092051
0.010168
0.0109305
0.0117559
0.0109715
0.00994681
0.00861991
0.00683328
0.00568646
0.00439457
0.00324246
0.0026241
0.00225656
0.00166121
0.0013399
0.00117009
0.000874817
0.000564788
0.000355006
0.000114563
-0.162493
-0.178228
-0.202655
-0.238621
-0.276352
-0.305649
-0.313774
-0.293049
-0.248877
-0.192433
-0.136696
-0.0856938
-0.0432018
-0.0124054
0.00538896
0.0103847
0.0103376
0.00845081
0.00810955
0.00906299
0.00985948
0.0108192
0.0103683
0.00941323
0.00822439
0.00660945
0.00560868
0.00437324
0.0031865
0.00269589
0.00229276
0.00155922
0.00142264
0.00120963
0.000819344
0.000600932
0.000375006
0.000112187
-0.147925
-0.166595
-0.18554
-0.207104
-0.227988
-0.245504
-0.24962
-0.234155
-0.202716
-0.162355
-0.120548
-0.0810194
-0.0462787
-0.0198564
-0.00294395
0.00413141
0.00612789
0.00596659
0.00621261
0.00724251
0.00808676
0.0089083
0.00866373
0.00803809
0.00740827
0.00612882
0.00523899
0.00417096
0.00309757
0.00266085
0.00224052
0.0015138
0.00143973
0.00119085
0.000787515
0.000631221
0.000377489
0.000105518
-0.130417
-0.149556
-0.164505
-0.177517
-0.189703
-0.198837
-0.201485
-0.193438
-0.173767
-0.14461
-0.111532
-0.07829
-0.0479389
-0.0239437
-0.0080938
-0.000359296
0.0027381
0.00356721
0.00427275
0.0055337
0.00666698
0.00765869
0.0077895
0.00744426
0.00675083
0.00569151
0.00489881
0.00398368
0.00301194
0.00259235
0.00218249
0.0015045
0.00142407
0.00116608
0.000772035
0.000644358
0.000376577
0.000101509
-0.113054
-0.13021
-0.142665
-0.151564
-0.158501
-0.163164
-0.164213
-0.158422
-0.1434
-0.121224
-0.0960579
-0.0709739
-0.0474839
-0.0276885
-0.0134573
-0.00519439
-0.000977479
0.000981426
0.00240333
0.00386875
0.00505125
0.00602023
0.00629901
0.00621606
0.00591532
0.00510834
0.00447778
0.00373199
0.00288556
0.00247982
0.00210754
0.00149196
0.00139835
0.00113785
0.00075183
0.000655635
0.000380319
9.79259e-05
-0.0956531
-0.110687
-0.121168
-0.127554
-0.131578
-0.133792
-0.133526
-0.12929
-0.119846
-0.105252
-0.0873474
-0.0678894
-0.0484725
-0.0311728
-0.0180207
-0.00950926
-0.0044976
-0.00176065
9.32287e-05
0.00182129
0.00330642
0.00459172
0.00512917
0.00531633
0.00513672
0.00457135
0.00405198
0.00346455
0.00274747
0.00235695
0.00202661
0.00147766
0.00137149
0.00110005
0.000731711
0.000669816
0.000381435
9.23526e-05
-0.0796566
-0.092502
-0.101443
-0.106466
-0.108975
-0.109914
-0.1093
-0.106375
-0.0999547
-0.0894975
-0.0757563
-0.0605644
-0.0454974
-0.0316458
-0.0204208
-0.0124787
-0.00724801
-0.00401765
-0.00168343
0.000338553
0.00189524
0.00303391
0.0038129
0.00418582
0.00425178
0.00392718
0.00355523
0.0031332
0.0025552
0.00219864
0.00192348
0.00143728
0.00133444
0.00105872
0.000709716
0.000679464
0.00037966
8.67395e-05
-0.0656766
-0.076276
-0.0836877
-0.087723
-0.0894619
-0.0898974
-0.0892167
-0.0870288
-0.0825943
-0.075411
-0.0657782
-0.0547552
-0.0433488
-0.0322406
-0.0225297
-0.0151185
-0.00983376
-0.00629728
-0.0037827
-0.00167266
0.00014356
0.00152922
0.00252727
0.00311728
0.00337515
0.00328765
0.0030557
0.00277853
0.00234494
0.00203886
0.00180863
0.00138027
0.00129636
0.00101707
0.000680579
0.000685625
0.000379458
8.1508e-05
-0.0534295
-0.0620718
-0.0681936
-0.0715475
-0.0729038
-0.0731379
-0.0725782
-0.071065
-0.0681408
-0.0633419
-0.0566771
-0.0485911
-0.0398539
-0.031092
-0.0231333
-0.0166435
-0.0116515
-0.00803057
-0.00530304
-0.00302266
-0.001149
0.000315681
0.00135709
0.0021008
0.00251319
0.00263087
0.00253118
0.00238896
0.00209715
0.00185227
0.00167445
0.00130395
0.00125103
0.000971683
0.000646172
0.000689533
0.000378695
7.26289e-05
-0.0429517
-0.0498962
-0.0548676
-0.0576504
-0.0587847
-0.0590122
-0.0586565
-0.0577007
-0.0558394
-0.0526992
-0.0481645
-0.0423972
-0.0359768
-0.0293585
-0.0230409
-0.0174273
-0.0127913
-0.0093006
-0.0066847
-0.00450396
-0.00255634
-0.0010056
0.000198504
0.00106805
0.00164005
0.0019453
0.00198557
0.0019738
0.00181837
0.00164179
0.00152276
0.00121064
0.0011918
0.000924175
0.000617461
0.000691223
0.00038126
7.59355e-05
-0.0340787
-0.0395938
-0.0436017
-0.0459148
-0.0469188
-0.0471835
-0.0470231
-0.046488
-0.0453706
-0.0433943
-0.0404133
-0.0364621
-0.0318968
-0.0269429
-0.0219737
-0.0173802
-0.0134692
-0.0103046
-0.00771223
-0.0055741
-0.00366394
-0.00204888
-0.00080439
0.000179147
0.000849498
0.00130864
0.00147003
0.00156735
0.00152908
0.00142993
0.00135861
0.00109387
0.00111815
0.000863748
0.000556944
0.00067798
0.000372183
5.15946e-05
-0.0265876
-0.0309385
-0.0341386
-0.0360507
-0.0369372
-0.0372481
-0.0372489
-0.0370197
-0.0364335
-0.0352761
-0.0334182
-0.0308122
-0.0276485
-0.0240734
-0.0204174
-0.016854
-0.0135718
-0.0107333
-0.00833171
-0.00635685
-0.00454937
-0.00298691
-0.00171315
-0.000687479
9.10102e-05
0.000674684
0.000937901
0.00114412
0.00122739
0.00120615
0.00120684
0.000997534
0.00106149
0.000833358
0.0005552
0.000688304
0.00039696
8.33969e-05
-0.0203251
-0.0237362
-0.0262755
-0.0278444
-0.0286306
-0.0289744
-0.0290937
-0.0290842
-0.0288574
-0.0282678
-0.0271956
-0.0255503
-0.0234748
-0.0210167
-0.0183999
-0.0156913
-0.0131047
-0.0108138
-0.00872699
-0.00694245
-0.00523925
-0.00373188
-0.00246481
-0.00140019
-0.000574982
9.74928e-05
0.00044293
0.000721486
0.000895582
0.000944267
0.000989431
0.00082297
0.000921939
0.000725741
0.000439545
0.000627981
0.000354458
2.41816e-05
-0.0151134
-0.0177678
-0.019764
-0.0210379
-0.0217221
-0.022075
-0.022268
-0.0224019
-0.0224135
-0.0222121
-0.0216976
-0.0207828
-0.0195418
-0.0179382
-0.0161633
-0.0142266
-0.0122867
-0.0104446
-0.00865158
-0.00708487
-0.00558053
-0.00416207
-0.00294447
-0.00189922
-0.00105152
-0.000310643
7.79472e-05
0.000424633
0.000682261
0.000793818
0.000906345
0.000778498
0.000918183
0.000759234
0.000500667
0.000684439
0.000431825
0.000106
-0.0107687
-0.012838
-0.0144102
-0.0154429
-0.0160364
-0.0163853
-0.0166181
-0.016826
-0.0169738
-0.0170046
-0.0168402
-0.0163936
-0.0157502
-0.0148259
-0.0137772
-0.0125398
-0.0112145
-0.00990295
-0.00847823
-0.00715799
-0.00577195
-0.00456529
-0.0034444
-0.00244862
-0.00159991
-0.000820565
-0.000384589
-1.07918e-05
0.000301001
0.00044957
0.000605613
0.000524878
0.000665759
0.000561138
0.000302183
0.000530824
0.000331117
-8.44932e-07
-0.00716658
-0.00875711
-0.00998262
-0.0108212
-0.0113336
-0.0116694
-0.0119266
-0.0121883
-0.0124231
-0.0126165
-0.0126932
-0.0125811
-0.0123409
-0.0118809
-0.011321
-0.0105702
-0.00971326
-0.00878343
-0.00770353
-0.00667705
-0.00547539
-0.0043684
-0.00334977
-0.00242283
-0.00164541
-0.000869625
-0.000454817
-6.74174e-05
0.000289995
0.000480216
0.000675872
0.00060448
0.000797853
0.000714901
0.000462249
0.000686449
0.000482667
0.000138162
-0.00419904
-0.00543554
-0.00639005
-0.0070542
-0.0074894
-0.00779806
-0.00804154
-0.00829739
-0.00855191
-0.00881279
-0.00903112
-0.00915112
-0.00924728
-0.00918678
-0.00909274
-0.00881973
-0.00840738
-0.00789383
-0.00712196
-0.00642317
-0.00553927
-0.0044923
-0.00357487
-0.002739
-0.00200652
-0.00126823
-0.000852034
-0.000484408
-0.000129691
4.10445e-05
0.000282386
0.000254451
0.00036868
0.000405304
0.000172809
0.000396042
0.000319555
-7.28858e-06
-0.00169354
-0.00263843
-0.00339483
-0.00395365
-0.00433214
-0.0046116
-0.00483382
-0.00506302
-0.00529806
-0.00556965
-0.00582112
-0.00602507
-0.00624945
-0.00638783
-0.00653651
-0.00654116
-0.00642526
-0.00617525
-0.00563358
-0.00495431
-0.00425354
-0.00353123
-0.00283427
-0.00214402
-0.00155983
-0.000892312
-0.000557047
-0.000208151
0.000148177
0.000344936
0.00057931
0.000519978
0.000755272
0.000716627
0.000444879
0.000703361
0.000553801
0.000173053
0.000301414
-0.000421934
-0.000996693
-0.0014325
-0.00176198
-0.00202069
-0.00221816
-0.00240249
-0.0025898
-0.0028334
-0.00310459
-0.00339076
-0.00376388
-0.00410461
-0.00451037
-0.00478855
-0.00491057
-0.00488725
-0.00454723
-0.0042516
-0.0037123
-0.00315125
-0.00264649
-0.00211185
-0.00164681
-0.00112939
-0.00084814
-0.000567652
-0.000284574
-0.000175185
0.000125258
8.39198e-05
8.4707e-05
0.000328182
0.000109836
0.000270149
0.000346456
2.16576e-05
0.00203762
0.00149597
0.00103717
0.00067304
0.000404086
0.000200182
5.63282e-05
-4.92407e-05
-0.000147665
-0.00028149
-0.000482041
-0.00071975
-0.00107304
-0.00145259
-0.00191846
-0.00232244
-0.00259906
-0.00277209
-0.00264448
-0.00247422
-0.00213641
-0.00176176
-0.0014646
-0.00109905
-0.000797159
-0.000400829
-0.000209132
3.05874e-05
0.000256795
0.000438133
0.000666656
0.000527328
0.000813881
0.000813626
0.000440552
0.000733668
0.000674918
0.000215535
0.00339321
0.00303207
0.00270439
0.00242241
0.00219331
0.00200383
0.00183058
0.00168277
0.00152011
0.00136052
0.0011288
0.000913622
0.000665162
0.00041876
0.000185617
-0.000107551
-0.000302734
-0.000576572
-0.000694069
-0.000825321
-0.000907005
-0.000853464
-0.000868399
-0.000761919
-0.000684258
-0.00051065
-0.000365424
-0.000240296
-0.000130344
-1.80724e-05
0.000296142
0.000110404
0.000361612
0.000593535
7.06191e-05
0.000345674
0.00049792
8.096e-05
0.0039534
0.00366387
0.00339598
0.00315539
0.00293648
0.0027295
0.00251723
0.00230587
0.00209121
0.00189308
0.00167704
0.00146029
0.00124201
0.0010046
0.000811867
0.000609191
0.000454034
0.000294905
0.00017639
5.94704e-05
-3.46148e-05
-3.88331e-05
-2.40991e-05
4.47881e-05
6.50383e-05
0.000193238
0.000284423
0.000388744
0.00055063
0.0006043
0.000805322
0.000799477
0.00082729
0.00104743
0.000731408
0.000676052
0.000693947
0.000262931
0.00463018
0.00440065
0.0041631
0.0039272
0.00369912
0.00348286
0.00327314
0.00306588
0.00285368
0.00264015
0.00242104
0.0021957
0.00196875
0.0017261
0.00149965
0.00124758
0.00102437
0.000788176
0.000585702
0.000406653
0.000242981
0.000126819
3.55406e-05
3.60523e-05
-6.76672e-06
1.93599e-05
9.59547e-05
0.000114437
0.00023793
0.000272007
0.000382925
0.000460511
0.000416479
0.000592862
0.000423351
0.000319382
0.000395261
0.000138823
0.00479058
0.00457717
0.00436186
0.0041447
0.00392562
0.0037059
0.00348542
0.00326526
0.00304651
0.0028284
0.00261225
0.00238808
0.00216982
0.00194246
0.00172652
0.0015095
0.00130467
0.00111456
0.000934234
0.000780943
0.000637239
0.000546424
0.000439231
0.000408677
0.000389502
0.000365931
0.000423888
0.00044511
0.000538188
0.000590005
0.000636786
0.000762287
0.000693022
0.000798746
0.00071822
0.000514735
0.000498121
0.000221358
-0.0657596
-0.0780923
-0.0895947
-0.101338
-0.112283
-0.12388
-0.135193
-0.148194
-0.0576223
-0.0682102
-0.0781597
-0.0888253
-0.0991058
-0.110178
-0.1205
-0.132128
-0.0487495
-0.0571602
-0.0650495
-0.0734793
-0.0819537
-0.0909725
-0.100679
-0.112699
-0.0418355
-0.0486144
-0.0551897
-0.0620679
-0.0696002
-0.0777665
-0.0870232
-0.097697
-0.0355605
-0.0411386
-0.0468109
-0.0527271
-0.0592479
-0.0660367
-0.0735587
-0.0823642
-0.0305283
-0.0350412
-0.0396609
-0.0443263
-0.0494073
-0.0547466
-0.0609265
-0.0684047
-0.0259118
-0.0294129
-0.0330005
-0.0366717
-0.0407841
-0.0452237
-0.0503794
-0.0565366
-0.0217888
-0.0244944
-0.0272907
-0.0302119
-0.0335031
-0.03704
-0.0411179
-0.0460598
-0.0181061
-0.0201546
-0.0222623
-0.0244882
-0.0270156
-0.0297775
-0.03302
-0.0370266
-0.0147468
-0.0162662
-0.0178168
-0.0194887
-0.0214298
-0.0236014
-0.0261752
-0.029381
-0.0116723
-0.0128058
-0.0139473
-0.0151921
-0.0166572
-0.0183268
-0.0203317
-0.0228735
-0.00886708
-0.00971764
-0.0105566
-0.0114708
-0.0125584
-0.013828
-0.0153863
-0.0173984
-0.00631924
-0.00696541
-0.00759244
-0.00826996
-0.00907789
-0.0100389
-0.0112411
-0.0128202
-0.00402818
-0.00452559
-0.00500261
-0.00550855
-0.00610493
-0.00682336
-0.00774197
-0.0089744
-0.00199587
-0.00238556
-0.00276019
-0.00314928
-0.00359627
-0.0041328
-0.0048284
-0.0057781
-0.000184277
-0.000496119
-0.000795286
-0.0010974
-0.00143637
-0.00184453
-0.00237998
-0.00311711
0.00135799
0.00110913
0.000864475
0.000622053
0.000365796
7.04697e-05
-0.000319851
-0.000871002
0.00272782
0.00252316
0.00231879
0.00211977
0.00191144
0.00167285
0.00136215
0.000935234
0.00389435
0.00371392
0.00353105
0.00335614
0.00318677
0.00301006
0.00279213
0.0024919
0.00486998
0.00469509
0.00451739
0.00434443
0.00418204
0.00402561
0.00386414
0.00367115
0.00538742
0.00523378
0.00507847
0.00491577
0.00474649
0.00457272
0.0043942
0.00420277
0.00581873
0.00566434
0.005517
0.00537106
0.00522553
0.00508298
0.00494505
0.00480843
0.00599634
0.00583967
0.00569205
0.00554874
0.00540521
0.00526009
0.00511437
0.00496973
0.0872198
0.0914464
0.0954501
0.0987955
0.100753
0.101131
0.0997872
0.0962449
0.0896382
0.0787386
0.0618576
0.0367036
-0.000375798
-0.052209
-0.0958997
0.0671104
0.0691435
0.0698457
0.0694919
0.0678963
0.0647076
0.0594746
0.0515241
0.0398966
0.0232943
-7.29553e-05
-0.0325066
-0.0771994
-0.137793
-0.183308
0.0464636
0.0463729
0.043964
0.0403682
0.035678
0.0293325
0.0206576
0.00887753
-0.00701074
-0.0283604
-0.0570223
-0.0954236
-0.145856
-0.210973
-0.255205
0.0247404
0.0224368
0.0176961
0.0118565
0.00482204
-0.00412812
-0.0156991
-0.0306223
-0.0498387
-0.0748453
-0.10742
-0.150007
-0.204077
-0.268452
-0.309841
0.00256568
-0.00187726
-0.00815968
-0.015395
-0.024129
-0.0350954
-0.0488849
-0.0661925
-0.0876774
-0.115146
-0.150155
-0.194788
-0.249336
-0.309704
-0.346614
-0.0192113
-0.0252928
-0.0325069
-0.0406797
-0.050764
-0.0631996
-0.0784749
-0.0972459
-0.120348
-0.148974
-0.184667
-0.228852
-0.281017
-0.334565
-0.366354
-0.0400404
-0.0467388
-0.0544998
-0.063663
-0.0747566
-0.0881752
-0.104339
-0.123826
-0.147377
-0.175924
-0.210664
-0.252346
-0.299333
-0.3436
-0.371
-0.0586729
-0.0658138
-0.0741951
-0.0841465
-0.0959779
-0.109967
-0.126475
-0.145984
-0.169084
-0.196485
-0.228917
-0.266307
-0.305601
-0.339078
-0.363073
0.196637
0.211275
0.227401
0.245411
0.265357
0.28714
0.310665
0.335881
0.362706
0.390899
0.419913
0.44868
0.475348
0.496375
0.513956
0.195733
0.209773
0.225326
0.242811
0.262217
0.283351
0.306064
0.330293
0.355953
0.382778
0.410174
0.437012
0.461358
0.479739
0.494753
0.190932
0.203615
0.217987
0.234444
0.252764
0.272565
0.29361
0.315803
0.339025
0.362952
0.386902
0.409637
0.429049
0.441837
0.451584
0.182271
0.19303
0.205803
0.220768
0.237388
0.255113
0.273658
0.292893
0.312621
0.332395
0.351371
0.368143
0.380332
0.384787
0.38718
0.169686
0.178215
0.189228
0.202485
0.21697
0.231963
0.247198
0.262569
0.277821
0.292361
0.305143
0.314537
0.317841
0.31182
0.305326
0.153609
0.159589
0.168692
0.180032
0.192076
0.203967
0.215442
0.226385
0.236459
0.244932
0.250573
0.251533
0.244806
0.227044
0.210002
0.134331
0.138268
0.14566
0.154667
0.163633
0.171883
0.179227
0.185455
0.190044
0.192072
0.190132
0.182174
0.164931
0.13507
0.1072
0.111752
0.114579
0.120985
0.127574
0.133097
0.137323
0.140239
0.141528
0.140459
0.135923
0.126344
0.109485
0.0818475
0.0403232
0.00295434
0.0219252
0.0264502
0.0229682
0.0271049
0.025094
0.029737
0.0285116
0.0333665
0.0333557
0.0384407
0.0400784
0.0456971
0.0491123
0.0556748
0.0613854
0.0696374
0.0782465
0.089237
0.10133
0.116247
0.132993
0.153187
0.176
0.0220137
0.0264296
0.0230701
0.0271219
0.0252284
0.0297365
0.02868
0.0334084
0.0335187
0.0385671
0.0402518
0.04589
0.0493387
0.05592
0.0617035
0.0701358
0.0787195
0.089667
0.101738
0.116907
0.133465
0.153462
0.175889
0.0221088
0.0263859
0.0231878
0.0271195
0.025388
0.0297062
0.0288758
0.0334196
0.0337257
0.0386699
0.0404698
0.0460657
0.0495944
0.0561319
0.0619684
0.0704652
0.07882
0.0898652
0.101788
0.116481
0.132538
0.152082
0.172913
0.0222095
0.0263212
0.0233183
0.0270866
0.0255638
0.0296511
0.0290892
0.033414
0.0339658
0.0387614
0.040715
0.0462266
0.0498524
0.056385
0.0623318
0.0707075
0.0791008
0.0904192
0.101792
0.116304
0.130929
0.14926
0.167276
0.0223144
0.0262386
0.0234579
0.0270327
0.0257541
0.0295806
0.0293145
0.0333855
0.0342102
0.0388117
0.0409743
0.046345
0.0500985
0.056477
0.062399
0.0703745
0.0787888
0.0895104
0.10033
0.114093
0.127344
0.144016
0.158396
0.0224218
0.026142
0.0236031
0.0269654
0.0259386
0.0294969
0.0295544
0.0333789
0.0345007
0.0389261
0.0412848
0.0465256
0.0504363
0.0568626
0.0628573
0.0711545
0.0792394
0.0900756
0.0999291
0.113001
0.12384
0.137876
0.147075
0.0225288
0.026036
0.0237503
0.0268882
0.0261443
0.0294171
0.029762
0.0333269
0.0347079
0.0389107
0.0415116
0.0465766
0.0506035
0.0568273
0.0626809
0.0705225
0.078294
0.0880656
0.0973053
0.108654
0.117658
0.128586
0.132472
0.0226359
0.0259249
0.0238939
0.026817
0.0262753
0.0293609
0.0300285
0.0334048
0.03509
0.0392126
0.0419421
0.0469831
0.0511113
0.0575208
0.063458
0.0716922
0.0791354
0.0891229
0.0968936
0.107125
0.112291
0.118774
0.115385
0.0227567
0.025766
0.0240718
0.0267027
0.0264609
0.0291804
0.0301767
0.0331286
0.0350662
0.0388956
0.0419306
0.0467211
0.050979
0.0569857
0.062644
0.0697267
0.076523
0.0840508
0.0907749
0.0966629
0.0996165
0.0990107
0.0914492
0.0229071
0.0255395
0.0242926
0.0264562
0.0266127
0.0288549
0.0303004
0.0327841
0.0350059
0.0383937
0.0414608
0.0456371
0.0495741
0.0547271
0.0597839
0.0655174
0.0712593
0.0764652
0.0812411
0.0836068
0.0841571
0.0803459
0.0738499
0.0230848
0.0252427
0.0245282
0.0261711
0.0268125
0.0285035
0.0304219
0.0324236
0.0347905
0.0377276
0.0407881
0.0443913
0.0481521
0.0524424
0.0569297
0.0613042
0.0656829
0.0688871
0.0715085
0.0716651
0.0700152
0.065611
0.0594951
0.0232869
0.0248721
0.024784
0.0258647
0.0269241
0.028186
0.0303438
0.0320214
0.0344397
0.0370037
0.0399576
0.0430124
0.0463762
0.0497931
0.0534487
0.0565349
0.0594931
0.0611225
0.0618781
0.0605953
0.0576312
0.0529484
0.0471069
0.0235134
0.0244431
0.0250008
0.0256198
0.0269498
0.0278997
0.0301961
0.0315935
0.0339396
0.0361697
0.0388679
0.0413809
0.0441932
0.046824
0.0495554
0.0515466
0.0531404
0.0534748
0.0528252
0.0505823
0.046954
0.0421568
0.0367027
0.0237493
0.0240106
0.0251374
0.0254153
0.0268846
0.0276119
0.029914
0.0311069
0.0332535
0.0351938
0.0375295
0.0395215
0.0417106
0.0435797
0.0453851
0.0463752
0.0468241
0.0461553
0.0445554
0.0417135
0.0378078
0.0331001
0.028049
0.0239678
0.0235896
0.0251816
0.0252513
0.0267092
0.0273091
0.0294901
0.0305416
0.0323823
0.0340667
0.0359573
0.0374356
0.0389619
0.0401145
0.0410924
0.041224
0.0407789
0.0394008
0.037239
0.0340911
0.0301102
0.0255727
0.0209101
0.024147
0.023199
0.0251205
0.0251163
0.0264151
0.0269695
0.028959
0.0298713
0.0313397
0.0327683
0.0341917
0.0351408
0.0360308
0.0365584
0.0368278
0.0362638
0.0351716
0.033354
0.0309188
0.027705
0.0238042
0.0194332
0.0149497
0.0242645
0.0228543
0.0249426
0.0249932
0.0260054
0.0265633
0.0283255
0.0290685
0.0301278
0.031303
0.0322793
0.032688
0.033
0.0330197
0.0327276
0.0316523
0.0301101
0.0280526
0.0255468
0.0224268
0.0187308
0.014626
0.0103588
0.0242972
0.0225651
0.0246437
0.0248498
0.0254528
0.0260479
0.0275966
0.0281245
0.0287635
0.029678
0.0302734
0.0301684
0.0299587
0.0295905
0.0289128
0.0274964
0.0256473
0.0234856
0.0210567
0.0181348
0.0147019
0.010925
0.00700014
0.024234
0.0223232
0.0242401
0.0246685
0.0248699
0.0253974
0.0267774
0.0270784
0.02728
0.0279173
0.0282165
0.0276839
0.0270117
0.026358
0.0254576
0.0238431
0.0218097
0.0196389
0.0173818
0.0147482
0.0116477
0.00825049
0.00474645
0.0240557
0.0221229
0.0237478
0.0244099
0.0242664
0.024613
0.0258647
0.0259583
0.0257275
0.0260683
0.0261434
0.0252971
0.0242584
0.0234008
0.0223932
0.0207072
0.0186095
0.0165045
0.0144719
0.0121762
0.0094479
0.00644394
0.00337435
0.0237804
0.0219324
0.0232156
0.024039
0.0236344
0.0237355
0.0248384
0.0247784
0.0241775
0.0242158
0.0241079
0.0230653
0.0217765
0.0207852
0.0197417
0.0180806
0.0160288
0.0140535
0.0122642
0.0103108
0.00796365
0.00535393
0.00270842
0.0233896
0.0217363
0.0226615
0.0235581
0.0229668
0.0228142
0.0237294
0.0235505
0.0226628
0.0224257
0.022162
0.0210158
0.0196029
0.0185413
0.0175026
0.0159189
0.0139915
0.0122033
0.0106668
0.00902764
0.00703331
0.00479758
0.00255167
0.0229318
0.0214887
0.0221077
0.0229786
0.022239
0.0218672
0.0225783
0.0222928
0.021217
0.0207496
0.0203612
0.0191956
0.0177778
0.0167089
0.0156837
0.0141972
0.0124414
0.0108736
0.00959508
0.00824085
0.00655008
0.00465061
0.00276859
0.0224254
0.0211717
0.0215674
0.0223269
0.0214684
0.020928
0.0214405
0.0210681
0.0198693
0.0192208
0.018734
0.0176079
0.0162633
0.0152199
0.0142133
0.0128333
0.0112819
0.00998553
0.00894807
0.00782217
0.00638922
0.00477803
0.00322323
0.0218478
0.0208187
0.0210285
0.0216248
0.0206799
0.0200171
0.0203315
0.0199039
0.0186631
0.017892
0.0173444
0.0163233
0.0151186
0.014107
0.013099
0.0118272
0.0105106
0.00945721
0.00862855
0.00768219
0.00644228
0.00507723
0.00380502
0.0213112
0.0204019
0.0205039
0.020885
0.019908
0.0191973
0.0193315
0.018823
0.0175994
0.0167656
0.0161768
0.0152695
0.0142086
0.0132246
0.012225
0.0110835
0.0100226
0.00922532
0.00856385
0.00774337
0.00666893
0.00553438
0.00451661
0.020636
0.0200067
0.0200146
0.0201581
0.0191682
0.0184424
0.0184225
0.017928
0.0167867
0.0159082
0.0153178
0.0145559
0.0136236
0.0126353
0.0116425
0.0106491
0.00981438
0.00919837
0.00863931
0.00791075
0.00698535
0.00605566
0.00525228
0.0201454
0.0196309
0.0194725
0.0194802
0.0186283
0.0177614
0.0175875
0.0173066
0.0162566
0.015203
0.0145715
0.014028
0.0132693
0.0122993
0.0113479
0.0105304
0.00987935
0.00936024
0.00884452
0.00822571
0.00749099
0.00674545
0.00608637
0.0196824
0.019262
0.0189844
0.0189025
0.0181646
0.0171694
0.0167989
0.016613
0.0157691
0.0146705
0.0138833
0.0133763
0.0128064
0.0119877
0.0110951
0.0102907
0.00967285
0.00923638
0.00887838
0.00847237
0.0079536
0.00737085
0.00681711
0.0193257
0.0189404
0.0186359
0.0184835
0.0177836
0.01678
0.0162418
0.0160323
0.015424
0.0143995
0.0134726
0.0129192
0.0125098
0.0119116
0.0111054
0.0102929
0.00967762
0.0092839
0.00899768
0.00867148
0.00823609
0.00772697
0.00723329
0.0191441
0.0188
0.0183909
0.0181468
0.0176128
0.0166731
0.0158987
0.0155547
0.0151519
0.0143555
0.0134063
0.0126752
0.0122009
0.0117236
0.0110916
0.0103733
0.00973083
0.00925595
0.00892652
0.00865456
0.00835875
0.00801327
0.00764989
0.0805246
0.063453
0.0424461
0.0224435
0.00280585
-0.0167916
-0.0351676
-0.0516745
0.0663842
0.0495987
0.0280084
0.0099267
-0.00557959
-0.0203185
-0.034071
-0.0464452
0.0537469
0.040682
0.0221094
0.00577376
-0.00702367
-0.0180765
-0.0288182
-0.0394068
0.0420366
0.031254
0.0150377
0.00045781
-0.0106705
-0.0193287
-0.0272657
-0.0346771
0.0322278
0.023559
0.0101359
-0.00236873
-0.0115363
-0.0180602
-0.0239459
-0.0297587
0.024048
0.017031
0.00604671
-0.00444952
-0.0120425
-0.0171443
-0.0215841
-0.0259773
0.0174075
0.0118274
0.00302449
-0.00558399
-0.0117287
-0.0156906
-0.0190336
-0.0223846
0.0117647
0.00751378
0.000856738
-0.00584623
-0.0107019
-0.0138471
-0.0164556
-0.019058
0.0071734
0.00380772
-0.000812637
-0.00548606
-0.00914557
-0.0117492
-0.0139212
-0.0160009
0.00397436
0.00127896
-0.00177686
-0.00485381
-0.00750914
-0.00963298
-0.0114572
-0.0131332
0.00201504
-0.000106723
-0.00208603
-0.00405835
-0.00592857
-0.00759352
-0.00908576
-0.0104306
0.000996133
-0.000642416
-0.00188959
-0.0031188
-0.00440571
-0.00566726
-0.00684913
-0.00791178
0.000688317
-0.000557374
-0.00131035
-0.00204525
-0.00291265
-0.00384624
-0.0047589
-0.00558511
0.000871966
-5.88527e-05
-0.000481628
-0.000890108
-0.0014597
-0.00213771
-0.00282941
-0.00346379
0.00139977
0.000715346
0.000502031
0.000296403
-7.16431e-05
-0.000559897
-0.00107881
-0.00156209
0.00213409
0.00164765
0.00156919
0.00148868
0.00125562
0.000906164
0.000520148
0.000154226
0.00295463
0.00261108
0.00260205
0.00258547
0.0024365
0.00218412
0.00189634
0.00161902
0.00386389
0.003625
0.00364665
0.00365134
0.00354578
0.00335799
0.00314237
0.00293135
0.00475862
0.00459901
0.00463654
0.00465008
0.0045685
0.00441779
0.00424329
0.00406958
0.0056787
0.00554182
0.00556144
0.00557049
0.00550316
0.00537134
0.00520888
0.00504093
0.00645058
0.00628529
0.00623271
0.00618263
0.0060772
0.00591684
0.00573116
0.00555109
0.00690477
0.00674575
0.00667353
0.00660675
0.00649993
0.00634721
0.00616797
0.00598709
0.00735072
0.0071339
0.00695702
0.0068067
0.00666086
0.00650462
0.00633611
0.00616345
-0.442767
-0.450176
-0.461668
-0.477694
-0.498447
-0.523794
-0.550585
-0.57315
-0.439285
-0.446085
-0.456403
-0.470347
-0.487587
-0.507595
-0.528976
-0.54719