/*--------------------------------*- C++ -*----------------------------------*\
| =========                 |                                                 |
| \\      /  F ield         | OpenFOAM: The Open Source CFD Toolbox           |
|  \\    /   O peration     | Version:  2312                                  |
|   \\  /    A nd           | Website:  www.openfoam.com                      |
|    \\/     M anipulation  |                                                 |
\*---------------------------------------------------------------------------*/
FoamFile
{
    version     2.0;
    format      ascii;
    arch        "LSB;label=32;scalar=64";
    class       volVectorField;
    location    "119.6";
    object      U;
}
// * * * * * * * * * * * * * * * * * * * * * * * * * * * * * * * * * * * * * //

dimensions      [0 1 -1 0 0 0 0];

internalField   nonuniform List<vector> 
5478
(
(-0.0267254 0.0184971 -8.70131e-20)
(-0.0392885 0.0198525 0)
(-0.0180909 0.00702125 1.34732e-19)
(0.0532648 -0.00829943 -2.36508e-19)
(0.184965 -0.0216048 1.54314e-19)
(0.369105 -0.028245 -4.75657e-20)
(0.57796 -0.0263072 -7.66905e-20)
(0.780913 -0.016895 0)
(0.954057 -0.00132267 0)
(1.08433 0.0147424 7.43092e-20)
(1.17532 0.03077 -3.86038e-20)
(1.21593 0.0448524 -5.19897e-20)
(1.23663 0.0469693 -1.91282e-20)
(1.22736 0.0581428 0)
(1.19914 0.041261 4.48989e-20)
(-0.0296403 0.0201362 1.74585e-19)
(-0.0256136 0.0232483 0)
(0.0408161 0.0121041 0)
(0.184851 0.000985093 -1.17593e-19)
(0.400804 -0.000854125 1.55201e-19)
(0.647778 0.00813208 4.40173e-20)
(0.87692 0.0236732 -7.04565e-20)
(1.05583 0.0407392 6.24714e-20)
(1.17179 0.054376 1.39362e-19)
(1.23183 0.0628517 -1.19637e-19)
(1.24301 0.0669149 5.58011e-22)
(1.23215 0.0639451 0)
(1.20991 0.0623619 1.90947e-20)
(1.18463 0.0572844 0)
(1.18352 0.0493591 0)
(-0.0274597 0.0157781 -3.77614e-22)
(0.00695282 0.0137281 -8.0208e-20)
(0.141263 0.00633543 7.31201e-23)
(0.378462 0.0110656 0)
(0.663714 0.0313215 -5.05288e-20)
(0.921253 0.0574618 4.23172e-20)
(1.10634 0.0796177 3.48663e-20)
(1.20992 0.0923202 0)
(1.24834 0.0955602 -4.74416e-20)
(1.2441 0.0926752 3.79129e-20)
(1.22674 0.0859368 3.01469e-20)
(1.20913 0.0818373 0)
(1.19823 0.0760006 0)
(1.19821 0.0751113 -5.67631e-20)
(1.19552 0.067584 5.05411e-20)
(-0.0187094 0.00899865 -9.2819e-20)
(0.0697268 -7.14959e-05 7.9395e-20)
(0.301754 0.00724855 -6.87685e-20)
(0.623639 0.0405527 5.95377e-20)
(0.918348 0.0814166 1.00395e-19)
(1.1193 0.112235 -8.34886e-20)
(1.22142 0.126762 -3.48434e-20)
(1.25322 0.12776 2.58609e-20)
(1.24878 0.121853 -2.52451e-20)
(1.23638 0.113697 0)
(1.2247 0.108258 0)
(1.21497 0.101145 -4.34736e-20)
(1.20613 0.0972849 5.55392e-20)
(1.19025 0.0895091 -3.0911e-20)
(1.17446 0.0813656 0)
(0.000463889 0.00152456 4.68357e-20)
(0.175354 -0.00754499 3.9487e-20)
(0.516646 0.0326542 -1.40865e-19)
(0.864041 0.0926014 1.45923e-21)
(1.10059 0.137344 -2.04137e-21)
(1.21782 0.157994 -1.10847e-21)
(1.25576 0.160612 3.2318e-20)
(1.25656 0.154675 2.71899e-20)
(1.24652 0.146189 1.88439e-20)
(1.23264 0.13842 -3.62007e-21)
(1.21688 0.129267 -4.23306e-20)
(1.2006 0.121465 0)
(1.18403 0.113028 1.78654e-20)
(1.17364 0.104463 -1.28427e-20)
(1.16927 0.0990715 2.34675e-20)
(0.0361176 -0.00509333 -9.9124e-20)
(0.328808 0.00468945 1.07367e-19)
(0.740212 0.0846365 -3.65786e-20)
(1.04474 0.15307 2.78442e-20)
(1.20085 0.186933 -5.10455e-20)
(1.25633 0.195152 -3.76839e-20)
(1.26321 0.190747 1.02814e-21)
(1.25207 0.181561 0)
(1.23459 0.171157 3.85954e-20)
(1.21665 0.15977 -3.43218e-20)
(1.20112 0.149811 1.33297e-20)
(1.18873 0.139816 0)
(1.18028 0.131435 7.89607e-21)
(1.1708 0.121962 -1.35042e-20)
(1.15698 0.115816 0)
(0.0934609 -0.00598017 -1.23119e-20)
(0.511416 0.0470962 9.49075e-22)
(0.924101 0.151365 1.80419e-20)
(1.15763 0.212358 3.00415e-20)
(1.24864 0.232365 -2.27664e-20)
(1.26588 0.230777 3.81827e-20)
(1.25448 0.220584 -8.69939e-21)
(1.23557 0.207832 0)
(1.21776 0.194613 -2.25845e-20)
(1.20247 0.182544 1.71482e-21)
(1.18869 0.170555 1.84552e-20)
(1.17565 0.159572 0)
(1.16192 0.148682 -1.14925e-20)
(1.15002 0.138089 0)
(1.14255 0.131562 6.7427e-21)
(0.172009 0.0059672 -1.34319e-20)
(0.684521 0.115707 0)
(1.05466 0.224114 1.86169e-20)
(1.21912 0.27044 0)
(1.26202 0.276348 0)
(1.25551 0.265616 0)
(1.23618 0.250403 -7.3053e-21)
(1.21675 0.234625 0)
(1.19882 0.219455 4.55973e-21)
(1.18226 0.204456 0)
(1.16765 0.190528 -5.71642e-21)
(1.15569 0.177199 0)
(1.14726 0.16497 3.5923e-21)
(1.13948 0.153822 0)
(1.12859 0.145895 2.25185e-21)
(0.00729967 -0.200823 -1.29202e-20)
(-0.0073014 -0.347477 0)
(-0.049661 -0.379124 2.02409e-20)
(-0.0957848 -0.376413 0)
(-0.140045 -0.36796 0)
(-0.179737 -0.35293 0)
(-0.212316 -0.324352 -1.35899e-20)
(-0.235957 -0.277509 0)
(-0.249765 -0.210192 1.13593e-20)
(-0.25365 -0.122267 0)
(-0.248366 -0.015507 -1.82914e-20)
(-0.233621 0.107921 0)
(-0.207167 0.240736 1.36466e-20)
(-0.174815 0.372558 0)
(-0.126511 0.497667 9.29088e-21)
(0.0168793 -0.177187 6.28499e-20)
(0.00119586 -0.298262 -4.36712e-20)
(-0.0498434 -0.319674 1.76685e-20)
(-0.105812 -0.31398 6.8597e-20)
(-0.160692 -0.307258 5.84391e-22)
(-0.212916 -0.298203 -5.63146e-20)
(-0.260372 -0.27961 3.87749e-20)
(-0.300796 -0.24637 0)
(-0.332043 -0.195619 3.00349e-20)
(-0.352471 -0.126381 -4.43855e-22)
(-0.359476 -0.0395985 -1.40926e-20)
(-0.352727 0.061008 0)
(-0.333915 0.171814 -3.29713e-20)
(-0.29854 0.288437 0)
(-0.24 0.396677 -3.81859e-20)
(0.023051 -0.144437 9.37656e-20)
(0.00838761 -0.24049 2.05557e-20)
(-0.0441653 -0.254926 -3.78264e-20)
(-0.100507 -0.247009 -9.84541e-20)
(-0.153891 -0.240577 5.73047e-20)
(-0.203306 -0.235273 5.10569e-20)
(-0.247274 -0.224507 -8.83633e-20)
(-0.283847 -0.203298 0)
(-0.310586 -0.168691 -6.74134e-20)
(-0.325277 -0.119405 5.99402e-20)
(-0.327471 -0.055694 2.17492e-20)
(-0.313763 0.0184074 0)
(-0.275164 0.0921142 1.93207e-20)
(-0.242918 0.183516 -2.02897e-20)
(-0.143382 0.249578 0)
(0.0243514 -0.10904 4.35472e-20)
(0.0105245 -0.18247 -1.19753e-19)
(-0.0395478 -0.193098 1.39101e-19)
(-0.0905642 -0.184845 -1.2136e-19)
(-0.134902 -0.178847 -5.27867e-20)
(-0.171581 -0.176326 4.6073e-20)
(-0.199574 -0.171861 4.31113e-20)
(-0.217627 -0.160856 3.37331e-20)
(-0.224148 -0.140468 -8.46516e-20)
(-0.216022 -0.109464 4.70833e-21)
(-0.191528 -0.0678506 1.89196e-20)
(-0.170011 -0.0142442 0)
(-0.0764206 0.0334449 1.89218e-20)
(-0.0507337 0.114878 4.82935e-20)
(0.102258 0.126971 -2.50235e-20)
(0.0197856 -0.0746476 -8.43764e-22)
(0.00430875 -0.128613 7.55362e-20)
(-0.0425097 -0.139146 -6.64839e-20)
(-0.0865166 -0.134359 6.0104e-20)
(-0.119505 -0.131503 1.03917e-19)
(-0.140038 -0.132988 -9.03972e-20)
(-0.146998 -0.134745 -3.78553e-20)
(-0.139101 -0.132689 -9.5991e-20)
(-0.115946 -0.124389 8.3277e-20)
(-0.0781979 -0.108276 0)
(-0.0104684 -0.0759824 0)
(0.0311454 -0.0441374 4.33517e-20)
(0.184929 -0.0219942 -8.74827e-20)
(0.187995 0.0536379 2.66959e-20)
(0.421985 0.0557311 0)
(0.00931979 -0.0426073 -3.97315e-22)
(-0.0103645 -0.0797839 -7.60302e-20)
(-0.0531356 -0.0928568 1.98176e-19)
(-0.0881665 -0.0948971 -5.7985e-20)
(-0.106425 -0.0981896 -5.11634e-20)
(-0.104473 -0.105482 4.43528e-20)
(-0.0800394 -0.113764 3.78728e-20)
(-0.0323578 -0.119388 5.93365e-20)
(0.0379673 -0.119412 -1.02589e-19)
(0.12553 -0.111931 3.90891e-20)
(0.234944 -0.0891548 2.96605e-20)
(0.323685 -0.0677304 0)
(0.514521 -0.0439128 0)
(0.536611 0.000507863 4.1189e-20)
(0.792395 0.0218961 -3.66464e-20)
(-0.00508642 -0.0140278 5.02888e-22)
(-0.0282079 -0.035822 0)
(-0.0609437 -0.0511811 0)
(-0.0771242 -0.0601615 1.15305e-19)
(-0.0657246 -0.0702419 -5.08035e-20)
(-0.0211732 -0.0829512 4.40218e-20)
(0.0580786 -0.0950251 7.20506e-20)
(0.167272 -0.102505 -6.38858e-20)
(0.299197 -0.102967 4.9941e-20)
(0.440976 -0.0918679 -3.91167e-20)
(0.582228 -0.0745529 4.98517e-22)
(0.724374 -0.0505212 0)
(0.866728 -0.0210114 1.75278e-20)
(0.953665 0.00370824 0)
(1.11981 0.0342962 0)
(-0.0184386 0.00742039 -8.40259e-20)
(-0.0396729 -0.000549068 0)
(-0.0509753 -0.0155353 -1.33302e-19)
(-0.0320034 -0.0293816 2.34344e-19)
(0.0299489 -0.0441382 -2.55728e-19)
(0.139193 -0.0578382 -4.10875e-20)
(0.288336 -0.0667328 7.67788e-20)
(0.45987 -0.0678335 0)
(0.637045 -0.0606272 0)
(0.798986 -0.0433371 -7.40221e-20)
(0.941322 -0.0260589 -2.16696e-20)
(1.06245 0.00218241 5.10836e-20)
(1.13803 0.0178866 -1.75556e-20)
(1.21305 0.039824 0)
(1.24163 0.0502531 -4.3676e-20)
(-0.0487555 0.672556 0)
(0.0145493 0.852045 3.20952e-21)
(0.0172874 0.824427 -2.97386e-21)
(0.302657 0.41929 0)
(0.614494 -0.110577 0)
(0.787124 -0.508016 -1.38639e-22)
(0.808398 -0.614956 0)
(0.852348 -0.580284 0)
(0.762763 -0.61278 5.27585e-23)
(0.612164 -0.571738 0)
(0.622105 -0.350672 0)
(0.810736 0.0549759 -8.62372e-23)
(0.88811 0.24953 0)
(0.91856 0.451183 -9.22929e-23)
(0.938392 0.610799 -7.31956e-23)
(0.927422 0.447828 0)
(0.95552 0.341387 -5.37383e-22)
(1.00857 -0.0910445 6.50385e-22)
(1.02642 -0.423358 0)
(1.07193 -0.480259 4.43847e-22)
(1.05081 -0.529032 -5.44902e-22)
(1.08416 -0.0149341 9.14695e-23)
(1.08125 0.423043 -2.15321e-22)
(1.06225 0.424998 2.05744e-22)
(1.16117 0.473005 -2.21071e-22)
(1.1661 -0.14305 0)
(1.02914 -0.767144 -2.06281e-22)
(1.13937 -0.0870492 1.97243e-22)
(1.07762 0.453073 -1.28229e-22)
(0.986504 0.172755 0)
(1.00944 -0.142944 -1.0175e-22)
(0.95538 -0.101428 0)
(0.975525 0.0402597 -3.04458e-23)
(0.985833 0.0399404 -1.57876e-23)
(0.949684 -0.0113315 1.33361e-24)
(0.965118 -0.00999132 -8.63485e-24)
(0.963661 0.00397327 0)
(0.931221 0.00726323 1.96492e-24)
(-0.167092 0.58479 1.33073e-20)
(-0.0234596 0.778671 -9.21799e-23)
(0.146424 0.684776 -1.31889e-20)
(0.503803 0.237149 1.25763e-20)
(0.788873 -0.243391 0)
(0.928054 -0.562556 1.39707e-22)
(0.903315 -0.639487 -1.9092e-22)
(0.908288 -0.575145 0)
(0.815395 -0.566592 -5.31504e-23)
(0.687739 -0.539512 0)
(0.657316 -0.396166 0)
(0.799227 -0.00483498 8.68532e-23)
(0.878375 0.211836 0)
(0.889203 0.421938 2.76718e-21)
(0.914218 0.595836 -2.33785e-21)
(0.879929 0.445846 1.85059e-21)
(0.944869 0.327177 -1.76642e-21)
(1.02924 -0.0938321 -1.38154e-22)
(1.03372 -0.432517 0)
(1.105 -0.485922 0)
(1.05602 -0.530984 -1.08767e-22)
(1.06847 -0.02002 1.18206e-21)
(1.08051 0.415685 -1.88068e-21)
(1.02877 0.410177 8.3483e-22)
(1.15865 0.460243 6.17691e-22)
(1.19323 -0.121707 0)
(1.02064 -0.763549 4.61667e-22)
(1.12483 -0.0948902 0)
(1.06963 0.459082 1.28684e-22)
(0.998014 0.178266 -2.47691e-22)
(1.02453 -0.140053 4.35922e-22)
(0.957623 -0.0997561 -3.42904e-23)
(0.975962 0.037796 5.7474e-23)
(0.994231 0.0416628 3.86135e-24)
(0.955244 -0.00980091 1.67945e-23)
(0.965125 -0.0108139 -7.6057e-24)
(0.967542 0.00577075 -6.63199e-25)
(0.937022 0.00904414 7.02368e-25)
(-0.0712315 0.444755 1.51982e-20)
(0.124422 0.629612 -3.44456e-20)
(0.374772 0.534841 -7.14592e-21)
(0.717036 0.116467 2.52667e-20)
(0.973195 -0.3115 4.03929e-22)
(1.06985 -0.570845 -2.98273e-22)
(1.00103 -0.628898 1.94188e-22)
(0.96689 -0.546116 -2.62503e-22)
(0.86377 -0.517282 0)
(0.763564 -0.511117 5.24401e-21)
(0.733289 -0.434888 -5.00212e-21)
(0.811734 -0.0673051 -1.34591e-22)
(0.869132 0.198273 0)
(0.849669 0.424935 -5.2285e-21)
(0.885129 0.59773 4.8457e-21)
(0.835942 0.447371 -1.76365e-21)
(0.9331 0.309705 1.68277e-21)
(1.0463 -0.0860823 2.39407e-21)
(1.03993 -0.43107 -2.05242e-21)
(1.12693 -0.488304 0)
(1.05183 -0.531076 0)
(1.04497 -0.0320221 2.26331e-21)
(1.07658 0.412967 -2.16101e-21)
(0.996435 0.401687 -1.48718e-21)
(1.14598 0.446592 -1.41883e-22)
(1.2098 -0.0922923 1.44653e-21)
(1.00409 -0.748175 -2.64667e-23)
(1.10258 -0.107492 -8.03389e-22)
(1.05896 0.463866 1.39078e-21)
(1.00541 0.18656 -1.05083e-21)
(1.03631 -0.133606 4.4108e-23)
(0.9577 -0.0966991 -1.35449e-22)
(0.973 0.0346669 4.79929e-23)
(0.999824 0.0430447 -4.58877e-23)
(0.958628 -0.0075277 -1.0353e-23)
(0.962401 -0.0114794 -5.51405e-24)
(0.968909 0.00717138 1.75535e-23)
(0.941018 0.0106895 2.15087e-24)
(0.160028 0.274196 0)
(0.350401 0.446412 1.58154e-20)
(0.594443 0.39575 -1.55564e-20)
(0.913517 0.0257195 0)
(1.13433 -0.357566 -4.15139e-22)
(1.17913 -0.555985 3.06453e-22)
(1.06547 -0.604381 0)
(1.00371 -0.521033 5.84773e-24)
(0.909656 -0.470462 -2.07072e-22)
(0.810951 -0.489446 0)
(0.80164 -0.468195 -4.62405e-21)
(0.854449 -0.118073 4.54749e-21)
(0.899228 0.164751 -3.4313e-22)
(0.829795 0.391923 -5.15695e-21)
(0.840628 0.587679 4.91791e-21)
(0.786903 0.449774 2.05509e-22)
(0.91477 0.291909 0)
(1.05669 -0.0784435 -2.48495e-22)
(1.04957 -0.427457 4.01495e-21)
(1.13943 -0.489838 1.42044e-22)
(1.04108 -0.527528 9.71823e-22)
(1.02007 -0.0537896 -3.88002e-21)
(1.06535 0.396092 -3.02113e-21)
(0.960775 0.385814 3.71991e-21)
(1.1218 0.428857 -3.58356e-22)
(1.2131 -0.0627644 0)
(0.987045 -0.730257 -4.45609e-22)
(1.07421 -0.127173 8.1396e-22)
(1.04193 0.460411 -1.39516e-21)
(1.00601 0.191688 1.05041e-21)
(1.04414 -0.126743 -1.70798e-22)
(0.955809 -0.0932725 0)
(0.96705 0.0306352 -4.83973e-23)
(1.0026 0.043861 9.27497e-23)
(0.959847 -0.0046203 3.17025e-23)
(0.957262 -0.0119924 3.04811e-23)
(0.967908 0.008119 -1.75659e-23)
(0.943276 0.0121572 9.5301e-26)
(0.464449 0.142449 1.03639e-22)
(0.56791 0.289134 2.71103e-22)
(0.778666 0.267991 0)
(1.10116 -0.0408052 0)
(1.27042 -0.355838 0)
(1.26116 -0.497545 0)
(1.12293 -0.548421 1.04615e-20)
(1.02298 -0.494515 -1.7951e-20)
(0.96197 -0.425684 7.94922e-21)
(0.854938 -0.457423 0)
(0.829641 -0.511949 -4.85272e-21)
(0.90926 -0.190644 4.78211e-21)
(0.935984 0.150906 6.22744e-21)
(0.813457 0.403025 -5.23769e-21)
(0.810454 0.591065 3.95789e-21)
(0.761778 0.445748 -3.98283e-21)
(0.903752 0.265327 -2.00896e-22)
(1.06427 -0.0687269 -3.959e-21)
(1.05964 -0.415078 3.77148e-21)
(1.13833 -0.485864 4.27107e-22)
(1.02319 -0.523773 5.27337e-22)
(0.985685 -0.0799887 4.43457e-21)
(1.04911 0.391427 -4.86296e-21)
(0.932234 0.380116 -6.42852e-22)
(1.09569 0.412519 -2.88324e-22)
(1.20655 -0.0274254 -2.17203e-22)
(0.972672 -0.707472 0)
(1.04118 -0.149695 0)
(1.02417 0.458064 0)
(1.00344 0.199047 0)
(1.04911 -0.117166 4.37363e-22)
(0.952662 -0.088467 -2.51881e-22)
(0.95887 0.0262462 9.72505e-23)
(1.00276 0.0442233 -2.83494e-22)
(0.959056 -0.00106972 3.08912e-23)
(0.950193 -0.0123109 6.30363e-24)
(0.964843 0.00859866 -2.28725e-23)
(0.943959 0.0134178 -5.63743e-24)
(0.826419 0.0623072 -1.09012e-22)
(0.836388 0.169392 2.19612e-20)
(0.998151 0.153432 -2.10328e-20)
(1.27788 -0.0857197 -4.18488e-20)
(1.36898 -0.325934 3.98426e-20)
(1.30657 -0.427495 2.94838e-20)
(1.18042 -0.478363 -2.74532e-20)
(1.04208 -0.467963 2.66682e-22)
(0.999239 -0.394055 -2.18039e-22)
(0.923882 -0.405076 0)
(0.81594 -0.531001 -1.72678e-22)
(0.916795 -0.263369 1.17182e-20)
(0.960794 0.11436 -1.1159e-20)
(0.804616 0.373196 -3.74487e-22)
(0.756531 0.586686 0)
(0.721138 0.458933 -3.66076e-21)
(0.890005 0.258177 7.00455e-21)
(1.06803 -0.0528941 -3.12775e-21)
(1.07254 -0.398142 0)
(1.12784 -0.47822 3.51235e-21)
(1.00436 -0.516862 8.97499e-22)
(0.949148 -0.116207 -4.95522e-21)
(1.02372 0.362165 -4.23619e-21)
(0.899294 0.366334 3.79936e-21)
(1.06406 0.397745 -1.92721e-21)
(1.19133 0.00860275 -3.90808e-22)
(0.96465 -0.682188 2.51275e-21)
(1.00701 -0.178251 -2.9201e-21)
(1.00248 0.444391 2.77783e-21)
(0.99468 0.203708 -3.66721e-22)
(1.0505 -0.107883 3.48644e-22)
(0.948493 -0.0833748 0)
(0.949117 0.0211997 9.74747e-23)
(1.00053 0.0439288 -1.38546e-23)
(0.956478 0.00291512 0)
(0.941797 -0.0124647 -3.13609e-23)
(0.960136 0.00859381 1.54096e-23)
(0.943309 0.0144451 -1.57037e-24)
(1.13767 0.0426197 0)
(1.12094 0.0969494 0)
(1.22925 0.0772057 -8.43426e-23)
(1.39749 -0.0894185 0)
(1.40549 -0.265065 0)
(1.30378 -0.355126 2.77454e-20)
(1.20548 -0.407184 -2.64335e-20)
(1.06914 -0.434798 1.6259e-20)
(1.00795 -0.38455 -1.5499e-20)
(0.989504 -0.348963 0)
(0.833701 -0.51795 -1.59013e-22)
(0.879276 -0.371962 1.88635e-22)
(0.984925 0.0785816 -1.38328e-20)
(0.797579 0.395335 1.69168e-21)
(0.730548 0.601819 1.06942e-20)
(0.72571 0.445007 1.11904e-22)
(0.897672 0.226288 -1.05011e-22)
(1.07371 -0.046408 7.2457e-21)
(1.08647 -0.378308 -7.09926e-21)
(1.11381 -0.460307 0)
(0.988767 -0.511127 0)
(0.906153 -0.150704 -3.81877e-22)
(0.995812 0.35356 0)
(0.873073 0.36135 2.46818e-21)
(1.03993 0.383777 -2.322e-22)
(1.17757 0.0428723 -1.71266e-21)
(0.957514 -0.653317 -3.66321e-21)
(0.974215 -0.205491 2.46465e-21)
(0.980916 0.43709 -2.83443e-22)
(0.98443 0.208685 0)
(1.0501 -0.0978792 -2.40484e-22)
(0.944404 -0.0773643 2.2801e-22)
(0.938849 0.0163921 5.65156e-23)
(0.996392 0.0433197 2.42477e-23)
(0.952531 0.00726144 -3.91193e-23)
(0.93281 -0.0124443 1.3081e-23)
(0.9543 0.00814796 0)
(0.941625 0.0152353 4.32937e-24)
(1.24713 0.0413936 2.67643e-20)
(1.24884 0.0561066 2.22062e-20)
(1.31091 0.0475485 3.53839e-21)
(1.37656 -0.0448728 -5.12292e-20)
(1.36033 -0.167746 2.6509e-20)
(1.28196 -0.265982 -2.32419e-22)
(1.21612 -0.337569 0)
(1.10801 -0.387773 -1.44829e-22)
(1.01347 -0.381624 -1.17329e-22)
(1.02238 -0.318167 0)
(0.88596 -0.458235 -1.17748e-20)
(0.817474 -0.444408 1.11423e-20)
(0.938725 -0.0304534 2.4412e-22)
(0.78829 0.332365 1.24713e-20)
(0.707787 0.586962 -1.1819e-20)
(0.692406 0.477361 1.20612e-22)
(0.884945 0.244165 1.11232e-22)
(1.07559 -0.0126152 0)
(1.10154 -0.345353 6.64568e-21)
(1.10259 -0.441054 -6.30382e-21)
(0.976273 -0.494719 -5.31479e-21)
(0.865294 -0.198381 -4.21214e-22)
(0.952533 0.307019 5.52987e-21)
(0.843931 0.347342 -2.43247e-21)
(1.00298 0.370433 5.14903e-22)
(1.16618 0.0868073 3.70497e-21)
(0.951187 -0.616068 -1.4442e-21)
(0.944416 -0.23914 3.28398e-21)
(0.956591 0.413544 -2.40863e-21)
(0.969683 0.215164 0)
(1.04745 -0.0861172 0)
(0.941078 -0.0707978 0)
(0.928949 0.0107834 4.01439e-23)
(0.990683 0.0418617 -5.40983e-23)
(0.947705 0.011786 3.86902e-23)
(0.924022 -0.0123253 -2.36074e-23)
(0.947858 0.00723575 -1.21737e-23)
(0.939229 0.0157623 0)
(1.20823 0.0378568 0)
(1.23779 0.0297812 0)
(1.26802 0.0181658 0)
(1.29586 -0.04066 0)
(1.30195 -0.122222 0)
(1.25042 -0.197691 0)
(1.20997 -0.249704 0)
(1.14988 -0.297885 0)
(1.02302 -0.33422 0)
(1.04562 -0.261364 0)
(0.945807 -0.397222 0)
(0.774821 -0.493724 0)
(0.858191 -0.0978251 0)
(0.771119 0.343118 0)
(0.688686 0.614013 0)
(0.718683 0.442975 0)
(0.937606 0.185535 0)
(1.09762 -0.0136682 0)
(1.11667 -0.306102 0)
(1.10177 -0.423997 0)
(0.945293 -0.500631 0)
(0.833883 -0.225162 0)
(0.907798 0.296881 0)
(0.79418 0.340446 0)
(0.99477 0.354533 0)
(1.19076 0.119844 0)
(0.943561 -0.585854 0)
(0.910352 -0.263056 0)
(0.931891 0.40396 0)
(0.953985 0.215279 0)
(1.04391 -0.0777123 0)
(0.938856 -0.0606381 0)
(0.918816 0.0062718 0)
(0.982771 0.040593 0)
(0.94154 0.0177252 0)
(0.914288 -0.0117722 0)
(0.939675 0.00591831 0)
(0.935842 0.0162198 0)
(1.19622 0.03298 0)
(1.20918 0.0143168 0)
(1.23131 -0.00437043 0)
(1.2407 -0.0677442 0)
(1.23699 -0.116603 0)
(1.20948 -0.18632 0)
(1.14305 -0.265247 0)
(1.1027 -0.271664 0)
(0.995808 -0.30754 0)
(0.950294 -0.291245 0)
(0.893453 -0.35062 0)
(0.758444 -0.400826 0)
(0.755061 -0.0293148 0)
(0.65432 0.40117 0)
(0.658333 0.617016 0)
(0.780476 0.375864 0)
(1.00907 0.100414 0)
(1.12879 -0.0873689 0)
(1.12829 -0.338433 0)
(1.06787 -0.389371 0)
(0.855652 -0.413835 0)
(0.771032 -0.175366 0)
(0.830978 0.326256 0)
(0.714507 0.324595 0)
(0.985388 0.282435 0)
(1.1904 0.0868432 0)
(0.926792 -0.548517 0)
(0.885922 -0.231806 0)
(0.891247 0.412014 0)
(0.933825 0.192076 0)
(1.04138 -0.0781169 0)
(0.934591 -0.0454598 0)
(0.905193 0.00308785 0)
(0.970761 0.037809 0)
(0.934009 0.0240262 0)
(0.905164 -0.0114594 0)
(0.930816 0.00359633 0)
(0.932002 0.0162878 0)
(1.17573 0.0275791 0)
(1.18361 0.000768217 0)
(1.2021 -0.0173713 0)
(1.20237 -0.0543647 0)
(1.18619 -0.106561 0)
(1.18221 -0.134759 0)
(1.12658 -0.184237 0)
(1.08403 -0.206165 0)
(1.03822 -0.222012 0)
(0.981711 -0.195998 0)
(0.913095 -0.265108 0)
(0.751236 -0.361228 0)
(0.633954 -0.00482626 0)
(0.557173 0.419381 0)
(0.694135 0.559164 0)
(0.919784 0.2707 0)
(1.0859 0.0127334 0)
(1.1484 -0.0861383 0)
(1.13757 -0.272526 0)
(1.04563 -0.323395 0)
(0.793795 -0.371187 0)
(0.687049 -0.182637 0)
(0.727764 0.326642 0)
(0.669538 0.275029 0)
(0.965695 0.205631 0)
(1.20156 0.109836 0)
(0.943652 -0.490654 0)
(0.861219 -0.239767 0)
(0.852356 0.394141 0)
(0.922108 0.168633 0)
(1.03984 -0.0747082 0)
(0.929485 -0.0286391 0)
(0.893741 -0.00146104 0)
(0.959928 0.033549 0)
(0.927987 0.0309588 0)
(0.899855 -0.0108002 0)
(0.924396 0.00065592 0)
(0.929481 0.0159502 0)
(1.15189 0.0190381 0)
(1.16191 -0.000267548 0)
(1.1663 -0.0234032 0)
(1.16792 -0.0557321 0)
(1.15272 -0.0887866 0)
(1.1313 -0.120756 0)
(1.10105 -0.166561 0)
(1.05423 -0.179141 0)
(1.00334 -0.209357 0)
(0.953061 -0.204094 0)
(0.909478 -0.211915 0)
(0.793842 -0.229081 0)
(0.618046 0.0925709 0)
(0.615973 0.359833 0)
(0.831888 0.398788 0)
(1.07347 0.165692 0)
(1.15232 -0.0153508 0)
(1.15047 -0.110466 0)
(1.11373 -0.276864 0)
(0.994183 -0.247162 0)
(0.767175 -0.262968 0)
(0.595576 -0.131176 0)
(0.613669 0.334855 0)
(0.677424 0.212001 0)
(0.941785 0.105211 0)
(1.18234 0.0819722 0)
(0.968593 -0.422308 0)
(0.808285 -0.199968 0)
(0.783824 0.383586 0)
(0.916552 0.129514 0)
(1.04189 -0.0777379 0)
(0.925433 -0.00783504 0)
(0.886031 -0.00443426 0)
(0.95134 0.0291563 0)
(0.923924 0.0379054 0)
(0.899662 -0.0103296 0)
(0.921999 -0.00272329 0)
(0.929185 0.0153122 0)
(1.12838 0.0138505 0)
(1.13503 -0.00399389 0)
(1.14063 -0.024046 0)
(1.13513 -0.0480872 0)
(1.12352 -0.0756225 0)
(1.10606 -0.0943426 0)
(1.08276 -0.126971 0)
(1.04623 -0.128854 0)
(1.01468 -0.145844 0)
(0.964966 -0.132993 0)
(0.906445 -0.128677 0)
(0.827949 -0.151129 0)
(0.709624 0.109121 0)
(0.799984 0.262432 0)
(0.98556 0.26442 0)
(1.15196 0.0836394 0)
(1.15126 -0.0387748 0)
(1.1388 -0.0735001 0)
(1.1074 -0.202693 0)
(0.983081 -0.16292 0)
(0.829763 -0.172902 0)
(0.613556 -0.0934875 0)
(0.60104 0.292034 0)
(0.771437 0.125209 0)
(0.926243 0.0171685 0)
(1.15923 0.078732 0)
(1.01477 -0.352273 0)
(0.753591 -0.162411 0)
(0.72425 0.363295 0)
(0.940397 0.0824333 0)
(1.04837 -0.0766632 0)
(0.917771 0.0162008 0)
(0.880661 -0.00842098 0)
(0.946398 0.0233699 0)
(0.923955 0.0443111 0)
(0.905831 -0.01036 0)
(0.925377 -0.00625826 0)
(0.932773 0.0145656 0)
(1.10737 0.00865056 0)
(1.1122 -0.0033443 0)
(1.11576 -0.0216264 0)
(1.11009 -0.0393637 0)
(1.09974 -0.0597276 0)
(1.0849 -0.0740685 0)
(1.06475 -0.0986985 0)
(1.03263 -0.100467 0)
(1.00789 -0.117847 0)
(0.965393 -0.109216 0)
(0.933999 -0.0854693 0)
(0.885265 -0.0918804 0)
(0.819381 0.101791 0)
(0.927391 0.162526 0)
(1.04237 0.154373 0)
(1.15426 0.0572198 0)
(1.12065 -0.0118735 0)
(1.10316 -0.0696212 0)
(1.06455 -0.188941 0)
(0.95188 -0.110115 0)
(0.892063 -0.0762069 0)
(0.726025 -0.0284497 0)
(0.721345 0.252671 0)
(0.935503 0.0705486 0)
(0.944652 -0.0587188 0)
(1.11422 0.037071 0)
(1.0508 -0.263929 0)
(0.720288 -0.0872723 0)
(0.719263 0.322939 0)
(0.990562 0.018448 0)
(1.04693 -0.0715768 0)
(0.901924 0.0460961 0)
(0.884512 -0.013882 0)
(0.949322 0.0159559 0)
(0.929722 0.0501207 0)
(0.919209 -0.0110055 0)
(0.935928 -0.00978081 0)
(0.941372 0.0139021 0)
(1.08835 0.00587637 0)
(1.09186 -0.00298253 0)
(1.09436 -0.0185015 0)
(1.08826 -0.0302349 0)
(1.08078 -0.0471306 0)
(1.06659 -0.0558025 0)
(1.05295 -0.0739675 0)
(1.02767 -0.0733488 0)
(1.01325 -0.0797176 0)
(0.977426 -0.075714 0)
(0.960061 -0.0429627 0)
(0.927143 -0.0538363 0)
(0.896912 0.0669591 0)
(0.986155 0.0914016 0)
(1.03364 0.101447 0)
(1.10944 0.030535 0)
(1.0877 -0.01459 0)
(1.09126 -0.0346823 0)
(1.05013 -0.121407 0)
(0.938855 -0.061554 0)
(0.937204 -0.0283025 0)
(0.850831 -0.00933579 0)
(0.869647 0.183118 0)
(1.07364 0.0346129 0)
(0.994647 -0.0675108 0)
(1.05903 0.0277354 0)
(1.07012 -0.193682 0)
(0.755554 -0.0268155 0)
(0.793688 0.257105 0)
(1.04454 -0.0366931 0)
(1.03507 -0.052334 0)
(0.900335 0.0750792 0)
(0.91442 -0.0252951 0)
(0.963318 0.00732054 0)
(0.94314 0.055455 0)
(0.943165 -0.0125445 0)
(0.953037 -0.0129078 0)
(0.953566 0.013659 0)
(1.07199 0.00409953 0)
(1.07452 -0.00188403 0)
(1.07621 -0.0142478 0)
(1.07084 -0.0221498 0)
(1.06609 -0.0343507 0)
(1.05305 -0.0408252 0)
(1.04583 -0.0511487 0)
(1.02318 -0.052917 0)
(1.01752 -0.0536469 0)
(0.986979 -0.0541228 0)
(0.980281 -0.0263537 0)
(0.962522 -0.0336612 0)
(0.948135 0.0426643 0)
(1.00242 0.0451059 0)
(1.02315 0.0608267 0)
(1.07981 0.0209008 0)
(1.05466 -0.00689823 0)
(1.06075 -0.0289919 0)
(1.0352 -0.0894457 0)
(0.955462 -0.0405311 0)
(0.972342 -0.0104734 0)
(0.934825 0.000335204 0)
(0.957134 0.124696 0)
(1.09738 0.0174896 0)
(1.01268 -0.0582996 0)
(1.0274 0.0110507 0)
(1.04676 -0.140556 0)
(0.824429 0.0309212 0)
(0.904522 0.200936 0)
(1.07369 -0.0721028 0)
(1.00831 -0.0258927 0)
(0.923063 0.095983 0)
(0.965258 -0.0372833 0)
(0.977751 0.00265121 0)
(0.962701 0.0595837 0)
(0.976095 -0.0146536 0)
(0.971588 -0.0138563 0)
(0.967757 0.0143289 0)
(1.0588 0.00373775 0)
(1.06024 -0.00051711 0)
(1.06214 -0.00960439 0)
(1.05668 -0.015287 0)
(1.05465 -0.0236301 0)
(1.04289 -0.0288875 0)
(1.0398 -0.0340179 0)
(1.02187 -0.0377205 0)
(1.02001 -0.0337311 0)
(0.998196 -0.0377931 0)
(0.996772 -0.0139317 0)
(0.984596 -0.0215376 0)
(0.979624 0.0248151 0)
(1.01078 0.0203251 0)
(1.01614 0.0363032 0)
(1.05385 0.0109191 0)
(1.03939 -0.00859322 0)
(1.04629 -0.0142448 0)
(1.02522 -0.0520732 0)
(0.975499 -0.0222837 0)
(0.988112 -0.00108358 0)
(0.971382 -0.0039499 0)
(0.988199 0.0763628 0)
(1.08221 0.0102654 0)
(1.013 -0.0374875 0)
(1.0235 0.0208415 0)
(1.01945 -0.100437 0)
(0.882533 0.0418469 0)
(0.995888 0.148937 0)
(1.07774 -0.0768373 0)
(0.982243 0.00313988 0)
(0.96921 0.100199 0)
(1.01768 -0.0459371 0)
(0.985792 0.00444579 0)
(0.99185 0.060419 0)
(1.01129 -0.0159303 0)
(0.989164 -0.0113458 0)
(0.986342 0.0156979 0)
(1.04869 0.00406484 0)
(1.04891 0.00080945 0)
(1.05087 -0.00544692 0)
(1.04584 -0.0099496 0)
(1.04568 -0.0148758 0)
(1.03584 -0.0197522 0)
(1.03524 -0.0210559 0)
(1.02171 -0.0259803 0)
(1.02171 -0.0200669 0)
(1.00721 -0.0257772 0)
(1.0063 -0.00770236 0)
(1.00028 -0.0155527 0)
(0.996909 0.014085 0)
(1.01497 0.00650218 0)
(1.01434 0.0191615 0)
(1.03907 0.00603258 0)
(1.02826 -0.00676642 0)
(1.03141 -0.00929004 0)
(1.02013 -0.032902 0)
(0.990363 -0.0152464 0)
(0.999035 0.000607507 0)
(0.993031 -0.00285721 0)
(0.995667 0.0465896 0)
(1.06121 0.0076373 0)
(1.00282 -0.0272463 0)
(1.02381 0.0185833 0)
(1.0169 -0.0688426 0)
(0.921367 0.0384462 0)
(1.03674 0.109059 0)
(1.06267 -0.0654642 0)
(0.967078 0.0183889 0)
(1.01856 0.0873078 0)
(1.04648 -0.0449016 0)
(0.984818 0.00948945 0)
(1.02253 0.0542989 0)
(1.03546 -0.0145437 0)
(1.00089 -0.00642646 0)
(1.00461 0.0161139 0)
(1.04048 0.00467211 0)
(1.04005 0.0019999 0)
(1.04212 -0.00197818 0)
(1.03795 -0.0056191 0)
(1.03855 -0.00825979 0)
(1.03115 -0.0126782 0)
(1.03118 -0.0120221 0)
(1.02218 -0.017391 0)
(1.02191 -0.0110462 0)
(1.01363 -0.0178674 0)
(1.0121 -0.00369733 0)
(1.00987 -0.0117655 0)
(1.00629 0.00753086 0)
(1.01769 0.000225581 0)
(1.01392 0.00946988 0)
(1.02878 0.00221387 0)
(1.02228 -0.0060006 0)
(1.02395 -0.00467288 0)
(1.01755 -0.0184981 0)
(1.00117 -0.00809901 0)
(1.0042 0.00182104 0)
(1.00426 -0.00144524 0)
(0.999019 0.0253712 0)
(1.04617 0.00718103 0)
(1.00293 -0.0175073 0)
(1.01929 0.0199611 0)
(1.01932 -0.040147 0)
(0.944586 0.0251467 0)
(1.0446 0.0763277 0)
(1.04869 -0.0426144 0)
(0.96468 0.0227055 0)
(1.04599 0.0669728 0)
(1.04864 -0.0333093 0)
(0.98515 0.012911 0)
(1.04208 0.0428698 0)
(1.04305 -0.0087988 0)
(1.00711 -0.000416658 0)
(1.01705 0.0151894 0)
(1.0339 0.00521081 0)
(1.03339 0.00305274 0)
(1.03522 0.000663727 0)
(1.03207 -0.00237418 0)
(1.03282 -0.00355955 0)
(1.02767 -0.00750446 0)
(1.02781 -0.00599231 0)
(1.02216 -0.011119 0)
(1.02162 -0.0054592 0)
(1.01736 -0.0120308 0)
(1.01514 -0.00140704 0)
(1.0153 -0.00904721 0)
(1.01127 0.00424587 0)
(1.01869 -0.00272691 0)
(1.01426 0.00449051 0)
(1.02338 -4.4279e-05 0)
(1.01848 -0.00393087 0)
(1.01949 -0.00255628 0)
(1.01546 -0.0109159 0)
(1.00736 -0.00364293 0)
(1.00713 -5.0629e-05 0)
(1.01139 0.000658439 0)
(1.00211 0.0132739 0)
(1.0337 0.00613349 0)
(1.00539 -0.0106538 0)
(1.01257 0.0142358 0)
(1.02395 -0.0207416 0)
(0.965524 0.0163627 0)
(1.0373 0.0514901 0)
(1.0381 -0.0224846 0)
(0.973516 0.0189519 0)
(1.05105 0.0472653 0)
(1.04012 -0.0184088 0)
(0.992728 0.0115642 0)
(1.04698 0.0303266 0)
(1.04009 -0.00122873 0)
(1.0118 0.00379919 0)
(1.0236 0.0127254 0)
(1.0287 0.00557716 0)
(1.02827 0.00377392 0)
(1.02973 0.00244752 0)
(1.02755 -9.16258e-05 0)
(1.02826 -0.000424126 0)
(1.02486 -0.00380477 0)
(1.02499 -0.00209457 0)
(1.02153 -0.0066446 0)
(1.02096 -0.00194265 0)
(1.0188 -0.00789564 0)
(1.0168 0.000117491 0)
(1.01752 -0.00678421 0)
(1.01397 0.00275777 0)
(1.01877 -0.00360641 0)
(1.01459 0.00248664 0)
(1.02015 -0.00130012 0)
(1.01613 -0.00250816 0)
(1.01748 -0.00104746 0)
(1.01436 -0.00663154 0)
(1.01128 -9.46509e-06 0)
(1.00929 -0.00111695 0)
(1.01408 0.00264693 0)
(1.00527 0.00632959 0)
(1.02578 0.00513035 0)
(1.00869 -0.0038267 0)
(1.0106 0.0100548 0)
(1.02306 -0.006328 0)
(0.982413 0.0112225 0)
(1.02962 0.0323928 0)
(1.03057 -0.00564321 0)
(0.986375 0.0152561 0)
(1.04495 0.0325732 0)
(1.03191 -0.00473706 0)
(1.00309 0.00880714 0)
(1.04333 0.0210408 0)
(1.03476 0.00627016 0)
(1.01631 0.0067511 0)
(1.02663 0.0105837 0)
(1.02453 0.0057046 0)
(1.02424 0.00416496 0)
(1.02539 0.00354162 0)
(1.02397 0.00142253 0)
(1.02459 0.00153853 0)
(1.02238 -0.00127609 0)
(1.02253 0.000289977 0)
(1.02038 -0.00349861 0)
(1.02 0.000156471 0)
(1.01886 -0.00484837 0)
(1.01731 0.00113445 0)
(1.018 -0.00488108 0)
(1.01519 0.00239604 0)
(1.01824 -0.00353888 0)
(1.01473 0.00201195 0)
(1.01828 -0.00176347 0)
(1.01498 -0.00107584 0)
(1.01633 1.6099e-06 0)
(1.01394 -0.00430665 0)
(1.01289 0.00235307 0)
(1.01097 -0.00243654 0)
(1.01485 0.00421302 0)
(1.00813 0.00267048 0)
(1.02063 0.00417821 0)
(1.0102 0.000830378 0)
(1.01111 0.00517417 0)
(1.02038 0.00174854 0)
(0.995974 0.00824215 0)
(1.02386 0.0196007 0)
(1.02447 0.00456764 0)
(0.998452 0.0103281 0)
(1.03731 0.0221587 0)
(1.0265 0.00464262 0)
(1.01174 0.00510954 0)
(1.03773 0.0144397 0)
(1.03062 0.0115338 0)
(1.02004 0.00768027 0)
(1.02799 0.00827687 0)
(1.02119 0.00558735 0)
(1.02101 0.00428232 0)
(1.02193 0.00408205 0)
(1.02101 0.00233689 0)
(1.02158 0.00264604 0)
(1.02014 0.000380332 0)
(1.02036 0.00167087 0)
(1.01896 -0.00133242 0)
(1.01881 0.00140363 0)
(1.01812 -0.00262137 0)
(1.01709 0.00183375 0)
(1.01757 -0.00322396 0)