/*--------------------------------*- C++ -*----------------------------------*\
| =========                 |                                                 |
| \\      /  F ield         | OpenFOAM: The Open Source CFD Toolbox           |
|  \\    /   O peration     | Version:  2312                                  |
|   \\  /    A nd           | Website:  www.openfoam.com                      |
|    \\/     M anipulation  |                                                 |
\*---------------------------------------------------------------------------*/
FoamFile
{
    version     2.0;
    format      ascii;
    arch        "LSB;label=32;scalar=64";
    class       surfaceScalarField;
    location    "122.6";
    object      phi;
}
// * * * * * * * * * * * * * * * * * * * * * * * * * * * * * * * * * * * * * //

dimensions      [0 3 -1 0 0 0 0];

oriented        oriented;

internalField   nonuniform List<scalar> 
10785
(
0.000566549
0.00310404
-0.00367059
0.004095
0.00190525
-0.00543371
0.0127184
-0.007608
-0.00101537
0.0289593
-0.0264529
0.0102119
0.0532864
-0.0529229
0.0285958
0.0826793
-0.0824212
0.0530283
0.112188
-0.110037
0.0805281
0.137322
-0.132501
0.107366
0.155526
-0.148608
0.130404
0.16677
-0.159038
0.147794
0.172775
-0.165403
0.159398
0.176726
-0.16964
0.165689
0.180596
-0.173408
0.169537
0.184925
-0.175661
0.171332
-0.17914
0.172935
0.19113
0.000525199
0.00257884
0.00552102
-0.00309056
0.01868
-0.020767
0.0413995
-0.0491724
0.0699547
-0.081478
0.0981799
-0.110646
0.121151
-0.133008
0.136816
-0.148166
0.146019
-0.157811
0.151271
-0.164289
0.155349
-0.169481
0.160163
-0.174454
0.165936
-0.17918
0.174035
-0.18376
-0.189236
0.184132
0.00118312
0.00139571
0.00929764
-0.0112051
0.0281659
-0.0396353
0.0545775
-0.075584
0.0810102
-0.107911
0.101929
-0.131566
0.115729
-0.146808
0.123934
-0.15637
0.129251
-0.163129
0.133879
-0.168917
0.138835
-0.174437
0.144151
-0.17977
0.149876
-0.184905
0.156219
-0.190103
-0.195072
0.162054
0.00238917
-0.000993457
0.014808
-0.0236239
0.0376529
-0.0624802
0.0623738
-0.100305
0.0821096
-0.127646
0.0951041
-0.14456
0.103035
-0.154739
0.108375
-0.16171
0.112766
-0.16752
0.116815
-0.172967
0.120683
-0.178306
0.124641
-0.183728
0.129137
-0.1894
0.134392
-0.195359
-0.201849
0.141169
0.00406046
-0.00505391
0.0205149
-0.0400784
0.0432706
-0.0852359
0.0626976
-0.119732
0.0756991
-0.140648
0.0835389
-0.1524
0.0884564
-0.159656
0.0919953
-0.165249
0.0949235
-0.170448
0.0976905
-0.175734
0.100678
-0.181293
0.104141
-0.18719
0.108058
-0.193317
0.11254
-0.199842
-0.206446
0.117137
0.00615514
-0.011209
0.0245961
-0.0585193
0.0438721
-0.104512
0.0575496
-0.133409
0.0655853
-0.148684
0.0700464
-0.156861
0.0727468
-0.162357
0.0747634
-0.167266
0.0766522
-0.172336
0.0786515
-0.177733
0.0808091
-0.183451
0.0830775
-0.189459
0.085567
-0.195807
0.088223
-0.202498
-0.209401
0.0911785
0.00814192
-0.019351
0.0257539
-0.0761313
0.0405143
-0.119272
0.0493227
-0.142218
0.0536855
-0.153047
0.0557486
-0.158924
0.0568989
-0.163507
0.0577583
-0.168125
0.0585085
-0.173087
0.0591955
-0.17842
0.0598907
-0.184146
0.0607434
-0.190312
0.0618169
-0.19688
0.0631461
-0.203827
-0.211056
0.0648009
0.00938439
-0.0287354
0.024309
-0.0910559
0.0346424
-0.129606
0.0395739
-0.147149
0.041265
-0.154738
0.0415278
-0.159187
0.0412543
-0.163234
0.0407411
-0.167612
0.0401059
-0.172451
0.0394428
-0.177757
0.0388256
-0.183529
0.0382665
-0.189752
0.0378026
-0.196416
0.0374723
-0.203496
0.0373969
-0.210981
-0.00269274
0.0104
-0.00770722
-0.00803575
0.012942
-0.00759901
-0.0150133
0.0103129
-0.00333533
-0.0230673
0.0063847
0.00166927
-0.0318219
0.000969935
0.00778463
-0.0413342
-0.00615029
0.0156626
-0.0511348
-0.0158473
0.0256479
-0.0607166
-0.0282076
0.0377894
-0.0694317
-0.0430949
0.0518099
-0.0765077
-0.0599069
0.0669829
-0.0810015
-0.0775734
0.0820672
-0.0817806
-0.0946729
0.095452
-0.0777257
-0.10934
0.105285
-0.0679041
-0.119386
0.109564
-0.123493
-0.0513001
0.106889
-0.00179381
0.0121938
-0.00598384
0.017132
-0.0115795
0.0159086
-0.018042
0.0128472
-0.0252833
0.00821122
-0.0327273
0.00129362
-0.0406707
-0.00790385
-0.0487141
-0.0201641
-0.0565227
-0.0352863
-0.0637892
-0.0526404
-0.0702306
-0.071132
-0.0754858
-0.0894177
-0.0788276
-0.105998
-0.0797216
-0.118492
-0.12669
-0.0765246
-0.000346908
0.0125407
-0.00240039
0.0191855
-0.00548497
0.0189932
-0.0089702
0.0163325
-0.0125786
0.0118196
-0.0162181
0.00493311
-0.0194273
-0.00469466
-0.0220424
-0.017549
-0.0237635
-0.0335652
-0.0244428
-0.051961
-0.0243285
-0.0712463
-0.0239992
-0.089747
-0.0240535
-0.105944
-0.0254421
-0.117103
-0.124759
-0.0273738
0.00110629
0.0114344
0.00146675
0.0188251
0.00121946
0.0192405
0.00106676
0.0164852
0.0014211
0.0114653
0.00258556
0.00376865
0.00507869
-0.00718779
0.00944553
-0.0219158
0.0161087
-0.0402284
0.0252889
-0.0611412
0.0362555
-0.0822129
0.0487506
-0.102242
0.0600479
-0.117241
0.0702146
-0.12727
-0.132208
0.0776641
0.00211359
0.0093208
0.00453811
0.0164005
0.00695758
0.016821
0.00996502
0.0134777
0.0141511
0.00727916
0.0200483
-0.00212851
0.0284681
-0.0156075
0.0399343
-0.033382
0.0546763
-0.0549704
0.0721893
-0.0786543
0.0915111
-0.101535
0.111009
-0.12174
0.130362
-0.136593
0.148197
-0.145105
-0.150374
0.166363
0.00241563
0.00690518
0.0060659
0.0127503
0.0103707
0.0125162
0.0158683
0.00798006
0.0233043
-0.000156845
0.0340831
-0.0129073
0.0489028
-0.0304272
0.0680458
-0.0525251
0.0906958
-0.0776204
0.114852
-0.102811
0.138588
-0.12527
0.159791
-0.142944
0.177284
-0.154086
0.19289
-0.160711
-0.161908
0.204424
0.00201537
0.00488981
0.00586797
0.00889767
0.0111769
0.00720729
0.0186498
0.000507187
0.0301234
-0.0116304
0.0466494
-0.0294334
0.0686683
-0.052446
0.0947512
-0.078608
0.122068
-0.104937
0.147444
-0.128187
0.168675
-0.1465
0.184416
-0.158685
0.195688
-0.165358
0.203936
-0.168959
-0.167033
0.209061
0.00121923
0.00468319
0.0108751
0.0215943
0.0385596
0.0621545
0.0902366
0.118995
0.144462
0.164069
0.176967
0.18397
0.18815
0.190522
0.196425
0.000545327
-0.236576
0.184731
0.0772072
-0.0989145
0.0222526
0.134208
0.106418
-0.163419
0.176918
0.274006
-0.316716
0.200016
0.329508
-0.352606
0.178556
0.378929
-0.357469
0.15404
0.394239
-0.369723
0.17819
0.257589
-0.281738
0.219334
-0.0469119
0.0057676
0.258255
-0.246382
0.20746
0.262984
-0.27154
0.266811
0.247437
-0.345805
0.361352
0.245073
-0.364517
0.366882
0.255838
-0.391227
0.380461
0.266486
-0.164186
0.153538
0.277316
0.0849383
-0.0957691
0.292603
0.29614
-0.311427
0.29799
0.557819
-0.563206
0.292668
0.416519
-0.411196
0.300814
0.202141
-0.210287
0.304675
-0.138577
0.134717
0.302003
-0.673692
0.676364
0.304421
-0.467359
0.464942
0.308535
-0.179597
0.175482
0.326856
0.276525
-0.294846
0.330923
1.00187
-1.00594
0.30328
0.32874
-0.301097
0.287929
-0.805254
0.820606
0.293073
-0.458288
0.453143
0.282029
0.353956
-0.342911
0.273466
0.31851
-0.309947
0.263584
-0.0919534
0.101835
0.263384
-0.126325
0.126524
0.263685
0.0366658
-0.0369671
0.258801
0.0451542
-0.0402697
0.2583
-0.00807691
0.00857814
0.255944
-0.00969393
0.0120495
0.010781
-0.00586767
-0.0536409
-0.25946
0.0187758
-0.171331
0.100697
0.0244966
0.174342
0.200362
0.207082
0.296767
0.188883
0.397128
0.178181
0.404941
0.207553
0.228216
0.233158
-0.0725168
0.261045
-0.274269
0.265249
-0.275744
0.245222
-0.325777
0.244907
-0.364203
0.254783
-0.401103
0.263879
-0.173281
0.274731
0.0740858
0.292671
0.2782
0.301016
0.549474
0.293621
0.423913
0.301183
0.19458
0.299266
-0.136661
0.290313
-0.66474
0.296838
-0.473884
0.301441
-0.1842
0.328611
0.249356
0.340925
0.989556
0.30687
0.362795
0.281845
-0.780229
0.288431
-0.464873
0.283383
0.359003
0.276595
0.325298
0.264537
-0.0798956
0.263272
-0.125059
0.264917
0.035021
0.260136
0.049935
0.258714
-0.00665491
0.256584
-0.00756451
0.0152181
-0.0498499
-0.236984
-0.0144443
-0.206737
0.07718
-0.0671278
0.170429
0.107113
0.208767
0.258429
0.199467
0.406428
0.204468
0.39994
0.236675
0.19601
0.248378
-0.0842198
0.261157
-0.287048
0.263341
-0.277928
0.237806
-0.300242
0.235822
-0.362219
0.248254
-0.413535
0.25965
-0.184677
0.270727
0.063008
0.290613
0.258314
0.302705
0.537383
0.293359
0.433259
0.298666
0.189272
0.291337
-0.129331
0.275578
-0.648981
0.285902
-0.484209
0.290661
-0.188959
0.325523
0.214493
0.346812
0.968268
0.308706
0.400901
0.273642
-0.745165
0.281512
-0.472743
0.282453
0.358061
0.277773
0.329978
0.263955
-0.0660774
0.261613
-0.122717
0.264756
0.0318783
0.26035
0.0543411
0.258127
-0.00443259
0.25641
-0.00584706
0.0189322
0.0198695
-0.179189
-0.00568707
-0.18118
0.0520337
-0.124849
0.14194
0.0172065
0.187639
0.21273
0.198899
0.395167
0.222808
0.376031
0.258717
0.160101
0.262083
-0.0875866
0.258568
-0.283533
0.260943
-0.280303
0.234305
-0.273604
0.222686
-0.3506
0.235855
-0.426704
0.254489
-0.203311
0.265354
0.0521433
0.283417
0.240251
0.298042
0.522758
0.288696
0.442605
0.292134
0.185834
0.280011
-0.117209
0.259093
-0.628062
0.272234
-0.49735
0.276807
-0.193532
0.316335
0.174964
0.345922
0.938681
0.304932
0.441892
0.264054
-0.704287
0.272608
-0.481297
0.279027
0.351643
0.276717
0.332288
0.261829
-0.0511899
0.258512
-0.1194
0.263244
0.027146
0.259465
0.0581201
0.256601
-0.00156864
0.255472
-0.00471755
0.0216941
0.127998
-0.140825
0.0686477
-0.12183
0.0563059
-0.112507
0.113673
-0.0401605
0.170927
0.155476
0.205741
0.360354
0.23997
0.341802
0.274807
0.125263
0.273299
-0.0860788
0.25285
-0.263084
0.249985
-0.277438
0.227125
-0.250744
0.205062
-0.328536
0.214109
-0.435751
0.243883
-0.233086
0.25787
0.0381565
0.275157
0.222964
0.29333
0.504585
0.283832
0.452102
0.28366
0.186007
0.266615
-0.100164
0.240785
-0.602232
0.255469
-0.512034
0.260056
-0.198119
0.303488
0.131533
0.341949
0.90022
0.298722
0.485118
0.253588
-0.659153
0.262096
-0.489805
0.273583
0.340155
0.273716
0.332155
0.258386
-0.0358598
0.254201
-0.115215
0.260498
0.020849
0.257557
0.061062
0.254241
0.00174733
0.25386
-0.00433707
0.0233018
0.184673
-0.121074
0.153552
-0.0907084
0.116505
-0.0754594
0.118363
-0.0420191
0.165171
0.108669
0.215494
0.310031
0.255373
0.301923
0.284037
0.0966
0.277742
-0.0797843
0.246393
-0.231736
0.235755
-0.2668
0.217895
-0.232883
0.187579
-0.29822
0.187656
-0.435829
0.226748
-0.272177
0.246821
0.0180836
0.262008
0.207776
0.280746
0.485847
0.273942
0.458906
0.273087
0.186861
0.252013
-0.0790893
0.221512
-0.571731
0.236248
-0.526769
0.241626
-0.203497
0.285893
0.0872653
0.329951
0.856162
0.288857
0.526212
0.242658
-0.612954
0.250244
-0.49739
0.265945
0.324455
0.268693
0.329407
0.2537
-0.0208663
0.248897
-0.110412
0.256661
0.0130843
0.25473
0.0629931
0.251186
0.00529183
0.251699
-0.0048506
0.023587
0.186685
-0.0986982
0.175824
-0.0798478
0.165828
-0.0654636
0.163704
-0.0398946
0.191599
0.0807732
0.240954
0.260676
0.275609
0.267269
0.288951
0.0832576
0.272493
-0.0633265
0.235367
-0.19461
0.218281
-0.249713
0.204424
-0.219026
0.171269
-0.265065
0.160414
-0.424973
0.20289
-0.314654
0.233342
-0.0123676
0.250127
0.190991
0.271158
0.464817
0.265356
0.464708
0.262176
0.190042
0.237124
-0.0540374
0.201314
-0.535921
0.214918
-0.540374
0.22099
-0.209569
0.267601
0.0406543
0.318983
0.80478
0.279409
0.565785
0.231721
-0.565266
0.238034
-0.503704
0.257297
0.305192
0.262299
0.324405
0.248135
-0.00670203
0.242928
-0.105205
0.25195
0.00406243
0.251141
0.0638014
0.247617
0.00881617
0.249143
-0.00637637
0.022424
0.178763
-0.0810366
0.166244
-0.0673287
0.162391
-0.0616111
0.165633
-0.0431362
0.199423
0.0469833
0.254015
0.206084
0.289707
0.231576
0.295169
0.0777955
0.270147
-0.0383043
0.226994
-0.151457
0.203132
-0.225851
0.190076
-0.20597
0.156433
-0.231423
0.135429
-0.403969
0.17371
-0.352935
0.210526
-0.0491834
0.230903
0.170614
0.253088
0.442632
0.250965
0.466831
0.250356
0.19065
0.223253
-0.026934
0.181361
-0.494029
0.192041
-0.551054
0.199306
-0.216834
0.245137
-0.00517695
0.3019
0.748018
0.266408
0.601277
0.220021
-0.518878
0.225407
-0.50909
0.246602
0.283997
0.254258
0.316749
0.241903
0.00565244
0.236612
-0.0999137
0.246578
-0.00590391
0.246974
0.0634058
0.243734
0.0120558
0.246354
-0.00899609
0.019727
0.40525
-0.052432
-0.433854
0.379522
-0.0416013
0.354598
-0.0366872
0.328225
-0.016763
0.322649
0.0525601
0.384663
0.14407
0.469046
0.147194
0.514362
0.0324787
0.514488
-0.03843
0.488926
-0.125894
0.454911
-0.191837
0.430118
-0.181177
0.408254
-0.209558
0.368105
-0.36382
0.346116
-0.330946
0.323053
-0.0261206
0.286449
0.207218
0.288316
0.440764
0.332057
0.42309
0.403689
0.119018
0.429609
-0.0528539
0.394027
-0.458447
0.363929
-0.520956
0.325675
-0.178579
0.333424
-0.0129261
0.390265
0.691176
0.417929
0.573614
0.398823
-0.499773
0.361309
-0.471576
0.358465
0.286841
0.383174
0.292039
0.375576
0.0132506
0.363196
-0.0875332
0.371597
-0.0143057
0.369062
0.0659415
0.360578
0.0205394
0.360987
-0.00940486
0.0187201
0.443993
-0.0300267
-0.466398
0.426428
-0.0240368
0.408732
-0.0189915
0.396632
-0.00466265
0.408967
0.0402247
0.466638
0.0863989
0.525145
0.0886874
0.544871
0.0127521
0.534643
-0.0282017
0.511779
-0.103031
0.474974
-0.155031
0.44649
-0.152693
0.425362
-0.18843
0.387523
-0.325981
0.356482
-0.299905
0.312851
0.0175107
0.28016
0.239909
0.300113
0.420811
0.368546
0.354658
0.44969
0.0378743
0.466354
-0.0695188
0.418567
-0.41066
0.375693
-0.478082
0.323019
-0.125905
0.333694
-0.0236011
0.407356
0.617514
0.454803
0.526167
0.435824
-0.480793
0.387389
-0.42314
0.380294
0.293935
0.412793
0.259541
0.408487
0.0175566
0.393435
-0.0724816
0.401704
-0.0225751
0.399494
0.0681518
0.389995
0.0300389
0.390774
-0.0101843
0.0167382
0.489326
-0.0148295
-0.504523
0.477765
-0.0124763
0.466883
-0.00810966
0.459585
0.00263607
0.474276
0.0255331
0.513682
0.0469933
0.550088
0.0522813
0.56454
-0.00169999
0.560725
-0.024386
0.542563
-0.0848687
0.511583
-0.124051
0.496179
-0.137289
0.473288
-0.165539
0.410435
-0.263128
0.349366
-0.238836
0.29495
0.0719263
0.277704
0.257155
0.335443
0.363071
0.42425
0.265851
0.498259
-0.0361343
0.513618
-0.0848778
0.456365
-0.353407
0.386526
-0.408244
0.310884
-0.050263
0.32593
-0.0386475
0.434387
0.509058
0.504178
0.456375
0.477495
-0.45411
0.41569
-0.361336
0.405593
0.304032
0.446536
0.218598
0.44476
0.0193327
0.426612
-0.0543338
0.434432
-0.0303946
0.432759
0.0698247
0.422908
0.0398896
0.424162
-0.011438
0.0138917
0.53678
-0.0053924
-0.546217
0.527996
-0.00369203
0.522488
-0.00260202
0.521224
0.00389963
0.531127
0.0156302
0.556172
0.0219482
0.580962
0.0274912
0.588667
-0.00940502
0.584915
-0.0206341
0.571885
-0.071838
0.54083
-0.0929961
0.514122
-0.110581
0.489685
-0.141102
0.425795
-0.199238
0.346001
-0.159042
0.298118
0.119809
0.322596
0.232677
0.415748
0.269919
0.505955
0.175644
0.551903
-0.0820826
0.556232
-0.0892066
0.490199
-0.287374
0.392592
-0.310637
0.301759
0.0405698
0.322302
-0.0591904
0.463259
0.368101
0.55542
0.364214
0.5204
-0.41909
0.438147
-0.279083
0.429324
0.312855
0.483275
0.164646
0.485011
0.0175973
0.4637
-0.0330234
0.470853
-0.0375472
0.469769
0.0709088
0.46048
0.0491788
0.462427
-0.0133853
0.0104136
0.586518
0.000102306
-0.592013
0.58192
0.000906521
0.579161
0.000156614
0.579599
0.00346194
0.586656
0.00857346
0.600963
0.00764056
0.615313
0.0131416
0.622333
-0.0164254
0.618721
-0.0170219
0.607399
-0.0605153
0.589369
-0.0749666
0.563872
-0.0850844
0.527355
-0.104585
0.464351
-0.136234
0.396592
-0.0912827
0.381842
0.134558
0.437126
0.177393
0.530583
0.176463
0.596295
0.109933
0.609074
-0.0948622
0.602749
-0.0828812
0.536885
-0.22151
0.429804
-0.203556
0.345524
0.12485
0.353473
-0.0671392
0.496813
0.224761
0.608476
0.252551
0.563967
-0.37458
0.456209
-0.171325
0.456324
0.312741
0.528694
0.092276
0.530684
0.0156074
0.504725
-0.00706465
0.511635
-0.0444565
0.511805
0.0707386
0.504268
0.0567158
0.507248
-0.0163651
0.006615
0.640012
0.00305054
-0.64296
0.637811
0.00310723
0.636379
0.00158951
0.637731
0.00210988
0.641835
0.00446867
0.649936
-0.000460132
0.658521
0.00455653
0.660565
-0.0184694
0.659085
-0.0155415
0.646214
-0.047645
0.625229
-0.0539817
0.6053
-0.065155
0.579578
-0.0788625
0.530745
-0.0874009
0.484334
-0.0448717
0.5062
0.112692
0.568763
0.11483
0.637663
0.107562
0.673156
0.0744398
0.656291
-0.0779975
0.635943
-0.0625331
0.577991
-0.163557
0.495633
-0.121199
0.456388
0.164095
0.445925
-0.0566769
0.548686
0.122
0.657028
0.14421
0.601096
-0.318649
0.479217
-0.0494458
0.502394
0.289564
0.587121
0.00754863
0.580724
0.022004
0.550866
0.0227933
0.55959
-0.0531796
0.561353
0.0689752
0.55642
0.0616489
0.560614
-0.0205592
0.00298914
0.697087
0.00444497
-0.698482
0.696435
0.00375898
0.695637
0.0023876
0.696871
0.00087607
0.69914
0.00220019
0.702938
-0.00425889
0.707539
-4.40561e-05
0.706569
-0.0174995
0.704805
-0.0137775
0.694317
-0.037157
0.679977
-0.0396415
0.66325
-0.0484277
0.636872
-0.0524853
0.60109
-0.0516187
0.581073
-0.0248544
0.617823
0.0759421
0.662768
0.0698858
0.704562
0.0657675
0.730217
0.0487855
0.70984
-0.0576205
0.684492
-0.0371856
0.632507
-0.111572
0.581018
-0.0697098
0.59598
0.149133
0.587525
-0.0482213
0.63468
0.0748445
0.707891
0.0709987
0.646609
-0.257367
0.538967
0.0581959
0.584434
0.244097
0.657565
-0.0655816
0.638307
0.0412622
0.611341
0.0497587
0.621489
-0.0633277
0.62273
0.0677343
0.62058
0.0637996
0.624667
-0.0246471
0.000910892
0.758217
0.00485719
-0.758629
0.758389
0.003587
0.758023
0.00275321
0.758731
0.000168076
0.759885
0.00104588
0.760897
-0.00527027
0.763084
-0.00223083
0.760711
-0.0151267
0.758494
-0.011561
0.749135
-0.027798
0.736738
-0.0272443
0.722677
-0.0343663
0.705493
-0.0353021
0.683838
-0.0299639
0.673391
-0.0144065
0.70437
0.0449625
0.734065
0.0401914
0.758877
0.0409549
0.773843
0.0338197
0.755982
-0.0397594
0.740055
-0.0212592
0.701401
-0.0729172
0.675125
-0.0434342
0.709779
0.114479
0.703202
-0.0416438
0.72171
0.0563365
0.755864
0.0368442
0.697528
-0.19903
0.632736
0.122987
0.689742
0.187091
0.730167
-0.106007
0.703416
0.0680139
0.689111
0.0640639
0.696448
-0.0706656
0.695739
0.0684441
0.697427
0.0621117
0.699119
-0.0263393
0.00178699
0.824256
0.00474538
-0.824145
0.824672
0.00317148
0.824527
0.00289831
0.824815
-0.000120539
0.825125
0.000736201
0.824818
-0.00496284
0.825155
-0.00256791
0.822045
-0.012017
0.81953
-0.00904562
0.811806
-0.0200745
0.803304
-0.0187418
0.792679
-0.0237415
0.780436
-0.023059
0.767139
-0.0166669
0.762462
-0.00973009
0.782439
0.024986
0.799565
0.0230655
0.817328
0.0231915
0.829121
0.0220271
0.816475
-0.027114
0.805043
-0.00982719
0.773966
-0.0418399
0.762407
-0.0318751
0.795993
0.0808928
0.789303
-0.034953
0.803406
0.042233
0.811144
0.0291061
0.759003
-0.146889
0.744728
0.137262
0.7988
0.133019
0.801646
-0.108853
0.780426
0.089234
0.782101
0.0623892
0.780337
-0.0689026
0.780021
0.0687605
0.786018
0.0561144
0.78304
-0.0233615
0.00560165
0.89577
0.00440443
-0.895429
0.896173
0.00276897
0.896189
0.00288184
0.896124
-5.49602e-05
0.896018
0.000842099
0.895002
-0.00394661
0.894435
-0.00200156
0.891421
-0.0090031
0.888882
-0.00650608
0.882903
-0.0140962
0.876621
-0.0124591
0.868485
-0.0156057
0.860465
-0.0150391
0.853204
-0.00940539
0.850325
-0.00685125
0.86234
0.0129707
0.873107
0.0122987
0.883767
0.0125318
0.8919
0.0138932
0.881337
-0.0165507
0.877318
-0.00580796
0.856661
-0.0211826
0.849046
-0.0242603
0.875117
0.0548212
0.864165
-0.0240004
0.876988
0.0294098
0.879628
0.0264658
0.83561
-0.102871
0.854166
0.118707
0.893381
0.0938033
0.870482
-0.0859534
0.868095
0.0916204
0.879295
0.0511897
0.865275
-0.054883
0.870402
0.0636344
0.879547
0.0469694
0.871193
-0.0150083
0.0107784
0.973671
0.00396443
-0.973231
0.973976
0.00246398
0.974039
0.00281842
0.97378
0.000204423
0.97346
0.00116161
0.9723
-0.00278652
0.971367
-0.00106871
0.968687
-0.00632304
0.96637
-0.00418867
0.961754
-0.0094806
0.957217
-0.00792125
0.95169
-0.0100796
0.946299
-0.00964817
0.942286
-0.00539187
0.94051
-0.0050749
0.947044
0.00643589
0.953449
0.00589454
0.959379
0.00660116
0.96576
0.00751214
0.958191
-0.00898105
0.956185
-0.00380194
0.94354
-0.00853846
0.935926
-0.0166462
0.955653
0.0350947
0.945617
-0.0139646
0.956698
0.018329
0.958287
0.0248765
0.919339
-0.0639228
0.951216
0.0868295
0.978026
0.0669928
0.946212
-0.0541393
0.960592
0.0772411
0.971556
0.0402253
0.950288
-0.0336151
0.962573
0.0513499
0.971948
0.0375947
0.96013
-0.00319092
0.0154773
1.05879
0.00355387
-1.05838
1.05898
0.00227961
1.05907
0.00272452
1.05871
0.000564272
1.05838
0.00148836
1.05725
-0.00165167
1.05631
-0.000129651
1.05411
-0.00412719
1.05215
-0.00222834
1.04885
-0.0061766
1.04556
-0.00463356
1.04186
-0.00638253
1.03811
-0.00589907
1.03596
-0.00324035
1.03461
-0.00372213
1.03782
0.00322399
1.04188
0.00184093
1.04435
0.00412617
1.04878
0.00308278
1.0433
-0.00350393
1.04206
-0.00255673
1.03621
-0.00269174
1.02881
-0.00924943
1.04309
0.0208205
1.03456
-0.0054337
1.04084
0.0120447
1.04563
0.0200833
1.01484
-0.0331299
1.04448
0.0571956
1.06247
0.0489984
1.03367
-0.0253396
1.0547
0.0562123
1.06147
0.0334566
1.04115
-0.0133002
1.05663
0.0358708
1.06358
0.0306476
1.05177
0.00862101
0.0186465
1.15191
0.00317887
-1.15154
1.15204
0.00215595
1.15215
0.00261248
1.15181
0.000905611
1.15154
0.00175772
1.15059
-0.00070327
1.14981
0.000653815
1.14812
-0.00244187
1.14661
-0.000721063
1.14428
-0.00383764
1.14191
-0.00226714
1.1395
-0.00397007
1.13691
-0.00330906
1.13558
-0.00191419
1.13459
-0.00273092
1.13582
0.00199709
1.13811
-0.000452351
1.13885
0.00338667
1.14164
0.00028833
1.13832
-0.000175789
1.1372
-0.00144547
1.13476
-0.00024774
1.12849
-0.00297499
1.13825
0.0110539
1.13208
0.000739637
1.13591
0.00821192
1.14105
0.0149432
1.11852
-0.0105961
1.14126
0.0344551
1.15395
0.0363114
1.13284
-0.004236
1.15219
0.0368675
1.15547
0.0301756
1.14058
0.00158456
1.1549
0.0215529
1.15903
0.0265147
1.14973
0.0179273
0.0201631
1.25396
0.00283522
-1.25362
1.25406
0.00205891
1.25419
0.00247588
1.25392
0.00117959
1.25376
0.00192096
1.25303
2.53534e-05
1.25246
0.00121965
1.25123
-0.00121467
1.25014
0.000371598
1.24853
-0.00222932
1.24688
-0.000611384
1.24529
-0.00238554
1.24349
-0.00150139
1.24259
-0.00101479
1.24172
-0.0018668
1.24201
0.0017085
1.24312
-0.00156356
1.24306
0.00344868
1.24461
-0.00126595
1.24248
0.00195611
1.24163
-0.000588855
1.24084
0.000535302
1.23637
0.00149765
1.24278
0.00464085
1.23829
0.00522892
1.24043
0.00607203
1.24495
0.0104304
1.23083
0.0035205
1.24644
0.0188416
1.2546
0.0281506
1.24166
0.00870422
1.25696
0.0215761
1.25827
0.0288627
1.24905
0.0107992
1.26041
0.0101977
1.26252
0.0244063
1.25631
0.0241338
0.0203212
1.36578
0.00252026
-1.36546
1.36588
0.00195032
1.36605
0.00230782
1.36588
0.00135031
1.36583
0.00197375
1.36531
0.00054345
1.36496
0.00156586
1.36411
-0.000363926
1.3634
0.0010846
1.36231
-0.0011353
1.36121
0.000486216
1.36015
-0.00132661
1.35889
-0.000240067
1.35824
-0.000367092
1.35744
-0.00106117
1.35738
0.0017636
1.35762
-0.00180031
1.35736
0.0037029
1.35803
-0.00193758
1.35676
0.00322796
1.35631
-0.000133871
1.35598
0.000860047
1.35323
0.0042528
1.35714
0.000727654
1.35427
0.0081048
1.35593
0.00440385
1.35906
0.00730385
1.351
0.0115833
1.36108
0.00875459
1.36642
0.02281
1.35993
0.0152022
1.37093
0.0105717
1.37155
0.0282409
1.36676
0.015593
1.37487
0.00208478
1.37597
0.0233129
1.37263
0.0274684
0.0195215
1.48829
0.00220786
-1.48797
1.48843
0.0018025
1.48864
0.0020977
1.48859
0.00140913
1.48864
0.0019169
1.48833
0.000855057
1.48819
0.00171118
1.48763
0.000194535
1.48722
0.00148774
1.48649
-0.000400814
1.4858
0.00117561
1.48508
-0.000605681
1.4842
0.00063694
1.48374
9.1029e-05
1.48296
-0.000277191
1.48286
0.00186313
1.48255
-0.0014924
1.4824
0.00385235
1.4825
-0.00203917
1.48181
0.00391771
1.48163
4.613e-05
1.48144
0.00105536
1.4802
0.00549357
1.48231
-0.00138112
1.4808
0.00961126
1.48201
0.0031995
1.48383
0.00547679
1.48029
0.0151261
1.48645
0.00259909
1.4898
0.0194518
1.48787
0.0171344
1.49535
0.0030911
1.49609
0.0275068
1.49443
0.0172488
1.49973
-0.00321065
1.50049
0.0225464
1.49945
0.0285123
0.0180295
1.6225
0.00188957
-1.62218
1.62269
0.0016037
1.62295
0.00184199
1.623
0.00135886
1.62316
0.0017565
1.62302
0.000997765
1.62305
0.00167791
1.6227
0.000544833
1.62257
0.00162115
1.62206
0.000107074
1.62171
0.00152285
1.62117
-6.84723e-05
1.62061
0.00120476
1.62026
0.000435661
1.61956
0.000423025
1.61954
0.00188341
1.6189
-0.000853214
1.61904
0.00371194
1.61869
-0.00168213
1.61858
0.00402239
1.61854
8.56636e-05
1.61841
0.00118662
1.61838
0.00552529
1.6191
-0.00209743
1.61893
0.00978015
1.61968
0.00244824
1.62054
0.00461903
1.61983
0.0158362
1.62311
-0.000685436
1.62596
0.0166051
1.62688
0.0162085
1.63117
-0.00119375
1.63278
0.0258983
1.63324
0.0167812
1.63575
-0.00572202
1.63699
0.0213143
1.63807
0.0274329
0.0161672
1.76946
0.00154605
-1.76912
1.76973
0.00133315
1.77005
0.00152864
1.77021
0.0011905
1.77048
0.00149496
1.77049
0.000983763
1.77068
0.00148545
1.7705
0.000727591
1.77059
0.0015255
1.77022
0.000486559
1.77016
0.00158269
1.76967
0.000411968
1.76938
0.00149483
1.76903
0.000788947
1.76844
0.00101041
1.76849
0.00183467
1.76766
-2.07577e-05
1.76817
0.00320069
1.76745
-0.000964142
1.768
0.0034755
1.76801
7.72619e-05
1.76804
0.00115964
1.76903
0.00453486
1.76865
-0.00171796
1.76968
0.00874559
1.76979
0.00234134
1.76986
0.00454527
1.7712
0.0144992
1.77228
-0.00176893
1.77532
0.013569
1.77813
0.0133961
1.77973
-0.00279693
1.78255
0.0230813
1.78435
0.0149801
1.78426
-0.00563437
1.7864
0.0191791
1.7895
0.02433
0.0140603
1.9304
0.00121389
-1.93006
1.9307
0.00103256
1.93101
0.00121686
1.93125
0.000952876
1.93153
0.0012127
1.93165
0.000862409
1.93191
0.00122698
1.93185
0.000787926
1.93209
0.00127995
1.93181
0.000773941
1.93202
0.00136449
1.93156
0.000877948
1.93165
0.00140007
1.93126
0.00118039
1.93104
0.00123557
1.93116
0.00170961
1.93042
0.000719262
1.93136
0.00225941
1.9303
9.91575e-05
1.93156
0.0022116
1.93123
0.00041105
1.93141
0.000978156
1.933
0.00295056
1.93144
-0.000159882
1.93392
0.00625932
1.93331
0.0029551
1.93311
0.00474775
1.93689
0.0107192
1.93505
6.95505e-05
1.93911
0.00950796
1.94336
0.00914873
1.94094
-0.000382268
1.94686
0.0171633
1.94974
0.0121023
1.94496
-0.000859615
1.94932
0.0148244
1.95578
0.0178643
0.0119153
2.10657
0.000950956
-2.10631
2.10679
0.000814915
2.10703
0.000975602
2.10721
0.000775705
2.10743
0.000994347
2.10755
0.000739871
2.10776
0.00101529
2.10782
0.000734223
2.10805
0.00104313
2.10803
0.000791994
2.10832
0.00107436
2.10827
0.000930065
2.10859
0.00108369
2.10863
0.00113989
2.10884
0.00102695
2.10919
0.00136173
2.10905
0.000854905
2.10982
0.00149268
2.10927
0.000640751
2.11009
0.00139612
2.10974
0.000766109
2.10966
0.00105651
2.11068
0.00192974
2.10946
0.00106185
2.1118
0.00391104
2.11197
0.00279302
2.11253
0.00418263
2.11699
0.00626121
2.11487
0.002192
2.11809
0.00628779
2.12165
0.00558428
2.11834
0.00292472
2.12505
0.0104621
2.12867
0.00848145
2.12383
0.00397629
2.12863
0.0100205
2.13547
0.0110282
0.00950359
2.29937
0.000681549
-2.2991
2.29958
0.000609629
2.29984
0.000711523
2.30002
0.00059806
2.30028
0.000737323
2.30044
0.000580683
2.30069
0.000761701
2.30086
0.000568417
2.30112
0.000784576
2.30133
0.000579149
2.3016
0.00079923
2.3019
0.000628995
2.3022
0.000786302
2.30261
0.000734466
2.30291
0.000723731
2.30338
0.00089292
2.30363
0.000599413
2.30406
0.00106917
2.3042
0.00049734
2.30443
0.00116456
2.30454
0.000660937
2.30451
0.00108622
2.30501
0.0014269
2.30504
0.00102987
2.30635
0.00260447
2.30743
0.00171242
2.30869
0.00292375
2.31147
0.00348553
2.31152
0.00213678
2.31344
0.00436902
2.31551
0.00351684
2.31523
0.00320582
2.31946
0.00623139
2.32271
0.00522357
2.32253
0.00416286
2.32592
0.00663277
2.33012
0.00682626
0.00666903
2.51047
0.000356422
-2.51014
2.51075
0.000324486
2.51109
0.000375125
2.51136
0.000324217
2.51171
0.000391221
2.51197
0.000321301
2.51233
0.000404928
2.51257
0.000320331
2.51294
0.000415319
2.51319
0.000328722
2.51357
0.00041934
2.51385
0.000352047
2.51423
0.000410872
2.51456
0.000396044
2.5149
0.000386734
2.51533
0.000459707
2.51559
0.000347405
2.51612
0.000534785
2.51629
0.000327872
2.51685
0.000601237
2.5171
0.000410536
2.51755
0.000636512
2.51826
0.000725109
2.51861
0.000678659
2.51996
0.00125286
2.52075
0.000919717
2.52211
0.00156951
2.52404
0.00154932
2.5248
0.00138232
2.52703
0.00213372
2.52886
0.00168338
2.52998
0.00209013
2.53336
0.0028503
2.536
0.00258647
2.53746
0.00270389
2.54083
0.00325588
2.54442
0.00324533
0.00352737
2.74176
-2.74141
2.74209
2.74246
2.74279
2.74318
2.7435
2.7439
2.74422
2.74464
2.74497
2.74539
2.74574
2.74615
2.74655
2.74693
2.74739
2.74774
2.74827
2.7486
2.7492
2.74961
2.75025
2.75098
2.75165
2.75291
2.75383
2.7554
2.75695
2.75833
2.76046
2.76215
2.76424
2.76709
2.76967
2.77238
2.77563
2.77888
0.428921
0.0321359
-0.42366
0.434368
0.059354
0.437621
0.0879249
0.442475
0.112284
0.441799
0.141845
0.4445
0.159354
0.440178
0.188453
0.197454
0.456885
0.0285924
-0.453341
0.461474
0.0547646
0.463321
0.0860778
0.466656
0.108949
0.467772
0.140729
0.468311
0.158815
0.469858
0.186905
0.200915
0.490438
0.0258363
-0.487682
0.493223
0.0519788
0.495864
0.0834368
0.497977
0.106836
0.501571
0.137135
0.502455
0.157931
0.505317
0.184044
0.201709
0.527908
0.0232638
-0.525335
0.529847
0.0500392
0.53336
0.079924
0.53543
0.104767
0.539527
0.133038
0.54148
0.155977
0.544625
0.180899
0.200116
0.570368
0.0209282
-0.568032
0.572221
0.0481862
0.575709
0.0764359
0.578079
0.102397
0.581853
0.129263
0.584666
0.153165
0.588774
0.17679
0.196878
0.617643
0.0189189
-0.615633
0.619567
0.0462619
0.622609
0.0733937
0.625314
0.0996923
0.629248
0.125329
0.633205
0.149208
0.638419
0.171576
0.192337
0.669939
0.0172318
-0.668252
0.671966
0.0442348
0.674945
0.070415
0.678335
0.0963024
0.682807
0.120857
0.68767
0.144345
0.693024
0.166222
0.186879
0.727687
0.0157236
-0.726179
0.729923
0.0419995
0.732991
0.0673463
0.736806
0.0924877
0.741361
0.116301
0.746491
0.139215
0.752213
0.160499
0.180464
0.791185
0.0143854
-0.789847
0.793462
0.0397225
0.796533
0.0642752
0.800524
0.0884966
0.805242
0.111583
0.810861
0.133597
0.817148
0.154213
0.173467
0.860808
0.0131748
-0.859598
0.863096
0.0374343
0.866247
0.0611244
0.870416
0.0843279
0.87539
0.106609
0.88133
0.127656
0.887985
0.147558
0.166022
0.937024
0.0120562
-0.935905
0.939282
0.0351764
0.9425
0.0579056
0.946794
0.0800341
0.952031
0.101372
0.95826
0.121428
0.965325
0.140493
0.158117
1.02031
0.0110222
-1.01928
1.02255
0.0329347
1.0259
0.0545588
1.03041
0.0755247
1.03596
0.0958158
1.04252
0.114874
1.05
0.133009