/*--------------------------------*- C++ -*----------------------------------*\
| =========                 |                                                 |
| \\      /  F ield         | OpenFOAM: The Open Source CFD Toolbox           |
|  \\    /   O peration     | Version:  2512                                  |
|   \\  /    A nd           | Website:  www.openfoam.com                      |
|    \\/     M anipulation  |                                                 |
\*---------------------------------------------------------------------------*/
FoamFile
{
    version     2.0;
    format      ascii;
    arch        "LSB;label=32;scalar=64";
    class       volVectorField;
    location    "113.15";
    object      U;
}
// * * * * * * * * * * * * * * * * * * * * * * * * * * * * * * * * * * * * * //

dimensions      [0 1 -1 0 0 0 0];

internalField   nonuniform List<vector> 
13248
(
(-0.0206464 0.016625 7.63187e-20)
(-0.0344277 0.0303147 0)
(-0.0204433 0.0323962 -1.31458e-19)
(0.0236808 0.0261879 1.21717e-19)
(0.100829 0.0133198 1.12303e-19)
(0.213326 -0.00470431 0)
(0.360354 -0.0260917 0)
(0.535098 -0.0489416 2.63455e-19)
(0.724038 -0.0716158 -6.87089e-22)
(0.909545 -0.0930595 -2.2525e-19)
(1.07431 -0.112872 2.05131e-19)
(1.20543 -0.13111 -1.27339e-19)
(1.29674 -0.147952 0)
(1.34926 -0.163454 -2.0079e-19)
(1.36959 -0.177477 3.65052e-19)
(1.36714 -0.18979 -8.75458e-20)
(1.35103 -0.200146 -1.36951e-19)
(1.32799 -0.208357 1.27695e-19)
(1.30183 -0.214251 0)
(1.27434 -0.21819 0)
(1.24651 -0.218431 0)
(1.21657 -0.221487 0)
(1.19094 -0.211077 2.72515e-20)
(1.15257 -0.225882 8.44386e-20)
(-0.0226875 0.0165726 -2.29732e-19)
(-0.0285904 0.0247812 1.447e-19)
(0.00279304 0.0199573 -8.2551e-22)
(0.0733914 0.00732212 -1.85088e-19)
(0.185946 -0.00998804 -1.12142e-19)
(0.339914 -0.029366 -1.04591e-19)
(0.527044 -0.0484388 -1.90541e-19)
(0.730151 -0.0655114 1.77054e-19)
(0.927209 -0.0799822 0)
(1.09801 -0.0922691 1.49157e-21)
(1.22935 -0.103308 1.62801e-21)
(1.31706 -0.113957 1.23293e-19)
(1.36503 -0.124619 0)
(1.38226 -0.135208 0)
(1.37911 -0.145334 1.25696e-19)
(1.36436 -0.15454 -2.34522e-19)
(1.34378 -0.162418 1.28843e-19)
(1.32041 -0.168757 -1.20133e-19)
(1.29573 -0.173367 -4.91255e-20)
(1.27044 -0.176201 -8.33284e-20)
(1.24485 -0.177329 -2.99206e-20)
(1.21997 -0.176707 -5.43943e-20)
(1.19548 -0.171904 8.56785e-20)
(1.16928 -0.17414 2.22974e-20)
(-0.0226894 0.0152687 0)
(-0.015645 0.0180837 0)
(0.0406055 0.00814782 6.66701e-20)
(0.146641 -0.00829524 6.08678e-20)
(0.302275 -0.0266805 -9.9808e-22)
(0.498978 -0.0434275 -1.07044e-19)
(0.716281 -0.0564053 0)
(0.926864 -0.0653773 -8.80043e-20)
(1.10643 -0.0716044 7.98011e-20)
(1.24083 -0.0768713 -1.27298e-21)
(1.32761 -0.0825824 -1.30805e-19)
(1.37343 -0.0893316 -1.14759e-19)
(1.38939 -0.09698 4.73008e-21)
(1.38662 -0.104999 -8.57063e-20)
(1.37357 -0.112811 2.10293e-19)
(1.35535 -0.119961 0)
(1.33459 -0.126165 -1.22343e-19)
(1.31257 -0.131263 6.01513e-20)
(1.29004 -0.13499 4.90746e-20)
(1.26728 -0.137708 0)
(1.24514 -0.138026 3.64273e-20)
(1.22262 -0.138951 -1.17127e-19)
(1.20172 -0.134547 1.09379e-19)
(1.17865 -0.138345 6.08926e-20)
(-0.019731 0.0124063 -7.97228e-20)
(0.00660309 0.00925569 -7.59976e-20)
(0.0954494 -0.00419016 6.83854e-20)
(0.244482 -0.0212764 0)
(0.445922 -0.0364181 0)
(0.677387 -0.0462523 -1.3374e-21)
(0.905447 -0.0506063 0)
(1.09963 -0.0516191 -2.61321e-19)
(1.24311 -0.0519758 2.37433e-19)
(1.33421 -0.0535821 -2.87436e-19)
(1.38177 -0.0571342 6.44877e-20)
(1.39872 -0.0623878 0)
(1.39695 -0.0686806 9.80104e-20)
(1.385 -0.0753487 -1.77766e-19)
(1.3679 -0.0818959 4.21708e-20)
(1.34833 -0.0879908 9.99091e-20)
(1.32765 -0.0934074 -7.65479e-21)
(1.30662 -0.0979174 -1.06791e-19)
(1.28557 -0.101503 0)
(1.26487 -0.103805 0)
(1.24438 -0.105064 -3.38416e-20)
(1.22447 -0.105609 2.92118e-20)
(1.20559 -0.102628 9.74975e-20)
(1.18526 -0.106718 -9.10407e-20)
(-0.0131127 0.00825219 -8.28198e-20)
(0.040104 -0.00117051 -7.70813e-20)
(0.169366 -0.0160043 2.12945e-19)
(0.366199 -0.0296701 -1.28484e-19)
(0.608694 -0.0369012 1.19007e-19)
(0.85766 -0.0368779 2.13384e-19)
(1.07351 -0.0326481 -1.47445e-19)
(1.23351 -0.0280486 -1.71779e-19)
(1.3348 -0.0256114 6.2104e-21)
(1.38769 -0.0261322 2.13276e-19)
(1.40702 -0.0292099 0)
(1.40614 -0.0339906 5.41296e-20)
(1.39448 -0.0396663 0)
(1.37767 -0.0456444 -8.32545e-20)
(1.35874 -0.0515248 1.15932e-19)
(1.33911 -0.057033 1.28299e-21)
(1.31942 -0.0619563 -2.8417e-20)
(1.29986 -0.0661952 5.16367e-20)
(1.28057 -0.0695668 4.33127e-20)
(1.26154 -0.0721592 -3.76829e-20)
(1.24299 -0.0737346 3.38253e-20)
(1.22494 -0.0747215 -2.91975e-20)
(1.20743 -0.0738324 0)
(1.18965 -0.0773324 -2.10434e-20)
(-0.00213222 0.00338174 8.27989e-20)
(0.0865385 -0.0115885 7.99266e-20)
(0.263173 -0.0245833 -7.1333e-20)
(0.507491 -0.0301124 1.30971e-19)
(0.777623 -0.0260108 -1.21309e-19)
(1.02237 -0.016031 1.07085e-19)
(1.20807 -0.00570113 -5.05469e-20)
(1.32729 0.00137756 1.29252e-19)
(1.39059 0.00415282 -7.91944e-20)
(1.41499 0.00321741 1.33633e-19)
(1.41613 -0.000260555 -3.01919e-19)
(1.40517 -0.0051987 1.08168e-19)
(1.38876 -0.0108186 -9.14318e-20)
(1.3703 -0.0166194 8.51173e-20)
(1.35129 -0.0222896 7.05164e-20)
(1.33225 -0.0276259 5.98009e-20)
(1.31332 -0.0325063 -1.64627e-19)
(1.29462 -0.0368028 1.00772e-19)
(1.27622 -0.0404851 -4.33051e-20)
(1.2583 -0.0434249 1.09188e-19)
(1.24091 -0.04565 -3.51361e-20)
(1.22411 -0.0472368 -8.11721e-20)
(1.20803 -0.0473552 7.39382e-20)
(1.19208 -0.0506994 2.10367e-20)
(0.0139503 -0.00152239 0)
(0.146945 -0.0198476 6.68749e-22)
(0.375238 -0.0265743 1.47699e-19)
(0.659557 -0.0197393 -1.3617e-19)
(0.938132 -0.00354454 -1.20387e-19)
(1.15999 0.0139549 2.19182e-19)
(1.30716 0.0271127 -9.97989e-20)
(1.38789 0.0341576 1.27797e-19)
(1.42128 0.0358241 -4.02513e-21)
(1.42615 0.0337468 -6.90764e-20)
(1.41626 0.029469 1.45534e-19)
(1.39989 0.0240852 -2.10717e-19)
(1.38119 0.018257 0)
(1.36194 0.0123559 -3.93491e-20)
(1.34278 0.00659808 -1.02548e-19)
(1.32394 0.0011243 3.21502e-20)
(1.30555 -0.00394573 1.66485e-21)
(1.28765 -0.00853842 -6.54411e-20)
(1.27033 -0.012563 5.53453e-21)
(1.25357 -0.0160055 7.39893e-20)
(1.2374 -0.0188495 -3.16074e-20)
(1.22182 -0.0210095 -1.13786e-20)
(1.20674 -0.0226552 3.6354e-20)
(1.19196 -0.0257899 0)
(0.0357503 -0.00567097 0)
(0.221158 -0.0235336 4.05463e-20)
(0.50074 -0.0189594 -1.9056e-19)
(0.810947 0.00254534 6.81042e-20)
(1.07906 0.0289394 -6.30829e-20)
(1.26701 0.0504914 -5.53354e-20)
(1.37532 0.0636246 -9.5018e-20)
(1.42391 0.0689392 4.74204e-20)
(1.43556 0.0686702 4.01755e-20)
(1.42788 0.0650682 0)
(1.4117 0.0597486 8.52197e-20)
(1.39256 0.0536614 -1.2391e-19)
(1.37283 0.0473072 9.12939e-20)
(1.35339 0.0409543 3.93659e-20)
(1.33449 0.0347669 -3.12631e-20)
(1.3162 0.0288666 -2.53211e-20)
(1.29849 0.0233371 -2.30337e-20)
(1.28134 0.0182518 6.98683e-20)
(1.26475 0.0136479 0)
(1.24874 0.00956099 3.32717e-20)
(1.23333 0.00603998 2.68267e-20)
(1.21848 0.00304198 -6.72863e-20)
(1.2042 0.000450231 -4.40119e-20)
(1.1905 -0.00235011 4.07019e-20)
(0.0635209 -0.00816451 -4.61766e-20)
(0.307353 -0.020252 -1.30752e-21)
(0.632155 0.000159196 3.86527e-20)
(0.951212 0.0360672 1.04957e-19)
(1.19497 0.0692692 2.87964e-20)
(1.34534 0.0915528 -5.5507e-20)
(1.41896 0.102535 5.00439e-20)
(1.44267 0.105077 -4.2651e-20)
(1.43939 0.102464 7.39264e-20)
(1.42399 0.0971592 3.06957e-20)
(1.40428 0.0906264 -8.59335e-20)
(1.3837 0.0836151 2.49195e-20)
(1.36349 0.0764932 4.16064e-20)
(1.344 0.0694568 -2.03304e-20)
(1.32527 0.0626298 0)
(1.30725 0.0561005 2.91195e-20)
(1.28994 0.0499401 4.83352e-20)
(1.27333 0.0442007 7.75078e-21)
(1.25742 0.0389289 -3.93193e-20)
(1.24221 0.0341596 1.61889e-20)
(1.22765 0.029902 0)
(1.21368 0.0261248 -1.22574e-20)
(1.20026 0.0226378 -1.10939e-20)
(1.18726 0.0197451 0)
(0.0969819 -0.00801559 0)
(0.401938 -0.00796499 2.23369e-20)
(0.760993 0.0312122 4.0686e-20)
(1.07333 0.0791621 -1.05982e-19)
(1.28502 0.115436 3.35142e-20)
(1.39904 0.135729 0)
(1.44396 0.143122 4.6686e-20)
(1.4494 0.14232 -6.40564e-20)
(1.4363 0.137157 -3.66637e-20)
(1.41628 0.129993 1.63651e-20)
(1.39465 0.122039 -2.52948e-20)
(1.37336 0.113852 6.10865e-20)
(1.35299 0.105692 3.00374e-20)
(1.3336 0.0977004 -2.08235e-20)
(1.31516 0.089975 -2.09736e-21)
(1.2976 0.0825926 -5.50604e-20)
(1.28087 0.0756097 2.48034e-20)
(1.26493 0.0690722 -4.77993e-22)
(1.24973 0.063014 0)
(1.23521 0.0574562 -1.62047e-20)
(1.22133 0.0524104 0)
(1.20802 0.047794 3.54546e-20)
(1.19522 0.0436409 -4.17741e-20)
(1.18292 0.0405949 1.87931e-20)
(0.135232 -0.00424084 -1.24258e-20)
(0.499929 0.0146503 -5.61042e-20)
(0.879763 0.0733892 6.24586e-20)
(1.17373 0.129889 3.54765e-20)
(1.35068 0.16584 -1.69646e-20)
(1.43229 0.182119 2.66651e-20)
(1.45464 0.185042 -1.29476e-20)
(1.4472 0.180601 2.07474e-20)
(1.42783 0.172753 0)
(1.40515 0.163564 4.52166e-20)
(1.3825 0.153971 -1.8808e-21)
(1.36091 0.14437 -3.56202e-20)
(1.34054 0.134943 1.5079e-20)
(1.32134 0.125796 -1.6808e-20)
(1.30321 0.117005 -6.31808e-21)
(1.28605 0.108623 7.22367e-21)
(1.26979 0.100689 -5.55706e-21)
(1.25439 0.0932366 -2.94594e-20)
(1.23981 0.0862953 1.79595e-20)
(1.22599 0.0798866 3.65629e-21)
(1.21287 0.0739933 3.17997e-21)
(1.20037 0.0685706 2.76512e-21)
(1.18841 0.0637715 0)
(1.17688 0.0601379 0)
(0.176881 0.00401443 1.24409e-20)
(0.595854 0.0480149 -1.15643e-20)
(0.983137 0.125219 -2.07596e-20)
(1.25134 0.186463 0)
(1.39428 0.21929 -8.26885e-21)
(1.44848 0.230134 -7.09793e-21)
(1.45376 0.228057 -1.18072e-20)
(1.43757 0.219794 0)
(1.41438 0.2091 0)
(1.39026 0.197669 0)
(1.36719 0.18619 0)
(1.34559 0.174931 0)
(1.32544 0.164009 -9.50411e-21)
(1.30659 0.153498 4.29445e-21)
(1.28891 0.143448 7.36834e-21)
(1.27231 0.133895 3.39372e-21)
(1.2567 0.124863 8.36974e-21)
(1.24201 0.116379 0)
(1.22819 0.108463 -1.97278e-21)
(1.21514 0.101116 -1.82146e-21)
(1.2028 0.0943095 -3.18494e-21)
(1.1911 0.0880291 -2.76944e-21)
(1.17993 0.0825326 0)
(1.16928 0.0781733 1.95626e-21)
(-0.00390913 0.148217 8.26572e-21)
(-0.0115831 0.298645 -7.83549e-21)
(-0.0267533 0.357366 -1.45312e-20)
(-0.0463709 0.365836 0)
(-0.0676074 0.3517 -1.90054e-20)
(-0.0886807 0.328541 5.80535e-21)
(-0.108376 0.300309 -1.14762e-20)
(-0.125879 0.266557 0)
(-0.1407 0.225827 0)
(-0.152573 0.177002 0)
(-0.161414 0.119567 0)
(-0.167333 0.0535544 0)
(-0.170401 -0.0204259 -2.59219e-22)
(-0.170438 -0.101512 -8.03334e-21)
(-0.167815 -0.18828 1.58781e-20)
(-0.162678 -0.279091 2.18624e-20)
(-0.155039 -0.371928 7.07282e-21)
(-0.144967 -0.464319 0)
(-0.132849 -0.553389 5.20966e-21)
(-0.119386 -0.636156 -1.47041e-20)
(-0.105754 -0.70961 -8.58168e-21)
(-0.0923239 -0.771677 -7.38299e-21)
(-0.0821031 -0.821159 0)
(-0.0690311 -0.857819 0)
(-0.010813 0.145209 -2.51861e-20)
(-0.0212957 0.303083 3.96366e-20)
(-0.03065 0.371243 -1.52096e-20)
(-0.0413684 0.386229 -2.7982e-20)
(-0.0524863 0.375041 3.86538e-20)
(-0.0626455 0.352159 -2.50772e-20)
(-0.0706932 0.322608 3.47228e-20)
(-0.0758636 0.286698 2.30481e-20)
(-0.0777785 0.243368 0)
(-0.0763668 0.191724 -2.11247e-20)
(-0.0717932 0.131398 -1.31636e-21)
(-0.0644318 0.0626059 1.82259e-20)
(-0.0547235 -0.0139344 2.77044e-20)
(-0.0428185 -0.0972041 3.5194e-20)
(-0.0290964 -0.186032 -1.56189e-20)
(-0.0136806 -0.278964 -4.5529e-20)
(0.00359395 -0.37408 1.44505e-20)
(0.0228334 -0.468748 -5.26404e-20)
(0.0435798 -0.559433 0)
(0.0653772 -0.641867 9.82715e-21)
(0.0861767 -0.712208 8.5671e-21)
(0.105463 -0.767484 7.37047e-21)
(0.114669 -0.809438 0)
(0.127547 -0.835372 0)
(-0.0166488 0.135045 0)
(-0.030045 0.294519 8.34828e-20)
(-0.0335028 0.371365 -3.08591e-20)
(-0.034732 0.393873 2.88996e-20)
(-0.0347691 0.386724 -8.13022e-20)
(-0.0329887 0.364869 0)
(-0.0284994 0.334578 -4.98031e-20)
(-0.0206464 0.297209 2.32086e-20)
(-0.00917487 0.252342 -4.56152e-20)
(0.00577896 0.199423 2.26063e-20)
(0.0237595 0.138297 1.27241e-19)
(0.044059 0.0692696 -5.94025e-20)
(0.0660771 -0.00699309 -9.6479e-20)
(0.0894309 -0.089559 -3.8094e-20)
(0.113697 -0.177691 -5.38652e-22)
(0.138923 -0.270476 1.28395e-19)
(0.165456 -0.366495 -5.9726e-20)
(0.193631 -0.463232 -8.04512e-22)
(0.223219 -0.556667 0)
(0.253612 -0.641003 -4.25773e-20)
(0.281983 -0.71119 0)
(0.308636 -0.760966 -2.77545e-20)
(0.322602 -0.793408 1.02722e-19)
(0.345242 -0.797806 -5.59183e-21)
(-0.0206757 0.118946 0)
(-0.0370481 0.273199 7.63587e-22)
(-0.0356136 0.356625 3.19341e-20)
(-0.0279304 0.387143 -3.03363e-20)
(-0.0170563 0.385313 2.64606e-20)
(-0.00337299 0.365679 1.58126e-19)
(0.0135045 0.335605 -4.94206e-20)
(0.0340021 0.297659 -4.80354e-20)
(0.0582148 0.252273 9.16358e-20)
(0.0858406 0.199337 -1.33867e-19)
(0.116237 0.138903 4.15041e-20)
(0.148478 0.0712557 4.07649e-20)
(0.182015 -0.00281263 0)
(0.216512 -0.0828688 3.68083e-20)
(0.251854 -0.168698 0)
(0.288492 -0.259894 6.51304e-20)
(0.326989 -0.3554 -1.19146e-19)
(0.367392 -0.452565 3.10151e-20)
(0.408313 -0.547064 1.00034e-19)
(0.448223 -0.632055 4.25279e-20)
(0.481943 -0.702768 0)
(0.512262 -0.750314 -8.77793e-20)
(0.523818 -0.780115 2.90794e-20)
(0.549202 -0.774529 0)
(-0.0225283 0.0990922 0)
(-0.0416255 0.241248 -1.04078e-19)
(-0.0371197 0.327647 -3.21083e-20)
(-0.0222637 0.365492 -6.02266e-20)
(-0.0017764 0.369851 5.57994e-20)
(0.0228021 0.353759 -5.27851e-20)
(0.0510988 0.325135 1.02165e-19)
(0.0831189 0.28768 5.08539e-20)
(0.118737 0.242773 -1.36741e-19)
(0.157505 0.190876 8.98249e-20)
(0.198666 0.132253 -1.27561e-19)
(0.241677 0.0673576 2.84487e-19)
(0.286106 -0.00327473 -1.53209e-19)
(0.331812 -0.0797987 7.28252e-20)
(0.37954 -0.162388 2.07594e-19)
(0.430311 -0.250928 -6.57042e-20)
(0.484528 -0.344281 -6.11316e-20)
(0.541221 -0.439088 -5.6639e-20)
(0.596817 -0.530535 0)
(0.648018 -0.610434 -7.9722e-20)
(0.686808 -0.675668 -5.92087e-20)
(0.717222 -0.715719 9.63346e-20)
(0.720851 -0.74165 8.89121e-20)
(0.736752 -0.733901 -8.16608e-20)
(-0.022308 0.0781221 0)
(-0.0434272 0.202467 -1.40437e-19)
(-0.0379647 0.286999 -2.92981e-22)
(-0.0185239 0.329883 1.20093e-19)
(0.00929324 0.340264 0)
(0.0428691 0.32866 0)
(0.0809138 0.302738 0)
(0.122822 0.266936 -4.93713e-20)
(0.168149 0.223483 -2.60371e-21)
(0.216354 0.173425 8.57223e-20)
(0.266894 0.117329 -1.28751e-19)
(0.31964 0.0557581 -1.82086e-21)
(0.374802 -0.0115021 0)
(0.433195 -0.0849167 -7.27896e-20)
(0.496272 -0.164893 6.67391e-20)
(0.564963 -0.251086 -1.87709e-19)
(0.638265 -0.341591 2.29039e-19)
(0.712715 -0.431745 4.40111e-20)
(0.781796 -0.516225 -1.2055e-20)
(0.840227 -0.585975 -1.65566e-19)
(0.87942 -0.639951 -6.45251e-20)
(0.903896 -0.666221 1.83974e-19)
(0.898041 -0.682094 -1.15588e-19)
(0.898942 -0.659344 0)
(-0.0205554 0.0585049 7.49038e-20)
(-0.0426673 0.161559 7.03229e-20)
(-0.0380703 0.239023 -6.4828e-20)
(-0.0168691 0.283164 -1.20337e-19)
(0.0154042 0.297897 1.11486e-19)
(0.0554043 0.290707 -1.05498e-19)
(0.10098 0.268229 1.46751e-19)
(0.150855 0.23504 -4.93241e-20)
(0.204265 0.19388 8.78386e-20)
(0.260749 0.146228 0)
(0.320481 0.0930471 8.17844e-20)
(0.384195 0.0344085 -1.49882e-19)
(0.453149 -0.0302986 1.47959e-19)
(0.529133 -0.101568 -1.37721e-19)
(0.613162 -0.179396 0)
(0.704004 -0.262342 1.2047e-19)
(0.797103 -0.347104 2.13259e-19)
(0.885158 -0.428019 -2.01602e-19)
(0.959061 -0.499924 -8.3322e-20)
(1.01292 -0.554868 -6.96838e-20)
(1.04025 -0.594435 1.95968e-19)
(1.04744 -0.607785 4.19865e-20)
(1.02625 -0.615723 -4.60138e-20)
(1.00802 -0.587086 3.11697e-20)
(-0.0181164 0.0420517 -7.49226e-20)
(-0.0402026 0.12303 2.10868e-19)
(-0.0375903 0.189035 -6.51327e-20)
(-0.0169673 0.22994 1.19631e-19)
(0.0169953 0.245983 -1.10831e-19)
(0.0607448 0.241783 -1.18463e-21)
(0.111608 0.222487 4.74853e-20)
(0.167913 0.19223 1.82701e-19)
(0.228922 0.153806 3.70059e-21)
(0.295003 0.108997 -8.15909e-20)
(0.367392 0.0584584 0)
(0.447927 0.0018812 -7.46028e-20)
(0.538554 -0.0609724 1.40001e-19)
(0.639807 -0.129951 1.33333e-19)
(0.749361 -0.203734 -6.36373e-20)
(0.861236 -0.279429 -3.32666e-21)
(0.966453 -0.352662 -5.34734e-20)
(1.05507 -0.418173 8.84413e-20)
(1.11848 -0.47184 8.33287e-20)
(1.15358 -0.508617 -7.11826e-20)
(1.15839 -0.531725 5.46002e-20)
(1.14337 -0.533456 -4.49524e-20)
(1.10451 -0.534519 0)
(1.06989 -0.50407 -3.1186e-20)
(-0.0159603 0.0297331 7.47375e-20)
(-0.0373754 0.090273 -7.04258e-20)
(-0.0370082 0.142116 6.4685e-20)
(-0.0181775 0.175704 0)
(0.0157515 0.189446 0)
(0.0616148 0.185794 1.01467e-19)
(0.116919 0.168373 -9.50773e-20)
(0.180406 0.140523 9.00559e-20)
(0.252357 0.104728 -4.22125e-19)
(0.334291 0.062365 -1.80056e-21)
(0.428342 0.0138134 7.49403e-20)
(0.53599 -0.04062 0)
(0.65643 -0.100314 -1.36307e-19)
(0.785294 -0.163843 2.53765e-19)
(0.914551 -0.228585 -1.78696e-19)
(1.03358 -0.291152 -2.66488e-19)
(1.13175 -0.347507 9.10619e-21)
(1.20066 -0.394341 1.67658e-19)
(1.23691 -0.429149 0)
(1.24278 -0.450334 0)
(1.22283 -0.461579 -5.46286e-20)
(1.19008 -0.45686 4.4977e-20)
(1.1421 -0.456369 -1.31436e-19)
(1.10372 -0.426589 1.22643e-19)
(-0.0149706 0.0217497 0)
(-0.0355458 0.0651063 0)
(-0.0367236 0.102044 -1.93728e-19)
(-0.0191634 0.125593 6.02799e-20)
(0.0152763 0.133923 4.22217e-22)
(0.064559 0.128211 1.00998e-19)
(0.127443 0.110844 0)
(0.204158 0.0842487 -8.78842e-20)
(0.296223 0.0502481 8.37982e-20)
(0.405368 0.00996802 -1.56245e-19)
(0.531704 -0.0356347 -1.35724e-21)
(0.672068 -0.0854205 1.3984e-19)
(0.8193 -0.137763 2.55391e-22)
(0.96293 -0.19047 1.1902e-19)
(1.0911 -0.240881 -1.70066e-19)
(1.19306 -0.286443 0)
(1.26192 -0.324608 1.72582e-19)
(1.29573 -0.354279 -2.42279e-19)
(1.29888 -0.374215 6.43389e-20)
(1.27845 -0.385734 0)
(1.24385 -0.390241 4.6334e-20)
(1.20468 -0.385593 1.51453e-19)
(1.15913 -0.385718 -1.4144e-19)
(1.12647 -0.361186 -1.26872e-19)
(-0.0156571 0.0176564 2.23723e-19)
(-0.0353117 0.0477521 -2.82156e-19)
(-0.0360036 0.0707516 8.96596e-22)
(-0.0166618 0.083323 6.013e-20)
(0.0225592 0.0844346 -1.1e-19)
(0.081543 0.0747714 -1.0142e-19)
(0.161035 0.0559046 1.88344e-19)
(0.262488 0.0295727 1.60009e-21)
(0.386628 -0.00267103 -1.63369e-19)
(0.531379 -0.0393732 3.08946e-19)
(0.690426 -0.0790241 2.71686e-21)
(0.85333 -0.119989 -1.34685e-19)
(1.00723 -0.160536 0)
(1.13944 -0.19894 0)
(1.24015 -0.233617 -5.37747e-20)
(1.30455 -0.263321 -8.96483e-20)
(1.33368 -0.287086 -1.58857e-19)
(1.33354 -0.305041 1.48116e-19)
(1.3135 -0.316572 -6.44146e-20)
(1.28158 -0.324153 1.00585e-19)
(1.24641 -0.325757 -5.53861e-20)
(1.21013 -0.324201 6.30868e-20)
(1.17392 -0.323793 -1.63295e-19)
(1.14676 -0.303356 2.64467e-20)
(-0.0178473 0.0164552 7.49654e-20)
(-0.0357325 0.0369673 0)
(-0.0320581 0.0481902 1.30178e-19)
(-0.00474549 0.0505189 -1.20534e-19)
(0.0478288 0.0441636 1.10148e-19)
(0.127561 0.0299296 0)
(0.236141 0.00917824 0)
(0.373267 -0.0164504 -8.78206e-20)
(0.534355 -0.0452468 -5.79461e-22)
(0.709524 -0.0755666 7.52832e-20)
(0.884831 -0.105977 -6.94739e-20)
(1.04517 -0.135349 1.31113e-19)
(1.17757 -0.162844 0)
(1.27385 -0.187826 2.13266e-19)
(1.33202 -0.209791 -3.88876e-19)
(1.35606 -0.228358 2.67047e-19)
(1.35405 -0.243352 1.46971e-19)
(1.33542 -0.254885 -1.37037e-19)
(1.30825 -0.26271 0)
(1.27729 -0.268421 0)
(1.24664 -0.268725 0)
(1.21376 -0.27096 0)
(1.18479 -0.265795 3.04164e-20)
(1.15738 -0.255343 -9.3184e-20)
(-0.0670824 -0.882266 -3.14614e-21)
(-0.0529165 -0.878534 3.15828e-21)
(-0.0150913 -0.830031 -8.41954e-23)
(0.05328 -0.73023 0)
(0.144888 -0.5737 -2.93039e-21)
(0.250609 -0.376504 5.86462e-21)
(0.355472 -0.154885 1.01274e-22)
(0.449191 0.0831004 -2.94516e-21)
(0.532061 0.326423 0)
(0.603678 0.541699 0)
(0.659223 0.689279 -1.10981e-22)
(0.699802 0.755915 -8.65361e-23)
(0.725858 0.764378 -1.14362e-21)
(0.736554 0.746321 1.04396e-21)
(0.740679 0.715136 0)
(0.742733 0.688063 0)
(0.733571 0.697182 9.53888e-22)
(0.705746 0.742776 1.78801e-22)
(0.672116 0.756534 -9.97702e-22)
(0.658458 0.648747 -9.31859e-23)
(0.673434 0.394388 0)
(0.705498 0.0540481 0)
(0.746312 -0.268496 0)
(0.78701 -0.491858 0)
(0.816783 -0.605778 0)
(0.830977 -0.635549 0)
(0.841883 -0.61428 1.89554e-22)
(0.843571 -0.600203 -3.09378e-22)
(0.820837 -0.629715 0)
(0.771968 -0.661433 0)
(0.709887 -0.616322 -3.06687e-22)
(0.652188 -0.459471 2.98008e-22)
(0.624074 -0.206947 1.72771e-22)
(0.627413 0.0682986 0)
(0.661126 0.29849 0)
(0.707453 0.435517 1.98385e-22)
(0.752149 0.505778 -1.92813e-22)
(0.754165 0.546105 0)
(0.71274 0.569628 1.45298e-22)
(0.652612 0.530161 -2.21898e-22)
(0.611015 0.375877 9.67986e-23)
(0.602676 0.147519 0)
(0.642161 -0.0995741 -1.53965e-22)
(0.687078 -0.258051 1.49706e-22)
(0.708882 -0.384681 0)
(0.680584 -0.453951 0)
(0.657258 -0.450249 -3.81653e-23)
(0.643661 -0.361221 1.05689e-22)
(0.653979 -0.137222 0)
(0.661689 0.0586787 0)
(0.66813 0.29416 -2.5955e-23)
(0.648098 0.420574 2.93403e-24)
(0.647806 0.388631 3.76945e-25)
(0.644565 0.284824 2.74783e-23)
(0.647863 -0.0223638 0)
(0.614614 -0.234185 0)
(0.605795 -0.378668 0)
(0.589962 -0.376257 0)
(0.574677 0.0174634 0)
(0.539487 0.142363 0)
(0.103031 -0.863347 -3.11418e-22)
(0.0650075 -0.874706 -1.10916e-20)
(0.0390265 -0.855762 7.27146e-22)
(0.043078 -0.790059 9.69923e-21)
(0.0808918 -0.664726 1.33903e-22)
(0.145432 -0.480869 0)
(0.226607 -0.258232 -1.02628e-20)
(0.313184 -0.0129964 2.01362e-20)
(0.399409 0.237457 -9.87618e-21)
(0.481192 0.462174 7.54722e-21)
(0.554726 0.624699 -7.21758e-21)
(0.618048 0.711286 4.70161e-21)
(0.665792 0.740387 -4.55704e-21)
(0.696742 0.736121 -1.03383e-22)
(0.719617 0.711072 -3.34975e-21)
(0.73714 0.69009 3.25315e-21)
(0.740841 0.708748 -3.88841e-21)
(0.727127 0.761685 3.65005e-21)
(0.712629 0.773972 -5.70535e-21)
(0.719063 0.657437 1.22801e-20)
(0.748175 0.391557 -6.526e-21)
(0.786949 0.0400971 -4.66369e-22)
(0.825227 -0.291345 -6.19647e-21)
(0.855411 -0.515488 1.08723e-20)
(0.87185 -0.621236 -4.71453e-21)
(0.870248 -0.643186 1.87701e-22)
(0.864058 -0.615985 2.12983e-21)
(0.852954 -0.591823 -2.05093e-22)
(0.819992 -0.608588 -3.32998e-21)
(0.760611 -0.631236 3.37159e-21)
(0.689148 -0.585018 -1.7268e-21)
(0.623102 -0.437523 2.60753e-22)
(0.589252 -0.202587 -1.73135e-22)
(0.593786 0.0540381 2.79108e-22)
(0.634665 0.274369 0)
(0.692406 0.412388 0)
(0.744798 0.495136 -5.8747e-22)
(0.754033 0.552313 4.38796e-22)
(0.71981 0.587563 4.87805e-22)
(0.66788 0.550367 2.33561e-22)
(0.631058 0.388216 -8.41289e-22)
(0.621561 0.145184 2.35712e-22)
(0.65747 -0.113485 0)
(0.701098 -0.270811 0)
(0.724928 -0.384292 0)
(0.691796 -0.447009 0)
(0.664803 -0.444663 1.40668e-22)
(0.647417 -0.361017 -6.86379e-23)
(0.654752 -0.14006 0)
(0.660333 0.0559176 0)
(0.665393 0.294883 0)
(0.651221 0.422516 -4.96238e-23)
(0.653157 0.38922 -9.00136e-24)
(0.65168 0.285605 -5.03561e-23)
(0.657125 -0.0180393 0)
(0.619818 -0.23069 0)
(0.605954 -0.374622 1.87563e-23)
(0.586235 -0.374883 1.45105e-23)
(0.57833 0.0220956 0)
(0.546422 0.145374 0)
(0.310141 -0.810162 -4.23325e-21)
(0.254958 -0.81738 -2.32125e-20)
(0.18345 -0.817302 1.72816e-20)
(0.118991 -0.789561 -1.61773e-20)
(0.0888254 -0.709097 -1.34866e-22)
(0.0995979 -0.562587 0)
(0.139382 -0.358041 -1.63495e-20)
(0.204222 -0.11824 1.59486e-20)
(0.283835 0.132952 1.34586e-22)
(0.371427 0.363834 1.79012e-22)
(0.460108 0.540154 1.47641e-22)
(0.542096 0.647929 1.49779e-22)
(0.608491 0.699616 -6.72261e-21)
(0.658418 0.71097 6.63206e-21)
(0.699394 0.694633 0)
(0.732102 0.681177 1.79929e-22)
(0.749068 0.708261 -7.56977e-21)
(0.750294 0.767219 7.47855e-21)
(0.754219 0.779921 0)
(0.778957 0.661355 0)
(0.821505 0.394433 -1.53759e-20)
(0.867124 0.0406806 3.01139e-20)
(0.904126 -0.295479 -2.69683e-20)
(0.924729 -0.521722 2.74816e-21)
(0.927921 -0.622959 1.67356e-20)
(0.9119 -0.640808 -1.26453e-20)
(0.889366 -0.611508 8.93776e-21)
(0.865922 -0.579103 -8.59738e-22)
(0.825339 -0.58326 -3.17075e-21)
(0.758191 -0.598959 0)
(0.678404 -0.555298 0)
(0.605074 -0.419574 1.56647e-21)
(0.565278 -0.20248 -1.98303e-21)
(0.570109 0.0353836 -5.02023e-23)
(0.616687 0.245362 1.5452e-21)
(0.683528 0.3848 -1.50143e-21)
(0.742366 0.48061 0)
(0.759728 0.556073 1.3274e-22)
(0.734568 0.604713 1.4899e-21)
(0.691578 0.571395 -3.3948e-21)
(0.661123 0.403337 1.65376e-21)
(0.65075 0.147802 2.92884e-22)
(0.680368 -0.122858 -2.06039e-21)
(0.719887 -0.281824 1.54659e-21)
(0.745438 -0.382434 2.55284e-22)
(0.707706 -0.438882 1.7908e-22)
(0.675716 -0.43876 -1.4104e-22)
(0.65379 -0.361687 0)
(0.658507 -0.143636 0)
(0.662533 0.0527016 -2.92944e-22)
(0.666657 0.294141 1.51633e-22)
(0.65781 0.424084 -1.63659e-22)
(0.661573 0.389508 3.17802e-22)
(0.661555 0.286734 5.16512e-22)
(0.669705 -0.0124939 -8.43908e-23)
(0.629078 -0.226137 1.81892e-22)
(0.610074 -0.369266 -1.10075e-22)
(0.585949 -0.374433 2.1359e-23)
(0.58601 0.0252581 0)
(0.556878 0.148647 0)
(0.506767 -0.764114 -4.37122e-20)
(0.45796 -0.740018 8.10389e-21)
(0.380399 -0.723227 3.34515e-20)
(0.279907 -0.715536 -2.20702e-22)
(0.184938 -0.684473 0)
(0.128746 -0.596186 0)
(0.116632 -0.43637 -2.23288e-20)
(0.144217 -0.221933 -9.93409e-22)
(0.204873 0.0184561 3.22579e-20)
(0.287636 0.248543 -1.27752e-21)
(0.381984 0.436049 -8.92599e-21)
(0.475445 0.565062 -5.93866e-21)
(0.556506 0.640199 5.92872e-21)
(0.623391 0.66917 0)
(0.681121 0.664108 -5.23426e-21)
(0.727871 0.658636 4.74936e-21)
(0.756986 0.691949 0)
(0.771882 0.754895 0)
(0.792875 0.770885 1.06673e-20)
(0.833177 0.660006 2.61095e-21)
(0.885718 0.403529 -1.21495e-20)
(0.939466 0.0528362 -1.49375e-20)
(0.980417 -0.287941 1.4888e-20)
(0.994808 -0.517761 -1.03146e-20)
(0.985116 -0.616194 2.63028e-21)
(0.955462 -0.630596 7.09641e-21)
(0.917968 -0.601443 5.4205e-22)
(0.882579 -0.564322 1.45788e-23)
(0.83539 -0.556358 0)
(0.763203 -0.563968 2.50877e-21)
(0.677377 -0.523562 -2.57782e-21)
(0.597934 -0.402119 2.14155e-22)
(0.552301 -0.205333 0)
(0.556149 0.0128664 -2.32e-22)
(0.606025 0.211632 2.54042e-21)
(0.679541 0.353316 -4.31164e-21)
(0.744617 0.462251 -1.29933e-22)
(0.771096 0.554638 -2.83585e-22)
(0.755046 0.616535 1.82138e-21)
(0.72133 0.590009 3.86974e-22)
(0.699702 0.420157 -4.34491e-21)
(0.689911 0.155086 3.6894e-21)
(0.711595 -0.127634 -4.61511e-23)
(0.743614 -0.291651 1.29003e-21)
(0.769931 -0.380011 -1.51024e-21)
(0.728036 -0.429284 -1.16736e-21)
(0.689848 -0.431597 3.60895e-22)
(0.662625 -0.362588 3.24458e-22)
(0.665091 -0.148195 -5.7067e-22)
(0.668138 0.0485874 3.8563e-22)
(0.671683 0.291836 -1.80852e-22)
(0.667507 0.425421 4.4569e-23)
(0.672849 0.389771 1.58284e-22)
(0.673931 0.288264 -8.40405e-22)
(0.685326 -0.00599038 7.5828e-24)
(0.642283 -0.22066 -2.16815e-22)
(0.618244 -0.362554 0)
(0.589005 -0.374806 -2.41619e-23)
(0.597335 0.026971 -8.75597e-23)
(0.570669 0.152052 0)
(0.6772 -0.730237 4.02087e-20)
(0.621666 -0.693007 -6.98526e-20)
(0.558601 -0.639518 2.95967e-20)
(0.468702 -0.604209 1.74655e-20)
(0.352515 -0.591306 -3.12338e-20)
(0.240488 -0.559832 1.03952e-21)
(0.167621 -0.468604 1.25623e-20)
(0.145664 -0.304481 1.30152e-20)
(0.172478 -0.0922903 -1.27724e-20)
(0.23644 0.127008 0)
(0.323278 0.320862 -9.4979e-21)
(0.417145 0.468051 1.71033e-20)
(0.50624 0.564896 -7.72612e-21)
(0.58663 0.612398 0)
(0.659112 0.621172 0)
(0.718347 0.625458 1.53297e-22)
(0.758153 0.664481 -1.20099e-20)
(0.785724 0.730099 1.166e-20)
(0.822528 0.751227 0)
(0.876374 0.65356 2.43431e-20)
(0.938293 0.414573 -5.01855e-20)
(1.00115 0.073845 5.39624e-20)
(1.04939 -0.266494 -5.22628e-20)
(1.06171 -0.499158 4.39707e-21)
(1.04082 -0.597945 3.37278e-20)
(0.998962 -0.611635 -1.42411e-20)
(0.948431 -0.584655 -2.68648e-22)
(0.902564 -0.546426 -2.57162e-21)
(0.850756 -0.529262 4.71658e-22)
(0.775946 -0.529559 2.15592e-21)
(0.686038 -0.492734 1.42545e-22)
(0.601521 -0.385797 -2.53252e-21)
(0.549618 -0.210432 5.16455e-21)
(0.550641 -0.0122053 -2.9164e-21)
(0.601182 0.174151 0)
(0.679426 0.316992 -1.9429e-21)
(0.750367 0.437578 1.86274e-21)
(0.786171 0.548346 -1.85365e-21)
(0.781159 0.625578 2.28895e-21)
(0.758362 0.607415 -4.15573e-22)
(0.746304 0.438966 0)
(0.737951 0.16773 -6.23354e-22)
(0.750835 -0.126204 1.64442e-21)
(0.77209 -0.298816 0)
(0.797758 -0.376597 2.4226e-21)
(0.752508 -0.418053 -1.08231e-21)
(0.706986 -0.422944 2.49574e-22)
(0.673696 -0.363511 1.37353e-22)
(0.674183 -0.154004 0)
(0.676879 0.0434031 0)
(0.680267 0.287746 -3.16415e-22)
(0.680085 0.425979 7.40339e-22)
(0.686749 0.389808 -6.04963e-22)
(0.688533 0.289943 2.76537e-22)
(0.703683 0.00140972 6.23289e-22)
(0.659241 -0.214263 2.17048e-22)
(0.63051 -0.354471 -2.90621e-22)
(0.595269 -0.375798 0)
(0.611838 0.0271576 1.03296e-22)
(0.587596 0.15549 4.1406e-23)
(0.827603 -0.660668 3.77055e-20)
(0.755049 -0.642047 -3.72217e-20)
(0.68856 -0.59296 1.95926e-22)
(0.619239 -0.525575 -1.24062e-22)
(0.528421 -0.477687 1.01976e-22)
(0.409689 -0.459493 -7.91756e-23)
(0.291758 -0.429502 5.14095e-23)
(0.212593 -0.339391 0)
(0.190432 -0.18109 -3.32276e-23)
(0.222156 0.0133275 3.33358e-23)
(0.290634 0.202774 2.84972e-23)
(0.375438 0.361054 -9.5987e-23)
(0.465273 0.475393 0)
(0.554022 0.54066 0)
(0.637312 0.564797 4.76281e-23)
(0.705128 0.580197 0)
(0.751694 0.624232 -1.09073e-22)
(0.788952 0.691361 0)
(0.838988 0.719862 -1.59875e-20)
(0.904558 0.641477 3.60248e-20)
(0.975608 0.42551 -4.39003e-20)
(1.05012 0.0994408 2.36888e-20)
(1.10974 -0.236661 2.32545e-20)
(1.12388 -0.471158 -2.25702e-20)
(1.09417 -0.571917 -1.42561e-20)
(1.04181 -0.586456 1.37077e-20)
(0.980395 -0.562551 0)
(0.924456 -0.525915 1.68981e-22)
(0.869094 -0.502529 0)
(0.794852 -0.495805 0)
(0.703199 -0.461768 3.06678e-21)
(0.614873 -0.369074 -3.13091e-21)
(0.55635 -0.215482 2.05877e-22)
(0.552097 -0.0387933 2.93154e-22)
(0.60044 0.133345 -1.69188e-22)
(0.681747 0.276385 -1.28956e-21)
(0.758578 0.407793 1.25195e-21)
(0.804234 0.534095 -2.08168e-21)
(0.810109 0.62578 1.82312e-21)
(0.797182 0.62067 8.34443e-22)
(0.796093 0.458486 -4.94135e-21)
(0.791946 0.185426 -8.70569e-22)
(0.797039 -0.118055 3.71186e-21)
(0.805067 -0.302786 0)
(0.828099 -0.372561 -1.1502e-21)
(0.780744 -0.405196 8.30654e-22)
(0.726977 -0.412253 -1.16046e-21)
(0.68674 -0.364043 -1.38271e-22)
(0.685378 -0.16102 0)
(0.688461 0.0367887 5.7787e-23)
(0.69204 0.281747 -6.53813e-23)
(0.69511 0.426347 -1.4125e-23)
(0.702899 0.390149 -2.44246e-22)
(0.705103 0.291787 7.36505e-22)
(0.724463 0.00927964 -6.76059e-22)
(0.679657 -0.207105 0)
(0.646864 -0.344996 2.90792e-22)
(0.604628 -0.377182 0)
(0.629008 0.0258015 0)
(0.607418 0.158899 -5.124e-23)
(0.933573 -0.585139 -3.6194e-20)
(0.858584 -0.56699 3.54917e-20)
(0.786088 -0.538431 -1.76408e-22)