/*--------------------------------*- C++ -*----------------------------------*\
| =========                 |                                                 |
| \\      /  F ield         | OpenFOAM: The Open Source CFD Toolbox           |
|  \\    /   O peration     | Version:  2312                                  |
|   \\  /    A nd           | Website:  www.openfoam.com                      |
|    \\/     M anipulation  |                                                 |
\*---------------------------------------------------------------------------*/
FoamFile
{
    version     2.0;
    format      ascii;
    arch        "LSB;label=32;scalar=64";
    class       volVectorField;
    location    "51";
    object      U;
}
// * * * * * * * * * * * * * * * * * * * * * * * * * * * * * * * * * * * * * //

dimensions      [0 1 -1 0 0 0 0];

internalField   nonuniform List<vector> 
5478
(
(-0.0267219 0.0151841 -6.86411e-20)
(-0.0539924 0.0242716 0)
(-0.0560555 0.0229212 1.04535e-19)
(-0.019828 0.020265 -1.82583e-19)
(0.0653767 0.0193224 1.18029e-19)
(0.203217 0.0230317 -3.63008e-20)
(0.382926 0.0340101 -5.90484e-20)
(0.582865 0.0514239 0)
(0.782086 0.0738699 0)
(0.957548 0.0962038 6.95436e-20)
(1.10673 0.113522 -3.23467e-20)
(1.20999 0.131315 -5.28543e-20)
(1.27773 0.122094 -2.1433e-20)
(1.30808 0.13459 0)
(1.30249 0.0884882 6.26367e-20)
(-0.0357909 0.0205115 1.37668e-19)
(-0.0539458 0.029615 0)
(-0.0225064 0.0262161 0)
(0.0724412 0.0237574 -9.15408e-20)
(0.237662 0.029822 1.20444e-19)
(0.454951 0.047496 3.40371e-20)
(0.687593 0.07385 -5.68791e-20)
(0.901564 0.10324 5.04283e-20)
(1.07183 0.129536 1.214e-19)
(1.19201 0.146872 -1.05745e-19)
(1.25805 0.156857 1.18545e-21)
(1.28126 0.150807 0)
(1.27693 0.143637 2.13948e-20)
(1.2526 0.126016 0)
(1.23552 0.107421 0)
(-0.0399717 0.0205345 -2.71693e-22)
(-0.0366385 0.0269819 -6.3899e-20)
(0.0494384 0.0255437 2.72531e-22)
(0.229646 0.0340571 0)
(0.481597 0.0599971 -4.04657e-20)
(0.746698 0.0969823 3.42643e-20)
(0.973178 0.134015 2.87115e-20)
(1.13353 0.162357 0)
(1.22582 0.176977 -4.07991e-20)
(1.26037 0.180163 3.40927e-20)
(1.25937 0.170641 2.84844e-20)
(1.24508 0.161639 0)
(1.23085 0.14469 0)
(1.22771 0.139766 -6.18632e-20)
(1.23197 0.122369 5.52691e-20)
(-0.0374774 0.0162154 -7.43315e-20)
(0.00615475 0.0177501 6.32282e-20)
(0.175308 0.0268673 -5.47283e-20)
(0.453705 0.0615712 4.81105e-20)
(0.755463 0.1124 8.11367e-20)
(1.00065 0.1597 -6.82479e-20)
(1.15732 0.19122 -2.86887e-20)
(1.23285 0.203877 2.23093e-20)
(1.25266 0.202959 -2.1378e-20)
(1.24764 0.192799 0)
(1.23947 0.183991 0)
(1.23488 0.171751 -4.18384e-20)
(1.23452 0.164707 5.45371e-20)
(1.22948 0.153835 -3.07567e-20)
(1.22088 0.138844 0)
(-0.0256412 0.0095671 3.75907e-20)
(0.0861812 0.00910411 3.17002e-20)
(0.364324 0.0462705 -1.13958e-19)
(0.707997 0.114184 1.34743e-21)
(0.986873 0.177043 -1.09206e-21)
(1.15507 0.215913 -1.00121e-21)
(1.22949 0.2301 2.74191e-20)
(1.2486 0.228687 2.31599e-20)
(1.24693 0.219812 1.6728e-20)
(1.24153 0.211004 -2.60248e-21)
(1.23465 0.199945 -3.79719e-20)
(1.22571 0.189991 0)
(1.21252 0.178032 1.7236e-20)
(1.20039 0.165001 -1.30342e-20)
(1.1915 0.154274 2.31843e-20)
(-0.000364794 0.00269621 -8.07948e-20)
(0.213406 0.0136052 8.75266e-20)
(0.590956 0.0946813 -3.02828e-20)
(0.92735 0.181653 2.30536e-20)
(1.13117 0.235774 -4.24906e-20)
(1.22162 0.25682 -3.2001e-20)
(1.24793 0.258011 8.98167e-22)
(1.24832 0.250412 0)
(1.23987 0.240516 3.38422e-20)
(1.22763 0.228212 -3.00951e-20)
(1.21488 0.216435 1.20088e-20)
(1.20357 0.203665 0)
(1.19671 0.192586 7.23527e-21)
(1.19222 0.180816 -1.29389e-20)
(1.18804 0.171737 0)
(0.044228 -0.00111869 -1.00657e-20)
(0.383678 0.0454212 9.25518e-22)
(0.800742 0.164075 1.46055e-20)
(1.07625 0.24798 2.51333e-20)
(1.20457 0.284357 -1.94596e-20)
(1.24518 0.291243 3.27288e-20)
(1.24703 0.284616 -7.42922e-21)
(1.2353 0.273157 0)
(1.22099 0.259486 -1.97927e-20)
(1.20889 0.246455 1.39709e-21)
(1.19929 0.233301 1.63259e-20)
(1.19125 0.221149 0)
(1.18199 0.208853 -1.04644e-20)
(1.17204 0.195531 0)
(1.16148 0.186951 6.30722e-21)
(0.111168 0.00513522 -1.12672e-20)
(0.565793 0.108777 0)
(0.959817 0.241097 1.57416e-20)
(1.16346 0.309556 0)
(1.23456 0.328581 0)
(1.24324 0.323857 0)
(1.231 0.310839 -6.33292e-21)
(1.21579 0.295599 0)
(1.20247 0.280641 3.98794e-21)
(1.1903 0.265546 0)
(1.17871 0.251078 -5.06111e-21)
(1.16787 0.236657 0)
(1.15989 0.222891 3.22519e-21)
(1.15484 0.210366 0)
(1.151 0.201481 2.04837e-21)
(-0.002736 -0.0744966 -1.02219e-20)
(-0.0224462 -0.10066 0)
(-0.0555554 -0.086258 1.60276e-20)
(-0.0907469 -0.0652497 0)
(-0.125697 -0.0444689 0)
(-0.159677 -0.0207267 0)
(-0.191797 0.00925651 -9.89999e-21)
(-0.221396 0.0474254 0)
(-0.247425 0.0944075 7.80273e-21)
(-0.268202 0.150447 0)
(-0.282162 0.214481 -1.21707e-20)
(-0.28779 0.283588 0)
(-0.28403 0.353047 9.36474e-21)
(-0.270532 0.416467 0)
(-0.243775 0.469583 7.25393e-21)
(0.00171759 -0.0562875 4.99903e-20)
(-0.0163481 -0.0678058 -3.49169e-20)
(-0.0486399 -0.0472813 1.43313e-20)
(-0.0827872 -0.0236001 5.40283e-20)
(-0.115919 -0.00224163 -1.4019e-23)
(-0.147043 0.0204346 -4.2672e-20)
(-0.175292 0.0477287 2.87584e-20)
(-0.199699 0.0809195 0)
(-0.218998 0.120618 2.13055e-20)
(-0.231435 0.166639 -3.68797e-22)
(-0.235152 0.217843 -1.05539e-20)
(-0.228396 0.271816 0)
(-0.209261 0.324069 -2.55766e-20)
(-0.176933 0.372807 0)
(-0.125497 0.408818 -3.50801e-20)
(0.00432059 -0.0400509 7.59029e-20)
(-0.0115541 -0.0398335 1.66404e-20)
(-0.0401036 -0.0143825 -3.02886e-20)
(-0.0691441 0.0116989 -7.8206e-20)
(-0.0955212 0.0331398 4.55372e-20)
(-0.117992 0.0535607 3.94662e-20)
(-0.135498 0.0767007 -6.85252e-20)
(-0.146915 0.104083 0)
(-0.150943 0.135904 -5.1948e-20)
(-0.145981 0.1717 4.61889e-20)
(-0.130088 0.209842 1.87897e-20)
(-0.103181 0.249777 0)
(-0.0591435 0.284227 1.62052e-20)
(-0.00676543 0.317676 -2.61171e-20)
(0.0811667 0.33438 0)
(0.00532458 -0.02766 3.5915e-20)
(-0.00900575 -0.0198235 -9.75704e-20)
(-0.0332891 0.00832557 1.13116e-19)
(-0.0556241 0.0358729 -9.81823e-20)
(-0.0727767 0.0569386 -4.21877e-20)
(-0.0835899 0.074339 3.65513e-20)
(-0.0870992 0.0920196 3.35467e-20)
(-0.0822468 0.112102 2.71218e-20)
(-0.0677405 0.134996 -7.06308e-20)
(-0.0434745 0.160405 1.41859e-21)
(-0.00253376 0.185258 1.74647e-20)
(0.0379121 0.214122 0)
(0.119388 0.230971 2.61279e-20)
(0.16871 0.25543 7.63593e-20)
(0.302071 0.248874 -4.48803e-20)
(0.00470411 -0.0187268 -5.65995e-22)
(-0.00984423 -0.00763639 6.19083e-20)
(-0.0314986 0.0194863 -5.40441e-20)
(-0.0481293 0.0458289 4.85278e-20)
(-0.05643 0.0650747 8.28376e-20)
(-0.0556053 0.0786691 -7.15669e-20)
(-0.0452311 0.0901697 -3.00287e-20)
(-0.0247267 0.101983 -7.86702e-20)
(0.00770506 0.115332 6.90225e-20)
(0.0461199 0.129251 0)
(0.118336 0.143311 0)
(0.156202 0.162305 5.68735e-20)
(0.29605 0.163527 -1.27644e-19)
(0.322766 0.184192 4.53481e-20)
(0.522868 0.162091 0)
(0.00171792 -0.0113503 -3.1017e-23)
(-0.0155917 -0.000320325 -6.17592e-20)
(-0.0370981 0.0213662 1.60686e-19)
(-0.0502916 0.0422553 -4.67003e-20)
(-0.0517808 0.0567085 -4.06786e-20)
(-0.0408243 0.0652447 3.50407e-20)
(-0.0170821 0.0706611 3.0046e-20)
(0.0203298 0.0753096 4.90377e-20)
(0.0754374 0.0813561 -8.55735e-20)
(0.139788 0.0866035 3.59179e-20)
(0.249628 0.0951318 3.07747e-20)
(0.312765 0.103907 0)
(0.51279 0.105631 0)
(0.544616 0.114594 8.99855e-20)
(0.81453 0.10103 -8.03285e-20)
(-0.00484039 -0.00326892 -2.28206e-22)
(-0.0272652 0.00630533 0)
(-0.0496399 0.0193402 0)
(-0.0593658 0.0312345 9.00604e-20)
(-0.0520678 0.0384039 -4.03514e-20)
(-0.0251031 0.0415072 3.35606e-20)
(0.0247264 0.0426794 5.62814e-20)
(0.0995278 0.0443309 -4.99067e-20)
(0.201796 0.0471289 4.20749e-20)
(0.323847 0.0546552 -3.59538e-20)
(0.472642 0.0610182 -2.41108e-22)
(0.609825 0.0720456 0)
(0.804544 0.0805903 2.35687e-20)
(0.898986 0.0831552 0)
(1.13707 0.0880769 0)
(-0.0151813 0.00620575 -6.77848e-20)
(-0.0425578 0.0148536 0)
(-0.0611405 0.0191418 -1.03848e-19)
(-0.0583347 0.0218857 1.81179e-19)
(-0.0263166 0.0228709 -1.95453e-19)
(0.0415641 0.0230943 -3.14454e-20)
(0.147963 0.0248434 5.84087e-20)
(0.287839 0.0308709 0)
(0.453741 0.03961 0)
(0.628675 0.0577796 -6.99536e-20)
(0.800742 0.0675035 -2.87754e-20)
(0.968152 0.0920919 5.38385e-20)
(1.10329 0.0935374 -2.36051e-20)
(1.21839 0.105852 0)
(1.31789 0.0993303 -7.42982e-20)
(-0.216053 0.50748 0)
(-0.152795 0.515936 5.19219e-21)
(-0.0831496 0.482918 -4.95269e-21)
(0.0188143 0.384549 0)
(0.135488 0.221072 -1.72651e-22)
(0.26785 -0.0117237 0)
(0.411098 -0.287987 2.9985e-22)
(0.545669 -0.536096 0)
(0.626293 -0.690034 -1.6587e-22)
(0.685137 -0.682003 1.72839e-21)
(0.746248 -0.612795 -1.64938e-21)
(0.684405 -0.681638 -9.48903e-23)
(0.570317 -0.737842 0)
(0.597381 -0.457449 2.73824e-22)
(0.708989 0.0157552 3.00662e-22)
(0.782721 0.409596 0)
(0.798817 0.596827 0)
(0.838497 0.605725 0)
(0.828568 0.620251 -1.08626e-22)
(0.692609 0.696765 0)
(0.563351 0.630539 0)
(0.553213 0.304952 -2.70271e-22)
(0.610423 -0.102935 5.76198e-22)
(0.682487 -0.36532 2.40126e-22)
(0.714688 -0.50992 0)
(0.64837 -0.581281 0)
(0.564817 -0.515478 0)
(0.578477 -0.258981 0)
(0.642343 0.0248748 -1.44056e-22)
(0.719614 0.213687 -1.19796e-22)
(0.774927 0.289147 9.93746e-23)
(0.775227 0.322862 4.36243e-23)
(0.73154 0.29521 -3.13358e-23)
(0.740129 0.209722 0)
(0.778866 0.0617113 -1.16247e-23)
(0.835509 -0.0373486 1.11359e-23)
(0.858729 -0.118294 -2.10813e-24)
(0.875808 -0.138944 2.01519e-24)
(-0.0677724 0.439991 -1.14307e-21)
(0.0134119 0.434404 2.04198e-20)
(0.111577 0.389085 0)
(0.23269 0.281446 3.60212e-22)
(0.358876 0.115763 -1.9864e-22)
(0.486381 -0.117737 0)
(0.621028 -0.389471 -3.02032e-22)
(0.736135 -0.60743 1.34096e-20)
(0.769917 -0.731987 -1.31082e-20)
(0.742911 -0.721492 2.48124e-22)
(0.752555 -0.611937 0)
(0.703413 -0.618918 9.55367e-23)
(0.564885 -0.696259 0)
(0.538445 -0.488424 -5.14042e-22)
(0.618523 -0.0420265 -3.02609e-22)
(0.683534 0.35962 -4.52683e-22)
(0.729163 0.567318 4.88592e-21)
(0.814241 0.597147 -4.66438e-21)
(0.819252 0.637265 -3.69029e-21)
(0.678656 0.743711 3.87881e-21)
(0.587044 0.666059 3.2329e-22)
(0.603063 0.306318 -3.19746e-21)
(0.656696 -0.125173 3.44927e-21)
(0.712856 -0.39188 2.08485e-21)
(0.739799 -0.508787 -2.9765e-21)
(0.682826 -0.55573 1.20988e-21)
(0.588227 -0.501601 1.7646e-22)
(0.575627 -0.270943 0)
(0.634364 0.00148417 3.68887e-22)
(0.716534 0.19334 1.20142e-22)
(0.769017 0.281829 -9.96262e-23)
(0.761158 0.328431 -3.96093e-22)
(0.720248 0.298914 3.55541e-22)
(0.740521 0.20417 -8.79666e-24)
(0.790034 0.0517475 -1.18728e-24)
(0.84861 -0.045506 -1.73722e-22)
(0.872332 -0.121922 -1.15295e-22)
(0.884998 -0.14056 8.39755e-24)
(0.147064 0.353343 4.10787e-20)
(0.235834 0.341826 -3.95284e-20)
(0.341027 0.290786 0)
(0.461803 0.187842 4.97022e-20)
(0.579962 0.0373542 -4.66815e-20)
(0.701446 -0.181282 7.41287e-22)
(0.822185 -0.451943 0)
(0.903972 -0.642286 5.13357e-22)
(0.904309 -0.713834 0)
(0.818064 -0.704099 -5.01432e-22)
(0.768669 -0.599385 -1.18259e-20)
(0.721601 -0.557049 1.1282e-20)
(0.573499 -0.637018 1.31612e-20)
(0.47872 -0.515919 -2.77895e-20)
(0.524941 -0.103439 1.42379e-20)
(0.581976 0.302009 4.59037e-22)
(0.666103 0.507406 0)
(0.795006 0.566889 -4.20775e-21)
(0.80755 0.682346 3.31889e-21)
(0.698819 0.809024 -2.53687e-22)
(0.650116 0.697523 3.84938e-22)
(0.667358 0.31751 6.50426e-21)
(0.714326 -0.125094 -6.13792e-21)
(0.758085 -0.396205 -3.84931e-21)
(0.769584 -0.502982 4.11144e-21)
(0.716225 -0.53716 0)
(0.623221 -0.489861 -1.77948e-22)
(0.58716 -0.282424 -2.04165e-22)
(0.636351 -0.0224949 5.46594e-22)
(0.718528 0.173639 -3.72188e-22)
(0.76431 0.276021 -6.91511e-22)
(0.748303 0.334027 1.78074e-22)
(0.711742 0.300962 4.37544e-22)
(0.743956 0.196743 -1.41214e-22)
(0.803492 0.0410889 -2.19048e-22)
(0.863127 -0.0535517 3.47921e-22)
(0.886623 -0.125023 -9.14533e-23)
(0.894466 -0.141716 1.73514e-23)
(0.360242 0.259913 2.76581e-22)
(0.449124 0.247085 4.24979e-20)
(0.552252 0.198095 -8.68622e-20)
(0.665183 0.105196 4.35179e-20)
(0.771367 -0.0219983 7.18109e-22)
(0.892422 -0.214682 -7.60841e-22)
(1.00799 -0.470775 0)
(1.04411 -0.648752 0)
(1.00814 -0.67654 0)
(0.888008 -0.653997 -1.40749e-20)
(0.790923 -0.577418 1.33061e-20)
(0.746712 -0.502629 2.86745e-22)
(0.612337 -0.553266 -5.65282e-22)
(0.448738 -0.512233 3.92337e-22)
(0.436702 -0.174234 7.82772e-22)
(0.501242 0.216169 0)
(0.626261 0.43367 7.9865e-21)
(0.767918 0.528587 -7.37546e-21)
(0.799263 0.66543 4.80951e-22)
(0.71975 0.81734 0)
(0.68334 0.735446 -7.25352e-22)
(0.718089 0.348506 0)
(0.769161 -0.116987 -8.06994e-22)
(0.80783 -0.402261 6.7472e-22)
(0.808656 -0.49567 -3.98057e-22)
(0.752365 -0.515558 0)
(0.666819 -0.475874 0)
(0.615014 -0.292622 8.53236e-22)
(0.650384 -0.0482118 -1.09159e-21)
(0.72593 0.153114 -6.96827e-23)
(0.760358 0.271726 6.03478e-22)
(0.735897 0.340984 6.27175e-22)
(0.70565 0.302331 -1.19864e-21)
(0.750368 0.188025 3.01985e-22)
(0.819175 0.030017 2.59464e-22)
(0.878972 -0.0613787 0)
(0.901506 -0.127555 1.09678e-22)
(0.90417 -0.142397 0)
(0.567056 0.17194 -2.873e-22)
(0.642843 0.160375 0)
(0.738821 0.117319 6.73344e-22)
(0.844934 0.0392467 -7.17567e-22)
(0.943975 -0.0759695 -1.41564e-21)
(1.06611 -0.251695 6.56984e-22)
(1.17777 -0.458241 3.60849e-20)
(1.16313 -0.601356 -6.25812e-20)
(1.07503 -0.610287 2.60024e-20)
(0.948824 -0.579482 0)
(0.819499 -0.542675 7.16845e-22)
(0.770848 -0.466607 -2.96285e-22)
(0.674651 -0.47614 -7.51912e-21)
(0.479004 -0.482693 7.61623e-21)
(0.393244 -0.238967 -3.40814e-22)
(0.442002 0.117882 7.26367e-21)
(0.588786 0.336861 -8.55339e-22)
(0.757173 0.467704 -1.33659e-20)
(0.803476 0.674214 6.74304e-21)
(0.741365 0.85719 -1.1573e-20)
(0.746717 0.749185 -4.40466e-21)
(0.788141 0.363808 -1.74884e-21)
(0.830568 -0.100598 1.4499e-20)
(0.860447 -0.395486 -2.65373e-21)
(0.852486 -0.484736 0)
(0.786702 -0.497071 0)
(0.710152 -0.463684 0)
(0.65482 -0.301274 0)
(0.674812 -0.0713604 -5.49654e-22)
(0.736561 0.136521 4.12607e-22)
(0.757191 0.269849 8.93495e-22)
(0.725728 0.346671 -5.88274e-22)
(0.702869 0.301233 9.29718e-22)
(0.759934 0.177547 -5.80245e-22)
(0.836978 0.0185334 -2.6688e-22)
(0.895974 -0.0688599 -1.16175e-22)
(0.916831 -0.129404 -7.4448e-23)
(0.914039 -0.142559 0)
(0.837423 0.10363 0)
(0.885108 0.0898137 7.80125e-20)
(0.959495 0.0496526 -7.40126e-20)
(1.04614 -0.0138501 -8.5759e-20)
(1.13673 -0.111429 8.2372e-20)
(1.23554 -0.266961 -9.47342e-23)
(1.30237 -0.420807 6.13194e-22)
(1.24876 -0.518346 0)
(1.12165 -0.529461 -3.76013e-20)
(1.00942 -0.50071 3.61417e-20)
(0.879849 -0.494113 -3.60624e-22)
(0.802223 -0.438996 1.455e-20)
(0.741391 -0.4058 -2.62101e-20)
(0.563935 -0.426387 -3.42842e-22)
(0.42075 -0.282229 1.11114e-20)
(0.440533 0.0162909 2.14835e-22)
(0.582427 0.224927 2.32623e-22)
(0.745466 0.384334 0)
(0.796227 0.614669 0)
(0.77201 0.825628 4.82662e-23)
(0.776701 0.79706 4.16678e-23)
(0.821849 0.443549 -9.55051e-22)
(0.884573 -0.0499593 9.51303e-22)
(0.914152 -0.379323 6.74755e-22)
(0.903767 -0.469001 -5.73792e-21)
(0.826698 -0.475434 5.45821e-21)
(0.749792 -0.452533 2.63459e-22)
(0.699383 -0.309568 0)
(0.707306 -0.0946662 -4.48993e-23)
(0.751996 0.117658 0)
(0.756086 0.267769 -8.69217e-22)
(0.716074 0.354195 7.12872e-22)
(0.702191 0.300538 0)
(0.772285 0.166611 2.95418e-22)
(0.856688 0.00730535 -5.47326e-22)
(0.913925 -0.0757567 2.25147e-22)
(0.932421 -0.130516 0)
(0.923987 -0.142208 -3.57866e-23)
(1.14335 0.0730092 -1.32539e-22)
(1.16418 0.0542089 0)
(1.20958 0.0153377 -7.75693e-20)
(1.25628 -0.0462925 7.37818e-20)
(1.31566 -0.128097 7.75345e-20)
(1.36907 -0.250245 -7.43988e-20)
(1.36349 -0.361762 0)
(1.27877 -0.425841 -5.01644e-20)
(1.14427 -0.450369 4.77228e-20)
(1.04736 -0.434995 0)
(0.949915 -0.436863 1.76786e-22)
(0.846964 -0.414549 3.84306e-22)
(0.796787 -0.355918 -8.63035e-23)
(0.666711 -0.354331 -8.37241e-21)
(0.495273 -0.292946 7.90324e-21)
(0.484668 -0.0741881 6.62234e-21)
(0.605091 0.121112 -6.25456e-21)
(0.73671 0.307865 -1.06549e-20)
(0.797714 0.588287 1.01262e-20)
(0.794061 0.835361 7.8385e-22)
(0.818312 0.792006 1.46242e-20)
(0.883144 0.441751 -2.88251e-20)
(0.944195 -0.0323119 1.54896e-20)
(0.962873 -0.367063 -9.29681e-21)
(0.949927 -0.456844 3.97864e-21)
(0.868869 -0.455824 5.71582e-21)
(0.78418 -0.444353 1.20393e-21)
(0.740732 -0.320668 -1.44229e-21)
(0.742438 -0.114124 4.59383e-23)
(0.768284 0.106168 -5.87315e-23)
(0.754437 0.26973 -6.72316e-22)
(0.709775 0.35872 -4.36248e-22)
(0.705928 0.295418 4.55775e-22)
(0.787937 0.153459 1.69032e-22)
(0.878203 -0.00444774 0)
(0.932552 -0.0821832 -6.39537e-23)
(0.948076 -0.130951 1.92381e-22)
(0.933934 -0.141374 -3.67033e-23)
(1.31997 0.0728686 6.99652e-20)
(1.32594 0.0528493 0)
(1.34665 0.0257962 6.9721e-20)
(1.36061 -0.0216319 -1.35568e-19)
(1.37963 -0.0867524 6.5598e-20)
(1.38692 -0.172082 0)
(1.34054 -0.256213 0)
(1.26634 -0.316645 0)
(1.16755 -0.368097 0)
(1.08097 -0.388835 0)
(1.01357 -0.393408 -1.88948e-22)
(0.904514 -0.393776 -1.49662e-20)
(0.841919 -0.345955 1.41741e-20)
(0.76269 -0.305483 6.38036e-23)
(0.589736 -0.275625 0)
(0.52518 -0.147559 0)
(0.629208 0.012861 8.80051e-23)
(0.743134 0.192556 0)
(0.798023 0.475439 -1.31176e-20)
(0.804396 0.769031 1.21854e-20)
(0.839232 0.837432 -1.32439e-20)
(0.883179 0.564633 -2.94644e-21)
(0.983961 0.0666081 1.40053e-20)
(1.01646 -0.322636 0)
(0.996977 -0.437772 -6.77177e-21)
(0.916063 -0.433727 9.32268e-21)
(0.818292 -0.432331 -3.19318e-21)
(0.775569 -0.330696 4.41357e-23)
(0.775322 -0.137408 0)
(0.784988 0.0881404 6.01515e-23)
(0.756803 0.267411 1.14634e-22)
(0.704797 0.365505 8.27483e-22)
(0.709463 0.294531 -4.63346e-22)
(0.805728 0.142476 -1.70819e-22)
(0.901219 -0.01525 0)
(0.951651 -0.0876859 1.01303e-22)
(0.96362 -0.130384 0)
(0.943843 -0.13991 3.55995e-23)
(1.29647 0.0715022 0)
(1.3139 0.0483373 0)
(1.3299 0.0227369 0)
(1.3328 -0.0162788 0)
(1.33098 -0.0646895 0)
(1.32297 -0.120343 0)
(1.28372 -0.183082 0)
(1.23842 -0.232221 0)
(1.18346 -0.272585 0)
(1.10309 -0.304222 0)
(1.05455 -0.310271 0)
(0.963031 -0.316783 0)
(0.877476 -0.300858 0)
(0.84934 -0.246288 0)
(0.71262 -0.212399 0)
(0.563352 -0.167398 0)
(0.625765 -0.0659872 0)
(0.756811 0.123352 0)
(0.807296 0.426571 0)
(0.832488 0.731259 0)
(0.862102 0.799048 0)
(0.924113 0.524786 0)
(1.04864 0.0708141 0)
(1.06289 -0.2821 0)
(1.03272 -0.395791 0)
(0.961349 -0.390436 0)
(0.853907 -0.403431 0)
(0.803244 -0.330057 0)
(0.801665 -0.148512 0)
(0.799048 0.0824753 0)
(0.755017 0.272195 0)
(0.699148 0.367866 0)
(0.721895 0.282816 0)
(0.830467 0.125221 0)
(0.925842 -0.0260261 0)
(0.970515 -0.0911151 0)
(0.97852 -0.128034 0)
(0.953385 -0.137644 0)
(1.26666 0.0698892 0)
(1.28411 0.0436848 0)
(1.29304 0.0114135 0)
(1.29581 -0.0240566 0)
(1.2896 -0.0681837 0)
(1.27659 -0.118027 0)
(1.2528 -0.169841 0)
(1.20859 -0.224159 0)
(1.16407 -0.260981 0)
(1.09009 -0.290331 0)
(1.02 -0.301118 0)
(0.948303 -0.285917 0)
(0.846774 -0.276502 0)
(0.80756 -0.227863 0)
(0.760273 -0.148965 0)
(0.624255 -0.112768 0)
(0.58233 -0.0754859 0)
(0.704656 0.0986165 0)
(0.793 0.408318 0)
(0.845818 0.703163 0)
(0.878669 0.766952 0)
(0.970077 0.498882 0)
(1.11358 0.0347524 0)
(1.12368 -0.304147 0)
(1.06141 -0.398457 0)
(0.985316 -0.374839 0)
(0.874536 -0.383962 0)
(0.823357 -0.319061 0)
(0.8221 -0.14056 0)
(0.809171 0.0921677 0)
(0.75173 0.283297 0)
(0.696725 0.370426 0)
(0.740422 0.268118 0)
(0.85926 0.103676 0)
(0.953221 -0.0403351 0)
(0.9906 -0.0966225 0)
(0.993414 -0.126718 0)
(0.962721 -0.135537 0)
(1.24031 0.0610942 0)
(1.25761 0.0364192 0)
(1.26634 0.00832628 0)
(1.26408 -0.0228109 0)
(1.25746 -0.058308 0)
(1.24114 -0.0997279 0)
(1.22149 -0.137644 0)
(1.1861 -0.177719 0)
(1.14371 -0.204765 0)
(1.08972 -0.220285 0)
(1.02436 -0.233583 0)
(0.976454 -0.215648 0)
(0.90017 -0.210842 0)
(0.830473 -0.194154 0)
(0.805057 -0.109654 0)
(0.71451 -0.0639228 0)
(0.591456 -0.0862299 0)
(0.638172 0.0418694 0)
(0.79096 0.361631 0)
(0.882404 0.674396 0)
(0.912795 0.748236 0)
(1.02563 0.45584 0)
(1.17547 0.0154677 0)
(1.17821 -0.277532 0)
(1.09325 -0.358684 0)
(1.02512 -0.332522 0)
(0.91252 -0.353816 0)
(0.842995 -0.314096 0)
(0.839158 -0.141544 0)
(0.813831 0.102698 0)
(0.744105 0.298744 0)
(0.697385 0.37148 0)
(0.767004 0.24771 0)
(0.895012 0.0796522 0)
(0.98419 -0.0533311 0)
(1.01208 -0.099949 0)
(1.00896 -0.123227 0)
(0.972598 -0.13227 0)
(1.21835 0.0557436 0)
(1.23248 0.0344855 0)
(1.23926 0.00750425 0)
(1.23486 -0.0203849 0)
(1.22702 -0.0504262 0)
(1.21195 -0.0851757 0)
(1.19173 -0.114629 0)
(1.16401 -0.149742 0)
(1.12291 -0.176248 0)
(1.081 -0.189238 0)
(1.0235 -0.212301 0)
(0.971629 -0.196606 0)
(0.922383 -0.176743 0)
(0.851714 -0.176266 0)
(0.82266 -0.095244 0)
(0.796523 -0.00179993 0)
(0.695789 -0.0334707 0)
(0.630036 -0.000461315 0)
(0.764742 0.291659 0)
(0.879679 0.645977 0)
(0.92511 0.722746 0)
(1.08508 0.406247 0)
(1.23582 -0.0169689 0)
(1.23279 -0.274663 0)
(1.11806 -0.342538 0)
(1.03735 -0.309703 0)
(0.941348 -0.324219 0)
(0.85338 -0.300478 0)
(0.847343 -0.133463 0)
(0.812541 0.119691 0)
(0.732729 0.31561 0)
(0.704471 0.36654 0)
(0.804945 0.2209 0)
(0.938405 0.0529998 0)
(1.01835 -0.0661614 0)
(1.03448 -0.102308 0)
(1.02472 -0.118706 0)
(0.982825 -0.128362 0)
(1.19608 0.0514644 0)
(1.20754 0.0320502 0)
(1.21281 0.00855244 0)
(1.208 -0.0156691 0)
(1.1998 -0.0405453 0)
(1.18592 -0.0688396 0)
(1.16567 -0.0933799 0)
(1.14483 -0.119581 0)
(1.10871 -0.141807 0)
(1.07527 -0.148725 0)
(1.03378 -0.162458 0)
(0.97813 -0.151123 0)
(0.945621 -0.128083 0)
(0.889654 -0.130686 0)
(0.837378 -0.0763854 0)
(0.826207 0.0194051 0)
(0.806493 0.0129488 0)
(0.718841 0.00754753 0)
(0.720608 0.245411 0)
(0.789659 0.603548 0)
(0.924448 0.653992 0)
(1.16796 0.327697 0)
(1.29248 -0.0456858 0)
(1.26569 -0.243504 0)
(1.14864 -0.290403 0)
(1.0562 -0.267379 0)
(0.98093 -0.28588 0)
(0.869166 -0.281657 0)
(0.839265 -0.127906 0)
(0.806834 0.135588 0)
(0.725645 0.329634 0)
(0.725129 0.353552 0)
(0.857014 0.187401 0)
(0.989008 0.0250549 0)
(1.05444 -0.0768772 0)
(1.05685 -0.102122 0)
(1.04028 -0.11204 0)
(0.993292 -0.123291 0)
(1.17449 0.0473423 0)
(1.18446 0.0307419 0)
(1.18856 0.0108537 0)
(1.18411 -0.00924869 0)
(1.17553 -0.0301546 0)
(1.16335 -0.0526517 0)
(1.14527 -0.0723192 0)
(1.12752 -0.0924618 0)
(1.09916 -0.109682 0)
(1.06853 -0.116585 0)
(1.03731 -0.12771 0)
(0.98701 -0.121609 0)
(0.95968 -0.101219 0)
(0.921888 -0.0983486 0)
(0.867921 -0.0558828 0)
(0.851853 0.0259641 0)
(0.864322 0.0330809 0)
(0.817958 0.0450276 0)
(0.745475 0.245948 0)
(0.772752 0.531872 0)
(1.00301 0.52391 0)
(1.26549 0.238225 0)
(1.33726 -0.0575385 0)
(1.27843 -0.214161 0)
(1.16427 -0.250531 0)
(1.05292 -0.239144 0)
(0.994484 -0.253908 0)
(0.886971 -0.247625 0)
(0.807894 -0.110764 0)
(0.764592 0.157482 0)
(0.704885 0.341449 0)
(0.75964 0.329009 0)
(0.923552 0.146623 0)
(1.04497 -0.00259146 0)
(1.09042 -0.0844877 0)
(1.07784 -0.0992696 0)
(1.05496 -0.103562 0)
(1.00378 -0.117261 0)
(1.15542 0.0445561 0)
(1.16379 0.0306769 0)
(1.16677 0.0141746 0)
(1.16278 -0.00246361 0)
(1.15483 -0.0196077 0)
(1.14394 -0.0372799 0)
(1.12886 -0.053114 0)
(1.11305 -0.0685543 0)
(1.09096 -0.0817255 0)
(1.06473 -0.0882628 0)
(1.04044 -0.0944593 0)
(1.00135 -0.0890475 0)
(0.975493 -0.0731284 0)
(0.94925 -0.0644433 0)
(0.903324 -0.0309904 0)
(0.888721 0.0313954 0)
(0.901865 0.0417359 0)
(0.873616 0.0750952 0)
(0.826784 0.251399 0)
(0.890723 0.43676 0)
(1.12834 0.380404 0)
(1.32366 0.163919 0)
(1.34238 -0.052614 0)
(1.26162 -0.17204 0)
(1.17217 -0.193733 0)
(1.07099 -0.192501 0)
(1.01071 -0.218039 0)
(0.916623 -0.203567 0)
(0.789366 -0.0748526 0)
(0.703541 0.181139 0)
(0.691468 0.333961 0)
(0.825674 0.282372 0)
(1.00635 0.0991621 0)
(1.10248 -0.0268562 0)
(1.12289 -0.0869618 0)
(1.09573 -0.092847 0)
(1.06814 -0.0928724 0)
(1.01414 -0.110083 0)
(1.13865 0.0427499 0)
(1.14547 0.0312287 0)
(1.14775 0.0178729 0)
(1.14434 0.00433829 0)
(1.1373 -0.00936522 0)
(1.12782 -0.0230812 0)
(1.11562 -0.03559 0)
(1.102 -0.0471356 0)
(1.08484 -0.0570676 0)
(1.06411 -0.0619175 0)
(1.04383 -0.0654145 0)
(1.0153 -0.061182 0)
(0.991765 -0.0491817 0)
(0.971942 -0.0377257 0)
(0.939023 -0.0122266 0)
(0.927846 0.0349505 0)
(0.937904 0.051884 0)
(0.91541 0.0895617 0)
(0.909064 0.222435 0)
(1.01258 0.329388 0)
(1.19379 0.263469 0)
(1.3091 0.118211 0)
(1.3111 -0.0285059 0)
(1.23557 -0.125804 0)
(1.1597 -0.152004 0)
(1.07958 -0.156975 0)
(1.0106 -0.186828 0)
(0.930728 -0.156472 0)
(0.808923 -0.0220443 0)
(0.709642 0.19804 0)
(0.760282 0.29604 0)
(0.942446 0.216955 0)
(1.09803 0.0532813 0)
(1.1528 -0.0429238 0)
(1.14727 -0.0830281 0)
(1.10888 -0.0831744 0)
(1.07938 -0.0805446 0)
(1.02427 -0.102003 0)
(1.12428 0.0415567 0)
(1.12994 0.0322585 0)
(1.13171 0.0217033 0)
(1.129 0.0109779 0)
(1.12313 0.000223713 0)
(1.11517 -0.0101647 0)
(1.10532 -0.0199164 0)
(1.09409 -0.0283676 0)
(1.08085 -0.0357392 0)
(1.06485 -0.0392602 0)
(1.04839 -0.0412336 0)
(1.02803 -0.0376111 0)
(1.00887 -0.0284259 0)
(0.993689 -0.0162536 0)
(0.972587 0.00308086 0)
(0.963056 0.0377982 0)
(0.971063 0.0587626 0)
(0.961196 0.0920303 0)
(0.974172 0.174275 0)
(1.06884 0.233252 0)
(1.18947 0.186424 0)
(1.25708 0.093747 0)
(1.26022 -0.00962905 0)
(1.20684 -0.0882816 0)
(1.1463 -0.113659 0)
(1.09113 -0.115739 0)
(1.02419 -0.144759 0)
(0.941987 -0.111806 0)
(0.855062 0.0199224 0)
(0.80823 0.197452 0)
(0.90908 0.240677 0)
(1.07393 0.154133 0)
(1.1706 0.0222989 0)
(1.18313 -0.0466261 0)
(1.15981 -0.0727256 0)
(1.11676 -0.0709084 0)
(1.0888 -0.066858 0)
(1.03427 -0.0930178 0)
(1.11265 0.0409021 0)
(1.11732 0.0335871 0)
(1.11883 0.0253576 0)
(1.11679 0.0170945 0)
(1.11205 0.00870802 0)
(1.10557 0.000929954 0)
(1.09779 -0.00655917 0)
(1.08897 -0.0125889 0)
(1.07896 -0.0179803 0)
(1.06702 -0.020431 0)
(1.05441 -0.0213423 0)
(1.03997 -0.0182096 0)
(1.02562 -0.0112697 0)
(1.01406 -0.000270677 0)
(1.00151 0.0139242 0)
(0.994843 0.0391825 0)
(1.00094 0.0592771 0)
(1.00267 0.0850494 0)
(1.0208 0.130992 0)
(1.08615 0.163157 0)
(1.16284 0.133294 0)
(1.20768 0.0742632 0)
(1.21521 0.00315261 0)
(1.18151 -0.0547109 0)
(1.13305 -0.0814172 0)
(1.09239 -0.084861 0)
(1.03962 -0.105275 0)
(0.962854 -0.0724421 0)
(0.9069 0.0376008 0)
(0.923478 0.169794 0)
(1.03854 0.18097 0)
(1.15373 0.107953 0)
(1.19932 0.00889088 0)
(1.18897 -0.0411114 0)
(1.16178 -0.0593657 0)
(1.12072 -0.0581451 0)
(1.09695 -0.0530471 0)
(1.04421 -0.0836123 0)
(1.10375 0.0406571 0)
(1.10765 0.0350371 0)
(1.10905 0.0287128 0)
(1.1076 0.0224504 0)
(1.10396 0.016029 0)
(1.09897 0.0103026 0)
(1.0931 0.00471819 0)
(1.08641 0.000475335 0)
(1.07905 -0.00339758 0)
(1.07044 -0.00499799 0)
(1.06128 -0.00546527 0)
(1.05125 -0.00278665 0)
(1.0412 0.00219245 0)
(1.03303 0.011208 0)
(1.02602 0.0216443 0)
(1.02228 0.0394311 0)
(1.02727 0.0552355 0)
(1.0343 0.0738434 0)
(1.0515 0.0978517 0)
(1.09255 0.114307 0)
(1.14076 0.0954144 0)
(1.17127 0.0587658 0)
(1.17909 0.00952816 0)
(1.15924 -0.0312646 0)
(1.12513 -0.0550518 0)
(1.09362 -0.0572449 0)
(1.05403 -0.0681724 0)
(0.99391 -0.0388896 0)
(0.959632 0.0383137 0)
(1 0.129302 0)
(1.09575 0.130384 0)
(1.17049 0.0792484 0)
(1.19395 0.00591092 0)
(1.18052 -0.0324284 0)
(1.15867 -0.0458693 0)
(1.12293 -0.0458498 0)
(1.10456 -0.039004 0)
(1.05433 -0.0734528 0)
(1.0977 0.0402697 0)
(1.10101 0.0360098 0)
(1.10237 0.0311814 0)
(1.1015 0.0264969 0)
(1.09892 0.0216438 0)
(1.09527 0.0174732 0)
(1.09103 0.0133102 0)
(1.0862 0.010306 0)
(1.08102 0.00751406 0)
(1.07507 0.00651574 0)
(1.06879 0.00618989 0)
(1.06209 0.00838842 0)
(1.0556 0.0117319 0)
(1.05027 0.0185686 0)
(1.04662 0.0257768 0)
(1.04518 0.037818 0)
(1.04948 0.0486665 0)
(1.05701 0.0612447 0)
(1.07124 0.0728616 0)
(1.09684 0.0808268 0)
(1.12685 0.068093 0)
(1.14735 0.0455138 0)
(1.15421 0.0121722 0)
(1.14236 -0.0146065 0)
(1.11969 -0.0338905 0)
(1.09559 -0.0355023 0)
(1.0672 -0.0410168 0)
(1.02659 -0.016289 0)
(1.00687 0.0325515 0)
(1.04133 0.0927367 0)
(1.1093 0.0915205 0)
(1.16042 0.0581928 0)
(1.17812 0.00318382 0)
(1.16853 -0.0262487 0)
(1.15438 -0.035199 0)
(1.12456 -0.035819 0)
(1.11182 -0.0262827 0)
(1.06459 -0.0634367 0)
(1.09421 0.0402664 0)
(1.09707 0.0371025 0)
(1.09845 0.0334829 0)
(1.09813 0.0300634 0)
(1.09649 0.0264484 0)
(1.094 0.023455 0)
(1.09113 0.0203756 0)
(1.0879 0.0182868 0)
(1.08455 0.0162236 0)
(1.08072 0.0156132 0)
(1.07674 0.0152366 0)
(1.07251 0.016918 0)
(1.06863 0.0189326 0)
(1.06547 0.0237298 0)
(1.06392 0.0282595 0)
(1.06386 0.0360928 0)
(1.06761 0.0425429 0)
(1.07399 0.0505366 0)
(1.0848 0.0554415 0)
(1.10047 0.0590499 0)
(1.11882 0.0499464 0)
(1.13185 0.0366067 0)
(1.13746 0.0143605 0)
(1.13085 -0.00204059 0)
(1.11687 -0.0167163 0)
(1.09928 -0.0165267 0)
(1.07996 -0.019206 0)
(1.0547 0.0005045 0)
(1.04464 0.0287218 0)
(1.06738 0.0673646 0)
(1.11237 0.0642144 0)
(1.14788 0.0429596 0)
(1.16372 0.00160942 0)
(1.15799 -0.0206367 0)
(1.15065 -0.024754 0)
(1.12637 -0.0258083 0)
(1.11943 -0.0126337 0)
(1.07554 -0.0522244 0)
(1.09346 0.0385134 0)
(1.09603 0.0361863 0)
(1.0975 0.033478 0)
(1.09763 0.0309808 0)
(1.09676 0.0282665 0)
(1.09522 0.026102 0)
(1.09347 0.0237833 0)
(1.09149 0.0222995 0)
(1.08952 0.0206714 0)
(1.08725 0.0202156 0)
(1.08501 0.0196605 0)
(1.08259 0.0207686 0)
(1.08062 0.0216869 0)
(1.07901 0.0247911 0)
(1.07874 0.0271731 0)
(1.07936 0.0319718 0)
(1.08255 0.0350943 0)
(1.08727 0.0397769 0)
(1.09514 0.0408954 0)
(1.10489 0.0422278 0)
(1.11652 0.0353359 0)
(1.1247 0.0277219 0)
(1.12912 0.0128891 0)
(1.12507 0.00341264 0)
(1.117 -0.00752471 0)
(1.10503 -0.00598111 0)
(1.09292 -0.00775158 0)
(1.07765 0.00776065 0)
(1.07319 0.022579 0)
(1.08698 0.0469288 0)
(1.11642 0.0416231 0)
(1.14031 0.0279672 0)
(1.15354 -0.00307863 0)
(1.14978 -0.0198494 0)
(1.14803 -0.0197837 0)
(1.12849 -0.0209512 0)
(1.1269 -0.00358254 0)
(1.08654 -0.0427171 0)
(1.0948 0.0390776 0)
(1.09709 0.037408 0)
(1.09858 0.0354084 0)
(1.09906 0.033629 0)
(1.09881 0.0316256 0)
(1.09805 0.0301125 0)
(1.0972 0.0283889 0)
(1.09619 0.0273754 0)
(1.09529 0.0260948 0)
(1.09421 0.025796 0)
(1.09327 0.025152 0)
(1.09215 0.0258628 0)
(1.09148 0.0260262 0)
(1.0909 0.0279258 0)
(1.09141 0.028789 0)
(1.0923 0.0315867 0)
(1.09499 0.0325077 0)
(1.0983 0.0351132 0)
(1.10381 0.0343224 0)
(1.10958 0.0347926 0)
(1.11684 0.0292798 0)
(1.12147 0.0252042 0)
(1.12495 0.0151169 0)
(1.12276 0.0105637 0)
(1.11908 0.0028542 0)
(1.11149 0.00584836 0)
(1.10521 0.00406508 0)
(1.09651 0.0161072 0)