/*--------------------------------*- C++ -*----------------------------------*\
| =========                 |                                                 |
| \\      /  F ield         | OpenFOAM: The Open Source CFD Toolbox           |
|  \\    /   O peration     | Version:  2312                                  |
|   \\  /    A nd           | Website:  www.openfoam.com                      |
|    \\/     M anipulation  |                                                 |
\*---------------------------------------------------------------------------*/
FoamFile
{
    version     2.0;
    format      ascii;
    arch        "LSB;label=32;scalar=64";
    class       volVectorField;
    location    "20";
    object      U;
}
// * * * * * * * * * * * * * * * * * * * * * * * * * * * * * * * * * * * * * //

dimensions      [0 1 -1 0 0 0 0];

internalField   nonuniform List<vector> 
32230
(
(-0.0105014 0.00922534 3.68763e-20)
(-0.0258361 0.0220413 -7.45192e-20)
(-0.0359222 0.0303767 0)
(-0.0402426 0.0356703 -1.01377e-19)
(-0.0385182 0.0388851 3.21765e-20)
(-0.0305099 0.0406604 -3.06856e-20)
(-0.0159281 0.0414653 5.78423e-20)
(0.00557936 0.0416622 -3.86686e-22)
(0.0343962 0.0415519 2.59134e-20)
(0.0708943 0.0414036 -9.97673e-20)
(0.115374 0.0414701 -4.74454e-20)
(0.167982 0.0419852 0)
(0.228626 0.043148 8.57842e-20)
(0.29689 0.0451079 -1.641e-19)
(0.371979 0.0479469 1.17774e-19)
(0.452691 0.0516647 -1.50787e-19)
(0.537444 0.056171 -3.66948e-20)
(0.624341 0.0612866 6.95596e-20)
(0.711286 0.0667548 6.76521e-20)
(0.79612 0.0722611 -6.47343e-20)
(0.876772 0.0774608 0)
(0.9514 0.0820089 -6.10736e-20)
(1.01852 0.0855915 2.93356e-20)
(1.07708 0.0879522 0)
(1.12656 0.0889117 0)
(1.16691 0.0883793 -2.60588e-20)
(1.19858 0.0863501 -1.02143e-19)
(1.22241 0.0829016 9.78148e-20)
(1.23953 0.0781582 4.62418e-20)
(1.25121 0.0723123 4.43404e-20)
(1.25873 0.0654771 0)
(1.26329 0.0579994 0)
(1.26585 0.0494923 7.95232e-20)
(1.26709 0.0414041 -1.1325e-19)
(1.2676 0.0300978 7.23878e-20)
(1.26666 0.0240515 -1.38153e-19)
(1.26636 0.00336837 6.61072e-20)
(-0.0118731 0.00968626 2.18752e-22)
(-0.0277948 0.0221305 3.73173e-20)
(-0.0367509 0.0293613 -3.54384e-20)
(-0.0384734 0.0331747 -2.94581e-23)
(-0.0327655 0.0347942 6.4657e-20)
(-0.0193777 0.0350642 1.22978e-19)
(0.00204418 0.0346107 -1.46336e-19)
(0.0319174 0.0339133 5.57149e-20)
(0.0706452 0.0333573 2.41255e-22)
(0.11852 0.0332659 4.98594e-20)
(0.175616 0.0339131 -4.22561e-22)
(0.241673 0.0355164 4.55074e-20)
(0.316003 0.0382219 -1.29635e-19)
(0.397434 0.042087 4.14497e-20)
(0.484301 0.0470645 1.57722e-19)
(0.574517 0.0529963 0)
(0.665694 0.0596191 3.62226e-20)
(0.755317 0.0665843 0)
(0.840934 0.0734883 0)
(0.920353 0.0799115 0)
(0.991799 0.0854591 -3.14485e-20)
(1.05404 0.0897974 1.19773e-19)
(1.10645 0.092683 -1.14826e-19)
(1.14899 0.0939783 -2.81231e-22)
(1.18221 0.0936535 1.86635e-19)
(1.20707 0.0917764 -1.01707e-19)
(1.22484 0.0884879 -9.86413e-20)
(1.23693 0.0839811 1.89043e-19)
(1.24474 0.0784542 -1.81261e-19)
(1.24951 0.072125 8.49228e-20)
(1.25223 0.0651225 -8.30459e-20)
(1.25365 0.057656 -3.87688e-20)
(1.25423 0.0496616 0)
(1.25416 0.0414726 1.0885e-19)
(1.25364 0.0325256 -1.37047e-19)
(1.25231 0.0246457 9.7061e-20)
(1.25154 0.0139276 -3.00942e-20)
(-0.0130793 0.00996153 -7.5242e-20)
(-0.0290196 0.0219598 0)
(-0.0359173 0.0283 -1.0802e-19)
(-0.0337938 0.0310032 1.03125e-19)
(-0.0225558 0.0314918 1.30649e-19)
(-0.00197216 0.0307836 -6.20061e-20)
(0.0283119 0.0296405 -3.15147e-22)
(0.0686711 0.0286461 2.76638e-20)
(0.119363 0.0282579 -8.26002e-23)
(0.180375 0.0288367 -5.06941e-20)
(0.251277 0.0306515 -1.10337e-22)
(0.331101 0.0338679 4.59198e-20)
(0.41828 0.03853 -4.39877e-20)
(0.510667 0.0445454 4.15981e-20)
(0.605651 0.0516825 -1.586e-19)
(0.700346 0.059584 0)
(0.791837 0.0677991 1.09e-19)
(0.877439 0.0758304 -6.95213e-20)
(0.954922 0.0831862 -3.35424e-20)
(1.02269 0.089433 3.20613e-20)
(1.07987 0.0942368 -3.36447e-22)
(1.12633 0.0973891 0)
(1.16259 0.0988142 5.17709e-22)
(1.18973 0.0985579 5.43155e-20)
(1.20915 0.0967622 -1.04039e-19)
(1.22241 0.0936306 7.08648e-22)
(1.23105 0.0893926 0)
(1.23642 0.0842739 0)
(1.23961 0.0784654 4.44437e-20)
(1.2414 0.072142 -4.24983e-20)
(1.24231 0.0653652 -7.92668e-20)
(1.24265 0.0583628 1.14674e-19)
(1.24251 0.0508182 0)
(1.24195 0.0436734 3.34799e-20)
(1.24108 0.0350635 3.29278e-20)
(1.23952 0.0292744 -2.27902e-21)
(1.2387 0.018628 -5.72782e-20)
(-0.0139577 0.00993314 3.78448e-20)
(-0.0291287 0.0212236 3.86547e-20)
(-0.0329101 0.0267327 0)
(-0.0256169 0.0285788 -6.93842e-20)
(-0.0072799 0.0283216 3.34485e-20)
(0.0222657 0.0271175 3.83311e-22)
(0.0632761 0.0258397 2.96587e-20)
(0.115926 0.0251549 2.8155e-20)
(0.180103 0.02557 5.38905e-20)
(0.255207 0.0274495 -5.12236e-20)
(0.339993 0.0310096 -4.87764e-20)
(0.432493 0.0363005 0)
(0.530061 0.043193 -4.15465e-22)
(0.629537 0.0513805 4.19713e-20)
(0.727523 0.0604054 3.97315e-20)
(0.820714 0.0697088 7.60294e-20)
(0.906225 0.0786971 -1.09036e-19)
(0.981855 0.0868125 -3.46905e-20)
(1.04625 0.0935949 -3.32781e-20)
(1.09897 0.098726 3.18803e-20)
(1.14038 0.102047 -3.05441e-20)
(1.17155 0.103552 -2.88126e-20)
(1.19397 0.103362 2.80244e-20)
(1.20938 0.10168 5.30134e-20)
(1.21947 0.0987532 -2.50802e-20)
(1.22577 0.0948277 9.73607e-20)
(1.22953 0.090125 -1.15341e-19)
(1.23164 0.0848243 -8.79752e-20)
(1.23272 0.0790617 4.17229e-20)
(1.23316 0.0729318 1.1961e-19)
(1.23316 0.0665037 0)
(1.23281 0.0598388 3.55176e-20)
(1.23216 0.0529234 0)
(1.23122 0.0460572 -3.34589e-20)
(1.23003 0.0385303 3.17377e-20)
(1.22844 0.0327688 -5.87041e-20)
(1.22758 0.023345 -5.39902e-20)
(-0.014384 0.00955056 3.86789e-20)
(-0.0278037 0.0197585 -7.7613e-20)
(-0.0272872 0.0243805 7.39493e-20)
(-0.0134326 0.0255334 -7.06863e-20)
(0.0135795 0.0248642 0)
(0.0537711 0.0236335 -3.16002e-20)
(0.107158 0.0227982 0)
(0.173496 0.0230776 2.88447e-20)
(0.252015 0.0249845 -5.4397e-20)
(0.341199 0.0288248 2.59762e-20)
(0.438677 0.0346807 4.87438e-20)
(0.541278 0.042398 0)
(0.64526 0.0515957 8.85469e-20)
(0.746676 0.061709 -4.19423e-20)
(0.841811 0.0720625 0)
(0.927583 0.0819617 3.82055e-20)
(1.00184 0.090784 0)
(1.06352 0.0980505 1.03791e-19)
(1.11259 0.103468 -9.90275e-20)
(1.14993 0.106934 3.12938e-20)
(1.17705 0.108516 0)
(1.19583 0.1084 1.14149e-19)
(1.20819 0.106843 -5.4576e-20)
(1.2159 0.104119 -7.74111e-20)
(1.22044 0.100481 7.39587e-20)
(1.22292 0.0961429 2.38657e-20)
(1.22413 0.0912676 2.27507e-20)
(1.22458 0.0859748 6.40142e-20)
(1.22456 0.080346 -2.03514e-19)
(1.22424 0.0744485 1.14924e-19)
(1.2237 0.0683104 -3.65823e-20)
(1.22297 0.0620243 -1.05361e-19)
(1.22206 0.0555014 0)
(1.22096 0.0491242 3.05926e-20)
(1.2197 0.0421206 0)
(1.21812 0.0366914 2.86351e-20)
(1.2172 0.0281239 5.30106e-20)
(-0.0142662 0.00882232 3.93606e-20)
(-0.0247706 0.0175435 -7.91584e-20)
(-0.0186392 0.0211784 -2.503e-22)
(0.00325384 0.0217806 7.13331e-20)
(0.0405294 0.0210424 -3.39278e-20)
(0.0929482 0.0202971 0)
(0.160081 0.0205476 0)
(0.240973 0.0225119 -2.88298e-20)
(0.333848 0.0266307 2.73562e-20)
(0.435937 0.0330499 3.41304e-22)
(0.543525 0.0416072 4.94016e-20)
(0.652241 0.05185 -4.72373e-20)
(0.757532 0.0630989 -8.89645e-20)
(0.855216 0.0745509 -8.44867e-20)
(0.941983 0.0854025 1.61062e-19)
(1.01572 0.0949635 -1.14937e-19)
(1.07561 0.102739 -3.62738e-20)
(1.12205 0.108467 0)
(1.15636 0.112104 1.30782e-19)
(1.18049 0.113788 -1.24702e-19)
(1.19656 0.113769 0)
(1.20667 0.112347 2.76549e-20)
(1.21261 0.109818 -3.99112e-22)
(1.21582 0.106441 -5.03538e-20)
(1.21732 0.10242 -2.43991e-20)
(1.21782 0.0979069 0)
(1.21774 0.0930094 0)
(1.21733 0.0878013 2.09775e-20)
(1.21673 0.0823371 -9.72675e-20)
(1.21599 0.0766559 7.47064e-20)
(1.21514 0.0707952 1.40655e-19)
(1.21417 0.0647921 -6.71696e-20)
(1.21306 0.0586453 0)
(1.21181 0.052546 -3.05799e-20)
(1.21042 0.0460231 0)
(1.20879 0.0407369 2.61714e-20)
(1.20772 0.0327246 -2.58707e-20)
(-0.0135286 0.00779207 -4.02319e-20)
(-0.0197724 0.014671 0)
(-0.00655659 0.0172604 -7.29705e-22)
(0.0249487 0.0175072 3.67416e-20)
(0.0740747 0.0171154 -3.0149e-22)
(0.140136 0.017452 -5.17909e-22)
(0.221971 0.0195062 -1.24217e-19)
(0.317553 0.0239039 2.94476e-20)
(0.423732 0.030894 0)
(0.536242 0.0403307 5.30755e-20)
(0.650033 0.051698 -4.42274e-22)
(0.75986 0.064195 -2.38665e-20)
(0.860984 0.0768767 -4.48344e-20)
(0.949776 0.0888152 2.15546e-20)
(1.02409 0.0992424 4.06118e-20)
(1.08332 0.107642 0)
(1.12823 0.113779 3.62609e-20)
(1.16056 0.117672 0)
(1.18258 0.119524 -2.87087e-22)
(1.1967 0.119644 3.09376e-20)
(1.20513 0.118374 -5.79924e-20)
(1.20971 0.116032 5.55081e-20)
(1.21184 0.112882 0)
(1.21251 0.109126 5.56364e-22)
(1.21235 0.10491 0)
(1.21175 0.100332 0)
(1.21093 0.0954612 0)
(1.20999 0.0903454 0)
(1.20897 0.0850208 -5.60756e-20)
(1.20791 0.0795193 7.21586e-20)
(1.20678 0.0738659 3.28976e-20)
(1.20558 0.0680988 -6.46532e-20)
(1.2043 0.0622151 0)
(1.20293 0.0563579 0)
(1.20143 0.0501964 0)
(1.19977 0.044992 -7.70003e-20)
(1.19854 0.037517 4.8686e-20)
(-0.012089 0.00652039 5.08728e-22)
(-0.0125446 0.0113105 -4.10493e-20)
(0.00937697 0.0129064 3.89983e-20)
(0.0521422 0.0131084 1.04047e-21)
(0.114634 0.0135929 1.24035e-22)
(0.195451 0.0157016 6.69207e-20)
(0.292329 0.0203135 0)
(0.401775 0.0278297 5.98576e-20)
(0.518986 0.0381565 0)
(0.638189 0.05073 -2.66465e-20)
(0.753345 0.0646236 0)
(0.859014 0.07873 -2.38923e-20)
(0.951108 0.0919712 0)
(1.02732 0.103478 2.13861e-20)
(1.08718 0.112695 0)
(1.13173 0.119405 3.81932e-20)
(1.16307 0.123679 -3.59996e-20)
(1.18382 0.125787 -3.39363e-20)
(1.19661 0.126097 -3.23219e-20)
(1.20382 0.124996 -6.03772e-20)
(1.20734 0.122826 5.77858e-20)
(1.20859 0.119867 -2.68771e-20)
(1.20853 0.116324 5.09603e-20)
(1.20777 0.112341 -9.64133e-20)
(1.20668 0.108016 6.87603e-20)
(1.20544 0.103411 0)
(1.20414 0.0985717 2.01967e-20)
(1.20284 0.093531 0)
(1.20154 0.0883165 0)
(1.20023 0.0829526 0)
(1.1989 0.0774647 6.5006e-20)
(1.19755 0.0718774 -6.22713e-20)
(1.19613 0.0662071 0)
(1.19465 0.0605328 0)
(1.19306 0.0546562 2.54693e-20)
(1.19134 0.0494999 4.86702e-20)
(1.18992 0.0424597 -2.39746e-20)
(-0.00984721 0.00507311 -8.41944e-20)
(-0.00280824 0.00767415 -3.70068e-22)
(0.0295604 0.00848516 8.02308e-20)
(0.0852337 0.00910472 -1.13195e-19)
(0.162404 0.0111199 -2.36746e-22)
(0.258591 0.0157527 -3.43294e-20)
(0.370016 0.0236333 -3.2488e-20)
(0.491389 0.0347716 -3.35205e-22)
(0.616197 0.048585 -1.1518e-19)
(0.737496 0.0640214 1.36296e-19)
(0.848962 0.0797868 -5.17396e-20)
(0.94584 0.0946142 0)
(1.02548 0.107493 -6.82978e-20)
(1.08739 0.117798 8.61183e-20)
(1.13282 0.125308 -6.11275e-20)
(1.16419 0.130138 -3.81889e-20)
(1.18443 0.132622 3.59962e-20)
(1.19647 0.133192 6.75795e-20)
(1.20283 0.132286 0)
(1.20554 0.130285 2.97655e-20)
(1.20604 0.127489 2.80142e-20)
(1.20532 0.124117 4.98595e-22)
(1.20399 0.120315 -4.9857e-20)
(1.20239 0.116183 2.46596e-20)
(1.20071 0.111782 2.23959e-20)
(1.19903 0.107155 6.2668e-20)
(1.19739 0.102332 -6.02892e-20)
(1.19579 0.0973403 1.88006e-20)
(1.19424 0.0922006 -3.57105e-20)
(1.19272 0.0869355 0)
(1.19121 0.0815663 -4.71376e-20)
(1.1897 0.0761152 5.99958e-20)
(1.18815 0.0706 -1.37623e-20)
(1.18655 0.0650663 0)
(1.18485 0.0594109 -2.5467e-20)
(1.18306 0.0542687 0)
(1.18147 0.0476104 -6.65363e-20)
(-0.00668605 0.00351952 4.27107e-20)
(0.00971417 0.00400019 -3.39684e-22)
(0.0543267 0.00441343 6.75512e-22)
(0.12444 0.00607031 0)
(0.217224 0.01037 7.27465e-20)
(0.328698 0.018276 -5.46234e-22)
(0.453187 0.029993 -6.88001e-22)
(0.583471 0.0449705 9.23858e-20)
(0.71161 0.0620444 -5.89444e-20)
(0.830183 0.0797082 -2.74203e-20)
(0.933493 0.0964536 -2.61599e-20)
(1.01829 0.111069 7.30788e-20)
(1.08385 0.122808 -6.90379e-20)
(1.13152 0.131414 4.35803e-20)
(1.16399 0.137026 4.04988e-20)
(1.18452 0.140041 0)
(1.19633 0.140964 0)
(1.2022 0.140295 -5.03064e-20)
(1.20429 0.138468 6.2344e-20)
(1.20416 0.135814 -8.943e-20)
(1.20284 0.132573 -8.30972e-20)
(1.20095 0.128903 7.91003e-20)
(1.19884 0.124907 2.43074e-20)
(1.19669 0.120651 0)
(1.1946 0.116175 -2.14929e-20)
(1.19259 0.11151 4.01073e-20)
(1.19067 0.106681 -6.38014e-22)
(1.18884 0.101707 -1.82094e-20)
(1.18708 0.0966095 0)
(1.18539 0.0914077 0)
(1.18374 0.0861209 4.48436e-20)
(1.1821 0.0807678 -4.37439e-20)
(1.18044 0.0753668 1.37626e-20)
(1.17874 0.0699421 0)
(1.17695 0.0644552 0)
(1.17509 0.0593088 0)
(1.17335 0.0529914 0)
(-0.0024835 0.00193716 -4.42911e-20)
(0.0252676 0.00054995 4.57622e-22)
(0.083886 0.00113272 8.40003e-20)
(0.169711 0.00458386 -3.99371e-20)
(0.278493 0.0119689 -7.54085e-20)
(0.404327 0.0238096 3.5705e-20)
(0.53941 0.0396929 -3.40558e-20)
(0.674775 0.0583823 6.37992e-20)
(0.801692 0.0781408 0)
(0.913193 0.0971566 0)
(1.00507 0.113935 2.61607e-20)
(1.07611 0.127534 2.42497e-20)
(1.12757 0.137605 -9.90236e-22)
(1.16234 0.14429 -2.21007e-20)
(1.18402 0.148039 3.99406e-20)
(1.19618 0.149439 -1.941e-20)
(1.2019 0.149071 1.74094e-20)
(1.20358 0.147435 -3.31847e-20)
(1.20292 0.144911 4.68063e-20)
(1.20103 0.141768 7.20597e-20)
(1.19858 0.138187 -6.8673e-20)
(1.19595 0.134278 0)
(1.19332 0.130111 -2.4311e-20)
(1.19078 0.125731 -2.2446e-20)
(1.18837 0.121169 6.43265e-20)
(1.18609 0.116446 -3.56796e-22)
(1.18394 0.111585 -6.88743e-22)
(1.18191 0.106603 -5.28999e-20)
(1.17998 0.101519 3.2844e-20)
(1.17814 0.0963495 -3.14573e-20)
(1.17635 0.0911129 0)
(1.17459 0.0858254 -4.13789e-20)
(1.17282 0.0805026 1.34691e-20)
(1.17102 0.0751586 -4.83228e-20)
(1.16915 0.0697938 4.62999e-20)
(1.16721 0.0646306 0)
(1.16534 0.0586142 -9.90674e-21)
(0.00288095 0.000412725 0)
(0.0440319 -0.00239287 0)
(0.118275 -0.00090229 2.19074e-20)
(0.220682 0.00519761 -2.06963e-20)
(0.345155 0.016445 7.63665e-20)
(0.48354 0.0327071 -5.5041e-20)
(0.625942 0.0527855 1.72269e-20)
(0.762176 0.0747231 3.25753e-20)
(0.883637 0.0963393 -2.92642e-23)
(0.98473 0.115752 0)
(1.06334 0.131717 0)
(1.1204 0.143714 2.48779e-20)
(1.15889 0.151838 0)
(1.18273 0.156587 -6.4286e-20)
(1.1959 0.158633 2.0637e-20)
(1.20188 0.158658 -3.75792e-20)
(1.20337 0.157247 1.76253e-20)
(1.20228 0.154849 1.59047e-20)
(1.19986 0.151779 -4.64092e-20)
(1.19685 0.148244 1.38753e-20)
(1.19367 0.144373 1.29191e-20)
(1.19053 0.140244 -1.29636e-20)
(1.18752 0.135905 4.64836e-20)
(1.18468 0.131389 -6.67956e-20)
(1.182 0.126719 1.01701e-20)
(1.1795 0.121916 1.96475e-20)
(1.17715 0.116998 -5.3837e-20)
(1.17495 0.111981 5.17798e-20)
(1.17288 0.106882 -1.57184e-20)
(1.17091 0.101719 0)
(1.16902 0.0965045 -1.38398e-20)
(1.16716 0.0912546 0)
(1.1653 0.0859814 4.95584e-20)
(1.16341 0.0806957 -2.36235e-20)
(1.16147 0.0754148 1.07433e-20)
(1.15948 0.0702313 0)
(1.15752 0.064486 9.91037e-21)
(0.00950319 -0.00093903 2.35178e-20)
(0.0660873 -0.00450364 -4.76038e-20)
(0.157316 -0.00122779 2.22856e-20)
(0.276648 0.00841454 -1.12638e-21)
(0.415754 0.0241983 -3.98729e-20)
(0.564098 0.0451227 1.84276e-20)
(0.710059 0.0691078 -3.50981e-20)
(0.843076 0.0935623 0)
(0.955639 0.116092 -3.05662e-20)
(1.04423 0.135006 -1.4459e-20)
(1.10907 0.149494 0)
(1.153 0.159532 -2.48852e-20)
(1.18025 0.165629 0)
(1.19527 0.168551 6.40453e-20)
(1.20202 0.169099 -4.0683e-20)
(1.20359 0.167971 1.87267e-20)
(1.20219 0.165708 3.42637e-20)
(1.19928 0.16269 -8.60802e-22)
(1.19571 0.159163 -1.56111e-20)
(1.19196 0.155281 0)
(1.18828 0.151136 -1.29765e-20)
(1.18476 0.146784 -1.23991e-20)
(1.18145 0.142259 0)
(1.17835 0.137588 0)
(1.17545 0.13279 -1.01737e-20)
(1.17276 0.127883 -2.79035e-20)
(1.17025 0.122884 5.34364e-20)
(1.16791 0.117809 0)
(1.16572 0.112674 3.08743e-20)
(1.16365 0.107492 0)
(1.16166 0.102277 1.38447e-20)
(1.15971 0.0970412 0)
(1.15777 0.0917944 1.14374e-20)
(1.15581 0.0865472 -3.35965e-20)
(1.15381 0.0813179 -1.0747e-20)
(1.15178 0.0761172 0)
(1.14977 0.0706116 0)
(0.0174356 -0.00199239 2.48426e-20)
(0.0913806 -0.00544769 2.39148e-20)
(0.2006 0.000603571 0)
(0.336595 0.0146601 2.13079e-20)
(0.488546 0.0354794 -1.97528e-20)
(0.643691 0.0610227 3.86169e-20)
(0.789372 0.0883443 -1.77596e-20)
(0.915637 0.114422 5.0169e-20)
(1.0169 0.13693 -8.35397e-22)
(1.09211 0.154594 -1.50362e-20)
(1.14367 0.167149 1.35216e-20)
(1.17595 0.175059 0)
(1.19391 0.179174 2.28238e-20)
(1.20208 0.180433 -5.38038e-20)
(1.2041 0.17968 2.02346e-20)
(1.20258 0.177578 3.63997e-20)
(1.19924 0.174595 -1.78066e-20)
(1.19511 0.171038 3.14147e-20)
(1.19077 0.167096 -5.96718e-20)
(1.18651 0.16288 -2.72009e-20)
(1.18245 0.158456 7.70372e-20)
(1.17863 0.153865 -1.24498e-20)
(1.17507 0.149135 0)
(1.17175 0.144286 0)
(1.16868 0.139337 1.92191e-20)
(1.16582 0.134305 -9.67853e-21)
(1.16318 0.129204 -8.8576e-21)
(1.16073 0.124049 -7.7955e-21)
(1.15844 0.118855 -1.51573e-20)
(1.15629 0.113634 -2.07101e-20)
(1.15423 0.108397 1.99887e-20)
(1.15222 0.103155 0)
(1.15022 0.0979156 -5.58773e-21)
(1.1482 0.0926894 4.94362e-22)
(1.14617 0.0874865 0)
(1.14413 0.0822781 0)
(1.1421 0.0769812 8.59776e-21)
(0.0266919 -0.00260753 -1.2429e-20)
(0.11972 -0.00488093 2.48944e-20)
(0.247487 0.00500319 -2.37935e-20)
(0.399255 0.024257 0)
(0.561658 0.0503815 -2.06576e-20)
(0.720174 0.0802185 1.94168e-20)
(0.862031 0.110099 1.76569e-20)
(0.97883 0.136854 -1.7689e-20)
(1.06747 0.158499 0)
(1.12937 0.174339 0)
(1.16882 0.184685 -1.35284e-20)
(1.1912 0.190433 0)
(1.20173 0.192678 0)
(1.20472 0.192443 -2.13415e-20)
(1.20333 0.190554 -9.81042e-21)
(1.19967 0.187603 2.70271e-20)
(1.19501 0.18398 -4.25958e-20)
(1.19006 0.179924 0)
(1.18518 0.175577 3.61164e-20)
(1.18054 0.171019 -8.09866e-22)
(1.17618 0.166299 -3.81324e-20)
(1.17212 0.161448 2.26617e-20)
(1.16835 0.156488 -6.03947e-22)
(1.16486 0.15144 -3.0423e-20)
(1.16163 0.146318 -1.8588e-20)
(1.15865 0.141138 4.57888e-22)
(1.1559 0.135915 1.62928e-20)
(1.15336 0.130661 -7.31403e-21)
(1.15101 0.12539 3.53895e-22)
(1.1488 0.120112 -1.30279e-20)
(1.14668 0.114837 4.37051e-20)
(1.14462 0.109572 -5.57728e-22)
(1.14258 0.104325 -1.65248e-20)
(1.14054 0.099104 -9.74248e-21)
(1.13849 0.0939086 1.93664e-20)
(1.13646 0.088705 0)
(1.13445 0.0835816 -8.60484e-21)
(0.0372303 -0.00263687 2.587e-20)
(0.150767 -0.00247272 0)
(0.297134 0.0123174 0)
(0.463194 0.0374038 0)
(0.633241 0.0688482 0)
(0.79174 0.102411 0)
(0.926802 0.133953 0)
(1.03233 0.160473 0)
(1.10794 0.180555 0)
(1.15733 0.194168 -1.47823e-20)
(1.18617 0.202171 -1.35779e-20)
(1.2004 0.205805 0)
(1.20515 0.206314 0)
(1.20431 0.204734 1.0637e-20)
(1.2005 0.20183 2.899e-20)
(1.19536 0.198108 -3.61795e-20)
(1.18979 0.193883 2.53126e-20)
(1.18427 0.189338 0)
(1.17899 0.184576 7.18823e-21)
(1.17405 0.179656 0)
(1.16945 0.174616 1.20212e-20)
(1.1652 0.16948 -2.85726e-20)
(1.16126 0.164269 -1.55625e-20)
(1.15762 0.158998 2.97895e-20)
(1.15428 0.153682 1.34749e-20)
(1.1512 0.148336 -2.13214e-20)
(1.14838 0.142972 -8.04114e-21)
(1.14579 0.137603 0)
(1.14339 0.132238 1.35303e-20)
(1.14115 0.126888 -4.03984e-23)
(1.139 0.121559 -1.20947e-20)
(1.13692 0.116258 0)
(1.13486 0.110991 0)
(1.13281 0.105762 0)
(1.13077 0.100562 -4.42988e-21)
(1.12877 0.0953766 1.25478e-20)
(1.1268 0.0903875 -8.05898e-21)
(0.0489481 -0.00193551 0)
(0.184036 0.00207092 0)
(0.348532 0.0228044 0)
(0.526906 0.0541677 -1.16697e-20)
(0.7016 0.0906953 2.59706e-22)
(0.857 0.127235 -9.82449e-21)
(0.98302 0.159503 4.7636e-20)
(1.07635 0.184968 -9.47391e-21)
(1.13926 0.202939 -2.45589e-20)
(1.17734 0.214067 1.47925e-20)
(1.19719 0.219692 1.35876e-20)
(1.20489 0.221302 0)
(1.20524 0.220207 1.11874e-20)
(1.2016 0.217401 -1.07011e-20)
(1.19609 0.213561 0)
(1.18992 0.20911 -2.40762e-22)
(1.18372 0.204293 -1.23446e-20)
(1.17778 0.199248 0)
(1.17221 0.19405 1.36384e-20)
(1.16703 0.188743 -1.30521e-20)
(1.16225 0.183357 1.16645e-20)
(1.15783 0.177912 5.2159e-21)
(1.15376 0.172425 -2.05065e-20)
(1.15002 0.166911 0)
(1.14659 0.161383 4.46422e-21)
(1.14346 0.155852 4.15154e-21)
(1.14059 0.150332 0)
(1.13797 0.144831 -6.94118e-21)
(1.13556 0.13936 6.64762e-21)
(1.1333 0.133925 6.25117e-21)
(1.13116 0.128533 0)
(1.12908 0.123186 1.0474e-20)
(1.12702 0.11789 2.14726e-21)
(1.12499 0.112645 -9.36362e-21)
(1.12298 0.107435 -1.99067e-21)
(1.12102 0.102283 -1.98038e-21)
(1.1191 0.0973868 9.45643e-21)
(0.0616807 -0.000366899 3.56341e-21)
(0.218911 0.00899707 1.37204e-20)
(0.400553 0.0366275 6.27848e-21)
(0.588904 0.0744913 -1.80551e-20)
(0.765287 0.115636 1.14286e-20)
(0.914996 0.154284 -1.02855e-20)
(1.03048 0.186372 5.0912e-21)
(1.11139 0.210084 8.82353e-21)
(1.16243 0.225544 1.21455e-20)
(1.19061 0.234052 0)
(1.20302 0.237333 6.61313e-21)
(1.2056 0.237027 -6.32467e-21)
(1.20265 0.234443 0)
(1.197 0.230496 2.55786e-21)
(1.19029 0.225768 0)
(1.18341 0.2206 0)
(1.17676 0.215182 -3.78519e-21)
(1.17052 0.209614 5.67652e-21)
(1.16473 0.203953 -6.62467e-21)
(1.15938 0.198233 6.33991e-21)
(1.15445 0.192475 0)
(1.14992 0.186697 0)
(1.14576 0.180913 1.22137e-20)
(1.14195 0.175136 -2.39724e-21)
(1.13847 0.169377 -2.05198e-21)
(1.1353 0.163646 0)
(1.13243 0.157954 -3.56154e-21)
(1.12981 0.15231 6.71937e-21)
(1.12741 0.14672 -1.65045e-21)
(1.12517 0.141191 0)
(1.12305 0.135725 0)
(1.121 0.130325 1.22078e-21)
(1.11898 0.124994 -1.27346e-21)
(1.11699 0.119728 0)
(1.11504 0.114514 -1.11098e-21)
(1.11315 0.109412 -1.03818e-21)
(1.11129 0.104571 -1.82925e-21)
(0.0752424 0.00219997 -3.50797e-21)
(0.254743 0.0185076 0)
(0.452108 0.0538501 0)
(0.6479 0.0981975 -6.12237e-21)
(0.823223 0.143304 -2.82894e-21)
(0.965201 0.183147 2.70414e-21)
(1.0693 0.21423 -4.85231e-21)
(1.1381 0.235635 0)
(1.17837 0.248321 -4.05596e-21)
(1.19808 0.254161 0)
(1.20445 0.255167 1.63673e-21)
(1.20306 0.25305 -3.05539e-21)
(1.19768 0.249065 2.78323e-21)
(1.19059 0.244029 -2.62e-21)
(1.18306 0.23843 -1.1856e-21)
(1.17569 0.232539 0)
(1.16873 0.226497 0)
(1.16228 0.220379 1.80619e-21)
(1.15634 0.214226 0)
(1.15087 0.208064 7.36274e-22)
(1.14586 0.201909 -2.66536e-23)
(1.14126 0.195775 -2.38863e-23)
(1.13706 0.189674 -2.4221e-21)
(1.13322 0.183617 -2.77184e-21)
(1.12973 0.177612 2.05403e-21)
(1.12657 0.171667 0)
(1.12371 0.165792 0)
(1.12113 0.159992 0)
(1.11878 0.154274 -1.51987e-21)
(1.1166 0.148641 0)
(1.11454 0.143094 0)
(1.11255 0.137635 -6.37794e-22)
(1.1106 0.132265 -1.69738e-21)
(1.10868 0.126974 -5.0619e-22)
(1.10681 0.12176 -5.02722e-22)
(1.10502 0.116719 -9.20815e-22)
(1.10328 0.111908 0)
(-0.00230808 0.0179246 -1.98584e-21)
(-0.0112369 0.043618 0)
(-0.0272583 0.0620672 0)
(-0.0469045 0.0752473 -3.74527e-21)
(-0.0683697 0.0847511 1.80244e-21)
(-0.0907302 0.0918753 -1.72325e-21)
(-0.113377 0.0976052 -3.36185e-21)
(-0.135941 0.102618 0)
(-0.158234 0.107326 -3.15903e-21)
(-0.180173 0.111941 0)
(-0.201725 0.116545 -1.505e-21)
(-0.222876 0.121144 1.43941e-21)
(-0.243617 0.12571 -1.43733e-21)
(-0.263931 0.1302 -2.82442e-21)
(-0.283795 0.134565 1.34658e-21)
(-0.303179 0.138759 0)
(-0.322045 0.142733 0)
(-0.340347 0.146443 2.592e-21)
(-0.358036 0.149845 0)
(-0.375059 0.152897 -1.26759e-21)
(-0.391358 0.155559 -3.48671e-23)
(-0.406873 0.157794 -3.43849e-23)
(-0.421545 0.159568 -4.82977e-21)
(-0.435311 0.160851 -3.56516e-21)
(-0.44811 0.161617 4.65121e-21)
(-0.459881 0.161844 0)
(-0.470567 0.161515 0)
(-0.480111 0.160616 0)
(-0.488461 0.159138 -4.34786e-21)
(-0.495571 0.157079 0)
(-0.501399 0.154438 0)
(-0.505907 0.151221 -6.14696e-21)
(-0.509057 0.147433 -2.0368e-21)
(-0.510825 0.143077 1.9561e-21)
(-0.511227 0.13816 -5.68599e-21)
(-0.51033 0.132709 -3.71186e-21)
(-0.508123 0.126739 0)
(-0.00305895 0.0236318 5.9993e-21)
(-0.0122726 0.057364 -8.12595e-21)
(-0.0273115 0.0813121 -3.94733e-21)
(-0.0454312 0.0981084 1.87927e-20)
(-0.0651634 0.10985 -7.2171e-21)
(-0.0857172 0.118246 7.02031e-21)
(-0.106534 0.124614 -1.01377e-20)
(-0.127247 0.12988 6.56696e-21)
(-0.147648 0.134623 9.52572e-21)
(-0.167622 0.139156 6.21676e-21)
(-0.187109 0.143614 -1.20048e-20)
(-0.206073 0.148022 5.79529e-21)
(-0.224485 0.152356 0)
(-0.242312 0.156564 8.45455e-21)
(-0.259519 0.16059 -5.41971e-21)
(-0.276064 0.164375 0)
(-0.291898 0.167865 1.60268e-20)
(-0.30697 0.171003 -1.28453e-20)
(-0.321223 0.173741 0)
(-0.334599 0.176028 0)
(-0.347037 0.177822 0)
(-0.358479 0.179081 0)
(-0.368863 0.17977 4.69643e-21)
(-0.378132 0.179857 1.40672e-20)
(-0.386229 0.179318 -4.64632e-21)
(-0.3931 0.178131 0)
(-0.398695 0.176282 9.16846e-21)
(-0.402968 0.173761 -1.77908e-20)
(-0.405877 0.170567 1.29728e-20)
(-0.407387 0.166702 0)
(-0.407467 0.162176 0)
(-0.406097 0.157005 4.08957e-21)
(-0.40326 0.151209 -4.10897e-21)
(-0.398937 0.144805 0)
(-0.393128 0.137825 -3.91843e-21)
(-0.385931 0.130351 -3.81792e-21)
(-0.377568 0.122455 -7.36731e-21)
(-0.00409419 0.0281619 0)
(-0.0138411 0.0686755 0)
(-0.0277829 0.0976128 0)
(-0.0440558 0.117938 7.63746e-21)
(-0.0616188 0.132031 5.22129e-23)
(-0.0798654 0.141876 7.15671e-21)
(-0.0983207 0.14904 -2.04977e-20)
(-0.116639 0.154659 -6.73319e-21)
(-0.134595 0.159475 6.33674e-21)
(-0.152046 0.163912 1.24898e-20)
(-0.1689 0.168168 1.21554e-20)
(-0.185095 0.172303 0)
(-0.200581 0.176303 0)
(-0.215311 0.180118 0)
(-0.229238 0.183685 0)
(-0.242311 0.18694 -2.18671e-20)
(-0.254477 0.189819 5.20594e-21)
(-0.265679 0.192263 0)
(-0.275863 0.194216 -2.08997e-20)
(-0.28497 0.195626 2.00009e-20)
(-0.292945 0.196448 -2.02777e-20)
(-0.299734 0.196639 9.30767e-21)
(-0.305286 0.196164 -2.7194e-22)
(-0.309553 0.194993 0)
(-0.31249 0.193102 9.45478e-21)
(-0.314058 0.190474 9.31205e-21)
(-0.314221 0.187099 0)
(-0.312949 0.182971 1.82005e-20)
(-0.310217 0.178095 -1.74301e-20)
(-0.306002 0.17248 1.74052e-20)
(-0.30029 0.166145 0)
(-0.293075 0.159118 -3.36684e-20)
(-0.284365 0.151437 7.43552e-21)
(-0.274151 0.143146 3.15348e-20)
(-0.26236 0.134303 5.46414e-20)
(-0.249002 0.125028 -7.19137e-21)
(-0.234803 0.115524 -2.2012e-20)
(-0.00528346 0.0313305 7.63722e-23)
(-0.015737 0.0771071 0)
(-0.028535 0.110365 0)
(-0.0427569 0.134056 0)
(-0.0578362 0.150607 0)
(-0.0733892 0.162107 0)
(-0.0890565 0.170273 0)
(-0.104535 0.1764 0)
(-0.119595 0.181375 0)
(-0.134069 0.185736 -1.24809e-20)
(-0.147837 0.189763 -1.21467e-20)
(-0.160809 0.193564 2.40352e-20)
(-0.172916 0.19715 -2.29886e-20)
(-0.184095 0.200479 1.13975e-20)
(-0.19429 0.203492 -1.13702e-20)
(-0.203447 0.20612 4.35958e-20)
(-0.21151 0.208299 -1.04106e-20)
(-0.218426 0.209966 0)
(-0.224144 0.211064 1.0387e-20)
(-0.228615 0.21154 0)
(-0.231793 0.211349 -2.03965e-20)
(-0.233635 0.210451 -1.01942e-20)
(-0.234107 0.208812 4.93436e-20)
(-0.233174 0.206404 -1.86522e-20)
(-0.230812 0.203208 -4.78999e-20)
(-0.226998 0.199211 -1.03503e-20)
(-0.221716 0.194404 1.78469e-20)
(-0.214957 0.188789 0)
(-0.206715 0.182372 -3.59949e-20)
(-0.196989 0.175166 -7.6305e-22)
(-0.185778 0.167194 3.38357e-20)
(-0.173091 0.158486 -3.39056e-20)
(-0.158952 0.14909 3.24798e-20)
(-0.143387 0.139074 0)
(-0.126299 0.128536 -1.55838e-20)
(-0.107349 0.117621 -1.55341e-20)
(-0.0872249 0.106593 2.9522e-20)
(-0.00648633 0.0330676 -2.53151e-20)
(-0.0177275 0.0824167 -1.70314e-20)
(-0.0294028 0.119169 1.62801e-20)
(-0.0414978 0.145954 0)
(-0.0539202 0.165012 -1.51073e-20)
(-0.0665279 0.178371 -1.45101e-20)
(-0.0791031 0.187777 -1.41381e-20)
(-0.0914096 0.194615 4.03071e-20)
(-0.103232 0.199887 0)
(-0.11439 0.204244 0)
(-0.124737 0.208058 -1.23405e-20)
(-0.134162 0.211502 0)
(-0.142573 0.214626 0)
(-0.149897 0.217412 -2.28412e-20)
(-0.15607 0.21981 -1.11531e-20)
(-0.161036 0.221757 -1.12763e-20)
(-0.164744 0.22319 -1.10335e-20)
(-0.167145 0.224047 0)
(-0.168198 0.224272 -3.1759e-20)
(-0.167866 0.223817 -1.15937e-21)
(-0.166117 0.222636 1.95911e-20)
(-0.162925 0.220694 -2.56412e-23)
(-0.158271 0.217961 -3.97096e-20)
(-0.152142 0.214413 1.87578e-20)
(-0.144531 0.210036 0)
(-0.135436 0.204818 0)
(-0.124864 0.198759 -1.85352e-24)
(-0.112825 0.191861 5.48005e-20)
(-0.099335 0.184133 9.07864e-22)
(-0.0844144 0.175591 -6.94595e-20)
(-0.0680868 0.166256 -5.2259e-20)
(-0.0503772 0.156156 -1.46737e-21)
(-0.0313194 0.145327 8.14806e-20)
(-0.0109738 0.133833 9.69005e-20)
(0.0106392 0.121785 -6.21181e-20)
(0.0339699 0.109401 0)
(0.0598754 0.0969883 -2.96596e-20)
(-0.0075707 0.0334123 -1.47192e-22)
(-0.0195818 0.0845737 1.73803e-20)
(-0.0302138 0.12385 0)
(-0.0402351 0.153309 1.59213e-20)
(-0.0499787 0.174819 4.55663e-20)
(-0.0595394 0.190186 -2.91251e-20)
(-0.0688564 0.201064 4.24005e-20)
(-0.0777838 0.208846 -6.78729e-20)
(-0.0861427 0.214601 -3.35502e-22)
(-0.0937555 0.219077 3.80751e-20)
(-0.100464 0.222741 1.23338e-20)
(-0.106136 0.225844 0)
(-0.110664 0.228493 -2.37299e-20)
(-0.113964 0.230707 3.43855e-20)
(-0.115967 0.232459 -2.21856e-20)
(-0.116617 0.233699 0)
(-0.115868 0.23437 2.15354e-20)
(-0.113681 0.234418 -4.29007e-20)
(-0.110026 0.233791 -5.13034e-22)
(-0.10488 0.232444 4.15022e-20)
(-0.0982283 0.230336 -4.03389e-20)
(-0.0900617 0.227437 5.89453e-20)
(-0.0803793 0.223721 0)
(-0.069187 0.21917 0)
(-0.056498 0.213773 -3.84257e-20)
(-0.0423302 0.207524 -1.96114e-20)
(-0.0267086 0.200426 5.45957e-20)
(-0.00966532 0.192486 -1.80799e-20)
(0.00876414 0.183715 -3.53172e-20)
(0.0285388 0.174133 8.79372e-20)
(0.0496135 0.163762 -8.4627e-20)
(0.0719392 0.152631 0)
(0.095467 0.140768 -1.63985e-20)
(0.120123 0.128221 -2.37847e-22)
(0.145852 0.115039 0)
(0.172456 0.101482 0)
(0.20422 0.088015 2.96002e-20)
(-0.00842739 0.0325061 -1.73705e-20)
(-0.0210958 0.0837581 1.28406e-22)
(-0.0308101 0.124474 -5.02759e-20)
(-0.0389296 0.156025 9.96693e-23)
(-0.0461237 0.179776 3.06441e-20)
(-0.052694 0.197193 1.47908e-20)
(-0.0587371 0.209722 -2.83485e-20)
(-0.0642136 0.218673 0)
(-0.0690046 0.225124 -2.64864e-20)
(-0.0729566 0.229886 -1.27676e-20)
(-0.0759141 0.23351 2.50467e-20)
(-0.0777371 0.236333 -9.68489e-20)
(-0.0783081 0.238532 4.66189e-20)
(-0.0775338 0.240177 -2.34497e-20)
(-0.0753416 0.241276 4.43737e-20)
(-0.0716772 0.241804 2.1891e-20)
(-0.0665002 0.241719 0)
(-0.059783 0.240978 -4.27409e-20)
(-0.0515082 0.239535 6.16535e-20)
(-0.0416683 0.237353 0)
(-0.0302645 0.234397 -2.00791e-20)
(-0.0173064 0.230642 -1.95962e-20)
(-0.00281155 0.226068 0)
(0.0131951 0.22066 0)
(0.0306811 0.214412 -1.86675e-20)
(0.0496082 0.207324 9.35388e-20)
(0.0699315 0.199399 -3.56675e-20)
(0.0915995 0.19065 0)
(0.114556 0.181093 7.01518e-20)
(0.138738 0.170747 0)
(0.164083 0.159635 3.35207e-20)
(0.19051 0.147794 0)
(0.217979 0.135246 -9.74422e-20)
(0.24629 0.122051 3.08265e-20)
(0.275887 0.108198 -3.05433e-20)
(0.304368 0.0938222 0)
(0.341972 0.0795551 0)
(-0.00898597 0.0305689 0)
(-0.0221219 0.0803362 0)
(-0.0310703 0.121351 1.68054e-20)
(-0.0375565 0.154251 -1.60777e-20)