/*--------------------------------*- C++ -*----------------------------------*\
| =========                 |                                                 |
| \\      /  F ield         | OpenFOAM: The Open Source CFD Toolbox           |
|  \\    /   O peration     | Version:  2312                                  |
|   \\  /    A nd           | Website:  www.openfoam.com                      |
|    \\/     M anipulation  |                                                 |
\*---------------------------------------------------------------------------*/
FoamFile
{
    version     2.0;
    format      ascii;
    arch        "LSB;label=32;scalar=64";
    class       volScalarField;
    location    "41.5";
    object      p;
}
// * * * * * * * * * * * * * * * * * * * * * * * * * * * * * * * * * * * * * //

dimensions      [0 2 -2 0 0 0 0];

internalField   nonuniform List<scalar> 
2300
(
-0.333928
-0.330471
-0.327237
-0.325148
-0.320773
-0.312068
-0.297268
-0.2786
-0.253725
-0.226951
-0.345601
-0.33825
-0.331604
-0.322641
-0.310431
-0.294227
-0.274662
-0.252414
-0.227921
-0.20531
-0.366155
-0.35048
-0.337981
-0.319439
-0.297459
-0.274129
-0.250185
-0.226339
-0.203966
-0.183123
-0.396596
-0.369745
-0.342307
-0.311023
-0.279923
-0.251029
-0.224927
-0.201407
-0.180301
-0.160651
-0.414697
-0.385521
-0.338466
-0.293945
-0.25557
-0.223116
-0.195525
-0.172046
-0.152238
-0.13445
-0.289593
-0.293996
-0.298177
-0.303865
-0.310367
-0.316868
-0.322822
-0.326764
-0.329737
-0.328702
-0.297861
-0.301656
-0.305631
-0.310786
-0.315778
-0.319172
-0.321411
-0.314861
-0.307886
-0.287962
-0.308575
-0.310901
-0.313923
-0.318093
-0.323074
-0.321903
-0.329101
-0.305031
-0.303856
-0.262931
-0.318531
-0.319226
-0.320935
-0.323242
-0.328986
-0.323857
-0.331379
-0.306208
-0.293376
-0.263112
-0.326448
-0.325157
-0.324704
-0.325642
-0.327324
-0.323252
-0.316762
-0.29957
-0.280099
-0.259266
-0.331838
-0.339611
-0.345586
-0.346777
-0.337498
-0.322501
-0.315896
-0.356814
-0.391129
-0.37575
-0.274918
-0.182241
-0.134947
-0.157096
-0.109217
-0.0570309
-0.0329376
-0.0339535
-0.0400693
-0.0334983
-0.0213058
-0.0123576
-0.00648877
-0.00316174
-0.000780332
-0.270692
-0.258485
-0.246868
-0.247901
-0.252995
-0.27194
-0.312174
-0.402777
-0.471089
-0.422301
-0.280144
-0.14832
-0.0891541
-0.103936
-0.0917627
-0.0541979
-0.0345708
-0.0388581
-0.0439031
-0.0349867
-0.0221399
-0.0129863
-0.00691948
-0.00335555
-0.000848469
-0.234314
-0.216084
-0.201093
-0.192189
-0.200718
-0.233704
-0.290571
-0.39042
-0.471979
-0.433354
-0.278472
-0.122094
-0.0584743
-0.0645607
-0.0838392
-0.052695
-0.0359283
-0.0439008
-0.046592
-0.0359161
-0.0228914
-0.0137161
-0.00748207
-0.00362324
-0.000922496
-0.223256
-0.19051
-0.171514
-0.162023
-0.169656
-0.207095
-0.261992
-0.356574
-0.447161
-0.416399
-0.269099
-0.101547
-0.020161
-0.0201343
-0.0572993
-0.0452888
-0.0374829
-0.0489213
-0.0481262
-0.0361581
-0.0234086
-0.0144001
-0.00804022
-0.0039425
-0.00102442
-0.240553
-0.212781
-0.186535
-0.167268
-0.162501
-0.185577
-0.228125
-0.301413
-0.377454
-0.366329
-0.257336
-0.117981
-0.00851072
0.0206116
-0.00948622
-0.0313516
-0.0392014
-0.0516464
-0.0480308
-0.0360812
-0.0239681
-0.0150784
-0.0085574
-0.00426328
-0.00110609
-0.21726
-0.210397
-0.189756
-0.172253
-0.164708
-0.180276
-0.208789
-0.263849
-0.322355
-0.308198
-0.208964
-0.093125
0.00952574
0.0598054
0.0447017
-0.0121728
-0.0410926
-0.0536949
-0.0464589
-0.0346557
-0.0236056
-0.0152382
-0.00886369
-0.00448389
-0.00115375
-0.18813
-0.1909
-0.178974
-0.167388
-0.162599
-0.174098
-0.197498
-0.22702
-0.255738
-0.235715
-0.156375
-0.0686853
0.0143089
0.0583096
0.0397687
-0.00665207
-0.0409299
-0.0494032
-0.0428529
-0.032623
-0.0230085
-0.0153115
-0.0091541
-0.00469296
-0.00121374
-0.160869
-0.169528
-0.166109
-0.159547
-0.156059
-0.160666
-0.171204
-0.183143
-0.197022
-0.183085
-0.130714
-0.0591685
0.0137262
0.065898
0.0400798
-0.00328266
-0.0347324
-0.0431256
-0.0384989
-0.0304161
-0.0223219
-0.0153534
-0.00945369
-0.0049391
-0.0013005
-0.135849
-0.146943
-0.148859
-0.145975
-0.143086
-0.143838
-0.149915
-0.157879
-0.157914
-0.142448
-0.100144
-0.0426226
0.00963215
0.0382392
0.0309725
-0.00151551
-0.0275266
-0.0357228
-0.0337692
-0.0280392
-0.0215282
-0.015368
-0.0097601
-0.00520475
-0.00141252
-0.111995
-0.123552
-0.128275
-0.128094
-0.126369
-0.125752
-0.127014
-0.127154
-0.12417
-0.110074
-0.0819996
-0.04399
-0.00205566
0.0266508
0.0214334
-0.00153113
-0.0214293
-0.0294839
-0.0297445
-0.0259427
-0.0207576
-0.0152852
-0.0099548
-0.00537783
-0.00145095
-0.0900497
-0.100969
-0.107011
-0.108531
-0.107916
-0.106906
-0.106168
-0.104886
-0.0998541
-0.0888938
-0.0681236
-0.0383256
-0.00846785
0.011274
0.0103785
-0.00406413
-0.0181444
-0.0253078
-0.0262336
-0.0237571
-0.0198158
-0.0151958
-0.0103094
-0.00573468
-0.00162295
-0.070152
-0.079877
-0.0860936
-0.0885893
-0.0886689
-0.0876124
-0.0860575
-0.0832616
-0.0789013
-0.0703229
-0.0557528
-0.0372601
-0.0171095
-0.00171007
0.00046886
-0.00735017
-0.0162591
-0.0216519
-0.0233247
-0.0221273
-0.0191759
-0.0151237
-0.0105264
-0.00598336
-0.00172052
-0.0529535
-0.0611971
-0.0670113
-0.0699851
-0.070854
-0.0705384
-0.0694836
-0.0675179
-0.0636994
-0.0573684
-0.0479715
-0.0354875
-0.0216379
-0.0104843
-0.00731581
-0.0109903
-0.0162637
-0.0198343
-0.0214668
-0.0206726
-0.018383
-0.0149415
-0.0106736
-0.00615969
-0.00182175
-0.0369325
-0.043684
-0.0486931
-0.051544
-0.0526483
-0.0526634
-0.0520053
-0.0506622
-0.0483448
-0.044726
-0.0389833
-0.0313968
-0.0230557
-0.0158338
-0.0122718
-0.013163
-0.0156873
-0.0178626
-0.019178
-0.0191301
-0.0176994
-0.0148781
-0.0109327
-0.0064399
-0.00186238
-0.0248312
-0.030534
-0.0351049
-0.0381376
-0.0398039
-0.0405424
-0.0406622
-0.0401986
-0.0389762
-0.0366583
-0.0332119
-0.0287798
-0.0237263
-0.0189389
-0.0160754
-0.0157201
-0.0168521
-0.017976
-0.0185602
-0.0187971
-0.0177567
-0.0153114
-0.0115445
-0.0069866
-0.00221847
-0.0109542
-0.0154506
-0.0192969
-0.0221191
-0.023942
-0.0250519
-0.0257237
-0.0260685
-0.0260664
-0.0255796
-0.0244831
-0.0226455
-0.0202599
-0.0178126
-0.0157988
-0.015076
-0.015366
-0.0159712
-0.016679
-0.0167706
-0.0163392
-0.0144095
-0.0109001
-0.00645869
-0.00179118
-0.00485141
-0.00872955
-0.0121634
-0.0148905
-0.0169279
-0.018449
-0.0196255
-0.0205161
-0.0210823
-0.0212338
-0.0208986
-0.0201235
-0.01904
-0.0178584
-0.016959
-0.0164068
-0.0164435
-0.0168178
-0.0173435
-0.0177774
-0.0176537
-0.0161998
-0.0130239
-0.00821458
-0.00265087
0.00723929
0.00420753
0.00116708
-0.00157772
-0.00392351
-0.00589303
-0.00758539
-0.00906971
-0.0103796
-0.0115284
-0.0125052
-0.0131948
-0.0134691
-0.013441
-0.013245
-0.013139
-0.013509
-0.0139856
-0.014725
-0.0154801
-0.015641
-0.0143419
-0.0111885
-0.00648525
-0.00158637
0.00884148
0.00613944
0.00349526
0.00101463
-0.00127892
-0.00337834
-0.00531488
-0.00708978
-0.00872532
-0.0102053
-0.0113705
-0.0122909
-0.0129512
-0.0134273
-0.0138126
-0.014069
-0.0142477
-0.0145739
-0.0150736
-0.0154216
-0.0157403
-0.0161193
-0.014447
-0.00939063
-0.00272267
0.0151454
0.0127983
0.0103487
0.0078809
0.00543211
0.00305057
0.000777412
-0.00133255
-0.00325465
-0.00502548
-0.00661214
-0.00806431
-0.00921987
-0.0100624
-0.0107883
-0.0113613
-0.0118964
-0.0124764
-0.0131793
-0.0139321
-0.0147808
-0.0146597
-0.012003
-0.00633797
-0.0011303
-0.118142
-0.141239
-0.161703
-0.182882
-0.199664
-0.102584
-0.119925
-0.136569
-0.152906
-0.169477
-0.0862159
-0.0985223
-0.112278
-0.125647
-0.142138
-0.0727505
-0.0819134
-0.0930155
-0.10482
-0.119116
-0.0600949
-0.0669552
-0.0754914
-0.0855116
-0.0973543
-0.0481323
-0.0533535
-0.059814
-0.0679801
-0.0776652
-0.0363376
-0.0404691
-0.0454721
-0.0520483
-0.05995
-0.0257957
-0.0292325
-0.0333143
-0.0385511
-0.044809
-0.0152399
-0.017999
-0.0211864
-0.0253195
-0.0303904
-0.00682079
-0.00914535
-0.0119376
-0.0154018
-0.019541
0.00310251
0.0010151
-0.00124185
-0.00382213
-0.00694117
0.00918721
0.00720704
0.0048727
0.00204939
-0.00117718
0.0182675
0.0162482
0.0141723
0.0120481
0.00982134
0.021534
0.0192149
0.0167824
0.0142111
0.0115387
0.0267413
0.0242986
0.0219763
0.0197002
0.0174221
0.0478205
0.049204
0.048507
0.044874
0.0367927
0.0227713
-0.00122465
-0.040709
-0.100044
-0.205567
0.0104791
0.00571045
-0.00263202
-0.0141441
-0.0308519
-0.0549611
-0.0900964
-0.143641
-0.215548
-0.323222
-0.0273486
-0.0379975
-0.0519567
-0.0690079
-0.0918862
-0.122949
-0.164929
-0.225785
-0.303503
-0.394647
-0.0656906
-0.0808058
-0.0972805
-0.117625
-0.144022
-0.178508
-0.223971
-0.284676
-0.358185
-0.422093
-0.103395
-0.119092
-0.137272
-0.159645
-0.18753
-0.222294
-0.266032
-0.320794
-0.383339
-0.42265
0.1944
0.216917
0.243004
0.273175
0.307296
0.344974
0.384931
0.42583
0.460834
0.487487
0.182179
0.20113
0.223701
0.250105
0.279541
0.311277
0.343833
0.375453
0.398234
0.410129
0.160233
0.173516
0.190944
0.211671
0.233706
0.255845
0.276316
0.29293
0.295797
0.283777
0.12969
0.137187
0.148933
0.162579
0.175335
0.18554
0.191037
0.189191
0.168879
0.122573
0.0902938
0.0931958
0.0999749
0.105616
0.108113
0.10591
0.0958545
0.0744207
0.0322396
-0.049283
0.0329129
0.0418161
0.0349034
0.0439402
0.041037
0.0506406
0.0526085
0.0625675
0.0704561
0.0827417
0.0959803
0.112305
0.130013
0.150504
0.172249
0.0364066
0.0457386
0.0379017
0.0471708
0.0437249
0.0530615
0.0548611
0.064192
0.0716137
0.083001
0.0951506
0.110489
0.126184
0.145078
0.163739
0.0399707
0.0493825
0.0409476
0.0500932
0.046399
0.0552108
0.0570057
0.0658169
0.0730341
0.0841544
0.0952163
0.10932
0.121393
0.136634
0.148843
0.0435743
0.0527721
0.0440298
0.0526995
0.0490405
0.0569986
0.0588139
0.0664246
0.0729681
0.0826462
0.0915265
0.103109
0.111197
0.12223
0.126103
0.0472133
0.055917
0.0470594
0.0549873
0.0514562
0.0586626
0.0607297
0.0678521
0.074401
0.0835784
0.0898191
0.0985274
0.100266
0.104254
0.0967214
0.0506852
0.0588734
0.0499616
0.0570071
0.0536204
0.0597811
0.061705
0.067645
0.0727585
0.0791582
0.0830774
0.0865292
0.084838
0.0795207
0.0650472
0.0542305
0.0618453
0.0530597
0.0589601
0.055841
0.0604843
0.0623064
0.0662519
0.069954
0.0734968
0.0750887
0.0741553
0.0700111
0.0607041
0.0484663
0.0583451
0.0651699
0.0567
0.0610194
0.0582995
0.0610605
0.0625662
0.064544
0.0664433
0.0674071
0.0665036
0.062633
0.0564765
0.0469235
0.0354405
0.0631676
0.0688661
0.0609503
0.0632178
0.0610063
0.0618196
0.062401
0.0627035
0.0626686
0.0612777
0.0582658
0.0526088
0.0452561
0.0357968
0.0249726
0.0688566
0.0729371
0.0659353
0.0656907
0.0638614
0.0628493
0.0621356
0.0607817
0.058988
0.0555111
0.0509097
0.0442032
0.0363851
0.0273337
0.0174871
0.0756555
0.0775272
0.0716946
0.0688289
0.0667652
0.0641661
0.0620289
0.0589854
0.0556415
0.0506143
0.0448765
0.0377558
0.0299946
0.0215529
0.0126074
0.0838876
0.0830256
0.078116
0.0728272
0.0699498
0.0658518
0.0622515
0.0576604
0.0529539
0.0470387
0.0406468
0.0335066
0.0260813
0.0183726
0.0105101
0.0937894
0.0899742
0.0851163
0.0778923
0.0735928
0.0681017
0.0629781
0.0571163
0.0513045
0.0448382
0.0381372
0.0311791
0.0242376
0.0172284
0.0101355
0.105703
0.098727
0.0929694
0.0843323
0.0781315
0.0715312
0.0650955
0.0583026
0.0516529
0.0449161
0.038275
0.0317336
0.0254248
0.0193086
0.0133388
0.120384
0.109944
0.101748
0.0913283
0.0828743
0.0748564
0.0673109
0.0597806
0.0524939
0.0455243
0.0389913
0.0327979
0.026917
0.0212698
0.0158122
0.138808
0.125567
0.114313
0.102455
0.0918578
0.0823741
0.0737087
0.0654089
0.0574992
0.0502813
0.0438815
0.0381515
0.0328793
0.0279087
0.0231585
0.161999
0.14065
0.124087
0.109474
0.0971062
0.0864253
0.0769551
0.0681303
0.0598518
0.05244
0.046091
0.0406393
0.0357691
0.0312357
0.0269435
0.204838
0.171941
0.147949
0.12901
0.11351
0.100304
0.0889271
0.0787925
0.0696438
0.0615893
0.0548168
0.0492267
0.0444626
0.0402035
0.0362628
0.236144
0.18441
0.155241
0.134706
0.117839
0.103597
0.0913494
0.0807294
0.0714714
0.063476
0.0567575
0.0512325
0.0466589
0.0427438
0.0392982
0.39064
0.234808
0.192715
0.162293
0.137971
0.118437
0.10269
0.0898886
0.079315
0.0705892
0.0634508
0.0576447
0.0529118
0.0489639
0.045607
0.0434103
0.0104912
-0.0262063
-0.0605606
-0.0919587
0.0320685
0.00075605
-0.0324825
-0.0606818
-0.083184
0.0222328
-0.00210059
-0.0303027
-0.0540115
-0.0714823
0.0131731
-0.00626242
-0.0292798
-0.0489991
-0.0618491
0.00700764
-0.00799656
-0.0257263
-0.0410847
-0.0516048
0.00286825
-0.00956716
-0.0225315
-0.0334783
-0.0416858
0.00201067
-0.00793054
-0.0172042
-0.0248638
-0.0312342
0.00237345
-0.00578966
-0.0122996
-0.0174099
-0.0219233
0.00693347
0.000355363
-0.00462206
-0.00851347
-0.01209
0.0100627
0.00459713
0.00088698
-0.00185965
-0.00442815
0.018195
0.0133943
0.0100222
0.00752081
0.00527245
0.0225529
0.0183776
0.0153734
0.0131007
0.011104
0.0322254
0.028169
0.0249208
0.0224302
0.0203066
0.0359079
0.0324069
0.0291841
0.026353
0.0238528
0.0423463
0.0388845
0.0354819
0.0322934
0.0293856
-0.307451
-0.324067
-0.351723
-0.379147
-0.39195
-0.302198
-0.313668
-0.330275
-0.3511
-0.360791
-0.294331
-0.303416
-0.312338
-0.31654
-0.308941
-0.286814
-0.289673
-0.289748
-0.281639
-0.262939
-0.280296
-0.275934
-0.267155
-0.251283
-0.226047
-0.276349
-0.263578
-0.247138
-0.226037
-0.197119
-0.273174
-0.252945
-0.229703
-0.205279
-0.174064
-0.272511
-0.242124
-0.214517
-0.187946
-0.155791
-0.266672
-0.230075
-0.201671
-0.173186
-0.141576
-0.257796
-0.21926
-0.189047
-0.159969
-0.12946
-0.28989
-0.295149
-0.299266
-0.300366
-0.30056
-0.293356
-0.296444
-0.298009
-0.29709
-0.296623
-0.297249
-0.299017
-0.298089
-0.293447
-0.289933
-0.303211
-0.304156
-0.300024
-0.290478
-0.285405
-0.310872
-0.312177
-0.306614
-0.2945
-0.284742
-0.320159
-0.320405
-0.310986
-0.295824
-0.286855
-0.33171
-0.337618
-0.330991
-0.312334
-0.291794
-0.343804
-0.349554
-0.338743
-0.323127
-0.300172
-0.359274
-0.375498
-0.366454
-0.341053
-0.308325
-0.374527
-0.394378
-0.38806
-0.360182
-0.317506
-0.395231
-0.426831
-0.41231
-0.372614
-0.323681
-0.418541
-0.460809
-0.449818
-0.407028
-0.340964
-0.438774
-0.485839
-0.477263
-0.437592
-0.360703
-0.444171
-0.491151
-0.479598
-0.441928
-0.364464
-0.423125
-0.461637
-0.449542
-0.41555
-0.351491
-0.370131
-0.383099
-0.367923
-0.345531
-0.313279
-0.305231
-0.269646
-0.237673
-0.224382
-0.229876
-0.277384
-0.193272
-0.126693
-0.114098
-0.139991
-0.27674
-0.140023
-0.0266941
0.0214353
-0.0453623
-0.284632
-0.116756
0.0541297
0.162543
0.109963
-0.247625
-0.180117
-0.0778197
0.0468973
0.097459
-0.213094
-0.217113
-0.192445
-0.163853
-0.0922897
-0.20432
-0.252264
-0.275417
-0.288807
-0.19693
-0.208818
-0.224177
-0.224392
-0.229284
-0.193298
-0.12762
-0.132084
-0.132654
-0.130922
-0.124815
-0.0595151
-0.0598407
-0.0617712
-0.0625071
-0.067013
-0.0305214
-0.0283472
-0.0271304
-0.0262806
-0.0300045
-0.0286879
-0.0232393
-0.0183895
-0.0144738
-0.0130457
-0.0354238
-0.0294705
-0.0235044
-0.0175082
-0.0124569
-0.031181
-0.0279272
-0.0243183
-0.020252
-0.0155378
-0.0202896
-0.0190147
-0.0177258
-0.0164802
-0.0146881
-0.011829
-0.0112256
-0.0106594
-0.0104466
-0.0104833
-0.00618116
-0.00581092
-0.0055348
-0.00569973
-0.00635832
-0.00296521
-0.00278141
-0.00277857
-0.0030543
-0.00348074
-0.000647414
-0.000525709
-0.000546435
-0.000738694
-0.0010019
-0.283351
-0.23647
-0.199284
-0.166372
-0.136524
-0.112749
-0.0944221
-0.0794344
-0.0704246
-0.0616354
-0.0599124
-0.055024
-0.0566771
-0.0542163
-0.0550903
-0.307406
-0.259408
-0.220626
-0.182686
-0.149551
-0.12261
-0.101552
-0.0842878
-0.0736249
-0.0633376
-0.0608183
-0.0550069
-0.0562841
-0.053942
-0.0544613
-0.314419
-0.265345
-0.225655
-0.187213
-0.154256
-0.126697
-0.10484
-0.0869538
-0.0753507
-0.0646453
-0.0611707
-0.0550657
-0.0557321
-0.0536985
-0.0538927
-0.310498
-0.258799
-0.218591
-0.181286
-0.150482
-0.124392
-0.103738
-0.086802
-0.0753091
-0.065054
-0.0608694
-0.0550138
-0.0550867
-0.0534863
-0.0533782
-0.293242
-0.241011
-0.202655
-0.167922
-0.140512
-0.117347
-0.0991668
-0.0841851
-0.0736653
-0.0644412
-0.0600438
-0.0547397
-0.0544076
-0.0532734
-0.0528653
-0.260138
-0.21207
-0.178352
-0.148179
-0.125674
-0.106712
-0.0920279
-0.0797416
-0.0707691
-0.0628895
-0.0588049
-0.0541623
-0.0536685
-0.0530297
-0.0523235
-0.199833
-0.163579
-0.143198
-0.120864
-0.106156
-0.0929624
-0.0828385
-0.0738203
-0.0669405
-0.0605569
-0.0571608
-0.0532263
-0.052773
-0.052658
-0.0516911
-0.122656
-0.100901
-0.0949014
-0.0844663
-0.0810431
-0.0757809
-0.0716797
-0.0666247
-0.0623673
-0.0576163
-0.055109
-0.0519279
-0.0516228
-0.05206
-0.0509683
-0.0381501
-0.0340405
-0.0421426
-0.0448969
-0.053771
-0.0568489
-0.0595528
-0.0586031
-0.0572269
-0.0542424
-0.052708
-0.0503144
-0.0502174
-0.0511946
-0.0501118
0.0978632
0.0539824
0.0210578
-0.00325461
-0.026759
-0.0392616
-0.0481602
-0.0507375
-0.0519869
-0.0506295
-0.0500898
-0.0484575
-0.0486307
-0.0500153
-0.0491121
0.10414
0.0713894
0.0434803
0.0164251
-0.00969079
-0.0274078
-0.0392802
-0.0442563
-0.0471177
-0.0470631
-0.0473746
-0.0464362
-0.0469106
-0.0485185
-0.0479115
-0.0590268
-0.0409997
-0.0273322
-0.0234114
-0.0256537
-0.0321853
-0.0376242
-0.0407604
-0.0433451
-0.0438203
-0.0446698
-0.0443229
-0.0451002
-0.0467375
-0.046408
-0.172824
-0.125919
-0.0876837
-0.0652367
-0.049921
-0.0435052
-0.0408603
-0.0399809
-0.0408967
-0.0410112
-0.0420761
-0.0421389
-0.0431638
-0.0445907
-0.0445132
-0.158689
-0.121426
-0.0943596
-0.0728739
-0.0575098
-0.0482472
-0.0419884
-0.0395115
-0.0386237
-0.0384112
-0.0394998
-0.0398206
-0.0410077
-0.0420522
-0.0421209
-0.105491
-0.0863083
-0.0732993
-0.058774
-0.0501236
-0.0428672
-0.038414
-0.0363329
-0.0355113
-0.0355197
-0.0368112
-0.0373662
-0.0386502
-0.0391809
-0.0391769
-0.0592236
-0.0516775
-0.0463931
-0.0398683
-0.0370439
-0.0327282
-0.0319285
-0.0307245
-0.0315112
-0.0320095
-0.03386
-0.0347333
-0.0359967
-0.0359274
-0.0356411
-0.028386
-0.026558
-0.0249268
-0.0236954
-0.023599
-0.0228155
-0.0245224
-0.0247714
-0.0271063
-0.0282744
-0.0306196
-0.0317781
-0.0330738
-0.0324086
-0.0316963
-0.0115897
-0.0114452
-0.0113475
-0.0130233
-0.0139227
-0.0155233
-0.0182732
-0.019993
-0.0230165
-0.0249145
-0.027282
-0.0283871
-0.0295702
-0.0284569
-0.0273518
-0.00802796
-0.00681058
-0.00566525
-0.0148321
-0.00651216
-0.0108158
-0.0147081
-0.0156264
-0.0197216
-0.0214945
-0.0238624
-0.024635
-0.0254795
-0.0241163
-0.0227888
-0.0106532
-0.00856062
-0.0077972
-0.00874527
-0.00936239
-0.0109156
-0.0128902
-0.014569
-0.0169107
-0.0183449
-0.0201517
-0.0205077
-0.0209928
-0.0196437
-0.0182989
-0.0126144
-0.0112541
-0.0105613
-0.0104462
-0.0106407
-0.0111714
-0.012059
-0.0128787
-0.0141982
-0.0148822
-0.0160891
-0.0160412
-0.016296
-0.0151231
-0.0140152
-0.0104215
-0.0104001
-0.0102381
-0.0100097
-0.00986518
-0.00987352
-0.0101843
-0.0103993
-0.0110974
-0.0112489
-0.0120047
-0.0117164
-0.0118684
-0.0109466
-0.010153
-0.00706977
-0.00757759
-0.00769863
-0.00757061
-0.00740298
-0.00727892
-0.00737401
-0.00736425
-0.00774088
-0.00766657
-0.00813982
-0.00779075
-0.00792328
-0.00726186
-0.00679364
-0.00384052
-0.00409495
-0.0042049
-0.0042456
-0.00426169
-0.00425128
-0.00434548
-0.00427973
-0.00453547
-0.00435107
-0.00470693
-0.00434716
-0.00453036
-0.00406395
-0.00387772
-0.00120634
-0.00132921
-0.0013641
-0.00136817
-0.00136615
-0.00133335
-0.00139161
-0.00130326
-0.00145431
-0.00128937
-0.00150747
-0.00128309
-0.00144569
-0.00123738
-0.00122996
-0.120052
-0.111516
-0.0999332
-0.091471
-0.083476
-0.0765729
-0.0705615
-0.0652856
-0.0616221
-0.0584947
-0.0576313
-0.0557614
-0.0579388
-0.0560316
-0.0586829
-0.147726
-0.132323
-0.114884
-0.102497
-0.091281
-0.0817624
-0.0740011
-0.0676427
-0.0631833
-0.0595516
-0.0581015
-0.0560239
-0.0577436
-0.0556498
-0.0579764
-0.176046
-0.154436
-0.130445
-0.113944
-0.0992751
-0.0867708
-0.0770916
-0.0694087
-0.0642005
-0.0600061
-0.0582694
-0.056005
-0.0574679
-0.0553035
-0.0572515
-0.207449
-0.176901
-0.148072
-0.12847
-0.109549
-0.093506
-0.0813792
-0.071717
-0.0654638
-0.0602519
-0.0584625
-0.0557322
-0.057199
-0.0549477
-0.0565206
-0.243919
-0.201905
-0.168367
-0.14416
-0.12052
-0.101284
-0.0866302
-0.0746904
-0.0672975
-0.060573
-0.058936
-0.0553036
-0.0569394
-0.0545624
-0.0557808
0.061328
0.0246849
-0.0148432
-0.0553734
-0.0944403
0.0681508
0.0257444
-0.01888
-0.0638561
-0.105146
0.0740898
0.023486
-0.0270322
-0.0752771
-0.118471
0.078185
0.0186182
-0.0383314
-0.0902858
-0.135671
0.0782373
0.00935001
-0.0547619
-0.111087
-0.158646
0.0728697
-0.00659943
-0.0789998
-0.1401
-0.189167
0.0587914
-0.03348
-0.114829
-0.181097
-0.230165
0.0315968
-0.0771915
-0.169128
-0.239027
-0.284699
-0.016759
-0.140256
-0.242801
-0.312422
-0.349482
-0.109664
-0.248721
-0.34185
-0.388507
-0.397686
0.19688
0.188468
0.16937
0.140532
0.101813
0.22034
0.209912
0.186376
0.153192
0.110514
0.247358
0.235235
0.208048
0.170675
0.124328
0.278553
0.264901
0.233897
0.190596
0.137423
0.31389
0.298223
0.262239
0.210788
0.147825
0.353031
0.334427
0.291709
0.229954
0.154729
0.394827
0.372261
0.320532
0.245865
0.155694
0.438102
0.410459
0.346982
0.256002
0.147153
0.476255
0.441966
0.36243
0.249908
0.118146
0.506727
0.464237
0.365876
0.224005
0.056509
0.0294712
0.0260637
0.0226587
0.019193
0.0156656
0.0376673
0.0333572
0.0289745
0.024608
0.0203334
0.0319235
0.0289787
0.0260846
0.0231969
0.0202
0.0404294
0.0366722
0.0328963
0.0294024
0.0261893
0.0383774
0.0358225
0.0332541
0.0307726
0.0284799
0.0478671
0.0447433
0.0416705
0.038553
0.03647
0.050207
0.0477878
0.045283
0.0426551
0.0409588
0.0603387
0.0575569
0.0555068
0.051877
0.0511082
0.0684795
0.0657215
0.0636494
0.0596861
0.0589659
0.0811084
0.0782067
0.0771896
0.0710578
0.0712121
0.0944118
0.0903487
0.0888338
0.0809889
0.0805133
0.111435
0.107112
0.105716
0.096394
0.0931988
0.129687
0.124309
0.119941
0.108727
0.0981296
0.150974
0.14564
0.138866
0.123526
0.107081
0.173628
0.16726
0.154411
0.132289
0.102937
0.0123971
0.0090924
0.00519568
0.000550113
-0.00499858
-0.0116579
-0.0197139
-0.029503
-0.041499
-0.0562788
-0.0742947
-0.0964663
-0.135629
-0.156584
-0.295694
0.0161027
0.0117107
0.00674863
0.00117416
-0.00511234
-0.0122288
-0.0202944
-0.0294918
-0.0401121
-0.0528117
-0.0684032
-0.0821594
-0.110881
-0.116437
-0.159317
0.0172896
0.0142703
0.0106215
0.00621961
0.000893075
-0.00555752
-0.0132869
-0.0224223
-0.03297
-0.0450591
-0.0602792
-0.0712032
-0.0957282
-0.101314
-0.137152
0.0224074
0.0183798
0.0138608
0.0088019
0.00306313
-0.00345546
-0.0108994
-0.0194452
-0.0290912
-0.0397173
-0.0544875
-0.0638779
-0.0865126
-0.0920534
-0.117028
0.0257398
0.0226856
0.0188872
0.0142415
0.0086294
0.00187922
-0.00616465
-0.0154311
-0.0257765
-0.0359795
-0.0505546
-0.0589867
-0.0792698
-0.0842229
-0.100712
0.0327325
0.0284465
0.0235287
0.0179305
0.0115698
0.0043232
-0.00392691
-0.013296
-0.0239611
-0.0338215
-0.048203
-0.0559099
-0.0736841
-0.0778632
-0.0898224
0.0375882
0.0337506
0.0289088
0.0229654
0.0158443
0.00757589
-0.00163283
-0.0117483
-0.0229952
-0.0325573
-0.0465946
-0.0536923
-0.0692414
-0.0729785
-0.0828423
0.0464526
0.0406343
0.0340782
0.0267225
0.0184054
0.00908311
-0.000955071
-0.0114457
-0.0230816
-0.0321479
-0.0455254
-0.0519695
-0.0658536
-0.0692968
-0.0780789
0.053949
0.047591
0.0398286
0.0307686
0.0206658
0.009829
-0.00129447
-0.0119794
-0.0238667
-0.0324156
-0.0450125
-0.0508099
-0.0633545
-0.0665594
-0.0744863
0.062725
0.0531615
0.0432927
0.0325613
0.0209301
0.00892761
-0.00306387
-0.0137601
-0.025561
-0.0335158
-0.0452437
-0.0504259
-0.0617337
-0.0646556
-0.0716775
0.0703495
0.0589034
0.0463264
0.0327893
0.019275
0.00640775
-0.00606111
-0.0164983
-0.0279597
-0.0352613
-0.0460316
-0.0506704
-0.0606999
-0.0632771
-0.069393
0.0761547
0.0607991
0.0458148
0.0304638
0.0157629
0.0024175
-0.0100211
-0.0199658
-0.0307205
-0.0372817
-0.0469813
-0.0511475
-0.0599533
-0.0622059
-0.0675241
0.0787949
0.0612136
0.0432835
0.0261093
0.0108664
-0.00244269
-0.0144316
-0.0237603
-0.033521
-0.0392825
-0.0478057
-0.05154
-0.0592737
-0.0612579
-0.0659785
0.0764286
0.0558858
0.0370354
0.0196656
0.00471326
-0.00798582
-0.0191232
-0.0276319
-0.0361699
-0.0411597
-0.0484585
-0.0518093
-0.0586489
-0.0604201
-0.0647087
0.0680186
0.0480041
0.0287915
0.0120746
-0.00209302
-0.0138417
-0.0239105
-0.0314035
-0.0386639
-0.0429618
-0.0490605
-0.0520708
-0.0581326
-0.059716
-0.0636522
0.0524686
0.0356997
0.019128
0.0039019
-0.00920225
-0.0198169
-0.0287387
-0.0350934
-0.0411305
-0.0447935
-0.0497273
-0.0523567
-0.0576837
-0.0590689
-0.0626779
0.0189035
0.00282498
-0.00605402
-0.0158935
-0.0241066
-0.0308773
-0.0368128
-0.0407921
-0.0449698
-0.0473712
-0.0510747
-0.0528143
-0.0574593
-0.0583662
-0.0617301
-0.0189572
-0.0320232
-0.0353426
-0.0407102
-0.0435612
-0.0457154
-0.0476131
-0.0484073
-0.0501288
-0.050744
-0.0531039
-0.0536489
-0.0576049
-0.0576957
-0.0608902
-0.0549984
-0.0618044
-0.0611185
-0.062294
-0.0609859
-0.0593082
-0.0577155
-0.0556836
-0.0550687
-0.0540121
-0.0550941
-0.0545287
-0.0578416
-0.0570653
-0.0601157
-0.0892277
-0.0879414
-0.0821409
-0.0788307
-0.074083
-0.0696398
-0.0654875
-0.0614569
-0.058994
-0.0566643
-0.056653
-0.0552603
-0.0579862
-0.0565087
-0.0593963
)
;

boundaryField
{
    outlet
    {
        type            fixedValue;
        value           uniform 0;
    }
    upperWall
    {
        type            symmetryPlane;
    }
    lowerWall
    {
        type            symmetryPlane;
    }
    inlet
    {
        type            zeroGradient;
    }
    cylinder
    {
        type            zeroGradient;
    }
    frontAndBack
    {
        type            empty;
    }
}


// ************************************************************************* //
