/*--------------------------------*- C++ -*----------------------------------*\
| =========                 |                                                 |
| \\      /  F ield         | OpenFOAM: The Open Source CFD Toolbox           |
|  \\    /   O peration     | Version:  2512                                  |
|   \\  /    A nd           | Website:  www.openfoam.com                      |
|    \\/     M anipulation  |                                                 |
\*---------------------------------------------------------------------------*/
FoamFile
{
    version     2.0;
    format      ascii;
    arch        "LSB;label=32;scalar=64";
    class       volScalarField;
    location    "128";
    object      p;
}
// * * * * * * * * * * * * * * * * * * * * * * * * * * * * * * * * * * * * * //

dimensions      [0 2 -2 0 0 0 0];

internalField   nonuniform List<scalar> 
13248
(
-0.278681
-0.28025
-0.2801
-0.278805
-0.276344
-0.272435
-0.266856
-0.259531
-0.250608
-0.240398
-0.229357
-0.218046
-0.207042
-0.19683
-0.187724
-0.179836
-0.173089
-0.167319
-0.162223
-0.157738
-0.153367
-0.149305
-0.144547
-0.138917
-0.282597
-0.283285
-0.282722
-0.281275
-0.27887
-0.275186
-0.269973
-0.2631
-0.254603
-0.244713
-0.233841
-0.222508
-0.211232
-0.200434
-0.190375
-0.18117
-0.172819
-0.165246
-0.158341
-0.15192
-0.145747
-0.139619
-0.13306
-0.126614
-0.28808
-0.287694
-0.286409
-0.284447
-0.28171
-0.277915
-0.272747
-0.26596
-0.257483
-0.247483
-0.23635
-0.224596
-0.21273
-0.201169
-0.190199
-0.179979
-0.170542
-0.161853
-0.15375
-0.14613
-0.138737
-0.131539
-0.124362
-0.117403
-0.294757
-0.293196
-0.290982
-0.288221
-0.284896
-0.280706
-0.275224
-0.268065
-0.259081
-0.24845
-0.236619
-0.224158
-0.211611
-0.199405
-0.187815
-0.176957
-0.166844
-0.157398
-0.148532
-0.140141
-0.13208
-0.124384
-0.11676
-0.10968
-0.302822
-0.300035
-0.296774
-0.293141
-0.289059
-0.28416
-0.277861
-0.269694
-0.259569
-0.24781
-0.234997
-0.221763
-0.208638
-0.195981
-0.18398
-0.1727
-0.162124
-0.152205
-0.142864
-0.134021
-0.125596
-0.117552
-0.109772
-0.102573
-0.31278
-0.308708
-0.304421
-0.299847
-0.294781
-0.288679
-0.280856
-0.270947
-0.259113
-0.245906
-0.232012
-0.218038
-0.204413
-0.191383
-0.17906
-0.167465
-0.156576
-0.146337
-0.136689
-0.127569
-0.118913
-0.110702
-0.102827
-0.0955427
-0.325082
-0.319638
-0.314311
-0.30868
-0.302221
-0.294205
-0.284058
-0.271773
-0.257869
-0.243083
-0.228097
-0.213402
-0.199292
-0.185908
-0.173292
-0.161436
-0.150302
-0.139841
-0.13
-0.120722
-0.111962
-0.103662
-0.0957841
-0.0884762
-0.339918
-0.33302
-0.326582
-0.319602
-0.311096
-0.300316
-0.287121
-0.272042
-0.255916
-0.239533
-0.223463
-0.208041
-0.193424
-0.179663
-0.166753
-0.154657
-0.14333
-0.132716
-0.12276
-0.113409
-0.104606
-0.0963035
-0.0884841
-0.0811668
-0.357147
-0.34875
-0.341026
-0.332168
-0.320743
-0.306356
-0.289606
-0.271559
-0.253216
-0.235276
-0.218134
-0.201962
-0.186808
-0.172651
-0.159446
-0.147135
-0.135655
-0.124943
-0.114936
-0.105575
-0.0968018
-0.0885677
-0.0808534
-0.0735875
-0.376216
-0.366337
-0.357006
-0.345477
-0.330168
-0.311509
-0.29097
-0.269982
-0.249512
-0.230074
-0.211873
-0.194943
-0.179238
-0.164684
-0.1512
-0.138703
-0.127115
-0.11636
-0.106364
-0.0970592
-0.0883798
-0.0802768
-0.0727036
-0.0655342
-0.396168
-0.384847
-0.373399
-0.358194
-0.338103
-0.314777
-0.290443
-0.266647
-0.244177
-0.223319
-0.204103
-0.186442
-0.170218
-0.155307
-0.141594
-0.128971
-0.11734
-0.106612
-0.0967021
-0.0875333
-0.0790366
-0.0711537
-0.0638004
-0.0568563
-0.41566
-0.402948
-0.388663
-0.368716
-0.343146
-0.315009
-0.287023
-0.260626
-0.23633
-0.214187
-0.194065
-0.175774
-0.159129
-0.143961
-0.130119
-0.11747
-0.105898
-0.0952958
-0.0855692
-0.0766331
-0.0684196
-0.0608672
-0.0538759
-0.0473588
-0.475234
-0.4771
-0.478141
-0.480574
-0.485152
-0.49183
-0.500361
-0.510378
-0.521356
-0.532536
-0.542955
-0.551581
-0.557843
-0.560574
-0.558921
-0.552316
-0.540563
-0.523946
-0.503326
-0.480182
-0.456443
-0.434023
-0.414802
-0.401171
-0.442531
-0.444621
-0.444928
-0.445718
-0.447841
-0.451304
-0.455893
-0.461277
-0.466966
-0.472287
-0.476525
-0.479117
-0.479423
-0.476862
-0.471047
-0.46189
-0.449669
-0.435067
-0.419173
-0.403458
-0.389742
-0.379655
-0.374145
-0.374513
-0.411834
-0.413853
-0.413438
-0.412731
-0.412593
-0.413068
-0.413965
-0.414978
-0.415659
-0.415582
-0.414296
-0.41136
-0.406447
-0.399386
-0.390233
-0.379331
-0.367347
-0.355254
-0.344245
-0.335515
-0.330854
-0.331415
-0.337637
-0.348726
-0.384205
-0.385985
-0.385019
-0.383186
-0.381272
-0.379327
-0.377178
-0.374615
-0.371285
-0.366862
-0.361087
-0.353789
-0.344934
-0.334686
-0.323447
-0.311881
-0.300916
-0.291713
-0.285577
-0.281487
-0.284346
-0.292421
-0.30669
-0.324019
-0.360034
-0.361548
-0.360289
-0.357799
-0.354712
-0.351065
-0.346746
-0.341511
-0.335188
-0.327582
-0.318599
-0.308273
-0.296814
-0.284629
-0.272346
-0.2608
-0.25095
-0.243902
-0.240604
-0.241705
-0.248547
-0.260066
-0.277845
-0.297397
-0.339226
-0.340573
-0.339297
-0.336594
-0.332901
-0.328199
-0.322394
-0.315348
-0.306962
-0.297183
-0.28606
-0.273794
-0.260762
-0.247524
-0.234801
-0.223532
-0.214642
-0.209061
-0.207743
-0.210841
-0.219625
-0.232119
-0.250207
-0.269311
-0.321458
-0.322826
-0.321756
-0.31917
-0.3153
-0.31004
-0.303283
-0.294997
-0.285185
-0.273921
-0.261384
-0.247891
-0.233935
-0.220178
-0.207406
-0.19651
-0.188402
-0.183812
-0.18368
-0.18769
-0.197244
-0.20983
-0.227436
-0.245159
-0.306452
-0.308039
-0.307295
-0.304979
-0.301166
-0.295642
-0.2883
-0.279168
-0.268359
-0.25607
-0.242593
-0.228374
-0.213988
-0.200155
-0.1877
-0.177483
-0.170359
-0.166956
-0.168018
-0.173111
-0.183203
-0.195689
-0.211993
-0.227163
-0.294175
-0.296104
-0.295685
-0.293637
-0.289951
-0.284341
-0.276696
-0.267079
-0.255692
-0.24284
-0.228928
-0.214539
-0.20032
-0.187051
-0.175567
-0.166674
-0.161082
-0.159241
-0.161429
-0.167268
-0.176666
-0.187865
-0.200673
-0.211509
-0.284927
-0.28717
-0.286985
-0.285133
-0.281598
-0.27609
-0.26848
-0.258857
-0.247485
-0.234714
-0.221163
-0.207382
-0.194087
-0.182046
-0.172011
-0.164622
-0.160344
-0.159355
-0.161538
-0.166443
-0.173398
-0.181384
-0.189107
-0.194504
-0.279191
-0.281551
-0.281496
-0.279827
-0.276567
-0.271429
-0.264284
-0.255204
-0.244568
-0.232694
-0.220022
-0.20728
-0.195162
-0.184355
-0.175467
-0.168929
-0.164912
-0.163348
-0.163857
-0.165906
-0.168942
-0.172195
-0.175055
-0.176185
-0.277241
-0.279385
-0.27936
-0.27791
-0.275057
-0.270524
-0.264187
-0.256117
-0.246364
-0.235399
-0.223714
-0.211923
-0.200671
-0.190546
-0.181986
-0.175228
-0.170214
-0.166786
-0.164429
-0.162879
-0.161586
-0.16038
-0.159404
-0.158259
-0.394828
-0.401165
-0.418741
-0.443153
-0.468084
-0.488051
-0.489776
-0.468244
-0.417928
-0.348639
-0.278606
-0.222119
-0.184352
-0.163823
-0.157875
-0.163812
-0.181322
-0.214851
-0.26662
-0.322244
-0.354683
-0.34264
-0.294958
-0.235075
-0.181819
-0.144777
-0.125473
-0.120421
-0.129986
-0.159417
-0.20641
-0.250777
-0.264833
-0.237013
-0.187814
-0.140652
-0.108395
-0.0922591
-0.0934618
-0.109487
-0.125697
-0.125285
-0.108757
-0.0895595
-0.0763763
-0.0713892
-0.0747118
-0.0800633
-0.0797909
-0.0711809
-0.0597699
-0.0485873
-0.0447595
-0.0405448
-0.0350755
-0.0265399
-0.0264123
-0.0247995
-0.0246846
-0.00649166
-0.386323
-0.407521
-0.434548
-0.462644
-0.48633
-0.500381
-0.503947
-0.481986
-0.430339
-0.35943
-0.287565
-0.228672
-0.187598
-0.162611
-0.151676
-0.152674
-0.164447
-0.190206
-0.232618
-0.280849
-0.310375
-0.302251
-0.263587
-0.21307
-0.167434
-0.136161
-0.121556
-0.120882
-0.135505
-0.171265
-0.224733
-0.274374
-0.290593
-0.259971
-0.204994
-0.150641
-0.111211
-0.0885101
-0.0830768
-0.0923927
-0.10359
-0.102316
-0.0898982
-0.0768204
-0.0699236
-0.0718232
-0.0815185
-0.0918428
-0.0928088
-0.081894
-0.066426
-0.0487729
-0.0392154
-0.0300148
-0.0239187
-0.0199877
-0.0250173
-0.03248
-0.033926
-0.00883975
-0.371921
-0.403681
-0.436655
-0.466289
-0.48873
-0.500698
-0.500676
-0.477572
-0.426341
-0.35638
-0.285601
-0.227338
-0.185446
-0.158039
-0.142754
-0.138453
-0.144197
-0.161747
-0.193986
-0.233571
-0.260763
-0.257516
-0.228567
-0.187521
-0.149371
-0.123883
-0.113906
-0.117362
-0.136635
-0.177781
-0.236387
-0.290476
-0.30972
-0.278164
-0.218827
-0.158339
-0.112543
-0.0840723
-0.0727759
-0.0762372
-0.0831186
-0.0808992
-0.0716835
-0.0638513
-0.0628835
-0.0718843
-0.0882367
-0.103602
-0.105703
-0.092114
-0.072615
-0.0488756
-0.033744
-0.0196532
-0.0129274
-0.0135076
-0.0233951
-0.0397986
-0.0429641
-0.0112244
-0.352237
-0.388467
-0.424631
-0.454955
-0.473296
-0.484553
-0.482155
-0.457312
-0.406868
-0.340638
-0.27461
-0.21964
-0.178755
-0.150553
-0.132717
-0.123718
-0.123327
-0.13289
-0.155203
-0.18589
-0.210104
-0.211684
-0.191851
-0.159569
-0.128477
-0.108373
-0.102521
-0.109458
-0.132104
-0.176842
-0.239644
-0.297833
-0.320831
-0.290434
-0.228601
-0.163365
-0.112373
-0.0790347
-0.0628689
-0.0614601
-0.0646646
-0.0613817
-0.0543295
-0.0507617
-0.055221
-0.0713395
-0.0946126
-0.115171
-0.118354
-0.101679
-0.0781987
-0.0488684
-0.0284671
-0.0096845
-0.00221445
-0.00715524
-0.0215237
-0.0465563
-0.0516181
-0.0136566
-0.325113
-0.361066
-0.39877
-0.434356
-0.448387
-0.456491
-0.451674
-0.425662
-0.377469
-0.317214
-0.258058
-0.208031
-0.169266
-0.141064
-0.121767
-0.109859
-0.104489
-0.106613
-0.119451
-0.141463
-0.161937
-0.169648
-0.154788
-0.130318
-0.105676
-0.0902655
-0.0878496
-0.0975182
-0.122163
-0.168533
-0.233831
-0.295432
-0.322704
-0.296149
-0.234071
-0.165738
-0.11093
-0.0736667
-0.0535318
-0.0481886
-0.0484195
-0.0440035
-0.0380753
-0.0376497
-0.0467791
-0.069935
-0.100421
-0.126332
-0.130618
-0.110481
-0.0830923
-0.0487465
-0.0234899
-0.000308471
0.00813499
-0.000979086
-0.0193725
-0.0525828
-0.0597218
-0.0161338
-0.294101
-0.325991
-0.359574
-0.3837
-0.409026
-0.418066
-0.411737
-0.385621
-0.341689
-0.289479
-0.238583
-0.19443
-0.158652
-0.130972
-0.110643
-0.0966158
-0.0879356
-0.0847579
-0.0892838
-0.102643
-0.117714
-0.12593
-0.118238
-0.101038
-0.0821022
-0.0706607
-0.0709701
-0.082594
-0.107992
-0.153881
-0.219196
-0.283594
-0.315112
-0.294705
-0.234779
-0.165457
-0.108421
-0.0682279
-0.0449793
-0.036511
-0.0344409
-0.0289134
-0.0231151
-0.0247009
-0.037674
-0.0675483
-0.105265
-0.136774
-0.142319
-0.118406
-0.0871996
-0.0485002
-0.0189113
0.00829195
0.0180197
0.00495704
-0.016914
-0.0577191
-0.0671207
-0.0186365
-0.266137
-0.292733
-0.325545
-0.350095
-0.367898
-0.373823
-0.365785
-0.341341
-0.30397
-0.261056
-0.218787
-0.180656
-0.148199
-0.121594
-0.100585
-0.0848074
-0.0735168
-0.0664252
-0.0647892
-0.0702774
-0.0795616
-0.0868684
-0.0844358
-0.0729044
-0.0589297
-0.0508192
-0.0530495
-0.0659163
-0.0910872
-0.134394
-0.196895
-0.261762
-0.29817
-0.285245
-0.230442
-0.162593
-0.105086
-0.0630086
-0.0373783
-0.0264192
-0.0226574
-0.0161561
-0.00971399
-0.0122971
-0.0279244
-0.0639539
-0.10893
-0.146239
-0.153262
-0.125381
-0.0904581
-0.0481
-0.0147936
0.0159539
0.0273324
0.0105909
-0.0141563
-0.0618392
-0.0736874
-0.0211287
-0.242653
-0.26108
-0.285521
-0.309346
-0.32191
-0.324888
-0.316668
-0.296383
-0.267239
-0.233827
-0.199785
-0.16751
-0.138505
-0.113401
-0.0923107
-0.0752984
-0.0620255
-0.052009
-0.0457892
-0.0448617
-0.0484552
-0.0533549
-0.0540156
-0.0465084
-0.0371817
-0.0318992
-0.0353512
-0.048671
-0.0726533
-0.112336
-0.169843
-0.23266
-0.273447
-0.269346
-0.221577
-0.157322
-0.101
-0.0581662
-0.0308135
-0.0178487
-0.0128891
-0.00573647
0.00189093
-0.000716649
-0.0178991
-0.0591864
-0.110809
-0.154213
-0.163024
-0.131273
-0.092822
-0.0474924
-0.0111471
0.0225546
0.0359607
0.0158558
-0.0111221
-0.0648438
-0.0793153
-0.0235584
-0.219579
-0.229077
-0.247892
-0.264901
-0.273065
-0.274998
-0.269176
-0.255051
-0.234388
-0.209486
-0.182551
-0.155512
-0.129841
-0.106453
-0.0857343
-0.0680217
-0.053384
-0.0413975
-0.032098
-0.0264163
-0.0247753
-0.0258958
-0.0270639
-0.0221171
-0.017562
-0.0147341
-0.0187485
-0.0319206
-0.0543974
-0.0891976
-0.139976
-0.199485
-0.242719
-0.250081
-0.20899
-0.149853
-0.0960863
-0.0536588
-0.0252087
-0.0106739
-0.00486098
0.00247872
0.0114992
0.00968877
-0.00759307
-0.0527329
-0.111054
-0.160521
-0.171404
-0.136097
-0.0942667
-0.0466588
-0.00797573
0.0280193
0.0438315
0.0207218
-0.00788317
-0.0667173
-0.083915
-0.0258614
-0.194749
-0.198452
-0.211784
-0.22248
-0.228394
-0.230937
-0.228458
-0.220045
-0.206197
-0.187981
-0.166875
-0.144444
-0.121976
-0.100484
-0.0805928
-0.0627435
-0.0472751
-0.034048
-0.0228461
-0.0140998
-0.00822907
-0.00518847
-0.00400469
-0.001262
-0.000887503
-7.6131e-06
-0.00419458
-0.0166971
-0.0371963
-0.0673044
-0.111118
-0.163852
-0.207986
-0.220382
-0.190367
-0.13989
-0.0904342
-0.0496957
-0.0206707
-0.00488413
0.00161672
0.00868629
0.0189692
0.018562
0.00227217
-0.0450706
-0.108747
-0.16412
-0.17764
-0.139528
-0.09478
-0.0457029
-0.00543255
0.0322551
0.0508434
0.0251338
-0.00450098
-0.0674036
-0.0873664
-0.0279744
-0.171838
-0.173935
-0.18357
-0.190347
-0.194858
-0.197946
-0.197849
-0.193396
-0.184358
-0.171125
-0.154626
-0.136042
-0.116476
-0.0968891
-0.0780461
-0.0604774
-0.0445774
-0.030483
-0.0180253
-0.00733851
0.00145888
0.00794262
0.0118743
0.0188399
0.0136372
0.0124358
0.00814521
-0.00338118
-0.0217038
-0.0467145
-0.082575
-0.129973
-0.173754
-0.192013
-0.173312
-0.130612
-0.0854443
-0.0469893
-0.0176817
-0.000589398
0.00674587
0.0130215
0.0243264
0.0261008
0.0121302
-0.0355082
-0.104525
-0.165906
-0.181952
-0.142084
-0.0947187
-0.0446593
-0.0035482
0.0350575
0.056973
0.0291302
-0.00106926
-0.066988
-0.0894381
-0.0298493
-0.156363
-0.159167
-0.16407
-0.166253
-0.168252
-0.170184
-0.170586
-0.16836
-0.162824
-0.153808
-0.141647
-0.12698
-0.110601
-0.0933299
-0.0759112
-0.0590176
-0.0431618
-0.0286058
-0.0154093
-0.00378752
0.00640339
0.0149935
0.0201159
0.0159036
0.0225868
0.0214927
0.0176671
0.007541
-0.00941852
-0.0301536
-0.0587126
-0.0983711
-0.136891
-0.153453
-0.146485
-0.116124
-0.0774749
-0.0425425
-0.0144203
0.00329063
0.0115487
0.0168589
0.0277898
0.0310948
0.020136
-0.0251115
-0.0969824
-0.163414
-0.18259
-0.142624
-0.0935325
-0.0424483
-0.00118556
0.0371145
0.0619342
0.0326154
0.00235704
-0.0653649
-0.0903589
-0.031349
-0.145536
-0.154784
-0.156585
-0.155754
-0.15482
-0.154243
-0.153207
-0.150427
-0.144937
-0.136393
-0.125036
-0.111455
-0.0963738
-0.0805377
-0.0645475
-0.0489041
-0.0340426
-0.0201685
-0.00734733
0.00411249
0.0143642
0.02364
0.030463
0.0320529
0.0335573
0.0299164
0.0251929
0.0172236
0.00442999
-0.0120613
-0.0360126
-0.0710672
-0.108993
-0.131194
-0.128898
-0.100336
-0.0647741
-0.0333543
-0.00786578
0.0084707
0.016308
0.0210217
0.0320261
0.0379246
0.0295309
-0.0128893
-0.086984
-0.15969
-0.183148
-0.140636
-0.0891191
-0.0382431
0.0022312
0.0398041
0.0666113
0.0358007
0.00578875
-0.0627423
-0.0904951
-0.0323789
-0.13057
-0.141307
-0.144104
-0.141802
-0.138604
-0.13612
-0.13396
-0.130804
-0.125534
-0.117702
-0.107472
-0.0953821
-0.0820527
-0.0680414
-0.0537897
-0.0396764
-0.02603
-0.0130299
-0.000831455
0.0101335
0.0199254
0.0288433
0.0357661
0.0383547
0.0382678
0.0345757
0.0297456
0.0229214
0.0126895
-0.000413196
-0.0194007
-0.0496297
-0.08577
-0.108352
-0.106698
-0.0823937
-0.0513638
-0.0242493
-0.00213403
0.0126429
0.0201838
0.0244332
0.0351729
0.0411757
0.0352459
-0.00406997
-0.0783409
-0.15444
-0.180443
-0.13593
-0.0831367
-0.0335466
0.00544417
0.0418354
0.0693426
0.0378223
0.00842082
-0.0596714
-0.0897763
-0.0330251
-0.115841
-0.127452
-0.130562
-0.127797
-0.123604
-0.120126
-0.117327
-0.114068
-0.109226
-0.102264
-0.0932211
-0.0825112
-0.0706418
-0.0580627
-0.0451234
-0.0321459
-0.0194357
-0.00722811
0.0043892
0.0150269
0.0244897
0.0330075
0.0399795
0.0434497
0.0426207
0.0381205
0.0330001
0.0271359
0.0185382
0.00714727
-0.00855038
-0.0324815
-0.0618441
-0.0831356
-0.0846166
-0.0654598
-0.0392565
-0.0159541
0.00318737
0.0163967
0.0234084
0.0272339
0.0377112
0.043857
0.0387276
0.0014815
-0.0714081
-0.146536
-0.173675
-0.129144
-0.0761775
-0.0285401
0.0084656
0.0430779
0.0711646
0.0388943
0.0102408
-0.0560613
-0.0879523
-0.0333184
-0.102649
-0.113201
-0.116414
-0.113978
-0.109671
-0.105717
-0.102418
-0.0989796
-0.094387
-0.0880422
-0.0798857
-0.0702412
-0.0595615
-0.0482445
-0.0365756
-0.024824
-0.0131963
-0.00191552
0.00887095
0.0188506
0.0278037
0.0358139
0.0424612
0.0460603
0.0454212
0.0409018
0.0360303
0.0314119
0.0239818
0.0134972
0.00149555
-0.0141945
-0.0376406
-0.0592516
-0.0631982
-0.0485832
-0.027083
-0.00757174
0.0082982
0.0196588
0.0259734
0.0294657
0.0394615
0.0457805
0.0411753
0.00591601
-0.0629959
-0.1346
-0.162593
-0.119866
-0.0680104
-0.0229701
0.0114836
0.0435014
0.0720515
0.0392574
0.0117354
-0.0515787
-0.0849422
-0.0331694
-0.089349
-0.0991838
-0.10253
-0.100543
-0.0964125
-0.0922826
-0.0886782
-0.0851095
-0.0807437
-0.0750139
-0.0677872
-0.0592706
-0.0498105
-0.0397402
-0.0292831
-0.0186521
-0.00802072
0.00240611
0.0124584
0.0218187
0.0302378
0.0377
0.0438538
0.0474408
0.0471691
0.0431569
0.038875
0.035507
0.0293479
0.0207503
0.013552
0.00413903
-0.0162422
-0.0374343
-0.0428102
-0.0325584
-0.015915
0.0001251
0.0130848
0.022567
0.0280066
0.0311503
0.0404614
0.0466878
0.0426915
0.0106942
-0.0516824
-0.118363
-0.146676
-0.107853
-0.0588886
-0.0171771
0.0143605
0.0431091
0.0718322
0.0390661
0.0132288
-0.0461339
-0.0806749
-0.0324976
-0.0765342
-0.0858718
-0.0892189
-0.087575
-0.0837349
-0.079684
-0.076041
-0.0725228
-0.0684701
-0.0633559
-0.0569757
-0.0494313
-0.0409943
-0.0319611
-0.022538
-0.0129242
-0.00327259
0.00624576
0.0154619
0.024074
0.0318544
0.0387574
0.044461
0.0478338
0.0481114
0.0450424
0.0416107
0.0397299
0.0361638
0.0310432
0.0271229
0.0197229
0.000875357
-0.0185442
-0.0242854
-0.0177165
-0.00552956
0.00730549
0.0176112
0.0251364
0.0296139
0.0323488
0.0407818
0.0465363
0.0434418
0.0158853
-0.0383753
-0.0984612
-0.126279
-0.093114
-0.0490215
-0.0113434
0.0170751
0.0419606
0.0703664
0.0383483
0.0147247
-0.0398334
-0.0751356
-0.0312327
-0.0648283
-0.0733128
-0.0764878
-0.0751557
-0.071713
-0.0679437
-0.0644713
-0.0611307
-0.0573991
-0.0528089
-0.0471413
-0.0404485
-0.032952
-0.0249159
-0.0165253
-0.00793246
0.000744399
0.00935675
0.0177533
0.0256481
0.032813
0.0391575
0.0444556
0.0477376
0.048529
0.0466449
0.0443129
0.0438236
0.0433202
0.0420435
0.0395324
0.0316399
0.0143816
-0.00214
-0.00773958
-0.00434883
0.00370833
0.0135859
0.0217633
0.0274629
0.0309838
0.0331959
0.0406359
0.0455413
0.0432257
0.0204118
-0.0244544
-0.0760872
-0.102339
-0.0759199
-0.0386904
-0.00578677
0.0195121
0.0401876
0.0675744
0.0370227
0.0161689
-0.0328041
-0.0683346
-0.0293204
-0.0538255
-0.0614056
-0.0644285
-0.0634403
-0.0604572
-0.0570571
-0.0538428
-0.0507339
-0.0473233
-0.0432173
-0.0382141
-0.0323315
-0.0257345
-0.0186335
-0.0111838
-0.00351698
0.00425871
0.0120038
0.0195878
0.0267556
0.0333055
0.0391029
0.0440143
0.0472522
0.0485064
0.0478142
0.0466889
0.0473474
0.0489789
0.0500635
0.0481626
0.0401573
0.0254076
0.0118807
0.00625696
0.00711665
0.0117748
0.0190228
0.0254898
0.0295929
0.0322648
0.0338576
0.0402485
0.0440238
0.0420744
0.0237852
-0.0108839
-0.0528573
-0.0765994
-0.057022
-0.0282198
-0.000709475
0.0216073
0.0379827
0.0633668
0.0350734
0.0176426
-0.0251576
-0.0603231
-0.0267288
-0.0434218
-0.0503105
-0.0532263
-0.0525466
-0.0499911
-0.0469637
-0.0440462
-0.041218
-0.0381584
-0.0345331
-0.0301558
-0.0250164
-0.0192335
-0.0129786
-0.00639389
0.000397913
0.00730705
0.0142118
0.0210045
0.0274621
0.0334182
0.0387093
0.0432584
0.0464951
0.0481202
0.048429
0.0483754
0.0497109
0.0521071
0.0539689
0.0526565
0.045765
0.0339932
0.0229963
0.0173465
0.016507
0.0186053
0.0235792
0.0286685
0.0315121
0.0335085
0.0345283
0.039852
0.0423821
0.0404526
0.0263071
0.0015623
-0.0307809
-0.0513172
-0.0375957
-0.0179474
0.00379388
0.0233235
0.0356761
0.0581219
0.0327086
0.0193035
-0.017047
-0.0512047
-0.0234497
-0.0339149
-0.0401455
-0.0428917
-0.0424422
-0.0402733
-0.0376253
-0.0350407
-0.0325296
-0.0298334
-0.0266666
-0.0228613
-0.0183935
-0.0133535
-0.00788511
-0.00211178
0.00385972
0.00995787
0.0160738
0.0221161
0.0278946
0.0332754
0.038091
0.0422962
0.0455622
0.0474344
0.0484849
0.0492477
0.0508813
0.0532499
0.0550846
0.0541784
0.0488054
0.0398025
0.0309814
0.0255554
0.0238161
0.0242294
0.0273568
0.031277
0.0332071
0.0346424
0.0352444
0.039605
0.0411434
0.0392322
0.0283911
0.0121039
-0.0116333
-0.0285999
-0.0191492
-0.00823787
0.00779849
0.0247263
0.0338537
0.0522509
0.030377
0.0212862
-0.00871208
-0.0411516
-0.0195131
-0.0253402
-0.0308269
-0.0333451
-0.0330961
-0.0313061
-0.0290429
-0.0267977
-0.0246037
-0.0222592
-0.0195234
-0.0162456
-0.012395
-0.00803987
-0.00329739
0.00172896
0.00694496
0.0122899
0.0176681
0.0230055
0.0281426
0.0329697
0.0373297
0.0411676
0.0442157
0.0464526
0.0480204
0.0493165
0.0510145
0.0530659
0.0545899
0.0538723
0.049851
0.0431498
0.036251
0.0313566
0.0292753
0.0287252
0.0304402
0.0333225
0.0346462
0.0356251
0.0359673
0.0394443
0.0404446
0.038979
0.0300359
0.0201531
0.00352321
-0.010017
-0.0034149
0.000489249
0.011427
0.0258994
0.0331721
0.0467042
0.0288819
0.0236639
-0.000519099
-0.0304699
-0.0150317
-0.0174608
-0.0222822
-0.0246101
-0.0245521
-0.0231107
-0.0212001
-0.0192707
-0.0173798
-0.0153721
-0.0130408
-0.0102495
-0.00696251
-0.00323009
0.000852161
0.0051955
0.00971712
0.0143657
0.0190616
0.0237438
0.0282817
0.0325842
0.0365146
0.0400109
0.0428937
0.0452797
0.0471276
0.048703
0.0503467
0.0520311
0.0531956
0.0525913
0.0496407
0.0447445
0.0394742
0.0352878
0.0331856
0.03218
0.0329045
0.0348854
0.0357916
0.0364219
0.0366281
0.0392756
0.039679
0.0332212
0.031214
0.0257443
0.0143351
0.00363084
0.00836346
0.00793926
0.0147855
0.0269689
0.0337577
0.0426114
0.0292576
0.0263657
0.00691752
-0.019781
-0.0102723
-0.0102665
-0.0145486
-0.0167148
-0.0168032
-0.0156487
-0.0140477
-0.012413
-0.0108123
-0.00912098
-0.00716118
-0.00481108
-0.00203292
0.00113714
0.00462093
0.00834223
0.01223
0.0162414
0.0203116
0.0243902
0.0283727
0.0321832
0.0357079
0.0388936
0.041636
0.0439879
0.0459241
0.0475899
0.0491273
0.050492
0.0513573
0.0508716
0.0487325
0.0452026
0.0412619
0.0378309
0.0358726
0.0347157
0.0348103
0.0360502
0.0366385
0.0370217
0.0371286
0.0391201
0.0394304
0.035122
0.0332516
0.0297475
0.0215804
0.0130322
0.0159533
0.0140925
0.0179411
0.028039
0.03522
0.0405944
0.0321399
0.0291224
0.0128577
-0.010053
-0.00568942
-0.00386483
-0.00763
-0.00959181
-0.00976852
-0.00886039
-0.00754663
-0.00618952
-0.00485734
-0.00345323
-0.00182836
0.000125139
0.00244692
0.0051116
0.00805597
0.0112151
0.0145298
0.0179632
0.0214638
0.0249901
0.0284591
0.03181
0.0349487
0.0378315
0.0403815
0.0426253
0.0445281
0.0461649
0.0475766
0.0487
0.0493547
0.0490036
0.0474785
0.0449604
0.0420656
0.0393405
0.0376175
0.0364727
0.0362084
0.0368839
0.0372178
0.0374408
0.0374472
0.0389469
0.0393087
0.0368109
0.0353662
0.0325947
0.0263399
0.0195388
0.0211073
0.0190641
0.0208423
0.0289766
0.0365239
0.0400238
0.0361129
0.0312221
0.0166978
-0.00226309
-0.00182115
0.00183393
-0.00140635
-0.00315582
-0.00340977
-0.00272865
-0.00167502
-0.000564662
0.000529104
0.00167671
0.00300276
0.00460374
0.00652001
0.00873448
0.0111972
0.0138534
0.016654
0.0195668
0.0225518
0.0255757
0.0285728
0.0314951
0.034264
0.0368454
0.0391735
0.0412549
0.0430503
0.0445912
0.0458719
0.0468283
0.0473541
0.0471377
0.0460821
0.0443039
0.042212
0.0400982
0.0386506
0.0376004
0.0371551
0.0374369
0.0375665
0.0376854
0.0376129
0.038711
0.0391313
0.0379114
0.0366835
0.0342907
0.0293281
0.0239893
0.0245206
0.0228666
0.0234021
0.0296641
0.0368247
0.0396839
0.0387203
0.0317982
0.018304
0.00304452
0.000754647
0.00700791
0.00419259
0.00260212
0.00227896
0.0027737
0.00361031
0.00450736
0.00538955
0.00630958
0.00737263
0.00866414
0.0102239
0.0120417
0.0140787
0.0162887
0.0186311
0.0210786
0.0235999
0.0261694
0.0287349
0.0312584
0.0336738
0.0359547
0.038042
0.0399331
0.0415814
0.0429953
0.0441484
0.0449892
0.0454472
0.0453522
0.0446564
0.0434178
0.0419353
0.040333
0.0391522
0.0382357
0.037716
0.0377437
0.0377192
0.0377538
0.0376312
0.0383841
0.038719
0.0379212
0.0369751
0.0350196
0.0311165
0.0268929
0.0267014
0.0255224
0.025456
0.0299503
0.0360681
0.0387069
0.0386357
0.0307889
0.0184955
0.0061149
0.00216475
0.011594
0.00914221
0.00771337
0.00736021
0.00771
0.00836026
0.00906775
0.00976241
0.0104837
0.0113187
0.0123421
0.0135919
0.0150636
0.0167272
0.0185443
0.0204815
0.0225162
0.024624
0.0267848
0.0289573
0.031112
0.033194
0.0351803
0.037018
0.0387053
0.0401885
0.0414637
0.0424984
0.043254
0.0436818
0.0436869
0.0432639
0.0424199
0.0413973
0.0402159
0.0392646
0.0384915
0.0379601
0.0378327
0.0377025
0.0376604
0.0375126
0.0379689
0.038196
0.0376039
0.0366553
0.0350868
0.0320876
0.0286761
0.0280197
0.0271931
0.0269134
0.0298495
0.0345731
0.0369856
0.0366068
0.0290092
0.0181381
0.00774186
0.00278258
0.0156326
0.0135342
0.0122739
0.0119017
0.012123
0.0126082
0.0131505
0.0136838
0.0142351
0.0148752
0.0156687
0.0166516
0.0178238
0.0191626
0.0206368
0.0222188
0.0238899
0.0256308
0.0274268
0.0292461
0.0310643
0.0328357
0.0345401
0.0361336
0.0376105
0.0389217
0.0400562
0.0409804
0.0416639
0.0420781
0.0421625
0.0419403
0.0413871
0.0407023
0.0398741
0.0390966
0.0384559
0.0379525
0.0377349
0.0375382
0.0374276
0.0372571
0.0374628
0.0375441
0.0370129
0.0360606
0.0347435
0.0324674
0.0296944
0.0287411
0.0281394
0.0277885
0.0295185
0.0328132
0.0347878
0.0338306
0.0269787
0.0175392
0.00854355
0.0029979
0.0192263
0.017433
0.0163152
0.0159275
0.016043
0.0163915
0.016795
0.0171911
0.0175975
0.018072
0.0186705
0.019426
0.0203417
0.021401
0.0225785
0.0238514
0.0252045
0.0266235
0.0280968
0.0296
0.0311134
0.0326003
0.0340422
0.0354038
0.0366735
0.0378131
0.038807
0.0396257
0.0402431
0.0406458
0.0407863
0.0407023
0.040356
0.0399112
0.0394196
0.0387228
0.0381974
0.0377465
0.0374824
0.0372464
0.0370766
0.0368725
0.0368797
0.0368009
0.0362755
0.0353579
0.0341769
0.0324241
0.0301903
0.029065
0.0285304
0.0281352
0.0289634
0.0310061
0.0323545
0.0309412
0.024889
0.0167506
0.00886507
0.00304178
0.0223985
0.020863
0.019876
0.0194871
0.0195187
0.0197522
0.0200373
0.0203165
0.0206007
0.0209368
0.0213719
0.0219359
0.0226341
0.0234546
0.0243775
0.0253841
0.0264618
0.0275997
0.0287893
0.0300126
0.0312532
0.0324829
0.0336851
0.0348318
0.0359025
0.0368747
0.0377313
0.0384487
0.0390008
0.0393835
0.0395572
0.0395592
0.0393443
0.0389991
0.0384307
0.0381369
0.0377689
0.0373893
0.0371077
0.0368467
0.0366273
0.0363821
0.0362381
0.0360147
0.0354717
0.0346114
0.0335117
0.0320971
0.0303101
0.0291106
0.0285061
0.0280729
0.028241
0.029235
0.029876
0.0281907
0.0228402
0.015814
0.00887627
0.00300816
0.0251677
0.0238565
0.022986
0.0226155
0.0225867
0.022725
0.0229096
0.023091
0.0232743
0.0234958
0.0237954
0.0241993
0.0247147
0.0253333
0.0260397
0.0268184
0.0276592
0.028554
0.0294969
0.0304745
0.0314736
0.0324725
0.0334562
0.0344026
0.0352904
0.0361057
0.036831
0.0374481
0.0379336
0.0382873
0.0384754
0.0385294
0.038415
0.0381953
0.037867
0.0375666
0.0372575
0.0369283
0.0366412
0.0363609
0.0360994
0.0358079
0.035543
0.0352168
0.0346484
0.0338429
0.0328123
0.0315956
0.0301462
0.028941
0.0282066
0.0276968
0.0273993
0.0275465
0.0275018
0.025667
0.0209112
0.0147965
0.00866634
0.00292995
0.0275965
0.026485
0.0257212
0.0253556
0.0252789
0.0253441
0.0254473
0.0255468
0.0256458
0.0257728
0.0259607
0.0262326
0.0265959
0.0270453
0.027569
0.0281545
0.0287934
0.0294798
0.0302095
0.0309732
0.0317604
0.0325541
0.0333412
0.0341042
0.0348263
0.035496
0.0360972
0.0366164
0.0370328
0.0373471
0.0375332
0.0376134
0.0375652
0.0374297
0.0372128
0.0369605
0.036691
0.0363963
0.0361079
0.035813
0.0355157
0.0351848
0.0348349
0.0344266
0.0338332
0.033063
0.0321002
0.0309947
0.0297661
0.0285987
0.0277248
0.0270838
0.0264619
0.0259644
0.0253318
0.0234021
0.0191475
0.0137594
0.00830055
0.00281845
0.0297177
0.0287751
0.0281047
0.027754
0.0276385
0.0276421
0.0276801
0.027713
0.0277423
0.0277916
0.027888
0.0280515
0.0282892
0.028598
0.0289688
0.0293918
0.0298602
0.0303695
0.0309168
0.0314958
0.0320984
0.0327116
0.0333242
0.0339229
0.0344951
0.0350306
0.0355155
0.0359393
0.0362846
0.0365509
0.0367199
0.0368044
0.0367904
0.0367014
0.0365419
0.0363309
0.0360909
0.035819
0.035529
0.0352216
0.0348927
0.0345276
0.0341167
0.0336485
0.0330363
0.0322816
0.0313764
0.0303387
0.0292308
0.0281126
0.0271198
0.0263123
0.0254568
0.0245033
0.0233922
0.0213925
0.0175605
0.0127491
0.00783657
0.00267974
0.0315571
0.0307596
0.0301722
0.029837
0.0296902
0.0296432
0.0296276
0.0296098
0.029586
0.0295738
0.0295963
0.0296713
0.029806
0.0299988
0.0302426
0.0305301
0.0308555
0.0312154
0.0316079
0.0320289
0.0324725
0.0329286
0.0333868
0.0338412
0.034279
0.0346918
0.0350683
0.0353998
0.0356726
0.0358849
0.0360235
0.0360947
0.0360894
0.0360196
0.0358864
0.0357027
0.0354759
0.0352163
0.0349234
0.0346042
0.0342481
0.0338522
0.0333991
0.0328851
0.0322582
0.0315075
0.0306399
0.0296487
0.0285945
0.0275077
0.0264314
0.0254531
0.0244141
0.0231605
0.0216837
0.019618
0.0161432
0.0117968
0.00732414
0.00252123
0.0331467
0.0324723
0.0319572
0.0316383
0.031469
0.0313808
0.0313192
0.0312571
0.0311913
0.0311336
0.0311006
0.0311053
0.0311566
0.0312547
0.0313944
0.0315696
0.0317759
0.0320109
0.0322733
0.0325604
0.0328668
0.0331882
0.0335165
0.0338426
0.0341598
0.0344607
0.0347362
0.0349795
0.0351797
0.0353337
0.0354318
0.0354765
0.0354606
0.0353902
0.0352631
0.0350891
0.0348677
0.0346095
0.0343091
0.0339753
0.0335964
0.0331725
0.0326886
0.0321392
0.0314973
0.0307461
0.0298953
0.0289341
0.0278988
0.026816
0.0256852
0.0245581
0.0233621
0.0219229
0.0201905
0.0180603
0.0148827
0.0109202
0.00680303
0.0023526
0.0345127
0.0339422
0.0334901
0.0331882
0.0330031
0.032883
0.0327851
0.0326867
0.0325837
0.0324853
0.0324056
0.0323577
0.0323458
0.0323697
0.0324257
0.0325094
0.0326178
0.0327496
0.032904
0.0330796
0.0332739
0.0334791
0.0336919
0.0339062
0.0341162
0.0343165
0.0344996
0.0346598
0.0347883
0.0348821
0.0349333
0.0349422
0.0349022
0.0348166
0.034681
0.0345018
0.0342749
0.0340094
0.0336985
0.0333482
0.0329488
0.0325001
0.0319905
0.0314139
0.0307549
0.0299999
0.0291514
0.0282038
0.0271723
0.0260725
0.0249011
0.0236614
0.0223302
0.0207779
0.0188895
0.016703
0.0137637
0.0101267
0.00630326
0.00218378
0.0356805
0.0351964