/*--------------------------------*- C++ -*----------------------------------*\
| =========                 |                                                 |
| \\      /  F ield         | OpenFOAM: The Open Source CFD Toolbox           |
|  \\    /   O peration     | Version:  2512                                  |
|   \\  /    A nd           | Website:  www.openfoam.com                      |
|    \\/     M anipulation  |                                                 |
\*---------------------------------------------------------------------------*/
FoamFile
{
    version     2.0;
    format      ascii;
    arch        "LSB;label=32;scalar=64";
    class       surfaceScalarField;
    location    "130.5";
    object      phi;
}
// * * * * * * * * * * * * * * * * * * * * * * * * * * * * * * * * * * * * * //

dimensions      [0 3 -1 0 0 0 0];

oriented        oriented;

internalField   nonuniform List<scalar> 
26232
(
0.000247558
0.00118027
-0.00142783
0.000812754
0.00187257
-0.00243777
0.00181293
0.00112309
-0.00212327
0.00351414
-0.000971546
-0.000729665
0.00624947
-0.00443098
0.00169564
0.0103573
-0.00933854
0.0052307
0.0161266
-0.0157596
0.00999029
0.0237083
-0.0236216
0.0160399
0.0330332
-0.0326438
0.0233189
0.043776
-0.0423419
0.0315991
0.0553936
-0.0521107
0.0404931
0.0672248
-0.0613424
0.0495112
0.0786195
-0.069539
0.0581443
0.0890542
-0.0763861
0.0659514
0.0982083
-0.081776
0.0726218
0.105994
-0.0857911
0.0780056
0.11253
-0.0886463
0.0821101
0.118091
-0.0906345
0.0850736
0.123044
-0.0920474
0.0870946
0.127747
-0.093171
0.0884677
0.132533
-0.094161
0.0893751
0.137719
-0.0952624
0.0900766
0.143267
-0.0964581
0.0909097
-0.0977656
0.0915499
0.149483
0.000258891
0.00092138
0.00103598
0.00109549
0.00251926
-0.000360191
0.00503481
-0.0034871
0.00896036
-0.00835652
0.0146548
-0.0150329
0.022316
-0.0234209
0.031855
-0.0331606
0.0428438
-0.0436326
0.0545826
-0.0540807
0.0662558
-0.0637839
0.0771137
-0.0722003
0.0866191
-0.0790445
0.094526
-0.084293
0.100883
-0.0881328
0.105969
-0.0908776
0.1102
-0.0928775
0.114021
-0.0944551
0.117817
-0.0958434
0.121876
-0.0972304
0.126373
-0.0986575
0.131396
-0.100286
0.136871
-0.101933
-0.10392
0.143025
0.000251124
0.000670256
0.00122394
0.000122673
0.00324043
-0.00237668
0.00669746
-0.00694413
0.012013
-0.0136721
0.0194426
-0.0224625
0.028894
-0.0328723
0.0398455
-0.0441121
0.0514449
-0.055232
0.0627376
-0.0653733
0.0729096
-0.0739559
0.0814591
-0.0807498
0.0882572
-0.0858426
0.0935041
-0.0895398
0.0976118
-0.0922405
0.101063
-0.0943283
0.104291
-0.0961063
0.107607
-0.0977712
0.111199
-0.0994352
0.115127
-0.101158
0.119413
-0.102944
0.124003
-0.104875
0.1289
-0.10683
-0.109086
0.134066
0.000277772
0.000392483
0.00153479
-0.00113434
0.00422348
-0.00506537
0.00882094
-0.0115416
0.0156649
-0.0205161
0.0247046
-0.0315022
0.03536
-0.0435277
0.0466443
-0.0553963
0.0574762
-0.0660638
0.0669959
-0.0748931
0.0747536
-0.0817136
0.0807345
-0.0867306
0.0852536
-0.0903617
0.0887858
-0.093072
0.0918017
-0.0952564
0.0946641
-0.0971907
0.0975932
-0.0990355
0.100696
-0.100874
0.104009
-0.102748
0.10754
-0.104688
0.111303
-0.106708
0.115305
-0.108876
0.119573
-0.111099
-0.113631
0.124118
0.000372974
1.95095e-05
0.00205122
-0.00281258
0.00559974
-0.00861389
0.011475
-0.0174169
0.0197434
-0.0287845
0.0298415
-0.0416002
0.0406795
-0.0543656
0.0510467
-0.0657635
0.0600217
-0.0750389
0.0671823
-0.0820537
0.0725885
-0.0871197
0.0766166
-0.0907587
0.0797506
-0.0934958
0.0824195
-0.0957409
0.0849225
-0.0977594
0.0874309
-0.0996992
0.0900325
-0.101637
0.0927734
-0.103615
0.0956871
-0.105662
0.0988003
-0.107801
0.102142
-0.11005
0.105704
-0.112438
0.109506
-0.114901
-0.117647
0.113522
0.000540499
-0.000520989
0.00278336
-0.00505545
0.00732448
-0.013155
0.014432
-0.0245245
0.023683
-0.0380355
0.0339526
-0.0518698
0.043891
-0.0643041
0.0524673
-0.0743399
0.0592299
-0.0818015
0.0642593
-0.087083
0.0679503
-0.0908107
0.0707773
-0.0935857
0.0731388
-0.0958573
0.0753047
-0.0979067
0.0774337
-0.0998884
0.0796154
-0.101881
0.0819028
-0.103924
0.0843294
-0.106042
0.0869152
-0.108248
0.0896672
-0.110553
0.0925859
-0.112969
0.0956509
-0.115503
0.0988866
-0.118136
-0.120985
0.102225
0.000767778
-0.00128877
0.00367574
-0.00796341
0.00922116
-0.0187004
0.0172707
-0.032574
0.0267996
-0.0475644
0.0363304
-0.0614005
0.0446516
-0.0726253
0.0511985
-0.0808867
0.0560089
-0.0866119
0.0594663
-0.0905404
0.0620379
-0.0933823
0.0641152
-0.0956631
0.0659651
-0.0977072
0.0677474
-0.099689
0.0695509
-0.101692
0.0714233
-0.103753
0.0733887
-0.10589
0.0754591
-0.108112
0.0776401
-0.110429
0.0799368
-0.11285
0.082353
-0.115385
0.0848881
-0.118038
0.0875552
-0.120803
-0.123741
0.0903108
0.0010365
-0.00232527
0.00464262
-0.0115695
0.0110466
-0.0251044
0.0195366
-0.0410639
0.0285949
-0.0566228
0.0367624
-0.0695681
0.0432529
-0.0791158
0.0479846
-0.0856184
0.0512999
-0.0899273
0.0536653
-0.0929058
0.0554857
-0.0952027
0.0570411
-0.0972185
0.0584975
-0.0991636
0.0599426
-0.101134
0.0614193
-0.103169
0.0629487
-0.105283
0.0645438
-0.107485
0.0662158
-0.109784
0.0679755
-0.112188
0.0698308
-0.114705
0.0717834
-0.117338
0.0738269
-0.120081
0.0759617
-0.122938
-0.12592
0.0781407
0.00132639
-0.00365166
0.00558301
-0.0158262
0.0125459
-0.0320672
0.0208919
-0.0494099
0.0289118
-0.0646427
0.0354727
-0.076129
0.0402658
-0.0839089
0.0435431
-0.0888957
0.0457651
-0.0921492
0.0473628
-0.0945035
0.0486423
-0.0964823
0.0497844
-0.0983605
0.0508817
-0.100261
0.0519784
-0.102231
0.0530971
-0.104287
0.0542527
-0.106438
0.055457
-0.108689
0.0567193
-0.111046
0.0580454
-0.113515
0.059437
-0.116097
0.0608916
-0.118792
0.0624078
-0.121598
0.0639842
-0.124515
-0.127536
0.0656001
0.00161339
-0.00526505
0.00638761
-0.0206004
0.0135102
-0.0391898
0.0212021
-0.0571019
0.027887
-0.0713275
0.0328772
-0.0811191
0.0362411
-0.0872729
0.0384025
-0.0910571
0.0398221
-0.0935688
0.0408465
-0.0955279
0.0416847
-0.0973205
0.0424441
-0.09912
0.0431757
-0.100992
0.0439043
-0.102959
0.0446444
-0.105027
0.0454061
-0.1072
0.0461974
-0.109481
0.0470247
-0.111874
0.0478934
-0.114383
0.0488065
-0.11701
0.0497652
-0.119751
0.050769
-0.122601
0.0518145
-0.12556
-0.128616
0.0528941
0.00187057
-0.00713562
0.00695587
-0.0256857
0.0138274
-0.0460614
0.0205248
-0.0637993
0.0258066
-0.0766093
0.029399
-0.0847115
0.0316116
-0.0894855
0.0329195
-0.0923649
0.033722
-0.0943714
0.0342738
-0.0960797
0.0347086
-0.0977553
0.035089
-0.0995004
0.0354434
-0.101347
0.0357861
-0.103302
0.0361265
-0.105368
0.0364726
-0.107546
0.0368315
-0.109839
0.0372101
-0.112252
0.0376132
-0.114786
0.038043
-0.11744
0.0384992
-0.120207
0.0389798
-0.123082
0.0394797
-0.12606
-0.129135
0.0399988
0.00207511
-0.00921072
0.00722386
-0.0308344
0.0135047
-0.0523422
0.0190418
-0.0693363
0.0229921
-0.0805596
0.0253983
-0.0871178
0.0266921
-0.0907793
0.027325
-0.0929977
0.0276152
-0.0946616
0.0277391
-0.0962036
0.0277793
-0.0977955
0.0277713
-0.0994925
0.0277315
-0.101307
0.0276695
-0.10324
0.0275929
-0.105291
0.027508
-0.107461
0.0274208
-0.109752
0.0273361
-0.112167
0.0272577
-0.114708
0.0271881
-0.11737
0.0271297
-0.120149
0.0270835
-0.123036
0.027046
-0.126023
0.0270232
-0.129112
-7.95393e-05
-0.00558554
0.00566508
-0.000669521
-0.0140184
0.0146084
-0.00195025
-0.0197668
0.0210475
-0.00384343
-0.0233754
0.0252686
-0.00617063
-0.0258181
0.0281453
-0.00874195
-0.0279473
0.0305186
-0.0114119
-0.0302228
0.0328927
-0.0140706
-0.0327469
0.0354056
-0.0166122
-0.0354207
0.0379624
-0.0189129
-0.0380649
0.0403656
-0.0208245
-0.0404723
0.042384
-0.0221812
-0.0424223
0.0437789
-0.0228102
-0.0436906
0.0443196
-0.0225471
-0.0440624
0.0437993
-0.021261
-0.043346
0.04206
-0.0188763
-0.0413906
0.0390058
-0.0153451
-0.0380895
0.0345583
-0.0107055
-0.0333945
0.0287549
-0.0050505
-0.0272942
0.0216391
0.00145331
-0.0197844
0.0132806
0.00863909
-0.0108574
0.00367161
0.0161051
-0.000427983
-0.007038
0.0243405
0.0109242
-0.0191597
0.0238854
0.0333019
-0.0328468
-0.000463327
-0.00512221
-0.00178664
-0.0126951
-0.00389115
-0.0176622
-0.00661034
-0.0206562
-0.00976633
-0.0226621
-0.0132248
-0.0244888
-0.0168996
-0.026548
-0.0207238
-0.0289227
-0.0246178
-0.0315267
-0.0284709
-0.0342118
-0.0321378
-0.0368054
-0.0354426
-0.0391176
-0.0381888
-0.0409445
-0.0401747
-0.0420764
-0.0412105
-0.0423103
-0.0411376
-0.0414634
-0.0398434
-0.0393837
-0.0372803
-0.0359576
-0.0334667
-0.0311077
-0.0284625
-0.0247887
-0.0223393
-0.0169806
-0.0151257
-0.00764161
-0.00711199
0.00291055
0.0148199
0.00195345
-0.000790305
-0.00433191
-0.00269083
-0.0107946
-0.00540608
-0.014947
-0.00869853
-0.0173638
-0.0124077
-0.018953
-0.0164497
-0.0204468
-0.0207874
-0.0222103
-0.0253908
-0.0243193
-0.0302089
-0.0267087
-0.0351558
-0.0292648
-0.0401071
-0.0318541
-0.044901
-0.0343237
-0.0493437
-0.0365017
-0.0532193
-0.0382008
-0.0563033
-0.0392263
-0.0583793
-0.0393875
-0.0592545
-0.0385084
-0.0587758
-0.0364363
-0.0568366
-0.0330469
-0.0533766
-0.0282486
-0.0483665
-0.0219908
-0.0417582
-0.0142499
-0.033923
-0.00492466
0.00559595
-0.024699
-0.0010238
-0.00330811
-0.00331019
-0.0085082
-0.0063999
-0.0118573
-0.0100056
-0.0137581
-0.0139796
-0.014979
-0.0182694
-0.016157
-0.0228639
-0.0176158
-0.0277523
-0.0194308
-0.0329023
-0.0215587
-0.0382519
-0.0239152
-0.0437074
-0.0263986
-0.0491424
-0.0288887
-0.054399
-0.0312451
-0.0592907
-0.0333092
-0.0636077
-0.0349093
-0.067126
-0.0358691
-0.0696179
-0.0360165
-0.0708623
-0.035192
-0.0706535
-0.0332556
-0.0688136
-0.0300886
-0.0652119
-0.0255924
-0.05977
-0.0196918
-0.0524169
-0.0122777
-0.00312135
-0.0436996
-0.00114304
-0.00216507
-0.0036104
-0.00604084
-0.00684131
-0.00862637
-0.0105149
-0.0100845
-0.0144866
-0.0110072
-0.0187151
-0.0119286
-0.0231937
-0.0131372
-0.0279089
-0.0147156
-0.0328239
-0.0166437
-0.0378765
-0.0188626
-0.0429817
-0.0212935
-0.0480341
-0.0238363
-0.0529108
-0.0263684
-0.0574734
-0.0287466
-0.0615692
-0.0308135
-0.0650311
-0.0324072
-0.0676771
-0.0333705
-0.0693114
-0.0335578
-0.0697259
-0.0328411
-0.0686916
-0.0311229
-0.0659726
-0.0283114
-0.0614043
-0.0242601
-0.0549422
-0.0187398
-0.0123333
-0.0457303
-0.00114153
-0.00102354
-0.00358588
-0.00359649
-0.00673409
-0.00547816
-0.0102453
-0.00657335
-0.0139679
-0.00728458
-0.0178553
-0.00804125
-0.02189
-0.00910249
-0.0260413
-0.0105643
-0.0302517
-0.0124333
-0.0344378
-0.0146764
-0.0384965
-0.0172349
-0.0423115
-0.0200213
-0.0457614
-0.0229185
-0.0487256
-0.0257823
-0.0510906
-0.0284485
-0.0527485
-0.0307493
-0.0535926
-0.0325264
-0.05351
-0.0336404
-0.0523772
-0.0339739
-0.0500541
-0.033446
-0.0463771
-0.0319884
-0.0407119
-0.0299253
-0.0336907
-0.025761
-0.022713
-0.0233109
-0.00102429
7.56234e-07
-0.0032509
-0.00136989
-0.00610187
-0.00262719
-0.00922756
-0.00344766
-0.0124586
-0.00405354
-0.0157274
-0.00477247
-0.0189921
-0.00583773
-0.0221947
-0.00736167
-0.0252484
-0.00937956
-0.0280412
-0.0118836
-0.0304442
-0.0148319
-0.032323
-0.0181426
-0.0335478
-0.0216937
-0.0340041
-0.025326
-0.0335998
-0.0288529
-0.0322638
-0.0320854
-0.029944
-0.0348462
-0.0265709
-0.0370134
-0.022123
-0.0384219
-0.0164663
-0.0391027
-0.00968124
-0.0387734
-0.00143149
-0.038175
0.00873439
-0.0359269
-0.0350906
0.0211119
-0.000817356
0.000818112
-0.0026459
0.000458654
-0.00499901
-0.00027408
-0.00752231
-0.000924358
-0.0100172
-0.00155861
-0.0123804
-0.00240937
-0.0145297
-0.00368837
-0.0163687
-0.00552266
-0.0177754
-0.0079729
-0.0186079
-0.0110511
-0.0187167
-0.014723
-0.0179619
-0.0188974
-0.0162271
-0.0234285
-0.0134209
-0.0281322
-0.00949883
-0.0327749
-0.00444954
-0.0371347
0.00171337
-0.0410091
0.00891606
-0.0442161
0.0171904
-0.0466962
0.0265627
-0.048475
0.0369815
-0.0491923
0.0489297
-0.0501232
0.0616355
-0.0486327
-0.0505074
0.0770523
-0.000537412
0.00135552
-0.00185497
0.00177621
-0.00354843
0.00141938
-0.00528606
0.000813268
-0.00683529
-9.37048e-06
-0.00805553
-0.00118912
-0.00880811
-0.00293579
-0.00895439
-0.00537638
-0.0083399
-0.00858739
-0.00680834
-0.0125827
-0.00420678
-0.0173246
-0.000420166
-0.022684
0.00461871
-0.0284674
0.0109004
-0.0344139
0.0183788
-0.0402534
0.0269636
-0.0457195
0.0365313
-0.0505768
0.0469893
-0.0546741
0.0582376
-0.0579445
0.0701749
-0.0604123
0.0829332
-0.0619506
0.0963007
-0.0634907
0.110734
-0.0630663
-0.0654516
0.125679
-0.000246508
0.00160203
-0.000981192
0.0025109
-0.0019282
0.00236639
-0.00278136
0.00166643
-0.00328536
0.00049463
-0.00323259
-0.00124189
-0.00245095
-0.00371743
-0.000764184
-0.00706315
0.00200237
-0.0113539
0.00601282
-0.0165931
0.0113602
-0.022672
0.018076
-0.0293997
0.0261017
-0.0364931
0.0353018
-0.0436139
0.0454683
-0.0504199
0.0563657
-0.0566169
0.0677639
-0.061975
0.07948
-0.0663902
0.0913725
-0.069837
0.103312
-0.0723518
0.11551
-0.0741482
0.127394
-0.0753754
0.140221
-0.0758927
-0.0774252
0.152194
1.13245e-06
0.0016009
-0.000183353
0.00269538
-0.000389974
0.00257301
-0.000343944
0.0016204
0.00022128
-7.05938e-05
0.00156846
-0.00258907
0.00391481
-0.00606377
0.00746472
-0.0106131
0.0123898
-0.0162791
0.0187863
-0.0229896
0.0266528
-0.0305385
0.035853
-0.0386
0.0461288
-0.0467689
0.0571385
-0.0546236
0.068509
-0.0617903
0.0798883
-0.0679962
0.0909974
-0.073084
0.101657
-0.0770498
0.111765
-0.0799447
0.121371
-0.0819581
0.130543
-0.08332
0.13924
-0.0840723
0.14813
-0.0847835
-0.0851699
0.155875
0.000173071
0.000430683
0.000880423
0.00177115
0.0033962
0.00603782
0.00996434
0.0153912
0.022431
0.0310404
0.040995
0.0519062
0.0632817
0.0746095
0.085441
0.0954505
0.104477
0.1125
0.11965
0.12616
0.132215
0.138219
0.144345
0.150725
0.0445176
0.0565489
-0.0677647
0.0553107
0.0860932
-0.0968863
0.0665225
0.113006
-0.124218
0.0769243
0.134579
-0.144981
0.0856704
0.149005
-0.157751
0.0928379
0.155728
-0.162895
0.097333
0.156977
-0.161472
0.0971966
0.158536
-0.1584
0.0933907
0.164294
-0.160488
0.090987
0.168957
-0.166553
0.0952269
0.159536
-0.163776
0.106192
0.127304
-0.138269
0.119803
0.0739881
-0.0875996
0.133271
0.00551893
-0.0189866
0.145412
-0.0679579
0.0558168
0.154885
-0.131337
0.121865
0.160875
-0.172017
0.166027
0.163113
-0.189008
0.186769
0.16226
-0.192487
0.19334
0.160377
-0.191476
0.193358
0.158289
-0.188
0.190089
0.154118
-0.189161
0.193332
0.146521
-0.203892
0.211489
0.136953
-0.222992
0.23256
0.128383
-0.217935
0.226505
0.123311
-0.166665
0.171737
0.123382
-0.072539
0.0724683
0.127873
0.0384632
-0.0429543
0.135636
0.132555
-0.140318
0.144591
0.189861
-0.198816
0.151857
0.21678
-0.224046
0.154581
0.235996
-0.238719
0.151195
0.259022
-0.255636
0.142454
0.281013
-0.272273
0.131593
0.277249
-0.266387
0.122757
0.223658
-0.214822
0.119048
0.115111
-0.111403
0.121612
-0.0222233
0.01966
0.129102
-0.140557
0.133067
0.135593
-0.214591
0.208099
0.134635
-0.249707
0.250665
0.126646
-0.276799
0.284788
0.118136
-0.278604
0.287114
0.114338
-0.229633
0.233431
0.116958
-0.127182
0.124562
0.122335
0.00829058
-0.0136669
0.125023
0.130589
-0.133278
0.123567
0.249677
-0.24822
0.121036
0.3074
-0.30487
0.11969
0.296548
-0.295201
0.119327
0.197134
-0.19677
0.118718
0.0108598
-0.0102512
0.116122
-0.149248
0.151844
0.112906
-0.320821
0.324038
0.111678
-0.332794
0.334022
0.109395
-0.191183
0.193466
0.105562
-0.0227256
0.0265592
0.101487
0.292972
-0.288897
0.0983105
0.299888
-0.296711
0.0475671
-0.0429666
0.0176406
0.0408618
0.0331812
0.0705526
0.0494472
0.0967403
0.0647822
0.119244
0.078636
0.135151
0.0897663
0.144597
0.0963414
0.150402
0.0980931
0.156784
0.098259
0.164128
0.102126
0.16509
0.112427
0.149234
0.126322
0.113409
0.139498
0.0608117
0.15058
-0.00556278
0.15936
-0.0767378
0.164778
-0.136755
0.166492
-0.173731
0.165126
-0.187641
0.161438
-0.188799
0.157131
-0.187168
0.153148
-0.184018
0.147275
-0.183288
0.137643
-0.194261
0.126282
-0.211631
0.117201
-0.208853
0.113085
-0.162549
0.114828
-0.0742823
0.122008
0.0312836
0.132697
0.121866
0.144343
0.178215
0.15412
0.207004
0.159258
0.230858
0.158158
0.260122
0.151322
0.287849
0.14148
0.287091
0.132495
0.232643
0.126914
0.120692
0.126179
-0.021489
0.130422
-0.144799
0.135398
-0.219567
0.133911
-0.24822
0.125251
-0.268139
0.116713
-0.270066
0.113696
-0.226616
0.117127
-0.130612
0.122744
0.00267382
0.125835
0.127498
0.125211
0.250301
0.12297
0.309641
0.121642
0.297875
0.120786
0.19799
0.119664
0.0119821
0.116197
-0.145782
0.111748
-0.316372
0.110891
-0.331937
0.108806
-0.189099
0.106387
-0.0203064
0.103662
0.295696
0.099081
0.304469
0.0532532
-0.00647052
0.0226334
0.0136601
0.0504219
0.0339567
0.0764437
0.0533679
0.0998327
0.0706866
0.117833
0.0841098
0.131174
0.0926904
0.141822
0.0978793
0.151595
0.103615
0.158392
0.113981
0.154724
0.129136
0.134079
0.144723
0.0978223
0.156994
0.0485409
0.165698
-0.0142669
0.171455
-0.0824945
0.173276
-0.138576
0.171054
-0.171509
0.166432
-0.18302
0.160412
-0.182779
0.154012
-0.180768
0.148398
-0.178404
0.141532
-0.176422
0.130622
-0.183351
0.11754
-0.198549
0.10755
-0.198863
0.104125
-0.159124
0.107582
-0.0777386
0.116993
0.0218718
0.130056
0.108804
0.144173
0.164097
0.156497
0.194679
0.164329
0.223026
0.16595
0.258501
0.161454
0.292346
0.152867
0.295677
0.143711
0.2418
0.136207
0.128196
0.132044
-0.0173253
0.132598
-0.145354
0.135738
-0.222707
0.133946
-0.246428
0.124744
-0.258937
0.115796
-0.261118
0.113182
-0.224003
0.11736
-0.13479
0.123478
-0.00344401
0.127193
0.123782
0.127437
0.250057
0.125376
0.311702
0.123929
0.299323
0.122638
0.199281
0.121102
0.0135183
0.1169
-0.14158
0.111182
-0.310653
0.110565
-0.33132
0.108791
-0.187325
0.107772
-0.0192874
0.106368
0.2971
0.100584
0.310254
0.0599698
-0.0252471
0.00418077
-0.00449757
0.0296724
0.0176473
0.0542988
0.0392441
0.0782359
0.0587577
0.098319
0.0746015
0.11533
0.0867973
0.129626
0.0972486
0.141144
0.109281
0.14636
0.125278
0.138727
0.143565
0.115791
0.159703
0.0816836
0.17135
0.036894
0.178787
-0.0217036
0.182044
-0.0857516
0.180446
-0.136978
0.174631
-0.165694
0.167024
-0.175412
0.159054
-0.174808
0.151032
-0.172746
0.143916
-0.171288
0.136451
-0.168957
0.125245
-0.172145
0.111086
-0.18439
0.0998771
-0.187654
0.0963773
-0.155625
0.10098
-0.0823414
0.112237
0.0106148
0.127325
0.0937155
0.143597
0.147825
0.158403
0.179873
0.169301
0.212129
0.174213
0.253589
0.1724
0.294159
0.16514
0.302937
0.155746
0.251194
0.146481
0.13746
0.139089
-0.00993237
0.135723
-0.141988
0.136554
-0.223537
0.134532
-0.244406
0.125037
-0.249443
0.115424
-0.251505
0.112793
-0.221371
0.117631
-0.139628
0.124479
-0.0102922
0.129004
0.119257
0.130144
0.248917
0.128192
0.313655
0.126497
0.301017
0.124801
0.200977
0.123003
0.015316
0.11823
-0.136807
0.111245
-0.303668
0.110713
-0.330787
0.109319
-0.185932
0.109685
-0.0196525
0.109596
0.297188
0.102802
0.317048
0.0676413
-0.0321855
-0.00936395
-0.0140915
0.0115783
0.00528688
0.0349205
0.0269902
0.0565326
0.0475913
0.0777179
0.066292
0.0966297
0.0830197
0.112898
0.0990595
0.125104
0.116531
0.128889
0.136283
0.118975
0.155772
0.0963029
0.171483
0.0659721
0.182546
0.0258309
0.189168
-0.0283254
0.190323
-0.0869061
0.185654
-0.13231
0.176817
-0.156857
0.166783
-0.165378
0.157328
-0.165353
0.148257
-0.163675
0.14007
-0.163101
0.132258
-0.161145
0.121401
-0.161288
0.106838
-0.169826
0.0943299
-0.175147
0.0901037
-0.151398
0.0952174
-0.0874551
0.107787
-0.00195447
0.1243
0.0772019
0.142188
0.129937
0.159244
0.162817
0.173344
0.198029
0.181939
0.244994
0.183537
0.292561
0.178229
0.308245
0.168502
0.260921
0.157413
0.148549
0.147019
0.000462539
0.13971
-0.13468
0.137779
-0.221606
0.135485
-0.242112
0.125995
-0.239953
0.11557
-0.24108
0.112485
-0.218286
0.11785
-0.144993
0.125638
-0.0180803
0.131191
0.113704
0.13331
0.246797
0.131393
0.315572
0.129305
0.303106
0.12722
0.203062
0.125318
0.0172179
0.120169
-0.131658
0.111938
-0.295437
0.111343
-0.330192
0.110347
-0.184936
0.112051
-0.0213568
0.113307
0.295932
0.105709
0.324646
0.0761728
-0.0170215
-0.0156534
-0.005622
0.000178818
0.00963925
0.0196592
0.0276298
0.038542
0.0472734
0.0580743
0.0672993
0.0766038
0.0871234
0.0930742
0.106942
0.105285
0.127522
0.108309
0.148469
0.0980282
0.167147
0.0776255
0.181493
0.0516252
0.191683
0.0156411
0.197263
-0.0339052
0.196267
-0.0859099
0.188858
-0.124901
0.177639
-0.145638
0.165786
-0.153525
0.15524
-0.154807
0.145543
-0.153979
0.136543
-0.154101
0.128547
-0.153149
0.118662
-0.151403
0.104644
-0.155809
0.0910734
-0.161576
0.0854891
-0.145814
0.0904704
-0.0924364
0.103372
-0.0148559
0.120779
0.0597952
0.139675
0.111041
0.158542
0.143951
0.175785
0.180786
0.188436
0.232343
0.193736
0.28726
0.190654
0.311327
0.181048
0.270527
0.168377
0.161219
0.155385
0.0134547
0.144413
-0.123708
0.139315
-0.216508
0.136567
-0.239363
0.127412
-0.230798
0.116172
-0.22984
0.112207
-0.21432
0.117917
-0.150704
0.126838
-0.0270017
0.133597
0.106945
0.136777
0.243618
0.134889
0.31746
0.13231
0.305685
0.129848
0.205524
0.127993
0.0190725
0.122676
-0.126341
0.113238
-0.286
0.112428
-0.329383
0.111824
-0.184332
0.114772
-0.0243043
0.117432
0.293272
0.109262
0.332816
0.0854486
0.0212165
-0.0157579
0.0252843
-0.00388908
0.0340155
0.010928
0.0464652
0.0260923
0.0623108
0.0422288
0.0806742
0.0582403
0.100644
0.0731046
0.12137
0.084559
0.14223
0.0874491
0.16179
0.0784686
0.177938
0.0614773
0.190293
0.0392699
0.199363
0.00657071
0.203454
-0.0379962
0.200017
-0.0824726
0.190007
-0.114891
0.176936
-0.132567
0.163889
-0.140479
0.152606
-0.143524
0.142728
-0.144101
0.13338
-0.144753
0.125119
-0.144888
0.116387
-0.14267
0.103865
-0.143287
0.0899855
-0.147696
0.0826802
-0.138509
0.0865492
-0.0963054
0.0992069
-0.0275137
0.116784
0.0422182
0.136012
0.0918121
0.156011
0.123952
0.176019
0.160779
0.192808
0.215553
0.20247
0.277599
0.202573
0.311224
0.193925
0.279174
0.179844
0.175301
0.16405
0.029248
0.149699
-0.109357
0.141104
-0.207912
0.137587
-0.235846
0.129069
-0.22228
0.117169
-0.21794
0.111934
-0.209086
0.11772
-0.15649
0.127911
-0.0371927
0.136124
0.0987327
0.140536
0.239205
0.13868
0.319316
0.135504
0.308861
0.132654
0.208374
0.130967
0.0207604
0.125686
-0.12106
0.115103
-0.275416
0.113926
-0.328206
0.113686
-0.184092
0.117757
-0.0283758
0.121896
0.289134
0.113411
0.341301
0.095337
0.0720537
-0.0107593
0.0702435
-0.00207885
0.0722844
0.00888713
0.0781421
0.0202346
0.0881091
0.0322618
0.101936
0.0444134
0.11897
0.0560708
0.137899
0.0656299
0.156941
0.0684071
0.173831
0.0615786
0.187255
0.0480533
0.197898
0.0286268
0.2058
-0.00133163
0.207485
-0.0396812
0.201201
-0.0761886
0.188946
-0.102635
0.174699
-0.11832
0.161165
-0.126945
0.149512
-0.131871
0.139611
-0.1342
0.130353
-0.135495
0.121925
-0.136461
0.1141
-0.134845
0.103715
-0.132902
0.0906715
-0.134652
0.0818289
-0.129666
0.0836987
-0.0981752
0.0952703
-0.0390852
0.112286
0.0252023
0.131155
0.0729429
0.151599
0.103509
0.173811
0.138566
0.194461
0.194903
0.20839
0.26367
0.211562
0.308052
0.204081
0.286655
0.189855
0.189527
0.172556
0.0465465
0.155192
-0.0919929
0.143018
-0.195738
0.138369
-0.231198
0.130729
-0.214639
0.118481
-0.205692
0.11167
-0.202275
0.11715
-0.161969
0.128685
-0.0487279
0.138551
0.0888663
0.144362
0.233395
0.142692
0.320985
0.138903
0.31265
0.135628
0.21165
0.134201
0.0221868
0.129123
-0.115982
0.117472
-0.263765
0.115781
-0.326515
0.115866
-0.184177
0.120908
-0.0334182
0.126597
0.283445
0.118078
0.34982
0.105681
0.120062
-0.00514282
0.116329
0.00165439
0.115226
0.00999035
0.116584
0.0188759
0.121345
0.0275008
0.129668
0.0360907
0.141491
0.044248
0.156111
0.0510101
0.171558
0.0529595
0.185272
0.0478649
0.196336
0.0369898
0.205155
0.0198075
0.210432
-0.00660873
0.208731
-0.0379804
0.199524
-0.0669813
0.185723
-0.0888345
0.171041
-0.103638
0.157587
-0.11349
0.145954
-0.120238
0.136129
-0.124375
0.127227
-0.126593
0.118872
-0.128106
0.111554
-0.127527
0.103267
-0.124615
0.0921591
-0.123545
0.0826635
-0.120171
0.0821156
-0.0976273
0.0917716
-0.0487412
0.10757
0.00940396
0.125506
0.0550066
0.145461
0.0835542
0.16875
0.115277
0.193007
0.170646
0.212031
0.244646
0.219446
0.300637
0.213684
0.292418
0.199074
0.204137
0.180128
0.0654921
0.16046
-0.0723246
0.144942
-0.180221
0.138789
-0.225045
0.132167
-0.208017
0.120008
-0.193533
0.111445
-0.193711
0.116089
-0.166613
0.128965
-0.0616041
0.140778
0.0770534
0.148265
0.225907
0.146933
0.322318
0.142479
0.317104
0.138753
0.215375
0.137628
0.0233123
0.132904
-0.111259
0.120268
-0.251129
0.117927
-0.324173
0.118298
-0.184548
0.124141
-0.0392615
0.131453
0.276133
0.12319
0.358083
0.116311
0.149474
-0.00242289
0.148078
0.00305124
0.148346
0.00972167
0.150136
0.017086
0.153565
0.0240719
0.158993
0.0306624
0.166733
0.036508
0.176593
0.0411502
0.187363
0.0421892
0.197031
0.0381977
0.204867
0.0291531
0.210593
0.0140823
0.211652
-0.00766834
0.206078
-0.0324058
0.194614
-0.0555175
0.180331
-0.0745521
0.166015
-0.0893222
0.153083
-0.100558
0.141784
-0.108939
0.132101
-0.114692
0.123626
-0.118118
0.115673
-0.120153
0.108654
-0.120508
0.101918
-0.117879
0.0932532
-0.11488
0.0844075
-0.111325
0.0818737
-0.0950935
0.088984
-0.0558515
0.102742
-0.00435441
0.119154
0.0385953
0.137965
0.0647428
0.161406
0.0918366
0.187841
0.14421
0.210739
0.221749
0.222513
0.288863
0.21953
0.295401
0.205318
0.21835
0.186284
0.0845252
0.16526
-0.0513
0.146736
-0.161696
0.138683
-0.216993
0.13312
-0.202453
0.121601
-0.182014
0.111298
-0.183409
0.114514
-0.169829
0.128501
-0.0755911
0.142408
0.0631459
0.151903
0.216413
0.15136
0.322861
0.146374
0.322091
0.142075
0.219674
0.141231
0.024156
0.136954
-0.106981
0.12341
-0.237584
0.120281
-0.321045
0.120928
-0.185194
0.127366
-0.0457003
0.136334
0.267165
0.128632
0.365784
0.12703
0.15529
-0.00183816
0.156454
0.00188746
0.159103
0.00707264
0.163152
0.0130373
0.167976
0.0192475
0.173819
0.0248196
0.180877
0.0294503
0.18893
0.0330972
0.19687
0.0342489
0.203464
0.0316037
0.208039
0.0245781
0.209543
0.0125786
0.206529
-0.00465514
0.198529
-0.0244054
0.186552
-0.0435402
0.173043
-0.0610435
0.159761
-0.0760396
0.147617
-0.0884137
0.136872
-0.0981948
0.127462
-0.105282
0.119333
-0.109989
0.111965
-0.112784
0.105325
-0.113869
0.0995213
-0.112075
0.0930526
-0.108411
0.0858561
-0.104129
0.0824783
-0.0917156
0.0872744
-0.0606476
0.0986744
-0.0157544
0.11301
0.0242601
0.129744
0.0480088
0.152018
0.0695621
0.180273
0.115956
0.208128
0.193894
0.224761
0.272229
0.22416
0.296002
0.210306
0.232204
0.190754
0.104077
0.168835
-0.0293814
0.148172
-0.141033
0.137988
-0.206809
0.133376
-0.197841
0.12313
-0.171768
0.111355
-0.171634
0.112399
-0.170873
0.127192
-0.0903836
0.143531
0.0468073
0.155356
0.204587
0.155829
0.322388
0.150338
0.327581
0.145504
0.224507
0.144882
0.0247783
0.141173
-0.103272
0.126828
-0.22324
0.122801
-0.317018
0.123703
-0.186096
0.130538
-0.0525352
0.141183
0.25652
0.134325
0.372642
0.13764
0.150498
-0.00161027
0.151199
0.00118596
0.153387
0.00488513
0.15719
0.00923421
0.162461
0.0139763
0.168813
0.0184671
0.175729
0.0225345
0.183182
0.0256442
0.190334
0.0270968
0.196012
0.025926
0.199517
0.021073
0.200076
0.0120198
0.196385
-0.000963946
0.188448
-0.0164691
0.17777
-0.0328617
0.165812
-0.0490861
0.153799
-0.0640262
0.142444
-0.0770587
0.132234
-0.0879845
0.123186
-0.0962337
0.115301
-0.102104
0.108423
-0.105906
0.102268
-0.107714
0.096961
-0.106769
0.0919365
-0.103387
0.0866383
-0.0988302
0.0835975
-0.0886749
0.0866217
-0.0636717
0.0952416
-0.0243744
0.107225
0.0122771
0.121478
0.0337553
0.14095
0.0500905
0.167643
0.0892621
0.197492
0.164045
0.220034
0.249688
0.225423
0.290613
0.213838
0.24379
0.194635
0.12328
0.172594
-0.00734069
0.150114
-0.118553
0.137467
-0.194162
0.13328
-0.193655
0.124684
-0.163171
0.111937
-0.158887
0.110398
-0.169334
0.124852
-0.104838
0.143251
0.0284079
0.157993
0.189845
0.160495
0.319886
0.154902
0.333174
0.149266
0.230144
0.148794
0.0252502
0.145535
-0.100014
0.130528
-0.208232
0.125516
-0.312007
0.126666
-0.187246
0.133562
-0.059431
0.14584
0.244242
0.140121
0.378362
0.147905
0.175188
0.000376094
-0.177174
0.17368
0.00269375
0.173284
0.00528075
0.173984
0.00853494
0.175828
0.0121321
0.178652
0.0156426
0.182493
0.0186939
0.187321
0.0208163
0.193009
0.0214089
0.199169
0.019766
0.205104
0.0151371
0.209765
0.00735933
0.21229
-0.00348899
0.212361
-0.0165404
0.210063
-0.0305633
0.205822
-0.0448452
0.200145
-0.0583492
0.193317
-0.0702302
0.185771
-0.0804394
0.177741
-0.0882035
0.169438
-0.0938009
0.161174
-0.0976422
0.152857
-0.0993967
0.144331
-0.0982426
0.135903
-0.0949587
0.126895
-0.0898225
0.116849
-0.0786282
0.108502
-0.0553246
0.105314
-0.021187
0.108254
0.00933734
0.116628
0.0253815
0.128815
0.0379029
0.1432
0.074877
0.158744
0.148501
0.172671
0.23576
0.181927
0.281357
0.187376
0.23834
0.1902
0.120456
0.187431
-0.00457196
0.177485
-0.108607
0.166973
-0.183649
0.158565
-0.185247
0.14727
-0.151876
0.131675
-0.143292
0.123038
-0.160697
0.126651
-0.108451
0.133431
0.0216282
0.139587
0.183689
0.139652
0.319821
0.138769
0.334057
0.142044
0.226868
0.148568
0.0187264
0.149166
-0.100612
0.135777
-0.194843
0.127415
-0.303645
0.123652
-0.183483
0.125136
-0.0609154
0.134909
0.23447
0.131513
0.381757
0.156564
0.186528
0.00186251
-0.188014
0.185758
0.00346343
0.185524
0.00551419
0.186128
0.0079317
0.18771
0.0105499
0.190292
0.0130606
0.193854
0.0151317
0.198275
0.0163957
0.203312
0.0163716
0.20853
0.0145482
0.213325
0.0103425
0.217057
0.00362647
0.219005
-0.00543659
0.218914
-0.0164491
0.216799
-0.0284484
0.212817
-0.0408639
0.207304
-0.0528353
0.20053
-0.0634565
0.192945
-0.0728548
0.185003
-0.0802613
0.176867
-0.085665
0.168691
-0.0894662
0.160668
-0.0913731
0.152373
-0.0899478
0.143947
-0.086533
0.135866
-0.0817417
0.127743
-0.0705052
0.120603
-0.0481846
0.116872
-0.0174556
0.118881
0.00732818
0.126059
0.0182031
0.137352
0.0266103
0.151494
0.0607351
0.16811
0.131885
0.184219
0.219652
0.195534
0.270043
0.201681
0.232193
0.204721
0.117416
0.202248
-0.00209935
0.191315
-0.0976737
0.178961
-0.171295
0.169493
-0.175779
0.158494
-0.140878
0.142506
-0.127303
0.132323
-0.150514
0.135651
-0.111779
0.143958
0.0133213
0.152285
0.175362
0.153642
0.318464
0.152978
0.334721
0.156341
0.223505
0.163294
0.0117738
0.163808
-0.101126
0.148484
-0.179519
0.138658
-0.293818
0.134616
-0.179442
0.135846
-0.0621445
0.146923
0.223393
0.144443
0.384237
0.165294
0.198985
0.00312459
-0.200247
0.19827
0.00417796
0.198114
0.00567051
0.198676
0.00736898
0.200077
0.00914899
0.202331
0.0108072
0.205384
0.0120788
0.209111
0.012668
0.213303
0.0121795
0.217609
0.0102423
0.221517
0.00643446
0.224517
0.000626378
0.226077
-0.00699644