/*--------------------------------*- C++ -*----------------------------------*\
| =========                 |                                                 |
| \\      /  F ield         | OpenFOAM: The Open Source CFD Toolbox           |
|  \\    /   O peration     | Version:  2312                                  |
|   \\  /    A nd           | Website:  www.openfoam.com                      |
|    \\/     M anipulation  |                                                 |
\*---------------------------------------------------------------------------*/
FoamFile
{
    version     2.0;
    format      ascii;
    arch        "LSB;label=32;scalar=64";
    class       volScalarField;
    location    "66";
    object      p;
}
// * * * * * * * * * * * * * * * * * * * * * * * * * * * * * * * * * * * * * //

dimensions      [0 2 -2 0 0 0 0];

internalField   nonuniform List<scalar> 
940
(
-0.37487
-0.343471
-0.309704
-0.271138
-0.222101
-0.187412
-0.378536
-0.355058
-0.292922
-0.238841
-0.195974
-0.155361
-0.362253
-0.311693
-0.25657
-0.194236
-0.154714
-0.116799
-0.303524
-0.314344
-0.332618
-0.321981
-0.308901
-0.276582
-0.325072
-0.320627
-0.337584
-0.283782
-0.265515
-0.217389
-0.330957
-0.314577
-0.327418
-0.282334
-0.23419
-0.207893
-0.246412
-0.216092
-0.22637
-0.142257
-0.245122
-0.393604
-0.236045
-0.0126762
-0.0468082
-0.00954261
-0.0366429
-0.0856634
-0.0900942
-0.0610269
0.0095436
0.00102241
-0.167815
-0.186012
-0.249805
-0.155907
-0.118272
-0.299528
-0.190829
-0.0535285
-0.0662117
-0.00450236
-0.0158519
-0.0834519
-0.10791
-0.063311
0.0129333
0.00167503
-0.190779
-0.174238
-0.223374
-0.213176
-0.1395
-0.209297
-0.156002
-0.0753189
-0.113924
-0.0169764
-0.0139181
-0.0642514
-0.107454
-0.0585554
0.0118333
0.00370741
-0.185433
-0.170671
-0.176204
-0.168288
-0.12339
-0.126107
-0.057271
-0.0134854
-0.0929134
-0.0378296
0.00294758
-0.0536109
-0.11223
-0.0531092
0.0124157
0.00586447
-0.13062
-0.134452
-0.129061
-0.119757
-0.0782891
-0.0636104
0.000787461
0.0197474
-0.0504368
-0.056597
-0.00546113
-0.0554641
-0.104863
-0.0471623
0.0112896
0.00581019
-0.0914485
-0.105379
-0.0969201
-0.084276
-0.0559613
-0.0352388
0.03316
0.0667576
-0.0161228
-0.0641973
-0.00101915
-0.0475811
-0.093908
-0.0405975
0.00883603
0.00473713
-0.0519496
-0.0600418
-0.0555096
-0.0420792
-0.0186658
0.00266261
0.0572092
0.067444
0.00271228
-0.0364704
-0.0104197
-0.0393738
-0.0710193
-0.0296099
0.00753746
0.00436988
-0.0216794
-0.0318855
-0.0328884
-0.0277849
-0.011568
0.00380643
0.0307107
0.0468201
0.00825312
-0.0225886
-0.0107428
-0.0291027
-0.0524105
-0.0255721
0.00207835
0.00160564
0.00899686
0.00309141
0.00093992
0.00316336
0.0106592
0.0189731
0.0291086
0.0368718
0.0156885
-0.00326398
-0.00443177
-0.0180814
-0.0322377
-0.0154507
0.00248055
0.00265652
0.0174173
0.0109227
0.00715044
0.00631864
0.00833647
0.0119878
0.0140187
0.0187666
0.00964544
-0.00443911
-0.0065465
-0.0136266
-0.0233206
-0.014929
-0.00261391
0.00029355
0.0396347
0.0355077
0.0316977
0.0289071
0.0272358
0.0265259
0.0249165
0.023683
0.0184072
0.00974484
0.00452428
-0.00187079
-0.00832267
-0.00647334
-6.55107e-05
0.00129548
0.0398225
0.0356979
0.0314809
0.02763
0.024171
0.0213036
0.0182481
0.0151468
0.0115453
0.0057136
0.00151315
-0.00245653
-0.00654094
-0.0068554
-0.00357722
-0.000526745
0.0520379
0.0485071
0.0444671
0.0402954
0.0360376
0.0320097
0.0279161
0.0238368
0.0195067
0.0141357
0.00938634
0.00438842
0.000427012
-0.00176843
-0.00117301
0.000342208
-0.0903349
-0.119197
-0.152675
-0.0661742
-0.0816629
-0.1028
-0.0390876
-0.0492151
-0.0629644
-0.0166604
-0.025097
-0.0334061
0.00270926
-0.00219686
-0.00902816
0.0197444
0.0180226
0.0146568
0.0312824
0.0292535
0.0244529
0.0461984
0.0446327
0.0427003
0.0506277
0.0472824
0.0437473
0.0617194
0.0583193
0.0552172
0.0593445
0.0535642
0.0452505
0.0101849
-0.0120122
-0.203692
-0.00257534
-0.0279263
-0.0474783
-0.120288
-0.154506
-0.378199
-0.0663568
-0.100482
-0.134211
-0.205262
-0.256269
-0.398774
0.211617
0.250525
0.29887
0.358779
0.417769
0.455295
0.183861
0.208117
0.238907
0.276113
0.314504
0.314676
0.128487
0.138671
0.149174
0.151606
0.148933
0.0409771
0.0672879
0.0514644
0.0738438
0.0624753
0.0844637
0.0857363
0.108499
0.125919
0.152114
0.179792
0.0741284
0.0567995
0.0786091
0.0676743
0.0859956
0.0880471
0.106071
0.121815
0.145107
0.164775
0.080336
0.0627441
0.0826697
0.0725453
0.0884904
0.0920081
0.109514
0.116847
0.134064
0.12552
0.0857998
0.0679557
0.0855037
0.076673
0.0875311
0.0929917
0.0998224
0.102885
0.100227
0.0853869
0.0912696
0.073257
0.0874051
0.0804557
0.0849739
0.0908935
0.0902487
0.0891971
0.0806772
0.0657209
0.0981264
0.0798508
0.0897733
0.0841125
0.0828172
0.0868565
0.0835851
0.075708
0.0669771
0.0530124
0.10657
0.0887563
0.0930533
0.0886937
0.0824327
0.0819774
0.0780975
0.0664757
0.0563632
0.0452006
0.116979
0.10072
0.0967221
0.0934644
0.0838201
0.0774651
0.0722563
0.0622514
0.0505834
0.0418056
0.130913
0.11636
0.104418
0.0996304
0.0886895
0.0784387
0.072074
0.0645927
0.05462
0.0466749
0.148989
0.132031
0.111003
0.103829
0.0923177
0.0809497
0.0722542
0.0653194
0.0577235
0.0507867
0.18628
0.158684
0.132027
0.117904
0.105399
0.0937534
0.0838995
0.0762533
0.0695729
0.0637211
0.213235
0.172313
0.140903
0.123084
0.108951
0.0977047
0.0885615
0.0809054
0.0744545
0.0689985
0.362765
0.218815
0.177084
0.151948
0.132031
0.116528
0.104444
0.0950443
0.0876938
0.0818341
0.0573752
0.000760379
-0.0502889
0.0426785
-0.00426541
-0.0394236
0.0339382
0.00452131
-0.0229628
0.0300503
0.00995673
-0.0087624
0.03057
0.0177747
0.00648304
0.0384487
0.0301554
0.0228373
0.0440392
0.038122
0.0338323
0.0579348
0.052543
0.0488672
0.0636654
0.0584144
0.0541679
0.0762252
0.070536
0.0657114
-0.424263
-0.401683
-0.415597
-0.38075
-0.376197
-0.332532
-0.353672
-0.329538
-0.284718
-0.340583
-0.28279
-0.223871
-0.309359
-0.24205
-0.187274
-0.260143
-0.202082
-0.148951
-0.355395
-0.406138
-0.386082
-0.366785
-0.387724
-0.351903
-0.405475
-0.441899
-0.383854
-0.408634
-0.450785
-0.400067
-0.45287
-0.480126
-0.393732
-0.380456
-0.448862
-0.35573
-0.34307
-0.361356
-0.299633
-0.259136
-0.261585
-0.268421
-0.219012
-0.166954
-0.185456
-0.216208
-0.172362
-0.154988
-0.29677
-0.0897158
-0.0467814
-0.367423
0.0520739
0.10166
-0.246513
-0.112364
0.0580733
-0.0380008
-0.100323
-0.0851092
-0.0379044
-0.0365676
-0.0143986
-0.014853
-0.00404424
0.0255783
-0.0489045
-0.0473061
-0.0364732
-0.0678345
-0.0509274
-0.0462901
-0.0579818
-0.0361083
-0.0295376
-0.0377224
-0.0199582
-0.0161772
0.00302156
-0.00827206
-0.0137053
0.000867209
-3.92041e-05
-0.000893393
-0.240847
-0.16449
-0.124829
-0.0835144
-0.0558222
-0.0405283
-0.0304218
-0.0298053
-0.0266836
-0.0302135
-0.226046
-0.163751
-0.128177
-0.0849516
-0.0592697
-0.0421313
-0.0307402
-0.0290655
-0.0259555
-0.028778
-0.160932
-0.123566
-0.105078
-0.0741936
-0.0558543
-0.0402174
-0.0300357
-0.0277838
-0.0250117
-0.027212
-0.114278
-0.0795845
-0.0710281
-0.0508214
-0.0442092
-0.0337923
-0.027844
-0.0258574
-0.0238776
-0.0255867
-0.0458445
-0.0250312
-0.03589
-0.0248649
-0.0294702
-0.024977
-0.0242167
-0.0233674
-0.0224872
-0.0238617
0.0552803
0.0475557
0.0154257
0.0055329
-0.0113669
-0.0146784
-0.0195377
-0.0202643
-0.0207361
-0.0219677
0.089439
0.0697918
0.0439129
0.0234371
0.00379739
-0.00577213
-0.0141103
-0.0167115
-0.0186181
-0.0198934
-0.0446741
-0.0213686
0.00757965
0.00819361
0.00302679
-0.00289342
-0.0104621
-0.0134963
-0.0161286
-0.0175224
0.0140142
0.0230315
0.0264691
0.0171701
0.00808509
0.000575643
-0.00737767
-0.0106542
-0.0137445
-0.0151004
0.0295215
0.018087
0.0184814
0.0134578
0.00746433
0.000570042
-0.00513867
-0.00851554
-0.011238
-0.0124014
-0.0322689
-0.0301626
-0.0237823
-0.0160648
-0.0107744
-0.00777154
-0.00784969
-0.00813723
-0.00894648
-0.00980734
-0.0461293
-0.0437173
-0.034978
-0.025535
-0.0181626
-0.012198
-0.010104
-0.00786513
-0.00747964
-0.00763269
-0.0256495
-0.0249382
-0.0209868
-0.0191616
-0.0151362
-0.0122359
-0.00977639
-0.00760591
-0.00726392
-0.00625324
-0.0136056
-0.0136853
-0.0108333
-0.0123457
-0.00941377
-0.00887322
-0.00730025
-0.00580882
-0.00684669
-0.00492586
-0.0144536
-0.01283
-0.0108196
-0.00871736
-0.00615837
-0.00524173
-0.00406252
-0.00357145
-0.00589169
-0.00465795
-0.0015719
-0.00198086
-0.00240981
-0.00263417
-0.00217218
-0.00252621
-0.00210599
-0.0022717
-0.00343777
-0.00307798
-0.123503
-0.0995599
-0.0753564
-0.0592272
-0.0445234
-0.0350934
-0.0292548
-0.0304379
-0.028483
-0.03381
-0.162454
-0.115703
-0.082593
-0.0641843
-0.0475028
-0.0366596
-0.0301864
-0.0306333
-0.0279904
-0.0327375
-0.199968
-0.139957
-0.100301
-0.0736072
-0.0498842
-0.0374276
-0.0301126
-0.0303035
-0.0273507
-0.0315526
0.0470875
-0.0153008
-0.0865091
0.0479908
-0.0311363
-0.119976
0.0459056
-0.0505154
-0.146028
0.020849
-0.118147
-0.225382
0.00258213
-0.150787
-0.275204
-0.186032
-0.402262
-0.467833
0.21232
0.18455
0.114816
0.252287
0.215419
0.135565
0.303025
0.255527
0.162095
0.365298
0.300249
0.178775
0.432776
0.343303
0.186116
0.488593
0.355643
0.108856
0.0603591
0.0530197
0.0454369
0.0461347
0.0422529
0.0381316
0.0680409
0.0611594
0.0550452
0.0580139
0.0548164
0.0518815
0.0805388
0.0723006
0.0695167
0.0812432
0.0760162
0.0720778
0.106202
0.0959008
0.0960264
0.122537
0.111582
0.102199
0.149615
0.138532
0.120421
0.178723
0.161518
0.115122
0.0379232
0.0303306
0.0215316
0.0105032
-0.00316441
-0.0204993
-0.0412907
-0.0788362
-0.0993935
-0.23598
0.0343396
0.0305247
0.0254431
0.0189479
0.00968373
-0.00344068
-0.0169395
-0.0450682
-0.0551057
-0.10005
0.047962
0.0404316
0.0316901
0.0216574
0.00973682
-0.00514089
-0.0165497
-0.0414822
-0.0494425
-0.0884265
0.04843
0.0442868
0.0374107
0.0283593
0.0176313
0.00139999
-0.0111701
-0.0353688
-0.0433056
-0.0707594
0.0608236
0.0509826
0.0406589
0.0292477
0.0170004
0.00108606
-0.00963972
-0.0312788
-0.0384497
-0.0583493
0.0644079
0.0556098
0.0451728
0.0314059
0.0187562
0.000666727
-0.0098488
-0.0287873
-0.0351269
-0.050584
0.0780213
0.0601992
0.0452253
0.0272332
0.0140692
-0.00271439
-0.0115588
-0.0275586
-0.0329452
-0.0457664
0.0804364
0.0624023
0.043125
0.0231656
0.00894416
-0.00676444
-0.0141156
-0.0271627
-0.0315307
-0.0426924
0.078642
0.0544106
0.0332795
0.0154444
0.00299901
-0.0102217
-0.016274
-0.0271173
-0.0306215
-0.0405946
0.0696307
0.0445818
0.0217812
0.0051616
-0.0044757
-0.0141425
-0.0183021
-0.0272588
-0.0301199
-0.0390626
0.0421836
0.0224913
0.00712658
-0.00605256
-0.0129625
-0.0188274
-0.0206904
-0.027543
-0.0297698
-0.0376228
-0.0179456
-0.0295015
-0.0252947
-0.0264977
-0.0252428
-0.025499
-0.0240009
-0.0284519
-0.0293088
-0.0361501
-0.0799666
-0.0731608
-0.0561785
-0.0458493
-0.036557
-0.0313598
-0.0272043
-0.0296941
-0.0288974
-0.0349077
)
;

boundaryField
{
    outlet
    {
        type            fixedValue;
        value           uniform 0;
    }
    upperWall
    {
        type            symmetryPlane;
    }
    lowerWall
    {
        type            symmetryPlane;
    }
    inlet
    {
        type            zeroGradient;
    }
    cylinder
    {
        type            zeroGradient;
    }
    frontAndBack
    {
        type            empty;
    }
}


// ************************************************************************* //
