/*--------------------------------*- C++ -*----------------------------------*\
| =========                 |                                                 |
| \\      /  F ield         | OpenFOAM: The Open Source CFD Toolbox           |
|  \\    /   O peration     | Version:  2512                                  |
|   \\  /    A nd           | Website:  www.openfoam.com                      |
|    \\/     M anipulation  |                                                 |
\*---------------------------------------------------------------------------*/
FoamFile
{
    version     2.0;
    format      ascii;
    arch        "LSB;label=32;scalar=64";
    class       surfaceScalarField;
    location    "196.3";
    object      phi;
}
// * * * * * * * * * * * * * * * * * * * * * * * * * * * * * * * * * * * * * //

dimensions      [0 3 -1 0 0 0 0];

oriented        oriented;

internalField   nonuniform List<scalar> 
26232
(
-0.000412838
0.00216381
-0.00175097
-0.000833344
0.00434958
-0.00392907
-0.00064166
0.00486953
-0.00506121
0.000726048
0.00375436
-0.00512207
0.00384059
0.000818784
-0.00393333
0.00924187
-0.00419156
-0.00120972
0.0173837
-0.011448
0.00330614
0.0284213
-0.0208465
0.00980887
0.0420825
-0.0319257
0.0182646
0.0576282
-0.0439285
0.0283828
0.0739638
-0.0559718
0.0396362
0.0898526
-0.0672348
0.0513459
0.104166
-0.0771069
0.0627938
0.116107
-0.0852753
0.0733344
0.12536
-0.0917449
0.0824916
0.132116
-0.0967897
0.0900333
0.136951
-0.100838
0.0960032
0.140557
-0.104317
0.100711
0.143538
-0.107524
0.104543
0.146123
-0.110629
0.108044
0.148508
-0.113509
0.111123
0.150411
-0.116544
0.114641
0.151495
-0.118439
0.117355
-0.12158
0.121552
0.151522
-0.000214846
0.00237866
-0.000154709
0.00428944
0.000822795
0.00389203
0.00337491
0.00120225
0.00814508
-0.00395139
0.0156623
-0.0117088
0.0261201
-0.0219058
0.0391806
-0.033907
0.053954
-0.0466991
0.0691934
-0.059168
0.0836071
-0.0703854
0.096162
-0.0797897
0.106294
-0.0872387
0.11397
-0.0929514
0.119594
-0.0973688
0.123785
-0.100981
0.127127
-0.10418
0.130006
-0.107196
0.132602
-0.11012
0.134949
-0.112976
0.137187
-0.115747
0.139151
-0.118507
0.141672
-0.120959
-0.124269
0.144361
-2.51876e-06
0.00238118
0.00062461
0.00366231
0.00257231
0.00194433
0.00655353
-0.00277898
0.0132021
-0.0105999
0.0228132
-0.0213199
0.035058
-0.0341506
0.0489428
-0.0477918
0.0630891
-0.0608454
0.0761606
-0.0722395
0.0872218
-0.0814466
0.095912
-0.0884799
0.10241
-0.0937363
0.107232
-0.0977736
0.110973
-0.10111
0.114098
-0.104107
0.116882
-0.106963
0.119448
-0.109763
0.121859
-0.112531
0.124187
-0.115304
0.12645
-0.11801
0.128729
-0.120787
0.131033
-0.123263
-0.126164
0.132929
0.000187179
0.002194
0.00142314
0.00242635
0.00445289
-0.00108542
0.0100071
-0.00833315
0.0185349
-0.0191278
0.0298115
-0.0325965
0.0428026
-0.0471417
0.0560106
-0.0609998
0.0680371
-0.0728718
0.0780052
-0.0822076
0.0856919
-0.0891333
0.0913964
-0.0941845
0.0956681
-0.098008
0.0990442
-0.10115
0.101906
-0.103971
0.104469
-0.10667
0.106848
-0.109341
0.109105
-0.112019
0.111294
-0.114721
0.11342
-0.11743
0.115554
-0.120143
0.11766
-0.122894
0.119902
-0.125506
-0.128632
0.12237
0.000378174
0.00181582
0.00227101
0.000533518
0.00648257
-0.00529698
0.0136408
-0.0154914
0.0237361
-0.0292231
0.0357964
-0.0446568
0.0482204
-0.0595656
0.0594965
-0.0722759
0.0687272
-0.0821025
0.0757394
-0.0892198
0.0808795
-0.0942734
0.0846974
-0.0980024
0.0876974
-0.101008
0.090232
-0.103684
0.09251
-0.106249
0.0946472
-0.108808
0.0967036
-0.111398
0.0987133
-0.114029
0.100685
-0.116693
0.102646
-0.11939
0.104617
-0.122114
0.106597
-0.124873
0.108695
-0.127603
-0.130567
0.110629
0.000599835
0.00121599
0.00322686
-0.00209351
0.00867712
-0.0107472
0.0172568
-0.0240711
0.0282253
-0.0401916
0.0399374
-0.0563689
0.0507063
-0.0703346
0.0595073
-0.0810768
0.0661227
-0.0887179
0.0708923
-0.0939894
0.0743631
-0.0977442
0.0770368
-0.100676
0.0792685
-0.10324
0.0812704
-0.105686
0.083153
-0.108132
0.0849647
-0.110619
0.0867255
-0.113159
0.088444
-0.115748
0.0901375
-0.118387
0.0918207
-0.121073
0.0935123
-0.123806
0.0952317
-0.126592
0.097024
-0.129396
-0.132403
0.0988598
0.000869341
0.000346646
0.00429784
-0.00552201
0.0109258
-0.0173752
0.0204589
-0.0336042
0.0313764
-0.0511091
0.0417832
-0.0667757
0.0504019
-0.0789533
0.0568593
-0.0875342
0.0614324
-0.0932909
0.0646591
-0.0972162
0.0670565
-0.100142
0.0689985
-0.102618
0.0707076
-0.104949
0.0722955
-0.107274
0.0738103
-0.109647
0.0752736
-0.112083
0.0766991
-0.114584
0.0781017
-0.11715
0.0794938
-0.119779
0.0808884
-0.122468
0.082302
-0.12522
0.083736
-0.128026
0.0852273
-0.130887
-0.133861
0.0866851
0.00118123
-0.000834588
0.0054235
-0.00976427
0.012989
-0.0249407
0.0227967
-0.0434119
0.032827
-0.0611393
0.0414294
-0.0753782
0.0479359
-0.0854598
0.0524814
-0.0920798
0.0555746
-0.0963841
0.057756
-0.0993976
0.0594333
-0.101819
0.0608532
-0.104038
0.0621405
-0.106236
0.0633508
-0.108485
0.0645093
-0.110805
0.0656291
-0.113202
0.0667196
-0.115675
0.0677886
-0.118219
0.0688455
-0.120836
0.069902
-0.123525
0.0709669
-0.126284
0.0720567
-0.129116
0.0731895
-0.13202
-0.135008
0.0743369
0.00151661
-0.0023512
0.00649504
-0.0147427
0.0145874
-0.0330331
0.023977
-0.0528015
0.0325992
-0.0697615
0.0393214
-0.0821004
0.0440126
-0.0901509
0.047099
-0.0951663
0.0491397
-0.0984247
0.0505892
-0.100847
0.0517337
-0.102963
0.0527224
-0.105027
0.0536228
-0.107137
0.0544635
-0.109325
0.0552578
-0.1116
0.0560141
-0.113959
0.0567406
-0.116401
0.057447
-0.118926
0.0581441
-0.121533
0.0588415
-0.124222
0.0595498
-0.126993
0.0602763
-0.129843
0.0610259
-0.132769
-0.135759
0.0617767
0.00184604
-0.00419724
0.00738321
-0.0202799
0.0155082
-0.041158
0.0239554
-0.0612488
0.0309752
-0.0767813
0.0359805
-0.0871057
0.039209
-0.0933793
0.0412052
-0.0971625
0.0424779
-0.0996974
0.0433702
-0.101739
0.0440688
-0.103662
0.04466
-0.105618
0.0451797
-0.107656
0.0456436
-0.109789
0.0460611
-0.112017
0.0464405
-0.114338
0.0467899
-0.11675
0.0471177
-0.119253
0.0474321
-0.121847
0.047742
-0.124532
0.0480553
-0.127306
0.0483814
-0.130169
0.048726
-0.133114
-0.136123
0.0490899
0.00213666
-0.0063339
0.0079744
-0.0261176
0.0156696
-0.0488532
0.0228801
-0.0684593
0.0283254
-0.0822266
0.0318649
-0.0906452
0.0339448
-0.0954593
0.0351148
-0.0983326
0.0357913
-0.100374
0.0362161
-0.102164
0.0365051
-0.103951
0.036707
-0.10582
0.0368419
-0.107791
0.0369205
-0.109868
0.0369506
-0.112047
0.0369394
-0.114327
0.0368941
-0.116705
0.0368226
-0.119182
0.0367336
-0.121758
0.036636
-0.124434
0.0365383
-0.127208
0.0364456
-0.130076
0.0363561
-0.133024
-0.136039
0.0362719
0.00236295
-0.00869685
0.00820804
-0.0319627
0.0151286
-0.0557738
0.0209972
-0.0743279
0.0250086
-0.086238
0.0273355
-0.0929721
0.0285097
-0.0966335
0.0290244
-0.0988472
0.0291986
-0.100548
0.0291952
-0.102161
0.0290839
-0.10384
0.0288927
-0.105628
0.0286342
-0.107533
0.0283162
-0.10955
0.0279455
-0.111676
0.0275286
-0.11391
0.0270725
-0.116249
0.0265841
-0.118694
0.0260702
-0.121244
0.0255392
-0.123903
0.0249992
-0.126668
0.0244584
-0.129535
0.0239227
-0.132489
0.0234059
-0.135522
0.000179261
0.00493345
-0.00511271
0.000165943
0.0134851
-0.0134718
-0.000384443
0.0202184
-0.0196681
-0.00152093
0.0249988
-0.0238623
-0.00307157
0.0283691
-0.0268185
-0.00480946
0.031066
-0.0293281
-0.00653451
0.0336036
-0.0318785
-0.0080916
0.0361673
-0.0346103
-0.00934908
0.0386972
-0.0374398
-0.0101736
0.0410068
-0.0401824
-0.0104192
0.0428622
-0.0426166
-0.00993298
0.0440218
-0.0445079
-0.00856785
0.0442563
-0.0456215
-0.00619831
0.0433674
-0.0457369
-0.00272761
0.0411998
-0.0446705
0.0019157
0.0376517
-0.042295
0.00770511
0.0327207
-0.0385101
0.0145839
0.0264352
-0.033314
0.0224427
0.0188741
-0.0267328
0.0310635
0.0102027
-0.0188236
0.0402333
0.000534366
-0.00970411
0.0499632
-0.0104466
0.000716691
0.0599735
-0.0224485
0.0124383
-0.0361433
0.0704027
0.0257142
0.000511187
0.00442226
0.00127713
0.0127192
0.00176162
0.019734
0.0017673
0.0249931
0.00138899
0.0287474
0.000871995
0.031583
0.000473056
0.0340025
0.000398409
0.036242
0.000805914
0.0382897
0.00182778
0.039985
0.00358371
0.0411063
0.00618331
0.0414222
0.00971779
0.0407219
0.0142504
0.0388348
0.0198051
0.0356451
0.0263571
0.0310996
0.0338633
0.0252145
0.0422115
0.0180869
0.0512697
0.00981594
0.0607477
0.000724677
0.0708967
-0.00961464
0.0810677
-0.0206177
0.0913572
-0.0327379
-0.0468098
0.102024
0.000748096
0.00367417
0.0021811
0.0112862
0.00366198
0.0182531
0.00484429
0.0238108
0.00571223
0.0278795
0.00647259
0.0308226
0.00740473
0.0330704
0.00875876
0.034888
0.0107216
0.0363268
0.0134252
0.0372814
0.0169632
0.0375682
0.0213992
0.0369862
0.0267664
0.0353546
0.0330647
0.0325365
0.0402593
0.0284505
0.0482715
0.0230875
0.0570073
0.0164788
0.0662694
0.00882478
0.0759219
0.000163486
0.0859868
-0.00934025
0.0961479
-0.0197757
0.10643
-0.0308999
0.117116
-0.0434236
-0.0583445
0.12865
0.000857762
0.00281641
0.00273522
0.0094087
0.00502197
0.0159663
0.00727865
0.0215541
0.00935666
0.0258015
0.0113677
0.0288116
0.0135589
0.0308792
0.0161927
0.0322542
0.0194796
0.0330399
0.0235608
0.0332002
0.0285158
0.0326132
0.0343739
0.0311282
0.0411212
0.0286073
0.0487031
0.0249547
0.0570301
0.0201235
0.0659597
0.0141578
0.0753472
0.00709132
0.0849856
-0.000813598
0.0950093
-0.00986025
0.104952
-0.0192831
0.115339
-0.030163
0.126248
-0.041808
0.138372
-0.0555476
-0.0716224
0.151649
0.000838869
0.00197754
0.00287557
0.00737199
0.00563865
0.0132033
0.00869106
0.0185017
0.0117847
0.0227079
0.0149082
0.0256881
0.0182201
0.0275672
0.0219445
0.0285298
0.0262872
0.0286972
0.0313945
0.028093
0.037342
0.0266656
0.0441405
0.0243298
0.051743
0.0210047
0.0600515
0.0166462
0.0689318
0.0112432
0.0781896
0.0049
0.087782
-0.00250109
0.097578
-0.0106096
0.107663
-0.019945
0.118184
-0.0298045
0.129969
-0.0419482
0.142926
-0.0547644
0.157683
-0.0703047
-0.0865605
0.172621
0.000714319
0.00126322
0.00262219
0.00546412
0.00545253
0.0103729
0.00886625
0.015088
0.0125921
0.018982
0.0165206
0.0217597
0.0206991
0.0233886
0.0252679
0.0239611
0.0303855
0.0235796
0.0361762
0.0223022
0.0427036
0.0201382
0.049964
0.0170695
0.0578935
0.0130752
0.0663796
0.00816014
0.0752731
0.00234967
0.0846288
-0.00445574
0.0943958
-0.0122681
0.10478
-0.0209942
0.116239
-0.0314038
0.129164
-0.0427294
0.143983
-0.0567676
0.159876
-0.0706573
0.176562
-0.0869906
-0.100862
0.190863
0.00051509
0.000748128
0.00205521
0.003924
0.00455583
0.0078723
0.00783102
0.0118128
0.0116646
0.0151484
0.0159095
0.0175147
0.0205257
0.0187724
0.0255582
0.0189285
0.0310894
0.0180484
0.0371927
0.0161989
0.0439052
0.0134257
0.0512222
0.00975247
0.0591143
0.00518308
0.0675931
-0.000318662
0.0768239
-0.00688117
0.0869219
-0.0145537
0.0982618
-0.0236079
0.111297
-0.0340296
0.126181
-0.046288
0.142831
-0.0593793
0.160335
-0.0742708
0.177257
-0.0875799
0.192232
-0.101966
-0.111049
0.20242
0.000266854
0.000481274
0.00127531
0.00291554
0.0031425
0.00600511
0.00584071
0.00911455
0.00925259
0.0117365
0.0132533
0.0135141
0.0177646
0.0142611
0.0227666
0.0139265
0.028282
0.012533
0.0343577
0.0101232
0.0410639
0.00671956
0.0485112
0.00230517
0.0569061
-0.00321182
0.0665354
-0.00994798
0.0777119
-0.0180576
0.0908029
-0.0276447
0.105924
-0.0387293
0.122968
-0.0510735
0.141099
-0.0644193
0.159375
-0.0776551
0.175902
-0.090798
0.189494
-0.101172
0.198681
-0.111153
-0.115291
0.202924
-1.04712e-05
0.000491745
0.000389249
0.00251582
0.0014627
0.00493166
0.00331679
0.00726046
0.00594117
0.00911214
0.00927691
0.0101783
0.0132746
0.0102634
0.0179347
0.00926648
0.023331
0.00713669
0.029618
0.00383617
0.0370612
-0.000723574
0.0459951
-0.00662878
0.0567796
-0.0139963
0.0697058
-0.0228742
0.0848425
-0.0331943
0.101959
-0.0447617
0.120368
-0.057138
0.139082
-0.0697869
0.156607
-0.0819443
0.171764
-0.0928125
0.183004
-0.102038
0.190281
-0.108448
0.193346
-0.114219
-0.115883
0.193938
-0.000276492
0.000768238
-0.000454938
0.00269427
-0.000146481
0.00462321
0.000860618
0.00625336
0.00267376
0.007299
0.00535515
0.00749693
0.0089862
0.00663234
0.0137257
0.004527
0.0198534
0.00100901
0.0276874
-0.00399787
0.0375934
-0.0106296
0.0498414
-0.0188767
0.0644637
-0.0286186
0.0811749
-0.0395855
0.0993224
-0.0513418
0.117913
-0.0633525
0.135709
-0.0749335
0.151452
-0.0855297
0.163997
-0.0944894
0.172911
-0.101727
0.178012
-0.107139
0.180656
-0.111092
0.181346
-0.114909
-0.116495
0.181958
-0.000468457
0.00123669
-0.00104497
0.00327078
-0.00124259
0.00482084
-0.00073419
0.00574495
0.000729704
0.00583511
0.00339442
0.00483222
0.00755827
0.00246849
0.013583
-0.00149771
0.0218124
-0.00722038
0.0325596
-0.0147451
0.0458691
-0.0239391
0.061475
-0.0344826
0.0787477
-0.0458913
0.0967339
-0.0575716
0.114277
-0.0688854
0.13017
-0.0792449
0.143405
-0.0881689
0.153353
-0.0954776
0.159986
-0.101122
0.16394
-0.105681
0.166054
-0.109252
0.167833
-0.112872
0.169086
-0.116162
-0.11837
0.170962
-0.000514279
-0.00117257
-0.00141295
-0.000790064
0.00111172
0.00473421
0.0105088
0.01882
0.0298642
0.0435019
0.059199
0.0760623
0.0929648
0.108728
0.122334
0.133122
0.140956
0.14619
0.149611
0.151974
0.153846
0.155615
0.156807
0.15999
0.0789142
-0.0660839
0.0575723
0.087511
-0.095828
0.0872312
0.0955784
-0.124709
0.116642
0.102121
-0.146954
0.140412
0.105916
-0.15975
0.155955
0.106906
-0.164555
0.163565
0.106824
-0.164019
0.164101
0.105646
-0.159117
0.160294
0.101072
-0.154633
0.159207
0.0934151
-0.157043
0.1647
0.0875137
-0.162578
0.168479
0.0886343
-0.155533
0.154412
0.0970944
-0.121947
0.113487
0.109678
-0.0623693
0.0497856
0.123635
0.0119466
-0.0259038
0.136882
0.0855029
-0.09875
0.147948
0.141938
-0.153003
0.155352
0.174751
-0.182155
0.158829
0.189561
-0.193038
0.160191
0.193835
-0.195198
0.160852
0.191739
-0.192399
0.159773
0.193114
-0.192035
0.15556
0.209872
-0.205658
0.148708
0.235614
-0.228762
0.141328
0.242088
-0.234708
0.135626
0.201857
-0.196154
0.13336
0.110583
-0.108317
0.135008
-0.00830884
0.00666005
0.13953
-0.118093
0.113571
0.145724
-0.191025
0.184831
0.15112
-0.224539
0.219143
0.153016
-0.237612
0.235716
0.14935
-0.248391
0.252057
0.13996
-0.26038
0.269769
0.12779
-0.259826
0.271996
0.117354
-0.22275
0.233187
0.11269
-0.135911
0.140575
0.115909
-0.0153287
0.0121093
0.124815
0.100695
-0.109602
0.133342
0.184726
-0.193252
0.134713
0.241096
-0.242467
0.128607
0.285313
-0.279207
0.12034
0.298649
-0.290381
0.115334
0.254579
-0.249574
0.11644
0.146434
-0.14754
0.121819
0.00730586
-0.0126849
0.125
-0.117072
0.113891
0.123424
-0.230901
0.232477
0.120386
-0.297307
0.300345
0.118366
-0.301905
0.303925
0.117906
-0.212034
0.212494
0.117423
-0.0355705
0.036054
0.115403
0.137721
-0.135701
0.113146
0.314836
-0.312579
0.111706
0.334845
-0.333405
0.109384
0.21298
-0.210658
0.103836
0.0383273
-0.0327794
0.0982651
-0.271298
0.276869
0.0966564
-0.277972
0.27958
-0.037644
0.0410306
0.107436
-0.0714963
0.11261
-0.101002
0.116432
-0.128531
0.118178
-0.148701
0.117498
-0.15907
0.113943
-0.161
0.108924
-0.159
0.10422
-0.154413
0.098039
-0.148451
0.0883915
-0.147395
0.0782822
-0.152469
0.0740178
-0.151268
0.0790893
-0.127019
0.0914234
-0.0747035
0.107928
-0.00455805
0.125195
0.0682356
0.140577
0.126556
0.151833
0.163496
0.158654
0.18274
0.162857
0.189633
0.165852
0.188743
0.167206
0.19176
0.165917
0.211161
0.161865
0.239666
0.156028
0.247925
0.150196
0.20769
0.145976
0.114803
0.144478
-0.00681118
0.145377
-0.118991
0.148146
-0.193794
0.150608
-0.227001
0.150239
-0.237242
0.144954
-0.243106
0.134337
-0.249763
0.121483
-0.246972
0.111461
-0.212728
0.108287
-0.132737
0.113926
-0.0209675
0.125041
0.0895801
0.134794
0.174973
0.137061
0.238829
0.131852
0.290523
0.123632
0.306868
0.117717
0.260495
0.117606
0.146544
0.12253
0.00238121
0.125521
-0.120063
0.123198
-0.228577
0.119455
-0.293564
0.117176
-0.299627
0.117399
-0.212257
0.117523
-0.035694
0.116555
0.138689
0.115392
0.315999
0.113756
0.33648
0.111276
0.21546
0.104419
0.0451834
0.0974423
-0.264321
0.0973785
-0.277908
-0.0353645
0.13269
-0.0755362
0.135391
-0.103702
0.135204
-0.128344
0.131788
-0.145284
0.126186
-0.153468
0.119139
-0.153953
0.111076
-0.150936
0.103624
-0.146961
0.0962606
-0.141088
0.0858139
-0.136948
0.072807
-0.139462
0.063491
-0.141952
0.0639953
-0.127523
0.0748671
-0.0855752
0.0925304
-0.0222213
0.113179
0.0475871
0.132558
0.107176
0.147676
0.148378
0.158007
0.172409
0.165198
0.182442
0.170712
0.183229
0.174783
0.187689
0.17681
0.209134
0.176005
0.240471
0.172116
0.251814
0.166151
0.213655
0.159729
0.121224
0.154681
-0.0017631
0.151718
-0.116028
0.150938
-0.193015
0.150453
-0.226516
0.148028
-0.234817
0.141614
-0.236692
0.130253
-0.238402
0.116814
-0.233533
0.106968
-0.202883
0.105236
-0.131005
0.112787
-0.0285188
0.125724
0.0766435
0.136786
0.16391
0.140319
0.235297
0.136261
0.294581
0.128145
0.314984
0.121175
0.267465
0.119579
0.14814
0.123741
-0.00178044
0.126611
-0.122933
0.123588
-0.225554
0.118993
-0.28897
0.116308
-0.296941
0.117183
-0.213133
0.118108
-0.0366194
0.118241
0.138556
0.118118
0.316122
0.116336
0.338262
0.113779
0.218018
0.105821
0.0531415
0.0974756
-0.255975
0.0986491
-0.279081
-0.034196
0.154901
-0.0787879
0.155435
-0.104236
0.151899
-0.124809
0.144297
-0.137682
0.134252
-0.143423
0.123829
-0.143529
0.113425
-0.140533
0.103862
-0.137398
0.0957949
-0.133021
0.0860979
-0.127251
0.0724017
-0.125766
0.0590154
-0.128566
0.0540409
-0.122548
0.0613927
-0.092927
0.0786162
-0.0394448
0.101251
0.0249523
0.123744
0.0846827
0.142383
0.129739
0.156202
0.15859
0.166428
0.172216
0.174554
0.175102
0.181535
0.180708
0.187174
0.203496
0.189975
0.237669
0.188606
0.253183
0.182876
0.219385
0.174118
0.129982
0.165415
0.00693923
0.158562
-0.109175
0.154189
-0.188641
0.150755
-0.223081
0.146314
-0.230377
0.139054
-0.229431
0.127484
-0.226831
0.113755
-0.219805
0.103845
-0.192973
0.102989
-0.130149
0.112037
-0.0375667
0.126609
0.0620717
0.139217
0.151302
0.144367
0.230147
0.141642
0.297306
0.133788
0.322837
0.125829
0.275425
0.122474
0.151495
0.125539
-0.00484524
0.128243
-0.125637
0.124601
-0.221912
0.119034
-0.283403
0.11577
-0.293677
0.11725
-0.214613
0.119122
-0.0384906
0.120382
0.137296
0.121262
0.315242
0.119369
0.340155
0.116838
0.220549
0.108029
0.06195
0.0983375
-0.246284
0.100466
-0.28121
-0.0341179
0.174085
-0.0802523
0.171278
-0.101429
0.163642
-0.117173
0.152534
-0.126574
0.139771
-0.13066
0.127405
-0.131164
0.116029
-0.129157
0.105168
-0.126537
0.0959641
-0.123816
0.0874502
-0.118738
0.0754677
-0.113783
0.0605631
-0.113662
0.0504612
-0.112447
0.0526119
-0.0950777
0.0672728
-0.0541057
0.0900418
0.00218329
0.114343
0.0603811
0.135764
0.108318
0.152674
0.14168
0.165726
0.159165
0.176403
0.164425
0.186222
0.170889
0.195391
0.194327
0.202097
0.230963
0.203916
0.251364
0.199405
0.223896
0.189145
0.140243
0.176515
0.0195692
0.165649
-0.0983089
0.15762
-0.180612
0.151362
-0.216824
0.145046
-0.224061
0.137193
-0.221578
0.125892
-0.215531
0.112188
-0.2061
0.101991
-0.182777
0.101405
-0.129562
0.111393
-0.0475545
0.127369
0.0460957
0.141743
0.136928
0.149007
0.222883
0.148132
0.298182
0.140811
0.330158
0.131909
0.284326
0.126491
0.156913
0.127949
-0.00630301
0.130362
-0.128051
0.126201
-0.217751
0.119572
-0.276774
0.11554
-0.289645
0.117567
-0.21664
0.12049
-0.0414137
0.122893
0.134893
0.124753
0.313382
0.122769
0.342139
0.120388
0.22293
0.111008
0.0713305
0.1
-0.235277
0.102798
-0.284008
-0.0350989
0.188655
-0.0780442
0.181621
-0.0943946
0.170077
-0.105629
0.156223
-0.112721
0.142136
-0.116572
0.129106
-0.118134
0.117813
-0.117864
0.10728
-0.116004
0.0973769
-0.113914
0.0891701
-0.110531
0.0800506
-0.104664
0.0667827
-0.100394
0.0534938
-0.0991576
0.049465
-0.091049
0.0592551
-0.0638957
0.0797067
-0.0182683
0.104448
0.0356395
0.127811
0.0849554
0.147367
0.122124
0.162948
0.143584
0.175785
0.151588
0.187964
0.15871
0.200451
0.18184
0.211083
0.22033
0.216029
0.246418
0.212922
0.227003
0.202241
0.150924
0.187025
0.0347856
0.17245
-0.0837337
0.160993
-0.169155
0.152158
-0.207988
0.144064
-0.215968
0.135676
-0.21319
0.125094
-0.204949
0.111896
-0.192902
0.10126
-0.172141
0.100233
-0.128535
0.11054
-0.0578612
0.127681
0.0289545
0.144019
0.12059
0.15375
0.213151
0.155082
0.296849
0.148748
0.336493
0.139263
0.293811
0.131683
0.164493
0.130996
-0.00561637
0.132874
-0.129928
0.128317
-0.213194
0.120586
-0.269043
0.115582
-0.284642
0.118069
-0.219127
0.122119
-0.0454639
0.125672
0.131341
0.128502
0.310552
0.126449
0.344192
0.124328
0.225052
0.114706
0.0809529
0.102438
-0.223009
0.105606
-0.287176
-0.0370956
0.195653
-0.0712774
0.184844
-0.0835859
0.171156
-0.0919408
0.156533
-0.0980974
0.14261
-0.102649
0.129915
-0.105439
0.118771
-0.10672
0.108921
-0.106154
0.0993414
-0.104334
0.0908494
-0.102039
0.0837236
-0.0975378
0.0743701
-0.0910403
0.06164
-0.0864275
0.0524778
-0.0818867
0.0553313
-0.0667493
0.0708799
-0.033817
0.0942097
0.0123097
0.118468
0.0606971
0.140142
0.10045
0.158054
0.125671
0.172908
0.136735
0.186931
0.144686
0.201759
0.167012
0.215738
0.206351
0.224391
0.237765
0.223636
0.227758
0.212986
0.161574
0.19586
0.0519117
0.178385
-0.0662596
0.163977
-0.154746
0.152921
-0.196932
0.143287
-0.206334
0.134325
-0.204229
0.124667
-0.195291
0.112557
-0.180791
0.101542
-0.161126
0.0993587
-0.126352
0.109217
-0.06772
0.127208
0.0109639
0.145636
0.102162
0.15826
0.200527
0.162496
0.292614
0.157837
0.341152
0.147946
0.303703
0.138078
0.174361
0.134681
-0.00221943
0.13567
-0.130917
0.130838
-0.208361
0.122038
-0.260243
0.115859
-0.278463
0.118671
-0.221939
0.123918
-0.0507101
0.128628
0.12663
0.132432
0.306748
0.130322
0.346302
0.128554
0.226819
0.119038
0.0904692
0.105616
-0.209587
0.108849
-0.290409
-0.0400475
0.193144
-0.0614974
0.180811
-0.0712533
0.16732
-0.0784496
0.153945
-0.0847225
0.141416
-0.09012
0.129896
-0.09392
0.119295
-0.0961184
0.109922
-0.0967803
0.101296
-0.0957087
0.0929401
-0.0936825
0.086128
-0.0907257
0.0801586
-0.0850708
0.071409
-0.0776779
0.0609262
-0.071404
0.0568025
-0.0626255
0.0651433
-0.0421578
0.0845131
-0.00706013
0.108102
0.0371086
0.130951
0.0776007
0.150635
0.105987
0.167072
0.120297
0.182462
0.129297
0.199294
0.15018
0.216369
0.189277
0.228101
0.226033
0.229388
0.226471
0.219596
0.171366
0.202097
0.0694105
0.182948
-0.0471105
0.166299
-0.138097
0.15343
-0.184063
0.142543
-0.195447
0.132953
-0.194639
0.124173
-0.18651
0.113718
-0.170337
0.102735
-0.150143
0.0988401
-0.122457
0.107358
-0.0762375
0.125762
-0.00744078
0.146241
0.0816834
0.161829
0.184939
0.169173
0.285269
0.166938
0.343387
0.157315
0.313326
0.145428
0.186247
0.138997
0.00421147
0.138638
-0.130559
0.133628
-0.203351
0.123874
-0.250489
0.116333
-0.270921
0.119302
-0.224908
0.125777
-0.057185
0.131647
0.120761
0.136438
0.301957
0.134298
0.348442
0.132949
0.228168
0.123911
0.099507
0.109485
-0.195161
0.112489
-0.293413
-0.043874
0.184239
-0.0517985
0.173186
-0.0601998
0.161597
-0.0668613
0.150137
-0.0732621
0.139019
-0.0790017
0.128496
-0.0833968
0.118637
-0.0862603
0.109638
-0.0877813
0.101843
-0.0879136
0.0946527
-0.0864919
0.0879748
-0.0840477
0.0830402
-0.0801362
0.078533
-0.0731707
0.0714214
-0.0642923
0.0642546
-0.0554587
0.0649768
-0.04288
0.0773642
-0.0194475
0.0983269
0.0161458
0.121108
0.0548198
0.141807
0.085288
0.159156
0.102949
0.17507
0.113383
0.19279
0.13246
0.212122
0.169945
0.227638
0.210517
0.232603
0.221506
0.224378
0.179591
0.206522
0.0872668
0.186064
-0.0266523
0.167758
-0.119791
0.153492
-0.169798
0.141696
-0.183651
0.131475
-0.184418
0.123266
-0.178302
0.11481
-0.16188
0.104631
-0.139964
0.0989099
-0.116736
0.105145
-0.0824731
0.123053
-0.0253479
0.145472
0.0592643
0.16441
0.166001
0.17542
0.274259
0.17617
0.342638
0.167337
0.322159
0.153628
0.199956
0.143695
0.0141444
0.141652
-0.128515
0.136523
-0.198222
0.126017
-0.239983
0.116961
-0.261866
0.119862
-0.227809
0.127613
-0.0649363
0.134656
0.113718
0.140458
0.296154
0.138304
0.350596
0.137416
0.229056
0.129199
0.107725
0.113979
-0.179941
0.116486
-0.29592
-0.0484747
0.174081
-0.0439218
0.165041
-0.0511601
0.155363
-0.0571831
0.145478
-0.0633773
0.135562
-0.0690859
0.125918
-0.0737526
0.116916
-0.0772586
0.10865
-0.0795153
0.101338
-0.0806013
0.0951721
-0.0803259
0.0895383
-0.0784139
0.0846353
-0.0752333
0.0815833
-0.0701188
0.0788617
-0.0615707
0.0741342
-0.0507312
0.0705794
-0.0393252
0.0749647
-0.0238327
0.0899847
0.00112581
0.110941
0.0338638
0.131978
0.0642508
0.150023
0.084904
0.165895
0.0975105
0.18321
0.115145
0.203471
0.149684
0.221472
0.192516
0.228883
0.214095
0.222807
0.185666
0.206942
0.103132
0.187416
-0.00712675
0.168275
-0.10065
0.152898
-0.15442
0.140472
-0.171225
0.129741
-0.173687
0.121706
-0.170267
0.115211
-0.155386
0.106736
-0.131489
0.099694
-0.109693
0.102868
-0.0856468
0.119282
-0.0417618
0.14304
0.0355063
0.164875
0.144165
0.179476
0.259658
0.183766
0.338347
0.177115
0.32881
0.162045
0.215026
0.148963
0.0272267
0.144617
-0.12417
0.139339
-0.192944
0.128353
-0.228997
0.117687
-0.2512
0.120275
-0.230397
0.129323
-0.0739843
0.137532
0.105508
0.144357
0.28933
0.142259
0.352694
0.141855
0.22946
0.134802
0.114778
0.11903
-0.16417
0.120805
-0.297695
-0.0537284
0.164669
-0.0376291
0.156946
-0.0434374
0.148489
-0.0487261
0.139647
-0.0545351
0.13068
-0.0601189
0.121927
-0.0649997
0.11371
-0.0690412
0.106272
-0.0720771
0.0996067
-0.0739364
0.0939141
-0.0746334
0.0892983
-0.073798
0.0852567
-0.0711916
0.0822602
-0.0671224
0.0812768
-0.0605872
0.0807787
-0.0502332
0.0790868
-0.0376333
0.0794177
-0.0241637
0.0873787
-0.0068352
0.102832
0.0184109
0.121701
0.0453811
0.139502
0.067103
0.155454
0.0815589
0.172826
0.0977732
0.193843
0.128667
0.213941
0.172418
0.224716
0.20332
0.22127
0.189112
0.206651
0.117751
0.186479
0.0130454
0.167188
-0.0813597
0.151243
-0.138475
0.138611
-0.158593
0.127684
-0.16276
0.119511
-0.162094
0.11455
-0.150424
0.108418
-0.125357
0.10107
-0.102345
0.100898
-0.0854755
0.11458
-0.0554431
0.13897
0.0111163
0.164187
0.118948
0.182791
0.241054
0.190358
0.330781
0.185853
0.333315
0.170741
0.230138
0.154216
0.0437519
0.147378
-0.117332
0.141908
-0.187474
0.130804
-0.217892
0.118602
-0.238998
0.120448
-0.232243
0.130843
-0.084379
0.140258
0.0960938
0.148123
0.281464
0.146125
0.354692
0.146206
0.229378
0.140581
0.120404
0.124553
-0.148143
0.125415
-0.298556
-0.0594976
0.154724
-0.0323636
0.148035
-0.0367478
0.140823
-0.0415146
0.133109
-0.0468208
0.125233
-0.0522429
0.117589
-0.0573555
0.110369
-0.061822
0.103752
-0.0654595
0.0978338
-0.0680184
0.0925909
-0.0693904
0.0882623
-0.0694694
0.0848698
-0.0677991
0.0821074
-0.06436
0.0807466
-0.0592265
0.0815409
-0.0510274
0.0830477
-0.03914
0.0842729
-0.025389
0.0877432
-0.0103055
0.0973467
0.00880749
0.111345
0.0313825
0.126368
0.0520804
0.141053
0.0668739
0.157107
0.0817194
0.17698
0.108793
0.199011
0.150388
0.214004
0.188326
0.213892
0.189224
0.202577
0.129067
0.186219
0.0294034
0.167033
-0.0621729
0.150128
-0.12157
0.137073
-0.145539
0.126019
-0.151705
0.117397
-0.153472
0.113196
-0.146224
0.109416
-0.121577
0.102689
-0.0956178
0.0997441
-0.0825302
0.109706
-0.0654047
0.132785
-0.0119629
0.159794
0.091939
0.182255
0.218593
0.194352
0.318683
0.193281
0.334387
0.179082
0.244336
0.160483
0.0623506
0.150359
-0.107208
0.14445
-0.181566
0.133451
-0.206893
0.119975
-0.225522
0.120617
-0.232885
0.132049
-0.0958108
0.142639
0.0855035
0.15158
0.272524
0.149821
0.356451
0.150429
0.22877
0.146436
0.124396
0.130492
-0.132199
0.130282
-0.298346
-0.0656302
0.202519
-0.0279926
-0.20689
0.198984
-0.0332134
0.195303
-0.0378337
0.191064
-0.0425814
0.186172
-0.0473509
0.180722
-0.0519056
0.17484
-0.05594
0.168594
-0.0592138
0.162061
-0.0614847
0.15528
-0.0626101
0.148276
-0.0624649
0.141261
-0.0607843
0.134263
-0.057362
0.127221
-0.0521849
0.120684
-0.0444903
0.115099
-0.0335549
0.109892
-0.0201822
0.105206
-0.00561956
0.102385
0.0116287
0.103325
0.0304426
0.10827
0.0471353
0.116283
0.0588612
0.126171
0.0718311
0.137576
0.0973883
0.149614
0.13835
0.160281
0.177659
0.172909
0.176597
0.189028
0.112947
0.199462
0.0189696
0.199673
-0.0623839
0.191766
-0.113664
0.180397
-0.13417
0.167945
-0.139253
0.155601
-0.141128
0.14599
-0.136612
0.136955
-0.112542
0.125247
-0.0839098
0.115993
-0.073276
0.116824
-0.0662364
0.128074
-0.023213
0.140895
0.0791183
0.152212
0.207276
0.161154
0.309741
0.167524
0.328017
0.169248
0.242612
0.165916
0.0656822
0.1634
-0.104691
0.15886
-0.177025
0.147944
-0.195977
0.131814
-0.209393
0.125667
-0.226738
0.128754
-0.0988976
0.131624
0.0826334
0.136647
0.267501
0.136687
0.356411
0.140667
0.224789
0.141033
0.124031
0.12759
-0.118756
0.124085
-0.294841
-0.069278
0.210524
-0.0245195
-0.213998
0.206765
-0.0294541
0.202918
-0.0339869
0.198615
-0.0382785
0.193729
-0.042464
0.188255
-0.0464319
0.182288
-0.0499732
0.175946
-0.0528722
0.169333
-0.0548708
0.16259
-0.0558674
0.155817
-0.0556922
0.149141
-0.0541081
0.142788
-0.0510085
0.136833
-0.0462307
0.131366
-0.0390231
0.126918
-0.0291063
0.123616
-0.0168803
0.120609
-0.00261282
0.117952
0.0142854
0.11646
0.031935
0.117697
0.0458984
0.122624
0.0539339
0.131245
0.0632101
0.14244
0.0861937
0.153783
0.127007
0.165598
0.165844
0.183065
0.159129
0.20294
0.0930728
0.214302
0.00760793
0.212487
-0.0605688
0.202565
-0.103742
0.189991
-0.121596
0.177287
-0.126549
0.164744
-0.128585
0.155127
-0.126996
0.147373
-0.104788
0.136802
-0.0733386
0.126498
-0.0629716
0.125438
-0.0651767
0.136516
-0.0342914
0.151119
0.0645155
0.164801
0.193594
0.176267
0.298276
0.184848
0.319436
0.187567
0.239893
0.183569
0.0696802
0.178708
-0.0998307
0.17253
-0.170847
0.160561
-0.184009
0.142515
-0.191346
0.13546
-0.219683
0.139531
-0.102969
0.142986
0.0791785
0.148586
0.261902
0.148843
0.356153
0.153381
0.220252
0.155202
0.12221
0.141164
-0.104718
0.136216
-0.289893
-0.0727899
0.218563
-0.0218135
-0.221269
0.215218
-0.0261087
0.211515
-0.0302839
0.207426
-0.034189
0.202853
-0.0378916
0.197771
-0.0413501
0.192228
-0.0444298
0.18633
-0.0469744
0.18019
-0.0487309
0.173898
-0.0495751
0.167547
-0.0493415
0.161236
-0.0477967
0.155067
-0.0448392
0.149219
-0.0403832
0.143918
-0.0337222
0.139597
-0.0247848
0.136789
-0.0140723
0.135474
-0.00129793
0.134604
0.0151554
0.133818
0.0327209
0.133719
0.0459968
0.135382
0.0522716
0.139515
0.0590767
0.146203
0.0795053
0.155976
0.117234
0.172396
0.149424
0.196934
0.134592
0.2195
0.0705064
0.229096
-0.00198759
0.225351
-0.0568242
0.214493
-0.0928839
0.201811
-0.108914
0.189359
-0.114097
0.176556