/*--------------------------------*- C++ -*----------------------------------*\
| =========                 |                                                 |
| \\      /  F ield         | OpenFOAM: The Open Source CFD Toolbox           |
|  \\    /   O peration     | Version:  2512                                  |
|   \\  /    A nd           | Website:  www.openfoam.com                      |
|    \\/     M anipulation  |                                                 |
\*---------------------------------------------------------------------------*/
FoamFile
{
    version     2.0;
    format      ascii;
    arch        "LSB;label=32;scalar=64";
    class       surfaceScalarField;
    location    "86.2";
    object      phi;
}
// * * * * * * * * * * * * * * * * * * * * * * * * * * * * * * * * * * * * * //

dimensions      [0 3 -1 0 0 0 0];

oriented        oriented;

internalField   nonuniform List<scalar> 
26232
(
-0.000472516
0.00183708
-0.00136456
-0.00112842
0.0039063
-0.00325039
-0.00140762
0.00472708
-0.00444788
-0.00080675
0.00431169
-0.00491257
0.00117363
0.0025174
-0.00449777
0.00504437
-0.00089179
-0.00297895
0.0112345
-0.00613386
-5.62346e-05
0.0201404
-0.0132669
0.00436095
0.0317811
-0.0221379
0.0104972
0.0458581
-0.0323155
0.0182386
0.0617062
-0.0431845
0.0273364
0.0783879
-0.0540654
0.0373838
0.094842
-0.0643329
0.0478788
0.110057
-0.0735071
0.0582924
0.123237
-0.0813125
0.0681324
0.133937
-0.0877017
0.0770019
0.142148
-0.0928454
0.084634
0.148233
-0.0970735
0.0909889
0.152894
-0.100767
0.0961052
0.156683
-0.104311
0.100523
0.160242
-0.107691
0.104131
0.163367
-0.111472
0.108347
0.165702
-0.114064
0.111729
-0.118178
0.11707
0.16681
-0.000277793
0.00211487
-0.000474708
0.00410321
-1.37764e-05
0.00426614
0.00167859
0.00261933
0.00519024
-0.000994256
0.0110606
-0.00676219
0.0196529
-0.0147261
0.0309967
-0.0246108
0.0446529
-0.0357941
0.059769
-0.0474316
0.0752443
-0.0586597
0.089958
-0.0687792
0.102991
-0.0773663
0.113793
-0.084309
0.122255
-0.0897744
0.128678
-0.0941243
0.133618
-0.0977856
0.13768
-0.101135
0.141312
-0.104399
0.144671
-0.107671
0.147888
-0.110908
0.150605
-0.114188
0.153647
-0.117106
-0.121
0.156468
-7.3674e-05
0.00218854
0.000269919
0.00375962
0.00163054
0.00290553
0.00464659
-0.000396723
0.00993874
-0.0062864
0.0179503
-0.0147737
0.0287185
-0.0254943
0.0417233
-0.0376156
0.0559549
-0.0500257
0.0701771
-0.0616538
0.0832489
-0.0717316
0.0943831
-0.0799133
0.103277
-0.0862605
0.110097
-0.0911285
0.115326
-0.0950037
0.119544
-0.0983424
0.123225
-0.101467
0.126637
-0.104547
0.129861
-0.107623
0.13293
-0.11074
0.135828
-0.113806
0.138664
-0.117024
0.141501
-0.119943
-0.123445
0.143947
0.000104477
0.00208407
0.00100425
0.00285984
0.00335674
0.000553039
0.00784732
-0.0048873
0.0150222
-0.0134613
0.0250032
-0.0247546
0.0372426
-0.0377338
0.0506038
-0.0509767
0.0637304
-0.0631523
0.0754708
-0.0733942
0.0851623
-0.0814231
0.0927031
-0.0874541
0.0984313
-0.0919887
0.102892
-0.0955889
0.106601
-0.0987127
0.109908
-0.10165
0.112987
-0.104546
0.115898
-0.107458
0.118692
-0.110417
0.121371
-0.113419
0.124032
-0.116466
0.126602
-0.119595
0.129225
-0.122565
-0.126114
0.131893
0.000269688
0.00181438
0.0017594
0.00137013
0.00520269
-0.00289025
0.0112599
-0.0109445
0.0202046
-0.022406
0.0315539
-0.036104
0.044089
-0.0502689
0.056328
-0.0632157
0.0670767
-0.073901
0.0757431
-0.0820606
0.082346
-0.0880261
0.0873062
-0.0924142
0.0911679
-0.0958505
0.0943888
-0.0988098
0.0972599
-0.101584
0.0999355
-0.104325
0.102491
-0.107102
0.104979
-0.109945
0.107416
-0.112854
0.109824
-0.115827
0.112205
-0.118848
0.114539
-0.121928
0.116959
-0.124985
-0.128351
0.119196
0.000459914
0.00135446
0.00261507
-0.000785022
0.00723958
-0.00751476
0.0148172
-0.0185221
0.0250612
-0.03265
0.0367587
-0.0478015
0.0482943
-0.0618044
0.0583657
-0.0732872
0.0663665
-0.0819018
0.0723534
-0.0880475
0.0767731
-0.0924458
0.0801611
-0.0958023
0.0829512
-0.0986405
0.0854224
-0.101281
0.0877304
-0.103892
0.0899528
-0.106548
0.0921251
-0.109274
0.0942528
-0.112073
0.0963402
-0.114941
0.0983873
-0.117874
0.10041
-0.120871
0.102423
-0.123941
0.104468
-0.12703
-0.130355
0.106473
0.000698776
0.000655688
0.00360499
-0.00369123
0.00942695
-0.0133367
0.0182206
-0.0273158
0.0289465
-0.0433758
0.039881
-0.0587361
0.0495296
-0.071453
0.0571613
-0.0809188
0.0627861
-0.0875266
0.0668394
-0.0921008
0.0698543
-0.0954607
0.0722682
-0.0982161
0.0743678
-0.10074
0.076312
-0.103225
0.078175
-0.105755
0.0799848
-0.108357
0.0817486
-0.111038
0.0834743
-0.113799
0.0851708
-0.116638
0.0868509
-0.119554
0.0885283
-0.122548
0.0901961
-0.125609
0.0918958
-0.12873
-0.131993
0.0935337
0.000987323
-0.000331634
0.0046916
-0.00739551
0.0115715
-0.0202166
0.021008
-0.0367523
0.0312985
-0.0536663
0.0406859
-0.0681235
0.0481844
-0.0789516
0.053661
-0.0863954
0.0575006
-0.0913662
0.0602381
-0.0948383
0.0623325
-0.0975551
0.0640909
-0.0999745
0.0656829
-0.102332
0.0671869
-0.104729
0.0686341
-0.107202
0.0700372
-0.10976
0.0714051
-0.112406
0.072744
-0.115138
0.0740595
-0.117953
0.075357
-0.120852
0.0766394
-0.12383
0.0779193
-0.126889
0.0792138
-0.130025
-0.133256
0.0804766
0.00130793
-0.00163957
0.00577972
-0.0118673
0.0133937
-0.0278306
0.0227715
-0.0461301
0.0319178
-0.0628126
0.039453
-0.0756586
0.0449732
-0.0844719
0.0487511
-0.0901733
0.051312
-0.0939271
0.0531468
-0.0966731
0.0545963
-0.0990046
0.0558523
-0.10123
0.0570055
-0.103485
0.0580938
-0.105818
0.0591331
-0.108241
0.0601309
-0.110758
0.061092
-0.113367
0.0620214
-0.116067
0.0629262
-0.118858
0.0638139
-0.121739
0.0646943
-0.124711
0.0655723
-0.127767
0.0664519
-0.130904
-0.134114
0.0673094
0.00163656
-0.00327613
0.00674539
-0.0169761
0.0146347
-0.0357199
0.0233296
-0.054825
0.0309651
-0.0704481
0.0366959
-0.0813894
0.0405724
-0.0883483
0.0430706
-0.0926715
0.0447138
-0.0955703
0.0458913
-0.0978507
0.0468317
-0.0999449
0.0476465
-0.102045
0.0483836
-0.104222
0.0490621
-0.106496
0.0496905
-0.10887
0.0502745
-0.111342
0.0508201
-0.113913
0.051334
-0.116581
0.0518225
-0.119346
0.0522918
-0.122209
0.0527458
-0.125165
0.0531912
-0.128212
0.0536316
-0.131345
-0.134544
0.054062
0.0019404
-0.00521653
0.0074647
-0.0225004
0.015144
-0.0433992
0.0227419
-0.0624229
0.0287872
-0.0764934
0.0329285
-0.0855306
0.0355011
-0.090921
0.0370395
-0.0942099
0.0379931
-0.096524
0.0386442
-0.0985018
0.0391368
-0.100437
0.0395334
-0.102442
0.0398591
-0.104548
0.0401246
-0.106762
0.0403365
-0.109082
0.0405006
-0.111506
0.0406226
-0.114035
0.0407081
-0.116666
0.0407634
-0.119402
0.0407948
-0.12224
0.0408093
-0.125179
0.0408102
-0.128213
0.0407945
-0.131329
-0.134514
0.0407646
0.00219166
-0.00740819
0.00785256
-0.0281613
0.0149155
-0.0504622
0.0212212
-0.0687286
0.0257678
-0.08104
0.028577
-0.0883398
0.0301261
-0.0924701
0.030921
-0.0950047
0.0313156
-0.0969186
0.0315031
-0.0986893
0.0315704
-0.100505
0.0315523
-0.102424
0.0314629
-0.104459
0.0313097
-0.106608
0.0310981
-0.10887
0.0308332
-0.111242
0.0305203
-0.113722
0.0301652
-0.116311
0.0297739
-0.11901
0.0293523
-0.121819
0.028906
-0.124733
0.0284398
-0.127747
0.027956
-0.130845
0.0274668
-0.134025
-0.00058504
0.000201342
0.000383697
-0.00187177
0.00308179
-0.00179506
-0.00372796
0.00676125
-0.00490506
-0.00608031
0.0102959
-0.00794351
-0.00882551
0.0134706
-0.0107254
-0.0118387
0.0165116
-0.0134984
-0.0150041
0.0197191
-0.0165537
-0.018222
0.0232652
-0.0200472
-0.0213916
0.0271755
-0.024006
-0.0243907
0.0313851
-0.028386
-0.0270667
0.0357798
-0.0331038
-0.0292364
0.0402086
-0.038039
-0.0306907
0.0444838
-0.0430295
-0.0312033
0.0483822
-0.0478695
-0.0305426
0.0516505
-0.0523112
-0.0284883
0.0540184
-0.0560728
-0.0248503
0.0552143
-0.0588523
-0.0194885
0.0549846
-0.0603464
-0.0123263
0.0531136
-0.0602758
-0.00335452
0.049446
-0.0584177
0.00734534
0.0439117
-0.0546116
0.0196156
0.0364994
-0.0487696
0.0330673
0.0274993
-0.0409511
0.0165801
0.0477412
-0.0312539
-0.0003424
0.000543743
-0.00109277
0.00383216
-0.00224664
0.00791511
-0.00381763
0.0118668
-0.00573302
0.015386
-0.00784305
0.0186216
-0.00997803
0.0218541
-0.011986
0.0252731
-0.0137291
0.0289187
-0.0150663
0.0327223
-0.0158371
0.0365507
-0.0158619
0.0402333
-0.0149504
0.0435724
-0.0129122
0.0463439
-0.00956602
0.0483043
-0.00475904
0.0492114
0.00161845
0.0488368
0.00961698
0.046986
0.0192113
0.0435193
0.030336
0.0383213
0.0427522
0.0314955
0.0563839
0.0228676
0.0706641
0.0132191
0.00162379
0.0856204
-9.28853e-05
0.000636628
-0.00026458
0.00400385
-0.000613137
0.00826367
-0.00124336
0.0124971
-0.00214026
0.0162829
-0.00316037
0.0196417
-0.00409803
0.0227918
-0.0047497
0.0259248
-0.00493995
0.0291089
-0.00451024
0.0322926
-0.00330797
0.0353484
-0.00117928
0.0381046
0.00203181
0.0403613
0.00647065
0.0419051
0.0122503
0.0425247
0.0194465
0.0420152
0.0280829
0.0402004
0.0381343
0.0369347
0.0494837
0.0321699
0.0620234
0.0257816
0.0753908
0.0181281
0.0895364
0.00872202
0.103847
-0.00109124
-0.0131675
0.118638
0.000109701
0.000526927
0.000442988
0.00367057
0.000861999
0.00784466
0.00120092
0.0121581
0.00139814
0.0160857
0.00154642
0.0194934
0.00184722
0.022491
0.002533
0.025239
0.00381608
0.0278259
0.00587345
0.0302352
0.00885536
0.0323665
0.0128923
0.0340677
0.0180927
0.0351609
0.0245376
0.0354601
0.0322762
0.0347861
0.0413093
0.0329821
0.0515952
0.0299145
0.0630113
0.0255186
0.0754006
0.0197806
0.0885606
0.0126216
0.102032
0.00465678
0.116073
-0.00531875
0.129866
-0.0148849
-0.0273691
0.144068
0.000230548
0.00029638
0.000908018
0.0029931
0.00191847
0.00683421
0.00308878
0.0109878
0.00430111
0.0148734
0.00557328
0.0182213
0.00705318
0.0210111
0.00895835
0.0233338
0.0115122
0.025272
0.0149068
0.0268405
0.0192922
0.0279811
0.0247775
0.0285824
0.0314334
0.0285051
0.0392884
0.0276051
0.0483334
0.0257411
0.058487
0.0228285
0.0696684
0.018733
0.0816353
0.0135518
0.0942617
0.00715416
0.107221
-0.000337901
0.120594
-0.00871637
0.134198
-0.0189219
0.147852
-0.0285395
-0.0424218
0.162905
0.00025862
3.77598e-05
0.00106303
0.00218868
0.00237615
0.0055211
0.00407779
0.0092862
0.00604317
0.012908
0.00822978
0.0160347
0.0107081
0.0185328
0.0136344
0.0204075
0.0171993
0.0217071
0.0215822
0.0224577
0.0269245
0.0226388
0.0333189
0.0221881
0.0408063
0.0210176
0.0493725
0.0190389
0.0589616
0.016152
0.0694424
0.0123477
0.0807153
0.00746012
0.0924888
0.0017783
0.105013
-0.00537037
0.117878
-0.0132024
0.131677
-0.0225152
0.146203
-0.0334483
0.162327
-0.0446633
-0.0604236
0.180329
0.000198563
-0.000160803
0.000905951
0.00148129
0.002187
0.00424005
0.00401407
0.00745913
0.00630736
0.0106147
0.00900746
0.0133346
0.0121232
0.0154171
0.015735
0.0167957
0.0199675
0.0174746
0.024952
0.0174731
0.0307962
0.0167945
0.0375661
0.0154182
0.0452805
0.0133033
0.0539163
0.010403
0.063426
0.00664236
0.0737529
0.00202084
0.0849789
-0.00376592
0.0971705
-0.0104133
0.110559
-0.0187593
0.125174
-0.0278167
0.14194
-0.0392816
0.159822
-0.0513306
0.180079
-0.0649199
-0.0804055
0.200061
6.20504e-05
-0.000222853
0.000477148
0.0010662
0.00141962
0.00329758
0.00296263
0.00591612
0.00509874
0.00847857
0.00779262
0.0106407
0.0110279
0.0121818
0.0148286
0.012995
0.0192548
0.0130484
0.024384
0.012344
0.0302936
0.010885
0.0370567
0.00865505
0.044749
0.00561101
0.053472
0.00168003
0.063385
-0.00327072
0.0747354
-0.00932952
0.0876757
-0.0167063
0.102569
-0.0253069
0.119404
-0.0355938
0.138172
-0.0465846
0.15854
-0.0596503
0.178981
-0.0717716
0.19973
-0.0856682
-0.0971657
0.21649
-0.000137006
-8.58472e-05
-0.000148694
0.00107788
0.000242333
0.00290655
0.00119737
0.00496108
0.00278257
0.00689337
0.0050124
0.00841084
0.00788691
0.00930727
0.0114249
0.00945693
0.0156853
0.00878805
0.020776
0.00725329
0.0268533
0.0048076
0.0341411
0.00136723
0.0429024
-0.00315028
0.0534421
-0.00885968
0.0660052
-0.0158338
0.0807986
-0.0241229
0.0977364
-0.033644
0.116707
-0.0442779
0.136882
-0.0557685
0.157763
-0.0674655
0.177616
-0.079503
0.195525
-0.0896807
0.210242
-0.100386
-0.106361
0.219438
-0.000353816
0.000267968
-0.00082726
0.00155133
-0.00104345
0.00312274
-0.000763909
0.00468155
0.000153271
0.00597619
0.00179058
0.00677353
0.00425039
0.00684746
0.00764155
0.00606577
0.0121541
0.00427553
0.0180635
0.00134387
0.0256794
-0.00280829
0.0353211
-0.00827449
0.0472505
-0.0150797
0.0615699
-0.0231791
0.078157
-0.0324209
0.0966431
-0.0426091
0.116343
-0.053344
0.136416
-0.0643513
0.155599
-0.0749514
0.17305
-0.0849162
0.187138
-0.093591
0.198011
-0.100553
0.204439
-0.106813
-0.109707
0.207784
-0.000526083
0.000794052
-0.00134088
0.00236612
-0.00198599
0.00376785
-0.00214634
0.0048419
-0.00157717
0.00540701
-4.71811e-05
0.00524355
0.00266937
0.0041309
0.00689275
0.00184239
0.0129715
-0.00180318
0.0212262
-0.00691085
0.0319269
-0.013509
0.0451467
-0.0214944
0.0607153
-0.0306483
0.0781852
-0.0406489
0.0968532
-0.0510889
0.115791
-0.0615466
0.133971
-0.0715239
0.150331
-0.0807117
0.163978
-0.0885978
0.174462
-0.0954009
0.181503
-0.100632
0.186354
-0.105404
0.188931
-0.109391
-0.112464
0.191689
-0.000570508
-0.00145477
-0.00213481
-0.00220547
-0.00129623
0.000968369
0.00504304
0.0112464
0.0199404
0.0312681
0.0450955
0.0609849
0.0782154
0.0958588
0.112902
0.128358
0.141468
0.151745
0.159252
0.164374
0.167873
0.170816
0.173155
0.177761
0.0642578
0.00863636
-0.025153
0.0786413
-0.0143585
-2.5056e-05
0.0912057
-0.0409718
0.0284074
0.102154
-0.0724484
0.0615004
0.111778
-0.107238
0.0976137
0.119519
-0.139006
0.131265
0.124751
-0.160834
0.155602
0.127026
-0.170115
0.16784
0.126361
-0.170848
0.171512
0.124427
-0.168288
0.170222
0.122216
-0.163528
0.165739
0.118172
-0.160059
0.164103
0.111321
-0.164385
0.171236
0.104402
-0.173611
0.18053
0.102225
-0.17016
0.172337
0.10664
-0.13549
0.131074
0.116078
-0.0679873
0.058549
0.127902
0.017205
-0.0290283
0.140062
0.0974882
-0.109648
0.150357
0.154412
-0.164706
0.156789
0.186215
-0.192647
0.160058
0.200384
-0.203653
0.162081
0.201896
-0.203918
0.16251
0.200333
-0.200763
0.159715
0.211584
-0.20879
0.15364
0.238475
-0.232399
0.14589
0.25616
-0.24841
0.138314
0.232384
-0.224808
0.132912
0.151738
-0.146335
0.131947
0.0324485
-0.0314842
0.135398
-0.0879367
0.084486
0.141582
-0.174449
0.168264
0.147428
-0.222921
0.217076
0.149768
-0.242991
0.24065
0.145652
-0.255394
0.25951
0.135251
-0.26534
0.275742
0.122816
-0.261496
0.273931
0.113566
-0.21605
0.2253
0.111555
-0.116862
0.118873
0.117969
0.00522263
-0.0116368
0.128048
0.117458
-0.127537
0.133888
0.192746
-0.198585
0.131528
0.257726
-0.255367
0.124856
0.292452
-0.28578
0.119675
0.290588
-0.285407
0.119048
0.211053
-0.210425
0.122665
0.079906
-0.0835228
0.125447
-0.0581821
0.0554001
0.125058
-0.198974
0.199363
0.122382
-0.281059
0.283734
0.120411
-0.324717
0.326688
0.118431
-0.228063
0.230043
0.118476
-0.0729101
0.0728658
0.118711
0.0712676
-0.0715028
0.119331
0.262981
-0.263601
0.119574
0.302683
-0.302926
0.120197
0.35816
-0.358783
0.117506
0.209591
-0.2069
0.112873
-0.255603
0.260236
-0.241968
0.243957
0.0981662
-0.00390947
0.108901
-0.0250929
0.117839
-0.0499104
0.125489
-0.0800983
0.131727
-0.113476
0.135316
-0.142595
0.135553
-0.161071
0.133066
-0.167628
0.128468
-0.16625
0.122989
-0.162809
0.118048
-0.158587
0.112182
-0.154193
0.103335
-0.155538
0.093311
-0.163587
0.0875187
-0.164368
0.0900138
-0.137985
0.099888
-0.0778615
0.114744
0.00234883
0.130957
0.0812756
0.144997
0.140371
0.154744
0.176468
0.161039
0.19409
0.165583
0.197351
0.168312
0.197605
0.168214
0.211682
0.164951
0.241737
0.15912
0.261991
0.151938
0.239565
0.145289
0.158387
0.141548
0.0361895
0.141566
-0.0879546
0.144325
-0.177207
0.147165
-0.225761
0.147435
-0.243261
0.142053
-0.250012
0.130651
-0.253938
0.117712
-0.248557
0.109219
-0.207558
0.10896
-0.116603
0.117599
-0.00341621
0.128865
0.106192
0.135315
0.186296
0.133637
0.259405
0.127268
0.298821
0.121726
0.296131
0.120261
0.212518
0.12347
0.076697
0.12608
-0.0607921
0.124978
-0.197872
0.121448
-0.277529
0.119199
-0.322469
0.118067
-0.226931
0.11851
-0.0733526
0.119418
0.0703597
0.120188
0.262211
0.120982
0.301889
0.12252
0.356622
0.118963
0.213147
0.1135
-0.250139
-0.240356
0.127219
-0.0124907
0.134757
-0.0326307
0.141253
-0.0564064
0.146443
-0.0852883
0.149583
-0.116617
0.149291
-0.142303
0.145018
-0.156798
0.138365
-0.160974
0.130726
-0.158611
0.122632
-0.154715
0.11533
-0.151284
0.108192
-0.147055
0.0981779
-0.145524
0.0856022
-0.151011
0.0760878
-0.154854
0.0756683
-0.137565
0.0853395
-0.0875327
0.102277
-0.0145885
0.121705
0.0618473
0.13919
0.122886
0.152251
0.163408
0.161609
0.184732
0.168798
0.190162
0.174116
0.192286
0.177056
0.208742
0.176934
0.241859
0.173333
0.265592
0.166698
0.2462
0.158754
0.166331
0.151969
0.0429744
0.148334
-0.0843188
0.147575
-0.176448
0.147357
-0.225544
0.145698
-0.241602
0.139524
-0.243838
0.127567
-0.241981
0.114112
-0.235103
0.10608
-0.199525
0.107422
-0.117945
0.117708
-0.0137017
0.130082
0.093818
0.137407
0.17897
0.13669
0.260122
0.130646
0.304865
0.124545
0.302232
0.122037
0.215026
0.124691
0.0740423
0.127206
-0.0633065
0.125489
-0.196155
0.121009
-0.27305
0.118353
-0.319812
0.118089
-0.226668
0.118998
-0.0742615
0.120517
0.0688416
0.121422
0.261305
0.122715
0.300596
0.125148
0.354189
0.120886
0.21741
0.114664
-0.243918
-0.239011
0.150092
-0.0185144
0.15585
-0.0383886
0.161249
-0.061806
0.165065
-0.0891037
0.165139
-0.116691
0.160427
-0.137591
0.151863
-0.148234
0.141768
-0.150879
0.132013
-0.148856
0.122498
-0.1452
0.113567
-0.142353
0.105551
-0.139039
0.095773
-0.135746
0.0823108
-0.137549
0.0695672
-0.14211
0.0653036
-0.133301
0.0731451
-0.0953742
0.0904819
-0.0319254
0.112261
0.0400678
0.132647
0.102501
0.148854
0.1472
0.161195
0.172391
0.170944
0.180413
0.178944
0.184286
0.185305
0.202382
0.188815
0.238349
0.187859
0.266548
0.182094
0.251965
0.172828
0.175596
0.162979
0.0528239
0.155667
-0.0770067
0.151414
-0.172195
0.148103
-0.222234
0.144422
-0.237922
0.137752
-0.237168
0.125799
-0.230027
0.111979
-0.221283
0.103995
-0.191541
0.106399
-0.120349
0.118013
-0.0253158
0.131576
0.0802547
0.140094
0.170452
0.140549
0.259667
0.134887
0.310526
0.128171
0.308947
0.124462
0.218736
0.126357
0.0721467
0.128799
-0.0657477
0.126593
-0.19395
0.121089
-0.267546
0.11787
-0.316592
0.118391
-0.22719
0.11989
-0.0757605
0.121983
0.0667485
0.123014
0.260274
0.124711
0.2989
0.128024
0.350875
0.123237
0.222198
0.116346
-0.237028
-0.237854
0.168657
-0.0242663
0.174302
-0.0440334
0.178906
-0.0664104
0.180493
-0.0906904
0.176917
-0.113115
0.168078
-0.128752
0.156151
-0.136308
0.143654
-0.138381
0.132455
-0.137658
0.122412
-0.135157
0.112733
-0.132675
0.104048
-0.130354
0.0949799
-0.126679
0.082376
-0.124945
0.0679538
-0.127688
0.0596265
-0.124974
0.0640354
-0.0997831
0.0801642
-0.0480542
0.102851
0.0173815
0.125297
0.0800547
0.144221
0.128276
0.159263
0.157349
0.171463
0.168213
0.182144
0.173605
0.191818
0.192708
0.199008
0.231159
0.201351
0.264205
0.197487
0.255828
0.187517
0.185566
0.174457
0.0658845
0.163345
-0.0658944
0.155538
-0.164388
0.149265
-0.215961
0.143564
-0.232221
0.136587
-0.23019
0.125184
-0.218624
0.111215
-0.207314
0.102839
-0.183165
0.105657
-0.123167
0.118241
-0.0378992
0.13307
0.0654255
0.143177
0.160346
0.145267
0.257577
0.140215
0.315579
0.132857
0.316305
0.127715
0.223878
0.128506
0.0713552
0.130807
-0.0680486
0.128258
-0.191401
0.121686
-0.260973
0.117714
-0.312621
0.118958
-0.228433
0.121122
-0.0779245
0.123787
0.0640841
0.124928
0.259132
0.126905
0.296923
0.131086
0.346694
0.125977
0.227307
0.118525
-0.229575
-0.236814
0.186551
-0.0304888
0.19174
-0.0492224
0.194183
-0.0688531
0.191921
-0.0884286
0.184027
-0.105221
0.171768
-0.116492
0.157952
-0.122492
0.144587
-0.125016
0.132651
-0.125722
0.122325
-0.12483
0.112561
-0.122911
0.103429
-0.121221
0.0951662
-0.118416
0.0847679
-0.114547
0.0707117
-0.113631
0.0589806
-0.113243
0.0585197
-0.0993222
0.0714987
-0.0610332
0.0935558
-0.00467561
0.117104
0.0565068
0.138166
0.107214
0.155523
0.139992
0.169828
0.153908
0.182806
0.160627
0.195692
0.179821
0.206855
0.219997
0.212663
0.258397
0.210753
0.257738
0.2011
0.195219
0.185986
0.0809979
0.171082
-0.0509899
0.159708
-0.153014
0.150716
-0.206969
0.142977
-0.224481
0.135655
-0.222869
0.125326
-0.208295
0.111642
-0.19363
0.102484
-0.174007
0.104921
-0.125604
0.118103
-0.0510805
0.134298
0.0492303
0.146345
0.148298
0.150398
0.253524
0.146279
0.319698
0.138544
0.324039
0.131895
0.230527
0.131195
0.0720551
0.133171
-0.0700243
0.130421
-0.188651
0.122786
-0.253338
0.117845
-0.307679
0.119728
-0.230317
0.12263
-0.0808263
0.125888
0.0608259
0.127125
0.257895
0.129231
0.294817
0.134258
0.341666
0.129065
0.2325
0.121173
-0.221683
-0.235834
0.204617
-0.0350452
0.206701
-0.051306
0.204663
-0.0668156
0.197494
-0.0812593
0.185685
-0.0934123
0.171313
-0.102121
0.156887
-0.108065
0.143766
-0.111896
0.132019
-0.113975
0.121742
-0.114553
0.112419
-0.113588
0.103347
-0.112149
0.0953064
-0.110376
0.0873043
-0.106545
0.0759985
-0.102326
0.0630779
-0.100322
0.0573186
-0.0935629
0.0652508
-0.0689654
0.0842638
-0.0236886
0.108122
0.0326483
0.130767
0.08457
0.150049
0.120709
0.166086
0.137871
0.180899
0.145814
0.1964
0.16432
0.211099
0.205298
0.220765
0.248731
0.221698
0.256806
0.21276
0.204157
0.196191
0.0975672
0.178181
-0.0329799
0.163563
-0.138396
0.152221
-0.195627
0.142598
-0.214859
0.134732
-0.215003
0.125778
-0.19934
0.112991
-0.180843
0.102877
-0.163893
0.104097
-0.126825
0.117337
-0.0643203
0.134929
0.0316381
0.149277
0.133951
0.155899
0.246901
0.153364
0.322234
0.145473
0.33193
0.137162
0.238838
0.134479
0.0747382
0.135822
-0.0713674
0.132985
-0.185815
0.124357
-0.24471
0.118216
-0.301538
0.120625
-0.232726
0.12433
-0.0845311
0.128245
0.056911
0.129563
0.256577
0.131616
0.292764
0.137468
0.335814
0.132449
0.237519
0.124258
-0.213492
-0.234866
0.216707
-0.0352617
0.213613
-0.0482122
0.206401
-0.0596041
0.195349
-0.0702073
0.181798
-0.0798607
0.167607
-0.0879301
0.15408
-0.094538
0.141783
-0.0995993
0.130631
-0.102823
0.120606
-0.104528
0.11186
-0.104842
0.103603
-0.103892
0.0957465
-0.102519
0.0890325
-0.099831
0.0812778
-0.0945709
0.0702422
-0.0892869
0.0608868
-0.0842076
0.0621558
-0.0702344
0.0762587
-0.0377915
0.0985476
0.0103595
0.12191
0.0612077
0.142745
0.0998744
0.160278
0.120338
0.17637
0.129721
0.193622
0.147068
0.211383
0.187537
0.224665
0.23545
0.228246
0.253224
0.220532
0.211872
0.203753
0.114346
0.183891
-0.0131184
0.166738
-0.121242
0.153501
-0.18239
0.142292
-0.20365
0.133629
-0.20634
0.126055
-0.191766
0.114874
-0.169663
0.104021
-0.15304
0.103247
-0.126051
0.115834
-0.0769069
0.134709
0.0127626
0.15151
0.117149
0.160945
0.237466
0.160622
0.322558
0.153247
0.339305
0.143395
0.24869
0.138424
0.0797098
0.138702
-0.0716462
0.135837
-0.182949
0.126352
-0.235225
0.118785
-0.293971
0.121561
-0.235501
0.126148
-0.0891185
0.130805
0.0522539
0.132201
0.255181
0.133998
0.290967
0.140652
0.32916
0.136085
0.242086
0.127746
-0.205152
-0.233873
0.215481
-0.0313049
0.208496
-0.0412274
0.198715
-0.0498226
0.187069
-0.0585619
0.174591
-0.0673829
0.162197
-0.0755352
0.15026
-0.0826012
0.138952
-0.0882915
0.128519
-0.0923897
0.118995
-0.0950041
0.110645
-0.0964921
0.103351
-0.0965981
0.0962674
-0.0954356
0.0899102
-0.0934739
0.0845601
-0.0892208
0.0774439
-0.0821707
0.0682134
-0.0749771
0.0638172
-0.0658382
0.071237
-0.0452113
0.089812
-0.00821549
0.112478
0.0385414
0.134011
0.078342
0.152441
0.101908
0.169222
0.11294
0.187682
0.128609
0.208061
0.167158
0.22512
0.21839
0.232522
0.245822
0.226926
0.217468
0.210029
0.131243
0.188285
0.00862523
0.169082
-0.102039
0.15435
-0.167658
0.141955
-0.191256
0.132291
-0.196675
0.12576
-0.185235
0.116762
-0.160665
0.10582
-0.142098
0.102585
-0.122815
0.113549
-0.0878713
0.133314
-0.0070024
0.15282
0.0976432
0.165659
0.224627
0.168277
0.31994
0.161922
0.34566
0.150538
0.260073
0.142946
0.0873025
0.141719
-0.0704198
0.138832
-0.180062
0.128692
-0.225085
0.119505
-0.284784
0.122452
-0.238448
0.127991
-0.0946569
0.133514
0.0467304
0.135003
0.253692
0.136336
0.289634
0.14376
0.321736
0.139937
0.245909
0.131603
-0.196818
-0.232827
0.202613
-0.026134
0.195295
-0.0339087
0.186435
-0.0409631
0.176722
-0.0488487
0.166453
-0.0571139
0.155902
-0.0649843
0.145344
-0.072043
0.135048
-0.0779954
0.125447
-0.0827891
0.116776
-0.0863331
0.108988
-0.0887044
0.10229
-0.0898996
0.0962883
-0.089434
0.0904514
-0.087637
0.0857542
-0.0845236
0.0818522
-0.0782687
0.0760674
-0.0691922
0.0699609
-0.0597318
0.0709447
-0.0461951
0.083025
-0.0202959
0.103201
0.0183658
0.124482
0.0570608
0.14323
0.0831598
0.160039
0.096131
0.178414
0.110233
0.199747
0.145825
0.21963
0.198508
0.230404
0.235048
0.22731
0.220562
0.211942
0.146612
0.190795
0.0297719
0.170462
-0.0817055
0.154517
-0.151713
0.141328
-0.178067
0.130624
-0.185972
0.124603
-0.179214
0.118045
-0.154107
0.107926
-0.131978
0.102277
-0.117166
0.11071
-0.0963046
0.130648
-0.0269399
0.152502
0.0757889
0.168669
0.20846
0.17478
0.313829
0.1706
0.34984
0.158235
0.272438
0.148079
0.0974591
0.144813
-0.0671542
0.141815
-0.177064
0.131265
-0.214535
0.120329
-0.273848
0.123207
-0.241327
0.129778
-0.101228
0.136308
0.0402009
0.137924
0.252075
0.138606
0.288952
0.14677
0.313572
0.143983
0.248696
0.135805
-0.188641
-0.231706
0.187585
-0.0220299
0.181731
-0.028055
0.174724
-0.0339562
0.16683
-0.0409542
0.158112
-0.0483959
0.148819
-0.0556913
0.139324
-0.0625489
0.130028
-0.0686991
0.121263
-0.0740237
0.11333
-0.0784002
0.10621
-0.0815841
0.0998885
-0.0835784
0.0945585
-0.0841041
0.0897401
-0.0828186
0.0853894
-0.0801729
0.0826132
-0.0754925
0.0804683
-0.0670473
0.0769437
-0.0562073
0.0750473
-0.0442986
0.0809592
-0.0262078
0.0964112
0.00291374
0.115617
0.0378546
0.133963
0.0648138
0.150148
0.0799466
0.167755
0.0926252
0.190188
0.123393
0.213231
0.175464
0.227548
0.220731
0.227261
0.220848
0.213309
0.160564
0.191242
0.0518388
0.170152
-0.0606149
0.153549
-0.13511
0.140153
-0.164671
0.128658
-0.174478
0.122573
-0.173129
0.118315
-0.149849
0.109871
-0.123534
0.10235
-0.109646
0.107427
-0.101382
0.126652
-0.0461643
0.150917
0.0515235
0.170981
0.188396
0.180685
0.304125
0.178739
0.351786
0.166044
0.285133
0.153451
0.110052
0.14786
-0.0615633
0.144623
-0.173827
0.133975
-0.203887
0.121339
-0.261212
0.123791
-0.24378
0.131415
-0.108852
0.139097
0.032519
0.140916
0.250256
0.140812
0.289057
0.149677
0.304707
0.148192
0.250181
0.140331
-0.18078
-0.230489
0.174397
-0.018666
0.169459
-0.0231167
0.163702
-0.0281993
0.156948
-0.0342009
0.149341
-0.0407884
0.141239
-0.0475894
0.132969
-0.0542789
0.12485
-0.0605803
0.117095
-0.0662685
0.109873
-0.0711781
0.103324
-0.0750355
0.0974163
-0.0776704
0.0922982
-0.078986
0.0880741
-0.0785945
0.0843521
-0.0764509
0.0816051
-0.0727455
0.080671
-0.0661133
0.0802184
-0.0557546
0.0794384
-0.0435185
0.08188
-0.0286495
0.0911523
-0.00635852
0.106611
0.022396
0.122998
0.0484263
0.138182
0.0647631
0.154145
0.0766618
0.174443
0.103095
0.198032
0.151875
0.216896
0.201867
0.221339
0.216405
0.210441
0.171462
0.191478
0.0708017
0.170647
-0.0397839
0.153038
-0.1175
0.139311
-0.150944
0.127162
-0.162328
0.120345
-0.166313
0.1178
-0.147304
0.111462
-0.117195
0.102783
-0.100967
0.104436
-0.103034
0.12145
-0.0631782
0.146575
0.0263982
0.169949
0.165023
0.184227
0.289847
0.186022
0.349992
0.174424
0.296731
0.159795
0.124681
0.151234
-0.053002
0.147432
-0.170025
0.13686
-0.193316
0.122773
-0.247124
0.124336
-0.245343
0.132874
-0.11739
0.141799
0.0235937
0.143971
0.248084
0.14294
0.290088
0.15245
0.295197
0.152543
0.250088
0.145175
-0.173412
-0.229097
0.209693
-0.0161881
-0.212171
0.207912
-0.0213352
0.20595
-0.0262374
0.203368
-0.0316188
0.200023
-0.0374435
0.195957
-0.0435235
0.191259
-0.0495813
0.186001
-0.0553221
0.180241
-0.0605083
0.173999
-0.0649358
0.167339
-0.0683761
0.16037
-0.0707007
0.153115
-0.0717318
0.145782
-0.0712607
0.138487
-0.0691559
0.131037
-0.0652958
0.123858
-0.0589343
0.1173
-0.0491962
0.11054
-0.0367589
0.103861
-0.0219704
0.100508
-0.00300542
0.102205
0.0206988
0.109034
0.0415969
0.118639
0.0551588
0.12867
0.0666304
0.13883
0.0929345
0.150668
0.140038
0.163054
0.189482
0.174549
0.20491
0.186473
0.159538
0.195317
0.0619572
0.196597
-0.0410635
0.190256
-0.11116
0.17998
-0.140668
0.166605
-0.148953
0.155118
-0.154825
0.146802
-0.138989
0.136389
-0.106783
0.123349
-0.0879267
0.117939
-0.0976249
0.123984
-0.0692228
0.135299
0.0150829
0.146023
0.154299
0.153878
0.281991
0.159351
0.344519
0.160839
0.295243
0.160263
0.125258
0.159939
-0.0526777
0.159114
-0.169201
0.149189
-0.18339
0.133296
-0.231231
0.128625
-0.240672
0.130093
-0.118858
0.132617
0.0210696
0.131216
0.249486
0.129648
0.291655
0.139785
0.285061
0.143939
0.245934
0.137735
-0.167208
-0.225439
0.217939
-0.0142665
-0.219861
0.215791
-0.0191866
0.21359
-0.0240368
0.21093
-0.0289588
0.207616
-0.0341289
0.203574
-0.0394816
0.198833
-0.0448402
0.193452
-0.0499412
0.187506
-0.0545625
0.181093
-0.0585233
0.174306
-0.0615889
0.167304
-0.0636982
0.160237
-0.0646647
0.153162
-0.0641863
0.146275
-0.0622688
0.139638
-0.0586591
0.13327
-0.0525656
0.127706
-0.0436329
0.123092
-0.0321443
0.118611
-0.0174902
0.114647
0.000958862
0.113821
0.0215246
0.117153
0.0382653
0.124181
0.048131
0.133902
0.0569095
0.145826
0.0810102
0.15918
0.126683
0.171549
0.177112
0.184001
0.192458
0.198405
0.145134
0.209342
0.05102
0.210085
-0.0418058
0.202057
-0.103133
0.190481
-0.129091
0.176623
-0.135095
0.164456
-0.142658
0.156499
-0.131032
0.147515
-0.0977983
0.134375
-0.0747871
0.12731
-0.0905596
0.132319
-0.0742316
0.144649
0.00275305
0.1577
0.141248
0.168288
0.271404
0.176324
0.336482
0.179032
0.292534
0.177907
0.126383
0.175542
-0.0503127
0.173253
-0.166911
0.162201
-0.172339
0.144224
-0.213254
0.138669
-0.235117
0.140693
-0.120882
0.144028
0.0177347
0.142493
0.251021
0.140015
0.294132
0.151195
0.273881
0.157006
0.240123
0.150538
-0.160741
-0.22111
0.225875
-0.0129027
-0.227239
0.223986
-0.0172977
0.221784
-0.0218347
0.219178
-0.0263526
0.216018
-0.0309687
0.212218
-0.0356817
0.207773
-0.0403952
0.202742
-0.0449108
0.197204
-0.0490245
0.191254
-0.0525731
0.184994
-0.0553287
0.178492
-0.0571965
0.171857
-0.0580292
0.165164
-0.0574934
0.158453
-0.0555582
0.15188
-0.0520862
0.145593
-0.0462781
0.13993
-0.0379704
0.135663
-0.0278765
0.132847
-0.0146749
0.130558
0.00324784
0.129019
0.0230642
0.1294
0.0378844
0.132723
0.0448078
0.140169
0.0494637
0.151794
0.0693848
0.164876
0.113601
0.177038
0.16495
0.192405