/*--------------------------------*- C++ -*----------------------------------*\
| =========                 |                                                 |
| \\      /  F ield         | OpenFOAM: The Open Source CFD Toolbox           |
|  \\    /   O peration     | Version:  2512                                  |
|   \\  /    A nd           | Website:  www.openfoam.com                      |
|    \\/     M anipulation  |                                                 |
\*---------------------------------------------------------------------------*/
FoamFile
{
    version     2.0;
    format      ascii;
    arch        "LSB;label=32;scalar=64";
    class       volVectorField;
    location    "68.5";
    object      U;
}
// * * * * * * * * * * * * * * * * * * * * * * * * * * * * * * * * * * * * * //

dimensions      [0 1 -1 0 0 0 0];

internalField   nonuniform List<vector> 
9800
(
(1 -3.25574e-05 0)
(1.00013 -9.58989e-05 0)
(1.00037 -0.000154805 0)
(1.00071 -0.000208713 0)
(1.00112 -0.000257869 0)
(1.0016 -0.000302983 0)
(1.00214 -0.000344895 0)
(1.00272 -0.000384376 0)
(1.00333 -0.000422054 0)
(1.00398 -0.000458422 0)
(1.00465 -0.000493842 0)
(1.00535 -0.00052854 0)
(1.00607 -0.000562597 0)
(1.00681 -0.000595943 0)
(1.00757 -0.000628375 0)
(1.00834 -0.000659585 0)
(1.00911 -0.000689202 0)
(1.0099 -0.000716835 0)
(1.01068 -0.00074212 0)
(1.01146 -0.000764747 0)
(1.01224 -0.000784479 0)
(1.01301 -0.000801164 0)
(1.01376 -0.000814732 0)
(1.0145 -0.000825193 0)
(1.01522 -0.000832621 0)
(1.01593 -0.000837149 0)
(1.01661 -0.000838947 0)
(1.01726 -0.000838215 0)
(1.0179 -0.000835171 0)
(1.01851 -0.000830042 0)
(1.01909 -0.000823059 0)
(1.01965 -0.000814447 0)
(1.02018 -0.000804424 0)
(1.02068 -0.000793196 0)
(1.02117 -0.000780959 0)
(1.02162 -0.00076789 0)
(1.02206 -0.000754156 0)
(1.02247 -0.000739904 0)
(1.02286 -0.000725275 0)
(1.02323 -0.000710383 0)
(1 -9.6476e-05 0)
(1.00013 -0.00028422 0)
(1.00037 -0.000458838 0)
(1.00071 -0.000618659 0)
(1.00112 -0.000764404 0)
(1.0016 -0.000898187 0)
(1.00214 -0.00102252 0)
(1.00271 -0.00113971 0)
(1.00333 -0.00125163 0)
(1.00398 -0.00135977 0)
(1.00465 -0.00146521 0)
(1.00536 -0.00156863 0)
(1.00608 -0.00167026 0)
(1.00682 -0.00176989 0)
(1.00758 -0.00186688 0)
(1.00835 -0.00196031 0)
(1.00914 -0.00204904 0)
(1.00993 -0.00213191 0)
(1.01072 -0.0022078 0)
(1.01151 -0.00227578 0)
(1.01229 -0.00233514 0)
(1.01307 -0.00238539 0)
(1.01383 -0.00242633 0)
(1.01458 -0.00245797 0)
(1.01532 -0.00248053 0)
(1.01603 -0.00249441 0)
(1.01672 -0.00250009 0)
(1.01739 -0.00249818 0)
(1.01803 -0.00248932 0)
(1.01865 -0.0024742 0)
(1.01924 -0.0024535 0)
(1.01981 -0.0024279 0)
(1.02035 -0.00239806 0)
(1.02086 -0.00236457 0)
(1.02135 -0.00232805 0)
(1.02182 -0.00228901 0)
(1.02226 -0.00224796 0)
(1.02267 -0.00220534 0)
(1.02307 -0.00216157 0)
(1.02344 -0.002117 0)
(1 -0.000157964 0)
(1.00013 -0.000465452 0)
(1.00037 -0.00075151 0)
(1.00071 -0.0010134 0)
(1.00112 -0.0012523 0)
(1.0016 -0.00147172 0)
(1.00213 -0.00167583 0)
(1.00271 -0.00186843 0)
(1.00332 -0.0020527 0)
(1.00397 -0.00223108 0)
(1.00465 -0.00240539 0)
(1.00536 -0.00257674 0)
(1.00609 -0.00274548 0)
(1.00683 -0.0029112 0)
(1.0076 -0.00307284 0)
(1.00838 -0.00322879 0)
(1.00918 -0.00337715 0)
(1.00998 -0.00351592 0)
(1.01079 -0.00364322 0)
(1.01159 -0.00375746 0)
(1.01239 -0.0038574 0)
(1.01319 -0.00394223 0)
(1.01397 -0.00401156 0)
(1.01474 -0.00406539 0)
(1.01549 -0.00410406 0)
(1.01622 -0.0041282 0)
(1.01693 -0.00413861 0)
(1.01762 -0.00413628 0)
(1.01828 -0.00412228 0)
(1.01892 -0.00409774 0)
(1.01953 -0.0040638 0)
(1.02011 -0.00402158 0)
(1.02067 -0.00397219 0)
(1.0212 -0.00391665 0)
(1.0217 -0.00385595 0)
(1.02218 -0.00379098 0)
(1.02263 -0.00372259 0)
(1.02306 -0.00365152 0)
(1.02347 -0.00357849 0)
(1.02385 -0.00350408 0)
(1 -0.000216936 0)
(1.00013 -0.000639339 0)
(1.00037 -0.00103245 0)
(1.0007 -0.0013925 0)
(1.00112 -0.00172115 0)
(1.00159 -0.00202331 0)
(1.00212 -0.00230477 0)
(1.0027 -0.00257089 0)
(1.00331 -0.0028261 0)
(1.00396 -0.00307386 0)
(1.00465 -0.00331668 0)
(1.00535 -0.00355608 0)
(1.00609 -0.00379251 0)
(1.00685 -0.00402533 0)
(1.00762 -0.00425296 0)
(1.00842 -0.00447308 0)
(1.00923 -0.00468294 0)
(1.01005 -0.00487968 0)
(1.01087 -0.00506058 0)
(1.0117 -0.00522334 0)
(1.01253 -0.00536614 0)
(1.01335 -0.00548778 0)
(1.01416 -0.00558764 0)
(1.01495 -0.00566567 0)
(1.01573 -0.00572228 0)
(1.01649 -0.00575831 0)
(1.01723 -0.00577486 0)
(1.01794 -0.00577329 0)
(1.01863 -0.00575508 0)
(1.0193 -0.00572182 0)
(1.01993 -0.0056751 0)
(1.02054 -0.00561652 0)
(1.02112 -0.00554762 0)
(1.02167 -0.00546987 0)
(1.0222 -0.00538467 0)
(1.0227 -0.00529328 0)
(1.02317 -0.00519696 0)
(1.02362 -0.00509672 0)
(1.02404 -0.00499364 0)
(1.02444 -0.0048885 0)
(1 -0.000273293 0)
(1.00013 -0.000805606 0)
(1.00037 -0.00130126 0)
(1.0007 -0.00175547 0)
(1.00111 -0.00217045 0)
(1.00158 -0.00255246 0)
(1.00211 -0.00290895 0)
(1.00268 -0.00324686 0)
(1.0033 -0.00357194 0)
(1.00395 -0.00388862 0)
(1.00463 -0.00420015 0)
(1.00534 -0.00450843 0)
(1.00608 -0.00481396 0)
(1.00685 -0.00511584 0)
(1.00764 -0.00541189 0)
(1.00845 -0.00569899 0)
(1.00928 -0.00597347 0)
(1.01012 -0.00623154 0)
(1.01097 -0.00646955 0)
(1.01183 -0.00668439 0)
(1.01269 -0.00687357 0)
(1.01354 -0.00703543 0)
(1.01438 -0.00716905 0)
(1.01521 -0.00727429 0)
(1.01603 -0.00735156 0)
(1.01682 -0.00740187 0)
(1.0176 -0.00742659 0)
(1.01835 -0.00742743 0)
(1.01908 -0.00740629 0)
(1.01977 -0.0073652 0)
(1.02044 -0.00730624 0)
(1.02109 -0.00723147 0)
(1.0217 -0.00714294 0)
(1.02228 -0.00704254 0)
(1.02284 -0.00693216 0)
(1.02336 -0.00681345 0)
(1.02386 -0.00668807 0)
(1.02433 -0.00655739 0)
(1.02478 -0.00642282 0)
(1.0252 -0.00628544 0)
(1 -0.000326911 0)
(1.00013 -0.000963923 0)
(1.00036 -0.00155741 0)
(1.00069 -0.00210163 0)
(1.0011 -0.00259937 0)
(1.00156 -0.00305825 0)
(1.00209 -0.00348743 0)
(1.00266 -0.00389546 0)
(1.00326 -0.00428947 0)
(1.00391 -0.00467491 0)
(1.00459 -0.00505574 0)
(1.00531 -0.00543425 0)
(1.00606 -0.005811 0)
(1.00684 -0.00618473 0)
(1.00764 -0.00655257 0)
(1.00847 -0.00691053 0)
(1.00932 -0.00725391 0)
(1.01019 -0.00757786 0)
(1.01107 -0.00787772 0)
(1.01196 -0.00814945 0)
(1.01285 -0.00838977 0)
(1.01374 -0.00859647 0)
(1.01463 -0.00876823 0)
(1.0155 -0.00890472 0)
(1.01636 -0.00900632 0)
(1.01721 -0.00907412 0)
(1.01803 -0.00910972 0)
(1.01882 -0.00911518 0)
(1.01959 -0.00909279 0)
(1.02034 -0.00904505 0)
(1.02105 -0.00897453 0)
(1.02173 -0.00888377 0)
(1.02238 -0.00877535 0)
(1.02301 -0.00865166 0)
(1.0236 -0.00851508 0)
(1.02416 -0.00836771 0)
(1.02469 -0.00821168 0)
(1.02519 -0.00804871 0)
(1.02566 -0.00788065 0)
(1.02611 -0.00770883 0)
(1 -0.000377643 0)
(1.00012 -0.00111389 0)
(1.00036 -0.00180021 0)
(1.00068 -0.0024301 0)
(1.00108 -0.00300679 0)
(1.00154 -0.00353938 0)
(1.00205 -0.00403879 0)
(1.00261 -0.0045152 0)
(1.00322 -0.00497721 0)
(1.00386 -0.00543137 0)
(1.00454 -0.00588236 0)
(1.00526 -0.00633287 0)
(1.00601 -0.00678349 0)
(1.0068 -0.00723252 0)
(1.00762 -0.00767635 0)
(1.00846 -0.00810996 0)
(1.00934 -0.00852757 0)
(1.01024 -0.00892314 0)
(1.01115 -0.00929079 0)
(1.01208 -0.00962544 0)
(1.01301 -0.0099229 0)
(1.01395 -0.0101803 0)
(1.01488 -0.0103958 0)
(1.01581 -0.0105687 0)
(1.01672 -0.0106993 0)
(1.01762 -0.0107888 0)
(1.01849 -0.0108388 0)
(1.01935 -0.0108517 0)
(1.02017 -0.0108303 0)
(1.02097 -0.0107775 0)
(1.02173 -0.0106963 0)
(1.02247 -0.0105899 0)
(1.02317 -0.0104613 0)
(1.02383 -0.0103135 0)
(1.02447 -0.0101494 0)
(1.02507 -0.00997164 0)
(1.02564 -0.00978287 0)
(1.02618 -0.0095852 0)
(1.02668 -0.00938098 0)
(1.02716 -0.00917185 0)
(1 -0.000425323 0)
(1.00012 -0.00125502 0)
(1.00035 -0.00202888 0)
(1.00066 -0.00273976 0)
(1.00105 -0.00339135 0)
(1.0015 -0.00399424 0)
(1.00201 -0.00456112 0)
(1.00256 -0.00510401 0)
(1.00315 -0.00563301 0)
(1.00378 -0.00615581 0)
(1.00446 -0.00667794 0)
(1.00518 -0.0072025 0)
(1.00593 -0.00773004 0)
(1.00673 -0.00825834 0)
(1.00756 -0.00878297 0)
(1.00842 -0.00929789 0)
(1.00932 -0.00979604 0)
(1.01025 -0.01027 0)
(1.0112 -0.0107126 0)
(1.01217 -0.0111174 0)
(1.01315 -0.0114793 0)
(1.01414 -0.0117946 0)
(1.01513 -0.0120607 0)
(1.01612 -0.0122766 0)
(1.01709 -0.0124421 0)
(1.01805 -0.0125584 0)
(1.01899 -0.0126273 0)
(1.01991 -0.0126515 0)
(1.02079 -0.0126341 0)
(1.02165 -0.0125782 0)
(1.02248 -0.0124877 0)
(1.02328 -0.012366 0)
(1.02403 -0.012217 0)
(1.02476 -0.0120441 0)
(1.02545 -0.011851 0)
(1.0261 -0.0116408 0)
(1.02671 -0.0114167 0)
(1.02729 -0.0111813 0)
(1.02784 -0.0109375 0)
(1.02836 -0.0106875 0)
(1 -0.000469791 0)
(1.00012 -0.00138678 0)
(1.00034 -0.00224261 0)
(1.00064 -0.00302941 0)
(1.00102 -0.00375156 0)
(1.00145 -0.00442093 0)
(1.00194 -0.00505223 0)
(1.00248 -0.00565945 0)
(1.00306 -0.00625419 0)
(1.00368 -0.00684537 0)
(1.00435 -0.00743958 0)
(1.00506 -0.00804035 0)
(1.00581 -0.00864807 0)
(1.00661 -0.00925993 0)
(1.00745 -0.00987071 0)
(1.00834 -0.0104733 0)
(1.00926 -0.0110592 0)
(1.01022 -0.0116194 0)
(1.01121 -0.0121451 0)
(1.01222 -0.0126286 0)
(1.01326 -0.0130637 0)
(1.0143 -0.0134455 0)
(1.01535 -0.0137705 0)
(1.0164 -0.0140372 0)
(1.01745 -0.0142449 0)
(1.01848 -0.0143946 0)
(1.01949 -0.0144883 0)
(1.02049 -0.0145285 0)
(1.02145 -0.0145188 0)
(1.02238 -0.0144628 0)
(1.02328 -0.0143647 0)
(1.02415 -0.0142287 0)
(1.02498 -0.0140592 0)
(1.02577 -0.0138603 0)
(1.02652 -0.0136364 0)
(1.02723 -0.0133911 0)
(1.0279 -0.0131285 0)
(1.02853 -0.0128518 0)
(1.02913 -0.0125644 0)
(1.02969 -0.0122689 0)
(1 -0.000510883 0)
(1.00011 -0.00150865 0)
(1.00032 -0.00244048 0)
(1.00061 -0.00329787 0)
(1.00098 -0.0040858 0)
(1.00139 -0.00481748 0)
(1.00186 -0.00550988 0)
(1.00238 -0.00617883 0)
(1.00294 -0.00683762 0)
(1.00355 -0.0074966 0)
(1.0042 -0.00816366 0)
(1.0049 -0.00884272 0)
(1.00565 -0.00953389 0)
(1.00645 -0.0102338 0)
(1.0073 -0.0109364 0)
(1.0082 -0.0116336 0)
(1.00914 -0.0123151 0)
(1.01013 -0.0129702 0)
(1.01116 -0.0135884 0)
(1.01222 -0.0141606 0)
(1.01331 -0.0146789 0)
(1.01441 -0.0151374 0)
(1.01553 -0.0155314 0)
(1.01666 -0.0158584 0)
(1.01778 -0.0161172 0)
(1.01889 -0.0163085 0)
(1.01999 -0.016434 0)
(1.02107 -0.0164965 0)
(1.02212 -0.0164995 0)
(1.02314 -0.0164472 0)
(1.02413 -0.0163441 0)
(1.02507 -0.0161951 0)
(1.02598 -0.0160053 0)
(1.02685 -0.0157795 0)
(1.02767 -0.0155228 0)
(1.02845 -0.0152397 0)
(1.02919 -0.0149351 0)
(1.02989 -0.0146125 0)
(1.03054 -0.0142766 0)
(1.03115 -0.0139302 0)
(1 -0.000548427 0)
(1.00011 -0.00162016 0)
(1.0003 -0.00262164 0)
(1.00058 -0.003544 0)
(1.00092 -0.00439241 0)
(1.00132 -0.0051819 0)
(1.00177 -0.00593167 0)
(1.00226 -0.00665931 0)
(1.00279 -0.00737986 0)
(1.00338 -0.00810566 0)
(1.00401 -0.008846 0)
(1.00469 -0.00960512 0)
(1.00543 -0.0103828 0)
(1.00622 -0.0111751 0)
(1.00708 -0.0119756 0)
(1.00799 -0.0127746 0)
(1.00895 -0.0135603 0)
(1.00997 -0.0143199 0)
(1.01104 -0.0150409 0)
(1.01214 -0.0157129 0)
(1.01329 -0.0163261 0)
(1.01446 -0.0168731 0)
(1.01565 -0.0173477 0)
(1.01686 -0.0177464 0)
(1.01806 -0.0180672 0)
(1.01927 -0.0183101 0)
(1.02046 -0.0184765 0)
(1.02164 -0.0185691 0)
(1.02279 -0.0185914 0)
(1.02391 -0.0185477 0)
(1.02499 -0.0184434 0)
(1.02604 -0.0182835 0)
(1.02704 -0.0180742 0)
(1.028 -0.0178208 0)
(1.02891 -0.0175296 0)
(1.02977 -0.0172055 0)
(1.03059 -0.0168546 0)
(1.03136 -0.0164811 0)
(1.03207 -0.0160907 0)
(1.03275 -0.0156867 0)
(1 -0.000582284 0)
(1.0001 -0.0017208 0)
(1.00028 -0.00278542 0)
(1.00054 -0.00376666 0)
(1.00086 -0.00466987 0)
(1.00123 -0.00551232 0)
(1.00165 -0.00631539 0)
(1.00211 -0.00709801 0)
(1.00261 -0.0078774 0)
(1.00317 -0.00866853 0)
(1.00377 -0.00948213 0)
(1.00443 -0.0103224 0)
(1.00515 -0.0111891 0)
(1.00594 -0.0120782 0)
(1.00679 -0.0129825 0)
(1.0077 -0.0138909 0)
(1.00868 -0.0147895 0)
(1.00972 -0.0156636 0)
(1.01082 -0.0164989 0)
(1.01198 -0.0172831 0)
(1.01318 -0.0180044 0)
(1.01442 -0.0186535 0)
(1.01569 -0.0192224 0)
(1.01698 -0.0197063 0)
(1.01828 -0.020102 0)
(1.01959 -0.0204088 0)
(1.02089 -0.0206274 0)
(1.02217 -0.0207599 0)
(1.02344 -0.0208099 0)
(1.02467 -0.0207818 0)
(1.02587 -0.0206812 0)
(1.02703 -0.0205139 0)
(1.02814 -0.0202867 0)
(1.02921 -0.0200056 0)
(1.03022 -0.0196779 0)
(1.03118 -0.0193095 0)
(1.03209 -0.0189077 0)
(1.03294 -0.0184773 0)
(1.03374 -0.0180255 0)
(1.03448 -0.0175561 0)
(1 -0.000612335 0)
(1.00009 -0.00181018 0)
(1.00026 -0.00293128 0)
(1.0005 -0.00396479 0)
(1.00079 -0.0049168 0)
(1.00113 -0.00580721 0)
(1.00151 -0.00665896 0)
(1.00194 -0.00749199 0)
(1.00241 -0.00832681 0)
(1.00292 -0.00918131 0)
(1.00349 -0.0100674 0)
(1.00412 -0.0109891 0)
(1.00482 -0.0119466 0)
(1.00558 -0.0129363 0)
(1.00642 -0.0139503 0)
(1.00733 -0.0149755 0)
(1.00831 -0.0159957 0)
(1.00938 -0.0169949 0)
(1.01051 -0.0179567 0)
(1.01171 -0.0188669 0)
(1.01296 -0.0197109 0)
(1.01427 -0.0204775 0)
(1.01562 -0.0211563 0)
(1.01701 -0.0217413 0)
(1.01841 -0.0222275 0)
(1.01983 -0.0226131 0)
(1.02124 -0.0228977 0)
(1.02265 -0.0230827 0)
(1.02404 -0.0231712 0)
(1.02541 -0.0231676 0)
(1.02674 -0.0230779 0)
(1.02803 -0.022908 0)
(1.02927 -0.0226657 0)
(1.03046 -0.0223575 0)
(1.0316 -0.0219921 0)
(1.03267 -0.0215761 0)
(1.03369 -0.0211182 0)
(1.03464 -0.0206243 0)
(1.03553 -0.0201029 0)
(1.03637 -0.0195587 0)
(1 -0.000638426 0)
(1.00008 -0.00188811 0)
(1.00023 -0.00305878 0)
(1.00045 -0.00413746 0)
(1.00071 -0.00513214 0)
(1.00101 -0.00606551 0)
(1.00136 -0.00696038 0)
(1.00174 -0.0078385 0)
(1.00217 -0.00872498 0)
(1.00264 -0.00964038 0)
(1.00316 -0.0105969 0)
(1.00375 -0.0115991 0)
(1.00441 -0.0126486 0)
(1.00515 -0.0137423 0)
(1.00596 -0.0148711 0)
(1.00686 -0.0160199 0)
(1.00785 -0.0171705 0)
(1.00892 -0.0183056 0)
(1.01008 -0.0194067 0)
(1.01132 -0.0204575 0)
(1.01262 -0.0214402 0)
(1.014 -0.0223413 0)
(1.01543 -0.0231481 0)
(1.01691 -0.0238526 0)
(1.01842 -0.0244477 0)
(1.01996 -0.0249301 0)
(1.02151 -0.0252976 0)
(1.02305 -0.0255506 0)
(1.02459 -0.0256916 0)
(1.0261 -0.0257244 0)
(1.02759 -0.0256551 0)
(1.02903 -0.0254898 0)
(1.03042 -0.025237 0)
(1.03176 -0.0249037 0)
(1.03303 -0.0245 0)
(1.03424 -0.0240332 0)
(1.03539 -0.023514 0)
(1.03646 -0.0229491 0)
(1.03747 -0.0223489 0)
(1.0384 -0.0217189 0)
(1 -0.000660401 0)
(1.00007 -0.00195461 0)
(1.00021 -0.00316759 0)
(1.00039 -0.00428379 0)
(1.00062 -0.00531551 0)
(1.00088 -0.00628641 0)
(1.00119 -0.0072178 0)
(1.00152 -0.00813519 0)
(1.0019 -0.00906937 0)
(1.00231 -0.0100422 0)
(1.00279 -0.0110659 0)
(1.00333 -0.0121465 0)
(1.00394 -0.0132882 0)
(1.00464 -0.0144883 0)
(1.00542 -0.015736 0)
(1.00629 -0.0170143 0)
(1.00727 -0.0183036 0)
(1.00835 -0.0195855 0)
(1.00952 -0.0208391 0)
(1.01079 -0.0220457 0)
(1.01214 -0.0231841 0)
(1.01358 -0.0242387 0)
(1.0151 -0.0251937 0)
(1.01667 -0.026039 0)
(1.0183 -0.0267646 0)
(1.01996 -0.027365 0)
(1.02165 -0.0278361 0)
(1.02335 -0.0281764 0)
(1.02505 -0.0283875 0)
(1.02673 -0.0284721 0)
(1.02838 -0.0284364 0)
(1.03 -0.0282857 0)
(1.03157 -0.0280294 0)
(1.03308 -0.0276749 0)
(1.03452 -0.0272336 0)
(1.03589 -0.0267137 0)
(1.03719 -0.0261279 0)
(1.03841 -0.025484 0)
(1.03955 -0.0247945 0)
(1.04061 -0.0240663 0)
(1 -0.000678124 0)
(1.00006 -0.00200995 0)
(1.00017 -0.00325717 0)
(1.00033 -0.0044033 0)
(1.00052 -0.00546723 0)
(1.00074 -0.00646928 0)
(1.001 -0.00742949 0)
(1.00128 -0.00838046 0)
(1.0016 -0.00935799 0)
(1.00195 -0.0103835 0)
(1.00237 -0.0114698 0)
(1.00285 -0.012626 0)
(1.00341 -0.0138591 0)
(1.00405 -0.0151664 0)
(1.00478 -0.0165355 0)
(1.00563 -0.0179479 0)
(1.00658 -0.0193835 0)
(1.00764 -0.0208228 0)
(1.00882 -0.022242 0)
(1.0101 -0.0236199 0)
(1.0115 -0.024932 0)
(1.013 -0.0261606 0)
(1.01459 -0.0272862 0)
(1.01626 -0.0282963 0)
(1.018 -0.0291774 0)
(1.0198 -0.029921 0)
(1.02164 -0.0305203 0)
(1.02351 -0.0309717 0)
(1.02539 -0.0312752 0)
(1.02726 -0.0314316 0)
(1.02911 -0.0314465 0)
(1.03093 -0.0313243 0)
(1.0327 -0.031075 0)
(1.03441 -0.0307058 0)
(1.03605 -0.0302297 0)
(1.03761 -0.0296558 0)
(1.03909 -0.0289987 0)
(1.04049 -0.0282675 0)
(1.04179 -0.0274775 0)
(1.04299 -0.0266365 0)
(1 -0.00069154 0)
(1.00005 -0.00205453 0)
(1.00014 -0.00332675 0)
(1.00027 -0.0044963 0)
(1.00041 -0.00558821 0)
(1.00059 -0.00661329 0)
(1.00079 -0.00759433 0)
(1.00102 -0.00857366 0)
(1.00127 -0.00958925 0)
(1.00156 -0.0106611 0)
(1.00191 -0.0118045 0)
(1.00232 -0.0130328 0)
(1.00281 -0.0143554 0)
(1.00338 -0.0157688 0)
(1.00406 -0.0172598 0)
(1.00485 -0.0188094 0)
(1.00576 -0.0203977 0)
(1.0068 -0.0220039 0)
(1.00797 -0.0236012 0)
(1.00926 -0.0251659 0)
(1.01068 -0.0266701 0)
(1.01223 -0.0280944 0)
(1.01389 -0.0294152 0)
(1.01565 -0.030617 0)
(1.01751 -0.0316817 0)
(1.01945 -0.0325979 0)
(1.02145 -0.0333551 0)
(1.0235 -0.0339465 0)
(1.02557 -0.03437 0)
(1.02765 -0.0346234 0)
(1.02973 -0.0347115 0)
(1.03178 -0.0346366 0)
(1.03378 -0.0344092 0)
(1.03573 -0.0340358 0)
(1.03761 -0.033531 0)
(1.0394 -0.0329041 0)
(1.0411 -0.0321722 0)
(1.0427 -0.0313458 0)
(1.04419 -0.030443 0)
(1.04558 -0.0294735 0)
(1 -0.00070081 0)
(1.00003 -0.00208848 0)
(1.00011 -0.00337538 0)
(1.0002 -0.00456432 0)
(1.0003 -0.00567939 0)
(1.00043 -0.00671742 0)
(1.00058 -0.00771227 0)
(1.00074 -0.00871491 0)
(1.00092 -0.00976173 0)
(1.00113 -0.0108723 0)
(1.00141 -0.0120669 0)
(1.00174 -0.0133631 0)
(1.00214 -0.0147717 0)
(1.00264 -0.0162879 0)
(1.00324 -0.017899 0)
(1.00397 -0.0195871 0)
(1.00483 -0.021333 0)
(1.00582 -0.0231139 0)
(1.00695 -0.0249001 0)
(1.00824 -0.0266665 0)
(1.00967 -0.0283817 0)
(1.01125 -0.0300244 0)
(1.01297 -0.0315663 0)
(1.01482 -0.032989 0)
(1.01679 -0.0342693 0)
(1.01887 -0.0353917 0)
(1.02104 -0.0363416 0)
(1.02328 -0.037108 0)
(1.02557 -0.0376854 0)
(1.02788 -0.0380678 0)
(1.03021 -0.0382582 0)
(1.03252 -0.0382559 0)
(1.0348 -0.0380712 0)
(1.03702 -0.0377092 0)
(1.03917 -0.0371858 0)
(1.04123 -0.0365103 0)
(1.0432 -0.0357024 0)
(1.04505 -0.0347737 0)
(1.04678 -0.033746 0)
(1.04839 -0.0326307 0)
(0.999999 -0.000706322 0)
(1.00002 -0.00211123 0)
(1.00007 -0.00340249 0)
(1.00012 -0.00461019 0)
(1.00017 -0.00574096 0)
(1.00026 -0.00678103 0)
(1.00035 -0.00778464 0)
(1.00044 -0.00880456 0)
(1.00054 -0.00987427 0)
(1.00068 -0.0110156 0)
(1.00087 -0.0122551 0)
(1.00111 -0.0136138 0)
(1.00142 -0.0151027 0)
(1.00182 -0.0167164 0)
(1.00234 -0.0184442 0)
(1.00299 -0.02027 0)
(1.00377 -0.0221756 0)
(1.0047 -0.0241365 0)
(1.00578 -0.0261209 0)
(1.00703 -0.0281024 0)
(1.00846 -0.0300466 0)
(1.01005 -0.0319307 0)
(1.01182 -0.0337209 0)
(1.01374 -0.035396 0)
(1.01581 -0.0369267 0)
(1.01803 -0.0382938 0)
(1.02037 -0.0394767 0)
(1.02281 -0.0404595 0)
(1.02533 -0.0412321 0)
(1.0279 -0.0417834 0)
(1.03051 -0.042113 0)
(1.03312 -0.0422166 0)
(1.03571 -0.0421031 0)
(1.03825 -0.041775 0)
(1.04072 -0.0412492 0)
(1.04311 -0.0405343 0)
(1.04539 -0.0396526 0)
(1.04754 -0.0386166 0)
(1.04956 -0.0374523 0)
(1.05143 -0.0361729 0)
(0.999998 -0.000708533 0)
(1.00001 -0.00212125 0)
(1.00003 -0.00340876 0)
(1.00003 -0.00463752 0)
(1.00004 -0.00577171 0)
(1.00009 -0.00680485 0)
(1.00011 -0.00781366 0)
(1.00013 -0.00884265 0)
(1.00015 -0.00992653 0)
(1.0002 -0.0110907 0)
(1.0003 -0.0123685 0)
(1.00044 -0.0137826 0)
(1.00065 -0.0153438 0)
(1.00095 -0.017048 0)
(1.00136 -0.0188872 0)
(1.00191 -0.0208475 0)
(1.00259 -0.0229121 0)
(1.00343 -0.0250548 0)
(1.00444 -0.0272439 0)
(1.00564 -0.0294519 0)
(1.00703 -0.0316419 0)
(1.00862 -0.0337895 0)
(1.0104 -0.0358554 0)
(1.01238 -0.037816 0)
(1.01454 -0.0396351 0)
(1.01689 -0.0412895 0)
(1.01939 -0.0427515 0)
(1.02203 -0.0439996 0)
(1.0248 -0.0450167 0)
(1.02765 -0.0457859 0)
(1.03057 -0.0463016 0)
(1.03351 -0.0465541 0)
(1.03646 -0.0465496 0)
(1.03937 -0.0462871 0)
(1.04223 -0.045783 0)
(1.04499 -0.0450446 0)
(1.04765 -0.0440964 0)
(1.05017 -0.0429515 0)
(1.05254 -0.0416405 0)
(1.05474 -0.0401787 0)
(0.999995 -0.000707427 0)
(0.999995 -0.00211648 0)
(0.999986 -0.0033969 0)
(0.999932 -0.00464951 0)
(0.999912 -0.00576935 0)
(0.999906 -0.00679202 0)
(0.999865 -0.00780109 0)
(0.9998 -0.00882925 0)
(0.999743 -0.00991967 0)
(0.99971 -0.0110986 0)
(0.999706 -0.0124076 0)
(0.99974 -0.0138678 0)
(0.999833 -0.0154917 0)
(1.00002 -0.0172776 0)
(1.00031 -0.0192208 0)
(1.00073 -0.0213097 0)
(1.0013 -0.0235291 0)
(1.00203 -0.0258522 0)
(1.00294 -0.0282489 0)
(1.00405 -0.0306917 0)
(1.00538 -0.0331416 0)
(1.00693 -0.0355729 0)
(1.0087 -0.0379416 0)
(1.01071 -0.0402214 0)
(1.01294 -0.0423692 0)
(1.0154 -0.0443577 0)
(1.01806 -0.0461505 0)
(1.02091 -0.0477199 0)
(1.02393 -0.0490401 0)
(1.02707 -0.0500866 0)
(1.03033 -0.0508464 0)
(1.03365 -0.0513032 0)
(1.037 -0.0514575 0)
(1.04034 -0.0513037 0)
(1.04364 -0.0508559 0)
(1.04686 -0.0501189 0)
(1.04996 -0.0491188 0)
(1.05292 -0.0478689 0)
(1.05572 -0.0464041 0)
(1.05833 -0.0447423 0)
(0.999992 -0.000701599 0)
(0.999981 -0.00209549 0)
(0.999929 -0.00337151 0)
(0.999827 -0.00464758 0)
(0.999781 -0.00573149 0)
(0.999719 -0.00674817 0)
(0.999608 -0.00774677 0)
(0.999467 -0.00876599 0)
(0.999327 -0.00985633 0)
(0.999201 -0.011041 0)
(0.99909 -0.0123736 0)
(0.999009 -0.0138684 0)
(0.998981 -0.0155442 0)
(0.999037 -0.0174013 0)
(0.999198 -0.0194385 0)
(0.999479 -0.0216478 0)
(0.999901 -0.0240143 0)
(1.00049 -0.0265126 0)
(1.00128 -0.0291159 0)
(1.00228 -0.0317972 0)
(1.0035 -0.0345176 0)
(1.00498 -0.0372498 0)
(1.00671 -0.0399462 0)
(1.00872 -0.0425784 0)
(1.01099 -0.0450966 0)
(1.01353 -0.0474689 0)
(1.01633 -0.0496497 0)
(1.01938 -0.0516041 0)
(1.02265 -0.0532953 0)
(1.0261 -0.0546904 0)
(1.02972 -0.0557656 0)
(1.03345 -0.0564961 0)
(1.03726 -0.0568738 0)
(1.04109 -0.0568866 0)
(1.04491 -0.0565431 0)
(1.04865 -0.055845 0)
(1.0523 -0.0548174 0)
(1.05579 -0.0534741 0)
(1.05911 -0.0518534 0)
(1.06221 -0.0499763 0)
(0.999988 -0.000687285 0)
(0.999963 -0.00205992 0)
(0.999855 -0.00333683 0)
(0.999717 -0.00463101 0)
(0.99965 -0.00565671 0)
(0.999525 -0.00668052 0)
(0.999347 -0.0076477 0)
(0.999127 -0.00865837 0)
(0.998903 -0.00973873 0)
(0.998681 -0.0109208 0)
(0.99846 -0.0122686 0)
(0.998259 -0.0137841 0)
(0.998101 -0.015501 0)
(0.998019 -0.0174166 0)
(0.99803 -0.0195359 0)
(0.998153 -0.0218541 0)
(0.998413 -0.0243563 0)
(0.998842 -0.0270214 0)
(0.999465 -0.0298258 0)
(1.00031 -0.0327443 0)
(1.00141 -0.0357402 0)
(1.00277 -0.0387859 0)
(1.00442 -0.0418317 0)
(1.00638 -0.0448475 0)
(1.00865 -0.0477771 0)
(1.01124 -0.050585 0)
(1.01416 -0.0532152 0)
(1.01738 -0.0556254 0)
(1.02089 -0.0577658 0)
(1.02466 -0.0595934 0)
(1.02866 -0.0610702 0)
(1.03283 -0.0621609 0)
(1.03715 -0.0628444 0)
(1.04154 -0.0630997 0)
(1.04595 -0.062926 0)
(1.05033 -0.0623204 0)
(1.05461 -0.0613036 0)
(1.05875 -0.0598894 0)
(1.0627 -0.0581179 0)
(1.06641 -0.0560144 0)
(0.999986 -0.000657826 0)
(0.999934 -0.00201861 0)
(0.999764 -0.00329314 0)
(0.999607 -0.00459906 0)
(0.999516 -0.00554402 0)
(0.999323 -0.00659709 0)
(0.999086 -0.00749837 0)
(0.998781 -0.00851774 0)
(0.998478 -0.00956539 0)
(0.998153 -0.0107444 0)
(0.997821 -0.0120936 0)
(0.997498 -0.0136165 0)
(0.997203 -0.0153634 0)
(0.996973 -0.0173222 0)
(0.99682 -0.01951 0)
(0.996768 -0.0219226 0)
(0.996846 -0.0245455 0)
(0.997086 -0.0273659 0)
(0.997519 -0.0303604 0)
(0.99818 -0.03351 0)
(0.999095 -0.0367799 0)
(1.0003 -0.0401455 0)
(1.00182 -0.0435569 0)
(1.00368 -0.0469831 0)
(1.0059 -0.0503632 0)
(1.0085 -0.0536582 0)
(1.01149 -0.0568021 0)
(1.01485 -0.059745 0)
(1.01858 -0.0624225 0)
(1.02266 -0.0647798 0)
(1.02705 -0.0667613 0)
(1.03171 -0.0683179 0)
(1.03658 -0.069411 0)
(1.04159 -0.0700072 0)
(1.04669 -0.0700912 0)
(1.05179 -0.0696524 0)
(1.05684 -0.0687029 0)
(1.06174 -0.0672554 0)
(1.06646 -0.065349 0)
(1.07091 -0.0630144 0)
(0.999986 -0.00060368 0)
(0.999892 -0.00198992 0)
(0.99966 -0.00323272 0)
(0.999503 -0.00455534 0)
(0.99938 -0.00539039 0)
(0.999118 -0.00650758 0)
(0.998829 -0.00729082 0)
(0.998431 -0.00836215 0)
(0.998057 -0.00932726 0)
(0.997623 -0.0105257 0)
(0.997184 -0.0118441 0)
(0.996733 -0.0133729 0)
(0.996296 -0.0151317 0)
(0.99591 -0.0171197 0)
(0.995582 -0.0193597 0)
(0.995341 -0.0218499 0)
(0.995218 -0.0245745 0)
(0.995245 -0.0275358 0)
(0.995458 -0.0307029 0)
(0.995894 -0.0340737 0)
(0.996589 -0.0376078 0)
(0.997585 -0.0412931 0)
(0.998916 -0.0450778 0)
(1.00062 -0.0489351 0)
(1.00274 -0.0527997 0)
(1.00528 -0.0566309 0)
(1.00828 -0.0603532 0)
(1.01174 -0.0639098 0)
(1.01566 -0.0672209 0)
(1.02002 -0.0702183 0)
(1.0248 -0.0728256 0)
(1.02995 -0.0749761 0)
(1.03542 -0.0766081 0)
(1.04113 -0.077671 0)
(1.04701 -0.0781286 0)
(1.05295 -0.0779578 0)
(1.05889 -0.0771566 0)
(1.06472 -0.0757336 0)
(1.07037 -0.0737231 0)
(1.07573 -0.071162 0)
(0.999993 -0.000514302 0)
(0.999833 -0.00199791 0)
(0.999554 -0.00313792 0)
(0.999406 -0.00451171 0)
(0.999242 -0.00518747 0)
(0.998913 -0.00642616 0)
(0.998579 -0.00701331 0)
(0.998077 -0.00821593 0)
(0.997653 -0.00900491 0)
(0.997091 -0.0102911 0)
(0.996562 -0.0115035 0)
(0.99597 -0.0130729 0)
(0.995395 -0.0147978 0)
(0.994844 -0.0168188 0)
(0.994332 -0.0190813 0)
(0.993891 -0.0216376 0)
(0.993549 -0.0244366 0)
(0.99334 -0.0275251 0)
(0.993306 -0.0308374 0)
(0.993479 -0.0344182 0)
(0.993912 -0.0381954 0)
(0.994644 -0.0421966 0)
(0.99573 -0.0463483 0)
(0.997215 -0.0506505 0)
(0.999145 -0.0550234 0)
(1.00156 -0.0594355 0)
(1.0045 -0.0637981 0)
(1.00799 -0.0680511 0)
(1.01203 -0.0720988 0)
(1.01664 -0.0758588 0)
(1.02179 -0.0792313 0)
(1.02743 -0.0821279 0)
(1.03354 -0.0844578 0)
(1.04 -0.0861466 0)
(1.04675 -0.0871292 0)
(1.05367 -0.0873627 0)
(1.06067 -0.0868228 0)
(1.06759 -0.0855092 0)
(1.07436 -0.0834462 0)
(1.08084 -0.0806757 0)
(1.00002 -0.000383456 0)
(0.999755 -0.00206314 0)
(0.999466 -0.00298578 0)
(0.999315 -0.0044881 0)
(0.999113 -0.00492156 0)
(0.998712 -0.00637395 0)
(0.998345 -0.00665013 0)
(0.997724 -0.00810904 0)
(0.997279 -0.00856971 0)
(0.996556 -0.0100817 0)
(0.995975 -0.011038 0)
(0.995206 -0.0127581 0)
(0.994521 -0.0143344 0)
(0.993779 -0.0164497 0)
(0.993094 -0.0186575 0)
(0.992432 -0.0213015 0)
(0.991865 -0.0241188 0)
(0.991395 -0.0273376 0)
(0.99109 -0.0307449 0)
(0.990965 -0.0345351 0)
(0.991096 -0.0385105 0)
(0.991508 -0.04283 0)
(0.992287 -0.0473185 0)
(0.993471 -0.0520794 0)
(0.995139 -0.0569616 0)
(0.997336 -0.0619967 0)
(1.00013 -0.0670495 0)
(1.00355 -0.0720835 0)
(1.00764 -0.0769728 0)
(1.01242 -0.0816286 0)
(1.01788 -0.0859235 0)
(1.02401 -0.0897436 0)
(1.03075 -0.0929639 0)
(1.03803 -0.0954772 0)
(1.04575 -0.0971799 0)
(1.05378 -0.0979992 0)
(1.062 -0.0978773 0)
(1.07024 -0.0967956 0)
(1.07837 -0.0947605 0)
(1.08621 -0.0918156 0)
(1.00008 -0.000213279 0)
(0.999646 -0.00219217 0)
(0.99943 -0.00275976 0)
(0.999212 -0.00450485 0)
(0.999017 -0.00457957 0)
(0.998503 -0.00637285 0)
(0.998149 -0.00618509 0)
(0.997363 -0.00807096 0)
(0.996957 -0.00799144 0)
(0.996007 -0.00994687 0)
(0.995452 -0.0104011 0)
(0.99443 -0.0124932 0)
(0.993708 -0.0136888 0)
(0.992706 -0.0160757 0)
(0.991901 -0.0180422 0)
(0.990967 -0.0208902 0)
(0.990198 -0.0235853 0)
(0.989426 -0.0270034 0)
(0.988849 -0.0303915 0)
(0.988375 -0.0344363 0)
(0.988179 -0.0385088 0)
(0.988206 -0.0431852 0)
(0.988626 -0.047925 0)
(0.989417 -0.0531863 0)
(0.99074 -0.0585239 0)
(0.992602 -0.0642408 0)
(0.99514 -0.0699936 0)
(0.998375 -0.0759053 0)
(1.0024 -0.0817275 0)
(1.00725 -0.0874284 0)
(1.01295 -0.0928172 0)
(1.0195 -0.0977663 0)
(1.02688 -0.102106 0)
(1.03499 -0.105688 0)
(1.04377 -0.108359 0)
(1.05305 -0.110002 0)
(1.06269 -0.110511 0)
(1.07248 -0.109835 0)
(1.08225 -0.10795 0)
(1.09177 -0.104892 0)
(1.00024 -1.72074e-05 0)
(0.999471 -0.00237361 0)
(0.999504 -0.00246173 0)
(0.999052 -0.00456734 0)
(0.999012 -0.00416032 0)
(0.99824 -0.00643092 0)
(0.998044 -0.00561222 0)
(0.996952 -0.00811577 0)
(0.996736 -0.00725317 0)
(0.995405 -0.00992303 0)
(0.995039 -0.00955333 0)
(0.993597 -0.0123447 0)
(0.99301 -0.0127975 0)
(0.991586 -0.0157857 0)
(0.990811 -0.0171596 0)
(0.989464 -0.0204972 0)
(0.988608 -0.0227613 0)
(0.987415 -0.0266036 0)
(0.986637 -0.0297065 0)
(0.985713 -0.0341824 0)
(0.985218 -0.0381133 0)
(0.984754 -0.0432983 0)
(0.9848 -0.0480701 0)
(0.985074 -0.0539769 0)
(0.985994 -0.0595833 0)
(0.987364 -0.0661287 0)
(0.989548 -0.072466 0)
(0.992424 -0.07942 0)
(0.996265 -0.0861864 0)
(1.00102 -0.0931339 0)
(1.00685 -0.0997727 0)
(1.01372 -0.106103 0)
(1.02166 -0.111832 0)
(1.03062 -0.116782 0)
(1.04051 -0.120734 0)
(1.05118 -0.123508 0)
(1.06246 -0.124932 0)
(1.07409 -0.124903 0)
(1.08584 -0.123344 0)
(1.09741 -0.120273 0)
(1.00058 0.000185395 0)
(0.99915 -0.00258031 0)
(0.999784 -0.00211473 0)
(0.998738 -0.00465979 0)
(0.9992 -0.00368324 0)
(0.99782 -0.00653249 0)
(0.998137 -0.00494912 0)
(0.996385 -0.00822777 0)
(0.996715 -0.00636937 0)
(0.994644 -0.0100069 0)
(0.994832 -0.00849146 0)
(0.992609 -0.012339 0)
(0.992522 -0.0116252 0)
(0.990318 -0.015646 0)
(0.989927 -0.0159399 0)
(0.98783 -0.020225 0)
(0.987201 -0.0215506 0)
(0.985285 -0.0262613 0)
(0.984562 -0.0285768 0)
(0.982922 -0.0339002 0)
(0.982317 -0.0371936 0)
(0.981117 -0.0432868 0)
(0.980911 -0.0475925 0)
(0.980423 -0.0545485 0)
(0.98099 -0.0599325 0)
(0.981602 -0.0677201 0)
(0.98341 -0.0742045 0)
(0.985632 -0.0826165 0)
(0.989197 -0.090047 0)
(0.993582 -0.0986467 0)
(0.999408 -0.106521 0)
(1.0064 -0.114628 0)
(1.01484 -0.122007 0)
(1.02458 -0.128727 0)
(1.03562 -0.134366 0)
(1.0478 -0.138668 0)
(1.06093 -0.141391 0)
(1.07472 -0.142334 0)
(1.08887 -0.14135 0)
(1.10299 -0.138412 0)
(1.00119 0.00037542 0)
(0.998567 -0.00278072 0)
(1.00039 -0.00175384 0)
(0.998122 -0.00475522 0)
(0.999738 -0.00318419 0)
(0.997071 -0.00664075 0)
(0.998604 -0.00423932 0)
(0.995476 -0.00835989 0)
(0.997072 -0.00539557 0)
(0.993537 -0.0101456 0)
(0.995005 -0.00727131 0)
(0.991277 -0.0124337 0)
(0.99242 -0.0102093 0)
(0.988716 -0.015644 0)
(0.989431 -0.0143849 0)
(0.985875 -0.020106 0)
(0.98617 -0.0199088 0)
(0.982849 -0.026059 0)
(0.982829 -0.0269082 0)
(0.979828 -0.0337188 0)
(0.979688 -0.0356009 0)
(0.977145 -0.0433205 0)
(0.977173 -0.046274 0)
(0.975337 -0.0551062 0)
(0.975937 -0.0592555 0)
(0.975208 -0.0692453 0)
(0.976907 -0.0747787 0)
(0.977874 -0.0857121 0)
(0.981308 -0.0927619 0)
(0.984729 -0.104087 0)
(0.99058 -0.112482 0)
(0.997221 -0.12331 0)
(1.00611 -0.132219 0)
(1.01643 -0.141454 0)
(1.02864 -0.149214 0)
(1.04243 -0.155623 0)
(1.05765 -0.160206 0)
(1.07398 -0.162563 0)
(1.09103 -0.162517 0)
(1.10829 -0.159924 0)
(1.00216 0.000537082 0)
(0.997626 -0.00294953 0)
(1.00144 -0.00140882 0)
(0.997065 -0.00482822 0)
(1.00078 -0.00269843 0)