/*--------------------------------*- C++ -*----------------------------------*\
| =========                 |                                                 |
| \\      /  F ield         | OpenFOAM: The Open Source CFD Toolbox           |
|  \\    /   O peration     | Version:  2512                                  |
|   \\  /    A nd           | Website:  www.openfoam.com                      |
|    \\/     M anipulation  |                                                 |
\*---------------------------------------------------------------------------*/
FoamFile
{
    version     2.0;
    format      ascii;
    arch        "LSB;label=32;scalar=64";
    class       surfaceScalarField;
    location    "86.1";
    object      phi;
}
// * * * * * * * * * * * * * * * * * * * * * * * * * * * * * * * * * * * * * //

dimensions      [0 3 -1 0 0 0 0];

oriented        oriented;

internalField   nonuniform List<scalar> 
26232
(
-0.000467177
0.00187712
-0.00140994
-0.00110267
0.00397483
-0.00333934
-0.00134158
0.00478537
-0.00454645
-0.000676289
0.00432577
-0.00499106
0.00139909
0.00244976
-0.00452514
0.00539933
-0.00108001
-0.00292024
0.0117661
-0.00648019
0.0001134
0.0208661
-0.0138044
0.00470438
0.0327098
-0.0228739
0.0110302
0.0469632
-0.0332331
0.0189797
0.062923
-0.0442431
0.0282833
0.0796178
-0.0552067
0.038512
0.0959659
-0.0654918
0.0491437
0.110956
-0.0746233
0.0596334
0.123817
-0.0823419
0.069481
0.13415
-0.0886246
0.0782913
0.142006
-0.0936687
0.0858129
0.147799
-0.097824
0.0920305
0.152255
-0.101476
0.0970201
0.155911
-0.104996
0.10134
0.159363
-0.108353
0.104901
0.162367
-0.112084
0.10908
0.164543
-0.114611
0.112435
-0.118643
0.117695
0.165491
-0.000272978
0.00215009
-0.000449587
0.00415144
5.27665e-05
0.00428301
0.00181657
0.00256196
0.00543419
-0.00116786
0.011448
-0.00709377
0.0202133
-0.0152455
0.0317321
-0.0253231
0.0455302
-0.036672
0.0607177
-0.0484206
0.0761665
-0.0596918
0.0907488
-0.0697891
0.103562
-0.0783053
0.114093
-0.0851539
0.12228
-0.0905285
0.128465
-0.0948101
0.133228
-0.0984315
0.137164
-0.10176
0.140696
-0.105008
0.143956
-0.108256
0.147063
-0.11146
0.149676
-0.114697
0.152643
-0.117578
-0.121432
0.155433
-6.86907e-05
0.00221879
0.000297542
0.0037852
0.00170597
0.00287459
0.00480209
-0.000534161
0.0102109
-0.00657669
0.0183688
-0.0152516
0.0292878
-0.0261645
0.0424085
-0.0384438
0.0566837
-0.0509473
0.0708569
-0.0625938
0.0837917
-0.0726266
0.0947282
-0.0807257
0.103406
-0.0869826
0.110028
-0.0917764
0.115103
-0.0956036
0.11921
-0.0989168
0.122805
-0.102026
0.126136
-0.105092
0.129276
-0.108149
0.132262
-0.111242
0.135085
-0.114282
0.137857
-0.11747
0.140634
-0.120355
-0.123807
0.143009
0.000110831
0.00210795
0.00103753
0.0028585
0.00344563
0.00046649
0.00802678
-0.00511531
0.0153238
-0.0138737
0.0254349
-0.0253627
0.0377726
-0.0385022
0.0511625
-0.0518338
0.0642327
-0.0640174
0.0758442
-0.0742053
0.0853676
-0.08215
0.0927397
-0.0880978
0.0983265
-0.0925694
0.102681
-0.0961305
0.106309
-0.0992323
0.109547
-0.102155
0.112559
-0.105038
0.115402
-0.107935
0.118132
-0.110878
0.120751
-0.113861
0.123354
-0.116885
0.125869
-0.119985
0.12844
-0.122925
-0.126441
0.131074
0.000278075
0.00182988
0.00180063
0.00133595
0.00530913
-0.003042
0.011464
-0.0112702
0.0205212
-0.022931
0.0319586
-0.0368001
0.0445183
-0.0510619
0.0567045
-0.0640199
0.0673393
-0.0746523
0.0758652
-0.0827312
0.0823345
-0.0886193
0.0871866
-0.0929499
0.0909669
-0.0963497
0.0941237
-0.0992873
0.0969388
-0.102047
0.0995618
-0.104778
0.102068
-0.107544
0.104507
-0.110375
0.106896
-0.113268
0.109256
-0.116221
0.11159
-0.11922
0.11388
-0.122275
0.116261
-0.125306
-0.128639
0.118458
0.000471025
0.00135885
0.00266566
-0.000858692
0.00736246
-0.0077388
0.0150349
-0.0189426
0.0253616
-0.0332576
0.0370881
-0.0485267
0.0485824
-0.0625563
0.0585583
-0.0739957
0.0664418
-0.0825358
0.0723191
-0.0886084
0.0766508
-0.0929511
0.0799722
-0.0962713
0.0827102
-0.0990876
0.0851373
-0.101714
0.0874051
-0.104315
0.0895886
-0.106961
0.0917213
-0.109676
0.0938077
-0.112461
0.0958532
-0.115313
0.0978598
-0.118228
0.0998445
-0.121204
0.101822
-0.124252
0.103835
-0.127318
-0.130617
0.105813
0.000712685
0.00064617
0.00366387
-0.00380987
0.00955963
-0.0136346
0.0184309
-0.0278139
0.0291954
-0.0440222
0.0401059
-0.0594372
0.0496786
-0.072129
0.0572124
-0.0815295
0.0627441
-0.0880675
0.0667219
-0.0925862
0.0696797
-0.0959089
0.0720499
-0.0986415
0.0741134
-0.101151
0.076025
-0.103626
0.0778555
-0.106146
0.0796319
-0.108737
0.0813616
-0.111406
0.0830537
-0.114153
0.0847176
-0.116977
0.0863663
-0.119876
0.0880133
-0.122851
0.0896523
-0.125891
0.0913253
-0.128991
-0.13223
0.0929389
0.0010036
-0.000357433
0.00475572
-0.00756199
0.0117026
-0.0205814
0.0211877
-0.037299
0.0314745
-0.0543089
0.0408071
-0.0687699
0.0482252
-0.079547
0.053621
-0.0869253
0.0573934
-0.0918399
0.0600799
-0.0952728
0.0621361
-0.097965
0.0638636
-0.100369
0.0654279
-0.102715
0.0669047
-0.105103
0.0683244
-0.107565
0.0696997
-0.110113
0.0710398
-0.112746
0.0723509
-0.115464
0.0736387
-0.118265
0.0749091
-0.121147
0.0761659
-0.124108
0.0774224
-0.127148
0.0786956
-0.130265
-0.133475
0.0799407
0.00132592
-0.00168336
0.00584466
-0.0120807
0.0135105
-0.0282473
0.0229051
-0.0466936
0.0320193
-0.0634232
0.0394912
-0.0762417
0.0449413
-0.0849971
0.048658
-0.090642
0.0511719
-0.0943538
0.0529717
-0.0970726
0.0543936
-0.0993869
0.0556254
-0.101601
0.0567554
-0.103845
0.0578205
-0.106168
0.0588363
-0.108581
0.0598104
-0.111087
0.0607476
-0.113684
0.0616534
-0.11637
0.0625355
-0.119147
0.0634016
-0.122013
0.0642617
-0.124968
0.0651208
-0.128007
0.0659831
-0.131127
-0.134317
0.0668252
0.00165518
-0.00333854
0.00680596
-0.0172315
0.0147271
-0.0361685
0.0234135
-0.0553799
0.0310042
-0.071014
0.0366757
-0.0819131
0.0404962
-0.0888176
0.0429497
-0.0930956
0.0445596
-0.0959637
0.0457115
-0.0982245
0.0466301
-0.100305
0.0474246
-0.102395
0.0481417
-0.104563
0.0487999
-0.106826
0.0494079
-0.109189
0.0499715
-0.11165
0.0504969
-0.114209
0.0509911
-0.116864
0.0514606
-0.119616
0.0519116
-0.122464
0.0523487
-0.125405
0.0527788
-0.128437
0.0532058
-0.131554
-0.134737
0.0536253
0.00195847
-0.00529701
0.00751614
-0.0227892
0.0152077
-0.0438601
0.0227815
-0.0629537
0.0287802
-0.0770126
0.032871
-0.0860039
0.0354006
-0.0913473
0.0369063
-0.0946013
0.0378352
-0.0968926
0.0384661
-0.0988554
0.0389404
-0.10078
0.0393193
-0.102774
0.0396273
-0.10487
0.0398749
-0.107074
0.0400691
-0.109383
0.0402156
-0.111797
0.0403203
-0.114314
0.040389
-0.116933
0.0404282
-0.119655
0.0404447
-0.122481
0.0404455
-0.125406
0.0404341
-0.128426
0.0404077
-0.131527
-0.134698
0.0403688
0.00220811
-0.00750512
0.00789184
-0.0284729
0.0149517
-0.0509199
0.0212264
-0.0692283
0.0257298
-0.0815161
0.028498
-0.0887721
0.0300145
-0.0928637
0.0307845
-0.0953714
0.0311597
-0.0972677
0.0313302
-0.0990259
0.0313815
-0.100831
0.0313474
-0.10274
0.0312422
-0.104765
0.0310732
-0.106905
0.030846
-0.109156
0.0305657
-0.111517
0.0302379
-0.113986
0.0298685
-0.116564
0.0294635
-0.11925
0.0290291
-0.122046
0.0285712
-0.124948
0.0280949
-0.127949
0.0276029
-0.131036
0.0271077
-0.134203
-0.000521064
0.000750473
-0.000229408
-0.00169576
0.00427819
-0.00310349
-0.00343388
0.00831773
-0.00657961
-0.00567352
0.0120212
-0.00978156
-0.00830583
0.0152572
-0.0126249
-0.0111953
0.0183075
-0.015418
-0.014217
0.0214973
-0.0184756
-0.0172651
0.0250019
-0.0219537
-0.0202352
0.028839
-0.025869
-0.0230028
0.0329306
-0.030163
-0.025414
0.0371483
-0.034737
-0.0272858
0.0413275
-0.0394557
-0.0284122
0.0452706
-0.0441442
-0.0285722
0.0487471
-0.0485871
-0.0275441
0.0515045
-0.0525326
-0.0251225
0.0532809
-0.0557025
-0.0211358
0.053821
-0.0578077
-0.0154634
0.0528951
-0.0585674
-0.00805057
0.0503209
-0.0577338
0.00110225
0.0459712
-0.055124
0.0118571
0.0398385
-0.0505933
0.0240686
0.0319068
-0.0441183
0.0373334
0.0225175
-0.0357823
0.0113145
0.051644
-0.0256251
-0.000259678
0.00101015
-0.00085795
0.00487646
-0.00184503
0.00930482
-0.00325153
0.0134277
-0.00500277
0.0170085
-0.00693887
0.0202436
-0.00887975
0.0234382
-0.0106669
0.0267891
-0.0121595
0.0303315
-0.0132164
0.0339876
-0.0136792
0.0376111
-0.013372
0.0410203
-0.0121176
0.0440161
-0.0097333
0.0463629
-0.0060527
0.0478239
-0.000939456
0.0481677
0.00569638
0.0471851
0.0138839
0.0447075
0.02358
0.0406248
0.0346967
0.0348544
0.0469999
0.0275353
0.060387
0.0185197
0.0742838
0.00862067
-0.00326606
0.0888643
-1.86894e-06
0.00101202
-2.82531e-06
0.00487741
-0.000150393
0.00945239
-0.000579841
0.0138571
-0.00127828
0.0177069
-0.00209366
0.0210589
-0.00281119
0.0241557
-0.00322024
0.0271982
-0.00314348
0.0302548
-0.00242338
0.0332675
-0.000914277
0.0361019
0.00152669
0.0385793
0.00505488
0.040488
0.00979397
0.0416238
0.0158404
0.0417775
0.0232515
0.0407565
0.032034
0.0384026
0.0421436
0.034598
0.0534571
0.0293113
0.0658438
0.0224677
0.078941
0.0144381
0.092678
0.0047828
0.106607
-0.00530822
-0.0174753
0.120816
0.000193436
0.000818584
0.000699714
0.00437114
0.00132856
0.00882354
0.00188747
0.0132982
0.0023042
0.0172902
0.00267303
0.0206901
0.0032016
0.0236271
0.00412743
0.0262723
0.00566525
0.028717
0.0079901
0.0309426
0.0112471
0.032845
0.0155582
0.0342682
0.0210143
0.0350318
0.0276844
0.0349536
0.0356012
0.0338607
0.0447466
0.0316111
0.055067
0.0280822
0.0664178
0.0232472
0.0786489
0.0170802
0.0915235
0.00959317
0.104599
0.00136299
0.118255
-0.00887362
0.131549
-0.0186022
-0.0313094
0.145383
0.0003021
0.000516484
0.0011367
0.00353653
0.00235006
0.00761018
0.00374113
0.0119072
0.00517737
0.0158539
0.00667272
0.0191948
0.00837654
0.0219233
0.0105085
0.0241404
0.0132924
0.0259331
0.0169177
0.0273173
0.0215287
0.028234
0.0272253
0.0285716
0.0340653
0.0281919
0.042063
0.026956
0.0511943
0.0247294
0.0613612
0.0214442
0.0724748
0.0169686
0.0842721
0.0114499
0.0966224
0.00472994
0.109285
-0.00306987
0.122367
-0.0117184
0.135592
-0.0220989
0.149084
-0.0320939
-0.0463506
0.164125
0.000314579
0.000201905
0.00125066
0.00260045
0.00274332
0.00611752
0.00464898
0.0100015
0.00682681
0.0136761
0.00922621
0.0167954
0.0119148
0.0192347
0.0150477
0.0210074
0.0188138
0.0221671
0.0233885
0.0227425
0.0289072
0.0227154
0.0354535
0.0220253
0.0430574
0.020588
0.0516923
0.0183211
0.0612898
0.0151319
0.0717078
0.0110262
0.0828374
0.00583899
0.0944509
-0.00016362
0.106789
-0.0076086
0.119416
-0.0156966
0.133141
-0.0254431
0.147657
-0.0366147
0.164009
-0.048446
-0.0644226
0.182081
0.000238696
-3.67908e-05
0.00104946
0.00178968
0.00247784
0.00468913
0.00447946
0.00799988
0.00696005
0.0111955
0.00985028
0.0139051
0.0131531
0.0159319
0.0169454
0.0172151
0.021348
0.0177644
0.0264875
0.0176031
0.032465
0.0167378
0.0393389
0.0151513
0.0471203
0.0128065
0.0557808
0.00966065
0.0652721
0.00564056
0.0755454
0.000752916
0.0867238
-0.00533945
0.0988723
-0.0123121
0.112278
-0.0210138
0.127014
-0.0304332
0.143939
-0.0423681
0.161974
-0.0546491
0.182259
-0.0687316
-0.0839569
0.201794
9.05243e-05
-0.000127315
0.000581856
0.00129835
0.00163768
0.00363331
0.00332066
0.0063169
0.00561174
0.00890446
0.00846573
0.0110511
0.0118593
0.0125383
0.0158114
0.0132629
0.020378
0.0131978
0.0256324
0.0123487
0.0316486
0.0107217
0.0384988
0.00830105
0.0462614
0.005044
0.0550455
0.000876547
0.0650332
-0.0043472
0.0764973
-0.0107111
0.0895822
-0.0184244
0.104664
-0.0273944
0.121689
-0.0380387
0.14063
-0.0493737
0.160945
-0.0626832
0.181156
-0.0748603
0.2012
-0.0887754
-0.0996428
0.216886
-0.000118907
-8.4081e-06
-7.58068e-05
0.00125525
0.000400485
0.00315702
0.0014634
0.00525398
0.00317248
0.00719538
0.00553335
0.00869025
0.00853985
0.00953183
0.012208
0.00959478
0.0165953
0.00881055
0.0218113
0.00713272
0.0280157
0.00451736
0.0354459
0.000870759
0.0443688
-0.00387886
0.0551046
-0.0098593
0.0678919
-0.0171344
0.0829239
-0.0257431
0.100081
-0.0355815
0.11919
-0.0465038
0.139356
-0.0582043
0.16
-0.0700173
0.179302
-0.0819852
0.196415
-0.0919739
0.209946
-0.102306
-0.107735
0.218038
-0.000338184
0.000329776
-0.000774457
0.00169153
-0.000928821
0.00331138
-0.000566235
0.0048914
0.00044952
0.00617962
0.00220224
0.00693753
0.00478076
0.00695332
0.00830427
0.00607127
0.0129645
0.00415029
0.0190479
0.00104934
0.0268626
-0.00329728
0.0367307
-0.00899739
0.0489125
-0.0160607
0.0634855
-0.0244323
0.0802929
-0.0339418
0.0989176
-0.0443678
0.118621
-0.0552851
0.138503
-0.0663854
0.157271
-0.0769724
0.174056
-0.0868029
0.187307
-0.0952356
0.197243
-0.10191
0.202801
-0.107865
-0.110567
0.205633
-0.000516497
0.000846272
-0.00130303
0.00247806
-0.00189991
0.00390826
-0.00199243
0.00498392
-0.00133665
0.00552384
0.000294131
0.00530675
0.00314683
0.00410061
0.0075328
0.0016853
0.0138029
-0.0021198
0.0222773
-0.00742506
0.0332243
-0.0142443
0.0466909
-0.022464
0.0624764
-0.0318462
0.0800919
-0.0420477
0.0987899
-0.0526398
0.117602
-0.0631796
0.135474
-0.0731573
0.151345
-0.0822568
0.164361
-0.089988
0.174148
-0.0965904
0.180552
-0.101639
0.184912
-0.10627
0.187241
-0.110194
-0.113218
0.189893
-0.000563667
-0.00142494
-0.00206314
-0.00207028
-0.00107158
0.00131494
0.00552896
0.0119186
0.020829
0.0323836
0.0464226
0.0624706
0.0797681
0.0973537
0.114195
0.129307
0.141962
0.151736
0.158768
0.163518
0.16678
0.16959
0.17183
0.176307
0.0671716
0.00151616
-0.0170438
0.0806464
-0.0219057
0.00843096
0.0924668
-0.0493901
0.0375696
0.102941
-0.0815941
0.0711201
0.112068
-0.115758
0.106631
0.119216
-0.145189
0.138041
0.123855
-0.163736
0.159097
0.125405
-0.170337
0.168787
0.12427
-0.170024
0.17116
0.12235
-0.166856
0.168776
0.119877
-0.161694
0.164168
0.11497
-0.159661
0.164567
0.107629
-0.166017
0.173359
0.101721
-0.173539
0.179446
0.101736
-0.162553
0.162539
0.108127
-0.118339
0.111948
0.118857
-0.0448267
0.0340966
0.131107
0.0404671
-0.0527174
0.143073
0.115078
-0.127044
0.152484
0.16447
-0.173881
0.157884
0.190569
-0.195969
0.160604
0.200967
-0.203687
0.162286
0.200419
-0.2021
0.162062
0.200347
-0.200123
0.158443
0.215563
-0.211943
0.151829
0.243179
-0.236566
0.144025
0.254279
-0.246475
0.136891
0.218822
-0.211688
0.132464
0.127689
-0.123263
0.132696
0.00485979
-0.00509163
0.136909
-0.110204
0.105991
0.143257
-0.187526
0.181177
0.148647
-0.228402
0.223012
0.149918
-0.244833
0.243562
0.144534
-0.25697
0.262354
0.133403
-0.265968
0.277099
0.121157
-0.256885
0.269131
0.112835
-0.202482
0.210805
0.112164
-0.0964976
0.0971679
0.119508
0.0258699
-0.0332138
0.129514
0.132811
-0.142817
0.134272
0.203524
-0.208283
0.1309
0.265488
-0.262116
0.12394
0.294806
-0.287846
0.119136
0.284112
-0.279308
0.119146
0.195053
-0.195063
0.123127
0.0605973
-0.0645788
0.125683
-0.0764849
0.0739291
0.124965
-0.212713
0.213431
0.122218
-0.287805
0.290551
0.120344
-0.320972
0.322847
0.11843
-0.213211
0.215124
0.118608
-0.0557142
0.0555371
0.118837
0.0890658
-0.0892949
0.119452
0.274724
-0.275339
0.119713
0.305691
-0.305953
0.120398
0.352157
-0.352842
0.117479
0.182589
-0.17967
0.113053
-0.27734
0.281766
-0.24187
0.243851
0.100439
-0.0100588
0.110297
-0.0317635
0.118599
-0.0576924
0.125771
-0.0887654
0.131317
-0.121305
0.13397
-0.147842
0.133462
-0.163228
0.130458
-0.167333
0.125504
-0.16507
0.120151
-0.161503
0.11525
-0.156794
0.108655
-0.153066
0.0990759
-0.156438
0.0896925
-0.164155
0.0861944
-0.159055
0.0912837
-0.123429
0.103043
-0.0565863
0.118782
0.0247281
0.134849
0.0990112
0.147919
0.1514
0.156589
0.181899
0.162244
0.195312
0.166341
0.196322
0.168468
0.19822
0.167638
0.216393
0.163737
0.24708
0.157536
0.260481
0.150466
0.225892
0.144416
0.133739
0.14166
0.0076159
0.142381
-0.110924
0.14537
-0.190515
0.147892
-0.230924
0.147257
-0.244198
0.140655
-0.250368
0.12855
-0.253862
0.115951
-0.244286
0.108579
-0.195111
0.109809
-0.0977278
0.119345
0.016334
0.130443
0.121713
0.135818
0.19815
0.133143
0.268163
0.126395
0.301555
0.121117
0.289389
0.120273
0.195897
0.123915
0.0569548
0.126261
-0.0788303
0.124782
-0.211233
0.121213
-0.284236
0.119166
-0.318925
0.118126
-0.212171
0.118699
-0.0562867
0.11959
0.0881746
0.120338
0.273976
0.121182
0.304848
0.122708
0.35063
0.118872
0.186424
0.113646
-0.272114
-0.240327
0.128696
-0.0179384
0.13571
-0.0387783
0.141759
-0.0637409
0.146359
-0.0933651
0.148654
-0.1236
0.147294
-0.146482
0.142208
-0.158142
0.135205
-0.16033
0.127317
-0.157182
0.119268
-0.153454
0.112223
-0.149749
0.104572
-0.145415
0.0935587
-0.145425
0.081138
-0.151734
0.0737721
-0.15169
0.0764476
-0.126104
0.0886182
-0.068757
0.106873
0.00647371
0.126322
0.0795619
0.142868
0.134854
0.154844
0.169922
0.163483
0.186673
0.170155
0.189649
0.174944
0.193431
0.177256
0.214081
0.176408
0.247929
0.172124
0.264764
0.165193
0.232823
0.157443
0.141489
0.151361
0.0136981
0.148408
-0.107972
0.147958
-0.190065
0.147585
-0.230551
0.145255
-0.241869
0.137948
-0.243061
0.125257
-0.241171
0.112224
-0.231254
0.105532
-0.188419
0.10843
-0.100625
0.119651
0.00511305
0.131794
0.109569
0.13808
0.191865
0.136363
0.269879
0.129831
0.308088
0.12387
0.29535
0.121963
0.197804
0.125122
0.0537956
0.127349
-0.0810573
0.125187
-0.209072
0.120685
-0.279734
0.118342
-0.316582
0.118225
-0.212053
0.119246
-0.0573079
0.120734
0.0866868
0.121598
0.273112
0.12297
0.303476
0.125323
0.348277
0.120735
0.191013
0.114771
-0.266151
-0.239108
0.151069
-0.0236242
0.156657
-0.0443666
0.16173
-0.0688138
0.164662
-0.096297
0.163465
-0.122404
0.157635
-0.140651
0.148448
-0.148955
0.138303
-0.150185
0.128547
-0.147426
0.118965
-0.143872
0.110293
-0.141077
0.102158
-0.13728
0.0913532
-0.13462
0.0773681
-0.137749
0.0662151
-0.140537
0.0652095
-0.125098
0.0760493
-0.0795967
0.0954586
-0.0129356
0.117416
0.0576046
0.136996
0.115274
0.152165
0.154753
0.163716
0.175122
0.172907
0.180459
0.18051
0.185829
0.186376
0.208215
0.189056
0.245249
0.187109
0.266711
0.180578
0.239355
0.171085
0.150981
0.161632
0.0231516
0.154991
-0.101332
0.151119
-0.186192
0.147803
-0.227235
0.143734
-0.2378
0.136101
-0.235427
0.123361
-0.228431
0.109951
-0.217844
0.103465
-0.181933
0.107518
-0.104679
0.120142
-0.00751129
0.133459
0.0962528
0.140983
0.184341
0.140414
0.270448
0.134153
0.314349
0.127452
0.302051
0.124301
0.200955
0.126773
0.0513243
0.128923
-0.0832073
0.126188
-0.206338
0.120655
-0.274201
0.11787
-0.313797
0.118603
-0.212786
0.120197
-0.0589021
0.122243
0.0846412
0.12321
0.272145
0.125012
0.301674
0.128185
0.345104
0.123031
0.196167
0.116412
-0.259532
-0.238126
0.169779
-0.0292785
0.175252
-0.0498395
0.179224
-0.0727861
0.179533
-0.0966053
0.174429
-0.1173
0.16451
-0.130733
0.152156
-0.136601
0.139809
-0.137839
0.128949
-0.136567
0.118931
-0.133854
0.109377
-0.131522
0.100876
-0.12878
0.0911219
-0.124866
0.0775483
-0.124176
0.0638313
-0.12682
0.058487
-0.119754
0.0664511
-0.0875608
0.084955
-0.0314395
0.108262
0.0342972
0.130163
0.0933736
0.14814
0.136776
0.162362
0.160899
0.174015
0.168806
0.184418
0.175426
0.193713
0.198919
0.200082
0.23888
0.201249
0.265543
0.196166
0.244438
0.185317
0.16183
0.172346
0.0361225
0.161891
-0.0908762
0.154569
-0.17887
0.148438
-0.221105
0.142637
-0.231999
0.134953
-0.227743
0.122711
-0.216189
0.109037
-0.20417
0.102246
-0.175141
0.106872
-0.109305
0.1205
-0.0211393
0.135158
0.0815949
0.144345
0.175154
0.145385
0.269408
0.139599
0.320135
0.132117
0.309533
0.127462
0.20561
0.128891
0.049895
0.130927
-0.0852437
0.127757
-0.203167
0.121121
-0.267566
0.117709
-0.310385
0.119247
-0.214324
0.121492
-0.0611474
0.124088
0.0820454
0.125137
0.271096
0.127239
0.299571
0.131234
0.341109
0.125725
0.201676
0.118547
-0.252354
-0.237308
0.188018
-0.035216
0.192598
-0.0544196
0.193858
-0.0740462
0.190029
-0.0927762
0.180745
-0.108016
0.167777
-0.117764
0.153863
-0.122687
0.140686
-0.124662
0.12914
-0.12502
0.119024
-0.123738
0.109285
-0.121783
0.100437
-0.119932
0.0920339
-0.116462
0.0806132
-0.112755
0.0663046
-0.112511
0.0567364
-0.110186
0.0599463
-0.0907707
0.0758134
-0.0473066
0.0989329
0.0111778
0.122306
0.0700008
0.142572
0.116509
0.159103
0.144369
0.172851
0.155058
0.185686
0.162591
0.198421
0.186184
0.20879
0.228512
0.213157
0.261175
0.209639
0.247956
0.198696
0.172773
0.183117
0.0517022
0.1688
-0.0765599
0.158096
-0.168166
0.149378
-0.212388
0.141786
-0.224407
0.134102
-0.220059
0.122941
-0.205028
0.10933
-0.190559
0.10173
-0.167541
0.106139
-0.113714
0.120486
-0.0354862
0.136624
0.0654565
0.147832
0.163946
0.150805
0.266435
0.145831
0.32511
0.137825
0.317538
0.131546
0.211889
0.131522
0.0499194
0.133295
-0.0870174
0.129835
-0.199706
0.122074
-0.259805
0.117812
-0.306124
0.12009
-0.216602
0.123066
-0.0641228
0.12623
0.0788813
0.127337
0.269989
0.129583
0.297325
0.134395
0.336297
0.128775
0.207296
0.121153
-0.244733
-0.236587
0.205612
-0.039034
0.206596
-0.0554043
0.203102
-0.0705522
0.194489
-0.084163
0.181743
-0.0952694
0.167129
-0.10315
0.152951
-0.10851
0.140143
-0.111853
0.128701
-0.113579
0.118716
-0.113753
0.109418
-0.112485
0.100473
-0.110987
0.0927114
-0.1087
0.0842036
-0.104247
0.0720439
-0.100351
0.0599851
-0.098127
0.0573153
-0.088101
0.0683777
-0.058369
0.0895927
-0.0100372
0.113518
0.0460753
0.135544
0.0944835
0.15402
0.125893
0.169507
0.13957
0.184277
0.147821
0.199779
0.170682
0.213789
0.214502
0.221935
0.253029
0.220871
0.249021
0.210143
0.183501
0.19268
0.0691652
0.175132
-0.0590119
0.161357
-0.154391
0.150426
-0.201457
0.141119
-0.2151
0.13327
-0.21221
0.123606
-0.195364
0.110606
-0.177559
0.10187
-0.158805
0.105202
-0.117045
0.119811
-0.0500951
0.137512
0.0477553
0.151132
0.150326
0.156676
0.260891
0.153137
0.328649
0.144798
0.325878
0.136705
0.219982
0.134698
0.0519262
0.135947
-0.0882666
0.13233
-0.196089
0.123483
-0.250958
0.118131
-0.300772
0.121058
-0.219528
0.124837
-0.0679023
0.128629
0.0750896
0.129769
0.268848
0.131971
0.295124
0.137596
0.330671
0.132133
0.212759
0.124197
-0.236796
-0.235907
0.216139
-0.038287
0.211875
-0.0511404
0.203492
-0.0621698
0.1916
-0.0722701
0.177742
-0.0814118
0.163645
-0.0890532
0.15041
-0.095274
0.138432
-0.0998758
0.127528
-0.102675
0.117804
-0.104029
0.10924
-0.103921
0.100973
-0.102721
0.0933818
-0.101109
0.0868084
-0.0976738
0.0783745
-0.0919175
0.0670553
-0.0868077
0.0595505
-0.0805962
0.0640956
-0.0629141
0.0807098
-0.0266514
0.103854
0.0229315
0.126898
0.0714394
0.147003
0.105788
0.163967
0.122606
0.180036
0.131752
0.197509
0.153209
0.214806
0.197204
0.226438
0.241397
0.227694
0.247765
0.217862
0.193333
0.19986
0.0871669
0.180268
-0.039419
0.164024
-0.138147
0.151325
-0.188757
0.140517
-0.204292
0.132214
-0.203907
0.124191
-0.187341
0.112532
-0.165899
0.102708
-0.148982
0.104099
-0.118436
0.118341
-0.0643373
0.137545
0.0285521
0.153735
0.134135
0.162107
0.252519
0.160689
0.330067
0.15265
0.333917
0.142822
0.22981
0.13849
0.0562585
0.138811
-0.0885877
0.13513
-0.192408
0.125309
-0.241136
0.118617
-0.29408
0.122057
-0.222968
0.126734
-0.0725789
0.131234
0.0705893
0.132392
0.26769
0.134342
0.293174
0.14078
0.324233
0.135758
0.217781
0.127644
-0.228683
-0.235223
0.21332
-0.0335685
0.205594
-0.0434145
0.19527
-0.0518454
0.183392
-0.0603919
0.170961
-0.0689812
0.158731
-0.0768233
0.146965
-0.0835077
0.135873
-0.0887839
0.125653
-0.0924556
0.116354
-0.0947292
0.108291
-0.0958583
0.101097
-0.0955266
0.0940796
-0.0940912
0.088093
-0.0916872
0.0827452
-0.0865696
0.0750388
-0.0791013
0.0662196
-0.071777
0.0642375
-0.0609321
0.0744853
-0.0368992
0.0946714
0.00274535
0.117449
0.0486618
0.138402
0.0848351
0.156238
0.10477
0.173022
0.114969
0.191932
0.134299
0.212081
0.177054
0.22758
0.225898
0.232438
0.242907
0.22421
0.20156
0.205624
0.105753
0.18421
-0.0180044
0.16593
-0.119868
0.151871
-0.174698
0.1399
-0.192321
0.130846
-0.194853
0.124239
-0.180735
0.114614
-0.156274
0.10423
-0.138597
0.103048
-0.117255
0.11598
-0.0772693
0.136383
0.0081498
0.155456
0.115062
0.167268
0.240707
0.168705
0.32863
0.161427
0.341195
0.149845
0.241392
0.142792
0.0633115
0.141781
-0.0875765
0.138093
-0.188721
0.127481
-0.230525
0.119219
-0.285818
0.123003
-0.226752
0.128662
-0.0782386
0.133992
0.0652599
0.13517
0.266512
0.136658
0.291686
0.1439
0.31699
0.139613
0.222069
0.131461
-0.220531
-0.234497
0.200068
-0.0280034
0.192447
-0.035794
0.183418
-0.042816
0.173644
-0.0506178
0.163373
-0.0587104
0.152869
-0.0663189
0.142398
-0.0730374
0.132254
-0.0786399
0.122875
-0.0830763
0.114398
-0.0862521
0.106835
-0.0882958
0.100379
-0.0890705
0.0944432
-0.0881551
0.0887967
-0.0860408
0.0845234
-0.0822963
0.0805517
-0.0751296
0.0744454
-0.0656707
0.0692825
-0.0557692
0.0726118
-0.0402285
0.0870354
-0.0116782
0.107942
0.0277547
0.128908
0.0638692
0.14707
0.0866086
0.163786
0.0982533
0.18264
0.115445
0.204087
0.155607
0.222688
0.207297
0.23075
0.234845
0.224763
0.207547
0.207505
0.12301
0.186571
0.00293019
0.166925
-0.100223
0.151792
-0.159564
0.139036
-0.179565
0.12907
-0.184887
0.123389
-0.175054
0.116226
-0.149111
0.106171
-0.128542
0.102272
-0.113355
0.112922
-0.0879194
0.133885
-0.012813
0.155488
0.093459
0.170706
0.225489
0.175623
0.323713
0.170308
0.346509
0.157406
0.254294
0.147673
0.0730444
0.144777
-0.0846808
0.14106
-0.185004
0.129898
-0.219362
0.119884
-0.275804
0.123797
-0.230665
0.130543
-0.0849856
0.136839
0.0589644
0.138059
0.265291
0.138899
0.290846
0.146939
0.308951
0.143679
0.225329
0.135624
-0.212477
-0.233697
0.185549
-0.0236599
0.179481
-0.0297259
0.172294
-0.0356294
0.164254
-0.0425773
0.155432
-0.0498887
0.146105
-0.0569913
0.13667
-0.0636024
0.1275
-0.0694698
0.118924
-0.0745001
0.111204
-0.0785329
0.104268
-0.0813594
0.0981909
-0.0829935
0.0930835
-0.0830477
0.0883737
-0.0813309
0.0843578
-0.0782804
0.0820239
-0.0727957
0.0798378
-0.0634846
0.0763585
-0.0522898
0.0757709
-0.0396409
0.0838152
-0.0197225
0.100422
0.011148
0.119808
0.0444836
0.137679
0.0687376
0.153713
0.0822187
0.172051
0.0971075
0.195047
0.132611
0.216889
0.185456
0.228371
0.223363
0.224889
0.211029
0.208996
0.138903
0.186402
0.0255242
0.166356
-0.0801763
0.150688
-0.143896
0.137714
-0.166591
0.126946
-0.174119
0.121575
-0.169683
0.116897
-0.144433
0.108101
-0.119746
0.101868
-0.107123
0.109269
-0.0953195
0.129984
-0.0335288
0.154318
0.0691253
0.173479
0.206328
0.181899
0.315292
0.178643
0.349766
0.165121
0.267817
0.152738
0.0854274
0.14768
-0.0796233
0.143865
-0.181188
0.132477
-0.207974
0.120695
-0.264021
0.124392
-0.234362
0.132282
-0.0928757
0.139687
0.0515593
0.141016
0.263962
0.141074
0.290789
0.149892
0.300133
0.147923
0.227298
0.14011
-0.204664
-0.232794
0.172726
-0.0200785
0.167566
-0.024566
0.161603
-0.0296665
0.154679
-0.0356527
0.146966
-0.0421761
0.138835
-0.0488601
0.130613
-0.0553813
0.122603
-0.0614595
0.114989
-0.066886
0.107948
-0.0714917
0.101585
-0.0749963
0.0958666
-0.0772752
0.0910031
-0.0781843
0.0869837
-0.0773115
0.0834519
-0.0747485
0.0811485
-0.0704923
0.0806283
-0.0629645
0.0802482
-0.0519097
0.0798693
-0.039262
0.0834781
-0.0233314
0.0943117
0.000314372
0.110173
0.0286221
0.126319
0.0525918
0.141366
0.0671715
0.157891
0.0805823
0.178984
0.111518
0.202258
0.162182
0.218637
0.206984
0.219471
0.210196
0.206483
0.151891
0.187007
0.0450002
0.166613
-0.0597819
0.149981
-0.127265
0.136752
-0.153362
0.125244
-0.162611
0.119426
-0.163865
0.116772
-0.141779
0.109776
-0.11275
0.101904
-0.0992512
0.105825
-0.0992404
0.124614
-0.0523176
0.150179
0.0435603
0.172891
0.183616
0.185914
0.302269
0.186181
0.349498
0.173368
0.28063
0.158774
0.100021
0.150831
-0.07168
0.146668
-0.177026
0.135262
-0.196568
0.121913
-0.250672
0.124913
-0.237362
0.133829
-0.101792
0.142461
0.0429279
0.144038
0.262385
0.143175
0.291652
0.152737
0.290571
0.15233
0.227705
0.144916
-0.19725
-0.231699
0.209254
-0.0174031
-0.211929
0.207293
-0.022605
0.205149
-0.0275232
0.202386
-0.0328892
0.198868
-0.0386577
0.194645
-0.0446374
0.189807
-0.0505433
0.18443
-0.0560829
0.178569
-0.061025
0.172241
-0.0651636
0.165529
-0.068284
0.158517
-0.0702634
0.151243
-0.0709099
0.143946
-0.0700147
0.136658
-0.0674612
0.129238
-0.0630715
0.12224
-0.0559664
0.115809
-0.0454791
0.109093
-0.0325463
0.102962
-0.0172003
0.100478
0.00279892
0.103208
0.0258921
0.110635
0.0451647
0.120338
0.057468
0.130286
0.0706346
0.140725
0.101079
0.152892
0.150015
0.164929
0.194947
0.176494
0.198631
0.188757
0.139627
0.196431
0.037326
0.19615
-0.0595003
0.188689
-0.119805
0.177753
-0.142425
0.164292
-0.14915
0.15344
-0.153013
0.145171
-0.133509
0.134195
-0.101774
0.121656
-0.0867128
0.117964
-0.0955485
0.125345
-0.0596984
0.136902
0.032004
0.147435
0.173082
0.155134
0.294571
0.160419
0.344212
0.161623
0.279426
0.160718
0.100926
0.160318
-0.0712791
0.158736
-0.175445
0.147731
-0.185563
0.132173
-0.235114
0.12862
-0.233809
0.130416
-0.103588
0.132754
0.0405891
0.131057
0.264083
0.129892
0.292817
0.140342
0.280121
0.144022
0.224025
0.137525
-0.190754
-0.228223
0.21747
-0.0153255
-0.219547
0.215154
-0.0202892
0.212781
-0.0251502
0.209946
-0.0300539
0.206457
-0.0351693
0.202251
-0.0404311
0.197361
-0.0456536
0.191852
-0.0505731
0.185807
-0.05498
0.179322
-0.0586789
0.172493
-0.0614551
0.16549
-0.0632602
0.158436
-0.0638567
0.151409
-0.0629877
0.14462
-0.0606714
0.138082
-0.0565335
0.131899
-0.0497839
0.126646
-0.0402262
0.12224
-0.0281399
0.117832
-0.0127927
0.114483
0.0061485
0.114238
0.0261371
0.118124
0.0412788
0.125541
0.0500506
0.135687
0.0604886
0.148099
0.0886662
0.161347
0.136768
0.173236
0.183057
0.186335
0.185533
0.201208
0.124754
0.210692
0.0278422
0.209325
-0.0581336
0.200092
-0.110571
0.188042
-0.130376
0.174152
-0.135261
0.162694
-0.141555
0.15504
-0.125854
0.145461
-0.0921954
0.132516
-0.0737676
0.127116
-0.0901486
0.133673
-0.0662559
0.146509
0.0191679
0.159435
0.160157
0.169882
0.284124
0.177635
0.336459
0.179838
0.277223
0.17822
0.102544
0.175702
-0.0687608
0.172739
-0.172481
0.160545
-0.17337
0.142904
-0.217473
0.138661
-0.229566
0.141098
-0.106025
0.144199
0.0374888
0.142298
0.265983
0.14028
0.294835
0.151893
0.268508
0.157157
0.218761
0.150277
-0.183874
-0.224057
0.225383
-0.0138307
-0.226878
0.223348
-0.0182538
0.220991
-0.0227939
0.218228
-0.0272906
0.214913
-0.0318541
0.210965
-0.036483
0.206386
-0.0410748
0.201241
-0.0454285
0.195611
-0.0493503
0.189599
-0.0526661
0.183297
-0.0551533
0.176776
-0.0567396
0.170149
-0.0572296
0.163478
-0.0563165
0.156824
-0.0540175
0.150357
-0.050066
0.144237
-0.0436644
0.138905
-0.0348936
0.135075
-0.0243101
0.132595
-0.0103127
0.13051
0.00823311
0.129227
0.0274206
0.129958
0.040548
0.133752
0.046256
0.1418
0.0524412
0.153654
0.0768116
0.166215
0.124207
0.178639
0.170634
0.195804
0.168367