/*--------------------------------*- C++ -*----------------------------------*\
| =========                 |                                                 |
| \\      /  F ield         | OpenFOAM: The Open Source CFD Toolbox           |
|  \\    /   O peration     | Version:  2512                                  |
|   \\  /    A nd           | Website:  www.openfoam.com                      |
|    \\/     M anipulation  |                                                 |
\*---------------------------------------------------------------------------*/
FoamFile
{
    version     2.0;
    format      ascii;
    arch        "LSB;label=32;scalar=64";
    class       volVectorField;
    location    "155";
    object      U;
}
// * * * * * * * * * * * * * * * * * * * * * * * * * * * * * * * * * * * * * //

dimensions      [0 1 -1 0 0 0 0];

internalField   nonuniform List<vector> 
13248
(
(-0.0276182 0.0218098 6.07094e-20)
(-0.0545199 0.0413769 0)
(-0.0562299 0.046545 -1.04443e-19)
(-0.0293969 0.0441779 9.67071e-20)
(0.0300043 0.0369698 8.90921e-20)
(0.125699 0.0260722 0)
(0.259004 0.0125767 0)
(0.425799 -0.00224329 2.05282e-19)
(0.61505 -0.0172156 -6.20054e-22)
(0.810341 -0.0316045 -1.75462e-19)
(0.993674 -0.0452655 1.61397e-19)
(1.14961 -0.0585265 -1.00054e-19)
(1.26828 -0.0718674 0)
(1.34683 -0.0856054 -1.65264e-19)
(1.38903 -0.0997206 3.03377e-19)
(1.40334 -0.113948 -7.27793e-20)
(1.39974 -0.127911 -1.19955e-19)
(1.38653 -0.141237 1.11847e-19)
(1.36856 -0.15356 0)
(1.34788 -0.165044 0)
(1.32532 -0.173279 0)
(1.2995 -0.186482 0)
(1.276 -0.182686 2.67099e-20)
(1.24107 -0.213584 8.76265e-20)
(-0.0316248 0.0233863 -1.83029e-19)
(-0.0532475 0.0408196 1.15464e-19)
(-0.0383016 0.0418398 -7.23063e-22)
(0.0151754 0.0342885 -1.47683e-19)
(0.110699 0.0222506 -8.89619e-20)
(0.249835 0.0083242 -8.32699e-20)
(0.427728 -0.00537468 -1.50533e-19)
(0.630381 -0.017314 1.40816e-19)
(0.836937 -0.0269297 0)
(1.02572 -0.0346898 7.42057e-22)
(1.18013 -0.0417089 1.38843e-21)
(1.29188 -0.0491528 9.85795e-20)
(1.36142 -0.0577645 0)
(1.3959 -0.0676897 0)
(1.40569 -0.078612 1.06007e-19)
(1.40074 -0.0900101 -1.97918e-19)
(1.3881 -0.10132 1.12103e-19)
(1.37146 -0.11218 -1.04525e-19)
(1.35252 -0.12218 -4.36569e-20)
(1.33208 -0.131226 -7.65513e-20)
(1.31047 -0.139333 -2.87073e-20)
(1.28905 -0.145899 -5.30089e-20)
(1.26613 -0.149278 8.09457e-20)
(1.24373 -0.159 2.15209e-20)
(-0.0330997 0.0224829 0)
(-0.0444455 0.0361372 0)
(-0.00634918 0.0336746 5.32405e-20)
(0.0816884 0.0230145 4.85269e-20)
(0.221001 0.00947198 -8.73678e-22)
(0.406707 -0.00314327 -8.61886e-20)
(0.622361 -0.0124514 0)
(0.842048 -0.0179366 -6.98957e-20)
(1.03931 -0.0207426 6.42926e-20)
(1.19562 -0.0227922 -2.27893e-22)
(1.30406 -0.0258126 -1.05551e-19)
(1.36817 -0.0307408 -9.37188e-20)
(1.39803 -0.0376519 3.09783e-21)
(1.40541 -0.0460581 -7.21972e-20)
(1.40008 -0.0552982 1.75282e-19)
(1.38825 -0.0647896 0)
(1.37308 -0.0741391 -1.05763e-19)
(1.35609 -0.083123 5.18437e-20)
(1.33813 -0.091355 4.36128e-20)
(1.31937 -0.0993603 0)
(1.30068 -0.10491 3.346e-20)
(1.28051 -0.112528 -1.08728e-19)
(1.26147 -0.112839 1.01537e-19)
(1.23956 -0.12406 5.81649e-20)
(-0.0316161 0.0194605 -6.42489e-20)
(-0.0265553 0.0274735 -6.13718e-20)
(0.0419431 0.0219907 5.48964e-20)
(0.172215 0.010696 0)
(0.359755 -0.000174578 0)
(0.587027 -0.00661968 -1.74156e-21)
(0.822785 -0.00786739 0)
(1.03401 -0.00581564 -2.11766e-19)
(1.19858 -0.00330213 1.92853e-19)
(1.30984 -0.00256501 -2.3346e-19)
(1.37374 -0.00458109 5.23718e-20)
(1.40265 -0.00921186 0)
(1.40948 -0.0157456 8.12293e-20)
(1.40403 -0.0234059 -1.47888e-19)
(1.39233 -0.0316034 3.50743e-20)
(1.37754 -0.0399583 8.51384e-20)
(1.36126 -0.0482298 -5.49967e-21)
(1.34426 -0.0561296 -9.1405e-20)
(1.32676 -0.0636721 0)
(1.30912 -0.0702011 0)
(1.29094 -0.0763309 -2.99893e-20)
(1.27303 -0.0816438 2.61388e-20)
(1.25512 -0.0835957 8.94686e-20)
(1.23658 -0.0934066 -8.35386e-20)
(-0.0267509 0.0150224 -6.74004e-20)
(0.00227235 0.0163472 -6.25156e-20)
(0.109294 0.00910971 1.72501e-19)
(0.288085 0.000693639 -1.03952e-19)
(0.521923 -0.00269419 9.62846e-20)
(0.775337 0.000726607 1.72939e-19)
(1.00659 0.00829405 -1.20063e-19)
(1.18688 0.0159374 -1.41079e-19)
(1.30765 0.0207265 4.73005e-21)
(1.37611 0.0216401 1.74615e-19)
(1.40664 0.0190953 0)
(1.41359 0.0141004 4.48356e-20)
(1.40766 0.00762246 0)
(1.39545 0.000349157 -6.96577e-20)
(1.38052 -0.00728161 9.70919e-20)
(1.36458 -0.0149822 1.13847e-21)
(1.34831 -0.022509 -2.41401e-20)
(1.33187 -0.0297643 4.44578e-20)
(1.3154 -0.0364458 3.7298e-20)
(1.29876 -0.0427783 -3.26811e-20)
(1.28236 -0.0481313 2.99753e-20)
(1.26589 -0.053328 -2.61264e-20)
(1.24963 -0.0563704 0)
(1.23318 -0.0640883 -1.87784e-20)
(-0.0178131 0.00984532 6.73834e-20)
(0.0439632 0.00478174 6.54252e-20)
(0.19756 -0.00149793 -5.78925e-20)
(0.426961 -0.00245719 1.06777e-19)
(0.695837 0.00551119 -9.88984e-20)
(0.952589 0.0194053 8.77994e-20)
(1.15723 0.0333821 -4.15547e-20)
(1.29559 0.0432596 1.06053e-19)
(1.37445 0.0477207 -6.52817e-20)
(1.41 0.047446 1.10591e-19)
(1.41876 0.0438509 -2.50245e-19)
(1.41313 0.0382479 8.99063e-20)
(1.40081 0.0315571 -7.62788e-20)
(1.38587 0.0243442 7.1011e-20)
(1.37009 0.0169447 5.93204e-20)
(1.35409 0.00957363 5.0697e-20)
(1.33803 0.00234933 -1.39564e-19)
(1.32197 -0.00456033 8.56477e-20)
(1.30592 -0.0111635 -3.7292e-20)
(1.29006 -0.0171763 9.45171e-20)
(1.27428 -0.0227645 -3.0458e-20)
(1.25875 -0.0277772 -7.0793e-20)
(1.24353 -0.0313233 6.45914e-20)
(1.22839 -0.0382489 1.87726e-20)
(-0.00393981 0.00455466 0)
(0.0999968 -0.0050209 7.75742e-22)
(0.306121 -0.00613477 1.21574e-19)
(0.580986 0.00487675 -1.11837e-19)
(0.865666 0.0254237 -9.93082e-20)
(1.10381 0.0473383 1.8106e-19)
(1.26961 0.0640976 -8.25617e-20)
(1.36628 0.0734529 1.05974e-19)
(1.41131 0.0761893 -3.2757e-21)
(1.42405 0.0742456 -5.74307e-20)
(1.4195 0.0694798 1.21052e-19)
(1.40705 0.0632068 -1.75587e-19)
(1.39159 0.0562059 0)
(1.37527 0.0488943 -3.29403e-20)
(1.35886 0.0414983 -8.6109e-20)
(1.34261 0.0341552 2.69423e-20)
(1.32663 0.0269969 1.33574e-21)
(1.31091 0.0200897 -5.56194e-20)
(1.29552 0.0135861 4.43963e-21)
(1.28038 0.00745605 6.30537e-20)
(1.26559 0.00183826 -2.72607e-20)
(1.25113 -0.00321029 -9.77043e-21)
(1.23689 -0.00777214 3.10819e-20)
(1.22295 -0.0136632 0)
(0.0156954 -0.00018509 0)
(0.170742 -0.0107455 3.3423e-20)
(0.430933 -0.00155754 -1.57846e-19)
(0.738211 0.0242588 5.65873e-20)
(1.01766 0.0556196 -5.24139e-20)
(1.22284 0.0817467 -4.63654e-20)
(1.34745 0.0981399 -7.94106e-20)
(1.4085 0.105245 3.97301e-20)
(1.42865 0.105586 3.35016e-20)
(1.42661 0.101806 0)
(1.41439 0.0958345 7.12098e-20)
(1.39838 0.0888092 -1.03741e-19)
(1.3814 0.0813127 7.63697e-20)
(1.36449 0.0736366 3.29547e-20)
(1.34799 0.0659477 -2.62404e-20)
(1.33194 0.0583703 -2.13131e-20)
(1.3163 0.0509865 -1.94978e-20)
(1.30102 0.0438935 5.88977e-20)
(1.28608 0.0371201 0)
(1.27151 0.0307624 2.81882e-20)
(1.2573 0.0248533 2.28305e-20)
(1.24343 0.0194052 -5.72096e-20)
(1.22992 0.0143921 -3.76403e-20)
(1.21679 0.00921382 3.46863e-20)
(0.0415645 -0.00350211 -3.87819e-20)
(0.254882 -0.00993401 -1.47762e-21)
(0.564645 0.0144446 3.2209e-20)
(0.886609 0.0551871 8.827e-20)
(1.14423 0.0937736 2.4434e-20)
(1.31066 0.120468 -4.69106e-20)
(1.39766 0.134256 4.21327e-20)
(1.4308 0.138143 -3.57804e-20)
(1.43376 0.135836 6.21639e-20)
(1.42256 0.130211 2.57075e-20)
(1.40601 0.123003 -7.21857e-20)
(1.3881 0.1151 2.08685e-20)
(1.37032 0.106924 3.48616e-20)
(1.35309 0.0986847 -1.70388e-20)
(1.33647 0.0905104 0)
(1.32042 0.0824911 2.4423e-20)
(1.30491 0.0747077 4.05122e-20)
(1.28992 0.0672162 6.49321e-21)
(1.27546 0.0600923 -3.29728e-20)
(1.26148 0.053367 1.35339e-20)
(1.24798 0.0470884 0)
(1.2349 0.0412564 -1.02441e-20)
(1.22219 0.0356855 -9.38709e-21)
(1.20976 0.0307726 0)
(0.0735398 -0.00440964 0)
(0.349143 -0.000401429 1.8833e-20)
(0.698215 0.0425737 3.4464e-20)
(1.01752 0.0959588 -8.97587e-20)
(1.24347 0.137741 2.8559e-20)
(1.37144 0.162095 0)
(1.42692 0.171845 3.95803e-20)
(1.43946 0.172052 -5.43417e-20)
(1.43102 0.167033 -3.09152e-20)
(1.41431 0.159527 1.37266e-20)
(1.39535 0.150959 -2.12955e-20)
(1.37642 0.141986 5.1385e-20)
(1.35821 0.1329 2.51729e-20)
(1.34085 0.123854 -1.7488e-20)
(1.3243 0.11495 -1.78849e-21)
(1.30849 0.10627 -4.60066e-20)
(1.29335 0.0978744 2.0713e-20)
(1.27884 0.0898244 -4.47684e-22)
(1.26488 0.0821596 0)
(1.25147 0.0749261 -1.35472e-20)
(1.23855 0.0681521 0)
(1.22607 0.0617717 2.95117e-20)
(1.21396 0.0558543 -3.46769e-20)
(1.20217 0.0510845 1.55894e-20)
(0.110865 -0.00188381 -1.07266e-20)
(0.448602 0.0194047 -4.79002e-20)
(0.823204 0.0821662 5.36051e-20)
(1.12634 0.14456 3.04158e-20)
(1.31664 0.185881 -1.44842e-20)
(1.40985 0.205796 2.28072e-20)
(1.44038 0.210689 -1.10555e-20)
(1.4383 0.207036 1.76247e-20)
(1.42255 0.199274 0)
(1.4026 0.189794 3.82263e-20)
(1.38228 0.179693 -1.65594e-21)
(1.3628 0.169434 -3.00035e-20)
(1.3444 0.159222 1.2652e-20)
(1.32703 0.149171 -1.40503e-20)
(1.31059 0.139364 -5.23296e-21)
(1.29498 0.129863 6.04152e-21)
(1.28013 0.120715 -4.60394e-21)
(1.266 0.111962 -2.44289e-20)
(1.25254 0.103653 1.48717e-20)
(1.23972 0.0958172 3.00317e-21)
(1.22749 0.0884529 2.6044e-21)
(1.21576 0.0815273 2.25795e-21)
(1.20444 0.0752058 0)
(1.19337 0.0700475 0)
(0.152231 0.00501011 1.07396e-20)
(0.547551 0.0501397 -9.96226e-21)
(0.933377 0.131765 -1.78835e-20)
(1.21151 0.19914 0)
(1.36627 0.237035 -7.0996e-21)
(1.42984 0.251087 -6.13136e-21)
(1.44143 0.250673 -1.01176e-20)
(1.42934 0.243069 0)
(1.40906 0.232476 0)
(1.38728 0.220847 0)
(1.36628 0.208982 0)
(1.34659 0.197201 0)
(1.3282 0.185639 -7.96538e-21)
(1.311 0.174374 3.59516e-21)
(1.29485 0.163469 6.14177e-21)
(1.27965 0.15297 2.83003e-21)
(1.26531 0.142905 6.93193e-21)
(1.25176 0.133312 0)
(1.23893 0.124227 -1.6152e-21)
(1.22677 0.115658 -1.50094e-21)
(1.21523 0.107589 -2.60848e-21)
(1.20423 0.100015 -2.26149e-21)
(1.19365 0.0932396 0)
(1.18343 0.0875673 1.57131e-21)
(-0.000246633 0.132774 7.67304e-21)
(0.00314027 0.314614 -7.23285e-21)
(0.00310512 0.423201 -1.3346e-20)
(-0.00407907 0.476641 0)
(-0.0160678 0.49832 -1.73341e-20)
(-0.0295142 0.506006 5.35119e-21)
(-0.041879 0.508605 -1.03163e-20)
(-0.0514564 0.508035 0)
(-0.0571143 0.502636 0)
(-0.0580705 0.489782 0)
(-0.0537986 0.467179 0)
(-0.0440398 0.433321 0)
(-0.0288291 0.387618 7.32963e-23)
(-0.00862784 0.330381 -7.87965e-21)
(0.0156157 0.262686 1.57659e-20)
(0.0429053 0.186064 2.27468e-20)
(0.0720742 0.102226 7.44337e-21)
(0.101815 0.0125741 0)
(0.131438 -0.0818635 6.35851e-21)
(0.160872 -0.180978 -1.79831e-20)
(0.189731 -0.285466 -1.10925e-20)
(0.221573 -0.394203 -1.00629e-20)
(0.249184 -0.507581 0)
(0.290607 -0.615885 0)
(-0.00607922 0.120314 -2.31002e-20)
(-0.00693792 0.299803 3.6325e-20)
(-0.00218966 0.416891 -1.36154e-20)
(-0.000766782 0.480096 -2.5041e-20)
(-0.00267077 0.508005 3.47474e-20)
(-0.00547972 0.517496 -2.2163e-20)
(-0.00676505 0.518411 3.08603e-20)
(-0.00464096 0.513937 1.98867e-20)
(0.00214936 0.503357 0)
(0.014315 0.484617 -1.92355e-20)
(0.0321212 0.455824 -1.58075e-21)
(0.0554475 0.415855 1.66466e-20)
(0.0838242 0.364517 2.53126e-20)
(0.116472 0.302461 3.35727e-20)
(0.152295 0.231016 -1.4598e-20)
(0.190018 0.151982 -4.53303e-20)
(0.228281 0.0670002 1.51507e-20)
(0.266244 -0.0221039 -5.54485e-20)
(0.303168 -0.115122 0)
(0.339543 -0.212286 1.20302e-20)
(0.373978 -0.317007 1.10732e-20)
(0.414274 -0.425602 1.00455e-20)
(0.444803 -0.542087 0)
(0.496439 -0.65064 0)
(-0.0102771 0.102681 0)
(-0.0157469 0.272055 7.34281e-20)
(-0.00782968 0.39424 -2.71598e-20)
(0.00135259 0.467143 2.52945e-20)
(0.00942089 0.502701 -7.00405e-20)
(0.0175157 0.515458 0)
(0.0275633 0.515641 -4.22689e-20)
(0.0413757 0.507829 1.93719e-20)
(0.0602344 0.492629 -3.79089e-20)
(0.0847764 0.468898 1.81207e-20)
(0.115056 0.435318 1.08483e-19)
(0.150649 0.391158 -5.05868e-20)
(0.190754 0.336512 -8.58963e-20)
(0.234282 0.272261 -3.49782e-20)
(0.279907 0.199872 -2.23807e-21)
(0.325972 0.121069 1.2191e-19)
(0.371667 0.0379679 -5.76404e-20)
(0.416174 -0.0478222 4.60107e-22)
(0.458599 -0.13775 0)
(0.501717 -0.231145 -4.79952e-20)
(0.543131 -0.335152 0)
(0.594898 -0.441176 -3.96609e-20)
(0.632076 -0.558717 1.4464e-19)
(0.69655 -0.661068 -5.19962e-21)
(-0.0124651 0.082234 0)
(-0.0223423 0.234225 -5.50484e-23)
(-0.0135708 0.356323 2.69883e-20)
(0.00124126 0.437101 -2.51179e-20)
(0.0179808 0.480968 2.29884e-20)
(0.0363066 0.498659 1.30797e-19)
(0.0572121 0.49975 -4.08745e-20)
(0.0820695 0.489869 -3.87393e-20)
(0.111996 0.471082 7.48882e-20)
(0.147523 0.443449 -1.10309e-19)
(0.188546 0.406437 3.32409e-20)
(0.234411 0.35978 3.32498e-20)
(0.284038 0.303819 0)
(0.336066 0.239561 3.23245e-20)
(0.388763 0.168348 0)
(0.441023 0.0923477 5.78904e-20)
(0.491997 0.0130023 -1.14306e-19)
(0.541336 -0.0689621 2.5793e-20)
(0.589792 -0.156845 1.00785e-19)
(0.642238 -0.248445 4.79429e-20)
(0.695642 -0.354364 0)
(0.761772 -0.458292 -1.16708e-19)
(0.808746 -0.575661 3.79086e-20)
(0.880437 -0.665933 0)
(-0.0127254 0.0616396 0)
(-0.026248 0.190902 -8.76768e-20)
(-0.0191144 0.306528 -2.65027e-20)
(-0.00180098 0.39112 -4.96072e-20)
(0.0210504 0.442239 4.59584e-20)
(0.0478286 0.465886 -4.32767e-20)
(0.0783386 0.46977 8.14885e-20)
(0.113126 0.459742 4.04989e-20)
(0.152833 0.439032 -1.08883e-19)
(0.19773 0.408946 7.11444e-20)
(0.247523 0.369912 -1.01914e-19)
(0.301355 0.322264 2.26804e-19)
(0.357966 0.266677 -1.23515e-19)
(0.415715 0.20411 5.92648e-20)
(0.473286 0.13623 1.76543e-19)
(0.530145 0.0648369 -5.46641e-20)
(0.586021 -0.0106498 -5.01599e-20)
(0.643088 -0.0896595 -5.17659e-20)
(0.703921 -0.177333 0)
(0.773256 -0.268861 -8.89507e-20)
(0.845821 -0.375699 -7.85365e-20)
(0.926674 -0.47273 1.15318e-19)
(0.981818 -0.581439 1.27243e-19)
(1.04835 -0.64839 -1.16011e-19)
(-0.0115864 0.0432437 0)
(-0.0276892 0.1474 -1.15432e-19)
(-0.0242498 0.250392 8.47528e-22)
(-0.00787459 0.332939 9.82108e-20)
(0.0175782 0.387895 0)
(0.0498611 0.416714 0)
(0.0876986 0.42442 0)
(0.130604 0.416113 -3.83341e-20)
(0.17844 0.395499 -1.68831e-21)
(0.230957 0.364831 6.58439e-20)
(0.287528 0.325452 -1.00879e-19)
(0.34713 0.278387 -2.16351e-21)
(0.408407 0.224484 0)
(0.470388 0.165227 -5.92419e-20)
(0.532969 0.101697 5.56075e-20)
(0.596956 0.0339847 -1.56834e-19)
(0.664605 -0.039548 2.04728e-19)
(0.739849 -0.118405 4.83037e-20)
(0.823874 -0.207444 -1.2406e-22)
(0.916668 -0.298271 -1.68587e-19)
(1.0073 -0.400081 -7.29833e-20)
(1.09209 -0.482984 2.3135e-19)
(1.14182 -0.573162 -1.47476e-19)
(1.18329 -0.611432 0)
(-0.00990215 0.0286573 6.06623e-20)
(-0.0276761 0.108515 5.76754e-20)
(-0.0291531 0.194466 -5.23284e-20)
(-0.0165748 0.268752 -9.61121e-20)
(0.00785811 0.322267 8.90403e-20)
(0.0420125 0.353166 -8.17739e-20)
(0.0839591 0.363778 1.13252e-19)
(0.132283 0.35782 -3.79114e-20)
(0.185965 0.338759 6.63529e-20)
(0.244104 0.309262 0)
(0.305801 0.271287 6.10039e-20)
(0.37008 0.226255 -1.11582e-19)
(0.436792 0.175607 1.14519e-19)
(0.506909 0.120187 -1.06595e-19)
(0.582137 0.0594821 0)
(0.665544 -0.00699347 1.00605e-19)
(0.759502 -0.0804919 1.89935e-19)
(0.864391 -0.159475 -1.79877e-19)
(0.974658 -0.24557 -8.10125e-20)
(1.08301 -0.328169 -7.82014e-20)
(1.17324 -0.413516 2.14835e-19)
(1.23983 -0.473457 5.31032e-20)
(1.26317 -0.537749 -5.40081e-20)
(1.26551 -0.54794 4.14946e-20)
(-0.00868606 0.0186611 -6.06777e-20)
(-0.0278269 0.0775477 1.69537e-19)
(-0.0345802 0.144617 -5.22458e-20)
(-0.027381 0.205747 9.47718e-20)
(-0.00660935 0.252251 -8.77998e-20)
(0.0262195 0.280687 -3.84036e-22)
(0.069046 0.291402 3.65856e-20)
(0.119934 0.286697 1.3552e-19)
(0.177331 0.269396 1.65287e-21)
(0.240189 0.242069 -6.06289e-20)
(0.308166 0.206781 0)
(0.382131 0.165096 -5.58339e-20)
(0.46389 0.117799 1.04871e-19)
(0.555987 0.0645625 1.04577e-19)
(0.660753 0.00524437 -4.91122e-20)
(0.778271 -0.0600039 -2.81254e-21)
(0.904881 -0.130379 -4.64344e-20)
(1.03299 -0.203018 8.08044e-20)
(1.15059 -0.276251 8.10194e-20)
(1.24709 -0.340947 -7.38286e-20)
(1.30839 -0.401736 5.89826e-20)
(1.33625 -0.437045 -5.12673e-20)
(1.32235 -0.477168 0)
(1.29255 -0.471101 -4.15314e-20)
(-0.00893444 0.0133539 5.96188e-20)
(-0.0298952 0.0559868 -5.65296e-20)
(-0.041555 0.104737 5.15096e-20)
(-0.0397128 0.150147 0)
(-0.0233319 0.185487 0)
(0.00688641 0.207225 7.74865e-20)
(0.0493524 0.214735 -7.27295e-20)
(0.102519 0.209287 6.62104e-20)
(0.1655 0.192979 -3.11545e-19)
(0.238596 0.167815 -1.2798e-21)
(0.32336 0.135353 5.51134e-20)
(0.422068 0.096539 0)
(0.536541 0.0516953 -1.03974e-19)
(0.666385 0.00125703 1.96427e-19)
(0.807938 -0.0537974 -1.41072e-19)
(0.953602 -0.112275 -2.25208e-19)
(1.09296 -0.171577 7.3964e-23)
(1.21376 -0.229331 1.4883e-19)
(1.30508 -0.282212 0)
(1.36033 -0.325871 0)
(1.37653 -0.362983 -5.90147e-20)
(1.36492 -0.380954 5.12978e-20)
(1.32625 -0.40695 -1.57636e-19)
(1.28728 -0.395567 1.47022e-19)
(-0.0113639 0.0123062 0)
(-0.0349602 0.0437023 0)
(-0.0502623 0.0764273 -1.53785e-19)
(-0.0517793 0.106033 4.83297e-20)
(-0.0375562 0.12848 1.34743e-21)
(-0.0072312 0.141093 7.87065e-20)
(0.0390165 0.143108 0)
(0.101431 0.135213 -6.60799e-20)
(0.181117 0.118643 6.18711e-20)
(0.279762 0.094688 -1.15686e-19)
(0.398665 0.06447 -1.38723e-21)
(0.537036 0.0288905 1.05286e-19)
(0.690701 -0.0111037 2.43599e-21)
(0.851776 -0.054387 9.71643e-20)
(1.00947 -0.0994186 -1.33886e-19)
(1.15156 -0.144752 0)
(1.26693 -0.187905 1.53451e-19)
(1.347 -0.227913 -2.17191e-19)
(1.38959 -0.261458 6.05461e-20)
(1.39749 -0.289217 0)
(1.3801 -0.310851 4.71259e-20)
(1.35038 -0.322485 1.66287e-19)
(1.31111 -0.342931 -1.55296e-19)
(1.27911 -0.33211 -1.50258e-19)
(-0.0160068 0.0145106 1.77043e-19)
(-0.0424748 0.0391814 -2.23576e-19)
(-0.0585629 0.0592008 9.15526e-22)
(-0.0587292 0.074987 4.76613e-20)
(-0.040146 0.0852116 -8.63901e-20)
(-0.000929892 0.0884454 -7.84494e-20)
(0.0609015 0.0842465 1.43212e-19)
(0.147397 0.0729245 -9.98744e-22)
(0.260047 0.0553686 -1.22895e-19)
(0.398255 0.0327276 2.3099e-19)
(0.557707 0.00607655 1.90582e-21)
(0.730012 -0.0235097 -1.01529e-19)
(0.903508 -0.0549765 0)
(1.06507 -0.0873118 0)
(1.20236 -0.11949 -4.36035e-20)
(1.3061 -0.150537 -7.56939e-20)
(1.37202 -0.179145 -1.40687e-19)
(1.40162 -0.205091 1.31171e-19)
(1.40275 -0.2263 -6.0619e-20)
(1.38464 -0.245972 9.88369e-20)
(1.35905 -0.259699 -5.29783e-20)
(1.33022 -0.272775 6.97371e-20)
(1.30012 -0.287022 -1.72658e-19)
(1.27393 -0.279624 3.03558e-20)
(-0.021939 0.0183237 5.9287e-20)
(-0.0500635 0.0396262 0)
(-0.0620623 0.0506556 1.03125e-19)
(-0.0532729 0.0557941 -9.54889e-20)
(-0.0200079 0.056007 8.6504e-20)
(0.0411977 0.0511571 0)
(0.133436 0.0413383 0)
(0.257941 0.02717 -6.73637e-20)
(0.412063 0.00974327 -2.10254e-23)
(0.588046 -0.00986552 5.79037e-20)
(0.773432 -0.0307196 -5.43502e-20)
(0.953262 -0.0521514 1.00898e-19)
(1.11297 -0.0737663 0)
(1.24113 -0.0953035 1.73662e-19)
(1.33145 -0.116469 -3.20588e-19)
(1.38384 -0.136834 2.23812e-19)
(1.40398 -0.155924 1.29474e-19)
(1.40131 -0.173598 -1.20722e-19)
(1.38581 -0.189005 0)
(1.36405 -0.204403 0)
(1.34106 -0.214097 0)
(1.31411 -0.229263 0)
(1.28868 -0.233374 3.2199e-20)
(1.26223 -0.237132 -1.01527e-19)
(0.323092 -0.727542 -4.4145e-21)
(0.357082 -0.821194 4.44728e-21)
(0.38679 -0.867415 -1.06244e-22)
(0.408934 -0.868497 0)
(0.420233 -0.842811 -2.17004e-21)
(0.408498 -0.821889 4.06325e-21)
(0.370612 -0.820577 -1.99463e-23)
(0.331128 -0.809936 -1.82522e-21)
(0.325942 -0.734758 0)
(0.370056 -0.565093 0)
(0.446964 -0.318933 -1.36098e-22)
(0.531887 -0.0325503 -1.40237e-22)
(0.612266 0.255161 -2.25357e-21)
(0.680991 0.495114 2.05973e-21)
(0.733477 0.646857 0)
(0.77063 0.708444 0)
(0.790654 0.714558 8.46084e-22)
(0.796528 0.695717 -9.70168e-23)
(0.800166 0.665208 -6.62398e-22)
(0.80031 0.651649 -4.1097e-23)
(0.784027 0.685412 0)
(0.748314 0.738375 0)
(0.709839 0.721533 0)
(0.688893 0.562925 0)
(0.691448 0.274212 0)
(0.71286 -0.0612683 0)
(0.744601 -0.346277 3.79708e-22)
(0.772536 -0.52238 -6.36033e-22)
(0.798829 -0.585915 0)
(0.821405 -0.5884 0)
(0.826191 -0.594688 -1.92257e-22)
(0.799223 -0.618305 1.86813e-22)
(0.743654 -0.6226 8.80555e-23)
(0.675278 -0.556012 0)
(0.624583 -0.386141 0)
(0.605857 -0.135491 2.83371e-22)
(0.623024 0.127111 -2.75414e-22)
(0.6655 0.322757 0)
(0.718499 0.433026 1.42653e-22)
(0.733762 0.496695 -1.98494e-22)
(0.702156 0.534204 5.57577e-23)
(0.647633 0.515869 0)
(0.612169 0.388613 -1.40229e-22)
(0.608174 0.17988 1.36352e-22)
(0.648215 -0.0462018 0)
(0.682566 -0.229739 0)
(0.690258 -0.364877 -3.90188e-23)
(0.666151 -0.454528 1.07832e-22)
(0.652611 -0.420725 0)
(0.644618 -0.295612 0)
(0.656358 -0.0675817 -2.56519e-23)
(0.648886 0.179757 5.05611e-24)
(0.641334 0.347291 -1.86044e-24)
(0.626162 0.443132 1.85069e-23)
(0.633174 0.293782 0)
(0.61514 0.0667526 0)
(0.59775 -0.169909 0)
(0.560406 -0.414002 0)
(0.56551 -0.208641 0)
(0.525977 0.036985 0)
(0.517316 -0.763367 -4.73491e-22)
(0.533214 -0.855915 -1.56604e-20)
(0.538013 -0.897517 2.67155e-21)
(0.529463 -0.892732 1.21064e-20)
(0.516274 -0.850027 1.37936e-22)
(0.494825 -0.795703 0)
(0.44925 -0.767089 -6.71665e-21)
(0.38378 -0.762148 1.34297e-20)
(0.331175 -0.726157 -6.70899e-21)
(0.322464 -0.60246 7.89469e-21)
(0.359827 -0.384343 -7.53001e-21)
(0.425601 -0.108154 8.22966e-21)
(0.50307 0.178875 -7.9545e-21)
(0.579758 0.426341 -1.98858e-22)
(0.648891 0.593176 -4.98358e-21)
(0.705959 0.674798 4.83978e-21)
(0.744635 0.698875 -3.17454e-21)
(0.768303 0.689299 2.99837e-21)
(0.787644 0.662803 -2.70582e-21)
(0.800615 0.655808 5.41441e-21)
(0.796488 0.699564 -2.70559e-21)
(0.774932 0.760328 -2.11297e-22)
(0.752954 0.744365 -4.83103e-21)
(0.747132 0.578562 1.03996e-20)
(0.759223 0.276764 -5.54352e-21)
(0.782518 -0.0710603 3.75513e-22)
(0.809364 -0.362931 4.71371e-21)
(0.827011 -0.539765 -9.05242e-22)
(0.837876 -0.600078 -5.7682e-21)
(0.844246 -0.594184 4.22293e-21)
(0.836423 -0.587311 -1.78166e-21)
(0.799796 -0.597393 1.60453e-22)
(0.736006 -0.593114 -8.82384e-23)
(0.659328 -0.528129 1.74653e-22)
(0.600888 -0.370308 0)
(0.578876 -0.137418 0)
(0.600145 0.109283 -8.17626e-22)
(0.651532 0.299436 6.31185e-22)
(0.710564 0.418274 3.87568e-22)
(0.729857 0.498376 2.11866e-23)
(0.703823 0.548405 -5.05948e-22)
(0.65483 0.532493 1.35271e-22)
(0.621211 0.398061 0)
(0.61642 0.175957 0)
(0.657606 -0.0579468 0)
(0.69547 -0.237378 0)
(0.703777 -0.363094 1.93584e-22)
(0.67484 -0.449445 -6.99524e-23)
(0.656804 -0.418061 0)
(0.646033 -0.296122 0)
(0.654973 -0.0687013 0)
(0.647453 0.180402 -2.98717e-23)
(0.643316 0.349033 7.36169e-24)
(0.632657 0.443857 -3.72633e-23)
(0.641884 0.296385 0)
(0.623795 0.0701877 0)
(0.603771 -0.163123 2.899e-23)
(0.557265 -0.411199 7.03078e-23)
(0.566451 -0.206214 0)
(0.535064 0.0400745 0)
(0.705821 -0.768702 -5.37993e-21)
(0.706116 -0.851536 -3.66178e-20)
(0.69282 -0.880869 2.52653e-20)
(0.658176 -0.872169 -2.36315e-20)
(0.6142 -0.834348 -1.38917e-22)
(0.573388 -0.771305 0)
(0.52326 -0.715539 -1.21053e-20)
(0.448537 -0.696794 1.1819e-20)
(0.365608 -0.684986 9.77165e-23)
(0.311013 -0.610762 1.64941e-22)
(0.305165 -0.43665 1.79238e-22)
(0.342013 -0.184797 2.40805e-22)
(0.407866 0.092687 -1.27521e-20)
(0.488102 0.342811 1.25833e-20)
(0.570613 0.523221 0)
(0.644314 0.625665 2.13045e-22)
(0.700177 0.669486 -5.68364e-21)
(0.74135 0.67186 5.6047e-21)
(0.776531 0.651574 0)
(0.803306 0.650851 0)
(0.812841 0.703195 -6.4887e-21)
(0.806575 0.772321 1.44282e-20)
(0.800934 0.760958 -1.75716e-20)
(0.810052 0.594694 -1.80871e-21)
(0.831927 0.288536 2.35733e-20)
(0.856468 -0.0660214 -2.41607e-20)
(0.877315 -0.363947 2.01614e-20)
(0.884462 -0.543583 -2.68601e-21)
(0.880518 -0.604032 -6.8829e-21)
(0.871029 -0.593741 0)
(0.851316 -0.576237 0)
(0.807169 -0.573983 8.95697e-22)
(0.73722 -0.562984 -1.16921e-21)
(0.653237 -0.501788 -3.37064e-23)
(0.58785 -0.357691 1.58661e-21)
(0.562453 -0.143315 -1.54173e-21)
(0.586629 0.0871851 0)
(0.644485 0.272566 1.64173e-22)
(0.707824 0.401123 1.04284e-21)
(0.731901 0.498618 -1.97839e-21)
(0.712931 0.562124 8.65089e-22)
(0.669778 0.550059 1.55328e-22)
(0.638497 0.409913 -1.86448e-21)
(0.632655 0.175165 1.45151e-21)
(0.672458 -0.0676495 3.6591e-22)
(0.712661 -0.244009 2.85947e-22)
(0.721866 -0.35982 -1.94096e-22)
(0.687643 -0.443091 0)
(0.664162 -0.415528 0)
(0.650223 -0.2972 -2.88172e-22)
(0.656938 -0.0710413 1.40789e-22)
(0.649883 0.180245 -8.90833e-23)
(0.649011 0.349554 1.65084e-22)
(0.642296 0.444048 3.36216e-22)
(0.65372 0.299559 -6.33068e-23)
(0.63601 0.0742645 2.01473e-22)
(0.614348 -0.15454 -1.67186e-22)
(0.558263 -0.407633 8.88325e-23)
(0.571147 -0.205798 0)
(0.547768 0.0426144 0)
(0.873491 -0.765032 -7.15491e-20)
(0.854985 -0.834635 1.13578e-20)
(0.823465 -0.849093 5.67271e-20)
(0.772007 -0.82734 -3.3314e-22)
(0.706916 -0.790914 0)
(0.645268 -0.737323 0)
(0.591205 -0.669543 -2.11253e-20)
(0.521758 -0.624846 1.28136e-21)
(0.428232 -0.614016 2.77188e-20)
(0.339199 -0.582281 5.5626e-22)
(0.290625 -0.465445 -9.58748e-21)
(0.292895 -0.255705 -1.03919e-20)
(0.339185 0.00120694 1.03605e-20)
(0.414837 0.246918 0)
(0.502577 0.438208 -7.05976e-21)
(0.586846 0.561065 6.4708e-21)
(0.656795 0.625358 0)
(0.713898 0.64141 0)
(0.764058 0.628634 4.49696e-21)
(0.804663 0.632934 6.44624e-22)
(0.828561 0.691177 -4.69467e-21)
(0.837742 0.76872 -7.80824e-21)
(0.847763 0.767643 7.88371e-21)
(0.871118 0.610981 -1.20193e-20)
(0.902709 0.308876 -8.06509e-22)
(0.930392 -0.0503022 1.21739e-20)
(0.947101 -0.355212 1.34511e-21)
(0.944663 -0.538721 -2.05768e-25)
(0.926697 -0.600188 0)
(0.901715 -0.587861 3.57619e-21)
(0.870343 -0.562969 -3.65222e-21)
(0.819634 -0.549676 1.47623e-22)
(0.745953 -0.5313 0)
(0.656479 -0.474223 -1.42854e-22)
(0.584842 -0.346323 2.51121e-21)
(0.555839 -0.152475 -4.64662e-21)
(0.581171 0.061351 1.32672e-23)
(0.643016 0.242845 3.23032e-22)
(0.710089 0.381171 1.53948e-21)
(0.73986 0.494705 2.01593e-22)
(0.727985 0.572341 -2.13171e-21)
(0.691087 0.56704 1.77869e-21)
(0.664218 0.424152 -3.46801e-23)
(0.657873 0.177942 1.66826e-21)
(0.693511 -0.075279 -1.98894e-21)
(0.73409 -0.250376 -1.96123e-21)
(0.744265 -0.355617 5.76257e-22)
(0.704479 -0.43501 4.84895e-22)
(0.674652 -0.412384 -7.88213e-22)
(0.65702 -0.29862 4.51897e-22)
(0.66216 -0.074796 -9.36529e-23)
(0.65595 0.178987 7.30045e-23)
(0.658095 0.348942 5.69584e-23)
(0.654819 0.443865 -5.03505e-22)
(0.668387 0.303287 -3.01498e-23)
(0.651486 0.078745 -2.61464e-22)
(0.629442 -0.144396 0)
(0.563588 -0.403123 -8.73442e-23)
(0.579275 -0.207274 -5.72111e-23)
(0.563798 0.0445105 0)
(1.02065 -0.729581 6.6343e-20)
(0.980005 -0.781628 -1.19471e-19)
(0.926645 -0.790572 5.27998e-20)
(0.85893 -0.767099 3.52492e-20)
(0.785041 -0.729533 -6.2366e-20)
(0.709313 -0.688993 4.92595e-21)
(0.644503 -0.632175 2.18698e-20)
(0.58532 -0.570107 1.55497e-20)
(0.504461 -0.538786 -1.52244e-20)
(0.402989 -0.524983 0)
(0.319005 -0.463142 -1.45318e-20)
(0.284129 -0.310248 2.90297e-20)
(0.302828 -0.0883516 -1.45807e-20)
(0.364107 0.143871 0)
(0.448757 0.341844 0)
(0.536772 0.483326 1.71176e-22)
(0.616293 0.568135 -7.38661e-21)
(0.686415 0.599628 7.17109e-21)
(0.749855 0.595839 0)
(0.802807 0.604282 8.9527e-21)
(0.839269 0.666268 -1.92485e-20)
(0.863106 0.751517 2.43755e-20)
(0.889632 0.763555 -3.21403e-20)
(0.926599 0.624502 -4.59098e-21)
(0.966245 0.336382 4.64372e-20)
(0.998732 -0.020531 -2.42352e-20)
(1.0146 -0.332081 -6.79249e-22)
(1.00468 -0.521687 -6.68253e-21)
(0.974406 -0.586875 1.98058e-21)
(0.93493 -0.575201 4.87164e-21)
(0.892936 -0.546363 1.80621e-22)
(0.837255 -0.525606 -1.82343e-21)
(0.76198 -0.500884 3.35818e-21)
(0.668758 -0.447243 -1.7078e-21)
(0.590983 -0.33575 0)
(0.557414 -0.163797 -2.18395e-21)
(0.58209 0.0324716 2.10299e-21)
(0.645985 0.209373 -1.2089e-21)
(0.716322 0.356701 1.49973e-21)
(0.752402 0.487359 -1.46849e-22)
(0.749263 0.580489 0)
(0.720446 0.582995 -3.16771e-22)
(0.699239 0.4404 1.28837e-21)
(0.692601 0.184736 0)
(0.7213 -0.0796027 3.97991e-21)
(0.759484 -0.255727 -1.68404e-21)
(0.770568 -0.350244 4.43935e-22)
(0.725219 -0.424997 2.94396e-22)
(0.688114 -0.408418 0)
(0.666172 -0.300349 0)
(0.670382 -0.080032 -1.30829e-22)
(0.665353 0.176372 1.89499e-22)
(0.670321 0.346968 -1.60455e-22)
(0.669955 0.443014 4.13276e-23)
(0.685532 0.307423 4.04747e-22)
(0.66983 0.0835023 2.61746e-22)
(0.648864 -0.132832 -5.13011e-22)
(0.573419 -0.397461 0)
(0.590463 -0.210469 3.32847e-23)
(0.582847 0.0456902 4.70364e-23)
(1.13247 -0.675704 6.0403e-20)
(1.07362 -0.70905 -5.97295e-20)
(1.0078 -0.711514 3.6911e-22)
(0.928608 -0.695971 -2.72212e-22)
(0.850691 -0.663974 2.34224e-22)
(0.77457 -0.628596 -1.85197e-22)
(0.699873 -0.588792 2.64489e-22)
(0.637559 -0.530493 0)
(0.575002 -0.476294 -1.60951e-22)
(0.487226 -0.452404 1.30185e-22)
(0.386862 -0.425907 1.14012e-22)
(0.315923 -0.335161 -1.8872e-22)
(0.299767 -0.164423 0)
(0.337225 0.0437744 0)
(0.409405 0.23968 8.97076e-23)
(0.494215 0.394605 0)
(0.579029 0.497981 -5.94231e-23)
(0.659638 0.545792 0)
(0.734677 0.552638 -5.59938e-21)
(0.798073 0.565208 1.24668e-20)
(0.844845 0.628473 -1.58716e-20)
(0.881094 0.719685 8.89709e-21)
(0.920937 0.748083 1.60631e-20)
(0.968985 0.633175 -1.55908e-20)
(1.01768 0.366637 -2.36052e-20)
(1.05766 0.0184352 2.29644e-20)
(1.07657 -0.29828 0)
(1.06259 -0.495442 4.94087e-22)
(1.02267 -0.566298 0)
(0.970376 -0.557302 0)
(0.917904 -0.526965 4.16947e-21)
(0.857916 -0.501406 -4.35266e-21)
(0.783432 -0.471374 1.41554e-22)
(0.689091 -0.419903 1.68382e-22)
(0.605445 -0.324291 -1.30432e-22)
(0.565542 -0.175521 -1.37724e-21)
(0.587531 0.00213324 1.33711e-21)
(0.651885 0.172858 -1.12591e-21)
(0.725565 0.328068 9.42555e-22)
(0.768845 0.473093 2.63448e-22)
(0.774377 0.581695 -2.12377e-21)
(0.753928 0.596922 -1.40505e-21)
(0.740755 0.458734 2.17276e-21)
(0.735859 0.196543 0)
(0.755925 -0.0795449 -1.87689e-21)
(0.788497 -0.259848 1.71567e-21)
(0.80018 -0.344018 -2.33029e-21)
(0.749695 -0.412852 -2.96363e-22)
(0.704383 -0.403138 0)
(0.677369 -0.302165 1.19256e-23)
(0.681275 -0.0869038 -6.4129e-23)
(0.677684 0.172156 -3.52296e-23)
(0.685294 0.343907 -1.42428e-23)
(0.687335 0.441882 4.27283e-22)
(0.70481 0.312018 -4.22299e-22)
(0.69062 0.0883151 0)
(0.672268 -0.12012 5.13313e-22)
(0.587891 -0.390493 0)
(0.604356 -0.215136 0)
(0.604568 0.0461328 -5.21462e-23)
(1.19636 -0.599236 -5.48961e-20)
(1.12579 -0.624799 5.39089e-20)
(1.05771 -0.625451 -3.12801e-22)
(0.980465 -0.617482 2.79077e-22)
(0.902996 -0.59919 0)