/*--------------------------------*- C++ -*----------------------------------*\
| =========                 |                                                 |
| \\      /  F ield         | OpenFOAM: The Open Source CFD Toolbox           |
|  \\    /   O peration     | Version:  2512                                  |
|   \\  /    A nd           | Website:  www.openfoam.com                      |
|    \\/     M anipulation  |                                                 |
\*---------------------------------------------------------------------------*/
FoamFile
{
    version     2.0;
    format      ascii;
    arch        "LSB;label=32;scalar=64";
    class       surfaceScalarField;
    location    "113.05";
    object      phi;
}
// * * * * * * * * * * * * * * * * * * * * * * * * * * * * * * * * * * * * * //

dimensions      [0 3 -1 0 0 0 0];

oriented        oriented;

internalField   nonuniform List<scalar> 
26232
(
-0.00010326
0.00152163
-0.00141837
0.000325097
0.00237622
-0.00280458
0.00177633
0.00131133
-0.00276256
0.00469934
-0.00178768
-0.00113533
0.00955991
-0.00713754
0.00227698
0.0167784
-0.0148875
0.00766902
0.02654
-0.0249166
0.015155
0.0385889
-0.0366985
0.0246496
0.0521617
-0.0493465
0.0357737
0.0661266
-0.0618234
0.0478585
0.0792629
-0.073194
0.0600576
0.090563
-0.0828181
0.071518
0.0994535
-0.0904371
0.0815466
0.105875
-0.0961543
0.0897332
0.110201
-0.100326
0.0959995
0.113043
-0.103402
0.10056
0.115024
-0.105787
0.103807
0.116614
-0.107757
0.106167
0.118112
-0.109456
0.107958
0.119641
-0.110967
0.109437
0.121301
-0.112236
0.110576
0.12305
-0.113466
0.111718
0.124433
-0.113977
0.112594
-0.114755
0.11395
0.125238
-2.10514e-05
0.00154268
0.000662476
0.00169269
0.00267694
-0.000703135
0.00661645
-0.0057272
0.0130095
-0.0135306
0.0221118
-0.0239898
0.0336518
-0.0364565
0.046756
-0.0498028
0.0601597
-0.0627502
0.0725782
-0.0742419
0.0830534
-0.0836692
0.0911491
-0.0909138
0.0969569
-0.0962448
0.100939
-0.100137
0.103697
-0.103083
0.105765
-0.10547
0.107513
-0.107536
0.109156
-0.1094
0.110814
-0.111115
0.112551
-0.112703
0.114491
-0.114176
0.116617
-0.115592
0.119455
-0.116816
-0.118566
0.123266
0.00013958
0.0014031
0.00129357
0.000538701
0.00417659
-0.00358615
0.00945007
-0.0110007
0.0175202
-0.0216007
0.0282069
-0.0346766
0.0406008
-0.0488505
0.053324
-0.0625259
0.0650166
-0.0744428
0.0747466
-0.0839718
0.0821817
-0.0911043
0.0875203
-0.0962524
0.0912682
-0.0999927
0.0939893
-0.102858
0.0961371
-0.105231
0.098004
-0.107337
0.0997578
-0.109289
0.1015
-0.111142
0.103303
-0.112918
0.105244
-0.114643
0.107368
-0.1163
0.109736
-0.11796
0.11239
-0.11947
-0.121156
0.114981
0.000344143
0.00105896
0.00210778
-0.00122494
0.00605467
-0.00753304
0.0127815
-0.0177275
0.0223224
-0.0311416
0.0338469
-0.0462011
0.0458975
-0.0609011
0.0570073
-0.0736357
0.0662105
-0.083646
0.0732104
-0.0909717
0.0782473
-0.0961413
0.0818271
-0.0998321
0.0844701
-0.102636
0.0865751
-0.104963
0.0883981
-0.107054
0.0900939
-0.109033
0.0917613
-0.110957
0.0934688
-0.11285
0.0952751
-0.114724
0.0972138
-0.116582
0.0993411
-0.118428
0.101685
-0.120303
0.104329
-0.122114
-0.124223
0.107396
0.000575842
0.000483114
0.00304021
-0.00368931
0.00814302
-0.0126359
0.0162189
-0.0258034
0.0266771
-0.0415997
0.0380513
-0.0575753
0.0487233
-0.0715731
0.0576024
-0.0825148
0.0643415
-0.0903852
0.0691693
-0.0957995
0.0725809
-0.0995528
0.0750809
-0.102332
0.0770574
-0.104612
0.0787643
-0.10667
0.0803554
-0.108645
0.0819211
-0.110598
0.0835151
-0.112551
0.085174
-0.114509
0.0869241
-0.116474
0.088796
-0.118454
0.0908251
-0.120457
0.0930129
-0.122491
0.0954192
-0.12452
-0.12672
0.0979162
0.000835993
-0.000352879
0.00406065
-0.00691396
0.0102925
-0.0188677
0.0193572
-0.034868
0.0299426
-0.0521851
0.0402661
-0.0678989
0.0490051
-0.0803121
0.0556607
-0.0891704
0.0603958
-0.0951202
0.0636892
-0.099093
0.0660521
-0.101916
0.0678846
-0.104165
0.0694474
-0.106175
0.0708903
-0.108113
0.0722919
-0.110047
0.0736933
-0.112
0.0751223
-0.11398
0.0766038
-0.11599
0.0781659
-0.118036
0.0798374
-0.120125
0.0816423
-0.122262
0.0836048
-0.124454
0.0857739
-0.126689
-0.129083
0.0881364
0.00112671
-0.00147959
0.00512767
-0.0109149
0.0123079
-0.026048
0.0217876
-0.0443478
0.0317187
-0.0621162
0.0404472
-0.0766274
0.0471914
-0.0870563
0.0519686
-0.0939476
0.0552186
-0.0983701
0.0574666
-0.101341
0.0591402
-0.103589
0.0605191
-0.105544
0.0617598
-0.107416
0.0629416
-0.109295
0.0641059
-0.111211
0.0652803
-0.113174
0.0664886
-0.115188
0.0677534
-0.117255
0.069095
-0.119378
0.07053
-0.12156
0.0720745
-0.123806
0.0737353
-0.126115
0.0755344
-0.128488
-0.130971
0.0774226
0.00144029
-0.00291988
0.00616443
-0.0156391
0.0139536
-0.0338372
0.023211
-0.0536051
0.0319384
-0.0708436
0.0389141
-0.0836031
0.0438848
-0.092027
0.0471954
-0.0972583
0.0493785
-0.100553
0.0509021
-0.102865
0.0520825
-0.10477
0.053098
-0.106559
0.054038
-0.108356
0.0549468
-0.110203
0.0558502
-0.112114
0.0567668
-0.114091
0.0577124
-0.116134
0.0587018
-0.118244
0.0597493
-0.120426
0.0608701
-0.122681
0.0620765
-0.125013
0.0633829
-0.127421
0.0648085
-0.129914
-0.132499
0.0663362
0.00175606
-0.00467594
0.00706518
-0.0209482
0.015024
-0.0417961
0.0235296
-0.0621107
0.0307952
-0.0781091
0.0361123
-0.0889202
0.0396202
-0.0955349
0.0418222
-0.0994602
0.0432316
-0.101963
0.044219
-0.103852
0.0449999
-0.105551
0.0456823
-0.107241
0.0463169
-0.10899
0.0469292
-0.110816
0.0475352
-0.11272
0.048149
-0.114705
0.0487844
-0.116769
0.0494554
-0.118915
0.0501758
-0.121146
0.0509567
-0.123462
0.0518076
-0.125863
0.0527362
-0.12835
0.0537444
-0.130922
-0.133569
0.0548143
0.00204587
-0.00672182
0.00772166
-0.026624
0.0154076
-0.049482
0.0228258
-0.0695289
0.0285955
-0.0838788
0.03246
-0.0927847
0.0348021
-0.0978771
0.0361633
-0.100821
0.0369824
-0.102782
0.0375306
-0.1044
0.0379474
-0.105967
0.038296
-0.10759
0.0386057
-0.1093
0.0388929
-0.111103
0.0391708
-0.112998
0.0394515
-0.114985
0.0397469
-0.117064
0.0400681
-0.119237
0.0404251
-0.121503
0.0408269
-0.123864
0.0412822
-0.126319
0.0417993
-0.128867
0.0423836
-0.131506
-0.134225
0.0430402
0.00228152
-0.00900334
0.00805723
-0.0323997
0.0151117
-0.0565365
0.0212878
-0.0757049
0.0256561
-0.0882471
0.0282984
-0.0954271
0.0297174
-0.0992961
0.0304204
-0.101524
0.0307545
-0.103116
0.0309083
-0.104554
0.0309685
-0.106028
0.0309726
-0.107594
0.0309391
-0.109266
0.0308803
-0.111044
0.0308066
-0.112925
0.0307278
-0.114907
0.0306537
-0.11699
0.0305936
-0.119177
0.0305573
-0.121467
0.0305542
-0.123861
0.0305932
-0.126358
0.03068
-0.128954
0.0308139
-0.13164
-0.134409
0.030998
0.00244352
-0.0114469
0.00805081
-0.038007
0.0142354
-0.0627211
0.0191456
-0.0806151
0.0222628
-0.0913642
0.0238918
-0.0970562
0.0245662
-0.0999705
0.0247232
-0.101681
0.0246247
-0.103017
0.0243971
-0.104327
0.0240938
-0.105724
0.0237376
-0.107238
0.023341
-0.10887
0.0229135
-0.110617
0.0224639
-0.112475
0.0220005
-0.114443
0.0215317
-0.116521
0.0210654
-0.11871
0.0206096
-0.121011
0.0201725
-0.123424
0.0197631
-0.125948
0.0193905
-0.128581
0.0190605
-0.13131
0.0187831
-0.134132
-0.000126381
0.00840019
-0.00827381
-0.000910486
0.0174734
-0.0166893
-0.0023325
0.0215871
-0.0201651
-0.00422915
0.022811
-0.0209143
-0.00642153
0.0226037
-0.0204113
-0.00877069
0.0217167
-0.0193676
-0.0111796
0.0203583
-0.0179494
-0.0135786
0.0184649
-0.0160659
-0.0159114
0.0158964
-0.0135635
-0.0181307
0.0125203
-0.010301
-0.0202016
0.00823128
-0.00616033
-0.0221314
0.00294824
-0.00101845
-0.0237673
-0.0031954
0.00483131
-0.0251569
-0.0103351
0.0117247
-0.0262666
-0.0184047
0.0195144
-0.027057
-0.0273052
0.0280957
-0.0274899
-0.0368852
0.0373181
-0.0275475
-0.0469148
0.0469724
-0.0272466
-0.0570894
0.0567886
-0.0266592
-0.0670436
0.0664562
-0.0258942
-0.0764111
0.0756461
-0.0250165
-0.0848938
0.0840161
-0.0239363
-0.0923306
0.0912504
-0.0987133
-0.0222572
0.0970342
0.000276014
0.00812418
0.000226059
0.0175233
-0.00037968
0.0221929
-0.00141286
0.0238442
-0.00267733
0.0238682
-0.00400382
0.0230432
-0.00527771
0.0216321
-0.00643286
0.01962
-0.00742653
0.01689
-0.00823762
0.0133314
-0.00885801
0.00885166
-0.00930888
0.00339911
-0.00953172
-0.00297256
-0.00954443
-0.0103224
-0.00933377
-0.0186154
-0.00885389
-0.0277851
-0.00803838
-0.0377007
-0.00681558
-0.0481376
-0.00519074
-0.0587143
-0.00330736
-0.068927
-0.00145535
-0.0782631
-9.73991e-05
-0.0862517
0.000479818
-0.0929079
-0.0977677
-0.000465757
0.000657126
0.00746705
0.00137308
0.0168074
0.00171741
0.0218485
0.00169564
0.0238659
0.00149458
0.0240693
0.00130652
0.0232313
0.00126143
0.0216772
0.00143319
0.0194483
0.00184438
0.0164789
0.00249746
0.0126783
0.0033641
0.00798503
0.00439263
0.00237058
0.00560556
-0.00418549
0.00696988
-0.0116867
0.00849722
-0.0201427
0.0102497
-0.0295377
0.0123416
-0.0397926
0.0148731
-0.050669
0.0179054
-0.0617466
0.0213569
-0.0723785
0.0250251
-0.0819313
0.0284009
-0.0896275
0.0310039
-0.0955109
-0.0985163
0.0317525
0.000954194
0.00651286
0.00238631
0.0153753
0.00367189
0.0205629
0.00469692
0.0228409
0.00559569
0.0231705
0.00655553
0.0222714
0.00771957
0.0205132
0.00916074
0.0180071
0.0108997
0.0147398
0.0129155
0.0106625
0.0151635
0.00573702
0.0175746
-4.04979e-05
0.0201714
-0.00678227
0.022912
-0.0144273
0.0258356
-0.0230663
0.0290319
-0.0327339
0.0326042
-0.043365
0.0366215
-0.0546862
0.0410766
-0.0662017
0.0458266
-0.0771285
0.0507169
-0.0868216
0.0554343
-0.0943449
0.0597656
-0.0998421
-0.102136
0.0633848
0.00112043
0.00539243
0.00309446
0.0134012
0.00519477
0.0184626
0.0071804
0.0208553
0.00910129
0.0212496
0.0111105
0.0202622
0.0133461
0.0182776
0.0158869
0.0154663
0.0187535
0.0118733
0.0219232
0.00749276
0.0253344
0.00232584
0.0290272
-0.0037333
0.0329295
-0.0106846
0.0371141
-0.0186119
0.0416757
-0.027628
0.0467248
-0.037783
0.0523218
-0.048962
0.0583931
-0.0607575
0.064727
-0.0725357
0.0709357
-0.0833372
0.076695
-0.0925809
0.0815977
-0.0992476
0.0856556
-0.1039
-0.105338
0.0888578
0.00114182
0.00425061
0.00340731
0.0111358
0.00607857
0.0157914
0.00882175
0.0181121
0.0115885
0.0184828
0.0144695
0.0173812
0.0175775
0.0151696
0.0209887
0.0120551
0.024731
0.008131
0.0287912
0.00343253
0.0332049
-0.00208782
0.0379715
-0.00849991
0.0431613
-0.0158744
0.0489133
-0.024364
0.0553716
-0.0340863
0.0626037
-0.0450151
0.070512
-0.0568702
0.0787819
-0.0690274
0.0869444
-0.0806982
0.09444
-0.0908327
0.100857
-0.0989975
0.105793
-0.104184
0.109382
-0.107489
-0.107322
0.111366
0.00103591
0.0032147
0.00331815
0.00885352
0.00624043
0.0128691
0.00943737
0.0149152
0.0127784
0.0151418
0.0162808
0.0138788
0.0200159
0.0114345
0.0240507
0.00802027
0.0284298
0.00375199
0.0332157
-0.00135337
0.0385076
-0.00737976
0.044405
-0.0143973
0.0511056
-0.022575
0.0587884
-0.0320467
0.0675132
-0.0428111
0.0771122
-0.0546141
0.0871385
-0.0668965
0.0969346
-0.0788235
0.105774
-0.0895373
0.113084
-0.0981433
0.118566
-0.104479
0.122266
-0.107884
0.124582
-0.109806
-0.10853
0.12579
0.000838924
0.00237577
0.00289321
0.00679923
0.00573402
0.0100283
0.00903184
0.0116173
0.0126151
0.0115585
0.0164444
0.0100495
0.0205567
0.0073222
0.0250249
0.00355213
0.0299632
-0.00118635
0.0355554
-0.00694554
0.0419798
-0.0138041
0.0494988
-0.0219164
0.0583123
-0.0313885
0.0684427
-0.0421772
0.0796185
-0.0539868
0.0912455
-0.0662411
0.102487
-0.0781378
0.112472
-0.0888089
0.120479
-0.0975439
0.126192
-0.103857
0.129619
-0.107907
0.131268
-0.109533
0.131713
-0.110251
-0.108441
0.131624
0.000590841
0.00178493
0.00224257
0.0051475
0.00472825
0.0075426
0.00780835
0.00853723
0.0113268
0.00804001
0.0152372
0.00613914
0.019592
0.00296749
0.0245403
-0.00139621
0.0303248
-0.00697088
0.0372184
-0.0138391
0.0455236
-0.0221093
0.0554198
-0.0318127
0.0668324
-0.042801
0.0793369
-0.0546817
0.0921662
-0.0668161
0.104345
-0.0784198
0.114902
-0.0886945
0.123131
-0.097038
0.128729
-0.103142
0.131925
-0.107053
0.133222
-0.109204
0.133453
-0.109763
0.133196
-0.109993
-0.108359
0.133114
0.00032942
0.00145551
0.00149916
0.00397776
0.00348118
0.00556058
0.00616477
0.00585364
0.0094771
0.00472768
0.013448
0.00216827
0.0182382
-0.00182272
0.0241255
-0.0072835
0.0314448
-0.0142902
0.040492
-0.0228863
0.0513675
-0.0329849
0.063842
-0.0442872
0.077304
-0.0562629
0.0908248
-0.0682025
0.103338
-0.0793297
0.113881
-0.0889628
0.121826
-0.0966387
0.127033
-0.102245
0.129833
-0.105942
0.130949
-0.108169
0.1311
-0.109355
0.131125
-0.109789
0.131286
-0.110155
-0.10929
0.132217
9.70369e-05
0.00135847
0.000821559
0.00325324
0.00233444
0.0040477
0.00468727
0.00350081
0.00796337
0.00145157
0.0123541
-0.00222243
0.0181652
-0.00763386
0.0257472
-0.0148654
0.0353468
-0.0238898
0.0469366
-0.0344762
0.0600997
-0.0461479
0.0740336
-0.0582211
0.0876825
-0.0699118
0.0999578
-0.0804778
0.109991
-0.0893627
0.117328
-0.0962999
0.122024
-0.101335
0.124571
-0.104792
0.125697
-0.107068
0.126168
-0.10864
0.126513
-0.1097
0.127282
-0.110558
0.128385
-0.111257
-0.110984
0.13008
-5.98925e-05
0.00038877
0.00167391
0.0040394
0.00776795
0.0132145
0.0207357
0.0305198
0.0424037
0.0557861
0.0696958
0.0829926
0.0946274
0.103883
0.11052
0.11478
0.117251
0.118625
0.119516
0.120313
0.121189
0.122349
0.123685
0.126651
-0.0186177
-0.140197
0.136557
-0.0106461
-0.143796
0.135824
0.00273494
-0.139815
0.126434
0.0214822
-0.126486
0.107738
0.0426226
-0.101316
0.0801753
0.0636967
-0.0670363
0.0459623
0.0823888
-0.0251398
0.00644763
0.0987941
0.0225487
-0.038954
0.113529
0.0728972
-0.0876319
0.126168
0.118391
-0.13103
0.135837
0.150963
-0.160632
0.141952
0.168363
-0.174478
0.144688
0.175123
-0.17786
0.145473
0.176106
-0.176891
0.145486
0.173804
-0.173817
0.144039
0.174592
-0.173146
0.140073
0.186495
-0.182529
0.134693
0.205042
-0.199661
0.130951
0.207568
-0.203826
0.1307
0.170501
-0.17025
0.133823
0.0903516
-0.0934744
0.139919
-0.0130566
0.00696052
0.147583
-0.108671
0.101007
0.154267
-0.174101
0.167417
0.158159
-0.208123
0.204232
0.160224
-0.218671
0.216606
0.160619
-0.215727
0.215332
0.157476
-0.218374
0.221517
0.149944
-0.236655
0.244187
0.139265
-0.251872
0.26255
0.128013
-0.233221
0.244473
0.119925
-0.168242
0.17633
0.118354
-0.0641235
0.0656947
0.123236
0.0493692
-0.0542509
0.132029
0.146044
-0.154837
0.140702
0.207073
-0.215746
0.143814
0.246055
-0.249167
0.13896
0.276126
-0.271272
0.128858
0.296051
-0.285949
0.118617
0.276651
-0.26641
0.113313
0.190053
-0.184749
0.116255
0.0596957
-0.0626371
0.124245
-0.0792494
0.0712589
0.129932
-0.168435
0.162748
0.128052
-0.243171
0.245051
0.123052
-0.286799
0.291799
0.119483
-0.286359
0.289928
0.119145
-0.227843
0.228181
0.120779
-0.0767902
0.0751563
0.122001
0.0596695
-0.0608921
0.1204
0.23203
-0.230429
0.118491
0.323308
-0.321399
0.117705
0.297263
-0.296477
0.116763
0.2125
-0.211558
0.113013
-0.0380753
0.0418257
0.109836
-0.212899
0.216076
0.106557
-0.337538
0.340816
0.104195
-0.326596
0.328958
0.098616
0.0387186
-0.03314
0.1442
-0.141036
-0.00671795
-0.133944
-0.0105364
-0.139977
-0.00870255
-0.141649
-6.16085e-05
-0.135127
0.0160219
-0.117399
0.0355804
-0.0865949
0.0561156
-0.045675
0.0763096
0.00235472
0.0954677
0.0537391
0.112944
0.100915
0.127526
0.136381
0.138137
0.157752
0.144779
0.168481
0.148901
0.171984
0.151675
0.17103
0.152826
0.173441
0.151948
0.187374
0.150072
0.206918
0.148933
0.208707
0.149038
0.170395
0.150085
0.0893047
0.152385
-0.0153563
0.155814
-0.1121
0.158823
-0.177111
0.159543
-0.208843
0.158772
-0.2179
0.156941
-0.213896
0.151811
-0.213245
0.142213
-0.227057
0.130112
-0.239771
0.1188
-0.22191
0.111922
-0.161364
0.112312
-0.0645134
0.120061
0.0416198
0.131679
0.134427
0.142511
0.196241
0.147288
0.241278
0.143937
0.279477
0.134995
0.304993
0.12483
0.286816
0.118117
0.196765
0.11867
0.0591431
0.124996
-0.0855754
0.130356
-0.173795
0.127846
-0.240661
0.122232
-0.281185
0.118419
-0.282545
0.118688
-0.228113
0.120759
-0.0788609
0.122434
0.057994
0.122033
0.232432
0.120394
0.324947
0.11976
0.297897
0.118362
0.213898
0.113635
-0.033348
0.109695
-0.208959
0.105339
-0.333183
0.104173
-0.325429
0.0999897
0.0429018
0.147736
0.0210173
-0.123209
0.0081578
-0.127118
-0.00241703
-0.131074
-0.00600004
-0.131544
-0.00112204
-0.122277
0.0128512
-0.100568
0.0318164
-0.0646402
0.053761
-0.01959
0.0767562
0.0307439
0.0989956
0.0786751
0.118507
0.11687
0.133657
0.142602
0.144364
0.157773
0.152002
0.164346
0.157694
0.165338
0.161647
0.169488
0.164034
0.184987
0.165672
0.205279
0.167105
0.207274
0.167394
0.170107
0.166038
0.0906604
0.164518
-0.0138363
0.163823
-0.111405
0.163181
-0.176468
0.160856
-0.206519
0.157409
-0.214453
0.153555
-0.210041
0.147043
-0.206733
0.136079
-0.216093
0.122824
-0.226516
0.1113
-0.210385
0.105394
-0.155458
0.107601
-0.0667204
0.117667
0.0315534
0.131779
0.120315
0.144718
0.183302
0.151463
0.234532
0.150074
0.280867
0.142652
0.312415
0.132854
0.296614
0.124748
0.204871
0.122437
0.0614549
0.12648
-0.0896184
0.131319
-0.178634
0.128288
-0.237631
0.121886
-0.274783
0.117621
-0.27828
0.11832
-0.228812
0.121052
-0.0815927
0.123349
0.0556971
0.124152
0.231628
0.122763
0.326337
0.1222
0.298459
0.120449
0.215649
0.114899
-0.0277983
0.110202
-0.204261
0.104821
-0.327802
0.104696
-0.325304
0.101919
0.0456785
0.151519
0.0544943
-0.114319
0.0410241
-0.113648
0.0232805
-0.11333
0.00660216
-0.114865
-0.0015076
-0.114167
0.00118328
-0.103259
0.0149471
-0.0784041
0.0353121
-0.0399549
0.0598183
0.00623774
0.0852116
0.0532818
0.108668
0.0934136
0.127989
0.123281
0.142722
0.14304
0.153908
0.15316
0.162542
0.156704
0.169246
0.162783
0.174728
0.179505
0.179692
0.200316
0.183571
0.203395
0.184327
0.169351
0.181059
0.0939281
0.176166
-0.00894267
0.171664
-0.106904
0.167373
-0.172177
0.162144
-0.20129
0.156247
-0.208556
0.150537
-0.204331
0.142988
-0.199184
0.131328
-0.204433
0.117431
-0.212619
0.105698
-0.198651
0.100286
-0.150046
0.103704
-0.0701388
0.115629
0.0196292
0.131919
0.104025
0.147053
0.168167
0.156198
0.225387
0.157096
0.279969
0.151419
0.318092
0.14225
0.305783
0.133011
0.214111
0.127656
0.0668101
0.128784
-0.0907465
0.132768
-0.182619
0.129334
-0.234198
0.122048
-0.267496
0.117096
-0.273328
0.118068
-0.229784
0.121621
-0.085145
0.124674
0.0526441
0.126678
0.229624
0.125535
0.32748
0.124972
0.299022
0.122962
0.217659
0.116763
-0.021599
0.111362
-0.19886
0.104972
-0.321412
0.105764
-0.326096
0.10439
0.0470525
0.155469
0.0804082
-0.105869
0.0708384
-0.104078
0.0565779
-0.0990696
0.0369372
-0.0952247
0.0176147
-0.094845
0.00696901
-0.0926132
0.0094742
-0.0809092
0.0240356
-0.0545163
0.0465174
-0.016244
0.0724006
0.0273986
0.0977875
0.0680268
0.120128
0.100941
0.138413
0.124755
0.15298
0.138593
0.164465
0.145219
0.173763
0.153485
0.182142
0.171127
0.190227
0.19223
0.196374
0.197248
0.197737
0.167987
0.193709
0.097956
0.18659
-0.00182337
0.178687
-0.0990011
0.171018
-0.164508
0.163161
-0.193432
0.155157
-0.200552
0.147884
-0.197059
0.139739
-0.191039
0.127949
-0.192643
0.113865
-0.198535
0.10199
-0.186776
0.0966732
-0.144729
0.100626
-0.0740913
0.113683
0.0065716
0.131697
0.0860109
0.149007
0.150857
0.160883
0.213512
0.164689
0.276162
0.161356
0.321425
0.153016
0.314123
0.142749
0.224378
0.134258
0.0753005
0.131911
-0.0883996
0.134613
-0.18532
0.130893
-0.230478
0.122695
-0.259297
0.11682
-0.267453
0.117915
-0.23088
0.122397
-0.0896272
0.126326
0.0487154
0.129539
0.226411
0.128636
0.328383
0.128013
0.299644
0.12584
0.219833
0.119174
-0.0149329
0.113166
-0.192852
0.105765
-0.314012
0.107326
-0.327657
0.107367
0.047011
0.159512
0.0999967
-0.0944993
0.0902236
-0.0943048
0.0812555
-0.0901015
0.0685979
-0.0825671
0.0497395
-0.0759865
0.030208
-0.0730818
0.0192872
-0.0699884
0.0225609
-0.0577901
0.0383719
-0.032055
0.0618652
0.00390524
0.087344
0.042548
0.111457
0.0768278
0.132508
0.103704
0.149922
0.121179
0.163724
0.131418
0.174946
0.142263
0.185541
0.160531
0.196288
0.181484
0.204649
0.188887
0.20695
0.165687
0.202695
0.10221
0.194481
0.0063913
0.184346
-0.0888666
0.173949
-0.15411
0.163819
-0.183303
0.154078
-0.19081
0.145424
-0.188406
0.136895
-0.182509
0.125569
-0.181317
0.111842
-0.184807
0.0999719
-0.174907
0.0944241
-0.139181
0.0981941
-0.0778613
0.111533
-0.00676692
0.130743
0.0668008
0.150165
0.131435
0.165012
0.198665
0.171985
0.26919
0.171239
0.322171
0.164127
0.321234
0.153258
0.235247
0.141964
0.0865943
0.135805
-0.0822403
0.136732
-0.186247
0.132833
-0.226579
0.123795
-0.250259
0.11677
-0.260428
0.117797
-0.231906
0.123295
-0.0951256
0.128201
0.0438094
0.13263
0.221981
0.131976
0.329037
0.13125
0.30037
0.129017
0.222066
0.122068
-0.00798434
0.115589
-0.186373
0.10718
-0.305603
0.109316
-0.329793
0.110792
0.0455346
0.163561
0.114183
-0.0828922
0.102929
-0.0830505
0.0936794
-0.080852
0.0866301
-0.0755178
0.0774983
-0.0668547
0.0623063
-0.0578898
0.0446873
-0.0523694
0.0346002
-0.047703
0.0383969
-0.0358517
0.0548178
-0.0125156
0.0780392
0.0193266
0.10284
0.0520269
0.126055
0.0804888
0.145828
0.101406
0.16141
0.115836
0.173877
0.129795
0.185881
0.148527
0.198524
0.168841
0.208636
0.178775
0.211997
0.162326
0.20828
0.105927
0.199644
0.0150277
0.188376
-0.0775986
0.175965
-0.1417
0.163923
-0.17126
0.15284
-0.179728
0.143149
-0.178715
0.134312
-0.173672
0.123756
-0.170761
0.110939
-0.17199
0.0993703
-0.163338
0.0934121
-0.133223
0.0963727
-0.0808219
0.108924
-0.0193184
0.12872
0.0470045
0.150018
0.110137
0.168017
0.180666
0.178665
0.258541
0.181145
0.319692
0.175827
0.326552
0.164386
0.246689
0.150485
0.100495
0.140369
-0.0721249
0.139005
-0.184882
0.134987
-0.222561
0.125295
-0.240567
0.116931
-0.252064
0.117637
-0.232612
0.124194
-0.101682
0.130203
0.0377998
0.135877
0.216308
0.135474
0.32944
0.134609
0.301235
0.132425
0.22425
0.125375
-0.000934601
0.118589
-0.179587
0.109192
-0.296206
0.111669
-0.332269
0.114595
0.0426082
0.167512
0.120655
-0.0719236
0.110583
-0.0729789
0.101149
-0.0714176
0.0936753
-0.068044
0.089086
-0.0622654
0.0841666
-0.0529704
0.0742423
-0.0424451
0.0607716
-0.0342322
0.0520485
-0.0271287
0.0552052
-0.0156723
0.0703649
0.00416694
0.092443
0.0299489
0.116331
0.0566003
0.137986
0.0797513
0.155219
0.0986036
0.168819
0.116195
0.181914
0.135432
0.195908
0.154847
0.207444
0.167239
0.212281
0.15749
0.21003
0.108178
0.202435
0.0226221
0.190759
-0.0659217
0.176983
-0.127924
0.163424
-0.157702
0.151296
-0.1676
0.140883
-0.168302
0.131811
-0.164599
0.122099
-0.161049
0.110628
-0.16052
0.0997944
-0.152504
0.0934552
-0.126884
0.0950126
-0.0823793
0.105914
-0.0302193
0.125465
0.0274535
0.14836
0.087242
0.169414
0.159612
0.183603
0.244351
0.189251
0.314044
0.186255
0.329547
0.175126
0.257818
0.159355
0.116266
0.145457
-0.0582268
0.141321
-0.180747
0.137168
-0.218408
0.127123
-0.230523
0.117303
-0.242243
0.117363
-0.232672
0.124976
-0.109296
0.132216
0.0305599
0.139162
0.209361
0.139041
0.329561
0.138028
0.302248
0.136008
0.22627
0.129026
0.00604772
0.12211
-0.172671
0.11177
-0.285866
0.114324
-0.334823
0.118701
0.0382313
0.171246
0.122826
-0.0616352
0.113458
-0.0636117
0.105131
-0.0630901
0.0978393
-0.0607524
0.0925383
-0.0569644
0.0902263
-0.0506584
0.0891029
-0.0413217
0.08511
-0.0302393
0.077351
-0.0193697
0.0711623
-0.00948362
0.0731293
0.00219993
0.0851267
0.0179515
0.104207
0.0375201
0.125043
0.0589148
0.143363
0.0802844
0.158583
0.100975
0.173335
0.12068
0.18883
0.139351
0.201832
0.154237
0.208632
0.15069
0.208775
0.108035
0.202592
0.0288047
0.191228
-0.054558
0.176758
-0.113453
0.162175
-0.143119
0.149309
-0.154734
0.138496
-0.157488
0.129273
-0.155376
0.120254
-0.15203
0.110299
-0.150565
0.100681
-0.142886
0.094314
-0.120517
0.0942937
-0.082359
0.102804
-0.0387297
0.120962
0.00929583
0.144681
0.0635226
0.168851
0.135443
0.18725
0.225952
0.196528
0.304767
0.19582
0.330255
0.185824
0.267814
0.168474
0.133616
0.150901
-0.0406543
0.143584
-0.173429
0.139176
-0.214
0.129163
-0.22051
0.117891
-0.230971
0.116911
-0.231692
0.12551
-0.117895
0.134138
0.0219322
0.142431
0.201068
0.142603
0.329389
0.141425
0.303427
0.139731
0.227963
0.132937
0.0128421
0.126077
-0.165811
0.114867
-0.274656
0.117222
-0.337178
0.123032
0.0324208
0.174629
0.123671
-0.0530887
0.115281
-0.0552226
0.107562
-0.0553703
0.101128
-0.0543186
0.0960944
-0.051931
0.092919
-0.047483
0.0923394
-0.040742
0.0935954
-0.0314953
0.0940977
-0.019872
0.0917275
-0.00711349
0.0883286
0.00559888
0.0892729
0.0170072
0.0976283
0.0291648
0.111685
0.0448577
0.127576
0.064394
0.143359
0.0851921
0.159884
0.104155
0.177084
0.122151
0.191877
0.139444
0.201459
0.141108
0.204955
0.10454
0.20145
0.0323091
0.190662
-0.0437704
0.175628
-0.0984194
0.160213
-0.127704
0.146716
-0.141237
0.135695
-0.146467
0.126496
-0.146177
0.117976
-0.14351
0.109404
-0.141993
0.101362
-0.134844
0.0955845
-0.11474
0.0943366
-0.0811111
0.099998
-0.044391
0.115552
-0.00625772
0.139176
0.0398982
0.165706
0.108912
0.187636
0.204022
0.200554
0.291848
0.202671
0.328139
0.194295
0.276189
0.177136
0.150776
0.156593
-0.020111
0.14571
-0.162547
0.140788
-0.209078
0.131226
-0.210948
0.118673
-0.218418
0.116242
-0.22926
0.125653
-0.127306
0.135822
0.0117623
0.145556
0.191334
0.146098
0.328848
0.144772
0.304752
0.143533
0.229203
0.137096
0.0192792
0.130398
-0.159114
0.11842
-0.262678
0.120304
-0.339062
0.127508
0.0252173
0.17752
0.122745
-0.0457538
0.115225
-0.0477024
0.108145
-0.0482911
0.102249
-0.0484219
0.097716
-0.0473983
0.0947678
-0.0445348
0.0936042
-0.0395784
0.094675
-0.0325661
0.0981219
-0.0233189
0.102323
-0.0113143
0.105278
0.00264385
0.105932
0.0163526
0.107034
0.0280633
0.111944
0.0399476
0.120843
0.0554953
0.132812
0.0732227
0.147842
0.089125
0.164981
0.105012
0.181103
0.123321
0.193356
0.128856
0.199874
0.0980211
0.197775
0.0344088
0.187419
-0.0334148
0.172387
-0.0833878
0.156909
-0.112226
0.143259
-0.127587
0.132271
-0.135479
0.123335
-0.137241
0.11522
-0.135396
0.107694
-0.134467
0.10128
-0.12843
0.0966921
-0.110152
0.0950808
-0.0794998
0.0982344
-0.0475446
0.109894
-0.017917
0.131781
0.0180113
0.160518
0.0801745
0.18704
0.1775
0.20383
0.275058
0.208014
0.323955
0.200802
0.283402
0.184339
0.167238
0.161897
0.00233165
0.147571
-0.148221
0.141831
-0.203338
0.133122
-0.202239
0.119703
-0.204999
0.115376
-0.224932
0.125307
-0.137237
0.137205
-0.000136052
0.148519
0.18002
0.149451
0.327916
0.147954
0.306249
0.147386
0.22977
0.141406
0.0252595
0.134973
-0.15268
0.122367
-0.250072
0.123528
-0.340223
0.132052
0.0166934
0.179777
0.120905
-0.0400078
0.114573
-0.0413696
0.108619
-0.0423378
0.103167
-0.0429696
0.0984453
-0.0426767
0.0949274
-0.0410169
0.0930744
-0.0377255
0.093069
-0.0325606
0.0953052
-0.0255552
0.0999241
-0.0159332
0.10581
-0.00324175
0.111328
0.0108341
0.116015
0.0233764
0.120045
0.0359182
0.125033
0.0505068
0.132525
0.0657307
0.143143
0.0785072
0.156466
0.091689
0.171217
0.108571
0.185525
0.114547
0.195405
0.088141
0.196058
0.0337559
0.185901
-0.0232575
0.170267
-0.067754
0.154316
-0.0962756
0.140297
-0.113567
0.129148
-0.12433
0.120478
-0.128571
0.112667
-0.127585
0.105697
-0.127498
0.100571
-0.123304
0.0973889
-0.106969
0.0961858
-0.0782967
0.0976778
-0.0490366
0.105304
-0.0255435
0.123391
-7.56981e-05
0.151376
0.0521894
0.180805
0.148071
0.202322
0.253542
0.210688
0.315589
0.206006
0.288084
0.190586
0.182658
0.167438
0.0254802
0.149797
-0.130581
0.142738
-0.196279
0.134951
-0.194452
0.121186
-0.191233
0.114792
-0.218539
0.124519
-0.146964
0.137944
-0.0135617
0.151112
0.166853
0.152704
0.326324
0.151028
0.307925
0.151223
0.229576
0.14593
0.0305519
0.13973
-0.146481
0.126673
-0.237015
0.126909
-0.340459
0.136608
0.00699399
0.181277
0.17663
-0.033422
-0.183216
0.171048
-0.0357875
0.165548
-0.0368378
0.159766
-0.0371874
0.153757
-0.0366682
0.147759
-0.0350192
0.141959
-0.0319255
0.136493
-0.027094
0.131625
-0.0206875
0.128004
-0.012312
0.1262
-0.00143838
0.12562
0.0114143
0.124907
0.0240901
0.123304
0.0375203
0.121876
0.0519355
0.122816
0.0647902
0.126654
0.0746691
0.13338
0.0849637
0.146337
0.0956135
0.168672
0.0922126
0.194001
0.0628118
0.2105
0.0172565
0.214613
-0.0273701
0.209647
-0.0627882
0.200174
-0.0868024
0.188983
-0.102376
0.177738
-0.113086
0.167252
-0.118085
0.156811
-0.117144
0.146726
-0.117413
0.137322
-0.113899
0.127546
-0.0971935
0.118473
-0.0692236
0.112233
-0.0427963
0.112284
-0.0255947
0.120824
-0.00861604
0.136121
0.0368932
0.151582
0.13261
0.163677
0.241447
0.172521
0.306744
0.179403
0.281201
0.182946
0.179115
0.177471
0.0309552
0.170003
-0.123113
0.163134
-0.189411
0.15403
-0.185348
0.138625
-0.175828
0.126597
-0.206512
0.127058
-0.147425
0.130943
-0.0174468
0.136119
0.161677
0.135524
0.326919
0.136765
0.306684
0.142933
0.223408
0.143222
0.0302631
0.138935
-0.142194
0.12583
-0.223911
0.121452
-0.33608
0.127939
0.000506865
0.182499
0.185648
-0.0281201
-0.19095
0.180211
-0.0303504
0.174768
-0.031395
0.169236
-0.0316553
0.163672
-0.031105
0.158228
-0.0295748
0.153113
-0.0268101
0.14856
-0.0225413
0.144692
-0.0168198
0.141759
-0.00937836
0.14022
0.000100077
0.140524
0.01111
0.141844
0.0227708
0.143592
0.0357719
0.146104
0.0494234
0.15002
0.0608745
0.155337
0.0693523
0.163535
0.076766
0.17816
0.0809879
0.198652
0.0717207
0.217091
0.0443728
0.226575
0.00777251
0.225813
-0.0266079
0.218524
-0.0554996
0.208173
-0.0764516
0.196825
-0.0910267
0.185618
-0.101879
0.175414
-0.107881
0.165244
-0.106974
0.155133
-0.107301
0.14628
-0.105047
0.137884
-0.0887971
0.129967
-0.0613067
0.123771
-0.0366006
0.122384
-0.024208
0.129057
-0.0152889
0.14474
0.0212108
0.162346
0.115004
0.176679
0.227114
0.187416
0.296008
0.195573
0.273043
0.199672
0.175017
0.194262
0.0363645
0.18472
-0.11357
0.175864
-0.180555
0.166035
-0.175519
0.149916
-0.159709
0.13633
-0.192926
0.136595
-0.14769
0.141732
-0.0225835
0.148167
0.155242
0.147625
0.327461
0.148717
0.305591
0.156268
0.215858
0.157183
0.0293482
0.152527
-0.137538
0.137981
-0.209364
0.132229
-0.330328
0.139454
-0.00671825
0.183228
0.195548
-0.0236277
-0.200041
0.190483
-0.0252856
0.185424
-0.026336
0.180372
-0.0266024
0.17532
-0.0260534
0.170358
-0.0246129
0.165694
-0.0221456
0.161562
-0.0184097
0.158125
-0.0133824
0.155634
-0.00688757
0.154509
0.00122438
0.155065
0.0105543
0.157157
0.0206792
0.160836
0.0320931
0.166252
0.0440065
0.17311
0.0540169
0.180994
0.0614678
0.19128
0.0664809
0.205724
0.0665433
0.221868
0.0555765
0.233652
0.0325894
0.237705
0.00371928
0.234591
-0.0234939
0.227054
-0.0479629
0.217522
-0.0669196
0.207208
-0.0807127
0.196537
-0.0912081
0.186639
-0.0979825
0.176801
-0.0971365
0.166531
-0.0970308
0.15757
-0.0960856