/*--------------------------------*- C++ -*----------------------------------*\
| =========                 |                                                 |
| \\      /  F ield         | OpenFOAM: The Open Source CFD Toolbox           |
|  \\    /   O peration     | Version:  2312                                  |
|   \\  /    A nd           | Website:  www.openfoam.com                      |
|    \\/     M anipulation  |                                                 |
\*---------------------------------------------------------------------------*/
FoamFile
{
    version     2.0;
    format      ascii;
    arch        "LSB;label=32;scalar=64";
    class       volVectorField;
    location    "34.5";
    object      U;
}
// * * * * * * * * * * * * * * * * * * * * * * * * * * * * * * * * * * * * * //

dimensions      [0 1 -1 0 0 0 0];

internalField   nonuniform List<vector> 
13248
(
(-0.0148269 0.0130937 4.27196e-20)
(-0.0354838 0.0335903 0)
(-0.0448423 0.0491254 -7.40587e-20)
(-0.0422004 0.0600818 6.8575e-20)
(-0.0275093 0.067137 6.3058e-20)
(-0.000733477 0.0712169 0)
(0.038456 0.07342 0)
(0.0907573 0.0749081 1.49245e-19)
(0.156995 0.0767614 3.64699e-22)
(0.237622 0.0798478 -1.29341e-19)
(0.332186 0.0846746 1.2191e-19)
(0.438858 0.0914135 -7.58107e-20)
(0.554455 0.0998434 0)
(0.67468 0.10937 -1.36394e-19)
(0.79452 0.119158 2.55493e-19)
(0.908948 0.128143 -6.06163e-20)
(1.01302 0.135483 -1.13263e-19)
(1.10312 0.139776 1.05588e-19)
(1.17588 0.14183 0)
(1.23046 0.137593 0)
(1.26643 0.135603 0)
(1.28477 0.118117 0)
(1.28951 0.119354 3.40158e-20)
(1.28169 0.0809245 1.2605e-19)
(-0.0166781 0.0123338 -1.28239e-19)
(-0.0367742 0.0285445 8.07905e-20)
(-0.0427231 0.0389155 -4.25695e-22)
(-0.0336622 0.0453897 -1.03264e-19)
(-0.00900101 0.0494094 -6.29738e-20)
(0.0320988 0.0523186 -5.82805e-20)
(0.0906729 0.0554323 -1.07087e-19)
(0.167512 0.0599656 9.94672e-20)
(0.262427 0.0668672 0)
(0.373545 0.0766405 -1.83896e-22)
(0.497029 0.0892109 -8.04044e-22)
(0.627347 0.103926 7.49649e-20)
(0.758003 0.119658 0)
(0.882391 0.134982 0)
(0.994619 0.148455 9.36135e-20)
(1.09004 0.158742 -1.74566e-19)
(1.16579 0.16497 1.07616e-19)
(1.22079 0.166681 -1.0033e-19)
(1.25593 0.163801 -4.49195e-20)
(1.2738 0.157319 -8.46165e-20)
(1.27787 0.147317 -3.63658e-20)
(1.27298 0.135471 -6.89819e-20)
(1.26264 0.125111 9.80169e-20)
(1.25197 0.108421 2.85906e-20)
(-0.0188569 0.0119989 0)
(-0.0369162 0.0248097 0)
(-0.036019 0.0312701 3.70706e-20)
(-0.0154015 0.0346931 3.38698e-20)
(0.0260157 0.0373758 -4.97335e-22)
(0.0895484 0.0411863 -5.91117e-20)
(0.175956 0.0476814 0)
(0.284295 0.0579668 -4.96552e-20)
(0.410968 0.0724447 4.61797e-20)
(0.549616 0.0906435 -6.01771e-23)
(0.691965 0.111263 -7.97172e-20)
(0.829219 0.132432 -7.43313e-20)
(0.953449 0.152088 -5.15176e-23)
(1.05864 0.168357 -6.42716e-20)
(1.14126 0.179893 1.50255e-19)
(1.20047 0.185947 0)
(1.23788 0.186815 -1.02033e-19)
(1.25706 0.182637 4.90697e-20)
(1.26291 0.175816 4.48728e-20)
(1.26034 0.165163 0)
(1.25401 0.156469 3.78011e-20)
(1.2467 0.143069 -1.31487e-19)
(1.24051 0.13797 1.22791e-19)
(1.23445 0.122793 8.01068e-20)
(-0.0206035 0.0115034 -4.37507e-20)
(-0.0340045 0.0213883 -4.17024e-20)
(-0.0216942 0.0253346 3.77757e-20)
(0.0167514 0.0276436 0)
(0.0825321 0.0314237 0)
(0.176324 0.0390123 -6.8098e-22)
(0.296456 0.0519251 0)
(0.437442 0.0705367 -1.50028e-19)
(0.589984 0.0938734 1.38752e-19)
(0.742639 0.119797 -1.71126e-19)
(0.884229 0.14554 3.96883e-20)
(1.00588 0.168369 0)
(1.10225 0.186145 6.74628e-20)
(1.17179 0.197701 -1.25048e-19)
(1.21643 0.20287 2.96495e-20)
(1.24065 0.202516 7.94913e-20)
(1.25026 0.197803 -1.45658e-21)
(1.25114 0.190606 -8.7964e-20)
(1.24796 0.181767 0)
(1.24382 0.172809 0)
(1.23967 0.164108 -3.32344e-20)
(1.23604 0.154545 3.02472e-20)
(1.23095 0.149178 1.11832e-19)
(1.22714 0.136249 -1.04384e-19)
(-0.0210683 0.0103967 -4.51271e-20)
(-0.0260061 0.0174874 -4.20995e-20)
(0.00324759 0.0204159 1.16522e-19)
(0.066416 0.023985 -7.05154e-20)
(0.163792 0.0319263 6.53247e-20)
(0.293122 0.0466601 1.1867e-19)
(0.447063 0.0688069 -8.26569e-20)
(0.612989 0.0968953 -1.00723e-19)
(0.775733 0.127775 8.98127e-22)
(0.921463 0.15762 1.2835e-19)
(1.04061 0.183007 0)
(1.12907 0.201692 3.56858e-20)
(1.18788 0.212915 0)
(1.22188 0.217242 -6.01764e-20)
(1.2379 0.216184 8.43507e-20)
(1.24284 0.211468 1.06583e-21)
(1.24227 0.204823 -2.27548e-20)
(1.2396 0.19715 4.36555e-20)
(1.23637 0.189385 3.78332e-20)
(1.23264 0.181211 -3.44451e-20)
(1.22835 0.17361 3.32194e-20)
(1.2229 0.164807 -3.02334e-20)
(1.21717 0.158971 0)
(1.21133 0.147798 -2.34201e-20)
(-0.0194386 0.00856105 4.51158e-20)
(-0.0108831 0.0129412 4.35217e-20)
(0.0416203 0.0165831 -3.89892e-20)
(0.136392 0.0243272 7.17742e-20)
(0.270631 0.0400026 -6.64874e-20)
(0.43554 0.0650474 6.01981e-20)
(0.614961 0.0976953 -2.82628e-20)
(0.789203 0.133626 7.5497e-20)
(0.941087 0.167714 -4.68008e-20)
(1.06018 0.195763 8.41358e-20)
(1.1438 0.215496 -1.93459e-19)
(1.19566 0.22669 7.07165e-20)
(1.22321 0.230664 -6.38234e-20)
(1.23482 0.229477 5.94137e-20)
(1.23759 0.225116 5.29959e-20)
(1.23629 0.219112 4.77332e-20)
(1.23332 0.212244 -1.31878e-19)
(1.22956 0.205028 8.19556e-20)
(1.22514 0.197426 -3.78275e-20)
(1.22028 0.18976 1.00532e-19)
(1.21502 0.182042 -3.21117e-20)
(1.21002 0.174016 -8.12388e-20)
(1.20501 0.168021 7.51159e-20)
(1.20073 0.158089 2.34114e-20)
(-0.0149917 0.00615019 0)
(0.0132991 0.00830717 3.27905e-22)
(0.0958595 0.0150004 8.05525e-20)
(0.228 0.0304553 -7.42507e-20)
(0.400123 0.0574019 -6.69792e-20)
(0.59295 0.0943804 1.23189e-19)
(0.781332 0.135858 -5.66729e-20)
(0.943354 0.175024 7.60761e-20)
(1.06678 0.206609 -1.05397e-21)
(1.14996 0.22821 -4.2671e-20)
(1.19898 0.24013 9.50126e-20)
(1.22341 0.244371 -1.39461e-19)
(1.2327 0.243441 0)
(1.23399 0.239466 -2.80072e-20)
(1.23158 0.233867 -7.63187e-20)
(1.22758 0.227375 2.35762e-20)
(1.2229 0.220395 5.78497e-22)
(1.21794 0.213066 -5.57822e-20)
(1.213 0.205615 1.97769e-21)
(1.20816 0.198132 6.43494e-20)
(1.20355 0.190703 -2.95753e-20)
(1.19896 0.183406 -1.18182e-20)
(1.19424 0.176951 3.50123e-20)
(1.19006 0.168308 0)
(-0.00699619 0.00354929 0)
(0.0482435 0.00482895 2.20384e-20)
(0.167423 0.0177597 -1.03807e-19)
(0.339757 0.0447786 3.75836e-20)
(0.544174 0.0852771 -3.48126e-20)
(0.749644 0.132869 -3.16829e-20)
(0.927313 0.178536 -5.61737e-20)
(1.06109 0.21528 2.71779e-20)
(1.14916 0.240174 2.39496e-20)
(1.19939 0.253883 0)
(1.22328 0.259023 5.60046e-20)
(1.23144 0.258565 -8.36608e-20)
(1.23144 0.25486 6.21042e-20)
(1.22777 0.249406 2.80194e-20)
(1.2227 0.243012 -2.36592e-20)
(1.21729 0.236115 -2.06059e-20)
(1.21198 0.228928 -1.9529e-20)
(1.2069 0.221623 5.61271e-20)
(1.20199 0.21425 0)
(1.19717 0.20689 2.95544e-20)
(1.19233 0.199523 2.58418e-20)
(1.18756 0.192346 -6.25155e-20)
(1.18299 0.185422 -4.43302e-20)
(1.17868 0.177713 4.07095e-20)
(0.00528777 0.00130469 -2.52398e-20)
(0.0951325 0.00420575 -8.54007e-22)
(0.255909 0.0273416 2.11032e-20)
(0.466192 0.0691708 5.84711e-20)
(0.690269 0.122859 1.71155e-20)
(0.889895 0.176747 -3.22412e-20)
(1.04156 0.220969 2.92347e-20)
(1.14096 0.251225 -2.57627e-20)
(1.19686 0.268158 4.61339e-20)
(1.22269 0.274958 2.00491e-20)
(1.23078 0.275208 -5.5965e-20)
(1.22985 0.27171 1.67515e-20)
(1.22504 0.26624 2.91552e-20)
(1.21898 0.259773 -1.40675e-20)
(1.21281 0.252808 0)
(1.20688 0.245571 2.20106e-20)
(1.20125 0.238185 3.81306e-20)
(1.19582 0.230697 7.30412e-21)
(1.19058 0.22317 -3.20388e-20)
(1.18554 0.215655 1.37786e-20)
(1.1808 0.208211 0)
(1.17637 0.201057 -1.11777e-20)
(1.17213 0.193822 -1.07492e-20)
(1.16832 0.187006 0)
(0.0224563 0.000135 0)
(0.154142 0.00840866 1.22377e-20)
(0.358251 0.0459395 2.24386e-20)
(0.598113 0.103924 -5.96291e-20)
(0.825291 0.167451 1.89075e-20)
(1.00381 0.222074 0)
(1.12272 0.260553 2.84329e-20)
(1.18995 0.282755 -3.92576e-20)
(1.22094 0.292345 -2.30112e-20)
(1.23045 0.293747 1.04359e-20)
(1.22915 0.290513 -1.71467e-20)
(1.22336 0.284917 4.08958e-20)
(1.21623 0.278191 2.11277e-20)
(1.20905 0.270926 -1.41339e-20)
(1.20223 0.263377 -9.14437e-22)
(1.19584 0.255665 -4.12065e-20)
(1.18984 0.24786 1.88289e-20)
(1.18423 0.240036 -4.65191e-22)
(1.17899 0.232249 0)
(1.1741 0.224554 -1.37923e-20)
(1.16953 0.217007 0)
(1.16518 0.209655 3.24598e-20)
(1.16112 0.202182 -3.9006e-20)
(1.15709 0.195903 1.78647e-20)
(0.0447544 0.000856301 -7.01124e-21)
(0.223983 0.0193522 -3.12195e-20)
(0.468631 0.0747802 3.50867e-20)
(0.724966 0.147575 2.04624e-20)
(0.939905 0.215824 -9.56518e-21)
(1.08892 0.266426 1.61274e-20)
(1.17548 0.296944 -7.68118e-21)
(1.21637 0.31115 1.28837e-20)
(1.22965 0.314544 0)
(1.2289 0.311803 2.95755e-20)
(1.22231 0.305998 -8.83901e-22)
(1.21398 0.298793 -2.39703e-20)
(1.20561 0.290961 1.04536e-20)
(1.19774 0.282837 -1.20601e-20)
(1.19049 0.274573 -4.85354e-21)
(1.18384 0.266257 5.25934e-21)
(1.17772 0.257954 -4.23622e-21)
(1.17206 0.249709 -2.33919e-20)
(1.1668 0.241559 1.4302e-20)
(1.16192 0.233549 3.02549e-21)
(1.15743 0.225723 2.7102e-21)
(1.15333 0.218087 2.42975e-21)
(1.14949 0.210517 0)
(1.14572 0.204451 0)
(0.0720162 0.00435375 7.01972e-21)
(0.301867 0.0386302 -6.50654e-21)
(0.579599 0.113796 -1.1766e-20)
(0.838005 0.197753 0)
(1.0301 0.265585 -4.78278e-21)
(1.14746 0.309028 -4.28256e-21)
(1.20578 0.330872 -7.28931e-21)
(1.22675 0.33779 0)
(1.22817 0.336075 0)
(1.22124 0.330054 0)
(1.21171 0.322134 0)
(1.20202 0.313445 0)
(1.19296 0.304457 -6.63104e-21)
(1.18473 0.295372 3.01295e-21)
(1.17726 0.286283 5.34795e-21)
(1.17047 0.277247 2.50238e-21)
(1.16426 0.268304 6.34671e-21)
(1.1586 0.259494 0)
(1.15345 0.25086 -1.59901e-21)
(1.1488 0.242453 -1.53841e-21)
(1.14463 0.234304 -2.71447e-21)
(1.14083 0.226376 -2.43358e-21)
(1.13728 0.218715 0)
(1.13368 0.212486 1.84185e-21)
(-0.00305278 0.0599822 4.55266e-21)
(-0.01051 0.128585 -4.32853e-21)
(-0.0224285 0.162977 -8.0205e-21)
(-0.0365925 0.175424 0)
(-0.0517684 0.175341 -1.03284e-20)
(-0.0672915 0.169035 3.16075e-21)
(-0.0827499 0.160039 -6.03162e-21)
(-0.0979291 0.149911 0)
(-0.112761 0.139097 0)
(-0.127264 0.127556 0)
(-0.1415 0.115098 0)
(-0.155553 0.101519 0)
(-0.169512 0.086633 -8.03509e-23)
(-0.183475 0.0702705 -3.849e-21)
(-0.197552 0.0522739 7.58409e-21)
(-0.211844 0.0325211 1.07256e-20)
(-0.226426 0.0108398 3.57656e-21)
(-0.241219 -0.0128535 0)
(-0.256332 -0.0385653 3.01237e-21)
(-0.27192 -0.0662135 -8.71737e-21)
(-0.288011 -0.0956507 -5.62613e-21)
(-0.304797 -0.126801 -5.3556e-21)
(-0.322373 -0.159436 0)
(-0.339925 -0.193038 0)
(-0.00651111 0.062748 -1.3809e-20)
(-0.0165896 0.136842 2.17675e-20)
(-0.0277304 0.175814 -8.26793e-21)
(-0.0396424 0.191529 -1.51392e-20)
(-0.0519427 0.193458 2.0938e-20)
(-0.0643171 0.18821 -1.3168e-20)
(-0.0764983 0.179678 1.82392e-20)
(-0.0883088 0.169723 1.17086e-20)
(-0.0996737 0.158998 0)
(-0.110596 0.147581 -1.01633e-20)
(-0.121128 0.135345 -3.19735e-22)
(-0.131345 0.122114 8.76042e-21)
(-0.141337 0.107716 1.30497e-20)
(-0.151202 0.0919923 1.6584e-20)
(-0.161045 0.0747988 -7.24104e-21)
(-0.170973 0.056015 -2.18936e-20)
(-0.181087 0.0355414 7.4711e-21)
(-0.191486 0.0132983 -2.725e-20)
(-0.202154 -0.0108345 0)
(-0.213009 -0.0367899 5.89787e-21)
(-0.224287 -0.0645264 5.61745e-21)
(-0.236248 -0.0937985 5.34732e-21)
(-0.248772 -0.124196 0)
(-0.260968 -0.155074 0)
(-0.00992525 0.0630316 0)
(-0.0227246 0.140471 4.53988e-20)
(-0.032927 0.183582 -1.67659e-20)
(-0.0421699 0.20286 1.54203e-20)
(-0.0509913 0.2073 -4.35698e-20)
(-0.0594907 0.203566 0)
(-0.0675936 0.195831 -2.54738e-20)
(-0.0751866 0.186278 1.19501e-20)
(-0.0821945 0.17581 -2.2737e-20)
(-0.0886006 0.164665 1.10996e-20)
(-0.0944367 0.152804 6.07924e-20)
(-0.0997648 0.140094 -2.83138e-20)
(-0.104665 0.126388 -4.53404e-20)
(-0.109227 0.111539 -1.82937e-20)
(-0.113547 0.0954083 -7.83564e-22)
(-0.11772 0.0778697 6.25726e-20)
(-0.121836 0.058812 -2.95163e-20)
(-0.125977 0.0381435 -7.09667e-22)
(-0.13019 0.0158127 0)
(-0.134542 -0.00825314 -2.67092e-20)
(-0.13891 -0.0340407 0)
(-0.143224 -0.061273 -2.36214e-20)
(-0.147321 -0.0894644 9.02473e-20)
(-0.150625 -0.117878 5.96068e-22)
(-0.0129332 0.0608022 0)
(-0.0283561 0.139075 4.55833e-22)
(-0.0376615 0.185519 1.73905e-20)
(-0.0441601 0.208459 -1.62347e-20)
(-0.0492268 0.215872 1.4486e-20)
(-0.0534316 0.214154 8.35587e-20)
(-0.0569521 0.207623 -2.58659e-20)
(-0.0597814 0.198753 -2.47019e-20)
(-0.0618707 0.188728 4.60102e-20)
(-0.0631967 0.177985 -6.54524e-20)
(-0.0637782 0.166601 2.05646e-20)
(-0.0636686 0.154512 1.98432e-20)
(-0.0629448 0.141602 0)
(-0.0616969 0.127744 1.74865e-20)
(-0.0600197 0.112807 0)
(-0.0580032 0.0966583 3.29381e-20)
(-0.055723 0.0791668 -6.30184e-20)
(-0.0532328 0.0602026 1.30194e-20)
(-0.0505493 0.0396477 5.62489e-20)
(-0.0476344 0.0174127 2.66812e-20)
(-0.044391 -0.00647502 0)
(-0.0405613 -0.0319857 -7.43683e-20)
(-0.0358493 -0.0586506 2.28266e-20)
(-0.0280696 -0.0857771 0)
(-0.0152188 0.0563448 0)
(-0.0329789 0.132798 -5.67803e-20)
(-0.0416067 0.181364 -1.76614e-20)
(-0.0455909 0.207733 -3.26491e-20)
(-0.0469937 0.218402 3.02508e-20)
(-0.0468297 0.219162 -2.80185e-20)
(-0.0455764 0.214277 5.33979e-20)
(-0.0433951 0.206433 2.53943e-20)
(-0.0403091 0.197085 -6.99647e-20)
(-0.0363173 0.186898 4.49435e-20)
(-0.0314413 0.176107 -6.31944e-20)
(-0.0257339 0.164736 1.41398e-19)
(-0.0192707 0.152724 -7.55201e-20)
(-0.0121397 0.139968 3.67178e-20)
(-0.00442703 0.126347 1.05721e-19)
(0.00379987 0.11172 -3.11176e-20)
(0.0125063 0.0959327 -3.04352e-20)
(0.0216966 0.078805 -2.95229e-20)
(0.0314319 0.060153 0)
(0.0419075 0.0397908 -5.67336e-20)
(0.053201 0.0176193 -5.53395e-20)
(0.0660396 -0.00654888 7.53502e-20)
(0.0787895 -0.0323713 9.71495e-20)
(0.100791 -0.0585748 -9.12912e-20)
(-0.0165866 0.050195 0)
(-0.0361939 0.1223 -7.75362e-20)
(-0.0444841 0.171437 -2.96053e-22)
(-0.0464609 0.200558 6.61695e-20)
(-0.0446233 0.214433 0)
(-0.0403572 0.217962 0)
(-0.0344555 0.215119 0)
(-0.0272994 0.208664 -2.55734e-20)
(-0.0190388 0.200271 -7.82892e-22)
(-0.00973293 0.190837 4.46877e-20)
(0.00057487 0.180772 -6.48111e-20)
(0.0118319 0.170221 -7.1627e-22)
(0.0239779 0.159192 0)
(0.0369586 0.147617 -3.67021e-20)
(0.0507443 0.13539 3.65188e-20)
(0.0653522 0.122363 -1.00573e-19)
(0.0808635 0.108358 1.30254e-19)
(0.0974599 0.0931533 3.37787e-20)
(0.115311 0.0765267 3.12228e-21)
(0.135073 0.0581883 -1.12362e-19)
(0.155993 0.0380445 -5.44621e-20)
(0.181986 0.0157819 1.82128e-19)
(0.203068 -0.00912426 -1.22468e-19)
(0.247176 -0.0322807 0)
(-0.0170007 0.0430511 4.16919e-20)
(-0.0378197 0.108697 3.89062e-20)
(-0.0461363 0.156628 -3.62969e-20)
(-0.0467917 0.187359 -6.70252e-20)
(-0.0424059 0.203933 6.21e-20)
(-0.0346087 0.210185 -5.82069e-20)
(-0.0244788 0.209591 8.11466e-20)
(-0.012643 0.204813 -2.57033e-20)
(0.000578114 0.197643 4.76229e-20)
(0.0150292 0.189164 0)
(0.0306318 0.179959 4.39739e-20)
(0.0473467 0.170301 -8.07738e-20)
(0.0651702 0.160277 7.86941e-20)
(0.0841492 0.149864 -7.3252e-20)
(0.104403 0.138967 0)
(0.126158 0.127428 6.76837e-20)
(0.149718 0.115039 1.31667e-19)
(0.17567 0.101578 -1.22802e-19)
(0.203943 0.0867901 -5.93951e-20)
(0.237233 0.0705392 -5.86596e-20)
(0.269855 0.052093 1.62177e-19)
(0.317988 0.0332574 5.27811e-20)
(0.346045 0.00894169 -4.84159e-20)
(0.426167 -0.00869715 4.58335e-20)
(-0.0165935 0.0356565 -4.17022e-20)
(-0.0379603 0.0933801 1.18524e-19)
(-0.0466162 0.138308 -3.67065e-20)
(-0.0466757 0.169129 6.74784e-20)
(-0.0405751 0.187396 -6.25194e-20)
(-0.0300271 0.195867 -1.82994e-22)
(-0.0163183 0.197389 2.70364e-20)
(-0.00030265 0.194364 1.02565e-19)
(0.0175187 0.188574 1.37353e-21)
(0.0368863 0.1812 -4.47137e-20)
(0.0577018 0.172957 0)
(0.0799895 0.164229 -4.1512e-20)
(0.10389 0.155179 7.65439e-20)
(0.129676 0.145823 7.47502e-20)
(0.157755 0.136071 -3.45817e-20)
(0.188703 0.125785 -3.40141e-22)
(0.223063 0.11476 -3.23854e-20)
(0.262347 0.102896 6.12961e-20)
(0.304726 0.089425 5.94006e-20)
(0.358091 0.0756971 -5.67825e-20)
(0.404191 0.0578229 5.33552e-20)
(0.48325 0.0438283 -5.05122e-20)
(0.516601 0.0198495 0)
(0.637983 0.00823572 -4.58117e-20)
(-0.0156507 0.0286924 4.21392e-20)
(-0.0370219 0.0778029 -3.96383e-20)
(-0.0462376 0.118144 3.6713e-20)
(-0.0463187 0.147352 0)
(-0.0392928 0.1659 0)
(-0.026799 0.175617 5.83881e-20)
(-0.010217 0.178698 -5.41975e-20)
(0.00944953 0.177185 5.12974e-20)
(0.0315776 0.172725 -2.38575e-19)
(0.055869 0.166502 -5.57527e-22)
(0.0823033 0.159291 4.22442e-20)
(0.111099 0.151554 0)
(0.142702 0.143509 -7.74798e-20)
(0.177756 0.135235 1.4597e-19)
(0.217094 0.126709 -1.03812e-19)
(0.261773 0.117833 -1.68245e-19)
(0.31218 0.108261 -3.24496e-21)
(0.370623 0.0982765 1.18866e-19)
(0.432387 0.0861931 0)
(0.51045 0.0758012 0)
(0.57401 0.0591516 -5.33711e-20)
(0.681369 0.0508023 5.05261e-20)
(0.72307 0.0284224 -1.88368e-19)
(0.871 0.023687 1.75704e-19)
(-0.0145767 0.0227023 0)
(-0.0356609 0.0632674 0)
(-0.0455368 0.0978424 -1.10225e-19)
(-0.0459955 0.123805 3.41566e-20)
(-0.0385453 0.141045 6.85271e-23)
(-0.0246257 0.150721 5.80892e-20)
(-0.00556094 0.154463 0)
(0.0176561 0.153934 -5.03463e-20)
(0.0444541 0.150581 4.75614e-20)
(0.0746884 0.145514 -8.91866e-20)
(0.108653 0.139495 -6.0298e-22)
(0.146947 0.133063 8.03015e-20)
(0.190477 0.126539 1.56834e-21)
(0.240306 0.120053 7.42277e-20)
(0.297345 0.113568 -1.01388e-19)
(0.362406 0.106944 0)
(0.435279 0.099989 1.26001e-19)
(0.517058 0.0928537 -1.77593e-19)
(0.602422 0.0843393 5.55827e-20)
(0.700036 0.0774924 0)
(0.784013 0.0650783 4.97354e-20)
(0.898643 0.0615866 1.92655e-19)
(0.952791 0.0420946 -1.79885e-19)
(1.09213 0.0445031 -2.06731e-19)
(-0.0138329 0.0180469 1.26976e-19)
(-0.0346352 0.0507568 -1.60168e-19)
(-0.0450766 0.0788995 2.96518e-22)
(-0.045808 0.100323 3.41911e-20)
(-0.0378064 0.114819 -6.2811e-20)
(-0.0221979 0.123179 -5.82041e-20)
(-4.09982e-05 0.126639 1.0801e-19)
(0.0279645 0.126557 8.52509e-22)
(0.0616209 0.124182 -9.35374e-20)
(0.101212 0.120517 1.76678e-19)
(0.147527 0.116397 1.76267e-21)
(0.20164 0.112392 -7.77006e-20)
(0.26449 0.108778 0)
(0.336694 0.105632 0)
(0.418268 0.102991 -3.38784e-20)
(0.508446 0.100506 -6.29164e-20)
(0.605526 0.0985139 -1.22461e-19)
(0.707152 0.0955256 1.14157e-19)
(0.81 0.0932126 -5.56286e-20)
(0.911885 0.0887126 1.0357e-19)
(1.00476 0.0835593 -4.91813e-20)
(1.0985 0.0796362 9.1216e-20)
(1.15718 0.0655867 -2.10738e-19)
(1.24845 0.0680017 4.06234e-20)
(-0.0138333 0.0148701 4.24656e-20)
(-0.0345335 0.0408281 0)
(-0.04505 0.0624344 7.38656e-20)
(-0.0451732 0.078611 -6.8396e-20)
(-0.0353704 0.0894541 6.28958e-20)
(-0.0162933 0.0956915 0)
(0.0115628 0.0983792 0)
(0.0481434 0.0986948 -4.99385e-20)
(0.0939144 0.0977726 -5.40629e-22)
(0.149739 0.0966158 4.29788e-20)
(0.216474 0.0959556 -4.1234e-20)
(0.294598 0.0962008 7.66852e-20)
(0.383871 0.0975763 0)
(0.482993 0.10003 1.39538e-19)
(0.589562 0.103393 -2.62141e-19)
(0.700376 0.106896 1.86143e-19)
(0.811452 0.110745 1.18248e-19)
(0.918603 0.112412 -1.1023e-19)
(1.01814 0.115038 0)
(1.10515 0.111127 0)
(1.17926 0.111424 0)
(1.23519 0.100189 0)
(1.27422 0.0942987 4.08627e-20)
(1.30473 0.0839607 -1.43611e-19)
(-0.359487 -0.232465 -3.26302e-21)
(-0.389681 -0.282353 3.2712e-21)
(-0.414034 -0.328451 -1.05008e-22)
(-0.440378 -0.37488 0)
(-0.461539 -0.416213 -3.16278e-21)
(-0.478759 -0.452033 6.1853e-21)
(-0.487555 -0.478567 4.84881e-23)
(-0.486263 -0.493535 -2.98358e-21)
(-0.471597 -0.493894 0)
(-0.441988 -0.477722 0)
(-0.396418 -0.443633 -1.78384e-22)
(-0.336135 -0.391813 -1.7729e-22)
(-0.264081 -0.323929 -3.16907e-21)
(-0.185295 -0.242885 2.90616e-21)
(-0.105388 -0.151988 0)
(-0.0287537 -0.0537643 0)
(0.0419253 0.0509336 2.66822e-21)
(0.108739 0.165409 -1.41384e-22)
(0.177935 0.289556 -2.24205e-21)
(0.253163 0.411903 -1.17586e-22)
(0.329489 0.510516 0)
(0.397235 0.56608 0)
(0.446898 0.574624 0)
(0.477073 0.547922 0)
(0.494515 0.496108 0)
(0.506119 0.429978 0)
(0.491669 0.371073 1.5261e-23)
(0.436901 0.334857 -2.94353e-23)
(0.380207 0.301447 0)
(0.377638 0.243463 0)
(0.443323 0.155069 1.19514e-23)
(0.545675 0.0586445 -1.16125e-23)
(0.649128 -0.0268705 -2.63094e-24)
(0.732058 -0.0893433 0)
(0.789929 -0.131325 0)
(0.825649 -0.155223 -1.50363e-24)
(0.846122 -0.169301 1.4614e-24)
(0.856907 -0.175109 0)
(0.86283 -0.178293 1.16868e-24)
(0.866206 -0.17666 -2.0634e-24)
(0.868923 -0.174381 1.03475e-24)
(0.871379 -0.167541 0)
(0.874333 -0.160672 -1.87222e-24)
(0.877614 -0.149387 1.82046e-24)
(0.881864 -0.139334 0)
(0.88717 -0.12521 0)
(0.893969 -0.113924 -4.85564e-25)
(0.901966 -0.0995285 1.30387e-24)
(0.910874 -0.0901697 0)
(0.920368 -0.0782529 0)
(0.929462 -0.0729389 -2.50396e-25)
(0.938291 -0.0647935 2.55745e-26)
(0.945317 -0.0638502 -1.5024e-26)
(0.952211 -0.0576788 1.6522e-25)
(0.95618 -0.0583656 0)
(0.960808 -0.0516929 0)
(0.96127 -0.0532581 0)
(0.964402 -0.0460582 0)
(0.963154 -0.0479094 0)
(0.966847 -0.0394591 0)
(-0.274243 -0.191596 -3.44476e-22)
(-0.308697 -0.243891 -1.4299e-20)
(-0.33621 -0.291287 5.36918e-23)
(-0.369719 -0.340151 1.33182e-20)
(-0.401906 -0.385783 2.08699e-22)
(-0.434162 -0.4276 0)
(-0.462933 -0.462683 -1.20474e-20)
(-0.485875 -0.488461 2.37363e-20)
(-0.499277 -0.501905 -1.16843e-20)
(-0.499599 -0.500117 1.12759e-20)
(-0.483664 -0.480555 -1.07708e-20)
(-0.449716 -0.441694 1.08458e-20)
(-0.398001 -0.383573 -1.04954e-20)
(-0.331404 -0.307787 -3.14191e-22)
(-0.255267 -0.217314 -1.06207e-20)
(-0.17667 -0.115392 1.03139e-20)
(-0.0998395 -0.00583006 -9.80353e-21)
(-0.0259821 0.11025 9.24457e-21)
(0.045434 0.232113 -8.11318e-21)
(0.120611 0.353598 1.45145e-20)
(0.199538 0.454557 -6.4595e-21)
(0.274435 0.51878 -2.66808e-22)
(0.335728 0.54014 -2.62526e-21)
(0.38185 0.524213 4.25238e-21)
(0.412077 0.481275 -1.65365e-21)
(0.413638 0.432919 4.8645e-23)
(0.372532 0.396522 2.85675e-22)
(0.318584 0.36379 -1.5331e-22)
(0.310446 0.30567 -1.35714e-22)
(0.373287 0.214715 2.40058e-23)
(0.48348 0.107234 4.29733e-24)
(0.600667 0.00966542 2.32088e-24)
(0.700007 -0.0664347 2.63643e-24)
(0.771841 -0.116865 1.20669e-24)
(0.81841 -0.148344 0)
(0.845394 -0.164795 0)
(0.859964 -0.174272 -5.88219e-24)
(0.867168 -0.177601 3.23086e-24)
(0.870976 -0.179621 6.19205e-24)
(0.873178 -0.17754 1.82548e-24)
(0.875171 -0.175179 -1.02907e-23)
(0.877246 -0.16842 2.60316e-24)
(0.879942 -0.161708 0)
(0.883171 -0.150606 0)
(0.88726 -0.140811 0)
(0.892352 -0.12699 0)
(0.898688 -0.116023 2.15304e-24)
(0.906344 -0.10187 -8.32451e-25)
(0.914932 -0.0926584 0)
(0.924442 -0.0807109 0)
(0.933589 -0.075222 0)
(0.942612 -0.0667514 -3.97677e-25)
(0.949709 -0.0654822 4.47947e-26)
(0.956625 -0.0589333 -3.75362e-25)
(0.960759 -0.0593033 0)
(0.965409 -0.0522769 0)
(0.966385 -0.0536086 8.01012e-26)
(0.969219 -0.0462711 1.68586e-26)
(0.968416 -0.0480703 0)
(0.970998 -0.0397742 0)
(-0.155583 -0.150973 5.5519e-22)
(-0.187333 -0.203068 -3.04065e-20)
(-0.212654 -0.250462 2.99409e-20)
(-0.245427 -0.298908 -2.79464e-20)
(-0.280593 -0.345507 -2.10186e-22)
(-0.319361 -0.389369 0)
(-0.360197 -0.428758 -2.46342e-20)
(-0.401462 -0.461563 2.40954e-20)
(-0.4401 -0.485221 1.7722e-22)
(-0.471904 -0.496609 3.19152e-22)
(-0.49205 -0.492512 3.02118e-22)
(-0.495898 -0.470094 3.24471e-22)
(-0.479962 -0.427527 -1.93609e-20)
(-0.443115 -0.364287 1.91165e-20)
(-0.387162 -0.281763 0)
(-0.317704 -0.182643 5.27971e-22)
(-0.242106 -0.0706041 -1.75376e-20)
(-0.163434 0.0483008 1.73087e-20)
(-0.0833976 0.170924 0)
(-0.00318095 0.291731 0)
(0.0777889 0.395595 -1.0056e-20)
(0.158024 0.467424 1.72393e-20)
(0.227272 0.500004 -1.21829e-20)
(0.278553 0.497972 1.67886e-21)
(0.299943 0.475658 5.4221e-21)
(0.281515 0.451256 -3.49818e-21)
(0.241894 0.422806 2.0253e-21)
(0.233861 0.370461 -3.30467e-22)
(0.294559 0.279107 -4.83955e-22)
(0.409776 0.164872 0)
(0.541377 0.0527892 0)
(0.657784 -0.036836 3.32986e-23)
(0.746664 -0.100343 -4.61893e-23)
(0.806506 -0.138843 4.93055e-24)
(0.842981 -0.161164 2.61838e-23)
(0.862766 -0.171614 -2.5442e-23)
(0.872641 -0.177613 0)
(0.876986 -0.179195 2.49664e-24)
(0.879026 -0.180485 2.91825e-23)
(0.88016 -0.178207 -5.88561e-23)
(0.881435 -0.17591 2.4951e-23)
(0.883071 -0.169321 3.65939e-24)
(0.885425 -0.162829 -2.47606e-23)
(0.888501 -0.151943 1.87175e-23)
(0.892428 -0.142394 3.80593e-24)
(0.897377 -0.128829 2.98598e-24)
(0.903372 -0.118133 -2.15876e-24)
(0.910662 -0.104195 0)
(0.918766 -0.0951332 0)
(0.927941 -0.0831769 -3.85464e-24)
(0.936808 -0.07753 1.8247e-24)
(0.945736 -0.0687396 -1.55612e-24)
(0.952782 -0.0671352 2.23994e-24)
(0.959658 -0.0602209 2.45621e-24)
(0.963967 -0.0602838 -6.00889e-25)
(0.968684 -0.0529366 7.39799e-25)
(0.970248 -0.0540154 -4.22608e-25)
(0.97301 -0.0465241 1.06317e-25)
(0.972784 -0.0482109 0)
(0.974694 -0.0400073 0)
(-0.0268032 -0.116559 -6.61112e-20)
(-0.0511378 -0.165102 6.54321e-22)
(-0.0704688 -0.2116 6.17388e-20)
(-0.0966734 -0.258028 -4.57785e-22)
(-0.126807 -0.302483 0)
(-0.162045 -0.344255 0)
(-0.202717 -0.382589 -4.91978e-20)
(-0.24911 -0.416446 1.71534e-21)
(-0.300137 -0.444524 6.53382e-20)
(-0.353178 -0.464401 -1.17126e-21)
(-0.403965 -0.473068 -1.92927e-20)
(-0.446648 -0.466932 -1.69102e-20)
(-0.474577 -0.442808 1.69192e-20)
(-0.482089 -0.39796 0)
(-0.465845 -0.331369 -1.6004e-20)
(-0.426537 -0.244007 1.45672e-20)
(-0.368855 -0.138789 0)
(-0.298082 -0.0198524 0)
(-0.218363 0.103539 1.27935e-20)
(-0.133841 0.224605 -1.40941e-21)
(-0.0489761 0.332718 -1.03683e-20)
(0.0319727 0.41369 -7.13856e-21)
(0.099638 0.462275 7.0333e-21)
(0.144047 0.480917 -3.63862e-21)
(0.155559 0.480965 1.10596e-21)
(0.144012 0.468071 2.31922e-21)
(0.147704 0.427452 1.67099e-22)
(0.207583 0.345911 -2.50298e-23)
(0.326286 0.229136 0)
(0.4697 0.106284 4.76178e-22)
(0.604753 -0.000445084 -4.94312e-22)
(0.712384 -0.0781632 1.20076e-23)
(0.788984 -0.128602 0)
(0.837477 -0.156197 -6.18953e-24)
(0.865152 -0.170733 1.03629e-22)
(0.878873 -0.176351 -1.76871e-22)
(0.884796 -0.17969 -7.26878e-24)
(0.886668 -0.180039 3.55024e-24)
(0.887094 -0.180906 6.41718e-23)
(0.88718 -0.17862 7.48358e-24)
(0.887703 -0.176504 -5.90957e-23)
(0.88884 -0.170167 5.11174e-23)
(0.890787 -0.163951 -8.5385e-25)
(0.893616 -0.153321 1.82292e-23)
(0.897313 -0.144031 -2.15409e-23)
(0.902094 -0.130708 -2.06951e-23)
(0.907808 -0.120248 5.86247e-24)
(0.914789 -0.106487 6.13931e-24)
(0.922439 -0.0975513 -1.05987e-23)
(0.931181 -0.0855875 6.48656e-24)
(0.939635 -0.079799 -1.55472e-24)
(0.948293 -0.0707105 1.74954e-24)
(0.955189 -0.0687811 1.43069e-24)
(0.961934 -0.0615253 -3.54459e-24)
(0.966358 -0.0612983 5.4902e-26)
(0.971091 -0.0536676 -6.34938e-25)
(0.973182 -0.0544911 0)
(0.97597 -0.0468369 -7.36661e-26)
(0.976319 -0.0483723 -1.57344e-25)
(0.977888 -0.0401943 0)
(0.105978 -0.090237 6.89427e-20)
(0.0893109 -0.133454 -1.3372e-19)
(0.0750849 -0.178992 6.42781e-20)
(0.0563723 -0.223348 6.07289e-20)
(0.033836 -0.265436 -1.16455e-19)
(0.00629336 -0.303961 2.80607e-21)
(-0.0268802 -0.338201 5.18443e-20)
(-0.0674712 -0.367559 4.44659e-20)
(-0.116367 -0.392804 -4.35032e-20)
(-0.173294 -0.413095 0)
(-0.236778 -0.426782 -3.32678e-20)
(-0.30316 -0.430733 6.27966e-20)
(-0.366153 -0.422393 -2.96699e-20)
(-0.417881 -0.397211 0)
(-0.450465 -0.351375 0)
(-0.458543 -0.28305 4.45003e-22)
(-0.440252 -0.193009 -2.45573e-20)
(-0.399304 -0.0841329 2.38414e-20)
(-0.338507 0.0357347 0)
(-0.264403 0.157741 1.94123e-20)
(-0.185446 0.269802 -3.41178e-20)
(-0.10803 0.361675 2.79096e-20)
(-0.0445297 0.42716 -2.21195e-20)
(-0.00149802 0.46668 2.21855e-21)
(0.0236967 0.479378 1.22486e-20)
(0.0519938 0.463205 -5.19311e-21)
(0.117602 0.402161 -9.5971e-23)
(0.235987 0.297063 -1.22845e-21)
(0.388171 0.168429 2.39447e-22)
(0.539757 0.0481065 9.9635e-22)
(0.668322 -0.048781 3.21951e-23)
(0.764018 -0.113448 -3.81288e-22)
(0.828129 -0.151652 6.403e-22)
(0.866045 -0.169671 -2.95336e-22)
(0.885832 -0.177648 0)
(0.894209 -0.179376 -1.44927e-22)
(0.89664 -0.180702 1.39359e-22)
(0.896269 -0.18022 -8.63899e-23)
(0.895167 -0.180912 1.08795e-22)
(0.894209 -0.178781 -1.16309e-23)
(0.893944 -0.176957 0)
(0.89453 -0.170948 -8.78889e-24)
(0.896021 -0.165059 2.12386e-23)
(0.89854 -0.154719 0)
(0.901945 -0.145701 4.20976e-23)
(0.906499 -0.132616 -1.75467e-23)
(0.911924 -0.12237 4.96684e-24)
(0.918618 -0.108756 4.00325e-24)
(0.925873 -0.099915 0)
(0.934197 -0.0879313 0)
(0.942229 -0.0820081 -4.95738e-24)
(0.950561 -0.072643 7.56785e-24)
(0.957268 -0.0704026 -4.15288e-24)
(0.963831 -0.0628295 1.35164e-24)
(0.968306 -0.0623298 2.02986e-24)
(0.972991 -0.0544509 6.35622e-25)
(0.97549 -0.0550279 -6.30889e-25)
(0.978324 -0.0472082 0)
(0.979167 -0.0485728 1.88589e-25)
(0.980609 -0.0403595 2.29008e-25)
(0.251993 -0.0660742 7.11963e-20)
(0.243749 -0.108142 -7.03012e-20)
(0.232871 -0.151305 5.17406e-22)
(0.219485 -0.193148 -4.93657e-22)
(0.202072 -0.233505 4.63898e-22)
(0.180321 -0.269951 -4.31614e-22)
(0.154042 -0.300952 7.81134e-22)
(0.12079 -0.326514 0)
(0.0784166 -0.346667 -6.25839e-22)
(0.0271365 -0.361712 5.51571e-22)
(-0.0334479 -0.37169 4.81016e-22)
(-0.10391 -0.374701 -4.69017e-22)
(-0.180939 -0.372988 0)
(-0.25828 -0.361348 0)
(-0.328567 -0.334411 2.91277e-22)
(-0.382694 -0.288071 0)
(-0.413047 -0.219121 -2.50237e-22)
(-0.417234 -0.128478 0)
(-0.394401 -0.0195958 -1.61746e-20)
(-0.348633 0.096788 3.04775e-20)
(-0.288231 0.211329 -2.69825e-20)
(-0.221456 0.311556 1.25053e-20)
(-0.158023 0.388552 8.57256e-21)
(-0.102556 0.440613 -8.3209e-21)
(-0.0462809 0.457364 -5.73124e-21)
(0.031514 0.432121 5.53086e-21)
(0.148949 0.354297 0)
(0.301869 0.236753 1.38065e-22)
(0.466272 0.107046 0)
(0.613972 -0.00605139 0)
(0.730998 -0.0908718 1.41014e-21)
(0.813401 -0.142689 -1.49254e-21)
(0.86504 -0.169901 6.18892e-23)
(0.892985 -0.179781 3.35335e-23)
(0.905548 -0.182376 -3.29207e-23)
(0.90907 -0.181007 -1.71816e-22)
(0.908304 -0.180815 1.66802e-22)
(0.905828 -0.179802 -1.41808e-22)
(0.90324 -0.180506 1.2314e-22)
(0.901224 -0.178665 2.56913e-23)
(0.900136 -0.177234 -8.402e-23)
(0.900126 -0.171633 -1.14704e-24)
(0.90112 -0.166127 5.40939e-23)
(0.903286 -0.156111 0)
(0.906356 -0.147378 -2.06436e-23)
(0.910638 -0.134531 2.03689e-23)
(0.915745 -0.124488 -2.70021e-23)
(0.922143 -0.111001 -4.03006e-24)
(0.929027 -0.10223 0)
(0.936965 -0.0902135 1.7415e-24)
(0.944604 -0.0841571 -4.02095e-24)
(0.952612 -0.0745338 4.59532e-26)
(0.95913 -0.0719951 -1.34122e-24)
(0.965503 -0.064125 1.95777e-24)
(0.969992 -0.0633661 -1.94943e-24)
(0.97459 -0.0552673 0)
(0.977379 -0.0556111 6.31263e-25)
(0.98025 -0.047627 0)