/*--------------------------------*- C++ -*----------------------------------*\
| =========                 |                                                 |
| \\      /  F ield         | OpenFOAM: The Open Source CFD Toolbox           |
|  \\    /   O peration     | Version:  2312                                  |
|   \\  /    A nd           | Website:  www.openfoam.com                      |
|    \\/     M anipulation  |                                                 |
\*---------------------------------------------------------------------------*/
FoamFile
{
    version     2.0;
    format      ascii;
    arch        "LSB;label=32;scalar=64";
    class       surfaceScalarField;
    location    "53";
    object      phi;
}
// * * * * * * * * * * * * * * * * * * * * * * * * * * * * * * * * * * * * * //

dimensions      [0 3 -1 0 0 0 0];

oriented        oriented;

internalField   nonuniform List<scalar> 
26232
(
4.66431e-05
0.00135351
-0.00140015
0.000177784
0.00254514
-0.00267628
0.000556256
0.00258039
-0.00295887
0.00142888
0.0016013
-0.00247393
0.00308802
-0.000380612
-0.00127852
0.00584802
-0.00344775
0.000687745
0.0100192
-0.00771137
0.00354022
0.015869
-0.0132535
0.0074037
0.0235599
-0.020049
0.0123581
0.0330873
-0.0279252
0.0183977
0.0442444
-0.0365622
0.0254051
0.0566303
-0.0455354
0.0331495
0.069702
-0.0543824
0.0413106
0.0828556
-0.062675
0.0495214
0.0955145
-0.0700762
0.0574174
0.107206
-0.0763794
0.0646881
0.117626
-0.0815146
0.0710943
0.12664
-0.0855504
0.0765363
0.134333
-0.0886271
0.0809341
0.140897
-0.0910255
0.0844619
0.146643
-0.0928598
0.0871138
0.151996
-0.0945931
0.0892404
0.156989
-0.0960165
0.0910233
-0.0976853
0.0926188
0.162055
0.000105249
0.00124826
0.000479762
0.00217063
0.00132551
0.00173465
0.00292363
3.18318e-06
0.00563829
-0.00309528
0.00982289
-0.00763235
0.0157993
-0.0136878
0.0237482
-0.0212024
0.0336224
-0.0299232
0.045105
-0.0394078
0.0576403
-0.0490976
0.0705278
-0.0584228
0.0830461
-0.0669007
0.0945752
-0.0742041
0.104689
-0.08019
0.113205
-0.0848952
0.120184
-0.0884937
0.125888
-0.0912547
0.130717
-0.0934554
0.135079
-0.0953882
0.139409
-0.09719
0.143963
-0.0991463
0.148983
-0.101037
-0.103408
0.154705
0.000136725
0.00111154
0.000732771
0.00157458
0.00206609
0.000401327
0.00450944
-0.00244016
0.00845606
-0.0070419
0.0142886
-0.0134649
0.0222155
-0.0216147
0.0321516
-0.0311384
0.0436647
-0.0414363
0.05604
-0.0517831
0.0684316
-0.0614892
0.0800409
-0.0700321
0.0902684
-0.0771282
0.0988049
-0.0827406
0.105651
-0.0870363
0.111067
-0.090311
0.115477
-0.0929039
0.119347
-0.095125
0.123092
-0.0972002
0.126996
-0.0992924
0.131229
-0.101422
0.135809
-0.103727
0.140733
-0.105961
-0.108588
0.145914
0.000171822
0.000939713
0.001025
0.000721399
0.00295088
-0.00152455
0.00639601
-0.0058853
0.0117923
-0.0124382
0.0193995
-0.0210721
0.0291186
-0.0313338
0.0404164
-0.0424362
0.0524279
-0.0534478
0.0641812
-0.0635365
0.0748381
-0.0721461
0.0838662
-0.0790601
0.0911067
-0.0843687
0.0967384
-0.0883723
0.101164
-0.0914616
0.104862
-0.0940096
0.108262
-0.0963033
0.111658
-0.0985216
0.115213
-0.100755
0.118962
-0.103042
0.122916
-0.105377
0.127023
-0.107833
0.131333
-0.110271
-0.113067
0.135812
0.000241908
0.000697805
0.00144614
-0.00048283
0.00411827
-0.00419668
0.00876122
-0.0105282
0.0157177
-0.0193946
0.0249256
-0.0302801
0.0357895
-0.0421976
0.0473105
-0.0539572
0.0584009
-0.0645382
0.0681953
-0.0733309
0.0762363
-0.0801871
0.0824996
-0.0853235
0.0872906
-0.0891596
0.0910725
-0.0921542
0.0943009
-0.0946899
0.0973171
-0.0970258
0.10032
-0.0993058
0.103396
-0.101598
0.106576
-0.103934
0.109871
-0.106336
0.113312
-0.108818
0.116911
-0.111432
0.120734
-0.114095
-0.11708
0.124748
0.000366789
0.000331016
0.00204712
-0.00216316
0.00563074
-0.0077803
0.0115821
-0.0164796
0.0199564
-0.027769
0.0301715
-0.0404951
0.0411259
-0.053152
0.0516105
-0.0644419
0.0607131
-0.0736407
0.0680202
-0.0806381
0.0735952
-0.0857621
0.0778097
-0.089538
0.0811343
-0.0924843
0.0839784
-0.0949983
0.0866195
-0.097331
0.0892114
-0.0996178
0.0918314
-0.101926
0.0945223
-0.104289
0.0973184
-0.10673
0.100246
-0.109264
0.103329
-0.111901
0.106556
-0.114658
0.109954
-0.117493
-0.12058
0.113454
0.000550315
-0.0002193
0.00282638
-0.00443922
0.00742783
-0.0123817
0.0146112
-0.0236629
0.0239302
-0.037088
0.0342454
-0.0508103
0.0442123
-0.063119
0.0528191
-0.0730486
0.0596335
-0.0804552
0.0647465
-0.085751
0.0685504
-0.089566
0.0715063
-0.0924939
0.0739939
-0.0949719
0.0762648
-0.0972692
0.078464
-0.0995302
0.0806718
-0.101826
0.0829341
-0.104188
0.0852786
-0.106634
0.087718
-0.10917
0.0902567
-0.111802
0.092895
-0.11454
0.0956245
-0.117388
0.0984768
-0.120346
-0.123488
0.101385
0.000784472
-0.00100377
0.00373829
-0.00739304
0.00934503
-0.0179885
0.0174429
-0.0317608
0.0269835
-0.0466287
0.0364922
-0.0603189
0.0447814
-0.0714083
0.0513133
-0.0795805
0.0561414
-0.0852833
0.0596498
-0.0892594
0.062295
-0.0922112
0.0644531
-0.094652
0.0663759
-0.0968946
0.0682106
-0.0991039
0.0700362
-0.101356
0.0718921
-0.103681
0.0737962
-0.106092
0.0757564
-0.108594
0.0777791
-0.111192
0.0798733
-0.113896
0.082049
-0.116715
0.0843144
-0.119653
0.0866818
-0.122713
-0.125916
0.0891092
0.00105553
-0.0020593
0.00470631
-0.0110438
0.0111512
-0.0244334
0.0196428
-0.0402524
0.0286553
-0.0556411
0.036753
-0.0684166
0.0431818
-0.0778372
0.0478814
-0.0842801
0.0511991
-0.0886009
0.0535939
-0.0916542
0.0554576
-0.094075
0.0570564
-0.0962508
0.058544
-0.0983822
0.0599983
-0.100558
0.061455
-0.102813
0.0629308
-0.105157
0.0644363
-0.107598
0.0659817
-0.110139
0.0675777
-0.112788
0.0692331
-0.115552
0.070952
-0.118434
0.0727342
-0.121435
0.0745811
-0.12456
-0.127793
0.0764584
0.00134406
-0.00340336
0.0056318
-0.0153316
0.0125982
-0.0313998
0.0208932
-0.0485474
0.0288228
-0.0635707
0.0352899
-0.0748836
0.0400131
-0.0825604
0.0432544
-0.0875214
0.04547
-0.0908165
0.0470793
-0.0932634
0.0483749
-0.0953706
0.0495261
-0.0974019
0.0506169
-0.099473
0.0516859
-0.101627
0.0527522
-0.103879
0.053828
-0.106233
0.0549226
-0.108692
0.0560436
-0.11126
0.0571971
-0.113942
0.0583879
-0.116743
0.0596193
-0.119666
0.060896
-0.122712
0.0622161
-0.12588
-0.129144
0.0635669
0.00162598
-0.00502934
0.0064071
-0.0201127
0.0134872
-0.0384799
0.0210826
-0.0561428
0.0276519
-0.07014
0.0325428
-0.0797745
0.0358402
-0.0858577
0.0379665
-0.0896478
0.0393721
-0.0922222
0.0403907
-0.094282
0.0412202
-0.0962002
0.0419604
-0.0981422
0.0426571
-0.10017
0.0433314
-0.102302
0.0439952
-0.104543
0.0446561
-0.106894
0.0453205
-0.109357
0.0459949
-0.111935
0.0466862
-0.114633
0.0474011
-0.117457
0.048144
-0.120409
0.0489155
-0.123484
0.0497078
-0.126672
-0.129951
0.0505152
0.00187746
-0.00690681
0.00693958
-0.0251748
0.0137244
-0.0452646
0.0202951
-0.0627135
0.0254541
-0.0752991
0.0289535
-0.0832739
0.0311065
-0.0880107
0.0323788
-0.09092
0.033157
-0.0930004
0.0336848
-0.0948098
0.0340887
-0.096604
0.034426
-0.0984794
0.0347215
-0.100465
0.0349873
-0.102567
0.0352309
-0.104786
0.0354587
-0.107122
0.0356771
-0.109575
0.0358924
-0.11215
0.0361105
-0.114851
0.0363366
-0.117684
0.0365741
-0.120646
0.0368237
-0.123733
0.0370804
-0.126929
0.0373499
-0.130221
-9.80347e-05
-0.00348115
0.00357918
-0.000515794
-0.00884418
0.00926194
-0.00132489
-0.012677
0.0134861
-0.00251057
-0.0151865
0.0163722
-0.00400373
-0.0168226
0.0183157
-0.00572095
-0.0180638
0.019781
-0.00759172
-0.0192645
0.0211353
-0.00956584
-0.0206139
0.0225881
-0.0116075
-0.0221713
0.024213
-0.0136831
-0.0239202
0.0259958
-0.0157505
-0.0258065
0.0278739
-0.0177523
-0.0277538
0.0297557
-0.0196115
-0.029664
0.0315232
-0.0212308
-0.0314147
0.033034
-0.0224949
-0.0328581
0.0341221
-0.023276
-0.0338235
0.0346047
-0.0234427
-0.0341227
0.0342894
-0.0228683
-0.0335604
0.0329861
-0.021472
-0.0319416
0.0305453
-0.0191632
-0.0290823
0.0267735
-0.0159085
-0.0248351
0.0215804
-0.0117044
-0.0190776
0.0148735
-0.00662871
-0.0116818
0.00660607
-0.0025601
-0.000937062
-0.00313155
-0.000288243
-0.0031929
-0.00109176
-0.00804066
-0.00236789
-0.0114009
-0.00404409
-0.0135103
-0.00603792
-0.0148287
-0.00828098
-0.0158207
-0.0107297
-0.0168158
-0.0133623
-0.0179813
-0.0161689
-0.0193648
-0.0191394
-0.0209496
-0.0222552
-0.0226907
-0.0254822
-0.0245269
-0.0287659
-0.0263803
-0.032028
-0.0281525
-0.0351642
-0.0297219
-0.0380445
-0.0309433
-0.0405169
-0.0316503
-0.0424178
-0.0316595
-0.0435836
-0.0307758
-0.0438568
-0.0288091
-0.0431013
-0.0255906
-0.0412201
-0.0209588
-0.0381973
-0.0147045
-0.00663615
-0.0341213
-0.000451637
-0.00274127
-0.00156894
-0.00692335
-0.00320514
-0.00976467
-0.00523839
-0.011477
-0.00757707
-0.01249
-0.0101653
-0.0132324
-0.0129788
-0.0140023
-0.0160134
-0.0149468
-0.0192731
-0.016105
-0.022761
-0.0174617
-0.0264727
-0.0189791
-0.0303914
-0.0206082
-0.034484
-0.0222877
-0.0386963
-0.0239402
-0.0429492
-0.0254689
-0.0471362
-0.0267563
-0.0511223
-0.0276643
-0.0547455
-0.0280363
-0.0578231
-0.0276982
-0.0601673
-0.0264649
-0.0616001
-0.0241578
-0.0619462
-0.0206127
-0.0610155
-0.0156353
-0.00897455
-0.058677
-0.000574209
-0.00216706
-0.00191639
-0.00558118
-0.00379499
-0.00788608
-0.00604923
-0.0092228
-0.00857955
-0.00995973
-0.0113367
-0.0104753
-0.0143049
-0.0110341
-0.017485
-0.0117667
-0.0208812
-0.0127088
-0.0244946
-0.0138483
-0.0283188
-0.0151548
-0.0323382
-0.0165887
-0.0365253
-0.0181007
-0.0408378
-0.0196277
-0.0452161
-0.0210907
-0.0495795
-0.0223928
-0.053824
-0.0234199
-0.0578184
-0.0240418
-0.0614022
-0.0241145
-0.0643928
-0.0234743
-0.0666111
-0.0219395
-0.0678748
-0.019349
-0.0678854
-0.0156247
-0.0106721
-0.0661879
-0.000648812
-0.00151824
-0.00212139
-0.0041086
-0.00412689
-0.00588058
-0.00647597
-0.00687372
-0.00906114
-0.00737456
-0.011834
-0.0077024
-0.0147796
-0.00808854
-0.0178946
-0.00865167
-0.0211743
-0.00942916
-0.0246056
-0.010417
-0.0281655
-0.0115948
-0.0318204
-0.0129339
-0.0355254
-0.0143957
-0.0392243
-0.0159288
-0.0428497
-0.0174653
-0.0463215
-0.018921
-0.0495458
-0.0201956
-0.0524112
-0.0211764
-0.0547841
-0.0217416
-0.0564974
-0.021761
-0.0573442
-0.0210927
-0.0571697
-0.0195235
-0.0558194
-0.016975
-0.0138895
-0.052602
-0.000673302
-0.000844943
-0.00218259
-0.00259931
-0.00420508
-0.00385809
-0.00653258
-0.00454621
-0.00904902
-0.00485812
-0.0117017
-0.00504974
-0.0144703
-0.00531996
-0.0173423
-0.00577963
-0.0202985
-0.00647299
-0.0233064
-0.00740904
-0.0263193
-0.00858195
-0.029276
-0.00997717
-0.0321024
-0.0115693
-0.0347133
-0.0133178
-0.0370151
-0.0151635
-0.0389081
-0.017028
-0.0402878
-0.0188159
-0.0410436
-0.0204207
-0.0410543
-0.0217308
-0.0401878
-0.0226274
-0.038285
-0.0229956
-0.0348542
-0.0229542
-0.0303675
-0.0214618
-0.0208152
-0.0234418
-0.000648474
-0.000196469
-0.00210302
-0.00114476
-0.00403598
-0.00192513
-0.00622814
-0.00235406
-0.00855256
-0.0025337
-0.0109454
-0.00265694
-0.0133729
-0.00289241
-0.015806
-0.00334655
-0.0182033
-0.0040757
-0.0205053
-0.00510698
-0.0226339
-0.0064534
-0.0244937
-0.00811738
-0.0259763
-0.0100867
-0.0269652
-0.0123289
-0.0273419
-0.0147868
-0.026991
-0.0173789
-0.0258047
-0.0200023
-0.0236828
-0.0225425
-0.0205326
-0.0248811
-0.0162061
-0.0269539
-0.0107555
-0.0284462
-0.00383011
-0.0298796
0.00476352
-0.0300554
-0.0311258
0.0150741
-0.000577915
0.000381446
-0.00188839
0.00016571
-0.00362545
-0.000188071
-0.00556275
-0.00041676
-0.00755805
-0.000538394
-0.00952579
-0.000689202
-0.0114051
-0.00101308
-0.0131385
-0.00161322
-0.0146474
-0.00256672
-0.0158317
-0.00392272
-0.0165702
-0.00571487
-0.0167267
-0.00796093
-0.0161585
-0.0106549
-0.0147275
-0.0137598
-0.0123086
-0.0172058
-0.00879908
-0.0208884
-0.00412235
-0.024679
0.00177974
-0.0284446
0.00891807
-0.0320194
0.0173614
-0.0353973
0.0269915
-0.0380762
0.0382543
-0.0411424
0.0502136
-0.0420147
-0.045834
0.0649218
-0.000465528
0.000846974
-0.0015555
0.00125568
-0.00298949
0.00124592
-0.00454551
0.00113925
-0.00605999
0.000976093
-0.00741408
0.000664886
-0.00849555
6.83918e-05
-0.00921998
-0.000888795
-0.00944914
-0.00233755
-0.00903444
-0.00433743
-0.00781317
-0.00693614
-0.00561895
-0.0101551
-0.00229884
-0.013975
0.0022699
-0.0183286
0.00816516
-0.023101
0.0154226
-0.0281459
0.0240239
-0.0332803
0.0339165
-0.0383373
0.0450242
-0.0431271
0.057243
-0.0476161
0.07051
-0.0513432
0.0847491
-0.0553815
0.0998059
-0.0570715
-0.0619134
0.115885
-0.00032661
0.00117358
-0.00112525
0.00205433
-0.00216426
0.00228493
-0.00322025
0.00219524
-0.00410328
0.00185913
-0.00465268
0.00121428
-0.00472084
0.000136559
-0.00413902
-0.00147062
-0.00273709
-0.00373948
-0.000326863
-0.00674766
0.00327635
-0.0105393
0.00822639
-0.0151052
0.0146256
-0.0203742
0.0225102
-0.0262132
0.0318403
-0.0324311
0.0425039
-0.0388095
0.054327
-0.0451033
0.0671019
-0.0511122
0.0806242
-0.0566494
0.0946064
-0.0615984
0.1091
-0.0658371
0.123404
-0.0696848
0.138474
-0.0721417
-0.0760956
0.152656
-0.000179475
0.00135306
-0.000652422
0.00252727
-0.00123174
0.00286425
-0.0016952
0.0026587
-0.00182531
0.00198923
-0.00141572
0.000804699
-0.000268882
-0.00101028
0.00184176
-0.00358126
0.00512582
-0.00702354
0.0097788
-0.0114006
0.0159509
-0.0167115
0.0237155
-0.0228698
0.0330442
-0.0297029
0.0437977
-0.0369667
0.0557374
-0.0443707
0.0685535
-0.0516256
0.0818934
-0.0584432
0.0954259
-0.0646448
0.10882
-0.0700435
0.121841
-0.0746189
0.134404
-0.0784002
0.146083
-0.0813638
0.157711
-0.0837702
-0.0857735
0.167389
-4.70931e-05
-0.0001961
-0.000290718
-0.000105942
0.000604767
0.00209721
0.00462714
0.00844958
0.0137842
0.0207813
0.0294749
0.0397547
0.0513623
0.063917
0.0769636
0.0900261
0.102677
0.114569
0.125459
0.135302
0.144016
0.151893
0.159146
0.165991
0.00863715
0.0114146
-0.0209888
0.0180886
0.0351298
-0.0445812
0.0284531
0.0599066
-0.0702712
0.0387697
0.0863232
-0.0966398
0.0493542
0.110319
-0.120904
0.0591012
0.130229
-0.139976
0.0670162
0.143846
-0.151761
0.0711475
0.151785
-0.155917
0.0693927
0.157374
-0.15562
0.0628379
0.16342
-0.156865
0.0569226
0.167154
-0.161239
0.0577583
0.159667
-0.160503
0.066867
0.133249
-0.142358
0.0808509
0.0877823
-0.101766
0.096323
0.0275682
-0.0430403
0.111769
-0.039503
0.0240571
0.126159
-0.101767
0.0873766
0.13819
-0.145499
0.133468
0.146305
-0.167052
0.158938
0.150766
-0.174616
0.170155
0.15396
-0.175117
0.171922
0.157025
-0.170686
0.167622
0.158429
-0.171191
0.169787
0.156715
-0.189838
0.191552
0.153075
-0.219608
0.223249
0.150996
-0.224754
0.226833
0.153265
-0.170032
0.167763
0.159564
-0.0588936
0.0525947
0.166159
0.0690443
-0.0756395
0.170051
0.175247
-0.179139
0.171737
0.23839
-0.240075
0.172443
0.257488
-0.258195
0.170355
0.263942
-0.261853
0.163834
0.292978
-0.286458
0.154302
0.329625
-0.320093
0.143722
0.324106
-0.313527
0.13292
0.246877
-0.236075
0.123557
0.10964
-0.100277
0.117822
-0.0520914
0.0578262
0.116942
-0.190736
0.191617
0.117444
-0.27886
0.278357
0.113799
-0.324491
0.328136
0.10568
-0.346864
0.354982
0.0965443
-0.334104
0.34324
0.0897715
-0.273103
0.279876
0.0883308
-0.16678
0.168221
0.0938799
-0.0448222
0.0392731
0.103647
0.0661018
-0.0758686
0.113732
0.144273
-0.154358
0.122007
0.195632
-0.203906
0.12838
0.21517
-0.221543
0.130588
0.226336
-0.228545
0.128028
0.224321
-0.221761
0.12484
0.221485
-0.218297
0.126038
0.175268
-0.176466
0.132765
0.114201
-0.120928
0.141062
0.0344394
-0.0427369
0.148429
-0.0276823
0.0203157
0.152907
-0.0690046
0.0645262
-0.111914
0.110886
-0.0233703
0.000663698
-0.0111603
0.0229197
0.00192603
0.0468203
0.0161166
0.0721326
0.0301045
0.0963312
0.0424956
0.117838
0.0521399
0.134201
0.0572792
0.146646
0.058098
0.156556
0.0577569
0.163761
0.0610822
0.163829
0.0709719
0.149777
0.085759
0.118462
0.101387
0.0721543
0.115462
0.0134936
0.127715
-0.0517567
0.13783
-0.111882
0.145415
-0.153084
0.149845
-0.171483
0.151201
-0.175972
0.151683
-0.175599
0.152599
-0.171602
0.151978
-0.170569
0.147739
-0.185599
0.141446
-0.213315
0.137714
-0.221022
0.140015
-0.172333
0.148255
-0.0671339
0.158127
0.0591727
0.16567
0.167704
0.170935
0.233125
0.174628
0.253795
0.175252
0.263319
0.171695
0.296535
0.164649
0.336671
0.154973
0.333782
0.143441
0.258409
0.131741
0.121339
0.122663
-0.0430125
0.118494
-0.186568
0.117305
-0.277671
0.113163
-0.320349
0.104855
-0.338555
0.0961555
-0.325405
0.0904938
-0.267442
0.0900874
-0.166374
0.0959641
-0.0506989
0.10535
0.0567163
0.114989
0.134634
0.123273
0.187347
0.1294
0.209043
0.130663
0.225073
0.127234
0.227751
0.124109
0.22461
0.126082
0.173295
0.133631
0.106651
0.142376
0.0256951
0.149873
-0.0351794
0.154276
-0.0734075
-0.112823
-0.0486403
-0.00937309
-0.0359489
0.0102284
-0.0217922
0.0326636
-0.0066002
0.0569406
0.00915584
0.0805751
0.0239162
0.103078
0.0361125
0.122005
0.0451785
0.13758
0.0522841
0.14945
0.0603894
0.155655
0.0725379
0.151681
0.0891386
0.133177
0.106897
0.100703
0.12197
0.0570818
0.133397
0.00206632
0.142232
-0.0605917
0.148414
-0.118063
0.151854
-0.156524
0.152779
-0.172408
0.151322
-0.174515
0.149208
-0.173484
0.148041
-0.170436
0.145782
-0.168309
0.139535
-0.179352
0.13074
-0.20452
0.12525
-0.215532
0.127651
-0.174734
0.137186
-0.0766687
0.149897
0.0464615
0.161038
0.156562
0.169809
0.224354
0.176515
0.247089
0.180053
0.25978
0.179693
0.296896
0.175398
0.340965
0.16687
0.342311
0.154618
0.270662
0.140662
0.135295
0.128373
-0.0307239
0.120836
-0.179031
0.117705
-0.274539
0.11312
-0.315765
0.104652
-0.330087
0.0961454
-0.316898
0.0913415
-0.262638
0.0917856
-0.166818
0.0978196
-0.0567329
0.10683
0.0477056
0.116238
0.125226
0.124624
0.178962
0.13037
0.203296
0.130626
0.224818
0.126434
0.231943
0.123498
0.227546
0.126255
0.170538
0.134559
0.098347
0.143687
0.0165679
0.151294
-0.0427864
0.155633
-0.0777474
-0.11364
-0.0594771
-0.0160838
-0.0488774
-0.000371357
-0.0362544
0.0200407
-0.0213741
0.0420603
-0.0057267
0.0649278
0.0105959
0.0867552
0.0261017
0.106499
0.0404342
0.123248
0.0545153
0.135369
0.0700764
0.140094
0.088475
0.133282
0.108759
0.112893
0.127204
0.0822587
0.140583
0.0437029
0.149279
-0.00663016
0.155215
-0.0665272
0.15811
-0.120959
0.1577
-0.156115
0.155147
-0.169855
0.151156
-0.170524
0.146701
-0.169029
0.143491
-0.167225
0.139891
-0.16471
0.132304
-0.171765
0.121478
-0.193694
0.113931
-0.207986
0.115792
-0.176595
0.126512
-0.0873893
0.141476
0.0314977
0.155777
0.142262
0.167947
0.212184
0.177697
0.237339
0.184303
0.253173
0.187362
0.293837
0.185897
0.342431
0.178607
0.3496
0.165832
0.283437
0.149967
0.15116
0.134807
-0.0155641
0.123944
-0.168168
0.11859
-0.269185
0.113555
-0.31073
0.105043
-0.321574
0.096471
-0.308326
0.0921905
-0.258357
0.0932823
-0.16791
0.0993679
-0.0628185
0.108095
0.0389783
0.117497
0.115824
0.126021
0.170438
0.131267
0.19805
0.130504
0.225581
0.125673
0.236774
0.123022
0.230196
0.126543
0.167017
0.135518
0.0893722
0.144961
0.00712482
0.152667
-0.050492
0.156965
-0.0820459
-0.114397
-0.049803
-0.0188828
-0.0434053
-0.00676909
-0.033716
0.0103514
-0.0210845
0.0294288
-0.00662803
0.0504713
0.0102466
0.0698805
0.028038
0.0887077
0.0463337
0.104952
0.0651617
0.116541
0.0850122
0.120244
0.106132
0.112162
0.127025
0.0919994
0.144371
0.0649125
0.156151
0.0319235
0.163258
-0.0137374
0.166793
-0.0700619
0.166438
-0.120604
0.162291
-0.151968
0.156506
-0.16407
0.150377
-0.164395
0.144083
-0.162735
0.139038
-0.16218
0.134476
-0.160148
0.126216
-0.163505
0.113772
-0.18125
0.10389
-0.198103
0.104324
-0.177029
0.115438
-0.0985028
0.132324
0.0146113
0.149604
0.124982
0.16502
0.196767
0.177697
0.224662
0.187453
0.243418
0.194114
0.287176
0.195954
0.34059
0.190573
0.354981
0.177518
0.296491
0.159701
0.168977
0.141827
0.00231031
0.12778
-0.154122
0.119953
-0.261358
0.114321
-0.305097
0.105929
-0.313182
0.0971228
-0.29952
0.0929233
-0.254158
0.0944023
-0.169389
0.100527
-0.0689432
0.10916
0.0303454
0.118763
0.106221
0.12742
0.16178
0.132076
0.193394
0.13033
0.227326
0.124988
0.242117
0.122692
0.232492
0.126924
0.162784
0.136475
0.0798217
0.146173
-0.00257372
0.153974
-0.0582926
0.15826
-0.086332
-0.115132
-0.0228583
-0.0194662
-0.01978
-0.00984742
-0.0130646
0.00363601
-0.0037293
0.0200936
0.00962993
0.037112
0.0254125
0.054098
0.0432406
0.0708796
0.0626351
0.0855575
0.0829845
0.0961914
0.103763
0.0994658
0.12442
0.091505
0.143276
0.0731429
0.157977
0.0502115
0.167972
0.0219286
0.174111
-0.0198768
0.175948
-0.0718983
0.172791
-0.117447
0.165548
-0.144725
0.157017
-0.155539
0.14916
-0.156538
0.141571
-0.155146
0.1349
-0.155509
0.129457
-0.154704
0.121324
-0.155372
0.108118
-0.168044
0.0957501
-0.185736
0.0937352
-0.175014
0.104288
-0.109056
0.122568
-0.00366806
0.142445
0.105104
0.160731
0.178482
0.17617
0.209222
0.189033
0.230556
0.199279
0.27693
0.204412
0.335457
0.201085
0.358308
0.188519
0.309057
0.169394
0.188102
0.149033
0.0226713
0.132166
-0.137255
0.12174
-0.250931
0.115289
-0.298647
0.107184
-0.305078
0.0981319
-0.290468
0.0935524
-0.249578
0.0950856
-0.170922
0.101276
-0.0751338
0.110051
0.0215707
0.120024
0.0962481
0.128784
0.153021
0.1328
0.189378
0.130142
0.229984
0.124412
0.247847
0.122508
0.234396
0.127373
0.15792
0.137395
0.0698
0.147307
-0.0124858
0.155201
-0.0661873
0.159509
-0.09064
-0.115881
0.0137201
-0.0181123
0.0145224
-0.0106497
0.0190585
-0.000900104
0.026695
0.0124571
0.0373558
0.0264512
0.0507904
0.0406633
0.066797
0.054873
0.0849484
0.067406
0.104293
0.076847
0.123613
0.0801462
0.141741
0.0733761
0.157105
0.0577797
0.168689
0.0386272
0.177129
0.0134887
0.182504
-0.025252
0.182656
-0.0720502
0.176888
-0.111679
0.167131
-0.134968
0.156452
-0.14486
0.147219
-0.147305
0.138921
-0.146848
0.131156
-0.147744
0.124833
-0.148381
0.117182
-0.147722
0.104255
-0.155117
0.089874
-0.171355
0.0845931
-0.169733
0.0935958
-0.118059
0.112269
-0.0223413
0.13437
0.0830036
0.155197
0.157655
0.173066
0.191353
0.188737
0.214884
0.202659
0.263009
0.211627
0.32649
0.21117
0.358765
0.199724
0.320503
0.179752
0.208074
0.156627
0.0457967
0.137039
-0.117666
0.123916
-0.237809
0.116348
-0.291078
0.108613
-0.297342
0.0995039
-0.281359
0.0942247
-0.244299
0.0954188
-0.172116
0.10167
-0.0813846
0.110793
0.0124474
0.121241
0.0858003
0.130065
0.144197
0.133438
0.186005
0.12997
0.233451
0.123968
0.253849
0.122465
0.235899
0.127866
0.152519
0.138259
0.0594068
0.148347
-0.022573
0.156344
-0.0741845
0.16071
-0.0950064
-0.116682
0.059768
-0.0129585
0.0566773
-0.00755902
0.0566128
-0.000835556
0.0600498
0.00902008
0.0670936
0.0194075
0.0772565
0.0305004
0.0903692
0.0417603
0.105983
0.0517921
0.123083
0.0597474
0.140084
0.0631447
0.155331
0.0581296
0.167568
0.0455419
0.177026
0.0291694
0.184616
0.0058991
0.189015
-0.0296512
0.1871
-0.0701356
0.178733
-0.103311
0.166989
-0.123224
0.154905
-0.132776
0.144648
-0.137048
0.136006
-0.138207
0.127671
-0.139409
0.12063
-0.14134
0.113628
-0.140719
0.101971
-0.14346
0.0865807
-0.155965
0.0776503
-0.160803
0.083736
-0.124144
0.101903
-0.0405086
0.125464
0.0594433
0.148217
0.134901
0.168098
0.171472
0.186352
0.19663
0.203481
0.24588
0.215848
0.314122
0.218266
0.356347
0.208492
0.330277
0.188756
0.227809
0.16431
0.0702434
0.142138
-0.0954952
0.126369
-0.22204
0.117447
-0.282156
0.110041
-0.289936
0.101172
-0.27249
0.0951197
-0.238247
0.0956004
-0.172597
0.10181
-0.0875944
0.111393
0.0028647
0.122371
0.0748224
0.131243
0.135325
0.134018
0.18323
0.129855
0.237614
0.123676
0.260028
0.122555
0.23702
0.128386
0.146688
0.139058
0.048735
0.14929
-0.0328052
0.157401
-0.0822961
0.161862
-0.099467
-0.117572
0.108792
-0.0058655
0.103388
-0.00215471
0.0994886
0.00306394
0.0985078
0.0100009
0.100451
0.0174642
0.10583
0.0251218
0.114396
0.0331935
0.125817
0.0403718
0.139358
0.0462066
0.153499
0.0490038
0.166256
0.0453721
0.176442
0.0353563
0.1846
0.0210109
0.191271
-0.000771519
0.193615
-0.0319953
0.188986
-0.0655069
0.17822
-0.0925454
0.165109
-0.110112
0.152379
-0.120046
0.141488
-0.126157
0.132716
-0.129435
0.124333
-0.131025
0.116643
-0.133651
0.110157
-0.134232
0.100476
-0.133779
0.0855745
-0.141063
0.0734753
-0.148704
0.0754246
-0.126094
0.0919731
-0.057057
0.116125
0.0352908
0.140282
0.110745
0.161723
0.150031
0.181941
0.176412
0.202257
0.225564
0.218853
0.297526
0.224867
0.350334
0.21698
0.338164
0.197397
0.247392
0.171464
0.0961763
0.147134
-0.0711652
0.128948
-0.203854
0.118511
-0.271719
0.111292
-0.282717
0.102962
-0.26416
0.0963378
-0.231623
0.0958718
-0.172131
0.101842
-0.0935641
0.111871
-0.00716492
0.123368
0.0633258
0.132263
0.12643
0.134515
0.180978
0.1298
0.242329
0.123535
0.266293
0.122761
0.237794
0.12892
0.14053
0.13979
0.0378647
0.150143
-0.0431588
0.158381
-0.0905337
0.162968
-0.104054
-0.118586
0.147302
-0.000511425
0.142577
0.00257073
0.138982
0.00665878
0.136998
0.011985
0.136777
0.0176851
0.138724
0.0231749
0.143088
0.0288288
0.149773
0.0336871
0.158576
0.0374033
0.16866
0.0389206
0.178205
0.0358265
0.186014
0.0275476
0.192454
0.0145706
0.196569
-0.00488659
0.195472
-0.0308977
0.187799
-0.057834
0.175264
-0.0800112
0.161529
-0.0963766
0.148857
-0.107374
0.137744
-0.115045
0.128852
-0.120543
0.120842
-0.123016
0.112835
-0.125643
0.106418
-0.127815
0.0989526
-0.126314
0.0860406
-0.128151
0.0722463
-0.134909
0.0695837
-0.123431
0.0829314
-0.0704047
0.1063
0.011922
0.131096
0.0859488
0.153513
0.127615
0.175087
0.154838
0.197537
0.203113
0.217146
0.277917
0.227058
0.340422
0.222566
0.342656
0.204197
0.265761
0.1779
0.122473
0.151925
-0.0451898
0.131479
-0.183408
0.119399
-0.259639
0.112179
-0.275497
0.10461
-0.256591
0.0978076
-0.224821
0.096407
-0.17073
0.101919
-0.0990757
0.112233
-0.0174791
0.124181
0.0513777
0.133141
0.11747
0.135018
0.179101
0.129877
0.24747
0.123563
0.272607
0.123076
0.238281
0.129468
0.134138
0.140464
0.0268688
0.15092
-0.0536145
0.159292
-0.0989057
0.164032
-0.108794
-0.119756
0.16379
0.00308716
0.161408
0.00495264
0.160002
0.00806478
0.159938
0.0120492
0.161067
0.0165561
0.163024
0.0212185
0.166446
0.0254067
0.171177
0.028956
0.177048
0.0315326
0.183636
0.0323325
0.189773
0.0296891
0.194402
0.0229187
0.197243
0.0117298
0.197454
-0.00509762
0.192706
-0.0261498
0.182777
-0.047905
0.169714
-0.0669487
0.156214
-0.0828764
0.144137
-0.0952968
0.133287
-0.104195
0.124258
-0.111514
0.116795
-0.115553
0.108998
-0.117846
0.102325
-0.121143
0.0966087
-0.120597
0.0868063
-0.118349
0.0734576
-0.121561
0.0669066
-0.11688
0.0758189
-0.0793171
0.0974628
-0.00972188
0.122152
0.0612594
0.144942
0.104825
0.16737
0.132409
0.192003
0.17848
0.215504
0.254416
0.229193
0.326733
0.226833
0.345016
0.209337
0.283257
0.182957
0.148853
0.155772
-0.0180054
0.133761
-0.161397
0.12013
-0.246009
0.112727
-0.268093
0.105988
-0.249852
0.0993983
-0.218231
0.0972699
-0.168602
0.102159
-0.103964
0.112556
-0.0278765
0.124827
0.0391064
0.133816
0.108481
0.135368
0.177549
0.129963
0.252875
0.123718
0.278852
0.123483
0.238515
0.13004
0.127581
0.141097
0.0158117
0.151638
-0.0641552
0.160148
-0.107415
0.165062
-0.113708
-0.121108
0.164397
0.00468069
0.162937
0.00641302
0.162369
0.00863275
0.16304
0.0113781
0.164946
0.0146506
0.168053
0.018111
0.17204
0.0214199
0.176698
0.0242977
0.181887
0.0263441
0.187158
0.0270615
0.191667
0.0251803
0.194609
0.0199768
0.195666
0.010672
0.193359
-0.00279014
0.186553
-0.0193443
0.176148
-0.0374998
0.163826
-0.0546269
0.151098
-0.0701485
0.139657
-0.083855
0.129309
-0.0938465
0.120101
-0.102307
0.112966
-0.108417
0.105821
-0.110701
0.0987887
-0.11411
0.0939106
-0.115719
0.0872559
-0.111694
0.0761105
-0.110415
0.0677001
-0.10847
0.0718469
-0.0834639
0.0885443
-0.0264192
0.111573
0.0382311
0.133924
0.0824742
0.155906
0.110427
0.180716
0.15367
0.206619
0.228514
0.225444
0.307908
0.229093
0.341367
0.21491
0.297439
0.18863
0.175134
0.160512
0.0101127
0.136653
-0.137537
0.1214
-0.230756
0.113528
-0.260221
0.107399
-0.243723
0.101153
-0.211984
0.098501
-0.16595
0.102717
-0.10818
0.11286
-0.0380195
0.125224
0.0267424
0.134317
0.0993882
0.135889
0.175976
0.130376
0.258388
0.124066
0.285162
0.123971
0.238609
0.130672
0.12088
0.141724
0.00476008
0.152326
-0.0747576
0.160965
-0.116054
0.166064
-0.118807
-0.122671
0.182894
0.00685178
-0.185065
0.181402
0.00790502
0.180471
0.00956333
0.18017
0.0116793
0.180626
0.0141942
0.181856
0.0168809
0.18384
0.0194357
0.186669
0.0214688
0.190388
0.0226255
0.19502
0.0224294
0.200312
0.0198887
0.20565
0.0146387
0.210156
0.00616601
0.212998
-0.00563231
0.213111
-0.0194577
0.210429
-0.0348172
0.205664
-0.0498624
0.199142
-0.0636264
0.191753
-0.0764663
0.183839
-0.0859323
0.175081
-0.0935483
0.166851
-0.100188
0.158633
-0.102483
0.149239
-0.104716
0.140923
-0.107402
0.132684
-0.103456
0.119949
-0.0976802
0.103952
-0.092473
0.0925017
-0.0720132
0.0919441
-0.0258617
0.101195
0.0289798
0.115438
0.0682317
0.130164
0.0957011
0.144213
0.13962
0.158016
0.214711
0.170536
0.295388
0.17905
0.332854
0.181555
0.294934
0.179545
0.177144
0.173831
0.015826
0.16587
-0.129576
0.155703
-0.220589
0.145622
-0.250141
0.13456
-0.232662
0.122163
-0.199587
0.112221
-0.156007
0.108956
-0.104915
0.11278
-0.0418435
0.119478
0.0200437
0.123303
0.0955636
0.120652
0.178627
0.113675
0.265365
0.109399
0.289438
0.11316
0.234849
0.122678
0.111362
0.134158
-0.00671928
0.143484
-0.0840842
0.149941
-0.122511
0.152826
-0.121692
-0.122335
0.193858
0.00837384
-0.19538
0.192778
0.00898479
0.192181
0.0101598
0.192146
0.0117145
0.192803
0.0135373
0.194255
0.0154292
0.196517
0.0171739
0.199567
0.0184181
0.203362
0.0188303
0.207719
0.0180727
0.212248
0.01536
0.216453
0.0104338
0.219685
0.00293381
0.221207
-0.00715426
0.220597
-0.0188476
0.21772
-0.0319405
0.213055
-0.0451977
0.206731
-0.0573019
0.199198
-0.0689336
0.191248
-0.0779824
0.182639
-0.0849393
0.174192
-0.0917405
0.166208
-0.0945001
0.157119
-0.0956263
0.148129
-0.0984127
0.139726
-0.0950521
0.128405
-0.0863597
0.114234
-0.0783021
0.10357
-0.0613494
0.102413
-0.0247042
0.111199
0.0201937
0.124731
0.0547001
0.138829
0.0816028
0.152814
0.125636
0.167582
0.199943
0.182021
0.280949
0.192469
0.322406
0.19554
0.291863
0.193638
0.179046
0.189005
0.0204589
0.180132
-0.120703
0.168524
-0.208981
0.157238
-0.238855
0.145507
-0.220931
0.132825
-0.186905
0.122669
-0.145852
0.119291
-0.101537
0.123086
-0.045639
0.129621
0.0135085
0.132692
0.0924932
0.128906
0.182413
0.121217
0.273054
0.117153
0.293502
0.121691
0.230311
0.131961
0.101092
0.144026
-0.0187844
0.153577
-0.093635
0.160048
-0.128981
0.162819
-0.124463
-0.12181
0.205832
0.00954104
-0.206999
0.204907
0.00990923
0.204402
0.0106647
0.20444
0.011677
0.205107
0.0128701
0.206479
0.014057
0.208579