/*--------------------------------*- C++ -*----------------------------------*\
| =========                 |                                                 |
| \\      /  F ield         | OpenFOAM: The Open Source CFD Toolbox           |
|  \\    /   O peration     | Version:  2312                                  |
|   \\  /    A nd           | Website:  www.openfoam.com                      |
|    \\/     M anipulation  |                                                 |
\*---------------------------------------------------------------------------*/
FoamFile
{
    version     2.0;
    format      ascii;
    arch        "LSB;label=32;scalar=64";
    class       volVectorField;
    location    "46.5";
    object      U;
}
// * * * * * * * * * * * * * * * * * * * * * * * * * * * * * * * * * * * * * //

dimensions      [0 1 -1 0 0 0 0];

internalField   nonuniform List<vector> 
32230
(
(-0.0116403 0.0103812 6.07837e-20)
(-0.0292258 0.0261086 -1.22692e-19)
(-0.0406919 0.0376859 0)
(-0.045182 0.0460419 -1.67e-19)
(-0.0422408 0.0517549 5.31118e-20)
(-0.0315559 0.0551942 -5.05636e-20)
(-0.0128276 0.056671 9.56794e-20)
(0.0142826 0.0564882 -4.60956e-22)
(0.0501794 0.0549634 4.31235e-20)
(0.0953192 0.052429 -1.65694e-19)
(0.150143 0.0492182 -7.89848e-20)
(0.214954 0.0456418 0)
(0.289758 0.0419658 1.43932e-19)
(0.374089 0.0383904 -2.75534e-19)
(0.466869 0.0350331 1.98084e-19)
(0.566327 0.0319192 -2.53373e-19)
(0.670027 0.0289811 -6.10743e-20)
(0.774986 0.0260686 1.16535e-19)
(0.877906 0.0229709 1.12074e-19)
(0.975455 0.019447 -1.07241e-19)
(1.06457 0.0152623 0)
(1.14276 0.0102254 -9.7706e-20)
(1.20832 0.00421736 4.75982e-20)
(1.26045 -0.00279067 0)
(1.2993 -0.0107355 0)
(1.32586 -0.019474 -3.87045e-20)
(1.34174 -0.0288098 -1.47193e-19)
(1.3489 -0.0385157 1.4096e-19)
(1.34934 -0.0483768 6.36934e-20)
(1.3449 -0.0581712 5.93835e-20)
(1.33704 -0.0677884 0)
(1.32689 -0.0769259 0)
(1.31505 -0.0860535 9.54817e-20)
(1.30231 -0.0934857 -1.35187e-19)
(1.28765 -0.104174 8.05731e-20)
(1.27348 -0.105776 -1.50538e-19)
(1.25369 -0.129346 7.04601e-20)
(-0.0129645 0.0105998 2.16213e-22)
(-0.0309343 0.0251542 6.13722e-20)
(-0.0411441 0.0346051 -5.83189e-20)
(-0.0429781 0.040452 8.76746e-23)
(-0.036033 0.0436463 1.06407e-19)
(-0.0199366 0.0448157 2.02379e-19)
(0.00576123 0.0444483 -2.41001e-19)
(0.0415764 0.0429596 9.18582e-20)
(0.0880452 0.0407329 2.53946e-22)
(0.145626 0.0381323 8.27881e-20)
(0.214545 0.0354931 -4.18902e-22)
(0.294609 0.0331008 7.56655e-20)
(0.385014 0.0311654 -2.16386e-19)
(0.484205 0.0297975 6.89925e-20)
(0.58983 0.0289913 2.63798e-19)
(0.698832 0.0286214 0)
(0.807659 0.0284551 6.05902e-20)
(0.912578 0.0281832 0)
(1.01004 0.0274627 0)
(1.09703 0.0259671 0)
(1.17136 0.0234337 -5.03777e-20)
(1.23182 0.0196997 1.90591e-19)
(1.27828 0.0147197 -1.79216e-19)
(1.31153 0.00856332 1.19752e-21)
(1.33311 0.00139408 2.80285e-19)
(1.34502 -0.00656241 -1.51284e-19)
(1.34938 -0.0150557 -1.40498e-19)
(1.34817 -0.0238365 2.65906e-19)
(1.34305 -0.0326926 -2.50195e-19)
(1.33529 -0.0414223 1.1126e-19)
(1.32574 -0.0499251 -1.09221e-19)
(1.31497 -0.0580043 -4.873e-20)
(1.30326 -0.0657571 0)
(1.2908 -0.07274 1.2698e-19)
(1.27763 -0.079813 -1.56205e-19)
(1.26388 -0.083664 1.08159e-19)
(1.24894 -0.0936776 -3.19929e-20)
(-0.0142935 0.0108026 -1.22983e-19)
(-0.0322475 0.0243413 0)
(-0.0403241 0.0320371 -1.76793e-19)
(-0.038222 0.0358379 1.68812e-19)
(-0.0256152 0.0370184 2.14028e-19)
(-0.00208123 0.036455 -1.01779e-19)
(0.0329289 0.0348068 -3.60576e-22)
(0.0799988 0.0326057 4.5668e-20)
(0.139601 0.0303065 -8.51362e-23)
(0.2119 0.0283027 -8.36483e-20)
(0.296519 0.0269166 -1.28389e-22)
(0.392327 0.0263728 7.60386e-20)
(0.497291 0.0267695 -7.27339e-20)
(0.608471 0.0280564 6.90235e-20)
(0.722179 0.0300306 -2.63797e-19)
(0.834291 0.0323564 0)
(0.940668 0.0346092 1.79682e-19)
(1.0376 0.036337 -1.14663e-19)
(1.12219 0.0371264 -5.44641e-20)
(1.19263 0.0366612 5.26038e-20)
(1.24828 0.0347615 -1.12662e-21)
(1.28965 0.0313957 0)
(1.31815 0.026667 1.33248e-21)
(1.33577 0.020779 8.17349e-20)
(1.34477 0.0139926 -1.55842e-19)
(1.34731 0.00658331 1.39749e-21)
(1.34526 -0.00119166 0)
(1.34008 -0.00911113 0)
(1.33281 -0.0170015 6.07046e-20)
(1.32414 -0.0247095 -5.65315e-20)
(1.31446 -0.0321777 -1.00988e-19)
(1.30406 -0.0391641 1.45437e-19)
(1.29297 -0.0460037 0)
(1.28155 -0.0515535 3.97289e-20)
(1.26927 -0.0581975 3.64373e-20)
(1.25715 -0.0603226 -4.53189e-21)
(1.2435 -0.0701797 -6.29228e-20)
(-0.0154332 0.0108353 6.17075e-20)
(-0.0327023 0.0233308 6.27424e-20)
(-0.0375715 0.0295503 0)
(-0.0300721 0.0317386 -1.13159e-19)
(-0.00998999 0.0314338 5.44224e-20)
(0.0231025 0.0297293 4.5189e-22)
(0.0697464 0.0274419 4.86208e-20)
(0.130399 0.0252119 4.62386e-20)
(0.205172 0.0235539 8.85027e-20)
(0.293544 0.0228671 -8.42534e-20)
(0.394094 0.0234152 -8.033e-20)
(0.504341 0.0252954 0)
(0.620763 0.0284125 -3.27066e-22)
(0.739033 0.0324771 6.923e-20)
(0.854446 0.0370368 6.58689e-20)
(0.96246 0.0415397 1.24951e-19)
(1.05922 0.0454186 -1.79314e-19)
(1.14198 0.0481763 -5.61914e-20)
(1.20931 0.0494546 -5.39939e-20)
(1.26115 0.0490719 5.11831e-20)
(1.29857 0.0470247 -4.84267e-20)
(1.32348 0.0434592 -4.45273e-20)
(1.33821 0.038621 4.30995e-20)
(1.34514 0.0328021 7.8948e-20)
(1.34641 0.0262939 -3.75176e-20)
(1.34377 0.0193567 1.39684e-19)
(1.3385 0.0122052 -1.64707e-19)
(1.33149 0.00500819 -1.20565e-19)
(1.32332 -0.00210276 5.91055e-20)
(1.31432 -0.00902598 1.59448e-19)
(1.30473 -0.0156743 0)
(1.29465 -0.0219603 4.46844e-20)
(1.28418 -0.0278853 0)
(1.27341 -0.0330543 -3.97031e-20)
(1.26225 -0.0385188 3.6545e-20)
(1.2512 -0.0408057 -6.58401e-20)
(1.23925 -0.0494234 -5.78673e-20)
(-0.0162007 0.0105846 6.25984e-20)
(-0.0318516 0.0218543 -1.25793e-19)
(-0.0322539 0.0267674 1.19959e-19)
(-0.0177746 0.0277212 -1.14666e-19)
(0.0116655 0.0264539 0)
(0.0564053 0.0242362 -5.15498e-20)
(0.116802 0.0220198 0)
(0.192902 0.020532 4.70729e-20)
(0.284071 0.0203137 -8.90916e-20)
(0.38865 0.0217126 4.25499e-20)
(0.503749 0.0248522 8.02757e-20)
(0.625274 0.0296039 0)
(0.748235 0.035589 1.45716e-19)
(0.867307 0.0422263 -6.91819e-20)
(0.977496 0.0488219 0)
(1.07477 0.0546827 6.21397e-20)
(1.1565 0.0592246 0)
(1.22163 0.0620514 1.67031e-19)
(1.27058 0.062988 -1.58329e-19)
(1.30496 0.0620681 4.91599e-20)
(1.32708 0.0594863 0)
(1.33953 0.0555331 1.74862e-19)
(1.3448 0.0505319 -8.32715e-20)
(1.34501 0.0447905 -1.1449e-19)
(1.34182 0.0385731 1.08773e-19)
(1.3364 0.0320914 3.44027e-20)
(1.32957 0.025508 3.21393e-20)
(1.3218 0.0189477 8.71496e-20)
(1.31341 0.012505 -2.74981e-19)
(1.30456 0.00626579 1.51781e-19)
(1.29535 0.000277261 -4.94843e-20)
(1.28585 -0.00534403 -1.33748e-19)
(1.27607 -0.0106912 0)
(1.26614 -0.0153144 3.67543e-20)
(1.25592 -0.0202347 0)
(1.24581 -0.0226375 3.22972e-20)
(1.23508 -0.0301006 5.83686e-20)
(-0.0164379 0.00999111 6.33556e-20)
(-0.0293005 0.0197463 -1.27512e-19)
(-0.0238065 0.0234413 -2.95061e-22)
(-0.000662602 0.0235042 1.15402e-19)
(0.0400262 0.0218041 -5.49552e-20)
(0.0983703 0.0197523 0)
(0.174287 0.0184013 0)
(0.26704 0.018518 -4.70483e-20)
(0.374783 0.0205967 4.47306e-20)
(0.494273 0.0248305 3.84096e-22)
(0.620861 0.0310805 8.08756e-20)
(0.748865 0.0388833 -7.73309e-20)
(0.872263 0.0475183 -1.45714e-19)
(0.985525 0.0561332 -1.37417e-19)
(1.08436 0.0638936 2.62035e-19)
(1.16618 0.0701207 -1.86712e-19)
(1.23024 0.0743796 -5.80914e-20)
(1.2774 0.0765066 0)
(1.30972 0.0765783 2.0616e-19)
(1.32989 0.0748431 -1.95507e-19)
(1.34072 0.0716394 0)
(1.34481 0.0673246 4.13328e-20)
(1.34427 0.0622247 -1.80185e-21)
(1.3407 0.0566104 -7.48035e-20)
(1.33521 0.0506916 -3.55956e-20)
(1.32853 0.044626 0)
(1.32109 0.0385307 0)
(1.31314 0.0324945 2.89112e-20)
(1.30482 0.026589 -1.30144e-19)
(1.29621 0.0208714 9.97523e-20)
(1.28736 0.0153955 1.80846e-19)
(1.27829 0.0102144 -8.58768e-20)
(1.26904 0.00532348 0)
(1.2597 0.000964201 -3.67384e-20)
(1.25019 -0.00354533 0)
(1.24081 -0.00601261 3.01763e-20)
(1.23107 -0.0127416 -2.86818e-20)
(-0.0160155 0.00905471 -6.43252e-20)
(-0.0246928 0.0169779 0)
(-0.0117181 0.0195163 -8.41099e-22)
(0.0218617 0.0190367 5.89474e-20)
(0.0756607 0.0174804 -3.41378e-22)
(0.149349 0.0163543 -5.96734e-22)
(0.242055 0.0167533 -2.01168e-19)
(0.351793 0.0193956 4.78014e-20)
(0.475029 0.024603 0)
(0.606595 0.0322654 8.62144e-20)
(0.740087 0.0418495 -7.09932e-22)
(0.868688 0.0524896 -3.89938e-20)
(0.986194 0.0631554 -7.27862e-20)
(1.08791 0.0728504 3.5566e-20)
(1.17118 0.080784 6.5702e-20)
(1.23545 0.0864747 0)
(1.28197 0.0897681 5.80711e-20)
(1.31319 0.0907859 0)
(1.33214 0.0898334 -8.76557e-22)
(1.34187 0.0873015 4.81512e-20)
(1.34507 0.083586 -8.82734e-20)
(1.34392 0.0790363 8.4493e-20)
(1.33999 0.073934 0)
(1.33434 0.0684919 9.93909e-22)
(1.32767 0.0628653 0)
(1.32037 0.0571668 0)
(1.31267 0.0514796 0)
(1.30469 0.0458686 0)
(1.2965 0.0403864 -7.46981e-20)
(1.28812 0.0350812 9.64368e-20)
(1.2796 0.0299907 4.18293e-20)
(1.27097 0.0251644 -8.29694e-20)
(1.26223 0.0205969 0)
(1.25347 0.016457 0)
(1.24463 0.0122743 0)
(1.23591 0.00965812 -8.83955e-20)
(1.22697 0.00359898 5.57683e-20)
(-0.0148304 0.00781633 5.80481e-22)
(-0.0177078 0.013639 -6.54422e-20)
(0.00449267 0.0151306 6.2266e-20)
(0.0503474 0.0145246 1.18531e-21)
(0.11903 0.01378 1.20209e-22)
(0.20946 0.0144364 1.075e-19)
(0.31953 0.0175324 0)
(0.445492 0.0235929 9.66768e-20)
(0.581725 0.032592 0)
(0.721089 0.0439564 -4.32623e-20)
(0.855862 0.0566753 0)
(0.978979 0.0695178 -3.8776e-20)
(1.08514 0.0812924 0)
(1.17142 0.0910674 3.45388e-20)
(1.23736 0.0982935 0)
(1.28447 0.102816 6.05815e-20)
(1.31556 0.104799 -5.67099e-20)
(1.33401 0.10461 -5.30387e-20)
(1.34312 0.102699 -5.04273e-20)
(1.34575 0.0995092 -9.23891e-20)
(1.34413 0.0954234 8.84248e-20)
(1.33988 0.0907418 -4.03248e-20)
(1.33407 0.0856859 7.51449e-20)
(1.32736 0.0804132 -1.41066e-19)
(1.32013 0.0750343 9.97086e-20)
(1.31259 0.0696286 0)
(1.30485 0.0642565 2.8254e-20)
(1.29696 0.0589665 0)
(1.28894 0.0538007 0)
(1.28083 0.0487958 0)
(1.27263 0.0439864 8.38135e-20)
(1.26436 0.0394039 -8.02878e-20)
(1.25606 0.0350609 0)
(1.24776 0.0310562 0)
(1.23944 0.0270847 3.06844e-20)
(1.23124 0.0243335 5.64179e-20)
(1.22295 0.0188363 -2.7942e-20)
(-0.0127807 0.00634255 -1.32912e-19)
(-0.00803987 0.00991505 -4.45538e-22)
(0.0252756 0.0105875 1.27163e-19)
(0.0852647 0.010396 -1.8026e-19)
(0.170408 0.0112511 -2.82051e-22)
(0.27846 0.0146261 -5.47548e-20)
(0.405545 0.02135 -5.19441e-20)
(0.545695 0.031557 -4.52244e-22)
(0.691064 0.0446822 -1.85288e-19)
(0.832922 0.0595814 2.19241e-19)
(0.963123 0.0747982 -8.32798e-20)
(1.07548 0.0889005 0)
(1.16657 0.100767 -1.09213e-19)
(1.23579 0.109745 1.37502e-19)
(1.28484 0.115657 -9.72031e-20)
(1.31685 0.118704 -6.05749e-20)
(1.33553 0.11932 5.67047e-20)
(1.3445 0.118025 1.05286e-19)
(1.34682 0.115324 0)
(1.34487 0.111644 4.54258e-20)
(1.34034 0.107314 4.233e-20)
(1.33431 0.102573 8.92182e-22)
(1.32748 0.0975836 -7.3295e-20)
(1.3202 0.0924591 3.69711e-20)
(1.31269 0.0872771 3.26954e-20)
(1.30505 0.0820946 8.85912e-20)
(1.29731 0.076957 -8.47874e-20)
(1.2895 0.0719026 2.54506e-20)
(1.28164 0.0669652 -4.87919e-20)
(1.27373 0.0621759 0)
(1.2658 0.0575626 -6.08763e-20)
(1.25786 0.0531515 7.77876e-20)
(1.24994 0.0489597 -1.74113e-20)
(1.24206 0.0450427 0)
(1.23422 0.0412256 -3.06812e-20)
(1.2265 0.0383305 0)
(1.21875 0.033273 -7.63777e-20)
(-0.00975509 0.00471466 6.71456e-20)
(0.0046097 0.00605578 -4.06792e-22)
(0.0510266 0.00630778 7.57872e-22)
(0.126934 0.00723025 0)
(0.22976 0.0105877 1.15613e-19)
(0.355573 0.0176368 -6.25343e-22)
(0.498214 0.0287867 -7.69222e-22)
(0.649238 0.0435587 1.47761e-19)
(0.798852 0.0607063 -9.41976e-20)
(0.937594 0.0785266 -4.40015e-20)
(1.05805 0.0952876 -4.16763e-20)
(1.15594 0.109608 1.16392e-19)
(1.23029 0.12067 -1.09724e-19)
(1.28281 0.128236 6.92377e-20)
(1.31689 0.132531 6.39369e-20)
(1.33662 0.134056 0)
(1.34596 0.133417 0)
(1.34827 0.131196 -7.79913e-20)
(1.34613 0.127881 9.53585e-20)
(1.34134 0.123844 -1.36687e-19)
(1.33509 0.119348 -1.24987e-19)
(1.32806 0.114571 1.18546e-19)
(1.32067 0.109631 3.58669e-20)
(1.3131 0.104607 0)
(1.30545 0.0995551 -3.09733e-20)
(1.29778 0.0945187 5.66468e-20)
(1.29008 0.0895335 -1.67439e-21)
(1.28238 0.0846311 -2.55661e-20)
(1.27468 0.0798402 0)
(1.26699 0.0751868 0)
(1.25932 0.0706951 5.84052e-20)
(1.25169 0.0663865 -5.71737e-20)
(1.24411 0.0622793 1.74115e-20)
(1.23661 0.0584031 0)
(1.22917 0.0546724 0)
(1.22184 0.0516207 0)
(1.21454 0.0469391 0)
(-0.00563062 0.00302353 -6.8977e-20)
(0.0205201 0.00235376 4.79782e-22)
(0.0820413 0.002782 1.31473e-19)
(0.175438 0.00567855 -6.26086e-20)
(0.296614 0.0125137 -1.18657e-19)
(0.439401 0.0241171 5.63228e-20)
(0.59497 0.040231 -5.36289e-20)
(0.752521 0.0595758 1.01009e-19)
(0.901073 0.0801971 0)
(1.03159 0.0999945 0)
(1.13851 0.117229 4.16772e-20)
(1.2201 0.130827 3.82088e-20)
(1.27786 0.140431 -1.78593e-21)
(1.31536 0.146257 -3.50392e-20)
(1.33708 0.148874 6.23221e-20)
(1.34739 0.148987 -3.05189e-20)
(1.35003 0.147276 2.68933e-20)
(1.34786 0.144311 -5.1131e-20)
(1.34287 0.140524 7.17725e-20)
(1.33636 0.136217 1.0898e-19)
(1.3291 0.131589 -1.03685e-19)
(1.3215 0.126771 0)
(1.31378 0.121845 -3.5872e-20)
(1.30604 0.116869 -3.23518e-20)
(1.29832 0.111886 9.31022e-20)
(1.29064 0.106928 -8.80751e-22)
(1.283 0.102027 -1.67696e-21)
(1.2754 0.0972092 -7.37322e-20)
(1.26784 0.0924986 4.45441e-20)
(1.26033 0.0879181 -4.26636e-20)
(1.25289 0.0834884 0)
(1.24552 0.0792282 -5.35701e-20)
(1.23825 0.0751544 1.7478e-20)
(1.23107 0.0712831 -6.03285e-20)
(1.22399 0.0675871 5.78031e-20)
(1.21702 0.0643765 0)
(1.2101 0.0599887 -1.18723e-20)
(-0.000280909 0.00137098 0)
(0.0399222 -0.00086674 0)
(0.118458 0.000535153 3.39167e-20)
(0.230536 0.00639693 -3.21499e-20)
(0.369998 0.0176844 1.19748e-19)
(0.527946 0.0345377 -8.61624e-20)
(0.692798 0.055795 2.71313e-20)
(0.85198 0.0792896 5.1144e-20)
(0.994449 0.102489 -1.77655e-22)
(1.11279 0.123172 0)
(1.20404 0.139881 0)
(1.26915 0.152037 3.90712e-20)
(1.31172 0.159797 0)
(1.33657 0.163783 -1.00684e-19)
(1.34859 0.164811 3.22507e-20)
(1.35199 0.163685 -5.84005e-20)
(1.34999 0.161084 2.72943e-20)
(1.34488 0.157522 2.42314e-20)
(1.33812 0.153356 -7.10201e-20)
(1.33056 0.14882 2.08311e-20)
(1.32269 0.14406 1.90871e-20)
(1.31475 0.13917 -1.94742e-20)
(1.30683 0.13421 6.82501e-20)
(1.29899 0.129224 -9.78823e-20)
(1.29124 0.124244 1.47173e-20)
(1.28357 0.1193 2.80177e-20)
(1.27599 0.114417 -7.56974e-20)
(1.26849 0.109618 7.23756e-20)
(1.26107 0.104926 -2.16684e-20)
(1.25375 0.100359 0)
(1.24653 0.0959367 -1.85512e-20)
(1.23942 0.0916748 0)
(1.23243 0.0875878 6.38636e-20)
(1.22556 0.0836867 -3.03198e-20)
(1.2188 0.0799758 1.35199e-20)
(1.21213 0.076599 0)
(1.20553 0.0724481 1.1876e-20)
(0.00640962 -0.000126477 3.60731e-20)
(0.0629623 -0.00325404 -7.29578e-20)
(0.160207 0.000101838 3.4369e-20)
(0.291624 0.00999604 -1.2886e-21)
(0.448456 0.0266173 -6.18179e-20)
(0.618779 0.0491336 2.88079e-20)
(0.788592 0.0753142 -5.48229e-20)
(0.944551 0.102172 0)
(1.07679 0.126865 -4.8065e-20)
(1.18045 0.147371 -2.26075e-20)
(1.25543 0.162743 0)
(1.3051 0.172985 -3.90827e-20)
(1.33457 0.178738 0)
(1.34926 0.180934 9.9697e-20)
(1.35397 0.180529 -6.33357e-20)
(1.35244 0.178344 2.90434e-20)
(1.34733 0.175003 5.26699e-20)
(1.34032 0.170942 -1.59685e-21)
(1.33244 0.166443 -2.39355e-20)
(1.32424 0.161682 0)
(1.31599 0.156766 -1.95148e-20)
(1.30782 0.151762 -1.84778e-20)
(1.29978 0.146716 0)
(1.29187 0.141662 0)
(1.2841 0.136628 -1.47225e-20)
(1.27646 0.131639 -3.96861e-20)
(1.26893 0.126718 7.59938e-20)
(1.26153 0.121885 0)
(1.25425 0.11716 4.27114e-20)
(1.2471 0.112558 0)
(1.24009 0.108098 1.85577e-20)
(1.23321 0.103793 0)
(1.22648 0.0996556 1.47984e-20)
(1.21988 0.0956953 -4.35487e-20)
(1.2134 0.091927 -1.35245e-20)
(1.20701 0.0883847 0)
(1.2007 0.0844122 0)
(0.0145289 -0.00133459 3.7608e-20)
(0.0896676 -0.00443334 3.66222e-20)
(0.20697 0.00200524 0)
(0.357726 0.0170022 3.28617e-20)
(0.530136 0.0396519 -3.06683e-20)
(0.709288 0.0678984 5.96444e-20)
(0.879531 0.0984109 -2.75248e-20)
(1.02799 0.127608 7.8074e-20)
(1.14707 0.15268 -1.23847e-21)
(1.23494 0.172091 -2.33546e-20)
(1.29426 0.185541 2.10368e-20)
(1.33024 0.193617 0)
(1.34889 0.197354 3.54921e-20)
(1.3557 0.197887 -8.36609e-20)
(1.35507 0.196217 3.13963e-20)
(1.35013 0.193121 5.61171e-20)
(1.34294 0.189142 -2.75096e-20)
(1.33471 0.184633 4.79952e-20)
(1.32612 0.179811 -9.10597e-20)
(1.3175 0.174804 -4.10718e-20)
(1.309 0.169692 1.1594e-19)
(1.30067 0.164525 -1.87061e-20)
(1.29254 0.159338 0)
(1.28459 0.154161 0)
(1.27682 0.149017 2.78469e-20)
(1.26921 0.143929 -1.41852e-20)
(1.26176 0.138917 -1.27258e-20)
(1.25447 0.133999 -1.10387e-20)
(1.24733 0.129191 -2.10451e-20)
(1.24035 0.12451 -2.8227e-20)
(1.23354 0.119969 2.73579e-20)
(1.22689 0.115583 0)
(1.22041 0.11136 -7.42735e-21)
(1.21406 0.107311 4.73302e-22)
(1.20784 0.103447 0)
(1.20171 0.0997419 0)
(1.19566 0.0958945 1.07459e-20)
(0.0241226 -0.00210335 -1.88181e-20)
(0.11992 -0.00401878 3.77892e-20)
(0.258172 0.00673207 -3.61177e-20)
(0.427541 0.0278244 0)
(0.61296 0.0569322 -3.17474e-20)
(0.796962 0.0906178 2.98904e-20)
(0.963358 0.124583 2.73428e-20)
(1.10097 0.154994 -2.71961e-20)
(1.20522 0.179422 0)
(1.27737 0.197018 0)
(1.32238 0.208175 -2.10473e-20)
(1.34675 0.213993 0)
(1.35676 0.215796 0)
(1.35764 0.214815 -3.30823e-20)
(1.35318 0.212027 -1.51705e-20)
(1.34591 0.208126 4.16595e-20)
(1.33734 0.203565 -6.55689e-20)
(1.32831 0.198622 0)
(1.31925 0.193458 5.49569e-20)
(1.31035 0.188169 -1.4532e-21)
(1.30168 0.182814 -5.76228e-20)
(1.29325 0.177431 3.39201e-20)
(1.28505 0.172051 -1.1409e-21)
(1.27709 0.166698 -4.50923e-20)
(1.26933 0.161394 -2.70955e-20)
(1.26177 0.156158 9.05615e-22)
(1.2544 0.151007 2.36208e-20)
(1.24722 0.145959 -1.03292e-20)
(1.24023 0.141028 7.25733e-22)
(1.23342 0.136228 -1.78873e-20)
(1.2268 0.131572 5.98581e-20)
(1.22038 0.12707 -1.17228e-21)
(1.21412 0.122732 -2.23496e-20)
(1.20802 0.118568 -1.27471e-20)
(1.20203 0.114577 2.53568e-20)
(1.19614 0.110714 0)
(1.19034 0.106934 -1.07544e-20)
(0.0351836 -0.00227211 3.88365e-20)
(0.153441 -0.00163174 0)
(0.31299 0.0147033 0)
(0.499529 0.0427279 0)
(0.694802 0.0784133 0)
(0.879618 0.116925 0)
(1.03851 0.153287 0)
(1.16301 0.183806 0)
(1.25188 0.20672 0)
(1.3092 0.221983 -2.28069e-20)
(1.3417 0.230647 -2.09843e-20)
(1.3565 0.234223 0)
(1.35982 0.234212 0)
(1.35632 0.231857 1.64732e-20)
(1.34917 0.228059 4.47961e-20)
(1.34031 0.223416 -5.58155e-20)
(1.33083 0.218292 3.89959e-20)
(1.32127 0.2129 0)
(1.3119 0.20736 1.09781e-20)
(1.3028 0.201743 0)
(1.294 0.196094 1.81583e-20)
(1.2855 0.190444 -4.30675e-20)
(1.27728 0.184819 -2.31558e-20)
(1.26931 0.179241 4.43249e-20)
(1.26159 0.173728 1.97333e-20)
(1.2541 0.168298 -3.13103e-20)
(1.24683 0.162966 -1.1601e-20)
(1.23977 0.157747 0)
(1.23292 0.152654 1.91161e-20)
(1.22629 0.147699 -3.60354e-22)
(1.21987 0.142894 -1.68976e-20)
(1.21366 0.138247 0)
(1.20764 0.133766 0)
(1.20176 0.129458 0)
(1.19601 0.125311 -5.88454e-21)
(1.19036 0.121294 1.62667e-20)
(1.18478 0.117523 -1.03921e-20)
(0.0476402 -0.00167793 0)
(0.189783 0.00307695 0)
(0.37038 0.0262487 0)
(0.572006 0.0618238 -1.76365e-20)
(0.773655 0.103886 3.25675e-22)
(0.955532 0.146361 -1.50304e-20)
(1.10411 0.183992 7.26813e-20)
(1.21426 0.213608 -1.44041e-20)
(1.28808 0.23432 -3.76855e-20)
(1.33199 0.246911 2.28227e-20)
(1.35387 0.253009 2.09992e-20)
(1.36103 0.254422 0)
(1.35926 0.252726 1.73134e-20)
(1.35259 0.249109 -1.6561e-20)
(1.34356 0.244374 0)
(1.33363 0.239015 -3.72017e-22)
(1.32353 0.233319 -1.90715e-20)
(1.31361 0.227446 0)
(1.30402 0.221485 2.0898e-20)
(1.29479 0.21549 -1.99997e-20)
(1.28591 0.209496 1.77204e-20)
(1.27737 0.203529 7.78913e-21)
(1.26914 0.197612 -3.09472e-20)
(1.26121 0.191763 0)
(1.25354 0.185999 6.60935e-21)
(1.24613 0.180334 6.09728e-21)
(1.23896 0.174782 0)
(1.23204 0.169356 -1.00204e-20)
(1.22535 0.164068 9.59666e-21)
(1.2189 0.158928 8.8345e-21)
(1.21269 0.153945 0)
(1.20669 0.149126 1.44819e-20)
(1.20088 0.14448 2.80747e-21)
(1.19523 0.140005 -1.2788e-20)
(1.1897 0.135681 -2.61327e-21)
(1.18427 0.131512 -2.39819e-21)
(1.17892 0.127688 1.24e-20)
(0.0613517 -0.000161251 5.25599e-21)
(0.22834 0.0104156 2.04407e-20)
(0.429128 0.0415968 9.44653e-21)
(0.643257 0.0850751 -2.71277e-20)
(0.847757 0.133013 1.71966e-20)
(1.02348 0.178419 -1.56131e-20)
(1.1598 0.216209 7.67998e-21)
(1.25526 0.244058 1.34981e-20)
(1.31496 0.262065 1.86344e-20)
(1.34711 0.271795 0)
(1.36021 0.275346 1.02119e-20)
(1.36137 0.274704 -9.76648e-21)
(1.3558 0.271438 0)
(1.34686 0.266643 3.9704e-21)
(1.33654 0.261006 0)
(1.32587 0.254929 0)
(1.31536 0.248633 -5.86536e-21)
(1.3052 0.242235 8.7795e-21)
(1.29546 0.235805 -1.02081e-20)
(1.28615 0.229381 9.76933e-21)
(1.27723 0.222993 0)
(1.26868 0.216662 0)
(1.26048 0.210408 1.85219e-20)
(1.25259 0.204246 -3.62462e-21)
(1.245 0.19819 -3.09785e-21)
(1.23769 0.192253 0)
(1.23065 0.186447 -5.24957e-21)
(1.22388 0.180782 9.86268e-21)
(1.21736 0.175267 -2.40708e-21)
(1.2111 0.169914 0)
(1.20509 0.164728 0)
(1.19931 0.159716 1.73609e-21)
(1.19373 0.154882 -1.73796e-21)
(1.1883 0.15022 0)
(1.18299 0.145708 -1.47687e-21)
(1.17778 0.141394 -1.36088e-21)
(1.17263 0.137458 -2.4009e-21)
(0.0761501 0.00243681 -5.19547e-21)
(0.268444 0.0206505 0)
(0.48802 0.0608652 0)
(0.71175 0.112303 -9.17793e-21)
(0.915752 0.165366 -4.2635e-21)
(1.08273 0.2126 4.07532e-21)
(1.20566 0.249536 -7.37467e-21)
(1.28671 0.274927 0)
(1.33355 0.289889 -6.21671e-21)
(1.35562 0.296685 0)
(1.36159 0.297753 2.52994e-21)
(1.35812 0.295161 -4.72899e-21)
(1.34975 0.290413 4.31805e-21)
(1.3392 0.284485 -4.06409e-21)
(1.32799 0.277953 -1.8441e-21)
(1.31683 0.271133 0)
(1.30605 0.264194 0)
(1.29573 0.257224 2.80152e-21)
(1.28591 0.250273 0)
(1.27656 0.243371 1.1399e-21)
(1.26764 0.236542 -4.45421e-23)
(1.25912 0.229804 -4.05361e-23)
(1.25098 0.223171 -3.70176e-21)
(1.24317 0.216658 -4.21602e-21)
(1.23569 0.210275 3.10096e-21)
(1.22851 0.204032 0)
(1.22161 0.197939 0)
(1.215 0.192006 0)
(1.20867 0.186239 -2.22618e-21)
(1.20262 0.180647 0)
(1.19682 0.175235 0)
(1.19127 0.170008 -9.04662e-22)
(1.18592 0.164969 -2.39824e-21)
(1.18072 0.160105 -7.0549e-22)
(1.17564 0.155399 -6.79897e-22)
(1.17066 0.150945 -1.24763e-21)
(1.16574 0.146854 0)
(-0.00123189 0.0512653 -3.48857e-21)
(-0.0040803 0.126875 0)
(-0.00865415 0.180218 0)
(-0.0148233 0.215089 -6.42932e-21)
(-0.0223468 0.235657 3.05048e-21)
(-0.0309516 0.246014 -2.91633e-21)
(-0.0403525 0.249758 -5.6297e-21)
(-0.0502998 0.249747 0)
(-0.0605996 0.248026 -5.17599e-21)
(-0.0711107 0.24589 0)
(-0.0817357 0.244016 -2.37358e-21)
(-0.0924092 0.24264 2.27009e-21)
(-0.103086 0.241714 -2.19993e-21)
(-0.113734 0.241037 -4.28959e-21)
(-0.124321 0.240338 2.02911e-21)
(-0.134813 0.239322 0)
(-0.145165 0.237685 0)
(-0.155317 0.235118 3.73967e-21)
(-0.16519 0.231297 0)
(-0.174686 0.225882 -1.74047e-21)
(-0.183683 0.218519 -2.34344e-23)
(-0.192037 0.208842 -2.3528e-23)
(-0.199587 0.196485 -6.50388e-21)
(-0.206155 0.181098 -4.78337e-21)
(-0.211556 0.16236 6.14152e-21)
(-0.2156 0.140002 0)
(-0.218102 0.113821 0)
(-0.218896 0.0836985 0)
(-0.217836 0.0496144 -5.46847e-21)
(-0.214824 0.0116537 0)
(-0.209694 -0.0299716 0)
(-0.202298 -0.0749349 -7.23815e-21)
(-0.192644 -0.12275 -2.43788e-21)
(-0.180722 -0.172802 2.11915e-21)
(-0.166616 -0.224342 -6.2573e-21)
(-0.150484 -0.276482 -3.98577e-21)
(-0.132303 -0.328149 0)
(-0.00314074 0.0516701 1.05166e-20)
(-0.00827217 0.128937 -1.41728e-20)
(-0.0135552 0.184369 -6.77135e-21)
(-0.019454 0.221366 3.23198e-20)
(-0.0261025 0.243841 -1.2377e-20)
(-0.0334671 0.255762 1.18508e-20)
(-0.0414259 0.260708 -1.71273e-20)
(-0.0498286 0.261576 1.09513e-20)
(-0.0585299 0.260476 1.56835e-20)
(-0.0674035 0.25877 1.00488e-20)
(-0.0763459 0.257194 -1.92796e-20)
(-0.0852745 0.256026 9.24803e-21)
(-0.0941227 0.255247 0)
(-0.102833 0.254667 1.29465e-20)
(-0.111351 0.254016 -8.30109e-21)
(-0.119618 0.252988 0)
(-0.127565 0.251261 2.36727e-20)
(-0.135109 0.248499 -1.88072e-20)
(-0.142149 0.244349 0)
(-0.148569 0.238442 0)
(-0.154232 0.230388 0)
(-0.158988 0.219793 0)
(-0.162676 0.206263 6.62291e-21)
(-0.16513 0.189429 1.91087e-20)
(-0.166185 0.168957 -6.13531e-21)
(-0.165684 0.144575 0)
(-0.163489 0.116091 1.20714e-20)
(-0.159486 0.0834111 -2.32925e-20)
(-0.153577 0.0465315 1.6699e-20)
(-0.145715 0.00557983 0)
(-0.135865 -0.0392121 0)
(-0.123977 -0.0874629 4.8897e-21)
(-0.110053 -0.138672 -5.41663e-21)
(-0.0941176 -0.192192 0)
(-0.0762414 -0.247175 -4.92328e-21)
(-0.0564398 -0.302497 -4.6494e-21)
(-0.0341618 -0.356701 -8.11796e-21)
(-0.00500552 0.0512559 0)
(-0.0124259 0.12918 0)
(-0.0184327 0.186196 0)
(-0.0240463 0.225146 1.3122e-20)
(-0.0297499 0.24955 5.87504e-24)
(-0.0357453 0.263151 1.20302e-20)
(-0.0420761 0.269434 -3.45852e-20)
(-0.0486974 0.271288 -1.1021e-20)
(-0.055518 0.270871 1.06221e-20)
(-0.0624296 0.269607 2.0495e-20)
(-0.0693238 0.268298 1.97331e-20)
(-0.0761 0.267275 0)
(-0.0826675 0.266555 0)
(-0.0889428 0.265969 0)
(-0.0948448 0.265252 0)
(-0.100289 0.264089 -3.33118e-20)
(-0.105182 0.262144 7.99847e-21)
(-0.109419 0.259063 0)
(-0.112882 0.254469 -3.06152e-20)
(-0.115439 0.24797 2.92985e-20)
(-0.116948 0.239157 -2.91569e-20)
(-0.11726 0.227618 1.37248e-20)
(-0.116228 0.212952 -2.46352e-22)
(-0.11371 0.194786 0)
(-0.109579 0.172793 1.34345e-20)
(-0.103728 0.146715 1.31507e-20)
(-0.0960725 0.116381 0)
(-0.0866066 0.0817971 2.48086e-20)
(-0.0753219 0.0428795 -2.37585e-20)
(-0.0623014 -0.000203015 2.38088e-20)
(-0.0474975 -0.047182 0)
(-0.0309001 -0.097656 -4.34781e-20)
(-0.0126433 -0.151149 1.01044e-20)
(0.00723373 -0.207044 3.98826e-20)
(0.0286919 -0.264548 6.60797e-20)
(0.0515562 -0.322551 -1.03406e-20)
(0.0772124 -0.379298 -2.58105e-20)
(-0.00674201 0.0500273 8.76475e-23)
(-0.0163763 0.127557 0)
(-0.0231075 0.185569 0)
(-0.02844 0.226219 0)
(-0.0331697 0.252514 0)
(-0.0377118 0.267872 0)
(-0.0422754 0.275602 0)
(-0.0469249 0.27854 0)
(-0.0516293 0.278857 0)
(-0.0563036 0.278037 -2.04811e-20)
(-0.060838 0.27695 -1.97195e-20)
(-0.0651158 0.275989 3.85035e-20)
(-0.0690226 0.275218 -3.68263e-20)
(-0.0724487 0.274496 1.80252e-20)
(-0.0752863 0.27357 -1.74618e-20)
(-0.0774261 0.272125 6.70491e-20)
(-0.0787523 0.269817 -1.59635e-20)
(-0.0791418 0.266279 0)
(-0.0784655 0.261125 1.56749e-20)
(-0.0765854 0.253944 0)
(-0.0733627 0.244325 -2.9991e-20)
(-0.068664 0.231853 -1.4954e-20)
(-0.0623677 0.216132 7.15586e-20)
(-0.0543732 0.196801 -2.68739e-20)
(-0.0446104 0.173555 -6.87129e-20)
(-0.0330403 0.146159 -1.43415e-20)
(-0.0195357 0.114487 2.52538e-20)
(-0.00431127 0.0784684 0)
(0.0124801 0.0381449 -5.04147e-20)
(0.0308901 -0.00631121 2.52148e-22)
(0.0508329 -0.0545899 4.68843e-20)
(0.0722121 -0.106381 -4.56075e-20)
(0.0949054 -0.161245 4.36898e-20)
(0.118811 -0.218613 0)
(0.14389 -0.277785 -1.93807e-20)
(0.169784 -0.337715 -1.8785e-20)
(0.199678 -0.396476 3.55669e-20)
(-0.00827552 0.0480348 -4.3939e-20)
(-0.0199655 0.124102 -2.94075e-20)
(-0.0274126 0.182455 2.81097e-20)
(-0.0324958 0.224467 0)
(-0.0362669 0.25254 -2.57689e-20)
(-0.039329 0.269676 -2.45733e-20)
(-0.0420453 0.278932 -2.36228e-20)
(-0.0445914 0.283031 6.77091e-20)
(-0.047003 0.284131 0)
(-0.049226 0.283757 0)
(-0.0511567 0.282845 -2.01857e-20)
(-0.052667 0.281859 0)
(-0.0536217 0.280917 0)
(-0.0538872 0.279919 -3.62439e-20)
(-0.0533324 0.278631 -1.74596e-20)
(-0.0518262 0.276751 -1.74964e-20)
(-0.0492341 0.273932 -1.69537e-20)
(-0.0454172 0.269804 0)
(-0.0402489 0.263975 -4.77583e-20)
(-0.0335954 0.256041 -1.36216e-21)
(-0.0253256 0.245595 2.9368e-20)
(-0.0153351 0.232236 -5.3426e-22)
(-0.00353499 0.215587 -5.89125e-20)
(0.0101303 0.195314 2.81884e-20)
(0.025677 0.171143 0)
(0.0430822 0.142873 0)
(0.062292 0.110395 -5.9629e-22)
(0.0831869 0.0736014 7.98241e-20)
(0.105583 0.0326619 9.1632e-22)
(0.129388 -0.0122811 -9.96644e-20)
(0.154512 -0.0609812 -7.31364e-20)
(0.180809 -0.113161 -5.63029e-22)
(0.208197 -0.168429 1.12902e-19)
(0.236494 -0.226268 1.29456e-19)
(0.265993 -0.285985 -8.23494e-20)
(0.294924 -0.346671 0)
(0.330543 -0.406144 -3.63785e-20)
(-0.00954338 0.0453625 -1.50134e-22)
(-0.0230551 0.118935 2.9813e-20)
(-0.0311969 0.176919 0)
(-0.0360913 0.219865 2.71683e-20)
(-0.0389708 0.249517 7.75248e-20)
(-0.0405884 0.268382 -4.94878e-20)
(-0.0414447 0.279198 7.13048e-20)
(-0.0418238 0.284517 -1.13687e-19)
(-0.0418349 0.286442 -2.4157e-22)
(-0.0414648 0.286519 6.30303e-20)
(-0.040624 0.285743 2.01755e-20)
(-0.0391814 0.284649 0)
(-0.0369885 0.283422 -3.80525e-20)
(-0.0338926 0.28201 5.47561e-20)
(-0.0297435 0.280213 -3.52751e-20)
(-0.0243941 0.277745 0)
(-0.0177003 0.274273 3.34079e-20)
(-0.00952118 0.269432 -6.61873e-20)
(0.000273695 0.262837 -5.63028e-22)
(0.0118044 0.254103 6.33194e-20)
(0.0251766 0.242838 -6.14485e-20)
(0.040466 0.228666 8.92456e-20)
(0.0577193 0.211241 0)
(0.0769438 0.190261 0)
(0.0981037 0.165484 -5.75825e-20)
(0.12112 0.136738 -2.93328e-20)
(0.145877 0.103927 8.12184e-20)
(0.172227 0.067019 -2.65644e-20)
(0.200014 0.0261132 -5.24113e-20)
(0.229103 -0.0186474 1.27731e-19)
(0.259383 -0.0670967 -1.22652e-19)
(0.290739 -0.118998 0)
(0.323204 -0.173998 -2.27444e-20)
(0.356324 -0.231665 3.67402e-22)
(0.391336 -0.2911 0)
(0.423542 -0.351903 0)
(0.466716 -0.410811 3.63195e-20)
(-0.0105013 0.0421295 -2.9737e-20)
(-0.0255374 0.112257 1.60164e-22)
(-0.0343388 0.169132 -8.56924e-20)
(-0.0391279 0.212502 2.13233e-22)
(-0.0412313 0.243433 5.21021e-20)
(-0.041504 0.263894 2.4976e-20)
(-0.040559 0.276245 -4.77043e-20)
(-0.0387821 0.282809 0)
(-0.0363602 0.285592 -4.40644e-20)
(-0.0333308 0.28613 -2.10901e-20)
(-0.0296309 0.285465 4.09568e-20)
(-0.0251377 0.284201 -1.57696e-19)
(-0.0196984 0.28259 7.56697e-20)
(-0.0131501 0.28064 -3.74597e-20)
(-0.00533084 0.278197 7.09592e-20)
(0.00391545 0.275005 3.47515e-20)
(0.0147362 0.270752 0)
(0.0272678 0.265094 -6.65814e-20)
(0.0416317 0.257667 9.57929e-20)
(0.0579296 0.248107 0)
(0.0762383 0.236049 -3.07395e-20)
(0.096601 0.221152 -3.02274e-20)
(0.119024 0.203104 0)
(0.143473 0.18164 0)
(0.169871 0.156551 -2.85537e-20)
(0.198098 0.127693 1.4147e-19)
(0.228013 0.0949493 -5.38134e-20)
(0.259487 0.0583608 0)
(0.292394 0.0179613 1.04724e-19)
(0.326605 -0.0261835 0)
(0.36208 -0.0739461 4.93419e-20)
(0.39871 -0.12516 0)
(0.436776 -0.179437 -1.37375e-19)
(0.475155 -0.236562 4.40209e-20)