/*--------------------------------*- C++ -*----------------------------------*\
| =========                 |                                                 |
| \\      /  F ield         | OpenFOAM: The Open Source CFD Toolbox           |
|  \\    /   O peration     | Version:  2312                                  |
|   \\  /    A nd           | Website:  www.openfoam.com                      |
|    \\/     M anipulation  |                                                 |
\*---------------------------------------------------------------------------*/
FoamFile
{
    version     2.0;
    format      ascii;
    arch        "LSB;label=32;scalar=64";
    class       volScalarField;
    location    "17.5";
    object      p;
}
// * * * * * * * * * * * * * * * * * * * * * * * * * * * * * * * * * * * * * //

dimensions      [0 2 -2 0 0 0 0];

internalField   nonuniform List<scalar> 
9200
(
-0.110093
-0.116216
-0.113603
-0.0844888
-0.0415162
0.00482514
0.0462102
0.0737932
0.0912788
0.0954392
0.0839382
0.0541534
0.00781954
-0.0662494
-0.148138
-0.212042
-0.232944
-0.226093
-0.211071
-0.197599
-0.0561307
-0.0741015
-0.0803865
-0.0482907
0.00395633
0.0581341
0.101254
0.128842
0.157376
0.171541
0.173846
0.150194
0.104306
0.0388193
-0.0286397
-0.0773516
-0.0987322
-0.103394
-0.108009
-0.120724
-0.03595
-0.0604991
-0.0824346
-0.0642474
-0.00755195
0.0595818
0.113292
0.15271
0.180152
0.192459
0.191147
0.168613
0.1316
0.0869743
0.0423123
0.00900716
-0.0173887
-0.0412914
-0.05866
-0.0725869
-0.0738006
-0.100448
-0.146681
-0.140264
-0.0750068
0.0161438
0.0784666
0.121546
0.146449
0.155794
0.152709
0.140215
0.118081
0.0936845
0.0682414
0.0376209
0.0137008
-0.00266347
-0.0158052
-0.0288136
-0.124107
-0.151123
-0.223118
-0.218808
-0.137175
-0.0469921
0.0230174
0.0674367
0.0933612
0.106072
0.110166
0.10891
0.101253
0.0827324
0.0632474
0.0491801
0.0358418
0.0219453
0.0101749
-0.00088599
-0.154479
-0.175489
-0.230095
-0.238787
-0.154443
-0.0726439
-0.00899024
0.0334526
0.0593472
0.0748068
0.0832198
0.0846643
0.0821954
0.077661
0.0691263
0.0576559
0.0462684
0.035653
0.0251134
0.015979
-0.149639
-0.161544
-0.166601
-0.18251
-0.132279
-0.07065
-0.0198013
0.0155546
0.0398235
0.055499
0.0642476
0.069093
0.0708829
0.0689369
0.0643789
0.0595981
0.0553366
0.0505898
0.0444438
0.0360962
-0.10739
-0.103544
-0.134881
-0.124598
-0.0944027
-0.0545778
-0.0176923
0.0106546
0.0308219
0.0459919
0.0571001
0.0633019
0.0661103
0.0671203
0.0658862
0.0623216
0.0582519
0.0551861
0.0522409
0.0495241
-0.0886489
-0.0292939
-0.0915657
-0.0813115
-0.0590887
-0.0321506
-0.00566637
0.0158056
0.0325501
0.0448112
0.0538556
0.0614581
0.0667313
0.069963
0.0706352
0.0697399
0.0666802
0.06351
0.0596275
0.0562831
-0.084675
-0.0800926
-0.05897
-0.0444986
-0.0288365
-0.0105752
0.00788289
0.0249653
0.0388785
0.050094
0.0582
0.0636843
0.0678072
0.0715315
0.0744834
0.0763589
0.0762717
0.0753961
0.0737177
0.0708276
-0.896268
-0.85553
-0.865342
-0.885586
-0.915201
-0.948749
-0.98155
-1.00807
-1.02651
-1.03545
-1.0364
-1.02743
-1.00559
-0.980783
-0.953364
-0.928667
-0.920058
-0.92755
-0.95228
-1.00003
-0.778794
-0.746168
-0.749783
-0.765506
-0.790933
-0.819716
-0.847766
-0.869881
-0.885359
-0.894643
-0.895005
-0.888096
-0.881249
-0.871293
-0.862952
-0.870983
-0.890061
-0.927196
-0.99024
-1.0705
-0.663817
-0.629809
-0.625169
-0.633046
-0.650833
-0.67007
-0.689075
-0.707242
-0.719655
-0.726047
-0.73133
-0.733793
-0.732309
-0.738327
-0.752413
-0.774287
-0.814973
-0.873216
-0.948392
-1.04038
-0.560275
-0.530569
-0.52199
-0.522409
-0.52916
-0.537225
-0.546156
-0.554045
-0.561016
-0.566755
-0.570596
-0.576987
-0.58903
-0.602381
-0.626484
-0.666609
-0.714161
-0.768565
-0.856311
-0.938506
-0.448378
-0.428461
-0.420958
-0.41936
-0.422186
-0.420567
-0.418185
-0.417644
-0.418146
-0.420899
-0.428477
-0.43921
-0.455131
-0.482789
-0.516983
-0.543605
-0.607182
-0.647578
-0.719752
-0.790821
-0.349535
-0.32477
-0.31369
-0.305152
-0.296072
-0.295117
-0.293521
-0.292058
-0.293237
-0.29811
-0.306607
-0.32311
-0.352763
-0.369987
-0.416202
-0.440342
-0.484958
-0.522771
-0.568301
-0.623294
-0.284727
-0.255113
-0.245338
-0.230222
-0.217913
-0.208436
-0.200575
-0.195277
-0.193679
-0.196334
-0.21378
-0.225516
-0.263317
-0.290097
-0.325472
-0.355193
-0.382242
-0.414853
-0.447789
-0.492763
-0.233362
-0.206645
-0.204767
-0.187341
-0.17426
-0.157784
-0.14064
-0.124263
-0.117362
-0.113314
-0.132407
-0.154482
-0.192365
-0.232577
-0.269375
-0.31223
-0.345286
-0.378783
-0.407909
-0.439597
-0.193675
-0.17197
-0.167058
-0.136932
-0.117878
-0.0957922
-0.0722705
-0.0489381
-0.040855
-0.0381179
-0.0564614
-0.0904089
-0.133958
-0.192643
-0.259246
-0.324675
-0.368733
-0.397004
-0.407772
-0.414615
-0.157171
-0.148454
-0.138152
-0.108936
-0.0739725
-0.0369802
-0.00467676
0.0198111
0.0315789
0.029886
0.0120283
-0.02457
-0.0754624
-0.149808
-0.235363
-0.307455
-0.346676
-0.351752
-0.344879
-0.331734
-1.08984
-1.18735
-1.28324
-1.37097
-1.37867
-1.36764
-1.18858
-1.00514
-0.765603
-0.540754
-0.344922
-0.199384
-0.109433
-0.0552462
-0.0229035
-0.0037971
0.00794364
0.015138
0.0191242
0.0211689
0.0220946
0.0218844
0.0207304
0.0191733
0.0178117
0.0161848
0.0140995
0.0118979
0.0097763
0.00827127
0.00670616
0.00507998
0.00366079
0.00251411
0.00156628
0.000826816
0.00016873
-0.000326792
-0.000712809
-0.000934856
-0.00108803
-0.00112197
-0.00110743
-0.00104165
-0.000926087
-0.000800217
-0.000641027
-0.000469533
-0.000290831
-0.000106128
-1.18932
-1.31582
-1.41915
-1.50888
-1.51326
-1.46356
-1.29079
-1.06704
-0.81858
-0.585213
-0.385063
-0.22892
-0.126651
-0.0652853
-0.0289799
-0.00796262
0.00490347
0.0129849
0.0173172
0.0194691
0.0206816
0.0209962
0.0202311
0.0187924
0.017371
0.015897
0.0140456
0.0119577
0.0102817
0.00842127
0.00684931
0.00527974
0.0039133
0.00281145
0.00191067
0.00111496
0.000413249
-0.00012789
-0.000547939
-0.000801504
-0.00097299
-0.00102461
-0.00102511
-0.000970397
-0.000867325
-0.000751493
-0.000602995
-0.000441573
-0.000276299
-0.000102674
-1.17279
-1.30978
-1.43287
-1.52507
-1.54554
-1.49021
-1.33581
-1.1011
-0.846543
-0.617134
-0.421128
-0.265028
-0.155559
-0.0864541
-0.0434007
-0.017504
-0.00179801
0.00844174
0.0142509
0.0170132
0.0186445
0.0195732
0.0193588
0.0181888
0.0168032
0.0154419
0.0138449
0.011932
0.0101318
0.00833938
0.00679242
0.00535305
0.00408856
0.0030262
0.00225609
0.00131525
0.000610031
4.5621e-05
-0.000397438
-0.000680129
-0.000866759
-0.000935084
-0.000947561
-0.000902612
-0.000809711
-0.000702541
-0.000563834
-0.000411974
-0.000259432
-9.90957e-05
-1.04748
-1.20127
-1.33549
-1.43241
-1.45367
-1.39918
-1.26198
-1.04941
-0.818038
-0.613988
-0.443338
-0.301501
-0.191225
-0.116121
-0.0669675
-0.0345289
-0.013663
0.000218086
0.00887738
0.0135071
0.0160792
0.0177374
0.0181616
0.0173195
0.0160558
0.0148217
0.0134488
0.0117413
0.00992168
0.00812896
0.00664291
0.00535107
0.00420882
0.00318714
0.00237761
0.00141261
0.000750533
0.000192932
-0.000252241
-0.000554818
-0.000752418
-0.000837949
-0.00086251
-0.000830179
-0.000748437
-0.000652281
-0.00052361
-0.000381959
-0.000241142
-9.35222e-05
-0.863464
-1.00393
-1.14161
-1.24189
-1.26471
-1.22069
-1.11349
-0.950487
-0.768266
-0.595692
-0.447049
-0.327305
-0.227922
-0.149622
-0.0938984
-0.0554376
-0.0293487
-0.0113713
0.000800244
0.00808519
0.0124752
0.0154028
0.0167398
0.0163409
0.0152173
0.0141277
0.0129827
0.0115211
0.00983028
0.0081288
0.00661758
0.00537457
0.00430241
0.00330945
0.00242483
0.00143433
0.000840268
0.000301679
-0.000136137
-0.000452734
-0.000656741
-0.0007558
-0.000788499
-0.000765522
-0.000691677
-0.000604262
-0.000483587
-0.000351044
-0.000220957
-8.58526e-05
-0.675596
-0.786396
-0.907096
-0.993857
-1.04163
-1.02749
-0.957151
-0.837251
-0.702774
-0.570317
-0.443971
-0.335857
-0.248024
-0.174674
-0.11715
-0.0741295
-0.043841
-0.0229434
-0.00822794
0.0014928
0.00764507
0.0118694
0.014525
0.0150039
0.0141458
0.013216
0.0123572
0.011186
0.00957535
0.00786699
0.00641378
0.00526737
0.00429249
0.0033565
0.00242297
0.00140484
0.000912546
0.000405088
-1.72696e-05
-0.00034434
-0.000554085
-0.000667267
-0.000709139
-0.00069711
-0.000632929
-0.000555446
-0.000444406
-0.000321544
-0.000202785
-8.32449e-05
-0.53385
-0.613359
-0.714645
-0.789998
-0.835464
-0.840357
-0.803113
-0.72856
-0.634199
-0.532715
-0.429987
-0.337895
-0.258245
-0.189901
-0.134081
-0.0896142
-0.0561925
-0.0326941
-0.0158172
-0.00435252
0.00279967
0.00788091
0.0115168
0.0130616
0.0128606
0.012265
0.0117346
0.0109183
0.00950058
0.00789789
0.00644971
0.00530707
0.00434002
0.00342033
0.00243752
0.00132416
0.000949326
0.000472295
7.0619e-05
-0.000259498
-0.000468438
-0.000591915
-0.000639046
-0.000636506
-0.000579597
-0.00051071
-0.000407223
-0.00029309
-0.000184062
-7.45497e-05
-0.458222
-0.500389
-0.571754
-0.636394
-0.678549
-0.699204
-0.685637
-0.638838
-0.576921
-0.502612
-0.415406
-0.331884
-0.2589
-0.196659
-0.144602
-0.101891
-0.0679268
-0.043072
-0.0240363
-0.0101187
-0.00141802
0.00434777
0.00855947
0.0109005
0.0112692
0.0109611
0.0106475
0.0101331
0.0090144
0.00760952
0.00628877
0.00521363
0.00427921
0.0034094
0.00242692
0.00122333
0.00101069
0.000551126
0.000161684
-0.000173098
-0.000383507
-0.000516829
-0.00056946
-0.000575315
-0.000525522
-0.000464675
-0.000369454
-0.000264404
-0.000165085
-6.93869e-05
-0.408721
-0.434867
-0.480163
-0.517785
-0.550555
-0.576396
-0.584404
-0.566349
-0.5278
-0.473206
-0.407427
-0.338142
-0.27156
-0.211323
-0.157327
-0.112827
-0.0779026
-0.0528726
-0.0337091
-0.0180398
-0.00702944
0.000161385
0.00529709
0.00858132
0.00979152
0.00998005
0.00989147
0.00956736
0.00867878
0.00747009
0.00625509
0.00520798
0.00427675
0.00341729
0.00244207
0.00104679
0.00106863
0.000612929
0.000233102
-9.69892e-05
-0.000305402
-0.000444656
-0.000501808
-0.000515985
-0.000474033
-0.000421192
-0.000335141
-0.000238531
-0.000148192
-6.17121e-05
-0.324515
-0.345122
-0.37926
-0.413485
-0.438475
-0.456897
-0.469301
-0.469062
-0.455127
-0.426145
-0.381142
-0.329845
-0.279446
-0.229869
-0.181162
-0.13691
-0.0986894
-0.0681186
-0.0452875
-0.0276473
-0.0147276
-0.00602235
0.000463633
0.00515481
0.00747179
0.00820665
0.00855192
0.00865367
0.00815523
0.00717419
0.00606869
0.00511983
0.00426468
0.00347574
0.00254834
0.000770756
0.0011702
0.000685996
0.000296359
-3.17504e-05
-0.000240276
-0.000382424
-0.000443318
-0.000462599
-0.000427181
-0.000379431
-0.000301746
-0.000212634
-0.000129899
-5.08061e-05
-0.268229
-0.316145
-0.340494
-0.359729
-0.380768
-0.40019
-0.412324
-0.413242
-0.401835
-0.377045
-0.341144
-0.299166
-0.253565
-0.208739
-0.16669
-0.129203
-0.0966939
-0.0694618
-0.0474018
-0.0293473
-0.0163835
-0.00805819
-0.00187656
0.00305437
0.00593769
0.00698453
0.00747267
0.00785731
0.00770974
0.00689407
0.00573139
0.00475521
0.00400479
0.00337363
0.00267258
0.00312161
0.0013379
0.000763846
0.000363653
4.35891e-05
-0.000170013
-0.000313316
-0.000381691
-0.000404907
-0.000379775
-0.000336225
-0.000269424
-0.000187994
-0.000113114
-4.15184e-05
-0.207979
-0.259698
-0.292812
-0.313803
-0.330924
-0.345115
-0.353378
-0.353812
-0.346338
-0.328838
-0.301412
-0.268075
-0.231043
-0.192758
-0.156088
-0.122874
-0.0937962
-0.0700911
-0.0504085
-0.0334803
-0.0202453
-0.0111048
-0.00451911
0.000611372
0.00369045
0.0050209
0.00584943
0.00656115
0.00669655
0.006079
0.0051124
0.00430495
0.00369487
0.00315963
0.00260615
0.0024957
0.00128659
0.000709488
0.000339573
5.58025e-05
-0.00013965
-0.000270115
-0.000336432
-0.000358865
-0.000338204
-0.000297686
-0.000238252
-0.000164123
-9.57501e-05
-3.00925e-05
-0.164298
-0.214441
-0.250042
-0.270422
-0.28401
-0.29483
-0.30138
-0.301998
-0.297232
-0.285526
-0.265737
-0.239046
-0.208209
-0.177307
-0.147569
-0.118258
-0.0917781
-0.0687287
-0.0491355
-0.0339041
-0.0222235
-0.0133613
-0.00622107
-0.00075639
0.00247163
0.00401907
0.00505529
0.00585578
0.0060728
0.00564003
0.00487741
0.00413337
0.00354483
0.00304457
0.00253731
0.00238375
0.00126704
0.000681946
0.000323513
5.68602e-05
-0.000122432
-0.000240832
-0.000299601
-0.000318327
-0.000297408
-0.000259454
-0.000204784
-0.000138427
-7.70439e-05
-2.1543e-05
-0.135418
-0.177123
-0.209521
-0.229891
-0.242388
-0.250938
-0.257176
-0.259537
-0.256712
-0.247746
-0.232439
-0.21274
-0.189004
-0.16138
-0.132636
-0.107082
-0.0860143
-0.0669503
-0.05054
-0.0364674
-0.0247517
-0.0159618
-0.00910091
-0.00347606
0.000224458
0.00204792
0.00322983
0.00432249
0.00491244
0.00476146
0.00412478
0.00347652
0.00306545
0.00274342
0.00233229
0.00193389
0.00113167
0.000603405
0.000282568
4.96887e-05
-0.000105866
-0.000209733
-0.00026039
-0.000276495
-0.000257566
-0.000222486
-0.000174738
-0.000115461
-6.3418e-05
-2.20627e-05
-0.110619
-0.145396
-0.174159
-0.193817
-0.205641
-0.213107
-0.218302
-0.220032
-0.218177
-0.212766
-0.202132
-0.18639
-0.166944
-0.146914
-0.127353
-0.107087
-0.0861319
-0.0666998
-0.0506671
-0.0371821
-0.0258391
-0.0172176
-0.0105298
-0.00515089
-0.00153575
0.000659087
0.0023066
0.00360731
0.0042697
0.00418481
0.00368656
0.00317456
0.00286648
0.00260498
0.00222445
0.00179086
0.00104861
0.000551928
0.00026006
5.31971e-05
-8.47663e-05
-0.000175708
-0.000221216
-0.000234736
-0.000218492
-0.000185465
-0.0001451
-9.24681e-05
-5.01888e-05
-1.97882e-05
-0.0899813
-0.11939
-0.14408
-0.161816
-0.172711
-0.179154
-0.184049
-0.1869
-0.186274
-0.181639
-0.174012
-0.164432
-0.150229
-0.131602
-0.111763
-0.0931685
-0.0763298
-0.0612744
-0.048393
-0.0370149
-0.0268514
-0.0187874
-0.012389
-0.00705859
-0.00322288
-0.000746276
0.00102974
0.00234298
0.0031515
0.0034385
0.00321339
0.00277559
0.00247223
0.00223188
0.00189326
0.00143039
0.000870697
0.000457522
0.000212853
4.25889e-05
-7.13156e-05
-0.000145173
-0.000181305
-0.000189502
-0.000173755
-0.00014291
-0.000109067
-6.46551e-05
-3.11686e-05
-8.83511e-06
-0.0731852
-0.0973952
-0.118211
-0.13368
-0.143734
-0.15007
-0.154334
-0.156633
-0.157193
-0.155235
-0.149841
-0.141421
-0.129982
-0.116687
-0.103824
-0.0905062
-0.0759881
-0.0618079
-0.0494173
-0.0382638
-0.028459
-0.0209323
-0.0145983
-0.00889466
-0.00486301
-0.00238706
-0.000422101
0.00118114
0.00218372
0.00251013
0.00231556
0.00209821
0.00200437
0.00195991
0.00172576
0.0012993
0.000761055
0.000382572
0.000169257
3.12522e-05
-5.71613e-05
-0.00011205
-0.000136515
-0.00014091
-0.000124094
-9.74677e-05
-6.88753e-05
-3.35443e-05
-8.86314e-06
1.92263e-06
-0.0587276
-0.0787357
-0.0961236
-0.109666
-0.118675
-0.124081
-0.128328
-0.131372
-0.132149
-0.130389
-0.126725
-0.121918
-0.11453
-0.104272
-0.0923259
-0.0794787
-0.0669458
-0.0552527
-0.0447896
-0.0353973
-0.0269638
-0.0201681
-0.0145385
-0.00954251
-0.00584321
-0.00325886
-0.00115494
0.000427963
0.00144736
0.00201565
0.00212579
0.00192074
0.00176364
0.00168799
0.00145234
0.00103934
0.000594998
0.000288122
0.000119969
2.05261e-05
-4.3145e-05
-7.92305e-05
-9.40797e-05
-9.39489e-05
-7.46461e-05
-5.25211e-05
-2.73793e-05
-1.41185e-06
1.30112e-05
8.68068e-06
-0.0463235
-0.0628563
-0.0774838
-0.0890749
-0.0969532
-0.102142
-0.106077
-0.108526
-0.109639
-0.109571
-0.107702
-0.104045
-0.0979535
-0.0900337
-0.0814868
-0.0723224
-0.0625399
-0.0528316
-0.0440435
-0.0359127
-0.0282986
-0.0221211
-0.0167406
-0.0115534
-0.00763941
-0.00502533
-0.00281603
-0.00101613
0.00018603
0.000866849
0.00107064
0.00107596
0.00114606
0.00123877
0.0011282
0.000802948
0.000443003
0.000195701
6.86038e-05
3.85063e-06
-3.61204e-05
-5.19982e-05
-5.47563e-05
-4.62642e-05
-2.44956e-05
-5.04534e-06
1.59627e-05
3.19786e-05
3.49183e-05
1.53517e-05
-0.0357365
-0.0493728
-0.0615223
-0.0715718
-0.0785112
-0.0830633
-0.0866361
-0.0891629
-0.0907392
-0.090963
-0.0894817
-0.0873259
-0.083881
-0.0784822
-0.0716883
-0.0640056
-0.0561492
-0.0483267
-0.0406859
-0.0333409
-0.0264622
-0.0208055
-0.0159763
-0.0114487
-0.00796531
-0.00542021
-0.00314498
-0.00138116
-0.000246849
0.000525157
0.000911421
0.000946161
0.000975058
0.00105136
0.000944954
0.000643152
0.000317049
0.00011034
1.42726e-05
-1.85065e-05
-3.10312e-05
-2.43489e-05
-1.16276e-05
4.3934e-06
2.89073e-05
4.64301e-05
6.12654e-05
6.81917e-05
5.87456e-05
2.37687e-05
-0.0264942
-0.0378157
-0.0481651
-0.0566702
-0.0626773
-0.0668256
-0.0700563
-0.0723751
-0.0738613
-0.0743277
-0.0741115
-0.0734131
-0.0708349
-0.0665232
-0.0617386
-0.0564001
-0.0502628
-0.0435725
-0.0371189
-0.0311551
-0.0254856
-0.020693
-0.0164718
-0.0123135
-0.00901475
-0.00658761
-0.00433957
-0.00253015
-0.00133967
-0.000487954
2.15459e-05
0.000212334
0.000366786
0.000553283
0.000569628
0.000376485
0.000140477
-1.71215e-06
-5.18065e-05
-4.19426e-05
-2.31809e-05
5.98791e-06
3.40435e-05
5.63625e-05
8.5845e-05
0.0001006
0.000109461
0.000108123
8.45376e-05
3.30446e-05
-0.0184296
-0.0278976
-0.0366076
-0.0439253
-0.0492207
-0.0528732
-0.0557706
-0.0578586
-0.0593549
-0.0603417
-0.060625
-0.060198
-0.058632
-0.0562363
-0.0530586
-0.0486597
-0.043704
-0.0386775
-0.0337528
-0.0288204
-0.0238527
-0.0196043
-0.0158777
-0.0122146
-0.00929944
-0.00701667
-0.00472376
-0.00289566
-0.00176995
-0.000910495
-0.000286064
-1.87512e-05
0.000160098
0.000358981
0.00039092
0.00022028
1.1617e-05
-9.11673e-05
-0.000102792
-5.86602e-05
-1.39535e-05
3.63751e-05
8.04206e-05
0.000111061
0.000146304
0.000158252
0.000161892
0.000151124
0.000112131
4.29523e-05
-0.0114948
-0.019367
-0.0267366
-0.0330558
-0.0376896
-0.0409721
-0.0435366
-0.0454013
-0.0469469
-0.047973
-0.0484232
-0.0487929
-0.0483289
-0.0467052
-0.0442552
-0.041182
-0.0378126
-0.033983
-0.0299065
-0.0258641
-0.0218275
-0.0183347
-0.0151567
-0.0119104
-0.00930857
-0.00724309
-0.00508679
-0.00334825
-0.00229413
-0.00145451
-0.000783597
-0.000457406
-0.000252736
-1.98982e-05
7.80055e-05
-1.31874e-05
-0.000146861
-0.00018941
-0.000159136
-8.01801e-05
-6.22594e-06
6.81597e-05
0.000130485
0.000170513
0.000210848
0.000221042
0.000218423
0.000197093
0.000142386
5.37661e-05
-0.00556271
-0.012143
-0.0183615
-0.0237888
-0.0278723
-0.030794
-0.0330464
-0.0347366
-0.0361737
-0.0372529
-0.0381114
-0.0388832
-0.0387053
-0.0377599
-0.0364657
-0.0344756
-0.0319219
-0.0289666
-0.025938
-0.0229045
-0.0196463
-0.0166915
-0.0139729
-0.0112073
-0.00903561
-0.00724915
-0.00521942
-0.00356064
-0.00261688
-0.00185039
-0.00114589
-0.000744462
-0.000498573
-0.000253218
-0.000132875
-0.000183251
-0.000273458
-0.000277142
-0.000211864
-9.81421e-05
6.8279e-06
0.000105554
0.000186196
0.000235331
0.000280736
0.000289619
0.000279321
0.000247215
0.00017591
6.55769e-05
-0.000429662
-0.00594272
-0.0112191
-0.0158989
-0.0194908
-0.0220919
-0.0240917
-0.0256019
-0.0269657
-0.0280958
-0.0290279
-0.0299242
-0.0302192
-0.0300136
-0.0293526
-0.0279631
-0.026244
-0.0242364
-0.0220269
-0.019688
-0.0171026
-0.0147656
-0.0125721
-0.0102588
-0.00846219
-0.00695832
-0.00512936
-0.00361708
-0.00278514
-0.00207407
-0.00136247
-0.000946426
-0.000714925
-0.000485359
-0.000351191
-0.000364084
-0.000409414
-0.000366844
-0.000260157
-0.000109004
2.68896e-05
0.000149421
0.000248407
0.000307086
0.000357615
0.000364746
0.000346067
0.000302273
0.00021276
7.82105e-05
0.00395513
-0.000661731
-0.00514402
-0.00918395
-0.0123454
-0.0146673
-0.0164392
-0.01779
-0.019068
-0.0201498
-0.0211389
-0.0222351
-0.0228121
-0.022954
-0.0227724
-0.0220266
-0.0209855
-0.0196063
-0.0180408
-0.0163961
-0.014473
-0.0126644
-0.0109008
-0.00901698
-0.00762611
-0.00642542
-0.00480223
-0.00344983
-0.0027571
-0.00214526
-0.00147586
-0.0010703
-0.000855827
-0.00065121
-0.000524501
-0.000517314
-0.000526057
-0.000442227
-0.000296319
-0.000109787
5.5953e-05
0.000202435
0.000319861
0.000388374
0.000443188
0.000448162
0.000420066
0.00036312
0.000253536
9.33059e-05
0.00768206
0.00381784
9.78966e-06
-0.00347051
-0.00625294
-0.00832784
-0.00990248
-0.011132
-0.0123188
-0.0133437
-0.0143675
-0.0155102
-0.0162274
-0.016702
-0.0169031
-0.0165488
-0.0159922
-0.0151844
-0.0142094
-0.0131265
-0.0117266
-0.0103878
-0.00905046
-0.0075842
-0.00656173
-0.00563252
-0.00422695
-0.00307974
-0.00256113
-0.00206358
-0.00145186
-0.00108357
-0.000915944
-0.000759826
-0.000658176
-0.00064573
-0.000626429
-0.000503676
-0.000319575
-9.77786e-05
9.80805e-05
0.00026844
0.000403865
0.000481226
0.000539354
0.000540776
0.000501705
0.000428747
0.000297594
0.000105004
0.010843
0.00760256
0.00436914
0.00137119
-0.00108403
-0.00293442
-0.00434249
-0.00545715
-0.00654607
-0.00751591
-0.00852641
-0.00968074
-0.010507
-0.0111582
-0.0115801
-0.0115832
-0.0114503
-0.0110387
-0.0104837
-0.00986246
-0.00892921
-0.00801534
-0.00705523
-0.00596952
-0.00530547
-0.00465368
-0.00347568
-0.00253993
-0.00219091
-0.00180488
-0.00126822
-0.000968708
-0.000882538
-0.000807036
-0.000753103
-0.000743046
-0.000700955
-0.000544983
-0.000324272
-6.67722e-05
0.00015892
0.000352168
0.000504649
0.000590016
0.000651001
0.000648428
0.000597821
0.000507425
0.000353173
0.000139628
0.0135068
0.0107835
0.00803928
0.0054587
0.00329771
0.00164854
0.000388682
-0.000627305
-0.00163503
-0.00253142
-0.00349997
-0.00463009
-0.00549273
-0.00628656
-0.00691576
-0.00714481
-0.00724783
-0.00714662
-0.00698288
-0.00674155
-0.00615995
-0.00558346
-0.00494654
-0.00420417
-0.00386794
-0.00347235
-0.00252639
-0.00183457
-0.00168789
-0.00142996
-0.000976166
-0.000749942
-0.000744412
-0.000758931
-0.000776407
-0.000797721
-0.000749148
-0.00055821
-0.000304083
-1.37121e-05
0.000237287
0.000449534
0.000613585
0.000702151
0.000758727
0.000747861
0.000678381
0.000569108
0.000375711
0.000107467
0.0157497
0.0134562
0.0111281
0.00890735
0.00700101
0.00553219
0.00440384
0.00347343
0.00255087
0.00172719
0.000798787
-0.000288288
-0.00116537
-0.00202661
-0.00271646
-0.00308772
-0.00343724
-0.00361745
-0.00374122
-0.00378065
-0.0034892
-0.00319815
-0.00282894
-0.00237652
-0.00231607
-0.0021288
-0.00138178
-0.000914931
-0.000972434
-0.00087022
-0.000549114
-0.000456329
-0.000577132
-0.0006931
-0.000786172
-0.000832974
-0.000735191
-0.000513768
-0.000210524
0.00011823
0.000400819
0.000634994
0.000817399
0.000911124
0.000971696
0.000951196
0.000867639
0.000741304
0.000534261
0.000233937
0.0176254
0.0156873
0.0137161
0.0118056
0.0101233
0.00881635
0.00779986
0.00694336
0.0060947
0.00533786
0.00446676
0.00344735
0.00259252
0.00170996
0.000966706
0.000468022
-2.10036e-05
-0.000344883
-0.000674465
-0.000949912
-0.00090468
-0.000857677
-0.000725246
-0.000546035
-0.000750644
-0.000759173
-0.000202451
5.92105e-05
-0.000148777
-0.000141639
8.86459e-05
6.21306e-05
-0.000217916
-0.000515634
-0.000736167
-0.000859113
-0.000833575
-0.000550648
-0.000221713
0.000143352
0.000446396
0.000693243
0.00088026
0.00096585
0.0010151
0.000975694
0.000862018
0.000692086
0.000436154
0.000103443
0.0191914
0.0175445
0.0158773
0.0142322
0.0127456
0.011583
0.0106655
0.00987377
0.00909158
0.00839725
0.00758197
0.00663238
0.00580937
0.00492552
0.00417052
0.00361137
0.0030408
0.00259743
0.00209765
0.00167047
0.00156327
0.00143672
0.00139074
0.00135735
0.000940688
0.0007582
0.00110891
0.00112263
0.000707134
0.000563568
0.000657113
0.000507811
0.000141867
-0.000214742
-0.000534202
-0.00076243
-0.000518534
-0.000210934
0.000169008
0.000553261
0.000867572
0.00112308
0.00131142
0.00139301
0.00143346
0.00138236
0.00124753
0.00107271
0.000766124
0.000332428
0.0204952
0.0190869
0.0176813
0.0162641
0.0149523
0.0139229
0.0130949
0.0123593
0.0116316
0.0109857
0.0102172
0.00933856
0.00856074
0.00771129
0.00698477
0.00637886
0.00572916
0.0051904
0.00456998
0.00404188
0.00382007
0.00356092
0.00337961
0.00317295
0.00259945
0.00231241
0.00252633
0.002372
0.00183009
0.00158719
0.00153864
0.00116602
0.000523128
-9.41804e-05
-0.000549887
-0.00105571
-0.000734368
-0.000322024
7.38711e-05
0.000501289
0.000837042
0.00109428
0.00129006
0.0013376
0.00136665
0.00126658
0.00108665
0.000854783
0.000521036
0.000123896
0.0215665
0.0203612
0.0191842
0.0179589
0.016799
0.0158842
0.0151298
0.0144463
0.013772
0.0131769
0.012467
0.0116628
0.0109263
0.0101119
0.00941981
0.00880576
0.00814178
0.00755256
0.00683787
0.0062316
0.00591443
0.0055435
0.0052462
0.00487889
0.00416052
0.00377806
0.00384654
0.00351309
0.00285057
0.00252948
0.0023957
0.00197776
0.00136546
0.000786409
0.000419588
0.000748386
0.000404388
0.000563941
0.000900723
0.0012988
0.00159292
0.00184593
0.00200058
0.00203648
0.00204092
0.00191469
0.00171382
0.00144494
0.00100265
0.00042038
0.0224396
0.0214057
0.0204207
0.0193544
0.0183267
0.0175078
0.0168146
0.0161707
0.0155378
0.0149802
0.0143201
0.0135972
0.0129125
0.0121476
0.0114916
0.0108672
0.0102207
0.00962115
0.00885458
0.00822902
0.00786709
0.00743778
0.00708005
0.00659866
0.00578218
0.0053331
0.00524636
0.0047334
0.0039713
0.00353474
0.0031658
0.00237748
0.00137018
0.000527751
5.28262e-05
-0.000342173
-9.54777e-05
0.000333883
0.000762014
0.00122769
0.00154379
0.00177786
0.00193257
0.00189935
0.00187479
0.00167735
0.0014139
0.00110897
0.000670152
0.000183632
0.0231389
0.0222575
0.0214451
0.0205186
0.0196162
0.0188749
0.0182251
0.0176107
0.0170045
0.0164775
0.0158661
0.0152177
0.0145831
0.0138703
0.0132459
0.0126018
0.0119542
0.0113406
0.0105531
0.00993546
0.00953984
0.00907614
0.00868219
0.00811559
0.00726254
0.00683745
0.00669734
0.0061075
0.00531155
0.00487247
0.00448425
0.00375206
0.00280631
0.00183019
0.00111935
0.00101897
0.00115688
0.00152739
0.00192871
0.00235969
0.00258055
0.00281729
0.00286164
0.0028245
0.00275374
0.0024813
0.00221675
0.00179295
0.00119545
0.000493778
0.0236535
0.0229055
0.0222295
0.0214313
0.0206519
0.0199918
0.019384
0.0187902
0.0182031
0.0176853
0.0171133
0.0165346
0.0159597
0.015329
0.0147481
0.0141138
0.013485
0.0128459
0.0120649
0.0114874
0.0110633
0.0105742
0.0101348
0.00947992
0.00859022
0.00811667
0.00779854
0.00709086
0.00626024
0.00564509
0.00483244
0.00357111
0.00225206
0.00127932
0.000888994
0.000699147
0.00106267
0.00155572
0.00203145
0.00246499
0.00267311
0.00283856
0.00282786
0.00271851
0.00254843
0.00222898
0.00189552
0.00143566
0.000903156
0.000300612
0.0240469
0.0234206
0.0228379
0.0221349
0.0214523
0.0208354
0.0202649
0.0196871
0.0191191
0.0186216
0.0180822
0.0175616
0.0170164
0.0164381
0.0158905
0.0152698
0.0146886
0.0140648
0.0133114
0.012788
0.0123617
0.0119306
0.0115369
0.0108642
0.0100501
0.00974106
0.0094522
0.008759
0.00799703
0.00755052
0.00689259
0.00585732
0.00445273
0.00304387
0.00226143
0.00212259
0.00257338
0.00293512
0.00342257
0.00369618
0.00382567
0.00394587
0.00376493
0.0036921
0.00337962
0.0030159
0.00264532
0.00200232
0.00134947
0.000552489
0.0242959
0.0237663
0.0232496
0.0226232
0.0220091
0.0214162
0.0208495
0.0202956
0.0197583
0.0192855
0.0187978
0.0183132
0.0177925
0.0172394
0.016688
0.0160997
0.0155487
0.0149323
0.0142284
0.0136977
0.0132291
0.0128268
0.0124241
0.0117224
0.0108989
0.010542
0.0101892
0.00957891
0.00877339
0.00800065
0.00662128
0.00510429
0.00374859
0.00292461
0.00277556
0.00291621
0.00338601
0.00361969
0.00405961
0.00403855
0.00419192
0.00404654
0.00384459
0.00369716
0.00322584
0.00290587
0.00242269
0.00176471
0.00120064
0.00043846
0.024465
0.0240091
0.0234781
0.0228983
0.0223388
0.0217762
0.0212045
0.0206495
0.0201163
0.0196342
0.0191849
0.0187466
0.0182701
0.0177338
0.0171648
0.016623
0.0160541
0.0154767
0.014922
0.014407
0.0139321
0.0136999
0.0132639
0.0126505
0.0121087
0.012004
0.0115993
0.0113161
0.0110115
0.0109696
0.0100104
0.00837138
0.00620491
0.00489296
0.00434422
0.00426512
0.00473415
0.00474262
0.00513998
0.00487224
0.00496411
0.00466154
0.00438276
0.0042146
0.00361375
0.00335206
0.00276195
0.00204517
0.00147272
0.000546659
0.0658542
0.0527446
0.0434061
0.0265591
0.00517431
-0.0142862
-0.0487028
-0.0876879
-0.138381
-0.19587
0.0601517
0.046612
0.0354512
0.0204782
-0.00286208
-0.0189813
-0.0488369
-0.0748848
-0.110754
-0.150967
0.0549975
0.0415898
0.0331919
0.0187501
-6.9648e-06
-0.0103618
-0.0315123
-0.052201
-0.0802336
-0.114635
0.0507267
0.0383168
0.0321462
0.0177613
0.00351638
-0.0057638
-0.0245169
-0.0440768
-0.0691287
-0.097616
0.048114
0.0363507
0.0311327
0.0179936
0.00533471
-0.00467571
-0.0222764
-0.0389159
-0.0586496
-0.080599
0.0452952
0.0346562
0.0295411
0.018384
0.00661614
-0.00269037
-0.0169339
-0.0302633
-0.0462562
-0.0647152
0.0427532
0.0336619
0.0280234
0.0191513
0.00882886
0.000623468
-0.0109891
-0.023012
-0.0370799
-0.0526349
0.0402714
0.032692
0.0267839
0.0197247
0.0108653
0.0030473
-0.00690088
-0.0174816
-0.0293513
-0.0419854
0.0380028
0.031859
0.0261171
0.020106
0.01259
0.00537851
-0.00300161
-0.0118024
-0.0216573
-0.0323548
0.0359759
0.0309582
0.0257882
0.0205609
0.014313
0.00794868
0.00080066
-0.00659619
-0.015004
-0.024174
0.0343046
0.0301318
0.0257404
0.0212257
0.015957
0.0103288
0.00414754
-0.00215025
-0.00922244
-0.0169223
0.0329676
0.0294505
0.0257728
0.0218958
0.0173993
0.0124815
0.00719276
0.00189889
-0.00399148
-0.0104525
0.0319014
0.028924
0.0258308
0.0225531
0.0187542
0.0145346
0.0100493
0.005549
0.000594752
-0.00483954
0.0310298
0.0285382
0.0259446
0.0232051
0.0200201
0.0164211
0.0125927
0.00872214
0.00456097
7.83716e-06
0.0303337
0.0282763
0.026101
0.0238247
0.0211593
0.0180921
0.0148234
0.011516
0.00804921
0.00423511
0.0298051
0.0280959
0.0262711
0.0243951
0.0221727
0.0195694
0.0167872
0.0139857
0.0110898
0.00786993
0.0293933
0.0279653
0.026445
0.0249132
0.0230691
0.0208645
0.0184992
0.0161272
0.0136986
0.0109708
0.0290963
0.0278912
0.0266173
0.0253702
0.0238417
0.021979
0.0199629
0.0179589
0.0159267
0.0136098
0.0288982
0.0278681
0.0267892
0.0257658
0.0244993
0.0229293
0.0212086
0.0195254
0.0178247
0.0158453
0.0287767
0.0278859
0.0269551
0.0261031
0.0250568
0.0237338
0.0222608
0.0208538
0.0194286
0.0177303
0.0287131
0.0279309
0.0271103
0.0263905
0.0255291
0.024409
0.0231405
0.0219686
0.0207689
0.0193071
0.0286885
0.0279941
0.0272586
0.0266411
0.0259263
0.0249673
0.0238718
0.0228999
0.0218852
0.0206258
0.0286874
0.0280646
0.0273921
0.0268519
0.0262549
0.0254274
0.0244826
0.0236787
0.0228137
0.021728
0.0286978
0.0281322
0.0275134
0.0270321
0.0265246
0.0258026
0.0249795
0.0243045
0.0235608
0.0226302
0.028709
0.0281902
0.0276179
0.0271851
0.0267422
0.026104
0.025383
0.0248013
0.0241586
0.0233672
0.0287064
0.0282327
0.0277026
0.0272995
0.0269162
0.0263569
0.025718
0.0251998
0.0246347
0.02396
0.0286889
0.0282443
0.0277552
0.0273827
0.0270353
0.0265342
0.0259554
0.0254754
0.0249741
0.024386
0.0287128
0.0282654
0.0277545
0.0274057
0.0271404
0.0266837
0.0261285