/*--------------------------------*- C++ -*----------------------------------*\
| =========                 |                                                 |
| \\      /  F ield         | OpenFOAM: The Open Source CFD Toolbox           |
|  \\    /   O peration     | Version:  2312                                  |
|   \\  /    A nd           | Website:  www.openfoam.com                      |
|    \\/     M anipulation  |                                                 |
\*---------------------------------------------------------------------------*/
FoamFile
{
    version     2.0;
    format      ascii;
    arch        "LSB;label=32;scalar=64";
    class       volVectorField;
    location    "19";
    object      U;
}
// * * * * * * * * * * * * * * * * * * * * * * * * * * * * * * * * * * * * * //

dimensions      [0 1 -1 0 0 0 0];

internalField   nonuniform List<vector> 
2300
(
(-0.060162 0.0317316 0)
(-0.0453289 0.0398768 1.33562e-19)
(0.130766 0.0379497 -7.23319e-20)
(0.418614 0.0426617 -2.90308e-20)
(0.715384 0.0555582 0)
(0.974047 0.0716889 -4.09639e-20)
(1.16467 0.0856321 1.63854e-19)
(1.27765 0.0730527 -2.96351e-20)
(1.33551 0.0806473 8.69396e-20)
(1.31627 0.0130318 -1.05747e-19)
(-0.0690737 0.0253491 5.89187e-20)
(0.0779614 0.00721586 -4.54812e-20)
(0.464283 0.0338488 7.22849e-20)
(0.831665 0.0740039 2.63967e-20)
(1.09133 0.107132 4.36005e-20)
(1.23304 0.1278 -1.14038e-19)
(1.27649 0.117848 -3.23437e-21)
(1.26291 0.109191 -3.40121e-21)
(1.21001 0.0666462 0)
(1.16668 0.0457863 1.88519e-20)
(-0.0289335 0.000158835 6.25319e-20)
(0.376732 0.0179453 -3.31681e-21)
(0.849535 0.0956667 -1.13199e-19)
(1.12457 0.144593 6.08661e-20)
(1.22361 0.160189 -4.30106e-20)
(1.22047 0.145148 1.02107e-19)
(1.19216 0.128088 -8.35272e-20)
(1.16973 0.0990238 -6.22604e-20)
(1.17663 0.086611 3.35918e-20)
(1.20235 0.0708763 7.30335e-20)
(0.0942527 -0.00467516 1.70131e-20)
(0.730403 0.106676 -5.01952e-20)
(1.08907 0.181863 4.1274e-20)
(1.1961 0.19768 0)
(1.19655 0.181814 9.92401e-21)
(1.19021 0.167561 2.97925e-20)
(1.19406 0.148864 -2.48685e-20)
(1.19587 0.138161 3.41845e-20)
(1.18453 0.113971 -2.63509e-21)
(1.15927 0.0983192 -5.31532e-20)
(0.314464 0.0517756 1.76679e-20)
(0.955057 0.208306 0)
(1.16479 0.250846 0)
(1.19807 0.239583 0)
(1.19419 0.22268 -9.9534e-21)
(1.17935 0.201139 0)
(1.15363 0.179609 0)
(1.1223 0.149395 -6.95105e-21)
(1.11188 0.128951 5.83001e-21)
(1.12077 0.115903 -3.94179e-21)
(-0.0401137 0.0981686 1.21121e-20)
(-0.126659 0.132802 0)
(-0.212036 0.130573 0)
(-0.265529 0.128008 0)
(-0.304535 0.126843 -1.42957e-20)
(-0.325636 0.12547 0)
(-0.335796 0.1268 0)
(-0.328563 0.117085 2.00462e-20)
(-0.317106 0.11891 -1.68101e-20)
(-0.281266 0.0899829 1.51448e-20)
(-0.0331393 0.148557 -3.73641e-20)
(-0.0747608 0.218801 4.36942e-20)
(-0.107957 0.211618 -3.59484e-20)
(-0.118411 0.190832 0)
(-0.114635 0.17335 1.42502e-20)
(-0.0826618 0.154395 -5.25093e-20)
(-0.06432 0.145619 4.38206e-20)
(0.0172277 0.117401 -8.10938e-20)
(0.0453714 0.105342 6.80001e-20)
(0.184455 0.0787909 3.17806e-20)
(-0.0303209 0.1295 -5.36112e-20)
(-0.042501 0.231202 -5.58969e-22)
(-0.0263708 0.246334 1.12651e-19)
(0.014503 0.224639 -6.2746e-20)
(0.0520553 0.192007 5.74222e-20)
(0.149101 0.168954 -1.48965e-19)
(0.171018 0.133578 4.24704e-20)
(0.367905 0.112646 4.12018e-20)
(0.36347 0.0749819 -6.5122e-20)
(0.640939 0.0442115 -6.01369e-20)
(-0.0285661 0.0740241 -5.45361e-20)
(-0.0384789 0.165383 -4.37856e-20)
(-0.00341976 0.19313 -7.24913e-20)
(0.0665599 0.184194 2.79172e-20)
(0.148688 0.154568 -5.53407e-20)
(0.309528 0.13013 4.46882e-20)
(0.409675 0.0995482 3.72042e-21)
(0.670725 0.0730533 3.20438e-21)
(0.739482 0.0384581 1.24171e-19)
(1.04524 0.0145154 -8.32399e-20)
(-0.0392937 0.0383237 0)
(-0.0584069 0.0888058 4.38998e-20)
(-0.00384472 0.103724 6.99846e-20)
(0.132868 0.094654 -8.73528e-20)
(0.336842 0.0829782 0)
(0.564703 0.0642536 1.29859e-19)
(0.800506 0.0643836 -1.075e-19)
(1.00615 0.0419161 9.53052e-20)
(1.16441 0.0355723 -1.07035e-19)
(1.32686 0.0128401 4.09757e-20)
(-0.264608 0.0768253 -1.07651e-20)
(-0.223311 0.0327102 0)
(-0.17796 -0.0233831 2.90872e-22)
(-0.101433 -0.0950277 0)
(-0.0087082 -0.174005 1.92177e-22)
(0.102022 -0.240644 0)
(0.220683 -0.271426 9.06824e-22)
(0.3459 -0.260616 -8.43543e-22)
(0.471141 -0.21837 0)
(0.592145 -0.1684 5.7536e-23)
(0.695323 -0.125984 0)
(0.777559 -0.0975938 -7.38184e-22)
(0.834218 -0.0772213 8.10206e-23)
(0.870957 -0.0668298 4.33494e-22)
(0.891149 -0.0554951 6.38853e-23)
(0.907485 -0.053712 -4.5868e-23)
(0.921158 -0.0395954 0)
(0.937436 -0.0395095 0)
(0.951348 -0.0186422 0)
(0.963361 -0.0215541 0)
(0.971363 0.0011159 0)
(0.976871 -0.00290376 5.27017e-24)
(0.980529 0.0184147 -4.92818e-24)
(0.982459 0.0163011 9.63168e-24)
(0.985459 0.0395109 0)
(0.205739 0.0382891 -4.27617e-20)
(0.274736 -0.0199862 4.22772e-20)
(0.34045 -0.0925383 -3.9585e-20)
(0.418638 -0.178776 3.08793e-20)
(0.511323 -0.269734 -5.9576e-21)
(0.60442 -0.33604 -3.47473e-20)
(0.694749 -0.36055 1.2574e-20)
(0.777151 -0.343446 0)
(0.843027 -0.290266 -2.15439e-23)
(0.896276 -0.225733 -5.85624e-23)
(0.93569 -0.167139 0)
(0.962421 -0.123875 8.59795e-23)
(0.97817 -0.090502 6.32605e-23)
(0.986075 -0.0698644 -1.252e-21)
(0.983746 -0.0524778 1.55534e-21)
(0.977736 -0.0495805 -3.76819e-22)
(0.969628 -0.0372213 3.06934e-22)
(0.967141 -0.0393215 -4.93352e-23)
(0.967476 -0.0197829 -3.66353e-23)
(0.971522 -0.023022 -1.82261e-22)
(0.975648 -0.000155974 4.70845e-23)
(0.979388 -0.00380439 0)
(0.982774 0.0178053 0)
(0.984397 0.0158654 4.10011e-25)
(0.987693 0.0391734 6.34098e-24)
(0.654133 -0.00214927 1.75997e-19)
(0.713286 -0.0663315 1.54588e-21)
(0.775892 -0.137537 -7.89139e-20)
(0.838198 -0.22169 0)
(0.904342 -0.307964 -4.82153e-20)
(0.964773 -0.379916 4.46686e-20)
(1.00445 -0.410501 0)
(1.01515 -0.385833 0)
(1.00206 -0.322641 2.24175e-23)
(0.983342 -0.245773 0)
(0.971987 -0.179003 1.02079e-22)
(0.966731 -0.132362 0)
(0.967006 -0.0978379 1.48317e-21)
(0.971638 -0.0759249 -2.29759e-22)
(0.976831 -0.0556713 -1.96131e-22)
(0.979679 -0.0502665 -8.9768e-22)
(0.978763 -0.0367644 -6.81367e-23)
(0.97745 -0.0393261 -4.96873e-23)
(0.976077 -0.0203887 0)
(0.977251 -0.024071 -2.61656e-23)
(0.979419 -0.00129041 -1.06008e-24)
(0.981838 -0.00473018 0)
(0.985039 0.0171222 -3.40837e-24)
(0.986319 0.0153437 -2.34942e-23)
(0.989926 0.0388054 -6.32262e-24)
(1.05027 -0.0368933 6.9777e-22)
(1.09184 -0.0905631 0)
(1.13798 -0.159117 0)
(1.17752 -0.239983 -6.36396e-20)
(1.20674 -0.320508 5.98583e-20)
(1.21029 -0.378924 0)
(1.18055 -0.395739 2.07108e-22)
(1.1127 -0.366042 -2.39535e-22)
(1.02659 -0.299613 0)
(0.956132 -0.227844 -1.619e-21)
(0.916895 -0.167715 1.39193e-21)
(0.904827 -0.126319 0)
(0.90857 -0.0952824 8.1468e-23)
(0.921416 -0.0755749 0)
(0.938165 -0.056864 -1.7588e-21)
(0.954615 -0.0516928 1.67619e-21)
(0.966389 -0.037468 5.66871e-22)
(0.974049 -0.0396243 -7.79638e-22)
(0.97749 -0.0208281 3.42133e-22)
(0.980041 -0.0247332 0)
(0.982323 -0.00216976 -8.10173e-23)
(0.984139 -0.00545699 8.21922e-23)
(0.987352 0.0164371 7.37725e-23)
(0.988262 0.0147642 -1.69235e-23)
(0.992177 0.0383489 0)
(1.32353 -0.0355197 8.01357e-20)
(1.33765 -0.0720072 -7.41995e-20)
(1.34641 -0.126768 0)
(1.34764 -0.193658 -5.38107e-22)
(1.33066 -0.263057 -4.48737e-22)
(1.28138 -0.316874 -3.76262e-20)
(1.1926 -0.339545 3.45544e-20)
(1.08531 -0.326188 -1.45859e-20)
(0.99106 -0.2863 2.05914e-20)
(0.931558 -0.241669 -6.34784e-21)
(0.910369 -0.195655 1.24091e-21)
(0.913338 -0.15643 -1.14498e-21)
(0.925122 -0.121287 -2.54431e-21)
(0.93929 -0.0963127 4.43436e-21)
(0.952161 -0.0721071 -1.99922e-21)
(0.964439 -0.0624413 4.76145e-23)
(0.972548 -0.0442252 9.74952e-22)
(0.978341 -0.0435919 -5.71998e-22)
(0.981044 -0.0229582 -3.59753e-22)
(0.983172 -0.0259787 2.08488e-22)
(0.985287 -0.00336577 -2.12144e-22)
(0.986484 -0.00630255 -5.00896e-23)
(0.989745 0.0157642 3.32689e-23)
(0.990244 0.0142725 1.79115e-23)
(0.994475 0.0379614 0)
(1.28633 -0.0165027 0)
(1.30041 -0.054782 0)
(1.29446 -0.0954021 0)
(1.27569 -0.14083 0)
(1.24147 -0.185958 0)
(1.18877 -0.222645 0)
(1.12371 -0.239054 0)
(1.06081 -0.236861 0)
(1.01429 -0.225533 0)
(0.985965 -0.20322 0)
(0.971148 -0.173926 0)
(0.965477 -0.146075 0)
(0.964675 -0.117983 0)
(0.967647 -0.0970534 0)
(0.972105 -0.0739859 0)
(0.977711 -0.0644749 0)
(0.981398 -0.0460991 0)
(0.983997 -0.0453364 0)
(0.985172 -0.0246113 0)
(0.98607 -0.0273156 0)
(0.987921 -0.00432493 0)
(0.988651 -0.00701575 0)
(0.992021 0.0148877 0)
(0.992186 0.0135756 0)
(0.996673 0.0373722 0)
(1.22918 -0.0218456 0)
(1.24601 -0.060552 0)
(1.24409 -0.0997764 0)
(1.22849 -0.139815 0)
(1.20414 -0.180313 0)
(1.17296 -0.215587 0)
(1.13317 -0.239901 0)
(1.09298 -0.248743 0)
(1.05602 -0.240814 0)
(1.02254 -0.219062 0)
(0.997493 -0.188113 0)
(0.983014 -0.157334 0)
(0.976026 -0.126101 0)
(0.973778 -0.102563 0)
(0.974457 -0.0783083 0)
(0.977703 -0.0675157 0)
(0.981025 -0.047733 0)
(0.983885 -0.0457751 0)
(0.986082 -0.0243894 0)
(0.987455 -0.0271072 0)
(0.989896 -0.00426447 0)
(0.990319 -0.00726372 0)
(0.994014 0.0146332 0)
(0.994006 0.0131997 0)
(0.998829 0.0369431 0)
(1.19414 -0.028724 0)
(1.21072 -0.0593853 0)
(1.21164 -0.0907704 0)
(1.20044 -0.122134 0)
(1.18253 -0.151887 0)
(1.15814 -0.176979 0)
(1.1272 -0.194161 0)
(1.09207 -0.19921 0)
(1.05528 -0.191829 0)
(1.02171 -0.175556 0)
(0.996221 -0.154206 0)
(0.980841 -0.133571 0)
(0.97382 -0.110381 0)
(0.9731 -0.0923229 0)
(0.975684 -0.071918 0)
(0.980337 -0.0640966 0)
(0.984175 -0.0463758 0)
(0.986838 -0.0457756 0)
(0.988818 -0.0249883 0)
(0.989645 -0.0279011 0)
(0.992303 -0.00489474 0)
(0.992563 -0.00771631 0)
(0.996532 0.0142758 0)
(0.996204 0.0128068 0)
(1.00131 0.0364785 0)
(1.16468 -0.0349122 0)
(1.17888 -0.0594067 0)
(1.18141 -0.0859065 0)
(1.174 -0.112418 0)
(1.15975 -0.136958 0)
(1.14045 -0.159112 0)
(1.11645 -0.175908 0)
(1.08856 -0.184718 0)
(1.05973 -0.185295 0)
(1.03446 -0.177609 0)
(1.01443 -0.160378 0)
(1.00043 -0.141401 0)
(0.991944 -0.119966 0)
(0.988248 -0.103707 0)
(0.987418 -0.0830704 0)
(0.989071 -0.0728351 0)
(0.990832 -0.0516425 0)
(0.991825 -0.0483318 0)
(0.993201 -0.0259777 0)
(0.993308 -0.0284374 0)
(0.995747 -0.00547724 0)
(0.995108 -0.00854471 0)
(0.999158 0.0133502 0)
(0.998589 0.0119046 0)
(1.00408 0.0356212 0)
(1.13935 -0.0433696 0)
(1.15118 -0.0624799 0)
(1.15501 -0.0832965 0)
(1.15041 -0.103938 0)
(1.14021 -0.123306 0)
(1.12639 -0.139447 0)
(1.10839 -0.151483 0)
(1.08849 -0.15874 0)
(1.06748 -0.158071 0)
(1.04633 -0.15076 0)
(1.02729 -0.137561 0)
(1.01332 -0.123781 0)
(1.00472 -0.105615 0)
(0.999589 -0.0908562 0)
(0.996112 -0.0717576 0)
(0.994859 -0.0644235 0)
(0.995053 -0.0464368 0)
(0.995128 -0.0459047 0)
(0.996396 -0.0248035 0)
(0.995958 -0.0281327 0)
(0.998849 -0.00517722 0)
(0.998169 -0.0082151 0)
(1.00264 0.0136359 0)
(1.00163 0.0121651 0)
(1.00743 0.0353588 0)
(1.11965 -0.0510469 0)
(1.12921 -0.0655058 0)
(1.13298 -0.0814424 0)
(1.13048 -0.0973556 0)
(1.12326 -0.111684 0)
(1.11319 -0.123964 0)
(1.10033 -0.133499 0)
(1.08551 -0.139869 0)
(1.06863 -0.14144 0)
(1.05186 -0.139167 0)
(1.03647 -0.130857 0)
(1.02314 -0.120791 0)
(1.01317 -0.10639 0)
(1.00689 -0.0956687 0)
(1.00335 -0.0788324 0)
(1.00219 -0.0714982 0)
(1.00218 -0.0515375 0)
(1.00134 -0.0494573 0)
(1.00235 -0.0271378 0)
(1.00116 -0.0300689 0)
(1.00369 -0.007001 0)
(1.0016 -0.0102088 0)
(1.00596 0.0113219 0)
(1.00457 0.00977248 0)
(1.01077 0.0331222 0)
(1.10421 -0.0553215 0)
(1.1118 -0.0666656 0)
(1.11534 -0.0787295 0)
(1.11411 -0.0905945 0)
(1.1093 -0.101261 0)
(1.10245 -0.110331 0)
(1.09315 -0.117384 0)
(1.08286 -0.122784 0)
(1.07079 -0.124314 0)
(1.05761 -0.122771 0)
(1.04495 -0.116143 0)
(1.03388 -0.108325 0)
(1.02566 -0.0955442 0)
(1.01944 -0.0857099 0)
(1.01416 -0.0693684 0)
(1.01049 -0.0638279 0)
(1.00884 -0.0454443 0)
(1.0064 -0.045055 0)
(1.00678 -0.0233879 0)
(1.00441 -0.0273335 0)
(1.00755 -0.00473618 0)
(1.00543 -0.0080563 0)
(1.01066 0.013193 0)
(1.00875 0.0118637 0)
(1.01549 0.034156 0)
(1.09363 -0.0634433 0)
(1.09948 -0.0720845 0)
(1.10241 -0.0808504 0)
(1.10196 -0.0894664 0)
(1.09867 -0.0970209 0)
(1.09397 -0.103321 0)
(1.08739 -0.108016 0)
(1.08009 -0.111835 0)
(1.07117 -0.112956 0)
(1.0616 -0.112098 0)
(1.05243 -0.106957 0)
(1.04271 -0.101382 0)
(1.03424 -0.0913411 0)
(1.02742 -0.0849469 0)
(1.02186 -0.0710115 0)
(1.01796 -0.0672828 0)
(1.01653 -0.049273 0)
(1.01349 -0.0495716 0)
(1.01396 -0.02761 0)
(1.0109 -0.0317411 0)
(1.01367 -0.00881435 0)
(1.00983 -0.0123216 0)
(1.01461 0.00837456 0)
(1.0121 0.00669386 0)
(1.01906 0.0289473 0)
(1.087 -0.0628593 0)
(1.09143 -0.0692888 0)
(1.09396 -0.0757126 0)
(1.0941 -0.0820079 0)
(1.09208 -0.0872138 0)
(1.08917 -0.0912868 0)
(1.08455 -0.0941002 0)
(1.07957 -0.0965477 0)
(1.07342 -0.0968311 0)
(1.06619 -0.0959362 0)
(1.05896 -0.0917532 0)
(1.05088 -0.0879171 0)
(1.04387 -0.0790086 0)
(1.03787 -0.0738254 0)
(1.03206 -0.060076 0)
(1.02669 -0.0572503 0)
(1.02439 -0.0395031 0)
(1.01971 -0.0410266 0)
(1.01978 -0.0194474 0)
(1.01482 -0.0246521 0)
(1.01879 -0.00299722 0)
(1.01434 -0.00662296 0)
(1.02079 0.0130626 0)
(1.0177 0.0119202 0)
(1.02574 0.032682 0)
(1.08556 -0.0737581 0)
(1.08866 -0.0785203 0)
(1.09056 -0.0831822 0)
(1.09071 -0.0875206 0)
(1.08918 -0.0907528 0)
(1.08711 -0.0930511 0)
(1.08362 -0.0942759 0)
(1.07993 -0.0953548 0)
(1.07536 -0.0947272 0)
(1.06976 -0.0935956 0)
(1.06452 -0.089491 0)
(1.05803 -0.0864664 0)
(1.05192 -0.0785203 0)
(1.04618 -0.075379 0)
(1.04073 -0.0630046 0)
(1.03504 -0.0623709 0)
(1.03312 -0.0452095 0)
(1.02785 -0.0486938 0)
(1.02814 -0.0267667 0)
(1.02239 -0.0330086 0)
(1.0258 -0.0106666 0)
(1.01966 -0.0147195 0)
(1.02529 0.00416774 0)
(1.02124 0.0025638 0)
(1.02906 0.0224275 0)
(1.08865 -0.0634786 0)
(1.09088 -0.0672725 0)
(1.09236 -0.0707469 0)
(1.09246 -0.0737629 0)
(1.09127 -0.0756889 0)
(1.08986 -0.0766637 0)
(1.08719 -0.0765535 0)
(1.08441 -0.076481 0)
(1.08103 -0.0749038 0)
(1.07646 -0.0731864 0)
(1.07236 -0.0688184 0)
(1.06657 -0.0662733 0)
(1.06108 -0.0584848 0)
(1.05564 -0.0563508 0)
(1.05065 -0.0444659 0)
(1.04349 -0.0450267 0)
(1.04148 -0.0279708 0)
(1.03399 -0.0327087 0)
(1.03529 -0.0117848 0)
(1.02642 -0.0190787 0)
(1.03257 0.000770913 0)
(1.02451 -0.0032639 0)
(1.03279 0.0134822 0)
(1.02815 0.0124206 0)
(1.03783 0.0305129 0)
(1.09669 -0.0823035 0)
(1.09779 -0.0849751 0)
(1.09847 -0.0871824 0)
(1.09803 -0.0888673 0)
(1.09664 -0.0894431 0)
(1.09513 -0.0889851 0)
(1.09264 -0.0875759 0)
(1.08981 -0.0860361 0)
(1.08678 -0.0832459 0)
(1.08246 -0.0807636 0)
(1.07892 -0.0757191 0)
(1.07367 -0.0730519 0)
(1.0691 -0.0653902 0)
(1.06346 -0.0644668 0)
(1.05899 -0.0523218 0)
(1.05161 -0.0550174 0)
(1.05028 -0.0374721 0)
(1.04233 -0.0457405 0)
(1.04389 -0.0234288 0)
(1.03424 -0.0330718 0)
(1.03968 -0.0122688 0)
(1.03008 -0.0166113 0)
(1.03755 -0.00193603 0)
(1.03154 -0.00277279 0)
(1.04051 0.0125553 0)
(1.11845 -0.0547136 0)
(1.11807 -0.0570225 0)
(1.11769 -0.0589163 0)
(1.11622 -0.0601556 0)
(1.11408 -0.0603404 0)
(1.11171 -0.0594663 0)
(1.1088 -0.0574325 0)
(1.10497 -0.0553349 0)
(1.10171 -0.0522811 0)
(1.09612 -0.0492563 0)
(1.09256 -0.0442001 0)
(1.08569 -0.0419179 0)
(1.08132 -0.0344638 0)
(1.07363 -0.0338689 0)
(1.07071 -0.0230979 0)
(1.05972 -0.0271721 0)
(1.06036 -0.010874 0)
(1.04728 -0.0194456 0)
(1.05269 0.000551399 0)
(1.03719 -0.00967993 0)
(1.04769 0.00719362 0)
(1.03429 0.00276818 0)
(1.04524 0.0143857 0)
(1.0385 0.0135762 0)
(1.04997 0.0267333 0)
(1.13527 -0.079504 0)
(1.13335 -0.0805079 0)
(1.1319 -0.0810967 0)
(1.12915 -0.0807451 0)
(1.12611 -0.0798593 0)
(1.12256 -0.0771811 0)
(1.11906 -0.074212 0)
(1.1142 -0.070222 0)
(1.11058 -0.0662067 0)
(1.10362 -0.0617373 0)
(1.10039 -0.0569061 0)
(1.09225 -0.0529734 0)
(1.08856 -0.0465225 0)
(1.07947 -0.0462894 0)
(1.07799 -0.036169 0)
(1.06513 -0.0407912 0)
(1.06645 -0.0245914 0)
(1.05225 -0.0367225 0)
(1.05885 -0.0170253 0)
(1.04328 -0.028675 0)
(1.05346 -0.0140892 0)
(1.03897 -0.0161397 0)
(1.0494 -0.0103336 0)
(1.04107 -0.00964748 0)
(1.05169 -0.00196175 0)
(1.23111 -0.021789 0)
(1.22206 -0.0233266 0)
(1.21422 -0.024297 0)
(1.20326 -0.0243944 0)
(1.19403 -0.0241726 0)
(1.18068 -0.0219981 0)
(1.1723 -0.0204205 0)
(1.15628 -0.017359 0)
(1.15034 -0.0137881 0)
(1.13123 -0.0106522 0)
(1.12999 -0.00735662 0)
(1.10711 -0.00347969 0)
(1.11253 -2.28084e-05 0)
(1.08488 -0.000662363 0)
(1.09769 0.0064609 0)
(1.06517 0.00375003 0)
(1.08425 0.0131881 0)
(1.05294 0.00251993 0)
(1.06942 0.0141933 0)
(1.04567 0.00581863 0)
(1.05683 0.0142906 0)
(1.04243 0.0132363 0)
(1.05429 0.0151355 0)
(1.04432 0.0153588 0)
(1.05789 0.0198796 0)
(1.14746 0.089609 3.07821e-22)
(1.11353 0.0766798 2.77179e-20)
(1.21707 0.0603637 -7.01642e-20)
(1.16251 0.0422578 -3.31775e-22)
(1.25367 0.0256903 0)
(1.14175 0.077978 2.25386e-21)
(1.09894 0.0567397 -1.14035e-20)
(1.1771 0.0458535 2.87911e-20)
(1.15819 0.020685 2.99519e-20)
(1.19837 0.0122941 -3.86979e-20)
(1.11907 0.0505196 0)
(1.10551 0.0286638 2.56055e-22)
(1.13908 0.022455 1.69886e-20)
(1.14585 -0.000171921 -2.6567e-20)
(1.16673 -0.00467757 6.44574e-21)
(1.10127 0.0348178 7.88309e-23)
(1.105 0.0152106 5.11996e-21)
(1.11842 0.00984832 -1.49529e-20)
(1.13058 -0.0102382 1.49797e-20)
(1.14407 -0.0147803 2.36281e-20)
(1.09224 0.0157275 0)
(1.09845 -0.00176304 -4.37623e-21)
(1.1053 -0.00615305 3.12092e-22)
(1.11507 -0.0233324 -2.35331e-20)
(1.12348 -0.0272362 0)
(1.08619 0.000221342 -6.02036e-22)
(1.09116 -0.0148592 2.57929e-22)
(1.09478 -0.0198591 2.59666e-23)
(1.10239 -0.0336471 8.88155e-21)
(1.10768 -0.0385119 -2.80104e-22)
(1.08145 -0.012584 7.92848e-22)
(1.08534 -0.0251335 0)
(1.08685 -0.0303468 1.75688e-21)
(1.09269 -0.0413229 0)
(1.09548 -0.0455342 -5.31142e-21)
(1.07934 -0.0260317 -4.85407e-22)
(1.08236 -0.0364391 8.78189e-22)
(1.0823 -0.0424744 -1.531e-21)
(1.08637 -0.0509626 0)
(1.08716 -0.0554244 4.57745e-21)
(1.07845 -0.0308308 1.68459e-22)
(1.08084 -0.0398097 -8.43358e-22)
(1.07978 -0.0454186 -4.28525e-22)
(1.08263 -0.052308 1.11619e-22)
(1.08225 -0.0564366 -1.76059e-21)
(1.08265 -0.0456387 0)
(1.08414 -0.0531724 0)
(1.08215 -0.0588202 5.76601e-22)
(1.0841 -0.0645735 0)
(1.08247 -0.0689134 2.03567e-21)
(1.08847 -0.0386361 0)
(1.08968 -0.0453652 1.27158e-23)
(1.08765 -0.050705 -2.42867e-22)
(1.08892 -0.0557806 -6.59692e-23)
(1.08665 -0.0595195 -5.36019e-22)
(1.10132 -0.0609241 0)
(1.10145 -0.0667905 4.63809e-23)
(1.09841 -0.0717517 -1.31456e-22)
(1.09884 -0.075957 6.88095e-23)
(1.09571 -0.0793274 -1.89854e-22)
(1.1272 -0.0340922 -9.52911e-23)
(1.12651 -0.0392533 1.9313e-22)
(1.12325 -0.0444225 4.77936e-22)
(1.12273 -0.0481278 3.31243e-24)
(1.11896 -0.051961 1.8878e-22)
(1.15026 -0.0646379 9.12387e-23)
(1.14821 -0.0690152 -2.32295e-24)
(1.14381 -0.0727331 -3.988e-22)
(1.14194 -0.0756147 1.72066e-22)
(1.1371 -0.0778278 -1.57947e-22)
(1.27228 -0.00426648 0)
(1.26569 -0.00830663 0)
(1.25645 -0.0126851 -9.09721e-23)
(1.24916 -0.0160632 0)
(1.23874 -0.0198982 0)
(0.907782 0.16686 1.9805e-20)
(0.905804 0.187275 -2.35751e-20)
(0.918503 0.215519 1.57395e-20)
(0.910919 0.245583 -3.18139e-20)
(0.880154 0.28262 2.96277e-20)
(0.859316 0.331216 0)
(0.848999 0.399253 0)
(0.843905 0.478355 2.66987e-21)
(0.817319 0.571177 -1.41463e-20)
(0.580066 0.517437 0)
(0.984229 0.161347 -9.36063e-22)
(0.949416 0.184233 0)
(0.940486 0.212087 4.35925e-22)
(0.954678 0.250187 -6.69272e-21)
(0.958436 0.291096 -5.30765e-21)
(0.953419 0.337045 -4.46195e-21)
(0.949821 0.397081 -7.18465e-21)
(0.960798 0.475604 1.28401e-20)
(0.953143 0.543526 1.0872e-20)
(0.670106 0.459893 -4.39546e-20)
(1.01594 0.161483 -2.78288e-21)
(1.02124 0.186432 2.60545e-21)
(1.01827 0.212329 -3.54214e-21)
(1.01593 0.241635 -9.2271e-21)
(1.0151 0.279952 2.05663e-20)
(1.02412 0.323099 -1.06293e-20)
(1.04287 0.377268 2.83397e-20)
(1.06598 0.442644 -5.93579e-20)
(1.05124 0.481703 -1.30571e-20)
(0.70037 0.366632 5.2944e-20)
(1.05099 0.14653 -1.27834e-21)
(1.03827 0.166734 -1.86119e-21)
(1.0445 0.191966 1.21509e-20)
(1.06924 0.226923 -1.11966e-20)
(1.08703 0.259944 1.34144e-20)
(1.09741 0.295259 -6.76775e-21)
(1.11348 0.335624 0)
(1.13969 0.387604 3.38655e-20)
(1.09625 0.397653 -4.11636e-20)
(0.657653 0.255838 -1.74362e-20)
(1.1031 0.139381 5.04541e-21)
(1.11399 0.157724 4.28671e-21)
(1.11298 0.18004 -5.11115e-21)
(1.11281 0.20122 0)
(1.12083 0.230361 0)
(1.14206 0.258928 6.78184e-21)
(1.17329 0.292889 0)
(1.18226 0.321788 0)
(1.06718 0.302177 0)
(0.529716 0.147599 -1.80256e-20)
(0.792709 0.000991723 -2.20832e-22)
(0.763018 -0.00270789 9.58194e-21)
(0.726108 -0.00518406 -1.14261e-20)
(0.683024 -0.00677208 0)
(0.628258 -0.00719785 0)
(0.564877 -0.00653546 -1.44526e-20)
(0.482056 -0.0036842 0)
(0.387002 0.0013334 0)
(0.24791 0.0122608 0)
(0.0874157 0.0208258 2.20216e-20)
(0.8034 0.0419074 1.8943e-20)
(0.776182 0.0449621 -3.65229e-20)
(0.741198 0.0517854 4.35524e-20)
(0.699239 0.0615636 -3.29324e-20)
(0.645679 0.0753225 3.94584e-20)
(0.58417 0.0928909 1.44155e-20)
(0.504919 0.117237 0)
(0.415488 0.148196 5.23092e-20)
(0.286697 0.197172 -6.35608e-20)
(0.125597 0.194794 -6.39998e-20)
(0.824056 0.086538 -2.20251e-20)
(0.801747 0.0953551 3.25184e-20)
(0.772607 0.108968 -5.73946e-20)
(0.738829 0.127236 -8.28151e-20)
(0.694178 0.1513 1.0827e-19)
(0.641169 0.18213 -4.66041e-20)
(0.571439 0.223734 6.7914e-20)
(0.49375 0.275845 -1.25897e-19)
(0.380632 0.355289 -1.52406e-21)
(0.20763 0.341988 6.64487e-20)
(0.853819 0.118322 3.06336e-20)
(0.83203 0.132902 -4.93421e-20)
(0.799543 0.154202 1.86302e-20)
(0.76846 0.181272 5.43567e-21)
(0.738489 0.216069 -8.71201e-20)
(0.704013 0.257342 3.42037e-20)
(0.653201 0.312235 -2.78303e-21)
(0.598421 0.378288 6.18613e-20)
(0.512339 0.478037 -2.8023e-20)
(0.323428 0.455361 -4.18701e-20)
(0.89818 0.147007 -3.0897e-20)
(0.89473 0.161746 3.67738e-20)
(0.869143 0.184826 -2.63999e-20)
(0.829444 0.214357 8.51264e-20)
(0.795933 0.25468 -1.55469e-20)
(0.776911 0.305714 0)
(0.747951 0.370279 3.12142e-20)
(0.716788 0.446693 -3.77688e-20)
(0.662152 0.550428 2.80877e-20)
(0.453726 0.514953 0)
(0.973843 0.16052 2.53525e-22)
(0.988946 0.14226 1.43645e-22)
(0.993185 0.116074 8.49711e-23)
(0.972985 0.1117 -9.62461e-23)
(0.972849 0.114003 1.22381e-22)
(0.971247 0.111673 0)
(0.96982 0.107081 0)
(0.956942 0.0935882 -1.41219e-22)
(0.946085 0.0793069 7.97765e-22)
(0.930012 0.0605559 -1.98565e-21)
(0.914339 0.0466446 -2.22648e-22)
(0.894545 0.0307663 3.60298e-21)
(0.873987 0.0216948 -2.07575e-21)
(0.848729 0.0108715 1.97449e-22)
(0.822039 0.00661978 -4.67087e-21)
(0.97606 0.161967 -5.0529e-22)
(0.985211 0.138008 -1.61422e-22)
(0.993485 0.120542 7.29452e-22)
(0.975344 0.111289 -1.84607e-22)
(0.975182 0.118152 4.4623e-22)
(0.971206 0.109048 -4.67876e-22)
(0.969835 0.114324 -2.17226e-22)
(0.957123 0.0949442 1.43322e-22)
(0.947769 0.0909302 -1.89148e-22)
(0.932807 0.0660366 -4.64755e-21)
(0.918206 0.0607726 5.01506e-21)
(0.898976 0.041256 7.63897e-21)
(0.879222 0.0421543 -1.95903e-20)
(0.854781 0.0328688 -2.02976e-21)
(0.829982 0.0422741 -1.79536e-21)
(0.978202 0.163117 2.66607e-22)
(0.983079 0.134884 0)
(0.992516 0.123025 -3.57115e-22)
(0.977978 0.111304 -2.46121e-22)
(0.97631 0.121384 0)
(0.973056 0.107398 -1.85131e-22)
(0.969522 0.119532 2.23517e-22)
(0.958574 0.095428 0)
(0.948815 0.0979217 -7.12285e-21)
(0.935216 0.0702005 8.44615e-21)
(0.920689 0.0733787 0)
(0.902991 0.0547852 2.35504e-22)
(0.885853 0.0660357 0)
(0.864424 0.0600715 -2.7152e-20)
(0.844686 0.0823017 6.51951e-20)
(0.979784 0.164384 0)
(0.982403 0.131529 3.67241e-23)
(0.991039 0.125484 4.4253e-22)
(0.980607 0.110324 0)
(0.976965 0.124771 1.33942e-21)
(0.975389 0.105529 -1.33351e-21)
(0.969338 0.125132 0)
(0.960353 0.094152 -3.32773e-22)
(0.950389 0.104616 6.30253e-22)
(0.940577 0.0683612 9.24811e-21)
(0.92705 0.0810569 -1.09382e-20)
(0.912509 0.0580385 -1.61667e-20)
(0.897241 0.0812763 -2.18479e-21)
(0.88038 0.0751707 2.3776e-20)
(0.866167 0.111835 2.14922e-22)
(0.980939 0.165129 0)
(0.982619 0.129463 -4.23404e-22)
(0.9897 0.125721 0)
(0.982704 0.111361 0)
(0.977129 0.125612 0)
(0.97914 0.106853 -2.19112e-22)
(0.967654 0.127151 0)
(0.964669 0.0947766 3.56767e-22)
(0.948155 0.106057 7.74511e-21)
(0.945915 0.0724316 -9.21189e-21)
(0.92633 0.0891157 -1.33778e-20)
(0.922564 0.0723085 1.54232e-20)
(0.904984 0.101288 2.05361e-20)
(0.903389 0.0988211 -4.77139e-20)
(0.892421 0.143526 2.74402e-20)
(0.980723 0.165656 0)
(0.985251 0.128229 0)
(0.986156 0.126527 0)
(0.987185 0.111304 0)
(0.976394 0.12625 0)
(0.983384 0.106067 0)
(0.97025 0.127344 0)
(0.96437 0.0919552 0)
(0.957907 0.10325 0)
(0.946515 0.067384 0)
(0.943373 0.0897885 0)
(0.929307 0.0663629 0)
(0.933152 0.105974 0)
(0.922622 0.0933255 0)
(0.940297 0.147309 0)
(0.979007 0.166102 0)
(0.990846 0.127172 0)
(0.980145 0.127417 0)
(0.992884 0.111274 0)
(0.976522 0.127207 0)
(0.985272 0.106678 0)
(0.973437 0.129192 0)
(0.96836 0.0962809 0)
(0.966596 0.107589 0)
(0.95395 0.0762156 0)
(0.956102 0.0953378 0)
(0.944324 0.0762013 0)
(0.950672 0.104912 0)
(0.946705 0.096901 0)
(0.961264 0.127149 0)
(0.976579 0.166287 0)
(0.996845 0.126199 0)
(0.975011 0.128381 0)
(0.996638 0.110789 0)
(0.979479 0.127612 0)
(0.985619 0.109215 0)
(0.976663 0.130282 0)
(0.97733 0.101587 0)
(0.970954 0.10791 0)
(0.967249 0.0818369 0)
(0.963325 0.0932764 0)
(0.963415 0.079627 0)
(0.962751 0.0971162 0)
(0.970286 0.0903557 0)
(0.975851 0.108924 0)
(0.974952 0.166006 0)
(1.00019 0.125761 0)
(0.973611 0.128547 0)
(0.997944 0.110455 0)
(0.984086 0.127844 0)
(0.98659 0.113043 0)
(0.980794 0.128967 0)
(0.985023 0.104899 0)
(0.977366 0.10828 0)
(0.979574 0.0851292 0)
(0.974837 0.092707 0)
(0.980226 0.0797513 0)
(0.980015 0.0915327 0)
(0.989533 0.0818192 0)
(0.993818 0.0941287 0)
(0.974655 0.165444 0)
(1.00066 0.125441 0)
(0.975295 0.128456 0)
(0.998494 0.110677 0)
(0.988651 0.127412 0)
(0.989855 0.115292 0)
(0.986797 0.126882 0)
(0.992613 0.106169 0)
(0.986119 0.109131 0)
(0.990907 0.0871577 0)
(0.987799 0.0913606 0)
(0.994746 0.0767594 0)
(0.995623 0.0839709 0)
(1.00532 0.0715678 0)
(1.0092 0.0787658 0)
(0.974907 0.16471 0)
(1.00044 0.125108 0)
(0.97825 0.127088 0)
(0.99936 0.111042 0)
(0.992694 0.126399 0)
(0.99436 0.117803 0)
(0.993577 0.125634 0)
(1.00111 0.1071 0)
(0.996016 0.107789 0)
(1.00203 0.0872428 0)
(1.00146 0.0866159 0)
(1.00929 0.0713918 0)
(1.01081 0.0731322 0)
(1.02018 0.060673 0)
(1.02372 0.0625994 0)
(0.975422 0.163905 0)
(0.999908 0.124743 0)
(0.981369 0.124966 0)
(1.00153 0.110233 0)
(0.998226 0.124089 0)
(1.00085 0.117844 0)
(1.00115 0.123771 0)
(1.00977 0.106993 0)
(1.00568 0.105435 0)
(1.01202 0.0867255 0)
(1.01263 0.0827308 0)
(1.021 0.0668522 0)
(1.02233 0.0646773 0)
(1.03095 0.0517468 0)
(1.03375 0.0504082 0)
(0.975747 0.162396 0)
(1.00045 0.124146 0)
(0.984459 0.121772 0)
(1.004 0.110605 0)
(1.00345 0.120992 0)
(1.00787 0.116722 0)
(1.00979 0.118728 0)
(1.02041 0.10368 0)
(1.01829 0.0980228 0)
(1.02501 0.0809391 0)
(1.02626 0.072838 0)
(1.03498 0.0573164 0)
(1.0362 0.0509392 0)
(1.04385 0.0385535 0)
(1.04576 0.033937 0)
(0.976312 0.160832 0)
(1.00062 0.122271 0)
(0.988709 0.117271 0)
(1.00826 0.108587 0)
(1.01049 0.117877 0)
(1.01562 0.116057 0)
(1.01771 0.117493 0)
(1.02855 0.104469 0)
(1.02736 0.097321 0)
(1.03364 0.0809876 0)
(1.03468 0.0712245 0)
(1.04308 0.0556092 0)
(1.04422 0.0472558 0)
(1.0511 0.0346275 0)
(1.05227 0.0283762 0)
(0.976809 0.158335 0)
(1.0022 0.119406 0)
(0.994136 0.109452 0)
(1.01416 0.102328 0)
(1.01947 0.107126 0)
(1.02694 0.105802 0)
(1.03071 0.103764 0)
(1.04318 0.0919656 0)
(1.04362 0.081803 0)
(1.05032 0.0663672 0)
(1.05121 0.0542437 0)
(1.0592 0.0393976 0)
(1.05969 0.0289008 0)
(1.0656 0.0169826 0)
(1.06541 0.00909531 0)
(0.977915 0.154994 0)
(1.00274 0.117557 0)
(1.00005 0.10751 0)
(1.02037 0.103108 0)
(1.02845 0.107664 0)
(1.03674 0.108483 0)
(1.04098 0.10682 0)
(1.05299 0.0969978 0)
(1.05419 0.0868347 0)
(1.06041 0.0724436 0)
(1.06111 0.0600292 0)
(1.06833 0.0456945 0)
(1.06905 0.0346352 0)
(1.07449 0.0229512 0)
(1.07446 0.0144886 0)
(0.979342 0.145451 0)
(1.00915 0.101117 0)
(1.01267 0.0846574 0)
(1.03293 0.0789411 0)
(1.04393 0.0805533 0)
(1.05459 0.0808126 0)
(1.06075 0.0779001 0)
(1.07401 0.0689504 0)
(1.07658 0.0582306 0)
(1.08332 0.0449092 0)
(1.0836 0.0321842 0)
(1.09019 0.018892 0)
(1.08973 0.00751708 0)
(1.09409 -0.00331693 0)
(1.09226 -0.0120237 0)
(0.980865 0.14422 0)
(1.01893 0.106734 0)
(1.03188 0.0921507 0)
(1.05439 0.0888182 0)
(1.06909 0.0885787 0)
(1.08223 0.0907429 0)
(1.0905 0.0880438 0)
(1.10376 0.0822549 0)
(1.10793 0.0724656 0)
(1.11449 0.0621207 0)
(1.11514 0.0503093 0)
(1.12071 0.0393084 0)
(1.12069 0.0283562 0)
(1.12461 0.0191102 0)
(1.1234 0.0104872 0)
(0.984838 0.0960758 0)
(1.03363 0.0531341 0)
(1.05275 0.0359559 0)
(1.07237 0.0300081 0)
(1.08946 0.0310629 0)
(1.10525 0.0332772 0)
(1.117 0.0335192 0)
(1.13162 0.0298185 0)
(1.13829 0.0236898 0)
(1.14595 0.0156047 0)
(1.14691 0.00693544 0)
(1.15179 -0.00226973 0)
(1.15093 -0.0108665 0)
(1.15376 -0.0190475 0)
(1.1513 -0.0260137 0)
(0.987784 0.106203 0)
(1.12774 0.0768815 0)
(1.15577 0.0571458 0)
(1.17855 0.049835 0)
(1.19968 0.0459169 0)
(1.22059 0.0475436 0)
(1.23795 0.0469224 0)
(1.2565 0.0474641 0)
(1.26816 0.0444518 0)
(1.27893 0.042273 0)
(1.28319 0.0374695 0)
(1.28872 0.0339426 0)
(1.28947 0.0287679 0)
(1.29199 0.0251241 0)
(1.29037 0.0205013 0)
(0.937473 0.137852 0)
(1.01079 0.127971 1.89941e-23)
(1.00405 0.12193 4.33413e-21)
(1.08126 0.111342 -4.68002e-21)
(1.07081 0.105429 -1.45244e-22)
(0.963321 0.120774 -8.99253e-21)
(1.01698 0.117787 2.58101e-21)
(1.01468 0.109205 -2.42289e-21)
(1.09028 0.102993 4.17622e-21)
(1.06162 0.0892498 -1.66748e-21)
(0.987411 0.10272 2.40093e-21)
(1.01816 0.0967044 -2.22388e-21)
(1.03569 0.0835632 -3.31834e-21)
(1.08135 0.0754183 -3.5656e-21)
(1.07549 0.0581722 0)
(1.00584 0.0853773 4.63154e-21)
(1.02613 0.0791577 1.38014e-22)
(1.0487 0.0667241 2.75942e-21)
(1.07438 0.0583998 -2.71426e-21)
(1.08355 0.0418156 5.26135e-23)
(1.0204 0.0681077 0)
(1.03555 0.0608709 2.44938e-22)
(1.05489 0.0481056 3.96174e-23)
(1.07239 0.0389406 2.38064e-21)
(1.08383 0.0223056 0)
(1.03433 0.0517638 2.5987e-24)
(1.04608 0.0438884 -3.97432e-22)
(1.06049 0.0323295 -4.40884e-23)
(1.07239 0.0227657 1.3815e-22)
(1.08141 0.00777092 3.9593e-22)
(1.04374 0.0391833 -2.89634e-22)
(1.05361 0.030305 0)
(1.06413 0.0186938 -6.46441e-22)
(1.07172 0.00878456 9.30355e-22)