/*--------------------------------*- C++ -*----------------------------------*\
| =========                 |                                                 |
| \\      /  F ield         | OpenFOAM: The Open Source CFD Toolbox           |
|  \\    /   O peration     | Version:  2512                                  |
|   \\  /    A nd           | Website:  www.openfoam.com                      |
|    \\/     M anipulation  |                                                 |
\*---------------------------------------------------------------------------*/
FoamFile
{
    version     2.0;
    format      ascii;
    arch        "LSB;label=32;scalar=64";
    class       volVectorField;
    location    "88.05";
    object      U;
}
// * * * * * * * * * * * * * * * * * * * * * * * * * * * * * * * * * * * * * //

dimensions      [0 1 -1 0 0 0 0];

internalField   nonuniform List<vector> 
13248
(
(-0.01312 0.00809806 3.75459e-20)
(-0.0302836 0.0116871 0)
(-0.0418208 0.00736679 -6.5792e-20)
(-0.0422981 0.00112637 6.09231e-20)
(-0.0274246 -0.00491875 5.63175e-20)
(0.00629998 -0.010116 0)
(0.0617324 -0.0139695 0)
(0.14023 -0.0157504 1.26875e-19)
(0.24098 -0.0149059 -2.70518e-21)
(0.360587 -0.0109393 -1.04413e-19)
(0.493224 -0.00366307 8.95895e-20)
(0.631445 0.00665942 -5.49424e-20)
(0.767327 0.0192908 0)
(0.893589 0.0331196 -7.87517e-20)
(1.00441 0.0468501 1.41963e-19)
(1.09589 0.0592082 -3.27995e-20)
(1.16634 0.069097 -5.26655e-20)
(1.21578 0.0757563 4.90995e-20)
(1.24664 0.0790539 0)
(1.26225 0.0780048 0)
(1.26591 0.0762009 0)
(1.26669 0.0661727 0)
(1.25858 0.0648557 1.32682e-20)
(1.26096 0.0432401 4.7658e-20)
(-0.0175825 0.0121655 -1.13031e-19)
(-0.0344156 0.0205494 7.17646e-20)
(-0.0364299 0.0192339 -1.26309e-22)
(-0.020216 0.0141984 -9.21545e-20)
(0.0177593 0.00838058 -5.62352e-20)
(0.0805552 0.00343701 -5.19731e-20)
(0.169818 0.000692401 -9.36046e-20)
(0.284511 0.00111746 8.71295e-20)
(0.419857 0.0053211 0)
(0.567594 0.0133551 1.46273e-21)
(0.717404 0.0246055 3.30599e-21)
(0.858903 0.0378817 5.54133e-20)
(0.983421 0.0516741 0)
(1.08514 0.0644565 0)
(1.16153 0.0750061 5.16148e-20)
(1.21324 0.0824686 -9.59042e-20)
(1.24341 0.0866736 5.31969e-20)
(1.25717 0.0876157 -4.95979e-20)
(1.26006 0.0859905 -2.10515e-20)
(1.25748 0.082301 -3.63822e-20)
(1.25382 0.0769164 -1.46022e-20)
(1.25084 0.0705268 -2.69917e-20)
(1.24825 0.0637891 4.00432e-20)
(1.24998 0.0532502 1.12199e-20)
(-0.0197411 0.0131328 0)
(-0.0329794 0.0228902 0)
(-0.0222403 0.023207 3.3139e-20)
(0.0147092 0.0194491 3.03539e-20)
(0.0807469 0.0151146 -5.2885e-22)
(0.177686 0.0126604 -5.26705e-20)
(0.304234 0.0138467 0)
(0.454159 0.019598 -4.29659e-20)
(0.616323 0.0297866 3.8723e-20)
(0.776994 0.0432462 -1.24944e-23)
(0.923097 0.0581183 -6.11127e-20)
(1.04487 0.0723794 -5.23199e-20)
(1.13725 0.0843326 2.94458e-21)
(1.19994 0.0929431 -3.72068e-20)
(1.23663 0.0978999 9.22287e-20)
(1.2535 0.0995464 0)
(1.25765 0.0986253 -5.29946e-20)
(1.25541 0.0957625 2.56903e-20)
(1.25127 0.0921709 2.10304e-20)
(1.24776 0.0868372 0)
(1.24459 0.0828029 1.6324e-20)
(1.24233 0.0749589 -5.51157e-20)
(1.23804 0.0716337 5.14698e-20)
(1.23507 0.0613856 3.1325e-20)
(-0.0198572 0.0119605 -3.91358e-20)
(-0.0255137 0.0201396 -3.72945e-20)
(0.00229464 0.0207541 3.37256e-20)
(0.065193 0.0185854 0)
(0.164964 0.0175608 0)
(0.300219 0.0205684 -3.47995e-22)
(0.463316 0.0290955 0)
(0.639852 0.0428343 -1.27839e-19)
(0.812022 0.0598553 1.1576e-19)
(0.96368 0.077401 -1.39114e-19)
(1.08416 0.0928491 3.0497e-20)
(1.16968 0.104425 0)
(1.22271 0.111487 4.52646e-20)
(1.24993 0.114399 -8.15881e-20)
(1.25976 0.114135 1.91586e-20)
(1.26002 0.111843 4.45818e-20)
(1.25633 0.108347 -3.59379e-21)
(1.25175 0.104388 -4.82443e-20)
(1.24728 0.0997321 0)
(1.24266 0.0950566 0)
(1.2377 0.089641 -1.54367e-20)
(1.23259 0.0834157 1.34701e-20)
(1.2266 0.079012 4.6435e-20)
(1.22309 0.0689849 -4.33468e-20)
(-0.0180208 0.00960141 -4.05987e-20)
(-0.0109942 0.0143996 -3.76511e-20)
(0.0398442 0.0149655 1.04188e-19)
(0.135254 0.0157352 -6.27653e-20)
(0.27402 0.0208578 5.81422e-20)
(0.447656 0.0327575 1.04582e-19)
(0.638398 0.0510723 -7.22848e-20)
(0.823549 0.0729155 -8.45028e-20)
(0.983106 0.0943481 3.25987e-21)
(1.10522 0.112009 1.04121e-19)
(1.18752 0.124083 0)
(1.23516 0.130435 2.60394e-20)
(1.25733 0.132126 0)
(1.26375 0.130687 -3.87275e-20)
(1.26214 0.127504 5.36423e-20)
(1.25725 0.123441 3.50539e-22)
(1.25129 0.119008 -1.30038e-20)
(1.24501 0.114141 2.32415e-20)
(1.23862 0.10916 1.9671e-20)
(1.23242 0.103569 -1.71066e-20)
(1.22661 0.0981219 1.54298e-20)
(1.22144 0.0917558 -1.34641e-20)
(1.21628 0.086831 0)
(1.21267 0.0782206 -9.73687e-21)
(-0.0138248 0.00669257 4.05886e-20)
(0.0123177 0.0076918 3.91412e-20)
(0.0935017 0.00933582 -3.48509e-20)
(0.227931 0.0157256 6.37976e-20)
(0.407343 0.0304355 -5.90953e-20)
(0.611406 0.0535368 5.25103e-20)
(0.811759 0.0811341 -2.47514e-20)
(0.983082 0.107724 6.36178e-20)
(1.11132 0.128892 -3.90727e-20)
(1.19494 0.142661 6.54615e-20)
(1.24137 0.149368 -1.47347e-19)
(1.26182 0.150718 5.27077e-20)
(1.26688 0.148708 -4.34694e-20)
(1.26419 0.144917 4.04667e-20)
(1.25819 0.14027 3.28368e-20)
(1.25103 0.135233 2.73941e-20)
(1.24368 0.129902 -7.57225e-20)
(1.23663 0.124465 4.61966e-20)
(1.23012 0.118762 -1.96681e-20)
(1.22413 0.113089 4.95267e-20)
(1.21846 0.107206 -1.60332e-20)
(1.21294 0.101106 -3.66925e-20)
(1.20718 0.0958596 3.34125e-20)
(1.20214 0.0877074 9.73376e-21)
(-0.00641866 0.00361108 0)
(0.0464468 0.00168556 2.86646e-22)
(0.165474 0.00702864 7.20842e-20)
(0.342727 0.0227003 -6.64412e-20)
(0.557305 0.0496797 -5.89857e-20)
(0.775187 0.0834741 1.07694e-19)
(0.963523 0.116576 -4.91759e-20)
(1.1038 0.142904 6.33227e-20)
(1.19401 0.15992 -2.07933e-21)
(1.2432 0.168243 -3.41735e-20)
(1.26435 0.17014 7.09698e-20)
(1.26912 0.168072 -1.0245e-19)
(1.26567 0.163896 0)
(1.25871 0.15871 -1.86714e-20)
(1.25064 0.15308 -4.79809e-20)
(1.24258 0.147235 1.51238e-20)
(1.23495 0.141327 8.23297e-22)
(1.22779 0.135316 -2.95664e-20)
(1.22099 0.129312 2.77802e-21)
(1.21444 0.123187 3.33963e-20)
(1.20814 0.11701 -1.42282e-20)
(1.20218 0.110828 -4.9655e-21)
(1.19642 0.10483 1.59391e-20)
(1.19156 0.0973825 0)
(0.00519449 0.000712466 0)
(0.0930126 -0.00201903 1.97984e-20)
(0.255817 0.0108245 -9.36025e-20)
(0.474169 0.0393315 3.34704e-20)
(0.710393 0.078935 -3.1002e-20)
(0.921806 0.119872 -2.75748e-20)
(1.08162 0.153386 -4.73625e-20)
(1.1848 0.175578 2.37227e-20)
(1.24105 0.186968 2.00152e-20)
(1.26524 0.190311 0)
(1.27074 0.188644 4.16537e-20)
(1.26693 0.184279 -6.00241e-20)
(1.25928 0.17863 4.40795e-20)
(1.25052 0.172441 1.86796e-20)
(1.24181 0.166043 -1.44626e-20)
(1.2335 0.159586 -1.13379e-20)
(1.22562 0.153079 -1.03024e-20)
(1.21817 0.146574 3.17897e-20)
(1.21116 0.140026 0)
(1.20462 0.133508 1.46615e-20)
(1.19852 0.127021 1.15597e-20)
(1.1927 0.120624 -2.93895e-20)
(1.18698 0.11425 -1.89845e-20)
(1.18149 0.107476 1.73968e-20)
(0.0218566 -0.00145313 -2.31223e-20)
(0.152579 -0.0016088 -8.94675e-22)
(0.361639 0.0230729 1.90625e-20)
(0.612425 0.0664305 5.22745e-20)
(0.852218 0.116113 1.463e-20)
(1.04061 0.159221 -2.79185e-20)
(1.16501 0.189073 2.51035e-20)
(1.23397 0.205387 -2.13348e-20)
(1.26428 0.211292 3.68806e-20)
(1.27193 0.210584 1.5052e-20)
(1.26831 0.206272 -4.22353e-20)
(1.2601 0.200248 1.20819e-20)
(1.25057 0.193504 1.97682e-20)
(1.24104 0.186488 -9.76284e-21)
(1.23193 0.17938 0)
(1.22334 0.172242 1.34232e-20)
(1.2153 0.165126 2.17102e-20)
(1.20781 0.158041 3.1208e-21)
(1.20081 0.151036 -1.74062e-20)
(1.19421 0.144106 6.90357e-21)
(1.18792 0.137271 0)
(1.18189 0.13055 -5.04573e-21)
(1.17606 0.123749 -4.6778e-21)
(1.17059 0.117306 0)
(0.0440099 -0.00212329 0)
(0.224138 0.0048835 1.12444e-20)
(0.476976 0.045333 2.04762e-20)
(0.74608 0.103 -5.33076e-20)
(0.972744 0.158316 1.69895e-20)
(1.12928 0.199154 0)
(1.2191 0.22304 2.35963e-20)
(1.26034 0.233143 -3.23651e-20)
(1.27241 0.234207 -1.83116e-20)
(1.26982 0.230257 8.11221e-21)
(1.26118 0.223901 -1.21631e-20)
(1.25075 0.216527 2.95733e-20)
(1.24026 0.208762 1.41423e-20)
(1.23028 0.20087 -1.00432e-20)
(1.22097 0.192963 -1.20675e-21)
(1.21231 0.185107 -2.48938e-20)
(1.20424 0.177328 1.1114e-20)
(1.19673 0.16966 -3.27792e-22)
(1.18972 0.162107 0)
(1.18319 0.154698 -6.91043e-21)
(1.17708 0.147453 0)
(1.17126 0.140329 1.42987e-20)
(1.1656 0.133266 -1.64862e-20)
(1.16 0.127071 7.32851e-21)
(0.071553 -0.000402782 -6.48405e-21)
(0.304894 0.0192528 -2.85724e-20)
(0.593835 0.077938 3.20605e-20)
(0.86565 0.14698 1.8203e-20)
(1.06785 0.203213 -8.63106e-21)
(1.19053 0.238691 1.36512e-20)
(1.25045 0.255634 -6.62853e-21)
(1.27093 0.259833 1.04765e-20)
(1.27092 0.256753 0)
(1.26224 0.250125 2.21979e-20)
(1.25085 0.241995 -1.12095e-21)
(1.23925 0.233308 -1.71313e-20)
(1.22827 0.224457 7.07971e-21)
(1.21809 0.215605 -7.66214e-21)
(1.20867 0.206832 -2.6679e-21)
(1.19995 0.198173 3.30159e-21)
(1.1919 0.189663 -2.35957e-21)
(1.18447 0.181326 -1.24314e-20)
(1.17761 0.173193 7.50733e-21)
(1.17124 0.165283 1.43316e-21)
(1.16522 0.157581 1.2102e-21)
(1.15944 0.150042 1.01991e-21)
(1.15384 0.142728 0)
(1.14836 0.136368 0)
(0.103829 0.00462612 6.49191e-21)
(0.390589 0.04273 -5.9819e-21)
(0.704218 0.12003 -1.0717e-20)
(0.965431 0.196228 0)
(1.1376 0.249407 -4.26084e-21)
(1.22864 0.277668 -3.69184e-21)
(1.26457 0.287465 -6.04393e-21)
(1.2703 0.28626 0)
(1.26261 0.279557 0)
(1.25042 0.270517 0)
(1.23759 0.260648 0)
(1.22541 0.250566 0)
(1.2142 0.240504 -4.37402e-21)
(1.20393 0.230565 1.95582e-21)
(1.19453 0.220801 3.28041e-21)
(1.18592 0.211248 1.51412e-21)
(1.17803 0.20193 3.54792e-21)
(1.1708 0.192873 0)
(1.16416 0.184091 -7.63477e-22)
(1.15804 0.175595 -7.23108e-22)
(1.15234 0.167366 -1.2121e-21)
(1.14693 0.159383 -1.02152e-21)
(1.14167 0.151789 0)
(1.13652 0.14509 6.28368e-22)
(0.00375996 -0.145203 7.39212e-21)
(0.000701721 -0.29034 -7.02772e-21)
(-0.016958 -0.34647 -1.301e-20)
(-0.0418497 -0.354754 0)
(-0.0696616 -0.342324 -1.71672e-20)
(-0.0982708 -0.322653 5.45369e-21)
(-0.126408 -0.299631 -9.99256e-21)
(-0.153213 -0.272567 0)
(-0.178062 -0.239627 0)
(-0.20046 -0.199264 0)
(-0.220013 -0.150531 0)
(-0.236386 -0.0930736 0)
(-0.249445 -0.0271446 5.62348e-22)
(-0.259003 0.0471025 -7.31634e-21)
(-0.264956 0.128108 1.28309e-20)
(-0.267549 0.21434 1.8298e-20)
(-0.266643 0.303952 4.95305e-21)
(-0.262154 0.394727 0)
(-0.254088 0.484101 4.77596e-21)
(-0.242617 0.569245 -1.23892e-20)
(-0.228022 0.647204 -6.99097e-21)
(-0.210169 0.715205 -6.11795e-21)
(-0.189777 0.7709 0)
(-0.164867 0.81299 0)
(0.0104152 -0.136802 -2.1699e-20)
(0.0103657 -0.26798 3.46255e-20)
(-0.0103573 -0.315045 -1.21723e-20)
(-0.0402245 -0.3181 -2.34092e-20)
(-0.0736463 -0.303012 3.29636e-20)
(-0.108323 -0.282457 -2.05065e-20)
(-0.143048 -0.259934 2.90052e-20)
(-0.177034 -0.234558 1.72508e-20)
(-0.20966 -0.204393 0)
(-0.240349 -0.167814 -1.73437e-20)
(-0.268526 -0.123766 -4.90533e-22)
(-0.293723 -0.0717344 1.51832e-20)
(-0.314852 -0.0114838 1.98763e-20)
(-0.331745 0.0563064 2.54006e-20)
(-0.344639 0.130433 -1.29479e-20)
(-0.352739 0.20956 -3.37917e-20)
(-0.355668 0.291861 8.71547e-21)
(-0.352997 0.375111 -3.44818e-20)
(-0.344269 0.456724 0)
(-0.329075 0.533856 7.92317e-21)
(-0.307007 0.603573 6.98146e-21)
(-0.277133 0.66296 6.10939e-21)
(-0.238261 0.709152 0)
(-0.190573 0.740441 0)
(0.0159763 -0.123997 0)
(0.0188978 -0.239588 6.31795e-20)
(-0.00302726 -0.278453 -2.35198e-20)
(-0.0353572 -0.277241 2.2508e-20)
(-0.0715268 -0.259813 -5.97955e-20)
(-0.10902 -0.238152 0)
(-0.146645 -0.215703 -3.52213e-20)
(-0.183662 -0.191645 1.54618e-20)
(-0.21945 -0.164056 -2.91975e-20)
(-0.253377 -0.131282 1.19022e-20)
(-0.284725 -0.0922072 7.90531e-20)
(-0.312424 -0.0461396 -3.65806e-20)
(-0.335933 0.00701931 -5.88011e-20)
(-0.354825 0.0663382 -1.91174e-20)
(-0.368207 0.131248 8.01905e-22)
(-0.375266 0.200404 7.11952e-20)
(-0.375233 0.272029 -3.26897e-20)
(-0.367331 0.343939 3.39259e-21)
(-0.350752 0.413597 0)
(-0.324647 0.478187 -1.98374e-20)
(-0.288395 0.534778 0)
(-0.241623 0.580594 -1.85718e-20)
(-0.182796 0.612915 6.25129e-20)
(-0.109099 0.630697 -2.60233e-22)
(0.0201267 -0.108828 0)
(0.0258404 -0.208534 -1.54817e-21)
(0.00434196 -0.240165 2.12792e-20)
(-0.0282134 -0.235556 -1.94892e-20)
(-0.0645071 -0.216106 1.95205e-20)
(-0.101718 -0.19315 1.02871e-19)
(-0.138594 -0.170347 -3.21767e-20)
(-0.174414 -0.147175 -2.85685e-20)
(-0.208548 -0.121827 5.55173e-20)
(-0.240319 -0.0926515 -7.80491e-20)
(-0.268889 -0.0585809 2.21048e-20)
(-0.293466 -0.0190306 2.02177e-20)
(-0.313207 0.0258686 0)
(-0.327178 0.0759289 1.96359e-20)
(-0.334398 0.130427 0)
(-0.333876 0.188154 2.59974e-20)
(-0.324638 0.247481 -4.94811e-20)
(-0.305731 0.306395 1.54178e-20)
(-0.276296 0.362554 4.05397e-20)
(-0.235635 0.413414 1.98158e-20)
(-0.182807 0.456249 0)
(-0.118133 0.488532 -4.25557e-20)
(-0.0433251 0.508653 1.38272e-20)
(0.0553273 0.511114 0)
(0.0227555 -0.0930243 0)
(0.0307202 -0.17748 -6.75856e-20)
(0.0105886 -0.203029 -2.00419e-20)
(-0.0206915 -0.196148 -3.78359e-20)
(-0.0552153 -0.175454 3.50597e-20)
(-0.0897808 -0.151517 -3.34487e-20)
(-0.123004 -0.128304 5.90904e-20)
(-0.154174 -0.105796 2.79654e-20)
(-0.182675 -0.0824347 -7.6724e-20)
(-0.207892 -0.0567701 4.52809e-20)
(-0.229098 -0.0277003 -6.33868e-20)
(-0.245386 0.00528661 1.27393e-19)
(-0.255885 0.0423253 -6.87899e-20)
(-0.259628 0.0831705 2.79536e-20)
(-0.25562 0.127178 7.6057e-20)
(-0.242869 0.173313 -2.89661e-20)
(-0.220453 0.220179 -2.12551e-20)
(-0.187582 0.266045 -2.05776e-20)
(-0.143488 0.308879 0)
(-0.0877623 0.346445 -2.61969e-20)
(-0.0212269 0.377031 -2.27715e-20)
(0.061123 0.396478 3.41011e-20)
(0.140833 0.409158 4.37013e-20)
(0.26009 0.396949 -3.90428e-20)
(0.0238291 -0.0776896 0)
(0.0329988 -0.148061 -8.29681e-20)
(0.0142943 -0.168845 1.43371e-21)
(-0.0151431 -0.161158 7.16957e-20)
(-0.0469905 -0.140621 0)
(-0.0776482 -0.116762 0)
(-0.105544 -0.0937414 0)
(-0.129961 -0.0721455 -2.55444e-20)
(-0.150505 -0.0509723 1.08412e-21)
(-0.166581 -0.028846 4.21709e-20)
(-0.177444 -0.00464105 -5.72069e-20)
(-0.182415 0.0221621 9.00451e-22)
(-0.180699 0.0517145 0)
(-0.171477 0.0838024 -2.79392e-20)
(-0.153943 0.117883 1.87636e-20)
(-0.127346 0.153132 -5.83011e-20)
(-0.0910012 0.18837 6.57204e-20)
(-0.0444411 0.222122 9.27932e-21)
(0.0117874 0.253013 -3.41891e-21)
(0.0809291 0.278239 -4.45978e-20)
(0.153019 0.299326 -1.81417e-20)
(0.249013 0.306577 6.37954e-20)
(0.325005 0.315294 -4.14999e-20)
(0.452981 0.293288 0)
(0.0232454 -0.0632117 4.08624e-20)
(0.0320291 -0.120791 4.097e-20)
(0.0140097 -0.138212 -3.60652e-20)
(-0.0138618 -0.131455 -6.76173e-20)
(-0.0430773 -0.113046 6.26541e-20)
(-0.0697279 -0.0911605 -5.67265e-20)
(-0.0920526 -0.069859 7.8117e-20)
(-0.109385 -0.0502819 -2.50475e-20)
(-0.121352 -0.0319039 4.34599e-20)
(-0.127563 -0.0135725 0)
(-0.127563 0.00559062 3.09285e-20)
(-0.120826 0.0261704 -5.93509e-20)
(-0.106792 0.0483896 5.09459e-20)
(-0.084907 0.0721338 -4.74199e-20)
(-0.0546493 0.0970777 0)
(-0.0156526 0.122535 3.37967e-20)
(0.0322175 0.147526 5.224e-20)
(0.0897983 0.171016 -5.05564e-20)
(0.153567 0.192083 -1.97437e-20)
(0.233563 0.207532 -1.8849e-20)
(0.304826 0.222 5.2035e-20)
(0.413856 0.220813 1.55659e-20)
(0.480676 0.227952 -1.37533e-20)
(0.6221 0.201677 1.51982e-20)
(0.0207746 -0.049417 -4.08725e-20)
(0.0271713 -0.0952923 1.1374e-19)
(0.00866709 -0.110624 -3.45083e-20)
(-0.0183513 -0.106476 6.47598e-20)
(-0.0455191 -0.0923074 -6.00061e-20)
(-0.0688238 -0.0747183 -4.49009e-22)
(-0.0863848 -0.0573282 2.47696e-20)
(-0.0974512 -0.0414659 8.66774e-20)
(-0.10175 -0.0270088 -2.97469e-21)
(-0.0990995 -0.0132899 -3.84929e-20)
(-0.0892509 0.000436994 0)
(-0.071875 0.0147588 -2.48972e-20)
(-0.0466125 0.0299866 5.02011e-20)
(-0.0130549 0.0462412 3.97122e-20)
(0.0291023 0.0633274 -1.99086e-20)
(0.0800601 0.0807681 -1.34626e-21)
(0.139857 0.0978257 -1.33838e-20)
(0.209398 0.114193 2.09774e-20)
(0.284517 0.128133 1.97454e-20)
(0.377986 0.138947 -1.74806e-20)
(0.456791 0.148201 1.53854e-20)
(0.585904 0.145808 -1.47448e-20)
(0.651122 0.150901 0)
(0.821129 0.12744 -1.51982e-20)
(0.016184 -0.0359394 3.84868e-20)
(0.0181701 -0.0708113 -3.74877e-20)
(-0.00176899 -0.0848806 3.36537e-20)
(-0.0283575 -0.0844611 0)
(-0.0537588 -0.0760585 0)
(-0.0740761 -0.0646035 5.07446e-20)
(-0.0873172 -0.0529732 -4.85297e-20)
(-0.0925906 -0.0423997 4.10048e-20)
(-0.0895032 -0.0330342 -1.9352e-19)
(-0.0777898 -0.0244331 1.27121e-21)
(-0.0570969 -0.0159827 2.99257e-20)
(-0.0269915 -0.00710907 0)
(0.0129983 0.00264552 -4.37152e-20)
(0.0632488 0.0135146 7.79166e-20)
(0.123937 0.0254423 -5.17406e-20)
(0.195079 0.03819 -6.7992e-20)
(0.276345 0.0512652 4.11288e-21)
(0.36708 0.0644234 4.23303e-20)
(0.465681 0.0755751 0)
(0.575513 0.0862234 0)
(0.678147 0.0924996 -1.53896e-20)
(0.813761 0.0949266 1.47488e-20)
(0.893491 0.096139 -6.03845e-20)
(1.0626 0.0822436 5.62865e-20)
(0.00954535 -0.0226816 0)
(0.00570357 -0.0468844 0)
(-0.0156124 -0.059756 -1.0008e-19)
(-0.0409693 -0.0631278 3.08309e-20)
(-0.0633499 -0.0607291 5.9873e-22)
(-0.0790142 -0.0558416 5.10465e-20)
(-0.0857538 -0.0504596 0)
(-0.0822522 -0.0454612 -4.21441e-20)
(-0.0675161 -0.0409938 3.83824e-20)
(-0.0407643 -0.0367275 -6.48805e-20)
(-0.00138978 -0.0320579 1.37452e-21)
(0.0510898 -0.0263633 4.95911e-20)
(0.116713 -0.0191508 -3.49468e-21)
(0.194994 -0.0101849 3.32396e-20)
(0.284791 0.00058943 -5.15103e-20)
(0.384688 0.0127012 0)
(0.492338 0.0260897 4.62299e-20)
(0.60526 0.0390935 -6.3745e-20)
(0.722209 0.0517523 1.91114e-20)
(0.836434 0.0625505 0)
(0.95048 0.0695294 1.62411e-20)
(1.05823 0.074568 6.20887e-20)
(1.14454 0.0726696 -5.79725e-20)
(1.25162 0.0656362 -7.2434e-20)
(0.00153125 -0.0101393 1.11383e-19)
(-0.00834959 -0.0239088 -1.41395e-19)
(-0.0294076 -0.0348588 3.84027e-23)
(-0.050793 -0.0409153 3.01983e-20)
(-0.0664111 -0.0433351 -5.5744e-20)
(-0.0725389 -0.0438368 -5.13679e-20)
(-0.0664637 -0.0434337 9.17427e-20)
(-0.0461937 -0.0427255 -2.48101e-21)
(-0.0103887 -0.04168 -7.66851e-20)
(0.0419354 -0.0397826 1.32387e-19)
(0.110913 -0.036373 -3.56302e-21)
(0.195621 -0.030923 -5.31859e-20)
(0.29414 -0.0230833 0)
(0.403626 -0.0128075 0)
(0.52044 -0.000307917 -1.64026e-20)
(0.640988 0.0134747 -2.92509e-20)
(0.760528 0.0284504 -4.8507e-20)
(0.876545 0.0417405 4.52158e-20)
(0.98387 0.0553481 -1.91258e-20)
(1.08002 0.0633825 3.56991e-20)
(1.16507 0.0707198 -1.63136e-20)
(1.22762 0.0709358 3.15577e-20)
(1.28391 0.0670714 -7.291e-20)
(1.31077 0.0585811 1.41461e-20)
(-0.00647711 0.000523757 3.70175e-20)
(-0.0211725 -0.00364664 0)
(-0.0391413 -0.0115998 6.54665e-20)
(-0.0523201 -0.0185095 -6.06235e-20)
(-0.055565 -0.0236689 5.58136e-20)
(-0.045093 -0.0273937 0)
(-0.0179288 -0.0301164 0)
(0.0281029 -0.03182 -4.10033e-20)
(0.0941527 -0.0319923 2.81822e-21)
(0.179801 -0.0300738 3.54525e-20)
(0.282977 -0.0255714 -2.83975e-20)
(0.399913 -0.0181858 5.40154e-20)
(0.525578 -0.0079618 0)
(0.654286 0.00463771 7.65978e-20)
(0.78031 0.0188107 -1.37849e-19)
(0.898485 0.0333618 9.12515e-20)
(1.00431 0.0473684 5.10281e-20)
(1.09515 0.0587749 -4.75692e-20)
(1.16743 0.0685581 0)
(1.22359 0.0717249 0)
(1.25897 0.0753257 0)
(1.28134 0.067883 0)
(1.29109 0.0642674 1.44765e-20)
(1.28383 0.0510103 -5.25596e-20)
(-0.13561 0.841872 -3.11121e-21)
(-0.0823619 0.842895 3.11565e-21)
(-0.0108148 0.799229 -8.87509e-23)
(0.0858662 0.706114 0)
(0.201842 0.562103 -3.02791e-21)
(0.327784 0.381688 6.08513e-21)
(0.446 0.182743 1.57495e-22)
(0.545546 -0.0307047 -3.11834e-21)
(0.629736 -0.26346 0)
(0.701762 -0.491348 0)
(0.753607 -0.666469 -1.43153e-22)
(0.780552 -0.758458 -1.12321e-22)
(0.790092 -0.775184 -1.32971e-21)
(0.786282 -0.753022 1.20735e-21)
(0.772667 -0.72025 0)
(0.759856 -0.684787 0)
(0.745413 -0.66632 8.63038e-22)
(0.715724 -0.689392 1.06659e-22)
(0.667626 -0.728163 -8.59272e-22)
(0.621172 -0.696156 -6.97209e-23)
(0.6025 -0.523334 0)
(0.617857 -0.22657 0)
(0.654416 0.103314 0)
(0.703774 0.372119 0)
(0.749168 0.537839 0)
(0.783651 0.610985 0)
(0.811814 0.611136 2.04399e-22)
(0.834189 0.597945 -3.29408e-22)
(0.832801 0.624256 0)
(0.803296 0.675687 0)
(0.755243 0.668676 -3.20473e-22)
(0.70396 0.54758 3.11401e-22)
(0.672212 0.311261 2.14775e-22)
(0.667572 0.0205688 0)
(0.686272 -0.240707 0)
(0.718848 -0.416627 2.41227e-22)
(0.754689 -0.492617 -2.34451e-22)
(0.768851 -0.525251 0)
(0.727571 -0.538867 1.32685e-22)
(0.66247 -0.526133 -1.90977e-22)
(0.607924 -0.413254 6.79257e-23)
(0.591886 -0.219746 0)
(0.624686 0.0138714 -1.35501e-22)
(0.673142 0.199673 1.31754e-22)
(0.704072 0.336219 0)
(0.687049 0.444614 0)
(0.669647 0.462617 -4.25989e-23)
(0.649454 0.395416 1.30768e-22)
(0.666021 0.196059 0)
(0.669778 -0.0161968 0)
(0.683327 -0.242444 -3.18438e-23)
(0.660533 -0.408868 -5.13104e-25)
(0.653905 -0.37944 -2.46882e-24)
(0.642527 -0.309862 1.74389e-23)
(0.64638 -0.0685773 0)
(0.649437 0.129607 0)
(0.658308 0.266947 0)
(0.63759 0.526947 0)
(0.653575 0.220195 0)
(0.608843 -0.108985 0)
(-0.130198 0.760127 -2.69533e-22)
(-0.0356159 0.74383 -1.14799e-20)
(0.0717417 0.683146 -4.1725e-22)
(0.197763 0.576782 1.11332e-20)
(0.332888 0.429802 1.9133e-22)
(0.46487 0.25982 0)
(0.5793 0.0829606 -1.31102e-20)
(0.674248 -0.109718 2.59728e-20)
(0.757444 -0.330249 -1.28616e-20)
(0.825749 -0.546856 1.04222e-20)
(0.865724 -0.704126 -9.97717e-21)
(0.873014 -0.776454 6.44861e-21)
(0.859634 -0.777495 -6.28718e-21)
(0.835915 -0.743749 -1.37657e-22)
(0.804551 -0.705401 -3.5094e-21)
(0.77573 -0.668828 3.40829e-21)
(0.749997 -0.644744 -3.20846e-21)
(0.711538 -0.656374 3.02165e-21)
(0.653054 -0.688814 -3.97329e-21)
(0.592029 -0.666451 8.51378e-21)
(0.555078 -0.516315 -4.50845e-21)
(0.557135 -0.244254 -3.15891e-22)
(0.591734 0.0666908 -5.07707e-21)
(0.645877 0.331163 9.17548e-21)
(0.699901 0.504354 -4.12237e-21)
(0.74717 0.586628 1.6794e-22)
(0.79087 0.594108 2.18072e-21)
(0.825949 0.59104 -7.82649e-23)
(0.837561 0.630194 -3.7965e-21)
(0.820837 0.693281 4.12465e-21)
(0.78656 0.693813 -2.1745e-21)
(0.74646 0.572323 3.93943e-22)
(0.721887 0.325801 -2.15229e-22)
(0.71889 0.0212358 4.72878e-22)
(0.732877 -0.250877 0)
(0.75263 -0.432085 0)
(0.774753 -0.503819 -7.54002e-22)
(0.783158 -0.521057 5.75681e-22)
(0.736762 -0.519459 3.67958e-22)
(0.666243 -0.504265 7.65655e-23)
(0.606869 -0.401009 -5.43961e-22)
(0.591773 -0.223914 1.17345e-22)
(0.623743 -0.00165642 0)
(0.67062 0.185602 0)
(0.698566 0.333023 0)
(0.683351 0.4495 0)
(0.6696 0.467866 1.72771e-22)
(0.64988 0.397473 -8.94291e-23)
(0.67056 0.194268 0)
(0.677752 -0.0187498 0)
(0.69306 -0.240761 0)
(0.665696 -0.40602 -4.87032e-23)
(0.654633 -0.377256 1.52673e-23)
(0.644315 -0.309591 -3.99932e-23)
(0.646752 -0.0691178 0)
(0.648684 0.127907 0)
(0.659066 0.266748 1.98572e-23)
(0.644814 0.526931 6.30152e-23)
(0.663581 0.224759 0)
(0.612598 -0.105213 0)
(-0.02848 0.642056 8.48583e-22)
(0.0847055 0.616151 -2.04742e-20)
(0.209002 0.55098 2.3338e-20)
(0.342957 0.444916 -2.17919e-20)
(0.478078 0.305179 -1.92694e-22)
(0.601353 0.152801 0)
(0.703011 0.00131281 -2.69174e-20)
(0.791061 -0.169244 2.63394e-20)
(0.874968 -0.374736 1.96897e-22)
(0.940486 -0.575757 3.42091e-22)
(0.968234 -0.713107 2.83718e-22)
(0.957359 -0.76789 2.28955e-22)
(0.923454 -0.759801 -1.01829e-20)
(0.883041 -0.72198 1.00273e-20)
(0.838579 -0.682904 0)
(0.795873 -0.647943 1.88325e-22)
(0.760272 -0.619185 -5.82452e-21)
(0.716956 -0.618426 5.75162e-21)
(0.650964 -0.645154 0)
(0.57694 -0.635785 0)
(0.524828 -0.512542 -9.19493e-21)
(0.513335 -0.267842 1.86661e-20)
(0.542029 0.0238363 -1.7905e-20)
(0.596964 0.283485 1.31272e-21)
(0.656933 0.463075 1.29759e-20)
(0.714994 0.55429 -1.05811e-20)
(0.772409 0.570464 8.20332e-21)
(0.81996 0.577031 -3.53982e-22)
(0.845303 0.627206 -3.55976e-21)
(0.84245 0.703239 0)
(0.822617 0.71622 0)
(0.79404 0.598696 2.79181e-21)
(0.777093 0.345866 -3.49574e-21)
(0.77582 0.030908 2.56242e-23)
(0.785147 -0.250393 3.02683e-21)
(0.792834 -0.438042 -2.94102e-21)
(0.799679 -0.510135 0)
(0.80249 -0.515484 1.57805e-22)
(0.753075 -0.499423 1.01651e-21)
(0.677444 -0.482692 -1.90011e-21)
(0.612688 -0.39091 8.1469e-22)
(0.597925 -0.230303 7.0266e-23)
(0.627803 -0.01812 -8.96281e-22)
(0.672465 0.171806 7.07555e-22)
(0.697992 0.329503 1.3868e-22)
(0.684571 0.45386 1.49388e-22)
(0.673483 0.473285 -1.73236e-22)
(0.653337 0.399998 0)
(0.677713 0.193007 0)
(0.688936 -0.0207369 -8.19152e-22)
(0.706736 -0.237328 3.75847e-22)
(0.674822 -0.402077 -2.59117e-22)
(0.658672 -0.375232 2.56009e-22)
(0.649232 -0.309951 2.05442e-22)
(0.650418 -0.0704744 -7.44272e-23)
(0.650724 0.126545 6.24976e-23)
(0.66277 0.265122 -5.83289e-23)
(0.654713 0.525998 2.27038e-23)
(0.676276 0.230154 0)
(0.619478 -0.100813 0)
(0.138792 0.514914 -3.79538e-20)
(0.253629 0.486518 -3.91627e-21)
(0.37697 0.424281 3.95756e-20)
(0.504271 0.326697 -3.6368e-22)
(0.627819 0.200542 0)
(0.734755 0.0675356 0)
(0.821046 -0.0626747 -5.27117e-20)
(0.903191 -0.218425 -3.83519e-22)
(0.988234 -0.411075 7.29941e-20)
(1.04954 -0.593328 -2.92046e-21)
(1.06279 -0.707998 -1.97845e-20)
(1.03322 -0.744945 -1.23186e-20)
(0.980628 -0.73006 1.23774e-20)
(0.925241 -0.691567 0)
(0.872132 -0.653446 -6.52635e-21)
(0.820163 -0.62263 5.96973e-21)
(0.774981 -0.593254 0)
(0.728716 -0.579507 0)
(0.66131 -0.594685 5.55259e-21)
(0.578107 -0.59588 9.8046e-22)
(0.511836 -0.504699 -5.95071e-21)
(0.486798 -0.29351 -8.08027e-21)
(0.506219 -0.0228554 8.02391e-21)
(0.557211 0.230298 -6.62327e-21)
(0.619906 0.414836 1.26681e-21)
(0.686653 0.514363 4.97983e-21)
(0.75604 0.539076 4.5074e-22)
(0.814845 0.554565 2.50004e-23)
(0.854011 0.615179 0)
(0.86619 0.703922 4.60746e-21)
(0.860448 0.730558 -4.78923e-21)
(0.843636 0.621927 4.13751e-22)
(0.835025 0.36905 0)
(0.836216 0.0463691 -5.04566e-22)
(0.841944 -0.242934 6.38207e-21)
(0.839502 -0.436545 -1.01779e-20)
(0.829535 -0.51188 8.57097e-22)
(0.825287 -0.509537 9.18415e-22)
(0.774875 -0.479299 1.91402e-21)
(0.695431 -0.460076 1.93053e-22)
(0.624163 -0.38127 -1.36758e-21)
(0.608491 -0.238336 1.13986e-21)
(0.635849 -0.0359488 4.29243e-23)
(0.678502 0.157195 5.22263e-22)
(0.702243 0.324371 -6.46937e-22)
(0.690065 0.457447 -1.07846e-21)
(0.680942 0.479539 2.76888e-22)
(0.659804 0.403584 9.52945e-22)
(0.687372 0.192368 -1.89067e-21)
(0.703136 -0.0226621 1.37155e-21)
(0.724209 -0.232736 -2.60538e-22)
(0.68791 -0.396879 4.66061e-22)
(0.665928 -0.37297 2.5537e-22)
(0.656996 -0.310759 -2.54113e-22)
(0.6573 -0.0725901 6.83853e-24)
(0.655492 0.125541 -1.88554e-23)
(0.669216 0.262119 0)
(0.666996 0.52416 -2.23004e-23)
(0.691493 0.236298 2.33011e-22)
(0.629425 -0.0957968 0)
(0.336863 0.396631 3.44368e-20)
(0.440881 0.368543 -7.19232e-20)
(0.55174 0.313273 3.69664e-20)
(0.66356 0.228998 4.60626e-20)
(0.76883 0.12033 -9.37575e-20)
(0.857654 0.00686706 -2.45989e-21)
(0.933185 -0.109961 4.90281e-20)
(1.01544 -0.258824 4.8341e-20)
(1.10022 -0.436275 -4.73005e-20)
(1.14957 -0.590636 0)
(1.14282 -0.678791 -3.08708e-20)
(1.09497 -0.70134 5.42939e-20)
(1.0291 -0.685397 -2.3644e-20)
(0.963251 -0.652854 0)
(0.90439 -0.619025 0)
(0.848301 -0.59294 1.798e-22)
(0.796603 -0.567305 -9.31491e-21)
(0.747441 -0.545113 9.04374e-21)
(0.681823 -0.546346 0)
(0.594279 -0.552093 1.02673e-20)
(0.514762 -0.492016 -2.11602e-20)
(0.475488 -0.318789 2.34908e-20)
(0.483051 -0.0725432 -2.45454e-20)
(0.526379 0.172399 1.17462e-21)
(0.589184 0.360325 1.90891e-20)
(0.661609 0.467698 -8.53928e-21)
(0.740036 0.501412 -2.11078e-22)
(0.809301 0.52417 -2.84039e-21)
(0.862338 0.591559 -5.13697e-22)
(0.888996 0.693029 3.3608e-21)
(0.89788 0.739063 3.17541e-22)
(0.894508 0.646793 -7.45748e-21)
(0.89432 0.398626 1.55948e-20)
(0.898057 0.0700816 -9.15414e-21)
(0.900575 -0.226924 0)
(0.890493 -0.426295 -5.51278e-21)
(0.863948 -0.507411 5.1593e-21)
(0.850857 -0.502308 -1.81849e-21)
(0.801006 -0.459507 2.28683e-21)
(0.719649 -0.43662 -1.43867e-22)
(0.640691 -0.371331 0)
(0.622058 -0.247331 -1.11431e-22)
(0.646791 -0.0555482 3.05113e-22)
(0.687981 0.141175 0)
(0.711153 0.318158 1.10192e-21)
(0.700463 0.460047 -3.84464e-22)
(0.692839 0.485642 3.61649e-22)
(0.669815 0.407842 4.9213e-22)
(0.69965 0.192313 0)
(0.720153 -0.024677 0)
(0.745226 -0.226965 -1.10433e-21)
(0.704914 -0.390193 1.40553e-21)
(0.676231 -0.37033 -5.76975e-22)
(0.667301 -0.31199 1.25467e-22)
(0.667236 -0.0754495 7.02664e-23)
(0.66288 0.12474 1.88757e-23)
(0.678187 0.257723 3.06614e-23)
(0.681341 0.521338 0)
(0.709007 0.243077 -3.11729e-22)
(0.642335 -0.0901872 -1.28887e-22)
(0.520727 0.292439 3.14262e-20)
(0.609372 0.268614 -3.11096e-20)
(0.703732 0.222919 3.03236e-22)
(0.799031 0.153563 -3.04067e-22)
(0.889223 0.0622266 3.59294e-22)
(0.9673 -0.036393 -3.74411e-22)
(1.04272 -0.148474 6.93614e-22)
(1.12975 -0.291845 0)
(1.2067 -0.448728 -6.32804e-22)
(1.2351 -0.571873 5.57045e-22)
(1.20663 -0.636118 4.66483e-22)
(1.1439 -0.649728 -4.11988e-22)
(1.07025 -0.635578 0)
(0.998799 -0.610493 0)
(0.936236 -0.582385 1.90528e-22)
(0.878124 -0.559673 0)
(0.822151 -0.539266 -1.28269e-22)
(0.771069 -0.514187 0)
(0.710338 -0.500996 -7.00446e-21)
(0.62436 -0.503734 1.43753e-20)
(0.533691 -0.470482 -1.57795e-20)
(0.477672 -0.338768 8.32345e-21)
(0.471163 -0.122262 9.35954e-21)
(0.504439 0.111721 -9.08569e-21)
(0.564427 0.301023 -7.14296e-21)
(0.639341 0.415241 6.88608e-21)
(0.724575 0.456801 0)
(0.802674 0.485366 1.33209e-22)
(0.86762 0.559064 0)
(0.909196 0.671703 0)
(0.932509 0.735835 1.06676e-20)
(0.940691 0.663625 -1.08888e-20)
(0.949607 0.428831 9.56575e-22)
(0.957769 0.0995569 1.05667e-21)
(0.95864 -0.204267 -9.23813e-22)
(0.944031 -0.408589 -4.90437e-21)
(0.902475 -0.49686 4.76114e-21)
(0.878147 -0.494141 -2.38369e-21)
(0.829534 -0.440718 2.00701e-21)
(0.748918 -0.412049 2.68939e-22)
(0.661883 -0.359733 -8.29549e-22)
(0.637642 -0.256268 7.62573e-23)
(0.659581 -0.0764498 4.79858e-22)
(0.700443 0.122918 0)
(0.724484 0.308491 -2.87766e-22)
(0.714681 0.460939 9.63706e-22)
(0.708314 0.493245 -1.17604e-21)
(0.683422 0.414109 -4.95437e-22)
(0.71474 0.193388 0)
(0.739853 -0.0268918 4.40136e-22)
(0.769463 -0.220357 -9.68651e-22)
(0.725724 -0.381888 8.59996e-24)
(0.689403 -0.367001 -1.34903e-22)
(0.679807 -0.313521 -2.64367e-23)
(0.680003 -0.0789752 -1.4328e-23)
(0.672783 0.124072 0)
(0.689429 0.252126 -3.06796e-23)
(0.697364 0.517678 0)
(0.728547 0.250377 0)
(0.658064 -0.0840316 1.55924e-22)
(0.679851 0.203365 -2.91444e-20)
(0.753273 0.185385 2.86278e-20)