/*--------------------------------*- C++ -*----------------------------------*\
| =========                 |                                                 |
| \\      /  F ield         | OpenFOAM: The Open Source CFD Toolbox           |
|  \\    /   O peration     | Version:  2312                                  |
|   \\  /    A nd           | Website:  www.openfoam.com                      |
|    \\/     M anipulation  |                                                 |
\*---------------------------------------------------------------------------*/
FoamFile
{
    version     2.0;
    format      ascii;
    arch        "LSB;label=32;scalar=64";
    class       surfaceScalarField;
    location    "6";
    object      phi;
}
// * * * * * * * * * * * * * * * * * * * * * * * * * * * * * * * * * * * * * //

dimensions      [0 3 -1 0 0 0 0];

oriented        oriented;

internalField   nonuniform List<scalar> 
64047
(
-7.59894e-05
0.000492702
-0.000416712
-0.000137085
0.00127065
-0.00120956
-7.4269e-05
0.00182358
-0.0018864
0.000191116
0.00211401
-0.00237939
0.000722071
0.00210012
-0.00263108
0.00157461
0.00173377
-0.00258631
0.00280541
0.000963154
-0.00219395
0.00447705
-0.000263323
-0.00140832
0.00665779
-0.00199287
-0.000187861
0.00942173
-0.00426362
0.00149968
0.0128338
-0.00709944
0.00368733
0.0169391
-0.0105013
0.00639596
0.0217453
-0.0144398
0.00963359
0.0272081
-0.0188496
0.0133868
0.0332226
-0.023628
0.0176135
0.0396243
-0.0286392
0.0222376
0.0461998
-0.0337246
0.0271491
0.0527086
-0.0387183
0.0322095
0.0589099
-0.0434641
0.0372628
0.0645921
-0.0478324
0.0421502
0.0695986
-0.051734
0.0467276
0.0738441
-0.0551268
0.0508813
0.0773194
-0.0580154
0.05454
0.0800824
-0.0604435
0.0576805
0.0822379
-0.0624802
0.0603247
0.0839137
-0.0642048
0.062529
0.0852376
-0.0656932
0.0643693
0.0863215
-0.0670093
0.0659254
0.0872542
-0.0682017
0.0672689
0.0881014
-0.0693041
0.0684568
0.0889079
-0.0703393
0.0695328
0.089706
-0.0713183
0.0705202
0.0905082
-0.072258
0.0714557
0.09133
-0.0731316
0.0723099
0.0921323
-0.0740222
0.0732199
0.09277
-0.0746332
0.0739955
-0.0755755
0.0751652
0.0931803
-8.78779e-05
0.00058058
-0.000174934
0.00135771
-0.000137384
0.00178603
0.000123746
0.00185288
0.000695395
0.00152847
0.00166037
0.000768793
0.0031012
-0.000477672
0.0051002
-0.00226232
0.00773504
-0.00462771
0.0110686
-0.00759718
0.0151341
-0.0111649
0.0199199
-0.0152871
0.0253574
-0.0198773
0.0313156
-0.0248078
0.0376064
-0.0299188
0.0440009
-0.0350337
0.0502543
-0.039978
0.056135
-0.044599
0.0614532
-0.0487822
0.0660821
-0.0524614
0.0699691
-0.055621
0.0731327
-0.0582904
0.0756489
-0.0605315
0.0776288
-0.0624234
0.0791959
-0.0640473
0.0804663
-0.0654753
0.0815378
-0.0667647
0.0824853
-0.0679568
0.0833626
-0.0690789
0.0842063
-0.0701478
0.0850406
-0.0711736
0.0858828
-0.0721605
0.0867397
-0.0731149
0.0876334
-0.0740254
0.0885417
-0.0749305
0.0896187
-0.0757103
-0.076767
0.0908102
-7.47253e-05
0.000655305
-0.000129263
0.00141225
-3.18864e-05
0.00168865
0.000331074
0.00148992
0.00106612
0.000793431
0.00227494
-0.000440025
0.00405432
-0.00225705
0.00649087
-0.00469888
0.0096501
-0.00778694
0.013562
-0.011509
0.0182055
-0.0158084
0.0234974
-0.020579
0.0292893
-0.0256691
0.0353766
-0.0308951
0.0415194
-0.0360616
0.0474708
-0.0409852
0.0530091
-0.0455163
0.0579642
-0.0495542
0.0622364
-0.0530543
0.0658
-0.0560251
0.068696
-0.058517
0.0710125
-0.0606069
0.0728621
-0.0623811
0.0743602
-0.0639215
0.0756096
-0.0652967
0.0766928
-0.0665584
0.0776707
-0.0677426
0.0785861
-0.0688722
0.079468
-0.0699608
0.0803365
-0.0710163
0.0812063
-0.0720434
0.0820891
-0.0730432
0.0829962
-0.074022
0.0839372
-0.0749663
0.0849246
-0.0759179
0.0859747
-0.0767604
-0.0778079
0.0870156
-4.40557e-05
0.000699361
-2.23824e-05
0.00139057
0.000198445
0.00146783
0.000742821
0.000945541
0.00172871
-0.000192459
0.00326737
-0.00197868
0.00545731
-0.00444699
0.00837298
-0.00761456
0.0120494
-0.0114634
0.016466
-0.0159256
0.0215344
-0.0208768
0.0270967
-0.0261413
0.0329375
-0.0315099
0.0388083
-0.036766
0.0444611
-0.0417144
0.0496814
-0.0462055
0.0543152
-0.0501501
0.058283
-0.053522
0.0615791
-0.0563505
0.0642583
-0.0587042
0.0664139
-0.0606726
0.0681553
-0.0623483
0.0695885
-0.0638144
0.0708045
-0.0651374
0.071874
-0.0663662
0.072849
-0.0675334
0.0737656
-0.0686593
0.0746491
-0.0697556
0.0755172
-0.0708289
0.0763834
-0.0718825
0.0772583
-0.0729183
0.0781523
-0.0739372
0.0790723
-0.074942
0.0800335
-0.0759275
0.0810365
-0.076921
0.0821171
-0.077841
-0.07896
0.0832691
-5.21492e-06
0.000704576
0.00011774
0.00126762
0.000502036
0.00108353
0.00127674
0.000170837
0.00256534
-0.00148106
0.00447932
-0.00389266
0.0071063
-0.00707397
0.0104933
-0.0110015
0.0146283
-0.0155984
0.0194261
-0.0207235
0.0247261
-0.0261768
0.0303055
-0.0317207
0.0359084
-0.0371128
0.0412833
-0.0421409
0.0462195
-0.0466506
0.0505735
-0.0505594
0.0542799
-0.0538565
0.0573467
-0.0565888
0.0598375
-0.0588413
0.0618485
-0.0607153
0.0634862
-0.0623102
0.0648496
-0.0637118
0.0660218
-0.0649865
0.0670658
-0.0661815
0.0680272
-0.0673276
0.0689372
-0.0684434
0.0698171
-0.0695391
0.0706814
-0.0706199
0.0715408
-0.0716884
0.072404
-0.0727457
0.0732786
-0.0737929
0.0741721
-0.0748307
0.0750916
-0.0758615
0.0760466
-0.0768825
0.0770373
-0.0779117
0.0780885
-0.0788922
-0.0800224
0.0791509
3.54881e-05
0.000669088
0.000270644
0.00103246
0.00083848
0.000515694
0.00187009
-0.000860778
0.00348829
-0.00309926
0.00579533
-0.0061997
0.00885466
-0.0101333
0.0126696
-0.0148165
0.0171658
-0.0200945
0.0221857
-0.0257433
0.0275028
-0.0314939
0.0328539
-0.0370719
0.0379818
-0.0422407
0.0426749
-0.046834
0.0467947
-0.0507704
0.0502846
-0.0540493
0.0531612
-0.0567331
0.0554941
-0.0589216
0.0573809
-0.0607281
0.0589255
-0.0622599
0.0602219
-0.0636067
0.0613467
-0.0648366
0.062357
-0.0659967
0.0632928
-0.0671173
0.0641809
-0.0682157
0.065039
-0.0693016
0.0658793
-0.0703794
0.0667108
-0.0714513
0.0675407
-0.0725183
0.0683761
-0.073581
0.0692233
-0.0746402
0.0700891
-0.0756965
0.0709793
-0.0767517
0.0719015
-0.0778047
0.0728574
-0.0788675
0.073865
-0.0798998
-0.0810581
0.0749007
7.47669e-05
0.000594321
0.000426061
0.000681167
0.00118772
-0.000245967
0.00249038
-0.00216344
0.00444977
-0.00505865
0.00714779
-0.00889772
0.0106083
-0.0135938
0.0147743
-0.0189826
0.0194986
-0.0248188
0.024555
-0.0307998
0.0296738
-0.0366127
0.0345888
-0.0419869
0.0390826
-0.0467344
0.0430153
-0.0507667
0.0463331
-0.0540881
0.0490567
-0.056773
0.0512588
-0.0589352
0.0530377
-0.0607005
0.0544953
-0.0621858
0.0557225
-0.0634871
0.0567916
-0.0646757
0.0577557
-0.0658006
0.0586512
-0.0668923
0.0595023
-0.0679684
0.0603246
-0.069038
0.0611287
-0.0701057
0.0619224
-0.0711731
0.062712
-0.072241
0.0635033
-0.0733097
0.0643018
-0.0743795
0.0651126
-0.075451
0.065941
-0.0765249
0.0667914
-0.0776022
0.0676697
-0.0786829
0.0685759
-0.0797737
0.0695248
-0.0808487
-0.082022
0.0704887
0.000113429
0.000480892
0.000583656
0.000210939
0.00154612
-0.00120843
0.00312744
-0.00374476
0.00542773
-0.00735894
0.00849466
-0.0119647
0.0122958
-0.0173949
0.0167015
-0.0233883
0.0214923
-0.0296096
0.0263934
-0.0357008
0.031127
-0.0413463
0.0354637
-0.0463236
0.0392554
-0.0505262
0.0424444
-0.0539558
0.0450511
-0.0566948
0.0471485
-0.0588704
0.0488356
-0.0606222
0.0502136
-0.0620785
0.0513718
-0.0633441
0.0523807
-0.0644959
0.0532911
-0.0655862
0.0541375
-0.066647
0.0549421
-0.0676968
0.0557188
-0.0687451
0.056477
-0.0697962
0.0572232
-0.0708518
0.0579625
-0.0719124
0.0586998
-0.0729782
0.0594394
-0.0740493
0.0601859
-0.075126
0.0609437
-0.0762088
0.0617171
-0.0772983
0.0625103
-0.0783953
0.0633273
-0.0795
0.0641696
-0.080616
0.0650485
-0.0817275
-0.0829165
0.0659429
0.000153507
0.000327385
0.000747289
-0.000382843
0.0019167
-0.00237785
0.00377836
-0.00560642
0.00640532
-0.0099859
0.00979543
-0.0153548
0.0138461
-0.0214455
0.0183525
-0.0278947
0.0230388
-0.0342959
0.0276142
-0.0402762
0.0318309
-0.0455631
0.0355249
-0.0500176
0.0386273
-0.0536286
0.0411527
-0.0564811
0.0431722
-0.0587143
0.0447846
-0.0604828
0.0460917
-0.0619293
0.0471832
-0.06317
0.0481293
-0.0642901
0.0489802
-0.0653468
0.0497695
-0.0663754
0.0505184
-0.0673959
0.05124
-0.0684184
0.0519425
-0.0694477
0.0526319
-0.0704855
0.0533124
-0.0715324
0.0539883
-0.0725883
0.0546633
-0.0736533
0.0553414
-0.0747274
0.0560265
-0.075811
0.0567222
-0.0769045
0.0574322
-0.0780083
0.0581596
-0.0791227
0.0589078
-0.0802481
0.0596777
-0.0813859
0.0604775
-0.0825273
-0.0837284
0.0612893
0.000196826
0.00013056
0.00092018
-0.0011062
0.00230059
-0.00375825
0.00443565
-0.00774148
0.00735765
-0.0129079
0.0110003
-0.0189974
0.0151846
-0.0256299
0.0196416
-0.0323517
0.024068
-0.0387223
0.0281928
-0.044401
0.0318271
-0.0491974
0.0348828
-0.0530733
0.0373624
-0.0561082
0.0393316
-0.0584503
0.0408882
-0.0602709
0.0421352
-0.0617299
0.0431643
-0.0629584
0.044047
-0.0640528
0.0448348
-0.0650779
0.0455615
-0.0660735
0.0462482
-0.0670622
0.0469077
-0.0680554
0.0475479
-0.0690586
0.0481738
-0.0700736
0.0487894
-0.0711012
0.0493982
-0.0721412
0.0500034
-0.0731935
0.0506082
-0.0742581
0.051216
-0.0753352
0.05183
-0.076425
0.0524534
-0.0775279
0.053089
-0.0786439
0.0537396
-0.0797733
0.0544077
-0.0809162
0.0550949
-0.0820731
0.0558073
-0.0832397
-0.0844524
0.0565313
0.000244133
-0.000113573
0.00110244
-0.00196451
0.00269297
-0.00534878
0.00508274
-0.0101313
0.0082493
-0.0160745
0.0120528
-0.0228009
0.0162432
-0.0298203
0.0205104
-0.0366189
0.0245572
-0.0427691
0.0281619
-0.0480056
0.0312073
-0.0522429
0.0336762
-0.0555422
0.0356241
-0.0580561
0.0371459
-0.0599722
0.0383463
-0.0614712
0.0393197
-0.0627033
0.0401413
-0.0637799
0.0408647
-0.0647763
0.0415255
-0.0657387
0.0421456
-0.0666936
0.0427379
-0.0676545
0.0433101
-0.0686276
0.0438671
-0.0696156
0.0444124
-0.0706189
0.044949
-0.0716377
0.0454795
-0.0726717
0.046007
-0.0737209
0.0465341
-0.0747853
0.0470639
-0.075865
0.0475991
-0.0769602
0.0481424
-0.0780712
0.0486963
-0.0791978
0.049263
-0.0803401
0.0498445
-0.0814978
0.0504424
-0.0826709
0.051061
-0.0838583
-0.0850814
0.05169
0.000295041
-0.000408614
0.00129086
-0.00296033
0.00308309
-0.00714101
0.00569548
-0.0127436
0.00903929
-0.0194183
0.0129
-0.0266616
0.0169727
-0.0338929
0.020936
-0.0405822
0.0245288
-0.0463619
0.0275946
-0.0510715
0.0300867
-0.054735
0.0320438
-0.0574993
0.0335546
-0.0595668
0.0347243
-0.0611419
0.0356517
-0.0623986
0.0364165
-0.0634681
0.0370765
-0.0644399
0.03767
-0.0653698
0.0382206
-0.0662893
0.038742
-0.0672151
0.0392424
-0.0681548
0.0397263
-0.0691116
0.0401972
-0.0700864
0.0406576
-0.0710794
0.0411101
-0.0720902
0.041557
-0.0731186
0.0420008
-0.0741647
0.042444
-0.0752285
0.0428891
-0.0763101
0.0433386
-0.0774097
0.0437947
-0.0785273
0.0442595
-0.0796626
0.0447347
-0.0808153
0.0452221
-0.0819851
0.0457232
-0.0831721
0.0462414
-0.0843765
-0.0856096
0.0467696
0.000348384
-0.000756998
0.00147977
-0.00409172
0.00345633
-0.00911757
0.00624631
-0.0155336
0.0096883
-0.0228603
0.0135014
-0.0304747
0.0173498
-0.0377414
0.0209305
-0.044163
0.024038
-0.0494693
0.0265842
-0.0536178
0.028582
-0.0567327
0.0301082
-0.0590255
0.0312667
-0.0607254
0.0321606
-0.0620358
0.0328756
-0.0631136
0.0334752
-0.0640677
0.0340018
-0.0649666
0.0344818
-0.0658497
0.0349303
-0.0667379
0.0353561
-0.0676409
0.0357642
-0.0685629
0.0361579
-0.0695052
0.0365394
-0.070468
0.036911
-0.071451
0.0372749
-0.072454
0.0376332
-0.0734769
0.037988
-0.0745195
0.0383417
-0.0755822
0.0386964
-0.0766648
0.0390542
-0.0777676
0.0394171
-0.0788902
0.0397868
-0.0800322
0.0401648
-0.0811933
0.0405525
-0.0823729
0.0409516
-0.0835711
0.0413644
-0.0847893
-0.0860315
0.0417863
0.000402483
-0.00115948
0.00166219
-0.00535143
0.00379655
-0.0112519
0.00670871
-0.0184458
0.010165
-0.0263165
0.0138346
-0.0341443
0.017378
-0.0412848
0.0205331
-0.0473181
0.0231582
-0.0520944
0.0252277
-0.0556873
0.0267985
-0.0583035
0.0279689
-0.0601959
0.0288453
-0.0616017
0.0295203
-0.0627108
0.0300647
-0.0636579
0.0305265
-0.0645295
0.030936
-0.065376
0.0313107
-0.0662244
0.0316606
-0.0670877
0.031991
-0.0679713
0.0323053
-0.0688772
0.0326059
-0.0698058
0.0328948
-0.0707569
0.0331739
-0.0717301
0.0334451
-0.0727252
0.0337102
-0.073742
0.0339714
-0.0747807
0.0342306
-0.0758414
0.0344898
-0.076924
0.0347507
-0.0780285
0.035015
-0.0791545
0.0352841
-0.0803014
0.0355594
-0.0814686
0.0358421
-0.0826556
0.0361339
-0.0838629
0.0364364
-0.0850918
-0.0863423
0.0367473
0.000455416
-0.0016149
0.00183066
-0.00672667
0.00408818
-0.0135094
0.00706064
-0.0214183
0.0104498
-0.0297057
0.0138968
-0.0375912
0.0170824
-0.0444704
0.0197992
-0.0500348
0.0219683
-0.0542635
0.0236146
-0.0573335
0.0248238
-0.0595126
0.0257026
-0.0610747
0.0263508
-0.06225
0.0268476
-0.0632076
0.0272485
-0.0640589
0.0275891
-0.0648701
0.0278902
-0.0656771
0.0281635
-0.0664977
0.0284152
-0.0673394
0.0286492
-0.0682052
0.0288677
-0.0690958
0.0290727
-0.0700109
0.029266
-0.0709502
0.0294492
-0.0719133
0.029624
-0.0729
0.0297922
-0.0739103
0.0299557
-0.0749442
0.0301161
-0.0760018
0.0302752
-0.0770831
0.0304346
-0.0781878
0.0305957
-0.0793155
0.0307596
-0.0804653
0.0309276
-0.0816366
0.0311009
-0.0828289
0.031281
-0.084043
0.0314693
-0.0852801
-0.0865379
0.0316649
0.000505122
-0.00212002
0.00197788
-0.00819944
0.00431777
-0.0158493
0.00728682
-0.0243873
0.0105362
-0.0329551
0.0137016
-0.0407566
0.0165024
-0.0472713
0.0187906
-0.052323
0.0205429
-0.0560158
0.0218211
-0.0586118
0.0227268
-0.0604184
0.0233653
-0.0617132
0.0238252
-0.0627098
0.0241712
-0.0635537
0.0244458
-0.0643335
0.0246745
-0.0650988
0.0248714
-0.065874
0.0250443
-0.0666705
0.0251973
-0.0674925
0.0253332
-0.0683411
0.0254537
-0.0692163
0.0255606
-0.0701178
0.0256554
-0.0710449
0.0257396
-0.0719975
0.0258148
-0.0729752
0.0258826
-0.0739781
0.0259446
-0.0750062
0.0260024
-0.0760596
0.0260575
-0.0771382
0.0261113
-0.0782417
0.026165
-0.0793692
0.0262196
-0.0805199
0.026276
-0.081693
0.0263356
-0.0828885
0.0263997
-0.084107
0.0264696
-0.08535
-0.0866142
0.0265458
0.000549473
-0.00266949
0.00209732
-0.00974729
0.00447519
-0.0182272
0.0073797
-0.0272918
0.0104291
-0.0360046
0.0132742
-0.0436017
0.0156839
-0.0496809
0.0175676
-0.0542067
0.0189472
-0.0573954
0.0199089
-0.0595736
0.0205596
-0.0610691
0.0209971
-0.0621506
0.0212968
-0.0630095
0.0215101
-0.0637669
0.0216686
-0.064492
0.0217901
-0.0652203
0.0218844
-0.0659683
0.0219566
-0.0667427
0.0220098
-0.0675456
0.0220458
-0.0683771
0.0220663
-0.0692368
0.0220727
-0.0701242
0.0220665
-0.0710387
0.022049
-0.07198
0.0220217
-0.0729479
0.021986
-0.0739424
0.0219435
-0.0749636
0.0218954
-0.0760116
0.0218432
-0.077086
0.021788
-0.0781865
0.0217309
-0.079312
0.0216727
-0.0804617
0.0216142
-0.0816346
0.0215565
-0.0828308
0.0215008
-0.0840514
0.0214483
-0.0852975
-0.0865663
0.0214004
0.000586773
-0.00325626
0.00218432
-0.0113448
0.00455488
-0.0205978
0.00733953
-0.0300765
0.0101428
-0.0388079
0.0126466
-0.0461055
0.0146737
-0.051708
0.0161849
-0.0557179
0.0172359
-0.0584463
0.0179264
-0.0602641
0.018361
-0.0615036
0.0186265
-0.0624162
0.0187854
-0.0631684
0.0188773
-0.0638588
0.0189253
-0.06454
0.0189419
-0.065237
0.0189338
-0.0659602
0.0189045
-0.0667135
0.0188563
-0.0674974
0.0187907
-0.0683115
0.0187092
-0.0691553
0.0186131
-0.0700281
0.0185037
-0.0709292
0.0183821
-0.0718585
0.0182499
-0.0728156
0.0181081
-0.0738007
0.0179582
-0.0748137
0.0178014
-0.0758548
0.0176389
-0.0769235
0.0174717
-0.0780193
0.0173008
-0.0791411
0.017127
-0.0802878
0.0169509
-0.0814585
0.0167734
-0.0826533
0.0165953
-0.0838733
0.0164175
-0.0851196
-0.0863904
0.0162416
0.000616807
-0.00387307
0.00223727
-0.0129653
0.00455631
-0.0229168
0.00717346
-0.0326936
0.00969824
-0.0413326
0.0118545
-0.0482618
0.0135182
-0.0533717
0.0146923
-0.0568921
0.0154556
-0.0592096
0.0159126
-0.0607211
0.0161608
-0.0617518
0.016275
-0.0625305
0.0163056
-0.063199
0.0162828
-0.063836
0.0162231
-0.0644804
0.0161355
-0.0651493
0.0160244
-0.0658491
0.0158925
-0.0665815
0.0157415
-0.0673464
0.0155728
-0.0681428
0.0153877
-0.0689702
0.0151872
-0.0698276
0.0149727
-0.0707147
0.0147451
-0.0716309
0.0145058
-0.0725763
0.0142558
-0.0735507
0.0139963
-0.0745542
0.0137283
-0.0755868
0.013453
-0.0766482
0.0131713
-0.0777376
0.012884
-0.0788538
0.0125919
-0.0799957
0.0122957
-0.0811623
0.0119962
-0.0823538
0.0116943
-0.0835714
0.0113904
-0.0848157
0.0110866
-0.0860865
-0.000859772
0.000688242
0.00017153
-0.00274436
0.00148555
0.000399037
-0.00522199
0.00193458
0.000543055
-0.00803233
0.00217854
0.000631792
-0.0110364
0.00231432
0.000689717
-0.0141707
0.00240077
0.000733601
-0.0174097
0.00246671
0.000772221
-0.0207407
0.00252219
0.000808798
-0.0241528
0.00256832
0.000843797
-0.0276324
0.00260291
0.000876704
-0.0311621
0.00262292
0.000906778
-0.0347206
0.00262526
0.000933248
-0.0382829
0.00260691
0.000955359
-0.0418202
0.002565
0.000972379
-0.0453007
0.00249685
0.000983611
-0.0486891
0.0024
0.000988406
-0.0519475
0.00227218
0.000986185
-0.0550353
0.00211138
0.000976447
-0.0579099
0.00191579
0.00095878
-0.0605265
0.00168377
0.000932887
-0.0628388
0.00141373
0.000898583
-0.0647987
0.0011041
0.000855744
-0.0663561
0.000753075
0.000804351
-0.0674584
0.000358016
0.000744323
-0.0680539
-7.93893e-05
0.000674831
-0.0680914
-0.00056076
0.00059832
-0.0675193
-0.00108781
0.000515653
-0.0662816
-0.00166333
0.000425601
-0.0643252
-0.00228683
0.000330519
-0.0616018
-0.0029549
0.000231431
-0.05807
-0.00366141
0.000129591
-0.0536983
-0.00439699
2.53071e-05
-0.04848
-0.0051486
-6.97119e-05
-0.0424209
-0.00589459
-0.000164484
-0.0355618
-0.00660526
-0.000253874
-0.0279931
-0.00723329
-0.000335385
-0.00769005
-0.0199003
-0.00040273
-0.000808232
0.00149647
-0.0026019
0.00327922
-0.00497932
0.004312
-0.00769045
0.00488967
-0.0105968
0.00522062
-0.0136319
0.00543594
-0.0167672
0.00560196
-0.0199879
0.00574295
-0.0232819
0.00586226
-0.0266343
0.00595534
-0.0300269
0.00601551
-0.0334375
0.00603584
-0.0368402
0.00600962
-0.0402057
0.0059305
-0.0435014
0.00579258
-0.0466919
0.00559047
-0.0497391
0.00531941
-0.052603
0.00497523
-0.0552415
0.00455437
-0.0576115
0.00405376
-0.0596684
0.00347061
-0.0613664
0.00280211
-0.0626588
0.00204546
-0.0634972
0.00119641
-0.0638133
0.000236694
-0.063602
-0.000772092
-0.0627961
-0.00189368
-0.0613401
-0.00311934
-0.0591841
-0.00444279
-0.0562824
-0.0058566
-0.0525961
-0.00734776
-0.0480973
-0.00889579
-0.0427745
-0.0104713
-0.0366347
-0.0120345
-0.0297094
-0.0135305
-0.0220625
-0.0148802
-0.0159265
-0.0138261
-0.000702985
0.00219946
-0.00230782
0.00488406
-0.00447507
0.00647925
-0.00697727
0.00739187
-0.00967763
0.00792098
-0.0125038
0.00826215
-0.0154207
0.00851879
-0.0184089
0.00873121
-0.0214533
0.00890666
-0.0245371
0.0090391
-0.0276402
0.00911861
-0.030739
0.00913465
-0.0338064
0.00907705
-0.0368122
0.00893622
-0.039723
0.00870339
-0.0425033
0.00837076
-0.0451154
0.0079316
-0.0475206
0.00738038
-0.0496789
0.00671271
-0.0515504
0.00592524
-0.0530952
0.00501543
-0.0542741
0.00398094
-0.0550474
0.00281884
-0.0553761
0.00152511
-0.0551983
5.88266e-05
-0.0545255
-0.0014449
-0.053287
-0.00313209
-0.0514425
-0.00496391
-0.0489487
-0.00693653
-0.0457637
-0.00904168
-0.0418498
-0.0112616
-0.0371795
-0.0135661
-0.0317407
-0.0159101
-0.0255402
-0.018235
-0.0186047
-0.020466
-0.0109817
-0.0225031
-0.0242019
-0.00270635
-0.00055416
0.00275362
-0.0018851
0.006215
-0.00374244
0.00833659
-0.00593402
0.00958345
-0.00832799
0.010315
-0.0108445
0.0107786
-0.0134388
0.0111131
-0.0160847
0.0113771
-0.0187625
0.0115844
-0.0214523
0.0117289
-0.024132
0.0117983
-0.0267763
0.011779
-0.0293567
0.0116575
-0.0318421
0.0114216
-0.0341989
0.0110601
-0.0363915
0.0105634
-0.0383836
0.0099237
-0.0401383
0.00913505
-0.0416191
0.00819354
-0.0427909
0.00709701
-0.0436202
0.00584469
-0.0440758
0.00443662
-0.0441288
0.00287181
-0.0437433
0.00113958
-0.0429528
-0.000731701
-0.0416554
-0.00274222
-0.0398577
-0.00492988
-0.0375301
-0.00729145
-0.0346387
-0.0098279
-0.0311465
-0.012534
-0.0270165
-0.0153916
-0.0222182
-0.0183644
-0.0167346
-0.0213937
-0.0105715
-0.0243981
-0.00375912
-0.0272784
0.00365596
-0.0299182
-0.0322492
0.0117033
-0.000376021
0.00312964
-0.00136707
0.00720606
-0.00283043
0.00979994
-0.00462197
0.011375
-0.0066207
0.0123137
-0.00873982
0.0128978
-0.0109235
0.0132968
-0.0131361
0.0135897
-0.0153517
0.0138001
-0.0175471
0.0139243
-0.0196976
0.0139489
-0.0217765
0.0138578
-0.0237542
0.0136353
-0.0255993
0.0132667
-0.0272785
0.0127393
-0.0287574
0.0120423
-0.0300015
0.0111678
-0.0309771
0.0101107
-0.0316525
0.00886887
-0.0319987
0.00744327
-0.0319914
0.00583736
-0.0316105
0.00405569
-0.03084
0.00210136
-0.0296625
-3.79572e-05
-0.0281056
-0.00228854
-0.0261209
-0.00472689
-0.023711
-0.00733985
-0.0208641
-0.0101384
-0.0175588
-0.0131332
-0.0137646
-0.0163282
-0.00944563
-0.0197105
-0.00456796
-0.023242
0.000887085
-0.0268487
0.00691702
-0.030428
0.0134901
-0.0338515
0.020516
-0.036944
-0.0397652
0.0280319
-0.000185646
0.00331529
-0.000795519
0.00781593
-0.00180226
0.0108067
-0.00312114
0.0126939
-0.00465066
0.0138432
-0.006301
0.0145481
-0.00800504
0.0150008
-0.00971632
0.015301
-0.0114014
0.0154851
-0.0130323
0.0155552
-0.0145824
0.015499
-0.0160239
0.0152993
-0.0173274
0.0149388
-0.0184623
0.0144015
-0.019397
0.0136739
-0.0200999
0.0127452
-0.0205405
0.0116084
-0.0206899
0.0102602
-0.0205228
0.00870172
-0.0200179
0.00693836
-0.0191595
0.00497905
-0.0179389
0.00283507
-0.0163463
0.000508747
-0.0144255
-0.00195881
-0.0121293
-0.00458473
-0.00948813
-0.00736803
-0.00650765
-0.0103203
-0.00318501
-0.013461
0.000494387
-0.0168126
0.00455689
-0.0203907
0.00903712
-0.0241908
0.0139681
-0.028173
0.019367
-0.0322476
0.025226
-0.036287
0.0314928
-0.0401183
0.0380723
-0.0435235
-0.0466053
0.0449124
-4.58719e-07
0.00331574
-0.000216941
0.00803241
-0.000732076
0.0113218
-0.00152746
0.0134893
-0.00253178
0.0148475
-0.00365965
0.0156759
-0.00483559
0.0161768
-0.00600199
0.0164674
-0.00711654
0.0165997
-0.00814615
0.0165848
-0.0090618
0.0164146
-0.00983557
0.0160731
-0.0104395
0.0155427
-0.0108456
0.0148076
-0.0110262
0.0138545
-0.0109546
0.0126737
-0.0106065
0.0112603
-0.00996048
0.0096141
-0.00899925
0.0077405
-0.00771116
0.00565027
-0.00609103
0.00335893
-0.00413971
0.000883755
-0.00187795
-0.00175302
0.000696491
-0.00453325
0.003562
-0.00745024
0.00670258
-0.0105086
0.0101089
-0.0137267
0.0137841
-0.0171361
0.0177457
-0.0207742
0.0220243
-0.0246693
0.0266528
-0.0288193
0.0316569
-0.0331772
0.0370301
-0.0376209
0.0427407
-0.0419976
0.0486925
-0.0460701
0.0547955
-0.0496265
-0.0527017
0.0608919
0.000161789
0.00315396
0.00031928
0.00787492
0.000299499
0.0113416
5.15137e-05
0.0137372
-0.000393236
0.0152923
-0.000963814
0.0162465
-0.00158281
0.0167958
-0.00218373
0.0170683
-0.00271516
0.0171311
-0.00313793
0.0170076
-0.00342042
0.0166971
-0.00353502
0.0161877
-0.00345631
0.015464
-0.00316051
0.0145118
-0.00262567
0.0133196
-0.00183231
0.0118804
-0.000764192
0.0101922
0.000590751
0.00825915
0.00223931
0.00609193
0.00418228
0.0037073
0.00641369
0.00112751
0.00892105
-0.00162361
0.0116872
-0.00451912
0.0146944
-0.00754048
0.0179256
-0.0106814
0.0213709
-0.0139539
0.0250339
-0.0173897
0.0289339
-0.0210362
0.0331037
-0.0249439
0.0375802
-0.0291458
0.0423868
-0.0336259
0.0475211
-0.0383115
0.0529264
-0.0430262
0.0585217
-0.0475928
0.0641478
-0.0516962
0.0697207
-0.0551994
-0.0579814
0.0750004
0.000289425
0.00286453
0.000771974
0.00739237
0.00121367
0.0108999
0.00150331
0.0134476
0.00162582
0.0151698
0.00162624
0.0162461
0.00157431
0.0168477
0.00153987
0.0171028
0.00158148
0.0170895
0.00174455
0.0168445
0.00206392
0.0163777
0.00256712
0.0156845
0.00327671
0.0147544
0.00421139
0.0135772
0.00538623
0.0121448
0.00681234
0.0104542
0.00849629
0.0085082
0.0104394
0.00631602
0.0126372
0.00389413
0.0150779
0.00126666
0.0177488
-0.00154347
0.020629
-0.00450376
0.0236984
-0.00758854
0.0269427
-0.0107848
0.0303587
-0.0140974
0.0339596
-0.0175549
0.0377775
-0.0212076
0.0418588
-0.0251175
0.046251
-0.0293361
0.0509835
-0.0338784
0.0560424
-0.0386848
0.0613634
-0.0436324
0.0668122
-0.048475
0.0722415
-0.0530222
0.0774414
-0.0568961
0.0823454
-0.0601034
-0.0623287
0.0866927
0.000374321
0.00249021
0.00110797
0.00665872
0.0019415
0.0100664
0.00272016
0.0126689
0.00338352
0.0145064
0.00394235
0.0156873
0.00444767
0.0163424
0.00496375
0.0165867
0.00555119
0.016502
0.00625973
0.016136
0.00712738
0.0155101
0.00818211
0.0146297
0.00944405
0.0134925
0.0109268
0.0120944
0.0126384
0.0104332
0.014581
0.00851167
0.0167509
0.00633823
0.0191385
0.00392847
0.0217261
0.00130655
0.0244997
-0.00150696
0.0274348
-0.00447858
0.0305107
-0.00757968
0.0337179
-0.0107957
0.0370623
-0.0141292
0.0405725
-0.0176075
0.0442994
-0.0212818
0.0483093
-0.0252175
0.0526658
-0.029474
0.0574032
-0.0340734
0.0625016
-0.0389768
0.0678667
-0.04405
0.0733396
-0.0491053
0.078705
-0.0538404
0.0837658
-0.058083
0.0883163
-0.0614466
0.0923391
-0.0641262
-0.0656299
0.0956403
0.00041493
0.00207528
0.00130974
0.00576391
0.00243389
0.00894223
0.00361243
0.0114904
0.00474931
0.0133695
0.00581901
0.0146176
0.00684514
0.0153162
0.00787637
0.0155555
0.00896727
0.0154111
0.0101671
0.0149362
0.0115147
0.0141624
0.0130383
0.0131062
0.0147556
0.0117752
0.0166758
0.0101741
0.0188
0.00830906
0.0211218
0.00618987
0.0236279
0.00383216
0.0262966
0.00125975
0.0291133
-0.00151019
0.0320521
-0.0044457
0.0350939
-0.00752038
0.0382373
-0.0107231
0.0415018
-0.0140601
0.0449339
-0.0175614
0.048606
-0.0212796
0.0526037
-0.0252795
0.0570021
-0.0296159
0.0618348
-0.0343067
0.0670643
-0.039303
0.0725677
-0.0444802
0.0781417
-0.0496239
0.0835384
-0.0545021
0.0885076
-0.0588095
0.0928661
-0.0624415
0.0964945
-0.0650749
0.099461
-0.0670927
-0.0678804
0.101712
0.00041531
0.00165997
0.00137717
0.00480206
0.00267029
0.0076491
0.00412415
0.0100365
0.00562374
0.0118699
0.00711336
0.013128
0.00858655
0.013843
0.0100687
0.0140733
0.0115998
0.0138801
0.0132212
0.0133148
0.014968
0.0124156
0.0168658
0.0112084
0.0189292
0.00971175
0.0211628
0.00794054
0.0235616
0.00591021
0.0261126
0.00363893
0.0287936
0.00115109
0.0315932
-0.00153982
0.0344879
-0.00440486
0.0374667
-0.00742452
0.0405419
-0.0105956
0.0437513
-0.0139325
0.0471626
-0.0174714
0.0508676
-0.0212664
0.0549635
-0.0253755
0.0595237
-0.0298397
0.0645642
-0.0346565
0.0700163
-0.0397587
0.0757165
-0.0450033
0.0814225
-0.0501861
0.0868528
-0.0550543
0.0917415
-0.0593908
0.0958948
-0.0629629
0.0992297
-0.0657764
0.101773
-0.0676183
0.103689
-0.0690084
-0.0692594
0.105068
0.000383359
0.00127661
0.00132542
0.00385999
0.00266117
0.00631336
0.00424438
0.00845333
0.00595993
0.0101544
0.00773445
0.0113534
0.00953598
0.0120415
0.0113646
0.0122447
0.0132396
0.012005
0.0151878
0.0113667
0.0172343
0.0103691
0.0193978
0.00904492
0.0216879
0.00742169
0.0241045
0.00552388
0.0266396
0.00337519
0.0292764
0.00100204
0.0320123
-0.00158476
0.0348334
-0.00436093
0.0377458
-0.00731726
0.0407824
-0.0104611
0.0440041
-0.0138173
0.0474993
-0.0174277
0.0513712
-0.0213434
0.0557132
-0.0256083
0.0605764
-0.0302387
0.0659379
-0.0352012
0.0716814
-0.0404
0.0775976
-0.0456749
0.0834103
-0.050816
0.0888214
-0.0555972
0.0935707
-0.0598036
0.0974827
-0.0633027
0.100508
-0.0659886
0.102712
-0.06798
0.104259
-0.0691658
0.105367
-0.0701162
-0.0700936
0.106201
0.000328345
0.000948266
0.00117948
0.00300886
0.00244282
0.00505002
0.00400827
0.00688788
0.00577617
0.00838648
0.00766997
0.00945965
0.00964195
0.0100695
0.0116709
0.0102157
0.0137549
0.00992099
0.0159026
0.00921904
0.0181253
0.00814634
0.0204322
0.00673805
0.0228273
0.00502655
0.0253101
0.00304113
0.0278754
0.000809869
0.0305347
-0.00165722
0.033293
-0.00434307
0.036182
-0.00724994
0.0392603
-0.0103956
0.0426119
-0.0138127
0.046338
-0.0175434
0.0505373
-0.021627
0.0552772
-0.0260833
0.0605636
-0.0308947
0.0663168
-0.0359919
0.0723646
-0.041249
0.0784558
-0.0464911
0.0842944
-0.0515134
0.0895901
-0.0561117
0.0941098
-0.0601169
0.0977258
-0.0634197
0.100427
-0.066004
0.102328
-0.0678892
0.103603
-0.0692549
0.104481
-0.0700438
0.105155
-0.0707909
-0.0707196
0.105781
0.000258666
0.0006896
0.000967314
0.00230021
0.00206681
0.00395052
0.00348672
0.00546797
0.00515223
0.00672096
0.00699569
0.00761619
0.00896492
0.0081003
0.0110258
0.00815479
0.0131603
0.00778653
0.0153614
0.00701793
0.0176289
0.0058789
0.0199658
0.00440115
0.0223781
0.00261418
0.0248756
0.000543678
0.0274866
-0.0018011
0.0302424
-0.00441305
0.0332032
-0.00730388
0.0364513
-0.010498
0.0400844
-0.0140287
0.0441995
-0.0179279
0.0488687
-0.0222126
0.0541114
-0.0268697
0.0598715
-0.0318434
0.0660063
-0.0370296
0.0722932
-0.0422788
0.0784542
-0.04741
0.0841965
-0.0522335
0.0892605
-0.0565774
0.0934655
-0.0603167
0.096739
-0.0633903
0.0991274
-0.0658081
0.100766
-0.0676425
0.101859
-0.0689828
0.102598
-0.0699936
0.103188
-0.0706336
0.103744
-0.0713469
-0.0713537
0.104378
0.000180958
0.000508642
0.00071566
0.00176551
0.0015903
0.00307588
0.00277207
0.00428621
0.00421426
0.00527877
0.0058659
0.00596454
0.00768064
0.00628556
0.00962224
0.00621319
0.0116666
0.00574219
0.0138014
0.0048831
0.0160258
0.00365454
0.0183504
0.0020765
0.020799
0.000165619
0.0234164
-0.0020738
0.0262605
-0.00464511
0.0294125
-0.0075651
0.0329666
-0.0108579
0.0370158
-0.0145472
0.0416312
-0.0186441
0.0468378
-0.0231345
0.0525937
-0.0279684
0.058778
-0.0330539
0.0651935
-0.0382589
0.0715849
-0.043421
0.0776709
-0.0483648
0.0831852
-0.0529243
0.0879186
-0.0569669
0.091753
-0.0604118
0.0946776
-0.0632413
0.096781
-0.0654937
0.0982259
-0.0672531
0.0991998
-0.0686164
0.0998984
-0.0696815
0.100452
-0.0705476
0.101012
-0.0711928
0.101601
-0.0719359
-0.0720748
0.102322
0.00010108
0.000407562
0.000450452
0.00141614
0.00107329
0.00245304
0.00196986
0.00338964
0.00312126
0.00412737
0.00449783
0.00458797
0.00606804
0.00471535
0.00780586
0.00447537
0.00969597
0.00385209
0.0117374
0.00284168
0.0139464
0.00144554
0.0163588
-0.000335961
0.0190321
-0.00250761
0.0220405
-0.00508227
0.0254723
-0.00807685
0.0294146
-0.0115074
0.0339357
-0.015379
0.0390631
-0.0196746
0.0447649
-0.0243458
0.0509376
-0.0293072
0.0574066
-0.0344374
0.0639391
-0.0395865
0.0702705
-0.0445903
0.0761384
-0.0492888
0.0813204
-0.0535468
0.0856675
-0.0572714
0.0891244
-0.0604237
0.0917314
-0.0630188
0.0936073
-0.0651172
0.0949168
-0.0668032
0.0958361
-0.0681724
0.0965203
-0.0693006
0.0971056