/*--------------------------------*- C++ -*----------------------------------*\
| =========                 |                                                 |
| \\      /  F ield         | OpenFOAM: The Open Source CFD Toolbox           |
|  \\    /   O peration     | Version:  2312                                  |
|   \\  /    A nd           | Website:  www.openfoam.com                      |
|    \\/     M anipulation  |                                                 |
\*---------------------------------------------------------------------------*/
FoamFile
{
    version     2.0;
    format      ascii;
    arch        "LSB;label=32;scalar=64";
    class       volVectorField;
    location    "30";
    object      U;
}
// * * * * * * * * * * * * * * * * * * * * * * * * * * * * * * * * * * * * * //

dimensions      [0 1 -1 0 0 0 0];

internalField   nonuniform List<vector> 
5478
(
(-0.0219722 0.0168143 -6.20749e-20)
(-0.0418912 0.034067 0)
(-0.0380328 0.0414358 9.4544e-20)
(-0.00808277 0.0438108 -1.65861e-19)
(0.0518296 0.0450441 1.08906e-19)
(0.145321 0.0491182 -3.21591e-20)
(0.270913 0.0588508 -5.64058e-20)
(0.420366 0.0751395 0)
(0.580838 0.0960368 0)
(0.742387 0.12206 7.78571e-20)
(0.886272 0.143197 -3.42727e-20)
(1.02044 0.171128 -6.11865e-20)
(1.11644 0.177928 -2.57515e-20)
(1.19582 0.201291 0)
(1.25151 0.184798 7.98094e-20)
(-0.0273418 0.0162469 1.24358e-19)
(-0.0418758 0.0270715 0)
(-0.0185848 0.0293295 0)
(0.0485787 0.0314837 -8.28989e-20)
(0.1648 0.039931 1.09433e-19)
(0.324986 0.0584516 3.18063e-20)
(0.511213 0.0866743 -5.53524e-20)
(0.700479 0.120362 4.90754e-20)
(0.874955 0.155557 1.26851e-19)
(1.01741 0.184874 -1.11967e-19)
(1.1285 0.208945 1.86028e-21)
(1.19652 0.22003 0)
(1.2365 0.223986 2.56999e-20)
(1.24316 0.218324 0)
(1.23828 0.204416 0)
(-0.0311984 0.015199 -2.65622e-22)
(-0.0299068 0.0209059 -5.73436e-20)
(0.0327162 0.0228025 2.20689e-22)
(0.163679 0.0334587 0)
(0.355602 0.0600922 -3.67107e-20)
(0.576762 0.100344 3.16531e-20)
(0.789439 0.145806 2.7253e-20)
(0.96735 0.187896 0)
(1.09565 0.219224 -4.19269e-20)
(1.1762 0.238238 3.64743e-20)
(1.21107 0.242225 3.16695e-20)
(1.21807 0.238447 0)
(1.20402 0.223732 0)
(1.19036 0.214308 -7.67723e-20)
(1.17405 0.196381 6.85889e-20)
(-0.0303876 0.0122974 -6.65192e-20)
(0.00255934 0.0138978 5.67114e-20)
(0.129804 0.023755 -4.90973e-20)
(0.345562 0.0564711 4.32578e-20)
(0.602029 0.109088 7.36537e-20)
(0.83843 0.166167 -6.30982e-20)
(1.01802 0.213889 -2.7228e-20)
(1.13009 0.244303 2.26257e-20)
(1.18455 0.257454 -2.09845e-20)
(1.19726 0.25525 0)
(1.19154 0.247001 0)
(1.17989 0.233654 -4.81169e-20)
(1.17635 0.224592 6.38777e-20)
(1.17584 0.216697 -3.67053e-20)
(1.18213 0.206389 0)
(-0.0216027 0.00761935 3.36159e-20)
(0.0659727 0.00839492 2.84247e-20)
(0.283788 0.0409437 -1.02104e-19)
(0.575694 0.10632 1.11543e-21)
(0.84394 0.177599 -6.29917e-22)
(1.03327 0.232654 -6.494e-22)
(1.13753 0.263364 2.60927e-20)
(1.17858 0.273038 2.26869e-20)
(1.18437 0.268956 1.74412e-20)
(1.18019 0.26056 -1.62148e-21)
(1.17625 0.251045 -4.05791e-20)
(1.17701 0.242957 0)
(1.17598 0.23564 2.01592e-20)
(1.17285 0.224814 -1.64237e-20)
(1.16813 0.21583 2.86538e-20)
(-0.00104028 0.0025419 -7.19315e-20)
(0.170129 0.0125639 7.80384e-20)
(0.484994 0.0847874 -2.70395e-20)
(0.800408 0.175924 2.09933e-20)
(1.01839 0.244459 -3.84739e-20)
(1.13118 0.280231 -3.01004e-20)
(1.17277 0.290762 5.42497e-22)
(1.18034 0.287693 0)
(1.17845 0.280385 3.46558e-20)
(1.17451 0.27146 -3.08184e-20)
(1.16987 0.26214 1.29786e-20)
(1.16211 0.251137 0)
(1.15384 0.239884 8.41077e-21)
(1.14794 0.227547 -1.56796e-20)
(1.14205 0.218871 0)
(0.0361139 -0.000238069 -8.95016e-21)
(0.31631 0.0387915 7.74965e-22)
(0.691175 0.15269 1.30304e-20)
(0.968309 0.247181 2.26392e-20)
(1.11298 0.296832 -1.79854e-20)
(1.16758 0.313034 3.055e-20)
(1.17911 0.311979 -6.9286e-21)
(1.17552 0.304327 0)
(1.1669 0.293705 -2.01944e-20)
(1.15737 0.281914 9.98376e-22)
(1.14841 0.269486 1.73656e-20)
(1.14268 0.25768 0)
(1.13984 0.247258 -1.21801e-20)
(1.13763 0.235568 0)
(1.1372 0.229268 8.29414e-21)
(0.093373 0.00486694 -9.98912e-21)
(0.484773 0.0949331 0)
(0.858685 0.230522 1.40653e-20)
(1.07086 0.3106 0)
(1.15573 0.339809 0)
(1.17524 0.341945 0)
(1.1699 0.332983 -6.0579e-21)
(1.15811 0.320119 0)
(1.14728 0.3065 4.02535e-21)
(1.13911 0.293057 0)
(1.1334 0.280341 -5.45819e-21)
(1.12807 0.267836 0)
(1.12228 0.254985 3.76474e-21)
(1.11762 0.242093 0)
(1.1111 0.232968 2.63084e-21)
(-0.00800467 -0.00323934 -6.91028e-21)
(-0.0334991 -0.0136062 0)
(-0.0723148 -0.0230283 1.10284e-20)
(-0.111148 -0.0321463 0)
(-0.148065 -0.0423621 0)
(-0.183501 -0.0538211 0)
(-0.217715 -0.066128 -7.30092e-21)
(-0.250956 -0.0788699 0)
(-0.283432 -0.0916522 6.09828e-21)
(-0.315284 -0.104038 0)
(-0.346468 -0.115509 -1.02944e-20)
(-0.376585 -0.125419 0)
(-0.405187 -0.132891 8.72616e-21)
(-0.43293 -0.136758 0)
(-0.461657 -0.136283 7.45412e-21)
(-0.00913419 0.0173687 3.47629e-20)
(-0.0323834 0.0249296 -2.49606e-20)
(-0.0663517 0.0218757 1.13322e-20)
(-0.100143 0.0144042 3.99484e-20)
(-0.131912 0.00449577 3.71809e-22)
(-0.16184 -0.00666093 -3.2242e-20)
(-0.19023 -0.0183503 2.17337e-20)
(-0.217398 -0.0301735 0)
(-0.243646 -0.041845 1.86241e-20)
(-0.269275 -0.0530646 6.43594e-22)
(-0.294494 -0.0634348 -9.86037e-21)
(-0.319039 -0.0724884 0)
(-0.341942 -0.0798167 -2.56815e-20)
(-0.363596 -0.0846592 0)
(-0.38705 -0.0864584 -3.67351e-20)
(-0.01159 0.0319406 5.68477e-20)
(-0.0319569 0.0550356 1.29307e-20)
(-0.0577664 0.0592767 -2.23094e-20)
(-0.0824633 0.0546759 -6.04612e-20)
(-0.104682 0.0458815 3.57721e-20)
(-0.124387 0.0354022 3.29538e-20)
(-0.141676 0.0245213 -5.88048e-20)
(-0.156755 0.0138448 0)
(-0.169867 0.00370643 -4.94125e-20)
(-0.181206 -0.00564743 4.39372e-20)
(-0.190993 -0.0139483 2.01536e-20)
(-0.199678 -0.020774 0)
(-0.2055 -0.0270691 1.6946e-20)
(-0.210487 -0.0293431 -3.01024e-20)
(-0.206001 -0.0354189 0)
(-0.0140987 0.0384229 2.93126e-20)
(-0.0319375 0.0728402 -7.74382e-20)
(-0.0487048 0.0850587 9.15726e-20)
(-0.0626501 0.0849389 -8.14685e-20)
(-0.0732877 0.0783319 -3.66232e-20)
(-0.0805858 0.068933 3.29012e-20)
(-0.0845642 0.0588078 2.95953e-20)
(-0.0853364 0.0489667 2.67944e-20)
(-0.0831164 0.0399213 -7.34263e-20)
(-0.078011 0.031957 -8.30314e-22)
(-0.0689709 0.0248394 1.95369e-20)
(-0.0610387 0.0203171 0)
(-0.0393686 0.0149957 3.22021e-20)
(-0.0353015 0.0150093 8.91908e-20)
(0.00951517 0.0130985 -5.28436e-20)
(-0.0156141 0.0373472 2.92799e-22)
(-0.0319949 0.0771953 5.28078e-20)
(-0.0412206 0.0962464 -4.65357e-20)
(-0.0450953 0.101339 4.0947e-20)
(-0.0441695 0.0979898 7.33238e-20)
(-0.0388334 0.0903999 -6.57256e-20)
(-0.0293312 0.0812998 -2.94674e-20)
(-0.0157181 0.0722361 -8.06367e-20)
(0.00208248 0.0640632 7.20539e-20)
(0.0221899 0.0568797 0)
(0.0542053 0.0509148 0)
(0.0725913 0.0477304 7.11629e-20)
(0.132211 0.0454698 -1.5968e-19)
(0.141161 0.0399034 5.71506e-20)
(0.240752 0.0525126 0)
(-0.0159722 0.0314676 5.01129e-23)
(-0.0322302 0.0704459 -5.28139e-20)
(-0.0369414 0.092732 1.40121e-19)
(-0.0333243 0.101596 -4.12504e-20)
(-0.0227223 0.101301 -3.67259e-20)
(-0.0060191 0.0957805 3.28471e-20)
(0.0162782 0.0879889 2.94821e-20)
(0.0442916 0.07981 5.29783e-20)
(0.0799876 0.073017 -9.38226e-20)
(0.115895 0.0657045 4.2131e-20)
(0.183196 0.0650427 3.76538e-20)
(0.20876 0.0582614 0)
(0.336716 0.0667871 0)
(0.329476 0.0571872 1.11029e-19)
(0.522553 0.0778988 -9.91635e-20)
(-0.0161684 0.0243892 1.83224e-22)
(-0.0336342 0.0575773 0)
(-0.0368638 0.078041 0)
(-0.0285472 0.0871343 8.27302e-20)
(-0.0100961 0.0879854 -3.66123e-20)
(0.0179078 0.0839969 3.22195e-20)
(0.055868 0.0781032 5.79821e-20)
(0.105098 0.0724398 -5.14186e-20)
(0.170354 0.0698561 4.68285e-20)
(0.238793 0.06601 -4.21755e-20)
(0.35231 0.0727015 -1.14471e-21)
(0.407719 0.0690963 0)
(0.594712 0.0880516 2.91296e-20)
(0.60084 0.0810585 0)
(0.850224 0.113524 0)
(-0.0178641 0.0191239 -6.09832e-20)
(-0.0373291 0.0442375 0)
(-0.0397055 0.0587314 -9.4195e-20)
(-0.0258469 0.0647501 1.65532e-19)
(0.0045479 0.0651421 -1.81986e-19)
(0.0533674 0.0632211 -3.22903e-20)
(0.123186 0.0620928 5.68833e-20)
(0.214838 0.0638943 0)
(0.327226 0.0695045 0)
(0.451624 0.0798438 -8.08523e-20)
(0.59307 0.0921035 -3.66589e-20)
(0.713716 0.10838 6.41673e-20)
(0.875309 0.125326 -2.91733e-20)
(0.941996 0.135547 0)
(1.13354 0.161478 -9.11564e-20)
(-0.495159 -0.131435 0)
(-0.527353 -0.123598 5.87397e-21)
(-0.552477 -0.098557 -5.60343e-21)
(-0.570622 -0.0666703 0)
(-0.5771 -0.0208245 -1.61989e-22)
(-0.575473 0.0328764 0)
(-0.563258 0.0935666 2.87653e-22)
(-0.544588 0.159921 0)
(-0.516657 0.227465 -2.30341e-22)
(-0.479551 0.297541 3.05097e-21)
(-0.432851 0.364226 -2.91136e-21)
(-0.368167 0.412185 -1.18543e-22)
(-0.275828 0.407132 0)
(-0.120999 0.320424 1.23707e-22)
(0.117952 0.147825 7.21427e-23)
(0.36359 -0.0316245 0)
(0.565427 -0.164293 0)
(0.695512 -0.225688 0)
(0.768607 -0.245134 1.58597e-23)
(0.802378 -0.232833 0)
(0.818191 -0.215821 0)
(0.826078 -0.190466 2.98826e-23)
(0.834869 -0.169785 -5.60321e-23)
(0.847224 -0.14269 -2.08446e-23)
(0.865642 -0.122809 0)
(0.885642 -0.0981358 0)
(0.905916 -0.0855968 0)
(0.922161 -0.0702805 0)
(0.936696 -0.0675201 1.37914e-23)
(0.947177 -0.0578078 1.05013e-23)
(0.954875 -0.0579415 -7.88976e-24)
(0.958093 -0.0496789 -3.28358e-24)
(0.958781 -0.0519601 1.95377e-24)
(0.959321 -0.0435099 0)
(0.959938 -0.0451402 5.89222e-25)
(0.964536 -0.032765 -5.64451e-25)
(0.966991 -0.0322911 1.085e-25)
(0.975103 -0.0161451 -1.03685e-25)
(-0.424087 -0.0824567 -8.07813e-22)
(-0.472877 -0.0852033 2.10573e-20)
(-0.510114 -0.0677499 0)
(-0.546263 -0.0479195 3.00967e-22)
(-0.568741 -0.0130019 -1.25091e-22)
(-0.583326 0.0275633 0)
(-0.58271 0.0768546 -2.89802e-22)
(-0.570645 0.132134 1.46153e-20)
(-0.537413 0.188019 -1.41516e-20)
(-0.485404 0.245822 3.45808e-22)
(-0.405701 0.297191 0)
(-0.299923 0.330615 1.19356e-22)
(-0.15081 0.30351 0)
(0.0575871 0.18885 -2.77731e-22)
(0.318354 0.00855843 -7.26006e-23)
(0.540765 -0.148519 -1.15373e-22)
(0.696539 -0.241359 1.77358e-22)
(0.778527 -0.26729 -1.69313e-22)
(0.815195 -0.26356 4.07315e-22)
(0.826978 -0.240675 -4.2661e-22)
(0.832531 -0.219556 -2.46334e-23)
(0.837223 -0.193291 2.33023e-22)
(0.844097 -0.173067 -2.38328e-22)
(0.853111 -0.147294 -1.67935e-22)
(0.866432 -0.128896 2.70137e-22)
(0.883789 -0.10489 -1.20336e-22)
(0.90331 -0.0918671 -2.19916e-23)
(0.92174 -0.0754145 0)
(0.937774 -0.0714323 -4.10318e-23)
(0.950695 -0.0605327 -1.05314e-23)
(0.960219 -0.0595163 7.90957e-24)
(0.966081 -0.0502937 2.86303e-23)
(0.96838 -0.0520469 -2.38862e-23)
(0.969543 -0.0434969 7.27243e-25)
(0.969159 -0.0453798 6.33158e-25)
(0.971702 -0.0332282 8.17107e-24)
(0.97226 -0.0330145 5.50109e-24)
(0.978081 -0.0167932 -4.23845e-25)
(-0.232313 -0.0290707 4.15007e-20)
(-0.284652 -0.0417092 -3.98912e-20)
(-0.323394 -0.0315354 0)
(-0.364351 -0.0211028 3.7449e-20)
(-0.393659 0.00118945 -3.51789e-20)
(-0.415623 0.0290538 5.03359e-22)
(-0.420297 0.0627443 0)
(-0.412802 0.102869 4.68839e-22)
(-0.37744 0.143559 0)
(-0.318911 0.182386 -6.80558e-22)
(-0.220044 0.214221 -1.66972e-20)
(-0.0996404 0.235354 1.59271e-20)
(0.0691337 0.192144 1.26532e-20)
(0.289706 0.0657194 -2.14281e-20)
(0.52841 -0.109078 8.85064e-21)
(0.702295 -0.232245 1.16972e-22)
(0.800964 -0.287849 0)
(0.838297 -0.28799 -1.36053e-22)
(0.848794 -0.271038 9.38307e-23)
(0.848796 -0.244189 2.27256e-23)
(0.84995 -0.222815 -7.9324e-24)
(0.852614 -0.197008 -3.4218e-22)
(0.858978 -0.177331 3.33896e-22)
(0.866921 -0.152053 2.81374e-22)
(0.877395 -0.134336 -2.9402e-22)
(0.890432 -0.110874 0)
(0.905848 -0.0977938 2.2178e-23)
(0.921845 -0.0806499 3.39747e-23)
(0.936404 -0.0757147 -7.08389e-23)
(0.949297 -0.0638342 5.62012e-23)
(0.959472 -0.0618357 6.46016e-23)
(0.96749 -0.0516726 -1.75984e-23)
(0.971983 -0.0527196 -2.83959e-23)
(0.975085 -0.0437442 8.91208e-24)
(0.975316 -0.0455638 1.03783e-23)
(0.977274 -0.0334649 -1.62912e-23)
(0.976911 -0.0334408 4.24935e-24)
(0.980972 -0.0172584 -8.56434e-25)
(0.00325509 0.00948568 3.10655e-22)
(-0.0412045 0.00231256 3.91045e-20)
(-0.070854 0.00392488 -7.53287e-20)
(-0.106594 0.00840256 3.5696e-20)
(-0.133934 0.0191578 5.18843e-22)
(-0.156128 0.0358159 -5.16639e-22)
(-0.161839 0.0568565 0)
(-0.155601 0.082399 0)
(-0.123855 0.106505 0)
(-0.0678591 0.125887 -1.97853e-20)
(0.0301327 0.137915 1.86103e-20)
(0.144613 0.147418 5.07792e-22)
(0.309096 0.0929863 -9.03314e-22)
(0.520816 -0.0398698 3.7017e-22)
(0.719073 -0.1947 5.85416e-22)
(0.836222 -0.284306 0)
(0.881709 -0.311014 2.32527e-21)
(0.885369 -0.296156 -2.18644e-21)
(0.878878 -0.27436 6.99117e-24)
(0.872091 -0.247269 0)
(0.870269 -0.226771 3.34658e-23)
(0.870691 -0.201469 0)
(0.875004 -0.181926 3.72377e-23)
(0.881607 -0.15683 -2.34961e-23)
(0.890781 -0.139327 3.02078e-23)
(0.901616 -0.115992 0)
(0.914294 -0.10281 0)
(0.927649 -0.0851659 -1.57933e-22)
(0.940019 -0.0795424 1.88831e-22)
(0.951273 -0.0669676 -1.74993e-23)
(0.960463 -0.0642964 -7.1742e-23)
(0.968722 -0.0534338 -4.41058e-23)
(0.974126 -0.0538373 7.78828e-23)
(0.978498 -0.0443266 -1.76293e-23)
(0.979491 -0.0458725 -1.25495e-23)
(0.981433 -0.0336639 0)
(0.98076 -0.0337089 -5.14497e-24)
(0.983614 -0.0175971 0)
(0.225752 0.0361131 -3.22612e-22)
(0.201779 0.0296601 0)
(0.1784 0.0275696 5.95594e-22)
(0.15307 0.0287971 -5.6802e-22)
(0.134004 0.0332261 -1.05776e-21)
(0.117782 0.0405883 4.89771e-22)
(0.114942 0.0488709 2.86685e-20)
(0.122873 0.0608178 -5.4453e-20)
(0.14999 0.0717282 2.50525e-20)
(0.204016 0.0725273 0)
(0.289421 0.0686208 1.21416e-21)
(0.385047 0.0668023 -5.24645e-22)
(0.536205 0.00630299 -1.48525e-20)
(0.72956 -0.124208 1.50567e-20)
(0.879366 -0.249891 -3.22206e-22)
(0.939307 -0.308373 5.56156e-21)
(0.941565 -0.316004 -2.54754e-21)
(0.922419 -0.295282 -4.73697e-21)
(0.905248 -0.273742 1.55001e-21)
(0.893016 -0.24838 -1.17802e-22)
(0.887076 -0.229292 2.96126e-22)
(0.884695 -0.205216 1.62302e-22)
(0.88646 -0.186191 -3.50355e-22)
(0.891547 -0.161477 1.05949e-22)
(0.899676 -0.14427 0)
(0.909913 -0.12103 0)
(0.921638 -0.107627 0)
(0.934069 -0.089396 0)
(0.945331 -0.0830445 1.21925e-22)
(0.95552 -0.0697998 -9.08764e-23)
(0.96364 -0.0665873 -8.93063e-23)
(0.971397 -0.0552002 5.50402e-23)
(0.976729 -0.055084 -5.33589e-23)
(0.981473 -0.0450667 3.27547e-23)
(0.9828 -0.0462666 1.13492e-23)
(0.984734 -0.0338706 4.86054e-24)
(0.983978 -0.033892 3.30628e-24)
(0.986013 -0.0178518 0)
(0.48343 0.0659587 0)
(0.455239 0.0567832 7.90129e-20)
(0.430049 0.0502083 -7.49723e-20)
(0.4039 0.0453065 -7.2326e-20)
(0.38604 0.0434985 6.94296e-20)
(0.371975 0.0460129 -1.03681e-23)
(0.370267 0.0480047 4.79522e-22)
(0.381433 0.0507063 0)
(0.403018 0.0545684 -5.03603e-20)
(0.45486 0.0440278 4.83355e-20)
(0.532035 0.0261779 -6.46486e-22)
(0.614314 0.00796352 3.62385e-20)
(0.751312 -0.0600437 -6.81502e-20)
(0.909977 -0.174639 3.34506e-21)
(1.00359 -0.271697 2.63486e-20)
(1.01377 -0.308915 2.45248e-22)
(0.986418 -0.308989 1.25379e-22)
(0.953759 -0.289545 0)
(0.929667 -0.271025 0)
(0.912739 -0.248092 -2.61124e-23)
(0.902788 -0.230471 -1.93175e-23)
(0.897322 -0.207779 -7.3863e-25)
(0.896347 -0.189994 -1.10674e-23)
(0.899305 -0.165911 -3.1043e-23)
(0.905613 -0.148981 3.48217e-22)
(0.914887 -0.125905 -3.31239e-22)
(0.925726 -0.112345 -3.44965e-23)
(0.937818 -0.0935897 0)
(0.948654 -0.0864904 2.45409e-23)
(0.958692 -0.072555 0)
(0.96641 -0.0687915 8.97031e-23)
(0.973999 -0.0569265 -6.70633e-23)
(0.979161 -0.05634 0)
(0.984011 -0.0458576 -1.21049e-23)
(0.985464 -0.0466929 2.43008e-23)
(0.987393 -0.0340886 -9.62847e-24)
(0.986667 -0.0340256 0)
(0.988187 -0.0180516 1.77552e-24)
(0.802922 0.100192 -1.58792e-22)
(0.761523 0.0903386 0)
(0.725281 0.0799582 -7.79979e-20)
(0.6893 0.0681377 7.42227e-20)
(0.663237 0.0564332 7.13116e-20)
(0.642886 0.0484451 -6.83902e-20)
(0.634793 0.0401642 0)
(0.640892 0.0326333 -5.8901e-20)
(0.657539 0.0267791 5.60294e-20)
(0.702841 0.0101304 0)
(0.765171 -0.016951 3.59015e-22)
(0.836123 -0.0463968 9.51616e-22)
(0.950543 -0.112198 -2.87695e-22)
(1.05399 -0.199574 -2.96246e-20)
(1.08723 -0.266067 2.7924e-20)
(1.06201 -0.291275 1.5725e-20)
(1.01974 -0.292758 -1.49694e-20)
(0.980734 -0.278453 -6.17181e-21)
(0.951831 -0.264755 5.86455e-21)
(0.930807 -0.245534 1.04716e-22)
(0.917575 -0.230722 3.36242e-22)
(0.909661 -0.210131 -3.3273e-22)
(0.906739 -0.194088 2.51281e-23)
(0.90793 -0.17104 2.40607e-22)
(0.912322 -0.154347 3.06449e-23)
(0.919948 -0.131062 -2.75809e-22)
(0.929274 -0.117098 -2.21914e-22)
(0.94046 -0.0977579 2.5807e-22)
(0.950613 -0.0899057 -2.51093e-23)
(0.96052 -0.0753073 1.92446e-23)
(0.968058 -0.0709799 7.29106e-23)
(0.975715 -0.058648 1.50458e-23)
(0.980821 -0.0575943 -3.3111e-23)
(0.985811 -0.0466755 -7.45167e-24)
(0.987392 -0.0471386 0)
(0.989422 -0.0343263 2.81275e-24)
(0.988825 -0.0341362 -8.43001e-24)
(0.990115 -0.0182195 1.71068e-24)
(1.10253 0.14489 8.58242e-20)
(1.06976 0.13612 0)
(1.03653 0.124303 7.99878e-20)
(1.00109 0.110494 -1.53188e-19)
(0.972097 0.0941613 7.30405e-20)
(0.946413 0.0786727 0)
(0.929693 0.0617211 0)
(0.924147 0.0436802 0)
(0.928085 0.0264718 0)
(0.953584 0.00351189 0)
(0.991728 -0.0315414 -3.83412e-22)
(1.041 -0.0704595 -4.30423e-20)
(1.10868 -0.130402 4.08456e-20)
(1.14796 -0.196489 2.65014e-22)
(1.13549 -0.24782 0)
(1.09261 -0.27323 0)
(1.04642 -0.281991 2.16481e-22)
(1.00517 -0.275201 0)
(0.972553 -0.265587 -4.9296e-21)
(0.9481 -0.24844 4.6266e-21)
(0.931927 -0.234496 -6.71263e-22)
(0.921777 -0.214573 4.0173e-22)
(0.91697 -0.19889 2.43493e-22)
(0.916654 -0.176194 0)
(0.919636 -0.159674 2.38711e-22)
(0.925821 -0.136399 -4.54792e-22)
(0.93363 -0.122117 2.30129e-22)
(0.9436 -0.102186 -1.42759e-23)
(0.9528 -0.0935458 0)
(0.962236 -0.0782433 -1.97113e-23)
(0.96943 -0.0733054 -1.57289e-23)
(0.977 -0.0604667 -5.73581e-23)
(0.981991 -0.0589216 3.28047e-23)
(0.987057 -0.0475591 7.5304e-24)
(0.988739 -0.0476425 0)
(0.990926 -0.0346077 -4.20497e-24)
(0.990498 -0.0342627 0)
(0.991784 -0.0183707 -1.7697e-24)
(1.25114 0.176543 0)
(1.24275 0.16261 0)
(1.22576 0.148931 0)
(1.20443 0.134449 0)
(1.18488 0.116449 0)
(1.16637 0.097497 0)
(1.15245 0.0761629 0)
(1.14319 0.0539637 0)
(1.14153 0.0297419 0)
(1.1481 0.00168259 0)
(1.15868 -0.0322747 0)
(1.17502 -0.0687535 0)
(1.19066 -0.115263 0)
(1.18459 -0.160639 0)
(1.15508 -0.19885 0)
(1.11325 -0.220781 0)
(1.06973 -0.234824 0)
(1.02897 -0.23741 0)
(0.994209 -0.237108 0)
(0.966775 -0.228636 0)
(0.947439 -0.221674 0)
(0.934765 -0.207346 0)
(0.927648 -0.195665 0)
(0.925381 -0.176024 0)
(0.926623 -0.161545 0)
(0.931422 -0.139733 0)
(0.938013 -0.125962 0)
(0.946959 -0.106096 0)
(0.955338 -0.0969972 0)
(0.96423 -0.081238 0)
(0.971021 -0.0757245 0)
(0.978335 -0.0624503 0)
(0.983117 -0.0603685 0)
(0.988118 -0.0485996 0)
(0.989827 -0.0482439 0)
(0.992115 -0.0350117 0)
(0.991823 -0.0344559 0)
(0.993186 -0.0185623 0)
(1.23704 0.177221 0)
(1.25129 0.163755 0)
(1.25561 0.151555 0)
(1.25397 0.138913 0)
(1.25151 0.123179 0)
(1.24832 0.105427 0)
(1.24553 0.0833509 0)
(1.24268 0.0593888 0)
(1.23979 0.0309808 0)
(1.23836 -0.00221844 0)
(1.23712 -0.0388309 0)
(1.23246 -0.0769365 0)
(1.22083 -0.120373 0)
(1.19617 -0.161515 0)
(1.15926 -0.197617 0)
(1.11501 -0.220957 0)
(1.07057 -0.23597 0)
(1.02993 -0.238539 0)
(0.99647 -0.23782 0)
(0.971279 -0.228891 0)
(0.954046 -0.221565 0)
(0.942782 -0.207191 0)
(0.936055 -0.195633 0)
(0.933623 -0.176419 0)
(0.934206 -0.162278 0)
(0.93821 -0.140816 0)
(0.943778 -0.127349 0)
(0.951725 -0.107695 0)
(0.959134 -0.0985841 0)
(0.967301 -0.0826819 0)
(0.973481 -0.0769983 0)
(0.98034 -0.0635396 0)
(0.984712 -0.0612272 0)
(0.989464 -0.0491715 0)
(0.991037 -0.0485632 0)
(0.99332 -0.0351591 0)
(0.993078 -0.0345257 0)
(0.994496 -0.0186719 0)
(1.21562 0.168273 0)
(1.23327 0.156296 0)
(1.24244 0.144159 0)
(1.24657 0.132066 0)
(1.2497 0.117842 0)
(1.25253 0.101262 0)
(1.25536 0.0809795 0)
(1.25665 0.0580157 0)
(1.25607 0.030763 0)
(1.25338 0.00231505 0)
(1.24703 -0.0316144 0)
(1.23483 -0.0662542 0)
(1.21589 -0.103127 0)
(1.18877 -0.136152 0)
(1.15433 -0.166327 0)
(1.11547 -0.186598 0)
(1.07676 -0.201778 0)
(1.04134 -0.207944 0)
(1.01165 -0.212936 0)
(0.987951 -0.210479 0)
(0.969911 -0.208945 0)
(0.956784 -0.199418 0)
(0.947813 -0.191347 0)
(0.943466 -0.174698 0)
(0.942322 -0.162293 0)
(0.945027 -0.142101 0)
(0.949383 -0.129343 0)
(0.956383 -0.109998 0)
(0.962905 -0.100792 0)
(0.970474 -0.0846593 0)
(0.976133 -0.0786704 0)
(0.982609 -0.064921 0)
(0.986591 -0.0622608 0)
(0.991074 -0.0498679 0)
(0.992469 -0.0489507 0)
(0.994694 -0.035367 0)
(0.994459 -0.0346303 0)
(0.99589 -0.0188165 0)
(1.20101 0.159811 0)
(1.21765 0.148972 0)
(1.22731 0.136955 0)
(1.2321 0.125122 0)
(1.23538 0.111365 0)
(1.23869 0.0962716 0)
(1.24195 0.0777685 0)
(1.24411 0.0569563 0)
(1.24427 0.0326241 0)
(1.24135 0.00642386 0)
(1.23412 -0.0242217 0)
(1.22154 -0.055149 0)
(1.20333 -0.0881151 0)
(1.17878 -0.118649 0)
(1.14863 -0.148777 0)
(1.11476 -0.171586 0)
(1.08048 -0.191148 0)
(1.04838 -0.201653 0)
(1.02014 -0.209925 0)
(0.996515 -0.20925 0)
(0.977938 -0.208248 0)
(0.964566 -0.198866 0)
(0.955431 -0.191006 0)
(0.95095 -0.174925 0)
(0.949392 -0.16311 0)
(0.951555 -0.143536 0)
(0.955076 -0.131166 0)
(0.961242 -0.112054 0)
(0.966892 -0.102777 0)
(0.973834 -0.0864954 0)
(0.97895 -0.0802519 0)
(0.985041 -0.0662608 0)
(0.988646 -0.0632686 0)
(0.992871 -0.0505646 0)
(0.994099 -0.0493416 0)
(0.996251 -0.0356003 0)
(0.996022 -0.034751 0)
(0.997428 -0.0189794 0)
(1.18834 0.150549 0)
(1.20377 0.140975 0)
(1.2134 0.129894 0)
(1.21825 0.1186 0)
(1.22125 0.105768 0)
(1.22395 0.0919913 0)
(1.22645 0.0752247 0)
(1.22825 0.0567944 0)
(1.22817 0.0347536 0)
(1.22506 0.0111134 0)
(1.21829 -0.0163247 0)
(1.20701 -0.0438117 0)
(1.19075 -0.0737981 0)
(1.16934 -0.101661 0)
(1.1435 -0.129577 0)
(1.11463 -0.150887 0)
(1.08502 -0.169733 0)
(1.05643 -0.180464 0)
(1.03032 -0.190041 0)
(1.008 -0.191851 0)
(0.990054 -0.194147 0)
(0.976825 -0.188609 0)
(0.967175 -0.184373 0)
(0.961826 -0.171301 0)
(0.959038 -0.161661 0)
(0.959986 -0.143659 0)
(0.962172 -0.132259 0)
(0.967173 -0.113709 0)
(0.971707 -0.10456 0)
(0.977828 -0.0882461 0)
(0.982238 -0.0818032 0)
(0.987826 -0.0675953 0)
(0.990985 -0.0642729 0)
(0.994908 -0.0512676 0)
(0.995956 -0.0497351 0)
(0.998012 -0.0358402 0)
(0.997794 -0.0348676 0)
(0.999142 -0.0191509 0)
(1.17604 0.140229 0)
(1.19034 0.132066 0)
(1.19963 0.122223 0)
(1.20459 0.111984 0)
(1.20744 0.100315 0)
(1.20967 0.0878569 0)
(1.21156 0.0728642 0)
(1.21275 0.0565442 0)
(1.21231 0.0367227 0)
(1.20935 0.0158514 0)
(1.20325 -0.00847729 0)
(1.19329 -0.0328703 0)
(1.17913 -0.0599535 0)
(1.16078 -0.0849929 0)
(1.13876 -0.110942 0)
(1.1141 -0.131734 0)
(1.08802 -0.152057 0)
(1.06223 -0.165865 0)
(1.03814 -0.179405 0)
(1.01732 -0.185083 0)
(0.999973 -0.190436 0)
(0.986865 -0.187024 0)
(0.976796 -0.184057 0)
(0.970909 -0.171833 0)
(0.967302 -0.162756 0)
(0.967509 -0.145292 0)
(0.96876 -0.134214 0)
(0.972931 -0.115869 0)
(0.97657 -0.106631 0)
(0.982008 -0.0901877 0)
(0.98576 -0.0834673 0)
(0.990853 -0.0690018 0)
(0.993562 -0.065304 0)
(0.997176 -0.0519933 0)
(0.998041 -0.0501416 0)
(0.999982 -0.0361086 0)
(0.999772 -0.0349943 0)
(1.00104 -0.019334 0)
(1.16469 0.129776 0)
(1.17762 0.122944 0)
(1.18636 0.114449 0)
(1.19128 0.105492 0)
(1.19403 0.0950741 0)
(1.19598 0.0840805 0)
(1.19742 0.070765 0)
(1.19811 0.0564444 0)
(1.19749 0.0389637 0)
(1.19478 0.0207397 0)
(1.1893 -0.000804935 0)
(1.18067 -0.0223886 0)
(1.16851 -0.0467977 0)
(1.15291 -0.0695182 0)
(1.13414 -0.093967 0)
(1.113 -0.114445 0)
(1.09026 -0.135488 0)
(1.06768 -0.150428 0)
(1.04622 -0.165101 0)
(1.02729 -0.172107 0)
(1.01074 -0.178955 0)
(0.997849 -0.177453 0)
(0.987445 -0.176661 0)
(0.981037 -0.166736 0)
(0.976553 -0.159672 0)
(0.975899 -0.143938 0)
(0.976079 -0.134075 0)
(0.979293 -0.116582 0)
(0.981938 -0.107715 0)
(0.986619 -0.0914818 0)
(0.989653 -0.0847078 0)
(0.994208 -0.070152 0)
(0.996439 -0.0661672 0)
(0.999716 -0.052623 0)
(1.00038 -0.0504759 0)
(1.00218 -0.036346 0)
(1.00196 -0.035117 0)
(1.00312 -0.0195218 0)
(1.15439 0.119505 0)
(1.16592 0.113922 0)
(1.17399 0.106779 0)
(1.17872 0.0991686 0)
(1.18137 0.0901016 0)
(1.18311 0.0806072 0)
(1.18423 0.068918 0)
(1.18466 0.0565687 0)
(1.18396 0.0413028 0)
(1.18152 0.0254733 0)
(1.17667 0.00643452 0)
(1.16927 -0.0125652 0)
(1.15893 -0.0346454 0)
(1.14577 -0.0552888 0)
(1.1298 -0.0783932 0)
(1.11182 -0.0981878 0)
(1.0923 -0.119264 0)
(1.07279 -0.134919 0)
(1.05352 -0.151227 0)
(1.03604 -0.160719 0)
(1.02019 -0.170425 0)
(1.00771 -0.171718 0)
(0.997279 -0.17332 0)
(0.990697 -0.165308 0)
(0.985614 -0.159575 0)
(0.984332 -0.144836 0)
(0.983604 -0.135549 0)
(0.985985 -0.118431 0)
(0.987695 -0.109573 0)
(0.991639 -0.0933119 0)
(0.993935 -0.0862904 0)
(0.997928 -0.0715328 0)
(0.99966 -0.0671775 0)
(1.00258 -0.0533662 0)
(1.00302 -0.0508826 0)
(1.00462 -0.0366247 0)
(1.00438 -0.0352068 0)
(1.0054 -0.019709 0)
(1.14518 0.109319 0)
(1.15539 0.104909 0)
(1.16271 0.0990589 0)
(1.16717 0.0928208 0)
(1.16968 0.0851529 0)
(1.17127 0.0771906 0)
(1.17221 0.0671748 0)
(1.17251 0.0567454 0)
(1.1718 0.0435497 0)
(1.16968 0.0299734 0)
(1.1655 0.0132306 0)
(1.15924 -0.00335982 0)
(1.15052 -0.02332 0)
(1.13949 -0.0420998 0)
(1.12596 -0.0638555 0)
(1.11085 -0.0828287 0)
(1.09414 -0.103805 0)
(1.07722 -0.120278 0)
(1.05995 -0.138076 0)
(1.04421 -0.149393 0)
(1.02948 -0.160835 0)
(1.01775 -0.163843 0)
(1.00745 -0.167083 0)
(1.00077 -0.160787 0)
(0.995098 -0.156556 0)
(0.993195 -0.143234 0)
(0.991565 -0.134985 0)
(0.993134 -0.118712 0)
(0.993913 -0.11023 0)
(0.997121 -0.0942629 0)
(0.998653 -0.0872119 0)
(1.00205 -0.0724383 0)
(1.00324 -0.0678179 0)
(1.00577 -0.0538786 0)
(1.00595 -0.0511381 0)
(1.00736 -0.0368754 0)
(1.00703 -0.0353508 0)
(1.00785 -0.0198775 0)
(1.13716 0.0994871 0)
(1.1461 0.0961397 0)
(1.15265 0.0914883 0)
(1.15677 0.0865691 0)
(1.15913 0.0802729 0)
(1.16062 0.073832 0)
(1.16147 0.065437 0)
(1.16176 0.0568188 0)
(1.16112 0.0455459 0)
(1.15937 0.0340842 0)
(1.15591 0.0194234 0)
(1.15068 0.0049552 0)
(1.14331 -0.0130902 0)
(1.13416 -0.0301368 0)
(1.12277 -0.0505538 0)
(1.11014 -0.0686689 0)
(1.09577 -0.0894961 0)
(1.08122 -0.106452 0)
(1.06596 -0.125177 0)
(1.05199 -0.137843 0)
(1.03837 -0.150961 0)
(1.02737 -0.15592 0)
(1.01722 -0.161158 0)
(1.01057 -0.156836 0)
(1.00447 -0.154233 0)
(1.00213 -0.142296 0)
(0.999744 -0.134965 0)
(1.00063 -0.119424 0)
(1.00055 -0.111221 0)
(1.00306 -0.0954857 0)
(1.00382 -0.0883302 0)
(1.00661 -0.0735061 0)
(1.00725 -0.0685648 0)
(1.00934 -0.0544208 0)
(1.00922 -0.051348 0)
(1.01032 -0.0370172 0)
(1.00997 -0.035323 0)
(1.01057 -0.0200888 0)
(1.13041 0.0901832 0)
(1.13816 0.0878021 0)
(1.14396 0.0842627 0)
(1.14771 0.0806032 0)
(1.14991 0.0756427 0)
(1.15131 0.0706853 0)
(1.15211 0.0638591 0)
(1.15245 0.0569811 0)
(1.15197 0.0475149 0)
(1.15062 0.0380127 0)
(1.14774 0.0252639 0)
(1.14346 0.0127497 0)
(1.13736 -0.00342452 0)
(1.12992 -0.0188718 0)
(1.12037 -0.0380662 0)
(1.10984 -0.055402 0)
(1.09752 -0.0759447 0)
(1.08513 -0.0931145 0)
(1.07169 -0.11253 0)
(1.05936 -0.126427 0)
(1.04683 -0.141096 0)
(1.03667 -0.147831 0)
(1.02683 -0.15479 0)
(1.02039 -0.152204 0)
(1.01401 -0.151059 0)
(1.01135 -0.140459 0)
(1.00827 -0.134052 0)
(1.00852 -0.119313 0)
(1.00762 -0.111462 0)
(1.00947 -0.0960908 0)
(1.00948 -0.0889237 0)
(1.01165 -0.0741854 0)
(1.0117 -0.0690248 0)
(1.01335 -0.0548687 0)
(1.01288 -0.0515248 0)
(1.01372 -0.0372002 0)
(1.01309 -0.0353088 0)
(1.0134 -0.0200391 0)
(1.12497 0.0811205 0)
(1.13168 0.0795732 0)
(1.13679 0.0769992 0)
(1.14021 0.0744518 0)
(1.14226 0.0706788 0)
(1.14363 0.0670573 0)
(1.14442 0.0616478 0)
(1.14486 0.0563633 0)
(1.14456 0.0485503 0)
(1.1436 0.0408382 0)
(1.1414 0.0298604 0)
(1.13815 0.0191334 0)
(1.13304 0.00458134 0)
(1.12689 -0.00936249 0)
(1.11885 -0.0273054 0)
(1.11014 -0.0437051 0)
(1.0996 -0.0636956 0)
(1.0891 -0.0808024 0)
(1.07725 -0.100619 0)
(1.06645 -0.115428 0)
(1.05498 -0.131312 0)
(1.04574 -0.13957 0)
(1.03626 -0.148096 0)
(1.03012 -0.14719 0)
(1.02355 -0.14751 0)
(1.02072 -0.138304 0)
(1.01708 -0.132848 0)
(1.01682 -0.118959 0)
(1.01517 -0.111473 0)
(1.01638 -0.0964597 0)
(1.01562 -0.0892513 0)
(1.01716 -0.0745833 0)
(1.01661 -0.0691957 0)
(1.01773 -0.0549947 0)
(1.01693 -0.0514613 0)
(1.01728 -0.0373074 0)
(1.01673 -0.0353962 0)
(1.01666 -0.0205067 0)
(1.12092 0.0731949 0)
(1.1267 0.0724415 0)
(1.13118 0.0707784 0)
(1.13428 0.0693018 0)
(1.13619 0.0666673 0)
(1.13754 0.0643419 0)
(1.13836 0.0602918 0)
(1.13894 0.0565354 0)
(1.13885 0.0502845 0)
(1.13828 0.0442886 0)
(1.13649 0.0349928 0)
(1.13393 0.0259486 0)
(1.12977 0.0129449 0)
(1.12504 0.000509562 0)
(1.11845 -0.0162984 0)
(1.11138 -0.0319014 0)
(1.10235 -0.051451 0)
(1.09349 -0.0685356 0)
(1.08301 -0.088693 0)
(1.07359 -0.104302 0)
(1.06308 -0.121289 0)
(1.05474 -0.131003 0)
(1.04564 -0.141032 0)
(1.03986 -0.141751 0)
(1.03318 -0.143458 0)
(1.03027 -0.135593 0)
(1.02618 -0.131068 0)
(1.0255 -0.118052 0)
(1.02317 -0.110959 0)
(1.02385 -0.0964504 0)
(1.02235 -0.0892348 0)
(1.02327 -0.0747461 0)
(1.02205 -0.0690887 0)
(1.02265 -0.0549178 0)
(1.02132 -0.0509873 0)
(1.02137 -0.0367891 0)
(1.02026 -0.0345163 0)
(1.01986 -0.019697 0)
(1.11854 0.0641587 0)
(1.12355 0.0640263 0)
(1.12751 0.0630837 0)
(1.13038 0.0624682 0)
(1.13222 0.0607609 0)
(1.13363 0.0595081 0)
(1.13454 0.0565903 0)
(1.13533 0.0541215 0)
(1.13551 0.0492073 0)
(1.13541 0.0446702 0)
(1.13423 0.0368548 0)
(1.13258 0.0293891 0)
(1.12929 0.0179258 0)
(1.12542 0.00691987 0)
(1.1196 -0.00857333 0)
(1.11377 -0.023045 0)
(1.10592 -0.0416996 0)
(1.09846 -0.0583058 0)
(1.0891 -0.0782967 0)
(1.08088 -0.0942814 0)
(1.07118 -0.111948 0)
(1.0637 -0.122815 0)
(1.05499 -0.134089 0)
(1.04965 -0.136289 0)
(1.04295 -0.139279 0)
(1.04007 -0.132711 0)
(1.03561 -0.129054 0)
(1.03459 -0.11687 0)
(1.03162 -0.110126 0)
(1.03176 -0.096072 0)
(1.02957 -0.0889262 0)
(1.02983 -0.0747132 0)
(1.02804 -0.0690274 0)
(1.02801 -0.0551048 0)
(1.02638 -0.0511789 0)
(1.02569 -0.0374411 0)
(1.02481 -0.035319 0)
(1.02372 -0.0209159 0)
(1.11773 0.0584145 0)
(1.12208 0.0589141 0)
(1.12557 0.058681 0)
(1.12822 0.058943 0)
(1.12998 0.0581611 0)
(1.13142 0.0580127 0)
(1.13237 0.0562426 0)
(1.1333 0.0551173 0)
(1.1336 0.0515674 0)
(1.1338 0.0485641 0)
(1.13291 0.0422547 0)
(1.13179 0.0363378 0)
(1.12911 0.0262712 0)
(1.12641 0.0166108 0)