/*--------------------------------*- C++ -*----------------------------------*\
| =========                 |                                                 |
| \\      /  F ield         | OpenFOAM: The Open Source CFD Toolbox           |
|  \\    /   O peration     | Version:  2312                                  |
|   \\  /    A nd           | Website:  www.openfoam.com                      |
|    \\/     M anipulation  |                                                 |
\*---------------------------------------------------------------------------*/
FoamFile
{
    version     2.0;
    format      ascii;
    arch        "LSB;label=32;scalar=64";
    class       surfaceScalarField;
    location    "1.95";
    object      phi;
}
// * * * * * * * * * * * * * * * * * * * * * * * * * * * * * * * * * * * * * //

dimensions      [0 3 -1 0 0 0 0];

oriented        oriented;

internalField   nonuniform List<scalar> 
10785
(
0.00333055
0.0142458
-0.0175763
0.0149178
0.00146829
-0.0130555
0.0346507
-0.0432264
0.0234935
0.0555172
-0.0902046
0.0693382
0.0730625
-0.123625
0.106079
0.0865087
-0.14238
0.128934
0.0969724
-0.150963
0.1405
0.106029
-0.154126
0.14507
0.114942
-0.155187
0.146274
0.124378
-0.155888
0.146451
0.134585
-0.156968
0.146761
0.145559
-0.158529
0.147555
0.157745
-0.161046
0.148861
0.170265
-0.163997
0.151477
-0.167018
0.153221
0.184061
0.00383655
0.0104092
0.0188918
-0.013587
0.0406957
-0.0650303
0.0605988
-0.110108
0.0753731
-0.138399
0.0857081
-0.152715
0.0935206
-0.158776
0.100532
-0.161138
0.10779
-0.162445
0.11574
-0.163837
0.124457
-0.165685
0.134139
-0.168211
0.144361
-0.171269
0.155215
-0.174851
-0.179435
0.167633
0.00488224
0.00552696
0.0228625
-0.0315672
0.0445146
-0.0866824
0.0617512
-0.127344
0.0732433
-0.149891
0.0807837
-0.160256
0.0865485
-0.164541
0.0920374
-0.166627
0.0979577
-0.168366
0.104558
-0.170437
0.111925
-0.173053
0.119972
-0.176258
0.128719
-0.180015
0.13837
-0.184503
-0.189256
0.148192
0.00650818
-0.00098122
0.026077
-0.0511361
0.0456692
-0.106275
0.0594651
-0.14114
0.0678502
-0.158276
0.0731483
-0.165554
0.0773696
-0.168762
0.081628
-0.170885
0.0863722
-0.17311
0.0917244
-0.175789
0.0976744
-0.179003
0.10419
-0.182774
0.111343
-0.187168
0.118934
-0.192094
-0.197725
0.127403
0.00833261
-0.00931383
0.0275872
-0.0703906
0.04415
-0.122837
0.0544433
-0.151434
0.0601146
-0.163947
0.0635826
-0.169022
0.0664878
-0.171667
0.0695845
-0.173982
0.0731216
-0.176647
0.0771472
-0.179815
0.0816804
-0.183536
0.0867269
-0.18782
0.0921614
-0.192602
0.0981727
-0.198106
-0.204
0.104447
0.0099099
-0.0192237
0.0273216
-0.0878023
0.0403506
-0.135866
0.0474279
-0.158511
0.0508544
-0.167374
0.0528329
-0.171
0.054583
-0.173417
0.0565556
-0.175954
0.0588688
-0.17896
0.0615627
-0.182509
0.0646357
-0.186609
0.0680754
-0.19126
0.0719827
-0.196509
0.0761757
-0.202299
-0.208661
0.0808364
0.0107354
-0.0299591
0.0255024
-0.102569
0.0349674
-0.145332
0.0392349
-0.162778
0.0407876
-0.168927
0.0414298
-0.171643
0.0419879
-0.173975
0.0427226
-0.176689
0.0437117
-0.179949
0.0449687
-0.183766
0.0465191
-0.188159
0.0483867
-0.193127
0.0505584
-0.198681
0.0530358
-0.204776
-0.211288
0.0556631
0.0106544
-0.0406135
0.022406
-0.114321
0.0285634
-0.151489
0.0304024
-0.164617
0.0302964
-0.168821
0.0296651
-0.171011
0.0290164
-0.173326
0.0284842
-0.176157
0.0281011
-0.179566
0.0278853
-0.18355
0.0278475
-0.188121
0.0280123
-0.193292
0.0283942
-0.199063
0.0290381
-0.20542
0.0301629
-0.212413
-0.00848511
0.00444981
0.0040353
-0.0188743
0.00539833
0.00499083
-0.025073
0.0031623
0.00303646
-0.0242636
-0.00051398
-0.000295418
-0.0158472
-0.0045298
-0.00388659
-0.000467048
-0.00820347
-0.00717672
0.02016
-0.0109688
-0.00965823
0.0442958
-0.0128216
-0.0113142
0.0703738
-0.0138194
-0.0122586
0.097128
-0.0142429
-0.0125113
0.123999
-0.0142271
-0.0126436
0.150335
-0.0139677
-0.012369
0.176456
-0.0139683
-0.0121525
0.201859
-0.0132703
-0.0121325
-0.0137934
0.227517
-0.0118649
-0.00787615
0.012326
-0.0175414
0.0150636
-0.0230571
0.00867804
-0.0215732
-0.00199787
-0.012507
-0.0135961
0.00335745
-0.0240679
0.0242341
-0.0318455
0.0482987
-0.0368862
0.0740471
-0.0395678
0.100251
-0.0404469
0.126542
-0.0405183
0.152264
-0.0396895
0.177796
-0.0395
0.202786
-0.0382607
-0.039055
0.228048
-0.00617206
0.018498
-0.0137991
0.0226906
-0.0174249
0.0123039
-0.0141866
-0.00523621
-0.0033572
-0.0244255
0.0134304
-0.0408555
0.0345543
-0.0529693
0.0580734
-0.0604053
0.0826328
-0.0641272
0.107204
-0.0650183
0.131769
-0.065083
0.155709
-0.0636296
0.179641
-0.0634324
0.203294
-0.0619132
-0.0630274
0.227266
-0.00379797
0.022296
-0.00845559
0.0273482
-0.00917654
0.0130248
-0.00317916
-0.0112336
0.00954622
-0.0371508
0.0275895
-0.0588988
0.0486256
-0.0740055
0.0708799
-0.0826595
0.0933555
-0.0866027
0.115491
-0.0871541
0.137466
-0.0870573
0.158993
-0.0851574
0.180696
-0.085135
0.202525
-0.0837418
-0.0852562
0.224753
-0.00131475
0.0236107
-0.00265984
0.0286933
0.000121805
0.0102432
0.00955068
-0.0206625
0.0247844
-0.0523846
0.0435232
-0.0776375
0.0636229
-0.0941053
0.0837323
-0.102769
0.103338
-0.106208
0.122557
-0.106373
0.141438
-0.105938
0.160526
-0.104246
0.17974
-0.104349
0.199628
-0.10363
-0.105359
0.219731
0.000825404
0.0227853
0.00289746
0.0266213
0.00985809
0.00328254
0.0229161
-0.0337205
0.0401636
-0.069632
0.0587709
-0.0962449
0.0769755
-0.11231
0.094208
-0.120001
0.110553
-0.122554
0.126673
-0.122493
0.142526
-0.121791
0.159306
-0.121025
0.176005
-0.121048
0.194024
-0.121649
-0.123319
0.211985
0.00223896
0.0205464
0.00752926
0.021331
0.0187819
-0.00797006
0.0353515
-0.0502901
0.0536953
-0.0879758
0.0711245
-0.113674
0.0867034
-0.127889
0.100754
-0.134052
0.11396
-0.13576
0.127148
-0.135681
0.14059
-0.135234
0.154985
-0.13542
0.169613
-0.135676
0.185592
-0.137628
-0.139396
0.201669
0.00297005
0.0112455
0.0267689
0.0458169
0.0639205
0.0791806
0.0917915
0.102809
0.113324
0.124094
0.135621
0.147756
0.160941
0.174791
0.188615
0.245172
0.00675571
-0.0244107
0.256523
0.0122569
-0.0236077
0.264278
0.0152846
-0.0230395
0.270017
0.0178008
-0.0235399
0.274301
0.0199389
-0.0242227
0.277455
0.0219158
-0.0250697
0.279813
0.023808
-0.0261667
0.281594
0.0256253
-0.0274056
0.282926
0.0274454
-0.0287777
0.283904
0.0293289
-0.0303069
0.2846
0.031304
-0.0320002
0.28507
0.033399
-0.0338685
0.285353
0.0356463
-0.03593
0.285482
0.0380789
-0.038208
0.285481
0.0407307
-0.0407291
0.285367
0.0436388
-0.0435248
0.285155
0.0468445
-0.0466327
0.284856
0.0503967
-0.0500979
0.284479
0.0543506
-0.0539736
0.284031
0.0587695
-0.0583208
0.283515
0.0637295
-0.0632134
0.282935
0.069314
-0.0687347
0.282296
0.0756214
-0.0749818
0.281598
0.08277
-0.0820721
0.280843
0.0908802
-0.0901253
0.280031
0.10013
-0.0993182
0.279157
0.110672
-0.109798
0.278249
0.121888
-0.120979
0.277158
0.141661
-0.14057
0.276357
0.121599
-0.120798
0.275162
0.265908
-0.264713
0.273165
0.0654088
-0.0634111
0.271927
-0.0645074
0.0657448
0.270631
-0.0918176
0.0931134
0.269289
-0.0850778
0.0864206
0.267875
-0.0697443
0.0711578
0.266371
-0.0532922
0.0547963
-0.0225209
0.024148
0.24461
-0.00980616
0.255663
0.00120323
0.263297
0.00765136
0.269027
0.0120708
0.273368
0.0155972
0.276597
0.0186872
0.279036
0.0213692
0.280887
0.0237738
0.282279
0.0260533
0.283312
0.0282959
0.284062
0.0305543
0.284584
0.0328767
0.284921
0.0353095
0.285104
0.0378956
0.285159
0.0406765
0.285103
0.0436947
0.284951
0.0469961
0.284715
0.0506331
0.284402
0.0546629
0.284021
0.0591504
0.283576
0.0641748
0.28307
0.0698199
0.282505
0.0761863
0.281883
0.0833926
0.281203
0.0915599
0.280464
0.100869
0.27966
0.111476
0.278812
0.122736
0.277759
0.142714
0.276995
0.122362
0.275602
0.267302
0.273086
0.0679246
0.271527
-0.0629481
0.270295
-0.0905863
0.269104
-0.0838865
0.267856
-0.0684959
0.266517
-0.0519536
-0.02105
0.241471
-0.0240111
0.251777
-0.00910322
0.259144
0.000285016
0.264868
0.0063469
0.269243
0.0112225
0.272559
0.0153709
0.275108
0.0188199
0.277074
0.0218083
0.278577
0.0245502
0.279716
0.0271571
0.280569
0.0297011
0.281196
0.0322498
0.28164
0.0348651
0.281934
0.0376012
0.282104
0.0405069
0.282168
0.0436301
0.282143
0.0470215
0.28204
0.0507365
0.281867
0.0548355
0.281631
0.0593864
0.281337
0.0644687
0.28099
0.0701672
0.280592
0.0765846
0.280143
0.0838416
0.279641
0.0920614
0.279085
0.101425
0.278462
0.112099
0.277813
0.123384
0.276883
0.143645
0.276391
0.122854
0.274914
0.268779
0.272065
0.070774
0.270309
-0.0611922
0.269292
-0.0895698
0.268414
-0.0830084
0.267496
-0.0675773
0.26649
-0.0509475
-0.0199087
0.235818
-0.0350762
0.24486
-0.0181445
0.25217
-0.00702547
0.257718
0.000798931
0.262059
0.00688161
0.265454
0.0119755
0.268159
0.0161154
0.27031
0.0196575
0.272003
0.0228571
0.273322
0.0258376
0.274344
0.0286791
0.275133
0.0314616
0.275738
0.03426
0.276197
0.0371424
0.276536
0.0401672
0.276778
0.0433887
0.276937
0.0468618
0.277028
0.0506459
0.277059
0.0548045
0.277038
0.0594076
0.276971
0.0645358
0.27686
0.0702774
0.276709
0.0767362
0.276519
0.0840309
0.27629
0.0922908
0.276016
0.1017
0.275675
0.11244
0.275341
0.123718
0.274633
0.144353
0.274581
0.122906
0.273154
0.270206
0.270028
0.0739004
0.268293
-0.0594576
0.267639
-0.0889154
0.267229
-0.0825989
0.266801
-0.0671486
0.266292
-0.0504385
-0.0192683
0.227752
-0.0430973
0.235324
-0.0257165
0.241863
-0.0135641
0.247474
-0.00481238
0.252034
0.00232103
0.255733
0.0082767
0.258629
0.0132192
0.26092
0.0173664
0.262754
0.0210239
0.264241
0.0243507
0.265457
0.027463
0.266454
0.0304647
0.267273
0.0334407
0.26795
0.0364651
0.268515
0.0396027
0.26899
0.0429136
0.269394
0.046458
0.26974
0.0502994
0.27004
0.0545046
0.270302
0.0591459
0.270532
0.0643055
0.270736
0.0700739
0.270916
0.0765554
0.271074
0.0838735
0.271205
0.0921595
0.271311
0.101594
0.271353
0.112398
0.271444
0.123627
0.27106
0.144737
0.271598
0.122368
0.270373
0.271431
0.267056
0.0772179
0.265505
-0.0579069
0.265355
-0.0887657
0.265564
-0.0828075
0.26578
-0.0673645
0.265927
-0.050586
-0.0192957
0.217009
-0.0481218
0.22347
-0.0321773
0.229467
-0.0195606
0.234506
-0.00985202
0.238779
-0.00195161
0.242586
0.00446954
0.245794
0.0100111
0.24847
0.0146909
0.250694
0.0187994
0.252526
0.0225186
0.254041
0.0259483
0.255315
0.0291901
0.256409
0.0323469
0.257365
0.0355092
0.258215
0.0387526
0.258985
0.0421441
0.259693
0.0457495
0.260356
0.0496364
0.260986
0.0538749
0.261592
0.0585396
0.262183
0.063715
0.262764
0.0694924
0.263341
0.0759785
0.263914
0.0833011
0.264477
0.0915967
0.265038
0.101032
0.265555
0.111881
0.266176
0.123006
0.266219
0.144694
0.267488
0.121099
0.266615
0.272304
0.26322
0.0806129
0.261975
-0.0566625
0.262466
-0.0892569
0.263437
-0.0837777
0.264445
-0.0683729
0.265403
-0.0515434
-0.0201517
0.203348
-0.0498005
0.208276
-0.0371052
0.213423
-0.0247082
0.218591
-0.0150199
0.223575
-0.00693573
0.227788
0.000256581
0.231275
0.00652397
0.234129
0.0118374
0.236508
0.0164205
0.238538
0.0204887
0.240294
0.0241923
0.241836
0.0276478
0.243214
0.0309689
0.244467
0.0342556
0.245629
0.0375912
0.246724
0.0410483
0.247776
0.0446976
0.248801
0.0486113
0.249813
0.052863
0.250823
0.0575304
0.251838
0.0626995
0.252867
0.0684631
0.253913
0.0749326
0.254982
0.0822318
0.256079
0.0904999
0.257207
0.0999044
0.258301
0.110788
0.259553
0.121753
0.260118
0.14413
0.262262
0.118954
0.261934
0.272632
0.258537
0.0840103
0.257739
-0.0558641
0.259004
-0.0905228
0.260874
-0.0856472
0.262814
-0.0703131
0.264726
-0.0534555
-0.0219892
0.187643
-0.0488278
0.190443
-0.0399057
0.194234
-0.0284989
0.198769
-0.0195552
0.203857
-0.0120231
0.208577
-0.00446369
0.21273
0.00237102
0.216268
0.00829944
0.219251
0.0134369
0.221791
0.0179489
0.223996
0.0219875
0.225957
0.0256871
0.22774
0.0291852
0.229397
0.0325989
0.230965
0.0360234
0.232475
0.0395383
0.233952
0.0432201
0.235417
0.0471462
0.236886
0.0513942
0.238372
0.0560444
0.239886
0.0611852
0.241441
0.0669089
0.243043
0.0733306
0.244697
0.0805772
0.246392
0.0888051
0.24813
0.098166
0.249846
0.109072
0.251796
0.119802
0.252959
0.142968
0.256053
0.11586
0.256401
0.272284
0.253212
0.0871992
0.252903
-0.0555551
0.255049
-0.0926684
0.25793
-0.0885287
0.26092
-0.0733024
0.263911
-0.0564474
-0.0249487
0.393214
-0.0361712
-0.405871
0.38488
-0.031572
0.380282
-0.0238999
0.377105
-0.0163789
0.375347
-0.0102653
0.37504
-0.00415665
0.375467
0.0019448
0.376236
0.00753017
0.37723
0.0124427
0.37835
0.0168286
0.379484
0.0208538
0.380553
0.024618
0.381528
0.0282105
0.382403
0.0317239
0.383182
0.0352441
0.383878
0.0388425
0.384504
0.0425947
0.38507
0.0465797
0.385588
0.050876
0.386067
0.0555653
0.386516
0.0607364
0.386941
0.0664844
0.387342
0.072929
0.387719
0.0802003
0.38808
0.0884441
0.388442
0.0978048
0.388787
0.108727
0.389074
0.119515
0.389629
0.142412
0.38905
0.116439
0.389054
0.272281
0.390593
0.0856597
0.39087
-0.0558319
0.390839
-0.0926369
0.390797
-0.0884876
0.390826
-0.0733305
0.39088
-0.0565016
-0.02497
0.435215
-0.0247603
-0.446626
0.426137
-0.0224943
0.420221
-0.0179839
0.416647
-0.0128053
0.414352
-0.00796932
0.413061
-0.00286615
0.412818
0.00218739
0.413241
0.00710757
0.413984
0.0116994
0.414847
0.0159654
0.415752
0.0199495
0.416653
0.0237164
0.417522
0.0273419
0.418341
0.0309051
0.419105
0.0344802
0.419812
0.0381356
0.420463
0.0419429
0.421066
0.0459773
0.421626
0.0503157
0.422152
0.0550397
0.42265
0.0602383
0.423123
0.0660107
0.423578
0.0724745
0.424019
0.0797594
0.42445
0.0880129
0.424875
0.0973799
0.425291
0.108311
0.425635
0.119172
0.426192
0.141855
0.4259
0.116731
0.425947
0.272233
0.427303
0.0843032
0.427674
-0.0562026
0.427686
-0.0926491
0.427681
-0.0884827
0.427718
-0.0733675
0.427773
-0.0565565
-0.0249922
0.479026
-0.0143623
-0.489424
0.470532
-0.0139994
0.464337
-0.0117891
0.459992
-0.00846008
0.456955
-0.00493322
0.455172
-0.00108232
0.454242
0.00311697
0.453984
0.00736548
0.454199
0.0114841
0.454719
0.0154459
0.455407
0.0192611
0.456171
0.0229528
0.456953
0.0265599
0.457724
0.0301345
0.458467
0.0337364
0.459176
0.0374274
0.459846
0.0412728
0.46048
0.0453432
0.461082
0.0497136
0.461657
0.0544645
0.46221
0.0596853
0.462745
0.0654762
0.463267
0.0719525
0.463781
0.0792453
0.464287
0.0875064
0.464786
0.0968808
0.465281
0.107816
0.465707
0.118745
0.466275
0.141287
0.46625
0.116756
0.466409
0.272075
0.467557
0.083155
0.468015
-0.0566606
0.468086
-0.0927197
0.46812
-0.0885169
0.468168
-0.0734157
0.468223
-0.0566115
-0.0250156
0.52399
-0.00594649
-0.532406
0.516712
-0.00672146
0.510907
-0.00598376
0.506487
-0.00404036
0.503167
-0.00161377
0.50085
0.00123523
0.499436
0.00453066
0.498723
0.00807841
0.498514
0.011693
0.498661
0.0152992
0.499051
0.0188713
0.499597
0.0224068
0.500233
0.0259232
0.500915
0.029453
0.501611
0.0330399
0.502305
0.0367343
0.502984
0.0405933
0.503646
0.0446813
0.50429
0.0490696
0.504918
0.0538366
0.505532
0.0590707
0.506137
0.0648715
0.506736
0.0713538
0.507332
0.0786495
0.507925
0.0869132
0.508514
0.0962919
0.509101
0.107228
0.509632
0.118214
0.510239
0.14068
0.510476
0.116519
0.510764
0.271787
0.511736
0.0821828
0.512259
-0.0571837
0.512399
-0.0928598
0.512472
-0.0885901
0.512533
-0.073476
0.512587
-0.0566659
-0.0250392
0.571759
0.00021121
-0.577917
0.565825
-0.000788137
0.560646
-0.000804642
0.556418
0.000188344
0.553039
0.00176456
0.550462
0.00381226
0.548659
0.00633371
0.547527
0.00921049
0.546932
0.0122885
0.546749
0.0154822
0.546871
0.0187495
0.547208
0.0220693
0.547692
0.0254397
0.548269
0.0288757
0.548903
0.0324058
0.549568
0.0360689
0.550248
0.0399134
0.550933
0.0439967
0.551618
0.0483849
0.552301
0.0531535
0.552983
0.0583884
0.553666
0.0641886
0.554352
0.0706681
0.555042
0.077959
0.555738
0.0862177
0.556435
0.0955949
0.557134
0.106529
0.557792
0.117557
0.558473
0.139999
0.558966
0.116026
0.559401
0.271352
0.560231
0.0813529
0.560803
-0.0577556
0.561021
-0.0930787
0.561136
-0.0887042
0.561208
-0.0735482
0.56126
-0.0567179
-0.0250614
0.622745
0.00477261
-0.627307
0.618099
0.00385801
0.613783
0.00351198
0.610009
0.0039616
0.606791
0.00498245
0.604171
0.00643237
0.602177
0.00832781
0.600774
0.010614
0.599881
0.0131814
0.59941
0.0159531
0.599276
0.0188835
0.599402
0.0219435
0.599721
0.0251199
0.600182
0.0284156
0.600741
0.0318468
0.601367
0.0354421
0.60204
0.0392409
0.602743
0.0432933
0.603468
0.0476598
0.60421
0.0524116
0.604967
0.0576319
0.605738
0.0634177
0.606523
0.0698823
0.607325
0.0771576
0.608141
0.0854014
0.608968
0.0947684
0.609802
0.105695
0.610613
0.116746
0.611409
0.139202
0.612155
0.115281
0.612755
0.270752
0.613482
0.0806255
0.614093
-0.0583668
0.614396
-0.0933812
0.614552
-0.0888602
0.614634
-0.0736299
0.61468
-0.0567639
-0.0250798
0.677871
0.00804018
-0.681138
0.67435
0.00737867
0.670856
0.00700619
0.667621
0.00719673
0.664737
0.00786605
0.662264
0.00890572
0.660255
0.0103365
0.658725
0.0121444
0.657643
0.0142629
0.656961
0.0166357
0.656619
0.0192249
0.65656
0.0220029
0.656727
0.0249531
0.657071
0.0280714
0.657551
0.0313665
0.658135
0.0348586
0.658796
0.0385796
0.659516
0.0425727
0.660284
0.0468926
0.661089
0.0516058
0.661929
0.0567923
0.6628
0.0625466
0.663702
0.0689806
0.664633
0.0762261
0.665593
0.084442
0.666575
0.0937863
0.667573
0.104697
0.668568
0.115751
0.669522
0.138248
0.67053
0.114273
0.671314
0.269968
0.671983
0.0799562
0.67263
-0.0590142
0.673017
-0.0937673
0.673214
-0.0890574
0.6733
-0.0737163
0.673334
-0.0567975
-0.0250908
0.737761
0.0103472
-0.740068
0.735166
0.00997433
0.732455
0.00971657
0.729818
0.00983401
0.72736
0.0103237
0.725155
0.011111
0.72327
0.0122215
0.721746
0.0136682
0.72059
0.0154188
0.719786
0.0174403
0.719302
0.0197086
0.719101
0.0222038
0.719142
0.0249119
0.719386
0.0278281
0.719795
0.0309573
0.720338
0.0343149
0.720991
0.0379272
0.721732
0.0418317
0.722547
0.0460778
0.723425
0.0507277
0.72436
0.0558577
0.725347
0.0615596
0.726384
0.0679436
0.727469
0.075141
0.728599
0.0833117
0.729768
0.0926169
0.730967
0.103498
0.732184
0.114534
0.733343
0.137088
0.734633
0.112984
0.735626
0.268974
0.736285
0.0792973
0.736972
-0.059701
0.737438
-0.094233
0.737671
-0.0892905
0.737753
-0.0737979
0.737763
-0.0568084
-0.0250888
0.803087
0.0119453
-0.804685
0.801234
0.0118279
0.799218
0.0117317
0.797167
0.0118852
0.795176
0.0123147
0.793318
0.0129691
0.791661
0.0138783
0.790258
0.0150716
0.789136
0.0165403
0.788305
0.0182718
0.787757
0.0202568
0.787474
0.022486
0.787434
0.0249526
0.787607
0.0276549
0.787966
0.0305982
0.788485
0.0337962
0.78914
0.0372721
0.789912
0.0410597
0.790785
0.0452042
0.791749
0.0497639
0.792795
0.0548116
0.793918
0.0604364
0.795115
0.0667467
0.796383
0.0738731
0.797718
0.0819764
0.799115
0.0912208
0.800559
0.102054
0.802044
0.113049
0.803465
0.135667
0.805072
0.111376
0.80631
0.267737
0.807009
0.0785982
0.807745
-0.0604371
0.808282
-0.0947692
0.808538
-0.0895472
0.808599
-0.0738585
0.80857
-0.0567799
-0.0250653
0.874502
0.0130016
-0.875558
0.873235
0.0130942
0.871806
0.013161
0.870295
0.0133965
0.868774
0.013836
0.867303
0.0144393
0.865945
0.0152371
0.86475
0.0162658
0.863758
0.0175322
0.862993
0.0190378
0.862463
0.020786
0.862171
0.0227788
0.862106
0.0250176
0.862254
0.0275065
0.862598
0.0302541
0.863119
0.0332751
0.863799
0.0365921
0.864622
0.040237
0.865574
0.0442525
0.866644
0.0486939
0.867824
0.053631
0.86911
0.0591504
0.870498
0.0653586
0.871986
0.0723857
0.873569
0.0803933
0.875241
0.0895487
0.876986
0.100309
0.878801
0.111234
0.88055
0.133918
0.882532
0.109394
0.884065
0.266204
0.884859
0.0778038
0.885659
-0.0612367
0.88625
-0.0953603
0.886506
-0.0898037
0.886518
-0.0738709
0.886424
-0.0566858
-0.0250075
0.95265
0.0136369
-0.953285
0.951851
0.013893
0.950911
0.0141012
0.949879
0.0144287
0.948804
0.0149111
0.947732
0.0155116
0.946711
0.0162578
0.945789
0.0171881
0.945004
0.0183169
0.944387
0.0196549
0.943959
0.0212144
0.943731
0.0230061
0.943709
0.0250395
0.943891
0.0273251
0.944269
0.0298763
0.944833
0.0327107
0.945573
0.0358522
0.946477
0.0393325
0.947536
0.0431933
0.948742
0.047488
0.950089
0.0522841
0.951573
0.0576662
0.953193
0.0637391
0.954946
0.0706323
0.956831
0.0785086
0.958841
0.0875386
0.960959
0.0981908
0.963182
0.109012
0.965345
0.131755
0.967786
0.106953
0.969687
0.264304
0.970639
0.0768513
0.971518
-0.0621155
0.972137
-0.0959797
0.972351
-0.0900178
0.972271
-0.0737902
0.972071
-0.0564859
-0.0248963
1.0382
0.0139367
-1.0385
1.03778
0.0143114
1.03725
0.0146304
1.03664
0.0150402
1.03597
0.0155739
1.03529
0.0161938
1.03463
0.0169228
1.03402
0.017798
1.0335
0.0188366
1.0331
0.0200536
1.03285
0.0214666
1.03276
0.0230921
1.03285
0.0249459
1.03313
0.0270442
1.03361
0.0294051
1.03427
0.0320499
1.03511
0.0350048
1.03614
0.0383027
1.03735
0.0419853
1.03873
0.0461051
1.04029
0.0507283
1.04202
0.0559376
1.04392
0.0618365
1.046
0.0685541
1.04825
0.0762543
1.05068
0.0851115
1.05326
0.0956085
1.056
0.106277
1.05869
0.129061
1.06171
0.103931
1.06409
0.261925
1.06528
0.0756629
1.06625
-0.0630854
1.06685
-0.09658
1.06695
-0.0901184
1.06671
-0.0735447
1.06634
-0.0561184
-0.024703
1.13186
0.0139502
-1.13187
1.13176
0.0144134
1.13158
0.0148114
1.13133
0.0152841
1.13104
0.0158619
1.13073
0.0165044
1.13043
0.0172299
1.13015
0.0180728
1.12994
0.0190503
1.12981
0.0201785
1.1298
0.021477
1.12993
0.0229657
1.13021
0.0246641
1.13066
0.0265923
1.1313
0.0287722
1.13212
0.0312285
1.13313
0.03399
1.13434
0.0370912
1.13575
0.0405742
1.13737
0.0444915
1.13919
0.0489081
1.14122
0.0539054
1.14347
0.0595857
1.14595
0.0660769
1.14866
0.0735445
1.1516
0.0821666
1.15477
0.0924428
1.15815
0.102891
1.16154
0.125678
1.16532
0.100147
1.16835
0.258894
1.16988
0.0741343
1.17094
-0.0641437
1.17143
-0.0970725
1.1713
-0.0899861
1.17078
-0.0730204
1.17015
-0.0554897
-0.0243852
1.23429
0.0137296
-1.23407
1.2345
0.0142042
1.23465
0.0146604
1.23475
0.0151806
1.23482
0.0157917
1.23487
0.0164528
1.23493
0.0171784
1.235
0.0179991
1.23512
0.0189312
1.23531
0.0199898
1.23559
0.0211949
1.23599
0.0225672
1.23652
0.0241281
1.23722
0.0258999
1.23808
0.027907
1.23913
0.0301763
1.24039
0.0327387
1.24185
0.0356298
1.24353
0.0388926
1.24544
0.0425791
1.2476
0.0467533
1.25001
0.051495
1.25269
0.0569043
1.25566
0.0631079
1.25893
0.070271
1.26252
0.0785752
1.26643
0.0885373
1.27065
0.098665
1.27496
0.121375
1.27976
0.0953374
1.28377
0.254891
1.28577
0.0721357
1.28687
-0.0652442
1.28709
-0.0972936
1.28652
-0.0894214
1.28554
-0.0720375
1.28451
-0.0544594
-0.0238811
1.34624
0.0132286
-1.34574
1.34667
0.0137808
1.34708
0.0142439
1.34749
0.0147718
1.34789
0.0153899
1.3483
0.0160449
1.34873
0.016749
1.3492
0.0175339
1.34971
0.0184147
1.3503
0.0194052
1.35097
0.0205239
1.35174
0.021791
1.35265
0.0232276
1.35369
0.024856
1.35489
0.026701
1.35628
0.0287898
1.35787
0.0311535
1.35967
0.0338279
1.36171
0.0368552
1.364
0.0402864
1.36657
0.0441837
1.36944
0.048624
1.37264
0.0537043
1.3762
0.0595477
1.38015
0.0663168
1.38454
0.0741936
1.38936
0.0837075
1.39467
0.0933566
1.4002
0.115851
1.40645
0.0890816
1.41165
0.2497
1.41484
0.0689392
1.41566
-0.0660661
1.41526
-0.0968932
1.4139
-0.0880632
1.41218
-0.070308
1.41053
-0.0528182
-0.0231015
1.47031
0.0127976
-1.46988
1.47082
0.0132794
1.47134
0.0137239
1.47189
0.0142185
1.47249
0.0147897
1.47313
0.0154003
1.47382
0.0160615
1.47456
0.016797
1.47536
0.0176176
1.47623
0.0185344
1.47719
0.0195634
1.47826
0.0207226
1.47945
0.0220312
1.4808
0.0235105
1.48231
0.0251842
1.48402
0.0270791
1.48595
0.0292254
1.48812
0.0316581
1.49056
0.0344181
1.49329
0.0375541
1.49635
0.041125
1.49977
0.0452034
1.5036
0.0498803
1.50787
0.0552718
1.51266
0.0615324
1.51801
0.0688392
1.524
0.0777174
1.53068
0.0866756
1.53801
0.108523
1.54594
0.0811517
1.55484
0.240798
1.55779
0.0659885
1.55884
-0.0671165
1.55745
-0.0955012
1.55483
-0.0854453
1.55195
-0.0674233
1.5494
-0.0502712
-0.021924
1.60131
0.0115578
-1.60007
1.60243
0.0121626
1.60354
0.0126183
1.60469
0.0130675
1.60588
0.0135988
1.60711
0.0141678
1.60841
0.0147669
1.60977
0.0154296
1.61122
0.0161754
1.61274
0.0170134
1.61434
0.0179552
1.61605
0.0190148
1.61788
0.0202082
1.61983
0.0215533
1.62195
0.0230704
1.62424
0.0247831
1.62675
0.0267186
1.6295
0.0289085
1.63253
0.0313898
1.63587
0.0342064
1.63959
0.0374115
1.64372
0.0410697
1.64834
0.045261
1.65352
0.0500877
1.65937
0.0556826
1.66601
0.0622075
1.6736
0.0701194
1.68224
0.0780392
1.69235
0.098415
1.7033
0.0701953
1.71697
0.227129
1.72428
0.0586875
1.72181
-0.0646555
1.71668
-0.0903691
1.71118
-0.079941
1.70626
-0.0625039
1.70234
-0.0463519
-0.0201783
1.75216
0.0117804
-1.75238
1.75202
0.0122979
1.75247
0.0121659
1.75354
0.0120016
1.75495
0.0121907
1.75653
0.0125894
1.75819
0.0131019
1.7599
0.0137208
1.76165
0.0144274
1.76345
0.0152094
1.76533
0.0160727
1.76732
0.0170301
1.76943
0.0180958
1.7717
0.0192858
1.77415
0.0206188
1.77682
0.0221161
1.77973
0.0238024
1.78294
0.0257061
1.78647
0.0278601
1.79037
0.0303027
1.7947
0.0330793
1.79953
0.0362439
1.80493
0.0398621
1.811
0.0440167
1.81787
0.0488083
1.8257
0.0543797
1.83476
0.0610563
1.84509
0.0677134
1.8579
0.0856019
1.87065
0.0574439
1.89214
0.205639
1.89983
0.0509977
1.89829
-0.0631171
1.8915
-0.0835733
1.88334
-0.0717857
1.87607
-0.0552259
1.87044
-0.0407217
-0.0177163
1.90841
0.012266
-1.9089
1.90824
0.0124746
1.90911
0.0112891
1.91099
0.0101307
1.91339
0.00978631
1.91601
0.00996452
1.91871
0.0104059
1.92141
0.0110226
1.9241
0.011739
1.9268
0.0125117
1.92953
0.0133387
1.93233
0.0142311
1.93522
0.0152013
1.93825
0.0162635
1.94143
0.0174336
1.94482
0.0187302
1.94844
0.020174
1.95236
0.0217887
1.95662
0.0236012
1.96128
0.0256421
1.96641
0.0279464
1.9721
0.0305538
1.97846
0.0335093
1.98561
0.0368644
1.99374
0.040673
2.00313
0.0449951
2.01421
0.0499725
2.02716
0.0547712
2.04692
0.0658339
2.05563
0.048739
2.12812
0.133144
2.14421
0.0349094
2.12135
-0.0402585
2.09503
-0.0572482
2.07572
-0.0524773
2.06304
-0.0425467
2.05476
-0.0324418
-0.0143104
2.11758
0.00909251
-2.11441
2.12074
0.00931683
2.12343
0.00860276
2.12572
0.00784046
2.12786
0.00764266
2.12997
0.00785624
2.13212
0.00825876
2.13437
0.00876939
2.13676
0.00934706
2.13931
0.00996838
2.14201
0.0106315
2.1449
0.011344
2.14799
0.0121154
2.15129
0.0129564
2.15485
0.0138795
2.15868
0.0148985
2.16282
0.0160292
2.16732
0.0172893
2.17223
0.018698
2.17759
0.0202766
2.18349
0.0220478
2.19001
0.0240346
2.19726
0.0262591
2.20539
0.0287369
2.21458
0.0314763
2.22515
0.0344323
2.2375
0.0376193
2.25189
0.040382
2.2735
0.0442242
2.28153
0.0407058
2.36223
0.052448
2.3746
0.0225374
2.34308
-0.00873934
2.3088
-0.0229651
2.28349
-0.0271717
2.26669
-0.02575
2.25588
-0.021624
-0.00997171
2.3191
0.00531216
-2.31532
2.32293
0.00548603
2.32587
0.00566757
2.32788
0.00582942
2.32952
0.00600344
2.33115
0.006222
2.33293
0.00648072
2.33493
0.00677047
2.33719
0.00709225
2.3397
0.00745026
2.34249
0.00784851
2.34554
0.0082915
2.34887
0.00878466
2.35249
0.00933426
2.35642
0.00994749
2.36069
0.0106326
2.36532
0.0113988
2.37035
0.0122565
2.37583
0.0132175
2.38182
0.0142939
2.38837
0.0154987
2.39556
0.0168443
2.40347
0.0183408
2.41222
0.0199922
2.4219
0.0217939
2.43263
0.0237027
2.44454
0.0257062
2.45754
0.0273823
2.47227
0.0294955
2.48534
0.0276429
2.50573
0.032054
2.51124
0.0170258
2.5047
-0.00219769
2.49507
-0.0133337
2.48529
-0.0173969
2.47668
-0.0171344
2.46968
-0.0146253
-0.00675152
2.52655
0.00271804
-2.52395
2.52923
0.00280403
2.53199
0.00290768
2.5348
0.00302107
2.53768
0.00312234
2.54067
0.00322862
2.5438
0.00335387
2.54707
0.00349824
2.5505
0.00366178
2.5541
0.00384656
2.5579
0.00405455
2.5619
0.00428762
2.56614
0.00454806
2.57063
0.00483858
2.57542
0.00516238
2.58053
0.00552313
2.586
0.005925
2.59189
0.00637259
2.59823
0.00687074
2.6051
0.00742427
2.61256
0.0080374
2.6207
0.00871266
2.62959
0.00944941
2.63934
0.0102407
2.65006
0.0110688
2.66187
0.0118949
2.67492
0.012658
2.6891
0.0132046
2.70513
0.0134647
2.72007
0.0127012
2.74045
0.0116762
2.75023
0.00723999
2.74693
0.00110743
2.73693
-0.00333522
2.72534
-0.00580762
2.71471
-0.00650422
2.70615
-0.00606033
-0.00293324
2.76276
-2.76004
2.76556
2.76847
2.77149
2.77461
2.77784
2.7812
2.78469
2.78836
2.7922
2.79626
2.80055
2.80509
2.80993
2.81509
2.82062
2.82654
2.83292
2.83979
2.84721
2.85525
2.86396
2.87341
2.88365
2.89472
2.90661
2.91927
2.93248
2.94594
2.95864
2.97032
2.97756
2.97867
2.97533
2.96952
2.96302
2.95696
0.426825
0.0273849
-0.424047
0.428911
0.0535767
0.427814
0.081934
0.427768
0.104493
0.423679
0.131492
0.419789
0.152082
0.411947
0.175474
0.190138
0.453428
0.025743
-0.451786
0.454777
0.0522275
0.454503
0.0822086
0.455341
0.103655
0.453677
0.133156
0.452162
0.153597
0.450167
0.177469
0.193679
0.486107
0.0247569
-0.485121
0.487065
0.0512697
0.487985
0.0812889
0.488712
0.102927
0.489568
0.132299
0.490036
0.15313
0.491016
0.176489
0.19527
0.522556
0.0240164
-0.521816
0.523437
0.0503892
0.525361
0.0793643
0.526379
0.101909
0.528567
0.130111
0.52991
0.151787
0.531708
0.174692
0.194572
0.564095
0.0232513
-0.56333
0.565019
0.0494659
0.566952
0.0774312
0.568133
0.100728
0.570569
0.127675
0.572662
0.149695
0.575512
0.171841
0.192168
0.610026
0.0225801
-0.609355
0.610962
0.0485296
0.612861
0.0755322
0.614573
0.0990159
0.617465
0.124783
0.620357
0.146803
0.623919
0.168279
0.18878
0.660943
0.0219553
-0.660318
0.662025
0.0474477
0.664032
0.0735248
0.666231
0.0968172
0.669414
0.1216
0.672792
0.143425
0.676866
0.164205
0.184508
0.717215
0.0213447
-0.716605
0.718436
0.0462275
0.720553
0.071407
0.723101
0.0942692
0.726568
0.118134
0.73045
0.139543
0.735055
0.159599
0.179495
0.779205
0.0207254
-0.778586
0.780561
0.0448717
0.782842
0.0691257
0.785728
0.0913834
0.789533
0.114329
0.793913
0.135163
0.799022
0.154491
0.173831
0.847391
0.0200718
-0.846737
0.848896
0.0433666
0.851378
0.0666435
0.854596
0.0881659
0.858761
0.110163
0.863629
0.130296
0.869256
0.148864
0.167529
0.922285
0.0193642
-0.921578
0.923951
0.0417005
0.926662
0.0639333
0.93022
0.0846072
0.93478
0.105603
0.940153
0.124922
0.946331
0.142687
0.160574
1.00445
0.0185863
-1.00368
1.0063
0.0398567
1.00927
0.0609654
1.01319
0.0806849
1.01818
0.100611
1.02409
0.119015
1.03086
0.135917
0.152936
1.09452
0.0177226
-1.09366
1.09656
0.0378202
1.09981
0.0577169
1.10412
0.0763737
1.10958
0.095149
1.11607
0.112531
1.12348
0.128503
0.144544
1.19321
0.0167192
-1.19221
1.1955
0.0355336
1.19907
0.0541461
1.2038
0.071647
1.20977
0.0891703
1.21685
0.105455
1.22494
0.120412
0.135418
1.30131
0.0155943
-1.30019
1.30377
0.0330713
1.30756
0.0503587
1.3127
0.066505
1.31919
0.082684
1.32693
0.0977159
1.33575
0.111585
0.125431
1.41948
0.0144017