/*--------------------------------*- C++ -*----------------------------------*\
| =========                 |                                                 |
| \\      /  F ield         | OpenFOAM: The Open Source CFD Toolbox           |
|  \\    /   O peration     | Version:  2512                                  |
|   \\  /    A nd           | Website:  www.openfoam.com                      |
|    \\/     M anipulation  |                                                 |
\*---------------------------------------------------------------------------*/
FoamFile
{
    version     2.0;
    format      ascii;
    arch        "LSB;label=32;scalar=64";
    class       volScalarField;
    location    "107";
    object      p;
}
// * * * * * * * * * * * * * * * * * * * * * * * * * * * * * * * * * * * * * //

dimensions      [0 2 -2 0 0 0 0];

internalField   nonuniform List<scalar> 
13248
(
-0.279728
-0.280873
-0.280063
-0.277859
-0.274338
-0.269435
-0.263314
-0.256184
-0.248588
-0.241061
-0.234104
-0.228091
-0.223198
-0.219375
-0.216367
-0.21379
-0.21125
-0.208443
-0.205122
-0.201347
-0.196615
-0.191353
-0.183895
-0.174713
-0.284295
-0.284657
-0.283524
-0.28134
-0.278144
-0.273853
-0.268447
-0.262093
-0.255063
-0.247697
-0.240343
-0.233284
-0.226673
-0.220522
-0.214733
-0.209175
-0.203719
-0.198251
-0.192653
-0.186727
-0.180278
-0.173138
-0.164901
-0.156615
-0.290877
-0.290196
-0.288422
-0.285909
-0.282658
-0.278595
-0.27358
-0.26754
-0.260516
-0.25269
-0.244348
-0.235796
-0.227288
-0.218998
-0.211022
-0.203382
-0.196024
-0.188854
-0.181686
-0.174455
-0.166912
-0.15913
-0.150882
-0.14251
-0.299038
-0.297155
-0.294506
-0.291338
-0.287785
-0.283633
-0.278547
-0.272207
-0.264489
-0.255554
-0.245773
-0.235588
-0.225399
-0.21549
-0.206008
-0.196971
-0.188326
-0.179964
-0.171798
-0.163714
-0.155594
-0.147501
-0.139147
-0.131261
-0.308912
-0.305753
-0.302124
-0.298227
-0.294119
-0.289458
-0.283643
-0.276191
-0.267018
-0.256453
-0.245051
-0.23338
-0.221877
-0.210801
-0.200253
-0.190235
-0.180689
-0.171542
-0.162696
-0.154077
-0.145623
-0.137322
-0.129075
-0.121283
-0.32096
-0.316458
-0.311846
-0.307144
-0.302192
-0.296387
-0.288956
-0.279517
-0.268268
-0.255804
-0.242813
-0.229857
-0.2173
-0.205319
-0.193967
-0.18322
-0.173021
-0.163294
-0.153975
-0.145
-0.136314
-0.127908
-0.119688
-0.11198
-0.335612
-0.329692
-0.324091
-0.318423
-0.312105
-0.304272
-0.294272
-0.282136
-0.268462
-0.254041
-0.239554
-0.225457
-0.211994
-0.199256
-0.187243
-0.175913
-0.165206
-0.15506
-0.145411
-0.1362
-0.127385
-0.118917
-0.11077
-0.103116
-0.353031
-0.345636
-0.338967
-0.331966
-0.323479
-0.31261
-0.299228
-0.283966
-0.267755
-0.251422
-0.235527
-0.220371
-0.206072
-0.192644
-0.180052
-0.168236
-0.157132
-0.146671
-0.13679
-0.127432
-0.11854
-0.11007
-0.102011
-0.0943881
-0.373049
-0.364142
-0.356194
-0.347221
-0.335539
-0.32069
-0.303397
-0.284863
-0.266163
-0.248008
-0.230773
-0.214599
-0.199499
-0.18543
-0.172321
-0.160095
-0.148675
-0.137987
-0.12796
-0.118529
-0.109633
-0.101224
-0.0932813
-0.0857255
-0.395009
-0.384629
-0.375028
-0.363152
-0.347193
-0.32767
-0.306256
-0.284513
-0.263448
-0.243567
-0.225046
-0.20789
-0.192029
-0.177366
-0.163802
-0.151236
-0.139579
-0.128742
-0.118646
-0.109214
-0.100378
-0.0920879
-0.0842897
-0.076849
-0.417863
-0.40605
-0.394202
-0.37829
-0.357099
-0.332527
-0.307025
-0.28224
-0.258966
-0.237466
-0.217738
-0.199669
-0.183118
-0.167941
-0.154007
-0.141192
-0.129388
-0.118494
-0.108418
-0.0990747
-0.0903928
-0.0823109
-0.0747326
-0.0675342
-0.440153
-0.426947
-0.412026
-0.390929
-0.363811
-0.334087
-0.304685
-0.277096
-0.251817
-0.228863
-0.208069
-0.189222
-0.172114
-0.156556
-0.142383
-0.129446
-0.117618
-0.106782
-0.0968344
-0.0876846
-0.0792603
-0.0714958
-0.0642764
-0.0575197
-0.42338
-0.426089
-0.42728
-0.428559
-0.430557
-0.433318
-0.436791
-0.440852
-0.445102
-0.44922
-0.452862
-0.455709
-0.457526
-0.458228
-0.457935
-0.457011
-0.456057
-0.455857
-0.457269
-0.461054
-0.467745
-0.477387
-0.489301
-0.502467
-0.397692
-0.399733
-0.399891
-0.399604
-0.399528
-0.399789
-0.400373
-0.401189
-0.402087
-0.402937
-0.403659
-0.40425
-0.40482
-0.405627
-0.407089
-0.409761
-0.414287
-0.421298
-0.431295
-0.444505
-0.460994
-0.479676
-0.499792
-0.519225
-0.375436
-0.376655
-0.375917
-0.374372
-0.372625
-0.370859
-0.369126
-0.367419
-0.365732
-0.364117
-0.362721
-0.361785
-0.361667
-0.362836
-0.365871
-0.371377
-0.379918
-0.391922
-0.407519
-0.426552
-0.448429
-0.471789
-0.495911
-0.517711
-0.35639
-0.356815
-0.355412
-0.352974
-0.350002
-0.346713
-0.343222
-0.339609
-0.335975
-0.332487
-0.3295
-0.327406
-0.326713
-0.32799
-0.331858
-0.338897
-0.349528
-0.363976
-0.382151
-0.403401
-0.427263
-0.451604
-0.476195
-0.497574
-0.340041
-0.339863
-0.338061
-0.335094
-0.331299
-0.326891
-0.32205
-0.316949
-0.3118
-0.306647
-0.30231
-0.299077
-0.297549
-0.298355
-0.302086
-0.309248
-0.320169
-0.33483
-0.353176
-0.374059
-0.397375
-0.420774
-0.443695
-0.463055
-0.325834
-0.325361
-0.323441
-0.320231
-0.31592
-0.310654
-0.304671
-0.298229
-0.291618
-0.28518
-0.279436
-0.274925
-0.272263
-0.272076
-0.274926
-0.281242
-0.291305
-0.304939
-0.32216
-0.341697
-0.363217
-0.384473
-0.406692
-0.424186
-0.313318
-0.312908
-0.311099
-0.307897
-0.303268
-0.297299
-0.290276
-0.282558
-0.274551
-0.26672
-0.259605
-0.253802
-0.249942
-0.248642
-0.250447
-0.255737
-0.264744
-0.277284
-0.293237
-0.311472
-0.332399
-0.352477
-0.372329
-0.386583
-0.30224
-0.302228
-0.300697
-0.297625
-0.292833
-0.286267
-0.278342
-0.269456
-0.260145
-0.251
-0.242651
-0.235754
-0.230971
-0.228926
-0.230152
-0.23501
-0.243684
-0.255955
-0.271416
-0.288893
-0.307612
-0.32492
-0.340307
-0.348996
-0.292633
-0.29322
-0.292019
-0.289116
-0.28436
-0.277157
-0.268698
-0.258988
-0.248735
-0.238678
-0.229571
-0.222169
-0.217174
-0.21523
-0.216776
-0.22199
-0.23077
-0.242554
-0.256593
-0.271521
-0.286191
-0.298538
-0.307195
-0.308804
-0.284902
-0.286068
-0.285116
-0.282294
-0.277465
-0.270501
-0.261797
-0.251808
-0.241353
-0.231225
-0.222256
-0.215275
-0.210911
-0.2096
-0.211567
-0.216687
-0.224512
-0.23421
-0.244894
-0.255137
-0.264196
-0.270344
-0.272897
-0.269434
-0.279776
-0.28133
-0.280524
-0.277824
-0.273218
-0.266657
-0.258414
-0.24901
-0.239215
-0.229907
-0.221829
-0.215633
-0.211859
-0.210753
-0.212239
-0.21595
-0.221161
-0.227073
-0.232688
-0.237158
-0.240163
-0.24092
-0.240282
-0.235914
-0.278024
-0.279583
-0.278833
-0.276364
-0.272245
-0.266437
-0.259133
-0.2509
-0.242312
-0.234007
-0.226729
-0.22101
-0.217166
-0.215236
-0.214964
-0.215863
-0.217231
-0.218496
-0.218898
-0.218388
-0.21654
-0.213721
-0.210533
-0.205999
-0.521098
-0.542493
-0.556457
-0.561542
-0.55136
-0.51787
-0.458163
-0.382108
-0.307147
-0.247012
-0.206713
-0.18484
-0.17884
-0.185699
-0.204811
-0.240119
-0.292115
-0.345348
-0.373644
-0.35723
-0.305764
-0.243991
-0.190378
-0.152466
-0.131595
-0.125168
-0.131866
-0.156266
-0.201029
-0.25247
-0.282792
-0.269344
-0.223542
-0.170535
-0.128897
-0.103899
-0.0951455
-0.104172
-0.126382
-0.142749
-0.136619
-0.115768
-0.0943417
-0.0802446
-0.0769614
-0.081425
-0.0881589
-0.0891302
-0.0798742
-0.0671724
-0.0576103
-0.0499851
-0.0492189
-0.0444398
-0.0386106
-0.0329409
-0.0349
-0.0336121
-0.0275098
-0.00724979
-0.542168
-0.563489
-0.576476
-0.579914
-0.568632
-0.53407
-0.472764
-0.394874
-0.317793
-0.254889
-0.210892
-0.183882
-0.171881
-0.172946
-0.185703
-0.212845
-0.255779
-0.302729
-0.329103
-0.317104
-0.274742
-0.222454
-0.176267
-0.143654
-0.127185
-0.124805
-0.135868
-0.16574
-0.216748
-0.273723
-0.30771
-0.293619
-0.243252
-0.183631
-0.134912
-0.103345
-0.088249
-0.0903334
-0.106001
-0.11775
-0.112587
-0.096719
-0.0819799
-0.0746979
-0.0781107
-0.0896379
-0.100781
-0.103549
-0.0914841
-0.0743291
-0.0595614
-0.0450106
-0.0406449
-0.033059
-0.0297056
-0.0309662
-0.0383759
-0.0443141
-0.0370403
-0.00869913
-0.541464
-0.561425
-0.573704
-0.576504
-0.56403
-0.528745
-0.468074
-0.39139
-0.315653
-0.253436
-0.208483
-0.178802
-0.161933
-0.156758
-0.162524
-0.180686
-0.213208
-0.252035
-0.277046
-0.270668
-0.238703
-0.196473
-0.157769
-0.130682
-0.118728
-0.120199
-0.13525
-0.169788
-0.225519
-0.286814
-0.324548
-0.311835
-0.258622
-0.193608
-0.138842
-0.101537
-0.0808272
-0.0767081
-0.0866026
-0.0944115
-0.090127
-0.0781536
-0.0692505
-0.0684646
-0.0788029
-0.0977867
-0.113611
-0.117917
-0.102712
-0.0809504
-0.0612395
-0.0401633
-0.0322093
-0.0218005
-0.0209096
-0.0288823
-0.041494
-0.0546014
-0.0464624
-0.0101366
-0.518846
-0.537846
-0.551823
-0.554814
-0.541038
-0.504846
-0.445801
-0.37368
-0.3033
-0.244688
-0.200687
-0.170031
-0.150391
-0.140182
-0.139011
-0.148232
-0.170102
-0.199911
-0.222494
-0.221908
-0.199944
-0.167267
-0.135837
-0.114095
-0.10622
-0.111002
-0.129009
-0.16638
-0.225252
-0.290397
-0.33192
-0.322477
-0.268737
-0.199895
-0.140494
-0.0985477
-0.0732303
-0.0638533
-0.0688316
-0.0732838
-0.0694383
-0.0602747
-0.0562365
-0.0614735
-0.0787254
-0.105521
-0.126443
-0.132043
-0.11342
-0.0868864
-0.0625795
-0.0355553
-0.0240611
-0.0108823
-0.012263
-0.0266574
-0.0441462
-0.0642789
-0.0556192
-0.0115855
-0.481359
-0.499237
-0.51526
-0.519026
-0.504246
-0.468013
-0.412565
-0.347613
-0.284948
-0.231776
-0.190006
-0.159152
-0.137787
-0.124374
-0.11799
-0.119143
-0.130771
-0.151335
-0.170104
-0.175557
-0.160209
-0.136201
-0.111563
-0.0946284
-0.0901755
-0.0976424
-0.117506
-0.155882
-0.215768
-0.283576
-0.328679
-0.32463
-0.273189
-0.202467
-0.140027
-0.0946466
-0.065695
-0.0520232
-0.0529145
-0.0546711
-0.0505626
-0.0433889
-0.0430223
-0.0535186
-0.0775196
-0.112542
-0.13897
-0.145687
-0.123509
-0.0920546
-0.0635571
-0.0312798
-0.0163378
-0.000518064
-0.00376635
-0.0242616
-0.0462375
-0.0731552
-0.064353
-0.0130733
-0.438456
-0.454226
-0.469962
-0.47306
-0.456918
-0.421977
-0.372632
-0.317157
-0.263686
-0.216918
-0.17838
-0.14803
-0.125396
-0.10955
-0.099443
-0.0950215
-0.0979859
-0.109308
-0.122436
-0.129004
-0.121001
-0.104882
-0.0862695
-0.0735107
-0.0718406
-0.0813253
-0.102063
-0.139667
-0.197905
-0.266332
-0.315235
-0.317491
-0.271093
-0.201236
-0.137606
-0.0901011
-0.0584838
-0.0414148
-0.0389891
-0.0387047
-0.0340147
-0.0278002
-0.0297826
-0.0447026
-0.074999
-0.11838
-0.150721
-0.158527
-0.132832
-0.0963678
-0.0641421
-0.0274288
-0.00916303
0.00911663
0.00453606
-0.0216879
-0.0476817
-0.081058
-0.0725081
-0.0146184
-0.394903
-0.404535
-0.41825
-0.419563
-0.402973
-0.372092
-0.331486
-0.286587
-0.242417
-0.202067
-0.167097
-0.137952
-0.114579
-0.0967243
-0.0836737
-0.0749508
-0.0714413
-0.0747049
-0.0819687
-0.0877433
-0.0849545
-0.0748094
-0.0613236
-0.0521402
-0.05252
-0.0633519
-0.0842629
-0.119558
-0.173586
-0.239512
-0.291393
-0.301623
-0.262223
-0.196314
-0.133501
-0.0852461
-0.0518731
-0.0321771
-0.0270486
-0.025335
-0.0198895
-0.0138409
-0.0169414
-0.0350586
-0.0708213
-0.122736
-0.161221
-0.170209
-0.141274
-0.0997792
-0.0642999
-0.0240609
-0.00264487
0.0178764
0.0125879
-0.018957
-0.0484308
-0.0878494
-0.0799381
-0.0162243
-0.348534
-0.350713
-0.361736
-0.361704
-0.347122
-0.323049
-0.292423
-0.257875
-0.222357
-0.188149
-0.156884
-0.129441
-0.106059
-0.0868527
-0.0715853
-0.059689
-0.0514174
-0.0481863
-0.0496627
-0.0530405
-0.0542085
-0.0469587
-0.0379114
-0.0317498
-0.0335615
-0.0450486
-0.0653016
-0.0974375
-0.145877
-0.206765
-0.260185
-0.280949
-0.247236
-0.188049
-0.127929
-0.0802207
-0.0460204
-0.0243786
-0.0170082
-0.0143635
-0.00825712
-0.00180238
-0.0048246
-0.0249393
-0.0650889
-0.124883
-0.169688
-0.180189
-0.14863
-0.10225
-0.0639875
-0.0211729
0.00314371
0.0256488
0.0202917
-0.0161011
-0.0484449
-0.0934135
-0.0865107
-0.0178776
-0.299357
-0.296744
-0.306232
-0.306367
-0.296102
-0.279902
-0.258463
-0.23266
-0.204445
-0.175732
-0.148079
-0.122582
-0.0997199
-0.0797964
-0.0630172
-0.0490167
-0.0375862
-0.0296139
-0.0257705
-0.025142
-0.0254387
-0.0214701
-0.0166812
-0.0131749
-0.0158612
-0.027405
-0.0468102
-0.0751977
-0.116488
-0.171221
-0.22344
-0.247978
-0.227436
-0.177034
-0.121039
-0.0749488
-0.0408665
-0.0179294
-0.00870983
-0.00547172
0.000956003
0.00809523
0.00617325
-0.01442
-0.0572695
-0.124913
-0.175794
-0.188196
-0.154825
-0.103761
-0.0631971
-0.0187563
0.00816143
0.0323338
0.0276027
-0.0131628
-0.0477704
-0.0976833
-0.0921314
-0.0195575
-0.255398
-0.252294
-0.260608
-0.261136
-0.254864
-0.244655
-0.229843
-0.210628
-0.188323
-0.164431
-0.140262
-0.116892
-0.0950236
-0.0750509
-0.0573806
-0.0420534
-0.0287318
-0.0177722
-0.00979344
-0.00490556
-0.0025174
-0.00106925
0.00145066
0.00287106
-0.00046319
-0.0115099
-0.0296112
-0.0543704
-0.0892364
-0.135596
-0.183499
-0.211371
-0.201704
-0.162663
-0.112846
-0.069577
-0.0365897
-0.012883
-0.00209443
0.00159895
0.00795539
0.0157909
0.0155938
-0.00426265
-0.0482133
-0.121786
-0.178231
-0.193285
-0.159344
-0.104298
-0.0620371
-0.0169549
0.0122925
0.0378917
0.0343724
-0.0101829
-0.0463887
-0.100582
-0.0967241
-0.0212395
-0.224378
-0.222966
-0.22868
-0.228382
-0.224249
-0.217622
-0.207306
-0.193084
-0.175585
-0.155791
-0.134784
-0.113551
-0.0929083
-0.0733857
-0.0553794
-0.0391624
-0.0246101
-0.0117792
-0.000975541
0.00747704
0.0128483
0.0150147
0.0172575
0.0164315
0.012683
0.00237286
-0.0142619
-0.0353316
-0.0630606
-0.101654
-0.146203
-0.177184
-0.179734
-0.149355
-0.105547
-0.0651756
-0.0337776
-0.00955533
0.00285245
0.00711576
0.0128418
0.021171
0.0236766
0.00593265
-0.0373456
-0.11607
-0.178111
-0.195871
-0.162716
-0.104305
-0.0607099
-0.0157108
0.0153576
0.0421564
0.040653
-0.00720227
-0.0444621
-0.102169
-0.100212
-0.0228618
-0.201613
-0.203132
-0.204965
-0.202287
-0.198311
-0.193323
-0.186114
-0.176014
-0.162922
-0.147205
-0.129581
-0.11088
-0.0918861
-0.0732247
-0.0554277
-0.0388703
-0.0235996
-0.0098048
0.00229296
0.012747
0.0211324
0.0258176
0.0276444
0.0263906
0.0224498
0.0138008
-0.00160436
-0.0201443
-0.0421926
-0.0727724
-0.109901
-0.13822
-0.14419
-0.127959
-0.0943126
-0.0584547
-0.0296948
-0.00622489
0.00722358
0.0121809
0.0169042
0.0244308
0.0290728
0.014204
-0.0260412
-0.106426
-0.17269
-0.19408
-0.16304
-0.102971
-0.0583175
-0.0136572
0.0181272
0.0451757
0.0461157
-0.00423105
-0.0418903
-0.102326
-0.102416
-0.0242474
-0.182535
-0.192996
-0.192622
-0.187163
-0.180703
-0.174125
-0.166642
-0.157147
-0.145083
-0.130587
-0.114293
-0.0970223
-0.0795092
-0.0622418
-0.0456208
-0.0299539
-0.0152558
-0.00172738
0.010374
0.0212747
0.0308309
0.037486
0.0394973
0.0359768
0.0305986
0.0229768
0.0113672
-0.00309569
-0.0213214
-0.0474484
-0.0819887
-0.113942
-0.129947
-0.110412
-0.0794142
-0.0469579
-0.021289
-0.000294917
0.0123347
0.017011
0.0210001
0.02858
0.0361894
0.0241237
-0.0130081
-0.0938707
-0.166116
-0.191913
-0.161001
-0.0981524
-0.0534164
-0.0101696
0.02133
0.0483439
0.0511088
-0.00121234
-0.0389132
-0.101318
-0.103623
-0.025281
-0.160365
-0.173251
-0.174039
-0.167627
-0.159707
-0.152325
-0.145042
-0.136539
-0.125936
-0.113145
-0.0987013
-0.0833328
-0.0676583
-0.0520811
-0.0369091
-0.0223571
-0.0084806
0.00436429
0.0158508
0.0262434
0.0355831
0.0420767
0.0434862
0.0405455
0.0352339
0.0285093
0.0193544
0.00784272
-0.00657504
-0.0282649
-0.0602436
-0.0912591
-0.103999
-0.0898545
-0.063352
-0.0353835
-0.0133601
0.0046734
0.0162692
0.0207644
0.0242386
0.0315915
0.0396142
0.0299708
-0.00373182
-0.0831146
-0.158471
-0.186135
-0.155574
-0.0917385
-0.0478276
-0.00677943
0.0239072
0.050717
0.054249
0.000982099
-0.0362831
-0.0993733
-0.103762
-0.0260832
-0.140137
-0.15346
-0.155242
-0.149332
-0.141459
-0.134117
-0.127237
-0.119646
-0.110372
-0.0991346
-0.0862904
-0.0724644
-0.058215
-0.0439182
-0.0298349
-0.0162076
-0.00310165
0.00923724
0.0203804
0.030286
0.039165
0.0456416
0.0473335
0.0441909
0.0387517
0.0327684
0.0251514
0.01482
0.00260586
-0.0143235
-0.0396969
-0.0666766
-0.0802565
-0.070262
-0.0487348
-0.0251313
-0.00624831
0.00922629
0.019765
0.0238346
0.0268778
0.0339312
0.0423205
0.0333688
0.00190987
-0.0745578
-0.148298
-0.175832
-0.147323
-0.0843569
-0.0419638
-0.00349786
0.0260197
0.0522738
0.0561646
0.00229118
-0.0339379
-0.0962651
-0.102737
-0.0267082
-0.122734
-0.134694
-0.137027
-0.132132
-0.124797
-0.117632
-0.110965
-0.103926
-0.0955878
-0.08558
-0.074112
-0.0617038
-0.0488431
-0.035887
-0.0230536
-0.0105215
0.00160721
0.0130919
0.0235922
0.0329132
0.0412144
0.0473782
0.0494
0.0467449
0.0417842
0.0369393
0.0309677
0.0216961
0.011813
0.000639884
-0.0187795
-0.0442121
-0.0581825
-0.0511126
-0.0342102
-0.0149674
0.000742682
0.0134366
0.02268
0.0261729
0.0289412
0.0354228
0.044236
0.0356986
0.00625723
-0.0647502
-0.134058
-0.161277
-0.135829
-0.0757158
-0.0356257
-3.29297e-05
0.0276834
0.0528174
0.0570756
0.00318592
-0.0313278
-0.0918323
-0.100428
-0.0270602
-0.106278
-0.117112
-0.119764
-0.11578
-0.109123
-0.102322
-0.0959543
-0.0894699
-0.0820755
-0.0733403
-0.0633001
-0.0523237
-0.0408239
-0.0291242
-0.0174277
-0.00590859
0.00532455
0.0160204
0.0258709
0.0345858
0.0422539
0.0480446
0.0503319
0.0484962
0.0445254
0.0410407
0.0373772
0.0311618
0.0247449
0.0167644
-0.00106494
-0.0248635
-0.0375392
-0.0329679
-0.020764
-0.00585028
0.00704513
0.0173056
0.025222
0.0279478
0.0304598
0.0361632
0.0450468
0.0370757
0.0108396
-0.0521817
-0.115873
-0.142291
-0.120986
-0.0660174
-0.0292022
0.00342592
0.0288625
0.0522627
0.0569859
0.00405288
-0.0282504
-0.0860307
-0.0967059
-0.0270505
-0.0909214
-0.100912
-0.103619
-0.100325
-0.0944226
-0.0882091
-0.0823401
-0.0764754
-0.0699472
-0.0623015
-0.053469
-0.0437157
-0.0334001
-0.022838
-0.0122385
-0.00176333
0.00849839
0.0183026
0.0273851
0.0354568
0.0425397
0.0479458
0.0504797
0.0496621
0.0470239
0.0449234
0.0440054
0.0421217
0.0385054
0.0304467
0.012696
-0.0080276
-0.0188409
-0.0165273
-0.00842418
0.00254925
0.0128127
0.0208857
0.0274004
0.0292859
0.0315034
0.0363061
0.0446754
0.0377165
0.0157244
-0.0380887
-0.0947725
-0.119709
-0.103102
-0.0554286
-0.0228548
0.00684557
0.0295666
0.0505857
0.0558391
0.00493096
-0.0247984
-0.0788718
-0.091486
-0.0265764
-0.0770581
-0.0859861
-0.0885921
-0.0859179
-0.0808128
-0.0752843
-0.0699849
-0.0647114
-0.0589231
-0.052205
-0.0444494
-0.0358469
-0.0266988
-0.017283
-0.00777733
0.00166802
0.0109676
0.0198998
0.0282294
0.0356735
0.0422098
0.0473234
0.0501154
0.0502776
0.0490714
0.0483405
0.0494363
0.0504211
0.0483126
0.0401402
0.0239179
0.00699868
-0.0023023
-0.00218393
0.00241452
0.00988623
0.0177688
0.0241499
0.0293291
0.0304297
0.0322308
0.0361296
0.0433534
0.0374746
0.0197829
-0.024047
-0.0720861
-0.0947538
-0.0829014
-0.0442151
-0.0168041
0.0100431
0.0298357
0.0478273
0.0535513
0.00569061
-0.0210302
-0.0704188
-0.0847021
-0.0255387
-0.0643705
-0.0722247
-0.0747565
-0.0726616
-0.0682933
-0.0634223
-0.0586919
-0.0539931
-0.0488937
-0.0430293
-0.0362743
-0.028751
-0.0206921
-0.0123356
-0.00384892
0.00461939
0.0129818
0.0210503
0.028626
0.0354524
0.0414688
0.0462946
0.049301
0.0502958
0.0503149
0.0506724
0.0525759
0.0544817
0.0533383
0.046408
0.033095
0.019656
0.0112375
0.00953207
0.0115628
0.0162411
0.0220193
0.0270843
0.0310266
0.0315507
0.0328446
0.0358886
0.0414531
0.0363634
0.0226101
-0.0109222
-0.0492932
-0.0691637
-0.0616542
-0.0327314
-0.0111119
0.0129019
0.0297886
0.0440876
0.0500941
0.00633484
-0.0168996
-0.0607878
-0.076311
-0.0238461
-0.0526298
-0.0596813
-0.0621527
-0.0605219
-0.0567919
-0.052541
-0.0483806
-0.0442546
-0.0398099
-0.0347269
-0.0288742
-0.0223248
-0.0152637
-0.00789931
-0.000386771
0.00714134
0.0146007
0.0218336
0.0286771
0.0349044
0.040432
0.0449758
0.048134
0.0497828
0.0507142
0.0518274
0.0538474
0.0557449
0.0552134
0.0498757
0.0395939
0.0290347
0.0214793
0.0186602
0.0190038
0.0215865
0.0255737
0.0296073
0.032488
0.0326694
0.0335293
0.0358255
0.0394881
0.0348389
0.0246379
0.000786952
-0.0279885
-0.0448363
-0.0409627
-0.021405
-0.0057338
0.0153409
0.0296425
0.0396503
0.0457231
0.00708054
-0.0123318
-0.0501901
-0.0663136
-0.021442
-0.0420195
-0.0483482
-0.0506814
-0.0494164
-0.0462674
-0.0426092
-0.0389986
-0.0354156
-0.0315748
-0.0271978
-0.0221567
-0.0164931
-0.0103561
-0.00392025
0.00267792
0.00932028
0.0159272
0.022366
0.028505
0.0341482
0.0392161
0.0435191
0.0467137
0.0488147
0.050343
0.0518887
0.0537664
0.0553629
0.0550681
0.0510561
0.0433608
0.0352419
0.0287353
0.0254693
0.0248181
0.0259937
0.0285485
0.0316828
0.0337307
0.0337154
0.0342656
0.0360393
0.0381729
0.0337135
0.0262314
0.0105155
-0.00949672
-0.0233911
-0.0225308
-0.0107557
-0.000538349
0.0174033
0.0297086
0.0351892
0.0411443
0.00836906
-0.00727776
-0.0389852
-0.0548119
-0.0183291
-0.0325879
-0.0380859
-0.0402302
-0.0393016
-0.0366936
-0.0335791
-0.0304723
-0.0273896
-0.0241027
-0.0203672
-0.0160614
-0.0112039
-0.0059122
-0.000330182
0.00542076
0.0112365
0.0170454
0.0227363
0.028203
0.0332796
0.0378953
0.0419003
0.0450848
0.0474532
0.0493169
0.0510438
0.0527193
0.0539604
0.0537232
0.0507654
0.0451108
0.0389841
0.0336304
0.0303872
0.0292121
0.0295295
0.0310025
0.0332969
0.0347581
0.034631
0.0350193
0.036418
0.0377687
0.0334313
0.0274396
0.0179159
0.00527098
-0.00612866
-0.00785063
-0.00132344
0.0045164
0.0191422
0.0301464
0.0318261
0.0374191
0.0109
-0.00176017
-0.0277342
-0.0422501
-0.0146334
-0.0239776
-0.0287745
-0.030793
-0.0301654
-0.0280236
-0.0253872
-0.0227378
-0.0201147
-0.0173323
-0.0141754
-0.0105303
-0.00639793
-0.00187055
0.00293251
0.00790435
0.0129557
0.0180248
0.0230179
0.0278519
0.0323857
0.0365437
0.0401684
0.0433156
0.0457975
0.0478063
0.0495574
0.0510438
0.051998
0.0517894
0.0496524
0.0455535
0.0409876
0.0367221
0.0337905
0.0324122
0.0322597
0.0329648
0.0345121
0.0355651
0.0353695
0.0357015
0.036804
0.0379432
0.034184
0.0291173
0.0234992
0.0158112
0.00630895
0.00283293
0.00660335
0.00937654
0.0206991
0.0307934
0.0305645
0.0356167
0.0153845
0.00406204
-0.017267
-0.0300353
-0.0106375
-0.0161709
-0.0204486
-0.0223472
-0.0219381
-0.020184
-0.0179736
-0.0157411
-0.0135342
-0.0112032
-0.00856137
-0.00550404
-0.00201903
0.00182122
0.00591829
0.0101807
0.0145331
0.0189222
0.0232705
0.0275125
0.0315331
0.0352647
0.0385904
0.0415358
0.0439779
0.0459955
0.0476848
0.0490135
0.0497834
0.049627
0.0481221
0.0451907
0.0418077
0.0383411
0.0360168
0.0346574
0.034265
0.0344601
0.0354077
0.0361445
0.0359322
0.0362256
0.0370847
0.0382567
0.0355991
0.0315983
0.028108
0.0226698
0.0147226
0.0104171
0.013015
0.0139058
0.0221634
0.0313338
0.031567
0.0361268
0.0217516
0.00988902
-0.00839599
-0.0190523
-0.00672828
-0.0093249
-0.0130496
-0.0147622
-0.0145193
-0.0131122
-0.011287
-0.00942703
-0.00758924
-0.0056574
-0.00347041
-0.000931727
0.00197882
0.00520563
0.00866944
0.0122921
0.0160102
0.0197788
0.0235356
0.027228
0.0307634
0.0340876
0.0371052
0.0398052
0.042112
0.0440499
0.0456364
0.0468377
0.0475112
0.0474387
0.0464178
0.0443655
0.0419134
0.0393479
0.0374119
0.0361499
0.035645
0.0355272
0.0360373
0.036514
0.0363314
0.0365683
0.0372136
0.038417
0.0367403
0.033932
0.0315572
0.0269206
0.0203242
0.0159509
0.0179883
0.0178647
0.0235062
0.0314462
0.0335735
0.0367793
0.0279091
0.0149111
-0.00166384
-0.0102217
-0.00340854
-0.00321359
-0.00640494
-0.00795693
-0.00786946
-0.00676728
-0.00527638
-0.00374113
-0.00222737
-0.000645287
0.00114392
0.00322833
0.00563338
0.00831795
0.0112189
0.0142698
0.0174178
0.0206255
0.0238427
0.0270285
0.0301069
0.0330347
0.0357283
0.0381717
0.0402949
0.0421026
0.0435713
0.0446702
0.0453009
0.0453316
0.044683
0.043292
0.0415569
0.0397131
0.0381619
0.0370443
0.0365096
0.036219
0.0364296
0.0367019
0.0365564
0.0367311
0.0371832
0.0382564
0.0372172
0.0352236
0.0334879
0.0294337
0.0240257
0.02006
0.021609
0.0210725
0.0246847
0.0312044
0.0348878
0.036333
0.0315545
0.01821
0.00294245
-0.00404704
-0.00103171
0.00230288
-0.00048496
-0.00191427
-0.00194553
-0.00109021
0.000116854
0.00136938
0.0025997
0.00387761
0.00532177
0.00701234
0.00897749
0.0111877
0.0135925
0.0161369
0.0187769
0.0214813
0.0242102
0.0269328
0.0295855
0.0321321
0.0345017
0.0366792
0.038598
0.0402502
0.0415974
0.0426114
0.0432275
0.0433639
0.0429985
0.0420987
0.04091
0.0395966
0.038415
0.0374691
0.0369573
0.0365933
0.0366054
0.0367281
0.0365992
0.0367031
0.0369838
0.0377872
0.0371382
0.0355859
0.0341594
0.0308015
0.0264489
0.0230458
0.0240374
0.0234412
0.0255982
0.0306367
0.0347101
0.0346887
0.031906
0.0195803
0.00604613
-0.000150207
0.000222066
0.00715157
0.00472972
0.003444
0.0033357
0.00398516
0.00494506
0.00595058
0.00693529
0.00795221
0.00910101
0.0104537
0.0120392
0.0138375
0.0158088
0.0179081
0.0200985
0.0223555
0.0246469
0.0269488
0.0292087
0.0313978
0.0334567
0.0353676
0.0370734
0.0385586
0.0397839
0.0407228
0.0413318
0.0415621
0.0414114
0.0408707
0.0400915
0.0391729
0.0383065
0.0375373
0.0370751
0.0367037
0.0365888
0.0366054
0.0364721
0.0364977
0.0366304
0.0371246
0.0366852
0.0353895
0.0340702
0.0313938
0.0279745
0.0251081
0.0255086
0.0250165
0.0262012
0.0298168
0.033321
0.0329141
0.0304344
0.0197061
0.00819077
0.00227531
0.00101727
0.0114174
0.00934858
0.00820291
0.0080316
0.00850407
0.00925183
0.0100462
0.0108216
0.0116169
0.0125147
0.0135796
0.0148399
0.0162838
0.0178796
0.0195912
0.0213879
0.0232501
0.0251524
0.027076
0.0289799
0.030839
0.0326053
0.0342574
0.0357515
0.0370685
0.0381715
0.0390374
0.0396359
0.0399384
0.0399468
0.0396627
0.0391829
0.0385596
0.0379458
0.0373433
0.0369408
0.0365978
0.0364091
0.0363461
0.0361956
0.0361437
0.0361484
0.036323
0.0359857
0.034875
0.0336009
0.0314731
0.028833
0.0264289
0.0262896
0.0259353
0.0264849
0.0288151
0.0313693
0.0309561
0.028294
0.019196
0.00958583
0.00385305
0.00145662
0.0152101
0.0134339
0.0124047
0.0121852
0.0125137
0.0130841
0.0136992
0.0142965
0.0149045
0.015591
0.0164131
0.0173978
0.0185395
0.0198134
0.0211902
0.0226449
0.0241615
0.0257212
0.0273084
0.0288926
0.0304507
0.0319457
0.0333549
0.034645
0.0357966
0.0367777
0.0375702
0.0381474
0.0384947
0.0386137
0.0385083
0.0382433
0.0378385
0.0374177
0.0369619
0.0366211
0.0363177
0.0360937
0.0359697
0.0357962
0.0356717
0.0355688
0.0355149
0.0351562
0.034185
0.032971
0.0312369
0.029191
0.0271781
0.0265927
0.0263074
0.0264614
0.0277228
0.0292924
0.0288324
0.0260263
0.0183676
0.0103617
0.00491042
0.00171858
0.0185371
0.0170163
0.0160998
0.0158513
0.0160637
0.0164848
0.0169476
0.0173946
0.0178462
0.0183569
0.0189762
0.0197293
0.0206152
0.021615
0.0227051
0.0238653
0.0250821
0.0263428
0.0276339
0.028934
0.0302213
0.0314686
0.0326533
0.0337507
0.0347435
0.0356035
0.036318
0.0368616
0.0372284
0.0374167
0.037429
0.0373128
0.0370662
0.0367877
0.0364516
0.0361691
0.0359032
0.0356686
0.0354983
0.0352986
0.0351139
0.0349124
0.0347009
0.0342816
0.0334094
0.032285
0.0308195
0.0291881
0.0275134
0.0266994
0.0263214
0.026176
0.0265984
0.0272977
0.0266623
0.0238538
0.0173912
0.0106677
0.0055879
0.00188486
0.0214478
0.0201546
0.0193495
0.0190831
0.0191991
0.0194944
0.0198291
0.0201504
0.0204716
0.0208362
0.0212872
0.0218474
0.0225187
0.0232872
0.0241337
0.0250425
0.0260018
0.0270037
0.0280364
0.0290859
0.0301331
0.0311569
0.0321373
0.0330552
0.0338976
0.0346384
0.0352698
0.0357682
0.0361314
0.0363543
0.036438
0.036419
0.0362827
0.036104
0.035859
0.0356264
0.0353913
0.0351572
0.0349535
0.0347263
0.0344974
0.0342122
0.0338865
0.0334108
0.0326033
0.0315792
0.0303028
0.0289378
0.0275359
0.0265814
0.0260523
0.025683
0.0254897
0.0254546
0.0245705
0.0218588
0.0163735
0.0106427
0.005959
0.0019863
0.0239929
0.0228921
0.022177
0.0219086
0.021954
0.0221482
0.0223762
0.0225925
0.0228057
0.0230508
0.0233635
0.0237646
0.0242572
0.024832
0.0254734
0.0261691
0.0269091
0.0276888
0.0284986
0.0293291
0.0301639
0.0309882
0.0317855
0.0325392
0.0332397
0.0338648
0.0344093
0.034852
0.0351915
0.0354232
0.0355435
0.0355786
0.0355135
0.0354007
0.035221
0.0350262
0.0348142
0.0345833
0.0343544
0.0340962
0.0337986
0.0334803
0.0330807
0.0325653
0.0317992
0.0308619
0.0297295
0.0285243
0.0273186
0.0262902
0.0255878
0.0250269
0.0244028
0.0237982
0.0226472
0.0200692
0.0153704
0.0104002
0.00608709
0.00203335
0.0262142
0.0252803
0.02465
0.0243761
0.0243629
0.0244768
0.0246193
0.0247508
0.0248764
0.0250241
0.0252231
0.0254928
0.0258377
0.0262513
0.0267213
0.0272379
0.0277927
0.0283832
0.0290022
0.0296422
0.0302895
0.0309399
0.0315743
0.0321791
0.0327475
0.0332616
0.0337169
0.0340965
0.0343971
0.0346153
0.034745
0.0348041
0.0347787
0.0347031
0.0345655
0.0343961
0.0341985
0.0339698
0.0337214
0.0334397
0.0331126
0.0327466
0.0322932
0.0317494
0.0310131
0.0301372
0.029117
0.0280078
0.0269183
0.0258659
0.0249972
0.0242542
0.0233466
0.0223247
0.0209307
0.0184851
0.0144071
0.0100242
0.00603728
0.00203177
0.0281404
0.0273496
0.0267933
0.0265198
0.0264575
0.0265029
0.0265776
0.0266443
0.0267039
0.0267779
0.0268807
0.0270422
0.0272658
0.0275466
0.0278744
0.0282419
0.028642
0.0290731
0.0295304
0.0300087
0.0305014
0.0309942
0.0314817
0.0319512
0.0323968
0.0328053
0.0331717
0.0334826
0.0337338
0.0339218
0.0340407
0.0341002
0.0340908
0.0340305
0.0339148
0.0337584
0.0335658
0.0333363
0.0330711
0.0327721
0.0324149
0.0320171
0.0315282
0.0309618
0.0302496
0.0294123
0.0284716
0.027426
0.026389
0.0253341
0.0243342
0.0234175
0.0223265
0.0210199
0.0194224
0.0170902
0.0134983
0.00957322
0.00586754
0.00199039
0.029803
0.0291341
0.0286442
0.0283762
0.0282768
0.0282649
0.0282764
0.0282804
0.0282764
0.0282816
0.0283259
0.0284108
0.0285416
0.0287166
0.0289289
0.0291734
0.0294451
0.0297427
0.0300633
0.030405
0.03076
0.0311204
0.0314794
0.0318287
0.032163
0.0324725
0.032752
0.0329917
0.033187
0.0333332
0.0334263
0.033469
0.0334565
0.0333954
0.0332843
0.0331305
0.0329339
0.0326999
0.0324183
0.032103
0.031722
0.0312982
0.0307877
0.0302024
0.0295069
0.0286942
0.0278008
0.0268013
0.0257794
0.0247198
0.0236323
0.0225609
0.0213424
0.019862
0.0181076
0.015864
0.012655
0.00908848
0.00562378
0.00192078
0.0312322
0.0306673
0.0302362
0.0299762
0.0298492
0.0297931
0.0297572
0.0297163
0.0296688
0.0296275
0.0296085
0.029623
0.029675
0.029763
0.0298813
0.0300257
0.0301922
0.0303802
0.0305878
0.0308135
0.0310521
0.0312979
0.0315452
0.0317881
0.0320223
0.0322402
0.0324374
0.0326058
0.0327416
0.0328392
0.0328961
0.0329105
0.0328802
0.0328061
0.0326864
0.0325254
0.0323176
0.0320738
0.0317764
0.0314439
0.0310443
0.0305975
0.0300729
0.029472
0.028784
0.027988
0.0271178
0.0261489
0.0251271
0.0240518
0.0229102
0.0217172
0.0203993
0.0188272
0.0169681
0.0147875
0.0118815
0.00859995
0.00534135
0.00183399