/*--------------------------------*- C++ -*----------------------------------*\
| =========                 |                                                 |
| \\      /  F ield         | OpenFOAM: The Open Source CFD Toolbox           |
|  \\    /   O peration     | Version:  2312                                  |
|   \\  /    A nd           | Website:  www.openfoam.com                      |
|    \\/     M anipulation  |                                                 |
\*---------------------------------------------------------------------------*/
FoamFile
{
    version     2.0;
    format      ascii;
    arch        "LSB;label=32;scalar=64";
    class       volScalarField;
    location    "39";
    object      p;
}
// * * * * * * * * * * * * * * * * * * * * * * * * * * * * * * * * * * * * * //

dimensions      [0 2 -2 0 0 0 0];

internalField   nonuniform List<scalar> 
9200
(
-0.784909
-0.787065
-0.798159
-0.808729
-0.812684
-0.805815
-0.784159
-0.734173
-0.650258
-0.547115
-0.446413
-0.353929
-0.272748
-0.203485
-0.148372
-0.102964
-0.0639075
-0.0338392
-0.013343
0.00164122
-0.7506
-0.747197
-0.745867
-0.746646
-0.744914
-0.734629
-0.705514
-0.654385
-0.580955
-0.498045
-0.417664
-0.344966
-0.281401
-0.225883
-0.173863
-0.129476
-0.0954334
-0.0655346
-0.0436929
-0.0230597
-0.734549
-0.725964
-0.716146
-0.708809
-0.698195
-0.677199
-0.641674
-0.591645
-0.529703
-0.463942
-0.399104
-0.338166
-0.282768
-0.231639
-0.190192
-0.154755
-0.123792
-0.0989429
-0.0765077
-0.0575465
-0.731916
-0.723548
-0.708175
-0.68958
-0.666415
-0.63566
-0.59632
-0.548812
-0.49666
-0.442133
-0.38833
-0.337187
-0.289173
-0.248059
-0.210203
-0.175194
-0.145256
-0.11856
-0.0963156
-0.0759058
-0.747091
-0.728769
-0.710792
-0.677977
-0.642295
-0.603473
-0.561606
-0.516682
-0.468918
-0.42075
-0.374366
-0.329926
-0.289993
-0.251186
-0.216311
-0.186072
-0.159025
-0.135366
-0.113754
-0.0940799
-0.795141
-0.751484
-0.707183
-0.663065
-0.619247
-0.574815
-0.531543
-0.488253
-0.445158
-0.402376
-0.360494
-0.320522
-0.282564
-0.249247
-0.219026
-0.191536
-0.166755
-0.144808
-0.125444
-0.107379
-0.782309
-0.792278
-0.701796
-0.635402
-0.586999
-0.543773
-0.502128
-0.461422
-0.421632
-0.383556
-0.347747
-0.313278
-0.281549
-0.251147
-0.22242
-0.196349
-0.172454
-0.151024
-0.132093
-0.114507
-0.699238
-0.729071
-0.669564
-0.604898
-0.555992
-0.51426
-0.475723
-0.438131
-0.401204
-0.365319
-0.331177
-0.298968
-0.268588
-0.241407
-0.216281
-0.193192
-0.171699
-0.152177
-0.134756
-0.11912
-0.658597
-0.642184
-0.623228
-0.578615
-0.533698
-0.490313
-0.451223
-0.414537
-0.379613
-0.346432
-0.314382
-0.284242
-0.256277
-0.230982
-0.207032
-0.18579
-0.16616
-0.148334
-0.131936
-0.117346
-0.664646
-0.632626
-0.605521
-0.556106
-0.509521
-0.464982
-0.424632
-0.387935
-0.354427
-0.323192
-0.294307
-0.267056
-0.241295
-0.218446
-0.196461
-0.176714
-0.158555
-0.142195
-0.127151
-0.112949
-0.588116
-0.580934
-0.598243
-0.629431
-0.676363
-0.744898
-0.838351
-0.955491
-1.10508
-1.28392
-1.47246
-1.6591
-1.82385
-1.96496
-2.0544
-2.07665
-2.03212
-1.92346
-1.76119
-1.52011
-0.59964
-0.59695
-0.613878
-0.645522
-0.691462
-0.753139
-0.835948
-0.935596
-1.05299
-1.18542
-1.32927
-1.47346
-1.5989
-1.6973
-1.75238
-1.75695
-1.70599
-1.61149
-1.46936
-1.26178
-0.598831
-0.607939
-0.631324
-0.672313
-0.72039
-0.773208
-0.83385
-0.899255
-0.967447
-1.03879
-1.11682
-1.19044
-1.25155
-1.29107
-1.29597
-1.26617
-1.20145
-1.10708
-0.985112
-0.839666
-0.620358
-0.635031
-0.663446
-0.703933
-0.752561
-0.800895
-0.84397
-0.876149
-0.894354
-0.903538
-0.910913
-0.911757
-0.905092
-0.87934
-0.8259
-0.757864
-0.688287
-0.609787
-0.523161
-0.427967
-0.630215
-0.676876
-0.729667
-0.77909
-0.820533
-0.854672
-0.874288
-0.870404
-0.842743
-0.798809
-0.745913
-0.688875
-0.630074
-0.562367
-0.469787
-0.360014
-0.309871
-0.24568
-0.191076
-0.130602
-0.741884
-0.764251
-0.806831
-0.856542
-0.897638
-0.920649
-0.918738
-0.885761
-0.821784
-0.734176
-0.633091
-0.532909
-0.437444
-0.36439
-0.277913
-0.116338
-0.0889144
-0.0392049
0.0122614
0.0419351
-0.793469
-0.822118
-0.871175
-0.918996
-0.955847
-0.973391
-0.962675
-0.913722
-0.823224
-0.699744
-0.561623
-0.434549
-0.309013
-0.21987
-0.178325
-0.00142376
0.0154758
0.0187469
0.104918
0.0909123
-0.841855
-0.866054
-0.913075
-0.95448
-0.983687
-0.993361
-0.97603
-0.920069
-0.816236
-0.677486
-0.519986
-0.380667
-0.253221
-0.150135
-0.0976792
0.0552911
0.0833636
0.0499408
0.127729
0.0964638
-0.849141
-0.869167
-0.905721
-0.938241
-0.956092
-0.957884
-0.9404
-0.889332
-0.791926
-0.655272
-0.50904
-0.373471
-0.254464
-0.152895
-0.087756
0.0169187
0.0793807
0.0531932
0.0916097
0.0941028
-0.825937
-0.83883
-0.862812
-0.883468
-0.893177
-0.889561
-0.871086
-0.821133
-0.729364
-0.605452
-0.475881
-0.358672
-0.26028
-0.184356
-0.115904
-0.0618635
-0.0246832
0.00181479
0.0247038
0.0343546
-1.17684
-0.830678
-0.580177
-0.421814
-0.325705
-0.269244
-0.235942
-0.216084
-0.207243
-0.190943
-0.142698
-0.103017
-0.0840785
-0.0732896
-0.0724327
-0.0803156
-0.0948678
-0.122986
-0.179891
-0.343153
-0.708685
-1.15836
-1.34184
-1.11255
-0.679766
-0.279505
-0.0658824
-0.0322999
-0.034806
0.020065
0.0565461
0.00714578
-0.162093
-0.411006
-0.543579
-0.452589
-0.261868
-0.108928
-0.0319943
-0.012376
-0.0172652
-0.0282081
-0.0344133
-0.037213
-0.0332325
-0.024984
-0.0158946
-0.0088085
-0.00400857
-0.000891968
-0.968051
-0.715349
-0.535189
-0.428377
-0.372701
-0.350519
-0.352953
-0.364323
-0.377182
-0.342358
-0.278863
-0.197614
-0.151522
-0.120855
-0.10487
-0.102199
-0.111213
-0.141492
-0.190882
-0.339623
-0.67184
-1.08317
-1.26937
-1.07788
-0.678695
-0.303718
-0.112058
-0.0813474
-0.0770063
-0.0107702
0.0127383
-0.0309773
-0.174409
-0.41059
-0.548051
-0.468837
-0.280871
-0.128763
-0.0514618
-0.030113
-0.0316866
-0.0388204
-0.0413478
-0.0412837
-0.035073
-0.02566
-0.0158026
-0.00833838
-0.00369418
-0.000873995
-0.662458
-0.547117
-0.45136
-0.411498
-0.409412
-0.430984
-0.483696
-0.544008
-0.584115
-0.545802
-0.460393
-0.320601
-0.235319
-0.177724
-0.1373
-0.124945
-0.125091
-0.146084
-0.19702
-0.304209
-0.563074
-0.917063
-1.10139
-0.969039
-0.647802
-0.332473
-0.184278
-0.15091
-0.142282
-0.0922863
-0.0432641
-0.0680269
-0.182876
-0.394001
-0.531091
-0.469056
-0.293114
-0.147787
-0.0731415
-0.0510389
-0.0479943
-0.050822
-0.0490593
-0.0457763
-0.0372481
-0.0266304
-0.0159462
-0.00803428
-0.00344354
-0.000858804
-0.339285
-0.359668
-0.335246
-0.369839
-0.417995
-0.492885
-0.610523
-0.730828
-0.816906
-0.795178
-0.677712
-0.469745
-0.327468
-0.239279
-0.173982
-0.145842
-0.136546
-0.143779
-0.176882
-0.259691
-0.446716
-0.717876
-0.907694
-0.823565
-0.587171
-0.361997
-0.246824
-0.230771
-0.215319
-0.148135
-0.0971685
-0.101633
-0.18156
-0.363165
-0.495587
-0.452416
-0.299175
-0.165913
-0.0969832
-0.0754792
-0.066178
-0.0649253
-0.0579051
-0.0507246
-0.0396791
-0.0277436
-0.0162641
-0.00790372
-0.00328634
-0.000852568
-0.0930494
-0.164966
-0.196036
-0.275456
-0.363533
-0.493928
-0.683806
-0.88478
-1.022
-1.05209
-0.896229
-0.634579
-0.427291
-0.298982
-0.212432
-0.167499
-0.146502
-0.138909
-0.15229
-0.191535
-0.315567
-0.49857
-0.660652
-0.642911
-0.508642
-0.368846
-0.303967
-0.325838
-0.30136
-0.213937
-0.143204
-0.123527
-0.174685
-0.320301
-0.443107
-0.417217
-0.292795
-0.1813
-0.122436
-0.103899
-0.08789
-0.0821754
-0.0683762
-0.0562905
-0.0425115
-0.0290467
-0.0167357
-0.0078875
-0.00319218
-0.000853101
0.0627298
0.000546385
-0.051209
-0.14232
-0.252525
-0.414477
-0.646756
-0.904777
-1.09977
-1.17082
-1.04152
-0.770596
-0.52157
-0.356569
-0.247744
-0.185002
-0.155375
-0.13716
-0.138341
-0.16247
-0.22346
-0.328955
-0.453166
-0.465303
-0.421108
-0.361171
-0.364833
-0.397513
-0.370007
-0.262333
-0.181209
-0.140597
-0.161164
-0.272517
-0.379002
-0.370089
-0.279122
-0.1937
-0.149131
-0.136814
-0.116265
-0.10357
-0.0808432
-0.0624974
-0.045694
-0.0304917
-0.0173447
-0.00796664
-0.00314933
-0.000861676
0.119233
0.092162
0.0540842
-0.0142795
-0.106452
-0.250525
-0.474595
-0.755166
-1.00574
-1.14701
-1.1044
-0.891131
-0.625205
-0.41438
-0.279333
-0.196268
-0.155443
-0.128392
-0.11978
-0.138375
-0.168042
-0.21705
-0.297507
-0.323811
-0.327295
-0.343725
-0.381791
-0.45484
-0.443627
-0.320418
-0.217289
-0.157592
-0.148521
-0.224534
-0.310907
-0.31625
-0.256524
-0.201589
-0.177835
-0.174526
-0.14992
-0.129212
-0.0954056
-0.0694648
-0.0492611
-0.0320238
-0.0180382
-0.0080936
-0.00314101
-0.000884492
0.12759
0.12407
0.107007
0.0652499
-0.00289093
-0.107421
-0.27583
-0.518107
-0.779258
-0.991007
-1.0132
-0.872396
-0.639843
-0.429179
-0.282493
-0.19809
-0.152438
-0.113127
-0.0973971
-0.112113
-0.121219
-0.135325
-0.183793
-0.209687
-0.23166
-0.296679
-0.398091
-0.498361
-0.49596
-0.367472
-0.252343
-0.174756
-0.141395
-0.181283
-0.245357
-0.258359
-0.230209
-0.207323
-0.20775
-0.216103
-0.198583
-0.158447
-0.111876
-0.0771961
-0.0532372
-0.03368
-0.0188482
-0.00825775
-0.0031561
-0.000916412
0.111423
0.132276
0.134723
0.120828
0.0729602
0.00434223
-0.11408
-0.292502
-0.519921
-0.750804
-0.891812
-0.834218
-0.674504
-0.478792
-0.31463
-0.20983
-0.159098
-0.114481
-0.0863139
-0.089011
-0.0871004
-0.0855676
-0.114342
-0.122452
-0.140542
-0.234636
-0.380703
-0.51909
-0.560827
-0.43074
-0.291141
-0.196348
-0.139421
-0.14966
-0.188853
-0.20307
-0.201258
-0.207797
-0.236848
-0.260483
-0.23805
-0.189903
-0.130533
-0.0861585
-0.0578228
-0.0356243
-0.0198682
-0.00851005
-0.00322235
-0.000967084
0.0540187
0.0754868
0.0968671
0.114687
0.109842
0.0721543
0.00888333
-0.0999143
-0.259936
-0.435032
-0.585525
-0.610501
-0.55697
-0.437862
-0.317894
-0.224296
-0.16653
-0.119724
-0.0860645
-0.073585
-0.0601722
-0.0518173
-0.0689162
-0.0781201
-0.0782849
-0.156985
-0.346441
-0.546572
-0.603796
-0.495494
-0.341616
-0.215019
-0.134155
-0.122351
-0.143335
-0.152345
-0.168872
-0.203573
-0.262815
-0.305676
-0.290301
-0.224503
-0.150464
-0.0956586
-0.0621698
-0.0374401
-0.0207721
-0.00872886
-0.00332339
-0.00104242
0.047749
0.0672242
0.0787688
0.0912421
0.0960957
0.0864716
0.0561472
-0.0138015
-0.132472
-0.288041
-0.437599
-0.497772
-0.439236
-0.346197
-0.255827
-0.188802
-0.143552
-0.0972849
-0.0663325
-0.0553378
-0.0377713
-0.0261031
-0.0344503
-0.0328101
-0.0140159
-0.070103
-0.270518
-0.512068
-0.620647
-0.526098
-0.352737
-0.206413
-0.116199
-0.0969229
-0.106828
-0.108908
-0.133619
-0.191619
-0.281473
-0.349605
-0.346249
-0.25488
-0.166496
-0.102521
-0.0651158
-0.038535
-0.0212724
-0.00879314
-0.00336583
-0.00109758
0.030491
0.0532038
0.0655279
0.0770437
0.0827115
0.0745286
0.0495443
0.00185697
-0.0905173
-0.22021
-0.329864
-0.368909
-0.32655
-0.261656
-0.198906
-0.15012
-0.118101
-0.0803318
-0.0504285
-0.0373741
-0.0171276
-0.00504383
-0.0100913
-5.69514e-05
0.0246317
-0.0122155
-0.203253
-0.484051
-0.630363
-0.531704
-0.348478
-0.192968
-0.0993488
-0.0719618
-0.0742764
-0.0697355
-0.100516
-0.177182
-0.301489
-0.395236
-0.387617
-0.285604
-0.182778
-0.109295
-0.0680481
-0.0397125
-0.0218494
-0.00894026
-0.00343814
-0.00114995
0.0153677
0.0383028
0.0537352
0.0631289
0.0659045
0.0571596
0.0366334
-0.000523552
-0.0634042
-0.142399
-0.211083
-0.239731
-0.227102
-0.195976
-0.159677
-0.122249
-0.0913472
-0.059224
-0.0356249
-0.0236249
-0.00311045
0.0138939
0.0129986
0.0195777
0.0539389
0.0265104
-0.166594
-0.456129
-0.604781
-0.519497
-0.332267
-0.17259
-0.0816335
-0.0515219
-0.0467532
-0.0372046
-0.0707506
-0.164718
-0.326749
-0.445603
-0.437786
-0.319437
-0.200428
-0.116272
-0.0709702
-0.0408966
-0.0224271
-0.00912908
-0.00352628
-0.00120816
0.00562568
0.0244031
0.0390958
0.0470149
0.0489328
0.041985
0.0278248
0.00500358
-0.0281459
-0.0761359
-0.126348
-0.161553
-0.161771
-0.142792
-0.115472
-0.0901402
-0.0653097
-0.0400327
-0.024205
-0.0120762
0.00909761
0.0268743
0.028762
0.0391221
0.0777511
0.0516037
-0.132857
-0.397301
-0.544339
-0.466553
-0.291256
-0.146573
-0.0625366
-0.032427
-0.0242589
-0.0079723
-0.0443608
-0.157005
-0.355759
-0.49986
-0.490026
-0.354743
-0.218613
-0.123025
-0.0737528
-0.0420222
-0.0229916
-0.0093477
-0.00361773
-0.00126081
-0.000522306
0.0127586
0.0251321
0.0327371
0.0352208
0.0321443
0.0236007
0.0101237
-0.0104562
-0.0440719
-0.0765844
-0.0999425
-0.106833
-0.0985502
-0.0859181
-0.0717169
-0.0543705
-0.034282
-0.015064
0.00257539
0.0217601
0.0389281
0.0406635
0.0485481
0.0939784
0.074187
-0.0845805
-0.310763
-0.435059
-0.378269
-0.230072
-0.114225
-0.0510137
-0.0159055
-0.00315264
0.0176476
-0.0207527
-0.148574
-0.384876
-0.555133
-0.543783
-0.390026
-0.236357
-0.1292
-0.0761866
-0.0429693
-0.0235281
-0.00962438
-0.00373407
-0.00131709
-0.00397971
0.00560123
0.0155358
0.0222085
0.0249786
0.0232434
0.0169953
0.00899009
-0.00432221
-0.0242988
-0.0452824
-0.0655191
-0.0732246
-0.0689076
-0.0603136
-0.0465025
-0.0311322
-0.0178827
-0.0036548
0.00653628
0.0193144
0.0295921
0.0367775
0.0429903
0.0843756
0.0763247
-0.0428139
-0.208072
-0.317114
-0.280853
-0.16032
-0.0690162
-0.0192893
-0.00160136
0.0114117
0.0382791
0.00017876
-0.139626
-0.411974
-0.607346
-0.591398
-0.421233
-0.251045
-0.133991
-0.0779364
-0.0436401
-0.0240032
-0.00990764
-0.00385385
-0.0013741
-0.00386612
0.00220977
0.00916187
0.0141289
0.0161038
0.0152415
0.0116151
0.00719865
-0.000289113
-0.0127146
-0.0274045
-0.0394485
-0.0461744
-0.0446716
-0.0395386
-0.0332059
-0.024793
-0.013165
0.000613873
0.0113361
0.0245324
0.0417546
0.0356623
0.0399144
0.0618481
0.0652669
-0.0102272
-0.107519
-0.19173
-0.191598
-0.114568
-0.0584353
-0.035497
-0.00300677
0.0211051
0.0569813
0.020423
-0.128257
-0.432242
-0.652118
-0.631388
-0.446098
-0.260733
-0.136304
-0.0783391
-0.0437525
-0.0243364
-0.0102358
-0.00402521
-0.00141632
-0.00386851
-7.69914e-05
0.00469879
0.00830007
0.00985584
0.00969661
0.00817613
0.00546905
0.0011332
-0.00645648
-0.0155881
-0.0232768
-0.028764
-0.0292953
-0.0263169
-0.0201293
-0.0111268
-0.00229163
0.00809817
0.0149749
0.0241431
0.0378333
0.0367047
0.0386662
0.0517988
0.0572501
0.0177991
-0.037094
-0.0917581
-0.12221
-0.0586707
-0.00261331
-0.0180422
-0.00741651
0.00503207
0.039624
0.0309939
-0.118161
-0.444883
-0.681559
-0.657836
-0.460869
-0.265165
-0.136551
-0.0774607
-0.04316
-0.0242906
-0.0103824
-0.00412961
-0.00150079
-0.00350301
-0.000850597
0.0024413
0.00479426
0.00606061
0.00606716
0.00581593
0.00431116
0.00183611
-0.00216722
-0.00817373
-0.012885
-0.0164027
-0.0172727
-0.014267
-0.00963112
-0.0051487
0.00213681
0.0101718
0.0160517
0.0266127
0.0376021
0.0392614
0.040889
0.0521691
0.0542919
0.0341045
-0.0117481
-0.0567554
-0.0846642
-0.0630192
-0.0259835
0.00904845
0.0391604
0.0404341
0.0778877
0.0472581
-0.108035
-0.441486
-0.685842
-0.66064
-0.458385
-0.261532
-0.13531
-0.0766042
-0.0428179
-0.0243289
-0.010601
-0.00423362
-0.00147207
-0.00174444
-0.000573147
0.00145102
0.00280933
0.00382835
0.00391919
0.00426288
0.00392877
0.00259202
0.000746769
-0.00289101
-0.00561748
-0.00778941
-0.0084391
-0.00665595
-0.00363256
0.000250525
0.0067981
0.0132999
0.0175906
0.0259197
0.0327409
0.0354464
0.036546
0.0418134
0.0447144
0.0314943
0.00602787
-0.0165636
-0.0503956
-0.0399306
-0.0309361
-0.0150464
-0.0125029
-0.0124414
0.041365
0.0454533
-0.10126
-0.420731
-0.654544
-0.62756
-0.432524
-0.246031
-0.129497
-0.074414
-0.042479
-0.0242678
-0.0108953
-0.00445138
-0.00160891
-0.000294493
7.74887e-05
0.00131341
0.00218548
0.00283444
0.00305719
0.00349828
0.00394965
0.00340681
0.00283651
0.000932635
-0.000726214
-0.00172301
-0.00261004
-0.00105454
0.00185529
0.00464829
0.00966824
0.0143771
0.0171049
0.0242265
0.0287401
0.0293462
0.0318313
0.0336636
0.0317602
0.0252766
0.0103919
-0.0263445
-0.0449371
-0.0484222
-0.037409
-0.010189
0.00118007
-0.0206275
0.0193166
0.0367906
-0.0982302
-0.374596
-0.575572
-0.554648
-0.383283
-0.221416
-0.120197
-0.0703139
-0.0409928
-0.023261
-0.0107273
-0.0045097
-0.00156956
0.00107169
0.00125607
0.00195342
0.00251714
0.00276608
0.00307468
0.00347691
0.00416406
0.00430778
0.0043145
0.00360818
0.00275103
0.00235605
0.00192166
0.00332506
0.00547586
0.00750499
0.0116913
0.0149166
0.0169118
0.0225577
0.0255802
0.0254721
0.0275132
0.0282715
0.0248161
0.0187412
0.00967046
-0.0155631
-0.0356588
-0.0347831
-0.0273863
-0.0163592
-0.0488588
-0.0740766
-0.0436599
-0.00153293
-0.106748
-0.30324
-0.460499
-0.444464
-0.31204
-0.187239
-0.110625
-0.0682752
-0.0412445
-0.0235801
-0.0110828
-0.00454356
-0.00159344
0.00263633
0.0026414
0.00297291
0.00335934
0.00345514
0.00371588
0.00397613
0.00468645
0.00521677
0.00551996
0.00556605
0.00520623
0.00523626
0.00522468
0.00621095
0.00791194
0.00966788
0.0127681
0.0151266
0.0166887
0.0203736
0.0229416
0.023258
0.0242519
0.0245995
0.0213583
0.0166083
0.0112123
-0.00471639
-0.0210252
-0.0243825
-0.0289988
-0.0271989
-0.05424
-0.0696822
-0.0664129
-0.0632276
-0.116921
-0.217492
-0.317363
-0.321342
-0.236299
-0.147528
-0.0915003
-0.0581379
-0.0361954
-0.0219591
-0.0111307
-0.00486346
-0.00163619
0.004061
0.00406941
0.00429808
0.00462674
0.00463299
0.00468711
0.00488589
0.00548258
0.00615395
0.00663438
0.00701981
0.00702708
0.00720729
0.00735757
0.00817933
0.00961219
0.0109753
0.0133126
0.0150399
0.0160663
0.0185396
0.0206845
0.0212823
0.0212736
0.0214001
0.0195703
0.0151738
0.0108473
0.0013266
-0.011318
-0.014003
-0.00738095
-0.012206
-0.0306785
-0.0513788
-0.0572572
-0.0805978
-0.102492
-0.12347
-0.180638
-0.204924
-0.170354
-0.119039
-0.0791899
-0.0510946
-0.0317199
-0.0197141
-0.0101506
-0.00460492
-0.00161982
0.00559078
0.00559278
0.00580397
0.00607953
0.00604173
0.00595322
0.0060073
0.00643019
0.00712864
0.00769253
0.00821148
0.00837108
0.00853403
0.008799
0.00944026
0.0105598
0.0117811
0.013475
0.0145779
0.0153392
0.016893
0.0183552
0.0190606
0.0187555
0.018322
0.0169113
0.0134602
0.0100852
0.00480824
-0.0036338
-0.00676374
-0.00467113
-0.00794545
-0.0155545
-0.0286195
-0.0282911
-0.0583468
-0.057473
-0.0458975
-0.0883239
-0.12644
-0.117108
-0.0890109
-0.0654293
-0.04786
-0.0326557
-0.0193259
-0.00987307
-0.0041771
-0.00142806
0.00709751
0.00707167
0.00730477
0.00758651
0.00756928
0.0073344
0.00720629
0.00748884
0.00810619
0.00868589
0.0091965
0.00936838
0.00950094
0.00974019
0.010208
0.0111493
0.0121249
0.0133138
0.0140818
0.0144283
0.0153519
0.0163779
0.0169289
0.0164905
0.0156021
0.0146151
0.0121475
0.00905238
0.00541514
3.62428e-05
-0.00293668
-0.00106128
-0.00124227
-0.00659978
-0.0145241
-0.0131281
-0.0266299
-0.0172478
-0.0108748
-0.0424281
-0.0742085
-0.0784425
-0.0645419
-0.0482526
-0.0342558
-0.0233749
-0.0158499
-0.0090154
-0.00434929
-0.0014939
0.00849767
0.0084692
0.00873349
0.00903747
0.00901817
0.00869399
0.00843717
0.00857909
0.00906877
0.00959079
0.0100158
0.0101761
0.0102532
0.0103887
0.0107642
0.0114943
0.0122567
0.0131018
0.0134969
0.0135586
0.0141134
0.0147037
0.0150229
0.0146325
0.0136339
0.0127115
0.0108514
0.00836768
0.00609727
0.00250905
-0.000490696
-5.48616e-05
-0.000329102
-0.00390008
-0.00777566
-0.00598433
-0.00701119
-0.000983249
0.00158572
-0.020819
-0.0442773
-0.0517833
-0.047728
-0.0415807
-0.0335946
-0.0246508
-0.0157094
-0.00836825
-0.0038567
-0.00136024
0.00976064
0.00972969
0.0100037
0.0103261
0.0103415
0.0100225
0.00968213
0.00965501
0.00996843
0.0103995
0.0107561
0.0108452
0.0108229
0.0108985
0.0111754
0.011685
0.0122519
0.0128149
0.0129896
0.0128549
0.0130354
0.0134199
0.0136064
0.0131248
0.0121166
0.0112726
0.0100738
0.00823894
0.00624329
0.00365936
0.00139764
0.00122854
0.000752252
-0.00175768
-0.00398057
-0.00269942
-0.00144496
0.003419
0.00433837
-0.0105252
-0.0272109
-0.0349926
-0.0337887
-0.028743
-0.0219935
-0.0160614
-0.0112153
-0.0066486
-0.00325492
-0.00110756
0.0109302
0.0109101
0.0111816
0.0115029
0.0115173
0.011185
0.0107941
0.0106577
0.010838
0.0111629
0.0114051
0.0113958
0.0113244
0.0113235
0.0114654
0.0118063
0.0122044
0.0125879
0.0125811
0.0122578
0.0122487
0.0124815
0.0124691
0.0119566
0.011152
0.0104331
0.009497
0.00798
0.00635152
0.00463314
0.00293948
0.00224516
0.00164024
-5.52871e-06
-0.00134619
-0.000634363
0.000769825
0.00367047
0.00352001
-0.00580492
-0.0168428
-0.0220929
-0.0235994
-0.0233092
-0.0205506
-0.0162601
-0.0112548
-0.00661464
-0.00331017
-0.00116651
0.0120295
0.0119836
0.0122174
0.0125104
0.0125277
0.0122133
0.0118107
0.0115961
0.0116458
0.0118458
0.0119785
0.0118838
0.011737
0.0116638
0.011739
0.0119434
0.0121717
0.0123993
0.0122664
0.0118459
0.0116757
0.0117643
0.0116897
0.0111946
0.0104881
0.00980844
0.00901574
0.00790884
0.00666276
0.00530223
0.00394164
0.0031949
0.00256411
0.00137261
0.000546186
0.000747842
0.00140711
0.00295014
0.0024788
-0.00331054
-0.0110132
-0.0155811
-0.0167821
-0.0163412
-0.0136024
-0.0104713
-0.00748375
-0.00452689
-0.00232767
-0.000815893
0.0130068
0.0129412
0.0131439
0.0134035
0.0134006
0.0130755
0.0126643
0.0124161
0.01239
0.0124807
0.0124916
0.0123081
0.0121239
0.0120298
0.012023
0.0120755
0.0121563
0.0122724
0.0120716
0.0115667
0.0112833
0.011313
0.0111815
0.0106524
0.0100177
0.00944156
0.00880321
0.00795283
0.00690344
0.00577442
0.00475049
0.00405196
0.00335717
0.00248258
0.00187708
0.00163439
0.00176322
0.00253049
0.00187753
-0.00185476
-0.00564544
-0.00897275
-0.0107883
-0.0116522
-0.0108126
-0.00910722
-0.00672793
-0.00421143
-0.00218466
-0.000753974
0.0138667
0.0137761
0.0139349
0.0141542
0.0141474
0.0138485
0.0134464
0.0131522
0.0130388
0.0130354
0.0129654
0.0127262
0.0125022
0.0123594
0.0122778
0.0122205
0.0121841
0.0122183
0.0119782
0.0114291
0.0110782
0.0110419
0.0108498
0.0103284
0.00977005
0.00927076
0.00871229
0.00799249
0.00713181
0.00621522
0.00537279
0.0047394
0.00407394
0.00331378
0.0027764
0.00236553
0.00213975
0.00230884
0.00155181
-0.000928232
-0.00380827
-0.00590567
-0.00742611
-0.00828255
-0.00755992
-0.00616217
-0.00450888
-0.00284211
-0.00157571
-0.000556707
0.014659
0.0145411
0.0146537
0.0148292
0.0148007
0.0144945
0.0140782
0.0137548
0.0135998
0.0135429
0.013406
0.0131018
0.0128317
0.0126647
0.0125504
0.0124141
0.0122762
0.0122322
0.011972
0.0114091
0.0109984
0.0109008
0.0106783
0.0101765
0.00966177
0.00920306
0.00870126
0.00808658
0.00737356
0.00658899
0.00586172
0.00531166
0.00465982
0.00395082
0.00348064
0.00296198
0.00248714
0.00236572
0.00160917
-0.000180948
-0.0020002
-0.00331031
-0.00454679
-0.00531265
-0.00499084
-0.00428438
-0.00325512
-0.00207897
-0.00110201
-0.000363084
0.0153745
0.015213
0.0152584
0.0153702
0.0153117
0.0150141
0.014618
0.0142956
0.0141103
0.013995
0.0137926
0.0134493
0.0131681
0.0129928
0.0128374
0.0126148
0.0123957
0.012299
0.0120263
0.0114602
0.0110214
0.0108819
0.0106256
0.0101398
0.0096569
0.00922517
0.00876541
0.00821814
0.00760058
0.00692008
0.00627156
0.00576169
0.00514101
0.00448411
0.00402523
0.00344711
0.0029018
0.00261722
0.00184431
0.000536561
-0.000576224
-0.00148166
-0.00253297
-0.00321246
-0.00305677
-0.00265146
-0.001982
-0.00129942
-0.000790572
-0.000245327
0.0159865
0.0157875
0.0157782
0.0158388
0.0157579
0.0154656
0.0150749
0.0147385
0.0145283
0.0143831
0.0141436
0.0137737
0.0134733
0.0132817
0.013107
0.0128273
0.0125403
0.0124031
0.0121286
0.011574
0.0111238
0.0109406
0.01065
0.0101789
0.0097196
0.00930557
0.00886787
0.00836442
0.00782099
0.00721035
0.00661318
0.00613755
0.00553556
0.00492063
0.00446904
0.00387037
0.00330977
0.00294575
0.00219459
0.00117336
0.00043785
-0.000209752
-0.00104959
-0.00158117
-0.00153007
-0.00135756
-0.000992782
-0.000596527
-0.000278019
-7.99251e-05
0.0165484
0.0163042
0.016216
0.0162079
0.0161019
0.0158254
0.0154497
0.0151028
0.0148661
0.0147018
0.0144585
0.0140872
0.0137631
0.01354
0.0133531
0.0130566
0.0127202
0.0125169
0.012249
0.0117355
0.0112762
0.011036
0.0107278
0.010283
0.00983248
0.00942042
0.00899838
0.00852541
0.00803065
0.00747094
0.00690619
0.00644376
0.00585872
0.00528925
0.00484315
0.00424706
0.00371092
0.00329611
0.00257513
0.00179383
0.00130816
0.000780285
7.00533e-05
-0.000364776
-0.000367122
-0.000335835
-0.00016877
-8.76251e-05
-7.18702e-05
5.66426e-05
0.0170289
0.0167455
0.0165666
0.0164768
0.0163557
0.0161204
0.0157755
0.0154092
0.0151323
0.0149444
0.0147147
0.0143711
0.0140207
0.0137545
0.0135488
0.0132621
0.0129187
0.0126367
0.0123456
0.0119069
0.0114547
0.0111456
0.0108192
0.0103951
0.00995586
0.009548
0.00913414
0.00867894
0.00821648
0.00768458
0.00715233
0.00668781
0.00611297
0.00559674
0.00514336
0.0045606
0.00405552
0.00362304
0.00294126
0.0023092
0.00193847
0.00149283
0.000933785
0.000612367
0.000542344
0.00046066
0.000442099
0.000326704
0.000274371
0.000115174
0.0174253
0.017097
0.0168378
0.0166887
0.0165623
0.0163616
0.0160339
0.0156433
0.0153369
0.0151509
0.0149441
0.0146162
0.014234
0.013939
0.0137376
0.0134627
0.0131078
0.0127556
0.0124584
0.0120754
0.0116273
0.0112651
0.0109377
0.0105237
0.010086
0.00970921
0.0092756
0.00881998
0.00838183
0.00787001
0.00735268
0.00688585
0.00632552
0.00585012
0.00539373
0.00483554
0.00434656
0.00389682
0.00327071
0.00274922
0.00244359
0.00202481
0.00156066
0.00125319
0.00116767
0.00108556
0.00102965
0.000647701
0.000462272
0.000309338
0.0176192
0.0172573
0.016978
0.0168394
0.0167433
0.0165457
0.0161762
0.0157544
0.0154633
0.0153183
0.0151327
0.0147586
0.0143183
0.0140241
0.0138533
0.0135839
0.0131133
0.012729
0.0125322
0.012199
0.01169
0.0113284
0.0110036
0.0105488
0.0100872
0.00966425
0.0093043
0.00887754
0.00846324
0.00797601
0.00748068
0.00699252
0.00646892
0.00602218
0.0055448
0.0050225
0.00454511
0.004087
0.00350658
0.00304945
0.00277559
0.00237713
0.00196433
0.0017143
0.00162
0.0014566
0.00124983
0.000792817
0.000558831
0.000322486
0.0177919
0.0173563
0.0170698
0.0169836
0.0169368
0.0167369
0.016285
0.0158122
0.0155585
0.0154799
0.0153182
0.0148638
0.0143589
0.0140965
0.0139833
0.0137421
0.0131813
0.0127346
0.012645
0.0123445
0.0117539
0.0114047
0.0111226
0.0106362
0.0101685
0.00979081
0.0094009
0.00896149
0.00854488
0.0080607
0.00758272
0.00709395
0.00657951
0.00613235
0.00565021
0.00514233
0.00466629
0.00423193
0.00369457
0.00323132
0.0029698
0.00261517
0.00220254
0.00199732
0.00195701
0.00178412
0.00148709
0.000969911
0.000826497
0.000566007
-0.0998977
-0.102508
-0.102547
-0.0959527
-0.0878378
-0.0745644
-0.0552009
-0.038729
-0.00546495
0.0167637
-0.0866747
-0.0866424
-0.0849728
-0.078293
-0.0700839
-0.0617372
-0.0447243
-0.030972
-0.0137107
0.00177851
-0.0729856
-0.0722356
-0.0698001
-0.0645976
-0.0585101
-0.0530713
-0.0414131
-0.0327521
-0.0207973
-0.00648629
-0.0608039
-0.0605098
-0.0580089
-0.0542903
-0.0493142
-0.0439799
-0.0363035
-0.0286211
-0.0175965
-0.0072011
-0.0504633
-0.0500745
-0.0471807
-0.0440354
-0.0394539
-0.0347377
-0.0279807
-0.0212477
-0.0130264
-0.00786715
-0.0416503
-0.0408658
-0.037792
-0.035163
-0.0308353
-0.0267008
-0.0207581
-0.0172331
-0.0129001
-0.00966317
-0.0331068
-0.0326035
-0.0294467
-0.0270016
-0.0234857
-0.0207032
-0.0173405
-0.0155189
-0.0115938
-0.00795215
-0.0255506
-0.0251957
-0.0223501
-0.0202552
-0.0184124
-0.0164772
-0.0136638
-0.011128
-0.00723016
-0.00523053
-0.0188638
-0.0185828
-0.0166397
-0.0148464
-0.013631
-0.0115769
-0.00854953
-0.0069579
-0.00531759
-0.00449006
-0.0131284
-0.0127855
-0.0117556
-0.0101778
-0.00906
-0.0075947
-0.00560806
-0.00492869
-0.00378565
-0.0023997
-0.00818875
-0.007737
-0.00740391
-0.0064299
-0.00556392
-0.00450267
-0.00282779
-0.00180603
-0.000983476
-0.000380741
-0.0040019
-0.00346288
-0.00348512
-0.00311271
-0.00235143
-0.00131975
3.54268e-05
0.000648028
0.000827161
0.000933643
-0.00039603
0.000120917
9.85426e-06
-4.56326e-05
0.000404633
0.00117192
0.00211824
0.00249832
0.0026679
0.002662
0.00281021
0.0031237
0.00296029
0.00262827
0.00277599
0.00331912
0.00411491
0.0044078
0.004431
0.00424491
0.00568419
0.00575228
0.0054753
0.00499148
0.00492367
0.00524315
0.00580259
0.00596738
0.00591577
0.00576641
0.00819678
0.00810755
0.0076647
0.00703136
0.00677915
0.00692084
0.00729057
0.00745294
0.00741962
0.00729262
0.0103015
0.0101624
0.00959735
0.00884145
0.0084507
0.00848226
0.00873741
0.00887506
0.00883199
0.00869481
0.0120419
0.0119109
0.0113061
0.0104879
0.00998769
0.00993579
0.0101149
0.0102095
0.0101352
0.009965
0.0135162
0.0133945
0.0128107
0.0119831
0.0114048
0.0112561
0.0113527
0.0114
0.0112987
0.0111209
0.014772
0.0146362
0.0140833
0.0132769
0.0126539
0.0124321
0.0124812
0.012522
0.0124304
0.0122416
0.015827
0.0156602
0.0151501
0.0144089
0.0137968
0.0135429
0.0135601
0.013589
0.0134789
0.0132497
0.0167205
0.0165293
0.0160696
0.0154115
0.0148355
0.0145575
0.0145279
0.0145211
0.0143842
0.0141291
0.0174747
0.0172583
0.0168386
0.0162569
0.0157267
0.0154369
0.0153628
0.0153258
0.0151853
0.0149306
0.0181063
0.0178608
0.0174722
0.0169638
0.0164948
0.0162188
0.0161218
0.0160659
0.0159239
0.0156659
0.0186347
0.0183697
0.0180089
0.0175646
0.0171559
0.0168962
0.0167771
0.0167005
0.0165548
0.0162942
0.0190521
0.0187833
0.0184703
0.0180925
0.0177269
0.0174631
0.0173116
0.0172199
0.0170916
0.0168575
0.0193291
0.0190538
0.0188198
0.018548
0.0182339
0.0179347
0.0177181
0.0175981
0.0175007
0.017319
0.0195231
0.0192432
0.0190926
0.0189238
0.0186554
0.0183127
0.0180278
0.0178845
0.0178266
0.0177013
0.0196051
0.0194198
0.0193492
0.019195
0.0188758
0.0184701
0.0181652
0.0180561
0.0180472
0.0179259
0.0196662
0.0196474
0.0196695
0.0194834
0.01905
0.0185721
0.0182964
0.0182732
0.0183285
0.0181767
0.0436554
0.0452431
0.0461381
0.0473011
0.0482187
0.048413
0.04753
0.0460454
0.0437386
0.0405821
0.0365254
0.0311447
0.0235779
0.0136461
0.000699495
-0.0169381
-0.0415421
-0.0741676
-0.111628
-0.202912
0.0262702
0.0269212
0.0253491
0.022997
0.0203569
0.0177434
0.0146065
0.0106786
0.00552481
-0.000757688
-0.0083858
-0.0173572
-0.028975
-0.0440682
-0.0635035
-0.0883867
-0.120598
-0.162997
-0.208971
-0.311036
0.00923918
0.00843365
0.00443648
-0.00111565
-0.00713334
-0.0127757
-0.0186342
-0.0250991
-0.0328604
-0.0422473
-0.0537699
-0.0674226
-0.0835919
-0.102888
-0.1269
-0.156957
-0.194987
-0.24587
-0.292164
-0.419967
-0.0098295
-0.0123802
-0.0178583
-0.0247091
-0.0322733
-0.0404583
-0.0493496
-0.0591843
-0.069986
-0.0821181
-0.0961041
-0.113131
-0.133483
-0.157446
-0.186267
-0.22114
-0.263529
-0.326137
-0.379155
-0.508955
-0.0299006
-0.0348139
-0.0427709
-0.0513506
-0.0596725
-0.0686357
-0.0789474
-0.0907391
-0.104332
-0.119487
-0.136562
-0.156753
-0.180392
-0.208324
-0.241375
-0.280324
-0.32538
-0.395615