/*--------------------------------*- C++ -*----------------------------------*\
| =========                 |                                                 |
| \\      /  F ield         | OpenFOAM: The Open Source CFD Toolbox           |
|  \\    /   O peration     | Version:  2512                                  |
|   \\  /    A nd           | Website:  www.openfoam.com                      |
|    \\/     M anipulation  |                                                 |
\*---------------------------------------------------------------------------*/
FoamFile
{
    version     2.0;
    format      ascii;
    arch        "LSB;label=32;scalar=64";
    class       volScalarField;
    location    "39";
    object      p;
}
// * * * * * * * * * * * * * * * * * * * * * * * * * * * * * * * * * * * * * //

dimensions      [0 2 -2 0 0 0 0];

internalField   nonuniform List<scalar> 
9200
(
-0.552038
-0.550304
-0.549939
-0.550708
-0.552379
-0.553923
-0.553562
-0.548968
-0.537897
-0.518931
-0.491942
-0.458129
-0.419543
-0.378532
-0.337083
-0.2968
-0.258498
-0.222811
-0.189504
-0.157975
-0.557811
-0.555124
-0.553058
-0.551659
-0.550575
-0.54868
-0.544034
-0.53451
-0.518604
-0.495909
-0.467197
-0.434052
-0.398358
-0.361803
-0.325684
-0.29088
-0.257839
-0.227026
-0.198141
-0.171441
-0.564596
-0.560961
-0.557477
-0.553963
-0.549905
-0.543939
-0.534227
-0.51936
-0.498882
-0.473342
-0.443991
-0.412322
-0.379684
-0.347105
-0.315308
-0.284768
-0.255821
-0.228683
-0.203219
-0.179188
-0.573717
-0.568959
-0.56401
-0.558205
-0.550565
-0.539643
-0.52427
-0.504151
-0.479854
-0.452475
-0.423236
-0.393195
-0.363144
-0.333647
-0.305093
-0.277782
-0.251892
-0.227607
-0.204744
-0.183322
-0.585765
-0.579518
-0.572822
-0.564152
-0.551992
-0.535327
-0.514188
-0.489442
-0.462276
-0.433815
-0.404933
-0.376238
-0.348134
-0.320894
-0.294727
-0.269776
-0.246177
-0.223977
-0.203128
-0.183643
-0.600773
-0.592645
-0.583652
-0.571179
-0.553435
-0.530544
-0.503974
-0.475388
-0.446076
-0.416874
-0.388269
-0.360528
-0.333803
-0.308198
-0.283786
-0.260635
-0.23878
-0.218224
-0.198967
-0.180922
-0.618304
-0.607933
-0.595906
-0.578374
-0.55404
-0.524826
-0.49341
-0.461695
-0.430709
-0.400902
-0.372435
-0.34534
-0.31961
-0.295226
-0.27217
-0.250418
-0.229938
-0.210694
-0.19267
-0.175677
-0.637364
-0.624401
-0.608351
-0.584331
-0.552707
-0.517448
-0.481847
-0.447565
-0.415194
-0.384828
-0.356383
-0.32973
-0.304743
-0.281314
-0.259347
-0.238757
-0.219462
-0.201399
-0.184496
-0.168477
-0.656193
-0.640375
-0.618902
-0.58705
-0.547939
-0.50718
-0.46802
-0.431604
-0.398078
-0.367236
-0.338803
-0.312525
-0.288185
-0.265601
-0.244621
-0.225107
-0.206945
-0.190043
-0.17426
-0.159351
-0.672245
-0.653411
-0.624938
-0.584293
-0.537976
-0.492416
-0.450315
-0.412208
-0.377822
-0.346692
-0.318394
-0.29257
-0.268921
-0.247205
-0.227217
-0.208782
-0.191768
-0.176077
-0.161544
-0.147996
-0.428356
-0.429928
-0.430522
-0.432131
-0.435546
-0.440974
-0.448554
-0.458451
-0.470793
-0.485616
-0.502803
-0.522052
-0.542849
-0.564461
-0.585932
-0.606083
-0.623597
-0.637067
-0.644804
-0.644067
-0.433343
-0.436506
-0.438254
-0.440914
-0.445239
-0.451244
-0.4588
-0.467719
-0.477729
-0.488463
-0.499483
-0.510327
-0.520551
-0.529745
-0.537515
-0.543443
-0.546977
-0.547216
-0.542903
-0.533362
-0.441755
-0.446202
-0.44918
-0.453102
-0.458614
-0.465531
-0.473426
-0.481707
-0.489617
-0.496267
-0.500734
-0.502207
-0.500127
-0.494272
-0.484777
-0.472058
-0.456491
-0.437919
-0.416082
-0.393412
-0.454161
-0.459544
-0.463677
-0.468932
-0.475816
-0.48396
-0.492656
-0.500911
-0.507461
-0.510849
-0.509594
-0.502433
-0.488558
-0.467777
-0.440578
-0.408073
-0.371625
-0.332117
-0.290798
-0.25044
-0.471169
-0.476169
-0.48103
-0.487451
-0.495618
-0.505027
-0.514708
-0.5233
-0.529059
-0.529982
-0.52406
-0.509644
-0.485775
-0.452377
-0.410332
-0.361341
-0.307914
-0.25129
-0.195402
-0.135965
-0.489295
-0.494157
-0.499536
-0.506732
-0.51575
-0.526134
-0.536547
-0.54532
-0.550294
-0.549
-0.539053
-0.518659
-0.486934
-0.444188
-0.391904
-0.331933
-0.270113
-0.203617
-0.14325
-0.0772044
-0.507457
-0.51137
-0.51668
-0.524155
-0.533606
-0.543985
-0.554166
-0.562235
-0.565728
-0.56188
-0.54815
-0.522825
-0.485457
-0.437096
-0.3801
-0.317377
-0.25316
-0.188646
-0.130316
-0.0742506
-0.523484
-0.526071
-0.530577
-0.537351
-0.545937
-0.555357
-0.564187
-0.570357
-0.571306
-0.564232
-0.546811
-0.517751
-0.477307
-0.427368
-0.370778
-0.311068
-0.251485
-0.19456
-0.143157
-0.09744
-0.536206
-0.537151
-0.540335
-0.545595
-0.552374
-0.559684
-0.566052
-0.569318
-0.566859
-0.556086
-0.53516
-0.503534
-0.462286
-0.41385
-0.361286
-0.307775
-0.255816
-0.20733
-0.163582
-0.124891
-0.545394
-0.544852
-0.546284
-0.5494
-0.553673
-0.558245
-0.561482
-0.561132
-0.554638
-0.539837
-0.515643
-0.482425
-0.441943
-0.396784
-0.349704
-0.303004
-0.258421
-0.216933
-0.179539
-0.146211
-0.635354
-0.608851
-0.550512
-0.470432
-0.383204
-0.308654
-0.260815
-0.241554
-0.243914
-0.267449
-0.316694
-0.376788
-0.411851
-0.391757
-0.325977
-0.249126
-0.185347
-0.144709
-0.126229
-0.122964
-0.135153
-0.169415
-0.212942
-0.23119
-0.202544
-0.152227
-0.112938
-0.0957822
-0.094574
-0.113739
-0.147115
-0.168784
-0.157956
-0.127763
-0.0952498
-0.0728435
-0.0652685
-0.0694894
-0.0789114
-0.0876024
-0.0921126
-0.0912854
-0.0844684
-0.072393
-0.0567759
-0.0414084
-0.0275781
-0.0158775
-0.0084168
-0.00198336
-0.517301
-0.499915
-0.447561
-0.387736
-0.320128
-0.267197
-0.237936
-0.230807
-0.2412
-0.272772
-0.329669
-0.394157
-0.428457
-0.409202
-0.339277
-0.25741
-0.189815
-0.144753
-0.120308
-0.110766
-0.115126
-0.139716
-0.176334
-0.192281
-0.167921
-0.125764
-0.0961335
-0.0869055
-0.0929758
-0.120164
-0.160301
-0.184491
-0.169747
-0.133585
-0.0945888
-0.0657496
-0.0520839
-0.0522025
-0.0617197
-0.0751248
-0.0875185
-0.0952461
-0.0941192
-0.0830273
-0.0652744
-0.0463903
-0.0300215
-0.0166337
-0.00860304
-0.00208702
-0.37465
-0.359696
-0.324446
-0.290551
-0.243885
-0.213301
-0.199715
-0.201044
-0.21654
-0.253276
-0.315893
-0.386317
-0.428904
-0.408433
-0.338892
-0.255744
-0.187644
-0.140889
-0.112696
-0.0975621
-0.094088
-0.10867
-0.137629
-0.152887
-0.133307
-0.0992463
-0.0780583
-0.0759702
-0.0890023
-0.123266
-0.168751
-0.194975
-0.177578
-0.136749
-0.092691
-0.0589903
-0.0402894
-0.0366461
-0.045837
-0.063595
-0.083621
-0.0999223
-0.104629
-0.0943227
-0.0742201
-0.0515847
-0.0325837
-0.0174396
-0.00882414
-0.0021993
-0.227497
-0.219419
-0.192395
-0.174849
-0.151911
-0.142657
-0.141205
-0.150107
-0.171136
-0.213182
-0.280259
-0.354513
-0.399872
-0.386636
-0.323361
-0.245005
-0.179681
-0.133479
-0.103594
-0.0851067
-0.0748827
-0.0795643
-0.100384
-0.115256
-0.101413
-0.0741984
-0.0596306
-0.0634156
-0.0817956
-0.121155
-0.171296
-0.19943
-0.180969
-0.137001
-0.089509
-0.0526358
-0.0300421
-0.0229646
-0.0312467
-0.0527574
-0.0801535
-0.105171
-0.115873
-0.106163
-0.0835277
-0.056939
-0.0352379
-0.0182845
-0.00907219
-0.00231674
-0.102508
-0.084773
-0.0656518
-0.0567602
-0.0523576
-0.0576649
-0.0685985
-0.0881431
-0.117794
-0.165751
-0.23463
-0.30904
-0.357094
-0.351016
-0.296945
-0.227673
-0.168122
-0.124044
-0.0939123
-0.0736231
-0.0593618
-0.0553072
-0.0676149
-0.0816747
-0.0732987
-0.0521366
-0.0423805
-0.0504174
-0.0718716
-0.1136
-0.167007
-0.196696
-0.179096
-0.134526
-0.0852699
-0.0466891
-0.0213792
-0.01122
-0.0178612
-0.0423021
-0.0768913
-0.110871
-0.127692
-0.11839
-0.0931013
-0.0623974
-0.0379493
-0.0191565
-0.0093398
-0.00243651
-0.0335558
0.00316107
0.0245911
0.0330068
0.0319614
0.0208298
-6.83494e-05
-0.0308433
-0.0700545
-0.122255
-0.189298
-0.259927
-0.307404
-0.306943
-0.26367
-0.205954
-0.154391
-0.113935
-0.0844421
-0.0636074
-0.0471201
-0.0370881
-0.0414292
-0.0539983
-0.0535866
-0.0347934
-0.027927
-0.0382836
-0.0608757
-0.101716
-0.155506
-0.187353
-0.171453
-0.129576
-0.0802223
-0.0411901
-0.0143387
-0.00139026
-0.00604876
-0.0323759
-0.0734434
-0.116548
-0.139823
-0.13076
-0.102803
-0.0678794
-0.0406657
-0.0200371
-0.00961763
-0.00255532
-0.0279248
0.0215109
0.0610943
0.077704
0.0792473
0.0717364
0.049319
0.0127788
-0.0318585
-0.084241
-0.146219
-0.210874
-0.255332
-0.259222
-0.227396
-0.182279
-0.139685
-0.10402
-0.0760525
-0.055292
-0.0381987
-0.0243775
-0.0222733
-0.0324516
-0.0353753
-0.0235814
-0.0171763
-0.0282778
-0.049458
-0.0862639
-0.138444
-0.172006
-0.159819
-0.122991
-0.0746724
-0.0360145
-0.00879725
0.00651124
0.00449027
-0.0226207
-0.069863
-0.122232
-0.152091
-0.143272
-0.112497
-0.0732926
-0.0433461
-0.0209147
-0.00989955
-0.00267053
-0.0595821
-0.0111119
0.039287
0.0671182
0.081892
0.0838049
0.0705036
0.0372497
-0.00649085
-0.0547333
-0.108756
-0.163355
-0.202312
-0.209325
-0.189165
-0.157183
-0.124176
-0.0941777
-0.0687269
-0.0487063
-0.0320866
-0.0168149
-0.00982828
-0.0170294
-0.0232714
-0.0163055
-0.0105314
-0.0211092
-0.0392958
-0.0707607
-0.117603
-0.152309
-0.138403
-0.113723
-0.0685112
-0.0311704
-0.00462107
0.0126297
0.0132359
-0.0135706
-0.0657291
-0.126919
-0.164033
-0.156604
-0.122029
-0.0786031
-0.0460079
-0.0218097
-0.0101931
-0.00278377
-0.0921731
-0.0513576
-0.00535379
0.0334452
0.0576939
0.0699552
0.0694612
0.0499689
0.0160582
-0.0267906
-0.0734787
-0.119898
-0.15377
-0.166078
-0.157333
-0.136735
-0.111796
-0.0868327
-0.0639978
-0.0447853
-0.0288215
-0.0137945
-0.00338993
-0.00690973
-0.0150001
-0.0123961
-0.00798616
-0.0168965
-0.0296958
-0.0540161
-0.0962511
-0.132665
-0.149893
-0.106604
-0.0632066
-0.027148
-0.00205007
0.0167604
0.020978
-0.00445647
-0.0611045
-0.131554
-0.175532
-0.169543
-0.131319
-0.0838453
-0.0486157
-0.0227109
-0.0104945
-0.00289509
-0.119244
-0.0912391
-0.0577186
-0.0173296
0.0136814
0.0345172
0.0442036
0.0408667
0.0248579
-0.0013326
-0.0345766
-0.0711659
-0.100939
-0.115792
-0.118183
-0.110427
-0.0957185
-0.0774959
-0.058764
-0.0415227
-0.0263651
-0.0121624
-0.000312322
-0.000586525
-0.00870436
-0.00916469
-0.00630554
-0.0179738
-0.0241913
-0.040727
-0.0757965
-0.10858
-0.12054
-0.0937552
-0.0571772
-0.0227083
0.000588596
0.0191746
0.0260473
0.00360234
-0.0554998
-0.133951
-0.185286
-0.180972
-0.139712
-0.0883424
-0.0506285
-0.0233694
-0.0107141
-0.00298216
-0.113566
-0.0938733
-0.0642326
-0.032061
-0.00436684
0.0154227
0.0276941
0.0301577
0.0202505
0.000483933
-0.0255459
-0.0533889
-0.0768952
-0.090681
-0.0941928
-0.0890457
-0.077815
-0.0630433
-0.0473734
-0.0325803
-0.0192891
-0.00706001
0.00344973
0.00493155
-0.00370143
-0.00702794
-0.00408647
-0.00246538
-0.0136519
-0.026172
-0.056896
-0.0889572
-0.102351
-0.0826454
-0.048731
-0.0161551
0.00503545
0.0226932
0.0325861
0.0120995
-0.0486971
-0.135948
-0.194377
-0.191503
-0.145715
-0.0908596
-0.0515623
-0.0236152
-0.0107763
-0.00302664
-0.111501
-0.0940768
-0.0669994
-0.039555
-0.016152
0.00152014
0.0129778
0.0162539
0.0102741
-0.00316534
-0.0214244
-0.0409923
-0.0583934
-0.0693711
-0.0725256
-0.0691936
-0.061028
-0.0496814
-0.0372757
-0.0251103
-0.0134063
-0.00289886
0.00524644
0.00622379
-0.00106092
-0.00459903
-0.00196021
-0.00308064
-0.0102176
-0.0177341
-0.0420575
-0.0714728
-0.0842963
-0.068989
-0.0390351
-0.00950593
0.00895919
0.0253081
0.0351698
0.0169581
-0.0448302
-0.138921
-0.20262
-0.198419
-0.150073
-0.0925145
-0.0521279
-0.0237973
-0.0108009
-0.0030661
-0.106586
-0.0916711
-0.0698058
-0.0466901
-0.0265192
-0.0109733
-0.000658069
0.00353961
0.00114971
-0.00689258
-0.0187462
-0.0315788
-0.0443641
-0.0528126
-0.055928
-0.0541874
-0.0484063
-0.039585
-0.0292665
-0.018954
-0.0089806
0.000104707
0.0070428
0.00829793
0.00211929
-0.0016175
0.000397701
-0.000551094
-0.00743067
-0.0126312
-0.0296545
-0.0526825
-0.0650864
-0.0555153
-0.0303146
-0.00396872
0.0120507
0.0271001
0.0375818
0.0198047
-0.0435331
-0.142682
-0.209481
-0.204039
-0.15313
-0.0934764
-0.0523616
-0.0239004
-0.0107812
-0.0030991
-0.0975293
-0.0879478
-0.0711199
-0.0518931
-0.034597
-0.0209591
-0.0113983
-0.00636724
-0.00620171
-0.0104495
-0.0179283
-0.0270529
-0.0349514
-0.0408548
-0.0431617
-0.0418277
-0.0371996
-0.0301232
-0.0218031
-0.013306
-0.00490261
0.00277
0.00830395
0.00950921
0.00494111
0.00196996
0.00363189
0.00167511
-0.00498504
-0.00741487
-0.0159599
-0.0333081
-0.0465857
-0.0422507
-0.0218491
0.00105737
0.014597
0.0279031
0.03899
0.02176
-0.0425604
-0.145053
-0.21402
-0.207155
-0.154146
-0.0933083
-0.0520443
-0.0238556
-0.0107042
-0.00312036
-0.0891295
-0.0833639
-0.070507
-0.0547391
-0.0400276
-0.0280829
-0.0193093
-0.0139531
-0.0121928
-0.0137417
-0.0178141
-0.0231661
-0.0280751
-0.0317062
-0.0329718
-0.0318104
-0.0282867
-0.0227691
-0.0160602
-0.00891616
-0.00181534
0.00470027
0.00954149
0.0108963
0.00786597
0.0058311
0.00768319
0.00551157
-0.00114981
-0.000420947
-0.00172977
-0.0154131
-0.0295952
-0.0298106
-0.0143467
0.0047806
0.0160993
0.0275909
0.0391342
0.0228648
-0.0410055
-0.144929
-0.215007
-0.206745
-0.152546
-0.0917965
-0.0511159
-0.0236366
-0.0105632
-0.00312457
-0.0810358
-0.0775524
-0.067859
-0.0552554
-0.0430244
-0.0327285
-0.0248117
-0.0194448
-0.0167179
-0.0164018
-0.0179417
-0.0205963
-0.0231951
-0.0251016
-0.0255053
-0.0242747
-0.0212797
-0.0165983
-0.0109948
-0.0049951
0.0010201
0.00643443
0.0105127
0.0121126
0.0105001
0.00951772
0.0122168
0.0116033
0.00673583
0.00959221
0.0118734
-0.000588645
-0.0155143
-0.0188069
-0.00785262
0.0073151
0.0164999
0.0260343
0.0377378
0.0228201
-0.0389987
-0.141673
-0.211144
-0.201798
-0.147739
-0.0886586
-0.0494528
-0.0231907
-0.0103465
-0.00310607
-0.0722659
-0.0704287
-0.0636156
-0.0539322
-0.043972
-0.0352114
-0.0281772
-0.023026
-0.0197943
-0.0182882
-0.0182075
-0.0189317
-0.0198012
-0.0203091
-0.0198346
-0.0182565
-0.0155533
-0.0116378
-0.00703854
-0.0020632
0.00309301
0.00773361
0.0112993
0.0132741
0.0129847
0.0129306
0.016643
0.0194209
0.0176468
0.0210528
0.0233967
0.0107026
-0.00404253
-0.00910966
-0.00249514
0.00854049
0.0156981
0.0232607
0.0350591
0.0209531
-0.0369137
-0.13448
-0.201086
-0.19136
-0.139318
-0.0837702
-0.0470217
-0.02249
-0.0100479
-0.00306029
-0.063016
-0.062976
-0.0585679
-0.0512449
-0.0432158
-0.0358601
-0.0297194
-0.0249362
-0.0215256
-0.0193415
-0.0181918
-0.017656
-0.0172595
-0.016693
-0.0155663
-0.0137713
-0.0112927
-0.00788131
-0.00390627
0.000345949
0.00484147
0.0088989
0.0120521
0.0143198
0.015167
0.0159159
0.0202287
0.02528
0.0264586
0.029185
0.0303093
0.0186232
0.00545663
-0.00063811
0.00176529
0.00855669
0.0139399
0.0194034
0.0290608
0.0166883
-0.0346869
-0.122502
-0.183876
-0.174899
-0.127163
-0.077125
-0.0438164
-0.0215051
-0.00965956
-0.0029831
-0.0547431
-0.0557728
-0.0529756
-0.0474755
-0.0410926
-0.0350202
-0.02976
-0.025449
-0.0221041
-0.0196197
-0.0178306
-0.0164889
-0.015279
-0.0140177
-0.0124521
-0.0104333
-0.00798471
-0.00489998
-0.00140616
0.00223658
0.00614184
0.00976165
0.0126495
0.0151429
0.0168836
0.0183041
0.0227545
0.028806
0.0308607
0.0320594
0.0320712
0.0232553
0.0127792
0.0063672
0.00513882
0.0083537
0.0116458
0.0150925
0.0208735
0.0100181
-0.0320359
-0.105288
-0.159251
-0.152571
-0.11167
-0.068974
-0.0399385
-0.0202364
-0.00917995
-0.00287219
-0.0472419
-0.0486492
-0.0469887
-0.0429776
-0.0380049
-0.0330699
-0.028635
-0.0248448
-0.021719
-0.0191789
-0.0170958
-0.0153189
-0.0136417
-0.0119316
-0.0100417
-0.00786421
-0.00545767
-0.00266343
0.000450495
0.00365662
0.00710145
0.0104018
0.0131245
0.0157181
0.0180223
0.0199283
0.0240332
0.0297155
0.0321117
0.0321143
0.0310184
0.0251046
0.0175182
0.0116098
0.00787199
0.00831328
0.00949353
0.011563
0.0119615
0.00211065
-0.0285486
-0.0836334
-0.128659
-0.125813
-0.093867
-0.0597915
-0.0355625
-0.0187037
-0.00861007
-0.00272697
-0.0400271
-0.0417559
-0.0409853
-0.0381372
-0.0342998
-0.0303249
-0.0266403
-0.0233871
-0.0205763
-0.0181457
-0.0160027
-0.0140418
-0.0121288
-0.0101779
-0.00812969
-0.00591536
-0.00356707
-0.000985769
0.00184047
0.00472668
0.00778163
0.010803
0.0134023
0.015972
0.0185246
0.0207326
0.0242361
0.0289607
0.0314693
0.0309266
0.0291414
0.0251911
0.0199872
0.0150761
0.0102096
0.00891023
0.00919278
0.0101596
0.00554273
-0.00407452
-0.0230349
-0.0592216
-0.094767
-0.0969031
-0.0753558
-0.0502671
-0.0309473
-0.016959
-0.00795757
-0.002549
-0.0334743
-0.0353584
-0.035157
-0.033157
-0.0302209
-0.0270615
-0.0240513
-0.0213163
-0.0188609
-0.0166378
-0.0145797
-0.0126108
-0.0106484
-0.00863997
-0.00656165
-0.00437732
-0.00210602
0.000294701
0.00286368
0.0054871
0.00821454
0.0109711
0.0134553
0.0159117
0.0184677
0.0207809
0.0236647
0.0273382
0.0296564
0.0291044
0.0271806
0.0243872
0.0208743
0.0169604
0.0122135
0.0101787
0.00989795
0.010604
0.00384732
-0.00523739
-0.014799
-0.0355405
-0.062508
-0.0698992
-0.0581808
-0.0411656
-0.0263655
-0.0150707
-0.00723438
-0.00234206
-0.0275628
-0.0294078
-0.029568
-0.0282104
-0.0260017
-0.0235238
-0.0210949
-0.0188267
-0.0167337
-0.0147723
-0.0128928
-0.0110387
-0.00915401
-0.00720453
-0.00518514
-0.00309363
-0.000944479
0.00127816
0.00360975
0.00599875
0.00844791
0.010942
0.0132852
0.0155774
0.0179698
0.0202138
0.0225943
0.0253444
0.0272579
0.0269499
0.0252619
0.0231527
0.0207108
0.0175764
0.0136866
0.0114661
0.0109836
0.0116904
0.00619324
-0.00118564
-0.00560601
-0.0172579
-0.0376682
-0.0482194
-0.0437634
-0.0329947
-0.0220149
-0.0131133
-0.00645771
-0.00211172
-0.0221826
-0.0239417
-0.0243363
-0.0234496
-0.0218054
-0.0198798
-0.0179421
-0.0160939
-0.0143497
-0.012671
-0.0110174
-0.009345
-0.0076134
-0.005802
-0.00391548
-0.00197037
1.93102e-05
0.00205734
0.00416307
0.00632473
0.00852494
0.0107605
0.0129226
0.0150214
0.0171718
0.0192283
0.0212038
0.0232533
0.0247248
0.0246677
0.0233783
0.0217247
0.0199224
0.0174931
0.014478
0.0123839
0.0118168
0.0121395
0.00908945
0.00381999
0.00160967
-0.00646071
-0.022013
-0.0330518
-0.0323649
-0.0258908
-0.0179912
-0.0111519
-0.00564576
-0.00186338
-0.0173701
-0.018986
-0.0194997
-0.018948
-0.0177401
-0.01626
-0.0147348
-0.0132528
-0.0118369
-0.0104356
-0.00902126
-0.00756309
-0.00602996
-0.00440715
-0.00270182
-0.000938465
0.000864636
0.00270528
0.00458969
0.00652511
0.00848856
0.0104731
0.0124242
0.0143113
0.016199
0.0180092
0.0196616
0.0212084
0.0223153
0.0224182
0.021529
0.0202395
0.0188421
0.0169722
0.0146403
0.0128405
0.0122002
0.0121426
0.0105931
0.00723744
0.00559414
-0.000604358
-0.0125745
-0.0223709
-0.0235064
-0.0198502
-0.0143563
-0.00925458
-0.00482553
-0.00160552
-0.0130626
-0.014506
-0.0150721
-0.0147615
-0.0138926
-0.0127788
-0.0116064
-0.0104511
-0.00930164
-0.00815075
-0.00697083
-0.00573611
-0.00442033
-0.00301022
-0.00151237
4.6904e-05
0.00164558
0.00327832
0.00494249
0.00665085
0.00838303
0.0101262
0.0118519
0.0135168
0.0151481
0.0167012
0.0180827
0.0192866
0.0201273
0.0203072
0.0197471
0.0187699
0.0176673
0.0162324
0.0144164
0.0129061
0.0121809
0.0117922
0.0107637
0.00851876
0.00704809
0.00231627
-0.00675453
-0.0148189
-0.0166886
-0.0148184
-0.0111368
-0.00746174
-0.00401494
-0.00134574
-0.00922252
-0.0104914
-0.0110652
-0.0109243
-0.0103153
-0.00949016
-0.00859555
-0.007691
-0.00679128
-0.00587828
-0.00492426
-0.00390682
-0.00280749
-0.00161532
-0.00033493
0.00100991
0.0023961
0.00381536
0.00526062
0.00674426
0.00824931
0.00976096
0.0112598
0.0127031
0.0140963
0.015409
0.0165615
0.0175264
0.0181841
0.0183915
0.0180692
0.0173567
0.0164877
0.0153857
0.0139731
0.012703
0.0119139
0.0113245
0.0103497
0.00869316
0.00720997
0.00361657
-0.00303133
-0.00935157
-0.0114602
-0.0106988
-0.00835136
-0.00581834
-0.00323297
-0.00108924
-0.00582642
-0.00692358
-0.00747477
-0.0074496
-0.00703602
-0.00643514
-0.00576905
-0.00508273
-0.00439022
-0.00367942
-0.00292862
-0.00211314
-0.00121847
-0.000236847
0.000828862
0.00195958
0.00313383
0.00434135
0.0055723
0.00683734
0.00812248
0.00941316
0.0106925
0.0119229
0.0130991
0.0141971
0.0151549
0.0159447
0.0164787
0.0166875
0.0165238
0.0160239
0.0153463
0.0144961
0.0133944
0.012322
0.0115191
0.0107901
0.00974985
0.00838714
0.00692293
0.00416644
-0.000594503
-0.00547334
-0.00748751
-0.00737838
-0.00598654
-0.00435441
-0.00250588
-0.000842661
-0.00284049
-0.00377308
-0.00428081
-0.00432945
-0.00406426
-0.0036425
-0.00316335
-0.00266028
-0.00213713
-0.00159171
-0.00101699
-0.000386822
0.000318207
0.00110509
0.00196971
0.00289628
0.00386671
0.00487026
0.00589651
0.00695359
0.00802915
0.00911163
0.0101841
0.0112143
0.0121947
0.0131046
0.0138965
0.0145474
0.0149915
0.0151919
0.0151268
0.0147863
0.0142653
0.0136038
0.0127371
0.0118279
0.0110442
0.0102549
0.00920316
0.00797337
0.00657651
0.0044086
0.000850607
-0.00273254
-0.0044872
-0.0047353
-0.00400858
-0.0030615
-0.00183798
-0.000617879
-0.00021958
-0.00100136
-0.0014591
-0.00155756
-0.00140645
-0.00112677
-0.000794399
-0.000438241
-6.18464e-05
0.000340667
0.00077398
0.0012471
0.00178224
0.00239229
0.00307413
0.00381323
0.00459401
0.0054068
0.0062418
0.00710486
0.00798523
0.00887477
0.00975586
0.0106028
0.0114062
0.0121481
0.0127975
0.0133341
0.0137062
0.0138923
0.0138817
0.0136534
0.0132574
0.0127363
0.0120442
0.0112704
0.0105273
0.00973985
0.00873419
0.00759542
0.00630391
0.00457488
0.00193772
-0.000767412
-0.00223436
-0.00267201
-0.00240589
-0.00196315
-0.00122859
-0.000403159
0.00206485
0.00141433
0.00100784
0.000878958
0.000945994
0.00111662
0.0013319
0.00157022
0.00182719
0.00210749
0.00241538
0.00276241
0.00315735
0.00361201
0.00412979
0.00470008
0.00530917
0.00594821
0.00660884
0.00729536
0.00799789
0.00871186
0.00941964
0.0101004
0.0107437
0.0113278
0.0118624
0.012301
0.0126088
0.0127731
0.0127874
0.0126331
0.0123315
0.0119146
0.0113534
0.0106946
0.0100076
0.00926036
0.00832989
0.00728102
0.00612253
0.00472135
0.00273123
0.000669992
-0.000529476
-0.00106504
-0.00111403
-0.00105672
-0.000720023
-0.000215154
0.00403933
0.0035045
0.00314967
0.00300444
0.00300889
0.0030943
0.00321672
0.00336036
0.00352162
0.00370341
0.00390778
0.00414444
0.00442167
0.00474829
0.00512581
0.00554761
0.00600433
0.00648841
0.00699323
0.00752228
0.0080662
0.00862333
0.00917744
0.00971433
0.0102264
0.0107044
0.0111035
0.0114433
0.0116859
0.0118214
0.0118415
0.011731
0.011496
0.0111556
0.0106932
0.0101322
0.00951014
0.00882335
0.007981
0.0070336
0.0060144
0.00486601
0.00331685
0.00172078
0.000737983
0.000163648
-8.25555e-05
-0.000280013
-0.000261913
-6.35515e-05
0.0057368
0.00530017
0.00499237
0.00483873
0.00479661
0.00481639
0.00486613
0.00493471
0.00501904
0.00512099
0.00524094
0.00538619
0.00556392
0.00578307
0.006044
0.00634197
0.00666923
0.00701885
0.0073868
0.00777722
0.00818191
0.00860065
0.0090179
0.00942406
0.00981086
0.0101675
0.0104766
0.0107365
0.0109201
0.0110235
0.011036
0.0109477
0.0107564
0.0104719
0.0100842
0.00960346
0.00904852
0.00843087
0.00768231
0.00683916
0.00594564
0.00498008
0.0037578
0.00250103
0.00168713
0.00107695
0.000685163
0.000308401
0.000128986
9.95933e-05
0.007181
0.00682559
0.00655923
0.00640262
0.0063265
0.00629644
0.00629002
0.00629983
0.00632311
0.00636105
0.00641287
0.00648454
0.00658131
0.00671107
0.00687466
0.0070687
0.00728697
0.00752436
0.00777799
0.00805019
0.00833484
0.00863302
0.00893047
0.00922235
0.00950079
0.0097577
0.00998177
0.0101691
0.0102974
0.0103662
0.0103625
0.0102816
0.0101169
0.00987205
0.00954005
0.00912391
0.00863302
0.00808386
0.00742358
0.00668504
0.00591234
0.00508822
0.00408653
0.00308061
0.00239339
0.00178055
0.00131181
0.000792369
0.000408213
0.000193304
0.00839319
0.00810354
0.00787249
0.00771627
0.00761585
0.00754849
0.00749921
0.00746335
0.00743865
0.00742599
0.00742399
0.00743752
0.00746986
0.00752785
0.00761205
0.00772068
0.00784947
0.00799403
0.00815249
0.00832636
0.00851079
0.00870846
0.00890658
0.00910274
0.00928546
0.00945665
0.00960539
0.00972706
0.00980368
0.00983704
0.00981204
0.0097297
0.00957762
0.00935932
0.00906811
0.00870383
0.00827049
0.00778602
0.00720464
0.00655685
0.00588619
0.00517256
0.00433974
0.00350417
0.00289778
0.00227388
0.00175078
0.00117826
0.000719346
0.000309529
0.00939176
0.00915409
0.00895217
0.00879815
0.00868055
0.00858566
0.00850412
0.00843346
0.00837181
0.00831996
0.00827614
0.00824449
0.00822647
0.00822823
0.00824946
0.00828996
0.00834642
0.00841564
0.0084969
0.00859081
0.00869442
0.00880918
0.00892378
0.0090398
0.00914804
0.00924665
0.00933004
0.00939378
0.00942408
0.0094232
0.00937475
0.00928493
0.0091366
0.00893561
0.00867339
0.00834863
0.00796214
0.00753167
0.00701875
0.00645553
0.00587217
0.00524364
0.00452826
0.00381599
0.0032684
0.00264454
0.00209478
0.00142611
0.000859769
0.000377663
0.0101912
0.00999302
0.00981398
0.0096627
0.00953332
0.00941868
0.00931365
0.00921713
0.00912773
0.00904615
0.00897069
0.00890489
0.00884872
0.00880774
0.00878054
0.00876843
0.00876859
0.00877912
0.00880009
0.00883097
0.00887034
0.00891919
0.00896807
0.00902069
0.00906701
0.00910773
0.00913798
0.0091524
0.00914368
0.00911117
0.00904021
0.00893994
0.0087898
0.00859929
0.00835564
0.00806135
0.00771034
0.00732632
0.00686859
0.00636803
0.00585209
0.00529352
0.0046809
0.00405285
0.00353402
0.00291541
0.0023507
0.00164032
0.0010599
0.000422851
0.0107994
0.0106297
0.0104677
0.0103193
0.0101823
0.0100542
0.00993268
0.00981776
0.00970836
0.00960525
0.00950699
0.00941648
0.00933282
0.00926084
0.00919813
0.00914759
0.00910585
0.00907333
0.00904918
0.00903305
0.00902438
0.00902316
0.00902296
0.00902694
0.00902595
0.00902272
0.00901114
0.00898719
0.00894717
0.00888765
0.00879811
0.00868672
0.00853145
0.00834751
0.00811438
0.00784289
0.00751775
0.00716745
0.00675338
0.0063062
0.00583789
0.00532428
0.00477686
0.00419751
0.0037036
0.00310581
0.00255625
0.00174408
0.00113038
0.000492728
0.0112192
0.0110681
0.0109175
0.0107713
0.0106296
0.0104929
0.0103609
0.0102338
0.0101114
0.00999376
0.00988069
0.00977365
0.00967201
0.00957949
0.00949299
0.0094171
0.00934681
0.00928577
0.00923096
0.00918326
0.00914209
0.00910686
0.00907303
0.00904428
0.00900967
0.00897656
0.00893583
0.00888389
0.00882289
0.00874198
0.00863983
0.00851811
0.00835782
0.00817723
0.0079499
0.00769316
0.00738507
0.00705892
0.00667146
0.00625902
0.00583056
0.00535251
0.00484515
0.00429757
0.00384105
0.00323934
0.00266354
0.00181592
0.00117421
0.000496141
0.0114424
0.0113007
0.0111559
0.0110108
0.0108665
0.0107256
0.0105878
0.0104547
0.0103253
0.0102003
0.0100796
0.00996371
0.00985337
0.00974949
0.00965151
0.00956197
0.00947684
0.00940186
0.00932958
0.0092673
0.00920762
0.00915488
0.00910432
0.00905646
0.0090063
0.00895661
0.00889865
0.00883511
0.00876144
0.00866807
0.00856213
0.00843124
0.00826829
0.00809088
0.00786333
0.00761507
0.00731844
0.00700314
0.00662848
0.00623966
0.00582853
0.00537587
0.00489021
0.00439733
0.00394578
0.00335045
0.00276332
0.00186422
0.00127466
0.000569982
-0.134375
-0.143865
-0.151437
-0.157261
-0.161144
-0.16206
-0.159749
-0.152865
-0.143164
-0.127335
-0.120253
-0.127696
-0.133311
-0.137234
-0.139341
-0.138576
-0.135848
-0.130281
-0.124065
-0.118254
-0.106605
-0.112217
-0.116189
-0.11873
-0.119987
-0.119981
-0.119583
-0.118366
-0.115771
-0.113124
-0.0939686
-0.0981471
-0.100964
-0.10294
-0.104372
-0.105824
-0.106573
-0.106661
-0.103603
-0.101254
-0.082327
-0.0855356
-0.0876659
-0.0895487
-0.0910192
-0.0927059
-0.0927003
-0.0920984
-0.089142
-0.0889061
-0.0718035
-0.0743508
-0.0760113
-0.0776683
-0.078681
-0.0796716
-0.0788795
-0.0784721
-0.0776458
-0.0793701
-0.0622061
-0.064238
-0.0654767
-0.0666689
-0.0671514
-0.0677042
-0.0674314
-0.068293
-0.0689675
-0.0706766
-0.0534539
-0.0550445
-0.0559289
-0.0567364
-0.0571276
-0.0579084
-0.0584905
-0.0596586
-0.0600145
-0.0609176
-0.0454898
-0.0467466
-0.0474484
-0.0481217
-0.0486645
-0.0495241
-0.0500293
-0.0504794
-0.050523
-0.051883
-0.0383035
-0.0393332
-0.0399431
-0.0405019
-0.0409631
-0.041501
-0.0417417
-0.0421442
-0.042807
-0.0445481
-0.0318395
-0.0326837
-0.0331888
-0.0335972
-0.0339437
-0.0343779
-0.0347803
-0.0354128
-0.0361756
-0.0375831
-0.0260314
-0.026721
-0.0271445
-0.0274788
-0.0278121
-0.0282404
-0.0286676
-0.0291857
-0.0298142
-0.0311122
-0.0208332
-0.0214033
-0.0217686
-0.0220534
-0.0223467
-0.0227039
-0.0230785
-0.0235504
-0.0241988
-0.0254273
-0.0161876
-0.0166617
-0.0169756
-0.0172191
-0.0174791
-0.0177995
-0.0181617
-0.0186053
-0.0192032
-0.020285
-0.0120405
-0.0124428
-0.0127205
-0.0129397
-0.0131757
-0.0134588
-0.0137821
-0.0141752
-0.0147238
-0.0156952
-0.00834389
-0.00869421
-0.00894458
-0.00914326
-0.00935392
-0.00960411
-0.00990042
-0.0102657
-0.0107706
-0.0116199
-0.00505095
-0.00536468
-0.00559679
-0.0057837
-0.00597978
-0.00621008
-0.00648377
-0.00681412
-0.00725997
-0.00798976
-0.0021238
-0.00241419
-0.00263748
-0.00282035
-0.00300695
-0.00321859
-0.00346572
-0.00376031
-0.00415429
-0.00478198
0.000469766
0.000194142
-2.5851e-05
-0.000208278
-0.000387592
-0.000583361
-0.000809149
-0.00107688
-0.00142833
-0.00196592
0.00275888
0.00249342
0.0022736
0.00208862
0.00191182
0.00172456
0.00151286
0.00126756
0.000957295
0.00050356
0.00476832
0.0045099
0.00428815
0.00409833
0.00392032
0.00373823
0.0035399
0.0033172
0.00304438
0.0026609
0.00651927
0.00626707
0.00604461
0.00585051
0.00567024
0.00549166
0.0053037
0.00509782
0.00485372
0.00452756
0.00803189
0.00778809
0.00756604
0.00736726
0.00718362
0.00700614
0.00682467
0.00663161
0.00641204
0.00613463
0.00932481
0.00908821
0.00886745
0.00866633
0.00848041
0.00830315
0.00812633
0.00794377
0.00774429
0.00750581
0.0104133
0.0101841
0.00996676
0.00976548
0.00957829
0.00940102
0.00922746
0.00905274
0.00886862
0.00866019
0.0113126
0.0110906
0.0108777
0.0106779
0.0104906
0.0103134
0.0101419
0.0099727
0.00979992
0.00961406
0.0120341
0.0118184
0.0116104
0.011413
0.0112265
0.0110497
0.0108797
0.0107144
0.0105499
0.0103803
0.0125849
0.0123742
0.0121708
0.0119763
0.0117912
0.011615
0.0114462
0.0112834
0.0111241
0.0109652
0.0129648
0.0127585
0.0125593
0.0123679
0.0121845
0.0120092
0.0118411
0.0116797
0.0115233
0.0113704
0.0131616
0.0129585
0.0127625
0.0125739
0.0123925
0.0122187
0.0120518
0.0118916
0.0117367
0.0115863
0.0404265
0.0433532
0.045309
0.0462821
0.0462151
0.045283
0.0436475
0.0412421
0.0378094
0.0330059
0.026428
0.0175744
0.00578916
-0.00979444
-0.0303223
-0.057317
-0.0927394
-0.138019
-0.19076
-0.221396
0.0214374
0.0227365
0.021424
0.0189976
0.0160858
0.0126427
0.00843826
0.00320081
-0.00338108
-0.0116655
-0.0220822
-0.0351763
-0.051658
-0.0724596
-0.0988051
-0.132286
-0.174778
-0.227233
-0.287361
-0.320924
0.00220436
0.00125176
-0.00298969