/*--------------------------------*- C++ -*----------------------------------*\
| =========                 |                                                 |
| \\      /  F ield         | OpenFOAM: The Open Source CFD Toolbox           |
|  \\    /   O peration     | Version:  2312                                  |
|   \\  /    A nd           | Website:  www.openfoam.com                      |
|    \\/     M anipulation  |                                                 |
\*---------------------------------------------------------------------------*/
FoamFile
{
    version     2.0;
    format      ascii;
    arch        "LSB;label=32;scalar=64";
    class       volVectorField;
    location    "59";
    object      U;
}
// * * * * * * * * * * * * * * * * * * * * * * * * * * * * * * * * * * * * * //

dimensions      [0 1 -1 0 0 0 0];

internalField   nonuniform List<vector> 
5478
(
(-0.0348976 0.0212265 -8.3919e-20)
(-0.0682223 0.0424168 0)
(-0.0599341 0.0519558 1.25426e-19)
(0.00308804 0.0550226 -2.18702e-19)
(0.132213 0.0545026 1.41684e-19)
(0.32607 0.0551209 -4.22597e-20)
(0.562535 0.0601088 -7.2948e-20)
(0.808611 0.0672343 0)
(1.03266 0.0745137 0)
(1.21172 0.0745075 1.02747e-19)
(1.33205 0.0663113 -4.5066e-20)
(1.38806 0.0523035 -8.00166e-20)
(1.39199 0.0124221 -3.15694e-20)
(1.35585 0.0117382 0)
(1.30405 -0.0675607 8.59931e-20)
(-0.0456176 0.0253759 1.68315e-19)
(-0.0653986 0.0377888 0)
(-0.0152937 0.0363593 0)
(0.122383 0.0347948 -1.10401e-19)
(0.348047 0.0412532 1.4509e-19)
(0.621908 0.0579307 4.15025e-20)
(0.890156 0.0794388 -7.2328e-20)
(1.11155 0.0986196 6.41269e-20)
(1.26476 0.108331 1.63461e-19)
(1.34659 0.10519 -1.43631e-19)
(1.36836 0.0924003 3.8513e-21)
(1.35295 0.0663357 0)
(1.32611 0.0484398 3.15158e-20)
(1.30217 0.0225237 0)
(1.29815 -0.000514043 0)
(-0.05094 0.0255942 -4.17148e-22)
(-0.0405779 0.0311221 -7.88048e-20)
(0.0821475 0.0276206 5.80904e-22)
(0.326415 0.0371231 0)
(0.637831 0.0642863 -4.9697e-20)
(0.930961 0.0978042 4.23304e-20)
(1.15098 0.125259 3.59014e-20)
(1.28201 0.138903 0)
(1.33617 0.137148 -5.39667e-20)
(1.34121 0.125356 4.62783e-20)
(1.32709 0.105431 3.94177e-20)
(1.31498 0.0914896 0)
(1.30614 0.0690958 0)
(1.29908 0.061127 -8.34701e-20)
(1.27831 0.0372665 7.45779e-20)
(-0.0473149 0.0207503 -9.19928e-20)
(0.0166906 0.0190129 7.77994e-20)
(0.246732 0.0277873 -6.72198e-20)
(0.593362 0.0657469 5.96124e-20)
(0.923929 0.113458 1.00078e-19)
(1.15701 0.150037 -8.45471e-20)
(1.28163 0.167249 -3.58779e-20)
(1.32633 0.167017 2.87246e-20)
(1.33069 0.157272 -2.71765e-20)
(1.32377 0.142528 0)
(1.31696 0.130527 0)
(1.30611 0.112992 -5.57542e-20)
(1.29024 0.100973 7.27989e-20)
(1.2674 0.0851812 -4.09871e-20)
(1.24723 0.0649076 0)
(-0.0316556 0.012258 4.65931e-20)
(0.119776 0.00825966 3.93672e-20)
(0.47543 0.0514025 -1.41808e-19)
(0.860344 0.119011 1.93988e-21)
(1.13136 0.170845 -1.15037e-21)
(1.27132 0.195506 -1.30404e-21)
(1.32191 0.198957 3.43666e-20)
(1.33032 0.191705 2.93066e-20)
(1.32416 0.179775 2.14833e-20)
(1.31227 0.167515 -2.97078e-21)
(1.29503 0.15169 -4.92336e-20)
(1.27686 0.138162 0)
(1.26026 0.123127 2.28472e-20)
(1.24822 0.108391 -1.70798e-20)
(1.23851 0.0973215 3.04118e-20)
(0.000655967 0.0029323 -1.00916e-19)
(0.277269 0.01521 1.09279e-19)
(0.720853 0.103908 -3.79065e-20)
(1.06472 0.182673 2.87555e-20)
(1.24786 0.22298 -5.30481e-20)
(1.31794 0.233629 -4.00521e-20)
(1.33176 0.229099 1.07479e-21)
(1.32303 0.217956 0)
(1.30651 0.204666 4.32682e-20)
(1.28865 0.189343 -3.84777e-20)
(1.27398 0.175688 1.55922e-20)
(1.26148 0.161022 0)
(1.24902 0.148103 9.47539e-21)
(1.23435 0.134568 -1.69875e-20)
(1.21658 0.122975 0)
(0.0558968 -0.00208317 -1.26388e-20)
(0.473514 0.0546866 1.16978e-21)
(0.927308 0.173751 1.82957e-20)
(1.1951 0.245786 3.14028e-20)
(1.30529 0.271002 -2.43335e-20)
(1.33086 0.270697 4.09939e-20)
(1.32205 0.259743 -9.28503e-21)
(1.30408 0.245366 0)
(1.28656 0.229824 -2.53302e-20)
(1.27127 0.215166 1.6647e-21)
(1.25571 0.199803 2.11075e-20)
(1.23945 0.185408 0)
(1.22376 0.171023 -1.37339e-20)
(1.21036 0.156416 0)
(1.20024 0.147738 8.28186e-21)
(0.135619 0.00583205 -1.40689e-20)
(0.665856 0.125256 0)
(1.07695 0.251105 1.96936e-20)
(1.26852 0.30784 0)
(1.32379 0.317785 0)
(1.32141 0.307622 0)
(1.30293 0.291682 -7.98397e-21)
(1.28297 0.274391 0)
(1.26405 0.257266 5.10122e-21)
(1.24602 0.239875 0)
(1.23029 0.22361 -6.57959e-21)
(1.21727 0.207765 0)
(1.20601 0.192967 4.25341e-21)
(1.19516 0.179656 0)
(1.18255 0.16982 2.72612e-21)
(-0.00703384 0.105638 -1.0613e-20)
(-0.025422 0.2207 0)
(-0.0563313 0.269607 1.6566e-20)
(-0.0896324 0.289859 0)
(-0.121831 0.305809 0)
(-0.151346 0.324334 0)
(-0.176692 0.343084 -1.09281e-20)
(-0.196262 0.357574 0)
(-0.208381 0.363326 9.43845e-21)
(-0.211599 0.356215 0)
(-0.204927 0.332782 -1.68134e-20)
(-0.187669 0.290088 0)
(-0.159649 0.226893 1.49861e-20)
(-0.122225 0.14377 0)
(-0.0706181 0.0367887 1.28339e-20)
(-0.0127126 0.10809 5.32603e-20)
(-0.0305095 0.237354 -3.78127e-20)
(-0.050736 0.298083 1.67322e-20)
(-0.0709423 0.323166 5.92452e-20)
(-0.0885459 0.338368 5.45471e-22)
(-0.100947 0.352996 -4.8094e-20)
(-0.106075 0.365904 3.25195e-20)
(-0.102207 0.372882 0)
(-0.0878747 0.369664 3.01451e-20)
(-0.0619958 0.352466 2.37402e-21)
(-0.0250761 0.318457 -1.66518e-20)
(0.0222555 0.266615 0)
(0.0825263 0.192937 -4.63507e-20)
(0.134622 0.0990017 0)
(0.225501 -0.0106429 -6.69864e-20)
(-0.0170545 0.0974001 8.59197e-20)
(-0.0346907 0.23246 1.87178e-20)
(-0.0432576 0.305773 -3.32181e-20)
(-0.0480451 0.337469 -8.88619e-20)
(-0.047716 0.352036 5.24184e-20)
(-0.039721 0.361539 4.86969e-20)
(-0.0218187 0.367386 -8.64992e-20)
(0.00756718 0.366633 0)
(0.0491024 0.355553 -7.93057e-20)
(0.102739 0.33165 7.05104e-20)
(0.169754 0.291647 3.40705e-20)
(0.235248 0.232897 0)
(0.334918 0.164706 3.13446e-20)
(0.380669 0.0660151 -5.79077e-20)
(0.524593 -0.0354767 0)
(-0.0186331 0.0768844 4.28659e-20)
(-0.0378109 0.205761 -1.13122e-19)
(-0.0375503 0.288284 1.32315e-19)
(-0.0280066 0.327924 -1.15891e-19)
(-0.00996186 0.3435 -5.11777e-20)
(0.0178591 0.348205 4.59646e-20)
(0.0569114 0.346397 4.33357e-20)
(0.107926 0.337412 3.8572e-20)
(0.171796 0.319292 -1.12476e-19)
(0.242832 0.287206 -4.4382e-21)
(0.334976 0.249558 3.04298e-20)
(0.403464 0.182707 0)
(0.542203 0.125276 5.77196e-20)
(0.58819 0.0282103 1.71868e-19)
(0.784603 -0.0670613 -1.01717e-19)
(-0.0176098 0.0530704 -1.60518e-22)
(-0.039877 0.163405 7.4316e-20)
(-0.0365685 0.246458 -6.45951e-20)
(-0.0175179 0.291449 5.76566e-20)
(0.0144886 0.309016 1.00691e-19)
(0.0585555 0.310606 -9.00127e-20)
(0.114389 0.302467 -3.97493e-20)
(0.181231 0.285763 -1.15352e-19)
(0.259616 0.263554 1.04187e-19)
(0.34556 0.224557 0)
(0.451625 0.192379 0)
(0.548808 0.123096 1.21054e-19)
(0.712604 0.0751522 -2.78798e-19)
(0.794725 -0.0269991 1.00989e-19)
(1.03368 -0.10891 0)
(-0.0159967 0.0329036 4.59479e-22)
(-0.0420841 0.117113 -7.34536e-20)
(-0.0414596 0.188901 1.92845e-19)
(-0.0194061 0.231446 -5.60719e-20)
(0.0204809 0.248328 -4.9552e-20)
(0.0753022 0.247769 4.4083e-20)
(0.14341 0.236216 3.97736e-20)
(0.225466 0.21663 7.20607e-20)
(0.322306 0.191985 -1.27729e-19)
(0.443187 0.156494 5.95574e-20)
(0.578751 0.121211 5.57609e-20)
(0.742756 0.058297 0)
(0.921493 0.0156773 0)
(1.07054 -0.0812916 1.83121e-19)
(1.27961 -0.128518 -1.63424e-19)
(-0.0171051 0.0208629 -3.47468e-22)
(-0.0476839 0.0784399 0)
(-0.0525241 0.129542 0)
(-0.0314616 0.160783 1.08199e-19)
(0.013305 0.172167 -4.85022e-20)
(0.0805736 0.169336 4.11631e-20)
(0.173128 0.157258 7.49743e-20)
(0.295028 0.140687 -6.64793e-20)
(0.447935 0.116092 6.38162e-20)
(0.628035 0.0928187 -5.96209e-20)
(0.818837 0.0549474 -4.03498e-21)
(1.0231 0.019942 0)
(1.18823 -0.0213183 4.20085e-20)
(1.34049 -0.085174 0)
(1.42374 -0.108391 0)
(-0.0236939 0.0179271 -8.31792e-20)
(-0.0585141 0.0535884 0)
(-0.0652198 0.0816546 -1.24539e-19)
(-0.0375953 0.0975612 2.16904e-19)
(0.0284721 0.101489 -2.34746e-19)
(0.139254 0.0973192 -4.0979e-20)
(0.297055 0.0892585 7.25987e-20)
(0.492829 0.0809373 0)
(0.712051 0.0694929 0)
(0.928234 0.0615778 -1.1078e-19)
(1.12722 0.0380895 -5.31195e-20)
(1.28336 0.0286838 8.89744e-20)
(1.38215 -0.0170317 -4.20855e-20)
(1.43303 -0.0390425 0)
(1.39638 -0.0729957 -1.085e-19)
(-0.0159544 -0.0974939 0)
(0.0553191 -0.277931 7.41342e-21)
(0.138826 -0.45364 -7.07148e-21)
(0.213404 -0.601116 0)
(0.265985 -0.702789 -1.27234e-22)
(0.270441 -0.766799 0)
(0.237449 -0.807066 1.42205e-22)
(0.225221 -0.746509 0)
(0.329925 -0.446887 -1.51551e-22)
(0.504558 0.00347796 2.70997e-21)
(0.648615 0.378333 -2.58596e-21)
(0.72253 0.573465 -9.09313e-23)
(0.745252 0.621738 0)
(0.774971 0.610088 9.23109e-23)
(0.739113 0.614482 8.82254e-23)
(0.608053 0.613612 0)
(0.512785 0.491538 0)
(0.540218 0.208962 0)
(0.639199 -0.11747 -1.41313e-22)
(0.765805 -0.316507 0)
(0.866474 -0.397613 0)
(0.82402 -0.480801 -1.10655e-22)
(0.687185 -0.539206 2.0366e-22)
(0.65024 -0.395789 1.04771e-22)
(0.745715 -0.116587 0)
(0.841312 0.145191 0)
(0.846394 0.376606 0)
(0.815375 0.527407 0)
(0.773191 0.445179 -1.12542e-22)
(0.741834 0.165846 -1.17515e-22)
(0.709074 -0.177742 1.27113e-22)
(0.68736 -0.384027 6.27416e-23)
(0.663755 -0.387788 -2.35631e-23)
(0.685827 -0.210024 0)
(0.72613 0.0312626 -7.05994e-24)
(0.773706 0.158314 6.76311e-24)
(0.747832 0.315022 -1.30835e-24)
(0.751567 0.172124 1.25116e-24)
(0.282503 -0.162245 6.89689e-22)
(0.354376 -0.354467 3.69343e-20)
(0.427649 -0.529831 0)
(0.486847 -0.662964 3.66774e-22)
(0.525264 -0.725822 -1.34461e-22)
(0.512396 -0.729283 0)
(0.422296 -0.740451 -1.4324e-22)
(0.291063 -0.741848 7.91377e-21)
(0.259222 -0.547203 -7.58977e-21)
(0.379233 -0.13193 2.3301e-22)
(0.524626 0.264639 0)
(0.620334 0.506894 9.1565e-23)
(0.697143 0.588008 0)
(0.765166 0.605108 -1.79674e-22)
(0.731809 0.654181 -8.87996e-23)
(0.620057 0.674498 -2.55344e-22)
(0.575856 0.518788 5.93555e-21)
(0.630335 0.191048 -5.66618e-21)
(0.717698 -0.160594 -4.17851e-21)
(0.805051 -0.365864 4.35401e-21)
(0.883129 -0.416972 1.4543e-22)
(0.848429 -0.454649 -9.16117e-22)
(0.719617 -0.506005 9.59596e-22)
(0.659969 -0.405161 7.97887e-22)
(0.735465 -0.154092 -1.38952e-21)
(0.826257 0.120181 6.60468e-22)
(0.833894 0.374922 1.54803e-22)
(0.800188 0.540182 0)
(0.758057 0.459213 3.78619e-22)
(0.736495 0.177219 1.17854e-22)
(0.714588 -0.169321 -1.27432e-22)
(0.69992 -0.380307 -5.13584e-22)
(0.688246 -0.389333 3.57272e-22)
(0.705869 -0.217516 2.71596e-24)
(0.736406 0.0228498 -1.25795e-23)
(0.773849 0.156677 -7.6204e-23)
(0.73855 0.317612 -6.56263e-23)
(0.749847 0.17088 4.53249e-24)
(0.567237 -0.188124 7.85754e-20)
(0.632486 -0.385123 -7.56115e-20)
(0.694946 -0.564856 0)
(0.722475 -0.700047 4.2449e-20)
(0.718821 -0.754177 -3.98733e-20)
(0.698444 -0.704792 3.41443e-22)
(0.621144 -0.637547 0)
(0.44289 -0.640353 2.04367e-22)
(0.279297 -0.569323 0)
(0.289844 -0.24574 -3.74974e-22)
(0.402693 0.149546 -9.56336e-21)
(0.52209 0.420843 9.12304e-21)
(0.650363 0.533056 5.60594e-21)
(0.746637 0.600877 -1.12392e-20)
(0.743572 0.69997 5.49367e-21)
(0.67509 0.725261 2.58927e-22)
(0.660029 0.540186 0)
(0.724219 0.184193 -7.08944e-21)
(0.803988 -0.181347 5.56354e-21)
(0.860403 -0.395347 -2.31456e-22)
(0.91187 -0.423954 1.6969e-22)
(0.874574 -0.421733 1.58641e-21)
(0.757257 -0.471048 -1.52815e-21)
(0.691615 -0.413806 -1.20221e-21)
(0.744931 -0.190497 1.23573e-21)
(0.821882 0.103891 0)
(0.827051 0.380193 -1.56121e-22)
(0.789779 0.547698 -2.89385e-22)
(0.749961 0.467817 9.81005e-22)
(0.739252 0.187486 -5.29673e-22)
(0.726656 -0.160601 -1.21613e-21)
(0.714577 -0.378605 4.15199e-22)
(0.713068 -0.393303 3.95279e-22)
(0.728288 -0.224962 -1.1095e-22)
(0.748732 0.0160087 -6.19171e-23)
(0.774805 0.156676 1.36266e-22)
(0.730407 0.320272 -3.28485e-23)
(0.749751 0.169094 8.26917e-24)
(0.825631 -0.210699 5.60379e-22)
(0.893589 -0.387072 6.7348e-20)
(0.946954 -0.549552 -1.20336e-19)
(0.953747 -0.667384 5.26031e-20)
(0.901027 -0.727267 4.9608e-22)
(0.815664 -0.696791 -3.50455e-22)
(0.751425 -0.570739 0)
(0.622642 -0.505086 0)
(0.398301 -0.50306 0)
(0.270212 -0.324192 -5.9508e-21)
(0.322094 0.0214315 5.69649e-21)
(0.44819 0.301169 6.58928e-23)
(0.60601 0.440013 -1.82695e-22)
(0.736603 0.546836 1.48985e-22)
(0.756251 0.684892 3.62589e-22)
(0.695848 0.746447 0)
(0.710309 0.564801 1.43553e-20)
(0.80491 0.194621 -1.32278e-20)
(0.889796 -0.179695 7.86387e-22)
(0.920243 -0.408552 0)
(0.94876 -0.431668 -3.22696e-22)
(0.908082 -0.397387 0)
(0.795252 -0.439028 -1.74218e-22)
(0.731195 -0.418015 1.14401e-22)
(0.770166 -0.225352 -1.15544e-22)
(0.831165 0.0730432 0)
(0.829476 0.370546 0)
(0.782652 0.562732 1.57918e-21)
(0.746249 0.487977 -2.3368e-21)
(0.748593 0.20235 -1.54335e-22)
(0.745262 -0.149254 1.47772e-21)
(0.732289 -0.375945 7.97532e-22)
(0.737191 -0.398043 -1.15891e-21)
(0.751419 -0.232217 1.44102e-22)
(0.762345 0.0105366 3.60931e-23)
(0.776216 0.158296 0)
(0.723342 0.323149 5.47778e-23)
(0.751347 0.166841 0)
(1.06473 -0.238006 -5.82115e-22)
(1.1256 -0.382618 0)
(1.16045 -0.52029 9.3068e-22)
(1.13342 -0.6065 -7.24846e-22)
(1.05897 -0.625455 -9.81699e-22)
(0.925223 -0.625613 3.14843e-22)
(0.800403 -0.544272 9.89673e-21)
(0.730275 -0.41279 -1.45628e-20)
(0.576142 -0.376361 4.67023e-21)
(0.365423 -0.319181 0)
(0.314911 -0.0923869 1.24596e-22)
(0.426603 0.159122 -6.80882e-23)
(0.609941 0.322165 -1.25397e-21)
(0.738166 0.487127 1.29029e-21)
(0.75878 0.695437 -1.736e-22)
(0.755177 0.774453 1.06317e-20)
(0.797301 0.579954 3.31633e-21)
(0.888704 0.203857 -2.87016e-20)
(0.973094 -0.169886 1.42523e-20)
(0.983106 -0.408507 -8.53309e-21)
(0.990072 -0.432239 2.49517e-21)
(0.945489 -0.368238 1.37034e-21)
(0.828226 -0.404179 2.95718e-21)
(0.764246 -0.423941 -5.18995e-22)
(0.803178 -0.262723 0)
(0.849003 0.0519317 0)
(0.832852 0.376925 0)
(0.779387 0.57133 0)
(0.750013 0.493354 -2.0251e-21)
(0.763638 0.21152 1.58964e-21)
(0.768883 -0.137728 2.35179e-21)
(0.753393 -0.372886 -1.39705e-21)
(0.76021 -0.403754 5.37003e-22)
(0.773716 -0.23949 -2.90136e-22)
(0.776376 0.0066485 1.43389e-24)
(0.777878 0.161509 -2.42927e-24)
(0.717587 0.325741 -1.88873e-23)
(0.754778 0.163956 0)
(1.28243 -0.242434 0)
(1.30526 -0.347627 1.09468e-19)
(1.30262 -0.445279 -1.0391e-19)
(1.23249 -0.52676 -7.16701e-20)
(1.12514 -0.536621 6.87557e-20)
(1.00493 -0.51033 -1.98804e-23)
(0.853577 -0.488345 2.07131e-22)
(0.759818 -0.40107 0)
(0.702205 -0.294118 -2.12652e-21)
(0.539464 -0.244813 2.06458e-21)
(0.396406 -0.154794 -7.71593e-24)
(0.424982 0.00153645 -3.24094e-21)
(0.595045 0.172881 3.99777e-21)
(0.758968 0.386267 -5.46578e-21)
(0.815137 0.616191 4.39194e-21)
(0.789179 0.74752 2.48924e-22)
(0.802308 0.620539 4.46333e-22)
(0.924715 0.256494 0)
(1.04499 -0.122279 0)
(1.04694 -0.382704 2.51372e-24)
(1.03171 -0.428837 -7.94209e-24)
(0.991686 -0.342921 -2.1832e-22)
(0.868041 -0.365189 1.52781e-22)
(0.785069 -0.423273 1.34406e-22)
(0.827889 -0.29806 -1.29234e-21)
(0.870368 0.0126211 1.22952e-21)
(0.846446 0.356278 1.91383e-22)
(0.783595 0.581706 0)
(0.756852 0.51764 -4.25456e-22)
(0.781736 0.230923 0)
(0.796577 -0.12136 -2.50969e-21)
(0.778199 -0.367245 1.85985e-21)
(0.782559 -0.409518 0)
(0.794122 -0.246937 -1.5693e-23)
(0.790292 0.00325284 -1.09702e-23)
(0.779544 0.165835 1.80796e-23)
(0.712877 0.328369 0)
(0.760049 0.160603 -1.50191e-23)
(1.39581 -0.203101 -1.93474e-22)
(1.38212 -0.278271 0)
(1.33976 -0.344211 -8.38033e-20)
(1.25396 -0.396765 7.97066e-20)
(1.13509 -0.431196 5.02937e-20)
(1.02468 -0.424843 -4.81904e-20)
(0.915365 -0.394494 0)
(0.800895 -0.369074 -1.06494e-20)
(0.749956 -0.291465 1.01315e-20)
(0.682331 -0.170562 0)
(0.554584 -0.0912278 -3.18699e-23)
(0.487117 -0.0516466 -1.17335e-22)
(0.554771 0.0230051 4.35548e-23)
(0.718216 0.25667 -2.00407e-21)
(0.811379 0.586452 1.92009e-21)
(0.818093 0.770963 1.62225e-20)
(0.880143 0.617122 -1.53426e-20)
(0.997586 0.243835 -2.83011e-20)
(1.11783 -0.108063 2.68821e-20)
(1.10749 -0.358052 9.66236e-22)
(1.06419 -0.427451 5.33438e-21)
(1.0327 -0.323908 -7.77805e-21)
(0.916774 -0.320478 2.96103e-21)
(0.804497 -0.417504 -1.4889e-21)
(0.83824 -0.342923 6.55146e-22)
(0.889344 -0.0145165 9.03112e-22)
(0.856817 0.36002 1.75943e-21)
(0.787952 0.589695 -2.00254e-21)
(0.769951 0.516905 4.35337e-22)
(0.80259 0.236709 -5.54145e-22)
(0.826511 -0.107518 -2.28172e-21)
(0.805558 -0.36095 -1.38143e-23)
(0.80471 -0.416049 7.99987e-22)
(0.812204 -0.255037 2.17303e-24)
(0.802942 0.00161166 0)
(0.780676 0.171781 -9.49931e-24)
(0.709704 0.330216 3.35767e-23)
(0.767405 0.156453 -1.67569e-23)
(1.36515 -0.146452 1.02188e-19)
(1.34122 -0.190621 0)
(1.2959 -0.246453 7.8762e-20)
(1.22956 -0.298248 -1.41518e-19)
(1.15103 -0.332264 6.30254e-20)
(1.06026 -0.363838 0)
(0.979581 -0.359392 0)
(0.888637 -0.335826 0)
(0.800018 -0.321234 0)
(0.738071 -0.227939 0)
(0.679639 -0.0936493 3.40435e-23)
(0.618231 -0.0463975 6.07099e-21)
(0.584433 -0.0606478 -5.76664e-21)
(0.646295 0.0774195 -1.6124e-23)
(0.753711 0.410267 0)
(0.819163 0.695269 0)
(0.831654 0.684304 2.89954e-22)
(0.95945 0.35389 0)
(1.15565 -0.0182883 -2.2796e-20)
(1.16927 -0.291405 2.12873e-20)
(1.0977 -0.410604 -5.11004e-21)
(1.06962 -0.316712 1.80846e-21)
(0.971927 -0.277419 2.90216e-21)
(0.835768 -0.38783 0)
(0.83775 -0.378039 -1.08776e-21)
(0.899529 -0.0773284 1.98781e-21)
(0.873629 0.321103 -9.74285e-22)
(0.804593 0.592604 1.50551e-22)
(0.78179 0.547187 0)
(0.822901 0.264648 5.67508e-22)
(0.858998 -0.0855866 5.35438e-22)
(0.835219 -0.349349 1.41195e-21)
(0.826826 -0.418205 -8.50615e-22)
(0.828779 -0.262729 -2.19596e-24)
(0.814806 -0.00190283 0)
(0.781866 0.177361 -3.92317e-24)
(0.70777 0.331726 0)
(0.776706 0.151981 1.79711e-23)
(1.30493 -0.0846925 0)
(1.29694 -0.12603 0)
(1.26591 -0.160312 0)
(1.21376 -0.202919 0)
(1.16183 -0.230244 0)
(1.10063 -0.249805 0)
(1.03216 -0.263181 0)
(0.970695 -0.237871 0)
(0.897774 -0.220893 0)
(0.807746 -0.188585 0)
(0.765758 -0.083373 0)
(0.754484 -0.00546711 0)
(0.677781 -0.0431422 0)
(0.627296 0.00329245 0)
(0.720383 0.311523 0)
(0.779057 0.642182 0)
(0.81848 0.625611 0)
(1.04038 0.272157 0)
(1.22737 -0.0344004 0)
(1.2215 -0.235969 0)
(1.12395 -0.367375 0)
(1.09199 -0.294387 0)
(1.02375 -0.226641 0)
(0.877476 -0.348626 0)
(0.835091 -0.392141 0)
(0.893544 -0.105416 0)
(0.882337 0.314073 0)
(0.816321 0.594758 0)
(0.798768 0.537436 0)
(0.850815 0.259661 0)
(0.894392 -0.0698549 0)
(0.866622 -0.330937 0)
(0.848425 -0.412374 0)
(0.843378 -0.263973 0)
(0.82487 -9.00089e-05 0)
(0.781361 0.185524 0)
(0.707388 0.332012 0)
(0.788043 0.146306 0)
(1.26609 -0.0680604 0)
(1.26067 -0.113336 0)
(1.23614 -0.151661 0)
(1.19138 -0.191761 0)
(1.13936 -0.216675 0)
(1.08704 -0.240391 0)
(1.02422 -0.248432 0)
(0.961123 -0.224895 0)
(0.908072 -0.210898 0)
(0.848726 -0.161781 0)
(0.797351 -0.0664977 0)
(0.810064 0.00504173 0)
(0.791523 0.00383869 0)
(0.692044 0.0407448 0)
(0.681464 0.295979 0)
(0.718707 0.606926 0)
(0.882545 0.55019 0)
(1.14837 0.189926 0)
(1.28508 -0.0774061 0)
(1.24888 -0.238367 0)
(1.1383 -0.353924 0)
(1.08612 -0.277903 0)
(1.024 -0.199952 0)
(0.898593 -0.322431 0)
(0.850485 -0.385604 0)
(0.89711 -0.101585 0)
(0.891233 0.322772 0)
(0.830291 0.600605 0)
(0.822116 0.532435 0)
(0.882692 0.245885 0)
(0.9341 -0.0809171 0)
(0.901115 -0.334538 0)
(0.870503 -0.412412 0)
(0.856671 -0.259839 0)
(0.833363 0.008511 0)
(0.779871 0.196136 0)
(0.709134 0.331724 0)
(0.801361 0.139647 0)
(1.2295 -0.0518872 0)
(1.22844 -0.0882462 0)
(1.20929 -0.117035 0)
(1.17251 -0.146362 0)
(1.12889 -0.163752 0)
(1.08771 -0.172983 0)
(1.03268 -0.181112 0)
(0.985646 -0.158729 0)
(0.937342 -0.148385 0)
(0.885266 -0.114708 0)
(0.8383 -0.045842 0)
(0.836756 0.00408083 0)
(0.851903 0.0244792 0)
(0.783202 0.0749322 0)
(0.720448 0.295512 0)
(0.782444 0.551272 0)
(1.03681 0.444751 0)
(1.25353 0.103876 0)
(1.32298 -0.0901863 0)
(1.26644 -0.18816 0)
(1.15097 -0.307699 0)
(1.09916 -0.254137 0)
(1.05226 -0.159843 0)
(0.928806 -0.28545 0)
(0.865102 -0.389022 0)
(0.902865 -0.115889 0)
(0.905821 0.32832 0)
(0.851649 0.609576 0)
(0.851292 0.525354 0)
(0.918527 0.231241 0)
(0.977115 -0.0766424 0)
(0.940342 -0.319353 0)
(0.894298 -0.404886 0)
(0.868526 -0.256359 0)
(0.840362 0.0173086 0)
(0.777252 0.208856 0)
(0.713492 0.329915 0)
(0.818285 0.131314 0)
(1.19888 -0.0355504 0)
(1.19831 -0.0650756 0)
(1.18188 -0.0900112 0)
(1.15357 -0.114058 0)
(1.11434 -0.131107 0)
(1.08038 -0.139546 0)
(1.03491 -0.150761 0)
(0.995536 -0.131853 0)
(0.959237 -0.124684 0)
(0.914715 -0.0965194 0)
(0.885683 -0.0293055 0)
(0.873975 0.00234413 0)
(0.88684 0.0338792 0)
(0.851598 0.108483 0)
(0.813144 0.27744 0)
(0.935751 0.443267 0)
(1.18647 0.326246 0)
(1.31294 0.0547429 0)
(1.32299 -0.084072 0)
(1.25891 -0.15839 0)
(1.14876 -0.276657 0)
(1.0853 -0.236362 0)
(1.04976 -0.1337 0)
(0.950006 -0.249423 0)
(0.884074 -0.379085 0)
(0.915431 -0.120954 0)
(0.918754 0.338373 0)
(0.872547 0.621247 0)
(0.884817 0.517668 0)
(0.959515 0.212382 0)
(1.02358 -0.0840013 0)
(0.982481 -0.313805 0)
(0.919324 -0.396713 0)
(0.8778 -0.249113 0)
(0.845451 0.0289426 0)
(0.774275 0.222675 0)
(0.721852 0.325311 0)
(0.839841 0.12114 0)
(1.17021 -0.0220979 0)
(1.17091 -0.0456673 0)
(1.15786 -0.0663318 0)
(1.1361 -0.0846393 0)
(1.10442 -0.0997769 0)
(1.07623 -0.103681 0)
(1.0426 -0.111569 0)
(1.00779 -0.0963725 0)
(0.984055 -0.085862 0)
(0.943726 -0.0679676 0)
(0.92331 -0.0119413 0)
(0.916427 0.0105864 0)
(0.914547 0.040415 0)
(0.902557 0.121164 0)
(0.905964 0.22643 0)
(1.04723 0.317078 0)
(1.24096 0.236186 0)
(1.30006 0.0339189 0)
(1.28818 -0.0697052 0)
(1.23875 -0.115308 0)
(1.14562 -0.231117 0)
(1.08704 -0.209317 0)
(1.06219 -0.102659 0)
(0.979695 -0.214868 0)
(0.904165 -0.372729 0)
(0.930591 -0.134663 0)
(0.94688 0.337978 0)
(0.908659 0.625736 0)
(0.930263 0.503335 0)
(1.00761 0.189678 0)
(1.07173 -0.0835635 0)
(1.0276 -0.293775 0)
(0.944939 -0.379676 0)
(0.883859 -0.238149 0)
(0.846379 0.0430715 0)
(0.769473 0.237029 0)
(0.735223 0.317103 0)
(0.866918 0.108814 0)
(1.14606 -0.0106205 0)
(1.14841 -0.0283357 0)
(1.13904 -0.0445778 0)
(1.12158 -0.0587311 0)
(1.09764 -0.0707415 0)
(1.07327 -0.0737311 0)
(1.04936 -0.0793323 0)
(1.01979 -0.0693767 0)
(1.00161 -0.0593104 0)
(0.97208 -0.0467991 0)
(0.95344 -0.00485273 0)
(0.954737 0.0173033 0)
(0.946148 0.0435131 0)
(0.948745 0.111386 0)
(0.978726 0.170943 0)
(1.08226 0.218078 0)
(1.2191 0.171534 0)
(1.25545 0.0290756 0)
(1.23898 -0.0507699 0)
(1.21516 -0.0838531 0)
(1.13458 -0.196338 0)
(1.07329 -0.193173 0)
(1.0619 -0.0831315 0)
(0.996484 -0.180538 0)
(0.920073 -0.36049 0)
(0.937205 -0.143142 0)
(0.960614 0.341196 0)
(0.935029 0.629037 0)
(0.986438 0.488063 0)
(1.06685 0.166604 0)
(1.11822 -0.0888827 0)
(1.07223 -0.276564 0)
(0.969543 -0.357883 0)
(0.885353 -0.222699 0)
(0.84278 0.0599451 0)
(0.762964 0.250615 0)
(0.756405 0.303335 0)
(0.900694 0.0938363 0)
(1.12856 0.000159191 0)
(1.13041 -0.0133994 0)
(1.1235 -0.0261571 0)
(1.10988 -0.0371254 0)
(1.09188 -0.0464926 0)
(1.07264 -0.0489108 0)
(1.05418 -0.052959 0)
(1.03236 -0.0459317 0)
(1.01707 -0.0378051 0)
(0.998484 -0.0266052 0)
(0.982361 0.00239938 0)
(0.984072 0.0223747 0)
(0.980481 0.0450619 0)
(0.986856 0.0922875 0)
(1.02362 0.125294 0)
(1.08633 0.147626 0)
(1.17673 0.122095 0)
(1.21092 0.0264111 0)
(1.19182 -0.0415533 0)
(1.18622 -0.063237 0)
(1.1328 -0.155341 0)
(1.06058 -0.168348 0)
(1.06333 -0.0638537 0)
(1.02368 -0.143589 0)
(0.93052 -0.342175 0)
(0.933205 -0.155783 0)
(0.95885 0.337534 0)
(0.966477 0.622378 0)
(1.06456 0.463626 0)
(1.13883 0.145087 0)
(1.16086 -0.0858711 0)
(1.11246 -0.247264 0)
(0.996174 -0.321904 0)
(0.879124 -0.200743 0)
(0.836321 0.0775848 0)
(0.760791 0.260937 0)
(0.79019 0.282628 0)
(0.941968 0.0764297 0)
(1.11392 0.00929525 0)
(1.1156 -0.00120088 0)
(1.11101 -0.0109757 0)
(1.10141 -0.0191093 0)
(1.08766 -0.0264037 0)
(1.07347 -0.0282566 0)
(1.05902 -0.0314354 0)
(1.04381 -0.0261776 0)
(1.03175 -0.0204423 0)
(1.01876 -0.011413 0)
(1.00901 0.00813478 0)
(1.00792 0.0232832 0)
(1.01023 0.0427612 0)
(1.01714 0.0716184 0)
(1.04747 0.0891495 0)
(1.0872 0.101287 0)
(1.142 0.0817204 0)
(1.17335 0.0214475 0)
(1.15972 -0.0305226 0)
(1.15542 -0.0492535 0)
(1.12602 -0.119586 0)
(1.04926 -0.146247 0)
(1.05067 -0.0614033 0)
(1.04793 -0.112976 0)
(0.940362 -0.305389 0)
(0.904135 -0.162163 0)
(0.950618 0.311181 0)
(1.00521 0.585185 0)
(1.132 0.42979 0)
(1.20084 0.133819 0)
(1.19405 -0.0780963 0)
(1.13806 -0.22055 0)
(1.02437 -0.277568 0)
(0.86616 -0.168733 0)
(0.812389 0.0981203 0)
(0.755066 0.266026 0)
(0.836213 0.252682 0)
(0.990086 0.0565095 0)
(1.10217 0.0165417 0)
(1.10472 0.00895017 0)
(1.10195 0.00156227 0)
(1.09527 -0.00447936 0)
(1.08494 -0.0102082 0)
(1.07463 -0.0118838 0)
(1.06409 -0.0142866 0)
(1.05315 -0.0109574 0)
(1.0451 -0.00705192 0)
(1.0354 -0.000475822 0)
(1.0308 0.012564 0)
(1.02876 0.0230627 0)
(1.03232 0.0372301 0)
(1.04081 0.0546275 0)
(1.06015 0.0623218 0)
(1.08727 0.0690125 0)
(1.12024 0.0529199 0)
(1.14213 0.0156038 0)
(1.1361 -0.0229498 0)
(1.12812 -0.0427224 0)
(1.11529 -0.0896622 0)
(1.05072 -0.116085 0)
(1.03732 -0.0616866 0)
(1.05431 -0.0880908 0)
(0.953703 -0.250608 0)
(0.852272 -0.150359 0)
(0.887891 0.28298 0)
(0.981767 0.531483 0)
(1.14296 0.380364 0)
(1.22857 0.119787 0)
(1.21612 -0.0612488 0)
(1.14999 -0.18633 0)
(1.05033 -0.222911 0)
(0.868953 -0.12157 0)
(0.788952 0.119812 0)
(0.763413 0.256376 0)
(0.904572 0.209108 0)
(1.04561 0.0345341 0)
(1.09426 0.0223654 0)
(1.09701 0.0168521 0)
(1.09553 0.0111245 0)
(1.09094 0.00648717 0)
(1.08369 0.00206317 0)
(1.07626 0.000471373 0)
(1.06904 -0.00138187 0)
(1.06134 0.000457579 0)
(1.05624 0.00280966 0)
(1.04957 0.00726004 0)
(1.04726 0.0150992 0)
(1.04627 0.0221367 0)
(1.04884 0.0308952 0)
(1.05705 0.04102 0)
(1.06875 0.0432349 0)
(1.08642 0.0464826 0)
(1.10696 0.0333447 0)
(1.11893 0.0097982 0)
(1.11862 -0.0170364 0)
(1.10978 -0.0344093 0)
(1.09995 -0.0663824 0)
(1.0548 -0.086771 0)
(1.03011 -0.0596979 0)
(1.04425 -0.070957 0)
(0.967301 -0.181268 0)
(0.821993 -0.107876 0)
(0.815892 0.245968 0)
(0.948498 0.443038 0)
(1.14368 0.307476 0)
(1.23704 0.0998302 0)
(1.22781 -0.0421549 0)
(1.14862 -0.15299 0)
(1.05799 -0.169461 0)
(0.894493 -0.0675514 0)
(0.818264 0.136659 0)
(0.833742 0.227846 0)
(1.00455 0.156821 0)
(1.10471 0.0141651 0)
(1.08909 0.0268381 0)
(1.09167 0.0226842 0)
(1.09124 0.0182514 0)
(1.08835 0.0146774 0)
(1.0836 0.0112238 0)
(1.07844 0.00969298 0)
(1.07366 0.00801785 0)
(1.0685 0.00883062 0)
(1.06527 0.00976045 0)
(1.06116 0.0125353 0)
(1.05991 0.0165671 0)
(1.05982 0.020988 0)
(1.06158 0.0254642 0)
(1.06791 0.0308949 0)
(1.07515 0.0304852 0)
(1.08559 0.0312333 0)
(1.09821 0.020872 0)
(1.10409 0.00647762 0)
(1.10477 -0.0126036 0)
(1.09744 -0.0265216 0)
(1.0872 -0.048374 0)
(1.0579 -0.0609905 0)
(1.03234 -0.0499705 0)
(1.03269 -0.0521436 0)
(0.980376 -0.111621 0)
(0.848737 -0.0500307 0)
(0.827753 0.197742 0)
(0.97761 0.331273 0)
(1.15885 0.228784 0)
(1.2256 0.0784005 0)
(1.22138 -0.0199665 0)
(1.1476 -0.110763 0)
(1.06255 -0.115461 0)
(0.934164 -0.0227019 0)
(0.906158 0.140085 0)
(0.956713 0.189742 0)
(1.1063 0.111581 0)
(1.15189 0.00206397 0)
(1.08608 0.0295332 0)
(1.08863 0.0263854 0)
(1.08906 0.0229375 0)
(1.08747 0.0201601 0)
(1.08452 0.0173227 0)
(1.08108 0.015863 0)
(1.07806 0.014163 0)
(1.07483 0.0142477 0)
(1.07291 0.0140816 0)
(1.07056 0.0155092 0)
(1.06994 0.016996 0)
(1.07015 0.0193659 0)
(1.07148 0.020935 0)
(1.07553 0.0234395 0)
(1.08003 0.0215566 0)
(1.08595 0.0210942 0)
(1.09321 0.0128108 0)
(1.09546 0.00414006 0)
(1.0954 -0.00955308 0)
(1.08956 -0.0191731 0)
(1.08004 -0.0336235 0)
(1.06044 -0.0404182 0)
(1.03951 -0.0370445 0)
(1.0308 -0.0332029 0)
(0.99621 -0.0568289 0)
(0.908354 -0.00540348 0)
(0.901302 0.150025 0)
(1.02705 0.229961 0)
(1.16125 0.166368 0)
(1.19912 0.0654281 0)
(1.19951 -0.000454901 0)
(1.14051 -0.0731654 0)
(1.07101 -0.0696936 0)
(0.97602 0.00235915 0)
(0.996253 0.123339 0)
(1.05915 0.149148 0)
(1.16467 0.0798937 0)
(1.17347 -0.00216738 0)
(1.08508 0.0314341 0)
(1.08762 0.0290792 0)
(1.08864 0.0263535 0)
(1.08798 0.0241567 0)
(1.08635 0.0217421 0)
(1.0842 0.020378 0)
(1.08242 0.0186492 0)
(1.08048 0.0182581 0)
(1.07944 0.0173567 0)
(1.07818 0.0178191 0)
(1.07799 0.0177208 0)
(1.07822 0.0187515 0)
(1.07922 0.0184898 0)
(1.08148 0.0194872 0)
(1.08417 0.016942 0)
(1.08698 0.0162805 0)
(1.09079 0.00971574 0)
(1.09122 0.00483258 0)
(1.09073 -0.00477782 0)
(1.08588 -0.010588 0)
(1.0779 -0.0200541 0)
(1.06423 -0.0225255 0)
(1.04901 -0.0217021 0)
(1.03786 -0.0144974 0)
(1.01625 -0.018407 0)
(0.967889 0.0194428 0)
(0.973725 0.11052 0)
(1.05682 0.156438 0)
(1.14606 0.124183 0)
(1.1688 0.05626 0)
(1.17577 0.0149605 0)
(1.13247 -0.0401724 0)
(1.08545 -0.0312815 0)
(1.01854 0.014632 0)
(1.05524 0.0986891 0)
(1.10798 0.116527 0)
(1.1776 0.0618991 0)
(1.17575 -0.00105911 0)
(1.08636 0.0308799 0)
(1.08873 0.0290436 0)
(1.09003 0.0267959 0)
(1.08998 0.0249806 0)
(1.08925 0.0228458 0)
(1.08801 0.0215263 0)
(1.0871 0.0197475 0)
(1.08603 0.0190183 0)
(1.08564 0.0176333 0)
(1.08504 0.0174341 0)
(1.08518 0.0163375 0)
(1.08535 0.0165021 0)
(1.08618 0.0150797 0)
(1.08728 0.0152386 0)
(1.08899 0.0123003 0)
(1.09011 0.0116244 0)
(1.09203 0.0063672 0)
(1.0913 0.00370622 0)
(1.09025 -0.00321156 0)
(1.08607 -0.00618601 0)
(1.08024 -0.0122978 0)
(1.07068 -0.0118366 0)
(1.06061 -0.0113143 0)
(1.05041 -0.00298675 0)
(1.03823 0.00146266 0)
(1.01466 0.0277051 0)
(1.0246 0.0797931 0)
(1.0727 0.104696 0)
(1.13175 0.0920344 0)
(1.14703 0.046199 0)
(1.15798 0.0226158 0)
(1.12704 -0.0192192 0)
(1.10127 -0.00731715 0)
(1.05587 0.019085 0)
(1.08848 0.0743551 0)
(1.12582 0.0900737 0)
(1.17297 0.0475329 0)
(1.17168 -0.00179565 0)
(1.0889 0.0321695 0)
(1.09106 0.0307469 0)
(1.09251 0.0289169 0)
(1.09288 0.0274779 0)
(1.09277 0.0256501 0)
(1.09215 0.0245131 0)
(1.09183 0.0228355 0)
(1.09131 0.0220705 0)
(1.09136 0.0205166 0)
(1.0911 0.0200978 0)
(1.09146 0.0185471 0)
(1.0915 0.0184081 0)
(1.09221 0.0164934 0)
(1.09253 0.0164428 0)
(1.09357 0.0135507 0)
(1.09361 0.0131759 0)
(1.09453 0.00895966 0)
(1.09341 0.00784985 0)
(1.09272 0.00294641 0)
(1.08951 0.00225833 0)
(1.08587 -0.00167967 0)
(1.07915 0.000395266 0)
(1.07341 0.000940901 0)
(1.06594 0.00838467 0)
(1.06072 0.0149863 0)
(1.05012 0.0317192 0)
(1.06019 0.061921 0)
(1.08551 0.073626 0)
(1.12431 0.0722467 0)
(1.13362 0.0394738 0)
(1.14663 0.0296269 0)
(1.12525 -0.00234833 0)