/*--------------------------------*- C++ -*----------------------------------*\
| =========                 |                                                 |
| \\      /  F ield         | OpenFOAM: The Open Source CFD Toolbox           |
|  \\    /   O peration     | Version:  2312                                  |
|   \\  /    A nd           | Website:  www.openfoam.com                      |
|    \\/     M anipulation  |                                                 |
\*---------------------------------------------------------------------------*/
FoamFile
{
    version     2.0;
    format      ascii;
    arch        "LSB;label=32;scalar=64";
    class       volVectorField;
    location    "89";
    object      U;
}
// * * * * * * * * * * * * * * * * * * * * * * * * * * * * * * * * * * * * * //

dimensions      [0 1 -1 0 0 0 0];

internalField   nonuniform List<vector> 
5478
(
(-0.027009 0.0177316 -8.27655e-20)
(-0.0421876 0.0194024 0)
(-0.0246535 0.00758739 1.27845e-19)
(0.0423648 -0.00617807 -2.24189e-19)
(0.169603 -0.0177357 1.45899e-19)
(0.350288 -0.0224063 -4.5118e-20)
(0.557975 -0.0184616 -7.2345e-20)
(0.76264 -0.00722126 0)
(0.940165 0.00993741 0)
(1.07649 0.0269494 7.0962e-20)
(1.17425 0.0432683 -3.64551e-20)
(1.22101 0.0570736 -5.01465e-20)
(1.24626 0.0570715 -1.87496e-20)
(1.23997 0.0672188 0)
(1.21162 0.0452349 4.5861e-20)
(-0.0309764 0.0204446 1.66096e-19)
(-0.0300716 0.0242591 0)
(0.0323538 0.0138974 0)
(0.171877 0.00381728 -1.11644e-19)
(0.384086 0.00325633 1.47241e-19)
(0.629798 0.0137228 4.16306e-20)
(0.860697 0.0308952 -6.67763e-20)
(1.04385 0.0495898 5.92077e-20)
(1.16532 0.0645558 1.32709e-19)
(1.23085 0.0737261 -1.14053e-19)
(1.24646 0.0779209 5.30152e-22)
(1.23825 0.0738257 0)
(1.21758 0.0712678 1.87169e-20)
(1.19215 0.0638684 0)
(1.19244 0.0548337 0)
(-0.0295639 0.0167389 -3.63148e-22)
(0.00105904 0.0158859 -7.65224e-20)
(0.130712 0.00921608 1.07073e-22)
(0.363581 0.014583 0)
(0.647309 0.0357342 -4.81386e-20)
(0.906705 0.0631365 4.03058e-20)
(1.09593 0.0867444 3.32112e-20)
(1.20432 0.100752 0)
(1.24687 0.104755 -4.5166e-20)
(1.24541 0.102099 3.62209e-20)
(1.22949 0.0947131 2.8942e-20)
(1.21289 0.0900463 0)
(1.20262 0.0827699 0)
(1.20398 0.0812003 -5.55498e-20)
(1.2016 0.0721038 4.94587e-20)
(-0.0214205 0.0101328 -8.86827e-20)
(0.0621355 0.00244956 7.57274e-20)
(0.288842 0.0101916 -6.55637e-20)
(0.608291 0.043961 5.68651e-20)
(0.904704 0.0858891 9.57649e-20)
(1.10965 0.118081 -7.96241e-20)
(1.21592 0.133834 -3.31891e-20)
(1.25076 0.135548 2.46837e-20)
(1.24811 0.129868 -2.40834e-20)
(1.23677 0.121396 0)
(1.22619 0.115665 0)
(1.21752 0.107754 -4.18859e-20)
(1.20985 0.1034 5.36297e-20)
(1.19431 0.0946394 -2.98871e-20)
(1.17901 0.0856616 0)
(-0.00293251 0.00264073 4.47728e-20)
(0.165759 -0.00535315 3.77042e-20)
(0.502509 0.0349692 -1.34698e-19)
(0.850641 0.0958707 1.45836e-21)
(1.09085 0.142057 -1.89532e-21)
(1.2118 0.163924 -1.11037e-21)
(1.25226 0.167208 3.09184e-20)
(1.25456 0.161485 2.59713e-20)
(1.24564 0.152884 1.80441e-20)
(1.23286 0.144972 -3.43419e-21)
(1.21806 0.135384 -4.05316e-20)
(1.20254 0.127231 0)
(1.18635 0.118132 1.72118e-20)
(1.17648 0.108964 -1.2438e-20)
(1.17247 0.102981 2.26421e-20)
(0.0318546 -0.00413591 -9.50944e-20)
(0.31753 0.00600286 1.0294e-19)
(0.727036 0.0865009 -3.512e-20)
(1.03432 0.156451 2.66512e-20)
(1.19389 0.191667 -4.89338e-20)
(1.25186 0.200638 -3.60914e-20)
(1.26032 0.196532 1.01854e-21)
(1.25033 0.187384 0)
(1.23375 0.176932 3.69199e-20)
(1.21651 0.165306 -3.28319e-20)
(1.20159 0.155108 1.27629e-20)
(1.18974 0.144673 0)
(1.18185 0.135886 7.54993e-21)
(1.17276 0.125945 -1.29829e-20)
(1.15919 0.119258 0)
(0.0882647 -0.00537494 -1.18169e-20)
(0.499753 0.0474765 9.5531e-22)
(0.912981 0.153083 1.72695e-20)
(1.14953 0.21567 2.884e-20)
(1.24321 0.236702 -2.18562e-20)
(1.26223 0.235614 3.66365e-20)
(1.25196 0.2256 -8.34566e-21)
(1.23382 0.212863 0)
(1.21664 0.199517 -2.15882e-20)
(1.20197 0.187295 1.64958e-21)
(1.18878 0.175038 1.76188e-20)
(1.17624 0.163793 0)
(1.16285 0.152554 -1.09734e-20)
(1.15127 0.14155 0)
(1.14413 0.134724 6.44076e-21)
(0.166041 0.00604078 -1.29518e-20)
(0.673818 0.115531 0)
(1.0455 0.225665 1.79275e-20)
(1.21267 0.27344 0)
(1.25759 0.280167 0)
(1.25231 0.269786 0)
(1.23375 0.254683 -7.00174e-21)
(1.21495 0.238887 0)
(1.19761 0.223658 4.35784e-21)
(1.18157 0.20852 0)
(1.16739 0.194433 -5.45058e-21)
(1.15582 0.180852 0)
(1.14775 0.168347 3.41942e-21)
(1.14027 0.15696 0)
(1.12958 0.14868 2.14069e-21)
(0.0058469 -0.194681 -1.26311e-20)
(-0.0108472 -0.33005 0)
(-0.0539071 -0.35493 1.97935e-20)
(-0.100476 -0.347296 0)
(-0.145411 -0.333909 0)
(-0.186445 -0.313933 0)
(-0.221391 -0.28112 -1.31779e-20)
(-0.248615 -0.231206 0)
(-0.26717 -0.162117 1.09292e-20)
(-0.276819 -0.0735863 0)
(-0.277342 0.0328987 -1.73788e-20)
(-0.267461 0.153453 0)
(-0.246682 0.280933 1.28294e-20)
(-0.219086 0.405365 0)
(-0.176308 0.522626 8.68715e-21)
(0.0154116 -0.170026 6.13393e-20)
(-0.00169406 -0.280725 -4.25637e-20)
(-0.0522361 -0.295985 1.70955e-20)
(-0.107381 -0.285463 6.67012e-20)
(-0.161468 -0.273416 4.92499e-22)
(-0.213021 -0.25858 -5.4573e-20)
(-0.260092 -0.234492 3.75436e-20)
(-0.300566 -0.196629 0)
(-0.332233 -0.142484 2.87399e-20)
(-0.353185 -0.0713883 -5.75589e-22)
(-0.361816 0.0154984 -1.35225e-20)
(-0.356629 0.113256 0)
(-0.338815 0.218342 -3.09444e-20)
(-0.304044 0.327824 0)
(-0.242016 0.427118 -3.57417e-20)
(0.0217047 -0.137783 9.11283e-20)
(0.00636163 -0.224705 1.9932e-20)
(-0.0446375 -0.233379 -3.68073e-20)
(-0.0991991 -0.220711 -9.53973e-20)
(-0.15082 -0.208967 5.54476e-20)
(-0.19831 -0.19772 4.90533e-20)
(-0.240127 -0.18098 -8.46733e-20)
(-0.27431 -0.154388 0)
(-0.298426 -0.115563 -6.35069e-20)
(-0.310019 -0.0639076 5.64666e-20)
(-0.309378 -5.52066e-05 2.04684e-20)
(-0.293549 0.0733435 0)
(-0.250425 0.142816 1.81111e-20)
(-0.213696 0.226328 -1.97539e-20)
(-0.108138 0.283454 0)
(0.0234873 -0.104116 4.20873e-20)
(0.00970723 -0.169905 -1.15912e-19)
(-0.0380925 -0.175035 1.34379e-19)
(-0.0867339 -0.162074 -1.16903e-19)
(-0.128811 -0.150986 -5.05653e-20)
(-0.163117 -0.142868 4.39452e-20)
(-0.188511 -0.132705 4.11969e-20)
(-0.203687 -0.116421 3.18884e-20)
(-0.207288 -0.0917773 -7.97659e-20)
(-0.195846 -0.0579085 4.5052e-21)
(-0.165276 -0.0157896 1.78e-20)
(-0.140577 0.0360975 0)
(-0.0450087 0.0796198 1.85264e-20)
(-0.0104148 0.15652 4.8966e-20)
(0.147249 0.163653 -2.60902e-20)
(0.0198074 -0.0721514 -9.02683e-22)
(0.00490632 -0.120211 7.26017e-20)
(-0.0395023 -0.125637 -6.3779e-20)
(-0.081108 -0.11629 5.77845e-20)
(-0.111939 -0.108707 9.92598e-20)
(-0.130518 -0.105187 -8.59579e-20)
(-0.135812 -0.101952 -3.5715e-20)
(-0.126509 -0.0952511 -9.04909e-20)
(-0.10182 -0.0830643 7.84054e-20)
(-0.0633917 -0.0650654 0)
(0.00650214 -0.0332315 0)
(0.0507958 -0.000302969 4.25705e-20)
(0.210313 0.018064 -8.73907e-20)
(0.219184 0.0872031 2.75882e-20)
(0.453344 0.0832936 0)
(0.0103013 -0.0425246 -3.4366e-22)
(-0.00887357 -0.0757365 -7.29714e-20)
(-0.0501499 -0.0845199 1.89763e-19)
(-0.0840017 -0.0825599 -5.53993e-20)
(-0.101717 -0.0817975 -4.87269e-20)
(-0.10012 -0.0847641 4.20408e-20)
(-0.0769971 -0.0887579 3.57324e-20)
(-0.0312389 -0.0904698 5.55868e-20)
(0.0374499 -0.0873633 -9.60682e-20)
(0.124615 -0.0785583 3.67589e-20)
(0.236117 -0.0559711 2.82022e-20)
(0.326124 -0.0343323 0)
(0.522886 -0.0142521 0)
(0.552186 0.0245664 4.60328e-20)
(0.813841 0.0395383 -4.09471e-20)
(-0.00365936 -0.0155758 3.36049e-22)
(-0.0271695 -0.0353772 0)
(-0.0604963 -0.0477706 0)
(-0.0781318 -0.0538355 1.09262e-19)
(-0.0693649 -0.0605713 -4.83041e-20)
(-0.0283167 -0.0697075 4.14068e-20)
(0.0470481 -0.078361 6.74367e-20)
(0.153063 -0.0828778 -5.97948e-20)
(0.283532 -0.081324 4.67488e-20)
(0.426504 -0.0692477 -3.67861e-20)
(0.571263 -0.0523068 5.83614e-22)
(0.718681 -0.0293952 0)
(0.869132 -0.00254049 1.75453e-20)
(0.962352 0.0182635 0)
(1.13867 0.0441853 0)
(-0.0175906 0.00567611 -8.01055e-20)
(-0.0405696 -0.00170552 0)
(-0.0546278 -0.01505 -1.26372e-19)
(-0.0390886 -0.0266546 2.21817e-19)
(0.018601 -0.0387481 -2.41355e-19)
(0.123258 -0.049839 -3.84099e-20)
(0.268885 -0.0561784 7.21344e-20)
(0.439048 -0.055037 0)
(0.617798 -0.0463359 0)
(0.783791 -0.0279263 -7.03692e-20)
(0.932345 -0.0110034 -2.14666e-20)
(1.0609 0.0170475 4.923e-20)
(1.1439 0.0303991 -1.75732e-20)
(1.2252 0.0501955 0)
(1.25968 0.0566788 -4.66818e-20)
(-0.111521 0.686903 0)
(-0.0467034 0.83367 3.26596e-21)
(0.0214085 0.748234 -3.02619e-21)
(0.337224 0.322409 0)
(0.641565 -0.196411 0)
(0.776983 -0.546033 -1.32268e-22)
(0.804948 -0.627692 0)
(0.824762 -0.576672 0)
(0.719628 -0.620377 5.22448e-23)
(0.570169 -0.575014 0)
(0.623898 -0.23358 0)
(0.800757 0.0892706 -8.68903e-23)
(0.897978 0.307516 0)
(0.895577 0.487614 -8.76804e-23)
(0.907726 0.55188 -6.96788e-23)
(0.911339 0.491761 0)
(0.934135 0.246703 -5.18642e-22)
(0.971546 -0.111749 6.30169e-22)
(1.02927 -0.390686 0)
(1.04546 -0.55579 4.17657e-22)
(1.05751 -0.430839 -5.09971e-22)
(1.07452 -0.0110223 8.36742e-23)
(1.06889 0.388946 -2.15098e-22)
(1.078 0.601566 2.05533e-22)
(1.15158 0.350001 -2.29088e-22)
(1.09058 -0.300015 0)
(0.99859 -0.591812 -1.32245e-22)
(1.07776 -0.0338266 1.2645e-22)
(1.05902 0.386983 -9.02265e-23)
(0.960317 0.183941 0)
(0.912824 -0.176335 -8.024e-23)
(0.9875 -0.0890677 0)
(0.988891 0.0938366 -1.91581e-23)
(0.917285 0.0975428 -1.6312e-23)
(0.790105 -0.0220498 2.29134e-24)
(0.813274 -0.0936384 -4.33076e-24)
(0.876179 0.0838378 0)
(0.835532 0.082243 -7.03422e-24)
(-0.172042 0.600133 1.24622e-20)
(-0.0104923 0.736445 -9.36795e-23)
(0.195181 0.588398 -1.38906e-20)
(0.543946 0.138573 1.32454e-20)
(0.810621 -0.319194 0)
(0.911682 -0.595703 1.33286e-22)
(0.886273 -0.646288 -1.79912e-22)
(0.869521 -0.56565 0)
(0.782034 -0.568531 -5.2633e-23)
(0.633185 -0.551324 0)
(0.637702 -0.288588 0)
(0.786011 0.0242699 8.75114e-23)
(0.880681 0.27039 0)
(0.882546 0.465127 2.63887e-21)
(0.866204 0.541381 -2.22789e-21)
(0.87013 0.486235 1.82627e-21)
(0.930637 0.239105 -1.74317e-21)
(0.983441 -0.121431 -1.35815e-22)
(1.05159 -0.401763 0)
(1.06895 -0.560521 0)
(1.06319 -0.435396 -1.01055e-22)
(1.06789 -0.0139991 1.10496e-21)
(1.05142 0.378136 -1.81569e-21)
(1.06849 0.586401 8.34875e-22)
(1.1639 0.352468 6.2735e-22)
(1.11564 -0.276847 0)
(0.997806 -0.593596 3.14975e-22)
(1.06662 -0.0417938 0)
(1.0586 0.392057 9.0546e-23)
(0.965919 0.197661 -1.94426e-22)
(0.913649 -0.178022 3.47287e-22)
(0.991104 -0.0971643 -2.11289e-23)
(0.997225 0.0985781 3.52154e-23)
(0.929408 0.111206 -8.1258e-24)
(0.804217 -0.0137252 2.72649e-23)
(0.824822 -0.0998626 -2.93542e-24)
(0.887287 0.0820697 2.75339e-24)
(0.846258 0.0853047 -2.92105e-24)
(-0.0279626 0.457656 1.67126e-20)
(0.184244 0.583691 -3.80731e-20)
(0.437917 0.447177 -6.77934e-21)
(0.759554 0.0297487 2.69343e-20)
(0.990274 -0.372821 4.01233e-22)
(1.05399 -0.597469 -2.87082e-22)
(0.982838 -0.629592 1.82992e-22)
(0.927748 -0.536328 -2.49754e-22)
(0.842445 -0.516066 0)
(0.713694 -0.528074 4.88955e-21)
(0.701238 -0.339808 -4.66418e-21)
(0.797051 -0.0400066 -1.32696e-22)
(0.858435 0.257816 0)
(0.858492 0.477828 -5.01947e-21)
(0.824002 0.548009 4.65075e-21)
(0.831843 0.478244 -1.78908e-21)
(0.928234 0.231545 1.70697e-21)
(0.996255 -0.121742 2.38294e-21)
(1.06739 -0.403868 -2.03185e-21)
(1.08116 -0.560365 0)
(1.05648 -0.441956 0)
(1.05265 -0.0204951 2.12952e-21)
(1.03023 0.367343 -2.03322e-21)
(1.0521 0.570798 -1.5172e-21)
(1.16495 0.35677 -7.63592e-23)
(1.1329 -0.243738 1.39631e-21)
(0.990149 -0.586802 -6.57996e-24)
(1.04896 -0.05386 -5.42912e-22)
(1.05575 0.39612 1.04195e-21)
(0.970522 0.214692 -8.12123e-22)
(0.911537 -0.176855 3.16828e-23)
(0.990866 -0.106284 -1.08068e-22)
(1.00307 0.101968 4.40204e-23)
(0.940254 0.124406 -4.20897e-23)
(0.818664 -0.00495156 -1.96928e-23)
(0.835055 -0.105844 1.06917e-23)
(0.898027 0.0801235 -7.38107e-23)
(0.85813 0.0883276 -7.99689e-24)
(0.219572 0.288116 0)
(0.416519 0.409294 1.84863e-20)
(0.653334 0.32168 -1.81826e-20)
(0.954738 -0.0514672 0)
(1.14619 -0.407459 -4.12367e-22)
(1.1624 -0.577909 2.94955e-22)
(1.04938 -0.601374 0)
(0.972704 -0.510159 4.42697e-24)
(0.894188 -0.46482 -1.98041e-22)
(0.768476 -0.507607 0)
(0.774911 -0.382368 -4.25514e-21)
(0.843275 -0.0918701 4.19361e-21)
(0.878104 0.2159 -3.372e-22)
(0.849031 0.455932 -4.98912e-21)
(0.773548 0.547622 4.75762e-21)
(0.787059 0.469935 2.16531e-22)
(0.921344 0.224454 0)
(1.00829 -0.120085 -2.59183e-22)
(1.08102 -0.403389 3.94982e-21)
(1.08932 -0.556465 1.54198e-22)
(1.04167 -0.447756 7.75941e-22)
(1.03341 -0.0353478 -3.69764e-21)
(1.00522 0.343099 -3.00602e-21)
(1.02403 0.545634 3.69514e-21)
(1.15149 0.358363 -3.44106e-22)
(1.14186 -0.210236 0)
(0.979926 -0.575861 -3.15668e-22)
(1.02586 -0.072342 5.50058e-22)
(1.04781 0.393449 -1.06984e-21)
(0.971993 0.231069 8.35567e-22)
(0.90711 -0.174167 -1.62359e-22)
(0.987089 -0.116868 0)
(1.00659 0.103498 -4.93972e-23)
(0.949543 0.136882 8.51867e-23)
(0.83294 0.00420794 5.97669e-23)
(0.844382 -0.111525 1.32567e-23)
(0.908488 0.0778354 7.38626e-23)
(0.870829 0.0912217 -7.38394e-25)
(0.513473 0.156113 1.38956e-22)
(0.623644 0.26429 3.63355e-22)
(0.834295 0.206309 0)
(1.14039 -0.10993 0)
(1.27536 -0.396733 0)
(1.23756 -0.518284 0)
(1.09786 -0.548462 1.00199e-20)
(0.99585 -0.485529 -1.71965e-20)
(0.948425 -0.414964 7.61407e-21)
(0.809185 -0.480243 0)
(0.820298 -0.441665 -4.48083e-21)
(0.909307 -0.156234 4.41073e-21)
(0.901604 0.197569 6.05912e-21)
(0.838469 0.477006 -5.09544e-21)
(0.746463 0.559014 4.06371e-21)
(0.762646 0.45055 -4.09512e-21)
(0.920377 0.207711 -2.16033e-22)
(1.02178 -0.113879 -4.06847e-21)
(1.0894 -0.394332 3.87593e-21)
(1.09262 -0.5474 4.32555e-22)
(1.01865 -0.455021 5.27304e-22)
(1.00577 -0.0513895 4.1581e-21)
(0.978041 0.32851 -4.55174e-21)
(0.995003 0.526961 -6.67968e-22)
(1.13145 0.362075 -2.45097e-22)
(1.14322 -0.171098 -1.92493e-22)
(0.96817 -0.560189 0)
(0.997713 -0.0933257 0)
(1.03837 0.390909 0)
(0.972817 0.250241 0)
(0.902118 -0.168351 4.08768e-22)
(0.980564 -0.128102 -2.32779e-22)
(1.00813 0.103329 1.09069e-22)
(0.95716 0.148461 -3.78266e-22)
(0.846567 0.0134518 6.23225e-23)
(0.853091 -0.116868 -7.01797e-24)
(0.918731 0.0751244 7.58004e-23)
(0.884029 0.0939228 2.15677e-23)
(0.855485 0.0712877 -1.4617e-22)
(0.881101 0.152112 2.76522e-20)
(1.05256 0.104189 -2.64968e-20)
(1.30921 -0.14171 -4.36651e-20)
(1.36668 -0.353916 4.15734e-20)
(1.28375 -0.442171 2.88448e-20)
(1.15349 -0.481268 -2.68613e-20)
(1.01418 -0.463854 2.60332e-22)
(0.991487 -0.37663 -2.08448e-22)
(0.873845 -0.430983 0)
(0.810242 -0.483056 -1.54211e-22)
(0.933515 -0.219107 1.1623e-20)
(0.920896 0.155563 -1.10684e-20)
(0.826586 0.45443 -3.61765e-22)
(0.699572 0.57322 0)
(0.725976 0.454168 -3.97133e-21)
(0.914965 0.207874 7.61086e-21)
(1.0351 -0.100411 -3.4053e-21)
(1.09582 -0.379875 0)
(1.0929 -0.533827 3.55389e-21)
(0.99441 -0.459378 6.02531e-22)
(0.97554 -0.0782944 -4.71741e-21)
(0.949326 0.295375 -4.14851e-21)
(0.956433 0.498353 3.75484e-21)
(1.09983 0.365107 -1.60558e-21)
(1.13597 -0.132405 -2.1878e-22)
(0.958796 -0.541681 2.00034e-21)
(0.96712 -0.11984 -2.1809e-21)
(1.02415 0.378515 2.07452e-21)
(0.969862 0.268285 -3.89775e-22)
(0.896855 -0.161166 3.70545e-22)
(0.972027 -0.140396 0)
(1.00815 0.100995 1.18434e-22)
(0.963149 0.159091 -4.00738e-24)
(0.859235 0.0230337 0)
(0.861295 -0.121804 -2.95424e-23)
(0.928726 0.0719539 -6.32281e-23)
(0.897431 0.0964108 6.20244e-24)
(1.15568 0.0458323 0)
(1.15405 0.0830978 0)
(1.27049 0.0403551 -1.01305e-22)
(1.41232 -0.133316 0)
(1.39459 -0.289087 0)
(1.28309 -0.369636 2.75624e-20)
(1.18593 -0.411041 -2.62551e-20)
(1.04027 -0.438138 1.57856e-20)
(1.00573 -0.361763 -1.50479e-20)
(0.951068 -0.367932 0)
(0.812816 -0.499228 -1.58601e-22)
(0.912611 -0.320323 1.90881e-22)
(0.94623 0.118521 -1.37148e-20)
(0.818954 0.482261 1.64009e-21)
(0.69124 0.592344 1.06287e-20)
(0.734647 0.426963 1.21419e-22)
(0.924982 0.181981 -1.15255e-22)
(1.04936 -0.0957728 7.60735e-21)
(1.10282 -0.361972 -7.46445e-21)
(1.08956 -0.512616 0)
(0.972584 -0.464968 0)
(0.941536 -0.101784 -3.38576e-22)
(0.919651 0.280118 0)
(0.92478 0.48343 2.29295e-21)
(1.07214 0.367314 -5.2514e-22)
(1.12627 -0.0917175 -1.26677e-21)
(0.95133 -0.520014 -2.76419e-21)
(0.936064 -0.145224 1.85401e-21)
(1.01042 0.369429 -2.3446e-22)
(0.966978 0.287073 0)
(0.89321 -0.151176 -2.60799e-22)
(0.962697 -0.1529 2.47266e-22)
(1.0071 0.0972254 6.45492e-23)
(0.967657 0.168508 8.22603e-23)
(0.870837 0.0323215 -8.607e-23)
(0.868947 -0.126585 -1.71731e-23)
(0.93824 0.0683536 0)
(0.91073 0.0986568 -1.73724e-23)
(1.26193 0.0426392 2.86075e-20)
(1.27113 0.0476168 2.58356e-20)
(1.33344 0.0277045 3.91596e-21)
(1.38136 -0.0740569 -5.75683e-20)
(1.35052 -0.188391 2.90887e-20)
(1.26568 -0.284211 -2.36264e-22)
(1.20249 -0.343247 0)
(1.07909 -0.398302 -1.43373e-22)
(1.01086 -0.362974 -1.13166e-22)
(1.00033 -0.324246 0)
(0.854489 -0.458613 -1.19753e-20)
(0.848147 -0.397928 1.13266e-20)
(0.902747 0.000349868 2.52876e-22)
(0.804793 0.418742 1.23727e-20)
(0.682429 0.602862 -1.17299e-20)
(0.70562 0.460822 1.32601e-22)
(0.916001 0.205562 1.22111e-22)
(1.05955 -0.0646945 0)
(1.11527 -0.333218 6.77911e-21)
(1.083 -0.4888 -6.43232e-21)
(0.958314 -0.462661 -5.07201e-21)
(0.905934 -0.140223 -1.93362e-22)
(0.884549 0.233064 5.05694e-21)
(0.884329 0.450776 -2.26021e-21)
(1.02977 0.370503 9.11389e-22)
(1.11581 -0.0468793 2.51305e-21)
(0.944844 -0.491798 -9.76724e-22)
(0.907049 -0.177405 2.54329e-21)
(0.991603 0.346416 -1.86732e-21)
(0.960447 0.306204 0)
(0.89069 -0.136823 0)
(0.953264 -0.165824 0)
(1.00551 0.0907634 6.74424e-23)
(0.971269 0.177354 -6.40464e-23)
(0.881457 0.0424992 1.05777e-22)
(0.876091 -0.130994 -1.08724e-22)
(0.947119 0.0641123 8.33178e-24)
(0.923755 0.100637 0)
(1.22087 0.0387607 0)
(1.25338 0.0215166 0)
(1.27892 0.00850006 0)
(1.30003 -0.060917 0)
(1.29658 -0.135074 0)
(1.23865 -0.212228 0)
(1.20568 -0.249936 0)
(1.12181 -0.310181 0)
(1.01986 -0.319849 0)
(1.03384 -0.258445 0)
(0.914965 -0.410352 0)
(0.786279 -0.452478 0)
(0.835446 -0.0561624 0)
(0.786422 0.427378 0)
(0.667819 0.62532 0)
(0.751089 0.416758 0)
(0.967516 0.155105 0)
(1.08026 -0.0602551 0)
(1.13305 -0.294866 0)
(1.07897 -0.46716 0)
(0.934123 -0.476216 0)
(0.874132 -0.159633 0)
(0.854396 0.223649 0)
(0.837677 0.43687 0)
(1.01763 0.370847 0)
(1.12746 -0.0181567 0)
(0.933046 -0.468485 0)
(0.879596 -0.201647 0)
(0.974962 0.3303 0)
(0.948605 0.325632 0)
(0.890009 -0.126591 0)
(0.94251 -0.177485 0)
(1.00294 0.0841626 0)
(0.973463 0.185607 0)
(0.892903 0.053031 0)
(0.884573 -0.134395 0)
(0.956359 0.0593792 0)
(0.939031 0.102705 0)
(1.20307 0.0325798 0)
(1.22025 0.00585986 0)
(1.23694 -0.0118675 0)
(1.24565 -0.0857445 0)
(1.23315 -0.123436 0)
(1.19952 -0.205001 0)
(1.13772 -0.264177 0)
(1.08217 -0.278011 0)
(0.987635 -0.30086 0)
(0.932154 -0.285626 0)
(0.885595 -0.362223 0)
(0.757861 -0.359165 0)
(0.733199 0.00315299 0)
(0.689396 0.479985 0)
(0.647549 0.62257 0)
(0.832115 0.335859 0)
(1.03181 0.0765947 0)
(1.11654 -0.124287 0)
(1.14583 -0.332608 0)
(1.03789 -0.425661 0)
(0.855568 -0.397303 0)
(0.817271 -0.110001 0)
(0.787741 0.2496 0)
(0.765441 0.414943 0)
(1.00999 0.306359 0)
(1.12611 -0.032651 0)
(0.903956 -0.426937 0)
(0.849637 -0.185195 0)
(0.946181 0.332393 0)
(0.928403 0.329908 0)
(0.899818 -0.130005 0)
(0.941242 -0.190243 0)
(1.00245 0.0826895 0)
(0.973608 0.196595 0)
(0.906194 0.0616049 0)
(0.895923 -0.142238 0)
(0.966589 0.0528002 0)
(0.956964 0.104826 0)
(1.1798 0.0270313 0)
(1.19119 -0.00662126 0)
(1.20539 -0.0194168 0)
(1.20454 -0.0703975 0)
(1.18439 -0.106965 0)
(1.17681 -0.148358 0)
(1.11993 -0.180184 0)
(1.07159 -0.211241 0)
(1.03381 -0.212886 0)
(0.963892 -0.187905 0)
(0.902576 -0.287134 0)
(0.733213 -0.311363 0)
(0.614088 0.0167117 0)
(0.593828 0.494975 0)
(0.709101 0.56729 0)
(0.965259 0.227632 0)
(1.1058 0.00402918 0)
(1.13944 -0.116446 0)
(1.14785 -0.26586 0)
(1.01976 -0.354495 0)
(0.788504 -0.368373 0)
(0.731289 -0.112024 0)
(0.694069 0.249843 0)
(0.7026 0.358854 0)
(0.999709 0.248887 0)
(1.14297 -0.00446026 0)
(0.901895 -0.379497 0)
(0.816461 -0.202639 0)
(0.919724 0.309403 0)
(0.916517 0.331544 0)
(0.917792 -0.127414 0)
(0.944187 -0.204341 0)
(1.00287 0.0789436 0)
(0.973591 0.205933 0)
(0.920206 0.0715531 0)
(0.907101 -0.148438 0)
(0.974587 0.0462012 0)
(0.974582 0.106916 0)
(1.1545 0.0189684 0)
(1.16522 -0.0080704 0)
(1.1683 -0.022471 0)
(1.16848 -0.0703413 0)
(1.14974 -0.0854761 0)
(1.12765 -0.13493 0)
(1.09511 -0.160323 0)
(1.04426 -0.184066 0)
(0.998231 -0.205155 0)
(0.942674 -0.187112 0)
(0.906151 -0.230694 0)
(0.768957 -0.177443 0)
(0.610932 0.0891447 0)
(0.636309 0.416108 0)
(0.867016 0.409378 0)
(1.1022 0.126751 0)
(1.16685 -0.017344 0)
(1.14167 -0.13489 0)
(1.11482 -0.270819 0)
(0.98069 -0.274369 0)
(0.743481 -0.268534 0)
(0.62249 -0.0614235 0)
(0.583295 0.261206 0)
(0.669884 0.286629 0)
(0.984323 0.154129 0)
(1.13349 -0.00841648 0)
(0.910556 -0.310255 0)
(0.767082 -0.18722 0)
(0.864902 0.290964 0)
(0.903259 0.325891 0)
(0.949989 -0.132005 0)
(0.956443 -0.217166 0)
(1.00876 0.0746222 0)
(0.976234 0.215332 0)
(0.93611 0.0806174 0)
(0.91807 -0.155287 0)
(0.980849 0.0371672 0)
(0.993177 0.1075 0)
(1.13024 0.0148319 0)
(1.13563 -0.0119961 0)
(1.14151 -0.0210893 0)
(1.1343 -0.0614532 0)
(1.12061 -0.0699859 0)
(1.10397 -0.106321 0)
(1.0763 -0.119762 0)
(1.0424 -0.129589 0)
(1.00637 -0.144619 0)
(0.957992 -0.113314 0)
(0.90479 -0.150888 0)
(0.808272 -0.0945576 0)
(0.719182 0.0975741 0)
(0.802806 0.295851 0)
(1.02436 0.276215 0)
(1.16002 0.054193 0)
(1.16519 -0.031486 0)
(1.13254 -0.0935293 0)
(1.1005 -0.196369 0)
(0.980422 -0.181625 0)
(0.782747 -0.18311 0)
(0.621218 -0.0244632 0)
(0.583202 0.229276 0)
(0.709975 0.181759 0)
(0.976414 0.0669105 0)
(1.12777 0.00672091 0)
(0.94667 -0.242339 0)
(0.735526 -0.172764 0)
(0.800622 0.263882 0)
(0.909906 0.304151 0)
(0.996074 -0.140238 0)
(0.974758 -0.225378 0)
(1.00894 0.0737307 0)
(0.972417 0.223258 0)
(0.953346 0.0885011 0)
(0.92967 -0.160548 0)
(0.983822 0.0273044 0)
(1.01107 0.106991 0)
(1.10949 0.0107317 0)
(1.11077 -0.0112224 0)
(1.11667 -0.0168484 0)
(1.10828 -0.0517461 0)
(1.09664 -0.0526218 0)
(1.084 -0.0842892 0)
(1.05661 -0.0928834 0)
(1.03329 -0.0982274 0)
(0.99791 -0.120785 0)
(0.966246 -0.0847512 0)
(0.930533 -0.10591 0)
(0.872586 -0.042807 0)
(0.836532 0.0872452 0)
(0.919857 0.183392 0)
(1.07904 0.168191 0)
(1.14737 0.0353009 0)
(1.13549 -0.00212108 0)
(1.09996 -0.0836164 0)
(1.05089 -0.186987 0)
(0.965118 -0.115107 0)
(0.842817 -0.0880769 0)
(0.720027 0.0284838 0)
(0.731808 0.216008 0)
(0.850441 0.109325 0)
(0.988214 -0.0273471 0)
(1.10714 -0.00477304 0)
(0.984292 -0.157829 0)
(0.739298 -0.130028 0)
(0.780658 0.229173 0)
(0.964017 0.264124 0)
(1.05128 -0.147888 0)
(0.99287 -0.228105 0)
(1.00982 0.0764495 0)
(0.973663 0.230579 0)
(0.979373 0.095345 0)
(0.944913 -0.164374 0)
(0.984529 0.0148774 0)
(1.02892 0.103985 0)
(1.09087 0.00915443 0)
(1.08969 -0.010183 0)
(1.09492 -0.0130461 0)
(1.08709 -0.0404896 0)
(1.0764 -0.0407776 0)
(1.06844 -0.0627624 0)
(1.04276 -0.0708233 0)
(1.03296 -0.0671598 0)
(1.00143 -0.0863581 0)
(0.982191 -0.0502768 0)
(0.95679 -0.0624717 0)
(0.919071 -0.0154043 0)
(0.917636 0.0580266 0)
(0.970375 0.102398 0)
(1.06877 0.116827 0)
(1.09797 0.0141052 0)
(1.09824 -0.0047337 0)
(1.09732 -0.0391911 0)
(1.02898 -0.128016 0)
(0.959101 -0.0546227 0)
(0.904004 -0.0319665 0)
(0.832054 0.0255885 0)
(0.903105 0.169993 0)
(1.01334 0.07249 0)
(1.02289 -0.0584016 0)
(1.0766 0.00297296 0)
(1.03509 -0.0836267 0)
(0.812516 -0.0896027 0)
(0.829641 0.171002 0)
(1.04468 0.210916 0)
(1.10422 -0.142727 0)
(0.996274 -0.219131 0)
(1.0027 0.0789948 0)
(0.974545 0.232593 0)
(1.01036 0.100991 0)
(0.964089 -0.1626 0)
(0.982827 0.00201289 0)
(1.04442 0.098485 0)
(1.07412 0.00759323 0)
(1.0732 -0.00742363 0)
(1.07571 -0.00935479 0)
(1.07164 -0.0292501 0)
(1.06035 -0.0298225 0)
(1.05758 -0.0440221 0)
(1.03453 -0.0508625 0)
(1.03093 -0.0447177 0)
(1.00613 -0.0617374 0)
(0.992106 -0.0318373 0)
(0.980089 -0.0406468 0)
(0.954013 -0.00755218 0)
(0.969264 0.039991 0)
(0.986029 0.0502954 0)
(1.04978 0.074297 0)
(1.07404 0.0120868 0)
(1.05641 -0.00217864 0)
(1.07369 -0.0230293 0)
(1.01752 -0.0997182 0)
(0.964785 -0.0313204 0)
(0.961134 -0.0017196 0)
(0.917647 0.0145809 0)
(0.984883 0.119072 0)
(1.07567 0.0569547 0)
(1.03917 -0.0650574 0)
(1.0385 -0.00782736 0)
(1.0485 -0.0370196 0)
(0.902798 -0.0435823 0)
(0.906285 0.121336 0)
(1.09139 0.159315 0)
(1.13116 -0.126847 0)
(0.978522 -0.192973 0)
(0.953097 0.0866724 0)
(0.952767 0.226502 0)
(1.04382 0.100673 0)
(0.991436 -0.156626 0)
(0.979185 -0.0111186 0)
(1.05413 0.0896857 0)
(1.05993 0.0067499 0)
(1.06028 -0.00394241 0)
(1.06072 -0.00604345 0)
(1.05898 -0.0190662 0)
(1.04893 -0.0211589 0)
(1.04816 -0.0290953 0)
(1.03035 -0.035398 0)
(1.02855 -0.02947 0)
(1.0123 -0.0408756 0)
(1.00091 -0.0205293 0)
(0.999155 -0.023122 0)
(0.977338 -0.00444783 0)
(0.995529 0.0257637 0)
(1.00048 0.0233651 0)
(1.03123 0.0469597 0)
(1.05497 0.00790261 0)
(1.03642 -0.00620281 0)
(1.05651 -0.00510051 0)
(1.01836 -0.0601487 0)
(0.972784 -0.014887 0)
(0.989599 0.0113134 0)
(0.963637 0.00369534 0)
(1.00141 0.0714266 0)
(1.07659 0.0450889 0)
(1.04399 -0.0456815 0)
(1.01702 0.00158715 0)
(1.03695 -0.0137638 0)
(0.959746 -0.0224624 0)
(0.960797 0.0803045 0)
(1.09401 0.117506 0)
(1.12506 -0.0998681 0)
(0.955106 -0.146574 0)
(0.902697 0.0954292 0)
(0.955448 0.199456 0)
(1.09528 0.0903175 0)
(1.02461 -0.14082 0)
(0.978019 -0.0205214 0)
(1.06003 0.0782734 0)
(1.0489 0.0062966 0)
(1.04999 -0.000772802 0)
(1.04919 -0.00308627 0)
(1.04864 -0.0113603 0)
(1.04122 -0.0135976 0)
(1.04037 -0.0184176 0)
(1.0289 -0.0226329 0)
(1.02632 -0.0189285 0)
(1.01756 -0.0252798 0)
(1.00808 -0.0131844 0)
(1.00951 -0.0133171 0)
(0.995032 -0.00365801 0)
(1.00743 0.0153734 0)
(1.00994 0.010267 0)
(1.02186 0.0265184 0)
(1.04256 0.00708289 0)
(1.02544 -0.00501493 0)
(1.037 -1.4085e-05 0)
(1.02019 -0.0365035 0)
(0.984253 -0.00970874 0)
(1.00221 0.0118418 0)
(0.991856 0.0020428 0)
(1.00294 0.0425196 0)
(1.05698 0.0337876 0)
(1.03641 -0.0326197 0)
(1.0091 0.00143837 0)
(1.03291 -0.00523019 0)
(0.990745 -0.00664088 0)
(0.982943 0.0535537 0)
(1.07271 0.0865701 0)
(1.09902 -0.0704537 0)
(0.945465 -0.098912 0)
(0.904251 0.0878944 0)
(1.00005 0.15057 0)
(1.14347 0.0777554 0)
(1.056 -0.113642 0)
(0.976021 -0.0254537 0)
(1.05159 0.0643085 0)
(1.04039 0.00630939 0)
(1.04148 0.00163383 0)
(1.04081 -0.00040087 0)
(1.04043 -0.00563687 0)
(1.03571 -0.00755478 0)
(1.03449 -0.0107018 0)
(1.02762 -0.0133068 0)
(1.02507 -0.011576 0)
(1.02021 -0.0147073 0)
(1.01387 -0.00830984 0)
(1.01502 -0.0074535 0)
(1.00677 -0.0023811 0)
(1.01305 0.00834009 0)
(1.01536 0.0048081 0)
(1.01849 0.0149495 0)
(1.03152 0.00485331 0)
(1.02185 -0.00292735 0)
(1.02654 0.00290565 0)
(1.02006 -0.0185266 0)
(0.996884 -0.00251942 0)
(1.00746 0.00984032 0)
(1.00476 0.00362867 0)
(1.0057 0.0243381 0)
(1.04115 0.0219468 0)
(1.03225 -0.0188632 0)
(1.00832 0.00799962 0)
(1.02774 -0.00158566 0)
(1.00467 0.00328282 0)
(0.994533 0.0349242 0)
(1.05108 0.062218 0)
(1.07445 -0.0408228 0)
(0.953442 -0.0564797 0)
(0.937958 0.0685979 0)
(1.03591 0.0950451 0)
(1.14867 0.0674231 0)
(1.07074 -0.0757836 0)
(0.971225 -0.019023 0)
(1.03218 0.0521019 0)
(1.03383 0.0064127 0)
(1.03486 0.0033964 0)
(1.03444 0.00175617 0)
(1.03415 -0.00166308 0)
(1.03125 -0.0030825 0)
(1.03013 -0.00537707 0)
(1.02607 -0.00682894 0)
(1.02412 -0.00641105 0)
(1.02129 -0.00780539 0)
(1.0175 -0.00471846 0)
(1.01776 -0.00383671 0)
(1.0134 -0.00137601 0)
(1.01623 0.00464215 0)
(1.01731 0.00243381 0)
(1.01795 0.00841991 0)
(1.0251 0.00373927 0)
(1.01938 -0.000345255 0)
(1.02129 0.00371224 0)
(1.0182 -0.00879299 0)
(1.00532 0.00151475 0)
(1.0115 0.00606786 0)
(1.011 0.00404689 0)
(1.01014 0.0149226 0)
(1.0305 0.0134407 0)
(1.02627 -0.0114304 0)
(1.0099 0.00928313 0)
(1.02578 -0.00190669 0)
(1.01163 0.0105121 0)
(1.00485 0.0248556 0)
(1.03511 0.0456264 0)
(1.05437 -0.0202886 0)
(0.970612 -0.0284613 0)
(0.972454 0.0467222 0)
(1.04423 0.0515091 0)
(1.12033 0.0610003 0)
(1.06567 -0.041186 0)
(0.978245 -0.00956116 0)
(1.02686 0.0405303 0)
(1.02881 0.00649814 0)
(1.02967 0.0045195 0)
(1.02945 0.00326797 0)
(1.02931 0.000960658 0)
(1.02759 1.9663e-06 0)
(1.02676 -0.00177754 0)
(1.02435 -0.00248189 0)
(1.02305 -0.00286259 0)
(1.02131 -0.00329788 0)
(1.01917 -0.00218872 0)
(1.01899 -0.00139338 0)
(1.01664 -0.000306241 0)
(1.01768 0.0029393 0)
(1.01815 0.00183942 0)
(1.01779 0.0053413 0)
(1.02138 0.00320994 0)
(1.01792 0.00131846 0)
(1.01907 0.00438299 0)
(1.01737 -0.0029884 0)
(1.0106 0.00448128 0)
(1.01424 0.00432963 0)
(1.01382 0.00458781 0)
(1.01292 0.00923994 0)
(1.02505 0.00800769 0)
(1.02282 -0.00591113 0)
(1.01254 0.0108765 0)
(1.02416 -0.00123046 0)
(1.01412 0.0156919 0)
(1.01224 0.0186849 0)
(1.02699 0.0342855 0)
(1.04172 -0.00462718 0)
(0.986495 -0.00939687 0)
(0.996784 0.0290443 0)
(1.04199 0.021246 0)
(1.0899 0.0574005 0)
(1.05452 -0.0124793 0)
(0.995533 -0.00149049 0)
(1.03413 0.0307732 0)
(1.02483 0.00643655 0)
(1.02556 0.00510569 0)
(1.02546 0.00422028 0)
(1.02549 0.0025775 0)
(1.02448 0.00201606 0)
(1.02397 0.000518483 0)
(1.02251 0.000313846 0)
(1.02171 -0.000503238 0)
(1.02064 -0.000435598 0)
(1.01949 -0.000339264 0)
(1.01915 0.000290521 0)
(1.01789 0.000709486 0)
(1.0181 0.00241823 0)
(1.01822 0.00205544 0)
(1.01763 0.00395801 0)
(1.01937 0.00329436 0)
(1.01724 0.00253254 0)
(1.01796 0.00481807 0)
(1.01684 0.000217445 0)
(1.01359 0.00562305 0)
(1.0155 0.00318057 0)
(1.01553 0.0045615 0)
(1.01478 0.00582621 0)
(1.02152 0.00492249 0)
(1.02034 -0.00290025 0)
(1.01441 0.00984125 0)
(1.02293 -0.00136524 0)
(1.01542 0.0185095 0)
(1.01731 0.0145872 0)
(1.02244 0.0271131 0)
(1.03323 0.00482255 0)
(0.998629 -9.47686e-05 0)
(1.01324 0.0137566 0)
(1.03899 0.00186886 0)
(1.06587 0.0555253 0)
(1.04577 0.00505113 0)
(1.01178 0.000606978 0)
(1.03966 0.0217557 0)
(1.02164 0.00622657 0)
(1.02228 0.00529691 0)
(1.02224 0.00472953 0)
(1.02241 0.00347604 0)
(1.02178 0.00323762 0)
(1.02157 0.00191085 0)
(1.02065 0.00203993 0)
(1.02026 0.00102158 0)
(1.01955 0.00136158 0)
(1.01901 0.000971557 0)
(1.01863 0.00145118 0)
(1.018 0.00161884 0)
(1.01785 0.00242662 0)
(1.01792 0.00255965 0)
(1.01731 0.00352094 0)
(1.01823 0.00358403 0)
(1.01677 0.00334457 0)