/*--------------------------------*- C++ -*----------------------------------*\
| =========                 |                                                 |
| \\      /  F ield         | OpenFOAM: The Open Source CFD Toolbox           |
|  \\    /   O peration     | Version:  2312                                  |
|   \\  /    A nd           | Website:  www.openfoam.com                      |
|    \\/     M anipulation  |                                                 |
\*---------------------------------------------------------------------------*/
FoamFile
{
    version     2.0;
    format      ascii;
    arch        "LSB;label=32;scalar=64";
    class       volScalarField;
    location    "22.6";
    object      p;
}
// * * * * * * * * * * * * * * * * * * * * * * * * * * * * * * * * * * * * * //

dimensions      [0 2 -2 0 0 0 0];

internalField   nonuniform List<scalar> 
5478
(
-0.254703
-0.252996
-0.249785
-0.246211
-0.243466
-0.242314
-0.242952
-0.24508
-0.248255
-0.251682
-0.255252
-0.257397
-0.258999
-0.257062
-0.252325
-0.258223
-0.256191
-0.252413
-0.247981
-0.243822
-0.240546
-0.238391
-0.237344
-0.23694
-0.236751
-0.235914
-0.234061
-0.230788
-0.225585
-0.219998
-0.265309
-0.262038
-0.257345
-0.251634
-0.245499
-0.239435
-0.233976
-0.229257
-0.225053
-0.220844
-0.21634
-0.211379
-0.205918
-0.200015
-0.194057
-0.275932
-0.270594
-0.264113
-0.256353
-0.247317
-0.237768
-0.228577
-0.2201
-0.212242
-0.204927
-0.197943
-0.191184
-0.184376
-0.177496
-0.170821
-0.290397
-0.282037
-0.273047
-0.262048
-0.248803
-0.234936
-0.22177
-0.20977
-0.199004
-0.189269
-0.180348
-0.17203
-0.164049
-0.15656
-0.149448
-0.309197
-0.296382
-0.284101
-0.267934
-0.248937
-0.230119
-0.212979
-0.19784
-0.18453
-0.172802
-0.162375
-0.152986
-0.14442
-0.136644
-0.129096
-0.331192
-0.31295
-0.295066
-0.271426
-0.245714
-0.221833
-0.200979
-0.183078
-0.167734
-0.154511
-0.143031
-0.132978
-0.124131
-0.116278
-0.108936
-0.351922
-0.329136
-0.302012
-0.269151
-0.236743
-0.208311
-0.184325
-0.164255
-0.147407
-0.133185
-0.121108
-0.110847
-0.102148
-0.0947493
-0.0882467
-0.226205
-0.232468
-0.238583
-0.247442
-0.258971
-0.272558
-0.28772
-0.304019
-0.321058
-0.338436
-0.355711
-0.372486
-0.388566
-0.404184
-0.419108
-0.22724
-0.233002
-0.238872
-0.247285
-0.258103
-0.270705
-0.284614
-0.299419
-0.314789
-0.330438
-0.346064
-0.361301
-0.375895
-0.390049
-0.404584
-0.233933
-0.238269
-0.243449
-0.251125
-0.261044
-0.272587
-0.285287
-0.298764
-0.312728
-0.326963
-0.341309
-0.355744
-0.369713
-0.383482
-0.396607
-0.242372
-0.24472
-0.248772
-0.255287
-0.263904
-0.27404
-0.285248
-0.297189
-0.309635
-0.322458
-0.334968
-0.34939
-0.360763
-0.37714
-0.386074
-0.249236
-0.249569
-0.252109
-0.25689
-0.263613
-0.271827
-0.281148
-0.291279
-0.301885
-0.313558
-0.323895
-0.338044
-0.346953
-0.363251
-0.372134
-0.253097
-0.251918
-0.252668
-0.255141
-0.25932
-0.265063
-0.272124
-0.280349
-0.288751
-0.299401
-0.307638
-0.321714
-0.329754
-0.344213
-0.353197
-0.254221
-0.252319
-0.251302
-0.251178
-0.252407
-0.255277
-0.259708
-0.265867
-0.273193
-0.282376
-0.290522
-0.301283
-0.310068
-0.321483
-0.331161
-0.25405
-0.252123
-0.249743
-0.24741
-0.246144
-0.246693
-0.249418
-0.253942
-0.259851
-0.266286
-0.273273
-0.279636
-0.286115
-0.292473
-0.299618
-0.438668
-0.44674
-0.43633
-0.402171
-0.345476
-0.266969
-0.167439
-0.0570177
0.0356597
0.090078
0.106565
0.101236
0.0869656
0.0717068
0.0581187
0.0475138
0.0384731
0.0319189
0.0259681
0.0218278
0.0182308
0.0152959
0.0133445
0.0112388
0.00969536
0.00849974
0.00720854
0.00630415
0.00566723
0.0048368
0.00426876
0.00396267
0.00338813
0.00289196
0.0023587
0.00227221
0.00202796
0.000646666
-0.427855
-0.43698
-0.42844
-0.397727
-0.346016
-0.274738
-0.177726
-0.0650367
0.0323192
0.0903977
0.108907
0.103425
0.0891399
0.0733098
0.0597353
0.0484842
0.0394986
0.0324849
0.0265284
0.0222141
0.0184996
0.015588
0.0135145
0.0113939
0.00984787
0.00857755
0.00727328
0.00639735
0.00569832
0.00485379
0.00433866
0.00398263
0.00338097
0.00290273
0.00240968
0.00227314
0.0019687
0.000665793
-0.424446
-0.435781
-0.431389
-0.405466
-0.359595
-0.296802
-0.204966
-0.0896589
0.0161532
0.0812872
0.104952
0.102455
0.0898957
0.0741848
0.0607126
0.0492438
0.0404301
0.032909
0.0271208
0.0225081
0.0187541
0.0158864
0.01362
0.0115696
0.00998921
0.00864686
0.00734706
0.00648839
0.00573088
0.00487435
0.00440733
0.00400322
0.00337654
0.00291441
0.0024594
0.00227271
0.00191392
0.000685371
-0.416596
-0.432244
-0.433171
-0.413905
-0.372563
-0.316566
-0.232487
-0.118945
-0.00953003
0.0627492
0.0931647
0.0956981
0.0863944
0.0724854
0.0599436
0.048839
0.0406103
0.0330536
0.0275049
0.0226908
0.0189632
0.0161268
0.0136887
0.0117383
0.0101135
0.0087125
0.00742625
0.00657421
0.00576678
0.00490029
0.0044716
0.0040249
0.00337734
0.00292739
0.00250508
0.00227005
0.00186785
0.00070488
-0.396109
-0.421171
-0.429041
-0.417594
-0.384526
-0.334865
-0.260248
-0.151437
-0.040243
0.0374883
0.0751148
0.0839748
0.0803388
0.0698045
0.0593911
0.0491357
0.0405757
0.0332225
0.0277324
0.022855
0.0191346
0.0162886
0.0137569
0.0118687
0.0102188
0.00877694
0.00750292
0.00665287
0.00580623
0.00493123
0.00452899
0.00404801
0.00338428
0.00294143
0.00254453
0.00226464
0.00183445
0.000723386
-0.367861
-0.398039
-0.412926
-0.408048
-0.381708
-0.338183
-0.273387
-0.178259
-0.0714487
0.00854313
0.0531228
0.0697889
0.071113
0.0644402
0.0559222
0.0471358
0.0397777
0.0330663
0.0277313
0.0230084
0.0193039
0.0164227
0.0138788
0.0119781
0.0103201
0.00885482
0.00757847
0.00672422
0.00585169
0.00496914
0.00457729
0.00407213
0.0033987
0.00295714
0.00257544
0.0022557
0.0018174
0.000739741
-0.342142
-0.370218
-0.391598
-0.396492
-0.378829
-0.340096
-0.280627
-0.196337
-0.0980964
-0.0168284
0.0339118
0.0560131
0.0635152
0.0607105
0.0546571
0.0464619
0.0393942
0.0329491
0.0276924
0.0230729
0.0193697
0.016495
0.0139475
0.012049
0.0103946
0.00891808
0.00765182
0.00678342
0.00589484
0.00501589
0.00461671
0.00409434
0.00342049
0.00297667
0.00259662
0.00224014
0.00182015
0.000753159
-0.311513
-0.33291
-0.350568
-0.358099
-0.350845
-0.324782
-0.278242
-0.210301
-0.127498
-0.0524096
0.00414513
0.0360758
0.0506064
0.0528667
0.0499433
0.0442211
0.0383742
0.0326273
0.0276445
0.0232968
0.0195881
0.0166762
0.0141682
0.0121557
0.0105139
0.00903119
0.0077273
0.00685201
0.00595195
0.00506717
0.0046467
0.00412286
0.00345064
0.00299537
0.00260854
0.00221944
0.00184473
0.000762297
-0.276236
-0.301825
-0.314349
-0.320101
-0.31522
-0.292645
-0.252689
-0.194969
-0.12457
-0.0571892
-0.00536909
0.0256857
0.0420058
0.0474047
0.0469709
0.0423959
0.0375943
0.031951
0.0271935
0.0228846
0.0193936
0.0165476
0.0140173
0.0121913
0.0104533
0.00903096
0.0078357
0.0068207
0.00599218
0.00517596
0.00462839
0.00412303
0.00352581
0.00303899
0.00257716
0.00219338
0.00190494
0.000769783
-0.229942
-0.257272
-0.266475
-0.263879
-0.253089
-0.233873
-0.202294
-0.157137
-0.104439
-0.0545145
-0.0137211
0.0135503
0.0286815
0.0350097
0.036161
0.0343483
0.0311681
0.027968
0.0246885
0.0214102
0.0183514
0.0158801
0.0136215
0.0118569
0.0102537
0.00892603
0.00775339
0.00676194
0.00599669
0.00517364
0.00459788
0.00414466
0.0035494
0.00304355
0.00254627
0.00220267
0.00193645
0.000757693
-0.190648
-0.215644
-0.224246
-0.221675
-0.212772
-0.197035
-0.173145
-0.140782
-0.10196
-0.0615215
-0.0256627
0.00086384
0.0171613
0.0259953
0.0301143
0.0305597
0.0293334
0.0262235
0.023083
0.0201638
0.0175549
0.0152722
0.0132055
0.0115553
0.0100385
0.00879135
0.00767157
0.00670366
0.00597289
0.00516453
0.00458587
0.00414394
0.00355342
0.00305502
0.0025321
0.0021975
0.00194291
0.000747297
-0.158139
-0.178629
-0.186647
-0.18426
-0.17549
-0.161646
-0.142536
-0.117304
-0.0867327
-0.0550022
-0.0266744
-0.00462738
0.00994519
0.0185094
0.0230651
0.0241976
0.0234835
0.0221102
0.0204787
0.0184162
0.0162874
0.0144117
0.0125988
0.0111464
0.00973863
0.00860481
0.00756408
0.00660779
0.00593449
0.00515996
0.00455654
0.00413475
0.00356873
0.00307157
0.00251057
0.00218621
0.00195918
0.00075164
-0.129187
-0.146049
-0.153241
-0.151664
-0.144671
-0.133903
-0.119513
-0.10115
-0.0794501
-0.0561388
-0.0337356
-0.0143435
-4.39761e-05
0.00937528
0.015217
0.0183234
0.0195693
0.0192408
0.01814
0.0166217
0.0150373
0.0134962
0.0119392
0.0106783
0.0093891
0.00837754
0.00741259
0.00648771
0.00588119
0.00513088
0.0045162
0.00412889
0.00357782
0.00307615
0.00248951
0.00217861
0.00198753
0.000760779
-0.10528
-0.118956
-0.125204
-0.124422
-0.119073
-0.110621
-0.0995275
-0.0857769
-0.0692445
-0.0508109
-0.0325736
-0.0163659
-0.00374817
0.00494093
0.0107331
0.0140338
0.015701
0.0158852
0.0155143
0.0146321
0.0135638
0.0124119
0.0111336
0.0101058
0.00896995
0.00808651
0.00721795
0.00634318
0.0057949
0.00508123
0.00447409
0.0041106
0.00357191
0.00308002
0.00247362
0.00216672
0.00201376
0.000768971
-0.0855224
-0.096288
-0.101505
-0.101262
-0.0973144
-0.0909457
-0.0826066
-0.072417
-0.0604256
-0.0470865
-0.0336236
-0.0209732
-0.0102123
-0.00188536
0.00411194
0.00824934
0.0109474
0.0123509
0.0128009
0.012524
0.0119635
0.0112158
0.0102249
0.00944496
0.00847407
0.00773219
0.00697721
0.00615994
0.00567957
0.00501472
0.00441702
0.00407676
0.00356007
0.00308222
0.00245245
0.00214541
0.0020362
0.000780377
-0.0690899
-0.0775544
-0.0818825
-0.0820425
-0.0792831
-0.0746462
-0.0685444
-0.0610416
-0.0522275
-0.0422849
-0.0317756
-0.0213591
-0.012008
-0.00444205
0.00127306
0.00518723
0.00796321
0.00950946
0.0102991
0.0104359
0.0103473
0.00996187
0.00926172
0.00872271
0.00792517
0.00733319
0.00669102
0.00594291
0.00553843
0.00491878
0.0043422
0.0040346
0.00353613
0.00307222
0.00242649
0.00211655
0.00205585
0.000793777
-0.0556457
-0.0622266
-0.065731
-0.0660851
-0.0641828
-0.0608309
-0.0563992
-0.0509931
-0.0446237
-0.0373519
-0.0295785
-0.0217463
-0.0144932
-0.00815425
-0.00292392
0.00107767
0.00420327
0.00633463
0.00766732
0.00828196
0.00859916
0.00860347
0.00818247
0.00789344
0.0072893
0.00686417
0.00634879
0.00568546
0.00536506
0.00479519
0.00425482
0.00398212
0.00349776
0.00305319
0.00240293
0.00208331
0.00206814
0.000810346
-0.044715
-0.0497857
-0.052588
-0.0530383
-0.0517755
-0.0494117
-0.0462456
-0.0423877
-0.0378189
-0.0325712
-0.0268488
-0.0207965
-0.0149239
-0.00951962
-0.00480525
-0.00110534
0.00187019
0.00405333
0.00554583
0.00635596
0.00699702
0.00730129
0.00713087
0.00705354
0.00661868
0.00634093
0.00595693
0.00537637
0.00513545
0.00463675
0.00413304
0.00389192
0.00343676
0.00302072
0.00235907
0.00201299
0.00206583
0.000808468
-0.0356777
-0.0395547
-0.0417643
-0.0422309
-0.0414163
-0.0397821
-0.0375572
-0.0348482
-0.0316307
-0.0278822
-0.0237141
-0.0191693
-0.0146626
-0.0103634
-0.00641309
-0.00317535
-0.000387689
0.00185887
0.00350221
0.00450656
0.00538769
0.00597324
0.00604995
0.00617811
0.00593049
0.00583229
0.00556238
0.0050882
0.00495226
0.00448717
0.00404391
0.0038503
0.00338898
0.00300715
0.00235944
0.00206988
0.00207093
0.000855364
-0.0284903
-0.0314573
-0.0331854
-0.0336136
-0.0330903
-0.0319675
-0.0304101
-0.0285193
-0.0262701
-0.0236324
-0.0206796
-0.0173625
-0.0139661
-0.0106002
-0.0073164
-0.00450381
-0.00197307
0.000207327
0.00187925
0.00293334
0.00391998
0.00469599
0.00494175
0.00523506
0.00513108
0.00515104
0.00503376
0.00463929
0.00457468
0.00421726
0.00380772
0.00365407
0.00325009
0.00288947
0.0022265
0.00164656
0.00197727
0.000785788
-0.0223501
-0.024595
-0.0259336
-0.0263106
-0.0259945
-0.0252409
-0.0241564
-0.0228372
-0.0212608
-0.0194008
-0.0173145
-0.0149019
-0.0123797
-0.00980553
-0.0071929
-0.00490169
-0.00276827
-0.000820967
0.000758961
0.0017883
0.00284591
0.00372182
0.00412257
0.00453519
0.00456615
0.00473854
0.00469903
0.00441623
0.00446017
0.00411851
0.00378139
0.00368301
0.00325657
0.00294598
0.00236074
0.0020468
0.00205024
0.000899232
-0.0177336
-0.019425
-0.0204426
-0.0207445
-0.0205481
-0.0200471
-0.0193038
-0.018411
-0.0173449
-0.0160797
-0.0146549
-0.012952
-0.0111432
-0.0092497
-0.00721578
-0.0053843
-0.00360257
-0.00187307
-0.000425729
0.000549355
0.00156914
0.00252551
0.00300712
0.00351783
0.00364915
0.00389649
0.00400211
0.0037881
0.0038807
0.00367716
0.00337307
0.00331432
0.00297068
0.00266851
0.00205589
0.00167842
0.00182504
0.000739001
-0.0132847
-0.0145849
-0.015376
-0.0156057
-0.0154706
-0.0151296
-0.014612
-0.0140023
-0.0132752
-0.0124033
-0.0114231
-0.0102137
-0.00892602
-0.00754895
-0.00600564
-0.00461122
-0.00321374
-0.00178104
-0.000536957
0.000289102
0.00124639
0.00214679
0.00265874
0.0031942
0.00339449
0.00372241
0.00387007
0.00374088
0.00393196
0.00372358
0.00347385
0.00348194
0.00310129
0.00284709
0.00233164
0.00187109
0.00194224
0.000901684
-0.0103378
-0.0113098
-0.0118917
-0.0120546
-0.0119714
-0.0117601
-0.0114169
-0.011021
-0.01055
-0.00999083
-0.00937117
-0.00856474
-0.00770451
-0.00675742
-0.00562525
-0.00460967
-0.00353379
-0.00233788
-0.0013094
-0.000623142
0.000212995
0.0011083
0.00161874
0.00216632
0.00241819
0.00276961
0.00302443
0.00294358
0.00314632
0.00309518
0.00288288
0.00291565
0.00262591
0.00238264
0.00184701
0.00135393
0.00149621
0.000661821
-0.00678907
-0.00754641
-0.00801543
-0.00814811
-0.00810428
-0.00798558
-0.00776308
-0.00751979
-0.0072215
-0.00685849
-0.00645353
-0.00589389
-0.0053085
-0.00466903
-0.00384816
-0.00314592
-0.00237725
-0.00143007
-0.000609861
-8.94568e-05
0.00059363
0.00137498
0.00180337
0.00232822
0.00257249
0.00291866
0.00320489
0.00312895
0.00343993
0.00333791
0.00314067
0.00326452
0.00290287
0.00269912
0.0022173
0.00154326
0.00165474
0.000835549
-0.00461828
-0.0052179
-0.00557902
-0.0056806
-0.00567903
-0.00564477
-0.00553374
-0.00542301
-0.00527244
-0.00509952
-0.00490451
-0.00460607
-0.00430298
-0.00393605
-0.00338712
-0.00292969
-0.00237326
-0.00166008
-0.00110746
-0.000691622
-0.000150324
0.000567437
0.000919765
0.00138859
0.00166109
0.00195511
0.00231835
0.00226055
0.00253706
0.00261801
0.00245011
0.00256877
0.00231222
0.00214732
0.00168028
0.00095573
0.00104591
0.000573723
-0.00168511
-0.00215683
-0.00245786
-0.00257578
-0.00262833
-0.00267648
-0.0026596
-0.00265563
-0.00260583
-0.0025468
-0.0024453
-0.00227426
-0.0020917
-0.00189848
-0.00154654
-0.00130692
-0.000924635
-0.000393985
1.00056e-05
0.000306013
0.000659828
0.00130203
0.00148995
0.00201518
0.00212977
0.00240213
0.00279182
0.00263039
0.00303537
0.00304126
0.00284137
0.00302207
0.0027392
0.00261098
0.00207929
0.00126648
0.00131974
0.000730703
0.000656205
0.000218687
-0.000123723
-0.000376607
-0.000558859
-0.000743547
-0.000893364
-0.00105442
-0.00118844
-0.0013085
-0.0013697
-0.00140073
-0.00132434
-0.00127992
-0.00111547
-0.000987952
-0.000821007
-0.000573897
-0.000277183
3.41281e-05
0.000172446
0.000721165
0.000807394
0.00134839
0.00146383
0.00163201
0.00216218
0.00190545
0.0023042
0.00250975
0.00221555
0.00245645
0.00239351
0.00225538
0.00180716
0.00108941
0.00112984
0.000701114
0.00210833
0.00182225
0.00155671
0.00131203
0.00111373
0.000942558
0.000788011
0.00064655
0.000522351
0.000403291
0.000331116
0.000251847
0.000244886
0.000253406
0.000305754
0.00041113
0.000514928
0.00061731
0.000756073
0.00103624
0.00116269
0.00143965
0.00159083
0.00187016
0.00209087
0.00219736
0.00251399
0.00250683
0.00271492
0.00282315
0.00270665
0.0028609
0.00265904
0.0024758
0.00237856
0.00165494
0.000958292
0.000589743
0.00266949
0.00242651
0.00219892
0.00198051
0.00177474
0.00157408
0.00138433
0.00120377
0.00104253
0.000891821
0.000766274
0.000656002
0.00058283
0.000524342
0.000492183
0.000499258
0.00051019
0.000568975
0.000642231
0.000804422
0.000887587
0.00107458
0.00121607
0.00140446
0.00162048
0.00169675
0.00197991
0.00201529
0.00215572
0.0023551
0.00222135
0.00236706
0.00233134
0.00201501
0.00187991
0.00136391
0.000684383
0.000325476
0.00324284
0.00303028
0.00281997
0.00261315
0.00241559
0.00222925
0.00205117
0.00188179
0.00172273
0.00157213
0.00143994
0.00131605
0.00121649
0.00115105
0.00110492
0.00109437
0.00110217
0.00111963
0.0011432
0.00124792
0.00135019
0.0014676
0.00159692
0.00172822
0.00191624
0.0020167
0.00219457
0.00231128
0.00237741
0.0025361
0.00249666
0.0024954
0.00248581
0.00219324
0.00196895
0.00154907
0.000824399
0.000336389
-0.0815281
-0.100456
-0.11965
-0.140224
-0.162197
-0.186167
-0.212036
-0.24077
-0.0750606
-0.090741
-0.10636
-0.12303
-0.139911
-0.157778
-0.175627
-0.196602
-0.0653456
-0.0774154
-0.0891989
-0.101586
-0.11438
-0.127835
-0.143011
-0.16141
-0.0582145
-0.0677297
-0.0771844
-0.0869096
-0.0975837
-0.108803
-0.121577
-0.135997
-0.0511012
-0.0586684
-0.06631
-0.0740825
-0.0825286
-0.0910803
-0.100566
-0.11166
-0.0450409
-0.0508603
-0.0567117
-0.0625359
-0.0687737
-0.0751837
-0.0825519
-0.0914522
-0.0392687
-0.0436442
-0.0480549
-0.0524771
-0.0572709
-0.062295
-0.0680507
-0.0749491
-0.0340906
-0.0373554
-0.040656
-0.0439994
-0.0476142
-0.0513855
-0.0556871
-0.0609633
-0.0294707
-0.0318329
-0.0342015
-0.0366261
-0.0392656
-0.0420589
-0.0453078
-0.0493972
-0.0252576
-0.0269327
-0.0285928
-0.0303288
-0.0322599
-0.0343474
-0.0368049
-0.0399469
-0.0214087
-0.0225972
-0.0237506
-0.024973
-0.0263547
-0.0278704
-0.0296817
-0.0320596
-0.0179493
-0.0187994
-0.0195958
-0.0204496
-0.0214358
-0.0225431
-0.0238978
-0.0257216
-0.0147758
-0.0153884
-0.0159304
-0.0164979
-0.0171623
-0.0179312
-0.0189049
-0.0202637
-0.0120264
-0.0124565
-0.0128208
-0.0132334
-0.0137509
-0.0143562
-0.0151082
-0.0161478
-0.00928492
-0.00962047
-0.00990204
-0.0101901
-0.0105177
-0.0108846
-0.0113628
-0.0120955
-0.00714295
-0.00734025
-0.00749211
-0.00769807
-0.00799149
-0.00834751
-0.00879152
-0.00940422
-0.00460004
-0.00479981
-0.00496375
-0.00513431
-0.00532381
-0.00551647
-0.00574889
-0.00612389
-0.00267321
-0.00277478
-0.00285792
-0.0029916
-0.00318469
-0.00340621
-0.00367348
-0.00404291
-0.000165038
-0.000281715
-0.000397091
-0.00054557
-0.000712894
-0.00087087
-0.00103526
-0.00127348
0.00263326
0.00239724
0.00218413
0.00197817
0.00177037
0.00154974
0.00131563
0.00103683
0.00338587
0.0032246
0.00307607
0.00293327
0.00279258
0.00264774
0.00249938
0.0023337
0.00409206
0.00391364
0.00374039
0.00357024
0.00340035
0.00322845
0.00305616
0.00288293
0.00441159
0.00425786
0.00410803
0.0039638
0.00382508
0.00368918
0.00355404
0.0034171
0.105667
0.111895
0.118369
0.124503
0.129354
0.132679
0.134397
0.134095
0.130944
0.123728
0.110769
0.0897127
0.0567402
0.00888898
-0.0338851
0.0842323
0.0883439
0.0913127
0.0933873
0.0943764
0.0939169
0.091564
0.0866454
0.0781933
0.0648965
0.0449632
0.0160612
-0.0255592
-0.0835116
-0.131119
0.0612543
0.0634053
0.063135
0.0616712
0.0592559
0.0553629
0.0492835
0.0402039
0.0270949
0.00857687
-0.017278
-0.0528714
-0.100915
-0.167143
-0.213337
0.0364299
0.0363878
0.0335811
0.0296295
0.0246486
0.0179325
0.00869595
-0.00388056
-0.0208252
-0.0434998
-0.0739514
-0.114762
-0.167937
-0.234502
-0.278697
0.0104213
0.00818367
0.00361905
-0.00193825
-0.00876294
-0.0176644
-0.0293417
-0.0445684
-0.064334
-0.0899207
-0.123327
-0.167207
-0.222129
-0.285585
-0.325894
-0.0153785
-0.0197247
-0.0255226
-0.0321765
-0.0403856
-0.0508962
-0.0642233
-0.0811508
-0.102591
-0.129811
-0.164593
-0.20875
-0.262282
-0.319947
-0.354945
-0.0404043
-0.0465011
-0.0528895
-0.0603921
-0.0696701
-0.0812402
-0.0955717
-0.113299
-0.135296
-0.162696
-0.196892
-0.239039
-0.288275
-0.337385
-0.367344
-0.0655764
-0.0714766
-0.0783379
-0.0865651
-0.0965537
-0.108643
-0.123233
-0.140899
-0.162402
-0.188654
-0.220649
-0.258816
-0.300975
-0.339353
-0.365483
0.209582
0.225079
0.242074
0.260933
0.281559
0.30395
0.328037
0.353764
0.381038
0.409613
0.438945
0.467969
0.494839
0.516042
0.533741
0.210967
0.226242
0.242937
0.261416
0.281876
0.30413
0.328032
0.353492
0.380413
0.408546
0.437329
0.46566
0.49164
0.511757
0.528378
0.208448
0.222677
0.238396
0.256149
0.275878
0.297269
0.320067
0.344139
0.369363
0.395448
0.421757
0.447102
0.469456
0.48542
0.498049
0.201907
0.214347
0.228596
0.245069
0.263435
0.283161
0.303915
0.325556
0.347919
0.370601
0.392804
0.413172
0.429428
0.438334
0.444526
0.190687
0.200844
0.213387
0.228507
0.245229
0.262691
0.280555
0.298746
0.31709
0.335067
0.351694
0.365389
0.373547
0.37288
0.370909
0.175317
0.182716
0.193551
0.207073
0.221674
0.236354
0.250799
0.264923
0.278457
0.290734
0.300589
0.306233
0.304736
0.292651
0.280526
0.155578
0.161121
0.170656
0.182181
0.193854
0.204973
0.215399
0.224976
0.233221
0.239244
0.241672
0.238496
0.226498
0.20215
0.17878
0.131547
0.13618
0.145169
0.154634
0.163065
0.17023
0.176232
0.180847
0.183395
0.18279
0.177466
0.165184
0.142412
0.105775
0.0715714
0.0236093
0.0249528
0.023814
0.0271219
0.0255146
0.030427
0.0289823
0.0340338
0.0345125
0.0396854
0.0416817
0.0474426
0.0515846
0.0587633
0.0651284
0.0741822
0.0833991
0.0953287
0.108352
0.124359
0.142308
0.163729
0.187895
0.0236304
0.0249699
0.0238186
0.0271368
0.025612
0.0303961
0.0290751
0.0340247
0.0346148
0.039678
0.0418186
0.0472406
0.0516669
0.0588398
0.0652976
0.0744138
0.083736
0.0958151
0.108943
0.125181
0.143233
0.164977
0.189289
0.0236508
0.0249742
0.023837
0.027122
0.0257273
0.0303292
0.0291974
0.0339891
0.0347509
0.0396601
0.0420176
0.0478644
0.0518498
0.058922
0.0654684
0.0745895
0.0839643
0.0961345
0.109132
0.125428
0.142943
0.164461
0.187919
0.0236697
0.0249683
0.0238682
0.0270816
0.0258582
0.0302305
0.0293403
0.03394
0.034919
0.0396395
0.0422088
0.0478057
0.0519889
0.058965
0.0655909
0.0746686
0.0839871
0.0962163
0.108885
0.12523
0.142021
0.163047
0.184132
0.0236859
0.0249553
0.0239102
0.0270196
0.0260008
0.0301084
0.0295034
0.0338732
0.0350805
0.0395976
0.0424225
0.0478699
0.0522206
0.0590296
0.065733
0.0747526
0.0839688
0.0959787
0.108026
0.123584
0.138455
0.15807
0.17587
0.0236988
0.024938
0.0239605
0.0269425
0.026145
0.029962
0.0296793
0.0338332
0.035294
0.039613
0.0426192
0.0478622
0.0523563
0.0591359
0.0658621
0.0748622
0.08402
0.0959755
0.107704
0.123005
0.136761
0.15454
0.166969
0.0237079
0.0249209
0.0240152
0.0268524
0.0262941
0.0298186
0.0298481
0.0337444
0.0354206
0.0395432
0.0428237
0.0479917
0.0526844
0.0591855
0.0659549
0.074619
0.0835412
0.0946601
0.105346
0.118536
0.129453
0.144576
0.152112
0.02371
0.0249038
0.0240809
0.026758
0.026405
0.0296692
0.0300775
0.0338036
0.0357252
0.0397049
0.0431037
0.048101
0.0528212
0.0595285
0.0664124
0.075417
0.0843119
0.095598
0.10553
0.118141
0.127213
0.137165
0.133675
0.0236998
0.0248656
0.0241232
0.0266183
0.0266182
0.0294376
0.0301887
0.0334614
0.0356218
0.0393814
0.0431682
0.0484546
0.0534692
0.0590412
0.0658526
0.0732713
0.081703
0.0903173
0.0990427
0.106154
0.110262
0.109123
0.104723
0.0236742
0.024812
0.0241966
0.0264084
0.0267429
0.0289709
0.0302483
0.0330186
0.0354494
0.0386465
0.042348
0.0458307
0.0506352
0.0560905
0.0621676
0.0683686
0.075398
0.0816864
0.0878968
0.0916763
0.0941088
0.092118
0.0861951
0.0236464
0.0247373
0.0242602
0.026129
0.0268876
0.0284577
0.0302917
0.0324822
0.0350876
0.0378122
0.0413907
0.0452698
0.0495406
0.0536818
0.0588664
0.0637425
0.0690706
0.0734031
0.0769963
0.0782132
0.0774615
0.0734341
0.0671085
0.0236099
0.024632
0.0243092
0.0258205
0.0270193
0.0279063
0.0302097
0.031929
0.0345437
0.036934
0.0401709
0.0426901
0.0467759
0.0505357
0.0546047
0.0582622
0.0618901
0.0644428
0.0658543
0.0650878
0.0624029
0.0577443
0.0516162
0.0235614
0.0245013
0.0243368
0.0254765
0.0270857
0.027367
0.0299971
0.0313659
0.0337665
0.0359239
0.0386778
0.0408581
0.0441324
0.0471431
0.0500884
0.0524691
0.0546086
0.0555384
0.0552524
0.053058
0.049365
0.0441202
0.0378373
0.0234945
0.0243487
0.0243254
0.0251195
0.0270598
0.0268341
0.0296098
0.0307667
0.0327781
0.0347832
0.0369814
0.0385557
0.0411167
0.0433853
0.0452055
0.0463584
0.0472523
0.0469207
0.0454019
0.0423474
0.038202
0.033209
0.0280611
0.0234031
0.0241779
0.0242608
0.024748
0.0269116
0.0263133
0.0290452
0.0301081
0.0315915
0.0334217
0.0350924
0.0360223
0.0379228
0.0394508
0.0402177
0.0402723
0.0401529
0.0389645
0.0366259
0.0330078
0.0285782
0.0235731
0.0184283
0.0232798
0.0239885
0.0241287
0.0243646
0.0266275
0.0257929
0.0283015
0.0293494
0.0302661
0.0318341
0.0330578
0.0332848
0.034473
0.0354138
0.0352928
0.034402
0.0335052
0.0318006
0.0289785
0.0250723
0.0206078
0.0157682
0.0108564
0.0231176
0.0237795
0.0239237
0.0239622
0.0261973
0.0252551
0.0274079
0.0284607
0.0288312
0.0300246
0.0308722
0.0304586
0.0309386
0.0313734
0.0305992
0.0289697
0.0275007
0.0255355
0.0225282
0.0185686
0.0142658
0.00979923
0.00517847
0.0229113
0.0235463
0.0236411
0.0235321
0.0256272
0.0246733
0.0263877
0.0274113
0.0273038
0.0280732
0.028576
0.027638
0.0274412
0.0274413
0.0262397
0.0241022
0.0222337
0.0201819
0.0172247
0.0133922
0.00935631
0.00535091
0.00115635
0.0226578
0.0232817
0.0232823
0.0230584
0.0249375
0.0240238
0.025274
0.0261377
0.0256915
0.0260554
0.0262231
0.0248797
0.0241425
0.0237889
0.0223296
0.0198894
0.0177719
0.0157357
0.0129606
0.00938507
0.00568821
0.00216722
-0.00150577
0.0223528
0.0229804
0.0228548
0.0225266
0.0241428
0.0232925
0.0241099
0.0247777
0.0240306
0.0240369
0.0238813
0.0222335
0.0211266
0.0205317
0.018939
0.0163842
0.014181
0.0122363
0.00970172
0.00644374
0.00312887
8.43278e-05
-0.00307658
0.0219985
0.0226284
0.0223616
0.0219291
0.0232898
0.0224687
0.0229078
0.0233623
0.0223591
0.0220973
0.0216795
0.0198207
0.0184375
0.0176841
0.0160255
0.0134749
0.0113088
0.00951945
0.00726104
0.00437481
0.00148898
-0.00106717
-0.00369165
0.0216016
0.0222386
0.0218001
0.0212456
0.0223805
0.0216012
0.0216962
0.0218296
0.0206939
0.0202589
0.0196428
0.0176582
0.0162001
0.0154013
0.0137736
0.0113224
0.00927791
0.00766383
0.00565316
0.00309336
0.000583568
-0.0015673
-0.00377122
0.0211566
0.0217864
0.0212012
0.0205197
0.0214692
0.0206946
0.0204917
0.0203755
0.0191449
0.0186178
0.0178405
0.0157778
0.0142882
0.0135172
0.0119686
0.00968512
0.00784912
0.00646548
0.00473296
0.00252354
0.000419994
-0.00131023
-0.00308804
0.0206993
0.0212988
0.0205145
0.0197346
0.0205846
0.0197954
0.0193094
0.0190057
0.017767
0.0172478
0.0163611
0.0142917
0.0128803
0.0122175
0.0107977
0.00869696
0.00704086
0.00581603
0.00426013
0.0022973
0.000487745
-0.000947659
-0.00242931
0.0202126
0.0207682
0.0198318
0.0189801
0.0197398
0.0189718
0.0181985
0.0176789
0.0165835
0.0161032
0.0150924
0.0130493
0.0118016
0.0112942
0.0100819
0.00827523
0.00690343
0.00589957
0.00457203
0.00290397
0.00142086
0.000271817
-0.000958001
0.0197449
0.0201682
0.0191401
0.0182938
0.0189634
0.0181422
0.0171967
0.0166064
0.0156508
0.0152681
0.0141967
0.0122807
0.0112214
0.0108255
0.00975526
0.00821741
0.00708441
0.00619748
0.00497259
0.00350027
0.00225631
0.00129809
0.000235264
0.0193078
0.0196122
0.0184616
0.017761
0.0183067
0.0174505
0.016323
0.0155222
0.0149597
0.0146133
0.0134614
0.0117678
0.0110353
0.0108026
0.00997031
0.00879636
0.00794234
0.00721522
0.0061882
0.00500596
0.00402872
0.00322585
0.00227431
0.0188836
0.0190312
0.017998
0.0172044
0.0176426
0.0171208
0.0157844
0.0150275
0.0146956
0.0141709
0.0131574
0.0119583
0.0112232
0.0109372
0.0104351
0.00954669
0.00865329
0.00796474
0.00731187
0.00658951
0.00585536
0.00517476
0.00446688
0.0183605
0.0184811
0.0178014
0.016692
0.0166564
0.0164714
0.0153636
0.0143304
0.0138774
0.0134968
0.0127024
0.0115861
0.0105868
0.0100383
0.00966117
0.00907111
0.00831779
0.0076647
0.0071562
0.00668751
0.00619195
0.00571535
0.00528118
0.0179954
0.0181167
0.017444
0.0162775
0.0161353
0.0160672
0.0151449
0.0140308
0.0135127
0.0132442
0.0126055
0.0115897
0.0106779
0.0101188
0.00972939
0.00926893
0.00868488
0.00808697
0.00755136
0.00708553
0.00665769
0.00625056
0.00585045
0.0177831
0.017742
0.0173476
0.0163559
0.0157211
0.0154603
0.0149085
0.014012
0.0132723
0.0127805
0.0122407
0.0114954
0.0106531
0.00993739
0.00941578
0.00897693
0.00850088
0.00799962
0.00753391
0.00713383
0.00677954
0.0064533
0.00615106
0.0968218
0.0784489
0.0542933
0.0310504
0.00782997
-0.0160047
-0.0396786
-0.0613217
0.0788432
0.0593893
0.0343816
0.0132725
-0.0051832
-0.0235863
-0.0418045
-0.0589912
0.0612004
0.0459858
0.0246845
0.00606071
-0.00949878
-0.0238892
-0.0381855
-0.0522461
0.0465119
0.0341736
0.0153257
-0.00162202
-0.0153331
-0.026849
-0.0376975
-0.0481915
0.0334077
0.0233715
0.00761048
-0.00698618
-0.0183514
-0.0271214
-0.0352282
-0.0431912
0.0233217
0.0149663
0.00192349
-0.0105232
-0.0199673
-0.0268217
-0.0329639
-0.0390207
0.0145279
0.00796499
-0.00249956
-0.0128035
-0.0205084
-0.0258219
-0.0303741
-0.0348049
0.00735491
0.00234565
-0.0056026
-0.0137082
-0.0198423
-0.0240095
-0.0274491
-0.0307566
0.00164403
-0.0023496
-0.00799205
-0.0137279
-0.0183055
-0.0216533
-0.0244224
-0.0269857
-0.00234163
-0.00568384
-0.00950994
-0.0132596
-0.0164952
-0.01914
-0.0214039
-0.023416
-0.00472941
-0.00747995
-0.0100596
-0.0124475
-0.0146484
-0.0166469
-0.0184541
-0.0200364
-0.00595063
-0.00818499
-0.00990153
-0.01137
-0.0128167
-0.0142753
-0.0156772
-0.0169121
-0.00613602
-0.00793089
-0.00910293
-0.0100039
-0.0109321
-0.0119657
-0.0130352
-0.013997
-0.00588505
-0.00733723
-0.00810202
-0.00858994
-0.00914636
-0.00986746
-0.0106737
-0.0114208
-0.00484073
-0.00603031
-0.0065993
-0.00688555
-0.00720313
-0.00767787
-0.00827135
-0.00884109
-0.00392985
-0.00489399
-0.00525799
-0.005366
-0.00553134
-0.0058721
-0.00633827
-0.00679539
-0.0022446
-0.00308235
-0.00339345
-0.00342795
-0.00346592
-0.00365424
-0.00398223
-0.00432912
-0.000890618
-0.0015903
-0.00180077
-0.00177371
-0.00177161
-0.00191796
-0.00218837
-0.00246982
0.00128663
0.000703117
0.000553343
0.000600609
0.00061446
0.000490076
0.000255849
1.38441e-05
0.00381943
0.00343295
0.00330617
0.00331566
0.00333029
0.00326102
0.00309417
0.00286854
0.00491445
0.00462967
0.00438571
0.0041852
0.00402331
0.00387951
0.00372998
0.003562
0.00552266
0.00529296
0.00510494
0.00493826
0.00477901
0.00461744
0.00444842
0.00427184
0.00590657
0.0057031
0.00549152
0.00528181
0.00508225
0.00489778
0.00472799
0.00456766
-0.288597
-0.293093
-0.301961
-0.315064
-0.332445
-0.354584
-0.381714
-0.410135
-0.286468
-0.290883
-0.298693
-0.309913
-0.324795
-0.343497
-0.365727
-0.38973
-0.28166
-0.286017
-0.29367
-0.303983
-0.317215
-0.333642
-0.351634
-0.367483
-0.276305
-0.280742
-0.288247
-0.297687
-0.308796
-0.320901
-0.331768
-0.338097
-0.272599
-0.276754
-0.283472
-0.290983
-0.298382
-0.304695
-0.308243
-0.306892
-0.272304
-0.275148
-0.279739
-0.283857
-0.286581
-0.287339
-0.285063