/*--------------------------------*- C++ -*----------------------------------*\
| =========                 |                                                 |
| \\      /  F ield         | OpenFOAM: The Open Source CFD Toolbox           |
|  \\    /   O peration     | Version:  2312                                  |
|   \\  /    A nd           | Website:  www.openfoam.com                      |
|    \\/     M anipulation  |                                                 |
\*---------------------------------------------------------------------------*/
FoamFile
{
    version     2.0;
    format      ascii;
    arch        "LSB;label=32;scalar=64";
    class       volVectorField;
    location    "104.15";
    object      U;
}
// * * * * * * * * * * * * * * * * * * * * * * * * * * * * * * * * * * * * * //

dimensions      [0 1 -1 0 0 0 0];

internalField   nonuniform List<vector> 
5478
(
(-0.0423551 0.0283289 -1.24968e-19)
(-0.056337 0.0436475 0)
(0.00697036 0.0374736 1.87006e-19)
(0.16619 0.0167011 -3.27408e-19)
(0.419471 -0.00872524 2.13983e-19)
(0.718944 -0.0312671 -6.35378e-20)
(1.00102 -0.0498404 -1.10589e-19)
(1.21796 -0.0668054 0)
(1.34826 -0.0858037 0)
(1.39481 -0.107692 1.36426e-19)
(1.38374 -0.130713 -6.46145e-20)
(1.34749 -0.150005 -1.00731e-19)
(1.30528 -0.174639 -3.73873e-20)
(1.27703 -0.170253 0)
(1.22586 -0.214292 8.81925e-20)
(-0.0480963 0.0289396 2.50973e-19)
(-0.0298076 0.0293037 0)
(0.110117 0.00882001 0)
(0.382205 -0.0122888 -1.65486e-19)
(0.719977 -0.0232541 2.17758e-19)
(1.02643 -0.0268692 6.25092e-20)
(1.24344 -0.0300793 -1.05322e-19)
(1.35889 -0.0384914 9.34017e-20)
(1.39299 -0.0529241 2.25149e-19)
(1.38172 -0.0714717 -1.95967e-19)
(1.35653 -0.088488 4.48582e-21)
(1.3288 -0.106659 0)
(1.30318 -0.115315 3.73206e-20)
(1.26741 -0.125647 0)
(1.23084 -0.136862 0)
(-0.0449697 0.0246753 -6.81574e-22)
(0.0304084 0.0105535 -1.17725e-19)
(0.28616 -0.00990617 8.0692e-22)
(0.663013 -0.0115798 0)
(1.00966 -0.00236789 -7.31324e-20)
(1.24227 0.00483025 6.14717e-20)
(1.35668 0.00357518 5.13531e-20)
(1.38937 -0.00569802 0)
(1.38331 -0.0194089 -7.49449e-20)
(1.36561 -0.0330459 6.23926e-20)
(1.34265 -0.0472398 5.1522e-20)
(1.31627 -0.0569493 0)
(1.28283 -0.0699344 0)
(1.25225 -0.0744946 -1.00427e-19)
(1.21956 -0.0881624 8.9495e-20)
(-0.0296723 0.014888 -1.37339e-19)
(0.138197 -0.0105417 1.16169e-19)
(0.528033 -0.00738774 -1.00328e-19)
(0.937739 0.0176708 8.77847e-20)
(1.21528 0.0374912 1.46293e-19)
(1.35116 0.0437205 -1.21947e-19)
(1.39459 0.0391147 -5.13289e-20)
(1.39468 0.029111 3.97321e-20)
(1.37813 0.0175493 -3.80392e-20)
(1.3534 0.00477464 0)
(1.32538 -0.00651744 0)
(1.29587 -0.0197484 -7.24712e-20)
(1.27037 -0.0276723 9.35201e-20)
(1.24511 -0.0365844 -5.23996e-20)
(1.22033 -0.0465569 0)
(0.00271574 0.00178277 6.9508e-20)
(0.303759 -0.0184395 5.86262e-20)
(0.784555 0.0241025 -2.09838e-19)
(1.14701 0.0652634 2.95429e-21)
(1.33355 0.0839112 -2.59323e-21)
(1.39962 0.0853109 -1.92233e-21)
(1.40559 0.0779832 4.82726e-20)
(1.38692 0.0671181 4.09642e-20)
(1.35991 0.054586 2.9415e-20)
(1.33271 0.0424245 -4.61771e-21)
(1.30722 0.0298816 -6.70333e-20)
(1.28408 0.0201367 0)
(1.25958 0.0103228 2.98214e-20)
(1.23472 0.000323398 -2.18175e-20)
(1.21012 -0.00531638 3.96317e-20)
(0.0590595 -0.00939899 -1.4906e-19)
(0.511586 0.00429137 1.61301e-19)
(1.00125 0.0780145 -5.48872e-20)
(1.28424 0.121582 4.13337e-20)
(1.39563 0.133953 -7.5972e-20)
(1.41527 0.129634 -5.62894e-20)
(1.39801 0.118639 1.53752e-21)
(1.3711 0.10555 0)
(1.34462 0.0923572 5.98609e-20)
(1.31932 0.079178 -5.32328e-20)
(1.29447 0.0672975 2.12451e-20)
(1.26892 0.0552105 0)
(1.24476 0.0446614 1.30686e-20)
(1.22243 0.0349341 -2.26455e-20)
(1.20098 0.0281869 0)
(0.141912 -0.00971545 -1.865e-20)
(0.717413 0.0598265 1.37826e-21)
(1.16243 0.146257 2.71142e-20)
(1.36548 0.183473 4.48141e-20)
(1.41919 0.186791 -3.40681e-20)
(1.40991 0.175921 5.73203e-20)
(1.38282 0.161293 -1.29866e-20)
(1.35357 0.146102 0)
(1.32506 0.130803 -3.53355e-20)
(1.29813 0.116224 2.31225e-21)
(1.27314 0.102074 2.95206e-20)
(1.25087 0.0895417 0)
(1.23011 0.078062 -1.91194e-20)
(1.20999 0.0669031 0)
(1.1914 0.0617299 1.16564e-20)
(0.245302 0.00789738 -2.00951e-20)
(0.888172 0.13661 0)
(1.26897 0.223369 2.78997e-20)
(1.40277 0.248942 0)
(1.41715 0.241636 0)
(1.39218 0.224294 0)
(1.35971 0.205443 -1.11249e-20)
(1.32866 0.186692 0)
(1.30109 0.168701 7.13741e-21)
(1.27652 0.151743 0)
(1.25398 0.136267 -9.2626e-21)
(1.23224 0.121656 0)
(1.21162 0.108044 6.04431e-21)
(1.19297 0.0966264 0)
(1.17532 0.0890291 3.93573e-21)
(-0.00558898 0.210193 -1.44832e-20)
(-0.0192672 0.369632 0)
(-0.0470366 0.404151 2.27161e-20)
(-0.0755222 0.395975 0)
(-0.0994711 0.375657 0)
(-0.116202 0.34448 0)
(-0.12407 0.297623 -1.62629e-20)
(-0.122767 0.231994 0)
(-0.113016 0.146805 1.42571e-20)
(-0.0967989 0.0425738 0)
(-0.0743371 -0.077666 -2.4131e-20)
(-0.0446039 -0.210565 0)
(-0.00389151 -0.347346 1.8658e-20)
(0.0298229 -0.484292 0)
(0.0924797 -0.59766 1.2528e-20)
(-0.016038 0.198568 7.36662e-20)
(-0.0252843 0.375863 -5.2703e-20)
(-0.0323324 0.425228 2.42699e-20)
(-0.0362893 0.420472 8.49553e-20)
(-0.033245 0.395878 1.67116e-21)
(-0.0206642 0.357528 -7.14027e-20)
(0.00240514 0.303066 4.86666e-20)
(0.0352707 0.230494 0)
(0.0752842 0.139499 4.58079e-20)
(0.120276 0.0306736 1.94032e-21)
(0.170745 -0.091779 -2.51683e-20)
(0.225615 -0.231256 0)
(0.297769 -0.368779 -5.7318e-20)
(0.349124 -0.515956 0)
(0.442493 -0.61956 -6.02718e-20)
(-0.0232769 0.166809 1.21764e-19)
(-0.0309262 0.349731 2.64561e-20)
(-0.0185205 0.415873 -4.68703e-20)
(0.0021836 0.418402 -1.28987e-19)
(0.0320538 0.392203 7.6567e-20)
(0.0724849 0.349051 7.40629e-20)
(0.123402 0.290337 -1.32057e-19)
(0.182885 0.215691 0)
(0.246814 0.12457 -1.20609e-19)
(0.315785 0.0178194 1.07236e-19)
(0.392047 -0.100322 4.91141e-20)
(0.474913 -0.245435 0)
(0.576584 -0.380584 3.86376e-20)
(0.64321 -0.533006 -6.21189e-20)
(0.754407 -0.629645 0)
(-0.0260077 0.123303 6.16583e-20)
(-0.0367239 0.293851 -1.61795e-19)
(-0.0118556 0.372836 1.90488e-19)
(0.0284141 0.385455 -1.68038e-19)
(0.08069 0.361615 -7.56136e-20)
(0.143828 0.316797 6.91434e-20)
(0.216159 0.25659 6.64116e-20)
(0.29505 0.182122 5.94303e-20)
(0.379943 0.0960649 -1.7136e-19)
(0.476778 -0.00665638 -3.4118e-21)
(0.586807 -0.119671 4.58332e-20)
(0.71189 -0.264137 0)
(0.844494 -0.382861 6.97333e-20)
(0.930327 -0.528245 1.74518e-19)
(1.03267 -0.578506 -9.99725e-20)
(-0.0250519 0.0804655 -3.57827e-23)
(-0.0419579 0.221009 1.0725e-19)
(-0.014376 0.301026 -9.33635e-20)
(0.0364745 0.320896 8.38671e-20)
(0.103619 0.301676 1.48748e-19)
(0.183048 0.259011 -1.35373e-19)
(0.271653 0.20064 -6.07951e-20)
(0.371654 0.13075 -1.77553e-19)
(0.488823 0.0490638 1.60173e-19)
(0.630125 -0.0525824 0)
(0.789855 -0.161532 0)
(0.955913 -0.291636 1.53026e-19)
(1.09463 -0.385682 -3.32715e-19)
(1.1772 -0.496467 1.12954e-19)
(1.21696 -0.515552 0)
(-0.0235636 0.0484287 8.09105e-22)
(-0.0468602 0.150007 -1.05914e-19)
(-0.0240588 0.216103 2.79382e-19)
(0.0287989 0.234612 -8.14784e-20)
(0.104028 0.218098 -7.31925e-20)
(0.198664 0.179282 6.6282e-20)
(0.316334 0.12548 6.08328e-20)
(0.463416 0.0592832 1.11456e-19)
(0.641988 -0.0225394 -1.96754e-19)
(0.841806 -0.112768 8.80997e-20)
(1.0384 -0.209053 7.74562e-20)
(1.19914 -0.29769 0)
(1.29581 -0.367235 0)
(1.31819 -0.427131 1.74054e-19)
(1.2814 -0.428349 -1.54763e-19)
(-0.0255676 0.031072 5.37959e-24)
(-0.0537009 0.0955751 0)
(-0.0362295 0.137417 0)
(0.0198271 0.145602 1.60079e-19)
(0.11375 0.126729 -7.08119e-20)
(0.251447 0.0892362 6.28158e-20)
(0.43658 0.0384455 1.162e-19)
(0.659495 -0.0215343 -1.03022e-19)
(0.8958 -0.0881555 9.78908e-20)
(1.11214 -0.151942 -8.81866e-20)
(1.27608 -0.215679 -8.18916e-21)
(1.36364 -0.266392 0)
(1.37901 -0.303933 4.71747e-20)
(1.32679 -0.338696 0)
(1.26929 -0.322025 0)
(-0.0328477 0.0265401 -1.21986e-19)
(-0.0605184 0.0620195 0)
(-0.0353156 0.0776129 -1.84046e-19)
(0.0493134 0.0704186 3.22432e-19)
(0.203914 0.0450617 -3.53404e-19)
(0.426917 0.00953483 -6.39939e-20)
(0.691035 -0.0297946 1.11541e-19)
(0.954286 -0.0696109 0)
(1.17546 -0.107556 0)
(1.32618 -0.144022 -1.50829e-19)
(1.3925 -0.180413 -6.16277e-20)
(1.39134 -0.205434 1.12677e-19)
(1.34174 -0.238118 -4.72757e-20)
(1.2842 -0.24596 0)
(1.24134 -0.254977 -1.03945e-19)
(0.141901 -0.743268 0)
(0.0993386 -0.844696 3.10233e-21)
(0.00194779 -0.801602 -2.86596e-21)
(0.206758 -0.41194 0)
(0.502077 0.136678 0)
(0.65956 0.510463 -8.74517e-23)
(0.762881 0.598607 0)
(0.798158 0.620569 0)
(0.661721 0.683874 6.18635e-23)
(0.552023 0.572401 0)
(0.679804 0.153951 0)
(0.860842 -0.188397 -1.20085e-22)
(0.942198 -0.316475 0)
(0.930504 -0.488048 -9.30659e-23)
(0.950236 -0.572937 -7.3192e-23)
(0.953305 -0.45492 0)
(0.954667 -0.226648 -5.48349e-22)
(0.998561 0.194732 6.7006e-22)
(1.02681 0.446775 0)
(1.04969 0.550785 4.27465e-22)
(1.05918 0.430086 -5.3554e-22)
(1.06477 -0.0548863 1.02522e-22)
(1.07242 -0.383001 -2.02496e-22)
(1.10088 -0.467961 1.93489e-22)
(1.11932 -0.385332 -2.16008e-22)
(1.17335 0.341048 0)
(1.14006 0.728807 -2.30255e-22)
(1.10033 0.035371 2.20157e-22)
(0.992818 -0.459741 -1.27626e-22)
(1.05715 -0.101645 0)
(1.014 0.203548 -7.35141e-23)
(0.905276 0.00393221 0)
(0.949748 -0.0275395 -1.50772e-23)
(0.957589 0.0536011 -7.80874e-24)
(0.891856 -0.0272208 7.95197e-25)
(0.903669 -0.00361482 -2.01684e-24)
(0.982833 0.0265354 0)
(0.931302 0.0116226 2.27068e-24)
(0.463311 -0.729764 2.2067e-20)
(0.408789 -0.759161 -9.83162e-23)
(0.172615 -0.777139 -7.80971e-21)
(0.115458 -0.545629 7.44891e-21)
(0.335968 -0.0119138 0)
(0.530045 0.40603 8.81443e-23)
(0.7059 0.542901 -1.1462e-22)
(0.750054 0.64243 0)
(0.618377 0.744599 -6.23348e-23)
(0.570629 0.57338 0)
(0.728328 0.0912398 0)
(0.89724 -0.251637 1.20937e-22)
(0.996397 -0.333829 0)
(0.977761 -0.489185 2.86532e-21)
(0.973944 -0.587005 -2.41809e-21)
(0.98986 -0.459221 2.08114e-21)
(0.955486 -0.235815 -1.98664e-21)
(0.980264 0.177204 -1.47397e-22)
(1.00634 0.428484 0)
(1.01478 0.54083 0)
(1.04946 0.429686 -9.62542e-23)
(1.07003 -0.0475908 9.60895e-22)
(1.07657 -0.388831 -1.61612e-21)
(1.12499 -0.471517 7.68448e-22)
(1.10232 -0.395234 7.07173e-22)
(1.15091 0.333734 0)
(1.15184 0.727949 4.69805e-22)
(1.12048 0.0554914 0)
(1.00151 -0.458283 1.28069e-22)
(1.05361 -0.105958 -1.96501e-22)
(1.01595 0.214484 3.4122e-22)
(0.905325 0.00998601 -2.95267e-23)
(0.9578 -0.0330512 4.05386e-23)
(0.96944 0.0580695 -8.79115e-25)
(0.894811 -0.022853 1.09125e-23)
(0.902437 -0.00957507 -2.64666e-24)
(0.982688 0.0247183 -3.87169e-25)
(0.936599 0.0144014 3.4574e-26)
(0.719399 -0.737796 2.99589e-20)
(0.701398 -0.679724 -4.69401e-20)
(0.509493 -0.650885 6.18186e-21)
(0.222733 -0.598737 1.09322e-20)
(0.28719 -0.187998 6.42919e-23)
(0.496878 0.267197 -6.03551e-23)
(0.684763 0.486113 1.16604e-22)
(0.71862 0.668872 -2.37857e-22)
(0.611588 0.790644 0)
(0.630198 0.575289 1.19068e-20)
(0.810746 0.0537518 -1.13549e-20)
(0.949607 -0.302386 -3.01488e-22)
(1.03985 -0.342327 0)
(1.0111 -0.465575 -5.67956e-21)
(0.97452 -0.590277 5.26283e-21)
(1.01158 -0.464665 -2.21099e-21)
(0.956041 -0.243285 2.10987e-21)
(0.960418 0.162615 2.70959e-21)
(0.985127 0.418302 -2.28679e-21)
(0.982013 0.532955 0)
(1.03823 0.428795 0)
(1.07433 -0.0324063 1.56471e-21)
(1.07512 -0.38745 -1.49366e-21)
(1.14072 -0.470619 -1.84101e-21)
(1.0735 -0.404984 -4.81023e-22)
(1.1185 0.318313 2.18234e-21)
(1.15891 0.728959 -1.77815e-23)
(1.13401 0.0855577 -5.80031e-22)
(1.00512 -0.448191 1.23414e-21)
(1.04547 -0.111125 -9.89234e-22)
(1.01534 0.224617 4.99433e-23)
(0.903665 0.0167395 -1.24249e-22)
(0.962938 -0.0391679 2.58643e-23)
(0.979806 0.0626712 -2.473e-23)
(0.896843 -0.0174107 -7.05996e-24)
(0.899361 -0.015263 2.87682e-26)
(0.980076 0.0224618 7.8412e-24)
(0.940149 0.0168375 1.3466e-24)
(0.943305 -0.701971 0)
(0.854696 -0.652556 1.69571e-20)
(0.76991 -0.506387 -1.66818e-20)
(0.496634 -0.502209 0)
(0.349113 -0.327508 -6.60773e-23)
(0.545006 0.0898361 6.20146e-23)
(0.723778 0.39611 0)
(0.698523 0.660002 2.04141e-23)
(0.600636 0.81665 -2.67572e-22)
(0.69261 0.586424 0)
(0.90306 0.0442244 -1.19881e-20)
(1.0123 -0.335709 1.17367e-20)
(1.08026 -0.353249 -4.50553e-22)
(1.05906 -0.435733 -5.74376e-21)
(0.985222 -0.588794 5.47668e-21)
(1.02885 -0.477966 2.75063e-22)
(0.962534 -0.254392 0)
(0.948816 0.133994 -3.20348e-22)
(0.961077 0.391673 3.90249e-21)
(0.940408 0.516916 -9.20895e-22)
(1.0162 0.426825 -1.56593e-22)
(1.07411 -0.0148591 -2.10152e-21)
(1.07072 -0.384771 -2.70269e-21)
(1.14776 -0.469257 3.28266e-21)
(1.03786 -0.410583 -5.49739e-22)
(1.07843 0.287011 0)
(1.15292 0.712283 -4.62877e-22)
(1.1376 0.112004 5.8768e-22)
(1.00512 -0.434881 -1.2276e-21)
(1.03376 -0.119542 9.79594e-22)
(1.01172 0.232253 -1.81155e-22)
(0.900287 0.023374 0)
(0.965246 -0.0462236 -2.79452e-23)
(0.988316 0.0670428 5.32796e-23)
(0.898195 -0.0109914 2.32988e-23)
(0.895165 -0.0205706 1.06583e-23)
(0.975528 0.0197715 -7.84671e-24)
(0.942166 0.0188962 -5.0947e-25)
(1.11361 -0.587556 4.60132e-22)
(0.951066 -0.605991 6.63474e-22)
(0.84511 -0.463045 0)
(0.734324 -0.365091 0)
(0.50849 -0.354126 0)
(0.56391 -0.08892 0)
(0.734165 0.313962 5.917e-21)
(0.713826 0.65194 -1.34638e-20)
(0.647032 0.805115 8.07243e-21)
(0.762954 0.574452 0)
(0.986239 0.0492002 -1.20371e-20)
(1.08243 -0.346341 1.18445e-20)
(1.10854 -0.361113 7.3401e-21)
(1.09136 -0.400066 -6.18727e-21)
(0.995264 -0.573607 5.03843e-21)
(1.03227 -0.493328 -5.08483e-21)
(0.964961 -0.268086 -3.18707e-22)
(0.930727 0.115345 -5.11901e-21)
(0.934414 0.385288 4.87833e-21)
(0.909026 0.507935 3.74452e-22)
(0.996328 0.422923 2.52269e-22)
(1.07248 0.00463276 2.27205e-21)
(1.06514 -0.376004 -2.48984e-21)
(1.14485 -0.463827 -7.21631e-22)
(0.99642 -0.415821 -6.0576e-22)
(1.02857 0.252559 -6.75711e-22)
(1.14513 0.706576 0)
(1.13551 0.14842 0)
(1.00265 -0.414749 0)
(1.01946 -0.128373 0)
(1.00631 0.239246 4.64207e-22)
(0.896128 0.030544 -2.67436e-22)
(0.965287 -0.0537417 6.06189e-23)
(0.994907 0.0711854 -1.89298e-22)
(0.899121 -0.00361902 2.42998e-23)
(0.890674 -0.0253775 2.87928e-24)
(0.969728 0.0167067 -9.49765e-24)
(0.942955 0.0205685 -3.37813e-24)
(1.15988 -0.488919 -4.84629e-22)
(1.02798 -0.495293 3.49131e-20)
(0.845581 -0.444711 -3.35774e-20)
(0.803153 -0.319989 -1.17116e-20)
(0.702041 -0.304513 1.11533e-20)
(0.599148 -0.208554 4.95487e-21)
(0.679925 0.174282 -4.56488e-21)
(0.631837 0.590177 1.80644e-22)
(0.572805 0.797192 -2.46963e-22)
(0.745464 0.594457 0)
(1.03141 0.0948795 -4.15429e-22)
(1.14832 -0.320692 1.88536e-20)
(1.14239 -0.354784 -1.79477e-20)
(1.12234 -0.361875 -3.78348e-22)
(1.01923 -0.547544 0)
(1.02865 -0.508403 -5.42226e-21)
(0.964414 -0.285555 1.08534e-20)
(0.917518 0.0771388 -5.01088e-21)
(0.90859 0.349379 0)
(0.867352 0.488211 2.18458e-21)
(0.962542 0.422538 -6.83557e-22)
(1.06512 0.0306198 -1.92639e-21)
(1.06125 -0.362556 -3.06842e-21)
(1.13318 -0.456361 2.95414e-21)
(0.956295 -0.416543 -5.4056e-21)
(0.976914 0.203414 4.97878e-22)
(1.12172 0.679055 4.8604e-21)
(1.12079 0.178769 -1.46625e-21)
(0.998008 -0.394267 1.39403e-21)
(1.00386 -0.140286 -5.01756e-22)
(0.998322 0.24302 4.77157e-22)
(0.891133 0.0379145 0)
(0.963487 -0.0618152 6.58073e-23)
(0.999509 0.0747584 -7.38965e-24)
(0.899755 0.00446451 0)
(0.886622 -0.0296515 -1.92352e-23)
(0.963419 0.0133407 6.21622e-24)
(0.942882 0.0218646 -7.33099e-25)
(1.14809 -0.39247 0)
(1.05799 -0.404203 0)
(0.898302 -0.383398 -1.13154e-22)
(0.796266 -0.311071 0)
(0.796717 -0.272905 0)
(0.69496 -0.237957 2.93224e-21)
(0.626306 0.091381 -2.78225e-21)
(0.582897 0.54764 1.09428e-20)
(0.59346 0.735732 -1.04639e-20)
(0.797265 0.535294 0)
(1.08788 0.0855864 -3.3531e-22)
(1.19881 -0.309793 3.14212e-22)
(1.16841 -0.35509 -1.43734e-20)
(1.13665 -0.331107 2.19075e-21)
(1.04021 -0.513136 1.06932e-20)
(1.02034 -0.516471 1.60232e-22)
(0.953445 -0.309787 -1.72532e-22)
(0.896588 0.0573059 1.07225e-20)
(0.875233 0.347488 -1.05407e-20)
(0.836389 0.480658 0)
(0.942232 0.413486 0)
(1.06096 0.0496217 -1.06356e-22)
(1.05966 -0.344396 0)
(1.11525 -0.441275 4.0103e-21)
(0.920048 -0.418286 2.15519e-21)
(0.922027 0.1587 -5.20944e-21)
(1.10306 0.670266 -3.24487e-21)
(1.1058 0.216046 2.11945e-21)
(0.993586 -0.368609 -1.45608e-22)
(0.988705 -0.151342 0)
(0.989776 0.247196 -2.99412e-22)
(0.886715 0.0450927 2.83847e-22)
(0.960511 -0.0702429 4.12772e-23)
(1.00233 0.0778881 2.58198e-23)
(0.900288 0.0129591 -3.53909e-23)
(0.88356 -0.0334193 2.20076e-24)
(0.957292 0.00976804 0)
(0.942327 0.0228222 1.86119e-24)
(1.16611 -0.311056 6.37624e-20)
(1.0863 -0.339635 4.04294e-20)
(0.979251 -0.34225 -1.12321e-20)
(0.860533 -0.308817 -4.22335e-20)
(0.811944 -0.291333 1.56725e-20)
(0.752971 -0.291381 -3.11157e-23)
(0.62487 -0.0615678 0)
(0.48462 0.406573 -6.67731e-23)
(0.442949 0.701898 -7.50018e-23)
(0.700097 0.582358 0)
(1.08746 0.170828 -2.04171e-20)
(1.23658 -0.2353 1.9428e-20)
(1.19949 -0.32832 2.52221e-22)
(1.15598 -0.29613 1.11073e-20)
(1.06141 -0.471204 -1.05509e-20)
(1.01384 -0.510808 1.49111e-22)
(0.938724 -0.334079 1.8341e-22)
(0.869028 -0.000780252 0)
(0.841576 0.297034 8.70796e-21)
(0.798745 0.455535 -8.24924e-21)
(0.896982 0.417997 -1.79522e-21)
(1.05194 0.088402 -1.03938e-22)
(1.06317 -0.318716 1.82198e-21)
(1.09277 -0.421623 -3.83435e-21)
(0.898883 -0.414224 -1.75005e-21)
(0.8641 0.0934667 1.07858e-20)
(1.06411 0.631009 -4.08935e-21)
(1.0773 0.253161 1.17436e-21)
(0.988153 -0.341632 -8.38631e-22)
(0.974741 -0.165307 0)
(0.979207 0.246592 0)
(0.88247 0.0540885 0)
(0.956784 -0.0786512 3.53681e-23)
(1.00366 0.0800809 -4.19907e-23)
(0.900812 0.0219784 3.94417e-23)
(0.881742 -0.0366499 -2.94959e-23)
(0.951826 0.00604804 -7.29293e-24)
(0.941619 0.0234681 0)
(1.17685 -0.208534 0)
(1.12325 -0.229421 0)
(1.03882 -0.233643 0)
(0.951032 -0.199253 0)
(0.864941 -0.168503 0)
(0.76087 -0.193818 0)
(0.621088 -0.0193187 0)
(0.490016 0.394482 0)
(0.590482 0.566385 0)
(0.946015 0.379143 0)
(1.25542 0.0862343 0)
(1.294 -0.20775 0)
(1.21422 -0.290996 0)
(1.17475 -0.228242 0)
(1.08351 -0.405139 0)
(1.01296 -0.515788 0)
(0.916058 -0.361002 0)
(0.840796 -0.0130668 0)
(0.800795 0.304264 0)
(0.74708 0.450033 0)
(0.887465 0.394968 0)
(1.07273 0.0933032 0)
(1.0716 -0.29807 0)
(1.06927 -0.423556 0)
(0.868226 -0.416019 0)
(0.830925 0.0500098 0)
(1.03105 0.616744 0)
(1.05127 0.284028 0)
(0.983755 -0.32397 0)
(0.960665 -0.175632 0)
(0.967108 0.251022 0)
(0.878338 0.0609813 0)
(0.951616 -0.0880971 0)
(1.00227 0.0832187 0)
(0.901061 0.0326373 0)
(0.881012 -0.0398658 0)
(0.946007 0.00168902 0)
(0.940867 0.0239852 0)
(1.13105 -0.15703 0)
(1.08938 -0.196969 0)
(1.0123 -0.20199 0)
(0.938963 -0.173129 0)
(0.891258 -0.151466 0)
(0.83637 -0.13661 0)
(0.730272 0.0724768 0)
(0.696246 0.370321 0)
(0.917562 0.397856 0)
(1.17528 0.229937 0)
(1.31892 0.00462349 0)
(1.28348 -0.203867 0)
(1.17996 -0.248923 0)
(1.12409 -0.240382 0)
(1.03992 -0.412646 0)
(0.969156 -0.451237 0)
(0.849786 -0.269094 0)
(0.768897 0.047243 0)
(0.703446 0.343511 0)
(0.67359 0.439209 0)
(0.892348 0.321886 0)
(1.08966 0.0271356 0)
(1.07636 -0.310798 0)
(1.0245 -0.374749 0)
(0.784275 -0.345889 0)
(0.765623 0.0511368 0)
(0.960848 0.596387 0)
(1.02004 0.260229 0)
(0.984172 -0.315641 0)
(0.948612 -0.162125 0)
(0.94377 0.266247 0)
(0.876634 0.0592155 0)
(0.950621 -0.103433 0)
(1.00082 0.0888661 0)
(0.902892 0.0446762 0)
(0.883925 -0.0443298 0)
(0.943299 -0.00354075 0)
(0.941736 0.0242945 0)
(1.10402 -0.10948 0)
(1.07917 -0.128589 0)
(1.02456 -0.128737 0)
(0.972004 -0.112862 0)
(0.932902 -0.0725904 0)
(0.884894 -0.0640963 0)
(0.818613 0.0712137 0)
(0.880434 0.26861 0)
(1.07492 0.241769 0)
(1.21076 0.119661 0)
(1.28658 0.00618627 0)
(1.23516 -0.144872 0)
(1.1453 -0.205198 0)
(1.12732 -0.166542 0)
(1.06652 -0.319371 0)
(0.932837 -0.401093 0)
(0.760789 -0.235449 0)
(0.66412 0.080806 0)
(0.597861 0.354744 0)
(0.648933 0.361969 0)
(0.908381 0.221261 0)
(1.10218 0.0161176 0)
(1.09041 -0.271563 0)
(0.986505 -0.333647 0)
(0.696161 -0.306338 0)
(0.66058 0.0158536 0)
(0.876311 0.54364 0)
(1.02137 0.25299 0)
(0.993121 -0.295759 0)
(0.935162 -0.162603 0)
(0.921347 0.269497 0)
(0.883375 0.0590049 0)
(0.951651 -0.117795 0)
(0.998347 0.0936847 0)
(0.904968 0.0576544 0)
(0.889382 -0.0485867 0)
(0.944789 -0.00899343 0)
(0.944916 0.0244309 0)
(1.08064 -0.0713461 0)
(1.06487 -0.0883151 0)
(1.02951 -0.0871951 0)
(0.988097 -0.0803202 0)
(0.95966 -0.0489374 0)
(0.939087 -0.0314867 0)
(0.904149 0.0556455 0)
(0.965883 0.155573 0)
(1.09831 0.144989 0)
(1.16943 0.0810902 0)
(1.20647 -0.0166622 0)
(1.18257 -0.105911 0)
(1.11896 -0.156489 0)
(1.0618 -0.187483 0)
(1.00915 -0.308356 0)
(0.870939 -0.289646 0)
(0.682173 -0.121953 0)
(0.577484 0.131057 0)
(0.577437 0.341618 0)
(0.723666 0.282122 0)
(0.953888 0.121504 0)
(1.10293 -0.0477283 0)
(1.08877 -0.256417 0)
(0.94559 -0.241976 0)
(0.627223 -0.213891 0)
(0.554245 -0.00663733 0)
(0.819997 0.471707 0)
(1.04406 0.211519 0)
(1.01121 -0.275385 0)
(0.916839 -0.144342 0)
(0.894397 0.276207 0)
(0.895521 0.0526235 0)
(0.95614 -0.133681 0)
(0.99366 0.0999608 0)
(0.907567 0.0707496 0)
(0.897295 -0.0540907 0)
(0.951311 -0.0149119 0)
(0.951619 0.0245966 0)
(1.06546 -0.0451197 0)
(1.05589 -0.0563384 0)
(1.03327 -0.0529234 0)
(1.00769 -0.0528687 0)
(0.987993 -0.0216717 0)
(0.976546 -0.012955 0)
(0.966158 0.0391595 0)
(1.00318 0.0920329 0)
(1.07563 0.0765889 0)
(1.12486 0.048379 0)
(1.15063 -0.0115713 0)
(1.12646 -0.0930634 0)
(1.10197 -0.124155 0)
(1.05982 -0.105755 0)
(1.00872 -0.214818 0)
(0.863383 -0.203475 0)
(0.716669 -0.0474266 0)
(0.640947 0.140494 0)
(0.707378 0.277012 0)
(0.877145 0.177159 0)
(1.0265 0.0395491 0)
(1.10226 -0.0510658 0)
(1.08245 -0.207395 0)
(0.936007 -0.157978 0)
(0.654002 -0.135808 0)
(0.512067 -0.0506022 0)
(0.793056 0.36737 0)
(1.07776 0.177181 0)
(1.03775 -0.24237 0)
(0.893096 -0.126609 0)
(0.867792 0.276568 0)
(0.918691 0.0424656 0)
(0.963866 -0.148774 0)
(0.994304 0.106202 0)
(0.915961 0.0836495 0)
(0.908637 -0.0601652 0)
(0.962658 -0.0213894 0)
(0.962 0.0248495 0)
(1.05592 -0.0247757 0)
(1.04867 -0.0335375 0)
(1.03812 -0.0287506 0)
(1.0194 -0.0335089 0)
(1.00749 -0.0091636 0)
(1.00331 -0.00821818 0)
(0.998901 0.0238989 0)
(1.02325 0.0474635 0)
(1.06205 0.0376685 0)
(1.08578 0.026025 0)
(1.11301 -0.0216579 0)
(1.09417 -0.0621083 0)
(1.05802 -0.0927868 0)
(1.02799 -0.105723 0)
(1.00076 -0.182637 0)
(0.882951 -0.116741 0)
(0.800256 0.0219655 0)
(0.780266 0.118023 0)
(0.888122 0.200225 0)
(1.01768 0.120896 0)
(1.08144 0.00464251 0)
(1.08994 -0.0675047 0)
(1.04985 -0.184236 0)
(0.931326 -0.0727517 0)
(0.771414 -0.0241687 0)
(0.59406 -0.0609871 0)
(0.782954 0.237206 0)
(1.09327 0.113233 0)
(1.05783 -0.201798 0)
(0.862481 -0.0891942 0)
(0.846604 0.272418 0)
(0.961078 0.0253182 0)
(0.975746 -0.160854 0)
(0.989285 0.113169 0)
(0.923451 0.0963519 0)
(0.923146 -0.0674937 0)
(0.975239 -0.0281982 0)
(0.973475 0.0254553 0)
(1.04936 -0.0105897 0)
(1.04349 -0.0186739 0)
(1.04043 -0.0133182 0)
(1.02746 -0.0206603 0)
(1.02155 -0.00296514 0)
(1.01937 -0.00525103 0)
(1.01707 0.0122283 0)
(1.03279 0.0230745 0)
(1.04911 0.0139325 0)
(1.06562 0.0101635 0)
(1.07752 -0.0232428 0)
(1.06614 -0.047442 0)
(1.0477 -0.0731123 0)
(1.02818 -0.0608575 0)
(0.993967 -0.113111 0)
(0.895482 -0.0673265 0)
(0.885595 0.0371 0)
(0.897092 0.0812697 0)
(0.984479 0.128758 0)
(1.07072 0.0702441 0)
(1.08895 -0.00792252 0)
(1.08768 -0.0319045 0)
(1.03581 -0.129503 0)
(0.9195 -0.031557 0)
(0.909315 0.0372444 0)
(0.799138 -0.0470219 0)
(0.838734 0.136289 0)
(1.09629 0.0632152 0)
(1.07147 -0.153973 0)
(0.855608 -0.0492242 0)
(0.856332 0.247223 0)
(1.01863 0.00224418 0)
(0.986156 -0.16221 0)
(0.971012 0.123003 0)
(0.939067 0.104833 0)
(0.947985 -0.0776063 0)
(0.992599 -0.0355236 0)
(0.989418 0.0264148 0)
(1.04405 -0.00171773 0)
(1.04014 -0.00856126 0)
(1.04055 -0.00418601 0)
(1.03243 -0.0114708 0)
(1.02838 -0.000369101 0)
(1.02863 -0.0041749 0)
(1.02513 0.00462917 0)
(1.03658 0.00919039 0)
(1.04029 0.000254023 0)
(1.05211 0.00236752 0)
(1.05487 -0.0241314 0)
(1.05058 -0.0307295 0)
(1.03173 -0.0534548 0)
(1.01275 -0.0484638 0)
(1.00172 -0.0760633 0)
(0.927856 -0.0401749 0)
(0.942586 0.0304647 0)
(0.958284 0.0471839 0)
(1.01071 0.0793101 0)
(1.06976 0.0544091 0)
(1.06069 -0.00970216 0)
(1.06176 -0.0257684 0)
(1.0305 -0.0939658 0)
(0.929734 -0.0178462 0)
(0.981591 0.0534211 0)
(0.947025 -0.0235656 0)
(0.931896 0.0860419 0)
(1.0828 0.0205314 0)
(1.05424 -0.108916 0)
(0.875942 -0.00604978 0)
(0.90989 0.21144 0)
(1.07553 -0.0168096 0)
(0.984918 -0.15101 0)
(0.95473 0.13153 0)
(0.982164 0.106659 0)
(0.992288 -0.0862712 0)
(1.01196 -0.0419706 0)
(1.0028 0.0274161 0)
(1.03945 0.00339647 0)
(1.03764 -0.00220107 0)
(1.03861 0.000564764 0)
(1.03439 -0.00539112 0)
(1.03108 0.00026826 0)
(1.03268 -0.00259417 0)
(1.02797 -0.000202253 0)
(1.03667 0.00277581 0)
(1.03406 -0.00614043 0)
(1.04226 -0.00192357 0)
(1.04053 -0.0217278 0)
(1.03597 -0.0216825 0)
(1.02777 -0.0391257 0)
(1.01028 -0.0308094 0)
(1.00623 -0.0417421 0)
(0.957909 -0.0234481 0)
(0.973582 0.0208436 0)
(0.985233 0.0299629 0)
(1.00905 0.0463946 0)
(1.05274 0.0370098 0)
(1.04688 -0.00937777 0)
(1.04474 -0.00704825 0)
(1.02707 -0.0535046 0)
(0.947967 -0.013272 0)
(1.00626 0.0453485 0)
(0.998083 -0.0205231 0)
(0.989503 0.0598385 0)
(1.06581 0.0137727 0)
(1.02848 -0.0654894 0)
(0.910365 0.0132821 0)
(0.977349 0.165301 0)
(1.11499 -0.0197376 0)
(0.978625 -0.124953 0)
(0.956365 0.129121 0)
(1.04355 0.0968057 0)
(1.04168 -0.0877296 0)
(1.01328 -0.0401515 0)
(0.999354 0.0304857 0)
(1.03503 0.00582904 0)
(1.03512 0.00170882 0)
(1.03555 0.00284127 0)
(1.03431 -0.00142891 0)
(1.03097 0.000714042 0)
(1.03307 -0.00141414 0)
(1.02842 -0.00200843 0)
(1.0341 -3.90233e-05 0)
(1.03048 -0.00788173 0)
(1.03428 -0.00332437 0)
(1.03278 -0.0179246 0)
(1.02752 -0.0141361 0)
(1.02489 -0.0264149 0)
(1.00824 -0.0207406 0)
(1.00919 -0.0250001 0)
(0.98169 -0.0141073 0)
(0.989189 0.0115104 0)
(0.999819 0.0181646 0)
(1.00956 0.0255579 0)
(1.03772 0.0268678 0)
(1.03427 -0.00777488 0)
(1.02665 -0.00311415 0)
(1.02829 -0.0314767 0)
(0.969241 -0.0142682 0)
(1.01495 0.0366767 0)
(1.01024 -0.0153311 0)
(1.0018 0.0432394 0)
(1.04797 0.00706743 0)
(1.01949 -0.0364373 0)
(0.945239 0.0180169 0)
(1.01276 0.119209 0)
(1.11845 -0.0118604 0)
(0.974541 -0.0949947 0)
(0.967926 0.108796 0)
(1.09048 0.0781338 0)
(1.06589 -0.0762646 0)
(0.993666 -0.0276855 0)
(0.992542 0.0335767 0)
(1.03107 0.00673084 0)
(1.03223 0.00387723 0)
(1.03238 0.00394312 0)
(1.03233 0.000954031 0)
(1.02967 0.00118121 0)
(1.03121 -0.000340574 0)
(1.02772 -0.00208739 0)
(1.0306 -0.000813696 0)
(1.02788 -0.00708258 0)
(1.02848 -0.00319384 0)
(1.02813 -0.0136645 0)
(1.0221 -0.00886782 0)
(1.02254 -0.0184545 0)
(1.01006 -0.0123183 0)
(1.01149 -0.0144904 0)
(0.997078 -0.0074839 0)
(0.999479 0.00617175 0)
(1.00696 0.0117527 0)
(1.01082 0.0137258 0)
(1.02655 0.0174282 0)
(1.02885 -0.004966 0)
(1.01789 0.00122501 0)
(1.02753 -0.0137441 0)
(0.984685 -0.0113207 0)
(1.01415 0.0296011 0)
(1.01435 -0.0138113 0)
(1.00561 0.033067 0)
(1.03666 0.00706611 0)
(1.01586 -0.0134905 0)
(0.970221 0.0176464 0)
(1.01765 0.0793765 0)
(1.10105 0.000960153 0)
(0.980234 -0.0632095 0)
(0.978011 0.0796033 0)
(1.10421 0.0582045 0)
(1.06124 -0.0531015 0)
(0.979191 -0.0123121 0)
(1.00001 0.031867 0)
(1.02773 0.00686541 0)
(1.02906 0.00496273 0)
(1.02922 0.0044281 0)
(1.02945 0.00236839 0)
(1.02767 0.00177605 0)
(1.02844 0.00061041 0)
(1.02618 -0.00129829 0)
(1.0272 -0.000537065 0)
(1.02553 -0.00531746 0)
(1.02462 -0.00214369 0)
(1.0247 -0.00979227 0)
(1.01963 -0.0049303 0)
(1.02093 -0.0122866 0)
(1.01191 -0.00638841 0)
(1.01348 -0.00902977 0)
(1.00542 -0.0032423 0)
(1.0064 0.00257928 0)
(1.01044 0.00725101 0)
(1.01285 0.00746927 0)
(1.01991 0.0110593 0)
(1.02405 -0.00215629 0)
(1.01285 0.00138704 0)
(1.02484 -0.00546108 0)
(0.996141 -0.0090897 0)
(1.01435 0.0231322 0)
(1.01647 -0.0110018 0)
(1.00592 0.0273056 0)
(1.02833 0.00307707 0)
(1.01556 -0.000846193 0)
(0.99033 0.0174403 0)
(1.01478 0.0503068 0)
(1.07811 0.0100244 0)
(0.991156 -0.0382409 0)
(0.990045 0.0505391 0)
(1.09328 0.0423004 0)
(1.04684 -0.027317 0)
(0.982624 -0.00199552 0)
(1.01365 0.0255164 0)
(1.0247 0.00661214 0)
(1.02588 0.00539799 0)
(1.02618 0.00459352 0)
(1.02638 0.0032438 0)
(1.02528 0.0023149 0)
(1.02552 0.00149953 0)
(1.02413 -0.000251968 0)
(1.02431 0.000237919 0)
(1.02323 -0.00327833 0)
(1.02204 -0.000880259 0)
(1.02217 -0.00638478 0)
(1.01836 -0.00208263 0)
(1.01957 -0.00803558 0)
(1.01339 -0.00248931 0)
(1.015 -0.00590298 0)
(1.00981 -0.000463128 0)
(1.01114 0.000722624 0)
(1.01196 0.00490402 0)
(1.01417 0.00427841 0)
(1.01637 0.00667637 0)
(1.02095 0.000137891 0)
(1.01175 0.00165741 0)
(1.02242 0.000234347 0)
(1.00315 -0.00561403 0)
(1.01451 0.0183791 0)
(1.01652 -0.00879723 0)
(1.0084 0.0238039 0)
(1.02415 0.00166708 0)
(1.01493 0.00795195 0)
(1.00296 0.0179164 0)
(1.01444 0.0293419 0)
(1.05889 0.0159833 0)
(1.00121 -0.0183774 0)
(1.00327 0.0279007 0)
(1.07391 0.0320494 0)
(1.03645 -0.00468344 0)
(0.995159 0.00378435 0)
(1.02316 0.0187699 0)
(1.02199 0.00616689 0)
(1.02297 0.00544121 0)
(1.02328 0.004574 0)
(1.02343 0.00372148 0)
(1.02278 0.0027619 0)
(1.02279 0.00221066 0)
(1.02197 0.0007956 0)
(1.02182 0.00107751 0)
(1.02113 -0.00142607 0)
(1.02004 0.000309752 0)
(1.02016 -0.00366886 0)
(1.01748 -0.000112657 0)
(1.01851 -0.00502392 0)
(1.01421 0.00012635 0)
(1.01588 -0.00406071 0)
(1.012 0.00146241 0)
(1.01376 -0.000342231 0)
(1.01274 0.00373085 0)
(1.01503 0.0026845 0)
(1.01471 0.00405829 0)
(1.01871 0.00182303 0)
(1.01164 0.00116497 0)
(1.02006 0.00278704 0)
(1.0075 -0.00343711 0)
(1.01532 0.0143748 0)
(1.0161 -0.00641162 0)
(1.01028 0.0211773 0)
(1.02139 -0.000568094 0)
(1.01478 0.012057 0)
(1.01085 0.0173256 0)
(1.0162 0.0152551 0)
(1.04364 0.0195305 0)
(1.00888 -0.00694753 0)
(1.01432 0.0107605 0)
(1.05616 0.0262358 0)
(1.03097 0.0104419 0)
(1.00717 0.00561471 0)
(1.02798 0.012805 0)
(1.01958 0.00565775 0)
(1.02035 0.00525635 0)
(1.02065 0.00444991 0)
(1.02078 0.00395024 0)
(1.0204 0.00309955 0)
(1.02036 0.00274753 0)
(1.01986 0.0016659 0)
(1.01966 0.00181504 0)
(1.01921 6.25833e-05 0)
(1.0184 0.00129403 0)
(1.0185 -0.00161866 0)
(1.01666 0.00127095 0)
(1.01755 -0.00290811 0)
(1.01449 0.00179557 0)
(1.01617 -0.00282158 0)
(1.01298 0.00268148 0)
(1.01511 -0.000757026 0)
(1.01307 0.00331519 0)