/*--------------------------------*- C++ -*----------------------------------*\
| =========                 |                                                 |
| \\      /  F ield         | OpenFOAM: The Open Source CFD Toolbox           |
|  \\    /   O peration     | Version:  2512                                  |
|   \\  /    A nd           | Website:  www.openfoam.com                      |
|    \\/     M anipulation  |                                                 |
\*---------------------------------------------------------------------------*/
FoamFile
{
    version     2.0;
    format      ascii;
    arch        "LSB;label=32;scalar=64";
    class       volScalarField;
    location    "60";
    object      p;
}
// * * * * * * * * * * * * * * * * * * * * * * * * * * * * * * * * * * * * * //

dimensions      [0 2 -2 0 0 0 0];

internalField   nonuniform List<scalar> 
13248
(
-0.473319
-0.472404
-0.472162
-0.472573
-0.473424
-0.474683
-0.475884
-0.476336
-0.475119
-0.471177
-0.463514
-0.451427
-0.434683
-0.413577
-0.388853
-0.361534
-0.332701
-0.303363
-0.274286
-0.246099
-0.219067
-0.193509
-0.169108
-0.145432
-0.478455
-0.476922
-0.475703
-0.474779
-0.474345
-0.474069
-0.473488
-0.471819
-0.468077
-0.461279
-0.450694
-0.436023
-0.417463
-0.395625
-0.371378
-0.345651
-0.319289
-0.292967
-0.267173
-0.242262
-0.218402
-0.195834
-0.174286
-0.153866
-0.483833
-0.481701
-0.479575
-0.47754
-0.47567
-0.473729
-0.471113
-0.466934
-0.460247
-0.450325
-0.436849
-0.419962
-0.400188
-0.378274
-0.355007
-0.331088
-0.307071
-0.283364
-0.260258
-0.23798
-0.216659
-0.19644
-0.17716
-0.158557
-0.490294
-0.487471
-0.484475
-0.481327
-0.478015
-0.474193
-0.469129
-0.461946
-0.451947
-0.438832
-0.422742
-0.404161
-0.38375
-0.362183
-0.34004
-0.317767
-0.295696
-0.274073
-0.25308
-0.232876
-0.213535
-0.195207
-0.177676
-0.160912
-0.498458
-0.494763
-0.490853
-0.486547
-0.481608
-0.475508
-0.467474
-0.456858
-0.443412
-0.427327
-0.409101
-0.38936
-0.368704
-0.347623
-0.32648
-0.305536
-0.284983
-0.264964
-0.245601
-0.226984
-0.209188
-0.192285
-0.176133
-0.160766
-0.508656
-0.503863
-0.498929
-0.493283
-0.486338
-0.477406
-0.465879
-0.451574
-0.434789
-0.416113
-0.396208
-0.375655
-0.354893
-0.334223
-0.313847
-0.293901
-0.274488
-0.25569
-0.237576
-0.220202
-0.20361
-0.187833
-0.17279
-0.158547
-0.520968
-0.514871
-0.508737
-0.501412
-0.491886
-0.479474
-0.46402
-0.445974
-0.426117
-0.405248
-0.384006
-0.362825
-0.341968
-0.321584
-0.30176
-0.282552
-0.264003
-0.246147
-0.229014
-0.212622
-0.196988
-0.182108
-0.167945
-0.154539
-0.535248
-0.527705
-0.520122
-0.510601
-0.497752
-0.481206
-0.461556
-0.439894
-0.4173
-0.394579
-0.372226
-0.350495
-0.329499
-0.309274
-0.289829
-0.271164
-0.253275
-0.236159
-0.21981
-0.20422
-0.18938
-0.175267
-0.161874
-0.149158
-0.55109
-0.542031
-0.532657
-0.520233
-0.503227
-0.482027
-0.458133
-0.433119
-0.408132
-0.38383
-0.360511
-0.338266
-0.317088
-0.296935
-0.277757
-0.25951
-0.242151
-0.225645
-0.209959
-0.19506
-0.180914
-0.167493
-0.154785
-0.142682
-0.567755
-0.557155
-0.545525
-0.529332
-0.507393
-0.481266
-0.45329
-0.425261
-0.398192
-0.372514
-0.348332
-0.325601
-0.304224
-0.284097
-0.265123
-0.24722
-0.230315
-0.214345
-0.19925
-0.184978
-0.171477
-0.158713
-0.146643
-0.135125
-0.584132
-0.57198
-0.557471
-0.536578
-0.509115
-0.47803
-0.446258
-0.415551
-0.386664
-0.359786
-0.334847
-0.311689
-0.290142
-0.27005
-0.251277
-0.233705
-0.217235
-0.201779
-0.187259
-0.173603
-0.160751
-0.148655
-0.137237
-0.126362
-0.5988
-0.585088
-0.566931
-0.540449
-0.507103
-0.471209
-0.435985
-0.402938
-0.372503
-0.344627
-0.319083
-0.295618
-0.273997
-0.254016
-0.235503
-0.21831
-0.202312
-0.1874
-0.173481
-0.160469
-0.148301
-0.136927
-0.12625
-0.116176
-0.393553
-0.394558
-0.394773
-0.39514
-0.396262
-0.398365
-0.40154
-0.405863
-0.411444
-0.418429
-0.426982
-0.437258
-0.449383
-0.463415
-0.479311
-0.496887
-0.51579
-0.53548
-0.555246
-0.574224
-0.591352
-0.605486
-0.615456
-0.619975
-0.39368
-0.395621
-0.396403
-0.397237
-0.398766
-0.401169
-0.404477
-0.408693
-0.413828
-0.4199
-0.426921
-0.434892
-0.44378
-0.453517
-0.463981
-0.474986
-0.486264
-0.497465
-0.508165
-0.517831
-0.525733
-0.530874
-0.532331
-0.530484
-0.395078
-0.397804
-0.399158
-0.400517
-0.402531
-0.405323
-0.408861
-0.413066
-0.417834
-0.423038
-0.428519
-0.434084
-0.439505
-0.444525
-0.448877
-0.452296
-0.454526
-0.455352
-0.454624
-0.452195
-0.447676
-0.440271
-0.429766
-0.419376
-0.398386
-0.401684
-0.403573
-0.405491
-0.408059
-0.411341
-0.415244
-0.419608
-0.424216
-0.428795
-0.433012
-0.436473
-0.438733
-0.439322
-0.437785
-0.433718
-0.426812
-0.4169
-0.404005
-0.388302
-0.369791
-0.348068
-0.323507
-0.301482
-0.403926
-0.407553
-0.409901
-0.412373
-0.415525
-0.419367
-0.423753
-0.428444
-0.433118
-0.437366
-0.440683
-0.442481
-0.442108
-0.438892
-0.432201
-0.421514
-0.406482
-0.386979
-0.363142
-0.335377
-0.304204
-0.269908
-0.233088
-0.197309
-0.411642
-0.415331
-0.418027
-0.420999
-0.42472
-0.429146
-0.434084
-0.439235
-0.444178
-0.448372
-0.451149
-0.451731
-0.449269
-0.442911
-0.431891
-0.415633
-0.393826
-0.366483
-0.333954
-0.296925
-0.256496
-0.21344
-0.16945
-0.121788
-0.421115
-0.424581
-0.427468
-0.430826
-0.435041
-0.439994
-0.445459
-0.451087
-0.456372
-0.460647
-0.463088
-0.462738
-0.458575
-0.449604
-0.434998
-0.414217
-0.38708
-0.353866
-0.315299
-0.272304
-0.227005
-0.178762
-0.133342
-0.082154
-0.431584
-0.434579
-0.437488
-0.441108
-0.445606
-0.450879
-0.456659
-0.462577
-0.468016
-0.472197
-0.474159
-0.472796
-0.466972
-0.455642
-0.438021
-0.413691
-0.382787
-0.345943
-0.304346
-0.2592
-0.212834
-0.16529
-0.121483
-0.0766407
-0.442162
-0.444465
-0.447144
-0.450711
-0.455229
-0.460522
-0.466284
-0.472035
-0.477135
-0.480715
-0.48172
-0.478931
-0.471191
-0.457531
-0.43733
-0.410479
-0.377474
-0.339351
-0.29757
-0.253656
-0.209637
-0.166349
-0.126681
-0.0891463
-0.452006
-0.453486
-0.455697
-0.458894
-0.463028
-0.467877
-0.473086
-0.478154
-0.482331
-0.484707
-0.484161
-0.479492
-0.469608
-0.45372
-0.43151
-0.403249
-0.369782
-0.332439
-0.292729
-0.252304
-0.212571
-0.174665
-0.139924
-0.108443
-0.460531
-0.461139
-0.462669
-0.465162
-0.468508
-0.472462
-0.476633
-0.480473
-0.483207
-0.483855
-0.481291
-0.47439
-0.462241
-0.444346
-0.420759
-0.392115
-0.359518
-0.324345
-0.288032
-0.251873
-0.216934
-0.183941
-0.153567
-0.125835
-0.46755
-0.46734
-0.468014
-0.469521
-0.471728
-0.474411
-0.477189
-0.479446
-0.48035
-0.478876
-0.473925
-0.464521
-0.45004
-0.430366
-0.405935
-0.377656
-0.34671
-0.314357
-0.281724
-0.249727
-0.219032
-0.190032
-0.163371
-0.138924
-0.619563
-0.608391
-0.577312
-0.528825
-0.464164
-0.391734
-0.323641
-0.270116
-0.236609
-0.221956
-0.223034
-0.240507
-0.275747
-0.322191
-0.362241
-0.375733
-0.350097
-0.293676
-0.228934
-0.17451
-0.137341
-0.116354
-0.10879
-0.111827
-0.127068
-0.159095
-0.201837
-0.2346
-0.235451
-0.204777
-0.15811
-0.116343
-0.0913842
-0.0814451
-0.0842338
-0.105462
-0.146343
-0.184431
-0.188483
-0.154895
-0.1147
-0.087883
-0.0759262
-0.0807196
-0.100585
-0.117924
-0.115254
-0.0960428
-0.0736045
-0.0578382
-0.0504038
-0.0509645
-0.0543669
-0.0547533
-0.0531756
-0.0427624
-0.030193
-0.016671
-0.00404424
0.00188677
-0.524683
-0.516435
-0.487128
-0.447733
-0.394553
-0.337143
-0.284534
-0.245376
-0.222769
-0.215208
-0.221749
-0.244643
-0.284423
-0.333129
-0.373475
-0.386525
-0.360066
-0.302079
-0.23508
-0.178091
-0.138171
-0.113753
-0.102409
-0.101413
-0.111206
-0.135856
-0.171342
-0.200389
-0.202969
-0.178252
-0.138475
-0.103213
-0.0835436
-0.0781247
-0.0859269
-0.11319
-0.159674
-0.201955
-0.20746
-0.170961
-0.125114
-0.0924163
-0.0752716
-0.0744407
-0.0886324
-0.103019
-0.102147
-0.0877823
-0.0715134
-0.0620354
-0.06025
-0.0648091
-0.069977
-0.0686611
-0.0631775
-0.0479796
-0.0310156
-0.0150922
-0.00185939
0.00278779
-0.410218
-0.402592
-0.378093
-0.349393
-0.311621
-0.271643
-0.234242
-0.208288
-0.19511
-0.193928
-0.206049
-0.234101
-0.277454
-0.327676
-0.368648
-0.382817
-0.357865
-0.300845
-0.233928
-0.176694
-0.13579
-0.109211
-0.0944218
-0.0894828
-0.0940733
-0.11156
-0.139859
-0.165544
-0.170625
-0.150966
-0.117631
-0.0884726
-0.0737384
-0.0725735
-0.0850346
-0.11745
-0.168284
-0.213893
-0.222209
-0.183834
-0.133367
-0.0953424
-0.073497
-0.0675623
-0.0763343
-0.0877786
-0.088463
-0.0789247
-0.0690067
-0.0662093
-0.0705085
-0.079387
-0.0863904
-0.0832566
-0.0737663
-0.0536229
-0.0321492
-0.013955
-0.000160078
0.00342875
-0.287214
-0.277234
-0.258144
-0.239239
-0.213428
-0.192113
-0.16894
-0.156125
-0.15241
-0.159342
-0.179069
-0.213214
-0.259647
-0.310367
-0.351897
-0.366875
-0.344084
-0.28999
-0.225994
-0.170739
-0.130367
-0.10299
-0.0859213
-0.077336
-0.0770279
-0.0878193
-0.109247
-0.131361
-0.139911
-0.123719
-0.0963187
-0.0726518
-0.0622535
-0.064741
-0.0809394
-0.11705
-0.171114
-0.219485
-0.230599
-0.19269
-0.139077
-0.0965631
-0.070721
-0.0603204
-0.0641534
-0.0726685
-0.0746063
-0.0696728
-0.0661533
-0.0702321
-0.0810117
-0.0945623
-0.103505
-0.0984509
-0.0848587
-0.0596403
-0.033564
-0.0132386
0.00107798
0.00381707
-0.175148
-0.157746
-0.140626
-0.126411
-0.111081
-0.101188
-0.0927685
-0.0927655
-0.100099
-0.11797
-0.147661
-0.188528
-0.236948
-0.286448
-0.327037
-0.342302
-0.32173
-0.271974
-0.213126
-0.161589
-0.122747
-0.0954189
-0.0771296
-0.0661135
-0.0615605
-0.0659637
-0.0806341
-0.098563
-0.107552
-0.09677
-0.0751623
-0.0563472
-0.0495509
-0.0550024
-0.0738424
-0.111998
-0.167871
-0.218418
-0.232623
-0.197216
-0.142127
-0.0961425
-0.0670688
-0.053003
-0.0524235
-0.0580195
-0.0608814
-0.0601777
-0.0628025
-0.0739325
-0.0916173
-0.110223
-0.121248
-0.114165
-0.0963672
-0.0659584
-0.0352349
-0.0129097
0.001902
0.00397541
-0.0934925
-0.0651492
-0.0456393
-0.0279398
-0.019497
-0.0188287
-0.0206393
-0.0300516
-0.0479558
-0.0769031
-0.116379
-0.162929
-0.211919
-0.258971
-0.29643
-0.311616
-0.293267
-0.248921
-0.196702
-0.150231
-0.113875
-0.0871109
-0.0682296
-0.0556244
-0.0483443
-0.0474221
-0.0553932
-0.0684801
-0.0773895
-0.0712039
-0.0549309
-0.0402673
-0.0363157
-0.0439723
-0.0644695
-0.103119
-0.158938
-0.21108
-0.228397
-0.197228
-0.142451
-0.0941867
-0.0626277
-0.0456848
-0.0414568
-0.0441666
-0.0474948
-0.0504274
-0.0589072
-0.0771151
-0.102056
-0.126217
-0.13956
-0.13033
-0.108194
-0.0724783
-0.0371368
-0.012925
0.00238355
0.00394097
-0.0493734
-0.012688
0.0133846
0.0316574
0.0396713
0.0393943
0.0327032
0.018352
-0.00551057
-0.0410488
-0.0864361
-0.135958
-0.184354
-0.228759
-0.263642
-0.277047
-0.261041
-0.22309
-0.178449
-0.137758
-0.10459
-0.0789179
-0.0597891
-0.0461076
-0.0368777
-0.0322377
-0.0343131
-0.0421941
-0.0501475
-0.0478635
-0.0362987
-0.0251059
-0.0232386
-0.0324368
-0.0536167
-0.0910643
-0.145006
-0.197655
-0.2183
-0.19246
-0.140081
-0.0909311
-0.0576088
-0.0384099
-0.0313686
-0.0313502
-0.0345806
-0.0404576
-0.0543121
-0.079613
-0.112271
-0.142473
-0.158381
-0.146886
-0.120237
-0.0790852
-0.0392288
-0.0132259
0.00261419
0.00376498
-0.041576
-0.00186541
0.0318893
0.0540907
0.0658068
0.0676115
0.0608874
0.0460203
0.0218281
-0.0139224
-0.0595423
-0.108537
-0.155031
-0.196323
-0.22804
-0.239843
-0.226759
-0.196008
-0.159473
-0.124931
-0.0953589
-0.0712564
-0.052282
-0.0378884
-0.0273166
-0.0200852
-0.0174831
-0.0204406
-0.0265141
-0.0275548
-0.0197701
-0.0114364
-0.0110094
-0.020987
-0.0420144
-0.0774185
-0.12765
-0.179165
-0.203229
-0.183307
-0.135184
-0.0865487
-0.052209
-0.0312954
-0.0221824
-0.0197263
-0.0223297
-0.0304179
-0.0491798
-0.0812993
-0.121781
-0.158683
-0.177567
-0.163745
-0.13238
-0.0856772
-0.0414557
-0.0137305
0.00270205
0.00350746
-0.0579758
-0.0207245
0.0171879
0.0462186
0.0650555
0.0714222
0.0684536
0.0564079
0.0356561
0.00429265
-0.0370467
-0.0822127
-0.125146
-0.16321
-0.190998
-0.201591
-0.192284
-0.169201
-0.140702
-0.112241
-0.0864188
-0.0642134
-0.0457804
-0.0310196
-0.0195601
-0.0107431
-0.00483591
-0.00348383
-0.00698339
-0.0103616
-0.00537007
0.000368194
-0.000103067
-0.0103323
-0.0305059
-0.062477
-0.10816
-0.157658
-0.184415
-0.17108
-0.128124
-0.0812164
-0.0465878
-0.0245525
-0.0139845
-0.00940844
-0.0109239
-0.0203218
-0.0432947
-0.081947
-0.130723
-0.17481
-0.196938
-0.180797
-0.144516
-0.092238
-0.0438003
-0.0143653
0.00276617
0.0032329
-0.0825194
-0.0503871
-0.0138783
0.0178071
0.0411255
0.0547146
0.0584653
0.0525698
0.037718
0.0138061
-0.0197795
-0.0581449
-0.0955636
-0.128097
-0.152662
-0.163174
-0.158669
-0.143352
-0.122513
-0.0999229
-0.07792
-0.057896
-0.0404084
-0.0256602
-0.0136701
-0.00393622
0.00395022
0.00868907
0.00837786
0.00526987
0.00668361
0.0100572
0.00902133
-0.000955353
-0.0198413
-0.0483971
-0.0884926
-0.133775
-0.162472
-0.154995
-0.11896
-0.0752468
-0.0410305
-0.0183799
-0.00699556
-0.000574478
-0.000577333
-0.0105224
-0.0369582
-0.0815691
-0.13822
-0.190029
-0.216135
-0.197844
-0.156626
-0.0988489
-0.0462989
-0.0150968
0.00291189
0.00300709
-0.101777
-0.0740686
-0.0419762
-0.0106952
0.0139076
0.030976
0.0406501
0.0427072
0.0354356
0.0201696
-0.00412013
-0.0352011
-0.0669939
-0.0954837
-0.11706
-0.12939
-0.13016
-0.12174
-0.107346
-0.0898061
-0.0713019
-0.0534282
-0.0370541
-0.0225479
-0.0101992
0.00017343
0.00916517
0.0162636
0.0190816
0.0175146
0.0166356
0.0176766
0.0162762
0.00694552
-0.0100012
-0.0342065
-0.0686251
-0.110726
-0.140449
-0.140266
-0.109385
-0.0695292
-0.0361214
-0.0126837
-0.000740989
0.0065199
0.00872528
-0.000590341
-0.0297009
-0.0798815
-0.144748
-0.204807
-0.234906
-0.214814
-0.168699
-0.10532
-0.0487839
-0.0157897
0.00323232
0.00288843
-0.118512
-0.0972913
-0.0727512
-0.0456117
-0.0196902
0.00105123
0.0155935
0.0228796
0.0237925
0.0175752
0.00453197
-0.014994
-0.038517
-0.063005
-0.0826654
-0.0940418
-0.0989709
-0.0971868
-0.0894534
-0.0774479
-0.0630452
-0.0478522
-0.0330075
-0.0192096
-0.0069367
0.0036594
0.0130966
0.0215631
0.0266211
0.0261149
0.0231815
0.023185
0.0216075
0.0124821
-0.00307453
-0.0227873
-0.0510147
-0.0874346
-0.11574
-0.117447
-0.0954827
-0.0616085
-0.0303314
-0.00642519
0.00635675
0.0132052
0.0158568
0.00812143
-0.0221956
-0.0767641
-0.148939
-0.217091
-0.252496
-0.231142
-0.179784
-0.110466
-0.0504904
-0.0160076
0.00389541
0.00293364
-0.11301
-0.100169
-0.0789422
-0.0543718
-0.0311033
-0.012197
0.00175272
0.0106272
0.0141523
0.0114064
0.00215202
-0.0128197
-0.0313749
-0.0509895
-0.0659474
-0.0762295
-0.0809207
-0.0797132
-0.0733803
-0.0631989
-0.0507744
-0.0374713
-0.0242313
-0.0116712
-0.000204754
0.0098365
0.0188516
0.0274167
0.0336525
0.0344113
0.0314759
0.0276114
0.0255625
0.0188873
0.00652067
-0.00972609
-0.034102
-0.0677717
-0.0975104
-0.107991
-0.0828715
-0.0510656
-0.0218888
0.000618177
0.0133418
0.0205145
0.0283697
0.0182577
-0.0128169
-0.0712647
-0.150716
-0.228225
-0.269211
-0.245829
-0.188325
-0.113673
-0.0511201
-0.0155607
0.00495169
0.00316679
-0.109812
-0.0983717
-0.0781091
-0.0564268
-0.0366534
-0.0203351
-0.00776367
0.000756189
0.0046937
0.00347312
-0.00278223
-0.0133493
-0.02661
-0.0397835
-0.0520798
-0.0603129
-0.0638761
-0.0628269
-0.0577343
-0.0494422
-0.0391604
-0.0278884
-0.0163319
-0.00512249
0.00537312
0.0148351
0.02334
0.0312933
0.0372222
0.0378349
0.0333407
0.029987
0.0274085
0.0212244
0.0109517
-0.0015815
-0.0208592
-0.0511401
-0.0797306
-0.0871063
-0.0681106
-0.0399751
-0.0135674
0.00754748
0.0198733
0.0266204
0.0319041
0.0255205
-0.00516715
-0.0662074
-0.152581
-0.238816
-0.28436
-0.2584
-0.195487
-0.116272
-0.0514386
-0.0147857
0.00620675
0.00349032
-0.10477
-0.0947946
-0.0778155
-0.0589795
-0.041704
-0.0272736
-0.0159881
-0.00811452
-0.00394856
-0.00367742
-0.00716474
-0.0138816
-0.0227086
-0.0322182
-0.0409286
-0.0470909
-0.0499343
-0.0492419
-0.0452825
-0.0385437
-0.0298562
-0.0200728
-0.00979651
0.000374874
0.0100356
0.0189109
0.0269308
0.0342986
0.0399548
0.040738
0.0363552
0.0319074
0.0290144
0.0233792
0.0137837
0.00339461
-0.0112086
-0.0354023
-0.0599732
-0.0684442
-0.0534178
-0.029219
-0.00569665
0.0138295
0.0257764
0.0322163
0.0375251
0.0314777
0.000848935
-0.0628323
-0.155926
-0.249051
-0.298176
-0.26994
-0.201851
-0.118327
-0.0513708
-0.0135632
0.00781877
0.0039837
-0.0961605
-0.0897965
-0.0764485
-0.0603324
-0.0452024
-0.0324827
-0.0224335
-0.0151228
-0.0106624
-0.00915773
-0.0105428
-0.0144187
-0.0197912
-0.0264662
-0.0324477
-0.0368157
-0.0387779
-0.0379729
-0.0345063
-0.0287038
-0.0212074
-0.0127232
-0.00368127
0.00542884
0.0141608
0.0223176
0.0297872
0.0364623
0.0415376
0.0424146
0.0381742
0.0334439
0.0305838
0.0257001
0.0169485
0.00841683
-0.00102878
-0.0183993
-0.0402725
-0.0498549
-0.0384313
-0.0183083
0.00206907
0.0199444
0.0313041
0.0370225
0.042114
0.0366698
0.00594211
-0.0602987
-0.158753
-0.257502
-0.310112
-0.279722
-0.206735
-0.119368
-0.0506886
-0.0117873
0.00980689
0.00467543
-0.087778
-0.0842529
-0.0737911
-0.0601823
-0.0470446
-0.0358683
-0.0269102
-0.0201418
-0.0155807
-0.0132799
-0.0131933
-0.0150698
-0.0185639
-0.0221753
-0.0258279
-0.0284887
-0.029461
-0.0283894
-0.0252917
-0.0203464
-0.0139242
-0.0065549
0.00141547
0.00961498
0.0175704
0.0250464
0.0319637
0.0380395
0.0424615
0.043363
0.0397138
0.0351302
0.0325348
0.0281698
0.0204968
0.0146217
0.0106836
-0.00157733
-0.0215435
-0.0319341
-0.0237716
-0.00775648
0.00931985
0.0254218
0.0362472
0.0411474
0.0459097
0.0411813
0.0108182
-0.0568987
-0.159271
-0.263176
-0.31907
-0.286911
-0.209634
-0.119187
-0.0492995
-0.00941334
0.012149
0.00556482
-0.0798107
-0.0778785
-0.0697671
-0.0585359
-0.0473275
-0.037595
-0.0296504
-0.0234528
-0.0189574
-0.0161643
-0.015017
-0.0152943
-0.0167862
-0.0186434
-0.0205157
-0.0217848
-0.0219356
-0.020615
-0.0177236
-0.0133259
-0.00764886
-0.00111954
0.0059588
0.0133026
0.0204703
0.0272172
0.0335013
0.0390143
0.0429261
0.043856
0.0410026
0.0370652
0.0349903
0.0314594
0.0252681
0.0222552
0.0224455
0.0135803
-0.00479827
-0.0155214
-0.00997453
0.00228929
0.01608
0.0303414
0.0405904
0.0444885
0.0486252
0.0448959
0.0158726
-0.0517321
-0.156924
-0.265311
-0.324066
-0.290629
-0.209922
-0.117429
-0.0470723
-0.00644433
0.0147674
0.0066272
-0.0713411
-0.0706417
-0.0647137
-0.0557022
-0.0462811
-0.0378744
-0.0308703
-0.0252539
-0.0209443
-0.0178946
-0.0160473
-0.0152957
-0.0152859
-0.0157344
-0.0162644
-0.0164402
-0.0158608
-0.0142079
-0.0113536
-0.00733979
-0.00230067
0.00346449
0.00971742
0.0162656
0.0227267
0.0288371
0.0345313
0.0395091
0.0430448
0.0440934
0.0421866
0.0392843
0.0378446
0.0368664
0.0326324
0.0321164
0.0338363
0.0259899
0.00907424
-0.00104608
0.00258697
0.0115473
0.0221493
0.0345076
0.04426
0.0471505
0.0504421
0.047864
0.0212645
-0.0449187
-0.151691
-0.263174
-0.324002
-0.289904
-0.206986
-0.113854
-0.0439552
-0.00296338
0.017512
0.00781083
-0.0624689
-0.063169
-0.0591066
-0.0519562
-0.0440986
-0.0369006
-0.0307839
-0.025752
-0.0217045
-0.0185666
-0.0162782
-0.0147598
-0.0138198
-0.0132411
-0.0127603
-0.0120671
-0.0108702
-0.00892978
-0.00611442
-0.00241857
0.00211045
0.00727147
0.0128565
0.0187205
0.0245267
0.0300296
0.0351677
0.0396399
0.0428866
0.044153
0.0431622
0.0415121
0.0419849
0.0422775
0.0417139
0.0433242
0.0440508
0.0352782
0.0201738
0.0113152
0.0135357
0.0198035
0.0275026
0.0379282
0.047211
0.0492442
0.0513862
0.0501356
0.0266265
-0.037047
-0.14345
-0.255904
-0.317744
-0.283774
-0.20024
-0.108221
-0.0399452
0.000848106
0.0201558
0.00902432
-0.0542804
-0.055832
-0.0531039
-0.0474742
-0.0409926
-0.0348968
-0.029606
-0.0251434
-0.0214117
-0.018327
-0.0158256
-0.0138465
-0.0122784
-0.0109751
-0.00976409
-0.00843826
-0.00679217
-0.00463746
-0.00183454
0.00164571
0.00578116
0.0104332
0.0154217
0.0206529
0.0258569
0.0308066
0.0354582
0.0395019
0.0425178
0.0440468
0.0439053
0.0433653
0.0445539
0.0467654
0.0491647
0.0521467
0.0513612
0.04202
0.0292073
0.0216386
0.0226106
0.0268093
0.0320248
0.0405518
0.0493235
0.0508923
0.0516711
0.0516267
0.0314359
-0.0285193
-0.131954
-0.242704
-0.304237
-0.271363
-0.189233
-0.100421
-0.0351469
0.00467445
0.0224013
0.0101288
-0.0466657
-0.0485377
-0.0468139
-0.0424745
-0.0371962
-0.032082
-0.0275473
-0.023635
-0.0202559
-0.0173212
-0.0147722
-0.0125522
-0.0106002
-0.00883135
-0.00713894
-0.00538569
-0.00342035
-0.00109819
0.00169497
0.00498908
0.00877718
0.0129815
0.0174582
0.0221396
0.0268158
0.031271
0.0354857
0.0391734
0.0420094
0.0437913
0.0443833
0.0447346
0.0465486
0.0496578
0.0531967
0.0564811
0.0551924
0.0468046
0.0363825
0.0296878
0.0296107
0.0324128
0.0356531
0.0423721
0.0504205
0.0519945
0.0514123
0.052227
0.0353828
-0.0195919
-0.117167
-0.223039
-0.282612
-0.251994
-0.173742
-0.090467
-0.029712
0.00810641
0.023901
0.0109449
-0.0392162
-0.0413845
-0.0404833
-0.037196
-0.0329285
-0.0286684
-0.024815
-0.0214233
-0.0184158
-0.0156986
-0.0132114
-0.0109143
-0.00877408
-0.00674459
-0.00476155
-0.00273666
-0.00056738
0.00184698
0.00459338
0.00770955
0.011201
0.0150232
0.0190614
0.023257
0.0274589
0.0314755
0.0352982
0.0386925
0.0413963
0.0433828
0.0445586
0.0455523
0.0477359
0.0510024
0.0544485
0.0573452
0.056295
0.0496971
0.0414618
0.0353976
0.0345964
0.0365688
0.0384138
0.043419
0.0503575
0.0521908
0.0505596
0.0518571
0.0381949
-0.0109003
-0.0995734
-0.196797
-0.252539
-0.225552
-0.153962
-0.0786343
-0.023846
0.0107932
0.0243459
0.0112813
-0.0322232
-0.034583
-0.0342648
-0.0317961
-0.0283651
-0.0248406
-0.0215935
-0.0186843
-0.0160465
-0.0135856
-0.0112418
-0.00898668
-0.00680086
-0.00466164
-0.00253631
-0.000374982
0.00188582
0.00431795
0.00698936
0.00993603
0.0131646
0.0166455
0.0202952
0.0240631
0.0278429
0.0314761
0.0349492
0.0380927
0.0406933
0.0428104
0.0444023
0.0458149
0.0480981
0.0511476
0.0540899
0.0563226
0.0555993
0.0508073
0.044497
0.0391339
0.0378868
0.0393223
0.0403633
0.0437934
0.0492362
0.050994
0.0489113
0.0501265
0.0392536
-0.00335001
-0.0801567
-0.164884
-0.214861
-0.192753
-0.130581
-0.0654553
-0.0178409
0.0125382
0.0236126
0.0110293
-0.0257862
-0.0281384
-0.0282139
-0.0263934
-0.0236586
-0.0207649
-0.0180514
-0.0155805
-0.0132923
-0.0111051
-0.00895774
-0.00682431
-0.00469344
-0.0025589
-0.000410027
0.00177777
0.00404276
0.00643479
0.00900218
0.0117726
0.0147532
0.0179248
0.0212287
0.024621
0.0280245
0.0313183
0.0344803
0.0373957
0.0398999
0.0420701
0.0439083
0.0455576
0.047752
0.0504392
0.0528331
0.0544123
0.0539142
0.0505969
0.0459068
0.0414465
0.0399071
0.0408767
0.0415453
0.0435663
0.0473501
0.0483088
0.0461814
0.0466611
0.0379867
0.00218483
-0.060376
-0.129105
-0.171405
-0.155185
-0.104893
-0.0517052
-0.0121118
0.01328
0.0218338
0.0102494
-0.0197715
-0.0220556
-0.0224126
-0.0211021
-0.0189388
-0.0165778
-0.0143261
-0.0122465
-0.0102881
-0.00837417
-0.00644853
-0.00448596
-0.00248019
-0.00043351
0.00165269
0.00378698
0.00598904
0.00828952
0.010721
0.013305
0.0160482
0.0189367
0.021928
0.024985
0.0280517
0.03104
0.0339217
0.0366201
0.0390163
0.0411717
0.0431073
0.0448554
0.0468723
0.049158
0.051082
0.0521693
0.0518048
0.049566
0.046117
0.0421796
0.0409284
0.0415052
0.0420511
0.042895
0.0450346
0.0447424
0.0423829
0.0415614
0.0340541
0.00503828
-0.0419374
-0.0925823
-0.126
-0.116173
-0.078844
-0.0383041
-0.00705908
0.013161
0.019354
0.00911527
-0.0142136
-0.0163867
-0.0169212
-0.015999
-0.0142983
-0.0123831
-0.0105277
-0.00879425
-0.00713898
-0.00549025
-0.00379528
-0.00203163
-0.000194972
0.0017096
0.00367413
0.00569627
0.00778241
0.00994997
0.0122205
0.0146097
0.0171216
0.0197452
0.0224493
0.025203
0.0279657
0.0306739
0.0332972
0.0357851
0.0380533
0.0401368
0.0420612
0.043808
0.045622
0.0475262
0.0490774
0.0498532
0.0495802
0.0480897
0.0456326
0.0427875
0.0413353
0.0414779
0.0418967
0.0420278
0.042777
0.0413286
0.0381674
0.0361012
0.0282398
0.00596821
-0.0258491
-0.0589983
-0.0830424
-0.0776931
-0.0544595
-0.0261784
-0.00294346
0.012427
0.0165646
0.00780928
-0.00910997
-0.0111251
-0.0117602
-0.0111355
-0.0098105
-0.00826861
-0.00675255
-0.00532036
-0.00393596
-0.0025355
-0.00106954
0.000483651
0.00212806
0.00385771
0.00566149
0.00753082
0.00946416
0.01147
0.0135612
0.0157481
0.0180323
0.0204044
0.0228415
0.0253176
0.0278016
0.0302489
0.0326302
0.0349103
0.0370307
0.0390005
0.0408401
0.0425158
0.0441333
0.0457133
0.0469704
0.04757
0.0473834
0.0463883
0.0446702
0.0426176
0.041239
0.0410213
0.0411871
0.0409688
0.0406773
0.0385599
0.0350405
0.0318959
0.0228728
0.00639594
-0.0132023
-0.0317886
-0.0469971
-0.0465287
-0.0338204
-0.0161528
0.000151125
0.0113411
0.0138077
0.0064875
-0.00442252
-0.00626791
-0.00695485
-0.0065562
-0.00553388
-0.00430162
-0.00307234
-0.00189907
-0.000753565
0.000419381
0.00166696
0.00301099
0.00445496
0.00599301
0.00761376
0.00930606
0.0110637
0.0128888
0.0147882
0.0167678
0.0188277
0.0209596
0.0231454
0.0253637
0.0275895
0.0297916
0.0319429
0.0340167
0.0359723
0.0378016
0.0395132
0.0410748
0.0425133
0.0438328
0.0448629
0.0453661
0.0452672
0.0445975
0.0433988
0.0419142
0.040731
0.0402467
0.0401313
0.0396911
0.0388507
0.0365151
0.032878
0.0293236
0.0207108
0.00690894
-0.0045662
-0.0128976
-0.0214173
-0.023946
-0.0183316
-0.00856547
0.00234266
0.0101336
0.0113181
0.00525905
-0.000151621
-0.00181831
-0.00251519
-0.00228347
-0.00150358
-0.000527051
0.000460953
0.00141277
0.00234968
0.00331816
0.00436343
0.00550745
0.00675322
0.00809553
0.00952433
0.011028
0.0125979
0.0142321
0.0159333
0.0177045
0.0195447
0.021446
0.0233938
0.0253702
0.0273547
0.0293244
0.0312556
0.0331257
0.0349057
0.036579
0.0381412
0.0395657
0.0408418
0.0419597
0.0428196
0.0432646
0.0432435
0.0427947
0.041954
0.0408656
0.0398794
0.0392699
0.038873
0.038234
0.0370786
0.0347938
0.0313972
0.0278235
0.0205534
0.00965448
0.0025181
-0.00130669
-0.00639419
-0.00995085
-0.00735392
-0.00315526
0.00384967
0.00897253
0.00921409
0.00419476
0.00372736
0.00224344
0.0015645
0.0016729
0.00225796
0.00302328
0.0038084
0.00457127
0.0053289
0.00611634
0.00697836
0.00793651
0.00899383
0.0101455
0.0113831
0.0126959
0.0140746
0.0155151
0.0170178
0.0185835
0.0202101
0.0218905
0.0236123
0.0253605
0.027118
0.0288667
0.0305868
0.0322581
0.033858
0.0353671
0.0367726
0.038051
0.0391806
0.0401417
0.0408733
0.0412776
0.0413179
0.0410222
0.0404251
0.0396076
0.0387787
0.0381069
0.0375064
0.036698
0.0353821
0.033219
0.0302419
0.0270236
0.0214338
0.013741
0.00912596
0.00645645
0.00232461
-0.00186513
-0.00479535
0.000339033
0.00485447
0.00795451
0.00752501
0.0033193
0.00724417
0.00593426
0.0052891
0.00530757
0.00573646
0.00632737
0.00694118
0.00754091
0.00814028
0.00877797
0.00947965
0.0102692
0.0111521
0.0121242
0.0131781
0.0143049
0.0154962
0.0167468
0.0180553
0.0194215
0.0208427
0.0223124
0.0238199
0.0253525
0.0268959
0.0284349
0.0299527
0.0314318
0.0328526
0.034196
0.0354456
0.0365799
0.0375757
0.0384087
0.0390406
0.0394109
0.0394929
0.0393025
0.0388676
0.0382343
0.0375219
0.0368234
0.0361047
0.0351748
0.0338138
0.0318078
0.0292099
0.0263337
0.0222817
0.017192
0.0138727
0.0113518
0.00751811
0.003489
0.001013
0.00309012
0.00555905
0.00713025
0.00622514
0.00263657
0.0104148
0.00926938
0.00866947
0.00862463
0.008929
0.00937678
0.00984941
0.0103146
0.010787
0.0112908
0.0118493
0.0124854
0.0132083
0.0140148
0.0148974
0.0158486
0.0168609
0.0179295
0.0190521
0.0202278
0.0214537
0.0227238
0.0240293
0.025359
0.0267006
0.0280413
0.029367
0.0306618
0.0319085
0.0330896
0.0341879
0.0351837
0.0360554
0.0367794
0.0373288
0.0376655
0.0377703
0.0376482
0.0373199
0.0368098
0.0361831
0.0354863
0.0347057
0.0337165
0.0323765
0.0305432
0.0282733
0.0257462
0.0226611
0.019077
0.0164423
0.0140392
0.0106206
0.00705321
0.00476031
0.00510383
0.00605916
0.00650303
0.00526028
0.00212888
0.0132624
0.0122701
0.0117211
0.0116323
0.0118379
0.0121683
0.0125245
0.0128763
0.0132361
0.0136256
0.0140649
0.0145679
0.0151473
0.0158034
0.0165295
0.0173185
0.018164
0.0190618
0.0200096
0.0210062
0.0220488
0.023132
0.0242482
0.0253878
0.0265403
0.0276947
0.0288386
0.0299584
0.031039
0.032064
0.0330171
0.0338812
0.0346371
0.0352638
0.0357405
0.0360411
0.0361515
0.03607
0.0358096
0.0353803
0.0348167
0.0341381
0.0333394
0.0323411
0.0310566
0.029395
0.0274033
0.0251896
0.0226892
0.0199547
0.0176837
0.0154113
0.012441
0.0093546
0.0071516
0.00651034
0.00641433
0.00605049
0.0045666
0.0017665
0.0158101
0.014957
0.014461
0.0143429
0.0144704
0.0147045
0.0149633
0.0152209
0.015486
0.0157804
0.0161197
0.0165072
0.0169587
0.0174791
0.018064
0.018706
0.0193992
0.0201399
0.0209262
0.0217569
0.0226295
0.0235393
0.0244797
0.0254427
0.0264191
0.0273993
0.028373
0.0293282
0.0302515
0.0311282
0.0319439
0.0326834
0.0333305
0.0338666
0.0342749
0.0345362
0.0346391
0.0345769
0.0343556
0.0339782
0.0334622
0.0328119
0.0320249
0.03105
0.0298392
0.0283362
0.0265774
0.0246277
0.0225026
0.0202529
0.0182
0.0160614
0.0134714
0.0107874
0.00865564
0.00745513
0.00666273
0.0057372
0.00408092
0.0015166
0.0180804
0.0173519
0.0169081
0.0167708
0.0168357
0.0169907
0.0171681
0.0173466
0.0175319
0.0177398
0.0179856
0.0182842
0.0186312
0.0190337
0.0194928
0.0200035
0.02056
0.0211588
0.0217981
0.0224772
0.023194
0.0239448
0.0247237
0.0255238
0.0263376
0.0271567
0.0279721
0.0287736
0.0295498
0.0302875
0.0309716
0.031595
0.0321394
0.0325895
0.0329313
0.0331491
0.0332329
0.0331737
0.0329735
0.0326298
0.0321503
0.0315314
0.0307718
0.029839
0.0287085
0.0273459
0.0257792
0.024045
0.0221806
0.0202254
0.0183241
0.0163137
0.0140164
0.0116394
0.00957884
0.00806569
0.00682843
0.00552568
0.00374829
0.00134898
0.0200937
0.0194751
0.0190804
0.0189316
0.0189472
0.0190379
0.0191489
0.0192622
0.0193825
0.0195219
0.0196926
0.0199043
0.0201627
0.0204645
0.0208128
0.0212065
0.0216411
0.022113
0.0226206
0.023163
0.023739
0.0243454
0.0249774
0.0256289
0.0262938
0.026965
0.0276347
0.0282942
0.028934
0.0295424
0.0301082
0.0306188
0.0310649
0.0314319
0.0317073
0.0318775
0.0319339
0.031867
0.0316751
0.031352
0.0308998
0.0303114
0.0295866
0.0287042
0.0276529
0.0264115
0.0250012
0.0234414
0.0217691
0.0200092
0.0182286
0.016338
0.0142587
0.0121079
0.0101207
0.00844474
0.00692621
0.00538295
0.00352343
0.0012384
0.0218693
0.0213467
0.0209976
0.0208428
0.0208197
0.0208579
0.0209141
0.0209735
0.0210392
0.0211209
0.0212279
0.0213675
0.0215445
0.0217628
0.0220192
0.0223115
0.0226386
0.0229983
0.023389
0.0238098
0.0242598
0.0247366
0.0252363
0.0257538
0.0262837
0.0268203
0.027357
0.0278866
0.0284003
0.0288871
0.0293414
0.0297499
0.030104
0.030391
0.0306007
0.0307213