/*--------------------------------*- C++ -*----------------------------------*\
| =========                 |                                                 |
| \\      /  F ield         | OpenFOAM: The Open Source CFD Toolbox           |
|  \\    /   O peration     | Version:  2312                                  |
|   \\  /    A nd           | Website:  www.openfoam.com                      |
|    \\/     M anipulation  |                                                 |
\*---------------------------------------------------------------------------*/
FoamFile
{
    version     2.0;
    format      ascii;
    arch        "LSB;label=32;scalar=64";
    class       volVectorField;
    location    "6";
    object      U;
}
// * * * * * * * * * * * * * * * * * * * * * * * * * * * * * * * * * * * * * //

dimensions      [0 1 -1 0 0 0 0];

internalField   nonuniform List<vector> 
940
(
(-0.227865 0.176094 1.99705e-19)
(0.442217 0.0765393 0)
(1.10363 0.0623061 1.26241e-19)
(1.40924 -0.0411616 -9.18041e-20)
(1.41383 -0.0714863 -7.20056e-20)
(1.24236 -0.124037 5.3063e-20)
(-0.0164489 0.155736 -2.30511e-19)
(1.08733 0.157896 3.24978e-21)
(1.40061 0.204255 -6.53843e-20)
(1.38366 0.103641 7.06331e-20)
(1.25784 0.0498219 0)
(1.20916 -0.00364935 -3.01622e-20)
(0.759151 0.310089 -2.49827e-20)
(1.34772 0.224526 -1.27602e-20)
(1.29074 0.248812 6.40094e-20)
(1.26419 0.125109 -3.37593e-20)
(1.25648 0.111173 1.49551e-20)
(1.19985 0.0756334 0)
(-0.228983 0.145101 2.56084e-20)
(-0.44134 0.0561422 -1.83217e-20)
(-0.478394 -0.0460612 8.26392e-21)
(-0.315659 -0.160037 5.21581e-20)
(-0.132076 -0.184991 -2.25978e-20)
(0.145918 -0.210737 0)
(-0.208442 0.427895 7.54916e-20)
(-0.229395 0.287377 8.88511e-21)
(-0.0657623 0.0583742 4.03622e-20)
(0.26295 -0.226504 -2.54688e-20)
(0.533117 -0.37062 -6.64652e-20)
(0.783303 -0.384135 3.06039e-20)
(-0.204494 0.410168 -7.36015e-20)
(-0.14401 0.251216 0)
(0.520848 0.070437 -1.5774e-19)
(0.952144 -0.147098 1.14665e-19)
(1.22559 -0.255265 9.11188e-20)
(1.27888 -0.251752 -6.71133e-20)
(0.326898 -0.161562 0)
(0.504897 -0.115336 -3.65601e-21)
(0.654685 -0.0801596 -2.29122e-22)
(0.774599 -0.0491805 5.67333e-21)
(0.856815 -0.027936 -3.11997e-21)
(0.905792 -0.0135496 7.48798e-22)
(0.933897 -0.00206199 0)
(0.95136 0.00792905 2.80147e-22)
(0.963128 0.0166051 -2.49897e-22)
(0.971126 0.0248165 -4.50896e-23)
(0.9766 0.0330957 -3.56158e-23)
(0.980357 0.0425437 0)
(0.983233 0.05283 0)
(0.985183 0.0695424 0)
(0.987323 0.07809 0)
(0.989081 0.123716 -1.66044e-23)
(0.814374 -0.343119 -2.31719e-20)
(0.841075 -0.270367 -1.58427e-21)
(0.855322 -0.194064 1.39148e-21)
(0.87776 -0.116594 -4.87964e-21)
(0.902524 -0.0574877 4.28697e-21)
(0.925824 -0.0214514 0)
(0.945115 -0.00144475 0)
(0.959271 0.0098744 -4.33954e-23)
(0.968981 0.0176943 0)
(0.975617 0.0248126 -6.87056e-22)
(0.980314 0.032456 6.89327e-22)
(0.983847 0.0415704 6.19852e-23)
(0.986796 0.0517896 0)
(0.989171 0.0686472 -3.54147e-23)
(0.991897 0.0771234 0)
(0.99455 0.123076 1.65688e-23)
(1.22189 -0.268983 -1.79518e-22)
(1.14159 -0.243004 0)
(1.0501 -0.204991 2.97128e-21)
(0.986164 -0.15332 -2.6282e-21)
(0.954173 -0.100156 5.21163e-21)
(0.945591 -0.0579343 -4.55303e-21)
(0.949871 -0.0278349 0)
(0.959064 -0.00711301 4.81732e-23)
(0.968585 0.00780094 1.11776e-21)
(0.976281 0.0191971 -9.83528e-22)
(0.981988 0.029168 0)
(0.986301 0.0395707 -6.59424e-23)
(0.989885 0.0504877 1.90029e-22)
(0.992912 0.0680833 -1.29847e-22)
(0.996254 0.0768945 0)
(1.00008 0.123069 0)
(1.16327 -0.140666 0)
(1.10462 -0.138364 0)
(1.03577 -0.12327 0)
(0.992334 -0.103572 0)
(0.975517 -0.0780835 0)
(0.970926 -0.0520322 0)
(0.970055 -0.0292674 0)
(0.971745 -0.0107695 0)
(0.975809 0.00379991 0)
(0.980679 0.0158215 0)
(0.985251 0.0264227 0)
(0.989285 0.0372851 0)
(0.993005 0.0482825 0)
(0.996467 0.0659707 0)
(1.00025 0.0748372 0)
(1.00519 0.12181 0)
(1.13027 -0.104215 0)
(1.09505 -0.117877 0)
(1.04971 -0.116976 0)
(1.01225 -0.102832 0)
(0.989047 -0.0786392 0)
(0.97995 -0.0510899 0)
(0.977079 -0.027216 0)
(0.977165 -0.00915438 0)
(0.980088 0.00444366 0)
(0.984309 0.0156523 0)
(0.988494 0.026023 0)
(0.99238 0.036861 0)
(0.996198 0.0478769 0)
(1.00003 0.0655337 0)
(1.0042 0.0740806 0)
(1.01025 0.121227 0)
(1.10463 -0.0638296 0)
(1.085 -0.0718627 0)
(1.05758 -0.0741829 0)
(1.02678 -0.0681495 0)
(1.00097 -0.057052 0)
(0.989643 -0.0434902 0)
(0.986206 -0.028183 0)
(0.985284 -0.0132305 0)
(0.986396 -6.00667e-05 0)
(0.989112 0.0118275 0)
(0.99254 0.0228881 0)
(0.996194 0.0343314 0)
(1.00015 0.0458431 0)
(1.00446 0.0639473 0)
(1.00912 0.0725084 0)
(1.01653 0.120282 0)
(1.074 -0.0327713 0)
(1.06419 -0.0424911 0)
(1.05119 -0.0504406 0)
(1.03244 -0.0504737 0)
(1.01292 -0.0430669 0)
(1.00281 -0.0324824 0)
(0.997746 -0.0199968 0)
(0.994199 -0.00738176 0)
(0.993717 0.0041862 0)
(0.995567 0.0148715 0)
(0.998227 0.0251312 0)
(1.0015 0.0359443 0)
(1.00544 0.0468105 0)
(1.01021 0.0643 0)
(1.01534 0.0719808 0)
(1.02455 0.119543 0)
(1.05564 -0.0240488 0)
(1.05267 -0.0317427 0)
(1.04766 -0.0378997 0)
(1.03651 -0.0383922 0)
(1.02088 -0.0346255 0)
(1.01206 -0.0294298 0)
(1.00791 -0.0222367 0)
(1.00394 -0.0130333 0)
(1.00146 -0.00311654 0)
(1.00154 0.00672494 0)
(1.00347 0.0167721 0)
(1.0066 0.0277607 0)
(1.01077 0.0390299 0)
(1.01644 0.05723 0)
(1.02233 0.0649853 0)
(1.03395 0.115415 0)
(1.04277 -0.00501187 0)
(1.03888 -0.00976079 0)
(1.03813 -0.0127758 0)
(1.03472 -0.0132098 0)
(1.02418 -0.0118234 0)
(1.01767 -0.00911869 0)
(1.01507 -0.00464697 0)
(1.0121 0.00159065 0)
(1.01039 0.00901353 0)
(1.01075 0.0173382 0)
(1.01239 0.0262374 0)
(1.01541 0.0361782 0)
(1.01965 0.0463427 0)
(1.02623 0.0633165 0)
(1.03281 0.0693231 0)
(1.04842 0.117036 0)
(1.03824 -0.0195344 0)
(1.03704 -0.0217954 0)
(1.03801 -0.0229811 0)
(1.03611 -0.0231652 0)
(1.02831 -0.022101 0)
(1.02412 -0.0199905 0)
(1.02283 -0.0168192 0)
(1.02014 -0.0121938 0)
(1.01759 -0.00632059 0)
(1.01703 0.000273026 0)
(1.01818 0.00780025 0)
(1.02132 0.0165602 0)
(1.02571 0.0262268 0)
(1.03392 0.0428546 0)
(1.0408 0.0479286 0)
(1.05991 0.101862 0)
(1.03438 0.00845099 0)
(1.03157 0.00716481 0)
(1.03272 0.0075821 0)
(1.03467 0.00874288 0)
(1.03011 0.00951988 0)
(1.02698 0.0100766 0)
(1.02714 0.0113188 0)
(1.02685 0.0138849 0)
(1.02637 0.0178266 0)
(1.02725 0.0228603 0)
(1.0291 0.0290179 0)
(1.03367 0.0363187 0)
(1.03805 0.0445098 0)
(1.05065 0.0588935 0)
(1.05648 0.0621072 0)
(1.09026 0.109508 0)
(1.03548 -0.0241839 0)
(1.03318 -0.0240542 0)
(1.0346 -0.0231362 0)
(1.0367 -0.0229727 0)
(1.03365 -0.0227439 0)
(1.03213 -0.0214552 0)
(1.0329 -0.0194833 0)
(1.03252 -0.017219 0)
(1.03172 -0.0145294 0)
(1.03246 -0.0116736 0)
(1.03402 -0.00744645 0)
(1.03915 -0.00396108 0)
(1.04295 0.00370958 0)
(1.05829 0.0112686 0)
(1.06245 0.0134299 0)
(1.10054 0.0627039 0)
(1.03921 0.0241149 0)
(1.03801 0.0235325 0)
(1.03937 0.0207507 0)
(1.04068 0.0186122 0)
(1.0374 0.0194201 0)
(1.03514 0.0218264 0)
(1.03564 0.0238453 0)
(1.03661 0.0251513 0)
(1.03689 0.0264026 0)
(1.0402 0.0275907 0)
(1.04016 0.0299405 0)
(1.05432 0.0312975 0)
(1.04367 0.0366266 0)
(1.09482 0.0400838 0)
(1.05569 0.041208 0)
(1.16277 0.0764621 0)
(1.15236 0.0386687 -5.85427e-21)
(1.1661 0.0310396 4.16147e-20)
(1.16623 -0.105045 0)
(1.11032 0.0223381 4.73285e-21)
(1.11264 0.028617 -6.16406e-21)
(1.13017 -0.0612597 -2.07041e-20)
(1.08942 0.00836026 0)
(1.08539 0.0149151 -5.49265e-21)
(1.10351 -0.0451529 8.01691e-21)
(1.07347 0.00675534 1.68212e-23)
(1.06737 0.00557077 -1.77195e-23)
(1.07427 -0.0242316 6.84592e-21)
(1.0561 -0.00353221 -3.33466e-22)
(1.04937 -0.00613416 0)
(1.05033 -0.0184556 0)
(1.04894 0.00307447 3.70936e-22)
(1.04053 0.00201499 -2.01621e-21)
(1.03922 -0.00122007 0)
(1.03993 -0.0161974 2.12902e-22)
(1.03235 -0.0164207 2.37501e-21)
(1.03268 -0.0173367 0)
(1.04072 0.00791392 2.47593e-22)
(1.03319 0.0094909 -2.12199e-21)
(1.03125 0.00964094 0)
(1.03942 -0.0269919 4.12789e-22)
(1.03349 -0.0255402 8.06162e-22)
(1.03263 -0.0237364 -1.29681e-21)
(1.04573 0.021488 0)
(1.03999 0.0227118 0)
(1.03783 0.0229526 6.95294e-22)
(0.991489 0.183108 -1.48522e-20)
(0.964222 0.227246 2.01922e-20)
(0.980107 0.298242 7.38875e-21)
(0.956847 0.41285 -1.15215e-20)
(0.961534 0.471399 0)
(0.809107 0.682014 -9.48199e-20)
(1.05902 0.15092 -2.08561e-21)
(1.08212 0.205732 0)
(1.08449 0.238119 1.68611e-20)
(1.0954 0.38933 7.73397e-21)
(1.22439 0.413543 2.99953e-20)
(0.998778 0.586629 -3.64361e-20)
(1.12283 0.134136 0)
(1.14382 0.19602 9.10285e-21)
(1.21128 0.226963 -2.17489e-20)
(1.21927 0.344402 1.85603e-20)
(1.27181 0.274988 -6.08323e-21)
(0.977127 0.393839 -2.50707e-20)
(0.821476 0.0220301 0)
(0.767795 0.0296172 2.08083e-20)
(0.691956 0.0491021 -4.55797e-20)
(0.593957 0.0665367 4.69098e-20)
(0.434271 0.104534 2.25464e-20)
(0.204878 0.146947 -3.15104e-20)
(0.849676 0.0877322 3.88543e-20)
(0.811157 0.119811 3.55835e-20)
(0.742029 0.163867 2.98081e-20)
(0.673833 0.239552 -5.64992e-20)
(0.564096 0.33044 4.27281e-21)
(0.311476 0.424296 -7.68912e-20)
(0.915914 0.133961 3.03205e-20)
(0.892629 0.179478 -4.12277e-20)
(0.863671 0.241133 -5.63387e-20)
(0.776857 0.327683 4.80352e-20)
(0.786036 0.465584 0)
(0.577839 0.639598 2.84065e-21)
(0.984763 0.150257 3.7354e-22)
(0.981997 0.05161 -2.32062e-22)
(0.977897 -0.000374992 -2.28476e-23)
(0.974726 -0.0207122 0)
(0.954175 -0.0190742 -1.21463e-21)
(0.971425 -0.0174439 1.68551e-21)
(0.913366 -0.0178645 0)
(0.933429 -0.00298109 2.07367e-22)
(0.884969 0.0032984 0)
(0.859769 0.0182557 0)
(0.985012 0.150027 -3.72396e-22)
(0.983432 0.0517486 0)
(0.979331 -0.000909451 -1.04232e-21)
(0.97771 -0.015244 1.66765e-21)
(0.955423 -0.0252625 3.15338e-22)
(0.976808 -0.00175345 -2.07048e-22)
(0.922984 -0.0264389 0)
(0.933769 0.0201614 -2.19187e-22)
(0.897684 0.0211705 -2.29885e-20)
(0.877522 0.0629726 -3.81387e-21)
(0.985218 0.149331 8.63674e-22)
(0.98433 0.0490079 -1.09595e-21)
(0.981217 -0.00261424 0)
(0.97597 -0.0112175 0)
(0.962051 -0.0209491 -3.44183e-22)
(0.968961 0.00936619 0)
(0.931384 -0.00176482 -2.41271e-20)
(0.945909 0.0477673 6.36641e-20)
(0.912002 0.0603325 -8.50919e-20)
(0.927681 0.122548 5.41477e-20)
(0.985221 0.148742 0)
(0.984622 0.0477862 0)
(0.984255 -0.00363716 0)
(0.97311 -0.0110412 0)
(0.980903 -0.0251398 0)
(0.949576 0.0224155 0)
(0.974899 -0.0149806 0)
(0.940908 0.0689947 0)
(0.96724 0.0564646 0)
(0.958214 0.119875 0)
(0.985297 0.14821 0)
(0.985233 0.048618 0)
(0.986092 -0.000611143 0)
(0.975112 -0.00877618 0)
(0.986935 -0.0148889 0)
(0.954297 0.0153851 0)
(0.992855 0.00394222 0)
(0.948733 0.0586423 0)
(0.99381 0.0534734 0)
(0.980773 0.084283 0)
(0.985432 0.148374 0)
(0.986626 0.0478545 0)
(0.989876 -0.00270567 0)
(0.977458 -0.0105498 0)
(0.995706 -0.0165728 0)
(0.961076 0.013345 0)
(1.00173 0.00349357 0)
(0.96958 0.0377833 0)
(1.00823 0.0481057 0)
(1.00051 0.0572801 0)
(0.985525 0.147323 0)
(0.98689 0.0498085 0)
(0.992046 0.00302058 0)
(0.981571 -0.00631335 0)
(1.00327 -0.00735493 0)
(0.971032 0.0122777 0)
(1.0145 0.00967992 0)
(0.98823 0.0331683 0)
(1.016 0.0356289 0)
(1.0147 0.0444433 0)
(0.985962 0.1457 0)
(0.991853 0.0440336 0)
(0.998959 -0.00432213 0)
(0.988089 -0.0151481 0)
(1.01126 -0.0147796 0)
(0.980977 -0.00127772 0)
(1.02137 -0.000712414 0)
(0.999101 0.0103482 0)
(1.02117 0.0152663 0)
(1.01997 0.0203278 0)
(0.986148 0.1454 0)
(0.991475 0.0506744 0)
(1.00114 0.00580376 0)
(0.995013 -0.00551449 0)
(1.01827 -0.0045334 0)
(0.993149 0.00488254 0)
(1.02921 0.00454328 0)
(1.0121 0.0120347 0)
(1.02711 0.0148782 0)
(1.02653 0.0186628 0)
(0.987364 0.136029 0)
(1.00218 0.0317778 0)
(1.0123 -0.0143319 0)
(1.00504 -0.0268552 0)
(1.02569 -0.0250641 0)
(1.00187 -0.0191033 0)
(1.03284 -0.0178423 0)
(1.01609 -0.0144064 0)
(1.02678 -0.0111429 0)
(1.0249 -0.008528 0)
(0.989215 0.138479 0)
(1.00897 0.0484902 0)
(1.02104 0.00728796 0)
(1.01871 -0.00468822 0)
(1.03433 -0.00344757 0)
(1.01731 0.000863793 0)
(1.04006 0.00153569 0)
(1.02757 0.00371627 0)
(1.03512 0.00786781 0)
(1.03343 0.00995701 0)
(0.992011 0.094976 0)
(1.02544 0.00213373 0)
(1.03408 -0.0356914 0)
(1.03002 -0.0441104 0)
(1.03922 -0.0417807 0)
(1.02664 -0.035544 0)
(1.04025 -0.0348764 0)
(1.03247 -0.0317458 0)
(1.03418 -0.0288888 0)
(1.03316 -0.0263225 0)
(1.0144 0.106844 0)
(1.10815 0.0386647 0)
(1.09568 0.0104022 0)
(1.07573 0.00409742 0)
(1.06933 0.00726785 0)
(1.0545 0.00857299 0)
(1.0583 0.0131858 0)
(1.05016 0.014693 0)
(1.04925 0.0166061 0)
(1.04742 0.0166784 0)
(1.00816 0.133677 -2.38734e-20)
(1.05303 0.0811025 3.37339e-21)
(1.1209 0.105164 3.5332e-21)
(1.02422 0.101603 3.82185e-21)
(1.05092 0.0651721 2.35203e-22)
(1.09852 0.0814697 -2.8563e-21)
(1.03312 0.0703844 1.9087e-21)
(1.04727 0.0358946 -1.23769e-21)
(1.07924 0.0535984 0)
(1.04113 0.0464799 1.60256e-20)
(1.04485 0.0260789 3.64366e-23)
(1.06268 0.0339537 -3.46045e-23)
(1.04088 0.018545 -6.18067e-21)
(1.03999 0.00900213 0)
(1.05003 0.0119003 4.23112e-22)
(1.04309 0.0152328 0)
(1.03844 0.0109861 -1.29955e-22)
(1.04507 0.00931987 -2.18803e-22)
(1.03811 -0.0109261 0)
(1.03109 -0.0124538 -1.47809e-21)
(1.03687 -0.0132044 2.47873e-22)
(1.04311 0.00833298 -2.5796e-21)
(1.03712 0.00923051 1.88367e-21)
(1.03984 0.00947649 2.66741e-22)
(1.03987 -0.0276174 2.65694e-21)
(1.03368 -0.0267014 -9.17612e-22)
(1.03505 -0.0277559 4.7286e-22)
(1.05012 0.018929 -8.9689e-22)
(1.045 0.0204088 0)
(1.04539 0.0223604 0)
(-0.248921 -0.190716 -2.08356e-19)
(-0.0240746 -0.169729 1.82263e-19)
(0.759859 -0.313288 2.65361e-20)
(0.448968 -0.0823776 0)
(1.09187 -0.162434 -2.91561e-21)
(1.35331 -0.225222 -1.89601e-20)
(1.11457 -0.0650672 -1.31215e-19)
(1.40255 -0.209694 7.02236e-20)
(1.30116 -0.253952 -4.54579e-20)
(1.40493 0.0405754 1.33835e-19)
(1.38179 -0.10936 -5.36339e-20)
(1.27373 -0.132497 3.77605e-20)
(1.39013 0.0628043 7.67548e-20)
(1.25277 -0.0616147 -4.38015e-20)
(1.24269 -0.121032 -1.69098e-20)
(1.20706 0.117338 -5.65623e-20)
(1.20126 -0.0104876 3.56757e-20)
(1.17614 -0.090503 0)
(-0.222952 -0.199643 -2.67725e-20)
(-0.2062 -0.463199 -1.50942e-19)
(-0.211318 -0.429242 7.64952e-20)
(-0.428836 -0.0937843 -2.49686e-20)
(-0.22945 -0.317214 -8.42635e-21)
(-0.151851 -0.258643 0)
(-0.460448 0.0277809 2.35304e-20)
(-0.0382332 -0.0796359 -4.13178e-20)
(0.542482 -0.071119 1.61692e-19)
(-0.298284 0.157906 -5.42398e-20)
(0.287701 0.220228 6.53786e-20)
(0.969284 0.155472 -6.35422e-20)
(-0.106974 0.199489 2.35952e-20)
(0.574047 0.373761 0)
(1.23006 0.261998 -9.48306e-20)
(0.161128 0.227237 0)
(0.80144 0.390703 -3.37431e-20)
(1.25544 0.257257 6.98483e-20)
(0.346381 0.177294 0)
(0.837768 0.353286 2.57203e-20)
(1.19368 0.278966 0)
(0.520613 0.128603 3.30367e-21)
(0.857502 0.271764 -9.70748e-23)
(1.10989 0.247596 0)
(0.665151 0.091798 2.73461e-22)
(0.86306 0.190412 9.72499e-23)
(1.01833 0.199679 -1.26486e-23)
(0.778254 0.0635907 -5.21635e-21)
(0.879107 0.119605 3.7055e-21)
(0.960399 0.151998 0)
(0.856303 0.0448011 2.87032e-21)
(0.900918 0.0693357 -3.26264e-21)
(0.936732 0.108505 -2.24281e-21)
(0.904097 0.0341801 -6.87144e-22)
(0.921826 0.0403997 0)
(0.933331 0.07414 1.95102e-21)
(0.932929 0.029053 0)
(0.938998 0.0274444 0)
(0.939965 0.0514642 0)
(0.950885 0.0270832 -2.56181e-22)
(0.952045 0.0239113 0)
(0.949614 0.038944 0)
(0.962203 0.0277841 2.28519e-22)
(0.961229 0.0252943 0)
(0.958177 0.0338461 -7.12815e-22)
(0.969411 0.0309751 3.80963e-23)
(0.967437 0.0293971 5.37986e-22)
(0.964436 0.033989 6.27207e-22)
(0.974206 0.0364137 3.05826e-23)
(0.97169 0.0353655 -5.45133e-22)
(0.968716 0.0377065 0)
(0.977398 0.0442232 0)
(0.974466 0.0434952 -4.7566e-23)
(0.971322 0.0446604 5.06008e-23)
(0.979782 0.0536387 0)
(0.976444 0.0531244 0)
(0.972991 0.0535953 -1.47435e-22)
(0.981165 0.0698204 0)
(0.977237 0.0694513 2.92832e-23)
(0.973268 0.0696584 9.88759e-23)
(0.982704 0.0782389 0)
(0.978178 0.0782106 0)
(0.973707 0.0784404 0)
(0.983514 0.123746 1.73031e-23)
(0.977901 0.123845 -1.72662e-23)
(0.972161 0.124002 0)
(1.13864 0.141891 0)
(1.10892 0.0991782 0)
(1.07749 0.0546309 0)
(1.0471 0.032377 0)
(1.02236 0.0117852 0)
(1.00366 0.0128254 0)
(0.988639 -0.00899074 0)
(0.977262 0.0133278 0)
(0.968004 -0.0218199 0)
(0.959079 0.0252806 0)
(1.07488 0.146877 0)
(1.0732 0.122346 0)
(1.06372 0.0740523 0)
(1.04436 0.0475672 0)
(1.02485 0.0216936 0)
(1.00799 0.0192024 0)
(0.990907 -0.00517174 0)
(0.98013 0.0157485 0)
(0.970319 -0.0199373 0)
(0.960071 0.024193 0)
(1.01165 0.127141 0)
(1.02327 0.123082 0)
(1.03015 0.0781898 0)
(1.0232 0.0575782 0)
(1.01266 0.030584 0)
(1.00038 0.0273389 0)
(0.985711 0.000215565 0)
(0.976428 0.0201941 0)
(0.967258 -0.0176463 0)
(0.957696 0.0216998 0)
(0.975419 0.107603 0)
(0.987966 0.108172 0)
(0.997255 0.0746311 0)
(0.999156 0.0606922 0)
(0.99659 0.0360518 0)
(0.989406 0.0333389 0)
(0.980628 0.00476144 0)
(0.971514 0.0242903 0)
(0.964127 -0.0163321 0)
(0.956106 0.0209202 0)
(0.961322 0.0880028 0)
(0.971934 0.0866425 0)
(0.981126 0.0677125 0)
(0.987173 0.0578871 0)
(0.989253 0.0375725 0)
(0.985744 0.0363172 0)
(0.980502 0.00835989 0)
(0.971981 0.0271814 0)
(0.96509 -0.0147283 0)
(0.958164 0.0231362 0)
(0.954 0.067109 0)
(0.96178 0.0657535 0)
(0.970782 0.0575662 0)
(0.977277 0.0521986 0)
(0.98112 0.0365968 0)
(0.979999 0.0376741 0)
(0.976584 0.0113202 0)
(0.970143 0.0293288 0)
(0.963526 -0.012252 0)
(0.958197 0.0263098 0)
(0.951844 0.0503157 0)
(0.956567 0.0510624 0)
(0.963432 0.0477275 0)
(0.968316 0.046294 0)
(0.972171 0.0344517 0)
(0.972161 0.0381378 0)
(0.970307 0.0135663 0)
(0.965338 0.0313401 0)
(0.959778 -0.00972253 0)
(0.955514 0.0286505 0)
(0.95473 0.0394727 0)
(0.957253 0.0419604 0)
(0.961349 0.0404183 0)
(0.96421 0.0417159 0)
(0.966929 0.0324118 0)
(0.966848 0.0383238 0)
(0.965748 0.0154325 0)
(0.961226 0.0335391 0)
(0.956729 -0.00753397 0)
(0.952291 0.0301151 0)
(0.959455 0.0342437 0)
(0.96035 0.0372263 0)
(0.961917 0.0363261 0)
(0.962963 0.0390309 0)
(0.964061 0.0313727 0)
(0.963203 0.0388442 0)
(0.962009 0.0173641 0)
(0.957494 0.0359818 0)
(0.953674 -0.00540919 0)
(0.949012 0.0313346 0)
(0.963762 0.0338488 0)
(0.963396 0.0364932 0)
(0.963036 0.0357224 0)
(0.962477 0.0387223 0)
(0.961922 0.0320062 0)
(0.959856 0.0402498 0)
(0.958011 0.0197464 0)
(0.952888 0.0387043 0)
(0.94924 -0.00335606 0)
(0.943148 0.032451 0)
(0.967056 0.0371486 0)
(0.965774 0.0391927 0)
(0.964118 0.0383787 0)
(0.962223 0.0410402 0)
(0.960247 0.0348166 0)
(0.956798 0.0431432 0)
(0.954084 0.0232659 0)
(0.948018 0.0422572 0)
(0.94444 -0.000273663 0)
(0.939109 0.0344357 0)
(0.969097 0.0437696 0)
(0.967109 0.0452088 0)
(0.964541 0.0443236 0)
(0.961518 0.0463063 0)
(0.958275 0.0403312 0)
(0.95325 0.0481264 0)
(0.949233 0.0283461 0)
(0.940909 0.0467849 0)
(0.936255 0.00216169 0)
(0.923959 0.0356733 0)
(0.970281 0.052464 0)
(0.967679 0.0535346 0)
(0.964383 0.0526457 0)
(0.96042 0.0539035 0)
(0.956114 0.048296 0)
(0.949707 0.0552944 0)
(0.944802 0.0359784 0)
(0.935367 0.0537406 0)
(0.931127 0.00984341 0)
(0.927992 0.0415738 0)
(0.96996 0.0684511 0)
(0.966681 0.0691007 0)
(0.962546 0.0681021 0)
(0.957472 0.0684122 0)
(0.951634 0.0631421 0)
(0.943125 0.0684662 0)
(0.93553 0.0487316 0)
(0.920277 0.0639444 0)
(0.912015 0.0132514 0)
(0.878103 0.042311 0)
(0.96988 0.0772751 0)
(0.966065 0.0777742 0)
(0.961294 0.0768464 0)
(0.955443 0.0766325 0)
(0.948624 0.0721937 0)
(0.938893 0.0764105 0)
(0.93132 0.0581842 0)
(0.915695 0.0730474 0)
(0.910255 0.0262132 0)
(0.911197 0.0546447 0)
(0.96716 0.123179 0)
(0.962165 0.123412 0)
(0.955883 0.122699 0)
(0.94806 0.12206 0)
(0.938378 0.119602 0)
(0.924762 0.120147 0)
(0.912091 0.107434 0)
(0.881999 0.113731 0)
(0.871186 0.0676932 0)
(0.789027 0.0864582 0)
(1.12779 -0.048031 8.46605e-21)
(1.08318 -0.0232309 -6.84437e-21)
(1.06385 -0.0141715 0)
(1.03732 -0.0103742 -1.29992e-22)
(1.01822 -0.0175374 -5.18355e-22)
(0.997471 -0.00768908 5.2105e-22)
(0.985592 -0.0223375 1.22186e-22)
(0.971374 0.00401255 1.21246e-22)
(0.963871 -0.0283724 1.61047e-22)
(0.953367 0.0213439 0)
(1.16461 -0.0444264 -5.1508e-20)
(1.10468 -0.0323121 5.52055e-21)
(1.06984 -0.0262959 9.4118e-21)
(1.04215 -0.0135855 1.36931e-22)
(1.02256 -0.0126132 0)
(1.00509 -0.00191329 -1.04375e-22)
(0.993488 -0.0175006 4.62188e-22)
(0.979021 0.0085086 -8.14072e-22)
(0.97022 -0.0256141 3.80603e-22)
(0.959128 0.0236158 0)
(1.15295 0.100751 4.89103e-20)
(1.12022 0.0574614 -9.96771e-21)
(1.08404 0.0267674 -6.99453e-21)
(1.04895 0.0151914 -2.20307e-20)
(1.02495 0.00185831 7.11443e-21)
(1.0062 0.00746777 0)
(0.992671 -0.0118964 0)
(0.979832 0.0118279 6.87803e-22)
(0.969916 -0.0227253 -1.29757e-21)
(0.960101 0.024324 2.94603e-22)
(0.978673 -0.208976 8.49933e-21)
(1.04277 -0.168588 -4.80348e-21)
(1.10605 -0.136415 0)
(0.964581 -0.251099 -1.15549e-20)
(1.0769 -0.222165 -8.99334e-21)
(1.14122 -0.19893 -1.11976e-20)
(0.97817 -0.32012 -1.95484e-21)
(1.09499 -0.256428 -1.01923e-20)
(1.21027 -0.224887 2.60725e-20)
(0.961235 -0.435106 2.68766e-21)
(1.10332 -0.402813 -5.69936e-21)
(1.22461 -0.34797 -1.02323e-21)
(0.969859 -0.489695 0)
(1.22945 -0.420117 -3.04315e-20)
(1.27964 -0.276793 -1.94081e-20)
(0.80898 -0.695069 1.14089e-19)
(0.996533 -0.587128 -1.85339e-20)
(0.973446 -0.394015 2.71526e-20)
(0.819853 -0.0587254 0)
(0.849522 -0.122639 -3.50553e-20)
(0.905083 -0.177616 -2.51455e-20)
(0.768921 -0.0708701 -2.03029e-20)
(0.811499 -0.156208 0)
(0.886106 -0.224171 3.41895e-20)
(0.694105 -0.0892126 4.44896e-20)
(0.746916 -0.202782 -5.23561e-20)
(0.861424 -0.288312 2.88269e-20)
(0.596555 -0.105536 -7.27366e-20)
(0.672251 -0.275545 5.26886e-20)
(0.778545 -0.372033 -3.96336e-20)
(0.438693 -0.149337 1.62301e-20)
(0.570204 -0.372449 -2.87321e-21)
(0.781896 -0.500395 0)
(0.20889 -0.19731 3.06471e-20)
(0.320975 -0.472987 1.08341e-19)
(0.584146 -0.672302 -1.15269e-20)
(0.984568 0.149831 -2.88577e-22)
(0.984456 0.148834 2.87691e-22)
(0.984429 0.147505 -4.79317e-22)
(0.98021 0.0507466 -1.65295e-22)
(0.979089 0.0486773 3.81632e-22)
(0.978189 0.0449014 6.08323e-22)
(0.977628 -0.00219443 -4.20108e-24)
(0.976916 -0.00433781 3.46393e-22)
(0.976231 -0.0115724 4.91084e-22)
(0.96901 -0.0251941 0)
(0.964337 -0.0295808 -1.32104e-21)
(0.956912 -0.028564 0)
(0.959413 -0.0223724 1.1512e-21)
(0.967586 -0.0157919 -2.46523e-22)
(0.983765 -0.0317417 2.69078e-22)
(0.965778 -0.0353646 -1.58802e-21)
(0.957018 -0.0603635 -1.62883e-22)
(0.927554 -0.0709135 3.86503e-22)
(0.909875 -0.0346192 0)
(0.91779 -0.0237284 0)
(0.927478 -0.0348161 1.96611e-20)
(0.932545 -0.0372974 -1.90293e-22)
(0.936685 -0.0548542 2.01141e-22)
(0.952326 -0.0803891 -5.23126e-20)
(0.886023 -0.0350048 0)
(0.899196 -0.0558925 2.066e-20)
(0.91837 -0.102206 3.42856e-20)
(0.859299 -0.0508351 0)
(0.875449 -0.103232 3.5289e-21)
(0.908428 -0.159552 0)
(0.984286 0.146219 0)
(0.98407 0.145528 0)
(0.983944 0.14532 0)
(0.983745 0.143463 0)
(0.983465 0.141696 0)
(0.983145 0.14033 0)
(0.981975 0.131598 0)
(0.980141 0.133455 0)
(0.976893 0.0920816 0)
(0.952075 0.106665 0)
(0.979179 0.0422573 0)
(0.979419 0.0420896 0)
(0.978732 0.0392844 0)
(0.979264 0.0396221 0)
(0.975775 0.0323594 0)
(0.976742 0.0379341 0)
(0.968482 0.0193502 0)
(0.961881 0.0366606 0)
(0.94899 -0.00597845 0)
(0.863814 0.031771 0)
(0.969839 -0.0157 0)
(0.967415 -0.0138529 0)
(0.96606 -0.0170373 0)
(0.966938 -0.0133745 0)
(0.964982 -0.0218995 0)
(0.966053 -0.0121227 0)
(0.960548 -0.0315633 0)
(0.953001 -0.00722338 0)
(0.944503 -0.0457362 0)
(0.886298 0.00414695 0)
(0.973442 -0.0263695 0)
(0.982613 -0.0299011 0)
(0.98256 -0.036834 0)
(0.981492 -0.0353557 0)
(0.978943 -0.0443206 0)
(0.975607 -0.0323307 0)
(0.971009 -0.0495363 0)
(0.959151 -0.0215551 0)
(0.951184 -0.0543486 0)
(0.908686 -3.64885e-05 0)
(0.953269 -0.0386746 0)
(0.933625 -0.0403239 0)
(0.937406 -0.0411966 0)
(0.944837 -0.0383986 0)
(0.950203 -0.0460222 0)
(0.954022 -0.03419 0)
(0.953994 -0.0499648 0)
(0.949085 -0.0209533 0)
(0.946289 -0.0517841 0)
(0.918585 0.00391998 0)
(0.955498 -0.0817228 0)
(0.988858 -0.0696171 0)
(0.993637 -0.0697917 0)
(0.991816 -0.0573304 0)
(0.992156 -0.0572545 0)
(0.988004 -0.0385416 0)
(0.984603 -0.0498548 0)
(0.971032 -0.0190348 0)
(0.962092 -0.0461349 0)
(0.935574 0.00591849 0)
(0.94639 -0.00607202 0)
(0.950087 -0.030547 0)
(0.947607 -0.0456162 0)
(0.955029 -0.047517 0)
(0.95823 -0.054512 0)
(0.958994 -0.0386445 0)
(0.959105 -0.0487883 0)
(0.952658 -0.0178923 0)
(0.951494 -0.0450743 0)
(0.933921 0.0107457 0)
(0.9506 -0.100102 0)
(0.947434 -0.0965144 0)
(0.96942 -0.0762816 0)
(0.986387 -0.0667727 0)
(0.990935 -0.060394 0)
(0.988435 -0.0389356 0)
(0.983772 -0.04725 0)
(0.971299 -0.0155012 0)
(0.963023 -0.0412183 0)
(0.944544 0.0120784 0)
(0.947179 -0.114607 0)
(0.957041 -0.107464 0)
(0.976252 -0.0881113 0)
(0.981225 -0.0682497 0)
(0.985627 -0.0549881 0)
(0.981365 -0.0338604 0)
(0.978519 -0.0408851 0)
(0.966449 -0.00923599 0)
(0.962601 -0.0371525 0)
(0.946168 0.0143201 0)
(0.947129 -0.175954 0)
(0.983182 -0.121085 0)
(1.00183 -0.0990365 0)
(0.999025 -0.0668461 0)
(1.00055 -0.0573912 0)
(0.991317 -0.0320726 0)
(0.985688 -0.0388964 0)
(0.970985 -0.00735512 0)
(0.964932 -0.0346344 0)
(0.94857 0.0149531 0)
(0.990786 -0.162972 0)
(1.0042 -0.117164 4.50332e-21)
(1.00364 -0.103592 -2.79578e-21)
(1.00332 -0.0685328 -6.46415e-22)
(0.994217 -0.054316 0)
(0.984618 -0.0309571 0)
(0.977632 -0.0372039 0)
(0.964915 -0.00668351 -2.24063e-22)
(0.960317 -0.0345827 2.46693e-22)
(0.947386 0.0176106 -3.41516e-22)
(1.04791 -0.107249 8.58329e-21)
(1.04565 -0.0917922 9.47573e-23)
(1.03222 -0.0587198 -3.01951e-21)
(1.02713 -0.048757 8.60617e-23)
(1.01525 -0.0382817 0)
(1.00018 -0.0217446 -8.02293e-23)
(0.991554 -0.0315678 -5.92845e-22)
(0.974537 -0.00189074 9.43159e-22)
(0.968436 -0.0319438 -3.6115e-22)
(0.953573 0.0193868 0)
(1.10056 -0.109711 -6.31643e-21)
(1.08196 -0.0989426 5.10627e-21)
(1.05904 -0.0705162 0)
(1.03226 -0.0511589 -8.17342e-23)
(1.01541 -0.0364176 4.49753e-22)
(0.996804 -0.0184317 -2.88176e-22)
(0.986591 -0.0275635 1.06036e-22)
(0.970863 0.00147775 1.10041e-22)
(0.966287 -0.0312961 1.77157e-22)
(0.952426 0.0214553 0)
)
;

boundaryField
{
    outlet
    {
        type            zeroGradient;
    }
    upperWall
    {
        type            symmetryPlane;
    }
    lowerWall
    {
        type            symmetryPlane;
    }
    inlet
    {
        type            fixedValue;
        value           uniform (0.9848 0.1736 0);
    }
    cylinder
    {
        type            fixedValue;
        value           uniform (0 0 0);
    }
    frontAndBack
    {
        type            empty;
    }
}


// ************************************************************************* //
