/*--------------------------------*- C++ -*----------------------------------*\
| =========                 |                                                 |
| \\      /  F ield         | OpenFOAM: The Open Source CFD Toolbox           |
|  \\    /   O peration     | Version:  2312                                  |
|   \\  /    A nd           | Website:  www.openfoam.com                      |
|    \\/     M anipulation  |                                                 |
\*---------------------------------------------------------------------------*/
FoamFile
{
    version     2.0;
    format      ascii;
    arch        "LSB;label=32;scalar=64";
    class       volScalarField;
    location    "36";
    object      p;
}
// * * * * * * * * * * * * * * * * * * * * * * * * * * * * * * * * * * * * * //

dimensions      [0 2 -2 0 0 0 0];

internalField   nonuniform List<scalar> 
13248
(
-0.327033
-0.326624
-0.325133
-0.32277
-0.319895
-0.316897
-0.314226
-0.312302
-0.311456
-0.311894
-0.313687
-0.316768
-0.320953
-0.325961
-0.33144
-0.337001
-0.34222
-0.346763
-0.350165
-0.352431
-0.352823
-0.351953
-0.348095
-0.342141
-0.328663
-0.328337
-0.326785
-0.324307
-0.32133
-0.318206
-0.31536
-0.313178
-0.311945
-0.311815
-0.312793
-0.314749
-0.317437
-0.320534
-0.323671
-0.326486
-0.328644
-0.329892
-0.330043
-0.329004
-0.326636
-0.32306
-0.317872
-0.312703
-0.332079
-0.331571
-0.329837
-0.327267
-0.324222
-0.32104
-0.318071
-0.315619
-0.313888
-0.312951
-0.312755
-0.313135
-0.313839
-0.314578
-0.315064
-0.315066
-0.314405
-0.313028
-0.310844
-0.307929
-0.304124
-0.299595
-0.294204
-0.288789
-0.337382
-0.336398
-0.334342
-0.331571
-0.328393
-0.325083
-0.321886
-0.318986
-0.316479
-0.314376
-0.312604
-0.311022
-0.309453
-0.307724
-0.305706
-0.303319
-0.300539
-0.29734
-0.293692
-0.289575
-0.284853
-0.27971
-0.273923
-0.268495
-0.344543
-0.342791
-0.340232
-0.337092
-0.333626
-0.330013
-0.326353
-0.322687
-0.319025
-0.315365
-0.311685
-0.307949
-0.304117
-0.300169
-0.296098
-0.291903
-0.287557
-0.283023
-0.278247
-0.27319
-0.267798
-0.26217
-0.256191
-0.250633
-0.353531
-0.350794
-0.347536
-0.34386
-0.339907
-0.335718
-0.331218
-0.326333
-0.321063
-0.315487
-0.309714
-0.303855
-0.298001
-0.292212
-0.28651
-0.280879
-0.275283
-0.269673
-0.264004
-0.258237
-0.252331
-0.246332
-0.24015
-0.234375
-0.364459
-0.36055
-0.356459
-0.352086
-0.347381
-0.342191
-0.336299
-0.329626
-0.322297
-0.314563
-0.306689
-0.298888
-0.291296
-0.283974
-0.276923
-0.270114
-0.263496
-0.257018
-0.250628
-0.244279
-0.237945
-0.231619
-0.225268
-0.2193
-0.377489
-0.372271
-0.367251
-0.361986
-0.356119
-0.349304
-0.341323
-0.332288
-0.322567
-0.312592
-0.302722
-0.293183
-0.284086
-0.275456
-0.267266
-0.259462
-0.251985
-0.244776
-0.237781
-0.230956
-0.22427
-0.217687
-0.211218
-0.205078
-0.392697
-0.386085
-0.380029
-0.373559
-0.365914
-0.35668
-0.345903
-0.334065
-0.321792
-0.30962
-0.297899
-0.286801
-0.276377
-0.2666
-0.257415
-0.248752
-0.240543
-0.232722
-0.225233
-0.218022
-0.211048
-0.204265
-0.197704
-0.191403
-0.409924
-0.401883
-0.394609
-0.386424
-0.376175
-0.363683
-0.349547
-0.334667
-0.319835
-0.305574
-0.292144
-0.279626
-0.267999
-0.257195
-0.247133
-0.237727
-0.228899
-0.220575
-0.212686
-0.205175
-0.197984
-0.191069
-0.184437
-0.178001
-0.428662
-0.419202
-0.410395
-0.399738
-0.385927
-0.369438
-0.351586
-0.333602
-0.316294
-0.300066
-0.28505
-0.271226
-0.25851
-0.246794
-0.23597
-0.225937
-0.216602
-0.207883
-0.199703
-0.191991
-0.184682
-0.177723
-0.171076
-0.164595
-0.448044
-0.437211
-0.426391
-0.412283
-0.393938
-0.372897
-0.351171
-0.330141
-0.310489
-0.292439
-0.275978
-0.260987
-0.247319
-0.234829
-0.22338
-0.212854
-0.203143
-0.194152
-0.185798
-0.178002
-0.170694
-0.163816
-0.157294
-0.150999
-0.30467
-0.305224
-0.305309
-0.305492
-0.30614
-0.307394
-0.309285
-0.311803
-0.314932
-0.318666
-0.323006
-0.327962
-0.333548
-0.339777
-0.346661
-0.354208
-0.362414
-0.371263
-0.380724
-0.390739
-0.401236
-0.412142
-0.423352
-0.434545
-0.311849
-0.31184
-0.31171
-0.311852
-0.312579
-0.314043
-0.316286
-0.319304
-0.323091
-0.327653
-0.333007
-0.339176
-0.346188
-0.354066
-0.362829
-0.372485
-0.383026
-0.394424
-0.406625
-0.419546
-0.433083
-0.447125
-0.461472
-0.47569
-0.318281
-0.317684
-0.317334
-0.317399
-0.318145
-0.319741
-0.32223
-0.325614
-0.329892
-0.335077
-0.341192
-0.348268
-0.356338
-0.36543
-0.375563
-0.386741
-0.398948
-0.412142
-0.426253
-0.441176
-0.456772
-0.472882
-0.489246
-0.505528
-0.323562
-0.32241
-0.321811
-0.321751
-0.322434
-0.324034
-0.326613
-0.330177
-0.334727
-0.340276
-0.346849
-0.354477
-0.363195
-0.373029
-0.383994
-0.396088
-0.409285
-0.423535
-0.438754
-0.454817
-0.471561
-0.488757
-0.506109
-0.523054
-0.327444
-0.325828
-0.324971
-0.324718
-0.325217
-0.326662
-0.329137
-0.332658
-0.33723
-0.342862
-0.349577
-0.357404
-0.366371
-0.3765
-0.3878
-0.400262
-0.413855
-0.428521
-0.444171
-0.460671
-0.477871
-0.495454
-0.513373
-0.530436
-0.329868
-0.327925
-0.326823
-0.326307
-0.326491
-0.327598
-0.329747
-0.332979
-0.337307
-0.342743
-0.349301
-0.357004
-0.365873
-0.37592
-0.387147
-0.399535
-0.413048
-0.427614
-0.443165
-0.459505
-0.476644
-0.493884
-0.511955
-0.528312
-0.330945
-0.328847
-0.327535
-0.326703
-0.326453
-0.327041
-0.328639
-0.33133
-0.335153
-0.340125
-0.346261
-0.35357
-0.362063
-0.371742
-0.382595
-0.394592
-0.407692
-0.421774
-0.436865
-0.452518
-0.469182
-0.485312
-0.502969
-0.517663
-0.330919
-0.328853
-0.327389
-0.326219
-0.325449
-0.325372
-0.326224
-0.32815
-0.331232
-0.335509
-0.340999
-0.347706
-0.355626
-0.364745
-0.375041
-0.386473
-0.399026
-0.412317
-0.426737
-0.441391
-0.457482
-0.472045
-0.488503
-0.500741
-0.330115
-0.328254
-0.326711
-0.325217
-0.323893
-0.323071
-0.323054
-0.32406
-0.326231
-0.329645
-0.334335
-0.340304
-0.347537
-0.356
-0.365631
-0.376332
-0.388112
-0.400818
-0.414571
-0.428128
-0.443087
-0.455975
-0.47041
-0.480073
-0.328896
-0.32738
-0.325824
-0.324043
-0.32219
-0.320628
-0.31972
-0.319761
-0.32096
-0.323447
-0.327281
-0.332477
-0.338992
-0.346783
-0.355799
-0.3659
-0.376967
-0.38865
-0.401079
-0.413204
-0.426085
-0.437151
-0.448765
-0.455626
-0.327664
-0.326565
-0.325038
-0.323016
-0.320703
-0.318486
-0.316776
-0.315933
-0.316234
-0.317859
-0.320892
-0.325357
-0.331233
-0.338402
-0.346689
-0.355878
-0.365698
-0.37585
-0.386031
-0.395804
-0.405282
-0.413478
-0.42156
-0.42553
-0.326874
-0.326179
-0.324685
-0.322466
-0.319797
-0.317077
-0.314749
-0.313221
-0.312815
-0.31375
-0.316138
-0.319972
-0.32514
-0.331449
-0.33863
-0.346374
-0.354265
-0.362015
-0.369031
-0.375274
-0.380112
-0.383788
-0.386697
-0.388095
-0.447285
-0.459873
-0.470506
-0.478248
-0.482609
-0.482842
-0.478526
-0.469734
-0.457341
-0.443003
-0.428913
-0.417534
-0.411311
-0.412018
-0.419882
-0.43337
-0.449293
-0.463669
-0.472458
-0.468362
-0.44102
-0.384779
-0.308654
-0.230749
-0.164859
-0.115786
-0.0812222
-0.0570796
-0.0400171
-0.0281733
-0.0206046
-0.0165761
-0.0146151
-0.0136331
-0.0129332
-0.0122692
-0.0116855
-0.0110737
-0.0104549
-0.00980584
-0.00917704
-0.00855391
-0.00792752
-0.00727395
-0.00658428
-0.00586063
-0.00512092
-0.00439858
-0.00372451
-0.00311699
-0.00259891
-0.00217185
-0.00183991
-0.00154109
-0.00128553
-0.000996652
-0.000758583
-0.000465683
-0.000269722
-2.24369e-05
-0.492183
-0.506662
-0.518625
-0.526576
-0.530441
-0.52888
-0.52115
-0.507001
-0.487351
-0.463949
-0.438905
-0.415214
-0.396192
-0.384894
-0.38304
-0.39004
-0.402828
-0.416823
-0.426274
-0.424909
-0.401466
-0.351755
-0.284023
-0.213613
-0.153778
-0.108973
-0.0774123
-0.0556178
-0.0406845
-0.0308288
-0.0251606
-0.0222735
-0.020343
-0.0185852
-0.0168109
-0.0151627
-0.0138141
-0.0126509
-0.0116461
-0.0107273
-0.00989579
-0.00910887
-0.00834424
-0.00757211
-0.00678584
-0.00598527
-0.00518819
-0.00442353
-0.00372159
-0.00309649
-0.00256961
-0.00213708
-0.00180203
-0.00150486
-0.00124932
-0.000969135
-0.000731366
-0.000453143
-0.000256713
-2.81457e-05
-0.525461
-0.541093
-0.554411
-0.562669
-0.566375
-0.563737
-0.553513
-0.534922
-0.509239
-0.478097
-0.443189
-0.40858
-0.377604
-0.354362
-0.341541
-0.339863
-0.347621
-0.359941
-0.37003
-0.371411
-0.35427
-0.313873
-0.256353
-0.195437
-0.142691
-0.102709
-0.0745853
-0.0557081
-0.0432609
-0.0357098
-0.0318184
-0.0294516
-0.0269112
-0.0238155
-0.0207187
-0.0179947
-0.015865
-0.0141626
-0.0127931
-0.0116244
-0.0106079
-0.00967085
-0.00877925
-0.00789684
-0.00701965
-0.00614511
-0.00529178
-0.004484
-0.00375161
-0.00310545
-0.00256518
-0.00212294
-0.00178064
-0.00148133
-0.00122308
-0.000949088
-0.000710213
-0.000444626
-0.000246733
-3.42982e-05
-0.543606
-0.560626
-0.57676
-0.586498
-0.590395
-0.587269
-0.575339
-0.552643
-0.521956
-0.483739
-0.440028
-0.397073
-0.355586
-0.321016
-0.297542
-0.286
-0.286507
-0.295254
-0.305446
-0.310041
-0.298859
-0.270438
-0.225688
-0.175845
-0.131381
-0.0971769
-0.0732088
-0.057715
-0.0480011
-0.0429364
-0.0404444
-0.0379748
-0.034148
-0.0292832
-0.0246396
-0.0207764
-0.0178449
-0.0156103
-0.0138965
-0.0124979
-0.0113139
-0.0102403
-0.00923253
-0.00824754
-0.00728451
-0.00633837
-0.00542943
-0.00457748
-0.00381229
-0.00314171
-0.00258377
-0.00212784
-0.00177425
-0.00146933
-0.00120582
-0.000935507
-0.00069436
-0.000439185
-0.000239286
-4.03342e-05
-0.551992
-0.572197
-0.588668
-0.599517
-0.604189
-0.600703
-0.587276
-0.562622
-0.527212
-0.482303
-0.429697
-0.383443
-0.332315
-0.2873
-0.25444
-0.232223
-0.224112
-0.226586
-0.235298
-0.243077
-0.242478
-0.222066
-0.191271
-0.153698
-0.118921
-0.0918261
-0.0727821
-0.0611354
-0.0546496
-0.0522024
-0.0508135
-0.0476459
-0.0417774
-0.0349102
-0.0285903
-0.0235155
-0.0197622
-0.0170039
-0.0149631
-0.0133518
-0.0120158
-0.0108184
-0.00970458
-0.00862401
-0.00757945
-0.00656336
-0.00559885
-0.00470125
-0.00390096
-0.00320271
-0.00262344
-0.00215015
-0.00178173
-0.001468
-0.00119686
-0.000927766
-0.000683281
-0.000436222
-0.000233993
-4.59869e-05
-0.54976
-0.571607
-0.589846
-0.601934
-0.607452
-0.604383
-0.590445
-0.564311
-0.526047
-0.477238
-0.421319
-0.365052
-0.308353
-0.254816
-0.217855
-0.184037
-0.166607
-0.15985
-0.164156
-0.171975
-0.177835
-0.169814
-0.15301
-0.128678
-0.104549
-0.0857104
-0.07207
-0.0649527
-0.0625294
-0.0629854
-0.0625517
-0.0581003
-0.0495687
-0.0406323
-0.0325392
-0.026206
-0.0216273
-0.0183561
-0.016001
-0.0141897
-0.0127142
-0.0114042
-0.010194
-0.0090248
-0.00790301
-0.0068185
-0.00579823
-0.00485323
-0.00401545
-0.00328628
-0.0026824
-0.00218835
-0.00180212
-0.00147655
-0.00119576
-0.000925396
-0.000676637
-0.000435344
-0.000230599
-5.11453e-05
-0.53668
-0.558454
-0.578458
-0.592227
-0.598697
-0.596399
-0.583075
-0.557101
-0.518311
-0.468219
-0.410239
-0.349407
-0.288892
-0.232919
-0.186207
-0.144259
-0.121868
-0.10285
-0.0995915
-0.102899
-0.110931
-0.114839
-0.107941
-0.0984957
-0.0857129
-0.076385
-0.069318
-0.0681026
-0.0709817
-0.0747217
-0.0750871
-0.0688438
-0.0580439
-0.0463678
-0.0364236
-0.0288329
-0.0234484
-0.0196791
-0.0170191
-0.0150159
-0.0134091
-0.0119955
-0.010697
-0.00944588
-0.00825128
-0.00710029
-0.00602448
-0.00503066
-0.00415334
-0.00339025
-0.00275895
-0.002241
-0.00183451
-0.00149427
-0.00120211
-0.000927961
-0.000674163
-0.000436239
-0.000228937
-5.57427e-05
-0.515375
-0.535198
-0.555314
-0.571783
-0.578853
-0.577396
-0.565328
-0.540883
-0.503823
-0.455457
-0.398745
-0.337812
-0.276306
-0.218302
-0.166911
-0.122561
-0.0889161
-0.0611224
-0.0504514
-0.0441074
-0.0485325
-0.05477
-0.0585498
-0.0596438
-0.0592406
-0.0605266
-0.0628825
-0.0691674
-0.0789128
-0.0865815
-0.0875958
-0.0790031
-0.0658251
-0.0518856
-0.040182
-0.0313885
-0.0252309
-0.0209798
-0.0180223
-0.0158326
-0.0141007
-0.0125907
-0.011211
-0.00988367
-0.00862024
-0.00740466
-0.00627366
-0.00522993
-0.00431147
-0.00351196
-0.00285097
-0.00230642
-0.0018778
-0.00152032
-0.00121543
-0.000934982
-0.000675576
-0.000438587
-0.000228854
-5.96693e-05
-0.489539
-0.505401
-0.527204
-0.54273
-0.549385
-0.548896
-0.538834
-0.517312
-0.484001
-0.439901
-0.387465
-0.330132
-0.271257
-0.213991
-0.160622
-0.113014
-0.0730763
-0.0400411
-0.0175565
-0.00195206
0.000253722
-0.00198797
-0.00887673
-0.0166773
-0.0267565
-0.0385343
-0.0518126
-0.0676225
-0.0858731
-0.0977754
-0.099223
-0.0883377
-0.0731025
-0.0570936
-0.0437701
-0.033856
-0.0269681
-0.0222557
-0.0190109
-0.0166417
-0.0147915
-0.0131929
-0.011739
-0.0103413
-0.00901254
-0.00773357
-0.00654699
-0.00545133
-0.0044895
-0.00365056
-0.00295752
-0.00238358
-0.00193119
-0.00155404
-0.00123533
-0.000946091
-0.00068066
-0.000442113
-0.000230222
-6.27111e-05
-0.459412
-0.470408
-0.490431
-0.504618
-0.510868
-0.511397
-0.503615
-0.485874
-0.45779
-0.419964
-0.374228
-0.323267
-0.269918
-0.21685
-0.165614
-0.117596
-0.0743201
-0.0368422
-0.00717828
0.015646
0.0289101
0.0339916
0.0295667
0.0206745
0.00676377
-0.0130543
-0.0368508
-0.0628885
-0.0896539
-0.106537
-0.108678
-0.0966838
-0.0794579
-0.0617412
-0.0470736
-0.036206
-0.028669
-0.0235299
-0.0200096
-0.0174642
-0.0154976
-0.0138145
-0.0122915
-0.0108286
-0.00943795
-0.0080965
-0.00685332
-0.0057025
-0.00469374
-0.00381066
-0.00308201
-0.00247456
-0.00199607
-0.00159612
-0.00126236
-0.000961528
-0.00068969
-0.000446848
-0.000233148
-6.45837e-05
-0.424677
-0.43397
-0.451115
-0.46263
-0.469679
-0.472474
-0.467973
-0.454925
-0.432719
-0.401474
-0.36244
-0.31757
-0.269169
-0.219618
-0.171132
-0.12491
-0.0811367
-0.0412139
-0.00700802
0.0213543
0.0415604
0.0541311
0.0555012
0.0481334
0.0339531
0.0100461
-0.0222154
-0.0579578
-0.0923577
-0.113178
-0.116032
-0.104105
-0.084983
-0.0659767
-0.0503117
-0.0386484
-0.0304984
-0.0249153
-0.021088
-0.0183386
-0.0162362
-0.0144596
-0.0128643
-0.0113379
-0.00988731
-0.00848529
-0.00718587
-0.00597887
-0.00492155
-0.00399115
-0.00322436
-0.00257974
-0.0020731
-0.00164688
-0.00129682
-0.000981289
-0.000702876
-0.000452807
-0.000237933
-6.49551e-05
-0.389599
-0.400044
-0.411013
-0.417253
-0.422155
-0.42566
-0.42426
-0.416899
-0.402388
-0.38021
-0.350859
-0.315423
-0.275349
-0.232254
-0.18791
-0.14396
-0.101616
-0.0619119
-0.0255738
0.00628322
0.0324425
0.0515671
0.0608777
0.060301
0.0498717
0.0277349
-0.00674201
-0.0482242
-0.0879016
-0.113484
-0.118254
-0.107232
-0.0889359
-0.0697297
-0.0534083
-0.0410243
-0.0322536
-0.0262175
-0.0220821
-0.0191388
-0.0169086
-0.0150469
-0.013382
-0.0117963
-0.0102877
-0.00883078
-0.00748018
-0.00622486
-0.00512622
-0.00415603
-0.0033569
-0.00267955
-0.00214826
-0.00169712
-0.00133205
-0.00100088
-0.00071695
-0.000458127
-0.000243679
-6.31659e-05
-0.36201
-0.381059
-0.389623
-0.39381
-0.396443
-0.395993
-0.39301
-0.385865
-0.372695
-0.352706
-0.326246
-0.2943
-0.258123
-0.219148
-0.178853
-0.138561
-0.0992875
-0.0619993
-0.0274725
0.00360852
0.0303662
0.0511255
0.0620778
0.0638823
0.056424
0.0367166
0.00167559
-0.0441024
-0.0879552
-0.115124
-0.120547
-0.108364
-0.0889613
-0.0694561
-0.0532403
-0.0410808
-0.0324881
-0.0265692
-0.0225
-0.0195931
-0.0173695
-0.0154948
-0.013795
-0.0121652
-0.010604
-0.00909789
-0.00770036
-0.00640578
-0.00527319
-0.00427522
-0.00345174
-0.00275229
-0.00220268
-0.00173452
-0.0013578
-0.00101484
-0.000726479
-0.000460938
-0.000247903
-5.96585e-05
-0.334793
-0.356754
-0.365177
-0.365712
-0.363817
-0.362512
-0.359273
-0.352166
-0.339754
-0.321504
-0.297788
-0.269483
-0.237603
-0.203219
-0.167416
-0.131252
-0.0957168
-0.0616367
-0.0296665
-0.000325388
0.024869
0.0442849
0.0554838
0.0576944
0.0507004
0.032055
-0.00152486
-0.0459618
-0.0878775
-0.112658
-0.114383
-0.103242
-0.0850434
-0.0669421
-0.0519628
-0.0406503
-0.0325374
-0.0268525
-0.0228772
-0.0199986
-0.0177736
-0.0158854
-0.0141639
-0.0125084
-0.010916
-0.0093784
-0.00794631
-0.00662057
-0.0054552
-0.00442908
-0.00357613
-0.00285194
-0.00227713
-0.00178896
-0.00139412
-0.00103842
-0.000740638
-0.000468634
-0.000252741
-5.85038e-05
-0.308894
-0.330788
-0.339058
-0.338695
-0.336214
-0.333086
-0.329021
-0.322053
-0.310794
-0.294688
-0.273924
-0.249148
-0.221144
-0.190741
-0.158822
-0.126299
-0.09409
-0.0630016
-0.0336702
-0.00710027
0.0163427
0.0344598
0.0452218
0.047352
0.0405714
0.0229546
-0.00805236
-0.0482134
-0.0850164
-0.105878
-0.107146
-0.0964999
-0.0802436
-0.0641181
-0.0505973
-0.0401781
-0.0325455
-0.0270985
-0.0232298
-0.0203953
-0.0181831
-0.0162921
-0.0145558
-0.0128774
-0.0112537
-0.00968224
-0.00821304
-0.00685285
-0.00565229
-0.00459558
-0.00371153
-0.00296075
-0.00235922
-0.00184951
-0.00143524
-0.00106565
-0.00075722
-0.000477982
-0.000257968
-5.83472e-05
-0.285269
-0.305222
-0.313296
-0.312967
-0.309737
-0.305866
-0.301263
-0.294538
-0.284389
-0.270173
-0.251918
-0.230125
-0.20545
-0.178593
-0.150293
-0.121295
-0.0923935
-0.0643572
-0.0378326
-0.0136608
0.00737369
0.0237802
0.0337292
0.0358118
0.0296262
0.0138799
-0.0129672
-0.0469988
-0.077891
-0.0957477
-0.0969515
-0.0879893
-0.0743991
-0.060658
-0.0488302
-0.0394619
-0.0324158
-0.0272718
-0.0235465
-0.0207751
-0.0185855
-0.0166977
-0.0149515
-0.0132547
-0.0116043
-0.010002
-0.00849763
-0.00710317
-0.00586687
-0.0047777
-0.00386078
-0.00308101
-0.00245089
-0.0019175
-0.00148223
-0.001097
-0.000776748
-0.000489067
-0.000263952
-5.90147e-05
-0.26251
-0.280659
-0.288436
-0.288218
-0.284727
-0.280482
-0.275709
-0.269357
-0.260252
-0.247739
-0.231755
-0.212682
-0.191074
-0.167507
-0.142578
-0.116901
-0.0911608
-0.066061
-0.0422463
-0.0205411
-0.00174949
0.0129778
0.0221298
0.0243929
0.0193367
0.00627289
-0.0155682
-0.0430514
-0.0682022
-0.0829629
-0.085423
-0.0789256
-0.0683097
-0.057067
-0.0469663
-0.0386641
-0.0322215
-0.0273983
-0.0238326
-0.0211368
-0.0189796
-0.0171027
-0.015353
-0.013643
-0.0119694
-0.0103386
-0.00880018
-0.00737128
-0.00609858
-0.0049754
-0.00402403
-0.00321327
-0.00255276
-0.00199368
-0.00153569
-0.00113314
-0.000799653
-0.00050232
-0.000270936
-6.0528e-05
-0.240874
-0.257496
-0.264756
-0.264595
-0.261185
-0.256935
-0.252238
-0.246316
-0.238185
-0.22722
-0.213299
-0.196698
-0.177868
-0.157284
-0.135442
-0.112855
-0.0901023
-0.0678234
-0.0466359
-0.027274
-0.0105457
0.00264893
0.0111192
0.0137373
0.0100812
-0.000147889
-0.0171779
-0.0386129
-0.0586422
-0.07119
-0.0744408
-0.0703716
-0.0624907
-0.0535139
-0.0450222
-0.0377606
-0.0319399
-0.0274647
-0.0240813
-0.0214771
-0.0193629
-0.0175047
-0.0157576
-0.0140396
-0.0123472
-0.0106908
-0.00912031
-0.00765739
-0.0063479
-0.00518932
-0.00420195
-0.00335815
-0.00266537
-0.00207856
-0.00159605
-0.00117445
-0.000826182
-0.000517984
-0.00027903
-6.28154e-05
-0.220766
-0.235728
-0.242377
-0.242302
-0.239134
-0.235085
-0.230615
-0.225191
-0.217974
-0.208416
-0.196366
-0.182001
-0.165681
-0.147804
-0.128783
-0.10905
-0.0890906
-0.0694661
-0.0507546
-0.0336124
-0.0187533
-0.00693375
0.00092319
0.00390424
0.00162752
-0.00597095
-0.0187895
-0.0350771
-0.0507456
-0.0612658
-0.0649675
-0.0628072
-0.0571577
-0.0501265
-0.0430916
-0.0368146
-0.0316066
-0.0274871
-0.0242979
-0.0217961
-0.019734
-0.0179017
-0.0161637
-0.0144433
-0.0127368
-0.0110581
-0.00945761
-0.00796136
-0.00661491
-0.00541975
-0.00439489
-0.00351611
-0.00278918
-0.0021726
-0.00166371
-0.00122129
-0.000856581
-0.000536254
-0.000288345
-6.57935e-05
-0.201872
-0.215255
-0.221354
-0.221398
-0.218543
-0.214811
-0.210661
-0.205758
-0.199429
-0.191166
-0.180799
-0.168448
-0.154391
-0.138962
-0.122506
-0.105385
-0.0880074
-0.070862
-0.0544567
-0.0393628
-0.0262096
-0.0156364
-0.00835188
-0.00506546
-0.00610599
-0.0114323
-0.0208027
-0.0329399
-0.0449671
-0.053617
-0.0572725
-0.0563848
-0.0524431
-0.0470051
-0.0412286
-0.0358462
-0.0312243
-0.0274625
-0.0244787
-0.0220907
-0.0200904
-0.0182919
-0.0165696
-0.0148523
-0.0131366
-0.0114394
-0.00981138
-0.0082829
-0.00689956
-0.00566689
-0.00460317
-0.00368756
-0.00292459
-0.00227622
-0.00173902
-0.00127399
-0.000891095
-0.000557307
-0.000299004
-6.94008e-05
-0.184072
-0.196121
-0.201733
-0.201893
-0.199362
-0.195995
-0.192278
-0.187912
-0.182402
-0.175303
-0.16645
-0.155905
-0.143884
-0.13066
-0.116519
-0.101768
-0.0867552
-0.0718925
-0.0576036
-0.0443914
-0.0327936
-0.0233491
-0.016605
-0.0130984
-0.0131098
-0.0165765
-0.0231978
-0.0320096
-0.0410163
-0.0479046
-0.0512198
-0.051079
-0.0483608
-0.0441753
-0.0394614
-0.0348808
-0.0308114
-0.027402
-0.024629
-0.0223627
-0.0204318
-0.0186737
-0.0169733
-0.0152649
-0.0135451
-0.0118333
-0.0101807
-0.00862144
-0.00720158
-0.00593073
-0.00482693
-0.00387277
-0.00307193
-0.00238978
-0.00182231
-0.00133283
-0.00092995
-0.000581285
-0.000311128
-7.35956e-05
-0.167509
-0.178332
-0.183478
-0.183745
-0.181545
-0.178564
-0.175305
-0.171543
-0.16679
-0.160711
-0.153204
-0.144264
-0.134058
-0.122806
-0.110746
-0.0981334
-0.0852625
-0.0724523
-0.0600987
-0.0486043
-0.0384238
-0.0300063
-0.0237803
-0.0201486
-0.0193429
-0.0213054
-0.0257392
-0.0319169
-0.0384615
-0.0437533
-0.0465513
-0.0467675
-0.0448847
-0.0416629
-0.0378288
-0.0339489
-0.030385
-0.0273124
-0.0247497
-0.0226105
-0.0207559
-0.019045
-0.0173728
-0.0156791
-0.0139605
-0.0122385
-0.0105644
-0.00897622
-0.00752053
-0.00621109
-0.00506617
-0.0040719
-0.00323141
-0.00251354
-0.00191384
-0.00139804
-0.000973343
-0.000608301
-0.000324827
-7.83493e-05
-0.152132
-0.161798
-0.166514
-0.166894
-0.165027
-0.162436
-0.159619
-0.156418
-0.152431
-0.147348
-0.140997
-0.13345
-0.124837
-0.115336
-0.105129
-0.0944275
-0.0834624
-0.0725154
-0.0618995
-0.0519596
-0.0430648
-0.0355836
-0.0298564
-0.0261861
-0.0247581
-0.0255308
-0.0282506
-0.0323668
-0.036912
-0.0408056
-0.0430118
-0.0433277
-0.0419849
-0.0394788
-0.0363504
-0.0330663
-0.0299554
-0.0271994
-0.0248441
-0.0228357
-0.0210631
-0.0194051
-0.0177668
-0.0160931
-0.0143808
-0.012653
-0.010961
-0.00934611
-0.00785564
-0.00650756
-0.00532071
-0.00428491
-0.00340309
-0.00264763
-0.00201377
-0.00146978
-0.00102142
-0.000638442
-0.000340192
-8.36443e-05
-0.137812
-0.146455
-0.150793
-0.151286
-0.149741
-0.147528
-0.145134
-0.142453
-0.13915
-0.134935
-0.129669
-0.123382
-0.116182
-0.108213
-0.0996352
-0.0906186
-0.0813512
-0.0720565
-0.0629948
-0.0544481
-0.0467123
-0.0400868
-0.0348451
-0.0312152
-0.029342
-0.029207
-0.0306116
-0.0331321
-0.0360244
-0.0387828
-0.0403852
-0.0406332
-0.0396053
-0.0376091
-0.0350332
-0.0322477
-0.0295365
-0.0270732
-0.0249175
-0.0230399
-0.0213527
-0.0197523
-0.018153
-0.0165047
-0.014804
-0.0130751
-0.011369
-0.00972982
-0.00820597
-0.00681949
-0.00559018
-0.00451164
-0.00358694
-0.00279207
-0.00212214
-0.00154808
-0.00107423
-0.000671727
-0.000357279
-8.94784e-05
-0.12453
-0.132271
-0.136264
-0.13686
-0.135616
-0.133763
-0.131765
-0.129561
-0.126867
-0.123428
-0.119117
-0.11394
-0.107983
-0.101368
-0.0942229
-0.0866856
-0.0789108
-0.0710777
-0.0633939
-0.0560874
-0.0493951
-0.0435567
-0.0387904
-0.035269
-0.0331072
-0.0323068
-0.0327256
-0.0340665
-0.0359147
-0.037486
-0.0384761
-0.0385506
-0.0376782
-0.036033
-0.0338813
-0.0315049
-0.0291387
-0.0269395
-0.0249722
-0.0232236
-0.0216243
-0.0200857
-0.0185303
-0.0169123
-0.0152281
-0.0135027
-0.0117863
-0.0101258
-0.00857022
-0.00714591
-0.00587386
-0.0047516
-0.00378266
-0.00294671
-0.00223889
-0.00163291
-0.00113176
-0.000708108
-0.000376068
-9.58398e-05
-0.112263
-0.119181
-0.122855
-0.123542
-0.122579
-0.12106
-0.11943
-0.117656
-0.115505
-0.11275
-0.109272
-0.105064
-0.100194
-0.094758
-0.0888631
-0.0826191
-0.0761507
-0.0695998
-0.0631299
-0.0569238
-0.0511694
-0.0460541
-0.0417516
-0.0383962
-0.0360803
-0.0348179
-0.0345096
-0.0349372
-0.0358005
-0.0366247
-0.0370946
-0.0369552
-0.0361363
-0.0347228
-0.0328884
-0.0308404
-0.0287668
-0.0268031
-0.0250118
-0.023389
-0.0218788
-0.0204048
-0.0188971
-0.0173137
-0.0156508
-0.0139335
-0.012211
-0.0105322
-0.00894699
-0.0074857
-0.00617088
-0.00500411
-0.00398971
-0.00311111
-0.00236371
-0.00172403
-0.0011939
-0.000747521
-0.000396527
-0.000102693
-0.100931
-0.107108
-0.110492
-0.11126
-0.110553
-0.109344
-0.108047
-0.106659
-0.104985
-0.102825
-0.100069
-0.0967011
-0.0927716
-0.088358
-0.0835466
-0.0784253
-0.0730925
-0.0676597
-0.0622549
-0.0570206
-0.052105
-0.0476535
-0.0438033
-0.0406619
-0.0383019
-0.0367447
-0.0359267
-0.0356928
-0.0358381
-0.0360572
-0.0360907
-0.0357357
-0.0349088
-0.0336403
-0.0320386
-0.0302515
-0.0284243
-0.0266684
-0.0250393
-0.0235371
-0.0221154
-0.0207083
-0.0192518
-0.0177072
-0.0160702
-0.0143653
-0.0126409
-0.0109471
-0.00933453
-0.00783749
-0.00648019
-0.00526831
-0.00420738
-0.00328465
-0.00249604
-0.00182096
-0.00126022
-0.000789687
-0.000418574
-0.000110046
-0.0904641
-0.0959854
-0.099108
-0.0999449
-0.0994688
-0.0985383
-0.0975412
-0.0964934
-0.0952339
-0.0935882
-0.0914532
-0.0888074
-0.0856866
-0.0821525
-0.0782741
-0.0741213
-0.06977
-0.0653069
-0.0608308
-0.0564511
-0.0522839
-0.0484421
-0.0450322
-0.0421404
-0.0398255
-0.0381093
-0.0369579
-0.0362738
-0.035905
-0.0356579
-0.0353394
-0.0347895
-0.0339244
-0.0327437
-0.0313122
-0.0297316
-0.0281101
-0.026536
-0.0250549
-0.0236677
-0.0223342
-0.0209956
-0.0195933
-0.0180911
-0.016484
-0.014796
-0.0130735
-0.011368
-0.00973065
-0.00819934
-0.00680018
-0.00554297
-0.00443469
-0.00346655
-0.00263523
-0.00192311
-0.00133023
-0.000834122
-0.000441819
-0.000117816
-0.0808127
-0.0857502
-0.088633
-0.0895255
-0.0892537
-0.0885729
-0.0878417
-0.0870907
-0.0861884
-0.0849823
-0.083377
-0.0813469
-0.0789163
-0.0761338
-0.0730539
-0.069731
-0.0662234
-0.0625968
-0.0589269
-0.0552971
-0.0517969
-0.0485135
-0.0455284
-0.0429106
-0.0407098
-0.0389483
-0.037602
-0.036625
-0.0359102
-0.0353255
-0.0347374
-0.0340261
-0.0331162
-0.0319907
-0.0306853
-0.0292686
-0.0278191
-0.026404
-0.0250583
-0.0237808
-0.0225342
-0.0212654
-0.0199198
-0.0184634
-0.0168903
-0.0152232
-0.0135068
-0.0117931
-0.0101334
-0.00856933
-0.00712895
-0.00582626
-0.00467003
-0.00365545
-0.00278017
-0.00202967
-0.00140332
-0.000880528
-0.000466035
-0.000125755
-0.0719174
-0.0763327
-0.0789954
-0.0799315
-0.079839
-0.0793793
-0.0788816
-0.0783872
-0.0777895
-0.0769561
-0.0757992
-0.0742902
-0.0724449
-0.0703003
-0.0678992
-0.0652835
-0.0624972
-0.0595895
-0.0566176
-0.0536441
-0.0507366
-0.0479613
-0.0453816
-0.0430518
-0.0410166
-0.039317
-0.0378709
-0.0367225
-0.0357904
-0.0349818
-0.0342036
-0.0333708
-0.0324231
-0.0313373
-0.0301303
-0.028847
-0.0275432
-0.0262683
-0.025047
-0.0238742
-0.0227139
-0.0215163
-0.02023
-0.0188225
-0.0172868
-0.0156444
-0.0139381
-0.0122196
-0.0105406
-0.00894559
-0.00746482
-0.00611653
-0.0049116
-0.00384952
-0.00292904
-0.00213899
-0.00147819
-0.00092789
-0.000490943
-0.000133983
-0.0637133
-0.067665
-0.0701272
-0.0710959
-0.0711592
-0.0708935
-0.070599
-0.0703246
-0.0699846
-0.0694644
-0.0686838
-0.067613
-0.0662603
-0.0646538
-0.0628267
-0.0608109
-0.0586389
-0.0563469
-0.053977
-0.051576
-0.0491939
-0.0468801
-0.0446822
-0.0426409
-0.0407884
-0.0391354
-0.0377506
-0.0365489
-0.0355059
-0.0345681
-0.0336741
-0.0327642
-0.0317941
-0.030743
-0.0296181
-0.0284481
-0.027271
-0.026122
-0.0250165
-0.0239449
-0.0228709
-0.0217464
-0.0205221
-0.0191666
-0.0176719
-0.0160578
-0.0143649
-0.0126449
-0.0109492
-0.00932525
-0.00780532
-0.00641176
-0.00515776
-0.00404717
-0.00308039
-0.00224946
-0.00155329
-0.000974862
-0.00051512
-0.000142125
-0.0561458
-0.0596863
-0.0619656
-0.0629571
-0.0631541
-0.0630573
-0.0629384
-0.0628509
-0.0627269
-0.0624676
-0.0620006
-0.0612951
-0.0603545
-0.0591993
-0.0578552
-0.0563461
-0.0546958
-0.0529295
-0.0510774
-0.0491735
-0.0472552
-0.0453599
-0.0435227
-0.0417744
-0.0401435
-0.0386499
-0.0373155
-0.0361187
-0.03504
-0.0340456
-0.0330968
-0.0321538
-0.0311853
-0.0301745
-0.0291245
-0.0280544
-0.0269899
-0.025955
-0.0249594
-0.0239878
-0.0230011
-0.0219523
-0.0207933
-0.0194934
-0.0180434
-0.0164612
-0.0147854
-0.0130671
-0.011357
-0.00970554
-0.00814718
-0.0067084
-0.00540512
-0.00424556
-0.00323174
-0.00235952
-0.00162728
-0.00102079
-0.000538463
-0.00014938
-0.0491628
-0.0523378
-0.0544497
-0.0554553
-0.0557664
-0.0558157
-0.0558477
-0.0559182
-0.0559741
-0.0559309
-0.0557232
-0.0553209
-0.054723
-0.0539442
-0.053004
-0.0519205
-0.0507109
-0.049393
-0.0479875
-0.0465174
-0.0450082
-0.0434871
-0.0419835
-0.0405223
-0.039124
-0.0378045
-0.0365779
-0.0354416
-0.0343862
-0.033393
-0.0324383
-0.0314976
-0.0305535
-0.0295954
-0.0286242
-0.0276501
-0.026689
-0.0257614
-0.0248724
-0.0239997
-0.0231019
-0.0221317
-0.0210416
-0.0198009
-0.018399
-0.0168523
-0.015197
-0.0134836
-0.0117618
-0.0100847
-0.00848846
-0.0070041
-0.00565036
-0.00444066
-0.00337894
-0.00246482
-0.00169715
-0.00106297
-0.000559866
-0.000156633
-0.0427138
-0.0455637
-0.0475225
-0.0485348
-0.0489425
-0.0491177
-0.0492787
-0.049482
-0.0496869
-0.0498214
-0.0498272
-0.0496751
-0.0493612
-0.0488955
-0.0482923
-0.0475647
-0.0467246
-0.0457845
-0.0447591
-0.0436658
-0.0425227
-0.0413433
-0.0401447
-0.0389511
-0.0377842
-0.0366526
-0.0355681
-0.0345325
-0.0335463
-0.0325999
-0.0316805
-0.0307751
-0.0298758
-0.0289779
-0.0280862
-0.0272008
-0.0263474
-0.0255313
-0.0247427
-0.0239692
-0.0231625
-0.0222767
-0.0212614
-0.0200854
-0.0187364
-0.017229
-0.0155974
-0.0138914
-0.01216
-0.0104587
-0.00882567
-0.00729581
-0.00589123
-0.00463012
-0.00351944
-0.00256253
-0.00175891
-0.00109861
-0.000575735
-0.000162015
-0.0367596
-0.0393208
-0.0411398
-0.042153
-0.0426422
-0.0429255
-0.0431966
-0.0435111
-0.0438385
-0.0441181
-0.0442984
-0.0443515
-0.0442718
-0.0440657
-0.0437437
-0.0433151
-0.0427876
-0.0421675
-0.0414646
-0.0406887
-0.0398531
-0.0389772
-0.0380735
-0.0371435
-0.0361976
-0.0352584
-0.0343306
-0.0334221
-0.0325339
-0.0316654
-0.0308129
-0.0299711
-0.0291385
-0.0283156
-0.0275182
-0.0267188
-0.0259653
-0.0252524
-0.0245683
-0.0239035
-0.0231885
-0.0223897
-0.0214533
-0.0203465
-0.0190548
-0.0175908
-0.0159862
-0.0142902
-0.0125505
-0.010825
-0.00915435
-0.00757785
-0.00612101
-0.00480808
-0.00364802
-0.00264947
-0.00181125
-0.00112628
-0.00058745
-0.000164311
-0.0312413
-0.0335454
-0.0352362
-0.0362457
-0.0368038
-0.0371803
-0.0375456
-0.0379534
-0.0383815
-0.0387791
-0.0391013
-0.0393219
-0.0394341
-0.0394415
-0.0393526
-0.0391737
-0.0389101
-0.0385666
-0.0381462
-0.0376533
-0.0370949
-0.0364702
-0.035792
-0.0350917
-0.034382
-0.0336399
-0.0328833
-0.0321162
-0.0313497
-0.0305834
-0.0298182
-0.0290542
-0.0282975
-0.0275518
-0.0267963
-0.026125
-0.0254782
-0.0248752