/*--------------------------------*- C++ -*----------------------------------*\
| =========                 |                                                 |
| \\      /  F ield         | OpenFOAM: The Open Source CFD Toolbox           |
|  \\    /   O peration     | Version:  2312                                  |
|   \\  /    A nd           | Website:  www.openfoam.com                      |
|    \\/     M anipulation  |                                                 |
\*---------------------------------------------------------------------------*/
FoamFile
{
    version     2.0;
    format      ascii;
    arch        "LSB;label=32;scalar=64";
    class       volVectorField;
    location    "33";
    object      U;
}
// * * * * * * * * * * * * * * * * * * * * * * * * * * * * * * * * * * * * * //

dimensions      [0 1 -1 0 0 0 0];

internalField   nonuniform List<vector> 
32230
(
(-0.0105337 0.0102314 4.58133e-20)
(-0.0263087 0.0267571 -9.24443e-20)
(-0.0363755 0.0399989 0)
(-0.0408785 0.0500506 -1.26065e-19)
(-0.0400683 0.0572392 4.0088e-20)
(-0.0342184 0.061987 -3.83085e-20)
(-0.0235764 0.0647408 7.2951e-20)
(-0.00830902 0.0659473 -6.13954e-23)
(0.0115288 0.0660341 3.33178e-20)
(0.0360005 0.0653952 -1.27425e-19)
(0.0652746 0.0643852 -6.09816e-20)
(0.0995951 0.0633146 0)
(0.139236 0.0624496 1.1233e-19)
(0.184446 0.0620084 -2.15319e-19)
(0.235376 0.0621664 1.55265e-19)
(0.29202 0.0630499 -1.98887e-19)
(0.354154 0.064731 -4.8196e-20)
(0.421285 0.0672248 9.1761e-20)
(0.49263 0.0704864 8.87487e-20)
(0.567118 0.0744118 -8.49222e-20)
(0.643421 0.0788415 0)
(0.720019 0.08357 -7.86291e-20)
(0.795277 0.0883586 3.79611e-20)
(0.867545 0.0929529 0)
(0.935264 0.0971009 0)
(0.997058 0.100575 -3.23968e-20)
(1.05183 0.103184 -1.24548e-19)
(1.09882 0.1048 1.19265e-19)
(1.13765 0.105336 5.52663e-20)
(1.16833 0.104832 5.22026e-20)
(1.19124 0.10322 0)
(1.20711 0.100922 0)
(1.2167 0.0972506 8.79377e-20)
(1.22146 0.0943098 -1.25062e-19)
(1.22147 0.0875133 7.70594e-20)
(1.21937 0.0869033 -1.45609e-19)
(1.21292 0.0713203 6.89718e-20)
(-0.0106975 0.00941376 1.26193e-22)
(-0.0262427 0.0240702 4.62271e-20)
(-0.0356328 0.0353692 -4.40028e-20)
(-0.038907 0.0436474 2.90911e-25)
(-0.0362304 0.0493581 8.03589e-20)
(-0.0277854 0.0529828 1.53299e-19)
(-0.0137104 0.0549943 -1.82936e-19)
(0.0059487 0.0558487 6.98618e-20)
(0.0312574 0.0559766 5.56287e-23)
(0.0623836 0.055777 6.36711e-20)
(0.0995638 0.0556097 -3.93408e-24)
(0.143046 0.0557894 5.83136e-20)
(0.19302 0.0565827 -1.67802e-19)
(0.249531 0.0581982 5.32094e-20)
(0.312401 0.06078 2.05652e-19)
(0.381161 0.0643976 0)
(0.455003 0.0690388 4.76203e-20)
(0.532774 0.0746069 0)
(0.613006 0.0809232 0)
(0.69398 0.087737 0)
(0.773835 0.094743 -4.06308e-20)
(0.850679 0.101604 1.5427e-19)
(0.922725 0.10798 -1.46744e-19)
(0.98841 0.113554 2.66006e-22)
(1.0465 0.118061 2.34123e-19)
(1.09617 0.121308 -1.27131e-19)
(1.13703 0.123186 -1.20462e-19)
(1.16917 0.123683 2.29343e-19)
(1.19307 0.122857 -2.17651e-19)
(1.20954 0.120874 9.95983e-20)
(1.21966 0.117873 -9.72355e-20)
(1.22459 0.114177 -4.44808e-20)
(1.22553 0.109787 0)
(1.22354 0.105399 1.19675e-19)
(1.21946 0.100013 -1.49324e-19)
(1.21427 0.0970078 1.04846e-19)
(1.2076 0.0890792 -3.1981e-20)
(-0.0109913 0.00876931 -9.2539e-20)
(-0.0261978 0.0217401 0)
(-0.0344975 0.0312112 -1.33047e-19)
(-0.0358928 0.0377931 1.27078e-19)
(-0.0304855 0.0420977 1.61374e-19)
(-0.0183686 0.0446951 -7.68955e-20)
(0.000434912 0.0461105 -1.40677e-22)
(0.0260024 0.046832 3.4833e-20)
(0.058506 0.0473123 -2.90687e-23)
(0.0981723 0.047964 -6.37604e-20)
(0.145216 0.0491521 -2.29694e-23)
(0.199747 0.0511858 5.82634e-20)
(0.261672 0.0543034 -5.56863e-20)
(0.330596 0.0586567 5.34894e-20)
(0.405746 0.0642971 -2.0479e-19)
(0.485939 0.0711654 0)
(0.569595 0.0790895 1.41259e-19)
(0.654808 0.0877926 -9.02316e-20)
(0.73946 0.0969126 -4.35539e-20)
(0.821371 0.106032 4.17111e-20)
(0.898462 0.114714 -6.60424e-22)
(0.968906 0.122544 0)
(1.03127 0.129163 8.1031e-22)
(1.0846 0.134306 6.84062e-20)
(1.12847 0.137813 -1.30719e-19)
(1.16299 0.139644 9.37797e-22)
(1.18873 0.139869 0)
(1.20664 0.138658 0)
(1.21793 0.136227 5.32294e-20)
(1.2239 0.132882 -5.02015e-20)
(1.22583 0.12881 -9.18846e-20)
(1.22491 0.124471 1.32467e-19)
(1.22199 0.119635 0)
(1.21794 0.115481 3.76448e-20)
(1.21301 0.110122 3.56459e-20)
(1.20786 0.107923 -2.94597e-21)
(1.20215 0.100615 -6.24203e-20)
(-0.0113621 0.00823568 4.63847e-20)
(-0.0260017 0.0196642 4.70197e-20)
(-0.0326417 0.0274557 0)
(-0.0313165 0.0324974 -8.50164e-20)
(-0.0220881 0.0355774 4.0814e-20)
(-0.00496608 0.0373752 2.0734e-22)
(0.0201329 0.0384886 3.67247e-20)
(0.0533819 0.0394541 3.50074e-20)
(0.0949972 0.0407546 6.69293e-20)
(0.145154 0.0428145 -6.38814e-20)
(0.203873 0.0459884 -6.1013e-20)
(0.270898 0.0505417 0)
(0.345583 0.0566275 1.16829e-23)
(0.426808 0.0642667 5.32611e-20)
(0.512968 0.0733355 5.10999e-20)
(0.602015 0.0835665 9.76981e-20)
(0.691581 0.0945651 -1.40364e-19)
(0.779156 0.105843 -4.44841e-20)
(0.862287 0.116866 -4.29871e-20)
(0.938783 0.127103 4.10982e-20)
(1.00689 0.136084 -3.92442e-20)
(1.06542 0.143438 -3.66416e-20)
(1.1138 0.148931 3.56271e-20)
(1.1521 0.152473 6.65175e-20)
(1.18092 0.154116 -3.15447e-20)
(1.20131 0.154031 1.20077e-19)
(1.21458 0.152475 -1.41992e-19)
(1.22218 0.149752 -1.06166e-19)
(1.22549 0.146175 5.12378e-20)
(1.22574 0.142043 1.42489e-19)
(1.22394 0.137582 0)
(1.22083 0.133061 4.12398e-20)
(1.2169 0.128436 0)
(1.21253 0.124338 -3.76204e-20)
(1.20777 0.119557 3.5223e-20)
(1.20302 0.117269 -6.47149e-20)
(1.19798 0.110593 -5.87651e-20)
(-0.0117219 0.00774497 4.68495e-20)
(-0.0254055 0.017721 -9.42078e-20)
(-0.0296431 0.0240001 8.98135e-20)
(-0.0245602 0.027728 -8.58512e-20)
(-0.0102047 0.0298686 0)
(0.0134774 0.031223 -3.87283e-20)
(0.0466377 0.0324726 0)
(0.0894699 0.0342079 3.53208e-20)
(0.142105 0.0369366 -6.71311e-20)
(0.20447 0.0410736 3.20636e-20)
(0.276138 0.046918 6.09742e-20)
(0.356189 0.0546243 0)
(0.44313 0.0641761 1.11352e-19)
(0.53489 0.0753718 -5.32239e-20)
(0.62892 0.0878309 0)
(0.722373 0.101024 4.84145e-20)
(0.812353 0.114324 0)
(0.896177 0.127076 1.32737e-19)
(0.971614 0.138664 -1.26328e-19)
(1.03707 0.148579 3.97895e-20)
(1.09168 0.156466 0)
(1.13534 0.162148 1.4455e-19)
(1.1686 0.165627 -6.90229e-20)
(1.19255 0.167057 -9.67625e-20)
(1.20861 0.166708 9.22427e-20)
(1.21836 0.164913 2.95153e-20)
(1.22332 0.162025 2.78763e-20)
(1.22485 0.158376 7.7155e-20)
(1.22407 0.154247 -2.44435e-19)
(1.22179 0.149875 1.36726e-19)
(1.21859 0.145396 -4.4035e-20)
(1.21483 0.141005 -1.23008e-19)
(1.21072 0.136594 0)
(1.20643 0.132682 3.50227e-20)
(1.20195 0.128215 0)
(1.19753 0.125823 3.17765e-20)
(1.19301 0.119742 5.85068e-20)
(-0.0119584 0.00722753 4.72669e-20)
(-0.0241001 0.0157814 -9.51448e-20)
(-0.0250079 0.0207308 -1.59642e-22)
(-0.0149434 0.0234347 8.6177e-20)
(0.00602777 0.0250193 -4.10971e-20)
(0.0379796 0.0264088 0)
(0.0810498 0.0283672 0)
(0.135311 0.0315283 -3.53036e-20)
(0.200599 0.0363968 3.36261e-20)
(0.276314 0.0433254 1.57917e-22)
(0.361261 0.0524801 6.11375e-20)
(0.453552 0.0638082 -5.84601e-20)
(0.550626 0.0770224 -1.11255e-19)
(0.649398 0.091615 -1.05934e-19)
(0.74652 0.106905 2.02493e-19)
(0.838713 0.122116 -1.45066e-19)
(0.923088 0.136466 -4.57378e-20)
(0.997429 0.149261 0)
(1.06036 0.159972 1.65818e-19)
(1.11141 0.168278 -1.58041e-19)
(1.15093 0.174079 0)
(1.17996 0.177478 3.45981e-20)
(1.19999 0.178733 -8.23585e-22)
(1.21275 0.178201 -6.28873e-20)
(1.21994 0.176274 -3.03205e-20)
(1.2231 0.173331 0)
(1.2235 0.169704 0)
(1.2221 0.165658 2.54435e-20)
(1.21959 0.161391 -1.16597e-19)
(1.2164 0.157046 8.94635e-20)
(1.21281 0.152707 1.65819e-19)
(1.20898 0.148475 -7.90132e-20)
(1.20498 0.144281 0)
(1.20092 0.140479 -3.50076e-20)
(1.19677 0.13626 0)
(1.1927 0.133772 2.96951e-20)
(1.18867 0.1281 -2.87437e-20)
(-0.0119411 0.0066213 -4.78267e-20)
(-0.0217412 0.0137365 0)
(-0.0182036 0.017556 -4.92822e-22)
(-0.00176629 0.0195852 4.38163e-20)
(0.0274428 0.0210901 -2.44532e-22)
(0.0694378 0.0231066 -4.14716e-22)
(0.1242 0.0264633 -1.49927e-19)
(0.191462 0.0318023 3.5682e-20)
(0.270467 0.0395645 0)
(0.359752 0.0499516 6.46077e-20)
(0.457034 0.0628866 -2.64973e-22)
(0.559236 0.077997 -2.93372e-20)
(0.662705 0.0946379 -5.55712e-20)
(0.763559 0.111963 2.68309e-20)
(0.858111 0.129029 5.05673e-20)
(0.943274 0.144923 0)
(1.01687 0.158876 4.57174e-20)
(1.07776 0.170344 0)
(1.12587 0.179055 -6.25198e-22)
(1.16203 0.184996 3.90708e-20)
(1.18769 0.188372 -7.27845e-20)
(1.2047 0.189538 6.96651e-20)
(1.21497 0.188924 0)
(1.22029 0.186963 8.05421e-22)
(1.22217 0.184049 0)
(1.22177 0.180503 0)
(1.21993 0.176573 0)
(1.21724 0.172434 0)
(1.21403 0.168207 -6.723e-20)
(1.21053 0.163975 8.65981e-20)
(1.20685 0.159784 3.88071e-20)
(1.20307 0.155697 -7.64091e-20)
(1.19923 0.151667 0)
(1.19537 0.147943 0)
(1.1915 0.143916 0)
(1.18769 0.141301 -8.74326e-20)
(1.18402 0.135979 5.52873e-20)
(-0.0115301 0.00588605 3.60401e-22)
(-0.0179662 0.0115228 -4.85518e-20)
(-0.00868741 0.0144368 4.62571e-20)
(0.0156522 0.0162054 7.46755e-22)
(0.0547923 0.0181992 1.45456e-22)
(0.108555 0.0215389 7.98081e-20)
(0.176547 0.0270753 0)
(0.257862 0.0353893 7.18892e-20)
(0.350791 0.0467573 0)
(0.452668 0.0611047 -3.23687e-20)
(0.559891 0.0779847 0)
(0.668199 0.0966116 -2.92914e-20)
(0.773118 0.115957 0)
(0.870508 0.134897 2.64786e-20)
(0.957047 0.152372 0)
(1.03057 0.167527 4.73886e-20)
(1.09018 0.17981 -4.48021e-20)
(1.13618 0.188994 -4.23192e-20)
(1.16982 0.195157 -4.05804e-20)
(1.19296 0.198603 -7.55099e-20)
(1.2077 0.199774 7.22678e-20)
(1.21614 0.199161 -3.34532e-20)
(1.22008 0.197232 6.32556e-20)
(1.221 0.194388 -1.19349e-19)
(1.21999 0.190944 8.4926e-20)
(1.21781 0.187133 0)
(1.21496 0.183114 2.46649e-20)
(1.21171 0.178997 0)
(1.20826 0.174854 0)
(1.2047 0.170732 0)
(1.20107 0.166664 7.71852e-20)
(1.19741 0.162685 -7.39383e-20)
(1.19374 0.158773 0)
(1.19009 0.155091 0)
(1.18646 0.151204 2.96423e-20)
(1.18291 0.148452 5.58399e-20)
(1.17953 0.143432 -2.74644e-20)
(-0.0105861 0.00500785 -9.82613e-20)
(-0.0124115 0.00913631 -2.84382e-22)
(0.00407064 0.0114161 9.40439e-20)
(0.037941 0.0134157 -1.33478e-19)
(0.0886957 0.0165627 -1.48261e-22)
(0.155765 0.022013 -4.04751e-20)
(0.238085 0.0305623 -3.84193e-20)
(0.333736 0.042618 -2.63617e-22)
(0.439696 0.0581505 -1.37755e-19)
(0.551842 0.0766637 1.63592e-19)
(0.665261 0.0972354 -6.22894e-20)
(0.774815 0.118643 0)
(0.875816 0.139554 -8.33856e-20)
(0.964627 0.158738 1.0559e-19)
(1.03903 0.175241 -7.51305e-20)
(1.09833 0.188483 -4.73799e-20)
(1.14317 0.198283 4.47949e-20)
(1.17517 0.204799 8.40464e-20)
(1.19656 0.208431 0)
(1.20968 0.209702 3.69765e-20)
(1.21676 0.209162 3.47839e-20)
(1.21966 0.20731 7.39824e-22)
(1.21984 0.204559 -6.1702e-20)
(1.21833 0.201221 3.06959e-20)
(1.21585 0.197521 2.76551e-20)
(1.21281 0.19361 7.67649e-20)
(1.20949 0.18959 -7.37418e-20)
(1.20603 0.185525 2.27225e-20)
(1.2025 0.181459 -4.33015e-20)
(1.19895 0.177424 0)
(1.19538 0.173441 -5.61414e-20)
(1.19183 0.169532 7.15728e-20)
(1.1883 0.165692 -1.63238e-20)
(1.18481 0.162024 0)
(1.18137 0.158234 -2.96394e-20)
(1.17802 0.155339 0)
(1.17489 0.150571 -7.64828e-20)
(-0.0089735 0.00399959 4.95644e-20)
(-0.0047253 0.00664193 -2.45238e-22)
(0.0205652 0.00863587 4.88643e-22)
(0.065639 0.0114538 0)
(0.129581 0.0165143 8.53952e-20)
(0.211151 0.0249261 -4.04232e-22)
(0.308243 0.0373093 -4.78237e-22)
(0.417532 0.0537398 1.09475e-19)
(0.534396 0.0737149 -6.98016e-20)
(0.653239 0.0961924 -3.28151e-20)
(0.768159 0.119743 -3.12799e-20)
(0.873791 0.142799 8.8233e-20)
(0.966042 0.163918 -8.36558e-20)
(1.04254 0.182009 5.30081e-20)
(1.10268 0.196444 4.96468e-20)
(1.14738 0.207068 0)
(1.17865 0.214112 0)
(1.199 0.218065 -6.2302e-20)
(1.21104 0.219533 7.72578e-20)
(1.21715 0.219126 -1.10912e-19)
(1.21926 0.217381 -1.03015e-19)
(1.21884 0.214728 9.80189e-20)
(1.21689 0.211486 3.00251e-20)
(1.2141 0.207878 0)
(1.21087 0.204052 -2.64427e-20)
(1.20743 0.200104 4.91181e-20)
(1.2039 0.196095 -9.53129e-22)
(1.20034 0.192065 -2.22805e-20)
(1.19679 0.188045 0)
(1.19326 0.184054 0)
(1.18976 0.180112 5.37537e-20)
(1.18631 0.176234 -5.24347e-20)
(1.1829 0.172425 1.63241e-20)
(1.17957 0.168746 0)
(1.17631 0.165015 0)
(1.17315 0.161968 0)
(1.17023 0.157421 0)
(-0.00656045 0.00289965 -5.07527e-20)
(0.00542277 0.00417396 3.30233e-22)
(0.0412304 0.00633923 9.67875e-20)
(0.0991483 0.010673 -4.60948e-20)
(0.177611 0.0184908 -8.73045e-20)
(0.274352 0.0307294 4.14695e-20)
(0.385811 0.0476635 -3.95066e-20)
(0.506927 0.0688478 7.45747e-20)
(0.631408 0.0931543 0)
(0.75249 0.118945 0)
(0.863951 0.144376 3.12789e-20)
(0.961048 0.167743 2.91975e-20)
(1.04106 0.187763 -8.63929e-22)
(1.10338 0.203715 -2.67288e-20)
(1.14911 0.215441 4.87259e-20)
(1.18055 0.223234 -2.37223e-20)
(1.20057 0.227669 2.14875e-20)
(1.21204 0.229439 -4.08583e-20)
(1.21751 0.229222 5.77058e-20)
(1.21902 0.227607 8.90054e-20)
(1.21809 0.225051 -8.48318e-20)
(1.21574 0.221888 0)
(1.21263 0.218347 -3.00293e-20)
(1.20916 0.214577 -2.76153e-20)
(1.20554 0.210671 7.91866e-20)
(1.20188 0.20669 -5.09538e-22)
(1.19824 0.202672 -9.74719e-22)
(1.19464 0.198646 -6.46524e-20)
(1.19108 0.194632 3.98755e-20)
(1.18758 0.190648 -3.8192e-20)
(1.18414 0.18671 0)
(1.18076 0.18283 -4.96351e-20)
(1.17747 0.179019 1.61458e-20)
(1.17427 0.175308 -5.74809e-20)
(1.17117 0.171602 5.50747e-20)
(1.16817 0.168398 0)
(1.16539 0.164038 -1.16963e-20)
(-0.00321924 0.00176966 0)
(0.0183289 0.00193053 0)
(0.0664076 0.00485915 2.48892e-20)
(0.138677 0.0115183 -2.35885e-20)
(0.232606 0.0229876 8.80111e-20)
(0.344489 0.0398571 -6.32911e-20)
(0.46893 0.0618466 1.99322e-20)
(0.598986 0.0878033 3.7778e-20)
(0.726942 0.115892 -2.5287e-23)
(0.845522 0.143958 0)
(0.949067 0.169961 0)
(1.03427 0.192347 2.96645e-20)
(1.10029 0.210237 0)
(1.14834 0.223428 -7.7917e-20)
(1.18098 0.23225 2.49055e-20)
(1.20141 0.237364 -4.58764e-20)
(1.21279 0.239559 2.16248e-20)
(1.21792 0.239599 1.95383e-20)
(1.219 0.238136 -5.70976e-20)
(1.21764 0.235672 1.709e-20)
(1.2149 0.232567 1.59671e-20)
(1.21146 0.229061 -1.5991e-20)
(1.2077 0.225311 5.73073e-20)
(1.20385 0.221412 -8.23399e-20)
(1.20001 0.217424 1.25273e-20)
(1.19622 0.213387 2.41302e-20)
(1.19251 0.209327 -6.60126e-20)
(1.18887 0.205265 6.33836e-20)
(1.18531 0.201219 -1.92218e-20)
(1.18184 0.197204 0)
(1.17845 0.193234 -1.68334e-20)
(1.17516 0.18932 0)
(1.17197 0.185474 5.96558e-20)
(1.1689 0.181711 -2.84122e-20)
(1.16594 0.177997 1.28978e-20)
(1.16308 0.174629 0)
(1.16042 0.170427 1.16999e-20)
(0.00117105 0.000692096 2.64451e-20)
(0.0342377 0.000164157 -5.34713e-20)
(0.0963062 0.00459623 2.51665e-20)
(0.184179 0.0144853 -9.05817e-22)
(0.293978 0.0304941 -4.53144e-20)
(0.420139 0.0526439 2.11545e-20)
(0.555194 0.0798783 -4.03337e-20)
(0.690461 0.11021 0)
(0.817406 0.141143 -3.56767e-20)
(0.929138 0.170217 -1.69257e-20)
(1.02142 0.1955 0)
(1.09293 0.215857 -2.96717e-20)
(1.1448 0.230972 0)
(1.17981 0.241183 7.72963e-20)
(1.20146 0.247228 -4.91605e-20)
(1.2133 0.250006 2.28231e-20)
(1.21842 0.250386 4.19143e-20)
(1.21924 0.249106 -9.45906e-22)
(1.21751 0.24673 -1.9135e-20)
(1.21438 0.243658 0)
(1.21058 0.240154 -1.59879e-20)
(1.2065 0.236384 -1.52923e-20)
(1.20237 0.232451 0)
(1.19828 0.228417 0)
(1.19429 0.224323 -1.25317e-20)
(1.19041 0.220196 -3.43171e-20)
(1.18664 0.216056 6.57178e-20)
(1.18298 0.211922 0)
(1.17942 0.207808 3.78351e-20)
(1.17598 0.203727 0)
(1.17264 0.199693 1.68393e-20)
(1.16943 0.195717 0)
(1.16634 0.191809 1.38783e-20)
(1.16338 0.187978 -4.07133e-20)
(1.16055 0.184223 -1.29023e-20)
(1.15781 0.180689 0)
(1.15524 0.176617 0)
(0.006718 -0.000231017 2.75316e-20)
(0.0533191 -0.000829149 2.68334e-20)
(0.130963 0.00599113 0)
(0.235303 0.0200712 2.40679e-20)
(0.360701 0.0414254 -2.24945e-20)
(0.499406 0.0692553 4.3703e-20)
(0.641877 0.101545 -2.0348e-20)
(0.778194 0.135463 5.77208e-20)
(0.899884 0.168041 -6.72769e-22)
(1.00136 0.196828 -1.73919e-20)
(1.08043 0.220299 1.59111e-20)
(1.13791 0.237922 0)
(1.17666 0.249986 2.73586e-20)
(1.20053 0.257295 -6.47208e-20)
(1.21347 0.260866 2.43943e-20)
(1.21896 0.2617 4.42943e-20)
(1.21971 0.26065 -2.16333e-20)
(1.21769 0.258364 3.84895e-20)
(1.21419 0.2553 -7.31727e-20)
(1.20999 0.251758 -3.34818e-20)
(1.20555 0.247925 9.49122e-20)
(1.20108 0.243912 -1.53282e-20)
(1.1967 0.239788 0)
(1.19246 0.235594 0)
(1.18836 0.23136 2.3738e-20)
(1.1844 0.227105 -1.1948e-20)
(1.18059 0.222849 -1.09173e-20)
(1.17691 0.218605 -9.63145e-21)
(1.17336 0.214388 -1.86151e-20)
(1.16994 0.21021 -2.53969e-20)
(1.16667 0.206082 2.45262e-20)
(1.16353 0.202016 0)
(1.16054 0.198021 -6.8484e-21)
(1.15769 0.194103 5.02433e-22)
(1.15497 0.190275 0)
(1.15233 0.186575 0)
(1.14983 0.182604 1.04276e-20)
(0.0135062 -0.000880246 -1.37806e-20)
(0.0756429 -0.000723341 2.76418e-20)
(0.170207 0.00949381 -2.64198e-20)
(0.291372 0.0287257 0)
(0.431356 0.0560651 -2.32377e-20)
(0.580069 0.0896534 2.19669e-20)
(0.726235 0.126428 2.02937e-20)
(0.859502 0.162849 -2.00447e-20)
(0.972425 0.195787 0)
(1.06145 0.223134 0)
(1.12669 0.243996 -1.59184e-20)
(1.1709 0.258517 0)
(1.19823 0.267532 0)
(1.21309 0.272186 -2.56298e-20)
(1.21943 0.273638 -1.18428e-20)
(1.22037 0.272889 3.2837e-20)
(1.21817 0.270707 -5.18664e-20)
(1.21431 0.267631 0)
(1.2097 0.264011 4.43592e-20)
(1.20484 0.260065 -9.1264e-22)
(1.19998 0.255922 -4.69832e-20)
(1.19526 0.251656 2.80466e-20)
(1.1907 0.247314 -7.15615e-22)
(1.18634 0.242926 -3.76851e-20)
(1.18215 0.238514 -2.30345e-20)
(1.17814 0.234096 5.67481e-22)
(1.1743 0.229687 2.02364e-20)
(1.17061 0.2253 -9.0736e-21)
(1.16708 0.220948 4.54884e-22)
(1.1637 0.216643 -1.60841e-20)
(1.16048 0.212395 5.39117e-20)
(1.15743 0.208214 -7.36155e-22)
(1.15454 0.204109 -2.03802e-20)
(1.15179 0.200085 -1.19866e-20)
(1.14916 0.196154 2.37523e-20)
(1.14661 0.192293 0)
(1.14418 0.188388 -1.04359e-20)
(0.0215864 -0.00112212 2.84281e-20)
(0.101156 0.000821413 0)
(0.213638 0.0155312 0)
(0.351391 0.0408068 0)
(0.504215 0.0745306 0)
(0.659806 0.113604 0)
(0.805814 0.153968 0)
(0.932434 0.191658 0)
(1.0341 0.223743 0)
(1.10968 0.24874 -1.72031e-20)
(1.16152 0.2665 -1.59429e-20)
(1.19392 0.277819 0)
(1.21178 0.283958 0)
(1.21963 0.286267 1.27677e-20)
(1.22112 0.285937 3.50508e-20)
(1.2189 0.283894 -4.38787e-20)
(1.21474 0.28079 3.08034e-20)
(1.2097 0.277052 0)
(1.20438 0.272941 8.82554e-21)
(1.19908 0.268609 0)
(1.19395 0.264144 1.48721e-20)
(1.18904 0.259598 -3.53677e-20)
(1.18436 0.255004 -1.93171e-20)
(1.1799 0.250384 3.69798e-20)
(1.17565 0.245759 1.67568e-20)
(1.1716 0.241141 -2.65485e-20)
(1.16774 0.236545 -9.98806e-21)
(1.16405 0.231984 0)
(1.16055 0.227467 1.68383e-20)
(1.15722 0.223008 -1.1647e-22)
(1.15407 0.218614 -1.50408e-20)
(1.15111 0.214296 0)
(1.14831 0.210059 0)
(1.14566 0.205911 0)
(1.14312 0.201848 -5.50038e-21)
(1.14066 0.197832 1.54943e-20)
(1.13828 0.193952 -9.92487e-21)
(0.0309624 -0.000814319 0)
(0.129659 0.00414049 0)
(0.260617 0.0244786 0)
(0.414086 0.0565521 -1.29152e-20)
(0.577375 0.0967671 2.0491e-22)
(0.736403 0.140717 -1.11409e-20)
(0.878658 0.183558 5.37898e-20)
(0.995838 0.22127 -1.06053e-20)
(1.08483 0.251467 -2.82046e-20)
(1.14701 0.273469 1.72145e-20)
(1.18659 0.287896 1.59538e-20)
(1.20892 0.296092 0)
(1.21921 0.299612 1.33857e-20)
(1.22177 0.299888 -1.28038e-20)
(1.2198 0.298055 0)
(1.21543 0.294926 -2.60728e-22)
(1.20997 0.291032 -1.505e-20)
(1.20416 0.286699 0)
(1.19838 0.282115 1.68218e-20)
(1.19279 0.277386 -1.60987e-20)
(1.18747 0.272572 1.44788e-20)
(1.18242 0.267711 6.50561e-21)
(1.17764 0.262828 -2.55367e-20)
(1.17311 0.257941 0)
(1.16881 0.253066 5.56711e-21)
(1.16474 0.248216 5.18186e-21)
(1.16087 0.243402 0)
(1.15721 0.238636 -8.69935e-21)
(1.15374 0.233929 8.33145e-21)
(1.15047 0.22929 7.80498e-21)
(1.1474 0.224729 0)
(1.14452 0.220252 1.31067e-20)
(1.14182 0.215866 2.68726e-21)
(1.13927 0.211573 -1.17054e-20)
(1.13681 0.207359 -2.48978e-21)
(1.13444 0.203195 -2.41389e-21)
(1.13211 0.199295 1.17742e-20)
(0.0415803 0.000190407 3.86619e-21)
(0.160794 0.0095539 1.49824e-20)
(0.310274 0.0366444 6.91969e-21)
(0.477979 0.0760695 -1.98824e-20)
(0.64891 0.122565 1.26168e-20)
(0.807945 0.170505 -1.15518e-20)
(0.943409 0.214604 5.69353e-21)
(1.04927 0.251189 1.00669e-20)
(1.12515 0.278686 1.40091e-20)
(1.17467 0.297305 0)
(1.2035 0.308364 7.80546e-21)
(1.21756 0.313626 -7.46489e-21)
(1.22197 0.314807 0)
(1.22064 0.31332 3.08135e-21)
(1.21623 0.310197 0)
(1.21039 0.30612 0)
(1.20407 0.301507 -4.66277e-21)
(1.19776 0.296601 6.95433e-21)
(1.19166 0.291534 -8.20114e-21)
(1.18587 0.286381 7.84864e-21)
(1.18041 0.281185 0)
(1.17526 0.275972 0)
(1.17041 0.270763 1.52964e-20)
(1.16583 0.265573 -2.9928e-21)
(1.16151 0.260416 -2.59038e-21)
(1.15744 0.255302 0)
(1.15359 0.250242 -4.49445e-21)
(1.14996 0.245245 8.4826e-21)
(1.14654 0.240323 -2.07523e-21)
(1.14334 0.235482 0)
(1.14036 0.230732 0)
(1.13758 0.226078 1.55001e-21)
(1.13498 0.221525 -1.58581e-21)
(1.13252 0.217071 0)
(1.13016 0.212691 -1.37976e-21)
(1.12786 0.208391 -1.28733e-21)
(1.12559 0.204427 -2.286e-21)
(0.0533568 0.00204723 -3.81686e-21)
(0.194114 0.0173654 0)
(0.361642 0.0522557 0)
(0.541592 0.0993248 -6.73378e-21)
(0.717124 0.151579 -3.14875e-21)
(0.873002 0.20243 3.00974e-21)
(0.999325 0.24658 -5.48281e-21)
(1.09285 0.281066 0)
(1.15586 0.305296 -4.68329e-21)
(1.19391 0.320351 0)
(1.2136 0.328139 1.93702e-21)
(1.22101 0.330699 -3.63038e-21)
(1.22096 0.329797 3.333e-21)
(1.2168 0.326762 -3.1457e-21)
(1.2107 0.322492 -1.43515e-21)
(1.20388 0.317544 0)
(1.197 0.312238 0)
(1.19034 0.30675 2.22674e-21)
(1.18403 0.301174 0)
(1.17811 0.295562 9.20037e-22)
(1.17255 0.289946 -3.00868e-23)
(1.16734 0.284345 -2.73061e-23)
(1.16245 0.278775 -3.0411e-21)
(1.15786 0.273249 -3.49304e-21)
(1.15354 0.267778 2.59298e-21)
(1.14948 0.262372 0)
(1.14567 0.257039 0)
(1.1421 0.251788 0)
(1.13876 0.246626 -1.92857e-21)
(1.13565 0.241564 0)
(1.13277 0.236606 0)
(1.1301 0.231758 -8.05936e-22)
(1.12762 0.227022 -2.15838e-21)
(1.12526 0.222391 -6.45508e-22)
(1.123 0.217837 -6.3338e-22)
(1.12079 0.213414 -1.16595e-21)
(1.11859 0.209346 0)
(-0.00118299 0.0214346 -2.23536e-21)
(-0.00507099 0.046057 0)
(-0.0118574 0.0578013 0)
(-0.0203277 0.0606109 -4.15301e-21)
(-0.0298565 0.0575935 1.96957e-21)
(-0.0401065 0.0510584 -1.88297e-21)
(-0.0508228 0.0425901 -3.65435e-21)
(-0.0618191 0.033165 0)
(-0.0729707 0.0232969 -3.3637e-21)
(-0.0842001 0.0131864 0)
(-0.0954606 0.00285175 -1.53581e-21)
(-0.106731 -0.00776905 1.46884e-21)
(-0.11801 -0.0187595 -1.41978e-21)
(-0.129308 -0.0301901 -2.77059e-21)
(-0.140641 -0.0421056 1.30697e-21)
(-0.152031 -0.05454 0)
(-0.163495 -0.067506 0)
(-0.175052 -0.0810076 2.38431e-21)
(-0.186717 -0.095041 0)
(-0.198502 -0.109596 -1.0978e-21)
(-0.210415 -0.124655 -9.967e-24)
(-0.222458 -0.140194 -1.01744e-23)
(-0.234628 -0.156179 -4.0271e-21)
(-0.246919 -0.172567 -2.93792e-21)
(-0.259312 -0.189302 3.76454e-21)
(-0.271787 -0.206319 0)
(-0.284312 -0.223537 0)
(-0.296848 -0.240864 0)
(-0.309347 -0.258193 -3.3278e-21)
(-0.321754 -0.275404 0)
(-0.334009 -0.292364 0)
(-0.346044 -0.308929 -4.56817e-21)
(-0.357774 -0.324947 -1.51253e-21)
(-0.36909 -0.340253 1.44155e-21)
(-0.379922 -0.354655 -4.19029e-21)
(-0.390282 -0.367949 -2.73592e-21)
(-0.400094 -0.379976 0)
(-0.00214967 0.0237715 6.75866e-21)
(-0.00706605 0.0519279 -9.13597e-21)
(-0.0142092 0.0663015 -4.39309e-21)
(-0.0226431 0.0710433 2.09277e-20)
(-0.0319088 0.0694227 -8.02794e-21)
(-0.0417674 0.0638819 7.71303e-21)
(-0.0520241 0.0561158 -1.11916e-20)
(-0.0625274 0.0471893 7.16718e-21)
(-0.0731715 0.037686 1.02432e-20)
(-0.0838884 0.0278604 6.54968e-21)
(-0.0946391 0.017773 -1.25607e-20)
(-0.105409 0.0073888 6.02249e-21)
(-0.1162 -0.00335581 0)
(-0.127017 -0.0145193 8.37677e-21)
(-0.137888 -0.0261514 -5.373e-21)
(-0.148842 -0.0382718 0)
(-0.159894 -0.0508913 1.51615e-20)
(-0.171069 -0.0640202 -1.20193e-20)
(-0.182385 -0.0776564 0)
(-0.193863 -0.091795 0)
(-0.205515 -0.106424 0)
(-0.217354 -0.121525 0)
(-0.229386 -0.137071 4.10724e-21)
(-0.241614 -0.153028 1.17448e-20)
(-0.254035 -0.169351 -3.7612e-21)
(-0.266642 -0.185983 0)
(-0.279421 -0.202856 7.23067e-21)
(-0.292352 -0.219891 -1.39353e-20)
(-0.305406 -0.236993 1.00393e-20)
(-0.318552 -0.254055 0)
(-0.331754 -0.270957 0)
(-0.344977 -0.287569 3.04781e-21)
(-0.35816 -0.303753 -3.10103e-21)
(-0.371198 -0.319356 0)
(-0.384021 -0.334192 -2.89352e-21)
(-0.396721 -0.348059 -2.79268e-21)
(-0.409425 -0.360836 -5.39672e-21)
(-0.00325521 0.0258313 0)
(-0.00934586 0.0572677 0)
(-0.0168337 0.074203 0)
(-0.0251244 0.0809044 8.57594e-21)
(-0.0339597 0.0807458 2.0533e-23)
(-0.0432194 0.076272 7.90451e-21)
(-0.0527831 0.0692752 -2.27292e-20)
(-0.0625423 0.060907 -7.22269e-21)
(-0.0724146 0.0518241 7.00687e-21)
(-0.0823429 0.0423395 1.35338e-20)
(-0.0922934 0.0325573 1.3021e-20)
(-0.102253 0.0224741 0)
(-0.112225 0.0120474 0)
(-0.122229 0.00122849 0)
(-0.132277 -0.0100246 0)
(-0.142381 -0.0217289 -2.1581e-20)
(-0.152578 -0.0339057 5.18975e-21)
(-0.162893 -0.0465571 0)
(-0.173343 -0.0596787 -1.93668e-20)
(-0.183949 -0.0732752 1.85341e-20)
(-0.194725 -0.0873381 -1.81152e-20)
(-0.205688 -0.101854 8.66382e-21)
(-0.216848 -0.116803 -8.96372e-23)
(-0.228215 -0.132157 0)
(-0.239793 -0.147879 8.03698e-21)
(-0.251584 -0.163925 7.78359e-21)
(-0.263587 -0.180235 0)
(-0.275795 -0.196742 1.44616e-20)
(-0.288197 -0.213365 -1.38499e-20)
(-0.300778 -0.230008 1.36854e-20)
(-0.313526 -0.246563 0)
(-0.326433 -0.262913 -2.54506e-20)
(-0.339465 -0.278929 5.8036e-21)
(-0.352516 -0.294466 2.36045e-20)
(-0.365493 -0.309348 4.03228e-20)
(-0.378581 -0.323377 -5.42666e-21)
(-0.392234 -0.336451 -1.6133e-20)
(-0.00446066 0.0275174 1.04196e-22)
(-0.0118404 0.0618521 0)
(-0.0196624 0.0812093 0)
(-0.0277197 0.0898625 0)
(-0.0359803 0.0912205 0)
(-0.0444587 0.0878897 0)
(-0.0531204 0.0817389 0)
(-0.0619085 0.0739985 0)
(-0.0707682 0.0653978 0)
(-0.0796553 0.0563108 -1.35251e-20)
(-0.0885412 0.0468882 -1.30125e-20)
(-0.0974132 0.03716 2.54597e-20)
(-0.106273 0.0271037 -2.4351e-20)
(-0.115132 0.0166841 1.19328e-20)
(-0.124009 0.00587506 -1.13337e-20)
(-0.132926 -0.00535167 4.36407e-20)
(-0.1419 -0.017013 -1.0365e-20)
(-0.150934 -0.0291095 0)
(-0.160066 -0.0416555 1.00532e-20)
(-0.16932 -0.0546415 0)
(-0.178703 -0.0680594 -1.86686e-20)
(-0.188227 -0.0819042 -9.21003e-21)
(-0.197903 -0.0961595 4.35604e-20)
(-0.20774 -0.110802 -1.64067e-20)
(-0.217743 -0.125801 -4.08449e-20)
(-0.227915 -0.141115 -8.13276e-21)
(-0.238257 -0.156694 1.49069e-20)
(-0.248767 -0.172476 0)
(-0.259441 -0.188386 -2.88083e-20)
(-0.27027 -0.204339 1.00232e-22)
(-0.281256 -0.220236 2.66877e-20)
(-0.292412 -0.235965 -2.60204e-20)
(-0.303729 -0.251406 2.49273e-20)
(-0.315103 -0.266424 0)
(-0.326391 -0.280857 -1.15554e-20)
(-0.337817 -0.294522 -1.13352e-20)
(-0.350267 -0.307339 2.16852e-20)
(-0.00571669 0.0287525 -2.90108e-20)
(-0.0144597 0.0654929 -1.94826e-20)
(-0.0226086 0.0870615 1.86232e-20)
(-0.0303657 0.097619 0)
(-0.0379391 0.100531 -1.72804e-20)
(-0.0454876 0.0984181 -1.64359e-20)
(-0.0530719 0.0931964 -1.58453e-20)
(-0.0606944 0.0861623 4.54514e-20)
(-0.0683326 0.0781134 0)
(-0.0759585 0.069485 0)
(-0.0835491 0.0604773 -1.36106e-20)
(-0.0910921 0.0511555 0)
(-0.0985864 0.0415203 0)
(-0.10604 0.0315497 -2.41358e-20)
(-0.113466 0.02122 -1.15115e-20)
(-0.120881 0.0105111 -1.15175e-20)
(-0.128302 -0.000586634 -1.11205e-20)
(-0.135753 -0.0120881 0)
(-0.143237 -0.0240046 -3.0387e-20)
(-0.150756 -0.036327 -4.47686e-22)
(-0.158338 -0.0490594 1.86175e-20)
(-0.165996 -0.0621902 -5.00769e-22)
(-0.173727 -0.0757079 -3.59962e-20)
(-0.181534 -0.0895943 1.73757e-20)
(-0.189416 -0.103823 0)
(-0.197369 -0.11836 0)
(-0.205388 -0.133157 -4.20875e-22)
(-0.213465 -0.148157 4.59805e-20)
(-0.22159 -0.16329 2.71645e-22)
(-0.229753 -0.178473 -5.67219e-20)
(-0.23795 -0.193608 -4.12167e-20)
(-0.246203 -0.208586 -3.40888e-22)
(-0.254527 -0.223287 6.37562e-20)
(-0.262831 -0.237573 7.39347e-20)
(-0.270896 -0.251292 -4.71254e-20)
(-0.278891 -0.264282 0)
(-0.288213 -0.276516 -2.19139e-20)
(-0.00696772 0.0294844 -2.06028e-22)
(-0.0170997 0.068049 2.00555e-20)
(-0.0255711 0.0915523 0)
(-0.0329888 0.103924 1.83803e-20)
(-0.0398002 0.108406 5.22182e-20)
(-0.0463115 0.107577 -3.34074e-20)
(-0.0526846 0.103369 4.84028e-20)
(-0.0589874 0.0971259 -7.69883e-20)
(-0.0652354 0.089704 -1.78053e-22)
(-0.0714199 0.0815989 4.28726e-20)
(-0.0775261 0.0730608 1.36042e-20)
(-0.083543 0.0641927 0)
(-0.0894674 0.0550203 -2.56863e-20)
(-0.0953031 0.0455364 3.6637e-20)
(-0.101059 0.035724 -2.37262e-20)
(-0.106748 0.0255664 0)
(-0.112382 0.0150508 2.20221e-20)
(-0.117976 0.0041662 -4.3367e-20)
(-0.12354 -0.00708816 -2.16929e-22)
(-0.12908 -0.0187258 4.06463e-20)
(-0.134594 -0.0307488 -3.91539e-20)
(-0.140082 -0.0431506 5.63859e-20)
(-0.145551 -0.0559247 0)
(-0.150994 -0.0690535 0)
(-0.156398 -0.0825204 -3.46126e-20)
(-0.161747 -0.0962943 -1.72066e-20)
(-0.167022 -0.110334 4.79919e-20)
(-0.172201 -0.124584 -1.53969e-20)
(-0.177261 -0.138977 -3.04398e-20)
(-0.182176 -0.153428 7.27112e-20)
(-0.186925 -0.167836 -6.9746e-20)
(-0.191514 -0.182084 0)
(-0.195973 -0.19604 -1.28659e-20)
(-0.200244 -0.209549 3.59712e-22)
(-0.204042 -0.222445 0)
(-0.207349 -0.234591 0)
(-0.212043 -0.246061 2.18833e-20)
(-0.00815691 0.0296897 -2.00815e-20)
(-0.0196507 0.069436 1.8577e-22)
(-0.0284409 0.0945383 -5.83227e-20)
(-0.0355084 0.108587 2.66744e-22)
(-0.0415245 0.114622 3.55014e-20)
(-0.0469376 0.115128 1.71911e-20)
(-0.0520129 0.112012 -3.27062e-20)
(-0.0568878 0.106643 0)
(-0.0616211 0.0999255 -3.04942e-20)
(-0.0662281 0.0924095 -1.44093e-20)
(-0.0707052 0.0843954 2.81454e-20)
(-0.0750448 0.0760253 -1.08482e-19)
(-0.0792428 0.0673525 5.19284e-20)
(-0.0833 0.0583864 -2.56904e-20)
(-0.0872217 0.049119 4.8422e-20)
(-0.0910159 0.0395376 2.37477e-20)
(-0.0946908 0.0296298 0)
(-0.0982544 0.0193843 -4.43085e-20)
(-0.101713 0.00879312 6.34917e-20)
(-0.105068 -0.00215279 0)
(-0.10832 -0.0134575 -1.9781e-20)
(-0.111458 -0.0251295 -1.95689e-20)
(-0.114465 -0.037164 0)
(-0.117332 -0.0495594 0)
(-0.120042 -0.0623 -1.77744e-20)
(-0.122562 -0.0753637 8.53179e-20)
(-0.124857 -0.0887178 -3.22997e-20)
(-0.12689 -0.102316 0)
(-0.128616 -0.116093 6.14488e-20)
(-0.129989 -0.129968 0)
(-0.130962 -0.143832 2.87861e-20)
(-0.131507 -0.157557 0)
(-0.131637 -0.170981 -7.92407e-20)