/*--------------------------------*- C++ -*----------------------------------*\
| =========                 |                                                 |
| \\      /  F ield         | OpenFOAM: The Open Source CFD Toolbox           |
|  \\    /   O peration     | Version:  2312                                  |
|   \\  /    A nd           | Website:  www.openfoam.com                      |
|    \\/     M anipulation  |                                                 |
\*---------------------------------------------------------------------------*/
FoamFile
{
    version     2.0;
    format      ascii;
    arch        "LSB;label=32;scalar=64";
    class       surfaceScalarField;
    location    "0.5";
    object      phi;
}
// * * * * * * * * * * * * * * * * * * * * * * * * * * * * * * * * * * * * * //

dimensions      [0 3 -1 0 0 0 0];

oriented        oriented;

internalField   nonuniform List<scalar> 
64047
(
0.000388258
-0.00270404
0.00231578
0.00150949
-0.0132739
0.0121527
0.00321581
-0.0254056
0.0236993
0.0052826
-0.0361258
0.034059
0.00750189
-0.0439945
0.0417752
0.00973641
-0.0489311
0.0466965
0.0119235
-0.0515791
0.049392
0.0140512
-0.0527385
0.0506108
0.0161312
-0.0530658
0.0509858
0.0181807
-0.0529955
0.050946
0.0202142
-0.0527752
0.0507417
0.0222415
-0.0525294
0.0505021
0.0242687
-0.0523136
0.0502864
0.0262994
-0.0521492
0.0501184
0.0283361
-0.0520424
0.0500058
0.0303804
-0.0519935
0.0499491
0.0324338
-0.0520004
0.0499469
0.0344977
-0.0520606
0.0499967
0.0365733
-0.0521717
0.0500961
0.0386618
-0.0523313
0.0502428
0.0407645
-0.0525374
0.0504347
0.0428824
-0.0527879
0.05067
0.0450168
-0.0530813
0.0509469
0.0471687
-0.0534161
0.0512642
0.0493391
-0.0537908
0.0516204
0.051529
-0.0542044
0.0520144
0.0537395
-0.0546557
0.0524453
0.0559713
-0.055144
0.0529122
0.0582253
-0.0556683
0.0534143
0.0605026
-0.0562282
0.0539509
0.0628039
-0.0568231
0.0545218
0.0651334
-0.0574524
0.0551229
0.0674912
-0.058119
0.0557612
0.0698985
-0.0588167
0.0564093
0.0723381
-0.0595549
0.0571153
0.0748483
-0.0603361
0.057826
-0.0610121
0.0585283
0.077332
0.000414968
-0.00311901
0.00157932
-0.0144383
0.00331157
-0.0271379
0.00536815
-0.0381824
0.00753842
-0.0461647
0.00969361
-0.0510863
0.0117829
-0.0536683
0.013804
-0.0547597
0.015775
-0.0550368
0.0177163
-0.0549367
0.0196432
-0.0547021
0.0215658
-0.0544519
0.0234898
-0.0542376
0.0254186
-0.0540779
0.0273541
-0.053978
0.029298
-0.0539374
0.0312515
-0.0539539
0.0332158
-0.0540249
0.0351919
-0.0541478
0.037181
-0.0543204
0.039184
-0.0545404
0.0412021
-0.054806
0.0432361
-0.0551153
0.045287
-0.055467
0.0473557
-0.0558595
0.0494431
-0.0562918
0.05155
-0.0567626
0.0536771
-0.0572711
0.0558251
-0.0578163
0.0579946
-0.0583977
0.0601859
-0.0590144
0.0623996
-0.0596661
0.0646335
-0.0603528
0.0668902
-0.0610734
0.069174
-0.0618387
0.071472
-0.0626341
-0.063485
0.073945
0.000442097
-0.0035611
0.00164392
-0.0156401
0.00339014
-0.0288841
0.00542118
-0.0402134
0.00752784
-0.0482714
0.00959226
-0.0531507
0.0115757
-0.0556518
0.0134852
-0.0566691
0.0153437
-0.0568953
0.0171737
-0.0567668
0.0189913
-0.0565197
0.0208062
-0.0562669
0.0226239
-0.0560552
0.0244472
-0.0559012
0.0262781
-0.0558089
0.0281179
-0.0557771
0.0299676
-0.0558036
0.0318284
-0.0558857
0.0337012
-0.0560207
0.035587
-0.0562062
0.0374867
-0.0564401
0.0394013
-0.0567205
0.0413315
-0.0570456
0.0432783
-0.0574138
0.0452425
-0.0578237
0.0472247
-0.058274
0.0492257
-0.0587636
0.0512462
-0.0592916
0.0532867
-0.0598569
0.0553479
-0.0604588
0.0574303
-0.0610968
0.0595338
-0.0617696
0.0616597
-0.0624788
0.0638022
-0.063216
0.0659604
-0.0639969
0.0681137
-0.0647874
-0.0655711
0.0701998
0.000467398
-0.0040285
0.00170065
-0.0168734
0.00345281
-0.0306363
0.00545087
-0.0422114
0.00748814
-0.0503087
0.00945762
-0.0551202
0.0113323
-0.0575265
0.0131279
-0.0584647
0.0148723
-0.0586397
0.0165897
-0.0584842
0.0182966
-0.0582267
0.0200025
-0.0579727
0.0217124
-0.057765
0.0234288
-0.0576177
0.0251534
-0.0575335
0.0268874
-0.0575111
0.0286316
-0.0575479
0.030387
-0.057641
0.0321543
-0.057788
0.0339345
-0.0579864
0.0357284
-0.058234
0.0375367
-0.0585288
0.0393602
-0.0588691
0.0411997
-0.0592533
0.0430559
-0.0596799
0.0449296
-0.0601476
0.0468212
-0.0606553
0.0487315
-0.0612018
0.0506608
-0.0617863
0.0526098
-0.0624078
0.0545786
-0.0630656
0.0565679
-0.0637588
0.0585765
-0.0644874
0.0606087
-0.0652482
0.0626608
-0.066049
0.0647475
-0.066874
-0.0677246
0.0669009
0.000490898
-0.0045194
0.00174968
-0.0181322
0.00349848
-0.0323851
0.00545272
-0.0441657
0.00741045
-0.0522664
0.00927697
-0.0569867
0.0110374
-0.0592869
0.0127155
-0.0601428
0.0143431
-0.0602673
0.0159459
-0.060087
0.0175402
-0.059821
0.0191349
-0.0595675
0.0207348
-0.0593648
0.022342
-0.059225
0.0239581
-0.0591496
0.0255839
-0.0591369
0.0272202
-0.0591842
0.0288679
-0.0592887
0.0305276
-0.0594477
0.0322001
-0.0596589
0.0338862
-0.05992
0.0355865
-0.0602291
0.0373017
-0.0605843
0.0390324
-0.060984
0.0407794
-0.0614268
0.0425432
-0.0619114
0.0443243
-0.0624364
0.0461234
-0.0630009
0.0479408
-0.0636037
0.0497771
-0.0642441
0.0516325
-0.064921
0.0535074
-0.0656337
0.0554014
-0.0663814
0.0573146
-0.0671615
0.0592463
-0.0679806
0.0611882
-0.068816
-0.0696864
0.0631501
0.000512055
-0.00503146
0.00178974
-0.0194098
0.00352588
-0.0341212
0.00542689
-0.0460667
0.00729752
-0.054137
0.00905594
-0.0587451
0.0106989
-0.0609299
0.0122575
-0.0617014
0.0137671
-0.0617769
0.0152541
-0.061574
0.0167345
-0.0613014
0.0182168
-0.0610498
0.0197051
-0.0608531
0.0212014
-0.0607213
0.0227069
-0.0606551
0.0242224
-0.0606524
0.0257486
-0.0607104
0.0272862
-0.0608262
0.0288357
-0.0609973
0.0303979
-0.0612211
0.0319734
-0.0614955
0.0335628
-0.0618185
0.0351667
-0.0621882
0.0367858
-0.0626031
0.0384205
-0.0630616
0.0400716
-0.0635624
0.0417395
-0.0641043
0.0434246
-0.0646861
0.0451276
-0.0653067
0.0468488
-0.0659653
0.0485887
-0.0666609
0.0503477
-0.0673927
0.0521262
-0.06816
0.0539258
-0.0689611
0.0557448
-0.0697996
0.0575905
-0.0706617
-0.0715626
0.0594667
0.000530684
-0.00556214
0.00182035
-0.0206995
0.00353424
-0.0358351
0.00537218
-0.0479046
0.00714745
-0.0559123
0.00879183
-0.0603895
0.0103136
-0.0624516
0.0117505
-0.0631384
0.0131406
-0.063167
0.0145105
-0.0629439
0.0158758
-0.0626667
0.0172442
-0.0624182
0.0186195
-0.0622284
0.0200034
-0.0621052
0.0213969
-0.0620485
0.0228006
-0.0620561
0.0242151
-0.0621249
0.0256409
-0.0622521
0.0270787
-0.0624351
0.0285289
-0.0626714
0.0299922
-0.0629588
0.0314691
-0.0632954
0.0329601
-0.0636792
0.0344658
-0.0641088
0.0359867
-0.0645825
0.0375233
-0.065099
0.0390761
-0.0656571
0.0406457
-0.0662556
0.0422324
-0.0668934
0.0438367
-0.0675696
0.0454592
-0.0682833
0.0471002
-0.0690337
0.0487601
-0.0698199
0.0504399
-0.0706409
0.052139
-0.0714987
0.0538582
-0.0723809
-0.0733105
0.0556062
0.000546491
-0.00610863
0.00184078
-0.0219938
0.00352271
-0.037517
0.00528822
-0.0496701
0.00696093
-0.057585
0.00848668
-0.0619153
0.00988459
-0.0638495
0.0111984
-0.0644522
0.0124679
-0.0644365
0.0137199
-0.0641958
0.0149689
-0.0639157
0.0162223
-0.0636716
0.0174832
-0.0634893
0.0187531
-0.0633751
0.0200327
-0.0633282
0.0213227
-0.0633461
0.0226236
-0.0634257
0.0239357
-0.0635642
0.0252596
-0.063759
0.0265958
-0.0640076
0.0279448
-0.0643078
0.029307
-0.0646576
0.030683
-0.0650552
0.0320732
-0.065499
0.033478
-0.0659874
0.0348981
-0.0665191
0.0363339
-0.0670928
0.0377857
-0.0677074
0.0392542
-0.0683619
0.0407397
-0.0690551
0.0422427
-0.0697864
0.0437638
-0.0705548
0.0453034
-0.0713595
0.0468624
-0.0721999
0.0484399
-0.0730762
0.0500399
-0.0739809
-0.074935
0.0516643
0.000559254
-0.00666788
0.0018505
-0.023285
0.00349069
-0.0391572
0.00517461
-0.0513541
0.00673787
-0.0591483
0.00814064
-0.063318
0.00941235
-0.0651212
0.0106018
-0.0656416
0.01175
-0.0655847
0.0128831
-0.065329
0.0140151
-0.0650477
0.0151525
-0.0648089
0.0162979
-0.0646347
0.0174526
-0.0645298
0.0186172
-0.0644928
0.0197923
-0.0645211
0.020978
-0.0646115
0.022175
-0.0647612
0.0233836
-0.0649675
0.0246041
-0.0652281
0.0258371
-0.0655407
0.0270829
-0.0659034
0.028342
-0.0663143
0.0296149
-0.0667718
0.0309019
-0.0672744
0.0322035
-0.0678207
0.0335202
-0.0684095
0.0348524
-0.0690396
0.0362005
-0.06971
0.0375651
-0.0704197
0.0389465
-0.0711678
0.0403453
-0.0719535
0.0417619
-0.0727761
0.043197
-0.073635
0.0446504
-0.0745296
0.0461252
-0.0754556
-0.0764333
0.0476235
0.000568731
-0.00723661
0.00184898
-0.0245653
0.00343767
-0.0407459
0.00503134
-0.0529477
0.00647906
-0.060596
0.00775532
-0.0645943
0.0088991
-0.066265
0.00996327
-0.0667058
0.0109895
-0.066611
0.0120033
-0.0663428
0.0130175
-0.0660619
0.0140378
-0.0658292
0.0150666
-0.0656636
0.0161049
-0.0655681
0.0171532
-0.0655411
0.0182118
-0.0655797
0.0192811
-0.0656808
0.0203614
-0.0658414
0.021453
-0.0660591
0.0225562
-0.0663314
0.0236715
-0.066656
0.0247993
-0.0670311
0.0259398
-0.0674548
0.0270935
-0.0679256
0.0282609
-0.0684418
0.0294423
-0.0690021
0.030638
-0.0696053
0.0318487
-0.0702503
0.0330746
-0.0709359
0.0343162
-0.0716613
0.0355739
-0.0724255
0.0368483
-0.0732279
0.0381397
-0.0740675
0.0394486
-0.0749439
0.0407751
-0.0758561
0.0421221
-0.0768027
-0.0778005
0.0434893
0.000574705
-0.00781132
0.00183578
-0.0258264
0.00336339
-0.0422735
0.00485866
-0.054443
0.00618537
-0.0619227
0.00733217
-0.0657411
0.00834669
-0.0672795
0.00928506
-0.0676442
0.0101891
-0.067515
0.011083
-0.0672367
0.0119787
-0.0669576
0.0128813
-0.0667318
0.0137927
-0.066575
0.0147136
-0.0664891
0.0156445
-0.066472
0.0165856
-0.0665208
0.0175372
-0.0666323
0.0184994
-0.0668037
0.0194727
-0.0670324
0.0204572
-0.0673159
0.0214533
-0.0676522
0.0224614
-0.0680392
0.0234817
-0.0684752
0.0245146
-0.0689585
0.0255606
-0.0694877
0.0266199
-0.0700614
0.0276929
-0.0706784
0.0287801
-0.0713375
0.0298818
-0.0720376
0.0309985
-0.072778
0.0321305
-0.0735576
0.0332783
-0.0743757
0.0344424
-0.0752315
0.035623
-0.0761246
0.0368206
-0.0770537
0.0380377
-0.0780197
-0.0790358
0.0392729
0.000576978
-0.0083883
0.00181058
-0.02706
0.00326781
-0.0437308
0.00465715
-0.0558324
0.00585813
-0.0631237
0.00687313
-0.0667561
0.0077575
-0.0681639
0.00856977
-0.0684564
0.00935123
-0.0682964
0.0101249
-0.0680104
0.0109016
-0.0677343
0.0116858
-0.067516
0.0124789
-0.0673681
0.0132817
-0.0672918
0.0140942
-0.0672846
0.0149168
-0.0673433
0.0157495
-0.067465
0.0165926
-0.0676468
0.0174462
-0.067886
0.0183107
-0.0681804
0.0191863
-0.0685277
0.0200732
-0.0689261
0.0209718
-0.0693738
0.0218824
-0.0698691
0.0228053
-0.0704106
0.0237409
-0.070997
0.0246894
-0.0716269
0.0256514
-0.0722994
0.026627
-0.0730133
0.0276169
-0.0737678
0.0286212
-0.0745619
0.0296405
-0.075395
0.0306751
-0.0762662
0.0317254
-0.0771748
0.0327918
-0.0781201
0.0338765
-0.0791044
-0.0801363
0.034977
0.000575401
-0.0089637
0.00177324
-0.0282578
0.0031512
-0.0451087
0.00442779
-0.0571089
0.00549902
-0.0641949
0.00638047
-0.0676375
0.00713419
-0.0689176
0.00782027
-0.0691425
0.00847909
-0.0689552
0.0091323
-0.0686636
0.00978959
-0.0683916
0.0104547
-0.0681811
0.0111289
-0.0680423
0.0118127
-0.0679755
0.012506
-0.0679779
0.0132091
-0.0680464
0.0139221
-0.0681779
0.0146449
-0.0683697
0.0153779
-0.068619
0.0161212
-0.0689237
0.016875
-0.0692815
0.0176395
-0.0696906
0.018415
-0.0701493
0.0192018
-0.0706559
0.0200001
-0.0712089
0.0208103
-0.0718072
0.0216328
-0.0724493
0.0224677
-0.0731344
0.0233156
-0.0738612
0.0241768
-0.074629
0.0250517
-0.0754368
0.0259405
-0.0762838
0.0268438
-0.0771694
0.0277618
-0.0780928
0.0286952
-0.0790536
0.0296456
-0.0800548
-0.0811008
0.03061
0.000569888
-0.00953359
0.0017238
-0.0294117
0.00301416
-0.0463991
0.00417191
-0.0582667
0.00511006
-0.065133
0.0058567
-0.0683842
0.00647956
-0.0695405
0.00703954
-0.0697025
0.00757575
-0.0694915
0.0081083
-0.0691961
0.00864581
-0.0689291
0.00919147
-0.0687267
0.00974623
-0.0685971
0.0103103
-0.0685396
0.0108838
-0.0685514
0.0114667
-0.0686293
0.012059
-0.0687702
0.0126607
-0.0689714
0.013272
-0.0692303
0.0138931
-0.0695447
0.0145239
-0.0699124
0.0151648
-0.0703315
0.015816
-0.0708004
0.0164776
-0.0713175
0.01715
-0.0718813
0.0178334
-0.0724906
0.0185281
-0.0731441
0.0192345
-0.0738408
0.0199529
-0.0745796
0.0206837
-0.0753598
0.0214272
-0.0761803
0.0221839
-0.0770405
0.0229541
-0.0779396
0.0237381
-0.0788768
0.0245367
-0.0798522
0.0253506
-0.0808687
-0.0819271
0.0261769
0.000560374
-0.010094
0.00166244
-0.0305138
0.00285752
-0.0475942
0.00389111
-0.0593003
0.0046935
-0.0659354
0.0053045
-0.0689952
0.00579654
-0.0700325
0.00623065
-0.0701366
0.00664435
-0.0699052
0.00705615
-0.0696079
0.00747368
-0.0693467
0.00789952
-0.0691526
0.00833439
-0.069032
0.00877838
-0.0689836
0.00923143
-0.0690045
0.00969346
-0.0690913
0.0101644
-0.0692412
0.0106443
-0.0694513
0.0111332
-0.0697192
0.0116311
-0.0700426
0.0121381
-0.0704194
0.0126544
-0.0708478
0.0131801
-0.0713261
0.0137153
-0.0718528
0.0142604
-0.0724264
0.0148156
-0.0730457
0.0153812
-0.0737096
0.0159574
-0.074417
0.0165447
-0.0751669
0.0171433
-0.0759584
0.0177538
-0.0767908
0.0183765
-0.0776632
0.0190118
-0.0785749
0.0196603
-0.0795253
0.0203227
-0.0805146
0.0209991
-0.0815451
-0.0826149
0.0216869
0.000546622
-0.0106406
0.00158914
-0.0315563
0.00268186
-0.0486869
0.00358669
-0.0602051
0.00425125
-0.0666
0.0047262
-0.0694701
0.00508775
-0.070394
0.0053964
-0.0704453
0.00568782
-0.0701966
0.00597891
-0.069899
0.00627629
-0.069644
0.00658207
-0.0694584
0.0068967
-0.0693466
0.00722014
-0.0693071
0.00755227
-0.0693366
0.00789292
-0.069432
0.008242
-0.0695903
0.00859943
-0.0698087
0.00896516
-0.0700849
0.0093392
-0.0704166
0.00972157
-0.0708018
0.0101123
-0.0712386
0.0105116
-0.0717254
0.0109195
-0.0722607
0.0113363
-0.0728431
0.011762
-0.0734715
0.0121971
-0.0741447
0.0126418
-0.0748617
0.0130964
-0.0756215
0.0135613
-0.0764233
0.0140369
-0.0772664
0.0145238
-0.07815
0.0150223
-0.0790735
0.0155334
-0.0800363
0.0160579
-0.0810391
0.0165961
-0.0820833
-0.0831654
0.0171467
0.00052808
-0.0111687
0.00150339
-0.0325316
0.00248707
-0.0496706
0.00325915
-0.0609772
0.00378449
-0.0671253
0.00412365
-0.0698093
0.00435555
-0.0706259
0.00453959
-0.0706293
0.00470931
-0.0703663
0.00487999
-0.0700697
0.0050573
-0.0698214
0.00524291
-0.069644
0.00543707
-0.0695408
0.00563964
-0.0695096
0.00585039
-0.0695473
0.00606911
-0.0696507
0.00629565
-0.0698168
0.00652987
-0.070043
0.00677167
-0.0703267
0.00702098
-0.0706659
0.0072778
-0.0710586
0.00754211
-0.0715029
0.00781397
-0.0719972
0.00809347
-0.0725402
0.00838071
-0.0731304
0.00867588
-0.0737667
0.00897919
-0.074448
0.00929091
-0.0751734
0.00961136
-0.0759419
0.00994093
-0.0767529
0.0102801
-0.0776055
0.0106292
-0.0784992
0.010989
-0.0794333
0.0113601
-0.0804074
0.0117437
-0.0814227
0.0121404
-0.0824801
-0.0835756
0.0125507
0.000504444
-0.0116731
0.00140509
-0.0334323
0.00227337
-0.0505388
0.0029093
-0.0616131
0.00329485
-0.0675109
0.00349923
-0.0700137
0.00360298
-0.0707297
0.00366368
-0.07069
0.0037126
-0.0704152
0.00376345
-0.0701206
0.00382107
-0.069879
0.00388674
-0.0697096
0.00396056
-0.0696146
0.00404228
-0.0695913
0.00413159
-0.0696366
0.00422821
-0.0697473
0.00433191
-0.0699205
0.00444247
-0.0701535
0.00455975
-0.070444
0.00468362
-0.0707898
0.00481399
-0.071189
0.00495084
-0.0716397
0.00509414
-0.0721405
0.00524394
-0.07269
0.00540032
-0.0732868
0.00556339
-0.0739298
0.00573333
-0.0746179
0.00591036
-0.0753504
0.0060948
-0.0761264
0.00628703
-0.0769451
0.00648751
-0.077806
0.00669682
-0.0787085
0.00691559
-0.079652
0.0071446
-0.0806364
0.00738459
-0.0816627
0.00763569
-0.0827312
-0.0838389
0.00789898
0.000477363
-0.0121505
0.00129719
-0.0342521
0.00204494
-0.0512866
0.00254207
-0.0621103
0.00278771
-0.0677565
0.00285869
-0.0700846
0.00283576
-0.0707068
0.00277411
-0.0706283
0.00270277
-0.0703439
0.00263414
-0.0700519
0.00257235
-0.0698172
0.00251833
-0.0696556
0.00247206
-0.0695683
0.00243319
-0.0695525
0.00240132
-0.0696048
0.0023761
-0.0697221
0.0023572
-0.0699016
0.00234432
-0.0701406
0.0023372
-0.0704369
0.00233563
-0.0707882
0.00233945
-0.0711928
0.00234853
-0.0716488
0.00236281
-0.0721548
0.00238224
-0.0727094
0.00240684
-0.0733114
0.00243669
-0.0739596
0.0024719
-0.0746532
0.00251264
-0.0753912
0.00255916
-0.0761729
0.0026118
-0.0769978
0.00267098
-0.0778652
0.00273735
-0.0787749
0.00281163
-0.0797263
0.00289497
-0.0807198
0.00298891
-0.0817566
0.00309353
-0.0828358
0.00320984
-0.0839552
-2.78361e-05
-8.65571e-05
0.000114393
0.000356075
-0.000382718
-1.19309e-06
0.00137452
-0.000696613
-0.000321832
0.00305042
-0.000962029
-0.00071387
0.00528233
-0.00115404
-0.00107788
0.00792109
-0.00127578
-0.00136298
0.0108229
-0.00134323
-0.00155863
0.0138746
-0.00137439
-0.0016773
0.0169983
-0.00138405
-0.00173958
0.020146
-0.00138238
-0.00176535
0.0232917
-0.00137559
-0.00177012
0.0264233
-0.00136703
-0.00176451
0.0295367
-0.00135836
-0.00175512
0.0326326
-0.00135024
-0.00174568
0.0357137
-0.00134292
-0.0017381
0.0387833
-0.0013364
-0.00173327
0.0418455
-0.00133063
-0.0017315
0.0449038
-0.00132552
-0.00173285
0.0479621
-0.00132099
-0.00173725
0.0510236
-0.00131694
-0.0017446
0.0540917
-0.00131329
-0.0017548
0.0571694
-0.00130994
-0.00176776
0.0602596
-0.00130681
-0.0017834
0.0633651
-0.0013038
-0.00180169
0.0664885
-0.0013008
-0.00182259
0.0696323
-0.00129769
-0.00184608
0.0727989
-0.00129449
-0.00187214
0.0759907
-0.00129096
-0.00190084
0.07921
-0.00128706
-0.00193219
0.0824587
-0.00128234
-0.00196643
0.0857395
-0.00127748
-0.00200328
0.0890541
-0.00127131
-0.0020433
0.092405
-0.00126399
-0.00208688
0.0957933
-0.00125654
-0.0021318
0.0992244
-0.00124636
-0.0021847
0.102691
-0.00122991
-0.00223696
-0.00123899
0.106211
-0.00228076
-2.71681e-05
-5.93891e-05
0.000358952
-0.000768838
0.00138097
-0.00171864
0.00306131
-0.00264236
0.00529787
-0.0033906
0.00794095
-0.00391886
0.0108465
-0.00424881
0.0139013
-0.00442916
0.0170274
-0.00451017
0.0201772
-0.00453214
0.0233246
-0.00452298
0.0264576
-0.00450005
0.0295724
-0.00447318
0.0326696
-0.00444746
0.035752
-0.00442525
0.038823
-0.00440743
0.0418866
-0.0043942
0.0449465
-0.00438544
0.0480064
-0.0043809
0.0510698
-0.00438031
0.0541399
-0.00438337
0.0572197
-0.00438983
0.0603124
-0.00439943
0.0634205
-0.00441192
0.0665468
-0.0044271
0.0696938
-0.00444476
0.0728641
-0.00446471
0.0760598
-0.00448674
0.0792835
-0.00451069
0.0825373
-0.0045362
0.0858234
-0.00456359
0.089144
-0.00459187
0.0925018
-0.0046218
0.0958976
-0.0046523
0.0993371
-0.00468586
0.102815
-0.00470743
-0.00477446
0.10635
-2.33287e-05
-3.60606e-05
0.000370877
-0.00116304
0.00140261
-0.00275037
0.00309199
-0.00433174
0.00533526
-0.00563387
0.00798189
-0.0065655
0.0108878
-0.00715473
0.0139402
-0.00748151
0.0170618
-0.00763182
0.0202058
-0.00767611
0.0233467
-0.00766386
0.0264729
-0.00762625
0.0295808
-0.00758116
0.0326713
-0.00753796
0.0357471
-0.00750106
0.0388119
-0.0074722
0.0418695
-0.00745178
0.0449237
-0.00743964
0.0479782
-0.00743538
0.0510364
-0.0074385
0.0541015
-0.00744856
0.0571768
-0.00746509
0.0602651
-0.00748769
0.0633691
-0.00751599
0.0664917
-0.00754964
0.0696352
-0.00758833
0.0728023
-0.00763177
0.0759952
-0.00767965
0.0792163
-0.00773181
0.082468
-0.00778783
0.0857523
-0.00784795
0.0890716
-0.00791113
0.0924284
-0.00797864
0.0958241
-0.00804801
0.0992645
-0.00812622
0.102745
-0.00818784
-0.00831491
0.106285
-1.6066e-05
-1.99944e-05
0.000391998
-0.00157111
0.00143928
-0.00379765
0.00314186
-0.00603432
0.00539334
-0.00788535
0.00804211
-0.00921427
0.0109443
-0.0100569
0.0139882
-0.0105254
0.017098
-0.0107416
0.020228
-0.0108061
0.0233539
-0.0107897
0.0264647
-0.0107371
0.0295574
-0.0106738
0.0326329
-0.0106135
0.0356942
-0.0105624
0.0387449
-0.0105229
0.0417889
-0.0104958
0.0448299
-0.0104807
0.0478717
-0.0104771
0.0509175
-0.0104843
0.0539707
-0.0105017
0.0570343
-0.0105287
0.0601112
-0.0105646
0.0632043
-0.010609
0.0663161
-0.0106615
0.0694492
-0.0107215
0.0726062
-0.0107887
0.0757893
-0.0108628
0.0790009
-0.0109434
0.0822432
-0.0110302
0.0855186
-0.0111233
0.0888291
-0.0112216
0.0921771
-0.0113266
0.0955637
-0.0114347
0.098994
-0.0115565
0.102462
-0.0116559
-0.0118389
0.105986
-5.23892e-06
-1.47555e-05
0.000422078
-0.00199842
0.00149038
-0.00486595
0.0032098
-0.00775374
0.0054704
-0.010146
0.00811933
-0.0118632
0.0110133
-0.012951
0.0140423
-0.0135544
0.0171326
-0.0138319
0.0202403
-0.0139138
0.0233425
-0.013892
0.0264294
-0.0138239
0.0294984
-0.0137428
0.0325508
-0.0136659
0.0355896
-0.0136012
0.0386185
-0.0135518
0.0416413
-0.0135186
0.0446618
-0.0135012
0.0476836
-0.0134988
0.0507099
-0.0135107
0.053744
-0.0135359
0.056789
-0.0135737
0.0598477
-0.0136233
0.0629228
-0.0136842
0.0660171
-0.0137557
0.069133
-0.0138374
0.072273
-0.0139287
0.0754394
-0.0140292
0.0786345
-0.0141385
0.0818606
-0.0142563
0.0851198
-0.0143825
0.0884143
-0.0145161
0.0917462
-0.0146586
0.0951168
-0.0148053
0.0985305
-0.0149702
0.101982
-0.0151077
-0.0153485
0.105492
7.34989e-06
-2.21054e-05
0.00046037
-0.00245144
0.00155508
-0.00596065
0.00329454
-0.0094932
0.00556465
-0.0124161
0.00821129
-0.0145098
0.0110922
-0.0158319
0.0140997
-0.0165618
0.0171626
-0.0168949
0.0202398
-0.0169909
0.0233099
-0.0169621
0.0263644
-0.0168785
0.0294015
-0.0167799
0.0324227
-0.0166871
0.0354313
-0.0166097
0.0384308
-0.0165513
0.0414251
-0.0165129
0.0444178
-0.0164939
0.0474124
-0.0164934
0.0504122
-0.0165105
0.0534204
-0.016544
0.0564399
-0.0165931
0.0594735
-0.016657
0.062524
-0.0167347
0.0655939
-0.0168257
0.0686858
-0.0169292
0.071802
-0.0170449
0.0749449
-0.017172
0.0781166
-0.0173103
0.0813195
-0.0174592
0.0845556
-0.0176186
0.0878272
-0.0177876
0.091136
-0.0179675
0.0944841
-0.0181533
0.097875
-0.0183611
0.101304
-0.0185369
-0.01883
0.104786
2.39749e-05
-4.60803e-05
0.000507035
-0.0029345
0.00163264
-0.00708625
0.00339473
-0.0112553
0.0056742
-0.0146955
0.00831561
-0.0171513
0.0111782
-0.0186945
0.0141573
-0.0195409
0.0171853
-0.0199228
0.0202236
-0.0200292
0.0232534
-0.0199919
0.0262673
-0.0198924
0.0292645
-0.0197771
0.0322468
-0.0196694
0.0352175
-0.0195804
0.0381803
-0.0195141
0.0411388
-0.0194714
0.0440967
-0.0194517
0.0470572
-0.019454
0.0500237
-0.0194769
0.0529991
-0.0195194
0.0559863
-0.0195804
0.0589882
-0.0196588
0.0620073
-0.0197538
0.0650462
-0.0198646
0.0681073
-0.0199904
0.0711931
-0.0201306
0.0743057
-0.0202847
0.0774474
-0.020452
0.0806203
-0.0206322
0.0838265
-0.0208248
0.0870682
-0.0210292
0.0903469
-0.0212462
0.0936648
-0.0214712
0.0970244
-0.0217207
0.100425
-0.0219373
-0.022288
0.103883
4.33664e-05
-8.94467e-05
0.00056133
-0.00345247
0.00172198
-0.0082469
0.00350874
-0.0130421
0.00579681
-0.0169836
0.00842957
-0.019784
0.0112684
-0.0215333
0.0142122
-0.0224847
0.0171974
-0.022908
0.0201888
-0.0230207
0.0231702
-0.0229733
0.0261358
-0.022858
0.0290853
-0.0227266
0.0320213
-0.0226053
0.0349469
-0.022506
0.0378658
-0.022433
0.0407816
-0.0223872
0.0436977
-0.0223678
0.0466174
-0.0223737
0.0495438
-0.0224033
0.0524797
-0.0224554
0.0554281
-0.0225288
0.0583915
-0.0226223
0.0613727
-0.0227349
0.0643739
-0.0228658
0.0673977
-0.0230142
0.0704464
-0.0231792
0.0735221
-0.0233604
0.0766271
-0.023557
0.0797634
-0.0237685
0.082933
-0.0239944
0.086138
-0.0242343
0.0893801
-0.0244883
0.0926616
-0.0247527
0.0959844
-0.0250435
0.0993469
-0.0252998
-0.0257012
0.10276
6.53203e-05
-0.000154767
0.00062252
-0.00400967
0.0018218
-0.00944618
0.0036346
-0.0148549
0.00592988
-0.0192789
0.00855006
-0.0224042
0.0113592
-0.0243424
0.0142606
-0.0253862
0.0171954
-0.0258428
0.0201324
-0.0259577
0.0230577
-0.0258986
0.0259673
-0.0257676
0.0288619
-0.0256213
0.0317443
-0.0254877
0.0346178
-0.0253796
0.037486
-0.0253013
0.0403524
-0.0252536
0.0432201
-0.0252356
0.0460924
-0.0252459
0.0489721
-0.025283
0.0518621
-0.0253454
0.054765
-0.0254317
0.0576836
-0.0255408
0.0606202
-0.0256716
0.0635774
-0.025823
0.0665573
-0.0259941
0.0695624
-0.0261843
0.0725947
-0.0263927
0.0756563
-0.0266186
0.0787495
-0.0268616
0.0818759
-0.0271209
0.0850379
-0.0273963
0.0882367
-0.0276871
0.0914747
-0.0279906
0.0947531
-0.0283219
0.0980708
-0.0286175
-0.0290707
0.10144
8.95761e-05
-0.000244343
0.000689765
-0.00460986
0.00193058
-0.010687
0.00377003
-0.0166943
0.00607041
-0.0215793
0.0086735
-0.0250073
0.0114468
-0.0271157
0.0142988
-0.0282382
0.0171759
-0.0287198
0.0200508
-0.0288326
0.0229128
-0.0287605
0.0257594
-0.0286143
0.0285922
-0.0284541
0.0314143
-0.0283098
0.0342291
-0.0281944
0.03704
-0.0281122
0.0398504
-0.0280639
0.0426633
-0.0280485
0.0454817
-0.0280643
0.0483084
-0.0281097
0.0511461
-0.0281831
0.0539973
-0.028283
0.0568646
-0.0284081
0.0597504
-0.0285573
0.062657
-0.0287296
0.0655867
-0.0289238
0.0685417
-0.0291393
0.0715241
-0.0293751
0.074536
-0.0296306
0.0775796
-0.0299052
0.0806565
-0.0301978
0.0837691
-0.0305088
0.0869183
-0.0308364
0.0901068
-0.031179
0.0933354
-0.0315505
0.0966038
-0.0318858
-0.0323906
0.0999237
0.000115817
-0.00036016
0.000762084
-0.00525612
0.00204648
-0.0119714
0.00391227
-0.0185601
0.00621483
-0.0238818
0.00879577
-0.0275882
0.0115268
-0.0298467
0.0143225
-0.0310339
0.0171347
-0.031532
0.0199407
-0.0316386
0.0227326
-0.0315524
0.0255097
-0.0313913
0.0282743
-0.0312187
0.0310298
-0.0310653
0.0337796
-0.0309442
0.036527
-0.0308597
0.0392753
-0.0308121
0.0420272
-0.0308004
0.0447855
-0.0308227
0.047553
-0.0308772
0.0503321
-0.0309622
0.0531254
-0.0310763
0.0559352
-0.0312179
0.0587639
-0.031386
0.0616136
-0.0315793
0.0644866
-0.0317969
0.0673852
-0.0320378
0.0703113
-0.0323013
0.0732672
-0.0325864
0.0762548
-0.0328928
0.079276
-0.033219
0.0823329
-0.0335657
0.0854269
-0.0339303
0.0885601
-0.0343123
0.091734
-0.0347244
0.0949464
-0.0350982
-0.0356541
0.0982099
0.000143644
-0.000503804
0.000838257
-0.00595074
0.00216721
-0.0133003
0.00405796
-0.0204508
0.00635888
-0.0261827
0.00891208
-0.0301414
0.0115944
-0.032529
0.0143269
-0.0337665
0.0170676
-0.0342727
0.0197984
-0.0343694
0.0225141
-0.0342682
0.0252158
-0.0340929
0.0279063
-0.0339093
0.0305894
-0.0337484
0.0332685
-0.0336232
0.0359466
-0.0335378
0.0386268
-0.0334923
0.0413118
-0.0334854
0.0440042
-0.033515
0.0467065
-0.0335794
0.0494211
-0.0336768
0.0521503
-0.0338055
0.0548965
-0.0339641
0.0576618
-0.0341513
0.0604484
-0.0343659
0.0632585
-0.034607
0.0660942
-0.0348735
0.0689576
-0.0351647
0.0718508
-0.0354796
0.074776
-0.035818
0.0777351
-0.0361781
0.0807304
-0.036561
0.0837632
-0.0369631
0.0868357
-0.0373848
0.0899504
-0.0378391
0.0931031
-0.0382509
-0.0388614
0.0963104
0.000172576
-0.00067638
0.000916818
-0.00669498
0.00229011
-0.0146736
0.00420327
-0.022364
0.00649785
-0.0284773
0.00901723
-0.0326608
0.0116441
-0.0351559
0.014307
-0.0364294
0.0169701
-0.0369358
0.0196198
-0.0370191
0.022254
-0.0369023
0.0248749
-0.0367139
0.0274863
-0.0365207
0.0300919
-0.0363539
0.0326949
-0.0362263
0.0352984
-0.0361414
0.0379052
-0.0360991
0.0405178
-0.036098
0.0431386
-0.0361359
0.04577
-0.0362109
0.0484143
-0.0363211
0.0510736
-0.0364648
0.0537501
-0.0366406
0.056446
-0.0368472
0.0591633
-0.0370832
0.0619041
-0.0373478
0.0646705
-0.0376399
0.0674646
-0.0379588
0.0702884
-0.0383035
0.0731443
-0.0386739
0.0760343
-0.0390681
0.0789613
-0.039488
0.0819267
-0.0399285
0.0849327
-0.0403909
0.0879849
-0.0408913
0.0910726
-0.0413386
-0.0420116
0.0942227
0.000202089
-0.000878469
0.00099618
-0.00748907
0.00241236
-0.0160898
0.00434434
-0.024296
0.00662715
-0.0307601
0.00910626
-0.0351399
0.0116711
-0.0377207
0.014258
-0.0390162
0.0168376
-0.0395155
0.0194011
-0.0395826
0.0219488
-0.03945
0.0244843
-0.0392494
0.0270119
-0.0390483
0.0295353
-0.0388773
0.0320577
-0.0387486
0.0345818
-0.0386655
0.0371103
-0.0386276
0.0396454
-0.0386331
0.0421895
-0.03868
0.0447447
-0.0387661
0.0473132
-0.0388896
0.0498971
-0.0390486
0.0524983
-0.0392418
0.0551188
-0.0394677
0.0577608
-0.0397252
0.0604262
-0.0400131
0.0631169
-0.0403306
0.0658351
-0.0406769
0.0685827
-0.0410511
0.071362
-0.0414532
0.0741751
-0.0418812
0.0770253
-0.0423382
0.0799148
-0.042818
0.0828462
-0.0433223
0.0858321
-0.0438771
0.0888468
-0.0443533
-0.0451039
0.0919391
0.000231661
-0.00111013
0.00107481
-0.00833222
0.00253139
-0.0175464
0.00447773
-0.0262423
0.00674284
-0.0330253
0.00917505
-0.0375721
0.0116713
-0.040217
0.0141761
-0.041521
0.0166668
-0.0420062
0.019139
-0.0420548
0.0215956
-0.0419066
0.0240414
-0.0416952
0.026481
-0.0414878
0.028918
-0.0413143
0.0313554
-0.0411861
0.0337959
-0.041106
0.0362417
-0.0410734
0.0386949
-0.0410863
0.0411576
-0.0411427
0.0436319
-0.0412404
0.0461197
-0.0413773
0.0486229
-0.0415518
0.0511434
-0.0417623
0.0536831
-0.0420075
0.0562439
-0.042286
0.0588278
-0.042597
0.0614366
-0.0429394
0.0640723
-0.0433127
0.066737
-0.0437159
0.0694329
-0.044149
0.0721618
-0.0446101
0.0749265
-0.0451029
0.0777297
-0.0456212
0.0805727
-0.0461652
0.0834804
-0.0467848
0.0864083
-0.0472812
-0.0481395
0.0894439
0.000260748
-0.00137088
0.00115126
-0.00922273
0.00264493
-0.0190401
0.0046006
-0.028198
0.00684172
-0.0352664
0.0092203
-0.0399507
0.0116415
-0.0426382
0.0140583
-0.0439378
0.0164549
-0.0444029
0.0188312
-0.0444311
0.0211923
-0.0442677
0.0235441
-0.0440471
0.0258915
-0.0438352
0.0282381
-0.0436609
0.0305866
-0.0435346
0.0329393
-0.0434587
0.0352984
-0.0434324
0.0376656
-0.0434535
0.0400428
-0.04352
0.0424319
-0.0436294
0.0448345
-0.04378
0.0472525
-0.0439698
0.0496876
-0.0441974
0.0521414
-0.0444613
0.0546158
-0.0447604
0.0571124
-0.0450936
0.059633
-0.0454601
0.0621795
-0.0458592
0.064754
-0.0462904
0.0673586
-0.0467536
0.0699959
-0.0472474
0.0726674
-0.0477744
0.0753771
-0.0483309
0.0781197
-0.0489078
0.0809248
-0.04959
0.0837411
-0.0500975
-0.0510776
0.0866792
0.000288712
-0.00165959
0.00122413
-0.0101582
0.00275088
-0.0205668
0.00471025
-0.0301574
0.00692069
-0.0374768
0.00923887
-0.0422689
0.0115788
-0.0449781
0.0139023
-0.0462612
0.0162001
-0.0467007
0.0184761
-0.0467071
0.0207377
-0.0465293
0.0229916
-0.046301
0.0252428
-0.0460864
0.0274947
-0.0459128
0.0297501
-0.0457899
0.0320109
-0.0457195
0.034279
-0.0457005
0.036556
-0.0457306
0.0388436
-0.0458075
0.0411433
-0.0459291
0.0434567
-0.0460934
0.0457853
-0.0462985
0.0481307
-0.0465428
0.0504943
-0.0468249
0.0528776
-0.0471437
0.0552821
-0.0474981
0.0577093
-0.0478872
0.0601604
-0.0483104
0.0626373
-0.0487672
0.0651411
-0.0492574
0.0676751
-0.0497814
0.0702397
-0.050339
0.0728432
-0.0509344
0.0754779
-0.0515426
0.0781558
-0.0522678
0.080853
-0.0527947
-0.053796
0.0835714
0.000315121
-0.00197471