/*--------------------------------*- C++ -*----------------------------------*\
| =========                 |                                                 |
| \\      /  F ield         | OpenFOAM: The Open Source CFD Toolbox           |
|  \\    /   O peration     | Version:  2512                                  |
|   \\  /    A nd           | Website:  www.openfoam.com                      |
|    \\/     M anipulation  |                                                 |
\*---------------------------------------------------------------------------*/
FoamFile
{
    version     2.0;
    format      ascii;
    arch        "LSB;label=32;scalar=64";
    class       volScalarField;
    location    "177.15";
    object      p;
}
// * * * * * * * * * * * * * * * * * * * * * * * * * * * * * * * * * * * * * //

dimensions      [0 2 -2 0 0 0 0];

internalField   nonuniform List<scalar> 
13248
(
-0.303437
-0.304284
-0.303082
-0.300383
-0.296345
-0.291074
-0.284913
-0.278313
-0.271966
-0.266412
-0.262008
-0.258851
-0.25675
-0.255275
-0.253873
-0.252011
-0.249304
-0.245571
-0.240727
-0.234903
-0.227631
-0.219424
-0.20844
-0.19557
-0.309089
-0.30916
-0.30766
-0.305054
-0.301472
-0.296951
-0.291635
-0.285798
-0.279775
-0.273854
-0.268225
-0.26294
-0.257903
-0.252921
-0.247785
-0.242342
-0.236493
-0.23016
-0.223254
-0.215618
-0.207145
-0.197731
-0.187014
-0.17618
-0.316905
-0.315913
-0.313789
-0.31092
-0.307418
-0.303264
-0.298389
-0.292747
-0.286362
-0.279355
-0.271907
-0.264196
-0.256364
-0.248503
-0.240665
-0.23284
-0.224962
-0.216943
-0.208632
-0.200014
-0.190863
-0.181307
-0.171089
-0.160621
-0.326479
-0.324244
-0.321263
-0.317833
-0.314115
-0.309937
-0.304929
-0.298723
-0.291174
-0.282432
-0.272849
-0.262836
-0.252749
-0.242818
-0.233139
-0.223701
-0.21444
-0.205255
-0.196075
-0.186797
-0.177343
-0.167812
-0.157927
-0.148507
-0.337949
-0.334391
-0.330447
-0.326347
-0.322136
-0.317402
-0.311446
-0.303744
-0.294248
-0.283353
-0.271652
-0.259711
-0.247928
-0.236516
-0.225537
-0.21497
-0.204741
-0.194777
-0.184987
-0.17532
-0.165731
-0.156226
-0.146715
-0.137616
-0.351777
-0.346834
-0.341927
-0.337052
-0.331952
-0.325871
-0.317943
-0.307823
-0.295825
-0.282644
-0.269012
-0.255481
-0.242377
-0.229839
-0.217886
-0.206472
-0.195529
-0.18498
-0.174768
-0.164836
-0.155141
-0.145688
-0.136394
-0.127603
-0.368369
-0.361977
-0.356091
-0.350212
-0.343563
-0.335103
-0.324179
-0.310963
-0.296208
-0.280797
-0.26543
-0.250542
-0.236339
-0.222877
-0.210132
-0.198047
-0.186551
-0.17558
-0.165068
-0.154963
-0.145229
-0.135821
-0.126722
-0.118098
-0.387839
-0.379957
-0.37298
-0.365633
-0.356482
-0.344538
-0.329811
-0.313143
-0.29561
-0.278092
-0.261144
-0.245033
-0.229846
-0.215571
-0.202151
-0.189514
-0.177586
-0.166293
-0.15557
-0.14536
-0.135608
-0.126275
-0.117352
-0.108856
-0.409952
-0.400552
-0.392221
-0.382638
-0.369842
-0.353452
-0.334454
-0.314271
-0.294074
-0.274589
-0.256164
-0.238909
-0.222812
-0.207803
-0.193796
-0.180703
-0.168435
-0.156912
-0.14606
-0.135811
-0.126102
-0.116886
-0.108139
-0.0997684
-0.433945
-0.423075
-0.412942
-0.400063
-0.382489
-0.361007
-0.337613
-0.314043
-0.29135
-0.270022
-0.250205
-0.231874
-0.214932
-0.199264
-0.184752
-0.171287
-0.158766
-0.147094
-0.136187
-0.125963
-0.116353
-0.107303
-0.0987549
-0.0905624
-0.458663
-0.446351
-0.433731
-0.416339
-0.393048
-0.36618
-0.338496
-0.311752
-0.286748
-0.263713
-0.242609
-0.223294
-0.205605
-0.189377
-0.174463
-0.160729
-0.148054
-0.13633
-0.125458
-0.115348
-0.105926
-0.0971261
-0.0888441
-0.0809511
-0.482536
-0.468803
-0.452772
-0.42969
-0.400053
-0.367782
-0.336054
-0.306414
-0.27933
-0.254778
-0.232554
-0.212415
-0.194132
-0.177496
-0.162325
-0.14846
-0.135762
-0.124105
-0.113378
-0.103486
-0.0943523
-0.0859067
-0.0780249
-0.070629
-0.400114
-0.402198
-0.402774
-0.403137
-0.403976
-0.405517
-0.407829
-0.410942
-0.414888
-0.419712
-0.425486
-0.432306
-0.440305
-0.449641
-0.460486
-0.472995
-0.487255
-0.503222
-0.520647
-0.539056
-0.557697
-0.575599
-0.591708
-0.604369
-0.384719
-0.385404
-0.38493
-0.384129
-0.383596
-0.383608
-0.384319
-0.38587
-0.388439
-0.392255
-0.397597
-0.404768
-0.414075
-0.425802
-0.440149
-0.457179
-0.47678
-0.498626
-0.522007
-0.546051
-0.569616
-0.591251
-0.610059
-0.6239
-0.37122
-0.370851
-0.369561
-0.367861
-0.366247
-0.365044
-0.364476
-0.364762
-0.36618
-0.369085
-0.373888
-0.381019
-0.390874
-0.403774
-0.419898
-0.439205
-0.461401
-0.485917
-0.511865
-0.537983
-0.563222
-0.585603
-0.604942
-0.618132
-0.359354
-0.35807
-0.356167
-0.353784
-0.351282
-0.349021
-0.347288
-0.346356
-0.346565
-0.348337
-0.352155
-0.358514
-0.367856
-0.380499
-0.396584
-0.416008
-0.438373
-0.462939
-0.488854
-0.514481
-0.539079
-0.560446
-0.578353
-0.590672
-0.348513
-0.346674
-0.344371
-0.341475
-0.338186
-0.334871
-0.331887
-0.32958
-0.328335
-0.328608
-0.330908
-0.335755
-0.343605
-0.35478
-0.369402
-0.387333
-0.408176
-0.431117
-0.45549
-0.479735
-0.502772
-0.522798
-0.539951
-0.550344
-0.338385
-0.336423
-0.333976
-0.330717
-0.326691
-0.322244
-0.317816
-0.313859
-0.310841
-0.309258
-0.309642
-0.312517
-0.318342
-0.327445
-0.339955
-0.355736
-0.374427
-0.395222
-0.417497
-0.439712
-0.46226
-0.481292
-0.497083
-0.504895
-0.328872
-0.327224
-0.324877
-0.321407
-0.316722
-0.311108
-0.305086
-0.299253
-0.294214
-0.290561
-0.288876
-0.289705
-0.29352
-0.300655
-0.311258
-0.325212
-0.342225
-0.36172
-0.382878
-0.404133
-0.424548
-0.441255
-0.453686
-0.456578
-0.320046
-0.319043
-0.316982
-0.313448
-0.308252
-0.301597
-0.294075
-0.28642
-0.279404
-0.273772
-0.270211
-0.269332
-0.27164
-0.277483
-0.287027
-0.300161
-0.316481
-0.335001
-0.354621
-0.373536
-0.390259
-0.402209
-0.408143
-0.403931
-0.312136
-0.311968
-0.310248
-0.306752
-0.301258
-0.293843
-0.285256
-0.276268
-0.267803
-0.260777
-0.256025
-0.254258
-0.256002
-0.261559
-0.27089
-0.283531
-0.298693
-0.315017
-0.331243
-0.345337
-0.356133
-0.36137
-0.360246
-0.35017
-0.305674
-0.306307
-0.304878
-0.301474
-0.296043
-0.288053
-0.279213
-0.269799
-0.260888
-0.253534
-0.248662
-0.246975
-0.248839
-0.254256
-0.26284
-0.273803
-0.286009
-0.298059
-0.308668
-0.316224
-0.32036
-0.31959
-0.314547
-0.302998
-0.301586
-0.30273
-0.301468
-0.298159
-0.29284
-0.285591
-0.277071
-0.268155
-0.259821
-0.253103
-0.248763
-0.247299
-0.248879
-0.25323
-0.259666
-0.267228
-0.274675
-0.280942
-0.284936
-0.286168
-0.284748
-0.280501
-0.275066
-0.265413
-0.300766
-0.301989
-0.300812
-0.297773
-0.293015
-0.286682
-0.279177
-0.271463
-0.264238
-0.258284
-0.254256
-0.252439
-0.252742
-0.254701
-0.25756
-0.26043
-0.262408
-0.26292
-0.261445
-0.258272
-0.253194
-0.246869
-0.239804
-0.231084
-0.615585
-0.620854
-0.61222
-0.585066
-0.533182
-0.458994
-0.376964
-0.303481
-0.248468
-0.213621
-0.197235
-0.196395
-0.208298
-0.234392
-0.277701
-0.330963
-0.372344
-0.377498
-0.340786
-0.280426
-0.220342
-0.173582
-0.143251
-0.128756
-0.127381
-0.139438
-0.170309
-0.220398
-0.272193
-0.296919
-0.275169
-0.223722
-0.169258
-0.128453
-0.10468
-0.0968739
-0.107145
-0.131586
-0.151196
-0.147229
-0.125048
-0.100316
-0.0833179
-0.0776895
-0.0823877
-0.0910464
-0.0929418
-0.0863118
-0.0727301
-0.0603145
-0.0523837
-0.0498317
-0.046076
-0.0406926
-0.0343522
-0.0355204
-0.0352593
-0.0329245
-0.0181897
-0.00679715
-0.635075
-0.637984
-0.628633
-0.601581
-0.549181
-0.473583
-0.389522
-0.313224
-0.254761
-0.215413
-0.192832
-0.185459
-0.191086
-0.209787
-0.244272
-0.289968
-0.328041
-0.334437
-0.305087
-0.254038
-0.202636
-0.162041
-0.136216
-0.125736
-0.128244
-0.144727
-0.181195
-0.237339
-0.294262
-0.32191
-0.298633
-0.242204
-0.181084
-0.13346
-0.103414
-0.0893651
-0.0927161
-0.11031
-0.12521
-0.121465
-0.104432
-0.0867082
-0.0767325
-0.0781239
-0.0899059
-0.104399
-0.108101
-0.0997518
-0.0817291
-0.0637842
-0.0497566
-0.0415581
-0.0353855
-0.0302962
-0.0297737
-0.0377372
-0.0436098
-0.0451091
-0.0250669
-0.00668011
-0.627518
-0.628438
-0.619917
-0.593415
-0.541596
-0.467503
-0.385085
-0.310259
-0.251852
-0.210866
-0.184648
-0.171188
-0.169702
-0.180067
-0.204423
-0.240527
-0.274327
-0.285448
-0.262619
-0.222185
-0.179914
-0.145728
-0.124768
-0.118372
-0.124503
-0.144934
-0.185897
-0.246455
-0.307294
-0.338277
-0.315738
-0.256207
-0.189674
-0.1363
-0.100841
-0.0812079
-0.0783227
-0.0897747
-0.100722
-0.0981174
-0.0844457
-0.0727353
-0.0693665
-0.0779577
-0.0972567
-0.117905
-0.123425
-0.112919
-0.0902052
-0.0668755
-0.0471759
-0.0334523
-0.0248628
-0.0199672
-0.025264
-0.0396432
-0.0515059
-0.056952
-0.0320971
-0.00656844
-0.59757
-0.597641
-0.590948
-0.565109
-0.513884
-0.443251
-0.366866
-0.297655
-0.242111
-0.201265
-0.173271
-0.156027
-0.14827
-0.150293
-0.164148
-0.189671
-0.216956
-0.229378
-0.215939
-0.186551
-0.153264
-0.125476
-0.10922
-0.106475
-0.115598
-0.138685
-0.182102
-0.245614
-0.309866
-0.344471
-0.325044
-0.264878
-0.194517
-0.136814
-0.0970707
-0.0728924
-0.0646468
-0.070802
-0.0783066
-0.075478
-0.0652611
-0.0585204
-0.0611558
-0.0768719
-0.103981
-0.131229
-0.138685
-0.125595
-0.098003
-0.0694835
-0.0446841
-0.0256866
-0.014731
-0.00983331
-0.0207774
-0.0411553
-0.0587382
-0.0682865
-0.0392068
-0.00647564
-0.553652
-0.552599
-0.547355
-0.522238
-0.473194
-0.408785
-0.34109
-0.279537
-0.228596
-0.189031
-0.160117
-0.140388
-0.128542
-0.123996
-0.128152
-0.142967
-0.162528
-0.174619
-0.168854
-0.149114
-0.124102
-0.102331
-0.0902432
-0.090584
-0.102012
-0.126407
-0.170216
-0.234395
-0.301009
-0.339214
-0.325597
-0.267807
-0.195709
-0.1352
-0.0923853
-0.0646713
-0.0520773
-0.0537215
-0.0584084
-0.0551114
-0.047229
-0.0442036
-0.0519417
-0.0744433
-0.109651
-0.14392
-0.153539
-0.137601
-0.105036
-0.071561
-0.0423202
-0.0184115
-0.0051772
-9.07812e-06
-0.0162592
-0.0422044
-0.0651161
-0.0789789
-0.0463123
-0.00641879
-0.502803
-0.497911
-0.492713
-0.468632
-0.423914
-0.368589
-0.311796
-0.259142
-0.213697
-0.176405
-0.147207
-0.125622
-0.110643
-0.101449
-0.098548
-0.103695
-0.114908
-0.12476
-0.124555
-0.111774
-0.0940167
-0.0776872
-0.0692057
-0.0720609
-0.0851383
-0.109728
-0.151814
-0.213636
-0.280722
-0.323031
-0.31638
-0.264145
-0.193295
-0.131693
-0.087062
-0.0568173
-0.0407985
-0.0387318
-0.0412193
-0.0373655
-0.0307094
-0.0300309
-0.0418381
-0.0705846
-0.113702
-0.155345
-0.167524
-0.148692
-0.111196
-0.0730613
-0.0401175
-0.0117709
0.00363995
0.00937481
-0.0116841
-0.0427234
-0.0704802
-0.0889855
-0.053306
-0.00640906
-0.446365
-0.436049
-0.431047
-0.409977
-0.372696
-0.328507
-0.283012
-0.2392
-0.199365
-0.164857
-0.136097
-0.113156
-0.0956738
-0.082875
-0.0746256
-0.0721843
-0.0758216
-0.0815033
-0.0836461
-0.0761176
-0.0647341
-0.0531201
-0.047622
-0.0522807
-0.0664271
-0.0904285
-0.129041
-0.185824
-0.250288
-0.296167
-0.29791
-0.25406
-0.187478
-0.126657
-0.0814716
-0.0496272
-0.0309942
-0.0258752
-0.026712
-0.0223295
-0.0160002
-0.0164951
-0.031054
-0.0649288
-0.115767
-0.164932
-0.180123
-0.158686
-0.116414
-0.0739587
-0.0380731
-0.00588115
0.0115848
0.0182007
-0.00704617
-0.0426867
-0.0747088
-0.0975202
-0.0600507
-0.00646536
-0.385113
-0.371501
-0.368489
-0.352543
-0.324484
-0.29157
-0.256382
-0.22058
-0.186203
-0.154861
-0.127297
-0.103817
-0.0845552
-0.0691114
-0.0570194
-0.0488968
-0.0458782
-0.0466089
-0.0478525
-0.0446131
-0.0377217
-0.0299507
-0.0268985
-0.0327025
-0.0472329
-0.0698796
-0.104256
-0.154465
-0.213929
-0.26202
-0.27228
-0.238523
-0.178676
-0.120359
-0.07579
-0.0432763
-0.0227608
-0.0150978
-0.0147018
-0.0100087
-0.00337448
-0.00398037
-0.0199377
-0.0577399
-0.115241
-0.171717
-0.190581
-0.16721
-0.120596
-0.0742279
-0.0361412
-0.000806097
0.0185605
0.0263338
-0.00236438
-0.0420779
-0.0777202
-0.104838
-0.0664223
-0.00661204
-0.32645
-0.313861
-0.313799
-0.303223
-0.283682
-0.260104
-0.233228
-0.204189
-0.1748
-0.146632
-0.120683
-0.0973689
-0.077052
-0.0598325
-0.0452636
-0.0333658
-0.0251292
-0.0208813
-0.0195707
-0.0186107
-0.0131468
-0.00890993
-0.00794003
-0.0142648
-0.0287159
-0.0500037
-0.0795683
-0.121846
-0.175215
-0.223326
-0.246283
-0.219135
-0.167383
-0.112943
-0.0699657
-0.0377047
-0.016015
-0.00626656
-0.00489047
-0.00025947
0.00702543
0.00712196
-0.00876899
-0.048524
-0.11195
-0.175635
-0.198465
-0.174208
-0.123682
-0.0738501
-0.0342936
0.00342565
0.0244962
0.0337083
0.0023662
-0.0409705
-0.0795325
-0.110888
-0.0723002
-0.0068784
-0.280747
-0.27151
-0.272502
-0.264881
-0.250965
-0.233767
-0.213077
-0.18961
-0.164763
-0.139773
-0.115679
-0.0931053
-0.0724531
-0.0541218
-0.0380456
-0.0239652
-0.0123728
-0.00400229
0.00113923
0.00405828
0.00776206
0.00904563
0.00826306
0.00184772
-0.0118841
-0.0314421
-0.0567531
-0.0918996
-0.136616
-0.181825
-0.207747
-0.193366
-0.152987
-0.104485
-0.0641684
-0.0330689
-0.0108168
0.000659791
0.00295659
0.00716309
0.0146414
0.0164122
0.00173524
-0.0383111
-0.105381
-0.175253
-0.202737
-0.178803
-0.125552
-0.0728998
-0.0326483
0.00665446
0.029354
0.0401748
0.00707007
-0.0393591
-0.0801291
-0.11557
-0.0775637
-0.0072988
-0.248914
-0.243239
-0.243243
-0.236437
-0.225857
-0.212957
-0.196991
-0.178137
-0.157231
-0.135227
-0.113087
-0.0915891
-0.0712186
-0.0523726
-0.0352728
-0.0198102
-0.00613639
0.00529837
0.0141391
0.0202788
0.0258357
0.0239673
0.0218625
0.0156375
0.00296852
-0.0148813
-0.0359848
-0.0635773
-0.101037
-0.143147
-0.171988
-0.170842
-0.139819
-0.0971421
-0.0595366
-0.0299052
-0.00746065
0.00569661
0.00908179
0.012492
0.020378
0.0240157
0.0119409
-0.0266709
-0.095644
-0.17242
-0.203852
-0.181931
-0.126687
-0.0717634
-0.0312203
0.00876435
0.0329559
0.0457994
0.011817
-0.0374272
-0.0797099
-0.118854
-0.0820162
-0.00787586
-0.223704
-0.222793
-0.220685
-0.213277
-0.204359
-0.194336
-0.18223
-0.167619
-0.150637
-0.131843
-0.112053
-0.092048
-0.0724325
-0.0537107
-0.0362119
-0.0199756
-0.00523642
0.00757309
0.0184439
0.0266112
0.0286168
0.0332138
0.031193
0.0258595
0.0152531
-0.00116478
-0.0195697
-0.041407
-0.0706795
-0.105151
-0.131211
-0.136513
-0.119022
-0.0859919
-0.0528304
-0.0254603
-0.00403808
0.0100802
0.0145506
0.0170491
0.0240969
0.0289315
0.0197465
-0.0152862
-0.08299
-0.163872
-0.199851
-0.180734
-0.125865
-0.069617
-0.0287931
0.0109547
0.0355753
0.0500971
0.0164482
-0.0350488
-0.0781221
-0.120685
-0.085296
-0.00848522
-0.200639
-0.210213
-0.206435
-0.196586
-0.185647
-0.174685
-0.162953
-0.149479
-0.133911
-0.116576
-0.0982567
-0.0797252
-0.0615064
-0.0439959
-0.0274454
-0.0118391
0.00261594
0.0154641
0.0267402
0.035983
0.0411665
0.0437154
0.0402628
0.0342185
0.0254562
0.0131631
-0.00142003
-0.0195717
-0.0449627
-0.077922
-0.108079
-0.119582
-0.101075
-0.0709918
-0.041227
-0.0169243
0.00206566
0.0152508
0.0196509
0.0214298
0.0282307
0.0358054
0.0293135
-0.00231874
-0.0681895
-0.153446
-0.1952
-0.178442
-0.121326
-0.0642819
-0.0244647
0.0140571
0.0384023
0.0543353
0.021154
-0.0324492
-0.0758765
-0.121312
-0.0874258
-0.0090399
-0.17512
-0.187384
-0.185259
-0.175027
-0.163333
-0.15238
-0.141673
-0.129901
-0.116319
-0.101024
-0.0846808
-0.0680019
-0.0514806
-0.0354567
-0.0200948
-0.0054334
0.00817053
0.0202619
0.0309962
0.0401224
0.0453406
0.0477871
0.0446518
0.038949
0.0316879
0.0220588
0.0102848
-0.0041259
-0.0256655
-0.0566721
-0.086089
-0.0955877
-0.0806458
-0.0551295
-0.0297972
-0.00895944
0.00719673
0.0191555
0.023442
0.0247922
0.0311914
0.0384645
0.0346754
0.00638798
-0.0562448
-0.142839
-0.18769
-0.170949
-0.114657
-0.0580288
-0.0200014
0.0166251
0.0404587
0.0566918
0.0244638
-0.0304349
-0.0734299
-0.120591
-0.0886203
-0.00966054
-0.152489
-0.165129
-0.164603
-0.155652
-0.144703
-0.134403
-0.12465
-0.11425
-0.102309
-0.0887179
-0.0739856
-0.0587653
-0.0435452
-0.0286381
-0.0142468
-0.000425577
0.0125962
0.0242684
0.03451
0.04349
0.0511074
0.0515222
0.0481232
0.0426442
0.0365814
0.0284247
0.0177289
0.00592649
-0.0106527
-0.0360852
-0.0626634
-0.0726731
-0.0615335
-0.0408836
-0.0197821
-0.00192539
0.0118308
0.0226412
0.0265533
0.0274944
0.0334523
0.0409587
0.0378546
0.0114411
-0.0478055
-0.13117
-0.17547
-0.160163
-0.10652
-0.0513916
-0.0155606
0.0186925
0.0418565
0.0579537
0.0265962
-0.0290846
-0.0705478
-0.118335
-0.0888636
-0.010382
-0.133211
-0.144509
-0.144985
-0.137546
-0.127575
-0.117872
-0.108732
-0.0992522
-0.0885838
-0.0764886
-0.0633051
-0.0495712
-0.0357528
-0.0221482
-0.0089125
0.00385538
0.0159533
0.026924
0.036607
0.0450731
0.0514389
0.0531911
0.0505278
0.0458604
0.0413031
0.035177
0.0265945
0.017704
0.0055682
-0.0165981
-0.0418232
-0.0513197
-0.0429249
-0.0268362
-0.0099801
0.00488249
0.0161175
0.0255121
0.0288622
0.0295249
0.0349209
0.0426334
0.040123
0.0150705
-0.0392674
-0.115986
-0.158864
-0.145765
-0.0964824
-0.044123
-0.0109223
0.0204121
0.0424853
0.0581843
0.0279987
-0.0277169
-0.0668904
-0.114495
-0.0879354
-0.0111305
-0.115265
-0.125482
-0.126533
-0.120367
-0.111464
-0.10252
-0.0940881
-0.0855764
-0.0762161
-0.0656488
-0.0540232
-0.0417563
-0.0292628
-0.0168458
-0.00467792
0.00711642
0.0183485
0.0286167
0.0376997
0.0455611
0.0515313
0.053777
0.0521609
0.0487894
0.0460601
0.043254
0.0389194
0.0325517
0.0209869
-0.000740732
-0.0230366
-0.0311136
-0.0255787
-0.0140572
-0.00127945
0.0108941
0.0200395
0.0279574
0.0306031
0.0309505
0.0357218
0.0431557
0.0413425
0.0184968
-0.0287493
-0.0974003
-0.138063
-0.127783
-0.0846779
-0.036564
-0.00645954
0.0217264
0.0423449
0.0572789
0.0289887
-0.0259454
-0.0624381
-0.108931
-0.085661
-0.0118365
-0.0986527
-0.108063
-0.109386
-0.104269
-0.0964974
-0.088489
-0.0808839
-0.0732982
-0.0650609
-0.055777
-0.0454863
-0.0345169
-0.0232504
-0.0119976
-0.000931636
0.0098293
0.0201155
0.0295862
0.0380233
0.0452978
0.0509282
0.0536232
0.0532003
0.051367
0.0503406
0.0503625
0.0497317
0.0448518
0.0326206
0.0125366
-0.00576638
-0.0128913
-0.0101437
-0.00251517
0.00668021
0.0163193
0.0236285
0.0299639
0.0319039
0.0318865
0.0360029
0.042557
0.0416292
0.022002
-0.0173529
-0.0768423
-0.114091
-0.106865
-0.0712931
-0.0288564
-0.00232515
0.0226851
0.0414649
0.0551872
0.0295766
-0.023774
-0.0572593
-0.1016
-0.0818777
-0.0123925
-0.0838305
-0.0921917
-0.0936275
-0.0894298
-0.0827361
-0.0756693
-0.0688831
-0.0621351
-0.0548743
-0.0467304
-0.0376832
-0.0279821
-0.0179477
-0.00785531
0.0021274
0.0118745
0.0212323
0.0299131
0.0377118
0.044463
0.0498201
0.0528954
0.0535514
0.0531048
0.0533476
0.0547656
0.0556649
0.0519237
0.0409103
0.0242252
0.00955904
0.00276701
0.00299662
0.00741537
0.0135835
0.0209346
0.0267918
0.0316495
0.0330184
0.0325697
0.0359899
0.0412257
0.0409641
0.0246762
-0.00668806
-0.0557258
-0.0882784
-0.0840839
-0.0567428
-0.0212405
0.00121747
0.0233575
0.0399102
0.0519295
0.0295376
-0.0212257
-0.0514083
-0.0925329
-0.0764534
-0.0126818
-0.0703733
-0.0777041
-0.0792396
-0.0758346
-0.0700978
-0.0639131
-0.057921
-0.051973
-0.0456198
-0.0385259
-0.0306316
-0.0221117
-0.0132269
-0.00422646
0.0047193
0.0134813
0.021927
0.0298249
0.0369863
0.043238
0.0483178
0.0516603
0.053168
0.0537907
0.0548566
0.0566281
0.0577788
0.0552576
0.0466423
0.0335725
0.0217596
0.0151281
0.0135415
0.0156619
0.0195326
0.0248713
0.029493
0.0330713
0.034065
0.0332551
0.035912
0.0396086
0.0394235
0.0261993
0.00268582
-0.0352709
-0.0623421
-0.0609731
-0.0416877
-0.0138992
0.0041054
0.0238977
0.0377796
0.0475354
0.0287354
-0.0181569
-0.0449192
-0.0818677
-0.0693196
-0.0125745
-0.0579387
-0.0645629
-0.0661766
-0.0634218
-0.0585321
-0.0531723
-0.0479428
-0.0427543
-0.0372375
-0.0310929
-0.0242394
-0.0167997
-0.00899123
-0.00103305
0.00691514
0.0147329
0.0223019
0.0294393
0.0359752
0.041741
0.0465445
0.0500357
0.0521641
0.0535431
0.055086
0.0568354
0.0578681
0.0561675
0.0497623
0.0397991
0.0303895
0.0242883
0.021708
0.0222876
0.0245
0.0281283
0.0316697
0.0342982
0.0350177
0.034062
0.0359851
0.0382007
0.0375375
0.0270998
0.0107658
-0.0166902
-0.0381209
-0.0396019
-0.0269334
-0.00700876
0.0064623
0.0244856
0.0353011
0.0419854
0.0273361
-0.0143096
-0.037841
-0.0698958
-0.0605166
-0.011956
-0.0468176
-0.0527515
-0.0543401
-0.0521298
-0.0480025
-0.0433987
-0.0388732
-0.0343839
-0.0296287
-0.0243409
-0.0184311
-0.0119846
-0.00517917
0.00180086
0.00880859
0.0157352
0.0224732
0.0288758
0.0347997
0.0400952
0.0446145
0.0481393
0.0506528
0.0524981
0.054252
0.0558598
0.0566665
0.0554006
0.050749
0.0433465
0.0360184
0.0307241
0.027793
0.0274233
0.0285298
0.0308032
0.0333736
0.0353701
0.0358281
0.0349137
0.0362329
0.0374633
0.0361467
0.0279363
0.0173073
-0.00107019
-0.0171002
-0.0209875
-0.0134719
-0.000724199
0.00866913
0.0252871
0.0330255
0.0370199
0.0259127
-0.00935798
-0.0302465
-0.0571125
-0.050274
-0.0107514
-0.0369618
-0.0420899
-0.0436162
-0.0418946
-0.0384477
-0.0345204
-0.0306334
-0.0267824
-0.0227191
-0.018206
-0.0131515
-0.00760909
-0.00172332
0.00435166
0.0104821
0.016572
0.0225274
0.0282329
0.033567
0.0383963
0.0426095
0.0460616
0.0487478
0.0508255
0.0526239
0.0540677
0.054692
0.0537194
0.0503977
0.0450128
0.0394113
0.0350429
0.0321796
0.0312823
0.031672
0.0329496
0.0346922
0.0362503
0.0364689
0.0357151
0.0365972
0.0373562
0.0347312
0.0289372
0.0222512
0.0109165
-0.000512429
-0.00621955
-0.00227634
0.00486505
0.0111055
0.0261841
0.0316109
0.0331837
0.0253423
-0.00300877
-0.0222333
-0.0442577
-0.0391462
-0.0089778
-0.0279461
-0.0324634
-0.0339715
-0.0326633
-0.0298009
-0.0264735
-0.0231638
-0.0198902
-0.016449
-0.0126303
-0.00834226
-0.00361382
0.00143686
0.00668141
0.0120013
0.0173141
0.0225392
0.0275858
0.032352
0.0367224
0.0406069
0.0438995
0.0465938
0.0487397
0.0505018
0.051804
0.0523337
0.0516164
0.0492825
0.0454358
0.0412386
0.0377554
0.0351979
0.0340611
0.0340068
0.034622
0.0357042
0.0369002
0.036939
0.036367
0.0369828
0.037688
0.0356913
0.0309123
0.026482
0.0193515
0.0110495
0.00456433
0.00630343
0.00981338
0.0139488
0.0269656
0.0313201
0.031278
0.0265463
0.00466863
-0.0139745
-0.0322657
-0.0281086
-0.00679041
-0.0198563
-0.0238923
-0.0253423
-0.0243534
-0.0219926
-0.0191988
-0.0164062
-0.0136476
-0.0107592
-0.00755596
-0.00394837
5.23486e-05
0.00435014
0.00883936
0.0134177
0.0180159
0.0225649
0.0269922
0.0312153
0.0351353
0.0386748
0.0417464
0.0443388
0.0464443
0.0481314
0.0493253
0.0498361
0.0493643
0.0477621
0.0450757
0.0419914
0.0392947
0.0371433
0.0359628
0.0356517
0.03586
0.0364463
0.0373139
0.0372485
0.0368344
0.0372842
0.0380693
0.0371558
0.0334647
0.0303288
0.0251495
0.018509
0.0122584
0.012624
0.0142121
0.0170427
0.0274718
0.0317638
0.0313633
0.0294856
0.0127387
-0.00587263
-0.021906
-0.0183684
-0.00450506
-0.0127631
-0.0162594
-0.0175986
-0.0168775
-0.0149597
-0.0126377
-0.0103017
-0.00799768
-0.00559521
-0.00293248
7.50193e-05
0.00342867
0.00705339
0.0108632
0.0147706
0.0187173
0.0226447
0.0264954
0.0302012
0.0336811
0.0368666
0.0396826
0.0421066
0.0441065
0.0457015
0.0468181
0.0473536
0.0471138
0.0460618
0.0442369
0.0420283
0.0399901
0.0382628
0.0371627
0.0367226
0.0367026
0.0369344
0.0375194
0.037407
0.0371264
0.0374492
0.0382243
0.0380095
0.0355092
0.0330537
0.0289185
0.0232648
0.0177347
0.0172591
0.0180117
0.0198689
0.0276048
0.0320593
0.0323266
0.0321487
0.0191642
0.00115842
-0.0136162
-0.0108484
-0.00251568
-0.0063967
-0.00941839
-0.0106735
-0.0101855
-0.00864743
-0.00673331
-0.00479541
-0.00288883
-0.000910336
0.00128042
0.00376251
0.00654693
0.00957629
0.0127809
0.0160866
0.0194444
0.022805
0.0261235
0.0293435
0.0323986
0.0352283
0.0377697
0.0399932
0.0418526
0.0433468
0.0444072
0.0449842
0.044952
0.0443192
0.0431254
0.0415919
0.0400919
0.0387602
0.0378122
0.0373267
0.0371947
0.0371852
0.0375454
0.037417
0.0372306
0.0374483
0.0380785
0.0381728
0.0364098
0.0343232
0.0310494
0.026304
0.0215151
0.0197441
0.0210253
0.0221597
0.0275339
0.0317604
0.0328841
0.0329539
0.0225663
0.00627489
-0.00728263
-0.00572295
-0.00106782
-0.000694538
-0.00334708
-0.00452359
-0.0042146
-0.0029914
-0.00142768
0.00016362
0.00172383
0.00333471
0.00511739
0.00714509
0.0094342
0.0119416
0.0146115
0.0173818
0.0202121
0.023061
0.0258935
0.028663
0.0313149
0.0337981
0.0360589
0.0380653
0.0397674
0.0411558
0.0421695
0.0427873
0.0429273
0.042613
0.0418788
0.0408604
0.0397921
0.0388019
0.0380366
0.0375571
0.0373802
0.0372252
0.0374114
0.0372817
0.0371355
0.0372572
0.0376728
0.037799
0.0364592
0.0345928
0.0320128
0.0281784
0.0241506
0.0223019
0.0232695
0.0238001
0.027292
0.0308589
0.0324387
0.0318373
0.0231734
0.00934908
-0.00244262
-0.00243071
-0.000165902
0.00431408
0.0020147
0.000940219
0.00111225
0.00206807
0.00332834
0.00461961
0.00588179
0.00717813
0.00861163
0.010249
0.01211
0.0141635
0.0163651
0.0186636
0.0210252
0.023417
0.0258106
0.0281673
0.0304429
0.032597
0.0345819
0.0363668
0.0379047
0.0391825
0.040149
0.0407952
0.0410674
0.0409909
0.0405903
0.0399568
0.0392318
0.038519
0.0379353
0.0374957
0.0373075
0.0370833
0.0371346
0.0370066
0.0368592
0.0368895
0.0370784
0.0370907
0.0360128
0.0343411
0.0322371
0.0292015
0.0259125
0.0240784
0.0247108
0.0248404
0.0269446
0.0296116
0.0311575
0.0299726
0.0224955
0.0110169
0.00120676
-0.000282173
0.00035605
0.00874196
0.00676766
0.00578996
0.00584955
0.00657937
0.00758106
0.00861612
0.00962409
0.0106528
0.0117892
0.0130939
0.0145881
0.0162506
0.0180458
0.0199324
0.021882
0.0238682
0.0258686
0.0278526
0.029785
0.0316318
0.0333521
0.0349189
0.0362915
0.0374548
0.0383669
0.0390228
0.0393872
0.0394815
0.039318
0.0389659
0.0385066
0.038014
0.0375907
0.0372121
0.0370264
0.036786
0.0367358
0.036601
0.0364332
0.0363723
0.0363368
0.0362134
0.0353013
0.0338306
0.0320332
0.0296202
0.0270045
0.0252484
0.0254752
0.0253952
0.0264954
0.0282039
0.0293691
0.0278796
0.0213923
0.0118631
0.00382292
0.00125366
0.000690172
0.0126688
0.0109662
0.0100749
0.0100478
0.0105916
0.0113749
0.0121915
0.0129835
0.0137867
0.014673
0.0156967
0.0168799
0.0182086
0.0196545
0.0211843
0.0227744
0.0244046
0.0260569
0.0277076
0.0293279
0.0308929
0.0323665
0.0337246
0.0349334
0.0359785
0.0368271
0.0374731
0.0378909
0.0380984
0.0381017
0.0379477
0.037688
0.0373651
0.0370721
0.0367641
0.0365867
0.0363568
0.0362368
0.0360835
0.0358878
0.0357418
0.0355497
0.0352826
0.0344638
0.0331818
0.0316026
0.0296402
0.0275755
0.0259415
0.0257675
0.0255422
0.0259446
0.0267701
0.0273716
0.0257626
0.0201732
0.0122216
0.00559289
0.00243135
0.000933218
0.0161162
0.0146541
0.013851
0.0137617
0.0141525
0.0147512
0.0153828
0.0159932
0.0166076
0.017285
0.0180731
0.0189941
0.0200397
0.0211875
0.022411
0.0236911
0.0250118
0.026359
0.0277146
0.029053
0.0303648
0.0316106
0.032772
0.033822
0.0347466
0.0355206
0.0361375
0.0365768
0.0368511
0.0369645
0.0369451
0.0368275
0.0366315
0.0364373
0.0361982
0.0360325
0.0358205
0.0356573
0.0354785
0.035254
0.0350267
0.0347294
0.0343523
0.0335828
0.0324562
0.0310611
0.0294108
0.0277504
0.0262635
0.0257343
0.0253869
0.0253062
0.0253892
0.0253629
0.0237329
0.0189502
0.0122743
0.00671912
0.00333032
0.00113203
0.0191348
0.0178916
0.0171764
0.0170408
0.0173059
0.0177501
0.0182258
0.018683
0.0191393
0.0196429
0.0202352
0.0209371
0.0217446
0.0226407
0.0236039
0.0246183
0.0256722
0.0267556
0.0278551
0.0289548
0.0300298
0.0310648
0.0320415
0.0329382
0.0337421
0.0344327
0.0350032
0.0354382
0.0357436
0.0359205
0.0359843
0.035962
0.0358575
0.0357339
0.0355534
0.0354002
0.0352045
0.0350166
0.0348102
0.0345556
0.0342684
0.033896
0.0334426
0.0327042
0.0316929
0.0304612
0.0290301
0.0276373
0.0262994
0.0255271
0.0250094
0.0245969
0.0241076
0.0235402
0.0218716
0.0177806
0.0121338
0.00737815
0.00397874
0.00129985
0.0217765
0.0207151
0.0200762
0.0199152
0.0200847
0.0204023
0.0207485
0.0210783
0.0214039
0.0217645
0.0221954
0.0227158
0.0233246
0.0240092
0.0247521
0.0255407
0.0263658
0.0272203
0.0280923
0.0289777
0.0298512
0.0306988
0.0315063
0.0322579
0.0329425
0.0335441
0.0340553
0.0344637
0.0347705
0.0349759
0.0350858
0.0351201
0.0350761
0.0349989
0.0348618
0.0347197
0.0345352
0.0343324
0.0341012
0.0338177
0.0334866
0.0330661
0.0325611
0.0318483
0.0309188
0.0298219
0.0285552
0.0273225
0.0261115
0.0251761
0.0244697
0.023815
0.0229319
0.0219289
0.0202128
0.0166924
0.0118714
0.00770713
0.00440127
0.0014309
0.0240824
0.0231797
0.0226087
0.0224212
0.0225086
0.0227286
0.0229739
0.0232034
0.0234223
0.0236658
0.0239645
0.0243358
0.0247802
0.0252884
0.0258468
0.0264445
0.027073
0.0277359
0.0284211
0.0291135
0.0298061
0.0304851
0.0311383
0.0317539
0.0323228
0.0328323
0.0332745
0.0336398
0.033926
0.0341329
0.0342604
0.0343219
0.0343121
0.0342605
0.0341506
0.0340151
0.0338355
0.0336221
0.0333693
0.0330631
0.0326983
0.0322494
0.031711
0.0310198
0.0301514
0.0291542
0.0280149
0.0268747
0.0257479
0.0247211
0.0238336
0.0229837
0.0218607
0.0205342
0.0187573
0.0156938
0.0115327
0.00780672
0.00463126
0.00151917
0.0260869
0.025321
0.0248132
0.0246115
0.0246333
0.0247637
0.0249175
0.0250603
0.0251983
0.0253526
0.025548
0.0257997
0.0261104
0.026474
0.0268804
0.0273217
0.0277935
0.0282858
0.0288005
0.0293299
0.0298642
0.0303935
0.0309081
0.0313984
0.0318567
0.0322736
0.0326416
0.0329525
0.0332023
0.0333897
0.0335126
0.0335786
0.0335819
0.0335394
0.0334419
0.0333073
0.0331259
0.032903
0.0326323
0.0323075
0.0319181
0.0314513
0.0308938
0.0302185
0.0293978
0.0284689
0.0274237
0.0263419
0.0252566
0.0241848
0.0231546
0.0221378
0.0208749
0.0193373
0.017493
0.014782
0.0111488
0.00775034
0.00470882
0.00156491
0.0278191
0.0271716
0.0267222
0.0265139
0.026485
0.0265457
0.0266275
0.0267007
0.0267667
0.0268441
0.0269533
0.0271075
0.0273095
0.0275548
0.0278353
0.0281447
0.0284785
0.0288346
0.0292102
0.0296007
0.0299987
0.0303967
0.0307874
0.0311637
0.0315187
0.0318453
0.0321369
0.0323865
0.0325891
0.0327431
0.0328448
0.032898
0.0328975
0.0328509
0.032753
0.0326123
0.0324233
0.0321898
0.0319036
0.0315635
0.031156
0.0306764
0.0301095
0.0294447
0.0286597
0.0277774
0.0267956
0.0257555
0.0246844
0.0235871
0.0224615
0.0213053
0.0199567
0.0183067
0.0164038
0.0139512
0.0107399
0.00759246
0.00467503
0.00157364
0.0293113
0.0287647
0.0283672
0.0281565
0.0280881
0.0280927
0.0281157
0.0281317
0.0281405
0.0281566
0.0281967
0.0282721
0.0283856
0.028534
0.0287111
0.0289122
0.0291337
0.0293746
0.0296328
0.0299052
0.0301862
0.0304702
0.0307513
0.0310246
0.0312845
0.0315255
0.0317412
0.0319263
0.0320755
0.0321867
0.0322557
0.0322834
0.0322651
0.0322042
0.0320953
0.0319427
0.0317421
0.031496
0.0311954
0.0308405
0.0304193
0.0299297
0.0293579
0.0286999
0.027939
0.0270894
0.0261468
0.0251363
0.0240691
0.0229503
0.0217688
0.0205078
0.019099
0.0174086
0.0154708
0.0131957