/*--------------------------------*- C++ -*----------------------------------*\
| =========                 |                                                 |
| \\      /  F ield         | OpenFOAM: The Open Source CFD Toolbox           |
|  \\    /   O peration     | Version:  2312                                  |
|   \\  /    A nd           | Website:  www.openfoam.com                      |
|    \\/     M anipulation  |                                                 |
\*---------------------------------------------------------------------------*/
FoamFile
{
    version     2.0;
    format      ascii;
    arch        "LSB;label=32;scalar=64";
    class       surfaceScalarField;
    location    "4";
    object      phi;
}
// * * * * * * * * * * * * * * * * * * * * * * * * * * * * * * * * * * * * * //

dimensions      [0 3 -1 0 0 0 0];

oriented        oriented;

internalField   nonuniform List<scalar> 
64047
(
-7.84075e-05
0.000621163
-0.000542756
-8.33921e-05
0.00163878
-0.00163379
0.000132472
0.00235867
-0.00257453
0.000671809
0.00267958
-0.00321891
0.00161358
0.00250009
-0.00344186
0.00302773
0.00172094
-0.00313509
0.00498525
0.000253142
-0.00221067
0.0075606
-0.00197583
-0.000599514
0.0108259
-0.00501493
0.00174962
0.0148307
-0.00887763
0.00487287
0.0195763
-0.0135267
0.00878108
0.0249898
-0.0188587
0.0134452
0.0309093
-0.0246975
0.018778
0.0370889
-0.0308019
0.0246222
0.0432296
-0.0368923
0.0307516
0.0490261
-0.0426896
0.0368931
0.0542197
-0.0479573
0.0427637
0.0586391
-0.0525346
0.0481152
0.0622184
-0.0563507
0.0527714
0.0649903
-0.0594198
0.0566479
0.0670609
-0.0618196
0.059749
0.0685759
-0.0636636
0.0621486
0.0696898
-0.0650746
0.0639607
0.0705436
-0.0661657
0.0653119
0.0712528
-0.0670302
0.0663209
0.0719047
-0.067739
0.0670871
0.0725605
-0.0683425
0.0676868
0.0732606
-0.0688756
0.0681755
0.0740305
-0.0693617
0.0685918
0.0748852
-0.0698168
0.0689621
0.0758327
-0.0702522
0.0693047
0.0768771
-0.0706752
0.0696307
0.0780176
-0.0710944
0.0699539
0.0792498
-0.0715019
0.0702697
0.0805611
-0.0719289
0.0706176
0.081849
-0.0722603
0.0709725
-0.0727074
0.0714325
0.0831239
-9.40948e-05
0.000715258
-0.000131241
0.00167593
5.86081e-05
0.00216882
0.000606257
0.00213193
0.00162344
0.00148291
0.00321122
0.000133162
0.00546189
-0.00199753
0.0084547
-0.00496864
0.0122378
-0.00879803
0.0168053
-0.0134451
0.022074
-0.0187954
0.027872
-0.0246567
0.0339466
-0.030772
0.0399955
-0.0368508
0.0457147
-0.0426115
0.0508488
-0.0478236
0.0552293
-0.0523378
0.0587913
-0.0560966
0.0615659
-0.0591253
0.0636549
-0.0615087
0.0651984
-0.0633631
0.0663447
-0.0648099
0.0672289
-0.0659588
0.0679612
-0.066898
0.0686243
-0.0676934
0.0692765
-0.0683912
0.0699567
-0.0690226
0.0706895
-0.0696085
0.0714907
-0.0701629
0.0723699
-0.0706959
0.0733327
-0.071215
0.0743832
-0.0717257
0.0755222
-0.0722334
0.0767578
-0.0727374
0.0780856
-0.0732568
0.0795658
-0.0737405
-0.0743962
0.0812547
-7.85087e-05
0.000793767
-7.71993e-05
0.00167462
0.000184528
0.00190709
0.000858046
0.00145841
0.00207651
0.000264442
0.00395687
-0.00174719
0.00659524
-0.0046359
0.0100499
-0.00842332
0.0143206
-0.0130687
0.0193264
-0.0184509
0.024895
-0.024364
0.0307719
-0.0305336
0.0366534
-0.0366536
0.0422354
-0.0424328
0.0472636
-0.0476397
0.0515715
-0.0521315
0.0550949
-0.0558612
0.057863
-0.0588647
0.0599728
-0.0612351
0.061557
-0.0630929
0.0627548
-0.0645608
0.0636917
-0.0657469
0.0644699
-0.066737
0.0651662
-0.0675942
0.0658346
-0.0683619
0.0665123
-0.0690688
0.0672235
-0.0697339
0.0679847
-0.0703696
0.0688068
-0.0709849
0.0696972
-0.0715864
0.0706617
-0.0721795
0.0717044
-0.0727684
0.0728296
-0.0733586
0.074041
-0.0739489
0.0753406
-0.0745564
0.0767411
-0.075141
-0.075837
0.0781819
-4.07394e-05
0.000834506
5.20994e-05
0.00158178
0.000460396
0.00149879
0.00134555
0.00057325
0.00285008
-0.00124009
0.00509203
-0.00398914
0.00815009
-0.00769396
0.0120418
-0.012315
0.0167012
-0.0177282
0.0219666
-0.0237163
0.0275889
-0.0299863
0.033265
-0.0362097
0.0386884
-0.042077
0.0436019
-0.0473462
0.0478353
-0.0518732
0.0513204
-0.0556166
0.0540805
-0.0586213
0.0562053
-0.0609894
0.0578186
-0.0628485
0.0590513
-0.0643256
0.0600218
-0.0655313
0.0608269
-0.0665519
0.0615396
-0.0674497
0.0622122
-0.0682668
0.0628806
-0.0690302
0.0635688
-0.069757
0.0642931
-0.0704582
0.0650647
-0.0711412
0.0658914
-0.0718116
0.0667793
-0.0724743
0.0677331
-0.0731333
0.0687572
-0.0737925
0.0698549
-0.0744563
0.0710313
-0.0751253
0.0722897
-0.0758148
0.0736378
-0.0764891
-0.077283
0.0750838
8.3956e-06
0.000826111
0.000223708
0.00136646
0.000824063
0.00089844
0.00197183
-0.000574513
0.00380747
-0.00307573
0.00643465
-0.00661632
0.0098976
-0.0111569
0.0141563
-0.0165737
0.0190698
-0.0226417
0.0244014
-0.0290479
0.0298507
-0.0354355
0.0351064
-0.0414655
0.039903
-0.0468736
0.0440615
-0.0515047
0.0475048
-0.0553165
0.0502488
-0.0583606
0.0523759
-0.0607484
0.0540038
-0.0626174
0.0552578
-0.0641024
0.0562515
-0.0653193
0.0570777
-0.0663576
0.0578064
-0.0672806
0.0584868
-0.0681301
0.0591525
-0.0689326
0.0598261
-0.0697037
0.0605225
-0.0704535
0.0612524
-0.0711882
0.0620239
-0.0719126
0.0628431
-0.0726308
0.0637152
-0.0733464
0.0646448
-0.0740629
0.0656358
-0.0747835
0.0666915
-0.075512
0.0678163
-0.07625
0.0690085
-0.077007
0.0702779
-0.0777585
-0.0786062
0.0716011
5.9918e-05
0.000766193
0.000411584
0.0010148
0.00122608
8.39483e-05
0.00266047
-0.00200891
0.00484248
-0.00525774
0.00784693
-0.00962077
0.0116674
-0.0149774
0.0161933
-0.0210996
0.021208
-0.0276564
0.0264176
-0.0342574
0.031505
-0.0405229
0.036192
-0.0461525
0.0402851
-0.0509667
0.0436945
-0.0549141
0.046426
-0.058048
0.0485546
-0.0604891
0.0501922
-0.0623861
0.0514598
-0.0638849
0.0524674
-0.06511
0.0533046
-0.0661566
0.0540385
-0.0670915
0.0547164
-0.0679584
0.0553701
-0.0687839
0.0560211
-0.0695836
0.0566841
-0.0703667
0.0573696
-0.0711389
0.0580855
-0.0719041
0.0588382
-0.0726654
0.0596331
-0.0734257
0.0604748
-0.074188
0.061367
-0.0749552
0.0623135
-0.07573
0.0633171
-0.0765156
0.0643807
-0.0773137
0.0655053
-0.0781315
0.0666977
-0.0789509
-0.0798554
0.0679469
0.000110274
0.000655919
0.000601882
0.00052319
0.00163878
-0.000952945
0.00336681
-0.00373694
0.00589008
-0.00778101
0.0092397
-0.0129704
0.0133436
-0.0190813
0.0180145
-0.0257705
0.0229708
-0.0326127
0.0278907
-0.0391774
0.0324795
-0.0451117
0.0365234
-0.0501963
0.0399141
-0.0543574
0.0426434
-0.0576434
0.0447771
-0.0601817
0.0464217
-0.0621338
0.0476951
-0.0636594
0.0487055
-0.0648954
0.0495416
-0.0659461
0.0502695
-0.0668844
0.0509355
-0.0677576
0.0515709
-0.0685938
0.0521963
-0.0694092
0.0528255
-0.0702128
0.0534684
-0.0710096
0.0541323
-0.0718029
0.0548234
-0.0725952
0.0555467
-0.0733886
0.0563065
-0.0741856
0.0571069
-0.0749884
0.0579514
-0.0757996
0.058843
-0.0766217
0.0597844
-0.077457
0.0607782
-0.0783075
0.0618242
-0.0791776
0.0629286
-0.0800553
-0.0810047
0.0640779
0.000159186
0.000496733
0.000791334
-0.000108959
0.00205225
-0.00221386
0.00406987
-0.00575456
0.00691256
-0.0106237
0.0105527
-0.0166105
0.0148423
-0.0233708
0.0195214
-0.0304496
0.0242675
-0.0373588
0.0287671
-0.0436769
0.0327796
-0.0491243
0.0361715
-0.0535882
0.0389152
-0.0571011
0.0410643
-0.0597926
0.0427195
-0.0618369
0.0439964
-0.0634107
0.0450037
-0.0646667
0.0458306
-0.0657223
0.0465439
-0.0666593
0.04719
-0.0675306
0.0477998
-0.0683674
0.0483933
-0.0691873
0.0489836
-0.0699995
0.04958
-0.0708092
0.0501895
-0.071619
0.0508176
-0.072431
0.0514693
-0.0732469
0.0521491
-0.0740684
0.0528609
-0.0748974
0.0536082
-0.0757357
0.0543942
-0.0765856
0.0552217
-0.0774491
0.0560928
-0.0783282
0.0570098
-0.0792244
0.0579731
-0.0801409
0.0589881
-0.0810702
-0.0820602
0.0600436
0.000208274
0.000288459
0.00098162
-0.000882304
0.00246435
-0.00369659
0.00475776
-0.00804798
0.00788114
-0.0137471
0.0117356
-0.020465
0.0160955
-0.0277308
0.0206459
-0.035
0.0250552
-0.0417681
0.0290509
-0.0476726
0.0324658
-0.0525392
0.0352457
-0.056368
0.0374272
-0.0592827
0.039103
-0.0614684
0.0403871
-0.0631209
0.0413894
-0.064413
0.0422017
-0.065479
0.042893
-0.0664136
0.0435112
-0.0672775
0.0440878
-0.0681071
0.0446428
-0.0689224
0.0451891
-0.0697336
0.0457356
-0.070546
0.0462888
-0.0713623
0.0468539
-0.0721841
0.0474355
-0.0730126
0.0480377
-0.0738491
0.0486644
-0.074695
0.0493188
-0.0755518
0.0500042
-0.0764212
0.0507234
-0.0773048
0.0514786
-0.0782043
0.0522719
-0.0791215
0.053105
-0.0800576
0.0539786
-0.0810144
0.0548964
-0.0819881
-0.0830125
0.0558487
0.000259042
2.94171e-05
0.00117433
-0.0017976
0.00287233
-0.00539458
0.00541687
-0.0105925
0.00876527
-0.0170955
0.0127409
-0.0244406
0.0170504
-0.0320403
0.0213506
-0.0393002
0.0253338
-0.0457513
0.0287906
-0.0511294
0.0316306
-0.0553792
0.0338666
-0.058604
0.0355792
-0.0609953
0.0368795
-0.0627687
0.0378797
-0.0641211
0.0386757
-0.065209
0.0393404
-0.0661438
0.0399247
-0.0669979
0.040462
-0.0678148
0.0409729
-0.068618
0.0414705
-0.06942
0.0419634
-0.0702265
0.0424575
-0.0710402
0.0429579
-0.0718627
0.0434686
-0.0726948
0.0439934
-0.0735375
0.044536
-0.0743917
0.0450995
-0.0752586
0.0456871
-0.0761394
0.0463016
-0.0770356
0.0469454
-0.0779486
0.0476207
-0.0788796
0.0483292
-0.07983
0.0490723
-0.0808007
0.0498509
-0.081793
0.0506681
-0.0828054
-0.0838604
0.051516
0.000311914
-0.000282497
0.00136847
-0.00285415
0.00326905
-0.00729517
0.00602822
-0.0133517
0.00953158
-0.0205989
0.013527
-0.028436
0.0176735
-0.0361868
0.0216304
-0.0432571
0.0251388
-0.0492598
0.0280615
-0.0540521
0.0303774
-0.057695
0.0321486
-0.0603752
0.0334803
-0.062327
0.0344867
-0.0637751
0.035269
-0.0649034
0.0359059
-0.0658459
0.036453
-0.0666908
0.0369463
-0.0674913
0.0374084
-0.0682768
0.0378529
-0.0690625
0.0382883
-0.0698555
0.0387206
-0.0706588
0.0391543
-0.0714739
0.0395931
-0.0723015
0.0400406
-0.0731423
0.0405001
-0.0739969
0.0409746
-0.0748662
0.0414671
-0.0757511
0.0419802
-0.0766526
0.0425165
-0.0775719
0.0430781
-0.0785102
0.0436668
-0.0794683
0.0442842
-0.0804473
0.0449313
-0.0814479
0.0456092
-0.0824708
0.04632
-0.0835162
-0.0845977
0.0470574
0.000366541
-0.000649038
0.00156025
-0.00404786
0.00364312
-0.00937803
0.00656924
-0.0162778
0.0101483
-0.0241779
0.0140641
-0.0323518
0.0179542
-0.0400769
0.0215075
-0.0468105
0.0245287
-0.052281
0.0269501
-0.0564735
0.0288058
-0.0595508
0.0301898
-0.0617592
0.0312162
-0.0633534
0.031992
-0.0645509
0.0326033
-0.0655147
0.0331119
-0.0663545
0.0335584
-0.0671373
0.033968
-0.0679009
0.0343556
-0.0686645
0.0347304
-0.0694373
0.0350982
-0.0702232
0.0354632
-0.0710238
0.035829
-0.0718397
0.0361989
-0.0726714
0.0365757
-0.0735191
0.0369623
-0.0743835
0.0373614
-0.0752653
0.0377756
-0.0761653
0.0382073
-0.0770843
0.0386587
-0.0780233
0.0391317
-0.0789832
0.0396279
-0.0799645
0.0401486
-0.080968
0.0406948
-0.0819941
0.0412675
-0.0830435
0.0418683
-0.0841171
-0.0852218
0.0424924
0.000421519
-0.00107056
0.00174387
-0.00537021
0.00398077
-0.0116149
0.00701748
-0.0193145
0.0105904
-0.0277508
0.0143383
-0.0360996
0.0179038
-0.0436424
0.0210248
-0.0499316
0.0235732
-0.0548293
0.0255416
-0.0584419
0.0270037
-0.0610129
0.0280695
-0.062825
0.028851
-0.0641349
0.0294428
-0.0651427
0.0299148
-0.0659867
0.0303138
-0.0667534
0.0306688
-0.0674924
0.0309971
-0.0682291
0.0313087
-0.068976
0.0316096
-0.0697383
0.0319043
-0.0705179
0.032196
-0.0713155
0.0324875
-0.0721313
0.0327817
-0.0729656
0.0330812
-0.0738186
0.0333884
-0.0746907
0.0337057
-0.0755827
0.0340355
-0.0764951
0.0343799
-0.0774287
0.0347407
-0.0783842
0.0351197
-0.0793622
0.0355183
-0.0803631
0.0359375
-0.0813872
0.0363783
-0.082435
0.0368417
-0.0835068
0.0373288
-0.0846042
-0.085729
0.0378359
0.000475109
-0.00154567
0.00191263
-0.00680773
0.00426825
-0.0139706
0.00735424
-0.0224005
0.0108434
-0.03124
0.014352
-0.0396082
0.0175506
-0.0468409
0.0202362
-0.0526172
0.0223437
-0.0569369
0.0239134
-0.0600116
0.0250436
-0.062143
0.0258484
-0.0636298
0.0264312
-0.0647177
0.0268715
-0.065583
0.0272243
-0.0663395
0.0275241
-0.0670533
0.0277914
-0.0677596
0.0280378
-0.0684756
0.0282702
-0.0692084
0.028493
-0.069961
0.0287093
-0.0707342
0.0289221
-0.0715282
0.0291337
-0.0723429
0.0293465
-0.0731784
0.0295629
-0.074035
0.0297851
-0.0749129
0.0300151
-0.0758127
0.0302551
-0.076735
0.0305069
-0.0776804
0.0307722
-0.0786494
0.0310524
-0.0796424
0.0313488
-0.0806595
0.0316625
-0.0817009
0.0319942
-0.0827667
0.0323449
-0.0838575
0.0327156
-0.0849748
-0.0861173
0.0331039
0.000525433
-0.0020711
0.00205994
-0.00834224
0.00449365
-0.0164043
0.00756687
-0.0254737
0.0109041
-0.0345772
0.0141216
-0.0428258
0.0169337
-0.049653
0.019199
-0.0548825
0.0209067
-0.0586446
0.0221311
-0.061236
0.0229826
-0.0629945
0.0235717
-0.064219
0.0239891
-0.0651351
0.0242997
-0.0658936
0.0245454
-0.0665852
0.0247512
-0.0672591
0.0249314
-0.0679399
0.025094
-0.0686382
0.0252438
-0.0693582
0.0253842
-0.0701014
0.0255176
-0.0708677
0.0256466
-0.0716572
0.0257733
-0.0724696
0.0258997
-0.0733049
0.026028
-0.0741633
0.0261601
-0.075045
0.0262979
-0.0759505
0.0264433
-0.0768804
0.0265978
-0.077835
0.026763
-0.0788147
0.0269402
-0.0798196
0.0271304
-0.0808498
0.0273346
-0.0819051
0.0275536
-0.0829857
0.0277884
-0.0840923
0.0280397
-0.0852261
-0.086384
0.0283065
0.000570563
-0.00264166
0.0021798
-0.00995148
0.00464797
-0.0188724
0.00764968
-0.0284754
0.0107794
-0.0377069
0.0136729
-0.0457193
0.0160971
-0.0520772
0.0179686
-0.056754
0.01932
-0.059996
0.0202474
-0.0621633
0.0208641
-0.0636113
0.0212718
-0.0646266
0.0215471
-0.0654104
0.0217416
-0.0660881
0.0218868
-0.0667303
0.0220005
-0.0673728
0.0220926
-0.0680319
0.0221687
-0.0687143
0.0222324
-0.0694219
0.0222863
-0.0701552
0.0223326
-0.070914
0.0223734
-0.071698
0.0224107
-0.0725068
0.0224463
-0.0733405
0.022482
-0.074199
0.0225197
-0.0750827
0.022561
-0.0759918
0.0226075
-0.0769269
0.0226607
-0.0778882
0.0227219
-0.0788758
0.0227922
-0.0798899
0.0228726
-0.0809301
0.0229639
-0.0819963
0.0230669
-0.0830887
0.0231826
-0.084208
0.0233117
-0.0853553
-0.0865268
0.0234544
0.000608616
-0.00325028
0.00226731
-0.0116102
0.00472584
-0.021331
0.00760362
-0.0313532
0.0104839
-0.0405871
0.0130366
-0.048272
0.0150841
-0.0541248
0.016594
-0.058264
0.0176312
-0.0610331
0.0183033
-0.0628354
0.0187201
-0.0640281
0.0189713
-0.0648778
0.0191203
-0.0655594
0.019207
-0.0661749
0.0192548
-0.0667781
0.0192763
-0.0673943
0.0192783
-0.068034
0.0192651
-0.0687011
0.0192394
-0.0693962
0.0192033
-0.0701191
0.0191588
-0.0708695
0.0191077
-0.0716469
0.0190518
-0.0724509
0.0189927
-0.0732814
0.018932
-0.0741384
0.0188714
-0.0750221
0.0188124
-0.0759328
0.0187563
-0.0768708
0.0187045
-0.0778363
0.0186581
-0.0788295
0.0186181
-0.0798499
0.0185853
-0.0808974
0.0185605
-0.0819715
0.0185443
-0.0830725
0.0185377
-0.0842014
0.0185413
-0.0853589
-0.0865416
0.0185562
0.000638261
-0.00388854
0.00231968
-0.0132916
0.00472615
-0.0237374
0.00743545
-0.0340625
0.0100371
-0.0431887
0.0122449
-0.0504798
0.0139352
-0.0558151
0.0151177
-0.0594465
0.0158791
-0.0617945
0.0163308
-0.063287
0.0165743
-0.0642716
0.0166869
-0.0649904
0.0167197
-0.0655922
0.0167033
-0.0661585
0.0166546
-0.0667294
0.0165827
-0.0673224
0.0164925
-0.0679439
0.0163872
-0.0685958
0.016269
-0.0692779
0.0161398
-0.0699899
0.0160012
-0.070731
0.0158549
-0.0715006
0.0157024
-0.0722984
0.0155453
-0.0731243
0.015385
-0.0739781
0.0152228
-0.0748599
0.0150602
-0.0757702
0.0148983
-0.0767089
0.0147384
-0.0776764
0.0145814
-0.0786725
0.0144282
-0.0796967
0.0142796
-0.0807487
0.0141361
-0.081828
0.0139984
-0.0829348
0.0138672
-0.0840702
0.0137427
-0.0852344
-0.0864253
0.0136264
0.000659782
-0.00454832
0.00233719
-0.014969
0.0046522
-0.0260524
0.00715688
-0.0365672
0.00946231
-0.0454942
0.0113312
-0.0523487
0.0126889
-0.0571728
0.0135776
-0.0603352
0.0140969
-0.0623139
0.0143559
-0.063546
0.0144459
-0.0643616
0.014432
-0.0649764
0.0143546
-0.0655148
0.014237
-0.0660409
0.0140915
-0.0665839
0.0139246
-0.0671555
0.0137399
-0.0677593
0.01354
-0.0683958
0.0133267
-0.0690646
0.0131015
-0.0697648
0.0128661
-0.0704955
0.0126219
-0.0712563
0.0123701
-0.0720467
0.0121122
-0.0728663
0.0118494
-0.0737152
0.0115828
-0.0745934
0.0113138
-0.0755011
0.0110433
-0.0764385
0.0107725
-0.0774055
0.0105022
-0.0784021
0.0102331
-0.0794277
0.00996609
-0.0804817
0.00970158
-0.0815635
0.00944023
-0.0826735
0.00918282
-0.0838128
0.00892946
-0.0849811
0.00868185
-0.0861776
-0.00100679
0.000645902
0.00036089
-0.00316751
0.00137291
0.000787806
-0.00595004
0.00175835
0.00102418
-0.00903924
0.00194521
0.001144
-0.0122679
0.00202802
0.00120063
-0.0155543
0.00206018
0.00122626
-0.0188548
0.00206455
0.00123593
-0.022136
0.00204677
0.00123443
-0.0253633
0.00200525
0.00122208
-0.0284972
0.00193617
0.00119774
-0.0314927
0.00183543
0.00116003
-0.0342994
0.00169909
0.00110763
-0.0368625
0.00152366
0.00103941
-0.0391232
0.00130622
0.000954499
-0.0410201
0.00104456
0.000852353
-0.0424902
0.000737309
0.00073276
-0.0434715
0.000385507
0.000595818
-0.0439102
-3.77441e-06
0.000442484
-0.0437464
-0.000440787
0.00027697
-0.042936
-0.000906645
9.6212e-05
-0.0414475
-0.00139872
-8.97153e-05
-0.0392596
-0.00190689
-0.000281058
-0.0363671
-0.0024194
-0.000473082
-0.0327827
-0.00292375
-0.000660613
-0.0285364
-0.0034073
-0.000839011
-0.0236741
-0.00385827
-0.00100411
-0.018255
-0.00426665
-0.00115242
-0.0123489
-0.0046248
-0.00128129
-0.00603099
-0.00492807
-0.00138983
0.000613825
-0.00517064
-0.00147418
0.00751704
-0.00536138
-0.00154184
0.0146046
-0.00549762
-0.0015899
0.021811
-0.00558537
-0.00162108
0.0290784
-0.00562953
-0.00163784
0.0363642
-0.00564223
-0.00164356
0.0436102
-0.00560734
-0.00163864
-0.00561124
0.050852
-0.00163057
-0.000963688
0.00160959
-0.00305162
0.00346084
-0.00575708
0.00446381
-0.00877279
0.00496092
-0.0119315
0.00518672
-0.0151493
0.00527803
-0.0183808
0.00529598
-0.0215915
0.00525749
-0.0247465
0.00516024
-0.0278061
0.0049958
-0.0307253
0.00475467
-0.0334541
0.00442781
-0.0359376
0.00400717
-0.0381174
0.00348607
-0.0399325
0.00285967
-0.0413209
0.00212564
-0.04222
0.00128468
-0.042562
0.000338199
-0.042312
-0.000690811
-0.0414141
-0.00180451
-0.0398336
-0.00297927
-0.0375497
-0.00419078
-0.034558
-0.00541109
-0.0308721
-0.00660966
-0.0265238
-0.00775557
-0.0215622
-0.00881986
-0.0160508
-0.00977805
-0.0100642
-0.0106114
-0.00368562
-0.0113066
0.00301445
-0.0118707
0.00994653
-0.0122935
0.017038
-0.0125891
0.0242241
-0.0127715
0.031447
-0.0128524
0.0386665
-0.0128617
0.0458253
-0.0127661
-0.0127453
0.0529594
-0.000860204
0.00246979
-0.00277034
0.00537098
-0.00528548
0.00697895
-0.00811856
0.007794
-0.0111028
0.00817099
-0.0141492
0.00832439
-0.0172076
0.00835438
-0.0202415
0.00829141
-0.0232154
0.00813407
-0.0260897
0.00787018
-0.0288204
0.00748533
-0.0313583
0.00696567
-0.0336499
0.0062988
-0.0356383
0.00547442
-0.0372636
0.00448497
-0.0384645
0.00332654
-0.039179
0.00199917
-0.0393406
0.000499851
-0.0389114
-0.00112001
-0.0378378
-0.00287812
-0.0360818
-0.00473526
-0.0336207
-0.00665186
-0.0304495
-0.00858235
-0.0265828
-0.0104764
-0.0220557
-0.0122826
-0.0169231
-0.0139525
-0.011256
-0.0154452
-0.00513776
-0.0167296
0.00134931
-0.0177937
0.00810666
-0.0186281
0.0150536
-0.0192404
0.0221127
-0.0196481
0.0292178
-0.0198766
0.036312
-0.0199467
0.0433595
-0.0199092
0.050307
-0.0197137
-0.0196279
0.0571896
-0.000704715
0.00317451
-0.00234147
0.00700773
-0.00455944
0.00919692
-0.00710495
0.0103395
-0.00981389
0.0108799
-0.0125897
0.0111002
-0.0153752
0.0111399
-0.0181301
0.0110464
-0.0208179
0.0108219
-0.0233998
0.0104521
-0.025833
0.00991859
-0.0280707
0.00920338
-0.0300621
0.00829019
-0.0317532
0.00716548
-0.0330874
0.00581918
-0.0340064
0.00424557
-0.0344513
0.00244404
-0.0343536
0.000402117
-0.0336839
-0.00178971
-0.0323813
-0.00418065
-0.0304079
-0.00670866
-0.0277392
-0.0093206
-0.0243685
-0.0119531
-0.0203112
-0.0145337
-0.0156056
-0.0169882
-0.0103127
-0.0192454
-0.00451207
-0.0212458
0.00170618
-0.0229479
0.00823939
-0.0243269
0.014991
-0.0253797
0.0218715
-0.026121
0.0288022
-0.0265788
0.0357191
-0.0267935
0.0425694
-0.026797
0.0493242
-0.0266639
0.0559409
-0.0263305
-0.026138
0.062451
-0.000510228
0.00368474
-0.00179351
0.00829102
-0.00361866
0.0110221
-0.00577936
0.0125002
-0.00811877
0.0132193
-0.0105321
0.0135135
-0.0129528
0.0135605
-0.0153348
0.0134284
-0.0176397
0.0131267
-0.0198292
0.0126415
-0.0218626
0.011952
-0.023696
0.0110368
-0.0252827
0.00987692
-0.0265735
0.00845618
-0.027517
0.00676275
-0.0280609
0.00478944
-0.02815
0.00253319
-0.0277373
-1.05817e-05
-0.0267693
-0.00275775
-0.0251996
-0.00575037
-0.02299
-0.00891824
-0.0201139
-0.0121967
-0.016563
-0.015504
-0.0123529
-0.0187438
-0.00752229
-0.0218187
-0.0021407
-0.024627
0.00370356
-0.0270901
0.00990771
-0.029152
0.0163651
-0.0307843
0.0229732
-0.0319877
0.0296406
-0.0327884
0.0362915
-0.0332297
0.0428685
-0.0333706
0.049329
-0.0332575
0.0556533
-0.0329883
0.0618173
-0.0324944
-0.0321656
0.067845
-0.000293612
0.00397835
-0.0011652
0.00916261
-0.00251871
0.0123756
-0.0042092
0.0141907
-0.00609481
0.015105
-0.00806424
0.0154829
-0.0100399
0.0155362
-0.0119677
0.0153562
-0.0138056
0.0149647
-0.0155152
0.0143511
-0.0170578
0.0134946
-0.0183934
0.0123725
-0.0194803
0.0109638
-0.0202756
0.00925147
-0.0207358
0.00722289
-0.0208166
0.0048703
-0.02047
0.00218659
-0.0196777
-0.000802927
-0.01836
-0.00407543
-0.0164916
-0.00761877
-0.0140356
-0.0113743
-0.0109656
-0.0152667
-0.0072627
-0.0192069
-0.00295098
-0.0230555
0.00192034
-0.0266901
0.00728422
-0.0299908
0.0130443
-0.0328502
0.0190898
-0.0351975
0.0253089
-0.0370035
0.0315995
-0.0382782
0.0378754
-0.0390643
0.0440708
-0.0394251
0.0501415
-0.0394413
0.0560608
-0.0391767
0.0618215
-0.038749
0.0674222
-0.0380951
-0.0376212
0.0728777
-7.41463e-05
0.0040525
-0.000503542
0.009592
-0.00133007
0.0132021
-0.00248198
0.0153426
-0.00384309
0.0164661
-0.00530066
0.0169405
-0.00676624
0.0170017
-0.00817595
0.0167659
-0.00948198
0.0162707
-0.0106444
0.0155135
-0.0116263
0.0144765
-0.0123919
0.0131382
-0.0129055
0.0114773
-0.013132
0.00947801
-0.013038
0.00712889
-0.0125914
0.00442367
-0.0117571
0.00135229
-0.0105171
-0.00204286
-0.00881858
-0.00577399
-0.0066318
-0.00980556
-0.00392147
-0.0140846
-0.000659584
-0.0185286
0.00314228
-0.0230087
0.00748558
-0.0273988
0.0123209
-0.0315254
0.0175627
-0.0352326
0.0231069
-0.0383944
0.02884
-0.0409305
0.0346523
-0.0428158
0.0404498
-0.0440757
0.0461611
-0.0447756
0.0517388
-0.0450028
0.0571587
-0.0448612
0.0624148
-0.0444328
0.0675144
-0.0438486
0.0724788
-0.0430595
-0.0424559
0.0773135
0.0001287
0.0039238
0.0001396
0.0095811
-0.000135096
0.0134768
-0.000703648
0.0159111
-0.00148767
0.0172501
-0.00238206
0.0178349
-0.00329077
0.0179105
-0.00414011
0.0176153
-0.00487445
0.017005
-0.00545073
0.0160898
-0.00583256
0.0148583
-0.00599068
0.0132963
-0.005894
0.0113807
-0.00551686
0.00910088
-0.00483729
0.00644932
-0.00383529
0.00342166
-0.00249964
1.665e-05
-0.000799286
-0.00374322
0.00128838
-0.00786166
0.0037913
-0.0123085
0.00673943
-0.0170327
0.010155
-0.0219441
0.0140524
-0.0269062
0.0183968
-0.0317432
0.0231286
-0.0362573
0.0281556
-0.0402596
0.0333667
-0.0436054
0.0386498
-0.0462137
0.0439069
-0.0480729
0.0490635
-0.0492324
0.0540732
-0.0497852
0.0589155
-0.0498452
0.0635912
-0.0495369
0.0681172
-0.0489588
0.0725149
-0.0482463
0.0768238
-0.0473684
-0.0466733
0.0810412
0.000297333
0.00362646
0.000710075
0.00916836
0.000975944
0.0132109
0.00100545
0.0158816
0.000827264
0.0174283
0.000526843
0.0181353
0.000199839
0.0182375
-6.9932e-05
0.017885
-0.000220177
0.0171553
-0.000205053
0.0160747
1.02769e-05
0.014643
0.000459829
0.0128467
0.00115999
0.0106805
0.00212641
0.00813445
0.00337058
0.00520514
0.00489916
0.00189309
0.00671605
-0.00180024
0.008842
-0.00586918
0.0112916
-0.0103113
0.0140924
-0.0151092
0.0172735
-0.0202138
0.0208541
-0.0255247
0.0248276
-0.0308797
0.0291482
-0.0360638
0.0337328
-0.0408419
0.038474
-0.0450008
0.0432576
-0.048389
0.0479825
-0.0509386
0.0525741
-0.0526645
0.05699
-0.0536483
0.0612181
-0.0540133
0.0652709
-0.053898
0.0691758
-0.0534418
0.0729706
-0.0527536
0.0766873
-0.0519629
0.0803758
-0.0510569
-0.0503235
0.0840261
0.00041971
0.00320675
0.00116583
0.00842225
0.00191828
0.0124585
0.00252024
0.0152797
0.00294511
0.0170034
0.00324633
0.0178341
0.00350872
0.0179751
0.00381535
0.0175784
0.00423498
0.0167356
0.00481894
0.0154907
0.00560362
0.0138583
0.00661049
0.0118399
0.00785633
0.00943467
0.00934803
0.00664275
0.0110861
0.00346708
0.0130675
-8.83554e-05
0.0152994
-0.00403211
0.0177898
-0.00835955
0.0205611
-0.0130826
0.0236439
-0.018192
0.0270645
-0.0236344
0.0308262
-0.0292865
0.0348934
-0.0349469
0.0391867
-0.040357
0.0435937
-0.0452489
0.0479923
-0.0493994
0.0522744
-0.0526711
0.056364
-0.0550282
0.0602248
-0.0565252
0.0638573
-0.0572808
0.06729
-0.057446
0.0705687
-0.0571767
0.0737436
-0.0566167
0.0768671
-0.0558771
0.0799753
-0.0550712
0.0831202
-0.0542018
-0.0534867
0.0862834
0.000489741
0.00271701
0.00147378
0.0074382
0.00261882
0.0113135
0.00372275
0.0141757
0.0047064
0.0160198
0.005582
0.0169585
0.00641084
0.0171462
0.00726802
0.0167212
0.00822143
0.0157822
0.00932357
0.0143886
0.0106102
0.0125717
0.012102
0.010348
0.0138085
0.0077282
0.0157301
0.00472113
0.0178585
0.00133867
0.0202049
-0.00243468
0.0227656
-0.00659279
0.025566
-0.0111599
0.0286398
-0.0161565
0.0320204
-0.0215726
0.0357188
-0.0273328
0.0397023
-0.03327
0.0438854
-0.03913
0.0481409
-0.0446126
0.0523272
-0.0494352
0.0563197
-0.0533919
0.0600352
-0.0563866
0.0634414
-0.0584344
0.066553
-0.0596369
0.0694194
-0.0601471
0.0721077
-0.0601343
0.07469
-0.059759
0.0772308
-0.0591574
0.0797868
-0.0584332
0.0823914
-0.0576758
0.0850906
-0.0569009
-0.0562539
0.0878577
0.000508562
0.00220845
0.00162147
0.0063253
0.00303191
0.009903
0.0045217
0.0126859
0.00597213
0.0145693
0.00735305
0.0155776
0.00869324
0.015806
0.0100483
0.0153662
0.0114771
0.0143535
0.0130282
0.0128375
0.0147351
0.0108647
0.0166165
0.00846663
0.0186787
0.00566607
0.0209179
0.00248193
0.0233475
-0.00109099
0.0259703
-0.00505748
0.0288142
-0.0094367
0.0319226
-0.0142683
0.0353396
-0.0195735
0.039085
-0.025318
0.0431268
-0.0313745
0.0473671
-0.0375103
0.0516541
-0.043417
0.055815
-0.0487735
0.0596974
-0.0533177
0.0632017
-0.0568962
0.0662943
-0.0594792
0.0690028
-0.0611429
0.0713981
-0.0620322
0.0735729
-0.062322
0.0756224
-0.0621838
0.0776318
-0.0617683
0.0796671
-0.0611928
0.0817802
-0.0605463
0.0839954
-0.0598909
0.0863485
-0.0592541
-0.0587108
0.0888055
0.000483221
0.00172523
0.0016163
0.00519222
0.00314732
0.00837199
0.00487105
0.0109622
0.00664974
0.0127906
0.00841883
0.0138085
0.0101723
0.0140526
0.0119385
0.0135999
0.0137587
0.0125333
0.0156714
0.0109248
0.0177053
0.00883084
0.0198783
0.00629365
0.0222016
0.00334275
0.0246708
1.26593e-05
0.027343
-0.00376311
0.030232
-0.00794651
0.0333997
-0.0126044
0.0369047
-0.0177733
0.0407764
-0.0234452
0.0449822
-0.0295238
0.0494092
-0.0358016
0.053876
-0.0419771
0.058172
-0.0477129
0.0621087
-0.0527102
0.0655622
-0.0567712
0.0684915
-0.0598255
0.0709329
-0.0619206
0.0729774
-0.0631874
0.0747429
-0.0637976
0.0763491
-0.0639282
0.0779012
-0.0637359
0.0794818
-0.063349
0.0811481
-0.0628591
0.0829399
-0.062338
0.0848702
-0.0618212
0.0869643
-0.0613482
-0.060929
0.0891824
0.000424043
0.00130119
0.00148172
0.00413453
0.00299045
0.00686326
0.00478046
0.00917221
0.00671699
0.0108541
0.00871592
0.0118095
0.0107421
0.0120264
0.0127958
0.0115462
0.0148961
0.010433
0.0170678
0.0087531
0.0193343
0.00656433
0.0217173
0.00391064
0.0242342
0.000825901
0.0269572
-0.00271041
0.0299005
-0.00670641
0.0331586
-0.0112045
0.0368015
-0.0162474
0.0408653
-0.0218372
0.0453136
-0.0278935
0.0500163
-0.0342265
0.0547619
-0.0405471
0.059302
-0.0465173
0.0634118
-0.0518227
0.0669406
-0.0562391
0.0698363
-0.0596669
0.0721394
-0.0621286
0.073957
-0.0637382
0.0754287
-0.064659
0.0766965
-0.0650655
0.0778849
-0.0651166
0.0790905
-0.0649415
0.0803816
-0.06464
0.0818002
-0.0642778
0.0833723
-0.0639101
0.0851012
-0.0635501
0.0870034
-0.0632505
-0.0629628
0.0890373
0.000341809
0.000959377
0.00125009
0.00322625
0.00261433
0.00549902
0.0043128
0.00747374
0.00623174
0.00893518
0.0082845
0.00975679
0.010419
0.00989195
0.0126139
0.00935129
0.0148699
0.0081769
0.017202
0.006421
0.0196355
0.00413088
0.022206
0.00134016
0.0249804
-0.00194848
0.0280221
-0.0057521
0.0314219
-0.0101062
0.0352626
-0.0150453
0.0395808
-0.0205656
0.0443298
-0.0265861
0.0493596
-0.0329233
0.0544314
-0.0392983
0.0592659
-0.0453816
0.0636089
-0.0508603
0.0672879
-0.0555017
0.07024
-0.0591912
0.0725073
-0.0619341
0.0742076
-0.0638289
0.0754965
-0.0650271
0.0765333
-0.0656958
0.0774575
-0.0659897
0.0783778
-0.0660369
0.0793714
-0.0659351
0.0804868
-0.0657554
0.0817512
-0.0655421
0.0831777
-0.0653366
0.0847644
-0.0651368
0.0865216
-0.0650077
-0.0648502
0.088409
0.000246124
0.000713254
0.000956599
0.00251577
0.00208853
0.00436709
0.00357178
0.00599049
0.00532486
0.00718209
0.00727393
0.00780772
0.00936541
0.00780047
0.0115705
0.00714624
0.0138845
0.00586286
0.0163259
0.00397964
0.0189359
0.00152087
0.0217834
-0.00150738
0.0249546
-0.00511969
0.0285456
-0.00934311
0.0326373
-0.0141979
0.0372554
-0.0196634
0.0423348
-0.0256449
0.0477031
-0.0319545
0.0530991
-0.0383192
0.0582228
-0.0444219
0.0628029
-0.0499617
0.0666546
-0.054712
0.069709
-0.0585561
0.0720086
-0.0614907
0.0736767
-0.0636023
0.074878
-0.0650302
0.0757818
-0.0659309
0.0765371
-0.0664511
0.0772611
-0.0667137
0.0780371
-0.066813
0.0789195
-0.0668176
0.079939
-0.0667749
0.0811118
-0.0667149
0.0824413
-0.0666661
0.0839246
-0.0666201
0.0855656
-0.0666486
-0.066615
0.0873304
0.00014589
0.000567364
0.000637552
0.00202411
0.00149229
0.00351236
0.00268939
0.00479338
0.00418513
0.00568635
0.00593073
0.00606212
0.00788785
0.00584335
0.0100389
0.00499522
0.0123928
0.0035089
0.0149884
0.00138407
0.0178938
-0.0013845
0.0211984
-0.00481198
0.0249951
-0.00891646
0.0293516
-0.0136996
0.0342718
-0.0191181
0.0396652
-0.0250567
0.0453366
-0.0313163
0.051008
-0.0376259
0.0563702
-0.0436814
0.0611476
-0.0491993
0.0651538
-0.0539679
0.0683192
-0.0578775
0.0706866
-0.0609235
0.0723804
-0.0631845
0.0735671
-0.064789
0.074419
-0.0658821
0.0750885
-0.0666004
0.0756966
-0.0670592
0.0763305
-0.0673475
0.0770476
-0.0675301
0.0778829
-0.0676528
0.0788539
-0.0677459
0.0799707
-0.0678318
0.0812309
-0.0679263
0.082637
-0.0680261
0.0841785