/*--------------------------------*- C++ -*----------------------------------*\
| =========                 |                                                 |
| \\      /  F ield         | OpenFOAM: The Open Source CFD Toolbox           |
|  \\    /   O peration     | Version:  2312                                  |
|   \\  /    A nd           | Website:  www.openfoam.com                      |
|    \\/     M anipulation  |                                                 |
\*---------------------------------------------------------------------------*/
FoamFile
{
    version     2.0;
    format      ascii;
    arch        "LSB;label=32;scalar=64";
    class       volVectorField;
    location    "4";
    object      U;
}
// * * * * * * * * * * * * * * * * * * * * * * * * * * * * * * * * * * * * * //

dimensions      [0 1 -1 0 0 0 0];

internalField   nonuniform List<vector> 
32230
(
(-0.0119671 0.00972511 5.90705e-20)
(-0.0325289 0.0274455 -1.19157e-19)
(-0.0459345 0.0430635 0)
(-0.0485256 0.0564364 -1.60681e-19)
(-0.0378459 0.0668345 5.12162e-20)
(-0.0121307 0.0733934 -4.8173e-20)
(0.0299359 0.0754993 9.05015e-20)
(0.0893157 0.0728917 -5.68539e-22)
(0.166585 0.0656435 4.09177e-20)
(0.261698 0.0540674 -1.56946e-19)
(0.373563 0.0386129 -7.54104e-20)
(0.499563 0.0198146 0)
(0.635265 -0.00171278 1.41459e-19)
(0.774536 -0.0252587 -2.71983e-19)
(0.910175 -0.0500092 1.97313e-19)
(1.03496 -0.0750739 -2.51887e-19)
(1.14283 -0.0995504 -5.83789e-20)
(1.22983 -0.122612 1.14532e-19)
(1.29452 -0.14359 1.05403e-19)
(1.33787 -0.162037 -1.0087e-19)
(1.3626 -0.177738 0)
(1.37234 -0.190684 -8.21929e-20)
(1.37094 -0.20102 4.11929e-20)
(1.36183 -0.208973 0)
(1.3478 -0.214804 0)
(1.33093 -0.218769 -2.77319e-20)
(1.31266 -0.2211 -9.80467e-20)
(1.2939 -0.222003 9.38966e-20)
(1.27524 -0.221659 3.9888e-20)
(1.25702 -0.220229 3.55591e-20)
(1.23943 -0.21787 0)
(1.22258 -0.214675 0)
(1.20644 -0.210909 4.78895e-20)
(1.19119 -0.206226 -6.78209e-20)
(1.1761 -0.202225 3.68427e-20)
(1.16286 -0.195174 -6.73189e-20)
(1.14628 -0.194821 3.0756e-20)
(-0.0142972 0.010748 2.34007e-22)
(-0.0347975 0.0261899 5.9565e-20)
(-0.0451513 0.0369361 -5.61565e-20)
(-0.042234 0.0443699 5.6837e-22)
(-0.023665 0.0488014 1.02189e-19)
(0.0124494 0.0500827 1.9269e-19)
(0.0675867 0.0480473 -2.28719e-19)
(0.142631 0.0426629 8.6975e-20)
(0.237571 0.0340741 3.41945e-22)
(0.351079 0.0225694 7.84946e-20)
(0.480086 0.00854082 -3.36414e-22)
(0.619586 -0.00754595 7.26127e-20)
(0.762875 -0.0251692 -2.09727e-19)
(0.902298 -0.0437653 6.62896e-20)
(1.03037 -0.0627481 2.57402e-19)
(1.14096 -0.0815371 0)
(1.23019 -0.0995947 5.91451e-20)
(1.29679 -0.116463 0)
(1.34187 -0.131798 0)
(1.36827 -0.145384 0)
(1.37969 -0.157131 -4.28129e-20)
(1.37999 -0.167048 1.60289e-19)
(1.37259 -0.175216 -1.44711e-19)
(1.36024 -0.181749 3.57542e-21)
(1.34496 -0.186774 2.08571e-19)
(1.32814 -0.190416 -1.11079e-19)
(1.31068 -0.192797 -9.48377e-20)
(1.29312 -0.194032 1.75858e-19)
(1.2758 -0.194232 -1.60155e-19)
(1.25892 -0.1935 6.71425e-20)
(1.24259 -0.191945 -6.50291e-20)
(1.22689 -0.18964 -2.76938e-20)
(1.21181 -0.18673 0)
(1.19744 -0.183092 6.4021e-20)
(1.18358 -0.179418 -7.74416e-20)
(1.17075 -0.173578 5.26285e-20)
(1.15669 -0.172696 -1.50521e-20)
(-0.016528 0.0117922 -1.19502e-19)
(-0.0360498 0.0257488 0)
(-0.0413867 0.0330384 -1.70954e-19)
(-0.0301934 0.0360709 1.63024e-19)
(-0.0003805 0.0359558 2.0537e-19)
(0.0497788 0.0331598 -9.73287e-20)
(0.121444 0.0279362 -5.61803e-22)
(0.21477 0.0205118 4.32128e-20)
(0.328406 0.0111575 1.76795e-22)
(0.45905 0.000201333 -7.94499e-20)
(0.601282 -0.0119965 -3.03685e-22)
(0.747878 -0.0250759 7.27196e-20)
(0.890673 -0.0387006 -6.93298e-20)
(1.02181 -0.0525654 6.58079e-20)
(1.13498 -0.0663914 -2.53346e-19)
(1.22632 -0.0799177 0)
(1.29471 -0.0928995 1.67245e-19)
(1.34144 -0.105117 -1.0678e-19)
(1.36952 -0.116392 -4.8375e-20)
(1.38272 -0.126598 4.78607e-20)
(1.3849 -0.135662 -1.6835e-21)
(1.37945 -0.143557 0)
(1.36902 -0.150288 1.37725e-21)
(1.35556 -0.155882 6.22378e-20)
(1.3404 -0.160378 -1.17633e-19)
(1.3244 -0.163825 8.70178e-22)
(1.3081 -0.166279 0)
(1.29184 -0.167802 0)
(1.27582 -0.168461 3.8829e-20)
(1.26018 -0.168323 -3.47568e-20)
(1.24501 -0.167464 -5.95167e-20)
(1.23036 -0.165925 8.46864e-20)
(1.21625 -0.163845 0)
(1.20281 -0.161043 2.17497e-20)
(1.18972 -0.158259 1.79123e-20)
(1.17766 -0.153829 -2.6594e-21)
(1.16444 -0.153409 -3.17976e-20)
(-0.018143 0.0123637 6.00206e-20)
(-0.0352921 0.0249511 6.11944e-20)
(-0.0335954 0.0296923 0)
(-0.0115918 0.0295191 -1.09331e-19)
(0.032289 0.0261025 5.27831e-20)
(0.0992483 0.0204044 6.96761e-22)
(0.189592 0.013049 4.64129e-20)
(0.302096 0.00451222 4.40297e-20)
(0.433432 -0.00479366 8.46969e-20)
(0.577933 -0.0145133 -8.04021e-20)
(0.727911 -0.0243784 -7.68081e-20)
(0.874626 -0.0342302 0)
(1.00968 -0.0440101 1.24533e-22)
(1.12639 -0.053717 6.55714e-20)
(1.22076 -0.063353 6.27226e-20)
(1.29168 -0.0728828 1.15923e-19)
(1.34057 -0.0822204 -1.66515e-19)
(1.37055 -0.0912423 -5.04011e-20)
(1.38549 -0.0998127 -4.82532e-20)
(1.38931 -0.107806 4.46152e-20)
(1.3854 -0.115122 -4.10727e-20)
(1.37642 -0.121687 -3.63474e-20)
(1.36432 -0.127453 3.4421e-20)
(1.35043 -0.132395 6.00714e-20)
(1.33559 -0.136506 -2.90263e-20)
(1.32035 -0.139794 9.96423e-20)
(1.30503 -0.142282 -1.17361e-19)
(1.28984 -0.144001 -8.06561e-20)
(1.27491 -0.144991 4.16321e-20)
(1.26033 -0.1453 1.02913e-19)
(1.24616 -0.144977 0)
(1.23246 -0.144065 2.69202e-20)
(1.21925 -0.142645 0)
(1.20659 -0.140622 -2.17353e-20)
(1.19435 -0.138588 1.93452e-20)
(1.18294 -0.134963 -3.43747e-20)
(1.17069 -0.135346 -2.93273e-20)
(-0.0187929 0.0122039 6.12333e-20)
(-0.0318478 0.0230487 -1.2287e-19)
(-0.0211435 0.0256765 1.16821e-19)
(0.0138674 0.0231443 -1.11663e-19)
(0.0740272 0.0174776 0)
(0.159617 0.0100185 -4.96572e-20)
(0.269546 0.00169739 0)
(0.400599 -0.00680404 4.53853e-20)
(0.547005 -0.0149994 -8.54843e-20)
(0.700664 -0.022613 4.08487e-20)
(0.852159 -0.0295949 7.67585e-20)
(0.992333 -0.0360881 0)
(1.11388 -0.0423423 1.38386e-19)
(1.2124 -0.0486077 -6.55333e-20)
(1.28667 -0.0550523 0)
(1.33818 -0.0617262 5.68787e-20)
(1.37019 -0.0685725 0)
(1.38678 -0.0754652 1.48082e-19)
(1.39201 -0.0822509 -1.38827e-19)
(1.38939 -0.0887795 4.1771e-20)
(1.38166 -0.0949222 0)
(1.3708 -0.100577 1.41407e-19)
(1.35811 -0.10567 -6.68937e-20)
(1.34444 -0.110149 -8.75777e-20)
(1.33029 -0.113985 8.24815e-20)
(1.31597 -0.117166 2.50281e-20)
(1.30167 -0.119695 2.26735e-20)
(1.28751 -0.121587 5.871e-20)
(1.27359 -0.122868 -1.83442e-19)
(1.25996 -0.123568 9.8769e-20)
(1.24669 -0.123724 -3.31672e-20)
(1.23383 -0.123368 -8.21031e-20)
(1.22139 -0.122561 0)
(1.20945 -0.121257 2.13894e-20)
(1.19789 -0.119855 0)
(1.18699 -0.117298 1.71973e-20)
(1.17553 -0.11798 3.06461e-20)
(-0.0182972 0.0112853 6.23267e-20)
(-0.0253048 0.0197809 -1.25301e-19)
(-0.00364921 0.0204299 -3.98389e-22)
(0.046304 0.0161648 1.12671e-19)
(0.124439 0.00919974 -5.35565e-20)
(0.229688 0.00114982 0)
(0.358995 -0.00684559 0)
(0.506618 -0.0140241 -4.53611e-20)
(0.66412 -0.0199905 4.30373e-20)
(0.821332 -0.0247229 4.9532e-22)
(0.968106 -0.0285149 7.72207e-20)
(1.09618 -0.0318382 -7.38386e-20)
(1.20049 -0.0351767 -1.37452e-19)
(1.27948 -0.038894 -1.27087e-19)
(1.33461 -0.043173 2.41839e-19)
(1.3693 -0.0480237 -1.71089e-19)
(1.38789 -0.0533336 -5.17914e-20)
(1.39466 -0.0589272 0)
(1.39329 -0.0646144 1.77186e-19)
(1.38666 -0.070221 -1.66337e-19)
(1.3768 -0.0756022 0)
(1.36506 -0.0806456 3.26173e-20)
(1.35227 -0.0852691 -2.93952e-21)
(1.33894 -0.0894161 -5.85118e-20)
(1.32539 -0.0930512 -2.6758e-20)
(1.31178 -0.0961557 0)
(1.29826 -0.0987244 0)
(1.2849 -0.100763 1.99959e-20)
(1.27177 -0.102285 -8.72347e-20)
(1.25892 -0.103313 6.66088e-20)
(1.2464 -0.103871 1.14986e-19)
(1.23425 -0.103986 -5.42613e-20)
(1.22249 -0.103704 0)
(1.21117 -0.102993 -2.13799e-20)
(1.20021 -0.102176 0)
(1.18982 -0.100342 1.70461e-20)
(1.17908 -0.101315 -1.53238e-20)
(-0.0165878 0.00972373 -6.37649e-20)
(-0.0154076 0.0152822 0)
(0.0191773 0.0140142 -1.2129e-21)
(0.0858444 0.00858794 5.81816e-20)
(0.183226 0.00128719 -4.88567e-22)
(0.308403 -0.00612329 -8.49619e-22)
(0.455779 -0.0124567 -1.96322e-19)
(0.616713 -0.0170807 4.65227e-20)
(0.780278 -0.0199116 0)
(0.935112 -0.0213364 8.29555e-20)
(1.07164 -0.022023 -1.28609e-21)
(1.18372 -0.0226818 -3.74044e-20)
(1.26918 -0.0238724 -6.7979e-20)
(1.32926 -0.0259105 3.41663e-20)
(1.36754 -0.0288724 6.058e-20)
(1.3886 -0.0326575 0)
(1.39705 -0.0370683 5.17771e-20)
(1.39686 -0.0418774 0)
(1.39112 -0.0468707 -1.00982e-21)
(1.38201 -0.0518679 4.06217e-20)
(1.37095 -0.0567279 -7.2069e-20)
(1.35883 -0.0613446 6.89831e-20)
(1.34617 -0.0656414 0)
(1.33328 -0.0695642 7.29846e-22)
(1.32031 -0.0730766 0)
(1.30739 -0.0761565 0)
(1.29459 -0.0787936 0)
(1.28196 -0.0809867 0)
(1.26955 -0.0827431 -5.03909e-20)
(1.2574 -0.0840761 6.52021e-20)
(1.24556 -0.085004 2.67403e-20)
(1.23404 -0.0855486 -5.32963e-20)
(1.22288 -0.0857377 0)
(1.2121 -0.0855725 0)
(1.20168 -0.0852498 0)
(1.19172 -0.0841416 -4.99176e-20)
(1.18156 -0.08536 3.14992e-20)
(-0.0136248 0.00769737 8.23262e-22)
(-0.00196133 0.00992773 -6.50589e-20)
(0.0475921 0.00691378 6.17742e-20)
(0.132599 0.000985421 1.7255e-21)
(0.250034 -0.00561383 1.37372e-22)
(0.394555 -0.0111347 1.06055e-19)
(0.55753 -0.0145743 0)
(0.727387 -0.0156882 9.45799e-20)
(0.891413 -0.0148965 0)
(1.03833 -0.0130455 -4.17597e-20)
(1.16044 -0.0110834 0)
(1.25451 -0.00978739 -3.67725e-20)
(1.32133 -0.00962311 0)
(1.36448 -0.0107391 3.197e-20)
(1.38883 -0.0130446 0)
(1.39939 -0.0163126 5.41745e-20)
(1.40055 -0.0202699 -4.99294e-20)
(1.3957 -0.0246554 -4.59491e-20)
(1.38722 -0.0292489 -4.31267e-20)
(1.3767 -0.0338784 -7.67304e-20)
(1.36508 -0.0384148 7.34386e-20)
(1.3529 -0.0427641 -3.25219e-20)
(1.34048 -0.0468584 5.88039e-20)
(1.32798 -0.0506494 -1.09288e-19)
(1.31551 -0.0541039 7.61404e-20)
(1.30313 -0.0572002 0)
(1.29088 -0.0599262 2.0519e-20)
(1.27882 -0.0622775 0)
(1.26699 -0.0642566 0)
(1.25541 -0.0658713 0)
(1.24412 -0.0671341 5.45921e-20)
(1.23314 -0.0680607 -5.22952e-20)
(1.22249 -0.0686718 0)
(1.2122 -0.0689747 0)
(1.20224 -0.0690979 1.84899e-20)
(1.19268 -0.0685944 3.25255e-20)
(1.18306 -0.0699756 -1.61821e-20)
(-0.00935291 0.00538856 -1.33573e-19)
(0.0152144 0.00418496 -5.89653e-22)
(0.0817855 -0.00018272 1.27303e-19)
(0.186515 -0.00579237 -1.7958e-19)
(0.3242 -0.0105799 -4.21308e-22)
(0.486496 -0.0130334 -5.45084e-20)
(0.661484 -0.0126101 -5.14887e-20)
(0.835133 -0.00968581 -7.64709e-22)
(0.994124 -0.00526845 -1.80805e-19)
(1.12864 -0.000576545 2.12012e-19)
(1.23383 0.00334473 -8.01196e-20)
(1.30961 0.00583675 0)
(1.35932 0.0066552 -1.01283e-19)
(1.38812 0.00587783 1.26393e-19)
(1.4015 0.00377056 -8.84382e-20)
(1.40432 0.000667916 -5.4171e-20)
(1.40041 -0.00310748 4.99263e-20)
(1.39248 -0.00728486 9.1075e-20)
(1.38232 -0.0116555 0)
(1.37099 -0.0160662 3.7955e-20)
(1.35909 -0.0204073 3.47545e-20)
(1.34696 -0.0246 7.28548e-22)
(1.33477 -0.0285873 -5.74215e-20)
(1.32261 -0.0323278 2.97245e-20)
(1.31056 -0.035791 2.54047e-20)
(1.29864 -0.0389558 6.55025e-20)
(1.28689 -0.0418083 -6.2149e-20)
(1.27534 -0.0443414 1.76979e-20)
(1.26402 -0.0465537 -3.43974e-20)
(1.25296 -0.0484489 0)
(1.24217 -0.0500348 -3.99017e-20)
(1.23167 -0.0513233 5.12514e-20)
(1.22149 -0.0523277 -1.11368e-20)
(1.21163 -0.0530635 0)
(1.20208 -0.0535976 -1.84879e-20)
(1.19289 -0.0536565 0)
(1.18371 -0.0552079 -4.37113e-20)
(-0.00369176 0.00296247 6.77769e-20)
(0.0362734 -0.00146922 -5.68013e-22)
(0.121808 -0.00653749 1.08327e-21)
(0.247236 -0.0108395 0)
(0.404582 -0.012686 1.15563e-19)
(0.582056 -0.0110757 -8.99665e-22)
(0.764621 -0.00619503 -1.03392e-21)
(0.936769 0.000827156 1.4535e-19)
(1.08599 0.00845761 -9.25884e-20)
(1.20508 0.0152968 -4.25698e-20)
(1.29248 0.0204096 -3.97971e-20)
(1.35096 0.0234009 1.09181e-19)
(1.38581 0.0243134 -1.01963e-19)
(1.403 0.0234559 6.39043e-20)
(1.40804 0.0212417 5.77372e-20)
(1.40532 0.0180766 0)
(1.39798 0.0143013 0)
(1.38811 0.010175 -6.73147e-20)
(1.37693 0.00588421 8.03024e-20)
(1.36517 0.00155911 -1.14807e-19)
(1.35318 -0.00270887 -1.02009e-19)
(1.34116 -0.00685415 9.61654e-20)
(1.32919 -0.0108283 2.84001e-20)
(1.31734 -0.0145951 0)
(1.30563 -0.0181272 -2.36184e-20)
(1.29409 -0.0214046 4.19505e-20)
(1.28274 -0.0244136 -2.0396e-21)
(1.27161 -0.0271458 -1.87694e-20)
(1.26072 -0.0295978 0)
(1.25008 -0.0317704 0)
(1.23972 -0.0336681 3.8759e-20)
(1.22964 -0.0352985 -3.81139e-20)
(1.21986 -0.036672 1.11369e-20)
(1.21038 -0.037803 0)
(1.20121 -0.0387212 0)
(1.19234 -0.0392863 0)
(1.18356 -0.0409731 0)
(0.00345222 0.000570017 -7.02789e-20)
(0.0613048 -0.00657522 6.90181e-22)
(0.167498 -0.0114407 1.33402e-19)
(0.314018 -0.0133208 -6.34476e-20)
(0.489553 -0.0111615 -1.19825e-19)
(0.678711 -0.00476777 5.67247e-20)
(0.864007 0.00474794 -5.35674e-20)
(1.0298 0.0155166 1.00298e-19)
(1.1657 0.0256673 0)
(1.26784 0.0338535 0)
(1.33785 0.0394265 3.98007e-20)
(1.38086 0.0423399 3.54012e-20)
(1.40332 0.0429337 -2.64107e-21)
(1.41144 0.0417162 -3.2528e-20)
(1.41034 0.0392037 5.56769e-20)
(1.40374 0.0358343 -2.75149e-20)
(1.39413 0.0319402 2.31853e-20)
(1.38301 0.0277558 -4.40535e-20)
(1.37122 0.0234402 6.11671e-20)
(1.35922 0.019101 9.03101e-20)
(1.3472 0.0148128 -8.5641e-20)
(1.33528 0.0106295 0)
(1.3235 0.00659208 -2.84039e-20)
(1.3119 0.00273197 -2.4697e-20)
(1.30048 -0.000926166 7.15051e-20)
(1.28927 -0.00436349 -1.04234e-21)
(1.27827 -0.00756616 -1.99548e-21)
(1.26751 -0.0105249 -5.34763e-20)
(1.257 -0.0132344 3.11118e-20)
(1.24675 -0.0156933 -2.97982e-20)
(1.23678 -0.0179036 0)
(1.22708 -0.0198702 -3.52058e-20)
(1.21767 -0.0216012 1.1548e-20)
(1.20854 -0.0231083 -3.78794e-20)
(1.1997 -0.0243998 3.62935e-20)
(1.19113 -0.0254379 0)
(1.1827 -0.0272674 -7.07483e-21)
(0.0121572 -0.001632 0)
(0.0902888 -0.0106788 0)
(0.218444 -0.0142331 3.47691e-20)
(0.385741 -0.0125262 -3.28716e-20)
(0.577125 -0.0054532 1.21278e-19)
(0.773863 0.00610572 -8.72667e-20)
(0.957133 0.0200423 2.74033e-20)
(1.11258 0.0339048 5.07673e-20)
(1.23295 0.0457438 -4.83376e-22)
(1.31788 0.0544856 0)
(1.37183 0.0598878 0)
(1.40154 0.0622797 3.66644e-20)
(1.41401 0.0622688 0)
(1.41523 0.0605113 -9.14544e-20)
(1.40969 0.0575781 2.94045e-20)
(1.40043 0.0539057 -5.17536e-20)
(1.38932 0.0497991 2.38494e-20)
(1.37742 0.0454608 2.0507e-20)
(1.36526 0.0410227 -6.04745e-20)
(1.35313 0.0365725 1.70731e-20)
(1.34113 0.0321715 1.51053e-20)
(1.32931 0.0278651 -1.59706e-20)
(1.3177 0.0236889 5.36196e-20)
(1.30631 0.019671 -7.66544e-20)
(1.29514 0.0158338 1.12545e-20)
(1.28421 0.0121948 2.10026e-20)
(1.27352 0.00876708 -5.54063e-20)
(1.26308 0.00556008 5.25928e-20)
(1.2529 0.00257959 -1.53624e-20)
(1.243 -0.000171724 0)
(1.23336 -0.00269416 -1.26372e-20)
(1.224 -0.00499088 0)
(1.21492 -0.00706804 4.14422e-20)
(1.20611 -0.00893294 -1.95796e-20)
(1.19756 -0.010587 8.46791e-21)
(1.18927 -0.0120598 0)
(1.18116 -0.0140235 7.07724e-21)
(0.0224597 -0.00348009 3.72406e-20)
(0.123059 -0.013338 -7.53662e-20)
(0.273971 -0.0143207 3.53628e-20)
(0.460972 -0.00789555 -1.74001e-21)
(0.665141 0.00476252 -6.32658e-20)
(0.865122 0.0215143 2.9165e-20)
(1.04213 0.0393377 -5.50793e-20)
(1.18436 0.0554626 0)
(1.2882 0.0681324 -4.71061e-20)
(1.35663 0.0767182 -2.18163e-20)
(1.3963 0.0814426 0)
(1.41495 0.082992 -3.66764e-20)
(1.41958 0.0821871 0)
(1.41566 0.0797748 9.03593e-20)
(1.40697 0.076338 -5.7286e-20)
(1.3959 0.0722863 2.57176e-20)
(1.3838 0.0678878 4.55917e-20)
(1.37139 0.0633119 -2.0183e-21)
(1.359 0.0586661 -2.05739e-20)
(1.34679 0.0540218 0)
(1.33482 0.0494298 -1.59793e-20)
(1.32309 0.0449287 -1.48937e-20)
(1.31163 0.0405495 0)
(1.30042 0.036317 0)
(1.28947 0.0322517 -1.12584e-20)
(1.27879 0.0283695 -2.94589e-20)
(1.26837 0.0246831 5.63858e-20)
(1.25823 0.0212015 0)
(1.24836 0.0179311 3.03054e-20)
(1.23876 0.0148753 0)
(1.22945 0.0120348 1.26415e-20)
(1.2204 0.00940757 0)
(1.21163 0.00698917 9.5093e-21)
(1.20311 0.0047757 -2.81404e-20)
(1.19485 0.00276329 -8.47079e-21)
(1.18683 0.000887589 0)
(1.17901 -0.00122045 0)
(0.0343469 -0.00480025 3.9163e-20)
(0.159293 -0.0141216 3.78554e-20)
(0.333163 -0.0111861 0)
(0.538071 0.000970129 3.37897e-20)
(0.751477 0.0195947 -3.11532e-20)
(0.950505 0.0412389 6.09198e-20)
(1.11781 0.0621894 -2.73562e-20)
(1.24504 0.079674 7.75451e-20)
(1.33237 0.0923686 -1.91526e-21)
(1.38563 0.1002 -2.28479e-20)
(1.41304 0.103861 1.99621e-20)
(1.42271 0.104345 0)
(1.42131 0.102623 3.25134e-20)
(1.41362 0.0994778 -7.61361e-20)
(1.40272 0.0954711 2.8351e-20)
(1.39041 0.0909702 4.92254e-20)
(1.37765 0.0862027 -2.43268e-20)
(1.3649 0.0813071 4.08599e-20)
(1.35237 0.0763704 -7.72157e-20)
(1.34012 0.071451 -3.38904e-20)
(1.32819 0.0665918 9.48976e-20)
(1.31655 0.0618261 -1.53205e-20)
(1.30523 0.0571815 0)
(1.29419 0.0526803 0)
(1.28345 0.0483408 2.11138e-20)
(1.273 0.0441778 -1.10118e-20)
(1.26283 0.0402027 -9.56419e-21)
(1.25296 0.0364239 -7.98889e-21)
(1.24337 0.0328475 -1.49444e-20)
(1.23406 0.029477 -1.94222e-20)
(1.22504 0.0263135 1.89452e-20)
(1.21629 0.0233556 0)
(1.2078 0.0206003 -4.87035e-21)
(1.19956 0.0180456 2.99354e-22)
(1.19157 0.0156807 0)
(1.18382 0.0134358 0)
(1.17626 0.0111713 6.46229e-21)
(0.0477439 -0.00541275 -1.95844e-20)
(0.198506 -0.0126262 3.92929e-20)
(0.394913 -0.00440992 -3.75539e-20)
(0.615319 0.0142998 0)
(0.834213 0.0389647 -3.25974e-20)
(1.02853 0.0649311 3.02581e-20)
(1.18362 0.0881186 2.69388e-20)
(1.29507 0.10607 -2.7347e-20)
(1.36662 0.118077 0)
(1.40639 0.124674 0)
(1.42352 0.126992 -1.99725e-20)
(1.42607 0.126261 0)
(1.4201 0.123538 0)
(1.40968 0.119599 -3.00209e-20)
(1.39724 0.114961 -1.35558e-20)
(1.38409 0.109942 3.65462e-20)
(1.37088 0.10473 -5.7156e-20)
(1.35792 0.0994371 0)
(1.34529 0.0941326 4.60853e-20)
(1.33303 0.0888652 -1.7415e-21)
(1.32114 0.0836712 -4.73463e-20)
(1.3096 0.0785798 2.7013e-20)
(1.29841 0.0736149 -1.33101e-21)
(1.28754 0.0687964 -3.52385e-20)
(1.27699 0.0641404 -2.0519e-20)
(1.26676 0.0596601 1.02231e-21)
(1.25684 0.0553658 1.7558e-20)
(1.24722 0.0512652 -7.32855e-21)
(1.2379 0.0473638 7.87551e-22)
(1.22888 0.0436648 -1.21975e-20)
(1.22014 0.0401692 4.07696e-20)
(1.21167 0.0368759 -1.21544e-21)
(1.20345 0.0337832 -1.48582e-20)
(1.19549 0.0308883 -8.00424e-21)
(1.18776 0.0281735 1.61086e-20)
(1.18028 0.0255855 0)
(1.17299 0.0231383 -6.46747e-21)
(0.0625116 -0.00514241 4.06036e-20)
(0.240072 -0.00850057 0)
(0.457982 0.00630626 0)
(0.691032 0.0321519 0)
(0.911735 0.0626391 0)
(1.09824 0.0921606 0)
(1.23949 0.116646 0)
(1.33519 0.134233 0)
(1.39219 0.144955 0)
(1.42026 0.149951 -2.18561e-20)
(1.42897 0.150726 -1.9812e-20)
(1.42596 0.148681 0)
(1.4166 0.144896 0)
(1.40422 0.140109 1.49329e-20)
(1.3907 0.134778 3.98127e-20)
(1.37698 0.129171 -4.91494e-20)
(1.36348 0.123439 3.39877e-20)
(1.35037 0.117672 0)
(1.3377 0.111926 9.24343e-21)
(1.32546 0.106242 0)
(1.31363 0.100649 1.4681e-20)
(1.3022 0.0951737 -3.46516e-20)
(1.29114 0.0898368 -1.80711e-20)
(1.28045 0.0846553 3.45798e-20)
(1.2701 0.0796436 1.48742e-20)
(1.26008 0.0748128 -2.3603e-20)
(1.2504 0.0701719 -8.53863e-21)
(1.24103 0.0657274 0)
(1.23198 0.0614839 1.34115e-20)
(1.22322 0.0574439 -4.73078e-22)
(1.21475 0.0536079 -1.16254e-20)
(1.20656 0.0499745 0)
(1.19862 0.0465424 0)
(1.19092 0.0433063 0)
(1.18346 0.0402443 -3.67318e-21)
(1.17624 0.0373354 9.87403e-21)
(1.16921 0.0346744 -6.2954e-21)
(0.0784441 -0.00382931 0)
(0.283236 -0.00146642 0)
(0.521057 0.0211272 0)
(0.763643 0.0544268 -1.82178e-20)
(0.982777 0.0902639 5.11611e-22)
(1.15908 0.122449 -1.49582e-20)
(1.2857 0.147305 7.27902e-20)
(1.36628 0.163794 -1.45928e-20)
(1.41023 0.172749 -3.67844e-20)
(1.4284 0.175877 2.18716e-20)
(1.43032 0.17498 1.98263e-20)
(1.42305 0.171553 0)
(1.41119 0.166659 1.57472e-20)
(1.39743 0.160971 -1.50629e-20)
(1.38317 0.154885 0)
(1.36907 0.148619 -4.28361e-22)
(1.35539 0.142295 -1.65536e-20)
(1.3422 0.135982 0)
(1.32952 0.129727 1.73847e-20)
(1.31732 0.123563 -1.66374e-20)
(1.30558 0.117515 1.42775e-20)
(1.29427 0.111605 6.01535e-21)
(1.28336 0.10585 -2.44182e-20)
(1.27285 0.100266 0)
(1.2627 0.0948624 5.02661e-21)
(1.25291 0.0896502 4.55555e-21)
(1.24346 0.0846365 0)
(1.23435 0.0798264 -7.13597e-21)
(1.22556 0.0752231 6.83416e-21)
(1.21707 0.0708285 6.12277e-21)
(1.20888 0.066642 0)
(1.20095 0.0626622 9.51895e-21)
(1.19328 0.0588867 1.6273e-21)
(1.18584 0.0553059 -8.22802e-21)
(1.17865 0.0518988 -1.54553e-21)
(1.17169 0.048683 -1.3262e-21)
(1.16492 0.0457687 7.43337e-21)
(0.0952741 -0.00133375 5.50459e-21)
(0.32715 0.00867697 2.13622e-20)
(0.582822 0.0400889 9.77206e-21)
(0.831774 0.0808877 -2.809e-20)
(1.0464 0.121396 1.77317e-20)
(1.21085 0.155295 -1.56998e-20)
(1.3227 0.179661 7.73111e-21)
(1.38918 0.194435 1.32905e-20)
(1.42167 0.201261 1.80385e-20)
(1.43161 0.20234 0)
(1.42815 0.199691 9.52346e-21)
(1.41765 0.194838 -9.10818e-21)
(1.40398 0.188791 0)
(1.38926 0.182149 3.56174e-21)
(1.37451 0.175243 0)
(1.36017 0.168249 0)
(1.34638 0.161263 -4.96e-21)
(1.33317 0.154338 7.52528e-21)
(1.32053 0.147511 -8.45378e-21)
(1.30841 0.14081 8.09041e-21)
(1.29678 0.134254 0)
(1.28562 0.127863 0)
(1.27489 0.121649 1.44368e-20)
(1.26457 0.115624 -2.84292e-21)
(1.25463 0.109798 -2.3295e-21)
(1.24508 0.104177 0)
(1.23588 0.0987668 -3.78622e-21)
(1.22702 0.0935719 7.04715e-21)
(1.2185 0.0885933 -1.72646e-21)
(1.21029 0.0838319 0)
(1.20237 0.0792863 0)
(1.19472 0.0749543 1.13692e-21)
(1.18732 0.0708319 -1.13617e-21)
(1.18015 0.0669052 0)
(1.17322 0.0631593 -9.2474e-22)
(1.16653 0.0596502 -8.33134e-22)
(1.16002 0.0564448 -1.41846e-21)
(0.11273 0.00246839 -5.43388e-21)
(0.370998 0.0220597 0)
(0.642116 0.0631072 0)
(0.894347 0.111191 -9.49417e-21)
(1.10202 0.155555 -4.32771e-21)
(1.25356 0.190232 4.13685e-21)
(1.35097 0.213348 -7.34039e-21)
(1.40457 0.225915 0)
(1.42717 0.230347 -5.99942e-21)
(1.43033 0.229257 0)
(1.42267 0.2248 2.34775e-21)
(1.40976 0.218483 -4.35772e-21)
(1.39482 0.211237 3.92193e-21)
(1.37945 0.203582 -3.67134e-21)
(1.3644 0.19579 -1.63847e-21)
(1.34993 0.188001 0)
(1.33612 0.180286 0)
(1.32295 0.172687 2.36742e-21)
(1.31039 0.165232 0)
(1.29839 0.157942 9.23037e-22)
(1.28692 0.150833 -5.00149e-23)
(1.27593 0.143919 -4.51667e-23)
(1.2654 0.137209 -2.89547e-21)
(1.2553 0.130712 -3.23073e-21)
(1.24561 0.124435 2.33183e-21)
(1.23631 0.11838 0)
(1.22737 0.112553 0)
(1.2188 0.106956 0)
(1.21056 0.101587 -1.55174e-21)
(1.20263 0.0964465 0)
(1.195 0.0915322 0)
(1.18764 0.0868411 -6.01605e-22)
(1.18052 0.0823665 -1.53894e-21)
(1.17364 0.078092 -4.33699e-22)
(1.167 0.0740143 -4.13925e-22)
(1.16058 0.0702233 -7.44925e-22)
(1.15436 0.066701 0)
(-0.00923211 0.00366335 -2.511e-21)
(-0.0430579 0.00685838 0)
(-0.098744 0.00746589 0)
(-0.160012 0.00682849 -5.01517e-21)
(-0.220339 0.00566807 2.50817e-21)
(-0.27801 0.00431626 -2.39822e-21)
(-0.332296 0.00289931 -4.90378e-21)
(-0.382783 0.00144679 0)
(-0.429152 -4.54604e-05 -4.87728e-21)
(-0.47106 -0.00158791 0)
(-0.508119 -0.00318932 -2.4155e-21)
(-0.539918 -0.00485531 2.31026e-21)
(-0.566027 -0.0065883 -2.29689e-21)
(-0.586023 -0.0083877 -4.46224e-21)
(-0.5995 -0.0102497 2.11308e-21)
(-0.606091 -0.0121671 0)
(-0.605492 -0.0141289 0)
(-0.597515 -0.0161088 3.46385e-21)
(-0.582042 -0.0180482 0)
(-0.559059 -0.019932 -1.31363e-21)
(-0.52875 -0.0217396 1.28693e-22)
(-0.491447 -0.023424 1.36047e-22)
(-0.44763 -0.0249376 -3.26278e-21)
(-0.397944 -0.0262329 -1.97844e-21)
(-0.343179 -0.0272669 2.06304e-21)
(-0.284234 -0.0280051 0)
(-0.222086 -0.0284257 0)
(-0.15773 -0.028521 0)
(-0.0921451 -0.0282933 -1.16776e-22)
(-0.0263401 -0.0277565 0)
(0.0388279 -0.0269531 0)
(0.102694 -0.0259047 9.63779e-22)
(0.164641 -0.024656 3.94243e-22)
(0.224153 -0.0232429 -4.36526e-22)
(0.280934 -0.0217377 1.27631e-21)
(0.334565 -0.0200438 8.71856e-22)
(0.385365 -0.018689 0)
(-0.0105511 0.0298135 7.64744e-21)
(-0.0449715 0.0611697 -1.05001e-20)
(-0.0998178 0.0744117 -5.33219e-21)
(-0.159824 0.0776874 2.52239e-20)
(-0.218827 0.0760763 -9.80152e-21)
(-0.275187 0.0722903 1.00986e-20)
(-0.328186 0.0675022 -1.47533e-20)
(-0.377402 0.0620632 9.97214e-21)
(-0.422505 0.0559966 1.48134e-20)
(-0.46314 0.0492393 9.91235e-21)
(-0.498918 0.0417252 -1.92582e-20)
(-0.529424 0.0334073 9.35224e-21)
(-0.554231 0.0242625 0)
(-0.572919 0.0142941 1.34101e-20)
(-0.585089 0.00353536 -8.57459e-21)
(-0.590383 -0.00794688 0)
(-0.588485 -0.020047 2.26602e-20)
(-0.57914 -0.0326019 -1.77195e-20)
(-0.562322 -0.0453809 0)
(-0.538081 -0.0582058 0)
(-0.506525 -0.0708066 0)
(-0.467989 -0.0828786 0)
(-0.422976 -0.0941065 4.26684e-21)
(-0.372156 -0.104185 8.79531e-21)
(-0.316349 -0.112839 -2.0611e-21)
(-0.256494 -0.119853 0)
(-0.193606 -0.12508 1.55681e-21)
(-0.128713 -0.128453 -2.18942e-21)
(-0.0628097 -0.12999 7.85811e-22)
(0.00299708 -0.129847 0)
(0.0678572 -0.128151 0)
(0.131188 -0.125098 -6.08199e-22)
(0.192342 -0.120938 5.8053e-22)
(0.250808 -0.115881 0)
(0.306394 -0.110276 7.35867e-22)
(0.358531 -0.103865 7.62746e-22)
(0.408144 -0.0984203 1.62663e-21)
(-0.0132145 0.0538802 0)
(-0.0486457 0.112137 0)
(-0.101357 0.138147 0)
(-0.158334 0.145862 1.05561e-20)
(-0.214187 0.144306 3.48424e-22)
(-0.267432 0.138476 1.07721e-20)
(-0.317364 0.130621 -3.05398e-20)
(-0.363539 0.121459 -1.08086e-20)
(-0.405605 0.111072 9.78758e-21)
(-0.443199 0.0993587 2.04184e-20)
(-0.475926 0.0862028 2.02311e-20)
(-0.503376 0.0715189 0)
(-0.525132 0.0552636 0)
(-0.540788 0.0374415 0)
(-0.54996 0.0181114 0)
(-0.552301 -0.00260419 -3.407e-20)
(-0.547505 -0.0245109 8.24295e-21)
(-0.535328 -0.0473411 0)
(-0.515766 -0.070739 -2.58351e-20)
(-0.488857 -0.094302 2.47218e-20)
(-0.454738 -0.11752 -1.99059e-20)
(-0.413742 -0.139827 1.16474e-20)
(-0.366395 -0.16063 9.51943e-22)
(-0.31341 -0.179341 0)
(-0.255667 -0.195435 5.15595e-21)
(-0.194182 -0.208485 3.88795e-21)
(-0.130044 -0.218211 0)
(-0.0643676 -0.224493 2.1547e-21)
(0.00170545 -0.227417 -2.06325e-21)
(0.0671371 -0.22723 4.62543e-22)
(0.131109 -0.224164 0)
(0.192923 -0.218666 4.34243e-21)
(0.252028 -0.211212 -1.67134e-22)
(0.307951 -0.202196 -5.08227e-21)
(0.360709 -0.192271 -1.05812e-20)
(0.409464 -0.181015 8.64953e-22)
(0.456226 -0.171342 4.45729e-21)
(-0.0168609 0.0743326 3.47147e-22)
(-0.0536182 0.157194 0)
(-0.103059 0.19613 0)
(-0.15541 0.209179 0)
(-0.206425 0.208561 0)
(-0.254858 0.201373 0)
(-0.300034 0.190976 0)
(-0.34148 0.17854 0)
(-0.378816 0.164262 0)
(-0.411665 0.148033 -2.0403e-20)
(-0.439636 0.129698 -2.02156e-20)
(-0.462331 0.109139 4.11662e-20)
(-0.479357 0.0862933 -3.93739e-20)
(-0.490338 0.0611645 1.99079e-20)
(-0.494924 0.0338302 -1.80711e-20)
(-0.492803 0.00445627 7.00028e-20)
(-0.483715 -0.0266893 -1.64601e-20)
(-0.467415 -0.0592554 0)
(-0.443951 -0.0927927 1.4936e-20)
(-0.413376 -0.126676 0)
(-0.375827 -0.160161 -2.18702e-20)
(-0.331663 -0.192419 -9.61126e-21)
(-0.281441 -0.222558 3.94113e-20)
(-0.225933 -0.249679 -1.51108e-20)
(-0.166092 -0.272966 -2.5162e-20)
(-0.103036 -0.291738 3.11165e-22)
(-0.037959 -0.305571 7.33702e-21)
(0.0279007 -0.314305 0)
(0.0933632 -0.318066 -3.36699e-21)
(0.157404 -0.317174 3.56022e-21)
(0.219177 -0.31216 7.05724e-22)
(0.278011 -0.303689 2.8822e-21)
(0.333497 -0.292493 -2.76081e-21)
(0.385211 -0.27918 0)
(0.433483 -0.264725 2.73778e-21)
(0.477181 -0.248578 2.56145e-21)
(0.51956 -0.234573 -5.18953e-21)
(-0.0209896 0.0899584 -3.56632e-20)
(-0.0592422 0.194117 -2.42683e-20)
(-0.104517 0.246015 2.32e-20)
(-0.150918 0.265553 0)
(-0.195633 0.267093 -2.29517e-20)
(-0.237749 0.259513 -2.25696e-20)
(-0.276647 0.24731 -2.33192e-20)
(-0.31183 0.232215 6.53407e-20)
(-0.342882 0.214629 0)
(-0.36941 0.194481 0)
(-0.39103 0.171602 -2.20687e-20)
(-0.407368 0.145853 0)
(-0.418066 0.117157 0)
(-0.422799 0.0855169 -4.08647e-20)
(-0.421274 0.051024 -1.92082e-20)
(-0.413233 0.0138747 -1.93257e-20)
(-0.398507 -0.0256147 -1.84249e-20)
(-0.377002 -0.0670165 0)
(-0.348687 -0.109867 -4.32043e-20)
(-0.313621 -0.153288 3.26787e-21)
(-0.272044 -0.196367 2.57926e-20)
(-0.224345 -0.238025 -2.4442e-21)
(-0.171114 -0.277069 -3.58912e-20)
(-0.113202 -0.312223 1.93889e-20)
(-0.0516375 -0.342357 0)
(0.0123388 -0.366477 0)
(0.0773837 -0.383988 -1.74619e-21)
(0.142199 -0.394678 1.59234e-20)
(0.205578 -0.398712 -3.13725e-21)
(0.266503 -0.396613 -1.00396e-20)
(0.324208 -0.389179 -1.93541e-23)
(0.378142 -0.377351 3.48494e-21)
(0.428098 -0.362165 -2.36335e-21)
(0.47376 -0.34446 -8.49403e-21)
(0.515833 -0.32552 6.2646e-21)
(0.552958 -0.304759 0)
(0.589539 -0.286569 3.64153e-21)
(-0.0250312 0.0999737 -7.51428e-22)
(-0.0647637 0.221165 2.61519e-20)
(-0.105286 0.285741 0)
(-0.144778 0.313014 2.45415e-20)
(-0.182041 0.318184 7.06859e-20)
(-0.216596 0.311431 -4.5649e-20)
(-0.247932 0.298351 7.04336e-20)
(-0.275537 0.281351 -1.14012e-19)
(-0.298959 0.261149 -1.85269e-21)
(-0.317787 0.237787 6.76689e-20)
(-0.331644 0.21112 2.20542e-20)
(-0.340188 0.18101 0)
(-0.343115 0.147377 -4.44591e-20)
(-0.340169 0.110228 6.27996e-20)
(-0.331147 0.0696706 -4.14541e-20)
(-0.315884 0.0259178 0)
(-0.294289 -0.0207013 3.70951e-20)
(-0.266531 -0.0697386 -7.12925e-20)
(-0.23253 -0.120574 1.05536e-21)
(-0.192326 -0.172305 6.00165e-20)
(-0.146307 -0.223889 -5.55084e-20)
(-0.0949183 -0.274033 7.49425e-20)
(-0.03873 -0.32126 0)
(0.0212567 -0.363794 0)
(0.0838817 -0.400175 -2.81458e-20)
(0.14782 -0.42913 -8.78807e-21)
(0.211539 -0.449824 3.01837e-20)
(0.273675 -0.461968 -6.42571e-21)
(0.333067 -0.46583 -1.19219e-20)
(0.388803 -0.462164 1.41123e-20)
(0.440298 -0.45207 -1.22972e-20)
(0.48722 -0.436818 0)
(0.529656 -0.417759 3.88347e-22)
(0.567472 -0.395987 1.79217e-21)
(0.601776 -0.37302 0)
(0.631079 -0.348368 0)
(0.660721 -0.326518 -3.63859e-21)
(-0.0284297 0.104103 -2.65468e-20)
(-0.0694101 0.23723 6.07174e-22)
(-0.10494 0.313654 -7.85342e-20)
(-0.137 0.349769 1.15634e-22)
(-0.166049 0.360168 4.85511e-20)
(-0.192135 0.355674 2.4627e-20)
(-0.214926 0.342825 -4.7852e-20)
(-0.233933 0.324788 0)
(-0.248671 0.30273 -4.81746e-20)
(-0.258712 0.276905 -2.31516e-20)
(-0.263689 0.247253 4.77651e-20)
(-0.263307 0.213674 -1.87362e-19)
(-0.257329 0.1761 9.03279e-20)
(-0.24559 0.134566 -4.68154e-20)
(-0.228012 0.0891988 8.68614e-20)
(-0.204582 0.0402319 4.32085e-20)
(-0.175329 -0.0120125 0)
(-0.140504 -0.0671138 -7.60874e-20)
(-0.100167 -0.124321 1.07608e-19)
(-0.0544736 -0.182824 0)
(-0.00380618 -0.241493 -2.9091e-20)
(0.0512407 -0.298866 -2.81989e-20)
(0.110188 -0.353039 0)
(0.171995 -0.402018 0)