/*--------------------------------*- C++ -*----------------------------------*\
| =========                 |                                                 |
| \\      /  F ield         | OpenFOAM: The Open Source CFD Toolbox           |
|  \\    /   O peration     | Version:  2512                                  |
|   \\  /    A nd           | Website:  www.openfoam.com                      |
|    \\/     M anipulation  |                                                 |
\*---------------------------------------------------------------------------*/
FoamFile
{
    version     2.0;
    format      ascii;
    arch        "LSB;label=32;scalar=64";
    class       volVectorField;
    location    "65.5";
    object      U;
}
// * * * * * * * * * * * * * * * * * * * * * * * * * * * * * * * * * * * * * //

dimensions      [0 1 -1 0 0 0 0];

internalField   nonuniform List<vector> 
9800
(
(1 -2.84909e-05 0)
(1.00011 -8.07084e-05 0)
(1.00032 -0.000128664 0)
(1.0006 -0.000173956 0)
(1.00094 -0.000217887 0)
(1.00135 -0.000261472 0)
(1.00182 -0.00030548 0)
(1.00234 -0.000350414 0)
(1.0029 -0.000396459 0)
(1.00352 -0.000443457 0)
(1.00418 -0.000490943 0)
(1.00489 -0.000538225 0)
(1.00563 -0.000584508 0)
(1.0064 -0.000628992 0)
(1.00721 -0.00067096 0)
(1.00803 -0.000709825 0)
(1.00887 -0.000745157 0)
(1.00972 -0.000776683 0)
(1.01057 -0.000804266 0)
(1.01141 -0.000827881 0)
(1.01225 -0.000847594 0)
(1.01308 -0.000863535 0)
(1.01389 -0.000875881 0)
(1.01469 -0.000884845 0)
(1.01546 -0.000890659 0)
(1.01621 -0.000893569 0)
(1.01694 -0.000893824 0)
(1.01764 -0.000891678 0)
(1.01831 -0.000887377 0)
(1.01896 -0.000881166 0)
(1.01958 -0.000873272 0)
(1.02017 -0.000863921 0)
(1.02073 -0.000853312 0)
(1.02127 -0.000841641 0)
(1.02178 -0.000829079 0)
(1.02227 -0.000815788 0)
(1.02273 -0.00080191 0)
(1.02316 -0.000787575 0)
(1.02358 -0.000772896 0)
(1.02397 -0.000757978 0)
(1 -8.43808e-05 0)
(1.00011 -0.00023899 0)
(1.00031 -0.000380936 0)
(1.00059 -0.000514979 0)
(1.00094 -0.000645015 0)
(1.00135 -0.00077411 0)
(1.00181 -0.000904565 0)
(1.00233 -0.00103789 0)
(1.00289 -0.00117465 0)
(1.00351 -0.00131439 0)
(1.00417 -0.00145571 0)
(1.00487 -0.00159657 0)
(1.00562 -0.00173459 0)
(1.0064 -0.00186739 0)
(1.0072 -0.0019928 0)
(1.00803 -0.00210907 0)
(1.00888 -0.00221491 0)
(1.00973 -0.00230947 0)
(1.01059 -0.00239233 0)
(1.01144 -0.0024634 0)
(1.01229 -0.00252285 0)
(1.01313 -0.00257106 0)
(1.01395 -0.00260854 0)
(1.01476 -0.00263592 0)
(1.01554 -0.00265387 0)
(1.0163 -0.00266313 0)
(1.01704 -0.00266442 0)
(1.01775 -0.0026585 0)
(1.01844 -0.00264611 0)
(1.01909 -0.00262797 0)
(1.01972 -0.00260476 0)
(1.02032 -0.00257714 0)
(1.0209 -0.00254572 0)
(1.02145 -0.00251109 0)
(1.02197 -0.00247375 0)
(1.02246 -0.00243419 0)
(1.02293 -0.00239284 0)
(1.02338 -0.00235008 0)
(1.0238 -0.00230626 0)
(1.0242 -0.00226168 0)
(1 -0.000138006 0)
(1.00011 -0.000390671 0)
(1.00031 -0.000622507 0)
(1.00059 -0.000841422 0)
(1.00093 -0.00105393 0)
(1.00133 -0.00126518 0)
(1.00179 -0.00147904 0)
(1.00231 -0.00169803 0)
(1.00287 -0.0019231 0)
(1.00348 -0.00215351 0)
(1.00414 -0.00238697 0)
(1.00485 -0.00262008 0)
(1.0056 -0.00284889 0)
(1.00638 -0.00306944 0)
(1.00719 -0.00327813 0)
(1.00803 -0.00347199 0)
(1.00888 -0.00364885 0)
(1.00975 -0.00380726 0)
(1.01062 -0.00394646 0)
(1.01149 -0.00406623 0)
(1.01236 -0.00416683 0)
(1.01322 -0.00424881 0)
(1.01406 -0.004313 0)
(1.01489 -0.00436039 0)
(1.01569 -0.00439207 0)
(1.01647 -0.00440922 0)
(1.01723 -0.00441303 0)
(1.01796 -0.00440475 0)
(1.01867 -0.00438557 0)
(1.01935 -0.00435669 0)
(1.02 -0.00431924 0)
(1.02062 -0.00427432 0)
(1.02121 -0.00422293 0)
(1.02178 -0.00416605 0)
(1.02232 -0.00410452 0)
(1.02283 -0.00403917 0)
(1.02332 -0.00397069 0)
(1.02378 -0.00389976 0)
(1.02422 -0.00382695 0)
(1.02463 -0.00375277 0)
(1 -0.00018921 0)
(1.00011 -0.00053518 0)
(1.00031 -0.000852372 0)
(1.00058 -0.00115191 0)
(1.00092 -0.00144301 0)
(1.00131 -0.00173298 0)
(1.00177 -0.00202731 0)
(1.00227 -0.00232956 0)
(1.00283 -0.00264109 0)
(1.00344 -0.00296084 0)
(1.0041 -0.00328565 0)
(1.00481 -0.00361077 0)
(1.00556 -0.00393068 0)
(1.00635 -0.00423977 0)
(1.00717 -0.004533 0)
(1.00802 -0.00480617 0)
(1.00889 -0.00505614 0)
(1.00977 -0.0052808 0)
(1.01066 -0.00547899 0)
(1.01156 -0.0056503 0)
(1.01245 -0.00579496 0)
(1.01333 -0.00591367 0)
(1.0142 -0.00600751 0)
(1.01506 -0.00607776 0)
(1.01589 -0.00612589 0)
(1.01671 -0.0061535 0)
(1.0175 -0.0061622 0)
(1.01826 -0.00615371 0)
(1.019 -0.00612966 0)
(1.01971 -0.00609173 0)
(1.02039 -0.00604147 0)
(1.02104 -0.00598042 0)
(1.02166 -0.00590999 0)
(1.02226 -0.00583155 0)
(1.02282 -0.0057463 0)
(1.02336 -0.0056554 0)
(1.02387 -0.00555985 0)
(1.02436 -0.0054606 0)
(1.02482 -0.00535847 0)
(1.02525 -0.00525422 0)
(1 -0.000237846 0)
(1.00011 -0.000672037 0)
(1.0003 -0.00106972 0)
(1.00057 -0.00144529 0)
(1.0009 -0.00181087 0)
(1.00129 -0.00217595 0)
(1.00173 -0.00254779 0)
(1.00223 -0.00293106 0)
(1.00278 -0.00332748 0)
(1.00339 -0.00373573 0)
(1.00404 -0.00415172 0)
(1.00475 -0.00456938 0)
(1.0055 -0.00498159 0)
(1.0063 -0.0053811 0)
(1.00713 -0.00576132 0)
(1.00799 -0.00611677 0)
(1.00888 -0.00644329 0)
(1.00978 -0.00673802 0)
(1.0107 -0.00699928 0)
(1.01162 -0.00722637 0)
(1.01255 -0.00741944 0)
(1.01346 -0.00757922 0)
(1.01437 -0.00770695 0)
(1.01526 -0.00780417 0)
(1.01614 -0.00787263 0)
(1.01699 -0.00791429 0)
(1.01782 -0.00793119 0)
(1.01863 -0.00792545 0)
(1.0194 -0.00789915 0)
(1.02015 -0.00785441 0)
(1.02087 -0.00779321 0)
(1.02156 -0.00771754 0)
(1.02223 -0.00762921 0)
(1.02286 -0.00753 0)
(1.02346 -0.00742148 0)
(1.02403 -0.00730518 0)
(1.02458 -0.00718241 0)
(1.02509 -0.00705445 0)
(1.02558 -0.00692236 0)
(1.02604 -0.00678718 0)
(1 -0.000283771 0)
(1.00011 -0.000800754 0)
(1.0003 -0.00127371 0)
(1.00056 -0.00172044 0)
(1.00088 -0.00215607 0)
(1.00125 -0.00259245 0)
(1.00168 -0.00303872 0)
(1.00217 -0.00350073 0)
(1.00271 -0.00398062 0)
(1.00331 -0.00447675 0)
(1.00396 -0.00498417 0)
(1.00466 -0.00549545 0)
(1.00542 -0.00600188 0)
(1.00622 -0.00649449 0)
(1.00706 -0.00696511 0)
(1.00794 -0.0074069 0)
(1.00884 -0.00781461 0)
(1.00977 -0.00818447 0)
(1.01072 -0.00851418 0)
(1.01168 -0.00880265 0)
(1.01263 -0.0090498 0)
(1.01359 -0.00925633 0)
(1.01454 -0.00942351 0)
(1.01548 -0.00955304 0)
(1.0164 -0.00964688 0)
(1.0173 -0.00970732 0)
(1.01818 -0.00973671 0)
(1.01904 -0.0097376 0)
(1.01987 -0.00971245 0)
(1.02067 -0.00966382 0)
(1.02144 -0.00959411 0)
(1.02218 -0.00950576 0)
(1.02289 -0.00940098 0)
(1.02357 -0.00928201 0)
(1.02421 -0.0091508 0)
(1.02483 -0.00900927 0)
(1.02541 -0.00885907 0)
(1.02597 -0.00870184 0)
(1.0265 -0.00853891 0)
(1.02699 -0.00837163 0)
(1 -0.000326823 0)
(1.0001 -0.000920838 0)
(1.00029 -0.00146351 0)
(1.00054 -0.00197618 0)
(1.00084 -0.0024771 0)
(1.00121 -0.00298075 0)
(1.00162 -0.00349813 0)
(1.00209 -0.00403646 0)
(1.00262 -0.00459835 0)
(1.0032 -0.00518184 0)
(1.00385 -0.00578114 0)
(1.00455 -0.00638748 0)
(1.0053 -0.0069905 0)
(1.0061 -0.00757949 0)
(1.00696 -0.00814468 0)
(1.00785 -0.00867777 0)
(1.00878 -0.00917228 0)
(1.00973 -0.00962343 0)
(1.01071 -0.0100282 0)
(1.0117 -0.0103848 0)
(1.0127 -0.0106931 0)
(1.0137 -0.0109534 0)
(1.0147 -0.0111669 0)
(1.01569 -0.0113354 0)
(1.01667 -0.0114609 0)
(1.01763 -0.011546 0)
(1.01857 -0.0115933 0)
(1.01949 -0.0116058 0)
(1.02037 -0.0115861 0)
(1.02123 -0.0115373 0)
(1.02206 -0.0114622 0)
(1.02286 -0.0113637 0)
(1.02363 -0.0112444 0)
(1.02436 -0.011107 0)
(1.02507 -0.0109539 0)
(1.02573 -0.0107875 0)
(1.02637 -0.0106096 0)
(1.02697 -0.0104225 0)
(1.02755 -0.0102277 0)
(1.02809 -0.0100269 0)
(1 -0.000366828 0)
(1.0001 -0.00103181 0)
(1.00027 -0.00163827 0)
(1.00051 -0.00221136 0)
(1.00081 -0.00277249 0)
(1.00115 -0.00333901 0)
(1.00155 -0.0039239 0)
(1.002 -0.00453589 0)
(1.00251 -0.00517809 0)
(1.00308 -0.00584833 0)
(1.0037 -0.00653999 0)
(1.00439 -0.00724294 0)
(1.00514 -0.00794515 0)
(1.00595 -0.00863419 0)
(1.00681 -0.00929866 0)
(1.00772 -0.00992871 0)
(1.00866 -0.0105165 0)
(1.00965 -0.0110561 0)
(1.01066 -0.0115434 0)
(1.01169 -0.0119764 0)
(1.01273 -0.012354 0)
(1.01378 -0.0126764 0)
(1.01484 -0.0129445 0)
(1.01589 -0.0131599 0)
(1.01693 -0.0133249 0)
(1.01795 -0.0134419 0)
(1.01896 -0.0135139 0)
(1.01994 -0.0135439 0)
(1.0209 -0.0135351 0)
(1.02183 -0.0134909 0)
(1.02273 -0.0134144 0)
(1.0236 -0.0133089 0)
(1.02444 -0.0131777 0)
(1.02524 -0.0130237 0)
(1.02601 -0.0128499 0)
(1.02674 -0.012659 0)
(1.02743 -0.0124535 0)
(1.0281 -0.0122359 0)
(1.02872 -0.0120081 0)
(1.02932 -0.0117723 0)
(1 -0.000403621 0)
(1.0001 -0.00113316 0)
(1.00026 -0.0017972 0)
(1.00048 -0.00242483 0)
(1.00076 -0.00304079 0)
(1.00108 -0.00366536 0)
(1.00146 -0.00431392 0)
(1.00188 -0.00499647 0)
(1.00237 -0.00571691 0)
(1.00292 -0.00647303 0)
(1.00353 -0.0072574 0)
(1.0042 -0.00805842 0)
(1.00494 -0.00886243 0)
(1.00575 -0.00965533 0)
(1.00661 -0.0104241 0)
(1.00753 -0.0111573 0)
(1.00849 -0.0118455 0)
(1.0095 -0.0124814 0)
(1.01054 -0.0130601 0)
(1.01161 -0.0135784 0)
(1.01271 -0.014035 0)
(1.01381 -0.0144292 0)
(1.01492 -0.0147616 0)
(1.01604 -0.0150336 0)
(1.01715 -0.0152471 0)
(1.01825 -0.0154048 0)
(1.01933 -0.0155095 0)
(1.02039 -0.0155647 0)
(1.02143 -0.0155735 0)
(1.02245 -0.0155397 0)
(1.02343 -0.0154667 0)
(1.02438 -0.0153586 0)
(1.02529 -0.0152186 0)
(1.02617 -0.0150506 0)
(1.02702 -0.0148576 0)
(1.02782 -0.0146432 0)
(1.02859 -0.0144102 0)
(1.02932 -0.0141615 0)
(1.03001 -0.0138997 0)
(1.03067 -0.0136272 0)
(1 -0.000437067 0)
(1.00009 -0.00122442 0)
(1.00024 -0.0019396 0)
(1.00045 -0.00261554 0)
(1.0007 -0.00328058 0)
(1.001 -0.00395812 0)
(1.00135 -0.00466605 0)
(1.00175 -0.00541562 0)
(1.0022 -0.0062117 0)
(1.00272 -0.00705241 0)
(1.00331 -0.00792948 0)
(1.00397 -0.00882972 0)
(1.00469 -0.00973792 0)
(1.00549 -0.0106385 0)
(1.00635 -0.0115168 0)
(1.00727 -0.0123596 0)
(1.00825 -0.0131557 0)
(1.00928 -0.0138965 0)
(1.01036 -0.014576 0)
(1.01147 -0.0151902 0)
(1.01261 -0.0157365 0)
(1.01377 -0.0162137 0)
(1.01495 -0.0166215 0)
(1.01613 -0.0169611 0)
(1.01732 -0.017234 0)
(1.0185 -0.0174429 0)
(1.01967 -0.0175902 0)
(1.02082 -0.0176795 0)
(1.02195 -0.017714 0)
(1.02305 -0.0176979 0)
(1.02413 -0.0176348 0)
(1.02517 -0.0175292 0)
(1.02618 -0.0173848 0)
(1.02715 -0.0172059 0)
(1.02808 -0.0169961 0)
(1.02897 -0.0167595 0)
(1.02982 -0.0164994 0)
(1.03064 -0.0162193 0)
(1.03141 -0.0159224 0)
(1.03214 -0.0156114 0)
(1 -0.000467014 0)
(1.00008 -0.00130519 0)
(1.00022 -0.00206481 0)
(1.00041 -0.00278259 0)
(1.00064 -0.00349057 0)
(1.00091 -0.0042158 0)
(1.00122 -0.00497823 0)
(1.00159 -0.00579074 0)
(1.00201 -0.00665933 0)
(1.0025 -0.00758276 0)
(1.00305 -0.00855191 0)
(1.00368 -0.00955194 0)
(1.00439 -0.0105663 0)
(1.00517 -0.0115781 0)
(1.00602 -0.0125711 0)
(1.00695 -0.0135299 0)
(1.00794 -0.0144417 0)
(1.00899 -0.0152966 0)
(1.01009 -0.0160873 0)
(1.01124 -0.0168085 0)
(1.01242 -0.0174566 0)
(1.01364 -0.0180292 0)
(1.01489 -0.0185253 0)
(1.01614 -0.0189454 0)
(1.01741 -0.0192905 0)
(1.01868 -0.0195628 0)
(1.01994 -0.0197644 0)
(1.02119 -0.0198987 0)
(1.02242 -0.0199689 0)
(1.02363 -0.0199794 0)
(1.02482 -0.0199339 0)
(1.02596 -0.0198374 0)
(1.02708 -0.0196939 0)
(1.02815 -0.0195083 0)
(1.02919 -0.0192846 0)
(1.03018 -0.0190277 0)
(1.03113 -0.0187413 0)
(1.03203 -0.0184298 0)
(1.03289 -0.0180966 0)
(1.03371 -0.0177454 0)
(1 -0.000493317 0)
(1.00007 -0.0013752 0)
(1.0002 -0.00217235 0)
(1.00036 -0.00292518 0)
(1.00057 -0.00366981 0)
(1.0008 -0.0044371 0)
(1.00108 -0.00524865 0)
(1.0014 -0.00611928 0)
(1.00179 -0.00705688 0)
(1.00223 -0.00806048 0)
(1.00275 -0.00912011 0)
(1.00335 -0.0102196 0)
(1.00403 -0.0113417 0)
(1.00478 -0.0124679 0)
(1.00562 -0.0135803 0)
(1.00654 -0.0146612 0)
(1.00753 -0.0156966 0)
(1.00859 -0.016675 0)
(1.00972 -0.0175878 0)
(1.0109 -0.0184283 0)
(1.01213 -0.0191913 0)
(1.01341 -0.0198733 0)
(1.01472 -0.0204721 0)
(1.01606 -0.0209875 0)
(1.01741 -0.0214194 0)
(1.01877 -0.0217695 0)
(1.02014 -0.0220391 0)
(1.02149 -0.0222315 0)
(1.02284 -0.0223493 0)
(1.02417 -0.0223972 0)
(1.02547 -0.0223789 0)
(1.02673 -0.0222997 0)
(1.02797 -0.0221638 0)
(1.02916 -0.0219769 0)
(1.03031 -0.0217433 0)
(1.03142 -0.0214686 0)
(1.03248 -0.0211572 0)
(1.03349 -0.0208143 0)
(1.03446 -0.020444 0)
(1.03537 -0.0200506 0)
(1 -0.000515875 0)
(1.00007 -0.00143425 0)
(1.00017 -0.00226183 0)
(1.00031 -0.00304263 0)
(1.00048 -0.00381771 0)
(1.00068 -0.00462103 0)
(1.00092 -0.00547564 0)
(1.0012 -0.00639904 0)
(1.00153 -0.00740167 0)
(1.00193 -0.00848214 0)
(1.00241 -0.00962947 0)
(1.00296 -0.0108272 0)
(1.0036 -0.0120577 0)
(1.00433 -0.0133009 0)
(1.00514 -0.0145366 0)
(1.00604 -0.0157454 0)
(1.00703 -0.0169119 0)
(1.0081 -0.0180233 0)
(1.00924 -0.0190697 0)
(1.01045 -0.0200424 0)
(1.01172 -0.0209344 0)
(1.01305 -0.021741 0)
(1.01443 -0.0224586 0)
(1.01584 -0.023086 0)
(1.01728 -0.0236216 0)
(1.01875 -0.0240663 0)
(1.02022 -0.0244201 0)
(1.0217 -0.0246859 0)
(1.02317 -0.0248657 0)
(1.02462 -0.0249642 0)
(1.02606 -0.0249847 0)
(1.02746 -0.024933 0)
(1.02883 -0.0248131 0)
(1.03016 -0.0246315 0)
(1.03145 -0.024393 0)
(1.03269 -0.0241039 0)
(1.03388 -0.0237695 0)
(1.03501 -0.0233955 0)
(1.0361 -0.0229872 0)
(1.03712 -0.0225495 0)
(1 -0.000534595 0)
(1.00006 -0.00148232 0)
(1.00015 -0.00233291 0)
(1.00026 -0.00313464 0)
(1.00039 -0.00393408 0)
(1.00055 -0.0047669 0)
(1.00074 -0.00565767 0)
(1.00097 -0.00662839 0)
(1.00125 -0.00769144 0)
(1.0016 -0.00884436 0)
(1.00202 -0.0100754 0)
(1.00253 -0.011369 0)
(1.00312 -0.0127077 0)
(1.0038 -0.0140694 0)
(1.00458 -0.0154315 0)
(1.00545 -0.0167729 0)
(1.00642 -0.0180777 0)
(1.00748 -0.0193316 0)
(1.00863 -0.020523 0)
(1.00986 -0.021641 0)
(1.01117 -0.0226772 0)
(1.01255 -0.0236249 0)
(1.01399 -0.0244793 0)
(1.01548 -0.0252374 0)
(1.01702 -0.025896 0)
(1.01858 -0.0264545 0)
(1.02018 -0.0269112 0)
(1.02178 -0.0272688 0)
(1.02339 -0.0275278 0)
(1.02498 -0.0276929 0)
(1.02657 -0.0277664 0)
(1.02812 -0.0277545 0)
(1.02965 -0.0276611 0)
(1.03113 -0.0274933 0)
(1.03257 -0.0272562 0)
(1.03396 -0.0269572 0)
(1.0353 -0.0266022 0)
(1.03658 -0.0261978 0)
(1.0378 -0.0257507 0)
(1.03896 -0.0252661 0)
(1 -0.000549458 0)
(1.00005 -0.00151948 0)
(1.00011 -0.00238522 0)
(1.0002 -0.00320135 0)
(1.00029 -0.0040192 0)
(1.00041 -0.00487405 0)
(1.00055 -0.00579382 0)
(1.00073 -0.00680628 0)
(1.00095 -0.00792438 0)
(1.00123 -0.00914383 0)
(1.00159 -0.0104538 0)
(1.00204 -0.0118401 0)
(1.00257 -0.0132854 0)
(1.0032 -0.0147654 0)
(1.00393 -0.0162554 0)
(1.00476 -0.0177336 0)
(1.0057 -0.0191832 0)
(1.00675 -0.0205885 0)
(1.00789 -0.021936 0)
(1.00913 -0.0232127 0)
(1.01047 -0.0244085 0)
(1.01189 -0.0255153 0)
(1.01339 -0.026526 0)
(1.01495 -0.0274357 0)
(1.01658 -0.0282388 0)
(1.01826 -0.0289331 0)
(1.01997 -0.0295148 0)
(1.02171 -0.0299857 0)
(1.02346 -0.0303443 0)
(1.02522 -0.0305951 0)
(1.02696 -0.0307388 0)
(1.02869 -0.0307821 0)
(1.03039 -0.030728 0)
(1.03205 -0.0305846 0)
(1.03367 -0.0303571 0)
(1.03523 -0.0300538 0)
(1.03673 -0.0296816 0)
(1.03818 -0.0292479 0)
(1.03956 -0.0287609 0)
(1.04087 -0.0282267 0)
(1 -0.000560581 0)
(1.00003 -0.00154565 0)
(1.00008 -0.00241849 0)
(1.00013 -0.00324357 0)
(1.00019 -0.00407353 0)
(1.00026 -0.00494195 0)
(1.00035 -0.00588387 0)
(1.00046 -0.00693245 0)
(1.00062 -0.00809885 0)
(1.00084 -0.00937768 0)
(1.00113 -0.0107609 0)
(1.0015 -0.0122361 0)
(1.00196 -0.013785 0)
(1.00252 -0.015381 0)
(1.00319 -0.0169989 0)
(1.00398 -0.0186165 0)
(1.00487 -0.0202165 0)
(1.00588 -0.021781 0)
(1.007 -0.0232949 0)
(1.00824 -0.0247434 0)
(1.00959 -0.0261151 0)
(1.01105 -0.0273996 0)
(1.01259 -0.0285876 0)
(1.01423 -0.0296718 0)
(1.01595 -0.0306434 0)
(1.01773 -0.0314987 0)
(1.01957 -0.0322307 0)
(1.02146 -0.0328402 0)
(1.02337 -0.0333226 0)
(1.0253 -0.0336821 0)
(1.02723 -0.033917 0)
(1.02914 -0.0340342 0)
(1.03104 -0.0340355 0)
(1.0329 -0.0339298 0)
(1.03471 -0.0337221 0)
(1.03647 -0.0334219 0)
(1.03817 -0.0330368 0)
(1.0398 -0.0325754 0)
(1.04137 -0.0320477 0)
(1.04285 -0.0314603 0)
(1 -0.000568207 0)
(1.00002 -0.00156046 0)
(1.00005 -0.00243278 0)
(1.00006 -0.00326285 0)
(1.00008 -0.00409736 0)
(1.0001 -0.00497053 0)
(1.00013 -0.00592868 0)
(1.00018 -0.00700706 0)
(1.00026 -0.00821342 0)
(1.00041 -0.00954371 0)
(1.00063 -0.0109941 0)
(1.00092 -0.0125533 0)
(1.00129 -0.0142009 0)
(1.00178 -0.0159086 0)
(1.00237 -0.0176522 0)
(1.00309 -0.0194103 0)
(1.00392 -0.0211646 0)
(1.00488 -0.0228948 0)
(1.00597 -0.0245846 0)
(1.00719 -0.0262175 0)
(1.00854 -0.027781 0)
(1.01001 -0.0292624 0)
(1.0116 -0.03065 0)
(1.0133 -0.0319333 0)
(1.0151 -0.0331002 0)
(1.01699 -0.0341447 0)
(1.01896 -0.0350563 0)
(1.02099 -0.0358338 0)
(1.02307 -0.0364688 0)
(1.02519 -0.0369645 0)
(1.02732 -0.0373159 0)
(1.02944 -0.0375301 0)
(1.03156 -0.0376068 0)
(1.03364 -0.0375556 0)
(1.03569 -0.0373808 0)
(1.03767 -0.037093 0)
(1.0396 -0.0367009 0)
(1.04145 -0.0362139 0)
(1.04322 -0.0356445 0)
(1.04491 -0.0349998 0)
(1 -0.000572646 0)
(1.00001 -0.00156299 0)
(1.00001 -0.00242895 0)
(0.999986 -0.00326111 0)
(0.99996 -0.00409058 0)
(0.999937 -0.0049607 0)
(0.999905 -0.00593007 0)
(0.999881 -0.00703028 0)
(0.999896 -0.00826713 0)
(0.999966 -0.00964081 0)
(1.00009 -0.011152 0)
(1.00029 -0.0127884 0)
(1.00057 -0.0145279 0)
(1.00097 -0.0163414 0)
(1.00147 -0.018207 0)
(1.0021 -0.0201043 0)
(1.00286 -0.0220141 0)
(1.00375 -0.0239144 0)
(1.00478 -0.025788 0)
(1.00597 -0.027617 0)
(1.00729 -0.0293879 0)
(1.00876 -0.0310855 0)
(1.01037 -0.0326955 0)
(1.01212 -0.0342041 0)
(1.014 -0.0355957 0)
(1.016 -0.0368613 0)
(1.01809 -0.0379856 0)
(1.02028 -0.0389653 0)
(1.02254 -0.0397865 0)
(1.02485 -0.0404515 0)
(1.0272 -0.0409503 0)
(1.02956 -0.04129 0)
(1.03192 -0.0414669 0)
(1.03426 -0.0414914 0)
(1.03657 -0.0413662 0)
(1.03881 -0.0411033 0)
(1.041 -0.0407117 0)
(1.0431 -0.0402024 0)
(1.04512 -0.0395903 0)
(1.04704 -0.0388835 0)
(1 -0.000574007 0)
(0.999999 -0.00155187 0)
(0.999967 -0.00240912 0)
(0.999904 -0.00324002 0)
(0.999843 -0.00405294 0)
(0.999768 -0.00491496 0)
(0.999669 -0.00589002 0)
(0.999574 -0.00700213 0)
(0.999515 -0.00825992 0)
(0.9995 -0.00966919 0)
(0.999533 -0.0112336 0)
(0.999626 -0.0129389 0)
(0.999809 -0.0147613 0)
(1.0001 -0.0166732 0)
(1.0005 -0.0186555 0)
(1.00103 -0.0206882 0)
(1.00168 -0.0227519 0)
(1.00249 -0.0248239 0)
(1.00344 -0.0268872 0)
(1.00456 -0.0289224 0)
(1.00585 -0.0309152 0)
(1.0073 -0.0328476 0)
(1.00891 -0.0347032 0)
(1.01069 -0.0364645 0)
(1.01263 -0.0381123 0)
(1.01472 -0.039634 0)
(1.01694 -0.0410086 0)
(1.01928 -0.0422298 0)
(1.02172 -0.043277 0)
(1.02425 -0.0441504 0)
(1.02684 -0.0448341 0)
(1.02946 -0.0453344 0)
(1.0321 -0.0456426 0)
(1.03472 -0.0457697 0)
(1.03732 -0.0457157 0)
(1.03987 -0.0454939 0)
(1.04235 -0.0451132 0)
(1.04475 -0.0445866 0)
(1.04705 -0.0439311 0)
(1.04925 -0.0431564 0)
(1 -0.00057175 0)
(0.999986 -0.00152585 0)
(0.999916 -0.00237678 0)
(0.999818 -0.00320017 0)
(0.999724 -0.00398491 0)
(0.999593 -0.00483729 0)
(0.999427 -0.00580966 0)
(0.999262 -0.00692298 0)
(0.999125 -0.00819318 0)
(0.999019 -0.00963006 0)
(0.998949 -0.011239 0)
(0.998934 -0.0130028 0)
(0.999005 -0.0148978 0)
(0.999177 -0.0168991 0)
(0.999459 -0.0189907 0)
(0.99986 -0.0211524 0)
(1.0004 -0.0233652 0)
(1.00109 -0.0256074 0)
(1.00195 -0.0278632 0)
(1.00298 -0.0301122 0)
(1.00419 -0.0323396 0)
(1.00559 -0.0345242 0)
(1.00719 -0.0366482 0)
(1.00898 -0.0386902 0)
(1.01096 -0.0406279 0)
(1.01312 -0.0424436 0)
(1.01546 -0.0441107 0)
(1.01796 -0.045618 0)
(1.02059 -0.0469375 0)
(1.02334 -0.0480662 0)
(1.02618 -0.0489801 0)
(1.02908 -0.0496841 0)
(1.03203 -0.0501625 0)
(1.03498 -0.0504265 0)
(1.03792 -0.0504716 0)
(1.04081 -0.0503125 0)
(1.04365 -0.049957 0)
(1.04638 -0.0494204 0)
(1.04902 -0.0487214 0)
(1.05154 -0.0478728 0)
(1 -0.000564075 0)
(0.999969 -0.00148482 0)
(0.999856 -0.00233627 0)
(0.999731 -0.00314078 0)
(0.999604 -0.00388884 0)
(0.999413 -0.004732 0)
(0.999182 -0.00568875 0)
(0.998948 -0.00679477 0)
(0.998729 -0.00806933 0)
(0.998526 -0.00952542 0)
(0.998348 -0.0111689 0)
(0.998218 -0.012979 0)
(0.998169 -0.0149352 0)
(0.998212 -0.0170154 0)
(0.998357 -0.0192066 0)
(0.998617 -0.0214881 0)
(0.999016 -0.0238424 0)
(0.999571 -0.0262501 0)
(1.0003 -0.0286974 0)
(1.00121 -0.0311641 0)
(1.00233 -0.0336357 0)
(1.00365 -0.036088 0)
(1.0052 -0.0385022 0)
(1.00697 -0.0408528 0)
(1.00896 -0.043115 0)
(1.01119 -0.0452652 0)
(1.01362 -0.0472711 0)
(1.01626 -0.049115 0)
(1.01908 -0.0507605 0)
(1.02206 -0.0521997 0)
(1.02517 -0.0533985 0)
(1.02839 -0.0543592 0)
(1.03168 -0.0550565 0)
(1.035 -0.0555011 0)
(1.03832 -0.0556815 0)
(1.04162 -0.0556142 0)
(1.04485 -0.0553034 0)
(1.04799 -0.0547682 0)
(1.05103 -0.0540273 0)
(1.05392 -0.0530983 0)
(1 -0.000547236 0)
(0.999944 -0.00143149 0)
(0.999785 -0.00229119 0)
(0.999644 -0.00306039 0)
(0.999481 -0.00376946 0)
(0.99923 -0.00460202 0)
(0.998939 -0.00552642 0)
(0.998632 -0.00662198 0)
(0.998329 -0.00789084 0)
(0.998025 -0.00935817 0)
(0.997735 -0.0110243 0)
(0.997486 -0.0128677 0)
(0.997308 -0.0148729 0)
(0.99721 -0.0170195 0)
(0.997203 -0.0192982 0)
(0.997306 -0.0216875 0)
(0.997545 -0.0241731 0)
(0.997939 -0.0267386 0)
(0.99851 -0.0293723 0)
(0.999277 -0.0320562 0)
(1.00026 -0.0347771 0)
(1.00147 -0.0375088 0)
(1.00293 -0.0402328 0)
(1.00464 -0.0429189 0)
(1.00662 -0.0455406 0)
(1.00887 -0.0480674 0)
(1.01138 -0.050462 0)
(1.01415 -0.0526986 0)
(1.01715 -0.0547319 0)
(1.02036 -0.056546 0)
(1.02376 -0.0580958 0)
(1.02731 -0.0593778 0)
(1.03097 -0.0603552 0)
(1.03471 -0.061036 0)
(1.03848 -0.0613994 0)
(1.04224 -0.0614626 0)
(1.04594 -0.061224 0)
(1.04956 -0.060707 0)
(1.05306 -0.0599286 0)
(1.0564 -0.0589132 0)
(1.00001 -0.00051507 0)
(0.999906 -0.00137326 0)
(0.999703 -0.00224165 0)
(0.999559 -0.00295871 0)
(0.999354 -0.00363219 0)
(0.999046 -0.00444783 0)
(0.998699 -0.00532292 0)
(0.998317 -0.0064116 0)
(0.997928 -0.00765881 0)
(0.997521 -0.00913318 0)
(0.997118 -0.010806 0)
(0.996744 -0.0126709 0)
(0.99643 -0.0147116 0)
(0.99618 -0.0169103 0)
(0.996009 -0.0192625 0)
(0.99594 -0.0217445 0)
(0.995997 -0.0243488 0)
(0.996206 -0.0270606 0)
(0.996591 -0.0298717 0)
(0.997177 -0.0327674 0)
(0.997986 -0.035737 0)
(0.999045 -0.0387553 0)
(1.00037 -0.0418043 0)
(1.00199 -0.0448502 0)
(1.00392 -0.0478651 0)
(1.00615 -0.0508117 0)
(1.0087 -0.0536478 0)
(1.01157 -0.0563383 0)
(1.01473 -0.0588288 0)
(1.01818 -0.0610928 0)
(1.02187 -0.0630723 0)
(1.02578 -0.0647543 0)
(1.02985 -0.0660884 0)
(1.03405 -0.0670765 0)
(1.03833 -0.0676853 0)
(1.04262 -0.067931 0)
(1.04688 -0.0678032 0)
(1.05105 -0.0673295 0)
(1.05511 -0.0665228 0)
(1.059 -0.0654166 0)
(1.00001 -0.00045918 0)
(0.99985 -0.00132424 0)
(0.999614 -0.00218136 0)
(0.999475 -0.00283988 0)
(0.999221 -0.00347929 0)
(0.998867 -0.00426915 0)
(0.998463 -0.00508063 0)
(0.998002 -0.00617182 0)
(0.997531 -0.00737222 0)
(0.997016 -0.00885867 0)
(0.996502 -0.0105129 0)
(0.996 -0.0123944 0)
(0.995544 -0.0144514 0)
(0.995134 -0.0166894 0)
(0.994788 -0.019098 0)
(0.994531 -0.0216556 0)
(0.994389 -0.024363 0)
(0.99439 -0.0272054 0)
(0.994561 -0.0301808 0)
(0.99493 -0.0332781 0)
(0.995529 -0.0364901 0)
(0.99639 -0.0397954 0)
(0.997543 -0.0431783 0)
(0.999017 -0.0466037 0)
(1.00083 -0.0500425 0)
(1.00301 -0.053451 0)
(1.00556 -0.0567831 0)
(1.00849 -0.0599932 0)
(1.01178 -0.0630178 0)
(1.01544 -0.0658171 0)
(1.01942 -0.0683191 0)
(1.02371 -0.0704967 0)
(1.02823 -0.0722828 0)
(1.03294 -0.0736686 0)
(1.03778 -0.0746049 0)
(1.04269 -0.0751029 0)
(1.0476 -0.0751404 0)
(1.05245 -0.074747 0)
(1.05717 -0.07393 0)
(1.06171 -0.0727318 0)
(1.00003 -0.000369375 0)
(0.999772 -0.00130562 0)
(0.999526 -0.00209561 0)
(0.999392 -0.00271596 0)
(0.999085 -0.00330523 0)
(0.998695 -0.00407003 0)
(0.998228 -0.00480185 0)
(0.997692 -0.00591172 0)
(0.99714 -0.00702743 0)
(0.996516 -0.00854758 0)
(0.995897 -0.0101391 0)
(0.995258 -0.0120508 0)
(0.994662 -0.014089 0)
(0.994081 -0.0163641 0)
(0.993554 -0.0188026 0)
(0.993097 -0.0214213 0)
(0.992739 -0.0242109 0)
(0.99251 -0.0271653 0)
(0.992438 -0.030287 0)
(0.992558 -0.0335705 0)
(0.992907 -0.0370123 0)
(0.993523 -0.0405983 0)
(0.994447 -0.0443156 0)
(0.995716 -0.0481331 0)
(0.997363 -0.0520203 0)
(0.99942 -0.0559302 0)
(1.00191 -0.059812 0)
(1.00485 -0.0636102 0)
(1.00824 -0.0672525 0)
(1.01208 -0.0706834 0)
(1.01634 -0.0738156 0)
(1.02099 -0.0766029 0)
(1.02599 -0.0789587 0)
(1.03127 -0.0808569 0)
(1.03676 -0.0822279 0)
(1.04238 -0.0830719 0)
(1.04805 -0.0833508 0)
(1.05369 -0.0830923 0)
(1.05922 -0.0822953 0)
(1.06455 -0.0810108 0)
(1.00005 -0.000235053 0)
(0.999673 -0.00134121 0)
(0.999451 -0.00196193 0)
(0.999305 -0.00260844 0)
(0.998954 -0.00309389 0)
(0.998532 -0.00386523 0)
(0.997998 -0.00448271 0)
(0.997391 -0.00564397 0)
(0.996762 -0.00661656 0)
(0.996025 -0.00821882 0)
(0.995313 -0.00967174 0)
(0.994525 -0.0116638 0)
(0.993798 -0.0136117 0)
(0.993032 -0.0159536 0)
(0.992327 -0.018367 0)
(0.991654 -0.0210518 0)
(0.991069 -0.0238848 0)
(0.99059 -0.0269391 0)
(0.990252 -0.0301779 0)
(0.99009 -0.0336307 0)
(0.990148 -0.0372805 0)
(0.99047 -0.0411357 0)
(0.991107 -0.045177 0)
(0.992106 -0.0493905 0)
(0.993515 -0.0537404 0)
(0.995378 -0.058185 0)
(0.997732 -0.0626664 0)
(1.00061 -0.0671225 0)
(1.00403 -0.071471 0)
(1.008 -0.0756399 0)
(1.01251 -0.0795252 0)
(1.01753 -0.0830575 0)
(1.02302 -0.0861266 0)
(1.02891 -0.088681 0)
(1.03512 -0.0906256 0)
(1.04156 -0.0919408 0)
(1.04813 -0.0925664 0)
(1.05471 -0.0925218 0)
(1.06121 -0.0917937 0)
(1.06751 -0.0904389 0)
(1.00009 -5.24867e-05 0)
(0.999549 -0.00145038 0)
(0.999408 -0.00175611 0)
(0.999209 -0.00254432 0)
(0.998844 -0.00282125 0)
(0.998372 -0.00368309 0)
(0.997781 -0.00410833 0)
(0.997103 -0.00538988 0)
(0.996404 -0.00612473 0)
(0.99555 -0.00789963 0)
(0.994761 -0.00908837 0)
(0.993806 -0.0112717 0)
(0.992973 -0.0129906 0)
(0.991993 -0.0154987 0)
(0.991133 -0.0177638 0)
(0.990214 -0.0205785 0)
(0.989411 -0.023363 0)
(0.98865 -0.0265419 0)
(0.988033 -0.0298336 0)
(0.987553 -0.0334553 0)
(0.987286 -0.0372678 0)
(0.987263 -0.0413844 0)
(0.987555 -0.0457207 0)
(0.988211 -0.05033 0)
(0.989304 -0.0551383 0)
(0.990883 -0.060144 0)
(0.993014 -0.0652639 0)
(0.995741 -0.0704471 0)
(0.999106 -0.0755915 0)
(1.00313 -0.0806145 0)
(1.00783 -0.0853914 0)
(1.01319 -0.0898267 0)
(1.01917 -0.0937823 0)
(1.0257 -0.0971723 0)
(1.03271 -0.0998688 0)
(1.04008 -0.101821 0)
(1.04769 -0.102938 0)
(1.0554 -0.10322 0)
(1.06308 -0.102637 0)
(1.07057 -0.101244 0)
(1.00017 0.000172836 0)
(0.999392 -0.00163608 0)
(0.999428 -0.00146373 0)
(0.999085 -0.0025451 0)
(0.998779 -0.00246555 0)
(0.998198 -0.00355525 0)
(0.9976 -0.00365647 0)
(0.996817 -0.0051785 0)
(0.996086 -0.00553109 0)
(0.995086 -0.00762538 0)
(0.994262 -0.00835969 0)
(0.993094 -0.0109268 0)
(0.992212 -0.0121804 0)
(0.990961 -0.0150668 0)
(0.990008 -0.0169376 0)
(0.988777 -0.0200705 0)
(0.987805 -0.0225913 0)
(0.986701 -0.0260279 0)
(0.985827 -0.0292069 0)
(0.984969 -0.0330719 0)
(0.984366 -0.0369282 0)
(0.983932 -0.0413417 0)
(0.983833 -0.0458907 0)
(0.984061 -0.0509176 0)
(0.984756 -0.0561374 0)
(0.985944 -0.0617366 0)
(0.987746 -0.0675022 0)
(0.990204 -0.0734841 0)
(0.993405 -0.0795037 0)
(0.997386 -0.0855092 0)
(1.00219 -0.0913288 0)
(1.00782 -0.0968517 0)
(1.01426 -0.101901 0)
(1.02146 -0.106348 0)
(1.02932 -0.110024 0)
(1.03774 -0.112832 0)
(1.04656 -0.114637 0)
(1.05561 -0.115408 0)
(1.06471 -0.115082 0)
(1.07367 -0.113707 0)
(1.00036 0.000427784 0)
(0.999164 -0.00188118 0)
(0.999564 -0.00109105 0)
(0.99889 -0.002612 0)
(0.998808 -0.00202226 0)
(0.997963 -0.00349721 0)
(0.997503 -0.00311183 0)
(0.996492 -0.00503165 0)
(0.995852 -0.0048191 0)
(0.994593 -0.00742698 0)
(0.993857 -0.007461 0)
(0.992357 -0.0106802 0)
(0.991564 -0.0111333 0)
(0.989901 -0.0147389 0)
(0.989008 -0.0158131 0)
(0.987312 -0.0196354 0)
(0.986319 -0.0214749 0)
(0.984718 -0.0255115 0)
(0.983706 -0.0281978 0)
(0.982328 -0.0325766 0)
(0.981459 -0.036165 0)
(0.980483 -0.0410647 0)
(0.980004 -0.0455883 0)
(0.979674 -0.0511629 0)
(0.979923 -0.0566253 0)
(0.98057 -0.0629207 0)
(0.981942 -0.0692395 0)
(0.983968 -0.0761327 0)
(0.986873 -0.0830467 0)
(0.990654 -0.0901953 0)
(0.995443 -0.0971997 0)
(1.00124 -0.104035 0)
(1.00808 -0.11042 0)
(1.01592 -0.116201 0)
(1.02469 -0.121147 0)
(1.03426 -0.125096 0)
(1.04447 -0.127857 0)
(1.05511 -0.129343 0)
(1.06595 -0.129443 0)
(1.07673 -0.128181 0)
(1.00074 0.000690169 0)
(0.998787 -0.00215304 0)
(0.999903 -0.000666546 0)
(0.998535 -0.00272322 0)
(0.999016 -0.00151359 0)
(0.997573 -0.00349696 0)
(0.997581 -0.00248279 0)
(0.996024 -0.00494558 0)
(0.995796 -0.00399415 0)
(0.993971 -0.0073077 0)
(0.993642 -0.00639332 0)
(0.991496 -0.0105501 0)
(0.991124 -0.00983097 0)
(0.988721 -0.0145674 0)
(0.988235 -0.0143342 0)
(0.985725 -0.0193732 0)
(0.985066 -0.0199112 0)
(0.982611 -0.0251393 0)
(0.981794 -0.0266624 0)
(0.979552 -0.0321422 0)
(0.978694 -0.0348078 0)
(0.976857 -0.0407181 0)
(0.976192 -0.044628 0)
(0.975014 -0.0511872 0)
(0.974907 -0.0564013 0)
(0.974741 -0.0637504 0)
(0.975669 -0.0702511 0)
(0.976987 -0.078365 0)
(0.979496 -0.0859641 0)
(0.982822 -0.0945556 0)
(0.987456 -0.102762 0)
(0.993227 -0.111237 0)
(1.00037 -0.119199 0)
(1.00878 -0.126679 0)
(1.01846 -0.133266 0)
(1.02929 -0.138732 0)
(1.04108 -0.142814 0)
(1.0536 -0.145333 0)
(1.06655 -0.146101 0)
(1.07958 -0.145103 0)
(1.00143 0.000934878 0)
(0.998146 -0.00241212 0)
(1.00056 -0.000232433 0)
(0.997893 -0.0028423 0)
(0.999526 -0.000979123 0)
(0.996882 -0.00351844 0)
(0.997978 -0.00180676 0)
(0.995242 -0.00488764 0)
(0.996087 -0.00309673 0)
(0.993024 -0.00723185 0)
(0.993803 -0.005204 0)
(0.990309 -0.0104977 0)
(0.991087 -0.00831939 0)
(0.987216 -0.0145269 0)
(0.987889 -0.0125242 0)
(0.983817 -0.0192978 0)
(0.984253 -0.0178738 0)
(0.980181 -0.0249874 0)
(0.980315 -0.0245034 0)
(0.976443 -0.0319194 0)
(0.976314 -0.0326778 0)
(0.972868 -0.040519 0)
(0.972649 -0.0427531 0)
(0.969915 -0.0512418 0)
(0.96995 -0.0551378 0)
(0.968318 -0.0644653 0)
(0.969123 -0.0701492 0)
(0.969136 -0.0803578 0)
(0.971383 -0.0878083 0)
(0.973713 -0.0986512 0)
(0.978171 -0.107547 0)
(0.983495 -0.118384 0)
(0.990853 -0.127884 0)
(0.999631 -0.137694 0)
(1.01022 -0.146314 0)
(1.02237 -0.153837 0)
(1.03594 -0.159759 0)
(1.05066 -0.163736 0)
(1.06617 -0.165533 0)
(1.08201 -0.165025 0)
(1.00251 0.00114002 0)
(0.997152 -0.00262005 0)
(1.00161 0.000172149 0)
(0.996855 -0.00292972 0)