/*--------------------------------*- C++ -*----------------------------------*\
| =========                 |                                                 |
| \\      /  F ield         | OpenFOAM: The Open Source CFD Toolbox           |
|  \\    /   O peration     | Version:  2512                                  |
|   \\  /    A nd           | Website:  www.openfoam.com                      |
|    \\/     M anipulation  |                                                 |
\*---------------------------------------------------------------------------*/
FoamFile
{
    version     2.0;
    format      ascii;
    arch        "LSB;label=32;scalar=64";
    class       volScalarField;
    location    "41.15";
    object      p;
}
// * * * * * * * * * * * * * * * * * * * * * * * * * * * * * * * * * * * * * //

dimensions      [0 2 -2 0 0 0 0];

internalField   nonuniform List<scalar> 
13248
(
-0.472417
-0.470834
-0.469206
-0.467704
-0.466693
-0.466471
-0.467137
-0.468562
-0.470376
-0.471978
-0.472579
-0.47132
-0.467408
-0.460258
-0.449592
-0.435477
-0.418279
-0.398572
-0.376949
-0.354101
-0.330179
-0.305925
-0.279926
-0.252636
-0.476515
-0.474779
-0.472683
-0.470482
-0.468609
-0.46736
-0.466773
-0.466603
-0.466335
-0.465268
-0.462644
-0.457788
-0.450238
-0.43981
-0.426611
-0.410981
-0.393384
-0.374306
-0.354179
-0.33332
-0.311954
-0.29029
-0.268044
-0.246148
-0.481923
-0.47987
-0.477294
-0.47447
-0.471795
-0.469483
-0.467439
-0.465267
-0.462375
-0.458121
-0.451968
-0.443583
-0.432888
-0.420035
-0.405338
-0.389177
-0.371907
-0.353842
-0.335198
-0.316218
-0.296978
-0.277742
-0.258323
-0.238799
-0.489109
-0.486496
-0.483367
-0.4799
-0.476352
-0.472762
-0.468855
-0.464147
-0.458122
-0.450395
-0.440786
-0.429332
-0.41624
-0.40181
-0.38635
-0.370126
-0.353353
-0.336197
-0.318808
-0.30132
-0.283823
-0.266546
-0.249264
-0.23242
-0.498314
-0.494865
-0.491043
-0.486806
-0.482148
-0.476874
-0.470567
-0.462804
-0.453351
-0.442203
-0.429544
-0.415664
-0.400873
-0.38544
-0.369572
-0.35342
-0.337095
-0.320691
-0.304291
-0.287981
-0.271843
-0.255984
-0.240306
-0.225075
-0.509622
-0.505079
-0.500393
-0.495149
-0.488977
-0.481443
-0.472138
-0.460925
-0.44799
-0.433713
-0.418515
-0.402763
-0.386728
-0.370585
-0.354437
-0.338349
-0.322368
-0.306534
-0.290892
-0.275492
-0.260381
-0.245622
-0.231154
-0.217216
-0.523032
-0.517194
-0.511453
-0.504848
-0.496569
-0.486062
-0.473188
-0.458304
-0.442035
-0.425017
-0.407739
-0.390514
-0.373513
-0.356809
-0.340425
-0.324368
-0.308639
-0.293246
-0.2782
-0.263517
-0.249219
-0.235311
-0.221781
-0.208772
-0.538417
-0.531165
-0.524135
-0.515659
-0.504494
-0.490248
-0.473369
-0.454791
-0.435462
-0.416087
-0.397085
-0.378651
-0.360843
-0.343651
-0.327044
-0.310984
-0.295442
-0.280394
-0.265823
-0.251721
-0.238078
-0.224883
-0.212151
-0.199904
-0.555437
-0.546716
-0.53808
-0.527036
-0.512091
-0.49344
-0.472349
-0.45024
-0.428179
-0.406781
-0.386315
-0.366846
-0.348335
-0.330712
-0.313899
-0.297829
-0.282441
-0.267687
-0.253526
-0.239924
-0.226851
-0.214284
-0.202229
-0.190611
-0.573426
-0.563222
-0.552541
-0.538057
-0.518463
-0.494986
-0.469721
-0.444361
-0.419888
-0.396733
-0.374997
-0.354622
-0.335495
-0.317495
-0.300509
-0.284439
-0.269201
-0.254723
-0.240941
-0.227801
-0.215254
-0.203267
-0.191816
-0.180771
-0.591346
-0.579655
-0.566328
-0.547438
-0.522487
-0.494026
-0.46479
-0.436491
-0.409893
-0.385206
-0.362367
-0.341216
-0.321575
-0.303279
-0.286182
-0.270158
-0.255099
-0.240915
-0.227524
-0.214855
-0.202846
-0.191448
-0.180594
-0.170156
-0.607838
-0.594657
-0.577927
-0.553681
-0.522897
-0.489499
-0.456585
-0.425675
-0.397241
-0.371256
-0.347511
-0.325752
-0.305742
-0.287275
-0.270172
-0.254281
-0.239474
-0.225641
-0.212684
-0.200524
-0.189092
-0.178337
-0.168179
-0.158515
-0.364948
-0.366416
-0.367219
-0.367942
-0.36882
-0.369934
-0.371282
-0.372836
-0.374553
-0.376371
-0.378219
-0.380019
-0.381687
-0.383139
-0.384299
-0.385107
-0.385534
-0.385595
-0.385385
-0.385087
-0.384923
-0.385115
-0.386036
-0.388542
-0.37699
-0.378608
-0.379701
-0.380886
-0.382426
-0.384366
-0.386703
-0.389404
-0.392428
-0.395679
-0.399067
-0.40246
-0.405707
-0.408633
-0.411042
-0.412732
-0.41351
-0.413223
-0.4118
-0.409269
-0.405692
-0.401145
-0.395974
-0.391473
-0.389721
-0.391347
-0.392677
-0.394312
-0.396501
-0.399282
-0.402651
-0.406578
-0.410975
-0.41575
-0.420823
-0.42597
-0.430978
-0.435565
-0.439393
-0.442089
-0.443264
-0.442556
-0.439689
-0.434497
-0.426899
-0.416877
-0.404732
-0.391995
-0.402768
-0.404245
-0.405732
-0.407762
-0.410545
-0.41411
-0.418454
-0.423551
-0.429336
-0.435698
-0.442399
-0.449302
-0.456114
-0.462402
-0.467673
-0.471362
-0.47286
-0.471573
-0.466989
-0.458743
-0.446658
-0.430754
-0.411404
-0.389053
-0.415631
-0.416808
-0.418346
-0.420666
-0.423928
-0.428151
-0.433326
-0.439431
-0.446401
-0.454121
-0.462377
-0.470828
-0.479231
-0.486974
-0.493406
-0.497765
-0.499218
-0.49694
-0.490213
-0.478497
-0.461603
-0.439569
-0.413375
-0.379312
-0.427754
-0.428506
-0.429967
-0.432424
-0.435979
-0.440641
-0.446397
-0.453217
-0.461033
-0.469715
-0.479037
-0.488672
-0.498049
-0.50659
-0.513483
-0.517776
-0.51845
-0.51448
-0.505051
-0.489514
-0.467892
-0.439835
-0.407436
-0.367034
-0.438622
-0.438863
-0.440121
-0.442511
-0.446106
-0.450903
-0.456881
-0.463998
-0.47217
-0.481246
-0.490958
-0.500909
-0.510459
-0.5189
-0.52528
-0.528507
-0.527444
-0.521019
-0.508457
-0.489121
-0.46356
-0.431098
-0.395235
-0.352086
-0.44786
-0.447571
-0.448486
-0.450593
-0.453929
-0.458503
-0.464285
-0.471216
-0.479193
-0.488029
-0.497407
-0.506859
-0.515723
-0.523137
-0.528054
-0.529313
-0.525767
-0.516408
-0.500674
-0.478142
-0.44977
-0.415297
-0.378176
-0.336178
-0.455304
-0.45454
-0.454999
-0.456598
-0.459376
-0.463366
-0.468542
-0.474836
-0.482115
-0.490136
-0.498572
-0.506883
-0.514316
-0.519924
-0.522602
-0.521197
-0.514667
-0.502255
-0.483693
-0.459071
-0.429479
-0.395291
-0.359215
-0.319863
-0.461042
-0.45991
-0.459844
-0.460751
-0.462712
-0.465813
-0.47005
-0.475352
-0.481514
-0.488355
-0.495419
-0.502079
-0.507501
-0.510666
-0.51047
-0.505885
-0.496112
-0.480791
-0.460045
-0.434446
-0.405241
-0.373067
-0.33999
-0.304562
-0.465412
-0.464044
-0.46343
-0.463528
-0.464501
-0.466507
-0.469575
-0.473613
-0.478518
-0.483902
-0.489245
-0.493811
-0.496673
-0.496805
-0.493226
-0.485181
-0.472254
-0.454529
-0.432453
-0.406933
-0.379104
-0.349777
-0.320653
-0.289624
-0.46897
-0.467474
-0.466326
-0.465582
-0.465513
-0.466349
-0.468178
-0.470948
-0.474398
-0.478075
-0.481314
-0.483264
-0.48298
-0.479567
-0.472334
-0.460931
-0.445376
-0.42611
-0.403723
-0.379164
-0.353018
-0.326236
-0.299742
-0.273031
-0.39454
-0.406982
-0.42602
-0.451885
-0.483657
-0.519479
-0.555821
-0.588543
-0.61304
-0.625268
-0.620283
-0.593195
-0.541472
-0.47217
-0.401619
-0.345257
-0.310851
-0.296569
-0.298568
-0.318618
-0.357123
-0.406353
-0.451785
-0.477747
-0.470799
-0.424602
-0.351144
-0.274694
-0.211858
-0.167392
-0.13827
-0.120705
-0.111679
-0.112196
-0.116759
-0.114592
-0.101096
-0.082338
-0.0639798
-0.0494722
-0.0388886
-0.0312505
-0.0254853
-0.0212241
-0.018748
-0.0172527
-0.0152352
-0.0120544
-0.00825439
-0.00474688
-0.00209079
-0.000205546
0.000942898
0.00136857
0.00113953
0.000598312
0.000159614
-5.43353e-05
-8.91938e-05
2.36954e-05
-0.3891
-0.390954
-0.399489
-0.415454
-0.438866
-0.468321
-0.500652
-0.531812
-0.556457
-0.569755
-0.567295
-0.544915
-0.501402
-0.444052
-0.386902
-0.343138
-0.317955
-0.308952
-0.314774
-0.338006
-0.377887
-0.426177
-0.469605
-0.494617
-0.48771
-0.440365
-0.363646
-0.28248
-0.214317
-0.165292
-0.131838
-0.109982
-0.0965327
-0.0919596
-0.0931888
-0.0912423
-0.0811613
-0.0675323
-0.0538242
-0.0430358
-0.035274
-0.0297551
-0.0255075
-0.0225281
-0.0211868
-0.0201533
-0.0178104
-0.0138917
-0.00940562
-0.0054359
-0.00250325
-0.00045857
0.00080146
0.00136685
0.00127454
0.000829921
0.000389854
0.000120615
1.48581e-05
5.97976e-05
-0.380571
-0.370323
-0.366282
-0.369746
-0.381825
-0.401939
-0.427883
-0.455621
-0.479588
-0.495808
-0.49782
-0.483266
-0.451248
-0.407582
-0.365152
-0.333854
-0.316609
-0.312067
-0.321405
-0.347524
-0.388466
-0.435462
-0.4771
-0.502004
-0.496698
-0.449702
-0.371419
-0.287086
-0.215028
-0.162337
-0.125563
-0.100195
-0.0832132
-0.074291
-0.0723347
-0.0702435
-0.0643731
-0.0536107
-0.0439226
-0.0365889
-0.0316467
-0.02832
-0.0256554
-0.0241051
-0.0238897
-0.0231435
-0.0202603
-0.0155528
-0.0104273
-0.00606636
-0.00290177
-0.000717241
0.000638187
0.00132403
0.00136176
0.00102938
0.000610633
0.000307597
0.000133537
0.000101155
-0.368526
-0.345987
-0.3294
-0.319889
-0.318747
-0.326874
-0.343673
-0.365839
-0.388515
-0.406793
-0.41445
-0.410506
-0.392088
-0.363196
-0.335204
-0.314947
-0.304882
-0.305003
-0.318529
-0.348258
-0.390789
-0.436762
-0.476957
-0.502359
-0.49873
-0.453194
-0.374881
-0.288752
-0.214406
-0.158971
-0.119675
-0.0915863
-0.0718062
-0.0593735
-0.0543946
-0.051652
-0.0474404
-0.0404227
-0.0342271
-0.0301338
-0.0280308
-0.0269228
-0.0258983
-0.0258987
-0.0267458
-0.0261246
-0.022498
-0.0170156
-0.0113261
-0.00664107
-0.00328557
-0.000980506
0.000457354
0.00124473
0.0013996
0.00118339
0.000803823
0.000489642
0.000256172
0.000144685
-0.353291
-0.319773
-0.290753
-0.269327
-0.255713
-0.251285
-0.256677
-0.270006
-0.288571
-0.307657
-0.32131
-0.325544
-0.322451
-0.308228
-0.294027
-0.284221
-0.281593
-0.28801
-0.308014
-0.34314
-0.388155
-0.433339
-0.47191
-0.497539
-0.494999
-0.451748
-0.374649
-0.288114
-0.212911
-0.155653
-0.114428
-0.0843602
-0.0623067
-0.04717
-0.0393499
-0.035563
-0.0322431
-0.0279183
-0.0246424
-0.0236637
-0.0244212
-0.0255043
-0.0261907
-0.0278131
-0.0296253
-0.0289726
-0.0244692
-0.0182864
-0.0121119
-0.00716349
-0.00365307
-0.00124549
0.00026461
0.00113674
0.0013928
0.00128644
0.00095728
0.000650471
0.000371102
0.000186349
-0.332707
-0.292039
-0.252059
-0.224858
-0.198884
-0.180983
-0.175315
-0.178505
-0.189646
-0.205646
-0.222516
-0.232395
-0.240886
-0.24094
-0.239908
-0.24077
-0.246788
-0.261619
-0.290429
-0.332776
-0.381154
-0.425951
-0.462889
-0.487938
-0.486555
-0.445199
-0.370409
-0.285454
-0.210747
-0.152703
-0.110039
-0.0785954
-0.0547921
-0.0375966
-0.0272109
-0.0220203
-0.0187927
-0.0160513
-0.0152332
-0.0172289
-0.020785
-0.0239683
-0.0264429
-0.0297136
-0.0323869
-0.0315556
-0.0264852
-0.0193815
-0.0127921
-0.00763589
-0.00400257
-0.00150904
6.52738e-05
0.00100834
0.00134993
0.00134053
0.00106658
0.000779163
0.000468834
0.000222425
-0.310873
-0.266531
-0.223562
-0.184962
-0.150598
-0.121372
-0.108448
-0.0999887
-0.101119
-0.110967
-0.124088
-0.137948
-0.153748
-0.16475
-0.175055
-0.186704
-0.20284
-0.227859
-0.26695
-0.31793
-0.370765
-0.415886
-0.451473
-0.475613
-0.474612
-0.435087
-0.363299
-0.281321
-0.208197
-0.150328
-0.106703
-0.0742111
-0.0491948
-0.0303815
-0.0178916
-0.0110737
-0.0073176
-0.00517562
-0.00623072
-0.0108828
-0.0170519
-0.0222221
-0.0265622
-0.0314653
-0.0349007
-0.0337428
-0.0280262
-0.0202775
-0.0133678
-0.00805933
-0.00433226
-0.00176816
-0.00013637
0.000866648
0.00128032
0.00135255
0.00113379
0.000871854
0.000544037
0.000250553
-0.293034
-0.248051
-0.204667
-0.160614
-0.119557
-0.0846855
-0.0591565
-0.0409862
-0.0317728
-0.0345517
-0.0428146
-0.0509726
-0.0728012
-0.0875602
-0.107038
-0.128473
-0.154573
-0.189325
-0.237647
-0.296433
-0.353921
-0.400436
-0.435485
-0.458823
-0.458549
-0.421488
-0.353787
-0.276005
-0.205439
-0.148502
-0.104489
-0.0711426
-0.0453434
-0.0252753
-0.0111588
-0.00267744
0.00195228
0.00417693
0.00198935
-0.00480306
-0.013217
-0.0201898
-0.0264097
-0.0329203
-0.037044
-0.0354177
-0.0291524
-0.0209585
-0.0138387
-0.00843318
-0.00463965
-0.00201963
-0.000336701
0.000717409
0.00119246
0.00133152
0.00116484
0.000930382
0.000595768
0.000270052
-0.27795
-0.235871
-0.196768
-0.154577
-0.111164
-0.070296
-0.0351091
-0.00754804
0.0107845
0.0184299
0.0183822
0.0125964
-0.00342692
-0.0208917
-0.0443877
-0.0731801
-0.107801
-0.150642
-0.206097
-0.27134
-0.333869
-0.382771
-0.418188
-0.441187
-0.441054
-0.406082
-0.342716
-0.269674
-0.202334
-0.14685
-0.103053
-0.0691116
-0.0427576
-0.0219002
-0.00656127
0.00336979
0.00905184
0.0117732
0.00918278
0.000978306
-0.00917853
-0.0178169
-0.0259435
-0.0340016
-0.0387262
-0.0364735
-0.0298828
-0.021425
-0.0142037
-0.00875482
-0.00492159
-0.00226028
-0.000532893
0.000565024
0.00109319
0.00128655
0.00116725
0.000959851
0.000626298
0.00028156
-0.266242
-0.229334
-0.195906
-0.158416
-0.118247
-0.0783817
-0.0405852
-0.00619701
0.021119
0.0397308
0.0482091
0.0499585
0.0406993
0.02653
0.00430438
-0.0269457
-0.0661718
-0.113183
-0.17156
-0.239579
-0.304836
-0.356141
-0.393573
-0.416564
-0.417877
-0.386679
-0.329288
-0.262177
-0.198949
-0.145504
-0.10244
-0.0682592
-0.0413704
-0.0200098
-0.00368745
0.00742252
0.014259
0.0177511
0.0153723
0.00652997
-0.00488348
-0.0150037
-0.0249497
-0.0345388
-0.0398421
-0.0368385
-0.0302254
-0.0216832
-0.0144679
-0.00902831
-0.00518106
-0.00249177
-0.000726039
0.000410367
0.000985906
0.00122462
0.00114832
0.000966774
0.000639556
0.000286487
-0.256128
-0.22507
-0.19567
-0.161813
-0.125378
-0.0880255
-0.050799
-0.0151834
0.0172787
0.0450546
0.0629474
0.0703827
0.0671102
0.0575466
0.0387433
0.008427
-0.0328101
-0.0821284
-0.141596
-0.210846
-0.278706
-0.332877
-0.371342
-0.395488
-0.397401
-0.369349
-0.317907
-0.256956
-0.198023
-0.146667
-0.104215
-0.0697891
-0.0421282
-0.0200601
-0.00278917
0.0095383
0.0176507
0.0222679
0.0215951
0.0125271
0.00024958
-0.0115142
-0.0235918
-0.034675
-0.0403563
-0.0383199
-0.0303337
-0.0217977
-0.0146707
-0.00927807
-0.00543207
-0.00272133
-0.000919967
0.000252276
0.000871538
0.00114939
0.00111236
0.00095852
0.000639526
0.000286525
-0.250021
-0.229342
-0.205267
-0.175283
-0.143267
-0.110707
-0.077686
-0.0436788
-0.00920305
0.0196793
0.0440606
0.0615903
0.0704604
0.0687389
0.0569887
0.0326419
-0.00484147
-0.0515999
-0.107518
-0.172934
-0.238971
-0.294319
-0.336263
-0.361392
-0.364949
-0.343364
-0.30077
-0.247731
-0.194085
-0.145618
-0.104412
-0.0704267
-0.0426371
-0.020196
-0.00255722
0.0104196
0.0194679
0.0254916
0.0257229
0.0180852
0.00573918
-0.00740475
-0.0213428
-0.0338855
-0.0399065
-0.0375121
-0.0299202
-0.0216554
-0.0147205
-0.00943081
-0.00561957
-0.00290999
-0.00108911
0.000107901
0.000761478
0.00107057
0.00106702
0.000932069
0.000628461
0.00028267
-0.226918
-0.219572
-0.196996
-0.167856
-0.137686
-0.107427
-0.0766061
-0.0448491
-0.0142482
0.0143441
0.038236
0.0569594
0.0687181
0.0717151
0.0652227
0.0460872
0.0118917
-0.0329533
-0.0873474
-0.152412
-0.218806
-0.274487
-0.315373
-0.340518
-0.340058
-0.315223
-0.272903
-0.223662
-0.175292
-0.131746
-0.0943532
-0.0631189
-0.0372152
-0.0159432
0.000873065
0.0134493
0.0225181
0.0291032
0.0311158
0.0258109
0.0136447
-0.00187183
-0.01906
-0.0337129
-0.0399241
-0.0370933
-0.029093
-0.0210101
-0.0143575
-0.00928914
-0.00561172
-0.00297332
-0.00118105
1.16167e-05
0.000680173
0.00100876
0.00102921
0.000904877
0.000612995
0.000275796
-0.205661
-0.201233
-0.180269
-0.152668
-0.124843
-0.0979544
-0.0712473
-0.0439022
-0.0170376
0.00836873
0.0304065
0.048001
0.0594572
0.0626488
0.0570282
0.0398168
0.00847187
-0.0333975
-0.0843963
-0.144968
-0.206353
-0.25709
-0.292839
-0.310603
-0.306071
-0.280816
-0.24241
-0.199502
-0.15758
-0.119321
-0.0857401
-0.0570808
-0.0329498
-0.0128035
0.00323217
0.0152983
0.024428
0.0316177
0.0347606
0.0314036
0.0198712
0.00239044
-0.0172848
-0.0330153
-0.0385949
-0.0350416
-0.0274887
-0.0199783
-0.0138107
-0.00906297
-0.00556526
-0.00302247
-0.00127037
-9.04476e-05
0.000586847
0.000931031
0.000973508
0.000864916
0.000589166
0.000264232
-0.187506
-0.183506
-0.16573
-0.141619
-0.116915
-0.0929906
-0.0693584
-0.0457055
-0.0217755
0.000800213
0.0204215
0.0359494
0.0459774
0.048649
0.0431401
0.0271694
-0.00129147
-0.0395267
-0.085696
-0.138917
-0.191561
-0.234168
-0.263331
-0.27525
-0.269158
-0.246966
-0.214761
-0.178439
-0.142129
-0.108242
-0.077948
-0.0516264
-0.029165
-0.0101658
0.00523219
0.0169327
0.0259733
0.0335262
0.038788
0.0365081
0.0250382
0.00556719
-0.0157623
-0.0313783
-0.0361336
-0.0324817
-0.0256131
-0.0188301
-0.0132019
-0.00879653
-0.00549263
-0.00305676
-0.00135357
-0.000193119
0.000488877
0.000846154
0.000910001
0.00081953
0.000560835
0.000250672
-0.169646
-0.166849
-0.152384
-0.131488
-0.109438
-0.0881651
-0.067343
-0.0467211
-0.0261805
-0.00678055
0.0101433
0.0234932
0.0321305
0.0344435
0.0293882
0.0153679
-0.00908791
-0.0422091
-0.0818152
-0.12609
-0.16933
-0.204625
-0.227755
-0.237703
-0.232459
-0.214361
-0.187828
-0.157465
-0.126622
-0.0972272
-0.070352
-0.046474
-0.0257139
-0.00794108
0.00672191
0.0180837
0.0270184
0.0347681
0.0407195
0.0400699
0.0287979
0.00820721
-0.0137262
-0.02858
-0.0326736
-0.0294025
-0.0234765
-0.017549
-0.0125136
-0.00847981
-0.00538944
-0.00307377
-0.00142856
-0.000293165
0.000390073
0.000758618
0.000842825
0.00077003
0.000529178
0.000236035
-0.153136
-0.151803
-0.139932
-0.121966
-0.102763
-0.0841562
-0.0661673
-0.0484041
-0.0308808
-0.0143094
0.000245009
0.0117664
0.0192745
0.0214653
0.0173523
0.0059188
-0.0138522
-0.0409516
-0.0733821
-0.109237
-0.144435
-0.173645
-0.192934
-0.201303
-0.197693
-0.183924
-0.163197
-0.138658
-0.112778
-0.0872768
-0.0633682
-0.0417196
-0.0225864
-0.00602758
0.00783221
0.0188202
0.0275972
0.0352785
0.0413907
0.0416115
0.0308349
0.0105549
-0.0107088
-0.0244484
-0.0283152
-0.0259366
-0.02117
-0.0161753
-0.0117625
-0.00811831
-0.00525642
-0.00307244
-0.00149401
-0.000389529
0.000290701
0.000668042
0.000770919
0.000715918
0.000494723
0.00022033
-0.138695
-0.138082
-0.12834
-0.11314
-0.0966397
-0.0806086
-0.0651973
-0.0500801
-0.0352302
-0.0211507
-0.00870073
0.00119743
0.00770279
0.00984493
0.0067993
-0.00211292
-0.0175418
-0.0389678
-0.0648409
-0.0933268
-0.121344
-0.145003
-0.161106
-0.168642
-0.167049
-0.157308
-0.141305
-0.12132
-0.0995255
-0.0775758
-0.0565904
-0.0372292
-0.0197993
-0.00449124
0.00850382
0.0190524
0.0276384
0.0350942
0.040959
0.0413775
0.0314961
0.0128559
-0.00666987
-0.0193401
-0.023513
-0.022327
-0.0188011
-0.0147481
-0.0109615
-0.00771539
-0.00509365
-0.00305183
-0.00154887
-0.000481455
0.000191099
0.000574635
0.000694769
0.000658029
0.000457919
0.000203679
-0.125391
-0.125337
-0.117602
-0.104971
-0.0909855
-0.0773225
-0.0642251
-0.0514535
-0.0389634
-0.0271264
-0.0166201
-0.00821129
-0.00259491
-0.000498615
-0.00258765
-0.00934457
-0.0211587
-0.0377266
-0.0578497
-0.0799423
-0.101828
-0.120744
-0.13423
-0.141163
-0.140964
-0.134003
-0.121595
-0.105547
-0.0875356
-0.0688538
-0.0505039
-0.0332109
-0.0173787
-0.00328191
0.0088257
0.0188379
0.0271211
0.0342286
0.0395899
0.0399046
0.0312371
0.0149433
-0.00236377
-0.0141091
-0.0188238
-0.01882
-0.0164637
-0.0133023
-0.0101242
-0.00727607
-0.00490239
-0.0030116
-0.00159222
-0.000567822
9.24401e-05
0.000479502
0.000615319
0.000596905
0.000418871
0.000186313
-0.113056
-0.11367
-0.107709
-0.0973543
-0.0856383
-0.0741194
-0.0631006
-0.0524227
-0.0420355
-0.0322039
-0.0234388
-0.0163491
-0.0115132
-0.00949407
-0.010805
-0.0157961
-0.0246607
-0.0371608
-0.0524572
-0.0693693
-0.0863047
-0.101213
-0.112284
-0.118317
-0.118795
-0.113881
-0.104428
-0.0916132
-0.0766746
-0.060743
-0.0447722
-0.0294714
-0.0152545
-0.00241139
0.00877472
0.0181775
0.02604
0.0326737
0.0373957
0.03756
0.030195
0.0163615
0.00135644
-0.00945016
-0.0145806
-0.0155689
-0.0142236
-0.0118674
-0.00926423
-0.00680641
-0.00468462
-0.00295172
-0.00162312
-0.000647407
-4.06472e-06
0.000383602
0.000533332
0.00053304
0.000378348
0.000168454
-0.101874
-0.103056
-0.0985703
-0.0901892
-0.0804988
-0.0709108
-0.0617575
-0.0529347
-0.044384
-0.0362874
-0.029031
-0.0230964
-0.0189524
-0.0170293
-0.0177056
-0.0212284
-0.0276972
-0.0369563
-0.0484423
-0.0612394
-0.0741308
-0.085649
-0.0944455
-0.099475
-0.100282
-0.0968168
-0.0895155
-0.0791935
-0.0668463
-0.0534057
-0.0396503
-0.0262067
-0.0135059
-0.00187173
0.00839178
0.0171257
0.0244524
0.0304984
0.0345424
0.0345688
0.0284042
0.0168802
0.00411164
-0.00564727
-0.0109317
-0.0126441
-0.0121216
-0.0104683
-0.00839566
-0.00631343
-0.00444316
-0.00287272
-0.00164097
-0.000719199
-9.73074e-05
0.00028794
0.000449734
0.000467092
0.000336489
0.000150265
-0.0919449
-0.0933872
-0.0900865
-0.0834168
-0.0755207
-0.0676474
-0.0601343
-0.0529175
-0.0459397
-0.0393271
-0.0333719
-0.0284427
-0.0249024
-0.0230768
-0.0232473
-0.0256052
-0.0302233
-0.0369748
-0.0454356
-0.0549203
-0.064537
-0.0732347
-0.080042
-0.084084
-0.0849054
-0.0823349
-0.0766194
-0.0683319
-0.05818
-0.0468668
-0.0350441
-0.0232888
-0.0120309
-0.00159373
0.00772451
0.0157352
0.022447
0.0278449
0.0312433
0.0311697
0.0260733
0.016619
0.00592334
-0.00270486
-0.00789171
-0.0100684
-0.0101841
-0.00912681
-0.00753267
-0.00580513
-0.00418168
-0.00277577
-0.00164554
-0.000782312
-0.000186123
0.000193642
0.000365538
0.000399808
0.000293679
0.000131906
-0.0829094
-0.0845056
-0.0822135
-0.0770187
-0.0706784
-0.0642909
-0.0581915
-0.0523501
-0.0467145
-0.0413677
-0.0365227
-0.0324544
-0.0294394
-0.027728
-0.0275372
-0.0290141
-0.0321958
-0.0369683
-0.0430342
-0.0499106
-0.0569287
-0.0632918
-0.0684235
-0.0715109
-0.0721503
-0.0701524
-0.0656339
-0.0589407
-0.0505631
-0.0410538
-0.0309548
-0.0207592
-0.0108616
-0.00157552
0.00680712
0.0140701
0.020133
0.0248804
0.0277004
0.0276027
0.0234524
0.0158018
0.00696428
-0.000519785
-0.00542134
-0.00784434
-0.00842928
-0.00786201
-0.00668949
-0.00529027
-0.00390466
-0.00266256
-0.00163694
-0.000836061
-0.000269425
0.000101833
0.000281766
0.000331997
0.000250373
0.000113566
-0.07455
-0.0763949
-0.0749645
-0.0709975
-0.0659669
-0.0608412
-0.0559446
-0.05127
-0.0467679
-0.0424859
-0.0385754
-0.0352403
-0.0326901
-0.0311151
-0.0306752
-0.0314729
-0.0335324
-0.0367783
-0.0410041
-0.0458568
-0.0508384
-0.0553285
-0.059055
-0.0612654
-0.0616427
-0.0599917
-0.0563308
-0.0508655
-0.0439414
-0.035974
-0.0273882
-0.0185941
-0.00995022
-0.00175614
0.00570979
0.0122196
0.0176307
0.0217698
0.0241597
0.0240517
0.0207248
0.0146129
0.0074052
0.00102814
-0.00346391
-0.00596235
-0.00686887
-0.00669038
-0.00587982
-0.00477811
-0.00361734
-0.00253545
-0.00161567
-0.00088001
-0.000346298
1.35958e-05
0.000199447
0.000264492
0.000207069
9.54507e-05
-0.0671222
-0.0691017
-0.0683012
-0.0653149
-0.0613708
-0.0573063
-0.0534219
-0.0497242
-0.0461665
-0.0427714
-0.0396436
-0.0369311
-0.0347877
-0.0333524
-0.0327416
-0.0330347
-0.034258
-0.0363582
-0.039184
-0.0424841
-0.0459138
-0.0490903
-0.0515239
-0.0529415
-0.0530158
-0.051547
-0.0485022
-0.043996
-0.0382567
-0.0315832
-0.0243061
-0.016763
-0.00926865
-0.00209908
0.00448705
0.0102618
0.0150462
0.0186436
0.0206826
0.0206219
0.0180119
0.0131952
0.00739152
0.00205493
-0.00195856
-0.00440561
-0.00550877
-0.00562517
-0.00511632
-0.00427794
-0.00332551
-0.00239747
-0.00158275
-0.00091398
-0.000415948
-7.00622e-05
0.000119595
0.000198113
0.000164257
7.77471e-05
-0.0605209
-0.0624494
-0.0621085
-0.0599251
-0.0568881
-0.0537097
-0.050666
-0.0477753
-0.0449966
-0.042334
-0.0398556
-0.0376646
-0.0358712
-0.0345773
-0.0338714
-0.0338154
-0.0344297
-0.0356756
-0.0374462
-0.0395657
-0.0417927
-0.0438518
-0.0453739
-0.0461498
-0.0459349
-0.0445585
-0.041964
-0.0382029
-0.0334192
-0.0278257
-0.0216755
-0.0152395
-0.00878514
-0.00256033
0.00319886
0.00827387
0.012473
0.0155997
0.017361
0.0173837
0.0153938
0.0116561
0.0070445
0.00266104
-0.00085012
-0.00315319
-0.00434959
-0.00467615
-0.00441023
-0.00379889
-0.00303519
-0.00225207
-0.00153983
-0.000938315
-0.000477827
-0.00014821
4.31972e-05
0.000133678
0.000122386
6.0606e-05
-0.0544251
-0.0563323
-0.0563757
-0.054845
-0.052546
-0.0500905
-0.0477326
-0.0454998
-0.0433555
-0.0412906
-0.039345
-0.0375884
-0.036099
-0.0349512
-0.0342097
-0.0339203
-0.0340992
-0.0347217
-0.0357171
-0.0369602
-0.0382762
-0.0394763
-0.0403028
-0.0405798
-0.0401222
-0.0387934
-0.0365312
-0.03335
-0.0293383
-0.024644
-0.0194566
-0.013989
-0.00846388
-0.00309786
0.00189802
0.00632212
0.00998732
0.0127094
0.0142578
0.0143809
0.0129178
0.0100728
0.00646436
0.00286773
-8.95144e-05
-0.00218048
-0.00338681
-0.00384936
-0.00377072
-0.00334952
-0.00275264
-0.00210295
-0.00148866
-0.000953714
-0.000531897
-0.000220224
-2.88902e-05
7.196e-05
8.19232e-05
4.41786e-05
-0.0488987
-0.0507786
-0.0510972
-0.0500665
-0.0483524
-0.0464788
-0.0446749
-0.0429725
-0.0413393
-0.0397576
-0.038247
-0.0368522
-0.0356265
-0.0346222
-0.0338857
-0.0334519
-0.0333359
-0.0335226
-0.0339621
-0.0345632
-0.0352065
-0.0357795
-0.0360866
-0.0359858
-0.0353392
-0.0340403
-0.0320313
-0.0293079
-0.025922
-0.0219739
-0.0176029
-0.0129744
-0.00826972
-0.00367313
0.000630593
0.0044619
0.00764861
0.0100253
0.0114114
0.0116368
0.0106121
0.00849976
0.00573195
0.0028607
0.000386639
-0.00145747
-0.00261134
-0.00314732
-0.00320476
-0.00293721
-0.0024841
-0.00195454
-0.00143149
-0.000960762
-0.00057804
-0.000285824
-9.62384e-05
1.35619e-05
4.33405e-05
2.86255e-05
-0.0439307
-0.0457117
-0.0462072
-0.0455615
-0.0443135
-0.0429068
-0.0415465
-0.0402677
-0.0390427
-0.0378487
-0.0366909
-0.0355948
-0.0345952
-0.0337281
-0.0330273
-0.0325198
-0.0322184
-0.0321134
-0.03217
-0.0323173
-0.0324418
-0.0326087
-0.0325446
-0.0321696
-0.0313868
-0.0301165
-0.0283099
-0.0259542
-0.023078
-0.0197483
-0.0160662
-0.0121584
-0.00816953
-0.00425294
-0.000566486
0.00273424
0.00549736
0.00758
0.00884031
0.00916274
0.0084997
0.00697367
0.00489154
0.00265086
0.000629194
-0.000952009
-0.00201005
-0.00256876
-0.00271713
-0.00256832
-0.00223495
-0.0018111
-0.00137158
-0.000961168
-0.0006163
-0.000344298
-0.000158279
-4.11441e-05
6.94585e-06
1.4067e-05
-0.0393897
-0.0410621
-0.0416799
-0.0413297
-0.0404475
-0.0394098
-0.0384003
-0.0374561
-0.0365537
-0.0356677
-0.0347931
-0.0339419
-0.0331358
-0.0323987
-0.0317552
-0.0312254
-0.0308205
-0.0305369
-0.0303559
-0.0302393
-0.0301447
-0.0299015
-0.029543
-0.0289697
-0.0280982
-0.0268649
-0.0252291
-0.023175
-0.0207176
-0.017901
-0.0147982
-0.0115043
-0.00813352
-0.00481033
-0.00166659
0.00116607
0.00355801
0.00538977
0.00654963
0.00695705
0.00658702
0.00553155
0.00400352
0.00229458
0.00068497
-0.000633065
-0.00156727
-0.00210912
-0.00230956
-0.0022477
-0.00201049
-0.00167627
-0.00131121
-0.000957116
-0.000648559
-0.000396122
-0.000214159
-9.11859e-05
-2.70341e-05
4.62478e-07
-0.0352522
-0.0368115
-0.0375001
-0.0373667
-0.0367656
-0.036016
-0.0352814
-0.0345989
-0.0339489
-0.0333054
-0.0326569
-0.032006
-0.0313648
-0.0307485
-0.0301741
-0.0296572
-0.029207
-0.0288227
-0.0284926
-0.0281868
-0.0278651
-0.0274549
-0.0269337
-0.0262452
-0.0253332
-0.0241512
-0.0226675
-0.0208674
-0.0187583
-0.016369
-0.0137519
-0.010978
-0.00813584
-0.00532479
-0.00265248
-0.000227626
0.00184182
0.00345798
0.0045332
0.00500908
0.00487154
0.00418875
0.00310952
0.00184278
0.000596117
-0.000470092
-0.00126515
-0.00176134
-0.00198171
-0.00197792
-0.00181479
-0.00155455
-0.0012531
-0.000949039
-0.00067497
-0.00044257
-0.000265477
-0.000137005
-5.75087e-05
-1.15958e-05
-0.0314904
-0.0329226
-0.0336399
-0.0336624
-0.0332761
-0.0327502
-0.0322292
-0.0317497
-0.0312957
-0.0308417
-0.0303725
-0.0298845
-0.0293829
-0.0288768
-0.0283777
-0.0278971
-0.0274428
-0.0270141
-0.0266035
-0.0261922
-0.0257518
-0.0252401
-0.0246317
-0.0238905
-0.022979
-0.0218637
-0.0205216
-0.0189408
-0.0171251
-0.0150936
-0.0128837
-0.0105481
-0.00815482
-0.00578156
-0.00351452
-0.00144164
0.000349022
0.00177857
0.0027784
0.00330491
0.00334816
0.00295721
0.00223575
0.00133229
0.00039936
-0.000434148
-0.00108494
-0.00151579
-0.00173107
-0.00176076
-0.00165042
-0.00144876
-0.00120114
-0.000940212
-0.000695715
-0.000481586
-0.000310713
-0.000179116
-8.6892e-05
-2.29646e-05
-0.0280615
-0.0293638
-0.0300812
-0.0302126
-0.0299881
-0.0296344
-0.0292781
-0.0289545
-0.0286512
-0.028344
-0.028016
-0.0276597
-0.0272756
-0.0268685
-0.0264459
-0.0260161
-0.0255852
-0.0251532
-0.0247159
-0.0242606
-0.0237685
-0.0232121
-0.0225728
-0.0218259
-0.0209464
-0.0199112
-0.0187044
-0.0173172
-0.0157521
-0.0140221
-0.0121543
-0.0101872
-0.0081729
-0.00617109
-0.00424973
-0.00247856
-0.000928019
0.000339084
0.00126883
0.00182803
0.00200787
0.00184217
0.00140239
0.000793441
0.000126316
-0.000497891
-0.00100745
-0.0013615
-0.00155267
-0.00159559
-0.00152011
-0.00136157
-0.00115648
-0.000932964
-0.000715394
-0.000516548
-0.000349375
-0.000214649
-0.000111623
-3.36629e-05
-0.0249399
-0.0261128
-0.0268085
-0.0270119
-0.0269074
-0.026685
-0.0264549
-0.0262505
-0.0260621
-0.0258677
-0.0256502
-0.0253997
-0.025114
-0.0247949
-0.0244468
-0.0240756
-0.0236862
-0.0232783
-0.02285
-0.0223938
-0.0218964
-0.0213391
-0.0207085
-0.0199895
-0.0191655
-0.0182207
-0.0171445
-0.0159311
-0.0145828
-0.0131089
-0.0115292
-0.00987192
-0.00817642
-0.00648824
-0.00486008
-0.00334622
-0.00200222
-0.000877536
-1.4593e-05
0.000560585
0.000839695
0.000844685
0.000623492
0.00024996
-0.000195909
-0.00063708
-0.00101341
-0.00128579
-0.00144028
-0.00148012
-0.00142324
-0.00129532
-0.00112251
-0.000927318
-0.000731939
-0.000549243
-0.000388317
-0.000248928
-0.00013344
-4.01114e-05
-0.0221016
-0.0231476
-0.0238067
-0.0240543
-0.0240376
-0.0239147
-0.0237809
-0.023667
-0.0235656
-0.0234575
-0.0233258
-0.0231601
-0.0229563
-0.0227143
-0.0224364
-0.0221265
-0.0217887
-0.0214226
-0.0210267
-0.0205972
-0.0201252
-0.019597
-0.0190036
-0.0183356
-0.017583
-0.016735
-0.0157849
-0.0147291
-0.0135703
-0.0123155
-0.0109794
-0.00958288
-0.00815536
-0.00673123
-0.00535092
-0.00405609
-0.00288989
-0.00189094
-0.0010927
-0.000515771
-0.000168591
-3.77799e-05
-9.18513e-05
-0.000280353
-0.000545585
-0.000829768
-0.00108532
-0.00127602
-0.00138545
-0.00141054
-0.00135962
-0.00124906
-0.00109912
-0.000927104
-0.000748365
-0.000574536
-0.000416475
-0.000278967
-0.000158831
-5.35391e-05
-0.0195256
-0.0204501
-0.0210628
-0.0213342
-0.0213805
-0.0213326
-0.0212719
-0.0212262
-0.0211905
-0.0211477
-0.0210825
-0.0209844
-0.0208485
-0.0206732
-0.0204598
-0.0202106
-0.0199286
-0.0196134
-0.0192638
-0.018878
-0.0184504
-0.0179708
-0.0174326
-0.0168305
-0.0161587
-0.0154102
-0.0145808
-0.0136687
-0.0126769
-0.0116109
-0.0104821
-0.00930553
-0.00810343
-0.00690139
-0.0057303
-0.0046217
-0.00360882
-0.00272151
-0.00198609
-0.00141938
-0.00102936
-0.00080884
-0.000738285