/*--------------------------------*- C++ -*----------------------------------*\
| =========                 |                                                 |
| \\      /  F ield         | OpenFOAM: The Open Source CFD Toolbox           |
|  \\    /   O peration     | Version:  2512                                  |
|   \\  /    A nd           | Website:  www.openfoam.com                      |
|    \\/     M anipulation  |                                                 |
\*---------------------------------------------------------------------------*/
FoamFile
{
    version     2.0;
    format      ascii;
    arch        "LSB;label=32;scalar=64";
    class       volVectorField;
    location    "183.4";
    object      U;
}
// * * * * * * * * * * * * * * * * * * * * * * * * * * * * * * * * * * * * * //

dimensions      [0 1 -1 0 0 0 0];

internalField   nonuniform List<vector> 
13248
(
(-0.0175587 0.0143978 7.83839e-20)
(-0.0273586 0.0269049 0)
(-0.009891 0.029159 -1.35143e-19)
(0.0364563 0.022832 1.25129e-19)
(0.113971 0.00940334 1.15476e-19)
(0.224542 -0.00943418 0)
(0.367377 -0.031731 0)
(0.536291 -0.0555139 2.72307e-19)
(0.718833 -0.0791132 -7.37297e-22)
(0.898473 -0.101428 -2.32771e-19)
(1.05868 -0.121975 2.11342e-19)
(1.18682 -0.140708 -1.31227e-19)
(1.27656 -0.15771 0)
(1.32839 -0.172963 -2.04135e-19)
(1.34828 -0.186292 3.70008e-19)
(1.34506 -0.197452 -8.87164e-20)
(1.32768 -0.206227 -1.36394e-19)
(1.30308 -0.212451 1.27175e-19)
(1.27549 -0.216033 0)
(1.24702 -0.21741 0)
(1.21886 -0.214934 0)
(1.1891 -0.214792 0)
(1.16415 -0.202515 2.59942e-20)
(1.12729 -0.211475 7.86397e-20)
(-0.0187972 0.0135961 -2.35793e-19)
(-0.0205054 0.0194988 1.48423e-19)
(0.0132674 0.014212 -8.17176e-22)
(0.0842769 0.00153223 -1.89836e-19)
(0.195059 -0.0157748 -1.15312e-19)
(0.345056 -0.0351838 -1.07336e-19)
(0.526609 -0.0543557 -1.96091e-19)
(0.723714 -0.0716197 1.81825e-19)
(0.915595 -0.0863631 0)
(1.08283 -0.0989499 1.6795e-21)
(1.21233 -0.110239 1.65793e-21)
(1.29947 -0.121007 1.26529e-19)
(1.34744 -0.131586 0)
(1.36453 -0.141835 0)
(1.36077 -0.151323 1.26851e-19)
(1.34494 -0.15957 -2.36613e-19)
(1.32313 -0.16617 1.2862e-19)
(1.2987 -0.17092 -1.19925e-19)
(1.27326 -0.173685 -4.86545e-20)
(1.24756 -0.174443 -8.15306e-20)
(1.22181 -0.173308 -2.87576e-20)
(1.1969 -0.170514 -5.19537e-20)
(1.17301 -0.16331 8.28763e-20)
(1.14661 -0.163327 2.1359e-20)
(-0.0184145 0.0122116 0)
(-0.00717485 0.0122495 0)
(0.0504901 0.00141589 6.83376e-20)
(0.155402 -0.0150855 6.24225e-20)
(0.307506 -0.0331731 -9.84762e-22)
(0.498824 -0.0495289 -1.09369e-19)
(0.710167 -0.062174 0)
(0.915695 -0.070925 -9.04239e-20)
(1.09202 -0.0770271 8.16931e-20)
(1.22502 -0.082222 -1.58026e-21)
(1.31165 -0.0878659 -1.33916e-19)
(1.35774 -0.094502 -1.17084e-19)
(1.37376 -0.101936 5.13233e-21)
(1.37061 -0.109582 -8.65376e-20)
(1.35684 -0.11681 2.13101e-19)
(1.33779 -0.123138 0)
(1.31626 -0.128272 -1.22379e-19)
(1.29357 -0.132081 6.02511e-20)
(1.2705 -0.134337 4.86037e-20)
(1.24733 -0.135414 0)
(1.22496 -0.134147 3.56265e-20)
(1.20264 -0.133096 -1.13971e-19)
(1.18199 -0.127416 1.06431e-19)
(1.15971 -0.128804 5.85186e-20)
(-0.0153343 0.00962892 -8.14548e-20)
(0.0150525 0.00376112 -7.75882e-20)
(0.10445 -0.0106856 6.99569e-20)
(0.251022 -0.0278174 0)
(0.447536 -0.0425899 0)
(0.672945 -0.0519622 -1.08989e-21)
(0.895626 -0.0558886 0)
(1.08631 -0.0565271 -2.66964e-19)
(1.22829 -0.0565619 2.42481e-19)
(1.31923 -0.0579017 -2.9366e-19)
(1.36712 -0.0612325 6.59058e-20)
(1.38429 -0.0662715 0)
(1.38244 -0.0722948 9.95203e-20)
(1.37014 -0.078574 -1.80261e-19)
(1.35255 -0.0845688 4.27726e-20)
(1.33242 -0.089929 1.00428e-19)
(1.31117 -0.0944393 -8.1457e-21)
(1.28962 -0.0978912 -1.07118e-19)
(1.26817 -0.100276 0)
(1.24726 -0.101324 0)
(1.22686 -0.101153 -3.34764e-20)
(1.20716 -0.100381 2.87773e-20)
(1.18882 -0.096097 9.51097e-20)
(1.16905 -0.0984963 -8.8811e-20)
(-0.00869221 0.00585573 -8.43511e-20)
(0.0482336 -0.00590326 -7.85558e-20)
(0.177121 -0.0216163 2.17136e-19)
(0.37021 -0.0353464 -1.31041e-19)
(0.606856 -0.0423397 1.21377e-19)
(0.849988 -0.04199 2.17679e-19)
(1.06173 -0.037373 -1.50252e-19)
(1.21974 -0.0323489 -1.74844e-19)
(1.3206 -0.029506 6.37963e-21)
(1.37375 -0.0296844 2.17381e-19)
(1.39341 -0.0324794 0)
(1.39267 -0.036991 5.4975e-20)
(1.38091 -0.0423522 0)
(1.36382 -0.0479249 -8.42292e-20)
(1.34446 -0.053284 1.17252e-19)
(1.32437 -0.0581496 1.28692e-21)
(1.30426 -0.0623108 -2.85665e-20)
(1.28441 -0.0656708 5.16787e-20)
(1.26497 -0.0680847 4.32913e-20)
(1.24595 -0.0696078 -3.75479e-20)
(1.22751 -0.0701298 3.34602e-20)
(1.20974 -0.0699847 -2.87631e-20)
(1.1926 -0.0680505 0)
(1.17522 -0.0703432 -2.06851e-20)
(0.00226261 0.00136362 8.43298e-20)
(0.0940459 -0.0154587 8.12522e-20)
(0.269209 -0.0291674 -7.26882e-20)
(0.508655 -0.0348655 1.33273e-19)
(0.772732 -0.0307427 -1.23442e-19)
(1.01261 -0.0205751 1.08907e-19)
(1.1956 -0.00989124 -5.13518e-20)
(1.31389 -0.00237975 1.31575e-19)
(1.37723 0.000808699 -8.05204e-20)
(1.40195 0.000223052 1.35768e-19)
(1.40334 -0.00295473 -3.06573e-19)
(1.39241 -0.00760034 1.09718e-19)
(1.37585 -0.0128928 -9.25892e-20)
(1.35713 -0.0182997 8.61946e-20)
(1.33783 -0.02349 7.11527e-20)
(1.31854 -0.028252 6.01357e-20)
(1.29943 -0.0324639 -1.6552e-19)
(1.28062 -0.0360164 1.01225e-19)
(1.26219 -0.0388778 -4.32835e-20)
(1.2443 -0.0409761 1.08805e-19)
(1.22707 -0.0423023 -3.50182e-20)
(1.21051 -0.0430132 -8.05021e-20)
(1.1948 -0.042285 7.32597e-20)
(1.1793 -0.0446832 2.06785e-20)
(0.0182449 -0.00317874 0)
(0.153513 -0.0228957 5.887e-22)
(0.37913 -0.0302471 1.49876e-19)
(0.657856 -0.0237596 -1.38266e-19)
(0.930898 -0.00771634 -1.22175e-19)
(1.14914 0.00990675 2.22421e-19)
(1.2947 0.0233972 -1.01266e-19)
(1.37511 0.0308462 1.2971e-19)
(1.4087 0.0328927 -4.09662e-21)
(1.41384 0.0311439 -7.00711e-20)
(1.40408 0.0271605 1.47582e-19)
(1.38769 0.0220713 -2.13522e-19)
(1.36887 0.0165713 0)
(1.34947 0.0110546 -3.9765e-20)
(1.33017 0.00574759 -1.03471e-19)
(1.3112 0.00079064 3.24608e-20)
(1.29269 -0.0037052 1.71918e-21)
(1.27474 -0.00766789 -6.55943e-20)
(1.25743 -0.0110285 5.7197e-21)
(1.2408 -0.0137587 7.40801e-20)
(1.22484 -0.0158823 -3.14939e-20)
(1.20958 -0.0173087 -1.12992e-20)
(1.19489 -0.0182031 3.62309e-20)
(1.18053 -0.020643 0)
(0.0398278 -0.00698175 0)
(0.226471 -0.0258638 4.11261e-20)
(0.502253 -0.0219423 -1.93066e-19)
(0.806735 -0.000967882 6.89633e-20)
(1.07025 0.0251926 -6.3879e-20)
(1.25572 0.0468529 -5.59641e-20)
(1.36317 0.0602934 -9.62104e-20)
(1.41174 0.0659677 4.79731e-20)
(1.42362 0.0660333 4.07143e-20)
(1.41613 0.0627274 0)
(1.40001 0.0576861 8.62674e-20)
(1.38085 0.051888 -1.25287e-19)
(1.36105 0.0458553 9.23312e-20)
(1.34152 0.0398671 3.97818e-20)
(1.32254 0.034091 -3.15033e-20)
(1.30419 0.0286484 -2.54441e-20)
(1.28647 0.0236232 -2.3107e-20)
(1.26939 0.0190805 7.02513e-20)
(1.25294 0.0150567 0)
(1.23711 0.0115645 3.33026e-20)
(1.22193 0.00865117 2.67457e-20)
(1.20736 0.00625969 -6.7195e-20)
(1.1934 0.00424371 -4.37719e-20)
(1.18006 0.00196898 4.05075e-20)
(0.0672521 -0.00914699 -4.66373e-20)
(0.311151 -0.0220014 -1.20932e-21)
(0.631319 -0.0023712 3.91009e-20)
(0.945024 0.0328771 1.05979e-19)
(1.1852 0.0658319 2.90554e-20)
(1.33396 0.0882258 -5.60181e-20)
(1.4072 0.0994868 5.05628e-20)
(1.43103 0.10234 -4.31472e-20)
(1.42796 0.100013 7.47275e-20)
(1.41269 0.0949722 3.10476e-20)
(1.39302 0.0887 -8.6835e-20)
(1.37243 0.0819661 2.51946e-20)
(1.3522 0.0751505 4.20091e-20)
(1.3327 0.0684556 -2.05398e-20)
(1.31397 0.0620068 0)
(1.29599 0.0558919 2.93479e-20)
(1.27874 0.0501757 4.86354e-20)
(1.26222 0.044907 7.74414e-21)
(1.24644 0.0401201 -3.95168e-20)
(1.23141 0.0358498 1.62449e-20)
(1.21707 0.032096 0)
(1.20338 0.0288199 -1.22672e-20)
(1.19027 0.0258254 -1.10642e-20)
(1.17764 0.0233895 0)
(0.10024 -0.00869829 0)
(0.404068 -0.00930119 2.25369e-20)
(0.758054 0.0289209 4.10001e-20)
(1.06569 0.0761493 -1.06848e-19)
(1.27471 0.1122 3.37369e-20)
(1.38776 0.132609 0)
(1.43258 0.140252 4.7092e-20)
(1.4382 0.139715 -6.45995e-20)
(1.42527 0.134798 -3.70287e-20)
(1.40535 0.12787 1.65524e-20)
(1.38377 0.12016 -2.55075e-20)
(1.36252 0.112236 6.16433e-20)
(1.34217 0.104367 3.03045e-20)
(1.32281 0.096695 -2.10247e-20)
(1.30442 0.0893153 -2.13149e-21)
(1.28692 0.0823032 -5.54737e-20)
(1.27029 0.0757122 2.4981e-20)
(1.25449 0.0695851 -4.78263e-22)
(1.23948 0.0639533 0)
(1.22519 0.0588293 -1.62607e-20)
(1.21156 0.0542198 0)
(1.19852 0.0500305 3.54863e-20)
(1.18601 0.0462769 -4.17871e-20)
(1.17401 0.0436018 1.87859e-20)
(0.13791 -0.00467007 -1.24731e-20)
(0.500369 0.0135414 -5.64391e-20)
(0.875073 0.0711593 6.27618e-20)
(1.16508 0.126931 3.56742e-20)
(1.3401 0.162699 -1.70716e-20)
(1.42118 0.179101 2.68377e-20)
(1.44359 0.182246 -1.30382e-20)
(1.43635 0.178034 2.09139e-20)
(1.41714 0.1704 0)
(1.39456 0.161427 4.55835e-20)
(1.37199 0.152063 -1.89236e-21)
(1.35046 0.142713 -3.5913e-20)
(1.33016 0.133559 1.52026e-20)
(1.31103 0.124708 -1.6938e-20)
(1.293 0.116232 -6.35918e-21)
(1.27596 0.108188 7.27959e-21)
(1.25984 0.100607 -5.59386e-21)
(1.24461 0.0935196 -2.96315e-20)
(1.23022 0.0869503 1.80628e-20)
(1.21661 0.0809141 3.67377e-21)
(1.20371 0.0753908 3.19261e-21)
(1.19144 0.070323 2.77364e-21)
(1.17973 0.0658707 0)
(1.16848 0.0625813 0)
(0.178898 0.00377566 1.24882e-20)
(0.5947 0.0469484 -1.16107e-20)
(0.977056 0.122902 -2.08445e-20)
(1.242 0.18345 0)
(1.3836 0.216141 -8.3137e-21)
(1.43756 0.227117 -7.127e-21)
(1.443 0.225242 -1.18767e-20)
(1.42701 0.21718 0)
(1.40398 0.20668 0)
(1.37998 0.195452 0)
(1.35701 0.184192 0)
(1.33551 0.173171 0)
(1.31546 0.162508 -9.57402e-21)
(1.29672 0.152273 4.32504e-21)
(1.27916 0.142516 7.42228e-21)
(1.2627 0.133272 3.41855e-21)
(1.24725 0.124558 8.42537e-21)
(1.23275 0.116397 0)
(1.21913 0.108813 -1.9833e-21)
(1.20632 0.101797 -1.82915e-21)
(1.19422 0.0953203 -3.1976e-21)
(1.18275 0.0893575 -2.77797e-21)
(1.17184 0.0841767 0)
(1.16144 0.0801 1.95851e-21)
(-0.00572006 0.130324 7.90953e-21)
(-0.0189282 0.243778 -7.52146e-21)
(-0.0409181 0.274668 -1.39796e-20)
(-0.0665093 0.26562 0)
(-0.0931227 0.240834 -1.82712e-20)
(-0.119621 0.210026 5.55402e-21)
(-0.145191 0.174838 -1.10297e-20)
(-0.169272 0.134177 0)
(-0.191497 0.0868152 0)
(-0.211699 0.0320228 0)
(-0.229254 -0.0307063 0)
(-0.243902 -0.100697 0)
(-0.255933 -0.1772 -3.79863e-22)
(-0.265074 -0.258976 -7.34033e-21)
(-0.271204 -0.344347 1.44979e-20)
(-0.274232 -0.431202 1.96488e-20)
(-0.274104 -0.51703 6.37173e-21)
(-0.270838 -0.599006 0)
(-0.264528 -0.674154 4.53919e-21)
(-0.25521 -0.73945 -1.28581e-20)
(-0.24248 -0.791877 -7.51579e-21)
(-0.224713 -0.828475 -6.50682e-21)
(-0.200343 -0.846573 0)
(-0.168323 -0.844636 0)
(-0.0121835 0.133941 -2.42077e-20)
(-0.0274006 0.258734 3.81194e-20)
(-0.0441128 0.298651 -1.47511e-20)
(-0.0619361 0.294972 -2.71227e-20)
(-0.0797812 0.272584 3.73961e-20)
(-0.0967913 0.242299 -2.42954e-20)
(-0.112202 0.206615 3.35526e-20)
(-0.125489 0.164874 2.24649e-20)
(-0.136382 0.116006 0)
(-0.144754 0.0593562 -1.99502e-20)
(-0.150396 -0.00509188 -1.03492e-21)
(-0.153276 -0.0772718 1.71839e-20)
(-0.153629 -0.156117 2.6184e-20)
(-0.151557 -0.24031 3.26922e-20)
(-0.147129 -0.328127 -1.45588e-20)
(-0.140462 -0.41735 -4.16446e-20)
(-0.131848 -0.505344 1.30742e-20)
(-0.121922 -0.589152 -4.74449e-20)
(-0.111672 -0.665805 0)
(-0.102239 -0.732617 8.60955e-21)
(-0.0947491 -0.787482 7.50382e-21)
(-0.0887142 -0.828952 6.49667e-21)
(-0.0849936 -0.856142 0)
(-0.077047 -0.86823 0)
(-0.0180926 0.130675 0)
(-0.0352433 0.262493 8.16702e-20)
(-0.04578 0.311527 -3.01736e-20)
(-0.0543777 0.314236 2.82242e-20)
(-0.0617407 0.295042 -8.00855e-20)
(-0.0674719 0.265811 0)
(-0.0709184 0.230147 -4.89812e-20)
(-0.0716033 0.188066 2.30288e-20)
(-0.0693493 0.138803 -4.51613e-20)
(-0.0642247 0.0818299 2.27274e-20)
(-0.0565096 0.0170717 1.24199e-19)
(-0.0462684 -0.0551951 -5.79995e-20)
(-0.033576 -0.134013 -9.24321e-20)
(-0.0188465 -0.21827 -3.61648e-20)
(-0.00210421 -0.306405 1.75005e-22)
(0.0166414 -0.396203 1.20104e-19)
(0.0371327 -0.484792 -5.55277e-20)
(0.0586371 -0.568552 -1.10074e-21)
(0.0798063 -0.643619 0)
(0.0988943 -0.706575 -3.77703e-20)
(0.112868 -0.755684 0)
(0.121441 -0.790509 -2.42096e-20)
(0.11726 -0.814678 8.89116e-20)
(0.119 -0.825107 -4.57517e-21)
(-0.0226285 0.120751 0)
(-0.0416659 0.254018 1.1468e-21)
(-0.0461858 0.311289 3.18414e-20)
(-0.0453372 0.321216 -3.04264e-20)
(-0.0416399 0.306243 2.60744e-20)
(-0.0354378 0.278841 1.58274e-19)
(-0.0263878 0.243802 -4.93826e-20)
(-0.0141273 0.202025 -4.83949e-20)
(0.00140336 0.153182 9.15022e-20)
(0.0199398 0.0968935 -1.32904e-19)
(0.0410176 0.0330942 4.17769e-20)
(0.064432 -0.0377225 4.06983e-20)
(0.0900157 -0.115056 0)
(0.117428 -0.198149 3.55467e-20)
(0.146773 -0.285702 0)
(0.178165 -0.375712 6.26364e-20)
(0.211326 -0.465086 -1.10906e-19)
(0.245416 -0.549516 3.02793e-20)
(0.278636 -0.623957 9.14353e-20)
(0.309182 -0.683311 3.7725e-20)
(0.333085 -0.724822 0)
(0.351062 -0.745873 -7.51363e-20)
(0.350965 -0.753745 2.50753e-20)
(0.361059 -0.738231 0)
(-0.0252006 0.105545 0)
(-0.0459913 0.233956 -1.03941e-19)
(-0.0456129 0.297283 -3.24378e-20)
(-0.0362232 0.31462 -6.07108e-20)
(-0.022036 0.304863 5.62498e-20)
(-0.00431814 0.280289 -5.30845e-20)
(0.0167643 0.246703 1.03675e-19)
(0.0413166 0.206008 5.12887e-20)
(0.0692665 0.158472 -1.38435e-19)
(0.100253 0.103967 9.09572e-20)
(0.133947 0.042469 -1.28637e-19)
(0.170035 -0.0256142 2.87254e-19)
(0.208328 -0.100158 -1.53908e-19)
(0.24898 -0.180755 7.29094e-20)
(0.292291 -0.266426 2.0372e-19)
(0.338282 -0.35532 -6.50944e-20)
(0.386046 -0.444165 -6.07506e-20)
(0.433639 -0.528213 -5.36979e-20)
(0.477875 -0.602132 0)
(0.516444 -0.660014 -7.05251e-20)
(0.544388 -0.699575 -4.97356e-20)
(0.566138 -0.715249 8.35182e-20)
(0.566853 -0.715935 7.34723e-20)
(0.58323 -0.682932 -6.74244e-20)
(-0.0256305 0.0872276 0)
(-0.0477266 0.204673 -1.42116e-19)
(-0.0441817 0.270591 -9.73406e-22)
(-0.0281312 0.294388 1.21831e-19)
(-0.0050249 0.290302 0)
(0.0229017 0.269465 0)
(0.0548082 0.238195 0)
(0.0904355 0.199284 -5.05616e-20)
(0.129586 0.153661 -2.6634e-21)
(0.171848 0.101471 8.81883e-20)
(0.217155 0.0430391 -1.31027e-19)
(0.265602 -0.0216552 -1.38898e-21)
(0.317407 -0.0927618 0)
(0.373208 -0.170078 -7.28698e-20)
(0.433444 -0.252683 6.61619e-20)
(0.497492 -0.338365 -1.85835e-19)
(0.562975 -0.42333 2.20233e-19)
(0.625932 -0.502166 3.89525e-20)
(0.68113 -0.569677 -1.50333e-20)
(0.72529 -0.619964 -1.51742e-19)
(0.752473 -0.653033 -5.74017e-20)
(0.769586 -0.663148 1.57614e-19)
(0.760892 -0.662493 -9.84039e-20)
(0.768619 -0.633271 0)
(-0.0241976 0.0682552 7.63069e-20)
(-0.0467964 0.169897 7.12455e-20)
(-0.04191 0.234027 -6.6296e-20)
(-0.0216364 0.261956 -1.23538e-19)
(0.00809073 0.262982 1.14454e-19)
(0.0442303 0.24626 -1.09211e-19)
(0.0852171 0.21794 1.52161e-19)
(0.130339 0.181335 -5.07296e-20)
(0.179258 0.137905 9.13249e-20)
(0.232086 0.0883874 0)
(0.289133 0.0330079 8.50162e-20)
(0.350902 -0.0286942 -1.55923e-19)
(0.41851 -0.096889 1.51389e-19)
(0.49277 -0.171287 -1.40914e-19)
(0.573214 -0.250511 0)
(0.657165 -0.331579 1.19489e-19)
(0.739547 -0.409984 2.06574e-19)
(0.813929 -0.480004 -1.94898e-19)
(0.873838 -0.536986 -7.84562e-20)
(0.915847 -0.575619 -6.21401e-20)
(0.935997 -0.597689 1.76635e-19)
(0.941548 -0.597014 3.61519e-20)
(0.921777 -0.590237 -4.06533e-20)
(0.912037 -0.553233 2.60666e-20)
(-0.0215689 0.0508135 -7.63259e-20)
(-0.0437076 0.133903 2.15971e-19)
(-0.0389176 0.191766 -6.67822e-20)
(-0.0167982 0.220385 1.23436e-19)
(0.0170445 0.224729 -1.14359e-19)
(0.0591492 0.211578 -1.30982e-21)
(0.107416 0.18629 4.95049e-20)
(0.160852 0.152234 1.91706e-19)
(0.219374 0.111325 3.95328e-21)
(0.28365 0.0644311 -8.53407e-20)
(0.354817 0.0114015 0)
(0.43428 -0.0479408 -7.73669e-20)
(0.523056 -0.113466 1.45174e-19)
(0.620447 -0.184226 1.35826e-19)
(0.723037 -0.257841 -6.51202e-20)
(0.82448 -0.330519 -3.05651e-21)
(0.916611 -0.397541 -5.23521e-20)
(0.991472 -0.453997 8.56553e-20)
(1.04324 -0.49669 7.84599e-20)
(1.07051 -0.52225 -6.56438e-20)
(1.07324 -0.534297 5.00372e-20)
(1.06034 -0.526842 -4.03665e-20)
(1.02763 -0.517889 0)
(1.00221 -0.480713 -2.60751e-20)
(-0.018647 0.0364366 7.67187e-20)
(-0.0395154 0.100567 -7.21613e-20)
(-0.03556 0.14853 6.65754e-20)
(-0.0132468 0.174014 0)
(0.0227968 0.178928 0)
(0.06925 0.167802 1.06038e-19)
(0.124023 0.144853 -9.92519e-20)
(0.186453 0.113162 9.47418e-20)
(0.257199 0.0745517 -4.43246e-19)
(0.337798 0.0296829 -1.67899e-21)
(0.429979 -0.0212566 7.84377e-20)
(0.534514 -0.0779157 0)
(0.649825 -0.139327 -1.40534e-19)
(0.771042 -0.20347 2.60347e-19)
(0.890193 -0.267149 -1.82e-19)
(0.997537 -0.326597 -2.65468e-19)
(1.08399 -0.377851 1.18312e-20)
(1.1432 -0.417889 1.65017e-19)
(1.17319 -0.444997 0)
(1.17677 -0.458324 0)
(1.15797 -0.461455 -5.00612e-20)
(1.12782 -0.45056 4.0387e-20)
(1.08376 -0.441656 -1.15361e-19)
(1.04899 -0.408984 1.07652e-19)
(-0.0163709 0.0258902 0)
(-0.0355153 0.0726467 0)
(-0.0322192 0.108564 -1.9967e-19)
(-0.00994831 0.127624 6.18303e-20)
(0.0281033 0.130142 -3.07936e-23)
(0.0794952 0.118924 1.04813e-19)
(0.143068 0.0970644 0)
(0.219234 0.0669856 -9.19773e-20)
(0.309555 0.0301513 8.79911e-20)
(0.415571 -0.0125522 -1.6346e-19)
(0.537152 -0.0602815 -1.11958e-21)
(0.670997 -0.111824 1.45141e-19)
(0.810062 -0.165301 -7.32154e-22)
(0.944344 -0.218178 1.20384e-19)
(1.06283 -0.267537 -1.73921e-19)
(1.15591 -0.31071 0)
(1.21783 -0.345298 1.70123e-19)
(1.24747 -0.370375 -2.37987e-19)
(1.249 -0.385264 6.23337e-20)
(1.229 -0.391153 0)
(1.19545 -0.390106 4.36286e-20)
(1.15745 -0.379548 1.38205e-19)
(1.11274 -0.373164 -1.29067e-19)
(1.08086 -0.343891 -1.11562e-19)
(-0.0154553 0.0192128 2.30421e-19)
(-0.0326072 0.0514322 -2.9055e-19)
(-0.028536 0.074832 7.36207e-22)
(-0.00429687 0.0854469 6.19219e-20)
(0.0387259 0.0832644 -1.13751e-19)
(0.0997951 0.070058 -1.05499e-19)
(0.179376 0.0479806 1.96544e-19)
(0.278824 0.0188768 2.34487e-21)
(0.39891 -0.015763 -1.70757e-19)
(0.537806 -0.0545615 3.22555e-19)
(0.689658 -0.096023 2.64079e-21)
(0.844651 -0.138414 -1.40081e-19)
(0.990622 -0.179818 0)
(1.11561 -0.218311 0)
(1.21046 -0.252184 -5.46159e-20)
(1.27078 -0.280163 -9.02082e-20)
(1.29765 -0.301368 -1.57303e-19)
(1.29653 -0.315999 1.46667e-19)
(1.27604 -0.323772 -6.24053e-20)
(1.24361 -0.32686 9.59969e-20)
(1.20738 -0.324264 -5.34013e-20)
(1.17044 -0.317733 5.73119e-20)
(1.13337 -0.312736 -1.51283e-19)
(1.10717 -0.289079 2.36179e-20)
(-0.0160539 0.01577 7.72051e-20)
(-0.0305067 0.0367086 0)
(-0.0224228 0.0485909 1.34075e-19)
(0.00883037 0.0503181 -1.24141e-19)
(0.0639198 0.0423937 1.13904e-19)
(0.144061 0.0262002 0)
(0.250629 0.00346436 0)
(0.383427 -0.0240327 -9.11322e-20)
(0.53842 -0.0545485 -5.89437e-22)
(0.706593 -0.0864274 7.81127e-20)
(0.874936 -0.118178 -7.16137e-20)
(1.02912 -0.148556 1.35747e-19)
(1.15669 -0.176583 0)
(1.24967 -0.201504 2.17208e-19)
(1.30591 -0.222756 -3.94612e-19)
(1.32892 -0.239956 2.69529e-19)
(1.32614 -0.252951 1.46004e-19)
(1.30647 -0.261957 -1.36135e-19)
(1.27789 -0.266767 0)
(1.2454 -0.269053 0)
(1.21363 -0.265982 0)
(1.18042 -0.263746 0)
(1.15159 -0.255821 2.81611e-20)
(1.12566 -0.240628 -8.5058e-20)
(-0.133471 -0.816484 -3.25409e-21)
(-0.0547445 -0.736097 3.25817e-21)
(0.0343655 -0.609677 -9.43238e-23)
(0.141957 -0.443151 0)
(0.250522 -0.24976 -3.40426e-21)
(0.351901 -0.0381996 6.63457e-21)
(0.440154 0.186992 -1.34108e-22)
(0.518405 0.413829 -3.00878e-21)
(0.585723 0.607437 0)
(0.637639 0.731742 0)
(0.67594 0.780302 -8.77217e-23)
(0.699523 0.779749 -7.03854e-23)
(0.709071 0.757371 -1.04005e-21)
(0.714239 0.723703 9.51473e-22)
(0.715793 0.700102 0)
(0.702997 0.716161 0)
(0.673332 0.757509 1.23191e-21)
(0.645674 0.746101 2.87464e-22)
(0.645694 0.602356 -1.33896e-21)
(0.673362 0.321538 -1.16006e-22)
(0.714443 -0.0248625 0)
(0.759217 -0.333905 0)
(0.800332 -0.533933 0)
(0.828009 -0.627113 0)
(0.838999 -0.646986 0)
(0.845215 -0.622658 0)
(0.845749 -0.603181 1.74765e-22)
(0.823365 -0.630276 -2.80097e-22)
(0.777065 -0.66923 0)
(0.717012 -0.635888 0)
(0.66105 -0.482584 -3.76154e-22)
(0.628183 -0.229583 3.65507e-22)
(0.63004 0.0537701 1.76859e-22)
(0.658945 0.289423 0)
(0.705551 0.436943 0)
(0.750474 0.509091 1.6659e-22)
(0.765236 0.549979 -1.61912e-22)
(0.73149 0.578041 0)
(0.67381 0.55805 1.69449e-22)
(0.621509 0.435585 -2.62547e-22)
(0.603122 0.212111 1.08878e-22)
(0.622574 -0.0403483 0)
(0.6747 -0.235174 -1.36191e-22)
(0.706186 -0.356611 1.32424e-22)
(0.696024 -0.445002 0)
(0.660226 -0.469427 0)
(0.643187 -0.406003 -3.71894e-23)
(0.639646 -0.238718 1.0201e-22)
(0.657674 -0.0129224 0)
(0.661171 0.197569 0)
(0.656459 0.384198 -2.43533e-23)
(0.639579 0.424251 8.55532e-25)
(0.645504 0.345337 7.16594e-25)
(0.638444 0.139309 2.82691e-23)
(0.628923 -0.161823 0)
(0.596525 -0.315882 0)
(0.595924 -0.40276 0)
(0.573841 -0.228695 0)
(0.548422 0.149545 0)
(0.522381 0.14664 0)
(-0.0895207 -0.860253 -2.89922e-22)
(-0.0759402 -0.808663 -1.15712e-20)
(-0.035491 -0.704297 -2.8991e-23)
(0.0351169 -0.555637 1.08757e-20)
(0.118272 -0.365309 1.56803e-22)
(0.207052 -0.144749 0)
(0.294323 0.0898737 -1.05157e-20)
(0.379692 0.324484 1.96964e-20)
(0.460038 0.528376 -9.18384e-21)
(0.532306 0.668545 6.07271e-21)
(0.594072 0.737867 -5.80906e-21)
(0.639495 0.757548 3.9936e-21)
(0.670028 0.747254 -3.86769e-21)
(0.694218 0.719433 -1.0375e-22)
(0.710832 0.703581 -3.82918e-21)
(0.710815 0.729812 3.71879e-21)
(0.696783 0.775628 -5.11904e-21)
(0.690586 0.758166 4.79993e-21)
(0.710826 0.6029 -7.36457e-21)
(0.751793 0.310808 1.49326e-20)
(0.79908 -0.0449974 -7.53997e-21)
(0.840566 -0.360259 -4.30855e-22)
(0.869722 -0.558168 -4.82951e-21)
(0.882983 -0.641068 8.26537e-21)
(0.877928 -0.652042 -3.47199e-21)
(0.867032 -0.622528 1.39655e-22)
(0.854725 -0.594297 1.83236e-21)
(0.822465 -0.609135 2.19122e-23)
(0.765332 -0.639041 -3.48739e-21)
(0.695319 -0.604203 3.99715e-21)
(0.630543 -0.459048 -2.14289e-21)
(0.591622 -0.223194 3.09379e-22)
(0.59357 0.0407597 -1.77234e-22)
(0.629142 0.265176 2.53698e-22)
(0.686883 0.412303 0)
(0.741566 0.495036 0)
(0.763886 0.55254 -5.71872e-22)
(0.738024 0.594327 4.13877e-22)
(0.689223 0.579324 5.89248e-22)
(0.643822 0.452044 2.54627e-22)
(0.627182 0.215428 -9.82556e-22)
(0.641915 -0.0514135 2.315e-22)
(0.690028 -0.250568 0)
(0.722196 -0.361617 0)
(0.710164 -0.43847 0)
(0.668998 -0.46166 0)
(0.64859 -0.403231 1.2293e-22)
(0.642307 -0.240865 -6.59059e-23)
(0.6568 -0.0165895 0)
(0.658556 0.196751 0)
(0.656507 0.385878 0)
(0.643698 0.425901 -5.51586e-23)
(0.652488 0.34562 -1.35603e-23)
(0.64676 0.14254 -5.14032e-23)
(0.636419 -0.157354 0)
(0.599351 -0.31227 0)
(0.592654 -0.399938 1.38162e-23)
(0.571422 -0.225547 -6.06067e-24)
(0.556569 0.153786 0)
(0.528422 0.149842 0)
(0.0683583 -0.837403 -2.80535e-21)
(0.0136278 -0.820533 -2.10403e-20)
(-0.0130579 -0.754992 1.8353e-20)
(-0.00363087 -0.639194 -1.71877e-20)
(0.0393714 -0.468159 -1.57943e-22)
(0.101014 -0.257343 0)
(0.173258 -0.0209667 -1.69554e-20)
(0.257608 0.215982 1.65215e-20)
(0.34815 0.427507 1.18692e-22)
(0.438446 0.583121 1.44953e-22)
(0.520145 0.675264 1.16304e-22)
(0.585098 0.717482 1.22896e-22)
(0.635345 0.721624 -6.44033e-21)
(0.677416 0.702709 6.35834e-21)
(0.708332 0.695761 0)
(0.721024 0.730466 2.24112e-22)
(0.722627 0.779458 -1.01056e-20)
(0.735812 0.758888 9.98659e-21)
(0.773868 0.600451 0)
(0.827006 0.307788 0)
(0.880681 -0.0494739 -1.54792e-20)
(0.920846 -0.36715 2.81786e-20)
(0.939285 -0.564548 -2.22298e-20)
(0.93838 -0.641233 2.58567e-21)
(0.918827 -0.647264 1.21494e-20)
(0.891897 -0.616268 -9.33324e-21)
(0.867075 -0.581031 7.02604e-21)
(0.827536 -0.583412 -3.86269e-22)
(0.762432 -0.606045 -2.92359e-21)
(0.683365 -0.573891 0)
(0.610907 -0.439811 0)
(0.566026 -0.221416 1.69753e-21)
(0.567124 0.0232434 -2.19788e-21)
(0.608049 0.235966 -4.40233e-23)
(0.674755 0.382781 1.33032e-21)
(0.737598 0.476503 -1.29263e-21)
(0.767844 0.551639 0)
(0.751608 0.609144 1.42545e-22)
(0.712926 0.600954 1.85683e-21)
(0.675442 0.470482 -4.1415e-21)
(0.661825 0.223605 1.96453e-21)
(0.670487 -0.056534 2.87812e-22)
(0.711101 -0.262649 -1.77196e-21)
(0.74261 -0.36528 1.32434e-21)
(0.729201 -0.430453 2.02285e-22)
(0.681903 -0.453296 1.42728e-22)
(0.656902 -0.40093 -1.23256e-22)
(0.647672 -0.244032 0)
(0.659344 -0.0208192 0)
(0.659926 0.19496 -2.72165e-22)
(0.660514 0.38647 1.45527e-22)
(0.650969 0.427334 -1.91069e-22)
(0.662397 0.345833 3.59965e-22)
(0.658166 0.146772 5.30885e-22)
(0.647833 -0.151475 -9.15788e-23)
(0.606481 -0.307551 1.52029e-22)
(0.593167 -0.396394 -7.66541e-23)
(0.572756 -0.224545 -1.03872e-23)
(0.568922 0.157228 0)
(0.538099 0.153765 0)
(0.296868 -0.746662 -3.61402e-20)
(0.210763 -0.750173 4.95882e-21)
(0.122686 -0.73208 2.92708e-20)
(0.0573612 -0.667168 -2.3506e-22)
(0.0362798 -0.538008 0)
(0.0571812 -0.359018 0)
(0.102491 -0.136349 -2.32492e-20)
(0.171339 0.093276 1.45276e-21)
(0.260717 0.308164 2.90926e-20)
(0.357914 0.477988 -1.51124e-21)
(0.451655 0.593167 -7.09436e-21)
(0.532349 0.658203 -5.1348e-21)
(0.600748 0.678833 5.11647e-21)
(0.659807 0.671567 0)
(0.704275 0.673986 -6.4485e-21)
(0.728804 0.715023 5.83912e-21)
(0.74517 0.765812 0)
(0.776481 0.746336 0)
(0.829082 0.59566 1.38922e-20)
(0.89126 0.312536 1.67481e-21)
(0.954017 -0.0424353 -1.42395e-20)
(0.99839 -0.362617 -1.30942e-20)
(1.00925 -0.560607 1.29717e-20)
(0.994355 -0.632905 -7.43341e-21)
(0.961019 -0.634708 1.9555e-21)
(0.919836 -0.604369 5.0495e-21)
(0.882852 -0.565723 4.12096e-22)
(0.836988 -0.55614 2.09903e-23)
(0.766872 -0.569887 0)
(0.681168 -0.541 2.94502e-21)
(0.602288 -0.421072 -3.03374e-21)
(0.551654 -0.222725 2.55711e-22)
(0.550652 0.00232299 0)
(0.594716 0.201935 -2.12505e-22)
(0.667782 0.34862 2.23732e-21)
(0.737858 0.453992 -3.9471e-21)
(0.777189 0.545698 -4.24838e-22)
(0.770793 0.617959 -6.30536e-22)
(0.74217 0.61847 2.24754e-21)
(0.714297 0.488874 4.88475e-22)
(0.705767 0.236002 -4.60555e-21)
(0.708467 -0.0558974 3.95198e-21)
(0.738394 -0.271741 -3.67044e-23)
(0.76703 -0.368594 1.03058e-21)
(0.752611 -0.421245 -1.20485e-21)
(0.698767 -0.443413 -9.03858e-22)
(0.667903 -0.398252 2.87944e-22)
(0.655549 -0.248113 2.57681e-22)
(0.665179 -0.0260714 -4.65467e-22)
(0.66504 0.19181 3.31918e-22)
(0.668159 0.386092 -2.0983e-22)
(0.661096 0.428813 4.80111e-23)
(0.674931 0.346219 1.96294e-22)
(0.672399 0.151759 -8.81396e-22)
(0.662936 -0.144461 3.00473e-23)
(0.617905 -0.301757 -1.73205e-22)
(0.597565 -0.39199 0)
(0.577533 -0.225552 2.6716e-24)
(0.585019 0.159782 -8.6609e-23)
(0.551349 0.158311 0)
(0.52083 -0.659377 3.14141e-20)
(0.442082 -0.636931 -5.43839e-20)
(0.335816 -0.62885 2.2953e-20)
(0.223372 -0.609997 1.47054e-20)
(0.131033 -0.547152 -2.74171e-20)
(0.0906044 -0.421099 -6.0389e-23)
(0.093432 -0.240778 1.25792e-20)
(0.132671 -0.0289635 1.17445e-20)
(0.207522 0.180956 -1.15199e-20)
(0.297848 0.360891 0)
(0.392649 0.495884 -7.19399e-21)
(0.482593 0.581895 1.36721e-20)
(0.565574 0.620167 -6.55847e-21)
(0.638912 0.627262 0)
(0.694175 0.640765 0)
(0.728343 0.687562 1.98665e-22)
(0.758479 0.73941 -1.65387e-20)
(0.806721 0.724387 1.60561e-20)
(0.872177 0.587596 0)
(0.943816 0.320406 2.90918e-20)
(1.01736 -0.0261115 -5.5517e-20)
(1.069 -0.344169 5.17047e-20)
(1.07569 -0.541968 -4.35504e-20)
(1.04834 -0.613207 4.5834e-21)
(1.00265 -0.613653 2.39255e-20)
(0.94951 -0.585854 -9.98275e-21)
(0.902068 -0.54739 -2.00479e-22)
(0.851711 -0.528735 -2.09054e-21)
(0.779105 -0.533979 1.14301e-22)
(0.688823 -0.50878 2.01157e-21)
(0.604532 -0.403696 1.7504e-22)
(0.548291 -0.226345 -2.86849e-21)
(0.543326 -0.0217869 5.44874e-21)
(0.587515 0.164126 -2.84753e-21)
(0.664843 0.3098 0)
(0.741352 0.424941 -1.92684e-21)
(0.789865 0.533496 1.87838e-21)
(0.794485 0.623185 -2.44269e-21)
(0.777976 0.634321 3.01718e-21)
(0.760325 0.508353 -5.43117e-22)
(0.757413 0.252813 0)
(0.754939 -0.0482755 -6.15482e-22)
(0.771731 -0.275993 1.41913e-21)
(0.794892 -0.370655 0)
(0.779841 -0.410732 1.81755e-21)
(0.719389 -0.431801 -8.19958e-22)
(0.68133 -0.394952 1.86299e-22)
(0.665645 -0.253074 8.26075e-23)
(0.673996 -0.0324365 0)
(0.673642 0.187191 0)
(0.679276 0.384288 -4.08673e-22)
(0.6739 0.429925 9.55804e-22)
(0.689712 0.34652 -7.4944e-22)
(0.689176 0.157195 3.6669e-22)
(0.681451 -0.136375 6.20086e-22)
(0.633508 -0.294875 1.73391e-22)
(0.60592 -0.386615 -1.59403e-22)
(0.585368 -0.228421 0)
(0.604348 0.161262 1.14726e-22)
(0.568079 0.163381 1.52195e-23)
(0.702484 -0.611458 2.86725e-20)
(0.634721 -0.561879 -2.82839e-20)
(0.553053 -0.511482 1.42631e-22)
(0.443073 -0.486371 -6.70645e-23)
(0.315377 -0.470629 7.50498e-23)
(0.21126 -0.414387 -6.42313e-23)
(0.152957 -0.303473 5.13377e-24)
(0.147048 -0.133343 0)
(0.191069 0.0573433 -3.43117e-24)
(0.266563 0.237616 1.29008e-24)
(0.356019 0.385279 -1.59501e-25)
(0.449643 0.489115 -7.06677e-23)
(0.541846 0.545872 0)
(0.624095 0.570059 0)
(0.684699 0.59612 8.12065e-23)
(0.723879 0.64744 0)
(0.764209 0.699249 -1.58557e-22)
(0.825515 0.692046 0)
(0.900522 0.575483 -2.17318e-20)
(0.981871 0.329418 4.62735e-20)
(1.06929 -0.00456156 -4.97942e-20)
(1.13159 -0.317786 2.51116e-20)
(1.13742 -0.514299 1.82134e-20)
(1.09976 -0.586013 -1.76789e-20)
(1.04336 -0.586763 -9.87426e-21)
(0.980483 -0.56208 9.49485e-21)
(0.923259 -0.52645 0)
(0.869369 -0.501998 1.21483e-22)
(0.797572 -0.498685 0)
(0.70541 -0.476094 0)
(0.616881 -0.385977 3.65855e-21)
(0.554774 -0.230068 -3.72377e-21)
(0.543732 -0.0475042 2.24397e-22)
(0.585185 0.123407 2.64822e-22)
(0.664543 0.26641 -1.48943e-22)
(0.746752 0.390785 -1.36205e-21)
(0.805177 0.514196 1.32232e-21)
(0.820944 0.618845 -2.88464e-21)
(0.815139 0.64367 2.54252e-21)
(0.807868 0.526656 1.10122e-21)
(0.812838 0.273154 -5.28454e-21)
(0.807867 -0.033612 -1.78928e-22)
(0.810643 -0.274802 3.52064e-21)
(0.825565 -0.371541 0)
(0.810151 -0.399239 -8.49279e-22)
(0.743603 -0.418058 5.56058e-22)
(0.696914 -0.390422 -7.96049e-22)
(0.677651 -0.258743 -8.316e-23)
(0.685435 -0.040262 0)
(0.685319 0.180619 9.34748e-23)
(0.693437 0.381377 -8.88419e-23)
(0.689006 0.431472 -3.3048e-24)
(0.70631 0.347014 -3.16036e-22)
(0.708218 0.162938 7.49987e-22)
(0.703048 -0.127442 -6.7818e-22)
(0.65305 -0.286988 0)
(0.618301 -0.380122 1.59497e-22)
(0.595867 -0.232934 0)
(0.626344 0.161573 0)
(0.588125 0.168883 -2.43657e-23)
(0.840988 -0.545681 -2.7803e-20)
(0.769059 -0.517247 2.7248e-20)
(0.702105 -0.459311 -1.1656e-22)