/*--------------------------------*- C++ -*----------------------------------*\
| =========                 |                                                 |
| \\      /  F ield         | OpenFOAM: The Open Source CFD Toolbox           |
|  \\    /   O peration     | Version:  2312                                  |
|   \\  /    A nd           | Website:  www.openfoam.com                      |
|    \\/     M anipulation  |                                                 |
\*---------------------------------------------------------------------------*/
FoamFile
{
    version     2.0;
    format      ascii;
    arch        "LSB;label=32;scalar=64";
    class       volScalarField;
    location    "167";
    object      p;
}
// * * * * * * * * * * * * * * * * * * * * * * * * * * * * * * * * * * * * * //

dimensions      [0 2 -2 0 0 0 0];

internalField   nonuniform List<scalar> 
5478
(
-0.38
-0.378863
-0.373254
-0.364676
-0.355299
-0.346855
-0.34057
-0.336575
-0.333508
-0.329276
-0.322087
-0.310368
-0.296094
-0.276844
-0.253733
-0.39046
-0.387998
-0.382691
-0.37521
-0.366082
-0.355635
-0.344562
-0.333333
-0.321738
-0.309311
-0.295576
-0.280768
-0.264194
-0.245142
-0.22587
-0.405478
-0.400682
-0.394324
-0.386283
-0.375149
-0.360495
-0.343624
-0.326019
-0.30858
-0.291513
-0.274696
-0.257462
-0.239748
-0.22158
-0.202922
-0.424904
-0.417141
-0.408669
-0.397979
-0.382019
-0.361539
-0.33917
-0.316959
-0.295765
-0.275739
-0.256551
-0.238132
-0.220166
-0.202389
-0.185503
-0.450045
-0.438039
-0.426909
-0.410366
-0.386853
-0.359834
-0.332632
-0.306849
-0.282995
-0.260989
-0.24063
-0.221476
-0.203195
-0.185965
-0.169174
-0.481942
-0.463629
-0.447386
-0.421533
-0.388923
-0.355446
-0.323989
-0.295372
-0.26953
-0.246164
-0.224853
-0.205296
-0.187242
-0.170364
-0.154243
-0.516473
-0.492664
-0.465765
-0.428042
-0.386474
-0.347216
-0.312089
-0.281082
-0.253695
-0.229388
-0.207708
-0.188211
-0.170514
-0.154415
-0.139106
-0.546395
-0.51889
-0.477613
-0.427017
-0.377417
-0.333285
-0.295201
-0.262441
-0.234083
-0.209389
-0.187748
-0.168694
-0.151862
-0.13681
-0.123129
-0.430975
-0.431849
-0.432165
-0.434658
-0.439829
-0.448073
-0.459846
-0.475512
-0.495265
-0.519085
-0.546503
-0.576311
-0.607023
-0.634486
-0.657073
-0.423169
-0.421921
-0.420096
-0.421311
-0.425157
-0.432532
-0.444407
-0.461628
-0.484716
-0.513442
-0.547176
-0.583796
-0.620635
-0.654464
-0.676973
-0.415477
-0.411993
-0.40938
-0.408432
-0.410066
-0.415336
-0.425391
-0.44122
-0.463412
-0.491554
-0.524168
-0.559525
-0.592888
-0.620929
-0.643105
-0.406749
-0.402183
-0.397994
-0.394215
-0.39233
-0.39385
-0.400071
-0.412046
-0.430379
-0.45499
-0.483775
-0.516321
-0.546797
-0.573674
-0.58762
-0.396989
-0.392573
-0.386755
-0.379445
-0.372864
-0.369358
-0.370702
-0.378323
-0.39282
-0.41462
-0.44163
-0.47196
-0.497749
-0.517117
-0.518821
-0.387266
-0.383984
-0.377076
-0.366656
-0.355707
-0.347587
-0.345067
-0.350182
-0.363455
-0.384134
-0.407533
-0.431603
-0.44758
-0.454175
-0.442047
-0.379198
-0.377413
-0.370224
-0.358347
-0.345522
-0.335709
-0.332511
-0.337132
-0.348543
-0.364034
-0.379402
-0.391153
-0.393871
-0.387734
-0.36849
-0.376004
-0.374999
-0.368395
-0.357544
-0.345917
-0.337473
-0.3337
-0.335454
-0.341272
-0.347469
-0.35147
-0.349082
-0.339838
-0.324905
-0.305883
-0.672099
-0.58791
-0.420629
-0.281447
-0.218264
-0.209681
-0.215964
-0.20702
-0.174609
-0.147025
-0.140086
-0.118246
-0.109907
-0.121466
-0.146514
-0.147874
-0.125327
-0.109078
-0.128276
-0.139772
-0.139628
-0.124531
-0.137144
-0.137537
-0.13558
-0.164273
-0.196083
-0.155916
-0.125472
-0.0728062
-0.0320289
-0.0241229
-0.0169982
-0.0102332
-0.00598234
-0.004113
-0.00241562
-0.000794371
-0.692336
-0.610144
-0.441135
-0.285372
-0.205961
-0.175084
-0.159627
-0.154669
-0.146087
-0.141046
-0.141382
-0.124314
-0.122628
-0.12581
-0.145885
-0.148293
-0.126897
-0.117115
-0.138212
-0.147665
-0.144872
-0.117221
-0.12045
-0.126836
-0.127421
-0.182105
-0.221974
-0.15083
-0.11204
-0.071693
-0.0352714
-0.0245172
-0.0160519
-0.0101078
-0.00618261
-0.00412859
-0.0023823
-0.000787471
-0.650483
-0.573995
-0.423077
-0.277576
-0.1928
-0.152159
-0.120565
-0.107306
-0.118197
-0.135475
-0.14258
-0.13351
-0.138556
-0.131301
-0.144865
-0.146856
-0.126698
-0.124241
-0.146002
-0.154061
-0.148188
-0.109626
-0.1027
-0.115211
-0.117044
-0.196273
-0.23987
-0.143232
-0.0956029
-0.0689432
-0.0378559
-0.0246632
-0.0150257
-0.00993581
-0.00636906
-0.00413738
-0.00234586
-0.000780192
-0.57762
-0.513038
-0.386183
-0.262876
-0.180741
-0.1421
-0.104671
-0.0816769
-0.0964543
-0.130892
-0.144565
-0.145312
-0.157593
-0.137773
-0.143778
-0.142743
-0.124249
-0.129629
-0.15148
-0.159069
-0.150626
-0.102497
-0.0852346
-0.103216
-0.10489
-0.205085
-0.249136
-0.135358
-0.0785673
-0.0646175
-0.0396163
-0.0246011
-0.0139901
-0.00972078
-0.00652716
-0.00413945
-0.00230781
-0.000772535
-0.489901
-0.441071
-0.344886
-0.246058
-0.172409
-0.137057
-0.10375
-0.079519
-0.0917829
-0.128621
-0.142962
-0.152621
-0.170325
-0.161076
-0.143861
-0.137331
-0.119296
-0.132198
-0.153903
-0.162076
-0.152087
-0.0958618
-0.0686743
-0.0914256
-0.0916326
-0.207977
-0.250963
-0.128062
-0.0615785
-0.0590876
-0.0404314
-0.0243344
-0.0130048
-0.00947231
-0.00664554
-0.00413412
-0.00226935
-0.000764448
-0.398364
-0.368324
-0.30479
-0.22951
-0.165983
-0.133106
-0.10373
-0.0877053
-0.0930448
-0.136497
-0.142572
-0.151735
-0.171453
-0.158246
-0.140597
-0.130271
-0.111302
-0.130917
-0.152726
-0.16359
-0.153531
-0.0914183
-0.0544776
-0.0802004
-0.0777644
-0.204825
-0.246499
-0.122414
-0.0462365
-0.0527682
-0.0403614
-0.0239359
-0.0121251
-0.00919681
-0.00672594
-0.00412253
-0.00223265
-0.000756102
-0.328102
-0.315089
-0.274888
-0.218982
-0.162117
-0.128174
-0.101792
-0.0922159
-0.108749
-0.143373
-0.134122
-0.140607
-0.167171
-0.163355
-0.140388
-0.125783
-0.10169
-0.124953
-0.149
-0.16121
-0.152405
-0.086645
-0.0434827
-0.0701363
-0.0622266
-0.196227
-0.237625
-0.116057
-0.0335391
-0.045689
-0.039454
-0.0233373
-0.0113759
-0.0089188
-0.00673625
-0.0040992
-0.00219644
-0.000746957
-0.286284
-0.278201
-0.249746
-0.210205
-0.162539
-0.130609
-0.101507
-0.0822995
-0.10892
-0.153112
-0.12625
-0.129218
-0.14467
-0.125568
-0.130208
-0.118255
-0.0919033
-0.114458
-0.142489
-0.165733
-0.153975
-0.0852536
-0.0347693
-0.0598477
-0.045829
-0.183232
-0.228661
-0.112044
-0.022587
-0.0384204
-0.0377742
-0.0227719
-0.0107678
-0.00862542
-0.00678007
-0.00407892
-0.00216884
-0.000738604
-0.250569
-0.25053
-0.220934
-0.18016
-0.138233
-0.107931
-0.0820494
-0.0538767
-0.065565
-0.0906792
-0.0897511
-0.105428
-0.135391
-0.167391
-0.122752
-0.101476
-0.079667
-0.102061
-0.131778
-0.146743
-0.143938
-0.0825003
-0.031001
-0.0548128
-0.0381728
-0.16589
-0.208337
-0.10631
-0.0163237
-0.031808
-0.0349797
-0.0214599
-0.0102091
-0.00824902
-0.00661532
-0.00400235
-0.00212149
-0.000721952
-0.184516
-0.190085
-0.166203
-0.133762
-0.101239
-0.0774169
-0.0568993
-0.0307662
-0.02066
-0.0191815
-0.0192368
-0.0585562
-0.112115
-0.12577
-0.0943456
-0.0753785
-0.0570105
-0.078754
-0.120349
-0.147449
-0.127582
-0.0673726
-0.0220382
-0.0419329
-0.0227757
-0.136956
-0.199937
-0.0923455
-0.00533514
-0.0245615
-0.0315164
-0.0195787
-0.00928119
-0.00770993
-0.00633386
-0.00386786
-0.00205049
-0.000697544
-0.1447
-0.152533
-0.137772
-0.113568
-0.0861255
-0.0620092
-0.0393104
-0.00760249
0.0228221
0.0394776
0.0377007
-0.00813166
-0.069317
-0.0861188
-0.0690451
-0.052518
-0.0370101
-0.0493457
-0.083256
-0.107578
-0.0933826
-0.041333
-0.0137979
-0.0316884
-0.0115227
-0.0997091
-0.147527
-0.065493
0.00169784
-0.0177283
-0.0261722
-0.0170256
-0.00851346
-0.00721628
-0.00596179
-0.00369681
-0.00198666
-0.000673992
-0.111682
-0.117009
-0.106125
-0.0849379
-0.0613068
-0.0401169
-0.0196103
0.00718943
0.0361003
0.0516755
0.0512945
0.0203112
-0.0281638
-0.0462309
-0.0407278
-0.0261413
-0.0143576
-0.0187653
-0.0410601
-0.0674067
-0.055756
-0.0182576
-0.0106956
-0.020017
-0.00146867
-0.0560974
-0.0929073
-0.0335226
0.00601752
-0.00984906
-0.0200929
-0.0143329
-0.00804994
-0.00672382
-0.00548938
-0.00348622
-0.00192966
-0.000650478
-0.082335
-0.0877475
-0.0811967
-0.066523
-0.0486841
-0.0314068
-0.013994
0.00846591
0.0328092
0.0462936
0.0456032
0.0277459
-0.00218179
-0.0192809
-0.0227328
-0.0125562
-0.00106481
0.00755576
0.00513535
-0.0272139
-0.0256114
-0.00549853
-0.0111836
-0.0113772
0.00467652
-0.0116008
-0.0305717
0.000951513
0.0101417
-0.00112398
-0.0122502
-0.0111427
-0.00770034
-0.00617792
-0.00458979
-0.00322713
-0.00187639
-0.000627674
-0.0614926
-0.0659914
-0.0616924
-0.0507499
-0.0368845
-0.022548
-0.00796187
0.00838801
0.0247735
0.0350621
0.0356507
0.0260926
0.0096002
-0.00236548
-0.00638356
0.00287911
0.0105877
0.0159647
0.0105809
-0.00815368
-0.01139
-0.000261049
-0.00549808
-0.00210961
0.0103892
0.0174039
0.00774596
0.0255698
0.0141996
0.00659952
-0.00502715
-0.00795675
-0.00718932
-0.00548514
-0.0039474
-0.00294769
-0.00181279
-0.000602356
-0.0447901
-0.048129
-0.0455055
-0.0378162
-0.0276565
-0.0169665
-0.00614026
0.00518122
0.0163447
0.0243753
0.0259237
0.0218009
0.0133217
0.00615046
0.00188348
0.0074391
0.0139782
0.0190091
0.0183138
0.00426509
-0.00133556
0.00396419
0.000419545
0.00551644
0.0149137
0.0283072
0.0226028
0.0325857
0.015591
0.010967
-7.90236e-06
-0.00541394
-0.00627923
-0.00465599
-0.00335469
-0.00264981
-0.00169784
-0.0005604
-0.0313134
-0.0342771
-0.0329408
-0.0277211
-0.0205198
-0.0127058
-0.00476869
0.00315534
0.0108332
0.0165842
0.0186997
0.017263
0.0133281
0.0100917
0.008022
0.0121632
0.0166934
0.0183691
0.0171627
0.00977323
0.00498354
0.00713954
0.00649082
0.0113944
0.0170053
0.0248836
0.0233779
0.0285853
0.0168626
0.0120865
0.00209773
-0.00351737
-0.00489172
-0.00375572
-0.00283088
-0.00231666
-0.00151136
-0.000498541
-0.0212038
-0.0236571
-0.0230319
-0.019563
-0.014563
-0.00905811
-0.00348036
0.00195519
0.00715462
0.0113253
0.0135102
0.0137091
0.0123673
0.0113902
0.0102158
0.0120814
0.0153053
0.0163156
0.0158146
0.0118983
0.00879802
0.00946603
0.00889793
0.0132104
0.0172529
0.0217559
0.0223222
0.0240836
0.0168451
0.0117405
0.00369976
-0.00171675
-0.00330685
-0.00282834
-0.00228274
-0.00191276
-0.00125945
-0.000415467
-0.0133526
-0.0153188
-0.0151539
-0.0129768
-0.00963379
-0.00586057
-0.00201471
0.00173384
0.00531627
0.00828273
0.0102701
0.0111798
0.0110318
0.0110589
0.0111333
0.0124117
0.0146657
0.0150306
0.0145316
0.0125235
0.0107766
0.0108534
0.0110991
0.0143587
0.0170551
0.0188906
0.0198513
0.0202155
0.0163046
0.0113418
0.00480543
-5.29891e-05
-0.00190358
-0.00196965
-0.00171965
-0.00148108
-0.000996518
-0.000334327
-0.00716273
-0.0087978
-0.00894212
-0.00765966
-0.00546419
-0.00292556
-0.000335634
0.00218326
0.00457452
0.00678422
0.00840651
0.00950321
0.0100504
0.010692
0.0112061
0.0118548
0.0132226
0.0136294
0.0134257
0.0124519
0.0116277
0.0117031
0.0116543
0.0138422
0.0159604
0.0168202
0.0174591
0.0172453
0.0147729
0.0109448
0.00572682
0.00145987
-0.000616654
-0.0011075
-0.00111799
-0.00102202
-0.000710276
-0.000238903
-0.00243312
-0.00374768
-0.00402798
-0.00331002
-0.00192122
-0.000266661
0.00142445
0.00310284
0.00471546
0.00627981
0.00756483
0.00860549
0.00934855
0.0100293
0.010732
0.0113313
0.0122637
0.0127047
0.0126809
0.0122605
0.0119325
0.0120656
0.0123222
0.0136886
0.0149471
0.0151927
0.0154075
0.0149604
0.0133897
0.0105102
0.00637213
0.00272432
0.000531481
-0.000306699
-0.000546386
-0.000586153
-0.000438517
-0.000151598
0.0012467
0.00018616
-0.000157626
0.000200716
0.00104768
0.00210734
0.0031929
0.00427765
0.00533741
0.00641623
0.00737842
0.00822165
0.00893435
0.00960709
0.0103123
0.0108634
0.0114757
0.0118988
0.0120428
0.0119227
0.0118553
0.0120123
0.0121008
0.0128689
0.013682
0.01381
0.0137453
0.0131439
0.0119104
0.00985739
0.00672858
0.00369567
0.00155105
0.000443236
-1.04126e-05
-0.000180401
-0.000178126
-6.39749e-05
0.00412932
0.00327288
0.00290616
0.00303432
0.00352591
0.00418313
0.00485423
0.00552346
0.00620111
0.00692289
0.00761067
0.00823696
0.00881978
0.00938769
0.00997366
0.0104597
0.0109171
0.0113006
0.0115333
0.0115695
0.0116175
0.011794
0.0119138
0.0123245
0.0127021
0.0126543
0.0124203
0.0118179
0.0108033
0.00921969
0.00688236
0.00442821
0.00245087
0.00116896
0.000508467
0.000198277
6.79042e-05
2.60696e-05
0.00635874
0.00568252
0.00533705
0.00532939
0.00557898
0.00595433
0.00634837
0.0067395
0.00714786
0.00759889
0.00805487
0.00848534
0.00890533
0.00933682
0.00978742
0.0101857
0.0105352
0.0108415
0.0110822
0.0111958
0.0112787
0.0114191
0.0114707
0.0116242
0.0117585
0.0116311
0.0113136
0.0107088
0.00982757
0.00857418
0.006813
0.00487374
0.00314379
0.00182695
0.000988471
0.000523631
0.000267083
9.65781e-05
0.00810236
0.00757094
0.00725428
0.00716602
0.00726129
0.00744983
0.00765313
0.00785195
0.00806989
0.00832762
0.00860521
0.00887119
0.00913886
0.00943432
0.00975026
0.0100384
0.0102888
0.0105196
0.0107227
0.0108375
0.0109057
0.0109935
0.0110082
0.0110269
0.0109937
0.0107806
0.0104269
0.00986439
0.00909064
0.00805111
0.00668566
0.0051525
0.00366959
0.00240728
0.00145813
0.000839777
0.000451995
0.000164932
0.00944571
0.00902933
0.00875063
0.00862314
0.00862009
0.00868169
0.00875349
0.00882259
0.00890907
0.00902846
0.00916819
0.0093053
0.00944908
0.00961935
0.00981278
0.00999285
0.0101488
0.0102977
0.0104324
0.0105115
0.0105459
0.0105768
0.010541
0.01046
0.0103294
0.010075
0.00970089
0.00916505
0.00846904
0.00759366
0.00649497
0.00525288
0.00399763
0.00284617
0.00187423
0.00113335
0.000609717
0.000212306
0.0104734
0.0101493
0.00990765
0.00976125
0.00969538
0.0096735
0.00965803
0.00964147
0.00963793
0.00965924
0.00969692
0.00973579
0.00978254
0.00985102
0.00993984
0.0100225
0.0100923
0.0101587
0.0102177
0.01024
0.0102247
0.010194
0.0101091
0.00997276
0.00978333
0.00949688
0.00911341
0.00861455
0.0079874
0.00722537
0.00630962
0.0052827
0.00421229
0.00317096
0.00222196
0.00141071
0.000768452
0.00025943
0.0112505
0.0109954
0.0107856
0.0106331
0.010529
0.0104534
0.0103801
0.0103072
0.0102427
0.0101962
0.0101608
0.010127
0.0100999
0.010088
0.0100925
0.0100928
0.0100874
0.0100788
0.0100665
0.0100274
0.00995981
0.0098735
0.00974302
0.009565
0.00933423
0.0090327
0.00864917
0.00817489
0.00759948
0.00692086
0.00613326
0.00525282
0.00431925
0.00337804
0.00247547
0.00164475
0.000917085
0.000301128
0.0118207
0.0116162
0.0114329
0.0112805
0.0111542
0.0110444
0.0109346
0.0108256
0.0107214
0.0106288
0.0105426
0.010457
0.0103761
0.0103043
0.0102438
0.0101793
0.0101122
0.0100416
0.00996744
0.00987328
0.00975696
0.00962242
0.00945064
0.00924022
0.00898219
0.00866804
0.00828584
0.00783171
0.00729807
0.00668028
0.00597932
0.00520187
0.0043703
0.003511
0.00265455
0.00182622
0.00104788
0.00034186
0.0122226
0.0120527
0.0118899
0.01174
0.0116018
0.0114709
0.0113393
0.0112077
0.0110787
0.0109557
0.0108355
0.0107152
0.0105968
0.0104831
0.0103745
0.0102632
0.0101486
0.0100304
0.009907
0.00976865
0.00961214
0.00943803
0.00923416
0.00899704
0.00871953
0.00839539
0.00801587
0.00757616
0.007071
0.00649675
0.00585394
0.00514568
0.00438413
0.003585
0.00276684
0.00194967
0.00114706
0.000375904
0.0124787
0.012331
0.0121823
0.012036
0.0118922
0.0117499
0.0116064
0.0114624
0.0113189
0.0111775
0.0110364
0.0108947
0.0107528
0.010612
0.010472
0.0103294
0.010183
0.010032
0.00987439
0.00970485
0.00951947
0.00931723
0.00908994
0.00883373
0.0085426
0.00821106
0.00783264
0.0074019
0.00691565
0.00636914
0.00576274
0.00509846
0.00438075
0.00362218
0.00283234
0.00202497
0.00121126
0.000400468
0.0126026
0.0124662
0.0123254
0.012182
0.0120366
0.0118898
0.0117414
0.0115922
0.0114423
0.0112921
0.011141
0.010989
0.0108356
0.0106813
0.0105253
0.0103667
0.0102039
0.0100356
0.00985987
0.00967368
0.00947289
0.00925524
0.00901552
0.0087487
0.00845027
0.00811441
0.00773629
0.00731034
0.00683301
0.00630109
0.0057127
0.00507018
0.00437471
0.00363649
0.00286183
0.00206025
0.00124221
0.000413076
-0.106244
-0.11862
-0.132198
-0.14525
-0.161545
-0.176194
-0.19557
-0.217327
-0.0880209
-0.0966702
-0.106301
-0.115909
-0.126954
-0.13705
-0.147072
-0.15988
-0.0706989
-0.076383
-0.0823591
-0.0888047
-0.0955155
-0.101798
-0.109497
-0.121977
-0.0564703
-0.0600022
-0.063566
-0.0678469
-0.0728923
-0.079205
-0.0874061
-0.0973736
-0.0439976
-0.0463703
-0.0489734
-0.0527223
-0.0574514
-0.0621623
-0.0665676
-0.0718362
-0.0338539
-0.0354548
-0.0373367
-0.0398191
-0.042385
-0.044622
-0.0475854
-0.0526515
-0.0251003
-0.0259211
-0.0268162
-0.0280884
-0.0297728
-0.0319112
-0.0348926
-0.0388529
-0.0176294
-0.0179801
-0.0184599
-0.0194254
-0.0208577
-0.0224927
-0.0243424
-0.0269256
-0.0114975
-0.0116321
-0.0118607
-0.0124328
-0.0132813
-0.0142743
-0.0155838
-0.0177459
-0.00634876
-0.0063356
-0.00635639
-0.00663298
-0.00717683
-0.00796463
-0.0090783
-0.0107941
-0.00208931
-0.00203894
-0.00200045
-0.0021601
-0.00254415
-0.00313479
-0.003946
-0.00523127
0.00137842
0.00141388
0.00146154
0.00138319
0.00114312
0.000731217
0.000116209
-0.000912527
0.00421053
0.00421642
0.00425136
0.00421017
0.00404404
0.00372536
0.0032288
0.00241811
0.00648951
0.00645282
0.00645035
0.00640822
0.00627931
0.00603574
0.00565369
0.00503225
0.00829991
0.00822627
0.00818697
0.00813499
0.00802843
0.00783765
0.00753644
0.00705496
0.00972017
0.00961959
0.00954875
0.00948037
0.00938142
0.00922661
0.00899217
0.00862903
0.0108163
0.0107007
0.0106096
0.0105289
0.0104344
0.0103053
0.01012
0.00984474
0.0116546
0.0115326
0.0114297
0.0113396
0.0112454
0.0111315
0.0109812
0.0107729
0.0122855
0.0121624
0.0120543
0.0119588
0.0118649
0.0117614
0.0116366
0.0114769
0.0127495
0.012629
0.01252
0.0124219
0.0123277
0.0122304
0.0121223
0.0119959
0.0130727
0.0129576
0.0128508
0.0127524
0.0126586
0.0125654
0.0124683
0.0123634
0.0132712
0.013164
0.0130617
0.012965
0.0128722
0.0127816
0.012691
0.0125987
0.0133583
0.0132606
0.0131641
0.0130699
0.012978
0.0128884
0.0128002
0.012713
0.0508785
0.0542795
0.0572379
0.0589982
0.0588432
0.0566681
0.0523545
0.045334
0.0345488
0.0184797
-0.00495328
-0.0386243
-0.0872596
-0.154443
-0.2153
0.0279769
0.0291545
0.0282612
0.025648
0.0213111
0.0149465
0.00601515
-0.00632612
-0.0232641
-0.0464083
-0.077963
-0.120769
-0.179415
-0.258779
-0.323766
0.00577694
0.00423631
-0.000639248
-0.00728844
-0.015382
-0.025537
-0.038651
-0.0557417
-0.0780615
-0.107282
-0.145747
-0.196419
-0.262667
-0.351499
-0.414307
-0.0167073
-0.0213029
-0.0294273
-0.0391117
-0.050252
-0.0637254
-0.0805299
-0.101697
-0.128506
-0.162638
-0.206517
-0.263438
-0.335813
-0.425641
-0.485008
-0.0401249
-0.0474617
-0.0577414
-0.0694201
-0.0828599
-0.0990622
-0.118895
-0.143309
-0.173577
-0.211319
-0.25889
-0.319801
-0.394681
-0.481072
-0.534649
-0.062737
-0.0727703
-0.0845873
-0.0977169
-0.112992
-0.131348
-0.153414
-0.180112
-0.212665
-0.252686
-0.302374
-0.364178
-0.438003
-0.517694
-0.5634
-0.0844311
-0.096326
-0.109143
-0.123533
-0.140383
-0.160336
-0.183972
-0.212072
-0.245751
-0.286491
-0.336131
-0.396191
-0.465669
-0.535306
-0.573062
-0.105059
-0.117496
-0.131325
-0.147054
-0.165172
-0.186194
-0.210675
-0.239303
-0.273022
-0.313043
-0.36075
-0.416754
-0.478506
-0.535001
-0.566514
0.183833
0.198528
0.21497
0.233592
0.254451
0.27743
0.302423
0.329382
0.358229
0.388704
0.420208
0.451552
0.480716
0.503655
0.522453
0.181012
0.194813
0.210416
0.228331
0.248487
0.270606
0.294515
0.320159
0.347461
0.376122
0.405468
0.434208
0.460185
0.479408
0.494549
0.174049
0.186157
0.200321
0.216996
0.23585
0.256369
0.278266
0.301442
0.325775
0.350899
0.376028
0.399729
0.419602
0.431799
0.440318
0.162935
0.172778
0.185028
0.199896
0.216717
0.2348
0.253792
0.273532
0.293791
0.314039
0.333291
0.34989
0.361097
0.363074
0.362644
0.147733
0.15502
0.16528
0.178197
0.192525
0.207381
0.222453
0.237632
0.252634
0.266757
0.278751
0.286672
0.287382
0.276838
0.265007
0.128784
0.132956
0.141017
0.151854
0.163496
0.174854
0.185608
0.195637
0.204566
0.211539
0.215093
0.213016
0.201769
0.177091
0.151855
0.106495
0.108334
0.114415
0.122472
0.130489
0.137623
0.143627
0.148232
0.150801
0.150227
0.144813
0.132081
0.108142
0.0687281
0.0296728
0.0803156
0.0811846
0.0864363
0.0917725
0.0957315
0.0980698
0.0988015
0.0975513
0.0934258
0.0850604
0.0705195
0.04705
0.0103441
-0.0435831
-0.0952356
0.0246866
0.0290975
0.0254245
0.0293208
0.0268785
0.0311416
0.0293682
0.0337577
0.0330452
0.0375315
0.0382674
0.0430034
0.0455229
0.0511062
0.0557488
0.0629941
0.0704024
0.0803577
0.091393
0.105337
0.12126
0.140831
0.163332
0.0247167
0.0290937
0.025465
0.0293183
0.026935
0.0311443
0.0294433
0.033773
0.0331321
0.0375905
0.0383863
0.0430815
0.0456957
0.0513252
0.0558951
0.0632154
0.0705487
0.0804543
0.0913349
0.105189
0.120659
0.139891
0.161579
0.0247569
0.0290647
0.0255247
0.0292856
0.0270178
0.0311112
0.0295505
0.0337505
0.0332636
0.0376066
0.0385458
0.0430834
0.045855
0.0513696
0.0559785
0.0632651
0.0704743
0.0803286
0.0907874
0.104332
0.118946
0.137292
0.157018
0.0248057
0.0290121
0.0255987
0.0292264
0.0271202
0.0310506
0.029683
0.0336969
0.0334133
0.0376057
0.0387153
0.0431421
0.046081
0.0515405
0.0561287
0.0635147
0.0703387
0.0801621
0.0898943
0.102909
0.116043
0.132815
0.149442
0.0248632
0.0289389
0.0256881
0.0291449
0.0272396
0.0309673
0.0298346
0.0336144
0.0335774
0.0375676
0.0388837
0.0430295
0.0462138
0.0514383
0.0560653
0.0632447
0.0697555
0.0791994
0.0882131
0.100317
0.111724
0.126284
0.138619
0.024921
0.0288473
0.0257834
0.0290467
0.0273688
0.0308714
0.0300014
0.033531
0.0337675
0.0375736
0.039106
0.0432318
0.0465308
0.0516628
0.0562613
0.0635875
0.0695023
0.0788874
0.0866187
0.0977322
0.106437
0.118118
0.125143
0.0249879
0.0287404
0.0258848
0.0289384
0.0275025
0.0307604
0.0301643
0.0334185
0.0339166
0.0374929
0.0392201
0.0429527
0.0465927
0.0514585
0.0559336
0.0627141
0.0683648
0.0768413
0.0837436
0.0931038
0.0996625
0.107349
0.108673
0.0250524
0.0286261
0.0259839
0.0288289
0.027644
0.0306741
0.0303503
0.0333927
0.0341664
0.0375835
0.0395684
0.0435587
0.0470368
0.0520385
0.0563909
0.0634191
0.0683071
0.0768048
0.081628
0.0897074
0.0917827
0.0953802
0.0882551
0.0251325
0.028466
0.0261148
0.02865
0.0277914
0.0304732
0.0305122
0.0331255
0.0342223
0.0374307
0.0395118
0.0429875
0.0466359
0.0508682
0.0552849
0.0609284
0.0654221
0.0714897
0.0752825
0.079216
0.0786715
0.0745775
0.0617121
0.0252394
0.0282354
0.0262816
0.0283971
0.0279545
0.030129
0.0306219
0.0327131
0.0341393
0.0366264
0.039022
0.0420091
0.0455136
0.0489084
0.0529266
0.0570837
0.0606908
0.0641392
0.066288
0.0661393
0.0634736
0.0560859
0.0455277
0.0253749
0.0279368
0.0264768
0.0280774
0.0281409
0.029707
0.0307383
0.0322555
0.0339825
0.0360977
0.0384787
0.0409205
0.0441589
0.0467937
0.0502168
0.0529871
0.0554959
0.0568534
0.0572133
0.0549238
0.050484
0.0427065
0.0325334
0.0255402
0.027561
0.026703
0.027708
0.0283083
0.0293278
0.0307168
0.0318438
0.0337194
0.0353584
0.0377236
0.0396979
0.0424605
0.0444821
0.047043
0.0486642
0.0499839
0.049799
0.0486196
0.0451699
0.0397252
0.0319644
0.0222379
0.0257396
0.0271005
0.0269155
0.0273934
0.0283751
0.0289988
0.0305844
0.0314327
0.0332942
0.0346198
0.0367265
0.038339
0.0404521
0.0419647
0.0435867
0.0441896
0.044443
0.0431489
0.0408452
0.0368201
0.0310947
0.0236954
0.0146931
0.0259677
0.026629
0.0270298
0.0271359
0.0283599
0.028694
0.0303218
0.0309977
0.0327012
0.033782
0.0355294
0.0368121
0.0382331
0.039232
0.040001
0.0397148
0.0391007
0.0371103
0.0341749
0.0299169
0.0243707
0.0175224
0.00937572
0.0261762
0.0261919
0.0270443
0.0269246
0.0282426
0.0284083
0.0299262
0.0305294
0.0319423
0.0328362
0.034178
0.0350974
0.0358865
0.036358
0.0364116
0.0354561
0.0341952
0.0318328
0.0286464
0.0244144
0.0192823
0.013162
0.00600757
0.0263425
0.0258065
0.0269629
0.0267436
0.0280133
0.0281245
0.0294066
0.0299849
0.0310574
0.0317608
0.0327021
0.0332281
0.0334802
0.0334731
0.032959
0.0315683
0.0298866
0.0273692
0.024204
0.0202254
0.0156363
0.0103421
0.00424162
0.0264403
0.025493
0.0267734
0.0265793
0.0276779
0.0278296
0.0287966
0.0293418
0.0300765
0.0305564
0.0311335
0.0312726
0.0310874
0.0306927
0.0297776
0.0281386
0.026235
0.0237395
0.0207789
0.0172094
0.0132256
0.00876064
0.00368229
0.0264513
0.0252611
0.0264767
0.0264097
0.027254
0.0274606
0.0281265
0.0285863
0.0290225
0.0292558
0.0295116
0.029312
0.0287899
0.0281146
0.0269513
0.0252122
0.0232588
0.0209156
0.0182602
0.0151697
0.0118036
0.00811596
0.00396634
0.0263628
0.0251077
0.0260927
0.0261999
0.0267813
0.0270065
0.0274146
0.0277307
0.0279143
0.0279006
0.0278821
0.027422
0.0266666
0.025805
0.0245223
0.0228018
0.0209273
0.0188144
0.0165065
0.0139028
0.0111231
0.0081301
0.00478983
0.026171
0.0250144
0.0256541
0.0258947
0.026285
0.0264701
0.0266683
0.0268053
0.0267761
0.0265487
0.0263018
0.0256674
0.0247681
0.0238039
0.0225062
0.0208863
0.0191701
0.0173238
0.0153676
0.013218
0.0109603
0.00856087
0.00589669
0.0258827
0.0249501
0.0252232
0.0254645
0.025753
0.0258676
0.0258937
0.0258478
0.0256422
0.0252512
0.0248267
0.0240849
0.0231211
0.0221269
0.0208868
0.0194172
0.0178992
0.0163244
0.0146971
0.0129481
0.011134
0.00922408
0.00710901
0.0255174
0.0248488
0.0248411
0.0249596
0.0251666
0.0251978
0.0250939
0.0248961
0.0245507
0.0240449
0.0234935
0.0227001
0.0217355
0.0207639
0.0196255
0.0183329
0.0170244
0.0157038
0.0143678
0.0129596
0.0115144
0.0100042
0.00833514
0.0251012
0.0246463
0.0244937
0.0244741
0.0245444
0.0244788
0.0242801
0.023971
0.0235279
0.0229514
0.0223244
0.0215233
0.0206015
0.0196889
0.018674
0.0175637
0.0164566
0.015362
0.0142742
0.0131486
0.0120046
0.0108166
0.00950613
0.0246621
0.0243513
0.0241479
0.0240041
0.0239181
0.0237509
0.0234751
0.0230894
0.0225877
0.0219808
0.0213268
0.0205529
0.0197014
0.0188693
0.0179812
0.0170404
0.0161145
0.015212
0.0143277
0.0134284
0.0125236
0.0115909
0.0105665
0.0242187
0.0239905
0.023767
0.0235368
0.0233174
0.0230523
0.0227088
0.0222734
0.0217446
0.0211393
0.0204974
0.0197774
0.0190124
0.018271
0.0175025
0.0167089
0.0159353
0.0151881
0.0144629
0.0137379
0.0130183
0.0122851
0.0114897
0.0237813
0.0235934
0.0233543
0.02307
0.0227589
0.0224116
0.0220114
0.0215432
0.0210079
0.0204228
0.0198164
0.0191667
0.0184959
0.0178494
0.0171913
0.0165218
0.0158702
0.0152422
0.0146364
0.0140415
0.013461
0.0128817
0.012267
0.0233586
0.0231875
0.0229341
0.0226158
0.0222494
0.0218457
0.0214041
0.0209176
0.0203899
0.0198359
0.0192756
0.0186978
0.0181139
0.0175491
0.0169813
0.0164114
0.015858
0.0153253
0.0148143
0.01432
0.0138463
0.0133842
0.012908
0.0229642
0.0227989
0.0225343
0.0221951
0.0217982
0.0213623
0.0208975
0.0204065
0.0198956
0.0193767
0.0188623
0.018346
0.0178318
0.0173333
0.0168385
0.0163485
0.0158745
0.0154195
0.0149849
0.0145697
0.0141769
0.0138014
0.013427
0.0226193
0.0224565
0.0221855
0.0218348
0.021424
0.0209737
0.0204997
0.0200114
0.0195174
0.0190277
0.0185492
0.0180781
0.017616
0.0171703
0.0167353
0.0163115
0.0159048
0.0155167
0.0151469
0.0147941
0.0144604
0.0141456
0.0138435
0.02235
0.0221872
0.0219143
0.0215605
0.0211468
0.0206946
0.0202218
0.019742
0.0192646
0.0187968
0.0183428
0.0179019
0.0174754
0.0170668
0.0166736
0.0162949
0.0159328
0.0155886
0.015263
0.0149558
0.0146678
0.0143997
0.0141494
0.0222043
0.022044
0.0217675
0.0214071
0.0209877
0.0205314
0.0200565
0.0195771
0.0191047
0.0186476
0.0182103
0.0177927
0.0173932
0.0170112
0.0166455
0.0162949
0.0159606
0.015645
0.0153498
0.0150762
0.0148247
0.0145958
0.0143897
0.0453518
0.0249843
0.00229013
-0.0174361
-0.0371811
-0.0566531
-0.0757476
-0.0918626
0.0340761
0.0158572
-0.00694529
-0.025668
-0.0403457
-0.0537942
-0.0670481
-0.0780357
0.0235403
0.00927784
-0.0101875
-0.0258145
-0.035956
-0.0450653
-0.054589
-0.0633314
0.0139005
0.00287485
-0.0122152
-0.0246142
-0.032382
-0.039029
-0.0456105
-0.0516111
0.0067048
-0.00221988
-0.0126371
-0.0213828
-0.0272031
-0.032032
-0.0365047
-0.0406498
0.0019893
-0.00513417
-0.0119924
-0.0177605
-0.0220281
-0.0256714
-0.0288621
-0.0316572
-0.000552004
-0.00610031
-0.0104152
-0.0139731
-0.0169335
-0.01963
-0.0219129
-0.0237829
-0.00139424
-0.00563176
-0.00819979
-0.0102186
-0.0121523
-0.0140832
-0.0156979
-0.0169049
-0.00102755
-0.00421691
-0.00563091
-0.00662384
-0.00779693
-0.00913454
-0.0102836
-0.01109
0.000119677
-0.00225171
-0.00293247
-0.00327525
-0.00390907
-0.00479398
-0.0055994
-0.00613775
0.00170874
-3.40736e-05
-0.000269667
-0.000225673
-0.000496471
-0.00104772
-0.00160139
-0.00196952
0.00346265
0.00219105
0.00220794
0.00247541
0.00244995
0.00213293
0.00174812
0.00147365
0.0051996
0.00427179
0.00441541
0.00479758
0.00493978
0.00479391
0.00452897
0.00430852
0.00684973
0.00617572
0.00637151
0.00677845
0.0069988
0.00696312
0.00678597
0.00660229
0.00835834
0.00786773
0.00806442
0.00843776
0.0086722
0.00869646
0.00858
0.00842474
0.00968884
0.00933245
0.00950272
0.00981361
0.010024
0.0100688
0.00998714
0.00985194
0.0108269
0.0105685
0.0107002
0.0109374
0.0111025
0.0111408
0.0110731
0.0109499
0.0117722
0.0115844
0.0116753
0.0118399
0.0119523
0.0119698
0.011903
0.0117865
0.0125391
0.0123988
0.0124507
0.0125506
0.0126113
0.0126021
0.0125285
0.0124144
0.0131471
0.0130341
0.0130482
0.0130914
0.0131058
0.0130696
0.0129868
0.0128738
0.0136221
0.0135175
0.0134906
0.0134811
0.0134529
0.0133923
0.0133014
0.0131907
0.013964
0.0138557
0.0137876
0.0137296
0.0136636
0.0135823
0.0134861
0.0133803
0.0142256
0.0140958
0.0139725
0.0138588
0.0137534
0.0136532
0.0135548
0.0134566
-0.57857
-0.586043
-0.596637
-0.611868
-0.632147
-0.65622
-0.679455
-0.695777
-0.575801
-0.5815
-0.590424
-0.603111
-0.618833
-0.636635
-0.654119
-0.665611
-0.574846
-0.577757
-0.58352
-0.592184
-0.602644
-0.612362
-0.617704
-0.614681
-0.575655
-0.574176
-0.574517
-0.575889
-0.576933
-0.575448
-0.568624
-0.553885
-0.576452
-0.568341
-0.560311
-0.551951
-0.542775
-0.531697
-0.516614
-0.495179
-0.572966
-0.55626
-0.538886
-0.521576
-0.50479
-0.487579
-0.467738
-0.442751
-0.560464
-0.53521
-0.510187
-0.487026
-0.466034
-0.445656
-0.423429
-0.396871
-0.536035
-0.5047
-0.475646
-0.450276
-0.42791
-0.406455
-0.383446
-0.356569
-0.499713
-0.466468
-0.437453
-0.412805
-0.391014
-0.369885
-0.347174
-0.320841
-0.454339
-0.423577
-0.397733
-0.375649
-0.355659
-0.335767
-0.314122
-0.288934
-0.404118
-0.378969
-0.358047
-0.339533
-0.322014
-0.303975
-0.283886
-0.260278
-0.352647
-0.334799
-0.31952
-0.304913
-0.290229
-0.274363
-0.256175
-0.234432