/*--------------------------------*- C++ -*----------------------------------*\
| =========                 |                                                 |
| \\      /  F ield         | OpenFOAM: The Open Source CFD Toolbox           |
|  \\    /   O peration     | Version:  2312                                  |
|   \\  /    A nd           | Website:  www.openfoam.com                      |
|    \\/     M anipulation  |                                                 |
\*---------------------------------------------------------------------------*/
FoamFile
{
    version     2.0;
    format      ascii;
    arch        "LSB;label=32;scalar=64";
    class       volVectorField;
    location    "120.1";
    object      U;
}
// * * * * * * * * * * * * * * * * * * * * * * * * * * * * * * * * * * * * * //

dimensions      [0 1 -1 0 0 0 0];

internalField   nonuniform List<vector> 
5478
(
(-0.0270407 0.0224772 -9.63551e-20)
(-0.0326016 0.025976 0)
(0.000150912 0.0123054 1.49527e-19)
(0.0841887 -0.00624228 -2.63098e-19)
(0.228381 -0.0244673 1.72809e-19)
(0.421313 -0.0367969 -5.26817e-20)
(0.633006 -0.0409492 -8.67241e-20)
(0.831412 -0.0376499 0)
(0.993551 -0.0278297 0)
(1.10779 -0.0161897 8.42393e-20)
(1.18115 -0.00268309 -4.42593e-20)
(1.20622 0.0102303 -5.81611e-20)
(1.21288 0.0165354 -2.07313e-20)
(1.1967 0.0293647 0)
(1.16655 0.025154 4.43614e-20)
(-0.0270058 0.0200254 1.93272e-19)
(-0.0150656 0.0222762 0)
(0.0627284 0.00977401 0)
(0.219189 -0.00364945 -1.30567e-19)
(0.444874 -0.00869867 1.726e-19)
(0.694737 -0.0035748 4.94102e-20)
(0.919149 0.00752888 -7.92493e-20)
(1.08745 0.0199039 7.02697e-20)
(1.18964 0.0294065 1.5665e-19)
(1.23622 0.035143 -1.34378e-19)
(1.23703 0.0379773 9.02226e-22)
(1.2186 0.036939 0)
(1.19311 0.0371695 2.06946e-20)
(1.16662 0.0376902 0)
(1.15953 0.0320554 0)
(-0.0229795 0.0137171 -4.3694e-22)
(0.0213338 0.00874489 -8.84865e-20)
(0.168574 -0.000267379 6.08757e-23)
(0.417241 0.00303301 0)
(0.705901 0.021136 -5.58947e-20)
(0.958115 0.0441413 4.69047e-20)
(1.13262 0.0625764 3.87308e-20)
(1.22438 0.0718182 0)
(1.25312 0.0727119 -5.32143e-20)
(1.2427 0.0688307 4.24129e-20)
(1.22141 0.0630342 3.35299e-20)
(1.20166 0.0598785 0)
(1.18774 0.0571463 0)
(1.18338 0.0576883 -6.08521e-20)
(1.17937 0.0545621 5.41881e-20)
(-0.0127569 0.00651391 -1.02231e-19)
(0.0887218 -0.00610433 8.75933e-20)
(0.335282 0.000209663 -7.59113e-20)
(0.663069 0.0322963 6.561e-20)
(0.952673 0.0704111 1.10866e-19)
(1.14318 0.0977738 -9.23431e-20)
(1.23508 0.109279 -3.87063e-20)
(1.25989 0.108437 2.87498e-20)
(1.25155 0.101872 -2.80375e-20)
(1.23646 0.0941757 0)
(1.22235 0.0892209 0)
(1.2094 0.0838021 -4.77658e-20)
(1.19767 0.0810923 6.0819e-20)
(1.18124 0.0759095 -3.37632e-20)
(1.16363 0.0693275 0)
(0.00826349 -0.000965994 5.15508e-20)
(0.199766 -0.0127521 4.35468e-20)
(0.552922 0.0270133 -1.5503e-19)
(0.897837 0.0843014 1.52221e-21)
(1.12475 0.125336 -2.321e-21)
(1.23275 0.143056 -1.10919e-21)
(1.26478 0.144165 3.56048e-20)
(1.26216 0.137805 3.00975e-20)
(1.24952 0.12953 2.0799e-20)
(1.23321 0.122048 -4.01358e-21)
(1.21499 0.11382 -4.67979e-20)
(1.19694 0.106773 0)
(1.17913 0.0998347 1.96092e-20)
(1.16635 0.0923934 -1.39452e-20)
(1.16002 0.0889624 2.56415e-20)
(0.0462912 -0.00729206 -1.08568e-19)
(0.357499 0.0016126 1.17714e-19)
(0.773479 0.0798455 -4.00072e-20)
(1.07078 0.144306 3.06036e-20)
(1.21827 0.174886 -5.59625e-20)
(1.26775 0.181416 -4.14183e-20)
(1.27089 0.176431 1.0459e-21)
(1.25713 0.167196 0)
(1.23761 0.156939 4.26371e-20)
(1.21792 0.146067 -3.79159e-20)
(1.20092 0.136621 1.47355e-20)
(1.18685 0.127621 0)
(1.17655 0.120212 8.74705e-21)
(1.16643 0.112168 -1.48398e-20)
(1.15243 0.107052 0)
(0.106122 -0.00737231 -1.3481e-20)
(0.540732 0.0461954 9.50361e-22)
(0.951978 0.146838 1.98356e-20)
(1.17801 0.203881 3.28571e-20)
(1.26256 0.221497 -2.49119e-20)
(1.27553 0.21884 4.18306e-20)
(1.26148 0.208324 -9.53196e-21)
(1.24076 0.195629 0)
(1.22143 0.182733 -2.49673e-20)
(1.20466 0.171054 1.86314e-21)
(1.18934 0.159714 2.04654e-20)
(1.17507 0.149394 0)
(1.16052 0.139298 -1.27589e-20)
(1.14708 0.129496 0)
(1.13766 0.124057 7.46953e-21)
(0.186621 0.00582409 -1.45805e-20)
(0.711154 0.116017 0)
(1.07771 0.220087 2.02598e-20)
(1.23567 0.26297 0)
(1.27374 0.267043 0)
(1.26432 0.255606 0)
(1.24312 0.240249 -8.02484e-21)
(1.22215 0.224568 0)
(1.20282 0.209584 5.041e-21)
(1.18494 0.194913 0)
(1.16919 0.181352 -6.35383e-21)
(1.15597 0.168568 0)
(1.14616 0.157083 4.00738e-21)
(1.13784 0.146597 0)
(1.12703 0.139443 2.51661e-21)
(0.00743056 -0.185434 -1.26401e-20)
(-0.00425728 -0.341005 0)
(-0.0441222 -0.387357 1.98051e-20)
(-0.0884533 -0.398812 0)
(-0.131093 -0.406201 0)
(-0.169162 -0.41038 0)
(-0.199813 -0.403763 -1.33133e-20)
(-0.22059 -0.380151 0)
(-0.229848 -0.33567 1.12621e-20)
(-0.227072 -0.268561 0)
(-0.212781 -0.179444 -1.86285e-20)
(-0.187977 -0.0692974 0)
(-0.15387 0.05859 1.45217e-20)
(-0.112629 0.198778 0)
(-0.05861 0.344667 1.03225e-20)
(0.0153778 -0.163752 6.19376e-20)
(0.00162369 -0.293347 -4.33532e-20)
(-0.0477831 -0.328886 1.80971e-20)
(-0.102155 -0.337132 6.83208e-20)
(-0.155204 -0.345924 6.24726e-22)
(-0.205687 -0.355596 -5.59215e-20)
(-0.251752 -0.35885 3.83564e-20)
(-0.291122 -0.349613 0)
(-0.321397 -0.32353 3.08668e-20)
(-0.340804 -0.277769 1.88428e-22)
(-0.347888 -0.211444 -1.48995e-20)
(-0.340768 -0.12531 0)
(-0.319696 -0.0206724 -3.55754e-20)
(-0.284004 0.100121 0)
(-0.23437 0.226176 -4.27862e-20)
(0.0194912 -0.131326 9.4421e-20)
(0.00513058 -0.234716 2.09951e-20)
(-0.0471239 -0.263028 -3.78211e-20)
(-0.102737 -0.269396 -9.96481e-20)
(-0.154938 -0.278338 5.82997e-20)
(-0.203265 -0.290837 5.25206e-20)
(-0.246796 -0.30059 -9.18356e-20)
(-0.284083 -0.302064 0)
(-0.313213 -0.291066 -7.13317e-20)
(-0.33282 -0.264637 6.34255e-20)
(-0.34211 -0.221485 2.38645e-20)
(-0.336695 -0.163507 0)
(-0.31051 -0.0946536 2.10495e-20)
(-0.285379 -0.000345468 -2.15746e-20)
(-0.208189 0.0874357 0)
(0.0182567 -0.0946882 4.52797e-20)
(0.00308421 -0.173494 -1.23174e-19)
(-0.0477262 -0.197544 1.44088e-19)
(-0.099031 -0.203881 -1.27004e-19)
(-0.143368 -0.213201 -5.61653e-20)
(-0.180107 -0.227511 4.95448e-20)
(-0.208485 -0.241771 4.52869e-20)
(-0.227531 -0.251018 3.71566e-20)
(-0.235904 -0.251232 -9.34971e-20)
(-0.232161 -0.239262 4.66202e-21)
(-0.218862 -0.212856 2.13282e-20)
(-0.20361 -0.173326 0)
(-0.131193 -0.132076 2.05887e-20)
(-0.125392 -0.0543964 4.92387e-20)
(0.00596858 -0.0152358 -2.47534e-20)
(0.0112489 -0.0584266 -3.62973e-22)
(-0.00613656 -0.114956 8.05127e-20)
(-0.053035 -0.137315 -7.12304e-20)
(-0.0967343 -0.14624 6.33887e-20)
(-0.12917 -0.157846 1.12003e-19)
(-0.148666 -0.174843 -9.85961e-20)
(-0.153758 -0.19337 -4.25e-20)
(-0.143548 -0.208989 -1.07398e-19)
(-0.118563 -0.217925 9.35521e-20)
(-0.0788538 -0.216029 0)
(-0.0190622 -0.196935 0)
(0.0157005 -0.177583 4.79603e-20)
(0.148274 -0.14898 -9.42712e-20)
(0.14458 -0.0782116 2.76e-20)
(0.347248 -0.0446193 0)
(-0.000327013 -0.0255301 -5.10243e-22)
(-0.0203246 -0.0619258 -8.13254e-20)
(-0.059545 -0.0835516 2.13955e-19)
(-0.0900223 -0.0965334 -6.30593e-20)
(-0.102586 -0.111906 -5.58701e-20)
(-0.093263 -0.13243 4.90794e-20)
(-0.0598307 -0.154854 4.25162e-20)
(-0.00290378 -0.174813 6.893e-20)
(0.0740315 -0.188378 -1.19763e-19)
(0.163615 -0.191231 4.60376e-20)
(0.267969 -0.175908 3.47855e-20)
(0.349399 -0.159819 0)
(0.513099 -0.12594 0)
(0.528254 -0.0875909 3.67914e-20)
(0.74102 -0.0391761 -3.2754e-20)
(-0.0131005 0.000821388 9.7327e-22)
(-0.0331836 -0.0174018 0)
(-0.0569932 -0.0372209 0)
(-0.0625825 -0.053761 1.28734e-19)
(-0.0396241 -0.0727949 -5.63654e-20)
(0.0177685 -0.0958571 5.00372e-20)
(0.109445 -0.118749 8.35711e-20)
(0.228065 -0.13686 -7.4101e-20)
(0.363632 -0.146665 5.85983e-20)
(0.502321 -0.142998 -4.60671e-20)
(0.632386 -0.129407 1.68344e-22)
(0.75747 -0.107304 0)
(0.873687 -0.0736121 1.89735e-20)
(0.94509 -0.0456941 0)
(1.07083 -0.00067452 0)
(-0.022633 0.017065 -9.24781e-20)
(-0.0381104 0.01318 0)
(-0.0378001 -0.00342773 -1.48027e-19)
(-0.00535082 -0.0219474 2.61175e-19)
(0.0699811 -0.0432852 -2.87424e-19)
(0.191365 -0.0649632 -4.77396e-20)
(0.349633 -0.082007 8.76402e-20)
(0.524553 -0.0912346 0)
(0.697208 -0.0911118 0)
(0.848435 -0.0798288 -8.54762e-20)
(0.972429 -0.0654062 -2.40805e-20)
(1.07302 -0.0392481 5.80393e-20)
(1.12745 -0.0206379 -1.9004e-20)
(1.18248 0.00472259 0)
(1.19299 0.0246757 -3.99292e-20)
(0.051225 0.557211 0)
(0.170509 0.754564 3.22002e-21)
(0.107957 0.880936 -2.97892e-21)
(0.13715 0.760609 0)
(0.436755 0.275541 0)
(0.719579 -0.25943 -1.53771e-22)
(0.799819 -0.543453 0)
(0.864081 -0.576415 0)
(0.850572 -0.57441 5.41449e-23)
(0.729568 -0.579376 0)
(0.628753 -0.543252 0)
(0.744126 -0.170819 -7.41984e-23)
(0.859674 0.104108 0)
(0.924294 0.318993 -9.05383e-23)
(0.937104 0.575638 -8.14307e-23)
(0.948767 0.497019 0)
(0.95626 0.464618 -4.86932e-22)
(1.00066 0.110976 5.86026e-22)
(1.01022 -0.305356 0)
(1.0795 -0.433311 4.61123e-22)
(1.06282 -0.599568 -5.51043e-22)
(1.08185 -0.218106 9.3256e-23)
(1.08137 0.307954 -2.22233e-22)
(1.06876 0.398377 2.12349e-22)
(1.14403 0.558772 -2.15645e-22)
(1.19686 0.0798636 0)
(1.02909 -0.723874 -2.07491e-22)
(1.10964 -0.283689 1.98399e-22)
(1.09633 0.37911 -1.31513e-22)
(0.98654 0.250143 0)
(1.01059 -0.0953419 -1.06152e-22)
(0.956741 -0.119509 0)
(0.969928 0.0206995 -3.05706e-23)
(0.986897 0.044035 -1.62304e-23)
(0.951744 -0.00519242 1.45513e-24)
(0.962736 -0.0111083 -9.56486e-24)
(0.966235 0.0021426 0)
(0.934048 0.00685422 2.36733e-24)
(-0.154386 0.445789 1.4944e-20)
(-0.00168345 0.718956 -9.76181e-23)
(0.0215529 0.847333 -1.08199e-20)
(0.26206 0.618824 1.0318e-20)
(0.609798 0.112386 0)
(0.872574 -0.351158 1.54958e-22)
(0.923323 -0.588211 -2.28036e-22)
(0.942789 -0.592771 0)
(0.900679 -0.549214 -5.45472e-23)
(0.794958 -0.534268 0)
(0.704263 -0.544585 0)
(0.757835 -0.220155 7.47259e-23)
(0.858024 0.0621809 0)
(0.893384 0.286449 2.86644e-21)
(0.921085 0.554239 -2.41012e-21)
(0.905264 0.490861 1.84602e-21)
(0.927789 0.455495 -1.7621e-21)
(1.01361 0.108987 -1.21865e-22)
(1.01652 -0.312812 0)
(1.10917 -0.443876 0)
(1.07615 -0.599091 -1.07547e-22)
(1.06732 -0.221662 1.15388e-21)
(1.08303 0.303216 -1.92294e-21)
(1.03496 0.382021 8.89134e-22)
(1.1338 0.542511 6.11933e-22)
(1.22171 0.0971749 0)
(1.02825 -0.709646 4.51416e-22)
(1.09652 -0.295219 0)
(1.08619 0.383954 1.31979e-22)
(0.994493 0.255379 -2.55291e-22)
(1.02617 -0.0919054 4.50789e-22)
(0.961155 -0.117298 -3.793e-23)
(0.969856 0.0182045 6.10451e-23)
(0.994605 0.0451956 3.49528e-24)
(0.958219 -0.00344481 1.76028e-23)
(0.963045 -0.0119207 -8.32538e-24)
(0.969537 0.00364766 -7.52946e-25)
(0.939633 0.00860884 8.02208e-25)
(-0.1694 0.311001 1.40155e-20)
(0.00559123 0.606267 -2.85384e-20)
(0.134827 0.730083 -5.59978e-21)
(0.460246 0.475507 1.93435e-20)
(0.800308 -0.00484772 3.91655e-22)
(1.02908 -0.399493 -3.35801e-22)
(1.03721 -0.595544 2.31938e-22)
(1.00432 -0.581091 -2.98812e-22)
(0.943164 -0.511031 0)
(0.84166 -0.492575 5.5107e-21)
(0.782003 -0.545704 -5.25636e-21)
(0.800214 -0.272324 -1.20181e-22)
(0.869222 0.031254 0)
(0.85879 0.278574 -5.40322e-21)
(0.902293 0.551079 4.99642e-21)
(0.863583 0.493274 -1.75731e-21)
(0.900121 0.440857 1.67678e-21)
(1.02195 0.111668 2.18388e-21)
(1.0244 -0.308912 -1.88342e-21)
(1.1281 -0.448014 0)
(1.07747 -0.593804 0)
(1.04349 -0.232183 2.25798e-21)
(1.08044 0.300323 -2.15597e-21)
(1.00174 0.371954 -1.55843e-21)
(1.11386 0.524026 -8.04338e-23)
(1.23491 0.120458 1.46024e-21)
(1.02215 -0.682452 -5.50981e-23)
(1.07539 -0.308773 -7.04475e-22)
(1.07249 0.386518 1.48183e-21)
(0.99856 0.262236 -1.11372e-21)
(1.03813 -0.0851337 4.96125e-23)
(0.963461 -0.113325 -1.43774e-22)
(0.966496 0.0152767 4.94924e-23)
(0.999402 0.0458643 -4.73215e-23)
(0.962506 -0.00102172 -1.12587e-23)
(0.960688 -0.0124631 -5.97817e-24)
(0.970257 0.00479492 1.95434e-23)
(0.943352 0.0102053 2.59647e-24)
(0.00946589 0.15511 0)
(0.167486 0.426526 8.5433e-21)
(0.352415 0.575882 -8.40839e-21)
(0.665974 0.355845 0)
(0.982785 -0.0902142 -4.0253e-22)
(1.16487 -0.42072 3.45008e-22)
(1.13102 -0.574109 0)
(1.04173 -0.565632 6.34663e-24)
(0.982628 -0.479227 -2.17612e-22)
(0.883718 -0.454173 0)
(0.821655 -0.55048 -4.6119e-21)
(0.850637 -0.319433 4.52088e-21)
(0.912786 -0.000261947 -3.04613e-22)
(0.852578 0.243626 -5.33452e-21)
(0.873288 0.527952 5.08748e-21)
(0.80865 0.495487 2.18566e-22)
(0.863625 0.427005 0)
(1.02088 0.115751 -2.14643e-22)
(1.03542 -0.302293 3.88041e-21)
(1.13824 -0.450278 1.07539e-23)
(1.07127 -0.584586 7.6027e-22)
(1.01644 -0.248391 -3.49448e-21)
(1.07212 0.284063 -3.38424e-21)
(0.96586 0.353929 4.17515e-21)
(1.08309 0.499349 -3.65853e-22)
(1.23314 0.143657 0)
(1.01688 -0.654466 -4.06089e-22)
(1.04934 -0.325735 7.13731e-22)
(1.053 0.38069 -1.50383e-21)
(0.996058 0.265293 1.12976e-21)
(1.04568 -0.0783277 -1.72956e-22)
(0.963729 -0.108742 0)
(0.960268 0.0116563 -5.0553e-23)
(1.00133 0.0458375 9.77134e-23)
(0.964585 0.00191568 3.37947e-23)
(0.955956 -0.0127406 3.33547e-23)
(0.968566 0.00553552 -1.95572e-23)
(0.945279 0.0116019 1.23302e-25)
(0.329469 0.0509686 4.53636e-23)
(0.400664 0.256827 5.45507e-23)
(0.549083 0.419287 0)
(0.854256 0.248636 0)
(1.15475 -0.135149 0)
(1.27379 -0.400373 0)
(1.21825 -0.51322 1.2031e-20)
(1.07977 -0.528735 -2.02283e-20)
(1.01523 -0.452147 8.70372e-21)
(0.944536 -0.40483 0)
(0.837251 -0.54635 -4.76007e-21)
(0.883829 -0.391789 4.68826e-21)
(0.96509 -0.0336628 5.87212e-21)
(0.854303 0.240275 -4.93485e-21)
(0.85274 0.531327 4.29667e-21)
(0.778598 0.498821 -4.31942e-21)
(0.840045 0.402041 -1.76882e-22)
(1.01852 0.115704 -3.55645e-21)
(1.048 -0.288707 3.38785e-21)
(1.13655 -0.445007 4.13356e-22)
(1.05957 -0.572817 4.38688e-22)
(0.980179 -0.271082 4.54443e-21)
(1.05634 0.275609 -4.91498e-21)
(0.935554 0.347273 -7.5127e-22)
(1.05225 0.475787 -3.0321e-22)
(1.22171 0.170865 -2.44007e-22)
(1.0125 -0.620126 0)
(1.01944 -0.343463 0)
(1.03151 0.375293 0)
(0.990585 0.269858 0)
(1.05005 -0.0691422 4.48941e-22)
(0.962635 -0.102556 -2.60825e-22)
(0.951961 0.00790324 1.02805e-22)
(1.00067 0.0452528 -3.01989e-22)
(0.964576 0.00533804 3.30439e-23)
(0.949312 -0.012719 6.89035e-24)
(0.964792 0.00585919 -2.52507e-23)
(0.94559 0.0127703 -6.70134e-24)
(0.739099 0.0118245 -4.7706e-23)
(0.716527 0.141199 5.05389e-21)
(0.767314 0.279397 -4.82183e-21)
(1.04888 0.15225 -3.47805e-20)
(1.30707 -0.153752 3.3109e-20)
(1.34563 -0.361617 3.24202e-20)
(1.27196 -0.442905 -3.01804e-20)
(1.12329 -0.47821 2.90786e-22)
(1.02755 -0.436886 -2.28862e-22)
(1.00711 -0.356954 0)
(0.868945 -0.509 -1.67162e-22)
(0.864409 -0.456362 1.09383e-20)
(0.990186 -0.0778209 -1.04162e-20)
(0.863461 0.205247 -3.76773e-22)
(0.820753 0.504603 0)
(0.726074 0.510106 -3.52555e-21)
(0.806293 0.396114 6.38802e-21)
(1.01003 0.126646 -2.7214e-21)
(1.06277 -0.270722 0)
(1.12947 -0.434255 3.05016e-21)
(1.04865 -0.558042 8.09793e-22)
(0.942854 -0.296464 -4.35233e-21)
(1.03209 0.245087 -4.8468e-21)
(0.902622 0.330432 4.37654e-21)
(1.0159 0.451007 -2.14455e-21)
(1.20044 0.19789 3.17869e-23)
(1.00859 -0.584484 2.20083e-21)
(0.989734 -0.362762 -2.85772e-21)
(1.00719 0.35821 2.71865e-21)
(0.979641 0.271055 -3.9668e-22)
(1.05043 -0.0605523 3.77122e-22)
(0.960299 -0.0959139 0)
(0.942257 0.00366764 1.04335e-22)
(0.997684 0.043922 -1.45126e-23)
(0.962668 0.00911384 0)
(0.941328 -0.0124351 -3.3767e-23)
(0.959385 0.00575223 1.70405e-23)
(0.944544 0.0136865 -2.13782e-24)
(1.078 0.019326 0)
(1.03966 0.0839148 0)
(1.03866 0.185086 -3.47744e-23)
(1.24404 0.0863256 0)
(1.40938 -0.131544 0)
(1.37259 -0.297547 2.89591e-20)
(1.27816 -0.372182 -2.76059e-20)
(1.1595 -0.418476 1.72736e-20)
(1.0329 -0.428338 -1.64777e-20)
(1.03498 -0.329484 0)
(0.933753 -0.445128 -1.45249e-22)
(0.827868 -0.521217 1.70878e-22)
(0.994542 -0.149457 -1.34469e-20)
(0.873556 0.203016 3.91313e-22)
(0.789042 0.526274 1.16123e-20)
(0.710502 0.51325 1.16501e-22)
(0.805154 0.364263 -9.06788e-23)
(1.00972 0.119769 6.51229e-21)
(1.07704 -0.254209 -6.37363e-21)
(1.12225 -0.414425 0)
(1.03892 -0.53876 0)
(0.902436 -0.325635 -3.53249e-22)
(1.00411 0.229403 0)
(0.872903 0.325377 2.86941e-21)
(0.989527 0.430507 -3.42475e-22)
(1.18117 0.223671 -1.92856e-21)
(1.00309 -0.543057 -2.8855e-21)
(0.961578 -0.38227 1.95207e-21)
(0.98308 0.346277 -3.05371e-22)
(0.967465 0.272807 0)
(1.04873 -0.0515493 -2.44598e-22)
(0.957834 -0.0884263 2.31904e-22)
(0.932248 7.06355e-05 6.00839e-23)
(0.99292 0.0422571 2.61137e-23)
(0.959247 0.0132214 -4.24357e-23)
(0.932713 -0.0118955 1.40791e-23)
(0.952893 0.00525568 0)
(0.942458 0.0143491 5.25159e-24)
(1.1999 0.0263798 2.44659e-20)
(1.18769 0.0523778 1.2768e-20)
(1.19947 0.10956 1.52947e-21)
(1.31181 0.0629831 -3.27742e-20)
(1.38864 -0.0644137 1.88467e-20)
(1.34221 -0.196918 -2.25472e-22)
(1.2665 -0.291355 0)
(1.19203 -0.350679 -1.52402e-22)
(1.05388 -0.40465 -1.20726e-22)
(1.04124 -0.32417 0)
(0.98632 -0.377524 -1.05933e-20)
(0.817732 -0.525951 1.00335e-20)
(0.935772 -0.245049 2.10332e-22)
(0.855836 0.127948 1.35997e-20)
(0.765471 0.481315 -1.28801e-20)
(0.6758 0.528778 1.22381e-22)
(0.774701 0.37913 9.59694e-23)
(0.999211 0.146817 0)
(1.08944 -0.219109 6.291e-21)
(1.12243 -0.392375 -5.96933e-21)
(1.02409 -0.511547 -4.5164e-21)
(0.872369 -0.355053 -1.19805e-21)
(0.961459 0.181888 5.52414e-21)
(0.844089 0.304587 -2.86204e-21)
(0.948873 0.404198 6.61333e-22)
(1.15751 0.25272 3.69791e-21)
(0.99924 -0.496735 -1.30236e-21)
(0.937559 -0.401667 3.21428e-21)
(0.956392 0.31983 -2.34995e-21)
(0.950857 0.27389 0)
(1.04439 -0.0408534 0)
(0.955863 -0.0800601 0)
(0.92294 -0.00438759 4.33984e-23)
(0.986746 0.0396734 -5.73374e-23)
(0.954761 0.0174052 4.17378e-23)
(0.924245 -0.0111918 -2.53406e-23)
(0.945876 0.00433979 -1.32526e-23)
(0.939674 0.0147369 0)
(1.16827 0.0342528 0)
(1.18391 0.040815 0)
(1.21687 0.0561913 0)
(1.26736 0.0274788 0)
(1.3124 -0.0546811 0)
(1.29358 -0.144149 0)
(1.23292 -0.220738 0)
(1.21336 -0.256787 0)
(1.08132 -0.338775 0)
(1.04434 -0.282262 0)
(1.03269 -0.30246 0)
(0.839453 -0.521337 0)
(0.849828 -0.326393 0)
(0.824875 0.110926 0)
(0.733198 0.511091 0)
(0.660048 0.529704 0)
(0.819233 0.320456 0)
(1.03096 0.11888 0)
(1.10461 -0.196497 0)
(1.13455 -0.362077 0)
(0.997696 -0.504938 0)
(0.846541 -0.381287 0)
(0.915029 0.162445 0)
(0.797531 0.303424 0)
(0.923777 0.380273 0)
(1.17913 0.281077 0)
(1.00267 -0.462659 0)
(0.913679 -0.412382 0)
(0.929721 0.303428 0)
(0.933015 0.272839 0)
(1.03956 -0.0349927 0)
(0.954645 -0.068641 0)
(0.913695 -0.00766598 0)
(0.97851 0.0372087 0)
(0.94876 0.022927 0)
(0.914866 -0.00988176 0)
(0.937138 0.00305952 0)
(0.935845 0.0150129 0)
(1.1702 0.0389277 0)
(1.17805 0.0232136 0)
(1.19807 0.029969 0)
(1.22558 -0.00995327 0)
(1.23774 -0.0705151 0)
(1.2428 -0.125694 0)
(1.18142 -0.224936 0)
(1.14321 -0.258793 0)
(1.06094 -0.296148 0)
(0.979858 -0.292793 0)
(0.946784 -0.305351 0)
(0.828544 -0.443805 0)
(0.781267 -0.245058 0)
(0.716948 0.174028 0)
(0.661905 0.553388 0)
(0.66822 0.497337 0)
(0.888568 0.236792 0)
(1.07215 0.0365199 0)
(1.13082 -0.24933 0)
(1.12033 -0.357379 0)
(0.919609 -0.426274 0)
(0.778474 -0.319539 0)
(0.847255 0.200175 0)
(0.705292 0.305254 0)
(0.898009 0.317448 0)
(1.18221 0.230028 0)
(0.997752 -0.438846 0)
(0.897938 -0.375976 0)
(0.89206 0.320483 0)
(0.907324 0.251879 0)
(1.03505 -0.041056 0)
(0.951869 -0.0542298 0)
(0.90151 -0.00863286 0)
(0.966104 0.0334308 0)
(0.940922 0.0286947 0)
(0.905973 -0.00862859 0)
(0.927821 0.000819453 0)
(0.931537 0.0148473 0)
(1.15693 0.0345223 0)
(1.16479 0.0156512 0)
(1.17739 0.00152576 0)
(1.19741 -0.0158022 0)
(1.18847 -0.0699358 0)
(1.19517 -0.1072 0)
(1.16339 -0.155725 0)
(1.11412 -0.188474 0)
(1.07202 -0.226644 0)
(1.01616 -0.205353 0)
(0.975692 -0.210178 0)
(0.849135 -0.385773 0)
(0.695749 -0.217423 0)
(0.587897 0.209357 0)
(0.612351 0.555934 0)
(0.768748 0.418371 0)
(0.992165 0.123648 0)
(1.11196 -0.00765258 0)
(1.14427 -0.20945 0)
(1.10707 -0.287863 0)
(0.883674 -0.371141 0)
(0.705208 -0.318354 0)
(0.750038 0.204808 0)
(0.633751 0.276333 0)
(0.868776 0.22915 0)
(1.18629 0.226117 0)
(1.02561 -0.380714 0)
(0.880237 -0.369126 0)
(0.857489 0.310085 0)
(0.889819 0.226706 0)
(1.03307 -0.0436003 0)
(0.94828 -0.0373464 0)
(0.891142 -0.0103307 0)
(0.954791 0.0280554 0)
(0.934262 0.0348559 0)
(0.900715 -0.00692962 0)
(0.921146 -0.00194407 0)
(0.928641 0.0142611 0)
(1.13781 0.0273511 0)
(1.15085 0.0107471 0)
(1.15491 -0.00502863 0)
(1.16207 -0.0286748 0)
(1.16044 -0.0639546 0)
(1.14552 -0.0919723 0)
(1.12366 -0.144016 0)
(1.08686 -0.166315 0)
(1.03748 -0.200358 0)
(0.979008 -0.21356 0)
(0.942139 -0.203179 0)
(0.873902 -0.277697 0)
(0.681743 -0.0821234 0)
(0.57935 0.228567 0)
(0.685478 0.442875 0)
(0.939391 0.288709 0)
(1.10219 0.0628302 0)
(1.1437 -0.0418139 0)
(1.13756 -0.233373 0)
(1.05835 -0.244865 0)
(0.867633 -0.26556 0)
(0.640291 -0.244828 0)
(0.623906 0.233906 0)
(0.61639 0.239228 0)
(0.84705 0.124582 0)
(1.16004 0.171628 0)
(1.05098 -0.33414 0)
(0.841687 -0.314653 0)
(0.792083 0.312032 0)
(0.874661 0.189786 0)
(1.03497 -0.0544652 0)
(0.945693 -0.0178091 0)
(0.884242 -0.0100238 0)
(0.94591 0.0226951 0)
(0.929301 0.0410354 0)
(0.900296 -0.00537607 0)
(0.918753 -0.00511928 0)
(0.928153 0.0133618 0)
(1.12047 0.0218654 0)
(1.12831 0.00618362 0)
(1.1342 -0.0107918 0)
(1.1346 -0.0287443 0)
(1.12905 -0.0584486 0)
(1.11673 -0.0761122 0)
(1.10112 -0.112436 0)
(1.06873 -0.123357 0)
(1.03887 -0.143783 0)
(0.995344 -0.14495 0)
(0.937645 -0.121176 0)
(0.878937 -0.194124 0)
(0.732631 -0.0188014 0)
(0.722037 0.192577 0)
(0.856692 0.312839 0)
(1.07834 0.175707 0)
(1.14323 0.00456983 0)
(1.14221 -0.0362649 0)
(1.13222 -0.172855 0)
(1.03607 -0.16739 0)
(0.91448 -0.17533 0)
(0.678585 -0.184024 0)
(0.584264 0.221766 0)
(0.705228 0.168308 0)
(0.848909 0.0222413 0)
(1.12542 0.137677 0)
(1.08982 -0.276313 0)
(0.80769 -0.26235 0)
(0.720294 0.307988 0)
(0.889005 0.141946 0)
(1.0449 -0.0631465 0)
(0.940321 0.00552596 0)
(0.878924 -0.0099831 0)
(0.940472 0.0159725 0)
(0.928096 0.0465924 0)
(0.906013 -0.00434454 0)
(0.922354 -0.00849361 0)
(0.931717 0.0123456 0)
(1.1024 0.0155446 0)
(1.10888 0.00399753 0)
(1.11282 -0.0112602 0)
(1.11124 -0.0264155 0)
(1.10494 -0.0482905 0)
(1.09343 -0.0609972 0)
(1.07997 -0.0890544 0)
(1.05029 -0.0966174 0)
(1.02682 -0.114404 0)
(0.985419 -0.123478 0)
(0.950838 -0.0902892 0)
(0.918743 -0.130559 0)
(0.816118 0.0221532 0)
(0.85912 0.138071 0)
(0.965131 0.188162 0)
(1.12179 0.104875 0)
(1.13169 0.0165057 0)
(1.11437 -0.0260006 0)
(1.09329 -0.167225 0)
(0.988005 -0.135347 0)
(0.939234 -0.0895905 0)
(0.77661 -0.0940099 0)
(0.67921 0.213756 0)
(0.883311 0.122236 0)
(0.904469 -0.0535147 0)
(1.07884 0.0691406 0)
(1.10905 -0.216947 0)
(0.786684 -0.170936 0)
(0.691511 0.293877 0)
(0.939896 0.0745717 0)
(1.0521 -0.0710016 0)
(0.925498 0.0350312 0)
(0.880834 -0.0103776 0)
(0.943085 0.00762223 0)
(0.932686 0.0514577 0)
(0.918824 -0.00400081 0)
(0.933309 -0.0119305 0)
(0.940482 0.0114043 0)
(1.08588 0.0112539 0)
(1.09025 0.0028128 0)
(1.09361 -0.0111774 0)
(1.09015 -0.0216431 0)
(1.08547 -0.0393359 0)
(1.07338 -0.0478532 0)
(1.06414 -0.0675824 0)
(1.03947 -0.0734833 0)
(1.02697 -0.078131 0)
(0.992452 -0.0882077 0)
(0.969551 -0.0498716 0)
(0.946038 -0.0775043 0)
(0.882994 0.0219579 0)
(0.943103 0.0786765 0)
(0.996795 0.118834 0)
(1.09288 0.0645039 0)
(1.09228 0.000889141 0)
(1.09654 -0.0101456 0)
(1.08212 -0.105141 0)
(0.967986 -0.0816375 0)
(0.9555 -0.0398357 0)
(0.874909 -0.0521259 0)
(0.82165 0.165614 0)
(1.04004 0.0771317 0)
(0.992718 -0.0676906 0)
(1.03474 0.0450952 0)
(1.10598 -0.165216 0)
(0.814493 -0.093732 0)
(0.751068 0.25165 0)
(1.00672 0.00885888 0)
(1.04908 -0.0646035 0)
(0.919258 0.0664707 0)
(0.908348 -0.0162676 0)
(0.958651 -0.00238312 0)
(0.945076 0.0557944 0)
(0.942218 -0.00461876 0)
(0.951469 -0.0151022 0)
(0.953187 0.0108761 0)
(1.07111 0.0082468 0)
(1.07399 0.00215471 0)
(1.07675 -0.00901917 0)
(1.07254 -0.0169538 0)
(1.07022 -0.0291535 0)
(1.05785 -0.0365297 0)
(1.05401 -0.0474488 0)
(1.0314 -0.0537593 0)
(1.02634 -0.0533612 0)
(0.997607 -0.0634091 0)
(0.983605 -0.0331418 0)
(0.971627 -0.0497599 0)
(0.937187 0.0180785 0)
(0.979109 0.0400307 0)
(1.00115 0.0684361 0)
(1.06957 0.0401537 0)
(1.06015 0.00499469 0)
(1.06294 -0.00869928 0)
(1.05736 -0.0799391 0)
(0.974019 -0.0578287 0)
(0.97751 -0.0199499 0)
(0.942805 -0.026469 0)
(0.923329 0.116797 0)
(1.08171 0.0474951 0)
(1.02334 -0.0583765 0)
(1.01509 0.0233063 0)
(1.06882 -0.128864 0)
(0.858191 -0.0218029 0)
(0.863175 0.212891 0)
(1.05567 -0.0375872 0)
(1.027 -0.0479485 0)
(0.930904 0.091734 0)
(0.958968 -0.0245003 0)
(0.976819 -0.00863251 0)
(0.962654 0.0594511 0)
(0.974897 -0.0061854 0)
(0.971904 -0.0163099 0)
(0.967928 0.011358 0)
(1.05892 0.00679631 0)
(1.06025 0.00223093 0)
(1.06322 -0.00602647 0)
(1.05826 -0.0122478 0)
(1.05785 -0.0202271 0)
(1.04652 -0.026867 0)
(1.04514 -0.0318274 0)
(1.02742 -0.0391158 0)
(1.02535 -0.0342657 0)
(1.0047 -0.0441665 0)
(0.997919 -0.0194514 0)
(0.989047 -0.0306175 0)
(0.971497 0.0119028 0)
(0.998564 0.0179776 0)
(1.00419 0.0391207 0)
(1.04671 0.0240008 0)
(1.04147 -0.00174147 0)
(1.04794 -0.00352015 0)
(1.04087 -0.045948 0)
(0.986713 -0.0331571 0)
(0.989634 -0.00557293 0)
(0.973977 -0.0191796 0)
(0.966571 0.0713499 0)
(1.07439 0.0293159 0)
(1.02271 -0.0405272 0)
(1.01805 0.0299257 0)
(1.0371 -0.09259 0)
(0.893409 0.00320438 0)
(0.963941 0.165932 0)
(1.07768 -0.0532636 0)
(0.9993 -0.0223494 0)
(0.964807 0.101539 0)
(1.01467 -0.0325978 0)
(0.988462 -0.00825697 0)
(0.988491 0.0606048 0)
(1.01089 -0.00769717 0)
(0.991357 -0.0141724 0)
(0.986493 0.0127945 0)
(1.04909 0.006278 0)
(1.04927 0.00259152 0)
(1.05205 -0.00300052 0)
(1.04717 -0.00829056 0)
(1.04798 -0.0127129 0)
(1.03849 -0.018966 0)
(1.03852 -0.0199331 0)
(1.02546 -0.0272431 0)
(1.02455 -0.020905 0)
(1.0113 -0.0297824 0)
(1.00634 -0.0114632 0)
(1.00214 -0.0206904 0)
(0.991863 0.00708588 0)
(1.00862 0.00616358 0)
(1.00752 0.0196278 0)
(1.03436 0.0135988 0)
(1.03022 -0.0023326 0)
(1.0324 -0.00267826 0)
(1.02933 -0.0291099 0)
(0.996889 -0.0223473 0)
(0.998873 -0.00218364 0)
(0.995241 -0.0119285 0)
(0.982698 0.0427383 0)
(1.05755 0.0206019 0)
(1.00973 -0.0294999 0)
(1.0183 0.0247834 0)
(1.0314 -0.0641639 0)
(0.922783 0.0109146 0)
(1.01489 0.124525 0)
(1.07245 -0.0494075 0)
(0.977184 -0.0046736 0)
(1.00712 0.091875 0)
(1.04925 -0.0337883 0)
(0.98849 -0.00284324 0)
(1.01601 0.0552119 0)
(1.03691 -0.00759206 0)
(1.00407 -0.00933534 0)
(1.00419 0.0136553 0)
(1.04099 0.00621939 0)
(1.04052 0.0031381 0)
(1.04307 -0.000367331 0)
(1.03905 -0.00475123 0)
(1.04007 -0.0068913 0)
(1.03309 -0.0125034 0)
(1.03306 -0.0113972 0)
(1.02466 -0.0184414 0)
(1.02335 -0.011754 0)
(1.016 -0.0202374 0)
(1.01181 -0.00626393 0)
(1.01068 -0.0142938 0)
(1.00331 0.00363809 0)
(1.01433 0.000548374 0)
(1.01065 0.0091403 0)
(1.0258 0.00690869 0)
(1.02346 -0.0035905 0)
(1.02458 -0.00133289 0)
(1.02266 -0.016197 0)
(1.00517 -0.0122749 0)
(1.00369 0.000444835 0)
(1.00611 -0.00602361 0)
(0.991199 0.0225013 0)
(1.0436 0.0150204 0)
(1.00814 -0.0195297 0)
(1.01458 0.0231543 0)
(1.03031 -0.0359535 0)
(0.943748 0.00743727 0)
(1.02886 0.0866911 0)
(1.06094 -0.0324119 0)
(0.969118 0.00575655 0)
(1.03403 0.0718034 0)
(1.05533 -0.0254913 0)
(0.9873 0.00312504 0)
(1.03468 0.0439905 0)
(1.04617 -0.00389643 0)
(1.0101 -0.00282156 0)
(1.01606 0.0134637 0)
(1.03432 0.00625839 0)
(1.03384 0.00374332 0)
(1.03592 0.00171931 0)
(1.03292 -0.0019362 0)
(1.03375 -0.00269301 0)
(1.02902 -0.00755141 0)
(1.02883 -0.00564015 0)
(1.02377 -0.0118572 0)
(1.02224 -0.00595759 0)
(1.01878 -0.0133843 0)
(1.01482 -0.00296137 0)
(1.0156 -0.010229 0)
(1.00971 0.00202984 0)
(1.01691 -0.00213221 0)
(1.01274 0.00387906 0)
(1.02161 0.00266818 0)
(1.01936 -0.00283306 0)
(1.0199 -0.000618833 0)
(1.01813 -0.00976998 0)
(1.0098 -0.0058844 0)
(1.00635 -0.000796437 0)
(1.01271 -0.00188077 0)
(0.998105 0.0115424 0)
(1.03175 0.0106646 0)
(1.00952 -0.0115885 0)
(1.00848 0.0158444 0)
(1.03078 -0.0181278 0)
(0.96561 0.0057213 0)
(1.02634 0.0576006 0)
(1.04826 -0.0159615 0)
(0.974984 0.00814664 0)
(1.04181 0.0504717 0)
(1.04726 -0.0133606 0)
(0.993146 0.00522082 0)
(1.04096 0.0308653 0)
(1.04359 0.00165624 0)
(1.01388 0.00234463 0)
(1.02245 0.0117415 0)
(1.02902 0.00626983 0)
(1.02864 0.0041976 0)
(1.0302 0.0031284 0)
(1.02816 0.000128696 0)
(1.02882 0.000126057 0)
(1.02575 -0.00390751 0)
(1.02553 -0.00185883 0)
(1.02255 -0.00713445 0)
(1.02122 -0.00222119 0)
(1.01965 -0.00863322 0)
(1.01656 -0.000797002 0)
(1.01771 -0.00727188 0)
(1.01317 0.00148328 0)
(1.01788 -0.00304505 0)
(1.01398 0.00184819 0)
(1.01921 0.000426794 0)
(1.0167 -0.00225871 0)
(1.01768 0.000178265 0)
(1.01569 -0.0062417 0)
(1.01269 -0.00113723 0)
(1.00874 -0.00140452 0)
(1.01495 0.00123384 0)
(1.00327 0.00565486 0)
(1.02425 0.00719484 0)
(1.01164 -0.00420159 0)
(1.00774 0.0107023 0)
(1.0272 -0.00490335 0)
(0.982916 0.00583882 0)
(1.02231 0.0353338 0)
(1.03769 -0.00204084 0)
(0.986762 0.00936029 0)
(1.03884 0.0340825 0)
(1.03745 -0.00161029 0)
(1.00264 0.00541602 0)
(1.03931 0.0207044 0)
(1.03762 0.00762846 0)
(1.01746 0.00626423 0)
(1.02564 0.0101641 0)
(1.02476 0.00616386 0)
(1.02451 0.00443942 0)
(1.02569 0.00398125 0)
(1.02437 0.00155634 0)
(1.02492 0.00189573 0)
(1.02296 -0.00134973 0)
(1.02282 0.000465883 0)
(1.02102 -0.00379704 0)
(1.02009 4.46299e-05 0)
(1.01939 -0.00526168 0)
(1.01716 0.000662241 0)
(1.01817 -0.00508721 0)
(1.01482 0.00166471 0)
(1.01786 -0.00308536 0)
(1.01454 0.00141637 0)
(1.01781 -0.000605101 0)
(1.01538 -0.00135491 0)
(1.0164 0.000976883 0)
(1.01463 -0.0044126 0)
(1.01367 0.00195634 0)
(1.01057 -0.00246974 0)
(1.01541 0.00317687 0)
(1.00721 0.00279063 0)
(1.01972 0.0047 0)
(1.01211 0.00103446 0)
(1.00923 0.00546561 0)
(1.02268 0.00207391 0)
(0.996458 0.00605231 0)
(1.01962 0.0205596 0)
(1.0289 0.00648564 0)
(0.998299 0.00774541 0)
(1.03373 0.0221936 0)
(1.03019 0.00661881 0)
(1.01106 0.00382657 0)
(1.03537 0.0132767 0)
(1.03261 0.0119445 0)
(1.02055 0.00799329 0)
(1.02724 0.00823111 0)
(1.02134 0.00589209 0)
(1.0212 0.00447594 0)
(1.02212 0.00436651 0)
(1.02127 0.00244068 0)
(1.02177 0.00288273 0)
(1.02051 0.000350582 0)
(1.02053 0.0018115 0)
(1.01938 -0.00150882 0)
(1.01885 0.00139864 0)
(1.01848 -0.00286576 0)
(1.017 0.00163315 0)
(1.01776 -0.00333016 0)
(1.01528 0.00208646 0)