/*--------------------------------*- C++ -*----------------------------------*\
| =========                 |                                                 |
| \\      /  F ield         | OpenFOAM: The Open Source CFD Toolbox           |
|  \\    /   O peration     | Version:  2312                                  |
|   \\  /    A nd           | Website:  www.openfoam.com                      |
|    \\/     M anipulation  |                                                 |
\*---------------------------------------------------------------------------*/
FoamFile
{
    version     2.0;
    format      ascii;
    arch        "LSB;label=32;scalar=64";
    class       volVectorField;
    location    "52";
    object      U;
}
// * * * * * * * * * * * * * * * * * * * * * * * * * * * * * * * * * * * * * //

dimensions      [0 1 -1 0 0 0 0];

internalField   nonuniform List<vector> 
2300
(
(-0.0540069 0.0351965 0)
(-0.057062 0.0385249 1.49991e-19)
(0.044843 0.0266237 -8.17436e-20)
(0.258734 0.025505 -3.2807e-20)
(0.527492 0.0387149 0)
(0.758521 0.0588832 -3.80997e-20)
(0.977218 0.0905924 1.53682e-19)
(1.1121 0.107213 -2.67518e-20)
(1.2029 0.136606 6.57058e-20)
(1.28411 0.132453 -8.00774e-20)
(-0.0629933 0.0288279 6.34188e-20)
(0.0101757 0.0187578 -5.04701e-20)
(0.291411 0.035939 8.06935e-20)
(0.640802 0.0778598 2.9319e-20)
(0.927636 0.121015 4.48061e-20)
(1.13082 0.159398 -1.2042e-19)
(1.23222 0.174153 -2.0139e-21)
(1.25732 0.181537 -1.78302e-21)
(1.24955 0.168789 0)
(1.19522 0.14785 1.3463e-20)
(-0.0486115 0.00953741 6.58523e-20)
(0.213143 0.0149325 -2.33114e-21)
(0.668342 0.101182 -1.23133e-19)
(1.00627 0.1744 6.6536e-20)
(1.18895 0.216338 -4.60031e-20)
(1.24115 0.222917 1.06603e-19)
(1.21877 0.210043 -8.48799e-20)
(1.17865 0.187023 -5.7748e-20)
(1.14313 0.166485 3.11203e-20)
(1.12883 0.15554 6.14556e-20)
(0.0278048 -0.0101331 1.78279e-20)
(0.560574 0.092282 -5.33614e-20)
(0.991638 0.211627 4.38717e-20)
(1.18071 0.263385 0)
(1.21262 0.263068 1.0791e-20)
(1.189 0.244427 3.11048e-20)
(1.17164 0.223352 -2.59646e-20)
(1.17062 0.214131 3.30809e-20)
(1.17997 0.20252 -3.64981e-21)
(1.19058 0.199984 -4.77318e-20)
(0.197262 0.0266101 1.85632e-20)
(0.855261 0.226697 0)
(1.13388 0.30961 0)
(1.19331 0.313501 0)
(1.19173 0.297069 -1.08229e-20)
(1.18661 0.280064 0)
(1.17597 0.264757 0)
(1.1582 0.244469 -6.97521e-21)
(1.13605 0.222585 5.85036e-21)
(1.10035 0.206324 -3.6065e-21)
(-0.00975206 -0.0890002 1.47969e-20)
(-0.0513584 -0.129065 0)
(-0.108351 -0.132924 0)
(-0.156697 -0.132781 0)
(-0.197714 -0.129488 -1.42506e-20)
(-0.230422 -0.117325 0)
(-0.256354 -0.0893349 0)
(-0.265382 -0.0490389 1.74898e-20)
(-0.270844 0.0167075 -1.46669e-20)
(-0.253161 0.0936216 1.16491e-20)
(-0.00641815 -0.042801 -4.38037e-20)
(-0.0426472 -0.0603049 4.83328e-20)
(-0.0920376 -0.0635958 -3.97668e-20)
(-0.131975 -0.0684383 0)
(-0.163396 -0.0732799 1.42134e-20)
(-0.179961 -0.0754005 -4.45294e-20)
(-0.203283 -0.0576142 3.71639e-20)
(-0.18179 -0.0550509 -5.64911e-20)
(-0.190756 0.0118838 4.73715e-20)
(-0.130546 0.0443291 1.85596e-20)
(-0.00972055 -0.00792981 -5.77016e-20)
(-0.0397024 -0.00842237 -1.87497e-22)
(-0.0737934 -0.0103992 1.17388e-19)
(-0.093528 -0.0180757 -6.46222e-20)
(-0.107131 -0.0285568 5.17417e-20)
(-0.0712749 -0.0393361 -1.2648e-19)
(-0.0949395 -0.0301812 3.5574e-20)
(0.0267172 -0.0399372 2.45845e-20)
(0.00497382 -0.00569188 -4.12249e-20)
(0.184001 0.0175732 -2.46432e-20)
(-0.0207071 0.0141877 -5.79092e-20)
(-0.0505825 0.0221889 -4.8256e-20)
(-0.0713156 0.0184355 -7.81114e-20)
(-0.0602839 0.00974471 3.29045e-20)
(-0.0340592 -0.0180184 -4.88491e-20)
(0.0785733 -0.0140446 4.38861e-20)
(0.105517 -0.0330447 1.24299e-21)
(0.370347 -0.0256827 3.71933e-22)
(0.30722 -0.0186063 6.98573e-20)
(0.643406 0.0184997 -4.47888e-20)
(-0.037707 0.0288493 0)
(-0.0650812 0.0383908 4.83736e-20)
(-0.0529214 0.029265 7.94991e-20)
(0.024771 0.0170576 -9.80865e-20)
(0.169302 -0.00770044 0)
(0.36156 -0.000237698 1.20904e-19)
(0.506084 -0.00346007 -9.51225e-20)
(0.764391 0.0231855 7.55513e-20)
(0.814947 0.034397 -7.00857e-20)
(1.08035 0.0827856 3.09939e-20)
(-0.249922 0.180138 -8.23444e-21)
(-0.20885 0.267037 0)
(-0.180247 0.370034 1.72753e-22)
(-0.126727 0.434497 0)
(-0.0661137 0.441905 1.67434e-22)
(0.0484015 0.33154 0)
(0.180433 0.116582 5.05309e-21)
(0.430954 -0.219347 -4.70006e-21)
(0.716451 -0.410822 0)
(0.802362 -0.55684 -1.57082e-22)
(0.545298 -0.680393 0)
(0.674295 -0.411412 1.56326e-21)
(0.921783 0.111063 8.03385e-22)
(0.964617 0.60401 -1.78055e-21)
(0.925856 0.729641 -2.71104e-22)
(0.916385 0.332052 2.40596e-22)
(0.885321 -0.210094 0)
(0.758254 -0.507286 0)
(0.72297 -0.339642 0)
(0.789214 0.00278054 0)
(0.80771 0.245836 0)
(0.758143 0.270907 -3.21878e-23)
(0.79283 0.16148 3.00987e-23)
(0.841864 -0.0132678 -1.00271e-22)
(0.879934 -0.103417 0)
(-0.116492 0.118959 -2.38961e-20)
(-0.0796965 0.207136 2.17855e-20)
(-0.0361478 0.295914 -2.0422e-20)
(0.053577 0.354458 2.24453e-20)
(0.159329 0.34547 4.12942e-21)
(0.308738 0.220033 -5.02201e-20)
(0.499375 -0.00921776 2.48763e-20)
(0.738858 -0.39557 0)
(0.838661 -0.593911 4.62822e-22)
(1.02684 -0.526797 1.59884e-22)
(0.795228 -0.593292 0)
(0.725575 -0.474087 -1.28182e-22)
(0.819851 0.0771512 -2.33992e-22)
(0.872962 0.624755 6.12298e-21)
(0.89633 0.729263 -7.47095e-21)
(0.909793 0.329807 1.66099e-21)
(0.905912 -0.191415 -2.01838e-21)
(0.782548 -0.490749 5.35719e-22)
(0.731137 -0.349895 1.76542e-22)
(0.775912 -0.00982526 1.13679e-21)
(0.779345 0.245376 -3.59372e-22)
(0.742269 0.269084 0)
(0.800892 0.151331 0)
(0.862377 -0.0222334 -7.39256e-24)
(0.894903 -0.107522 -8.15463e-23)
(0.155828 0.0709209 7.88615e-20)
(0.190284 0.135186 1.64742e-21)
(0.229204 0.201957 -3.51656e-20)
(0.312059 0.252016 0)
(0.436678 0.258189 -5.07079e-20)
(0.576234 0.142651 4.71575e-20)
(0.778297 -0.0790293 0)
(1.05042 -0.396899 0)
(0.946835 -0.634309 -4.81566e-22)
(0.979797 -0.525237 0)
(0.866875 -0.515968 -4.15391e-22)
(0.755546 -0.508004 0)
(0.821563 -0.0271764 -7.86116e-21)
(0.815177 0.51154 1.29585e-21)
(0.790541 0.702786 1.75514e-21)
(0.854429 0.381699 3.94615e-21)
(0.962736 -0.117802 4.46413e-22)
(0.840241 -0.444515 2.50506e-22)
(0.743487 -0.350871 0)
(0.746803 -0.0206455 1.75079e-22)
(0.733724 0.245047 -2.78276e-23)
(0.7235 0.264642 0)
(0.813048 0.139511 4.54417e-24)
(0.889381 -0.0302777 2.21427e-22)
(0.913391 -0.110444 8.1307e-23)
(0.58369 0.0445249 3.12287e-22)
(0.555158 0.0864521 0)
(0.563123 0.12672 0)
(0.6214 0.141139 -4.21349e-20)
(0.71248 0.152688 3.96362e-20)
(0.86874 0.0433714 0)
(1.02283 -0.191119 3.8116e-22)
(1.22991 -0.392329 -6.72358e-22)
(1.14098 -0.552368 0)
(0.951921 -0.501062 1.72933e-20)
(0.90877 -0.464753 -1.55838e-20)
(0.710663 -0.543102 0)
(0.779057 -0.0656757 -4.52363e-22)
(0.746727 0.536763 0)
(0.738718 0.702144 7.5301e-21)
(0.823164 0.351224 -7.18614e-21)
(0.973123 -0.114916 -3.00636e-21)
(0.870122 -0.417055 3.58946e-21)
(0.733926 -0.351772 -1.31481e-21)
(0.719632 -0.0275852 0)
(0.699683 0.241074 3.92889e-22)
(0.718377 0.25244 -3.97213e-22)
(0.833102 0.122854 -5.03943e-22)
(0.919869 -0.0391218 1.19339e-22)
(0.933493 -0.112597 0)
(1.05161 0.077564 4.60324e-20)
(1.0163 0.0873607 -4.26233e-20)
(0.981434 0.108685 0)
(1.01053 0.098364 -3.10167e-22)
(1.01009 0.096699 -3.45564e-22)
(1.1419 0.0482972 -4.93297e-20)
(1.25739 -0.149447 4.51753e-20)
(1.305 -0.346256 -3.75618e-20)
(1.26404 -0.44724 6.20536e-20)
(0.988497 -0.432456 -2.46333e-20)
(0.964398 -0.395345 -1.3821e-20)
(0.742064 -0.531787 1.27523e-20)
(0.719137 -0.226467 1.61273e-20)
(0.746653 0.402701 -2.69314e-20)
(0.685068 0.673376 1.15283e-20)
(0.734584 0.407917 -2.0274e-22)
(0.979846 -0.0512135 -4.70481e-21)
(0.951739 -0.356378 3.52904e-21)
(0.736176 -0.340267 1.07561e-21)
(0.689134 -0.0461782 -7.28194e-22)
(0.666096 0.230299 7.68653e-22)
(0.714947 0.239598 2.70539e-22)
(0.856551 0.106787 -1.17377e-22)
(0.949659 -0.0465268 -1.24114e-22)
(0.952108 -0.113489 0)
(1.24346 0.121938 0)
(1.24975 0.114411 0)
(1.22046 0.110292 0)
(1.27331 0.0991369 0)
(1.24329 0.0628417 0)
(1.32462 -0.0101195 0)
(1.39098 -0.120144 0)
(1.29416 -0.251473 0)
(1.24704 -0.333477 0)
(1.01759 -0.332119 0)
(1.01997 -0.305533 0)
(0.86691 -0.466608 0)
(0.67195 -0.27051 0)
(0.728913 0.380447 0)
(0.585822 0.686916 0)
(0.746668 0.361587 0)
(1.00198 -0.0737758 0)
(1.01918 -0.311176 0)
(0.758469 -0.304994 0)
(0.655274 -0.0477768 0)
(0.641421 0.222181 0)
(0.730895 0.217133 0)
(0.892698 0.0847968 0)
(0.981592 -0.0525213 0)
(0.969605 -0.112416 0)
(1.20482 0.10941 0)
(1.23201 0.108333 0)
(1.23252 0.090848 0)
(1.26719 0.0656998 0)
(1.27786 0.0529467 0)
(1.29909 -0.0415211 0)
(1.32069 -0.108403 0)
(1.23809 -0.229225 0)
(1.17243 -0.292468 0)
(0.990966 -0.289267 0)
(0.924539 -0.341599 0)
(0.877116 -0.411651 0)
(0.593844 -0.181072 0)
(0.537219 0.441679 0)
(0.499392 0.682096 0)
(0.848049 0.280268 0)
(1.04279 -0.122569 0)
(1.05671 -0.286882 0)
(0.785257 -0.240446 0)
(0.604421 -0.0178301 0)
(0.607244 0.215004 0)
(0.761616 0.186367 0)
(0.938244 0.0585356 0)
(1.01572 -0.0601374 0)
(0.986965 -0.111717 0)
(1.18392 0.102082 0)
(1.20046 0.0893249 0)
(1.21882 0.0755391 0)
(1.2239 0.043247 0)
(1.24469 0.0285159 0)
(1.25015 -0.0394239 0)
(1.24584 -0.0866302 0)
(1.20484 -0.162357 0)
(1.13855 -0.223319 0)
(1.05456 -0.191703 0)
(0.947174 -0.235415 0)
(0.881964 -0.303106 0)
(0.55842 -0.0767568 0)
(0.39195 0.460408 0)
(0.615389 0.56455 0)
(1.0073 0.173382 0)
(1.0913 -0.144462 0)
(1.09378 -0.251244 0)
(0.878712 -0.176829 0)
(0.635897 0.00822299 0)
(0.638604 0.185544 0)
(0.840365 0.139167 0)
(1.00239 0.0300916 0)
(1.05366 -0.0626407 0)
(1.00559 -0.107403 0)
(1.17204 0.0925107 0)
(1.18272 0.0808476 0)
(1.20009 0.063237 0)
(1.20245 0.0327442 0)
(1.20839 0.0233544 0)
(1.21226 -0.0418874 0)
(1.19121 -0.0615198 0)
(1.17669 -0.128175 0)
(1.09873 -0.184932 0)
(1.02733 -0.15185 0)
(0.953416 -0.224531 0)
(0.878721 -0.230846 0)
(0.640237 0.0528735 0)
(0.536317 0.404892 0)
(0.870699 0.394819 0)
(1.1771 0.0987083 0)
(1.16439 -0.145424 0)
(1.0574 -0.218158 0)
(0.90774 -0.100133 0)
(0.747458 0.0554321 0)
(0.781603 0.153975 0)
(0.970072 0.0904272 0)
(1.07562 0.00526115 0)
(1.08804 -0.0615231 0)
(1.02281 -0.101637 0)
(1.15672 0.0840248 0)
(1.16525 0.0685412 0)
(1.18093 0.0549934 0)
(1.17877 0.0281962 0)
(1.181 0.0141923 0)
(1.18222 -0.0251413 0)
(1.15516 -0.0497231 0)
(1.15334 -0.0851311 0)
(1.09067 -0.125165 0)
(1.03918 -0.0989466 0)
(0.999501 -0.122165 0)
(0.885252 -0.124173 0)
(0.752827 0.110637 0)
(0.811578 0.325904 0)
(1.07367 0.248468 0)
(1.22678 0.0415242 0)
(1.19151 -0.0994351 0)
(1.0724 -0.15481 0)
(0.955824 -0.0607776 0)
(0.899487 0.0598262 0)
(0.967353 0.117835 0)
(1.09122 0.0561513 0)
(1.12909 -0.00325861 0)
(1.11133 -0.0489798 0)
(1.03778 -0.0907359 0)
(1.1394 0.0713533 0)
(1.14913 0.0587169 0)
(1.15844 0.0465974 0)
(1.16025 0.0254616 0)
(1.15694 0.015084 0)
(1.15593 -0.0156205 0)
(1.13535 -0.0295353 0)
(1.12605 -0.0551346 0)
(1.08716 -0.0815495 0)
(1.0376 -0.0664913 0)
(1.01604 -0.0806048 0)
(0.936865 -0.0676004 0)
(0.869238 0.0933505 0)
(0.976619 0.206043 0)
(1.14424 0.156927 0)
(1.20789 0.0368539 0)
(1.16794 -0.0689825 0)
(1.07514 -0.115055 0)
(0.991638 -0.0336949 0)
(0.990986 0.0498715 0)
(1.06774 0.0838275 0)
(1.1408 0.0364904 0)
(1.14437 -0.0029381 0)
(1.12024 -0.0364392 0)
(1.04882 -0.0815516 0)
(1.12329 0.0633101 0)
(1.13126 0.0525219 0)
(1.13817 0.0435176 0)
(1.13906 0.0281975 0)
(1.13568 0.0181698 0)
(1.13334 7.4506e-05 0)
(1.11869 -0.0122662 0)
(1.11127 -0.0256778 0)
(1.08696 -0.0398525 0)
(1.05614 -0.0327733 0)
(1.04229 -0.0261192 0)
(0.993953 -0.013624 0)
(0.964176 0.0747319 0)
(1.03849 0.133418 0)
(1.12829 0.105753 0)
(1.16845 0.0290739 0)
(1.1507 -0.029094 0)
(1.08497 -0.064841 0)
(1.02776 -0.0191937 0)
(1.04068 0.0310042 0)
(1.09745 0.057696 0)
(1.14347 0.0284656 0)
(1.14093 0.00383277 0)
(1.12481 -0.016451 0)
(1.06025 -0.0659866 0)
(1.11106 0.0521663 0)
(1.11791 0.0441065 0)
(1.12241 0.0373272 0)
(1.12392 0.026166 0)
(1.12127 0.0190586 0)
(1.11854 0.00668092 0)
(1.10984 -0.000876149 0)
(1.10202 -0.0096223 0)
(1.08878 -0.0169828 0)
(1.07011 -0.0140955 0)
(1.05911 -0.00788901 0)
(1.0398 0.000107302 0)
(1.02759 0.0479157 0)
(1.06692 0.0744329 0)
(1.11861 0.0660049 0)
(1.14301 0.0234113 0)
(1.13097 -0.0144982 0)
(1.09549 -0.0439852 0)
(1.06045 -0.0132593 0)
(1.0676 0.0130313 0)
(1.1032 0.032266 0)
(1.13771 0.0159668 0)
(1.13529 0.0032455 0)
(1.12721 -0.00730229 0)
(1.07127 -0.0582152 0)
(1.10418 0.0504815 0)
(1.10933 0.0447636 0)
(1.11265 0.0399212 0)
(1.11395 0.03252 0)
(1.11226 0.0271811 0)
(1.11042 0.0194932 0)
(1.10525 0.0145659 0)
(1.10094 0.00897863 0)
(1.09383 0.00670476 0)
(1.08482 0.00626954 0)
(1.07875 0.0136275 0)
(1.07109 0.0178091 0)
(1.0671 0.0410361 0)
(1.08621 0.0526337 0)
(1.11023 0.0501871 0)
(1.12705 0.0229479 0)
(1.12342 0.00498157 0)
(1.10468 -0.0169785 0)
(1.08326 -0.0010675 0)
(1.08969 0.00893528 0)
(1.109 0.0225322 0)
(1.13374 0.0151356 0)
(1.13168 0.00989741 0)
(1.13337 0.0124962 0)
(1.08567 -0.0396717 0)
(1.10577 0.0369295 0)
(1.11004 0.0326843 0)
(1.11281 0.0294471 0)
(1.11439 0.0241176 0)
(1.11382 0.0207754 0)
(1.11298 0.0153442 0)
(1.11029 0.012633 0)
(1.10807 0.00841469 0)
(1.10415 0.00757555 0)
(1.1006 0.00585184 0)
(1.09679 0.0103114 0)
(1.09562 0.0108389 0)
(1.0946 0.022522 0)
(1.1047 0.0248197 0)
(1.11624 0.0267107 0)
(1.1274 0.0109435 0)
(1.124 0.00261272 0)
(1.11646 -0.0157762 0)
(1.10384 -0.00608742 0)
(1.10802 -0.00581901 0)
(1.11554 0.00285433 0)
(1.13469 0.000908601 0)
(1.13285 0.00137268 0)
(1.14224 0.0137057 0)
(1.10059 -0.0357053 0)
(1.11047 0.0433787 0)
(1.11388 0.0404669 0)
(1.11636 0.0384062 0)
(1.11823 0.0347591 0)
(1.1186 0.032688 0)
(1.11888 0.0288318 0)
(1.11796 0.0274021 0)
(1.11768 0.0239974 0)
(1.11627 0.0240855 0)
(1.11586 0.0217643 0)
(1.11434 0.0247205 0)
(1.11549 0.023556 0)
(1.11507 0.0294307 0)
(1.12119 0.0278149 0)
(1.12477 0.0304994 0)
(1.13228 0.0188309 0)
(1.13028 0.0167561 0)
(1.12931 0.00233208 0)
(1.12091 0.00743527 0)
(1.1262 0.00208792 0)
(1.12701 0.00611596 0)
(1.142 0.00663665 0)
(1.13967 0.00688842 0)
(1.15422 0.0322215 0)
(1.12022 -0.0122437 0)
(1.12318 0.019932 0)
(1.12625 0.0178635 0)
(1.12835 0.016687 0)
(1.13043 0.0141308 0)
(1.1311 0.0130661 0)
(1.13237 0.0103473 0)
(1.13216 0.00981352 0)
(1.13341 0.00721572 0)
(1.13279 0.00773231 0)
(1.13445 0.00532317 0)
(1.13354 0.00758413 0)
(1.13657 0.00516535 0)
(1.13584 0.00923741 0)
(1.1416 0.00583812 0)
(1.14168 0.00931243 0)
(1.14835 0.000997021 0)
(1.14523 0.00262867 0)
(1.14827 -0.00989232 0)
(1.13976 -0.0060906 0)
(1.14612 -0.0136795 0)
(1.14 -0.0122092 0)
(1.1524 -0.0103725 0)
(1.14469 -0.00985982 0)
(1.16933 0.0235647 0)
(1.14472 -0.0148982 0)
(1.15162 0.0358297 0)
(1.15409 0.0342644 0)
(1.15603 0.0334625 0)
(1.15838 0.0315271 0)
(1.1596 0.0308452 0)
(1.1616 0.0287371 0)
(1.16215 0.0284224 0)
(1.1643 0.0262339 0)
(1.16441 0.0265135 0)
(1.16721 0.024303 0)
(1.16673 0.0255352 0)
(1.17071 0.0229772 0)
(1.16953 0.0253809 0)
(1.17532 0.0213975 0)
(1.17337 0.0246296 0)
(1.1802 0.0173932 0)
(1.17604 0.0201301 0)
(1.18223 0.010847 0)
(1.17296 0.0123616 0)
(1.18161 0.00527656 0)
(1.17162 0.00300761 0)
(1.1823 0.00604855 0)
(1.17257 -0.00502765 0)
(1.2019 0.0319979 0)
(1.18355 0.0115884 0)
(1.17553 -0.00212029 0)
(1.17789 -0.0028907 0)
(1.17943 -0.0030309 0)
(1.18183 -0.00409251 0)
(1.18279 -0.00404366 0)
(1.18533 -0.00531091 0)
(1.1857 -0.00482871 0)
(1.18886 -0.00620995 0)
(1.18866 -0.00519803 0)
(1.19281 -0.00662242 0)
(1.19199 -0.00493942 0)
(1.19733 -0.00670988 0)
(1.19577 -0.0038529 0)
(1.20276 -0.00716054 0)
(1.19959 -0.00249858 0)
(1.20918 -0.00848424 0)
(1.20163 -0.003693 0)
(1.21395 -0.0102977 0)
(1.20114 -0.00862914 0)
(1.21317 -0.0157433 0)
(1.19667 -0.0162924 0)
(1.2124 -0.013635 0)
(1.18817 -0.0323115 0)
(1.21338 0.0100009 0)
(1.21571 0.000390138 0)
(1.29242 0.0238514 0)
(1.29457 0.0233504 0)
(1.29541 0.0229091 0)
(1.29805 0.0224398 0)
(1.29849 0.0218633 0)
(1.30156 0.0213704 0)
(1.30127 0.0209164 0)
(1.30507 0.0199633 0)
(1.30373 0.0202088 0)
(1.30896 0.0181909 0)
(1.30594 0.0195453 0)
(1.31365 0.0168254 0)
(1.30784 0.0184828 0)
(1.31934 0.0166942 0)
(1.30958 0.0166272 0)
(1.32615 0.0164785 0)
(1.31087 0.0168587 0)
(1.3334 0.0135564 0)
(1.30972 0.0175758 0)
(1.33912 0.0157833 0)
(1.30639 0.00666665 0)
(1.33223 0.0211134 0)
(1.31012 0.000935842 0)
(1.30507 0.00134709 0)
(1.31966 0.0139321 0)
(1.10282 0.179667 4.43204e-22)
(1.15725 0.182649 2.37442e-20)
(1.17016 0.157001 -5.7718e-20)
(1.13636 0.144363 -2.59851e-22)
(1.23076 0.133426 0)
(1.13155 0.175703 1.92147e-21)
(1.11427 0.161057 -9.45424e-21)
(1.17864 0.157025 2.31734e-20)
(1.1367 0.132008 2.25438e-20)
(1.18288 0.135646 -2.86173e-20)
(1.1335 0.156549 0)
(1.10681 0.133001 1.92219e-22)
(1.15305 0.141086 1.23817e-20)
(1.14576 0.115347 -1.99914e-20)
(1.16032 0.122873 5.18968e-21)
(1.11676 0.140893 5.26103e-23)
(1.11142 0.117511 3.25244e-21)
(1.12865 0.127738 -1.08894e-20)
(1.14223 0.103155 1.01279e-20)
(1.14739 0.112416 1.71068e-20)
(1.10565 0.121132 0)
(1.11034 0.101828 -2.77482e-21)
(1.11672 0.110493 1.9812e-22)
(1.13187 0.0915221 -1.52446e-20)
(1.13566 0.0971645 0)
(1.09872 0.103147 -2.08773e-22)
(1.10459 0.0881111 1.2186e-22)
(1.10824 0.0934357 2.295e-23)
(1.11973 0.0791419 5.44521e-21)
(1.12402 0.0819663 -1.62778e-22)
(1.094 0.087574 1.73389e-22)
(1.09836 0.0770677 0)
(1.10052 0.0789027 4.01551e-22)
(1.10832 0.0698241 0)
(1.11202 0.0701175 -2.16993e-21)
(1.09245 0.0724714 7.04708e-23)
(1.09585 0.065434 -2.69289e-22)
(1.09655 0.0646672 -3.49929e-22)
(1.1016 0.058679 0)
(1.10353 0.0572583 1.87011e-21)
(1.0931 0.0653735 -7.78244e-23)
(1.09622 0.0606147 2.86256e-22)
(1.09528 0.0592021 4.82624e-22)
(1.09899 0.0552562 -2.31578e-23)
(1.09885 0.054003 6.50729e-22)
(1.09828 0.04895 0)
(1.10118 0.0456697 0)
(1.09972 0.0437991 -1.24353e-21)
(1.10292 0.0410894 0)
(1.10182 0.0394173 -1.86085e-21)
(1.10559 0.0515963 0)
(1.10832 0.0492068 2.08929e-22)
(1.10683 0.0478537 -6.46427e-22)
(1.10922 0.0459465 -6.72023e-22)
(1.10762 0.0450129 1.13474e-21)
(1.11878 0.0255208 0)
(1.12127 0.0237804 2.2007e-22)
(1.11969 0.0228262 -1.26416e-22)
(1.1222 0.0215169 7.76434e-22)
(1.1206 0.0209202 -7.08604e-22)
(1.14843 0.0403506 -2.44682e-22)
(1.15086 0.0391699 4.94419e-22)
(1.14976 0.038207 1.36929e-21)
(1.15162 0.0373472 1.20275e-24)
(1.14991 0.0365366 7.83015e-22)
(1.17092 -0.00115496 2.29147e-22)
(1.17349 -0.00192667 -6.63601e-24)
(1.17294 -0.00187427 -1.06189e-21)
(1.17497 -0.00229522 4.26412e-22)
(1.17383 -0.00195123 -4.09749e-22)
(1.288 0.0262692 0)
(1.29006 0.0261922 0)
(1.2904 0.0252871 -1.98458e-22)
(1.29174 0.0251345 0)
(1.29152 0.0241319 0)
(0.966314 0.24966 1.85299e-20)
(0.956745 0.267531 -2.20564e-20)
(0.925583 0.288853 1.28732e-20)
(0.905324 0.321763 -2.54483e-20)
(0.901834 0.368206 2.00108e-20)
(0.898883 0.419156 0)
(0.883524 0.481016 0)
(0.875307 0.559856 -1.20381e-20)
(0.855133 0.643134 -5.75788e-21)
(0.600645 0.554966 0)
(0.967185 0.240095 -7.44938e-22)
(0.981905 0.270486 0)
(0.987932 0.299983 -8.43906e-22)
(0.98362 0.332681 -6.7292e-21)
(0.977649 0.371668 -1.0042e-20)
(0.976431 0.418328 -8.56801e-22)
(0.98021 0.476915 -9.04456e-21)
(0.994135 0.552686 2.43304e-20)
(0.981622 0.606933 2.03315e-20)
(0.670924 0.481328 -5.56737e-20)
(1.04365 0.246638 -3.0843e-21)
(1.02938 0.26742 4.34069e-21)
(1.02276 0.290244 -4.33278e-21)
(1.02454 0.321485 -1.20793e-20)
(1.03932 0.362495 3.04624e-20)
(1.05716 0.405432 -1.53135e-20)
(1.06903 0.452016 3.67387e-20)
(1.08556 0.511568 -7.53884e-20)
(1.05855 0.53586 -1.31236e-20)
(0.673717 0.373481 6.17068e-20)
(1.0466 0.233902 -1.84277e-21)
(1.07527 0.257787 -2.72309e-21)
(1.08725 0.283856 1.38051e-20)
(1.0924 0.310203 -1.34099e-20)
(1.09708 0.338334 1.6066e-20)
(1.1096 0.372917 -7.83982e-21)
(1.13435 0.412943 0)
(1.15524 0.456715 3.8493e-20)
(1.07962 0.444557 -4.67907e-20)
(0.597723 0.252586 -1.89128e-20)
(1.12099 0.232366 4.8586e-21)
(1.1076 0.241257 4.4943e-21)
(1.10568 0.259932 -5.35862e-21)
(1.11454 0.282506 0)
(1.13946 0.313041 0)
(1.16919 0.341185 7.85603e-21)
(1.18678 0.366514 0)
(1.1704 0.383207 0)
(1.01195 0.340264 0)
(0.425151 0.130761 -1.91046e-20)
(0.803415 0.0742998 -1.47877e-22)
(0.774111 0.075501 9.96978e-21)
(0.737458 0.0777064 -1.18886e-20)
(0.694575 0.0808695 0)
(0.639709 0.0853785 0)
(0.575807 0.0916708 -1.44634e-20)
(0.491812 0.100732 0)
(0.394976 0.11262 0)
(0.254636 0.132092 0)
(0.0927304 0.120227 2.14109e-20)
(0.815995 0.117695 2.00913e-20)
(0.789216 0.125316 -3.73174e-20)
(0.754738 0.136318 4.44997e-20)
(0.714602 0.150382 -3.28424e-20)
(0.665138 0.168523 3.93508e-20)
(0.608282 0.191069 1.44261e-20)
(0.533185 0.221352 0)
(0.445888 0.258565 5.02428e-20)
(0.315947 0.313979 -6.10495e-20)
(0.144832 0.290432 -6.09213e-20)
(0.838995 0.161764 -2.31593e-20)
(0.818047 0.174407 3.26282e-20)
(0.786884 0.191064 -5.71928e-20)
(0.746562 0.211871 -8.02656e-20)
(0.699461 0.239913 1.04491e-19)
(0.652126 0.275862 -4.44635e-20)
(0.591085 0.323876 6.23651e-20)
(0.524521 0.383135 -1.14675e-19)
(0.418432 0.469396 2.1123e-22)
(0.235503 0.435461 5.76795e-20)
(0.867836 0.194458 3.05135e-20)
(0.854663 0.214606 -4.95402e-20)
(0.83793 0.24091 1.82979e-20)
(0.810819 0.268823 6.08599e-21)
(0.766667 0.301423 -7.8965e-20)
(0.723112 0.343864 3.22692e-20)
(0.676054 0.403059 -7.39231e-22)
(0.62999 0.47518 5.25781e-20)
(0.553798 0.578043 -1.90606e-20)
(0.356163 0.535295 -2.80462e-20)
(0.907671 0.219141 -3.03908e-20)
(0.883447 0.234866 3.61699e-20)
(0.86264 0.265434 -2.3898e-20)
(0.857566 0.305337 7.61302e-20)
(0.8418 0.347403 -1.28614e-20)
(0.810638 0.392952 0)
(0.774508 0.456249 2.20528e-20)
(0.751299 0.536843 -2.66836e-20)
(0.706847 0.637196 1.91041e-20)
(0.486354 0.576501 0)
(0.981208 0.154328 4.55109e-22)
(0.978769 0.150198 2.55667e-22)
(0.979824 0.120026 1.48785e-22)
(0.975155 0.114733 -1.68528e-22)
(0.979981 0.0959382 2.00516e-22)
(0.974989 0.0944047 0)
(0.97404 0.0821069 0)
(0.963732 0.081212 -1.93909e-22)
(0.955016 0.0755658 1.02054e-21)
(0.940508 0.073783 -2.48035e-21)
(0.925013 0.0724742 -2.06377e-22)
(0.905219 0.0704781 4.17084e-21)
(0.884314 0.07182 -2.36939e-21)
(0.859005 0.0707175 2.15797e-22)
(0.832416 0.074126 -4.97338e-21)
(0.980237 0.156489 -8.80813e-22)
(0.9764 0.147279 -2.8829e-22)
(0.980948 0.1234 1.23033e-21)
(0.974581 0.111158 -3.24555e-22)
(0.979588 0.0999037 6.85652e-22)
(0.974195 0.0915345 -7.38696e-22)
(0.973146 0.0889053 -3.16831e-22)
(0.963921 0.0817176 1.96796e-22)
(0.955678 0.0858315 -2.48681e-22)
(0.942496 0.0793548 -5.69168e-21)
(0.928153 0.0873456 6.13443e-21)
(0.909487 0.0833922 8.66549e-21)
(0.890299 0.0949355 -2.1881e-20)
(0.866206 0.0957358 -1.86058e-21)
(0.841982 0.112649 -1.53606e-21)
(0.981618 0.158664 4.53085e-22)
(0.973094 0.144595 0)
(0.983252 0.125767 -6.04153e-22)
(0.974152 0.108123 -3.99639e-22)
(0.978736 0.102508 0)
(0.973299 0.0894295 -2.78871e-22)
(0.970905 0.0936456 3.26005e-22)
(0.963503 0.0830312 0)
(0.954458 0.094821 -9.10145e-21)
(0.943165 0.0863919 1.077e-20)
(0.928942 0.102668 0)
(0.912931 0.0991694 2.71903e-22)
(0.896136 0.120656 0)
(0.876651 0.123455 -2.89932e-20)
(0.857397 0.152765 6.87312e-20)
(0.982269 0.160858 0)
(0.973966 0.141608 6.39599e-23)
(0.981384 0.128038 7.14236e-22)
(0.978837 0.10501 0)
(0.975286 0.105635 2.01296e-21)
(0.975746 0.0869073 -2.0098e-21)
(0.967411 0.0984901 0)
(0.964825 0.0818736 -4.51092e-22)
(0.953574 0.101651 8.27813e-22)
(0.945882 0.0872443 1.13424e-20)
(0.93239 0.111977 -1.34233e-20)
(0.920287 0.105971 -1.83833e-20)
(0.906087 0.137416 -1.69395e-21)
(0.891487 0.141402 2.61297e-20)
(0.879476 0.183155 2.24977e-22)
(0.981872 0.162749 0)
(0.975921 0.139264 -6.88093e-22)
(0.981689 0.128029 0)
(0.978999 0.102742 0)
(0.977601 0.106832 0)
(0.973865 0.0867267 -3.23273e-22)
(0.968078 0.102114 0)
(0.963511 0.0856827 4.8362e-22)
(0.953028 0.10873 9.88957e-21)
(0.946133 0.0978802 -1.17719e-20)
(0.934957 0.126446 -1.57189e-20)
(0.926305 0.124019 1.81222e-20)
(0.917975 0.161354 2.24842e-20)
(0.910818 0.164352 -5.14092e-20)
(0.910832 0.215954 2.91e-20)
(0.982596 0.16384 0)
(0.975783 0.137631 0)
(0.983385 0.130001 0)
(0.979931 0.100246 0)
(0.976555 0.109231 0)
(0.978281 0.0843941 0)
(0.96541 0.103661 0)
(0.969966 0.0833429 0)
(0.953342 0.109465 0)
(0.955224 0.0947762 0)
(0.941872 0.129757 0)
(0.941938 0.120635 0)
(0.934971 0.166523 0)
(0.939674 0.161574 0)
(0.945412 0.2187 0)
(0.982827 0.165272 0)
(0.97909 0.135805 0)
(0.980884 0.131767 0)
(0.988133 0.0993245 0)
(0.972818 0.111216 0)
(0.982595 0.08416 0)
(0.96734 0.106519 0)
(0.969946 0.0844257 0)
(0.963531 0.113997 0)
(0.956329 0.0971151 0)
(0.960438 0.133466 0)
(0.947275 0.124103 0)
(0.963789 0.163092 0)
(0.951767 0.161017 0)
(0.980042 0.197211 0)
(0.978167 0.166641 0)
(0.986874 0.134087 0)
(0.977553 0.13302 0)
(0.993929 0.0979905 0)
(0.979361 0.114974 0)
(0.981332 0.0830237 0)
(0.977261 0.110015 0)
(0.96774 0.0861453 0)
(0.975029 0.115371 0)
(0.962557 0.100672 0)
(0.974528 0.133049 0)
(0.963063 0.125334 0)
(0.980949 0.156588 0)
(0.974268 0.153864 0)
(0.996676 0.180072 0)
(0.97498 0.167897 0)
(0.988977 0.131612 0)
(0.978528 0.134893 0)
(0.990369 0.0942409 0)
(0.986662 0.119052 0)
(0.984928 0.0833121 0)
(0.982333 0.111876 0)
(0.977071 0.0894622 0)
(0.979082 0.113214 0)
(0.978249 0.103091 0)
(0.981459 0.129647 0)
(0.985506 0.12314 0)
(0.990834 0.147645 0)
(0.999289 0.143943 0)
(1.00798 0.163466 0)
(0.977596 0.169588 0)
(0.988856 0.128549 0)
(0.979496 0.137674 0)
(0.990145 0.0906263 0)
(0.983591 0.11935 0)
(0.993453 0.0858391 0)
(0.98255 0.111382 0)
(0.990578 0.0925008 0)
(0.983646 0.110703 0)
(0.992643 0.103007 0)
(0.989665 0.124405 0)
(1.00241 0.118472 0)
(1.00208 0.137093 0)
(1.0162 0.132725 0)
(1.02019 0.146829 0)
(0.979204 0.17029 0)
(0.992642 0.126442 0)
(0.980168 0.139298 0)
(0.99777 0.0907084 0)
(0.981319 0.116306 0)
(1.00007 0.0881026 0)
(0.987091 0.108854 0)
(1.00083 0.093799 0)
(0.992844 0.108416 0)
(1.00426 0.101215 0)
(1.00067 0.117722 0)
(1.01464 0.111874 0)
(1.01425 0.125012 0)
(1.02817 0.120467 0)
(1.03144 0.129916 0)
(0.977367 0.170795 0)
(0.996232 0.123926 0)
(0.982477 0.138195 0)
(1.00512 0.0925996 0)
(0.986608 0.112994 0)
(1.00554 0.0885881 0)
(0.996346 0.105372 0)
(1.01011 0.0931314 0)
(1.00487 0.105616 0)
(1.01652 0.0983544 0)
(1.01401 0.110311 0)
(1.02702 0.104453 0)
(1.02724 0.113273 0)
(1.03968 0.108317 0)
(1.04218 0.114682 0)
(0.975685 0.169873 0)
(0.997491 0.122896 0)
(0.985681 0.133351 0)
(1.00868 0.0949894 0)
(0.994979 0.108151 0)
(1.01208 0.0884613 0)
(1.00657 0.0992251 0)
(1.02021 0.0902221 0)
(1.01746 0.0987136 0)
(1.02966 0.0925286 0)
(1.02873 0.0993555 0)
(1.04064 0.0943307 0)
(1.04133 0.0988048 0)
(1.05227 0.0943495 0)
(1.05414 0.0974132 0)
(0.975884 0.16818 0)
(0.998946 0.121561 0)
(0.989854 0.12748 0)
(1.01133 0.0959367 0)
(1.00315 0.104257 0)
(1.01937 0.0885028 0)
(1.01607 0.0959462 0)
(1.03001 0.0882749 0)
(1.02885 0.0945681 0)
(1.04119 0.0887699 0)
(1.04132 0.0932021 0)
(1.05225 0.0881997 0)
(1.053 0.0910313 0)
(1.06252 0.0864779 0)
(1.0636 0.0884934 0)
(0.976532 0.164951 0)
(1.00203 0.12066 0)
(0.996105 0.117474 0)
(1.0172 0.09153 0)
(1.0133 0.0920806 0)
(1.02984 0.0793244 0)
(1.02823 0.0818735 0)
(1.04235 0.0752396 0)
(1.04222 0.0777879 0)
(1.05423 0.072884 0)
(1.0549 0.0744036 0)
(1.06509 0.0702521 0)
(1.06588 0.0710149 0)
(1.07451 0.0673477 0)
(1.07523 0.0677887 0)
(0.978003 0.159904 0)
(1.00435 0.121033 0)
(1.00253 0.114101 0)
(1.02263 0.0946566 0)
(1.02256 0.0928401 0)
(1.03915 0.082631 0)
(1.0399 0.0835662 0)
(1.05348 0.077655 0)
(1.05457 0.0787936 0)
(1.06564 0.0742837 0)
(1.06695 0.0749205 0)
(1.07611 0.0711054 0)
(1.07711 0.0713753 0)
(1.08457 0.0680207 0)
(1.08517 0.0681255 0)
(0.978315 0.149063 0)
(1.01294 0.106405 0)
(1.01533 0.0905553 0)
(1.03721 0.0715452 0)
(1.03803 0.0659828 0)
(1.05565 0.0559226 0)
(1.0568 0.0545058 0)
(1.0706 0.048742 0)
(1.07145 0.0484466 0)
(1.08239 0.0444099 0)
(1.08329 0.0442665 0)
(1.09229 0.0410824 0)
(1.09275 0.0408971 0)
(1.09988 0.0382258 0)
(1.09975 0.0380595 0)
(0.978932 0.145734 0)
(1.0239 0.113405 0)
(1.03412 0.0977123 0)
(1.05868 0.083285 0)
(1.06357 0.0765595 0)
(1.08196 0.0687464 0)
(1.08583 0.0658377 0)
(1.09956 0.0614031 0)
(1.10214 0.059835 0)
(1.11254 0.0568684 0)
(1.1144 0.0558434 0)
(1.12264 0.0535941 0)
(1.1237 0.0527654 0)
(1.13001 0.0508813 0)
(1.13028 0.0502029 0)
(0.980667 0.0959988 0)
(1.03997 0.0601003 0)
(1.05476 0.0422741 0)
(1.07985 0.0264531 0)
(1.0857 0.0210764 0)
(1.1043 0.0140606 0)
(1.1089 0.0130622 0)
(1.12242 0.00957349 0)
(1.12545 0.0096786 0)
(1.13557 0.00750834 0)
(1.13756 0.00781901 0)
(1.14532 0.0061487 0)
(1.14637 0.00640676 0)
(1.15223 0.00492953 0)
(1.15241 0.00515792 0)
(0.981804 0.104776 0)
(1.13154 0.0793725 0)
(1.15899 0.0616093 0)
(1.18941 0.0513006 0)
(1.20259 0.0434389 0)
(1.22227 0.0396301 0)
(1.23024 0.0360444 0)
(1.24281 0.0346665 0)
(1.24748 0.0324112 0)
(1.25611 0.0318915 0)
(1.25899 0.0305527 0)
(1.2651 0.0301904 0)
(1.26672 0.0292638 0)
(1.27122 0.0290342 0)
(1.27201 0.0282994 0)
(0.961281 0.215962 0)
(0.990389 0.202307 2.23986e-23)
(1.05573 0.209385 3.49396e-21)
(1.05038 0.195978 -4.50628e-21)
(1.12455 0.204933 -2.96411e-22)
(0.971259 0.196037 -1.05266e-20)
(1.03199 0.195064 4.04095e-21)
(1.04443 0.196711 -1.66941e-21)
(1.0861 0.189799 3.21449e-21)
(1.094 0.186872 -1.43811e-21)
(0.994653 0.177445 1.63533e-21)
(1.04668 0.177097 -3.45349e-21)
(1.04255 0.16891 -1.31893e-21)
(1.10141 0.16724 -2.75518e-21)
(1.08111 0.153263 0)
(1.01864 0.160073 6.43156e-21)
(1.04792 0.158896 2.26755e-21)
(1.05554 0.152593 1.05721e-21)
(1.09483 0.150715 -1.42515e-21)
(1.08691 0.136451 3.23738e-23)
(1.03435 0.142614 0)
(1.05172 0.140029 -3.77377e-21)
(1.06618 0.134361 -2.36251e-23)
(1.0875 0.130503 1.24409e-21)
(1.09144 0.118148 0)
(1.04548 0.125293 7.72589e-23)
(1.0586 0.121636 1.54623e-21)
(1.07212 0.116133 -3.54062e-23)
(1.08426 0.112028 2.50395e-23)
(1.09095 0.101995 9.73041e-23)
(1.05475 0.109499 -2.8372e-21)
(1.06543 0.105563 0)
(1.07583 0.0998666 5.23813e-22)
(1.08362 0.0962102 -2.68274e-22)
(1.08937 0.0880196 -8.26174e-23)
(1.06543 0.0927748 2.44454e-21)
(1.07379 0.0890012 -1.98194e-21)
(1.08161 0.0840116 -4.56466e-22)
(1.08591 0.0805694 8.1801e-22)
(1.09048 0.0743297 -1.28629e-22)
(1.07316 0.0838564 1.4857e-22)
(1.07953 0.0802093 1.57911e-21)
(1.08615 0.0755709 -1.01162e-21)