/*--------------------------------*- C++ -*----------------------------------*\
| =========                 |                                                 |
| \\      /  F ield         | OpenFOAM: The Open Source CFD Toolbox           |
|  \\    /   O peration     | Version:  2312                                  |
|   \\  /    A nd           | Website:  www.openfoam.com                      |
|    \\/     M anipulation  |                                                 |
\*---------------------------------------------------------------------------*/
FoamFile
{
    version     2.0;
    format      ascii;
    arch        "LSB;label=32;scalar=64";
    class       surfaceScalarField;
    location    "63.45";
    object      phi;
}
// * * * * * * * * * * * * * * * * * * * * * * * * * * * * * * * * * * * * * //

dimensions      [0 3 -1 0 0 0 0];

oriented        oriented;

internalField   nonuniform List<scalar> 
10785
(
-0.000644699
0.00444559
-0.00380089
0.000956487
0.00605678
-0.00765797
0.00733006
0.000477308
-0.00685088
0.021303
-0.0138096
-0.000163319
0.0446152
-0.0364858
0.0131736
0.0757043
-0.0641814
0.0330923
0.110492
-0.0925818
0.0577938
0.143977
-0.118191
0.0847069
0.171731
-0.138866
0.111111
0.191312
-0.154058
0.134477
0.202463
-0.164496
0.153344
0.208098
-0.171968
0.166333
0.210946
-0.178857
0.17601
0.213697
-0.184012
0.18126
-0.191748
0.189438
0.216007
-0.000253829
0.00469941
0.00302339
0.00277956
0.013932
-0.0104313
0.0352461
-0.0351237
0.0649268
-0.0661664
0.0974232
-0.0966779
0.126957
-0.122116
0.149648
-0.140882
0.164468
-0.153687
0.173017
-0.162607
0.178389
-0.169867
0.183487
-0.177066
0.188854
-0.184224
0.19598
-0.191138
-0.198819
0.203052
0.000660281
0.00403913
0.00717864
-0.00373879
0.0244068
-0.0276595
0.0513021
-0.0620189
0.0810284
-0.0958927
0.106967
-0.122616
0.125784
-0.140933
0.137719
-0.152817
0.145277
-0.161244
0.151177
-0.168507
0.156958
-0.175649
0.162541
-0.182648
0.167724
-0.189407
0.172536
-0.19595
-0.202378
0.176095
0.00186159
0.00217755
0.0128541
-0.0147313
0.0355381
-0.0503435
0.0626761
-0.0891569
0.0862622
-0.119479
0.102945
-0.139299
0.113552
-0.15154
0.120647
-0.159912
0.126276
-0.166872
0.131236
-0.173467
0.135516
-0.179929
0.139358
-0.18649
0.143201
-0.19325
0.147591
-0.20034
-0.208081
0.153295
0.0034298
-0.00125225
0.0191232
-0.0304248
0.043393
-0.0746133
0.0658232
-0.111587
0.0817632
-0.135419
0.0917674
-0.149304
0.0981721
-0.157945
0.102779
-0.164519
0.106463
-0.170556
0.10965
-0.176654
0.112797
-0.183076
0.116142
-0.189835
0.11966
-0.196768
0.12335
-0.20403
-0.211117
0.126385
0.00547125
-0.0067235
0.0242356
-0.0491891
0.0458003
-0.096178
0.0620258
-0.127813
0.0720333
-0.145426
0.0778442
-0.155115
0.0814592
-0.16156
0.0841076
-0.167167
0.0864258
-0.172874
0.0887082
-0.178937
0.0909417
-0.18531
0.0930311
-0.191924
0.0951063
-0.198843
0.0971479
-0.206072
-0.213702
0.0997327
0.00770032
-0.0144238
0.026606
-0.0680948
0.0434772
-0.113049
0.0541864
-0.138522
0.059883
-0.151123
0.0627985
-0.15803
0.0645174
-0.163279
0.0657925
-0.168442
0.0668483
-0.17393
0.0676999
-0.179788
0.0684159
-0.186026
0.0691651
-0.192673
0.0699985
-0.199676
0.0710079
-0.207081
-0.214662
0.0719686
0.00933697
-0.0237608
0.0258232
-0.0845811
0.0379918
-0.125218
0.0443058
-0.144836
0.0468896
-0.153707
0.0477371
-0.158877
0.0478881
-0.16343
0.0476987
-0.168253
0.0472883
-0.17352
0.046754
-0.179254
0.0461577
-0.185429
0.0454851
-0.192001
0.044814
-0.199005
0.0441866
-0.206454
0.0438615
-0.214337
-0.000590624
0.0153179
-0.0147272
-0.0030578
0.0293438
-0.0268766
-0.00697891
0.0347109
-0.0307898
-0.0117128
0.0365792
-0.0318454
-0.0167676
0.0374021
-0.0323473
-0.021836
0.0375326
-0.0324642
-0.0266653
0.0364606
-0.0316313
-0.0310004
0.0335041
-0.029169
-0.0345888
0.0279737
-0.0243854
-0.0372185
0.0192443
-0.0166147
-0.0387552
0.0066971
-0.00516035
-0.0384851
-0.00949867
0.00922855
-0.0360072
-0.0295878
0.02711
-0.0305957
-0.0535257
0.0481142
-0.0791879
-0.0227902
0.0713824
0.000969083
0.0143488
0.000973234
0.0293396
-0.000176529
0.0358606
-0.00171656
0.0381193
-0.00295641
0.038642
-0.00346268
0.0380389
-0.00297639
0.0359743
-0.00132286
0.0318506
0.00161255
0.0250383
0.00600595
0.0148509
0.0116129
0.00109016
0.0197255
-0.0176112
0.0296286
-0.039491
0.0430725
-0.0669696
-0.0947094
0.058594
0.00228087
0.0120679
0.00484994
0.0267705
0.0068562
0.0338544
0.00883494
0.0361405
0.0115981
0.0358788
0.0157082
0.0339287
0.0214477
0.0302349
0.0289116
0.0243866
0.0380232
0.0159267
0.0487443
0.0041299
0.0612597
-0.0114253
0.0767244
-0.033076
0.0945057
-0.0572722
0.115286
-0.0877498
-0.117542
0.138118
0.0029319
0.00913602
0.0074405
0.0222619
0.0121338
0.0291611
0.017189
0.0310853
0.0232857
0.0297821
0.03099
0.0262245
0.0405921
0.0206328
0.0521924
0.0127863
0.0656944
0.00242467
0.0823175
-0.0124932
0.101644
-0.0307519
0.12494
-0.0563718
0.151123
-0.0834555
0.179489
-0.116116
-0.14492
0.206868
0.00276268
0.00637334
0.00798034
0.0170443
0.0142127
0.0229287
0.0212495
0.0240485
0.0294666
0.021565
0.0393385
0.0163526
0.0512952
0.00867611
0.0658682
-0.00178674
0.0843628
-0.01607
0.106987
-0.035117
0.134642
-0.0584074
0.165907
-0.0876363
0.198974
-0.116523
0.230762
-0.147904
-0.170244
0.256086
0.00194917
0.00442416
0.00654633
0.0124471
0.0128169
0.0166581
0.0204004
0.0164651
0.0295258
0.0124395
0.0408895
0.00498898
0.0557755
-0.00620995
0.0754875
-0.0214987
0.10105
-0.0416329
0.131913
-0.0659794
0.167399
-0.0938932
0.202575
-0.122813
0.234983
-0.148931
0.259496
-0.172416
-0.183654
0.272906
0.000823621
0.00360054
0.0039157
0.00935504
0.00913346
0.0114404
0.0165403
0.0090582
0.0270082
0.00197168
0.0422087
-0.0102116
0.063632
-0.0276333
0.0918782
-0.0497448
0.125778
-0.0755325
0.162357
-0.102558
0.19774
-0.129277
0.226724
-0.151797
0.247824
-0.170031
0.257191
-0.181783
-0.186312
0.259848
-0.000200346
0.00149673
0.00608621
0.0149811
0.0301264
0.053007
0.0831676
0.11813
0.153708
0.185628
0.209695
0.224231
0.23021
0.229688
0.232814
-0.0131868
-0.224832
0.215229
-0.0169674
-0.287309
0.29109
-0.0120535
-0.331826
0.326912
0.0437645
-0.306766
0.250948
0.123311
-0.110617
0.03107
0.183545
0.143855
-0.204089
0.221054
0.28588
-0.323389
0.221933
0.334372
-0.335252
0.19075
0.402946
-0.371763
0.178961
0.389749
-0.37796
0.212475
0.165266
-0.19878
0.250408
-0.102977
0.0650439
0.261257
-0.249443
0.238594
0.250602
-0.340453
0.351108
0.242675
-0.404186
0.412113
0.249714
-0.358948
0.351908
0.261114
-0.186885
0.175486
0.264713
0.0837733
-0.0873723
0.272574
0.356467
-0.364328
0.293564
0.525795
-0.546786
0.299037
0.479654
-0.485127
0.274384
0.251975
-0.227321
0.244971
-0.173814
0.203227
0.243115
-0.501459
0.503315
0.256782
-0.341413
0.327746
0.257879
0.0612288
-0.0623252
0.241525
0.372123
-0.355769
0.216343
0.39487
-0.369688
0.196772
0.162397
-0.142826
0.188565
-0.098067
0.106274
0.191195
-0.291329
0.288698
0.205578
-0.348668
0.334285
0.224123
-0.293213
0.274669
0.235214
-0.218655
0.207564
0.238084
-0.161682
0.158812
0.237648
-0.0959373
0.096373
0.240989
-0.0736077
0.0702666
0.00509599
-0.0093612
0.0600902
-0.226328
0.042548
-0.269767
0.00305088
-0.292329
0.00562174
-0.309336
0.0794119
-0.184407
0.15968
0.0635867
0.213261
0.232299
0.220817
0.326816
0.197099
0.426664
0.194177
0.392671
0.223892
0.135551
0.255136
-0.134221
0.262679
-0.256986
0.249954
-0.327728
0.243198
-0.397429
0.249751
-0.3655
0.256292
-0.193427
0.258524
0.0815411
0.272063
0.342928
0.298521
0.499337
0.305761
0.472414
0.279916
0.277819
0.245315
-0.139212
0.240466
-0.49661
0.257555
-0.358501
0.261643
0.057141
0.245872
0.387894
0.220234
0.420508
0.200138
0.182493
0.191707
-0.0896363
0.19319
-0.292811
0.205612
-0.36109
0.225248
-0.312849
0.240297
-0.233704
0.24519
-0.166575
0.243229
-0.0939766
0.243205
-0.0735839
0.00259775
0.135527
-0.223737
0.126154
-0.260394
0.0806236
-0.246799
0.0272022
-0.255915
0.0612696
-0.218474
0.157528
-0.0326718
0.221467
0.168361
0.231864
0.316419
0.214685
0.443843
0.214917
0.39244
0.23611
0.114358
0.258453
-0.156565
0.25997
-0.258503
0.24105
-0.308809
0.234692
-0.391071
0.244127
-0.374935
0.248453
-0.197753
0.250497
0.0794976
0.268431
0.324994
0.29824
0.469527
0.307671
0.462983
0.282475
0.303015
0.243976
-0.100713
0.235366
-0.488
0.255575
-0.378711
0.263797
0.0489192
0.250054
0.401637
0.224397
0.446164
0.203199
0.203691
0.194165
-0.0806023
0.195138
-0.293784
0.205527
-0.371479
0.224228
-0.33155
0.242076
-0.251553
0.250305
-0.174804
0.248882
-0.092554
0.246257
-0.070959
0.00196546
0.188985
-0.205854
0.175148
-0.246556
0.153733
-0.225384
0.0916849
-0.193867
0.0709084
-0.197698
0.151206
-0.112969
0.22724
0.0923264
0.242379
0.30128
0.233231
0.452991
0.236118
0.389552
0.246643
0.103832
0.257922
-0.167843
0.258154
-0.258735
0.234653
-0.285308
0.222599
-0.379017
0.23531
-0.387647
0.241138
-0.203581
0.243219
0.0774169
0.261961
0.306252
0.292039
0.439449
0.304052
0.45097
0.281762
0.325306
0.241346
-0.0602971
0.228551
-0.475205
0.251006
-0.401166
0.264373
0.0355522
0.253945
0.412065
0.228714
0.471395
0.206204
0.226202
0.195996
-0.0703949
0.19644
-0.294227
0.205375
-0.380414
0.222259
-0.348434
0.241186
-0.270479
0.252803
-0.186421
0.253625
-0.0933753
0.249696
-0.0670302
0.00292373
0.227989
-0.177757
0.191951
-0.210519
0.176135
-0.209568
0.148083
-0.165816
0.103692
-0.153306
0.131607
-0.140884
0.209714
0.0142185
0.244177
0.266817
0.24964
0.447529
0.257541
0.381652
0.257202
0.104171
0.254559
-0.165201
0.251332
-0.255508
0.225969
-0.259945
0.205293
-0.35834
0.220135
-0.402489
0.23319
-0.216636
0.236873
0.0737338
0.25296
0.290165
0.280671
0.411737
0.295675
0.435966
0.277891
0.34309
0.237088
-0.0194941
0.220058
-0.458175
0.244024
-0.425132
0.263483
0.0160935
0.257094
0.418454
0.23257
0.49592
0.209004
0.249767
0.197381
-0.0587713
0.196881
-0.293727
0.2048
-0.388333
0.219976
-0.36361
0.238654
-0.289157
0.25284
-0.200608
0.256815
-0.0973506
0.253004
-0.0632193
0.00488721
0.240216
-0.145067
0.198859
-0.169162
0.168249
-0.178958
0.156405
-0.153972
0.13586
-0.132762
0.124727
-0.129751
0.168572
-0.0296265
0.216419
0.218969
0.242988
0.42096
0.264581
0.360058
0.265701
0.103051
0.25116
-0.150659
0.243514
-0.247861
0.219656
-0.236088
0.188897
-0.327581
0.199873
-0.413464
0.223584
-0.240347
0.231961
0.065357
0.242061
0.280065
0.264119
0.38968
0.282468
0.417617
0.271113
0.354445
0.231522
0.020097
0.210383
-0.437036
0.234704
-0.449453
0.260731
-0.00993347
0.259615
0.41957
0.236402
0.519132
0.211694
0.274475
0.198398
-0.0454752
0.19653
-0.29186
0.203527
-0.39533
0.217479
-0.377562
0.235314
-0.306992
0.251007
-0.216301
0.25825
-0.104593
0.25576
-0.0607292
0.00710801
0.225739
-0.110958
0.189762
-0.133184
0.159808
-0.149004
0.143237
-0.137401
0.138708
-0.128233
0.134814
-0.125856
0.155437
-0.0502496
0.202913
0.171493
0.242463
0.381411
0.267454
0.335067
0.265173
0.105332
0.241647
-0.127133
0.228861
-0.235075
0.209812
-0.217039
0.174061
-0.29183
0.175505
-0.414908
0.209485
-0.274327
0.225297
0.0495455
0.228934
0.276427
0.245681
0.372934
0.267635
0.395663
0.262699
0.359381
0.224419
0.0583774
0.199535
-0.412152
0.222903
-0.472821
0.256424
-0.0434544
0.260435
0.415559
0.238537
0.54103
0.213296
0.299716
0.198691
-0.0308703
0.195403
-0.288572
0.20148
-0.401408
0.214646
-0.390728
0.231618
-0.323964
0.247972
-0.232655
0.258062
-0.114684
0.257703
-0.0603705
0.00882681
0.208149
-0.0862929
0.178497
-0.103533
0.153892
-0.124399
0.136834
-0.120344
0.123906
-0.115304
0.122365
-0.124315
0.135114
-0.0629984
0.176183
0.130423
0.225958
0.331637
0.263004
0.298021
0.265329
0.103007
0.235957
-0.0977616
0.215995
-0.215113
0.199095
-0.200139
0.161354
-0.254089
0.152197
-0.405751
0.18915
-0.311281
0.216779
0.0219172
0.216871
0.276335
0.223733
0.366073
0.247644
0.371751
0.250745
0.35628
0.216518
0.0926042
0.188638
-0.384272
0.210117
-0.4943
0.24897
-0.0823078
0.260563
0.403966
0.241232
0.560361
0.214954
0.325994
0.198492
-0.0144078
0.19365
-0.28373
0.198986
-0.406744
0.211502
-0.403243
0.227765
-0.340227
0.244285
-0.249175
0.256573
-0.126972
0.258742
-0.0625388
0.00937848
0.457677
-0.0621926
-0.481777
0.430526
-0.0763817
0.401587
-0.0954599
0.369189
-0.0879462
0.331715
-0.0778306
0.288369
-0.0809694
0.241113
-0.0157416
0.230246
0.141291
0.304762
0.257121
0.41895
0.183832
0.486874
0.035083
0.485
-0.0958874
0.459077
-0.18919
0.439299
-0.180361
0.402659
-0.217449
0.369991
-0.373083
0.359858
-0.301147
0.325081
0.0566938
0.271401
0.330015
0.268771
0.368702
0.326662
0.313859
0.377285
0.305657
0.389661
0.0802288
0.386348
-0.380959
0.388361
-0.496313
0.389758
-0.0837047
0.374699
0.419026
0.353414
0.581646
0.340456
0.338951
0.336252
-0.010204
0.334823
-0.282301
0.337431
-0.409351
0.345468
-0.411281
0.358318
-0.353077
0.372555
-0.263412
0.384819
-0.139236
0.385253
-0.062973
0.0136133
0.481151
-0.0419003
-0.501443
0.457072
-0.052303
0.430555
-0.0689427
0.404178
-0.0615698
0.379187
-0.0528396
0.352183
-0.0539654
0.325935
0.0105065
0.355816
0.11141
0.444142
0.168795
0.51285
0.115125
0.539198
0.00873495
0.52033
-0.07702
0.483082
-0.151942
0.460031
-0.157311
0.428248
-0.185666
0.397965
-0.3428
0.386174
-0.289356
0.341224
0.101643
0.276881
0.394358
0.281075
0.364508
0.357884
0.237051
0.421845
0.241696
0.43814
0.0639339
0.433612
-0.376431
0.436926
-0.499627
0.435754
-0.082532
0.42202
0.432759
0.401577
0.602088
0.390084
0.350445
0.385955
-0.00607521
0.381486
-0.277832
0.380197
-0.408062
0.385205
-0.416289
0.395699
-0.363571
0.407764
-0.275477
0.41968
-0.151151
0.422206
-0.0654993
0.0166831
0.516093
-0.0281836
-0.529809
0.497753
-0.0339634
0.475176
-0.0463657
0.455784
-0.0421772
0.434036
-0.031092
0.412217
-0.0321463
0.405407
0.0173166
0.445372
0.071444
0.514547
0.0996196
0.556271
0.0734016
0.567826
-0.00282081
0.550143
-0.0593366
0.518176
-0.119975
0.506726
-0.14586
0.47896
-0.1579
0.428343
-0.292183
0.406821
-0.267834
0.36247
0.145994
0.299204
0.457624
0.314626
0.349087
0.406485
0.145191
0.481899
0.166283
0.494436
0.0513971
0.483304
-0.3653
0.485186
-0.501509
0.486279
-0.0836255
0.473195
0.445844
0.456311
0.618972
0.448123
0.358632
0.443444
-0.00139626
0.434962
-0.26935
0.428406
-0.401506
0.429037
-0.41692
0.436748
-0.371282
0.446803
-0.285532
0.457358
-0.161706
0.461099
-0.0692408
0.0183479
0.552552
-0.0168041
-0.563931
0.538447
-0.0198583
0.520411
-0.0283299
0.505032
-0.0267978
0.490676
-0.0167365
0.4782
-0.0196698
0.479362
0.0161542
0.509992
0.0408141
0.556848
0.0527636
0.582743
0.0475062
0.590526
-0.0106032
0.581083
-0.0498937
0.548362
-0.0872537
0.528209
-0.125707
0.504558
-0.134248
0.445305
-0.23293
0.401792
-0.224322
0.361833
0.185954
0.335058
0.484398
0.379748
0.304397
0.474814
0.0501255
0.547786
0.0933107
0.557157
0.0420259
0.539629
-0.347771
0.539003
-0.500883
0.541467
-0.0860895
0.531576
0.455735
0.520678
0.62987
0.517079
0.362231
0.511388
0.00429527
0.497461
-0.255423
0.484268
-0.388313
0.479134
-0.411786
0.482803
-0.374951
0.490374
-0.293103
0.498901
-0.170233
0.502801
-0.0731404
0.0188874
0.594396
-0.00824002
-0.60296
0.584843
-0.0103048
0.57177
-0.0152566
0.561396
-0.016424
0.552034
-0.00737501
0.543684
-0.0113197
0.54848
0.0113581
0.566527
0.0227673
0.595325
0.0239661
0.615957
0.0268736
0.618979
-0.013625
0.61463
-0.0455445
0.594843
-0.0674668
0.572841
-0.103705
0.546008
-0.107415
0.473192
-0.160115
0.407998
-0.159128
0.388162
0.20579
0.421722
0.450839
0.490106
0.236013
0.566712
-0.0264802
0.626095
0.0339268
0.62522
0.0429009
0.59668
-0.319231
0.589334
-0.493537
0.595636
-0.0923924
0.594326
0.457045
0.592743
0.631453
0.594851
0.360123
0.587631
0.0115151
0.567128
-0.234919
0.546165
-0.36735
0.534599
-0.40022
0.533632
-0.373983
0.53839
-0.297862
0.544769
-0.176611
0.548193
-0.0765644
0.0187614
0.642246
-0.00198616
-0.6485
0.635882
-0.00394132
0.627099
-0.00647361
0.619055
-0.00837974
0.614116
-0.00243583
0.608608
-0.00581192
0.613422
0.00654382
0.624913
0.0112765
0.640267
0.00861155
0.655682
0.0114591
0.658311
-0.0162541
0.650745
-0.0379779
0.632197
-0.048919
0.609352
-0.0808611
0.590371
-0.088434
0.52686
-0.0966039
0.455161
-0.0874286
0.475262
0.185689
0.567387
0.358714
0.632509
0.17089
0.663998
-0.0579692
0.69715
0.000775094
0.695875
0.0441762
0.655881
-0.279237
0.63366
-0.471316
0.638619
-0.0973509
0.649175
0.446489
0.666567
0.614061
0.680125
0.346565
0.671948
0.0196925
0.643642
-0.206614
0.61422
-0.337928
0.596012
-0.382012
0.590043
-0.368015
0.591427
-0.299246
0.595444
-0.180628
0.597974
-0.0790941
0.0184031
0.696311
0.00221503
-0.700512
0.691922
0.000447055
0.686308
-0.000859808
0.680953
-0.00302423
0.678223
0.000294457
0.674857
-0.0024464
0.677951
0.00345021
0.684699
0.00452822
0.692468
0.000842036
0.702227
0.00170082
0.702242
-0.0162694
0.696131
-0.0318666
0.686601
-0.0393888
0.664553
-0.0588134
0.641549
-0.0654304
0.593664
-0.0487182
0.543558
-0.0373227
0.595682
0.133565
0.704672
0.249724
0.749893
0.125668
0.739753
-0.047829
0.753254
-0.012726
0.7597
0.0377303
0.711725
-0.231262
0.667447
-0.427037
0.674597
-0.104501
0.709038
0.412049
0.749367
0.573731
0.770239
0.325694
0.75744
0.0324916
0.720773
-0.169947
0.684084
-0.301239
0.660814
-0.358742
0.650963
-0.358164
0.64934
-0.297623
0.651147
-0.182436
0.652633
-0.0805802
0.0180948
0.756046
0.00480767
-0.758639
0.753139
0.0033542
0.749736
0.00254373
0.746196
0.000515038
0.744493
0.00199783
0.742581
-0.00053455
0.744064
0.00196737
0.747947
0.000645487
0.751363
-0.00257461
0.756788
-0.00372385
0.756246
-0.015727
0.74915
-0.0247709
0.740659
-0.0308978
0.722769
-0.0409233
0.704131
-0.0467928
0.67805
-0.0226372
0.65225
-0.0115229
0.700329
0.0854866
0.791933
0.15812
0.824841
0.0927604
0.796747
-0.0197352
0.796073
-0.0120526
0.812993
0.0208112
0.764158
-0.182428
0.689862
-0.352741
0.683572
-0.0982116
0.74228
0.353341
0.810833
0.505178
0.846408
0.290118
0.837228
0.0416724
0.798248
-0.130968
0.757992
-0.260983
0.73095
-0.3317
0.717347
-0.344561
0.712507
-0.292783
0.712019
-0.181948
0.712362
-0.080923
0.0179664
0.821629
0.00625673
-0.823078
0.819971
0.00501237
0.817935
0.0045789
0.815811
0.00263919
0.814634
0.00317546
0.813397
0.000702168
0.813933
0.00143085
0.815563
-0.000984084
0.816745
-0.00375612
0.818801
-0.00577981
0.81709
-0.0140167
0.81138
-0.0190602
0.805637
-0.0251552
0.793034
-0.0283203
0.778554
-0.0323131
0.765431
-0.00951384
0.756108
-0.00220014
0.787889
0.0537061
0.849303
0.096705
0.875961
0.0661025
0.854192
0.00203374
0.848399
-0.00625969
0.862049
0.00716115
0.812226
-0.132604
0.708388
-0.248903
0.674517
-0.0643402
0.749169
0.278689
0.855826
0.398521
0.917575
0.228369
0.917323
0.041924
0.880486
-0.0941308
0.839211
-0.219708
0.80921
-0.301698
0.791536
-0.326887
0.782703
-0.28395
0.779222
-0.178467
0.777904
-0.0796051
0.0182439
0.893646
0.00699935
-0.894389
0.892736
0.00592242
0.891571
0.00574375
0.890281
0.00392895
0.889426
0.00403098
0.888531
0.00159691
0.888505
0.00145723
0.888778
-0.00125748
0.888742
-0.00372004
0.889013
-0.00605098
0.887123
-0.012126
0.882755
-0.014693
0.877876
-0.0202758
0.868784
-0.0192283
0.859761
-0.0232898
0.85442
-0.00417286
0.852732
-0.000512902
0.872186
0.0342521
0.910175
0.0587166
0.930346
0.0459314
0.916782
0.0155977
0.908176
0.00234605
0.913353
0.00198478
0.871107
-0.0903585
0.77012
-0.147917
0.726882
-0.0211022
0.806962
0.198609
0.928391
0.277092
0.994711
0.162049
0.993558
0.0430766
0.956974
-0.0575464
0.917439
-0.180173
0.88814
-0.272399
0.869231
-0.307979
0.858036
-0.272754
0.852243
-0.172674
0.849325
-0.0766867
0.0189914
0.972403
0.00728468
-0.972688
0.971978
0.00634709
0.971366
0.00635603
0.970611
0.00468348
0.969997
0.00464544
0.969279
0.00231467
0.968925
0.00181085
0.968561
-0.000893066
0.967967
-0.00312629
0.967344
-0.00542765
0.965418
-0.0102001
0.96202
-0.0112955
0.958633
-0.0168886
0.952976
-0.0135708
0.947904
-0.0182185
0.94608
-0.00234828
0.946656
-0.00108956
0.958854
0.0220548
0.981236
0.0363343
0.994091
0.033076
0.987101
0.0225876
0.980353
0.00909427
0.976051
0.00628653
0.940312
-0.0546188
0.870235
-0.0778395
0.84403
0.00510268
0.918615
0.124024
1.02104
0.174663
1.07239
0.110705
1.06713
0.0483384
1.03514
-0.0255619
1.00129
-0.14632
0.974285
-0.245396
0.95423
-0.287924
0.940324
-0.258849
0.931914
-0.164264
0.927266
-0.0720379
0.0201781
1.05852
0.00728385
-1.05852
1.05839
0.00647363
1.05811
0.00663089
1.0577
0.00510298
1.05727
0.00506691
1.05672
0.00286446
1.05627
0.00226276
1.05569
-0.000312673
1.0549
-0.00233882
1.05395
-0.00446876
1.05238
-0.00863197
1.05003
-0.00894948
1.04767
-0.0145283
1.04424
-0.0101382
1.0414
-0.0153837
1.04121
-0.00215367
1.04276
-0.00263564
1.05013
0.0146773
1.06274
0.023728
1.07032
0.0254929
1.06629
0.0266205
1.0609
0.0144861
1.05341
0.0137698
1.02587
-0.0270747
0.984381
-0.0363506
0.978154
0.0113298
1.03664
0.0655417
1.10867
0.102625
1.14266
0.0767223
1.13784
0.053158
1.11494
-0.0026615
1.08942
-0.120802
1.06619
-0.222168
1.04581
-0.267545
1.02967
-0.242705
1.01884
-0.153438
1.01224
-0.065437
0.0220165
1.15271
0.00712571
-1.15255
1.15277
0.00641934
1.15271
0.00668692
1.15252
0.00528961
1.15228
0.00531426
1.15188
0.0032565
1.15147
0.002678
1.1509
0.000252628
1.15021
-0.00164016
1.14932
-0.00358605
1.14816
-0.00746449
1.14652
-0.00731439
1.14494
-0.0129463
1.14307
-0.00826688
1.14163
-0.0139422
1.14191
-0.00244034
1.14333
-0.00404981
1.14765
0.0103512
1.15422
0.0171649
1.15832
0.0213862
1.15605
0.028889
1.15172
0.0188165
1.14448
0.0210091
1.12597
-0.00855706
1.10354
-0.0139242
1.10598
0.00888881
1.14668
0.0248402
1.19422
0.0550848
1.2175
0.0534495
1.21606
0.0545941
1.2019
0.0114979
1.18408
-0.102982
1.16425
-0.202336
1.14347
-0.246767
1.12515
-0.224386
1.11218
-0.140464
1.10429
-0.0575491
0.0239575
1.25572
0.00686557
-1.25546
1.25591
0.00623599
1.256
0.00659116
1.25599
0.0053055
1.25589
0.00540815
1.25568
0.0034734
1.2554
0.0029535
1.25499
0.000666322
1.25448
-0.00113721
1.2538
-0.00289809
1.253
-0.00667358
1.25196
-0.00627268
1.251
-0.011985
1.24999
-0.00725406
1.24928
-0.0132373
1.24958
-0.00273144
1.25056
-0.00503386
1.25297
0.00794084
1.25612
0.0140126
1.25818
0.0193296
1.25666
0.0304071
1.25342
0.0220611
1.24793
0.0264961
1.23676
0.00261472
1.22587
-0.00303358
1.23116
0.00359703
1.25825
-0.00225508
1.28845
0.024884
1.30375
0.0381523
1.30475
0.0535929
1.29788
0.0183682
1.28616
-0.0912623
1.26947
-0.185642
1.24871
-0.226004
1.2288
-0.204483
1.21399
-0.125651
1.20448
-0.04804
0.0263445
1.36853
0.0065138
-1.36817
1.36881
0.00594884
1.36904
0.00636517
1.36917
0.00517707
1.36923
0.00534042
1.36918
0.00352551
1.36908
0.00306028
1.36883
0.00091313
1.36852
-0.000830656
1.36805
-0.00242301
1.36754
-0.00616572
1.36687
-0.00560271
1.36623
-0.0113476
1.36566
-0.00668466
1.3652
-0.0127784
1.36541
-0.00293334
1.36588
-0.005503
1.36713
0.00668224
1.36849
0.0126564
1.36956
0.0182596
1.36869
0.0312774
1.3668
0.0239553
1.36366
0.0296271
1.35762
0.00866176
1.35329
0.00129867
1.35901
-0.00212324
1.37633
-0.0195833
1.39437
0.00684877
1.40385
0.0286678
1.40703
0.0504117
1.4056
0.0198016
1.39809
-0.0837519
1.38209
-0.169641
1.35955
-0.203468
1.33742
-0.182353
1.32133
-0.109553
1.31191
-0.0386222
0.0278404
1.49192
0.00608668
-1.4915
1.4923
0.00556896
1.49265
0.00602158
1.49291
0.00491721
1.49312
0.00512518
1.49322
0.00342271
1.49328
0.00300032
1.49321
0.000987862
1.4931
-0.000716457
1.49283
-0.00215693
1.49254
-0.00587208
1.49212
-0.00518485
1.49169
-0.0109228
1.49133
-0.00631775
1.49092
-0.0123762
1.49095
-0.00296097
1.49096
-0.00551478
1.49159
0.00605995
1.49212
0.0121187
1.49289
0.0174925
1.49259
0.0315766
1.49192
0.0246262
1.49088
0.0306719
1.48815
0.0113915
1.48742
0.00202696
1.49258
-0.00728482
1.50309
-0.0300985
1.51289
-0.00294622
1.5181
0.023454
1.52242
0.046096
1.52437
0.0178545
1.51867
-0.0780517
1.50256
-0.153537
1.47871
-0.179617
1.45548
-0.159122
1.43877
-0.0928441
1.42905
-0.028903
0.0289244
1.62734
0.00547767
-1.62674
1.6279
0.00500953
1.62845
0.00547695
1.62889
0.00447826
1.6293
0.00471537
1.62955
0.00317036
1.62975
0.00279801
1.62976
0.00098281
1.62967
-0.000630139
1.62938
-0.00186854
1.62895
-0.00544447
1.6284
-0.00463361
1.62768
-0.0101972
1.62707
-0.00571232
1.62623
-0.011532
1.62602
-0.00275632
1.62557
-0.00506068
1.62606
0.005568
1.62661
0.0115655
1.62782
0.0162877
1.62899
0.0304073
1.63023
0.023382
1.6315
0.0294001
1.63102
0.0118774
1.63227
0.000772265
1.63567
-0.0106844
1.63937
-0.0337907
1.64269
-0.00626682
1.64639
0.0197476
1.65389
0.0385976
1.65821
0.0135303
1.6502
-0.0700386
1.62899
-0.132324
1.60039
-0.151017
1.57509
-0.13382
1.55919
-0.076944
1.55255
-0.022271
0.0270622
1.77553
0.00466269
-1.77471
1.77628
0.00425428
1.77705
0.00470814
1.77767
0.00385429
1.77829
0.00409539
1.77868
0.002782
1.77902
0.00246205
1.77909
0.000914662
1.77898
-0.000525018
1.77867
-0.00155626
1.77802
-0.0047916
1.7773
-0.00391907
1.77617
-0.00906917
1.77523
-0.00477063
1.77389
-0.0101946
1.7733
-0.00216477
1.77236
-0.00411771
1.77279
0.00513339
1.77351
0.0108539
1.7753
0.0144958
1.77791
0.0277991
1.781
0.0202847
1.78437
0.0260379
1.78548
0.0107611
1.78806
-0.00180444
1.78922
-0.0118476
1.78613
-0.0306952
1.78456
-0.00470412
1.78879
0.0155186
1.80002
0.0273662
1.80593
0.00762631
1.79431
-0.0584196
1.76721
-0.105229
1.73468
-0.118488
1.7094
-0.108536
1.69544
-0.0629813
1.69078
-0.0176172
0.0235978
1.93955
0.0031117
-1.93799
1.94099
0.00280624
1.94251
0.00318639
1.94375
0.0026182
1.94498
0.00286677
1.94571
0.00204953
1.94624
0.00192995
1.94615
0.00100852
1.94545
0.000179656
1.94428
-0.000388802
1.94189
-0.00240733
1.93954
-0.00156417
1.93568
-0.00520845
1.93254
-0.00162828
1.92852
-0.00618148
1.92624
0.000121808
1.9241
-0.00198293
1.92504
0.00419492
1.92789
0.00800256
1.93228
0.0101073
1.94144
0.0186371
1.95029
0.011437
1.95964
0.0166843
1.96415
0.00624958
1.96517
-0.00282316
1.95819
-0.00486646
1.94077
-0.0132749
1.93413
0.00193644
1.94361
0.00604395
1.96185
0.00912653
1.96949
-1.86179e-05
1.94902
-0.0379495
1.90968
-0.0658879
1.86959
-0.0783933
1.84307
-0.0820226
1.83165
-0.0515554
1.83262
-0.0185879
0.0148977
2.11554
0.00167289
-2.1141
2.11684
0.00150786
2.11829
0.00173888
2.11943
0.00147347
2.12063
0.00166647
2.12135
0.00133594
2.12189
0.00138725
2.12182
0.00107589
2.12116
0.000842663
2.12001
0.000760625
2.1176
-4.97268e-07
2.11538
0.000657433
2.11123
-0.0010604
2.10853
0.00107582
2.10401
-0.00166144
2.10224
0.00189174
2.1003
-4.26849e-05
2.10153
0.00296818
2.10554
0.00399308
2.11064
0.00500121
2.12145
0.00783375
2.12937
0.00351293
2.13917
0.00688311
2.14328
0.00214009
2.1407
-0.000240597
2.13354
0.00229611
2.11914
0.00112251
2.11514
0.00593286
2.12023
0.000959331
2.12951
-0.000155852
2.13469
-0.00519569
2.12053
-0.0237973
2.09406
-0.0394182
2.06529
-0.0496224
2.0401
-0.0568292
2.0265
-0.0379612
2.02609
-0.0181707
0.00723598
2.30534
0.00104582
-2.30471
2.30588
0.000961295
2.30655
0.00107583
2.30707
0.000945395
2.30769
0.00104813
2.30814
0.000890261
2.3086
0.000930766
2.30886
0.000808151
2.30901
0.000693309
2.30903
0.000745622
2.30869
0.000337538
2.30856
0.000788905
2.30755
-5.71433e-05
2.30759
0.0010397
2.30615
-0.000222444
2.30652
0.00152746
2.30611
0.000366994
2.30699
0.00208433
2.30902
0.00196676
2.31161
0.00240595
2.31587
0.00358009
2.31752
0.00185776
2.32108
0.00332264
2.32201
0.00121566
2.32033
0.00143145
2.32068
0.0019476
2.32099
0.000814008
2.32282
0.00409982
2.32115
0.00262844
2.31943
0.00156575
2.31946
-0.00522309
2.31406
-0.0183963
2.30298
-0.0283355
2.28627
-0.0329168
2.26443
-0.0349857
2.2494
-0.022931
2.2437
-0.0124715
0.00386018
2.5166
0.000466891
-2.51602
2.51712
0.000435969
2.51771
0.000490601
2.51821
0.000448655
2.51875
0.000501807
2.51918
0.000462582
2.51962
0.000494554
2.51994
0.000486343
2.52017
0.000460818
2.52038
0.000535075
2.52032
0.000396451
2.52048
0.000629816
2.52012
0.000308454
2.52038
0.00077738
2.5199
0.000256035
2.52051
0.000921167
2.5205
0.000374482
2.52164
0.000946552
2.5229
0.000702018
2.52451
0.000796692
2.52707
0.00101928
2.52855
0.000380803
2.53084
0.00102933
2.53161
0.000448339
2.53219
0.000851367
2.5326
0.00153852
2.53177
0.00163928
2.53314
0.00273688
2.53453
0.00123872
2.53607
1.97018e-05
2.53392
-0.00307421
2.52338
-0.00785724
2.5073
-0.0122467
2.48898
-0.0146009
2.4706
-0.0166023
2.45934
-0.0116702
2.45464
-0.00777583
0.000745549
2.74764
-2.74717
2.74807
2.74856
2.74901
2.74951
2.74998
2.75047
2.75096
2.75142
2.75195
2.75235
2.75298
2.75329
2.75406
2.75432
2.75524
2.75562
2.75656
2.75726
2.75806
2.75908
2.75946
2.76049
2.76094
2.76179
2.76333
2.76497
2.76771
2.76894
2.76896
2.76589
2.75803
2.74579
2.73118
2.71458
2.70291
2.69514
0.437331
0.0377078
-0.431177
0.445253
0.0640462
0.450403
0.094583
0.459096
0.117692
0.463657
0.148734
0.472363
0.167388
0.477998
0.197417
0.212228
0.46614
0.0328546
-0.461286
0.472475
0.057711
0.477053
0.0900043
0.483361
0.111384
0.487628
0.144467
0.491989
0.163027
0.49755
0.191855
0.208335
0.499551
0.0289601
-0.495657
0.503814
0.0534478
0.507658
0.0861604
0.511011
0.108032
0.515814
0.139664
0.51936
0.159481
0.525567
0.185649
0.204092
0.536125
0.0257341
-0.532899
0.538864
0.0507086
0.54277
0.0822546
0.545805
0.104997
0.551195
0.134274
0.554738
0.155938
0.559958
0.180429
0.200119
0.577358
0.0230168
-0.574641
0.579506
0.0485611
0.583511
0.0782491
0.586364
0.102144
0.590876
0.129762
0.594086
0.152728
0.598584
0.175931
0.195743
0.62348
0.0206828
-0.621146
0.625374
0.0466672
0.628808
0.0748145
0.631253
0.0997
0.635076
0.125939
0.63882
0.148984
0.643654
0.171097
0.190897
0.674512
0.0188505
-0.67268
0.676194
0.0449857
0.679077
0.0719314
0.681893
0.0968836
0.685967
0.121865
0.690507
0.144444
0.695517
0.166086
0.185903
0.731049
0.0174156
-0.729614
0.732837
0.0431977
0.735728
0.0690399
0.739096
0.0935158
0.743413
0.117549
0.748027
0.13983
0.753078
0.161034
0.180342
0.793759
0.016171
-0.792514
0.795687
0.0412696
0.798585
0.0661418
0.802079
0.0900222
0.806323
0.113304
0.81117
0.134983
0.816864
0.155341
0.174128
0.862813
0.0150931
-0.861735
0.864755
0.0393278
0.867646
0.0632502
0.871336
0.0863324
0.875967
0.108674
0.881447
0.129502
0.887643
0.149145
0.167382
0.938721
0.0141005
-0.937729
0.940738
0.037311
0.943794
0.060194
0.947818
0.0823085
0.952833
0.103659
0.95868
0.123655
0.96531
0.142515
0.160005
1.02202
0.0131476
-1.02107
1.02412
0.0352115
1.02735
0.0569696
1.03165
0.0780072
1.03699
0.0983183
1.04328
0.117369
1.05047
0.135321
0.15196
1.11327
0.012216
-1.11234
1.11546
0.0330181
1.11889
0.0535445
1.1235
0.0733955
1.12925
0.0925693
1.13605
0.110568
1.14383
0.127538