/*--------------------------------*- C++ -*----------------------------------*\
| =========                 |                                                 |
| \\      /  F ield         | OpenFOAM: The Open Source CFD Toolbox           |
|  \\    /   O peration     | Version:  2512                                  |
|   \\  /    A nd           | Website:  www.openfoam.com                      |
|    \\/     M anipulation  |                                                 |
\*---------------------------------------------------------------------------*/
FoamFile
{
    version     2.0;
    format      ascii;
    arch        "LSB;label=32;scalar=64";
    class       volVectorField;
    location    "55.5";
    object      U;
}
// * * * * * * * * * * * * * * * * * * * * * * * * * * * * * * * * * * * * * //

dimensions      [0 1 -1 0 0 0 0];

internalField   nonuniform List<vector> 
9800
(
(1 -3.25613e-05 0)
(1.00013 -9.52093e-05 0)
(1.00037 -0.000152968 0)
(1.0007 -0.000205608 0)
(1.00111 -0.000253644 0)
(1.00158 -0.000297944 0)
(1.00211 -0.000339407 0)
(1.00268 -0.00037881 0)
(1.00328 -0.000416769 0)
(1.00392 -0.000453754 0)
(1.00459 -0.000490095 0)
(1.00529 -0.00052596 0)
(1.00601 -0.000561355 0)
(1.00674 -0.000596123 0)
(1.0075 -0.000629976 0)
(1.00827 -0.000662526 0)
(1.00905 -0.000693343 0)
(1.00984 -0.000722 0)
(1.01063 -0.000748116 0)
(1.01142 -0.000771383 0)
(1.0122 -0.00079158 0)
(1.01298 -0.000808577 0)
(1.01374 -0.000822333 0)
(1.01449 -0.000832884 0)
(1.01521 -0.000840332 0)
(1.01592 -0.000844831 0)
(1.01661 -0.000846569 0)
(1.01727 -0.000845759 0)
(1.01791 -0.000842629 0)
(1.01853 -0.000837415 0)
(1.01911 -0.000830351 0)
(1.01968 -0.000821666 0)
(1.02021 -0.00081158 0)
(1.02072 -0.000800299 0)
(1.02121 -0.000788018 0)
(1.02167 -0.000774915 0)
(1.02211 -0.000761157 0)
(1.02253 -0.000746888 0)
(1.02292 -0.000732249 0)
(1.02329 -0.000717352 0)
(1 -9.64903e-05 0)
(1.00013 -0.000282172 0)
(1.00037 -0.000453374 0)
(1.0007 -0.000609409 0)
(1.00111 -0.000751806 0)
(1.00158 -0.00088315 0)
(1.0021 -0.00100613 0)
(1.00267 -0.00112307 0)
(1.00328 -0.00123582 0)
(1.00392 -0.00134579 0)
(1.00459 -0.00145397 0)
(1.00529 -0.00156086 0)
(1.00601 -0.00166647 0)
(1.00675 -0.00177032 0)
(1.00751 -0.00187154 0)
(1.00829 -0.00196895 0)
(1.00907 -0.00206125 0)
(1.00987 -0.00214717 0)
(1.01067 -0.00222554 0)
(1.01146 -0.00229543 0)
(1.01225 -0.00235618 0)
(1.01304 -0.00240738 0)
(1.01381 -0.00244889 0)
(1.01457 -0.00248082 0)
(1.01531 -0.00250346 0)
(1.01602 -0.00251726 0)
(1.01672 -0.00252279 0)
(1.01739 -0.00252067 0)
(1.01804 -0.00251158 0)
(1.01867 -0.00249623 0)
(1.01926 -0.00247531 0)
(1.01984 -0.00244952 0)
(1.02038 -0.00241951 0)
(1.0209 -0.00238589 0)
(1.02139 -0.00234926 0)
(1.02186 -0.00231014 0)
(1.02231 -0.00226905 0)
(1.02273 -0.0022264 0)
(1.02313 -0.00218263 0)
(1.0235 -0.00213807 0)
(1 -0.000157996 0)
(1.00013 -0.000462087 0)
(1.00037 -0.000742498 0)
(1.0007 -0.000998113 0)
(1.00111 -0.00123144 0)
(1.00158 -0.00144679 0)
(1.0021 -0.00164861 0)
(1.00267 -0.00184076 0)
(1.00327 -0.00202635 0)
(1.00392 -0.00220773 0)
(1.00459 -0.00238653 0)
(1.00529 -0.00256359 0)
(1.00601 -0.00273888 0)
(1.00676 -0.00291157 0)
(1.00753 -0.00308016 0)
(1.00831 -0.00324268 0)
(1.00911 -0.00339693 0)
(1.00992 -0.00354074 0)
(1.01073 -0.00367215 0)
(1.01154 -0.00378957 0)
(1.01235 -0.00389185 0)
(1.01315 -0.00397828 0)
(1.01394 -0.0040486 0)
(1.01472 -0.00410297 0)
(1.01548 -0.00414182 0)
(1.01621 -0.00416591 0)
(1.01693 -0.00417612 0)
(1.01762 -0.00417351 0)
(1.01829 -0.0041592 0)
(1.01893 -0.00413435 0)
(1.01955 -0.00410013 0)
(1.02014 -0.00405767 0)
(1.0207 -0.00400809 0)
(1.02123 -0.00395242 0)
(1.02174 -0.00389162 0)
(1.02222 -0.00382661 0)
(1.02268 -0.00375822 0)
(1.02312 -0.00368718 0)
(1.02353 -0.00361421 0)
(1.02392 -0.00353988 0)
(1 -0.000216997 0)
(1.00013 -0.000634697 0)
(1.00037 -0.00101995 0)
(1.0007 -0.00137124 0)
(1.0011 -0.00169207 0)
(1.00157 -0.00198846 0)
(1.00209 -0.00226664 0)
(1.00266 -0.00253203 0)
(1.00326 -0.00278901 0)
(1.0039 -0.00304086 0)
(1.00458 -0.00328988 0)
(1.00528 -0.00353716 0)
(1.00601 -0.00378265 0)
(1.00677 -0.00402512 0)
(1.00755 -0.00426239 0)
(1.00834 -0.00449163 0)
(1.00916 -0.00470968 0)
(1.00998 -0.00491344 0)
(1.01081 -0.00510009 0)
(1.01165 -0.00526733 0)
(1.01248 -0.00541344 0)
(1.0133 -0.00553738 0)
(1.01412 -0.0056387 0)
(1.01492 -0.00571757 0)
(1.01571 -0.00577455 0)
(1.01648 -0.00581063 0)
(1.01722 -0.00582703 0)
(1.01794 -0.00582521 0)
(1.01864 -0.00580671 0)
(1.01931 -0.00577317 0)
(1.01995 -0.00572622 0)
(1.02056 -0.00566747 0)
(1.02115 -0.00559847 0)
(1.02171 -0.00552068 0)
(1.02224 -0.00543552 0)
(1.02274 -0.00534424 0)
(1.02322 -0.00524807 0)
(1.02367 -0.00514803 0)
(1.0241 -0.00504516 0)
(1.0245 -0.00494027 0)
(1 -0.000273396 0)
(1.00013 -0.000799729 0)
(1.00036 -0.00128533 0)
(1.00069 -0.00172826 0)
(1.00109 -0.00213312 0)
(1.00156 -0.00250759 0)
(1.00208 -0.00285971 0)
(1.00264 -0.00319654 0)
(1.00324 -0.00352373 0)
(1.00388 -0.00384555 0)
(1.00456 -0.0041649 0)
(1.00526 -0.00448318 0)
(1.006 -0.00480024 0)
(1.00676 -0.00511441 0)
(1.00755 -0.00542274 0)
(1.00837 -0.00572148 0)
(1.0092 -0.00600644 0)
(1.01005 -0.00627351 0)
(1.0109 -0.00651891 0)
(1.01176 -0.00673955 0)
(1.01263 -0.00693306 0)
(1.01349 -0.00709798 0)
(1.01434 -0.00723362 0)
(1.01518 -0.00734008 0)
(1.016 -0.007418 0)
(1.0168 -0.00746856 0)
(1.01758 -0.0074933 0)
(1.01834 -0.00749404 0)
(1.01907 -0.00747276 0)
(1.01978 -0.00743157 0)
(1.02045 -0.00737257 0)
(1.0211 -0.00729785 0)
(1.02172 -0.00720946 0)
(1.02231 -0.0071093 0)
(1.02287 -0.00699923 0)
(1.0234 -0.00688093 0)
(1.0239 -0.00675601 0)
(1.02438 -0.00662584 0)
(1.02483 -0.00649181 0)
(1.02526 -0.00635498 0)
(1 -0.000327075 0)
(1.00013 -0.000956848 0)
(1.00036 -0.00153808 0)
(1.00068 -0.00206848 0)
(1.00108 -0.00255372 0)
(1.00154 -0.00300319 0)
(1.00205 -0.00342681 0)
(1.00261 -0.00383329 0)
(1.00321 -0.00422968 0)
(1.00384 -0.00462122 0)
(1.00452 -0.00501144 0)
(1.00523 -0.00540202 0)
(1.00597 -0.00579271 0)
(1.00674 -0.0061813 0)
(1.00755 -0.00656404 0)
(1.00838 -0.00693611 0)
(1.00923 -0.00729224 0)
(1.0101 -0.00762718 0)
(1.01099 -0.0079361 0)
(1.01188 -0.00821497 0)
(1.01278 -0.00846068 0)
(1.01368 -0.00867126 0)
(1.01457 -0.00884567 0)
(1.01546 -0.00898387 0)
(1.01632 -0.00908649 0)
(1.01717 -0.00915487 0)
(1.018 -0.00919078 0)
(1.0188 -0.00919644 0)
(1.01958 -0.00917423 0)
(1.02033 -0.00912673 0)
(1.02105 -0.00905654 0)
(1.02174 -0.00896624 0)
(1.0224 -0.0088584 0)
(1.02302 -0.00873541 0)
(1.02362 -0.00859964 0)
(1.02419 -0.00845318 0)
(1.02472 -0.00829812 0)
(1.02523 -0.00813618 0)
(1.02571 -0.00796917 0)
(1.02616 -0.00779841 0)
(1 -0.000377883 0)
(1.00012 -0.00110565 0)
(1.00035 -0.00177751 0)
(1.00067 -0.00239098 0)
(1.00106 -0.00295271 0)
(1.00151 -0.00347392 0)
(1.00201 -0.00396645 0)
(1.00256 -0.00444075 0)
(1.00316 -0.00490532 0)
(1.00379 -0.00536644 0)
(1.00446 -0.00582831 0)
(1.00517 -0.0062929 0)
(1.00591 -0.00675981 0)
(1.0067 -0.00722624 0)
(1.00751 -0.0076875 0)
(1.00836 -0.00813769 0)
(1.00924 -0.00857028 0)
(1.01014 -0.0089788 0)
(1.01106 -0.00935717 0)
(1.01199 -0.00970033 0)
(1.01293 -0.0100043 0)
(1.01388 -0.0102664 0)
(1.01482 -0.0104853 0)
(1.01575 -0.0106605 0)
(1.01667 -0.0107926 0)
(1.01757 -0.0108831 0)
(1.01845 -0.0109339 0)
(1.01931 -0.0109475 0)
(1.02014 -0.0109268 0)
(1.02095 -0.0108747 0)
(1.02172 -0.0107945 0)
(1.02246 -0.0106891 0)
(1.02317 -0.0105618 0)
(1.02384 -0.0104154 0)
(1.02448 -0.0102528 0)
(1.02509 -0.0100767 0)
(1.02567 -0.00988971 0)
(1.02621 -0.00969385 0)
(1.02673 -0.00949145 0)
(1.02721 -0.00928414 0)
(1 -0.000425657 0)
(1.00012 -0.00124565 0)
(1.00034 -0.00200284 0)
(1.00065 -0.00269465 0)
(1.00104 -0.00332874 0)
(1.00147 -0.00391815 0)
(1.00197 -0.00447671 0)
(1.0025 -0.00501681 0)
(1.00308 -0.00554845 0)
(1.00371 -0.00607899 0)
(1.00437 -0.00661343 0)
(1.00508 -0.00715399 0)
(1.00583 -0.00770009 0)
(1.00662 -0.00824824 0)
(1.00745 -0.0087928 0)
(1.00831 -0.00932668 0)
(1.00921 -0.00984201 0)
(1.01014 -0.0103309 0)
(1.0111 -0.0107858 0)
(1.01207 -0.0112005 0)
(1.01306 -0.01157 0)
(1.01405 -0.011891 0)
(1.01505 -0.0121612 0)
(1.01604 -0.01238 0)
(1.01702 -0.0125477 0)
(1.01799 -0.0126656 0)
(1.01893 -0.0127359 0)
(1.01986 -0.0127614 0)
(1.02075 -0.0127453 0)
(1.02162 -0.012691 0)
(1.02245 -0.0126022 0)
(1.02325 -0.0124825 0)
(1.02402 -0.0123357 0)
(1.02475 -0.0121652 0)
(1.02545 -0.0119747 0)
(1.02611 -0.0117672 0)
(1.02673 -0.0115459 0)
(1.02732 -0.0113134 0)
(1.02788 -0.0110726 0)
(1.0284 -0.0108254 0)
(1 -0.000470232 0)
(1.00012 -0.00137632 0)
(1.00033 -0.00221323 0)
(1.00063 -0.0029783 0)
(1.001 -0.0036803 0)
(1.00143 -0.004334 0)
(1.0019 -0.00495545 0)
(1.00242 -0.00555906 0)
(1.00299 -0.00615638 0)
(1.0036 -0.006756 0)
(1.00425 -0.00736386 0)
(1.00495 -0.00798246 0)
(1.0057 -0.00861091 0)
(1.00649 -0.00924499 0)
(1.00733 -0.00987811 0)
(1.00822 -0.010502 0)
(1.00914 -0.0111071 0)
(1.0101 -0.0116841 0)
(1.01109 -0.0122237 0)
(1.01211 -0.0127186 0)
(1.01315 -0.0131623 0)
(1.0142 -0.0135508 0)
(1.01525 -0.0138808 0)
(1.01631 -0.0141511 0)
(1.01736 -0.0143616 0)
(1.0184 -0.0145137 0)
(1.01942 -0.0146094 0)
(1.02042 -0.0146518 0)
(1.02139 -0.0146444 0)
(1.02233 -0.0145909 0)
(1.02324 -0.0144956 0)
(1.02411 -0.0143627 0)
(1.02494 -0.0141966 0)
(1.02574 -0.0140015 0)
(1.0265 -0.0137815 0)
(1.02722 -0.0135405 0)
(1.0279 -0.0132822 0)
(1.02854 -0.0130098 0)
(1.02915 -0.0127269 0)
(1.02972 -0.0124358 0)
(1 -0.000511449 0)
(1.00011 -0.00149713 0)
(1.00032 -0.00240782 0)
(1.00061 -0.00324074 0)
(1.00096 -0.0040058 0)
(1.00137 -0.0047195 0)
(1.00182 -0.00540041 0)
(1.00232 -0.00606483 0)
(1.00287 -0.00672601 0)
(1.00346 -0.00739403 0)
(1.0041 -0.00807599 0)
(1.00479 -0.00877462 0)
(1.00553 -0.00948857 0)
(1.00632 -0.0102129 0)
(1.00717 -0.0109402 0)
(1.00806 -0.0116609 0)
(1.00901 -0.0123637 0)
(1.01 -0.0130374 0)
(1.01103 -0.013671 0)
(1.01209 -0.0142557 0)
(1.01318 -0.0147839 0)
(1.01429 -0.0152499 0)
(1.01542 -0.0156497 0)
(1.01655 -0.0159811 0)
(1.01767 -0.0162435 0)
(1.01879 -0.016438 0)
(1.01989 -0.0165664 0)
(1.02098 -0.0166321 0)
(1.02203 -0.0166384 0)
(1.02306 -0.0165898 0)
(1.02405 -0.0164909 0)
(1.02501 -0.0163465 0)
(1.02593 -0.0161618 0)
(1.0268 -0.0159414 0)
(1.02764 -0.0156905 0)
(1.02843 -0.0154134 0)
(1.02917 -0.015115 0)
(1.02988 -0.0147988 0)
(1.03054 -0.0144692 0)
(1.03116 -0.0141291 0)
(1 -0.000549133 0)
(1.00011 -0.0016076 0)
(1.0003 -0.00258573 0)
(1.00057 -0.00348087 0)
(1.00091 -0.00430361 0)
(1.00129 -0.00507276 0)
(1.00172 -0.00580926 0)
(1.0022 -0.00653131 0)
(1.00272 -0.00725397 0)
(1.00328 -0.0079893 0)
(1.0039 -0.0087457 0)
(1.00457 -0.00952598 0)
(1.0053 -0.0103283 0)
(1.00609 -0.0111473 0)
(1.00694 -0.0119746 0)
(1.00784 -0.0127992 0)
(1.00881 -0.013608 0)
(1.00982 -0.0143878 0)
(1.01089 -0.0151257 0)
(1.012 -0.0158114 0)
(1.01314 -0.0164355 0)
(1.01432 -0.016991 0)
(1.01551 -0.0174722 0)
(1.01672 -0.0178761 0)
(1.01793 -0.0182012 0)
(1.01914 -0.0184481 0)
(1.02034 -0.0186185 0)
(1.02152 -0.0187153 0)
(1.02268 -0.0187422 0)
(1.0238 -0.0187038 0)
(1.02489 -0.0186052 0)
(1.02595 -0.0184517 0)
(1.02696 -0.0182494 0)
(1.02792 -0.0180035 0)
(1.02884 -0.0177202 0)
(1.02972 -0.0174045 0)
(1.03054 -0.0170622 0)
(1.03132 -0.0166975 0)
(1.03205 -0.0163159 0)
(1.03274 -0.0159208 0)
(1 -0.000583138 0)
(1.0001 -0.00170725 0)
(1.00028 -0.00274632 0)
(1.00053 -0.00369753 0)
(1.00084 -0.00457225 0)
(1.0012 -0.00539193 0)
(1.0016 -0.00617985 0)
(1.00205 -0.00695566 0)
(1.00254 -0.0077368 0)
(1.00307 -0.00853789 0)
(1.00366 -0.00936855 0)
(1.00431 -0.0102314 0)
(1.00502 -0.0111246 0)
(1.00579 -0.0120423 0)
(1.00663 -0.0129755 0)
(1.00754 -0.0139114 0)
(1.00852 -0.0148348 0)
(1.00956 -0.0157305 0)
(1.01066 -0.0165841 0)
(1.01182 -0.0173831 0)
(1.01302 -0.0181162 0)
(1.01426 -0.0187746 0)
(1.01553 -0.0193507 0)
(1.01682 -0.0198406 0)
(1.01813 -0.0202414 0)
(1.01944 -0.0205532 0)
(1.02074 -0.0207767 0)
(1.02203 -0.0209147 0)
(1.0233 -0.0209707 0)
(1.02453 -0.0209494 0)
(1.02574 -0.0208565 0)
(1.0269 -0.0206976 0)
(1.02803 -0.0204796 0)
(1.0291 -0.0202085 0)
(1.03012 -0.0198915 0)
(1.03109 -0.0195342 0)
(1.03201 -0.0191438 0)
(1.03288 -0.0187253 0)
(1.03369 -0.0182854 0)
(1.03445 -0.0178279 0)
(1 -0.000613342 0)
(1.00009 -0.00179569 0)
(1.00026 -0.00288905 0)
(1.00049 -0.0038897 0)
(1.00077 -0.0048104 0)
(1.0011 -0.00567558 0)
(1.00146 -0.00651014 0)
(1.00187 -0.00733502 0)
(1.00232 -0.0081712 0)
(1.00282 -0.00903599 0)
(1.00337 -0.00993992 0)
(1.00399 -0.0108854 0)
(1.00467 -0.0118711 0)
(1.00543 -0.0128913 0)
(1.00625 -0.0139361 0)
(1.00716 -0.0149904 0)
(1.00814 -0.016037 0)
(1.0092 -0.017059 0)
(1.01033 -0.0180402 0)
(1.01153 -0.0189662 0)
(1.01278 -0.0198227 0)
(1.01409 -0.0205991 0)
(1.01544 -0.0212858 0)
(1.01682 -0.0218774 0)
(1.01823 -0.0223695 0)
(1.01964 -0.0227609 0)
(1.02106 -0.0230515 0)
(1.02247 -0.0232432 0)
(1.02387 -0.0233393 0)
(1.02524 -0.0233443 0)
(1.02657 -0.0232642 0)
(1.02787 -0.0231051 0)
(1.02912 -0.0228746 0)
(1.03031 -0.0225793 0)
(1.03146 -0.0222276 0)
(1.03254 -0.0218259 0)
(1.03357 -0.0213829 0)
(1.03454 -0.0209044 0)
(1.03544 -0.0203986 0)
(1.03629 -0.0198701 0)
(1 -0.000639585 0)
(1.00008 -0.00187275 0)
(1.00023 -0.00301346 0)
(1.00044 -0.00405646 0)
(1.00069 -0.00501709 0)
(1.00098 -0.00592268 0)
(1.00131 -0.00679815 0)
(1.00168 -0.00766677 0)
(1.00208 -0.00855419 0)
(1.00253 -0.00948008 0)
(1.00304 -0.010455 0)
(1.00362 -0.0114821 0)
(1.00426 -0.0125613 0)
(1.00499 -0.0136872 0)
(1.00579 -0.0148484 0)
(1.00668 -0.0160277 0)
(1.00766 -0.0172059 0)
(1.00873 -0.018365 0)
(1.00989 -0.0194865 0)
(1.01112 -0.0205537 0)
(1.01242 -0.0215494 0)
(1.0138 -0.0224608 0)
(1.01523 -0.0232758 0)
(1.0167 -0.0239874 0)
(1.01821 -0.0245891 0)
(1.01975 -0.025078 0)
(1.02129 -0.0254525 0)
(1.02284 -0.0257135 0)
(1.02438 -0.0258635 0)
(1.02589 -0.0259068 0)
(1.02738 -0.0258494 0)
(1.02882 -0.0256974 0)
(1.03022 -0.0254592 0)
(1.03156 -0.0251419 0)
(1.03285 -0.0247553 0)
(1.03407 -0.0243066 0)
(1.03522 -0.0238063 0)
(1.03631 -0.0232609 0)
(1.03733 -0.0226806 0)
(1.03828 -0.0220709 0)
(1 -0.000661716 0)
(1.00007 -0.00193846 0)
(1.0002 -0.00311918 0)
(1.00038 -0.00419699 0)
(1.0006 -0.00519205 0)
(1.00085 -0.00613244 0)
(1.00114 -0.00704209 0)
(1.00146 -0.00794868 0)
(1.00181 -0.00888336 0)
(1.00221 -0.0098667 0)
(1.00266 -0.0109092 0)
(1.00319 -0.0120157 0)
(1.00379 -0.0131885 0)
(1.00447 -0.0144222 0)
(1.00524 -0.0157037 0)
(1.00611 -0.0170136 0)
(1.00708 -0.0183316 0)
(1.00814 -0.0196384 0)
(1.00931 -0.020913 0)
(1.01057 -0.0221364 0)
(1.01192 -0.0232881 0)
(1.01336 -0.0243532 0)
(1.01486 -0.0253166 0)
(1.01644 -0.0261692 0)
(1.01806 -0.0269017 0)
(1.01972 -0.0275094 0)
(1.0214 -0.0279882 0)
(1.0231 -0.0283376 0)
(1.02479 -0.0285592 0)
(1.02647 -0.0286562 0)
(1.02813 -0.0286345 0)
(1.02975 -0.0284997 0)
(1.03132 -0.0282611 0)
(1.03283 -0.0279259 0)
(1.03428 -0.0275055 0)
(1.03566 -0.0270079 0)
(1.03697 -0.0264454 0)
(1.0382 -0.0258257 0)
(1.03935 -0.0251612 0)
(1.04042 -0.0244583 0)
(1 -0.00067962 0)
(1.00006 -0.00199307 0)
(1.00017 -0.00320563 0)
(1.00032 -0.00431093 0)
(1.0005 -0.00533565 0)
(1.00071 -0.00630419 0)
(1.00095 -0.00724033 0)
(1.00121 -0.00817934 0)
(1.00151 -0.00915681 0)
(1.00184 -0.0101925 0)
(1.00224 -0.011298 0)
(1.00271 -0.0124809 0)
(1.00325 -0.0137464 0)
(1.00387 -0.0150885 0)
(1.0046 -0.0164924 0)
(1.00543 -0.0179373 0)
(1.00637 -0.0194025 0)
(1.00743 -0.0208673 0)
(1.00859 -0.0223078 0)
(1.00987 -0.0237026 0)
(1.01126 -0.0250279 0)
(1.01275 -0.0262668 0)
(1.01433 -0.0274008 0)
(1.016 -0.0284184 0)
(1.01773 -0.0293063 0)
(1.01952 -0.0300575 0)
(1.02136 -0.0306652 0)
(1.02322 -0.0311266 0)
(1.02509 -0.0314419 0)
(1.02696 -0.0316124 0)
(1.0288 -0.0316435 0)
(1.03062 -0.0315398 0)
(1.03239 -0.0313113 0)
(1.0341 -0.0309649 0)
(1.03575 -0.0305138 0)
(1.03732 -0.0299665 0)
(1.03881 -0.0293376 0)
(1.04021 -0.0286358 0)
(1.04152 -0.0278762 0)
(1.04274 -0.0270665 0)
(1 -0.000693289 0)
(1.00005 -0.00203689 0)
(1.00014 -0.00327199 0)
(1.00026 -0.00439878 0)
(1.00039 -0.00544875 0)
(1.00056 -0.00643705 0)
(1.00074 -0.00739195 0)
(1.00095 -0.00835827 0)
(1.00118 -0.00937297 0)
(1.00145 -0.0104545 0)
(1.00178 -0.0116173 0)
(1.00217 -0.0128733 0)
(1.00264 -0.0142293 0)
(1.0032 -0.0156784 0)
(1.00386 -0.0172048 0)
(1.00465 -0.0187876 0)
(1.00555 -0.0204062 0)
(1.00657 -0.0220382 0)
(1.00773 -0.0236567 0)
(1.00901 -0.025238 0)
(1.01042 -0.0267551 0)
(1.01196 -0.0281894 0)
(1.01361 -0.0295181 0)
(1.01536 -0.0307269 0)
(1.01721 -0.0317983 0)
(1.01914 -0.032722 0)
(1.02113 -0.0334877 0)
(1.02316 -0.03409 0)
(1.02523 -0.0345263 0)
(1.0273 -0.0347953 0)
(1.02937 -0.0349016 0)
(1.03141 -0.0348477 0)
(1.03341 -0.0346441 0)
(1.03536 -0.0342971 0)
(1.03723 -0.0338212 0)
(1.03903 -0.0332254 0)
(1.04073 -0.0325269 0)
(1.04234 -0.0317354 0)
(1.04385 -0.0308692 0)
(1.04524 -0.0299372 0)
(1 -0.000702936 0)
(1.00003 -0.00206988 0)
(1.0001 -0.00331745 0)
(1.00019 -0.00446221 0)
(1.00028 -0.00553212 0)
(1.00039 -0.0065301 0)
(1.00053 -0.00749717 0)
(1.00067 -0.00848565 0)
(1.00082 -0.00953044 0)
(1.00102 -0.0106502 0)
(1.00127 -0.0118643 0)
(1.00159 -0.013189 0)
(1.00197 -0.0146318 0)
(1.00245 -0.0161843 0)
(1.00304 -0.0178313 0)
(1.00376 -0.0195531 0)
(1.0046 -0.0213296 0)
(1.00558 -0.0231361 0)
(1.0067 -0.0249433 0)
(1.00797 -0.0267257 0)
(1.00939 -0.028453 0)
(1.01096 -0.0301049 0)
(1.01267 -0.0316538 0)
(1.0145 -0.0330829 0)
(1.01646 -0.034369 0)
(1.01852 -0.0354987 0)
(1.02068 -0.0364569 0)
(1.0229 -0.0372344 0)
(1.02518 -0.0378252 0)
(1.02748 -0.0382245 0)
(1.02979 -0.0384346 0)
(1.03209 -0.0384556 0)
(1.03436 -0.0382975 0)
(1.03658 -0.0379652 0)
(1.03873 -0.0374748 0)
(1.04079 -0.036835 0)
(1.04275 -0.0360656 0)
(1.0446 -0.0351775 0)
(1.04634 -0.0341926 0)
(1.04796 -0.0331216 0)
(0.999999 -0.000708991 0)
(1.00002 -0.00209125 0)
(1.00007 -0.00334166 0)
(1.00011 -0.00450407 0)
(1.00015 -0.0055857 0)
(1.00023 -0.00658294 0)
(1.0003 -0.0075575 0)
(1.00037 -0.00856178 0)
(1.00045 -0.00962809 0)
(1.00057 -0.010778 0)
(1.00074 -0.0120375 0)
(1.00096 -0.0134252 0)
(1.00125 -0.0149487 0)
(1.00164 -0.0165991 0)
(1.00214 -0.0183631 0)
(1.00277 -0.0202228 0)
(1.00353 -0.022159 0)
(1.00445 -0.024145 0)
(1.00552 -0.0261497 0)
(1.00676 -0.0281462 0)
(1.00816 -0.0301016 0)
(1.00974 -0.0319937 0)
(1.01149 -0.0337896 0)
(1.01339 -0.0354698 0)
(1.01545 -0.0370052 0)
(1.01765 -0.0383787 0)
(1.01996 -0.0395692 0)
(1.02238 -0.040563 0)
(1.02489 -0.0413491 0)
(1.02744 -0.0419179 0)
(1.03003 -0.0422685 0)
(1.03262 -0.0423971 0)
(1.0352 -0.0423125 0)
(1.03773 -0.0420173 0)
(1.0402 -0.0415282 0)
(1.04257 -0.0408533 0)
(1.04485 -0.0400152 0)
(1.047 -0.0390254 0)
(1.04902 -0.0379103 0)
(1.0509 -0.0366822 0)
(0.999998 -0.000711886 0)
(1.00001 -0.00209929 0)
(1.00003 -0.0033457 0)
(1.00002 -0.00452773 0)
(1.00003 -0.0056082 0)
(1.00005 -0.00659677 0)
(1.00006 -0.00757517 0)
(1.00005 -0.00858666 0)
(1.00006 -0.00966575 0)
(1.00009 -0.0108381 0)
(1.00017 -0.0121362 0)
(1.00029 -0.0135795 0)
(1.00048 -0.0151756 0)
(1.00076 -0.0169166 0)
(1.00116 -0.0187921 0)
(1.00168 -0.0207864 0)
(1.00235 -0.0228812 0)
(1.00317 -0.0250482 0)
(1.00417 -0.0272566 0)
(1.00535 -0.0294783 0)
(1.00672 -0.0316781 0)
(1.00829 -0.0338319 0)
(1.01005 -0.0359019 0)
(1.012 -0.0378659 0)
(1.01415 -0.039688 0)
(1.01647 -0.0413475 0)
(1.01895 -0.0428159 0)
(1.02157 -0.0440741 0)
(1.02431 -0.0451043 0)
(1.02714 -0.045891 0)
(1.03003 -0.0464281 0)
(1.03295 -0.0467069 0)
(1.03588 -0.0467332 0)
(1.03877 -0.046506 0)
(1.04161 -0.0460418 0)
(1.04436 -0.0453473 0)
(1.04701 -0.0444473 0)
(1.04952 -0.0433542 0)
(1.05189 -0.0420985 0)
(1.05409 -0.0406948 0)
(0.999995 -0.00071148 0)
(0.999997 -0.00209186 0)
(0.999981 -0.00333273 0)
(0.99992 -0.00453587 0)
(0.999896 -0.00559752 0)
(0.999874 -0.00657513 0)
(0.999814 -0.0075517 0)
(0.99973 -0.00856044 0)
(0.999654 -0.00964476 0)
(0.999601 -0.0108315 0)
(0.999575 -0.0121609 0)
(0.999587 -0.0136503 0)
(0.999661 -0.0153091 0)
(0.999827 -0.0171318 0)
(1.00011 -0.0191113 0)
(1.00051 -0.0212341 0)
(1.00105 -0.0234829 0)
(1.00176 -0.025829 0)
(1.00266 -0.0282439 0)
(1.00375 -0.0306985 0)
(1.00506 -0.0331566 0)
(1.00658 -0.0355921 0)
(1.00833 -0.0379626 0)
(1.01032 -0.0402437 0)
(1.01252 -0.0423923 0)
(1.01495 -0.0443839 0)
(1.01758 -0.0461812 0)
(1.0204 -0.0477594 0)
(1.02339 -0.0490913 0)
(1.02651 -0.0501548 0)
(1.02973 -0.0509359 0)
(1.03302 -0.0514193 0)
(1.03635 -0.0516054 0)
(1.03966 -0.0514887 0)
(1.04294 -0.0510832 0)
(1.04613 -0.0503935 0)
(1.04922 -0.0494456 0)
(1.05216 -0.0482522 0)
(1.05495 -0.0468484 0)
(1.05755 -0.0452513 0)
(0.999992 -0.000706126 0)
(0.999983 -0.00206775 0)
(0.99992 -0.00330761 0)
(0.999816 -0.00452922 0)
(0.999766 -0.00555199 0)
(0.999688 -0.00652375 0)
(0.999558 -0.00748657 0)
(0.999398 -0.0084851 0)
(0.99924 -0.00956775 0)
(0.999094 -0.0107601 0)
(0.998962 -0.0121129 0)
(0.998858 -0.0136366 0)
(0.998811 -0.0153473 0)
(0.998848 -0.017241 0)
(0.998991 -0.0193145 0)
(0.999252 -0.0215571 0)
(0.999654 -0.023952 0)
(1.00023 -0.0264719 0)
(1.00099 -0.0290918 0)
(1.00197 -0.031783 0)
(1.00317 -0.0345093 0)
(1.00462 -0.0372432 0)
(1.00633 -0.039939 0)
(1.0083 -0.0425698 0)
(1.01054 -0.0450859 0)
(1.01305 -0.0474589 0)
(1.01582 -0.0496415 0)
(1.01883 -0.0516026 0)
(1.02206 -0.0533036 0)
(1.02548 -0.0547142 0)
(1.02906 -0.0558096 0)
(1.03276 -0.0565664 0)
(1.03653 -0.056976 0)
(1.04033 -0.0570267 0)
(1.04411 -0.0567269 0)
(1.04783 -0.0560785 0)
(1.05145 -0.0551061 0)
(1.05492 -0.0538234 0)
(1.05821 -0.0522684 0)
(1.06129 -0.0504618 0)
(0.999989 -0.000691739 0)
(0.999963 -0.00202914 0)
(0.999844 -0.00327451 0)
(0.999708 -0.00450656 0)
(0.999635 -0.00547119 0)
(0.999494 -0.00644933 0)
(0.999299 -0.00737675 0)
(0.999061 -0.00836657 0)
(0.99882 -0.00943676 0)
(0.998576 -0.0106271 0)
(0.998334 -0.0119942 0)
(0.998112 -0.0135383 0)
(0.997934 -0.0152901 0)
(0.997832 -0.0172417 0)
(0.997824 -0.0193971 0)
(0.997926 -0.0217478 0)
(0.998165 -0.0242772 0)
(0.998573 -0.0269625 0)
(0.999174 -0.0297816 0)
(0.999998 -0.0327077 0)
(1.00106 -0.0357071 0)
(1.0024 -0.0387515 0)
(1.00402 -0.0417938 0)
(1.00594 -0.0448049 0)
(1.00818 -0.0477294 0)
(1.01074 -0.0505347 0)
(1.01361 -0.0531635 0)
(1.01679 -0.0555774 0)
(1.02026 -0.0577247 0)
(1.02399 -0.0595655 0)
(1.02795 -0.0610605 0)
(1.03208 -0.062176 0)
(1.03635 -0.0628903 0)
(1.0407 -0.0631833 0)
(1.04507 -0.0630538 0)
(1.0494 -0.062499 0)
(1.05365 -0.0615393 0)
(1.05775 -0.0601886 0)
(1.06167 -0.0584863 0)
(1.06534 -0.056458 0)
(0.999988 -0.000661334 0)
(0.999932 -0.00198556 0)
(0.99975 -0.00323321 0)
(0.9996 -0.004467 0)
(0.999501 -0.00535517 0)
(0.999293 -0.00635883 0)
(0.99904 -0.00721731 0)
(0.998718 -0.00821633 0)
(0.998398 -0.00924996 0)
(0.998052 -0.0104393 0)
(0.997699 -0.0118052 0)
(0.997354 -0.0133573 0)
(0.997039 -0.0151387 0)
(0.996789 -0.0171327 0)
(0.996616 -0.0193567 0)
(0.996543 -0.0218003 0)
(0.996599 -0.0244492 0)
(0.996817 -0.0272881 0)
(0.997226 -0.0302954 0)
(0.99786 -0.0334501 0)
(0.998747 -0.0367206 0)
(0.999922 -0.0400817 0)
(1.00141 -0.0434863 0)
(1.00323 -0.0469041 0)
(1.00542 -0.0502754 0)
(1.00798 -0.053564 0)
(1.01092 -0.0567025 0)
(1.01423 -0.0596454 0)
(1.01792 -0.0623261 0)
(1.02195 -0.0646933 0)
(1.02629 -0.0666898 0)
(1.03089 -0.0682686 0)
(1.03571 -0.0693904 0)
(1.04067 -0.0700228 0)
(1.04572 -0.07015 0)
(1.05077 -0.0697618 0)
(1.05577 -0.06887 0)
(1.06062 -0.0674875 0)
(1.0653 -0.0656525 0)
(1.06971 -0.0633963 0)
(0.99999 -0.000605105 0)
(0.999886 -0.00195599 0)
(0.999645 -0.00317519 0)
(0.999498 -0.00441461 0)
(0.999364 -0.00520146 0)
(0.99909 -0.00626072 0)
(0.998784 -0.00700153 0)
(0.998372 -0.00805178 0)
(0.997982 -0.00899835 0)
(0.997525 -0.0102109 0)
(0.997067 -0.0115409 0)
(0.996593 -0.0131016 0)
(0.996136 -0.0148928 0)
(0.995731 -0.016916 0)
(0.995381 -0.019192 0)
(0.995119 -0.0217114 0)
(0.994973 -0.0244612 0)
(0.994976 -0.0274387 0)
(0.995164 -0.0306168 0)
(0.995572 -0.0339897 0)
(0.996238 -0.0375217 0)
(0.9972 -0.0411988 0)
(0.998496 -0.044973 0)
(1.00017 -0.0488176 0)
(1.00224 -0.0526694 0)
(1.00474 -0.0564896 0)
(1.00769 -0.0602022 0)
(1.01109 -0.0637541 0)
(1.01496 -0.0670639 0)
(1.01927 -0.0700668 0)
(1.02399 -0.0726848 0)
(1.02908 -0.0748537 0)
(1.03449 -0.076511 0)
(1.04014 -0.0776071 0)
(1.04595 -0.0781056 0)
(1.05184 -0.0779839 0)
(1.05772 -0.0772393 0)
(1.06348 -0.0758812 0)
(1.06907 -0.0739427 0)
(1.07438 -0.0714616 0)
(0.999999 -0.000512421 0)
(0.999822 -0.00196478 0)
(0.999538 -0.00308198 0)
(0.999403 -0.00436213 0)
(0.999224 -0.00500157 0)
(0.99889 -0.00616827 0)
(0.998535 -0.00671915 0)
(0.998024 -0.0078959 0)
(0.997581 -0.00866331 0)
(0.996997 -0.00996832 0)
(0.996451 -0.0111842 0)
(0.995833 -0.0127921 0)
(0.995241 -0.0145433 0)
(0.994669 -0.0166025 0)
(0.994136 -0.0188988 0)
(0.993673 -0.021483 0)
(0.993308 -0.0243067 0)
(0.993075 -0.0274083 0)
(0.993014 -0.0307302 0)
(0.993159 -0.0343097 0)
(0.993561 -0.0380822 0)
(0.994258 -0.0420709 0)
(0.995306 -0.0462085 0)
(0.99675 -0.0504932 0)
(0.998636 -0.0548489 0)
(1.00101 -0.0592448 0)
(1.00389 -0.0635925 0)
(1.00732 -0.0678357 0)
(1.01131 -0.0718766 0)
(1.01585 -0.0756367 0)
(1.02094 -0.0790143 0)
(1.02652 -0.0819243 0)
(1.03255 -0.0842746 0)
(1.03894 -0.0859923 0)
(1.04562 -0.0870118 0)
(1.05247 -0.0872912 0)
(1.05939 -0.0868053 0)
(1.06624 -0.0855548 0)
(1.07294 -0.0835626 0)
(1.07935 -0.080872 0)
(1.00003 -0.000377109 0)
(0.999739 -0.00203251 0)
(0.999453 -0.00293001 0)
(0.999313 -0.00433055 0)
(0.999094 -0.00474105 0)
(0.998694 -0.00610254 0)
(0.998301 -0.00635548 0)
(0.997678 -0.00777703 0)
(0.99721 -0.00821774 0)
(0.996468 -0.00975154 0)
(0.995871 -0.0107015 0)
(0.995074 -0.012471 0)
(0.994376 -0.0140618 0)
(0.993608 -0.016224 0)
(0.992904 -0.0184584 0)
(0.99222 -0.0211325 0)
(0.99163 -0.023972 0)
(0.991136 -0.0272011 0)
(0.990803 -0.0306174 0)
(0.990649 -0.0344014 0)
(0.990747 -0.0383707 0)
(0.991124 -0.0426722 0)
(0.991863 -0.0471438 0)
(0.993004 -0.051881 0)
(0.994625 -0.0567419 0)
(0.996771 -0.0617545 0)
(0.999507 -0.0667871 0)
(1.00287 -0.0718051 0)
(1.0069 -0.0766815 0)
(1.01161 -0.0813309 0)
(1.017 -0.0856244 0)
(1.02305 -0.0894516 0)
(1.02972 -0.092686 0)
(1.03691 -0.0952222 0)
(1.04455 -0.0969563 0)
(1.0525 -0.0978165 0)
(1.06063 -0.0977441 0)
(1.06878 -0.0967217 0)
(1.07682 -0.0947548 0)
(1.08458 -0.0918877 0)
(1.0001 -0.000201369 0)
(0.999624 -0.00216559 0)
(0.99942 -0.00270268 0)
(0.99921 -0.00434088 0)
(0.998997 -0.00440567 0)
(0.99849 -0.0060861 0)
(0.998104 -0.00589446 0)
(0.997326 -0.00772366 0)
(0.996889 -0.00763301 0)
(0.995927 -0.00960825 0)
(0.995353 -0.0100476 0)
(0.994303 -0.0122027 0)
(0.993572 -0.0133948 0)
(0.99254 -0.0158458 0)
(0.991721 -0.0178225 0)
(0.99076 -0.0207112 0)
(0.989972 -0.0234195 0)
(0.989172 -0.0268491 0)
(0.988569 -0.0302439 0)
(0.988066 -0.034277 0)
(0.987837 -0.0383439 0)
(0.987828 -0.0429936 0)
(0.988206 -0.047717 0)
(0.988954 -0.0529452 0)
(0.990226 -0.05826 0)
(0.992036 -0.0639452 0)
(0.994515 -0.0696736 0)
(0.997688 -0.0755613 0)
(1.00165 -0.0813641 0)
(1.00642 -0.0870511 0)
(1.01205 -0.0924307 0)
(1.01852 -0.0973792 0)
(1.0258 -0.101726 0)
(1.03383 -0.105323 0)
(1.04251 -0.108018 0)
(1.05169 -0.109695 0)
(1.06124 -0.110248 0)
(1.07093 -0.109626 0)
(1.0806 -0.107804 0)
(1.09001 -0.10482 0)
(1.00026 6.63553e-07 0)
(0.999442 -0.00235218 0)
(0.999498 -0.00240204 0)
(0.999049 -0.00439859 0)
(0.998989 -0.00399326 0)
(0.998233 -0.00612794 0)
(0.997994 -0.0053293 0)
(0.996926 -0.00774996 0)
(0.996665 -0.00689305 0)
(0.995334 -0.00957366 0)
(0.994944 -0.00918483 0)
(0.993477 -0.0120524 0)
(0.992884 -0.0124796 0)
(0.991423 -0.0155574 0)
(0.990645 -0.0169135 0)
(0.989261 -0.0203156 0)
(0.988396 -0.0225711 0)
(0.987168 -0.0264369 0)
(0.986369 -0.0295365 0)
(0.985413 -0.0339995 0)
(0.984885 -0.0379245 0)
(0.984384 -0.0430712 0)
(0.984388 -0.0478323 0)
(0.984619 -0.0536895 0)
(0.985485 -0.059279 0)
(0.986803 -0.065776 0)
(0.988924 -0.072091 0)
(0.991736 -0.0790067 0)
(0.995505 -0.0857502 0)
(1.00018 -0.092673 0)
(1.00593 -0.0992944 0)
(1.01271 -0.105615 0)
(1.02056 -0.111342 0)
(1.02942 -0.116298 0)
(1.03921 -0.120266 0)
(1.04977 -0.123066 0)
(1.06093 -0.124526 0)
(1.07244 -0.124544 0)
(1.08408 -0.123043 0)
(1.09554 -0.12004 0)
(1.0006 0.00020934 0)
(0.999116 -0.00256443 0)
(0.999781 -0.00205163 0)
(0.998734 -0.00448759 0)
(0.999173 -0.00352268 0)
(0.997821 -0.00621339 0)
(0.99808 -0.0046762 0)
(0.996372 -0.00784129 0)
(0.996637 -0.00601192 0)
(0.994586 -0.00964426 0)
(0.994739 -0.00811128 0)
(0.992496 -0.012045 0)
(0.992407 -0.0112826 0)
(0.990159 -0.015424 0)
(0.989778 -0.0156621 0)
(0.987628 -0.0200495 0)
(0.987008 -0.0213285 0)
(0.985041 -0.0260917 0)
(0.984314 -0.0283783 0)
(0.982628 -0.0336996 0)
(0.982001 -0.0369794 0)
(0.980757 -0.0430242 0)
(0.980512 -0.0473295 0)
(0.97998 -0.0542089 0)
(0.98049 -0.0595966 0)
(0.981054 -0.0673014 0)
(0.98279 -0.0737842 0)
(0.984953 -0.0821253 0)
(0.988437 -0.0895444 0)
(0.992746 -0.0980959 0)
(0.998481 -0.10595 0)
(1.00538 -0.114033 0)
(1.01371 -0.121399 0)
(1.02335 -0.128114 0)
(1.03428 -0.133759 0)
(1.04634 -0.138078 0)
(1.05934 -0.140826 0)
(1.073 -0.141812 0)
(1.08702 -0.140879 0)
(1.101 -0.138002 0)
(1.00122 0.00040509 0)
(0.998532 -0.00276988 0)
(1.00039 -0.00168722 0)
(0.998124 -0.00458041 0)
(0.999701 -0.00302926 0)
(0.997083 -0.00630652 0)
(0.998533 -0.00397694 0)
(0.995475 -0.00795241 0)
(0.996987 -0.00504364 0)
(0.993489 -0.00976793 0)
(0.994915 -0.00688323 0)
(0.99117 -0.0121373 0)
(0.992319 -0.00984333 0)
(0.988558 -0.0154309 0)
(0.989305 -0.0140726 0)
(0.985673 -0.0199435 0)
(0.986005 -0.0196478 0)
(0.982605 -0.0258966 0)
(0.98261 -0.026673 0)
(0.979538 -0.0335098 0)
(0.979399 -0.0353566 0)
(0.976794 -0.0430258 0)
(0.976794 -0.0459894 0)
(0.97491 -0.0547075 0)
(0.975448 -0.0589018 0)
(0.97468 -0.0687436 0)
(0.976293 -0.0743346 0)
(0.977216 -0.0851213 0)
(0.980549 -0.092216 0)
(0.983909 -0.103427 0)
(0.989652 -0.111836 0)
(0.996204 -0.122596 0)
(1.00498 -0.131497 0)
(1.01518 -0.140704 0)
(1.02727 -0.148457 0)
(1.04093 -0.15487 0)
(1.056 -0.159466 0)
(1.07219 -0.161858 0)
(1.08909 -0.161855 0)
(1.1062 -0.159318 0)
(1.00219 0.000570793 0)
(0.997596 -0.0029419 0)
(1.00143 -0.00133938 0)
(0.997083 -0.00465073 0)
(1.00073 -0.00254749 0)
(0.99584 -0.00636652 0)