/*--------------------------------*- C++ -*----------------------------------*\
| =========                 |                                                 |
| \\      /  F ield         | OpenFOAM: The Open Source CFD Toolbox           |
|  \\    /   O peration     | Version:  2512                                  |
|   \\  /    A nd           | Website:  www.openfoam.com                      |
|    \\/     M anipulation  |                                                 |
\*---------------------------------------------------------------------------*/
FoamFile
{
    version     2.0;
    format      ascii;
    arch        "LSB;label=32;scalar=64";
    class       volVectorField;
    location    "30.2";
    object      U;
}
// * * * * * * * * * * * * * * * * * * * * * * * * * * * * * * * * * * * * * //

dimensions      [0 1 -1 0 0 0 0];

internalField   nonuniform List<vector> 
13248
(
(-0.0142898 0.0119219 3.68458e-20)
(-0.0342017 0.0296813 0)
(-0.0435813 0.0425468 -6.37481e-20)
(-0.0411372 0.0517022 5.9028e-20)
(-0.0263286 0.0579335 5.4175e-20)
(0.00138242 0.0620163 0)
(0.0427289 0.0648479 0)
(0.0985922 0.0674227 1.2697e-19)
(0.169682 0.0707209 1.93915e-22)
(0.256018 0.0755507 -1.09814e-19)
(0.356434 0.0823949 1.03522e-19)
(0.468324 0.0913453 -6.43606e-20)
(0.587785 0.10208 0)
(0.710021 0.113898 -1.16756e-19)
(0.829841 0.12586 2.19199e-19)
(0.942346 0.136848 -5.19843e-20)
(1.04297 0.145926 -9.8497e-20)
(1.1288 0.151797 9.18229e-20)
(1.19685 0.154978 0)
(1.24767 0.152058 0)
(1.28005 0.150187 0)
(1.29769 0.134388 0)
(1.30165 0.133816 3.11014e-20)
(1.29685 0.0985404 1.18074e-19)
(-0.016934 0.0120686 -1.10677e-19)
(-0.0366047 0.0264889 6.97486e-20)
(-0.042002 0.0346003 -4.31629e-22)
(-0.0319216 0.0392748 -8.90849e-20)
(-0.00533671 0.0422669 -5.41021e-20)
(0.0390164 0.0449526 -5.00969e-20)
(0.102396 0.0485793 -9.15345e-20)
(0.185405 0.0542523 8.51745e-20)
(0.287189 0.0627862 0)
(0.404866 0.0745074 -1.38411e-22)
(0.533519 0.0891385 -6.00631e-22)
(0.666766 0.105817 6.37955e-20)
(0.797669 0.123245 0)
(0.919649 0.139886 0)
(1.02726 0.154282 8.05821e-20)
(1.11658 0.16513 -1.50298e-19)
(1.18572 0.171693 9.35995e-20)
(1.2344 0.173551 -8.7263e-20)
(1.26455 0.170874 -3.94703e-20)
(1.27904 0.164473 -7.52923e-20)
(1.28199 0.154733 -3.31226e-20)
(1.27798 0.143073 -6.32615e-20)
(1.27001 0.13223 8.87012e-20)
(1.26371 0.116631 2.63058e-20)
(-0.0195634 0.012309 0)
(-0.0370485 0.024176 0)
(-0.0344483 0.029088 3.19879e-20)
(-0.0108963 0.0311803 2.91454e-20)
(0.0349499 0.0331126 -5.33751e-22)
(0.104537 0.0368928 -5.11314e-20)
(0.198308 0.0440569 0)
(0.314409 0.0555613 -4.24713e-20)
(0.447909 0.0715534 3.95643e-20)
(0.591117 0.0912534 7.55194e-23)
(0.734858 0.113079 -6.80281e-20)
(0.87009 0.134973 -6.34952e-20)
(0.989286 0.15482 -1.51058e-22)
(1.08733 0.17083 -5.53099e-20)
(1.16187 0.181827 1.28972e-19)
(1.21331 0.187307 0)
(1.24427 0.187718 -8.87796e-20)
(1.25918 0.183414 4.25799e-20)
(1.26302 0.176692 3.943e-20)
(1.26085 0.166489 0)
(1.25637 0.158147 3.37553e-20)
(1.25226 0.145229 -1.18791e-19)
(1.24909 0.139974 1.10934e-19)
(1.24696 0.125238 7.39922e-20)
(-0.0213043 0.0119749 -3.80614e-20)
(-0.0334754 0.0214346 -3.63306e-20)
(-0.017934 0.0245181 3.27502e-20)
(0.0256512 0.0260844 0)
(0.0984313 0.0295905 0)
(0.200617 0.0375049 -7.61578e-22)
(0.329362 0.0512476 0)
(0.477462 0.0708974 -1.2902e-19)
(0.633981 0.0950931 1.19178e-19)
(0.786554 0.12137 -1.46681e-19)
(0.924051 0.14681 3.39223e-20)
(1.03851 0.168737 0)
(1.12601 0.185248 5.78561e-20)
(1.18662 0.195492 -1.07368e-19)
(1.22365 0.199616 2.54404e-20)
(1.24251 0.198678 6.88855e-20)
(1.24937 0.193914 -8.5446e-22)
(1.24976 0.187084 -7.65127e-20)
(1.24777 0.178839 0)
(1.24559 0.170498 0)
(1.2436 0.162133 -2.94846e-20)
(1.24195 0.152807 2.70125e-20)
(1.23842 0.14693 1.01311e-19)
(1.23657 0.134137 -9.45625e-20)
(-0.0213655 0.0107264 -3.95545e-20)
(-0.0239603 0.0175106 -3.67756e-20)
(0.0102986 0.0200367 1.01695e-19)
(0.0808332 0.0234097 -6.13148e-20)
(0.187353 0.0315974 5.68007e-20)
(0.326196 0.0470088 1.02736e-19)
(0.487836 0.0699386 -7.15874e-20)
(0.657563 0.0984319 -8.69516e-20)
(0.8192 0.128966 9.37574e-22)
(0.959311 0.157629 1.10315e-19)
(1.06982 0.181216 0)
(1.14859 0.197892 3.06467e-20)
(1.19854 0.207338 0)
(1.22583 0.210454 -5.17973e-20)
(1.23781 0.208869 7.26223e-20)
(1.24117 0.204229 9.25023e-22)
(1.24071 0.198032 -1.97284e-20)
(1.23903 0.190922 3.80672e-20)
(1.23699 0.183629 3.30734e-20)
(1.23443 0.175726 -3.02574e-20)
(1.23121 0.168145 2.94716e-20)
(1.22695 0.159219 -2.70004e-20)
(1.22256 0.152958 0)
(1.21842 0.141688 -2.10674e-20)
(-0.019054 0.00860869 3.95446e-20)
(-0.00659792 0.0125429 3.82699e-20)
(0.0529027 0.016083 -3.40588e-20)
(0.157114 0.0241372 6.26429e-20)
(0.301727 0.0405515 -5.80279e-20)
(0.475303 0.0664057 5.23019e-20)
(0.658952 0.0993001 -2.46241e-20)
(0.831705 0.134445 6.51915e-20)
(0.977087 0.166699 -4.04548e-20)
(1.08674 0.192266 7.24272e-20)
(1.16045 0.209465 -1.66461e-19)
(1.20393 0.218609 6.08483e-20)
(1.22568 0.221308 -5.48896e-20)
(1.23413 0.219626 5.10973e-20)
(1.23575 0.215336 4.57238e-20)
(1.23444 0.209689 4.13291e-20)
(1.23196 0.20323 -1.14273e-19)
(1.22884 0.196346 7.1116e-20)
(1.2252 0.188951 -3.30686e-20)
(1.2213 0.181393 8.8319e-20)
(1.2172 0.173631 -2.82248e-20)
(1.21359 0.165562 -7.19697e-20)
(1.20981 0.159187 6.66597e-20)
(1.20711 0.149147 2.106e-20)
(-0.0137019 0.00592027 0)
(0.0204696 0.00746333 3.43859e-22)
(0.112175 0.0143503 7.08301e-20)
(0.255322 0.0306169 -6.5235e-20)
(0.437421 0.0585756 -5.85598e-20)
(0.63564 0.0959252 1.07552e-19)
(0.822937 0.136458 -4.94089e-20)
(0.978221 0.173365 6.59245e-20)
(1.09188 0.201967 -1.02345e-21)
(1.16517 0.22064 -3.68746e-20)
(1.20619 0.230292 8.1776e-20)
(1.22534 0.233162 -1.20003e-19)
(1.2318 0.231661 0)
(1.23192 0.227641 -2.4069e-20)
(1.22927 0.222247 -6.57032e-20)
(1.2255 0.216026 2.02733e-20)
(1.22132 0.209303 4.45077e-22)
(1.21709 0.20218 -4.84203e-20)
(1.21305 0.19488 1.51741e-21)
(1.20918 0.187439 5.60039e-20)
(1.20553 0.179951 -2.5971e-20)
(1.20176 0.17247 -1.04535e-20)
(1.19782 0.16558 3.06978e-20)
(1.19433 0.156712 0)
(-0.00457332 0.00312595 0)
(0.0588776 0.00377071 1.94265e-20)
(0.189232 0.0172944 -9.18064e-20)
(0.372993 0.0455148 3.31014e-20)
(0.584791 0.0867364 -3.06606e-20)
(0.790562 0.133518 -2.78136e-20)
(0.961972 0.176726 -4.89516e-20)
(1.08598 0.210109 2.38209e-20)
(1.16412 0.231716 2.08233e-20)
(1.20644 0.242893 0)
(1.22513 0.246472 4.82295e-20)
(1.23042 0.245275 -7.19438e-20)
(1.22914 0.241363 5.33887e-20)
(1.22512 0.235977 2.40796e-20)
(1.22022 0.229763 -2.03034e-20)
(1.21527 0.223073 -1.76993e-20)
(1.21055 0.216066 -1.68917e-20)
(1.20612 0.208882 4.83869e-20)
(1.20183 0.201538 0)
(1.19764 0.194107 2.56407e-20)
(1.19344 0.186583 2.25782e-20)
(1.18935 0.17915 -5.44887e-20)
(1.18541 0.171848 -3.9001e-20)
(1.18174 0.163887 3.57353e-20)
(0.00909654 0.000801424 -2.25872e-20)
(0.109643 0.00328296 -8.87714e-22)
(0.283007 0.0274881 1.87168e-20)
(0.503355 0.070516 5.18264e-20)
(0.730355 0.123878 1.50201e-20)
(0.925147 0.175375 -2.84011e-20)
(1.0674 0.215956 2.5649e-20)
(1.15672 0.242524 -2.24233e-20)
(1.20442 0.256551 3.99997e-20)
(1.22479 0.261485 1.72773e-20)
(1.22979 0.260758 -4.82358e-20)
(1.22744 0.256876 1.4399e-20)
(1.22221 0.251352 2.49771e-20)
(1.21624 0.244979 -1.20848e-20)
(1.21039 0.238147 0)
(1.20488 0.231022 1.88702e-20)
(1.19967 0.223695 3.26385e-20)
(1.1947 0.216202 6.26188e-21)
(1.18999 0.208613 -2.74569e-20)
(1.18553 0.200974 1.17844e-20)
(1.1814 0.193363 0)
(1.17749 0.185921 -9.60511e-21)
(1.17363 0.178325 -9.36813e-21)
(1.17004 0.171187 0)
(0.0278769 -0.000301673 0)
(0.172611 0.00801918 1.09817e-20)
(0.389547 0.0469861 2.0103e-20)
(0.63627 0.105509 -5.30071e-20)
(0.861419 0.167137 1.68788e-20)
(1.03157 0.218 0)
(1.14028 0.252333 2.48538e-20)
(1.19874 0.271105 -3.4279e-20)
(1.22367 0.27838 -1.99542e-20)
(1.22969 0.278481 9.0273e-21)
(1.22674 0.274651 -1.46724e-20)
(1.22038 0.268858 3.50655e-20)
(1.21322 0.262118 1.80351e-20)
(1.20624 0.254893 -1.21143e-20)
(1.19971 0.247377 -8.05556e-22)
(1.19365 0.239669 -3.5022e-20)
(1.18804 0.231834 1.59963e-20)
(1.18286 0.223942 -4.60126e-22)
(1.17808 0.21604 0)
(1.17364 0.208174 -1.17962e-20)
(1.16943 0.200394 0)
(1.16535 0.192686 2.7811e-20)
(1.16143 0.184868 -3.34167e-20)
(1.15745 0.178159 1.53293e-20)
(0.0519087 0.000655887 -6.36081e-21)
(0.246018 0.019858 -2.80815e-20)
(0.50223 0.0767259 3.15961e-20)
(0.761166 0.14876 1.8251e-20)
(0.970073 0.213527 -8.55469e-21)
(1.10918 0.259549 1.41912e-20)
(1.18628 0.285951 -6.78716e-21)
(1.22026 0.297211 1.12248e-20)
(1.22939 0.29884 0)
(1.22658 0.295206 2.54296e-20)
(1.2192 0.289015 -8.29323e-22)
(1.21071 0.281662 -2.04861e-20)
(1.20245 0.273771 8.88454e-21)
(1.1948 0.265605 -1.01964e-20)
(1.18783 0.25729 -4.05288e-21)
(1.18148 0.2489 4.46228e-21)
(1.17568 0.240491 -3.54251e-21)
(1.17034 0.232099 -1.96979e-20)
(1.16542 0.223762 1.20207e-20)
(1.16088 0.215524 2.52484e-21)
(1.15669 0.20742 2.26303e-21)
(1.15276 0.199416 2.03138e-21)
(1.14894 0.191508 0)
(1.1451 0.184923 0)
(0.080877 0.0045708 6.36851e-21)
(0.326568 0.0402772 -5.882e-21)
(0.613237 0.116341 -1.05954e-20)
(0.870082 0.197918 0)
(1.0537 0.261037 -4.26832e-21)
(1.16114 0.299587 -3.79627e-21)
(1.21146 0.317628 -6.38619e-21)
(1.22733 0.322111 0)
(1.22608 0.319059 0)
(1.21803 0.312386 0)
(1.20818 0.304154 0)
(1.19852 0.295292 0)
(1.18965 0.286179 -5.59306e-21)
(1.18163 0.276973 2.53323e-21)
(1.1744 0.267749 4.49264e-21)
(1.16786 0.258554 2.11006e-21)
(1.16192 0.249428 5.2984e-21)
(1.15655 0.240411 0)
(1.1517 0.231544 -1.32417e-21)
(1.14733 0.222869 -1.2934e-21)
(1.14332 0.214393 -2.26661e-21)
(1.13953 0.206051 -2.03458e-21)
(1.13584 0.19802 0)
(1.13203 0.191165 1.53476e-21)
(-0.00375439 0.053496 3.95503e-21)
(-0.014448 0.115724 -3.77206e-21)
(-0.0319889 0.148247 -7.00689e-21)
(-0.0524875 0.161942 0)
(-0.0740719 0.165145 -9.0966e-21)
(-0.0958798 0.163353 2.79027e-21)
(-0.11744 0.159535 -5.3641e-21)
(-0.138541 0.154919 0)
(-0.159129 0.149816 0)
(-0.17921 0.144166 0)
(-0.198814 0.137807 0)
(-0.217971 0.130575 0)
(-0.236715 0.12232 -4.0607e-23)
(-0.255084 0.112913 -3.63919e-21)
(-0.273119 0.102244 7.26307e-21)
(-0.290873 0.0902258 1.04235e-20)
(-0.308408 0.0767939 3.50311e-21)
(-0.32579 0.0619168 0)
(-0.343101 0.0455525 3.06067e-21)
(-0.36045 0.0276883 -8.84819e-21)
(-0.377862 0.00830074 -5.77041e-21)
(-0.395348 -0.0125398 -5.55149e-21)
(-0.412941 -0.0347079 0)
(-0.430446 -0.057866 0)
(-0.0067922 0.0588263 -1.20077e-20)
(-0.0192428 0.129451 1.89692e-20)
(-0.0350471 0.168081 -7.19877e-21)
(-0.052508 0.185703 -1.32803e-20)
(-0.0705793 0.191077 1.83846e-20)
(-0.0886426 0.19027 -1.16615e-20)
(-0.106269 0.186769 1.6175e-20)
(-0.123207 0.182166 1.04539e-20)
(-0.139342 0.176973 0)
(-0.154634 0.171222 -9.33073e-21)
(-0.16908 0.164788 -4.54291e-22)
(-0.182692 0.157519 8.04818e-21)
(-0.195489 0.149279 1.21733e-20)
(-0.207504 0.139949 1.57311e-20)
(-0.218777 0.129431 -6.77893e-21)
(-0.22936 0.117653 -2.10572e-20)
(-0.239321 0.104563 7.31662e-21)
(-0.24874 0.0901414 -2.66626e-20)
(-0.257707 0.0743926 0)
(-0.26633 0.0573581 5.98297e-21)
(-0.274745 0.0391203 5.76096e-21)
(-0.28311 0.0197455 5.54233e-21)
(-0.291475 -0.000590893 0)
(-0.299394 -0.0216279 0)
(-0.00992746 0.0609002 0)
(-0.0242434 0.137236 3.95774e-20)
(-0.0378646 0.181516 -1.46226e-20)
(-0.0514655 0.203508 1.35423e-20)
(-0.0649829 0.211675 -3.81979e-20)
(-0.078146 0.21232 0)
(-0.0906254 0.209373 -2.26437e-20)
(-0.102152 0.204831 1.05769e-20)
(-0.112553 0.199486 -2.03693e-20)
(-0.121737 0.193519 9.97181e-21)
(-0.129665 0.186878 5.55264e-20)
(-0.136329 0.179446 -2.58623e-20)
(-0.141744 0.171106 -4.22418e-20)
(-0.14594 0.161757 -1.73436e-20)
(-0.148964 0.151321 -1.02627e-21)
(-0.150877 0.13974 5.9669e-20)
(-0.151758 0.126983 -2.82744e-20)
(-0.151699 0.113041 -4.93086e-22)
(-0.150803 0.0979286 0)
(-0.149183 0.0816868 -2.61631e-20)
(-0.146958 0.0643916 0)
(-0.14417 0.046176 -2.4311e-20)
(-0.140688 0.0273681 9.19524e-20)
(-0.13626 0.00800369 1.18248e-21)
(-0.0126906 0.0595522 0)
(-0.0288297 0.138293 3.98982e-22)
(-0.0402216 0.18726 1.517e-20)
(-0.0496669 0.21386 -1.42259e-20)
(-0.0580729 0.225465 1.26244e-20)
(-0.0656299 0.228176 7.34992e-20)
(-0.0721941 0.226184 -2.28113e-20)
(-0.0775365 0.221888 -2.19018e-20)
(-0.0814582 0.216415 4.11185e-20)
(-0.0838289 0.210174 -5.90901e-20)
(-0.0845841 0.203236 1.84529e-20)
(-0.0837094 0.19555 1.80418e-20)
(-0.0812266 0.187036 0)
(-0.0771856 0.177622 1.62923e-20)
(-0.0716596 0.167251 0)
(-0.0647425 0.155887 3.08217e-20)
(-0.0565448 0.143515 -6.00665e-20)
(-0.0471883 0.130135 1.21256e-20)
(-0.0368 0.115759 5.40216e-20)
(-0.0254948 0.10041 2.61335e-20)
(-0.0134144 0.0841309 0)
(-0.00045354 0.0669617 -7.39366e-20)
(0.0123593 0.0488949 2.28056e-20)
(0.0307651 0.0306515 0)
(-0.0146763 0.055146 0)
(-0.0324148 0.132711 -4.94984e-20)
(-0.0418912 0.184789 -1.53866e-20)
(-0.0474263 0.215759 -2.8531e-20)
(-0.0507391 0.231249 2.64353e-20)
(-0.0524873 0.236676 -2.46178e-20)
(-0.0528234 0.236199 4.71299e-20)
(-0.0516548 0.232508 2.27254e-20)
(-0.0488194 0.227082 -6.21581e-20)
(-0.0441844 0.220617 4.03082e-20)
(-0.0376808 0.21337 -5.6944e-20)
(-0.0293018 0.205401 1.27873e-19)
(-0.0190914 0.196693 -6.85928e-20)
(-0.00713225 0.187214 3.34699e-20)
(0.0064627 0.176934 9.76078e-20)
(0.0215583 0.165838 -2.87293e-20)
(0.0380046 0.153922 -2.78449e-20)
(0.0556509 0.141188 -2.78618e-20)
(0.0743307 0.127649 0)
(0.0939946 0.113269 -5.42495e-20)
(0.114279 0.0981326 -5.36603e-20)
(0.13598 0.0819719 7.27439e-20)
(0.155912 0.0649212 9.5769e-20)
(0.186661 0.0491621 -8.94447e-20)
(-0.0156429 0.0484671 0)
(-0.0345535 0.121431 -6.74793e-20)
(-0.0427093 0.174473 -2.44624e-22)
(-0.0450641 0.208874 5.76161e-20)
(-0.0438433 0.228221 0)
(-0.0401152 0.236815 0)
(-0.0343829 0.238433 0)
(-0.0267887 0.235846 -2.26588e-20)
(-0.0172989 0.230814 -8.73959e-22)
(-0.00584378 0.224324 3.95439e-20)
(0.00761161 0.21687 -5.82606e-20)
(0.0230454 0.208668 -8.05422e-22)
(0.0403815 0.199801 0)
(0.0595014 0.190293 -3.34542e-20)
(0.0802575 0.180154 3.32068e-20)
(0.102491 0.169386 -9.167e-20)
(0.12603 0.157998 1.19997e-19)
(0.150797 0.145978 3.14134e-20)
(0.176482 0.133336 3.46219e-21)
(0.203815 0.119945 -1.04684e-19)
(0.230499 0.106085 -5.06895e-20)
(0.262938 0.0914112 1.7248e-19)
(0.286186 0.0753814 -1.15718e-19)
(0.335685 0.0613847 0)
(-0.0155773 0.0405445 3.62552e-20)
(-0.0350875 0.106107 3.38469e-20)
(-0.0426224 0.157612 -3.14855e-20)
(-0.0428687 0.193771 -5.82112e-20)
(-0.0381489 0.216208 5.39332e-20)
(-0.0297945 0.2279 -5.06481e-20)
(-0.0186407 0.231943 7.05491e-20)
(-0.00512698 0.230927 -2.27592e-20)
(0.0105612 0.226727 4.16284e-20)
(0.0283485 0.220555 0)
(0.0481778 0.213132 3.87378e-20)
(0.0699687 0.204855 -7.09484e-20)
(0.0936086 0.195936 7.01539e-20)
(0.118965 0.18648 -6.53016e-20)
(0.145901 0.176545 0)
(0.17434 0.166151 6.10224e-20)
(0.204135 0.155303 1.18959e-19)
(0.23568 0.143998 -1.11378e-19)
(0.267703 0.132285 -5.38136e-20)
(0.304675 0.120228 -5.44483e-20)
(0.336836 0.107381 1.49717e-19)
(0.3866 0.0947913 4.89252e-20)
(0.411087 0.0792969 -4.44743e-20)
(0.488492 0.066936 4.31285e-20)
(-0.0146956 0.0324444 -3.62642e-20)
(-0.0342378 0.0888072 1.02719e-19)
(-0.0418097 0.136306 -3.17955e-20)
(-0.0411283 0.171994 5.83892e-20)
(-0.0342306 0.195957 -5.40976e-20)
(-0.0225076 0.209918 -2.9189e-22)
(-0.00703273 0.216147 2.33012e-20)
(0.0114627 0.216836 8.85363e-20)
(0.0325265 0.213775 1.3572e-21)
(0.0558784 0.20827 -3.89768e-20)
(0.081328 0.2012 0)
(0.108732 0.193122 -3.62191e-20)
(0.137988 0.184377 6.70745e-20)
(0.16906 0.175159 6.60031e-20)
(0.201964 0.165581 -3.0666e-20)
(0.236941 0.155739 -7.07492e-22)
(0.273892 0.145638 -2.90964e-20)
(0.314902 0.135551 5.4565e-20)
(0.355937 0.124792 5.38203e-20)
(0.409011 0.114749 -5.16844e-20)
(0.449139 0.102271 4.82976e-20)
(0.526681 0.0926994 -4.60858e-20)
(0.553635 0.0775976 0)
(0.670458 0.0684945 -4.31178e-20)
(-0.0134067 0.0250889 3.65105e-20)
(-0.0326136 0.0716174 -3.43383e-20)
(-0.0407555 0.113092 3.16969e-20)
(-0.0401891 0.145922 0)
(-0.0324204 0.169288 0)
(-0.0187182 0.183955 4.99919e-20)
(-0.000256166 0.191419 -4.66113e-20)
(0.0220256 0.193377 4.39221e-20)
(0.0474536 0.19139 -2.04944e-19)
(0.0755838 0.186721 -5.63314e-22)
(0.106166 0.18031 3.6258e-20)
(0.139132 0.172818 0)
(0.174583 0.164692 -6.73116e-20)
(0.212832 0.156252 1.27052e-19)
(0.254373 0.147713 -9.07774e-20)
(0.300149 0.139262 -1.48035e-19)
(0.349996 0.130688 -3.35767e-21)
(0.407331 0.122597 1.04455e-19)
(0.465131 0.113253 0)
(0.5416 0.106233 0)
(0.598337 0.094788 -4.83139e-20)
(0.705999 0.0901199 4.61003e-20)
(0.741646 0.0755784 -1.74241e-19)
(0.891872 0.0729673 1.62503e-19)
(-0.0122483 0.0191474 0)
(-0.0311118 0.0562833 0)
(-0.0401819 0.0904548 -9.50492e-20)
(-0.0403979 0.118364 2.9502e-20)
(-0.0326684 0.138935 1.81821e-22)
(-0.0180246 0.152391 4.96904e-20)
(0.00242118 0.15966 0)
(0.0277064 0.161998 -4.29013e-20)
(0.0571478 0.1607 4.07298e-20)
(0.090393 0.156914 -7.58818e-20)
(0.127438 0.151571 -6.22374e-22)
(0.168617 0.145409 6.88559e-20)
(0.214585 0.138993 1.56448e-21)
(0.266192 0.132693 6.4355e-20)
(0.324185 0.1267 -8.75957e-20)
(0.389421 0.121069 0)
(0.461481 0.115756 1.10394e-19)
(0.542188 0.110967 -1.5594e-19)
(0.625154 0.105682 4.90388e-20)
(0.721996 0.102368 0)
(0.80263 0.094991 4.45937e-20)
(0.919234 0.0948116 1.75632e-19)
(0.971019 0.082153 -1.63989e-19)
(1.11624 0.0854527 -1.9358e-19)
(-0.0117839 0.0149942 1.09521e-19)
(-0.0306583 0.0439766 -1.38075e-19)
(-0.0407184 0.0704137 3.45692e-22)
(-0.0417204 0.0920645 2.94299e-20)
(-0.0340376 0.10815 -5.38529e-20)
(-0.0183708 0.118763 -4.98278e-20)
(0.00446607 0.124556 9.19711e-20)
(0.0338409 0.126513 6.60882e-22)
(0.069489 0.125733 -7.94832e-20)
(0.111585 0.123264 1.50032e-19)
(0.160724 0.120036 1.7392e-21)
(0.217734 0.116781 -6.6055e-20)
(0.283363 0.113996 0)
(0.358044 0.111936 0)
(0.441559 0.110795 -2.92404e-20)
(0.533036 0.110262 -5.43388e-20)
(0.630648 0.110812 -1.06794e-19)
(0.732139 0.110754 9.95516e-20)
(0.834424 0.111983 -4.90793e-20)
(0.935467 0.110956 9.23506e-20)
(1.02794 0.11012 -4.32247e-20)
(1.12181 0.108731 8.40608e-20)
(1.18177 0.100045 -1.92245e-19)
(1.27554 0.101408 3.7781e-20)
(-0.0124343 0.0126806 3.66027e-20)
(-0.0317807 0.0351828 0)
(-0.0422881 0.0542779 6.35372e-20)
(-0.0429668 0.0693324 -5.88326e-20)
(-0.0337245 0.0802501 5.39263e-20)
(-0.0147558 0.0873421 0)
(0.0137817 0.0912729 0)
(0.0520252 0.092958 -4.23155e-20)
(0.10048 0.0934131 -3.53254e-22)
(0.15988 0.093612 3.64074e-20)
(0.230842 0.0943559 -3.49693e-20)
(0.313472 0.0961865 6.50472e-20)
(0.407015 0.0993884 0)
(0.5097 0.103933 1.19485e-19)
(0.618718 0.109651 -2.25001e-19)
(0.730722 0.115725 1.60352e-19)
(0.841594 0.122294 1.02891e-19)
(0.947593 0.126778 -9.59149e-20)
(1.04508 0.132114 0)
(1.12998 0.130927 0)
(1.20233 0.133493 0)
(1.25668 0.124091 0)
(1.29682 0.120597 3.74659e-20)
(1.32616 0.108275 -1.3461e-19)
(-0.450499 -0.0853753 -3.54585e-21)
(-0.480603 -0.121399 3.55182e-21)
(-0.505223 -0.155716 -1.15162e-22)
(-0.532659 -0.192311 0)
(-0.55674 -0.226909 -3.45656e-21)
(-0.580878 -0.260861 6.71069e-21)
(-0.601537 -0.291653 -2.39722e-23)
(-0.619033 -0.318814 -3.13967e-21)
(-0.630634 -0.340217 0)
(-0.634879 -0.354309 0)
(-0.629211 -0.358914 -1.64581e-22)
(-0.611739 -0.352089 -1.52928e-22)
(-0.580756 -0.331856 -2.44609e-21)
(-0.535673 -0.296713 2.23803e-21)
(-0.477009 -0.245731 0)
(-0.406921 -0.179341 0)
(-0.328432 -0.0989365 1.65308e-21)
(-0.245011 -0.00694546 -1.6543e-22)
(-0.157262 0.0930639 -1.32481e-21)
(-0.0653351 0.194218 -5.78642e-23)
(0.0297668 0.280331 0)
(0.123317 0.337832 0)
(0.203931 0.359412 0)
(0.266607 0.35083 0)
(0.302077 0.322796 0)
(0.312751 0.286762 0)
(0.31558 0.24117 -9.14423e-23)
(0.337519 0.182564 1.41943e-22)
(0.391512 0.111269 0)
(0.469194 0.0394352 0)
(0.555335 -0.0231963 1.02895e-22)
(0.634331 -0.0674861 -9.99772e-23)
(0.699742 -0.0949656 -4.5043e-23)
(0.74835 -0.106389 0)
(0.782446 -0.108303 0)
(0.803652 -0.102019 -6.55616e-23)
(0.814602 -0.093435 6.37204e-23)
(0.817603 -0.0815618 0)
(0.816513 -0.0698482 -4.28595e-23)
(0.81689 -0.0545224 6.12914e-23)
(0.822389 -0.0388024 -1.67085e-23)
(0.835379 -0.0198465 0)
(0.852867 -0.00355772 2.26578e-23)
(0.872826 0.0123243 -2.20313e-23)
(0.890776 0.0220417 0)
(0.906376 0.0302278 0)
(0.9177 0.0323894 6.44661e-24)
(0.926648 0.0342683 -1.8121e-23)
(0.932856 0.0314424 0)
(0.938602 0.0301775 0)
(0.943036 0.0256324 3.38154e-24)
(0.947899 0.0241899 -2.83306e-26)
(0.951818 0.0201967 4.27239e-25)
(0.956978 0.0200106 -1.84336e-24)
(0.961545 0.0174922 0)
(0.968063 0.0188706 0)
(0.973044 0.0176093 0)
(0.980175 0.0198833 0)
(0.983541 0.0192761 0)
(0.990491 0.0218943 0)
(-0.30836 -0.0471073 -3.65663e-22)
(-0.337952 -0.0863202 -1.5547e-20)
(-0.358939 -0.121454 -9.87211e-23)
(-0.385925 -0.159443 1.46311e-20)
(-0.411633 -0.19586 2.31675e-22)
(-0.439786 -0.231924 0)
(-0.468256 -0.266125 -1.3138e-20)
(-0.497088 -0.297751 2.55981e-20)
(-0.524796 -0.325323 -1.24568e-20)
(-0.549857 -0.347149 1.10065e-20)
(-0.570122 -0.361261 -1.05233e-20)
(-0.582866 -0.365314 9.15556e-21)
(-0.585138 -0.356821 -8.88456e-21)
(-0.573966 -0.333358 -2.35956e-22)
(-0.547191 -0.29301 -6.94641e-21)
(-0.503966 -0.235068 6.74585e-21)
(-0.44509 -0.160443 -5.49969e-21)
(-0.373532 -0.0718194 5.20149e-21)
(-0.290409 0.0261483 -3.88947e-21)
(-0.198334 0.124944 6.5932e-21)
(-0.102336 0.213234 -2.7481e-21)
(-0.00843188 0.277965 -6.79283e-23)
(0.0714237 0.313574 -2.10263e-22)
(0.132488 0.32302 -9.40372e-23)
(0.172323 0.310608 2.89722e-22)
(0.204849 0.279165 -4.0177e-23)
(0.251871 0.224451 -8.33055e-22)
(0.326629 0.150574 -5.24858e-23)
(0.42543 0.0680137 1.58204e-21)
(0.529906 -0.0066939 -1.55611e-21)
(0.626163 -0.0646574 7.59948e-22)
(0.703742 -0.100653 -8.95458e-23)
(0.762007 -0.119159 4.51366e-23)
(0.801584 -0.122761 -8.07813e-23)
(0.827596 -0.118584 0)
(0.842882 -0.107745 0)
(0.850981 -0.0956022 2.29308e-22)
(0.852478 -0.0811853 -1.70253e-22)
(0.849254 -0.0683425 -1.27725e-22)
(0.8439 -0.0536491 1.19949e-26)
(0.840565 -0.0398531 1.61693e-22)
(0.842746 -0.0231287 -2.92343e-23)
(0.850766 -0.00842413 0)
(0.863648 0.00700724 0)
(0.877943 0.0171377 0)
(0.892319 0.0261899 0)
(0.904415 0.0292781 -2.77801e-23)
(0.914979 0.031918 1.18632e-23)
(0.923354 0.0295882 0)
(0.931143 0.028642 0)
(0.937442 0.0242976 0)
(0.943678 0.0230013 5.16306e-24)
(0.948618 0.0190501 -9.20152e-25)
(0.954449 0.0188425 4.087e-24)
(0.959516 0.0162291 0)
(0.966479 0.0175976 0)
(0.971829 0.0163295 -1.67471e-24)
(0.979389 0.0187953 -3.82755e-24)
(0.982994 0.0182673 0)
(0.990342 0.0212129 0)
(-0.136235 -0.0140278 1.17387e-21)
(-0.160706 -0.0539914 -3.21302e-20)
(-0.176963 -0.0895217 3.26383e-20)
(-0.198381 -0.126666 -3.04675e-20)
(-0.220629 -0.163034 -2.33315e-22)
(-0.245724 -0.198683 0)
(-0.273221 -0.233002 -2.77127e-20)
(-0.303023 -0.265218 2.71143e-20)
(-0.334846 -0.294391 1.90819e-22)
(-0.368232 -0.319344 3.51954e-22)
(-0.402315 -0.338765 3.18179e-22)
(-0.435362 -0.350592 2.94821e-22)
(-0.464827 -0.352364 -1.56223e-20)
(-0.487156 -0.341263 1.54079e-20)
(-0.498261 -0.314404 0)
(-0.494218 -0.269643 3.09549e-22)
(-0.472018 -0.206593 -8.67961e-21)
(-0.430951 -0.127049 8.56924e-21)
(-0.371876 -0.0347854 0)
(-0.296467 0.0606161 0)
(-0.210579 0.150628 -2.5694e-21)
(-0.122316 0.222905 3.65048e-21)
(-0.0416165 0.270457 -1.14977e-21)
(0.0296467 0.291511 7.08368e-22)
(0.0959272 0.284061 -1.6871e-21)
(0.170301 0.247402 2.30672e-21)
(0.266311 0.181357 -2.40947e-21)
(0.381643 0.0981633 2.16322e-24)
(0.503962 0.0134412 1.27344e-21)
(0.614941 -0.0559591 0)
(0.705868 -0.104018 0)
(0.77225 -0.129293 -5.21026e-22)
(0.817865 -0.138405 6.74812e-22)
(0.845984 -0.134885 3.36576e-24)
(0.862851 -0.125819 -5.67978e-22)
(0.871587 -0.111857 5.51891e-22)
(0.87631 -0.0975332 0)
(0.877295 -0.0813109 -5.28379e-23)
(0.87552 -0.067039 -3.95348e-22)
(0.870607 -0.051828 7.2167e-22)
(0.86514 -0.0387315 -2.9384e-22)
(0.861597 -0.0236145 -3.02741e-23)
(0.862508 -0.010645 2.42984e-22)
(0.868182 0.00356111 -1.86361e-22)
(0.877342 0.0132555 -3.79246e-23)
(0.888492 0.0224743 -3.27165e-23)
(0.899625 0.0260269 2.78542e-23)
(0.910385 0.0291823 0)
(0.919916 0.0272713 0)
(0.928922 0.0266746 6.7178e-23)
(0.936438 0.0226213 -3.15318e-23)
(0.943454 0.0215783 2.4287e-23)
(0.948889 0.0177614 -3.00402e-23)
(0.954856 0.017595 -3.13052e-23)
(0.959898 0.0149171 7.36986e-24)
(0.96676 0.0162872 -1.03957e-23)
(0.971998 0.0150122 7.83755e-24)
(0.979531 0.0176736 -3.29033e-24)
(0.983092 0.0172245 0)
(0.990505 0.0205079 0)
(0.0358401 0.00755614 -6.83628e-20)
(0.0177304 -0.0265805 -7.33277e-22)
(0.00652798 -0.0625461 6.52157e-20)
(-0.00920059 -0.0987101 -5.00211e-22)
(-0.026543 -0.134654 0)
(-0.0464244 -0.169836 0)
(-0.0686737 -0.203492 -5.67321e-20)
(-0.0931252 -0.234826 1.72744e-21)
(-0.119816 -0.26301 7.55113e-20)
(-0.149259 -0.286993 -1.92799e-21)
(-0.181645 -0.306579 -2.15567e-20)
(-0.21682 -0.320012 -1.65071e-20)
(-0.254262 -0.325829 1.65676e-20)
(-0.292213 -0.322024 0)
(-0.327462 -0.305964 -1.02123e-20)
(-0.355501 -0.274814 9.34078e-21)
(-0.370609 -0.226836 0)
(-0.367956 -0.161846 0)
(-0.344601 -0.0824265 3.69705e-21)
(-0.298451 0.00615547 -1.17826e-21)
(-0.232807 0.0920805 -2.26406e-21)
(-0.155144 0.166949 -3.44147e-22)
(-0.0718871 0.219816 2.75269e-22)
(0.0148182 0.244641 7.60737e-22)
(0.110495 0.236608 1.40464e-22)
(0.219945 0.194239 -8.66219e-22)
(0.346909 0.122235 -1.11844e-22)
(0.479964 0.0380196 -2.11672e-23)
(0.60492 -0.0418607 0)
(0.707435 -0.101006 -1.22116e-21)
(0.783622 -0.136965 1.25967e-21)
(0.833843 -0.151345 -8.42291e-23)
(0.864827 -0.152112 0)
(0.88143 -0.142893 7.83913e-23)
(0.889884 -0.130236 -1.10729e-21)
(0.892806 -0.114267 1.95171e-21)
(0.89391 -0.0988845 3.86975e-23)
(0.893531 -0.0819189 -7.71777e-23)
(0.892874 -0.0668245 -6.81948e-22)
(0.890352 -0.0508669 -8.04247e-23)
(0.886946 -0.037561 5.27556e-22)
(0.883047 -0.023024 -4.52689e-22)
(0.881362 -0.0111845 5.70708e-25)
(0.882619 0.00180855 -1.68457e-22)
(0.887561 0.0106489 2.01827e-22)
(0.895161 0.0194964 2.24122e-22)
(0.904351 0.0230525 -6.42387e-23)
(0.914128 0.0264215 -9.11246e-23)
(0.923626 0.0247895 1.65811e-22)
(0.93276 0.0245201 -1.09948e-22)
(0.940534 0.0208053 2.51038e-23)
(0.947531 0.0200888 -3.21724e-23)
(0.952788 0.0164765 -2.36865e-23)
(0.958301 0.0164011 4.76815e-23)
(0.96277 0.0136821 -1.3955e-24)
(0.968989 0.0150535 1.03617e-23)
(0.973635 0.013758 0)
(0.980672 0.0165953 3.27159e-24)
(0.983898 0.0162101 -4.28677e-24)
(0.991018 0.0198129 0)
(0.193156 0.0239276 6.9746e-20)
(0.186953 -0.00656714 -1.36963e-19)
(0.178446 -0.0400992 6.66065e-20)
(0.16836 -0.0744898 6.60851e-20)
(0.156215 -0.109514 -1.2838e-19)
(0.141799 -0.144206 1.54664e-21)
(0.125272 -0.177594 5.94787e-20)
(0.106893 -0.208839 5.32952e-20)
(0.0869943 -0.237035 -5.2135e-20)
(0.0644366 -0.261341 0)
(0.0390577 -0.280505 -3.87853e-20)
(0.0112132 -0.293224 7.11395e-20)
(-0.0200452 -0.298544 -3.2521e-20)
(-0.0547543 -0.295468 0)
(-0.0921094 -0.282747 0)
(-0.130187 -0.258702 2.66287e-22)
(-0.164275 -0.222059 -1.01214e-20)
(-0.188262 -0.171252 9.8265e-21)
(-0.195016 -0.107562 0)
(-0.179953 -0.0315606 2.15323e-21)
(-0.13937 0.0430244 -2.38233e-21)
(-0.0765328 0.112523 -4.54213e-22)
(0.00304013 0.162788 2.22308e-21)
(0.0966572 0.187445 1.65689e-22)
(0.207625 0.177482 -2.89703e-21)
(0.332659 0.132146 1.34404e-21)
(0.468574 0.0596432 4.50335e-23)
(0.599635 -0.0206426 6.59249e-22)
(0.712548 -0.090794 2.00617e-22)
(0.797361 -0.137563 -8.62249e-22)
(0.853821 -0.161601 -7.44337e-23)
(0.886167 -0.166385 1.22279e-21)
(0.902789 -0.160555 -2.39805e-21)
(0.909131 -0.147348 1.31817e-21)
(0.910639 -0.132451 0)
(0.909145 -0.115377 1.11278e-21)
(0.907333 -0.0995959 -1.07189e-21)
(0.905274 -0.0825707 6.87418e-22)
(0.904411 -0.0673695 -8.58652e-22)
(0.903352 -0.0510854 7.98301e-23)
(0.902505 -0.0374319 0)
(0.900824 -0.0228564 6.0826e-23)
(0.900051 -0.0114333 -1.57937e-22)
(0.900388 0.000844264 0)
(0.903435 0.00893403 -3.7347e-22)
(0.908703 0.0172462 1.52334e-22)
(0.916061 0.0205513 -5.73435e-23)
(0.92441 0.0239192 -4.90884e-23)
(0.933029 0.0224404 0)
(0.941417 0.0224496 0)
(0.948593 0.0190747 8.37546e-23)
(0.954909 0.0187109 -1.2228e-22)
(0.959444 0.0153373 6.38012e-23)
(0.964086 0.0153808 -1.9143e-23)
(0.967598 0.0126329 -2.90928e-23)
(0.972802 0.0139956 -1.03729e-23)
(0.976508 0.0126568 1.5606e-23)
(0.982686 0.015631 0)
(0.985348 0.0152833 6.97388e-24)
(0.991861 0.0191612 1.66472e-24)
(0.33917 0.0378286 7.04404e-20)
(0.34021 0.0072849 -6.96008e-20)
(0.339619 -0.0232875 5.37394e-22)
(0.335544 -0.0552289 -5.19407e-22)
(0.329479 -0.0883867 5.09508e-22)
(0.321574 -0.121808 -4.88927e-22)
(0.311668 -0.154479 9.19917e-22)
(0.299839 -0.185547 0)
(0.28626 -0.214102 -7.94485e-22)
(0.270494 -0.239304 7.19512e-22)
(0.25214 -0.258893 6.38565e-22)
(0.231102 -0.272039 -5.62041e-22)
(0.206978 -0.277541 0)
(0.17956 -0.274502 0)
(0.149152 -0.262009 2.98287e-22)
(0.115791 -0.239321 0)
(0.0819103 -0.207135 -1.54408e-22)
(0.0507362 -0.16609 0)
(0.0302454 -0.115524 -2.32703e-21)
(0.0246245 -0.0565032 2.79595e-21)
(0.0427282 0.00667168 3.69059e-22)
(0.0881208 0.0650242 -8.58509e-22)
(0.15763 0.108653 -1.74831e-21)
(0.247033 0.130493 1.69695e-21)
(0.356269 0.118018 9.00267e-22)
(0.479321 0.0717274 -8.62853e-22)
(0.607719 0.00171694 0)
(0.724223 -0.0711681 -1.34411e-23)
(0.816429 -0.129252 0)
(0.878163 -0.163719 0)
(0.913239 -0.177464 -2.00706e-21)
(0.928464 -0.174924 2.06008e-21)
(0.932593 -0.164589 -1.36656e-22)
(0.93073 -0.149067 -1.44423e-22)
(0.926986 -0.133119 1.29819e-22)
(0.922377 -0.115667 9.61736e-22)
(0.918543 -0.099878 -9.33674e-22)
(0.915169 -0.0830804 8.84993e-22)
(0.91347 -0.0681608 -7.59131e-22)
(0.91259 -0.0520045 -1.60258e-22)
(0.913013 -0.0382927 5.34513e-22)
(0.913432 -0.0236089 6.9045e-24)
(0.914666 -0.0122372 -3.45112e-22)
(0.9162 -0.000218909 0)
(0.919394 0.00746522 1.58325e-22)
(0.924004 0.0153867 -1.88449e-22)
(0.930345 0.0184438 2.48972e-22)
(0.937547 0.0217611 4.94174e-23)
(0.945037 0.0203866 0)
(0.952318 0.0206376 -3.03624e-23)
(0.958454 0.0175783 6.36344e-23)
(0.963792 0.0175555 4.05926e-26)
(0.967375 0.0144235 2.00192e-23)
(0.971027 0.0145956 -2.98766e-23)
(0.973469 0.0118256 2.90893e-23)
(0.977535 0.0131676 0)
(0.980162 0.0117632 -1.56153e-23)
(0.985294 0.0148271 0)
(0.987272 0.014487 0)