/*--------------------------------*- C++ -*----------------------------------*\
| =========                 |                                                 |
| \\      /  F ield         | OpenFOAM: The Open Source CFD Toolbox           |
|  \\    /   O peration     | Version:  2312                                  |
|   \\  /    A nd           | Website:  www.openfoam.com                      |
|    \\/     M anipulation  |                                                 |
\*---------------------------------------------------------------------------*/
FoamFile
{
    version     2.0;
    format      ascii;
    arch        "LSB;label=32;scalar=64";
    class       surfaceScalarField;
    location    "1";
    object      phi;
}
// * * * * * * * * * * * * * * * * * * * * * * * * * * * * * * * * * * * * * //

dimensions      [0 3 -1 0 0 0 0];

oriented        oriented;

internalField   nonuniform List<scalar> 
26232
(
0.00119948
0.0016795
-0.00287897
0.0047682
-0.0115993
0.00803055
0.0102224
-0.0331623
0.0277081
0.0165156
-0.0543942
0.048101
0.0227416
-0.0703925
0.0641665
0.0284543
-0.0802755
0.0745628
0.0336047
-0.0853415
0.0801911
0.0383469
-0.0873887
0.0826465
0.0428768
-0.087882
0.0833522
0.0473463
-0.087749
0.0832795
0.0518482
-0.0874799
0.082978
0.0564298
-0.0872954
0.0827138
0.061111
-0.0872786
0.0825973
0.0658987
-0.0874522
0.0826645
0.0707941
-0.087816
0.0829205
0.0757971
-0.0883618
0.0833589
0.080909
-0.0890819
0.08397
0.086126
-0.0899645
0.0847475
0.0914635
-0.0910074
0.0856699
0.0969165
-0.0922044
0.0867514
0.102506
-0.0935407
0.0879511
0.108346
-0.0950482
0.0892078
0.114248
-0.0967234
0.090822
-0.098153
0.0920237
0.120377
0.00141551
0.000263985
0.00541868
-0.0156024
0.0112041
-0.0389477
0.0175228
-0.0607129
0.0234665
-0.0763362
0.0287057
-0.0855147
0.0333122
-0.089948
0.0375143
-0.0915908
0.0415346
-0.0919024
0.0455264
-0.0917408
0.0495734
-0.0915269
0.0537133
-0.0914353
0.05796
-0.0915253
0.0623168
-0.091809
0.0667833
-0.0922825
0.0713591
-0.0929376
0.0760422
-0.0937651
0.0808352
-0.0947575
0.0857337
-0.0959059
0.0907392
-0.0972098
0.0958351
-0.0986366
0.101052
-0.100265
0.106284
-0.101955
-0.103825
0.111956
0.0016215
-0.00135752
0.00599857
-0.0199795
0.0119759
-0.044925
0.0181548
-0.0668918
0.0236897
-0.0818712
0.0283885
-0.0902134
0.0324329
-0.0939924
0.0361045
-0.0952624
0.0396347
-0.0954326
0.0431659
-0.095272
0.0467684
-0.0951294
0.0504704
-0.0951374
0.0542804
-0.0953353
0.0581993
-0.0957279
0.062226
-0.0963092
0.0663593
-0.0970709
0.0705989
-0.0980047
0.0749458
-0.0991044
0.0794001
-0.10036
0.0839656
-0.101775
0.0886583
-0.103329
0.0934251
-0.105032
0.0983419
-0.106872
-0.108708
0.103224
0.00181956
-0.00317708
0.00648738
-0.0246473
0.0125217
-0.0509594
0.0184383
-0.0728084
0.0234953
-0.0869282
0.0276372
-0.0943553
0.0311352
-0.0974904
0.0343027
-0.0984299
0.0373677
-0.0984975
0.0404571
-0.0983614
0.0436281
-0.0983004
0.0469008
-0.0984101
0.0502797
-0.0987141
0.0537638
-0.099212
0.0573511
-0.0998965
0.0610396
-0.10076
0.0648288
-0.101794
0.0687159
-0.102992
0.0727055
-0.10435
0.0767881
-0.105858
0.0809769
-0.107518
0.0852821
-0.109337
0.0896758
-0.111266
-0.113376
0.0943438
0.0020004
-0.00517748
0.00687046
-0.0295174
0.0128231
-0.0569121
0.0183545
-0.0783397
0.0228598
-0.0914336
0.0264188
-0.0979142
0.0293736
-0.100445
0.0320512
-0.101108
0.0346643
-0.101111
0.0373202
-0.101017
0.0400625
-0.101043
0.0429044
-0.101252
0.045848
-0.101658
0.0488919
-0.102256
0.0520343
-0.103039
0.0552735
-0.103999
0.0586081
-0.105128
0.0620385
-0.106422
0.0655615
-0.107873
0.0691816
-0.109478
0.0728932
-0.11123
0.0766876
-0.113131
0.0805742
-0.115153
-0.117315
0.0845141
0.00215773
-0.00733522
0.00712687
-0.0344865
0.0128643
-0.0626495
0.0179137
-0.0833891
0.0218299
-0.0953497
0.0248128
-0.100897
0.0272507
-0.102883
0.0294651
-0.103322
0.0316459
-0.103291
0.0338804
-0.103252
0.0362004
-0.103363
0.038614
-0.103666
0.0411215
-0.104165
0.043721
-0.104855
0.0464107
-0.105729
0.0491892
-0.106777
0.0520557
-0.107995
0.0550093
-0.109376
0.0580509
-0.110914
0.0611793
-0.112606
0.0644014
-0.114452
0.0677069
-0.116437
0.0711289
-0.118575
-0.120883
0.074697
0.0022861
-0.00962132
0.00724549
-0.0394459
0.0126487
-0.0680527
0.01714
-0.0878804
0.02044
-0.0986498
0.0228508
-0.103308
0.0247858
-0.104818
0.0265492
-0.105085
0.0283041
-0.105046
0.0301191
-0.105067
0.0320166
-0.10526
0.0340011
-0.10565
0.036072
-0.106236
0.0382273
-0.107011
0.0404651
-0.107966
0.0427841
-0.109096
0.0451829
-0.110394
0.047661
-0.111854
0.0502176
-0.113471
0.0528529
-0.115242
0.0555626
-0.117162
0.0583542
-0.119229
0.0612215
-0.121442
-0.123814
0.0641517
0.0023774
-0.0119987
0.00721492
-0.0442834
0.0121809
-0.0730187
0.0160602
-0.0917596
0.0187377
-0.101327
0.0205953
-0.105166
0.022051
-0.106274
0.0233805
-0.106415
0.024719
-0.106385
0.0261177
-0.106466
0.0275918
-0.106734
0.0291436
-0.107202
0.0307721
-0.107865
0.0324757
-0.108714
0.0342529
-0.109744
0.0361027
-0.110946
0.0380241
-0.112315
0.0400165
-0.113846
0.0420797
-0.115534
0.0442131
-0.117375
0.0464173
-0.119366
0.0486892
-0.1215
0.0510416
-0.123794
-0.126232
0.0534595
0.00242537
-0.0144241
0.00703715
-0.0488952
0.0114794
-0.0774609
0.0147114
-0.0949917
0.0167692
-0.103385
0.0180901
-0.106486
0.0190804
-0.107264
0.019983
-0.107318
0.0209066
-0.107308
0.0218884
-0.107447
0.0229381
-0.107784
0.0240567
-0.108321
0.025243
-0.109051
0.0264954
-0.109967
0.0278125
-0.111061
0.029193
-0.112326
0.0306362
-0.113758
0.0321413
-0.115351
0.033708
-0.117101
0.0353356
-0.119003
0.037023
-0.121053
0.0387757
-0.123253
0.0405872
-0.125606
-0.128096
0.0424517
0.0024218
-0.0168459
0.00671043
-0.0531838
0.0105604
-0.0813109
0.0131278
-0.0975591
0.0145809
-0.104838
0.0153887
-0.107294
0.0159315
-0.107807
0.0164157
-0.107802
0.0169256
-0.107818
0.0174874
-0.108009
0.018107
-0.108403
0.018785
-0.108999
0.0195208
-0.109787
0.0203134
-0.110759
0.0211619
-0.111909
0.0220658
-0.11323
0.0230244
-0.114717
0.0240374
-0.116364
0.0251046
-0.118168
0.0262258
-0.120124
0.0274016
-0.122229
0.0286331
-0.124485
0.0299162
-0.126889
-0.12942
0.0312404
0.00236118
-0.0192071
0.00624105
-0.0570637
0.00945332
-0.0845232
0.0113556
-0.0994614
0.0122244
-0.105707
0.0125398
-0.10761
0.0126475
-0.107914
0.0127181
-0.107872
0.0128156
-0.107916
0.0129576
-0.108151
0.0131474
-0.108593
0.0133846
-0.109236
0.0136681
-0.11007
0.0139975
-0.111089
0.014372
-0.112284
0.0147916
-0.11365
0.0152562
-0.115182
0.0157663
-0.116874
0.0163228
-0.118724
0.016927
-0.120728
0.0175825
-0.122884
0.0182925
-0.125195
0.0190519
-0.127649
-0.130231
0.0198631
0.00224891
-0.021456
0.0056559
-0.0604707
0.00820711
-0.0870744
0.00945494
-0.100709
0.00976264
-0.106015
0.00960124
-0.107448
0.00927878
-0.107592
0.00893553
-0.107529
0.00861723
-0.107598
0.00833559
-0.10787
0.00809205
-0.10835
0.00788631
-0.10903
0.00771682
-0.109901
0.00758259
-0.110954
0.00748261
-0.112184
0.00741614
-0.113583
0.00738292
-0.115148
0.00738327
-0.116875
0.00741809
-0.118759
0.00748911
-0.120799
0.00760072
-0.122996
0.00775767
-0.125351
0.00796061
-0.127851
0.00825249
-0.130523
-0.00120067
0.000638768
0.000561901
-0.0022409
0.000343298
0.000696933
-0.00175272
-0.000742501
0.000254324
0.000799385
-0.00210165
-0.000450459
0.00536745
-0.00338375
-0.00118431
0.0115879
-0.00441172
-0.00180875
0.0189873
-0.00513228
-0.00226712
0.027124
-0.00557442
-0.00256231
0.0356523
-0.00580222
-0.00272602
0.0443347
-0.00588472
-0.00279767
0.0530285
-0.0058806
-0.00281322
0.0616621
-0.00583307
-0.00280054
0.0702113
-0.00577032
-0.0027789
0.0786803
-0.00570906
-0.00275993
0.0870879
-0.00565694
-0.00275063
0.0954594
-0.00561834
-0.00275316
0.103821
-0.0055919
-0.00276947
0.112199
-0.0055775
-0.00280104
0.120615
-0.00557634
-0.00283929
0.1291
-0.00557752
-0.00290709
0.137653
-0.00558631
-0.00296713
0.146337
-0.00563234
-0.00305157
0.155095
-0.00557112
-0.00318745
-0.00572136
0.164056
-0.00323935
-0.00116877
0.00180753
-0.00215082
0.00132535
-0.00159527
-0.00129805
0.00102561
-0.00472254
0.00565648
-0.00801461
0.0119218
-0.010677
0.0193432
-0.0125537
0.0274798
-0.0137111
0.0359898
-0.0143122
0.0446415
-0.0145364
0.0532978
-0.014537
0.061892
-0.0144272
0.070403
-0.0142813
0.0788369
-0.014143
0.0872137
-0.0140337
0.0955587
-0.0139633
0.103899
-0.0139318
0.11226
-0.0139385
0.120663
-0.0139802
0.129139
-0.0140534
0.137692
-0.014139
0.146377
-0.0143173
0.155153
-0.0143468
-0.014721
0.164152
-0.00107738
0.00288491
-0.00190395
0.00215192
-0.00117441
-0.00202758
0.00160932
-0.00750627
0.00637044
-0.0127757
0.0127128
-0.0170193
0.0201492
-0.0199901
0.0282424
-0.0218043
0.0366632
-0.022733
0.0451963
-0.0230694
0.0537201
-0.0230607
0.0621794
-0.0228865
0.070561
-0.0226629
0.0788747
-0.0224567
0.087142
-0.022301
0.0953876
-0.022209
0.103638
-0.0221822
0.111917
-0.0222178
0.120248
-0.0223109
0.128655
-0.0224605
0.137147
-0.0226305
0.145768
-0.0229389
0.154479
-0.023057
-0.0236303
0.163388
-0.000930636
0.00381555
-0.00150607
0.00272735
-0.000496726
-0.00303693
0.00252914
-0.0105321
0.00747496
-0.0177215
0.0139119
-0.0234563
0.0213424
-0.0274206
0.0293391
-0.029801
0.0375954
-0.0309894
0.0459227
-0.0313967
0.0542229
-0.031361
0.0624583
-0.0311219
0.0706259
-0.0308306
0.0787405
-0.0305713
0.0868249
-0.0303854
0.0949027
-0.0302868
0.102999
-0.0302788
0.111135
-0.0303537
0.119333
-0.0305087
0.127613
-0.0307404
0.135986
-0.0310035
0.144489
-0.0314423
0.15309
-0.0316578
-0.0324317
0.161892
-0.00073912
0.00455467
-0.000985342
0.00297357
0.000371046
-0.00439331
0.00373265
-0.0138937
0.00890844
-0.0228973
0.0154413
-0.0299891
0.0228306
-0.0348099
0.0306693
-0.0376396
0.038685
-0.0390051
0.0467249
-0.0394366
0.0547206
-0.0393567
0.0626545
-0.0390558
0.0705354
-0.0387114
0.0783826
-0.0384186
0.0862198
-0.0382225
0.0940687
-0.0381357
0.101953
-0.0381628
0.109889
-0.0382904
0.1179
-0.0385189
0.126001
-0.0388418
0.134202
-0.039204
0.142538
-0.0397785
0.15098
-0.0401003
-0.0410834
0.159632
-0.000512042
0.00506671
-0.000365525
0.00282706
0.0014331
-0.00619194
0.00517166
-0.0176323
0.0105933
-0.028319
0.0172011
-0.0365969
0.0244982
-0.0421071
0.0321111
-0.0452525
0.0398129
-0.046707
0.0474938
-0.0471175
0.055118
-0.0469809
0.0626886
-0.0466265
0.0702248
-0.0462476
0.0777498
-0.0459436
0.0852863
-0.0457591
0.0928541
-0.0457035
0.100474
-0.0457822
0.10816
-0.0459768
0.11593
-0.0462889
0.123807
-0.046719
0.131783
-0.0471797
0.139915
-0.0479105
0.148153
-0.048338
-0.0495218
0.156591
-0.000262373
0.00532908
0.000333417
0.00223127
0.00262455
-0.00848307
0.00677261
-0.0217804
0.0124343
-0.0339806
0.0190759
-0.0432386
0.0262176
-0.0492487
0.0335341
-0.052569
0.0408547
-0.0540275
0.048117
-0.0543798
0.0553183
-0.0541821
0.06248
-0.0537882
0.0696292
-0.0533968
0.0767906
-0.053105
0.0839852
-0.0529536
0.09123
-0.0529483
0.0985412
-0.0530935
0.105932
-0.053368
0.113414
-0.0537703
0.12102
-0.0543252
0.128714
-0.0548733
0.136603
-0.0557995
0.144592
-0.0563279
-0.0577065
0.152777
-1.11279e-05
0.00534021
0.00107486
0.00114528
0.00389116
-0.0112994
0.0084579
-0.0263471
0.0143312
-0.0398539
0.0209487
-0.0498561
0.0278641
-0.0561642
0.0348159
-0.0595208
0.0416971
-0.0609088
0.0484947
-0.0611774
0.055236
-0.0609234
0.0619573
-0.0605095
0.06869
-0.0601295
0.0754583
-0.0598733
0.0822794
-0.0597748
0.0891683
-0.0598373
0.0961358
-0.0600609
0.103196
-0.0604284
0.11035
-0.0609242
0.11764
-0.061615
0.125
-0.0622334
0.132588
-0.0633877
0.140278
-0.0640175
-0.065584
0.148155
0.000260686
0.00507952
0.00182754
-0.000421578
0.00518058
-0.0146524
0.0101513
-0.0313178
0.0161861
-0.0458887
0.0227081
-0.0563781
0.0293242
-0.0627803
0.0358495
-0.0660461
0.0422454
-0.0673047
0.0485456
-0.0674776
0.0548031
-0.0671809
0.061064
-0.0667704
0.0673608
-0.0664263
0.0737147
-0.0662271
0.0801383
-0.0661984
0.0866438
-0.0663428
0.0932358
-0.0666529
0.099932
-0.0671246
0.106727
-0.0677187
0.113656
-0.0685448
0.120672
-0.0692491
0.127872
-0.0705874
0.135203
-0.0713492
-0.0730086
0.142628
0.00050483
0.00457469
0.00256865
-0.0024854
0.00644735
-0.0185311
0.0117799
-0.0366504
0.0179054
-0.0520142
0.0242521
-0.0627248
0.0304996
-0.0690277
0.0365485
-0.072095
0.0424278
-0.0731839
0.048212
-0.0732618
0.0539729
-0.0729417
0.0597616
-0.0725591
0.0656093
-0.072274
0.0715328
-0.0721506
0.0775409
-0.0722065
0.0836405
-0.0724425
0.0898319
-0.0728443
0.0961283
-0.073421
0.102526
-0.0741165
0.109034
-0.0750527
0.115701
-0.0759165
0.122413
-0.0772986
0.129392
-0.0783284
-0.0798449
0.136228
0.000737187
0.00383751
0.00328071
-0.00502892
0.00765136
-0.0229018
0.0132765
-0.0422755
0.019403
-0.0581407
0.0254919
-0.0688137
0.0313116
-0.0748475
0.0368513
-0.0776347
0.0422006
-0.0785332
0.0474653
-0.0785266
0.0527283
-0.0782047
0.058041
-0.0778719
0.0634312
-0.0776642
0.0689119
-0.0776313
0.0744893
-0.0777838
0.0801655
-0.0781187
0.0859424
-0.0786212
0.0918191
-0.0792977
0.0978008
-0.0800982
0.103851
-0.0811028
0.110097
-0.0821626
0.116266
-0.0834676
0.122837
-0.0848993
-0.0861664
0.129158
0.000958534
0.00396016
0.00876652
0.0145921
0.0206178
0.0263669
0.0317105
0.0367223
0.0415413
0.0462942
0.0510676
0.0559095
0.0608426
0.0658758
0.0710126
0.0762528
0.0816016
0.0870514
0.0926232
0.0982718
0.10406
0.109801
0.115723
0.121581
0.167249
0.00143678
-0.00462934
0.169987
0.00207362
-0.00481165
0.172326
0.0023248
-0.00466383
0.174338
0.00261777
-0.00462977
0.176096
0.00307361
-0.00483203
0.177646
0.00349658
-0.00504661
0.179006
0.00386764
-0.00522782
0.180196
0.00424392
-0.00543356
0.181239
0.00462319
-0.00566641
0.182155
0.0049964
-0.00591198
0.182957
0.00536878
-0.00617116
0.183659
0.0057471
-0.00644876
0.184271
0.00613431
-0.00674665
0.184804
0.0065328
-0.00706555
0.185265
0.00694612
-0.00740712
0.185661
0.00737684
-0.00777292
0.185998
0.00782746
-0.00816451
0.186281
0.00830048
-0.00858371
0.186515
0.00879843
-0.0090325
0.186705
0.00932389
-0.00951298
0.186852
0.00987962
-0.0100274
0.186962
0.010469
-0.0105785
0.187036
0.0110952
-0.0111692
0.187077
0.0117611
-0.0118023
0.187087
0.0124707
-0.0124812
0.187069
0.0132282
-0.01321
0.187024
0.0140383
-0.013993
0.186953
0.0149058
-0.0148349
0.186858
0.015836
-0.0157408
0.186739
0.0168348
-0.0167165
0.186599
0.0179086
-0.0177682
0.186437
0.0190646
-0.0189029
0.186255
0.0203105
-0.0201283
0.186053
0.0216548
-0.0214527
0.185832
0.023107
-0.0228856
0.185591
0.0246775
-0.0244372
0.185333
0.0263777
-0.026119
0.185056
0.0282202
-0.0279434
0.184761
0.0302191
-0.0299243
0.184448
0.0323894
-0.032077
0.184118
0.0347482
-0.0344181
0.183771
0.0373137
-0.0369661
0.183406
0.0401062
-0.0397411
0.183023
0.0431478
-0.042765
0.182622
0.0464628
-0.0460622
0.182204
0.0500781
-0.0496597
0.181768
0.054024
-0.0535879
0.181315
0.0583359
-0.0578827
0.180844
0.0630545
-0.0625842
0.180356
0.0682239
-0.0677355
0.179849
0.0738867
-0.0733795
0.179322
0.080088
-0.0795617
0.178776
0.0868776
-0.0863316
0.17821
0.0943087
-0.0937425
0.177623
0.102437
-0.10185
0.177015
0.111325
-0.110716
0.176384
0.121002
-0.120371
0.175729
0.131733
-0.131078
0.175053
0.142253
-0.141577
0.158539
-0.157829
0.167299
-0.00170995
0.170018
-0.000645608
0.172325
1.75925e-05
0.174321
0.00062228
0.176086
0.00130805
0.177662
0.00192062
0.179045
0.00248554
0.180251
0.00303774
0.181311
0.00356264
0.182246
0.00406206
0.183067
0.00454699
0.183788
0.00502649
0.184418
0.0055043
0.184967
0.00598382
0.185443
0.00646965
0.185855
0.00696505
0.186208
0.00747431
0.186508
0.00800104
0.186758
0.00854839
0.186963
0.00911918
0.187126
0.00971647
0.18725
0.0103444
0.187339
0.0110063
0.187395
0.0117054
0.18742
0.0124457
0.187416
0.0132322
0.187385
0.0140695
0.187328
0.0149627
0.187247
0.0159173
0.187142
0.0169394
0.187015
0.0180356
0.186867
0.019213
0.186698
0.0204796
0.186508
0.0218441
0.186299
0.0233159
0.186071
0.0249056
0.185824
0.0266246
0.185559
0.0284858
0.185275
0.0305031
0.184972
0.0326919
0.184651
0.0350691
0.184312
0.0376531
0.183954
0.0404643
0.183577
0.0435249
0.183181
0.046859
0.182765
0.0504937
0.18233
0.0544589
0.181876
0.0587898
0.181403
0.0635276
0.180909
0.0687178
0.180393
0.0744023
0.179855
0.080626
0.179294
0.0874387
0.178709
0.0948939
0.178099
0.103048
0.177462
0.111961
0.176798
0.121666
0.176104
0.132427
0.175381
0.142976
0.159305
0.166413
-0.00473538
0.169069
-0.00330132
0.171398
-0.00231136
0.173366
-0.00134587
0.175087
-0.000412662
0.176644
0.000363105
0.178032
0.00109775
0.179255
0.00181507
0.180334
0.00248355
0.181286
0.00311015
0.182126
0.00370636
0.18287
0.00428273
0.183529
0.0048457
0.184109
0.00540349
0.184616
0.00596284
0.185055
0.00652564
0.185434
0.00709556
0.185759
0.00767618
0.186035
0.00827228
0.186266
0.00888774
0.186457
0.00952616
0.186609
0.0101924
0.186725
0.01089
0.186809
0.0116217
0.186862
0.0123924
0.186887
0.0132074
0.186885
0.0140714
0.186858
0.0149898
0.186807
0.0159683
0.186733
0.0170132
0.186637
0.0181311
0.186521
0.0193295
0.186384
0.0206163
0.186228
0.0220003
0.186053
0.0234913
0.185858
0.0250997
0.185646
0.0268373
0.185415
0.0287168
0.185165
0.0307524
0.184898
0.0329595
0.184612
0.0353551
0.184307
0.0379578
0.183983
0.0407881
0.18364
0.0438682
0.183277
0.0472224
0.182893
0.0508775
0.182489
0.0548632
0.182064
0.0592142
0.181619
0.0639731
0.18115
0.0691865
0.180657
0.0748955
0.180138
0.0811448
0.179592
0.0879843
0.179019
0.0954675
0.178416
0.103651
0.177782
0.112595
0.177116
0.122332
0.176414
0.133129
0.175676
0.143714
0.160097
0.164724
-0.00756805
0.167219
-0.00579599
0.169424
-0.00451629
0.171365
-0.00328701
0.17314
-0.00218755
0.174728
-0.00122524
0.176095
-0.000269211
0.177327
0.000583269
0.17843
0.00138101
0.179415
0.00212477
0.18029
0.00283137
0.181062
0.00351072
0.181743
0.00416496
0.182346
0.00480001
0.182884
0.00542478
0.183362
0.00604743
0.183782
0.00667618
0.184145
0.00731271
0.184458
0.00795975
0.184725
0.00862002
0.184953
0.00929858
0.185143
0.0100024
0.185298
0.0107349
0.185421
0.0114987
0.185514
0.0122992
0.18558
0.0131418
0.18562
0.0140317
0.185635
0.0149744
0.185628
0.0159758
0.185599
0.0170423
0.185549
0.018181
0.185479
0.0193991
0.18539
0.020705
0.185283
0.0221076
0.185158
0.0236166
0.185015
0.0252427
0.184855
0.0269977
0.184677
0.0288945
0.184482
0.0309473
0.18427
0.0331718
0.18404
0.0355851
0.183791
0.038206
0.183525
0.0410549
0.183238
0.0441543
0.182932
0.0475285
0.182606
0.0512043
0.182258
0.0552108
0.18189
0.0595825
0.181499
0.0643635
0.181084
0.069602
0.180642
0.0753376
0.180171
0.0816152
0.179671
0.0884847
0.179139
0.0959995
0.178574
0.104216
0.177973
0.113195
0.177335
0.12297
0.176657
0.133807
0.175937
0.144435
0.160879
0.162218
-0.010154
0.164534
-0.00811221
0.166622
-0.00660423
0.168506
-0.00517053
0.170239
-0.00392126
0.171824
-0.00281019
0.173266
-0.00171116
0.17452
-0.00067034
0.175638
0.000262849
0.176643
0.00111921
0.177542
0.00193272
0.178354
0.00269897
0.179088
0.00343065
0.179742
0.00414646
0.180318
0.00484876
0.180829
0.00553602
0.181288
0.00621705
0.1817
0.00690094
0.182063
0.0075964
0.18238
0.0083031
0.182656
0.00902327
0.182894
0.00976438
0.183098
0.0105306
0.183272
0.0113252
0.183416
0.0121544
0.183534
0.0130237
0.183628
0.0139383
0.183698
0.014904
0.183747
0.015927
0.183775
0.0170138
0.183785
0.0181717
0.183776
0.0194082
0.183749
0.0207316
0.183706
0.022151
0.183646
0.0236764
0.18357
0.0253185
0.183478
0.0270892
0.183371
0.0290017
0.183248
0.0310702
0.18311
0.0333105
0.182955
0.03574
0.182783
0.0383775
0.182594
0.0412438
0.182387
0.0443615
0.182161
0.0477549
0.181914
0.0514508
0.181648
0.0554777
0.18136
0.0598698
0.181051
0.0646732
0.180715
0.0699377
0.180351
0.0757013
0.179957
0.0820091
0.179531
0.088911
0.17907
0.0964605
0.178572
0.104714
0.178035
0.113732
0.177457
0.123548
0.176835
0.13443
0.176164
0.145105
0.161618
0.158917
-0.0124795
0.161004
-0.0102001
0.162925
-0.00852491
0.164739
-0.00698424
0.166463
-0.00564586
0.168042
-0.00438922
0.16947
-0.00313871
0.170786
-0.00198616
0.171974
-0.000924878
0.173013
7.93489e-05
0.173966
0.000979799
0.174821
0.00184477
0.175586
0.00266544
0.17628
0.00345198
0.176918
0.00421115
0.177492
0.0049623
0.178
0.00570835
0.178457
0.0064447
0.178872
0.0071814
0.179249
0.00792584
0.179587
0.00868541
0.179886
0.00946552
0.18015
0.0102664
0.180384
0.0110912
0.180591
0.0119475
0.180773
0.0128417
0.180932
0.0137794
0.181069
0.0147666
0.181186
0.0158096
0.181285
0.016915
0.181366
0.0180903
0.181431
0.0193432
0.181481
0.0206822
0.181515
0.0221164
0.181536
0.023656
0.181542
0.025312
0.181535
0.0270962
0.181515
0.0290221
0.181481
0.031104
0.181434
0.033358
0.181372
0.0358014
0.181296
0.0384535
0.181205
0.0413351
0.181097
0.0444692
0.180972
0.0478801
0.180828
0.0515946
0.180665
0.0556407
0.180483
0.0600521
0.180278
0.0648776
0.180048
0.0701681
0.179789
0.0759602
0.179499
0.0822994
0.179174
0.0892354
0.178813
0.0968217
0.178412
0.105115
0.177969
0.114175
0.177481
0.124036
0.176945
0.134966
0.176358
0.145692
0.162279
0.15484
-0.0145423
0.156688
-0.0120484
0.158421
-0.0102574
0.160141
-0.00870448
0.161826
-0.00733086
0.163392
-0.00595517
0.164832
-0.00457871
0.166164
-0.00331822
0.167397
-0.00215833
0.168533
-0.00105628
0.169514
-1.36723e-06
0.170436
0.000922731
0.171277
0.00182481
0.172037
0.00269192
0.172721
0.00352682
0.173346
0.0043376
0.173926
0.00512836
0.174452
0.00591874
0.174924
0.00670943
0.175356
0.00749358
0.175758
0.00828308
0.176131
0.00909273
0.176471
0.00992653
0.176779
0.0107836
0.177058
0.0116677
0.177315
0.0125856
0.17755
0.0135444
0.177765
0.0145509
0.177963
0.0156117
0.178145
0.0167336
0.178311
0.0179241
0.178463
0.0191911
0.178602
0.0205433
0.178728
0.0219899
0.178843
0.0235412
0.178947
0.0252084
0.17904
0.0270035
0.179122
0.02894
0.179193
0.0310326
0.179254
0.0332973
0.179303
0.0357518
0.179341
0.0384156
0.179366
0.0413099
0.179378
0.0444576
0.179375
0.0478835
0.179355
0.0516143
0.179318
0.0556774
0.179264
0.0601066
0.179188
0.064953
0.179088
0.0702688
0.178959
0.076089
0.178799
0.0824596
0.178603
0.0894305
0.17837
0.0970551
0.178095
0.10539
0.177775
0.114495
0.177408
0.124403
0.17699
0.135384
0.176518
0.146165
0.16283
0.14999
-0.0163771
0.151618
-0.013677
0.153132
-0.0117709
0.154729
-0.0103018
0.156355
-0.00895701
0.157895
-0.00749453
0.159343
-0.00602707
0.160712
-0.00468661
0.161985
-0.00343131
0.163164
-0.00223543
0.16427
-0.00110775
0.165213
-1.99696e-05
0.166117
0.000920374
0.166953
0.00185622
0.167728
0.00275167
0.168438
0.00362779
0.169085
0.00448122
0.169682
0.0053218
0.17024
0.00615171
0.170751
0.00698262
0.171217
0.00781704
0.171656
0.00865311
0.172076
0.00950729
0.17247
0.0103893
0.172838
0.0112998
0.173182
0.0122415
0.173505
0.0132211
0.173811
0.0142455
0.1741
0.015322
0.174376
0.016458
0.174639
0.0176612
0.17489
0.0189397
0.175131
0.0203022
0.175363
0.0217584
0.175586
0.0233185
0.1758
0.0249938
0.176007
0.0267966
0.176207
0.0287405
0.176399
0.0308404
0.176584
0.0331124
0.176761
0.0355746
0.17693
0.0382466
0.17709
0.0411499
0.17724
0.0443078
0.177378
0.0477453
0.177503
0.0514891
0.177614
0.0555663
0.17771
0.060011
0.177786
0.0648765
0.177839
0.0702157
0.177866
0.0760629
0.177861
0.0824643
0.177822
0.0894698
0.177744
0.0971332
0.177623
0.10551
0.177456
0.114662
0.177239
0.12462
0.17697
0.135653
0.176645
0.146489
0.163237
0.14428
-0.0180286
0.145795
-0.0151927
0.147145
-0.0131204
0.148539
-0.0116961
0.150038
-0.0104557
0.151543
-0.00899991
0.153023
-0.0075067
0.154443
-0.00610688
0.155777
-0.00476465
0.157012
-0.00347134
0.158162
-0.00225719
0.159258
-0.00111637
0.160217
-3.83556e-05
0.161131
0.000942229
0.161981
0.00190148
0.162773
0.00283592
0.163513
0.00374082
0.164198
0.00463753
0.164827
0.00552252
0.16542
0.00638977
0.165982
0.00725445
0.166505
0.00813083
0.167
0.00901226
0.167476
0.00991324
0.167935
0.0108409
0.168376
0.0118001
0.1688
0.012797
0.169208
0.0138373
0.169603
0.0149276
0.169985
0.0160755
0.170358
0.0172888
0.170721
0.0185759
0.171078
0.0199458
0.171428
0.0214083
0.171773
0.0229738
0.172113
0.0246537
0.172448
0.0264607
0.172781
0.0284083
0.173109
0.0305116
0.173435
0.0327872
0.173756
0.035253
0.174074
0.0379292
0.174386
0.0408374
0.174693
0.0440013
0.174992
0.0474462
0.175282
0.0511988
0.175562
0.0552861
0.17583
0.0597437
0.17608
0.0646257
0.17631
0.069986
0.176515
0.075858
0.176691
0.0822884
0.176833
0.0893275
0.176937
0.0970292
0.176998
0.105449
0.177012
0.114648
0.176975
0.124656
0.176885
0.135744
0.176739
0.146635
0.163465
0.137559
-0.0193591
0.139105
-0.0167387
0.140466
-0.0144819
0.141716
-0.0129465
0.14303
-0.0117694
0.144429
-0.0103992
0.145873
-0.00895019
0.147304
-0.00753841
0.148691
-0.00615099
0.150013
-0.00479393
0.151255
-0.00349895
0.152416
-0.00227735
0.153507
-0.00112927
0.154462
-1.27744e-05
0.155407
0.000956351
0.156299
0.00194365
0.157143
0.00289748
0.157948
0.00383252
0.158711
0.00475961
0.159425
0.00567576
0.160086
0.00659331
0.16071
0.00750656
0.161306
0.00841637
0.161879
0.0093405
0.162432
0.0102877
0.162971
0.0112613
0.163498
0.0122696
0.164015
0.0133201
0.164523
0.0144198
0.165023
0.0155759
0.165515
0.016796
0.166003
0.0180885
0.166486
0.0194625
0.166967
0.0209278
0.167445
0.0224952
0.167923
0.0241762
0.1684
0.0259834
0.168878
0.0279307
0.169356
0.0300334
0.169835
0.0323081
0.170315
0.0347732
0.170795
0.0374488
0.171276
0.0403572
0.171755
0.0435222
0.172231
0.0469696
0.172705
0.0507253
0.173173
0.0548175
0.173632
0.0592848
0.174078
0.0641798
0.174507
0.0695572
0.174914
0.0754511
0.175294
0.081908
0.175643
0.0889787
0.175955
0.0967173
0.176225
0.10518
0.176447
0.114426
0.176619
0.124484
0.176736
0.135627
0.176801
0.146571
0.163482
0.129905
-0.0201055
0.131297
-0.0181313
0.132664
-0.0158487
0.13385
-0.0141321
0.135132
-0.0130513
0.13661
-0.0118779
0.138141
-0.0104805
0.139642
-0.00903972
0.141082
-0.00759094
0.142449
-0.00616091
0.143742
-0.00479188
0.144966
-0.00350151
0.146131
-0.00229449
0.14727
-0.00115129
0.1483
-7.3488e-05
0.149274
0.000969217
0.1502
0.0019714
0.151075
0.00295808
0.151907
0.00392716
0.15271
0.00487302
0.153491
0.00581229
0.15424
0.00675716
0.154951
0.00770571
0.155634
0.00865777
0.1563
0.00962141
0.156953
0.0106081
0.157596
0.0116272
0.158229
0.0126862
0.158857
0.0137923
0.15948
0.0149529
0.1601
0.016176
0.160719
0.0174698
0.161337
0.0188437
0.161958
0.0203075
0.162581
0.0218722
0.163207
0.0235495
0.163839
0.0253522
0.164475
0.0272942
0.165117
0.0293911
0.165766
0.0316597
0.16642
0.0341186
0.167081
0.0367882
0.167747
0.0396909
0.168418
0.0428512
0.169093
0.0462949
0.169772
0.0500469
0.170453
0.0541363
0.171127
0.0586108
0.171789
0.0635178
0.172437
0.0689086
0.173068
0.0748204
0.173676
0.0812999
0.174256
0.088399
0.174801
0.0961721
0.175306
0.104675
0.175764
0.113968
0.176172
0.124075
0.176526
0.135273
0.176831
0.146266
0.163255
0.121775
-0.0203003
0.123116
-0.0194714
0.124392
-0.0171248
0.125266
-0.0150064
0.126175
-0.0139608
0.127439
-0.0131416
0.128954
-0.0119953
0.130555
-0.0106412
0.132149
-0.00918488
0.133687
-0.00769857
0.135148
-0.00625272
0.136529
-0.00488271
0.137827
-0.00359303
0.139053
-0.00237689
0.140207
-0.00122707
0.14128
-0.000103782
0.142334
0.000917516
0.143341
0.0019505
0.144309
0.00295949
0.145232
0.00394964
0.14612
0.0049246
0.146986
0.00589056
0.147835
0.00685714
0.148663
0.00783019
0.14947
0.00881415
0.150262
0.00981647
0.151043
0.0108461
0.151817
0.011912
0.152587
0.0130223
0.153355
0.0141848
0.154123
0.0154076
0.154894
0.0166994
0.155668
0.0180695
0.156447
0.0195281
0.157234
0.021086
0.158028
0.0227553
0.158831
0.0245489
0.159644
0.0264811
0.160468
0.0285673
0.161303
0.0308247
0.162149
0.0332721
0.163007
0.0359301
0.163877
0.0388215
0.164757
0.0419709
0.165648
0.0454041
0.166549
0.0491462
0.167451
0.0532335
0.16835
0.0577125
0.169241
0.0626259
0.170126
0.068024
0.170999
0.0739473
0.171855
0.0804441
0.172687
0.087567
0.173488
0.095371
0.174252
0.103912
0.174971
0.113249
0.175642
0.123404
0.176258
0.134657
0.176831
0.145693
0.162751
0.158805
-0.0184598
-0.160645
0.157475
-0.0181415
0.156933
-0.0165828
0.156449
-0.0145223
0.155734
-0.0132467
0.154968
-0.0123755
0.154326
-0.0113534
0.153853
-0.0101679
0.153561
-0.00889279
0.153431
-0.00756814
0.153421
-0.00624303
0.153497
-0.00495914
0.153629
-0.00372496
0.153808
-0.00255541
0.15401
-0.0014288
0.154254
-0.000348152
0.15446
0.000711678
0.154681
0.00172888
0.154908
0.00273268
0.155133
0.00372469
0.155361
0.00469707
0.155585
0.00566586
0.155802
0.0066409
0.156009
0.00762237
0.156209
0.00861501
0.156398
0.00962666
0.156579
0.0106656
0.156751
0.0117401
0.156915
0.0128582
0.157072
0.0140279
0.157222
0.0152574
0.157366
0.0165551
0.157505
0.0179306
0.157639
0.019394
0.157769
0.0209562
0.157895
0.0226292
0.158018
0.0244259
0.158139
0.0263606
0.158257
0.0284488
0.158374
0.0307077
0.15849
0.033156
0.158606
0.0358146
0.158722
0.0387059
0.158838
0.0418547
0.158955
0.0452869
0.159071
0.04903
0.159185
0.0531197
0.159298
0.0575997
0.159411
0.0625132
0.159525
0.06791
0.159639
0.0738326
0.159754
0.0803295
0.159867
0.0874534
0.159979
0.0952598
0.160086
0.103805
0.160186
0.113148
0.160277
0.123313
0.160356
0.134578
0.16042
0.145629
0.162721
0.169938
-0.0166077
-0.17179
0.168125
-0.0163284
0.16678
-0.0152385
0.165979
-0.0137208
0.165313
-0.0125812
0.164651
-0.011713
0.164053
-0.0107558
0.163564
-0.00967831
0.163211
-0.00854063
0.163002
-0.00735865
0.162915
-0.006156
0.16292
-0.0049646
0.162997
-0.00380209
0.163117
-0.00267479
0.163277
-0.00158877
0.163457
-0.000528434
0.163658
0.000511147
0.163862
0.00152436
0.164071
0.00252422
0.164283
0.00351282
0.164493
0.00448684
0.164701
0.00545753
0.164907
0.00643507
0.165108
0.00742093
0.165304
0.0084193
0.165493
0.00943762
0.165675
0.0104837
0.16585
0.0115653
0.166018
0.0126901
0.16618
0.0138661
0.166336
0.0151013
0.166486
0.0164044
0.166632
0.0177847
0.166774
0.0192525
0.166912
0.0208185
0.167046
0.0224947
0.167178
0.0242942
0.167307
0.026231
0.167435
0.0283209
0.167562
0.0305809
0.167688
0.0330298
0.167814
0.0356884
0.167941
0.0385794
0.168068
0.0417273
0.168196
0.0451586
0.168324
0.0489024
0.168451
0.0529931
0.168577
0.0574733
0.168703
0.0623868
0.168831
0.0677823
0.16896
0.0737041
0.169088
0.080201
0.169215
0.0873262
0.16934
0.0951353
0.16946
0.103685
0.169572
0.113035
0.169674
0.123212
0.169761
0.134491
0.169835
0.145556
0.162687
0.181186
-0.0145948
-0.183198
0.179271
-0.0144137
0.177736
-0.0137034
0.176664
-0.0126489
0.175816
-0.0117337
0.175071
-0.0109671
0.174437
-0.0101218
0.173917
-0.0091591
0.173513
-0.00813654
0.173231
-0.00707617
0.173062
-0.00598718