/*--------------------------------*- C++ -*----------------------------------*\
| =========                 |                                                 |
| \\      /  F ield         | OpenFOAM: The Open Source CFD Toolbox           |
|  \\    /   O peration     | Version:  2312                                  |
|   \\  /    A nd           | Website:  www.openfoam.com                      |
|    \\/     M anipulation  |                                                 |
\*---------------------------------------------------------------------------*/
FoamFile
{
    version     2.0;
    format      ascii;
    arch        "LSB;label=32;scalar=64";
    class       volScalarField;
    location    "10";
    object      p;
}
// * * * * * * * * * * * * * * * * * * * * * * * * * * * * * * * * * * * * * //

dimensions      [0 2 -2 0 0 0 0];

internalField   nonuniform List<scalar> 
32230
(
-0.351532
-0.351391
-0.35044
-0.3488
-0.34662
-0.344051
-0.341312
-0.338669
-0.33641
-0.33481
-0.334102
-0.334458
-0.335966
-0.338625
-0.342336
-0.346914
-0.352097
-0.357566
-0.362969
-0.367951
-0.372178
-0.375371
-0.377319
-0.377894
-0.377052
-0.374818
-0.371277
-0.366542
-0.360746
-0.354014
-0.346466
-0.338176
-0.329265
-0.319599
-0.309428
-0.297596
-0.284737
-0.352558
-0.352567
-0.351693
-0.350106
-0.347973
-0.345446
-0.342725
-0.340056
-0.337699
-0.335907
-0.334892
-0.334805
-0.335715
-0.337598
-0.340341
-0.343743
-0.347537
-0.351413
-0.35505
-0.358141
-0.360428
-0.361717
-0.361889
-0.360896
-0.358752
-0.355516
-0.351272
-0.346112
-0.340126
-0.333392
-0.325976
-0.31792
-0.309253
-0.299938
-0.289995
-0.279111
-0.268106
-0.3548
-0.354767
-0.353871
-0.352294
-0.350206
-0.347743
-0.345084
-0.342442
-0.340044
-0.338107
-0.336811
-0.336276
-0.336546
-0.337576
-0.339238
-0.341328
-0.343596
-0.345766
-0.347574
-0.348793
-0.34925
-0.348836
-0.347501
-0.345248
-0.342111
-0.338145
-0.333411
-0.32797
-0.321877
-0.315179
-0.30792
-0.300116
-0.291817
-0.282968
-0.273698
-0.263797
-0.253829
-0.35822
-0.357975
-0.356955
-0.355325
-0.353232
-0.350802
-0.348185
-0.345556
-0.343104
-0.341002
-0.339393
-0.33836
-0.337917
-0.338001
-0.338476
-0.339156
-0.339826
-0.340272
-0.340307
-0.339786
-0.338616
-0.33675
-0.334178
-0.330919
-0.327003
-0.322469
-0.317355
-0.311697
-0.305529
-0.298883
-0.291787
-0.284265
-0.276349
-0.268034
-0.259453
-0.250441
-0.24169
-0.362709
-0.362118
-0.360875
-0.359106
-0.356932
-0.354463
-0.351824
-0.349154
-0.346595
-0.344276
-0.342291
-0.340686
-0.339443
-0.338489
-0.3377
-0.336924
-0.336007
-0.334809
-0.333221
-0.331171
-0.32862
-0.325556
-0.321984
-0.317919
-0.31338
-0.308389
-0.302965
-0.29713
-0.290905
-0.28431
-0.27737
-0.270104
-0.262549
-0.254712
-0.2467
-0.238413
-0.230376
-0.368151
-0.367119
-0.365565
-0.363567
-0.361222
-0.358632
-0.355896
-0.353113
-0.350374
-0.347754
-0.345299
-0.343014
-0.340863
-0.338779
-0.33667
-0.334442
-0.33201
-0.329308
-0.326291
-0.322935
-0.319231
-0.31518
-0.310785
-0.306053
-0.300992
-0.295609
-0.289913
-0.283917
-0.277633
-0.271077
-0.264268
-0.257224
-0.249976
-0.242536
-0.234994
-0.227259
-0.219801
-0.374469
-0.372935
-0.370999
-0.368697
-0.366104
-0.363316
-0.360404
-0.35742
-0.354398
-0.351355
-0.348291
-0.345183
-0.342
-0.338703
-0.335255
-0.331628
-0.327802
-0.323767
-0.319521
-0.315066
-0.310402
-0.305529
-0.300445
-0.29515
-0.28964
-0.283916
-0.27798
-0.271838
-0.265497
-0.258968
-0.252266
-0.245407
-0.238412
-0.231296
-0.224122
-0.216823
-0.209792
-0.381649
-0.379572
-0.377204
-0.374544
-0.371644
-0.368589
-0.365413
-0.362113
-0.358662
-0.355025
-0.351169
-0.347075
-0.342739
-0.338176
-0.333409
-0.328471
-0.323391
-0.318195
-0.3129
-0.307514
-0.302038
-0.296467
-0.290794
-0.285009
-0.279105
-0.273077
-0.266923
-0.260644
-0.254243
-0.247727
-0.241107
-0.234394
-0.227604
-0.22075
-0.213874
-0.206929
-0.200237
-0.389721
-0.387065
-0.384235
-0.381184
-0.37793
-0.374535
-0.370986
-0.367216
-0.363142
-0.358695
-0.353844
-0.348601
-0.343018
-0.33717
-0.331137
-0.324995
-0.318801
-0.312595
-0.306397
-0.300214
-0.29404
-0.287866
-0.281677
-0.275462
-0.269209
-0.26291
-0.256558
-0.250152
-0.243692
-0.237182
-0.230625
-0.224031
-0.217409
-0.21077
-0.204139
-0.197487
-0.191069
-0.398728
-0.395462
-0.392152
-0.388687
-0.385033
-0.381208
-0.377139
-0.372698
-0.367764
-0.36227
-0.356224
-0.349698
-0.34281
-0.335692
-0.328466
-0.321228
-0.314044
-0.306952
-0.299966
-0.293086
-0.2863
-0.279594
-0.27295
-0.266352
-0.259787
-0.253243
-0.246713
-0.24019
-0.233673
-0.227159
-0.220652
-0.214154
-0.207672
-0.201211
-0.194787
-0.188383
-0.182193
-0.408691
-0.404789
-0.400987
-0.397089
-0.392974
-0.388596
-0.383816
-0.378461
-0.372407
-0.365632
-0.358217
-0.350314
-0.342103
-0.333757
-0.325418
-0.317182
-0.30911
-0.301229
-0.293543
-0.286044
-0.278713
-0.271533
-0.264482
-0.257543
-0.250699
-0.243937
-0.237247
-0.230619
-0.224049
-0.217531
-0.211065
-0.204649
-0.198286
-0.19198
-0.185734
-0.179546
-0.173549
-0.419592
-0.415033
-0.410734
-0.406372
-0.401707
-0.396611
-0.390887
-0.384345
-0.37691
-0.368648
-0.359736
-0.350405
-0.340885
-0.331368
-0.321992
-0.312844
-0.303967
-0.295373
-0.287055
-0.278998
-0.271177
-0.26357
-0.256155
-0.248911
-0.241819
-0.234863
-0.228031
-0.221311
-0.214694
-0.208173
-0.201743
-0.195401
-0.189145
-0.182973
-0.176888
-0.170892
-0.165063
-0.431352
-0.426129
-0.421325
-0.416451
-0.411112
-0.405089
-0.398149
-0.39014
-0.381087
-0.371175
-0.360687
-0.349919
-0.339128
-0.328502
-0.318163
-0.308173
-0.298557
-0.289311
-0.280418
-0.271853
-0.263589
-0.2556
-0.247859
-0.240343
-0.233032
-0.225907
-0.218953
-0.212155
-0.205501
-0.198982
-0.19259
-0.186318
-0.180161
-0.174115
-0.168178
-0.162358
-0.156679
-0.443825
-0.43795
-0.432631
-0.427172
-0.42099
-0.413788
-0.405343
-0.395602
-0.384734
-0.373066
-0.360973
-0.348793
-0.336784
-0.325114
-0.313875
-0.303106
-0.292807
-0.282963
-0.273543
-0.264518
-0.255854
-0.247522
-0.239492
-0.231738
-0.224237
-0.216968
-0.209912
-0.203052
-0.196374
-0.189865
-0.183515
-0.177314
-0.171254
-0.16533
-0.159537
-0.153881
-0.148347
-0.456799
-0.4503
-0.444449
-0.438298
-0.431066
-0.422405
-0.41217
-0.40047
-0.387652
-0.374179
-0.360496
-0.346955
-0.333794
-0.321145
-0.30907
-0.297577
-0.286649
-0.276255
-0.266356
-0.256915
-0.247894
-0.239258
-0.230976
-0.223018
-0.215357
-0.20797
-0.200835
-0.193932
-0.187245
-0.180757
-0.174457
-0.168332
-0.162373
-0.15657
-0.150921
-0.145423
-0.140033
-0.46999
-0.462911
-0.456498
-0.449516
-0.440994
-0.43059
-0.418314
-0.404491
-0.389658
-0.374391
-0.359174
-0.344346
-0.330106
-0.316548
-0.303697
-0.291537
-0.280032
-0.269137
-0.258806
-0.248993
-0.239657
-0.230758
-0.22226
-0.214131
-0.206342
-0.198864
-0.191673
-0.184748
-0.178068
-0.171616
-0.165377
-0.159336
-0.15348
-0.147802
-0.142295
-0.13695
-0.131707
-0.483046
-0.475442
-0.468418
-0.460432
-0.450361
-0.437953
-0.423447
-0.407416
-0.390574
-0.373576
-0.356912
-0.340884
-0.325646
-0.311249
-0.297685
-0.284914
-0.272884
-0.261538
-0.250822
-0.240683
-0.231074
-0.221952
-0.213277
-0.205011
-0.197123
-0.189582
-0.182361
-0.175435
-0.168782
-0.162381
-0.156216
-0.150269
-0.144526
-0.138976
-0.133612
-0.12841
-0.123316
-0.495561
-0.487486
-0.479776
-0.470589
-0.458713
-0.444079
-0.427217
-0.408954
-0.390152
-0.37151
-0.353493
-0.336354
-0.320198
-0.305033
-0.29082
-0.277498
-0.264999
-0.253256
-0.242206
-0.23179
-0.221956
-0.212654
-0.20384
-0.195475
-0.187523
-0.179949
-0.172725
-0.165822
-0.159217
-0.152887
-0.146812
-0.140974
-0.135358
-0.129949
-0.124736
-0.119682
-0.114751
-0.507109
-0.498632
-0.490161
-0.47957
-0.465644
-0.448579
-0.429251
-0.408739
-0.388024
-0.367815
-0.348532
-0.33037
-0.313377
-0.297521
-0.282732
-0.268928
-0.256028
-0.243952
-0.232629
-0.221995
-0.211989
-0.20256
-0.193657
-0.185238
-0.177262
-0.169694
-0.162502
-0.155654
-0.149126
-0.142892
-0.136932
-0.131226
-0.125757
-0.120512
-0.115475
-0.110601
-0.105886
-0.25349
-0.260334
-0.265158
-0.270263
-0.276941
-0.285382
-0.29553
-0.307264
-0.320426
-0.334843
-0.350326
-0.366673
-0.383666
-0.401073
-0.418649
-0.436143
-0.453298
-0.469848
-0.48553
-0.500105
-0.513341
-0.525024
-0.534961
-0.542987
-0.548965
-0.552787
-0.554373
-0.553666
-0.550647
-0.545345
-0.537767
-0.527951
-0.515947
-0.5018
-0.485572
-0.467369
-0.447331
-0.260843
-0.267141
-0.271709
-0.276684
-0.283278
-0.291673
-0.301813
-0.313573
-0.326793
-0.341295
-0.356887
-0.37336
-0.390491
-0.408042
-0.425762
-0.443393
-0.460669
-0.477324
-0.493093
-0.507727
-0.520988
-0.532661
-0.542553
-0.5505
-0.556367
-0.560051
-0.561485
-0.560633
-0.557468
-0.551958
-0.544172
-0.534233
-0.522186
-0.508048
-0.491873
-0.473827
-0.454177
-0.271513
-0.276953
-0.281101
-0.28584
-0.292254
-0.300521
-0.310581
-0.322309
-0.335541
-0.350096
-0.365777
-0.382371
-0.399649
-0.417365
-0.435262
-0.453072
-0.470523
-0.487341
-0.503259
-0.518017
-0.531376
-0.543115
-0.55304
-0.560986
-0.566822
-0.57045
-0.571807
-0.570862
-0.567609
-0.562067
-0.554293
-0.544402
-0.532427
-0.518431
-0.502452
-0.484674
-0.465679
-0.284508
-0.288837
-0.292425
-0.29683
-0.302977
-0.31103
-0.320929
-0.332547
-0.345718
-0.360256
-0.375961
-0.392615
-0.409984
-0.427816
-0.445846
-0.4638
-0.481397
-0.498357
-0.514404
-0.529277
-0.542728
-0.554534
-0.564499
-0.572459
-0.578286
-0.581886
-0.583203
-0.582214
-0.57892
-0.573361
-0.565723
-0.555928
-0.544121
-0.530387
-0.514741
-0.497223
-0.478575
-0.298679
-0.301718
-0.304636
-0.308625
-0.314423
-0.322177
-0.331829
-0.343244
-0.356253
-0.370669
-0.386289
-0.402891
-0.420236
-0.438069
-0.45612
-0.474108
-0.491747
-0.508752
-0.524844
-0.539753
-0.553232
-0.565054
-0.575022
-0.582973
-0.588783
-0.592362
-0.593664
-0.592678
-0.589445
-0.584062
-0.57647
-0.56686
-0.555318
-0.541943
-0.52679
-0.509738
-0.490841
-0.312866
-0.314526
-0.316694
-0.320194
-0.325563
-0.332928
-0.342232
-0.353333
-0.366058
-0.380215
-0.395601
-0.411993
-0.42915
-0.446816
-0.464719
-0.482576
-0.500099
-0.517001
-0.532999
-0.547826
-0.561229
-0.572982
-0.58289
-0.59079
-0.59656
-0.600115
-0.601418
-0.600479
-0.597341
-0.592037
-0.584678
-0.575367
-0.564192
-0.551253
-0.536573
-0.520192
-0.501732
-0.326043
-0.326334
-0.327694
-0.33064
-0.335493
-0.342368
-0.351208
-0.361863
-0.374154
-0.387889
-0.40286
-0.41885
-0.435618
-0.452911
-0.470458
-0.487981
-0.505192
-0.521807
-0.537546
-0.552139
-0.56534
-0.576921
-0.58669
-0.594488
-0.600195
-0.60373
-0.605067
-0.604209
-0.601197
-0.596111
-0.589044
-0.580097
-0.569347
-0.556908
-0.542688
-0.527062
-0.508862
-0.337418
-0.336419
-0.336999
-0.339311
-0.343546
-0.349808
-0.358044
-0.368096
-0.379781
-0.392904
-0.407259
-0.422631
-0.438785
-0.455475
-0.472438
-0.4894
-0.506083
-0.522208
-0.537499
-0.551694
-0.564548
-0.575842
-0.585385
-0.593024
-0.598647
-0.602171
-0.603574
-0.602869
-0.600102
-0.595345
-0.588678
-0.580204
-0.569947
-0.55809
-0.5443
-0.529398
-0.511433
-0.346508
-0.344416
-0.344223
-0.345847
-0.349358
-0.354865
-0.362325
-0.371587
-0.382467
-0.394768
-0.408287
-0.422811
-0.438117
-0.453967
-0.470109
-0.486282
-0.502217
-0.517646
-0.532303
-0.545935
-0.558306
-0.569203
-0.578445
-0.585886
-0.59141
-0.594964
-0.596514
-0.59607
-0.593673
-0.589383
-0.583253
-0.575383
-0.565703
-0.554493
-0.541126
-0.526838
-0.509019
-0.353136
-0.350209
-0.349311
-0.350209
-0.352892
-0.357486
-0.363975
-0.372232
-0.382079
-0.393325
-0.405773
-0.419216
-0.433441
-0.448223
-0.463323
-0.478495
-0.493485
-0.508039
-0.521906
-0.534847
-0.546637
-0.557065
-0.565966
-0.57321
-0.578703
-0.582369
-0.584179
-0.584136
-0.582258
-0.578583
-0.573117
-0.565939
-0.556878
-0.546284
-0.53328
-0.519392
-0.501499
-0.357398
-0.353935
-0.352452
-0.352625
-0.354401
-0.357934
-0.363254
-0.37027
-0.378838
-0.388781
-0.399916
-0.412047
-0.424973
-0.438481
-0.452352
-0.466353
-0.480251
-0.493807
-0.506792
-0.518988
-0.530206
-0.540119
-0.548733
-0.555883
-0.561449
-0.565363
-0.567583
-0.568085
-0.56685
-0.563871
-0.559096
-0.55256
-0.54402
-0.53383
-0.521015
-0.507177
-0.488996
-0.359593
-0.355906
-0.353995
-0.353497
-0.354344
-0.356715
-0.360697
-0.36626
-0.373307
-0.381703
-0.39129
-0.401893
-0.413327
-0.425398
-0.437903
-0.450629
-0.46336
-0.475876
-0.487959
-0.49939
-0.50996
-0.519655
-0.528154
-0.535345
-0.541139
-0.545447
-0.548192
-0.549302
-0.5487
-0.54632
-0.542054
-0.535879
-0.527549
-0.517354
-0.504455
-0.490261
-0.471693
-0.360135
-0.356513
-0.354356
-0.353298
-0.353265
-0.354458
-0.357013
-0.360975
-0.36632
-0.37297
-0.380815
-0.389715
-0.399514
-0.410041
-0.421113
-0.432539
-0.444121
-0.455655
-0.466923
-0.47777
-0.488024
-0.497491
-0.505985
-0.513364
-0.519492
-0.524235
-0.527457
-0.529023
-0.528795
-0.526651
-0.522451
-0.516146
-0.507557
-0.496918
-0.483695
-0.468932
-0.450116
-0.359472
-0.356158
-0.353939
-0.352471
-0.351682
-0.351774
-0.352929
-0.355264
-0.358836
-0.363647
-0.36965
-0.37676
-0.384861
-0.393816
-0.403471
-0.413657
-0.424197
-0.434842
-0.445504
-0.455951
-0.465972
-0.475374
-0.483964
-0.491548
-0.497926
-0.5029
-0.506272
-0.507855
-0.507472
-0.504991
-0.500287
-0.493359
-0.48413
-0.472866
-0.45932
-0.444217
-0.425618
-0.358026
-0.355203
-0.353084
-0.351367
-0.34999
-0.349146
-0.349046
-0.349868
-0.351749
-0.354776
-0.358979
-0.36434
-0.370798
-0.378256
-0.386589
-0.39564
-0.405236
-0.415262
-0.425442
-0.435565
-0.44541
-0.454741
-0.463305
-0.470842
-0.477092
-0.481803
-0.484742
-0.485711
-0.484553
-0.481187
-0.475569
-0.467806
-0.45793
-0.446307
-0.432817
-0.418031
-0.400343
-0.35618
-0.353959
-0.352054
-0.350231
-0.348446
-0.346878
-0.345752
-0.345294
-0.345709
-0.347161
-0.349759
-0.353554
-0.358544
-0.364679
-0.37186
-0.37996
-0.388811
-0.398212
-0.407918
-0.417671
-0.427191
-0.436177
-0.444317
-0.451299
-0.456828
-0.460641
-0.462521
-0.462314
-0.459945
-0.45543
-0.448857
-0.440445
-0.430345
-0.418985
-0.40622
-0.392562
-0.37637
-0.354278
-0.352697
-0.351066
-0.349237
-0.347202
-0.345127
-0.343242
-0.341804
-0.341069
-0.341262
-0.342557
-0.34507
-0.348849
-0.353881
-0.360094
-0.367353
-0.375473
-0.384218
-0.39331
-0.402434
-0.411253
-0.419417
-0.42658
-0.432417
-0.436645
-0.439038
-0.439447
-0.437808
-0.434157
-0.42861
-0.421378
-0.412728
-0.402921
-0.392358
-0.380903
-0.36903
-0.354707
-0.352656
-0.351678
-0.350325
-0.348545
-0.346381
-0.343989
-0.341603
-0.339494
-0.33795
-0.337234
-0.337568
-0.339108
-0.341938
-0.346066
-0.351422
-0.35786
-0.365168
-0.373073
-0.381254
-0.389357
-0.397011
-0.403851
-0.409535
-0.413771
-0.416333
-0.417075
-0.415947
-0.412982
-0.408305
-0.402086
-0.394573
-0.385984
-0.376629
-0.366774
-0.356558
-0.346506
-0.3345
-0.351643
-0.351165
-0.350049
-0.348338
-0.34613
-0.343581
-0.340919
-0.338419
-0.336378
-0.335078
-0.334761
-0.335601
-0.337694
-0.34105
-0.34559
-0.35115
-0.35749
-0.364307
-0.371252
-0.377954
-0.384043
-0.389174
-0.393056
-0.395466
-0.396267
-0.395412
-0.392935
-0.388938
-0.383571
-0.377002
-0.369428
-0.360975
-0.351887
-0.342163
-0.332225
-0.322306
-0.312248
-0.421627
-0.388254
-0.351267
-0.310613
-0.266772
-0.220241
-0.171943
-0.123022
-0.0749238
-0.0291828
0.0126999
0.0495266
0.0800343
0.103891
0.121139
0.132278
0.13812
0.139633
0.137819
0.133611
0.127813
0.121071
0.113875
0.10658
0.0994051
0.0925029
0.085966
0.0798425
0.0741488
0.0688809
0.0640243
0.0595594
0.0554653
0.0516954
0.0482225
0.0450242
0.042078
0.0393625
0.0368578
0.0345462
0.0324121
0.0304415
0.0286215
0.0269384
0.0253778
0.0239377
0.0226032
0.0213675
0.020212
0.019153
0.0181742
0.0172625
0.0164125
0.015621
0.0148838
0.0141965
0.0135547
0.0129547
0.012393
0.0118666
0.0113723
0.0109077
0.0104701
0.0100571
0.00966657
0.00929649
0.00894453
0.00860943
0.00828839
0.00798119
0.00768376
0.00739801
0.00711712
0.00684682
0.00657553
0.00631451
0.00604633
0.00578722
0.00551692
0.00525011
0.00497349
0.0046883
0.0043987
0.00408724
0.00377202
0.00342849
0.00307424
0.00268606
0.00228395
0.00183389
0.00136974
0.000844573
0.000303511
-0.429224
-0.3962
-0.359808
-0.319582
-0.276128
-0.229871
-0.18169
-0.132686
-0.0843778
-0.0383119
0.00408465
0.0420721
0.0731882
0.0977492
0.115706
0.127512
0.133974
0.136066
0.134776
0.131037
0.125662
0.119298
0.112432
0.105416
0.0984842
0.0917901
0.0854287
0.079451
0.0738774
0.0687083
0.0639323
0.0595309
0.0554817
0.0517515
0.0483131
0.045143
0.0422191
0.0395208
0.0370291
0.0347271
0.0325997
0.0306334
0.0288154
0.0271328
0.025574
0.024132
0.0227954
0.0215576
0.0203885
0.0193315
0.018354
0.0174391
0.0165845
0.0157885
0.0150471
0.0143556
0.0137095
0.0131051
0.0125389
0.0120078
0.0115091
0.0110398
0.0105976
0.0101801
0.00978503
0.00941042
0.00905398
0.0087144
0.00838895
0.0080773
0.0077756
0.00748539
0.00720041
0.00692557
0.00665043
0.00638478
0.00611294
0.00584923
0.00557519
0.00530421
0.00502332
0.00473472
0.00444024
0.0041258
0.00380564
0.00345903
0.00309991
0.00270886
0.00230135
0.00184894
0.00137889
0.000851479
0.00030408
-0.442432
-0.410137
-0.374738
-0.335384
-0.292673
-0.247032
-0.199238
-0.150138
-0.10141
-0.054249
-0.0106364
0.028136
0.0606588
0.0865175
0.105703
0.118669
0.126222
0.129341
0.129011
0.126142
0.121547
0.115877
0.109617
0.103122
0.0966335
0.0903148
0.0842668
0.078548
0.0731868
0.068191
0.0635555
0.059267
0.0553066
0.0516494
0.0482716
0.0451514
0.0422681
0.0396025
0.0371369
0.0348555
0.032744
0.0307896
0.0289801
0.0273036
0.0257497
0.0243101
0.0229749
0.0217379
0.0206149
0.0195008
0.0185281
0.0176102
0.0167511
0.0159511
0.0152062
0.014511
0.013861
0.0132525
0.0126822
0.0121469
0.0116438
0.0111702
0.0107236
0.0103018
0.00990226
0.00952325
0.00916246
0.0088185
0.00848876
0.00817273
0.00786685
0.00757223
0.00728325
0.00700392
0.00672501
0.00645474
0.00617932
0.00591105
0.00563331
0.00535822
0.00507307
0.00478112
0.00448176
0.00416441
0.00383931
0.00348966
0.00312568
0.00273179
0.00231887
0.00186411
0.00138815
0.000858469
0.000304651
-0.457426
-0.426228
-0.392113
-0.35406
-0.312496
-0.267866
-0.220512
-0.171345
-0.12233
-0.0746586
-0.0301296
0.00974673
0.0436717
0.0710066
0.0916815
0.106123
0.115121
0.119644
0.120665
0.119044
0.115568
0.11089
0.1055
0.0997522
0.0938989
0.0881134
0.0825092
0.0771569
0.0720961
0.0673455
0.0629091
0.0587812
0.0549498
0.0513976
0.0481059
0.0450562
0.0422307
0.0396123
0.037185
0.0349344
0.0328474
0.0309122
0.0291173
0.027452
0.0259065
0.0244725
0.0231416
0.0219061
0.0207668
0.0196527
0.0186978
0.0177775
0.0169137
0.0161103
0.0153624
0.0146641
0.0140106
0.0133984
0.0128241
0.0122848
0.0117776
0.0112998
0.010849
0.0104228
0.010019
0.00963569
0.00927061
0.00892234
0.00858836
0.00826802
0.00795801
0.00765903
0.0073661
0.0070823
0.00679966
0.00652482
0.00624585
0.00597305
0.00569164
0.00541248
0.00512308
0.00482783
0.00452359
0.00420335
0.00387331
0.00352065
0.00315178
0.00275506
0.0023367
0.00187957
0.00139766
0.000865632
0.000305289
-0.472898
-0.441443
-0.408849
-0.372267
-0.332116
-0.288628
-0.242285
-0.194039
-0.145235
-0.0973508
-0.0522307
-0.0114741
0.0236301
0.0523461
0.0745384
0.0905886
0.101241
0.107425
0.110082
0.11003
0.107965
0.104531
0.10023
0.0954221
0.0903673
0.0852522
0.0802061
0.0753151
0.0706334
0.0661928
0.0620089
0.0580859
0.0544203
0.0510027
0.047821
0.0448614
0.0421098
0.0395519
0.0371742
0.0349639
0.0329096
0.0310003
0.029226
0.0275767
0.0260435
0.0246185
0.0232944
0.0220644
0.020926
0.019925
0.018866
0.0179394
0.0170711
0.0162651
0.0155153
0.0148145
0.014158
0.0135423
0.0129644
0.0124214
0.0119102
0.0114284
0.0109735
0.0105432
0.0101352
0.00974769
0.00937841
0.0090259
0.00868777
0.00836317
0.00804908
0.0077458
0.00744896
0.00716075
0.00687443
0.00659505
0.00631257
0.00603528
0.00575022
0.00546703
0.00517339
0.00487487
0.00456577
0.00424267
0.00390771
0.00355203
0.00317828
0.00277871
0.00235491
0.00189534
0.00140746
0.000872979
0.000306011
-0.483488
-0.45536
-0.423478
-0.38843
-0.349876
-0.307867
-0.262857
-0.215732
-0.167689
-0.120224
-0.0750838
-0.0339244
0.00194723
0.0317582
0.0553231
0.0729631
0.0853472
0.0933251
0.0977782
0.0994927
0.0990696
0.0970791
0.0940301
0.090303
0.0861708
0.0818331
0.0774358
0.0730827
0.0688445
0.064768
0.0608819
0.0572017
0.0537337
0.0504771
0.0474269
0.044575
0.0419117
0.0394265
0.0371085
0.0349471
0.0329326
0.0310556
0.029307
0.0276782
0.026161
0.0247482
0.0234332
0.0222102
0.0210751
0.0200368
0.019023
0.0180956
0.0172222
0.016415
0.0156643
0.0149618
0.0143027
0.0136841
0.0131029
0.0125564
0.0120415
0.0115559
0.0110971
0.0106628
0.0102507
0.00985913
0.00948576
0.0091291
0.00878688
0.00845809
0.00814
0.00783247
0.00753177
0.00723919
0.00694924
0.00666537
0.00637942
0.00609768
0.00580901
0.00552183
0.00522398
0.00492221
0.00460828
0.00428231
0.00394247
0.00358376
0.00320516
0.0028027
0.00237349
0.00191139
0.00141755
0.000880492
0.000306823
-0.490871
-0.46477
-0.434524
-0.401121
-0.36429
-0.32396
-0.280599
-0.235001
-0.18825
-0.141768
-0.097227
-0.0562495
-0.0201184
0.0103965
0.0350764
0.0541708
0.0682488
0.0780438
0.0843381
0.0878614
0.089202
0.0888003
0.0871211
0.0845687
0.0814414
0.0779561
0.0742744
0.0705173
0.066773
0.0631041
0.0595531
0.0561476
0.0529044
0.0498317
0.0469321
0.0442037
0.041642
0.0392404
0.0369912
0.0348865
0.0329184
0.0310792
0.0293613
0.027757
0.0262593
0.0248617
0.0235581
0.0223435
0.0212126
0.0201601
0.0192049
0.0182456
0.0173656
0.0165596
0.0158096
0.0151061
0.0144449
0.0138236
0.0132395
0.0126897
0.0121715
0.0116823
0.0112197
0.0107815
0.0103656
0.00996995
0.00959258
0.00923186
0.00888564
0.00855274
0.00823071
0.00791899
0.0076145
0.00731761
0.00702407
0.00673575
0.00644637
0.00616023
0.00586798
0.00557684
0.00527482
0.00496983
0.00465112
0.00432228
0.0039776
0.00361583
0.00323242
0.00282703
0.00239243
0.00192771
0.00142795
0.000888158
0.000307741
-0.493551
-0.468734
-0.440459
-0.409092
-0.374212
-0.335769
-0.294338
-0.250713
-0.205835
-0.160968
-0.117659
-0.0774521
-0.0415764
-0.010777
0.0147036
0.0350365
0.050672
0.0622095
0.0703017
0.0755924
0.0786499
0.0798963
0.0796731
0.0783615
0.0762906
0.0737049
0.0707845
0.0676662
0.0644546
0.0612279
0.0580426
0.0549388
0.0519437
0.049075
0.046343
0.0437526
0.0413045
0.0389966
0.0368247
0.0347838
0.0328683
0.0310722
0.0293893
0.0278135
0.0263386
0.0249589
0.0236691
0.0224646
0.0213399
0.020289
0.0193124
0.0183912
0.0174995
0.0166986
0.0159511
0.0152473
0.0145842
0.0139607
0.013374
0.0128214
0.0122999
0.0118073
0.0113412
0.0108993
0.0104796
0.0100801
0.00969885
0.00933417
0.00898403
0.00864709
0.00832119
0.00800534
0.00769712
0.00739597
0.0070989
0.00680619
0.00651342
0.00622292
0.00592713
0.00563207
0.00532593
0.0050177
0.00469429
0.00436254
0.0040131
0.00364824
0.00326007
0.00285167
0.00241177
0.0019443
0.00143866
0.000895973
0.000308783
-0.490871
-0.466877
-0.440839
-0.411886
-0.378972
-0.342395
-0.303097
-0.261922
-0.219589
-0.177082
-0.135707
-0.0968653
-0.0617321
-0.0310495
-0.0050986
0.0162067
0.0331905
0.0463113
0.056088
0.0630542
0.0677206
0.070528
0.0717866
0.0717707
0.0707974
0.0691425
0.0670132
0.0645643
0.0619154
0.0591589
0.0563651
0.053586
0.0508595
0.0482127
0.045664
0.0432248
0.0409016
0.038697
0.0366106
0.0346404
0.0327831
0.0310351
0.0293916
0.0278479
0.026399
0.02504
0.0237663
0.0225738
0.0214578
0.0204108
0.019419
0.0185225
0.0176184
0.0168313
0.016089
0.0153853
0.0147207
0.0140953
0.0135064
0.0129512
0.0124269
0.0119311
0.0114615
0.0110161
0.0105928
0.0101896
0.00980453
0.00943599
0.00908201
0.00874112
0.00841142
0.00809152
0.00777961
0.00747427
0.0071737
0.00687666
0.00658054
0.00628574
0.00598645
0.00568749
0.0053773
0.00506582
0.0047378
0.00440309
0.00404898
0.00368097
0.00328812
0.00287662
0.0024315
0.00196113
0.00144972
0.000903926
0.000309974
-0.4826
-0.458972
-0.435382
-0.409232
-0.378586
-0.344075
-0.307032
-0.268399
-0.228992
-0.189544
-0.150872
-0.114044
-0.0801396
-0.0499535
-0.0238585
-0.00187278
0.0162032
0.0306906
0.0419797
0.050494
0.0566636
0.0608957
0.063541
0.0648348
0.0650012
0.0643087
0.0629937
0.0612364
0.059173
0.0569099
0.0545296
0.0520957
0.0496564
0.047248
0.044897
0.0426217
0.0404344
0.0383423
0.0363492
0.0344564
0.0326633
0.0309681
0.0293682
0.0278602
0.0264404
0.0251048
0.0238497
0.0226713
0.0215656
0.0205259
0.0195428
0.0186311
0.0177229
0.0169588
0.0162237
0.0155203
0.0148541
0.0142272
0.0136367
0.0130792
0.0125522
0.0120535
0.0115807
0.011132
0.0107051
0.0102983
0.00990958
0.00953727
0.00917955
0.00883478
0.00850136
0.00817747
0.00786195
0.00755248
0.00724847
0.00694717
0.00664772
0.00634868
0.00604593
0.00574309
0.00542893
0.00511417
0.00478164
0.00444392
0.00408525
0.003714
0.00331657
0.00290187
0.00245166
0.0019782
0.00146113
0.000912008
0.000311342
-0.468879
-0.445222
-0.424257
-0.401192
-0.373081
-0.341038
-0.306771
-0.271087
-0.234641
-0.198382
-0.162928
-0.128717
-0.0965343
-0.0672196
-0.0412995
-0.0189324
-4.31788e-05
0.0155641
0.0281591
0.0380623
0.0456191
0.0511798
0.0550754
0.0575914
0.0589097
0.0592167
0.0587441
0.0576984
0.0562393
0.0544887
0.0525413
0.050471
0.048336
0.0461817
0.0440424
0.0419433
0.0399025
0.0379322
0.0360404
0.0342317
0.0325084
0.0308711
0.029319
0.0278503
0.0264627
0.0251532
0.023919
0.022757
0.0216638
0.0206345
0.0196611
0.0187272
0.0178037
0.017082
0.0163552
0.0156522
0.0149842
0.0143564
0.0137646
0.0132052
0.0126759
0.0121744
0.0116987
0.0112467
0.0108165
0.0104062
0.0100139
0.00963798
0.00927661
0.00892806
0.00859098
0.00826319
0.0079441
0.00763059
0.00732316
0.00701768
0.00671494
0.00641172
0.00610555
0.00579886
0.00548081
0.00516273
0.00482583
0.004485
0.0041219
0.00374733
0.00334545
0.00292738
0.00247225
0.00199549
0.00147294
0.000920202
0.000312924
-0.450028
-0.426281
-0.408216
-0.388452
-0.363166
-0.334058
-0.303068
-0.270765
-0.237596
-0.204444
-0.172154
-0.140851
-0.110797
-0.0827184
-0.0572862
-0.0348314
-0.0154103
0.00106069
0.0147428
0.0258577
0.0346701
0.0414652
0.0465321
0.0501445
0.05254
0.05386
0.0542642
0.0539564
0.0531203
0.0518994
0.050402
0.0487125
0.0468981
0.0450128
0.0430988
0.0411881
0.0393045
0.0374655
0.035683
0.0339654
0.0323179
0.0307434
0.0292434
0.0278178
0.0264656
0.025185
0.0239741
0.0228307
0.0217521
0.0207349
0.0197732
0.0188672
0.0181453
0.0172081
0.0164844
0.0157808
0.0151108
0.0144827
0.0138902
0.0133292
0.0127978
0.0122938
0.0118153
0.0113603
0.0109269
0.0105133
0.0101176
0.00973808
0.00937315
0.00902091
0.00868024
0.00834864
0.00802603
0.00770857
0.00739776
0.00708818
0.00678217
0.00647484
0.0061653
0.00585478
0.00553293
0.00521148
0.00487036
0.00452631
0.00415894
0.00378093
0.00337475
0.00295316
0.0024933
0.00201297
0.00148516
0.00092849
0.000314766
-0.426989
-0.403688
-0.388833
-0.372394
-0.350135
-0.324378
-0.297043
-0.268363
-0.238628
-0.208632
-0.179201
-0.150683
-0.122949
-0.0964119
-0.0717667
-0.0495053
-0.0298228
-0.0127396
0.00180968
0.0139538
0.0238771
0.0318016
0.0379655
0.0426107
0.0459691
0.0482415
0.0495381
0.0500009
0.0498135
0.0491414
0.0481111
0.0468189
0.045341
0.0437395
0.0420643
0.0403542
0.0386387
0.0369403
0.0352755
0.0336561
0.0320905
0.0305843
0.0291409
0.0277622
0.0264486
0.0251998
0.0240147
0.0228921
0.0218302
0.0208267
0.0198787
0.0189909
0.0181915
0.0173023
0.0166107
0.0159055
0.0152331
0.0146059
0.0140134
0.0134512
0.0129179
0.0124116
0.0119306
0.0114727
0.0110363
0.0106195
0.0102205
0.00983752
0.00946914
0.0091133
0.00876912
0.00843379
0.00810772
0.00778639
0.00747223
0.00715865
0.00684939
0.00653804
0.00622515
0.00591082
0.0055853
0.00526038
0.00491523
0.00456784
0.00419638
0.00381479
0.00340449
0.00297916
0.00251482
0.00203062
0.00149783
0.000936851
0.000316929
-0.401765
-0.379905
-0.368306
-0.354887
-0.33567
-0.313456
-0.289852
-0.264757
-0.23839
-0.211468
-0.184706
-0.158616
-0.133142
-0.108334
-0.0847374
-0.0629325
-0.0432438
-0.0257891
-0.0105889
0.00240036
0.0132842
0.0222206
0.0293982
0.0350187
0.0392893
0.0424117
0.0445551
0.045807
0.0462998
0.0462022
0.0456594
0.0447828
0.0436588
0.0423574
0.0409357
0.0394391
0.037903
0.0363551
0.0348165
0.0333027
0.0318254
0.0303928
0.0290107
0.0276829
0.0264114
0.0251972
0.0240405
0.022941
0.0218977
0.0209095
0.0199754
0.0190985
0.0182875
0.0175729
0.0167412
0.0160256
0.0153506
0.0147261
0.0141341
0.013571
0.0130361
0.0125278
0.0120444
0.0115839
0.0111446
0.0107247
0.0103225
0.00993627
0.00956453
0.00920519
0.00885758
0.00851861
0.00818912
0.00786403
0.00754653
0.00722907
0.00691655
0.00660128
0.00628509
0.00596696
0.00563789
0.00530941
0.00496044
0.00460955
0.0042342
0.00384887
0.00343466
0.00300536
0.00253682
0.00204841
0.00151097
0.00094526
0.000319493
-0.377034
-0.357528
-0.348739
-0.337704
-0.321285
-0.302481
-0.282366
-0.260584
-0.237351
-0.213315
-0.189059
-0.165086
-0.141647
-0.118607
-0.0962512
-0.0751366
-0.0556775
-0.0380783
-0.0224351
-0.00878167
0.00291191
0.0127396
0.0208401
0.0273753
0.0325198
0.0364563
0.0393605
0.0413724
0.0425647
0.0430701
0.0430375
0.0425944
0.0418407
0.0408557
0.0397035
0.0384351
0.0370916
0.0357057
0.034303
0.032903
0.031521
0.0301679
0.0288521
0.0275793
0.0263534
0.0251769
0.0240512
0.022977
0.0219544
0.020983
0.0200629
0.0191963
0.0183884
0.0176221
0.0168289
0.0161348
0.0154614
0.0148432
0.0142524
0.0136885
0.0131524
0.0126423
0.0121567
0.0116938
0.0112518
0.010829
0.0104237
0.0100343
0.00965925
0.00929652
0.00894555
0.00860306
0.00827019
0.00794145
0.00762064
0.00729941
0.00698364
0.00666454
0.00634508
0.00602318
0.00569069
0.00535855
0.00500599
0.00465141
0.00427241
0.00388317
0.00346528
0.00303174
0.00255932
0.00206632
0.00152463
0.000953691
0.000322558
-0.354803
-0.338117
-0.331364
-0.321911
-0.307848
-0.292068
-0.275004
-0.25615
-0.235751
-0.21436
-0.19244
-0.170434
-0.14873
-0.127352
-0.106323
-0.0860775
-0.0670538
-0.0495187
-0.0336304
-0.0194894
-0.00713809
0.00345495
0.0123781
0.0197529
0.0257214
0.0304388
0.0340689
0.036768
0.0386425
0.0397706
0.0402726
0.04028
0.0399069
0.0392462
0.0383718
0.0373414
0.0362009
0.0349872
0.0337299
0.0324524
0.0311731
0.0299061
0.0286621
0.0274492
0.0262729
0.0251375
0.0240456
0.0229992
0.0219993
0.0210464
0.0201413
0.0192856
0.0184809
0.017712
0.0169962
0.0162486
0.0155665
0.0149578
0.0143681
0.0138037
0.0132665
0.0127549
0.0122674
0.0118022
0.0113577
0.0109321
0.010524
0.0101314
0.00975329
0.00938728
0.00903303
0.00868712
0.00835093
0.00801866
0.00769453
0.00736969
0.00705063
0.00672785
0.00640514
0.00607948
0.00574373
0.00540778
0.00505189
0.00469342
0.00431103
0.00391766
0.00349635
0.00305828
0.00258236
0.00208432
0.00153883
0.000962125
0.000326256