/*--------------------------------*- C++ -*----------------------------------*\
| =========                 |                                                 |
| \\      /  F ield         | OpenFOAM: The Open Source CFD Toolbox           |
|  \\    /   O peration     | Version:  2512                                  |
|   \\  /    A nd           | Website:  www.openfoam.com                      |
|    \\/     M anipulation  |                                                 |
\*---------------------------------------------------------------------------*/
FoamFile
{
    version     2.0;
    format      ascii;
    arch        "LSB;label=32;scalar=64";
    class       volVectorField;
    location    "94.1";
    object      U;
}
// * * * * * * * * * * * * * * * * * * * * * * * * * * * * * * * * * * * * * //

dimensions      [0 1 -1 0 0 0 0];

internalField   nonuniform List<vector> 
13248
(
(-0.0266287 0.0210957 6.46666e-20)
(-0.051198 0.0396566 0)
(-0.049749 0.0442008 -1.11275e-19)
(-0.0191266 0.0411192 1.03032e-19)
(0.0446215 0.032759 9.49594e-20)
(0.144887 0.0203415 0)
(0.282515 0.00512841 0)
(0.452647 -0.011476 2.19839e-19)
(0.643446 -0.0281917 -5.60167e-22)
(0.837938 -0.044207 -1.88065e-19)
(1.01806 -0.0593281 1.7281e-19)
(1.16883 -0.0738338 -1.07176e-19)
(1.28127 -0.0881466 0)
(1.35353 -0.102526 -1.7564e-19)
(1.3903 -0.116922 3.21891e-19)
(1.40047 -0.131075 -7.72144e-20)
(1.39393 -0.144625 -1.2617e-19)
(1.37854 -0.157252 1.17642e-19)
(1.35879 -0.168588 0)
(1.33653 -0.178875 0)
(1.31265 -0.185806 0)
(1.28566 -0.197286 0)
(1.26144 -0.192335 2.76698e-20)
(1.22519 -0.220605 9.00799e-20)
(-0.0302894 0.0223726 -1.94896e-19)
(-0.0489913 0.0381299 1.22911e-19)
(-0.0305218 0.0379275 -7.5104e-22)
(0.0270439 0.0292532 -1.57219e-19)
(0.127115 0.0160015 -9.48211e-20)
(0.270772 0.000802381 -8.87122e-20)
(0.452273 -0.0141593 -1.60686e-19)
(0.656604 -0.0273066 1.50106e-19)
(0.862296 -0.0380673 0)
(1.04777 -0.0469108 8.57647e-22)
(1.19715 -0.0549272 1.38104e-21)
(1.3032 -0.0632237 1.05181e-19)
(1.36739 -0.0724693 0)
(1.39753 -0.0827544 0)
(1.40416 -0.0937423 1.12192e-19)
(1.39695 -0.104923 -2.09441e-19)
(1.38255 -0.115768 1.18087e-19)
(1.36444 -0.125945 -1.10105e-19)
(1.34419 -0.1351 -4.58668e-20)
(1.3226 -0.143133 -8.00258e-20)
(1.29999 -0.150075 -2.98754e-20)
(1.27766 -0.155383 -5.50351e-20)
(1.25415 -0.157293 8.4375e-20)
(1.23072 -0.165717 2.24049e-20)
(-0.0314846 0.0213745 0)
(-0.0392662 0.0330007 0)
(0.00294335 0.0289578 5.66705e-20)
(0.0956016 0.0169564 5.16844e-20)
(0.239686 0.00221775 -8.99758e-22)
(0.429387 -0.0114438 -9.16146e-20)
(0.64701 -0.0216805 0)
(0.865896 -0.0280391 -7.45413e-20)
(1.05981 -0.0317041 6.83863e-20)
(1.21121 -0.0345812 -4.24745e-22)
(1.31438 -0.0383298 -1.12356e-19)
(1.37387 -0.0438073 -9.96078e-20)
(1.4002 -0.0510363 3.39587e-21)
(1.4051 -0.0595194 -7.64277e-20)
(1.39798 -0.0686202 1.8581e-19)
(1.38473 -0.0777904 0)
(1.36833 -0.0866694 -1.11573e-19)
(1.35023 -0.095042 5.46945e-20)
(1.33123 -0.102547 4.58202e-20)
(1.31153 -0.10966 0)
(1.29199 -0.114312 3.50064e-20)
(1.27113 -0.120761 -1.1377e-19)
(1.25152 -0.120206 1.06244e-19)
(1.22903 -0.130206 6.07576e-20)
(-0.0296784 0.0183403 -6.82437e-20)
(-0.0203126 0.0242154 -6.51608e-20)
(0.053014 0.0170155 5.83667e-20)
(0.188412 0.0043397 0)
(0.380539 -0.0076122 0)
(0.610413 -0.0149378 -1.70633e-21)
(0.84577 -0.0169943 0)
(1.05382 -0.0157493 -2.24921e-19)
(1.21365 -0.014012 2.04787e-19)
(1.31998 -0.013938 -2.4799e-19)
(1.37972 -0.0164289 5.56718e-20)
(1.40556 -0.0213177 0)
(1.41025 -0.0279103 8.61401e-20)
(1.40326 -0.0354691 -1.56769e-19)
(1.39033 -0.0434368 3.71803e-20)
(1.37448 -0.0514519 9.00186e-20)
(1.35723 -0.0592716 -5.93166e-21)
(1.33933 -0.0666204 -9.66504e-20)
(1.32101 -0.0734956 0)
(1.30262 -0.0793015 0)
(1.28381 -0.0845819 -3.16169e-20)
(1.26531 -0.0890373 2.75417e-20)
(1.247 -0.0900839 9.39991e-20)
(1.22781 -0.0989043 -8.77702e-20)
(-0.0244006 0.0138964 -7.14297e-20)
(0.00972536 0.0130967 -6.63188e-20)
(0.122276 0.00419482 1.83037e-19)
(0.306374 -0.00547207 -1.10363e-19)
(0.543831 -0.00981542 1.02223e-19)
(0.797726 -0.00725426 1.83588e-19)
(1.02632 -0.000560423 -1.27337e-19)
(1.20215 0.00624639 -1.49431e-19)
(1.3182 0.0103501 5.03485e-21)
(1.38271 0.0108048 1.85169e-19)
(1.41035 0.00803182 0)
(1.41531 0.00299501 4.75058e-20)
(1.40798 -0.00339106 0)
(1.39469 -0.010473 -7.37977e-20)
(1.37886 -0.0178278 1.02855e-19)
(1.36211 -0.0251702 1.18702e-21)
(1.34507 -0.032264 -2.5559e-20)
(1.32791 -0.0390064 4.69786e-20)
(1.31075 -0.0451198 3.94664e-20)
(1.2935 -0.0507959 -3.45727e-20)
(1.27651 -0.0554758 3.16021e-20)
(1.25957 -0.0599086 -2.75286e-20)
(1.24288 -0.0622227 0)
(1.22598 -0.0692089 -1.98672e-20)
(-0.0149617 0.00871594 7.14117e-20)
(0.0527225 0.00163053 6.92475e-20)
(0.212333 -0.00613408 -6.14048e-20)
(0.446626 -0.00815677 1.1317e-19)
(0.717416 -0.00110463 -1.0482e-19)
(0.972521 0.0118169 9.29764e-20)
(1.1732 0.0248246 -4.3975e-20)
(1.30704 0.0339038 1.12349e-19)
(1.38199 0.0378371 -6.90942e-20)
(1.41467 0.037301 1.17081e-19)
(1.42146 0.0336484 -2.64939e-19)
(1.41449 0.0281237 9.517e-20)
(1.4012 0.0216009 -8.08059e-20)
(1.38545 0.0146228 7.52255e-20)
(1.36893 0.00751547 6.28472e-20)
(1.35224 0.000489714 5.37093e-20)
(1.3355 -0.00633312 -1.4788e-19)
(1.3188 -0.0127915 9.07316e-20)
(1.30216 -0.0188817 -3.946e-20)
(1.28576 -0.0243483 1.00079e-19)
(1.26952 -0.0293299 -3.22229e-20)
(1.25359 -0.033713 -7.50659e-20)
(1.23805 -0.0366217 6.85015e-20)
(1.22255 -0.042903 1.9861e-20)
(-0.000519263 0.00344015 0)
(0.110063 -0.00797363 7.69944e-22)
(0.32232 -0.0103197 1.28548e-19)
(0.600973 -0.000229395 -1.18309e-19)
(0.885624 0.019314 -1.04995e-19)
(1.12069 0.0401247 1.91392e-19)
(1.28226 0.0559115 -8.72556e-20)
(1.37503 0.0645894 1.12017e-19)
(1.41709 0.0669618 -3.4406e-21)
(1.42779 0.0648997 -6.07103e-20)
(1.42187 0.0601775 1.28115e-19)
(1.40845 0.0540458 -1.85824e-19)
(1.39222 0.0472462 0)
(1.37521 0.0401795 -3.48998e-20)
(1.35816 0.0330678 -9.12798e-20)
(1.3413 0.0260502 2.85647e-20)
(1.32473 0.0192577 1.40804e-21)
(1.30847 0.0127605 -5.90534e-20)
(1.29258 0.00669987 4.6804e-21)
(1.27699 0.00105585 6.69423e-20)
(1.26179 -0.00405402 -2.89216e-20)
(1.24696 -0.00856716 -1.04311e-20)
(1.2324 -0.01259 3.3117e-20)
(1.21813 -0.0179637 0)
(0.0197049 -0.00123033 0)
(0.181983 -0.0133567 3.53243e-20)
(0.447941 -0.00514504 -1.66624e-19)
(0.757458 0.0197629 5.97132e-20)
(1.03531 0.0499738 -5.53095e-20)
(1.23685 0.0749437 -4.88518e-20)
(1.3576 0.0904479 -8.37676e-20)
(1.41553 0.0970165 4.18598e-20)
(1.43349 0.0971225 3.5363e-20)
(1.42999 0.0933141 0)
(1.41677 0.0874359 7.53047e-20)
(1.39999 0.0805708 -1.09751e-19)
(1.38234 0.0732752 8.08242e-20)
(1.36483 0.0658324 3.4915e-20)
(1.34775 0.0584084 -2.78518e-20)
(1.33115 0.0511276 -2.26672e-20)
(1.31499 0.0440731 -2.07253e-20)
(1.29922 0.037339 6.25582e-20)
(1.28383 0.0309567 0)
(1.26885 0.0250131 3.00208e-20)
(1.25427 0.0195447 2.43688e-20)
(1.24008 0.0145534 -6.09784e-20)
(1.22629 0.0100009 -4.01894e-20)
(1.21291 0.00528815 3.70713e-20)
(0.0461308 -0.00442032 -4.07927e-20)
(0.267023 -0.0120708 -1.45938e-21)
(0.581722 0.0115293 3.39534e-20)
(0.904379 0.0512627 9.28768e-20)
(1.15949 0.0885862 2.56774e-20)
(1.32232 0.114156 -4.93308e-20)
(1.40607 0.127175 4.43529e-20)
(1.43681 0.13065 -3.77229e-20)
(1.43815 0.128199 6.55501e-20)
(1.42587 0.122592 2.71691e-20)
(1.40852 0.11549 -7.62326e-20)
(1.38995 0.107741 2.20743e-20)
(1.37157 0.0997506 3.6928e-20)
(1.35378 0.0917234 -1.80358e-20)
(1.33663 0.083787 0)
(1.32008 0.0760321 2.59281e-20)
(1.3041 0.0685385 4.31007e-20)
(1.28868 0.0613632 6.96647e-21)
(1.27382 0.0545772 -3.51204e-20)
(1.25948 0.0482127 1.44617e-20)
(1.24565 0.0423105 0)
(1.23227 0.0368661 -1.09821e-20)
(1.21928 0.0316933 -1.00439e-20)
(1.2066 0.0271711 0)
(0.078597 -0.00513734 0)
(0.361804 -0.00195233 1.97899e-20)
(0.714688 0.0403349 3.61855e-20)
(1.03349 0.0925709 -9.42876e-20)
(1.25658 0.133046 2.9954e-20)
(1.38132 0.156359 0)
(1.43417 0.165461 4.16252e-20)
(1.44488 0.165353 -5.71487e-20)
(1.43523 0.160242 -3.25821e-20)
(1.41767 0.152768 1.44908e-20)
(1.39802 0.144296 -2.2514e-20)
(1.3785 0.135456 5.43083e-20)
(1.35975 0.12653 2.66772e-20)
(1.34187 0.117667 -1.8495e-20)
(1.32483 0.108969 -1.85942e-21)
(1.30857 0.100519 -4.89193e-20)
(1.29301 0.0923751 2.20408e-20)
(1.27809 0.084598 -4.58378e-22)
(1.26377 0.0772262 0)
(1.25002 0.0703009 -1.44759e-20)
(1.2368 0.0638491 0)
(1.22403 0.0578051 3.16949e-20)
(1.21168 0.0522286 -3.73172e-20)
(1.19969 0.047803 1.67957e-20)
(0.116303 -0.00236162 -1.12088e-20)
(0.46135 0.0185009 -5.01978e-20)
(0.838601 0.080563 5.61097e-20)
(1.14049 0.14169 3.18608e-20)
(1.32795 0.181724 -1.51839e-20)
(1.4184 0.200703 2.39261e-20)
(1.44686 0.205053 -1.1598e-20)
(1.44339 0.201152 1.85347e-20)
(1.42669 0.193321 0)
(1.40602 0.183866 4.0321e-20)
(1.38511 0.173839 -1.71012e-21)
(1.36508 0.163685 -3.17125e-20)
(1.34617 0.153603 1.34028e-20)
(1.32832 0.143704 -1.49221e-20)
(1.31143 0.134071 -5.59167e-21)
(1.2954 0.124766 6.41694e-21)
(1.28016 0.115831 -4.91775e-21)
(1.26567 0.107312 -2.61187e-20)
(1.25188 0.099252 1.59119e-20)
(1.23875 0.0916782 3.22921e-21)
(1.22624 0.0845904 2.80724e-21)
(1.21425 0.077952 2.44007e-21)
(1.2027 0.0719208 0)
(1.19143 0.0670648 0)
(0.157913 0.00482629 1.12224e-20)
(0.559974 0.0498866 -1.04171e-20)
(0.947451 0.130746 -1.87039e-20)
(1.22395 0.196784 0)
(1.37611 0.233455 -7.43399e-21)
(1.4374 0.246678 -6.41477e-21)
(1.44736 0.245804 -1.06139e-20)
(1.43419 0.237992 0)
(1.41314 0.227331 0)
(1.39074 0.215707 0)
(1.36919 0.203889 0)
(1.349 0.192183 0)
(1.33015 0.180718 -8.44737e-21)
(1.3125 0.169573 3.81546e-21)
(1.29593 0.15881 6.53395e-21)
(1.28034 0.148472 3.01117e-21)
(1.26564 0.138585 7.4045e-21)
(1.25176 0.129187 0)
(1.23863 0.120313 -1.73783e-21)
(1.22618 0.111965 -1.61292e-21)
(1.21438 0.10413 -2.81164e-21)
(1.20314 0.0967998 -2.44389e-21)
(1.19235 0.0902697 0)
(1.18195 0.084864 1.71567e-21)
(-0.000607439 0.140382 7.96558e-21)
(0.0018853 0.323482 -7.51309e-21)
(0.000430248 0.426682 -1.38714e-20)
(-0.00781495 0.473211 0)
(-0.020317 0.488312 -1.80378e-20)
(-0.0340089 0.489735 5.55885e-21)
(-0.0465652 0.485823 -1.07695e-20)
(-0.0563993 0.478118 0)
(-0.0624555 0.464946 0)
(-0.0640368 0.44393 0)
(-0.0607337 0.413144 0)
(-0.0524354 0.371481 0)
(-0.0393614 0.318707 2.57408e-23)
(-0.0220302 0.255377 -8.13547e-21)
(-0.00125054 0.182648 1.6241e-20)
(0.0216433 0.102004 2.32618e-20)
(0.0454546 0.0148585 7.59589e-21)
(0.069851 -0.0775344 0)
(0.0946465 -0.174684 6.3321e-21)
(0.119823 -0.276388 -1.79123e-20)
(0.145675 -0.382274 -1.09284e-20)
(0.175486 -0.488567 -9.78343e-21)
(0.203047 -0.593196 0)
(0.244132 -0.684847 0)
(-0.00686759 0.128424 -2.40278e-20)
(-0.00872865 0.310358 3.77816e-20)
(-0.00535699 0.42231 -1.42192e-20)
(-0.00497904 0.478138 -2.61423e-20)
(-0.00734751 0.498913 3.62471e-20)
(-0.0102158 0.501841 -2.31994e-20)
(-0.0113743 0.496244 3.22743e-20)
(-0.00912126 0.484853 2.09135e-20)
(-0.00235331 0.466873 0)
(0.00949094 0.440487 -2.00862e-20)
(0.0265246 0.404186 -1.59628e-21)
(0.0484808 0.357246 1.73761e-20)
(0.074759 0.299802 2.64118e-20)
(0.104476 0.232729 3.47919e-20)
(0.136536 0.157389 -1.51842e-20)
(0.169581 0.0752266 -4.66631e-20)
(0.202669 -0.0120994 1.54748e-20)
(0.235195 -0.103732 -5.6606e-20)
(0.2669 -0.200255 0)
(0.298774 -0.301869 1.19842e-20)
(0.330097 -0.410025 1.09096e-20)
(0.366794 -0.518783 9.76669e-21)
(0.394785 -0.628703 0)
(0.44137 -0.722186 0)
(-0.0114892 0.111001 0)
(-0.0180117 0.28421 7.68822e-20)
(-0.0111703 0.401956 -2.84343e-20)
(-0.00280421 0.467232 2.65073e-20)
(0.00497323 0.495032 -7.35737e-20)
(0.013237 0.500746 0)
(0.023726 0.49429 -4.45588e-20)
(0.0380327 0.479774 2.04719e-20)
(0.0572246 0.457637 -4.01264e-20)
(0.081742 0.426905 1.93014e-20)
(0.111466 0.38661 1.14425e-19)
(0.145836 0.336403 -5.33666e-20)
(0.183948 0.276689 -8.99607e-20)
(0.224638 0.208526 -3.64336e-20)
(0.266475 0.133333 -2.04752e-21)
(0.308391 0.0527942 1.26383e-19)
(0.349519 -0.0316535 -5.96124e-20)
(0.389485 -0.11982 2.59892e-22)
(0.42868 -0.21339 0)
(0.469721 -0.312105 -4.86352e-20)
(0.510387 -0.420121 0)
(0.559384 -0.526609 -3.84148e-20)
(0.593392 -0.636713 1.40423e-19)
(0.649632 -0.722836 -5.90502e-21)
(-0.0140567 0.0903566 0)
(-0.025056 0.247504 5.83572e-23)
(-0.0168663 0.366343 2.84313e-20)
(-0.00239458 0.439692 -2.65521e-20)
(0.0143912 0.475323 2.41049e-20)
(0.0331592 0.485398 1.38337e-19)
(0.0547814 0.479575 -4.32424e-20)
(0.0804265 0.463122 -4.11851e-20)
(0.110974 0.437877 7.94859e-20)
(0.146727 0.403954 -1.16972e-19)
(0.187388 0.361076 3.54102e-20)
(0.23216 0.309289 3.53251e-20)
(0.279898 0.2492 0)
(0.329147 0.181881 3.3918e-20)
(0.378545 0.108789 0)
(0.427336 0.0316714 6.06177e-20)
(0.474896 -0.0492722 -1.18382e-19)
(0.522041 -0.134235 2.72362e-20)
(0.570278 -0.226547 1.03724e-19)
(0.623483 -0.32418 4.85813e-20)
(0.677465 -0.43358 0)
(0.740071 -0.536689 -1.14942e-19)
(0.781341 -0.644588 3.75025e-20)
(0.841545 -0.718085 0)
(-0.0146056 0.0691492 0)
(-0.0293552 0.204505 -9.24185e-20)
(-0.0222224 0.318395 -2.80162e-20)
(-0.00454957 0.396373 -5.24701e-20)
(0.0189001 0.439208 4.86109e-20)
(0.0465016 0.454791 -4.58335e-20)
(0.0779923 0.4514 8.67636e-20)
(0.113768 0.434786 4.31971e-20)
(0.154259 0.40798 -1.16046e-19)
(0.199513 0.37225 7.59548e-20)
(0.249036 0.328152 -1.0864e-19)
(0.301862 0.276231 2.41937e-19)
(0.356662 0.217273 -1.31488e-19)
(0.412 0.15242 6.30008e-20)
(0.467132 0.0831577 1.86218e-19)
(0.521838 0.0101652 -5.78088e-20)
(0.57678 -0.0676763 -5.32024e-20)
(0.634867 -0.150656 -5.39906e-20)
(0.698105 -0.243077 0)
(0.769073 -0.339702 -9.0258e-20)
(0.840105 -0.447276 -7.75097e-20)
(0.9134 -0.540754 1.15698e-19)
(0.957566 -0.637958 1.2341e-19)
(1.00874 -0.689345 -1.12625e-19)
(-0.013623 0.049817 0)
(-0.0310417 0.16039 -1.22141e-19)
(-0.0270397 0.263185 7.28655e-22)
(-0.00947344 0.340493 1.0398e-19)
(0.0173504 0.38778 0)
(0.0510305 0.408533 0)
(0.0902087 0.408757 0)
(0.134293 0.393793 -4.10465e-20)
(0.182991 0.367299 -1.92534e-21)
(0.235882 0.331475 7.06712e-20)
(0.292209 0.287698 -1.07952e-19)
(0.350906 0.237007 -2.20783e-21)
(0.410817 0.180465 0)
(0.471537 0.119298 -6.29758e-20)
(0.533347 0.0538474 5.89564e-20)
(0.59782 -0.0164293 -1.66124e-19)
(0.667683 -0.0932385 2.14598e-19)
(0.746081 -0.176386 4.92489e-20)
(0.832222 -0.268947 -1.94803e-21)
(0.923647 -0.361889 -1.7336e-19)
(1.00744 -0.460601 -7.37114e-20)
(1.08012 -0.536768 2.29428e-19)
(1.11541 -0.61461 -1.4579e-19)
(1.14238 -0.639508 0)
(-0.011933 0.0341074 6.43603e-20)
(-0.0309939 0.120041 6.1052e-20)
(-0.0314079 0.206993 -5.55253e-20)
(-0.016805 0.277675 -1.02141e-19)
(0.00990407 0.324774 9.46256e-20)
(0.046233 0.34827 -8.74286e-20)
(0.090078 0.351663 1.21198e-19)
(0.139918 0.339199 -4.06704e-20)
(0.194643 0.314497 7.14071e-20)
(0.253291 0.280239 0)
(0.314971 0.238323 6.60114e-20)
(0.379077 0.190225 -1.20774e-19)
(0.445894 0.137067 1.23049e-19)
(0.516685 0.0791069 -1.14534e-19)
(0.593772 0.0156019 0)
(0.680096 -0.0540563 1.06693e-19)
(0.77698 -0.130828 1.99418e-19)
(0.882993 -0.212735 -1.88768e-19)
(0.990635 -0.29969 -8.38139e-20)
(1.0914 -0.38099 -7.90602e-20)
(1.16929 -0.460585 2.17967e-19)
(1.22129 -0.513364 5.23925e-20)
(1.23071 -0.566663 -5.40658e-20)
(1.22351 -0.568743 4.06545e-20)
(-0.0105257 0.0229178 -6.43766e-20)
(-0.0307007 0.0869994 1.80063e-19)
(-0.0359266 0.155724 -5.55163e-20)
(-0.0259708 0.214761 1.00864e-19)
(-0.00203988 0.256445 -9.3444e-20)
(0.0338341 0.27873 -5.3397e-22)
(0.0793042 0.283084 3.91494e-20)
(0.132314 0.272463 1.46449e-19)
(0.191317 0.249978 2.18498e-21)
(0.255381 0.218265 -6.54978e-20)
(0.324485 0.179341 0)
(0.399799 0.134498 -6.0493e-20)
(0.483511 0.0840915 1.13504e-19)
(0.578245 0.0277924 1.12267e-19)
(0.685709 -0.0345357 -5.28649e-20)
(0.804831 -0.102577 -2.95025e-21)
(0.930574 -0.174956 -4.89518e-20)
(1.05407 -0.248348 8.44243e-20)
(1.16291 -0.320098 8.38212e-20)
(1.24712 -0.381591 -7.55436e-20)
(1.29464 -0.436407 5.98305e-20)
(1.31024 -0.465688 -5.15219e-20)
(1.28711 -0.498729 0)
(1.25341 -0.486744 -4.06882e-20)
(-0.0103797 0.0164097 6.34351e-20)
(-0.0318499 0.0630197 -6.00662e-20)
(-0.041509 0.113546 5.48114e-20)
(-0.0363278 0.157986 0)
(-0.0160626 0.190056 0)
(0.0180097 0.207154 8.31492e-20)
(0.0639513 0.209551 -7.79848e-20)
(0.1201 0.199127 7.17665e-20)
(0.185697 0.178253 -3.37366e-19)
(0.261272 0.149042 -1.4707e-21)
(0.348599 0.112945 5.98765e-20)
(0.449997 0.0706755 0)
(0.566943 0.0226055 -1.12282e-19)
(0.698386 -0.0307747 2.11537e-19)
(0.839686 -0.0883244 -1.51351e-19)
(0.982317 -0.14852 -2.38576e-19)
(1.11531 -0.208449 1.59681e-21)
(1.22654 -0.265434 1.56191e-19)
(1.30616 -0.316071 0)
(1.3494 -0.356303 0)
(1.35544 -0.38907 -5.98634e-20)
(1.33701 -0.402969 5.15524e-20)
(1.29439 -0.424332 -1.57256e-19)
(1.25461 -0.409635 1.46682e-19)
(-0.0122254 0.0141853 0)
(-0.0355966 0.0482 0)
(-0.0484353 0.0824081 -1.63745e-19)
(-0.0462096 0.111676 5.1383e-20)
(-0.027639 0.13205 1.22127e-21)
(0.00713239 0.141384 8.41426e-20)
(0.0575926 0.139526 0)
(0.123853 0.127594 -7.1246e-20)
(0.207067 0.107114 6.70069e-20)
(0.309002 0.0794944 -1.25484e-19)
(0.430778 0.0458109 -1.46868e-21)
(0.571128 0.00699933 1.13978e-19)
(0.725206 -0.0358737 2.18487e-21)
(0.884447 -0.0815312 1.03595e-19)
(1.03758 -0.12827 -1.4374e-19)
(1.17238 -0.174411 0)
(1.27828 -0.217425 1.60956e-19)
(1.34791 -0.256217 -2.27498e-19)
(1.38074 -0.287777 6.28618e-20)
(1.38093 -0.313041 0)
(1.35858 -0.331764 4.83003e-20)
(1.32604 -0.340936 1.68328e-19)
(1.28489 -0.357841 -1.57202e-19)
(1.25236 -0.344394 -1.50559e-19)
(-0.0161769 0.0153013 1.8874e-19)
(-0.0416353 0.0412304 -2.38278e-19)
(-0.0549404 0.0621567 9.49735e-22)
(-0.051175 0.0777405 5.07972e-20)
(-0.0281277 0.0866064 -9.22222e-20)
(0.0157176 0.0875083 -8.39772e-20)
(0.0820639 0.080365 1.54024e-19)
(0.172811 0.0658708 -4.78915e-22)
(0.289253 0.0451268 -1.32584e-19)
(0.430398 0.0193515 2.49949e-19)
(0.591438 -0.0102591 2.20037e-21)
(0.763398 -0.0425018 -1.09794e-19)
(0.934161 -0.0762018 0)
(1.0905 -0.110223 0)
(1.22042 -0.14343 -4.65323e-20)
(1.31552 -0.174771 -8.01227e-20)
(1.37274 -0.202974 -1.47635e-19)
(1.39485 -0.227869 1.3765e-19)
(1.39046 -0.247699 -6.29376e-20)
(1.3688 -0.265519 1.01911e-19)
(1.34091 -0.277402 -5.48361e-20)
(1.31024 -0.288053 7.06321e-20)
(1.27853 -0.299916 -1.76046e-19)
(1.25175 -0.289953 3.05602e-20)
(-0.0214508 0.018219 6.32198e-20)
(-0.0478443 0.0395372 0)
(-0.0569164 0.0506743 1.09919e-19)
(-0.0442935 0.0554471 -1.01779e-19)
(-0.00660981 0.0545949 9.23441e-20)
(0.0591744 0.0479317 0)
(0.155934 0.035858 0)
(0.284532 0.0192538 -7.24224e-20)
(0.441792 -0.000676166 -2.26025e-22)
(0.619284 -0.0227035 6.22058e-20)
(0.803999 -0.045768 -5.83094e-20)
(0.980735 -0.0691094 1.08599e-19)
(1.13513 -0.0922503 0)
(1.25638 -0.114854 1.85022e-19)
(1.33924 -0.136577 -3.40779e-19)
(1.3847 -0.156983 2.37202e-19)
(1.39928 -0.175671 1.3601e-19)
(1.39267 -0.19253 -1.26816e-19)
(1.37447 -0.206887 0)
(1.35067 -0.220756 0)
(1.32591 -0.228979 0)
(1.29739 -0.242004 0)
(1.27086 -0.244439 3.28463e-20)
(1.24375 -0.245807 -1.03291e-19)
(0.275361 -0.770121 -4.09979e-21)
(0.308429 -0.830473 4.12971e-21)
(0.333831 -0.85103 -9.87445e-23)
(0.342566 -0.847304 0)
(0.327715 -0.843447 -2.17856e-21)
(0.293136 -0.84614 4.15686e-21)
(0.263207 -0.829169 6.17301e-23)
(0.269136 -0.749683 -1.98492e-21)
(0.322137 -0.585031 0)
(0.405636 -0.351653 0)
(0.495634 -0.0797986 -1.45258e-22)
(0.579874 0.201974 -1.401e-22)
(0.652895 0.451986 -2.04598e-21)
(0.709956 0.625886 1.86699e-21)
(0.751102 0.708325 0)
(0.776445 0.724895 0)
(0.785297 0.710703 7.95286e-22)
(0.788365 0.681385 -4.24387e-23)
(0.790425 0.657203 -6.65272e-22)
(0.78065 0.673743 -4.59136e-23)
(0.750508 0.727444 0)
(0.71154 0.743569 0)
(0.686644 0.633207 0)
(0.686841 0.376766 0)
(0.706422 0.042781 0)
(0.74043 -0.268445 0)
(0.77259 -0.483002 3.35005e-22)
(0.798056 -0.584618 -5.61111e-22)
(0.819569 -0.597033 0)
(0.834032 -0.590682 0)
(0.821357 -0.608366 -1.98277e-22)
(0.778218 -0.633411 1.92664e-22)
(0.713199 -0.60745 1.02239e-22)
(0.650202 -0.48691 0)
(0.616164 -0.267127 0)
(0.614941 0.00292692 2.83648e-22)
(0.646218 0.238947 -2.75682e-22)
(0.696108 0.393334 0)
(0.740027 0.468801 1.39509e-22)
(0.732647 0.523196 -1.97088e-22)
(0.688033 0.54071 6.18923e-23)
(0.630558 0.485796 0)
(0.607384 0.319294 -1.54691e-22)
(0.616234 0.0891436 1.50413e-22)
(0.666969 -0.116114 0)
(0.69773 -0.285017 0)
(0.695309 -0.388218 -4.07948e-23)
(0.671113 -0.463839 1.13469e-22)
(0.659163 -0.401577 0)
(0.655772 -0.242552 0)
(0.670401 -0.0353411 -2.81597e-23)
(0.666482 0.239371 4.57792e-24)
(0.655617 0.360993 -1.15068e-24)
(0.640531 0.445871 2.34497e-23)
(0.649526 0.273329 0)
(0.626486 -0.00254142 0)
(0.631008 -0.0858762 0)
(0.608609 -0.41279 0)
(0.613027 -0.33819 0)
(0.583639 0.00495593 0)
(0.455265 -0.810905 -4.4222e-22)
(0.466613 -0.871589 -1.44638e-20)
(0.471228 -0.882921 2.39882e-21)
(0.465968 -0.854691 1.12475e-20)
(0.445109 -0.814069 1.30678e-22)
(0.397693 -0.79222 0)
(0.333039 -0.785727 -7.10885e-21)
(0.283527 -0.747866 1.44992e-20)
(0.2785 -0.629566 -7.38665e-21)
(0.318853 -0.423532 8.62161e-21)
(0.386475 -0.159874 -8.2266e-21)
(0.465728 0.121913 7.95792e-21)
(0.545011 0.37851 -7.70043e-21)
(0.617191 0.565994 -1.75969e-22)
(0.678722 0.667735 -4.33405e-21)
(0.723789 0.704151 4.209e-21)
(0.751238 0.702486 -3.02249e-21)
(0.771324 0.678064 2.851e-21)
(0.787348 0.659007 -2.96024e-21)
(0.789534 0.684776 6.10624e-21)
(0.772757 0.747394 -3.13495e-21)
(0.750379 0.765872 -2.63073e-22)
(0.742366 0.650057 -5.77283e-21)
(0.754799 0.381873 1.19445e-20)
(0.77875 0.0346063 -6.15562e-21)
(0.809114 -0.285655 3.62495e-22)
(0.832453 -0.501395 4.14294e-21)
(0.844638 -0.599518 -8.62818e-22)
(0.849143 -0.60623 -5.00265e-21)
(0.849283 -0.589017 3.80091e-21)
(0.825476 -0.592869 -1.6537e-21)
(0.773582 -0.606409 1.65342e-22)
(0.699686 -0.576728 -1.02452e-22)
(0.628466 -0.463752 2.08493e-22)
(0.587781 -0.25986 0)
(0.586928 -0.00754204 0)
(0.6256 0.216464 -7.91467e-22)
(0.684548 0.371739 6.11543e-22)
(0.733953 0.460478 3.93915e-22)
(0.730739 0.531457 5.7613e-23)
(0.693204 0.558192 -5.51582e-22)
(0.639803 0.501805 1.59859e-22)
(0.61805 0.324754 0)
(0.625524 0.0807846 0)
(0.677492 -0.129375 0)
(0.711817 -0.290581 0)
(0.708137 -0.384977 1.91754e-22)
(0.679624 -0.458672 -7.38659e-23)
(0.66313 -0.399902 0)
(0.657731 -0.244174 0)
(0.669711 -0.0373233 0)
(0.66423 0.240226 -3.70813e-23)
(0.659585 0.362958 4.92624e-24)
(0.646647 0.446651 -4.54194e-23)
(0.657678 0.27655 0)
(0.632428 -0.000999721 0)
(0.637006 -0.0840321 3.65515e-23)
(0.612492 -0.409709 1.00887e-22)
(0.609938 -0.33716 0)
(0.587887 0.00781476 0)
(0.64798 -0.807624 -5.67339e-21)
(0.637883 -0.864441 -3.4154e-20)
(0.616188 -0.875765 2.33096e-20)
(0.583183 -0.848135 -2.18019e-20)
(0.547832 -0.791447 -1.31607e-22)
(0.497963 -0.738119 0)
(0.4213 -0.717289 -1.22514e-20)
(0.335379 -0.704776 1.19615e-20)
(0.277796 -0.637841 1.0798e-22)
(0.269466 -0.47766 1.80183e-22)
(0.304004 -0.239216 1.92441e-22)
(0.367898 0.0333531 2.4141e-22)
(0.447626 0.290724 -1.16583e-20)
(0.531503 0.489451 1.1498e-20)
(0.609775 0.610734 0)
(0.672293 0.668458 1.88334e-22)
(0.71775 0.681633 -5.48195e-21)
(0.754788 0.664872 5.40854e-21)
(0.785479 0.651811 0)
(0.801312 0.685465 0)
(0.799293 0.756339 -7.96585e-21)
(0.793575 0.779774 1.78163e-20)
(0.801783 0.664398 -2.13045e-20)
(0.826516 0.393398 -1.17676e-21)
(0.854608 0.0408048 2.49502e-20)
(0.880658 -0.286415 -2.34871e-20)
(0.894659 -0.505079 1.82098e-20)
(0.894066 -0.602628 -2.49259e-21)
(0.882356 -0.607542 -5.83581e-21)
(0.868427 -0.582732 0)
(0.835171 -0.574053 0)
(0.777005 -0.577511 9.73212e-22)
(0.695772 -0.546516 -1.24869e-21)
(0.617201 -0.443206 -4.00786e-23)
(0.570214 -0.256424 1.74471e-21)
(0.569038 -0.0221308 -1.69535e-21)
(0.613309 0.189537 0)
(0.678845 0.346763 1.58364e-22)
(0.733054 0.449948 1.08955e-21)
(0.735379 0.538446 -2.16556e-21)
(0.706196 0.575738 9.79754e-22)
(0.657496 0.51926 1.88997e-22)
(0.637844 0.333223 -2.07223e-21)
(0.642928 0.0757367 1.60075e-21)
(0.692981 -0.140949 3.66482e-22)
(0.730097 -0.295171 2.79061e-22)
(0.725521 -0.380353 -1.92262e-22)
(0.691696 -0.452379 0)
(0.669917 -0.398829 0)
(0.662348 -0.246209 -3.24816e-22)
(0.672339 -0.0404494 1.59589e-22)
(0.665779 0.240145 -1.16556e-22)
(0.667047 0.363959 2.15514e-22)
(0.655873 0.446944 4.12535e-22)
(0.66912 0.28087 -7.61577e-23)
(0.642167 0.00108819 2.28857e-22)
(0.646386 -0.0815611 -1.94048e-22)
(0.619935 -0.405143 1.07393e-22)
(0.61022 -0.337025 0)
(0.595377 0.00984404 0)
(0.82352 -0.793935 -6.70799e-20)
(0.796836 -0.835488 1.12878e-20)
(0.757687 -0.834615 5.25544e-20)
(0.699528 -0.809406 -3.06955e-22)
(0.639808 -0.759932 0)
(0.586177 -0.691383 0)
(0.516272 -0.641216 -2.02704e-20)
(0.419028 -0.626608 3.82222e-22)
(0.323016 -0.60145 2.82938e-20)
(0.266084 -0.500878 7.6476e-22)
(0.261157 -0.308264 -1.02882e-20)
(0.300668 -0.0594354 -1.01976e-20)
(0.371857 0.19068 1.01767e-20)
(0.459242 0.397378 0)
(0.547183 0.537631 -6.19752e-21)
(0.622881 0.617157 5.67837e-21)
(0.684207 0.646613 0)
(0.73696 0.639169 0)
(0.78171 0.631846 5.12542e-21)
(0.811083 0.670875 1.00983e-21)
(0.823867 0.748721 -5.60587e-21)
(0.834483 0.780673 -9.70972e-21)
(0.858066 0.675091 9.79891e-21)
(0.894375 0.411563 -1.3337e-20)
(0.928234 0.0574831 2.59814e-22)
(0.95279 -0.276702 1.23537e-20)
(0.958859 -0.499846 1.19259e-21)
(0.946219 -0.597563 3.15392e-24)
(0.919146 -0.602111 0)
(0.891383 -0.572949 3.15248e-21)
(0.849309 -0.554061 -3.22195e-21)
(0.78666 -0.547204 1.4699e-22)
(0.700748 -0.514491 0)
(0.615991 -0.42234 -1.70694e-22)
(0.563025 -0.255341 2.79705e-21)
(0.560579 -0.0408922 -4.99458e-21)
(0.608076 0.158748 1.01818e-22)
(0.678033 0.318974 2.7958e-22)
(0.73746 0.436029 1.56723e-21)
(0.746057 0.540775 2.25208e-22)
(0.72506 0.590403 -2.58236e-21)
(0.682635 0.536928 2.1579e-21)
(0.666956 0.34481 -4.12485e-23)
(0.669392 0.0744719 1.72037e-21)
(0.714086 -0.150934 -2.04016e-21)
(0.752377 -0.299581 -1.89614e-21)
(0.747215 -0.374635 5.62186e-22)
(0.707284 -0.444342 4.92502e-22)
(0.679465 -0.397621 -8.19012e-22)
(0.669402 -0.248682 4.9202e-22)
(0.678197 -0.0449164 -1.22769e-22)
(0.670894 0.238839 8.13071e-23)
(0.677633 0.364087 8.75826e-23)
(0.668022 0.446871 -6.2565e-22)
(0.6837 0.286263 -2.92874e-23)
(0.655597 0.00355722 -2.86411e-22)
(0.659021 -0.0785634 0)
(0.63103 -0.39924 -1.12175e-22)
(0.613922 -0.337488 -2.21175e-23)
(0.605931 0.0111155 0)
(0.969007 -0.754381 6.25462e-20)
(0.920659 -0.786413 -1.11985e-19)
(0.866207 -0.776269 4.91687e-20)
(0.79738 -0.746215 3.22484e-20)
(0.720284 -0.708947 -5.6959e-20)
(0.652272 -0.652812 4.53233e-21)
(0.592068 -0.585084 1.98921e-20)
(0.511507 -0.544839 1.45818e-20)
(0.405688 -0.531983 -1.42846e-20)
(0.310782 -0.485767 0)
(0.263242 -0.354504 -1.49077e-20)
(0.270343 -0.146611 2.90757e-20)
(0.323254 0.0855111 -1.42758e-20)
(0.404487 0.294311 0)
(0.49432 0.451039 0)
(0.578226 0.551892 1.51042e-22)
(0.652251 0.599143 -7.30347e-21)
(0.718817 0.603166 7.09033e-21)
(0.776122 0.601904 0)
(0.817169 0.644477 1.09046e-20)
(0.843171 0.727548 -2.37801e-20)
(0.869953 0.769201 3.04518e-20)
(0.908229 0.679541 -3.92271e-20)
(0.953667 0.433202 -3.60469e-21)
(0.99396 0.086022 4.94209e-20)
(1.02102 -0.252256 -2.46988e-20)
(1.02189 -0.481439 -6.01705e-22)
(0.998716 -0.582141 -5.55144e-21)
(0.957855 -0.58874 1.6302e-21)
(0.917087 -0.558221 4.06543e-21)
(0.867905 -0.532908 1.61688e-22)
(0.802603 -0.517988 -1.81432e-21)
(0.714411 -0.483416 3.55584e-21)
(0.624509 -0.401915 -1.94155e-21)
(0.565136 -0.255727 0)
(0.559812 -0.0625046 -2.303e-21)
(0.608474 0.124454 2.19858e-21)
(0.681153 0.286704 -1.29046e-21)
(0.74589 0.417542 1.59903e-21)
(0.761702 0.540012 -1.83956e-22)
(0.750731 0.603098 0)
(0.71655 0.554269 -3.92137e-22)
(0.705725 0.359494 1.48461e-21)
(0.705265 0.078119 0)
(0.740966 -0.157973 3.88887e-21)
(0.77819 -0.303179 -1.66492e-21)
(0.772849 -0.367623 4.23899e-22)
(0.726296 -0.434347 2.88739e-22)
(0.691605 -0.396068 0)
(0.678569 -0.25167 0)
(0.687038 -0.0507404 -2.05278e-22)
(0.679274 0.236017 3.48912e-22)
(0.691037 0.363046 -2.80749e-22)
(0.682892 0.446123 7.967e-23)
(0.701151 0.292454 4.94227e-22)
(0.672565 0.00639939 2.8672e-22)
(0.674806 -0.0750767 -5.37782e-22)
(0.64579 -0.392005 0)
(0.621016 -0.338398 -2.25405e-23)
(0.619343 0.0115979 3.81397e-23)
(1.08238 -0.689488 5.74666e-20)
(1.01645 -0.712384 -5.68099e-20)
(0.947365 -0.705768 3.4279e-22)
(0.871879 -0.677839 -2.51412e-22)
(0.793924 -0.64288 2.13421e-22)
(0.715897 -0.604368 -1.67585e-22)
(0.649692 -0.545692 2.32977e-22)
(0.58772 -0.482401 0)
(0.502369 -0.450431 -1.36267e-22)
(0.396463 -0.431684 1.12101e-22)
(0.311267 -0.363397 1.02842e-22)
(0.278637 -0.213626 -1.89007e-22)
(0.302917 -0.0124245 0)
(0.367584 0.188078 0)
(0.450733 0.354848 7.33364e-23)
(0.537261 0.473522 0)
(0.620692 0.538374 -5.47202e-23)
(0.699173 0.555597 0)
(0.767367 0.561446 -6.88686e-21)
(0.818313 0.606158 1.55127e-20)
(0.855472 0.692308 -2.00042e-20)
(0.89524 0.745729 1.12585e-20)
(0.94485 0.678048 1.93846e-20)
(0.99934 0.455531 -1.88138e-20)
(1.04839 0.1219 -2.39795e-20)
(1.08195 -0.217412 2.32526e-20)
(1.08167 -0.453347 0)
(1.05031 -0.559045 4.1277e-22)
(0.998154 -0.569287 0)
(0.944964 -0.539589 0)
(0.88906 -0.510619 3.67884e-21)
(0.822777 -0.489631 -3.8315e-21)
(0.735303 -0.452794 1.41409e-22)
(0.64181 -0.380641 2.02019e-22)
(0.575464 -0.255771 -1.62383e-22)
(0.564916 -0.0854332 -1.46969e-21)
(0.612795 0.0873975 1.42686e-21)
(0.686906 0.250845 -1.25118e-21)
(0.757572 0.393926 1.05815e-21)
(0.781273 0.531254 3.42885e-22)
(0.779754 0.609835 -2.70764e-21)
(0.755026 0.570823 -1.53675e-21)
(0.751454 0.377344 2.62889e-21)
(0.749643 0.0873119 0)
(0.773768 -0.161125 -1.84356e-21)
(0.807011 -0.305978 1.6084e-21)
(0.801872 -0.359559 -2.19403e-21)
(0.748645 -0.422074 -2.90669e-22)
(0.706166 -0.39368 0)
(0.689472 -0.255028 3.55169e-23)
(0.69856 -0.0580967 -9.96383e-23)
(0.690493 0.231492 -3.38704e-23)
(0.70681 0.361155 -7.07403e-23)
(0.700107 0.445008 5.32206e-22)
(0.721159 0.299384 -5.19388e-22)
(0.692894 0.00984923 0)
(0.693566 -0.0711577 5.38099e-22)
(0.664126 -0.383483 0)
(0.631417 -0.339554 0)
(0.635366 0.0113079 -3.88899e-23)
(1.14932 -0.610467 -5.27865e-20)
(1.07619 -0.625447 5.18241e-20)
(1.0047 -0.62181 -2.95957e-22)
(0.926778 -0.607803 2.57751e-22)
(0.852028 -0.579921 0)
(0.778433 -0.548234 0)