/*--------------------------------*- C++ -*----------------------------------*\
| =========                 |                                                 |
| \\      /  F ield         | OpenFOAM: The Open Source CFD Toolbox           |
|  \\    /   O peration     | Version:  2312                                  |
|   \\  /    A nd           | Website:  www.openfoam.com                      |
|    \\/     M anipulation  |                                                 |
\*---------------------------------------------------------------------------*/
FoamFile
{
    version     2.0;
    format      ascii;
    arch        "LSB;label=32;scalar=64";
    class       volVectorField;
    location    "30.5";
    object      U;
}
// * * * * * * * * * * * * * * * * * * * * * * * * * * * * * * * * * * * * * //

dimensions      [0 1 -1 0 0 0 0];

internalField   nonuniform List<vector> 
2300
(
(-0.0475843 0.0296478 0)
(-0.0679796 0.0551819 1.30462e-19)
(-0.00421505 0.0645053 -7.10061e-20)
(0.155146 0.0758326 -2.8698e-20)
(0.383933 0.0968646 0)
(0.614828 0.120349 -4.09568e-20)
(0.853169 0.160219 1.65449e-19)
(1.0318 0.169276 -2.94124e-20)
(1.17399 0.205901 9.08585e-20)
(1.29244 0.174306 -1.11161e-19)
(-0.0637787 0.0245211 5.54863e-20)
(-0.0281345 0.0256578 -4.40199e-20)
(0.1846 0.0489023 7.03767e-20)
(0.493798 0.0994637 2.70853e-20)
(0.786669 0.155135 4.46789e-20)
(1.026 0.21232 -1.14873e-19)
(1.18215 0.238985 -2.66965e-21)
(1.26443 0.259865 -3.05245e-21)
(1.29057 0.244825 0)
(1.26608 0.223081 1.98931e-20)
(-0.0627981 0.0127804 5.78119e-20)
(0.128095 0.0182242 -1.93678e-21)
(0.537542 0.107938 -1.09109e-19)
(0.889741 0.197802 5.91648e-20)
(1.1177 0.263468 -4.38248e-20)
(1.22226 0.288721 1.05328e-19)
(1.23862 0.288048 -8.67355e-20)
(1.20804 0.262739 -6.59148e-20)
(1.17069 0.233481 3.56637e-20)
(1.13581 0.210043 7.99812e-20)
(-0.00523781 -0.00689291 1.57056e-20)
(0.447474 0.0845622 -4.76369e-20)
(0.895058 0.224979 3.9163e-20)
(1.13027 0.302795 0)
(1.1992 0.319152 1.02869e-20)
(1.18615 0.305475 3.13121e-20)
(1.15993 0.27832 -2.61382e-20)
(1.15579 0.263432 3.71564e-20)
(1.16766 0.248282 -2.38386e-21)
(1.18688 0.244432 -5.90343e-20)
(0.136814 0.0172185 1.66762e-20)
(0.770493 0.225989 0)
(1.08518 0.336967 0)
(1.16801 0.355524 0)
(1.16812 0.341041 -1.03175e-20)
(1.16375 0.322163 0)
(1.16656 0.309309 0)
(1.1627 0.291976 -7.79526e-21)
(1.14865 0.269131 6.53823e-21)
(1.11432 0.251863 -4.55369e-21)
(-0.0246994 0.0604977 1.20465e-20)
(-0.0797076 0.0831713 0)
(-0.143258 0.0760464 0)
(-0.191034 0.0647662 0)
(-0.230947 0.0540649 -1.26319e-20)
(-0.263741 0.0428026 0)
(-0.292484 0.0296675 0)
(-0.314849 0.0109805 1.64652e-20)
(-0.336656 -0.00870574 -1.38083e-20)
(-0.347086 -0.0361304 1.22354e-20)
(-0.0275055 0.0974718 -3.67304e-20)
(-0.0639593 0.146746 4.17027e-20)
(-0.0995786 0.141697 -3.43103e-20)
(-0.122696 0.124961 0)
(-0.137705 0.110325 1.25957e-20)
(-0.141957 0.094391 -4.54094e-20)
(-0.150547 0.0859098 3.78987e-20)
(-0.13618 0.0580067 -6.85471e-20)
(-0.144045 0.0520846 5.74845e-20)
(-0.104954 0.00772636 2.55606e-20)
(-0.0310365 0.0978284 -5.18667e-20)
(-0.0533382 0.169975 -3.51128e-22)
(-0.0587091 0.17948 1.07514e-19)
(-0.0488371 0.164734 -5.96164e-20)
(-0.0387259 0.146652 5.26617e-20)
(0.0023548 0.128349 -1.35388e-19)
(0.000537902 0.123383 3.73956e-20)
(0.0928753 0.100556 3.59815e-20)
(0.0802302 0.086942 -5.76904e-20)
(0.237106 0.0764644 -5.10053e-20)
(-0.031159 0.070962 -5.31554e-20)
(-0.0499127 0.145537 -4.33335e-20)
(-0.0374862 0.168787 -7.18265e-20)
(-0.00178982 0.165156 2.81652e-20)
(0.0278635 0.143239 -5.24899e-20)
(0.128258 0.143516 4.32337e-20)
(0.133942 0.118311 1.84288e-21)
(0.371439 0.122054 1.27414e-21)
(0.324671 0.0907453 1.15658e-19)
(0.65933 0.104215 -7.4825e-20)
(-0.034048 0.0422076 0)
(-0.0589331 0.0963122 4.3443e-20)
(-0.0402002 0.117301 7.03839e-20)
(0.0202253 0.121265 -8.76142e-20)
(0.117491 0.109535 0)
(0.291038 0.114973 1.26854e-19)
(0.405162 0.110697 -1.05918e-19)
(0.686935 0.121431 9.24094e-20)
(0.740323 0.118324 -1.06609e-19)
(1.069 0.137862 4.23839e-20)
(-0.370153 -0.0599318 -8.69689e-21)
(-0.412586 -0.0974201 0)
(-0.44591 -0.115549 2.39992e-22)
(-0.473884 -0.12432 0)
(-0.484295 -0.0883474 1.92117e-22)
(-0.466024 -0.0128317 0)
(-0.405836 0.112662 4.13647e-21)
(-0.322043 0.26811 -3.84785e-21)
(-0.228031 0.407393 0)
(-0.049894 0.33555 -1.08422e-22)
(0.285735 0.0853101 0)
(0.595978 -0.15406 2.4903e-22)
(0.764587 -0.248917 -2.14094e-22)
(0.829577 -0.2651 5.20618e-23)
(0.850607 -0.219439 3.00139e-23)
(0.877874 -0.175367 -2.9584e-23)
(0.907111 -0.122654 0)
(0.936883 -0.0989081 0)
(0.958701 -0.0718488 0)
(0.976414 -0.0674363 0)
(0.980841 -0.0523884 0)
(0.977374 -0.0566712 3.65828e-24)
(0.972592 -0.0413061 -3.42089e-24)
(0.968801 -0.0425365 6.60627e-24)
(0.975512 -0.0190675 0)
(-0.118583 -0.0155076 -3.51833e-20)
(-0.162086 -0.0421731 3.35769e-20)
(-0.19762 -0.078455 -3.14499e-20)
(-0.236248 -0.100509 2.61427e-20)
(-0.274291 -0.0926663 -2.51795e-21)
(-0.282479 -0.0475088 -3.69046e-20)
(-0.246078 0.0361217 1.53605e-20)
(-0.159428 0.171177 0)
(-0.0482287 0.27859 2.60636e-22)
(0.243087 0.160186 1.10363e-22)
(0.588996 -0.0819257 0)
(0.806799 -0.254942 -6.591e-23)
(0.87761 -0.282297 -1.35195e-23)
(0.875959 -0.258965 -2.01966e-22)
(0.855754 -0.210591 3.56082e-22)
(0.849512 -0.1771 -1.54864e-22)
(0.870396 -0.132403 2.15596e-22)
(0.901304 -0.109268 -2.67388e-23)
(0.9367 -0.0796397 -2.87056e-23)
(0.964782 -0.0713985 -1.36912e-22)
(0.98418 -0.0524139 3.62238e-23)
(0.989156 -0.0545395 0)
(0.988054 -0.0390825 0)
(0.982389 -0.0414561 4.06214e-26)
(0.982986 -0.0191798 4.87305e-24)
(0.206684 0.0333923 1.49794e-19)
(0.195188 -0.00391348 -1.82045e-22)
(0.160482 -0.0330113 -6.5338e-20)
(0.139243 -0.0613992 0)
(0.105779 -0.0696529 -4.25073e-20)
(0.0944253 -0.0596931 3.94243e-20)
(0.120587 -0.0192527 0)
(0.172584 0.0819858 0)
(0.282856 0.155257 -2.71197e-22)
(0.59665 0.00754296 0)
(0.865129 -0.192361 -4.59469e-22)
(0.962278 -0.295761 0)
(0.937536 -0.289215 -9.71688e-22)
(0.902994 -0.26008 7.63192e-22)
(0.880998 -0.212869 3.40071e-22)
(0.874289 -0.182163 -2.21453e-22)
(0.879091 -0.141392 -4.35489e-23)
(0.893316 -0.120064 -3.12309e-23)
(0.91498 -0.0903266 0)
(0.936189 -0.080285 -1.89751e-23)
(0.958769 -0.0583305 4.26782e-25)
(0.972917 -0.0574939 0)
(0.982728 -0.03987 -1.91804e-24)
(0.983927 -0.0414572 -1.5241e-23)
(0.986344 -0.0193474 -4.85892e-24)
(0.606173 0.0694311 6.22241e-22)
(0.594284 0.0352584 0)
(0.56175 0.000528198 0)
(0.549938 -0.0405215 -5.60608e-20)
(0.526301 -0.0605695 5.27878e-20)
(0.512136 -0.0681715 0)
(0.549717 -0.0629395 2.24517e-22)
(0.558854 0.0141172 -3.05579e-22)
(0.648005 0.053599 0)
(0.91068 -0.0864701 1.83642e-20)
(1.06334 -0.23336 -1.65252e-20)
(1.0497 -0.286921 0)
(0.979666 -0.264246 -1.54679e-22)
(0.934915 -0.243814 0)
(0.912975 -0.208698 5.35207e-24)
(0.910704 -0.184266 2.07931e-23)
(0.914593 -0.145509 2.66522e-22)
(0.924866 -0.124462 -4.18354e-22)
(0.93669 -0.0945754 2.07073e-22)
(0.948439 -0.0844753 0)
(0.962075 -0.0622706 -4.99495e-23)
(0.972711 -0.0604339 5.1327e-23)
(0.982363 -0.0416487 4.5817e-23)
(0.985316 -0.0422553 -1.05662e-23)
(0.988761 -0.0197981 0)
(1.02959 0.105433 8.21501e-20)
(1.01545 0.0782409 -7.60657e-20)
(0.984614 0.0485693 0)
(0.971543 0.00235446 -5.10297e-22)
(0.953151 -0.0338423 -4.23593e-22)
(0.927486 -0.0572871 -4.03727e-20)
(0.945627 -0.0816698 3.70724e-20)
(0.921988 -0.0486298 -2.23084e-20)
(0.974881 -0.0295396 4.16139e-20)
(1.12742 -0.124804 -1.91108e-20)
(1.15749 -0.21696 -1.4314e-20)
(1.08528 -0.258422 1.32076e-20)
(1.01394 -0.255859 4.81362e-21)
(0.971344 -0.250347 -6.35016e-21)
(0.945173 -0.221278 1.90376e-21)
(0.931983 -0.197225 1.36404e-24)
(0.931109 -0.157316 2.75864e-22)
(0.938903 -0.134032 -9.85526e-23)
(0.951416 -0.10156 -1.61776e-22)
(0.962368 -0.0894288 1.18717e-22)
(0.97364 -0.0657526 -1.21444e-22)
(0.98081 -0.0627754 -2.9231e-23)
(0.987605 -0.0430488 1.94163e-23)
(0.989168 -0.0428904 1.04629e-23)
(0.991758 -0.0201801 0)
(1.28294 0.154849 0)
(1.281 0.117952 0)
(1.2544 0.0870968 0)
(1.23515 0.0431576 0)
(1.20599 0.0103467 0)
(1.17317 -0.0185534 0)
(1.15559 -0.0397381 0)
(1.12339 -0.038156 0)
(1.14687 -0.0432124 0)
(1.18742 -0.110895 0)
(1.15602 -0.162706 0)
(1.09273 -0.197543 0)
(1.03871 -0.207771 0)
(0.995762 -0.215061 0)
(0.962805 -0.198831 0)
(0.940848 -0.185271 0)
(0.933915 -0.15417 0)
(0.93709 -0.135648 0)
(0.949118 -0.105496 0)
(0.960767 -0.0931655 0)
(0.973969 -0.0688334 0)
(0.981937 -0.0647383 0)
(0.989329 -0.0443438 0)
(0.991115 -0.0434938 0)
(0.993878 -0.0205835 0)
(1.24679 0.150956 0)
(1.26387 0.116295 0)
(1.25882 0.0854575 0)
(1.24714 0.0490353 0)
(1.226 0.0148615 0)
(1.20469 -0.0142219 0)
(1.18464 -0.0365116 0)
(1.16382 -0.0494089 0)
(1.16587 -0.0622184 0)
(1.16639 -0.111164 0)
(1.1343 -0.159124 0)
(1.08794 -0.200582 0)
(1.03989 -0.213376 0)
(0.996125 -0.219841 0)
(0.962766 -0.202107 0)
(0.943715 -0.18817 0)
(0.938245 -0.157598 0)
(0.941137 -0.139242 0)
(0.951165 -0.10895 0)
(0.961337 -0.0961565 0)
(0.974002 -0.0712007 0)
(0.982085 -0.0663531 0)
(0.989975 -0.0452154 0)
(0.992233 -0.0438288 0)
(0.995516 -0.0208207 0)
(1.20816 0.14033 0)
(1.2261 0.112856 0)
(1.22852 0.0868327 0)
(1.22173 0.0592037 0)
(1.20946 0.0337431 0)
(1.19465 0.00906828 0)
(1.17709 -0.0118485 0)
(1.16078 -0.0347827 0)
(1.15297 -0.0519785 0)
(1.14622 -0.0916537 0)
(1.1253 -0.128998 0)
(1.08982 -0.162875 0)
(1.04687 -0.173915 0)
(1.00923 -0.184675 0)
(0.982914 -0.176652 0)
(0.967353 -0.172885 0)
(0.960872 -0.150297 0)
(0.960265 -0.136715 0)
(0.965685 -0.109255 0)
(0.971523 -0.0976837 0)
(0.980631 -0.0730289 0)
(0.98647 -0.0677841 0)
(0.993083 -0.0461841 0)
(0.994734 -0.0444084 0)
(0.997763 -0.0211598 0)
(1.1835 0.133021 0)
(1.19916 0.111473 0)
(1.20389 0.0896903 0)
(1.1996 0.0652696 0)
(1.1911 0.0426068 0)
(1.17904 0.0164014 0)
(1.16761 -0.00515939 0)
(1.15672 -0.0308016 0)
(1.147 -0.0504924 0)
(1.1371 -0.0843715 0)
(1.11758 -0.116634 0)
(1.08629 -0.152123 0)
(1.05216 -0.168573 0)
(1.02106 -0.185784 0)
(0.997866 -0.18283 0)
(0.981235 -0.180866 0)
(0.973694 -0.158522 0)
(0.971333 -0.143797 0)
(0.976273 -0.115144 0)
(0.980858 -0.102274 0)
(0.988341 -0.0767583 0)
(0.992083 -0.0703781 0)
(0.997181 -0.0478424 0)
(0.998156 -0.0451667 0)
(1.0006 -0.0217703 0)
(1.16275 0.12293 0)
(1.17653 0.106339 0)
(1.18267 0.0889824 0)
(1.18106 0.0683621 0)
(1.17587 0.0492625 0)
(1.16845 0.0263342 0)
(1.16036 0.00762839 0)
(1.15089 -0.0179945 0)
(1.14087 -0.0388245 0)
(1.12912 -0.069949 0)
(1.11216 -0.0970843 0)
(1.08774 -0.128719 0)
(1.06113 -0.144054 0)
(1.03425 -0.160764 0)
(1.01211 -0.159389 0)
(0.994086 -0.160659 0)
(0.984521 -0.143704 0)
(0.979102 -0.134549 0)
(0.981683 -0.110408 0)
(0.984659 -0.0997581 0)
(0.991727 -0.0753335 0)
(0.995224 -0.0693831 0)
(1.0003 -0.0472849 0)
(1.00103 -0.044722 0)
(1.0035 -0.0215324 0)
(1.14567 0.111012 0)
(1.15764 0.098291 0)
(1.16431 0.085181 0)
(1.16506 0.0680766 0)
(1.16244 0.0525367 0)
(1.15783 0.0320696 0)
(1.152 0.0145814 0)
(1.14415 -0.0103664 0)
(1.13539 -0.0297228 0)
(1.12383 -0.058152 0)
(1.10932 -0.0816351 0)
(1.08939 -0.111765 0)
(1.06692 -0.129258 0)
(1.04244 -0.15099 0)
(1.02249 -0.155297 0)
(1.00642 -0.162683 0)
(0.998497 -0.150277 0)
(0.992984 -0.142303 0)
(0.994186 -0.118072 0)
(0.99474 -0.106746 0)
(0.999526 -0.0815478 0)
(1.00141 -0.074006 0)
(1.00537 -0.0506371 0)
(1.00604 -0.0468313 0)
(1.0075 -0.0231572 0)
(1.13268 0.102088 0)
(1.14269 0.0923374 0)
(1.1491 0.0829573 0)
(1.15092 0.068959 0)
(1.15023 0.0567402 0)
(1.14694 0.0390327 0)
(1.14261 0.0240253 0)
(1.13647 0.00174629 0)
(1.1295 -0.0162065 0)
(1.1194 -0.0427723 0)
(1.10772 -0.064137 0)
(1.09092 -0.093953 0)
(1.07297 -0.111785 0)
(1.05318 -0.133883 0)
(1.03758 -0.139561 0)
(1.02273 -0.147928 0)
(1.01417 -0.137912 0)
(1.0062 -0.132865 0)
(1.00571 -0.111924 0)
(1.00457 -0.102138 0)
(1.00801 -0.0781356 0)
(1.00796 -0.0707958 0)
(1.01062 -0.0480077 0)
(1.00979 -0.0442223 0)
(1.01119 -0.0213496 0)
(1.12483 0.0886982 0)
(1.13298 0.081177 0)
(1.13883 0.0744459 0)
(1.14125 0.063129 0)
(1.14167 0.0536486 0)
(1.13986 0.0383775 0)
(1.13763 0.0262775 0)
(1.13257 0.0061774 0)
(1.12685 -0.00933757 0)
(1.11794 -0.0337171 0)
(1.1085 -0.0528915 0)
(1.09455 -0.0808719 0)
(1.08091 -0.0977822 0)
(1.06412 -0.120944 0)
(1.04976 -0.129609 0)
(1.03465 -0.142302 0)
(1.0269 -0.137135 0)
(1.01882 -0.13494 0)
(1.01739 -0.115857 0)
(1.0144 -0.106679 0)
(1.01619 -0.0832325 0)
(1.01538 -0.0757359 0)
(1.01709 -0.0529247 0)
(1.0168 -0.0484203 0)
(1.01645 -0.0249325 0)
(1.11955 0.08414 0)
(1.12601 0.0785165 0)
(1.13099 0.0743611 0)
(1.13309 0.0655256 0)
(1.13396 0.0589267 0)
(1.13252 0.0464098 0)
(1.13107 0.0371045 0)
(1.12712 0.0193662 0)
(1.12384 0.00644231 0)
(1.11691 -0.0161193 0)
(1.11005 -0.0335814 0)
(1.09871 -0.0608756 0)
(1.08825 -0.0783116 0)
(1.0736 -0.103221 0)
(1.0627 -0.114855 0)
(1.04926 -0.129254 0)
(1.04254 -0.126526 0)
(1.03345 -0.126104 0)
(1.03143 -0.109398 0)
(1.02701 -0.100818 0)
(1.02746 -0.0778529 0)
(1.02423 -0.0693913 0)
(1.0245 -0.0467244 0)
(1.02186 -0.041812 0)
(1.0214 -0.019884 0)
(1.1204 0.0663739 0)
(1.12573 0.0621146 0)
(1.13042 0.0597576 0)
(1.13279 0.0527323 0)
(1.1346 0.0484221 0)
(1.13405 0.0379719 0)
(1.13405 0.0312897 0)
(1.13111 0.0160362 0)
(1.12879 0.00560138 0)
(1.12245 -0.0149656 0)
(1.11721 -0.0302725 0)
(1.10734 -0.0559942 0)
(1.09916 -0.0726793 0)
(1.08639 -0.0971259 0)
(1.07724 -0.109641 0)
(1.06408 -0.125574 0)
(1.0577 -0.125713 0)
(1.0482 -0.127137 0)
(1.04528 -0.112609 0)
(1.03943 -0.105104 0)
(1.03823 -0.0837258 0)
(1.03422 -0.0758086 0)
(1.03282 -0.0542264 0)
(1.0309 -0.049027 0)
(1.02772 -0.0266515 0)
(1.12389 0.0687464 0)
(1.12795 0.0658382 0)
(1.13204 0.0653599 0)
(1.13387 0.0601683 0)
(1.13596 0.0582179 0)
(1.13538 0.0498924 0)
(1.13627 0.0458788 0)
(1.1336 0.0329379 0)
(1.13318 0.0251114 0)
(1.12828 0.00722506 0)
(1.12584 -0.00581393 0)
(1.11712 -0.0297037 0)
(1.11178 -0.0461063 0)
(1.09979 -0.070462 0)
(1.09319 -0.0854211 0)
(1.08039 -0.103233 0)
(1.07532 -0.10697 0)
(1.0651 -0.110283 0)
(1.06196 -0.0981951 0)
(1.0548 -0.0912201 0)
(1.05247 -0.0708227 0)
(1.04565 -0.0620494 0)
(1.04279 -0.041153 0)
(1.03785 -0.0356081 0)
(1.03437 -0.0159305 0)
(1.13431 0.0418854 0)
(1.13793 0.0398388 0)
(1.14213 0.0408608 0)
(1.14439 0.0369521 0)
(1.14747 0.0370661 0)
(1.14787 0.030363 0)
(1.15008 0.0288725 0)
(1.14868 0.0180351 0)
(1.14966 0.0129218 0)
(1.14554 -0.00296899 0)
(1.1438 -0.013757 0)
(1.13577 -0.0360318 0)
(1.13148 -0.0517069 0)
(1.11981 -0.0752782 0)
(1.11346 -0.0909291 0)
(1.10007 -0.10902 0)
(1.09427 -0.114634 0)
(1.08308 -0.118078 0)
(1.07872 -0.107477 0)
(1.07001 -0.100047 0)
(1.06554 -0.0806833 0)
(1.05782 -0.071465 0)
(1.0524 -0.052248 0)
(1.04806 -0.0464086 0)
(1.04112 -0.0270575 0)
(1.16156 0.0513269 0)
(1.16406 0.0500147 0)
(1.16852 0.0519994 0)
(1.1701 0.0493464 0)
(1.17429 0.0509556 0)
(1.17426 0.0462244 0)
(1.17816 0.046739 0)
(1.17634 0.039184 0)
(1.17937 0.0365067 0)
(1.17509 0.0250759 0)
(1.17638 0.0180098 0)
(1.16818 0.000865376 0)
(1.16585 -0.012068 0)
(1.1528 -0.0323215 0)
(1.14721 -0.0486405 0)
(1.13169 -0.0675695 0)
(1.12535 -0.0776593 0)
(1.11167 -0.0843342 0)
(1.10515 -0.0769042 0)
(1.09306 -0.0705921 0)
(1.08614 -0.0537162 0)
(1.07414 -0.0449479 0)
(1.06603 -0.0281227 0)
(1.05777 -0.0225266 0)
(1.04939 -0.00759082 0)
(1.18102 0.00955003 0)
(1.18341 0.0090051 0)
(1.1881 0.0122109 0)
(1.19018 0.0106916 0)
(1.19535 0.0141219 0)
(1.1968 0.0110666 0)
(1.20219 0.0139513 0)
(1.20248 0.00893343 0)
(1.20745 0.00929145 0)
(1.20571 0.00143013 0)
(1.20893 -0.00286717 0)
(1.20284 -0.0156121 0)
(1.20196 -0.0276033 0)
(1.18979 -0.0450838 0)
(1.18281 -0.0624522 0)
(1.16426 -0.0804977 0)
(1.15409 -0.0927547 0)
(1.13581 -0.0973138 0)
(1.12539 -0.0904055 0)
(1.11008 -0.0820133 0)
(1.09965 -0.0652778 0)
(1.0855 -0.0546213 0)
(1.07375 -0.0407531 0)
(1.06566 -0.0351043 0)
(1.05472 -0.0230932 0)
(1.29102 0.023825 0)
(1.29081 0.0231801 0)
(1.29677 0.0249615 0)
(1.29678 0.0240869 0)
(1.30373 0.0264635 0)
(1.30427 0.0253583 0)
(1.31193 0.0280917 0)
(1.31323 0.0269702 0)
(1.32102 0.0289694 0)
(1.32218 0.027953 0)
(1.32961 0.0281759 0)
(1.32879 0.0259012 0)
(1.33278 0.023274 0)
(1.32516 0.0190757 0)
(1.32095 0.0118262 0)
(1.30039 -0.0021688 0)
(1.27964 -0.0181471 0)
(1.24129 -0.0285107 0)
(1.20882 -0.0294604 0)
(1.16879 -0.0259293 0)
(1.13963 -0.0148585 0)
(1.11269 -0.00751051 0)
(1.09264 -0.000364849 0)
(1.07832 0.0020428 0)
(1.06273 0.00730474 0)
(1.09816 0.216055 3.17047e-22)
(1.18356 0.231296 3.14718e-20)
(1.15674 0.200415 -7.8313e-20)
(1.19653 0.21005 -3.65368e-22)
(1.27667 0.192475 0)
(1.11809 0.203553 2.63814e-21)
(1.14335 0.209564 -1.31017e-20)
(1.17596 0.192403 3.26946e-20)
(1.1617 0.182785 3.42307e-20)
(1.21723 0.179384 -4.38359e-20)
(1.12845 0.180386 0)
(1.1229 0.176183 3.05399e-22)
(1.16124 0.173284 2.04238e-20)
(1.15683 0.15865 -3.03754e-20)
(1.18009 0.160088 6.60386e-21)
(1.11802 0.16504 9.67591e-23)
(1.1194 0.156764 6.38102e-21)
(1.13874 0.158583 -1.79862e-20)
(1.15061 0.146386 1.83035e-20)
(1.16196 0.147616 2.73748e-20)
(1.10857 0.146389 0)
(1.11701 0.137695 -5.45707e-21)
(1.12415 0.141372 3.95665e-22)
(1.13777 0.131623 -2.94245e-20)
(1.14563 0.133974 0)
(1.10382 0.129479 -8.26762e-22)
(1.11259 0.121853 3.46262e-22)
(1.11563 0.124926 3.25979e-23)
(1.12632 0.117063 1.14191e-20)
(1.13177 0.11894 -3.67708e-22)
(1.10136 0.113803 1.1344e-21)
(1.10867 0.108041 0)
(1.11016 0.11106 2.63185e-21)
(1.11854 0.105577 0)
(1.12182 0.107447 -7.70499e-21)
(1.10084 0.0969374 -7.73445e-22)
(1.10703 0.093228 1.51147e-21)
(1.10786 0.0949909 -2.29352e-21)
(1.11466 0.0915221 0)
(1.11634 0.0922792 6.6404e-21)
(1.10158 0.0867533 2.91656e-22)
(1.10662 0.0848505 -1.46733e-21)
(1.1067 0.0865184 -9.49049e-22)
(1.11212 0.0849196 2.03557e-22)
(1.11283 0.0860466 -3.4498e-21)
(1.10587 0.0665049 0)
(1.11041 0.0659148 0)
(1.11025 0.0669581 1.57534e-21)
(1.11498 0.0665978 0)
(1.11491 0.0671086 4.67126e-21)
(1.11259 0.0648288 0)
(1.11653 0.0653317 -8.12424e-23)
(1.11612 0.0664464 -7.67239e-23)
(1.11997 0.0672632 2.65763e-22)
(1.11943 0.0681504 -1.62379e-21)
(1.12354 0.0350766 0)
(1.12747 0.036353 -2.90625e-23)
(1.12692 0.0375118 -1.44969e-22)
(1.13104 0.0392083 -3.02062e-22)
(1.13015 0.0402509 1.18498e-22)
(1.15187 0.0445182 -3.49098e-23)
(1.15578 0.0460485 7.37709e-23)
(1.15514 0.0465942 6.26567e-23)
(1.15893 0.0486699 4.94235e-24)
(1.15771 0.0491752 -1.60644e-22)
(1.16987 -0.000303726 4.76526e-23)
(1.17383 0.00161574 -6.08814e-24)
(1.17344 0.00267747 -1.34471e-22)
(1.17755 0.00533142 5.94741e-23)
(1.17686 0.00659861 -3.11037e-23)
(1.28212 0.022549 0)
(1.28669 0.0232299 0)
(1.28419 0.0223365 -3.82439e-23)
(1.28875 0.0233745 0)
(1.28607 0.0225043 0)
(0.958335 0.259084 1.47747e-20)
(0.940608 0.276834 -1.75862e-20)
(0.911179 0.301646 1.0638e-20)
(0.898084 0.338808 -2.15082e-20)
(0.896749 0.386298 1.57419e-20)
(0.891138 0.436616 0)
(0.875177 0.498453 0)
(0.868759 0.578457 -1.45161e-20)
(0.84922 0.655634 -3.60059e-21)
(0.591115 0.551939 0)
(0.968505 0.258786 3.17357e-22)
(0.982744 0.288896 0)
(0.982046 0.317946 -1.95099e-21)
(0.971737 0.350217 -6.58739e-21)
(0.963454 0.389801 -1.08118e-20)
(0.965388 0.438563 6.42042e-22)
(0.972957 0.497538 -8.75702e-21)
(0.985225 0.57154 2.54087e-20)
(0.967676 0.618465 2.11833e-20)
(0.650438 0.474048 -5.47075e-20)
(1.02737 0.263813 -9.93795e-21)
(1.01436 0.286201 6.38074e-21)
(1.01285 0.312444 -5.65946e-21)
(1.01967 0.347012 -1.26673e-20)
(1.03355 0.387848 3.30213e-20)
(1.04494 0.428333 -1.60061e-20)
(1.05394 0.47382 3.62899e-20)
(1.06952 0.532165 -7.40496e-20)
(1.03459 0.547656 -1.20023e-20)
(0.639934 0.36371 5.91689e-20)
(1.05342 0.264287 -9.40402e-22)
(1.07702 0.286906 -2.20256e-21)
(1.08141 0.312373 1.62972e-20)
(1.07849 0.337614 -1.40392e-20)
(1.07938 0.366228 1.68197e-20)
(1.0954 0.402666 -7.7065e-21)
(1.12169 0.442144 0)
(1.13384 0.480634 3.65369e-20)
(1.04081 0.456543 -4.44141e-20)
(0.547691 0.24205 -1.76775e-20)
(1.10456 0.261108 6.31998e-21)
(1.09263 0.272018 5.0834e-21)
(1.09577 0.294165 -6.06093e-21)
(1.11038 0.321397 0)
(1.13531 0.35257 0)
(1.15526 0.377169 7.72232e-21)
(1.16212 0.399202 0)
(1.13474 0.409829 0)
(0.955071 0.350963 0)
(0.356794 0.115422 -1.76272e-20)
(0.788926 0.0746152 -1.31382e-22)
(0.75972 0.0796606 9.58904e-21)
(0.723374 0.0860722 -1.14346e-20)
(0.680904 0.0936344 0)
(0.626891 0.102669 0)
(0.564403 0.113678 -1.39459e-20)
(0.482539 0.127711 0)
(0.388411 0.145202 0)
(0.251341 0.170736 0)
(0.0921299 0.152856 2.03585e-20)
(0.80339 0.117725 1.90093e-20)
(0.77675 0.128647 -3.5551e-20)
(0.742616 0.143239 4.23932e-20)
(0.702929 0.161137 -3.14967e-20)
(0.653645 0.182997 3.77381e-20)
(0.597252 0.209576 1.39098e-20)
(0.523935 0.244007 0)
(0.439849 0.285986 4.77371e-20)
(0.314547 0.34653 -5.80055e-20)
(0.146214 0.317131 -5.74883e-20)
(0.828014 0.16471 -2.14729e-20)
(0.806925 0.180095 3.07005e-20)
(0.776029 0.199925 -5.37298e-20)
(0.73794 0.224616 -7.59379e-20)
(0.69403 0.256293 9.90991e-20)
(0.647323 0.294814 -4.2181e-20)
(0.586367 0.345238 5.87407e-20)
(0.521878 0.407277 -1.07662e-19)
(0.419712 0.49595 8.90976e-22)
(0.238126 0.455278 5.29732e-20)
(0.858564 0.198299 2.78652e-20)
(0.845193 0.220743 -4.53647e-20)
(0.825563 0.248403 1.71329e-20)
(0.79555 0.278402 6.06484e-21)
(0.755228 0.315367 -7.34775e-20)
(0.718352 0.362087 3.02499e-20)
(0.673259 0.422804 -3.1436e-22)
(0.627843 0.49627 4.84155e-20)
(0.555044 0.598524 -1.62251e-20)
(0.357685 0.547228 -2.32968e-20)
(0.898554 0.227007 -2.67082e-20)
(0.8775 0.246154 3.17868e-20)
(0.860876 0.279736 -2.15714e-20)
(0.852091 0.319196 6.91988e-20)
(0.829763 0.36062 -1.12899e-20)
(0.800273 0.409097 0)
(0.770432 0.475448 1.91256e-20)
(0.749401 0.556519 -2.31418e-20)
(0.706143 0.653053 1.6262e-20)
(0.484368 0.581116 0)
(0.978715 0.160574 2.47067e-22)
(0.985575 0.138918 1.46706e-22)
(0.975354 0.115353 8.73025e-23)
(0.970519 0.12134 -9.8887e-23)
(0.975414 0.106362 1.22642e-22)
(0.971697 0.104179 0)
(0.971925 0.0870389 0)
(0.962508 0.0790227 -1.4552e-22)
(0.952415 0.067917 8.30647e-22)
(0.935367 0.0619281 -2.06867e-21)
(0.917098 0.0595827 -2.28393e-22)
(0.895108 0.0577485 3.73557e-21)
(0.872127 0.0613731 -2.14842e-21)
(0.845541 0.0634056 2.00647e-22)
(0.818138 0.0706091 -4.72708e-21)
(0.981437 0.161969 -4.9152e-22)
(0.983282 0.136905 -1.64495e-22)
(0.975672 0.120373 7.33615e-22)
(0.966506 0.117663 -1.84746e-22)
(0.973453 0.11044 4.57764e-22)
(0.970289 0.10005 -4.74883e-22)
(0.971802 0.0932906 -2.24106e-22)
(0.964355 0.0791303 1.47686e-22)
(0.954442 0.078886 -1.96051e-22)
(0.939689 0.0683808 -4.80833e-21)
(0.922009 0.0757594 5.18846e-21)
(0.90142 0.0717622 7.80081e-21)
(0.879894 0.0854759 -1.99053e-20)
(0.854642 0.0888199 -1.91435e-21)
(0.829572 0.109539 -1.60823e-21)
(0.983511 0.162901 2.59319e-22)
(0.982611 0.135869 0)
(0.975474 0.124133 -3.53909e-22)
(0.966423 0.115487 -2.54444e-22)
(0.971018 0.111874 0)
(0.970681 0.0970429 -1.91712e-22)
(0.969801 0.0962858 2.30595e-22)
(0.965488 0.0803548 0)
(0.9541 0.0881862 -7.37298e-21)
(0.941729 0.0770751 8.74286e-21)
(0.92413 0.0934332 0)
(0.90641 0.090315 2.40904e-22)
(0.887226 0.114522 0)
(0.866704 0.11971 -2.67199e-20)
(0.846499 0.153021 6.3612e-20)
(0.984988 0.163835 0)
(0.98175 0.134349 4.47907e-23)
(0.978002 0.128289 4.40136e-22)
(0.965368 0.11233 0)
(0.973019 0.114752 1.35515e-21)
(0.968429 0.0923319 -1.34477e-21)
(0.971828 0.100163 0)
(0.96499 0.0776066 -3.40159e-22)
(0.956543 0.0951597 6.50485e-22)
(0.945622 0.0782879 9.45156e-21)
(0.929547 0.103884 -1.11816e-20)
(0.916411 0.0985366 -1.61289e-20)
(0.898836 0.132956 -1.83535e-21)
(0.884255 0.139088 2.33255e-20)
(0.87027 0.184868 2.00207e-22)
(0.985445 0.164529 0)
(0.982398 0.133065 -4.2944e-22)
(0.977995 0.130902 0)
(0.969956 0.110104 0)
(0.970804 0.114885 0)
(0.974472 0.0903452 -2.26344e-22)
(0.966276 0.101793 0)
(0.971479 0.0814676 3.64689e-22)
(0.950852 0.101633 7.96233e-21)
(0.951015 0.0916122 -9.47088e-21)
(0.930335 0.120314 -1.33771e-20)
(0.924365 0.120143 1.54223e-20)
(0.912223 0.160963 1.9659e-20)
(0.903805 0.166173 -4.49977e-20)
(0.904465 0.223499 2.54952e-20)
(0.984628 0.164748 0)
(0.985875 0.132883 0)
(0.975479 0.132992 0)
(0.976883 0.109022 0)
(0.967818 0.115263 0)
(0.979778 0.0865876 0)
(0.964528 0.101695 0)
(0.974691 0.0777351 0)
(0.954591 0.102847 0)
(0.957573 0.0881161 0)
(0.939885 0.125726 0)
(0.940744 0.116817 0)
(0.928765 0.168531 0)
(0.93754 0.164635 0)
(0.934988 0.226951 0)
(0.983561 0.164908 0)
(0.988467 0.132673 0)
(0.977656 0.135602 0)
(0.976366 0.107581 0)
(0.973526 0.117166 0)
(0.975103 0.0845056 0)
(0.975154 0.105167 0)
(0.968233 0.077627 0)
(0.969506 0.109247 0)
(0.955829 0.0907902 0)
(0.958869 0.130821 0)
(0.947921 0.121577 0)
(0.955609 0.16553 0)
(0.952704 0.165258 0)
(0.968335 0.204797 0)
(0.982394 0.165318 0)
(0.987954 0.131215 0)
(0.985559 0.139599 0)
(0.973921 0.105526 0)
(0.981589 0.119811 0)
(0.973024 0.0820562 0)
(0.984491 0.10828 0)
(0.969938 0.0784675 0)
(0.979781 0.112749 0)
(0.963571 0.0948503 0)
(0.97296 0.131473 0)
(0.963497 0.124148 0)
(0.975714 0.159163 0)
(0.97448 0.15878 0)
(0.989292 0.187648 0)
(0.980452 0.165907 0)
(0.986658 0.128736 0)
(0.989144 0.143085 0)
(0.980514 0.1051 0)
(0.984938 0.120695 0)
(0.981944 0.081648 0)
(0.9852 0.10816 0)
(0.981865 0.0808727 0)
(0.982165 0.112903 0)
(0.980036 0.0979377 0)
(0.981591 0.128969 0)
(0.985017 0.1226 0)
(0.989556 0.150492 0)
(0.999223 0.148566 0)
(1.00497 0.17188 0)
(0.978741 0.166952 0)
(0.986396 0.126037 0)
(0.98627 0.144077 0)
(0.991266 0.105365 0)
(0.987007 0.120238 0)
(0.993294 0.0830934 0)
(0.985501 0.106601 0)
(0.992845 0.0835394 0)
(0.986147 0.111181 0)
(0.994554 0.0986925 0)
(0.992496 0.124117 0)
(1.00338 0.118261 0)
(1.00452 0.139942 0)
(1.01802 0.136716 0)
(1.021 0.155088 0)
(0.978448 0.16754 0)
(0.987082 0.125095 0)
(0.983297 0.141715 0)
(0.998213 0.105857 0)
(0.990309 0.117837 0)
(1.00147 0.0858496 0)
(0.990647 0.104174 0)
(1.00148 0.0856713 0)
(0.99467 0.107355 0)
(1.00678 0.0971575 0)
(1.00517 0.116754 0)
(1.01801 0.111688 0)
(1.01909 0.128133 0)
(1.03219 0.124431 0)
(1.0352 0.138402 0)
(0.979141 0.167858 0)
(0.989058 0.125008 0)
(0.983721 0.137786 0)
(1.00197 0.105319 0)
(0.994152 0.114652 0)
(1.00737 0.0880218 0)
(0.998403 0.101508 0)
(1.01004 0.0861311 0)
(1.00543 0.102301 0)
(1.01827 0.0933528 0)
(1.01786 0.107959 0)
(1.03057 0.103286 0)
(1.03223 0.115866 0)
(1.04421 0.112224 0)
(1.04711 0.122757 0)
(0.979826 0.166636 0)
(0.991814 0.126238 0)
(0.986792 0.132389 0)
(1.00511 0.105266 0)
(0.999058 0.109405 0)
(1.01327 0.0888323 0)
(1.00796 0.0959347 0)
(1.01979 0.0841412 0)
(1.01716 0.0937719 0)
(1.02965 0.0866923 0)
(1.03045 0.0958504 0)
(1.04227 0.0922097 0)
(1.04407 0.100513 0)
(1.05483 0.0977626 0)
(1.05759 0.104619 0)
(0.98031 0.164799 0)
(0.994838 0.125924 0)
(0.991632 0.126742 0)
(1.00908 0.10429 0)
(1.00484 0.105637 0)
(1.01949 0.0894136 0)
(1.01722 0.0931561 0)
(1.02929 0.0829968 0)
(1.02796 0.0890287 0)
(1.03986 0.0824706 0)
(1.04157 0.0886153 0)
(1.05272 0.0848794 0)
(1.0544 0.090938 0)
(1.0639 0.0882862 0)
(1.06594 0.0935137 0)
(0.980481 0.161644 0)
(0.99827 0.124927 0)
(0.997982 0.117389 0)
(1.0163 0.0981575 0)
(1.01383 0.0940292 0)
(1.02963 0.0802662 0)
(1.02943 0.0793485 0)
(1.04196 0.0704006 0)
(1.04108 0.072217 0)
(1.05227 0.0666841 0)
(1.05414 0.0693831 0)
(1.06481 0.0662862 0)
(1.06627 0.0695333 0)
(1.07496 0.0676276 0)
(1.07643 0.070647 0)
(0.981028 0.156958 0)
(1.00062 0.124717 0)
(1.00424 0.114956 0)
(1.02248 0.100088 0)
(1.02234 0.0951521 0)
(1.03837 0.0838955 0)
(1.0406 0.0815455 0)
(1.05317 0.0734181 0)
(1.05347 0.0734054 0)
(1.06383 0.0682433 0)
(1.06619 0.0693689 0)
(1.07616 0.066268 0)
(1.07779 0.0681717 0)
(1.08542 0.0663043 0)
(1.08656 0.0683168 0)
(0.981568 0.146895 0)
(1.00879 0.10882 0)
(1.01666 0.0919413 0)
(1.03772 0.0761624 0)
(1.03812 0.0684574 0)
(1.0555 0.0573541 0)
(1.05779 0.0529447 0)
(1.07103 0.0447921 0)
(1.07072 0.0430568 0)
(1.08076 0.0381742 0)
(1.08198 0.0379974 0)
(1.09163 0.0352308 0)
(1.09244 0.0360899 0)
(1.09974 0.0346509 0)
(1.09983 0.0359137 0)
(0.982221 0.144282 0)
(1.01971 0.114951 0)
(1.0355 0.0991218 0)
(1.05935 0.0873187 0)
(1.06414 0.0789178 0)
(1.08205 0.0704867 0)
(1.08696 0.0652929 0)
(1.10049 0.0586745 0)
(1.10192 0.0555446 0)
(1.11136 0.0515761 0)
(1.11304 0.0500362 0)
(1.12188 0.0477101 0)
(1.12308 0.0471148 0)
(1.12963 0.0459557 0)
(1.12989 0.0459351 0)
(0.984194 0.0956155 0)
(1.03559 0.0600767 0)
(1.0559 0.0427928 0)
(1.08095 0.0299626 0)
(1.08777 0.0237302 0)
(1.10641 0.0160875 0)
(1.11146 0.0133307 0)
(1.12493 0.00764049 0)
(1.1265 0.00611439 0)
(1.13551 0.00262578 0)
(1.13625 0.00213199 0)
(1.14408 -6.37004e-05 0)
(1.14447 2.70611e-05 0)
(1.15034 -0.00111467 0)
(1.14986 -0.000633006 0)
(0.9853 0.105247 0)
(1.12902 0.0793822 0)
(1.16019 0.0608676 0)
(1.19016 0.0518973 0)
(1.20393 0.0447141 0)
(1.22544 0.0410909 0)
(1.23304 0.037406 0)
(1.24808 0.0353731 0)
(1.25015 0.0327245 0)
(1.2597 0.0315238 0)
(1.25916 0.0295146 0)
(1.26645 0.0285211 0)
(1.26541 0.0267704 0)
(1.27099 0.0263698 0)
(1.26936 0.0249928 0)
(0.960282 0.227326 0)
(0.980522 0.217487 -8.58594e-24)
(1.05033 0.22735 1.14344e-20)
(1.04699 0.221632 -6.49471e-21)
(1.12533 0.234818 -1.91164e-22)
(0.971816 0.207696 -6.2825e-21)
(1.01674 0.207733 -1.79705e-22)
(1.04979 0.2175 -5.36291e-21)
(1.07218 0.210087 5.59594e-21)
(1.10855 0.221242 -2.03554e-21)
(0.994109 0.188188 2.2045e-21)
(1.03605 0.189412 1.20929e-22)
(1.04972 0.188768 -5.63422e-21)
(1.09189 0.184801 -4.76742e-21)
(1.09492 0.186291 0)
(1.0183 0.169715 2.78702e-21)
(1.04341 0.172444 -1.75424e-21)
(1.06109 0.169506 4.74262e-21)
(1.09157 0.169731 -3.67142e-21)
(1.09543 0.165251 6.77764e-23)
(1.03548 0.151597 0)
(1.05067 0.154045 3.42732e-21)
(1.07114 0.149888 8.92371e-23)
(1.08802 0.150962 3.22889e-21)
(1.09923 0.143989 0)
(1.04885 0.134496 -3.90621e-23)
(1.061 0.136432 -1.78555e-21)
(1.07811 0.132263 -4.62927e-23)
(1.08795 0.133711 2.02713e-22)
(1.09969 0.126977 5.50948e-22)
(1.05929 0.119033 6.89175e-22)
(1.06929 0.119692 0)
(1.08233 0.115768 -1.19549e-21)
(1.0889 0.116873 1.49713e-21)
(1.09875 0.111481 -9.91241e-22)
(1.06884 0.101784 -5.93795e-22)
(1.07736 0.101452 1.13555e-21)
(1.08724 0.0986067 1.04179e-21)
(1.09156 0.0990272 -2.30075e-21)
(1.09911 0.0955625 6.76965e-22)
(1.07574 0.090846 -3.18177e-23)