/*--------------------------------*- C++ -*----------------------------------*\
| =========                 |                                                 |
| \\      /  F ield         | OpenFOAM: The Open Source CFD Toolbox           |
|  \\    /   O peration     | Version:  2312                                  |
|   \\  /    A nd           | Website:  www.openfoam.com                      |
|    \\/     M anipulation  |                                                 |
\*---------------------------------------------------------------------------*/
FoamFile
{
    version     2.0;
    format      ascii;
    arch        "LSB;label=32;scalar=64";
    class       volVectorField;
    location    "34.8";
    object      U;
}
// * * * * * * * * * * * * * * * * * * * * * * * * * * * * * * * * * * * * * //

dimensions      [0 1 -1 0 0 0 0];

internalField   nonuniform List<vector> 
5478
(
(-0.0247068 0.0130834 -5.18619e-20)
(-0.0536875 0.0233464 0)
(-0.0604738 0.0251079 7.83015e-20)
(-0.0333982 0.0264972 -1.36199e-19)
(0.0361137 0.0303725 8.72804e-20)
(0.151474 0.0389968 -2.69894e-20)
(0.305462 0.0542412 -4.3281e-20)
(0.482076 0.0758297 0)
(0.66499 0.101986 0)
(0.834807 0.129221 5.43098e-20)
(0.985363 0.151768 -2.39599e-20)
(1.10483 0.173855 -4.298e-20)
(1.18782 0.174637 -1.87832e-20)
(1.24479 0.186384 0)
(1.26378 0.154607 6.26101e-20)
(-0.034435 0.0189328 1.04017e-19)
(-0.055855 0.0288191 0)
(-0.0328453 0.0279018 0)
(0.0460422 0.0288048 -6.81884e-20)
(0.186457 0.0382211 8.95571e-20)
(0.375621 0.0587513 2.50703e-20)
(0.584878 0.088335 -4.22424e-20)
(0.785609 0.121823 3.74517e-20)
(0.955449 0.153916 9.32125e-20)
(1.08458 0.178187 -8.18665e-20)
(1.16945 0.195069 6.77482e-22)
(1.21181 0.197092 0)
(1.22636 0.19369 1.87484e-20)
(1.21739 0.179441 0)
(1.20205 0.161867 0)
(-0.0394924 0.0198594 -2.53426e-22)
(-0.0415294 0.0276897 -4.86922e-20)
(0.0307326 0.0287176 2.48834e-22)
(0.185686 0.0391249 0)
(0.406884 0.0660177 -3.04384e-20)
(0.647922 0.104749 2.57923e-20)
(0.863829 0.145665 2.17281e-20)
(1.02777 0.180291 0)
(1.13285 0.202747 -3.12459e-20)
(1.18528 0.213254 2.678e-20)
(1.19902 0.210667 2.31013e-20)
(1.19477 0.203985 0)
(1.18503 0.189774 0)
(1.18153 0.182733 -5.76848e-20)
(1.18913 0.16633 5.1334e-20)
(-0.0379286 0.0162473 -5.69894e-20)
(-0.00343978 0.0200433 4.80525e-20)
(0.143017 0.03072 -4.14352e-20)
(0.388024 0.0644369 3.65906e-20)
(0.663498 0.115129 6.13676e-20)
(0.899073 0.165679 -5.17087e-20)
(1.06114 0.203628 -2.17099e-20)
(1.14958 0.224085 1.73602e-20)
(1.18305 0.229944 -1.64138e-20)
(1.18649 0.224831 0)
(1.18241 0.217984 0)
(1.18019 0.207373 -3.58967e-20)
(1.18265 0.201183 4.7629e-20)
(1.18537 0.190282 -2.73416e-20)
(1.18276 0.178657 0)
(-0.0272624 0.0101238 2.88892e-20)
(0.0687044 0.0122573 2.41314e-20)
(0.313091 0.0476521 -8.7285e-20)
(0.625531 0.112968 1.23866e-21)
(0.892787 0.177908 -6.06622e-22)
(1.06563 0.222895 -8.85708e-22)
(1.1509 0.244316 2.12798e-20)
(1.17952 0.248674 1.79591e-20)
(1.18308 0.243689 1.3522e-20)
(1.18128 0.23694 -1.6179e-21)
(1.17877 0.228212 -3.09615e-20)
(1.17545 0.219951 0)
(1.16909 0.209833 1.50182e-20)
(1.16084 0.197761 -1.21805e-20)
(1.15455 0.1882 2.11563e-20)
(-0.00397778 0.00382061 -6.29721e-20)
(0.183726 0.015618 6.79612e-20)
(0.522743 0.0911233 -2.35648e-20)
(0.840868 0.177732 1.77233e-20)
(1.04585 0.23702 -3.28589e-20)
(1.14445 0.264569 -2.48894e-20)
(1.1781 0.270849 7.44515e-22)
(1.1835 0.266809 0)
(1.17978 0.259507 2.70626e-20)
(1.17251 0.249919 -2.4066e-20)
(1.16428 0.240147 9.86577e-21)
(1.15665 0.228987 0)
(1.15167 0.219121 6.21815e-21)
(1.15007 0.207401 -1.15854e-20)
(1.1488 0.199885 0)
(0.0370167 0.000352859 -7.84433e-21)
(0.339284 0.043043 8.52067e-22)
(0.725091 0.15636 1.12211e-20)
(0.994245 0.243088 1.95409e-20)
(1.12761 0.285161 -1.52184e-20)
(1.17487 0.297016 2.56138e-20)
(1.1824 0.294138 -5.80923e-21)
(1.17566 0.285599 0)
(1.16534 0.274532 -1.57907e-20)
(1.15629 0.263304 9.76186e-22)
(1.14954 0.251756 1.32408e-20)
(1.14457 0.240924 0)
(1.13955 0.229788 -8.96198e-21)
(1.13311 0.21764 0)
(1.12557 0.210229 5.93022e-21)
(0.0986055 0.00585728 -8.95419e-21)
(0.510272 0.100222 0)
(0.883881 0.230489 1.23937e-20)
(1.08697 0.303088 0)
(1.16387 0.327163 0)
(1.17854 0.326599 0)
(1.17099 0.316647 -4.96967e-21)
(1.15923 0.303816 0)
(1.14897 0.290731 3.16198e-21)
(1.14016 0.277494 0)
(1.13215 0.264666 -4.11521e-21)
(1.12474 0.251684 0)
(1.11889 0.239124 2.74037e-21)
(1.11575 0.227032 0)
(1.11368 0.218576 1.8598e-21)
(-0.00244848 -0.0376229 -8.04823e-21)
(-0.017102 -0.0294017 0)
(-0.0409831 0.00276696 1.26003e-20)
(-0.0665791 0.0364259 0)
(-0.0918834 0.068491 0)
(-0.116069 0.102081 0)
(-0.138759 0.139325 -7.70534e-21)
(-0.159609 0.180671 0)
(-0.178053 0.225774 6.10015e-21)
(-0.193338 0.273821 0)
(-0.204626 0.323512 -9.79646e-21)
(-0.210756 0.373032 0)
(-0.210217 0.419897 8.09293e-21)
(-0.20117 0.461062 0)
(-0.184232 0.49364 6.99887e-21)
(3.67724e-05 -0.0261416 3.93682e-20)
(-0.0143654 -0.00803749 -2.74747e-20)
(-0.0377786 0.0289373 1.12536e-20)
(-0.0624686 0.0644267 4.2389e-20)
(-0.0860096 0.0962197 -4.18579e-23)
(-0.107193 0.128092 -3.34102e-20)
(-0.125231 0.162661 2.24659e-20)
(-0.139445 0.200427 0)
(-0.149027 0.240818 1.71268e-20)
(-0.15296 0.28275 1.07391e-22)
(-0.150049 0.324715 -8.69471e-21)
(-0.139302 0.365006 0)
(-0.119501 0.401571 -2.27948e-20)
(-0.0910274 0.432083 0)
(-0.0445136 0.451866 -3.51791e-20)
(0.00151134 -0.0173336 5.97185e-20)
(-0.0123174 0.00747778 1.30136e-20)
(-0.0333528 0.0481361 -2.37985e-20)
(-0.054303 0.0854339 -6.1314e-20)
(-0.07267 0.116568 3.56856e-20)
(-0.0870442 0.145445 3.09689e-20)
(-0.0962962 0.175402 -5.37513e-20)
(-0.0994849 0.207519 0)
(-0.0957143 0.241318 -4.21494e-20)
(-0.0839797 0.275564 3.74764e-20)
(-0.0632898 0.30891 1.59703e-20)
(-0.0320142 0.339998 0)
(0.010541 0.364686 1.46958e-20)
(0.0571665 0.385171 -2.53909e-20)
(0.13754 0.393263 0)
(0.00237759 -0.0119931 2.80966e-20)
(-0.0111309 0.0153857 -7.63853e-20)
(-0.0295093 0.0574967 8.84003e-20)
(-0.0454479 0.0959351 -7.64841e-20)
(-0.0565254 0.126364 -3.27163e-20)
(-0.0615827 0.151798 2.83345e-20)
(-0.0595113 0.176048 2.63051e-20)
(-0.049296 0.200954 2.1267e-20)
(-0.0302834 0.226512 -5.6975e-20)
(-0.00186525 0.252403 1.20969e-22)
(0.0391311 0.275222 1.43665e-20)
(0.0833434 0.298943 0)
(0.156015 0.310919 2.43006e-20)
(0.204772 0.326372 7.55782e-20)
(0.320463 0.318814 -4.47434e-20)
(0.0025683 -0.00920669 -5.23033e-22)
(-0.0116777 0.0165364 4.79909e-20)
(-0.0288378 0.0561143 -4.17918e-20)
(-0.0404824 0.0931251 3.77119e-20)
(-0.0440689 0.121919 6.39047e-20)
(-0.0389056 0.143889 -5.51283e-20)
(-0.0246215 0.16234 -2.29968e-20)
(-0.000880255 0.179497 -6.17229e-20)
(0.0341655 0.196126 5.44493e-20)
(0.0730648 0.21333 0)
(0.140877 0.225587 0)
(0.180521 0.244211 5.12024e-20)
(0.297608 0.243856 -1.18019e-19)
(0.328706 0.26092 4.29006e-20)
(0.494621 0.24007 0)
(0.00111381 -0.00690776 3.24005e-23)
(-0.015854 0.0142366 -4.77582e-20)
(-0.034143 0.0463229 1.23884e-19)
(-0.0437284 0.0771236 -3.58834e-20)
(-0.0416883 0.1009 -3.12104e-20)
(-0.0279272 0.117904 2.68131e-20)
(-0.00270567 0.130519 2.30105e-20)
(0.0336002 0.140939 3.76338e-20)
(0.0855343 0.151114 -6.5475e-20)
(0.138531 0.161173 2.8075e-20)
(0.238914 0.169 2.489e-20)
(0.284851 0.182013 0)
(0.46317 0.18005 0)
(0.48429 0.194014 8.65726e-20)
(0.726887 0.176109 -7.70143e-20)
(-0.00377023 -0.0026127 -4.14084e-22)
(-0.0258635 0.0130917 0)
(-0.0467442 0.033934 0)
(-0.0554154 0.0538866 6.80135e-20)
(-0.0481874 0.0690729 -3.07684e-20)
(-0.0237544 0.0796515 2.48669e-20)
(0.0189795 0.0874788 4.18344e-20)
(0.0813408 0.0947571 -3.70968e-20)
(0.167094 0.102712 3.20949e-20)
(0.266337 0.113412 -2.81063e-20)
(0.401985 0.122534 -6.51915e-22)
(0.508933 0.13641 0)
(0.705108 0.143075 2.05811e-20)
(0.77399 0.152867 0)
(1.02565 0.152617 0)
(-0.0131374 0.00468708 -5.17304e-20)
(-0.0408807 0.0163508 0)
(-0.0607495 0.0257368 -7.82149e-20)
(-0.0612963 0.0342166 1.35899e-19)
(-0.0365749 0.0412203 -1.4547e-19)
(0.0184663 0.0475784 -2.29186e-20)
(0.105972 0.0551627 4.28706e-20)
(0.223429 0.0661806 0)
(0.365624 0.0796004 0)
(0.522138 0.10017 -5.42236e-20)
(0.681451 0.114955 -2.48356e-20)
(0.840301 0.139965 4.34732e-20)
(0.986758 0.147123 -2.06131e-20)
(1.09902 0.163179 0)
(1.23797 0.159094 -7.38496e-20)
(-0.159014 0.536496 0)
(-0.0680125 0.534796 4.54152e-21)
(0.0524674 0.426662 -4.21101e-21)
(0.228172 0.237474 0)
(0.351762 -0.0015367 0)
(0.463211 -0.270006 -3.1458e-22)
(0.588395 -0.54587 0)
(0.672543 -0.70033 0)
(0.618947 -0.700432 9.73021e-23)
(0.629898 -0.555889 0)
(0.571421 -0.389378 0)
(0.340195 -0.282823 1.89054e-23)
(0.254956 -0.171897 0)
(0.310629 -0.0418579 1.90952e-23)
(0.380574 0.0336904 1.37382e-23)
(0.454932 0.045499 0)
(0.530083 0.0408928 1.06511e-22)
(0.588569 0.0100109 -1.25938e-22)
(0.657817 -0.00214717 0)
(0.712119 -0.00878397 -8.04994e-23)
(0.758933 -0.0146127 9.22363e-23)
(0.815208 0.00850962 -1.66982e-23)
(0.84657 0.00484647 2.01636e-23)
(0.886747 0.0235653 -1.92667e-23)
(0.915954 0.0371007 1.36435e-23)
(0.930847 0.0269329 0)
(0.952317 0.0507705 6.60441e-24)
(0.959053 0.042411 -6.31484e-24)
(0.964649 0.0453769 4.32588e-24)
(0.97132 0.0452316 0)
(0.977503 0.0665038 5.40912e-24)
(0.975985 0.0221055 0)
(0.984984 0.0606308 3.43319e-24)
(0.989425 0.0620938 1.55806e-24)
(0.985253 0.0178996 -1.9188e-25)
(0.992225 0.0581936 1.35022e-24)
(0.994381 0.0587718 0)
(0.993832 0.0517195 -2.22481e-25)
(0.0103713 0.482444 1.3001e-20)
(0.128566 0.458527 -1.27196e-22)
(0.267881 0.336001 -2.03142e-20)
(0.437061 0.154067 1.93729e-20)
(0.539414 -0.0533976 0)
(0.661454 -0.327648 3.17001e-22)
(0.794099 -0.605796 -5.00098e-22)
(0.837213 -0.716267 0)
(0.790637 -0.676526 -9.80205e-23)
(0.677974 -0.55309 0)
(0.703986 -0.360344 0)
(0.566997 -0.212494 -1.90389e-23)
(0.420294 -0.142434 0)
(0.355511 -0.0537636 -6.519e-22)
(0.389183 0.0111605 5.57735e-22)
(0.457178 0.0185775 -4.04348e-22)
(0.533728 0.0161235 3.85961e-22)
(0.611281 -0.011454 2.4394e-23)
(0.675518 -0.0214131 0)
(0.723014 -0.0226829 0)
(0.758789 -0.0274771 1.78908e-23)
(0.797818 -0.00296334 -1.25585e-22)
(0.82134 -0.00392235 1.88934e-22)
(0.856593 0.0149777 -7.96188e-23)
(0.886329 0.0312696 -4.18967e-23)
(0.903925 0.0227261 0)
(0.930088 0.0473922 -1.48539e-23)
(0.940505 0.0407833 0)
(0.9501 0.044163 -4.34109e-24)
(0.960307 0.043817 1.20615e-23)
(0.969904 0.0659646 -2.2486e-23)
(0.971457 0.0214263 3.76037e-24)
(0.982192 0.0595113 -6.40876e-24)
(0.987926 0.062052 -7.23389e-26)
(0.985005 0.0176845 -2.00124e-24)
(0.992187 0.0575872 1.08444e-24)
(0.994404 0.0586777 7.17435e-26)
(0.994259 0.0517308 -1.06857e-25)
(0.200866 0.406294 3.04681e-20)
(0.331589 0.37252 -6.47926e-20)
(0.475164 0.254668 -5.60468e-21)
(0.618137 0.0918117 3.83432e-20)
(0.70792 -0.0966835 6.41364e-22)
(0.854757 -0.368928 -5.9928e-22)
(0.97633 -0.62157 5.08641e-22)
(0.934495 -0.715413 -6.55921e-22)
(0.869144 -0.648993 0)
(0.739954 -0.530973 4.07012e-21)
(0.728078 -0.372899 -3.88253e-21)
(0.716407 -0.184531 1.72969e-23)
(0.650051 -0.0959558 0)
(0.536662 -0.0378813 1.43248e-21)
(0.526319 -0.00207096 -1.33397e-21)
(0.580116 -0.00645787 3.77318e-22)
(0.64098 -0.00981961 -3.60027e-22)
(0.719585 -0.033184 -3.93825e-22)
(0.765941 -0.0370733 3.38421e-22)
(0.796542 -0.0319223 0)
(0.814978 -0.0348333 0)
(0.825186 -0.00905049 -2.27497e-22)
(0.833967 -0.00937346 2.17187e-22)
(0.851702 0.00795743 1.34274e-22)
(0.871554 0.0260246 -2.74377e-23)
(0.886275 0.0181303 -9.68295e-23)
(0.909988 0.0432988 -7.40815e-25)
(0.921981 0.0384869 2.47228e-23)
(0.934489 0.0421657 -4.97189e-23)
(0.948045 0.0416554 4.35606e-23)
(0.961162 0.0648556 -4.91458e-24)
(0.966576 0.0203443 1.00119e-23)
(0.979104 0.0580615 -5.29578e-24)
(0.986247 0.0618533 5.06347e-24)
(0.984735 0.017402 1.54185e-24)
(0.992155 0.0569193 6.61373e-25)
(0.994394 0.0585511 -2.06462e-24)
(0.994667 0.0517257 -3.29541e-25)
(0.382235 0.32816 0)
(0.508185 0.292097 3.39842e-20)
(0.647118 0.191022 -3.34204e-20)
(0.76498 0.0535148 0)
(0.869715 -0.133372 -6.59186e-22)
(1.03568 -0.406551 6.15702e-22)
(1.11721 -0.612288 0)
(1.03454 -0.665282 3.48912e-23)
(0.896803 -0.608453 -3.97814e-22)
(0.791762 -0.507305 0)
(0.729511 -0.389718 -1.1495e-21)
(0.74453 -0.208651 1.07836e-21)
(0.784832 -0.0842785 7.58247e-23)
(0.74325 -0.0183411 1.36253e-21)
(0.731053 -0.00303032 -1.29926e-21)
(0.770794 -0.021913 -4.33216e-23)
(0.805752 -0.0289826 0)
(0.860768 -0.0489471 4.0055e-23)
(0.881825 -0.047008 -6.92005e-22)
(0.891465 -0.0362311 2.49407e-23)
(0.895185 -0.0366499 4.23986e-23)
(0.882169 -0.00959033 4.73644e-22)
(0.878019 -0.0103679 3.09805e-22)
(0.87603 0.00483719 -3.80994e-22)
(0.880655 0.0231354 2.95673e-23)
(0.888245 0.0147141 0)
(0.902123 0.0397804 1.59545e-23)
(0.911962 0.0361427 -2.50485e-23)
(0.924262 0.0397259 5.10745e-23)
(0.938958 0.0389516 -4.47563e-23)
(0.953919 0.0632283 1.15987e-23)
(0.96291 0.0188729 0)
(0.976477 0.0562934 5.51562e-24)
(0.984737 0.061505 -1.0841e-23)
(0.984576 0.0170472 -4.30619e-24)
(0.992176 0.0561886 -4.40188e-24)
(0.99437 0.0583945 2.06608e-24)
(0.99506 0.0517031 -5.82433e-26)
(0.544584 0.255163 3.70967e-22)
(0.65733 0.223686 9.25822e-22)
(0.790378 0.136459 0)
(0.896821 0.0148231 0)
(1.03854 -0.171409 0)
(1.20147 -0.417776 0)
(1.20827 -0.580384 2.4615e-20)
(1.09299 -0.605783 -4.09348e-20)
(0.950275 -0.555619 1.73256e-20)
(0.846188 -0.479363 0)
(0.764698 -0.39363 -1.72908e-21)
(0.746792 -0.24875 1.75463e-21)
(0.814983 -0.117553 -1.3449e-21)
(0.854469 -0.0287594 1.1262e-21)
(0.887024 -0.00650876 -8.98656e-22)
(0.932451 -0.0282941 9.00942e-22)
(0.952566 -0.0369403 3.67222e-23)
(0.978529 -0.054819 6.34447e-22)
(0.976306 -0.0496822 -6.04526e-22)
(0.967252 -0.0360741 -7.65271e-23)
(0.960617 -0.0349489 -7.06191e-23)
(0.937193 -0.00694189 -4.03119e-22)
(0.927428 -0.00831601 4.47108e-22)
(0.913938 0.00524174 8.00192e-23)
(0.906601 0.022888 3.0596e-23)
(0.907355 0.0132861 2.24187e-23)
(0.909249 0.0377869 0)
(0.914328 0.0344337 0)
(0.923461 0.0374496 0)
(0.936427 0.0361814 0)
(0.95061 0.0613642 -3.33242e-23)
(0.96181 0.017189 2.05569e-23)
(0.975079 0.0543255 -1.1549e-23)
(0.983775 0.0610613 3.62924e-23)
(0.984666 0.0166388 -4.4215e-24)
(0.992302 0.0554093 -8.56042e-25)
(0.994357 0.0582153 3.03892e-24)
(0.995443 0.0516631 8.30253e-25)
(0.752828 0.19248 -3.90439e-22)
(0.83702 0.163658 6.15951e-20)
(0.951832 0.0948342 -5.90955e-20)
(1.06042 -0.0152485 -7.28527e-20)
(1.21574 -0.196261 6.93619e-20)
(1.32119 -0.395252 6.35187e-20)
(1.26528 -0.510356 -5.90944e-20)
(1.12153 -0.537687 6.27845e-22)
(0.995619 -0.512509 -4.31311e-22)
(0.909583 -0.451831 0)
(0.833146 -0.387624 -1.17376e-22)
(0.779415 -0.277409 4.33865e-22)
(0.814541 -0.161233 -4.13057e-22)
(0.882591 -0.0645761 8.4089e-23)
(0.951149 -0.0272549 0)
(1.00855 -0.0395966 7.04221e-22)
(1.02998 -0.0418593 -1.25362e-21)
(1.04112 -0.0547943 5.24697e-22)
(1.02909 -0.047828 0)
(1.01132 -0.0335843 -5.24937e-22)
(0.999417 -0.0323825 9.57279e-23)
(0.974415 -0.00452568 5.25511e-22)
(0.963781 -0.00582072 4.24681e-22)
(0.947482 0.00686731 -3.97097e-22)
(0.934976 0.0240895 2.23461e-22)
(0.932268 0.0134802 -4.31664e-23)
(0.9257 0.0373429 -1.79425e-22)
(0.926148 0.0337077 9.39205e-23)
(0.931192 0.0358525 -8.9318e-23)
(0.940644 0.0338266 2.78983e-23)
(0.951945 0.059631 -2.65266e-23)
(0.963591 0.015563 0)
(0.975241 0.0523382 -1.20994e-23)
(0.983571 0.0606048 9.15317e-25)
(0.985071 0.0162122 0)
(0.992564 0.0546055 4.46975e-24)
(0.994375 0.0580247 -2.00846e-24)
(0.995819 0.0516055 3.30944e-25)
(1.03089 0.153523 0)
(1.08101 0.12312 0)
(1.15903 0.0554735 -2.19901e-22)
(1.24739 -0.0488688 0)
(1.35926 -0.20567 0)
(1.37529 -0.356928 6.07643e-20)
(1.27823 -0.44524 -5.7869e-20)
(1.15209 -0.476042 3.62056e-20)
(1.03823 -0.472738 -3.45371e-20)
(0.955184 -0.431561 0)
(0.894584 -0.377484 -1.7761e-22)
(0.836553 -0.285896 7.367e-23)
(0.834778 -0.190214 1.10862e-21)
(0.886152 -0.0992863 9.03537e-22)
(0.958955 -0.0495853 -1.86964e-21)
(1.01859 -0.0493021 -2.48395e-23)
(1.04504 -0.044322 1.72282e-23)
(1.05437 -0.0528611 -1.12032e-21)
(1.04481 -0.0447482 1.09764e-21)
(1.02873 -0.0299114 0)
(1.01685 -0.029146 0)
(0.994901 -0.00161836 3.05626e-23)
(0.985266 -0.00327247 0)
(0.970248 0.00859845 -3.23956e-22)
(0.957117 0.0254932 4.15061e-23)
(0.953657 0.0141536 2.18528e-22)
(0.943642 0.0375982 1.70717e-22)
(0.941384 0.0336118 -1.1263e-22)
(0.943356 0.0348683 1.00985e-23)
(0.949185 0.0320352 0)
(0.956844 0.0582484 2.21308e-23)
(0.967553 0.0141729 -2.09819e-23)
(0.976757 0.0504634 -6.90543e-24)
(0.984095 0.0602326 -4.10339e-24)
(0.985764 0.015804 5.98861e-24)
(0.992956 0.0537916 -1.50048e-24)
(0.994434 0.0578356 0)
(0.996194 0.0515347 -7.18745e-25)
(1.24233 0.145552 4.52394e-20)
(1.26505 0.120296 5.45767e-20)
(1.30327 0.0685629 7.25547e-21)
(1.35624 -0.0149853 -1.17812e-19)
(1.39438 -0.137243 5.87555e-20)
(1.36181 -0.258854 -5.00563e-22)
(1.27594 -0.355909 0)
(1.17975 -0.415215 -3.45005e-22)
(1.08447 -0.439052 -2.5018e-22)
(0.997574 -0.422926 0)
(0.937543 -0.386225 -9.83864e-21)
(0.886176 -0.31073 9.44059e-21)
(0.869037 -0.229795 1.02473e-23)
(0.896697 -0.144496 -1.26065e-21)
(0.953943 -0.0826415 1.19594e-21)
(1.00573 -0.067535 -2.18592e-23)
(1.03413 -0.0531539 -1.8281e-23)
(1.0467 -0.0555355 0)
(1.04354 -0.0460935 -1.14207e-21)
(1.03267 -0.0295863 1.08265e-21)
(1.02265 -0.0285316 5.31571e-22)
(1.0046 -0.00113883 -7.207e-23)
(0.995988 -0.00162719 -4.39286e-22)
(0.983452 0.00953107 3.31324e-22)
(0.971661 0.0270056 -7.14552e-23)
(0.968494 0.0152211 -4.34001e-22)
(0.958615 0.0381703 1.53809e-22)
(0.955581 0.0342094 -1.14878e-22)
(0.9561 0.0346904 8.49776e-23)
(0.95921 0.0307809 0)
(0.963609 0.0574508 0)
(0.972606 0.0132794 0)
(0.979144 0.0487273 -6.12938e-24)
(0.985184 0.0600168 6.79545e-24)
(0.98666 0.0154825 -6.42163e-24)
(0.993451 0.0529985 4.13409e-24)
(0.994545 0.0576404 1.81566e-24)
(0.996572 0.0514543 0)
(1.26509 0.127759 0)
(1.29329 0.0915831 0)
(1.32109 0.0441776 0)
(1.34296 -0.0266934 0)
(1.34288 -0.113953 0)
(1.31339 -0.197395 0)
(1.26087 -0.2701 0)
(1.19062 -0.317715 0)
(1.11678 -0.345685 0)
(1.04332 -0.338118 0)
(0.984452 -0.321188 0)
(0.93788 -0.27381 0)
(0.913401 -0.214449 0)
(0.920097 -0.152655 0)
(0.95541 -0.0987698 0)
(0.995026 -0.0798408 0)
(1.02199 -0.058641 0)
(1.03653 -0.0548027 0)
(1.03833 -0.0440419 0)
(1.03243 -0.0263459 0)
(1.0234 -0.0257972 0)
(1.00942 0.000797119 0)
(1.00146 0.000309398 0)
(0.991371 0.0102778 0)
(0.98208 0.027378 0)
(0.979126 0.0154225 0)
(0.971616 0.0380634 0)
(0.96937 0.0339874 0)
(0.969592 0.0339896 0)
(0.970805 0.0296798 0)
(0.97258 0.0562175 0)
(0.978964 0.0122122 0)
(0.982564 0.0472043 0)
(0.987049 0.0594411 0)
(0.98792 0.0150067 0)
(0.99413 0.0521434 0)
(0.994775 0.0573547 0)
(0.997048 0.0513035 0)
(1.23346 0.110855 0)
(1.26139 0.0744664 0)
(1.28034 0.0258741 0)
(1.29079 -0.0330605 0)
(1.28657 -0.104785 0)
(1.26308 -0.178352 0)
(1.22195 -0.253369 0)
(1.16574 -0.306547 0)
(1.10013 -0.341834 0)
(1.03521 -0.343074 0)
(0.983237 -0.329414 0)
(0.944634 -0.284895 0)
(0.930575 -0.227655 0)
(0.940766 -0.171547 0)
(0.967551 -0.119399 0)
(0.99658 -0.0981863 0)
(1.01673 -0.0728309 0)
(1.02719 -0.0639931 0)
(1.02745 -0.0478731 0)
(1.022 -0.0258986 0)
(1.01367 -0.0227703 0)
(1.00243 0.00536525 0)
(0.994999 0.00409237 0)
(0.987902 0.0140565 0)
(0.98236 0.0301561 0)
(0.981181 0.0172658 0)
(0.977955 0.0397377 0)
(0.977966 0.0345806 0)
(0.979472 0.0338913 0)
(0.980301 0.0297147 0)
(0.980874 0.0556549 0)
(0.984791 0.0114276 0)
(0.986126 0.046621 0)
(0.989221 0.059172 0)
(0.989273 0.0143043 0)
(0.994953 0.0515256 0)
(0.995137 0.0571796 0)
(0.997638 0.0510926 0)
(1.20517 0.0904446 0)
(1.22963 0.0554504 0)
(1.24455 0.0126102 0)
(1.24865 -0.0362515 0)
(1.24196 -0.0953033 0)
(1.22432 -0.152612 0)
(1.19502 -0.208011 0)
(1.15396 -0.244763 0)
(1.10652 -0.271366 0)
(1.05671 -0.272449 0)
(1.01519 -0.265316 0)
(0.979342 -0.240899 0)
(0.959191 -0.20558 0)
(0.959836 -0.167899 0)
(0.976306 -0.124376 0)
(0.9976 -0.102663 0)
(1.01375 -0.0730386 0)
(1.02291 -0.0586317 0)
(1.02304 -0.0404901 0)
(1.01822 -0.0183166 0)
(1.0109 -0.0164686 0)
(1.00159 0.00926378 0)
(0.995038 0.00654909 0)
(0.988585 0.0152542 0)
(0.983714 0.0307789 0)
(0.982344 0.0171969 0)
(0.980971 0.0395973 0)
(0.982017 0.0341525 0)
(0.98434 0.0334514 0)
(0.985291 0.0295624 0)
(0.985726 0.0552612 0)
(0.988199 0.0110886 0)
(0.988438 0.0462947 0)
(0.990855 0.0589114 0)
(0.990335 0.0137706 0)
(0.995673 0.0510541 0)
(0.99555 0.0569769 0)
(0.998282 0.0508315 0)
(1.18062 0.0766114 0)
(1.20003 0.045442 0)
(1.2105 0.00624642 0)
(1.21202 -0.0359041 0)
(1.2054 -0.0850142 0)
(1.19102 -0.131144 0)
(1.16786 -0.180356 0)
(1.13556 -0.217072 0)
(1.09792 -0.250523 0)
(1.05818 -0.262147 0)
(1.02533 -0.264549 0)
(0.99895 -0.24645 0)
(0.983095 -0.215449 0)
(0.980047 -0.182063 0)
(0.988239 -0.140282 0)
(1.00058 -0.116795 0)
(1.01065 -0.0841367 0)
(1.01686 -0.0671306 0)
(1.01679 -0.0463499 0)
(1.01396 -0.0211932 0)
(1.00901 -0.0168862 0)
(1.00181 0.0107719 0)
(0.995878 0.00876857 0)
(0.989906 0.0171912 0)
(0.985386 0.0321317 0)
(0.983582 0.0176189 0)
(0.982738 0.0392773 0)
(0.983939 0.0334455 0)
(0.986296 0.0326511 0)
(0.987386 0.0290751 0)
(0.987944 0.0548467 0)
(0.989695 0.0108277 0)
(0.98956 0.0458875 0)
(0.991941 0.0587498 0)
(0.991044 0.0132772 0)
(0.996205 0.0504651 0)
(0.996012 0.0567152 0)
(0.998996 0.0505222 0)
(1.15679 0.0622197 0)
(1.17224 0.0345666 0)
(1.18043 0.00043414 0)
(1.18107 -0.0352325 0)
(1.17483 -0.0768868 0)
(1.16299 -0.115425 0)
(1.14554 -0.157671 0)
(1.12237 -0.188657 0)
(1.09575 -0.216865 0)
(1.06629 -0.226712 0)
(1.03968 -0.230223 0)
(1.01634 -0.219288 0)
(1.00069 -0.198446 0)
(0.994368 -0.174522 0)
(0.99722 -0.139421 0)
(1.00413 -0.11762 0)
(1.01106 -0.0838741 0)
(1.01566 -0.0636435 0)
(1.01558 -0.0403522 0)
(1.01254 -0.0139053 0)
(1.00702 -0.0101023 0)
(1.00074 0.0162616 0)
(0.995475 0.0128624 0)
(0.990498 0.0200451 0)
(0.98669 0.0341936 0)
(0.984824 0.0186642 0)
(0.984151 0.0396952 0)
(0.985061 0.0334525 0)
(0.986883 0.0325134 0)
(0.988028 0.0290523 0)
(0.98859 0.0547541 0)
(0.990078 0.0107187 0)
(0.989963 0.0455389 0)
(0.992714 0.0586668 0)
(0.991475 0.0127088 0)
(0.996636 0.049819 0)
(0.996579 0.0564335 0)
(0.999801 0.0501468 0)
(1.13604 0.0510793 0)
(1.14855 0.0273706 0)
(1.15474 -0.00214928 0)
(1.15463 -0.0324544 0)
(1.1492 -0.0683947 0)
(1.13996 -0.100553 0)
(1.12674 -0.137319 0)
(1.10962 -0.164264 0)
(1.08948 -0.192333 0)
(1.06673 -0.205467 0)
(1.04561 -0.214686 0)
(1.02686 -0.210048 0)
(1.01385 -0.195236 0)
(1.00629 -0.176266 0)
(1.00579 -0.144259 0)
(1.00782 -0.123131 0)
(1.01049 -0.088635 0)
(1.01207 -0.0672501 0)
(1.01033 -0.0431154 0)
(1.00782 -0.0157936 0)
(1.00398 -0.0109076 0)
(0.999648 0.0160005 0)
(0.995361 0.013196 0)
(0.99126 0.0202839 0)
(0.988067 0.0342691 0)
(0.986096 0.0182768 0)
(0.985574 0.0386758 0)
(0.98624 0.0322419 0)
(0.987452 0.0314288 0)
(0.988684 0.0281825 0)
(0.98912 0.0541828 0)
(0.990375 0.0103869 0)
(0.990328 0.0449643 0)
(0.993553 0.0584956 0)
(0.991822 0.0121068 0)
(0.997128 0.0491283 0)
(0.997303 0.0560752 0)
(1.00072 0.0496905 0)
(1.11738 0.0417993 0)
(1.12706 0.0211789 0)
(1.13186 -0.00469019 0)
(1.13185 -0.0307495 0)
(1.12754 -0.0621251 0)
(1.12044 -0.0897904 0)
(1.11056 -0.122553 0)
(1.09809 -0.146713 0)
(1.08349 -0.173378 0)
(1.06679 -0.186809 0)
(1.05062 -0.197673 0)
(1.03551 -0.195909 0)
(1.02425 -0.185411 0)
(1.01567 -0.171096 0)
(1.01226 -0.142593 0)
(1.01097 -0.123039 0)
(1.01141 -0.0881234 0)
(1.01156 -0.0651151 0)
(1.01001 -0.0395286 0)
(1.00745 -0.0106165 0)
(1.00271 -0.00541221 0)
(0.998776 0.0212781 0)
(0.994698 0.0178939 0)
(0.991218 0.023939 0)
(0.988692 0.0371694 0)
(0.986691 0.0202368 0)
(0.986442 0.0398113 0)
(0.98687 0.0329788 0)
(0.987434 0.0318966 0)
(0.988836 0.0283182 0)
(0.989272 0.0543363 0)
(0.990396 0.0103792 0)
(0.990582 0.0443674 0)
(0.994444 0.0584113 0)
(0.992103 0.011536 0)
(0.997718 0.0483027 0)
(0.998172 0.0556237 0)
(1.00175 0.0491786 0)
(1.10126 0.0344026 0)
(1.10894 0.0165823 0)
(1.11268 -0.00598433 0)
(1.11273 -0.0284379 0)
(1.10931 -0.0562627 0)
(1.10403 -0.0802773 0)
(1.09665 -0.109942 0)
(1.08764 -0.131567 0)
(1.077 -0.156932 0)
(1.06468 -0.170499 0)
(1.0525 -0.182982 0)
(1.04024 -0.184001 0)
(1.03056 -0.176986 0)
(1.022 -0.166134 0)
(1.01773 -0.139906 0)
(1.0143 -0.121405 0)
(1.01231 -0.0871759 0)
(1.00991 -0.0640522 0)
(1.00651 -0.0387109 0)
(1.00368 -0.0103346 0)
(0.99978 -0.00546119 0)
(0.997254 0.0209506 0)
(0.993803 0.0175856 0)
(0.991097 0.0233385 0)
(0.989245 0.0365592 0)
(0.987241 0.0192829 0)
(0.987308 0.0384172 0)
(0.987645 0.0316254 0)
(0.987773 0.0306738 0)
(0.989397 0.0271542 0)
(0.989821 0.0536962 0)
(0.990736 0.00988049 0)
(0.991051 0.0433493 0)
(0.995517 0.0582117 0)
(0.992428 0.0108602 0)
(0.998447 0.0472355 0)
(0.999162 0.0550426 0)
(1.00289 0.0485381 0)
(1.08727 0.0283554 0)
(1.09326 0.012734 0)
(1.0962 -0.00732158 0)
(1.09642 -0.0270287 0)
(1.09389 -0.0521448 0)
(1.09006 -0.0733962 0)
(1.08467 -0.100768 0)
(1.0783 -0.120368 0)
(1.07065 -0.144625 0)
(1.06172 -0.157897 0)
(1.05257 -0.171063 0)
(1.04265 -0.173708 0)
(1.03466 -0.168483 0)
(1.02664 -0.159859 0)
(1.02147 -0.135585 0)
(1.01588 -0.118658 0)
(1.01222 -0.0850072 0)
(1.00899 -0.061397 0)
(1.00571 -0.0357736 0)
(1.00297 -0.00636622 0)
(0.99844 -0.0010949 0)
(0.996083 0.0251278 0)
(0.992873 0.0216285 0)
(0.990608 0.0265411 0)
(0.989289 0.0393814 0)
(0.987303 0.0213937 0)
(0.987665 0.0397034 0)
(0.98791 0.0326729 0)
(0.98767 0.0313716 0)
(0.989518 0.0272171 0)
(0.989996 0.0540158 0)
(0.990906 0.00996241 0)
(0.991377 0.0424331 0)
(0.996515 0.0583541 0)
(0.992754 0.0103936 0)
(0.999285 0.0461614 0)
(1.00019 0.0545585 0)
(1.00413 0.0480065 0)
(1.07544 0.0235316 0)
(1.08015 0.00973011 0)
(1.08247 -0.00825813 0)
(1.08282 -0.0257364 0)
(1.08097 -0.0486929 0)
(1.07826 -0.0677789 0)
(1.07433 -0.0932882 0)
(1.06984 -0.111244 0)
(1.06431 -0.134438 0)
(1.05781 -0.147209 0)
(1.05092 -0.160561 0)
(1.04302 -0.163997 0)
(1.03636 -0.159888 0)
(1.0286 -0.152964 0)
(1.02315 -0.130116 0)
(1.01699 -0.114017 0)
(1.01277 -0.0808087 0)
(1.00804 -0.0574205 0)
(1.00341 -0.0327753 0)
(1.00039 -0.00438989 0)
(0.996059 -0.000290187 0)
(0.994367 0.0253619 0)
(0.991479 0.0216439 0)
(0.989727 0.0259091 0)
(0.98901 0.0387596 0)
(0.987113 0.0204223 0)
(0.987809 0.0382277 0)
(0.98818 0.0313979 0)
(0.987789 0.0300832 0)
(0.989893 0.0256422 0)
(0.990505 0.0530272 0)
(0.991375 0.00912793 0)
(0.991779 0.0405478 0)
(0.997657 0.0577611 0)
(0.993208 0.00932665 0)
(1.00013 0.0442991 0)
(1.00129 0.0533465 0)
(1.00544 0.0468208 0)
(1.06533 0.0195473 0)
(1.06904 0.0071514 0)
(1.07088 -0.00927086 0)
(1.07134 -0.0250508 0)
(1.07001 -0.0463817 0)
(1.06817 -0.0637983 0)
(1.06531 -0.087873 0)
(1.06218 -0.104475 0)
(1.05821 -0.126658 0)
(1.05342 -0.138788 0)
(1.04828 -0.151809 0)
(1.04182 -0.155512 0)
(1.03619 -0.151853 0)
(1.02901 -0.145767 0)
(1.02377 -0.123518 0)
(1.01688 -0.108018 0)
(1.01165 -0.075747 0)
(1.00625 -0.0528121 0)
(1.00146 -0.0286725 0)
(0.998533 -0.000134146 0)
(0.99417 0.00353495 0)
(0.992752 0.0286132 0)
(0.99018 0.0247985 0)
(0.988828 0.0281609 0)
(0.988508 0.0410714 0)
(0.9868 0.0221708 0)
(0.98779 0.0393452 0)
(0.988207 0.0326465 0)
(0.987673 0.0310082 0)
(0.990067 0.0257977 0)
(0.990588 0.0538946 0)
(0.991771 0.00962772 0)
(0.99213 0.0397332 0)
(0.998608 0.0586036 0)
(0.993669 0.00940429 0)
(1.0012 0.0433242 0)
(1.00236 0.053311 0)
(1.00689 0.0466915 0)
(1.05681 0.0162884 0)
(1.05973 0.00502917 0)
(1.06119 -0.0101647 0)
(1.06169 -0.0245881 0)
(1.06075 -0.0446458 0)
(1.05953 -0.0607004 0)
(1.05743 -0.0836263 0)
(1.05524 -0.0990038 0)
(1.05228 -0.120245 0)
(1.04869 -0.131565 0)
(1.04468 -0.14395 0)
(1.03924 -0.147463 0)
(1.03453 -0.143654 0)
(1.02778 -0.137934 0)
(1.02272 -0.11613 0)
(1.01563 -0.101409 0)
(1.01041 -0.0700246 0)
(1.00476 -0.0477702 0)
(0.999456 -0.0250538 0)
(0.996373 0.00244212 0)
(0.991883 0.00485792 0)
(0.990748 0.0289591 0)
(0.988495 0.0248221 0)
(0.987411 0.0271923 0)
(0.987706 0.0399996 0)
(0.986098 0.0208428 0)
(0.987447 0.0371574 0)
(0.988153 0.0307907 0)
(0.98763 0.0289054 0)
(0.990234 0.0231838 0)
(0.991034 0.0516955 0)
(0.992338 0.00793988 0)
(0.992307 0.0362284 0)
(0.999797 0.0568335 0)
(0.994304 0.00737836 0)
(1.00195 0.0399241 0)
(1.0035 0.05069 0)
(1.00833 0.0442358 0)
(1.0496 0.0135397 0)
(1.05191 0.00314308 0)
(1.05305 -0.0111041 0)
(1.05357 -0.0244843 0)
(1.05289 -0.0435419 0)
(1.05208 -0.0585151 0)
(1.0505 -0.0804897 0)
(1.04893 -0.0948112 0)
(1.04663 -0.115166 0)
(1.04383 -0.125577 0)
(1.04054 -0.137152 0)
(1.03581 -0.140068 0)
(1.03153 -0.135675 0)
(1.02499 -0.129829 0)
(1.01998 -0.107749 0)
(1.01268 -0.0931825 0)
(1.0072 -0.0621964 0)
(1.00129 -0.0405051 0)
(0.996122 -0.0190179 0)
(0.993301 0.00792154 0)
(0.989244 0.00907166 0)
(0.988413 0.0324607 0)
(0.986493 0.0281171 0)
(0.985878 0.0294289 0)
(0.98648 0.0426604 0)
(0.985202 0.0229543 0)
(0.986913 0.0388142 0)
(0.987808 0.0327915 0)
(0.987299 0.0306791 0)
(0.990438 0.0239725 0)
(0.990863 0.0537826 0)
(0.992905 0.00941989 0)
(0.992706 0.0361574 0)
(1.0007 0.0590398 0)
(0.994845 0.00854302 0)
(1.00334 0.0396401 0)
(1.00462 0.0517422 0)
(1.01006 0.0451073 0)
(1.04335 0.0112255 0)
(1.04517 0.00150779 0)
(1.04603 -0.0119695 0)
(1.04651 -0.0245264 0)
(1.04597 -0.0427068 0)
(1.04542 -0.0567851 0)
(1.04412 -0.0778017 0)
(1.04287 -0.09114 0)
(1.04097 -0.110449 0)
(1.03856 -0.119872 0)
(1.03575 -0.130386 0)
(1.03141 -0.132569 0)
(1.02765 -0.127554 0)
(1.02138 -0.121484 0)
(1.01671 -0.0995747 0)
(1.00954 -0.0855713 0)
(1.00418 -0.0559625 0)
(0.99844 -0.0355005 0)
(0.992995 -0.0160096 0)
(0.990268 0.00948483 0)
(0.986313 0.00917177 0)
(0.985842 0.0309808 0)
(0.984538 0.0263542 0)
(0.984055 0.0264833 0)
(0.985457 0.0394269 0)
(0.984246 0.0198557 0)
(0.986281 0.0344848 0)
(0.987601 0.0291887 0)
(0.987209 0.0266429 0)
(0.99047 0.0194878 0)
(0.991336 0.0492323 0)
(0.993629 0.00617935 0)
(0.992593 0.03022 0)
(1.00195 0.0549587 0)
(0.995686 0.0049569 0)
(1.00385 0.0338323 0)
(1.00576 0.0467556 0)
(1.01155 0.0404658 0)
(1.03828 0.00936012 0)
(1.03972 0.000224015 0)
(1.0404 -0.0126451 0)
(1.04082 -0.024462 0)
(1.04037 -0.0419697 0)
(1.03991 -0.0551721 0)
(1.03872 -0.0754394 0)
(1.03752 -0.0876962 0)
(1.03559 -0.106061 0)
(1.03316 -0.11421 0)
(1.03014 -0.123446 0)
(1.02565 -0.124383 0)
(1.02156 -0.117996 0)
(1.01503 -0.111162 0)