/*--------------------------------*- C++ -*----------------------------------*\
| =========                 |                                                 |
| \\      /  F ield         | OpenFOAM: The Open Source CFD Toolbox           |
|  \\    /   O peration     | Version:  2512                                  |
|   \\  /    A nd           | Website:  www.openfoam.com                      |
|    \\/     M anipulation  |                                                 |
\*---------------------------------------------------------------------------*/
FoamFile
{
    version     2.0;
    format      ascii;
    arch        "LSB;label=32;scalar=64";
    class       volVectorField;
    location    "168.3";
    object      U;
}
// * * * * * * * * * * * * * * * * * * * * * * * * * * * * * * * * * * * * * //

dimensions      [0 1 -1 0 0 0 0];

internalField   nonuniform List<vector> 
13248
(
(-0.0150899 0.0093406 3.41372e-20)
(-0.0368804 0.0163009 0)
(-0.0522398 0.0150346 -5.96205e-20)
(-0.0553801 0.0114735 5.52082e-20)
(-0.0419971 0.00789336 5.07749e-20)
(-0.00841118 0.00514588 0)
(0.0484669 0.00370959 0)
(0.130339 0.00409788 1.12356e-19)
(0.236666 0.00692133 -2.57059e-21)
(0.363888 0.0125143 -9.21845e-20)
(0.505709 0.0208701 7.95079e-20)
(0.653919 0.0315202 -4.87258e-20)
(0.799654 0.0435324 0)
(0.934643 0.0556455 -7.34245e-20)
(1.05216 0.0664748 1.3407e-19)
(1.14771 0.0747897 -3.11221e-20)
(1.21918 0.0796082 -5.33891e-20)
(1.2671 0.0804704 4.97749e-20)
(1.29425 0.07769 0)
(1.30534 0.0703798 0)
(1.30565 0.0635698 0)
(1.30296 0.0469278 0)
(1.29483 0.0441628 1.45465e-20)
(1.29602 0.0117714 5.33651e-20)
(-0.0204673 0.0139208 -1.02771e-19)
(-0.0423944 0.0252824 6.52076e-20)
(-0.04828 0.0261538 -2.34813e-22)
(-0.0343984 0.0228959 -8.35702e-20)
(0.00291567 0.0187118 -5.07008e-20)
(0.0669421 0.0154026 -4.6835e-20)
(0.159608 0.0142462 -8.36547e-20)
(0.279858 0.0162455 7.8161e-20)
(0.422627 0.0219091 0)
(0.578919 0.0311066 1.19448e-21)
(0.737425 0.043013 2.95551e-21)
(0.886755 0.0562326 4.97059e-20)
(1.01741 0.0690972 0)
(1.12305 0.0800006 0)
(1.20106 0.0877618 4.92735e-20)
(1.25239 0.0916719 -9.16747e-20)
(1.281 0.0918127 5.2682e-20)
(1.29282 0.0885018 -4.91184e-20)
(1.29431 0.0825718 -2.11967e-20)
(1.29141 0.0749241 -3.79928e-20)
(1.28752 0.0653857 -1.55174e-20)
(1.28458 0.0555299 -2.90751e-20)
(1.28022 0.0451745 4.23258e-20)
(1.27851 0.0311422 1.18677e-20)
(-0.023457 0.0153445 0)
(-0.0420135 0.0280236 0)
(-0.0346696 0.0301499 3.00428e-20)
(0.00094282 0.0276861 2.73996e-20)
(0.0678029 0.0244574 -6.14342e-22)
(0.167892 0.0230824 -4.78942e-20)
(0.299874 0.0253679 0)
(0.456992 0.0322084 -3.84849e-20)
(0.627121 0.04334 3.49571e-20)
(0.795336 0.0574016 2.90176e-22)
(0.947539 0.0723379 -5.51645e-20)
(1.07337 0.0859853 -4.7742e-20)
(1.16767 0.0966027 2.27576e-21)
(1.23058 0.103226 -3.51614e-20)
(1.26651 0.105702 8.61435e-20)
(1.28254 0.104571 0)
(1.28635 0.100768 -5.15461e-20)
(1.28446 0.0949501 2.49968e-20)
(1.28105 0.0884979 2.11756e-20)
(1.27767 0.0800581 0)
(1.27401 0.073408 1.6892e-20)
(1.26983 0.0622693 -5.67372e-20)
(1.26328 0.0573648 5.29843e-20)
(1.25804 0.0436167 3.23994e-20)
(-0.0241966 0.014373 -3.58073e-20)
(-0.0351856 0.0254216 -3.4178e-20)
(-0.0100206 0.0276548 3.07443e-20)
(0.0528453 0.0265024 0)
(0.155205 0.0262726 0)
(0.295556 0.0300406 -5.89427e-22)
(0.46562 0.0393478 0)
(0.649745 0.0537932 -1.16044e-19)
(0.828697 0.0712632 1.05154e-19)
(0.985284 0.0888184 -1.26244e-19)
(1.10847 0.103736 2.76574e-20)
(1.19479 0.114255 0)
(1.24748 0.119845 4.18141e-20)
(1.27412 0.121021 -7.56691e-20)
(1.28378 0.118886 1.77918e-20)
(1.28445 0.114652 4.24425e-20)
(1.28147 0.109108 -2.90305e-21)
(1.27743 0.103028 -4.59458e-20)
(1.27285 0.0960567 0)
(1.26767 0.0891514 0)
(1.2617 0.0813346 -1.51418e-20)
(1.25567 0.072952 1.3291e-20)
(1.24882 0.0666911 4.66689e-20)
(1.24448 0.0540261 -4.35655e-20)
(-0.0227715 0.0119676 -3.74341e-20)
(-0.0209006 0.0194311 -3.46062e-20)
(0.0282323 0.0214433 9.56828e-20)
(0.125095 0.0230623 -5.74407e-20)
(0.268262 0.0288426 5.32092e-20)
(0.44854 0.0413961 9.54139e-20)
(0.646691 0.0603178 -6.61084e-20)
(0.838303 0.0825304 -7.74767e-20)
(1.00223 0.103916 2.92698e-21)
(1.12641 0.121058 9.50896e-20)
(1.20904 0.132219 0)
(1.25624 0.137418 2.39757e-20)
(1.27802 0.137853 0)
(1.2845 0.135117 -3.60197e-20)
(1.28332 0.130578 4.99672e-20)
(1.27889 0.125042 4.10115e-22)
(1.2732 0.119009 -1.22489e-20)
(1.26692 0.112391 2.2274e-20)
(1.26044 0.105637 1.87417e-20)
(1.25404 0.0981854 -1.63849e-20)
(1.24797 0.0910132 1.51351e-20)
(1.24214 0.0829166 -1.3285e-20)
(1.23589 0.0766139 0)
(1.23065 0.0663462 -9.4629e-21)
(-0.0188106 0.00884773 3.74247e-20)
(0.00258013 0.0121612 3.6251e-20)
(0.0831771 0.015067 -3.20462e-20)
(0.220671 0.0222471 5.87182e-20)
(0.406064 0.0376628 -5.43898e-20)
(0.617402 0.0614386 4.82926e-20)
(0.82425 0.0894722 -2.28388e-20)
(0.999898 0.116055 5.83098e-20)
(1.13009 0.136748 -3.59344e-20)
(1.21402 0.149707 6.02568e-20)
(1.26009 0.15546 -1.35758e-19)
(1.28023 0.15584 4.86458e-20)
(1.28529 0.152867 -4.02401e-20)
(1.28284 0.148072 3.74606e-20)
(1.27712 0.142327 3.0611e-20)
(1.27023 0.136084 2.57135e-20)
(1.26312 0.129438 -7.10012e-20)
(1.25626 0.122639 4.34352e-20)
(1.24975 0.115509 -1.87389e-20)
(1.24349 0.108435 4.72502e-20)
(1.23717 0.101136 -1.53356e-20)
(1.23079 0.0936727 -3.50354e-20)
(1.22411 0.0871934 3.19231e-20)
(1.21835 0.0775595 9.45991e-21)
(-0.0114899 0.00546404 0)
(0.0372822 0.0054355 3.48567e-22)
(0.157042 0.0118973 6.69236e-20)
(0.338941 0.0284345 -6.15972e-20)
(0.560433 0.0562699 -5.4626e-20)
(0.785038 0.0907159 9.97233e-20)
(0.978061 0.123992 -4.55312e-20)
(1.1206 0.149975 5.8526e-20)
(1.21134 0.166299 -1.93981e-21)
(1.2603 0.173805 -3.16007e-20)
(1.28115 0.174894 6.55408e-20)
(1.28581 0.172048 -9.47181e-20)
(1.28243 0.167083 0)
(1.27569 0.161055 -1.7294e-20)
(1.2679 0.154511 -4.45439e-20)
(1.2601 0.147672 1.40052e-20)
(1.25261 0.140709 7.50466e-22)
(1.24539 0.133574 -2.7652e-20)
(1.23834 0.12642 2.52584e-21)
(1.23141 0.119112 3.13011e-20)
(1.2247 0.111782 -1.34746e-20)
(1.21825 0.104504 -4.61853e-21)
(1.21185 0.0975016 1.48676e-20)
(1.20607 0.0890896 0)
(0.000177329 0.00223092 0)
(0.0848304 0.000990152 1.84182e-20)
(0.249833 0.0149023 -8.73978e-20)
(0.474087 0.0444619 3.12286e-20)
(0.717198 0.0850285 -2.89253e-20)
(0.933927 0.126462 -2.57958e-20)
(1.09661 0.159876 -4.41008e-20)
(1.20073 0.181544 2.21739e-20)
(1.25695 0.192236 1.85897e-20)
(1.28084 0.194873 0)
(1.28616 0.192538 3.85918e-20)
(1.28235 0.187524 -5.56411e-20)
(1.27485 0.18121 4.08291e-20)
(1.2663 0.174311 1.73017e-20)
(1.25776 0.16714 -1.33777e-20)
(1.24954 0.159845 -1.04873e-20)
(1.24164 0.152438 -9.59028e-21)
(1.2341 0.144998 2.95052e-20)
(1.22693 0.137493 0)
(1.22013 0.13003 1.3599e-20)
(1.21359 0.122623 1.0713e-20)
(1.20716 0.115325 -2.72899e-20)
(1.20073 0.108097 -1.76354e-20)
(1.1946 0.100477 1.6092e-20)
(0.0170493 -0.000286542 -2.18242e-20)
(0.145779 0.000712876 -9.91577e-22)
(0.358477 0.0265506 1.78711e-20)
(0.615783 0.0711702 4.92022e-20)
(0.8616 0.121785 1.37726e-20)
(1.05373 0.165168 -2.62841e-20)
(1.17968 0.194741 2.35437e-20)
(1.2489 0.210498 -1.99041e-20)
(1.279 0.215784 3.44172e-20)
(1.28642 0.214486 1.39713e-20)
(1.28273 0.209622 -3.93006e-20)
(1.27459 0.203053 1.12018e-20)
(1.26518 0.195736 1.82993e-20)
(1.25575 0.188098 -9.04875e-21)
(1.24671 0.180315 0)
(1.23814 0.172453 1.24095e-20)
(1.23006 0.164583 1.99952e-20)
(1.22243 0.156719 2.83377e-21)
(1.21516 0.148926 -1.60105e-20)
(1.20819 0.141201 6.30166e-21)
(1.20149 0.133582 0)
(1.19502 0.126103 -4.57622e-21)
(1.18871 0.118609 -4.29647e-21)
(1.18263 0.111551 0)
(0.0395856 -0.00129334 0)
(0.219062 0.0066579 1.06481e-20)
(0.47672 0.048455 1.94231e-20)
(0.752229 0.107507 -5.04135e-20)
(0.983683 0.163612 1.61441e-20)
(1.14264 0.204533 0)
(1.23319 0.228061 2.22018e-20)
(1.27438 0.237647 -3.04575e-20)
(1.28623 0.238188 -1.71231e-20)
(1.28349 0.233754 7.54783e-21)
(1.27484 0.226935 -1.13107e-20)
(1.26445 0.219084 2.75029e-20)
(1.25402 0.210808 1.3079e-20)
(1.24409 0.202367 -9.3252e-21)
(1.23478 0.193873 -1.14775e-21)
(1.22607 0.185397 -2.28763e-20)
(1.21788 0.176969 1.01988e-20)
(1.21017 0.168633 -3.3194e-22)
(1.20292 0.160405 0)
(1.19611 0.152329 -6.30793e-21)
(1.18964 0.144442 0)
(1.18336 0.136688 1.2881e-20)
(1.1772 0.129044 -1.47542e-20)
(1.17109 0.122305 6.53789e-21)
(0.0676661 0.000128173 -6.2305e-21)
(0.301761 0.0206665 -2.72453e-20)
(0.596259 0.0809291 3.06637e-20)
(0.873838 0.15136 1.73475e-20)
(1.07961 0.208202 -8.21136e-21)
(1.20376 0.243629 1.29432e-20)
(1.26394 0.2602 -6.28308e-21)
(1.28424 0.263946 9.86255e-21)
(1.28404 0.260434 0)
(1.27526 0.2534 2.07519e-20)
(1.26386 0.244866 -1.09176e-21)
(1.25227 0.235755 -1.59394e-20)
(1.2413 0.226448 6.55283e-21)
(1.23109 0.217109 -7.05066e-21)
(1.22161 0.207815 -2.41683e-21)
(1.21279 0.19861 3.03918e-21)
(1.20459 0.189539 -2.13929e-21)
(1.19696 0.180631 -1.1263e-20)
(1.18983 0.171927 6.78558e-21)
(1.18312 0.163448 1.27503e-21)
(1.17673 0.155189 1.06837e-21)
(1.17059 0.147106 8.92511e-22)
(1.16461 0.139321 0)
(1.15868 0.132521 0)
(0.100612 0.00491694 6.23805e-21)
(0.389466 0.0439936 -5.73872e-21)
(0.708901 0.123069 -1.02699e-20)
(0.97501 0.200571 0)
(1.14975 0.254188 -4.06351e-21)
(1.2416 0.282315 -3.52868e-21)
(1.27752 0.291754 -5.73221e-21)
(1.28304 0.290162 0)
(1.27518 0.283095 0)
(1.26291 0.273704 0)
(1.25003 0.263475 0)
(1.23782 0.253008 0)
(1.22656 0.242532 -4.03853e-21)
(1.21623 0.232154 1.80262e-21)
(1.20673 0.221928 3.00524e-21)
(1.19798 0.211895 1.38747e-21)
(1.1899 0.202085 3.21562e-21)
(1.18244 0.192528 0)
(1.17554 0.183245 -6.76582e-22)
(1.16914 0.174258 -6.4581e-22)
(1.16312 0.165557 -1.07005e-21)
(1.15735 0.157105 -8.93917e-22)
(1.15172 0.149112 0)
(1.14617 0.142013 5.24572e-22)
(0.000817849 -0.124374 6.95031e-21)
(-0.00953213 -0.228815 -6.62308e-21)
(-0.0344853 -0.254374 -1.22791e-20)
(-0.0650672 -0.242556 0)
(-0.0975635 -0.21675 -1.62191e-20)
(-0.130572 -0.186223 5.16872e-21)
(-0.163192 -0.152288 -9.3679e-21)
(-0.194777 -0.113592 0)
(-0.224796 -0.0687167 0)
(-0.252475 -0.0166777 0)
(-0.277432 0.0428405 0)
(-0.299571 0.109257 0)
(-0.318387 0.181995 5.05474e-22)
(-0.333344 0.259809 -6.49877e-21)
(-0.343993 0.340983 1.11077e-20)
(-0.349863 0.423354 1.56587e-20)
(-0.350438 0.504326 4.15225e-21)
(-0.34514 0.580941 0)
(-0.333346 0.649981 4.00544e-21)
(-0.314421 0.708149 -1.05013e-20)
(-0.287613 0.752242 -6.09221e-21)
(-0.251584 0.779272 -5.52471e-21)
(-0.204613 0.786695 0)
(-0.146597 0.773269 0)
(0.00635228 -0.111397 -2.03582e-20)
(-0.00136273 -0.20059 3.25474e-20)
(-0.0277295 -0.218051 -1.13569e-20)
(-0.061076 -0.201889 -2.19627e-20)
(-0.0968726 -0.173788 3.09828e-20)
(-0.133515 -0.142401 -1.91239e-20)
(-0.170025 -0.108808 2.70979e-20)
(-0.205637 -0.0714967 1.58691e-20)
(-0.239516 -0.0289189 0)
(-0.271005 0.0197578 -1.56924e-20)
(-0.299567 0.0745785 -1.44494e-22)
(-0.324441 0.135371 1.37116e-20)
(-0.344824 0.20148 1.75051e-20)
(-0.359902 0.271659 2.19307e-20)
(-0.368841 0.344157 -1.14286e-20)
(-0.370773 0.416755 -2.88759e-20)
(-0.364806 0.486804 7.32732e-21)
(-0.350035 0.551303 -2.93475e-20)
(-0.32557 0.607024 0)
(-0.290592 0.650677 6.754e-21)
(-0.244659 0.679205 6.08238e-21)
(-0.187501 0.690201 5.51558e-21)
(-0.118564 0.681462 0)
(-0.0369094 0.652704 0)
(0.0107198 -0.096378 0)
(0.00593955 -0.170518 5.89311e-20)
(-0.019653 -0.180938 -2.19384e-20)
(-0.052965 -0.161059 2.09679e-20)
(-0.0889021 -0.130699 -5.55866e-20)
(-0.125631 -0.0982563 0)
(-0.162046 -0.0649347 -3.23195e-20)
(-0.197186 -0.0292362 1.41493e-20)
(-0.23025 0.0103922 -2.6392e-20)
(-0.260457 0.0546558 1.05366e-20)
(-0.286899 0.103798 7.00123e-20)
(-0.308596 0.157595 -3.23596e-20)
(-0.32452 0.21533 -5.1159e-20)
(-0.333607 0.275794 -1.63017e-20)
(-0.334785 0.337297 8.23616e-22)
(-0.327006 0.397708 6.11474e-20)
(-0.309279 0.454525 -2.81035e-20)
(-0.280713 0.50496 2.3476e-21)
(-0.240659 0.546086 0)
(-0.188768 0.575102 -1.96237e-20)
(-0.124621 0.589249 0)
(-0.0495417 0.586642 -2.00831e-20)
(0.034735 0.566694 7.18316e-20)
(0.135959 0.525139 1.72518e-21)
(0.0138831 -0.0813833 0)
(0.0121259 -0.141828 -1.48458e-21)
(-0.0110924 -0.146445 1.9761e-20)
(-0.0422228 -0.123555 -1.79751e-20)
(-0.0757457 -0.0910606 1.82386e-20)
(-0.10956 -0.0573506 9.4598e-20)
(-0.142464 -0.0241846 -2.9521e-20)
(-0.173461 0.00972208 -2.58965e-20)
(-0.201584 0.0459294 5.00617e-20)
(-0.225902 0.0853615 -6.95801e-20)
(-0.245426 0.128252 1.97036e-20)
(-0.259106 0.174324 1.77997e-20)
(-0.265837 0.222879 0)
(-0.2645 0.272797 1.70338e-20)
(-0.254008 0.322539 0)
(-0.233348 0.370192 2.34328e-20)
(-0.201697 0.413575 -4.54865e-20)
(-0.158486 0.450279 1.21982e-20)
(-0.103185 0.477832 3.8905e-20)
(-0.0362912 0.493895 1.95999e-20)
(0.0412096 0.49689 0)
(0.131939 0.483754 -5.21607e-20)
(0.22079 0.458647 1.63437e-20)
(0.338228 0.408847 0)
(0.0159759 -0.0678055 0)
(0.0169504 -0.116634 -6.27722e-20)
(-0.00323343 -0.116993 -1.85809e-20)
(-0.0310847 -0.0922493 -3.49569e-20)
(-0.0606824 -0.0582676 3.23911e-20)
(-0.0896786 -0.023473 -3.07293e-20)
(-0.116774 0.00959531 5.36595e-20)
(-0.140933 0.0416988 2.49882e-20)
(-0.161208 0.0743713 -6.91061e-20)
(-0.176611 0.108704 4.02434e-20)
(-0.186149 0.145061 -5.61889e-20)
(-0.188818 0.183236 1.12577e-19)
(-0.183595 0.222556 -6.0686e-20)
(-0.169537 0.262064 2.49954e-20)
(-0.145759 0.300395 6.92615e-20)
(-0.111475 0.335943 -2.47938e-20)
(-0.0661632 0.366879 -1.90107e-20)
(-0.00969042 0.39117 -1.93032e-20)
(0.0572422 0.407222 0)
(0.136461 0.41227 -3.22765e-20)
(0.21931 0.407449 -3.29751e-20)
(0.321026 0.3864 4.45259e-20)
(0.406087 0.359621 6.40126e-20)
(0.529002 0.306807 -5.83249e-20)
(0.0171257 -0.0561838 0)
(0.020046 -0.0956622 -7.70488e-20)
(0.00252139 -0.0935743 1.46801e-21)
(-0.0221431 -0.0687359 6.63993e-20)
(-0.0476266 -0.0347658 0)
(-0.0711759 0.000148253 0)
(-0.091451 0.0327922 0)
(-0.107522 0.0630768 -2.29355e-20)
(-0.118577 0.0921922 1.24534e-21)
(-0.123757 0.121295 3.76956e-20)
(-0.12217 0.150977 -5.07339e-20)
(-0.113005 0.181235 8.79225e-22)
(-0.0953963 0.2116 0)
(-0.0686553 0.241249 -2.49817e-20)
(-0.0323365 0.26904 1.83951e-20)
(0.0139248 0.293683 -5.54169e-20)
(0.0699323 0.313711 6.74325e-20)
(0.13652 0.327517 1.43756e-20)
(0.208978 0.334449 1.04503e-21)
(0.296167 0.331001 -5.50941e-20)
(0.37582 0.321715 -2.60832e-20)
(0.48268 0.295627 9.67724e-20)
(0.556687 0.270981 -6.45023e-20)
(0.680664 0.219315 0)
(0.017274 -0.0462591 3.80536e-20)
(0.0207862 -0.0783127 3.80632e-20)
(0.0046716 -0.075648 -3.34159e-20)
(-0.0178365 -0.0529405 -6.23463e-20)
(-0.0401249 -0.0213932 5.7768e-20)
(-0.0590121 0.0116285 -5.16801e-20)
(-0.0729699 0.0425258 7.10492e-20)
(-0.0812594 0.0703911 -2.25184e-20)
(-0.0833285 0.0958087 3.90191e-20)
(-0.0786241 0.119729 0)
(-0.0665444 0.14287 2.74632e-20)
(-0.0465395 0.165434 -5.26585e-20)
(-0.0181663 0.187227 4.60238e-20)
(0.0189225 0.207649 -4.28376e-20)
(0.0648001 0.2259 0)
(0.119452 0.241135 3.31619e-20)
(0.181988 0.252027 5.75611e-20)
(0.253939 0.258171 -5.52029e-20)
(0.328129 0.258098 -2.48876e-20)
(0.419441 0.250499 -2.74342e-20)
(0.494433 0.238809 7.41594e-20)
(0.611059 0.212514 2.54427e-20)
(0.675766 0.191437 -2.17981e-20)
(0.819469 0.142053 2.40194e-20)
(0.0160765 -0.0372308 -3.80629e-20)
(0.0182639 -0.0630755 1.05434e-19)
(0.00179251 -0.061454 -3.20086e-20)
(-0.0201187 -0.0431286 5.96245e-20)
(-0.0406631 -0.0167595 -5.52458e-20)
(-0.0564484 0.0115582 -3.13869e-22)
(-0.0658066 0.0382976 2.25701e-20)
(-0.0680553 0.0620842 7.73488e-20)
(-0.0629007 0.0829216 -3.14071e-21)
(-0.0501135 0.101403 -3.43955e-20)
(-0.0295191 0.118177 0)
(-0.000908164 0.133554 -2.22534e-20)
(0.0359135 0.147611 4.46859e-20)
(0.0810852 0.16014 3.69347e-20)
(0.134671 0.170696 -1.82106e-20)
(0.196704 0.178911 -1.2126e-21)
(0.267114 0.183531 -1.41942e-20)
(0.346487 0.185496 2.44743e-20)
(0.431833 0.181143 2.48915e-20)
(0.532871 0.174187 -2.40963e-20)
(0.623185 0.159882 2.25374e-20)
(0.757391 0.138883 -2.24606e-20)
(0.833042 0.117113 0)
(1.00656 0.0752925 -2.40236e-20)
(0.0130024 -0.0281504 3.57102e-20)
(0.0116355 -0.0481611 -3.47434e-20)
(-0.00682558 -0.0486038 3.1004e-20)
(-0.0294056 -0.0363008 0)
(-0.0494537 -0.0173253 0)
(-0.0635417 0.00365121 4.57083e-20)
(-0.0699286 0.0236741 -4.39277e-20)
(-0.067875 0.0413279 3.62106e-20)
(-0.057123 0.0563068 -1.71361e-19)
(-0.037457 0.0689551 1.33465e-21)
(-0.00870399 0.0798223 2.61604e-20)
(0.0294495 0.0893075 0)
(0.0775315 0.0976999 -3.93742e-20)
(0.136082 0.10506 7.12309e-20)
(0.205539 0.11125 -4.83899e-20)
(0.28616 0.115995 -6.99645e-20)
(0.378115 0.118569 4.81465e-22)
(0.479848 0.119374 4.715e-20)
(0.592333 0.115154 0)
(0.711249 0.110714 0)
(0.832361 0.0965638 -2.25446e-20)
(0.967299 0.0841462 2.24676e-20)
(1.06543 0.061001 -8.92166e-20)
(1.21954 0.0340604 8.31392e-20)
(0.00767801 -0.0183928 0)
(0.000812243 -0.0322203 0)
(-0.020301 -0.0348259 -9.19515e-20)
(-0.0435224 -0.0289546 2.84097e-20)
(-0.0626959 -0.0182008 8.75738e-22)
(-0.0745105 -0.00572359 4.60619e-20)
(-0.0769676 0.00639303 0)
(-0.0688862 0.0170644 -3.72949e-20)
(-0.049453 0.0260219 3.38746e-20)
(-0.0178197 0.0336202 -5.64274e-20)
(0.0268727 0.0402676 1.2006e-21)
(0.0852689 0.046389 4.36596e-20)
(0.157869 0.052353 -2.3471e-21)
(0.244613 0.0582894 3.19816e-20)
(0.344604 0.0641881 -4.74371e-20)
(0.456408 0.0694013 0)
(0.577233 0.0740458 5.10151e-20)
(0.704 0.0762995 -7.14349e-20)
(0.83394 0.0766114 2.28062e-20)
(0.958629 0.0739846 0)
(1.08196 0.0652497 2.10702e-20)
(1.18553 0.0573927 8.55209e-20)
(1.27653 0.036251 -7.98539e-20)
(1.35299 0.0205334 -9.60919e-20)
(0.000374019 -0.00809425 1.02188e-19)
(-0.0127933 -0.0150271 -1.29484e-19)
(-0.0353714 -0.0187869 2.10194e-22)
(-0.0568881 -0.0182722 2.75252e-20)
(-0.0718081 -0.014754 -5.03667e-20)
(-0.0767233 -0.00984427 -4.63046e-20)
(-0.0690487 -0.00466678 8.13768e-20)
(-0.046746 0.000252914 -2.73993e-21)
(-0.00809032 0.00486613 -6.74051e-20)
(0.0480998 0.00947492 1.15281e-19)
(0.122352 0.0144421 -3.03054e-21)
(0.214142 0.020243 -4.63646e-20)
(0.321761 0.0271267 0)
(0.442264 0.0349808 0)
(0.571551 0.0435387 -1.5516e-20)
(0.705174 0.0516655 -2.88483e-20)
(0.837377 0.0595128 -5.21088e-20)
(0.964228 0.0639045 4.85732e-20)
(1.07875 0.067652 -2.28246e-20)
(1.17889 0.0642882 4.38767e-20)
(1.2597 0.0600909 -2.02531e-20)
(1.31563 0.0490311 4.04048e-20)
(1.35799 0.032339 -9.19379e-20)
(1.36251 0.0190617 1.85166e-20)
(-0.00774556 0.00164987 3.38491e-20)
(-0.0263594 0.00201313 0)
(-0.0473345 -0.00121071 5.9448e-20)
(-0.0624622 -0.00386126 -5.505e-20)
(-0.0668187 -0.00515964 5.04312e-20)
(-0.0567398 -0.00534505 0)
(-0.0289981 -0.00463966 0)
(0.0188674 -0.00314629 -3.59127e-20)
(0.0883275 -0.000628022 2.8013e-21)
(0.179362 0.003348 3.11093e-20)
(0.290042 0.00917689 -2.50673e-20)
(0.41644 0.0170069 4.73754e-20)
(0.553046 0.0266098 0)
(0.693398 0.0373544 7.12002e-20)
(0.830755 0.0483263 -1.30319e-19)
(0.958797 0.0582393 8.85166e-20)
(1.07205 0.0663005 5.31921e-20)
(1.16646 0.0703807 -4.95869e-20)
(1.23897 0.0722157 0)
(1.29022 0.066261 0)
(1.31827 0.0620162 0)
(1.33198 0.0454565 0)
(1.33048 0.0360899 1.78122e-20)
(1.32036 0.0181076 -6.24889e-20)
(-0.0749337 0.735534 -3.35384e-21)
(0.036416 0.642895 3.36029e-21)
(0.15072 0.511749 -1.10741e-22)
(0.274298 0.348608 0)
(0.391093 0.169997 -3.67041e-21)
(0.491297 -0.0192408 7.16453e-21)
(0.575112 -0.227653 -1.19835e-22)
(0.648981 -0.447615 -3.27866e-21)
(0.709072 -0.638588 0)
(0.745616 -0.759398 0)
(0.761353 -0.800534 -1.05363e-22)
(0.763688 -0.787827 -8.1994e-23)
(0.753767 -0.756303 -1.07887e-21)
(0.739944 -0.719632 9.83018e-22)
(0.727584 -0.687881 0)
(0.706106 -0.687896 0)
(0.666096 -0.722639 1.10559e-21)
(0.61743 -0.731631 2.39091e-22)
(0.588242 -0.626451 -1.19257e-21)
(0.59491 -0.379 -9.47954e-23)
(0.628926 -0.0489552 0)
(0.677032 0.262841 0)
(0.729114 0.480671 0)
(0.771802 0.597033 0)
(0.80029 0.63438 0)
(0.823829 0.619444 0)
(0.839156 0.605872 1.80918e-22)
(0.830864 0.640017 -2.92416e-22)
(0.798567 0.690549 0)
(0.750915 0.67111 0)
(0.70439 0.52667 -4.1904e-22)
(0.674753 0.269816 4.07173e-22)
(0.673667 -0.0294533 2.28701e-22)
(0.694236 -0.283837 0)
(0.726946 -0.444244 0)
(0.761476 -0.515071 1.80224e-22)
(0.772985 -0.54164 -1.75163e-22)
(0.736044 -0.55711 0)
(0.671504 -0.539882 1.44798e-22)
(0.611706 -0.433611 -2.10977e-22)
(0.589249 -0.231308 7.60591e-23)
(0.608999 0.00753088 0)
(0.661622 0.206005 -1.19363e-22)
(0.694046 0.34226 1.16062e-22)
(0.688523 0.445215 0)
(0.65754 0.476791 0)
(0.642057 0.416506 -4.35736e-23)
(0.639544 0.251045 1.36865e-22)
(0.66093 0.0239949 0)
(0.667842 -0.18396 0)
(0.661555 -0.373873 -2.62913e-23)
(0.639346 -0.422973 2.05139e-24)
(0.64166 -0.35293 -1.83522e-24)
(0.633842 -0.152367 1.21424e-23)
(0.626523 0.15249 0)
(0.598581 0.311082 0)
(0.602755 0.405953 0)
(0.581686 0.249032 0)
(0.546693 -0.133418 0)
(0.520482 -0.144705 0)
(0.0584684 0.605653 -3.16869e-22)
(0.183063 0.506293 -1.44818e-20)
(0.307829 0.375175 -7.49586e-22)
(0.430916 0.222311 1.42557e-20)
(0.540789 0.0633258 2.36071e-22)
(0.632275 -0.104148 0)
(0.712556 -0.298762 -1.37447e-20)
(0.784366 -0.509758 2.58721e-20)
(0.834927 -0.685987 -1.21247e-20)
(0.853129 -0.786348 8.00033e-21)
(0.84485 -0.809426 -7.66356e-21)
(0.824511 -0.78325 4.80762e-21)
(0.795938 -0.74299 -4.68362e-21)
(0.764508 -0.703532 -1.13292e-22)
(0.738006 -0.668593 -3.45765e-21)
(0.706819 -0.65879 3.35804e-21)
(0.657381 -0.683451 -3.93983e-21)
(0.595551 -0.695211 3.70722e-21)
(0.546783 -0.610086 -5.46288e-21)
(0.533987 -0.389009 1.11811e-20)
(0.559332 -0.081589 -5.69224e-21)
(0.609982 0.217536 -3.12396e-22)
(0.670465 0.438398 -4.01465e-21)
(0.724151 0.566612 6.99704e-21)
(0.767325 0.613705 -3.00877e-21)
(0.806083 0.60612 1.27625e-22)
(0.83426 0.602539 1.98013e-21)
(0.838593 0.648643 2.2397e-22)
(0.819868 0.709481 -4.39206e-21)
(0.785764 0.69677 5.39856e-21)
(0.750598 0.551371 -2.96156e-21)
(0.727633 0.283679 4.99857e-22)
(0.72748 -0.0302746 -2.29178e-22)
(0.742491 -0.295543 4.20247e-22)
(0.761972 -0.459947 0)
(0.782516 -0.525532 0)
(0.786227 -0.537085 -5.64982e-22)
(0.743535 -0.537694 4.30267e-22)
(0.672353 -0.516385 3.87522e-22)
(0.607535 -0.4184 1.26806e-22)
(0.584331 -0.232273 -5.99341e-22)
(0.605615 -0.00726473 1.14285e-22)
(0.657771 0.189956 0)
(0.688212 0.336815 0)
(0.684358 0.449966 0)
(0.656995 0.484176 0)
(0.643105 0.420049 1.9491e-22)
(0.642248 0.249996 -9.45835e-23)
(0.66813 0.0202566 0)
(0.678429 -0.184243 0)
(0.669997 -0.370471 0)
(0.642309 -0.420766 -3.61857e-23)
(0.641163 -0.352244 1.48402e-23)
(0.632182 -0.15124 -3.13704e-23)
(0.626915 0.155107 0)
(0.603583 0.312973 0)
(0.613061 0.407266 2.56749e-23)
(0.592341 0.255841 1.01744e-22)
(0.548447 -0.126774 0)
(0.521786 -0.143127 0)
(0.234081 0.473802 2.31366e-21)
(0.354499 0.377956 -2.70971e-20)
(0.47401 0.25445 3.06844e-20)
(0.586098 0.116712 -2.86529e-20)
(0.680746 -0.0206329 -2.37751e-22)
(0.760352 -0.167136 0)
(0.838533 -0.346981 -2.8139e-20)
(0.909849 -0.544457 2.75031e-20)
(0.950626 -0.701954 1.74503e-22)
(0.951606 -0.782035 2.71829e-22)
(0.922677 -0.792479 2.11003e-22)
(0.882514 -0.761372 1.67333e-22)
(0.839328 -0.71932 -7.97026e-21)
(0.793801 -0.681268 7.85405e-21)
(0.754021 -0.64542 0)
(0.715692 -0.625508 1.80434e-22)
(0.660541 -0.639206 -6.77399e-21)
(0.587541 -0.655094 6.69866e-21)
(0.522365 -0.593507 0)
(0.492083 -0.403326 0)
(0.505852 -0.121444 -1.0053e-20)
(0.554759 0.16445 1.87326e-20)
(0.619696 0.388132 -1.54874e-20)
(0.681753 0.527361 1.5129e-21)
(0.737684 0.584761 9.64682e-21)
(0.790301 0.586072 -8.23304e-21)
(0.831605 0.591653 7.20952e-21)
(0.849366 0.647887 2.45942e-22)
(0.844928 0.720829 -3.96105e-21)
(0.824614 0.719865 0)
(0.801322 0.57817 0)
(0.786146 0.303927 3.16978e-21)
(0.786957 -0.0210679 -4.07683e-21)
(0.796427 -0.295889 2.43206e-23)
(0.803049 -0.465871 2.23922e-21)
(0.808524 -0.530757 -2.17578e-21)
(0.804705 -0.530799 0)
(0.758254 -0.517398 1.19354e-22)
(0.681007 -0.493076 9.41071e-22)
(0.61094 -0.405524 -1.86755e-21)
(0.586832 -0.235912 8.45779e-22)
(0.608126 -0.023724 6.24732e-23)
(0.658598 0.173666 -8.10497e-22)
(0.687482 0.331176 6.40362e-22)
(0.685875 0.454057 1.41357e-22)
(0.661244 0.491728 1.70837e-22)
(0.647865 0.424361 -1.95433e-22)
(0.647934 0.249653 0)
(0.678442 0.017067 0)
(0.692776 -0.183413 -7.19528e-22)
(0.682613 -0.365405 3.19826e-22)
(0.648957 -0.418084 -1.77302e-22)
(0.643851 -0.351655 1.71483e-22)
(0.633901 -0.15156 9.99706e-23)
(0.63126 0.156683 -5.25606e-23)
(0.612212 0.313911 5.804e-23)
(0.626704 0.407793 -9.25076e-23)
(0.607022 0.264065 8.38443e-23)
(0.555328 -0.118845 0)
(0.526949 -0.142108 0)
(0.426327 0.357452 -5.40192e-20)
(0.532649 0.268947 -4.18848e-21)
(0.638099 0.158026 5.50656e-20)
(0.733568 0.0367238 -4.70681e-22)
(0.811595 -0.0824403 0)
(0.882557 -0.216823 0)
(0.960823 -0.387457 -5.4573e-20)
(1.03004 -0.569274 4.68704e-21)
(1.05841 -0.704209 6.60426e-20)
(1.04051 -0.762925 -3.79621e-21)
(0.992716 -0.761834 -1.52907e-20)
(0.935266 -0.728773 -9.18559e-21)
(0.880257 -0.686867 9.22753e-21)
(0.825929 -0.651628 0)
(0.775107 -0.619457 -5.79197e-21)
(0.729857 -0.592347 5.2816e-21)
(0.673809 -0.590775 0)
(0.595916 -0.60491 0)
(0.516976 -0.568013 7.2322e-21)
(0.470258 -0.415937 9.8179e-22)
(0.470735 -0.165204 -7.4891e-21)
(0.512716 0.105736 -7.54731e-21)
(0.577119 0.330957 7.44422e-21)
(0.644347 0.480095 -4.96429e-21)
(0.710958 0.547618 9.16093e-22)
(0.775768 0.55765 3.75887e-21)
(0.829284 0.57171 4.08474e-22)
(0.860929 0.637587 1.83999e-23)
(0.871607 0.722719 0)
(0.864888 0.735105 6.5311e-21)
(0.853866 0.602591 -6.79376e-21)
(0.847465 0.328021 5.28437e-22)
(0.850108 -0.00440804 0)
(0.854996 -0.288788 -4.49949e-22)
(0.850256 -0.464267 4.67265e-21)
(0.839536 -0.531048 -7.22878e-21)
(0.826877 -0.523641 6.29076e-22)
(0.778608 -0.496943 5.09227e-22)
(0.696817 -0.468782 1.36225e-21)
(0.620772 -0.393125 1.89326e-22)
(0.594771 -0.241585 -1.30869e-21)
(0.615109 -0.0420319 1.09355e-21)
(0.663889 0.156327 4.1413e-23)
(0.691858 0.32371 5.19568e-22)
(0.692446 0.456719 -6.47008e-22)
(0.669668 0.499812 -1.31486e-21)
(0.656425 0.430175 3.17546e-22)
(0.656793 0.25036 1.03146e-21)
(0.691845 0.0139662 -1.92748e-21)
(0.71077 -0.182172 1.29099e-21)
(0.699299 -0.358857 -1.74262e-22)
(0.659308 -0.414446 3.69555e-22)
(0.649662 -0.350895 1.60958e-22)
(0.638856 -0.15332 -6.9423e-23)
(0.639303 0.157033 -8.33468e-24)
(0.624095 0.313921 -1.99842e-23)
(0.643379 0.407549 0)
(0.625594 0.273504 -6.97196e-23)
(0.567427 -0.109642 2.75803e-22)
(0.535979 -0.141361 0)
(0.603333 0.259253 5.09052e-20)
(0.692356 0.182477 -1.03834e-19)
(0.781429 0.0870473 5.22249e-20)
(0.862533 -0.0173882 5.79058e-20)
(0.931163 -0.12551 -1.14239e-19)
(1.0022 -0.256103 7.98662e-22)
(1.08282 -0.417914 5.43408e-20)
(1.14285 -0.575137 4.47798e-20)
(1.15103 -0.680192 -4.38011e-20)
(1.1117 -0.719329 0)
(1.04844 -0.712607 -2.31883e-20)
(0.979685 -0.684372 4.07568e-20)
(0.916572 -0.648313 -1.77305e-20)
(0.85818 -0.616657 0)
(0.801872 -0.590159 0)
(0.751005 -0.562505 1.62538e-22)
(0.695404 -0.547635 -9.29737e-21)
(0.618051 -0.553862 9.02671e-21)
(0.529679 -0.536062 0)
(0.46668 -0.424263 1.27325e-20)
(0.452141 -0.209772 -2.47991e-20)
(0.483493 0.0434262 2.41582e-20)
(0.543128 0.268075 -2.17651e-20)
(0.612363 0.425673 1.7093e-21)
(0.68648 0.503307 1.43998e-20)
(0.760687 0.5225 -6.47012e-21)
(0.826001 0.543052 -1.94149e-22)
(0.871834 0.614993 -3.43741e-21)
(0.897004 0.712786 -1.2304e-21)
(0.904462 0.744612 4.63495e-21)
(0.906624 0.628898 4.55373e-22)
(0.909711 0.359484 -8.86685e-21)
(0.914349 0.0214051 1.69519e-20)
(0.915012 -0.272466 -9.04535e-21)
(0.90139 -0.453696 0)
(0.875023 -0.524871 -3.65448e-21)
(0.85207 -0.514651 3.39914e-21)
(0.803575 -0.476733 -1.19491e-21)
(0.719357 -0.443972 1.50175e-21)
(0.636397 -0.380471 -1.12704e-22)
(0.606644 -0.248518 0)
(0.625328 -0.062194 -8.8484e-23)
(0.672806 0.137027 2.5773e-22)
(0.700832 0.314791 0)
(0.704545 0.458245 1.38906e-21)
(0.683407 0.507497 -4.53543e-22)
(0.669732 0.43691 4.62131e-22)
(0.669462 0.25213 5.95712e-22)
(0.70838 0.0110772 0)
(0.732196 -0.18053 0)
(0.719874 -0.350642 -8.03714e-22)
(0.673275 -0.409694 9.04918e-22)
(0.658445 -0.349894 -3.08026e-22)
(0.646786 -0.156511 -5.35712e-24)
(0.650717 0.155921 -4.0499e-23)
(0.638894 0.312898 2.00058e-23)
(0.662743 0.40633 -1.6217e-22)
(0.647803 0.283842 0)
(0.584704 -0.099185 -3.87566e-22)
(0.54885 -0.140648 -6.82699e-23)
(0.744087 0.1795 4.71619e-20)
(0.819509 0.115423 -4.66977e-20)
(0.900058 0.0336687 4.19123e-22)
(0.976508 -0.0578947 -3.96222e-22)
(1.0472 -0.162485 4.38179e-22)
(1.12532 -0.290577 -4.29065e-22)
(1.20183 -0.436877 7.27917e-22)
(1.24104 -0.563659 0)
(1.2244 -0.639464 -5.52345e-22)
(1.16679 -0.664573 4.53146e-22)
(1.09365 -0.657202 3.6368e-22)
(1.01925 -0.635361 -3.09337e-22)
(0.951179 -0.607119 0)
(0.890428 -0.579343 0)
(0.831546 -0.557114 1.49434e-22)
(0.776847 -0.532885 0)
(0.723294 -0.509098 -1.08992e-22)
(0.651629 -0.502928 0)
(0.559577 -0.495691 -8.04918e-21)
(0.480705 -0.422922 1.68585e-20)
(0.448373 -0.249744 -1.83366e-20)
(0.465789 -0.018346 9.40031e-21)
(0.517402 0.201353 7.79204e-21)
(0.585399 0.365405 -7.56368e-21)
(0.663854 0.452492 -5.33637e-21)
(0.745555 0.479661 5.1575e-21)
(0.820969 0.50527 0)
(0.879191 0.583072 1.56194e-22)
(0.919064 0.692379 0)
(0.940252 0.742537 0)
(0.95399 0.647425 1.46919e-20)
(0.967207 0.391979 -1.50539e-20)
(0.975927 0.0534092 1.06566e-21)
(0.974462 -0.248558 9.57244e-22)
(0.954839 -0.435452 -7.08643e-22)
(0.914504 -0.512583 -3.16988e-21)
(0.879202 -0.504192 3.07742e-21)
(0.831186 -0.457268 -1.40893e-21)
(0.747413 -0.418227 1.18217e-21)
(0.657444 -0.366219 1.95638e-22)
(0.621384 -0.255405 -6.3734e-22)
(0.637461 -0.0836404 1.01439e-22)
(0.684664 0.115418 3.4121e-22)
(0.714175 0.302009 0)
(0.721055 0.456594 -3.89545e-22)
(0.701099 0.516035 1.38071e-21)
(0.687618 0.446076 -1.67548e-21)
(0.686481 0.25577 -5.99711e-22)
(0.728179 0.00877016 0)
(0.756843 -0.178803 3.3015e-22)
(0.744092 -0.340847 -8.01762e-22)
(0.690717 -0.403554 -3.66647e-24)
(0.670035 -0.348442 -2.69933e-23)
(0.657381 -0.161104 -1.75484e-22)
(0.665059 0.153284 1.07904e-22)
(0.656193 0.310994 0)
(0.684342 0.404158 1.62267e-22)
(0.673239 0.294756 0)
(0.60698 -0.0875294 0)
(0.565511 -0.139762 9.73297e-23)
(0.87564 0.109935 -4.36142e-20)
(0.943786 0.0541734 4.28545e-20)
(1.02437 -0.0161042 -3.48297e-22)
(1.10371 -0.0993213 4.06191e-22)
(1.17779 -0.199321 0)