/*--------------------------------*- C++ -*----------------------------------*\
| =========                 |                                                 |
| \\      /  F ield         | OpenFOAM: The Open Source CFD Toolbox           |
|  \\    /   O peration     | Version:  2512                                  |
|   \\  /    A nd           | Website:  www.openfoam.com                      |
|    \\/     M anipulation  |                                                 |
\*---------------------------------------------------------------------------*/
FoamFile
{
    version     2.0;
    format      ascii;
    arch        "LSB;label=32;scalar=64";
    class       volVectorField;
    location    "5.2";
    object      U;
}
// * * * * * * * * * * * * * * * * * * * * * * * * * * * * * * * * * * * * * //

dimensions      [0 1 -1 0 0 0 0];

internalField   nonuniform List<vector> 
13248
(
(-0.0166865 0.0108813 5.38902e-20)
(-0.0420869 0.0305933 0)
(-0.0510981 0.0479389 -9.24429e-20)
(-0.0368638 0.0619755 8.55948e-20)
(0.00499618 0.0706142 7.79273e-20)
(0.0779428 0.0726047 0)
(0.184537 0.0683844 0)
(0.324998 0.0594888 1.84088e-19)
(0.494792 0.0475084 1.94219e-21)
(0.683321 0.0334297 -1.6182e-19)
(0.874991 0.0176668 1.54668e-19)
(1.05224 0.000234953 -9.6553e-20)
(1.19931 -0.0188934 0)
(1.3058 -0.0394257 -1.64344e-19)
(1.36926 -0.0605112 3.00831e-19)
(1.3955 -0.0809236 -7.30356e-20)
(1.39562 -0.0995383 -1.14972e-19)
(1.38094 -0.115638 1.07202e-19)
(1.35929 -0.128697 0)
(1.33466 -0.139373 0)
(1.3091 -0.145065 0)
(1.28201 -0.154032 0)
(1.25757 -0.148099 2.24546e-20)
(1.22674 -0.166151 6.99264e-20)
(-0.0229117 0.0138864 -1.61813e-19)
(-0.0464211 0.0276295 1.01753e-19)
(-0.0451545 0.0336859 -9.9264e-22)
(-0.0125728 0.0363852 -1.29484e-19)
(0.0570653 0.0365188 -7.78211e-20)
(0.167659 0.03439 -7.2393e-20)
(0.318831 0.0309749 -1.32068e-19)
(0.502928 0.027255 1.23072e-19)
(0.704642 0.0235012 0)
(0.904001 0.0191371 -1.70167e-22)
(1.08132 0.0130795 -1.54737e-21)
(1.22179 0.00432341 9.28778e-20)
(1.31853 -0.00752307 0)
(1.37339 -0.021967 0)
(1.39512 -0.0378192 1.0242e-19)
(1.39515 -0.053742 -1.91331e-19)
(1.3832 -0.0686099 1.05784e-19)
(1.36523 -0.0817526 -9.86343e-20)
(1.34427 -0.0927831 -4.01066e-20)
(1.32194 -0.101621 -6.85499e-20)
(1.29891 -0.108316 -2.436e-20)
(1.27654 -0.113456 -4.46463e-20)
(1.25384 -0.113458 7.03128e-20)
(1.23201 -0.121898 1.82533e-20)
(-0.0277717 0.0164819 0)
(-0.0443343 0.0273513 0)
(-0.0233731 0.0276789 4.65487e-20)
(0.0399672 0.0243347 4.21462e-20)
(0.150307 0.02042 -9.60926e-22)
(0.307496 0.0178958 -7.49455e-20)
(0.502076 0.0178786 0)
(0.714535 0.0202269 -6.15427e-20)
(0.920403 0.0234612 5.72012e-20)
(1.09771 0.0254205 -6.61861e-22)
(1.23261 0.0242082 -9.72394e-20)
(1.32157 0.0189204 -8.77948e-20)
(1.37011 0.00986401 2.33557e-21)
(1.38904 -0.00178025 -6.8486e-20)
(1.38962 -0.0145937 1.66183e-19)
(1.38017 -0.0273916 0)
(1.36549 -0.0393985 -9.85452e-20)
(1.34805 -0.0502635 4.87057e-20)
(1.32929 -0.0595669 4.00659e-20)
(1.30977 -0.0678149 0)
(1.29042 -0.073379 2.97612e-20)
(1.27052 -0.0795817 -9.52121e-20)
(1.25158 -0.0800947 8.89142e-20)
(1.23157 -0.088551 4.96792e-20)
(-0.0293097 0.0166394 -5.61075e-20)
(-0.0327722 0.0246289 -5.36031e-20)
(0.0159979 0.0222674 4.80298e-20)
(0.119248 0.0170449 0)
(0.277153 0.0137344 0)
(0.479811 0.0150078 -1.5916e-21)
(0.704006 0.0210334 0)
(0.919854 0.0296299 -1.86811e-19)
(1.10189 0.0375539 1.71298e-19)
(1.23636 0.0420403 -2.09388e-19)
(1.32233 0.0417596 4.79323e-20)
(1.36823 0.0369238 0)
(1.38626 0.0287306 7.53606e-20)
(1.38747 0.0186126 -1.37367e-19)
(1.37945 0.0077402 3.27913e-20)
(1.36656 -0.00310625 7.90028e-20)
(1.35111 -0.0134738 -5.57383e-21)
(1.33439 -0.0229801 -8.39553e-20)
(1.31697 -0.0315533 0)
(1.29937 -0.0388011 0)
(1.28155 -0.0448282 -2.68943e-20)
(1.26411 -0.0503598 2.32624e-20)
(1.24696 -0.0518539 7.84126e-20)
(1.22986 -0.0606912 -7.3212e-20)
(-0.0268007 0.0142403 -5.87236e-20)
(-0.0100818 0.017982 -5.44528e-20)
(0.0740992 0.0146315 1.50396e-19)
(0.223869 0.0113944 -9.04796e-20)
(0.43002 0.0135909 8.38079e-20)
(0.666876 0.0227646 1.50676e-19)
(0.897897 0.0363127 -1.0483e-19)
(1.09163 0.0497438 -1.24715e-19)
(1.23237 0.0593006 3.17958e-21)
(1.32051 0.0632692 1.56008e-19)
(1.36665 0.0618927 0)
(1.38443 0.0565101 4.06432e-20)
(1.38546 0.0486486 0)
(1.37754 0.0395178 -6.39594e-20)
(1.36524 0.0299252 8.93596e-20)
(1.35093 0.0203806 1.30921e-21)
(1.33574 0.0112524 -2.20265e-20)
(1.32011 0.00271953 4.0718e-20)
(1.30432 -0.00498284 3.37931e-20)
(1.28841 -0.0119115 -2.94711e-20)
(1.27268 -0.0178284 2.68818e-20)
(1.25709 -0.0231571 -2.32513e-20)
(1.24177 -0.0263992 0)
(1.22661 -0.0339609 -1.65897e-20)
(-0.0199927 0.0101893 5.87087e-20)
(0.0251847 0.00895432 5.69415e-20)
(0.152414 0.00677347 -5.0431e-20)
(0.352231 0.00992857 9.2865e-20)
(0.599125 0.0221658 -8.60142e-20)
(0.849785 0.0411193 7.6704e-20)
(1.06328 0.0607438 -3.62552e-20)
(1.21842 0.075841 9.35674e-20)
(1.31492 0.0841404 -5.76898e-20)
(1.365 0.0859689 9.90302e-20)
(1.38417 0.0829525 -2.24626e-19)
(1.38548 0.0768667 8.06886e-20)
(1.37769 0.0690778 -6.92324e-20)
(1.36582 0.0604775 6.44513e-20)
(1.3523 0.0516136 5.39792e-20)
(1.33808 0.0428362 4.61306e-20)
(1.32348 0.0343518 -1.26618e-19)
(1.30867 0.0263472 7.77524e-20)
(1.29374 0.0188966 -3.37877e-20)
(1.27886 0.0121406 8.50538e-20)
(1.2641 0.00611464 -2.74516e-20)
(1.24963 0.000625936 -6.31492e-20)
(1.23549 -0.00322849 5.75516e-20)
(1.22178 -0.0102272 1.65844e-20)
(-0.00844432 0.00555529 0)
(0.0743644 0.00028775 6.21713e-22)
(0.251247 0.00277703 1.05644e-19)
(0.498862 0.016926 -9.72039e-20)
(0.770113 0.041428 -8.65692e-20)
(1.01128 0.0685446 1.58133e-19)
(1.19033 0.0907043 -7.22476e-20)
(1.30288 0.104443 9.35714e-20)
(1.36174 0.10999 -2.61973e-21)
(1.38471 0.10937 -5.10137e-20)
(1.38714 0.104822 1.08556e-19)
(1.37941 0.0980689 -1.57502e-19)
(1.36733 0.0902046 0)
(1.35364 0.0818578 -2.96306e-20)
(1.33939 0.0733857 -7.76976e-20)
(1.32499 0.0650046 2.4245e-20)
(1.31059 0.0568854 1.24452e-21)
(1.29629 0.0491377 -5.00139e-20)
(1.28218 0.0418728 4.13018e-21)
(1.26828 0.0351407 5.66782e-20)
(1.25469 0.0289445 -2.44303e-20)
(1.24141 0.0234168 -8.6767e-21)
(1.22841 0.0185136 2.77345e-20)
(1.21581 0.0121815 0)
(0.0085766 0.00118866 0)
(0.138168 -0.00530328 2.9034e-20)
(0.36799 0.00655376 -1.37229e-19)
(0.653361 0.0350175 4.92672e-20)
(0.92792 0.0706968 -4.56332e-20)
(1.14161 0.102183 -4.06111e-20)
(1.28007 0.123445 -6.99059e-20)
(1.35443 0.134036 3.4804e-20)
(1.38488 0.136369 2.95635e-20)
(1.39001 0.133397 0)
(1.38269 0.127456 6.35588e-20)
(1.37021 0.12002 -9.25994e-20)
(1.35601 0.111888 6.8312e-20)
(1.34146 0.103471 2.96436e-20)
(1.32705 0.0950008 -2.34798e-20)
(1.31287 0.086641 -1.90793e-20)
(1.29893 0.0785101 -1.75399e-20)
(1.28523 0.070712 5.28875e-20)
(1.27175 0.0633192 0)
(1.25853 0.0563849 2.51889e-20)
(1.2456 0.0499865 2.03213e-20)
(1.23299 0.0440875 -5.10298e-20)
(1.22071 0.0386449 -3.34692e-20)
(1.20892 0.0330083 3.08254e-20)
(0.0316601 -0.00198545 -3.38043e-20)
(0.215871 -0.00515943 -1.33379e-21)
(0.49645 0.0208701 2.80112e-20)
(0.80329 0.0643524 7.70144e-20)
(1.06234 0.107723 2.1529e-20)
(1.23945 0.139632 -4.11649e-20)
(1.33899 0.157619 3.70033e-20)
(1.38266 0.164217 -3.15714e-20)
(1.39319 0.163312 5.50077e-20)
(1.38719 0.158191 2.28651e-20)
(1.37436 0.150967 -6.40801e-20)
(1.35937 0.142774 1.86136e-20)
(1.34409 0.134165 3.10925e-20)
(1.32911 0.125415 -1.52198e-20)
(1.31454 0.116693 0)
(1.30038 0.108115 2.18709e-20)
(1.28661 0.0997821 3.6159e-20)
(1.27323 0.0917674 5.74874e-21)
(1.26025 0.0841333 -2.94079e-20)
(1.24769 0.0769384 1.20214e-20)
(1.23553 0.0701993 0)
(1.22374 0.0639261 -9.07809e-21)
(1.21232 0.0579586 -8.33869e-21)
(1.20123 0.0525576 0)
(0.0608468 -0.00303331 0)
(0.30481 0.00295425 1.64221e-20)
(0.627946 0.0468375 3.00614e-20)
(0.938419 0.103402 -7.84594e-20)
(1.1695 0.150232 2.49843e-20)
(1.30827 0.179433 0)
(1.37434 0.192721 3.49027e-20)
(1.395 0.195035 -4.79366e-20)
(1.39222 0.191045 -2.73458e-20)
(1.37951 0.183917 1.21836e-20)
(1.3636 0.175381 -1.88684e-20)
(1.34726 0.166259 4.55615e-20)
(1.33138 0.156927 2.23727e-20)
(1.31616 0.14757 -1.55578e-20)
(1.3016 0.13831 -1.58788e-21)
(1.28765 0.129244 -4.08708e-20)
(1.27424 0.120449 1.83985e-20)
(1.26135 0.111989 -4.39823e-22)
(1.24892 0.103923 0)
(1.23693 0.096296 -1.20332e-20)
(1.22535 0.0891395 0)
(1.21414 0.0823838 2.61051e-20)
(1.20331 0.076065 -3.06329e-20)
(1.1928 0.0708146 1.37646e-20)
(0.095597 -0.000955884 -9.41518e-21)
(0.400554 0.0207479 -4.18683e-20)
(0.753579 0.0840911 4.69317e-20)
(1.05266 0.150148 2.66964e-20)
(1.24979 0.196529 -1.268e-20)
(1.35287 0.220818 2.00991e-20)
(1.39203 0.228673 -9.73197e-21)
(1.39624 0.226703 1.55592e-20)
(1.38488 0.21977 0)
(1.36819 0.210656 3.38042e-20)
(1.35056 0.200682 -1.45815e-21)
(1.33348 0.190424 -2.655e-20)
(1.31728 0.180132 1.1199e-20)
(1.30198 0.16994 -1.24254e-20)
(1.28748 0.159943 -4.609e-21)
(1.27369 0.150218 5.35506e-21)
(1.26054 0.140824 -4.05405e-21)
(1.24801 0.131808 -2.15734e-20)
(1.23606 0.123213 1.31179e-20)
(1.22465 0.115081 2.63583e-21)
(1.21374 0.107397 2.28316e-21)
(1.20327 0.100127 1.9772e-21)
(1.19319 0.0934434 0)
(1.18337 0.0878758 0)
(0.13477 0.00520437 9.4266e-21)
(0.497594 0.0490985 -8.73048e-21)
(0.866265 0.131301 -1.56783e-20)
(1.14351 0.202702 0)
(1.3055 0.245473 -6.23704e-21)
(1.37764 0.26342 -5.40646e-21)
(1.39616 0.265518 -8.92688e-21)
(1.38902 0.259331 0)
(1.37231 0.249494 0)
(1.35335 0.238291 0)
(1.3348 0.226679 0)
(1.31737 0.215045 0)
(1.30109 0.203558 -7.02372e-21)
(1.28586 0.192305 3.16619e-21)
(1.27157 0.181357 5.41683e-21)
(1.25813 0.170769 2.50183e-21)
(1.24545 0.160585 6.09867e-21)
(1.23347 0.150842 0)
(1.22211 0.141574 -1.41336e-21)
(1.21133 0.13281 -1.32134e-21)
(1.20105 0.124521 -2.28674e-21)
(1.19125 0.116693 -1.9803e-21)
(1.18184 0.109624 0)
(1.17277 0.103585 1.36699e-21)
(-0.0213062 0.0062489 4.73719e-21)
(-0.0868337 0.00998605 -4.68576e-21)
(-0.180978 0.00927026 -9.04953e-21)
(-0.272434 0.00739986 0)
(-0.356709 0.00547728 -1.33569e-20)
(-0.434893 0.00367301 4.20261e-21)
(-0.506364 0.00195262 -8.83882e-21)
(-0.570283 0.000255317 0)
(-0.625649 -0.001475 0)
(-0.671348 -0.00329053 0)
(-0.706186 -0.00523964 0)
(-0.728931 -0.00736329 0)
(-0.738404 -0.0096933 -2.11004e-22)
(-0.733643 -0.0122452 -6.52292e-21)
(-0.714003 -0.0149575 1.1557e-20)
(-0.67934 -0.0177571 1.44262e-20)
(-0.629741 -0.0206746 3.93134e-21)
(-0.565632 -0.0236124 0)
(-0.488152 -0.026404 1.96106e-21)
(-0.399181 -0.0288197 -5.10157e-21)
(-0.301063 -0.0306292 -1.96819e-21)
(-0.196714 -0.0316279 -9.03658e-22)
(-0.090824 -0.0314787 0)
(0.0169465 -0.0321768 0)
(-0.0247388 0.0624543 -1.4541e-20)
(-0.0893814 0.109146 2.35485e-20)
(-0.178885 0.118473 -8.89872e-21)
(-0.265491 0.114993 -1.85738e-20)
(-0.345005 0.108268 2.60265e-20)
(-0.418307 0.100341 -1.85069e-20)
(-0.484686 0.091095 2.59973e-20)
(-0.543243 0.0801722 1.82045e-20)
(-0.592977 0.0673018 0)
(-0.632816 0.0523049 -1.73947e-20)
(-0.661659 0.0350878 -9.37808e-22)
(-0.678397 0.0156378 1.49432e-20)
(-0.681994 -0.00596432 2.23593e-20)
(-0.671504 -0.029529 2.59805e-20)
(-0.646178 -0.054835 -1.30557e-20)
(-0.606537 -0.0814184 -3.09959e-20)
(-0.55269 -0.108554 7.43781e-21)
(-0.484981 -0.135051 -2.90037e-20)
(-0.40451 -0.159391 0)
(-0.313202 -0.179961 3.26728e-21)
(-0.213633 -0.195163 1.96511e-21)
(-0.108149 -0.204317 9.02249e-22)
(-0.00433693 -0.20599 0)
(0.103467 -0.207777 0)
(-0.0306493 0.108616 0)
(-0.0920407 0.196068 5.14693e-20)
(-0.170224 0.218119 -1.90662e-20)
(-0.245084 0.215322 1.95369e-20)
(-0.313037 0.205161 -5.55885e-20)
(-0.374504 0.192149 0)
(-0.428618 0.176435 -3.86743e-20)
(-0.474404 0.157478 1.77212e-20)
(-0.510881 0.134854 -3.7865e-20)
(-0.537085 0.108303 1.95466e-20)
(-0.552132 0.077725 1.06918e-19)
(-0.555199 0.0431618 -4.96947e-20)
(-0.545573 0.00477707 -7.72747e-20)
(-0.523017 -0.0371236 -2.85399e-20)
(-0.487613 -0.0822215 2.53623e-21)
(-0.439296 -0.130268 8.96539e-20)
(-0.377973 -0.179594 -4.0148e-20)
(-0.304373 -0.228153 -2.51115e-21)
(-0.21972 -0.27307 0)
(-0.125624 -0.311522 -2.01936e-20)
(-0.026213 -0.33916 0)
(0.077314 -0.355291 -1.85897e-21)
(0.173884 -0.357543 1.42819e-20)
(0.27828 -0.357289 -4.55517e-21)
(-0.037027 0.138107 0)
(-0.0935508 0.261462 1.64188e-21)
(-0.155516 0.300348 2.15478e-20)
(-0.213187 0.302217 -2.20956e-20)
(-0.264116 0.290982 1.67367e-20)
(-0.308139 0.274475 1.19645e-19)
(-0.34418 0.25378 -3.79972e-20)
(-0.371172 0.228425 -4.00472e-20)
(-0.388187 0.197944 7.74603e-20)
(-0.394458 0.162105 -1.15137e-19)
(-0.389453 0.120911 3.6509e-20)
(-0.372921 0.0745611 3.63873e-20)
(-0.344782 0.0233666 0)
(-0.305251 -0.0324738 2.99297e-20)
(-0.256124 -0.0928917 0)
(-0.196753 -0.15695 5.2538e-20)
(-0.127119 -0.223246 -8.31147e-20)
(-0.0480606 -0.28961 2.60073e-20)
(0.0380931 -0.352245 6.37941e-20)
(0.13185 -0.405155 2.01675e-20)
(0.227667 -0.444323 0)
(0.322748 -0.466252 -2.70909e-20)
(0.403716 -0.469258 8.75704e-21)
(0.494869 -0.462947 0)
(-0.0415831 0.147441 0)
(-0.092626 0.298163 -7.01803e-20)
(-0.136012 0.357934 -2.30893e-20)
(-0.173226 0.369701 -4.40358e-20)
(-0.203658 0.36078 4.08053e-20)
(-0.226718 0.34286 -4.04665e-20)
(-0.241126 0.318916 8.50751e-20)
(-0.245761 0.289009 4.53279e-20)
(-0.239827 0.252833 -1.17878e-19)
(-0.222882 0.210337 8.1215e-20)
(-0.194879 0.161776 -1.1523e-19)
(-0.156209 0.107629 2.61515e-19)
(-0.107836 0.048403 -1.39646e-19)
(-0.0512719 -0.0156543 6.64078e-20)
(0.0119571 -0.084184 1.80303e-19)
(0.0826343 -0.156472 -5.73858e-20)
(0.160461 -0.23248 -5.57054e-20)
(0.244863 -0.310232 -4.37504e-20)
(0.333949 -0.385122 0)
(0.424664 -0.448362 -4.83105e-20)
(0.51033 -0.496672 -2.59535e-20)
(0.590817 -0.521696 5.08508e-20)
(0.650328 -0.526424 2.94251e-20)
(0.717627 -0.511847 -2.98579e-20)
(-0.0424086 0.137652 0)
(-0.088135 0.302683 -1.002e-19)
(-0.113811 0.384743 -2.95984e-21)
(-0.130092 0.411885 8.76274e-20)
(-0.138899 0.409748 0)
(-0.139908 0.39309 0)
(-0.131909 0.367651 0)
(-0.113875 0.33485 -4.42968e-20)
(-0.0852527 0.294926 -4.63233e-21)
(-0.0460262 0.248129 7.80659e-20)
(0.00322699 0.194986 -1.20399e-19)
(0.0612812 0.136226 -1.17861e-21)
(0.126477 0.072571 0)
(0.196861 0.00529218 -6.63492e-20)
(0.271393 -0.0652639 6.07716e-20)
(0.350303 -0.139954 -1.69053e-19)
(0.434532 -0.219753 1.94294e-19)
(0.524096 -0.302616 3.20308e-20)
(0.615447 -0.383626 -1.80344e-20)
(0.703134 -0.452268 -1.25417e-19)
(0.777511 -0.503722 -4.56141e-20)
(0.838504 -0.52698 1.08237e-19)
(0.87335 -0.531699 -6.88204e-20)
(0.910324 -0.508976 0)
(-0.0390129 0.113773 5.48267e-20)
(-0.079817 0.276335 5.02934e-20)
(-0.0913894 0.376808 -4.77666e-20)
(-0.0892705 0.422845 -9.22652e-20)
(-0.0779152 0.432603 8.54844e-20)
(-0.0580721 0.421084 -8.72667e-20)
(-0.0291603 0.396577 1.21801e-19)
(0.00946658 0.362636 -4.52435e-20)
(0.0579377 0.320682 7.80011e-20)
(0.115671 0.271536 0)
(0.181304 0.216024 7.7417e-20)
(0.252791 0.1547 -1.40361e-19)
(0.328435 0.0899779 1.39269e-19)
(0.406812 0.0227359 -1.2963e-19)
(0.487664 -0.0479526 0)
(0.573347 -0.123595 1.09111e-19)
(0.665853 -0.205121 1.88843e-19)
(0.763507 -0.289482 -1.77391e-19)
(0.858304 -0.370406 -7.08993e-20)
(0.940685 -0.435703 -5.08374e-20)
(0.999653 -0.482045 1.4719e-19)
(1.03666 -0.497978 2.90794e-20)
(1.04511 -0.499537 -3.4295e-20)
(1.05135 -0.470572 1.94446e-20)
(-0.0321875 0.0834023 -5.484e-20)
(-0.0682482 0.226976 1.55132e-19)
(-0.0713081 0.335277 -4.79377e-20)
(-0.0563288 0.398046 9.12732e-20)
(-0.0291137 0.422677 -8.45599e-20)
(0.00812726 0.420619 -3.70432e-21)
(0.0546447 0.400707 3.75114e-20)
(0.11011 0.368278 1.55577e-19)
(0.173888 0.326305 7.11027e-21)
(0.244727 0.276638 -7.3539e-20)
(0.320285 0.220061 0)
(0.399151 0.159518 -6.79573e-20)
(0.480724 0.0965733 1.2909e-19)
(0.564725 0.030178 1.22806e-19)
(0.654416 -0.0406567 -5.9261e-20)
(0.753389 -0.117042 -3.19169e-21)
(0.860793 -0.198164 -4.79925e-20)
(0.968472 -0.278819 7.90161e-20)
(1.06242 -0.351354 7.08982e-20)
(1.13106 -0.404901 -5.80261e-20)
(1.16654 -0.439118 4.44172e-20)
(1.17562 -0.445027 -3.48712e-20)
(1.15867 -0.443065 0)
(1.14052 -0.412244 -1.94545e-20)
(-0.0238236 0.0542128 5.53863e-20)
(-0.0551044 0.167772 -5.17089e-20)
(-0.0555321 0.269551 4.73375e-20)
(-0.0351417 0.339756 0)
(0.000832169 0.376222 0)
(0.0491898 0.384708 7.65116e-20)
(0.10767 0.372175 -7.44273e-20)
(0.174513 0.344268 7.33147e-20)
(0.248024 0.305048 -3.49899e-19)
(0.326054 0.257041 -2.81049e-21)
(0.407806 0.203604 6.30981e-20)
(0.493457 0.146974 0)
(0.584182 0.0860618 -1.21549e-19)
(0.683978 0.0206621 2.27128e-19)
(0.796069 -0.0494611 -1.61257e-19)
(0.918494 -0.123571 -2.41329e-19)
(1.04146 -0.197988 8.87488e-21)
(1.14914 -0.2666 1.5135e-19)
(1.22659 -0.322353 0)
(1.2671 -0.359174 0)
(1.27198 -0.379497 -4.44373e-20)
(1.25456 -0.378065 3.48885e-20)
(1.21972 -0.375908 -9.89506e-20)
(1.18911 -0.348204 9.22976e-20)
(-0.0163158 0.0314215 0)
(-0.0433436 0.112307 0)
(-0.0456491 0.195469 -1.41394e-19)
(-0.0267366 0.260446 4.32739e-20)
(0.0101865 0.299857 -3.72826e-22)
(0.0618759 0.314439 7.15922e-20)
(0.125151 0.308247 0)
(0.197311 0.285997 -6.57041e-20)
(0.276342 0.251868 6.78059e-20)
(0.362058 0.209888 -1.22632e-19)
(0.455821 0.162748 -2.86537e-21)
(0.560538 0.11027 1.17918e-19)
(0.679438 0.0532062 2.35911e-21)
(0.812883 -0.00775967 1.05943e-19)
(0.955144 -0.0711805 -1.48856e-19)
(1.09351 -0.134466 0)
(1.21138 -0.193046 1.54521e-19)
(1.29393 -0.242698 -2.16941e-19)
(1.3353 -0.278898 5.64135e-20)
(1.33957 -0.301282 0)
(1.31804 -0.312036 3.90738e-20)
(1.28526 -0.309733 1.22637e-19)
(1.24566 -0.310735 -1.14529e-19)
(1.21434 -0.2885 -9.8979e-20)
(-0.0119443 0.0170717 1.62921e-19)
(-0.0365555 0.0696213 -2.04249e-19)
(-0.043135 0.128486 1.04425e-21)
(-0.0296237 0.178217 4.29494e-20)
(0.00325542 0.210864 -7.79352e-20)
(0.0533218 0.224533 -7.39123e-20)
(0.118104 0.221029 1.36269e-19)
(0.19616 0.203825 5.83951e-21)
(0.288024 0.17668 -1.19934e-19)
(0.395815 0.142562 2.36517e-19)
(0.522178 0.102718 7.45509e-21)
(0.667074 0.0585309 -1.06396e-19)
(0.825603 0.0113097 0)
(0.987065 -0.0375168 0)
(1.13625 -0.0859436 -4.69542e-20)
(1.25705 -0.131531 -7.76671e-20)
(1.33777 -0.171182 -1.39848e-19)
(1.37549 -0.203184 1.30387e-19)
(1.37762 -0.22539 -5.64771e-20)
(1.35615 -0.24062 8.56818e-20)
(1.32445 -0.247582 -4.8006e-20)
(1.29015 -0.249631 5.08667e-20)
(1.25574 -0.252549 -1.34423e-19)
(1.22832 -0.236243 2.09908e-20)
(-0.0121886 0.0108619 5.41889e-20)
(-0.0368354 0.0428873 0)
(-0.0471559 0.0783236 9.2419e-20)
(-0.0377005 0.109048 -8.55708e-20)
(-0.00663971 0.129568 7.80518e-20)
(0.046443 0.13774 0)
(0.122122 0.134252 0)
(0.221842 0.1213 -6.17438e-20)
(0.347132 0.101395 -2.8634e-21)
(0.497455 0.0764534 5.28808e-20)
(0.667589 0.0479479 -5.34307e-20)
(0.846902 0.0170213 1.00743e-19)
(1.02054 -0.015396 0)
(1.17224 -0.0483127 1.78304e-19)
(1.28821 -0.0804728 -3.27792e-19)
(1.36118 -0.110323 2.28468e-19)
(1.39289 -0.136265 1.26391e-19)
(1.393 -0.157627 -1.17847e-19)
(1.37435 -0.173479 0)
(1.34685 -0.186283 0)
(1.31766 -0.192021 0)
(1.28705 -0.199183 0)
(1.25889 -0.198649 2.49779e-20)
(1.23324 -0.192396 -7.62282e-20)
(0.134303 -0.0249356 8.34135e-22)
(0.25306 -0.0166978 -8.31275e-22)
(0.358445 -0.00982982 3.09315e-23)
(0.45101 -0.00420538 0)
(0.531503 0.000466885 9.41364e-22)
(0.600786 0.00441626 -1.76794e-21)
(0.659953 0.00774895 6.80605e-23)
(0.71022 0.0105373 7.39048e-22)
(0.752727 0.012882 0)
(0.78844 0.0148999 0)
(0.818337 0.0166472 2.93057e-23)
(0.843313 0.0180615 2.55862e-23)
(0.864122 0.0192845 3.63859e-22)
(0.881504 0.0203515 -3.31645e-22)
(0.896061 0.0212825 0)
(0.908271 0.0221269 0)
(0.918592 0.022852 -2.04921e-22)
(0.927429 0.0234404 1.70367e-23)
(0.935091 0.0239442 1.66198e-22)
(0.94181 0.0244543 9.43759e-24)
(0.947755 0.0250326 0)
(0.953047 0.0256925 0)
(0.95777 0.0264188 0)
(0.96199 0.0271899 0)
(0.965763 0.0279902 0)
(0.969141 0.028813 0)
(0.97217 0.0296594 -2.74772e-23)
(0.974891 0.0305342 4.46786e-23)
(0.977342 0.0314432 0)
(0.979553 0.0323927 0)
(0.981553 0.0333889 2.70857e-23)
(0.983365 0.0344382 -2.63186e-23)
(0.985009 0.0355469 -1.20243e-23)
(0.986505 0.0367219 0)
(0.987867 0.03797 0)
(0.989109 0.0392987 -1.94743e-23)
(0.990244 0.040715 1.89275e-23)
(0.991282 0.0422264 0)
(0.992233 0.0438409 -1.63148e-23)
(0.993106 0.0455674 2.36783e-23)
(0.993909 0.047416 -7.38573e-24)
(0.994649 0.0493972 0)
(0.995332 0.0515225 1.29831e-23)
(0.995965 0.0538044 -1.26241e-23)
(0.996552 0.0562564 0)
(0.997099 0.058893 0)
(0.997611 0.0617299 5.0846e-24)
(0.998091 0.0647856 -1.46481e-23)
(0.998547 0.0680722 0)
(0.998974 0.071632 0)
(0.999395 0.0754098 3.73776e-24)
(0.999777 0.0796629 8.48776e-27)
(1.00019 0.0837494 2.68404e-25)
(1.00053 0.0893998 -2.66721e-24)
(1.00094 0.0926995 0)
(1.00128 0.10173 0)
(1.00165 0.102158 0)
(1.00204 0.115849 0)
(1.00235 0.114823 0)
(1.00282 0.129723 0)
(0.213313 -0.182151 4.97921e-23)
(0.320348 -0.150596 3.66877e-21)
(0.413503 -0.122946 3.24666e-22)
(0.495189 -0.0988939 -3.74808e-21)
(0.566377 -0.0782409 -5.50708e-23)
(0.627884 -0.0607568 0)
(0.680527 -0.0460254 2.9358e-21)
(0.725388 -0.0336711 -5.53932e-21)
(0.763637 -0.0233444 2.60375e-21)
(0.796267 -0.0147133 -2.03648e-21)
(0.823904 -0.00750291 1.94822e-21)
(0.847194 -0.00160266 -1.53071e-21)
(0.866797 0.00322855 1.4882e-21)
(0.883264 0.00736382 3.88835e-23)
(0.897215 0.0109402 1.05199e-21)
(0.9091 0.0137858 -1.02166e-21)
(0.919228 0.0160018 8.21601e-22)
(0.927923 0.0177493 -7.74217e-22)
(0.935479 0.01916 6.61877e-22)
(0.942131 0.0203833 -1.22523e-21)
(0.948041 0.0215367 5.66451e-22)
(0.953319 0.0226759 3.05921e-23)
(0.958044 0.0238106 4.27975e-22)
(0.962276 0.0249325 -8.04465e-22)
(0.966067 0.026034 3.77625e-22)
(0.969464 0.0271148 -2.08537e-23)
(0.972514 0.0281819 -3.06943e-22)
(0.975256 0.0292455 6.33976e-24)
(0.977727 0.0303163 5.18929e-22)
(0.979959 0.031405 -4.80018e-22)
(0.981978 0.0325215 2.27649e-22)
(0.98381 0.0336749 -2.58864e-23)
(0.985475 0.034874 1.20497e-23)
(0.986991 0.0361272 -2.25871e-23)
(0.988374 0.0374432 0)
(0.989639 0.0388307 0)
(0.990796 0.0402983 7.3621e-23)
(0.991857 0.0418554 -5.39321e-23)
(0.992832 0.0435108 -4.88625e-23)
(0.99373 0.0452733 -6.01112e-24)
(0.994558 0.0471534 6.75019e-23)
(0.995325 0.0491622 -1.39972e-23)
(0.996037 0.0513117 0)
(0.996699 0.0536151 0)
(0.997317 0.056086 0)
(0.997897 0.0587393 0)
(0.998443 0.0615908 -2.07788e-23)
(0.998959 0.0646592 9.71271e-24)
(0.999453 0.0679569 0)
(0.99992 0.0715265 0)
(1.00038 0.0753116 0)
(1.00081 0.0795737 6.5363e-24)
(1.00126 0.0836613 -5.04504e-25)
(1.00165 0.0893255 5.6192e-24)
(1.00211 0.092614 0)
(1.00248 0.101666 0)
(1.00293 0.102081 -2.87018e-24)
(1.00334 0.115778 -6.80037e-24)
(1.00369 0.11476 0)
(1.00422 0.129661 0)
(0.369547 -0.316502 -3.19912e-21)
(0.451814 -0.266116 3.59804e-21)
(0.521182 -0.22082 -6.67254e-21)
(0.582706 -0.180573 6.25195e-21)
(0.636435 -0.145424 5.54659e-23)
(0.682988 -0.115928 0)
(0.723182 -0.0916205 5.65622e-21)
(0.757786 -0.0715022 -5.52438e-21)
(0.787687 -0.054705 -3.74777e-23)
(0.813652 -0.0406854 -6.25905e-23)
(0.836182 -0.0290993 -5.55428e-23)
(0.855701 -0.0195406 -5.08458e-23)
(0.872744 -0.0116639 2.69583e-21)
(0.88765 -0.00507937 -2.65699e-21)
(0.900389 0.000439983 0)
(0.911252 0.00513529 -5.99432e-23)
(0.920737 0.00897575 1.64351e-21)
(0.929045 0.0118945 -1.61994e-21)
(0.936333 0.0142068 0)
(0.942796 0.0161525 0)
(0.948579 0.0178928 1.08792e-21)
(0.953778 0.0195226 -2.03626e-21)
(0.958456 0.0210783 1.78539e-21)
(0.962664 0.0225649 -7.91349e-23)
(0.966445 0.0239817 -1.45112e-21)
(0.969842 0.0253338 1.36713e-21)
(0.972898 0.0266329 -1.19489e-21)
(0.97565 0.0278941 6.57394e-23)
(0.978133 0.0291336 5.35896e-22)
(0.980379 0.0303664 0)
(0.982414 0.0316067 0)
(0.984262 0.0328668 -1.52175e-22)
(0.985945 0.0341583 1.98446e-22)
(0.987479 0.0354921 -4.11237e-26)
(0.988882 0.0368781 -1.67498e-22)
(0.990166 0.0383263 1.62754e-22)
(0.991345 0.0398463 0)
(0.992429 0.0414486 -1.76961e-23)
(0.993428 0.0431438 -1.48405e-22)
(0.99435 0.0449422 2.83908e-22)
(0.995204 0.0468542 -1.20852e-22)
(0.995997 0.0488909 -1.40908e-23)
(0.996737 0.0510648 1.31218e-22)
(0.997429 0.0533898 -1.01731e-22)
(0.998078 0.0558799 -2.36244e-23)
(0.998691 0.0585502 -2.22264e-23)
(0.999271 0.0614168 2.08343e-23)
(0.999824 0.0644985 0)
(1.00035 0.067808 0)
(1.00086 0.0713884 6.6478e-23)
(1.00136 0.0751823 -3.18824e-23)
(1.00183 0.0794546 2.82632e-23)
(1.00233 0.0835454 -3.81926e-23)
(1.00276 0.0892247 -4.38834e-23)
(1.00328 0.0925059 1.02926e-23)
(1.00368 0.101581 -1.63189e-23)
(1.0042 0.101985 1.30041e-23)
(1.00463 0.115693 -5.5899e-24)
(1.00504 0.114681 0)
(1.00563 0.129593 0)
(0.555786 -0.415325 9.38449e-22)
(0.604234 -0.354503 5.32121e-21)
(0.643172 -0.297087 -5.97853e-21)
(0.680109 -0.244962 9.31243e-23)
(0.713778 -0.199086 0)
(0.743416 -0.160097 0)
(0.769891 -0.128035 1.01574e-20)
(0.793675 -0.101885 -4.50429e-22)
(0.81497 -0.0803218 -1.32484e-20)
(0.834075 -0.0623595 3.74617e-22)
(0.851248 -0.0473904 3.70528e-21)
(0.866699 -0.0349559 2.8818e-21)
(0.880595 -0.0246397 -2.8895e-21)
(0.893061 -0.0161291 0)
(0.904339 -0.00905375 2.07338e-21)
(0.914415 -0.00307385 -1.89338e-21)
(0.923107 0.00192953 0)
(0.930738 0.00608742 0)
(0.937622 0.0092868 -1.3097e-21)
(0.943807 0.0119098 9.54743e-23)
(0.949387 0.0142091 1.10787e-21)
(0.954443 0.0163129 9.88871e-22)
(0.959025 0.0182795 -9.86107e-22)
(0.96317 0.0201263 8.15029e-22)
(0.966911 0.0218585 -6.97333e-23)
(0.970286 0.023485 -6.99458e-22)
(0.97333 0.0250208 -7.76385e-23)
(0.976078 0.0264848 1.6565e-26)
(0.978563 0.0278973 0)
(0.980815 0.0292779 -4.76636e-22)
(0.98286 0.0306446 4.91231e-22)
(0.984721 0.032013 -2.62721e-23)
(0.986418 0.033398 0)
(0.987969 0.0348129 2.29097e-23)
(0.989389 0.0362697 -3.38052e-22)
(0.990692 0.03778 6.05651e-22)
(0.991891 0.0393543 2.82734e-23)
(0.992996 0.0410034 -8.77387e-24)
(0.994018 0.0427384 -2.3989e-22)
(0.994964 0.0445716 -3.17494e-23)
(0.995844 0.0465149 2.36616e-22)
(0.996664 0.0485796 -2.01627e-22)
(0.997431 0.0507782 4.30129e-26)
(0.998153 0.0531247 -9.93389e-23)
(0.998833 0.0556339 1.20284e-22)
(0.999478 0.0583212 1.54896e-22)
(1.00009 0.0612031 -4.34217e-23)
(1.00068 0.0642986 -7.68081e-23)
(1.00125 0.0676205 1.46011e-22)
(1.0018 0.0712125 -1.03164e-22)
(1.00234 0.0750161 2.91619e-23)
(1.00286 0.0793 -3.23214e-23)
(1.0034 0.083396 -2.76166e-23)
(1.00387 0.0890917 6.66175e-23)
(1.00445 0.0923695 -1.22049e-24)
(1.00488 0.101468 1.64258e-23)
(1.00547 0.101867 0)
(1.00592 0.115592 5.67602e-24)
(1.00638 0.114585 -7.93065e-24)
(1.00703 0.129519 0)
(0.74209 -0.467081 6.17323e-21)
(0.75461 -0.406603 -5.67563e-21)
(0.761342 -0.345917 -2.76089e-22)
(0.771793 -0.288859 -7.06805e-21)
(0.785028 -0.237995 1.51369e-20)
(0.798694 -0.194103 5.89645e-22)
(0.81225 -0.157064 -8.45565e-21)
(0.826016 -0.126448 -8.1802e-21)
(0.83978 -0.101332 8.00665e-21)
(0.853116 -0.0805389 0)
(0.86577 -0.0631908 6.32887e-21)
(0.877655 -0.0487161 -1.18392e-20)
(0.888812 -0.0366488 5.53549e-21)
(0.899261 -0.0265074 0)
(0.9089 -0.017892 0)
(0.917767 -0.0107106 -6.0139e-23)
(0.925924 -0.00479289 3.25389e-21)
(0.933067 0.000135935 -3.15905e-21)
(0.939347 0.00434204 0)
(0.945151 0.00767133 -2.43758e-21)
(0.950465 0.0105121 4.42568e-21)
(0.95532 0.0130766 -4.00141e-21)
(0.959754 0.0154461 3.68398e-21)
(0.963796 0.0176474 -1.06331e-22)
(0.967466 0.0196916 -3.05215e-21)
(0.970794 0.0215911 1.45686e-21)
(0.973807 0.0233635 3.92952e-23)
(0.976538 0.025031 5.27741e-22)
(0.979015 0.0266182 -2.66508e-23)
(0.981266 0.0281485 -5.05781e-22)
(0.983315 0.0296432 -2.85938e-23)
(0.985184 0.0311213 4.17484e-22)
(0.986892 0.0326005 -7.95201e-22)
(0.988457 0.0340966 4.24955e-22)
(0.989893 0.035624 0)
(0.991214 0.0371959 3.6201e-22)
(0.992432 0.0388246 -3.50318e-22)
(0.993557 0.0405219 2.48521e-22)
(0.9946 0.0422986 -3.10483e-22)
(0.99557 0.0441669 3.21268e-23)
(0.996475 0.0461403 0)
(0.997321 0.0482321 2.86136e-23)
(0.998116 0.0504553 -8.09485e-23)
(0.998867 0.0528235 0)
(0.999579 0.0553517 -2.36519e-22)
(1.00026 0.0580559 9.31225e-23)
(1.00091 0.060953 -4.22042e-23)
(1.00153 0.0640624 -3.95264e-23)
(1.00214 0.0673968 0)
(1.00273 0.071001 0)
(1.00331 0.0748148 9.19155e-23)
(1.00387 0.0791113 -1.42408e-22)
(1.00445 0.0832139 7.90716e-23)
(1.00498 0.088927 -2.51744e-23)
(1.0056 0.0922048 -4.17775e-23)
(1.00607 0.101328 -1.64435e-23)
(1.00673 0.101726 2.63254e-23)
(1.00722 0.115474 0)
(1.00771 0.114469 1.27269e-23)
(1.00844 0.129437 2.95354e-24)
(0.901698 -0.473074 1.26788e-20)
(0.884801 -0.421749 -1.24815e-20)
(0.865345 -0.366529 -2.05822e-24)
(0.852901 -0.312142 -3.80391e-24)
(0.847754 -0.262146 -4.75077e-23)
(0.847522 -0.218005 5.59527e-23)
(0.850393 -0.179706 -8.25568e-23)
(0.855389 -0.146972 0)
(0.862223 -0.119433 9.32676e-23)
(0.870425 -0.0964931 -9.1783e-23)
(0.879266 -0.077315 -8.76041e-23)
(0.888205 -0.0612155 9.03558e-23)
(0.896983 -0.0476837 0)
(0.905526 -0.036272 0)
(0.91379 -0.0265341 -6.29751e-23)
(0.921589 -0.0181457 0)
(0.92882 -0.0111216 5.16735e-23)
(0.935593 -0.0054784 0)
(0.941575 -0.000753355 2.52938e-21)
(0.946836 0.00337698 -4.82651e-21)
(0.951795 0.00678281 4.37443e-21)
(0.956398 0.00978758 -2.08266e-21)
(0.960639 0.0125465 -1.77073e-21)
(0.964536 0.0150985 1.71878e-21)
(0.968104 0.0174565 1.52263e-21)
(0.97136 0.0196339 -1.47532e-21)
(0.974326 0.0216485 0)
(0.977025 0.023525 -3.66134e-23)
(0.979484 0.0252914 0)
(0.981726 0.0269753 0)
(0.983774 0.0286013 -8.51842e-22)
(0.985646 0.0301918 8.83278e-22)
(0.987363 0.0317672 -5.03791e-23)
(0.988939 0.0333458 -4.70451e-23)
(0.99039 0.0349441 4.41083e-23)
(0.991727 0.0365776 3.2573e-22)
(0.992963 0.0382599 -3.16224e-22)
(0.994108 0.0400045 3.25011e-22)
(0.995173 0.0418238 -2.80042e-22)
(0.996165 0.0437294 -6.50042e-23)
(0.997094 0.0457337 2.41838e-22)
(0.997967 0.0478516 2.23024e-23)
(0.99879 0.0500985 -1.66972e-22)
(0.99957 0.0524883 0)
(1.00031 0.0550358 9.67913e-23)
(1.00102 0.0577572 -1.33361e-22)
(1.00171 0.0606695 1.73614e-22)
(1.00237 0.0637928 3.97915e-23)
(1.00301 0.0671399 0)
(1.00364 0.0707567 -3.24343e-23)
(1.00427 0.0745813 6.48423e-23)
(1.00487 0.0788912 -7.13204e-26)
(1.0055 0.0830016 2.59012e-23)
(1.00607 0.0887332 -4.33466e-23)
(1.00675 0.0920138 4.19729e-23)
(1.00725 0.101162 0)
(1.00799 0.101562 -2.6341e-23)
(1.0085 0.115339 0)
(1.00905 0.114336 0)
(1.00985 0.129347 -3.90944e-24)
(1.01915 -0.446116 -1.79667e-20)
(0.983844 -0.408515 1.75904e-20)