/*--------------------------------*- C++ -*----------------------------------*\
| =========                 |                                                 |
| \\      /  F ield         | OpenFOAM: The Open Source CFD Toolbox           |
|  \\    /   O peration     | Version:  2312                                  |
|   \\  /    A nd           | Website:  www.openfoam.com                      |
|    \\/     M anipulation  |                                                 |
\*---------------------------------------------------------------------------*/
FoamFile
{
    version     2.0;
    format      ascii;
    arch        "LSB;label=32;scalar=64";
    class       surfaceScalarField;
    location    "10.5";
    object      phi;
}
// * * * * * * * * * * * * * * * * * * * * * * * * * * * * * * * * * * * * * //

dimensions      [0 3 -1 0 0 0 0];

oriented        oriented;

internalField   nonuniform List<scalar> 
18180
(
-0.00469
-0.0249135
0.0296035
-0.00225018
-0.0210636
0.0186238
0.00983984
-0.0139033
0.00181329
0.0276053
-0.0105003
-0.00726522
0.0476748
-0.0103784
-0.00969116
0.0702379
-0.012627
-0.00993602
0.0895197
-0.01627
-0.00301177
0.0987002
-0.0179664
0.00878584
0.11156
-0.0230874
0.0102276
0.142617
-0.045252
0.014195
0.18079
-0.0816682
0.0434953
0.203157
-0.112389
0.0900225
0.207981
-0.129753
0.124928
0.20267
-0.138305
0.143616
0.193661
-0.141946
0.150955
0.18646
-0.146001
0.153201
0.180312
-0.149297
0.155445
0.17424
-0.151829
0.157902
0.168773
-0.153182
0.158649
-0.156802
0.162981
0.162595
-0.00896392
-0.0159496
-0.0160828
-0.0139447
-0.0133955
-0.0165906
0.000553031
-0.0244488
0.0192113
-0.0290366
0.0388461
-0.0322619
0.0579028
-0.0353266
0.0835054
-0.043569
0.120709
-0.0602915
0.160472
-0.0850142
0.184637
-0.105833
0.189264
-0.117017
0.183448
-0.123936
0.174132
-0.128989
0.167771
-0.135585
0.163834
-0.142065
0.160204
-0.145666
0.160462
-0.152088
0.163287
-0.156007
-0.16038
0.166865
-0.0139338
-0.00201576
-0.0239778
-0.00390083
-0.0199669
-0.0206014
-0.00411282
-0.0403029
0.017697
-0.0508464
0.043879
-0.0584439
0.0748772
-0.0663249
0.109225
-0.0779164
0.13964
-0.0907069
0.155382
-0.100756
0.15605
-0.106502
0.151771
-0.112738
0.148723
-0.120888
0.15009
-0.130356
0.152449
-0.137943
0.153127
-0.142743
0.156077
-0.148616
0.15696
-0.152972
0.156612
-0.155659
-0.160165
0.156397
-0.0133294
0.0113136
-0.0167278
-0.000502428
-0.000454281
-0.0368749
0.0219831
-0.0627403
0.0476188
-0.0764821
0.0726836
-0.0835087
0.0959418
-0.0895831
0.111901
-0.0938754
0.118197
-0.0970033
0.118937
-0.101495
0.121024
-0.108589
0.126065
-0.117779
0.131086
-0.125909
0.132876
-0.132146
0.131983
-0.13705
0.131399
-0.142159
0.129684
-0.146901
0.127663
-0.15095
0.12838
-0.156376
-0.161408
0.129623
-0.00860812
0.0199217
0.00216812
-0.0112787
0.026709
-0.0614158
0.0468673
-0.0828986
0.0621235
-0.0917383
0.0734322
-0.0948174
0.0799047
-0.0960556
0.0839618
-0.0979325
0.090092
-0.103134
0.0994149
-0.110818
0.107717
-0.116892
0.111998
-0.12206
0.112844
-0.126755
0.112753
-0.132055
0.113018
-0.137316
0.113612
-0.142753
0.114708
-0.147996
0.116873
-0.153115
0.118291
-0.157794
-0.160671
0.117553
-0.00426928
0.024191
0.0189714
-0.0345193
0.0350475
-0.0774919
0.0465843
-0.0944354
0.0539898
-0.0991438
0.0596215
-0.100449
0.0669638
-0.103398
0.0764215
-0.10739
0.0847443
-0.111456
0.0888914
-0.114965
0.0902752
-0.118275
0.0916237
-0.123408
0.0939655
-0.129096
0.0966365
-0.134726
0.0987766
-0.139456
0.0999869
-0.143964
0.100565
-0.148575
0.100508
-0.153058
0.100745
-0.158032
-0.163425
0.1035
0.00590222
0.0182888
0.0302093
-0.0588264
0.0394438
-0.0867264
0.0469509
-0.101942
0.0533154
-0.105508
0.0597491
-0.106883
0.0650171
-0.108666
0.0675876
-0.109961
0.0688215
-0.11269
0.0707235
-0.116867
0.0734511
-0.121003
0.0757803
-0.125738
0.0769213
-0.130237
0.0772019
-0.135006
0.0769385
-0.139192
0.0766407
-0.143666
0.076937
-0.148871
0.0762721
-0.152393
0.0759683
-0.157728
-0.161665
0.0742081
0.0105802
0.00770857
0.0311771
-0.0794234
0.043987
-0.0995362
0.0477756
-0.105731
0.0489772
-0.10671
0.0493224
-0.107228
0.0497811
-0.109125
0.0518839
-0.112063
0.0553122
-0.116119
0.0583419
-0.119897
0.0606479
-0.123309
0.0622141
-0.127304
0.0632749
-0.131298
0.0639572
-0.135689
0.0646838
-0.139919
0.0655131
-0.144495
0.0657176
-0.149076
0.066381
-0.153057
0.0666586
-0.158006
-0.162022
0.0670157
0.026232
-0.0185234
0.0365358
-0.0897272
0.0392235
-0.102224
0.0385808
-0.105088
0.037865
-0.105994
0.0393227
-0.108686
0.0421918
-0.111994
0.0443777
-0.114249
0.0452528
-0.116994
0.045512
-0.120156
0.0456321
-0.123429
0.0459335
-0.127605
0.046322
-0.131687
0.0465454
-0.135912
0.046007
-0.139381
0.0450337
-0.143522
0.0454476
-0.149489
0.0447604
-0.152369
0.0440498
-0.157295
-0.16179
0.0438187
0.0294202
-0.0479436
0.0304972
-0.0908042
0.0282415
-0.0999683
0.0296054
-0.106452
0.0317339
-0.108123
0.032821
-0.109773
0.0326789
-0.111852
0.0325868
-0.114157
0.032768
-0.117175
0.0329299
-0.120318
0.0333533
-0.123852
0.0330027
-0.127255
0.0316989
-0.130383
0.030943
-0.135156
0.0308196
-0.139257
0.0299531
-0.142655
0.0278015
-0.147338
0.0260708
-0.150639
0.0251277
-0.156352
0.0233107
-0.159973
-0.012832
0.0728736
-0.0600416
-0.0247873
0.0740323
-0.062077
-0.0366647
0.0705302
-0.0586529
-0.049312
0.0704928
-0.0578455
-0.0606814
0.066862
-0.0554926
-0.0711173
0.0610493
-0.0506134
-0.0807526
0.0545685
-0.0449332
-0.0891853
0.0460367
-0.0376039
-0.0968781
0.036752
-0.0290593
-0.102367
0.0244297
-0.0189408
-0.106318
0.0114691
-0.00751779
-0.108092
-0.00291735
0.00469146
-0.105281
-0.0195282
0.0167171
-0.100714
-0.0330333
0.0284664
-0.0918762
-0.0495991
0.0407609
-0.0820781
-0.0601721
0.0503739
-0.0694721
-0.0736678
0.0610618
-0.0557275
-0.0790952
0.0653507
-0.0417798
-0.0861539
0.0722062
-0.0877019
-0.0269625
0.0728847
-0.00698598
0.0798596
-0.0140129
0.0810592
-0.02243
0.0789473
-0.0303734
0.0784362
-0.0368457
0.0733343
-0.0425157
0.0667193
-0.0476002
0.059653
-0.0518752
0.0503117
-0.0543162
0.039193
-0.0554416
0.0255551
-0.0527711
0.00879861
-0.0483607
-0.00732782
-0.0396475
-0.0282414
-0.0269086
-0.0457722
-0.0109547
-0.0655529
0.00722043
-0.0783472
0.0278163
-0.0942636
0.049166
-0.100445
0.0715245
-0.108512
-0.108496
0.0923186
-0.000200685
0.0800602
-0.00471941
0.0855779
-0.00777223
0.0820001
-0.00970781
0.0803718
-0.0111214
0.0747478
-0.013373
0.0689708
-0.0151193
0.0613993
-0.015593
0.0507854
-0.0136877
0.0372877
-0.0107204
0.0225878
-0.00515858
0.00323682
0.00202261
-0.014509
0.0122695
-0.0384883
0.0249053
-0.058408
0.0400687
-0.0807163
0.060587
-0.0988655
0.0807641
-0.114441
0.10255
-0.122231
0.122542
-0.128505
-0.1272
0.141246
0.00572842
0.0743318
0.00862435
0.082682
0.0107238
0.0799007
0.0122558
0.0788398
0.0125592
0.0744445
0.0130163
0.0685137
0.0153865
0.0590291
0.0183545
0.0478174
0.0219861
0.0336561
0.0260728
0.0185011
0.0325418
-0.00323212
0.0399649
-0.0219321
0.0476572
-0.0461806
0.0592699
-0.0700208
0.0735478
-0.0949942
0.091736
-0.117054
0.112057
-0.134762
0.128466
-0.13864
0.14135
-0.141388
-0.139719
0.153869
0.0128238
0.0615081
0.0196376
0.0758681
0.0249019
0.0746363
0.0298353
0.0739064
0.0332727
0.0710071
0.0381644
0.0636219
0.0431413
0.0540522
0.0479845
0.0429742
0.0525806
0.0290601
0.0588679
0.0122138
0.062775
-0.00713927
0.0670876
-0.0262447
0.0713614
-0.0504544
0.0814744
-0.0801338
0.0986999
-0.11222
0.118882
-0.137236
0.133655
-0.149535
0.147025
-0.15201
0.160359
-0.154722
-0.150281
0.170921
0.0200527
0.0414554
0.032488
0.0634328
0.0410573
0.066067
0.0481428
0.0668209
0.0561517
0.0629983
0.0622218
0.0575518
0.0676358
0.0486382
0.073832
0.036778
0.0790687
0.0238233
0.0871287
0.00415376
0.0903102
-0.0103208
0.0915859
-0.0275203
0.0952562
-0.0541247
0.111584
-0.096462
0.132688
-0.133323
0.151261
-0.155809
0.166237
-0.16451
0.177743
-0.163517
0.185102
-0.162081
-0.15599
0.190812
0.0330339
0.0084215
0.0465152
0.0499515
0.0538385
0.0587437
0.0625702
0.0580892
0.0707044
0.0548641
0.0789802
0.049276
0.0878691
0.0397493
0.0938092
0.0308379
0.103086
0.0145463
0.111264
-0.00402377
0.112021
-0.0110778
0.11276
-0.0282592
0.125733
-0.0670985
0.147386
-0.118115
0.164802
-0.150739
0.176761
-0.167768
0.181426
-0.169176
0.184013
-0.166104
0.18569
-0.163758
-0.15686
0.18656
0.0295293
-0.0211078
0.0528872
0.0265936
0.0679525
0.0436784
0.0779024
0.0481393
0.0857012
0.0470653
0.0969592
0.038018
0.104784
0.0319243
0.112931
0.0226916
0.125752
0.00172502
0.130078
-0.00834955
0.131076
-0.0120762
0.140845
-0.0380287
0.162761
-0.0890138
0.179389
-0.134743
0.18613
-0.157479
0.186124
-0.167762
0.182278
-0.16533
0.178312
-0.162138
0.175895
-0.16134
-0.157216
0.176251
0.007821
-0.0289288
0.0372041
-0.00278946
0.0619849
0.0188976
0.0795027
0.0306214
0.0966864
0.0298817
0.10875
0.0259542
0.117388
0.0232863
0.13249
0.00758989
0.142296
-0.00808104
0.14231
-0.00836393
0.14954
-0.0193053
0.172362
-0.0608514
0.194592
-0.111243
0.201854
-0.142006
0.201216
-0.156841
0.193658
-0.160205
0.186703
-0.158374
0.186366
-0.161801
0.186377
-0.161351
-0.160099
0.189259
0.000674697
0.016509
0.0372199
0.0605761
0.0807667
0.0967848
0.117059
0.133435
0.135582
0.141413
0.165603
0.194774
0.208459
0.21007
0.204184
0.197181
0.194251
0.190352
0.187649
0.190532
-0.0138627
-0.116689
0.103589
-0.00206593
-0.112355
0.100558
0.0056931
-0.106366
0.0986071
0.0241725
-0.100777
0.0822977
0.045405
-0.0991502
0.0779177
0.0730347
-0.0893829
0.0617532
0.0994922
-0.0749601
0.0485026
0.123237
-0.059651
0.0359065
0.143388
-0.0454676
0.0253163
0.159357
-0.0330914
0.0171227
0.171431
-0.0240548
0.0119807
0.180987
-0.0193344
0.00977804
0.189351
-0.0172936
0.00892962
0.196654
-0.0149794
0.00767623
0.2021
-0.011488
0.00604265
0.205346
-0.00902929
0.00578264
0.207158
-0.0102122
0.00840037
0.208691
-0.0147701
0.0132369
0.210563
-0.0193432
0.0174718
0.212687
-0.0201963
0.0180722
0.214726
-0.0157896
0.0137502
0.216498
-0.00706514
0.00529348
0.218056
0.00372559
-0.00528384
0.219449
0.0144681
-0.0158612
0.220625
0.0238648
-0.02504
0.221542
0.0314372
-0.0323546
0.222205
0.0373057
-0.0379689
0.222648
0.0418492
-0.0422924
0.222912
0.0454631
-0.0457268
0.223031
0.0484588
-0.048578
0.223033
0.0510464
-0.0510479
0.222937
0.0533744
-0.0532783
0.22276
0.0555231
-0.0553461
0.222514
0.0576063
-0.0573602
0.222208
0.0595913
-0.0592859
0.221847
0.0617346
-0.0613734
0.221441
0.0636339
-0.0632276
0.220978
0.0662581
-0.065796
0.220485
0.067852
-0.0673585
0.219926
0.0718013
-0.0712423
0.219353
0.0723374
-0.071764
0.218703
0.0789999
-0.0783507
0.218042
0.0776105
-0.0769488
0.217324
0.0878137
-0.087096
0.216556
0.0854369
-0.0846684
0.215776
0.0975606
-0.0967814
0.214919
0.0972511
-0.0963933
0.214048
0.11006
-0.10919
0.213124
0.112073
-0.111149
0.127649
-0.126652
0.0996703
-0.124041
0.105262
-0.117946
0.100867
-0.101971
0.0918381
-0.0917482
0.0885075
-0.0958195
0.0973144
-0.0981898
0.112671
-0.0903165
0.130023
-0.0770033
0.147317
-0.0627611
0.162513
-0.0482876
0.174005
-0.0355468
0.18222
-0.0275493
0.189195
-0.0242687
0.196072
-0.0218564
0.201975
-0.0173908
0.205593
-0.0126482
0.207074
-0.011693
0.207988
-0.015684
0.209808
-0.0211634
0.212701
-0.0230891
0.215789
-0.0188773
0.218258
-0.00953466
0.219915
0.00206886
0.221062
0.0133212
0.221894
0.0230328
0.222514
0.030817
0.222954
0.0368659
0.223232
0.0415711
0.223373
0.0453224
0.223402
0.0484293
0.223343
0.0511059
0.223209
0.053508
0.223011
0.0557214
0.222752
0.0578653
0.222438
0.0599046
0.222073
0.0621004
0.221663
0.0640435
0.221199
0.0667223
0.220704
0.0683465
0.220148
0.0723578
0.219577
0.0729086
0.218933
0.0796434
0.218275
0.078269
0.217559
0.0885292
0.216796
0.0862
0.216008
0.0983485
0.215155
0.0981041
0.214266
0.110949
0.213334
0.113005
0.128665
0.148493
-0.131288
0.159623
-0.129076
0.169058
-0.111406
0.166638
-0.0893282
0.152722
-0.0819031
0.139974
-0.0854414
0.135907
-0.0862501
0.138915
-0.0800112
0.146593
-0.0704392
0.157152
-0.058846
0.167603
-0.0459978
0.17579
-0.0357362
0.182442
-0.0309215
0.189238
-0.0286519
0.195929
-0.0240818
0.200665
-0.0173849
0.202608
-0.0136352
0.20315
-0.016226
0.204571
-0.0225851
0.207939
-0.0264565
0.212465
-0.0234035
0.216652
-0.0137219
0.219521
-0.00079959
0.221178
0.0116642
0.222009
0.0222018
0.222424
0.0304012
0.222654
0.0366365
0.222789
0.0414361
0.222852
0.0452589
0.222846
0.0484358
0.222769
0.0511826
0.222626
0.0536512
0.222425
0.0559226
0.222171
0.0581191
0.221871
0.0602041
0.221527
0.0624449
0.221147
0.0644238
0.220719
0.0671497
0.220266
0.0687991
0.219757
0.0728672
0.219235
0.0734302
0.218649
0.0802303
0.218049
0.078868
0.217395
0.0891838
0.216701
0.086894
0.215969
0.0990804
0.215188
0.0988854
0.214347
0.11179
0.213478
0.113874
0.129636
0.153036
-0.130455
0.147912
-0.123952
0.147204
-0.110698
0.157593
-0.099718
0.166924
-0.0912332
0.167182
-0.0856998
0.162873
-0.081941
0.159043
-0.076181
0.157509
-0.0689052
0.160245
-0.0615828
0.166356
-0.0521079
0.172511
-0.0418915
0.177443
-0.0358531
0.182654
-0.0338638
0.18906
-0.0304872
0.195067
-0.0233921
0.198575
-0.0171434
0.199597
-0.0172477
0.200275
-0.0232631
0.202748
-0.02893
0.207293
-0.0279485
0.212466
-0.0188941
0.216629
-0.00496321
0.219207
0.00908656
0.220481
0.020928
0.220976
0.0299056
0.221118
0.0364952
0.221136
0.041418
0.22112
0.0452745
0.221089
0.0484667
0.221036
0.0512358
0.22095
0.0537378
0.220821
0.0560507
0.220647
0.0582932
0.220432
0.0604194
0.220174
0.0627032
0.21988
0.0647173
0.219542
0.0674878
0.219183
0.069158
0.218774
0.0732769
0.218355
0.0738484
0.217876
0.0807093
0.21739
0.0793541
0.216849
0.0897253
0.216282
0.0874613
0.215665
0.0996972
0.215019
0.0995314
0.214292
0.112516
0.213552
0.114615
0.130486
0.161062
-0.120596
0.152035
-0.114925
0.142412
-0.101075
0.139646
-0.0969517
0.146503
-0.0980904
0.154898
-0.0940948
0.159666
-0.086709
0.161786
-0.0783015
0.162541
-0.0696598
0.163823
-0.0628647
0.16767
-0.0559554
0.172765
-0.0469864
0.17637
-0.0394582
0.179151
-0.0366451
0.183237
-0.0345731
0.188448
-0.0286031
0.192537
-0.0212319
0.194254
-0.0189649
0.194807
-0.0238162
0.196526
-0.0306492
0.200588
-0.0320103
0.206147
-0.0244527
0.211469
-0.0102853
0.215198
0.00535708
0.217316
0.0188106
0.218265
0.0289561
0.218602
0.0361583
0.218694
0.0413259
0.21871
0.0452584
0.218702
0.0484749
0.218673
0.0512645
0.21862
0.0537913
0.218539
0.0561314
0.218428
0.0584041
0.218291
0.0605564
0.218125
0.0628692
0.217939
0.064904
0.217719
0.0677076
0.217487
0.06939
0.217213
0.0735506
0.216939
0.0741226
0.216616
0.0810325
0.216293
0.0796768
0.215921
0.090097
0.215536
0.0878468
0.215096
0.100137
0.214644
0.0999833
0.2141
0.11306
0.213556
0.115159
0.13115
0.178475
-0.10826
0.166593
-0.103043
0.162611
-0.0970931
0.160845
-0.0951859
0.15905
-0.096295
0.15874
-0.0937847
0.159644
-0.0876132
0.160798
-0.0794555
0.160919
-0.0697812
0.160456
-0.0624013
0.162384
-0.0578833
0.166927
-0.0515293
0.171111
-0.0436421
0.17389
-0.0394243
0.177238
-0.0379217
0.182086
-0.0334504
0.186526
-0.0256717
0.188562
-0.0210018
0.188716
-0.0239696
0.189461
-0.0313944
0.192765
-0.0353147
0.198382
-0.0300696
0.204482
-0.0163851
0.209247
0.000591778
0.212274
0.0157844
0.213793
0.0274364
0.214411
0.0355408
0.214636
0.041101
0.214752
0.0451417
0.214865
0.0483619
0.214987
0.0511429
0.2151
0.0536784
0.215189
0.0560427
0.215246
0.0583467
0.215277
0.0605255
0.215279
0.0628676
0.215262
0.0649205
0.215218
0.0677515
0.21517
0.0694378
0.215089
0.073632
0.215014
0.0741978
0.214897
0.0811498
0.214789
0.0797847
0.214636
0.0902496
0.214487
0.087996
0.214278
0.100346
0.21408
0.100181
0.213778
0.113362
0.213492
0.115445
0.131559
0.180037
-0.101737
0.175601
-0.098607
0.173878
-0.0953703
0.171559
-0.0928665
0.165596
-0.0903317
0.158734
-0.0869233
0.154599
-0.0834775
0.154648
-0.0795049
0.156882
-0.0720156
0.157611
-0.0631296
0.157529
-0.0578019
0.159319
-0.0533192
0.162206
-0.0465293
0.164516
-0.0417342
0.167532
-0.0409372
0.172681
-0.0385996
0.1784
-0.0313912
0.18187
-0.0244718
0.182429
-0.0245279
0.18227
-0.0312355
0.18425
-0.0372953
0.18928
-0.0350992
0.195918
-0.0230227
0.201959
-0.00544967
0.2062
0.0115431
0.208651
0.0249857
0.209831
0.0343607
0.210331
0.0406011
0.210555
0.0449177
0.210708
0.0482094
0.210865
0.050985
0.211044
0.0535002
0.211233
0.0558533
0.211422
0.0581578
0.211608
0.0603399
0.21178
0.0626946
0.211951
0.0647504
0.212105
0.0675973
0.212268
0.0692751
0.212408
0.0734918
0.212569
0.0740361
0.212701
0.081018
0.212858
0.0796281
0.212979
0.0901288
0.213119
0.0878556
0.213204
0.100261
0.213316
0.10007
0.213328
0.11335
0.213364
0.115408
0.131637
0.161472
-0.0869576
0.155525
-0.0926606
0.154217
-0.094062
0.151357
-0.0900061
0.145183
-0.0841587
0.139604
-0.0813433
0.135582
-0.0794559
0.13403
-0.0779533
0.136761
-0.0747459
0.141256
-0.0676254
0.145074
-0.0616192
0.149628
-0.0578738
0.154395
-0.0512965
0.157269
-0.044608
0.159351
-0.0430192
0.16344
-0.0426881
0.169193
-0.0371438
0.173519
-0.0287986
0.174692
-0.0257001
0.174233
-0.0307772
0.175197
-0.0382587
0.17933
-0.0392326
0.185839
-0.0295319
0.192585
-0.012196
0.197796
0.00633288
0.201136
0.021645
0.202964
0.0325335
0.20393
0.0396344
0.204527
0.0443208
0.205003
0.047734
0.205446
0.0505413
0.20588
0.0530667
0.206303
0.0554299
0.206717
0.0577437
0.20713
0.0599276
0.207535
0.062289
0.207948
0.064338
0.208354
0.0671908
0.208782
0.0688473
0.209198
0.0730752
0.209647
0.0735872
0.210078
0.0805874
0.210544
0.0791624
0.210986
0.0896862
0.211462
0.0873796
0.211892
0.0998304
0.212365
0.0995972
0.212745
0.11297
0.213161
0.114992
0.131329
0.172518
-0.0702167
0.154211
-0.0743532
0.137918
-0.0777693
0.127786
-0.0798734
0.124205
-0.0805777
0.125344
-0.0824824
0.126984
-0.0810961
0.126491
-0.0774606
0.126608
-0.074863
0.129213
-0.0702305
0.132742
-0.0651476
0.137504
-0.0626362
0.143924
-0.0577161
0.148946
-0.0496301
0.151469
-0.0455427
0.154536
-0.0457546
0.159882
-0.0424896
0.165098
-0.0340146
0.167333
-0.0279353
0.166905
-0.0303498
0.166837
-0.0381904
0.169777
-0.0421729
0.175811
-0.0355659
0.183078
-0.0194629
0.189337
7.36855e-05
0.193744
0.0172384
0.196299
0.0299783
0.197636
0.0382981
0.198383
0.0435732
0.198944
0.0471736
0.199494
0.0499905
0.200081
0.0524802
0.200701
0.0548101
0.20134
0.057104
0.201997
0.0592711
0.20266
0.0616256
0.203345
0.0636532
0.204034
0.0665022
0.204759
0.0681224
0.205481
0.0723528
0.206256
0.0728123
0.207023
0.0798209
0.207847
0.078338
0.208658
0.0888749
0.209525
0.0865131
0.210355
0.0990003
0.211246
0.0987057
0.212056
0.11216
0.212907
0.114142
0.130555
0.18016
-0.0598448
0.16782
-0.0620137
0.15412
-0.0640685
0.142486
-0.0682398
0.134294
-0.0723858
0.128711
-0.0768995
0.12525
-0.0776346
0.122523
-0.0747343
0.120284
-0.0726233
0.119894
-0.0698409
0.120192
-0.0654457
0.121693
-0.0641369
0.126607
-0.0626298
0.132594
-0.0556178
0.136344
-0.0492923
0.139547
-0.0489576
0.14498
-0.0479224
0.151267
-0.0403019
0.155009
-0.0316772
0.155508
-0.0308493
0.15549
-0.0381721
0.158084
-0.0447669
0.16398
-0.0414619
0.171496
-0.0269789
0.178535
-0.00696553
0.183935
0.0118385
0.187509
0.0264043
0.189669
0.0361378
0.19099
0.0422523
0.191927
0.046237
0.192745
0.0491727
0.193557
0.0516677
0.194404
0.0539635
0.195286
0.0562219
0.196203
0.0583536
0.197145
0.0606837
0.198128
0.0626708
0.199129
0.0655006
0.200187
0.0670642
0.201257
0.0712826
0.202401
0.071669
0.20355
0.078672
0.204774
0.0771139
0.206004
0.0876446
0.2073
0.0852167
0.208589
0.0977118
0.209941
0.0973533
0.211243
0.110858
0.21258
0.112805
0.129256
0.240913
-0.0498059
-0.250952
0.235418
-0.0565185
0.232993
-0.0616437
0.230244
-0.0654907
0.224756
-0.0668981
0.216676
-0.068819
0.208332
-0.0692904
0.201473
-0.0678752
0.196549
-0.0677
0.192894
-0.0661856
0.189315
-0.0618663
0.185423
-0.0602456
0.182449
-0.0596557
0.18062
-0.0537886
0.179061
-0.0477334
0.177968
-0.0478643
0.178232
-0.0481865
0.17942
-0.0414895
0.180261
-0.0325184
0.180368
-0.0309563
0.180443
-0.0382468
0.181318
-0.0456422
0.183163
-0.0433066
0.185391
-0.0292072
0.187292
-0.0088668
0.188219
0.010912
0.188528
0.0260952
0.188518
0.0361478
0.188433
0.0423373
0.188389
0.0462804
0.188419
0.0491428
0.188518
0.0515687
0.188676
0.0538061
0.188876
0.0560217
0.189099
0.0581304
0.18934
0.0604427
0.189584
0.0624269
0.189845
0.0652396
0.190092
0.0668174
0.190365
0.0710096
0.190609
0.0714247
0.190885
0.0783959
0.191142
0.076857
0.191403
0.087384
0.191691
0.0849287
0.191934
0.0974681
0.192242
0.097046
0.192485
0.110614
0.192803
0.112487
0.128998
0.254419
-0.0411828
-0.263042
0.245683
-0.0477829
0.237438
-0.0533983
0.229148
-0.0572015
0.221031
-0.0587808
0.214151
-0.0619388
0.208584
-0.0637233
0.204071
-0.0633623
0.201137
-0.0647665
0.199366
-0.064414
0.197521
-0.0600215
0.195205
-0.0579298
0.193132
-0.0575824
0.191633
-0.0522894
0.190399
-0.0464996
0.189671
-0.0471365
0.189816
-0.0483318
0.190605
-0.0422779
0.191465
-0.0333787
0.19216
-0.0316514
0.192951
-0.0390375
0.194188
-0.0468791
0.195952
-0.0450707
0.197936
-0.0311912
0.19959
-0.0105206
0.200783
0.00971836
0.201355
0.0255237
0.201522
0.0359803
0.201514
0.0423452
0.201493
0.0463016
0.201527
0.0491085
0.201628
0.0514677
0.201789
0.0536455
0.201996
0.0558151
0.202229
0.0578966
0.202484
0.0601877
0.202746
0.0621648
0.203027
0.0649594
0.203297
0.0665467
0.203593
0.0707138
0.203868
0.0711497
0.20417
0.0780946
0.204464
0.0765629
0.20475
0.0870973
0.205081
0.0845983
0.205352
0.0971964
0.205704
0.0966941
0.205981
0.110338
0.206334
0.112135
0.128683
0.268201
-0.0350409
-0.274343
0.261485
-0.0410674
0.255201
-0.0471134
0.249296
-0.0512974
0.243388
-0.0528721
0.237952
-0.0565034
0.23296
-0.0587311
0.227717
-0.0581188
0.222298
-0.0593474
0.217297
-0.0594138
0.213237
-0.0559611
0.210513
-0.0552053
0.209355
-0.0564252
0.209055
-0.0519892
0.208613
-0.046057
0.208194
-0.0467183
0.208513
-0.0486506
0.209434
-0.0431989
0.210119
-0.0340639
0.210188
-0.0317196
0.209998
-0.0388483
0.210243
-0.0471234
0.211185
-0.046013
0.212617
-0.0326231
0.214102
-0.0120053
0.215039
0.00878132
0.215518
0.0250449
0.215649
0.0358487
0.215622
0.0423722
0.215576
0.0463477
0.215586
0.0490986
0.215671
0.0513824
0.215824
0.0534923
0.216032
0.0556077
0.216274
0.0576542
0.216543
0.059919
0.216824
0.0618838
0.217125
0.064658
0.217424
0.0662481
0.217745
0.0703923
0.218056
0.070839
0.218385
0.0777659
0.218721
0.0762269
0.219038
0.0867803
0.219412
0.0842235
0.219722
0.0968865
0.220115
0.0963018
0.220442
0.11001
0.220839
0.111738
0.128324
0.28255
-0.03069
-0.286901
0.276455
-0.0349722
0.270153
-0.0408114
0.264329
-0.0454738
0.258784
-0.0473268
0.252986
-0.0507056
0.247143
-0.0528876
0.242101
-0.0530769
0.237794
-0.0550407
0.233873
-0.0554924
0.230671
-0.0527594
0.227978
-0.0525118
0.225477
-0.053925
0.223531
-0.0500426
0.222165
-0.0446908
0.221332
-0.045886
0.221142
-0.0484598
0.221276
-0.0433334
0.221401
-0.034189
0.221608
-0.0319266
0.222324
-0.0395644
0.223734
-0.0485332
0.225592
-0.0478711
0.227408
-0.0344392
0.228789
-0.0133864
0.229775
0.00779533
0.230305
0.024515
0.230516
0.035638
0.230553
0.0423349
0.230546
0.0463546
0.230574
0.0490712
0.230667
0.0512894
0.230825
0.0533338
0.231039
0.055394
0.231292
0.057401
0.231577
0.059634
0.231881
0.06158
0.232207
0.0643325
0.232537
0.0659179
0.232885
0.0700441
0.233236
0.0704878
0.233593
0.077409
0.233977
0.0758428
0.234328
0.0864289
0.234751
0.0838011
0.235109
0.0965286
0.235542
0.0958682
0.235933
0.10962
0.236378
0.111293
0.127922
0.296136
-0.0263753
-0.300451
0.291127
-0.0299634
0.286151
-0.0358346
0.281029
-0.0403519
0.275643
-0.0419409
0.270622
-0.0456845
0.265819
-0.0480853
0.260729
-0.0479869
0.256333
-0.0506446
0.25296
-0.0521194
0.249803
-0.049602
0.246823
-0.0495314
0.244659
-0.0517617
0.243322
-0.0487058
0.241998
-0.0433664
0.240663
-0.0445505
0.240125
-0.047922
0.240424
-0.0436328
0.240814
-0.0345791
0.24093
-0.032042
0.240938
-0.0395731
0.241207
-0.0488019
0.242064
-0.0487275
0.243384
-0.0357599
0.244727
-0.0147288
0.245659
0.00686339
0.246193
0.0239802
0.246426
0.0354052
0.246499
0.0422624
0.246524
0.0463292
0.246574
0.049021
0.246683
0.0511803
0.246854
0.0531627
0.24708
0.0551687
0.247349
0.0571317
0.247655
0.0593281
0.247984
0.0612512
0.248334
0.0639818
0.248698
0.0655545
0.249076
0.0696658
0.249472
0.0700915
0.249863
0.0770184
0.250301
0.0754051
0.250693
0.086037
0.251169
0.0833243
0.25158
0.0961181
0.252068
0.0953805
0.252521
0.109166
0.253018
0.110797
0.127455
0.310412
-0.0228108
-0.313977
0.306606
-0.0261569
0.302826
-0.0320555
0.298203
-0.0357285
0.293259
-0.0369968
0.288665
-0.0410907
0.284211
-0.0436309
0.279978
-0.043754
0.276028
-0.0466945
0.271973
-0.0480648
0.268068
-0.0456967
0.265149
-0.0466124
0.262819
-0.0494318
0.260696
-0.0465831
0.259092
-0.0417626
0.258134
-0.0435918
0.257678
-0.0474667
0.257438
-0.0433926
0.257223
-0.0343638
0.257215
-0.0320342
0.257674
-0.0400318
0.258597
-0.0497252
0.259787
-0.0499178
0.26098
-0.036953
0.26198
-0.0157286
0.262716
0.00612794
0.263169
0.0235267
0.263404
0.03517
0.263512
0.0421546
0.263578
0.0462632
0.263661
0.0489379
0.263794
0.0510473
0.263984
0.0529733
0.264226
0.0549263
0.264515
0.0568429
0.264842
0.0590008
0.265197
0.0608963
0.265577
0.0636024
0.265978
0.0651527
0.266393
0.0692511
0.266839
0.0696457
0.26727
0.0765869
0.267766
0.0749097
0.268207
0.0855963
0.268744
0.0827867
0.269214
0.0956487
0.269768
0.0948263
0.270283
0.108651
0.270847
0.110233
0.126909
0.326298
-0.0204928
-0.328616
0.323753
-0.0236121
0.320373
-0.0286749
0.315943
-0.0312987
0.311721
-0.0327746
0.307924
-0.0372937
0.303954
-0.0396616
0.299698
-0.039498
0.295566
-0.0425618
0.291978
-0.044477
0.288791
-0.0425097
0.28585
-0.0436718
0.283397
-0.0469784
0.281506
-0.0446921
0.279957
-0.0402141
0.278572
-0.0422064
0.277619
-0.0465137
0.277246
-0.0430192
0.277097
-0.0342148
0.276992
-0.0319293
0.277094
-0.0401337
0.277538
-0.0501693
0.278325
-0.0507051
0.279293
-0.0379209
0.2802
-0.0166353
0.280883
0.00544435
0.281322
0.0230876
0.281574
0.0349187
0.281714
0.0420142
0.281814
0.0461627
0.281927
0.0488251
0.282083
0.0508914
0.282292
0.0527644
0.282553
0.054665
0.282863
0.0565336
0.283214
0.0586496
0.2836
0.0605101
0.284014
0.0631881
0.28446
0.0647072
0.284916
0.0687952
0.285416
0.0691449
0.285895
0.0761081
0.286455
0.0743504
0.286952
0.0850984
0.287557
0.0821821
0.288097
0.0951092
0.288723
0.0941997
0.289311
0.108063
0.289957
0.109588
0.126281
0.344053
-0.0188725
-0.345673
0.341748
-0.0213073
0.338825
-0.0257516
0.335066
-0.0275395
0.331432
-0.0291413
0.328
-0.0338612
0.324102
-0.0357633
0.320254
-0.0356506
0.316862
-0.0391694
0.313458
-0.0410732
0.310081
-0.0391325
0.307299
-0.0408904
0.304965
-0.0446444
0.302638
-0.0423651
0.300644
-0.0382201
0.299326
-0.0408884
0.298501
-0.0456887
0.297868
-0.0423859
0.297329
-0.0336753
0.297051
-0.0316523
0.297238
-0.0403199
0.297819
-0.0507505
0.298569
-0.0514555
0.299316
-0.0386682
0.299963
-0.0172814
0.300453
0.0049539
0.300794
0.0227464
0.30102
0.0346928
0.301174
0.0418602
0.301303
0.0460343
0.301445
0.048683
0.301625
0.0507109
0.301856
0.0525338
0.30214
0.0543814
0.302475
0.0561986
0.302856
0.0582685
0.303279
0.060087
0.303732
0.0627347
0.304226
0.0642135
0.304728
0.0682928
0.30529
0.0685828
0.305823
0.0755753
0.306455
0.0737187
0.307018
0.0845355
0.307699
0.0815007
0.308319
0.0944895
0.309025
0.0934935
0.309702
0.107386
0.31044
0.10885
0.125565
0.362812
-0.0170757
-0.364609
0.360954
-0.0194491
0.358434
-0.0232315
0.355147
-0.0242523
0.352097
-0.0260918
0.34911
-0.030874
0.34564
-0.0322929
0.342198
-0.032209
0.339005
-0.0359766
0.335793
-0.0378614
0.33267
-0.0360094
0.329889
-0.0381093
0.327436
-0.0421915
0.325223
-0.0401517
0.323379
-0.0363756
0.321963
-0.039473
0.320849
-0.0445745
0.319996
-0.0415327
0.319412
-0.0330912
0.319135
-0.0313756
0.319219
-0.0404035
0.319584
-0.0511161
0.320072
-0.0519432
0.320567
-0.0391634
0.321001
-0.017715
0.321348
0.00460619
0.321612
0.022483
0.321813
0.0344916
0.321976
0.0416972
0.322129
0.0458811
0.322299
0.0485132
0.322505
0.0505047
0.322762
0.0522772
0.323074
0.0540694
0.32344
0.0558323
0.323855
0.0578532
0.324319
0.0596232
0.324816
0.0622376
0.325364
0.0636656
0.32592
0.0677367
0.326552
0.0679516
0.327147
0.0749798
0.32786
0.0730054
0.328497
0.0838985
0.329267
0.0807307
0.329976
0.0937804
0.330776
0.0926935
0.331554
0.106608
0.332396
0.108008
0.124743
0.382851
-0.0154025
-0.384525
0.381353
-0.0179504
0.379282
-0.0211607
0.376567
-0.0215378
0.374114
-0.0236386
0.371522
-0.0282817
0.368276
-0.0290466
0.365149
-0.0290825
0.36235
-0.0331776
0.359359
-0.0348699
0.356395
-0.0330451
0.353895
-0.0356094
0.351613
-0.0399103
0.349272
-0.0378106
0.347217
-0.0343205
0.345773
-0.0380289
0.344705
-0.0435059
0.343709
-0.0405375
0.342858
-0.0322402
0.342391
-0.0309085
0.342409
-0.0404212
0.342732
-0.051439
0.343092
-0.052303
0.343368
-0.0394399
0.343573
-0.01792
0.343741
0.00443825
0.343897
0.0223267
0.344054
0.0343355
0.344213
0.0415374
0.344384
0.0457103
0.344579
0.048318
0.344814
0.0502695
0.345102
0.0519895
0.345446
0.0537251
0.345848
0.0554308
0.346302
0.0573991
0.346812
0.0591129
0.34736
0.0616896
0.34797
0.0630557
0.348588
0.0671188
0.349297
0.0672425
0.349965
0.0743125
0.35077
0.0722001
0.351492
0.0831767
0.352363
0.0798596
0.353173
0.0929706
0.354083
0.0917834
0.354973
0.105718
0.355936
0.107045
0.123799
0.404633
-0.0142782
-0.405757
0.403596
-0.0169139
0.401739
-0.0193039
0.399382
-0.01918
0.397386
-0.0216429
0.395113
-0.0260084
0.392204
-0.0261382
0.38949
-0.0263682
0.387018
-0.0307061
0.384267
-0.0321183
0.38153
-0.0303079
0.379163
-0.0332428
0.376885
-0.0376319
0.37458
-0.035506
0.372645
-0.0323852
0.371244
-0.0366287
0.370039
-0.0423003
0.368831
-0.0393301
0.367842
-0.0312507
0.367357
-0.0304237
0.367361
-0.040425
0.367578
-0.0516565
0.367733
-0.0524582
0.367751
-0.039458
0.367708
-0.0178765
0.36769
0.00445669
0.367731
0.0222853
0.367833
0.0342337
0.36798
0.04139
0.368163
0.0455279
0.368383
0.0480981
0.368649
0.0500033
0.36897
0.0516682
0.369351
0.0533448
0.369793
0.0549882
0.370293
0.056899
0.370858
0.0585483
0.371465
0.0610829
0.372145
0.0623752
0.372834
0.0664303
0.373631
0.066445
0.374381
0.0735629
0.375291
0.0712901
0.376109
0.082358
0.377096
0.0788727
0.378021
0.0920459
0.379058
0.0907464
0.380077
0.104699
0.381179
0.105942
0.122714
0.428471
-0.013502
-0.429247
0.427523
-0.0159655
0.42572
-0.0175017
0.423707
-0.0171664
0.422158
-0.0200937
0.420202
-0.024053
0.4176
-0.0235358
0.415258
-0.024026
0.41308
-0.0285287
0.410489
-0.0295268
0.40794
-0.0277594
0.405852
-0.0311546