/*--------------------------------*- C++ -*----------------------------------*\
| =========                 |                                                 |
| \\      /  F ield         | OpenFOAM: The Open Source CFD Toolbox           |
|  \\    /   O peration     | Version:  2312                                  |
|   \\  /    A nd           | Website:  www.openfoam.com                      |
|    \\/     M anipulation  |                                                 |
\*---------------------------------------------------------------------------*/
FoamFile
{
    version     2.0;
    format      ascii;
    arch        "LSB;label=32;scalar=64";
    class       surfaceScalarField;
    location    "18";
    object      phi;
}
// * * * * * * * * * * * * * * * * * * * * * * * * * * * * * * * * * * * * * //

dimensions      [0 3 -1 0 0 0 0];

oriented        oriented;

internalField   nonuniform List<scalar> 
18180
(
-0.0110993
-0.0149549
0.0260541
-0.0219316
-0.00817898
0.0190113
-0.0297763
-0.00023833
0.00808305
-0.0325159
-0.00130665
0.00404625
-0.0302948
-0.00831775
0.00609663
-0.025342
-0.014631
0.00967817
-0.0158349
-0.0235296
0.0140225
-0.00278526
-0.029802
0.0167524
0.0126578
-0.0285573
0.0131143
0.0268408
-0.0306982
0.0165152
0.0475846
-0.0263946
0.0056508
0.0662986
-0.0273132
0.00859923
0.0895455
-0.0230816
-0.000165281
0.112592
-0.0216022
-0.00144413
0.140912
-0.0166356
-0.0116845
0.175521
-0.0234552
-0.0111541
0.218662
-0.0343992
-0.00874195
0.265543
-0.0660711
0.0191903
0.306353
-0.0923624
0.0515519
-0.118004
0.10557
0.318788
-0.0159121
0.000957223
-0.0304167
0.0063256
-0.0407975
0.0101425
-0.0415594
-0.000544789
-0.034735
-0.0151421
-0.0243732
-0.0249928
-0.0100533
-0.0378495
0.00597907
-0.0458344
0.0236314
-0.0462096
0.0408484
-0.0479152
0.0622095
-0.0477556
0.0821736
-0.0472774
0.106023
-0.0469306
0.131373
-0.0469525
0.164788
-0.0500502
0.201126
-0.0597937
0.241747
-0.0750206
0.268231
-0.0925548
0.278984
-0.103115
-0.111736
0.272716
-0.0150301
0.0159873
-0.0272068
0.0185023
-0.0341119
0.0170476
-0.0309999
-0.00365675
-0.0190494
-0.0270926
-2.55218e-05
-0.0440166
0.0200774
-0.0579524
0.0383348
-0.0640918
0.0572699
-0.0651447
0.075788
-0.0664333
0.0940406
-0.0660082
0.11203
-0.0652671
0.131602
-0.0665021
0.153309
-0.0686599
0.178527
-0.0752676
0.200611
-0.0818779
0.213963
-0.0883722
0.217154
-0.0957467
0.219236
-0.105197
-0.118229
0.225729
-0.00544779
0.0214351
-0.010217
0.0232715
-0.0114077
0.0182383
-0.00469456
-0.0103699
0.0098571
-0.0416443
0.0292352
-0.0633947
0.0464182
-0.0751355
0.0613965
-0.0790701
0.0757965
-0.0795447
0.0887582
-0.079395
0.100652
-0.077902
0.112987
-0.0776022
0.127082
-0.0805966
0.140281
-0.0818599
0.150668
-0.0856544
0.158813
-0.0900228
0.168028
-0.0975867
0.180528
-0.108247
0.193066
-0.117735
-0.126823
0.20166
0.00397452
0.0174606
0.00751705
0.0197289
0.0114569
0.0142984
0.0222659
-0.0211789
0.0381038
-0.0574822
0.0524882
-0.0777791
0.0624087
-0.085056
0.0697554
-0.0864168
0.0763951
-0.0861844
0.0821931
-0.0851931
0.0889024
-0.0846112
0.0975851
-0.0862849
0.105798
-0.0888094
0.114724
-0.0907862
0.127506
-0.0984364
0.141433
-0.103949
0.153723
-0.109877
0.162376
-0.1169
0.167922
-0.123281
-0.130895
0.171994
0.00932823
0.00813237
0.016522
0.0125352
0.0243407
0.00647969
0.0419809
-0.0388191
0.055746
-0.0712472
0.0631576
-0.0851907
0.0671441
-0.0890425
0.0701694
-0.0894422
0.0737762
-0.0897913
0.0784503
-0.0898672
0.0852805
-0.0914414
0.0934425
-0.0944469
0.101788
-0.0971548
0.112339
-0.101338
0.120386
-0.106483
0.124532
-0.108095
0.129033
-0.114377
0.134687
-0.122554
0.140823
-0.129417
-0.136269
0.146197
0.0101205
-0.00198816
0.0125768
0.010079
0.0331207
-0.0140642
0.0526991
-0.0583975
0.0617308
-0.0802789
0.0644215
-0.0878813
0.0651244
-0.0897454
0.0666682
-0.090986
0.0693284
-0.0924515
0.0734521
-0.0939909
0.0786585
-0.0966477
0.0828895
-0.0986779
0.0871461
-0.101411
0.09216
-0.106352
0.0966479
-0.110971
0.101616
-0.113063
0.108442
-0.121204
0.114535
-0.128647
0.117944
-0.132826
-0.138524
0.120199
-0.00220875
0.000220596
0.0104225
-0.00255227
0.0428338
-0.0464755
0.0548637
-0.0704275
0.0571864
-0.0826017
0.0568422
-0.0875371
0.0571425
-0.0900457
0.0585349
-0.0923784
0.060586
-0.0945026
0.0628693
-0.0962741
0.0647502
-0.0985287
0.0679102
-0.101838
0.0728631
-0.106364
0.0782479
-0.111736
0.081982
-0.114705
0.086619
-0.1177
0.0910328
-0.125618
0.0943549
-0.131969
0.0971917
-0.135663
-0.141072
0.0997403
-0.00386317
0.00408377
0.0247155
-0.031131
0.0414049
-0.0631649
0.0485737
-0.0775963
0.0497854
-0.0838134
0.0499047
-0.0876564
0.0502558
-0.0903968
0.0510992
-0.0932218
0.0520955
-0.0954989
0.0539472
-0.0981258
0.0571471
-0.101729
0.0600193
-0.10471
0.0624691
-0.108814
0.064473
-0.11374
0.0656956
-0.115928
0.0680381
-0.120043
0.0700002
-0.12758
0.0717973
-0.133766
0.0735287
-0.137394
-0.142546
0.0750025
0.00354226
0.000541504
0.0292861
-0.0568748
0.0380054
-0.0718842
0.0405493
-0.0801401
0.0412256
-0.0844897
0.0410896
-0.0875204
0.0411898
-0.090497
0.0416106
-0.0936426
0.0424013
-0.0962897
0.0431174
-0.0988418
0.043303
-0.101914
0.0440733
-0.10548
0.0457578
-0.110499
0.0472471
-0.11523
0.0485776
-0.117258
0.0507197
-0.122185
0.0523356
-0.129196
0.0523866
-0.133817
0.0524145
-0.137422
0.0542207
-0.144352
0.000164173
-0.0678128
0.0676486
-0.00266483
-0.0695098
0.0723389
-0.00600157
-0.0633658
0.0667026
-0.00826577
-0.0551439
0.0574081
-0.0105479
-0.0449656
0.0472478
-0.0122231
-0.0326516
0.0343268
-0.0134878
-0.0182452
0.0195099
-0.0147206
-0.00326906
0.00450183
-0.0170863
0.0125585
-0.0101927
-0.0220385
0.0289671
-0.0240148
-0.0285232
0.0458735
-0.0393888
-0.0367348
0.0644632
-0.0562516
-0.0473954
0.0849225
-0.0742619
-0.0575202
0.105751
-0.0956258
-0.0652583
0.126004
-0.118266
-0.0770231
0.143937
-0.132172
-0.0876487
0.159774
-0.149149
-0.0973553
0.170699
-0.160992
-0.106829
0.179914
-0.170441
0.183468
-0.113712
-0.176585
-0.00265038
-0.0651624
-0.00654572
-0.0656145
-0.011653
-0.0582585
-0.0164738
-0.0503231
-0.0205555
-0.040884
-0.0240318
-0.0291752
-0.0269555
-0.0153216
-0.0307204
0.000495885
-0.0344246
0.0162626
-0.0389738
0.0335163
-0.0449994
0.0518992
-0.0520673
0.071531
-0.0592402
0.0920955
-0.0666503
0.113161
-0.0736907
0.133045
-0.0788286
0.149075
-0.082248
0.163194
-0.0843514
0.172802
-0.0808796
0.176443
0.176326
-0.0737376
-0.00481673
-0.0603457
-0.0102247
-0.0602066
-0.0158523
-0.0526309
-0.0218265
-0.0443489
-0.0279074
-0.0348031
-0.0331298
-0.0239528
-0.037553
-0.0108984
-0.0409537
0.00389664
-0.0444964
0.0198053
-0.0478533
0.0368732
-0.0512856
0.0553314
-0.055308
0.0755534
-0.0585437
0.0953312
-0.0602065
0.114824
-0.0597842
0.132622
-0.0575698
0.146861
-0.0506199
0.156244
-0.0392123
0.161394
-0.0265748
0.163805
0.159796
-0.0100452
-0.00661325
-0.0537324
-0.0131183
-0.0537015
-0.0194958
-0.0462535
-0.0240901
-0.0397546
-0.0292605
-0.0296327
-0.0342363
-0.018977
-0.0384952
-0.0066395
-0.0420984
0.00749985
-0.0445152
0.0222222
-0.0466368
0.0389948
-0.048767
0.0574617
-0.0491256
0.0759119
-0.0477082
0.0939138
-0.0444278
0.111543
-0.0371298
0.125324
-0.0246394
0.13437
-0.0101385
0.141743
0.010889
0.140367
0.0337246
0.140969
0.132538
0.0609829
-0.00663059
-0.0471018
-0.0131166
-0.0472154
-0.0213499
-0.0380203
-0.0279724
-0.0331321
-0.0329051
-0.0247
-0.0371246
-0.0147575
-0.0405969
-0.0031672
-0.0420577
0.00896066
-0.0431486
0.0233131
-0.0435636
0.0394097
-0.0416553
0.0555533
-0.0377526
0.0720093
-0.0315803
0.0877415
-0.0201672
0.10013
-0.00713297
0.11229
0.0103128
0.116924
0.0302197
0.121836
0.0571724
0.113414
0.0841283
0.114014
0.0941525
0.122514
-0.00264706
-0.0444548
-0.00832416
-0.0415383
-0.0163184
-0.030026
-0.0242376
-0.0252128
-0.030302
-0.0186356
-0.0343317
-0.0107279
-0.0357743
-0.00172454
-0.0362097
0.00939604
-0.0346471
0.0217505
-0.0302936
0.0350562
-0.0245899
0.0498497
-0.0154537
0.062873
-0.00460731
0.0768951
0.0102904
0.0852323
0.0250517
0.0975288
0.0478384
0.0941378
0.0667952
0.102879
0.101213
0.0789963
0.13041
0.0848163
0.0547424
0.16982
-0.00126131
-0.0431935
-0.00483313
-0.0379665
-0.0105318
-0.0243274
-0.0163705
-0.0193741
-0.0205708
-0.0144354
-0.0233664
-0.00793225
-0.0236081
-0.00148278
-0.0221806
0.00796854
-0.0193509
0.0189208
-0.0122949
0.0280002
-0.00421192
0.0417667
0.00839836
0.0502627
0.0217305
0.063563
0.0416304
0.0653324
0.0569282
0.082231
0.0856598
0.0654062
0.110659
0.0778796
0.138493
0.051163
0.160353
0.0629559
0.0219106
0.193185
-0.00408819
-0.0391053
-0.00820784
-0.0338468
-0.0126171
-0.0199181
-0.017721
-0.0142702
-0.0203664
-0.0117899
-0.0214911
-0.00680757
-0.0213871
-0.00158677
-0.0165698
0.00315117
-0.00958672
0.0119377
0.0015582
0.0168553
0.0136335
0.0296914
0.0320202
0.031876
0.0497058
0.0458774
0.0722549
0.0427832
0.0960812
0.0584047
0.113666
0.0478217
0.134506
0.0570392
0.147416
0.0382527
0.169985
0.0403874
-0.0144739
0.206369
-0.00525096
-0.0338543
-0.0117779
-0.0273199
-0.0180735
-0.0136225
-0.0244269
-0.00791682
-0.028403
-0.00781379
-0.0281075
-0.00710311
-0.023512
-0.00618222
-0.0153242
-0.00503669
-0.00418869
0.000802233
0.0130187
-0.000352055
0.0285802
0.0141299
0.049909
0.0105471
0.0733349
0.0224515
0.0940974
0.0220207
0.118859
0.0336434
0.131731
0.0349498
0.151775
0.0369952
0.170173
0.0198544
0.210968
-0.000407125
-0.0597952
0.256289
-0.00780019
-0.0161087
-0.0216482
-0.0255188
-0.0272359
-0.0246609
-0.0168206
-0.00510489
0.00881161
0.0249747
0.0447554
0.0639018
0.0861881
0.106765
0.128724
0.152519
0.180772
0.219817
0.270962
0.316736
-0.106833
0.24154
-0.248418
-0.0945566
0.230836
-0.243112
-0.0634204
0.21566
-0.246796
-0.0353981
0.172207
-0.20023
-0.0161534
0.111715
-0.13096
0.0142908
0.0153663
-0.0458104
0.0511916
-0.0512424
0.0143416
0.0808992
-0.148352
0.118644
0.115032
-0.21462
0.180487
0.137043
-0.249104
0.227093
0.145217
-0.257783
0.249609
0.143462
-0.252028
0.253783
0.138229
-0.235279
0.240511
0.134185
-0.212056
0.2161
0.132891
-0.186227
0.187521
0.132022
-0.159476
0.160345
0.133095
-0.136251
0.135178
0.139297
-0.115378
0.109176
0.148845
-0.0943794
0.0848313
0.15821
-0.0761588
0.0667933
0.165985
-0.0622704
0.0544954
0.172029
-0.0489313
0.0428871
0.176749
-0.0339742
0.0292548
0.181341
-0.0209429
0.0163509
0.187034
-0.0150154
0.00932234
0.193966
-0.0140806
0.00714818
0.200952
-0.01205
0.00506417
0.206489
-0.00458512
-0.000951399
0.210093
0.000896353
-0.00450083
0.212302
-0.000626206
-0.00158311
0.214073
-0.0136637
0.0118932
0.215509
-0.0255194
0.024083
0.216399
-0.033769
0.0328795
0.216579
-0.0255257
0.0253458
0.216583
-0.0133235
0.0133196
0.216767
0.0103299
-0.0105141
0.21714
0.0265264
-0.0268992
0.217545
0.0470338
-0.0474396
0.217761
0.0558085
-0.0560237
0.217802
0.0679563
-0.0679979
0.2176
0.0708616
-0.0706594
0.217255
0.078363
-0.0780183
0.216758
0.0785913
-0.0780941
0.216187
0.0849955
-0.0844245
0.215512
0.0842812
-0.0836065
0.214803
0.0904483
-0.0897386
0.214017
0.0905498
-0.0897643
0.213181
0.0965398
-0.0957042
0.212304
0.0981316
-0.0972542
0.104806
-0.103841
-0.0566062
0.224408
-0.0328395
0.207069
-0.00288326
0.185704
0.0327271
0.136597
0.0627369
0.0817056
0.083044
-0.00494081
0.111721
-0.0799197
0.131639
-0.168269
0.151192
-0.234172
0.164903
-0.262816
0.171281
-0.26416
0.170346
-0.251093
0.164358
-0.22929
0.155262
-0.202961
0.147093
-0.178058
0.142763
-0.155146
0.141428
-0.134915
0.143081
-0.117031
0.147699
-0.0989978
0.154358
-0.0828173
0.162747
-0.0706591
0.171952
-0.0581365
0.179683
-0.0417052
0.184772
-0.0260317
0.188671
-0.0189143
0.193611
-0.0190211
0.199985
-0.0184242
0.205862
-0.010462
0.209331
-0.00257282
0.210445
-0.00174005
0.211077
-0.0142955
0.212582
-0.0270246
0.214737
-0.0359237
0.216365
-0.0271537
0.217185
-0.0141436
0.217541
0.00997363
0.217798
0.0262694
0.218033
0.0467987
0.218113
0.0557295
0.218048
0.0680212
0.217786
0.0711236
0.217392
0.0787571
0.216874
0.0791087
0.216277
0.0855926
0.215597
0.0849616
0.21487
0.091175
0.214082
0.0913373
0.213237
0.0973851
0.212354
0.0990151
0.105772
0.0160655
0.198298
0.0451596
0.177975
0.0762294
0.154634
0.105218
0.107609
0.137144
0.0497787
0.156725
-0.0245214
0.175904
-0.0990988
0.188338
-0.180703
0.194583
-0.240417
0.191365
-0.259598
0.183253
-0.256048
0.175776
-0.243616
0.168867
-0.222381
0.163002
-0.197096
0.157661
-0.172716
0.152799
-0.150284
0.149964
-0.13208
0.150312
-0.117379
0.152576
-0.101262
0.155066
-0.0853069
0.159151
-0.0747446
0.166868
-0.0658529
0.176432
-0.0512696
0.183962
-0.0335618
0.188464
-0.0234157
0.192258
-0.0228157
0.197319
-0.0234848
0.202694
-0.0158374
0.20615
-0.00602901
0.207094
-0.0026838
0.207286
-0.0144873
0.208629
-0.0283675
0.211472
-0.038767
0.214425
-0.0301067
0.216466
-0.0161845
0.217455
0.00898429
0.217882
0.0258427
0.218068
0.0466122
0.21806
0.0557374
0.217906
0.0681761
0.217588
0.0714409
0.21715
0.0791952
0.216628
0.0796305
0.216035
0.0861862
0.215388
0.085608
0.214695
0.0918685
0.213961
0.0920715
0.213166
0.0981797
0.212345
0.0998362
0.106675
0.0887246
0.170556
0.118519
0.148181
0.150734
0.122419
0.178196
0.0801466
0.202149
0.0258257
0.218784
-0.0411563
0.231468
-0.111783
0.23151
-0.180745
0.220931
-0.229839
0.206921
-0.245588
0.187955
-0.237082
0.172002
-0.227663
0.163393
-0.213772
0.15773
-0.191433
0.155065
-0.170051
0.154488
-0.149707
0.153418
-0.131009
0.153731
-0.117692
0.156703
-0.104235
0.159147
-0.0877501
0.160039
-0.0756371
0.163156
-0.0689695
0.170593
-0.0587065
0.179236
-0.0422049
0.185592
-0.0297716
0.18998
-0.0272041
0.194645
-0.0281498
0.199848
-0.0210405
0.203726
-0.00990712
0.205057
-0.00401408
0.204988
-0.0144191
0.205654
-0.029033
0.208224
-0.0413375
0.211741
-0.0336236
0.21474
-0.0191838
0.216442
0.0072829
0.217136
0.0251482
0.21729
0.0464582
0.217195
0.0558329
0.216984
0.0683873
0.216688
0.0717367
0.216298
0.0795852
0.215864
0.0800639
0.215356
0.0866946
0.214821
0.0861426
0.214231
0.0924585
0.213622
0.0926807
0.212946
0.0988556
0.212255
0.100528
0.107442
0.150894
0.142175
0.180239
0.118836
0.21142
0.0912377
0.2372
0.0543668
0.256241
0.00678496
0.26568
-0.0505956
0.264768
-0.11087
0.249173
-0.16515
0.21821
-0.198876
0.190537
-0.217915
0.172483
-0.219027
0.154254
-0.209434
0.143511
-0.20303
0.140664
-0.188587
0.140508
-0.169895
0.143228
-0.152427
0.146101
-0.133882
0.148076
-0.119667
0.152486
-0.108646
0.158268
-0.0935316
0.161569
-0.0789384
0.163452
-0.0708519
0.16757
-0.0628251
0.173777
-0.0484119
0.179309
-0.0353033
0.183649
-0.031544
0.188603
-0.0331042
0.194589
-0.0270266
0.199592
-0.0149103
0.201771
-0.00619244
0.201739
-0.0143871
0.20185
-0.0291447
0.203991
-0.043478
0.207785
-0.0374171
0.211661
-0.0230605
0.214297
0.00464715
0.21563
0.0238152
0.216052
0.0460363
0.216011
0.0558741
0.215769
0.0686291
0.215468
0.0720374
0.215107
0.0799463
0.214761
0.0804098
0.214363
0.0870928
0.213976
0.0865298
0.213539
0.092895
0.213106
0.0931139
0.212611
0.0993507
0.212113
0.101026
0.108005
0.19865
0.113346
0.224556
0.0929297
0.25056
0.0652342
0.270937
0.0339895
0.285864
-0.00814185
0.29051
-0.0552414
0.280204
-0.100564
0.260105
-0.145052
0.232243
-0.171014
0.197349
-0.183021
0.172356
-0.194034
0.155203
-0.19228
0.138653
-0.18648
0.129596
-0.179529
0.127687
-0.167986
0.1306
-0.155341
0.135459
-0.138741
0.138679
-0.122887
0.14255
-0.112517
0.14917
-0.100152
0.155601
-0.085369
0.160321
-0.075572
0.16528
-0.0677843
0.170886
-0.0540181
0.175253
-0.0396698
0.178243
-0.0345341
0.182143
-0.037004
0.188054
-0.0329377
0.193984
-0.0208404
0.197306
-0.00951449
0.197838
-0.0149189
0.197719
-0.0290257
0.199345
-0.0451039
0.203074
-0.041147
0.20749
-0.0274763
0.210874
0.00126382
0.212807
0.0218815
0.21358
0.0452637
0.213755
0.0556987
0.213667
0.0687171
0.213528
0.0721768
0.213327
0.0801475
0.213167
0.0805699
0.212957
0.0873029
0.212785
0.0867017
0.212566
0.0931136
0.212374
0.0933065
0.212124
0.0996006
0.211887
0.101262
0.108303
0.217713
0.0888183
0.242718
0.0679243
0.26453
0.0434219
0.280607
0.017913
0.289659
-0.0171944
0.288005
-0.0535867
0.276066
-0.0886256
0.253466
-0.122452
0.22779
-0.145337
0.202407
-0.157639
0.179731
-0.171358
0.165377
-0.177927
0.151976
-0.173078
0.138204
-0.165757
0.12894
-0.158722
0.126867
-0.153268
0.130876
-0.142751
0.135226
-0.127237
0.138218
-0.115509
0.142433
-0.104366
0.14742
-0.0903565
0.152217
-0.0803691
0.158342
-0.0739091
0.165728
-0.0614043
0.171548
-0.0454895
0.174693
-0.037679
0.177557
-0.0398676
0.182488
-0.0378691
0.188457
-0.0268089
0.192533
-0.0135907
0.193571
-0.0159577
0.193261
-0.0287155
0.1943
-0.0461429
0.197727
-0.0445741
0.202502
-0.0322514
0.2067
-0.00293338
0.209441
0.0191405
0.210723
0.0439814
0.211157
0.0552643
0.211201
0.068673
0.2112
0.0721784
0.211161
0.0801865
0.211214
0.080517
0.211235
0.0872817
0.211326
0.0866102
0.211379
0.0930608
0.21148
0.0932061
0.211535
0.0995454
0.211615
0.101182
0.108263
0.224047
0.0711409
0.245932
0.0460388
0.26586
0.0234944
0.282554
0.00121898
0.290283
-0.0249235
0.288281
-0.0515851
0.278475
-0.0788197
0.260214
-0.10419
0.235298
-0.120421
0.211429
-0.13377
0.191628
-0.151557
0.177317
-0.163617
0.166713
-0.162474
0.156104
-0.155148
0.144515
-0.147133
0.134751
-0.143504
0.131671
-0.13967
0.133563
-0.129128
0.136644
-0.11859
0.140805
-0.108527
0.144609
-0.0941603
0.14691
-0.0826702
0.150706
-0.077705
0.157766
-0.0684645
0.16478
-0.052504
0.168814
-0.0417122
0.171617
-0.0426707
0.17621
-0.0424625
0.182225
-0.0328236
0.186598
-0.0179643
0.187777
-0.0171365
0.187344
-0.0282819
0.188159
-0.0469587
0.191512
-0.0479268
0.196511
-0.0372504
0.201305
-0.00772696
0.204776
0.0156688
0.206738
0.0420198
0.207681
0.0543215
0.208076
0.068278
0.208342
0.0719122
0.208547
0.0799817
0.208857
0.0802074
0.209156
0.086982
0.209553
0.0862134
0.209932
0.0926816
0.21038
0.0927587
0.2108
0.0991246
0.211263
0.100719
0.107826
0.265472
0.0619574
0.275717
0.0357947
0.284459
0.0147525
0.291221
-0.00554301
0.2903
-0.0240027
0.280052
-0.0413373
0.263972
-0.0627399
0.244082
-0.0843
0.227036
-0.103376
0.211363
-0.118097
0.190471
-0.130665
0.167362
-0.140508
0.149817
-0.144928
0.142435
-0.147766
0.140335
-0.145033
0.136324
-0.139493
0.131695
-0.135041
0.128998
-0.126432
0.128267
-0.117859
0.131856
-0.112117
0.138462
-0.100766
0.142662
-0.0868702
0.144907
-0.0799499
0.149572
-0.0731291
0.155933
-0.0588653
0.160302
-0.0460813
0.163129
-0.0454978
0.167613
-0.0469463
0.174004
-0.0392142
0.179065
-0.0230251
0.180698
-0.0187699
0.180288
-0.0278716
0.18098
-0.0476515
0.184451
-0.0513978
0.189944
-0.0427432
0.195497
-0.0132802
0.199692
0.0114747
0.202245
0.0394667
0.203626
0.0529402
0.20437
0.0675335
0.204954
0.071329
0.205474
0.0794612
0.206114
0.0795676
0.206759
0.0863374
0.207521
0.0854514
0.208281
0.091921
0.209128
0.0919115
0.20997
0.0982834
0.210863
0.0998251
0.10693
0.31698
0.0617138
0.312938
0.0398364
0.30553
0.0221604
0.296497
0.00348964
0.284373
-0.0118781
0.266995
-0.0239595
0.246579
-0.0423234
0.223571
-0.0612921
0.200274
-0.080079
0.182822
-0.100644
0.169694
-0.117538
0.154784
-0.125598
0.137111
-0.127255
0.124053
-0.134708
0.120672
-0.141653
0.120749
-0.13957
0.121289
-0.135582
0.122584
-0.127727
0.121865
-0.11714
0.120964
-0.111215
0.124604
-0.104407
0.130593
-0.0928592
0.135462
-0.0848184
0.140699
-0.0783661
0.146789
-0.0649559
0.151064
-0.0503562
0.153576
-0.0480099
0.157572
-0.0509416
0.163996
-0.0456384
0.169725
-0.0287538
0.172166
-0.0212112
0.172239
-0.0279445
0.17301
-0.048423
0.176545
-0.0549323
0.182352
-0.0485506
0.188598
-0.019526
0.193614
0.00645896
0.196957
0.0361235
0.198951
0.0509466
0.200174
0.0663099
0.201139
0.0703644
0.202023
0.0785764
0.20302
0.078571
0.204052
0.0853057
0.205211
0.0842921
0.206406
0.0907262
0.207697
0.0906205
0.209018
0.0969624
0.210395
0.0984486
0.105509
0.305522
0.05716
-0.300968
0.307071
0.0382868
0.307103
0.0221288
0.303556
0.00703685
0.298734
-0.0070568
0.296033
-0.0212581
0.290017
-0.0363073
0.280593
-0.0518682
0.272467
-0.071953
0.260347
-0.0885247
0.243901
-0.101092
0.233556
-0.115253
0.227693
-0.121391
0.216513
-0.123528
0.203971
-0.129111
0.195998
-0.131596
0.189948
-0.129532
0.185611
-0.123389
0.183625
-0.115154
0.18036
-0.10795
0.174522
-0.0985691
0.169602
-0.0879393
0.167949
-0.0831654
0.168859
-0.079276
0.170532
-0.0666294
0.171684
-0.0515075
0.172335
-0.0486613
0.173591
-0.0521975
0.175916
-0.0479633
0.178582
-0.0314204
0.180447
-0.0230759
0.181557
-0.0290539
0.182475
-0.0493409
0.184022
-0.0564794
0.186032
-0.050561
0.18805
-0.021544
0.189314
0.00519468
0.189808
0.0356293
0.189822
0.0509327
0.189627
0.0665056
0.189483
0.0705081
0.189414
0.0786451
0.189482
0.0785031
0.189599
0.0851889
0.189809
0.0840814
0.190015
0.0905207
0.190279
0.0903568
0.190524
0.0967175
0.190812
0.0981601
0.105243
0.311302
0.0495572
-0.303699
0.313327
0.0362614
0.313158
0.0222981
0.312822
0.00737296
0.310686
-0.00492098
0.307712
-0.0182847
0.304399
-0.0329942
0.297087
-0.0445563
0.288466
-0.0633321
0.281214
-0.0812724
0.268546
-0.0884232
0.252541
-0.0992481
0.244134
-0.112984
0.238403
-0.117797
0.225609
-0.116318
0.211428
-0.117416
0.201518
-0.119622
0.193008
-0.11488
0.187321
-0.109467
0.187656
-0.108285
0.189335
-0.100248
0.18706
-0.085665
0.183061
-0.0791661
0.181737
-0.0779521
0.183224
-0.068116
0.185166
-0.0534501
0.186536
-0.0500307
0.187914
-0.0535755
0.189766
-0.0498154
0.191877
-0.033532
0.193594
-0.0247924
0.194838
-0.0302981
0.195953
-0.0504562
0.197468
-0.0579942
0.19928
-0.0523723
0.20101
-0.0232746
0.202247
0.0039577
0.20281
0.0350661
0.202905
0.0508384
0.20275
0.0666606
0.202614
0.0706441
0.202546
0.0787128
0.202613
0.0784362
0.20274
0.085062
0.202966
0.0838551
0.203194
0.0902926
0.203487
0.090064
0.203762
0.0964425
0.204081
0.0978409
0.10493
0.314087
0.0413056
-0.305835
0.319452
0.0308968
0.321656
0.0200937
0.321382
0.00764747
0.320769
-0.00430811
0.317371
-0.0148868
0.312219
-0.0278426
0.308451
-0.0407884
0.299625
-0.0545063
0.288514
-0.070161
0.283615
-0.0835247
0.274632
-0.0902647
0.25734
-0.0956923
0.244994
-0.105451
0.238017
-0.109341
0.229421
-0.108819
0.223072
-0.113273
0.219617
-0.111425
0.21268
-0.10253
0.204293
-0.0998973
0.201319
-0.0972742
0.20184
-0.0861853
0.2008
-0.0781267
0.198922
-0.0760734
0.198707
-0.0679011
0.19969
-0.0544332
0.200692
-0.0510325
0.20214
-0.055024
0.204397
-0.0520724
0.20668
-0.0358149
0.207973
-0.0260852
0.208525
-0.0308502
0.209251
-0.0511825
0.210849
-0.0595919
0.213013
-0.0545361
0.215059
-0.0253215
0.216376
0.00264082
0.21691
0.0345323
0.216971
0.0507771
0.216787
0.066845
0.216643
0.0707884
0.216568
0.0787871
0.216643
0.0783616
0.21678
0.0849246
0.21703
0.083606
0.217283
0.0900391
0.217608
0.0897389
0.217921
0.0961297
0.218279
0.097483
0.104571
0.322864
0.032863
-0.314421
0.327814
0.0259463
0.33051
0.0173976
0.330545
0.00761287
0.329438
-0.00320117
0.327839
-0.0132873
0.323214
-0.0232183
0.318798
-0.0363716
0.315377
-0.0510855
0.306598
-0.0613823
0.295025
-0.0719517
0.286167
-0.0814067
0.276022
-0.0855473
0.265475
-0.094904
0.25948
-0.103346
0.251771
-0.10111
0.238711
-0.100213
0.228659
-0.101373
0.224016
-0.0978869
0.2192
-0.0950809
0.213687
-0.0917616
0.211144
-0.0836423
0.21151
-0.0784922
0.212476
-0.0770395
0.213024
-0.0684494
0.213343
-0.0547526
0.213866
-0.0515552
0.215084
-0.0562422
0.216961
-0.053949
0.21896
-0.037814
0.2206
-0.0277257
0.221992
-0.0322417
0.223426
-0.0526164
0.225219
-0.0613846
0.22737
-0.0566879
0.229429
-0.0273802
0.230962
0.00110742
0.231686
0.0338088
0.231874
0.0505895
0.231737
0.0669813
0.231617
0.0709092
0.231549
0.0788545
0.231636
0.078275
0.231791
0.084769
0.232063
0.0833341
0.232353
0.0897498
0.232707
0.0893845
0.233072
0.0957646
0.233473
0.0970818
0.104171
0.333991
0.0253832
-0.326511
0.338873
0.0210649
0.341278
0.0149926
0.342478
0.00641295
0.341271
-0.00199459
0.338856
-0.0108722
0.336899
-0.0212618
0.332133
-0.0316056
0.326192
-0.0451445
0.321149
-0.0563389
0.312269
-0.063072
0.302692
-0.0718292
0.296149
-0.0790042
0.28588
-0.0846356
0.273191
-0.0906564
0.266992
-0.0949111
0.264909
-0.0981296
0.2601
-0.096564
0.25381
-0.0915967
0.249568
-0.0908394
0.246367
-0.08856
0.242165
-0.0794407
0.23796
-0.0742867
0.235792
-0.0748723
0.235522
-0.0681788
0.235372
-0.0546024
0.234796
-0.0509798
0.2348
-0.0562459
0.235971
-0.0551198
0.237792
-0.0396352
0.239391
-0.0293245
0.240477
-0.0333278
0.24136
-0.0534993
0.242507
-0.0625316
0.244055
-0.0582363
0.245704
-0.0290292
0.246999
-0.000187802
0.247637
0.0331708
0.247834
0.0503931
0.247719
0.067096
0.247619
0.0710095
0.247565
0.078908
0.247667
0.0781733
0.247846
0.0845902
0.248142
0.0830374
0.248472
0.0894205
0.248861
0.0889951
0.249282
0.0953437
0.249729
0.0966352
0.103718
0.346002
0.0192483
-0.339867
0.351113
0.015954
0.354276
0.0118298
0.355368
0.00532059
0.354711
-0.00133767
0.352918
-0.00907948
0.350469
-0.0188126
0.347633
-0.0287697
0.342975
-0.0404862
0.336032
-0.0493963
0.328463
-0.0555025
0.320456
-0.0638222
0.312497
-0.071045
0.305001
-0.0771399
0.295872
-0.0815273
0.284445
-0.0834836
0.274023
-0.0877077
0.266463
-0.089004
0.260058
-0.085192
0.254709
-0.0854904
0.251658
-0.0855091
0.249596
-0.0773791
0.246929
-0.0716194
0.244782
-0.0727253
0.244652
-0.0680484
0.245925
-0.0558754
0.247411
-0.0524657
0.248983
-0.0578182
0.250806
-0.0569431
0.25254
-0.041369
0.25381
-0.0305945
0.254881
-0.0343985
0.256277
-0.0548958
0.25816
-0.0644149
0.260304
-0.0603799
0.262233
-0.030958
0.263682
-0.0016372
0.26446
0.0323933
0.264764
0.0500884
0.264728
0.0671319
0.264682
0.0710557
0.264664
0.0789262
0.264796
0.0780417
0.265003
0.0843825
0.265334
0.0827066
0.265706
0.089049
0.266143
0.0885579
0.266617
0.0948695
0.267117
0.0961351
0.103193
0.359992
0.0142467
-0.354991
0.364719
0.0112279
0.367808
0.0087404
0.369039
0.00408992
0.369027
-0.0013263
0.367897
-0.00794935
0.366108
-0.0170231
0.363455
-0.0261169
0.358653
-0.0356839
0.352402
-0.0431454
0.346742
-0.0498423
0.339725
-0.0568059
0.329884
-0.0612038
0.32178
-0.0690363
0.316996
-0.0767431
0.310897
-0.0773844
0.303033
-0.0798443
0.296623
-0.0825937
0.291337
-0.0799061
0.285656
-0.0798093
0.280534
-0.0803866
0.277119
-0.0739649
0.275061
-0.0695606
0.273721
-0.0713854
0.272784
-0.0671116
0.271808
-0.0548995
0.270789
-0.0514461
0.270473
-0.0575031
0.271285
-0.0577545
0.272667
-0.0427515
0.273951
-0.0318785
0.275002
-0.0354496
0.276026
-0.0559198
0.277257
-0.0656458
0.278799
-0.0619218
0.280359
-0.0325173
0.281674
-0.00295224
0.282424
0.0316424
0.282794
0.0497184
0.282844
0.0670821
0.28287
0.0710298
0.282906
0.0788898
0.283083
0.0778649
0.283332
0.0841341
0.283707
0.0823313
0.284128
0.088628
0.284622
0.0880635
0.285154
0.094338
0.285722
0.0955672
0.10259
0.37641
0.00977633
-0.37194
0.380059
0.00757947
0.38254
0.00625901
0.383832
0.00279825
0.383842
-0.00133656
0.383497
-0.0076046
0.382222
-0.0157473
0.379763
-0.023658
0.376422
-0.0323437
0.371024
-0.0377466
0.363757
-0.0425757
0.357553
-0.0506018
0.352791
-0.0564416
0.345618
-0.0618631
0.33573
-0.0668553
0.327333
-0.0689875
0.320932
-0.0734431
0.314626
-0.0762877
0.308431
-0.0737115
0.303132
-0.0745101
0.298879
-0.0761333
0.295284
-0.0703706
0.292111
-0.0663869
0.289776
-0.0690503
0.288674
-0.0660103
0.288436
-0.0546613
0.288562
-0.0515727
0.28907
-0.0580108
0.290087
-0.058771
0.291376
-0.044041
0.292622
-0.0331246
0.293794
-0.0366214
0.295125
-0.0572506
0.296668
-0.0671891
0.298319
-0.0635731
0.299783
-0.0339813
0.30096
-0.00412894
0.301661
0.0309412
0.302055
0.0493252
0.302173
0.066964
0.302271
0.0709313
0.302376
0.0787853
0.302608
0.0776326
0.302912
0.0838302
0.303338
0.0819054
0.30382
0.0881456
0.304378
0.0875061
0.304978
0.0937373
0.305627
0.0949184
0.101905
0.394161
0.0062359
-0.39062
0.397007
0.00473324
0.398913
0.00435331
0.400221
0.00148951
0.400641
-0.00175643
0.400213
-0.00717677
0.399519
-0.0150531
0.397635
-0.0217739
0.39388
-0.0285889
0.389426
-0.0332923
0.384839
-0.0379888
0.378985
-0.0447475
0.3717
-0.0491572
0.364813
-0.0549756
0.359089
-0.0611315
0.35289
-0.0627883
0.345933
-0.0664857
0.339521
-0.0698757
0.333715
-0.0679058
0.328455
-0.0692506
0.324349
-0.0720271
0.320931
-0.0669522
0.317579
-0.0630347
0.314924
-0.0663959
0.313533
-0.0646192
0.312803
-0.0539311
0.312147
-0.0509164
0.311887
-0.0577512
0.312413
-0.0592969
0.313354
-0.0449824
0.314263
-0.034033
0.31511
-0.0374683
0.316171
-0.0583117
0.317463
-0.0684813
0.318942
-0.0650522
0.320283
-0.0353219
0.321409
-0.00525516
0.322117
0.030233
0.322573
0.0488689
0.322782
0.0667551
0.322971
0.0707428
0.323157
0.0785995
0.323455
0.077334
0.323826
0.0834591
0.324312
0.0814197
0.324868
0.0875894
0.325497
0.0868768
0.326182
0.0930525
0.326921
0.0941794
0.101124
0.413332
0.00355872
-0.410654
0.415386
0.00267906
0.417196
0.00254333
0.418513
0.000172048
0.41892
-0.00216274
0.418966
-0.00722274
0.418134
-0.014222
0.416397
-0.0200363
0.413768
-0.0259598
0.409637
-0.0291614
0.404793
-0.0331451
0.399857
-0.0398111
0.39461
-0.0439101
0.388922
-0.049288
0.382511
-0.0547204
0.375705
-0.0559822
0.369374
-0.060155
0.363735
-0.0642366
0.35834
-0.0625108
0.353022
-0.0639331
0.348173
-0.0671774
0.344178
-0.0629577
0.341073
-0.0599291
0.338756
-0.0640795
0.337084
-0.0629473
0.335849
-0.0526959
0.335022
-0.0500893
0.334758
-0.0574873
0.335105
-0.0596435
0.33581
-0.0456873
0.336677
-0.0349005
0.33767
-0.0384611
0.338882
-0.059524
0.340167
-0.0697665
0.34147
-0.0663548
0.342561
-0.0364133
0.343488
-0.00618172
0.344083
0.0296379
0.344534
0.0484179
0.344801
0.0664881
0.34507
0.0704743
0.345338
0.0783312
0.345714
0.0769577
0.346162
0.0830113
0.346723
0.0808586
0.347363
0.0869494
0.348079
0.0861614
0.348861
0.0922704
0.349701
0.093339
0.100232
0.434142
0.00161423
-0.432197
0.435713
0.00110749
0.437257
0.000999269
0.438421
-0.000991427
0.439025
-0.00276753
0.439208
-0.00740562
0.438726
-0.0137396
0.437065
-0.0183759
0.434263
-0.023157
0.430911
-0.0258098
0.42723
-0.0294639
0.423011
-0.0355925
0.418041
-0.0389394
0.412435
-0.0436827
0.406739
-0.0490245
0.401206
-0.0504487
0.395507
-0.0544559
0.389695
-0.0584249
0.384153
-0.0569682
0.379152
-0.0589324
0.375002
-0.0630276
0.37142
-0.0593751
0.367939
-0.056448
0.364936
-0.061077
0.362938
-0.0609488
0.361681
-0.0514391
0.360733
-0.0491416
0.360135
-0.0568898
0.360114
-0.0596216
0.360506
-0.0460795
0.361129
-0.0355238
0.361906
-0.0392378
0.362952
-0.0605702
0.364071
-0.0708858
0.365212
-0.0674959
0.366125
-0.037326
0.366914
-0.00697069
0.367473
0.029079
0.367949
0.0479416
0.368288
0.0661491
0.368647
0.0701159
0.36901
0.0779676
0.369479