/*--------------------------------*- C++ -*----------------------------------*\
| =========                 |                                                 |
| \\      /  F ield         | OpenFOAM: The Open Source CFD Toolbox           |
|  \\    /   O peration     | Version:  2512                                  |
|   \\  /    A nd           | Website:  www.openfoam.com                      |
|    \\/     M anipulation  |                                                 |
\*---------------------------------------------------------------------------*/
FoamFile
{
    version     2.0;
    format      ascii;
    arch        "LSB;label=32;scalar=64";
    class       volScalarField;
    location    "13";
    object      p;
}
// * * * * * * * * * * * * * * * * * * * * * * * * * * * * * * * * * * * * * //

dimensions      [0 2 -2 0 0 0 0];

internalField   nonuniform List<scalar> 
13248
(
-0.334629
-0.333565
-0.331152
-0.327675
-0.323737
-0.320187
-0.317934
-0.317744
-0.32
-0.324829
-0.331913
-0.340608
-0.350058
-0.359312
-0.367434
-0.373617
-0.377236
-0.377987
-0.375669
-0.370712
-0.36285
-0.353219
-0.340183
-0.324902
-0.335539
-0.334903
-0.332625
-0.32915
-0.325134
-0.32136
-0.318635
-0.31764
-0.318751
-0.321971
-0.326922
-0.332927
-0.339146
-0.344715
-0.348871
-0.351061
-0.350982
-0.348585
-0.344021
-0.337501
-0.329192
-0.319333
-0.307536
-0.295471
-0.339114
-0.338399
-0.336101
-0.332733
-0.328864
-0.325071
-0.32204
-0.320296
-0.32009
-0.321344
-0.323667
-0.326451
-0.329004
-0.330698
-0.331071
-0.329889
-0.327097
-0.322807
-0.31708
-0.310105
-0.301793
-0.292401
-0.281858
-0.270946
-0.345301
-0.344014
-0.341461
-0.338045
-0.334154
-0.330251
-0.326782
-0.324075
-0.322254
-0.321206
-0.32061
-0.320031
-0.319038
-0.317304
-0.314651
-0.311016
-0.306412
-0.300846
-0.294348
-0.286957
-0.278658
-0.269747
-0.260017
-0.250607
-0.353765
-0.351501
-0.34839
-0.344629
-0.340478
-0.336194
-0.33198
-0.327965
-0.32419
-0.320593
-0.317023
-0.313295
-0.30925
-0.304786
-0.29984
-0.294378
-0.288365
-0.281792
-0.274655
-0.266976
-0.258789
-0.25021
-0.241197
-0.232485
-0.364287
-0.360803
-0.356885
-0.352531
-0.34781
-0.342745
-0.337296
-0.331472
-0.325357
-0.319058
-0.312652
-0.306179
-0.299645
-0.293027
-0.286286
-0.279372
-0.272246
-0.264871
-0.257228
-0.249313
-0.241129
-0.23276
-0.224167
-0.215917
-0.376941
-0.37208
-0.367214
-0.362041
-0.356342
-0.349882
-0.342494
-0.334261
-0.325474
-0.316462
-0.307485
-0.298689
-0.290126
-0.281778
-0.273595
-0.265515
-0.257476
-0.24943
-0.241345
-0.233201
-0.22501
-0.216777
-0.208521
-0.200602
-0.391871
-0.385545
-0.379627
-0.373335
-0.366045
-0.35735
-0.347224
-0.336063
-0.324433
-0.31283
-0.301571
-0.290805
-0.280556
-0.270779
-0.261402
-0.252347
-0.243545
-0.234941
-0.22649
-0.218165
-0.209944
-0.201813
-0.193815
-0.186098
-0.409065
-0.401226
-0.394097
-0.386208
-0.376478
-0.364612
-0.351064
-0.336666
-0.322199
-0.308191
-0.294913
-0.282444
-0.270752
-0.259759
-0.249373
-0.239504
-0.230074
-0.221014
-0.212269
-0.203793
-0.195552
-0.187524
-0.179738
-0.172193
-0.428129
-0.418788
-0.410172
-0.399961
-0.386787
-0.370912
-0.353511
-0.335799
-0.318617
-0.302406
-0.287319
-0.273345
-0.260394
-0.248355
-0.237114
-0.22657
-0.216628
-0.207212
-0.198251
-0.189686
-0.181466
-0.173557
-0.165951
-0.158547
-0.448277
-0.437463
-0.426909
-0.413406
-0.395775
-0.375289
-0.353867
-0.332923
-0.313202
-0.294977
-0.278263
-0.262958
-0.248916
-0.235991
-0.224047
-0.212965
-0.202637
-0.192973
-0.183891
-0.175317
-0.16719
-0.159463
-0.152074
-0.144901
-0.468315
-0.456075
-0.442925
-0.425021
-0.402062
-0.37663
-0.351218
-0.327225
-0.305181
-0.285156
-0.267021
-0.250583
-0.235641
-0.222014
-0.209541
-0.19808
-0.18751
-0.177725
-0.168633
-0.160154
-0.152221
-0.144784
-0.137749
-0.131026
-0.250251
-0.257943
-0.264429
-0.273126
-0.284873
-0.299327
-0.316065
-0.334667
-0.354692
-0.375677
-0.397136
-0.418567
-0.439465
-0.459329
-0.477679
-0.494061
-0.508066
-0.519328
-0.527526
-0.532398
-0.53375
-0.53147
-0.525529
-0.516017
-0.259449
-0.26639
-0.272583
-0.281186
-0.292963
-0.307556
-0.324531
-0.343449
-0.363849
-0.385242
-0.407118
-0.428955
-0.450225
-0.470408
-0.489007
-0.505557
-0.519638
-0.530888
-0.539003
-0.543738
-0.54488
-0.542271
-0.535897
-0.525853
-0.274391
-0.279877
-0.285423
-0.29367
-0.305229
-0.319739
-0.336748
-0.355801
-0.376415
-0.39808
-0.420263
-0.442419
-0.464001
-0.484473
-0.503321
-0.52007
-0.53429
-0.545617
-0.553757
-0.558478
-0.559572
-0.55683
-0.550297
-0.540713
-0.292122
-0.295641
-0.300246
-0.307879
-0.318936
-0.333053
-0.349768
-0.368613
-0.389086
-0.410664
-0.4328
-0.454937
-0.476513
-0.496983
-0.515825
-0.532556
-0.546746
-0.558028
-0.5661
-0.570733
-0.571837
-0.569355
-0.563113
-0.552273
-0.309462
-0.310752
-0.314195
-0.320957
-0.331192
-0.344546
-0.360551
-0.378737
-0.398589
-0.419588
-0.441192
-0.462846
-0.483991
-0.504081
-0.522595
-0.539054
-0.553032
-0.564171
-0.572177
-0.576791
-0.578106
-0.575473
-0.570098
-0.558861
-0.323827
-0.322929
-0.325099
-0.33068
-0.339701
-0.351846
-0.366641
-0.383669
-0.402347
-0.422195
-0.442708
-0.463344
-0.483558
-0.502816
-0.520607
-0.536462
-0.549972
-0.560779
-0.56865
-0.573122
-0.574764
-0.572093
-0.567548
-0.556827
-0.333827
-0.331131
-0.331908
-0.335986
-0.343326
-0.35372
-0.366754
-0.381969
-0.398886
-0.417033
-0.435919
-0.455038
-0.473873
-0.491915
-0.50868
-0.523721
-0.536597
-0.546905
-0.554769
-0.559194
-0.561282
-0.558737
-0.55466
-0.544119
-0.339286
-0.335443
-0.334873
-0.337147
-0.342283
-0.350275
-0.360862
-0.373653
-0.388226
-0.404144
-0.420954
-0.438183
-0.455349
-0.471965
-0.487526
-0.501639
-0.514137
-0.524338
-0.532292
-0.536923
-0.539399
-0.537138
-0.533107
-0.522254
-0.340978
-0.336777
-0.335107
-0.335478
-0.338043
-0.343069
-0.350557
-0.360301
-0.371995
-0.385277
-0.399745
-0.41496
-0.43045
-0.445674
-0.46045
-0.474242
-0.486538
-0.496757
-0.50479
-0.509657
-0.512043
-0.509769
-0.504977
-0.493141
-0.340142
-0.336318
-0.333961
-0.332652
-0.332682
-0.334581
-0.338672
-0.345042
-0.353596
-0.36411
-0.376248
-0.389534
-0.403685
-0.418319
-0.432654
-0.446077
-0.458
-0.467823
-0.475095
-0.479159
-0.480245
-0.477072
-0.470882
-0.457759
-0.338044
-0.335094
-0.332487
-0.329968
-0.327945
-0.327139
-0.328172
-0.331445
-0.337135
-0.345176
-0.355356
-0.36739
-0.380618
-0.394342
-0.407769
-0.42012
-0.430591
-0.438576
-0.443452
-0.444994
-0.443277
-0.438081
-0.430594
-0.417487
-0.335832
-0.333915
-0.331352
-0.328136
-0.32478
-0.322115
-0.320963
-0.321971
-0.325594
-0.331868
-0.340569
-0.351186
-0.362965
-0.375026
-0.386436
-0.396317
-0.40383
-0.408486
-0.409715
-0.407736
-0.402349
-0.394365
-0.384782
-0.373237
-0.50047
-0.475319
-0.442859
-0.402951
-0.356275
-0.303035
-0.244344
-0.181373
-0.116929
-0.0534541
0.00523057
0.0555313
0.0944417
0.120481
0.134002
0.137148
0.132823
0.123996
0.113087
0.101676
0.0906917
0.0805922
0.0715439
0.0635527
0.0565524
0.0504478
0.0450816
0.0403751
0.0362475
0.0326127
0.0293948
0.0265315
0.0239732
0.0216809
0.0196262
0.017785
0.0161373
0.0146616
0.013341
0.012154
0.0110899
0.0101265
0.00926224
0.00847083
0.00776134
0.00710154
0.00650861
0.00594976
0.00543751
0.00495615
0.00449141
0.00406243
0.00362182
0.00320885
0.00277554
0.0023425
0.00188126
0.00140431
0.000870039
0.000311682
-0.510163
-0.483897
-0.450935
-0.410034
-0.362527
-0.308473
-0.249011
-0.185463
-0.120343
-0.0567197
0.0022841
0.053102
0.0920279
0.118183
0.131951
0.135483
0.131555
0.123039
0.11231
0.101055
0.0902264
0.0802635
0.0713146
0.0633857
0.0564028
0.050391
0.0450849
0.0404068
0.0362845
0.0326531
0.029441
0.0265818
0.0240243
0.0217297
0.0196709
0.0178251
0.0161729
0.0146934
0.0133693
0.0121797
0.0111125
0.0101476
0.00928028
0.00848821
0.00777565
0.00711574
0.00652024
0.00596073
0.00544774
0.00496374
0.00450086
0.00406749
0.00362966
0.00321283
0.00278135
0.00234508
0.00188619
0.00140455
0.000873295
0.000308894
-0.527395
-0.500845
-0.468354
-0.427683
-0.380455
-0.326871
-0.267618
-0.204037
-0.138799
-0.0738241
-0.0136536
0.0385271
0.0792185
0.107077
0.122539
0.12769
0.125433
0.118307
0.108769
0.0984887
0.0884056
0.0789949
0.0704635
0.0628518
0.0561164
0.0500522
0.0447993
0.0402096
0.0361817
0.0325917
0.0294061
0.0265698
0.0240295
0.0217453
0.0196919
0.0178485
0.0161967
0.0147167
0.0133913
0.0122007
0.0111316
0.0101659
0.00929613
0.00850388
0.00778855
0.00712885
0.00653097
0.00597099
0.00545745
0.00497089
0.00451007
0.00407234
0.00363748
0.00321684
0.00278732
0.00234788
0.00189141
0.00140513
0.000876839
0.00030626
-0.543269
-0.516748
-0.4856
-0.44661
-0.400068
-0.34825
-0.290518
-0.228246
-0.163457
-0.0988689
-0.0380903
0.0152697
0.0578188
0.0879663
0.105968
0.113824
0.11436
0.109763
0.102306
0.09369
0.0848925
0.0764466
0.0686218
0.0615118
0.0551211
0.0494323
0.0443715
0.0398663
0.035851
0.0323995
0.0292841
0.0264897
0.0239831
0.0217226
0.0196855
0.0178527
0.016207
0.0147307
0.0134068
0.0122172
0.0111475
0.010182
0.00931052
0.00851856
0.00780081
0.00714155
0.00654146
0.00598117
0.00546714
0.00497816
0.00451942
0.00407748
0.00364561
0.00322125
0.00279374
0.00235121
0.0018971
0.00140632
0.000880775
0.000303958
-0.549328
-0.527701
-0.498426
-0.462014
-0.418663
-0.369097
-0.313735
-0.253589
-0.190473
-0.12681
-0.0663987
-0.0126777
0.0311564
0.0634024
0.0841696
0.0952624
0.09918
0.0980115
0.0933907
0.0870385
0.0800194
0.0729284
0.0661041
0.0597194
0.0538516
0.0485072
0.0437021
0.0394052
0.0355733
0.0320681
0.02907
0.0263516
0.023892
0.0216644
0.0196522
0.0178369
0.0162028
0.0147341
0.0134147
0.0122281
0.0111594
0.0101951
0.00932275
0.00853167
0.00781198
0.0071535
0.00655147
0.00599108
0.00547666
0.00498552
0.00452877
0.00408294
0.00365393
0.00322611
0.00280054
0.00235512
0.0019032
0.0014082
0.000885062
0.000302068
-0.546201
-0.52748
-0.502608
-0.470064
-0.43032
-0.384361
-0.332651
-0.275917
-0.215654
-0.154329
-0.0952687
-0.0419988
0.00237416
0.0362325
0.0596941
0.0741177
0.0816144
0.0842606
0.0829991
0.0792556
0.0742475
0.0687013
0.0630335
0.0574929
0.0522354
0.0473467
0.0428698
0.0387998
0.035102
0.0317983
0.0287626
0.0261435
0.0237572
0.0215726
0.0195935
0.0178024
0.0161846
0.0147271
0.0134147
0.0122332
0.0111669
0.010205
0.00933255
0.00854294
0.00782182
0.00716444
0.00656076
0.00600053
0.00548578
0.00499284
0.00453791
0.00408864
0.00366225
0.00323136
0.00280756
0.00235957
0.00190955
0.00141078
0.000889596
0.000300674
-0.531222
-0.515575
-0.496958
-0.469516
-0.433513
-0.391001
-0.342999
-0.290713
-0.235344
-0.178331
-0.122233
-0.0703778
-0.0260819
0.00891716
0.0347703
0.0524416
0.0634535
0.069499
0.0717731
0.0708583
0.0679573
0.0640216
0.0595847
0.0549643
0.0503867
0.045998
0.04188
0.0380747
0.0345898
0.031382
0.0285138
0.0258904
0.0235865
0.0214512
0.0195107
0.0177492
0.0161524
0.0147096
0.0134069
0.0122323
0.0111699
0.0102114
0.00933984
0.00855224
0.00783027
0.00717426
0.00656926
0.00600946
0.00549438
0.00500011
0.00454667
0.00409461
0.00367042
0.00323699
0.00281465
0.00236459
0.00191603
0.00141411
0.000894275
0.000299914
-0.506789
-0.492876
-0.480539
-0.458628
-0.427206
-0.389352
-0.345766
-0.29728
-0.246067
-0.195144
-0.144655
-0.095964
-0.0525751
-0.0169052
0.0108962
0.031448
0.0456332
0.0547393
0.0599704
0.0619654
0.0612851
0.0590055
0.0558344
0.0521759
0.0483156
0.0444577
0.0407357
0.0372211
0.0339489
0.0309297
0.0281263
0.025637
0.0234026
0.0213097
0.0194105
0.0176808
0.0161076
0.014682
0.0133914
0.0122254
0.0111684
0.0102143
0.00934453
0.00855944
0.00783725
0.00718287
0.00657691
0.0060178
0.00550236
0.00500732
0.0045549
0.00410086
0.00367829
0.00324302
0.0028217
0.00237019
0.00192247
0.00141828
0.000898998
0.000299988
-0.474615
-0.461451
-0.454603
-0.437821
-0.411252
-0.378755
-0.340756
-0.297842
-0.251678
-0.205153
-0.160823
-0.117301
-0.0761705
-0.0405605
-0.0113657
0.0114817
0.0284126
0.0402394
0.0479497
0.0524495
0.0540669
0.053555
0.0517117
0.0490795
0.0460162
0.0427639
0.0394878
0.0362994
0.0332644
0.0304176
0.0277701
0.0252935
0.0231051
0.0210891
0.0192705
0.0175891
0.0160471
0.0146432
0.0133675
0.0122122
0.0111621
0.0102135
0.00934651
0.00856439
0.00784269
0.00719011
0.00658361
0.00602545
0.0055096
0.00501445
0.00456245
0.00410742
0.00368571
0.00324949
0.00282855
0.00237644
0.00192872
0.00142338
0.000903655
0.00030116
-0.436223
-0.424314
-0.421591
-0.40874
-0.387228
-0.360843
-0.329255
-0.292812
-0.253019
-0.212116
-0.172224
-0.133938
-0.096338
-0.0618441
-0.0319695
-0.0074279
0.0117441
0.0259897
0.0360165
0.0426168
0.0463662
0.0477172
0.0472809
0.0456733
0.0433886
0.0407522
0.0379665
0.0351615
0.0324211
0.0297977
0.0273216
0.0250029
0.0228324
0.0208433
0.019112
0.0174848
0.0159756
0.0145952
0.0133365
0.0121933
0.0111515
0.0102091
0.00934576
0.00856691
0.00784652
0.00719582
0.00658932
0.00603234
0.00551602
0.00502153
0.00456921
0.00411435
0.00369256
0.00325643
0.00283509
0.00238341
0.00193463
0.00142955
0.000908167
0.000303824
-0.396245
-0.388284
-0.387946
-0.377924
-0.361554
-0.341268
-0.316088
-0.286061
-0.252274
-0.21639
-0.18062
-0.145996
-0.111947
-0.0795436
-0.049864
-0.0243211
-0.00356828
0.0125078
0.0243432
0.0326232
0.0381672
0.0412818
0.0424974
0.0422003
0.0408326
0.0388336
0.036506
0.0340418
0.0315588
0.0291319
0.0268063
0.0246014
0.0224812
0.0206888
0.0189051
0.0173515
0.0158848
0.0145317
0.0132933
0.0121654
0.0111347
0.0102003
0.0093425
0.00856759
0.00784946
0.00720072
0.00659462
0.00603895
0.00552193
0.00502875
0.0045752
0.0041217
0.00369864
0.00326384
0.002841
0.00239108
0.00193988
0.00143684
0.000912365
0.000308597
-0.36186
-0.359361
-0.357394
-0.348179
-0.336007
-0.321385
-0.303008
-0.280435
-0.253994
-0.224391
-0.192845
-0.160928
-0.129419
-0.0995549
-0.0710241
-0.0449656
-0.022569
-0.00421639
0.0101661
0.0209212
0.0285837
0.0335284
0.0362134
0.0372992
0.0371725
0.0361461
0.0345497
0.0326276
0.030543
0.0284082
0.0262984
0.0242539
0.0223075
0.0204709
0.0188081
0.0172121
0.0157932
0.0144743
0.013257
0.012143
0.0111211
0.0101925
0.00933844
0.00856619
0.00784979
0.00720242
0.00659692
0.00604256
0.00552481
0.00503402
0.00457822
0.00412814
0.00370226
0.00327079
0.00284516
0.0023988
0.00194356
0.0014448
0.00091549
0.000315892
-0.334378
-0.345697
-0.340026
-0.327874
-0.314347
-0.299857
-0.28318
-0.263216
-0.239731
-0.213292
-0.184979
-0.156067
-0.127283
-0.0994215
-0.0730962
-0.0489954
-0.0279219
-0.0103299
0.00375876
0.0145685
0.0225181
0.0280152
0.0314976
0.0333567
0.0339065
0.0334741
0.0323831
0.0308827
0.0291462
0.0272934
0.0254081
0.0235462
0.0217492
0.020069
0.0184624
0.0169923
0.0155907
0.0143102
0.0131264
0.012039
0.0110419
0.0101302
0.00929407
0.00853043
0.0078271
0.00718349
0.00658667
0.00603554
0.00552076
0.00503562
0.00457776
0.00413417
0.0037055
0.00327813
0.0028503
0.0024076
0.00194764
0.00145351
0.000917831
0.000324165
-0.299037
-0.315074
-0.312929
-0.30098
-0.287005
-0.273014
-0.258093
-0.240784
-0.220468
-0.197486
-0.172686
-0.147102
-0.121523
-0.0966968
-0.0732004
-0.0514763
-0.0321146
-0.0156003
-0.0020615
0.00862957
0.0167715
0.0226975
0.0266976
0.029063
0.0301355
0.0302335
0.0296383
0.0285777
0.027221
0.0256907
0.0240768
0.0224441
0.0208332
0.0192879
0.017816
0.0164382
0.0151706
0.0139715
0.0128536
0.0118195
0.0108651
0.00998769
0.00917961
0.00843796
0.00775361
0.00712384
0.00654
0.00599785
0.00549123
0.00501308
0.0045592
0.0041217
0.00369498
0.00327163
0.00284551
0.00240543
0.00194532
0.00145443
0.000916273
0.0003276
-0.269587
-0.286443
-0.286498
-0.276148
-0.263079
-0.250082
-0.236792
-0.221851
-0.204434
-0.184592
-0.162949
-0.140372
-0.117645
-0.0953867
-0.0741051
-0.0542387
-0.0362758
-0.0206619
-0.00759214
0.00298514
0.0112691
0.0174965
0.0218946
0.0247362
0.0263317
0.0269548
0.0268487
0.0262242
0.0252479
0.0240453
0.02271
0.0213111
0.0199014
0.0185229
0.0172
0.0159388
0.0147366
0.0136095
0.012553
0.0115699
0.0106585
0.00981635
0.00903827
0.00832059
0.00765725
0.00704362
0.00647448
0.00594334
0.00544667
0.00497658
0.00452897
0.00409769
0.00367513
0.00325603
0.00283321
0.00239606
0.00193765
0.00145008
0.000911624
0.000328287
-0.244057
-0.259319
-0.260667
-0.252274
-0.240643
-0.228802
-0.216887
-0.203865
-0.188856
-0.17169
-0.152805
-0.13293
-0.112776
-0.0928982
-0.0737643
-0.0557841
-0.0393443
-0.0248066
-0.0123881
-0.00210849
0.00614177
0.0125284
0.0172417
0.0205068
0.0225727
0.0236727
0.0240217
0.0238132
0.0232076
0.0223291
0.0212733
0.0201141
0.0189093
0.0177018
0.0165107
0.0153556
0.0142571
0.0132122
0.0122242
0.0112974
0.0104332
0.00962944
0.00888401
0.00819223
0.00755168
0.0069555
0.0064022
0.0058832
0.00539705
0.00493606
0.00449503
0.00407071
0.00365264
0.00323828
0.00281897
0.00238532
0.0019287
0.00144484
0.000906805
0.000328497
-0.219846
-0.233864
-0.236162
-0.229584
-0.219532
-0.208967
-0.19835
-0.186981
-0.174061
-0.159307
-0.142977
-0.125644
-0.107915
-0.0902985
-0.0732097
-0.0570064
-0.0420093
-0.0285224
-0.016773
-0.00684254
0.00130979
0.00779698
0.0127665
0.0163887
0.0188606
0.0203853
0.0211538
0.0213393
0.0210918
0.0205325
0.0197568
0.0188401
0.0178407
0.0168029
0.0157592
0.0147333
0.0137371
0.0127783
0.0118635
0.0109978
0.0101848
0.00942304
0.00871331
0.00805018
0.00743463
0.00685793
0.00632202
0.00581666
0.00534208
0.00489139
0.00445753
0.00404119
0.00362793
0.0032191
0.00280352
0.00237394
0.00191932
0.00143952
0.000902454
0.000328498
-0.197612
-0.210646
-0.21344
-0.208261
-0.199695
-0.190448
-0.181116
-0.171239
-0.16015
-0.147527
-0.133489
-0.118457
-0.102938
-0.0873855
-0.0721675
-0.0576002
-0.043967
-0.0315323
-0.0205137
-0.0110237
-0.00306721
0.00342167
0.00854615
0.0124322
0.0152352
0.0171278
0.0182748
0.0188265
0.0189196
0.0186701
0.0181702
0.0174939
0.0167028
0.0158464
0.0149584
0.0140605
0.013172
0.0123047
0.011468
0.0106678
0.00990997
0.00919389
0.008523
0.00789144
0.00730324
0.00674831
0.00623153
0.00574156
0.00527984
0.00484072
0.00441503
0.00400764
0.00359984
0.00319737
0.00278599
0.00236104
0.00190895
0.00143345
0.000898055
0.000327935
-0.177818
-0.189507
-0.192404
-0.188332
-0.181122
-0.173163
-0.165079
-0.156568
-0.147089
-0.136326
-0.124309
-0.111336
-0.0978192
-0.0841522
-0.0706649
-0.0576387
-0.0453238
-0.0339472
-0.0237041
-0.0147189
-0.00703272
-0.000623519
0.00457333
0.00864805
0.0117187
0.0139265
0.0154102
0.0162972
0.0167095
0.0167559
0.0165241
0.0160872
0.0155074
0.0148336
0.0141009
0.013336
0.0125614
0.0117908
0.0110366
0.0103061
0.00960733
0.00894056
0.00831168
0.00771464
0.00715622
0.00662543
0.00612957
0.00565682
0.00520932
0.00478313
0.00436668
0.0039692
0.00356772
0.00317234
0.00276582
0.00234601
0.00189717
0.00142615
0.000893216
0.000326714
-0.159635
-0.170004
-0.172997
-0.169882
-0.163873
-0.157093
-0.150167
-0.142894
-0.134831
-0.125687
-0.115439
-0.104298
-0.0925899
-0.0806485
-0.0687645
-0.0571853
-0.0461278
-0.0357863
-0.0263343
-0.0178993
-0.0105485
-0.0042942
0.000897539
0.005087
0.00835832
0.0108227
0.0125944
0.0137791
0.0144831
0.014807
0.014833
0.0146294
0.0142564
0.013764
0.01319
0.0125628
0.0119061
0.0112361
0.0105686
0.00991174
0.0092759
0.008662
0.0080783
0.00751876
0.00699262
0.00648837
0.00601532
0.00556171
0.00512985
0.00471804
0.00431197
0.00392544
0.00353121
0.00314366
0.00274277
0.0023286
0.0018838
0.00141745
0.000887831
0.000324959
-0.142936
-0.152322
-0.155291
-0.152925
-0.147932
-0.14219
-0.136304
-0.13014
-0.123325
-0.115593
-0.106895
-0.097377
-0.0872941
-0.0769241
-0.0665152
-0.0562812
-0.0464088
-0.0370663
-0.0284088
-0.0205604
-0.0136018
-0.00756935
-0.00245373
0.00177927
0.0051839
0.00784491
0.00985429
0.0112962
0.0122615
0.0128412
0.0131095
0.0131284
0.012957
0.0126451
0.0122309
0.0117429
0.0112068
0.0106409
0.0100636
0.00948424
0.00891484
0.00835725
0.00782182
0.00730276
0.00681142
0.00633618
0.00588791
0.00545542
0.00504074
0.00464482
0.00425036
0.00387589
0.00348991
0.00311098
0.00271662
0.00230857
0.00186871
0.0014073
0.00088186
0.000322823
-0.127821
-0.136208
-0.139105
-0.137332
-0.13321
-0.128387
-0.123429
-0.118249
-0.112532
-0.106033
-0.0986905
-0.0906045
-0.0819728
-0.0730213
-0.0639579
-0.0549647
-0.0462029
-0.0378187
-0.0299502
-0.0227124
-0.0161901
-0.0104357
-0.00545971
-0.00124952
0.002224
0.0050228
0.00721895
0.00887599
0.0100684
0.0108775
0.0113689
0.0115981
0.0116206
0.0114847
0.0112277
0.0108791
0.0104656
0.0100064
0.00952217
0.00902342
0.00852367
0.00802557
0.00754138
0.00706568
0.00661165
0.00616792
0.00574646
0.00533711
0.00494123
0.00456276
0.00418126
0.00381998
0.00344342
0.00307389
0.00268708
0.00228568
0.00185174
0.00139563
0.000875211
0.000320403
-0.114141
-0.121557
-0.124323
-0.123045
-0.119674
-0.115653
-0.111508
-0.107189
-0.102427
-0.0970019
-0.0908414
-0.0840119
-0.0766653
-0.0689833
-0.0611381
-0.0532837
-0.0455579
-0.0380861
-0.0309895
-0.0243721
-0.0183168
-0.0128859
-0.00810478
-0.00397726
-0.000494899
0.00238502
0.00471709
0.00654517
0.00792781
0.00893706
0.00963003
0.0100534
0.010258
0.0102905
0.010187
0.00997632
0.0096855
0.00933419
0.00894533
0.00852975
0.00810234
0.00766659
0.00723637
0.00680679
0.00639253
0.00598275
0.00559014
0.00520598
0.0048306
0.00447118
0.00410408
0.00375715
0.00339126
0.00303197
0.00265384
0.00225966
0.00183267
0.00138234
0.000867756
0.000317726
-0.101667
-0.108237
-0.110877
-0.110014
-0.107281
-0.103946
-0.100502
-0.096925
-0.0929886
-0.0884919
-0.083357
-0.0776239
-0.0714079
-0.064855
-0.0581064
-0.0512909
-0.0445246
-0.0379129
-0.0315609
-0.0255611
-0.0199917
-0.0149196
-0.0103795
-0.00638719
-0.00295074
-4.34689e-05
0.0023745
0.00432909
0.00586381
0.00704193
0.00791142
0.00850947
0.00888187
0.00907318
0.00911702
0.00904037
0.00887023
0.00862743
0.00833506
0.00800436
0.00765139
0.00728038
0.00690656
0.00652564
0.00615346
0.00577996
0.00541825
0.00506129
0.00470814
0.00436939
0.0040182
0.00368682
0.00333298
0.00298478
0.00261654
0.00223026
0.00181124
0.00136732
0.000859363
0.000314768
-0.0903716
-0.0961999
-0.0986945
-0.0981497
-0.0959495
-0.0932008
-0.0903585
-0.0874197
-0.084192
-0.0804935
-0.0762432
-0.0714613
-0.0662349
-0.0606804
-0.0549128
-0.0490381
-0.0431527
-0.0373439
-0.0317017
-0.0263074
-0.0212324
-0.016544
-0.0122816
-0.00846894
-0.0051271
-0.00224219
0.00021409
0.00225169
0.00389966
0.00521333
0.00623218
0.00698332
0.00750682
0.0078445
0.00802688
0.00807826
0.00802336
0.00789032
0.00769431
0.00744915
0.00717196
0.00686752
0.00655211
0.00622205
0.00589405
0.00555903
0.00523017
0.00490238
0.00457323
0.00425675
0.00392308
0.00360846
0.0032681
0.00293192
0.0025748
0.00219722
0.00178718
0.00135049
0.000849908
0.000311497
-0.0802079
-0.085342
-0.0876445
-0.0873441
-0.085596
-0.0833567
-0.0810334
-0.0786396
-0.0760155
-0.0729977
-0.0695054
-0.0655445
-0.0611796
-0.0565028
-0.0516064
-0.0465768
-0.0414933
-0.0364273
-0.0314547
-0.0266459
-0.0220638
-0.0177733
-0.0138156
-0.0102187
-0.00701328
-0.00419518
-0.0017447
0.000334071
0.00205674
0.00347206
0.00461198
0.0054929
0.00614824
0.00661722
0.00692732
0.00709976
0.0071591
0.00712864
0.00702695
0.00686686
0.00666593
0.00642919
0.00617365
0.00589622
0.00561424
0.00531965
0.00502552
0.00472875
0.00442534
0.0041327
0.00381817
0.00352155
0.00319615
0.00287298
0.00252826
0.0021603
0.00176021
0.00133171
0.000839286
0.000307887
-0.0710306
-0.075527
-0.0776509
-0.0775493
-0.0761787
-0.0743657
-0.0724818
-0.0705502
-0.0684362
-0.0659949
-0.0631481
-0.0598918
-0.0562725
-0.0523622
-0.0482342
-0.0439582
-0.039599
-0.035214
-0.0308663
-0.0266156
-0.0225159
-0.0186281
-0.0149926
-0.0116389
-0.00860436
-0.0058915
-0.00348668
-0.00140576
0.00035461
0.00183776
0.00306944
0.00405558
0.0048222
0.00540555
0.00583013
0.00611403
0.00627984
0.00634803
0.00633771
0.00626113
0.00613592
0.00596717
0.00577233
0.00554881
0.00531432
0.00506184
0.00480411
0.00454006
0.00426407
0.00399679
0.00370299
0.00342563
0.00311668
0.0028076
0.00247653
0.00211924
0.00173011
0.00131085
0.000827409
0.000303908
-0.0627487
-0.0666865
-0.0686367
-0.0686893
-0.067632
-0.0661789
-0.0646628
-0.0631171
-0.0614302
-0.0594738
-0.0571737
-0.0545182
-0.0515397
-0.0482942
-0.044839
-0.04123
-0.0375197
-0.0337531
-0.0299824
-0.0262569
-0.0226221
-0.0191335
-0.0158292
-0.012738
-0.00990111
-0.00732552
-0.00500108
-0.00295325
-0.00118981
0.000328117
0.00162173
0.00268743
0.00354394
0.00422423
0.00474879
0.00513175
0.00539442
0.00555533
0.00563223
0.00563639
0.00558532
0.00548397
0.00534994
0.005181
0.00499501
0.00478594
0.00456601
0.00433618
0.00408916
0.00384867
0.00357718
0.00332034
0.00302929
0.00273545
0.00241927
0.00207382
0.00169664
0.00128777
0.000814207
0.000299528
-0.0553074
-0.0587478
-0.0605251
-0.0606822
-0.0598785
-0.058726
-0.0575226
-0.0563023
-0.0549725
-0.0534219
-0.0515813
-0.0494343
-0.0470026
-0.0443296
-0.0414595
-0.0384365
-0.0353028
-0.0320932
-0.02885
-0.0256132
-0.0224198
-0.0193198
-0.0163477
-0.0135303
-0.0109104
-0.00849733
-0.00628244
-0.00429856
-0.00256317
-0.0010409
0.000286012
0.00140492
0.00232746
0.00308486
0.00369485
0.00416563
0.00451402
0.00475859
0.00491688
0.00499788
0.00501829
0.00498277
0.00490885
0.0047945
0.00465749
0.00449266
0.00431163
0.00411725
0.00390058
0.0036882
0.00344045
0.00320538
0.00293364
0.00265623
0.00235617
0.00202379
0.0016596
0.00126231
0.000799619
0.000294716
-0.0486318
-0.0516203
-0.053223
-0.0534556
-0.0528606
-0.0519659
-0.0510213
-0.0500686
-0.0490348
-0.0478218
-0.0463654
-0.0446464
-0.0426789
-0.0404962
-0.0381317
-0.03562
-0.0329946
-0.030282
-0.027516
-0.0247285
-0.0219487
-0.0192207
-0.0165749
-0.014035
-0.0116442
-0.00941243
-0.00733065
-0.00543702
-0.00375701
-0.00225761
-0.000923121
0.00022554
0.00119164
0.00200315
0.00267736
0.00322113
0.00364747
0.00396858
0.00420044
0.00435244
0.00444027
0.00446783
0.00445233
0.00439171
0.00430349
0.00418322
0.00404177
0.00388376
0.00369853
0.00351542
0.00329271
0.00308061
0.00282949
0.00256975
0.00228699
0.00196897
0.00161884
0.00123435
0.000783588
0.000289448
-0.0426455
-0.0452351
-0.0466793
-0.0469718
-0.0465556
-0.0458557
-0.0451195
-0.0443876
-0.0435966
-0.0426605
-0.0415218
-0.0401604
-0.0385841
-0.0368179
-0.0348873
-0.0328184
-0.0306373
-0.0283636
-0.0260248
-0.0236458
-0.0212483
-0.0188711
-0.0165401
-0.0142753
-0.012119
-0.0100807
-0.00814971
-0.00636804
-0.00476764
-0.00331635
-0.00199895
-0.000842476
0.000149867
0.00100096
0.00172132
0.00231468
0.00279737
0.00318653
0.00348725
0.00370459
0.00385538
0.00394279
0.00398349
0.00397521
0.00393507
0.00385919
0.00375756
0.00363648
0.00348351
0.00333061
0.00313404
0.00294604
0.00271673
0.00247585
0.00221158
0.00190918
0.00157422
0.00120376
0.000766059
0.000283705
-0.0372779
-0.0395124
-0.0408016
-0.041124
-0.0408419
-0.040322
-0.0397655
-0.0392153
-0.0386218
-0.0379128
-0.0370371
-0.0359737
-0.0347255
-0.0333114
-0.0317507
-0.0300631
-0.0282682
-0.0263797
-0.0244198
-0.0224077
-0.0203593
-0.0183081
-0.0162754
-0.0142775
-0.0123552
-0.0105162
-0.00874743
-0.00709347
-0.00559211
-0.00421191
-0.00293654
-0.00179757
-0.000803402
7.00984e-05
0.000833885
0.00147751
0.00200105
0.00244165
0.00279546
0.00306962
0.00327549
0.00341647
0.00350883
0.00354977
0.00355572
0.00352312
0.00346084
0.00337674
0.00325641
0.0031344
0.00296479
0.00280186
0.00259543
0.00237453
0.00212987
0.00184433
0.00152567
0.00117047
0.000746984
0.000277473
-0.0324829
-0.0344054
-0.0355525
-0.0358929
-0.0357212
-0.0353437
-0.0349321
-0.0345257
-0.0340903
-0.033566
-0.0329058
-0.0320877
-0.0311115
-0.0299923
-0.0287441
-0.027382
-0.0259206
-0.0243686
-0.0227427
-0.0210576
-0.0193242
-0.0175719
-0.0158176
-0.0140737
-0.0123791
-0.0107393
-0.00913777
-0.00762027
-0.00622903
-0.00493379
-0.00371862
-0.00261906
-0.00164876
-0.000788931
-2.97016e-05
0.000630853
0.00118453
0.00169977
0.0021098
0.00243364
0.00269147
0.00288428
0.00302662
0.00311537
0.0031663
0.00317619
0.00315283
0.00310564
0.0030181
0.00292748
0.00278544
0.00264841
0.00246576
0.00226587
0.00204191
0.00177437
0.00147317
0.00113443
0.000726314
0.000270716
-0.0281866
-0.0298319
-0.0308459
-0.0311903
-0.0311024
-0.030837
-0.0305424
-0.0302574
-0.0299552
-0.0295815
-0.0290955
-0.0284781
-0.0277276
-0.0268553
-0.0258706
-0.0247838
-0.0236063
-0.0223436
-0.0210089
-0.0196126
-0.0181612
-0.01668
-0.0151824
-0.0136771
-0.0122008
-0.0107561
-0.00932307
-0.00794792
-0.00667589
-0.00547519
-0.0043265
-0.00326765
-0.00231615
-0.00145125
-0.000667302
2.00543e-05
0.000644594
0.00109063
0.00150492
0.00185899
0.00215165
0.00238112
0.00256234
0.00268998
0.00277959
0.00282742
0.00283988
0.00282776
0.00277181
0.0027122
0.00259762
0.00248686
0.00232857
0.00215041
0.00194808
0.00169954
0.00141687
0.00109575
0.000704086
0.000263537
-0.0243866
-0.0257918
-0.0266912
-0.0270451
-0.0270436
-0.0268937
-0.0267147
-0.0265336
-0.0263231
-0.0260473
-0.0256837
-0.025219
-0.0246481
-0.0239759
-0.0232072
-0.0223497
-0.021412
-0.0203964
-0.0193137
-0.0181706
-0.0169697
-0.0157331
-0.014471
-0.0131891
-0.0119221
-0.0106699
-0.00940925
-0.00818649
-0.00704921
-0.00596494
-0.004913
-0.00393337
-0.00304735
-0.0022373
-0.00148696
-0.000794584
-0.000200962
0.000361217
0.000830822
0.00122629
0.0015621
0.0018376
0.00206341
0.00223692
0.00236887
0.00245914
0.00250942
0.00253493
0.0025118
0.00248473
0.00239865
0.00231527
0.00218247
0.00202697
0.00184758
0.00161905
0.00135618
0.00105391
0.000679821
0.000255125
-0.020943
-0.0221188
-0.0228823
-0.0231925
-0.0232018
-0.0230838
-0.0229462
-0.0228232
-0.0227031
-0.0225552
-0.0223434
-0.0220409
-0.0216397
-0.0211442
-0.0205599
-0.0198974
-0.019166
-0.0183644
-0.0174992
-0.016575
-0.015592
-0.0145694
-0.0135147
-0.012431
-0.0113504
-0.0102699
-0.00916249
-0.0080738
-0.00705283
-0.00606546
-0.00508816
-0.00416278
-0.00331391
-0.00252611
-0.0018055
-0.00117537
-0.000577809
-7.0052e-05
0.000393125
0.000795151
0.00114304
0.00143227
0.00167825
0.00187093
0.00202793
0.00214085
0.00221821
0.00226835
0.00227157
0.00226957
0.00220812
0.00214834
0.00203906
0.00190448
0.00174726
0.00153837
0.00129518
0.0010124
0.000655773
0.000249479
-0.018052
-0.0190904
-0.0198052
-0.0201566
-0.0202641
-0.0202655
-0.0202435
-0.020219
-0.020173
-0.0200719
-0.0198923
-0.0196276
-0.0192911
-0.0188957
-0.0184415
-0.0179274
-0.0173556
-0.0167234
-0.0160362
-0.0152958
-0.0144999
-0.0136662
-0.0127997
-0.011901
-0.0110003
-0.0100924
-0.0091471
-0.00820929
-0.00732926
-0.00647175
-0.00561009
-0.00478486
-0.00402152
-0.00329976
-0.00259981
-0.00194725
-0.00134302
-0.000794708
-0.000310151
0.000120161
0.000501137
0.000831005