/*--------------------------------*- C++ -*----------------------------------*\
| =========                 |                                                 |
| \\      /  F ield         | OpenFOAM: The Open Source CFD Toolbox           |
|  \\    /   O peration     | Version:  2312                                  |
|   \\  /    A nd           | Website:  www.openfoam.com                      |
|    \\/     M anipulation  |                                                 |
\*---------------------------------------------------------------------------*/
FoamFile
{
    version     2.0;
    format      ascii;
    arch        "LSB;label=32;scalar=64";
    class       volVectorField;
    location    "17";
    object      U;
}
// * * * * * * * * * * * * * * * * * * * * * * * * * * * * * * * * * * * * * //

dimensions      [0 1 -1 0 0 0 0];

internalField   nonuniform List<vector> 
5478
(
(-0.0201763 0.0149065 -6.22428e-20)
(-0.0462929 0.0463719 0)
(-0.0435143 0.0735693 9.3376e-20)
(-0.0103735 0.0914926 -1.63342e-19)
(0.0547968 0.101724 1.0738e-19)
(0.154319 0.109123 -3.06224e-20)
(0.287879 0.118254 -5.66547e-20)
(0.448348 0.131406 0)
(0.625 0.147026 0)
(0.804708 0.165245 9.16862e-20)
(0.970122 0.176302 -3.74969e-20)
(1.12065 0.193576 -7.46877e-20)
(1.2304 0.179545 -3.17937e-20)
(1.30926 0.193335 0)
(1.35983 0.137205 9.87843e-20)
(-0.0275838 0.0134297 1.24374e-19)
(-0.0500864 0.0280597 0)
(-0.0328861 0.0381703 0)
(0.032462 0.0485006 -8.09921e-20)
(0.152034 0.0630168 1.06968e-19)
(0.3212 0.0856353 3.14385e-20)
(0.521633 0.11662 -5.66462e-20)
(0.728798 0.151477 5.02211e-20)
(0.92188 0.186117 1.38418e-19)
(1.08182 0.211238 -1.23472e-19)
(1.20414 0.229946 3.53603e-21)
(1.27908 0.22804 0)
(1.31204 0.221245 3.17324e-20)
(1.31517 0.197299 0)
(1.28471 0.168887 0)
(-0.035271 0.0148865 -2.81055e-22)
(-0.0416878 0.0211594 -5.7255e-20)
(0.0163373 0.0253962 2.37324e-22)
(0.149683 0.0403792 0)
(0.351417 0.0720677 -3.6276e-20)
(0.586963 0.117371 3.15003e-20)
(0.815371 0.166843 2.75393e-20)
(1.00738 0.211128 0)
(1.14639 0.241192 -4.49748e-20)
(1.23158 0.25657 4.04052e-20)
(1.2678 0.251992 3.60461e-20)
(1.26841 0.239721 0)
(1.2541 0.213784 0)
(1.23282 0.197251 -8.82904e-20)
(1.22151 0.170685 7.85615e-20)
(-0.0374457 0.0141567 -6.64403e-20)
(-0.0107851 0.016638 5.64762e-20)
(0.117302 0.0276964 -4.87109e-20)
(0.343102 0.0639349 4.31165e-20)
(0.614086 0.121142 7.31411e-20)
(0.863841 0.182071 -6.30593e-20)
(1.05284 0.231869 -2.75141e-20)
(1.16997 0.26163 2.3781e-20)
(1.22528 0.272222 -2.17069e-20)
(1.23813 0.264817 0)
(1.23104 0.252131 0)
(1.22373 0.232939 -5.32607e-20)
(1.22147 0.221063 7.11382e-20)
(1.22371 0.206348 -4.08582e-20)
(1.23319 0.192253 0)
(-0.0300533 0.0100867 3.36154e-20)
(0.053293 0.0120994 2.83791e-20)
(0.279019 0.0465584 -1.0223e-19)
(0.586405 0.115946 1.29686e-21)
(0.867807 0.190638 -3.73888e-22)
(1.06442 0.247253 -6.92293e-22)
(1.1712 0.277532 2.65642e-20)
(1.21242 0.285769 2.33606e-20)
(1.21934 0.279348 1.83293e-20)
(1.21682 0.269247 -1.29769e-21)
(1.21661 0.256716 -4.30756e-20)
(1.21713 0.245885 0)
(1.21373 0.232974 2.21391e-20)
(1.20771 0.216959 -1.79391e-20)
(1.18834 0.202145 3.09856e-20)
(-0.00993033 0.00448552 -7.24566e-20)
(0.160968 0.0156576 7.85598e-20)
(0.490607 0.0918914 -2.73187e-20)
(0.820973 0.187176 2.11283e-20)
(1.04689 0.257599 -3.88193e-20)
(1.16227 0.293381 -3.05971e-20)
(1.20455 0.303257 5.10131e-22)
(1.21331 0.299186 0)
(1.21236 0.290897 3.60512e-20)
(1.20902 0.279681 -3.20596e-20)
(1.20223 0.267785 1.37697e-20)
(1.19235 0.252873 0)
(1.18324 0.23902 8.89344e-21)
(1.17359 0.223277 -1.6874e-20)
(1.17457 0.213684 0)
(0.0276966 0.000644118 -9.0287e-21)
(0.313931 0.0418237 8.38828e-22)
(0.70603 0.161646 1.30753e-20)
(0.993947 0.259502 2.28965e-20)
(1.14284 0.310001 -1.82911e-20)
(1.19873 0.325998 3.11105e-20)
(1.21069 0.324281 -7.04984e-21)
(1.20669 0.315708 0)
(1.19739 0.303454 -2.08727e-20)
(1.18674 0.290138 9.58402e-22)
(1.17795 0.275818 1.80552e-20)
(1.17257 0.262746 0)
(1.16773 0.250012 -1.28326e-20)
(1.16544 0.236025 0)
(1.15496 0.226931 8.67465e-21)
(0.0866937 0.00491874 -1.01603e-20)
(0.490719 0.0997364 0)
(0.879809 0.24133 1.43002e-20)
(1.0992 0.323891 0)
(1.1863 0.353525 0)
(1.20587 0.355203 0)
(1.19983 0.345494 -6.19401e-21)
(1.18754 0.331669 0)
(1.17639 0.317229 4.14747e-21)
(1.1681 0.302574 0)
(1.16098 0.2885 -5.67204e-21)
(1.15279 0.273787 0)
(1.14488 0.259048 3.93425e-21)
(1.13543 0.244203 0)
(1.13107 0.234082 2.74495e-21)
(-0.0226361 -0.0120262 -6.41349e-21)
(-0.0868272 -0.0181619 0)
(-0.172149 -0.019067 1.08232e-20)
(-0.248823 -0.0176867 0)
(-0.318249 -0.015408 0)
(-0.381927 -0.0127355 0)
(-0.439685 -0.00994669 -8.65758e-21)
(-0.491686 -0.00730194 0)
(-0.537915 -0.0050205 7.8052e-21)
(-0.578353 -0.00329687 0)
(-0.612875 -0.00230487 -1.37947e-20)
(-0.641436 -0.0022055 0)
(-0.664262 -0.00312543 1.18555e-20)
(-0.681615 -0.00512522 0)
(-0.692721 -0.00809171 9.94043e-21)
(-0.0264461 0.0440827 3.23948e-20)
(-0.0884231 0.0709753 -2.37031e-20)
(-0.167392 0.0735224 1.12816e-20)
(-0.23749 0.071334 4.14682e-20)
(-0.299748 0.0691182 1.34579e-21)
(-0.35537 0.0669471 -3.63588e-20)
(-0.404043 0.0644959 2.53265e-20)
(-0.445829 0.0615124 0)
(-0.480694 0.0578107 2.44076e-20)
(-0.508677 0.0532326 1.65864e-21)
(-0.529772 0.0476215 -1.31969e-20)
(-0.543832 0.0407817 0)
(-0.550795 0.0326236 -3.60059e-20)
(-0.551167 0.023461 0)
(-0.544856 0.0134152 -5.01687e-20)
(-0.0318049 0.0856073 5.45887e-20)
(-0.0851647 0.144444 1.30162e-20)
(-0.146084 0.15461 -2.20517e-20)
(-0.198128 0.151106 -6.35145e-20)
(-0.241431 0.145401 3.79511e-20)
(-0.2766 0.13926 3.84541e-20)
(-0.303212 0.132589 -6.96253e-20)
(-0.321247 0.125223 0)
(-0.330693 0.117026 -6.55099e-20)
(-0.331623 0.107819 5.82483e-20)
(-0.324318 0.0974739 2.82776e-20)
(-0.309133 0.086484 0)
(-0.283919 0.0719597 2.41305e-20)
(-0.253589 0.0597811 -4.51916e-20)
(-0.208767 0.0387706 0)
(-0.0358747 0.103488 2.95572e-20)
(-0.0787614 0.18993 -7.77057e-20)
(-0.116612 0.214416 9.3883e-20)
(-0.145241 0.214194 -8.55193e-20)
(-0.164778 0.206905 -4.03645e-20)
(-0.175129 0.197817 3.78488e-20)
(-0.175836 0.18776 3.55305e-20)
(-0.166963 0.176743 3.36636e-20)
(-0.148903 0.164723 -9.76676e-20)
(-0.122115 0.151896 -3.32059e-21)
(-0.0841893 0.137351 2.68811e-20)
(-0.046241 0.123396 0)
(0.01532 0.104139 4.83277e-20)
(0.0549773 0.0875575 1.36469e-19)
(0.152435 0.0755398 -8.1569e-20)
(-0.0359948 0.0970085 7.14117e-22)
(-0.070224 0.20034 5.4112e-20)
(-0.0862479 0.244448 -4.81705e-20)
(-0.0908896 0.254277 4.34167e-20)
(-0.0857812 0.249278 8.0475e-20)
(-0.0710153 0.239064 -7.51027e-20)
(-0.0463633 0.226917 -3.48487e-20)
(-0.0121362 0.213804 -1.02432e-19)
(0.0325255 0.199549 9.2818e-20)
(0.0792183 0.184209 0)
(0.151867 0.168862 0)
(0.192269 0.148035 1.0529e-19)
(0.306836 0.136682 -2.3945e-19)
(0.326004 0.10478 8.68085e-20)
(0.490909 0.103439 0)
(-0.0311989 0.073872 2.62276e-22)
(-0.0600228 0.176329 -5.40869e-20)
(-0.0610555 0.236742 1.45224e-19)
(-0.0462019 0.261156 -4.30424e-20)
(-0.0192106 0.264111 -4.01395e-20)
(0.0182386 0.256546 3.72812e-20)
(0.0656933 0.244265 3.48585e-20)
(0.119406 0.22923 6.56765e-20)
(0.189155 0.214209 -1.16027e-19)
(0.243349 0.194454 5.41835e-20)
(0.351538 0.181478 5.05043e-20)
(0.385404 0.157101 0)
(0.554867 0.14858 0)
(0.560217 0.115421 1.69173e-19)
(0.783517 0.110157 -1.50511e-19)
(-0.0238514 0.0464025 -1.44136e-22)
(-0.0498501 0.130082 0)
(-0.0450746 0.192639 0)
(-0.0196661 0.225869 8.57761e-20)
(0.0214649 0.236781 -3.83496e-20)
(0.0746802 0.233994 3.37628e-20)
(0.138569 0.2242 6.55649e-20)
(0.207794 0.210373 -5.81423e-20)
(0.295223 0.196816 5.77687e-20)
(0.373167 0.182358 -5.42408e-20)
(0.50436 0.170105 -3.69419e-21)
(0.57502 0.153947 0)
(0.770902 0.144084 4.00869e-20)
(0.810068 0.117793 0)
(1.06321 0.115047 0)
(-0.0186991 0.0252361 -6.26525e-20)
(-0.0440003 0.0816137 0)
(-0.0405411 0.130199 -9.45011e-20)
(-0.0130882 0.159559 1.66104e-19)
(0.0344199 0.171793 -1.84215e-19)
(0.0994293 0.172965 -3.52748e-20)
(0.182198 0.168993 5.89434e-20)
(0.282994 0.165057 0)
(0.404277 0.159979 0)
(0.539733 0.161363 -9.89512e-20)
(0.693036 0.15365 -5.0703e-20)
(0.837102 0.159605 8.18244e-20)
(1.00845 0.146431 -4.01523e-20)
(1.10632 0.144008 0)
(1.29184 0.132272 -1.24154e-19)
(-0.697435 -0.0137731 0)
(-0.689869 -0.0274083 3.86775e-21)
(-0.630334 -0.0277402 -3.56773e-21)
(-0.560636 -0.0383131 0)
(-0.414817 -0.0133776 0)
(-0.254024 0.0180129 -3.59568e-23)
(-0.0279227 0.0441795 0)
(0.181673 0.0613405 0)
(0.370415 0.067223 -4.67013e-23)
(0.51884 0.0671294 0)
(0.630607 0.0656243 0)
(0.712679 0.0628134 5.32902e-23)
(0.772355 0.0613118 0)
(0.816883 0.0583397 3.20885e-23)
(0.850903 0.0589388 2.51376e-23)
(0.878301 0.0540246 0)
(0.900858 0.0592189 1.17235e-22)
(0.920629 0.0482653 -1.37731e-22)
(0.936918 0.0615368 0)
(0.951083 0.0392644 -6.41203e-23)
(0.961561 0.0637938 7.35632e-23)
(0.970261 0.0333563 -1.35014e-23)
(0.975765 0.0596451 1.86951e-23)
(0.981308 0.0432266 -1.78636e-23)
(0.982647 0.0414095 1.45178e-23)
(0.987802 0.0643565 0)
(0.987425 0.0339272 1.035e-23)
(0.989162 0.0538595 -9.89621e-24)
(0.993602 0.0679021 8.05765e-24)
(0.990353 0.0373753 0)
(0.992527 0.0525194 1.30827e-23)
(0.997571 0.088802 0)
(0.99481 0.0563923 1.14609e-23)
(0.992779 0.0415676 6.32906e-24)
(0.997145 0.0756073 -7.66417e-25)
(1.00208 0.122063 5.63132e-24)
(1.00237 0.129462 0)
(0.997311 0.0467551 -2.03453e-25)
(-0.527851 -0.0037228 1.84932e-20)
(-0.552507 -0.0535291 -1.28045e-22)
(-0.492486 -0.0679847 -1.25048e-20)
(-0.448438 -0.103829 1.19258e-20)
(-0.338068 -0.108865 0)
(-0.196666 -0.102958 3.62368e-23)
(-0.0037335 -0.0826671 1.82166e-23)
(0.181972 -0.0472693 0)
(0.354067 -0.0175955 4.70522e-23)
(0.491863 0.00435836 0)
(0.596749 0.0202334 0)
(0.675445 0.0307109 -5.36719e-23)
(0.734505 0.0377513 0)
(0.780954 0.0405277 -9.82387e-22)
(0.818063 0.0452165 8.30253e-22)
(0.850453 0.0429969 -5.93914e-22)
(0.878191 0.0503734 5.66918e-22)
(0.904217 0.0409453 2.59547e-23)
(0.925448 0.0560431 0)
(0.944373 0.0349538 0)
(0.95744 0.0609363 1.4285e-23)
(0.96843 0.0313545 -1.01856e-22)
(0.974724 0.0581901 1.61597e-22)
(0.980837 0.0425954 -7.22906e-23)
(0.982843 0.0405407 -4.38216e-23)
(0.987487 0.0640339 0)
(0.987877 0.0337921 -2.17423e-23)
(0.989548 0.0532125 0)
(0.993505 0.0679208 -8.08598e-24)
(0.991103 0.0374644 2.83156e-23)
(0.993229 0.0518586 -5.32659e-23)
(0.997681 0.088675 1.02316e-23)
(0.99546 0.0568017 -1.90193e-23)
(0.993896 0.0413807 -5.45867e-25)
(0.998117 0.0749463 -7.61143e-24)
(1.00273 0.121683 4.83099e-24)
(1.00313 0.129784 2.82093e-25)
(0.998485 0.0470974 -5.04094e-25)
(-0.167602 0.0119414 3.8672e-20)
(-0.192352 -0.0510866 -7.07052e-20)
(-0.143402 -0.099594 5.34577e-21)
(-0.0982762 -0.140022 2.61433e-20)
(-0.0220492 -0.17741 2.50627e-22)
(0.0934336 -0.193175 -1.16325e-22)
(0.242548 -0.183481 -1.85281e-23)
(0.381789 -0.140811 1.23237e-22)
(0.506935 -0.0901539 0)
(0.606952 -0.0475382 -5.03047e-21)
(0.68213 -0.0168848 4.79821e-21)
(0.737231 0.0034935 1.06956e-22)
(0.777086 0.0185112 0)
(0.80931 0.0262611 1.94407e-21)
(0.835104 0.0338795 -1.80283e-21)
(0.860054 0.0332157 6.07836e-22)
(0.881916 0.041848 -5.79992e-22)
(0.905572 0.0333508 -4.49443e-22)
(0.924704 0.050009 3.78045e-22)
(0.943891 0.0301261 0)
(0.956382 0.0576275 0)
(0.968102 0.0291118 -1.8319e-22)
(0.974263 0.0564903 1.7489e-22)
(0.98058 0.0419084 1.31155e-22)
(0.983128 0.0395538 -1.31901e-23)
(0.987141 0.0636475 -1.07084e-22)
(0.988341 0.0336657 -1.82115e-25)
(0.98993 0.0524561 3.8565e-23)
(0.993351 0.0679272 -9.70729e-23)
(0.991867 0.0375592 9.09526e-23)
(0.993943 0.0511055 -1.13292e-23)
(0.997723 0.0885072 2.33941e-23)
(0.99608 0.0572292 -1.84358e-23)
(0.99506 0.0411564 1.76271e-23)
(0.999094 0.0742196 6.07856e-24)
(1.0033 0.121267 3.83595e-24)
(1.0038 0.130095 -8.63497e-24)
(0.999601 0.0474371 -8.72561e-25)
(0.176536 0.00841937 0)
(0.184574 -0.0555608 3.56292e-20)
(0.213958 -0.118425 -3.50286e-20)
(0.254966 -0.173258 0)
(0.327427 -0.224787 -2.57566e-22)
(0.422604 -0.255445 1.19506e-22)
(0.529424 -0.253557 0)
(0.620735 -0.207196 -5.14146e-23)
(0.696666 -0.143651 1.35207e-22)
(0.756014 -0.0839407 0)
(0.799883 -0.0408469 3.94312e-21)
(0.832262 -0.0138069 -3.86925e-21)
(0.854326 0.00492834 1.66941e-22)
(0.870807 0.0158209 1.95978e-21)
(0.882513 0.0255316 -1.86877e-21)
(0.895365 0.0257984 -8.38844e-23)
(0.906343 0.0351376 0)
(0.921868 0.0270325 5.4466e-23)
(0.934075 0.0447755 -6.63629e-22)
(0.949447 0.0257772 8.80843e-23)
(0.958645 0.0545056 6.84416e-23)
(0.969411 0.0270074 3.80339e-22)
(0.974517 0.0547372 2.74226e-22)
(0.980606 0.0412649 -3.37133e-22)
(0.983519 0.0384949 3.01005e-23)
(0.986804 0.0632155 0)
(0.988808 0.0335615 2.2438e-23)
(0.990304 0.0515919 -3.90731e-23)
(0.993167 0.0679231 9.87234e-23)
(0.992623 0.0376607 -9.24004e-23)
(0.994652 0.0502602 2.64231e-23)
(0.997722 0.0882941 0)
(0.99667 0.0576726 1.87147e-23)
(0.996242 0.0408955 -3.64412e-23)
(1.00006 0.0734278 -1.531e-23)
(1.00381 0.120811 -1.94434e-23)
(1.00438 0.130392 8.64105e-24)
(1.00066 0.0477735 -3.73816e-25)
(0.490616 0.0335336 6.26709e-22)
(0.508611 -0.0457462 1.22076e-21)
(0.534505 -0.121416 0)
(0.567862 -0.190015 0)
(0.629583 -0.262264 0)
(0.706425 -0.306081 0)
(0.769424 -0.304198 9.04318e-22)
(0.805053 -0.25079 1.66076e-21)
(0.828524 -0.178288 -2.8474e-21)
(0.848654 -0.11175 0)
(0.866723 -0.0594902 3.6251e-21)
(0.884105 -0.0245283 -3.56222e-21)
(0.898621 -0.000976222 -2.68597e-21)
(0.910531 0.0130683 2.26273e-21)
(0.917901 0.0241201 -1.59601e-21)
(0.925287 0.0242957 1.60727e-21)
(0.930321 0.0331519 6.91773e-23)
(0.939547 0.0241603 8.37264e-22)
(0.945879 0.0418844 -7.97782e-22)
(0.956886 0.0228492 -7.5208e-23)
(0.962392 0.0521386 -6.23673e-23)
(0.97155 0.0253003 -3.35875e-22)
(0.97523 0.0530548 3.6877e-22)
(0.980845 0.04071 7.31418e-23)
(0.983986 0.037377 3.09994e-23)
(0.986502 0.0627452 2.65425e-23)
(0.989266 0.0334834 0)
(0.990665 0.0506268 0)
(0.992978 0.0679131 0)
(0.993351 0.0377717 0)
(0.995341 0.0493329 -7.69289e-23)
(0.997703 0.0880452 4.77971e-23)
(0.997231 0.0581308 -3.80542e-23)
(0.997414 0.0405986 1.2226e-22)
(1.001 0.0725827 -1.54031e-23)
(1.00426 0.120323 -3.6567e-24)
(1.0049 0.130673 1.20097e-23)
(1.00166 0.048106 2.34605e-24)
(0.769074 0.0460163 -6.59362e-22)
(0.790986 -0.0279491 7.68021e-20)
(0.817836 -0.10662 -7.3742e-20)
(0.844968 -0.183892 -5.31679e-20)
(0.89512 -0.263126 5.06267e-20)
(0.94666 -0.322289 2.09863e-20)
(0.956057 -0.322222 -1.9609e-20)
(0.93111 -0.269197 4.79628e-23)
(0.902229 -0.197378 9.84413e-23)
(0.887399 -0.129103 0)
(0.886274 -0.0756708 1.18589e-22)
(0.893751 -0.0386168 -5.86572e-21)
(0.905317 -0.0127523 5.58403e-21)
(0.917439 0.00317229 1.37801e-22)
(0.926833 0.0176021 0)
(0.935603 0.0198936 1.39989e-21)
(0.941204 0.0302469 -2.38495e-21)
(0.949189 0.0214837 9.54942e-22)
(0.953523 0.0397622 0)
(0.962334 0.0207506 -5.07275e-22)
(0.965514 0.0503982 1.36403e-22)
(0.973537 0.0241163 4.61444e-22)
(0.976012 0.0515492 3.83112e-22)
(0.981169 0.0403627 -3.59972e-22)
(0.984481 0.0362872 2.43221e-22)
(0.986253 0.0622598 -2.10418e-23)
(0.989705 0.0334716 -2.23692e-22)
(0.991005 0.0495869 1.56102e-22)
(0.99281 0.0678788 -1.48454e-22)
(0.994036 0.0379104 6.03796e-23)
(0.995989 0.0483436 -5.74106e-23)
(0.997691 0.0877415 0)
(0.997767 0.0585967 -3.8736e-23)
(0.998549 0.0402851 1.52351e-24)
(1.00189 0.0716835 0)
(1.00468 0.119795 1.97368e-23)
(1.00538 0.130943 -7.76855e-24)
(1.00261 0.0484361 7.42886e-25)
(1.04297 0.0589274 0)
(1.05838 -0.0114311 0)
(1.07809 -0.0978592 -2.70913e-22)
(1.0951 -0.184336 0)
(1.11372 -0.260984 0)
(1.11359 -0.311705 2.5338e-20)
(1.06946 -0.311909 -2.40896e-20)
(0.995914 -0.258579 1.60369e-21)
(0.934317 -0.18978 -1.51424e-21)
(0.900037 -0.12685 0)
(0.887694 -0.0778347 8.32747e-23)
(0.890321 -0.0427294 -8.59919e-23)
(0.900725 -0.0163099 5.1055e-21)
(0.914796 -0.000158656 -6.28845e-22)
(0.927167 0.0152356 -3.94572e-21)
(0.93839 0.0178527 -4.70453e-23)
(0.945845 0.0284991 3.71694e-23)
(0.954369 0.0193617 -1.75242e-21)
(0.958188 0.0378586 1.7229e-21)
(0.96614 0.0187065 0)
(0.967877 0.0486345 0)
(0.975283 0.0228116 2.81637e-23)
(0.976775 0.049932 0)
(0.981578 0.0399094 -3.18773e-22)
(0.984987 0.0350719 1.43146e-23)
(0.986084 0.0617235 2.4027e-22)
(0.990138 0.0334084 2.37678e-22)
(0.991312 0.0484616 -1.57373e-22)
(0.992693 0.0678515 1.82429e-23)
(0.994677 0.0380228 0)
(0.996576 0.0472958 5.24076e-23)
(0.997708 0.0874378 -4.96886e-23)
(0.99829 0.0590577 -2.05621e-23)
(0.999619 0.0399232 -1.51837e-23)
(1.00273 0.0707872 1.89009e-23)
(1.00509 0.119264 -8.00829e-24)
(1.00586 0.131174 0)
(1.00351 0.0487553 -2.13022e-24)
(1.27694 0.0825485 7.60744e-20)
(1.27733 0.0284093 7.5072e-20)
(1.2786 -0.0461535 -2.74876e-21)
(1.27293 -0.131723 -1.23111e-19)
(1.25594 -0.214648 5.52462e-20)
(1.20652 -0.271306 -2.80604e-22)
(1.12379 -0.287485 0)
(1.03209 -0.259513 -6.60095e-23)
(0.95704 -0.21166 -1.52391e-24)
(0.915647 -0.15859 0)
(0.899974 -0.106858 5.09107e-21)
(0.899747 -0.0659604 -4.82565e-21)
(0.907114 -0.033587 -8.36367e-23)
(0.918733 -0.0128075 -4.13849e-21)
(0.930505 0.00551591 3.927e-21)
(0.942372 0.0112305 -4.82847e-23)
(0.950472 0.0251297 -3.94213e-23)
(0.959314 0.016897 0)
(0.962499 0.0367111 -1.57918e-21)
(0.969824 0.0174996 1.49728e-21)
(0.97031 0.0477008 5.37998e-22)
(0.977238 0.0225046 -9.34882e-23)
(0.977814 0.0485958 -4.22443e-22)
(0.982271 0.0402186 3.35607e-22)
(0.98564 0.0339716 -5.0195e-23)
(0.986108 0.0612871 -5.0912e-22)
(0.990626 0.0337628 1.90433e-22)
(0.991631 0.047139 -1.89378e-22)
(0.992681 0.0678276 1.39649e-22)
(0.995285 0.0384172 0)
(0.997108 0.0460212 0)
(0.997777 0.086983 0)
(0.998808 0.0597037 -1.93598e-23)
(1.00061 0.0395968 1.98515e-23)
(1.0035 0.0696829 -2.54038e-23)
(1.00549 0.118631 1.62098e-23)
(1.00634 0.131492 7.318e-24)
(1.00436 0.0491015 0)
(1.34021 0.101224 0)
(1.35521 0.0484179 0)
(1.34598 -0.0107908 0)
(1.31871 -0.073229 0)
(1.27551 -0.128552 0)
(1.21291 -0.166743 0)
(1.13658 -0.17528 0)
(1.06186 -0.16689 0)
(1.0031 -0.142844 0)
(0.965408 -0.11278 0)
(0.944017 -0.0826135 0)
(0.934477 -0.0562605 0)
(0.933294 -0.0335383 0)
(0.938303 -0.0169581 0)
(0.945602 0.000901587 0)
(0.955042 0.00631249 0)
(0.961077 0.020314 0)
(0.967789 0.0126091 0)
(0.969226 0.0328456 0)
(0.974713 0.0141903 0)
(0.973889 0.0445032 0)
(0.979806 0.0201417 0)
(0.979428 0.0460879 0)
(0.983627 0.0386503 0)
(0.986422 0.0323262 0)
(0.986685 0.0599958 0)
(0.99137 0.0330446 0)
(0.991949 0.0459519 0)
(0.993104 0.0671963 0)
(0.996065 0.0380435 0)
(0.997585 0.0451319 0)
(0.998116 0.0863914 0)
(0.999611 0.0595936 0)
(1.0017 0.0391196 0)
(1.00432 0.0688972 0)
(1.00605 0.118008 0)
(1.00701 0.131441 0)
(1.00538 0.0493541 0)
(1.27271 0.0925965 0)
(1.29085 0.039851 0)
(1.2827 -0.0158245 0)
(1.25852 -0.0706798 0)
(1.22071 -0.120651 0)
(1.17012 -0.159049 0)
(1.11262 -0.179987 0)
(1.05823 -0.179894 0)
(1.01239 -0.160563 0)
(0.979834 -0.132058 0)
(0.960955 -0.100187 0)
(0.952799 -0.0697302 0)
(0.950788 -0.0417519 0)
(0.952849 -0.0217009 0)
(0.95582 -0.00265474 0)
(0.960298 0.00362409 0)
(0.964196 0.0185344 0)
(0.969944 0.0126642 0)
(0.971289 0.0331466 0)
(0.976347 0.0152657 0)
(0.975435 0.045131 0)
(0.981007 0.0203275 0)
(0.980322 0.0464713 0)
(0.984512 0.0379571 0)
(0.986919 0.0322468 0)
(0.987322 0.0596601 0)
(0.991983 0.0321963 0)
(0.992329 0.0458922 0)
(0.993811 0.0669245 0)
(0.996791 0.0372353 0)
(0.998117 0.0449344 0)
(0.998845 0.0864143 0)
(1.0006 0.0590997 0)
(1.00278 0.0384595 0)
(1.00523 0.0683832 0)
(1.0069 0.117747 0)
(1.00794 0.131606 0)
(1.00668 0.0495076 0)
(1.22579 0.084045 0)
(1.24443 0.0442718 0)
(1.24143 0.00468013 0)
(1.22107 -0.0343975 0)
(1.19126 -0.0687371 0)
(1.15491 -0.0954056 0)
(1.11389 -0.109087 0)
(1.07125 -0.109502 0)
(1.03066 -0.0990753 0)
(0.998189 -0.0824843 0)
(0.97681 -0.0628317 0)
(0.964368 -0.0443313 0)
(0.958022 -0.0268586 0)
(0.956754 -0.0146256 0)
(0.957965 -0.000946144 0)
(0.962591 0.00330532 0)
(0.965976 0.017276 0)
(0.970888 0.0108131 0)
(0.971997 0.0310771 0)
(0.976999 0.0133394 0)
(0.976346 0.0433794 0)
(0.981813 0.0187711 0)
(0.981107 0.045425 0)
(0.98533 0.0366409 0)
(0.987366 0.0316591 0)
(0.988086 0.058862 0)
(0.992531 0.0313769 0)
(0.992769 0.0457328 0)
(0.994688 0.0663193 0)
(0.997447 0.0365709 0)
(0.998707 0.0448759 0)
(0.999839 0.086181 0)
(1.00168 0.0584937 0)
(1.0038 0.0380444 0)
(1.00624 0.0681519 0)
(1.008 0.117552 0)
(1.00916 0.131675 0)
(1.00822 0.04967 0)
(1.18723 0.0786883 0)
(1.20114 0.0469982 0)
(1.19791 0.0119684 0)
(1.18232 -0.0211945 0)
(1.1598 -0.0507783 0)
(1.13212 -0.0752745 0)
(1.09999 -0.092347 0)
(1.06625 -0.100231 0)
(1.03433 -0.0978088 0)
(1.00818 -0.0870447 0)
(0.989432 -0.0712791 0)
(0.977594 -0.0551241 0)
(0.970523 -0.0377308 0)
(0.968138 -0.0240874 0)
(0.967988 -0.00748187 0)
(0.970219 -0.00128128 0)
(0.971459 0.0134628 0)
(0.975079 0.00851456 0)
(0.975102 0.0295169 0)
(0.979141 0.0126206 0)
(0.978048 0.042672 0)
(0.982949 0.0180551 0)
(0.982133 0.0447869 0)
(0.986264 0.0356424 0)
(0.98789 0.0309984 0)
(0.989054 0.0580503 0)
(0.993088 0.030572 0)
(0.993295 0.0452503 0)
(0.995787 0.0656945 0)
(0.998074 0.0359455 0)
(0.999346 0.0444859 0)
(1.00113 0.0857784 0)
(1.00289 0.0579865 0)
(1.00477 0.0375664 0)
(1.00738 0.0676774 0)
(1.00947 0.117131 0)
(1.01082 0.131682 0)
(1.01006 0.0498206 0)
(1.15338 0.0722417 0)
(1.16492 0.0475832 0)
(1.16456 0.0215278 0)
(1.1539 -0.00302587 0)
(1.13683 -0.0252608 0)
(1.1162 -0.0438874 0)
(1.09267 -0.0568847 0)
(1.06803 -0.0628841 0)
(1.04339 -0.0614868 0)
(1.02082 -0.0548175 0)
(1.00284 -0.044445 0)
(0.990042 -0.0334916 0)
(0.981107 -0.0214123 0)
(0.976368 -0.0121877 0)
(0.973314 -0.000423473 0)
(0.973427 0.00226089 0)
(0.973425 0.0154527 0)
(0.976243 0.00944122 0)
(0.976005 0.0295471 0)
(0.979979 0.0121007 0)
(0.979193 0.0418319 0)
(0.983967 0.017025 0)
(0.983282 0.0439023 0)
(0.987344 0.0345496 0)
(0.988593 0.0301704 0)
(0.990192 0.0572355 0)
(0.993726 0.0296822 0)
(0.993973 0.0446542 0)
(0.997036 0.0650822 0)
(0.99872 0.0352158 0)
(1.00011 0.0439145 0)
(1.00265 0.0853546 0)
(1.00418 0.0574387 0)
(1.00574 0.0368996 0)
(1.00873 0.0669784 0)
(1.01135 0.116583 0)
(1.01291 0.131672 0)
(1.01222 0.0499867 0)
(1.12563 0.0675454 0)
(1.13493 0.0490517 0)
(1.13518 0.028873 0)
(1.12728 0.00894192 0)
(1.1145 -0.00936127 0)
(1.0991 -0.0251643 0)
(1.08118 -0.037368 0)
(1.06203 -0.0452979 0)
(1.04221 -0.0482972 0)
(1.0236 -0.0468917 0)
(1.00826 -0.0410983 0)
(0.996722 -0.0338036 0)
(0.988285 -0.024223 0)
(0.983452 -0.0166496 0)
(0.980125 -0.00498677 0)
(0.980073 -0.00170562 0)
(0.979344 0.0118539 0)
(0.981083 0.00669424 0)
(0.979833 0.0275436 0)
(0.982842 0.010706 0)
(0.981569 0.040719 0)
(0.985696 0.0160083 0)
(0.984801 0.0430037 0)
(0.988648 0.033557 0)
(0.989491 0.0292873 0)
(0.991426 0.0563983 0)
(0.994511 0.0288063 0)
(0.99478 0.0439397 0)
(0.998343 0.064368 0)
(0.999484 0.0344996 0)
(1.00103 0.0432207 0)
(1.0043 0.0847763 0)
(1.00557 0.0568797 0)
(1.00684 0.0362066 0)
(1.0103 0.066153 0)
(1.01356 0.115908 0)
(1.01533 0.131651 0)
(1.01465 0.0501774 0)
(1.10218 0.0640801 0)
(1.1094 0.0498569 0)
(1.11011 0.0342499 0)
(1.10482 0.0188461 0)
(1.09563 0.00463782 0)
(1.08433 -0.00791084 0)
(1.07106 -0.0179518 0)
(1.05708 -0.0249706 0)
(1.04256 -0.0281523 0)
(1.02827 -0.0279126 0)
(1.01568 -0.0241883 0)
(1.0052 -0.0193242 0)
(0.996498 -0.0122844 0)
(0.991024 -0.00724065 0)
(0.986124 0.00221909 0)
(0.983819 0.00347563 0)
(0.98178 0.0153117 0)
(0.982958 0.00873774 0)
(0.981471 0.0285543 0)
(0.984303 0.0108443 0)
(0.983165 0.0403541 0)
(0.987129 0.015274 0)
(0.986226 0.0421394 0)
(0.989995 0.0326666 0)
(0.990513 0.0283031 0)
(0.992709 0.0555372 0)
(0.995444 0.0279316 0)
(0.995692 0.0430252 0)
(0.999701 0.0636091 0)
(1.00041 0.0338154 0)
(1.00209 0.0422997 0)
(1.006 0.0840431 0)
(1.00709 0.0563901 0)
(1.00813 0.0354689 0)
(1.01209 0.0650925 0)
(1.01598 0.115024 0)
(1.018 0.131593 0)
(1.01734 0.0503911 0)
(1.08221 0.0612262 0)
(1.08793 0.0503339 0)
(1.08894 0.0383892 0)
(1.08538 0.026467 0)
(1.07875 0.0152009 0)
(1.07058 0.00498033 0)
(1.06077 -0.00357601 0)
(1.05041 -0.0101994 0)
(1.03925 -0.0143236 0)
(1.02777 -0.0162649 0)
(1.01727 -0.0154184 0)
(1.00807 -0.0135396 0)
(1.00021 -0.00912311 0)
(0.995206 -0.00624835 0)
(0.990651 0.00141369 0)
(0.988728 0.00176555 0)
(0.986604 0.0135825 0)
(0.987247 0.00709455 0)
(0.985098 0.0272656 0)
(0.987178 0.00969378 0)
(0.985609 0.0393959 0)
(0.989085 0.0143287 0)
(0.987923 0.0411367 0)
(0.991512 0.0318156 0)
(0.991702 0.0272023 0)
(0.994051 0.0546388 0)
(0.996531 0.0270317 0)
(0.996725 0.0419384 0)
(1.00112 0.06281 0)
(1.00149 0.0330897 0)
(1.00327 0.0411451 0)
(1.00776 0.0831689 0)
(1.00874 0.0559136 0)
(1.00961 0.0346057 0)
(1.01406 0.0637161 0)
(1.01857 0.113881 0)
(1.02087 0.131488 0)
(1.02032 0.0506248 0)
(1.06536 0.0590394 0)
(1.06987 0.0507003 0)
(1.07096 0.0415349 0)
(1.06861 0.0322988 0)
(1.0639 0.023462 0)
(1.05815 0.0152262 0)
(1.05103 0.00808313 0)
(1.04353 0.00217407 0)
(1.03542 -0.00191973 0)
(1.02688 -0.00437729 0)
(1.01902 -0.00453152 0)
(1.01163 -0.00384078 0)
(1.00463 -0.000595536 0)
(0.99999 0.00096508 0)
(0.995032 0.00758051 0)
(0.992128 0.00663133 0)
(0.989364 0.0170822 0)
(0.989684 0.00922589 0)
(0.987341 0.0284764 0)
(0.989182 0.0100068 0)
(0.987552 0.0392512 0)
(0.990843 0.0138247 0)
(0.989558 0.0402917 0)
(0.993055 0.0311303 0)
(0.993 0.0260727 0)
(0.995443 0.0537585 0)
(0.997764 0.0261523 0)
(0.997877 0.0407163 0)
(1.00258 0.0619678 0)
(1.00275 0.0323233 0)
(1.00461 0.0397953 0)
(1.00959 0.0821539 0)
(1.01055 0.0554097 0)
(1.0113 0.0336128 0)
(1.01624 0.0620623 0)
(1.02132 0.11247 0)
(1.02395 0.131306 0)
(1.02359 0.0508971 0)
(1.05108 0.0570699 0)
(1.05464 0.0506266 0)
(1.05573 0.0435548 0)
(1.05424 0.0363958 0)
(1.05097 0.0294495 0)
(1.04698 0.0228163 0)
(1.04183 0.0168529 0)
(1.03651 0.0116879 0)
(1.03063 0.00779181 0)
(1.02416 0.00488311 0)
(1.01808 0.00366898 0)
(1.01214 0.00275082 0)
(1.00618 0.00434234 0)
(1.00238 0.00414059 0)
(0.998011 0.0092775 0)
(0.995309 0.00726659 0)
(0.992604 0.0173553 0)
(0.992838 0.00899064 0)
(0.990254 0.0281894 0)
(0.991686 0.009376 0)
(0.9898 0.0385592 0)
(0.992815 0.0129982 0)
(0.991318 0.0391226 0)
(0.994692 0.0302839 0)
(0.994424 0.024649 0)
(0.996892 0.0526444 0)
(0.999131 0.0250695 0)
(0.999144 0.0391299 0)
(1.00411 0.0608834 0)
(1.00417 0.0313494 0)
(1.00608 0.0380684 0)
(1.01148 0.0808175 0)
(1.01253 0.0547427 0)
(1.01322 0.032358 0)
(1.01861 0.0599648 0)
(1.02423 0.110714 0)
(1.02731 0.130902 0)
(1.02722 0.0510191 0)
(1.03874 0.0558331 0)
(1.04156 0.0508263 0)
(1.04264 0.0453535 0)
(1.04177 0.0397837 0)
(1.03958 0.0342946 0)
(1.03694 0.028936 0)
(1.03333 0.0240027 0)
(1.02971 0.0195642 0)
(1.02559 0.0160176 0)
(1.02084 0.0130921 0)
(1.01645 0.0115747 0)
(1.012 0.0100931 0)
(1.00712 0.011021 0)
(1.00414 0.00998053 0)
(1.00032 0.0142429 0)
(0.997725 0.0112212 0)
(0.994947 0.020544 0)
(0.995152 0.0111446 0)
(0.992529 0.029787 0)
(0.993805 0.0101998 0)
(0.991826 0.039081 0)
(0.99468 0.0131832 0)
(0.993104 0.0388294 0)
(0.996353 0.0302601 0)
(0.99597 0.023917 0)
(0.998425 0.05218 0)
(1.00061 0.0246458 0)
(1.00058 0.0379986 0)
(1.00574 0.0603012 0)
(1.00574 0.0308927 0)
(1.00774 0.0365894 0)
(1.01349 0.0797435 0)
(1.01467 0.0544982 0)
(1.01535 0.031332 0)
(1.02127 0.0578119 0)
(1.02739 0.108822 0)
(1.03084 0.130822 0)
(1.03124 0.0515601 0)
(1.0282 0.0535903 0)
(1.03046 0.0496583 0)
(1.0315 0.0453921 0)
(1.03107 0.0410282 0)
(1.02968 0.0366576 0)
(1.02805 0.0322954 0)
(1.02556 0.0281828 0)
(1.02318 0.0243305 0)
(1.02042 0.0211141 0)
(1.01708 0.0182213 0)
(1.01406 0.0164756 0)
(1.01084 0.0144418 0)
(1.00694 0.0146888 0)
(1.00476 0.01278 0)
(1.00161 0.0162146 0)
(0.999371 0.012241 0)
(0.996843 0.0210189 0)
(0.997197 0.0108589 0)
(0.994684 0.0291439 0)
(0.995849 0.00898202 0)
(0.993763 0.037527 0)
(0.99653 0.0115207 0)
(0.994769 0.0364941 0)
(0.998023 0.0284309 0)
(0.997477 0.0212409 0)
(0.999921 0.0498159 0)
(1.0022 0.0224133 0)
(1.00195 0.0349841 0)
(1.0074 0.0579075 0)
(1.00747 0.028699 0)
(1.00937 0.0334237 0)
(1.01552 0.0769385 0)
(1.01707 0.0526229 0)
(1.01761 0.0288865 0)
(1.02393 0.0541763 0)
(1.03068 0.105447 0)
(1.035 0.128928 0)
(1.03574 0.0509266 0)
(1.01873 0.0536728 0)
(1.02061 0.0505517 0)
(1.02164 0.0471981 0)
(1.02153 0.0437597 0)
(1.02074 0.0402606 0)
(1.01984 0.0367035 0)
(1.01816 0.0333078 0)
(1.01674 0.0300504 0)
(1.015 0.0272784 0)
(1.01274 0.0246118 0)
(1.0108 0.0229022 0)
(1.00866 0.0206774 0)
(1.0057 0.0206562 0)
(1.00438 0.018275 0)
(1.00195 0.021308 0)
(1.00023 0.0166407 0)
(0.997987 0.0251409 0)
(0.998626 0.014183 0)
(0.996284 0.0323512 0)
(0.997539 0.0113557 0)
(0.99554 0.03986 0)
(0.998216 0.0133749 0)
(0.996611 0.0378871 0)
(0.999662 0.0301225 0)
(0.999234 0.0219699 0)
(1.00162 0.0509327 0)
(1.00384 0.0235051 0)
(1.0038 0.0350564 0)
(1.00921 0.0588043 0)
(1.00934 0.029623 0)
(1.01155 0.0328765 0)
(1.0178 0.0770832 0)
(1.01957 0.0538067 0)
(1.02029 0.0287386 0)
(1.02731 0.0525533 0)
(1.03438 0.104251 0)
(1.03907 0.130185 0)
(1.04092 0.0524394 0)
(1.01064 0.0491803 0)
(1.01224 0.0466051 0)
(1.01327 0.0438737 0)
(1.01342 0.0410627 0)
(1.01313 0.0381616 0)
(1.01284 0.0351722 0)
(1.01185 0.0323013 0)
(1.01119 0.0294889 0)
(1.01026 0.0270516 0)
(1.00883 0.0245815 0)
(1.0078 0.0229402 0)
(1.00653 0.0206131 0)
(1.00439 0.0203912 0)
(1.00378 0.0176445 0)
(1.00203 0.0202969 0)
(1.00078 0.015076 0)
(0.998966 0.0231667 0)
(0.999858 0.0116324 0)
(0.997799 0.0293604 0)
(0.999103 0.00796515 0)
(0.997072 0.0358953 0)
(0.999839 0.00953199 0)
(0.997983 0.0331057 0)
(1.00126 0.0259167 0)
(1.00064 0.0169272 0)
(1.00303 0.0458375 0)
(1.00558 0.0188721 0)
(1.00508 0.0293433 0)
(1.01097 0.0534271 0)
(1.01131 0.0249031 0)
(1.01312 0.0268629 0)
(1.01991 0.0708784 0)
(1.02243 0.0490612 0)
(1.02268 0.0236539 0)
(1.03002 0.0454526 0)
(1.03794 0.0969769 0)
(1.04418 0.124275 0)
(1.04638 0.0496881 0)
(1.00245 0.0517049 0)
(1.00392 0.0496018 0)
(1.005 0.0474087 0)
(1.00537 0.0451517 0)
(1.00549 0.0427857 0)
(1.00568 0.0403051 0)
(1.0052 0.0379084 0)
(1.00513 0.0355108 0)
(1.00483 0.0334275 0)
(1.00409 0.0312156 0)
(1.00378 0.029762 0)
(1.00325 0.0274567 0)
(1.00182 0.0272593 0)
(1.00195 0.0243048 0)
(1.00086 0.0268966 0)
(1.00023 0.0211356 0)
(0.998798 0.0292989 0)
(1.00014 0.0170341 0)
(0.998381 0.0351561 0)
(1.00002 0.0128051 0)
(0.998292 0.0411065 0)
(1.0011 0.0140211 0)