/*--------------------------------*- C++ -*----------------------------------*\
| =========                 |                                                 |
| \\      /  F ield         | OpenFOAM: The Open Source CFD Toolbox           |
|  \\    /   O peration     | Version:  2312                                  |
|   \\  /    A nd           | Website:  www.openfoam.com                      |
|    \\/     M anipulation  |                                                 |
\*---------------------------------------------------------------------------*/
FoamFile
{
    version     2.0;
    format      ascii;
    arch        "LSB;label=32;scalar=64";
    class       volVectorField;
    location    "45";
    object      U;
}
// * * * * * * * * * * * * * * * * * * * * * * * * * * * * * * * * * * * * * //

dimensions      [0 1 -1 0 0 0 0];

internalField   nonuniform List<vector> 
13248
(
(-0.0184624 0.0177882 6.26788e-20)
(-0.036448 0.0410686 0)
(-0.0341376 0.0548328 -1.08631e-19)
(-0.0132245 0.0598696 1.00584e-19)
(0.0254842 0.0583341 9.30138e-20)
(0.0822495 0.0525073 0)
(0.158068 0.0442392 0)
(0.253793 0.0348559 2.23645e-19)
(0.368828 0.0253666 7.22173e-22)
(0.500021 0.016409 -1.93944e-19)
(0.641334 0.00823647 1.81023e-19)
(0.784495 0.00075353 -1.12586e-19)
(0.920325 -0.00639576 0)
(1.04026 -0.0136758 -1.89433e-19)
(1.1377 -0.021477 3.48322e-19)
(1.20893 -0.0299581 -8.35962e-20)
(1.25345 -0.0389888 -1.38045e-19)
(1.27382 -0.0482509 1.28707e-19)
(1.27482 -0.0568306 0)
(1.26196 -0.0655327 0)
(1.242 -0.0698432 0)
(1.2159 -0.0801674 0)
(1.19362 -0.0732188 3.0358e-20)
(1.16072 -0.0963769 9.83003e-20)
(-0.0183819 0.0147233 -1.88308e-19)
(-0.032474 0.0311714 1.18533e-19)
(-0.0230398 0.0391175 -4.93232e-22)
(0.00929083 0.0402392 -1.51738e-19)
(0.0649027 0.0368765 -9.28873e-20)
(0.144825 0.0312728 -8.62961e-20)
(0.24964 0.0252864 -1.59645e-19)
(0.377753 0.020352 1.47964e-19)
(0.524 0.0172655 0)
(0.679567 0.0160703 1.77941e-22)
(0.83339 0.0161274 -5.67748e-22)
(0.974326 0.0163628 1.0977e-19)
(1.09321 0.0156216 0)
(1.18426 0.0130156 0)
(1.24573 0.00817811 1.22047e-19)
(1.27967 0.00127567 -2.27663e-19)
(1.29102 -0.00700874 1.29246e-19)
(1.28625 -0.0158344 -1.20506e-19)
(1.27172 -0.0243024 -5.03435e-20)
(1.25274 -0.0315863 -8.79663e-20)
(1.23219 -0.0374446 -3.30648e-20)
(1.21205 -0.0417088 -6.08294e-20)
(1.19309 -0.0412906 9.32107e-20)
(1.17103 -0.0482444 2.49389e-20)
(-0.0185025 0.0124836 0)
(-0.0263366 0.022917 0)
(-0.00511753 0.0257437 5.45268e-20)
(0.0451926 0.0238067 5.00251e-20)
(0.125737 0.0199495 -4.4925e-22)
(0.237035 0.0166449 -8.71455e-20)
(0.376578 0.0157646 0)
(0.53693 0.0182029 -7.39461e-20)
(0.705929 0.0236445 6.80378e-20)
(0.869215 0.0307256 -9.29602e-22)
(1.01358 0.0375419 -1.15744e-19)
(1.12964 0.0422794 -1.04723e-19)
(1.21316 0.0437333 2.47787e-21)
(1.26499 0.0415675 -8.28513e-20)
(1.29004 0.0362595 1.99682e-19)
(1.2954 0.0288225 0)
(1.28846 0.0204964 -1.21808e-19)
(1.27518 0.0121705 5.96627e-20)
(1.2596 0.00504941 5.02917e-20)
(1.24323 -0.00156579 0)
(1.2272 -0.00510924 3.85951e-20)
(1.21051 -0.0101929 -1.26481e-19)
(1.19419 -0.00869205 1.18114e-19)
(1.17587 -0.0162055 6.84517e-20)
(-0.0179824 0.0104994 -6.43083e-20)
(-0.0158733 0.0157051 -6.11882e-20)
(0.0232146 0.014827 5.54723e-20)
(0.099321 0.0117214 0)
(0.212945 0.00987716 0)
(0.361148 0.0119276 -7.42519e-22)
(0.534421 0.0190148 0)
(0.71686 0.0304101 -2.20349e-19)
(0.89017 0.0438517 2.02638e-19)
(1.03876 0.0564739 -2.4876e-19)
(1.15319 0.065817 5.71535e-20)
(1.23113 0.070504 0)
(1.27627 0.07042 9.09854e-20)
(1.29602 0.0664504 -1.66345e-19)
(1.29889 0.0599688 3.95929e-20)
(1.29221 0.0523688 9.7561e-20)
(1.28095 0.0446333 -5.73718e-21)
(1.2678 0.037525 -1.05027e-19)
(1.25366 0.0311067 0)
(1.23893 0.0257971 0)
(1.22372 0.0215848 -3.50656e-20)
(1.20801 0.0173746 3.07304e-20)
(1.19325 0.0175174 1.05605e-19)
(1.17695 0.00994965 -9.85941e-20)
(-0.0157764 0.00825838 -6.61474e-20)
(0.00134044 0.00889753 -6.17394e-20)
(0.06531 0.00626671 1.70885e-19)
(0.175002 0.00481474 -1.03636e-19)
(0.327421 0.00842214 9.60009e-20)
(0.511779 0.0190257 1.74595e-19)
(0.70832 0.0356764 -1.21234e-19)
(0.89387 0.0550766 -1.45647e-19)
(1.04956 0.0731964 2.782e-21)
(1.16548 0.0868525 1.8458e-19)
(1.2411 0.0945461 0)
(1.28269 0.0964644 4.88339e-20)
(1.29972 0.0939101 0)
(1.30147 0.0885476 -7.81523e-20)
(1.29496 0.081835 1.09214e-19)
(1.28444 0.0747323 1.43502e-21)
(1.27201 0.0678275 -2.75735e-20)
(1.25855 0.0613103 5.11998e-20)
(1.24458 0.0554674 4.321e-20)
(1.23046 0.0502158 -3.81203e-20)
(1.2165 0.0460166 3.50489e-20)
(1.20308 0.0420062 -3.07156e-20)
(1.19029 0.0408134 0)
(1.17712 0.0344211 -2.25419e-20)
(-0.0108565 0.00553497 6.61308e-20)
(0.0276051 0.00235514 6.36054e-20)
(0.123798 0.000486347 -5.71575e-20)
(0.273278 0.00430619 1.05235e-19)
(0.465076 0.017075 -9.74776e-20)
(0.676272 0.0382729 8.78737e-20)
(0.877684 0.0635723 -4.11981e-20)
(1.04539 0.0874439 1.09245e-19)
(1.16777 0.105716 -6.72208e-20)
(1.24541 0.116667 1.17507e-19)
(1.28681 0.120768 -2.67607e-19)
(1.30317 0.119715 9.65454e-20)
(1.30455 0.115439 -8.41977e-20)
(1.298 0.109484 7.83822e-20)
(1.28764 0.102831 6.67821e-20)
(1.27557 0.0960533 5.78951e-20)
(1.26279 0.0894376 -1.59299e-19)
(1.24985 0.0832346 9.80757e-20)
(1.23704 0.0775241 -4.32025e-20)
(1.22447 0.0724916 1.10597e-19)
(1.21223 0.0681228 -3.55155e-20)
(1.20025 0.0641815 -8.4245e-20)
(1.18857 0.0620724 7.70796e-20)
(1.17714 0.0563154 2.25336e-20)
(-0.00231272 0.00247571 0)
(0.0648492 -0.00325069 4.18719e-22)
(0.200119 -0.00111717 1.17611e-19)
(0.392095 0.0120579 -1.08491e-19)
(0.61655 0.0367945 -9.75463e-20)
(0.837772 0.0681465 1.78885e-19)
(1.02403 0.098635 -8.20546e-20)
(1.15948 0.122522 1.08382e-19)
(1.24444 0.137535 -2.35245e-21)
(1.28911 0.14431 -5.9763e-20)
(1.30654 0.144949 1.29692e-19)
(1.30799 0.141722 -1.88705e-19)
(1.30117 0.136386 0)
(1.29058 0.130058 -3.62964e-20)
(1.27852 0.123386 -9.63575e-20)
(1.26606 0.11673 3.00064e-20)
(1.25364 0.110321 1.30874e-21)
(1.24138 0.104266 -6.4534e-20)
(1.22929 0.0986641 4.41071e-21)
(1.2174 0.0935376 7.34406e-20)
(1.20575 0.0888901 -3.21356e-20)
(1.19448 0.0847871 -1.1919e-20)
(1.18375 0.0815779 3.72549e-20)
(1.17325 0.0764223 0)
(0.0106482 -0.000464726 0)
(0.114369 -0.00648702 3.21641e-20)
(0.293819 0.00366776 -1.50993e-19)
(0.525491 0.0299157 5.45719e-20)
(0.768722 0.0671477 -5.05474e-20)
(0.980926 0.105539 -4.53781e-20)
(1.13777 0.136765 -7.9716e-20)
(1.23674 0.157281 3.89927e-20)
(1.28896 0.167619 3.39654e-20)
(1.30961 0.170318 0)
(1.3119 0.168163 7.57622e-20)
(1.30494 0.163318 -1.11327e-19)
(1.29401 0.157164 8.24176e-20)
(1.28175 0.150482 3.6312e-20)
(1.26925 0.143682 -2.94615e-20)
(1.25691 0.136984 -2.45739e-20)
(1.2448 0.1305 -2.27157e-20)
(1.23295 0.124317 6.74294e-20)
(1.22139 0.11849 0)
(1.21023 0.113081 3.32248e-20)
(1.19953 0.108127 2.75087e-20)
(1.18936 0.103736 -6.81705e-20)
(1.17958 0.0997785 -4.57067e-20)
(1.1703 0.0953095 4.21741e-20)
(0.028642 -0.00259687 -3.63712e-20)
(0.176443 -0.00541401 -9.89578e-22)
(0.401821 0.0171842 3.06015e-20)
(0.664031 0.0586044 8.41297e-20)
(0.908686 0.106091 2.41034e-20)
(1.09697 0.147087 -4.56699e-20)
(1.21882 0.175391 4.14513e-20)
(1.28453 0.190836 -3.61495e-20)
(1.31161 0.196368 6.36816e-20)
(1.31615 0.195527 2.71272e-20)
(1.30945 0.19114 -7.56766e-20)
(1.29809 0.185017 2.23426e-20)
(1.28526 0.178153 3.79695e-20)
(1.27229 0.171039 -1.84559e-20)
(1.2596 0.163917 0)
(1.2473 0.156919 2.74554e-20)
(1.23543 0.150144 4.63017e-20)
(1.22399 0.143664 7.95765e-21)
(1.21301 0.137542 -3.81179e-20)
(1.20249 0.131814 1.59495e-20)
(1.19244 0.12652 0)
(1.18282 0.121695 -1.23617e-20)
(1.17366 0.117054 -1.13919e-20)
(1.16485 0.11293 0)
(0.0519626 -0.00309795 0)
(0.249914 0.00201676 1.7561e-20)
(0.518306 0.0410556 3.21503e-20)
(0.797192 0.0972515 -8.51936e-20)
(1.02771 0.15092 2.68841e-20)
(1.18425 0.190411 0)
(1.27221 0.213531 3.94599e-20)
(1.31086 0.223371 -5.43107e-20)
(1.32006 0.224457 -3.16132e-20)
(1.31446 0.22063 1.42746e-20)
(1.3027 0.214395 -2.26605e-20)
(1.28906 0.207116 5.44449e-20)
(1.27529 0.199449 2.74304e-20)
(1.26198 0.191699 -1.87212e-20)
(1.24927 0.184027 -1.60415e-21)
(1.23717 0.176534 -5.16696e-20)
(1.22562 0.169296 2.34154e-20)
(1.21461 0.162364 -4.84814e-22)
(1.2041 0.155778 0)
(1.19413 0.149578 -1.59651e-20)
(1.18468 0.143807 0)
(1.17577 0.138437 3.58233e-20)
(1.16732 0.133318 -4.24927e-20)
(1.15914 0.129384 1.9226e-20)
(0.0804471 -0.0010729 -9.84467e-21)
(0.332006 0.0176009 -4.44094e-20)
(0.635691 0.0756653 4.9636e-20)
(0.916327 0.143943 2.87925e-20)
(1.12218 0.199344 -1.36017e-20)
(1.24525 0.234296 2.23297e-20)
(1.30378 0.2511 -1.07331e-20)
(1.32193 0.255408 1.77067e-20)
(1.31912 0.252537 0)
(1.30737 0.246127 3.97481e-20)
(1.29281 0.238193 -1.39461e-21)
(1.27799 0.229699 -3.18057e-20)
(1.26378 0.22107 1.36778e-20)
(1.25037 0.212499 -1.54989e-20)
(1.23775 0.204095 -6.02217e-21)
(1.22583 0.195929 6.69853e-21)
(1.21457 0.188056 -5.27236e-21)
(1.20393 0.180521 -2.83619e-20)
(1.1939 0.173368 1.73166e-20)
(1.1845 0.166639 3.58508e-21)
(1.17569 0.160353 3.15237e-21)
(1.16739 0.154446 2.77119e-21)
(1.15949 0.148936 0)
(1.1518 0.144824 0)
(0.113442 0.00437167 9.8566e-21)
(0.418627 0.042553 -9.16797e-21)
(0.746452 0.120223 -1.65725e-20)
(1.01614 0.196605 0)
(1.19208 0.249858 -6.72396e-21)
(1.28375 0.278297 -5.90083e-21)
(1.31843 0.288368 -9.99576e-21)
(1.32183 0.28745 0)
(1.31125 0.281005 0)
(1.29592 0.272193 0)
(1.27987 0.262535 0)
(1.26449 0.252683 0)
(1.25013 0.2429 -8.6541e-21)
(1.23676 0.233305 3.92279e-21)
(1.22431 0.223973 6.83881e-21)
(1.21268 0.214959 3.16904e-21)
(1.2018 0.206308 7.92652e-21)
(1.19163 0.198049 0)
(1.18215 0.190217 -1.92297e-21)
(1.17334 0.182845 -1.7966e-21)
(1.16515 0.175929 -3.15731e-21)
(1.15752 0.16942 -2.77553e-21)
(1.15029 0.163506 0)
(1.14328 0.158901 2.01106e-21)
(-0.003233 0.0395005 6.12559e-21)
(-0.0114678 0.06492 -5.82996e-21)
(-0.0243017 0.061875 -1.08092e-20)
(-0.039087 0.0466037 0)
(-0.0550236 0.0284502 -1.38813e-20)
(-0.0717594 0.0112378 4.238e-21)
(-0.0888445 -0.00468734 -8.05943e-21)
(-0.105855 -0.0204644 0)
(-0.122457 -0.0373798 0)
(-0.138392 -0.0563572 0)
(-0.153461 -0.0779529 0)
(-0.167461 -0.10249 0)
(-0.180144 -0.130159 -1.87416e-22)
(-0.191216 -0.161042 -4.78776e-21)
(-0.20034 -0.195081 9.28005e-21)
(-0.207155 -0.232037 1.27685e-20)
(-0.211294 -0.271448 4.18664e-21)
(-0.212403 -0.312591 0)
(-0.210195 -0.354473 3.27892e-21)
(-0.204493 -0.395845 -9.43266e-21)
(-0.19513 -0.43522 -5.88121e-21)
(-0.181698 -0.470802 -5.42254e-21)
(-0.163913 -0.500529 0)
(-0.142941 -0.522574 0)
(-0.00625448 0.0453087 -1.85853e-20)
(-0.0168119 0.0778761 2.93068e-20)
(-0.0303126 0.0791804 -1.11492e-20)
(-0.0451407 0.0666932 -2.04181e-20)
(-0.0609401 0.0503831 2.82179e-20)
(-0.0775203 0.0343443 -1.76813e-20)
(-0.0944939 0.0190603 2.4452e-20)
(-0.111424 0.0034967 1.57116e-20)
(-0.127962 -0.0135447 0)
(-0.143894 -0.0329695 -1.31404e-20)
(-0.159053 -0.0553336 -1.76272e-22)
(-0.173232 -0.0809693 1.12984e-20)
(-0.186168 -0.110177 1.67382e-20)
(-0.197549 -0.143123 2.06685e-20)
(-0.20704 -0.179804 -9.21284e-21)
(-0.214304 -0.220004 -2.6613e-20)
(-0.219027 -0.263242 8.70497e-21)
(-0.220962 -0.308743 -3.18794e-20)
(-0.220002 -0.355435 0)
(-0.216205 -0.401965 6.3652e-21)
(-0.209596 -0.446707 5.87342e-21)
(-0.199922 -0.487781 5.4154e-21)
(-0.187278 -0.523232 0)
(-0.173482 -0.551282 0)
(-0.00972764 0.0503657 0)
(-0.0228358 0.0900628 6.14724e-20)
(-0.0365053 0.0961349 -2.26945e-20)
(-0.0505319 0.0867835 2.08392e-20)
(-0.0651381 0.0725059 -5.92357e-20)
(-0.0803326 0.0577611 0)
(-0.0957753 0.0432987 -3.4434e-20)
(-0.111056 0.0282799 1.62683e-20)
(-0.125857 0.0115806 -3.0843e-20)
(-0.139909 -0.00768596 1.52579e-20)
(-0.152899 -0.0301207 8.09342e-20)
(-0.164635 -0.0562108 -3.76746e-20)
(-0.174922 -0.086235 -5.88314e-20)
(-0.183374 -0.120469 -2.34136e-20)
(-0.189636 -0.158981 -3.14462e-22)
(-0.193405 -0.20157 7.8121e-20)
(-0.194454 -0.247728 -3.64821e-20)
(-0.192692 -0.296606 -1.42075e-21)
(-0.188241 -0.347017 0)
(-0.181441 -0.397447 -3.00259e-20)
(-0.172662 -0.446082 0)
(-0.161981 -0.490981 -2.25005e-20)
(-0.149902 -0.530384 8.65401e-20)
(-0.137579 -0.563056 -1.40551e-21)
(-0.0133943 0.0539988 0)
(-0.0291381 0.100188 8.15898e-22)
(-0.0424349 0.111247 2.38567e-20)
(-0.0547799 0.105351 -2.23428e-20)
(-0.0670843 0.0933142 1.9712e-20)
(-0.0795942 0.0799996 1.14881e-19)
(-0.0920289 0.0665115 -3.54832e-20)
(-0.103965 0.0522434 -3.41528e-20)
(-0.115034 0.036193 6.30076e-20)
(-0.124927 0.0175 -8.89627e-20)
(-0.133349 -0.00452479 2.83844e-20)
(-0.139817 -0.0304439 2.72497e-20)
(-0.144002 -0.060684 0)
(-0.145691 -0.0955084 2.29574e-20)
(-0.14448 -0.134996 0)
(-0.140103 -0.178908 4.34816e-20)
(-0.132473 -0.226653 -7.88654e-20)
(-0.12172 -0.277248 1.80499e-20)
(-0.108271 -0.329323 6.82163e-20)
(-0.0928165 -0.381177 2.9996e-20)
(-0.0763278 -0.43083 0)
(-0.0592907 -0.476327 -7.41771e-20)
(-0.0441732 -0.516246 2.3424e-20)
(-0.0238357 -0.549914 0)
(-0.0168996 0.055647 0)
(-0.0351932 0.107059 -7.79499e-20)
(-0.0476282 0.123072 -2.45942e-20)
(-0.057494 0.120901 -4.52255e-20)
(-0.0664489 0.111326 4.19051e-20)
(-0.0750055 0.0995776 -3.8704e-20)
(-0.0829514 0.0871708 7.44208e-20)
(-0.0898219 0.0737862 3.51779e-20)
(-0.0951525 0.0585539 -9.72952e-20)
(-0.098518 0.0406225 6.26955e-20)
(-0.0994963 0.0192747 -8.77337e-20)
(-0.0976546 -0.00608571 1.97739e-19)
(-0.0924563 -0.0360275 -1.04913e-19)
(-0.0834723 -0.0708148 5.13168e-20)
(-0.0704815 -0.110475 1.44164e-19)
(-0.0533353 -0.154652 -4.26745e-20)
(-0.0321396 -0.202652 -4.27211e-20)
(-0.00730536 -0.253295 -3.83578e-20)
(0.0203298 -0.304965 0)
(0.0497329 -0.355727 -6.45102e-20)
(0.0788069 -0.403556 -5.51835e-20)
(0.108038 -0.445997 8.1344e-20)
(0.126158 -0.483815 8.73177e-20)
(0.1648 -0.506077 -8.18272e-20)
(-0.019851 0.0549907 0)
(-0.0404106 0.109782 -1.07999e-19)
(-0.0516299 0.130403 -9.95656e-22)
(-0.0584095 0.132086 9.24066e-20)
(-0.0631418 0.125152 0)
(-0.0666167 0.11506 0)
(-0.0687072 0.103745 0)
(-0.0689011 0.0912175 -3.60882e-20)
(-0.0666107 0.0767756 -1.26437e-21)
(-0.0612671 0.0596088 6.36585e-20)
(-0.0523175 0.0389791 -9.15505e-20)
(-0.0392184 0.0142465 -9.16709e-22)
(-0.0214857 -0.0151041 0)
(0.00140502 -0.0493504 -5.12915e-20)
(0.0297489 -0.0884108 5.11926e-20)
(0.0634192 -0.131877 -1.40158e-19)
(0.101954 -0.178848 1.74298e-19)
(0.144632 -0.227842 3.9921e-20)
(0.189995 -0.277047 -3.32069e-21)
(0.23701 -0.324023 -1.37063e-19)
(0.281048 -0.367476 -6.01236e-20)
(0.327236 -0.402523 1.80986e-19)
(0.353375 -0.435907 -1.17602e-19)
(0.409937 -0.441355 0)
(-0.0219141 0.0520351 5.85401e-20)
(-0.0442414 0.107949 5.42854e-20)
(-0.054053 0.1324 -5.14182e-20)
(-0.0574288 0.137814 -9.51585e-20)
(-0.0573385 0.13357 8.81693e-20)
(-0.0548654 0.125139 -8.34665e-20)
(-0.0499928 0.114806 1.16715e-19)
(-0.0421929 0.102931 -3.64115e-20)
(-0.0307627 0.0890363 6.8867e-20)
(-0.0149937 0.072397 0)
(0.00578192 0.0522886 6.47199e-20)
(0.0321572 0.0280618 -1.1877e-19)
(0.0646733 -0.000712959 1.14202e-19)
(0.103778 -0.0342069 -1.06301e-19)
(0.149558 -0.0723302 0)
(0.201696 -0.114546 9.50267e-20)
(0.259334 -0.159715 1.77827e-19)
(0.321144 -0.206116 -1.65442e-19)
(0.384549 -0.252048 -7.46273e-20)
(0.449165 -0.293906 -6.50063e-20)
(0.505967 -0.33295 1.83199e-19)
(0.568636 -0.358356 4.75293e-20)
(0.597144 -0.387459 -4.81915e-20)
(0.671312 -0.38294 3.64676e-20)
(-0.022884 0.0471303 -5.85543e-20)
(-0.0463283 0.101715 1.68544e-19)
(-0.0546921 0.128744 -5.23057e-20)
(-0.0546139 0.137393 9.68593e-20)
(-0.0494186 0.135669 -8.97439e-20)
(-0.0404534 0.128775 -8.7541e-23)
(-0.0278472 0.11921 3.94115e-20)
(-0.0110839 0.107677 1.51409e-19)
(0.0106098 0.0939512 2.59757e-21)
(0.0380545 0.0774479 -6.53736e-20)
(0.0720202 0.0575194 0)
(0.113204 0.0336443 -6.17512e-20)
(0.16216 0.00547589 1.13146e-19)
(0.219139 -0.0271135 1.0893e-19)
(0.283919 -0.0638556 -5.06446e-20)
(0.355618 -0.103987 -3.1382e-22)
(0.432535 -0.146214 -4.45031e-20)
(0.512327 -0.18856 8.05677e-20)
(0.590984 -0.229748 7.4622e-20)
(0.667918 -0.265009 -6.69018e-20)
(0.731564 -0.298457 5.6894e-20)
(0.798953 -0.315712 -4.90568e-20)
(0.825583 -0.339105 0)
(0.895268 -0.328854 -3.64508e-20)
(-0.0227663 0.0409033 6.01306e-20)
(-0.046569 0.0917967 -5.64656e-20)
(-0.0535442 0.119742 5.29368e-20)
(-0.050163 0.130673 0)
(-0.0398416 0.130979 0)
(-0.0240954 0.125323 8.63419e-20)
(-0.00319857 0.116252 -7.94947e-20)
(0.0233353 0.104722 7.66759e-20)
(0.0563532 0.0907727 -3.54911e-19)
(0.0968094 0.0740513 -9.37451e-22)
(0.145659 0.0541246 6.3358e-20)
(0.203662 0.0305872 0)
(0.271215 0.00319616 -1.14803e-19)
(0.348152 -0.0279462 2.14936e-19)
(0.433423 -0.0622992 -1.51442e-19)
(0.524871 -0.098898 -2.35195e-19)
(0.619364 -0.136227 2.56538e-21)
(0.712685 -0.172446 1.57828e-19)
(0.800417 -0.206199 0)
(0.87897 -0.233573 0)
(0.941694 -0.25856 -5.69087e-20)
(0.996132 -0.267912 4.90706e-20)
(1.01676 -0.285546 -1.53998e-19)
(1.05915 -0.269232 1.43661e-19)
(-0.0218014 0.0341449 0)
(-0.0451926 0.0793832 0)
(-0.0508035 0.106309 -1.59554e-19)
(-0.0442884 0.118123 4.92547e-20)
(-0.0288519 0.119603 -4.75971e-22)
(-0.00602276 0.114692 8.57018e-20)
(0.0238803 0.105795 0)
(0.0613988 0.0940199 -7.52014e-20)
(0.107551 0.0797253 7.09735e-20)
(0.163527 0.0628474 -1.34442e-19)
(0.230348 0.0431413 -8.49968e-22)
(0.308567 0.0204107 1.2019e-19)
(0.397892 -0.00526511 1.30082e-21)
(0.49681 -0.0335109 1.06637e-19)
(0.602399 -0.0635258 -1.48741e-19)
(0.710338 -0.0943394 0)
(0.815593 -0.124314 1.65604e-19)
(0.912236 -0.152499 -2.32171e-19)
(0.996137 -0.176939 6.59157e-20)
(1.06221 -0.196501 0)
(1.10965 -0.21254 5.05298e-20)
(1.13899 -0.217053 1.72279e-19)
(1.14456 -0.229219 -1.60878e-19)
(1.15126 -0.211345 -1.52055e-19)
(-0.0204287 0.027656 1.84087e-19)
(-0.0427135 0.0659125 -2.32618e-19)
(-0.0467557 0.0898681 9.93399e-23)
(-0.0369587 0.100889 4.98636e-20)
(-0.0160106 0.1024 -9.23834e-20)
(0.014803 0.0975866 -8.58624e-20)
(0.0553626 0.0885979 1.61175e-19)
(0.106483 0.0767209 1.85228e-21)
(0.169467 0.0625454 -1.40306e-19)
(0.24551 0.0462258 2.66236e-19)
(0.335157 0.0278358 2.40254e-21)
(0.437687 0.00755212 -1.16888e-19)
(0.550678 -0.0142858 0)
(0.669913 -0.0371672 0)
(0.789696 -0.0603332 -4.86271e-20)
(0.903542 -0.0831234 -8.56642e-20)
(1.00512 -0.10429 -1.57083e-19)
(1.08891 -0.123854 1.46441e-19)
(1.15193 -0.139556 -6.5977e-20)
(1.1918 -0.153263 1.08458e-19)
(1.21165 -0.162022 -5.79243e-20)
(1.21208 -0.166414 7.36085e-20)
(1.19857 -0.174192 -1.85282e-19)
(1.1789 -0.159898 3.12554e-20)
(-0.0191716 0.0220816 6.17927e-20)
(-0.0397116 0.0527823 0)
(-0.0414554 0.0721447 1.08078e-19)
(-0.0274011 0.080765 -1.00073e-19)
(0.000577978 0.0811628 9.25045e-20)
(0.041809 0.0758961 0)
(0.096745 0.0669739 0)
(0.166573 0.0556951 -7.52216e-20)
(0.252424 0.0427823 -1.22999e-21)
(0.354494 0.0287525 6.4687e-20)
(0.471143 0.0140017 -6.15168e-20)
(0.598456 -0.00115129 1.14931e-19)
(0.730411 -0.0164355 0)
(0.859624 -0.0316261 1.98176e-19)
(0.978414 -0.0464945 -3.65946e-19)
(1.07997 -0.0608826 2.54762e-19)
(1.15934 -0.0743171 1.47632e-19)
(1.21402 -0.0870365 -1.37637e-19)
(1.24467 -0.0972942 0)
(1.25322 -0.107817 0)
(1.24622 -0.112631 0)
(1.22556 -0.120782 0)
(1.2012 -0.122421 3.47487e-20)
(1.17456 -0.117254 -1.09298e-19)
(-0.116758 -0.538768 -3.18928e-21)
(-0.071214 -0.539018 3.19616e-21)
(-0.0197884 -0.513956 -1.00374e-22)
(0.0438083 -0.46194 0)
(0.114569 -0.379043 -3.60874e-21)
(0.191283 -0.26506 7.21003e-21)
(0.269671 -0.126778 1.52059e-22)
(0.345673 0.0320756 -3.64201e-21)
(0.414762 0.208027 0)
(0.478218 0.400382 0)
(0.537074 0.59269 -1.81835e-22)
(0.586146 0.744035 -1.54178e-22)
(0.620297 0.823001 -2.05709e-21)
(0.632801 0.841574 1.87441e-21)
(0.629733 0.817507 0)
(0.629302 0.763095 0)
(0.618368 0.726209 1.36122e-21)
(0.581905 0.746572 1.04734e-22)
(0.535117 0.792367 -1.29329e-21)
(0.507409 0.778375 -1.03628e-22)
(0.524191 0.641394 0)
(0.574974 0.404112 0)
(0.622378 0.126807 0)
(0.652706 -0.163298 0)
(0.669592 -0.439426 0)
(0.681957 -0.64119 0)
(0.691109 -0.742494 4.38707e-22)
(0.678378 -0.773037 -7.20392e-22)
(0.665944 -0.749524 0)
(0.651283 -0.713492 0)
(0.595648 -0.723417 -3.67693e-22)
(0.509111 -0.743293 3.57287e-22)
(0.436112 -0.670651 1.86455e-22)
(0.408783 -0.457925 0)
(0.428066 -0.162669 0)
(0.481072 0.121797 3.84174e-22)
(0.549445 0.323459 -3.7338e-22)
(0.612123 0.430292 0)
(0.663777 0.4578 1.84327e-22)
(0.70528 0.441665 -2.566e-22)
(0.71763 0.413431 6.31121e-23)
(0.717488 0.381543 0)
(0.721982 0.338614 -8.58946e-23)
(0.707119 0.305607 8.352e-23)
(0.669745 0.274296 0)
(0.651321 0.224517 0)
(0.678958 0.139617 -2.60965e-23)
(0.736092 0.0505958 7.51165e-23)
(0.796466 -0.0275011 0)
(0.843096 -0.0776765 0)
(0.871785 -0.112318 -1.46204e-23)
(0.886483 -0.130146 -2.45875e-25)
(0.890001 -0.145297 -1.89574e-24)
(0.891904 -0.150364 8.03801e-24)
(0.888572 -0.156048 0)
(0.892344 -0.149903 0)
(0.889298 -0.147549 0)
(0.899882 -0.130684 0)
(0.898503 -0.124929 0)
(0.916623 -0.10172 0)
(-0.160571 -0.573681 -3.10509e-22)
(-0.136322 -0.58451 -1.28881e-20)
(-0.10396 -0.568928 -2.18736e-22)
(-0.0591648 -0.527577 1.2274e-20)
(-0.00259222 -0.452425 1.90203e-22)
(0.0620448 -0.346084 0)
(0.13071 -0.20876 -1.3584e-20)
(0.203143 -0.0465124 2.70587e-20)
(0.272647 0.134941 -1.34754e-20)
(0.340299 0.331142 1.20693e-20)
(0.408812 0.526715 -1.15378e-20)
(0.474814 0.686766 8.75483e-21)
(0.529665 0.785156 -8.50018e-21)
(0.563999 0.825439 -2.00619e-22)
(0.587244 0.812687 -5.72738e-21)
(0.607259 0.76727 5.56218e-21)
(0.605218 0.745184 -5.58952e-21)
(0.575641 0.775947 5.25363e-21)
(0.540366 0.817057 -6.58487e-21)
(0.531081 0.782815 1.3707e-20)
(0.569969 0.624114 -7.08787e-21)
(0.633622 0.381145 -5.22992e-22)
(0.684702 0.110556 -8.89494e-21)
(0.718142 -0.172836 1.71049e-20)
(0.737773 -0.447521 -8.22262e-21)
(0.742935 -0.651051 4.21176e-22)
(0.743042 -0.746532 5.03888e-21)
(0.721256 -0.768888 -7.27475e-22)
(0.691886 -0.74344 -6.96026e-21)
(0.668655 -0.696129 5.91051e-21)
(0.612096 -0.68811 -2.72412e-21)
(0.519323 -0.703306 3.02199e-22)
(0.435277 -0.64517 -1.86841e-22)
(0.394808 -0.454833 3.49979e-22)
(0.404627 -0.179572 0)
(0.454352 0.0920458 0)
(0.52169 0.292308 -1.1062e-21)
(0.58632 0.404389 8.4716e-22)
(0.645671 0.438041 5.07629e-22)
(0.688891 0.431303 -3.34193e-23)
(0.701376 0.410709 -6.05449e-22)
(0.708327 0.380224 1.0527e-22)
(0.713127 0.34089 0)
(0.689334 0.314778 0)
(0.650601 0.282472 0)
(0.643285 0.221885 0)
(0.684225 0.126456 1.20805e-22)
(0.748909 0.0340099 -4.97861e-23)
(0.811521 -0.0417865 0)
(0.857265 -0.0873085 0)
(0.883745 -0.117541 0)
(0.896165 -0.132238 -2.32692e-23)
(0.897622 -0.145807 3.63748e-24)
(0.898114 -0.150184 -1.77523e-23)
(0.893655 -0.156047 0)
(0.896776 -0.150029 0)
(0.89335 -0.148282 6.22643e-24)
(0.903453 -0.131657 1.3225e-23)
(0.901992 -0.126443 0)
(0.91949 -0.103472 0)
(-0.13783 -0.590095 -9.18515e-22)
(-0.139235 -0.611965 -2.56334e-20)
(-0.131028 -0.608063 2.42154e-20)
(-0.113526 -0.579862 -2.26341e-20)
(-0.0822275 -0.517844 -1.91586e-22)
(-0.036638 -0.422931 0)
(0.0201365 -0.292731 -2.42879e-20)
(0.0825279 -0.134117 2.37288e-20)
(0.147251 0.0507945 1.96177e-22)
(0.214486 0.247883 3.16388e-22)
(0.28797 0.444332 2.88602e-22)
(0.36556 0.612642 2.86107e-22)
(0.436865 0.730403 -1.3748e-20)
(0.493918 0.790483 1.35519e-20)
(0.544381 0.791583 0)
(0.582681 0.761812 3.24865e-22)
(0.58955 0.756698 -1.11901e-20)
(0.568262 0.795226 1.10434e-20)
(0.544779 0.829405 0)
(0.55352 0.776129 0)
(0.611112 0.601891 -1.67397e-20)
(0.68473 0.361188 3.42778e-20)
(0.738854 0.103191 -3.47161e-20)
(0.775919 -0.170941 8.10992e-22)
(0.80206 -0.441964 3.10426e-20)
(0.804479 -0.647227 -2.73735e-20)
(0.795223 -0.740848 2.10396e-20)
(0.766756 -0.756616 -2.35014e-21)
(0.722423 -0.732413 -7.38134e-21)
(0.688867 -0.679666 0)
(0.632891 -0.654355 0)
(0.537136 -0.663646 1.77786e-21)
(0.442769 -0.620267 -2.27806e-21)
(0.390614 -0.453556 -5.93307e-23)
(0.390532 -0.198038 2.62525e-21)
(0.434043 0.0620118 -2.55096e-21)
(0.498131 0.260793 0)
(0.565547 0.376826 2.2893e-22)
(0.630673 0.41752 1.45982e-21)
(0.672937 0.421416 -2.58219e-21)
(0.687836 0.407144 1.03483e-21)
(0.701613 0.378445 1.03611e-22)
(0.703055 0.345209 -9.13974e-22)
(0.670605 0.325598 7.04463e-22)
(0.634032 0.289253 1.59795e-22)
(0.639421 0.216299 1.4581e-22)
(0.692657 0.111287 -1.21127e-22)
(0.763565 0.0169329 0)
(0.827467 -0.0557411 0)
(0.871824 -0.0962467 -3.07405e-22)
(0.895853 -0.122042 1.43257e-22)
(0.905907 -0.133712 -1.11714e-22)
(0.905316 -0.145857 1.36772e-22)
(0.90437 -0.149687 1.39878e-22)
(0.898812 -0.15584 -3.19362e-23)
(0.901205 -0.15005 4.34494e-23)
(0.897393 -0.148938 -3.08793e-23)
(0.906949 -0.132587 1.27726e-23)
(0.905409 -0.127901 0)
(0.922221 -0.105162 0)
(-0.0360307 -0.578507 -5.24394e-20)
(-0.0618819 -0.609722 3.79268e-21)
(-0.0807895 -0.618548 4.57567e-20)
(-0.096079 -0.605576 -3.44932e-22)
(-0.0983285 -0.562504 0)
(-0.084697 -0.484932 0)
(-0.0531324 -0.370656 -4.01334e-20)
(-0.00319286 -0.221669 -1.31925e-21)
(0.0536481 -0.0445255 5.80606e-20)
(0.11449 0.151945 -9.69747e-22)
(0.188172 0.347996 -1.78233e-20)
(0.270479 0.523303 -1.37428e-20)
(0.353333 0.65645 1.37544e-20)
(0.431237 0.733527 0)
(0.503988 0.752365 -1.04367e-20)
(0.555034 0.744605 9.50145e-21)
(0.569072 0.758675 0)
(0.556081 0.804772 0)
(0.544868 0.832528 1.28678e-20)
(0.571638 0.763105 1.92019e-21)
(0.645578 0.579114 -1.35205e-20)
(0.727714 0.345952 -1.76855e-20)
(0.785477 0.102535 1.77304e-20)
(0.827545 -0.163998 -1.74306e-20)
(0.862513 -0.432884 1.90737e-21)
(0.866703 -0.638103 1.45593e-20)
(0.847616 -0.731125 1.33559e-21)
(0.813473 -0.740055 1.54965e-23)
(0.757227 -0.715911 0)
(0.71255 -0.66307 4.80092e-21)
(0.658263 -0.622112 -4.92001e-21)
(0.562912 -0.620907 2.65209e-22)
(0.459568 -0.590962 0)
(0.394817 -0.450915 -2.94533e-22)
(0.384104 -0.217581 4.41547e-21)
(0.419405 0.031296 -7.83807e-21)
(0.479538 0.228233 6.47067e-23)
(0.550188 0.347606 4.97015e-22)
(0.617913 0.396747 2.45379e-21)
(0.658092 0.411553 2.76487e-22)
(0.677642 0.402531 -1.79444e-21)
(0.696366 0.377228 1.53323e-21)
(0.691596 0.352156 -3.36385e-24)
(0.652043 0.337569 6.95671e-22)
(0.620781 0.294261 -8.36672e-22)
(0.639562 0.208131 -1.03846e-21)
(0.703916 0.0946315 2.86063e-22)
(0.779787 -0.000585714 4.29459e-22)
(0.844075 -0.0692709 -7.79966e-22)
(0.886586 -0.104489 5.1302e-22)
(0.907977 -0.125864 -1.1512e-22)
(0.915621 -0.13462 1.49334e-22)
(0.913034 -0.145482 1.11032e-22)
(0.910646 -0.148894 -2.16341e-22)
(0.904024 -0.155433 7.60242e-24)
(0.905636 -0.149958 -4.42543e-23)
(0.90143 -0.14951 0)
(0.910393 -0.133466 -1.19213e-23)
(0.908761 -0.129294 1.4218e-23)
(0.924852 -0.106785 0)
(0.142648 -0.539659 5.18506e-20)
(0.0949029 -0.574062 -9.5436e-20)
(0.0514052 -0.59321 4.34226e-20)
(0.00440938 -0.594472 3.52484e-20)
(-0.0352931 -0.573343 -6.70779e-20)
(-0.0614094 -0.519668 5.4496e-22)
(-0.067153 -0.429216 3.07019e-20)
(-0.0478222 -0.300034 3.04277e-20)
(-0.00548 -0.141082 -2.98106e-20)
(0.0474485 0.0484054 0)
(0.114863 0.240938 -2.63082e-20)
(0.197867 0.419905 4.88918e-20)
(0.288371 0.564273 -2.27609e-20)
(0.380896 0.658056 0)
(0.466116 0.699641 0)
(0.523166 0.718333 3.08316e-22)
(0.542831 0.75186 -2.06569e-20)
(0.539158 0.804098 2.00551e-20)
(0.54211 0.825236 0)
(0.586272 0.743285 2.86852e-20)
(0.67357 0.554695 -5.81496e-20)
(0.763225 0.331464 6.36174e-20)
(0.826921 0.103907 -6.80048e-20)
(0.875369 -0.152666 1.49436e-22)
(0.918425 -0.416898 6.29547e-20)
(0.928082 -0.619115 -2.96324e-20)
(0.900211 -0.71326 -6.69306e-22)
(0.859959 -0.718786 -6.68074e-21)
(0.795569 -0.694186 1.43279e-21)
(0.738212 -0.645484 5.39006e-21)
(0.685958 -0.594322 2.59631e-22)
(0.594732 -0.58101 -3.38534e-21)
(0.485427 -0.560016 6.69072e-21)
(0.407982 -0.445866 -3.6869e-21)
(0.384809 -0.236523 0)
(0.410674 0.00037267 -3.87455e-21)
(0.467401 0.193761 3.71719e-21)
(0.540205 0.316789 -2.20637e-21)
(0.606635 0.376226 2.74484e-21)
(0.644966 0.401646 -2.39329e-22)
(0.670865 0.397016 0)
(0.691995 0.376831 -2.07841e-22)
(0.679299 0.361115 5.9278e-22)
(0.634787 0.349721 0)
(0.611247 0.297185 1.74673e-21)
(0.643444 0.197719 -6.8849e-22)
(0.717637 0.0769503 2.77888e-22)
(0.797309 -0.0181842 2.49208e-22)
(0.86117 -0.0822336 0)
(0.901358 -0.112002 0)
(0.919979 -0.129012 -3.9762e-22)
(0.925221 -0.13498 5.8126e-22)
(0.920721 -0.144693 -3.02231e-22)
(0.916917 -0.147808 9.07943e-23)
(0.909272 -0.154821 1.33451e-22)
(0.910071 -0.149747 4.43019e-23)
(0.905457 -0.14999 -6.42787e-23)
(0.913801 -0.134286 0)
(0.91206 -0.130619 -2.35349e-23)
(0.927411 -0.108338 -4.33213e-24)
(0.372697 -0.477376 4.96625e-20)
(0.31839 -0.507549 -4.89913e-20)
(0.257434 -0.52879 3.12219e-22)
(0.185026 -0.541203 -2.27635e-22)
(0.110346 -0.539148 2.3702e-22)
(0.0443794 -0.51204 -2.16464e-22)
(-0.00538533 -0.451134 2.89992e-22)
(-0.0306976 -0.354304 0)
(-0.0215415 -0.220046 -2.63585e-22)
(0.0117079 -0.0550612 2.63724e-22)
(0.0650426 0.128248 2.60722e-22)
(0.142246 0.305668 -3.42029e-22)
(0.234962 0.458166 0)
(0.333398 0.568949 0)
(0.421734 0.636062 2.22901e-22)
(0.480898 0.682519 0)
(0.507281 0.735173 -2.59791e-22)
(0.515579 0.794461 0)
(0.53464 0.813056 -2.27992e-20)
(0.595707 0.724751 4.86057e-20)
(0.695532 0.535156 -5.49012e-20)
(0.792597 0.321595 2.89998e-20)
(0.863712 0.108789 3.3515e-20)
(0.921204 -0.1388 -3.25278e-20)
(0.971641 -0.398752 -3.01515e-20)
(0.987688 -0.59615 2.91469e-20)
(0.953363 -0.690738 0)
(0.905085 -0.695124 4.79974e-22)
(0.837154 -0.668503 0)
(0.766457 -0.625815 0)
(0.714201 -0.568567 6.16179e-21)
(0.63096 -0.5418 -6.38867e-21)
(0.519244 -0.52647 2.99222e-22)
(0.43061 -0.437411 3.86953e-22)
(0.394555 -0.253673 -3.10279e-22)
(0.409845 -0.0311339 -2.75599e-21)
(0.462512 0.157599 2.67568e-21)
(0.534398 0.28521 -2.51241e-21)
(0.596527 0.355777 2.13579e-21)
(0.634831 0.390465 4.62737e-22)
(0.667481 0.39048 -1.72701e-21)
(0.687846 0.378245 -1.9795e-22)
(0.66657 0.372621 1.21989e-21)
(0.619591 0.362022 0)
(0.605533 0.298208 -7.62989e-22)
(0.650804 0.185549 9.94681e-22)
(0.733581 0.058698 -1.29596e-21)
(0.815857 -0.0353832 -2.50876e-22)
(0.878475 -0.0945054 0)
(0.915951 -0.118772 1.45919e-22)
(0.931738 -0.13152 -3.1272e-22)
(0.934634 -0.134833 1.78997e-24)
(0.928336 -0.143517 -9.82368e-23)
(0.92316 -0.146441 1.41992e-22)
(0.91454 -0.154006 -1.35781e-22)
(0.914507 -0.149408 0)
(0.909474 -0.150372 6.43166e-23)
(0.91718 -0.135041 0)
(0.915316 -0.131869 0)