/*--------------------------------*- C++ -*----------------------------------*\
| =========                 |                                                 |
| \\      /  F ield         | OpenFOAM: The Open Source CFD Toolbox           |
|  \\    /   O peration     | Version:  2312                                  |
|   \\  /    A nd           | Website:  www.openfoam.com                      |
|    \\/     M anipulation  |                                                 |
\*---------------------------------------------------------------------------*/
FoamFile
{
    version     2.0;
    format      ascii;
    arch        "LSB;label=32;scalar=64";
    class       volScalarField;
    location    "26";
    object      p;
}
// * * * * * * * * * * * * * * * * * * * * * * * * * * * * * * * * * * * * * //

dimensions      [0 2 -2 0 0 0 0];

internalField   nonuniform List<scalar> 
5478
(
-0.300173
-0.297916
-0.294599
-0.291111
-0.288186
-0.286001
-0.284272
-0.282693
-0.28075
-0.278181
-0.2747
-0.269893
-0.264316
-0.256315
-0.246945
-0.307706
-0.304389
-0.300032
-0.295008
-0.289716
-0.284246
-0.278757
-0.273235
-0.267501
-0.261308
-0.254423
-0.247007
-0.23891
-0.230001
-0.221
-0.318648
-0.313502
-0.307344
-0.300032
-0.291422
-0.281954
-0.272315
-0.262816
-0.253476
-0.244268
-0.23522
-0.226222
-0.217102
-0.207817
-0.198443
-0.333421
-0.325512
-0.316792
-0.306028
-0.292819
-0.278594
-0.264632
-0.251468
-0.239209
-0.227799
-0.217036
-0.206777
-0.196826
-0.187159
-0.178036
-0.352647
-0.340456
-0.328405
-0.312344
-0.293085
-0.273584
-0.25545
-0.239064
-0.22434
-0.211034
-0.198918
-0.18775
-0.177317
-0.167687
-0.158471
-0.375351
-0.357763
-0.340349
-0.31679
-0.290593
-0.265829
-0.243849
-0.224656
-0.207874
-0.193121
-0.180026
-0.168281
-0.157711
-0.148103
-0.139002
-0.39758
-0.375253
-0.348936
-0.316191
-0.283137
-0.253657
-0.228425
-0.206961
-0.188621
-0.172833
-0.159137
-0.1472
-0.136773
-0.12757
-0.119224
-0.413452
-0.387555
-0.350012
-0.307698
-0.268601
-0.2353
-0.207622
-0.184602
-0.16535
-0.149142
-0.135401
-0.123732
-0.113822
-0.105242
-0.0977627
-0.241908
-0.246937
-0.251936
-0.258861
-0.267735
-0.278041
-0.289374
-0.301397
-0.314069
-0.327027
-0.339934
-0.352467
-0.364494
-0.376269
-0.387947
-0.254273
-0.258308
-0.263214
-0.270334
-0.27941
-0.289877
-0.301295
-0.313301
-0.32535
-0.337243
-0.348693
-0.359508
-0.369129
-0.377614
-0.385239
-0.267409
-0.269826
-0.27403
-0.280596
-0.289084
-0.298882
-0.309504
-0.320534
-0.331578
-0.342335
-0.352352
-0.361822
-0.369483
-0.377592
-0.379108
-0.278444
-0.279083
-0.282087
-0.287414
-0.29461
-0.303103
-0.312386
-0.322016
-0.33156
-0.340931
-0.348666
-0.357344
-0.361746
-0.369325
-0.369711
-0.28609
-0.285257
-0.286708
-0.290166
-0.295395
-0.302016
-0.30956
-0.317547
-0.325263
-0.333643
-0.33908
-0.347294
-0.349281
-0.355198
-0.354765
-0.290564
-0.28886
-0.288671
-0.2899
-0.292724
-0.29709
-0.302558
-0.308968
-0.315255
-0.322199
-0.326458
-0.332137
-0.334044
-0.337217
-0.33696
-0.293138
-0.291168
-0.289595
-0.288745
-0.289278
-0.291492
-0.295269
-0.29985
-0.304444
-0.308457
-0.31156
-0.313581
-0.314764
-0.315976
-0.31591
-0.295717
-0.293709
-0.291147
-0.288786
-0.287576
-0.287846
-0.289294
-0.291173
-0.292961
-0.293782
-0.294029
-0.292595
-0.290849
-0.288512
-0.286615
-0.405014
-0.415995
-0.417542
-0.404413
-0.374445
-0.3251
-0.253262
-0.160627
-0.054378
0.034241
0.0823126
0.0990494
0.0943001
0.082315
0.067712
0.0557998
0.0448553
0.0366999
0.0298972
0.0241536
0.0202864
0.016255
0.0136733
0.0115441
0.00938408
0.00823228
0.00694838
0.00563573
0.00492395
0.00417246
0.00334252
0.00289993
0.00241644
0.00203759
0.00144338
0.000908569
0.00101556
0.000486829
-0.399758
-0.403219
-0.39666
-0.377761
-0.345175
-0.29682
-0.231077
-0.150153
-0.0567189
0.0272901
0.0806084
0.0981307
0.0973489
0.0842589
0.0703247
0.0573018
0.0462725
0.0377564
0.0305587
0.0248537
0.0206395
0.0165835
0.0139319
0.0116893
0.00955341
0.00836073
0.00701364
0.0057107
0.00500415
0.00418691
0.00336604
0.00294516
0.0024428
0.00200812
0.00144533
0.000980087
0.000975909
0.00045882
-0.395308
-0.394313
-0.384541
-0.363558
-0.331089
-0.28483
-0.22736
-0.15866
-0.0754979
0.0112087
0.0711022
0.0930888
0.0965324
0.0844299
0.0717879
0.0585543
0.047594
0.0386461
0.0312087
0.0255767
0.0208936
0.0169941
0.0141602
0.0117993
0.00976713
0.00845652
0.00707046
0.00580138
0.00507509
0.0042026
0.00339336
0.00298897
0.00246937
0.0019805
0.00144911
0.00104823
0.000937672
0.00043313
-0.379968
-0.382321
-0.373634
-0.35431
-0.325283
-0.282939
-0.233254
-0.173874
-0.0977237
-0.0117587
0.054972
0.0824478
0.0909712
0.0817777
0.0709492
0.0580177
0.0480656
0.0388843
0.0315768
0.0260573
0.0210806
0.0173735
0.014338
0.0118856
0.00998229
0.00852155
0.00712078
0.00589924
0.00513547
0.00422164
0.00342466
0.00302948
0.00249578
0.00195727
0.00145599
0.00110863
0.000902477
0.000411702
-0.357631
-0.365054
-0.361495
-0.345909
-0.321978
-0.285146
-0.241499
-0.191367
-0.1217
-0.0371991
0.0339859
0.0673344
0.0810984
0.0764341
0.0686114
0.0572515
0.0477672
0.0389505
0.0319018
0.0263378
0.0212725
0.0176474
0.0144762
0.0119637
0.0101504
0.00857049
0.00716523
0.00598974
0.00518753
0.00424449
0.00345821
0.0030654
0.00252169
0.00193975
0.00146671
0.00115749
0.000872106
0.000396306
-0.33448
-0.34222
-0.343449
-0.332676
-0.314137
-0.283286
-0.24442
-0.200362
-0.140426
-0.0616518
0.0102505
0.0491299
0.0688549
0.0686934
0.0639457
0.0546097
0.0462382
0.0383013
0.0316781
0.0263456
0.0214353
0.0178295
0.0146196
0.0120791
0.0102756
0.00862912
0.00721759
0.00606815
0.00523479
0.00427326
0.00349427
0.00309578
0.00254592
0.00192931
0.00148262
0.00119132
0.000848007
0.000388592
-0.313351
-0.318626
-0.323898
-0.318148
-0.304883
-0.280519
-0.245563
-0.204939
-0.151265
-0.081669
-0.0107306
0.0326648
0.0562024
0.0613437
0.0602253
0.0531461
0.0455552
0.0381487
0.0318345
0.0263497
0.0214968
0.0179073
0.0147157
0.012149
0.010351
0.00867555
0.00725828
0.00613347
0.00527387
0.00430226
0.00353322
0.00312171
0.00256644
0.00192551
0.00150557
0.00120758
0.000831456
0.000390138
-0.286049
-0.2927
-0.295682
-0.292627
-0.284649
-0.267625
-0.240744
-0.205231
-0.159805
-0.101372
-0.0388691
0.00838872
0.0388593
0.050173
0.0530215
0.0490859
0.0434357
0.0369515
0.0311315
0.0262361
0.0216919
0.0180604
0.0149212
0.0123451
0.0104471
0.00878329
0.00733407
0.00619202
0.00532774
0.00434177
0.00357254
0.00314157
0.00259128
0.00192987
0.00153429
0.00120172
0.000825384
0.000402955
-0.256571
-0.27342
-0.276121
-0.269472
-0.259795
-0.245956
-0.223755
-0.192259
-0.151749
-0.100367
-0.0448238
0.000184445
0.0290233
0.0424473
0.0477619
0.0461356
0.0418323
0.0371153
0.0306495
0.0257518
0.0213194
0.0179471
0.0148071
0.0122465
0.0104677
0.00870458
0.00734577
0.00625576
0.00527713
0.00438753
0.00364008
0.00312973
0.00257237
0.00199232
0.00158503
0.0011409
0.000828833
0.000429482
-0.218301
-0.236989
-0.239138
-0.233754
-0.223598
-0.209627
-0.189863
-0.162533
-0.127171
-0.0855217
-0.0428701
-0.00679977
0.0179235
0.0307986
0.0362703
0.0363739
0.0339484
0.0298003
0.0266547
0.0234703
0.0199292
0.016893
0.0142148
0.0118797
0.0101527
0.00853512
0.00723652
0.00615248
0.005212
0.00437919
0.00362271
0.00310458
0.00256794
0.00203476
0.00158312
0.00108321
0.000843392
0.000441047
-0.18453
-0.20356
-0.208073
-0.203588
-0.194587
-0.182241
-0.166113
-0.144566
-0.11711
-0.0847479
-0.0502394
-0.0184455
0.00557028
0.0199145
0.0276678
0.0307175
0.0307707
0.0292086
0.0252134
0.0219167
0.0187922
0.016131
0.01367
0.0115233
0.00986052
0.00834467
0.00711226
0.00604366
0.00514314
0.00434712
0.00359833
0.00309011
0.00255003
0.00205661
0.00158307
0.00103931
0.000841816
0.000442956
-0.156135
-0.172747
-0.178263
-0.175271
-0.167677
-0.157036
-0.143257
-0.125178
-0.102295
-0.0750977
-0.0465252
-0.020425
-1.44743e-05
0.0129393
0.0204817
0.0239331
0.0244025
0.0228846
0.0213035
0.0194914
0.0171261
0.0149197
0.0128557
0.0109688
0.00945684
0.00806422
0.00693774
0.00590676
0.00503824
0.00430325
0.00357352
0.00305966
0.00252479
0.00208066
0.00159259
0.00098748
0.000835425
0.000451204
-0.130138
-0.14482
-0.150748
-0.149202
-0.14328
-0.134479
-0.123109
-0.108761
-0.0910756
-0.0704927
-0.0488296
-0.0280045
-0.00999192
0.00300707
0.011417
0.0163075
0.0188262
0.0195827
0.0187291
0.0172763
0.0154547
0.0137384
0.0119948
0.0103784
0.00901052
0.00774173
0.00672544
0.00573557
0.00491292
0.00424371
0.00352614
0.00301884
0.00250191
0.00209613
0.0015942
0.000935024
0.000831537
0.000463075
-0.108664
-0.12094
-0.126541
-0.126095
-0.121756
-0.114845
-0.105802
-0.0944422
-0.0806725
-0.0643982
-0.0464745
-0.0287152
-0.0130414
-0.00120824
0.00678971
0.0117877
0.0145213
0.0154971
0.0152857
0.0146602
0.0135123
0.0123011
0.0109366
0.00961021
0.00845329
0.00733368
0.00644254
0.00552822
0.00476084
0.00415162
0.003462
0.00297313
0.00246846
0.00209577
0.00159375
0.000889256
0.00082418
0.000471177
-0.0903993
-0.100455
-0.105472
-0.105725
-0.102696
-0.0974259
-0.090369
-0.081515
-0.0708249
-0.0582769
-0.0445539
-0.0309851
-0.0185427
-0.0082231
-0.000447749
0.00488241
0.0086602
0.0109493
0.0119279
0.0120636
0.0114777
0.010766
0.00977926
0.00875879
0.00782309
0.00685527
0.0061036
0.00528134
0.00457075
0.00403065
0.00338258
0.00291092
0.00242122
0.00208607
0.00159096
0.000843236
0.000808837
0.000477822
-0.0750626
-0.0832294
-0.0875774
-0.0882137
-0.0861827
-0.0822811
-0.0769443
-0.0702056
-0.0620569
-0.0525332
-0.0419907
-0.0309876
-0.0202981
-0.0108692
-0.00342884
0.00192712
0.0053176
0.00764088
0.0089608
0.00949589
0.00940124
0.00915921
0.00853355
0.00781684
0.00711015
0.00631493
0.00571354
0.00499013
0.00435196
0.00388272
0.00327599
0.00283298
0.0023642
0.00206057
0.00157805
0.00079614
0.000786849
0.000483386
-0.0622739
-0.0688111
-0.0724591
-0.0732585
-0.0719492
-0.0691361
-0.0651767
-0.0601177
-0.0540041
-0.0468211
-0.0387205
-0.0302034
-0.0218717
-0.0144139
-0.00804686
-0.00307067
0.000982735
0.00384665
0.00570362
0.00683461
0.00722255
0.00742675
0.00718369
0.00676206
0.00629547
0.00568894
0.00524874
0.0046398
0.00409388
0.00370015
0.00314299
0.00274384
0.00229777
0.002017
0.00155777
0.000757548
0.000761923
0.000490795
-0.051588
-0.0567859
-0.059806
-0.0606542
-0.0598569
-0.0578723
-0.0549927
-0.0512634
-0.0467182
-0.0413589
-0.0352937
-0.0287778
-0.0220742
-0.015738
-0.0100583
-0.00532974
-0.00154475
0.00117493
0.00322818
0.00456157
0.00522545
0.00578047
0.0058508
0.00570465
0.0054546
0.0050208
0.00473546
0.00424599
0.00378444
0.00346829
0.00297628
0.00261681
0.0021924
0.00195108
0.00152098
0.000696128
0.000713812
0.000475073
-0.0426341
-0.0467362
-0.0491899
-0.0500037
-0.0495574
-0.0481861
-0.0461355
-0.0434301
-0.0400849
-0.0361457
-0.0316197
-0.02666
-0.0214449
-0.0163924
-0.0116956
-0.00758735
-0.004195
-0.00146771
0.000716962
0.00231039
0.00323689
0.00408648
0.00446906
0.00458579
0.00454696
0.00431451
0.00420763
0.00383458
0.00349242
0.00326105
0.00281591
0.00252426
0.00212379
0.00189725
0.00151483
0.00068208
0.000701552
0.00050118
-0.0351866
-0.0384377
-0.0404451
-0.0411997
-0.0409872
-0.0400555
-0.0386144
-0.0366705
-0.0343107
-0.0314778
-0.028143
-0.0244611
-0.0204756
-0.0164939
-0.0126524
-0.00911457
-0.0060126
-0.00343228
-0.00122346
0.000462186
0.00150639
0.00253222
0.00312656
0.00344528
0.00359046
0.00350403
0.00353854
0.00330383
0.00304836
0.0028995
0.00253966
0.00229483
0.00193286
0.00173899
0.00139312
0.000566713
0.000561805
0.000431336
-0.0288793
-0.0314101
-0.0329874
-0.0336417
-0.0335756
-0.03295
-0.0318827
-0.0305083
-0.0288388
-0.0268019
-0.0243867
-0.0216834
-0.0186811
-0.0155926
-0.0125271
-0.00959718
-0.00693308
-0.00466777
-0.00261112
-0.000964167
0.000125449
0.00124985
0.00201219
0.00251655
0.00279673
0.00287507
0.00307182
0.00292837
0.00279107
0.00273941
0.00241116
0.00224483
0.00191475
0.0017431
0.00145398
0.000618343
0.000635636
0.000492747
-0.0237548
-0.0257928
-0.0271006
-0.0276769
-0.0276888
-0.0272865
-0.0266775
-0.0257554
-0.024563
-0.0231034
-0.0213429
-0.0193738
-0.0171334
-0.0147853
-0.0124031
-0.0100344
-0.00780392
-0.00583337
-0.00395737
-0.00236419
-0.00128688
-0.000130618
0.000731118
0.00134622
0.00175919
0.00193855
0.00223197
0.00223486
0.00217918
0.00219743
0.00198082
0.00186373
0.00158175
0.00140737
0.00118782
0.000397554
0.00031462
0.000350164
-0.0190173
-0.0205909
-0.0216186
-0.0221443
-0.022267
-0.022044
-0.0215331
-0.02086
-0.0200346
-0.019013
-0.0177697
-0.0163633
-0.014724
-0.0129725
-0.011162
-0.0092982
-0.00748774
-0.00587077
-0.00424086
-0.00283177
-0.00184899
-0.000742384
0.000136297
0.000812622
0.00128561
0.00156117
0.00197226
0.00202269
0.00205157
0.00217968
0.00195707
0.00191631
0.00168338
0.00156534
0.00136591
0.000567091
0.000554007
0.000452021
-0.0156702
-0.0169666
-0.0178022
-0.0182001
-0.0182689
-0.0181389
-0.0178796
-0.0174714
-0.0169156
-0.0161982
-0.015306
-0.014309
-0.0131179
-0.011836
-0.0104961
-0.00906455
-0.00765755
-0.00635902
-0.00497417
-0.00373604
-0.00288089
-0.00185319
-0.000973634
-0.000287817
0.000238659
0.000559428
0.0010025
0.00118775
0.00128184
0.00144659
0.00136576
0.0013693
0.00117191
0.000968064
0.000926663
0.000208054
-2.9048e-05
0.000226764
-0.0116928
-0.012709
-0.0133864
-0.0137553
-0.0138213
-0.0137564
-0.0136349
-0.013401
-0.0130715
-0.0126138
-0.0120185
-0.0113452
-0.0105053
-0.00958772
-0.00863252
-0.00755716
-0.00649613
-0.00549967
-0.00437932
-0.00334473
-0.0026566
-0.00175037
-0.000954321
-0.000319794
0.000225878
0.000547295
0.00106978
0.00123231
0.00136702
0.00164724
0.0014952
0.00158853
0.00144441
0.00138289
0.00127607
0.000517501
0.000413436
0.000375549
-0.00937661
-0.0102579
-0.0108392
-0.0111808
-0.0113657
-0.0112688
-0.011123
-0.0109386
-0.0106954
-0.0103739
-0.00997175
-0.00953639
-0.00898466
-0.00839005
-0.00775786
-0.00698808
-0.00625181
-0.00549626
-0.00465395
-0.00385153
-0.00331232
-0.00253851
-0.00181099
-0.00126326
-0.000716322
-0.000407893
6.88811e-05
0.000355935
0.00052159
0.000803008
0.000819554
0.000926511
0.000788676
0.000491246
0.00070377
7.89763e-05
-0.000375821
8.91646e-05
-0.00598137
-0.00671437
-0.0072113
-0.00751066
-0.00762631
-0.00764715
-0.00763783
-0.00759469
-0.00749721
-0.00733737
-0.00710782
-0.00686616
-0.00650979
-0.00613722
-0.0057428
-0.00522123
-0.00473501
-0.00418016
-0.00359124
-0.00289828
-0.00255142
-0.00188327
-0.00134032
-0.000856947
-0.000271272
-7.02911e-05
0.000475145
0.000681615
0.000809426
0.00118383
0.00116664
0.00132017
0.00122197
0.0012822
0.00123645
0.000449659
0.000237012
0.000302959
-0.00276197
-0.00332861
-0.00377712
-0.00411343
-0.00436164
-0.00456392
-0.00473767
-0.00491174
-0.00504304
-0.00515684
-0.00519529
-0.00520944
-0.00513419
-0.00499534
-0.00483227
-0.00457995
-0.00433108
-0.0039732
-0.00371171
-0.00312136
-0.00286683
-0.00237353
-0.00195681
-0.00160437
-0.000958206
-0.000840254
-0.000302871
2.6212e-05
4.40039e-05
0.000496398
0.000623814
0.000711329
0.000697659
0.000760784
0.000977382
9.95213e-05
-0.000281248
0.000153945
-0.00159478
-0.0018962
-0.00217122
-0.00242152
-0.00264332
-0.00284878
-0.00301319
-0.00315645
-0.00327346
-0.00337646
-0.00344798
-0.0034813
-0.0034818
-0.00341779
-0.00332492
-0.00316434
-0.00299171
-0.00273186
-0.00256187
-0.00222497
-0.00190706
-0.00158048
-0.00123439
-0.000947515
-0.000498386
-0.00026259
0.000109702
0.000395907
0.000550274
0.000884857
0.000950556
0.00112686
0.00123973
0.00112363
0.0012749
0.000854369
0.000193293
0.000142295
-0.000715767
-0.000991792
-0.00125234
-0.00149496
-0.00172162
-0.00194005
-0.00214353
-0.00234341
-0.00252071
-0.00267395
-0.00279896
-0.00289065
-0.00295909
-0.00297598
-0.00297473
-0.00291898
-0.00284987
-0.00270938
-0.00258531
-0.00236525
-0.00213234
-0.00190582
-0.00160729
-0.00138011
-0.000998873
-0.000768088
-0.000466546
-0.000134474
-5.44014e-06
0.000341719
0.00048267
0.000571484
0.00080095
0.000702802
0.000683087
0.000515181
3.63663e-05
1.56202e-06
-0.00025342
-0.000471632
-0.00069131
-0.000907476
-0.00111466
-0.00131358
-0.00149898
-0.00167179
-0.00182811
-0.00196957
-0.00209654
-0.00219503
-0.00227359
-0.00231783
-0.00232755
-0.00229489
-0.00224175
-0.00213955
-0.00203423
-0.00189758
-0.00168876
-0.0014798
-0.00123053
-0.00101702
-0.000724934
-0.000451913
-0.000211099
9.87192e-05
0.000278985
0.000525745
0.000730996
0.000795483
0.000975085
0.000932985
0.000828125
0.000761018
0.000332111
8.41316e-05
-0.0905663
-0.109374
-0.127619
-0.146286
-0.165901
-0.186153
-0.207379
-0.230198
-0.0833013
-0.0979693
-0.112166
-0.12705
-0.142191
-0.157957
-0.17313
-0.191565
-0.0722941
-0.0841412
-0.0953046
-0.106795
-0.118502
-0.131009
-0.144204
-0.160437
-0.0655724
-0.0747944
-0.0836481
-0.0928055
-0.102479
-0.11281
-0.123974
-0.136888
-0.0577374
-0.0650375
-0.0722832
-0.0797275
-0.0875075
-0.0955409
-0.104201
-0.114453
-0.0515341
-0.0572502
-0.0628973
-0.0685871
-0.0745502
-0.0807519
-0.0876802
-0.0960402
-0.045628
-0.0499743
-0.054362
-0.0588068
-0.0634986
-0.0684032
-0.0738816
-0.0804814
-0.0402863
-0.0435825
-0.0469617
-0.0503996
-0.0540039
-0.0577658
-0.0620036
-0.0672167
-0.0353588
-0.037843
-0.0403949
-0.0429954
-0.0457321
-0.0486327
-0.0519549
-0.0560965
-0.0308356
-0.0327059
-0.0346088
-0.0365587
-0.0386396
-0.0408827
-0.0434769
-0.0467436
-0.0266879
-0.0281009
-0.0295126
-0.0309628
-0.0325281
-0.0342428
-0.036254
-0.0388287
-0.0228614
-0.023958
-0.0250236
-0.0261032
-0.0272748
-0.0285858
-0.0301565
-0.032193
-0.0193183
-0.0201678
-0.0209898
-0.0218108
-0.0226938
-0.023694
-0.0249144
-0.0265222
-0.0161896
-0.0169203
-0.0175653
-0.0181822
-0.0188473
-0.0196233
-0.0205962
-0.0218815
-0.013041
-0.0136058
-0.0141665
-0.0146812
-0.015201
-0.0157945
-0.0165414
-0.0175445
-0.0105912
-0.0110984
-0.0115524
-0.0119635
-0.0124027
-0.0129257
-0.0135907
-0.0144486
-0.0076903
-0.00813805
-0.00856716
-0.00894592
-0.00929414
-0.009665
-0.010127
-0.010752
-0.0055885
-0.00598488
-0.00634437
-0.00666132
-0.00699568
-0.00739531
-0.00790057
-0.00851949
-0.00298488
-0.00333184
-0.00363957
-0.00390583
-0.00417236
-0.00447755
-0.0048474
-0.00530976
-0.000564082
-0.000817421
-0.00107377
-0.00131155
-0.00152303
-0.0017376
-0.0019772
-0.00229571
-2.12054e-05
-0.000213379
-0.000399846
-0.000585976
-0.000766622
-0.000949424
-0.00113517
-0.00133772
0.000737942
0.000561103
0.000382314
0.000204659
3.14064e-05
-0.000139444
-0.00031004
-0.000487091
0.000989136
0.000827094
0.000668999
0.00051301
0.000360268
0.000211292
6.70917e-05
-7.50661e-05
0.100432
0.107477
0.114413
0.121457
0.127768
0.132931
0.136798
0.139004
0.138798
0.135041
0.126113
0.109705
0.0820727
0.0401374
0.00124497
0.0782796
0.0834068
0.0869711
0.089872
0.0921339
0.093284
0.0928162
0.0901024
0.0842348
0.0739456
0.0574836
0.0324307
-0.00514413
-0.0582903
-0.104823
0.0545004
0.0576481
0.0580083
0.057306
0.0559491
0.0533677
0.0488157
0.041505
0.0304309
0.0142267
-0.00898607
-0.0416575
-0.087493
-0.150371
-0.199939
0.028832
0.0296392
0.0274088
0.0240788
0.0198844
0.0141181
0.00595689
-0.00540381
-0.0209898
-0.042238
-0.0711466
-0.110186
-0.162274
-0.231239
-0.279381
0.00228346
0.000674365
-0.00359258
-0.00886911
-0.0152865
-0.0236666
-0.0348057
-0.0494785
-0.0686734
-0.0938178
-0.127065
-0.170727
-0.22715
-0.295967
-0.341209
-0.0241705
-0.0279095
-0.0337551
-0.0405493
-0.048784
-0.0592817
-0.072735
-0.0898642
-0.111632
-0.139332
-0.175269
-0.22157
-0.278929
-0.343982
-0.384503
-0.0497553
-0.0553297
-0.0623118
-0.0703227
-0.0800494
-0.0921501
-0.107193
-0.125861
-0.149115
-0.178233
-0.215002
-0.261115
-0.316403
-0.374808
-0.409683
-0.07441
-0.0811425
-0.0889384
-0.097989
-0.10888
-0.122071
-0.138029
-0.157398
-0.181053
-0.210102
-0.245934
-0.289588
-0.33985
-0.38886
-0.418591
0.21168
0.227249
0.244362
0.263286
0.284005
0.306432
0.330501
0.35617
0.383343
0.41176
0.440852
0.46953
0.495908
0.516498
0.53355
0.211408
0.226877
0.243893
0.262837
0.283717
0.306398
0.330772
0.356779
0.384332
0.413183
0.442775
0.472024
0.499055
0.52031
0.537974
0.207358
0.221878
0.238123
0.25654
0.276987
0.299174
0.322915
0.348129
0.374717
0.4024
0.430571
0.458092
0.483011
0.501817
0.517064
0.199535
0.212314
0.227291
0.244717
0.264116
0.284984
0.307084
0.330347
0.354657
0.379664
0.404645
0.428315
0.448525
0.461904
0.471986
0.187425
0.198041
0.211416
0.227523
0.245417
0.264329
0.283968
0.304268
0.325085
0.345988
0.36611
0.38399
0.397186
0.402407
0.405193
0.170697
0.179121
0.191045
0.205601
0.221434
0.237733
0.254224
0.270805
0.287231
0.302919
0.316823
0.327282
0.331529
0.32615
0.319897
0.15032
0.156829
0.167485
0.18022
0.193334
0.206228
0.218815
0.230978
0.242296
0.251972
0.25874
0.260708
0.254809
0.237485
0.220331
0.126411
0.131652
0.141385
0.15202
0.162023
0.171098
0.17934
0.186579
0.192223
0.19528
0.194283
0.187095
0.170321
0.140444
0.111816
0.0221017
0.0246045
0.0225141
0.0266284
0.0245104
0.0295136
0.0285977
0.0334475
0.0340179
0.0393917
0.0414825
0.0474573
0.0515756
0.0588078
0.0651002
0.0739982
0.0836
0.095965
0.109225
0.125479
0.143678
0.16538
0.189816
0.0220956
0.0246259
0.0225504
0.0265497
0.0245701
0.0294925
0.0286527
0.0333884
0.0340993
0.0393257
0.0414954
0.0474231
0.0515952
0.0587623
0.0649489
0.0737615
0.0832397
0.0956462
0.108698
0.124986
0.143091
0.165022
0.189574
0.022092
0.0246253
0.0226
0.0264424
0.0246538
0.0294372
0.0287257
0.0333034
0.0342187
0.0392444
0.0415819
0.0473649
0.0516427
0.0587067
0.0648783
0.0736201
0.0828563
0.0952251
0.107789
0.123955
0.141338
0.162971
0.186614
0.0220933
0.0246046
0.0226616
0.0263149
0.0247596
0.0293525
0.0288106
0.0331931
0.0343586
0.0391647
0.0417774
0.0473917
0.0517213
0.0586436
0.064848
0.07382
0.0837441
0.0948928
0.106732
0.122824
0.139276
0.160286
0.181662
0.022096
0.0245661
0.022733
0.0261753
0.0248811
0.029242
0.028916
0.0330798
0.0345077
0.0390574
0.0418929
0.0472492
0.0517661
0.0584895
0.064783
0.0732543
0.0824951
0.0936764
0.104556
0.119846
0.134176
0.153811
0.172769
0.0220987
0.0245127
0.0228107
0.0260326
0.0250152
0.0291088
0.0290089
0.0329614
0.0346934
0.039027
0.0421727
0.0474215
0.051931
0.0585461
0.0649408
0.0740588
0.0819377
0.0931482
0.10364
0.118714
0.131869
0.149451
0.161545
0.0221006
0.0244493
0.0228907
0.0258822
0.0251503
0.0289673
0.0291334
0.0328529
0.0348088
0.0388947
0.0421911
0.047138
0.0518722
0.0582337
0.0647784
0.0748079
0.0811198
0.0909381
0.100186
0.112866
0.122089
0.138065
0.146025
0.0220888
0.0243747
0.0229764
0.0257718
0.0252951
0.0288032
0.0291916
0.0328219
0.0350796
0.0390615
0.0426685
0.047678
0.0522469
0.0586034
0.0650053
0.0735407
0.0807011
0.0908914
0.0995952
0.112187
0.121576
0.130524
0.127808
0.0220761
0.0242695
0.023053
0.025521
0.0254284
0.0285862
0.0293793
0.0326004
0.035034
0.0385523
0.0422598
0.0468179
0.0516523
0.0574795
0.0640718
0.0705925
0.0780383
0.0866835
0.0943693
0.100245
0.103591
0.102246
0.0969828
0.022056
0.0241093
0.0231592
0.0252381
0.0255838
0.0281088
0.0293163
0.0320065
0.0347151
0.0377805
0.0415336
0.0455113
0.049923
0.0546683
0.0600035
0.0651124
0.0709781
0.0752877
0.0808784
0.0838636
0.085867
0.0839775
0.0778359
0.02203
0.0239118
0.0232853
0.0248526
0.0257127
0.0275748
0.0292495
0.0314458
0.0342973
0.0368955
0.0405419
0.043897
0.047882
0.0517649
0.0562935
0.0604285
0.0646195
0.0687919
0.0711933
0.0715535
0.069706
0.0654226
0.05921
0.0219962
0.0236711
0.0234101
0.0244137
0.0258309
0.0270573
0.0289972
0.0308696
0.0336721
0.0358877
0.039301
0.0421353
0.0455165
0.0485218
0.0518732
0.0545141
0.056767
0.0574627
0.058515
0.0567833
0.0538145
0.049024
0.0430157
0.021949
0.0233898
0.0235228
0.0239556
0.0258697
0.0265314
0.0286053
0.030284
0.0328554
0.0347711
0.0377816
0.0401026
0.0426792
0.0448326
0.0470857
0.0485486
0.0494929
0.049764
0.0487034
0.0459254
0.0420238
0.0367093
0.0308579
0.0218802
0.0230769
0.0235898
0.0234906
0.0258031
0.0260312
0.0280429
0.0296298
0.0318341
0.0334688
0.03602
0.0378062
0.039555
0.0408967
0.042116
0.0423715
0.0419468
0.0403286
0.0379862
0.0349391
0.0306367
0.0254529
0.0199616
0.0217811
0.0227408
0.023573
0.0230219
0.0256003
0.0255367
0.0273089
0.0288849
0.030646
0.0319494
0.0340452
0.0352603
0.0361564
0.036701
0.0370571
0.0363852
0.0349589
0.0327511
0.0298815
0.0261632
0.0216616
0.0166604
0.0116077
0.021641
0.0223884
0.0232002
0.0225459
0.0252445
0.0250325
0.0264183
0.0279995
0.0293143
0.0302023
0.031862
0.0325519
0.03262
0.032441
0.0321359
0.0307626
0.0285288
0.0257313
0.0225955
0.0187806
0.0143138
0.00955837
0.0049644
0.02145
0.0220406
0.0230087
0.0220826
0.0247299
0.0244881
0.0254016
0.0269424
0.0278675
0.0282496
0.0294842
0.0297363
0.0290551
0.0282309
0.0274297
0.0256158
0.0228684
0.0198038
0.0166184
0.012942
0.00867133
0.00414312
-0.000136576
0.0212
0.021692
0.0227063
0.021618
0.0240658
0.0238753
0.0242918
0.025699
0.0263112
0.0261699
0.0269592
0.0268603
0.0255879
0.0242286
0.0230778
0.0210459
0.0180361
0.0148422
0.0117805
0.00843009
0.00451521
0.000281482
-0.00381207
0.0208868
0.0213313
0.0222987
0.0211262
0.0232746
0.0231656
0.0231238
0.0242934
0.0246433
0.0240422
0.0243794
0.0239882
0.0223041
0.0205586
0.0191904
0.0171018
0.0140351
0.0108541
0.00799938
0.00503301
0.00153808
-0.00232108
-0.00613945
0.0205057
0.0209466
0.0217969
0.0205897
0.0223738
0.0223372
0.0219101
0.0227921
0.0228908
0.0219364
0.0218577
0.0212112
0.0192668
0.0172948
0.0158322
0.013797
0.0108237
0.00780056
0.00520664
0.00263074
-0.000423671
-0.003859
-0.00730348
0.0200665
0.020521
0.0212187
0.019978
0.0214101
0.0214
0.0206772
0.0212312
0.0210769
0.0198895
0.0194875
0.0186489
0.01657
0.0145038
0.0130317
0.0111197
0.00831319
0.00550982
0.00320453
0.000995925
-0.00164128
-0.0046485
-0.00766611
0.0195662
0.0200577
0.0205742
0.0192837
0.0203797
0.0203664
0.0194354
0.0196753
0.0192738
0.017924
0.0173129
0.0163443
0.0142226
0.0121884
0.0108131
0.00909645
0.00659278
0.0040412
0.00203594
0.000182016
-0.00205607
-0.00464553
-0.00726766
0.0190261
0.0195309
0.0198768
0.0185204
0.0193456
0.0192951
0.0181973
0.0181472
0.0175416
0.0161353
0.0154114
0.0143465
0.0122299
0.0103084
0.00909269
0.00757446
0.00531679
0.0030622
0.00136471
-0.000168056
-0.00205168
-0.00424556
-0.00642155
0.018452
0.0189757
0.0191256
0.017675
0.0183107
0.0182145
0.0169998
0.0166632
0.0159012
0.0145434
0.0138126
0.0126933
0.0106412
0.0089109
0.00790019
0.00659863
0.00458533
0.00263935
0.00124184
-4.3956e-06
-0.00159457
-0.00347786
-0.00535553
0.0178623
0.0183729
0.0183481
0.0168498
0.0173068
0.0171975
0.01591
0.0152896
0.0144468
0.0132341
0.0125101
0.0113331
0.00938009
0.00787679
0.00707056
0.00595716
0.00421895
0.00258028
0.00147277
0.000498262
-0.000787161
-0.00230647
-0.003785
0.0173064
0.017745
0.017547
0.0160488
0.0164005
0.0161982
0.0148967
0.0140945
0.0132212
0.0121674
0.0114884
0.0102966
0.0085407
0.00733368
0.00671068
0.00573615
0.0042055
0.00285609
0.00198569
0.00119816
0.000117795
-0.00113701
-0.00235039
0.0167529
0.0171529
0.016735
0.0153891
0.0156133
0.0153486
0.0139788
0.0130575
0.0122613
0.0114274
0.010715
0.00949456
0.00798647
0.00707715
0.00659765
0.00574354
0.00449181
0.00344395
0.00280418
0.00222954
0.00142756
0.000494737
-0.000420573
0.016271
0.0165385
0.0161786
0.0148615
0.0147459
0.0147126
0.0135418
0.0122901
0.011608
0.0110626
0.0102308
0.00909
0.00788487
0.00709475
0.00663218
0.00611189
0.00525067
0.00433328
0.00363456
0.00311428
0.00257249
0.00191556
0.00119308
0.0157677
0.0158752
0.0156413
0.0144912
0.0138947
0.0137876
0.0129859
0.011702
0.0108148
0.0102708
0.00963277
0.0086856
0.00755213
0.00658632
0.00601664
0.00563619
0.00508759
0.00436907
0.00369712
0.0032037
0.00281839
0.00241241
0.00195103
0.0153977
0.0154606
0.0152197
0.0140756
0.0133025
0.0131631
0.0126314
0.0114419
0.0104098
0.00989998
0.00945094
0.0086203
0.00755073
0.00665074
0.00610701
0.00573842
0.00530189
0.00473635
0.0041434
0.00362946
0.0032107
0.00283812
0.00246626
0.0152322
0.0151159
0.0149144
0.0140681
0.0130599
0.0125781
0.012163
0.0113375
0.0103333
0.00958343
0.00902398
0.00838381
0.00755461
0.00669509
0.00599094
0.00549759
0.00509678
0.00466815
0.00419446
0.00374177
0.00335853
0.00304061
0.00275534
0.0891665
0.0700515
0.0452618
0.0218555
-0.00121765
-0.0246799
-0.0478569
-0.0699548
0.0708509
0.0513736
0.0261072
0.00517708
-0.0131856
-0.0314247
-0.0497457
-0.0673089
0.053269
0.0378962
0.0164224
-0.00188116
-0.0171804
-0.0314146
-0.0456524
-0.0594776
0.0381392
0.0258617
0.00716127
-0.00930606
-0.0225879
-0.0340066
-0.0449471
-0.0555428
0.0259629
0.0158963
0.000322051
-0.0139335
-0.0251589
-0.0340414
-0.0422226
-0.0501531
0.0155958
0.00748093
-0.00518535
-0.0171965
-0.0265616
-0.0335548
-0.0397181
-0.045671
0.00767121
0.00115808
-0.00900223
-0.0189472
-0.0266497
-0.0321584
-0.0368004
-0.0412293
0.00150896
-0.00365455
-0.0116778
-0.0197432
-0.0259638
-0.0302642
-0.0337322
-0.0370021
-0.00311746
-0.00700732
-0.013062
-0.019413
-0.0244199
-0.0278412
-0.0304775
-0.0329052
-0.00672366
-0.00969476
-0.0138712
-0.0184158
-0.0222391
-0.0249905
-0.0270933
-0.0289688
-0.00899444
-0.011405
-0.0141131
-0.0170473
-0.0197674
-0.0219587
-0.0237119
-0.0252336
-0.00993825
-0.011874
-0.0136113
-0.0154601
-0.0173388
-0.0190242
-0.0204595
-0.0217048
-0.00996339
-0.0114628
-0.0125479
-0.0136967
-0.0149883
-0.0162599
-0.0174023
-0.0184034
-0.00929474
-0.0105226
-0.0112236
-0.011921
-0.0127833
-0.0137126
-0.0146019
-0.0154165
-0.00804735
-0.00895325
-0.0093883
-0.00983102
-0.0104382
-0.0111314
-0.0118148
-0.0124464
-0.00677064
-0.00752232
-0.00780693
-0.00806947
-0.00848024
-0.00899157
-0.00952806
-0.0100582
-0.00487615
-0.00543399
-0.00563111
-0.00581438
-0.00610581
-0.00647023
-0.00686024
-0.00726134
-0.00325553
-0.00372365
-0.00388828
-0.00402696
-0.00424559
-0.00452595
-0.00484305
-0.0051943
-0.00112948
-0.0014976
-0.0016306
-0.00174005
-0.00189812
-0.00210156
-0.00234837
-0.00264413
0.000606599
0.000299699
0.000189751
0.000130606
5.76612e-05
-4.39111e-05
-0.000174519
-0.000346516
0.0015349
0.00125636
0.0010712
0.000922716
0.000763698
0.000577831
0.000377231
0.00017464
0.00215426
0.00193391
0.00175134
0.0015841
0.00141857
0.00125002
0.00108033
0.000910115
0.00251085
0.00230253
0.00209023
0.00188656
0.00169414
0.00150967
0.00133068
0.00115672
-0.242915
-0.243545
-0.247887
-0.256216
-0.268426
-0.284852
-0.306114
-0.332312
-0.241367
-0.242226
-0.246114
-0.253067
-0.263216
-0.277019
-0.294698
-0.315909
-0.237569
-0.23817
-0.241803
-0.248344
-0.25738
-0.269452
-0.284788
-0.301568
-0.23255
-0.232857
-0.236724
-0.243056
-0.25121