/*--------------------------------*- C++ -*----------------------------------*\
| =========                 |                                                 |
| \\      /  F ield         | OpenFOAM: The Open Source CFD Toolbox           |
|  \\    /   O peration     | Version:  2512                                  |
|   \\  /    A nd           | Website:  www.openfoam.com                      |
|    \\/     M anipulation  |                                                 |
\*---------------------------------------------------------------------------*/
FoamFile
{
    version     2.0;
    format      ascii;
    arch        "LSB;label=32;scalar=64";
    class       volScalarField;
    location    "115.75";
    object      p;
}
// * * * * * * * * * * * * * * * * * * * * * * * * * * * * * * * * * * * * * //

dimensions      [0 2 -2 0 0 0 0];

internalField   nonuniform List<scalar> 
13248
(
-0.369705
-0.370086
-0.368309
-0.364948
-0.360294
-0.354718
-0.348802
-0.34322
-0.338594
-0.335271
-0.333198
-0.331949
-0.330833
-0.329084
-0.326057
-0.321366
-0.31492
-0.306807
-0.297142
-0.286114
-0.273421
-0.2597
-0.242984
-0.22445
-0.377011
-0.376613
-0.374571
-0.371402
-0.36734
-0.362582
-0.357425
-0.352176
-0.347052
-0.342116
-0.337253
-0.332203
-0.32665
-0.320329
-0.313096
-0.304922
-0.295821
-0.285812
-0.274897
-0.26304
-0.250245
-0.236442
-0.221343
-0.206191
-0.386648
-0.385155
-0.382525
-0.379174
-0.375296
-0.370915
-0.365955
-0.360291
-0.353828
-0.346557
-0.338537
-0.329863
-0.320643
-0.310978
-0.300936
-0.290536
-0.279751
-0.268554
-0.256873
-0.244747
-0.232006
-0.218868
-0.205046
-0.190929
-0.398277
-0.395482
-0.392026
-0.388205
-0.384148
-0.379601
-0.374054
-0.367037
-0.358394
-0.348318
-0.337215
-0.325524
-0.313591
-0.301621
-0.28969
-0.277788
-0.265871
-0.25387
-0.241752
-0.22946
-0.21699
-0.204462
-0.191616
-0.179303
-0.412045
-0.407865
-0.403471
-0.399017
-0.394379
-0.388913
-0.381746
-0.372366
-0.360893
-0.347903
-0.334098
-0.320064
-0.306166
-0.292574
-0.279323
-0.266375
-0.253663
-0.241131
-0.228718
-0.21641
-0.204187
-0.19208
-0.180014
-0.168361
-0.428385
-0.422763
-0.417414
-0.41212
-0.406295
-0.398874
-0.388934
-0.376345
-0.361717
-0.345957
-0.329869
-0.313993
-0.298604
-0.283794
-0.269546
-0.255802
-0.242495
-0.229561
-0.216955
-0.204639
-0.192594
-0.180838
-0.169297
-0.158302
-0.447622
-0.440514
-0.434143
-0.427627
-0.419713
-0.409126
-0.395398
-0.379089
-0.361275
-0.342989
-0.324954
-0.307558
-0.290953
-0.275151
-0.260102
-0.245734
-0.231972
-0.218753
-0.206019
-0.193726
-0.181848
-0.170344
-0.159209
-0.148572
-0.469771
-0.461149
-0.45356
-0.445161
-0.43399
-0.419077
-0.400874
-0.38068
-0.359824
-0.339255
-0.319499
-0.30077
-0.283103
-0.266449
-0.250728
-0.23585
-0.221733
-0.208301
-0.195488
-0.183239
-0.171501
-0.160241
-0.149451
-0.139123
-0.494428
-0.484288
-0.475108
-0.463845
-0.448158
-0.428032
-0.405066
-0.381086
-0.357409
-0.33476
-0.313437
-0.293493
-0.274871
-0.257469
-0.241176
-0.225887
-0.211503
-0.197936
-0.185105
-0.172939
-0.161374
-0.150361
-0.13987
-0.129784
-0.520683
-0.509054
-0.497703
-0.48235
-0.461025
-0.435208
-0.407524
-0.379996
-0.353728
-0.329168
-0.306398
-0.28534
-0.265857
-0.247801
-0.231032
-0.215421
-0.200851
-0.187218
-0.174427
-0.162393
-0.15104
-0.140313
-0.13014
-0.120358
-0.547192
-0.534077
-0.519717
-0.498996
-0.471213
-0.439588
-0.407422
-0.376633
-0.348006
-0.321705
-0.297626
-0.275578
-0.255356
-0.236767
-0.219637
-0.203813
-0.189158
-0.175553
-0.162886
-0.151063
-0.139999
-0.129627
-0.119831
-0.110467
-0.572226
-0.557603
-0.539185
-0.51195
-0.477251
-0.439958
-0.403655
-0.369941
-0.339227
-0.311411
-0.286224
-0.263374
-0.242591
-0.223636
-0.206303
-0.190411
-0.175804
-0.162343
-0.149907
-0.138391
-0.127711
-0.117792
-0.108502
-0.0997598
-0.417931
-0.417649
-0.417057
-0.417069
-0.418396
-0.421393
-0.42628
-0.433291
-0.442704
-0.454787
-0.469737
-0.487609
-0.50827
-0.531353
-0.556246
-0.582119
-0.607987
-0.632825
-0.655374
-0.674671
-0.689721
-0.699166
-0.703286
-0.69845
-0.415796
-0.414075
-0.412772
-0.412209
-0.412983
-0.415503
-0.420041
-0.426871
-0.436341
-0.448802
-0.464527
-0.483624
-0.505972
-0.531162
-0.558492
-0.586989
-0.615493
-0.642777
-0.667602
-0.688901
-0.706423
-0.714885
-0.718132
-0.713646
-0.41257
-0.409671
-0.40769
-0.406536
-0.406645
-0.408477
-0.412334
-0.418515
-0.427382
-0.439319
-0.454627
-0.47344
-0.495643
-0.520817
-0.548222
-0.576828
-0.605387
-0.632516
-0.65685
-0.676899
-0.690912
-0.701933
-0.70598
-0.701262
-0.407836
-0.404157
-0.401587
-0.39974
-0.398929
-0.399665
-0.402319
-0.40721
-0.414695
-0.425149
-0.438884
-0.456055
-0.47657
-0.50004
-0.525752
-0.552714
-0.579709
-0.605378
-0.628602
-0.647575
-0.662854
-0.672091
-0.675254
-0.668857
-0.401687
-0.397732
-0.394726
-0.392102
-0.390076
-0.389233
-0.390067
-0.392976
-0.398337
-0.40652
-0.417837
-0.432458
-0.450334
-0.471137
-0.494235
-0.518715
-0.543496
-0.567434
-0.589352
-0.608111
-0.622802
-0.631086
-0.632842
-0.623251
-0.394564
-0.390857
-0.387641
-0.384258
-0.380836
-0.37802
-0.376484
-0.376797
-0.379443
-0.384835
-0.393303
-0.405037
-0.42003
-0.438028
-0.458496
-0.480614
-0.503522
-0.526106
-0.547195
-0.564959
-0.578303
-0.584493
-0.582645
-0.567642
-0.387034
-0.38402
-0.380855
-0.376869
-0.372099
-0.367208
-0.363051
-0.360442
-0.360069
-0.362477
-0.368069
-0.37708
-0.389542
-0.40523
-0.423714
-0.444351
-0.466151
-0.487517
-0.50699
-0.522507
-0.532371
-0.533737
-0.525601
-0.504149
-0.379644
-0.377617
-0.374719
-0.37037
-0.364545
-0.357874
-0.351349
-0.346024
-0.342841
-0.342549
-0.345691
-0.352585
-0.363308
-0.37765
-0.395098
-0.414619
-0.434847
-0.453851
-0.469884
-0.480445
-0.484142
-0.478709
-0.464147
-0.43847
-0.372943
-0.372008
-0.369471
-0.364987
-0.358537
-0.350706
-0.342555
-0.335312
-0.330145
-0.32802
-0.329639
-0.335374
-0.345216
-0.358694
-0.37483
-0.392172
-0.408976
-0.423175
-0.433095
-0.436676
-0.433583
-0.422582
-0.405064
-0.379793
-0.367696
-0.367708
-0.365495
-0.361056
-0.354444
-0.346213
-0.337474
-0.329506
-0.323615
-0.320856
-0.321961
-0.327118
-0.335989
-0.34772
-0.360948
-0.374016
-0.385078
-0.392493
-0.39506
-0.392019
-0.384078
-0.371023
-0.354958
-0.333464
-0.364915
-0.365519
-0.363543
-0.359322
-0.353097
-0.345167
-0.336909
-0.329346
-0.323855
-0.32125
-0.322011
-0.326118
-0.332931
-0.34131
-0.349777
-0.3568
-0.360948
-0.361393
-0.357679
-0.350273
-0.339959
-0.327241
-0.313874
-0.296358
-0.365504
-0.366238
-0.364423
-0.360597
-0.355077
-0.348225
-0.341093
-0.334652
-0.329702
-0.327056
-0.326905
-0.328914
-0.332271
-0.335848
-0.338439
-0.339025
-0.336945
-0.332083
-0.324503
-0.314865
-0.303089
-0.290016
-0.276124
-0.260983
-0.683888
-0.649475
-0.592537
-0.514726
-0.428537
-0.349742
-0.288321
-0.247652
-0.227178
-0.22374
-0.234352
-0.260494
-0.30282
-0.351182
-0.38462
-0.382368
-0.341389
-0.279886
-0.220409
-0.175415
-0.146687
-0.133047
-0.132139
-0.143525
-0.17222
-0.221196
-0.27763
-0.314085
-0.305259
-0.257964
-0.198455
-0.149702
-0.118844
-0.103923
-0.105243
-0.125241
-0.154393
-0.170749
-0.158498
-0.13055
-0.103279
-0.0869299
-0.0828502
-0.0912365
-0.101991
-0.10445
-0.0945295
-0.0817628
-0.0669705
-0.0592088
-0.0555423
-0.0536455
-0.0471044
-0.0421909
-0.0386018
-0.0421818
-0.0391601
-0.0340186
-0.0137529
-0.00571541
-0.699045
-0.664182
-0.607777
-0.529618
-0.441209
-0.359045
-0.293921
-0.248371
-0.220887
-0.210063
-0.213738
-0.23201
-0.265874
-0.308125
-0.339968
-0.34041
-0.306703
-0.254147
-0.203109
-0.164066
-0.139533
-0.129692
-0.132485
-0.148004
-0.181992
-0.237089
-0.298656
-0.338371
-0.329097
-0.277852
-0.212205
-0.156786
-0.119893
-0.0992192
-0.0942175
-0.107037
-0.129717
-0.142506
-0.132223
-0.110581
-0.0910191
-0.0817359
-0.0849787
-0.100568
-0.11736
-0.121675
-0.108504
-0.0915978
-0.0709753
-0.0573785
-0.0482091
-0.042748
-0.0369699
-0.0348767
-0.0389082
-0.0485766
-0.0498685
-0.0455557
-0.0174897
-0.00443855
-0.685109
-0.64982
-0.595754
-0.520672
-0.434473
-0.353236
-0.288109
-0.241143
-0.209983
-0.192691
-0.188356
-0.19732
-0.220854
-0.254431
-0.283548
-0.28832
-0.263356
-0.2217
-0.179943
-0.147253
-0.127419
-0.121565
-0.127864
-0.147008
-0.185183
-0.244502
-0.309718
-0.352538
-0.345082
-0.29213
-0.221948
-0.161074
-0.119097
-0.093386
-0.0825988
-0.0888558
-0.105633
-0.11547
-0.106892
-0.0908774
-0.0781495
-0.0755661
-0.0864384
-0.109703
-0.132881
-0.139193
-0.12223
-0.100812
-0.0745707
-0.0554796
-0.041132
-0.0320504
-0.026904
-0.027512
-0.0390958
-0.0545494
-0.0601122
-0.0567637
-0.0214344
-0.0031775
-0.648588
-0.611955
-0.561506
-0.491305
-0.411177
-0.335959
-0.274182
-0.227767
-0.195148
-0.174126
-0.1634
-0.163051
-0.175283
-0.198476
-0.222356
-0.23136
-0.214689
-0.184413
-0.15203
-0.125824
-0.110661
-0.108433
-0.11765
-0.139154
-0.179298
-0.240819
-0.309016
-0.354845
-0.351382
-0.299692
-0.227017
-0.16228
-0.116501
-0.0868191
-0.0711463
-0.0716203
-0.0832422
-0.0905133
-0.0832647
-0.0717819
-0.0647813
-0.0682743
-0.0867705
-0.118031
-0.148035
-0.156625
-0.135485
-0.109216
-0.0776356
-0.05352
-0.0344693
-0.0217162
-0.0170801
-0.0201525
-0.0390507
-0.0599735
-0.0696702
-0.0674755
-0.0255827
-0.00194822
-0.596734
-0.558081
-0.512584
-0.450002
-0.379126
-0.312874
-0.256949
-0.21234
-0.178879
-0.155312
-0.140251
-0.133199
-0.135168
-0.147322
-0.163691
-0.172857
-0.164294
-0.144637
-0.121033
-0.101008
-0.0900569
-0.0909567
-0.102514
-0.12513
-0.164998
-0.22597
-0.295287
-0.344236
-0.346497
-0.299782
-0.227358
-0.160634
-0.112355
-0.0798247
-0.0603905
-0.0559074
-0.0630867
-0.0682685
-0.0617771
-0.0536394
-0.0510421
-0.0596443
-0.0854181
-0.124927
-0.162147
-0.173429
-0.148075
-0.116702
-0.0801137
-0.0515099
-0.02835
-0.011909
-0.00763501
-0.0128406
-0.0386857
-0.0647314
-0.0783329
-0.0775402
-0.0299135
-0.000783892
-0.533443
-0.49364
-0.455296
-0.403078
-0.34379
-0.287752
-0.238725
-0.197316
-0.163891
-0.138403
-0.119993
-0.107864
-0.102345
-0.104703
-0.112764
-0.11995
-0.116108
-0.105091
-0.0889669
-0.0744615
-0.0672124
-0.0706987
-0.0840515
-0.106912
-0.144568
-0.201757
-0.269256
-0.321299
-0.330447
-0.291501
-0.222899
-0.156411
-0.106947
-0.0726845
-0.0504861
-0.0419999
-0.0454535
-0.0491291
-0.0463063
-0.0368542
-0.0371674
-0.0497976
-0.0822583
-0.129627
-0.174337
-0.188845
-0.159703
-0.123147
-0.0819459
-0.0494622
-0.0228897
-0.00278957
0.00129426
-0.00565015
-0.0379232
-0.0687141
-0.0859288
-0.0868147
-0.0343774
0.000278806
-0.463979
-0.426579
-0.397539
-0.357066
-0.309971
-0.264056
-0.221706
-0.183872
-0.151394
-0.124789
-0.103901
-0.0880176
-0.0768982
-0.071505
-0.0720898
-0.0756505
-0.0781225
-0.0683844
-0.0579536
-0.0480511
-0.0438628
-0.0492471
-0.0637856
-0.0862311
-0.120357
-0.171458
-0.234196
-0.287695
-0.303925
-0.275732
-0.214029
-0.150066
-0.100742
-0.0657546
-0.0417009
-0.0300294
-0.0303877
-0.0327609
-0.0295706
-0.0214777
-0.0236601
-0.0390105
-0.0768456
-0.131643
-0.183818
-0.202104
-0.170142
-0.128491
-0.0831017
-0.0473652
-0.0181614
0.00549315
0.00959063
0.00135107
-0.0367327
-0.0718696
-0.0923306
-0.095172
-0.038896
0.00120661
-0.397086
-0.365898
-0.346109
-0.316222
-0.279882
-0.242955
-0.206888
-0.172882
-0.142093
-0.115219
-0.0926618
-0.0741732
-0.0592258
-0.0481441
-0.0420218
-0.0403112
-0.0403963
-0.0356363
-0.0294297
-0.0232567
-0.0216117
-0.0282182
-0.0432573
-0.0647807
-0.0949031
-0.138946
-0.194772
-0.248308
-0.278672
-0.25413
-0.20139
-0.141975
-0.0940184
-0.0592405
-0.0341972
-0.0200725
-0.0177962
-0.0191287
-0.015789
-0.00806113
-0.0109442
-0.0276899
-0.069443
-0.130381
-0.189457
-0.212237
-0.178905
-0.132658
-0.083559
-0.0451731
-0.0141778
0.0128198
0.0171476
0.00805382
-0.0350867
-0.0741479
-0.0974427
-0.102505
-0.0433749
0.00197431
-0.342687
-0.31884
-0.305507
-0.283106
-0.254846
-0.225023
-0.19443
-0.16419
-0.135614
-0.109375
-0.0859758
-0.0657563
-0.0484141
-0.0337146
-0.0224139
-0.015378
-0.0121656
-0.00977372
-0.00375665
-0.00097056
-0.00141356
-0.00861009
-0.0235694
-0.0441383
-0.0702811
-0.106559
-0.154423
-0.204431
-0.236665
-0.227637
-0.185837
-0.132426
-0.0868704
-0.0530961
-0.0279172
-0.01205
-0.00751846
-0.00800281
-0.00488469
0.00305799
0.000558003
-0.0161949
-0.0595652
-0.125654
-0.191368
-0.218803
-0.185849
-0.135608
-0.0833208
-0.0428583
-0.0109189
0.0190978
0.0239134
0.0144321
-0.0330311
-0.0755906
-0.101234
-0.108735
-0.0477412
0.0025635
-0.303185
-0.285214
-0.274895
-0.256742
-0.234101
-0.209778
-0.183945
-0.157347
-0.13113
-0.106096
-0.082709
-0.0614925
-0.042663
-0.0259723
-0.0116162
-0.000476001
0.00692636
0.0119395
0.0172446
0.0175081
0.0154521
0.00821431
-0.00576503
-0.0247882
-0.0475819
-0.0775171
-0.116252
-0.159844
-0.194169
-0.195828
-0.166736
-0.121377
-0.0795214
-0.0474852
-0.0229737
-0.00598926
0.000501091
0.000869027
0.00345617
0.0118322
0.0103794
-0.00531972
-0.0484307
-0.117163
-0.18808
-0.220715
-0.189858
-0.137178
-0.0825224
-0.040545
-0.00851984
0.0242328
0.0297889
0.0203087
-0.0305584
-0.0761373
-0.103668
-0.113784
-0.0519333
0.00295658
-0.273546
-0.261261
-0.252339
-0.236632
-0.217995
-0.19793
-0.176086
-0.152831
-0.128967
-0.105335
-0.0825406
-0.0610506
-0.0412791
-0.0232535
-0.00703375
0.00689806
0.018008
0.0265008
0.0358806
0.0320061
0.0291161
0.0222967
0.00971427
-0.00771965
-0.027422
-0.0510789
-0.0820969
-0.121099
-0.155989
-0.169507
-0.149685
-0.111635
-0.0735648
-0.0432432
-0.0197156
-0.00199454
0.00636401
0.00773886
0.00940921
0.0180614
0.0187114
0.00533104
-0.0357505
-0.105391
-0.181748
-0.218896
-0.192159
-0.137993
-0.0816323
-0.0383989
-0.0069731
0.0280166
0.034826
0.0257961
-0.0277273
-0.0760127
-0.104841
-0.11761
-0.0557319
0.00315568
-0.249106
-0.243625
-0.235083
-0.220835
-0.205176
-0.188679
-0.170659
-0.150917
-0.129804
-0.108026
-0.0862999
-0.0651885
-0.0452242
-0.0265455
-0.00927072
0.00598685
0.0186278
0.0281886
0.0305182
0.0392025
0.037756
0.032099
0.0220365
0.00675563
-0.0109701
-0.0305487
-0.0543363
-0.0850433
-0.115289
-0.12976
-0.123405
-0.0967189
-0.0651161
-0.0374877
-0.015637
0.00176285
0.0113517
0.0137161
0.0142664
0.0219775
0.0241884
0.0134276
-0.0233021
-0.0909079
-0.169047
-0.211593
-0.188716
-0.136718
-0.0795763
-0.0354538
-0.00483118
0.031018
0.0385527
0.0304779
-0.0245067
-0.0749139
-0.104673
-0.120018
-0.0586452
0.00325943
-0.222352
-0.228764
-0.219509
-0.203449
-0.18646
-0.169828
-0.152905
-0.134824
-0.115437
-0.0952755
-0.075042
-0.0553201
-0.036541
-0.0187967
-0.00207673
0.0130726
0.0258943
0.0361531
0.0430166
0.0486551
0.0468456
0.0408243
0.0323164
0.0207939
0.00670694
-0.0094862
-0.0300292
-0.05956
-0.0931331
-0.117442
-0.104745
-0.0797141
-0.0517968
-0.0272732
-0.00815008
0.00735747
0.0165302
0.0189907
0.0188897
0.0261847
0.031489
0.0234589
-0.0092995
-0.0747754
-0.155225
-0.203971
-0.184408
-0.131237
-0.0740385
-0.0304733
-0.00141126
0.0344166
0.0429302
0.0350712
-0.020784
-0.0735094
-0.103646
-0.121272
-0.0605895
0.0032857
-0.194371
-0.203918
-0.196806
-0.181065
-0.164262
-0.148657
-0.133646
-0.117907
-0.100871
-0.0828491
-0.0645109
-0.0464885
-0.0292088
-0.0127372
0.00279858
0.0168584
0.0289686
0.0391586
0.0468412
0.0517661
0.0506799
0.0453899
0.0385271
0.0296024
0.0180592
0.00505462
-0.0123853
-0.0405704
-0.0732447
-0.0912461
-0.0826713
-0.061573
-0.0385256
-0.0177386
-0.00145001
0.0118492
0.0202257
0.0227557
0.022307
0.0290114
0.0345625
0.0290087
3.88964e-05
-0.0619478
-0.14203
-0.193461
-0.174627
-0.123159
-0.0676102
-0.0252898
0.00164768
0.0369394
0.0449063
0.0379418
-0.0178731
-0.0722763
-0.101863
-0.120875
-0.0619211
0.00309064
-0.170509
-0.18037
-0.175527
-0.161888
-0.146589
-0.132296
-0.118769
-0.104767
-0.0895583
-0.0732566
-0.0564495
-0.0397423
-0.023599
-0.00816618
0.00647396
0.019908
0.0315426
0.0414386
0.0499455
0.0542254
0.053413
0.0488105
0.0434201
0.0367636
0.0274394
0.016655
0.00153171
-0.0235432
-0.0526325
-0.0681483
-0.0620377
-0.0454314
-0.0268976
-0.00948008
0.00440255
0.0158373
0.0234559
0.025868
0.0250169
0.0310303
0.0370794
0.0320859
0.00538307
-0.0530853
-0.128344
-0.178108
-0.16159
-0.113398
-0.0607294
-0.0202183
0.00437367
0.0387217
0.0462466
0.0395202
-0.0159813
-0.0710506
-0.0990295
-0.118994
-0.062665
0.00267019
-0.149878
-0.158647
-0.155371
-0.143826
-0.130042
-0.116831
-0.104366
-0.0917127
-0.0781343
-0.0635553
-0.0483987
-0.033208
-0.0184189
-0.00419747
0.00932824
0.0218244
0.0328241
0.0422773
0.0500687
0.0548119
0.054894
0.0514897
0.0478467
0.0441353
0.0385347
0.0303155
0.0162904
-0.0075829
-0.033937
-0.0466737
-0.0422302
-0.0297597
-0.0156212
-0.0015849
0.009917
0.0193582
0.0259639
0.0281544
0.0269926
0.0321284
0.0386235
0.0341418
0.00924076
-0.0442283
-0.11148
-0.158635
-0.145148
-0.101529
-0.0530695
-0.0150845
0.00701657
0.0396421
0.0467616
0.0401825
-0.0144002
-0.0692034
-0.0950985
-0.115526
-0.0625543
0.00205082
-0.130441
-0.138546
-0.136405
-0.126714
-0.114518
-0.102557
-0.0912884
-0.0800437
-0.0680951
-0.0552206
-0.0416789
-0.0279227
-0.0143911
-0.00130925
0.0111682
0.0227691
0.0331155
0.042073
0.0494862
0.0543474
0.0554181
0.0535455
0.0517348
0.0507875
0.0489332
0.0429483
0.0290476
0.00611727
-0.0160838
-0.0262343
-0.0240237
-0.0157923
-0.00567213
0.00529521
0.0147331
0.0225053
0.0280147
0.0298529
0.028308
0.0324869
0.0390866
0.0351038
0.0129662
-0.0333909
-0.0918237
-0.135582
-0.12556
-0.087815
-0.0449797
-0.0102344
0.00943768
0.0395989
0.0464224
0.0400683
-0.0125599
-0.0665105
-0.0900568
-0.110288
-0.0614207
0.00125179
-0.112682
-0.120332
-0.118978
-0.110848
-0.100213
-0.0895785
-0.0795036
-0.0695111
-0.0589536
-0.0475557
-0.0354736
-0.0230927
-0.0108283
0.00107966
0.012477
0.0231351
0.0327533
0.0411502
0.0481669
0.0531118
0.0551174
0.0547549
0.0544541
0.0550986
0.0549751
0.0502828
0.0378907
0.0185257
0.000735355
-0.00826862
-0.00840368
-0.00360792
0.00324252
0.0115086
0.0190127
0.0252844
0.0296215
0.0310814
0.0290951
0.0323565
0.0384094
0.0351539
0.0168652
-0.0217654
-0.0709961
-0.110147
-0.103651
-0.0726188
-0.0365814
-0.00574138
0.0116351
0.0384801
0.0452712
0.0391645
-0.0104288
-0.0629319
-0.0839269
-0.103131
-0.0590635
0.00033707
-0.0971337
-0.103909
-0.103048
-0.096241
-0.0870458
-0.0776859
-0.0687473
-0.0599027
-0.0506076
-0.0405815
-0.0299077
-0.0188867
-0.00787417
0.00288553
0.0132275
0.022952
0.0318259
0.0396664
0.0463061
0.0512632
0.0539888
0.0548253
0.0555204
0.0566929
0.0569574
0.0534562
0.043914
0.0289863
0.0147398
0.00633501
0.00440745
0.00657076
0.0108322
0.0168088
0.0226193
0.0276821
0.0309374
0.0320711
0.0296447
0.0320852
0.0370288
0.034322
0.0199131
-0.01095
-0.0503166
-0.0836757
-0.0805014
-0.0565671
-0.028137
-0.00173583
0.0135238
0.0362565
0.0392674
0.0373624
-0.00816867
-0.05836
-0.0767808
-0.0942463
-0.055329
-0.000609527
-0.0829033
-0.0889082
-0.0884808
-0.0828323
-0.0749419
-0.0667791
-0.0589273
-0.0511647
-0.0430373
-0.0342756
-0.0249063
-0.0151603
-0.00534431
0.00430224
0.0136165
0.0224281
0.0305567
0.037823
0.0440616
0.0489425
0.0521421
0.053843
0.0551854
0.0565282
0.0569461
0.054447
0.0473832
0.0362346
0.0249484
0.0172785
0.0143484
0.0147644
0.0171781
0.0213342
0.0256628
0.0296793
0.0320303
0.0328742
0.0302688
0.0319888
0.0353984
0.0327121
0.0217948
-0.00134715
-0.0307629
-0.0577466
-0.0566448
-0.0405491
-0.0198608
0.00185229
0.0150668
0.0334086
0.0366379
0.0349261
-0.00573571
-0.052584
-0.0687
-0.0837233
-0.0501301
-0.00146886
-0.0698085
-0.0753222
-0.0752703
-0.0706154
-0.0638855
-0.0568196
-0.0499797
-0.0432189
-0.036158
-0.0285447
-0.0203723
-0.0118201
-0.00314586
0.00543296
0.0137613
0.0216927
0.0290802
0.0357593
0.0415811
0.0463148
0.049777
0.052042
0.0537886
0.0551841
0.0556533
0.0537912
0.0485623
0.0403994
0.0317009
0.0250777
0.0218307
0.021194
0.0223109
0.0250695
0.02815
0.0312425
0.032954
0.0334714
0.0310632
0.0322605
0.0341168
0.0309791
0.023086
0.00708077
-0.0132912
-0.0340264
-0.0357388
-0.025646
-0.011975
0.00515223
0.0162425
0.0304838
0.0335771
0.0321686
-0.00284724
-0.0453642
-0.0597893
-0.0719155
-0.0435169
-0.00211198
-0.0581999
-0.0631407
-0.0633283
-0.0595152
-0.0538097
-0.0477319
-0.0418164
-0.0359724
-0.0298817
-0.0233131
-0.016239
-0.00879404
-0.00119014
0.00638029
0.013772
0.0208602
0.0275196
0.0336121
0.0390012
0.0435221
0.0470635
0.0496256
0.0515784
0.0529607
0.0534347
0.0520626
0.0482527
0.0423628
0.0358281
0.0303594
0.0272337
0.02606
0.0263221
0.0280782
0.0301616
0.0324196
0.033704
0.0339002
0.0319894
0.0327971
0.0336541
0.0299288
0.0243393
0.0140956
0.00121036
-0.0139606
-0.0178026
-0.012736
-0.00466284
0.00829732
0.0171297
0.0283647
0.0307361
0.0297253
0.00098683
-0.036482
-0.0501635
-0.0594103
-0.0357331
-0.00241755
-0.0478096
-0.0521484
-0.0525211
-0.0494392
-0.0446385
-0.0394467
-0.0343686
-0.0293564
-0.0241445
-0.0185224
-0.012446
-0.00601342
0.000600203
0.00722776
0.0137358
0.0200219
0.0259793
0.0314887
0.0364319
0.0406798
0.0441572
0.0468187
0.0488474
0.0502112
0.0507198
0.0497832
0.0470782
0.0428829
0.0380731
0.0337343
0.0309698
0.0296211
0.0293501
0.0304029
0.0317307
0.0332746
0.0342482
0.034234
0.0329063
0.0334328
0.0339396
0.0301052
0.0261827
0.0198486
0.0122155
0.00125168
-0.00388872
-0.00227003
0.00193168
0.0112664
0.0178863
0.0276817
0.0289129
0.028405
0.00628416
-0.0259204
-0.0399968
-0.0470377
-0.0273192
-0.00231439
-0.0383593
-0.0422535
-0.0427892
-0.0403251
-0.0363123
-0.031908
-0.0275806
-0.0233151
-0.0188915
-0.014117
-0.00893645
-0.00342016
0.00228521
0.00803933
0.0137233
0.0192526
0.0245346
0.0294729
0.0339657
0.0379002
0.0412162
0.0438489
0.0458742
0.0472305
0.0478079
0.0472588
0.0454204
0.042489
0.0390304
0.035708
0.0333939
0.0320899
0.0315338
0.0320977
0.0329017
0.0338711
0.0345859
0.0345318
0.0336716
0.0340111
0.0346307
0.0321222
0.029165
0.0250261
0.0199997
0.0116003
0.00599844
0.00601397
0.0076743
0.0139949
0.0188804
0.0282136
0.0286092
0.0287983
0.0131237
-0.0142527
-0.0296248
-0.0356695
-0.0191159
-0.00183015
-0.0299452
-0.033424
-0.0340503
-0.0320955
-0.0287656
-0.0250568
-0.0213977
-0.0177958
-0.01407
-0.0100456
-0.00566364
-0.000972357
0.00390872
0.008864
0.0137867
0.0186067
0.0232463
0.0276301
0.0316738
0.0352751
0.0383723
0.0408973
0.0428701
0.0442237
0.0448931
0.0446811
0.0435227
0.0415385
0.0391273
0.0366706
0.0348173
0.0336736
0.0330191
0.0332454
0.0337067
0.0342544
0.0347561
0.0347698
0.034206
0.03445
0.0352578
0.0342158
0.0323918
0.0293003
0.0252247
0.0183423
0.0126676
0.00902386
0.0123068
0.0164256
0.0202726
0.0292098
0.0294182
0.0302212
0.0202772
-0.00299345
-0.0196777
-0.0258516
-0.0120558
-0.00111944
-0.022478
-0.0255231
-0.0261962
-0.0246736
-0.0219376
-0.0188393
-0.0157678
-0.0127482
-0.00963393
-0.00626999
-0.00259584
0.00136027
0.00550178
0.00973384
0.0139629
0.0181281
0.0221589
0.0259979
0.0296121
0.0328753
0.0357241
0.0380982
0.0399882
0.0413345
0.0420999
0.0421709
0.0415402
0.0402747
0.0386627
0.0369193
0.0354961
0.0345557
0.0339272
0.0339364
0.0341809
0.0344604
0.03479
0.0348896
0.0345124
0.0347297
0.035589
0.0354764
0.0345132
0.0319023
0.0283195
0.0226726
0.0175322
0.0142203
0.0161098
0.0186017
0.0218551
0.0296941
0.0302764
0.0310583
0.0254357
0.00575005
-0.0110439
-0.0177578
-0.00679911
-0.000419117
-0.0157659
-0.0184493
-0.0191619
-0.0180016
-0.0157718
-0.0132012
-0.0106424
-0.00813206
-0.00555168
-0.00276435
0.000290549
0.00359953
0.00708564
0.0106714
0.014276
0.0178454
0.0213059
0.0245546
0.0278313
0.0307636
0.0333475
0.0355425
0.0373288
0.0386566
0.0395047
0.0398031
0.0395734
0.0388528
0.037853
0.0366672
0.0356281
0.0348963
0.0343658
0.0342588
0.0343687
0.0345049
0.0346924
0.0348522
0.0345952
0.0347981
0.0355538
0.0357327
0.0352029
0.0329457
0.0298341
0.0253475
0.0210269
0.018037
0.0189483
0.020524
0.0231928
0.0293312
0.0303437
0.0304892
0.0272274
0.0109602
-0.00441846
-0.0112364
-0.00337021
9.17581e-05
-0.0097858
-0.0121575
-0.0128818
-0.0120127
-0.0102106
-0.00809589
-0.00598285
-0.00391397
-0.00179416
0.000495657
0.00301381
0.00575786
0.00866852
0.0116837
0.0147376
0.0177947
0.0208185
0.0238117
0.0264719
0.0289983
0.031291
0.0332874
0.0349531
0.0362451
0.0371503
0.0376199
0.0376855
0.0373712
0.036851
0.036075
0.0353673
0.0348343
0.0344301
0.0342861
0.0343149
0.0343899
0.0344661
0.0346408
0.0344664
0.034627
0.0352109
0.0353655
0.0349827
0.0330423
0.0303732
0.026875
0.0234163
0.0207761
0.0209452
0.0220873
0.024049
0.0283627
0.0295539
0.0294303
0.0267438
0.0132749
0.000233487
-0.00605824
-0.00136905
0.000377261
-0.00449736
-0.00656809
-0.00727704
-0.00664426
-0.00520462
-0.00348075
-0.00175051
-6.05651e-05
0.00166429
0.00352691
0.0055829
0.00783718
0.0102445
0.0127556
0.0153162
0.0178951
0.0204537
0.0229609
0.0253129
0.0275259
0.0295533
0.0313509
0.0328877
0.034126
0.0350565
0.0356439
0.0359158
0.0358735
0.0355933
0.0352389
0.0348294
0.0344816
0.0342055
0.0340781
0.0340626
0.0341158
0.0341182
0.034265
0.0341509
0.0342398
0.0345551
0.0346343
0.0342699
0.0326351
0.0303711
0.0276349
0.0249251
0.0226636
0.022301
0.0231717
0.0244793
0.0271742
0.0282521
0.0281417
0.0253632
0.0141496
0.00339587
-0.00211561
-0.000166768
0.000518207
0.000203174
-0.00159716
-0.0022818
-0.00184162
-0.000706768
0.000684199
0.00208716
0.0034534
0.00484169
0.00634065
0.00800196
0.00983493
0.0118062
0.0138761
0.0159999
0.01815
0.0202943
0.0224064
0.0244322
0.0263528
0.0281319
0.0297349
0.0311364
0.0323044
0.0332313
0.0338905
0.034303
0.0344674
0.0344441
0.0343131
0.0341209
0.0339301
0.0337677
0.0336837
0.0336509
0.0336945
0.0336594
0.0337535
0.0336766
0.033691
0.0338117
0.0337406
0.0333326
0.0319702
0.0300771
0.027896
0.0257569
0.0238747
0.0231615
0.0237465
0.024528
0.0259731
0.0267015
0.0265197
0.0236481
0.0144035
0.0055428
0.00075254
0.000834497
0.000622667
0.00437563
0.00280968
0.00215707
0.00244417
0.00332475
0.00443348
0.00555849
0.00665102
0.00775594
0.00894798
0.0102747
0.0117484
0.0133448
0.0150319
0.0167738
0.0185485
0.0203311
0.0221005
0.0238203
0.0254678
0.027013
0.0284267
0.0296883
0.0307719
0.0316699
0.0323614
0.032859
0.0331623
0.0333115
0.0333467
0.0333138
0.0332494
0.0331803
0.0331462
0.0331161
0.0331497
0.0331015
0.0331395
0.0330729
0.0330081
0.0329857
0.0327899
0.0323268
0.0311835
0.0296157
0.0278352
0.0260972
0.0245504
0.0236303
0.0238956
0.0242746
0.024842
0.0250812
0.0246891
0.0218727
0.0143455
0.006981
0.00277994
0.00167329
0.00072504
0.00805582
0.00670809
0.00609762
0.00626441
0.00693347
0.00780457
0.0086952
0.0095572
0.0104238
0.0113579
0.0124027
0.0135722
0.0148489
0.0162073
0.0176191
0.0190659
0.0205331
0.0220029
0.0234475
0.0248452
0.026172
0.0274035
0.0285233
0.0295105
0.0303572
0.0310476
0.0315862
0.0319717
0.0322293
0.0323802
0.0324602
0.0324921
0.0324957
0.032505
0.0324887
0.0325117
0.0324616
0.0324518
0.032375
0.0322529
0.0321155
0.0318304
0.0313286
0.0303503
0.0290479
0.0275674
0.0261016
0.0248177
0.0238516
0.0237485
0.0238074
0.0237858
0.0234973
0.0228332
0.0201909
0.0140922
0.00790995
0.0041768
0.00237911
0.000836604
0.0112864
0.0101261
0.00957045
0.00965308
0.0101527
0.0108271
0.0115211
0.0121904
0.0128594
0.0135797
0.0143886
0.0153024
0.0163091
0.0173876
0.0185125
0.019661
0.0208719
0.0220835
0.0232832
0.0244541
0.0255781
0.026636
0.0276141
0.0284964
0.0292741
0.0299354
0.0304796
0.0309041
0.0312224
0.0314459
0.0315997
0.0316989
0.0317552
0.0317965
0.0317977
0.0318106
0.0317599
0.0317123
0.0316079
0.0314479
0.0312317
0.0308883
0.0303674
0.0295113
0.02841
0.0271624
0.0258854
0.0247807
0.0238258
0.023403
0.0231924
0.0227891
0.0220624
0.0210965
0.018669
0.0137127
0.00847646
0.00510089
0.00294657
0.000960926
0.0141339
0.0131381
0.0126231
0.0126334
0.0130003
0.0135168
0.0140518
0.0145653
0.015076
0.0156268
0.016233
0.0169327
0.0177162
0.0185692
0.0194738
0.0204239
0.0213609
0.0223242
0.0232968
0.0242595
0.0251962
0.02609
0.0269296
0.0277022
0.0283989
0.0290101
0.0295318
0.0299608
0.0303038
0.0305658
0.0307615
0.0309014
0.0309918
0.0310532
0.0310682
0.0310715
0.0310185
0.030943
0.0308121
0.0306191
0.030353
0.0299755
0.0294491
0.0286861
0.0277285
0.0266604
0.0255257
0.0245227
0.0235983
0.0229337
0.0224768
0.0218225
0.0207853
0.0195545
0.017322
0.0132582
0.00878324
0.00567941
0.00336624
0.00108091
0.0166349
0.0157843
0.0153141
0.0152694
0.0155174
0.0158939
0.0162884
0.0166634
0.0170313
0.0174273
0.0178982
0.0184366
0.0190414
0.0197
0.0204002
0.0211316
0.0218844
0.0226554
0.0234374
0.0242188
0.0249875
0.0257303
0.0264371
0.027099
0.0277072
0.0282539
0.028733
0.029141
0.0294806
0.0297533
0.0299659
0.030124
0.0302317
0.0303012
0.0303229
0.0303162
0.0302573
0.03016
0.0300056
0.0297882
0.0294909
0.0290964
0.0285722
0.0278806
0.0270265
0.0260864
0.0250658
0.0241142
0.0232126
0.0223922
0.0217115
0.020882
0.0196608
0.0182258
0.0161413
0.0127629
0.008902
0.00600896
0.00364272
0.00117853
0.0188203
0.0180956
0.0176701
0.0175868
0.0177434
0.0180089
0.0182923
0.0185609
0.0188233
0.0191081
0.0194407
0.0198324
0.0202811
0.0207773
0.02131
0.021871
0.0224552
0.0230588
0.023676
0.0242985
0.024917
0.0255221
0.0261046
0.0266581
0.0271746
0.0276484
0.0280722
0.0284431
0.028757
0.0290174
0.029226
0.0293844
0.0294947
0.0295616
0.0295817
0.0295633
0.0294942
0.0293796
0.0292054
0.0289705
0.0286531
0.028252
0.0277352
0.0270949
0.0263179
0.0254635
0.0245319
0.0236072
0.022709
0.0218007
0.0209414
0.0199769
0.0186644
0.0170964
0.0151119
0.0122493
0.00888595
0.00615968
0.00379248
0.00124534
0.0207214
0.0201086
0.0197273
0.0196174
0.0197016
0.0198765
0.0200682
0.0202483
0.0204221
0.0206117
0.020838
0.0211121
0.0214335
0.0217955
0.0221891
0.0226082
0.023049
0.0235091
0.0239842
0.0244683
0.0249538
0.0254343
0.0259021
0.0263521
0.0267773
0.0271733
0.027533
0.0278526
0.0281291
0.0283623
0.0285511
0.0286949
0.0287948
0.0288506
0.0288611
0.0288281
0.0287454
0.0286155
0.0284246
0.028176
0.0278464
0.0274425
0.0269357
0.0263298
0.0256105
0.0248129
0.0239436
0.0230393
0.0221298
0.0211744
0.0201918
0.0191178
0.0177685
0.0161377
0.0142192
0.0117348
0.00877277
0.00618301
0.00384059
0.00128069
0.0223725
0.0218553
0.0215143
0.0213859
0.0214129
0.0215146
0.0216316
0.0217394
0.0218411
0.021954
0.0220952
0.0222746
0.0224926
0.0227443
0.0230229
0.0233238
0.0236442
0.0239828
0.0243363
0.0247008
0.0250699
0.0254388
0.0258017
0.0261551
0.0264929
0.0268108
0.0271029
0.0273656
0.0275973
0.0277902
0.0279446
0.0280632
0.0281434
0.0281807
0.0281739
0.0281236
0.0280245
0.0278794
0.0276735
0.0274123
0.0270751
0.0266687
0.0261722
0.0255891
0.0249099
0.0241519
0.0233219
0.022437
0.0215125
0.0205282
0.019473
0.0183148
0.0169536