/*--------------------------------*- C++ -*----------------------------------*\
| =========                 |                                                 |
| \\      /  F ield         | OpenFOAM: The Open Source CFD Toolbox           |
|  \\    /   O peration     | Version:  2512                                  |
|   \\  /    A nd           | Website:  www.openfoam.com                      |
|    \\/     M anipulation  |                                                 |
\*---------------------------------------------------------------------------*/
FoamFile
{
    version     2.0;
    format      ascii;
    arch        "LSB;label=32;scalar=64";
    class       surfaceScalarField;
    location    "48";
    object      phi;
}
// * * * * * * * * * * * * * * * * * * * * * * * * * * * * * * * * * * * * * //

dimensions      [0 3 -1 0 0 0 0];

oriented        oriented;

internalField   nonuniform List<scalar> 
18180
(
-6.79222e-05
0.00170393
-0.00163601
-5.42633e-05
0.00237217
-0.00238583
0.00069506
0.00102571
-0.00177503
0.00295609
-0.00234012
7.90952e-05
0.00751458
-0.00798474
0.00342624
0.0149943
-0.0161308
0.0086511
0.0257306
-0.0266372
0.0159008
0.0395692
-0.0388863
0.0250478
0.0558508
-0.0519113
0.0356298
0.0735674
-0.064661
0.0469444
0.0915934
-0.076246
0.05822
0.108913
-0.0860898
0.0687703
0.124783
-0.0939774
0.0781077
0.138729
-0.0999737
0.0860273
0.150795
-0.104424
0.0923584
0.16102
-0.107793
0.0975673
0.169957
-0.110375
0.101439
0.178231
-0.113083
0.10481
0.185904
-0.11547
0.107797
-0.118637
0.110341
0.194199
0.000200646
0.00150329
0.00103815
0.00153467
0.00321027
-0.00114641
0.0075954
-0.00672525
0.0150276
-0.0154169
0.0259592
-0.0270624
0.040149
-0.0408269
0.0566374
-0.0553747
0.0740289
-0.0693029
0.0908886
-0.0815207
0.106078
-0.0914349
0.118951
-0.0989631
0.12938
-0.104407
0.137741
-0.108334
0.144668
-0.111351
0.150899
-0.114024
0.157274
-0.116749
0.16408
-0.11989
0.171732
-0.123122
-0.127375
0.18047
0.000346514
0.00115677
0.00190947
-2.82862e-05
0.00560032
-0.00483726
0.0123812
-0.0135062
0.0229024
-0.0259381
0.0369069
-0.041067
0.0531436
-0.0570636
0.0698302
-0.0720613
0.0852777
-0.0847504
0.0983485
-0.0945915
0.108647
-0.101734
0.116454
-0.10677
0.12252
-0.110474
0.127737
-0.11355
0.132882
-0.116497
0.138476
-0.119618
0.14467
-0.122944
0.15137
-0.12659
0.158515
-0.130267
-0.134514
0.165655
0.000494563
0.000662208
0.00293055
-0.00246427
0.00839711
-0.0103038
0.0178161
-0.0229252
0.0310683
-0.0391903
0.0466902
-0.0566889
0.0625263
-0.0728997
0.0766662
-0.0862012
0.0880375
-0.0961217
0.0965287
-0.103083
0.102752
-0.107957
0.107644
-0.111661
0.112065
-0.114895
0.116568
-0.118053
0.121384
-0.121312
0.126456
-0.124691
0.131731
-0.128218
0.13709
-0.13195
0.142617
-0.135793
-0.140194
0.148296
0.000771355
-0.000109148
0.00431097
-0.00600388
0.0118413
-0.0178342
0.0236568
-0.0347406
0.0382999
-0.0538334
0.0532642
-0.0716533
0.0663724
-0.0860078
0.0765623
-0.0963911
0.0839117
-0.103471
0.0892001
-0.108371
0.0933668
-0.112123
0.0971253
-0.11542
0.100843
-0.118613
0.104645
-0.121855
0.108533
-0.1252
0.112552
-0.12871
0.11677
-0.132436
0.121222
-0.136402
0.126018
-0.14059
-0.145183
0.131007
0.00119543
-0.00130457
0.0060931
-0.0109016
0.0156312
-0.0273722
0.028813
-0.0479224
0.0428963
-0.0679167
0.0553027
-0.0840596
0.0648028
-0.095508
0.0714952
-0.103084
0.076188
-0.108164
0.0797684
-0.111951
0.0828605
-0.115215
0.085791
-0.11835
0.0887153
-0.121537
0.0917181
-0.124857
0.0948784
-0.128361
0.0982361
-0.132068
0.101783
-0.135982
0.105473
-0.140092
0.109282
-0.144399
-0.148931
0.11303
0.00173982
-0.00304439
0.00807538
-0.0172371
0.0190274
-0.0383242
0.0320458
-0.0609409
0.0440053
-0.0798761
0.0532215
-0.0932758
0.059601
-0.101887
0.0638914
-0.107374
0.066958
-0.111231
0.0694313
-0.114425
0.0716746
-0.117459
0.0738801
-0.120556
0.0761419
-0.123799
0.0785024
-0.127218
0.0809584
-0.130817
0.0834942
-0.134604
0.0861013
-0.138589
0.0887882
-0.142779
0.0915722
-0.147183
-0.151785
0.0944259
0.00234562
-0.00539001
0.00991888
-0.0248104
0.0212515
-0.0496569
0.0327841
-0.0724734
0.0420156
-0.0891076
0.0483726
-0.0996329
0.0524431
-0.105958
0.0551002
-0.110031
0.0570397
-0.11317
0.0586812
-0.116066
0.060234
-0.119012
0.0617811
-0.122103
0.0633489
-0.125367
0.0649437
-0.128813
0.0665815
-0.132455
0.0682848
-0.136307
0.0700668
-0.140371
0.0719258
-0.144638
0.0738402
-0.149097
-0.153701
0.0757565
0.0029385
-0.00832851
0.0112537
-0.0331255
0.0218898
-0.060293
0.0312567
-0.0818404
0.0378694
-0.0957203
0.0419492
-0.103713
0.0443431
-0.108352
0.0458365
-0.111524
0.0469259
-0.114259
0.0478531
-0.116994
0.0487128
-0.119871
0.0495425
-0.122933
0.0503647
-0.126189
0.0512006
-0.129649
0.0520642
-0.133318
0.052957
-0.1372
0.0538742
-0.141288
0.0548087
-0.145572
0.055742
-0.15003
-0.154637
0.0566778
0.00344003
-0.0117685
0.011834
-0.0415195
0.0210208
-0.0694797
0.0280838
-0.0889035
0.0324488
-0.100085
0.0347743
-0.106038
0.0359224
-0.1095
0.0365048
-0.112107
0.0368375
-0.114592
0.0370512
-0.117207
0.0371976
-0.120018
0.0373009
-0.123036
0.0373745
-0.126263
0.0374249
-0.129699
0.0374577
-0.133351
0.037482
-0.137224
0.0375064
-0.141313
0.0375339
-0.1456
0.0375618
-0.150058
0.0376055
-0.154681
2.03273e-05
-0.0109114
0.0108911
-0.000960488
-0.0235604
0.0245412
-0.0031167
-0.0299224
0.0320786
-0.00613116
-0.0328233
0.0358377
-0.00965176
-0.034524
0.0380446
-0.0133916
-0.0361476
0.0398874
-0.0171185
-0.0378545
0.0415815
-0.0206025
-0.0393418
0.0428259
-0.0235892
-0.0401933
0.04318
-0.0258109
-0.0400039
0.0422257
-0.0270193
-0.0384105
0.0396189
-0.0270145
-0.0351165
0.0351117
-0.0257144
-0.0299072
0.0286071
-0.0230791
-0.022639
0.0200038
-0.0191851
-0.0132417
0.00934761
-0.0144111
-0.00161554
-0.00315841
-0.00808652
0.0112491
-0.0175737
-0.000335307
0.0260674
-0.0338186
0.00926764
0.0425118
-0.0521148
0.0595909
0.0208169
-0.0711401
-0.000726864
-0.0101845
-0.00292831
-0.021359
-0.00632328
-0.0265275
-0.0105733
-0.0285733
-0.0154281
-0.0296692
-0.0207253
-0.0308504
-0.0263201
-0.0322598
-0.0320292
-0.0336327
-0.0376108
-0.0346118
-0.0427717
-0.034843
-0.0471922
-0.0339901
-0.0505617
-0.031747
-0.0526138
-0.0278552
-0.0531352
-0.0221175
-0.0519798
-0.0143971
-0.0490534
-0.00454198
-0.0443603
0.00655606
-0.0375672
0.0192742
-0.0283903
0.033335
0.0483395
-0.0171389
-0.00131047
-0.00887407
-0.00436633
-0.0183031
-0.00855096
-0.0223428
-0.0134948
-0.0236295
-0.0190352
-0.0241287
-0.0251042
-0.0247815
-0.0316264
-0.0257375
-0.0384687
-0.0267904
-0.0454282
-0.0276522
-0.052237
-0.0280343
-0.0585738
-0.0276533
-0.0640833
-0.0262375
-0.0683966
-0.0235418
-0.0711491
-0.019365
-0.0719869
-0.0135593
-0.0705166
-0.00601224
-0.0667587
0.00279814
-0.0603022
0.0128177
-0.0511137
0.0241465
0.0359295
-0.0387037
-0.00169942
-0.00717466
-0.00526066
-0.0147419
-0.00982455
-0.0177789
-0.0149764
-0.0184776
-0.0205822
-0.0185229
-0.0266116
-0.0187521
-0.0330167
-0.0193324
-0.0396864
-0.0201207
-0.0464425
-0.0208962
-0.0530441
-0.0214326
-0.0591936
-0.0215038
-0.0645455
-0.0208856
-0.0687167
-0.0193707
-0.0712784
-0.0168033
-0.0717943
-0.0130435
-0.0697746
-0.00803186
-0.0650884
-0.00188814
-0.0569669
0.00469626
-0.0462434
0.013423
0.0200209
-0.0303348
-0.00191144
-0.00526322
-0.00570402
-0.0109493
-0.0103583
-0.0131247
-0.0154044
-0.0134315
-0.0206893
-0.013238
-0.0261683
-0.0132731
-0.0317734
-0.0137274
-0.0373675
-0.0145265
-0.0427473
-0.0155164
-0.0476551
-0.0165248
-0.0517894
-0.0173696
-0.0548133
-0.0178616
-0.0563652
-0.0178188
-0.0560725
-0.017096
-0.053499
-0.015617
-0.0482215
-0.0133093
-0.040266
-0.00984367
-0.0281366
-0.00743315
-0.013274
-0.00143965
-0.000641406
0.00738836
-0.00196424
-0.00329898
-0.00575754
-0.00715599
-0.0102811
-0.00860112
-0.0150146
-0.00869794
-0.0197603
-0.00849239
-0.0244275
-0.00860585
-0.0288976
-0.00925729
-0.0329768
-0.0104473
-0.0364024
-0.0120908
-0.0388648
-0.0140624
-0.0400303
-0.016204
-0.0395618
-0.0183301
-0.0371293
-0.0202513
-0.0323896
-0.0218357
-0.0250708
-0.0229358
-0.0147042
-0.0236759
-0.00135635
-0.0231916
0.015868
-0.0246575
0.0355284
-0.0211
-0.0268429
0.0617299
-0.00184515
-0.00145383
-0.0053844
-0.00361674
-0.00951593
-0.00446959
-0.0136718
-0.0045421
-0.0175808
-0.00458338
-0.0210659
-0.00512072
-0.0239147
-0.00640852
-0.0258401
-0.0085219
-0.026499
-0.0114319
-0.0255334
-0.015028
-0.022607
-0.0191305
-0.0174159
-0.0235211
-0.00976218
-0.0279051
0.000533818
-0.0321317
0.0135862
-0.0359881
0.029528
-0.0396177
0.0482722
-0.0419357
0.0705522
-0.0469376
0.0952866
-0.0458345
-0.0553491
0.123793
-0.0015256
7.17695e-05
-0.00448866
-0.000653681
-0.00784549
-0.00111277
-0.0109707
-0.00141687
-0.0134811
-0.00207296
-0.015064
-0.00353784
-0.0153736
-0.00609893
-0.0140217
-0.00987384
-0.0106218
-0.0148317
-0.00484896
-0.0208009
0.00351035
-0.0274898
0.0145097
-0.0345204
0.0281185
-0.0415139
0.0442456
-0.0482588
0.0627137
-0.0544563
0.0832264
-0.0601304
0.106203
-0.064912
0.129871
-0.0706063
0.157001
-0.0729642
-0.08149
0.183142
-0.00105756
0.00112933
-0.00310923
0.00139799
-0.00527208
0.00105008
-0.00685073
0.000161775
-0.0073565
-0.00156719
-0.00631915
-0.00457519
-0.00327339
-0.00914469
0.00219571
-0.0153429
0.0103753
-0.0230113
0.0213562
-0.0317818
0.0350102
-0.0411438
0.0510453
-0.0505555
0.0690195
-0.0594881
0.0884948
-0.0677341
0.108925
-0.0748866
0.129932
-0.0811373
0.151526
-0.086506
0.172007
-0.091087
0.194208
-0.0951653
-0.099901
0.212619
-0.000506679
-0.00149452
-0.00221947
-0.0019786
-0.000119553
0.00395636
0.0107125
0.0204173
0.0330358
0.0481984
0.0652746
0.0834894
0.102109
0.120402
0.137874
0.154304
0.169237
0.182959
0.195591
0.206031
0.0372376
0.106942
-0.123363
0.0513559
0.136068
-0.150186
0.0628562
0.156883
-0.168384
0.0680311
0.173463
-0.178638
0.0682368
0.186599
-0.186805
0.0701105
0.193822
-0.195696
0.0816036
0.185293
-0.196786
0.103324
0.151097
-0.172818
0.128
0.0910238
-0.1157
0.150587
0.00919774
-0.0317846
0.169495
-0.0822788
0.0633707
0.183415
-0.159603
0.145683
0.190645
-0.203937
0.196707
0.191086
-0.22078
0.220339
0.188826
-0.222971
0.225231
0.185773
-0.216439
0.219492
0.178514
-0.219086
0.226345
0.165723
-0.244478
0.257269
0.152455
-0.26204
0.275308
0.144037
-0.218976
0.227395
0.143772
-0.107114
0.107379
0.151587
0.0312057
-0.0390203
0.163677
0.1464
-0.158491
0.175625
0.21852
-0.230467
0.18211
0.255653
-0.262138
0.177282
0.282345
-0.277517
0.162335
0.312257
-0.29731
0.145874
0.318406
-0.301945
0.135145
0.253836
-0.243107
0.133031
0.111524
-0.10941
0.142395
-0.0602303
0.0508663
0.159952
-0.172237
0.154679
0.169398
-0.205577
0.196131
0.163464
-0.224467
0.230402
0.153732
-0.28212
0.291851
0.152938
-0.306341
0.307135
0.161636
-0.233152
0.224454
0.169114
-0.0287888
0.0213109
0.170161
0.205558
-0.206605
0.166895
0.373954
-0.370689
0.162016
0.338688
-0.333808
0.156281
0.151916
-0.146181
0.15026
-0.0994623
0.105483
0.143312
-0.251345
0.258293
0.133858
-0.280747
0.290201
0.123162
-0.156505
0.167201
0.116843
0.0272398
-0.0209205
0.113525
0.194431
-0.191113
0.114021
0.294703
-0.295199
0.0630339
-0.0690771
0.00298084
0.0868223
0.0227998
0.116249
0.0394556
0.140227
0.0525003
0.160418
0.0649468
0.174152
0.0821886
0.176581
0.107264
0.160218
0.13523
0.123131
0.159227
0.0670273
0.177712
-0.00928767
0.19056
-0.0951266
0.197186
-0.166229
0.197598
-0.204349
0.192306
-0.215488
0.185178
-0.215842
0.178689
-0.209951
0.168574
-0.208971
0.15232
-0.228224
0.136082
-0.245803
0.127772
-0.210666
0.12978
-0.109122
0.142205
0.0187807
0.159636
0.128969
0.176735
0.201421
0.187156
0.245232
0.185363
0.284138
0.173308
0.324312
0.159123
0.33259
0.148649
0.26431
0.142687
0.117486
0.145475
-0.0630179
0.159878
-0.18664
0.170869
-0.216568
0.166277
-0.219876
0.156039
-0.271881
0.15427
-0.304572
0.162693
-0.241575
0.171284
-0.0373798
0.174258
0.202584
0.171999
0.376213
0.166442
0.344245
0.158843
0.159514
0.150873
-0.0914922
0.143202
-0.243673
0.134873
-0.272418
0.125558
-0.14719
0.119933
0.0328653
0.115386
0.198977
0.113565
0.296524
0.0582909
-0.0172026
0.0653213
0.00563557
0.0934111
0.0285491
0.117314
0.0511421
0.137825
0.0751384
0.150156
0.103629
0.14809
0.13588
0.127966
0.165114
0.0938976
0.186502
0.0456391
0.200652
-0.0234376
0.208298
-0.102773
0.208485
-0.166416
0.202625
-0.198489
0.192812
-0.205675
0.18187
-0.2049
0.172622
-0.200703
0.161063
-0.197411
0.142536
-0.209697
0.123149
-0.226415
0.113728
-0.201246
0.117685
-0.113079
0.133386
0.00308037
0.155642
0.106713
0.178174
0.178889
0.192928
0.230478
0.195069
0.281997
0.187162
0.332219
0.17559
0.344162
0.164944
0.274957
0.155419
0.12701
0.151309
-0.0589078
0.160435
-0.195765
0.171955
-0.228089
0.168683
-0.216604
0.157818
-0.261016
0.155145
-0.301899
0.163673
-0.250103
0.173648
-0.0473552
0.178663
0.19757
0.177521
0.377354
0.171514
0.350253
0.162248
0.16878
0.152308
-0.0815521
0.143796
-0.235161
0.136426
-0.265047
0.128448
-0.139212
0.123394
0.0379191
0.117724
0.204647
0.113785
0.300463
0.0547895
-0.0105523
0.0455387
0.0143689
0.06849
0.040599
0.0910837
0.0685207
0.109904
0.0980946
0.120582
0.130389
0.115796
0.162803
0.0955521
0.189365
0.0673363
0.207867
0.0271364
0.219534
-0.0351047
0.222928
-0.106167
0.216975
-0.160463
0.205252
-0.186766
0.191729
-0.192152
0.178172
-0.191343
0.166766
-0.189297
0.154955
-0.1856
0.136583
-0.191326
0.115053
-0.204885
0.103073
-0.189266
0.106924
-0.116929
0.124716
-0.0147123
0.15105
0.0803792
0.178544
0.151395
0.198592
0.210429
0.206013
0.274576
0.201845
0.336387
0.191889
0.354118
0.181162
0.285684
0.169387
0.138784
0.159317
-0.0488373
0.161846
-0.198295
0.172625
-0.238868
0.17071
-0.214689
0.159061
-0.249367
0.155254
-0.298092
0.164197
-0.259046
0.175864
-0.0590228
0.182961
0.190473
0.183077
0.377238
0.176969
0.356361
0.166393
0.179356
0.154513
-0.0696716
0.145011
-0.225659
0.138457
-0.258493
0.131769
-0.132525
0.127245
0.0424438
0.120583
0.211309
0.114744
0.306302
0.0524046
0.0256198
0.0273072
0.0477448
0.046365
0.0733396
0.0654889
0.101292
0.0819511
0.130469
0.0914046
0.160059
0.0862063
0.187063
0.0685483
0.208387
0.0460118
0.224147
0.0113768
0.23355
-0.0445075
0.232883
-0.105501
0.221875
-0.149455
0.205668
-0.170558
0.189572
-0.176056
0.174818
-0.176589
0.162136
-0.176615
0.150468
-0.173932
0.13371
-0.174567
0.111866
-0.183042
0.0970132
-0.174413
0.098964
-0.11888
0.116481
-0.0322298
0.144986
0.0518751
0.176542
0.119838
0.202428
0.184543
0.216224
0.260781
0.217735
0.334876
0.210446
0.361407
0.198427
0.297703
0.18386
0.153351
0.168746
-0.0337229
0.16415
-0.193699
0.172748
-0.247465
0.172246
-0.214187
0.159804
-0.236925
0.154344
-0.292632
0.163762
-0.268464
0.177459
-0.0727193
0.18698
0.180951
0.188695
0.375524
0.182782
0.362273
0.171183
0.190955
0.157418
-0.0559067
0.146756
-0.214998
0.140877
-0.252614
0.135452
-0.127099
0.131471
0.0464242
0.124
0.21878
0.116494
0.313808
0.0510701
0.0742059
0.0148313
0.0902698
0.0303011
0.111166
0.0445931
0.135645
0.0574718
0.161435
0.0656143
0.185994
0.0616471
0.206669
0.0478736
0.223369
0.0293117
0.237198
-0.00245216
0.243453
-0.0507625
0.23801
-0.100058
0.222735
-0.13418
0.203823
-0.151646
0.186339
-0.158572
0.171204
-0.161454
0.157834
-0.163246
0.146239
-0.162337
0.132368
-0.160696
0.112724
-0.163398
0.0959785
-0.157667
0.0943708
-0.117272
0.109137
-0.0469963
0.137227
0.0237854
0.171675
0.0853901
0.20339
0.152829
0.22392
0.240251
0.230593
0.328203
0.225365
0.366635
0.212725
0.310343
0.196608
0.169468
0.178409
-0.015524
0.167123
-0.182413
0.172265
-0.252607
0.17321
-0.215132
0.160305
-0.22402
0.152515
-0.284841
0.16207
-0.278019
0.178058
-0.0887074
0.190145
0.168864
0.193715
0.371954
0.188484
0.367503
0.176388
0.203051
0.160909
-0.0404268
0.148923
-0.203012
0.14357
-0.247261
0.139415
-0.122945
0.136043
0.0497961
0.127992
0.226831
0.119063
0.322737
0.0507262
0.128035
0.0105888
0.136418
0.0219187
0.150203
0.0308075
0.168154
0.0395209
0.188452
0.0453169
0.207748
0.0423503
0.223682
0.03194
0.237188
0.0158055
0.2478
-0.0130642
0.249126
-0.0520883
0.238269
-0.0892004
0.219521
-0.115432
0.199394
-0.131519
0.181632
-0.14081
0.166855
-0.146678
0.153828
-0.150219
0.14208
-0.150589
0.130488
-0.149104
0.11518
-0.14809
0.0991416
-0.141629
0.0938103
-0.111941
0.103935
-0.0571205
0.128542
-0.000822124
0.162808
0.0511238
0.199489
0.116148
0.22857
0.211171
0.243053
0.31372
0.241695
0.367993
0.22888
0.323158
0.209934
0.188414
0.187846
0.00656389
0.170673
-0.16524
0.171249
-0.253183
0.173356
-0.217239
0.160629
-0.211292
0.149997
-0.274209
0.158858
-0.286881
0.177304
-0.107153
0.192436
0.153732
0.198307
0.366083
0.194142
0.371669
0.181857
0.215337
0.164848
-0.0234178
0.151398
-0.189562
0.146412
-0.242275
0.143571
-0.120103
0.140904
0.0524624
0.132526
0.23521
0.122453
0.33281
0.0512938
0.182817
0.0109137
0.186449
0.0182865
0.193635
0.0236217
0.204314
0.0288417
0.217565
0.0320662
0.230371
0.0295444
0.240936
0.0213746
0.24975
0.00699223
0.253746
-0.0170608
0.247911
-0.0462531
0.232363
-0.0736525
0.212282
-0.0953515
0.192813
-0.112049
0.17581
-0.123807
0.161414
-0.132282
0.149266
-0.13807
0.137984
-0.139307
0.127537
-0.138657
0.11654
-0.137093
0.104001
-0.12909
0.0968622
-0.104802
0.101804
-0.0620621
0.119638
-0.0186561
0.151244
0.0195179
0.191029
0.0763624
0.226583
0.175616
0.24797
0.292333
0.251323
0.364639
0.239543
0.334938
0.220353
0.207604
0.197407
0.0295098
0.174652
-0.142485
0.169771
-0.248302
0.17242
-0.219888
0.160618
-0.199491
0.147075
-0.260666
0.154227
-0.294032
0.174885
-0.127811
0.193115
0.135502
0.201488
0.35771
0.199042
0.374114
0.187229
0.22715
0.16908
-0.00526937
0.154062
-0.174544
0.14927
-0.237484
0.147816
-0.118649
0.145999
0.0542795
0.137576
0.243633
0.126653
0.343733
0.0526682
0.212585
0.0109478
0.215827
0.0150442
0.220596
0.018853
0.227406
0.0220314
0.235855
0.0236173
0.243527
0.0218726
0.249007
0.0158942
0.25144
0.00455969
0.248274
-0.0138947
0.237092
-0.0350713
0.220294
-0.0568544
0.201588
-0.0766462
0.183964
-0.0944246
0.1685
-0.108343
0.15467
-0.118452
0.143268
-0.126668
0.133188
-0.129227
0.123276
-0.128744
0.114974
-0.128791
0.107166
-0.121283
0.101377
-0.0990124
0.102799
-0.0634839
0.113662
-0.0295195
0.138231
-0.00505088
0.177208
0.0373855
0.221004
0.13182
0.252611
0.260725
0.260917
0.356333
0.248935
0.34692
0.228871
0.227668
0.203857
0.0545238
0.17787
-0.116498
0.167483
-0.237915
0.170123
-0.222527
0.160105
-0.189473
0.144192
-0.244754
0.148268
-0.298107
0.170871
-0.150414
0.192718
0.113654
0.203871
0.346557
0.203385
0.374601
0.192454
0.23808
0.173377
0.0138076
0.156807
-0.157973
0.151978
-0.232655
0.15202
-0.11869
0.151207
0.0550925
0.14302
0.251819
0.13161
0.355143
0.0546987
0.20796
0.00901923
0.21113
0.0118737
0.215478
0.0145055
0.220882
0.0166273
0.226771
0.0177283
0.231867
0.0167767
0.235117
0.0126442
0.235659
0.00401721
0.230407
-0.00864254
0.220028
-0.0246925
0.206268
-0.0430938
0.190866
-0.0612443
0.175332
-0.078891
0.161351
-0.094362
0.148257
-0.105357
0.13705
-0.115462
0.128354
-0.12053
0.119219
-0.11961
0.111545
-0.121118
0.107337
-0.117075
0.104826
-0.096501
0.105147
-0.0638053
0.1109
-0.0352723
0.127062
-0.0212126
0.1595
0.0049477
0.203762
0.0875575
0.2437
0.220787
0.263102
0.336932
0.256841
0.353181
0.236342
0.248167
0.211241
0.0796244
0.18215
-0.0874065
0.165991
-0.221756
0.167348
-0.223884
0.159173
-0.181298
0.142021
-0.227602
0.142655
-0.298742
0.164967
-0.172726
0.189828
0.0887938
0.20413
0.332254
0.206258
0.372473
0.197128
0.24721
0.177923
0.0330129
0.159769
-0.139819
0.154605
-0.227491
0.156101
-0.120186
0.156538
0.0546556
0.148904
0.259452
0.137311
0.366735
0.0572136
0.222683
0.00874967
-0.222414
0.224101
0.0104556
0.226642
0.0119652
0.23021
0.0130588
0.234769
0.0131691
0.239982
0.0115642
0.245143
0.00748259
0.249084
7.69412e-05
0.251138
-0.0106972
0.25058
-0.0241345
0.24735
-0.0398636
0.241798
-0.0556923
0.234034
-0.0711274
0.225115
-0.085442
0.214945
-0.0951869
0.203658
-0.104176
0.193017
-0.109889
0.18127
-0.107862
0.169011
-0.108859
0.158568
-0.106632
0.147116
-0.0850483
0.135492
-0.0521821
0.130129
-0.029909
0.135361
-0.0264441
0.151235
-0.0109265
0.17095
0.067842
0.188393
0.203345
0.199735
0.325589
0.206588
0.346328
0.214728
0.240027
0.220217
0.0741353
0.214663
-0.0818518
0.20415
-0.211244
0.19843
-0.218163
0.187998
-0.170867
0.172528
-0.212132
0.164384
-0.290597
0.165739
-0.174082
0.169621
0.0849119
0.175223
0.326652
0.18315
0.364547
0.186854
0.243507
0.177645
0.0422215
0.162717
-0.124891
0.154463
-0.219236
0.150978
-0.116701
0.147246
0.0583871
0.138607
0.268092
0.129498
0.375844
0.0598933
0.239063
0.00864969
-0.238963
0.240171
0.0093477
0.242183
0.00995246
0.245085
0.0101567
0.248759
0.00949517
0.252862
0.00746162
0.256943
0.00340114
0.260124
-0.00310397
0.261657
-0.0122304
0.261049
-0.0235264
0.257879
-0.0366929
0.252492
-0.0503056
0.244801
-0.0634361
0.23544
-0.0760815
0.225205
-0.0849518
0.213817
-0.0927883
0.203082
-0.0991537
0.1924
-0.0971799
0.180389
-0.0968481
0.17052
-0.0967634
0.16262
-0.0771484
0.153912
-0.0434738
0.147461
-0.0234575
0.149005
-0.0279888
0.161489
-0.0234107
0.182413
0.046918
0.204043
0.181715
0.219506
0.310126
0.228593
0.337241
0.236999
0.231622
0.243442
0.0676927
0.236686
-0.0750966
0.222917
-0.197474
0.214874
-0.210121
0.203602
-0.159594
0.186477
-0.195007
0.177216
-0.281337
0.178176
-0.175042
0.182742
0.0803464
0.189928
0.319467
0.200557
0.353918
0.206378
0.237686
0.196615
0.0519839
0.179117
-0.107393
0.169782
-0.209902
0.166838
-0.113757
0.163354
0.0618704
0.154492
0.276954
0.145088
0.385249
0.0632123
0.256239
0.00862214
-0.256212
0.257029
0.00855815
0.258605
0.00837664
0.260906
0.0078554
0.263833
0.00656787
0.267072
0.00422295
0.270112
0.000361016
0.272392
-0.00538433
0.27332
-0.0131576
0.272525
-0.0227313
0.269586
-0.0337538
0.26472
-0.0454401
0.257901
-0.0566173
0.249491
-0.0676712
0.240522
-0.075983
0.230411
-0.0826773
0.220129
-0.088872
0.210434
-0.0874849
0.198897
-0.085311
0.187633
-0.0854987
0.1806
-0.070116
0.174968
-0.0378416
0.168101
-0.0165903
0.165072
-0.0249599
0.173461
-0.0317996
0.193669
0.0267097
0.218393
0.156991
0.238266
0.290253
0.250511
0.324996
0.260388
0.221744
0.267347
0.0607336
0.26017
-0.0679194
0.243153
-0.180456
0.233167
-0.200135
0.22203
-0.148458
0.202664
-0.175641
0.190797
-0.26947
0.191535
-0.17578
0.196648
0.075234
0.205438
0.310676
0.219339
0.340017
0.228061
0.228963
0.217789
0.0622557
0.197498
-0.0871016
0.186777
-0.199181
0.184617
-0.111597
0.181613
0.0648741
0.172755
0.285812
0.163354
0.39465
0.0671393
0.27335
0.00851607
-0.273244
0.274077
0.00783113
0.275423
0.00703082
0.277287
0.00599141
0.279534
0.00432114
0.281921
0.00183609
0.284108
-0.00182677
0.285674
-0.00695024
0.286103
-0.0135867
0.285106
-0.0217343
0.282245
-0.0308931
0.277588
-0.0407827
0.271252
-0.0502815
0.263303
-0.0597224
0.254623
-0.0673021
0.244956
-0.0730106
0.234491
-0.0784073
0.224765
-0.0777589
0.214721
-0.0752668
0.204025
-0.0748025
0.19733
-0.0634212
0.195267
-0.0357784
0.191182
-0.0125053
0.185418
-0.0191965
0.188737
-0.0351185
0.206307
0.00914028
0.231768
0.131529
0.255348
0.266674
0.272382
0.307962
0.284386
0.209741
0.291781
0.0533385
0.283925
-0.0600637
0.263843
-0.160374
0.251363
-0.187655
0.240475
-0.13757
0.219619
-0.154784
0.205132
-0.254983
0.20537
-0.176018
0.211097
0.0695068
0.22158
0.300193
0.239331
0.322267
0.251553
0.216741
0.241063
0.0727463
0.217743
-0.0637823
0.205443
-0.18688
0.204424
-0.110578
0.20223
0.0670687
0.193653
0.294389
0.18475
0.403553
0.0715489
0.290852
0.0080527
-0.290388
0.291605
0.00707802
0.292714
0.00592201
0.294148
0.00455716
0.295814
0.00265498
0.297542
0.000107967
0.299047
-0.00333161
0.299997
-0.00789985
0.29996
-0.01355
0.298695
-0.0204691
0.295893
-0.0280908
0.291569
-0.036459
0.285829
-0.0445418
0.278669
-0.0525627
0.270654
-0.0592866
0.26178
-0.0641368
0.252228
-0.0688548
0.242946
-0.0684769
0.233859
-0.0661806
0.223799
-0.0647423
0.215771
-0.055393
0.214448
-0.0344552
0.214285
-0.0123424
0.209112
-0.0140237
0.207301
-0.0333074
0.219852
-0.00341056
0.244726
0.106655
0.271945
0.239456
0.293836
0.286071
0.307826
0.19575
0.315407
0.0457578
0.307647
-0.0523034
0.285283
-0.138011
0.270484
-0.172856
0.260384
-0.12747
0.238317
-0.132717
0.220334
-0.237
0.219508
-0.175192
0.225833
0.0631811
0.238271
0.287755
0.260221
0.300317
0.276539
0.200423
0.266296
0.0829898
0.239936
-0.0374223
0.225822
-0.172767
0.226315
-0.111072
0.225328
0.0680566
0.217462
0.302254
0.209756
0.411259
0.0762291
0.308921
0.00746184
-0.30833
0.309634
0.00636474
0.310554
0.00500217
0.311672
0.00343883
0.312893
0.00143453
0.314078
-0.00107716
0.314999
-0.00425277
0.315421
-0.00832165
0.315008
-0.0131373
0.313581
-0.0190422
0.310878
-0.0253877
0.306859
-0.0324402
0.301569
-0.0392519
0.294905
-0.0458982
0.287421
-0.0518027
0.279061
-0.0557768
0.270145
-0.059939
0.261346
-0.0596781
0.252877
-0.0577113
0.244306
-0.0561709
0.236275
-0.0473628
0.233901
-0.0320805
0.235621
-0.0140631
0.232777
-0.0111793
0.227319
-0.0278492
0.230397
-0.00648834
0.249391
0.0876605
0.279111
0.209736
0.308943
0.256238
0.328569
0.176124
0.337451
0.0368761
0.330262
-0.0451146
0.306547
-0.114296
0.289423
-0.155732
0.280504
-0.11855
0.258342
-0.110556
0.236586
-0.215243
0.234033
-0.172639
0.24126
0.0559542
0.255842
0.273173
0.281719
0.27444
0.302365
0.179777
0.293
0.0923544
0.263935
-0.00835732
0.247863
-0.156694
0.25022
-0.113429
0.250962
0.0673144
0.244455
0.308761
0.238875
0.416839
0.0808918
0.327642
0.00682222
-0.327002
0.328361
0.00564567
0.329163
0.00419988
0.330032
0.00256937
0.330883
0.000583988
0.331625
-0.00181934
0.332081
-0.00470869
0.332094
-0.0083344
0.331399
-0.0124423
0.32983
-0.0174738
0.327183
-0.0227404
0.323357
-0.0286139
0.318462
-0.0343575
0.312335
-0.0397711
0.305539
-0.045006
0.297919
-0.0481572
0.289714
-0.0517337
0.281679
-0.0516435
0.273595
-0.0496271
0.265912
-0.0484877
0.258639
-0.0400897
0.255239
-0.028681
0.256512
-0.0153354
0.254513
-0.0091802
0.246622
-0.0199585
0.240232
-9.88846e-05
0.248275
0.0796174
0.279761
0.178251
0.32162
0.214379
0.34915
0.148594
0.358521
0.0275055
0.351849
-0.0384431
0.328263
-0.0907095
0.30901
-0.136479
0.301265
-0.110805
0.279997
-0.0892881
0.254411
-0.189657
0.249234
-0.167462
0.25716
0.0480288
0.273897
0.256436
0.303158
0.245178
0.328083
0.154852
0.32045
0.0999874
0.289593
0.0225
0.271539
-0.138641
0.275933
-0.117822
0.278942
0.0643052
0.274712
0.312991
0.272497
0.419054
0.0851585
0.347317
0.00608446
-0.34658
0.348019
0.00494363
0.348688
0.0035311
0.349333
0.00192495
0.349883
3.35196e-05
0.350285
-0.0022211
0.350391
-0.00481467
0.350081
-0.00802427
0.349157
-0.0115181
0.347457
-0.0157746
0.344882
-0.020165
0.341269
-0.0250007
0.336794
-0.0298826
0.331223
-0.0342
0.324981
-0.0387638
0.318049
-0.0412259
0.310436
-0.04412
0.303154
-0.044362
0.29568
-0.0421533
0.288646
-0.041453
0.28236
-0.0338046
0.278508
-0.0248287
0.278555
-0.0153826
0.27596
-0.00658487
0.267138
-0.0111364
0.257225
0.00981408
0.2603
0.0765421
0.293326
0.145225
0.341981
0.165723
0.371968
0.118607
0.378535
0.0209389
0.371427
-0.0313358
0.349644
-0.068926
0.328828
-0.115663
0.321852
-0.10383
0.303033
-0.0704685
0.274266
-0.16089
0.265901
-0.159098
0.275015
0.0389142
0.294032
0.237419
0.324893
0.214318
0.352693
0.127052
0.347623
0.105058
0.316666
0.0534567
0.296835
-0.11881
0.303059
-0.124046
0.30882
0.0585447
0.308171
0.31364
0.310876
0.416349
0.0885996
0.368056
0.00538432
-0.367356
0.368681
0.00431884
0.369223
0.00298895
0.369692
0.00145581
0.370019
-0.000292689
0.37016
-0.00236281
0.370002
-0.00465679
0.369438
-0.00745991
0.368356
-0.0104359
0.366586
-0.0140047
0.364114
-0.0176929
0.360731
-0.0216178
0.356599
-0.0257507
0.351549
-0.0291496
0.345808
-0.0330229
0.339611
-0.035029
0.332672
-0.0371813
0.326075
-0.0377646
0.319325
-0.035403
0.312807
-0.0349352
0.307383
-0.0283811
0.303328
-0.0207734
0.302306
-0.0143608
0.299284
-0.0035629
0.291017
-0.00286892
0.2842
0.0166308
0.290761
0.069981
0.322976
0.11301
0.367526
0.121174
0.393286
0.0928463
0.396245
0.0179797
0.389136
-0.0242258
0.371065
-0.0508554
0.349898
-0.0944963
0.34247
-0.0964018
0.327283
-0.0552815
0.297252
-0.130859
0.285356
-0.147202
0.296493
0.0277767
0.317067
0.216845
0.345635
0.18575
0.373979
0.0987079
0.373075
0.105962
0.345031
0.0815009
0.323908
-0.0976868
0.330926
-0.131064
0.339614
0.0498572
0.344351
0.308902
0.353825
0.406875
0.0907768
0.389935
0.00475172
-0.389302
0.390496
0.00375733
0.390945
0.00253996
0.391272
0.00112931
0.391427
-0.000448402
0.391365
-0.00230068
0.391018
-0.00430907
0.39028
-0.00672207
0.389107
-0.00926362
0.387323
-0.0122208
0.384952
-0.0153211
0.381807
-0.018473
0.377986
-0.0219297
0.373466
-0.0246296
0.368235
-0.0277925
0.362713
-0.0295068
0.356493
-0.0309611
0.350476
-0.0317478
0.344515
-0.0294419
0.3385
-0.0289198
0.333806
-0.023687
0.329845
-0.0168123
0.327936
-0.0124519
0.325505
-0.00113237
0.319218
0.00341816
0.316902
0.0189464
0.327943
0.0589403
0.355751
0.0852017
0.3905
0.0864251
0.410976
0.0723699
0.412409
0.0165466
0.406145
-0.0179616
0.392422
-0.0371324
0.372366
-0.07444
0.36342
-0.0874558
0.352088
-0.0439498
0.323711
-0.102482
0.307489
-0.130979
0.317825
0.0174411
0.338314
0.196355
0.36288
0.161184
0.390876
0.0707124
0.396568
0.10027
0.375234
0.102835
0.353167
-0.0756197
0.358487
-0.136384
0.369471
0.0388733
0.381938
0.296435
0.400384
0.388429
0.09125
0.413167
0.00415825
-0.412573
0.41366
0.00326429
0.414016
0.00218342
0.414226
0.000920175
0.41425
-0.000472698
0.414042
-0.00209325
0.413571
-0.00383746
0.412732
-0.0058834
0.411514
-0.0080458
0.409764
-0.0104704
0.407502
-0.0130592
0.40462
-0.0155908
0.401113
-0.018423
0.397088
-0.0206045
0.392376
-0.0230806
0.387448
-0.0245782
0.38198
-0.0254937
0.376504
-0.0262715
0.371328
-0.0242657
0.365882
-0.0234739
0.361737
-0.0195423
0.358222
-0.0132972
0.355764
-0.00999342
0.35425
0.000381135
0.35071
0.00695815
0.35125
0.0184069
0.363602
0.0465883
0.385457
0.0633459
0.410703
0.0611794
0.427459
0.0556138
0.429081
0.014925
0.423992
-0.0128731
0.414367
-0.0275072
0.396455
-0.0565277
0.385688
-0.0766891
0.377414
-0.0356758
0.352512
-0.0775791
0.331724
-0.110192
0.337972
0.0111933
0.359253
0.175074
0.381431
0.139007
0.407026
0.0451166
0.419355
0.0879412
0.407896
0.114293
0.384978
-0.0527009
0.384274
-0.13568
0.396224
0.0269226
0.419515
0.273145
0.448772
0.359172
0.0899442
0.437925
0.00363542
-0.437402
0.438335
0.00285438
0.438606
0.00191176
0.43872
0.00080679
0.438649
-0.000402038
0.438349
-0.00179339