/*--------------------------------*- C++ -*----------------------------------*\
| =========                 |                                                 |
| \\      /  F ield         | OpenFOAM: The Open Source CFD Toolbox           |
|  \\    /   O peration     | Version:  2312                                  |
|   \\  /    A nd           | Website:  www.openfoam.com                      |
|    \\/     M anipulation  |                                                 |
\*---------------------------------------------------------------------------*/
FoamFile
{
    version     2.0;
    format      ascii;
    arch        "LSB;label=32;scalar=64";
    class       volVectorField;
    location    "48";
    object      U;
}
// * * * * * * * * * * * * * * * * * * * * * * * * * * * * * * * * * * * * * //

dimensions      [0 1 -1 0 0 0 0];

internalField   nonuniform List<vector> 
9200
(
(0.0586085 -0.0904952 2.42017e-19)
(0.0674506 -0.160287 -4.27826e-19)
(0.25442 -0.264177 1.9437e-19)
(1.11388 -0.442937 3.28667e-19)
(1.35691 -0.528824 -2.9815e-19)
(1.39672 -0.566004 0)
(1.36144 -0.578385 0)
(1.30468 -0.568652 2.8877e-19)
(1.23197 -0.554865 -3.63115e-20)
(1.19255 -0.524854 -2.07357e-19)
(1.15778 -0.469111 -7.61166e-20)
(1.06491 -0.403594 1.0571e-19)
(1.03012 -0.352614 -1.60576e-20)
(1.05791 -0.406313 -7.39489e-20)
(1.03471 -0.387531 0)
(0.976813 -0.307861 9.34237e-20)
(0.955637 -0.254308 -1.20215e-19)
(0.936294 -0.205494 3.41593e-20)
(0.932311 -0.18042 1.82591e-20)
(0.925361 -0.128744 1.24719e-20)
(-0.00524187 -0.0509601 9.64387e-21)
(0.0734941 -0.239094 2.19793e-19)
(0.897694 -0.332529 3.85803e-19)
(1.28994 -0.434548 0)
(1.41609 -0.468276 0)
(1.41936 -0.482491 0)
(1.38537 -0.487025 0)
(1.34108 -0.473841 -2.1059e-19)
(1.2951 -0.456877 2.59845e-19)
(1.26474 -0.436591 8.68873e-20)
(1.18633 -0.416797 -9.13998e-20)
(1.17675 -0.397392 6.15688e-20)
(1.15386 -0.397723 -4.87381e-20)
(1.07485 -0.294185 -3.0628e-20)
(0.979859 -0.273125 1.98158e-19)
(0.978784 -0.274292 -1.17514e-19)
(0.97831 -0.274275 -1.7931e-20)
(0.953576 -0.24093 -4.31136e-21)
(0.955759 -0.204907 -2.57233e-20)
(0.918552 -0.155349 -1.24453e-20)
(-0.127934 -0.0418509 -2.50114e-19)
(0.374238 -0.273469 -2.26797e-19)
(1.25189 -0.342001 1.81333e-19)
(1.45112 -0.427668 -3.39477e-19)
(1.49113 -0.445026 0)
(1.4708 -0.44805 0)
(1.42421 -0.435884 0)
(1.34333 -0.434339 -7.4202e-20)
(1.29653 -0.419877 0)
(1.21988 -0.398003 9.61679e-20)
(1.20355 -0.376998 -7.59051e-20)
(1.14941 -0.36012 -2.38118e-19)
(1.10355 -0.303278 2.03473e-19)
(1.05951 -0.317531 3.45187e-20)
(1.07018 -0.275671 -6.50074e-20)
(1.04203 -0.221788 -1.14785e-19)
(1.01216 -0.194394 3.04564e-20)
(1.02285 -0.173109 1.4583e-19)
(1.00793 -0.179203 -7.40814e-20)
(0.998808 -0.156145 0)
(-0.221857 -0.121809 2.70234e-19)
(1.06313 -0.197442 4.65791e-19)
(1.3045 -0.351881 3.75134e-19)
(1.49709 -0.377333 -4.70861e-19)
(1.53324 -0.354767 2.5033e-20)
(1.49044 -0.337042 4.3406e-19)
(1.4198 -0.329717 -1.87051e-19)
(1.37101 -0.311156 7.09269e-20)
(1.29975 -0.300264 0)
(1.27265 -0.292943 -4.70158e-20)
(1.20027 -0.272924 2.17629e-19)
(1.16626 -0.255772 -2.44696e-19)
(1.15075 -0.279873 -8.69176e-20)
(1.16062 -0.249 8.42623e-20)
(1.12189 -0.234083 -9.12665e-20)
(1.0944 -0.218127 7.99515e-20)
(1.09895 -0.17813 0)
(1.06121 -0.15238 0)
(1.03428 -0.117829 1.06956e-20)
(1.02543 -0.0986738 0)
(-0.0981811 -0.158056 2.62784e-19)
(1.29526 -0.182744 -3.63963e-19)
(1.56856 -0.254857 -3.98441e-19)
(1.59218 -0.299885 0)
(1.53488 -0.279851 -1.22835e-19)
(1.47739 -0.279213 -9.56248e-20)
(1.44352 -0.275568 2.57884e-19)
(1.38569 -0.278446 -2.18873e-19)
(1.36861 -0.27311 1.09514e-19)
(1.32239 -0.250468 -5.29891e-20)
(1.29951 -0.236609 0)
(1.26489 -0.212545 9.34993e-20)
(1.23119 -0.163014 5.0279e-20)
(1.15922 -0.152091 7.86163e-20)
(1.12677 -0.156883 -7.20779e-20)
(1.13161 -0.156069 -5.10993e-20)
(1.10259 -0.168561 4.69105e-20)
(1.08068 -0.1501 -1.80777e-20)
(1.08187 -0.143716 1.3663e-20)
(1.04819 -0.119171 4.22018e-20)
(0.198769 0.0209981 4.74198e-19)
(1.36661 -0.152803 3.77566e-21)
(1.55133 -0.114826 0)
(1.56322 -0.186879 2.12232e-19)
(1.52496 -0.193921 -6.3884e-20)
(1.48483 -0.206867 -1.01431e-19)
(1.42963 -0.202868 8.00303e-21)
(1.39196 -0.198721 7.61164e-20)
(1.34444 -0.18821 5.54482e-20)
(1.30227 -0.202462 -4.5567e-20)
(1.24918 -0.201418 -7.20561e-20)
(1.22867 -0.207358 -8.42382e-20)
(1.20317 -0.224935 1.34103e-19)
(1.19112 -0.207797 1.00984e-19)
(1.16328 -0.169061 -1.04169e-19)
(1.11529 -0.140679 5.98004e-20)
(1.10375 -0.108917 0)
(1.10638 -0.102441 2.10918e-21)
(1.07863 -0.0972927 -3.97751e-20)
(1.07278 -0.0879509 5.18356e-20)
(0.620221 0.186931 -1.114e-19)
(1.50247 -0.0871874 -6.57989e-21)
(1.62056 -0.0639119 -8.46973e-20)
(1.60442 -0.160951 -2.0871e-19)
(1.54158 -0.145965 1.83531e-19)
(1.49146 -0.15154 9.33429e-20)
(1.44641 -0.153672 -1.66611e-19)
(1.39707 -0.150596 -5.95924e-20)
(1.35094 -0.157288 1.14832e-19)
(1.29871 -0.135183 1.31473e-19)
(1.26471 -0.126893 -1.86288e-19)
(1.23143 -0.104997 6.46281e-20)
(1.21248 -0.083686 -7.35082e-20)
(1.18779 -0.0849452 2.30345e-20)
(1.17297 -0.0993641 -3.43957e-20)
(1.19176 -0.0991433 5.38086e-20)
(1.1774 -0.0959186 -5.12267e-21)
(1.12429 -0.075587 -5.94889e-20)
(1.10417 -0.0654842 1.533e-20)
(1.08226 -0.0577079 0)
(1.09525 0.0347238 1.11533e-19)
(1.62607 -0.189808 -2.40758e-19)
(1.5939 -0.0455815 1.70623e-19)
(1.59419 -0.0944362 3.22161e-20)
(1.53758 -0.064732 -1.69924e-19)
(1.49165 -0.087668 9.96536e-20)
(1.44884 -0.0747547 0)
(1.40599 -0.0781974 0)
(1.37741 -0.0659746 -5.454e-20)
(1.3553 -0.0826526 0)
(1.31971 -0.0763478 1.08173e-19)
(1.30057 -0.0816076 -1.23638e-19)
(1.26896 -0.0899997 1.02284e-19)
(1.23171 -0.0840272 -4.44731e-20)
(1.20536 -0.0740666 0)
(1.16762 -0.0674005 0)
(1.14222 -0.0660703 0)
(1.13925 -0.0683376 -3.68895e-20)
(1.11965 -0.0698714 4.18483e-20)
(1.10547 -0.0502382 0)
(1.0671 0.0909955 5.66427e-20)
(1.62579 -0.0671918 -2.76434e-21)
(1.60905 0.0596719 0)
(1.58833 -0.0227416 -1.36039e-20)
(1.51844 -0.0021224 3.10535e-20)
(1.48105 -0.0281752 4.38655e-20)
(1.43239 -0.0352944 -3.99202e-20)
(1.40295 -0.0355246 -1.454e-20)
(1.35396 -0.0523333 1.45897e-20)
(1.31098 -0.0447846 0)
(1.28517 -0.0536934 3.40309e-20)
(1.24405 -0.0468618 -3.83235e-20)
(1.21465 -0.0403831 -2.34069e-20)
(1.19186 -0.042304 2.64139e-20)
(1.17397 -0.0364453 7.76591e-21)
(1.17457 -0.0343233 -1.47065e-20)
(1.16467 -0.0300388 0)
(1.12193 -0.0236852 0)
(1.10635 -0.022024 -2.29209e-20)
(1.11003 -0.0273362 1.37572e-20)
(1.31781 0.176185 0)
(1.73168 -0.0323308 0)
(1.61626 0.095805 0)
(1.60847 0.0174635 -9.2759e-22)
(1.5395 0.065592 2.91376e-22)
(1.48922 0.0328137 1.1495e-21)
(1.43856 0.0456481 9.6678e-21)
(1.37766 0.029933 -1.53778e-20)
(1.33313 0.0326203 2.45352e-20)
(1.30314 0.0190493 -1.08093e-20)
(1.26681 0.0206682 0)
(1.25586 0.0130044 7.20908e-21)
(1.244 0.00313139 0)
(1.23272 0.00141185 -4.97926e-21)
(1.22683 -0.00656519 8.27985e-21)
(1.19691 -0.00179114 0)
(1.15959 -0.00966211 0)
(1.14861 -0.0173437 0)
(1.12605 -0.0145709 0)
(1.09962 -0.00505758 -3.07187e-21)
(-0.058255 0.192163 -1.3422e-20)
(-0.150628 -0.17828 0)
(-0.225674 -0.549544 0)
(-0.307229 -0.861602 -4.46021e-20)
(-0.391797 -1.11861 8.12374e-20)
(-0.501954 -1.36202 -1.33021e-22)
(-0.589084 -1.5139 -1.64828e-20)
(-0.65575 -1.58391 -2.8383e-20)
(-0.708464 -1.54387 -2.07374e-21)
(-0.732831 -1.42983 2.46819e-20)
(-0.712672 -1.21314 0)
(-0.64427 -0.945733 1.77212e-20)
(-0.577925 -0.659869 0)
(-0.465416 -0.314142 -1.27822e-20)
(-0.335029 0.0806906 1.94454e-20)
(-0.142122 0.334197 0)
(0.0613454 0.640373 0)
(0.228554 0.784135 0)
(0.358676 0.830736 0)
(0.510537 0.90665 6.29205e-21)
(-0.0711439 0.217361 -5.96888e-20)
(-0.113349 -0.0939854 1.10471e-19)
(-0.128646 -0.443339 0)
(-0.158637 -0.733869 1.63504e-19)
(-0.224893 -0.988563 -1.25885e-19)
(-0.279573 -1.19015 -7.27486e-20)
(-0.379278 -1.36433 4.00529e-21)
(-0.469136 -1.46109 1.37686e-19)
(-0.576761 -1.46627 -7.29548e-20)
(-0.628085 -1.38237 0)
(-0.69863 -1.24137 0)
(-0.690589 -1.05218 -1.76974e-20)
(-0.660506 -0.808353 4.43318e-20)
(-0.607858 -0.547521 -2.78341e-20)
(-0.414358 -0.248162 -4.13938e-20)
(-0.129616 -0.160763 2.01471e-20)
(0.089745 0.343922 0)
(0.168841 0.558124 0)
(0.296248 0.613788 1.03883e-20)
(0.398795 0.695189 -1.52244e-20)
(-0.0798449 0.324352 1.2811e-19)
(-0.0682704 -0.0051169 -5.71658e-20)
(-0.0472323 -0.349451 2.10923e-21)
(-0.0426635 -0.608462 -1.43213e-19)
(-0.0580836 -0.822341 2.55892e-19)
(-0.104253 -1.01769 -1.53629e-19)
(-0.119605 -1.18128 0)
(-0.174835 -1.26163 0)
(-0.249323 -1.30275 -7.91541e-20)
(-0.344495 -1.25933 0)
(-0.431138 -1.16837 -4.54114e-20)
(-0.46745 -1.0307 1.5277e-19)
(-0.489516 -0.873906 -1.1712e-19)
(-0.424338 -0.751013 4.86511e-20)
(-0.177412 -0.693141 0)
(0.0311563 -0.705416 0)
(0.107632 0.0602539 0)
(0.229014 0.293334 1.62478e-20)
(0.3413 0.45438 -8.72322e-21)
(0.376395 0.485274 0)
(-0.0854476 0.336424 -1.27996e-19)
(-0.0449137 0.0550935 -2.40394e-21)
(0.0158061 -0.271584 -1.07743e-19)
(0.0474363 -0.543875 9.57377e-20)
(0.0417853 -0.736292 -8.85895e-20)
(0.042504 -0.936155 0)
(0.108837 -1.09445 -1.27701e-19)
(0.124873 -1.17967 1.00593e-19)
(0.14141 -1.16999 3.19907e-21)
(0.0863752 -1.11881 -4.66846e-20)
(0.0611861 -1.05901 1.21509e-19)
(0.029192 -0.962837 -6.6918e-20)
(0.0154306 -0.875768 1.99679e-20)
(0.0141697 -0.900196 -5.14629e-20)
(0.222275 -1.00908 -1.87454e-20)
(0.143034 -0.917493 -1.90898e-20)
(0.103025 -0.306107 7.65236e-21)
(0.18194 -0.0154808 9.00587e-21)
(0.208009 0.323713 -1.91665e-21)
(0.2857 0.366909 0)
(-0.084635 0.31926 -5.28972e-19)
(-0.0124984 0.0715092 4.79928e-19)
(0.0952633 -0.230817 0)
(0.151094 -0.453337 -9.78525e-20)
(0.130297 -0.638058 2.67137e-19)
(0.166227 -0.86713 -1.5488e-19)
(0.255297 -1.10215 4.94604e-19)
(0.339841 -1.20088 -5.00664e-19)
(0.381971 -1.14261 2.42183e-19)
(0.399332 -1.04214 -5.54849e-20)
(0.424993 -0.988813 6.89638e-20)
(0.430413 -0.901665 5.72058e-21)
(0.383971 -0.725634 -6.73504e-20)
(0.34091 -0.633774 -2.77649e-20)
(0.37249 -0.717489 7.70382e-20)
(0.212793 -0.691323 -1.75291e-20)
(0.068937 -0.343008 0)
(0.12337 -0.15601 -1.28926e-20)
(0.135553 0.105315 -1.08234e-20)
(0.32286 0.0142167 1.85331e-20)
(-0.0626464 0.2902 -2.62681e-19)
(0.0284386 0.106802 -1.1727e-19)
(0.188114 -0.140138 -2.14645e-19)
(0.256198 -0.319689 0)
(0.237939 -0.482828 -1.76554e-19)
(0.3498 -0.730401 4.50818e-19)
(0.526721 -0.979189 -6.32434e-19)
(0.622062 -1.10721 1.1812e-19)
(0.636983 -1.1333 -1.28262e-19)
(0.646843 -1.05856 1.67984e-19)
(0.62647 -0.927979 0)
(0.638346 -0.79741 7.78809e-20)
(0.560301 -0.705488 3.55677e-20)
(0.567898 -0.604476 -3.42007e-20)
(0.541398 -0.510851 3.13547e-20)
(0.549756 -0.469642 -7.939e-21)
(0.302106 -0.369082 7.2883e-21)
(0.451035 -0.242306 4.83653e-21)
(0.3659 -0.0328842 -4.84435e-21)
(0.547198 -0.0881989 1.88356e-20)
(-0.014799 0.196783 -2.53524e-19)
(0.0844399 0.0694445 4.6146e-19)
(0.278008 -0.114145 4.08615e-21)
(0.316014 -0.247053 5.70996e-19)
(0.316058 -0.410168 -6.06951e-21)
(0.608451 -0.681041 -5.96416e-19)
(0.867196 -0.90176 3.36903e-20)
(0.949918 -0.976885 3.04353e-19)
(0.931527 -0.950662 0)
(0.877589 -0.932272 -5.08901e-20)
(0.849448 -0.892396 -5.54339e-20)
(0.793858 -0.80494 2.10634e-19)
(0.734193 -0.673479 -9.30837e-20)
(0.75693 -0.627748 -5.87283e-20)
(0.733624 -0.60593 7.06713e-21)
(0.704573 -0.432757 -1.23496e-20)
(0.60485 -0.271638 0)
(0.631648 -0.243936 0)
(0.6307 -0.0972139 -8.49483e-21)
(0.708073 -0.0184423 1.01029e-20)
(0.0361411 0.0802138 -2.42899e-19)
(0.145394 0.00365493 -2.26739e-19)
(0.30954 -0.088262 -6.0579e-19)
(0.281981 -0.20916 3.67919e-19)
(0.465737 -0.419633 0)
(0.911247 -0.70344 2.7415e-19)
(1.12874 -0.861843 -2.4942e-19)
(1.16217 -0.906596 -8.7858e-20)
(1.12017 -0.882575 0)
(1.05039 -0.80541 1.01181e-19)
(0.961229 -0.701274 -7.31611e-20)
(0.844382 -0.649948 -1.24261e-20)
(0.836254 -0.639873 -1.02848e-20)
(0.760691 -0.567544 -7.41943e-20)
(0.718128 -0.445984 -2.00948e-20)
(0.649126 -0.434789 8.14963e-20)
(0.65401 -0.317493 -7.76307e-21)
(0.677973 -0.247423 -1.50142e-20)
(0.694045 -0.206499 7.92302e-21)
(0.728166 -0.147322 0)
(0.0893101 -0.0354412 3.11595e-21)
(0.197124 -0.0842842 -2.17727e-19)
(0.243657 -0.113926 3.96008e-19)
(0.256866 -0.265348 0)
(0.825942 -0.525796 0)
(1.18133 -0.700163 0)
(1.27403 -0.772701 0)
(1.23413 -0.784013 4.01888e-19)
(1.15045 -0.783507 -2.86376e-19)
(1.0874 -0.75799 -1.01321e-19)
(0.988239 -0.710351 7.44703e-20)
(0.950024 -0.621097 5.51302e-20)
(0.866917 -0.518814 -3.94939e-20)
(0.813722 -0.495463 7.76335e-20)
(0.748068 -0.49048 -9.51147e-20)
(0.783651 -0.366674 4.77337e-20)
(0.742766 -0.390648 1.94321e-20)
(0.753381 -0.289546 -5.85834e-20)
(0.72745 -0.220891 2.08941e-20)
(0.735698 -0.173767 -3.8925e-21)
(0.102616 -0.0986711 1.6632e-21)
(0.152842 -0.124466 6.46787e-19)
(0.123863 -0.16359 -5.85977e-19)
(0.568232 -0.357262 -3.4015e-19)
(1.15013 -0.534706 3.08493e-19)
(1.33243 -0.615365 0)
(1.32581 -0.646905 0)
(1.24662 -0.65292 -2.94702e-19)
(1.16503 -0.617334 4.09454e-20)
(1.05691 -0.580869 2.08101e-19)
(1.01689 -0.558559 -7.45953e-20)
(0.998209 -0.558443 -1.0234e-19)
(0.966847 -0.536201 1.63715e-20)
(0.906839 -0.418349 7.08264e-20)
(0.934358 -0.33769 0)
(0.90199 -0.334155 -4.34956e-20)
(0.888047 -0.267168 9.3508e-20)
(0.865809 -0.231737 1.59042e-21)
(0.857004 -0.227036 -3.12653e-20)
(0.888521 -0.18788 3.90113e-21)
(0.615339 0.914121 -4.33428e-21)
(0.696639 0.793204 8.08477e-23)
(0.774366 0.788408 -7.80886e-23)
(0.822195 0.813235 7.53518e-23)
(0.910739 0.701217 0)
(1.00505 0.64595 -3.18042e-21)
(1.1852 0.812291 3.06877e-21)
(1.32655 1.02372 -4.73597e-21)
(1.40386 0.867227 4.68465e-21)
(1.31142 0.454307 -3.11368e-22)
(1.22859 -0.149852 0)
(1.07508 -0.72992 4.65718e-21)
(0.953737 -1.04436 -8.10959e-21)
(0.877739 -1.15165 6.49805e-21)
(0.769603 -1.07613 -5.2895e-21)
(0.608851 -1.13282 2.457e-21)
(0.378489 -1.14275 0)
(0.182594 -0.899262 -4.52714e-21)
(0.0884527 -0.605095 4.17935e-21)
(0.119847 -0.182018 4.77597e-21)
(0.198901 0.3064 -4.61144e-21)
(0.207911 0.685782 2.39796e-21)
(0.255929 0.689663 -2.42741e-21)
(0.455754 0.449777 0)
(0.409286 0.449242 0)
(0.425022 0.467878 0)
(0.463788 0.346412 0)
(0.475362 0.16837 7.42193e-23)
(0.482531 -0.0551631 -3.60968e-23)
(0.509922 -0.227075 0)
(0.588489 -0.316485 2.61073e-24)
(0.841583 -0.343245 0)
(1.18218 -0.443047 -2.21076e-22)
(1.24437 -0.612058 5.0074e-22)
(1.09839 -0.465685 1.03337e-21)
(1.16883 0.170643 -1.53921e-21)
(1.193 0.461453 -4.83529e-22)
(1.13668 0.485259 1.57358e-22)
(0.913988 0.506217 -5.69493e-23)
(0.910786 0.293344 -5.52684e-23)
(1.02546 -0.135303 -3.46385e-23)
(1.1575 -0.380621 -9.89441e-24)
(1.03712 -0.403323 0)
(1.01567 -0.149301 0)
(1.0774 0.203563 0)
(1.06992 0.380976 -1.69853e-22)
(0.861999 0.365341 2.42246e-23)
(0.775123 0.289007 9.02196e-23)
(0.65708 0.0649837 1.11856e-22)
(0.694899 -0.110076 2.57975e-24)
(0.515533 0.749084 7.82136e-21)
(0.682749 0.701561 -7.73191e-21)
(0.768592 0.754648 8.35719e-21)
(0.809205 0.771332 2.67266e-22)
(0.877849 0.609555 -1.62956e-20)
(0.989673 0.500853 8.03327e-21)
(1.15006 0.615487 0)
(1.32207 0.824883 -1.18911e-22)
(1.42794 0.847741 0)
(1.397 0.544421 -1.36175e-22)
(1.28671 -0.00171343 -1.70833e-20)
(1.19015 -0.580252 1.60619e-20)
(1.05727 -0.985639 0)
(0.87963 -1.10393 -4.00596e-22)
(0.731201 -1.07602 -1.78305e-22)
(0.612199 -1.05 0)
(0.450857 -1.02122 8.87564e-21)
(0.20577 -0.827619 -2.05741e-20)
(0.0163926 -0.501354 1.16152e-20)
(-0.0434925 -0.126026 0)
(0.046693 0.282465 0)
(0.146986 0.581365 3.76555e-22)
(0.26861 0.622484 -7.35344e-21)
(0.341986 0.597711 1.3776e-21)
(0.294865 0.605263 4.89205e-21)
(0.394449 0.508223 0)
(0.397734 0.355548 7.84489e-22)
(0.442827 0.172294 -6.69658e-22)
(0.443759 -0.0415997 -3.57143e-23)
(0.511688 -0.24549 8.0665e-23)
(0.628273 -0.380208 -3.26538e-23)
(0.789931 -0.447206 -2.25159e-24)
(1.0484 -0.513399 -1.46615e-21)
(1.12426 -0.587453 4.7907e-22)
(0.944809 -0.410568 0)
(1.00669 0.159664 5.31319e-21)
(1.06137 0.43757 -2.17174e-21)
(1.03234 0.50974 -1.72011e-21)
(0.851582 0.525053 -2.20472e-23)
(0.869947 0.272696 -1.73483e-22)
(0.973269 -0.164053 0)
(1.10068 -0.382993 -1.99278e-22)
(0.983353 -0.381181 1.79939e-22)
(0.931288 -0.13972 -6.29816e-22)
(0.969028 0.204794 -9.08119e-24)
(0.950129 0.399814 1.50083e-22)
(0.772269 0.391594 5.54234e-23)
(0.727492 0.307214 5.80616e-23)
(0.61735 0.0704093 -1.24475e-22)
(0.67617 -0.115085 9.62636e-24)
(0.469358 0.47159 0)
(0.642439 0.510761 -7.65414e-21)
(0.722651 0.665031 7.33043e-21)
(0.757975 0.722437 -1.01761e-20)
(0.866684 0.535908 9.77066e-21)
(0.951045 0.36379 1.15055e-22)
(1.10171 0.450669 0)
(1.24276 0.741344 -2.19147e-20)
(1.35345 0.834993 2.08867e-20)
(1.33606 0.656495 7.52995e-22)
(1.27535 0.152609 0)
(1.24013 -0.439397 7.20407e-22)
(1.15798 -0.782245 1.54726e-20)
(0.965557 -0.905464 -1.4472e-20)
(0.751896 -0.879986 8.26872e-21)
(0.597089 -0.966887 -1.58809e-20)
(0.40212 -0.875069 1.83017e-20)
(0.200727 -0.657258 -1.02682e-20)
(0.0338454 -0.477841 0)
(-0.00558762 -0.221965 5.08675e-22)
(0.0626 0.178354 -5.26924e-22)
(0.0479323 0.543162 4.56222e-22)
(0.206562 0.589289 4.32931e-22)
(0.292843 0.467943 0)
(0.324041 0.422676 -3.84974e-21)
(0.325536 0.413555 3.71716e-21)
(0.331485 0.321881 0)
(0.402195 0.147733 1.59314e-22)
(0.435247 -0.0702822 -1.70972e-22)
(0.548283 -0.288886 -1.99333e-22)
(0.66403 -0.412899 3.02308e-23)
(0.750173 -0.498502 -8.37791e-22)
(0.90214 -0.563299 -1.85515e-21)
(0.987313 -0.580998 3.22986e-21)
(0.795048 -0.400249 1.97178e-21)
(0.83486 0.130771 -1.10387e-21)
(0.91262 0.428089 -2.23795e-21)
(0.912218 0.541923 3.58211e-21)
(0.779286 0.539924 1.09058e-23)
(0.824773 0.258263 3.13504e-22)
(0.924662 -0.184822 2.67044e-22)
(1.04301 -0.376902 9.04784e-24)
(0.937345 -0.361339 1.62612e-21)
(0.854978 -0.139876 3.2019e-22)
(0.848589 0.199171 -5.97192e-22)
(0.821835 0.41384 0)
(0.689326 0.40978 -2.09608e-22)
(0.678211 0.321036 -1.11593e-22)
(0.581178 0.0750485 -4.02218e-23)
(0.659852 -0.11992 -7.99245e-23)
(0.427834 0.353698 4.73495e-23)
(0.611162 0.388944 -1.77793e-23)
(0.687418 0.588991 -4.47148e-23)
(0.769732 0.634784 -5.36437e-23)
(0.856797 0.473447 0)
(0.929277 0.270855 8.43501e-23)
(1.05763 0.233527 0)
(1.18495 0.524507 2.72535e-22)
(1.30966 0.766963 -1.59493e-20)
(1.28884 0.708621 3.0247e-20)
(1.29787 0.245605 -1.44458e-20)
(1.22957 -0.368213 7.80958e-23)
(1.14492 -0.742173 -2.3714e-22)
(1.04145 -0.853355 -1.60694e-22)
(0.847762 -0.818136 3.30537e-21)
(0.714773 -0.828754 -6.81535e-22)
(0.491382 -0.838547 -2.39983e-21)
(0.277385 -0.629269 -7.58479e-21)
(0.110283 -0.441832 7.591e-21)
(0.0524859 -0.215912 -5.15744e-22)
(-0.0212768 0.178936 5.34134e-22)
(0.0250261 0.46119 -4.62342e-22)
(0.261239 0.471751 -5.99584e-22)
(0.265658 0.52341 -8.81839e-21)
(0.220288 0.597901 9.06403e-21)
(0.213718 0.529242 6.89457e-21)
(0.272292 0.349785 -6.65498e-21)
(0.320605 0.158153 9.54112e-23)
(0.430849 -0.0750674 -2.57468e-21)
(0.565586 -0.312327 4.7386e-21)
(0.675787 -0.441348 -1.74318e-21)
(0.728683 -0.529756 -2.35172e-21)
(0.788336 -0.603089 2.27076e-21)
(0.860602 -0.558214 0)
(0.671365 -0.348 6.33986e-21)
(0.66842 0.105436 -8.04444e-21)
(0.748923 0.387228 -3.04523e-21)
(0.776599 0.538651 7.37484e-22)
(0.681727 0.539593 4.50846e-23)
(0.779389 0.240482 0)
(0.877561 -0.206877 -8.09114e-22)
(0.975126 -0.38023 5.1332e-22)
(0.876454 -0.334148 -6.58988e-22)
(0.77631 -0.114601 0)
(0.729262 0.209776 9.52672e-22)
(0.706087 0.425367 -9.20856e-22)
(0.620671 0.419323 1.30388e-22)
(0.630628 0.330941 2.3122e-23)
(0.547846 0.0744699 0)
(0.643865 -0.128683 7.98085e-23)
(0.500973 0.0284083 -1.20859e-20)
(0.631799 0.148949 1.1642e-20)
(0.692388 0.412611 3.56829e-23)
(0.741991 0.565107 0)
(0.818179 0.466388 0)
(0.937267 0.228528 -8.63139e-23)
(1.02313 0.154172 0)
(1.11495 0.367541 2.32272e-20)
(1.18299 0.635719 -2.25444e-20)
(1.1822 0.705898 0)
(1.24191 0.414285 -1.86863e-22)
(1.28675 -0.115898 1.66216e-20)
(1.2394 -0.559476 -1.65688e-20)
(1.12802 -0.669181 1.17158e-22)
(0.918845 -0.661086 -1.1692e-21)
(0.769334 -0.690061 3.69331e-21)
(0.498465 -0.615177 -2.47165e-21)
(0.256403 -0.484237 0)
(0.170262 -0.381289 -4.51093e-21)
(0.109948 -0.210389 4.18004e-21)
(0.0173189 0.113571 0)
(0.167028 0.373811 -8.6041e-21)
(0.236249 0.488782 8.44606e-21)
(0.205326 0.536253 -7.4498e-23)
(0.216651 0.466227 0)
(0.198073 0.394623 0)
(0.178363 0.29081 8.05723e-21)
(0.241908 0.102603 -7.56995e-21)
(0.402521 -0.141562 0)
(0.538041 -0.352784 -1.63659e-22)
(0.656415 -0.454492 0)
(0.701303 -0.532824 0)
(0.697158 -0.614612 6.0347e-21)
(0.733018 -0.567412 -6.7905e-21)
(0.586594 -0.343416 0)
(0.560708 0.0855261 1.66438e-20)
(0.602017 0.373685 -1.25989e-20)
(0.639533 0.553599 -7.91882e-22)
(0.572193 0.536042 6.20808e-22)
(0.748171 0.220699 -5.99206e-22)
(0.834791 -0.215033 0)
(0.907995 -0.373174 0)
(0.820187 -0.320557 0)
(0.710904 -0.106108 1.22689e-21)
(0.622527 0.210743 -3.29073e-21)
(0.609685 0.429237 6.48872e-22)
(0.562561 0.424161 1.40524e-22)
(0.584151 0.338524 5.826e-23)
(0.516454 0.072559 3.57916e-23)
(0.627862 -0.137208 0)
(0.588299 -0.126498 -2.22239e-21)
(0.539043 0.0256815 -2.11281e-20)
(0.528481 0.317898 8.88075e-21)
(0.568595 0.47818 6.723e-21)
(0.716834 0.401864 -6.40935e-21)
(0.937574 0.173249 0)
(1.12843 0.0155132 1.21916e-20)
(1.14653 0.278004 -1.16085e-20)
(1.09504 0.644627 -1.42091e-20)
(1.0468 0.722149 1.35743e-20)
(1.1597 0.404363 0)
(1.31916 -0.0755869 1.81549e-22)
(1.27241 -0.456429 0)
(1.10882 -0.633047 -2.1734e-21)
(0.999884 -0.607082 8.68677e-21)
(0.949286 -0.59808 -6.31071e-21)
(0.730598 -0.530957 0)
(0.4836 -0.434286 -1.66655e-22)
(0.391928 -0.386826 0)
(0.259715 -0.224062 2.50951e-22)
(0.174887 0.062061 0)
(0.200687 0.30279 0)
(0.23788 0.438208 -1.36046e-20)
(0.278603 0.512185 2.20266e-20)
(0.211716 0.612346 -1.81808e-20)
(0.135086 0.605106 9.48601e-21)
(0.118431 0.389506 -5.87324e-22)
(0.222134 0.116571 8.59068e-21)
(0.356302 -0.155875 -7.642e-21)
(0.505631 -0.39428 -3.42603e-21)
(0.637106 -0.489864 9.34517e-22)
(0.667121 -0.539442 2.28418e-21)
(0.623424 -0.614499 -5.73254e-21)
(0.620117 -0.544761 6.50957e-21)
(0.489536 -0.317741 0)
(0.448628 0.0650321 1.22642e-20)
(0.44724 0.334391 -5.68142e-21)
(0.486515 0.534591 -9.2708e-21)
(0.461318 0.510278 0)
(0.72574 0.193265 6.10608e-22)
(0.796971 -0.224998 -5.71584e-22)
(0.840815 -0.368738 5.51192e-22)
(0.750562 -0.291241 0)
(0.639937 -0.0726143 1.0663e-21)
(0.532983 0.225685 2.79103e-21)
(0.544805 0.431642 -1.83689e-21)
(0.514749 0.424293 -6.80946e-22)
(0.543933 0.342783 0)
(0.488629 0.0667572 0)
(0.612611 -0.148575 6.58984e-23)
(0.748633 -0.0680486 1.33643e-20)
(0.685043 -0.0233008 -1.29031e-20)
(0.609248 0.184713 0)
(0.625459 0.326106 2.08312e-23)
(0.776363 0.224085 7.69868e-23)
(0.966125 0.00775465 0)
(1.12033 -0.0931709 0)
(1.14092 0.103679 1.53377e-22)
(1.11946 0.506586 -2.83374e-24)
(1.07409 0.701324 1.15706e-22)
(1.15034 0.474769 -2.05527e-22)
(1.27226 0.0682181 0)
(1.3233 -0.237489 0)
(1.21592 -0.416487 -1.47772e-22)
(1.11031 -0.530899 2.02157e-22)
(1.00002 -0.542586 0)
(0.860686 -0.455577 -1.28235e-20)
(0.697246 -0.363766 1.25313e-20)
(0.538112 -0.315411 6.95179e-21)
(0.359893 -0.193816 -6.93313e-21)
(0.259377 0.0399436 0)
(0.254081 0.27109 -6.0862e-21)
(0.313849 0.429261 5.71294e-21)
(0.27624 0.568852 -1.52774e-20)
(0.203456 0.589988 -6.14853e-21)
(0.173433 0.467136 2.06915e-20)
(0.12044 0.303467 2.64397e-20)
(0.193796 0.0673695 -2.61497e-20)
(0.324442 -0.198883 0)
(0.506373 -0.434894 0)
(0.635241 -0.509803 0)
(0.652336 -0.526689 3.21605e-22)
(0.566254 -0.605032 0)
(0.531858 -0.55676 -9.53375e-21)
(0.410939 -0.32193 2.13418e-20)
(0.343815 0.0672274 -1.4749e-20)
(0.298337 0.340211 3.03367e-21)
(0.320076 0.541385 8.10344e-22)
(0.380602 0.480243 -9.83787e-22)
(0.705489 0.165465 3.77079e-22)
(0.754119 -0.220063 0)
(0.779487 -0.360455 -5.56182e-23)
(0.696635 -0.284695 4.37808e-22)
(0.593751 -0.0641883 0)
(0.47801 0.22458 0)
(0.502644 0.427501 0)
(0.471638 0.425193 2.09493e-22)
(0.510872 0.347508 -3.02273e-22)
(0.46235 0.0608535 -4.57817e-23)
(0.599224 -0.1602 -6.57021e-23)
(0.791717 -0.104342 -5.67806e-21)
(0.757186 -0.0431444 5.47731e-21)
(0.702929 0.143459 -1.36563e-20)
(0.695009 0.293964 1.31072e-20)
(0.825542 0.223472 -8.05031e-23)
(0.967563 -0.00724869 0)
(0.985537 -0.138839 2.42362e-23)
(0.912243 0.0446363 -2.37675e-22)
(0.843505 0.393443 -1.05436e-20)
(0.828823 0.611483 1.03927e-20)
(0.993928 0.468648 8.91737e-21)
(1.19021 0.0916915 4.73474e-22)
(1.26507 -0.229546 -8.63168e-21)
(1.21094 -0.398895 1.53809e-22)
(1.08016 -0.440901 -2.10282e-22)
(0.860709 -0.425816 -1.67953e-20)
(0.682109 -0.378718 3.21043e-20)
(0.614904 -0.290501 -1.1734e-21)
(0.517829 -0.238845 -1.3469e-20)
(0.374489 -0.154685 8.31832e-21)
(0.304283 0.0176713 -8.1863e-21)
(0.328569 0.200637 0)
(0.342593 0.383173 6.72991e-21)
(0.336111 0.559491 -2.09138e-20)
(0.308701 0.650432 1.41561e-20)
(0.214416 0.698194 -3.10612e-20)
(0.173464 0.48287 2.91297e-20)
(0.229207 0.117901 -2.89921e-20)
(0.351193 -0.213419 2.70307e-20)
(0.524743 -0.477292 1.22223e-20)
(0.637229 -0.546383 -1.14693e-20)
(0.630418 -0.516726 2.56151e-21)
(0.52733 -0.573438 -2.56935e-21)
(0.450419 -0.531173 0)
(0.31538 -0.314965 1.41211e-21)
(0.215134 0.0513736 1.73835e-21)
(0.127615 0.312885 -1.07568e-20)
(0.148117 0.500095 9.66915e-21)
(0.339773 0.416674 -8.03203e-22)
(0.676289 0.132459 9.40739e-22)
(0.708339 -0.218343 0)
(0.719216 -0.348257 -6.213e-22)
(0.637471 -0.258046 1.39578e-21)
(0.548433 -0.0348664 4.49227e-22)
(0.44582 0.236407 -1.52837e-21)
(0.477034 0.42835 0)
(0.441919 0.424682 2.69168e-22)
(0.481442 0.348039 -3.37923e-22)
(0.443097 0.05202 -8.10679e-23)
(0.591565 -0.174187 0)
(0.773529 -0.125142 -2.43418e-21)
(0.74929 -0.105731 2.35161e-21)
(0.726318 0.000143516 1.20451e-20)
(0.756332 0.152837 -2.55017e-20)
(0.876278 0.147986 2.66327e-20)
(1.0221 0.0305514 -1.28776e-20)
(1.00262 -0.0951091 -2.55306e-23)
(0.806729 0.0168925 8.15892e-23)
(0.621936 0.356907 -1.02564e-22)
(0.667801 0.541871 -2.66603e-23)
(0.939113 0.434794 -8.11565e-23)
(1.22137 0.163412 7.67664e-23)
(1.29996 -0.0638955 -1.3311e-20)
(1.2051 -0.212976 1.27936e-20)
(1.02051 -0.301149 0)
(0.867701 -0.325095 1.33358e-22)
(0.705466 -0.343628 -1.28185e-22)
(0.598241 -0.307559 0)
(0.542235 -0.225262 1.55e-20)
(0.440027 -0.155578 -1.47235e-20)
(0.411483 -0.0361432 -1.9614e-22)
(0.40032 0.160224 -4.4216e-21)
(0.400335 0.348077 4.25352e-21)
(0.407651 0.539879 -1.98291e-22)
(0.373187 0.674408 -2.14837e-20)
(0.30752 0.613719 2.04566e-20)
(0.277716 0.401616 0)
(0.286257 0.113134 0)
(0.381508 -0.209487 -2.54202e-20)
(0.527778 -0.489237 2.56461e-20)
(0.633342 -0.56692 7.21086e-23)
(0.609759 -0.515124 1.87947e-22)
(0.501919 -0.555746 6.80009e-21)
(0.409425 -0.523083 -7.31457e-21)
(0.265169 -0.30198 -9.71308e-21)
(0.123929 0.0715602 9.33283e-21)
(-0.0174845 0.337449 0)
(0.0280741 0.486876 2.74529e-21)
(0.328704 0.367655 -3.39414e-21)
(0.631099 0.110627 -6.89153e-23)
(0.653735 -0.2082 -1.10303e-21)
(0.669465 -0.342183 1.01228e-21)
(0.606582 -0.260354 0)
(0.537976 -0.0380593 0)
(0.445879 0.230916 -1.22069e-21)
(0.462154 0.424867 1.17096e-21)
(0.419483 0.426643 3.31865e-22)
(0.449346 0.352474 -9.0632e-23)
(0.433487 0.0433341 4.02243e-24)
(0.588653 -0.188154 0)
(0.870378 -0.151812 -6.35748e-24)
(0.822867 -0.0976477 0)
(0.780284 -0.05518 -8.02247e-21)
(0.772811 0.0261291 1.94481e-20)
(0.853296 0.0414186 -1.12557e-20)
(0.8997 0.000209252 5.08697e-23)
(0.870616 -0.0194837 0)
(0.68768 0.0427947 0)
(0.560918 0.235264 0)
(0.687597 0.37863 2.82515e-23)
(0.911123 0.325898 1.61075e-20)
(1.15318 0.130995 -1.5491e-20)
(1.21901 -0.0270722 -1.74572e-20)
(1.24495 -0.124229 1.68055e-20)
(1.22111 -0.204076 0)
(1.12016 -0.226107 1.5807e-22)
(1.00131 -0.236668 2.15831e-20)
(0.822256 -0.248144 -4.24692e-20)
(0.664446 -0.198731 1.39535e-21)
(0.575595 -0.142981 3.48609e-20)
(0.521936 -0.0564124 -1.54369e-20)
(0.466604 0.094908 -8.60542e-21)
(0.483073 0.2765 8.26641e-21)
(0.457418 0.501404 -5.87715e-23)
(0.490579 0.677731 2.19447e-22)
(0.425968 0.781202 -3.58954e-20)
(0.379951 0.618948 3.44682e-20)
(0.381713 0.20331 0)
(0.449223 -0.211495 -3.41237e-20)
(0.581987 -0.535354 5.29102e-20)
(0.649159 -0.598187 -2.00881e-20)
(0.615652 -0.502564 0)
(0.509203 -0.522991 1.86331e-22)
(0.398432 -0.505576 2.30527e-22)
(0.266943 -0.302839 1.47242e-20)
(0.0656692 0.0733606 -1.41208e-20)
(-0.142893 0.309511 0)
(-0.0341349 0.406943 -3.84105e-21)
(0.326992 0.286833 3.68069e-21)
(0.577328 0.0851538 -1.40011e-21)
(0.596138 -0.205242 1.19326e-21)
(0.618295 -0.333648 4.7043e-23)
(0.575408 -0.242824 0)
(0.526952 -0.016004 0)
(0.448607 0.241953 -1.05558e-21)
(0.453461 0.431147 1.01041e-21)
(0.407088 0.430436 0)
(0.418781 0.351078 0)
(0.43262 0.0295339 1.39551e-22)
(0.587783 -0.202876 -5.98634e-23)
(0.880622 -0.125027 0)
(0.865237 -0.0891785 0)
(0.869585 -0.0515805 0)
(0.854387 0.0157054 0)
(0.915478 0.0577549 0)
(0.890347 0.0236014 0)
(0.871968 -0.000265036 0)
(0.801958 0.0804169 0)
(0.756979 0.193535 0)
(0.904316 0.265192 0)
(1.06598 0.242722 0)
(1.19561 0.128239 0)
(1.18708 0.0108412 0)
(1.14295 -0.0964038 0)
(1.10733 -0.174182 0)
(1.04573 -0.200135 0)
(1.05103 -0.207544 0)
(1.00107 -0.195045 0)
(0.833328 -0.161626 0)
(0.711648 -0.134476 0)
(0.608104 -0.0661221 0)
(0.543112 0.0709407 0)
(0.558928 0.234467 0)
(0.541212 0.424263 0)
(0.594873 0.625795 0)
(0.526601 0.726162 0)
(0.507154 0.559276 0)
(0.458921 0.255319 0)
(0.550903 -0.121288 0)
(0.688751 -0.457835 0)
(0.714672 -0.564812 0)
(0.625098 -0.468063 0)
(0.522569 -0.490358 0)
(0.419875 -0.500737 0)
(0.269883 -0.284946 0)
(0.0206012 0.12383 0)
(-0.180059 0.347554 0)
(0.0125941 0.38935 0)
(0.342987 0.256549 0)
(0.519673 0.0820111 0)
(0.541947 -0.204832 0)
(0.580875 -0.347273 0)
(0.57233 -0.26596 0)
(0.541733 -0.0347231 0)
(0.469693 0.234991 0)
(0.457512 0.433612 0)
(0.394687 0.436897 0)
(0.392374 0.354646 0)
(0.434783 0.017378 0)
(0.585784 -0.215268 0)
(0.917968 -0.0939091 0)
(0.881006 -0.0634577 0)
(0.890891 -0.0372453 0)
(0.844406 -0.00184847 0)
(0.896902 0.0235653 0)
(0.905289 0.0279207 0)
(0.882417 0.0379803 0)
(0.875383 0.112803 0)
(0.900581 0.179572 0)
(0.998608 0.182662 0)
(1.07421 0.171659 0)
(1.16552 0.0862923 0)
(1.15969 0.000906109 0)
(1.1441 -0.0696461 0)
(1.06779 -0.13005 0)
(0.925478 -0.153557 0)
(0.866666 -0.172327 0)