/*--------------------------------*- C++ -*----------------------------------*\
| =========                 |                                                 |
| \\      /  F ield         | OpenFOAM: The Open Source CFD Toolbox           |
|  \\    /   O peration     | Version:  2312                                  |
|   \\  /    A nd           | Website:  www.openfoam.com                      |
|    \\/     M anipulation  |                                                 |
\*---------------------------------------------------------------------------*/
FoamFile
{
    version     2.0;
    format      ascii;
    arch        "LSB;label=32;scalar=64";
    class       volVectorField;
    location    "194.75";
    object      U;
}
// * * * * * * * * * * * * * * * * * * * * * * * * * * * * * * * * * * * * * //

dimensions      [0 1 -1 0 0 0 0];

internalField   nonuniform List<vector> 
5478
(
(-0.0391735 0.0266894 -1.30727e-19)
(-0.04779 0.0411716 0)
(0.0214803 0.0336341 1.9615e-19)
(0.184482 0.0107086 -3.4377e-19)
(0.438136 -0.0164672 2.25252e-19)
(0.73451 -0.0405668 -6.67294e-20)
(1.01118 -0.0603862 -1.16451e-19)
(1.22174 -0.0784934 0)
(1.34609 -0.0979753 0)
(1.38861 -0.119696 1.41475e-19)
(1.37461 -0.142095 -6.75448e-20)
(1.3363 -0.159147 -1.03849e-19)
(1.29074 -0.182551 -3.82688e-20)
(1.25949 -0.174466 0)
(1.20793 -0.216573 8.87053e-20)
(-0.0437023 0.0260732 2.62417e-19)
(-0.0196302 0.0241034 0)
(0.12557 0.00239883 0)
(0.399383 -0.0195065 -1.73228e-19)
(0.734434 -0.0311564 2.28161e-19)
(1.03574 -0.0354114 6.56708e-20)
(1.24728 -0.0393345 -1.10207e-19)
(1.35822 -0.0481253 9.77343e-20)
(1.38934 -0.0628663 2.34446e-19)
(1.3756 -0.0810153 -2.0388e-19)
(1.34804 -0.0972223 4.57425e-21)
(1.31813 -0.114211 0)
(1.29122 -0.120772 3.82001e-20)
(1.25635 -0.129429 0)
(1.22006 -0.137445 0)
(-0.0397575 0.0216595 -6.96324e-22)
(0.0425046 0.00459416 -1.22649e-19)
(0.302821 -0.0166669 7.17497e-22)
(0.678165 -0.0186734 0)
(1.01949 -0.00991244 -7.61709e-20)
(1.24653 -0.00319415 6.40358e-20)
(1.35678 -0.00473349 5.34969e-20)
(1.38682 -0.0142491 0)
(1.37874 -0.027717 -7.808e-20)
(1.35947 -0.0410285 6.48259e-20)
(1.33561 -0.0543564 5.33614e-20)
(1.30885 -0.0630521 0)
(1.27546 -0.0746884 0)
(1.24407 -0.0777772 -1.03072e-19)
(1.2103 -0.0900773 9.18546e-20)
(-0.0237491 0.0121325 -1.42801e-19)
(0.152293 -0.0158285 1.21043e-19)
(0.544349 -0.0131832 -1.04534e-19)
(0.949337 0.0111051 9.117e-20)
(1.22081 0.0301894 1.52145e-19)
(1.35214 0.0360323 -1.26857e-19)
(1.39288 0.0313039 -5.34717e-20)
(1.39136 0.0215099 4.13422e-20)
(1.37401 0.0102 -3.95837e-20)
(1.34889 -0.00195392 0)
(1.32035 -0.0126197 0)
(1.29005 -0.0248442 -7.50166e-20)
(1.26341 -0.0317964 9.6694e-20)
(1.23761 -0.0395838 -5.41518e-20)
(1.21265 -0.0480586 0)
(0.00971315 -0.000690345 7.22252e-20)
(0.319086 -0.0224144 6.09386e-20)
(0.798346 0.0191431 -2.17739e-19)
(1.15476 0.0589945 2.9591e-21)
(1.3361 0.0768617 -2.77881e-21)
(1.39904 0.078034 -1.90017e-21)
(1.40342 0.0708519 5.00707e-20)
(1.38409 0.0602361 4.25775e-20)
(1.35655 0.0481256 3.05327e-20)
(1.32861 0.0363405 -4.81006e-21)
(1.30242 0.0244234 -6.9608e-20)
(1.27893 0.0152264 0)
(1.25476 0.00635124 3.08806e-20)
(1.23031 -0.0027059 -2.25649e-20)
(1.20628 -0.00734777 4.10587e-20)
(0.0672424 -0.0112298 -1.5418e-19)
(0.526242 0.00181162 1.66945e-19)
(1.0117 0.0735979 -5.6673e-20)
(1.289 0.115635 4.28198e-20)
(1.39651 0.12733 -7.85702e-20)
(1.41413 0.122892 -5.8306e-20)
(1.39594 0.112044 1.52393e-21)
(1.36839 0.0992227 0)
(1.34145 0.08631 6.21507e-20)
(1.31599 0.0736109 -5.52689e-20)
(1.29119 0.0621711 2.20632e-20)
(1.26572 0.0508253 0)
(1.24122 0.0408184 1.3594e-20)
(1.21846 0.0317144 -2.34983e-20)
(1.19605 0.0256161 0)
(0.150835 -0.0107375 -1.92664e-20)
(0.729775 0.0581092 1.34706e-21)
(1.16989 0.142142 2.80884e-20)
(1.36822 0.177862 4.62739e-20)
(1.41915 0.180603 -3.51867e-20)
(1.40856 0.169653 5.92402e-20)
(1.38083 0.155176 -1.34278e-20)
(1.35133 0.140216 0)
(1.32272 0.125243 -3.66793e-20)
(1.29556 0.110963 2.37662e-21)
(1.27022 0.0972365 3.06872e-20)
(1.24762 0.0849958 0)
(1.22689 0.0740594 -1.99016e-20)
(1.20692 0.063435 0)
(1.1889 0.0588056 1.21591e-20)
(0.254343 0.00773873 -2.06701e-20)
(0.897872 0.135187 0)
(1.27395 0.219474 2.87153e-20)
(1.40408 0.243709 0)
(1.41656 0.235913 0)
(1.3908 0.218496 0)
(1.35801 0.199765 -1.1509e-20)
(1.32668 0.181176 0)
(1.29882 0.163348 7.40597e-21)
(1.27411 0.146673 0)
(1.25167 0.131438 -9.63567e-21)
(1.23022 0.117279 0)
(1.20969 0.103961 6.3009e-21)
(1.19087 0.09285 0)
(1.17256 0.085583 4.11129e-21)
(-0.00787828 0.203318 -1.46302e-20)
(-0.0267577 0.338967 0)
(-0.059047 0.357003 2.30489e-20)
(-0.0909515 0.338512 0)
(-0.118706 0.309138 0)
(-0.140531 0.268847 0)
(-0.155338 0.213692 -1.64673e-20)
(-0.163024 0.141102 0)
(-0.164275 0.0507754 1.42553e-20)
(-0.158929 -0.0571238 0)
(-0.145055 -0.178585 -2.36213e-20)
(-0.124718 -0.308098 0)
(-0.0931193 -0.436271 1.77508e-20)
(-0.0702828 -0.554639 0)
(-0.0181064 -0.651259 1.16734e-20)
(-0.0183922 0.198346 7.47183e-20)
(-0.0319 0.352874 -5.37065e-20)
(-0.0432843 0.384243 2.51041e-20)
(-0.0507061 0.368682 8.70241e-20)
(-0.0518724 0.336208 1.69665e-21)
(-0.0446781 0.290976 -7.29058e-20)
(-0.0287806 0.230543 4.95431e-20)
(-0.00470309 0.153096 0)
(0.0250854 0.0580292 4.6074e-20)
(0.0605841 -0.0527456 1.39443e-21)
(0.104969 -0.176114 -2.54011e-20)
(0.152353 -0.31086 0)
(0.219389 -0.437896 -5.50775e-20)
(0.259391 -0.561993 0)
(0.343146 -0.640384 -5.63526e-20)
(-0.0259944 0.172627 1.24751e-19)
(-0.0361599 0.336263 2.73454e-20)
(-0.0271046 0.383235 -4.80349e-20)
(-0.00943625 0.373845 -1.33062e-19)
(0.0166279 0.340585 7.91554e-20)
(0.0519456 0.292672 7.66395e-20)
(0.0962398 0.230274 -1.37076e-19)
(0.14752 0.152291 0)
(0.204305 0.0577915 -1.23279e-19)
(0.267946 -0.0524442 1.09611e-19)
(0.342347 -0.175081 4.97427e-20)
(0.42017 -0.317061 0)
(0.518376 -0.441879 3.73032e-20)
(0.574745 -0.569803 -5.95029e-20)
(0.677286 -0.640898 0)
(-0.0291396 0.133091 6.38516e-20)
(-0.0402585 0.290186 -1.67441e-19)
(-0.0168254 0.35038 1.97908e-19)
(0.0214745 0.350076 -1.75439e-19)
(0.0706282 0.319218 -7.94839e-20)
(0.129349 0.27092 7.28341e-20)
(0.196255 0.208668 6.9144e-20)
(0.270172 0.132636 6.24445e-20)
(0.352451 0.0429316 -1.78087e-19)
(0.448838 -0.0649592 -2.45457e-21)
(0.559932 -0.184322 4.77003e-20)
(0.679438 -0.323702 0)
(0.800414 -0.437541 6.89003e-20)
(0.871224 -0.55731 1.66849e-19)
(0.960874 -0.601454 -9.55378e-20)
(-0.0282659 0.0910627 1.74352e-22)
(-0.0436372 0.224833 1.11881e-19)
(-0.0147609 0.289231 -9.77872e-20)
(0.036048 0.296624 8.78149e-20)
(0.101449 0.270228 1.56892e-19)
(0.177873 0.224162 -1.43132e-19)
(0.264091 0.164279 -6.45282e-20)
(0.364179 0.0924847 -1.86832e-19)
(0.483172 0.00582273 1.68237e-19)
(0.627192 -0.0990276 0)
(0.783908 -0.209793 0)
(0.940558 -0.334148 1.53512e-19)
(1.06332 -0.415759 -3.30577e-19)
(1.13044 -0.516063 1.11404e-19)
(1.16793 -0.50967 0)
(-0.0260896 0.0569679 7.78587e-22)
(-0.0463303 0.156839 -1.10755e-19)
(-0.0194054 0.212564 2.93034e-19)
(0.0359906 0.221078 -8.573e-20)
(0.112078 0.197932 -7.74681e-20)
(0.207074 0.155423 7.03524e-20)
(0.32581 0.0989925 6.45651e-20)
(0.474774 0.0293899 1.17827e-19)
(0.654082 -0.0551354 -2.07602e-19)
(0.850712 -0.147593 9.19143e-20)
(1.03667 -0.240769 7.9886e-20)
(1.18425 -0.32725 0)
(1.26475 -0.386124 0)
(1.28335 -0.44067 1.71027e-19)
(1.2441 -0.432328 -1.521e-19)
(-0.0264992 0.0360257 6.8723e-23)
(-0.0502015 0.101002 0)
(-0.02648 0.137585 0)
(0.0344059 0.139053 1.69467e-19)
(0.131659 0.114906 -7.49015e-20)
(0.271397 0.0737763 6.67176e-20)
(0.456968 0.0199499 1.23377e-19)
(0.677689 -0.0425492 -1.09386e-19)
(0.908643 -0.110825 1.03086e-19)
(1.11531 -0.174349 -9.20049e-20)
(1.26776 -0.237846 -8.3883e-21)
(1.34515 -0.283304 0)
(1.35317 -0.319022 4.77314e-20)
(1.30286 -0.346479 0)
(1.23884 -0.326573 0)
(-0.0316543 0.0276266 -1.27791e-19)
(-0.0540289 0.0635941 0)
(-0.0218901 0.0770975 -1.93601e-19)
(0.0678594 0.0658343 3.39785e-19)
(0.225227 0.0369884 -3.73789e-19)
(0.448084 -0.00128769 -6.80449e-20)
(0.708898 -0.0429635 1.18161e-19)
(0.966182 -0.0844827 0)
(1.17921 -0.123475 0)
(1.32135 -0.160477 -1.56418e-19)
(1.38135 -0.194953 -6.2505e-20)
(1.37558 -0.219692 1.15901e-19)
(1.32583 -0.246535 -4.78327e-20)
(1.2646 -0.254853 0)
(1.2204 -0.253191 -1.03231e-19)
(0.00213632 -0.778742 0)
(-0.0115913 -0.869198 3.25655e-21)
(0.0239883 -0.666871 -3.01451e-21)
(0.336742 -0.119458 0)
(0.550948 0.335595 0)
(0.707228 0.622189 -8.78937e-23)
(0.766392 0.617034 0)
(0.734294 0.663021 0)
(0.57943 0.719946 7.32389e-23)
(0.581454 0.352393 0)
(0.754145 -0.0256526 0)
(0.933503 -0.314218 -1.21269e-22)
(0.931696 -0.384348 0)
(0.939089 -0.53807 -9.12948e-23)
(0.9586 -0.599475 -7.10266e-23)
(0.947565 -0.312119 0)
(0.959003 -0.134525 -6.19913e-22)
(1.01732 0.338824 7.54141e-22)
(1.03981 0.533522 0)
(1.02775 0.457456 4.3507e-22)
(1.07435 0.37797 -5.59184e-22)
(1.0806 -0.234623 1.10653e-22)
(1.08648 -0.498434 -2.04296e-22)
(1.07712 -0.397932 1.95211e-22)
(1.12604 -0.28494 -2.41553e-22)
(1.14747 0.471184 0)
(1.14233 0.709615 -2.48629e-22)
(1.13433 -0.135854 2.37723e-22)
(1.03718 -0.507421 -1.30804e-22)
(1.04303 -0.0190989 0)
(1.0089 0.207526 -9.33219e-23)
(0.99042 0.0307322 0)
(0.983121 -0.0520124 -3.8357e-23)
(0.97727 -0.00770669 -1.22178e-23)
(0.973855 0.0124708 1.23586e-24)
(0.968496 0.00388886 -8.65582e-24)
(0.968031 -9.55983e-05 0)
(0.963015 0.00115083 2.46038e-24)
(0.337026 -0.742694 2.06386e-20)
(0.231433 -0.812253 -9.66244e-23)
(0.0185898 -0.737789 -8.32303e-21)
(0.161507 -0.276353 7.93837e-21)
(0.380537 0.196142 0)
(0.597877 0.539797 8.8591e-23)
(0.723184 0.597468 -1.30723e-22)
(0.668469 0.705748 0)
(0.570315 0.756437 -7.37962e-23)
(0.641124 0.322243 0)
(0.805789 -0.109193 0)
(0.979303 -0.354073 1.22129e-22)
(0.9871 -0.389295 0)
(0.988861 -0.54278 2.80774e-21)
(0.981964 -0.611263 -2.36881e-21)
(0.982703 -0.312694 2.34404e-21)
(0.948821 -0.150159 -2.23756e-21)
(0.9909 0.318398 -1.63248e-22)
(1.02612 0.520874 0)
(0.986753 0.451633 0)
(1.07427 0.3708 -1.01818e-22)
(1.09098 -0.224286 1.02289e-21)
(1.08457 -0.501199 -1.6863e-21)
(1.09614 -0.400719 7.9068e-22)
(1.0956 -0.296009 7.78611e-22)
(1.12194 0.465048 0)
(1.15212 0.703124 4.4944e-22)
(1.15203 -0.117717 0)
(1.04091 -0.503093 1.31258e-22)
(1.03194 -0.0180321 -2.53564e-22)
(1.00562 0.209075 4.29781e-22)
(0.99567 0.0328941 -4.15763e-23)
(0.986892 -0.0510667 7.17699e-23)
(0.978937 -0.00712512 2.74134e-24)
(0.976006 0.0129887 1.49952e-23)
(0.971536 0.00422811 -7.21294e-24)
(0.970983 0.000212083 -6.68926e-25)
(0.96617 0.00143363 6.499e-25)
(0.640148 -0.696204 2.74294e-20)
(0.573194 -0.677701 -4.30707e-20)
(0.266464 -0.687742 5.75466e-21)
(0.155178 -0.432354 1.00059e-20)
(0.340079 -0.00066197 6.35177e-23)
(0.574856 0.418856 -8.46518e-23)
(0.72546 0.583724 1.32988e-22)
(0.643444 0.746718 -2.73471e-22)
(0.599285 0.778021 0)
(0.731724 0.310279 1.26708e-20)
(0.890954 -0.161442 -1.20836e-20)
(1.02502 -0.385014 -2.79186e-22)
(1.03001 -0.382618 0)
(1.01217 -0.525584 -5.60522e-21)
(0.975435 -0.61854 5.19375e-21)
(1.0082 -0.316163 -2.47736e-21)
(0.940604 -0.16047 2.364e-21)
(0.961966 0.30058 2.79158e-21)
(1.00953 0.516574 -2.33511e-21)
(0.95229 0.448463 0)
(1.06993 0.363251 0)
(1.09846 -0.203958 1.64333e-21)
(1.07704 -0.496714 -1.56875e-21)
(1.10726 -0.401234 -1.97774e-21)
(1.05521 -0.308181 -5.74231e-22)
(1.09186 0.451707 2.39181e-21)
(1.1564 0.698743 -4.66875e-23)
(1.16259 -0.0904552 -5.67774e-22)
(1.03944 -0.490497 1.34089e-21)
(1.0168 -0.0179719 -1.14674e-21)
(0.999208 0.20965 4.85769e-23)
(0.997487 0.0359329 -1.36525e-22)
(0.987435 -0.0492414 5.1311e-23)
(0.977581 -0.00645523 -4.90605e-23)
(0.97519 0.0134128 -9.85854e-24)
(0.971719 0.0045539 -4.71875e-24)
(0.971094 0.000523239 1.57734e-23)
(0.966659 0.00170262 2.48135e-24)
(0.865968 -0.683275 0)
(0.814721 -0.58098 1.46162e-20)
(0.620757 -0.528311 -1.43917e-20)
(0.343762 -0.463652 0)
(0.377934 -0.199658 -6.52828e-23)
(0.605957 0.254683 8.69826e-23)
(0.743977 0.531314 0)
(0.624858 0.753869 2.54296e-23)
(0.622769 0.7861 -3.16424e-22)
(0.81924 0.314757 0)
(0.985227 -0.183563 -1.12548e-20)
(1.07048 -0.408473 1.10158e-20)
(1.07704 -0.375813 -4.30969e-22)
(1.04847 -0.495801 -5.70093e-21)
(0.968534 -0.624746 5.43587e-21)
(1.02967 -0.331307 3.01385e-22)
(0.941409 -0.172852 0)
(0.939285 0.264513 -3.52381e-22)
(0.980476 0.496691 3.4907e-21)
(0.912315 0.439735 -7.12295e-22)
(1.05412 0.356403 1.18855e-22)
(1.10074 -0.182035 -2.18374e-21)
(1.06842 -0.49062 -2.85245e-21)
(1.10856 -0.402404 3.46522e-21)
(1.01073 -0.31735 -5.92179e-22)
(1.05459 0.419353 0)
(1.14571 0.680738 -4.12709e-22)
(1.16413 -0.0658269 5.7525e-22)
(1.03535 -0.475412 -1.32889e-21)
(0.998365 -0.0216357 1.13239e-21)
(0.989115 0.20726 -1.84172e-22)
(0.995469 0.0383893 0)
(0.984787 -0.0472374 -5.09504e-23)
(0.973404 -0.00596434 9.60318e-23)
(0.971605 0.01365 3.12289e-23)
(0.969183 0.00482443 2.89307e-23)
(0.968504 0.000814248 -1.57845e-23)
(0.964598 0.0019457 3.40056e-27)
(1.05094 -0.594004 4.38796e-22)
(0.913084 -0.554815 5.95359e-22)
(0.833518 -0.415946 0)
(0.615104 -0.354816 0)
(0.469149 -0.30965 0)
(0.57974 0.0805352 0)
(0.715419 0.492844 7.47922e-21)
(0.614769 0.74959 -1.61276e-20)
(0.64889 0.759131 9.2538e-21)
(0.885126 0.312181 0)
(1.073 -0.18222 -1.12785e-20)
(1.11739 -0.415766 1.11161e-20)
(1.10393 -0.368127 6.97272e-21)
(1.07447 -0.454869 -5.87518e-21)
(0.960262 -0.622553 5.36338e-21)
(1.03634 -0.354795 -5.42227e-21)
(0.940118 -0.183275 -3.54101e-22)
(0.91006 0.244136 -5.14339e-21)
(0.952806 0.496166 4.9015e-21)
(0.885839 0.435058 3.00894e-22)
(1.03726 0.349375 2.55581e-22)
(1.09983 -0.154774 2.34595e-21)
(1.05987 -0.479451 -2.57322e-21)
(1.09789 -0.399719 -7.75839e-22)
(0.961853 -0.328321 -6.47265e-22)
(1.01192 0.388428 -6.99995e-22)
(1.1318 0.674776 0)
(1.15901 -0.0315318 0)
(1.02901 -0.454295 0)
(0.977938 -0.0253882 0)
(0.977018 0.204598 4.52906e-22)
(0.990558 0.0415225 -2.53759e-22)
(0.979576 -0.0445543 1.00763e-22)
(0.966919 -0.00539022 -2.91168e-22)
(0.965663 0.0137985 3.16131e-23)
(0.964227 0.00507833 5.59557e-24)
(0.963508 0.00109528 -1.94725e-23)
(0.960231 0.00216171 -6.18792e-24)
(1.1369 -0.480962 -4.62113e-22)
(0.973725 -0.478791 3.15754e-20)
(0.854049 -0.39631 -3.03691e-20)
(0.78263 -0.277924 -7.99124e-21)
(0.647991 -0.300174 7.6101e-21)
(0.553551 -0.0815359 4.97482e-21)
(0.610192 0.388185 -4.54745e-21)
(0.50237 0.714705 1.71173e-22)
(0.589919 0.745481 -2.84656e-22)
(0.904107 0.333593 0)
(1.13969 -0.145018 -4.07601e-22)
(1.17045 -0.396599 1.71242e-20)
(1.13189 -0.353187 -1.63026e-20)
(1.10353 -0.408246 -3.58697e-22)
(0.97115 -0.610144 0)
(1.0307 -0.385015 -5.92342e-21)
(0.940966 -0.197904 1.19509e-20)
(0.888572 0.196636 -5.54719e-21)
(0.916249 0.465857 0)
(0.847614 0.426492 1.92845e-21)
(1.00971 0.349162 -3.73398e-22)
(1.09411 -0.124716 -1.92376e-21)
(1.0545 -0.464897 -3.24473e-21)
(1.0771 -0.395872 3.13695e-21)
(0.916508 -0.336149 -5.65822e-21)
(0.966041 0.338495 1.10416e-21)
(1.09927 0.651893 4.41476e-21)
(1.14263 -0.0014567 -1.28021e-21)
(1.02199 -0.433571 1.21725e-21)
(0.956137 -0.0326733 -5.33341e-22)
(0.961903 0.198839 5.07159e-22)
(0.982436 0.0440517 0)
(0.972106 -0.041823 9.92736e-23)
(0.958587 -0.00505222 -1.23173e-23)
(0.957806 0.0137562 0)
(0.957251 0.00526534 -2.75021e-23)
(0.956523 0.00133505 1.28681e-23)
(0.953911 0.00233892 -2.43477e-24)
(1.12708 -0.39504 0)
(1.02428 -0.385462 0)
(0.865689 -0.356597 -1.0285e-22)
(0.799326 -0.268408 0)
(0.789619 -0.258428 0)
(0.623334 -0.119632 1.87691e-21)
(0.552863 0.326976 -1.78177e-21)
(0.481534 0.662003 1.12855e-20)
(0.621093 0.659969 -1.0776e-20)
(0.959376 0.284055 0)
(1.19923 -0.140323 -3.46794e-22)
(1.20971 -0.384229 2.8456e-22)
(1.14908 -0.346354 -1.32834e-20)
(1.11888 -0.364542 1.27156e-21)
(0.990105 -0.587429 1.05958e-20)
(1.01451 -0.41515 1.71318e-22)
(0.931064 -0.216505 -1.94017e-22)
(0.859813 0.179001 1.07637e-20)
(0.878186 0.469016 -1.06184e-20)
(0.825566 0.417805 0)
(0.991795 0.33962 0)
(1.08989 -0.0954328 -9.38887e-23)
(1.0524 -0.44447 0)
(1.05131 -0.385516 4.3348e-21)
(0.873064 -0.347398 2.09306e-21)
(0.915795 0.298701 -5.39636e-21)
(1.07126 0.647863 -2.23184e-21)
(1.12483 0.0327382 1.45963e-21)
(1.01564 -0.409478 -1.53677e-22)
(0.935456 -0.0382401 0)
(0.946938 0.194202 -2.47109e-22)
(0.972823 0.0467441 2.34268e-22)
(0.963352 -0.0388863 5.2284e-23)
(0.949157 -0.00453427 2.63318e-23)
(0.948667 0.013732 -4.41957e-23)
(0.948788 0.00546696 9.18952e-24)
(0.948076 0.00156974 0)
(0.946087 0.00248711 4.89209e-24)
(1.13978 -0.31289 6.33213e-20)
(1.0601 -0.326897 3.80718e-20)
(0.944416 -0.320573 -1.18367e-20)
(0.839119 -0.282604 -3.59578e-20)
(0.815028 -0.281899 1.22728e-20)
(0.703597 -0.212271 5.55056e-24)
(0.530308 0.180941 0)
(0.381636 0.588048 -5.31019e-23)
(0.537125 0.657904 -8.95924e-23)
(0.950162 0.337289 0)
(1.2349 -0.0584094 -1.99333e-20)
(1.24434 -0.324134 1.89997e-20)
(1.17228 -0.324205 2.34492e-22)
(1.13542 -0.320893 1.07763e-20)
(1.01216 -0.552534 -1.02403e-20)
(0.992843 -0.430779 1.60774e-22)
(0.912831 -0.244356 2.06129e-22)
(0.826051 0.114196 0)
(0.836973 0.425074 7.04089e-21)
(0.78557 0.412039 -6.67606e-21)
(0.956984 0.348867 -1.66809e-21)
(1.08549 -0.0548666 -1.14429e-22)
(1.05474 -0.419677 1.70525e-21)
(1.0234 -0.367295 -4.17738e-21)
(0.845753 -0.356851 -1.58513e-21)
(0.862555 0.233891 1.03694e-20)
(1.02087 0.61545 -3.67171e-21)
(1.09887 0.0695852 7.22064e-22)
(1.01022 -0.384932 -4.83194e-22)
(0.9162 -0.0472959 0)
(0.929157 0.185451 0)
(0.960825 0.0496404 0)
(0.953672 -0.0355977 4.22063e-23)
(0.939222 -0.00435591 -4.86526e-23)
(0.938797 0.0134002 3.8938e-23)
(0.939409 0.00553391 -2.589e-23)
(0.938726 0.00171091 -1.02396e-23)
(0.937251 0.00257563 0)
(1.15858 -0.207177 0)
(1.10137 -0.220163 0)
(1.01675 -0.210177 0)
(0.922327 -0.169919 0)
(0.83501 -0.157498 0)
(0.721628 -0.135337 0)
(0.576868 0.194278 0)
(0.553688 0.497611 0)
(0.839397 0.452115 0)
(1.17456 0.17925 0)
(1.32921 -0.0676158 0)
(1.26886 -0.272702 0)
(1.18019 -0.279545 0)
(1.15694 -0.245542 0)
(1.03519 -0.500284 0)
(0.973542 -0.464885 0)
(0.877526 -0.262584 0)
(0.796709 0.106841 0)
(0.7807 0.434758 0)
(0.738702 0.393239 0)
(0.963801 0.328155 0)
(1.10244 -0.0373342 0)
(1.06098 -0.394724 0)
(0.993304 -0.374407 0)
(0.812828 -0.36077 0)
(0.824369 0.192729 0)
(0.970777 0.614659 0)
(1.08741 0.0881131 0)
(1.00161 -0.36524 0)
(0.898397 -0.0509861 0)
(0.911506 0.181456 0)
(0.947381 0.0510263 0)
(0.941474 -0.032191 0)
(0.926877 -0.00346509 0)
(0.926397 0.0135886 0)
(0.927344 0.00584217 0)
(0.92667 0.00199712 0)
(0.925736 0.00271546 0)
(1.12097 -0.153273 0)
(1.07177 -0.183574 0)
(0.999201 -0.173736 0)
(0.930692 -0.147628 0)
(0.888822 -0.128481 0)
(0.815953 -0.0621235 0)
(0.736219 0.226488 0)
(0.847461 0.373987 0)
(1.11643 0.285979 0)
(1.27721 0.0934235 0)
(1.31723 -0.100123 0)
(1.23196 -0.237366 0)
(1.13782 -0.249095 0)
(1.09896 -0.273485 0)
(0.990432 -0.474275 0)
(0.924789 -0.38014 0)
(0.78856 -0.177908 0)
(0.717637 0.159592 0)
(0.674125 0.461994 0)
(0.697161 0.353905 0)
(0.975664 0.243629 0)
(1.1125 -0.0957807 0)
(1.04755 -0.374015 0)
(0.939036 -0.311505 0)
(0.726333 -0.305164 0)
(0.748177 0.197441 0)
(0.904121 0.572712 0)
(1.07763 0.0519371 0)
(0.983572 -0.33478 0)
(0.870574 -0.0262925 0)
(0.884259 0.176168 0)
(0.92999 0.0446197 0)
(0.926071 -0.0301097 0)
(0.9107 -0.00180591 0)
(0.910369 0.0133895 0)
(0.912081 0.00565803 0)
(0.911592 0.00202346 0)
(0.911271 0.00272989 0)
(1.09834 -0.102305 0)
(1.06544 -0.115904 0)
(1.0176 -0.110393 0)
(0.968854 -0.0883308 0)
(0.933423 -0.0481838 0)
(0.880552 -0.0243818 0)
(0.859946 0.167607 0)
(1.00351 0.237985 0)
(1.1593 0.16038 0)
(1.24645 0.0456031 0)
(1.26131 -0.0612585 0)
(1.18962 -0.182498 0)
(1.11577 -0.201063 0)
(1.1139 -0.185593 0)
(1.01178 -0.389758 0)
(0.861161 -0.341722 0)
(0.68948 -0.13861 0)
(0.610762 0.191112 0)
(0.593873 0.442745 0)
(0.722475 0.252835 0)
(0.977852 0.159838 0)
(1.13269 -0.0811967 0)
(1.05195 -0.325598 0)
(0.895198 -0.270752 0)
(0.639668 -0.273649 0)
(0.646408 0.161108 0)
(0.864542 0.506591 0)
(1.0933 0.0473765 0)
(0.968676 -0.299508 0)
(0.842479 -0.0191226 0)
(0.862691 0.162191 0)
(0.916999 0.0402447 0)
(0.911478 -0.0267258 0)
(0.894998 -0.000381621 0)
(0.895224 0.0129827 0)
(0.897584 0.00561026 0)
(0.897009 0.00217095 0)
(0.8971 0.00276612 0)
(1.07773 -0.0650519 0)
(1.05732 -0.074851 0)
(1.02726 -0.0713822 0)
(0.987151 -0.0605558 0)
(0.96814 -0.0264427 0)
(0.945597 -0.00664334 0)
(0.939875 0.105548 0)
(1.04425 0.128194 0)
(1.13113 0.107161 0)
(1.18662 0.0223708 0)
(1.18204 -0.0629979 0)
(1.15937 -0.129026 0)
(1.07812 -0.177407 0)
(1.03803 -0.216749 0)
(0.968204 -0.333863 0)
(0.788769 -0.210476 0)
(0.632919 -0.0429374 0)
(0.546314 0.211113 0)
(0.633005 0.392408 0)
(0.832366 0.172639 0)
(0.998181 0.0685422 0)
(1.13618 -0.12879 0)
(1.03474 -0.272726 0)
(0.849898 -0.171858 0)
(0.588525 -0.199501 0)
(0.55384 0.125775 0)
(0.849625 0.412849 0)
(1.10692 0.0135763 0)
(0.947266 -0.249047 0)
(0.797172 0.00558616 0)
(0.838282 0.148153 0)
(0.908991 0.0318868 0)
(0.899513 -0.0236268 0)
(0.880644 0.00167861 0)
(0.882336 0.0125598 0)
(0.886069 0.00534725 0)
(0.885548 0.00218738 0)
(0.886103 0.00272249 0)
(1.06544 -0.0391765 0)
(1.05037 -0.0436316 0)
(1.0354 -0.0421297 0)
(1.00902 -0.0367269 0)
(0.996837 -0.0053212 0)
(0.988643 -0.00220442 0)
(0.988688 0.0672165 0)
(1.05089 0.0690775 0)
(1.08913 0.0547641 0)
(1.14636 0.0123501 0)
(1.12374 -0.0505102 0)
(1.12035 -0.115645 0)
(1.07629 -0.122292 0)
(1.03505 -0.124847 0)
(0.96919 -0.244578 0)
(0.78536 -0.129608 0)
(0.709484 0.014013 0)
(0.638431 0.186332 0)
(0.794025 0.289621 0)
(0.978238 0.0821463 0)
(1.03343 0.0145737 0)
(1.13663 -0.109958 0)
(1.0251 -0.208004 0)
(0.864385 -0.0927658 0)
(0.649814 -0.140653 0)
(0.523246 0.067463 0)
(0.848621 0.296832 0)
(1.11936 0.00448222 0)
(0.934913 -0.190324 0)
(0.760821 0.0227086 0)
(0.837039 0.125764 0)
(0.92 0.0233433 0)
(0.900058 -0.0182338 0)
(0.877109 0.00403754 0)
(0.880944 0.0115066 0)
(0.885623 0.00487279 0)
(0.884754 0.00221417 0)
(0.884901 0.00265615 0)
(1.05677 -0.0204745 0)
(1.04553 -0.0221197 0)
(1.04175 -0.0223054 0)
(1.02092 -0.0205679 0)
(1.01652 -3.52741e-05 0)
(1.01484 -0.00237479 0)
(1.01194 0.0377279 0)
(1.0561 0.0303256 0)
(1.06363 0.0282003 0)
(1.1076 -0.00366236 0)
(1.09368 -0.043427 0)
(1.08588 -0.0805847 0)
(1.0344 -0.101073 0)
(1.01472 -0.126105 0)
(0.974829 -0.183795 0)
(0.822959 -0.0491213 0)
(0.823715 0.0522621 0)
(0.800189 0.139848 0)
(0.956688 0.195532 0)
(1.08076 0.0538297 0)
(1.05394 -0.0119988 0)
(1.11467 -0.120165 0)
(0.987564 -0.159276 0)
(0.885624 -0.0145786 0)
(0.794668 -0.0451478 0)
(0.612194 0.0410478 0)
(0.870076 0.164657 0)
(1.1164 -0.0236967 0)
(0.930285 -0.119711 0)
(0.762931 0.0424361 0)
(0.869575 0.0937011 0)
(0.947339 0.0126176 0)
(0.916605 -0.0107792 0)
(0.892811 0.00700224 0)
(0.899196 0.0100645 0)
(0.903216 0.00433874 0)
(0.901798 0.00240359 0)
(0.900458 0.00270395 0)
(1.04975 -0.00812536 0)
(1.04237 -0.00917499 0)
(1.04356 -0.0102024 0)
(1.03001 -0.010658 0)
(1.02855 0.00154806 0)
(1.02854 -0.00187511 0)
(1.02534 0.0183082 0)
(1.05277 0.011008 0)
(1.04916 0.00910493 0)
(1.08081 -0.0121735 0)
(1.06354 -0.0349663 0)
(1.06335 -0.0659601 0)
(1.03399 -0.0698167 0)
(1.01344 -0.0744903 0)
(0.969796 -0.113718 0)
(0.86533 -0.019831 0)
(0.914598 0.0455807 0)
(0.915435 0.0964954 0)
(1.01856 0.115405 0)
(1.10194 0.0257042 0)
(1.05863 -0.0044177 0)
(1.09976 -0.0766066 0)
(0.975296 -0.0989167 0)
(0.900283 0.0056413 0)
(0.937218 -0.00288729 0)
(0.806271 0.0348201 0)
(0.930935 0.0788207 0)
(1.10311 -0.0269336 0)
(0.952498 -0.0549574 0)
(0.825537 0.0486802 0)
(0.929833 0.0588209 0)
(0.985331 0.0063204 0)
(0.951922 -0.00117393 0)
(0.931767 0.00941101 0)
(0.938701 0.0082943 0)
(0.939785 0.00408868 0)
(0.937887 0.00297106 0)
(0.934237 0.00302996 0)
(1.04392 -0.00101981 0)
(1.0402 -0.000915003 0)
(1.0429 -0.00373498 0)
(1.03446 -0.00375858 0)
(1.03407 0.000571179 0)
(1.03415 -0.00196554 0)
(1.03188 0.00710336 0)
(1.04666 -0.0002916 0)
(1.04225 4.06516e-06 0)
(1.05954 -0.0163823 0)
(1.0482 -0.0265397 0)
(1.04708 -0.0477816 0)
(1.01934 -0.0503853 0)
(1.00765 -0.0593813 0)
(0.981831 -0.0729797 0)
(0.917541 -0.00698027 0)
(0.959919 0.0248108 0)
(0.967393 0.0626408 0)
(1.0309 0.0693049 0)
(1.07397 0.0229061 0)
(1.04201 -0.00286465 0)
(1.06752 -0.0668234 0)
(0.982829 -0.0595593 0)
(0.937321 0.00710695 0)
(0.993623 0.0108437 0)
(0.937979 0.0437805 0)
(0.99013 0.0299693 0)
(1.06725 -0.0359176 0)
(0.966787 -0.00524745 0)
(0.909119 0.0567749 0)
(0.988213 0.033741 0)
(1.01269 0.00269854 0)
(0.986105 0.00737618 0)
(0.975113 0.0117116 0)
(0.981225 0.00733745 0)
(0.979479 0.00446045 0)
(0.977845 0.00397844 0)
(0.973436 0.00375118 0)
(1.03915 0.00311562 0)
(1.03799 0.00315985 0)
(1.04057 -5.23442e-05 0)
(1.03533 -0.000350738 0)
(1.03619 0.000124429 0)
(1.03454 -0.00183207 0)
(1.03451 0.00109998 0)
(1.03996 -0.00461791 0)
(1.03743 -0.00453396 0)
(1.04495 -0.0164868 0)
(1.03642 -0.0201586 0)
(1.0351 -0.0360171 0)
(1.01731 -0.0347414 0)
(1.01007 -0.0365702 0)
(0.989208 -0.0415074 0)
(0.957862 -0.00274072 0)
(0.98172 0.0133079 0)
(0.986325 0.0406596 0)
(1.02596 0.0394057 0)
(1.04802 0.0135124 0)
(1.03979 0.00265249 0)
(1.04504 -0.0386962 0)
(0.988783 -0.0288706 0)
(0.969226 0.0034739 0)
(1.00053 0.00579147 0)
(0.990787 0.0351764 0)
(1.02419 0.0149986 0)
(1.0315 -0.0199913 0)
(0.972637 0.017229 0)
(0.975426 0.0452668 0)
(1.02478 0.0178905 0)
(1.0236 0.00571482 0)
(1.00843 0.0130516 0)
(1.00723 0.0115772 0)
(1.01136 0.00652335 0)
(1.00819 0.00510988 0)
(1.00724 0.00486316 0)
(1.00377 0.00441623 0)
(1.0349 0.00516183 0)
(1.03515 0.00506763 0)
(1.03731 0.00189831 0)
(1.03421 0.00150733 0)
(1.03506 0.000142734 0)
(1.03297 -0.00159287 0)
(1.03363 -0.00120931 0)
(1.03444 -0.00586459 0)
(1.03333 -0.00566037 0)
(1.03512 -0.0142342 0)
(1.02976 -0.0149068 0)
(1.02844 -0.0247444 0)
(1.01544 -0.0230183 0)
(1.01079 -0.0246619 0)
(0.99724 -0.0252738 0)
(0.983183 -0.00191275 0)
(0.993753 0.00528483 0)
(0.997767 0.0242919 0)
(1.02261 0.0222625 0)
(1.03018 0.00945115 0)
(1.03051 0.0022675 0)
(1.02984 -0.0265324 0)
(0.997985 -0.016175 0)
(0.992569 0.000339476 0)
(1.00214 0.00531877 0)
(1.00342 0.0287312 0)
(1.0269 0.00703641 0)
(1.01455 -0.0126862 0)
(0.987862 0.0218258 0)
(1.00887 0.0348291 0)
(1.03142 0.0130892 0)
(1.02352 0.00858787 0)
(1.02043 0.0137597 0)
(1.0234 0.0104799 0)
(1.02466 0.0065585 0)
(1.02191 0.00574123 0)
(1.0218 0.00533461 0)
(1.01975 0.0048424 0)
(1.03102 0.00606347 0)
(1.03201 0.00558921 0)
(1.03361 0.00310221 0)
(1.03178 0.00227569 0)
(1.03241 0.000611514 0)
(1.03045 -0.000993593 0)
(1.03109 -0.00167201 0)
(1.03008 -0.00500312 0)
(1.02944 -0.00529078 0)
(1.02892 -0.0107144 0)
(1.02546 -0.0108027 0)
(1.02359 -0.0165811 0)
(1.0155 -0.0155735 0)
(1.01269 -0.0153451 0)
(1.00377 -0.0145683 0)
(0.998333 -0.00186783 0)
(1.0018 0.00258872 0)
(1.0044 0.0137964 0)
(1.01896 0.0120711 0)
(1.02145 0.00566344 0)
(1.02517 0.00254709 0)
(1.02211 -0.0132092 0)
(1.00403 -0.00676706 0)
(1.00285 0.000989288 0)
(1.00304 0.00454881 0)
(1.00883 0.0190632 0)
(1.02529 0.00721674 0)
(1.00976 -0.00190736 0)
(0.998122 0.019991 0)
(1.01779 0.0249238 0)
(1.02805 0.0121374 0)
(1.02276 0.0109408 0)
(1.02467 0.0131643 0)
(1.02757 0.00971556 0)
(1.02765 0.00690896 0)
(1.02616 0.00620473 0)
(1.02638 0.00566156 0)
(1.02534 0.00518167 0)
(1.02758 0.00627818 0)
(1.02874 0.00561374 0)
(1.0298 0.00371773 0)
(1.02887 0.00275892 0)
(1.02911 0.00122675 0)
(1.02768 -0.000198912 0)
(1.02788 -0.00116802 0)
(1.02656 -0.00351961 0)
(1.02606 -0.0040497 0)
(1.02473 -0.00730445 0)
(1.0226 -0.00749524 0)
(1.02085 -0.0105243 0)
(1.01604 -0.00983467 0)
(1.01392 -0.00949219 0)
(1.00854 -0.00840632 0)
(1.00635 -0.00177963 0)
(1.007 0.000755592 0)
(1.00879 0.00728253 0)
(1.01653 0.0064703 0)
(1.01711 0.00363887 0)
(1.01977 0.00189706 0)
(1.01737 -0.00693567 0)
(1.00816 -0.00302021 0)
(1.00812 0.00117623 0)
(1.00682 0.00447058 0)
(1.01059 0.0136293 0)
(1.01965 0.00635176 0)
(1.01047 0.0013869 0)
(1.00667 0.0155129 0)
(1.01901 0.0190245 0)
(1.02381 0.0117179 0)
(1.02222 0.0106506 0)
(1.02543 0.0113348 0)
(1.02757 0.00884835 0)
(1.02748 0.00681469 0)
(1.02686 0.00606609 0)
(1.02711 0.00550778 0)
(1.02663 0.00515488 0)
(1.02442 0.0061471 0)
(1.02552 0.00541654 0)
(1.02627 0.00404617 0)
(1.02581 0.00309873 0)
(1.02581 0.00183171 0)
(1.02481 0.000664682 0)
(1.02477 -0.00033464 0)
(1.02364 -0.00186282 0)
(1.02318 -0.0025663 0)
(1.02191 -0.00440829 0)
(1.02057 -0.00474132 0)
(1.0191 -0.00626515 0)
(1.01627 -0.0059774 0)
(1.0148 -0.00566162 0)
(1.01156 -0.0047269 0)
(1.01071 -0.00138691 0)
(1.0104 0.000235414 0)
(1.01118 0.00377848 0)
(1.01498 0.00352523 0)
(1.01513 0.0023809 0)
(1.01675 0.00177753 0)
(1.01532 -0.00228395 0)
(1.01068 -0.000103362 0)
(1.01047 0.00233011 0)
(1.00933 0.00437952 0)
(1.01203 0.00954851 0)
(1.01736 0.00687597 0)
(1.01231 0.0052152 0)
(1.01073 0.0128395 0)
(1.01821 0.0148043 0)
(1.0216 0.0111839 0)
(1.02192 0.0106498 0)
(1.02461 0.0105752 0)
(1.02642 0.00857222 0)
(1.02662 0.0069857 0)
(1.02653 0.00621345 0)
(1.02672 0.00568649 0)
(1.0266 0.00535893 0)
(1.02162 0.00580966 0)
(1.02255 0.00515471 0)
(1.02307 0.00414802 0)
(1.02287 0.00332946 0)
(1.02277 0.00233559 0)
(1.02216 0.00142929 0)
(1.02201 0.000575947 0)
(1.0212 -0.000459908 0)
(1.02077 -0.00111037 0)
(1.01978 -0.00220675 0)
(1.01891 -0.00256507 0)
(1.01787 -0.00338803 0)
(1.01619 -0.00327516 0)
(1.01516 -0.00308944 0)
(1.01329 -0.002487 0)
(1.01277 -0.000762844 0)
(1.01229 6.66199e-05 0)
(1.01253 0.00205371 0)
(1.01419 0.00210252 0)
(1.01426 0.00178007 0)
(1.01486 0.00170217 0)
(1.01414 -0.000113813 0)
(1.01199 0.00113996 0)
(1.01187 0.00267763 0)
(1.01141 0.00417958 0)
(1.0128 0.00738086 0)
(1.01539 0.0063213 0)
(1.01354 0.00567965 0)
(1.01349 0.0100754 0)
(1.0178 0.0116986 0)
(1.02003 0.00999383 0)
(1.02124 0.00950634 0)
(1.02352 0.00928276 0)
(1.02524 0.00786197 0)
(1.02562 0.00659245 0)
(1.02592 0.00583922 0)
(1.02608 0.00537021 0)
(1.02627 0.00514573 0)
(1.01915 0.00539821 0)
(1.01988 0.00484002 0)
(1.02028 0.00412187 0)
(1.02022 0.00344823 0)
(1.02013 0.00271509 0)
(1.01975 0.0020113 0)
(1.0196 0.0013425 0)
(1.01908 0.000613351 0)
(1.01873 7.60501e-05 0)
(1.01808 -0.000607121 0)
(1.01749 -0.000940595 0)
(1.01684 -0.00140311 0)
(1.01581 -0.0014396 0)
(1.01514 -0.00132354 0)