/*--------------------------------*- C++ -*----------------------------------*\
| =========                 |                                                 |
| \\      /  F ield         | OpenFOAM: The Open Source CFD Toolbox           |
|  \\    /   O peration     | Version:  2312                                  |
|   \\  /    A nd           | Website:  www.openfoam.com                      |
|    \\/     M anipulation  |                                                 |
\*---------------------------------------------------------------------------*/
FoamFile
{
    version     2.0;
    format      ascii;
    arch        "LSB;label=32;scalar=64";
    class       volVectorField;
    location    "188.3";
    object      U;
}
// * * * * * * * * * * * * * * * * * * * * * * * * * * * * * * * * * * * * * //

dimensions      [0 1 -1 0 0 0 0];

internalField   nonuniform List<vector> 
5478
(
(-0.0361412 0.0204693 -7.16086e-20)
(-0.0698494 0.0318608 0)
(-0.0643993 0.0297272 1.07845e-19)
(0.000751319 0.0258168 -1.87549e-19)
(0.139737 0.0241292 1.1993e-19)
(0.345886 0.0267366 -3.72828e-20)
(0.587931 0.0355933 -5.93534e-20)
(0.828949 0.0481756 0)
(1.0387 0.0618066 0)
(1.19967 0.0687965 7.25385e-20)
(1.30062 0.0693364 -3.27856e-20)
(1.34558 0.0607455 -5.58936e-20)
(1.34751 0.0338121 -2.25016e-20)
(1.31143 0.0290355 0)
(1.28992 -0.0283238 6.408e-20)
(-0.0462306 0.0274262 1.43828e-19)
(-0.0635174 0.0385122 0)
(-0.00742903 0.0324 0)
(0.142163 0.0271535 -9.44553e-20)
(0.380787 0.0319584 1.23899e-19)
(0.658558 0.0473268 3.44979e-20)
(0.917523 0.0674508 -5.75731e-20)
(1.1194 0.0856364 5.10466e-20)
(1.24975 0.095359 1.23262e-19)
(1.31115 0.0950138 -1.07505e-19)
(1.32277 0.0857359 1.7588e-21)
(1.30795 0.0671926 0)
(1.28821 0.0534238 2.24634e-20)
(1.28262 0.0326129 0)
(1.28547 0.0108149 0)
(-0.0489348 0.0262942 -3.99445e-22)
(-0.0339424 0.0324616 -6.75757e-20)
(0.0995592 0.0279156 3.92852e-22)
(0.357723 0.0362314 0)
(0.673299 0.0608139 -4.20279e-20)
(0.955809 0.0899748 3.52632e-20)
(1.15518 0.112586 2.92994e-20)
(1.2641 0.122641 0)
(1.30199 0.120652 -4.13232e-20)
(1.30157 0.110892 3.46507e-20)
(1.29041 0.0964576 2.90858e-20)
(1.2834 0.0852552 0)
(1.28136 0.0675186 0)
(1.27142 0.0574854 -6.22612e-20)
(1.25003 0.0380437 5.54398e-20)
(-0.0427945 0.0195355 -7.91661e-20)
(0.0294529 0.0176203 6.66552e-20)
(0.273636 0.0276058 -5.74889e-20)
(0.625844 0.0646532 5.06769e-20)
(0.945304 0.107835 8.44859e-20)
(1.15804 0.138337 -7.03799e-20)
(1.26333 0.150571 -2.92812e-20)
(1.29635 0.148464 2.2562e-20)
(1.29763 0.13926 -2.17114e-20)
(1.29127 0.127119 0)
(1.28428 0.116351 0)
(1.27323 0.100969 -4.21277e-20)
(1.2559 0.0899838 5.48708e-20)
(1.23819 0.0751241 -3.08855e-20)
(1.2301 0.0574618 0)
(-0.0248439 0.0101971 4.01348e-20)
(0.140143 0.00607578 3.35669e-20)
(0.506282 0.0510232 -1.21148e-19)
(0.880882 0.114758 1.7751e-21)
(1.13148 0.159891 -1.26406e-21)
(1.25366 0.178811 -1.30186e-21)
(1.29436 0.179288 2.81424e-20)
(1.29903 0.171192 2.35602e-20)
(1.2908 0.159797 1.69023e-20)
(1.2773 0.147913 -2.72847e-21)
(1.26066 0.133597 -3.82739e-20)
(1.24536 0.12142 0)
(1.23482 0.107614 1.73048e-20)
(1.22641 0.0930119 -1.29167e-20)
(1.21301 0.0838845 2.29976e-20)
(0.010705 0.000877622 -8.74658e-20)
(0.304333 0.0148011 9.42822e-20)
(0.744151 0.101569 -3.2495e-20)
(1.06762 0.172818 2.41825e-20)
(1.23209 0.206257 -4.48304e-20)
(1.29116 0.21293 -3.30323e-20)
(1.29976 0.206613 1.08738e-21)
(1.28869 0.195013 0)
(1.27215 0.181804 3.42595e-20)
(1.25631 0.167414 -3.04662e-20)
(1.24393 0.154392 1.20886e-20)
(1.2327 0.140164 0)
(1.21913 0.127501 7.231e-21)
(1.2038 0.114443 -1.29011e-20)
(1.19219 0.102427 0)
(0.0698861 -0.00277294 -1.09339e-20)
(0.500052 0.0560692 1.13838e-21)
(0.936858 0.167038 1.56828e-20)
(1.18347 0.230144 2.6656e-20)
(1.27956 0.249606 -2.02714e-20)
(1.29819 0.246466 3.39401e-20)
(1.28732 0.234414 -7.70498e-21)
(1.27001 0.219775 0)
(1.2536 0.204476 -2.00182e-20)
(1.23856 0.189823 1.47145e-21)
(1.22309 0.174592 1.64162e-20)
(1.20817 0.160581 0)
(1.19622 0.146533 -1.04572e-20)
(1.18704 0.132117 0)
(1.17597 0.12418 6.25674e-21)
(0.152516 0.00724626 -1.22764e-20)
(0.683876 0.125043 0)
(1.07313 0.239109 1.68842e-20)
(1.24609 0.286913 0)
(1.29161 0.292101 0)
(1.28614 0.280083 0)
(1.26768 0.263471 -6.49431e-21)
(1.24819 0.245945 0)
(1.2299 0.228665 4.03678e-21)
(1.21349 0.211383 0)
(1.20021 0.195252 -5.07772e-21)
(1.18898 0.179461 0)
(1.17752 0.1648 3.22224e-21)
(1.16559 0.1514 0)
(1.1555 0.14023 2.04454e-21)
(-0.00741032 -0.0713342 -1.1436e-20)
(-0.0402741 -0.0595828 0)
(-0.0900235 -0.012943 1.79058e-20)
(-0.141435 0.0347896 0)
(-0.190625 0.0858388 0)
(-0.235842 0.145213 0)
(-0.274674 0.213683 -1.10599e-20)
(-0.304146 0.28955 0)
(-0.321119 0.369053 8.73065e-21)
(-0.322589 0.446231 0)
(-0.305945 0.51289 -1.38511e-20)
(-0.270494 0.559565 0)
(-0.213624 0.579728 1.13571e-20)
(-0.13672 0.567022 0)
(-0.0300492 0.517113 9.73392e-21)
(-0.00212533 -0.0449867 5.55001e-20)
(-0.030718 -0.0144812 -3.85114e-20)
(-0.0743341 0.040556 1.5319e-20)
(-0.119444 0.0903059 5.91651e-20)
(-0.160883 0.137883 -5.85077e-23)
(-0.195538 0.189783 -4.68373e-20)
(-0.220512 0.246692 3.1748e-20)
(-0.232663 0.306417 0)
(-0.228595 0.365423 2.37061e-20)
(-0.20557 0.418222 1.73735e-22)
(-0.161867 0.458589 -1.19907e-20)
(-0.093442 0.480603 0)
(-0.00732815 0.47429 -3.25091e-20)
(0.097521 0.435154 0)
(0.239401 0.372027 -5.00943e-20)
(0.00150906 -0.0273702 8.29797e-20)
(-0.0213145 0.0148279 1.79924e-20)
(-0.0539851 0.0777378 -3.31434e-20)
(-0.0860792 0.130814 -8.45405e-20)
(-0.112529 0.174879 4.90116e-20)
(-0.129452 0.2176 4.22334e-20)
(-0.133578 0.26147 -7.2938e-20)
(-0.121994 0.304757 0)
(-0.09224 0.343857 -5.7613e-20)
(-0.0415143 0.375355 5.12213e-20)
(0.0300128 0.392386 2.21763e-20)
(0.118429 0.38814 0)
(0.239264 0.372717 2.11414e-20)
(0.339251 0.313114 -3.75737e-20)
(0.513478 0.228739 0)
(0.00413051 -0.0194087 3.86693e-20)
(-0.0145091 0.0250045 -1.05083e-19)
(-0.0375494 0.0915964 1.21045e-19)
(-0.0556672 0.148413 -1.0416e-19)
(-0.0647161 0.190709 -4.40655e-20)
(-0.0615955 0.224828 3.78702e-20)
(-0.0435513 0.255188 3.55041e-20)
(-0.00839561 0.282008 2.81896e-20)
(0.0455398 0.303583 -7.65108e-20)
(0.11525 0.312458 -5.81961e-22)
(0.212989 0.318279 1.93923e-20)
(0.301768 0.291538 0)
(0.45194 0.265875 3.53456e-20)
(0.533746 0.212459 1.11616e-19)
(0.741222 0.120751 -6.5829e-20)
(0.00535888 -0.0169234 -8.21948e-22)
(-0.0128111 0.020913 6.56407e-20)
(-0.0321378 0.0819878 -5.69124e-20)
(-0.0411083 0.137091 5.12033e-20)
(-0.0361275 0.176629 8.57842e-20)
(-0.0157697 0.20342 -7.33344e-20)
(0.0207711 0.221882 -3.01893e-20)
(0.0739802 0.232961 -8.15032e-20)
(0.144234 0.241458 7.20019e-20)
(0.230514 0.232242 0)
(0.341017 0.230998 0)
(0.448233 0.194235 7.31604e-20)
(0.623895 0.167092 -1.70431e-19)
(0.717774 0.110271 6.23499e-20)
(0.972253 0.0327948 0)
(0.00304965 -0.0141166 7.45001e-23)
(-0.0194328 0.012752 -6.51716e-20)
(-0.0418013 0.0584818 1.685e-19)
(-0.0491429 0.101841 -4.86246e-20)
(-0.0373779 0.132199 -4.1752e-20)
(-0.0063075 0.150071 3.54935e-20)
(0.044515 0.158802 3.02083e-20)
(0.117255 0.160242 4.9265e-20)
(0.214175 0.158197 -8.63096e-20)
(0.340003 0.145818 3.79633e-20)
(0.484928 0.134616 3.46225e-20)
(0.658099 0.100225 0)
(0.846606 0.0768112 0)
(1.00805 0.0192466 1.20559e-19)
(1.23566 -0.0283067 -1.06999e-19)
(-0.00580137 -0.00616383 -4.75162e-22)
(-0.0367193 0.0107563 0)
(-0.0644061 0.0363472 0)
(-0.0716551 0.0608968 9.14167e-20)
(-0.0509956 0.0771132 -4.13104e-20)
(0.00220938 0.0853456 3.32477e-20)
(0.0923438 0.0869042 5.52314e-20)
(0.220903 0.0849709 -4.89708e-20)
(0.385428 0.0780403 4.26121e-20)
(0.573148 0.0746743 -3.80002e-20)
(0.77251 0.0580262 -1.06117e-21)
(0.978283 0.0473619 0)
(1.14604 0.0231301 2.7645e-20)
(1.31117 -0.0125231 0)
(1.40113 -0.0393705 0)
(-0.0208845 0.00715527 -7.06609e-20)
(-0.0583572 0.0188065 0)
(-0.0806938 0.0267693 -1.06668e-19)
(-0.0685661 0.0334122 1.84942e-19)
(-0.00831299 0.0375057 -1.9684e-19)
(0.108743 0.0387762 -3.04923e-20)
(0.278077 0.0389924 5.78513e-20)
(0.483865 0.0412691 0)
(0.705784 0.0441466 0)
(0.918139 0.0500728 -7.45195e-20)
(1.11 0.0446438 -3.38165e-20)
(1.25361 0.0476665 5.92505e-20)
(1.35226 0.0187354 -2.76954e-20)
(1.39994 0.00704628 0)
(1.36834 -0.0288672 -7.87948e-20)
(0.100617 0.409475 0)
(0.367057 0.024993 4.97002e-21)
(0.635748 -0.383519 -4.58552e-21)
(0.720373 -0.711022 0)
(0.731735 -0.748006 0)
(0.737639 -0.696734 -8.59038e-23)
(0.568094 -0.655327 0)
(0.458862 -0.543269 0)
(0.626745 -0.0596597 6.82238e-23)
(0.772425 0.301858 0)
(0.907907 0.390951 0)
(0.89884 0.564135 -1.00217e-22)
(0.840533 0.537709 0)
(0.830571 0.516549 -6.76568e-23)
(0.918056 0.217376 -6.81889e-23)
(0.948832 -0.127897 0)
(1.02978 -0.336438 -6.10548e-22)
(1.03291 -0.638421 7.2234e-22)
(1.04578 -0.435742 0)
(1.00477 -0.211551 5.08919e-22)
(1.08185 0.152029 -6.15323e-22)
(1.09393 0.636144 1.21788e-22)
(1.07593 0.413789 -2.10907e-22)
(1.08965 0.158065 2.01525e-22)
(1.16185 -0.193441 -2.03938e-22)
(1.08135 -0.745018 0)
(1.16869 -0.20597 -2.352e-22)
(1.1071 0.603331 2.24897e-22)
(1.07098 0.308982 -1.28735e-22)
(1.03129 -0.246021 0)
(1.00308 -0.154974 -8.40785e-23)
(0.996747 0.0669988 0)
(0.982666 0.0494754 -4.1584e-23)
(0.975512 -0.00956394 -1.50987e-23)
(0.973747 -0.00892776 1.382e-24)
(0.969562 0.00288867 -9.47342e-24)
(0.96753 0.00341079 0)
(0.963166 0.0019738 2.77893e-24)
(0.378696 0.260135 1.86555e-20)
(0.612007 -0.125982 -1.63078e-22)
(0.84337 -0.499137 -1.57365e-20)
(0.911367 -0.737265 1.5008e-20)
(0.82784 -0.744562 0)
(0.784308 -0.657383 8.65679e-23)
(0.632997 -0.582518 -1.32818e-22)
(0.493991 -0.544805 0)
(0.569835 -0.144197 -6.87356e-23)
(0.741959 0.21594 0)
(0.870362 0.357035 0)
(0.858052 0.56912 1.00942e-22)
(0.769524 0.544342 0)
(0.769206 0.494962 2.30567e-21)
(0.913727 0.195234 -1.92871e-21)
(0.963433 -0.145444 2.5967e-21)
(1.06563 -0.352306 -2.47858e-21)
(1.04571 -0.641972 -1.40252e-22)
(1.05933 -0.433487 0)
(1.01262 -0.218076 0)
(1.04862 0.132847 -1.36228e-22)
(1.09112 0.627157 1.04495e-21)
(1.06135 0.41394 -1.63763e-21)
(1.08383 0.151379 7.31184e-22)
(1.18791 -0.19204 5.65205e-22)
(1.07101 -0.739014 0)
(1.13905 -0.21216 5.47559e-22)
(1.09591 0.602851 0)
(1.08154 0.313007 1.2919e-22)
(1.04475 -0.238942 -2.76792e-22)
(1.0032 -0.154265 4.37128e-22)
(0.994699 0.0680519 -4.516e-23)
(0.985087 0.0507388 7.7554e-23)
(0.979782 -0.00892012 4.01992e-24)
(0.976752 -0.00854467 1.73385e-23)
(0.972479 0.00326231 -8.32222e-24)
(0.970679 0.00376269 -7.43215e-25)
(0.966725 0.00221051 6.85178e-25)
(0.623093 0.146038 4.14246e-20)
(0.849835 -0.20081 -7.96036e-20)
(1.01806 -0.547542 7.19536e-21)
(1.03329 -0.725518 3.00205e-20)
(0.9059 -0.707288 2.43053e-22)
(0.826623 -0.610431 -1.64624e-22)
(0.704856 -0.525383 1.35096e-22)
(0.597828 -0.536671 -2.17267e-22)
(0.574268 -0.229368 0)
(0.736008 0.13044 6.3438e-21)
(0.837917 0.33438 -6.05118e-21)
(0.846549 0.602377 -1.98175e-22)
(0.741742 0.579123 0)
(0.735988 0.473028 -4.58379e-21)
(0.912812 0.173678 4.23267e-21)
(0.9841 -0.152949 -2.56494e-21)
(1.0964 -0.351106 2.44729e-21)
(1.04952 -0.633537 2.4554e-21)
(1.06201 -0.43576 -2.08023e-21)
(1.02032 -0.223641 0)
(1.00908 0.112437 0)
(1.08194 0.618672 1.76521e-21)
(1.04612 0.420707 -1.68511e-21)
(1.07448 0.148664 -1.41338e-21)
(1.20318 -0.1824 -3.73987e-22)
(1.05751 -0.724443 1.59882e-21)
(1.09922 -0.224604 3.57006e-23)
(1.08074 0.600385 -1.02414e-21)
(1.08729 0.322669 1.21736e-21)
(1.05325 -0.225118 -1.08049e-21)
(0.999986 -0.151795 6.1788e-23)
(0.989461 0.068531 -1.43778e-22)
(0.984341 0.0518833 5.52165e-23)
(0.980969 -0.00799268 -5.2794e-23)
(0.976789 -0.00802639 -1.12742e-23)
(0.972524 0.00362079 -5.99007e-24)
(0.971043 0.00408121 1.75783e-23)
(0.96763 0.00242542 2.69362e-24)
(0.823769 0.0448097 0)
(1.07057 -0.251371 3.68415e-20)
(1.19591 -0.538239 -3.62095e-20)
(1.15125 -0.667588 0)
(0.994507 -0.653626 -2.49806e-22)
(0.87907 -0.568074 1.69143e-22)
(0.775447 -0.47931 0)
(0.699144 -0.517828 1.75419e-23)
(0.644662 -0.301907 -1.46206e-22)
(0.779555 0.0445458 0)
(0.856073 0.278247 -6.53043e-21)
(0.838486 0.579668 6.43075e-21)
(0.688817 0.593836 -3.41441e-22)
(0.703266 0.447563 -4.8641e-21)
(0.91216 0.148632 4.63735e-21)
(1.00391 -0.164692 3.17297e-22)
(1.11804 -0.350498 0)
(1.05261 -0.622512 -2.81756e-22)
(1.0571 -0.443809 4.57335e-21)
(1.02673 -0.231522 8.45751e-22)
(0.971483 0.0837749 9.48951e-23)
(1.05787 0.591909 -4.2738e-21)
(1.02302 0.421535 -2.16225e-21)
(1.05922 0.146287 2.59874e-21)
(1.20653 -0.17099 -3.20009e-22)
(1.04552 -0.705924 0)
(1.05368 -0.241814 -5.96611e-22)
(1.05539 0.582942 1.03768e-21)
(1.08365 0.325736 -1.13521e-21)
(1.0564 -0.211016 9.99792e-22)
(0.993826 -0.149641 -1.84676e-22)
(0.981338 0.0675452 0)
(0.980525 0.0524387 -5.36213e-23)
(0.979138 -0.00705004 9.6507e-23)
(0.974001 -0.00748989 3.35258e-23)
(0.96986 0.00391556 3.33569e-23)
(0.968769 0.00434223 -1.75907e-23)
(0.965985 0.00261 -6.10485e-26)
(1.04788 -0.0488137 4.67334e-22)
(1.26617 -0.297894 1.08245e-21)
(1.32778 -0.504593 0)
(1.22186 -0.58209 0)
(1.06903 -0.574955 0)
(0.93126 -0.522445 0)
(0.851021 -0.440899 7.29598e-21)
(0.76423 -0.491077 -1.28515e-20)
(0.712904 -0.374415 5.90834e-21)
(0.851424 -0.0502442 0)
(0.867518 0.256859 -6.50174e-21)
(0.791415 0.642828 6.39153e-21)
(0.679372 0.647593 5.94459e-21)
(0.721864 0.430963 -4.99574e-21)
(0.929469 0.120006 5.28881e-21)
(1.02685 -0.171311 -5.36561e-21)
(1.13322 -0.336128 -2.83511e-22)
(1.05925 -0.601468 -4.40756e-21)
(1.04586 -0.454413 4.20013e-21)
(1.02424 -0.238515 6.21067e-22)
(0.927611 0.0599413 7.53913e-22)
(1.02825 0.577137 2.73566e-21)
(1.00466 0.431495 -3.18931e-21)
(1.04468 0.148538 -5.63067e-22)
(1.20019 -0.152952 -2.33714e-22)
(1.03352 -0.682487 -3.81283e-22)
(1.00096 -0.262745 0)
(1.02935 0.569906 0)
(1.07662 0.335714 0)
(1.0558 -0.191964 0)
(0.985583 -0.145804 5.01995e-22)
(0.971144 0.0662236 -3.00086e-22)
(0.974198 0.0529066 1.04391e-22)
(0.974677 -0.00592719 -2.93267e-22)
(0.968761 -0.00685303 3.29583e-23)
(0.96482 0.00418097 6.54474e-24)
(0.964153 0.00455515 -2.21296e-23)
(0.962016 0.00276638 -6.75578e-24)
(1.29666 -0.113174 -4.9187e-22)
(1.40739 -0.29024 5.78888e-20)
(1.38062 -0.424205 -5.56212e-20)
(1.2377 -0.488253 -3.715e-20)
(1.108 -0.502674 3.53795e-20)
(0.97692 -0.481947 1.96926e-20)
(0.905075 -0.403127 -1.83336e-20)
(0.827692 -0.444728 1.99956e-22)
(0.722092 -0.433853 -1.64699e-22)
(0.877386 -0.133748 0)
(0.898211 0.187381 -2.13702e-22)
(0.81585 0.586074 1.36042e-20)
(0.676473 0.661336 -1.29514e-20)
(0.72608 0.439517 -3.45549e-22)
(0.941012 0.120786 0)
(1.04903 -0.166518 -5.32372e-21)
(1.14492 -0.31781 9.51698e-21)
(1.06815 -0.57747 -4.00073e-21)
(1.03281 -0.466539 0)
(1.01347 -0.247781 5.25623e-21)
(0.890937 0.0259882 -7.31372e-22)
(0.984008 0.532902 -5.39092e-21)
(0.97127 0.432433 -2.11525e-21)
(1.02678 0.15312 2.06477e-21)
(1.186 -0.133363 -2.34666e-21)
(1.0209 -0.65499 -1.85088e-21)
(0.948739 -0.285769 4.63393e-21)
(0.992985 0.53625 -2.81242e-21)
(1.05886 0.33867 2.67425e-21)
(1.05024 -0.174947 -4.22029e-22)
(0.975791 -0.142569 4.01289e-22)
(0.959132 0.0635017 0)
(0.965587 0.0527997 1.02106e-22)
(0.967926 -0.00482946 -1.81376e-23)
(0.961507 -0.00625228 0)
(0.957826 0.004361 -3.37866e-23)
(0.957588 0.00469769 1.44778e-23)
(0.956055 0.00288821 -2.49241e-24)
(1.41908 -0.117573 0)
(1.4204 -0.230828 0)
(1.35285 -0.328143 -1.72568e-22)
(1.2364 -0.393337 0)
(1.12645 -0.434069 0)
(1.02181 -0.445361 2.01896e-20)
(0.930113 -0.378935 -1.92139e-20)
(0.895753 -0.384272 1.26778e-20)
(0.733234 -0.462036 -1.20752e-20)
(0.834057 -0.255793 0)
(0.909834 0.13558 -2.70541e-22)
(0.786351 0.625122 2.41857e-22)
(0.675369 0.701735 -1.26621e-20)
(0.771473 0.422204 -2.40189e-22)
(0.970957 0.0946622 1.14918e-20)
(1.07009 -0.174972 1.77157e-22)
(1.15335 -0.298466 -1.36179e-22)
(1.07322 -0.546911 8.15177e-21)
(1.01807 -0.47502 -7.99156e-21)
(0.99154 -0.2579 0)
(0.848462 0.00743878 0)
(0.940872 0.516412 -2.9152e-22)
(0.948038 0.438552 0)
(1.01585 0.155828 1.79454e-21)
(1.17286 -0.109211 5.4051e-22)
(1.00426 -0.621459 -1.8487e-21)
(0.896135 -0.311219 -6.21457e-21)
(0.962542 0.514491 4.13223e-21)
(1.0429 0.346587 -1.35199e-22)
(1.04301 -0.15329 0)
(0.966121 -0.137812 -3.14232e-22)
(0.94666 0.0612548 2.97952e-22)
(0.955665 0.0527675 5.91293e-23)
(0.959576 -0.00367951 2.99524e-23)
(0.95285 -0.00557213 -4.10104e-23)
(0.949425 0.0045432 1.22432e-23)
(0.949566 0.00481382 0)
(0.948523 0.00298937 5.22496e-24)
(1.36214 -0.0827364 4.83202e-20)
(1.34255 -0.152954 4.66074e-20)
(1.30096 -0.242833 -2.01728e-21)
(1.23833 -0.314221 -7.56246e-20)
(1.15035 -0.372312 3.38125e-20)
(1.06217 -0.409126 -1.87729e-22)
(0.958369 -0.371956 0)
(0.936993 -0.344182 -1.11381e-22)
(0.803821 -0.42525 -9.29468e-23)
(0.744828 -0.345563 0)
(0.824032 -0.027244 -1.83152e-20)
(0.756002 0.505747 1.73536e-20)
(0.680603 0.705507 2.01808e-22)
(0.747711 0.485158 1.2131e-20)
(0.971908 0.144733 -1.15329e-20)
(1.08626 -0.146309 1.72895e-22)
(1.16775 -0.266556 1.44677e-22)
(1.07817 -0.50998 0)
(1.0048 -0.477691 9.56133e-21)
(0.965269 -0.264716 -9.05494e-21)
(0.808854 -0.041934 -6.14851e-21)
(0.8843 0.454453 2.89151e-21)
(0.902725 0.439563 3.05631e-21)
(0.998048 0.171342 -1.58156e-21)
(1.16654 -0.0787505 -1.63244e-22)
(0.984741 -0.580413 5.60545e-21)
(0.854167 -0.340458 -2.87176e-21)
(0.922183 0.467066 3.11872e-21)
(1.01469 0.351392 -2.32219e-21)
(1.03144 -0.13229 0)
(0.956485 -0.132704 0)
(0.933549 0.0572057 0)
(0.944483 0.0520852 3.95563e-23)
(0.950076 -0.0025821 -5.61295e-23)
(0.943371 -0.00501608 4.57958e-23)
(0.940164 0.00456131 -3.01137e-23)
(0.9406 0.00481584 -1.23572e-23)
(0.939896 0.00303896 0)
(1.3003 -0.053322 0)
(1.30715 -0.107182 0)
(1.27961 -0.178973 0)
(1.23053 -0.224831 0)
(1.16852 -0.262321 0)
(1.09672 -0.312826 0)
(1.00104 -0.306112 0)
(0.982484 -0.263926 0)
(0.900435 -0.357793 0)
(0.696433 -0.379974 0)
(0.694106 -0.0886151 0)
(0.719972 0.48268 0)
(0.655794 0.706761 0)
(0.822278 0.430575 0)
(1.04933 0.101582 0)
(1.10744 -0.149136 0)
(1.18363 -0.220178 0)
(1.08247 -0.460014 0)
(0.991821 -0.492321 0)
(0.92118 -0.284401 0)
(0.78538 -0.0480238 0)
(0.835589 0.439765 0)
(0.85259 0.433411 0)
(0.994918 0.158184 0)
(1.18187 -0.0545668 0)
(0.961473 -0.554421 0)
(0.818652 -0.35786 0)
(0.889483 0.437427 0)
(0.992195 0.357008 0)
(1.01988 -0.11937 0)
(0.945578 -0.12598 0)
(0.919316 0.0561701 0)
(0.931382 0.0520883 0)
(0.937932 -0.0013077 0)
(0.931228 -0.00404205 0)
(0.928227 0.00486459 0)
(0.92891 0.00496783 0)
(0.928526 0.00315004 0)
(1.24039 -0.0490584 0)
(1.25094 -0.114152 0)
(1.22072 -0.167872 0)
(1.17094 -0.210457 0)
(1.11621 -0.275106 0)
(1.04638 -0.281828 0)
(0.959276 -0.280257 0)
(0.892088 -0.300296 0)
(0.85959 -0.299821 0)
(0.702602 -0.236149 0)
(0.569227 -0.0173939 0)
(0.572556 0.525779 0)
(0.644537 0.653834 0)
(0.948956 0.306393 0)
(1.13232 0.0201181 0)
(1.15331 -0.187302 0)
(1.17759 -0.261369 0)
(1.04233 -0.441597 0)
(0.939574 -0.416471 0)
(0.830707 -0.21055 0)
(0.706921 -0.00121231 0)
(0.758877 0.450267 0)
(0.804163 0.392132 0)
(1.00031 0.0915713 0)
(1.16836 -0.0788086 0)
(0.918354 -0.493429 0)
(0.758308 -0.312909 0)
(0.843302 0.433574 0)
(0.957554 0.324596 0)
(1.00469 -0.117144 0)
(0.926655 -0.108867 0)
(0.89751 0.0600033 0)
(0.913449 0.0490286 0)
(0.922275 -0.00181602 0)
(0.915735 -0.00326225 0)
(0.912953 0.0049633 0)
(0.913974 0.00484476 0)
(0.91404 0.00313289 0)
(1.19502 -0.0452002 0)
(1.20768 -0.085014 0)
(1.1783 -0.132288 0)
(1.15205 -0.157621 0)
(1.10752 -0.183562 0)
(1.04076 -0.20617 0)
(1.00466 -0.186795 0)
(0.938408 -0.184022 0)
(0.847027 -0.220536 0)
(0.729813 -0.147852 0)
(0.601505 0.0135526 0)
(0.572365 0.447914 0)
(0.810985 0.497797 0)
(1.10735 0.180521 0)
(1.20144 -0.0261426 0)
(1.16896 -0.171501 0)
(1.16188 -0.186681 0)
(1.0559 -0.355602 0)
(0.894484 -0.37558 0)
(0.728584 -0.179161 0)
(0.594844 0.00581095 0)
(0.666312 0.41703 0)
(0.79427 0.324306 0)
(1.00319 0.0476957 0)
(1.1611 -0.0525123 0)
(0.92092 -0.429194 0)
(0.683347 -0.306584 0)
(0.766979 0.394577 0)
(0.932874 0.292566 0)
(0.996863 -0.107769 0)
(0.907528 -0.0959722 0)
(0.877877 0.0581744 0)
(0.898637 0.0453892 0)
(0.907672 -0.00140429 0)
(0.900564 -0.00216435 0)
(0.897962 0.00507741 0)
(0.899243 0.00475003 0)
(0.899663 0.00314812 0)
(1.15634 -0.0346449 0)
(1.16624 -0.0734405 0)
(1.14409 -0.103621 0)
(1.11596 -0.128857 0)
(1.07736 -0.159012 0)
(1.02883 -0.171086 0)
(0.977818 -0.170666 0)
(0.943117 -0.162443 0)
(0.881329 -0.166749 0)
(0.789083 -0.0642954 0)
(0.729483 0.0690145 0)
(0.74247 0.343368 0)
(1.00474 0.308339 0)
(1.17757 0.0813244 0)
(1.21895 -0.0189252 0)
(1.16181 -0.15115 0)
(1.09642 -0.198562 0)
(1.02628 -0.30967 0)
(0.830615 -0.262041 0)
(0.651423 -0.0815514 0)
(0.520295 0.0403502 0)
(0.596949 0.364828 0)
(0.8272 0.232172 0)
(0.999776 -0.0277429 0)
(1.13352 -0.0579976 0)
(0.928047 -0.333494 0)
(0.608557 -0.243518 0)
(0.679577 0.353802 0)
(0.934139 0.238489 0)
(0.996455 -0.102604 0)
(0.882183 -0.0748589 0)
(0.854558 0.0593875 0)
(0.885977 0.0406772 0)
(0.895633 -0.00169327 0)
(0.887578 -0.00110863 0)
(0.885404 0.00515908 0)
(0.887169 0.0045301 0)
(0.888198 0.0030815 0)
(1.1224 -0.0297885 0)
(1.13219 -0.056448 0)
(1.1103 -0.0814627 0)
(1.09708 -0.0988027 0)
(1.06062 -0.116369 0)
(1.03116 -0.121733 0)
(0.990495 -0.113736 0)
(0.95934 -0.10231 0)
(0.914838 -0.0991211 0)
(0.842831 -0.0132203 0)
(0.843759 0.0529741 0)
(0.890181 0.222972 0)
(1.09016 0.200817 0)
(1.15745 0.0467118 0)
(1.17103 -0.0277791 0)
(1.14031 -0.112407 0)
(1.07379 -0.119939 0)
(1.04529 -0.222372 0)
(0.836401 -0.17564 0)
(0.704457 -0.0130844 0)
(0.605257 0.0455636 0)
(0.653336 0.265228 0)
(0.919716 0.134911 0)
(0.999352 -0.0650922 0)
(1.10833 -0.0411147 0)
(0.974646 -0.245139 0)
(0.585393 -0.192597 0)
(0.645684 0.287758 0)
(0.967888 0.179868 0)
(1.00633 -0.0850427 0)
(0.862839 -0.0504426 0)
(0.843359 0.0568132 0)
(0.888946 0.0337478 0)
(0.896236 -0.00147399 0)
(0.885463 0.000356897 0)
(0.883247 0.00512641 0)
(0.88532 0.00414842 0)
(0.886279 0.00294936 0)
(1.09542 -0.0228277 0)
(1.1058 -0.0434924 0)
(1.08714 -0.0591367 0)
(1.07868 -0.0728635 0)
(1.04875 -0.085166 0)
(1.02703 -0.0888199 0)
(0.994522 -0.0850247 0)
(0.972973 -0.0754336 0)
(0.94393 -0.0640868 0)
(0.903983 -0.00139209 0)
(0.925764 0.0331264 0)
(0.94718 0.13939 0)
(1.08423 0.110741 0)
(1.11504 0.0285905 0)
(1.12707 0.000297072 0)
(1.09971 -0.0905118 0)
(1.02805 -0.122514 0)
(1.02763 -0.175869 0)
(0.854515 -0.0895771 0)
(0.806125 0.0461993 0)
(0.778727 0.065481 0)
(0.809989 0.193679 0)
(1.03836 0.0717925 0)
(1.01492 -0.0980076 0)
(1.05424 -0.0531463 0)
(1.01455 -0.138854 0)
(0.63958 -0.103271 0)
(0.678254 0.200996 0)
(1.0049 0.104456 0)
(1.01385 -0.0651578 0)
(0.862556 -0.0198606 0)
(0.859948 0.0508437 0)
(0.913647 0.0243649 0)
(0.914695 -0.000708528 0)
(0.901714 0.00239293 0)
(0.899371 0.0051451 0)
(0.901452 0.00379591 0)
(0.901123 0.00288535 0)
(1.07595 -0.0165099 0)
(1.08358 -0.0313568 0)
(1.0685 -0.0417512 0)
(1.064 -0.0529362 0)
(1.04028 -0.0589309 0)
(1.02654 -0.0629471 0)
(1.00347 -0.0569951 0)
(0.987984 -0.0484236 0)
(0.971486 -0.038009 0)
(0.949043 0.00521924 0)
(0.968238 0.0180346 0)
(0.976262 0.0793691 0)
(1.06611 0.0657532 0)
(1.06743 0.0176924 0)
(1.08694 -0.00997076 0)
(1.08851 -0.059384 0)
(1.01942 -0.0677105 0)
(1.01155 -0.111527 0)
(0.883333 -0.0447543 0)
(0.893082 0.0480342 0)
(0.920095 0.0530371 0)
(0.936955 0.117112 0)
(1.10463 0.0347861 0)
(1.0438 -0.0673974 0)
(1.0034 -0.0423156 0)
(1.03452 -0.0743111 0)
(0.783193 -0.0330288 0)
(0.786116 0.124301 0)
(1.03721 0.0493281 0)
(1.02592 -0.0362308 0)
(0.899266 0.00591393 0)
(0.909895 0.03929 0)
(0.957235 0.0152692 0)
(0.951298 0.00181275 0)
(0.938805 0.0048374 0)
(0.93575 0.00517516 0)
(0.9372 0.00367078 0)
(0.93442 0.00307559 0)
(1.06047 -0.0105783 0)
(1.06552 -0.0217266 0)
(1.05586 -0.0273776 0)
(1.05235 -0.0365199 0)
(1.03561 -0.0385563 0)
(1.02685 -0.0425135 0)
(1.00991 -0.0370512 0)
(1.00105 -0.0320712 0)
(0.989525 -0.0232726 0)
(0.979209 0.00190417 0)
(0.993652 0.00833109 0)
(0.992945 0.0451065 0)
(1.04814 0.0292184 0)
(1.04796 0.012202 0)
(1.05989 -0.00660675 0)
(1.05537 -0.0434118 0)
(1.01224 -0.0531909 0)
(1.00761 -0.0771114 0)
(0.927414 -0.0201042 0)
(0.949467 0.0277359 0)
(0.98349 0.0420094 0)
(0.994228 0.078162 0)
(1.08758 0.012787 0)
(1.03882 -0.0445858 0)
(0.994 -0.0424208 0)
(1.0188 -0.0428815 0)
(0.89761 0.0216962 0)
(0.908857 0.0827487 0)
(1.04962 0.00944179 0)
(1.02144 -0.0141726 0)
(0.946651 0.0273251 0)
(0.967511 0.0306914 0)
(0.997407 0.00893632 0)
(0.987292 0.00487328 0)
(0.979318 0.00737951 0)
(0.976675 0.00563584 0)
(0.977462 0.00411006 0)
(0.973429 0.00369868 0)
(1.0494 -0.00579184 0)
(1.05219 -0.0136083 0)
(1.04641 -0.0167241 0)
(1.04361 -0.0239599 0)
(1.03234 -0.0240937 0)
(1.02682 -0.0279503 0)
(1.01506 -0.0235114 0)
(1.01049 -0.0207447 0)
(1.00251 -0.014875 0)
(0.999156 0.000316118 0)
(1.0053 0.00206663 0)
(1.00649 0.0232141 0)
(1.0357 0.012203 0)
(1.03197 0.00615707 0)
(1.04368 -0.00938803 0)
(1.03882 -0.0281211 0)
(1.0152 -0.0295596 0)
(1.00338 -0.0446823 0)
(0.962069 -0.00807949 0)
(0.978519 0.014996 0)
(0.994697 0.028756 0)
(1.01278 0.0468807 0)
(1.06302 0.00527926 0)
(1.03085 -0.0173445 0)
(1.0026 -0.0238576 0)
(0.998025 -0.026263 0)
(0.954267 0.026578 0)
(0.988149 0.0497987 0)
(1.04401 0.00258773 0)
(1.00767 0.00615461 0)
(0.984895 0.0318822 0)
(1.01032 0.0206715 0)
(1.02134 0.00673307 0)
(1.01092 0.00805618 0)
(1.00867 0.00865565 0)
(1.00723 0.0057756 0)
(1.00735 0.00460015 0)
(1.00375 0.00435214 0)
(1.04108 -0.00188382 0)
(1.04236 -0.00749294 0)
(1.03933 -0.00919274 0)
(1.03715 -0.0146135 0)
(1.02994 -0.0142491 0)
(1.02661 -0.0173996 0)
(1.01853 -0.0143947 0)
(1.01662 -0.0131807 0)
(1.01058 -0.00964468 0)
(1.0102 -0.00138769 0)
(1.01233 -0.00141612 0)
(1.01333 0.0109488 0)
(1.02778 0.00215796 0)
(1.02548 0.00235179 0)
(1.03281 -0.00764952 0)
(1.02548 -0.0185409 0)
(1.01497 -0.0196993 0)
(1.00401 -0.0282661 0)
(0.984194 -0.00382234 0)
(0.994392 0.00575581 0)
(1.00038 0.019042 0)
(1.01658 0.0297696 0)
(1.03953 0.00129886 0)
(1.0213 -0.00809687 0)
(1.01126 -0.0169267 0)
(0.997919 -0.0160287 0)
(0.982788 0.0260487 0)
(1.01232 0.0321749 0)
(1.02832 0.00165257 0)
(1.00502 0.0125684 0)
(1.00988 0.0282431 0)
(1.02745 0.015769 0)
(1.02744 0.0075711 0)
(1.02171 0.0093437 0)
(1.02327 0.00858195 0)
(1.02232 0.00595155 0)
(1.02198 0.00510461 0)
(1.0197 0.00484553 0)
(1.03454 0.000848668 0)
(1.03529 -0.00290759 0)
(1.03385 -0.0040904 0)
(1.03236 -0.00781579 0)
(1.02791 -0.00773851 0)
(1.02578 -0.0100132 0)
(1.02051 -0.00853105 0)
(1.01965 -0.00801408 0)
(1.01544 -0.00645531 0)
(1.01598 -0.00192272 0)
(1.01565 -0.00262203 0)
(1.01688 0.0038397 0)
(1.02309 -0.0011695 0)
(1.02109 -0.000598372 0)
(1.02531 -0.00670092 0)
(1.01941 -0.0118435 0)
(1.01561 -0.0116822 0)
(1.00655 -0.0156515 0)
(0.997725 -0.00139263 0)
(1.00285 0.00330047 0)
(1.00368 0.0118648 0)
(1.01699 0.0170948 0)
(1.02733 0.00185793 0)
(1.01787 -0.00128702 0)
(1.01399 -0.00663409 0)
(0.999781 -0.00634886 0)
(0.996139 0.0184541 0)
(1.01816 0.0204624 0)
(1.02023 0.00670812 0)
(1.0074 0.0157143 0)
(1.01828 0.0227763 0)
(1.02889 0.0133467 0)
(1.0271 0.00885345 0)
(1.02536 0.00968642 0)
(1.02743 0.00834114 0)
(1.02676 0.00624674 0)
(1.02646 0.00553935 0)
(1.02533 0.00520923 0)
(1.02948 0.00266862 0)
(1.03006 0.000211508 0)
(1.02948 -0.000752127 0)
(1.02851 -0.00322311 0)
(1.02586 -0.00351721 0)
(1.02445 -0.00508711 0)
(1.02119 -0.00460851 0)
(1.0207 -0.00456789 0)
(1.0179 -0.00403489 0)
(1.0183 -0.00192986 0)
(1.01738 -0.00258843 0)
(1.01803 0.000589287 0)
(1.02015 -0.00232871 0)
(1.01903 -0.00169184 0)
(1.02085 -0.00487663 0)
(1.01657 -0.00713858 0)
(1.01513 -0.00704405 0)
(1.00891 -0.008775 0)
(1.00503 -0.000698014 0)
(1.00758 0.00146097 0)
(1.00761 0.0071519 0)
(1.01549 0.0101998 0)
(1.01951 0.00180453 0)
(1.01527 0.000516083 0)
(1.01389 -0.00276542 0)
(1.00525 -0.00154595 0)
(1.00474 0.0138451 0)
(1.01663 0.0145733 0)
(1.01619 0.00737075 0)
(1.01144 0.0135927 0)
(1.02045 0.0179344 0)
(1.02648 0.0122537 0)
(1.02574 0.00900465 0)
(1.02604 0.00879837 0)
(1.02768 0.00763562 0)
(1.02733 0.00615068 0)
(1.02719 0.00551099 0)
(1.02667 0.00519702 0)
(1.02548 0.00374874 0)
(1.02599 0.00218902 0)
(1.02582 0.00131664 0)
(1.02528 -0.000267391 0)
(1.02374 -0.000787733 0)
(1.02283 -0.00186292 0)
(1.02083 -0.00195434 0)
(1.02046 -0.00218349 0)
(1.01867 -0.00218934 0)
(1.01885 -0.00140049 0)
(1.01779 -0.00190328 0)
(1.01807 -0.00064109 0)
(1.01849 -0.00209229 0)
(1.01764 -0.00177332 0)
(1.01818 -0.00344922 0)
(1.01529 -0.0042785 0)
(1.01479 -0.00411751 0)
(1.01104 -0.00452611 0)
(1.00925 -0.000142033 0)
(1.01026 0.00127525 0)
(1.00998 0.00443277 0)
(1.01443 0.00616429 0)
(1.01619 0.00248599 0)
(1.01448 0.0023394 0)
(1.01365 0.00105905 0)
(1.0085 0.00217554 0)
(1.00892 0.0101247 0)
(1.01597 0.0110293 0)
(1.01587 0.0085705 0)
(1.01393 0.0126714 0)
(1.01983 0.0148276 0)
(1.02415 0.0114576 0)
(1.02465 0.00924086 0)
(1.0256 0.00853838 0)
(1.02678 0.00749182 0)
(1.02684 0.00630899 0)
(1.02682 0.00574799 0)
(1.02667 0.00540616 0)
(1.02219 0.00429679 0)
(1.02266 0.00329479 0)
(1.02272 0.00254738 0)
(1.02247 0.0015103 0)
(1.02159 0.000934249 0)
(1.02099 0.000152261 0)
(1.01978 -0.000170805 0)
(1.01952 -0.000529974 0)
(1.0184 -0.000751009 0)
(1.01839 -0.000631145 0)
(1.01752 -0.00103803 0)
(1.0175 -0.000626377 0)
(1.01731 -0.00143782 0)
(1.01666 -0.00130139 0)
(1.01661 -0.00213808 0)
(1.01483 -0.00235557 0)
(1.01448 -0.00211857 0)
(1.01236 -0.00212573 0)
(1.01137 0.000215236 0)
(1.01173 0.00114967 0)
(1.0116 0.00293413 0)
(1.01369 0.00418493 0)
(1.01435 0.00254188 0)
(1.01377 0.00276077 0)
(1.01336 0.00229549 0)
(1.01119 0.00333698 0)
(1.01169 0.00800287 0)
(1.01518 0.00890722 0)
(1.01552 0.00785114 0)
(1.01551 0.0103826 0)
(1.01931 0.0120001 0)
(1.02242 0.0102727 0)
(1.02343 0.00864776 0)
(1.02474 0.00771211 0)
(1.02574 0.00683732 0)
(1.02616 0.00594785 0)
(1.02617 0.00548724 0)
(1.02633 0.00520194 0)
(1.01947 0.00445975 0)
(1.0199 0.00382045 0)
(1.02004 0.00319642 0)
(1.01997 0.00250958 0)
(1.01949 0.00195817 0)
(1.01914 0.00139343 0)
(1.01841 0.00099893 0)
(1.01823 0.000628545 0)
(1.01754 0.000322084 0)
(1.01747 0.000156686 0)
(1.01682 -0.000163352 0)
(1.01669 -0.00018252 0)
(1.01636 -0.000602386 0)
(1.01587 -0.000656704 0)
(1.01562 -0.000997132 0)
(1.01454 -0.00108051 0)