/*--------------------------------*- C++ -*----------------------------------*\
| =========                 |                                                 |
| \\      /  F ield         | OpenFOAM: The Open Source CFD Toolbox           |
|  \\    /   O peration     | Version:  2312                                  |
|   \\  /    A nd           | Website:  www.openfoam.com                      |
|    \\/     M anipulation  |                                                 |
\*---------------------------------------------------------------------------*/
FoamFile
{
    version     2.0;
    format      ascii;
    arch        "LSB;label=32;scalar=64";
    class       volScalarField;
    location    "36";
    object      p;
}
// * * * * * * * * * * * * * * * * * * * * * * * * * * * * * * * * * * * * * //

dimensions      [0 2 -2 0 0 0 0];

internalField   nonuniform List<scalar> 
32230
(
-0.34557
-0.345516
-0.344968
-0.343983
-0.342626
-0.340967
-0.339102
-0.337151
-0.335243
-0.333512
-0.332079
-0.331054
-0.330526
-0.330561
-0.331204
-0.332471
-0.334356
-0.336824
-0.339821
-0.343265
-0.347053
-0.351068
-0.355175
-0.359234
-0.363103
-0.366646
-0.369741
-0.372284
-0.374198
-0.375422
-0.375942
-0.375703
-0.374797
-0.372981
-0.370547
-0.366369
-0.361046
-0.346231
-0.346283
-0.345762
-0.344758
-0.34336
-0.341648
-0.339719
-0.337692
-0.335695
-0.333857
-0.332298
-0.331127
-0.330427
-0.330261
-0.330665
-0.331643
-0.333174
-0.335207
-0.337665
-0.340446
-0.343432
-0.346493
-0.349492
-0.3523
-0.354793
-0.356868
-0.358443
-0.359458
-0.359878
-0.359678
-0.358853
-0.357378
-0.355239
-0.352321
-0.348649
-0.343846
-0.338995
-0.347584
-0.347665
-0.347125
-0.346081
-0.344639
-0.342886
-0.340917
-0.338848
-0.336801
-0.334898
-0.333254
-0.331965
-0.331108
-0.330735
-0.330866
-0.331492
-0.332573
-0.334041
-0.335802
-0.337747
-0.339753
-0.341698
-0.343465
-0.344951
-0.346074
-0.346772
-0.347006
-0.346752
-0.346
-0.34474
-0.342971
-0.340652
-0.337792
-0.334272
-0.330193
-0.325386
-0.320642
-0.349696
-0.349718
-0.34911
-0.347999
-0.346503
-0.344708
-0.34271
-0.340616
-0.33854
-0.33659
-0.334867
-0.333457
-0.33242
-0.331791
-0.331576
-0.331746
-0.332248
-0.333001
-0.333909
-0.334867
-0.335768
-0.336517
-0.337031
-0.337248
-0.337125
-0.336637
-0.335771
-0.33452
-0.332879
-0.330839
-0.328391
-0.325504
-0.322182
-0.318347
-0.314131
-0.309372
-0.304935
-0.352598
-0.352475
-0.351742
-0.350528
-0.348952
-0.347099
-0.345063
-0.342938
-0.340825
-0.338817
-0.336997
-0.335431
-0.334159
-0.333199
-0.332536
-0.332131
-0.331921
-0.331827
-0.331766
-0.331652
-0.331413
-0.330988
-0.330334
-0.329424
-0.328244
-0.326785
-0.325044
-0.323015
-0.320691
-0.318058
-0.315108
-0.311816
-0.308187
-0.304176
-0.299888
-0.295222
-0.290888
-0.35629
-0.355939
-0.355022
-0.353661
-0.351964
-0.350021
-0.347917
-0.345737
-0.343561
-0.341462
-0.339499
-0.337716
-0.33613
-0.334737
-0.33351
-0.332405
-0.331364
-0.330327
-0.329234
-0.328037
-0.326699
-0.325196
-0.323514
-0.321646
-0.319589
-0.317339
-0.314891
-0.312235
-0.309362
-0.306258
-0.302912
-0.299307
-0.295449
-0.291305
-0.286969
-0.282346
-0.278049
-0.360761
-0.360101
-0.358947
-0.357384
-0.355519
-0.353442
-0.351232
-0.348956
-0.346673
-0.344429
-0.342256
-0.340167
-0.338159
-0.336213
-0.334298
-0.332379
-0.330421
-0.328393
-0.326272
-0.324045
-0.321706
-0.319256
-0.316694
-0.314022
-0.311237
-0.308332
-0.305297
-0.302123
-0.298795
-0.295301
-0.291631
-0.287772
-0.283729
-0.279478
-0.275094
-0.270494
-0.266198
-0.365991
-0.364971
-0.363519
-0.361703
-0.35962
-0.357363
-0.355
-0.352578
-0.350128
-0.347662
-0.34518
-0.342668
-0.340106
-0.337473
-0.334753
-0.331934
-0.329015
-0.326002
-0.322905
-0.319739
-0.316518
-0.31325
-0.30994
-0.306586
-0.303184
-0.299722
-0.296188
-0.29257
-0.288854
-0.285028
-0.281082
-0.277008
-0.272805
-0.268459
-0.264024
-0.25943
-0.255113
-0.371999
-0.370561
-0.368763
-0.366649
-0.364303
-0.361821
-0.359255
-0.356624
-0.353923
-0.351127
-0.348202
-0.345118
-0.341853
-0.338404
-0.334783
-0.331016
-0.327137
-0.323184
-0.319193
-0.315191
-0.311198
-0.307224
-0.303269
-0.299328
-0.295391
-0.291446
-0.287478
-0.283474
-0.279421
-0.275307
-0.271123
-0.266862
-0.26252
-0.258088
-0.253603
-0.249009
-0.244664
-0.378816
-0.37691
-0.374726
-0.372277
-0.369633
-0.36688
-0.364051
-0.361127
-0.358057
-0.354782
-0.351248
-0.347423
-0.343308
-0.338932
-0.334348
-0.329622
-0.324818
-0.319994
-0.315196
-0.310453
-0.305782
-0.301188
-0.296667
-0.292209
-0.287801
-0.283429
-0.279078
-0.274734
-0.270384
-0.266017
-0.261624
-0.257198
-0.252733
-0.248223
-0.24369
-0.239091
-0.234716
-0.386485
-0.384067
-0.381465
-0.378656
-0.37568
-0.372608
-0.369436
-0.366099
-0.362504
-0.358567
-0.354233
-0.349496
-0.344399
-0.339018
-0.333447
-0.327782
-0.322106
-0.316482
-0.310956
-0.30555
-0.300275
-0.295128
-0.290101
-0.28518
-0.28035
-0.275596
-0.270904
-0.266257
-0.261645
-0.257055
-0.252479
-0.247907
-0.243334
-0.238754
-0.234178
-0.229575
-0.225171
-0.395048
-0.392077
-0.389035
-0.385846
-0.382504
-0.379046
-0.37542
-0.371511
-0.367196
-0.362385
-0.357057
-0.351256
-0.345078
-0.338648
-0.332095
-0.325529
-0.319038
-0.31268
-0.30649
-0.300483
-0.294659
-0.28901
-0.283523
-0.278183
-0.272972
-0.267876
-0.262876
-0.257961
-0.253116
-0.248329
-0.243591
-0.238892
-0.234225
-0.229584
-0.224969
-0.220364
-0.215935
-0.404524
-0.400968
-0.397472
-0.393885
-0.390129
-0.386191
-0.381961
-0.37728
-0.372017
-0.366117
-0.359615
-0.352626
-0.345305
-0.337816
-0.330304
-0.322883
-0.31563
-0.308592
-0.30179
-0.295227
-0.288898
-0.282788
-0.27688
-0.271157
-0.265601
-0.260194
-0.254921
-0.249766
-0.244715
-0.239755
-0.234876
-0.230067
-0.22532
-0.220627
-0.215983
-0.211381
-0.206931
-0.414927
-0.410742
-0.406779
-0.402768
-0.39853
-0.39398
-0.388951
-0.383264
-0.376815
-0.369618
-0.361796
-0.353536
-0.345045
-0.336508
-0.328073
-0.319841
-0.311873
-0.304198
-0.296823
-0.289744
-0.282944
-0.276407
-0.270113
-0.26404
-0.258171
-0.252485
-0.246967
-0.241599
-0.236367
-0.231258
-0.226258
-0.221356
-0.216543
-0.211809
-0.207147
-0.202555
-0.198092
-0.426154
-0.421345
-0.416909
-0.412437
-0.407617
-0.402281
-0.396222
-0.389274
-0.381407
-0.37274
-0.363492
-0.35392
-0.344261
-0.334706
-0.325388
-0.316387
-0.307743
-0.299468
-0.291556
-0.283992
-0.276756
-0.269824
-0.263174
-0.256783
-0.25063
-0.244696
-0.238961
-0.233407
-0.228019
-0.222781
-0.217681
-0.212704
-0.20784
-0.203079
-0.19841
-0.193837
-0.189372
-0.438112
-0.43268
-0.427762
-0.422771
-0.417231
-0.410894
-0.403545
-0.395084
-0.385602
-0.37534
-0.364613
-0.353726
-0.342928
-0.332395
-0.322237
-0.312507
-0.303223
-0.294382
-0.285964
-0.277947
-0.270304
-0.263008
-0.256033
-0.249355
-0.242949
-0.236794
-0.23087
-0.225156
-0.219636
-0.214292
-0.209111
-0.204077
-0.199177
-0.1944
-0.189737
-0.185188
-0.180732
-0.450621
-0.444581
-0.439165
-0.433565
-0.427124
-0.419539
-0.410636
-0.400443
-0.3892
-0.377277
-0.365066
-0.352894
-0.341002
-0.329539
-0.318583
-0.308162
-0.298273
-0.288897
-0.280004
-0.271564
-0.263545
-0.255915
-0.248646
-0.24171
-0.23508
-0.228732
-0.222645
-0.216796
-0.211167
-0.20574
-0.200497
-0.195423
-0.190503
-0.185724
-0.181078
-0.176555
-0.172115
-0.463436
-0.456815
-0.450866
-0.444531
-0.436974
-0.427875
-0.417173
-0.405067
-0.391967
-0.37836
-0.364683
-0.351269
-0.33833
-0.325981
-0.314267
-0.303191
-0.29273
-0.282851
-0.273516
-0.264685
-0.256322
-0.248392
-0.24086
-0.233696
-0.226872
-0.220361
-0.214138
-0.20818
-0.202467
-0.196978
-0.191695
-0.1866
-0.181678
-0.176914
-0.172298
-0.16781
-0.163401
-0.476273
-0.469117
-0.462602
-0.455393
-0.446483
-0.435598
-0.422851
-0.40866
-0.393612
-0.378292
-0.363165
-0.348541
-0.334596
-0.321402
-0.308972
-0.29728
-0.286288
-0.275946
-0.266208
-0.257027
-0.24836
-0.240167
-0.232411
-0.225057
-0.218075
-0.211435
-0.205109
-0.199074
-0.193306
-0.187784
-0.182488
-0.177398
-0.172498
-0.167773
-0.16321
-0.158779
-0.15444
-0.321217
-0.321478
-0.321495
-0.321373
-0.321267
-0.3213
-0.321558
-0.322091
-0.32292
-0.32405
-0.325476
-0.327192
-0.329194
-0.33148
-0.33405
-0.336906
-0.340051
-0.343491
-0.347233
-0.351281
-0.355643
-0.360325
-0.36533
-0.370663
-0.376324
-0.382311
-0.388619
-0.395241
-0.402162
-0.409364
-0.416824
-0.42451
-0.432382
-0.440405
-0.448565
-0.456818
-0.464933
-0.32654
-0.326531
-0.326409
-0.326219
-0.326086
-0.326131
-0.326443
-0.327071
-0.328039
-0.329351
-0.331006
-0.332999
-0.335328
-0.337995
-0.341001
-0.344352
-0.348055
-0.352119
-0.356553
-0.361366
-0.366567
-0.372163
-0.37816
-0.384563
-0.391373
-0.398586
-0.406196
-0.414191
-0.422554
-0.431261
-0.440281
-0.449575
-0.459096
-0.468803
-0.478679
-0.488634
-0.498301
-0.331526
-0.331243
-0.330975
-0.330716
-0.33055
-0.330603
-0.330959
-0.33167
-0.332759
-0.334233
-0.336091
-0.33833
-0.34095
-0.343953
-0.347344
-0.351131
-0.355324
-0.359934
-0.364971
-0.370447
-0.376372
-0.382756
-0.389604
-0.39692
-0.404706
-0.412956
-0.421663
-0.430811
-0.440378
-0.450337
-0.460651
-0.471275
-0.482153
-0.493234
-0.504473
-0.515752
-0.526786
-0.336053
-0.335498
-0.335083
-0.334748
-0.334549
-0.334599
-0.334985
-0.335758
-0.336943
-0.338548
-0.340573
-0.343015
-0.345876
-0.349159
-0.35287
-0.35702
-0.361618
-0.366678
-0.372212
-0.378233
-0.384752
-0.391776
-0.399314
-0.407368
-0.415938
-0.425019
-0.434598
-0.444659
-0.455176
-0.466117
-0.477439
-0.489092
-0.501015
-0.513143
-0.525409
-0.537692
-0.54986
-0.340029
-0.339216
-0.338655
-0.338242
-0.337998
-0.33803
-0.338424
-0.339232
-0.34048
-0.342177
-0.344323
-0.346917
-0.34996
-0.353456
-0.357414
-0.361841
-0.366752
-0.372158
-0.378074
-0.384512
-0.391485
-0.398995
-0.407053
-0.415661
-0.424818
-0.434516
-0.444741
-0.455473
-0.466685
-0.47834
-0.490391
-0.502783
-0.515448
-0.528313
-0.541286
-0.554215
-0.567054
-0.343388
-0.342341
-0.341642
-0.341145
-0.340844
-0.340838
-0.341213
-0.342021
-0.34329
-0.34503
-0.347243
-0.34993
-0.35309
-0.356727
-0.36085
-0.365468
-0.370593
-0.376238
-0.382417
-0.389141
-0.396421
-0.404264
-0.412676
-0.421658
-0.431207
-0.441313
-0.451961
-0.46313
-0.47479
-0.486901
-0.499413
-0.512266
-0.525386
-0.538685
-0.552052
-0.565305
-0.578297
-0.346092
-0.344845
-0.34402
-0.343436
-0.343064
-0.342997
-0.34332
-0.344087
-0.345328
-0.347056
-0.349277
-0.35199
-0.355196
-0.358898
-0.363103
-0.36782
-0.373061
-0.378838
-0.385163
-0.392047
-0.399499
-0.407526
-0.416131
-0.425315
-0.435071
-0.44539
-0.456254
-0.467639
-0.479515
-0.49184
-0.504562
-0.517619
-0.530932
-0.544407
-0.557927
-0.571338
-0.584352
-0.348135
-0.346731
-0.345795
-0.345123
-0.344667
-0.344515
-0.34475
-0.345429
-0.346588
-0.348245
-0.350408
-0.353077
-0.356254
-0.359942
-0.364145
-0.368873
-0.374134
-0.379941
-0.386302
-0.393228
-0.400726
-0.408801
-0.417455
-0.426685
-0.436483
-0.446837
-0.457729
-0.469132
-0.481014
-0.493332
-0.506032
-0.51905
-0.532304
-0.545698
-0.559094
-0.572438
-0.585114
-0.349539
-0.348028
-0.347002
-0.346245
-0.345693
-0.34543
-0.34554
-0.346085
-0.347106
-0.348628
-0.350662
-0.353215
-0.356287
-0.359881
-0.364002
-0.368654
-0.373848
-0.379589
-0.385888
-0.392752
-0.400185
-0.408191
-0.416767
-0.42591
-0.435609
-0.445849
-0.456609
-0.46786
-0.479568
-0.491687
-0.504161
-0.516923
-0.529882
-0.542958
-0.555936
-0.568974
-0.580966
-0.350355
-0.348788
-0.347697
-0.34686
-0.346205
-0.34581
-0.345761
-0.346124
-0.34695
-0.348273
-0.35011
-0.352472
-0.355364
-0.358788
-0.362747
-0.367246
-0.37229
-0.377885
-0.384037
-0.390749
-0.398026
-0.405865
-0.414263
-0.423212
-0.4327
-0.442707
-0.45321
-0.464178
-0.47557
-0.487339
-0.499425
-0.511756
-0.524212
-0.536766
-0.549062
-0.561548
-0.572473
-0.35065
-0.34908
-0.347953
-0.347047
-0.346286
-0.345743
-0.345504
-0.345645
-0.346223
-0.347285
-0.348858
-0.350959
-0.353598
-0.356778
-0.360504
-0.364778
-0.369602
-0.374981
-0.380915
-0.387407
-0.394454
-0.402054
-0.410199
-0.418878
-0.428074
-0.437767
-0.447927
-0.458521
-0.469504
-0.480817
-0.492395
-0.504182
-0.516003
-0.527909
-0.539281
-0.55101
-0.560531
-0.350507
-0.348988
-0.347854
-0.346893
-0.346027
-0.345326
-0.344877
-0.344761
-0.345048
-0.345796
-0.347046
-0.348823
-0.351143
-0.354015
-0.357443
-0.36143
-0.365975
-0.37108
-0.376743
-0.382961
-0.38973
-0.397041
-0.404884
-0.413245
-0.422102
-0.431432
-0.441201
-0.451361
-0.461876
-0.472693
-0.483705
-0.494873
-0.505931
-0.517095
-0.527365
-0.538184
-0.546008
-0.350017
-0.348599
-0.347488
-0.346489
-0.345527
-0.344665
-0.343993
-0.343598
-0.343562
-0.343957
-0.344835
-0.346236
-0.348184
-0.350693
-0.353771
-0.357421
-0.361642
-0.366432
-0.371786
-0.377696
-0.384155
-0.391151
-0.398668
-0.40669
-0.415185
-0.424125
-0.433477
-0.4432
-0.453224
-0.463487
-0.473862
-0.48434
-0.494531
-0.504835
-0.51385
-0.523557
-0.529491
-0.349277
-0.348003
-0.346945
-0.345925
-0.344877
-0.34386
-0.342962
-0.342279
-0.341904
-0.341921
-0.342399
-0.343389
-0.344927
-0.347035
-0.349725
-0.353004
-0.35687
-0.361319
-0.366342
-0.37193
-0.378067
-0.384741
-0.391922
-0.399594
-0.407732
-0.41629
-0.425217
-0.434459
-0.443937
-0.453579
-0.463224
-0.472874
-0.482042
-0.491234
-0.498847
-0.507098
-0.511161
-0.348386
-0.347295
-0.346312
-0.345288
-0.344166
-0.343003
-0.341888
-0.34092
-0.340206
-0.339841
-0.339909
-0.340474
-0.341585
-0.343274
-0.345559
-0.34845
-0.351949
-0.35605
-0.360734
-0.366005
-0.371808
-0.378156
-0.385023
-0.392359
-0.400123
-0.408265
-0.41672
-0.425413
-0.434243
-0.443119
-0.451853
-0.460425
-0.468354
-0.476072
-0.482134
-0.488423
-0.490506
-0.347447
-0.346567
-0.345677
-0.34466
-0.343477
-0.342181
-0.340863
-0.339629
-0.338591
-0.337859
-0.337528
-0.337679
-0.338369
-0.339641
-0.341524
-0.34403
-0.347169
-0.35095
-0.355268
-0.360192
-0.365715
-0.37176
-0.378292
-0.385262
-0.392609
-0.400261
-0.408128
-0.416109
-0.424081
-0.431925
-0.439464
-0.446636
-0.453081
-0.459052
-0.463507
-0.467636
-0.467888
-0.346571
-0.345918
-0.345129
-0.344125
-0.34289
-0.341478
-0.339978
-0.338503
-0.337172
-0.336106
-0.33541
-0.335176
-0.335475
-0.336357
-0.337859
-0.339996
-0.342767
-0.346155
-0.350231
-0.354876
-0.360074
-0.365778
-0.371928
-0.378452
-0.385264
-0.392259
-0.399322
-0.406323
-0.413126
-0.419594
-0.425589
-0.431031
-0.435749
-0.439892
-0.442868
-0.445275
-0.444241
-0.34588
-0.345454
-0.344763
-0.343774
-0.342493
-0.340978
-0.339323
-0.337641
-0.33606
-0.334706
-0.333694
-0.333124
-0.333078
-0.333615
-0.334775
-0.336581
-0.339041
-0.342142
-0.345873
-0.35018
-0.355011
-0.360296
-0.36595
-0.371871
-0.377944
-0.384039
-0.390017
-0.395733
-0.401054
-0.405842
-0.410012
-0.413481
-0.416258
-0.418458
-0.419985
-0.421336
-0.420178
-0.345503
-0.345286
-0.344681
-0.3437
-0.342377
-0.340777
-0.338995
-0.337148
-0.335367
-0.333782
-0.332514
-0.331671
-0.331339
-0.331585
-0.332455
-0.33397
-0.336133
-0.338927
-0.342314
-0.346236
-0.350615
-0.355356
-0.360347
-0.365459
-0.370555
-0.37549
-0.380121
-0.384312
-0.387947
-0.390917
-0.393185
-0.394662
-0.395459
-0.395492
-0.395077
-0.394539
-0.393608
-0.473928
-0.483374
-0.49182
-0.498868
-0.504235
-0.507641
-0.508816
-0.507529
-0.503645
-0.497179
-0.48834
-0.477567
-0.465521
-0.453066
-0.441209
-0.431008
-0.423482
-0.419518
-0.419713
-0.424231
-0.432737
-0.444486
-0.458341
-0.472662
-0.489684
-0.501949
-0.51195
-0.51813
-0.519043
-0.513536
-0.499881
-0.47562
-0.438571
-0.389111
-0.331666
-0.273189
-0.219876
-0.175118
-0.139485
-0.111908
-0.0907858
-0.0745483
-0.0618778
-0.0517612
-0.0435124
-0.0367625
-0.0313458
-0.027046
-0.0234069
-0.0198871
-0.0162476
-0.0129044
-0.00996717
-0.00769785
-0.0062823
-0.00564955
-0.0055857
-0.00584846
-0.00624514
-0.00665272
-0.00700235
-0.00726513
-0.00743257
-0.00750724
-0.00749612
-0.007407
-0.00724928
-0.00702986
-0.0067582
-0.00644026
-0.00608634
-0.00570243
-0.00529972
-0.00488496
-0.00446932
-0.00405976
-0.00366552
-0.00329403
-0.00294937
-0.00263856
-0.00235589
-0.00211025
-0.00188056
-0.00168255
-0.00147698
-0.00130053
-0.00109127
-0.000919569
-0.000692458
-0.000530315
-0.000306577
-0.000185786
-1.40977e-05
-0.509154
-0.519743
-0.529156
-0.536765
-0.542298
-0.545497
-0.546017
-0.543535
-0.537844
-0.528905
-0.516915
-0.502348
-0.485925
-0.468582
-0.451394
-0.43549
-0.422024
-0.412153
-0.406787
-0.406416
-0.410995
-0.419934
-0.432166
-0.446415
-0.462062
-0.475773
-0.487228
-0.495099
-0.497547
-0.493434
-0.481022
-0.457907
-0.422319
-0.374963
-0.320112
-0.264344
-0.213526
-0.170888
-0.137007
-0.110909
-0.0910551
-0.0758945
-0.0641264
-0.0547872
-0.0472791
-0.0413143
-0.0366878
-0.0329429
-0.0293639
-0.0253494
-0.0208098
-0.0167174
-0.013096
-0.0102507
-0.00838601
-0.00740319
-0.00705844
-0.00709388
-0.00730541
-0.00756152
-0.0077858
-0.00794237
-0.0080168
-0.00800797
-0.00792038
-0.00776136
-0.00753978
-0.00726333
-0.00694118
-0.00657994
-0.0061892
-0.00577517
-0.00534787
-0.00491408
-0.00448359
-0.00406337
-0.00366116
-0.00328447
-0.00293597
-0.00262277
-0.00233843
-0.00209151
-0.00186166
-0.00166297
-0.00145898
-0.00128225
-0.00107667
-0.000904754
-0.000683763
-0.000520732
-0.00030485
-0.000181589
-1.78873e-05
-0.539506
-0.551316
-0.561713
-0.569902
-0.575497
-0.578573
-0.578597
-0.575098
-0.567777
-0.556524
-0.541515
-0.523328
-0.502777
-0.480869
-0.458697
-0.437425
-0.418297
-0.402668
-0.391692
-0.386126
-0.386283
-0.391829
-0.401845
-0.415033
-0.42995
-0.444416
-0.456877
-0.466717
-0.47089
-0.468163
-0.457368
-0.435939
-0.402416
-0.35773
-0.306135
-0.253773
-0.206076
-0.166051
-0.134307
-0.109982
-0.0916128
-0.0776939
-0.0669788
-0.0585937
-0.0520423
-0.0470814
-0.0433408
-0.0400341
-0.0362561
-0.0314691
-0.0257084
-0.0208453
-0.0164884
-0.0129912
-0.010614
-0.00922966
-0.00856827
-0.00835423
-0.00836905
-0.00846917
-0.00856753
-0.0086194
-0.00860318
-0.00851348
-0.00835193
-0.00812522
-0.00784163
-0.00750955
-0.00713792
-0.00673403
-0.00630677
-0.00586267
-0.00541059
-0.00495739
-0.00451149
-0.00407991
-0.00366893
-0.00328617
-0.00293295
-0.00261647
-0.00232952
-0.00208042
-0.00184938
-0.00164913
-0.00144578
-0.001268
-0.00106538
-0.000892687
-0.000677349
-0.000513082
-0.000304555
-0.000178576
-2.16828e-05
-0.564473
-0.577216
-0.588671
-0.597782
-0.602884
-0.60609
-0.605871
-0.60158
-0.592846
-0.579466
-0.561502
-0.539813
-0.515325
-0.489058
-0.462102
-0.435867
-0.411511
-0.390534
-0.374245
-0.363512
-0.358974
-0.360609
-0.367786
-0.379248
-0.393312
-0.407992
-0.421505
-0.432168
-0.43835
-0.437495
-0.428787
-0.409668
-0.379109
-0.337982
-0.290415
-0.242095
-0.198008
-0.160981
-0.13167
-0.109334
-0.0926193
-0.0800874
-0.0705876
-0.0633484
-0.0579737
-0.05419
-0.0513324
-0.0482759
-0.0440436
-0.0382742
-0.0308494
-0.0255634
-0.0201845
-0.0159306
-0.0129657
-0.0111254
-0.010112
-0.00962752
-0.00943503
-0.0093751
-0.00934716
-0.00929583
-0.00919133
-0.00902341
-0.00879046
-0.00849834
-0.0081546
-0.00776833
-0.00734819
-0.00690225
-0.00643872
-0.00596453
-0.0054874
-0.00501434
-0.00455241
-0.00410871
-0.00368814
-0.00329837
-0.00293951
-0.00261881
-0.00232835
-0.00207618
-0.00184307
-0.00164046
-0.00143693
-0.00125744
-0.00105711
-0.000883168
-0.000672938
-0.000507188
-0.000305415
-0.000176602
-2.5372e-05
-0.582943
-0.597454
-0.609875
-0.621565
-0.622883
-0.627616
-0.627595
-0.622817
-0.613011
-0.59786
-0.576854
-0.551889
-0.52365
-0.492994
-0.461294
-0.430591
-0.401416
-0.375527
-0.354429
-0.338774
-0.329578
-0.326907
-0.330629
-0.339739
-0.352529
-0.366981
-0.38108
-0.39266
-0.400484
-0.401727
-0.395345
-0.379129
-0.352396
-0.315731
-0.273021
-0.22939
-0.189409
-0.155752
-0.129135
-0.108976
-0.0940732
-0.0830901
-0.0749833
-0.0690932
-0.0651114
-0.0626225
-0.0605789
-0.0575665
-0.0526609
-0.0458267
-0.0359723
-0.0305991
-0.024168
-0.0190585
-0.0154318
-0.0130851
-0.0116873
-0.0109134
-0.0105037
-0.0102797
-0.0101248
-0.00997158
-0.00978106
-0.00953753
-0.00923576
-0.00888053
-0.00847851
-0.00803945
-0.00757177
-0.00708431
-0.00658471
-0.00608032
-0.00557785
-0.00508441
-0.00460582
-0.00414922
-0.00371822
-0.00332051
-0.0029551
-0.00262922
-0.00233435
-0.00207826
-0.00184224
-0.00163652
-0.00143206
-0.00125029
-0.00105158
-0.000875999
-0.000670284
-0.000502874
-0.000307186
-0.000175523
-2.88874e-05
-0.594475
-0.608659
-0.622859
-0.633945
-0.640315
-0.644253
-0.644046
-0.638828
-0.628234
-0.612159
-0.587198
-0.559754
-0.528014
-0.492973
-0.456496
-0.42257
-0.388739
-0.358132
-0.332866
-0.312573
-0.298976
-0.291824
-0.291538
-0.297572
-0.308458
-0.322206
-0.336516
-0.349006
-0.358194
-0.361985
-0.357264
-0.34472
-0.322466
-0.290949
-0.253799
-0.215452
-0.180073
-0.150161
-0.126501
-0.108722
-0.0958257
-0.0865863
-0.0800719
-0.0757566
-0.0733686
-0.072238
-0.0709155
-0.0677601
-0.0620017
-0.0542571
-0.0472163
-0.0363133
-0.0284253
-0.0223576
-0.0180031
-0.0151052
-0.0132937
-0.0122128
-0.0115763
-0.0111838
-0.0109009
-0.0106467
-0.0103721
-0.0100555
-0.00968752
-0.00927148
-0.00881307
-0.00832261
-0.00780832
-0.00727985
-0.00674433
-0.0062096
-0.00568142
-0.00516707
-0.00467116
-0.00420087
-0.0037586
-0.00335204
-0.00297917
-0.00264717
-0.00234704
-0.00208618
-0.00184647
-0.00163695
-0.00143085
-0.00124629
-0.00104856
-0.000870998
-0.000669169
-0.000499975
-0.000309661
-0.000175204
-3.21963e-05
-0.601171
-0.61708
-0.630966
-0.642185
-0.650055
-0.654437
-0.654373
-0.648958
-0.637526
-0.619592
-0.594559
-0.564151
-0.528848
-0.489685
-0.447174
-0.414103
-0.374536
-0.338844
-0.311037
-0.286045
-0.268522
-0.256695
-0.252096
-0.254296
-0.26241
-0.274788
-0.28889
-0.302102
-0.312503
-0.318444
-0.316478
-0.306926
-0.289705
-0.263917
-0.232815
-0.200196
-0.169824
-0.143992
-0.12355
-0.10837
-0.097693
-0.0904015
-0.0856939
-0.0831864
-0.0825562
-0.0828119
-0.0821348
-0.0786931
-0.0718811
-0.0626257
-0.0532885
-0.0420206
-0.0328794
-0.0258001
-0.0206688
-0.0171827
-0.0149319
-0.0135275
-0.0126544
-0.0120884
-0.0116759
-0.0113211
-0.0109644
-0.0105771
-0.0101453
-0.00967078
-0.00915787
-0.00861742
-0.00805744
-0.00748844
-0.00691713
-0.00635189
-0.00579761
-0.00526177
-0.00474785
-0.0042631
-0.00380873
-0.00339241
-0.0030112
-0.00267219
-0.00236598
-0.00209954
-0.00185541
-0.00164145
-0.00143305
-0.00124523
-0.00104784
-0.00086801
-0.00066941
-0.000498347
-0.000312675
-0.000175521
-3.52903e-05
-0.602045
-0.618708
-0.633027
-0.644594
-0.653177
-0.658076
-0.658343
-0.653002
-0.641214
-0.622427
-0.596521
-0.564266
-0.526602
-0.484964
-0.441417
-0.400223
-0.358136
-0.316331
-0.291469
-0.259867
-0.240335
-0.223294
-0.214075
-0.21185
-0.216243
-0.226293
-0.239455
-0.25301
-0.264613
-0.272595
-0.274691
-0.267001
-0.254594
-0.235191
-0.210318
-0.183675
-0.158569
-0.137085
-0.120118
-0.107739
-0.0994643
-0.0943053
-0.091618
-0.0911389
-0.0924003
-0.0940671
-0.0940006
-0.0901837
-0.0821159
-0.0710751
-0.0600551
-0.0478626
-0.0374849
-0.0293621
-0.0234189
-0.0193154
-0.0166034
-0.0148599
-0.0137402
-0.0129952
-0.0124506
-0.0119952
-0.0115576
-0.0111018
-0.0106087
-0.0100779
-0.00951242
-0.00892341
-0.00831867
-0.00770963
-0.00710263
-0.00650669
-0.0059259
-0.00536799
-0.00483537
-0.00433536
-0.00386807
-0.00344112
-0.00305073
-0.00270386
-0.00239077
-0.00211803
-0.00186877
-0.00164977
-0.00143843
-0.00124691
-0.00104925
-0.000866899
-0.000670858
-0.000497868
-0.000316096
-0.000176372
-3.81756e-05
-0.597395
-0.614057
-0.628911
-0.640898
-0.649911
-0.655181
-0.655729
-0.650576
-0.638816
-0.619851
-0.593545
-0.560393
-0.521418
-0.4782
-0.432863
-0.387846
-0.343559
-0.301956
-0.267481
-0.231068
-0.21728
-0.193053
-0.179526
-0.172163
-0.172155
-0.178846
-0.189884
-0.202953
-0.215516
-0.225157
-0.230663
-0.227156
-0.218053
-0.205435
-0.186591
-0.165997
-0.146243
-0.129286
-0.116028
-0.106613
-0.100851
-0.0979663
-0.0974881
-0.0992353
-0.102545
-0.105688
-0.106245
-0.10201
-0.0924433
-0.0807585
-0.0673343
-0.0538377
-0.0421998
-0.0330191
-0.0262431
-0.0215012
-0.0183097
-0.0162127
-0.0148363
-0.0139058
-0.0132259
-0.0126692
-0.0121518
-0.0116293
-0.0110772
-0.0104924
-0.00987614
-0.00924001
-0.00859149
-0.00794291
-0.00730035
-0.00667351
-0.00606578
-0.00548521
-0.0049332
-0.00441715
-0.00393613
-0.00349772
-0.00309732
-0.00274179
-0.00242106
-0.00214132
-0.00188626
-0.00166168
-0.00144679
-0.0012512
-0.00105264
-0.000867554
-0.000673388
-0.000498439
-0.000319825
-0.000177671
-4.08639e-05
-0.587661
-0.603741
-0.618786
-0.631457
-0.640784
-0.646232
-0.64702
-0.642177
-0.630723
-0.612037
-0.585939
-0.552803
-0.513598
-0.469867
-0.423581
-0.376792
-0.330993
-0.288015
-0.249717
-0.215
-0.190034
-0.16457
-0.150004
-0.137189
-0.132293
-0.134865
-0.142382
-0.153598
-0.166295
-0.177364
-0.185548
-0.186983
-0.181941
-0.174386
-0.162072
-0.147315
-0.132802
-0.120409
-0.111014
-0.104692
-0.101443
-0.100908
-0.10281
-0.107035
-0.112592
-0.117315
-0.118562
-0.113941
-0.102281
-0.0899574
-0.0748149
-0.0598904
-0.046983
-0.036746
-0.02913
-0.0237371
-0.0200519
-0.0175885
-0.015945
-0.014822
-0.0140029
-0.0133435
-0.0127466
-0.0121591
-0.0115501
-0.0109134
-0.0102484
-0.00956665
-0.00887533
-0.00818774
-0.00750976
-0.00685185
-0.00621678
-0.00561296
-0.00504085
-0.00450801
-0.00401245
-0.00356179
-0.00315058
-0.00278564
-0.00245653
-0.00216917
-0.00190767
-0.00167701
-0.00145796
-0.00125795
-0.00105789
-0.000869876
-0.000676897
-0.000499976
-0.000323783
-0.00017935
-4.33656e-05
-0.574029
-0.588962
-0.603741
-0.617107
-0.626585
-0.631952
-0.632892
-0.62838
-0.617401
-0.599355
-0.574033
-0.54172
-0.503293
-0.46018
-0.414191
-0.367227
-0.320978
-0.27705
-0.236753
-0.200718
-0.170749
-0.144503
-0.124096
-0.107382
-0.0985476
-0.096833
-0.0993581
-0.107194
-0.118676
-0.13022
-0.140656
-0.148408
-0.146482
-0.142319
-0.137016
-0.127613
-0.118096
-0.110169
-0.104648
-0.101507
-0.10073
-0.102569
-0.107119
-0.114107
-0.122122
-0.128552
-0.130615
-0.125815
-0.111061
-0.0990704
-0.0823142
-0.0659455
-0.0517889
-0.0405158
-0.0320665
-0.0260185
-0.02183
-0.018989
-0.0170685
-0.0157455
-0.0147827
-0.0140185
-0.0133422
-0.0126909
-0.0120269
-0.0113405
-0.0106286
-0.00990272
-0.00916967
-0.00844364
-0.00773041
-0.00704126
-0.00637844
-0.00575079
-0.00515791
-0.00460751
-0.00409664
-0.00363295
-0.00321016
-0.00283509
-0.00249691
-0.00220132
-0.00193276
-0.00169557
-0.00147179
-0.00126704
-0.00106487
-0.000873781
-0.0006813
-0.000502412
-0.000327911
-0.000181359
-4.56843e-05
-0.557486
-0.570751
-0.585298
-0.598658
-0.60797
-0.613002
-0.613982
-0.609784
-0.599401
-0.58229
-0.558239
-0.52746
-0.490714
-0.449273
-0.404757
-0.358906
-0.313346
-0.269512
-0.228521
-0.191166
-0.158256
-0.129588
-0.105507
-0.08596
-0.0709466
-0.0666218
-0.0630855
-0.0662793
-0.0749769
-0.0851813
-0.096242
-0.106154
-0.110114
-0.109707
-0.110524
-0.106613
-0.10171
-0.0981236
-0.0963525
-0.0964314
-0.0982148
-0.102563
-0.110065
-0.120072
-0.130725
-0.138989
-0.142013
-0.137655
-0.127778
-0.108443
-0.0897042
-0.0719173
-0.0565668
-0.0442994
-0.0350377
-0.0283395
-0.0236431
-0.0204158
-0.018209
-0.0166784
-0.0155666
-0.0146948
-0.0139385
-0.0132243
-0.012507
-0.0117728
-0.0110161
-0.0102476
-0.00947393
-0.00871012
-0.00796186
-0.00724134
-0.00655039
-0.00589836
-0.005284
-0.00471533
-0.00418836
-0.00371088
-0.00327575
-0.00288989
-0.00254195
-0.00223759
-0.00196136
-0.00171723
-0.00148814
-0.00127838
-0.0010735
-0.000879198
-0.000686525
-0.000505691
-0.000332161
-0.00018366
-4.7814e-05
-0.538421
-0.549247
-0.563338
-0.576391
-0.58516
-0.589847
-0.590842
-0.586976
-0.577322
-0.561428
-0.53909
-0.510458
-0.476167
-0.437302
-0.395262
-0.351577
-0.307712
-0.264946
-0.224279
-0.186452
-0.152016
-0.121187
-0.0942854
-0.0717947
-0.0540358
-0.0424309
-0.0342657
-0.0328909
-0.0378637
-0.0446493
-0.054599
-0.065109
-0.0734035
-0.0773955
-0.0807436
-0.0837957
-0.0830413
-0.0837274
-0.0855856
-0.0889074
-0.0936067
-0.10072
-0.111398
-0.124605
-0.138013
-0.148221
-0.152261
-0.148022
-0.136425
-0.116947
-0.0967678
-0.077708
-0.0612652
-0.0480683
-0.0380289
-0.0306939
-0.02549
-0.0218701
-0.0193688
-0.0176227
-0.0163561
-0.0153733
-0.0145356
-0.0137588
-0.0129897
-0.0122095
-0.0114098
-0.0106004
-0.00978731
-0.00898642
-0.00820346
-0.00745152
-0.00673212
-0.00605519
-0.00541874
-0.00483108
-0.00428727
-0.00379529
-0.00334709
-0.00294979
-0.00259144
-0.0022778
-0.00199331
-0.00174185
-0.0015069
-0.00129187
-0.00108368
-0.000886063
-0.000692514
-0.000509772
-0.000336497
-0.000186229
-4.97367e-05
-0.517098
-0.524659
-0.538064
-0.550662
-0.558611
-0.562987
-0.564064
-0.560634
-0.551902
-0.537522
-0.517295
-0.491314
-0.46008
-0.424475
-0.385658
-0.344926
-0.303552
-0.262662
-0.223151
-0.185688
-0.150767
-0.118718
-0.0898652
-0.0646912
-0.0437605
-0.0273852
-0.0151456
-0.00706396
-0.00927817
-0.0109679
-0.01822
-0.0271071
-0.0368748
-0.0441916
-0.0499122
-0.058771
-0.0618686
-0.0667104
-0.0721456
-0.0787872
-0.086825
-0.0971124
-0.111062
-0.127527
-0.143705
-0.155907
-0.160998
-0.156858
-0.144335
-0.12458
-0.103352
-0.083236
-0.065837
-0.0517948
-0.0410239
-0.0330729
-0.0273664
-0.0233504
-0.0205475
-0.0185788
-0.0171517
-0.0160541
-0.0151334
-0.0142938
-0.013474
-0.0126495
-0.0118086
-0.0109597
-0.0101085
-0.0092713
-0.00845402
-0.00767071
-0.00692265
-0.00622043
-0.00556133
-0.00495409
-0.00439279
-0.00388568
-0.00342376
-0.00301445
-0.00264508
-0.00232169
-0.00202841
-0.00176928
-0.00152792
-0.0013074
-0.00109533
-0.000894303
-0.000699207
-0.000514608
-0.000340883
-0.00018905
-5.14189e-05
-0.492651
-0.497475
-0.51018
-0.522097
-0.529107
-0.53325
-0.534542
-0.531722
-0.524158
-0.511588
-0.493809
-0.470851
-0.443079
-0.411168
-0.376033
-0.338738
-0.300361
-0.261895
-0.224154
-0.187754
-0.153153
-0.120702
-0.0907529
-0.0637368
-0.0401031
-0.020247
-0.00446949
0.00729584
0.012542
0.0151042
0.0108559
0.00525166
-0.00362629
-0.0125062
-0.0192521
-0.032188
-0.0389078
-0.0475064
-0.0563763
-0.0664752
-0.0780723
-0.0918575
-0.10904
-0.128654
-0.147522
-0.161758
-0.167967
-0.163944
-0.151119
-0.131248
-0.109345
-0.088419
-0.0702207
-0.0554315
-0.0439874
-0.035451
-0.029255
-0.0248454
-0.0217383
-0.0195424
-0.0179506
-0.0167354
-0.0157306
-0.0148284
-0.0139591
-0.0130919
-0.0122115
-0.0113248
-0.0104366
-0.00956388
-0.00871271
-0.00789807
-0.00712116
-0.00639326
-0.00571104
-0.00508367
-0.00450428
-0.00398148
-0.00350525
-0.00308343
-0.00270249
-0.00236897
-0.0020664
-0.00179932
-0.00155104
-0.00132485
-0.00110834
-0.000903834
-0.000706539
-0.000520148
-0.00034528
-0.000192098
-5.28035e-05
-0.466176
-0.46864
-0.480366
-0.491487