/*--------------------------------*- C++ -*----------------------------------*\
| =========                 |                                                 |
| \\      /  F ield         | OpenFOAM: The Open Source CFD Toolbox           |
|  \\    /   O peration     | Version:  2312                                  |
|   \\  /    A nd           | Website:  www.openfoam.com                      |
|    \\/     M anipulation  |                                                 |
\*---------------------------------------------------------------------------*/
FoamFile
{
    version     2.0;
    format      ascii;
    arch        "LSB;label=32;scalar=64";
    class       volScalarField;
    location    "122.4";
    object      p;
}
// * * * * * * * * * * * * * * * * * * * * * * * * * * * * * * * * * * * * * //

dimensions      [0 2 -2 0 0 0 0];

internalField   nonuniform List<scalar> 
5478
(
-0.630118
-0.625095
-0.621295
-0.619521
-0.619382
-0.617024
-0.607166
-0.585935
-0.5522
-0.507975
-0.457329
-0.40377
-0.350889
-0.297946
-0.246941
-0.639077
-0.633358
-0.627561
-0.621683
-0.614031
-0.601008
-0.57989
-0.549816
-0.511949
-0.468916
-0.423291
-0.377253
-0.332015
-0.288128
-0.247701
-0.653046
-0.646088
-0.637495
-0.62595
-0.608613
-0.584374
-0.553718
-0.51798
-0.478902
-0.438101
-0.396907
-0.356302
-0.316917
-0.279215
-0.24329
-0.672356
-0.662622
-0.649949
-0.630251
-0.60195
-0.567606
-0.530041
-0.491065
-0.451741
-0.412781
-0.374702
-0.337908
-0.302748
-0.269466
-0.238496
-0.696973
-0.681904
-0.663367
-0.63309
-0.593662
-0.551069
-0.508649
-0.467589
-0.428208
-0.390579
-0.354737
-0.320762
-0.288618
-0.258527
-0.230052
-0.724826
-0.703101
-0.674905
-0.632211
-0.582666
-0.533631
-0.487681
-0.445154
-0.40574
-0.369096
-0.334979
-0.303161
-0.273532
-0.245959
-0.219847
-0.750305
-0.722929
-0.680928
-0.625046
-0.566971
-0.513036
-0.464536
-0.421031
-0.381756
-0.346069
-0.313445
-0.283533
-0.256053
-0.230782
-0.206957
-0.767454
-0.735069
-0.677146
-0.609137
-0.54427
-0.486743
-0.43664
-0.392768
-0.354002
-0.319459
-0.288465
-0.260519
-0.235311
-0.21244
-0.191337
-0.463116
-0.467476
-0.472001
-0.478764
-0.487667
-0.497936
-0.508028
-0.515998
-0.519879
-0.51839
-0.511642
-0.501238
-0.490097
-0.481222
-0.473572
-0.499776
-0.50513
-0.512708
-0.524216
-0.539185
-0.555734
-0.572196
-0.584941
-0.589955
-0.583846
-0.565223
-0.535053
-0.495987
-0.453947
-0.409626
-0.536823
-0.542028
-0.551512
-0.5664
-0.585967
-0.608203
-0.629521
-0.645781
-0.651172
-0.640337
-0.610324
-0.561841
-0.495359
-0.42527
-0.3451
-0.569293
-0.57321
-0.582891
-0.598854
-0.619852
-0.643813
-0.666816
-0.683494
-0.687322
-0.670175
-0.62955
-0.567641
-0.483881
-0.395732
-0.298925
-0.593886
-0.595647
-0.60401
-0.618606
-0.638234
-0.66064
-0.68165
-0.695188
-0.693532
-0.669804
-0.620931
-0.551043
-0.462977
-0.372385
-0.28122
-0.609987
-0.60933
-0.61485
-0.626022
-0.641908
-0.659909
-0.67637
-0.684203
-0.67575
-0.64521
-0.591871
-0.520311
-0.437995
-0.354334
-0.274445
-0.619148
-0.616357
-0.618263
-0.624727
-0.635047
-0.647954
-0.657881
-0.657619
-0.640657
-0.603598
-0.548268
-0.480622
-0.408225
-0.337725
-0.26932
-0.62454
-0.620315
-0.618859
-0.620668
-0.626242
-0.632507
-0.633593
-0.6231
-0.597032
-0.554958
-0.500601
-0.439296
-0.376626
-0.316695
-0.259155
-0.492969
-0.519514
-0.417263
-0.301888
-0.224444
-0.197994
-0.218559
-0.254054
-0.250187
-0.186106
-0.152103
-0.137623
-0.115844
-0.10226
-0.115306
-0.140166
-0.140625
-0.123088
-0.103933
-0.121581
-0.135872
-0.135599
-0.118527
-0.131884
-0.136288
-0.187223
-0.203664
-0.160427
-0.0722858
-0.0571663
-0.0388929
-0.0278822
-0.0120394
-0.00843433
-0.00685814
-0.00460146
-0.00274719
-0.000867338
-0.387473
-0.374071
-0.291521
-0.232092
-0.207775
-0.206728
-0.242833
-0.290655
-0.285984
-0.206815
-0.155912
-0.139005
-0.117541
-0.103147
-0.115795
-0.139438
-0.140232
-0.119768
-0.0941345
-0.111365
-0.124156
-0.13145
-0.126208
-0.143392
-0.14824
-0.183394
-0.176854
-0.151208
-0.07849
-0.0610469
-0.0372072
-0.0261125
-0.0124795
-0.00874235
-0.0067416
-0.00452296
-0.00277138
-0.00089898
-0.276966
-0.232489
-0.168343
-0.166155
-0.184821
-0.203891
-0.248557
-0.307366
-0.303248
-0.221818
-0.156287
-0.13788
-0.120153
-0.106859
-0.118623
-0.139045
-0.139117
-0.115548
-0.0839546
-0.101123
-0.112804
-0.124949
-0.130473
-0.152341
-0.157772
-0.176123
-0.148023
-0.136863
-0.0824418
-0.0636964
-0.0350696
-0.0240612
-0.0128129
-0.00900418
-0.00661015
-0.00443152
-0.00279537
-0.000930809
-0.186791
-0.13307
-0.0614898
-0.0868751
-0.138159
-0.1784
-0.237497
-0.305223
-0.300817
-0.22781
-0.155521
-0.13486
-0.120626
-0.112288
-0.123592
-0.13979
-0.138511
-0.111375
-0.0745619
-0.0911801
-0.101865
-0.11647
-0.131506
-0.158118
-0.164502
-0.166896
-0.120378
-0.119311
-0.0839514
-0.0650565
-0.0327073
-0.021868
-0.0130014
-0.00920105
-0.00647704
-0.00433366
-0.00281573
-0.000959979
-0.161582
-0.063197
0.016369
0.0204258
-0.0483809
-0.123003
-0.212006
-0.290607
-0.286743
-0.221863
-0.151665
-0.129904
-0.117089
-0.116994
-0.129481
-0.141936
-0.137547
-0.106691
-0.0664738
-0.0818554
-0.0918963
-0.106723
-0.129994
-0.16025
-0.168968
-0.156815
-0.0962968
-0.100815
-0.0833636
-0.0649305
-0.0303071
-0.0196631
-0.0130295
-0.00931815
-0.00635046
-0.00423797
-0.0028295
-0.000983416
-0.173075
-0.06929
0.0333412
0.105772
0.0519735
-0.0544027
-0.17371
-0.257488
-0.253518
-0.202868
-0.144674
-0.123407
-0.109212
-0.118183
-0.132419
-0.145223
-0.138415
-0.104409
-0.0605964
-0.073019
-0.0823927
-0.0952785
-0.126215
-0.159017
-0.171366
-0.147934
-0.0783484
-0.0824287
-0.081128
-0.06348
-0.0280736
-0.0175118
-0.0128948
-0.00935353
-0.00623643
-0.00416546
-0.00283619
-0.000998491
-0.184574
-0.0929352
-0.000927751
0.105446
0.125292
0.0215987
-0.126439
-0.219762
-0.230485
-0.189264
-0.140567
-0.118905
-0.100118
-0.112626
-0.133108
-0.147231
-0.136632
-0.100285
-0.0568021
-0.0654532
-0.0745833
-0.0814608
-0.119872
-0.154459
-0.170951
-0.138801
-0.066497
-0.0637039
-0.077715
-0.0604451
-0.0261102
-0.0156596
-0.0126561
-0.00929054
-0.00612613
-0.00407748
-0.00283413
-0.00100265
-0.200968
-0.127886
-0.0501723
0.0422012
0.115661
0.0746297
-0.0490505
-0.143654
-0.175115
-0.154453
-0.125367
-0.112331
-0.0918788
-0.0987384
-0.130743
-0.152099
-0.139858
-0.100479
-0.0548667
-0.0567182
-0.0671751
-0.0668805
-0.111403
-0.146134
-0.171945
-0.130056
-0.0595516
-0.046853
-0.0727347
-0.0565773
-0.0245107
-0.013692
-0.0122583
-0.00927805
-0.00603454
-0.00401312
-0.00282998
-0.000994933
-0.179518
-0.127973
-0.0519877
0.0326471
0.107176
0.0985805
-0.0105277
-0.095993
-0.127714
-0.116925
-0.100362
-0.0922834
-0.0795927
-0.0856766
-0.118835
-0.119395
-0.127986
-0.0950998
-0.055027
-0.0532285
-0.0638238
-0.0567102
-0.102181
-0.133659
-0.160066
-0.11809
-0.0554036
-0.0372366
-0.064808
-0.0503809
-0.0226617
-0.0126344
-0.0116271
-0.00888704
-0.00585461
-0.00396057
-0.00281351
-0.000966094
-0.145412
-0.103929
-0.0443702
0.0163766
0.0603977
0.0630914
0.00593353
-0.0499716
-0.0773891
-0.0758654
-0.0705833
-0.0692788
-0.0581556
-0.0650688
-0.10879
-0.133031
-0.113093
-0.0812558
-0.0479526
-0.0477612
-0.0469425
-0.0407789
-0.0833785
-0.118586
-0.140846
-0.100727
-0.0342209
-0.0293397
-0.0529202
-0.0454392
-0.0189062
-0.00871523
-0.0107007
-0.00837245
-0.00557017
-0.00391821
-0.00279188
-0.000911333
-0.117347
-0.0924826
-0.0508762
-0.00883306
0.025367
0.0350249
0.00783915
-0.0264616
-0.0479733
-0.0518232
-0.049436
-0.0509754
-0.0394799
-0.0362559
-0.0688536
-0.0899432
-0.0802164
-0.0572335
-0.0409628
-0.0504341
-0.0404912
-0.026552
-0.0568084
-0.0929985
-0.108405
-0.0668876
-0.0121746
-0.0182587
-0.0397752
-0.0387596
-0.0148137
-0.0117525
-0.00991175
-0.00771873
-0.00517869
-0.00396117
-0.00279937
-0.000836628
-0.0943913
-0.0799455
-0.0514125
-0.0213248
0.00241873
0.0128311
0.00232694
-0.016312
-0.0290729
-0.0311641
-0.0282548
-0.0269269
-0.0166643
-0.00974655
-0.0247983
-0.0409474
-0.0426213
-0.0334982
-0.0352712
-0.0424721
-0.0262314
-0.00894899
-0.0266062
-0.0666254
-0.0785982
-0.0257742
0.0083166
-0.00181903
-0.0246781
-0.0320918
-0.0115583
-0.00934025
-0.00899888
-0.00694802
-0.00468017
-0.00407511
-0.00283474
-0.00074055
-0.0758237
-0.0681229
-0.0498769
-0.0293161
-0.0125844
-0.00254776
-0.00372348
-0.010775
-0.0174605
-0.0198878
-0.0169967
-0.0152212
-0.00354973
0.0113869
0.0181059
0.00404992
-0.0114665
-0.0146216
-0.0247846
-0.0290393
-0.01627
0.00130361
0.0040042
-0.0406769
-0.0535806
0.0128244
0.0250677
0.0136454
-0.00819969
-0.0242347
-0.00946587
-0.00729494
-0.00816742
-0.00609991
-0.00401023
-0.0042368
-0.0029127
-0.000630448
-0.0607287
-0.0565987
-0.0453678
-0.0316227
-0.0196468
-0.0109726
-0.00805823
-0.00946662
-0.0110824
-0.0107809
-0.00614315
-0.000930711
0.00839631
0.0209475
0.0330499
0.0245483
0.00516353
-0.00199848
-0.0117569
-0.0122399
-0.00212921
0.0081767
0.017793
-0.0297891
-0.0371943
0.0339273
0.0330057
0.0267668
0.0074246
-0.015269
-0.00929218
-0.00537831
-0.00753043
-0.00528928
-0.00316762
-0.00440175
-0.00302706
-0.000514951
-0.0473488
-0.0459503
-0.039588
-0.0304702
-0.0217497
-0.014523
-0.0102504
-0.00828525
-0.00699234
-0.00557762
-0.00155351
0.00265761
0.0108293
0.0225649
0.0332192
0.0287478
0.0133252
0.00643297
-0.000257022
-3.06841e-05
0.0037144
0.010118
0.0233947
-0.0146435
-0.0219354
0.0346521
0.0332512
0.0336639
0.0180534
-0.00726557
-0.0115805
-0.00437122
-0.0073091
-0.00467969
-0.00228124
-0.00447254
-0.00311326
-0.000400197
-0.0366192
-0.0366992
-0.0330661
-0.0270964
-0.0209058
-0.0151577
-0.01073
-0.00763531
-0.00516955
-0.00276957
0.00143393
0.00636699
0.0130852
0.020813
0.0275737
0.02648
0.0162212
0.0106983
0.00618129
0.00739754
0.0101978
0.0114179
0.02069
4.84224e-05
-0.00775027
0.0281132
0.0309435
0.0359168
0.0179669
-0.00364231
-0.0113714
-0.00418791
-0.00730337
-0.00426014
-0.00160265
-0.00438969
-0.0030918
-0.00032972
-0.0279076
-0.0285581
-0.0265908
-0.0227523
-0.0183341
-0.0138671
-0.00993382
-0.0066367
-0.00366746
-0.000877038
0.00281195
0.00657873
0.0115352
0.0168464
0.0214698
0.0220746
0.016192
0.0126629
0.00978826
0.00983395
0.0113424
0.0115697
0.0181175
0.00927848
0.00267055
0.0228778
0.0267057
0.0335336
0.0191273
-0.000408285
-0.00801073
-0.00360672
-0.00672286
-0.00362964
-0.00116105
-0.00401982
-0.00283365
-0.000259575
-0.0206139
-0.0215393
-0.020548
-0.0180288
-0.0149052
-0.0115567
-0.00834759
-0.00538899
-0.00258358
2.52306e-06
0.00308434
0.0062655
0.0102043
0.0138597
0.0167688
0.0179419
0.0150633
0.0130062
0.0113759
0.0115061
0.0130833
0.0125454
0.0159073
0.0129535
0.00916354
0.0197793
0.0230668
0.029064
0.0199528
0.00318724
-0.00325851
-0.00228042
-0.00534278
-0.00264441
-0.000843004
-0.00331188
-0.00233706
-0.000227324
-0.0146695
-0.0155984
-0.0151143
-0.0134873
-0.0113109
-0.00886626
-0.00636977
-0.00393332
-0.00153623
0.000711188
0.00326559
0.00581001
0.00868263
0.0112658
0.0132501
0.0145713
0.0135878
0.0126503
0.0119447
0.0117635
0.0126239
0.0125624
0.0145617
0.0142965
0.0125771
0.0178786
0.0197443
0.0243233
0.0199441
0.00641731
0.000950868
-0.000163256
-0.00333992
-0.00147611
-0.00037988
-0.00238507
-0.00171644
-0.000183637
-0.0097312
-0.0105789
-0.010409
-0.00937663
-0.00786487
-0.00609436
-0.00422197
-0.00233743
-0.000429292
0.0013919
0.00336314
0.00534366
0.00746532
0.00943021
0.0109422
0.0121189
0.0121649
0.0119241
0.011781
0.0119152
0.0126148
0.012749
0.0138161
0.0142629
0.0136237
0.0164984
0.0174984
0.0202225
0.0183473
0.00862894
0.00392796
0.00181561
-0.0013862
-0.000440396
0.000100622
-0.00150119
-0.00114732
-0.000135783
-0.00567823
-0.00642751
-0.00640987
-0.00574203
-0.00470903
-0.00347473
-0.00212799
-0.000724018
0.000714384
0.00211588
0.00359725
0.00511839
0.00670118
0.00819211
0.00940411
0.0104095
0.0109234
0.0111582
0.0113341
0.0115633
0.0120232
0.0122579
0.0130869
0.013672
0.0135004
0.0151029
0.0155431
0.0167231
0.0158078
0.00956422
0.00569221
0.00325664
0.00027151
0.00038568
0.000491462
-0.000769741
-0.000685399
-7.95606e-05
-0.00237741
-0.00298413
-0.00303726
-0.00262709
-0.00194948
-0.00111476
-0.00017682
0.000840145
0.00189043
0.00293045
0.0040069
0.00514072
0.00632246
0.00745248
0.00843829
0.00930041
0.00994416
0.0103814
0.0106842
0.011081
0.0115554
0.0118705
0.0124003
0.0128695
0.0128873
0.0137532
0.013916
0.0141083
0.0134194
0.00960682
0.00658206
0.00423666
0.00162255
0.00107859
0.000829272
-0.000175306
-0.000298414
-8.17053e-06
0.000343149
-0.000145722
-0.000245908
-1.34909e-05
0.000415206
0.000964114
0.00159814
0.00230582
0.00304425
0.00378716
0.00454813
0.00536662
0.00623793
0.00708735
0.00786863
0.00858118
0.00919895
0.00971393
0.0101001
0.0105044
0.010919
0.0112188
0.0115982
0.0119772
0.0120286
0.0124265
0.0123985
0.0121057
0.0114606
0.00908219
0.00680375
0.00480725
0.00261685
0.00167023
0.00113103
0.000284887
7.66293e-06
5.33584e-05
0.00254979
0.0021644
0.00205
0.00216797
0.00242207
0.00276325
0.00316744
0.00363887
0.00413901
0.00464982
0.00517266
0.00574586
0.00636538
0.00698884
0.00758593
0.0081547
0.0086894
0.00917126
0.0095551
0.00992841
0.0102951
0.0105754
0.0108355
0.0110819
0.0111185
0.0112438
0.0111157
0.010659
0.0100377
0.00847801
0.00678922
0.00514552
0.00334534
0.00223566
0.00147409
0.000684084
0.000279483
0.000123344
0.00433095
0.00403512
0.00391888
0.00395718
0.00408735
0.00428033
0.00452246
0.00481932
0.00513965
0.0054728
0.0058145
0.00620367
0.00663499
0.00708393
0.0075056
0.00793296
0.00835517
0.00875188
0.00908697
0.00940106
0.0096997
0.00992452
0.010101
0.0102471
0.0102547
0.0102118
0.0100144
0.00954356
0.00895695
0.00786078
0.00656071
0.00523118
0.00378755
0.00268557
0.00181143
0.00102561
0.00051068
0.000178324
0.00575476
0.00552758
0.00541499
0.00540112
0.0054476
0.00553737
0.00566374
0.00583224
0.00601932
0.00622024
0.00642714
0.00667583
0.00695338
0.00725344
0.00754392
0.00784622
0.00815184
0.00844968
0.00871221
0.00894788
0.00917125
0.00932902
0.00944102
0.00949928
0.00947209
0.00935428
0.00912703
0.0086985
0.00814203
0.00731556
0.00631007
0.00523063
0.00405503
0.00303264
0.00211923
0.00132346
0.000723725
0.000239195
0.0068724
0.0066976
0.00659166
0.00654426
0.00653471
0.00655344
0.00659951
0.00667632
0.00676754
0.00687113
0.00697864
0.00712118
0.00728249
0.00747012
0.00765044
0.00784923
0.00805223
0.00824917
0.00843002
0.00858429
0.00873708
0.00882187
0.00887348
0.00884727
0.00880566
0.00866187
0.00840915
0.00803132
0.0075196
0.00685864
0.00605901
0.00515842
0.00418603
0.00326526
0.00236589
0.0015713
0.000915648
0.000298406
0.00772723
0.00758976
0.00748937
0.00742179
0.00737566
0.00734819
0.00733921
0.0073519
0.00737543
0.00740896
0.00744721
0.00751021
0.00758748
0.00768445
0.00777995
0.00789057
0.00800664
0.00812047
0.00822549
0.00831082
0.00839401
0.00843181
0.00844923
0.00842814
0.0083017
0.00812528
0.00786344
0.00751825
0.00706844
0.00649066
0.00582187
0.00506391
0.0042298
0.00340155
0.00255593
0.00175915
0.00106031
0.00035377
0.00835217
0.0082398
0.00814392
0.00806484
0.00799598
0.00793953
0.00789401
0.00786373
0.00784115
0.00782684
0.00781794
0.00782409
0.00784238
0.00787183
0.00790579
0.0079478
0.00799617
0.00804322
0.00808396
0.00811362
0.00813444
0.008126
0.00809159
0.00801545
0.00788625
0.0077018
0.00744517
0.00711976
0.0067044
0.00620034
0.00561519
0.00494631
0.00421409
0.00345344
0.00265852
0.00187442
0.00113862
0.000381647
0.00876837
0.00867112
0.00857898
0.00849335
0.0084122
0.00833855
0.00827137
0.00821446
0.00816271
0.00811888
0.00807879
0.00804983
0.00802743
0.00801448
0.00800504
0.00800158
0.00800224
0.00800142
0.00799849
0.00798378
0.00796272
0.00791696
0.00784862
0.0077459
0.00759947
0.00740914
0.00715523
0.00684228
0.00645367
0.0059921
0.00545812
0.00485107
0.0041804
0.00346726
0.00271649
0.00194182
0.0011778
0.000397621
0.00897975
0.00888989
0.00879987
0.0087119
0.00862573
0.00854457
0.0084674
0.00839734
0.0083315
0.0082727
0.00821784
0.00817064
0.00812821
0.00809282
0.00806139
0.00803417
0.00800932
0.00798342
0.00795544
0.00791821
0.00787276
0.00780796
0.00772134
0.00760393
0.00744845
0.00725209
0.00700077
0.00669442
0.00631887
0.00587974
0.00537164
0.00479461
0.004156
0.00346632
0.00273818
0.00197328
0.00119642
0.000404383
-0.164688
-0.17477
-0.183877
-0.190128
-0.19497
-0.19273
-0.190837
-0.182413
-0.134763
-0.139844
-0.143993
-0.146288
-0.14735
-0.147029
-0.14593
-0.148196
-0.107889
-0.110425
-0.11175
-0.113798
-0.115282
-0.117665
-0.117137
-0.11921
-0.0869942
-0.0881125
-0.0886014
-0.0904698
-0.0911798
-0.0925006
-0.0913799
-0.0931123
-0.0690196
-0.06957
-0.0696197
-0.0705371
-0.0703214
-0.0705909
-0.0702603
-0.0728351
-0.0546302
-0.0545799
-0.0541933
-0.0542621
-0.0539074
-0.0543821
-0.0551594
-0.0578572
-0.0425938
-0.0422371
-0.0417583
-0.0417199
-0.0418108
-0.0424969
-0.0432502
-0.0449289
-0.032905
-0.0324594
-0.0320467
-0.0319655
-0.0319873
-0.032245
-0.0326149
-0.0340923
-0.0249111
-0.0244478
-0.0240031
-0.0237718
-0.0236695
-0.0238309
-0.0243126
-0.0257147
-0.018278
-0.0178536
-0.0174382
-0.0172025
-0.0171199
-0.0172626
-0.0176764
-0.0188006
-0.0127916
-0.0124449
-0.0120925
-0.0118616
-0.0117604
-0.0118601
-0.0122252
-0.0131626
-0.00822546
-0.00796298
-0.00768577
-0.00749701
-0.00742834
-0.00752344
-0.00781962
-0.00854262
-0.0044492
-0.00427698
-0.00408918
-0.00395359
-0.00389154
-0.0039363
-0.00415023
-0.0047197
-0.00130739
-0.0012119
-0.00109416
-0.000999664
-0.00095486
-0.00100016
-0.00118703
-0.00163733
0.00128073
0.00131058
0.00136239
0.00140417
0.00141551
0.00136864
0.00122653
0.000896689
0.0033859
0.0033679
0.00337114
0.00337564
0.0033674
0.00332374
0.00321242
0.00296568
0.00509197
0.00504248
0.00501195
0.00498762
0.00495919
0.00490959
0.00481656
0.00463437
0.00645506
0.00638534
0.00633167
0.00628616
0.00624219
0.00618802
0.00610913
0.00597458
0.00752642
0.00744558
0.00737794
0.00731867
0.00726368
0.00720524
0.00713475
0.00703246
0.00834417
0.00825871
0.00818386
0.00811702
0.00805538
0.00799444
0.00792894
0.00784784
0.00894008
0.00885412
0.00877678
0.0087066
0.00864162
0.00857928
0.00851644
0.00844788
0.0093321
0.00924832
0.00917153
0.00910081
0.00903492
0.00897211
0.00891091
0.00884898
0.00952547
0.00944681
0.00937273
0.00930305
0.00923721
0.00917428
0.00911347
0.00905402
0.00958037
0.0112314
0.0119358
0.0112217
0.00859418
0.00399114
-0.00273363
-0.0121753
-0.0253944
-0.0439017
-0.0697976
-0.106052
-0.157443
-0.227341
-0.292895
-0.0178909
-0.0190732
-0.02292
-0.0286064
-0.0359162
-0.0451978
-0.0570774
-0.072441
-0.0924857
-0.118829
-0.153704
-0.200117
-0.263003
-0.346092
-0.418292
-0.0445583
-0.0489844
-0.0573103
-0.0675368
-0.0792093
-0.0929832
-0.109793
-0.130674
-0.156915
-0.190249
-0.233087
-0.28849
-0.360603
-0.45552
-0.526906
-0.0720055
-0.0799106
-0.0918227
-0.105468
-0.120719
-0.138492
-0.159784
-0.185613
-0.217292
-0.256623
-0.306121
-0.369168
-0.448585
-0.548412
-0.616583
-0.0996283
-0.11094
-0.125563
-0.141787
-0.16
-0.181239
-0.206409
-0.236424
-0.272548
-0.316719
-0.371315
-0.439884
-0.52408
-0.622693
-0.685762
-0.125903
-0.14045
-0.157303
-0.175748
-0.196601
-0.220827
-0.249188
-0.282566
-0.32203
-0.369727
-0.427935
-0.499489
-0.584735
-0.678398
-0.733907
-0.150089
-0.167382
-0.186109
-0.206674
-0.230045
-0.256865
-0.287781
-0.323659
-0.365689
-0.415528
-0.475326
-0.547044
-0.630039
-0.715211
-0.762005
-0.172136
-0.191122
-0.21182
-0.234743
-0.260482
-0.28953
-0.322468
-0.360127
-0.403576
-0.454187
-0.513704
-0.583229
-0.660611
-0.733699
-0.772414
0.183449
0.197991
0.214359
0.232928
0.253719
0.276626
0.301563
0.32849
0.357329
0.38782
0.419369
0.450786
0.480049
0.503084
0.52196
0.175902
0.189153
0.204452
0.222133
0.242021
0.263868
0.287554
0.313041
0.340239
0.368845
0.398199
0.427019
0.453157
0.472555
0.487843
0.164124
0.175345
0.188968
0.205198
0.223545
0.24355
0.265017
0.287881
0.312005
0.337005
0.3621
0.385865
0.40592
0.418342
0.427007
0.148116
0.156756
0.168252
0.182492
0.198608
0.215947
0.23426
0.253445
0.273279
0.293227
0.31231
0.32888
0.340208
0.342394
0.342002
0.128042
0.133817
0.143017
0.154977
0.16832
0.182219
0.196427
0.210852
0.225202
0.238778
0.250359
0.258017
0.258627
0.248081
0.236079
0.104136
0.106608
0.113343
0.122825
0.133067
0.143097
0.152666
0.161658
0.169668
0.175824
0.178676
0.17602
0.164325
0.13924
0.113321
0.0771907
0.0767394
0.0811084
0.08752
0.0938127
0.0992311
0.103638
0.106785
0.108014
0.106203
0.099655
0.0858834
0.0609888
0.020569
-0.0200327
0.0456541
0.0440223
0.0473452
0.0506615
0.0524944
0.0527373
0.0514719
0.0483085
0.042334
0.0321786
0.0159063
-0.00927212
-0.0476819
-0.103432
-0.157919
0.0262409
0.0306447
0.0269749
0.0308777
0.0284164
0.0327039
0.0309186
0.035286
0.0346227
0.0390572
0.0397667
0.0445325
0.0469555
0.0525075
0.05713
0.0642874
0.0715809
0.081408
0.0922542
0.106037
0.121714
0.141059
0.163259
0.026189
0.030555
0.0269223
0.030767
0.0283532
0.0325623
0.0308226
0.0350932
0.0344726
0.0388021
0.0395064
0.0441912
0.0465809
0.0519842
0.0565266
0.0634917
0.0705018
0.0800962
0.0903532
0.103711
0.11839
0.136885
0.157497
0.0261476
0.03044
0.0268878
0.0306278
0.0283137
0.0323888
0.030748
0.0348638
0.0343568
0.0385166
0.0392787
0.0438245
0.0461619
0.0513471
0.0558253
0.062528
0.069169
0.0784783
0.0878999
0.100613
0.113805
0.130906
0.148757
0.0261155
0.0303015
0.0268712
0.0304642
0.0282963
0.0321879
0.0307335
0.0346118
0.0342689
0.0382089
0.0390821
0.0434674
0.0458016
0.0508763
0.0552184
0.0617351
0.0678996
0.0768841
0.0851881
0.0970254
0.108103
0.123124
0.136942
0.0260918
0.0301436
0.0268638
0.0302802
0.0282987
0.0319635
0.0307106
0.0343403
0.0341984
0.0378715
0.038889
0.0430339
0.0453495
0.0500713
0.0544001
0.0604919
0.0661931
0.0745134
0.0816841
0.0922908
0.100963
0.11325
0.121906
0.0260724
0.0299699
0.02687
0.0300803
0.0283134
0.0317265
0.030717
0.0340819
0.0341514
0.0375655
0.0387634
0.042731
0.0450962
0.0498345
0.0538689
0.0597308
0.0648209
0.0725526
0.0782256
0.0872985
0.0927081
0.101641
0.103951
0.0260665
0.029782
0.0268797
0.0298731
0.0283359
0.0314802
0.0307118
0.0337962
0.0340945
0.0372082
0.0385615
0.0422293
0.0445893
0.0488719
0.052851
0.0580112
0.0627124
0.069216
0.0738014
0.0807675
0.0833536
0.0876233
0.0832415
0.0260539
0.0295869
0.0268933
0.0296677
0.0283633
0.0312588
0.0307547
0.0335911
0.0340799
0.0370152
0.0385488
0.0421141
0.0445118
0.0488763
0.0524221
0.0574125
0.0613654
0.0670443
0.0695681
0.0741911
0.0721857
0.0721637
0.059111
0.0260375
0.0293282
0.0269183
0.0293746
0.0283863
0.0308833
0.0307023
0.0331766
0.033943
0.0364317
0.0381411
0.0412129
0.0435312
0.0471741
0.050443
0.0540351
0.0574798
0.060453
0.0618483
0.0620469
0.057254
0.0480707
0.0281117
0.0260255
0.028974
0.0269544
0.0289746
0.0283827
0.0303551
0.0305928
0.0324347
0.0335766
0.0354637
0.0372779
0.0396368
0.0418597
0.0445771
0.047245
0.0493048
0.05153
0.0520622
0.0516145
0.0478865
0.0414754
0.0296246
0.0140804
0.0260324
0.0285423
0.0270076
0.0284964
0.0283986
0.0297398
0.0304514
0.0316942
0.0331119
0.0344781
0.0363067
0.0380058
0.040002
0.0418023
0.043677
0.0445246
0.0452898
0.0441041
0.0416775
0.0361844
0.0285504
0.0169742
0.00254976
0.0260586
0.0280233
0.0270808
0.0279543
0.0283747
0.0291526
0.0301961
0.0309845
0.032483
0.0334398
0.0351419
0.0362395
0.0378838
0.0388544
0.0397766
0.0396858
0.0389597
0.0364972
0.0326261
0.0262723
0.0181549
0.00736001
-0.00553845
0.0261076
0.0274099
0.0271299
0.0274528
0.0282315
0.0286081
0.0298173
0.0302594
0.0316752
0.0323537
0.0337368
0.0343541
0.0354813
0.0357744
0.0356931
0.0348241
0.0329072
0.029507
0.0248452
0.01832
0.010468
0.000756028
-0.0105907
0.0261742
0.0267697
0.0270699
0.0270017
0.027996
0.0280712
0.0293025
0.0295154
0.0307
0.031185
0.0321325
0.0323327
0.0329016
0.0325809
0.0316322
0.0300773
0.0273988
0.0234557
0.0185497
0.0123047
0.00505901
-0.00354092
-0.0134592
0.0262118
0.0261522
0.0268948
0.0265872
0.0276481
0.027538
0.0286445
0.0287361
0.0295842
0.0299064
0.0303798
0.0301909
0.0302312
0.0293589
0.0277592
0.0256828
0.0226145
0.0185126
0.0136725
0.00794738
0.00149733
-0.00591822
-0.0143814
0.026197
0.0255744
0.0266123
0.0261934
0.02718
0.0269954
0.0278585
0.027892
0.028369
0.0285098
0.0285358
0.0279788
0.0275561
0.0262411
0.0242117
0.0218068
0.0186331
0.01466
0.0101027
0.00502583
-0.000516685
-0.00671414
-0.0137204
0.026102
0.0250576
0.0262113
0.0258061
0.0265997
0.0264284
0.0269774
0.0269583
0.0270909
0.0270118
0.0266527
0.0257737
0.0249686
0.0233433
0.0210919
0.0185575
0.0154686
0.0118109
0.00770823
0.00333293
-0.00129307
-0.00633147
-0.0119963
0.0259095
0.024613
0.0256936
0.0254071
0.0259293
0.0257985
0.0260409
0.025927
0.0257714
0.0254525
0.0247845
0.0236603
0.0225623
0.0207638
0.0184662
0.0159684
0.0130935
0.00984897
0.006298
0.00262593
-0.00115363
-0.00517238
-0.00967861
0.0256077
0.0242382
0.0250802
0.0249655
0.0252113
0.0250856
0.0250729
0.0248171
0.0244293
0.0238814
0.0229855
0.0217056
0.0204145
0.0185683
0.0163528
0.0140118
0.011432
0.0086372
0.00565722
0.0026466
-0.00039171
-0.00356188
-0.00710859
0.025194
0.023918
0.024408
0.0244242
0.024473
0.0242993
0.0240875
0.0236681
0.0230936
0.0223591
0.0213109
0.0199596
0.0185813
0.0167855
0.0147329
0.0126228
0.0103778
0.00802591
0.00558072
0.00315726
0.000747355
-0.00173396
-0.00450525
0.0246772
0.023622
0.0237388
0.0237597
0.0237081
0.023461
0.0230941
0.0225244
0.0218055
0.0209397
0.0198086
0.018457
0.017078
0.0154
0.0135597
0.0117166
0.00981066
0.00786577
0.00588943
0.00396355
0.00207116
0.000140002
-0.00201168
0.02408
0.0232936
0.0231204
0.0230188
0.0228998
0.0225763
0.0221003
0.0214238
0.020605
0.0196634
0.018512
0.0172102
0.0158922
0.0143756
0.0127714
0.0111996
0.00961104
0.00802278
0.00644079
0.00492138
0.00344145
0.00193957
0.000272126
0.023431
0.0228651
0.0225418
0.0223069
0.0220724
0.0216659
0.0211183
0.0203851
0.0195199
0.018554
0.01743
0.0162128
0.0149976
0.0136632
0.0122935
0.0109756
0.00966889
0.00838372
0.00712531
0.00593101
0.0047764
0.0036098
0.00231962
0.0227623
0.02235
0.0219781
0.0216243
0.0212582
0.0207726
0.0201743
0.0194212
0.0185561
0.0176132
0.0165584
0.015452
0.014362
0.0132089
0.012054
0.0109587
0.00988995
0.00885322
0.00785348
0.0069151
0.00601431
0.00510823
0.00411291
0.0220973
0.021777
0.0213937
0.0209638
0.020492
0.019938
0.0193025
0.0185528
0.0177198
0.016835
0.0158786
0.0148995
0.0139447
0.0129617
0.0119929
0.0110816
0.0102035
0.00936307
0.00856551
0.00782584
0.00712209
0.00641904
0.00565455
0.0214523
0.021182
0.0207961
0.0203261
0.0197911
0.0191892
0.0185312
0.0177999
0.0170158
0.0162051
0.0153577
0.0145084
0.0136872
0.012858
0.0120478
0.0112859
0.0105579
0.00987007
0.00922727
0.00863829
0.00808462
0.00753795
0.00695331
0.0208417
0.0205965
0.0202116
0.0197257
0.0191644
0.018542
0.017879
0.0171755
0.0164467
0.0157126
0.0149694
0.0142379
0.0135347
0.0128364
0.0121586
0.0115197
0.0109129
0.0103446
0.00981927
0.00934196
0.00889869
0.00846905
0.00802207
0.0202852
0.0200538
0.0196724
0.0191837
0.0186194
0.0179996
0.0173484
0.0166804
0.0160073
0.0153433
0.0146885
0.0140547
0.0134499
0.0128591
0.0122903
0.0117542
0.0112471
0.0107732
0.0103358
0.00993826
0.00957237
0.00922549
0.00887814
0.0198102
0.0195884
0.0192132
0.018729
0.0181735
0.0175696
0.0169396
0.0163055
0.0156801
0.015071
0.0144819
0.0139223
0.0133945
0.0128885
0.0124074
0.0119565
0.0115338
0.0111394
0.0107725
0.0104338
0.0101207
0.00982874
0.00954985
0.0194485
0.0192321
0.0188649
0.0183891
0.0178457
0.0172616
0.016655
0.016051
0.0154649
0.0149001
0.0143603
0.0138533
0.0133793
0.0129313
0.0125073
0.0121095
0.0117383
0.0113939
0.011075
0.0107801
0.0105069
0.0102543
0.0100202
0.0192513
0.0190397
0.0186746
0.0181994
0.0176589
0.0170832
0.016489
0.0158996
0.0153325
0.0147923
0.014282
0.0138068
0.0133665
0.0129544
0.0125654
0.0121999
0.0118608
0.0115495
0.0112646
0.0110029
0.0107612
0.010539
0.0103379
0.00624723
-0.018638
-0.0454373
-0.069324
-0.0920597
-0.113835
-0.13396
-0.150938
-0.0034756
-0.0264089
-0.0522926
-0.0730597
-0.0891843
-0.103654
-0.116572
-0.127008
-0.0120766
-0.0303196
-0.0514019
-0.0671032
-0.0777496
-0.0873056
-0.0958636
-0.103117
-0.0182763
-0.0329124
-0.0490356
-0.0610695
-0.0687236
-0.0750897
-0.0803564
-0.0847007
-0.0219603
-0.0335926
-0.0447779
-0.0530689
-0.0583049
-0.0622739
-0.0653164
-0.0678217
-0.023377
-0.0322823
-0.0394791
-0.0447915
-0.0484486
-0.0511068
-0.052947
-0.0542594
-0.0227597
-0.0293741
-0.0336874
-0.0367984
-0.0392347
-0.04103
-0.0421164
-0.0426606
-0.0206113
-0.0254692
-0.0278759
-0.0294928
-0.0310156
-0.0322542
-0.0329641
-0.033177
-0.0175547
-0.0211131
-0.0223271
-0.0229851
-0.023846
-0.0246822
-0.0251615
-0.0252154
-0.0140911
-0.0166955
-0.0172021
-0.0172843
-0.0176866
-0.0182282
-0.0185615
-0.0185616
-0.0105675
-0.0124705
-0.01258
-0.0123461
-0.0124504
-0.0127794
-0.0130188
-0.0130174
-0.00718974
-0.00857618
-0.00848054
-0.00810077
-0.00802844
-0.00820708
-0.00837763
-0.00838666
-0.00407142
-0.00507362
-0.0048868
-0.00446711
-0.00430831
-0.00439262
-0.00451814
-0.00454476
-0.00129395
-0.00201171
-0.00179723
-0.00138783
-0.00118874
-0.00121162
-0.00130398
-0.00134608
0.00113372
0.000621846
0.000830957
0.0012018
0.00141075
0.00142475
0.00135221
0.00129211
0.00322373
0.00286248
0.00304717
0.00335855
0.00354657
0.00357182
0.00350803
0.00343363
0.00499347
0.00473951
0.00488925
0.00513341
0.00528469
0.00530571
0.00524508
0.00516247
0.0064664
0.00628756
0.00639839
0.00657564
0.00668349
0.00669029
0.00662758
0.00653944
0.0076663
0.00753859
0.00761066
0.00772576
0.00778923
0.00777681
0.00770904
0.00761777
0.00861529
0.00851838
0.00855344
0.00861392
0.00863647
0.00860407
0.0085303
0.00843767
0.00934745
0.00926186
0.00925795
0.00926854
0.00925396
0.00920305
0.00912427
0.00903238
0.00985315
0.00976822
0.00973034
0.00970064
0.00965661
0.00959157
0.00951013
0.00942091
0.0101862
0.0100822
0.00999779
0.00992294
0.00984923
0.00977193
0.00969064
0.00960745
-0.33216
-0.340728
-0.353115
-0.36933
-0.390815
-0.418676
-0.450281
-0.478712
-0.332069
-0.339121
-0.349062
-0.362327
-0.379975
-0.402159
-0.428029
-0.452618
-0.327955
-0.33491
-0.343543
-0.354632
-0.369683
-0.387701
-0.404781
-0.416454
-0.320509
-0.328248
-0.336254
-0.34513
-0.355354
-0.365382
-0.371828
-0.371521
-0.310714
-0.319039
-0.325822
-0.331041
-0.33496
-0.336842
-0.334878
-0.326873
-0.299699
-0.307444
-0.31168
-0.312535
-0.310951
-0.307015
-0.299611
-0.286934
-0.289092
-0.294475
-0.295051
-0.291824
-0.286307
-0.278645
-0.26787
-0.252379