/*--------------------------------*- C++ -*----------------------------------*\
| =========                 |                                                 |
| \\      /  F ield         | OpenFOAM: The Open Source CFD Toolbox           |
|  \\    /   O peration     | Version:  2512                                  |
|   \\  /    A nd           | Website:  www.openfoam.com                      |
|    \\/     M anipulation  |                                                 |
\*---------------------------------------------------------------------------*/
FoamFile
{
    version     2.0;
    format      ascii;
    arch        "LSB;label=32;scalar=64";
    class       surfaceScalarField;
    location    "84.05";
    object      phi;
}
// * * * * * * * * * * * * * * * * * * * * * * * * * * * * * * * * * * * * * //

dimensions      [0 3 -1 0 0 0 0];

oriented        oriented;

internalField   nonuniform List<scalar> 
26232
(
-0.000290596
0.00205679
-0.0017662
-0.000339231
0.00378535
-0.00373672
0.000464617
0.00359699
-0.00440084
0.00268604
0.00147808
-0.0036995
0.00687258
-0.00278957
-0.00139697
0.0135421
-0.00943335
0.00276387
0.0230103
-0.0184796
0.00901132
0.03519
-0.0295733
0.0173936
0.0494758
-0.0419614
0.0276756
0.0648122
-0.0546573
0.0393209
0.0799223
-0.0666813
0.0515713
0.0936018
-0.0772694
0.0635899
0.104986
-0.0860008
0.0746161
0.113718
-0.0928269
0.0840949
0.119963
-0.0980109
0.0917661
0.124269
-0.101993
0.0976875
0.127316
-0.105225
0.102177
0.129668
-0.108039
0.105687
0.131683
-0.110611
0.108596
0.133465
-0.113025
0.111244
0.135146
-0.115194
0.113513
0.136582
-0.117399
0.115963
0.137386
-0.118632
0.117828
-0.120655
0.12075
0.13729
-0.000128951
0.00218574
0.000238475
0.00341793
0.00177672
0.00205874
0.0051575
-0.0019027
0.0110048
-0.00863689
0.0197263
-0.0181548
0.0312496
-0.0300029
0.0448765
-0.0432002
0.0594057
-0.0564906
0.0734647
-0.0687164
0.0858805
-0.0790971
0.0959485
-0.0873375
0.103528
-0.0935806
0.108957
-0.0982553
0.112826
-0.10188
0.115732
-0.104899
0.118105
-0.107598
0.120189
-0.110123
0.122104
-0.112526
0.123906
-0.114828
0.125739
-0.117027
0.127513
-0.119174
0.129942
-0.121061
-0.123657
0.132945
7.20289e-05
0.00211371
0.000993011
0.00249694
0.00349969
-0.000447934
0.00831954
-0.00672254
0.0160008
-0.0163181
0.0265811
-0.0287351
0.0393516
-0.0427734
0.053
-0.0568486
0.0660601
-0.0695507
0.0773752
-0.0800315
0.0863678
-0.0880897
0.0930597
-0.0940293
0.0978899
-0.0984109
0.101447
-0.101812
0.104243
-0.104676
0.106617
-0.107273
0.108756
-0.109737
0.110764
-0.11213
0.112708
-0.11447
0.114661
-0.11678
0.116643
-0.11901
0.118728
-0.121259
0.12093
-0.123263
-0.125549
0.122823
0.000277081
0.00183663
0.00183293
0.000941096
0.0054554
-0.00407041
0.0118414
-0.0131085
0.0212311
-0.0257079
0.0330179
-0.040522
0.0458282
-0.0555837
0.0580862
-0.0691066
0.0686018
-0.0800663
0.0768568
-0.0882865
0.0829572
-0.09419
0.0873781
-0.0984503
0.0906769
-0.10171
0.0933035
-0.104439
0.0955479
-0.106921
0.0975774
-0.109302
0.0994906
-0.111651
0.101348
-0.113988
0.103199
-0.116322
0.10506
-0.11864
0.106998
-0.120948
0.109016
-0.123277
0.111249
-0.125495
-0.12813
0.11383
0.000493931
0.0013427
0.00275179
-0.00131676
0.00758264
-0.00890126
0.0154834
-0.0210093
0.0260972
-0.0363217
0.0380796
-0.0525043
0.0497211
-0.0672252
0.0597135
-0.0790989
0.0675033
-0.0878561
0.0732059
-0.0939891
0.0772997
-0.0982838
0.080326
-0.101477
0.0827176
-0.104101
0.0847593
-0.10648
0.0866189
-0.10878
0.0883899
-0.111073
0.090121
-0.113382
0.0918429
-0.11571
0.0935731
-0.118052
0.0953445
-0.120412
0.097187
-0.12279
0.0991011
-0.125191
0.101172
-0.127566
-0.130131
0.103173
0.000741656
0.000601046
0.0037692
-0.0043443
0.0098162
-0.0149483
0.018925
-0.0301181
0.0299583
-0.0473549
0.0410884
-0.0636345
0.0507898
-0.0769266
0.0583606
-0.0866698
0.0638526
-0.093348
0.0677267
-0.0978632
0.0705269
-0.101084
0.0726966
-0.103646
0.0745298
-0.105934
0.0761934
-0.108144
0.0777711
-0.110358
0.079301
-0.112603
0.0808048
-0.114886
0.0823005
-0.117205
0.0838122
-0.119563
0.0853611
-0.121961
0.0869689
-0.124398
0.0886605
-0.126883
0.0904873
-0.129393
-0.13208
0.0924367
0.00102993
-0.000428882
0.00486669
-0.00818107
0.0119913
-0.0220728
0.0217419
-0.0398687
0.0323091
-0.0579221
0.0418692
-0.0731946
0.0494347
-0.0844922
0.0548988
-0.0921338
0.0586708
-0.09712
0.0613017
-0.100494
0.0632615
-0.103044
0.064865
-0.10525
0.0662889
-0.107358
0.0676193
-0.109474
0.0688964
-0.111635
0.0701439
-0.113851
0.0713801
-0.116122
0.0726233
-0.118448
0.0738891
-0.120829
0.0751931
-0.123265
0.076553
-0.125758
0.0779738
-0.128304
0.0794836
-0.130903
-0.133604
0.0810071
0.00135044
-0.00177932
0.00597042
-0.0128011
0.0138572
-0.0299596
0.0235597
-0.0495713
0.0329823
-0.0673446
0.0407016
-0.0809139
0.0463174
-0.090108
0.050122
-0.0959385
0.0526614
-0.0996593
0.0544426
-0.102275
0.0558187
-0.10442
0.0569911
-0.106422
0.0580589
-0.108426
0.0590679
-0.110483
0.0600414
-0.112609
0.060994
-0.114803
0.0619376
-0.117065
0.0628837
-0.119395
0.0638453
-0.121791
0.0648372
-0.124257
0.065871
-0.126792
0.0669642
-0.129397
0.0681368
-0.132076
-0.134837
0.0693702
0.00168318
-0.00346249
0.00696837
-0.0180862
0.0151678
-0.038159
0.0242082
-0.0586117
0.0321331
-0.0752696
0.0380642
-0.086845
0.0420575
-0.0941013
0.0446098
-0.0984908
0.0462662
-0.101316
0.0474342
-0.103443
0.0483555
-0.105341
0.0491511
-0.107218
0.0498757
-0.109151
0.0505538
-0.111162
0.0511994
-0.113254
0.0518236
-0.115427
0.0524379
-0.11768
0.0530547
-0.120011
0.0536865
-0.122423
0.054344
-0.124914
0.0550381
-0.127486
0.055777
-0.130136
0.0565645
-0.132863
-0.135654
0.0573817
0.00199747
-0.00545997
0.00773835
-0.0238271
0.0157694
-0.0461901
0.0237356
-0.0665779
0.0300813
-0.0816153
0.0344309
-0.0911946
0.0371321
-0.0968025
0.0387442
-0.100103
0.0397407
-0.102312
0.0404219
-0.104125
0.0409439
-0.105863
0.0413767
-0.107651
0.0417504
-0.109524
0.0420805
-0.111492
0.0423781
-0.113552
0.0426532
-0.115702
0.042916
-0.117942
0.0431762
-0.120272
0.0434435
-0.12269
0.0437281
-0.125199
0.0440396
-0.127797
0.0443884
-0.130485
0.0447816
-0.133256
-0.136096
0.0452237
0.00226232
-0.00772228
0.00818565
-0.0297505
0.0156385
-0.0536429
0.0223284
-0.0732678
0.0271771
-0.086464
0.0301948
-0.0942123
0.03188
-0.0984877
0.0327675
-0.10099
0.033235
-0.10278
0.0334914
-0.104381
0.0336332
-0.106005
0.033701
-0.107718
0.0337131
-0.109536
0.0336806
-0.111459
0.0336126
-0.113484
0.0335176
-0.115607
0.0334045
-0.117829
0.0332825
-0.120149
0.0331614
-0.122569
0.033051
-0.125088
0.0329609
-0.127707
0.0328969
-0.130421
0.0328576
-0.133217
-0.136084
0.032845
0.00245542
-0.0101777
0.00827429
-0.0355693
0.0148679
-0.0602365
0.0202338
-0.0786337
0.0237414
-0.0899716
0.0256594
-0.0961303
0.0265346
-0.0993629
0.0268327
-0.101288
0.0268394
-0.102786
0.0266942
-0.104236
0.0264561
-0.105767
0.026149
-0.107411
0.0257852
-0.109173
0.0253731
-0.111047
0.0249207
-0.113031
0.0244357
-0.115122
0.0239258
-0.117319
0.0233987
-0.119622
0.0228623
-0.122033
0.0223254
-0.124552
0.0217978
-0.12718
0.0212896
-0.129912
0.0208083
-0.132736
0.020366
-0.135641
0.000469376
0.00756221
-0.00803158
0.000830493
0.0184049
-0.018766
0.00064901
0.0254725
-0.025291
-0.000102836
0.0295218
-0.02877
-0.00123886
0.0316934
-0.0305573
-0.002535
0.0329408
-0.0316447
-0.00379811
0.0337765
-0.0325134
-0.00487583
0.0343159
-0.0332381
-0.00564283
0.0344417
-0.0336747
-0.0059888
0.033951
-0.0336051
-0.00581784
0.0326401
-0.032811
-0.00505633
0.0303426
-0.0311042
-0.00366289
0.0269474
-0.0283409
-0.00163638
0.0224038
-0.0244303
0.00097993
0.0167183
-0.0193347
0.00414352
0.00991499
-0.0130786
0.00768474
0.00210748
-0.0056487
0.01162
-0.00671358
0.00277835
0.0159032
-0.0165398
0.0122566
0.0205469
-0.0274554
0.0228118
0.0257503
-0.0396201
0.0344167
0.0316666
-0.052743
0.0468266
0.0386508
-0.0667917
0.0598075
-0.0804379
0.0466304
0.0724583
0.000806311
0.0067559
0.00194636
0.0172648
0.00276161
0.0246573
0.00309546
0.029188
0.00309148
0.0316973
0.00299911
0.0330332
0.00305411
0.0337215
0.00343642
0.0339336
0.00427285
0.0336053
0.00565095
0.032573
0.00762638
0.0306646
0.0102229
0.0277461
0.0134302
0.0237401
0.0172042
0.0186298
0.0214685
0.0124541
0.0260891
0.00529432
0.0310262
-0.00282957
0.0361609
-0.0118483
0.0414961
-0.021875
0.0470419
-0.0330013
0.0530476
-0.0456258
0.0595034
-0.0591988
0.0666385
-0.0739269
-0.0879082
0.0741088
0.00104598
0.00570992
0.00286467
0.0154461
0.00465655
0.0228654
0.00611496
0.0277296
0.00729874
0.0305136
0.00843974
0.0318922
0.00979183
0.0323694
0.0115553
0.0321701
0.01386
0.0313006
0.0167754
0.0296575
0.0203242
0.0271159
0.0244902
0.0235801
0.0292236
0.0190067
0.0344419
0.0134115
0.0400252
0.00687085
0.0458811
-0.000561614
0.0519828
-0.00893125
0.0582292
-0.0180947
0.0647365
-0.0283824
0.0715612
-0.0398259
0.0790259
-0.0530905
0.0869331
-0.0671059
0.0953451
-0.0823388
-0.0960253
0.103462
0.00115213
0.00455779
0.00344349
0.0131548
0.00605417
0.0202547
0.00855309
0.0252307
0.0108781
0.0281885
0.0131932
0.0295771
0.0157331
0.0298296
0.018702
0.0292011
0.0222338
0.0277688
0.0263895
0.0255017
0.0311706
0.0223349
0.0365309
0.0182198
0.0423874
0.0131502
0.0486253
0.00717356
0.0550803
0.000415881
0.0618758
-0.0073572
0.0688136
-0.015869
0.0760158
-0.025297
0.0837479
-0.0361145
0.0921125
-0.0481904
0.101332
-0.0623097
0.11086
-0.076634
0.120448
-0.0919272
-0.104393
0.128816
0.0011192
0.0034386
0.0036044
0.0106696
0.00674383
0.0171153
0.0100512
0.0219233
0.0133453
0.0248945
0.0166845
0.0262379
0.0202413
0.0262727
0.0241945
0.025248
0.0286701
0.0232932
0.0337235
0.0204484
0.0393436
0.0167147
0.0454676
0.0120958
0.0519939
0.00662387
0.0587551
0.000412407
0.0659592
-0.00678823
0.0733361
-0.0147341
0.0811618
-0.0236947
0.0896947
-0.03383
0.0992493
-0.045669
0.109794
-0.0587353
0.121073
-0.0735885
0.132031
-0.0875921
0.14197
-0.101866
-0.111696
0.149273
0.000969771
0.00246883
0.00335471
0.00828464
0.00664429
0.0138257
0.0103892
0.0181784
0.0143342
0.0209495
0.0184294
0.0221426
0.0227552
0.0219469
0.0274319
0.0205713
0.0325548
0.0181703
0.038165
0.0148383
0.0442462
0.0106335
0.0507385
0.00560353
0.0575645
-0.000202182
0.0648963
-0.00691943
0.072624
-0.0145158
0.0810716
-0.0231818
0.0905841
-0.0332071
0.101439
-0.0446853
0.113601
-0.0578309
0.126553
-0.0716873
0.139272
-0.0863069
0.150424
-0.0987441
0.159077
-0.110519
-0.116693
0.164073
0.000741299
0.00172753
0.00277552
0.00625042
0.00582867
0.0107725
0.00956507
0.0144419
0.0137237
0.0167909
0.01818
0.0176863
0.0229235
0.0172034
0.0279999
0.015495
0.033459
0.0127112
0.0393289
0.00896835
0.045618
0.00434436
0.0523768
-0.00115519
0.0597742
-0.00759963
0.0679443
-0.0150895
0.0772457
-0.0238173
0.0880313
-0.0339674
0.10045
-0.045626
0.114297
-0.0585318
0.128764
-0.0722979
0.142734
-0.0856578
0.154688
-0.0982609
0.163604
-0.10766
0.168888
-0.115803
-0.118338
0.170533
0.00047065
0.00125688
0.00198472
0.00473635
0.0044914
0.00826587
0.00780473
0.0111286
0.0117176
0.012878
0.0160842
0.0133197
0.0208387
0.0124489
0.0259779
0.0103558
0.0315411
0.00714792
0.0376078
0.00290165
0.044355
-0.00240284
0.0520282
-0.00882838
0.0609457
-0.0165171
0.0714702
-0.025614
0.0838283
-0.0361754
0.097945
-0.0480841
0.113271
-0.0609515
0.128844
-0.0741057
0.143273
-0.0867263
0.155323
-0.0977076
0.16381
-0.106749
0.168664
-0.112513
0.17009
-0.117229
-0.117592
0.169344
0.000187514
0.00106936
0.00110569
0.00381818
0.00289107
0.00648049
0.00550701
0.00851268
0.00883864
0.00954632
0.0127816
0.0093768
0.0172925
0.00793794
0.0224153
0.00523312
0.0282961
0.00126713
0.0352021
-0.00400436
0.0434749
-0.0106756
0.0534862
-0.0188397
0.0654897
-0.0285206
0.079471
-0.0395953
0.0950203
-0.0517247
0.111307
-0.064371
0.127137
-0.0767816
0.141225
-0.0881932
0.152356
-0.097858
0.159979
-0.10533
0.163932
-0.110702
0.165247
-0.113828
0.164672
-0.116653
-0.116647
0.163727
-7.64036e-05
0.00114577
0.000273953
0.00346782
0.00133849
0.00541596
0.00322091
0.00663025
0.00593282
0.00683441
0.00949459
0.00581503
0.0140038
0.00342873
0.019681
-0.000444106
0.0268453
-0.00589712
0.0358714
-0.0130305
0.0470395
-0.0218437
0.0603909
-0.0321911
0.0756035
-0.0437331
0.0919498
-0.0559416
0.108365
-0.0681402
0.123604
-0.0796097
0.136491
-0.0896684
0.146203
-0.0979058
0.152458
-0.104113
0.155757
-0.108628
0.156851
-0.111797
0.157109
-0.114087
0.156869
-0.116413
-0.116874
0.157096
-0.000272835
0.0014186
-0.000335909
0.0035309
0.000221391
0.00485866
0.0016457
0.00520594
0.0041258
0.00435431
0.00788573
0.0020551
0.0132317
-0.00191725
0.0205232
-0.00773556
0.0300964
-0.0154704
0.0420753
-0.0250094
0.0562456
-0.036014
0.0719874
-0.047933
0.0883238
-0.0600695
0.104067
-0.0716845
0.118039
-0.0821119
0.129311
-0.0908824
0.137443
-0.0978003
0.142561
-0.103024
0.145327
-0.106879
0.146676
-0.109978
0.147354
-0.112474
0.148228
-0.11496
0.14895
-0.117135
-0.118201
0.150277
-0.000347594
-0.000553414
-9.55963e-05
0.00141085
0.00436818
0.00918715
0.0162812
0.0259393
0.0381445
0.0524561
0.0680133
0.0836703
0.0982168
0.110627
0.120281
0.127086
0.131463
0.134127
0.135844
0.13711
0.138149
0.139152
0.139844
0.142393
0.0530716
-0.121828
0.115387
0.0593101
-0.137408
0.131169
0.0637838
-0.146464
0.14199
0.0648053
-0.149834
0.148813
0.0611274
-0.150777
0.154455
0.054768
-0.153373
0.159732
0.0511082
-0.156924
0.160584
0.0551855
-0.153547
0.149469
0.0674992
-0.133707
0.121393
0.0839336
-0.0945987
0.0781643
0.10074
-0.0405953
0.023789
0.116448
0.0219378
-0.0376453
0.130441
0.0842794
-0.0982727
0.141829
0.13483
-0.146218
0.1497
0.166301
-0.174172
0.153654
0.18074
-0.184694
0.15476
0.185381
-0.186487
0.15493
0.184171
-0.184341
0.154282
0.182446
-0.181798
0.151256
0.191056
-0.18803
0.145452
0.213264
-0.207461
0.138924
0.229671
-0.223142
0.134337
0.210179
-0.205592
0.133261
0.139933
-0.138857
0.136249
0.0331509
-0.0361386
0.14189
-0.0765775
0.0709358
0.147871
-0.161793
0.155813
0.152957
-0.210073
0.204987
0.156673
-0.22542
0.221704
0.157195
-0.227688
0.227165
0.152619
-0.238602
0.243177
0.142991
-0.254054
0.263682
0.130932
-0.255791
0.26785
0.120454
-0.216724
0.227202
0.115543
-0.133941
0.138852
0.11779
-0.0162252
0.0139785
0.125808
0.0954824
-0.1035
0.135485
0.180244
-0.189921
0.14006
0.229817
-0.234392
0.135903
0.269955
-0.265799
0.126395
0.296997
-0.287489
0.117523
0.279877
-0.271005
0.11449
0.200641
-0.197608
0.119275
0.0642473
-0.0690327
0.126312
-0.0588435
0.0518069
0.128763
-0.175489
0.173039
0.126285
-0.24973
0.252208
0.123033
-0.303038
0.30629
0.121129
-0.279112
0.281016
0.120634
-0.176137
0.176632
0.120635
-0.0281589
0.0281583
0.120486
0.156178
-0.15603
0.120854
0.238683
-0.239051
0.120797
0.314985
-0.314928
0.122083
0.296921
-0.298206
0.123202
0.149958
-0.151078
0.121737
-0.0152237
0.0166886
0.118646
-0.381881
0.384972
0.115959
-0.407683
0.41037
-0.075243
0.0792587
0.0759172
-0.123637
0.0775519
-0.139042
0.0784624
-0.147374
0.07769
-0.149062
0.0731202
-0.146207
0.0635132
-0.143766
0.0522468
-0.145658
0.0461665
-0.147466
0.0499658
-0.137506
0.0626082
-0.107241
0.0797483
-0.0577354
0.0983477
0.00333843
0.116536
0.0660911
0.132593
0.118773
0.144875
0.154019
0.152654
0.17296
0.157027
0.181008
0.15984
0.181358
0.161517
0.180769
0.161194
0.191378
0.158584
0.215875
0.154714
0.233541
0.151043
0.21385
0.1486
0.142376
0.148266
0.0334844
0.150053
-0.0783647
0.152496
-0.164236
0.154373
-0.21195
0.155319
-0.226366
0.153643
-0.226012
0.147219
-0.232178
0.136091
-0.242925
0.123221
-0.242921
0.113074
-0.206577
0.109539
-0.130406
0.114255
-0.0209415
0.125128
0.0846091
0.136781
0.168591
0.142511
0.224087
0.139497
0.272969
0.130725
0.30577
0.121544
0.289058
0.117128
0.205057
0.12036
0.0610149
0.126932
-0.0654153
0.129022
-0.17758
0.12583
-0.246538
0.121975
-0.299183
0.120249
-0.277387
0.120138
-0.176025
0.120982
-0.0290037
0.121382
0.155779
0.121864
0.238201
0.122063
0.314787
0.123411
0.295573
0.12492
0.148449
0.122623
-0.0129268
0.118267
-0.377525
0.116412
-0.405828
-0.0720114
0.101917
-0.122091
0.0986848
-0.13581
0.09393
-0.14262
0.0888728
-0.144005
0.0831425
-0.140477
0.0734821
-0.134105
0.0590207
-0.131196
0.0450581
-0.133504
0.0393951
-0.131843
0.0453083
-0.113154
0.0602764
-0.0727035
0.0802668
-0.016652
0.101936
0.0444222
0.12235
0.0983589
0.139013
0.137356
0.15082
0.161153
0.158734
0.173094
0.164475
0.175618
0.168842
0.176403
0.171646
0.188574
0.172561
0.21496
0.171618
0.234484
0.168928
0.21654
0.164817
0.146488
0.160801
0.0375004
0.158459
-0.076023
0.157254
-0.16303
0.155924
-0.21062
0.154181
-0.224624
0.150611
-0.222441
0.142944
-0.224511
0.130863
-0.230844
0.117276
-0.229334
0.107219
-0.19652
0.104982
-0.128169
0.11176
-0.0277197
0.124972
0.0713968
0.138496
0.155067
0.145669
0.216913
0.144256
0.274383
0.136502
0.313525
0.127139
0.298421
0.121156
0.21104
0.122337
0.0598343
0.128094
-0.0711719
0.129867
-0.179353
0.125941
-0.242613
0.121228
-0.294469
0.119544
-0.275703
0.119973
-0.176455
0.121742
-0.0307728
0.12274
0.154781
0.123236
0.237705
0.123602
0.31442
0.124976
0.294199
0.126884
0.146541
0.123953
-0.0099954
0.118442
-0.372015
0.117312
-0.404698
-0.069509
0.124486
-0.117762
0.118019
-0.129343
0.109417
-0.134018
0.0997621
-0.13435
0.0912337
-0.131948
0.0828006
-0.125672
0.0697778
-0.118174
0.0523821
-0.116108
0.0383379
-0.117799
0.0355314
-0.110348
0.0454316
-0.0826038
0.0643136
-0.035534
0.0878935
0.0208423
0.11153
0.0747223
0.131909
0.116978
0.147499
0.145563
0.158898
0.161694
0.167589
0.166928
0.17472
0.169271
0.180731
0.182563
0.185306
0.210385
0.187627
0.232163
0.18648
0.217687
0.181
0.151968
0.173443
0.0450572
0.16707
-0.0696499
0.162189
-0.158149
0.157692
-0.206123
0.153358
-0.22029
0.148055
-0.217138
0.139529
-0.215985
0.127101
-0.218416
0.113161
-0.215394
0.102978
-0.186336
0.101456
-0.126647
0.109784
-0.0360482
0.124989
0.0561916
0.140435
0.139621
0.149456
0.207892
0.14996
0.273879
0.143463
0.320022
0.134179
0.307705
0.126672
0.218547
0.125354
0.0611524
0.129814
-0.0756322
0.131272
-0.180811
0.126621
-0.237962
0.120843
-0.288691
0.119059
-0.273919
0.120095
-0.17749
0.122878
-0.0335562
0.124505
0.153155
0.124941
0.237268
0.125379
0.313982
0.126704
0.292874
0.129046
0.1442
0.125702
-0.00665172
0.119153
-0.365466
0.11861
-0.404154
-0.0677066
0.141235
-0.109724
0.131163
-0.11927
0.120171
-0.123026
0.108442
-0.122621
0.0970067
-0.120513
0.0879683
-0.116634
0.0788244
-0.10903
0.064326
-0.10161
0.0465934
-0.100067
0.0352606
-0.099015
0.0374199
-0.0847631
0.0522727
-0.0503869
0.0754088
-0.00229386
0.10057
0.0495615
0.123727
0.0938206
0.14266
0.126629
0.157334
0.147021
0.168831
0.155431
0.178501
0.1596
0.187402
0.173662
0.195492
0.202295
0.201146
0.226509
0.201811
0.217021
0.19611
0.157669
0.185813
0.0553536
0.175522
-0.0593584
0.166903
-0.14953
0.15942
-0.19864
0.152717
-0.213587
0.145933
-0.210355
0.136965
-0.207017
0.124696
-0.206147
0.110792
-0.20149
0.100348
-0.175892
0.0989173
-0.125216
0.108108
-0.0452391
0.124827
0.0394725
0.14218
0.122268
0.15347
0.196603
0.156479
0.270869
0.15176
0.324741
0.142808
0.316657
0.133771
0.227584
0.129496
0.0654272
0.132073
-0.0782099
0.13315
-0.181887
0.127842
-0.232655
0.120826
-0.281675
0.118771
-0.271863
0.120436
-0.179156
0.124326
-0.0374461
0.126632
0.150849
0.126953
0.236948
0.127355
0.313581
0.128528
0.2917
0.131356
0.141372
0.127843
-0.00313881
0.120373
-0.357995
0.120289
-0.40407
-0.0665664
0.153106
-0.0987565
0.140094
-0.106259
0.126782
-0.109714
0.11446
-0.110298
0.102564
-0.108617
0.0919647
-0.106035
0.0841321
-0.101197
0.0751879
-0.0926655
0.0605614
-0.08544
0.044695
-0.0831486
0.0379777
-0.0780458
0.0457344
-0.0581435
0.0647513
-0.0213108
0.0894886
0.0248242
0.114078
0.0692309
0.135692
0.105016
0.153372
0.12934
0.167532
0.14127
0.179495
0.147637
0.190894
0.162264
0.202059
0.19113
0.210708
0.217861
0.213179
0.21455
0.207618
0.163231
0.195985
0.0669865
0.182884
-0.0462578
0.171084
-0.137729
0.160979
-0.188535
0.152205
-0.204812
0.144066
-0.202217
0.134864
-0.197815
0.123257
-0.19454
0.109891
-0.188124
0.0991774
-0.165179
0.0971814
-0.12322
0.106437
-0.0544946
0.124137
0.0217724
0.143365
0.103041
0.157248
0.182719
0.163067
0.26505
0.160539
0.32727
0.152392
0.324803
0.142136
0.23784
0.13475
0.0728134
0.134835
-0.0782956
0.135372
-0.182424
0.12955
-0.226833
0.121178
-0.273303
0.118633
-0.269318
0.120916
-0.181439
0.125996
-0.0425265
0.129062
0.147783
0.12925
0.236759
0.129495
0.313336
0.130403
0.290792
0.13378
0.137995
0.130349
0.000292427
0.12207
-0.349717
0.122317
-0.404316
-0.066049
0.157828
-0.0860519
0.144128
-0.0925586
0.130235
-0.0958206
0.11755
-0.0976134
0.106459
-0.0975264
0.0960153
-0.095591
0.0874413
-0.0926231
0.0815003
-0.0867245
0.0735396
-0.0774793
0.0602098
-0.0698189
0.0476806
-0.0655166
0.0459226
-0.0563855
0.0578237
-0.0332119
0.0794212
0.00322671
0.103747
0.044905
0.126881
0.0818817
0.146875
0.109347
0.163282
0.124863
0.177121
0.133799
0.190471
0.148913
0.204258
0.177343
0.215904
0.206215
0.220605
0.209849
0.215766
0.16807
0.203444
0.0793085
0.188593
-0.0314066
0.174409
-0.123545
0.162108
-0.176235
0.151655
-0.194358
0.142395
-0.192957
0.133018
-0.188438
0.122337
-0.183859
0.110078
-0.175864
0.0993142
-0.154415
0.096164
-0.12007
0.104564
-0.0628946
0.122582
0.00375483
0.143544
0.0820783
0.160321
0.165942
0.169487
0.255885
0.169892
0.326865
0.163042
0.331653
0.151619
0.249264
0.141018
0.0834137
0.138056
-0.0753333
0.137777
-0.182145
0.131647
-0.220702
0.12189
-0.263546
0.118592
-0.26602
0.12142
-0.184267
0.127793
-0.0488994
0.131735
0.143841
0.131796
0.236698
0.131761
0.313371
0.132308
0.290245
0.1363
0.134004
0.133189
0.00340254
0.124212
-0.340739
0.124655
-0.40476
-0.0661147
0.15666
-0.073368
0.143781
-0.0796794
0.131356
-0.0833959
0.11964
-0.0858969
0.109282
-0.0871692
0.100084
-0.0863928
0.0914118
-0.0839508
0.0849022
-0.0802149
0.0808168
-0.073394
0.0745293
-0.0635313
0.0637097
-0.054697
0.0548893
-0.047565
0.0569416
-0.0352642
0.0716016
-0.0114333
0.0937657
0.0227408
0.11744
0.0582076
0.139079
0.0877076
0.157027
0.106915
0.171904
0.118922
0.186312
0.134504
0.20187
0.161785
0.215864
0.19222
0.222799
0.202914
0.219478
0.171391
0.207778
0.0910086
0.192446
-0.0160747
0.176745
-0.107844
0.162687
-0.162177
0.150886
-0.182558
0.140742
-0.182813
0.131202
-0.178897
0.121486
-0.174143
0.110816
-0.165195
0.100512
-0.144111
0.0958949
-0.115453
0.102484
-0.0694836
0.120005
-0.0137662
0.142474
0.059609
0.16215
0.146267
0.174664
0.24337
0.178217
0.323312
0.173487
0.336383
0.161441
0.261309
0.148061
0.0967941
0.14168
-0.0689528
0.140212
-0.180676
0.134003
-0.214493
0.122951
-0.252494
0.118608
-0.261677
0.12185
-0.187509
0.129605
-0.0566545
0.134569
0.138877
0.13455
0.236717
0.134143
0.313778
0.134256
0.290132
0.138925
0.129334
0.136345
0.00598294
0.12676
-0.331155
0.127264
-0.405263
-0.0667216
0.152825
-0.0624655
0.141589
-0.0684438
0.130681
-0.0724877
0.12044
-0.075656
0.110906
-0.0776356
0.102542
-0.0780286
0.0951189
-0.0765276
0.0884025
-0.0734985
0.0838842
-0.0688757
0.0816619
-0.0613091
0.0778091
-0.0508442
0.070403
-0.0401589
0.065216
-0.0300772
0.0698536
-0.0160709
0.0857768
0.00681763
0.107703
0.0362817
0.130367
0.0650437
0.149856
0.0874251
0.165523
0.103255
0.180065
0.119963
0.196329
0.145522
0.212436
0.176114
0.221985
0.193365
0.220403
0.172973
0.209473
0.101938
0.194112
-0.000714111
0.17775
-0.0914811
0.162493
-0.14692
0.149724
-0.169788
0.138992
-0.172081
0.129281
-0.169187
0.120332
-0.165194
0.111472
-0.156335
0.102366
-0.135005
0.0965324
-0.10962
0.100518
-0.0734689
0.116306
-0.0295546
0.139723
0.036192
0.162469
0.123521
0.178896
0.226942
0.185983
0.316225
0.183657
0.33871
0.171579
0.273386
0.155558
0.112815
0.145601
-0.0589951
0.142525
-0.1776
0.136451
-0.20842
0.124316
-0.240359
0.118651
-0.256012
0.122085
-0.190943
0.131319
-0.065888
0.137486
0.13271
0.137458
0.236745
0.136614
0.314622
0.136271
0.290476
0.141669
0.123935
0.139798
0.00785406
0.129682
-0.321038
0.130106
-0.405688
-0.0678223
0.148198
-0.0535677
0.138757
-0.0590027
0.129195
-0.062926
0.120031
-0.0664919
0.111444
-0.0690488
0.103598
-0.0701824
0.0968823
-0.0698116
0.0911885
-0.0678047
0.0864484
-0.0641357
0.0838788
-0.0587395
0.0835617
-0.050527
0.0823691
-0.0389663
0.0784827
-0.0261909
0.0762787
-0.0138669
0.0824954
0.000600942
0.0980878
0.0206893
0.118573
0.0445588
0.138513
0.0674843
0.155397
0.0863711
0.170987
0.104373
0.187964
0.128545
0.204691
0.159386
0.21541
0.182646
0.216007
0.172376
0.207481
0.110464
0.194086
0.0126809
0.17781
-0.0752046
0.161608
-0.130719
0.147981
-0.156161
0.136893
-0.160993
0.127082
-0.159375
0.118611
-0.156724
0.111432
-0.149155
0.10422
-0.127794
0.0980203
-0.10342
0.0989942
-0.0744428
0.111907
-0.0424676
0.135353
0.0127457
0.160552
0.0983225
0.180442
0.207052
0.191152
0.305515
0.19185
0.338012
0.181176
0.28406
0.16332
0.130671
0.149763
-0.0454379
0.144583
-0.17242
0.138787
-0.202624
0.125891
-0.227463
0.118693
-0.248814
0.12204
-0.19429
0.1328
-0.0766482
0.140384
0.125126
0.140493
0.236636
0.139225
0.315891
0.138425
0.291276
0.14456
0.1178
0.143536
0.00887755
0.132947
-0.310449
0.133148
-0.405889
-0.0693641
0.142848
-0.0461386
0.134511
-0.0506658
0.125967
-0.0543819
0.117597
-0.0581224
0.109684
-0.0611362
0.10247
-0.062968
0.0961584
-0.0635
0.0910926
-0.0627389
0.0872376
-0.0602807
0.0845047
-0.0560066
0.0838842
-0.0499065
0.0858199
-0.040902
0.0879701
-0.0283412
0.0882378
-0.0141346
0.0897572
-0.000918418
0.0960326
0.0144139
0.10897
0.031621
0.125004
0.0514504
0.140884
0.0704912
0.157179
0.0880783
0.175864
0.109859
0.195306
0.139944
0.209172
0.168781
0.211746
0.169803
0.204527
0.117683
0.191218
0.0259897
0.175712
-0.0596981
0.159335
-0.114342
0.145308
-0.142134
0.134216
-0.149902
0.124518
-0.149677
0.116304
-0.14851
0.110387
-0.143238
0.105362
-0.122769
0.0999546
-0.0980128
0.0983935
-0.0728817
0.107289
-0.0513635
0.129338
-0.00930323
0.156949
0.0707119
0.181088
0.182913
0.19545
0.291153
0.198583
0.33488
0.189428
0.293214
0.170968
0.149131
0.153913
-0.0283824
0.14628
-0.164788
0.140807
-0.19715
0.127677
-0.214333
0.118806
-0.239943
0.121599
-0.197082
0.133954
-0.0890041
0.143177
0.115904
0.143556
0.236257
0.141926
0.317521
0.140737
0.292464
0.147608
0.11093
0.147509
0.00897681
0.136523
-0.299463
0.136358
-0.405724
-0.071298
0.136346
-0.0400913
0.129202
-0.0435222
0.121874
-0.0470534
0.11451
-0.0507589
0.107479
-0.0541052
0.101161
-0.0566494
0.0956908
-0.0580301
0.0910882
-0.0581363
0.0875914
-0.0567839
0.0851524
-0.0535675
0.0838439
-0.0485981
0.084754
-0.041812
0.0882416
-0.0318288
0.0923184
-0.0182114
0.0950181
-0.00361807
0.099012
0.01042
0.105649
0.0249842
0.115156
0.0419434
0.126516
0.0591313
0.140373
0.0742213
0.158195
0.0920373
0.17797
0.120169
0.192996
0.153755
0.198803
0.163995
0.197032
0.119454
0.189118
0.0339032
0.174793
-0.0453732
0.157882
-0.0974301
0.143066
-0.127319
0.13184
-0.138675
0.12228
-0.140117
0.114061
-0.140291
0.108789
-0.137966
0.10562
-0.1196
0.101721
-0.0941135
0.0987706
-0.0699315
0.103623
-0.0562155
0.122072
-0.0277527
0.149867
0.0429168
0.177085
0.155695
0.195832
0.272407
0.203016
0.327696
0.196338
0.299892
0.178262
0.167207
0.158503
-0.0086233
0.148113
-0.154397
0.142669
-0.191707
0.129848
-0.201511
0.119259
-0.229354
0.121135
-0.198959
0.13455
-0.102419
0.145694
0.10476
0.146748
0.235203
0.144851
0.319418
0.143287
0.294028
0.150865
0.103351
0.151692
0.00815016
0.140395
-0.288166
0.139675
-0.405004
-0.0735914
0.191505
-0.0343537
-0.197242
0.1867
-0.0387175
0.181823
-0.0421764
0.17646
-0.0453954
0.170571
-0.0482163
0.164314
-0.050393
0.157861
-0.0515766
0.151271
-0.0515463
0.144637
-0.0501502
0.138111
-0.0470416
0.131694
-0.0421807
0.125512
-0.0356297
0.12029
-0.0266074
0.116636
-0.0145567
0.11386
-0.000842361
0.110599
0.0136806
0.107189
0.0283946
0.105081
0.0440511
0.106222
0.0579903
0.111507
0.0689362
0.119497
0.0840473
0.127983
0.111683
0.139407
0.142331
0.160125
0.143277
0.186026
0.0935536
0.203026
0.0169035
0.206874
-0.0492212
0.200208
-0.0907644
0.189149
-0.11626
0.177381
-0.126908
0.1657
-0.128436
0.154362
-0.128952
0.144539
-0.128143
0.13558
-0.110641
0.125795
-0.0843283
0.116864
-0.0610005
0.114088
-0.0534395
0.122287
-0.035952
0.136271
0.0289331
0.149651
0.142314
0.15998
0.262078
0.168925
0.318751
0.174242
0.294575
0.174596
0.166853
0.169373
-0.00339977
0.164585
-0.14961
0.159572
-0.186694
0.14592
-0.18786
0.132106
-0.21554
0.126712
-0.193565
0.131093
-0.1068
0.134825
0.101028
0.132304
0.237724
0.130369
0.321353
0.132694
0.291704
0.143145
0.0928999
0.146635
0.00466001
0.136057
-0.277589
0.131428
-0.400375
-0.0735625
0.199677
-0.0297086
-0.204322
0.1948
-0.0338407
0.189806
-0.0371821
0.184442
-0.040031
0.178656
-0.0424309
0.172516
-0.044253
0.166178
-0.0452385
0.159806
-0.0451737
0.153534
-0.0438788
0.147566
-0.0410733
0.142071
-0.036686
0.13712
-0.0306789
0.132928
-0.0224147
0.130037
-0.0116661
0.128458
0.000736408
0.127508
0.0146306
0.125822
0.030081
0.123975
0.045898
0.123634
0.0583307
0.125693
0.0668777
0.129805
0.0799353
0.137246
0.104242
0.153601
0.125976
0.180488
0.11639
0.206554
0.0674877
0.220025
0.003433
0.219623
-0.0488198
0.210464
-0.0816055
0.198082
-0.103878
0.185969
-0.114794
0.174443
-0.11691
0.163155
-0.117664
0.153489
-0.118477
0.145457
-0.10261
0.137167
-0.0760381
0.128348
-0.0521813
0.123709
-0.0488009
0.13043
-0.0426731
0.145284
0.0140798
0.160855
0.126743
0.173377
0.249556
0.184484
0.307645
0.191321
0.287737
0.192129
0.166045
0.185972
0.00275721
0.178771
-0.142409
0.172463
-0.180386
0.157908
-0.173305
0.142523
-0.200154
0.136114
-0.187156
0.141533
-0.11222
0.146487
0.0960741
0.143882
0.240329
0.141896
0.323339
0.144598
0.289001
0.155922
0.0815764
0.160116
0.000465965
0.148137
-0.26561
0.142327
-0.394564
-0.0733665
0.208385
-0.0259186
-0.212175
0.203887
-0.0293426
0.19914
-0.0324351
0.194123
-0.0350144
0.188775
-0.0370828
0.183115
-0.0385926
0.177251
-0.0393743
0.171319
-0.0392422
0.165458
-0.0380176
0.159835
-0.0354505
0.154602
-0.0314532
0.149927
-0.0260032
0.146082
-0.01857
0.143582
-0.00916616
0.142618
0.00170014
0.143032
0.0142168
0.14402
0.0290929
0.145287
0.0446311
0.146813
0.0568047
0.148459
0.065232
0.15127
0.0771236
0.159778
0.095734
0.179492
0.106262
0.206595
0.0892872
0.227765
0.0463184
0.235067
-0.00386976
0.231182
-0.0449346
0.221195
-0.0716183
0.209037
-0.0917199
0.197297
-0.103055
0.186151
-0.105765
0.174804
-0.106316
0.164801
-0.108474
0.156989
-0.0947982
0.149816
-0.0688655
0.141231
-0.0435954
0.134514
-0.0420839