/*--------------------------------*- C++ -*----------------------------------*\
| =========                 |                                                 |
| \\      /  F ield         | OpenFOAM: The Open Source CFD Toolbox           |
|  \\    /   O peration     | Version:  2512                                  |
|   \\  /    A nd           | Website:  www.openfoam.com                      |
|    \\/     M anipulation  |                                                 |
\*---------------------------------------------------------------------------*/
FoamFile
{
    version     2.0;
    format      ascii;
    arch        "LSB;label=32;scalar=64";
    class       surfaceScalarField;
    location    "159.6";
    object      phi;
}
// * * * * * * * * * * * * * * * * * * * * * * * * * * * * * * * * * * * * * //

dimensions      [0 3 -1 0 0 0 0];

oriented        oriented;

internalField   nonuniform List<scalar> 
26232
(
-0.000256725
0.00107766
-0.000820938
-0.00073288
0.00180041
-0.00132425
-0.00102127
0.00156896
-0.00128058
-0.000707914
0.000443126
-0.000756478
0.000603385
-0.00169589
0.000384591
0.00329753
-0.00502162
0.00232747
0.00769672
-0.00967239
0.0052732
0.0140448
-0.0156843
0.0093362
0.022439
-0.0229274
0.0145332
0.0327735
-0.0310998
0.0207654
0.0447321
-0.0397705
0.0278119
0.0578272
-0.0484567
0.0353616
0.0714734
-0.0567089
0.0430627
0.0850736
-0.0641764
0.0505762
0.0980961
-0.0706427
0.0576202
0.110136
-0.0760366
0.0639973
0.12095
-0.0804131
0.0695986
0.130439
-0.0839262
0.0744373
0.138738
-0.0867904
0.0784908
0.145945
-0.0892793
0.0820729
0.152505
-0.0915191
0.0849585
0.15862
-0.0940274
0.0879129
0.164522
-0.0963236
0.0904212
-0.0994847
0.0933792
0.170628
-4.5798e-05
0.00112346
3.00498e-06
0.00175161
0.000511577
0.00106039
0.00191001
-0.000955306
0.00463352
-0.00441941
0.00908181
-0.0094699
0.0155531
-0.0161436
0.0241422
-0.0242734
0.0346702
-0.0334554
0.0466802
-0.0431098
0.0595127
-0.0526029
0.0724305
-0.0613746
0.0847512
-0.0690296
0.0959521
-0.0753774
0.105736
-0.0804264
0.114046
-0.0843468
0.121037
-0.087404
0.127029
-0.0899182
0.1324
-0.0921613
0.137526
-0.0944053
0.142746
-0.0967395
0.148102
-0.0993832
0.153798
-0.102019
-0.105295
0.159608
9.28353e-05
0.00103063
0.000583036
0.00126141
0.00185182
-0.000208393
0.00436873
-0.00347221
0.00859527
-0.00864595
0.0148987
-0.0157734
0.0234006
-0.0246455
0.0338634
-0.0347361
0.0456907
-0.0452828
0.0580552
-0.0554743
0.0700917
-0.0646394
0.0810811
-0.0723641
0.0905758
-0.0785242
0.098445
-0.0832465
0.104847
-0.0868281
0.110137
-0.0896369
0.114761
-0.0920286
0.119125
-0.0942817
0.123534
-0.0965702
0.128136
-0.099008
0.132948
-0.101552
0.137911
-0.104346
0.142965
-0.107073
-0.110305
0.147975
0.000185153
0.000845473
0.00107493
0.000371626
0.00313114
-0.0022646
0.00685597
-0.00719704
0.0126978
-0.0144878
0.0208355
-0.0239111
0.0310056
-0.0348156
0.0424902
-0.0462208
0.0543064
-0.057099
0.0654841
-0.066652
0.075305
-0.0744602
0.0834296
-0.0804887
0.0898997
-0.0849943
0.0950413
-0.0883882
0.0993137
-0.0911005
0.103162
-0.0934856
0.106914
-0.0957806
0.110744
-0.0981117
0.114711
-0.100536
0.11877
-0.103068
0.122928
-0.105709
0.127111
-0.108529
0.131395
-0.111357
-0.11466
0.13575
0.000282354
0.000563119
0.00161363
-0.000959648
0.00454426
-0.00519523
0.00959779
-0.0122506
0.0170543
-0.0219442
0.0266835
-0.0335404
0.0376851
-0.0458172
0.0489333
-0.057469
0.0593584
-0.0675241
0.0682456
-0.0755393
0.0753521
-0.0815667
0.0808492
-0.0859857
0.0851558
-0.0893009
0.0887475
-0.0919799
0.0920138
-0.0943668
0.0951981
-0.0966699
0.0984126
-0.0989951
0.101695
-0.101394
0.105049
-0.103891
0.108491
-0.10651
0.112042
-0.10926
0.115686
-0.112173
0.119482
-0.115153
-0.118495
0.123317
0.000423195
0.000139924
0.00229097
-0.00282742
0.00621773
-0.00912199
0.0126276
-0.0186604
0.0214171
-0.0307338
0.0317794
-0.0439027
0.0424655
-0.0565032
0.0522869
-0.0672904
0.0604977
-0.0757348
0.066904
-0.0819456
0.0717472
-0.0864099
0.0754805
-0.089719
0.0785618
-0.0923822
0.0813339
-0.0947521
0.0840016
-0.0970345
0.0866677
-0.099336
0.0893832
-0.101711
0.0921743
-0.104185
0.0950604
-0.106777
0.0980409
-0.109491
0.101111
-0.112329
0.104237
-0.115299
0.107438
-0.118355
-0.121665
0.110608
0.000622085
-0.000482161
0.00313054
-0.00533588
0.00811297
-0.0141044
0.0156999
-0.0262473
0.0252102
-0.0402441
0.0353196
-0.0540121
0.0446847
-0.0658684
0.0524587
-0.0750644
0.0584254
-0.0817015
0.062838
-0.0863583
0.066154
-0.0897258
0.0688173
-0.0923822
0.0711536
-0.0947185
0.0733616
-0.0969601
0.075549
-0.0992219
0.0777706
-0.101558
0.0800505
-0.103991
0.0823962
-0.106531
0.084802
-0.109182
0.0872623
-0.111951
0.0897741
-0.114841
0.0923293
-0.117854
0.094952
-0.120977
-0.124294
0.0975808
0.000872891
-0.00135505
0.00408627
-0.00854926
0.0100507
-0.0200688
0.01839
-0.0345867
0.0278249
-0.049679
0.0368318
-0.063019
0.0443683
-0.0734049
0.0501058
-0.0808019
0.0542554
-0.0858511
0.0572651
-0.0893681
0.0595814
-0.0920421
0.061537
-0.0943379
0.0633387
-0.0965202
0.0650979
-0.0987193
0.0668671
-0.100991
0.0686663
-0.103357
0.0705017
-0.105826
0.072375
-0.108404
0.0742904
-0.111098
0.0762521
-0.113913
0.07826
-0.116849
0.0803074
-0.119901
0.0823963
-0.123066
-0.126361
0.0844633
0.00115813
-0.00251318
0.0050684
-0.0124595
0.0117773
-0.0267777
0.0202795
-0.0430889
0.0289195
-0.058319
0.0363599
-0.0704594
0.0420463
-0.0790912
0.0460817
-0.0848372
0.0488883
-0.0886577
0.050926
-0.0914058
0.0525506
-0.0936667
0.053985
-0.0957722
0.0553472
-0.0978824
0.0566912
-0.100063
0.0580391
-0.102339
0.0594009
-0.104719
0.0607832
-0.107208
0.0621915
-0.109812
0.0636283
-0.112535
0.0650922
-0.115376
0.0665785
-0.118335
0.0680836
-0.121406
0.0696054
-0.124588
-0.127878
0.0711218
0.00145369
-0.00396687
0.00596521
-0.0169711
0.0130439
-0.0338564
0.0211183
-0.0511633
0.0285068
-0.0657076
0.0342889
-0.0762415
0.0383587
-0.083161
0.0410729
-0.0875515
0.0429042
-0.0904889
0.0442428
-0.0927444
0.0453397
-0.0947636
0.0463291
-0.0967616
0.0472731
-0.0988265
0.0481988
-0.100989
0.0491189
-0.103259
0.0500405
-0.10564
0.0509681
-0.108136
0.0519044
-0.110749
0.0528514
-0.113482
0.05381
-0.116335
0.0547796
-0.119305
0.0557584
-0.122385
0.056743
-0.125573
-0.128854
0.0577196
0.00173176
-0.00569863
0.00666417
-0.0219035
0.0136804
-0.0408726
0.0208797
-0.0583626
0.0268401
-0.071668
0.0310921
-0.0804935
0.0338429
-0.0859118
0.0355538
-0.0892624
0.0366573
-0.0915924
0.0374481
-0.0935353
0.0380893
-0.0954047
0.0386575
-0.0973298
0.039186
-0.099355
0.0396893
-0.101492
0.0401746
-0.103744
0.0406466
-0.106112
0.0411095
-0.108599
0.0415677
-0.111207
0.0420244
-0.113938
0.0424805
-0.116791
0.0429339
-0.119758
0.043381
-0.122832
0.0438143
-0.126006
-0.129274
0.0442344
0.00196693
-0.00766556
0.00707997
-0.0270165
0.0136393
-0.0474319
0.0197107
-0.064434
0.0242622
-0.0762194
0.0271969
-0.0834282
0.0288983
-0.0876132
0.029833
-0.0901972
0.030355
-0.0921144
0.0306719
-0.0938521
0.0308842
-0.0956171
0.0310348
-0.0974804
0.0311413
-0.0994615
0.0312122
-0.101563
0.0312529
-0.103785
0.0312679
-0.106127
0.0312613
-0.108592
0.0312365
-0.111182
0.0311956
-0.113897
0.03114
-0.116736
0.0310706
-0.119689
0.0309866
-0.122748
0.0308841
-0.125903
0.0307645
-0.129155
0.000131577
-0.00871952
0.00858795
-0.000212411
-0.0193563
0.0197003
-0.00127499
-0.0251228
0.0261853
-0.00294119
-0.0277823
0.0294485
-0.00502565
-0.028886
0.0309704
-0.00734869
-0.0294397
0.0317628
-0.00976187
-0.0298569
0.0322701
-0.01214
-0.0301436
0.0325218
-0.0143659
-0.0301206
0.0323464
-0.0163226
-0.0295659
0.0315226
-0.0178977
-0.0282748
0.0298499
-0.0189932
-0.026078
0.0271736
-0.019538
-0.0228484
0.0233932
-0.0194966
-0.0185043
0.0184629
-0.0188699
-0.0130079
0.0123812
-0.0177242
-0.00634193
0.0051963
-0.0160806
0.00132839
-0.00297197
-0.0138524
0.00992804
-0.0121563
-0.0110156
0.0195217
-0.0223585
-0.00745682
0.0299505
-0.0335093
-0.00299551
0.0410017
-0.045463
0.00244606
0.052341
-0.0577826
0.00884111
0.0636273
-0.0700223
0.0741717
0.015878
-0.0812085
-0.000261392
-0.00845813
-0.00131638
-0.0183014
-0.00313348
-0.0233057
-0.00556041
-0.0253553
-0.00843517
-0.0260112
-0.0116323
-0.0262425
-0.0150509
-0.0264383
-0.0185928
-0.0266017
-0.0221487
-0.0265646
-0.0255941
-0.0261205
-0.028793
-0.0250759
-0.0316082
-0.0232628
-0.0339127
-0.0205439
-0.0356016
-0.0168154
-0.0366023
-0.0120072
-0.0368763
-0.00606793
-0.0364162
0.000868319
-0.0350825
0.00859433
-0.0328655
0.0173047
-0.0297018
0.0267869
-0.0255283
0.0368282
-0.0203202
0.0471329
-0.0140617
0.0573688
0.0672994
-0.00718945
-0.000591305
-0.00786683
-0.00218403
-0.0167086
-0.00454744
-0.0209422
-0.00748006
-0.0224227
-0.0108524
-0.0226388
-0.0145911
-0.0225039
-0.0186387
-0.0223906
-0.0229253
-0.0223152
-0.0273564
-0.0221336
-0.0318125
-0.0216644
-0.0361533
-0.0207351
-0.0402239
-0.0191922
-0.0438645
-0.0169033
-0.0469202
-0.0137597
-0.0492501
-0.00967726
-0.0507371
-0.00458097
-0.0512175
0.00134877
-0.0506607
0.00803748
-0.0489444
0.0155884
-0.0459629
0.0238053
-0.0416275
0.0324928
-0.0359205
0.0414259
-0.0287993
0.0502476
0.058744
-0.0202438
-0.000835106
-0.00703172
-0.00279272
-0.014751
-0.00548574
-0.0182492
-0.00867187
-0.0192366
-0.012238
-0.0190727
-0.0161445
-0.0185974
-0.020366
-0.0181691
-0.0248562
-0.0178249
-0.0295372
-0.0174526
-0.0343008
-0.0169008
-0.039012
-0.016024
-0.0435128
-0.0146914
-0.0476276
-0.0127885
-0.0511681
-0.0102193
-0.0539417
-0.00690359
-0.055731
-0.00279173
-0.0563572
0.00197499
-0.0557648
0.00744511
-0.0537322
0.0135558
-0.0500876
0.0201607
-0.044644
0.0270492
-0.037239
0.0340209
-0.0279651
0.0409737
0.046991
-0.0162122
-0.000996191
-0.00603553
-0.00317332
-0.0125739
-0.00602607
-0.0153965
-0.00927037
-0.0159923
-0.0127878
-0.0155552
-0.0165479
-0.0148374
-0.0205378
-0.0141792
-0.024722
-0.0136407
-0.0290304
-0.0131442
-0.0333604
-0.0125709
-0.0375808
-0.0118035
-0.0415339
-0.0107384
-0.04504
-0.00928237
-0.0478915
-0.00736775
-0.0498646
-0.00493053
-0.0506925
-0.00196381
-0.0502497
0.0015322
-0.0483197
0.00551507
-0.0446545
0.00989058
-0.0390303
0.0145365
-0.0313109
0.0193298
-0.0210179
0.0237279
-0.0084243
0.0283801
0.0312922
0.00727459
-0.00109407
-0.00494146
-0.0033892
-0.0102787
-0.00629431
-0.0124914
-0.00948343
-0.0128032
-0.0128162
-0.0122224
-0.0162502
-0.0114034
-0.0197671
-0.0106623
-0.0233282
-0.0100796
-0.0268593
-0.00961302
-0.0302524
-0.00917783
-0.0333704
-0.00868544
-0.0360526
-0.00805623
-0.0381119
-0.00722303
-0.0393499
-0.00612978
-0.0395329
-0.00474747
-0.0384394
-0.00305736
-0.0358028
-0.0011044
-0.0315043
0.00121661
-0.0252784
0.00366466
-0.0168177
0.00607576
-0.00616244
0.0086746
0.00732196
0.0102435
0.0227389
0.0129631
0.0113021
0.042729
-0.00114868
-0.00379278
-0.00349739
-0.00793004
-0.00639842
-0.00959033
-0.00949017
-0.00971144
-0.012604
-0.00910862
-0.0156744
-0.00833299
-0.0186658
-0.0076709
-0.021527
-0.00721837
-0.024173
-0.0069671
-0.026484
-0.00686683
-0.0283113
-0.00685807
-0.0294837
-0.00688382
-0.0298129
-0.00689381
-0.029097
-0.00684577
-0.0271359
-0.00670858
-0.0237245
-0.00646873
-0.0186964
-0.00613247
-0.011749
-0.0057308
-0.00277878
-0.00530556
0.00844941
-0.00515243
0.0216996
-0.00457556
0.0381324
-0.0061893
0.05594
-0.00484452
-0.0106865
0.0779286
-0.00116471
-0.00262807
-0.00350897
-0.00558578
-0.00635804
-0.00674126
-0.00932672
-0.00674276
-0.0122198
-0.0062155
-0.014944
-0.00560879
-0.017438
-0.00517698
-0.0196279
-0.00502842
-0.0214081
-0.00518693
-0.0226377
-0.00563718
-0.0231473
-0.00634848
-0.0227471
-0.00728404
-0.0212379
-0.00840305
-0.0184213
-0.00966228
-0.0141038
-0.0110261
-0.00810845
-0.0124641
-0.000284348
-0.0139566
0.00949785
-0.015513
0.0213497
-0.0171574
0.0354732
-0.0192759
0.0516243
-0.0207267
0.0704187
-0.0249836
0.0908261
-0.0252519
-0.0338807
0.11402
-0.00112555
-0.00150251
-0.00337443
-0.00333691
-0.00607656
-0.00403913
-0.00883384
-0.00398547
-0.0114235
-0.00362586
-0.0137142
-0.00331806
-0.0156012
-0.00329002
-0.0169652
-0.00366437
-0.0176547
-0.00449744
-0.0174853
-0.00580658
-0.016251
-0.00758279
-0.0137403
-0.0097947
-0.00974451
-0.0123989
-0.0040938
-0.015313
0.00334566
-0.0184656
0.012681
-0.0217994
0.0239617
-0.0252373
0.0372335
-0.0287848
0.05248
-0.0324039
0.0695211
-0.0363171
0.0886305
-0.039836
0.108893
-0.0452461
0.131289
-0.0476479
-0.0565761
0.153984
-0.00100526
-0.000497256
-0.00301476
-0.00132741
-0.00539535
-0.00165854
-0.00773865
-0.00164217
-0.00978701
-0.00157751
-0.011351
-0.00175403
-0.0122583
-0.00238273
-0.0123208
-0.00360193
-0.0113249
-0.00549333
-0.00904258
-0.00808889
-0.00525204
-0.0113733
0.000235808
-0.0152825
0.00753621
-0.0196993
0.0167256
-0.0245024
0.0277947
-0.0295347
0.0406727
-0.0346774
0.0552131
-0.0397777
0.0712736
-0.0448453
0.0886198
-0.0497501
0.106895
-0.0545926
0.126323
-0.0592638
0.145336
-0.0642594
0.165898
-0.068209
-0.0748052
0.184127
-0.000795816
0.000298561
-0.00239427
0.000271048
-0.00423054
0.000177729
-0.00587908
6.37978e-06
-0.00705476
-0.000401828
-0.00749163
-0.00131716
-0.00694362
-0.00293074
-0.00516101
-0.00538454
-0.00189505
-0.00875929
0.00307083
-0.0130548
0.00988716
-0.0181897
0.0186104
-0.0240058
0.0291981
-0.0302869
0.0414896
-0.0367939
0.0552461
-0.0432911
0.0701613
-0.0495926
0.0858975
-0.0555139
0.102117
-0.0610651
0.118415
-0.0660475
0.134551
-0.0707291
0.150185
-0.0748979
0.164763
-0.0788374
0.179082
-0.0825276
-0.0861912
0.190468
-0.000522378
-0.00157558
-0.00267843
-0.00342853
-0.00344577
-0.00243546
-9.30011e-05
0.00385866
0.00963252
0.0173431
0.0269653
0.0383212
0.051097
0.0648792
0.0792082
0.0936129
0.107698
0.12107
0.133513
0.144857
0.154917
0.163993
0.171886
0.179074
0.0243952
0.115616
-0.124133
0.0302428
0.130438
-0.136286
0.0336671
0.141541
-0.144965
0.0352224
0.150194
-0.151749
0.0380031
0.15468
-0.157461
0.0458262
0.151004
-0.158827
0.0605528
0.134724
-0.14945
0.08018
0.104957
-0.124584
0.100119
0.0652405
-0.0851789
0.117382
0.0177026
-0.0349665
0.131958
-0.0376054
0.02303
0.144044
-0.0949745
0.0828879
0.152793
-0.142467
0.133718
0.15768
-0.171479
0.166593
0.158951
-0.182288
0.181017
0.15739
-0.182825
0.184386
0.154737
-0.18064
0.183293
0.152047
-0.177599
0.180289
0.14791
-0.178026
0.182163
0.140685
-0.189642
0.196867
0.131427
-0.207537
0.216796
0.123515
-0.207505
0.215416
0.119926
-0.165336
0.168926
0.122146
-0.08091
0.0786902
0.128959
0.0221918
-0.0290051
0.137575
0.11545
-0.124066
0.145878
0.179665
-0.187969
0.153153
0.209295
-0.216569
0.158002
0.218133
-0.222982
0.15844
0.231184
-0.231621
0.153604
0.256849
-0.252013
0.144426
0.277106
-0.267928
0.133833
0.264162
-0.253569
0.125681
0.199134
-0.190982
0.122782
0.0856865
-0.0827878
0.125402
-0.0452691
0.0426486
0.132035
-0.156058
0.149426
0.138596
-0.222012
0.21545
0.138733
-0.252412
0.252275
0.130993
-0.271351
0.27909
0.12033
-0.276744
0.287407
0.112982
-0.241817
0.249165
0.112913
-0.147512
0.147581
0.11951
-0.0246362
0.0180393
0.125536
0.0987662
-0.104792
0.126402
0.203052
-0.203918
0.123432
0.281546
-0.278575
0.120428
0.312799
-0.309795
0.119263
0.251956
-0.25079
0.120192
0.134015
-0.134944
0.119551
-0.0415492
0.0421904
0.117324
-0.207438
0.209665
0.114521
-0.307546
0.310349
0.113442
-0.333979
0.335058
0.111095
-0.162574
0.164922
0.108113
0.0360409
-0.0330595
0.104425
0.240562
-0.236874
0.102112
0.386285
-0.383973
0.0956624
0.132172
-0.125722
-0.0675883
0.0714885
0.00392626
0.1045
0.0138227
0.120542
0.0228491
0.132515
0.0323005
0.140742
0.0445336
0.142447
0.0612987
0.134239
0.0822906
0.113732
0.104339
0.0829082
0.123475
0.0461048
0.138306
0.00287203
0.149794
-0.0490935
0.158248
-0.103429
0.162752
-0.146971
0.163176
-0.171904
0.160631
-0.179743
0.156147
-0.178341
0.151098
-0.175591
0.14649
-0.172991
0.140655
-0.172191
0.131412
-0.180399
0.120106
-0.196232
0.111109
-0.198508
0.10809
-0.162317
0.111986
-0.0848068
0.121548
0.0126299
0.133084
0.103914
0.144231
0.168518
0.154126
0.1994
0.161408
0.210851
0.164463
0.228128
0.162283
0.259029
0.155105
0.284284
0.145267
0.274001
0.136509
0.207892
0.131398
0.0907974
0.130703
-0.0445745
0.133769
-0.159123
0.138173
-0.226416
0.137427
-0.251665
0.128981
-0.262905
0.118002
-0.265765
0.11149
-0.235305
0.112727
-0.148749
0.119902
-0.0318115
0.126282
0.0923864
0.127632
0.201702
0.125361
0.283817
0.122439
0.315721
0.120842
0.253552
0.121471
0.133386
0.1202
-0.0402789
0.117199
-0.204436
0.113416
-0.303763
0.112382
-0.332946
0.110997
-0.161189
0.108734
0.0383034
0.106773
0.242523
0.104019
0.38904
0.0959416
0.140249
-0.0632157
-0.00594001
0.0901967
0.0087745
0.105828
0.0242498
0.117039
0.0412245
0.123768
0.0604561
0.123216
0.0821888
0.112506
0.10527
0.0906509
0.126742
0.0614361
0.143786
0.0290603
0.156167
-0.00950909
0.165013
-0.0579394
0.170281
-0.108696
0.170936
-0.147627
0.167311
-0.168278
0.161462
-0.173893
0.154705
-0.171584
0.147737
-0.168624
0.141592
-0.166846
0.134852
-0.165451
0.124479
-0.170025
0.111332
-0.183084
0.100873
-0.188049
0.0979324
-0.159377
0.103277
-0.090151
0.114938
0.00096837
0.128856
0.0899967
0.142607
0.154767
0.154986
0.187022
0.16481
0.201026
0.170817
0.222121
0.171744
0.258102
0.16702
0.289007
0.15816
0.282861
0.148649
0.217403
0.141177
0.0982698
0.137094
-0.040492
0.136352
-0.158381
0.138294
-0.228358
0.136892
-0.250263
0.128062
-0.254075
0.11659
-0.254293
0.110427
-0.229142
0.112738
-0.15106
0.120511
-0.0395848
0.1275
0.0853974
0.129534
0.199668
0.127892
0.285459
0.124911
0.318702
0.122766
0.255697
0.123118
0.133034
0.121405
-0.0385657
0.117675
-0.200706
0.112864
-0.298952
0.111761
-0.331842
0.111467
-0.160895
0.109942
0.0398281
0.109588
0.242878
0.106598
0.392029
0.0970476
0.1498
-0.0582677
-4.32085e-05
0.0740277
0.0192391
0.0865453
0.0392217
0.0970566
0.0605301
0.102459
0.0828785
0.100867
0.105692
0.0896924
0.127665
0.0686781
0.146518
0.0425833
0.160831
0.014747
0.171407
-0.0200849
0.178415
-0.064948
0.180656
-0.110937
0.177553
-0.144524
0.170388
-0.161113
0.161729
-0.165234
0.153219
-0.163074
0.144915
-0.160319
0.137354
-0.159285
0.129973
-0.15807
0.119505
-0.159558
0.105419
-0.168998
0.0933134
-0.175943
0.089581
-0.155644
0.0954878
-0.0960579
0.10852
-0.0120636
0.12447
0.0740464
0.140546
0.138692
0.15521
0.172357
0.167561
0.188676
0.176837
0.212844
0.181417
0.253523
0.179597
0.290827
0.171858
0.2906
0.161502
0.227759
0.151719
0.108053
0.144454
-0.0332267
0.139888
-0.153815
0.138939
-0.227409
0.136876
-0.2482
0.128059
-0.245258
0.116069
-0.242304
0.109746
-0.222818
0.112777
-0.154092
0.121281
-0.0480881
0.129112
0.077566
0.132
0.19678
0.130938
0.286521
0.127784
0.321855
0.124984
0.258498
0.125088
0.132931
0.123119
-0.0365972
0.118757
-0.196344
0.112879
-0.293074
0.111581
-0.330545
0.112388
-0.161702
0.111663
0.040553
0.112865
0.241676
0.10983
0.395064
0.0989743
0.160655
-0.0526811
0.0249669
0.0563354
0.0440441
0.067468
0.0649028
0.0761979
0.0869085
0.0804534
0.109041
0.0787347
0.130174
0.0685592
0.148934
0.049918
0.163923
0.0275941
0.175223
0.00344709
0.184063
-0.0289246
0.189217
-0.0701021
0.188434
-0.110154
0.181827
-0.137916
0.171755
-0.151041
0.161001
-0.15448
0.151278
-0.153351
0.1423
-0.15134
0.133919
-0.150905
0.126112
-0.150263
0.116147
-0.149592
0.102036
-0.154888
0.0884207
-0.162327
0.0830846
-0.150308
0.0887073
-0.101681
0.102302
-0.025658
0.11982
0.0565283
0.137741
0.12077
0.154287
0.155811
0.169004
0.173959
0.181607
0.200241
0.190139
0.24499
0.191974
0.288993
0.186197
0.296377
0.175034
0.238923
0.162781
0.120305
0.152473
-0.0229186
0.144234
-0.145577
0.140067
-0.223241
0.137211
-0.245344
0.12878
-0.236827
0.116366
-0.22989
0.109396
-0.215848
0.112743
-0.15744
0.12204
-0.0573843
0.130991
0.0686142
0.135005
0.192767
0.134549
0.286978
0.131092
0.325311
0.127496
0.262094
0.127345
0.133081
0.125295
-0.0345475
0.120425
-0.191474
0.113459
-0.286108
0.111824
-0.328909
0.11373
-0.163608
0.113815
0.0404673
0.116548
0.238943
0.113677
0.397935
0.101704
0.172627
-0.0464203
0.0586354
0.040429
0.0759671
0.0501364
0.0949827
0.0571823
0.114989
0.0604471
0.134647
0.0590768
0.152516
0.0506901
0.16722
0.0352138
0.1783
0.0165142
0.187551
-0.00580367
0.194636
-0.0360097
0.197416
-0.0728821
0.193433
-0.106171
0.183749
-0.128233
0.171525
-0.138817
0.15941
-0.142365
0.148905
-0.142846
0.139635
-0.142071
0.130805
-0.142075
0.1228
-0.142258
0.113872
-0.140664
0.100855
-0.141871
0.0862914
-0.147763
0.0786396
-0.142656
0.0828752
-0.105916
0.0963293
-0.0391121
0.114762
0.0380953
0.133971
0.101562
0.151948
0.137834
0.168644
0.157263
0.184378
0.184507
0.197089
0.232279
0.202878
0.283204
0.199529
0.299726
0.188458
0.249994
0.173885
0.134877
0.160791
-0.00982449
0.149213
-0.133998
0.141591
-0.21562
0.137639
-0.241392
0.129916
-0.229104
0.117348
-0.217322
0.109333
-0.207833
0.112519
-0.160625
0.122636
-0.0675018
0.132977
0.0582737
0.138328
0.187416
0.138553
0.286753
0.134784
0.32908
0.130296
0.266582
0.129869
0.133508
0.127879
-0.0325578
0.122643
-0.186238
0.114597
-0.278061
0.112441
-0.326753
0.115435
-0.166602
0.116316
0.0395864
0.12055
0.234709
0.118074
0.400411
0.105205
0.185497
-0.0394801
0.0910956
0.027262
0.10551
0.0357219
0.121459
0.0412331
0.138275
0.0436315
0.154708
0.0426432
0.169369
0.0360293
0.181075
0.023508
0.190047
0.00754216
0.197854
-0.0136107
0.203236
-0.041392
0.202907
-0.0725523
0.19549
-0.0987543
0.183236
-0.115979
0.169677
-0.125258
0.156981
-0.12967
0.1461
-0.131965
0.136848
-0.132818
0.128011
-0.133237
0.119736
-0.133983
0.11179
-0.132719
0.100865
-0.130946
0.0866439
-0.133542
0.0766005
-0.132613
0.0782564
-0.107572
0.0906785
-0.0515342
0.109299
0.0194753
0.129226
0.0816342
0.148114
0.118946
0.166226
0.13915
0.184634
0.1661
0.201366
0.215547
0.211643
0.272927
0.211729
0.29964
0.201678
0.260045
0.185478
0.151077
0.169324
0.0063292
0.154535
-0.119209
0.143441
-0.204526
0.138
-0.235951
0.131156
-0.22226
0.118847
-0.205012
0.109559
-0.198545
0.112031
-0.163098
0.122886
-0.0783571
0.134879
0.0462809
0.141919
0.180376
0.143045
0.285626
0.138952
0.333173
0.133442
0.272092
0.132647
0.134304
0.130814
-0.0307253
0.125353
-0.180777
0.116261
-0.26897
0.113384
-0.323876
0.117433
-0.170651
0.119096
0.0379237
0.124782
0.229023
0.122947
0.402246
0.109424
0.19902
-0.0318912
0.122445
0.0188376
0.132856
0.0253104
0.145055
0.0290338
0.158193
0.030494
0.171365
0.0294708
0.183382
0.0240126
0.193117
0.0137732
0.201016
-0.000356887
0.207082
-0.0196767
0.209232
-0.0435423
0.20474
-0.0680604
0.194079
-0.0880929
0.180245
-0.102144
0.166315
-0.111328
0.153781
-0.117136
0.142925
-0.121109
0.133731
-0.123624
0.125232
-0.124739
0.116955
-0.125706
0.10954
-0.125304
0.100967
-0.122373
0.088674
-0.121249
0.0771709
-0.12111
0.0754094
-0.105811
0.0856449
-0.0617696
0.103546
0.00157407
0.123483
0.0616978
0.142687
0.0997421
0.161698
0.120139
0.182186
0.145612
0.202433
0.1953
0.216936
0.258423
0.220348
0.296228
0.211693
0.268699
0.195059
0.167711
0.176859
0.02453
0.15967
-0.10202
0.145436
-0.190291
0.138151
-0.228667
0.132194
-0.216303
0.120635
-0.193454
0.110074
-0.187984
0.111259
-0.164283
0.122626
-0.0897236
0.136454
0.0324528
0.145421
0.171409
0.147723
0.283324
0.143558
0.337338
0.136987
0.278664
0.135695
0.135596
0.134053
-0.0290835
0.128485
-0.175209
0.118408
-0.258892
0.114608
-0.320076
0.119651
-0.175694
0.122069
0.0355061
0.12913
0.221962
0.128186
0.403189
0.114286
0.212921
-0.0237239
0.157687
0.0151351
0.163858
0.0191392
0.17183
0.0210619
0.18068
0.0216443
0.189967
0.0201839
0.198648
0.0153314
0.205494
0.00692661
0.210841
-0.00570325
0.213093
-0.0219284
0.210459
-0.0409089
0.201932
-0.0595337
0.189285
-0.0754451
0.175219
-0.0880789
0.16175
-0.0978587
0.149793
-0.105179
0.139315
-0.110632
0.130262
-0.11457
0.122179
-0.116656
0.11425
-0.117777
0.107044
-0.118098
0.100254
-0.115583
0.0908964
-0.111891
0.0797783
-0.109992
0.0748268
-0.100859
0.0817638
-0.0687067
0.0978415
-0.0145037
0.117169
0.0423706
0.13613
0.0807812
0.155203
0.101065
0.176747
0.124069
0.200124
0.171923
0.21939
0.239157
0.227369
0.28825
0.221097
0.274971
0.20405
0.184758
0.183399
0.045182
0.164321
-0.0829426
0.147436
-0.173406
0.138028
-0.219259
0.132788
-0.211063
0.122453
-0.183118
0.110854
-0.176385
0.110216
-0.163645
0.121657
-0.101165
0.13749
0.0166197
0.148817
0.160082
0.152696
0.279446
0.148652
0.341381
0.140939
0.286377
0.138997
0.137538
0.137528
-0.0276151
0.131954
-0.169634
0.120964
-0.247903
0.116069
-0.315181
0.122018
-0.181643
0.125166
0.032358
0.133507
0.213621
0.13369
0.403006
0.119702
0.226909
-0.0150862
0.18574
0.0135222
0.189397
0.0154813
0.194054
0.0164054
0.199218
0.0164806
0.204643
0.014759
0.209415
0.010559
0.212687
0.00365497
0.213765
-0.00678183
0.21147
-0.0196329
0.204802
-0.0342413
0.194247
-0.0489784
0.18159
-0.0627881
0.168547
-0.0750363
0.156172
-0.0854839
0.145017
-0.0940235
0.135092
-0.100707
0.126294
-0.105772
0.118579
-0.108941
0.11129
-0.110489
0.104353
-0.11116
0.0984461
-0.109677
0.0918663
-0.105311
0.0829254
-0.101051
0.0763682
-0.094302
0.0795575
-0.0718959
0.0925547
-0.0275009
0.110385
0.0245403
0.128476
0.0626902
0.147055
0.0824861
0.168949
0.102174
0.19397
0.146902
0.216504
0.216623
0.22878
0.275974
0.225782
0.277969
0.209455
0.201085
0.188455
0.0661818
0.16825
-0.0627377
0.149251
-0.154406
0.137499
-0.207508
0.132689
-0.206252
0.124011
-0.17444
0.111803
-0.164178
0.108966
-0.160807
0.11988
-0.112079
0.137582
-0.00108212
0.151463
0.146201
0.157444
0.273464
0.154202
0.344623
0.145432
0.295147
0.142589
0.140381
0.141206
-0.0262328
0.13566
-0.164088
0.123841
-0.236083
0.117718
-0.309059
0.124454
-0.188379
0.12831
0.0285023
0.13778
0.204151
0.139303
0.401482
0.12556
0.240652
-0.00612914
0.1921
0.0118901
0.194898
0.0126834
0.197967
0.0133364
0.201273
0.0131742
0.204458
0.0115745
0.206695
0.00832218
0.207222
0.00312756
0.205483
-0.00504275
0.200898
-0.0150475
0.193252
-0.0265956
0.183339
-0.0390653
0.172211
-0.0516599
0.160767
-0.0635932
0.149672
-0.0743884
0.139367
-0.0837184
0.130034
-0.0913736
0.121629
-0.0973676
0.114196
-0.101508
0.107538
-0.103831
0.101204
-0.104826
0.0956992
-0.104172
0.0908875
-0.100499
0.0847673
-0.0949306
0.0786492
-0.0881839
0.078952
-0.0721986
0.088731
-0.03728
0.10439
0.00888105
0.120883
0.0461973
0.137992
0.0653771
0.159072
0.0810949
0.185609
0.120364
0.212372
0.18986
0.229275
0.259071
0.229457
0.277787
0.214084
0.216459
0.191831
0.0884347
0.170644
-0.0415512
0.150508
-0.134271
0.136551
-0.19355
0.131758
-0.201459
0.125098
-0.16778
0.112881
-0.15196
0.107599
-0.155526
0.11713
-0.12161
0.136763
-0.0207156
0.153663
0.129302
0.162063
0.265064
0.159888
0.346798
0.150132
0.304903
0.146333
0.14418
0.144976
-0.0248752
0.139517
-0.158629
0.127005
-0.223571
0.119536
-0.30159
0.126894
-0.195737
0.131461
0.0239356
0.141907
0.193705
0.144939
0.39845
0.131755
0.253835
0.00297508
0.181221
0.00974324
0.183451
0.0104533
0.185923
0.0108644
0.188438
0.0106601
0.190575
0.00943684
0.191992
0.00690537
0.192375
0.00274468
0.190545
-0.00321298
0.18653
-0.011032
0.180387
-0.0204533
0.17245
-0.0311284
0.163236
-0.0424454
0.153362
-0.0537197
0.143471
-0.0644964
0.134012
-0.0742597
0.12524
-0.0826016
0.117297
-0.0894249
0.110176
-0.0943874
0.103913
-0.0975683
0.098246
-0.0991587
0.0931153
-0.0990408
0.0890152
-0.096399
0.085031
-0.0909464
0.0806484
-0.0838013
0.0797096
-0.0712598
0.086267
-0.0438374
0.0986426
-0.00349462
0.113207
0.0316327
0.128288
0.050296
0.147065
0.0623185
0.172005
0.0954235
0.199963
0.161903
0.222119
0.236915
0.228722
0.271183
0.216382
0.2288
0.194639
0.110177
0.173225
-0.0201371
0.152209
-0.113254
0.136044
-0.177386
0.130546
-0.195961
0.125882
-0.163116
0.114217
-0.140296
0.106622
-0.147931
0.114067
-0.129055
0.134136
-0.040785
0.154007
0.109431
0.165848
0.253223
0.165983
0.346662
0.15564
0.315246
0.150618
0.149202
0.149027
-0.023284
0.143565
-0.153167
0.130457
-0.210463
0.12162
-0.292753
0.129318
-0.203434
0.134534
0.0187199
0.145732
0.182507
0.150418
0.393764
0.13815
0.266104
0.0120057
0.193172
0.0087816
-0.192211
0.194713
0.00891253
0.196733
0.0088443
0.199202
0.008191
0.201915
0.00672437
0.204619
0.00420143
0.20696
0.000403779
0.208803
-0.00505608
0.209718
-0.0119471
0.209447
-0.0201829
0.207818
-0.0294994
0.204844
-0.0394714
0.200655
-0.0495303
0.195454
-0.0592954
0.189424
-0.0682299
0.182669
-0.0758469
0.175456
-0.0822115
0.167878
-0.0868095
0.16011
-0.0898006
0.152379
-0.0914271
0.144356
-0.0910183
0.13622
-0.0882632
0.128298
-0.0830244
0.11936
-0.074863
0.109779
-0.0616785
0.103252
-0.0373107
0.103239
-0.00348165
0.108782
0.0260895
0.118827
0.0402514
0.131256
0.0498893
0.14444
0.0822398
0.158174
0.148169
0.171763
0.223325
0.182847
0.260099
0.189225
0.222422
0.191642
0.107761
0.190289
-0.0187844
0.18217
-0.105135
0.169586
-0.164801
0.16007
-0.186446
0.150955
-0.154
0.136454
-0.125795
0.124153
-0.13563
0.12198
-0.126882
0.130034
-0.0488388
0.138287
0.101177
0.143129
0.248381
0.144271
0.345521
0.142718
0.316798
0.147303
0.144617
0.152486
-0.0284665
0.150048
-0.15073
0.137439
-0.197853
0.125549
-0.280863
0.126598
-0.204483
0.126588
0.0187303
0.133967
0.175128
0.139589
0.388141
0.130912
0.274782
0.0203933
0.20416
0.0081055
-0.203484
0.205292
0.00778044
0.206896
0.00724069
0.208845
0.00624239
0.210988
0.0045807
0.213176
0.00201385
0.215181
-0.00160105
0.216596
-0.0064716
0.217202
-0.012553
0.216762
-0.0197425
0.215105
-0.0278425
0.212192
-0.0365583
0.208071
-0.0454092
0.202829
-0.0540538
0.196684
-0.0620853
0.189809
-0.0689712
0.182512
-0.0749148
0.175055
-0.0793522
0.16742
-0.0821655
0.15984
-0.083847
0.152245
-0.0834241
0.144328
-0.0803464
0.136691
-0.0753871
0.129336
-0.0675082
0.12186
-0.0542019
0.115877
-0.0313277
0.114429
-0.00203371
0.118978
0.0215401
0.127758
0.0314712
0.139204
0.0384439
0.152178
0.0692653
0.166878
0.133469
0.182328
0.207875
0.195487
0.24694
0.20291
0.214998
0.205775
0.104896
0.204256
-0.0172655
0.195455
-0.0963338
0.181412
-0.150758
0.170569
-0.175602
0.161646
-0.145077
0.1476
-0.111749
0.134298
-0.122328
0.130684
-0.123267
0.139246
-0.0574008
0.149719
0.0907044
0.156813
0.241287
0.159894
0.34244
0.158641
0.318052
0.162743
0.140515
0.167692
-0.0334159
0.164454
-0.147492
0.150006
-0.183405
0.136267
-0.267124
0.137571
-0.205787
0.13772
0.0185812
0.145442
0.167406
0.152568
0.381015
0.144472
0.282878
0.0290992
0.215224
0.0076051
-0.214724
0.216126
0.00687801
0.217405
0.00596186
0.21898
0.0046674
0.220722
0.0028392
0.222433
0.000302124
0.223911
-0.0030786
0.224897
-0.00745735
0.225189
-0.0128447
0.224596
-0.0191502
0.222967
-0.0262133
0.220229