/*--------------------------------*- C++ -*----------------------------------*\
| =========                 |                                                 |
| \\      /  F ield         | OpenFOAM: The Open Source CFD Toolbox           |
|  \\    /   O peration     | Version:  2312                                  |
|   \\  /    A nd           | Website:  www.openfoam.com                      |
|    \\/     M anipulation  |                                                 |
\*---------------------------------------------------------------------------*/
FoamFile
{
    version     2.0;
    format      ascii;
    arch        "LSB;label=32;scalar=64";
    class       volVectorField;
    location    "43.5";
    object      U;
}
// * * * * * * * * * * * * * * * * * * * * * * * * * * * * * * * * * * * * * //

dimensions      [0 1 -1 0 0 0 0];

internalField   nonuniform List<vector> 
5478
(
(-0.0295156 0.0275888 -8.97336e-20)
(-0.040314 0.0425827 0)
(-0.0163243 0.0386418 1.38729e-19)
(0.0438285 0.0273384 -2.44732e-19)
(0.146173 0.0150694 1.62277e-19)
(0.290947 0.00602812 -4.80802e-20)
(0.465737 0.00273123 -8.41672e-20)
(0.648804 0.00542378 0)
(0.819638 0.0125065 0)
(0.961376 0.0233778 9.85147e-20)
(1.06554 0.0325223 -4.84343e-20)
(1.13617 0.046976 -7.13755e-20)
(1.16412 0.0509969 -2.63899e-20)
(1.17684 0.0666021 0)
(1.16495 0.0638809 6.03526e-20)
(-0.0293551 0.0221135 1.79955e-19)
(-0.0287788 0.0323368 0)
(0.0249859 0.028244 0)
(0.136487 0.0211029 -1.22368e-19)
(0.306901 0.0197074 1.61916e-19)
(0.516596 0.0275291 4.73895e-20)
(0.73142 0.0426674 -8.00622e-20)
(0.920217 0.0600731 7.09868e-20)
(1.06418 0.0760706 1.70098e-19)
(1.15548 0.0863734 -1.47661e-19)
(1.20156 0.0925101 2.26041e-21)
(1.20777 0.0936058 0)
(1.1925 0.0907118 2.63405e-20)
(1.16779 0.0928152 0)
(1.13561 0.0841058 0)
(-0.0271951 0.015813 -3.8776e-22)
(-0.00346641 0.0182086 -8.24037e-20)
(0.100285 0.0154018 2.2961e-22)
(0.287107 0.0209045 0)
(0.530531 0.0411583 -5.33153e-20)
(0.776788 0.0706709 4.56907e-20)
(0.980585 0.099634 3.87312e-20)
(1.12063 0.120846 0)
(1.19532 0.130969 -5.68932e-20)
(1.21958 0.131693 4.70182e-20)
(1.20993 0.126349 3.84503e-20)
(1.18761 0.118947 0)
(1.16385 0.112393 0)
(1.14752 0.111106 -7.50016e-20)
(1.13151 0.103779 6.7009e-20)
(-0.0208345 0.00957428 -9.51731e-20)
(0.0453677 0.00481162 8.16454e-20)
(0.22724 0.0121695 -7.09345e-20)
(0.499464 0.0435214 6.2103e-20)
(0.781409 0.0886935 1.06177e-19)
(1.00447 0.130054 -9.02778e-20)
(1.14405 0.156866 -3.87016e-20)
(1.20801 0.166986 3.0309e-20)
(1.22165 0.164889 -2.88882e-20)
(1.20994 0.156692 0)
(1.19355 0.148247 0)
(1.17942 0.141206 -5.49046e-20)
(1.17072 0.137672 7.08065e-20)
(1.16007 0.13476 -3.97219e-20)
(1.15535 0.130336 0)
(-0.0061701 0.00342021 4.79864e-20)
(0.12945 -0.00245171 4.08359e-20)
(0.410922 0.0320883 -1.45742e-19)
(0.736474 0.0941951 1.26513e-21)
(0.992897 0.150902 -1.55068e-21)
(1.14463 0.185746 -7.69053e-22)
(1.20932 0.198388 3.58868e-20)
(1.22293 0.196671 3.09421e-20)
(1.21534 0.188995 2.22594e-20)
(1.20398 0.180781 -3.41052e-21)
(1.19199 0.173455 -5.09025e-20)
(1.1801 0.166694 0)
(1.16465 0.160616 2.2664e-20)
(1.15157 0.153419 -1.67811e-20)
(1.13574 0.147144 3.04379e-20)
(0.0219449 -0.00210635 -1.01159e-19)
(0.25674 0.00551866 1.10031e-19)
(0.624753 0.0808428 -3.78859e-20)
(0.939406 0.160152 2.9617e-20)
(1.12599 0.209331 -5.39792e-20)
(1.20621 0.228714 -4.14235e-20)
(1.22667 0.229962 7.68306e-22)
(1.22232 0.223475 0)
(1.21043 0.214708 4.51477e-20)
(1.19536 0.205213 -4.01485e-20)
(1.17962 0.195568 1.61316e-20)
(1.16367 0.186111 0)
(1.15153 0.178227 9.94214e-21)
(1.14125 0.170023 -1.7317e-20)
(1.1339 0.166026 0)
(0.0685818 -0.00377804 -1.25919e-20)
(0.420566 0.0400872 8.57763e-22)
(0.820403 0.149611 1.85966e-20)
(1.07777 0.22645 3.15971e-20)
(1.19451 0.259877 -2.46835e-20)
(1.22863 0.266386 4.17784e-20)
(1.22643 0.260653 -9.49055e-21)
(1.21197 0.250373 0)
(1.19459 0.238619 -2.64904e-20)
(1.17868 0.226981 1.66288e-21)
(1.16499 0.216214 2.22353e-20)
(1.15436 0.20672 0)
(1.14428 0.198175 -1.45137e-20)
(1.13516 0.189107 0)
(1.12612 0.184662 8.95281e-21)
(0.135455 0.00462417 -1.36756e-20)
(0.59195 0.103657 0)
(0.968895 0.226438 1.937e-20)
(1.15922 0.289508 0)
(1.22279 0.306933 0)
(1.22725 0.302523 0)
(1.21201 0.290416 -8.19958e-21)
(1.19367 0.276484 0)
(1.17747 0.262804 5.33012e-21)
(1.1632 0.249841 0)
(1.15028 0.237544 -6.96917e-21)
(1.13768 0.22571 0)
(1.12682 0.214458 4.56653e-21)
(1.11806 0.204103 0)
(1.10959 0.197851 2.98522e-21)
(-0.000173814 -0.0540108 -9.64627e-21)
(-0.00821337 -0.128374 0)
(-0.0283945 -0.169168 1.51334e-20)
(-0.0522609 -0.18933 0)
(-0.0759401 -0.203154 0)
(-0.0977681 -0.218087 0)
(-0.117132 -0.235472 -9.45467e-21)
(-0.13377 -0.254158 0)
(-0.147435 -0.272458 7.6055e-21)
(-0.157859 -0.28848 0)
(-0.164868 -0.300165 -1.23448e-20)
(-0.168249 -0.305414 0)
(-0.167466 -0.301968 1.0106e-20)
(-0.162059 -0.287011 0)
(-0.15284 -0.257943 8.34228e-21)
(0.00106966 -0.0419372 4.82642e-20)
(-0.00770009 -0.102955 -3.44237e-20)
(-0.0319235 -0.137624 1.53961e-20)
(-0.0598096 -0.156025 5.39001e-20)
(-0.0869817 -0.170483 1.52863e-22)
(-0.111976 -0.187154 -4.24146e-20)
(-0.134383 -0.206817 2.82875e-20)
(-0.154116 -0.228256 0)
(-0.171054 -0.249874 2.27326e-20)
(-0.185095 -0.269852 1.31975e-22)
(-0.196484 -0.286126 -1.17989e-20)
(-0.205375 -0.296681 0)
(-0.210849 -0.299228 -2.84907e-20)
(-0.213772 -0.290253 0)
(-0.213234 -0.269404 -3.91846e-20)
(-0.000213021 -0.0256916 7.78842e-20)
(-0.0103183 -0.0716428 1.76818e-20)
(-0.0363172 -0.101119 -3.0464e-20)
(-0.0651567 -0.118773 -8.14193e-20)
(-0.0923316 -0.134231 4.80639e-20)
(-0.116433 -0.152549 4.30357e-20)
(-0.137003 -0.174262 -7.67032e-20)
(-0.15388 -0.198209 0)
(-0.166857 -0.222825 -6.00814e-20)
(-0.175752 -0.246239 5.34236e-20)
(-0.181255 -0.266235 2.31013e-20)
(-0.184414 -0.280797 0)
(-0.182353 -0.288325 1.83784e-20)
(-0.183424 -0.282293 -2.81878e-20)
(-0.167745 -0.269739 0)
(-0.00425243 -0.00806596 3.98663e-20)
(-0.0162821 -0.0386036 -1.0565e-19)
(-0.0417953 -0.0634277 1.2467e-19)
(-0.0686358 -0.0807694 -1.11019e-19)
(-0.092495 -0.0972322 -4.97718e-20)
(-0.111821 -0.116926 4.43402e-20)
(-0.125815 -0.140395 3.8564e-20)
(-0.133976 -0.166624 3.49406e-20)
(-0.135926 -0.194013 -9.09592e-20)
(-0.13123 -0.22048 1.35439e-21)
(-0.120712 -0.243505 2.34037e-20)
(-0.110201 -0.260793 0)
(-0.0825621 -0.272246 3.11277e-20)
(-0.0822023 -0.266429 7.78669e-20)
(-0.0270751 -0.256867 -4.4441e-20)
(-0.0105308 0.00822193 4.23648e-22)
(-0.0249544 -0.00742527 7.28788e-20)
(-0.0477029 -0.0275547 -6.45187e-20)
(-0.0693424 -0.0444601 5.59316e-20)
(-0.085816 -0.0616998 1.00858e-19)
(-0.095118 -0.0823799 -8.98962e-20)
(-0.0956872 -0.107017 -4.05374e-20)
(-0.0862993 -0.134691 -1.05219e-19)
(-0.0667368 -0.163591 9.31131e-20)
(-0.0374776 -0.191325 0)
(0.0038585 -0.214115 0)
(0.0322708 -0.23335 7.17711e-20)
(0.106127 -0.237202 -1.52461e-19)
(0.105141 -0.242699 5.11795e-20)
(0.213072 -0.216496 0)
(-0.0175491 0.0209212 -3.0075e-22)
(-0.0340144 0.0186471 -7.3469e-20)
(-0.0512101 0.00349956 1.95308e-19)
(-0.0633032 -0.012467 -5.78285e-20)
(-0.0661748 -0.0297968 -5.11164e-20)
(-0.0565346 -0.0504472 4.5582e-20)
(-0.0318592 -0.0746891 4.05557e-20)
(0.00956518 -0.101311 7.20814e-20)
(0.0669655 -0.12785 -1.27763e-19)
(0.134635 -0.153626 5.44507e-20)
(0.220225 -0.16732 4.52908e-20)
(0.277911 -0.186106 0)
(0.401032 -0.170074 0)
(0.399413 -0.182512 8.2468e-20)
(0.570795 -0.133365 -7.3665e-20)
(-0.0237448 0.0284277 1.01627e-21)
(-0.040982 0.0365933 0)
(-0.0489863 0.0264358 0)
(-0.0452758 0.0119456 1.19648e-19)
(-0.0254736 -0.00490342 -5.2146e-20)
(0.0151842 -0.0246771 4.758e-20)
(0.0796295 -0.04676 8.37537e-20)
(0.167327 -0.0688582 -7.42684e-20)
(0.273173 -0.0882066 6.38093e-20)
(0.388559 -0.10473 -5.44934e-20)
(0.511801 -0.106895 -7.96196e-22)
(0.602084 -0.113762 0)
(0.739618 -0.0892154 2.83288e-20)
(0.758326 -0.090633 0)
(0.916512 -0.0377009 0)
(-0.0278287 0.0303265 -8.61124e-20)
(-0.0436928 0.0446356 0)
(-0.0385604 0.0386974 -1.37171e-19)
(-0.0117578 0.0257802 2.42545e-19)
(0.041705 0.00984689 -2.69055e-19)
(0.126959 -0.0073207 -4.77847e-20)
(0.244148 -0.0235091 8.47211e-20)
(0.385231 -0.0359335 0)
(0.535889 -0.043888 0)
(0.685854 -0.043901 -1.02911e-19)
(0.81361 -0.0402187 -3.68741e-20)
(0.925981 -0.028626 7.47406e-20)
(1.01127 -0.011383 -2.83717e-20)
(1.05421 0.000165621 0)
(1.12864 0.0387959 -6.36718e-20)
(-0.149785 -0.208027 0)
(-0.116604 -0.116951 6.89263e-21)
(-0.0869398 -0.00415587 -6.57499e-21)
(-0.0425955 0.144222 0)
(0.00871761 0.306284 -1.72567e-22)
(0.0653328 0.467843 0)
(0.112956 0.604839 2.69472e-22)
(0.133529 0.709633 0)
(0.116962 0.790142 -1.9862e-22)
(0.0860451 0.842002 3.05139e-21)
(0.115335 0.780869 -2.91181e-21)
(0.242077 0.562772 -2.22917e-22)
(0.370358 0.223391 0)
(0.489285 -0.180068 4.8977e-22)
(0.60376 -0.509069 4.02849e-22)
(0.615153 -0.701103 0)
(0.605918 -0.723477 0)
(0.621348 -0.671709 0)
(0.490458 -0.69791 -1.24335e-22)
(0.390552 -0.58881 0)
(0.453317 -0.234273 0)
(0.583576 0.127654 -2.15419e-22)
(0.690074 0.335495 4.15719e-22)
(0.726448 0.419682 1.23772e-22)
(0.757474 0.404322 0)
(0.767571 0.365716 0)
(0.709895 0.332873 0)
(0.672942 0.265379 0)
(0.718555 0.126107 -1.03921e-22)
(0.793333 -0.00403663 -9.23825e-23)
(0.850241 -0.10017 7.52913e-23)
(0.877265 -0.141591 3.21523e-23)
(0.885086 -0.163583 -1.72133e-23)
(0.887955 -0.156535 0)
(0.889111 -0.149485 -3.58422e-24)
(0.901293 -0.126123 3.43354e-24)
(0.906153 -0.114765 -3.99135e-25)
(0.932817 -0.0870561 3.8147e-25)
(-0.236259 -0.225788 -6.28379e-22)
(-0.218663 -0.147069 2.19431e-20)
(-0.212779 -0.0438156 0)
(-0.185241 0.0948999 2.82046e-22)
(-0.15204 0.251152 -9.35057e-23)
(-0.106019 0.416214 0)
(-0.0594287 0.569973 -2.71525e-22)
(-0.0225993 0.698499 1.32116e-20)
(0.00750514 0.790757 -1.27844e-20)
(0.0511718 0.819446 3.71664e-22)
(0.187471 0.710275 0)
(0.355792 0.491388 2.24445e-22)
(0.504256 0.170282 0)
(0.612195 -0.231867 -1.00793e-21)
(0.696733 -0.547831 -4.05404e-22)
(0.715645 -0.709924 -5.97134e-22)
(0.660822 -0.72791 5.62232e-21)
(0.66706 -0.641895 -5.36765e-21)
(0.550018 -0.638246 -3.6084e-21)
(0.411928 -0.578939 3.76583e-21)
(0.440879 -0.278538 1.97544e-22)
(0.554663 0.072431 -1.68911e-21)
(0.647631 0.30045 1.69754e-21)
(0.692174 0.401966 9.47089e-22)
(0.740852 0.397015 -1.46683e-21)
(0.741389 0.376538 6.27654e-22)
(0.681114 0.348261 1.27133e-22)
(0.667037 0.262967 0)
(0.734721 0.108579 3.32431e-22)
(0.816007 -0.0216979 9.26473e-23)
(0.870883 -0.110609 -7.54799e-23)
(0.893373 -0.145736 -2.74993e-22)
(0.897159 -0.164666 2.20986e-22)
(0.897225 -0.157032 -9.55313e-24)
(0.896357 -0.150855 -8.32184e-24)
(0.907962 -0.127859 -4.34468e-23)
(0.911256 -0.117496 -2.30456e-23)
(0.936294 -0.0894718 1.59099e-24)
(-0.204831 -0.234044 3.55262e-20)
(-0.21212 -0.168365 -3.41773e-20)
(-0.229621 -0.0749448 0)
(-0.224398 0.0478183 3.07868e-20)
(-0.210143 0.19454 -2.89907e-20)
(-0.175295 0.354786 3.47651e-22)
(-0.128131 0.510969 0)
(-0.0719115 0.64175 4.04791e-22)
(-0.00295006 0.732261 0)
(0.101545 0.730225 -7.31058e-22)
(0.298594 0.596649 -2.89789e-20)
(0.479055 0.405764 2.76405e-20)
(0.633965 0.131579 3.59118e-20)
(0.747791 -0.244449 -6.52614e-20)
(0.808228 -0.556239 2.91822e-20)
(0.827706 -0.696504 6.05402e-22)
(0.737717 -0.717256 0)
(0.708493 -0.628327 -4.10559e-21)
(0.618034 -0.585403 3.29675e-21)
(0.446036 -0.558503 -2.0323e-22)
(0.437276 -0.321 1.06127e-22)
(0.530321 0.0231687 2.42596e-21)
(0.607226 0.26838 -2.3661e-21)
(0.668687 0.381633 -1.59919e-21)
(0.730992 0.388144 1.6688e-21)
(0.718286 0.386589 0)
(0.658891 0.359369 -1.28216e-22)
(0.668969 0.255321 -2.64165e-22)
(0.75571 0.0893499 6.81149e-22)
(0.84096 -0.0383165 -4.93955e-22)
(0.892181 -0.119314 -6.47784e-22)
(0.909573 -0.148453 1.84016e-22)
(0.909316 -0.164834 2.6185e-22)
(0.906635 -0.156968 -8.24921e-23)
(0.903564 -0.151946 -6.7515e-23)
(0.914002 -0.129443 8.95129e-23)
(0.916234 -0.120009 -2.04861e-23)
(0.939718 -0.0917498 3.3233e-24)
(-0.0679917 -0.228173 1.95366e-22)
(-0.0956964 -0.171725 2.40321e-20)
(-0.127434 -0.0904682 -4.48228e-20)
(-0.144775 0.0118963 2.04703e-20)
(-0.151821 0.140218 2.34805e-22)
(-0.134246 0.286131 -3.56884e-22)
(-0.0940719 0.430328 0)
(-0.0278973 0.558797 0)
(0.0602176 0.651111 0)
(0.200987 0.631458 -2.40874e-20)
(0.414786 0.493531 2.25333e-20)
(0.587075 0.336987 9.00269e-22)
(0.729684 0.112381 -2.09921e-21)
(0.868458 -0.235914 1.06358e-21)
(0.922359 -0.550472 1.73371e-21)
(0.924682 -0.675627 0)
(0.829113 -0.685635 1.06576e-20)
(0.749009 -0.606158 -9.90067e-21)
(0.68947 -0.53142 3.82096e-22)
(0.503695 -0.517739 0)
(0.431851 -0.35271 -3.11668e-22)
(0.500478 -0.0291913 0)
(0.575166 0.226677 -2.52539e-22)
(0.653444 0.351852 1.45483e-22)
(0.713801 0.381874 -1.69518e-22)
(0.687627 0.402817 0)
(0.639308 0.369957 0)
(0.677027 0.244808 1.36904e-21)
(0.780777 0.0697301 -1.76365e-21)
(0.867936 -0.0535884 1.42119e-22)
(0.91413 -0.126358 7.58107e-22)
(0.925768 -0.149904 4.31028e-22)
(0.921253 -0.164223 -7.37971e-22)
(0.91592 -0.156411 1.63134e-22)
(0.910825 -0.152702 9.58818e-23)
(0.919747 -0.130817 0)
(0.920986 -0.122313 2.22333e-23)
(0.943009 -0.0938979 0)
(0.155374 -0.206094 -2.02885e-22)
(0.103024 -0.166293 0)
(0.0535611 -0.0977564 2.96904e-22)
(0.0217281 -0.0082011 -2.65385e-22)
(0.00490899 0.0994826 -3.85145e-22)
(0.00502008 0.223955 1.34968e-22)
(0.0343919 0.346999 1.23787e-20)
(0.0994649 0.465484 -2.68522e-20)
(0.1866 0.552356 1.39888e-20)
(0.337532 0.520561 0)
(0.54707 0.388784 1.54026e-21)
(0.697889 0.262764 -9.3025e-22)
(0.812311 0.0702703 -3.27546e-20)
(0.964159 -0.238226 3.32054e-20)
(1.02692 -0.529904 -8.82051e-22)
(0.994462 -0.646068 1.59283e-20)
(0.912706 -0.647568 -6.03629e-21)
(0.785446 -0.587182 -1.66134e-20)
(0.744468 -0.493422 6.31342e-21)
(0.583367 -0.469275 -3.62271e-21)
(0.451646 -0.366812 6.35324e-24)
(0.472794 -0.0815269 1.76858e-23)
(0.547687 0.184805 2.79377e-21)
(0.641953 0.328032 -6.49332e-22)
(0.701986 0.378754 0)
(0.66742 0.412837 0)
(0.629948 0.372392 0)
(0.692317 0.229764 0)
(0.809748 0.0495975 -1.3227e-21)
(0.896426 -0.0673624 1.00033e-21)
(0.936298 -0.131593 9.74513e-22)
(0.941753 -0.149981 -5.90601e-22)
(0.932873 -0.162768 4.86625e-22)
(0.924876 -0.155359 -2.91753e-22)
(0.917964 -0.153119 -8.08987e-23)
(0.925323 -0.131961 -2.98721e-23)
(0.925628 -0.1244 -1.72836e-23)
(0.946186 -0.0959126 0)
(0.481727 -0.136982 0)
(0.392557 -0.123063 2.78513e-20)
(0.30719 -0.0875552 -2.64489e-20)
(0.238606 -0.0316893 -1.64247e-20)
(0.199993 0.051445 1.57927e-20)
(0.18742 0.158827 -6.09512e-23)
(0.209349 0.265845 1.52616e-22)
(0.269231 0.375638 0)
(0.343335 0.471018 -3.26376e-20)
(0.481981 0.446172 3.12978e-20)
(0.667601 0.331726 -7.7098e-22)
(0.784564 0.247163 5.90616e-20)
(0.888029 0.0825908 -1.21441e-19)
(1.05234 -0.208699 1.77094e-22)
(1.13608 -0.47948 5.7219e-20)
(1.06849 -0.599219 6.2148e-22)
(0.99191 -0.598203 4.14107e-22)
(0.836405 -0.556908 0)
(0.782932 -0.465349 0)
(0.664851 -0.41914 4.06653e-23)
(0.504525 -0.362516 5.49834e-23)
(0.481365 -0.129816 -7.40456e-23)
(0.544309 0.128883 8.44572e-23)
(0.645107 0.286659 1.84362e-22)
(0.692434 0.370841 -2.53404e-21)
(0.641827 0.42968 2.4105e-21)
(0.621259 0.378867 3.34526e-22)
(0.711815 0.215794 0)
(0.841645 0.0316053 -3.0618e-22)
(0.925843 -0.0787967 0)
(0.958296 -0.134834 -9.99641e-22)
(0.957352 -0.148711 7.39318e-22)
(0.944223 -0.160523 0)
(0.933565 -0.153863 8.88735e-23)
(0.924941 -0.153246 -1.88702e-22)
(0.930724 -0.132917 6.23713e-23)
(0.930218 -0.1263 0)
(0.949319 -0.0977993 -6.62952e-24)
(0.847627 -0.0377134 -9.55521e-23)
(0.761933 -0.0285876 0)
(0.655234 -0.00906963 -1.68461e-20)
(0.544088 0.0168003 1.60461e-20)
(0.454782 0.0619232 8.32828e-21)
(0.389662 0.132205 -8.0109e-21)
(0.382105 0.202051 0)
(0.419194 0.286005 -1.81846e-20)
(0.479109 0.381043 1.72991e-20)
(0.616392 0.360686 0)
(0.770097 0.256572 3.19404e-22)
(0.855295 0.191382 1.24416e-21)
(0.977154 0.0403963 -4.38006e-22)
(1.14032 -0.224148 -5.96339e-20)
(1.22342 -0.448954 5.62477e-20)
(1.13809 -0.554918 3.30102e-20)
(1.05087 -0.553326 -3.13665e-20)
(0.902451 -0.52321 -1.26488e-20)
(0.808534 -0.450571 1.20201e-20)
(0.740244 -0.377923 2.49705e-22)
(0.568436 -0.34659 1.20905e-21)
(0.519963 -0.17033 -1.85402e-21)
(0.575288 0.0802325 7.62014e-22)
(0.653041 0.260413 -1.88047e-21)
(0.673905 0.371811 -4.38673e-22)
(0.625058 0.435448 2.34562e-21)
(0.625883 0.3699 2.55341e-21)
(0.738744 0.195002 -2.9294e-21)
(0.876612 0.0127094 3.1327e-22)
(0.955529 -0.0885462 -2.55726e-22)
(0.979662 -0.136401 -8.47616e-22)
(0.97232 -0.146404 -1.11169e-22)
(0.955226 -0.157726 3.49382e-22)
(0.942039 -0.152078 6.51899e-23)
(0.931814 -0.153171 0)
(0.935985 -0.133744 -1.49491e-23)
(0.934757 -0.128058 4.53452e-23)
(0.952441 -0.0995757 -8.14984e-24)
(1.08639 0.0274736 5.99354e-20)
(1.03669 0.0316345 0)
(0.973124 0.0436785 2.75447e-20)
(0.887892 0.061866 -4.4057e-20)
(0.808357 0.0822402 1.68888e-20)
(0.715171 0.12504 0)
(0.658601 0.169901 0)
(0.638863 0.221218 0)
(0.633509 0.310505 0)
(0.732407 0.329045 0)
(0.848311 0.26377 -3.40967e-22)
(0.915278 0.208762 -5.36117e-20)
(1.07169 0.0744809 5.0981e-20)
(1.23126 -0.166389 4.82252e-22)
(1.29302 -0.375606 0)
(1.2059 -0.491256 0)
(1.09485 -0.510043 4.16614e-22)
(0.976145 -0.486129 0)
(0.835539 -0.441693 -7.36585e-21)
(0.797556 -0.35682 6.90384e-21)
(0.646048 -0.322499 -5.87723e-22)
(0.556427 -0.20817 3.46963e-22)
(0.613486 0.0132973 1.95396e-22)
(0.674467 0.217857 0)
(0.676172 0.361517 -2.53792e-21)
(0.612061 0.448292 5.14128e-21)
(0.62191 0.37728 -2.71469e-21)
(0.766551 0.185146 1.8612e-22)
(0.91359 -0.00101321 0)
(0.985154 -0.0957744 2.61927e-22)
(1.00009 -0.136571 1.92208e-22)
(0.986539 -0.143231 6.18246e-22)
(0.965814 -0.154212 -3.58479e-22)
(0.950298 -0.149719 -6.58783e-23)
(0.938604 -0.152573 0)
(0.941164 -0.134198 2.57275e-23)
(0.939269 -0.129509 0)
(0.955563 -0.101183 6.87642e-24)
(1.12525 0.0661619 0)
(1.1101 0.0777509 0)
(1.0827 0.0951763 0)
(1.04233 0.1204 0)
(1.013 0.143769 0)
(0.96218 0.172953 0)
(0.927223 0.192434 0)
(0.904124 0.208005 0)
(0.883905 0.243835 0)
(0.958061 0.237253 0)
(1.03949 0.183042 0)
(1.10024 0.122689 0)
(1.24112 0.00457653 0)
(1.32787 -0.17372 0)
(1.33098 -0.313117 0)
(1.24929 -0.393268 0)
(1.12257 -0.42375 0)
(1.03628 -0.406468 0)
(0.881609 -0.389255 0)
(0.830428 -0.321054 0)
(0.734696 -0.27697 0)
(0.591566 -0.214058 0)
(0.639864 -0.0261845 0)
(0.706516 0.193334 0)
(0.676536 0.363032 0)
(0.597231 0.449287 0)
(0.64876 0.352763 0)
(0.820091 0.152662 0)
(0.956778 -0.018626 0)
(1.01386 -0.0980544 0)
(1.01917 -0.131231 0)
(1.00002 -0.136036 0)
(0.975984 -0.148042 0)
(0.958283 -0.145623 0)
(0.945173 -0.150726 0)
(0.94615 -0.133867 0)
(0.943655 -0.130372 0)
(0.958552 -0.102532 0)
(1.11763 0.0852982 0)
(1.11366 0.0909487 0)
(1.10098 0.104115 0)
(1.08561 0.126571 0)
(1.08401 0.148934 0)
(1.0773 0.181003 0)
(1.08428 0.202344 0)
(1.09587 0.218876 0)
(1.10671 0.236554 0)
(1.16402 0.214764 0)
(1.22813 0.16081 0)
(1.2788 0.0845521 0)
(1.36209 -0.0305902 0)
(1.39144 -0.18006 0)
(1.34051 -0.30741 0)
(1.24604 -0.373439 0)
(1.10069 -0.40335 0)
(1.01062 -0.380517 0)
(0.893653 -0.352363 0)
(0.807036 -0.297423 0)
(0.768338 -0.236139 0)
(0.635405 -0.182077 0)
(0.629591 -0.0300131 0)
(0.696739 0.190596 0)
(0.653039 0.377581 0)
(0.583917 0.450075 0)
(0.695443 0.317635 0)
(0.884364 0.108479 0)
(1.00667 -0.0467188 0)
(1.04526 -0.10788 0)
(1.03732 -0.13076 0)
(1.01145 -0.132041 0)
(0.984536 -0.144117 0)
(0.965388 -0.142821 0)
(0.951411 -0.149595 0)
(0.951187 -0.133734 0)
(0.948126 -0.131334 0)
(0.961662 -0.103797 0)
(1.11786 0.102359 0)
(1.11659 0.103237 0)
(1.10837 0.110899 0)
(1.10231 0.127287 0)
(1.10629 0.144084 0)
(1.11677 0.170062 0)
(1.14086 0.187851 0)
(1.16994 0.199571 0)
(1.20742 0.206536 0)
(1.25932 0.180245 0)
(1.31256 0.126068 0)
(1.35267 0.0491656 0)
(1.38986 -0.0524193 0)
(1.38357 -0.167639 0)
(1.31151 -0.258128 0)
(1.22855 -0.294585 0)
(1.11953 -0.319872 0)
(1.03898 -0.313891 0)
(0.958003 -0.293743 0)
(0.843682 -0.262027 0)
(0.816062 -0.20417 0)
(0.710075 -0.154473 0)
(0.618375 -0.0390832 0)
(0.631203 0.196414 0)
(0.583875 0.399872 0)
(0.583701 0.436768 0)
(0.771854 0.26457 0)
(0.963505 0.063295 0)
(1.05908 -0.0652619 0)
(1.07479 -0.108437 0)
(1.0541 -0.123928 0)
(1.02282 -0.124297 0)
(0.993683 -0.137956 0)
(0.97311 -0.138786 0)
(0.958126 -0.147779 0)
(0.95655 -0.133328 0)
(0.95289 -0.132161 0)
(0.965018 -0.105058 0)
(1.11811 0.111727 0)
(1.12127 0.110691 0)
(1.11836 0.114474 0)
(1.11715 0.124952 0)
(1.12172 0.13564 0)
(1.13355 0.151468 0)
(1.1566 0.161538 0)
(1.18581 0.165974 0)
(1.22506 0.163701 0)
(1.2686 0.137741 0)
(1.31315 0.0928774 0)
(1.34401 0.0288207 0)
(1.3553 -0.0524476 0)
(1.34088 -0.134051 0)
(1.27751 -0.210636 0)
(1.20436 -0.255554 0)
(1.11785 -0.290512 0)
(1.02231 -0.294755 0)
(0.957347 -0.261445 0)
(0.851871 -0.234882 0)
(0.817254 -0.186798 0)
(0.777108 -0.109526 0)
(0.648466 0.000534141 0)
(0.562524 0.215063 0)
(0.531987 0.399806 0)
(0.646936 0.386658 0)
(0.886904 0.195707 0)
(1.0518 0.0191406 0)
(1.10899 -0.0795458 0)
(1.10015 -0.10631 0)
(1.06819 -0.116166 0)
(1.03294 -0.11628 0)
(1.00245 -0.131658 0)
(0.980881 -0.134536 0)
(0.965116 -0.145728 0)
(0.962241 -0.132727 0)
(0.958005 -0.13285 0)
(0.968658 -0.106285 0)
(1.11812 0.115017 0)
(1.12531 0.113852 0)
(1.12688 0.114843 0)
(1.12849 0.120138 0)
(1.13343 0.125349 0)
(1.14391 0.132675 0)
(1.16256 0.136826 0)
(1.18584 0.135639 0)
(1.21723 0.128103 0)
(1.25161 0.106348 0)
(1.28357 0.0693984 0)
(1.30597 0.0175079 0)
(1.30853 -0.0461739 0)
(1.29221 -0.110925 0)
(1.24587 -0.176522 0)
(1.18475 -0.212459 0)
(1.12149 -0.23023 0)
(1.03814 -0.23641 0)
(0.98252 -0.208039 0)
(0.905376 -0.183874 0)
(0.835529 -0.164632 0)
(0.815329 -0.0826775 0)
(0.729074 0.0511892 0)
(0.605156 0.240454 0)
(0.613299 0.367293 0)
(0.807195 0.306457 0)
(1.02862 0.125156 0)
(1.13472 -0.0128408 0)
(1.14784 -0.082201 0)
(1.11806 -0.0967441 0)
(1.07901 -0.104389 0)
(1.04213 -0.106084 0)
(1.01123 -0.124033 0)
(0.988955 -0.129433 0)
(0.972499 -0.143135 0)
(0.968304 -0.131825 0)
(0.96349 -0.133376 0)
(0.972605 -0.10747 0)
(1.11844 0.115191 0)
(1.12704 0.113124 0)
(1.13128 0.111868 0)
(1.13473 0.113118 0)
(1.14032 0.114354 0)
(1.14954 0.116495 0)
(1.16405 0.115969 0)
(1.18233 0.111685 0)
(1.20556 0.101909 0)
(1.2301 0.0822705 0)
(1.25177 0.0512574 0)
(1.26694 0.0103369 0)
(1.26662 -0.0397701 0)
(1.25242 -0.0899537 0)
(1.2191 -0.138963 0)
(1.16736 -0.170263 0)
(1.11392 -0.190878 0)
(1.04455 -0.203406 0)
(0.985112 -0.183756 0)
(0.936556 -0.152765 0)
(0.871403 -0.139179 0)
(0.834184 -0.0646395 0)
(0.799244 0.0866789 0)
(0.742425 0.257867 0)
(0.814623 0.319011 0)
(1.00638 0.22693 0)
(1.15116 0.0740372 0)
(1.19014 -0.0259525 0)
(1.1689 -0.0747125 0)
(1.12768 -0.0835508 0)
(1.08666 -0.0917762 0)
(1.0502 -0.0956253 0)
(1.01977 -0.116074 0)
(0.997185 -0.12389 0)
(0.980246 -0.140106 0)
(0.974771 -0.130592 0)
(0.9694 -0.133671 0)
(0.976908 -0.108566 0)
(1.11772 0.111484 0)
(1.12683 0.108624 0)
(1.13272 0.105989 0)
(1.13747 0.104738 0)
(1.14316 0.103298 0)
(1.15112 0.101994 0)
(1.16242 0.0984783 0)
(1.17625 0.0923238 0)
(1.19263 0.0811276 0)
(1.20953 0.0635756 0)
(1.22416 0.0382167 0)
(1.23356 0.00612152 0)
(1.23192 -0.0327073 0)
(1.21951 -0.0710699 0)
(1.19289 -0.109866 0)
(1.15169 -0.137933 0)
(1.10859 -0.154043 0)
(1.05645 -0.16032 0)
(1.00129 -0.146389 0)
(0.962232 -0.117369 0)
(0.913889 -0.103895 0)
(0.862957 -0.0460217 0)
(0.847019 0.0901638 0)
(0.873441 0.233313 0)
(0.99286 0.254494 0)
(1.13774 0.16516 0)
(1.20907 0.049291 0)
(1.20675 -0.0225298 0)
(1.17233 -0.0601465 0)
(1.13057 -0.0675011 0)
(1.09203 -0.077533 0)
(1.05768 -0.0838532 0)
(1.0284 -0.107046 0)
(1.00572 -0.117527 0)
(0.988376 -0.136492 0)
(0.981613 -0.128981 0)
(0.975708 -0.133714 0)
(0.981582 -0.109554 0)
(1.11671 0.105285 0)
(1.12594 0.102142 0)
(1.13253 0.0987393 0)
(1.13773 0.0959598 0)
(1.14308 0.0926492 0)
(1.14972 0.0892514 0)
(1.1583 0.0838661 0)
(1.16834 0.076593 0)
(1.17975 0.0653874 0)
(1.19129 0.050252 0)
(1.20056 0.0295327 0)
(1.20584 0.00434737 0)
(1.20324 -0.0254599 0)
(1.19228 -0.0550318 0)
(1.17151 -0.084851 0)
(1.14017 -0.10607 0)
(1.10449 -0.119708 0)
(1.06303 -0.125099 0)
(1.01721 -0.117019 0)
(0.983058 -0.0932026 0)
(0.949886 -0.0757954 0)
(0.906113 -0.0277304 0)
(0.894896 0.0748637 0)
(0.95492 0.179255 0)
(1.07354 0.188283 0)
(1.1734 0.123648 0)
(1.20945 0.0405924 0)
(1.19766 -0.0128716 0)
(1.16624 -0.0444297 0)
(1.12996 -0.0519041 0)
(1.09603 -0.0640564 0)
(1.06454 -0.0726024 0)
(1.03681 -0.0980929 0)
(1.01423 -0.110897 0)
(0.996682 -0.132466 0)
(0.98872 -0.127026 0)
(0.982353 -0.13348 0)
(0.986611 -0.110406 0)
(1.11563 0.09795 0)
(1.12434 0.0946281 0)
(1.13089 0.0907237 0)
(1.13603 0.0870448 0)
(1.14082 0.0826458 0)
(1.14621 0.0780969 0)
(1.15259 0.0718303 0)
(1.15982 0.0643286 0)
(1.16763 0.0539341 0)
(1.17518 0.0409831 0)
(1.1808 0.0240883 0)
(1.18329 0.00463927 0)
(1.18008 -0.018215 0)
(1.17092 -0.0404562 0)
(1.15441 -0.0629196 0)
(1.1301 -0.0795066 0)
(1.10175 -0.0910865 0)
(1.06935 -0.0945727 0)
(1.03378 -0.0890209 0)
(1.00497 -0.0700304 0)
(0.980185 -0.0520799 0)
(0.950656 -0.0133057 0)
(0.945341 0.0566272 0)
(0.999582 0.127683 0)
(1.09083 0.135452 0)
(1.16169 0.0947077 0)
(1.18791 0.0360838 0)
(1.18039 -0.00369681 0)
(1.15714 -0.0306447 0)
(1.12807 -0.0377273 0)
(1.09946 -0.0508147 0)
(1.07118 -0.0605728 0)
(1.04529 -0.0879008 0)
(1.02304 -0.103047 0)
(1.00544 -0.127456 0)
(0.996306 -0.12438 0)
(0.989496 -0.132786 0)
(0.992097 -0.111019 0)
(1.11407 0.0897743 0)
(1.122 0.0864003 0)
(1.12818 0.082321 0)
(1.13299 0.0782785 0)
(1.13716 0.0734564 0)
(1.14148 0.0684856 0)
(1.14619 0.0621131 0)
(1.15136 0.05496 0)
(1.15655 0.0456239 0)
(1.1614 0.0347765 0)
(1.16462 0.0211303 0)
(1.16538 0.00616997 0)
(1.162 -0.0112228 0)
(1.15429 -0.0277688 0)
(1.14129 -0.0447584 0)
(1.12282 -0.0570851 0)
(1.10082 -0.0662328 0)
(1.07585 -0.068474 0)
(1.04882 -0.0648819 0)
(1.02588 -0.0506334 0)
(1.00724 -0.0353006 0)
(0.989357 -0.00535388 0)
(0.989093 0.0402643 0)
(1.02779 0.0872135 0)
(1.09091 0.0942555 0)
(1.14252 0.0707383 0)
(1.16552 0.0303013 0)
(1.16358 0.00205002 0)
(1.14821 -0.0196646 0)
(1.12595 -0.0251529 0)
(1.10245 -0.0384327 0)
(1.07737 -0.0491102 0)
(1.05359 -0.0781096 0)
(1.03185 -0.0953384 0)
(1.01441 -0.122383 0)
(1.00417 -0.121569 0)
(0.996999 -0.131907 0)
(0.997994 -0.111536 0)
(1.11231 0.0814945 0)
(1.11937 0.0782307 0)
(1.12495 0.0742458 0)
(1.12929 0.0702014 0)
(1.13284 0.0654136 0)
(1.13629 0.0605133 0)
(1.13974 0.0544797 0)
(1.1434 0.0480128 0)
(1.14682 0.0398794 0)
(1.14985 0.0310392 0)
(1.15157 0.02011 0)
(1.1514 0.0087431 0)
(1.14819 -0.00435052 0)
(1.14195 -0.0164403 0)
(1.13192 -0.0290924 0)
(1.11805 -0.038092 0)
(1.10139 -0.0452946 0)
(1.0827 -0.0468325 0)
(1.06266 -0.0448717 0)
(1.04508 -0.034472 0)
(1.03131 -0.0227489 0)
(1.02092 -0.000704612 0)
(1.02312 0.0277792 0)
(1.04893 0.0579574 0)
(1.09097 0.0633225 0)
(1.12799 0.0509967 0)
(1.14781 0.0240802 0)
(1.14967 0.00574533 0)
(1.14048 -0.0106211 0)
(1.12394 -0.0140553 0)
(1.10533 -0.0269459 0)
(1.08359 -0.0376998 0)
(1.06215 -0.0675173 0)
(1.04103 -0.0864062 0)
(1.02383 -0.116007 0)
(1.01251 -0.117757 0)
(1.00498 -0.130219 0)
(1.00438 -0.111577 0)
(1.11073 0.0730713 0)
(1.11687 0.0699994 0)
(1.12178 0.0662512 0)
(1.12559 0.0624324 0)
(1.12856 0.057932 0)
(1.13131 0.0534059 0)
(1.13388 0.0479403 0)
(1.13649 0.0423425 0)
(1.1388 0.035458 0)
(1.14075 0.0283794 0)
(1.1416 0.0197619 0)
(1.14119 0.0112263 0)
(1.13845 0.00136033 0)
(1.13342 -0.00736138 0)
(1.1258 -0.0167626 0)
(1.11566 -0.0232249 0)
(1.10336 -0.0288874 0)
(1.0897 -0.0300714 0)
(1.0752 -0.0295473 0)
(1.06246 -0.0224851 0)
(1.05283 -0.0148847 0)
(1.04659 9.49619e-05 0)
(1.04907 0.0168836 0)
(1.06578 0.0359332 0)
(1.09327 0.0392909 0)
(1.11915 0.0337748 0)
(1.13549 0.0165389 0)
(1.13915 0.00605366 0)
(1.13437 -0.00547214 0)
(1.12254 -0.00621229 0)
(1.10837 -0.0174528 0)
(1.08978 -0.0272209 0)
(1.07072 -0.0571863 0)
(1.05033 -0.0774045 0)
(1.03355 -0.109472 0)
(1.02123 -0.113719 0)
(1.01344 -0.128435 0)
(1.01128 -0.11153 0)
(1.10963 0.065753 0)
(1.11489 0.0629535 0)
(1.11913 0.0595397 0)
(1.12243 0.0560956 0)
(1.12491 0.0520413 0)
(1.12713 0.0480598 0)
(1.12905 0.0433091 0)
(1.13098 0.0386426 0)
(1.13256 0.0329881 0)
(1.13389 0.0274739 0)
(1.13431 0.0208006 0)
(1.13381 0.0145843 0)
(1.13164 0.00723013 0)
(1.12795 0.00118336 0)
(1.1224 -0.00555303 0)
(1.11526 -0.00997892 0)
(1.10644 -0.0143951 0)
(1.09672 -0.0152903 0)
(1.08654 -0.0157752 0)
(1.07739 -0.0112658 0)
(1.07053 -0.00720595 0)
(1.06694 0.00220878 0)
(1.06937 0.0109264 0)
(1.07993 0.0223198 0)
(1.09749 0.0235754 0)
(1.11491 0.0218836 0)
(1.12757 0.0113279 0)
(1.13175 0.00708531 0)
(1.13029 0.000162334 0)
(1.12237 0.00231796 0)
(1.11231 -0.00718631 0)
(1.09666 -0.01595 0)
(1.08004 -0.0460552 0)
(1.0603 -0.0673402 0)
(1.04395 -0.10172 0)
(1.03052 -0.108594 0)
(1.02245 -0.125696 0)
(1.01875 -0.110981 0)
(1.10963 0.0574476 0)
(1.11407 0.0549452 0)
(1.11767 0.0519023 0)
(1.12051 0.0488775 0)
(1.12259 0.0453158 0)
(1.12442 0.0419084 0)
(1.12595 0.0378593 0)
(1.12748 0.0340433 0)
(1.1287 0.0294315 0)
(1.12976 0.0251674 0)
(1.13015 0.0199726 0)
(1.12994 0.0154051 0)
(1.12851 0.00989346 0)
(1.12608 0.00557867 0)
(1.12217 0.000472117 0)
(1.1172 -0.00274216 0)
(1.11107 -0.00651923 0)
(1.10444 -0.00746276 0)
(1.09754 -0.00888792 0)
(1.0913 -0.00656671 0)
(1.08671 -0.00537169 0)
(1.08416 -7.33288e-05 0)
(1.08559 0.00321056 0)
(1.09182 0.0095317 0)
(1.10292 0.0090584 0)
(1.11426 0.00932462 0)
(1.12391 0.00313446 0)
(1.12783 0.00347707 0)
(1.12851 0.000276595 0)
(1.12335 0.00519961 0)
(1.11666 -0.00193734 0)
(1.10356 -0.00842412 0)
(1.08947 -0.0366527 0)
(1.07063 -0.0577541 0)
(1.05491 -0.0936339 0)
(1.04043 -0.102981 0)
(1.03204 -0.122428 0)
(1.02685 -0.109975 0)
(1.11066 0.0526824 0)
(1.1144 0.0505036 0)
(1.11745 0.0478601 0)
(1.11988 0.0452899 0)
(1.12163 0.0422613 0)
(1.12317 0.0394575 0)
(1.12439 0.0361274 0)
(1.12564 0.0331384 0)
(1.12658 0.0295135 0)
(1.12748 0.0263732 0)
(1.12781 0.0224856 0)
(1.1278 0.0193262 0)
(1.12688 0.0153556 0)
(1.12535 0.0125126 0)
(1.12281 0.00885124 0)
(1.11967 0.00685494 0)
(1.11573 0.00398548 0)
(1.11154 0.00334318 0)
(1.10707 0.00149112 0)
(1.10289 0.00240533 0)
(1.09981 0.00146993 0)
(1.09815 0.00361793 0)
(1.09921 0.00331557 0)