/*--------------------------------*- C++ -*----------------------------------*\
| =========                 |                                                 |
| \\      /  F ield         | OpenFOAM: The Open Source CFD Toolbox           |
|  \\    /   O peration     | Version:  2312                                  |
|   \\  /    A nd           | Website:  www.openfoam.com                      |
|    \\/     M anipulation  |                                                 |
\*---------------------------------------------------------------------------*/
FoamFile
{
    version     2.0;
    format      ascii;
    arch        "LSB;label=32;scalar=64";
    class       surfaceScalarField;
    location    "175.35";
    object      phi;
}
// * * * * * * * * * * * * * * * * * * * * * * * * * * * * * * * * * * * * * //

dimensions      [0 3 -1 0 0 0 0];

oriented        oriented;

internalField   nonuniform List<scalar> 
10785
(
-0.0009297
0.00525153
-0.00432183
0.00067951
0.0064503
-0.00805951
0.0083039
-0.00117033
-0.00645406
0.0253163
-0.0193972
0.00238477
0.0524851
-0.0466242
0.0194555
0.0863579
-0.0776099
0.0437371
0.121233
-0.107038
0.0721634
0.151554
-0.131406
0.101084
0.173642
-0.149343
0.127255
0.186983
-0.161557
0.148216
0.193725
-0.170056
0.163314
0.19797
-0.177084
0.172839
0.202087
-0.1844
0.180283
0.206015
-0.189827
0.185899
-0.196495
0.194676
0.207834
-0.000144905
0.00539643
0.00389692
0.00240848
0.0170865
-0.0143599
0.0415432
-0.0438539
0.0730932
-0.0781742
0.104737
-0.109254
0.130767
-0.133067
0.148683
-0.149322
0.159418
-0.160077
0.165975
-0.168115
0.171245
-0.175326
0.176677
-0.182516
0.181458
-0.189181
0.186969
-0.195337
-0.202522
0.192996
0.00097775
0.00441868
0.00889216
-0.00550593
0.0287076
-0.0341753
0.057161
-0.0723073
0.0858722
-0.106885
0.108717
-0.132099
0.124
-0.14835
0.133477
-0.158799
0.140039
-0.16664
0.145565
-0.17364
0.150631
-0.180392
0.154989
-0.186873
0.159082
-0.193275
0.163512
-0.199767
-0.20617
0.16716
0.00228764
0.00213104
0.0151027
-0.018321
0.039497
-0.0585696
0.0660424
-0.0988527
0.0872564
-0.128099
0.101371
-0.146214
0.110241
-0.157219
0.116353
-0.164912
0.121123
-0.17141
0.1251
-0.177617
0.128555
-0.183848
0.132021
-0.190339
0.135826
-0.197079
0.140047
-0.203988
-0.211392
0.145268
0.00402597
-0.00189494
0.0213889
-0.0356839
0.0457995
-0.0829803
0.0666257
-0.119679
0.0805862
-0.14206
0.0890624
-0.154691
0.0943777
-0.162535
0.0980988
-0.168633
0.101114
-0.174425
0.103915
-0.180418
0.106802
-0.186734
0.109737
-0.193274
0.112567
-0.199909
0.115458
-0.206878
-0.213782
0.117848
0.00623993
-0.00813486
0.0259412
-0.0553852
0.0466102
-0.103649
0.0612659
-0.134335
0.0698658
-0.15066
0.0746287
-0.159453
0.0775098
-0.165416
0.0796713
-0.170794
0.0815917
-0.176345
0.0833818
-0.182209
0.0849961
-0.188349
0.0864877
-0.194766
0.0881371
-0.201559
0.0899238
-0.208665
-0.216177
0.0923188
0.0084502
-0.0165851
0.0273429
-0.0742779
0.0431589
-0.119465
0.0526041
-0.14378
0.0573008
-0.155356
0.0595405
-0.161693
0.0607701
-0.166645
0.0615799
-0.171604
0.0621436
-0.176909
0.0625409
-0.182606
0.0628935
-0.188701
0.0633171
-0.195189
0.0637524
-0.201994
0.0642653
-0.209178
-0.216526
0.0646149
0.0098839
-0.026469
0.0258823
-0.0902763
0.037006
-0.130589
0.042363
-0.149137
0.044257
-0.157251
0.044594
-0.16203
0.0443039
-0.166355
0.0437122
-0.171012
0.042936
-0.176133
0.0420386
-0.181708
0.0410317
-0.187694
0.0399079
-0.194065
0.0388077
-0.200894
0.0377851
-0.208156
0.0372809
-0.216022
0.000388277
0.0177494
-0.0181377
-0.00112906
0.0359928
-0.0344755
-0.00433582
0.0438457
-0.040639
-0.00819911
0.0470157
-0.0431524
-0.0118292
0.0485313
-0.0449012
-0.0145925
0.0486977
-0.0459344
-0.0159969
0.0467735
-0.0453691
-0.0156398
0.0419762
-0.0423332
-0.0132543
0.033713
-0.0360986
-0.00872083
0.02155
-0.0260834
-0.00238966
0.00553252
-0.0118637
0.00679548
-0.0154949
0.00630979
0.0186949
-0.0399744
0.028075
0.0352011
-0.0705463
0.0540401
-0.102231
0.0553919
0.0820402
0.00226614
0.0154833
0.00399179
0.0342672
0.00449375
0.0433438
0.00474939
0.0467601
0.00589924
0.0473814
0.00868748
0.0459094
0.01352
0.0419409
0.0205565
0.0349396
0.0296803
0.0245893
0.0406432
0.010587
0.0530814
-0.00690569
0.0681316
-0.0305451
0.0850152
-0.056858
0.105514
-0.0910447
-0.123942
0.127225
0.00356455
0.0119187
0.00830945
0.0295223
0.0125775
0.0390757
0.01693
0.0424076
0.0224739
0.0418375
0.0299822
0.0384011
0.0397349
0.0321883
0.0516751
0.0229994
0.0653434
0.010921
0.0810257
-0.00509536
0.0982631
-0.024143
0.118674
-0.0509558
0.14091
-0.0790943
0.166101
-0.116235
-0.147018
0.189177
0.0037826
0.00813612
0.0103087
0.0229962
0.0174299
0.0319545
0.0250457
0.0347918
0.0338649
0.0330183
0.0445069
0.0277592
0.0571818
0.0195133
0.0717997
0.00838159
0.0885611
-0.00584041
0.108266
-0.0248
0.131394
-0.0472715
0.158576
-0.0781377
0.188468
-0.108987
0.218261
-0.146028
-0.171642
0.242885
0.00297211
0.00516401
0.00944005
0.0165283
0.017608
0.0237866
0.0268686
0.0255312
0.0373844
0.0225024
0.0495198
0.0156237
0.0636562
0.00537698
0.0807146
-0.00867683
0.101897
-0.0270231
0.127696
-0.0505992
0.15927
-0.0788453
0.192711
-0.111579
0.225818
-0.142093
0.251848
-0.172058
-0.1871
0.267307
0.00158518
0.00357883
0.0064061
0.0117074
0.0136251
0.0165675
0.0225996
0.0165567
0.0334086
0.0116935
0.0468554
0.00217695
0.064487
-0.0122547
0.0876399
-0.0318297
0.117253
-0.0566365
0.151894
-0.0852402
0.188962
-0.115913
0.222055
-0.144671
0.248024
-0.168062
0.2613
-0.185334
-0.190354
0.264554
0.000128403
0.00345043
0.00266035
0.00917541
0.00797987
0.011248
0.016284
0.00825253
0.0288283
-0.000850749
0.0473937
-0.0163884
0.0732798
-0.0381409
0.106041
-0.0645912
0.142957
-0.0935522
0.179593
-0.121876
0.210708
-0.147028
0.231864
-0.165828
0.242875
-0.179073
0.243804
-0.186263
-0.190252
0.243701
-0.000871395
0.000244498
0.00503845
0.0156757
0.0342805
0.0616292
0.0956517
0.132145
0.165848
0.192188
0.208473
0.215484
0.216694
0.216331
0.220755
0.0778656
-0.272319
0.249845
0.0654222
-0.314563
0.327007
0.0371531
-0.356443
0.384712
0.0680473
-0.314924
0.28403
0.144839
-0.134187
0.0573958
0.201746
0.12949
-0.186397
0.234965
0.271776
-0.304995
0.241172
0.307098
-0.313304
0.21108
0.403506
-0.373414
0.182334
0.395791
-0.367045
0.209238
0.249144
-0.276048
0.250548
-0.0388917
-0.00241823
0.272256
-0.179675
0.157967
0.273661
-0.279465
0.27806
0.276456
-0.480146
0.477351
0.278317
-0.383377
0.381515
0.283638
-0.325021
0.3197
0.291789
0.0144644
-0.0226155
0.298085
0.38913
-0.395426
0.307949
0.450147
-0.460011
0.313072
0.577451
-0.582574
0.304467
0.110834
-0.10223
0.303766
-0.432979
0.43368
0.307849
-0.497488
0.493406
0.319952
-0.61804
0.605937
0.325638
0.173929
-0.179615
0.320737
1.06691
-1.06201
0.302807
0.293165
-0.275235
0.28692
-0.699065
0.714952
0.284489
-0.288442
0.290873
0.277212
0.293424
-0.286147
0.270605
0.137233
-0.130626
0.26726
-0.0682216
0.071566
0.265172
-0.0271569
0.0292451
0.263032
0.0202099
-0.0180703
0.260805
0.0115865
-0.00935927
0.258923
0.00544753
-0.00356504
0.00813907
-0.00623563
0.135508
-0.280602
0.124793
-0.303849
0.0686758
-0.300325
0.045501
-0.29175
0.107721
-0.196407
0.181948
0.0552624
0.230193
0.223531
0.242499
0.294792
0.21744
0.428565
0.19356
0.419671
0.21553
0.227174
0.252164
-0.0755254
0.275281
-0.202792
0.270117
-0.274301
0.26615
-0.476178
0.272775
-0.390002
0.27677
-0.329016
0.289605
0.00162959
0.299556
0.379178
0.308218
0.441485
0.316213
0.569456
0.302573
0.124474
0.296789
-0.427196
0.299982
-0.500681
0.308496
-0.626554
0.324502
0.157923
0.329178
1.06223
0.306114
0.316229
0.282592
-0.675542
0.281168
-0.287018
0.277845
0.296747
0.271594
0.143484
0.267589
-0.064217
0.265544
-0.025112
0.263655
0.022099
0.261619
0.0136227
0.259943
0.00712383
0.00979133
0.17613
-0.267555
0.167287
-0.295006
0.127988
-0.261027
0.0719393
-0.235701
0.092028
-0.216496
0.171749
-0.0244582
0.229277
0.166003
0.249438
0.27463
0.235525
0.442478
0.217117
0.438079
0.229487
0.214805
0.253681
-0.0997202
0.273649
-0.22276
0.261793
-0.262445
0.249821
-0.464206
0.261902
-0.402084
0.266471
-0.333584
0.283882
-0.0157819
0.298129
0.364932
0.306318
0.433297
0.316374
0.5594
0.299106
0.141742
0.287111
-0.4152
0.287936
-0.501507
0.292462
-0.63108
0.320043
0.130342
0.334438
1.04784
0.307875
0.342792
0.276127
-0.643794
0.27582
-0.28671
0.276439
0.296128
0.270771
0.149153
0.26632
-0.0597665
0.264478
-0.02327
0.262985
0.0235918
0.261307
0.0153007
0.260002
0.00842933
0.0110161
0.212281
-0.236951
0.182995
-0.26572
0.165394
-0.243426
0.118394
-0.188701
0.0994426
-0.197544
0.171715
-0.096731
0.235051
0.102668
0.254477
0.255204
0.249292
0.447662
0.2413
0.446072
0.245532
0.210572
0.25423
-0.108418
0.269406
-0.237936
0.255636
-0.248675
0.235116
-0.443686
0.248421
-0.415388
0.254719
-0.339883
0.275554
-0.0366167
0.29151
0.348975
0.299253
0.425555
0.311405
0.547247
0.292071
0.161077
0.274946
-0.398075
0.271998
-0.498559
0.273195
-0.632276
0.310802
0.0927353
0.333986
1.02465
0.304857
0.371921
0.267998
-0.606935
0.268697
-0.287409
0.272946
0.291878
0.268092
0.154007
0.263495
-0.0551696
0.262033
-0.0218076
0.261074
0.0245508
0.259913
0.0164611
0.259135
0.0092076
0.0116484
0.231936
-0.201581
0.186242
-0.220025
0.164762
-0.221945
0.147314
-0.171254
0.115236
-0.165466
0.162168
-0.143663
0.235564
0.0292716
0.269481
0.221287
0.278296
0.438848
0.273434
0.450934
0.262563
0.221444
0.254506
-0.100362
0.260281
-0.243711
0.244932
-0.233326
0.218465
-0.417219
0.229773
-0.426696
0.23863
-0.34874
0.26344
-0.0614269
0.28334
0.329075
0.29207
0.416825
0.304685
0.534632
0.282753
0.183009
0.260958
-0.37628
0.252692
-0.490293
0.250971
-0.630555
0.298532
0.0451744
0.330974
0.992212
0.29907
0.403826
0.258737
-0.566602
0.260187
-0.28886
0.267785
0.28428
0.263833
0.157959
0.259318
-0.0506548
0.258362
-0.0208518
0.258038
0.0248752
0.257535
0.0169641
0.257426
0.00931702
0.0115418
0.225383
-0.162409
0.184124
-0.178767
0.151613
-0.189434
0.146398
-0.166039
0.129077
-0.148146
0.147644
-0.162229
0.210978
-0.0340628
0.25209
0.180176
0.272054
0.418884
0.278123
0.444865
0.270271
0.229296
0.252884
-0.0829743
0.250089
-0.240916
0.233966
-0.217204
0.202789
-0.386041
0.207786
-0.431694
0.21942
-0.360373
0.247507
-0.0895149
0.269851
0.306732
0.279813
0.406863
0.293362
0.521083
0.27131
0.205061
0.246037
-0.351007
0.231996
-0.476252
0.228177
-0.626737
0.28188
-0.00852832
0.321191
0.952901
0.289438
0.435578
0.248377
-0.525541
0.250315
-0.290798
0.26083
0.273765
0.258013
0.160777
0.253929
-0.0465705
0.253619
-0.0205415
0.254022
0.0244715
0.254305
0.0166812
0.254992
0.0086301
0.0105714
0.209165
-0.127874
0.177156
-0.146758
0.147462
-0.15974
0.135229
-0.153805
0.12772
-0.140637
0.132105
-0.166614
0.180877
-0.082835
0.237593
0.123459
0.278113
0.378365
0.287605
0.435372
0.272541
0.24436
0.245029
-0.0554621
0.234548
-0.230435
0.21817
-0.200826
0.185816
-0.353687
0.182917
-0.428795
0.195306
-0.372762
0.229287
-0.123497
0.256979
0.27904
0.268931
0.39491
0.282746
0.507268
0.259283
0.228524
0.231111
-0.322835
0.211583
-0.456724
0.204724
-0.619877
0.264279
-0.0680834
0.311588
0.905591
0.279202
0.467965
0.237744
-0.484084
0.239924
-0.292978
0.252883
0.260806
0.251096
0.162564
0.247621
-0.0430949
0.248033
-0.0209544
0.24922
0.0232848
0.250394
0.0155076
0.251983
0.00704084
0.00863738
0.195836
-0.102955
0.169685
-0.120607
0.146664
-0.136718
0.130617
-0.137759
0.115382
-0.125402
0.109055
-0.160287
0.135645
-0.109425
0.188131
0.0709732
0.239255
0.327241
0.266226
0.4084
0.265755
0.244831
0.239472
-0.0291785
0.222605
-0.213568
0.204
-0.18222
0.169032
-0.31872
0.158158
-0.417921
0.168723
-0.383326
0.203841
-0.158615
0.236426
0.246455
0.251827
0.379509
0.267033
0.492061
0.246579
0.248978
0.215037
-0.291293
0.192198
-0.433885
0.181966
-0.609646
0.241638
-0.127755
0.293949
0.85328
0.265867
0.496048
0.226156
-0.444373
0.228821
-0.295643
0.243416
0.246211
0.24305
0.16293
0.240551
-0.0405963
0.241802
-0.0222055
0.243833
0.021254
0.245981
0.01336
0.248557
0.00446459
0.00566315
0.45369
-0.0762083
-0.480437
0.427876
-0.0947924
0.399187
-0.108029
0.370317
-0.108889
0.332015
-0.0871004
0.281886
-0.110158
0.229503
-0.0570415
0.187923
0.112553
0.221193
0.29397
0.339289
0.290305
0.450445
0.133674
0.483999
-0.0627326
0.468623
-0.198192
0.450465
-0.164063
0.419888
-0.288142
0.390362
-0.388395
0.351578
-0.344542
0.321676
-0.128713
0.301451
0.266681
0.308221
0.37274
0.361621
0.438661
0.413657
0.196943
0.413844
-0.291481
0.384932
-0.404972
0.329783
-0.554497
0.332093
-0.130066
0.381731
0.803642
0.413422
0.464357
0.38351
-0.414461
0.356108
-0.26824
0.360975
0.241344
0.367926
0.155979
0.366016
-0.0386861
0.363475
-0.0196649
0.362534
0.0221947
0.362517
0.0133775
0.362737
0.00424472
0.00515545
0.476805
-0.0536715
-0.499342
0.452226
-0.070214
0.422651
-0.0784537
0.395428
-0.0816665
0.370216
-0.0618881
0.337825
-0.0777661
0.297314
-0.0165314
0.288239
0.121629
0.361537
0.220672
0.469347
0.182495
0.535708
0.0673138
0.534603
-0.0616278
0.499945
-0.163534
0.471792
-0.13591
0.442589
-0.25894
0.40156
-0.347366
0.353556
-0.296539
0.315989
-0.0911461
0.289258
0.293412
0.312148
0.34985
0.393445
0.357364
0.45601
0.134379
0.447236
-0.282707
0.396294
-0.35403
0.329575
-0.487779
0.329768
-0.130259
0.392906
0.740505
0.442739
0.414524
0.411932
-0.383654
0.378349
-0.234658
0.384419
0.235274
0.39454
0.145858
0.393256
-0.0374024
0.390333
-0.0167416
0.389221
0.0233064
0.389429
0.0131696
0.389693
0.00398038
0.00467759
0.511693
-0.0379832
-0.527381
0.492183
-0.0507045
0.468083
-0.0543537
0.446407
-0.0599904
0.423332
-0.0388132
0.39158
-0.0460137
0.373266
0.00178184
0.402815
0.0920799
0.479724
0.143763
0.551641
0.110578
0.583579
0.0353758
0.567653
-0.0457023
0.533759
-0.12964
0.516171
-0.118321
0.485471
-0.228241
0.417509
-0.279403
0.344325
-0.223355
0.296798
-0.0436192
0.276711
0.313499
0.327223
0.299337
0.43307
0.251517
0.503344
0.0641044
0.487925
-0.267288
0.413361
-0.279466
0.321113
-0.395531
0.317299
-0.126445
0.41093
0.646873
0.482795
0.342659
0.443753
-0.344612
0.402259
-0.193164
0.410743
0.22679
0.424039
0.132562
0.422575
-0.0359387
0.41898
-0.0131462
0.41785
0.0244363
0.418253
0.0127673
0.418403
0.0038297
0.0043461
0.547918
-0.0252969
-0.560604
0.531734
-0.0345214
0.512825
-0.0354445
0.493722
-0.0408869
0.478748
-0.0238399
0.459564
-0.026829
0.452457
0.00888865
0.487538
0.0569989
0.547287
0.0840141
0.589033
0.0688325
0.604892
0.0195162
0.596543
-0.0373527
0.563275
-0.0963723
0.534458
-0.0895043
0.497926
-0.191708
0.425484
-0.206961
0.339517
-0.137388
0.289172
0.00672667
0.307293
0.295378
0.383057
0.223574
0.48626
0.148313
0.550826
-0.000461403
0.524474
-0.240936
0.434281
-0.189272
0.318999
-0.280249
0.307744
-0.11519
0.440907
0.513711
0.529041
0.254524
0.4744
-0.28997
0.421108
-0.139873
0.437227
0.210671
0.456909
0.11288
0.454743
-0.0337729
0.449968
-0.0083708
0.449375
0.0250295
0.450234
0.0119081
0.45026
0.0038034
0.00417863
0.589639
-0.0160241
-0.598912
0.577549
-0.022431
0.563887
-0.0217823
0.550449
-0.0274495
0.53973
-0.0131206
0.528286
-0.0153848
0.528807
0.00836741
0.55284
0.0329665
0.591117
0.0457364
0.621211
0.0387385
0.630087
0.010641
0.624652
-0.0319177
0.605566
-0.0772865
0.583034
-0.0669722
0.540254
-0.148929
0.471456
-0.138163
0.396124
-0.0620566
0.361086
0.0417645
0.413737
0.242727
0.489851
0.147459
0.563088
0.0750771
0.602025
-0.0393988
0.569092
-0.208003
0.487603
-0.107783
0.358883
-0.151529
0.325949
-0.0822556
0.485685
0.353975
0.581339
0.15887
0.508972
-0.217603
0.445456
-0.0763574
0.473909
0.182218
0.501085
0.0857043
0.495502
-0.0281894
0.48836
-0.0012295
0.488832
0.0245576
0.49015
0.0105899
0.489782
0.00417153
0.00435718
0.637453
-0.00926207
-0.644215
0.628625
-0.0136025
0.619518
-0.0126752
0.609
-0.0169317
0.603028
-0.00714853
0.596647
-0.00900379
0.599053
0.00596105
0.615557
0.0164629
0.63748
0.0238133
0.657096
0.0191222
0.666586
0.00115129
0.659649
-0.0249805
0.636389
-0.0540265
0.620787
-0.0513705
0.585941
-0.114083
0.534524
-0.0867454
0.489989
-0.0175219
0.481795
0.0499591
0.554408
0.170113
0.609531
0.0923363
0.642192
0.0424167
0.650263
-0.0474699
0.604548
-0.162289
0.553129
-0.0563633
0.453273
-0.0516727
0.398389
-0.0273726
0.544785
0.207579
0.634152
0.0695031
0.553368
-0.136819
0.490307
-0.0132958
0.530756
0.141769
0.561229
0.0552311
0.550543
-0.0175034
0.541448
0.00786554
0.543308
0.0226982
0.544727
0.00917034
0.543671
0.00522822
0.00515563
0.691384
-0.00465588
-0.69599
0.685112
-0.00733011
0.679252
-0.00681575
0.672079
-0.00975826
0.668928
-0.00399762
0.665247
-0.005323
0.667881
0.00332671
0.67748
0.00686403
0.690118
0.0111756
0.702864
0.00637635
0.706701
-0.00268626
0.702823
-0.021102
0.690009
-0.0412122
0.675632
-0.0369935
0.638178
-0.07663
0.601745
-0.0503119
0.590124
-0.00590126
0.599142
0.0409411
0.661867
0.107389
0.698943
0.0552601
0.710973
0.0303871
0.705609
-0.0421067
0.649832
-0.106511
0.623278
-0.0298096
0.584946
-0.0133407
0.537724
0.0198492
0.631713
0.11359
0.692932
0.00828396
0.622228
-0.066115
0.571636
0.0372962
0.613419
0.099985
0.638732
0.0299187
0.624862
-0.00363299
0.615607
0.0171205
0.617901
0.0204036
0.618471
0.00859998
0.616487
0.00721276
0.006809
0.751254
-0.00169947
-0.754211
0.74708
-0.0031561
0.743544
-0.00327932
0.738824
-0.0050378
0.736991
-0.00216484
0.735021
-0.003353
0.736885
0.00146226
0.742308
0.0014409
0.749259
0.00422492
0.756113
-0.000477128
0.758549
-0.00512251
0.754237
-0.0167898
0.741353
-0.0283283
0.731119
-0.0267599
0.705591
-0.0511022
0.682834
-0.0275546
0.681502
-0.00456965
0.694201
0.0282428
0.737715
0.0638745
0.758302
0.0346729
0.762249
0.0264405
0.754754
-0.0346116
0.712533
-0.0642905
0.699168
-0.0164448
0.692765
-0.0069375
0.672709
0.0399054
0.722638
0.0636609
0.747916
-0.0169936
0.698018
-0.0162173
0.673768
0.061547
0.70795
0.0658028
0.721536
0.0163328
0.708605
0.00929763
0.702716
0.02301
0.70491
0.0182087
0.704348
0.00916246
0.702022
0.00953878
0.00881175
0.817089
0.000154915
-0.818944
0.81462
-0.000686453
0.812456
-0.00111507
0.809613
-0.00219551
0.808521
-0.00107231
0.807266
-0.00209826
0.808463
0.000265241
0.810904
-0.00100032
0.814507
0.000622336
0.81746
-0.00343078
0.817944
-0.00560632
0.814056
-0.0129016
0.806014
-0.0202865
0.797728
-0.0184738
0.778911
-0.0322853
0.766319
-0.0149623
0.766148
-0.00439841
0.776162
0.0182285
0.802782
0.0372546
0.817773
0.0196821
0.823947
0.0202664
0.812975
-0.0236394
0.783478
-0.0347938
0.775727
-0.00869362
0.775858
-0.00706849
0.77829
0.0374735
0.804567
0.0373837
0.802427
-0.0148536
0.775102
0.0111075
0.777748
0.0589011
0.800597
0.0429538
0.802176
0.0147541
0.793355
0.0181183
0.792351
0.0240143
0.794097
0.0164622
0.79269
0.0105694
0.790759
0.0114699
0.0104749
0.889367
0.00126136
-0.890473
0.887956
0.000724291
0.886651
0.000189595
0.885017
-0.000560872
0.884261
-0.000316802
0.883393
-0.00123006
0.88393
-0.000271639
0.88464
-0.00171092
0.886317
-0.00105421
0.886868
-0.00398188
0.886628
-0.00536635
0.883212
-0.00948519
0.876732
-0.0138067
0.870579
-0.0123211
0.858238
-0.0199435
0.851722
-0.00844681
0.850993
-0.00366986
0.85848
0.0107422
0.874661
0.0210734
0.882938
0.0114048
0.888704
0.0145003
0.879721
-0.0146558
0.863
-0.0180731
0.858954
-0.004648
0.85619
-0.00430364
0.863343
0.0303204
0.87703
0.023696
0.869458
-0.00728122
0.860318
0.0202472
0.871856
0.047363
0.882813
0.0319972
0.880118
0.0174489
0.877237
0.0209998
0.879131
0.0221199
0.879846
0.015747
0.878344
0.0120713
0.877305
0.0125091
0.0114748
0.96833
0.00185043
-0.968919
0.96761
0.00144364
0.966829
0.000970932
0.965886
0.000382223
0.965355
0.000213472
0.964641
-0.000515573
0.964737
-0.000368099
0.964529
-0.00150292
0.965003
-0.00152767
0.964421
-0.00339976
0.96349
-0.00443609
0.960537
-0.0065313
0.955996
-0.00926629
0.951824
-0.00814897
0.94377
-0.0118896
0.940477
-0.00515336
0.939369
-0.00256187
0.94415
0.00596076
0.95362
0.0116037
0.958668
0.00635709
0.963816
0.00935185
0.956848
-0.00768811
0.946922
-0.00814715
0.943549
-0.00127474
0.940193
-0.000947364
0.948886
0.0216269
0.956105
0.0164774
0.948051
0.000772675
0.947036
0.0212626
0.958474
0.0359248
0.964046
0.026425
0.961975
0.0195203
0.96218
0.0207945
0.964468
0.0198319
0.964733
0.0154819
0.963793
0.0130115
0.963461
0.0128409
0.0119376
1.05458
0.00209564
-1.05483
1.05423
0.00179275
1.0538
0.00140371
1.05323
0.00094703
1.05282
0.000630975
1.05224
6.46414e-05
1.05201
-0.0001421
1.05146
-0.00095346
1.05122
-0.00128168
1.05023
-0.00241581
1.04903
-0.00323409
1.04685
-0.00435558
1.04346
-0.00587603
1.04056
-0.00524438
1.03552
-0.00685387
1.03353
-0.00315842
1.0327
-0.00173779
1.03554
0.0031256
1.04093
0.00621293
1.04347
0.0038134
1.04683
0.00599259
1.04226
-0.00311861
1.03693
-0.00281764
1.0348
0.000863713
1.03215
0.0016973
1.03797
0.0158116
1.04151
0.0129335
1.03701
0.00527336
1.03957
0.0187063
1.04767
0.0278186
1.05094
0.0231595
1.05062
0.0198379
1.05196
0.0194586
1.05382
0.0179637
1.0541
0.0152023
1.05376
0.0133549
1.05378
0.012825
0.0121369
1.14875
0.00215038
-1.1488
1.1486
0.00193986
1.14838
0.00162265
1.14804
0.00129041
1.14771
0.000956953
1.14724
0.000540722
1.14687
0.000218935
1.14626
-0.000338242
1.1457
-0.000718352
1.14473
-0.00145304
1.14351
-0.00200668
1.14184
-0.00268554
1.1394
-0.00344193
1.13738
-0.00321939
1.13431
-0.00378654
1.13302
-0.00187196
1.13234
-0.00105307
1.13377
0.00168867
1.13664
0.00334599
1.13793
0.00252654
1.14009
0.00383104
1.13728
-0.000311263
1.13428
0.000185689
1.13268
0.00246562
1.1309
0.00347821
1.13528
0.0114302
1.13748
0.0107299
1.13475
0.00800008
1.13752
0.0159415
1.14347
0.0218696
1.14646
0.0201689
1.14735
0.0189513
1.14869
0.0181176
1.15019
0.0164649
1.15074
0.0146464
1.15087
0.0132298
1.15106
0.0126354
0.0121594
1.2516
0.00208291
-1.25153
1.25157
0.0019631
1.25149
0.00170667
1.25129
0.00149108
1.25105
0.00119261
1.25069
0.000902708
1.25031
0.000600296
1.24977
0.000199089
1.24915
-9.29425e-05
1.24832
-0.000625975
1.24724
-0.000924525
1.24601
-0.00145419
1.2443
-0.00173495
1.24287
-0.00178608
1.24096
-0.00188609
1.24003
-0.000939501
1.23947
-0.000487553
1.24007
0.0010898
1.24149
0.00192125
1.242
0.00201628
1.24313
0.00270648
1.24152
0.00129074
1.23998
0.00172504
1.23917
0.00327574
1.23822
0.004432
1.24079
0.00886324
1.24211
0.00940531
1.24142
0.00869323
1.244
0.0133579
1.24825
0.0176223
1.25092
0.0174974
1.25255
0.0173268
1.25399
0.0166731
1.25529
0.0151663
1.25605
0.0138899
1.25649
0.0127826
1.25687
0.0122528
0.011968
1.36403
0.00195481
-1.36391
1.36409
0.00191217
1.36409
0.00170546
1.36399
0.00158692
1.36384
0.00134054
1.36359
0.00115498
1.36327
0.000918721
1.36285
0.000623464
1.36232
0.000433717
1.36168
1.91169e-05
1.36084
-8.40059e-05
1.35994
-0.000556274
1.35876
-0.000557376
1.35776
-0.000789789
1.35653
-0.000655608
1.35587
-0.000281089
1.35536
2.50409e-05
1.35551
0.000946985
1.35611
0.0013148
1.35625
0.00187899
1.35685
0.00210715
1.356
0.00213678
1.35523
0.00249468
1.35486
0.00364388
1.35442
0.00487358
1.35621
0.0070725
1.35739
0.00823219
1.35751
0.00856877
1.35953
0.0113432
1.36279
0.0143579
1.36536
0.0149308
1.36725
0.0154386
1.36881
0.0151053
1.37006
0.013919
1.37098
0.0129739
1.37167
0.0120866
1.37226
0.0116685
0.0115787
1.487
0.00178976
-1.48683
1.4871
0.00180433
1.48717
0.0016393
1.48716
0.00159696
1.4871
0.00140387
1.48695
0.00129894
1.48674
0.00112952
1.48645
0.000916601
1.48606
0.000821979
1.48561
0.000472658
1.48502
0.000505708
1.48439
6.79398e-05
1.4836
0.000230734
1.48292
-0.00010942
1.48212
0.000146096
1.48164
0.000201994
1.48123
0.000434291
1.48116
0.00101443
1.48137
0.00110775
1.48136
0.00188702
1.48164
0.00183131
1.48124
0.00253654
1.48093
0.00279904
1.4809
0.0036813
1.48091
0.00485967
1.48207
0.00591681
1.48305
0.00724931
1.4838
0.00782199
1.48565
0.00948588
1.48809
0.0119171
1.49038
0.0126471
1.49241
0.0134049
1.49414
0.0133761
1.49541
0.0126475
1.49651
0.0118754
1.49741
0.0111829
1.49816
0.0109198
0.0109359
1.62153
0.00159793
-1.62134
1.62169
0.0016511
1.6218
0.00152172
1.62187
0.00153417
1.62188
0.00138567
1.62184
0.00134301
1.62174
0.00122608
1.62158
0.00108064
1.62135
0.00105074
1.62106
0.000764517
1.62069
0.000874416
1.62029
0.000465477
1.6198
0.000718263
1.61937
0.000326445
1.61887
0.000643609
1.61854
0.00053334
1.61824
0.00073331
1.61812
0.0011312
1.61816
0.00106899
1.61813
0.00192447
1.61827
0.00168488
1.61816
0.0026436
1.61815
0.00281747
1.61832
0.00351032
1.61858
0.00460181
1.6195
0.00499132
1.62051
0.00624301
1.62144
0.00689399
1.62306
0.00786471
1.6251
0.00986843
1.62716
0.0105961
1.62921
0.0113475
1.63091
0.0116782
1.63229
0.0112658
1.63369
0.0104821
1.63479
0.0100769
1.63564
0.0100705
0.010112
1.76873
0.00138555
-1.76852
1.76893
0.00145567
1.76909
0.00135856
1.76922
0.00140231
1.76931
0.00129215
1.76937
0.00129217
1.76938
0.00121299
1.76934
0.00112352
1.76926
0.00112752
1.76912
0.000907116
1.76894
0.00104595
1.76872
0.000692788
1.76847
0.000964597
1.76821
0.000587562
1.76795
0.00090628
1.76774
0.000737421
1.76757
0.00090571
1.7675
0.00120244
1.7675
0.00106951
1.76754
0.00188401
1.76765
0.00157924
1.76775
0.00253416
1.7679
0.00266989
1.76825
0.00316215
1.7687
0.00414993
1.7695
0.0041949
1.77049
0.00525497
1.77149
0.00589259
1.77305
0.00629973
1.77483
0.00809238
1.77661
0.00881473
1.7787
0.00926182
1.78034
0.0100384
1.78177
0.00983685
1.78355
0.0087015
1.78489
0.00873549
1.78578
0.00917346
0.00910692
1.92977
0.0011529
-1.92954
1.93002
0.00121118
1.93022
0.00115464
1.93043
0.00119678
1.93059
0.00113065
1.93074
0.00114497
1.93085
0.00109875
1.93092
0.00105369
1.93099
0.0010635
1.93096
0.00092909
1.93098
0.0010318
1.93087
0.00080353
1.93084
0.000995083
1.93068
0.000740589
1.93063
0.000963569
1.93051
0.000849306
1.93046
0.000958819
1.93048
0.00118096
1.93048
0.00107306
1.93067
0.00168855
1.93077
0.00148602
1.93111
0.00219131
1.9314
0.00237674
1.9319
0.0026681
1.93254
0.00350833
1.93325
0.00348763
1.93427
0.00422867
1.93525
0.00491063
1.93664
0.00491039
1.93831
0.00642806
1.94
0.00712765
1.94204
0.00722123
1.94373
0.00834321
1.94527
0.00829482
1.94718
0.00679846
1.94868
0.00722751
1.94977
0.00808267
0.00787842
2.10602
0.000899078
-2.10577
2.1063
0.000933572
2.10654
0.000913732
2.1068
0.000938411
2.10702
0.000911516
2.10724
0.000923247
2.10744
0.000903012
2.1076
0.000888027
2.10778
0.000890796
2.10787
0.000836978
2.10802
0.000880866
2.10803
0.000787545
2.10816
0.000871341
2.10813
0.000769766
2.10822
0.000869593
2.10823
0.000844728
2.10829
0.000898656
2.10843
0.00104303
2.10848
0.00101412
2.10882
0.00135521
2.10899
0.001319
2.10947
0.00170553
2.10993
0.00191741
2.11049
0.00211033
2.11132
0.00267752
2.11202
0.00278838
2.11301
0.00323509
2.1141
0.00382603
2.11522
0.00378819
2.11683
0.00481539
2.11859
0.00537005
2.12041
0.00540354
2.12243
0.00631997
2.12433
0.00639153
2.12582
0.00531242
2.1273
0.00574768
2.12894
0.00644438
0.00626261
2.29895
0.00062299
-2.29867
2.29924
0.000643138
2.29951
0.000640134
2.2998
0.000654901
2.30006
0.000647023
2.30033
0.000656748
2.30058
0.000649332
2.30082
0.000649286
2.30106
0.000648522
2.30126
0.000635433
2.30149
0.000649476
2.30166
0.000624025
2.30188
0.000653608
2.30202
0.000628433
2.30222
0.000667763
2.30239
0.000675886
2.30258
0.000708348
2.30284
0.000785455
2.30305
0.00080317
2.30344
0.00096389
2.30376
0.000997981
2.30427
0.00119643
2.30484
0.0013456
2.30545
0.00150395
2.30632
0.00180494
2.30714
0.00196939
2.30814
0.00223421
2.30936
0.00260845
2.31045
0.0026937
2.31202
0.00324516
2.31382
0.00357476
2.31551
0.00371276
2.31765
0.00417354
2.31976
0.00428104
2.32118
0.00390032
2.3228
0.00412689
2.32483
0.00441664
0.00436231
2.51013
0.000324118
-2.50984
2.51044
0.000333682
2.51075
0.000335777
2.51106
0.000342981
2.51136
0.000342509
2.51167
0.000348274
2.51198
0.000346658
2.51228
0.000349925
2.51257
0.00034875
2.51286
0.00034924
2.51316
0.000351375
2.51343
0.000349681
2.51373
0.00035609
2.514
0.000356271
2.5143
0.000368051
2.5146
0.000379199
2.51491
0.000394539
2.51527
0.000428803
2.51562
0.000450117
2.51607
0.00051284
2.51652
0.000550188
2.51709
0.000631979
2.51772
0.0007135
2.51843
0.000797385
2.5193
0.00092798
2.52024
0.00103539
2.52132
0.00115434
2.52258
0.00134512
2.52386
0.00141558
2.52544
0.00166256
2.52719
0.00182234
2.52899
0.00191836
2.53104
0.00211609
2.53314
0.00218466
2.53496
0.00208319
2.5369
0.00218717
2.53902
0.00229339
0.00228649
2.74145
-2.74113
2.74179
2.74212
2.74247
2.74281
2.74316
2.7435
2.74385
2.7442
2.74455
2.7449
2.74525
2.74561
2.74597
2.74633
2.74671
2.74711
2.74754
2.74799
2.7485
2.74905
2.74968
2.75039
2.75119
2.75212
2.75316
2.75431
2.75566
2.75707
2.75873
2.76056
2.76247
2.76459
2.76677
2.76886
2.77105
2.77334
0.439673
0.0313559
-0.433748
0.447374
0.0569137
0.452332
0.0873608
0.460081
0.110099
0.464575
0.140774
0.471929
0.159806
0.475884
0.189041
0.203281
0.467954
0.026437
-0.463036
0.47357
0.0512978
0.478149
0.0827826
0.483307
0.104941
0.48706
0.137021
0.491237
0.155629
0.495778
0.184499
0.199718
0.5006
0.022635
-0.496798
0.50407
0.0478277
0.50758
0.0792726
0.510772
0.101749
0.515093
0.1327
0.518553
0.152168
0.52372
0.179333
0.196057
0.536574
0.0196393
-0.533578
0.538875
0.045526
0.542437
0.075711
0.545247
0.0989388
0.549759
0.128188
0.552811
0.149116
0.557182
0.174962
0.192635
0.577209
0.0173556
-0.574925
0.579048
0.0436868
0.58235
0.0724094
0.58461
0.0966793
0.588349
0.124449
0.59116
0.146304
0.595247
0.170875
0.18897
0.622717
0.0156004
-0.620962
0.624221
0.0421826
0.62694
0.0696904
0.629091
0.0945291
0.632646
0.120893
0.635861
0.143089
0.640239
0.166497
0.184993
0.673259
0.0143197
-0.671979
0.674697
0.0407449
0.677215
0.0671728
0.67973
0.0920135
0.683422
0.117202
0.687046
0.139465
0.691715
0.161829
0.180718
0.729532
0.0133114
-0.728524
0.731076
0.0392007
0.733576
0.0646727
0.736426
0.0891639
0.740305
0.113323
0.744333
0.135437
0.749297
0.156864
0.175804
0.79191
0.0124579
-0.791057
0.793547
0.0375645
0.796074
0.062145
0.799189
0.0860489
0.803248
0.109264
0.807755
0.13093
0.813256
0.151363
0.170117
0.860734
0.0116902
-0.859966
0.862443
0.0358552
0.865073
0.0595144
0.868517
0.0826058
0.872941
0.10484
0.878091
0.12578
0.884076
0.145379
0.163719
0.936482
0.01094
-0.935731
0.938303
0.0340338
0.941129
0.056688
0.94493
0.0788049
0.94972
0.10005
0.955341
0.120159
0.961785
0.138934
0.156586
1.01959
0.0101869
-1.01884
1.02151
0.0321142
1.02453
0.0536673
1.02864
0.0746965
1.0338
0.094888
1.03993
0.114034
1.04696
0.131897
0.148724
1.11061
0.00942143
-1.10985
1.11264
0.0300835
1.1159
0.0504144