/*--------------------------------*- C++ -*----------------------------------*\
| =========                 |                                                 |
| \\      /  F ield         | OpenFOAM: The Open Source CFD Toolbox           |
|  \\    /   O peration     | Version:  2312                                  |
|   \\  /    A nd           | Website:  www.openfoam.com                      |
|    \\/     M anipulation  |                                                 |
\*---------------------------------------------------------------------------*/
FoamFile
{
    version     2.0;
    format      ascii;
    arch        "LSB;label=32;scalar=64";
    class       surfaceScalarField;
    location    "62.5";
    object      phi;
}
// * * * * * * * * * * * * * * * * * * * * * * * * * * * * * * * * * * * * * //

dimensions      [0 3 -1 0 0 0 0];

oriented        oriented;

internalField   nonuniform List<scalar> 
64047
(
-4.83031e-06
0.000530809
-0.000525979
-3.75325e-05
0.00110867
-0.00107596
-7.77665e-05
0.00133213
-0.00129189
-8.40809e-05
0.0012733
-0.00126699
-5.43496e-06
0.000974324
-0.00105297
0.000212584
0.000452036
-0.000670054
0.000624539
-0.0002968
-0.000115155
0.00128378
-0.00128815
0.000628905
0.00224205
-0.00254499
0.00158672
0.00354915
-0.00409124
0.00278414
0.00525177
-0.00594725
0.00424463
0.00739105
-0.00812594
0.00598667
0.00999913
-0.0106291
0.00802107
0.0130949
-0.0134444
0.0103486
0.0166794
-0.0165425
0.0129579
0.0207322
-0.0198764
0.0158236
0.0252087
-0.0233823
0.0189058
0.0300411
-0.0269827
0.0221504
0.0351406
-0.0305916
0.025492
0.0404041
-0.0341208
0.0288573
0.0457212
-0.0374875
0.0321705
0.0509833
-0.0406207
0.0353585
0.0560927
-0.0434661
0.0383567
0.0609693
-0.0459896
0.041113
0.0655561
-0.048178
0.0435912
0.0698219
-0.0500382
0.0457724
0.0737611
-0.0515936
0.0476544
0.0773912
-0.0528804
0.0492504
0.0807482
-0.0539431
0.0505861
0.0838814
-0.0548289
0.0516956
0.086848
-0.0555863
0.0526198
0.0897056
-0.0562577
0.0534
0.0925134
-0.0568849
0.0540772
0.0953146
-0.0574976
0.0546964
0.0981682
-0.0581184
0.0552649
0.101096
-0.0588093
0.0558812
-0.0594604
0.0564082
0.104148
1.94824e-05
0.000511327
5.7283e-05
0.00107087
0.0001306
0.00125881
0.000277925
0.00112598
0.00054933
0.000702918
0.00100019
1.17241e-06
0.00168895
-0.00098556
0.00267341
-0.0022726
0.00401019
-0.00388176
0.00575239
-0.00583345
0.00794658
-0.00814145
0.0106283
-0.0108077
0.0138169
-0.0138177
0.0175094
-0.0171369
0.0216764
-0.0207095
0.0262598
-0.0244597
0.0311736
-0.0282961
0.0363093
-0.0321184
0.041544
-0.0358263
0.0467511
-0.0393279
0.0518118
-0.0425482
0.0566251
-0.045434
0.0611163
-0.0479572
0.0652412
-0.0501145
0.0689875
-0.0519243
0.0723719
-0.0534226
0.0754351
-0.0546568
0.0782342
-0.0556796
0.0808355
-0.0565444
0.0833071
-0.0573005
0.085713
-0.0579922
0.0881085
-0.0586532
0.0905408
-0.0593172
0.093039
-0.0599958
0.0956449
-0.0607244
0.098326
-0.0614903
-0.0623165
0.101182
3.55937e-05
0.000475734
0.000129444
0.000977015
0.000301023
0.00108723
0.00058953
0.000837471
0.00104629
0.000246162
0.00173026
-0.000682803
0.0027031
-0.0019584
0.00402788
-0.00359738
0.00576454
-0.00561842
0.00796589
-0.0080348
0.0106718
-0.0108474
0.0139025
-0.0140384
0.0176514
-0.0175665
0.0218797
-0.0213652
0.0265148
-0.0253446
0.0314526
-0.0293976
0.0365651
-0.0334086
0.0417118
-0.0372651
0.0467535
-0.040868
0.0515661
-0.0441405
0.0560521
-0.0470342
0.0601484
-0.0495303
0.0638291
-0.0516379
0.0671038
-0.0533892
0.0700118
-0.0548323
0.0726134
-0.0560243
0.0749806
-0.057024
0.0771879
-0.0578868
0.0793049
-0.0586614
0.0813917
-0.0593873
0.0834956
-0.060096
0.0856521
-0.0608098
0.0878834
-0.0615484
0.0902052
-0.0623176
0.0926216
-0.0631408
0.0951307
-0.0639994
-0.0649345
0.0977487
4.51036e-05
0.00043063
0.000182852
0.000839266
0.000440429
0.000829654
0.000861637
0.000416263
0.00150211
-0.000394312
0.0024252
-0.0016059
0.00369783
-0.00323102
0.00538613
-0.00528569
0.00754943
-0.00778172
0.0102327
-0.0107181
0.013458
-0.0140727
0.0172158
-0.0177962
0.0214588
-0.0218096
0.0261007
-0.0260071
0.0310199
-0.0302638
0.0360705
-0.0344481
0.0410971
-0.0384352
0.0459516
-0.0421196
0.0505093
-0.0454256
0.0546804
-0.0483116
0.0584165
-0.0507704
0.0617113
-0.0528251
0.0645948
-0.0545214
0.0671242
-0.0559185
0.0693728
-0.057081
0.0714195
-0.0580709
0.0733389
-0.0589434
0.075196
-0.059744
0.0770426
-0.060508
0.078917
-0.0612617
0.0808452
-0.0620242
0.0828434
-0.062808
0.0849204
-0.0636254
0.0870795
-0.0644767
0.0893228
-0.0653841
0.0916417
-0.0663183
-0.0673417
0.0940489
5.06103e-05
0.00038002
0.000225312
0.000664565
0.00056328
0.000491686
0.00111651
-0.000136965
0.00194762
-0.00122543
0.0031258
-0.00278407
0.00472195
-0.00482717
0.00680145
-0.00736519
0.00941488
-0.0103951
0.0125872
-0.0138904
0.0163075
-0.017793
0.0205213
-0.02201
0.0251296
-0.0264179
0.0299949
-0.0308723
0.034955
-0.0352239
0.0398418
-0.0393349
0.044501
-0.0430944
0.0488099
-0.0464285
0.0526884
-0.0493042
0.0561039
-0.0517271
0.0590679
-0.0537344
0.0616272
-0.0553845
0.0638521
-0.0567462
0.065823
-0.0578895
0.0676198
-0.0588778
0.0693139
-0.0597649
0.0709633
-0.0605928
0.0726121
-0.0613928
0.0742913
-0.0621872
0.0760213
-0.0629916
0.0778142
-0.0638171
0.0796771
-0.0646708
0.0816123
-0.0655607
0.0836215
-0.0664859
0.0857025
-0.0674651
0.0878512
-0.068467
-0.0695655
0.090075
5.54458e-05
0.000324574
0.000266971
0.00045304
0.000688444
7.02119e-05
0.00138295
-0.000831472
0.00242134
-0.00226381
0.00387845
-0.00424119
0.00582531
-0.00677403
0.00831854
-0.00985842
0.0113876
-0.0134642
0.0150219
-0.0175248
0.0191624
-0.0219334
0.0236993
-0.0265469
0.028481
-0.0311996
0.0333309
-0.0357222
0.0380696
-0.0399626
0.0425383
-0.0438036
0.0466172
-0.0471734
0.0502365
-0.0500478
0.0533778
-0.0524454
0.0560676
-0.0544169
0.0583657
-0.0560325
0.0603504
-0.0573692
0.062105
-0.0585009
0.0637076
-0.059492
0.0652241
-0.0603944
0.0667063
-0.0612471
0.0681917
-0.0620782
0.0697059
-0.062907
0.0712655
-0.0637468
0.0728804
-0.0646065
0.074556
-0.0654927
0.0762951
-0.0664099
0.0780979
-0.0673635
0.0799649
-0.0683529
0.0818925
-0.0693927
0.08388
-0.0704545
-0.0716132
0.0859277
6.2926e-05
0.000261648
0.000318031
0.000197935
0.000834976
-0.000446733
0.00168861
-0.00168511
0.00295813
-0.00353332
0.00472047
-0.00600353
0.00703931
-0.00909286
0.00995052
-0.0127696
0.0134472
-0.0169608
0.0174684
-0.0215461
0.0218973
-0.0263623
0.0265703
-0.0312199
0.0312975
-0.0359268
0.0358891
-0.0403138
0.0401818
-0.0442553
0.0440581
-0.0476799
0.0474563
-0.0505716
0.0503697
-0.0529611
0.0528363
-0.054912
0.0549247
-0.0565053
0.0567177
-0.0578255
0.058299
-0.0589504
0.0597433
-0.0599452
0.0611117
-0.0608604
0.0624504
-0.0617331
0.0637922
-0.0625888
0.0651588
-0.0634449
0.0665644
-0.0643126
0.0680173
-0.0651996
0.0695222
-0.0661114
0.0710814
-0.067052
0.0726962
-0.0680247
0.0743659
-0.0690332
0.0760908
-0.0700778
0.0778675
-0.0711695
0.0796975
-0.0722845
-0.0734931
0.0815774
7.56466e-05
0.000186001
0.000386584
-0.000113003
0.00101722
-0.00107737
0.00205341
-0.0027213
0.00357939
-0.00505931
0.00566753
-0.00809168
0.00836299
-0.0117883
0.0116664
-0.016073
0.0155199
-0.0208143
0.0198034
-0.0258296
0.0243443
-0.0309032
0.0289409
-0.0358164
0.0333925
-0.0403785
0.0375296
-0.0444509
0.0412345
-0.0479602
0.0444508
-0.0508961
0.0471794
-0.0533002
0.0494665
-0.0552483
0.0513864
-0.0568319
0.0530243
-0.0581432
0.054463
-0.0592643
0.0557744
-0.0602618
0.0570154
-0.0611862
0.0582282
-0.0620732
0.059442
-0.0629469
0.0606761
-0.0638229
0.0619426
-0.0647113
0.0632487
-0.0656187
0.0645988
-0.0665497
0.065995
-0.0675077
0.0674386
-0.0684956
0.06893
-0.069516
0.0704688
-0.070572
0.0720552
-0.0716642
0.0736864
-0.0728007
0.0753649
-0.073963
-0.0752127
0.0770845
9.506e-05
9.09414e-05
0.000477077
-0.00049502
0.00124258
-0.00184287
0.00248506
-0.00396377
0.00428769
-0.00686194
0.00670822
-0.0105122
0.00975967
-0.0148398
0.0133933
-0.0197066
0.0174914
-0.0249124
0.0218763
-0.0302144
0.0263356
-0.0353625
0.0306569
-0.0401378
0.0346615
-0.044383
0.0382276
-0.0480171
0.0412997
-0.0510323
0.0438829
-0.0534793
0.0460278
-0.0554452
0.0478124
-0.0570328
0.0493231
-0.0583426
0.0506419
-0.0594621
0.0518385
-0.0604608
0.0529669
-0.0613902
0.0540662
-0.0622856
0.0551632
-0.0631702
0.0562752
-0.0640589
0.0574131
-0.0649608
0.0585833
-0.0658815
0.0597897
-0.0668252
0.0610346
-0.0677946
0.0623193
-0.0687924
0.0636446
-0.0698209
0.0650109
-0.0708823
0.0664179
-0.071979
0.067866
-0.0731123
0.0693527
-0.0742873
0.0708808
-0.0754911
-0.0767738
0.072442
0.000121486
-3.05443e-05
0.000590255
-0.000963789
0.00151086
-0.00276348
0.00297872
-0.00543163
0.00506702
-0.00895024
0.00780636
-0.0132515
0.011164
-0.0181974
0.0150318
-0.0235745
0.0192327
-0.0291133
0.0235458
-0.0345275
0.0277456
-0.0395623
0.0316405
-0.0440326
0.0350997
-0.0478422
0.0380634
-0.0509808
0.0405365
-0.0535054
0.0425715
-0.0555143
0.044248
-0.0571217
0.0456534
-0.0584382
0.0468695
-0.0595587
0.0479645
-0.0605571
0.0489908
-0.0614871
0.0499856
-0.062385
0.050974
-0.063274
0.051972
-0.0641683
0.0529896
-0.0650765
0.0540327
-0.0660039
0.0551051
-0.0669539
0.056209
-0.0679291
0.0573459
-0.0689315
0.0585169
-0.0699633
0.0597225
-0.0710265
0.0609632
-0.072123
0.0622391
-0.0732549
0.0635502
-0.0744234
0.0648945
-0.0756316
0.0662743
-0.0768709
-0.0781795
0.06768
0.00015439
-0.000184934
0.000723947
-0.00153335
0.00181579
-0.00385532
0.00351944
-0.00713528
0.00588695
-0.0113177
0.00890855
-0.0162731
0.0124947
-0.0217835
0.0164761
-0.0275559
0.0206277
-0.0332649
0.0247104
-0.0386102
0.0285154
-0.0433673
0.0318972
-0.0474145
0.034786
-0.050731
0.0371817
-0.0533765
0.0391355
-0.0554592
0.0407274
-0.0571062
0.0420458
-0.0584401
0.0431728
-0.0595653
0.0441767
-0.0605626
0.0451091
-0.0614894
0.0460062
-0.0623843
0.0468923
-0.0632711
0.0477827
-0.0641643
0.0486866
-0.0650722
0.0496099
-0.0659998
0.0505561
-0.06695
0.0515274
-0.0679252
0.0525254
-0.0689271
0.0535513
-0.0699574
0.054606
-0.071018
0.0556901
-0.0721106
0.0568041
-0.073237
0.0579481
-0.0743989
0.059122
-0.0755973
0.060324
-0.0768337
0.0615558
-0.0781027
-0.0794311
0.0628074
0.000192789
-0.000377723
0.000874114
-0.00221467
0.00214699
-0.00512819
0.00408549
-0.00907378
0.00670819
-0.0139405
0.00995317
-0.0195181
0.0136691
-0.0254995
0.0176334
-0.0315202
0.0215947
-0.0372262
0.0253238
-0.0423393
0.028654
-0.0466976
0.0314988
-0.0502592
0.0338477
-0.0530799
0.0357471
-0.055276
0.0372761
-0.0569882
0.0385238
-0.0583539
0.0395738
-0.05949
0.0404951
-0.0604866
0.04134
-0.0614074
0.0421449
-0.0622943
0.0429336
-0.0631731
0.0437213
-0.0640588
0.044517
-0.06496
0.0453263
-0.0658815
0.0461527
-0.0668261
0.0469983
-0.0677957
0.0478649
-0.0687918
0.0487537
-0.0698159
0.0496658
-0.0708695
0.0506019
-0.0719542
0.051563
-0.0730716
0.0525493
-0.0742234
0.053561
-0.0754106
0.0545977
-0.076634
0.0556581
-0.077894
0.0567427
-0.0791874
-0.0805311
0.0578426
0.000235522
-0.000613245
0.00103572
-0.00301487
0.00249171
-0.00658418
0.00465132
-0.0112334
0.00748772
-0.0167768
0.010879
-0.0229094
0.0146153
-0.0292358
0.0184379
-0.0353429
0.0220956
-0.0408838
0.0253941
-0.0456378
0.0282228
-0.0495262
0.0305541
-0.0525905
0.0324254
-0.0549512
0.0339126
-0.0567632
0.0351055
-0.0581811
0.0360896
-0.059338
0.0369364
-0.0603368
0.0376996
-0.0612498
0.0384168
-0.0621246
0.0391124
-0.0629899
0.0398016
-0.0638623
0.0404935
-0.0647508
0.0411938
-0.0656603
0.0419057
-0.0665934
0.0426316
-0.067552
0.0433732
-0.0685373
0.0441318
-0.0695504
0.0449084
-0.0705926
0.0457042
-0.0716652
0.0465199
-0.0727699
0.0473563
-0.073908
0.0482138
-0.0750808
0.0490923
-0.0762891
0.0499914
-0.0775332
0.0509098
-0.0788123
0.0518474
-0.080125
-0.0814805
0.0527968
0.000281348
-0.000894594
0.00120316
-0.00393669
0.00283583
-0.00821684
0.00518986
-0.0135874
0.00818322
-0.0197702
0.0116324
-0.0263586
0.0152811
-0.0328844
0.0188576
-0.0389193
0.0221353
-0.0441616
0.024971
-0.0484736
0.0273125
-0.0518676
0.0291821
-0.0544602
0.0306496
-0.0564187
0.0318043
-0.0579179
0.0327343
-0.0591111
0.0335145
-0.0601182
0.0342016
-0.0610239
0.0348353
-0.0618836
0.0354414
-0.0627307
0.0360357
-0.0635842
0.0366277
-0.0644543
0.037223
-0.0653461
0.0378251
-0.0662624
0.0384364
-0.0672047
0.0390584
-0.0681741
0.0396926
-0.0691715
0.0403402
-0.0701979
0.041002
-0.0712544
0.0416792
-0.0723424
0.0423726
-0.0734633
0.0430828
-0.0746182
0.0438102
-0.0758082
0.0445547
-0.0770337
0.0453156
-0.0782941
0.0460918
-0.0795885
0.0468828
-0.080916
-0.0822805
0.0476829
0.000328916
-0.00122351
0.00137034
-0.00497811
0.00316454
-0.010011
0.00567442
-0.0160973
0.00875711
-0.0228529
0.0121734
-0.0297749
0.0156389
-0.03635
0.0188929
-0.0421733
0.0217517
-0.0470203
0.0241286
-0.0508505
0.0260233
-0.0537623
0.0274945
-0.0559314
0.0286292
-0.0575534
0.0295182
-0.0588069
0.0302407
-0.0598336
0.0308577
-0.0607352
0.0314122
-0.0615784
0.0319322
-0.0624036
0.0324348
-0.0632333
0.0329302
-0.0640796
0.0334243
-0.0649483
0.0339206
-0.0658424
0.0344216
-0.0667634
0.0349289
-0.067712
0.035444
-0.0686891
0.0359679
-0.0696954
0.0365017
-0.0707317
0.0370465
-0.0717992
0.0376031
-0.072899
0.0381724
-0.0740326
0.0387549
-0.0752008
0.0393511
-0.0764044
0.0399605
-0.0776431
0.0405825
-0.0789161
0.0412161
-0.0802221
0.0418607
-0.0815606
-0.0829319
0.0425121
0.000376687
-0.0016002
0.00153077
-0.0061322
0.003463
-0.0119433
0.00608063
-0.0187149
0.00917987
-0.0259521
0.0124784
-0.0330735
0.0156854
-0.039557
0.0185708
-0.0450587
0.0210031
-0.0494526
0.0229491
-0.0527965
0.0244494
-0.0552627
0.0255851
-0.057067
0.0264484
-0.0584168
0.0271236
-0.0594821
0.0276775
-0.0603874
0.0281575
-0.0612153
0.028595
-0.0620159
0.0290091
-0.0628176
0.0294109
-0.0636351
0.0298069
-0.0644756
0.030201
-0.0653424
0.0305956
-0.066237
0.0309924
-0.0671602
0.0313928
-0.0681124
0.031798
-0.0690943
0.032209
-0.0701064
0.0326269
-0.0711495
0.0330524
-0.0722248
0.0334866
-0.0733332
0.0339302
-0.0744761
0.0343837
-0.0756543
0.0348473
-0.0768679
0.0353206
-0.0781164
0.0358029
-0.0793984
0.0362934
-0.0807126
0.0367914
-0.0820586
-0.083435
0.0372944
0.000422888
-0.00202309
0.00167774
-0.00738705
0.00371731
-0.0139828
0.00638848
-0.0213861
0.00943244
-0.0289961
0.012541
-0.0361821
0.0154372
-0.0424532
0.0179348
-0.0475563
0.0199555
-0.0514733
0.0215118
-0.0543527
0.0226722
-0.0564231
0.0235283
-0.0579231
0.0241693
-0.0590577
0.0246685
-0.0599813
0.0250797
-0.0607986
0.0254386
-0.0615742
0.0257672
-0.0623445
0.0260783
-0.0631288
0.0263793
-0.0639361
0.0266743
-0.0647706
0.026966
-0.0656341
0.0272561
-0.0665271
0.027546
-0.0674501
0.027837
-0.0684034
0.0281299
-0.0693873
0.0284259
-0.0704023
0.0287257
-0.0714494
0.0290303
-0.0725294
0.0293406
-0.0736435
0.029657
-0.0747926
0.0299803
-0.0759775
0.0303103
-0.0771979
0.0306466
-0.0784527
0.0309885
-0.0797403
0.0313353
-0.0810594
0.0316863
-0.0824096
-0.0837889
0.0320402
0.000465869
-0.00248895
0.00180537
-0.00872655
0.00391615
-0.0160936
0.0065843
-0.0240543
0.00950706
-0.0319189
0.0123694
-0.0390444
0.0149246
-0.0450083
0.017036
-0.0496677
0.0186744
-0.0531117
0.0198866
-0.0555649
0.0207579
-0.0572944
0.021381
-0.0585462
0.0218366
-0.0595133
0.0221861
-0.0603308
0.0224711
-0.0610836
0.0227176
-0.0618207
0.022941
-0.0625679
0.0231498
-0.0633375
0.0233487
-0.064135
0.0235406
-0.0649626
0.0237275
-0.0658209
0.0239107
-0.0667103
0.0240914
-0.0676309
0.0242707
-0.0685826
0.0244495
-0.069566
0.0246285
-0.0705814
0.0248087
-0.0716296
0.0249908
-0.0727115
0.0251757
-0.0738283
0.0253639
-0.0749809
0.0255558
-0.0761694
0.0257514
-0.0773935
0.0259502
-0.0786515
0.0261515
-0.0799416
0.0263546
-0.0812626
0.0265587
-0.0826137
-0.0839934
0.0267632
0.000505079
-0.00299403
0.00190987
-0.0101313
0.00405206
-0.0182358
0.00666138
-0.0266636
0.00940652
-0.034664
0.0119836
-0.0416215
0.0141868
-0.0472115
0.015929
-0.05141
0.0172214
-0.0544041
0.0181344
-0.0564779
0.0187602
-0.0579202
0.0191865
-0.0589725
0.0194835
-0.0598103
0.0197004
-0.0605477
0.0198689
-0.0612521
0.0200075
-0.0619594
0.0201268
-0.0626871
0.0202323
-0.063443
0.0203275
-0.0642302
0.0204143
-0.0650494
0.0204943
-0.0659009
0.0205686
-0.0667846
0.0206382
-0.0677005
0.020704
-0.0686485
0.0207669
-0.0696288
0.0208275
-0.070642
0.0208867
-0.0716887
0.0209451
-0.07277
0.0210035
-0.0738867
0.0210625
-0.0750398
0.0211222
-0.0762292
0.0211828
-0.077454
0.0212437
-0.0787125
0.0213045
-0.0800024
0.0213645
-0.0813226
0.0214233
-0.0826725
0.0214814
-0.0840515
8.35638e-05
-0.00243812
0.00235456
0.000210563
-0.00653359
0.00640659
0.000285649
-0.00988669
0.0098116
0.000248713
-0.0124839
0.0125208
7.45091e-05
-0.0143972
0.0145714
-0.000233508
-0.0157653
0.0160733
-0.000653316
-0.0167529
0.0171727
-0.00115503
-0.0175147
0.0180164
-0.00170806
-0.0181737
0.0187268
-0.00228502
-0.0188128
0.0193898
-0.00286288
-0.0194767
0.0200546
-0.0034222
-0.0201797
0.020739
-0.00394548
-0.0209143
0.0214376
-0.00441559
-0.0216594
0.0221295
-0.00481468
-0.0223849
0.022784
-0.0051237
-0.0230551
0.0233641
-0.0053226
-0.0236305
0.0238294
-0.00539072
-0.0240691
0.0241372
-0.00530746
-0.0243284
0.0242451
-0.00505617
-0.0243663
0.024115
-0.00461878
-0.0241433
0.0237059
-0.0039831
-0.0236244
0.0229887
-0.00314101
-0.0227814
0.0219393
-0.00208895
-0.0215929
0.0205408
-0.000828248
-0.0200455
0.0187848
0.000633415
-0.0181326
0.0166709
0.00228057
-0.0158533
0.0142061
0.00410162
-0.0132169
0.0113959
0.00607729
-0.0102285
0.00825283
0.00818488
-0.00689498
0.00478738
0.0104017
-0.00321977
0.00100296
0.0126944
0.000791231
-0.0030839
0.015068
0.00511785
-0.0074915
0.0174926
0.00980767
-0.0122323
0.0199666
0.0148567
-0.0173307
0.0225051
0.0202683
-0.0228068
0.0260333
0.0251609
-0.0286891
3.21555e-05
-0.00247028
3.39818e-05
-0.00653541
-6.56196e-05
-0.00978709
-0.000307275
-0.0122423
-0.000700018
-0.0140044
-0.00123148
-0.0152338
-0.0018776
-0.0161068
-0.00261073
-0.0167816
-0.00340527
-0.0173792
-0.00424009
-0.017978
-0.00509831
-0.0186185
-0.00596581
-0.0193122
-0.00682923
-0.0200509
-0.00767429
-0.0208143
-0.00848463
-0.0215746
-0.00924133
-0.0222984
-0.00992296
-0.0229489
-0.0105061
-0.023486
-0.0109665
-0.023868
-0.0112801
-0.0240527
-0.011424
-0.0239994
-0.0113779
-0.0236705
-0.011126
-0.0230332
-0.0106575
-0.0220614
-0.00996736
-0.0207356
-0.0090562
-0.0190438
-0.00792858
-0.0169809
-0.00659793
-0.0145476
-0.00507926
-0.0117472
-0.00339034
-0.0085839
-0.00155034
-0.00505977
0.000407296
-0.0011664
0.00247434
0.00305081
0.00465576
0.00762625
0.00695892
0.0125535
0.009404
0.0178232
0.0233858
0.0120516
-2.18933e-05
-0.00244839
-0.000145005
-0.0064123
-0.000413679
-0.00951841
-0.000845699
-0.0118102
-0.0014366
-0.0134135
-0.002167
-0.0145034
-0.00301177
-0.015262
-0.00394656
-0.0158468
-0.00495136
-0.0163744
-0.00601125
-0.0169181
-0.00711535
-0.0175144
-0.00825476
-0.0181727
-0.00942047
-0.0188852
-0.0106017
-0.0196331
-0.0117846
-0.0203917
-0.0129518
-0.0211312
-0.0140821
-0.0218185
-0.015151
-0.0224171
-0.0161311
-0.0228879
-0.0169934
-0.0231904
-0.0177086
-0.0232842
-0.0182488
-0.0231303
-0.0185891
-0.0226929
-0.0187093
-0.0219411
-0.0185951
-0.0208498
-0.0182384
-0.0194005
-0.017638
-0.0175812
-0.0167998
-0.0153858
-0.0157344
-0.0128125
-0.0144565
-0.00986181
-0.0129822
-0.00653413
-0.011323
-0.00282551
-0.00948779
0.00121556
-0.00746459
0.00560305
-0.00524896
0.0103379
-0.00282926
0.0154035
0.0207518
-0.000195347
-7.48745e-05
-0.00237351
-0.000317802
-0.00616937
-0.000742713
-0.0090935
-0.00134625
-0.0112067
-0.00211072
-0.0126491
-0.00301133
-0.0136028
-0.0040231
-0.0142502
-0.00512527
-0.0147446
-0.00630303
-0.0151966
-0.00754698
-0.0156742
-0.00885136
-0.01621
-0.0102119
-0.0168122
-0.0116236
-0.0174734
-0.0130795
-0.0181772
-0.0145694
-0.0189019
-0.0160786
-0.019622
-0.0175885
-0.0203086
-0.0190757
-0.0209299
-0.0205125
-0.021451
-0.021868
-0.021835
-0.0231085
-0.0220437
-0.0241999
-0.0220389
-0.0251087
-0.0217841
-0.0258042
-0.0212456
-0.0262604
-0.0203936
-0.026457
-0.019204
-0.0263804
-0.0176578
-0.0260241
-0.0157421
-0.0253879
-0.0134488
-0.0244756
-0.010774
-0.0232936
-0.00771614
-0.0218445
-0.0042746
-0.0201735
-0.000455473
-0.0182142
0.00364375
-0.0159913
0.00811496
-0.0135045
0.0129167
0.0180156
-0.0107682
-0.00012506
-0.00224845
-0.000477597
-0.00581684
-0.00104175
-0.00852935
-0.0017938
-0.0104546
-0.00270451
-0.0117384
-0.00374476
-0.0125625
-0.00489013
-0.0131049
-0.00612313
-0.0135116
-0.00743322
-0.0138865
-0.00881533
-0.0142921
-0.0102676
-0.0147578
-0.0117893
-0.0152905
-0.013379
-0.0158838
-0.0150329
-0.0165232
-0.0167445
-0.0171903
-0.0185031
-0.0178634
-0.0202935
-0.0185182
-0.0220957
-0.0191276
-0.0238849
-0.0196619
-0.0256312
-0.0200887
-0.0273008
-0.0203741
-0.0288567
-0.020483
-0.0302603
-0.0203806
-0.031473
-0.0200329
-0.032458
-0.0194086
-0.0331822
-0.0184798
-0.0336173
-0.0172227
-0.0337411
-0.0156184
-0.0335373
-0.0136526
-0.0329958
-0.0113156
-0.03211
-0.0086019
-0.0308806
-0.00550402
-0.0293175
-0.00201855
-0.0274135
0.00173973
-0.0251594
0.00586089
-0.0225782
0.0103354
0.0151436
-0.0197062
-0.000170262
-0.00207819
-0.000619031
-0.00536807
-0.00130231
-0.00784607
-0.00217788
-0.00957908
-0.00320656
-0.0107097
-0.00435571
-0.0114134
-0.00560141
-0.0118592
-0.00692868
-0.0121843
-0.00833007
-0.0124852
-0.00980334
-0.0128188
-0.0113491
-0.013212
-0.0129687
-0.013671
-0.0146626
-0.0141898
-0.0164298
-0.0147561
-0.0182661
-0.0153539
-0.0201645
-0.0159651
-0.0221137
-0.016569
-0.0240982
-0.0171431
-0.0260975
-0.0176625
-0.0280861
-0.0181
-0.0300336
-0.0184266
-0.0319051
-0.0186116
-0.0336618
-0.0186238
-0.0352626
-0.0184321
-0.0366652
-0.018006
-0.0378278
-0.0173172
-0.0387106
-0.0163399
-0.0392774
-0.0150515
-0.0394965
-0.0134335
-0.0393415
-0.0114706
-0.0387923
-0.00915114
-0.0378312
-0.00646509
-0.0364521
-0.00339763
-0.0347098
-2.53281e-06
-0.0325299
0.00368092
-0.0299491
0.00775464
0.0121969
-0.0270024
-0.000208907
-0.00186928
-0.000738159
-0.00483881
-0.00151862
-0.00706561
-0.00249201
-0.00860569
-0.00361073
-0.00959096
-0.00483917
-0.010185
-0.00615367
-0.0105447
-0.00754087
-0.0107971
-0.0089951
-0.0110309
-0.0105155
-0.0112984
-0.0121037
-0.0116239
-0.0137613
-0.0120133
-0.0154896
-0.0124615
-0.0172878
-0.0129579
-0.019153
-0.0134887
-0.02108
-0.0140381
-0.0230601
-0.0145889
-0.0250812
-0.0151221
-0.0271272
-0.0156165
-0.0291777
-0.0160495
-0.0312078
-0.0163965
-0.0331878
-0.0166316
-0.0350838
-0.0167279
-0.0368578
-0.016658
-0.0384689
-0.0163949
-0.0398739
-0.0159123
-0.0410285
-0.0151853
-0.041889
-0.0141911
-0.0424132
-0.0129093
-0.0425622
-0.0113216
-0.0423003
-0.009413
-0.0415981
-0.00716734
-0.0404302
-0.0045655
-0.0388362
-0.00159656
-0.0367879
0.00163263
-0.0342555
0.00522228
0.00919315
-0.0312517
-0.00023984
-0.00162944
-0.000832238
-0.00424642
-0.00168698
-0.00621086
-0.00273249
-0.00756018
-0.00391427
-0.00840918
-0.00519421
-0.00890501
-0.00654856
-0.00919032
-0.00796472
-0.00938098
-0.00943774
-0.00955789
-0.010967
-0.00976912
-0.0125536
-0.0100373
-0.0141984
-0.0103684
-0.0159015
-0.0107584
-0.0176611
-0.0111983
-0.0194734
-0.0116764
-0.0213324
-0.0121791
-0.0232298
-0.0126916
-0.0251544
-0.0131974
-0.0270922
-0.0136787
-0.0290259
-0.0141158
-0.0309347
-0.0144876
-0.0327945
-0.0147718
-0.0345772
-0.0149451
-0.0362513
-0.0149839
-0.0377818
-0.0148644
-0.0391305
-0.0145636
-0.0402563
-0.0140594
-0.0411161
-0.0133313
-0.0416652
-0.0123602
-0.0418576
-0.0111292
-0.0416486
-0.00962203
-0.0409919
-0.00782403
-0.0398423
-0.0057151
-0.0381747
-0.0032641
-0.036075
-0.000467128
-0.033406
0.00255326
0.00596023
-0.030173
-0.000262213
-0.00136723
-0.000899341
-0.00360929
-0.00180491
-0.00530529
-0.00289702
-0.00646806
-0.00411582
-0.00719038
-0.00542109
-0.00759973
-0.00678867
-0.00782274
-0.00820608
-0.00796357
-0.00966825
-0.00809572
-0.0111739
-0.00826346
-0.0127229
-0.00848836
-0.0143144
-0.00877685
-0.0159463
-0.00912654
-0.0176144
-0.00953026
-0.0193124
-0.00997834
-0.021032
-0.0104595
-0.0227625
-0.0109611
-0.0244911
-0.0114689
-0.0262025
-0.0119673
-0.0278793
-0.012439
-0.0295016
-0.0128653
-0.0310471
-0.0132262
-0.0324915
-0.0135008
-0.0338077
-0.0136677
-0.0349665
-0.0137056
-0.0359364
-0.0135938
-0.0366831
-0.0133127
-0.03717
-0.0128444
-0.0373573
-0.0121729
-0.0372021
-0.0112844
-0.0366572
-0.0101669
-0.0356712
-0.00881003
-0.034185
-0.00720136
-0.0321337
-0.00531537
-0.0294829
-0.00311794
-0.0263035
-0.000626069
0.00209938
-0.0224427
-0.000275394
-0.00109184
-0.000938004
-0.00294668
-0.0018704
-0.0043729
-0.00298353
-0.00535493
-0.00421363
-0.00596029
-0.00551874
-0.00629462
-0.00687403
-0.00646745
-0.00826658
-0.00657101
-0.00969062
-0.00667168
-0.0111437
-0.00681041
-0.0126239
-0.00700817
-0.0141283
-0.00727246
-0.015652
-0.00760278
-0.0171881
-0.00799423
-0.0187269
-0.00843951
-0.0202567
-0.00892968
-0.0217634
-0.00945435
-0.0232308
-0.0100016
-0.0246404
-0.0105577
-0.0259721
-0.0111073
-0.0272039
-0.0116335
-0.0283124
-0.0121177
-0.029273
-0.0125403
-0.0300596
-0.0128811
-0.0306454
-0.0131198
-0.0310023
-0.0132368
-0.0311012
-0.0132138
-0.0309113
-0.0130343
-0.0303999
-0.0126842
-0.0295318
-0.0121526
-0.0282672
-0.0114315
-0.0265614
-0.0105158
-0.0243608
-0.00940202
-0.0215883
-0.00808787
-0.0181604
-0.0065458
-0.0140839
-0.00470264
-0.00273719
-0.00924728
-0.00027891
-0.000812927
-0.000947041
-0.00227855
-0.00188162
-0.00343832
-0.00298957
-0.00424698
-0.00420461
-0.00474525
-0.00548334
-0.00501589
-0.00679994
-0.00515085
-0.0081405
-0.00523046
-0.00949796
-0.00531422
-0.0108682
-0.00544021
-0.0122471
-0.00562923
-0.0136293
-0.00589022
-0.0150072
-0.00622495
-0.0163703
-0.00663112
-0.0177057
-0.00710406
-0.018998
-0.00763738
-0.0202293
-0.00822309
-0.0213794
-0.00885141
-0.0224265
-0.00951061
-0.0233469
-0.0101869
-0.024116
-0.0108644
-0.0247081
-0.0115256
-0.0250972
-0.0121512
-0.0252569
-0.0127213
-0.0251609
-0.0132158
-0.0247829
-0.0136149
-0.0240962
-0.0139005
-0.0230741
-0.0140564
-0.0216888
-0.0140696
-0.0199106
-0.0139307
-0.0177077
-0.0136344
-0.0150433
-0.0131802
-0.0118724
-0.0125729
-0.00814205
-0.0118182
-0.0037443
-0.0109435
0.0014342
-0.00988114
-0.00866297
0.00735997
-0.000272484
-0.000540444
-0.000925646
-0.00162538
-0.001837
-0.00252697
-0.00291253
-0.00317145
-0.0040847
-0.00357308
-0.00530877
-0.00379182
-0.00655746
-0.00390216
-0.00781515
-0.00397277
-0.00907271
-0.00405665
-0.0103236
-0.00418937
-0.0115609
-0.00439192
-0.0127761
-0.00467504
-0.0139579
-0.00504308
-0.0150924
-0.00549663
-0.0161626
-0.00603386
-0.0171489
-0.00665106
-0.0180294
-0.00734263
-0.0187801
-0.00810077
-0.0193754
-0.00891527
-0.0197889
-0.00977334
-0.0199938
-0.0106596
-0.0199631
-0.0115562
-0.0196707
-0.0124436
-0.0190912
-0.0133008
-0.0182006
-0.0141065
-0.0169756
-0.0148399
-0.0153943
-0.0154818
-0.0134349
-0.0160158
-0.0110757
-0.0164289
-0.0082939
-0.0167125
-0.00506513
-0.0168632
-0.00136259
-0.0168827
0.00284853
-0.016784
0.00759168
-0.0165614
0.0129716
-0.0163234
0.0188959
-0.0158055
-0.0159152
0.0261482
-0.000256175
-0.000284268
-0.000873795
-0.00100776
-0.00173608
-0.00166469
-0.00275091
-0.00215661
-0.0038506
-0.0024734
-0.00498902
-0.0026534
-0.00613675
-0.00275443
-0.00727546
-0.00283406
-0.00839289
-0.00293922
-0.00947888
-0.00310338
-0.0105227
-0.00334811
-0.0115114
-0.00368629
-0.0124294
-0.00412515
-0.0132576
-0.00466839
-0.0139743
-0.00531715
-0.014555
-0.00607036
-0.0149731
-0.0069245
-0.0152007
-0.00787325
-0.0152088
-0.00890713
-0.0149689
-0.0100132
-0.0144533
-0.0111752
-0.0136357
-0.0123738
-0.0124924
-0.0135869
-0.0110022
-0.0147911
-0.00914636
-0.0159623
-0.00690893
-0.0170773
-0.00427637
-0.0181143
-0.00123642
-0.0190557
0.00222245
-0.0198877
0.00611204
-0.0206021
0.0104459
-0.0211971
0.0152366
-0.0216735
0.0205123
-0.0220597
0.0262604
-0.0223094
0.0325945
-0.0226576
0.0393205
-0.0225314
-0.0236091
0.0470144
-0.000230621
-5.36471e-05
-0.000792843
-0.000445542
-0.00158063
-0.0008769
-0.0025062
-0.00123104
-0.00350263
-0.00147697
-0.00452227
-0.00163375
-0.00553276
-0.00174394
-0.00651193
-0.00185488
-0.00744309
-0.00200806
-0.00831121
-0.00223527
-0.00910031
-0.00255901
-0.00979201
-0.00299458
-0.0103649
-0.0035523
-0.0107943
-0.00423898
-0.0110529
-0.00505857
-0.0111111
-0.00601217
-0.010938
-0.00709758
-0.0105024
-0.0083088
-0.00977403
-0.00963553
-0.00872431
-0.0110629
-0.00732782
-0.0125717
-0.00556283
-0.0141388
-0.00341234
-0.0157374
-0.000863989
-0.0173394
0.0020898
-0.0189161
0.00545203
-0.0204395
0.00922317
-0.0218855
0.0134007
-0.0232333
0.017981
-0.024468
0.02296
-0.0255811
0.0283355
-0.0265726
0.0341033
-0.0274412
0.0402737
-0.0282301
0.0468212
-0.0288569
0.0538176
-0.029654
0.0611153
-0.0298291
-0.0314501
0.0689562
-0.000197344
0.000143697
-0.000686126
4.32398e-05
-0.00137602
-0.000187003
-0.002185
-0.000422063
-0.00304785
-0.00061412
-0.0039154
-0.000766204
-0.00475156
-0.000907779
-0.00552932
-0.00107712
-0.00622642
-0.00131096
-0.00682186
-0.00163983
-0.00729353
-0.00208734
-0.00761686
-0.00267125
-0.00776436
-0.00340479
-0.00770588
-0.00429746
-0.00740923
-0.00535523
-0.00684121
-0.00658018
-0.00596895
-0.00796984
-0.00476128
-0.00951647
-0.00319026
-0.0112066
-0.00123257
-0.0130206
0.00112928
-0.0149336
0.00390561
-0.0169151
0.00710028
-0.018932
0.0107097
-0.0209489
0.014724
-0.0229303
0.019128
-0.0248435
0.0239022
-0.0266597
0.0290251
-0.0283562
0.0344742
-0.0299171
0.0402276
-0.0313344
0.0462645
-0.0326096
0.0525674
-0.033744
0.0591178
-0.0347805
0.0659054
-0.0356446
0.0729005
-0.036649
0.0801252
-0.0370539
-0.0387568
0.0874319
-0.000157612
0.000301309
-0.000560642
0.00044627
-0.00113222
0.000384574
-0.00180054
0.000246259
-0.00250237
8.77102e-05
-0.00318727
-8.13029e-05
-0.00381478
-0.00028027
-0.00435254
-0.000539368
-0.00477204
-0.000891456
-0.00504586
-0.00136601
-0.00514554
-0.00198765
-0.0050406
-0.0027762
-0.00469836
-0.00374703
-0.00408459
-0.00491123
-0.00316462
-0.0062752
-0.00190483
-0.00783998
-0.000274443
-0.00960022
0.00175254
-0.0115435
0.00419556
-0.0136496
0.00706585
-0.0158909
0.0103654
-0.0182331
0.0140865
-0.0206362
0.0182117
-0.0230572
0.0227149
-0.0254521
0.0275631
-0.0277785
0.0327182
-0.0299986
0.0381393
-0.0320809
0.0437852
-0.0340021
0.0496162
-0.0357482
0.055596
-0.0373142
0.0616915
-0.0387051
0.067878
-0.0399305
0.0741206
-0.0410231
0.0804315
-0.0419554
0.0867081
-0.0429257
0.0931233
-0.043469
-0.0448966
0.099263
-0.000115544
0.000416853
-0.000422349
0.000753075
-0.000862364