/*--------------------------------*- C++ -*----------------------------------*\
| =========                 |                                                 |
| \\      /  F ield         | OpenFOAM: The Open Source CFD Toolbox           |
|  \\    /   O peration     | Version:  2312                                  |
|   \\  /    A nd           | Website:  www.openfoam.com                      |
|    \\/     M anipulation  |                                                 |
\*---------------------------------------------------------------------------*/
FoamFile
{
    version     2.0;
    format      ascii;
    arch        "LSB;label=32;scalar=64";
    class       volScalarField;
    location    "12.5";
    object      p;
}
// * * * * * * * * * * * * * * * * * * * * * * * * * * * * * * * * * * * * * //

dimensions      [0 2 -2 0 0 0 0];

internalField   nonuniform List<scalar> 
9200
(
-0.610274
-0.669776
-0.719888
-0.755371
-0.76531
-0.736566
-0.690145
-0.628875
-0.582643
-0.563876
-0.557305
-0.55331
-0.549448
-0.542599
-0.532152
-0.516441
-0.494851
-0.472129
-0.442009
-0.412268
-0.578135
-0.614874
-0.694407
-0.810684
-0.882923
-0.871344
-0.787763
-0.686384
-0.606488
-0.564037
-0.540224
-0.524064
-0.509966
-0.496619
-0.482399
-0.465598
-0.447372
-0.424566
-0.398686
-0.370329
-0.546869
-0.564383
-0.633627
-0.756207
-0.84585
-0.847342
-0.757091
-0.651738
-0.571215
-0.525557
-0.499764
-0.480528
-0.46479
-0.449744
-0.43379
-0.415756
-0.397227
-0.379728
-0.360301
-0.338407
-0.474648
-0.473698
-0.508284
-0.56122
-0.654891
-0.690399
-0.641144
-0.571615
-0.516236
-0.482109
-0.458113
-0.437892
-0.419046
-0.402159
-0.387494
-0.370999
-0.352469
-0.333609
-0.314623
-0.298377
-0.399245
-0.378587
-0.333992
-0.386835
-0.482394
-0.539953
-0.531637
-0.495411
-0.459991
-0.43686
-0.419398
-0.402481
-0.385482
-0.368795
-0.353571
-0.339948
-0.3262
-0.310466
-0.293314
-0.275692
-0.372165
-0.358573
-0.289428
-0.321403
-0.396645
-0.44849
-0.457157
-0.438583
-0.411679
-0.388856
-0.374522
-0.361908
-0.347797
-0.332687
-0.317499
-0.303382
-0.289907
-0.277167
-0.264266
-0.25136
-0.399566
-0.321836
-0.316604
-0.333575
-0.367076
-0.392084
-0.400036
-0.393332
-0.378239
-0.3592
-0.34
-0.325246
-0.312998
-0.29972
-0.285901
-0.271544
-0.257877
-0.244283
-0.231115
-0.219121
-0.481297
-0.458907
-0.374329
-0.348629
-0.353294
-0.358906
-0.357223
-0.348751
-0.337465
-0.326183
-0.313809
-0.298619
-0.2851
-0.273689
-0.262473
-0.251888
-0.240314
-0.228235
-0.216134
-0.202794
-0.434717
-0.502259
-0.403939
-0.350337
-0.339218
-0.335506
-0.330359
-0.319124
-0.304429
-0.289553
-0.276734
-0.264968
-0.251943
-0.238799
-0.226772
-0.215812
-0.205867
-0.196355
-0.187164
-0.177827
-0.315514
-0.371834
-0.379219
-0.345833
-0.326014
-0.313964
-0.305166
-0.294771
-0.281126
-0.266298
-0.251555
-0.237617
-0.226263
-0.215319
-0.204069
-0.19336
-0.182499
-0.172498
-0.163292
-0.154398
-0.721855
-0.684769
-0.714259
-0.771815
-0.850045
-0.938827
-1.03079
-1.12052
-1.20641
-1.2865
-1.36183
-1.43108
-1.49243
-1.54163
-1.56858
-1.56672
-1.52984
-1.46067
-1.35031
-1.2034
-0.816258
-0.764681
-0.796048
-0.845811
-0.915859
-0.997714
-1.08649
-1.17619
-1.26511
-1.35162
-1.43511
-1.51238
-1.57867
-1.63879
-1.66952
-1.67769
-1.6467
-1.57744
-1.47197
-1.31854
-0.851052
-0.807315
-0.835576
-0.877007
-0.939363
-1.01498
-1.09918
-1.18413
-1.271
-1.3577
-1.43791
-1.51449
-1.57279
-1.62007
-1.64949
-1.64494
-1.60982
-1.53709
-1.43892
-1.29575
-0.831327
-0.804655
-0.831629
-0.868502
-0.921756
-0.987168
-1.06022
-1.13557
-1.21326
-1.29768
-1.37138
-1.44133
-1.49698
-1.52628
-1.54822
-1.53942
-1.49027
-1.41026
-1.3071
-1.16753
-0.764771
-0.764667
-0.797605
-0.826224
-0.863219
-0.911684
-0.966233
-1.02722
-1.09225
-1.16364
-1.23047
-1.2861
-1.33416
-1.35438
-1.36066
-1.34776
-1.29775
-1.22554
-1.13645
-1.02127
-0.712297
-0.720761
-0.749781
-0.761732
-0.774305
-0.794739
-0.821751
-0.864297
-0.914187
-0.963005
-1.01822
-1.06927
-1.11318
-1.13403
-1.13419
-1.11941
-1.07689
-1.01124
-0.930978
-0.839825
-0.728412
-0.739468
-0.730569
-0.70387
-0.672807
-0.657281
-0.659647
-0.679242
-0.717173
-0.757038
-0.808921
-0.854783
-0.896141
-0.921201
-0.926315
-0.915302
-0.887327
-0.84326
-0.786605
-0.713378
-0.751268
-0.742986
-0.727822
-0.667937
-0.593768
-0.529153
-0.49208
-0.486298
-0.516509
-0.577871
-0.640641
-0.697513
-0.741502
-0.769396
-0.781225
-0.776083
-0.755035
-0.720326
-0.680065
-0.626206
-0.776384
-0.791685
-0.765236
-0.665084
-0.542027
-0.456012
-0.423456
-0.423704
-0.456931
-0.512087
-0.566548
-0.617244
-0.653933
-0.675988
-0.681322
-0.674511
-0.656669
-0.629119
-0.596991
-0.554214
-0.730095
-0.778484
-0.766895
-0.704623
-0.617974
-0.557516
-0.522261
-0.500402
-0.504883
-0.527344
-0.556028
-0.58
-0.596111
-0.602291
-0.597237
-0.584872
-0.564977
-0.541194
-0.514576
-0.48501
-1.012
-0.754259
-0.486742
-0.267984
-0.117402
-0.0162324
0.0439237
0.0821767
0.104309
0.11558
0.119159
0.117047
0.110604
0.100735
0.0890913
0.077631
0.0673874
0.0583114
0.0502416
0.0432218
0.0371713
0.0320776
0.0276797
0.0238777
0.0206605
0.017929
0.0154281
0.0132249
0.011197
0.00940025
0.00786103
0.00656201
0.00548139
0.00458417
0.00384812
0.00323451
0.00273982
0.00232298
0.00199004
0.00170495
0.00147513
0.00128603
0.0011055
0.000979159
0.000818884
0.000704635
0.000567852
0.000413165
0.00026973
8.45031e-05
-1.13553
-0.890557
-0.591052
-0.332591
-0.151236
-0.0367559
0.0300102
0.0672096
0.0882021
0.100237
0.105298
0.104519
0.0998419
0.0923292
0.082849
0.0730665
0.06411
0.0560473
0.0486777
0.0420791
0.0363767
0.0315152
0.0272817
0.023617
0.0205276
0.0179297
0.0155186
0.0133051
0.0112462
0.00941066
0.00784029
0.00652422
0.00543562
0.00453697
0.00380059
0.00319126
0.00269801
0.00228483
0.00195295
0.00167182
0.00144784
0.00125834
0.00108808
0.000957541
0.000808167
0.000693152
0.000560608
0.000409799
0.000264198
8.08874e-05
-1.0979
-0.880648
-0.638862
-0.386544
-0.1896
-0.0620635
0.0111249
0.0496341
0.0698363
0.0812435
0.0871893
0.0890459
0.0874913
0.0828334
0.0758501
0.0678702
0.0602306
0.0532911
0.0468258
0.0407978
0.0354169
0.0307434
0.0267029
0.023238
0.0202748
0.0177182
0.0154919
0.0132624
0.0112324
0.00940758
0.00783063
0.00650378
0.00540546
0.00450159
0.0037612
0.00315426
0.00266171
0.00225277
0.00192112
0.00164345
0.00142327
0.0012334
0.00107298
0.000937726
0.000799708
0.000682501
0.000555202
0.000407883
0.000261143
7.50495e-05
-0.973624
-0.809065
-0.635201
-0.437709
-0.257526
-0.124536
-0.0358141
0.0160416
0.0428426
0.057634
0.0664102
0.070866
0.0722549
0.070971
0.0671792
0.061628
0.0555845
0.049857
0.0444402
0.0391366
0.0340914
0.029601
0.0258112
0.0226218
0.0198688
0.0174131
0.0152993
0.0130083
0.0110536
0.00928556
0.00774276
0.00643819
0.00535279
0.0044574
0.00372035
0.00311831
0.00262572
0.00222057
0.00189034
0.00161705
0.00140135
0.00121102
0.00106089
0.00092151
0.000795972
0.000676493
0.000555953
0.000410778
0.000263756
7.58268e-05
-0.848722
-0.705899
-0.594675
-0.449442
-0.297498
-0.176638
-0.0915777
-0.0357934
-0.00014411
0.0250821
0.0418174
0.0512499
0.0561712
0.0583553
0.0575488
0.0544845
0.0503156
0.0459514
0.041655
0.0372805
0.0328348
0.0286594
0.0250333
0.022009
0.0194306
0.0170833
0.0149365
0.0127846
0.0109066
0.00918651
0.00766282
0.00636656
0.0052843
0.0043925
0.00365946
0.00306593
0.00257774
0.00218007
0.0018535
0.00158726
0.00137699
0.00118897
0.00104796
0.000905435
0.000790681
0.000669356
0.000555348
0.000413498
0.000266131
7.44778e-05
-0.720603
-0.626497
-0.54147
-0.436502
-0.327127
-0.220695
-0.129117
-0.0699251
-0.0332373
-0.00596674
0.015146
0.0299856
0.0393146
0.0447996
0.0475146
0.0472583
0.0448916
0.0416468
0.0382563
0.0347382
0.0309089
0.0270552
0.0236954
0.0209604
0.0186529
0.0165126
0.0144376
0.0123959
0.010656
0.00902189
0.00755766
0.00629976
0.00523706
0.00435522
0.00362567
0.00303599
0.00254613
0.00215078
0.00182407
0.00156083
0.00135339
0.00116574
0.00103304
0.000887893
0.000783609
0.000660691
0.000553235
0.000413737
0.000266072
7.06928e-05
-0.62101
-0.563694
-0.504147
-0.42301
-0.338569
-0.262178
-0.18328
-0.112595
-0.0630366
-0.0294239
-0.00503819
0.0128981
0.0245996
0.0319301
0.0366124
0.0390623
0.0390679
0.0374756
0.0352612
0.0327026
0.0295914
0.0261762
0.023026
0.0203861
0.0181851
0.0161589
0.0141267
0.0122674
0.0104487
0.00882571
0.0073898
0.00615904
0.00511732
0.00425355
0.00353937
0.00296443
0.00248401
0.00209973
0.00178052
0.00152602
0.00132572
0.00114255
0.00101937
0.000873983
0.000780119
0.000656754
0.000556051
0.000419146
0.000272181
7.6558e-05
-0.557274
-0.517429
-0.47275
-0.409266
-0.342214
-0.277547
-0.217491
-0.157428
-0.105192
-0.0627617
-0.0303788
-0.00633629
0.0101879
0.0203742
0.026695
0.0306792
0.0319892
0.0314662
0.0304295
0.029044
0.0268729
0.0240211
0.0212224
0.0189028
0.0170175
0.0153256
0.0136045
0.0121936
0.0102307
0.00867421
0.00729016
0.00609125
0.00506454
0.00420947
0.00349901
0.00292847
0.00244799
0.00206796
0.00174912
0.00149914
0.00130006
0.00112045
0.00100119
0.000857404
0.000769785
0.000647593
0.000551981
0.000418558
0.000272474
7.29078e-05
-0.499046
-0.470713
-0.439199
-0.39007
-0.336246
-0.282831
-0.232423
-0.180791
-0.133451
-0.091728
-0.056993
-0.0293189
-0.00803739
0.00688555
0.0170821
0.0236558
0.0269443
0.0276999
0.0274113
0.0267255
0.0253414
0.0230417
0.0205927
0.0183967
0.0165041
0.0148325
0.0132137
0.0116978
0.0099266
0.00841481
0.00707022
0.005911
0.00491873
0.00409252
0.00340461
0.00285102
0.00238309
0.00201448
0.00170434
0.00146236
0.0012697
0.00109696
0.000984131
0.000845073
0.000763854
0.000643966
0.000553246
0.000422367
0.000277646
8.13979e-05
-0.461313
-0.447285
-0.424233
-0.388533
-0.345849
-0.299305
-0.254561
-0.210397
-0.167612
-0.126635
-0.0896981
-0.0590474
-0.0340303
-0.0146184
-0.000634238
0.00947468
0.0162554
0.0196557
0.0209935
0.021609
0.021468
0.0204005
0.0187165
0.0169856
0.015437
0.0140279
0.0126451
0.0111617
0.00976053
0.00827912
0.0069539
0.00581265
0.00483434
0.00402071
0.00334078
0.00279489
0.00233132
0.00197092
0.00166465
0.00143143
0.00124088
0.00107714
0.000964789
0.000833629
0.000753278
0.000639321
0.000549624
0.000424351
0.000280932
8.89437e-05
-0.396817
-0.403709
-0.389126
-0.356515
-0.318231
-0.279035
-0.240124
-0.200031
-0.158914
-0.121055
-0.0884833
-0.0613331
-0.0383902
-0.0201678
-0.00683571
0.00324411
0.0106009
0.0149337
0.0172104
0.0185743
0.0190368
0.0184597
0.0170993
0.0154959
0.0140721
0.012914
0.0118377
0.0105545
0.00959957
0.00795958
0.0067061
0.00563027
0.004699
0.00391785
0.00326216
0.00273086
0.00227961
0.00192692
0.00162753
0.00140059
0.00121184
0.00105771
0.00094266
0.000823879
0.000740172
0.000635492
0.000544532
0.000424252
0.000281279
9.66672e-05
-0.347972
-0.364095
-0.352119
-0.321687
-0.286355
-0.25066
-0.216481
-0.183656
-0.151371
-0.120099
-0.0912191
-0.0664962
-0.0448119
-0.026644
-0.0136228
-0.00380816
0.00391422
0.00887228
0.01174
0.0137077
0.0148304
0.0149417
0.0142393
0.0131566
0.0121448
0.0113485
0.0105924
0.00962001
0.00837666
0.00721004
0.00611577
0.00517875
0.00435754
0.0036561
0.00306015
0.00257179
0.00215594
0.00182805
0.00155142
0.00133965
0.00116554
0.0010239
0.000916152
0.000809123
0.000728105
0.000631392
0.000543541
0.000425148
0.000286886
0.000109769
-0.30499
-0.320887
-0.312918
-0.29003
-0.262984
-0.234798
-0.205702
-0.176849
-0.148867
-0.121861
-0.0962258
-0.0729978
-0.0521672
-0.0342629
-0.0205748
-0.00984872
-0.00131903
0.0041481
0.00755715
0.0102281
0.0118975
0.012347
0.012073
0.0114667
0.0107855
0.0101898
0.00959284
0.00876917
0.00842696
0.00660317
0.00558544
0.00473856
0.00399354
0.00335666
0.00281642
0.00237247
0.00199682
0.00169952
0.00145132
0.00125942
0.00110387
0.000975822
0.000878895
0.000782404
0.000708335
0.000618802
0.000536574
0.000421826
0.000287501
0.000110996
-0.26745
-0.282204
-0.279592
-0.26218
-0.23883
-0.213576
-0.187638
-0.162512
-0.13826
-0.11449
-0.0916575
-0.0717373
-0.0544065
-0.0384374
-0.0254251
-0.0151742
-0.00669568
-0.000760768
0.00312436
0.00615281
0.00821658
0.009242
0.00962612
0.00939468
0.00888687
0.00846229
0.00810425
0.00743912
0.00599151
0.00568455
0.00491565
0.0042133
0.00358226
0.00303144
0.00255713
0.0021626
0.00182977
0.00156303
0.00134183
0.00116799
0.00103026
0.000916517
0.000830322
0.000746794
0.000678065
0.000598556
0.000519197
0.000410909
0.00027673
9.96101e-05
-0.233432
-0.247787
-0.247497
-0.234222
-0.215292
-0.194224
-0.172587
-0.151778
-0.132125
-0.11338
-0.0948712
-0.077081
-0.060274
-0.0445252
-0.0316561
-0.0214369
-0.0127906
-0.0066877
-0.00239507
0.0015133
0.00438645
0.00586489
0.00651525
0.00680726
0.00682277
0.00686947
0.0068851
0.00647619
0.00568468
0.0049103
0.00426793
0.00368781
0.00315738
0.00268822
0.0022789
0.00193416
0.00164441
0.00140984
0.00121857
0.00106709
0.00095147
0.00085459
0.000781471
0.000711388
0.000648462
0.000579831
0.000502454
0.000400979
0.000268259
9.66439e-05
-0.203371
-0.216947
-0.218419
-0.208563
-0.193207
-0.176023
-0.158639
-0.141687
-0.12456
-0.107525
-0.0906335
-0.0745188
-0.0600651
-0.0464634
-0.034555
-0.0247045
-0.0160394
-0.00958656
-0.00514194
-0.00132972
0.00154971
0.00326037
0.00450887
0.00521453
0.00526441
0.00531991
0.00541004
0.00515911
0.00445497
0.00400641
0.00353615
0.00309477
0.00267939
0.0023004
0.00196165
0.00167291
0.00143401
0.00124137
0.00108713
0.000963589
0.000871072
0.000792866
0.000733191
0.000676989
0.000622733
0.000563053
0.000491834
0.000395122
0.000267435
0.000102797
-0.177592
-0.189742
-0.192019
-0.184873
-0.173201
-0.159745
-0.145165
-0.130212
-0.115653
-0.101863
-0.0882081
-0.074538
-0.0617627
-0.0495886
-0.038836
-0.0298185
-0.0215369
-0.0151337
-0.0105878
-0.00628098
-0.00272535
-0.000530588
0.00101226
0.00215078
0.00278627
0.00329988
0.00378093
0.00386887
0.00351798
0.0031365
0.00278604
0.00246702
0.00215991
0.00187026
0.00160847
0.0013874
0.00120905
0.0010629
0.000945903
0.00085015
0.000780585
0.000723557
0.000678153
0.000639241
0.000594081
0.000544453
0.000482452
0.000388329
0.000268404
0.000105983
-0.155067
-0.165602
-0.168412
-0.163736
-0.154834
-0.143649
-0.131535
-0.119722
-0.1081
-0.0963686
-0.0843233
-0.0724466
-0.0616438
-0.0511994
-0.0413075
-0.0325877
-0.0244277
-0.0177863
-0.0129542
-0.00864106
-0.00512522
-0.00283537
-0.00094567
0.000542103
0.00127261
0.00180605
0.00238462
0.00263202
0.00245512
0.00219465
0.00198122
0.0017907
0.00159529
0.00140288
0.00123131
0.00108598
0.000966658
0.000863885
0.000784435
0.000719916
0.000677703
0.000645004
0.000616513
0.000596749
0.000560688
0.000524156
0.000469943
0.000379919
0.00026825
0.000104585
-0.134825
-0.144252
-0.147477
-0.144441
-0.13759
-0.128859
-0.119419
-0.109755
-0.0997376
-0.089851
-0.0801051
-0.0703777
-0.0610227
-0.0516211
-0.0426555
-0.0347365
-0.0273076
-0.0211634
-0.0166011
-0.0123241
-0.00864685
-0.0061462
-0.00404715
-0.00222397
-0.00110751
-0.000274197
0.00060216
0.00116183
0.00125605
0.00118905
0.00112935
0.00107262
0.000994608
0.000909051
0.000831095
0.000756714
0.00069349
0.000639187
0.000604913
0.000577989
0.000566408
0.000559875
0.000550308
0.000549794
0.000525424
0.000502019
0.0004557
0.000372467
0.000266735
0.000103029
-0.117101
-0.125636
-0.12902
-0.12721
-0.122203
-0.115386
-0.107642
-0.0996495
-0.0915869
-0.0837527
-0.075727
-0.0673332
-0.0592399
-0.0511921
-0.0434704
-0.0365064
-0.0297294
-0.0238313
-0.0191977
-0.0148296
-0.0111398
-0.00861293
-0.00632043
-0.00418094
-0.00282991
-0.00187112
-0.000876189
-0.000155339
0.000108249
0.000178165
0.000252034
0.000321976
0.000363565
0.000384486
0.000394297
0.000391669
0.000393741
0.000397609
0.000413229
0.000426146
0.000446241
0.000467851
0.000478965
0.000499129
0.000488922
0.000477805
0.000442445
0.00036558
0.000264559
0.000103009
-0.101986
-0.109374
-0.112669
-0.111787
-0.108096
-0.102698
-0.0965752
-0.0903096
-0.0838318
-0.0774103
-0.0707614
-0.0637857
-0.0570984
-0.0503188
-0.0436018
-0.0373845
-0.0312228
-0.0257815
-0.0213961
-0.0171386
-0.0134835
-0.0109445
-0.00858983
-0.00630448
-0.00478648
-0.00370018
-0.00255322
-0.00162259
-0.00114669
-0.000896724
-0.000672309
-0.000465964
-0.000301991
-0.000177679
-7.76543e-05
1.5962e-06
7.69111e-05
0.000141266
0.000206891
0.000261482
0.000316006
0.000368485
0.00040258
0.000445173
0.000450481
0.000452597
0.000429878
0.000358238
0.000262859
0.000103843
-0.0886466
-0.0949856
-0.0981188
-0.0979188
-0.0953362
-0.0912333
-0.0864485
-0.081448
-0.0762103
-0.0710877
-0.0657406
-0.0600137
-0.0544787
-0.0487184
-0.0429318
-0.0375902
-0.0321893
-0.0272608
-0.0231102
-0.0189651
-0.0154402
-0.0130311
-0.0106929
-0.00826016
-0.00654621
-0.00533052
-0.0040817
-0.00301052
-0.00237265
-0.00197549
-0.00161398
-0.0012786
-0.000998269
-0.000769653
-0.000572882
-0.000407222
-0.000258679
-0.000133679
-1.5551e-05
8.46216e-05
0.000176904
0.000262476
0.000321775
0.000387918
0.000410399
0.00042693
0.00041697
0.000351354
0.00026211
0.000104816
-0.0768158
-0.0823916
-0.0853829
-0.085664
-0.083911
-0.0807927
-0.0770654
-0.0731226
-0.0689535
-0.0649154
-0.0606127
-0.0559164
-0.0514274
-0.0466761
-0.0418016
-0.0372425
-0.0324984
-0.0280931
-0.0243121
-0.0204181
-0.0170789
-0.0147904
-0.0124749
-0.00997343
-0.00816582
-0.00689072
-0.00558085
-0.00439706
-0.00361326
-0.00307124
-0.0025748
-0.00211425
-0.0017177
-0.00138158
-0.00108715
-0.000836449
-0.000614252
-0.00042525
-0.000250912
-0.000102222
3.00736e-05
0.00015052
0.000237028
0.000327865
0.000369299
0.000400848
0.00040419
0.000345826
0.000262045
0.000105881
-0.0665201
-0.0713814
-0.0741832
-0.0747975
-0.0736862
-0.0713631
-0.0684684
-0.0653573
-0.0620478
-0.0588754
-0.0554822
-0.0517675
-0.0482032
-0.0442568
-0.040134
-0.0363123
-0.0322679
-0.0284436
-0.0250564
-0.0214261
-0.0183044
-0.0161945
-0.01398
-0.0114891
-0.00963818
-0.00832603
-0.00698102
-0.0057227
-0.00482397
-0.00415666
-0.00353787
-0.00295884
-0.00244875
-0.00200763
-0.00161835
-0.00128284
-0.000984568
-0.000728774
-0.00049638
-0.000297579
-0.000123351
3.37048e-05
0.000149253
0.000265996
0.000327704
0.000374969
0.000392383
0.000341744
0.00026273
0.000107309
-0.0575935
-0.0617971
-0.0643763
-0.0651863
-0.0645306
-0.0627845
-0.0605558
-0.0581504
-0.0555557
-0.0531631
-0.0505739
-0.0475847
-0.0446985
-0.0414809
-0.0381209
-0.0350087
-0.0315971
-0.0283063
-0.0253183
-0.0220048
-0.0191639
-0.0172736
-0.0151877
-0.0127492
-0.0109099
-0.00960907
-0.0082682
-0.00697301
-0.00599089
-0.00521817
-0.0044889
-0.00379944
-0.00318232
-0.00264099
-0.00215899
-0.00173864
-0.0013637
-0.00104055
-0.000749259
-0.000499089
-0.000281245
-8.61766e-05
5.98603e-05
0.000203515
0.000286455
0.000350227
0.000382103
0.0003393
0.000264633
0.000109219
-0.0498098
-0.053391
-0.0556983
-0.0566007
-0.0562994
-0.0550697
-0.0534236
-0.0515799
-0.0495731
-0.0477825
-0.0457328
-0.0433388
-0.0411515
-0.038617
-0.0358744
-0.0333463
-0.0305113
-0.0277442
-0.0251653
-0.0221882
-0.0196535
-0.018007
-0.0160812
-0.0137458
-0.0119756
-0.0107294
-0.00942602
-0.00812768
-0.00709227
-0.00623568
-0.00541103
-0.00462258
-0.00390679
-0.00327054
-0.00269893
-0.00219595
-0.0017458
-0.00135577
-0.00100523
-0.000703042
-0.00044068
-0.000206718
-2.93077e-05
0.00014205
0.000246817
0.000327712
0.000374141
0.000339215
0.000268315
0.000111996
-0.0428728
-0.0459702
-0.0480854
-0.0490816
-0.0490615
-0.0482031
-0.0469668
-0.0455448
-0.0439844
-0.0426596
-0.0411284
-0.0393253
-0.0376748
-0.0356097
-0.033387
-0.0314153
-0.0291181
-0.0268331
-0.0246398
-0.0220012
-0.0197974
-0.0184187
-0.0166736
-0.0144749
-0.0128193
-0.011669
-0.0104366
-0.00916711
-0.00810846
-0.00719088
-0.00628745
-0.00541265
-0.0046077
-0.00388347
-0.00322752
-0.00264592
-0.00212312
-0.0016677
-0.00125855
-0.000904851
-0.000597939
-0.000324987
-0.000115986
8.33736e-05
0.000210056
0.000308109
0.000369153
0.000341533
0.000273655
0.000114361
-0.0368942
-0.0395802
-0.0414765
-0.04247
-0.042609
-0.0420162
-0.0411197
-0.0400537
-0.0388769
-0.0379699
-0.0368371
-0.0354164
-0.0341567
-0.0325384
-0.0308226
-0.0293373
-0.0275005
-0.0256516
-0.0238185
-0.0215071
-0.0196343
-0.0185269
-0.0169716
-0.0149351
-0.0134329
-0.0124174
-0.0112902
-0.0100794
-0.00902318
-0.00806565
-0.00710027
-0.00615253
-0.00526915
-0.00446564
-0.00373233
-0.00307749
-0.0024861
-0.00196813
-0.00150252
-0.00109847
-0.000748066
-0.000436193
-0.000196124
3.16168e-05
0.000179894
0.000295256
0.000370614
0.000350209
0.000283586
0.00012257
-0.0317213
-0.0339839
-0.0356383
-0.0366025
-0.0368694
-0.0365036
-0.0358899
-0.0351058
-0.0342283
-0.0336232
-0.0327743
-0.0316886
-0.030795
-0.0295452
-0.0282224
-0.0271289
-0.0256947
-0.0242422
-0.0227396
-0.0207443
-0.0192057
-0.0183739
-0.0170177
-0.0151627
-0.0138354
-0.0129719
-0.0119711
-0.0108473
-0.00982107
-0.00884447
-0.00783397
-0.00682691
-0.00587623
-0.00500273
-0.00419962
-0.00347833
-0.00282379
-0.00224877
-0.00173067
-0.0012809
-0.000890314
-0.00054295
-0.000274986
-2.07284e-05
0.000146392
0.000277863
0.0003658
0.000352375
0.000285876
0.000109166
-0.027149
-0.0290647
-0.0305228
-0.0314569
-0.0318042
-0.0315952
-0.0311919
-0.0306256
-0.0299949
-0.0296506
-0.0290536
-0.0282452
-0.0276151
-0.0266385
-0.0256512
-0.0248937
-0.0237927
-0.022671
-0.0214478
-0.0197384
-0.0185201
-0.0179546
-0.0168016
-0.015157
-0.0140488
-0.0133735
-0.0125156
-0.0114779
-0.0104383
-0.0095122
-0.00847777
-0.00742266
-0.00641459
-0.00547955
-0.00461328
-0.00382964
-0.00311429
-0.00248206
-0.00191039
-0.0014125
-0.00097867
-0.000594006
-0.000294199
-1.39308e-05
0.000175937
0.000319285
0.000422725
0.000405316
0.000352522
0.000182048
-0.0231769
-0.0248006
-0.0260778
-0.0269591
-0.0273388
-0.0272385
-0.0269982
-0.0265942
-0.0261515
-0.0260029
-0.0255874
-0.0249938
-0.024577
-0.0238366
-0.0231517
-0.0226953
-0.0218973
-0.0210756
-0.0200953
-0.0186348
-0.0176894
-0.0173313
-0.0163369
-0.0148836
-0.0139934
-0.0135328
-0.0128711
-0.0119993
-0.0112007
-0.0101373
-0.00905725
-0.00796799
-0.00691994
-0.0059429
-0.00503421
-0.00421031
-0.00345616
-0.00278878
-0.00218504
-0.00165695
-0.00120051
-0.000788066
-0.000475408
-0.00016974
3.0125e-05
0.000192175
0.000304747
0.000290983
0.000211343
4.42489e-05
-0.0197389
-0.0210837
-0.0221886
-0.023011
-0.0234097
-0.0234017
-0.0232952
-0.023016
-0.022716
-0.0227008
-0.0224037
-0.0219683
-0.0217069
-0.0211443
-0.0206925
-0.0204606
-0.0199091
-0.0193578
-0.0186137
-0.0174201
-0.016781
-0.0166608
-0.0158499
-0.0146041
-0.0139127
-0.0135848
-0.0130273
-0.0122347
-0.0112381
-0.0103522
-0.00927615
-0.00815314
-0.00706504
-0.00604311
-0.00508547
-0.00421385
-0.00340953
-0.00269803
-0.00204698
-0.00148325
-0.000986135
-0.000548373
-0.000206918
0.000116415
0.000330422
0.000502458
0.000628933
0.000624203
0.000548668
0.000297953
-0.0167398
-0.0178389
-0.0187954
-0.0195585
-0.0199615
-0.0200322
-0.0200409
-0.0198649
-0.0196889
-0.0197804
-0.0195758
-0.019269
-0.0191131
-0.0186806
-0.0184188
-0.0183452
-0.0179583
-0.0175946
-0.0170087
-0.0160129
-0.0156059
-0.0156543
-0.0150101
-0.0140208
-0.0136447
-0.0136313
-0.0133096
-0.012649
-0.0120066
-0.0110108
-0.0099158
-0.00877283
-0.00765342
-0.00660163
-0.005619
-0.00472613
-0.00390518
-0.003178
-0.00251766
-0.00193822
-0.00144109
-0.000982027
-0.000647715
-0.000302792
-8.70322e-05
8.01686e-05
0.000217199
0.000175175
0.000132773
8.17114e-07
-0.0141359
-0.015022
-0.0158398
-0.0165241
-0.0169007
-0.0170238
-0.0171309
-0.0170461
-0.0169813
-0.0171506
-0.0169988
-0.0167921
-0.0167255
-0.016413
-0.016335
-0.0164233
-0.0162029
-0.0160061
-0.0155499
-0.0147336
-0.0145373
-0.0147137
-0.0141617
-0.0133137
-0.0130474
-0.0130747
-0.0128503
-0.0123431
-0.011443
-0.0105309
-0.0094197
-0.00826283
-0.00713814
-0.00608004
-0.00508424
-0.00418055
-0.00333762
-0.00259961
-0.00190965
-0.00132521
-0.000796847
-0.00033742
1.33671e-05
0.000373509
0.000576331
0.000788653
0.000907773
0.00088028
0.000753954
0.000385521
-0.0119182
-0.0126257
-0.0133347
-0.0139424
-0.0142804
-0.0144192
-0.0145495
-0.0144938
-0.0145044
-0.014729
-0.0146362
-0.0145088
-0.0144652
-0.0142249
-0.0142828
-0.0144661
-0.0143763
-0.0143391
-0.0140192
-0.0134194
-0.0134593
-0.0137785
-0.0134194
-0.0129317
-0.013106
-0.0134969
-0.0134276
-0.0128949
-0.0123179
-0.0113263
-0.0101762
-0.0089704
-0.00780193
-0.006715
-0.00570825
-0.00480146
-0.00396575
-0.00323467
-0.00255929
-0.00197972
-0.0014721
-0.00100797
-0.00068067
-0.000321854
-0.00012183
4.06697e-05
0.000192811
0.000137313
0.000128682
1.33211e-05
-0.0100273
-0.0105857
-0.0112051
-0.0117584
-0.0120768
-0.012272
-0.0124538
-0.0124064
-0.0124613
-0.01269
-0.0126098
-0.0125556
-0.0125253
-0.0123273
-0.012471
-0.0126735
-0.0126363
-0.0126599
-0.0123478
-0.0118258
-0.0119799
-0.0123029
-0.011944
-0.0115177
-0.011687
-0.0120661
-0.0121877
-0.0119689
-0.0110894
-0.0100724
-0.00889991
-0.00772276
-0.0066053
-0.00556277
-0.00459814
-0.00372658
-0.0029136
-0.00221484
-0.00153458
-0.000996509
-0.000458154
-3.98675e-05
0.000306869
0.000674768
0.000819165
0.00107985
0.00112106
0.00104501
0.000910148
0.000422007
-0.00838641
-0.0088096
-0.0093222
-0.00979816
-0.0101129
-0.0103651
-0.0106056
-0.0106213
-0.0107099
-0.0108938
-0.0108097
-0.0107874
-0.0107807
-0.0106983
-0.0109648
-0.0112388
-0.0113057
-0.0114102
-0.011219
-0.0109457
-0.0112705
-0.0116843
-0.0116211
-0.0117438
-0.0124359
-0.0130523
-0.01305
-0.0126016
-0.0117591
-0.0106248
-0.00939123
-0.00816204
-0.00703314
-0.00599832
-0.00507568
-0.00423777
-0.00348365
-0.00282128
-0.0021971
-0.00169313
-0.00119104
-0.000806574
-0.000457943
-0.000152666
2.2739e-05
0.000201489
0.000273937
0.00026755
0.000248463
6.17421e-05
-0.0071657
-0.00749088
-0.00789934
-0.00827523
-0.00852918
-0.00879104
-0.00900115
-0.00899917
-0.00913205
-0.00927086
-0.00918183
-0.00917104
-0.00907054
-0.00897725
-0.00922024
-0.00938435
-0.00943586
-0.00949406
-0.00916721
-0.00890422
-0.00925671
-0.00951399
-0.0093076
-0.00931626
-0.00992503
-0.0106579
-0.0109466
-0.0104338
-0.00972735
-0.00869152
-0.00758066
-0.00645359
-0.00547449
-0.00450979
-0.00373277
-0.0029284
-0.00229808
-0.00165481
-0.00108478
-0.00064715
-8.00721e-05
0.000134953
0.000631254
0.000779482
0.00101211
0.00122593
0.00108422
0.00110791
0.000851426
0.000340207
-0.006288
-0.00658612
-0.00697242
-0.00731543
-0.00756694
-0.0078222
-0.00800241
-0.00799774
-0.00811365
-0.00824783
-0.00821243
-0.00821618
-0.00813533
-0.00809184
-0.00831117
-0.00849392
-0.00865955
-0.00876884
-0.00847951
-0.00826506
-0.00863517
-0.00913277
-0.00959514
-0.0103543
-0.0111815
-0.0114851
-0.0111725
-0.010378
-0.00933151
-0.00819578
-0.00713866
-0.00612321
-0.00529981
-0.00445125
-0.0038331
-0.00308084
-0.00262269
-0.00195449
-0.00160199
-0.00107547
-0.000688482
-0.000391619
0.000136231
0.000119112
0.00057497
0.000507664
0.000499984
0.000618878
0.000307822
8.01969e-05
-0.00572844
-0.0058888
-0.00615028
-0.00657195
-0.00680949
-0.00702906
-0.00722228
-0.00720233
-0.00724837
-0.00726156
-0.00715651
-0.00714187
-0.00707724
-0.00694702
-0.00694512
-0.00706418
-0.0071001
-0.00677931
-0.00631286
-0.00617003
-0.00613443
-0.00583484
-0.00571628
-0.00646768
-0.00788588
-0.00900567
-0.0092032
-0.00862965
-0.00770366
-0.00658945
-0.0057169
-0.00475582
-0.00421547
-0.00334812
-0.00306256
-0.00218237
-0.00204818
-0.00120108
-0.00103252
-0.000430955
-9.95965e-06
0.000104828
0.000821856
0.000520027
0.00115625
0.000951769
0.000886893
0.00110334
0.000494696
0.000154889
-0.146622
-0.167499
-0.189307
-0.206432
-0.236364
-0.256024
-0.281181
-0.314045
-0.336269
-0.373354
-0.138061
-0.15524
-0.174994
-0.187828
-0.212769
-0.229856
-0.248506
-0.275205
-0.287536
-0.313231
-0.12843
-0.142623
-0.159002
-0.169049
-0.188346
-0.204016
-0.215296
-0.237545
-0.247652
-0.271074
-0.120268
-0.131517
-0.144633
-0.153479
-0.167754
-0.181841
-0.190931
-0.208357
-0.221439
-0.242796
-0.111485
-0.119807
-0.130318
-0.138475
-0.149416
-0.1625
-0.171473
-0.185955
-0.199559
-0.213287
-0.102885
-0.109469
-0.117703
-0.125233
-0.134014
-0.14538
-0.153717
-0.164317
-0.17331
-0.184487
-0.0943937
-0.0995607
-0.105845
-0.112588
-0.119574
-0.128572
-0.135392
-0.142576
-0.150303
-0.161534
-0.086229
-0.0904035
-0.0952029
-0.100822
-0.106315
-0.113175
-0.118935
-0.125176
-0.132896
-0.142288
-0.0783578
-0.0817118
-0.0853382
-0.0898581
-0.0943626
-0.100026
-0.105299
-0.111013
-0.117145
-0.124103
-0.0709354
-0.0735922
-0.0764099
-0.0800557
-0.0839208
-0.0887069
-0.0930775
-0.0974035
-0.101814
-0.10764
-0.0639955
-0.0660559
-0.0682709
-0.0711658
-0.0743437
-0.0781268
-0.0814239
-0.0847689
-0.0886597
-0.0939902
-0.0575635
-0.0590914
-0.0607981
-0.0629851
-0.0654981
-0.0685142
-0.0712038
-0.0742222
-0.077769
-0.0821331
-0.0516085
-0.0526861
-0.0539547
-0.055586
-0.0576313
-0.0601546
-0.0624693
-0.0650623
-0.0678383
-0.0712906
-0.0460895
-0.0468256
-0.0477701
-0.0490015
-0.0506756
-0.0527455
-0.054603
-0.0566452
-0.0588209
-0.0617624
-0.040992
-0.0414775
-0.0421798
-0.0430914
-0.0444182
-0.0460329
-0.0474743
-0.0491477
-0.0510039
-0.0535615
-0.0363077
-0.0366147
-0.0371253
-0.037761
-0.0387658
-0.0400153
-0.0412022
-0.0426965
-0.0443149
-0.0464509
-0.0319944
-0.0321769
-0.0325426
-0.0329628
-0.0337505
-0.034783
-0.0358098
-0.0370844
-0.0383412
-0.0400441
-0.0280407
-0.0281508
-0.028428
-0.0287082
-0.0293479
-0.0301581
-0.0309516
-0.0319729
-0.0329768
-0.0344424
-0.0244441
-0.0245211
-0.0247431
-0.0249131
-0.0253905
-0.0259764
-0.0266159
-0.0275323
-0.028401
-0.0296529
-0.0211713
-0.0212307
-0.0214106
-0.0215038
-0.0218714
-0.0223187
-0.0228868
-0.0237049
-0.0243845
-0.0254038
-0.0182184
-0.0182798
-0.0184423
-0.0185047
-0.0187936
-0.0191082
-0.0195848
-0.0202794
-0.0208004
-0.0216723
-0.0155706
-0.015644
-0.0157969
-0.0158492
-0.0160672
-0.0162628
-0.0166808
-0.017292
-0.017704
-0.0184618
-0.0132004
-0.0132778
-0.0134163
-0.0134762
-0.0136511
-0.0137779
-0.0141801
-0.014717
-0.0150232
-0.0156726
-0.0111323
-0.0112111
-0.0113342
-0.0114076
-0.0115349
-0.0115995
-0.0119854
-0.0124426
-0.0126756
-0.0132522
-0.00934175
-0.00942689
-0.00953636
-0.00963522
-0.00972318
-0.00974426
-0.0101167
-0.0104917
-0.0106783
-0.0112033
-0.00776285
-0.00784765
-0.00795202
-0.00808613
-0.00814849
-0.0081699
-0.00854362
-0.00884473
-0.00900638
-0.00947119
-0.00648737
-0.00653981
-0.00662439
-0.00678199
-0.00682892
-0.00687599
-0.00723509
-0.00745712
-0.00760202
-0.00799056
-0.00549931
-0.00554769
-0.00563125
-0.00577599
-0.00579719
-0.00590251
-0.0062378
-0.0064199
-0.00659748
-0.00689938