/*--------------------------------*- C++ -*----------------------------------*\
| =========                 |                                                 |
| \\      /  F ield         | OpenFOAM: The Open Source CFD Toolbox           |
|  \\    /   O peration     | Version:  2512                                  |
|   \\  /    A nd           | Website:  www.openfoam.com                      |
|    \\/     M anipulation  |                                                 |
\*---------------------------------------------------------------------------*/
FoamFile
{
    version     2.0;
    format      ascii;
    arch        "LSB;label=32;scalar=64";
    class       volScalarField;
    location    "46.55";
    object      p;
}
// * * * * * * * * * * * * * * * * * * * * * * * * * * * * * * * * * * * * * //

dimensions      [0 2 -2 0 0 0 0];

internalField   nonuniform List<scalar> 
13248
(
-0.324285
-0.324902
-0.32419
-0.32256
-0.320137
-0.316919
-0.312929
-0.308205
-0.302852
-0.296968
-0.290663
-0.284076
-0.277355
-0.270643
-0.264045
-0.257624
-0.251387
-0.245344
-0.239394
-0.233667
-0.227801
-0.222126
-0.215576
-0.208251
-0.328496
-0.328535
-0.327472
-0.32565
-0.323172
-0.320006
-0.316109
-0.311446
-0.306001
-0.299796
-0.292906
-0.285469
-0.277658
-0.269644
-0.261576
-0.253573
-0.245724
-0.238081
-0.230666
-0.223429
-0.216222
-0.208954
-0.201158
-0.193543
-0.334218
-0.333465
-0.331832
-0.329587
-0.326818
-0.323471
-0.319412
-0.314477
-0.308535
-0.301555
-0.293634
-0.284971
-0.275819
-0.266433
-0.257042
-0.247826
-0.238891
-0.230289
-0.22195
-0.213847
-0.205777
-0.197768
-0.189627
-0.181711
-0.341347
-0.339627
-0.337244
-0.334362
-0.331093
-0.327318
-0.322759
-0.317102
-0.310148
-0.301902
-0.292574
-0.282492
-0.272022
-0.261492
-0.251148
-0.241134
-0.231505
-0.222238
-0.213292
-0.204606
-0.196072
-0.187774
-0.179441
-0.171672
-0.350046
-0.347229
-0.343948
-0.340325
-0.336372
-0.33185
-0.326307
-0.319337
-0.310802
-0.300881
-0.289965
-0.278515
-0.266948
-0.255564
-0.244539
-0.233951
-0.223805
-0.214081
-0.204732
-0.195706
-0.186952
-0.178466
-0.170133
-0.162357
-0.360683
-0.356646
-0.352423
-0.347944
-0.343046
-0.337288
-0.330093
-0.321138
-0.310532
-0.298706
-0.286211
-0.273545
-0.261067
-0.24899
-0.237413
-0.226363
-0.215826
-0.205764
-0.196132
-0.186886
-0.177981
-0.169415
-0.161093
-0.153339
-0.373594
-0.368219
-0.362999
-0.357502
-0.351229
-0.343534
-0.333918
-0.322388
-0.309409
-0.295632
-0.281651
-0.267893
-0.254611
-0.241923
-0.229862
-0.218416
-0.207549
-0.197221
-0.187388
-0.178003
-0.169035
-0.16044
-0.152185
-0.144464
-0.388932
-0.382125
-0.375813
-0.368979
-0.360666
-0.350185
-0.337435
-0.322936
-0.307483
-0.291812
-0.276443
-0.261674
-0.247638
-0.23437
-0.221852
-0.210044
-0.198899
-0.188366
-0.178392
-0.168932
-0.159938
-0.151367
-0.143213
-0.135527
-0.406559
-0.398272
-0.390676
-0.381964
-0.370734
-0.356618
-0.340223
-0.322599
-0.304719
-0.287258
-0.270583
-0.254849
-0.240084
-0.226255
-0.213307
-0.201177
-0.1898
-0.179112
-0.169054
-0.159569
-0.150604
-0.142114
-0.134088
-0.12647
-0.425949
-0.416189
-0.406983
-0.395602
-0.380483
-0.362053
-0.341771
-0.32106
-0.300882
-0.28174
-0.263827
-0.247165
-0.231696
-0.217336
-0.203995
-0.191587
-0.180028
-0.169243
-0.159159
-0.14971
-0.14083
-0.132471
-0.124597
-0.117083
-0.446177
-0.434975
-0.423649
-0.408596
-0.388676
-0.365518
-0.341336
-0.317687
-0.295364
-0.274655
-0.255583
-0.238055
-0.221942
-0.207113
-0.193446
-0.180829
-0.169162
-0.158353
-0.148318
-0.13898
-0.130269
-0.122126
-0.114474
-0.107188
-0.465938
-0.453336
-0.439175
-0.419377
-0.39394
-0.365887
-0.337944
-0.311572
-0.287299
-0.265182
-0.245084
-0.226812
-0.210173
-0.19499
-0.181109
-0.168393
-0.156723
-0.145992
-0.136103
-0.126972
-0.118528
-0.11071
-0.103428
-0.0965849
-0.39617
-0.397603
-0.398109
-0.39837
-0.398683
-0.399091
-0.399585
-0.400149
-0.400699
-0.401184
-0.401499
-0.401556
-0.401265
-0.400544
-0.399336
-0.397618
-0.395428
-0.392884
-0.39022
-0.387807
-0.386125
-0.385637
-0.386838
-0.390639
-0.383328
-0.384507
-0.384677
-0.384427
-0.384019
-0.383502
-0.382867
-0.382083
-0.38109
-0.379833
-0.378255
-0.376314
-0.373998
-0.371326
-0.368368
-0.365258
-0.362209
-0.359529
-0.357613
-0.356957
-0.35815
-0.361777
-0.368242
-0.377811
-0.371808
-0.372685
-0.372547
-0.371864
-0.370849
-0.369548
-0.367958
-0.366054
-0.363791
-0.361131
-0.358051
-0.35456
-0.350708
-0.346606
-0.34242
-0.338391
-0.334847
-0.332221
-0.331
-0.331697
-0.334888
-0.341163
-0.350849
-0.363855
-0.361565
-0.362155
-0.361764
-0.360737
-0.359232
-0.357285
-0.354906
-0.352084
-0.348796
-0.345027
-0.340788
-0.336125
-0.331126
-0.326006
-0.32099
-0.316379
-0.312514
-0.309957
-0.309178
-0.310705
-0.315034
-0.3225
-0.333818
-0.347647
-0.352494
-0.352868
-0.352298
-0.351018
-0.349128
-0.346653
-0.343617
-0.340034
-0.33591
-0.331261
-0.326136
-0.320631
-0.314689
-0.308874
-0.303281
-0.298267
-0.294242
-0.291687
-0.291099
-0.292891
-0.29768
-0.30522
-0.316832
-0.330212
-0.344487
-0.34476
-0.344091
-0.342639
-0.340451
-0.337538
-0.333939
-0.329703
-0.324871
-0.319492
-0.313641
-0.307427
-0.301005
-0.294656
-0.288668
-0.283404
-0.279277
-0.276721
-0.276256
-0.278043
-0.283039
-0.290175
-0.301519
-0.31383
-0.337481
-0.337789
-0.337095
-0.335535
-0.333116
-0.329837
-0.325752
-0.320944
-0.315502
-0.309516
-0.303095
-0.296382
-0.289571
-0.282926
-0.276763
-0.271454
-0.267418
-0.265029
-0.26487
-0.266771
-0.272155
-0.278956
-0.290045
-0.300923
-0.331493
-0.331971
-0.3313
-0.329674
-0.327082
-0.32351
-0.319026
-0.313747
-0.30781
-0.301351
-0.294519
-0.287493
-0.280497
-0.273808
-0.267754
-0.262713
-0.259099
-0.257213
-0.257671
-0.259995
-0.265607
-0.272133
-0.282195
-0.29126
-0.32664
-0.327311
-0.326741
-0.325091
-0.322384
-0.318613
-0.313863
-0.308276
-0.302033
-0.295315
-0.288319
-0.281258
-0.274388
-0.267998
-0.262419
-0.257974
-0.255008
-0.253756
-0.254545
-0.257072
-0.261905
-0.267563
-0.275036
-0.281172
-0.323213
-0.324127
-0.323599
-0.321931
-0.319179
-0.315346
-0.310525
-0.304879
-0.298621
-0.291957
-0.285131
-0.278364
-0.271901
-0.266011
-0.260966
-0.257016
-0.254373
-0.253186
-0.253473
-0.255133
-0.258032
-0.261564
-0.265376
-0.267517
-0.321546
-0.322577
-0.322065
-0.320409
-0.317712
-0.313987
-0.30933
-0.303885
-0.297917
-0.291598
-0.285124
-0.27873
-0.272632
-0.26704
-0.262151
-0.258124
-0.255026
-0.252898
-0.251592
-0.251022
-0.251004
-0.251254
-0.25156
-0.250411
-0.321895
-0.322843
-0.322285
-0.32066
-0.318096
-0.314609
-0.310259
-0.305227
-0.299618
-0.293619
-0.287404
-0.281149
-0.275028
-0.269205
-0.263804
-0.258908
-0.254489
-0.250553
-0.24687
-0.243489
-0.240118
-0.236889
-0.234028
-0.231256
-0.399466
-0.415602
-0.437826
-0.463969
-0.490632
-0.513505
-0.527777
-0.528023
-0.50807
-0.463309
-0.398844
-0.330813
-0.274115
-0.236012
-0.217488
-0.215351
-0.225414
-0.247431
-0.285409
-0.339518
-0.399081
-0.443266
-0.451379
-0.417141
-0.356593
-0.293981
-0.245562
-0.217942
-0.208818
-0.216223
-0.244754
-0.292356
-0.339211
-0.359749
-0.339989
-0.292422
-0.237644
-0.189621
-0.153549
-0.128711
-0.112096
-0.102637
-0.0962024
-0.0875617
-0.0760322
-0.064608
-0.0548141
-0.0468667
-0.0401632
-0.0339956
-0.0286569
-0.0243875
-0.0207373
-0.0167909
-0.0125356
-0.00869508
-0.00542747
-0.00280784
-0.00121652
5.23934e-05
-0.395766
-0.420567
-0.449987
-0.481733
-0.511934
-0.536245
-0.55045
-0.550315
-0.529408
-0.482683
-0.415267
-0.343745
-0.283652
-0.242
-0.219064
-0.2129
-0.219764
-0.238672
-0.273922
-0.32714
-0.387901
-0.433671
-0.44271
-0.409907
-0.352643
-0.294156
-0.249912
-0.226616
-0.221853
-0.234353
-0.268924
-0.322286
-0.372961
-0.394265
-0.371116
-0.316721
-0.253933
-0.198645
-0.15632
-0.126457
-0.105702
-0.0924945
-0.083576
-0.0745963
-0.0648825
-0.0559844
-0.0488508
-0.0432794
-0.0384358
-0.0336052
-0.0293706
-0.025835
-0.0223576
-0.0181251
-0.0134201
-0.00919068
-0.00572314
-0.00299674
-0.00127719
-1.36202e-06
-0.386066
-0.415341
-0.448169
-0.482152
-0.51333
-0.538306
-0.551787
-0.551416
-0.530606
-0.484203
-0.417056
-0.345055
-0.284296
-0.241606
-0.215937
-0.205687
-0.208951
-0.223983
-0.254493
-0.303763
-0.363108
-0.410453
-0.42203
-0.394098
-0.342404
-0.289009
-0.249472
-0.231033
-0.230937
-0.248415
-0.288677
-0.346869
-0.400602
-0.4236
-0.398992
-0.339086
-0.268954
-0.206819
-0.158749
-0.124267
-0.0999424
-0.0835269
-0.0724241
-0.0629571
-0.0545674
-0.0477699
-0.0430807
-0.0398037
-0.0367699
-0.0332911
-0.0302151
-0.027375
-0.0239754
-0.019363
-0.0142301
-0.00964634
-0.00599812
-0.00317185
-0.00134457
-6.85145e-05
-0.370135
-0.40043
-0.434086
-0.468127
-0.498794
-0.521666
-0.535859
-0.535552
-0.514733
-0.469042
-0.404347
-0.335737
-0.277539
-0.235799
-0.209142
-0.195416
-0.194257
-0.204711
-0.229125
-0.272013
-0.327117
-0.374916
-0.391149
-0.370061
-0.325606
-0.27814
-0.24392
-0.230573
-0.234955
-0.256923
-0.301896
-0.363981
-0.421165
-0.446859
-0.422619
-0.358948
-0.28254
-0.214104
-0.16086
-0.12223
-0.0948609
-0.0757624
-0.0626968
-0.0525263
-0.0448926
-0.0399205
-0.0375241
-0.0364611
-0.0351613
-0.0330527
-0.031165
-0.0289733
-0.0255544
-0.020625
-0.0149627
-0.0100601
-0.00625128
-0.00333704
-0.00142076
-0.00014302
-0.350958
-0.379945
-0.412428
-0.444992
-0.475545
-0.496576
-0.508973
-0.507725
-0.486652
-0.442474
-0.382094
-0.319478
-0.266037
-0.226353
-0.199732
-0.183923
-0.178035
-0.182917
-0.200205
-0.234759
-0.283353
-0.329813
-0.351342
-0.338621
-0.302385
-0.261475
-0.233067
-0.224965
-0.233575
-0.259421
-0.307714
-0.373302
-0.434135
-0.463342
-0.441592
-0.376136
-0.294745
-0.220642
-0.162778
-0.120471
-0.0904629
-0.0691728
-0.054343
-0.0432652
-0.0359388
-0.0324577
-0.0322198
-0.0332581
-0.0335944
-0.0328788
-0.0321838
-0.0305894
-0.0270475
-0.0216965
-0.0156142
-0.0104296
-0.00648084
-0.00349349
-0.00150442
-0.000219412
-0.332334
-0.358356
-0.387902
-0.417824
-0.443468
-0.464841
-0.474974
-0.471746
-0.449891
-0.408258
-0.354216
-0.299299
-0.25188
-0.214961
-0.188686
-0.171597
-0.162503
-0.161507
-0.170994
-0.195903
-0.236207
-0.279308
-0.306453
-0.300779
-0.273244
-0.239332
-0.216978
-0.21433
-0.227201
-0.256055
-0.306976
-0.375183
-0.438976
-0.47262
-0.455109
-0.390239
-0.305408
-0.226458
-0.164561
-0.119084
-0.0867689
-0.0637397
-0.0473755
-0.0352629
-0.0278291
-0.0255045
-0.0272424
-0.0302005
-0.0320528
-0.0327462
-0.0332257
-0.0321759
-0.028416
-0.0226381
-0.0161801
-0.0107535
-0.00668587
-0.0036405
-0.00159235
-0.000293144
-0.316585
-0.337665
-0.363621
-0.390947
-0.412958
-0.428867
-0.435569
-0.429739
-0.407772
-0.370496
-0.324553
-0.278197
-0.237095
-0.203365
-0.177449
-0.159235
-0.147757
-0.1427
-0.1447
-0.159078
-0.189431
-0.226786
-0.255461
-0.257914
-0.23935
-0.212623
-0.196421
-0.199165
-0.216119
-0.247361
-0.299013
-0.368902
-0.436658
-0.474732
-0.46332
-0.401271
-0.314539
-0.231673
-0.166307
-0.118131
-0.0837626
-0.0593636
-0.0417658
-0.0286444
-0.0207925
-0.0192373
-0.0226489
-0.0272769
-0.030522
-0.0326267
-0.0342429
-0.033683
-0.0296157
-0.0234333
-0.0166555
-0.0110308
-0.00686616
-0.00377644
-0.00168089
-0.000360846
-0.302717
-0.317412
-0.339393
-0.361062
-0.377835
-0.388137
-0.391381
-0.383805
-0.363701
-0.332762
-0.295801
-0.257951
-0.222819
-0.192343
-0.16717
-0.147842
-0.134344
-0.126049
-0.123351
-0.128262
-0.147138
-0.176505
-0.204029
-0.212665
-0.202352
-0.182691
-0.172522
-0.18036
-0.201209
-0.233933
-0.285239
-0.355337
-0.425172
-0.469311
-0.463963
-0.408514
-0.321838
-0.23619
-0.167947
-0.117537
-0.0813869
-0.0558872
-0.0373851
-0.0234361
-0.0150225
-0.0137946
-0.0185029
-0.0244751
-0.0289761
-0.0324803
-0.0351837
-0.0350621
-0.0305963
-0.0240731
-0.0170381
-0.0112604
-0.00702147
-0.0038993
-0.00176666
-0.000420277
-0.286905
-0.294521
-0.31057
-0.326155
-0.336915
-0.343804
-0.345028
-0.33794
-0.321986
-0.298443
-0.270032
-0.239704
-0.209859
-0.182359
-0.158228
-0.138151
-0.122747
-0.111775
-0.105139
-0.10425
-0.112884
-0.132475
-0.155176
-0.167085
-0.163633
-0.150859
-0.146482
-0.158795
-0.182808
-0.216407
-0.266413
-0.335019
-0.40825
-0.458525
-0.460787
-0.412132
-0.326863
-0.239709
-0.16927
-0.11709
-0.0794937
-0.0530867
-0.033991
-0.0194843
-0.0105398
-0.0092151
-0.0148495
-0.0217653
-0.0273829
-0.0322698
-0.0360052
-0.0362648
-0.0313426
-0.0245614
-0.0173268
-0.0114412
-0.0071517
-0.00400758
-0.0018471
-0.00047009
-0.266435
-0.268791
-0.279994
-0.290268
-0.296722
-0.301481
-0.302244
-0.297254
-0.286061
-0.269097
-0.247614
-0.223337
-0.198027
-0.173344
-0.150509
-0.130297
-0.11353
-0.100407
-0.0905966
-0.0849507
-0.0860633
-0.0966501
-0.112552
-0.128473
-0.125812
-0.118994
-0.119805
-0.135846
-0.162729
-0.196803
-0.244445
-0.311118
-0.383564
-0.439594
-0.442823
-0.409077
-0.329055
-0.242586
-0.170864
-0.117225
-0.0783712
-0.0510259
-0.0314633
-0.0166118
-0.00720351
-0.00579905
-0.0117449
-0.0191861
-0.025734
-0.0319285
-0.0366516
-0.0372326
-0.0324702
-0.0249127
-0.017527
-0.0115771
-0.00726017
-0.00410248
-0.00192189
-0.00051007
-0.24466
-0.245847
-0.254214
-0.259877
-0.264062
-0.267693
-0.268883
-0.26619
-0.25888
-0.246767
-0.230355
-0.210689
-0.189116
-0.166992
-0.14556
-0.125648
-0.108025
-0.093312
-0.0811544
-0.0716481
-0.0665482
-0.0690197
-0.0779823
-0.0889436
-0.0892903
-0.0880915
-0.0933025
-0.112176
-0.140594
-0.174108
-0.219674
-0.284007
-0.358178
-0.421632
-0.455478
-0.408043
-0.331367
-0.246747
-0.174264
-0.118976
-0.0786695
-0.050118
-0.0299201
-0.0147217
-0.00489946
-0.00327882
-0.00894446
-0.0165474
-0.0239323
-0.0314667
-0.0371164
-0.0379059
-0.033008
-0.0251251
-0.0176504
-0.0116758
-0.00735096
-0.00418615
-0.00199189
-0.000540957
-0.228579
-0.230436
-0.234549
-0.235981
-0.237495
-0.239375
-0.240132
-0.238587
-0.23388
-0.22544
-0.213325
-0.197989
-0.180196
-0.160996
-0.141307
-0.122096
-0.104259
-0.0882699
-0.0745149
-0.0630908
-0.0537443
-0.0480665
-0.0497414
-0.0570208
-0.0626667
-0.0611115
-0.0697599
-0.0902153
-0.119781
-0.152538
-0.194146
-0.254369
-0.327734
-0.392629
-0.423091
-0.3931
-0.326284
-0.245858
-0.174155
-0.1184
-0.0776153
-0.0486489
-0.0282137
-0.0128353
-0.00287653
-0.00120655
-0.00669137
-0.0140993
-0.0220608
-0.030739
-0.037282
-0.0381735
-0.0330836
-0.0251148
-0.0176386
-0.0116955
-0.0073956
-0.00424382
-0.00204928
-0.00056071
-0.215202
-0.22492
-0.225915
-0.224245
-0.222907
-0.222302
-0.221501
-0.219103
-0.214039
-0.20566
-0.193988
-0.179512
-0.16285
-0.144996
-0.126681
-0.108643
-0.0917541
-0.0761972
-0.0623262
-0.0506282
-0.0404785
-0.0317075
-0.0284715
-0.0301128
-0.0284376
-0.0343129
-0.0455563
-0.0666889
-0.0948272
-0.125253
-0.164528
-0.222945
-0.297416
-0.369114
-0.407049
-0.381287
-0.311671
-0.232113
-0.163175
-0.110166
-0.0714938
-0.04398
-0.0245057
-0.0098266
-0.000226756
0.00162679
-0.00329369
-0.0107972
-0.0196654
-0.0298646
-0.0375399
-0.0385553
-0.0330378
-0.0248535
-0.0174154
-0.0115763
-0.00735333
-0.00425423
-0.00207871
-0.000566824
-0.197805
-0.209464
-0.211901
-0.208974
-0.20544
-0.202901
-0.200814
-0.197706
-0.192388
-0.184232
-0.173296
-0.160052
-0.145026
-0.129004
-0.112462
-0.0959668
-0.0802736
-0.0653036
-0.0516368
-0.0400383
-0.0290766
-0.0188944
-0.0135526
-0.0142271
-0.0162043
-0.0189701
-0.0300002
-0.0504684
-0.0760131
-0.103165
-0.139427
-0.195095
-0.271657
-0.349003
-0.387559
-0.361374
-0.293084
-0.217022
-0.152256
-0.102538
-0.0660359
-0.0399532
-0.0212662
-0.00711759
0.00217271
0.00404302
-0.000773361
-0.00800093
-0.0176392
-0.0290653
-0.0374736
-0.0383072
-0.0324117
-0.0242821
-0.0170389
-0.0113855
-0.00727641
-0.00424867
-0.0020947
-0.000574731
-0.180868
-0.193604
-0.196669
-0.193395
-0.1888
-0.185098
-0.182159
-0.178688
-0.173495
-0.165944
-0.155996
-0.144046
-0.130496
-0.115931
-0.100784
-0.0853864
-0.0704567
-0.0561011
-0.04244
-0.0303944
-0.0193343
-0.00871057
-0.0014207
-0.000207958
-0.000153672
-0.0073274
-0.0195485
-0.0394377
-0.0623636
-0.0865806
-0.120413
-0.175346
-0.252319
-0.326446
-0.362701
-0.338218
-0.273382
-0.201802
-0.141367
-0.0949839
-0.0606399
-0.0359584
-0.0180852
-0.00439021
0.00480569
0.00699938
0.00244555
-0.00506488
-0.0157227
-0.0281593
-0.0369644
-0.0375597
-0.0314612
-0.0235296
-0.016573
-0.0111477
-0.00717409
-0.00422806
-0.00210345
-0.000583433
-0.165414
-0.177276
-0.180547
-0.177638
-0.172864
-0.168585
-0.16503
-0.161243
-0.156145
-0.149075
-0.139887
-0.128893
-0.116467
-0.103103
-0.0891949
-0.0749698
-0.0609417
-0.0473242
-0.0341428
-0.0221432
-0.0112275
-0.000668263
0.00723221
0.00930766
0.00413823
0.00190993
-0.0101438
-0.029046
-0.0494346
-0.0713214
-0.104001
-0.157829
-0.2304
-0.299298
-0.334687
-0.311163
-0.250269
-0.184445
-0.129368
-0.0869496
-0.0551047
-0.0319625
-0.0149721
-0.00167448
0.00766375
0.0105077
0.00649914
-0.00152284
-0.013456
-0.0269598
-0.0360384
-0.0361344
-0.0301681
-0.0225866
-0.0160068
-0.0108567
-0.00704282
-0.00419111
-0.00210465
-0.000591374
-0.149927
-0.161039
-0.164549
-0.162113
-0.157488
-0.152978
-0.149037
-0.145028
-0.140034
-0.133424
-0.12501
-0.115025
-0.103787
-0.0916733
-0.0789964
-0.0659033
-0.0527536
-0.039831
-0.0271532
-0.0152113
-0.00439065
0.00571559
0.0137161
0.0170818
0.0152663
0.0115825
0.0003319
-0.0169606
-0.0348813
-0.0548391
-0.0862942
-0.136497
-0.203492
-0.268903
-0.302439
-0.280286
-0.22504
-0.166292
-0.117036
-0.0787323
-0.0495081
-0.0279274
-0.0118657
0.00101583
0.0106442
0.0144941
0.0114144
0.00269371
-0.0108074
-0.025488
-0.0345799
-0.0343378
-0.0285241
-0.021456
-0.0153424
-0.0105123
-0.00688102
-0.00413654
-0.00209708
-0.000597823
-0.134887
-0.145449
-0.149025
-0.146984
-0.142645
-0.13816
-0.134091
-0.130033
-0.125237
-0.119135
-0.111498
-0.102458
-0.0922581
-0.0811992
-0.0695485
-0.0574525
-0.0451851
-0.0329807
-0.0209665
-0.00948718
0.00111434
0.010828
0.0187344
0.0228767
0.0236893
0.0220855
0.0135311
-0.00136101
-0.0174497
-0.0360582
-0.0654849
-0.111607
-0.174325
-0.236631
-0.267175
-0.246503
-0.197847
-0.146949
-0.104065
-0.0702031
-0.0438675
-0.0239411
-0.0088094
0.003602
0.0135305
0.0186434
0.0166825
0.00716264
-0.00803081
-0.0236723
-0.0324214
-0.0319407
-0.0265472
-0.0201563
-0.0145867
-0.0101149
-0.00668732
-0.00406298
-0.00207968
-0.000602073
-0.12094
-0.130603
-0.134038
-0.132363
-0.128413
-0.124146
-0.120166
-0.116215
-0.111685
-0.106072
-0.0991326
-0.0909318
-0.0816651
-0.0715967
-0.0609661
-0.0498805
-0.0385569
-0.0271635
-0.015834
-0.00493644
0.00531159
0.0147867
0.0226738
0.0273744
0.0300395
0.0315772
0.0280687
0.0170939
0.00236234
-0.0157242
-0.043264
-0.0864736
-0.145454
-0.203688
-0.229324
-0.210483
-0.169718
-0.127463
-0.0911578
-0.0616898
-0.0382614
-0.0200405
-0.00583054
0.00605252
0.0160858
0.0223677
0.0213003
0.0111445
-0.00533033
-0.0213015
-0.0294497
-0.0289827
-0.0242915
-0.0187168
-0.0137503
-0.0096662
-0.00646103
-0.00396923
-0.00205152
-0.000603352
-0.107766
-0.116466
-0.119759
-0.118438
-0.11492
-0.110975
-0.107208
-0.103458
-0.0992284
-0.0940821
-0.0877924
-0.0803881
-0.0720262
-0.0629151
-0.0532556
-0.0431246
-0.0327029
-0.0221452
-0.0115322
-0.00126684
0.00844998
0.0176425
0.0254974
0.0308457
0.034701
0.0386575
0.039502
0.0329158
0.020434
0.00356844
-0.0219517
-0.0631173
-0.118184
-0.169994
-0.189799
-0.173937
-0.141752
-0.108091
-0.0782734
-0.0532038
-0.0327221
-0.0162988
-0.00305029
0.00826626
0.0181261
0.0250459
0.0244071
0.014066
-0.00267529
-0.0181349
-0.0256813
-0.0255966
-0.0218463
-0.017178
-0.012847
-0.00916946
-0.00620202
-0.00385428
-0.00201176
-0.000600968
-0.095293
-0.103205
-0.106369
-0.105353
-0.102249
-0.0986567
-0.0951611
-0.0916666
-0.0877693
-0.0830941
-0.0774338
-0.0707881
-0.0632776
-0.0550616
-0.0463153
-0.0371095
-0.027578
-0.0178788
-0.00805126
0.00155851
0.0106998
0.019491
0.0273022
0.0331519
0.037745
0.0426892
0.0457483
0.0424943
0.0330152
0.018833
-0.00412556
-0.0423392
-0.0916193
-0.134591
-0.14954
-0.138312
-0.115043
-0.0896731
-0.0659739
-0.0450564
-0.0273632
-0.0127452
-0.000546964
0.0101134
0.0194894
0.026087
0.025712
0.0158689
5.97878e-05
-0.0142307
-0.0213863
-0.0220164
-0.019328
-0.015585
-0.0118927
-0.00862892
-0.00591086
-0.0037175
-0.00195972
-0.000594341
-0.0837922
-0.0909378
-0.0938983
-0.0931197
-0.0904027
-0.08717
-0.0839782
-0.0807803
-0.0772441
-0.0730411
-0.0679815
-0.0620459
-0.0553309
-0.0479647
-0.0400922
-0.0317847
-0.0231324
-0.0142831
-0.00527388
0.00364266
0.0121856
0.020476
0.0280761
0.0341776
0.0391753
0.0442818
0.0479278
0.0465527
0.0398268
0.0285783
0.00881389
-0.0237331
-0.06434
-0.0981816
-0.111287
-0.105897
-0.0908593
-0.0726439
-0.0543253
-0.0372637
-0.022243
-0.00942706
0.0016118
0.011467
0.0200919
0.0259352
0.0255548
0.016744
0.00265079
-0.0101661
-0.0170556
-0.0185014
-0.0168468
-0.0139795
-0.0109028
-0.00804982
-0.00558883
-0.00355865
-0.0018949
-0.000583021
-0.0732625
-0.0795992
-0.0823029
-0.0817216
-0.0793739
-0.076507
-0.0736403
-0.0707608
-0.0675926
-0.0638485
-0.059358
-0.054092
-0.0481267
-0.0415669
-0.0345287
-0.027083
-0.0192913
-0.0112757
-0.003092
0.005087
0.0129979
0.0207092
0.0279147
0.034009
0.0391244
0.0440408
0.0476683
0.0474481
0.0427772
0.0338263
0.0178858
-0.0074382
-0.0388026
-0.0654965
-0.0783773
-0.0782033
-0.0697251
-0.0573516
-0.0436487
-0.03004
-0.0174881
-0.00640277
0.00340618
0.0122827
0.0199398
0.0247225
0.0243939
0.0168281
0.00471276
-0.00654821
-0.0131488
-0.0152403
-0.014479
-0.0123932
-0.00989153
-0.00743823
-0.005238
-0.00337801
-0.00181707
-0.000566711
-0.0635209
-0.069101
-0.0715813
-0.0711891
-0.0691945
-0.0666839
-0.0641382
-0.0615718
-0.0587612
-0.0554578
-0.0515065
-0.0468706
-0.0416076
-0.0358068
-0.0295608
-0.0229357
-0.0159776
-0.00877936
-0.00141163
0.00601028
0.0132582
0.0202839
0.0269712
0.0328454
0.0378515
0.0424042
0.0457976
0.0462686
0.0430567
0.0360866
0.0239403
0.00497052
-0.018786
-0.0400446
-0.0525343
-0.0557303
-0.0519235
-0.0439954
-0.0340344
-0.0234134
-0.0131259
-0.00370584
0.00483177
0.0126008
0.019178
0.0231029
0.0226257
0.0162508
0.00608463
-0.00363025
-0.00984737
-0.012322
-0.0122655
-0.0108494
-0.00887234
-0.00680109
-0.00486119
-0.00317641
-0.00172628
-0.000545289
-0.0545883
-0.0595188
-0.0617874
-0.0615467
-0.0598597
-0.0576734
-0.0554299
-0.0531662
-0.050701
-0.0478162
-0.0443693
-0.0403199
-0.0357123
-0.0306228
-0.0251258
-0.019279
-0.0131209
-0.00671667
-0.000134976
0.00653965
0.0130609
0.0193858
0.0254496
0.0309258
0.0356422
0.0397405
0.0427768
0.0435701
0.0413847
0.0360563
0.0268012
0.0125565
-0.00527174
-0.021952
-0.0332993
-0.0380899
-0.0372536
-0.0325493
-0.0255638
-0.0174833
-0.00922378
-0.00136853
0.0059039
0.0125237
0.0180066
0.0211653
0.0205488
0.0152459
0.00685162
-0.00139916
-0.0070956
-0.00975985
-0.0102256
-0.00936657
-0.00785826
-0.0061461
-0.00446209
-0.00295521
-0.00162288
-0.000518799
-0.0465117
-0.0508499
-0.0529121
-0.0527588
-0.0513183
-0.0494221
-0.0474694
-0.0455013
-0.0433648
-0.0408702
-0.0378905
-0.0343855
-0.0303876
-0.0259605
-0.0211663
-0.0160537
-0.0106574
-0.00502157
0.000809445
0.00684971
0.0125069
0.0181334
0.0235434
0.0285034
0.0328062
0.036424
0.0390594
0.0399418
0.0384481
0.0343604
0.0272409
0.0165601
0.00329561
-0.00960334
-0.0193228
-0.02453
-0.0254232
-0.0229681
-0.0182681
-0.0122767
-0.00579006
0.000619878
0.00667191
0.0121684
0.0166152
0.0190623
0.0183851
0.0140267
0.0071786
0.00026155
-0.00483276
-0.00753769
-0.00836871
-0.00795961
-0.00686166
-0.00548143
-0.00404518
-0.00271651
-0.00150759
-0.00048742
-0.0392229
-0.0429853
-0.0448101
-0.0447369
-0.0435307
-0.0419145
-0.0402395
-0.038547
-0.0367123
-0.0345755
-0.0320243
-0.029019
-0.0255822
-0.0217671
-0.0176265
-0.0132022
-0.00852862
-0.00365231
0.00134763
0.00631937
0.011602
0.0166375
0.0214185
0.0258128
0.029638
0.0327868
0.0350371
0.0358898
0.0348652
0.0317426
0.0262909
0.0183138
0.0084891
-0.00136259
-0.00935614
-0.0143156
-0.0160821
-0.0151094
-0.0121087
-0.00779847
-0.00283102
0.00227468
0.00718909
0.0116379
0.0151519
0.0169808
0.0162895
0.0127399
0.00720547
0.00147185
-0.00299742
-0.00562992
-0.00669718
-0.0066405
-0.00589415
-0.00481535
-0.00361534
-0.00246298
-0.00138159
-0.000451521
-0.0326278
-0.0358704
-0.0374914
-0.0374961
-0.0365058
-0.0351334
-0.0336977
-0.0322499
-0.0306903
-0.0288812
-0.0267212
-0.0241715
-0.0212472
-0.0179924
-0.0144521
-0.0106616
-0.00665037
-0.00245456
0.00187288
0.0062744
0.0107368
0.0150908
0.0192364
0.0230537
0.0263853
0.0290955
0.0310048
0.0317886
0.031102
0.0287559
0.0246322
0.0187086
0.0114591
0.00401622
-0.00237288
-0.00675678
-0.00884768
-0.0087969
-0.00702201
-0.00403089
-0.000332043
0.00362751
0.00751221
0.0110192
0.0137235
0.0150373
0.014356
0.0114834
0.00704169
0.00233692
-0.00152582
-0.00400812
-0.00520847
-0.00541792
-0.00496634
-0.00415643
-0.00317794
-0.00219754
-0.0012463
-0.000411689
-0.0266722
-0.0294809
-0.0309341
-0.0310032
-0.0301941
-0.0290271
-0.0277965
-0.0265698
-0.0252592
-0.0237443
-0.0219345
-0.0197964
-0.0173368
-0.0145896
-0.0115949
-0.00838174
-0.00497484
-0.00140224
0.00229585
0.00606882
0.00985886
0.013572
0.0171136
0.0203787
0.0232352
0.0255487
0.0271696
0.0278834
0.0274539
0.0257359
0.0226711
0.0183095
0.0129881
0.00741659
0.00242628
-0.00127264
-0.00336293
-0.00383757
-0.00291392
-0.000929809
0.00173488
0.00471327
0.00769333
0.0103781
0.012397
0.0132942
0.0126422
0.0103195
0.00677236
0.00294265
-0.000359088
-0.00264276
-0.00389633
-0.00429744
-0.00408696
-0.00351289
-0.00273919
-0.00192395
-0.00110324
-0.000368384
-0.0213728
-0.0237926
-0.0250713
-0.0251725
-0.0245201
-0.0235581
-0.0225353
-0.0215002
-0.0203982
-0.0191292
-0.0176167
-0.0158554
-0.0138132
-0.0115185
-0.00901757
-0.00632623
-0.00346684
-0.000462136
0.0026542
0.00583662
0.00902839
0.0121581
0.0151454
0.0179011
0.0203176
0.0222793
0.0236621
0.0243174
0.0240891
0.0228753
0.0206464
0.0174708
0.0135912
0.00946166
0.00562599
0.00261415
0.00070161
-3.01519e-05
0.00032729
0.0015632
0.00340622
0.00556792
0.00777611
0.00976216
0.0112138
0.0117803
0.0111591
0.00927797
0.00645659
0.00333566
0.000551991
-0.00150457
-0.00275097
-0.00328188
-0.00326325
-0.00289181
-0.00230459
-0.0016466
-0.000955062
-0.000322242
-0.0166649
-0.0187154
-0.0198249
-0.0199526
-0.0194423
-0.018662
-0.0178252
-0.0169849
-0.0160951
-0.0150749
-0.0138556
-0.0123781
-0.010682
-0.00878854
-0.0067098
-0.00447534
-0.00210003
0.000398107
0.00299114
0.0056407
0.008298
0.010905
0.0133951
0.0156949
0.0177184
0.0193715
0.0205547
0.0211634
0.0210925
0.0202732
0.018694
0.0164179
0.0136146
0.0105823
0.00767724
0.0052923
0.00363714
0.00281924
0.00281959
0.00351644
0.00472442
0.00622499
0.00779386
0.00920148
0.0101923
0.0105007
0.00991095
0.0083797
0.00612363
0.00359273
0.00125801
-0.000562654
-0.00176015
-0.0023709
-0.00250081
-0.00230037
-0.00187962
-0.00136849
-0.000803874
-0.000274683
-0.012452
-0.0141913
-0.0151632
-0.0153169
-0.0149281
-0.0143029
-0.0136258
-0.0129464
-0.012228
-0.0114021
-0.010411
-0.00922599
-0.0078522
-0.00630856
-0.00461452
-0.00278717
-0.00084075
0.00120872
0.00333812
0.0055158
0.00770132
0.00984758
0.0119005
0.0138006
0.0154799
0.0168648
0.0178782
0.0184442
0.0184916
0.0179751
0.0168915
0.0152912
0.01329
0.0110847
0.00890653
0.00706645
0.00569094
0.00488923
0.00468085
0.00500281
0.00573379
0.00671473
0.00776929
0.00870997
0.00933447
0.00944382
0.00888238
0.00762176
0.00580804
0.00375602
0.00180672
0.000212825
-0.000910578
-0.00156205
-0.00180276
-0.00174399
-0.00147059
-0.00109467
-0.000651116
-0.000225816
-0.00872413
-0.0102004
-0.011048
-0.0112155
-0.0109261
-0.0104341
-0.00989635
-0.00935779
-0.00879011
-0.00813766
-0.00735306
-0.00641279
-0.00531713
-0.00407945
-0.00271637
-0.0012422
0.000330655
0.00198901
0.0037141
0.0054806
0.00725582
0.0090018
0.0106754
0.0122295
0.0136113
0.0147644
0.0156301
0.0161526
0.0162827
0.0159922
0.0152792
0.0141793
0.0127724
0.0111871
0.00957591
0.00818113
0.00707054
0.00633946
0.00602309
0.00609472
0.00647862
0.00706358
0.00771636
0.00829028
0.00862971
0.00858677
0.0080493
0.00699733
0.0055289
0.00385978
0.00223374
0.000848659
-0.00018721
-0.000851106
-0.0011713
-0.00122695
-0.00108113
-0.000829526
-0.000501546
-0.000176519
-0.0054511
-0.00669095
-0.00742216
-0.00759622
-0.00739179
-0.00701659
-0.00660146
-0.00618601
-0.00574913
-0.00524621
-0.00463846
-0.00390577
-0.00304697
-0.00207178
-0.000993308
0.000176857
0.00142832
0.00275031
0.00412791
0.0055411
0.00696393
0.00836656
0.00971495
0.0109728
0.0120993
0.0130518
0.0137863
0.0142624
0.0144452
0.014315
0.0138705
0.0131363
0.0121658
0.0110439
0.00987087
0.00882553
0.0079461
0.007308
0.00694859
0.00686141
0.00700173
0.0072946
0.00764321
0.00793737
0.00806021
0.00790328
0.0073868
0.00649519
0.00529266
0.00392593
0.00256768
0.00136843
0.000424537
-0.000231319
-0.000605886
-0.00075305
-0.0007161
-0.000574486
-0.00035549
-0.000129424
-0.00257431
-0.00360878
-0.0042386
-0.00441786
-0.00428684
-0.00401278
-0.00370349
-0.0033937
-0.0030684
-0.00269254
-0.00223461
-0.0016775
-0.00101911
-0.000266319
0.000570779
0.00148294
0.00246153
0.00349793
0.0045805
0.00569371
0.0068175
0.00792876
0.00900112
0.0100069
0.0109152
0.011694
0.012311
0.0127364
0.0129446
0.0129213
0.012665
0.0121925
0.0115389
0.0107594
0.00991958
0.00914097
0.00845277
0.00791078
0.0075476
0.00736673
0.0073432
0.00742838
0.00755454
0.00764194
0.00760525
0.00736626
0.00686834
0.00609922
0.00510056
0.00397063
0.00283056
0.001793
0.000938718
0.000303489
-0.000105593
-0.000323094
-0.000378514
-0.000335879
-0.000214655
-8.20505e-05
-5.13092e-05
-0.000914883
-0.00145982
-0.00164296
-0.00157326
-0.00138442
-0.00116487
-0.000944827
-0.000714031
-0.000445141
-0.000112782
0.000297525
0.000788351
0.00135499
0.00198978
0.00268547
0.00343504
0.00423177
0.00506669
0.00592816
0.00680082
0.0076671
0.00850696
0.0092996
0.010022
0.0106503
0.0111603
0.0115307
0.0117424
0.0117843
0.0116546
0.0113637
0.010934
0.0104008
0.00980699
0.00923043
0.00869591
0.00824304
0.00789784
0.00766758
0.0075395
0.00748333
0.00745311
0.00739335
0.00724369
0.00694842
0.00646825
0.00579333
0.00495027
0.00400455
0.00304014
0.00213929
0.00136843
0.000761166
0.000332172
5.97818e-05
-7.15217e-05
-0.000114088
-8.54288e-05
-3.78699e-05
0.00214099
0.00142212
0.000952018
0.000769038
0.000789087
0.000906544
0.00105014
0.0011943
0.00134587
0.0015258
0.0017542
0.00204309
0.00239526
0.0028077
0.00327472
0.00379077
0.00435031
0.00494812
0.00557749
0.0062298
0.00689351
0.0075556
0.00820092
0.0088142
0.0093783
0.00987576
0.0102887
0.0106012
0.0107991
0.0108741
0.0108235