/*--------------------------------*- C++ -*----------------------------------*\
| =========                 |                                                 |
| \\      /  F ield         | OpenFOAM: The Open Source CFD Toolbox           |
|  \\    /   O peration     | Version:  2312                                  |
|   \\  /    A nd           | Website:  www.openfoam.com                      |
|    \\/     M anipulation  |                                                 |
\*---------------------------------------------------------------------------*/
FoamFile
{
    version     2.0;
    format      ascii;
    arch        "LSB;label=32;scalar=64";
    class       surfaceScalarField;
    location    "12.5";
    object      phi;
}
// * * * * * * * * * * * * * * * * * * * * * * * * * * * * * * * * * * * * * //

dimensions      [0 3 -1 0 0 0 0];

oriented        oriented;

internalField   nonuniform List<scalar> 
4490
(
-0.00140721
0.0088406
-0.00743339
0.0130409
-0.00156702
-0.0128811
0.0525527
-0.0397408
0.000228967
0.113037
-0.0897752
0.0292914
0.184048
-0.139934
0.0689229
0.254043
-0.184535
0.114541
0.314957
-0.220633
0.159718
0.359789
-0.249068
0.204237
0.383506
-0.266322
0.242604
-0.282388
0.27831
0.387585
0.00206461
0.006776
0.0338894
-0.0333918
0.0920195
-0.0978709
0.156481
-0.154237
0.212064
-0.195517
0.250409
-0.22288
0.271719
-0.241943
0.279454
-0.256803
0.287371
-0.274238
-0.298014
0.302996
0.0123626
-0.00558657
0.0614324
-0.0824617
0.115406
-0.151844
0.155601
-0.194432
0.177963
-0.217879
0.188948
-0.233866
0.19684
-0.249834
0.209288
-0.269251
0.226787
-0.291738
-0.31179
0.240563
0.0254718
-0.0310584
0.0724598
-0.12945
0.104503
-0.183887
0.120021
-0.20995
0.128516
-0.226374
0.136611
-0.241961
0.145693
-0.258916
0.152938
-0.276495
0.15587
-0.29467
-0.314275
0.158355
0.0317312
-0.0627896
0.0618383
-0.159557
0.0760264
-0.198075
0.0817497
-0.215674
0.0843224
-0.228947
0.0847646
-0.242403
0.0830947
-0.257246
0.0808715
-0.274272
0.0802506
-0.294049
0.079656
-0.31368
-0.0200384
0.0277984
-0.00775997
-0.0478972
0.0375759
-0.00971711
-0.0754897
0.036331
-0.00873837
-0.101748
0.0331125
-0.00685412
-0.126489
0.0291721
-0.00443167
-0.148918
0.0238376
-0.00140827
-0.168728
0.0179398
0.00187025
-0.182878
0.00820295
0.00594713
-0.192161
-0.000165934
0.00944902
-0.0147923
-0.192089
0.0147202
-0.00372608
0.0315244
-0.0140783
0.0479281
-0.0248262
0.0470789
-0.0320642
0.0403505
-0.0341943
0.0313021
-0.0302436
0.0198868
-0.0196572
0.00735343
-0.00098242
-0.0104718
0.027277
-0.0284253
-0.0571632
0.0696478
0.00971762
0.0218068
0.0178201
0.0398256
0.0252514
0.0396476
0.0356933
0.0299086
0.0520614
0.0149341
0.075648
-0.00369977
0.110271
-0.0272698
0.159745
-0.0599459
0.220062
-0.0887418
-0.139945
0.302844
0.0109576
0.0108492
0.0266118
0.0241714
0.0440025
0.0222569
0.0656814
0.00822972
0.0965066
-0.0158911
0.140393
-0.0475864
0.198431
-0.085308
0.268763
-0.130277
0.351976
-0.171955
-0.223305
0.435335
0.00341583
0.0147061
0.037192
0.0747132
0.127745
0.194699
0.269109
0.343069
0.413718
0.468723
-0.173115
-0.0414305
0.0224569
-0.136832
-0.064344
0.0280603
-0.0881974
-0.0813948
0.0327606
-0.0205839
-0.0975875
0.0299741
0.0629792
-0.110345
0.0267816
0.151945
-0.11487
0.0259041
0.230055
-0.104527
0.0264171
0.289936
-0.0862221
0.0263409
0.331401
-0.0668028
0.0253379
0.360486
-0.0531738
0.0240887
0.38248
-0.0443613
0.0223677
0.399871
-0.0372807
0.019889
0.413381
-0.0300006
0.016491
0.423105
-0.0222417
0.0125182
0.429367
-0.0139454
0.00768274
0.4329
-0.00615916
0.0026261
0.434425
0.00331165
-0.0048366
0.434685
0.0102185
-0.010478
0.433918
0.0252052
-0.0244388
0.432634
0.0287867
-0.0275025
0.430614
0.0593407
-0.0573205
0.428332
0.0544078
-0.0521261
0.425558
0.10994
-0.107165
0.422384
0.104744
-0.10157
0.180075
-0.176563
0.0802072
-0.0519899
0.102301
-0.0864379
0.132266
-0.11136
0.173573
-0.138895
0.226103
-0.162874
0.281097
-0.169864
0.328821
-0.152252
0.363208
-0.120608
0.385496
-0.0890916
0.398547
-0.0662239
0.406491
-0.0523053
0.412498
-0.0432881
0.417742
-0.035245
0.422286
-0.0267853
0.425922
-0.0175816
0.428538
-0.00877522
0.430069
0.00178134
0.430807
0.00948037
0.430685
0.0253266
0.430151
0.0293207
0.428886
0.0606061
0.427408
0.0558855
0.425365
0.111984
0.422959
0.107149
0.183021
0.306969
-0.0561151
0.311344
-0.0908128
0.32112
-0.121136
0.336599
-0.154373
0.355413
-0.181689
0.37138
-0.185831
0.38242
-0.163291
0.391078
-0.129266
0.39754
-0.0955538
0.401637
-0.0703211
0.404068
-0.0547362
0.406032
-0.0452523
0.40826
-0.037473
0.410868
-0.0293936
0.413653
-0.0203661
0.416433
-0.011555
0.418803
-0.000588879
0.420753
0.00753042
0.422017
0.0240627
0.423008
0.0283288
0.423298
0.0603166
0.423486
0.0556977
0.423092
0.112377
0.42245
0.107791
0.184307
0.430059
-0.0508389
0.418244
-0.078998
0.405626
-0.108518
0.39039
-0.139137
0.372519
-0.163818
0.35458
-0.167892
0.342325
-0.151036
0.33989
-0.126831
0.346257
-0.10192
0.356597
-0.0806611
0.366918
-0.0650574
0.375737
-0.0540713
0.382836
-0.0445726
0.388603
-0.0351599
0.393397
-0.0251608
0.397691
-0.015849
0.401579
-0.00447622
0.405267
0.00384186
0.408422
0.0209079
0.411544
0.0252069
0.414076
0.0577845
0.416699
0.0530743
0.418832
0.110244
0.420879
0.105745
0.182855
0.454843
-0.0369589
0.433703
-0.0578583
0.407693
-0.0825068
0.376307
-0.107752
0.340039
-0.12755
0.307697
-0.13555
0.290009
-0.133348
0.287123
-0.123946
0.29578
-0.110577
0.309966
-0.094847
0.324427
-0.079518
0.336905
-0.0665497
0.347505
-0.0551726
0.356682
-0.0443365
0.364656
-0.0331348
0.371721
-0.0229143
0.378135
-0.0108902
0.384283
-0.00230607
0.390049
0.0151426
0.395967
0.0192886
0.401452
0.0522996
0.407234
0.047292
0.412722
0.104756
0.418304
0.100163
0.177637
0.482988
-0.0273155
-0.492632
0.472788
-0.0476584
0.457984
-0.0677024
0.437864
-0.0876317
0.414823
-0.104509
0.394906
-0.115634
0.381538
-0.11998
0.374015
-0.116423
0.369889
-0.106452
0.367983
-0.0929406
0.367509
-0.079044
0.367539
-0.0665802
0.36775
-0.0553827
0.368225
-0.0448115
0.368984
-0.0338946
0.369935
-0.023865
0.371021
-0.0119759
0.372173
-0.0034581
0.37319
0.0141256
0.37417
0.0183088
0.375041
0.0514286
0.375997
0.0463357
0.376786
0.103967
0.377864
0.0990854
0.17664
0.534327
-0.0216845
-0.539958
0.525701
-0.0390323
0.514781
-0.0567829
0.500511
-0.0733609
0.484133
-0.0881308
0.467476
-0.0989775
0.452624
-0.105128
0.44099
-0.104789
0.432262
-0.0977232
0.426618
-0.0872973
0.423843
-0.0762682
0.423023
-0.0657606
0.42318
-0.0555397
0.423855
-0.0454867
0.424871
-0.0349102
0.426073
-0.0250673
0.427308
-0.0132104
0.428449
-0.00459989
0.429634
0.0129408
0.430787
0.0171554
0.431786
0.0504303
0.432957
0.0451648
0.433919
0.103005
0.435226
0.097778
0.175323
0.596622
-0.0189492
-0.599357
0.589994
-0.0324045
0.580523
-0.0473116
0.568328
-0.0611662
0.554162
-0.0739646
0.539216
-0.0840312
0.524229
-0.090141
0.510794
-0.0913534
0.50065
-0.087579
0.49425
-0.0808978
0.49089
-0.0729082
0.4894
-0.0642704
0.489037
-0.0551767
0.489332
-0.045782
0.490085
-0.0356627
0.491135
-0.026117
0.492384
-0.0144594
0.493783
-0.00599917
0.494952
0.0117713
0.49623
0.015878
0.497301
0.0493588
0.498709
0.0437569
0.499878
0.101836
0.501473
0.0961829
0.173618
0.667711
-0.0173154
-0.669344
0.662674
-0.0273674
0.654737
-0.0393753
0.644156
-0.0505849
0.630885
-0.0606942
0.616161
-0.0693065
0.601814
-0.0757944
0.589738
-0.0792777
0.580856
-0.0786963
0.574935
-0.0749767
0.57112
-0.069094
0.568589
-0.0617387
0.567031
-0.0536186
0.566385
-0.0451363
0.566502
-0.03578
0.567159
-0.0267738
0.568062
-0.0153626
0.569086
-0.00702308
0.570288
0.0105694
0.57173
0.0144361
0.572937
0.0481515
0.574643
0.0420509
0.576076
0.100403
0.57803
0.0942296
0.171411
0.749281
-0.0164924
-0.750104
0.745804
-0.0238895
0.739298
-0.0328702
0.730397
-0.0416831
0.720034
-0.050331
0.709011
-0.058284
0.697437
-0.0642208
0.68596
-0.0678003
0.675688
-0.0684246
0.667446
-0.066735
0.661552
-0.0631996
0.657697
-0.0578831
0.655454
-0.0513765
0.654378
-0.0440598
0.654088
-0.0354898
0.654401
-0.0270869
0.655188
-0.0161498
0.656506
-0.00834143
0.657644
0.0094319
0.659217
0.012863
0.660433
0.0469358
0.662444
0.04004
0.66418
0.0986668
0.666569
0.0918401
0.168547
0.843825
-0.0160127
-0.844305
0.841333
-0.0213974
0.836602
-0.0281394
0.829998
-0.0350792
0.821519
-0.0418517
0.811389
-0.0481541
0.800508
-0.0533392
0.789821
-0.0571135
0.78042
-0.0590238
0.77279
-0.0591048
0.767021
-0.0574305
0.762728
-0.0535905
0.759569
-0.0482172
0.757605
-0.0420956
0.756697
-0.0345821
0.756572
-0.0269622
0.756802
-0.0163795
0.757388
-0.00892707
0.7583
0.00851973
0.759907
0.0112555
0.761385
0.0454584
0.763792
0.0376329
0.766028
0.0964305
0.769008
0.0888597
0.164869
0.954524
-0.0158772
-0.954659
0.95302
-0.0198937
0.949658
-0.0247775
0.94439
-0.0298105
0.937523
-0.0349849
0.92944
-0.0400714
0.920668
-0.044567
0.911715
-0.0481607
0.903028
-0.0503368
0.895044
-0.0511207
0.888238
-0.0506242
0.882929
-0.0482817
0.878914
-0.0442018
0.87608
-0.0392623
0.874314
-0.0328162
0.873514
-0.0261623
0.873516
-0.0163809
0.874504
-0.00991516
0.875479
0.00754489
0.87744
0.00929396
0.878717
0.0441819
0.881683
0.0346662
0.88414
0.0939735
0.887857
0.0851436
0.160022
1.08305
-0.0158859
-1.08304
1.08193
-0.018773
1.07939
-0.0222364
1.07555
-0.0259724
1.07045
-0.0298876
1.06416
-0.0337807
1.05694
-0.0373459
1.04918
-0.0403988
1.04142
-0.0425728
1.03409
-0.043795
1.02755
-0.0440784
1.0221
-0.0428394
1.01773
-0.0398311
1.01439
-0.0359217
1.01209
-0.0305113
1.01077
-0.0248492
1.00995
-0.0155581
1.00984
-0.00979901
1.01011
0.00727385
1.01173
0.00767041
1.01349
0.0424243
1.01681
0.0313481
1.02048
0.0903023
1.02499
0.0806345
0.153965
1.23546
-0.0159156
-1.23543
1.23457
-0.0178826
1.23262
-0.0202945
1.22964
-0.0229851
1.22555
-0.0258029
1.22044
-0.0286687
1.21449
-0.031397
1.20792
-0.0338274
1.20103
-0.0356808
1.1941
-0.0368683
1.18744
-0.0374208
1.1815
-0.0368944
1.1765
-0.0348366
1.17245
-0.0318677
1.16936
-0.0274177
1.16738
-0.0228692
1.16643
-0.0146112
1.1669
-0.0102733
1.16756
0.00661218
1.17017
0.00506072
1.17144
0.041158
1.17605
0.0267402
1.17956
0.0867916
1.18557
0.0746273
0.145351
1.41137
-0.0156271
-1.41166
1.41051
-0.0170197
1.409
-0.0187856
1.40676
-0.02074
1.40368
-0.0227296
1.39976
-0.0247434
1.39505
-0.0266884
1.38967
-0.028451
1.3839
-0.0299038
1.37802
-0.0309929
1.37222
-0.0316176
1.36668
-0.0313606
1.36168
-0.0298288
1.35736
-0.0275469
1.35381
-0.0238742
1.35122
-0.0202729
1.34918
-0.0125736
1.34826
-0.00935874
1.34773
0.00714876
1.34931
0.00347602
1.35134
0.0391293
1.35606
0.0220212
1.36183
0.0810256
1.36884
0.0676122
0.135381
1.62094
-0.0150491
-1.62152
1.61989
-0.0159722
1.61827
-0.0171581
1.61599
-0.0184685
1.61305
-0.0197811
1.60943
-0.0211303
1.60518
-0.0224361
1.60033
-0.0236044
1.59501
-0.024582
1.58926
-0.0252394
1.58322
-0.0255805
1.5773
-0.0254341
1.57193
-0.0244615
1.56723
-0.0228528
1.56338
-0.0200194
1.56049
-0.0173816
1.55874
-0.0108231
1.55864
-0.009262
1.55886
0.00692961
1.56264
-0.000303277
1.56393
0.0378366
1.57131
0.0146438
1.57717
0.0751687
1.58668
0.0580943
0.119559
1.86323
-0.0138381
-1.86444
1.86174
-0.014486
1.85988
-0.0152948
1.85757
-0.0161622
1.85477
-0.0169817
1.85142
-0.0177769
1.84753
-0.0185476
1.84314
-0.0192078
1.8383
-0.0197445
1.83319
-0.0201344
1.82805
-0.0204324
1.82289
-0.0202816
1.81786
-0.019424
1.81301
-0.0180038
1.80872
-0.0157301
1.80507
-0.0137344
1.80219
-0.00794124
1.80054
-0.00761728
1.79967
0.00780553
1.80135
-0.00198113
1.80394
0.0352437
1.81095
0.00763113
1.81969
0.0664316
1.83084
0.0469378
0.102098
2.15374
-0.0114421
-2.15614
2.15103
-0.0117775
2.14795
-0.0122147
2.14448
-0.0126847
2.14058
-0.0130872
2.13628
-0.0134737
2.1316
-0.0138711
2.1265
-0.0141081
2.12106
-0.0143003
2.1153
-0.0143811
2.10931
-0.0144388
2.10305
-0.0140179
2.09718
-0.0135569
2.09157
-0.0123911
2.08725
-0.0114166
2.08317
-0.00964967
2.08145
-0.00622597
2.08
-0.00616185
2.08129
0.00650997
2.08467
-0.00535971
2.08867
0.0312421
2.0982
-0.00188997
2.11071
0.0539174
2.1245
0.0331437
0.073843
2.48346
-0.00794857
-2.48695
2.47971
-0.00802609
2.47563
-0.00813457
2.47117
-0.00823012
2.46645
-0.0083613
2.46137
-0.00839967
2.45575
-0.0082469
2.44993
-0.00829036
2.44427
-0.00864405
2.43804
-0.00815222
2.43091
-0.00730041
2.42376
-0.00686793
2.41823
-0.00803587
2.41377
-0.00792784
2.41045
-0.00809918
2.40619
-0.00538549
2.40367
-0.00371105
2.40011
-0.0025928
2.40095
0.00566821
2.40138
-0.00579093
2.40814
0.0244822
2.41526
-0.00901177
2.43231
0.0368704
2.44751
0.0179387
0.0419624
2.88963
-2.89758
2.88161
2.87347
2.86524
2.85688
2.84848
2.84023
2.83194
2.8233
2.81515
2.80785
2.80098
2.79294
2.78502
2.77692
2.77153
2.76782
2.76523
2.7709
2.7651
2.78959
2.78057
2.81745
2.83538
0.418002
0.0659488
-0.404295
0.433701
0.142655
0.451487
0.222777
0.466414
0.28807
0.361367
0.473237
0.0535344
-0.460823
0.486305
0.129587
0.504526
0.204557
0.519185
0.273411
0.340594
0.53548
0.0434117
-0.525357
0.547354
0.117713
0.563034
0.188877
0.579129
0.257315
0.320366
0.607183
0.0343289
-0.5981
0.618744
0.106152
0.633045
0.174576
0.649972
0.240389
0.300994
0.689752
0.0266627
-0.682086
0.700868
0.0950356
0.714264
0.16118
0.730825
0.223828
0.281714
0.784956
0.0198659
-0.778159
0.79498
0.0850113
0.808019
0.148142
0.824544
0.207302
0.261953
0.894919
0.0140768
-0.88913
0.904379
0.0755521
0.917724
0.134796
0.934511
0.190515
0.241805
1.02186
0.00906414
-1.01685
1.03125
0.0661649
1.04477
0.121274
1.06196
0.173322
0.220726
1.17086
0.00433852
-1.16614
1.1802
0.0568267
1.19419
0.107288
1.2126
0.154914
0.197897
1.34225
0.000854237
-1.33876
1.35169
0.0473807
1.36657
0.0924147
1.38664
0.134839
0.172878
1.54667
-0.00308181
-1.54273
1.55661
0.0374372
1.57261
0.0764168
1.59441
0.113035
0.145772
1.77996
-0.00515406
-1.77789
1.79007
0.0273344
1.80792
0.0585594
1.83295
0.0880055
0.114284
2.06667
-0.0069191
-2.06491
2.07705
0.0169595
2.09576
0.0398458
2.12241
0.0613566
0.0805548
2.38465
-0.00686692
-2.38471
2.39528
0.00632964
2.41636
0.0187677
2.44724
0.0304818
0.04084
2.80116
-2.80803
2.80749
2.82626
2.85674
0.214126
0.239693
-0.206161
-0.247659
0.183876
0.223136
-0.192886
0.156991
0.21024
-0.183355
0.129096
0.200797
-0.172902
0.101361
0.190559
-0.162825
0.075904
0.181365
-0.155907
0.0524047
0.17432
-0.150821
0.0295246
0.170102
-0.147222
0.00974783
0.16358
-0.143804
0.117145
-0.107397
0.172175
0.270839
-0.203321
0.141194
0.254117
0.114634
0.2368
0.0924347
0.222997
0.071473
0.211521
0.0510616
0.201776
0.0318568
0.193525
0.0141842
0.187775
0.000271166
0.177493
0.117416
0.109716
0.290232
-0.129109
0.0904138
0.273419
0.0707924
0.256421
0.0523053
0.241484
0.0357188
0.228108
0.0209745
0.21652
0.00755277
0.206947
-0.00363715
0.198965
-0.00817392
0.18203
0.109242
0.046423
0.307196
-0.0633872
0.0317595
0.288083
0.0186573
0.269523
0.00733474
0.252807
-0.00270892
0.238151
-0.0118531
0.225665
-0.0197062
0.2148
-0.0238545
0.203113
-0.0183395
0.176515
0.0909026
-0.0265456
0.0200615
-0.0325121
-0.0372609
-0.0417007
-0.0459528
-0.0492349
-0.0501087
-0.0450712
-0.0281129
0.337632
0.0306071
-0.38536
0.0171205
0.292726
0.028841
0.0160653
0.250204
0.0273706
0.0151512
0.209842
0.0260316
0.014331
0.171401
0.0248283
0.0136127
0.13447
0.0238799
0.0130503
0.0986079
0.0232378
0.0126245
0.0633345
0.022944
0.0123295
0.0278815
0.0231831
0.0122699
0.0181942
0.00968732
0.332985
0.0778962
-0.380274
0.288224
0.0736021
0.245865
0.0697292
0.205681
0.0662154
0.16759
0.0629199
0.131267
0.0602022
0.0962145
0.0582907
0.0617319
0.0574266
0.0269864
0.0579286
0.0451805
0.317862
0.123364
-0.36333
0.275217
0.116247
0.235039
0.109908
0.196759
0.104495
0.159819
0.0998605
0.124353
0.0956676
0.0904195
0.0922245
0.0575093
0.0903368
0.0249803
0.0904576
0.0701608
0.290879
0.167617
-0.335132
0.24919
0.157936
0.211132
0.147966
0.176623
0.139004
0.14399
0.132494
0.111859
0.127798
0.0806981
0.123386
0.0505155
0.120519
0.0214637
0.119509
0.0916246
0.256882
-0.295426
0.221931
0.186543
0.152644
0.122313
0.0942041
0.066769
0.0400665
0.0157724
0.423827
0.386601
-0.392613
0.429179
0.331473
-0.336826
0.42937
0.269374
-0.269565
0.438115
0.188568
-0.197313
0.433885
0.114654
-0.110424
0.439314
0.0377702
-0.0431994
0.436077
0.00686465
-0.00362693
0.438244
-0.0203565
0.0181892
0.432666
-0.0229477
0.0285254
0.431057
-0.0329656
0.0345752
0.423628
-0.0276197
0.0350484
0.418159
-0.0278147
0.0332835
0.408158
-0.0198349
0.0298361
0.398567
-0.0167297
0.0263205
-0.0096789
0.022886
0.420013
0.384403
0.422726
0.32876
0.421324
0.270776
0.428671
0.181221
0.426028
0.117298
0.431834
0.0319643
0.42934
0.00935855
0.431441
-0.0224575
0.426729
-0.018236
0.425858
-0.032094
0.418993
-0.0207548
0.413757
-0.0225793
0.403686
-0.00976398
0.393868
-0.0069111
0.00391492
0.414676
0.387542
0.412932
0.330505
0.40915
0.274557
0.413453
0.176918
0.411637
0.119113
0.416774
0.0268277
0.41425
0.011882
0.415299
-0.0235061
0.410862
-0.0137985
0.409478
-0.0307104
0.402533
-0.0138096
0.396811
-0.0168577
0.385903
0.00114384
0.376279
0.00271297
0.0168642
0.407871
0.397487
0.400241
0.338135
0.393074
0.281724
0.392646
0.177346
0.390996
0.120764
0.393746
0.024078
0.391397
0.0142307
0.390308
-0.0224173
0.387178
-0.0106688
0.385162
-0.0286935
0.377887
-0.0065348
0.370284
-0.00925458
0.358947
0.0124808
0.34889
0.0127692
0.0306229
0.399767
0.415535
0.384965
0.352937
0.373741
0.292948
0.368163
0.182923
0.365159
0.123769
0.364822
0.0244147
0.361073
0.0179797
0.357644
-0.0189888
0.353894
-0.0069189
0.348243
-0.0230427
0.33927
0.00243886
0.329693
0.00032248
0.317591
0.0245823
0.307873
0.0224871
0.0430707
0.372772
0.4155
0.373081
0.352628
0.372057
0.293972
0.372036
0.182945
0.369642
0.126162
0.369135
0.0249216
0.366183
0.0209312
0.362325
-0.0151299
0.361063
-0.00565722
0.357049
-0.0190287
0.355487
0.00400037
0.352799
0.00301044
0.352804
0.0245775
0.355106
0.020185
0.0358117
0.362365
0.428477
0.415341
0.428586
0.352519
0.428213
0.294345
0.427605
0.183553
0.42664
0.127127
0.423847
0.0277139
0.422926
0.0218529
0.418407
-0.0106112
0.418722
-0.0059726
0.413217
-0.0135237
0.41468
0.00253814
0.41197
0.00571991
0.416574
0.0199733
0.417376
0.0193836
0.0273993
0.425788
0.492488
0.41504
0.492649
0.352358
0.49285
0.294143
0.49183
0.184573
0.491667
0.127291
0.487611
0.0317697
0.487842
0.0216221
0.484289
-0.00705869
0.484668
-0.0063519
0.480417
-0.00927221
0.481739
0.0012156
0.482196
0.00526335
0.487223
0.0149464
0.491024
0.0155827
0.020137
0.498286
0.566102
0.414518
0.566438
0.352022
0.567218
0.293364
0.565884
0.185907
0.567135
0.126039
0.562453
0.0364526
0.563083
0.0209919
0.560834
-0.00480999
0.560826
-0.00634386
0.559727
-0.00817311
0.560435
0.000507455
0.563688
0.00201005
0.568723
0.0099121
0.57443
0.00987575
0.013932
0.580635
0.650752
0.413684
0.651507
0.351266
0.653079
0.291793
0.651609
0.187376
0.653585
0.124064
0.649346
0.040691
0.650652
0.0196856
0.649779
-0.00393623
0.649969
-0.00653367
0.650818
-0.00902261
0.653003
-0.00167779
0.656888
-0.00187433
0.662416
0.00438416
0.668273
0.00401885
0.00771378
0.674491
0.748048
0.412467
0.749308
0.350006
0.751916
0.289185
0.751088
0.188204
0.754158
0.120994
0.751166
0.043683
0.752612
0.0182397
0.753125
-0.00444958
0.754271
-0.00767971
0.756672
-0.0114232
0.760298
-0.00530406
0.764512
-0.00608864
0.77009
-0.00119327
0.775549
-0.00144062
0.00188626
0.781377
0.860174
0.410489
0.862628
0.347553
0.86633
0.285483
0.865936
0.188599
0.869244
0.117686
0.867907
0.0450197
0.870722
0.0154252
0.872684
-0.0064122
0.875337
-0.010332
0.878305
-0.0143913
0.883002
-0.0100009
0.88743
-0.0105173
0.892991
-0.00675418
0.898129
-0.00657824
-0.00358259
0.903598
0.988825
0.407831
0.992769
0.343609
0.998777
0.279475
1.00122
0.186156
1.00624
0.112664
1.00676
0.0444982
1.00982
0.0123637
1.01242
-0.00900593
1.0163
-0.0142108
1.02002
-0.0181137
1.02519
-0.0151726
1.02986
-0.0151813
1.03503
-0.0119315
1.03959
-0.0111338
-0.00829742
1.0443
1.13789
0.403161
1.14438
0.337124
1.15113
0.27272
1.15443
0.182858
1.15975
0.107348
1.16281
0.0414353
1.16846
0.00671651
1.17292
-0.0134681
1.17804
-0.0193293
1.18239
-0.0224705
1.18764
-0.020417
1.19217
-0.0197107
1.19693
-0.0166972
1.201
-0.0151994
-0.0123893
1.20509
1.30938
0.395981
1.32051
0.326001
1.33278
0.260444
1.34166
0.17398
1.34999
0.0990151
1.35454
0.0368859
1.35921
0.00205172
1.3636
-0.0178554
1.36872
-0.024457
1.37309
-0.0268329
1.3779
-0.0252283
1.38189
-0.023706
1.38593
-0.020738
1.3892
-0.0184695
-0.0155676
1.39238
1.50805
0.384314
1.52376
0.310289
1.53818
0.246032
1.54906
0.163099
1.55907
0.0889999
1.56753
0.0284304
1.57624
-0.00666125
1.58276
-0.0243786
1.5886
-0.0302968
1.59335
-0.0315798
1.59779
-0.0296659
1.60141
-0.0273248
1.6047
-0.024032
1.60736
-0.0211309
-0.0180201
1.60981
1.7431
0.360738
1.77022
0.283163
1.7946
0.22165
1.81292
0.144782
1.82673
0.0751897
1.83445
0.0207095
1.84071
-0.0129133
1.84559
-0.0292631
1.8502
-0.0349044
1.85358
-0.034964
1.85668
-0.032763
1.85884
-0.0294907
1.86082
-0.0260098
1.86217
-0.0224832
-0.0192429
1.8634
2.01992
0.31675
2.06541
0.23767
2.10165
0.185414
2.12899
0.117436
2.14792
0.056264
2.16114
0.00748564
2.16892
-0.0206937
2.17322
-0.0335661
2.17549
-0.0371677
2.17648
-0.035954
2.17677
-0.033055
2.17654
-0.0292658
2.17609
-0.0255562
2.17545
-0.0218379
-0.0186116
2.17481
2.34677
0.240558
2.41285
0.171589
2.4701
0.12816
2.50885
0.078691
2.53169
0.0334165
2.5401
-0.000921106
2.5426
-0.0231943
2.54179
-0.0327559
2.53977
-0.0351453
2.53707
-0.033257
2.53403
-0.0300087
2.53071
-0.0259475
2.52738
-0.0222251
2.52417
-0.0186263
-0.0156674
2.52122
2.84971
3.0213
3.14946
3.22815
3.26157
3.26065
3.23745
3.2047
3.16955
3.13629
3.10629
3.08034
3.05811
3.03949
3.02382
0.369976
-0.25527
0.374375
-0.20772
0.381976
-0.13671
0.393171
-0.0745823
0.00893812
0.432641
-0.262123
0.435924
-0.211003
0.443391
-0.144177
0.450465
-0.0816559
-0.00141966
0.501681
-0.265518
0.50376
-0.213082
0.509534
-0.14995
0.515233
-0.0873555
-0.0115434
0.581712
-0.266595
0.582999
-0.214369
0.586564
-0.153515
0.590431
-0.091223
-0.0192124
0.672488
-0.264593
0.671453
-0.213334
0.673024
-0.155086
0.67552
-0.0937193
-0.0257782
0.775972
-0.259188
0.772679
-0.210041
0.772141
-0.154548
0.773282
-0.0948598
-0.0306552
0.894857
-0.250448
0.888836
-0.20402
0.885904
-0.151616
0.885662
-0.0946179
-0.0341237
1.03204
-0.238183
1.02283
-0.194812
1.01714
-0.145926
1.01499
-0.092463
-0.0359887
1.18926
-0.222356
1.17705
-0.182594
1.16894
-0.137821
1.16519
-0.0887074
-0.0369422
1.37243
-0.202401
1.35651
-0.166681
1.34528
-0.12659
1.33933
-0.0827528
-0.0363772
1.58562
-0.178205
1.56624
-0.147306
1.5523
-0.112649
1.54429
-0.0747396
-0.0348217
1.83385
-0.148657
1.80971
-0.123164
1.79204
-0.0949839
1.78138
-0.0640768
-0.0313328
2.13807
-0.111913
2.10798
-0.0930696
2.08509
-0.0720927
2.07048
-0.0494688
-0.025762
2.47638
-0.0670729
2.4394
-0.056086
2.41126
-0.0439505
2.39284
-0.0310551
-0.0176262
2.95675
2.90066
2.85671
2.82566
0.00894229
-0.000405009
-0.00853728
0.0101674
-0.00122507
0.00488562
0.00528174
-0.0121383
0.017024
0.0282178
-0.0403562
0.0102521
0.00866458
-0.0193217
-0.00907162
0.0180987
-0.048006
0.0442161
-0.0977886
0.0668065
0.0688883
-0.138459
-0.0104344
0.035375
-0.016276
-0.0581712
0.0658354
-0.116832
0.102877
-0.162191
0.112165
0.0929807
-0.186283
-0.0480505
0.0822025
0.00122305
-0.113012
0.130797
-0.169057
0.158922
-0.19733
0.140438
0.104327
-0.208676
-0.0933994
0.146282
0.0293196
-0.161334
0.198732
-0.202196
0.199784
-0.216643
0.154885
0.111309
-0.223625
-0.139806
0.219363
0.0667247
-0.199012
0.257937
-0.222572
0.223344
-0.23179
0.164103
0.117364
-0.237845
-0.183032
0.295459
0.106936
-0.227141
0.302047
-0.238024
0.234227
-0.248764
0.174843
0.121227
-0.252627
-0.221089
0.360485
0.156063
-0.246335
0.327292
-0.254343
0.242234
-0.26744
0.187941
0.122063
-0.268276
-0.24969
0.415685
0.194491
-0.262389
0.339991
-0.274939
0.254784
-0.286613
0.199615
0.122474
-0.287024
-0.273634
0.251016
0.438303
-0.279201
0.345558
-0.298136
0.27372
-0.305579
0.207057
0.123253
-0.306358
0.0165771
-0.0243371
0.0289744
-0.0123973
0.0258549
0.00311954
0.0151417
0.0107132
0.00660443
0.0226329
-0.0566871
0.0427627
-0.032527
0.0444431
0.00143908
0.0318646
0.0232917
0.0191473
0.023489
-0.0889145
0.0437629
-0.0528009
0.0460738
-0.000871873
0.0334245
0.0359411
0.0362957
0.0245899
-0.120359
0.0417559
-0.069967
0.0401352
0.000748844
0.0248062
0.0512701
0.062325
0.0257953
-0.150585
0.0391276
-0.0832993
0.0307844
0.00909211
0.00957636
0.0724781
0.101221
0.0265756
-0.178569
0.0339971
-0.0907208
0.0188817
0.0242075
-0.0131423
0.104502
0.154803
0.027781
-0.20448
0.0308155
-0.0937553
0.00701951
0.0480035
-0.0377061
0.149228
0.224033
0.0261022
-0.224635
0.0186216
-0.0862747
-0.0191265
0.0857516
-0.0807734
0.210875
0.299323
0.0273513
-0.242537
0.0139338
-0.0728572
-0.0343556
0.134041
-0.109123
0.285642
0.38469
0.0203424
-0.24816
-0.00860378
-0.043911
-0.0813473
0.206784
-0.171412
0.375707
0.464294
-0.000247214
-0.225456
-0.0119587
-0.0321995
-0.0141261
0.208952
-0.00984549
0.371426
0.452431
0.00201759
-0.0105766
-0.186819
-0.0356972
-0.00707899
-0.0446199
0.217875
-0.0376268
0.364433
0.434784
-0.0199799
-0.0204544
-0.133604
-0.057977
0.0304436
-0.0764203
0.236318
-0.0708553
0.358868
0.411726
-0.0477965
-0.0432237
-0.0604059
-0.0964335
0.0836534
-0.121767
0.261651
-0.113743
0.350845
0.381208
-0.0832259
-0.0639515
0.0303272
-0.130502
0.150204
-0.160929
0.292078
-0.15255
0.342466
0.343086
-0.114427
-0.069599
0.12583
-0.140255
0.22086
-0.169585
0.321408
-0.160807
0.333687
0.307611
-0.125332
-0.0572768
0.209524
-0.118696
0.28228
-0.143079
0.345791
-0.139255
0.329863
0.287096
-0.118739
-0.0381887
0.274054
-0.0836022
0.327693
-0.102966
0.365155
-0.106573
0.333469
0.283675
-0.103152
-0.0203111
0.319703
-0.0519564
0.359339
-0.0654223
0.378621
-0.0746104
0.342657
0.293191
-0.0841267
-0.00891266
0.352704
-0.0302249
0.380651
-0.0390409
0.387437
-0.0497398
0.353356
0.307635
-0.0641837
-0.002676
0.377748
-0.017343
0.395318
-0.0232868
0.393381
-0.0331013
0.363171
0.32188
-0.0473462
0.000478439
0.397158
-0.0101488
0.405945
-0.0146888
0.397921
-0.0229287
0.37141
0.333969
-0.0350175
0.001835
0.411814
-0.00594951
0.41373
-0.00993139
0.401903
-0.016461
0.37794
0.343821
-0.0263128
0.00230826
0.422024
-0.00332888
0.419367
-0.00698925
0.405563
-0.0122291
0.38318
0.351796
-0.0202041
0.00129863
0.428409
-0.00253083
0.423196
-0.00578548
0.408818
-0.0101275
0.387522
0.358479
-0.0168105
-0.000845072
0.43188
-0.00315407
0.425505
-0.00574724
0.411411
-0.00935296
0.391128
0.364223
-0.0150971
-0.00623868
0.433282
-0.00734281
0.426609
-0.00919341
0.413261
-0.0122638
0.394198
0.369402
-0.0174435
-0.0105678
0.433372
-0.0107762
0.426818
-0.0119285
0.414414
-0.0144896
0.396759
0.374111
-0.0191977
-0.0235438
0.432477
-0.0230459
0.42632
-0.0236852
0.415053
-0.0260309
0.399105
0.378801
-0.0307209
-0.0260947
0.431069
-0.02515
0.425375
-0.0254005
0.415303
-0.0274709
0.401175
0.383332
-0.0320019
-0.055265
0.429013
-0.0538628
0.423973
-0.0538856
0.415326
-0.0560375
0.403327
0.388267
-0.0609733
-0.0498073
0.426695
-0.0481629
0.422329
-0.0480157
0.415179
-0.0501239
0.405435
0.393343
-0.0551991
-0.104489
0.424018
-0.102708
0.420547
-0.102675
0.415147
-0.105191
0.407951
0.399133
-0.110981
-0.098485
0.420933
-0.096398
0.41846
-0.0962495
0.414998
-0.0989322
0.410634
0.405471
-0.105271
-0.173359
-0.171478
-0.171894
-0.175494
-0.183052
0.0105273
0.49599
-0.504499
0.0146597
0.536775
-0.540907
0.0161741
0.591894
-0.593408
0.0170106
0.655946
-0.656783
0.0166826
0.7308
-0.730472
0.0161899
0.816511
-0.816018
0.0158591
0.915136
-0.914805
0.0156672
1.02948
-1.02929
0.0152765
1.16098
-1.16059
0.014689
1.31114
-1.31056
0.0137185
1.48503
-1.48406
0.0122574
1.68089
-1.67943
0.00957711
1.90675
-1.90407
0.00605247
2.16709
-2.16356
2.46329
-2.45723
-0.0110231
0.487033
-0.00313487
0.528886
0.00305785
0.585701
0.00717014
0.651834
0.00989454
0.728075
0.0117468
0.814659
0.0129264
0.913956
0.0138541
1.02856
0.0140979
1.16074
0.0141088
1.31113
0.0134135
1.48573
0.0121641
1.68214
0.00954188
1.90938
0.00602143
2.17061
2.46931
-0.034454
0.47369
-0.0223432
0.516776
-0.0127161
0.576074
-0.00505715
0.644175
0.00116029
0.721858
0.00576791
0.810051
0.00892334
0.910801
0.0112332
1.02625
0.0124238
1.15955
0.0131118
1.31045
0.012778
1.48606
0.0117751
1.68315
0.00930884
1.91184
0.00587753
2.17404
2.47519
-0.0614924
0.451957
-0.043766
0.499049
-0.0301224
0.56243
-0.0182513
0.632304
-0.00879127
0.712398
-0.00145883
0.802719
0.00394312
0.905399
0.00782356
1.02237
0.0102057
1.15717
0.0116468
1.309
0.0118317
1.48588
0.0111655
1.68381
0.00892364
1.91409
0.00562996
2.17733
2.48082
-0.0848695
0.422399
-0.063032
0.477212
-0.0459921
0.54539
-0.0303306
0.616642
-0.0185111
0.700578
-0.00864219
0.79285
-0.00136971
0.898126
0.00393568
1.01706
0.00754243
1.15356
0.00976843
1.30678
0.0105992
1.48505
0.0103231
1.68409
0.00841978
1.91599
0.00528814
2.18046
2.4861
-0.0970153
0.394082
-0.0756115
0.455808
-0.0571729
0.526952
-0.039993
0.599462
-0.0267246
0.68731
-0.0151981
0.781324
-0.0065757
0.889504
-0.00013233
1.01062
0.00465764
1.14877
0.00762286
1.30381
0.00915371
1.48352
0.00927481
1.68397
0.00781544
1.91745
0.00478025
2.1835
2.49088
-0.0980418
0.373385
-0.080599
0.438365
-0.0627617
0.509114
-0.0465677
0.583268
-0.0329048
0.673647
-0.0208708
0.76929
-0.0114426
0.880076
-0.00397743
1.00315
0.00166966
1.14312
0.00525102
1.30023
0.00746807
1.4813
0.00799094
1.68344
0.0069976
1.91844
0.00433257
2.18616
2.49522
-0.0911403
0.361373
-0.0783838
0.425609
-0.0631006
0.493831
-0.0496887
0.569856
-0.0366698
0.660628
-0.0252934
0.757913
-0.0156715
0.870454
-0.00775738
0.995238
-0.00149903
1.13687
0.00262354
1.29611
0.0055194
1.4784
0.00644418
1.68252
0.00597607
1.91891
0.00401389
2.18812
2.49923
-0.07867
0.355916
-0.0700785
0.417017
-0.0591512
0.482904
-0.0494405
0.560146
-0.0381075
0.649295
-0.0281364
0.747942
-0.0187974
0.861115
-0.0109601
0.987401
-0.00453497
1.13044
-5.60959e-05
1.29163
0.00349295
1.47486
0.00481304
1.6812
0.00491395
1.91881
0.00315739
2.18988
2.50239
-0.0626975
0.35443
-0.0578116
0.412131
-0.0514347
0.476527
-0.0453167
0.554028
-0.0367952
0.640774
-0.0289956
0.740143
-0.0207003
0.852819
-0.013477
0.980178
-0.00717537
1.12414
-0.00234398
1.2868
0.0013995
1.47111
0.00312479
1.67947
0.00367913
1.91825
0.00153954
2.19202
2.50393
-0.0478284
0.354912
-0.0457442
0.410047
-0.0428226
0.473605
-0.0392159
0.550421
-0.0335607
0.635119
-0.0280133