/*--------------------------------*- C++ -*----------------------------------*\
| =========                 |                                                 |
| \\      /  F ield         | OpenFOAM: The Open Source CFD Toolbox           |
|  \\    /   O peration     | Version:  2512                                  |
|   \\  /    A nd           | Website:  www.openfoam.com                      |
|    \\/     M anipulation  |                                                 |
\*---------------------------------------------------------------------------*/
FoamFile
{
    version     2.0;
    format      ascii;
    arch        "LSB;label=32;scalar=64";
    class       volVectorField;
    location    "189.6";
    object      U;
}
// * * * * * * * * * * * * * * * * * * * * * * * * * * * * * * * * * * * * * //

dimensions      [0 1 -1 0 0 0 0];

internalField   nonuniform List<vector> 
13248
(
(-0.0129644 0.00903688 4.12177e-20)
(-0.0263233 0.0115698 0)
(-0.0327146 0.00535371 -7.23459e-20)
(-0.0280051 -0.00320692 6.69915e-20)
(-0.00819393 -0.0119113 6.22432e-20)
(0.0300781 -0.0200249 0)
(0.0892783 -0.0269845 0)
(0.170297 -0.0321527 1.42813e-19)
(0.271794 -0.034803 -2.67899e-21)
(0.389912 -0.0342565 -1.18138e-19)
(0.518566 -0.0301053 1.01376e-19)
(0.650351 -0.0223855 -6.22596e-20)
(0.777717 -0.0116142 0)
(0.894056 0.00128981 -8.61074e-20)
(0.994456 0.0151933 1.53438e-19)
(1.07594 0.0288986 -3.55018e-20)
(1.13781 0.041356 -5.27091e-20)
(1.18065 0.0517115 4.91403e-20)
(1.20716 0.0595893 0)
(1.22089 0.0641245 0)
(1.22365 0.0672977 0)
(1.22508 0.0647585 0)
(1.21765 0.0656715 1.11756e-20)
(1.21941 0.05581 3.76307e-20)
(-0.0159951 0.0118289 -1.24144e-19)
(-0.0280974 0.0187775 7.88282e-20)
(-0.0246374 0.0160591 -2.52347e-23)
(-0.00320819 0.0093609 -1.01391e-19)
(0.0393685 0.0015774 -6.21522e-20)
(0.105885 -0.00557072 -5.75251e-20)
(0.197607 -0.0108224 -1.04443e-19)
(0.312997 -0.0131223 9.69123e-20)
(0.446887 -0.0117317 0)
(0.590855 -0.00643928 1.68855e-21)
(0.734749 0.0023276 3.51304e-21)
(0.868682 0.0135817 6.20269e-20)
(0.98473 0.0260124 0)
(1.07794 0.0382709 0)
(1.14656 0.0492437 5.47221e-20)
(1.19189 0.0581221 -1.01595e-19)
(1.2173 0.0646643 5.38813e-20)
(1.22779 0.0686993 -5.02359e-20)
(1.22866 0.0707939 -2.06328e-20)
(1.22443 0.0710022 -3.38169e-20)
(1.21974 0.070071 -1.27544e-20)
(1.21578 0.0676788 -2.30326e-20)
(1.213 0.0653429 3.57225e-20)
(1.21503 0.0593619 9.71506e-21)
(-0.016897 0.0117626 0)
(-0.0246692 0.0194364 0)
(-0.00855661 0.0183048 3.64758e-20)
(0.033134 0.0131345 3.35287e-20)
(0.102963 0.00726274 -4.33404e-22)
(0.20243 0.00308077 -5.78942e-20)
(0.329798 0.00234576 0)
(0.478438 0.00602695 -4.78791e-20)
(0.63711 0.0140783 4.28901e-20)
(0.792373 0.0254616 -3.8519e-22)
(0.931778 0.038492 -6.78245e-20)
(1.04638 0.0513413 -5.75398e-20)
(1.13189 0.0624941 3.70071e-21)
(1.18864 0.0710382 -3.94962e-20)
(1.2206 0.0767003 9.91941e-20)
(1.23391 0.0797785 0)
(1.23534 0.0808643 -5.41897e-20)
(1.23095 0.0805297 2.64111e-20)
(1.22484 0.0796591 2.06119e-20)
(1.21988 0.0775985 0)
(1.21569 0.0764417 1.51946e-20)
(1.2133 0.0724791 -5.053e-20)
(1.20969 0.0714267 4.71871e-20)
(1.20781 0.0651213 2.74976e-20)
(-0.0160593 0.00999651 -4.28462e-20)
(-0.0156412 0.0155721 -4.07724e-20)
(0.0173808 0.0145677 3.69873e-20)
(0.0844463 0.011098 0)
(0.187083 0.0088158 0)
(0.323488 0.010504 -1.4384e-22)
(0.485592 0.0175821 0)
(0.658901 0.0297296 -1.40859e-19)
(0.826029 0.0450874 1.27469e-19)
(0.971621 0.0610485 -1.53349e-19)
(1.08589 0.0751835 3.367e-20)
(1.1658 0.0858967 0)
(1.21419 0.0926631 4.8976e-20)
(1.23781 0.0958722 -8.78714e-20)
(1.24483 0.0964562 2.06544e-20)
(1.24276 0.0954616 4.64935e-20)
(1.23705 0.0936654 -4.5603e-21)
(1.2307 0.0916623 -4.99098e-20)
(1.22492 0.0893203 0)
(1.21944 0.0869848 0)
(1.21416 0.0842182 -1.51099e-20)
(1.20899 0.0805268 1.29707e-20)
(1.20327 0.0783358 4.30714e-20)
(1.19949 0.071408 -4.02074e-20)
(-0.0135245 0.00744013 -4.42215e-20)
(0.000124624 0.00944068 -4.10853e-20)
(0.0560759 0.00831008 1.13751e-19)
(0.155096 0.00786856 -6.86894e-20)
(0.29565 0.011951 6.36299e-20)
(0.468788 0.0227728 1.14725e-19)
(0.65662 0.0398478 -7.91483e-20)
(0.836981 0.0603052 -9.2268e-20)
(0.990845 0.080349 3.67419e-21)
(1.10737 0.0968163 1.14034e-19)
(1.18485 0.108063 0)
(1.22869 0.114045 2.81961e-20)
(1.24797 0.115831 0)
(1.25211 0.114902 -4.13778e-20)
(1.24857 0.112576 5.72481e-20)
(1.242 0.10968 3.52873e-22)
(1.2346 0.106653 -1.35733e-20)
(1.22718 0.103454 2.38344e-20)
(1.21987 0.100249 2.00733e-20)
(1.213 0.0966497 -1.72394e-20)
(1.20665 0.0931384 1.51031e-20)
(1.20121 0.0888551 -1.29648e-20)
(1.19606 0.0857529 0)
(1.1928 0.0791688 -9.27546e-21)
(-0.00876942 0.00458223 4.42105e-20)
(0.0244694 0.002881 4.25006e-20)
(0.110659 0.00290977 -3.80195e-20)
(0.247991 0.00821027 6.95595e-20)
(0.427786 0.0219593 -6.44327e-20)
(0.629503 0.0439661 5.7251e-20)
(0.825358 0.0702846 -2.69202e-20)
(0.991214 0.0955577 6.94748e-20)
(1.11417 0.115589 -4.25308e-20)
(1.19342 0.128564 7.10074e-20)
(1.23654 0.134882 -1.59538e-19)
(1.25455 0.136227 5.68781e-20)
(1.25772 0.134535 -4.66217e-20)
(1.25346 0.131328 4.34012e-20)
(1.24609 0.127498 3.4769e-20)
(1.23771 0.123476 2.8639e-20)
(1.22928 0.119351 -7.91113e-20)
(1.22125 0.115247 4.80862e-20)
(1.21394 0.111032 -2.00702e-20)
(1.20734 0.106889 4.99177e-20)
(1.20138 0.10263 -1.61739e-20)
(1.19584 0.0981602 -3.62329e-20)
(1.19033 0.0943931 3.28594e-20)
(1.18545 0.0879874 9.27246e-21)
(-0.000863691 0.00167932 0)
(0.059443 -0.00265248 2.46012e-22)
(0.18318 0.00126227 7.81376e-20)
(0.362288 0.0159127 -7.20928e-20)
(0.575565 0.041819 -6.40055e-20)
(0.789493 0.074321 1.1682e-19)
(0.972585 0.106058 -5.33247e-20)
(1.10773 0.131205 6.86097e-20)
(1.19373 0.147398 -2.30146e-21)
(1.23983 0.1553 -3.69361e-20)
(1.25877 0.157126 7.65412e-20)
(1.2619 0.15526 -1.10247e-19)
(1.25712 0.151497 0)
(1.249 0.146902 -1.99121e-20)
(1.23987 0.142016 -5.08554e-20)
(1.23083 0.137059 1.60716e-20)
(1.2223 0.132158 9.48226e-22)
(1.21441 0.127277 -3.05274e-20)
(1.20706 0.122477 3.2011e-21)
(1.20015 0.117643 3.43174e-20)
(1.19362 0.11278 -1.43285e-20)
(1.18753 0.107919 -4.90675e-21)
(1.18172 0.103213 1.60313e-20)
(1.17692 0.0970342 0)
(0.0112069 -0.000967737 0)
(0.106615 -0.00570828 2.14345e-20)
(0.273512 0.00590252 -1.01058e-19)
(0.492313 0.0333299 3.61364e-20)
(0.725627 0.0716055 -3.34717e-20)
(0.932198 0.111055 -2.9658e-20)
(1.08694 0.143241 -5.10283e-20)
(1.1859 0.164489 2.55278e-20)
(1.23907 0.175363 2.16011e-20)
(1.26111 0.178551 0)
(1.2651 0.176992 4.47234e-20)
(1.26012 0.172922 -6.42233e-20)
(1.25145 0.167708 4.71793e-20)
(1.24176 0.162074 1.99207e-20)
(1.23219 0.156345 -1.52796e-20)
(1.22311 0.150656 -1.18448e-20)
(1.21457 0.145018 -1.06724e-20)
(1.20654 0.139457 3.32627e-20)
(1.19906 0.133925 0)
(1.19215 0.12846 1.50446e-20)
(1.18582 0.123049 1.16428e-20)
(1.17993 0.117741 -2.9843e-20)
(1.17431 0.112419 -1.88929e-20)
(1.16899 0.106694 1.73607e-20)
(0.0282542 -0.00282771 -2.47639e-20)
(0.166454 -0.00455441 -8.28265e-22)
(0.378624 0.0190179 2.0519e-20)
(0.628329 0.0610948 5.60515e-20)
(0.864112 0.109183 1.56296e-20)
(1.04759 0.150746 -2.98586e-20)
(1.16765 0.179432 2.69161e-20)
(1.23338 0.195054 -2.2919e-20)
(1.26149 0.200675 3.95109e-20)
(1.26765 0.199969 1.61331e-20)
(1.26292 0.19585 -4.51742e-20)
(1.2538 0.190145 1.29284e-20)
(1.24345 0.183821 2.10651e-20)
(1.23317 0.177313 -1.04181e-20)
(1.22336 0.170799 0)
(1.21414 0.164332 1.41907e-20)
(1.20554 0.157955 2.28183e-20)
(1.19757 0.15167 3.17622e-21)
(1.19021 0.145511 -1.82022e-20)
(1.18337 0.139464 7.17358e-21)
(1.17695 0.133533 0)
(1.17084 0.127724 -5.17402e-21)
(1.16497 0.121822 -4.71436e-21)
(1.15952 0.116217 0)
(0.0506809 -0.0031493 0)
(0.237865 0.0027141 1.20112e-20)
(0.492562 0.0420527 2.18395e-20)
(0.759281 0.0981632 -5.69265e-20)
(0.981513 0.151725 1.80751e-20)
(1.13361 0.1911 0)
(1.21997 0.214029 2.51641e-20)
(1.25883 0.22365 -3.44929e-20)
(1.26933 0.224577 -1.95744e-20)
(1.26564 0.220708 8.69751e-21)
(1.25615 0.21457 -1.29432e-20)
(1.24498 0.207506 3.15259e-20)
(1.23381 0.200126 1.50505e-20)
(1.2232 0.19269 -1.07141e-20)
(1.2133 0.185303 -1.3143e-21)
(1.20411 0.178026 -2.63572e-20)
(1.19561 0.170881 1.17505e-20)
(1.18772 0.163894 -3.29567e-22)
(1.18042 0.15706 0)
(1.17366 0.150395 -7.18069e-21)
(1.16738 0.143903 0)
(1.16148 0.13754 1.46688e-20)
(1.15584 0.131215 -1.68556e-20)
(1.15033 0.125723 7.46278e-21)
(0.0783475 -0.00104956 -6.83977e-21)
(0.318015 0.0178311 -3.03402e-20)
(0.607497 0.075277 3.39492e-20)
(0.876092 0.142515 1.92991e-20)
(1.07398 0.196969 -9.17538e-21)
(1.19294 0.231142 1.44821e-20)
(1.2502 0.247328 -7.04401e-21)
(1.26894 0.251196 1.11499e-20)
(1.26779 0.248063 0)
(1.25827 0.241545 2.36209e-20)
(1.2462 0.233625 -1.18898e-21)
(1.23397 0.22522 -1.82311e-20)
(1.22241 0.216712 7.53249e-21)
(1.21169 0.20826 -8.14017e-21)
(1.20179 0.199939 -2.82463e-21)
(1.19265 0.191783 3.50304e-21)
(1.18422 0.183818 -2.49928e-21)
(1.17647 0.176062 -1.30956e-20)
(1.16937 0.168536 7.90887e-21)
(1.16283 0.161252 1.5052e-21)
(1.15671 0.15419 1.26572e-21)
(1.15087 0.1473 1.0614e-21)
(1.14522 0.14061 0)
(1.13975 0.134842 0)
(0.11057 0.00436907 6.84806e-21)
(0.402672 0.0419655 -6.31894e-21)
(0.715678 0.11782 -1.13264e-20)
(0.973326 0.192059 0)
(1.14163 0.243537 -4.51471e-21)
(1.22967 0.270677 -3.89394e-21)
(1.26361 0.279881 -6.39976e-21)
(1.26807 0.278446 0)
(1.25952 0.27173 0)
(1.24666 0.262799 0)
(1.23325 0.253118 0)
(1.22054 0.243282 0)
(1.20884 0.23352 -4.64981e-21)
(1.19812 0.223929 2.07877e-21)
(1.18831 0.214557 3.48441e-21)
(1.17934 0.205434 1.60597e-21)
(1.17114 0.196583 3.76049e-21)
(1.16366 0.188023 0)
(1.15682 0.179762 -8.0546e-22)
(1.15055 0.171799 -7.56093e-22)
(1.14473 0.164113 -1.26772e-21)
(1.13923 0.156677 -1.06307e-21)
(1.13396 0.149602 0)
(1.12884 0.143419 6.46469e-22)
(0.00610861 -0.154609 7.52054e-21)
(0.00972786 -0.328453 -7.13495e-21)
(-0.000854982 -0.409785 -1.31875e-20)
(-0.0204789 -0.436038 0)
(-0.0444017 -0.436297 -1.73618e-20)
(-0.0695283 -0.427037 5.49655e-21)
(-0.093965 -0.41427 -1.01686e-20)
(-0.116499 -0.397941 0)
(-0.136267 -0.375856 0)
(-0.152602 -0.345798 0)
(-0.164998 -0.306226 0)
(-0.173158 -0.256386 0)
(-0.177036 -0.196263 5.25593e-22)
(-0.176876 -0.126469 -7.72197e-21)
(-0.173195 -0.0480686 1.39934e-20)
(-0.166451 0.0375605 2.01468e-20)
(-0.156569 0.128905 5.67961e-21)
(-0.143914 0.224288 0)
(-0.128467 0.321901 5.42214e-21)
(-0.110015 0.419302 -1.4226e-20)
(-0.0885513 0.513287 -8.11629e-21)
(-0.0638545 0.600035 -7.08844e-21)
(-0.0392518 0.676631 0)
(-0.0127651 0.739919 0)
(0.013431 -0.150835 -2.21292e-20)
(0.0203691 -0.312382 3.52366e-20)
(0.0054401 -0.383366 -1.24857e-20)
(-0.0208802 -0.403086 -2.38521e-20)
(-0.0520683 -0.400061 3.35225e-20)
(-0.0848464 -0.389998 -2.09865e-20)
(-0.117513 -0.378286 2.96268e-20)
(-0.149068 -0.364536 1.78905e-20)
(-0.178766 -0.346405 0)
(-0.205914 -0.321573 -1.81746e-20)
(-0.229852 -0.288332 -8.58176e-22)
(-0.250002 -0.24566 1.59104e-20)
(-0.265941 -0.193187 2.15135e-20)
(-0.277432 -0.131154 2.79895e-20)
(-0.284539 -0.0603013 -1.37902e-20)
(-0.287233 0.0184734 -3.75771e-20)
(-0.285287 0.10358 1.02672e-20)
(-0.279106 0.193183 -3.9732e-20)
(-0.268662 0.285238 0)
(-0.253941 0.377364 9.15686e-21)
(-0.235 0.466801 8.10658e-21)
(-0.211795 0.550499 7.07981e-21)
(-0.185586 0.625626 0)
(-0.157345 0.690837 0)
(0.0197698 -0.140922 0)
(0.0295772 -0.286925 6.49352e-20)
(0.0117121 -0.348299 -2.41635e-20)
(-0.0191081 -0.362735 2.30971e-20)
(-0.054996 -0.357073 -6.15999e-20)
(-0.092516 -0.346067 0)
(-0.130137 -0.334806 -3.66704e-20)
(-0.167082 -0.32291 1.6167e-20)
(-0.202763 -0.308099 -3.09062e-20)
(-0.236561 -0.288066 1.29517e-20)
(-0.267786 -0.261044 8.54461e-20)
(-0.295729 -0.225854 -3.95935e-20)
(-0.319742 -0.181872 -6.50929e-20)
(-0.339244 -0.12898 -2.2141e-20)
(-0.353472 -0.0675617 3.4107e-22)
(-0.362326 0.00171387 8.16911e-20)
(-0.365777 0.0771972 -3.77224e-20)
(-0.363428 0.157247 3.88751e-21)
(-0.354918 0.239893 0)
(-0.339956 0.322848 -2.28135e-20)
(-0.318399 0.40361 0)
(-0.289763 0.479617 -2.09409e-20)
(-0.252933 0.547982 6.72882e-20)
(-0.209987 0.607034 -2.27755e-21)
(0.0245453 -0.126675 0)
(0.0366453 -0.255445 -1.48042e-21)
(0.0173 -0.308093 2.20436e-20)
(-0.0158185 -0.318372 -2.03063e-20)
(-0.0537947 -0.310565 2.00366e-20)
(-0.0929627 -0.29836 1.07379e-19)
(-0.131869 -0.28677 -3.36358e-20)
(-0.169924 -0.275703 -3.02963e-20)
(-0.206719 -0.263138 5.90654e-20)
(-0.241755 -0.246905 -8.40764e-20)
(-0.274395 -0.225275 2.39359e-20)
(-0.30389 -0.19701 2.23364e-20)
(-0.329403 -0.161324 0)
(-0.350161 -0.117863 2.2054e-20)
(-0.365226 -0.0666979 0)
(-0.374177 -0.00882715 2.97252e-20)
(-0.376696 0.0547144 -5.72326e-20)
(-0.371887 0.122543 1.81683e-20)
(-0.359093 0.192825 4.6678e-20)
(-0.337611 0.263396 2.27932e-20)
(-0.306844 0.331774 0)
(-0.267097 0.395416 -4.27198e-20)
(-0.217078 0.452746 1.47916e-20)
(-0.148087 0.502013 0)
(0.0273882 -0.109868 0)
(0.0408739 -0.220831 -7.00955e-20)
(0.0210613 -0.265819 -2.08697e-20)
(-0.0126287 -0.273264 -3.94512e-20)
(-0.0505462 -0.264265 3.65572e-20)
(-0.08872 -0.251223 -3.49928e-20)
(-0.12565 -0.239101 6.27035e-20)
(-0.16085 -0.228238 3.01411e-20)
(-0.194067 -0.217021 -8.20955e-20)
(-0.224938 -0.203525 4.94126e-20)
(-0.252924 -0.186149 -6.94656e-20)
(-0.277326 -0.163706 1.41571e-19)
(-0.297282 -0.135389 -7.66395e-20)
(-0.311881 -0.100815 3.14841e-20)
(-0.320453 -0.0600503 8.61479e-20)
(-0.322259 -0.0137772 -3.32289e-20)
(-0.316414 0.0373945 -2.41325e-20)
(-0.302078 0.0922624 -2.3674e-20)
(-0.278442 0.149222 0)
(-0.244894 0.206328 -2.55571e-20)
(-0.200604 0.261566 -1.80469e-20)
(-0.143669 0.312463 3.15194e-20)
(-0.080899 0.357799 3.17785e-20)
(0.012676 0.391606 -2.66925e-20)
(0.0280737 -0.0919186 0)
(0.0415927 -0.185274 -8.65457e-20)
(0.0216778 -0.223778 1.25698e-21)
(-0.011551 -0.229883 7.48996e-20)
(-0.04804 -0.221122 0)
(-0.0835148 -0.208341 0)
(-0.116327 -0.196309 0)
(-0.146001 -0.185803 -2.75663e-20)
(-0.172386 -0.175706 7.18108e-22)
(-0.195245 -0.164422 4.58985e-20)
(-0.214149 -0.150533 -6.32929e-20)
(-0.2285 -0.132965 6.76543e-22)
(-0.237592 -0.111008 0)
(-0.240657 -0.0843436 -3.14694e-20)
(-0.236936 -0.052978 2.06128e-20)
(-0.22576 -0.0171007 -6.47072e-20)
(-0.20638 0.0226987 7.0697e-20)
(-0.17812 0.0654019 6.66931e-21)
(-0.140354 0.109713 -7.12608e-21)
(-0.0918197 0.153922 -4.15822e-20)
(-0.0352159 0.19722 -1.31784e-20)
(0.0395907 0.234339 4.08808e-20)
(0.106019 0.271572 -2.38452e-20)
(0.223289 0.286604 0)
(0.0264432 -0.0737191 4.27801e-20)
(0.0382352 -0.150106 4.27684e-20)
(0.018007 -0.183306 -3.79371e-20)
(-0.0143543 -0.189617 -7.13043e-20)
(-0.048798 -0.182855 6.60724e-20)
(-0.0808671 -0.172076 -6.05939e-20)
(-0.108738 -0.161622 8.36624e-20)
(-0.131873 -0.152582 -2.70074e-20)
(-0.150161 -0.144336 4.72234e-20)
(-0.163465 -0.135672 0)
(-0.171498 -0.125392 3.47259e-20)
(-0.173834 -0.112544 -6.63316e-20)
(-0.169982 -0.0964824 5.71515e-20)
(-0.159362 -0.0768155 -5.31971e-20)
(-0.141334 -0.0534097 0)
(-0.115408 -0.026424 3.67779e-20)
(-0.0812304 0.0036188 5.22058e-20)
(-0.0384228 0.0360038 -5.10623e-20)
(0.0125642 0.0696731 -1.70541e-20)
(0.0764383 0.102727 -1.31419e-20)
(0.139134 0.136749 3.7675e-20)
(0.23382 0.160631 6.26991e-21)
(0.295193 0.193447 -6.79683e-21)
(0.432889 0.194426 6.36914e-21)
(0.0224189 -0.055743 -4.27906e-20)
(0.0305792 -0.115958 1.20015e-19)
(0.00963623 -0.144826 -3.64586e-20)
(-0.0216741 -0.152604 6.87712e-20)
(-0.0537744 -0.149438 -6.37249e-20)
(-0.0822335 -0.142486 -4.46089e-22)
(-0.105088 -0.135442 2.66646e-20)
(-0.121675 -0.129499 9.54913e-20)
(-0.131828 -0.124417 -2.44885e-21)
(-0.135421 -0.119338 -4.21795e-20)
(-0.132223 -0.113285 0)
(-0.121913 -0.105387 -2.81965e-20)
(-0.104135 -0.0949673 5.65765e-20)
(-0.078541 -0.0815411 4.41895e-20)
(-0.0447872 -0.0649602 -2.23395e-20)
(-0.00272196 -0.0452254 -1.61655e-21)
(0.0478543 -0.0227416 -1.37785e-20)
(0.107228 0.00207278 1.94882e-20)
(0.173088 0.0279182 1.70544e-20)
(0.254854 0.0535155 -1.31155e-20)
(0.324544 0.0805066 9.35745e-21)
(0.442489 0.0975473 -7.6438e-21)
(0.498595 0.125421 0)
(0.663114 0.123038 -6.3673e-21)
(0.0161633 -0.0383653 4.077e-20)
(0.0191239 -0.0832106 -3.96352e-20)
(-0.00252033 -0.108235 3.59989e-20)
(-0.032126 -0.118023 0)
(-0.0610292 -0.11926 0)
(-0.0849973 -0.117207 5.57507e-20)
(-0.101914 -0.114757 -5.27559e-20)
(-0.110843 -0.112982 4.59358e-20)
(-0.111342 -0.111827 -2.15739e-19)
(-0.10306 -0.110665 1.04698e-21)
(-0.0856258 -0.108665 3.41018e-20)
(-0.0587012 -0.105003 0)
(-0.0220592 -0.0989607 -4.95711e-20)
(0.0242318 -0.0900209 8.76838e-20)
(0.0801408 -0.0777958 -5.74977e-20)
(0.145269 -0.0623084 -7.07344e-20)
(0.218723 -0.0438941 7.51456e-21)
(0.300189 -0.0230319 4.05619e-20)
(0.387085 -0.00112148 0)
(0.486054 0.0216316 0)
(0.572663 0.0439738 -9.35938e-21)
(0.700026 0.0613013 7.64539e-21)
(0.762803 0.0828916 -2.90275e-20)
(0.930449 0.085476 2.7066e-20)
(0.00828469 -0.0221888 0)
(0.00536296 -0.0525142 0)
(-0.0159901 -0.0735265 -1.07549e-19)
(-0.0420533 -0.0848824 3.3111e-20)
(-0.0653537 -0.0901337 2.36801e-22)
(-0.0818714 -0.0927325 5.62109e-20)
(-0.0891913 -0.0947106 0)
(-0.085867 -0.0968467 -4.72263e-20)
(-0.0709606 -0.099076 4.30035e-20)
(-0.0438092 -0.100836 -7.44315e-20)
(-0.00404084 -0.101335 1.42626e-21)
(0.0482728 -0.0997406 5.69354e-20)
(0.112581 -0.0952948 -4.36624e-21)
(0.18776 -0.0874674 3.64026e-20)
(0.272146 -0.075978 -5.79372e-20)
(0.364127 -0.0611611 0)
(0.461311 -0.0430965 4.45391e-20)
(0.561815 -0.0232388 -6.0524e-20)
(0.664344 -0.0017521 1.63337e-20)
(0.765514 0.0193455 0)
(0.863271 0.0393794 1.15322e-20)
(0.964939 0.056144 3.68595e-20)
(1.03663 0.0715162 -3.44155e-20)
(1.15162 0.0760137 -4.19097e-20)
(-0.000184655 -0.00808861 1.20381e-19)
(-0.00848008 -0.02507 -1.53177e-19)
(-0.0274778 -0.0413941 -1.77713e-22)
(-0.0468474 -0.0530285 3.29324e-20)
(-0.060333 -0.060932 -6.1312e-20)
(-0.0640973 -0.0669336 -5.64743e-20)
(-0.0554135 -0.0721751 1.02764e-19)
(-0.0323646 -0.0770006 -2.18376e-21)
(0.00623036 -0.0811718 -8.6701e-20)
(0.0607738 -0.0840666 1.5166e-19)
(0.130755 -0.084874 -3.89549e-21)
(0.214631 -0.0828043 -6.12668e-20)
(0.309884 -0.0772547 0)
(0.413337 -0.0679703 0)
(0.521339 -0.0550144 -1.80876e-20)
(0.630586 -0.0390835 -3.0928e-20)
(0.737144 -0.0204842 -4.72835e-20)
(0.839127 -0.00155202 4.40758e-20)
(0.933385 0.0187543 -1.63455e-20)
(1.01718 0.0356283 2.77686e-20)
(1.09387 0.0525008 -1.33364e-20)
(1.15201 0.0629407 2.04197e-20)
(1.20586 0.0720329 -5.03423e-20)
(1.2438 0.0714435 8.59578e-21)
(-0.00765246 0.00253741 4.02341e-20)
(-0.019648 -0.00313154 0)
(-0.0336071 -0.0142234 7.17443e-20)
(-0.0426617 -0.0247605 -6.64368e-20)
(-0.0416853 -0.0337099 6.13867e-20)
(-0.0269345 -0.0414912 0)
(0.00439191 -0.0483859 0)
(0.054118 -0.0542567 -4.66652e-20)
(0.122804 -0.0586158 2.6204e-21)
(0.209472 -0.0607488 4.02727e-20)
(0.311454 -0.0599142 -3.24416e-20)
(0.424587 -0.0555724 6.18927e-20)
(0.543705 -0.0475326 0)
(0.663326 -0.0360421 8.46964e-20)
(0.77828 -0.0217431 -1.50346e-19)
(0.884276 -0.00565806 9.75466e-20)
(0.977767 0.0112111 5.04162e-20)
(1.05751 0.0271384 -4.69991e-20)
(1.12057 0.0422738 0)
(1.17053 0.0528962 0)
(1.20354 0.0631938 0)
(1.22521 0.0651958 0)
(1.23917 0.0685927 1.02678e-20)
(1.23537 0.0623634 -3.79588e-20)
(0.0108976 0.798184 -3.30433e-21)
(0.0339933 0.847406 3.31208e-21)
(0.0513867 0.876593 -8.06523e-23)
(0.0749853 0.878415 0)
(0.119711 0.834937 -2.40904e-21)
(0.197223 0.730146 4.84145e-21)
(0.305047 0.563811 2.34753e-22)
(0.424303 0.355909 -2.58722e-21)
(0.533403 0.124645 0)
(0.625695 -0.126921 0)
(0.704387 -0.380073 -1.64883e-22)
(0.764914 -0.588663 -1.40013e-22)
(0.800244 -0.714208 -1.68103e-21)
(0.815176 -0.754416 1.52485e-21)
(0.815467 -0.742128 0)
(0.803485 -0.713307 0)
(0.789724 -0.679801 7.46463e-22)
(0.777267 -0.655683 1.87514e-23)
(0.753113 -0.66994 -6.77738e-22)
(0.708618 -0.71439 -4.91742e-23)
(0.656319 -0.714845 0)
(0.621917 -0.586956 0)
(0.619437 -0.322259 0)
(0.643998 0.00498986 0)
(0.685743 0.296269 0)
(0.729133 0.49353 0)
(0.765999 0.586269 2.42295e-22)
(0.800571 0.597922 -3.89147e-22)
(0.82658 0.593243 0)
(0.826497 0.622912 0)
(0.797094 0.665181 -2.34855e-22)
(0.745163 0.652323 2.28207e-22)
(0.692586 0.533097 1.65882e-22)
(0.659841 0.304257 0)
(0.656897 0.0187295 0)
(0.67513 -0.240216 2.85133e-22)
(0.711051 -0.409567 -2.77122e-22)
(0.747993 -0.485348 0)
(0.752478 -0.51878 1.25372e-22)
(0.70526 -0.535742 -1.7731e-22)
(0.644046 -0.500248 5.52434e-23)
(0.600336 -0.369429 0)
(0.601127 -0.154324 -1.30272e-22)
(0.636464 0.0632494 1.2667e-22)
(0.679928 0.245123 0)
(0.68365 0.378965 0)
(0.668221 0.45884 -3.67033e-23)
(0.647132 0.446321 1.09661e-22)
(0.64703 0.305955 0)
(0.653229 0.106742 0)
(0.666327 -0.140616 -2.92496e-23)
(0.647791 -0.33169 -2.20258e-24)
(0.637493 -0.416042 -3.63341e-24)
(0.626787 -0.377329 1.26522e-23)
(0.629562 -0.123109 0)
(0.604011 0.11203 0)
(0.591202 0.328049 0)
(0.576065 0.404924 0)
(0.558726 0.074517 0)
(0.515524 -0.0956048 0)
(-0.124921 0.7531 -2.74207e-22)
(-0.0714349 0.807709 -1.05215e-20)
(-0.0154477 0.828581 5.78189e-22)
(0.0579639 0.812465 9.29914e-21)
(0.154875 0.744777 1.42748e-22)
(0.276838 0.618848 0)
(0.41325 0.446168 -1.08803e-20)
(0.543362 0.251317 2.23607e-20)
(0.653404 0.0404898 -1.1481e-20)
(0.746127 -0.196163 1.13146e-20)
(0.823758 -0.438458 -1.08216e-20)
(0.875972 -0.631634 8.12112e-21)
(0.894363 -0.737986 -7.91283e-21)
(0.887076 -0.761463 -1.70855e-22)
(0.866895 -0.736181 -3.87607e-21)
(0.837567 -0.699779 3.7644e-21)
(0.807919 -0.664983 -2.86765e-21)
(0.78358 -0.637573 2.70335e-21)
(0.750619 -0.641448 -2.94504e-21)
(0.696512 -0.676535 6.15426e-21)
(0.63254 -0.680012 -3.19363e-21)
(0.583209 -0.569592 -2.43339e-22)
(0.567242 -0.328484 -4.99904e-21)
(0.587058 -0.0217678 9.63337e-21)
(0.63108 0.260213 -4.64075e-21)
(0.681156 0.460381 2.08546e-22)
(0.730334 0.559513 2.52071e-21)
(0.779308 0.578555 -3.47285e-22)
(0.818232 0.584986 -3.61752e-21)
(0.830983 0.628468 3.41336e-21)
(0.814352 0.683318 -1.68745e-21)
(0.775044 0.67788 2.79468e-22)
(0.733507 0.557333 -1.66235e-22)
(0.707614 0.317946 4.25811e-22)
(0.706192 0.0192054 0)
(0.718587 -0.250737 0)
(0.740797 -0.425444 -9.2317e-22)
(0.766631 -0.494895 7.04064e-22)
(0.766499 -0.511885 3.57084e-22)
(0.713972 -0.516464 3.93981e-24)
(0.647163 -0.481815 -4.70558e-22)
(0.601108 -0.362488 9.94593e-23)
(0.602127 -0.16176 0)
(0.6357 0.0489429 0)
(0.675518 0.236648 0)
(0.67899 0.37979 0)
(0.666656 0.463682 1.3937e-22)
(0.648401 0.450138 -7.40402e-23)
(0.65011 0.306309 0)
(0.659768 0.104597 0)
(0.67605 -0.139621 0)
(0.655644 -0.328902 -4.53702e-23)
(0.639959 -0.413178 1.43887e-23)
(0.62545 -0.37685 -3.09962e-23)
(0.628101 -0.12093 0)
(0.604752 0.11467 0)
(0.59823 0.330376 1.16855e-23)
(0.587891 0.407949 4.49761e-23)
(0.563485 0.0823567 0)
(0.514726 -0.0923356 0)
(-0.162 0.670145 -1.17718e-21)
(-0.0786789 0.718155 -1.80705e-20)
(0.00839513 0.72975 1.73899e-20)
(0.118503 0.701537 -1.62616e-20)
(0.246538 0.622359 -1.43775e-22)
(0.38914 0.491212 0)
(0.532734 0.32727 -2.22407e-20)
(0.658563 0.155867 2.17782e-20)
(0.76281 -0.0284811 1.82841e-22)
(0.856155 -0.246178 3.51861e-22)
(0.93414 -0.473153 3.2406e-22)
(0.977662 -0.6476 2.83937e-22)
(0.979672 -0.735015 -1.28073e-20)
(0.952072 -0.746983 1.26091e-20)
(0.914006 -0.716636 0)
(0.871808 -0.678433 2.04477e-22)
(0.829261 -0.645179 -5.40968e-21)
(0.794269 -0.61564 5.33595e-21)
(0.756272 -0.608243 0)
(0.696157 -0.634091 0)
(0.621242 -0.644321 -6.77898e-21)
(0.559363 -0.555634 1.46333e-20)
(0.531585 -0.340206 -1.60028e-20)
(0.543358 -0.0540575 2.67146e-22)
(0.585746 0.21827 1.47926e-20)
(0.640408 0.420203 -1.26682e-20)
(0.69975 0.525441 9.51387e-21)
(0.760969 0.552816 -8.71686e-22)
(0.812504 0.569688 -3.47033e-21)
(0.83876 0.625538 0)
(0.836262 0.694797 0)
(0.810817 0.701422 2.1095e-21)
(0.780489 0.583285 -2.60274e-21)
(0.76173 0.336635 2.32374e-23)
(0.761801 0.0284293 3.3977e-21)
(0.768881 -0.250788 -3.30133e-21)
(0.777064 -0.432688 0)
(0.790031 -0.500589 1.93981e-22)
(0.785969 -0.503714 1.09685e-21)
(0.729793 -0.496535 -1.89537e-21)
(0.656949 -0.464154 7.46497e-22)
(0.607579 -0.357779 6.04393e-23)
(0.608122 -0.170957 -8.19148e-22)
(0.639168 0.0344481 6.4812e-22)
(0.675654 0.228047 1.18064e-22)
(0.67941 0.380116 1.16554e-22)
(0.669702 0.46795 -1.39744e-22)
(0.653056 0.454261 0)
(0.655869 0.307268 0)
(0.669096 0.102953 -7.85214e-22)
(0.689291 -0.137349 3.62528e-22)
(0.667679 -0.32479 -2.62552e-22)
(0.646221 -0.409256 2.47477e-22)
(0.627344 -0.376861 1.44155e-22)
(0.630271 -0.119947 -5.69565e-23)
(0.609306 0.11642 1.69026e-23)
(0.609002 0.330927 -2.31335e-23)
(0.603198 0.411718 2.03181e-23)
(0.57306 0.0917546 0)
(0.518221 -0.0887113 0)
(-0.088902 0.559112 -2.80414e-20)
(0.00659421 0.597383 -6.92272e-22)
(0.114257 0.605656 2.70604e-20)
(0.239886 0.573968 -2.53582e-22)
(0.37772 0.494849 0)
(0.522333 0.369727 0)
(0.658731 0.222093 -4.34435e-20)
(0.77137 0.0750707 -3.61418e-21)
(0.867001 -0.0865012 6.69243e-20)
(0.961116 -0.287922 -7.73525e-22)
(1.03918 -0.497559 -2.13735e-20)
(1.07276 -0.650361 -1.52855e-20)
(1.05809 -0.717991 1.53487e-20)
(1.01228 -0.720031 0)
(0.958074 -0.688072 -7.421e-21)
(0.906088 -0.650487 6.80397e-21)
(0.855005 -0.620693 0)
(0.809767 -0.592589 0)
(0.766948 -0.57487 4.38565e-21)
(0.705773 -0.586867 3.90833e-22)
(0.624132 -0.600508 -4.3465e-21)
(0.550182 -0.537374 -6.47415e-21)
(0.510943 -0.3536 6.45763e-21)
(0.512985 -0.0908815 -7.04935e-21)
(0.550134 0.171273 8.71936e-22)
(0.606434 0.373844 5.7881e-21)
(0.673683 0.484648 5.14479e-22)
(0.745171 0.51983 3.36781e-23)
(0.80793 0.546067 0)
(0.84805 0.613807 3.32041e-21)
(0.861212 0.697387 -3.43876e-21)
(0.849639 0.717343 2.90902e-22)
(0.830444 0.606365 0)
(0.819315 0.358121 -4.54529e-22)
(0.821428 0.0430085 7.19603e-21)
(0.824934 -0.243583 -1.19676e-20)
(0.820117 -0.432728 8.52785e-22)
(0.817969 -0.502964 1.2624e-21)
(0.809268 -0.495332 2.43851e-21)
(0.751513 -0.475908 1.94661e-22)
(0.672873 -0.445566 -1.18984e-21)
(0.61849 -0.353949 9.95074e-22)
(0.617759 -0.181649 4.06277e-23)
(0.64636 0.0191615 4.39891e-22)
(0.680317 0.218084 -5.46166e-22)
(0.6845 0.379134 -7.89323e-22)
(0.676793 0.472053 2.14512e-22)
(0.660876 0.459321 7.76948e-22)
(0.664271 0.309224 -1.62663e-21)
(0.681076 0.101567 1.26087e-21)
(0.705847 -0.134443 -2.65037e-22)
(0.683766 -0.319554 4.68361e-22)
(0.656327 -0.403969 2.68341e-22)
(0.632394 -0.377056 -1.73354e-22)
(0.635933 -0.120294 1.56536e-23)
(0.617387 0.117183 4.152e-23)
(0.623106 0.329854 0)
(0.621774 0.415965 -1.41571e-23)
(0.587488 0.102616 2.08874e-22)
(0.526105 -0.0845915 0)
(0.0727181 0.439006 2.02125e-20)
(0.168592 0.47201 -4.21762e-20)
(0.278072 0.477118 2.16569e-20)
(0.400978 0.447647 2.9962e-20)
(0.532483 0.376767 -6.36897e-20)
(0.666 0.265465 -4.61409e-21)
(0.784914 0.138237 3.74435e-20)
(0.880802 0.012928 4.30438e-20)
(0.971001 -0.134373 -4.21313e-20)
(1.06644 -0.321429 0)
(1.13867 -0.506276 -3.60723e-20)
(1.15602 -0.63166 6.47364e-20)
(1.12304 -0.680997 -2.88951e-20)
(1.06301 -0.677843 0)
(0.997582 -0.650094 0)
(0.938591 -0.617024 1.98275e-22)
(0.883273 -0.591456 -9.33069e-21)
(0.831385 -0.567849 9.05907e-21)
(0.784001 -0.544423 0)
(0.723784 -0.542104 7.69286e-21)
(0.639847 -0.554454 -1.56049e-20)
(0.554974 -0.515372 1.77979e-20)
(0.503253 -0.366529 -2.06396e-20)
(0.494303 -0.130041 -3.7587e-22)
(0.523959 0.120094 2.05967e-20)
(0.579317 0.321872 -9.68175e-21)
(0.651526 0.437943 -2.37155e-22)
(0.730427 0.481033 -2.49712e-21)
(0.803388 0.514441 -4.53063e-23)
(0.857382 0.590409 2.57804e-21)
(0.885644 0.688914 2.16039e-22)
(0.889165 0.728286 -5.45568e-21)
(0.882659 0.63164 1.22626e-20)
(0.878992 0.385798 -7.69431e-21)
(0.882841 0.0653951 0)
(0.883966 -0.22779 -6.89136e-21)
(0.868359 -0.424038 6.50518e-21)
(0.850094 -0.500323 -2.39975e-21)
(0.835513 -0.48626 3.01943e-21)
(0.778117 -0.454996 -1.64771e-22)
(0.694565 -0.425889 0)
(0.633149 -0.350157 -9.57783e-23)
(0.629958 -0.193735 2.68691e-22)
(0.656447 0.00233798 0)
(0.688993 0.206695 7.35831e-22)
(0.694359 0.377106 -2.71508e-22)
(0.688594 0.475251 2.54967e-22)
(0.672387 0.464555 3.65271e-22)
(0.675511 0.311982 0)
(0.69568 0.100147 0)
(0.725552 -0.13099 -1.13672e-21)
(0.703727 -0.313077 1.48121e-21)
(0.670225 -0.397189 -6.21014e-22)
(0.640471 -0.377315 1.30758e-22)
(0.644835 -0.12201 1.06318e-23)
(0.628664 0.11688 -4.15648e-23)
(0.640122 0.327074 9.90292e-23)
(0.643344 0.42037 0)
(0.606659 0.114688 -2.76583e-22)
(0.538431 -0.0798814 -9.34548e-23)
(0.278779 0.328605 1.54355e-20)
(0.363561 0.356746 -1.52808e-20)
(0.461866 0.359282 1.7173e-22)
(0.57043 0.334574 -1.77435e-22)
(0.685622 0.276271 2.39567e-22)
(0.800799 0.183564 -2.73433e-22)
(0.900481 0.0771337 5.42201e-22)
(0.984865 -0.0333195 0)
(1.07574 -0.173334 -5.90136e-22)
(1.16997 -0.344776 5.72729e-22)
(1.22809 -0.500897 5.19786e-22)
(1.22515 -0.598921 -4.93909e-22)
(1.17502 -0.634248 0)
(1.10471 -0.62954 0)
(1.03272 -0.608024 2.21634e-22)
(0.969268 -0.581166 0)
(0.911756 -0.558811 -1.37709e-22)
(0.855631 -0.540336 0)
(0.804803 -0.516471 -6.10721e-21)
(0.747978 -0.500853 1.18543e-20)
(0.667092 -0.505702 -1.18835e-20)
(0.574038 -0.486277 6.08217e-21)
(0.50795 -0.374869 8.08274e-21)
(0.486204 -0.16876 -7.84635e-21)
(0.506613 0.0665473 -7.89064e-21)
(0.558456 0.265806 7.6225e-21)
(0.632506 0.386329 0)
(0.716606 0.435924 1.17425e-22)
(0.797841 0.47461 0)
(0.863939 0.557969 0)
(0.908155 0.66985 7.05467e-21)
(0.926986 0.727779 -7.18502e-21)
(0.931343 0.649997 7.19032e-22)
(0.935799 0.414486 9.43569e-22)
(0.942656 0.0929388 -9.68301e-22)
(0.943256 -0.205603 -6.18748e-21)
(0.920284 -0.40756 6.00653e-21)
(0.885937 -0.492621 -3.28106e-21)
(0.863429 -0.477035 2.76401e-21)
(0.807908 -0.434323 3.17935e-22)
(0.721333 -0.404507 -7.56439e-22)
(0.65119 -0.345091 1.07691e-22)
(0.643786 -0.206506 4.10421e-22)
(0.668748 -0.0161511 0)
(0.701486 0.192374 -1.56322e-22)
(0.708354 0.372127 5.68382e-22)
(0.704043 0.478327 -6.95292e-22)
(0.687192 0.471731 -3.67726e-22)
(0.689709 0.3163 0)
(0.712959 0.0990443 4.55788e-22)
(0.748208 -0.127249 -9.73046e-22)
(0.727295 -0.305492 1.61344e-23)
(0.687806 -0.388755 -1.65113e-22)
(0.651428 -0.37737 -7.46172e-23)
(0.656664 -0.125125 4.10121e-23)
(0.642731 0.115543 0)
(0.65955 0.322667 -9.9088e-23)
(0.667513 0.424751 0)
(0.63032 0.12786 0)
(0.555175 -0.0744981 1.16473e-22)
(0.480635 0.231748 -1.30938e-20)