/*--------------------------------*- C++ -*----------------------------------*\
| =========                 |                                                 |
| \\      /  F ield         | OpenFOAM: The Open Source CFD Toolbox           |
|  \\    /   O peration     | Version:  2312                                  |
|   \\  /    A nd           | Website:  www.openfoam.com                      |
|    \\/     M anipulation  |                                                 |
\*---------------------------------------------------------------------------*/
FoamFile
{
    version     2.0;
    format      ascii;
    arch        "LSB;label=32;scalar=64";
    class       volScalarField;
    location    "12";
    object      p;
}
// * * * * * * * * * * * * * * * * * * * * * * * * * * * * * * * * * * * * * //

dimensions      [0 2 -2 0 0 0 0];

internalField   nonuniform List<scalar> 
9200
(
-0.590378
-0.673006
-0.745046
-0.73166
-0.662851
-0.546682
-0.470605
-0.434787
-0.435977
-0.454817
-0.47864
-0.498977
-0.512992
-0.517785
-0.515056
-0.504686
-0.487697
-0.466652
-0.437937
-0.40548
-0.697655
-0.773043
-0.89663
-0.929927
-0.841862
-0.706306
-0.592338
-0.521325
-0.488628
-0.477472
-0.475063
-0.474405
-0.474158
-0.471057
-0.463972
-0.451763
-0.435646
-0.414114
-0.387107
-0.360742
-0.761568
-0.801541
-0.938317
-0.983284
-0.904399
-0.761896
-0.637593
-0.5548
-0.511301
-0.485637
-0.46995
-0.459967
-0.448746
-0.437463
-0.424626
-0.412367
-0.398358
-0.379712
-0.356756
-0.330956
-0.716022
-0.740538
-0.822866
-0.888489
-0.840431
-0.725533
-0.619334
-0.545405
-0.501518
-0.475076
-0.454381
-0.43811
-0.425269
-0.411436
-0.395435
-0.378505
-0.362268
-0.345989
-0.327711
-0.310035
-0.629508
-0.62051
-0.609621
-0.711204
-0.714177
-0.652249
-0.581403
-0.522276
-0.480578
-0.449515
-0.426781
-0.407258
-0.389619
-0.375648
-0.36192
-0.34588
-0.329437
-0.311245
-0.293887
-0.277831
-0.541974
-0.511357
-0.544987
-0.588568
-0.602602
-0.575033
-0.531623
-0.490856
-0.45909
-0.433262
-0.409545
-0.388433
-0.369899
-0.352766
-0.338342
-0.324901
-0.309955
-0.293602
-0.276728
-0.260212
-0.53509
-0.422377
-0.512338
-0.529296
-0.530848
-0.514002
-0.483808
-0.451008
-0.422061
-0.39993
-0.382261
-0.364256
-0.345211
-0.327617
-0.310774
-0.295181
-0.281408
-0.26726
-0.253005
-0.239216
-0.568925
-0.546397
-0.50336
-0.488652
-0.480894
-0.467393
-0.447301
-0.422421
-0.396255
-0.370438
-0.349008
-0.332262
-0.316821
-0.300867
-0.285394
-0.270533
-0.256269
-0.242534
-0.228808
-0.215494
-0.48045
-0.533277
-0.492658
-0.460778
-0.442446
-0.425748
-0.408014
-0.389545
-0.37009
-0.350808
-0.330408
-0.310854
-0.294433
-0.279526
-0.265477
-0.251795
-0.239074
-0.226777
-0.214604
-0.201816
-0.381048
-0.426617
-0.45568
-0.438497
-0.420077
-0.398778
-0.375953
-0.354053
-0.333688
-0.314503
-0.297029
-0.280147
-0.263291
-0.247649
-0.233386
-0.220831
-0.208743
-0.197746
-0.18765
-0.177911
-0.606776
-0.585081
-0.627188
-0.698263
-0.795096
-0.906688
-1.02272
-1.13692
-1.24319
-1.33548
-1.4105
-1.46792
-1.50607
-1.52307
-1.5199
-1.48571
-1.41398
-1.30979
-1.16895
-0.98708
-0.695074
-0.660208
-0.702438
-0.768032
-0.862871
-0.971607
-1.0873
-1.20409
-1.31415
-1.41402
-1.49922
-1.56809
-1.61928
-1.65528
-1.66453
-1.65122
-1.6
-1.50688
-1.37391
-1.19313
-0.71774
-0.689844
-0.731232
-0.795766
-0.887039
-0.992514
-1.10253
-1.21655
-1.33044
-1.43607
-1.52457
-1.59894
-1.65215
-1.68853
-1.69692
-1.6831
-1.63704
-1.54346
-1.41788
-1.26792
-0.676929
-0.672833
-0.718354
-0.781218
-0.862488
-0.954421
-1.05415
-1.16386
-1.27632
-1.38163
-1.46784
-1.54119
-1.59413
-1.62328
-1.62269
-1.59511
-1.5451
-1.45167
-1.32972
-1.195
-0.593008
-0.611621
-0.669058
-0.724018
-0.787886
-0.859754
-0.945396
-1.04301
-1.14396
-1.24144
-1.32049
-1.38588
-1.44119
-1.46867
-1.4654
-1.43505
-1.38284
-1.285
-1.16479
-1.04269
-0.546507
-0.573669
-0.61522
-0.643998
-0.674458
-0.718828
-0.780414
-0.854527
-0.936579
-1.02342
-1.09776
-1.15772
-1.21177
-1.23673
-1.22598
-1.19709
-1.15656
-1.08316
-0.982596
-0.873518
-0.5897
-0.597362
-0.594382
-0.567648
-0.546122
-0.547679
-0.573567
-0.629012
-0.699318
-0.772877
-0.845369
-0.902472
-0.950018
-0.978871
-0.982012
-0.960523
-0.926439
-0.875559
-0.806223
-0.727445
-0.61689
-0.614288
-0.607398
-0.510794
-0.425763
-0.371409
-0.365845
-0.399807
-0.464049
-0.54179
-0.623349
-0.687536
-0.736084
-0.769111
-0.783083
-0.776642
-0.759003
-0.72746
-0.677879
-0.615626
-0.629268
-0.661481
-0.613406
-0.480064
-0.362851
-0.27859
-0.270532
-0.303407
-0.36227
-0.437047
-0.51064
-0.574102
-0.618989
-0.650258
-0.66249
-0.660001
-0.648448
-0.62338
-0.585079
-0.535643
-0.575609
-0.640864
-0.634073
-0.55894
-0.453671
-0.368772
-0.33109
-0.336345
-0.374273
-0.427959
-0.482126
-0.527058
-0.558755
-0.577896
-0.581298
-0.574374
-0.558224
-0.536252
-0.505458
-0.467545
-0.764669
-0.522088
-0.310286
-0.158045
-0.054337
0.0154843
0.0584591
0.0881307
0.107948
0.118539
0.120846
0.11649
0.107284
0.0955331
0.0835564
0.0727478
0.0631675
0.0545527
0.0469237
0.0405706
0.0351741
0.0305063
0.0264741
0.0230314
0.0200655
0.017315
0.0149884
0.012807
0.0108542
0.00917233
0.00774901
0.00655172
0.00555271
0.00471809
0.00402621
0.00344425
0.00296955
0.00256422
0.00223624
0.0019487
0.00171578
0.00151303
0.0013229
0.00117718
0.000996033
0.000862293
0.000692844
0.000510352
0.000333257
0.000105649
-0.943122
-0.64239
-0.378074
-0.203634
-0.0889705
-0.0144175
0.0337444
0.0665919
0.0887229
0.101197
0.105624
0.10387
0.0976504
0.0884749
0.0784746
0.0691146
0.060635
0.0528278
0.0457585
0.0397074
0.0345497
0.0300689
0.0261848
0.0228771
0.0200402
0.0173388
0.0150557
0.012844
0.0108508
0.00913689
0.0076953
0.00649057
0.00548905
0.00465553
0.0039652
0.00338841
0.00291582
0.00251492
0.00218861
0.00190678
0.00167923
0.0014781
0.00129801
0.00114914
0.000980666
0.00084555
0.000682677
0.000504289
0.000325853
0.000101427
-1.05054
-0.748842
-0.454448
-0.243656
-0.111742
-0.0336545
0.0154705
0.0468315
0.0673574
0.0808691
0.0880244
0.0898471
0.0868896
0.0805309
0.0726324
0.0647986
0.0575669
0.0507689
0.0443749
0.0386662
0.0337109
0.0294347
0.025764
0.0226001
0.019817
0.0172056
0.0150052
0.0128141
0.0108327
0.00911629
0.00766587
0.00645203
0.0054435
0.00460664
0.00391402
0.0033405
0.0028692
0.00247275
0.00214657
0.0018695
0.00164522
0.00144597
0.00127528
0.00112299
0.000967401
0.000829624
0.000674442
0.000499693
0.000321021
9.48182e-05
-1.01139
-0.761823
-0.505889
-0.297407
-0.15341
-0.061065
-0.00637798
0.0252406
0.0458771
0.059817
0.0681588
0.0724854
0.0735762
0.070944
0.0656924
0.0595937
0.0537066
0.0480875
0.0425487
0.0372512
0.0324957
0.0284656
0.0250865
0.0221581
0.0195361
0.0174618
0.0147671
0.0125994
0.0106728
0.00899641
0.00757429
0.00637897
0.00538077
0.0045505
0.00386062
0.00329157
0.00282087
0.00242946
0.00210549
0.00183447
0.00161429
0.00141698
0.00125645
0.00110145
0.000959768
0.000819309
0.000673054
0.000500562
0.000322445
9.5343e-05
-0.883503
-0.710231
-0.513172
-0.331362
-0.203466
-0.115695
-0.0540786
-0.0115664
0.0175019
0.0366328
0.0482616
0.0550926
0.0589008
0.0596709
0.0574763
0.053604
0.0492759
0.04491
0.040424
0.0358151
0.031416
0.0275719
0.0243807
0.0216573
0.0191683
0.0169251
0.0145532
0.0124248
0.0105509
0.00890232
0.00749146
0.00629986
0.00530346
0.00447684
0.00379184
0.00323128
0.00276482
0.00238074
0.00206024
0.00179727
0.00158176
0.00138852
0.00123631
0.0010795
0.000949708
0.000807315
0.000669771
0.000500829
0.000323191
9.30965e-05
-0.729383
-0.619761
-0.494945
-0.348437
-0.225748
-0.144578
-0.0904329
-0.0499073
-0.0181294
0.00680606
0.0248755
0.0365914
0.0437823
0.0479019
0.0488755
0.0472583
0.0443636
0.0410727
0.0375675
0.0336894
0.0296725
0.0261036
0.0232155
0.0207838
0.0185089
0.0163059
0.0141473
0.0120964
0.0103293
0.0087622
0.007401
0.00623619
0.00525164
0.00443054
0.00374726
0.00318941
0.00272146
0.00234042
0.00202025
0.00176175
0.00154913
0.00135854
0.00121478
0.00105681
0.000938685
0.000794658
0.000665545
0.000499048
0.000321971
8.91093e-05
-0.614231
-0.536333
-0.458735
-0.358172
-0.259461
-0.178017
-0.117772
-0.0745173
-0.0411185
-0.014889
0.00520908
0.0195936
0.0292136
0.0355428
0.0392687
0.0403225
0.0393993
0.037504
0.0351252
0.0321055
0.0286095
0.0252947
0.0225328
0.0202379
0.0180987
0.0159413
0.0139865
0.0117901
0.0100898
0.00857204
0.00724125
0.00609817
0.00513029
0.00432459
0.00365547
0.00311124
0.00265243
0.00228245
0.00196969
0.0017207
0.00151473
0.00133008
0.0011952
0.00103822
0.000931165
0.000786938
0.000666178
0.000502683
0.000327121
9.47139e-05
-0.534172
-0.481791
-0.428499
-0.35612
-0.280578
-0.212268
-0.154433
-0.10606
-0.0664132
-0.0352965
-0.0116272
0.00569588
0.0172451
0.02479
0.0299946
0.0324743
0.0326715
0.0319764
0.0309164
0.0290166
0.0261879
0.0232386
0.0208115
0.0188662
0.0171047
0.0152906
0.0135399
0.0113954
0.00988869
0.00845495
0.00716346
0.0060395
0.00507814
0.00427591
0.0036082
0.00306675
0.00260757
0.00224167
0.00192928
0.00168535
0.00148058
0.00130084
0.00116997
0.00101614
0.000915948
0.000773686
0.000659325
0.000499803
0.000325986
9.04626e-05
-0.478395
-0.446362
-0.404296
-0.348464
-0.291058
-0.23776
-0.18408
-0.137089
-0.0958371
-0.060219
-0.0320961
-0.0107495
0.00427485
0.0150094
0.0224764
0.0268692
0.0284589
0.0285922
0.028186
0.0271678
0.0250715
0.0225484
0.0202771
0.0183349
0.0165837
0.0148375
0.0130003
0.0109288
0.00959892
0.00820894
0.00695706
0.0058685
0.00493582
0.00415765
0.00350925
0.00298266
0.00253549
0.00218073
0.00187733
0.00164193
0.00144446
0.00127249
0.00114866
0.0010004
0.000907082
0.000767786
0.000659218
0.000502682
0.000331048
9.96153e-05
-0.434726
-0.42218
-0.39524
-0.352063
-0.30431
-0.259356
-0.215213
-0.1717
-0.133007
-0.0970027
-0.0657187
-0.0396943
-0.0192423
-0.0042871
0.00682275
0.0148779
0.0193635
0.0213129
0.0223048
0.0225609
0.0217751
0.0202008
0.0185095
0.0170005
0.0155815
0.0141297
0.0125185
0.0104652
0.00946978
0.00809849
0.00685931
0.00578152
0.00485642
0.00408539
0.00344202
0.00292125
0.0024779
0.00213087
0.00183147
0.0016047
0.00140952
0.00124681
0.00112355
0.000984337
0.000891929
0.000759908
0.000652944
0.00050295
0.000333323
0.0001069
-0.384274
-0.390838
-0.369149
-0.330659
-0.287678
-0.243625
-0.200712
-0.160943
-0.125972
-0.0952085
-0.0681852
-0.0448233
-0.0255921
-0.0109717
0.000280658
0.00894148
0.0144477
0.0172767
0.0189752
0.0199054
0.0196433
0.0183956
0.0168724
0.0155028
0.0143177
0.013198
0.0119514
0.011721
0.00920998
0.00782192
0.00664385
0.0056153
0.00472695
0.00398242
0.00335919
0.00285101
0.00241889
0.00207889
0.00178703
0.00156589
0.00137452
0.00122098
0.00109684
0.000970723
0.000875052
0.000754027
0.000645743
0.000501518
0.000332986
0.000114961
-0.337982
-0.347749
-0.32987
-0.294932
-0.25643
-0.219257
-0.184704
-0.152528
-0.122286
-0.0948515
-0.0712787
-0.0503321
-0.0316935
-0.0173534
-0.00673305
0.00188214
0.00792633
0.0113974
0.0137449
0.0153777
0.0157975
0.0151912
0.0142405
0.0133396
0.0125458
0.0117739
0.0108332
0.00953633
0.0083671
0.00715905
0.00611999
0.00521105
0.00441284
0.00373494
0.00316303
0.00269307
0.0022933
0.00197648
0.00170685
0.00150028
0.00132454
0.0011826
0.00106708
0.000952334
0.00085987
0.000747779
0.000642753
0.000501244
0.000338336
0.000128669
-0.296
-0.306616
-0.296313
-0.27095
-0.239838
-0.207733
-0.177348
-0.149934
-0.124614
-0.100335
-0.0774396
-0.0567863
-0.0384567
-0.0238161
-0.0126687
-0.00358816
0.00275779
0.00660722
0.00967364
0.0120004
0.0128379
0.0126589
0.0122376
0.0117606
0.0112265
0.0106566
0.00991427
0.00914779
0.00769715
0.00656861
0.00562072
0.0047886
0.00406125
0.00344412
0.00292383
0.00249555
0.00213366
0.00184595
0.00160347
0.00141544
0.00125792
0.00112875
0.00102456
0.00092056
0.000835447
0.000731548
0.000632676
0.000495777
0.000337611
0.000129238
-0.260807
-0.271651
-0.265166
-0.245195
-0.219418
-0.191837
-0.165089
-0.140032
-0.116594
-0.0947904
-0.0751734
-0.0582899
-0.0425876
-0.0286498
-0.017801
-0.00878935
-0.00193651
0.00227597
0.00546544
0.0081282
0.00950156
0.00995574
0.0100094
0.00973821
0.0093449
0.00898975
0.00849435
0.00768502
0.00673964
0.00582058
0.00501711
0.00430612
0.00367583
0.00313318
0.00267094
0.00228754
0.00196485
0.00170519
0.00148821
0.00131734
0.00117834
0.00106308
0.000970775
0.000879871
0.000800414
0.000707771
0.000611786
0.000482478
0.000325031
0.000116954
-0.228547
-0.23891
-0.235713
-0.220961
-0.199599
-0.176099
-0.15367
-0.133395
-0.114767
-0.0969246
-0.0795942
-0.0634856
-0.0484334
-0.0350769
-0.0244636
-0.0154513
-0.00839916
-0.00377505
0.000247721
0.00385112
0.00580188
0.00649584
0.00700276
0.00737276
0.00750386
0.00756753
0.00736273
0.00679127
0.00588852
0.00508887
0.00441113
0.00380731
0.00326873
0.00280018
0.0023965
0.00205847
0.00177572
0.00154692
0.00135965
0.00121108
0.00109468
0.000995664
0.000917232
0.000839532
0.000766583
0.000685602
0.000591832
0.000470562
0.000315067
0.000113752
-0.19961
-0.210084
-0.208904
-0.19745
-0.180563
-0.162073
-0.143924
-0.126244
-0.109087
-0.0930067
-0.0775919
-0.063399
-0.0502439
-0.0379047
-0.0275806
-0.0186613
-0.0112622
-0.00638594
-0.00257543
0.000914684
0.00304861
0.00424188
0.00522447
0.00569864
0.00583615
0.0059495
0.00589714
0.00546976
0.00484734
0.00424948
0.00372499
0.003247
0.00281089
0.00242298
0.00208277
0.00179723
0.00156374
0.00137585
0.00122446
0.00110241
0.00100874
0.000927818
0.000863384
0.000800027
0.000736202
0.000665122
0.000578254
0.000462489
0.000313001
0.000119717
-0.175135
-0.184623
-0.184597
-0.176434
-0.16355
-0.148343
-0.132621
-0.117584
-0.103583
-0.0902931
-0.0768945
-0.06413
-0.0524435
-0.0416299
-0.0324615
-0.0242382
-0.0170272
-0.0120323
-0.00782463
-0.00369473
-0.00100738
0.000468897
0.00182176
0.00292701
0.00357468
0.00408187
0.00437471
0.0042488
0.00382447
0.00338182
0.00299616
0.00263962
0.0023058
0.00200125
0.00173432
0.00151439
0.0013385
0.00119392
0.00107763
0.000982085
0.000911789
0.000851821
0.000802508
0.000756971
0.000702317
0.000642902
0.000565405
0.00045312
0.00031289
0.000122399
-0.153863
-0.162014
-0.162981
-0.157259
-0.14701
-0.134617
-0.122087
-0.109986
-0.0980316
-0.0862406
-0.0745673
-0.0637856
-0.0539244
-0.0442095
-0.0353655
-0.0273112
-0.0200029
-0.014641
-0.0103351
-0.00627177
-0.00351058
-0.00175654
-5.38858e-05
0.0012298
0.00193659
0.00251276
0.00294612
0.00297874
0.00272398
0.0024454
0.00220732
0.00197963
0.00175362
0.00154346
0.00136356
0.00121439
0.0010927
0.000989108
0.000909873
0.000845329
0.00080282
0.000766719
0.000735005
0.000708751
0.000663652
0.000618748
0.000548948
0.000442361
0.000311555
0.000120367
-0.134473
-0.141968
-0.143634
-0.139673
-0.131886
-0.122231
-0.112052
-0.10173
-0.091575
-0.0818967
-0.0723036
-0.0630366
-0.0541741
-0.0453648
-0.0373467
-0.030002
-0.0232808
-0.0182299
-0.0139965
-0.00983375
-0.00688882
-0.00498352
-0.00303804
-0.00136079
-0.000325752
0.000523381
0.00125174
0.00156757
0.00154608
0.00145015
0.00136856
0.00127405
0.00116372
0.00105789
0.000966012
0.000882659
0.000815128
0.000759743
0.000725257
0.000697267
0.000685095
0.000674689
0.000662409
0.000655824
0.00062299
0.000592275
0.000530955
0.000432514
0.000308565
0.000118269
-0.117512
-0.124467
-0.12661
-0.124052
-0.118132
-0.110356
-0.101984
-0.0935859
-0.0854029
-0.0774535
-0.0692448
-0.0612085
-0.053571
-0.04595
-0.0389207
-0.0323123
-0.0260158
-0.0210204
-0.0167145
-0.0125231
-0.00954644
-0.00750834
-0.00529399
-0.00332926
-0.00210887
-0.00114711
-0.000275521
0.000217147
0.000364777
0.000425674
0.000489339
0.000527616
0.00053846
0.000536244
0.000528494
0.000515537
0.000512687
0.000514009
0.000527737
0.000538239
0.00055773
0.000575323
0.000584288
0.000599043
0.000580671
0.000563593
0.000513971
0.000422761
0.000304919
0.000117806
-0.103013
-0.109123
-0.111412
-0.109816
-0.105314
-0.0992058
-0.0925849
-0.0858114
-0.0790887
-0.072529
-0.0656721
-0.058948
-0.052522
-0.0459158
-0.0396749
-0.0337235
-0.0279787
-0.0233171
-0.0191434
-0.014972
-0.0119631
-0.00987965
-0.00757856
-0.00545546
-0.00408357
-0.00298803
-0.00193833
-0.00123069
-0.000881621
-0.000650342
-0.000435172
-0.000258184
-0.000125887
-2.61354e-05
5.59321e-05
0.000123947
0.000192069
0.000251594
0.000314237
0.000365832
0.000419997
0.000468345
0.00050081
0.000538617
0.000536104
0.000533777
0.000497322
0.000412378
0.000301883
0.000118161
-0.0901454
-0.0954652
-0.0977969
-0.0969852
-0.0937217
-0.088995
-0.0837171
-0.07824
-0.0728173
-0.0675241
-0.0618554
-0.0562509
-0.0508324
-0.0451257
-0.039744
-0.0345816
-0.0294339
-0.0250933
-0.0210641
-0.017005
-0.0141099
-0.012085
-0.00971308
-0.00741426
-0.00588411
-0.00468552
-0.00351764
-0.0026478
-0.00213143
-0.00174674
-0.00138726
-0.00107701
-0.000826123
-0.000620365
-0.000441528
-0.000289019
-0.000149718
-3.05792e-05
8.43028e-05
0.000180995
0.000272936
0.000354276
0.000412431
0.000474496
0.000489649
0.000503133
0.000480134
0.000402451
0.000299709
0.0001186
-0.0787511
-0.0834704
-0.0857831
-0.0855242
-0.0832085
-0.0795977
-0.0754409
-0.0710424
-0.0666909
-0.062426
-0.0577414
-0.0531484
-0.0487204
-0.0438992
-0.0392907
-0.034803
-0.0302197
-0.0263066
-0.0225704
-0.0187091
-0.0159373
-0.0139638
-0.0115697
-0.00919671
-0.00759129
-0.00633275
-0.00507539
-0.00406681
-0.00339457
-0.00286123
-0.00236282
-0.00192318
-0.00155273
-0.00123786
-0.000961678
-0.000725023
-0.000512624
-0.00032992
-0.000159219
-1.45998e-05
0.000117404
0.000233696
0.000319596
0.000407193
0.000441824
0.000471719
0.000462984
0.000393708
0.00029806
0.000119145
-0.0687144
-0.07291
-0.0751984
-0.075364
-0.0737814
-0.0710171
-0.0677126
-0.0641866
-0.0607094
-0.057318
-0.053579
-0.049922
-0.0462818
-0.0421606
-0.0382622
-0.0344758
-0.0305075
-0.0270497
-0.0236188
-0.0199888
-0.0173971
-0.0155406
-0.0131932
-0.0108081
-0.00916718
-0.00787516
-0.00656051
-0.00544729
-0.00464318
-0.00397599
-0.00334811
-0.00278383
-0.00229586
-0.00187395
-0.0015019
-0.00117994
-0.000891531
-0.000642536
-0.000414096
-0.000219663
-4.54779e-05
0.000107648
0.000223184
0.000337603
0.0003931
0.000440191
0.000446597
0.000386184
0.000297076
0.000120071
-0.0600922
-0.0637585
-0.0658882
-0.0662789
-0.0652032
-0.0630991
-0.0605402
-0.0577596
-0.0550427
-0.0524502
-0.0494504
-0.0464476
-0.0434728
-0.040075
-0.0368859
-0.0337342
-0.0303184
-0.0273047
-0.0242159
-0.0208777
-0.0185177
-0.0168089
-0.0145408
-0.0121961
-0.0105754
-0.00929271
-0.00795629
-0.00677196
-0.00586107
-0.00507553
-0.00432812
-0.00364638
-0.0030465
-0.00252113
-0.00205426
-0.0016465
-0.00128127
-0.000965078
-0.000677666
-0.000431862
-0.00021368
-2.22018e-05
0.000124505
0.000266844
0.000344284
0.000409424
0.000431457
0.000380122
0.000297241
0.000121476
-0.0525058
-0.055618
-0.0575474
-0.0581135
-0.0574902
-0.0559726
-0.0540173
-0.0518306
-0.0497263
-0.0476949
-0.0452468
-0.0429035
-0.0406038
-0.0378068
-0.035182
-0.0325889
-0.029705
-0.0271389
-0.0244054
-0.0213819
-0.0192829
-0.0177524
-0.0156044
-0.0133544
-0.0118054
-0.01057
-0.00924432
-0.0080204
-0.00702808
-0.00614155
-0.00528689
-0.00449729
-0.00379251
-0.00316802
-0.00260898
-0.00211724
-0.00167613
-0.00129274
-0.000945719
-0.000647698
-0.000384451
-0.000153591
2.53073e-05
0.00019647
0.000296557
0.000380441
0.000418319
0.000376202
0.000299083
0.000123688
-0.0457061
-0.0484329
-0.0502552
-0.0509703
-0.0506578
-0.0495383
-0.0480286
-0.0463057
-0.0446794
-0.0431502
-0.041266
-0.03948
-0.0376368
-0.0353014
-0.0332106
-0.0311482
-0.028754
-0.0266071
-0.0242209
-0.0215265
-0.0197167
-0.0183874
-0.0163852
-0.0142704
-0.0128386
-0.0116891
-0.010407
-0.00917453
-0.00812574
-0.00715582
-0.00620714
-0.00532031
-0.00451891
-0.00380166
-0.00315534
-0.00258316
-0.00206833
-0.00161895
-0.00121276
-0.000862801
-0.000554239
-0.000283728
-7.2243e-05
0.000128184
0.000251119
0.000353961
0.000407835
0.000374517
0.000302588
0.000125685
-0.0398789
-0.0422304
-0.0438776
-0.0446288
-0.0445124
-0.0437095
-0.0425806
-0.0412496
-0.0400431
-0.0389287
-0.0374324
-0.0360313
-0.0345911
-0.0327202
-0.0311173
-0.0295039
-0.0275422
-0.0257857
-0.0237284
-0.0213562
-0.0198397
-0.0187214
-0.0168852
-0.0149396
-0.0136655
-0.0126395
-0.0114347
-0.0102231
-0.0091387
-0.00810021
-0.00706973
-0.00609685
-0.0052088
-0.00440729
-0.00368051
-0.00303313
-0.00244843
-0.0019357
-0.0014722
-0.0010713
-0.000718227
-0.000408001
-0.000164311
6.58938e-05
0.000211398
0.000333492
0.000403104
0.000378514
0.000310378
0.000132648
-0.0347889
-0.0367555
-0.038221
-0.0389895
-0.0390318
-0.0384906
-0.0376675
-0.0366441
-0.035759
-0.0349499
-0.0337726
-0.0327291
-0.031635
-0.0301286
-0.0289149
-0.0276826
-0.0261127
-0.0247157
-0.0229671
-0.0209132
-0.019694
-0.0187935
-0.0171386
-0.0153836
-0.0142869
-0.0134071
-0.0123149
-0.0111641
-0.0100573
-0.00895732
-0.0078553
-0.00680829
-0.00584491
-0.00496906
-0.00417006
-0.00345463
-0.00280571
-0.00223497
-0.001718
-0.00127039
-0.000875658
-0.000528803
-0.000255465
2.91672e-06
0.000168742
0.00030921
0.000393193
0.00037679
0.000312253
0.000121649
-0.0302729
-0.0319351
-0.0332576
-0.0340232
-0.0341623
-0.0338107
-0.0332248
-0.0324515
-0.0318424
-0.0313008
-0.0303948
-0.0296231
-0.0287763
-0.027569
-0.0266943
-0.0257784
-0.0245352
-0.023445
-0.0219666
-0.0202122
-0.0192834
-0.0185982
-0.0171399
-0.0156112
-0.014729
-0.0140212
-0.0130683
-0.0120217
-0.0108672
-0.00970345
-0.00854082
-0.00743471
-0.00640996
-0.00547095
-0.00460786
-0.00382942
-0.00311902
-0.00249063
-0.00191939
-0.00142317
-0.000984189
-0.00059926
-0.000293006
-7.20978e-06
0.000182091
0.000337019
0.000437692
0.000419076
0.000369028
0.00018678
-0.0263483
-0.0277508
-0.0289318
-0.0296586
-0.0298456
-0.0296347
-0.0292281
-0.0286414
-0.0282458
-0.0279058
-0.0272112
-0.0266631
-0.0260243
-0.0250843
-0.0245145
-0.0238812
-0.0229359
-0.0221189
-0.0208695
-0.0193687
-0.018676
-0.018154
-0.0168616
-0.0155455
-0.0148836
-0.0143772
-0.0136328
-0.0130277
-0.0115404
-0.0103077
-0.00912417
-0.00799117
-0.0069323
-0.00595521
-0.00505208
-0.00423443
-0.00348551
-0.00282149
-0.00221692
-0.00168921
-0.00122512
-0.00081055
-0.000488947
-0.000174394
2.6139e-05
0.000204672
0.000316887
0.000306597
0.000232709
5.41395e-05
-0.0229237
-0.0240873
-0.0251331
-0.0258137
-0.0260378
-0.0259453
-0.0256812
-0.0252378
-0.0249982
-0.0247916
-0.024246
-0.0238622
-0.0233769
-0.0226489
-0.0223148
-0.0219012
-0.0212196
-0.020665
-0.019656
-0.0184382
-0.0180118
-0.0176749
-0.0165579
-0.0154294
-0.014882
-0.0143722
-0.0134327
-0.0119071
-0.01139
-0.0104386
-0.00931638
-0.00818318
-0.00709542
-0.00607706
-0.00512581
-0.00425959
-0.00345934
-0.00274958
-0.00209615
-0.00153132
-0.00102435
-0.000583819
-0.000230505
0.000101188
0.000318022
0.000506818
0.000633548
0.000632248
0.000569681
0.000307859
-0.0199196
-0.0208829
-0.0218083
-0.0224361
-0.0226862
-0.0226975
-0.0225544
-0.0222363
-0.0221328
-0.0220317
-0.0216062
-0.0213412
-0.0209548
-0.0203972
-0.0202426
-0.0199692
-0.0194703
-0.0190967
-0.0182513
-0.0172514
-0.0170301
-0.0168485
-0.0159498
-0.0151394
-0.0149278
-0.014703
-0.0140441
-0.0133247
-0.0122459
-0.0111498
-0.00998741
-0.00882441
-0.007712
-0.00667187
-0.00570176
-0.00481829
-0.00400336
-0.00327848
-0.00261448
-0.00203275
-0.00152244
-0.0010581
-0.000709554
-0.000349903
-0.00013224
6.18213e-05
0.000199986
0.000165104
0.000140389
2.1274e-06
-0.0173016
-0.0180944
-0.0188926
-0.0194438
-0.019692
-0.0197857
-0.0197473
-0.0195398
-0.0195527
-0.0195221
-0.0191861
-0.0190249
-0.0187289
-0.0183357
-0.0183611
-0.0182342
-0.0179122
-0.0176916
-0.016979
-0.0161738
-0.016127
-0.0160381
-0.0152491
-0.0145626
-0.0144217
-0.0142839
-0.0137569
-0.0127403
-0.011819
-0.0107102
-0.00951959
-0.00834553
-0.00722231
-0.00617038
-0.00518318
-0.00428417
-0.00344422
-0.00270427
-0.00200793
-0.00141799
-0.000872018
-0.000407706
-3.51405e-05
0.000334309
0.000545826
0.000784189
0.000902883
0.000892081
0.000779972
0.000397794
-0.0150584
-0.0157204
-0.0164064
-0.0168775
-0.0171036
-0.017217
-0.0172056
-0.0170605
-0.0171577
-0.0171904
-0.016943
-0.016835
-0.016572
-0.0163076
-0.0164527
-0.0164212
-0.0162718
-0.0162168
-0.0156679
-0.0150979
-0.0152536
-0.0153352
-0.0148526
-0.0146205
-0.0148861
-0.0149372
-0.0144296
-0.0137872
-0.012743
-0.0115713
-0.0103249
-0.00909923
-0.00794406
-0.00687445
-0.00588408
-0.00498633
-0.00415581
-0.00342208
-0.00273889
-0.00215096
-0.00162212
-0.00114904
-0.000798005
-0.000421051
-0.000215041
-1.56906e-05
0.000139592
9.79012e-05
0.000121841
7.93627e-06
-0.013147
-0.0136999
-0.0142968
-0.0147151
-0.0149545
-0.015134
-0.0151444
-0.0150269
-0.0151667
-0.0151957
-0.0150046
-0.0149476
-0.0146917
-0.0145126
-0.0147086
-0.0146908
-0.01462
-0.0145951
-0.0140534
-0.0136038
-0.0138395
-0.013896
-0.0134311
-0.0132285
-0.0135093
-0.0137192
-0.0134865
-0.0125503
-0.0115112
-0.0103096
-0.00907961
-0.00789194
-0.0067798
-0.00574515
-0.00478923
-0.00391751
-0.00310535
-0.00239465
-0.00170484
-0.00114999
-0.000585774
-0.000158894
0.000226577
0.000597124
0.000766857
0.0010593
0.00109426
0.00105726
0.000929505
0.000426485
-0.0114784
-0.0119152
-0.0123943
-0.0127586
-0.0130187
-0.0132646
-0.0133522
-0.013306
-0.0134511
-0.0134546
-0.0132865
-0.0132428
-0.0130587
-0.0130327
-0.0133162
-0.0133936
-0.0134667
-0.0135373
-0.0131518
-0.0129258
-0.0133231
-0.0136076
-0.013625
-0.0139891
-0.0145782
-0.0147114
-0.0142958
-0.0133657
-0.012183
-0.0109022
-0.00961717
-0.00840294
-0.00730204
-0.00628946
-0.00538085
-0.00454339
-0.00378823
-0.0031073
-0.00247188
-0.00194197
-0.00141717
-0.00101409
-0.000630392
-0.00031081
-0.00010504
0.000103306
0.000191188
0.000213519
0.000215426
4.73235e-05
-0.0102427
-0.0105732
-0.010924
-0.011196
-0.0114238
-0.011656
-0.011694
-0.0116785
-0.0118324
-0.0117865
-0.0116558
-0.011567
-0.0112992
-0.011289
-0.0114923
-0.0114812
-0.0115491
-0.0114982
-0.0110306
-0.0108878
-0.0112161
-0.0112913
-0.0111463
-0.0114487
-0.0121262
-0.0124616
-0.0119423
-0.0112248
-0.0101955
-0.00901389
-0.00786517
-0.00675209
-0.0057878
-0.00483903
-0.00406443
-0.00324952
-0.00261547
-0.00193237
-0.00136395
-0.000865755
-0.000291826
-3.45275e-05
0.000502657
0.000637175
0.000948279
0.00114855
0.00104318
0.00110801
0.000818775
0.00033104
-0.00937397
-0.00969088
-0.0100032
-0.0102559
-0.0104884
-0.0107007
-0.01072
-0.0106985
-0.0108352
-0.0108183
-0.0107253
-0.0106551
-0.0104546
-0.0104466
-0.010606
-0.0107152
-0.0109189
-0.0108515
-0.0103737
-0.0103205
-0.0108922
-0.0115397
-0.0121575
-0.0128123
-0.0131621
-0.01292
-0.0120963
-0.0109553
-0.00977413
-0.00860922
-0.00756797
-0.00658661
-0.00577103
-0.004932
-0.00429399
-0.0035281
-0.00303908
-0.00233154
-0.00196163
-0.00137233
-0.00100923
-0.000626584
-0.000103723
-6.30467e-05
0.0004588
0.000351642
0.000447903
0.000553077
0.000222694
6.51798e-05
-0.00873641
-0.0088364
-0.00918537
-0.00947086
-0.00962364
-0.00986648
-0.00989172
-0.00982883
-0.00985968
-0.00971841
-0.00957879
-0.00949645
-0.00928117
-0.00910438
-0.00908231
-0.00913241
-0.00902421
-0.00856409
-0.00808747
-0.00789271
-0.00772546
-0.00758712
-0.00809595
-0.00933686
-0.0104845
-0.0107143
-0.010215
-0.00920403
-0.00812601
-0.00704004
-0.0062034
-0.00530231
-0.00475081
-0.00389618
-0.00356899
-0.00265917
-0.00250704
-0.00157247
-0.00144739
-0.000694449
-0.00034554
-8.6414e-05
0.000605349
0.000342522
0.00109632
0.000794917
0.000881437
0.00105514
0.000388754
0.000147401
-0.16861
-0.188565
-0.201915
-0.223029
-0.243507
-0.259561
-0.291144
-0.304247
-0.332564
-0.363288
-0.157785
-0.174866
-0.186411
-0.202123
-0.222567
-0.234093
-0.258341
-0.271638
-0.28577
-0.308092
-0.146184
-0.160592
-0.16959
-0.182425
-0.199173
-0.208243
-0.224523
-0.237022
-0.245088
-0.268103
-0.135801
-0.147595
-0.154831
-0.165269
-0.17797
-0.186111
-0.197112
-0.208558
-0.220246
-0.239713
-0.125188
-0.134429
-0.140204
-0.148445
-0.158918
-0.166953
-0.176133
-0.188703
-0.1994
-0.211053
-0.115584
-0.122453
-0.127104
-0.133939
-0.142697
-0.150651
-0.158429
-0.167866
-0.174133
-0.183352
-0.106075
-0.110932
-0.114928
-0.120501
-0.127601
-0.134434
-0.139693
-0.145999
-0.151617
-0.160968
-0.0969406
-0.10053
-0.103869
-0.1082
-0.113598
-0.118903
-0.122918
-0.128309
-0.13459
-0.142809
-0.0882109
-0.0908508
-0.0934613
-0.09677
-0.101014
-0.105512
-0.109349
-0.114413
-0.11942
-0.125253
-0.0799873
-0.0819524
-0.0839611
-0.0866048
-0.0901538
-0.0940006
-0.097315
-0.101008
-0.104277
-0.109206
-0.0722921
-0.0737706
-0.0753025
-0.0774002
-0.0802482
-0.0832144
-0.0856873
-0.0884217
-0.0912992
-0.0959546
-0.0651795
-0.0662572
-0.067364
-0.0689079
-0.0711021
-0.0733544
-0.0754179
-0.0778894
-0.0805637
-0.084398
-0.0586227
-0.0593655
-0.0601027
-0.0612024
-0.0629303
-0.0647784
-0.0666385
-0.0687618
-0.0708218
-0.0738693
-0.0525853
-0.0530693
-0.053541
-0.0543263
-0.0557227
-0.0572454
-0.058783
-0.0603758
-0.0619107
-0.0645049
-0.0470438
-0.0473514
-0.0476228
-0.0481753
-0.0492673
-0.0504049
-0.0515715
-0.0528051
-0.0541497
-0.056484
-0.0419791
-0.0421716
-0.0422831
-0.0426192
-0.0434066
-0.044235
-0.0452288
-0.0463702
-0.0475809
-0.0495317
-0.0373308
-0.0374503
-0.03744
-0.0376212
-0.0382325
-0.0389149
-0.0398114
-0.0407372
-0.0416127
-0.0431839
-0.0330947
-0.0331867
-0.0331163
-0.0332121
-0.0336858
-0.0341821
-0.0348838
-0.0355711
-0.0362722
-0.037691
-0.0292563
-0.0293477
-0.0292465
-0.0292688
-0.0295793
-0.0299071
-0.030513
-0.0311106
-0.0317302
-0.0329729
-0.0257722
-0.0258687
-0.0257532
-0.0257307
-0.0259338
-0.0261859
-0.0267522
-0.0272359
-0.0277143
-0.0287649
-0.0226406
-0.0227534
-0.0226518
-0.0226186
-0.0227337
-0.0229095
-0.0234027
-0.0237576
-0.0241438
-0.0250799
-0.019842
-0.0199706
-0.0198931
-0.0198593
-0.0198913
-0.0200109
-0.0204566
-0.0207251
-0.0210612
-0.0218893
-0.0173366
-0.0174651
-0.0174131
-0.0173931
-0.0173762
-0.0174896
-0.0179098
-0.0180966
-0.0183817
-0.0190958
-0.0151506
-0.0152678
-0.0152367
-0.0152212
-0.0151558
-0.0152691
-0.0156534
-0.0157738
-0.0160391
-0.0166561
-0.0132673
-0.0133734
-0.0133702
-0.0133624
-0.0132559
-0.0133722
-0.0137064
-0.0137725
-0.014039
-0.0145646
-0.0115994
-0.0116899
-0.0117245
-0.0117301
-0.0116158
-0.011766
-0.012056
-0.0120915
-0.0123571
-0.0127809
-0.0102318
-0.0102743
-0.0103284
-0.0103383
-0.0102417
-0.010425
-0.0106563
-0.0106719
-0.0109215
-0.0112281
-0.0091886
-0.00921954
-0.00927525
-0.00925574
-0.00919659
-0.00940664
-0.00958562
-0.00963993
-0.0098675
-0.0100605
-0.00840368
-0.00842325
-0.00849259
-0.00849425
-0.008465
-0.00865268
-0.00877652
-0.00884012
-0.00906291
-0.00920956
-0.00803539