/*--------------------------------*- C++ -*----------------------------------*\
| =========                 |                                                 |
| \\      /  F ield         | OpenFOAM: The Open Source CFD Toolbox           |
|  \\    /   O peration     | Version:  2512                                  |
|   \\  /    A nd           | Website:  www.openfoam.com                      |
|    \\/     M anipulation  |                                                 |
\*---------------------------------------------------------------------------*/
FoamFile
{
    version     2.0;
    format      ascii;
    arch        "LSB;label=32;scalar=64";
    class       volScalarField;
    location    "12";
    object      p;
}
// * * * * * * * * * * * * * * * * * * * * * * * * * * * * * * * * * * * * * //

dimensions      [0 2 -2 0 0 0 0];

internalField   nonuniform List<scalar> 
9200
(
-0.28791
-0.287681
-0.284479
-0.278997
-0.272224
-0.265763
-0.26113
-0.259871
-0.262696
-0.269377
-0.278825
-0.289377
-0.299245
-0.306917
-0.311249
-0.312222
-0.309271
-0.303995
-0.294271
-0.281328
-0.293516
-0.29281
-0.289725
-0.284944
-0.279145
-0.273314
-0.268704
-0.266314
-0.266558
-0.269122
-0.273058
-0.277147
-0.280279
-0.281697
-0.28116
-0.278513
-0.273849
-0.267017
-0.257511
-0.247253
-0.302936
-0.300995
-0.297513
-0.29289
-0.287499
-0.281872
-0.276664
-0.272454
-0.269516
-0.267665
-0.266379
-0.265069
-0.263262
-0.260687
-0.257027
-0.252183
-0.24584
-0.23821
-0.229255
-0.219726
-0.315282
-0.311571
-0.307174
-0.302148
-0.296505
-0.29023
-0.283504
-0.276745
-0.270326
-0.264392
-0.258884
-0.253617
-0.248356
-0.242807
-0.236804
-0.230159
-0.222841
-0.214963
-0.206232
-0.197845
-0.330505
-0.32481
-0.319217
-0.313272
-0.306442
-0.298259
-0.288863
-0.278886
-0.268986
-0.259576
-0.250784
-0.242538
-0.234652
-0.226961
-0.219276
-0.211476
-0.203476
-0.195178
-0.186692
-0.178464
-0.349065
-0.341327
-0.334289
-0.326695
-0.317273
-0.305646
-0.292527
-0.278978
-0.265821
-0.253487
-0.242094
-0.231564
-0.221743
-0.212432
-0.203471
-0.194727
-0.18611
-0.177607
-0.169204
-0.161139
-0.371168
-0.361271
-0.35237
-0.341896
-0.328169
-0.31178
-0.294345
-0.277196
-0.261072
-0.246249
-0.232727
-0.220374
-0.209
-0.198433
-0.188512
-0.179105
-0.170112
-0.161422
-0.153071
-0.145006
-0.396127
-0.383931
-0.372423
-0.357345
-0.337728
-0.315814
-0.293934
-0.273359
-0.254552
-0.237554
-0.22223
-0.20838
-0.195797
-0.184282
-0.17366
-0.16378
-0.154512
-0.145782
-0.137521
-0.129544
-0.422325
-0.407701
-0.392246
-0.37072
-0.344167
-0.316555
-0.290427
-0.266706
-0.245503
-0.226626
-0.209806
-0.194773
-0.181271
-0.169081
-0.158007
-0.147882
-0.13857
-0.129954
-0.121913
-0.114235
-0.447167
-0.430096
-0.408874
-0.379369
-0.345559
-0.312549
-0.282596
-0.256134
-0.232914
-0.212522
-0.194568
-0.178706
-0.16463
-0.152079
-0.140829
-0.130693
-0.12153
-0.113241
-0.105659
-0.098598
-0.291959
-0.29846
-0.304926
-0.314899
-0.329028
-0.347052
-0.368697
-0.39364
-0.421461
-0.451625
-0.483449
-0.5161
-0.548603
-0.579861
-0.608714
-0.633968
-0.6544
-0.668893
-0.676466
-0.67675
-0.295181
-0.299312
-0.304216
-0.312901
-0.326078
-0.343683
-0.365587
-0.39157
-0.421257
-0.454094
-0.489332
-0.52602
-0.563027
-0.598998
-0.632539
-0.66226
-0.686735
-0.704595
-0.715563
-0.716692
-0.301452
-0.3028
-0.305989
-0.313185
-0.324987
-0.341484
-0.362654
-0.388352
-0.418246
-0.451785
-0.488179
-0.526402
-0.565406
-0.603403
-0.639004
-0.670408
-0.696602
-0.715139
-0.726966
-0.728256
-0.306766
-0.305231
-0.306716
-0.312068
-0.32186
-0.336305
-0.355464
-0.379269
-0.407465
-0.439558
-0.474787
-0.512133
-0.55036
-0.587883
-0.623262
-0.653724
-0.6796
-0.697132
-0.708247
-0.708883
-0.308616
-0.304919
-0.304577
-0.307619
-0.31457
-0.325842
-0.341621
-0.361935
-0.386629
-0.415297
-0.447246
-0.481468
-0.516876
-0.551896
-0.586054
-0.612872
-0.636496
-0.653177
-0.663372
-0.662857
-0.306644
-0.30191
-0.299858
-0.30012
-0.303306
-0.310177
-0.321199
-0.336587
-0.356326
-0.380111
-0.407339
-0.436986
-0.467859
-0.498097
-0.526562
-0.554952
-0.578688
-0.594825
-0.604246
-0.602123
-0.301925
-0.297432
-0.294142
-0.291571
-0.290468
-0.292044
-0.297266
-0.30676
-0.320801
-0.33928
-0.361715
-0.387232
-0.415056
-0.443984
-0.472528
-0.498382
-0.520093
-0.534457
-0.541316
-0.535658
-0.296034
-0.292754
-0.288921
-0.284161
-0.27931
-0.275954
-0.275648
-0.279603
-0.288603
-0.30288
-0.322194
-0.34575
-0.372144
-0.399183
-0.425046
-0.447312
-0.464737
-0.47451
-0.476382
-0.465809
-0.290459
-0.288724
-0.284903
-0.27896
-0.271837
-0.265331
-0.261488
-0.262012
-0.268221
-0.280307
-0.297627
-0.318788
-0.341729
-0.36428
-0.384212
-0.39966
-0.409625
-0.412638
-0.41
-0.39802
-0.287067
-0.286484
-0.282947
-0.276816
-0.269201
-0.261855
-0.257091
-0.256594
-0.261192
-0.271037
-0.285155
-0.30186
-0.318946
-0.334494
-0.3463
-0.353643
-0.355472
-0.352592
-0.346588
-0.337589
-0.670329
-0.650174
-0.610315
-0.556689
-0.483687
-0.390419
-0.281794
-0.173327
-0.081237
-0.0141728
0.0282267
0.0524812
0.0646585
0.0690404
0.0686
0.0653854
0.0606409
0.0551249
0.0493509
0.0437092
0.0384636
0.033729
0.029434
0.0255915
0.0221826
0.019097
0.016435
0.0140591
0.0119611
0.0101385
0.00858066
0.0072638
0.00616032
0.00523614
0.00446827
0.00382404
0.00329341
0.00284271
0.00247621
0.00215603
0.00189648
0.00166344
0.00146032
0.00128418
0.00109682
0.000941577
0.000753232
0.000569524
0.000361038
0.000130865
-0.712051
-0.690068
-0.651413
-0.596607
-0.522862
-0.42792
-0.316426
-0.204286
-0.109063
-0.0392296
0.00628918
0.0337545
0.0493072
0.0570058
0.0594944
0.0586482
0.0557641
0.0516538
0.0468356
0.0418149
0.0370474
0.0327652
0.0289436
0.0254947
0.0223492
0.0193764
0.0167478
0.014321
0.0121559
0.0102776
0.00868095
0.00733932
0.00621971
0.00528552
0.00450973
0.00386113
0.00332489
0.00287249
0.00250093
0.00218004
0.00191696
0.00168136
0.00147876
0.00129592
0.00111273
0.000949523
0.000763986
0.000574379
0.000366577
0.00012899
-0.722463
-0.701616
-0.66563
-0.612454
-0.54051
-0.448019
-0.339315
-0.229518
-0.135684
-0.0656867
-0.0180049
0.0129027
0.0322267
0.043506
0.0490852
0.050748
0.049848
0.0473285
0.0437317
0.039579
0.0354165
0.0316026
0.0282074
0.0251271
0.022245
0.0194675
0.0169062
0.0144773
0.0122853
0.0103764
0.00875571
0.00739803
0.00626744
0.00532649
0.00454487
0.00389347
0.00335271
0.00289961
0.00252364
0.00220276
0.0019366
0.00169887
0.00149721
0.00130782
0.00112923
0.000958009
0.000775586
0.000579947
0.000372742
0.000127481
-0.700066
-0.682082
-0.652877
-0.603714
-0.534573
-0.446605
-0.346539
-0.246356
-0.158824
-0.0907833
-0.0419044
-0.00815383
0.0145857
0.029269
0.0379129
0.0421781
0.0433647
0.0424733
0.0401712
0.0369854
0.0335062
0.0301982
0.0272278
0.024514
0.0219265
0.0196132
0.0168929
0.0145121
0.0123399
0.0104299
0.00880322
0.00743996
0.0063044
0.00536021
0.00457491
0.00392211
0.00337778
0.00292471
0.00254492
0.00222456
0.00195569
0.0017163
0.00151573
0.00132025
0.00114628
0.0009673
0.00078805
0.000586406
0.000379574
0.00012654
-0.650376
-0.636615
-0.616718
-0.574343
-0.510847
-0.430415
-0.340342
-0.253028
-0.177021
-0.113656
-0.0644602
-0.0284707
-0.002873
0.0147628
0.0262172
0.0329216
0.0362706
0.0371446
0.0362293
0.0340931
0.0313535
0.0285759
0.0260364
0.0237007
0.0214114
0.019163
0.0167108
0.0144411
0.0123258
0.0104399
0.00882359
0.00746469
0.0063299
0.00538591
0.00459918
0.00394649
0.00339969
0.00294744
0.00256453
0.00224524
0.00197405
0.00173358
0.00153408
0.00133328
0.0011636
0.0009775
0.000801204
0.000593818
0.000386996
0.000126312
-0.58525
-0.574408
-0.563017
-0.528036
-0.472777
-0.404048
-0.32787
-0.254011
-0.189344
-0.133276
-0.0855066
-0.0481802
-0.0203235
-6.85475e-05
0.0139967
0.0230997
0.0284564
0.0312138
0.0318414
0.03087
0.028951
0.0267442
0.0246482
0.022701
0.0207253
0.0186181
0.0164394
0.0142701
0.0122325
0.0103961
0.0088093
0.00746758
0.00634133
0.00540214
0.00461683
0.00396601
0.00341807
0.00296744
0.00258223
0.00226448
0.00199142
0.00175054
0.00155192
0.00134689
0.00118082
0.000988634
0.000814755
0.000602207
0.000394842
0.00012696
-0.513162
-0.503186
-0.498316
-0.471392
-0.427311
-0.373177
-0.313135
-0.253048
-0.19788
-0.149063
-0.104434
-0.0668923
-0.0374713
-0.0150694
0.001385
0.0127717
0.0201454
0.024634
0.0269168
0.0272526
0.0262513
0.0246754
0.0230523
0.0215133
0.0198875
0.0180291
0.0162785
0.0140609
0.0121072
0.010328
0.00877661
0.00745661
0.00634215
0.00541006
0.00462807
0.00398047
0.00343271
0.00298443
0.00259785
0.00228209
0.00200762
0.00176707
0.00156895
0.00136113
0.00119758
0.00100078
0.000828411
0.000611662
0.000402932
0.000128751
-0.438315
-0.43079
-0.43108
-0.412558
-0.381518
-0.342842
-0.298124
-0.250471
-0.203682
-0.160563
-0.120293
-0.0839376
-0.0537008
-0.0296571
-0.0111713
0.00232118
0.0116052
0.0177465
0.021566
0.0233256
0.023368
0.0224563
0.0212922
0.0201443
0.0188847
0.0173456
0.0156627
0.0136741
0.0118663
0.0101819
0.00869568
0.0074174
0.00632656
0.00540794
0.00463274
0.00399005
0.00344386
0.00299844
0.00261148
0.00229795
0.00202256
0.00178314
0.00158492
0.0013761
0.00121353
0.00101408
0.000841881
0.000622345
0.000411093
0.000132085
-0.373335
-0.3716
-0.374731
-0.363887
-0.344634
-0.318553
-0.285581
-0.247625
-0.207369
-0.168813
-0.132599
-0.0986862
-0.0686533
-0.0434763
-0.0233847
-0.00808796
0.00291228
0.0105047
0.0156211
0.0187246
0.0200384
0.0200996
0.0195202
0.0187589
0.0178311
0.0165751
0.0149687
0.013542
0.011723
0.0100756
0.00862865
0.00737719
0.00630385
0.00539727
0.00462995
0.00399327
0.00345047
0.00300858
0.00262263
0.00231166
0.00203598
0.00179861
0.00159952
0.00139185
0.0012283
0.00102868
0.000854797
0.000634427
0.000419118
0.00013761
-0.329523
-0.332743
-0.333091
-0.325113
-0.31283
-0.2959
-0.273431
-0.245647
-0.213656
-0.180202
-0.147127
-0.115188
-0.0863272
-0.0606953
-0.0389622
-0.0214456
-0.00812256
0.00160881
0.00862507
0.0133013
0.0158237
0.0168064
0.0170557
0.0169596
0.0165062
0.0155396
0.014124
0.0127431
0.0111507
0.00974627
0.00845219
0.00728704
0.00626131
0.00538001
0.004625
0.00399554
0.00345617
0.00301757
0.00263284
0.00232422
0.00204848
0.00181379
0.00161278
0.00140869
0.00124145
0.00104487
0.000866691
0.000647887
0.000426445
0.000145789
-0.295355
-0.310952
-0.308645
-0.29792
-0.284073
-0.26777
-0.248133
-0.224509
-0.197243
-0.168152
-0.138925
-0.110587
-0.0845081
-0.0613389
-0.0414356
-0.024954
-0.0120742
-0.00253026
0.00454716
0.00969212
0.0129152
0.0143649
0.0147981
0.0149335
0.0149646
0.0146891
0.0138923
0.01257
0.0111397
0.00968649
0.00837793
0.00720659
0.00619035
0.00532324
0.00458454
0.00396621
0.00343951
0.00300612
0.00263087
0.00232473
0.00205429
0.00182394
0.00162173
0.00142526
0.00125267
0.00106209
0.000878692
0.000662583
0.00043335
0.000155628
-0.25749
-0.276567
-0.276873
-0.266095
-0.252096
-0.23712
-0.220618
-0.201449
-0.179238
-0.154891
-0.129887
-0.105413
-0.0825449
-0.0618776
-0.0437498
-0.0284264
-0.0161031
-0.0066214
0.000637181
0.0060625
0.00963376
0.0115379
0.012453
0.0130125
0.0133539
0.0132677
0.0126186
0.0113842
0.0102766
0.00909112
0.00794735
0.00689956
0.00596967
0.0051633
0.00446914
0.00388258
0.0033813
0.0029648
0.00260556
0.00230805
0.00204778
0.0018227
0.00162468
0.0014336
0.00125999
0.00107371
0.00088765
0.000672728
0.000438222
0.000161878
-0.224863
-0.244286
-0.246818
-0.238086
-0.225772
-0.21275
-0.198928
-0.183224
-0.164943
-0.144467
-0.122971
-0.101546
-0.0811189
-0.0624148
-0.0458011
-0.0314609
-0.0196415
-0.0103539
-0.00309377
0.00252958
0.00646601
0.00879581
0.0100809
0.010935
0.0115641
0.0117865
0.0114275
0.0106209
0.0095566
0.00847721
0.00745749
0.00652111
0.00568126
0.00494474
0.00430498
0.00375967
0.00329145
0.00289906
0.00256053
0.00227667
0.00202935
0.00181204
0.00162084
0.001435
0.00126313
0.00108028
0.000893188
0.000679164
0.000440716
0.000165264
-0.197823
-0.214913
-0.218665
-0.212195
-0.201717
-0.190334
-0.178415
-0.165149
-0.149912
-0.132819
-0.114596
-0.0961654
-0.0783675
-0.0618413
-0.0469388
-0.033825
-0.0227443
-0.0137914
-0.00660364
-0.000870005
0.00332609
0.00600569
0.00764879
0.0088289
0.00975994
0.0102814
0.0101974
0.0095701
0.00870676
0.00780467
0.00693075
0.00611297
0.00536739
0.00470436
0.00412254
0.00362161
0.00318936
0.00282353
0.00250771
0.00223947
0.00200608
0.00179828
0.00161416
0.00143474
0.00126494
0.00108584
0.000898076
0.000685049
0.00044305
0.000167888
-0.173026
-0.188205
-0.192625
-0.188066
-0.179421
-0.169671
-0.159512
-0.148511
-0.136098
-0.122123
-0.106955
-0.0912992
-0.0758671
-0.0612642
-0.0478685
-0.0358468
-0.0254622
-0.0168864
-0.00984493
-0.00407102
0.000320689
0.00329248
0.00524531
0.00670753
0.00789943
0.0086793
0.00885689
0.00848802
0.00783272
0.00709557
0.00636598
0.00567049
0.00502446
0.00444019
0.00392091
0.00346835
0.00307534
0.00273888
0.002448
0.00219736
0.00197931
0.00178257
0.00160614
0.0014345
0.00126677
0.00109233
0.000903905
0.000691887
0.000446789
0.000170918
-0.150824
-0.164433
-0.169038
-0.165908
-0.158964
-0.150857
-0.142404
-0.133379
-0.123269
-0.111829
-0.0992041
-0.0859152
-0.0725905
-0.0597865
-0.0478817
-0.0370429
-0.0275019
-0.0194463
-0.0126751
-0.00698048
-0.00250672
0.000667057
0.00287362
0.00458684
0.0060202
0.0070489
0.0074817
0.00735219
0.00689871
0.00633466
0.00575448
0.00518593
0.00464486
0.00414509
0.00369378
0.0032946
0.00294512
0.00264186
0.00237891
0.00214859
0.00194784
0.00176395
0.00159647
0.00143378
0.00126873
0.00109967
0.000910856
0.000699717
0.000452138
0.000174378
-0.131462
-0.143333
-0.147817
-0.145772
-0.140322
-0.133738
-0.126818
-0.119447
-0.111218
-0.101881
-0.0914642
-0.0803421
-0.0690149
-0.0579526
-0.0475045
-0.0378266
-0.0291317
-0.0216316
-0.0151894
-0.00964168
-0.00515381
-0.00183734
0.000578195
0.00250667
0.00414663
0.00539241
0.00605957
0.00616275
0.00591616
0.00552835
0.00509909
0.00465993
0.00422781
0.00381747
0.00343936
0.00309869
0.00279717
0.00253115
0.00229922
0.00209217
0.00191072
0.0017417
0.0015845
0.00143193
0.00127046
0.00110726
0.000918644
0.000708144
0.000458652
0.000177724
-0.114208
-0.124493
-0.128784
-0.127596
-0.123403
-0.118137
-0.112542
-0.106576
-0.0999322
-0.0923813
-0.0838831
-0.0746839
-0.0651621
-0.0556922
-0.0465903
-0.0380201
-0.0301826
-0.0232891
-0.0172457
-0.0119301
-0.00752233
-0.00414967
-0.0015917
0.000503225
0.00231072
0.0037415
0.00461936
0.00494064
0.00489497
0.00468171
0.00440352
0.00409525
0.00377509
0.00345843
0.00315827
0.00288082
0.00263131
0.00240627
0.00220838
0.00202749
0.00186739
0.00171536
0.00156976
0.0014286
0.00127162
0.00111477
0.000927022
0.000716928
0.00046591
0.000180711
-0.0987734
-0.10776
-0.111828
-0.111282
-0.108104
-0.103943
-0.09948
-0.0947186
-0.0894227
-0.083384
-0.0765196
-0.0689841
-0.0610572
-0.0530337
-0.0451946
-0.0376982
-0.0307231
-0.0244723
-0.0188841
-0.0138692
-0.00961543
-0.0062556
-0.00361037
-0.00139418
0.00053804
0.00211482
0.00317394
0.0036953
0.00384189
0.00379971
0.00367163
0.00349485
0.0032888
0.00306934
0.00285114
0.00264092
0.00244708
0.00226668
0.00210591
0.00195421
0.00181767
0.00168475
0.00155224
0.00142379
0.0012723
0.00112227
0.000936117
0.000726217
0.000473874
0.000183766
-0.0851644
-0.0929746
-0.0967594
-0.0966782
-0.0943199
-0.0910799
-0.0875726
-0.0838291
-0.0796668
-0.0748945
-0.0694044
-0.0632916
-0.0567643
-0.0500469
-0.0433778
-0.0369021
-0.0307743
-0.0251799
-0.0200803
-0.0154173
-0.0113842
-0.00810763
-0.0054365
-0.00314948
-0.00113796
0.000543003
0.00174921
0.00244548
0.00276879
0.0028903
0.00290908
0.00286282
0.00277185
0.00265193
0.00251861
0.00237908
0.00224447
0.00211245
0.00199193
0.00187244
0.00176167
0.00165001
0.00153217
0.00141765
0.00127287
0.00112999
0.000946329
0.000736316
0.000482787
0.000187376
-0.0731837
-0.0799108
-0.0833823
-0.0836431
-0.0819461
-0.0794644
-0.0767486
-0.0738517
-0.0706315
-0.0669112
-0.062571
-0.0576701
-0.0523613
-0.0468069
-0.0412045
-0.0356816
-0.0303675
-0.0254277
-0.0208397
-0.0165707
-0.0128134
-0.00968135
-0.00704221
-0.00473455
-0.00268979
-0.000949159
0.000365259
0.00120756
0.00168878
0.00196318
0.00212309
0.00220476
0.00222832
0.00220886
0.00216247
0.0020967
0.00202466
0.00194438
0.00186692
0.00178241
0.00169961
0.00161128
0.00150975
0.00141038
0.00127356
0.00113818
0.000957927
0.000747481
0.000492863
0.000191631
-0.0625993
-0.0683841
-0.0715423
-0.0720417
-0.0708693
-0.0690074
-0.0669429
-0.0647412
-0.0622926
-0.0594379
-0.0560564
-0.0521818
-0.0479203
-0.0433835
-0.0387366
-0.03409
-0.0295461
-0.0252473
-0.0211797
-0.01733
-0.0138899
-0.0109551
-0.00840294
-0.0061248
-0.0040928
-0.00233706
-0.000955432
1.13566e-06
0.000618298
0.00103093
0.00132327
0.00152808
0.00166381
0.00174443
0.00178617
0.00179646
0.00178944
0.00176354
0.00173159
0.00168463
0.00163193
0.0015689
0.00148532
0.00140227
0.00127465
0.00114717
0.000971052
0.000760026
0.000504195
0.000196465
-0.053272
-0.0582398
-0.0610916
-0.0617496
-0.0609907
-0.0596298
-0.0580912
-0.0564494
-0.054625
-0.0524787
-0.0498908
-0.0468748
-0.0435006
-0.0398432
-0.0360426
-0.0321909
-0.0283626
-0.0246775
-0.0211261
-0.0177101
-0.0146157
-0.0119187
-0.009501
-0.00729953
-0.00532546
-0.00359862
-0.00219064
-0.00115433
-0.000426869
0.000106968
0.000520842
0.000841849
0.00108566
0.00126465
0.00139442
0.00148169
0.00154117
0.00157169
0.00158735
0.0015802
0.00155956
0.00152358
0.00145951
0.00139382
0.00127659
0.00115736
0.000985983
0.00077435
0.000516867
0.000201926
-0.0450933
-0.049343
-0.0518967
-0.0526479
-0.0522048
-0.0512391
-0.0501192
-0.0489266
-0.0476059
-0.046033
-0.0440923
-0.0417863
-0.0391576
-0.0362528
-0.033192
-0.0300494
-0.0268749
-0.0237661
-0.020715
-0.0177342
-0.0150012
-0.012571
-0.0103273
-0.00824553
-0.00637141
-0.00471527
-0.00332094
-0.00223973
-0.00142913
-0.00079346
-0.000271376
0.000156861
0.000502973
0.000776915
0.000992939
0.00115681
0.0012834
0.00137171
0.00143654
0.00147089
0.00148391
0.00147644
0.00143323
0.00138582
0.00127999
0.00116935
0.00100317
0.000790847
0.000531079
0.000208137
-0.0379389
-0.0415525
-0.0438151
-0.0446068
-0.0444014
-0.0437481
-0.0429634
-0.0421301
-0.0412099
-0.0400939
-0.0386755
-0.0369508
-0.0349412
-0.032673
-0.0302503
-0.027731
-0.0251431
-0.0225658
-0.0199896
-0.0174337
-0.0150672
-0.0129231
-0.0108833
-0.00895729
-0.00722068
-0.00567303
-0.00432968
-0.00323711
-0.00237071
-0.00165417
-0.00103916
-0.000514521
-7.37463e-05
0.000289929
0.000588957
0.000827843
0.00102111
0.00116756
0.00128228
0.00135916
0.00140696
0.00142907
0.00140778
0.00137936
0.00128568
0.00118391
0.00102316
0.000809946
0.000547155
0.000215213
-0.0316629
-0.0347256
-0.0367193
-0.0375197
-0.0374934
-0.0370857
-0.0365659
-0.0360146
-0.0354075
-0.0346506
-0.0336477
-0.0323934
-0.0308934
-0.0291573
-0.0272777
-0.0252979
-0.0232278
-0.0211317
-0.0189976
-0.0168496
-0.0148432
-0.0129905
-0.011176
-0.00943764
-0.00787025
-0.00646248
-0.00520408
-0.0041321
-0.00323615
-0.00245945
-0.0017677
-0.00115894
-0.000632697
-0.000185998
0.000191388
0.000502298
0.000760484
0.000964236
0.00112867
0.00124832
0.00133141
0.00138366
0.00138487
0.00137591
0.00129474
0.00120199
0.00104664
0.000832176
0.000565486
0.000223286
-0.0261707
-0.0287625
-0.0305121
-0.0312966
-0.0313987
-0.0311778
-0.0308617
-0.0305275
-0.0301621
-0.0296848
-0.0290112
-0.0281347
-0.0270484
-0.0257515
-0.0243284
-0.022809
-0.0211889
-0.0195206
-0.0177901
-0.0160225
-0.0143618
-0.0127996
-0.0112231
-0.00969429
-0.00832205
-0.00708058
-0.0059356
-0.00491265
-0.00401138
-0.00319439
-0.00244205
-0.00176219
-0.00116081
-0.000639102
-0.00018944
0.000189023
0.000509009
0.000768014
0.000980938
0.00114264
0.00126072
0.00134302
0.00136671
0.00137731
0.00130858
0.0012247
0.00107447
0.000858082
0.000586488
0.000232373
-0.0213872
-0.0235686
-0.0250909
-0.0258386
-0.0260285
-0.025948
-0.0257885
-0.0256217
-0.0254416
-0.0251793
-0.0247607
-0.0241806
-0.0234246
-0.0224877
-0.0214469
-0.020318
-0.0190844
-0.0177913
-0.016422
-0.0150021
-0.0136649
-0.0123845
-0.0110478
-0.0097409
-0.00858328
-0.0075299
-0.00651989
-0.00556854
-0.00468405
-0.00384536
-0.00304772
-0.00230963
-0.00164396
-0.00105631
-0.000541778
-0.00010165
0.000275602
0.000586465
0.00084538
0.00104738
0.0011991
0.00131069
0.00135602
0.0013859
0.00132897
0.0012536
0.00110779
0.000888605
0.000610869
0.000243435
-0.0172119
-0.0190388
-0.0203561
-0.0210573
-0.0213068
-0.0213328
-0.0212936
-0.0212539
-0.0212129
-0.0211118
-0.0208878
-0.0205379
-0.0200425
-0.0193949
-0.0186662
-0.0178603
-0.0169543
-0.0159873
-0.0149396
-0.0138368
-0.0127994
-0.0117851
-0.0106865
-0.00960736
-0.00867091
-0.0078148
-0.00695438
-0.0060952
-0.00524691
-0.00440131
-0.00357128
-0.00278719
-0.00206817
-0.00142416
-0.000852955
-0.000358171
7.06324e-05
0.000428485
0.00072966
0.000968636
0.00115158
0.00129023
0.00135541
0.00140318
0.00135667
0.00128861
0.00114628
0.000921955
0.000637592
0.000251919
-0.013568
-0.0150941
-0.0162299
-0.016879
-0.0171652
-0.0172683
-0.0173188
-0.0173743
-0.0174375
-0.0174583
-0.0173836
-0.0172124
-0.0169215
-0.0165051
-0.0160287
-0.015484
-0.0148449
-0.0141491
-0.0133755
-0.0125517
-0.0117864
-0.0110219
-0.0101591
-0.0093165
-0.00861245
-0.00796343
-0.00726073
-0.00649602
-0.00569102
-0.00485119
-0.00400081
-0.0031815
-0.00241975
-0.00172955
-0.00111095
-0.000569452
-9.5762e-05
0.000303976
0.000643233
0.000916457
0.00112813
0.00129258
0.001376
0.00144098
0.00140392
0.00134222
0.00120317
0.000970115
0.000677895
0.000284619
-0.0103985
-0.0116681
-0.012642
-0.0132352
-0.0135398
-0.013696
-0.0138104
-0.0139333
-0.0140701
-0.0141785
-0.0142147
-0.0141797
-0.0140483
-0.0138184
-0.0135518
-0.0132284
-0.012818
-0.0123552
-0.0118156
-0.0112273
-0.0106886
-0.0101332
-0.00947819
-0.00885788
-0.00838168
-0.00794501
-0.00741643
-0.00677529
-0.00602158
-0.00518929
-0.0043276
-0.00348444
-0.00269278
-0.00197013
-0.00131809
-0.000744
-0.000238867
0.000189653
0.000555227
0.000852036
0.00108252
0.0012661
0.00135912
0.00143928
0.00140499
0.00135149
0.00121316
0.000976624
0.000659994
0.000235054
-0.00764039
-0.00869215
-0.00952412
-0.0100628
-0.010375
-0.0105683
-0.0107283
-0.0108977
-0.0110833
-0.0112497
-0.011362
-0.0114228
-0.0114063
-0.0113149
-0.0112071
-0.0110562
-0.0108345
-0.0105754
-0.0102521
-0.00989027
-0.00957694
-0.009234
-0.0087864
-0.00837883
-0.00810234
-0.00783354
-0.00745623
-0.00693403
-0.00618705
-0.00534044
-0.00445019
-0.00358331
-0.00276459
-0.00201156
-0.00132696
-0.00072026
-0.000182337
0.000276161
0.000671039
0.000991741
0.00124527
0.00144498
0.0015518
0.00164047
0.00160938
0.00155354
0.001415
0.00116741
0.00085785
0.000393025
-0.0052418
-0.00610963
-0.00681826
-0.00730531
-0.00761807
-0.00783743
-0.00803074
-0.00823378
-0.00845434
-0.00866271
-0.00883186
-0.00896438
-0.00903345
-0.00904756
-0.0090576
-0.00902867
-0.00894031
-0.00882573
-0.00865641
-0.00846072
-0.00831507
-0.00814581
-0.00790468
-0.00774361
-0.0077381
-0.00771566
-0.00750093
-0.00717011
-0.00640582
-0.00558013
-0.00470887
-0.00383415
-0.00300222
-0.00223655
-0.00154122
-0.000925516
-0.000380578
8.43179e-05
0.000483035
0.000810058
0.00106257
0.00127178
0.00137101
0.00147219
0.00143361
0.00137911
0.00123637
0.000957385
0.000638548
0.000205818
-0.00315823
-0.00386956
-0.00446902
-0.0049055
-0.00521131
-0.00544616
-0.00566168
-0.00588659
-0.00612854
-0.00636284
-0.00657068
-0.00675592
-0.006893
-0.00699688
-0.00711219
-0.00719534
-0.00722991
-0.00724916
-0.00722107
-0.0071739
-0.00717357
-0.00713791
-0.00703099
-0.0069989
-0.0070846
-0.00712772
-0.00694027
-0.00628546
-0.00582755
-0.00509272
-0.0042382
-0.00337197
-0.00254061
-0.00177125
-0.00106926
-0.000446962
0.000108053
0.000578845
0.000990316
0.00131896
0.00158463
0.00178995
0.00189391
0.00199386
0.00194147
0.00189983
0.001739
0.00146337
0.00109395
0.000502039
-0.00136263
-0.00194101
-0.00244322
-0.00282845
-0.00311741
-0.00335291
-0.00357453
-0.00380604
-0.00405451
-0.00429873
-0.00452466
-0.00473476
-0.00490756
-0.00506557
-0.00524521
-0.00540057
-0.00552692
-0.00565785
-0.00575977
-0.00585848
-0.0060136
-0.00616462
-0.00631611
-0.0066174
-0.00704852
-0.00733679
-0.00728144
-0.00704036
-0.00632738
-0.00548194
-0.00456787
-0.00366033
-0.00281109
-0.00203976
-0.00134932
-0.000743048
-0.000210651
0.000240422
0.000628076
0.000941119
0.00118359
0.00138159
0.00146216
0.00155741
0.00148971
0.0014181
0.00126063
0.000946891
0.000642484
0.000209055
0.00016251
-0.00030876
-0.000732375
-0.00107654
-0.00135238
-0.00158808
-0.00181102
-0.00204074
-0.00228559
-0.00252835
-0.00276059
-0.00298183
-0.00317166
-0.00335897
-0.00356933
-0.00375468
-0.0039223
-0.00409807
-0.00424492
-0.0044004
-0.00461291
-0.00481818
-0.00503663
-0.00540744
-0.00592579
-0.00640034
-0.0065805
-0.00602217
-0.00528393
-0.00436959
-0.00342903
-0.00253223
-0.00171133
-0.000970874
-0.000315395
0.000261205
0.000765964
0.00119066
0.00156558
0.00184847
0.00209639
0.00225713
0.00234412
0.00242406
0.00232108
0.00229466
0.00205378
0.00173252
0.00130956
0.000570651
0.00148257
0.00110607
0.000752982
0.000446845
0.000184268
-5.04186e-05
-0.000273849
-0.000499325
-0.000734427
-0.000969402
-0.00120172
-0.00142948
-0.00163998
-0.00186334
-0.00211091
-0.00234132
-0.00257586
-0.00283898
-0.00309022
-0.00335723
-0.00370052
-0.00412154
-0.00469319
-0.00549684
-0.00640423
-0.00718234
-0.007922
-0.00671913
-0.00558933
-0.00452502
-0.00352551
-0.00261962
-0.00183287
-0.0011398
-0.000553328
-3.3001e-05
0.000397897
0.000775986
0.00108547
0.00133172
0.00153339
0.00165823
0.00173252
0.00175656
0.00167125
0.00157037
0.00134818
0.00105658
0.000716894
0.00023906
0.00251102
0.00222186
0.00194214
0.00168604
0.00145415
0.00124007
0.00103652
0.000833778
0.000628288
0.000429007
0.000233052
4.61544e-05
-0.000122726
-0.000305852
-0.000502014
-0.000676747
-0.000855081
-0.00104437
-0.00122299
-0.00143294
-0.0016897
-0.00197372
-0.0023592
-0.00293604
-0.003553
-0.00376961
-0.00296565
-0.00333035
-0.00299489
-0.00232608
-0.00159244
-0.000865115
-0.00023917
0.000352978
0.000811523
0.00127771
0.00160013
0.00195359
0.00219043
0.00240292
0.00260536
0.00263491
0.00278996
0.00268635
0.00265916
0.0025285
0.00217243
0.00188613
0.00130616
0.000533024
0.00324411
0.00299952
0.00275842
0.00253017
0.00231741
0.00211781
0.00192675
0.00173718
0.00154481
0.00135517
0.00116916
0.000991559
0.000824447
0.00064703
0.000462181
0.000277762
7.06135e-05
-0.000133129
-0.000304897
-0.000531934
-0.000925059
-0.00156038
-0.00245858
-0.00347125
-0.00432791
-0.00493575
-0.00416889
-0.00332188
-0.00250257
-0.00172559
-0.00106088
-0.000464488
-4.11943e-06
0.000455323
0.000758861
0.00114716
0.00132563
0.00166457
0.0017463
0.0019948
0.00205276
0.00212455
0.00226198
0.00206409
0.00218804
0.00183078
0.0016099
0.0013575
0.000757737
0.000270411
0.00373047
0.003536
0.00333652
0.00313924
0.00294989
0.00276963
0.00260238
0.00244701
0.00230094
0.00216652
0.00204167
0.00193225
0.00184227
0.00176123
0.00169407
0.00165195
0.0016324
0.00163675
0.00166674
0.00173003
0.00179707
0.0016887
0.00113523
0.000178225
-0.000668553
-0.000763206
-0.00118649
-0.000959464
-0.000481612
6.93929e-05
0.000490525
0.000932279
0.00115752
0.00155162
0.00161781
0.00204507
0.00198354
0.0024329
0.00233188
0.00266166
0.00269443
0.00267673
0.00294803
0.00251573
0.00281929
0.00230345
0.00207013
0.0018561
0.000970099
0.000381165
-0.0918709
-0.106524
-0.121241
-0.136283
-0.152481
-0.169553
-0.189074
-0.209934
-0.234904
-0.263759
-0.0852407
-0.0984456
-0.11176
-0.125227
-0.140015
-0.155229
-0.171957
-0.189147
-0.206696
-0.228344
-0.0784945
-0.0899453
-0.101418
-0.112974
-0.12529
-0.137837
-0.150527
-0.163972
-0.177973
-0.197041
-0.0720684
-0.0818755
-0.0915759
-0.101449
-0.111646
-0.122252
-0.132922
-0.144856
-0.158389
-0.175049
-0.0657352
-0.0741297
-0.0823739
-0.0909241
-0.0997793
-0.109229
-0.11906
-0.129738
-0.141369
-0.154418
-0.0598022
-0.0669898
-0.0740314
-0.0814218
-0.0891841
-0.0973883
-0.105813
-0.114355
-0.123592
-0.13458
-0.0540998
-0.0602448
-0.0662401
-0.0725117
-0.0791122
-0.085893
-0.0928019
-0.099818
-0.107836
-0.117609
-0.0486542
-0.0538636
-0.0589222
-0.0641734
-0.0697178
-0.075392
-0.0813093
-0.0874607
-0.0944469
-0.102672
-0.0434246
-0.0478427
-0.052133
-0.0565566
-0.0612646
-0.0661265
-0.0712184
-0.0764301
-0.082177
-0.0889982
-0.0385197
-0.0422662
-0.0458988
-0.0496339
-0.0536149
-0.0577111
-0.061942
-0.0662318
-0.0710135
-0.0768447
-0.0339438
-0.0371012
-0.0401572
-0.0432861
-0.0466046
-0.0500071
-0.0535247
-0.0571405
-0.0612193
-0.0661879
-0.0296686
-0.0323131
-0.0348708
-0.037482
-0.0402479
-0.0430987
-0.0460664
-0.0491321
-0.0525644
-0.0567301
-0.0256952
-0.0279027
-0.0300409
-0.0322249
-0.0345401
-0.036933
-0.0394196
-0.0419781
-0.0448334
-0.0483316
-0.0220205
-0.0238609
-0.0256478
-0.0274737
-0.0294034
-0.0313937
-0.0334579
-0.0355878
-0.0379813
-0.0409384
-0.0186292
-0.0201646
-0.0216576
-0.0231778
-0.0247776
-0.0264311
-0.0281541
-0.029946
-0.0319669
-0.0344609
-0.0155053
-0.016794
-0.0180424
-0.0193079
-0.0206402
-0.0220241
-0.023471
-0.024979
-0.0266735
-0.0287602
-0.012635
-0.0137229
-0.014774
-0.0158367
-0.0169521
-0.0181099
-0.019319
-0.0205794
-0.0219958
-0.0237449
-0.010011
-0.0109362
-0.0118281
-0.0127239
-0.0136575
-0.0146251
-0.0156373
-0.0166979
-0.0178931
-0.0193646
-0.00761741
-0.00841287
-0.0091764
-0.00993674
-0.0107238
-0.0115396
-0.0123953
-0.0132943
-0.0143028
-0.0155339
-0.00544304
-0.00613462
-0.00679624
-0.00744943
-0.00812004
-0.0088132
-0.00953894
-0.0102999
-0.0111488
-0.0121773
-0.00347752
-0.00408496
-0.00466454
-0.00523132
-0.0058072
-0.00639945
-0.00701791
-0.00766576
-0.00838508
-0.00924721
-0.00170948
-0.00224773
-0.00276054
-0.00325775
-0.00375775
-0.00426913
-0.00480121
-0.00535686
-0.00596846
-0.00669053
-0.000125812
-0.000606375
-0.00106504
-0.00150729
-0.0019478
-0.00239498
-0.00285671
-0.0033354
-0.00385605
-0.00446029
0.00128031
0.000850572
0.000438954
4.2766e-05
-0.000349226
-0.000744432
-0.00114897
-0.00156473
-0.00201061
-0.00251741
0.00251205
0.00212431
0.00175264
0.00139597
0.00104536
0.000693948
0.000336982
-2.70129e-05
-0.000411665
-0.00083861
0.00358772
0.00323309
0.00289153
0.00256413
0.002245
0.00192837
0.00161037
0.00128911
0.000954767
0.000592413
0.00449673
0.00417653
0.00386496
0.00356347
0.00327009
0.00298235
0.00269875
0.00241728
0.00213064
0.00182817
0.00521039
0.00491251
0.0046256
0.00434922
0.00407968
0.00381405
0.00355267
0.00329588
0.00304187
0.00278521
0.0057506
0.00547035
0.00519825
0.00493482