/*--------------------------------*- C++ -*----------------------------------*\
| =========                 |                                                 |
| \\      /  F ield         | OpenFOAM: The Open Source CFD Toolbox           |
|  \\    /   O peration     | Version:  2312                                  |
|   \\  /    A nd           | Website:  www.openfoam.com                      |
|    \\/     M anipulation  |                                                 |
\*---------------------------------------------------------------------------*/
FoamFile
{
    version     2.0;
    format      ascii;
    arch        "LSB;label=32;scalar=64";
    class       volVectorField;
    location    "60";
    object      U;
}
// * * * * * * * * * * * * * * * * * * * * * * * * * * * * * * * * * * * * * //

dimensions      [0 1 -1 0 0 0 0];

internalField   nonuniform List<vector> 
5478
(
(-0.0324128 0.0181828 -7.14394e-20)
(-0.0672842 0.0349954 0)
(-0.0689048 0.0411532 1.06954e-19)
(-0.0224858 0.044994 -1.85966e-19)
(0.0848542 0.0482182 1.19472e-19)
(0.25415 0.0533552 -3.63022e-20)
(0.469371 0.0636732 -6.04527e-20)
(0.702906 0.0775578 0)
(0.926279 0.0934543 0)
(1.1163 0.103505 8.30131e-20)
(1.2616 0.105733 -3.60112e-20)
(1.3448 0.102942 -6.538e-20)
(1.38396 0.0689891 -2.64975e-20)
(1.36784 0.0697077 0)
(1.32226 -0.00578758 7.65086e-20)
(-0.0440248 0.0242372 1.43299e-19)
(-0.0680899 0.0363438 0)
(-0.0310661 0.0348953 0)
(0.0839577 0.034871 -9.37703e-20)
(0.283032 0.0432255 1.23065e-19)
(0.536709 0.0626159 3.47476e-20)
(0.797294 0.0885523 -5.98976e-20)
(1.02465 0.11434 5.31044e-20)
(1.19439 0.13233 1.34434e-19)
(1.29987 0.138069 -1.18094e-19)
(1.34285 0.13338 2.74845e-21)
(1.34436 0.111596 0)
(1.32152 0.0950296 2.64525e-20)
(1.29377 0.068748 0)
(1.29328 0.0442643 0)
(-0.0500726 0.025282 -3.38372e-22)
(-0.0482545 0.033038 -6.71957e-20)
(0.0539855 0.0312263 4.67775e-22)
(0.269198 0.0412433 0)
(0.559271 0.0695211 -4.22084e-20)
(0.848142 0.106496 3.58142e-20)
(1.07896 0.13982 3.02215e-20)
(1.22871 0.160625 0)
(1.30216 0.165706 -4.4566e-20)
(1.31939 0.158963 3.81967e-20)
(1.31021 0.14102 3.26359e-20)
(1.29682 0.127928 0)
(1.2894 0.105652 0)
(1.29067 0.0973347 -7.11492e-20)
(1.28114 0.0737199 6.35678e-20)
(-0.047789 0.0208334 -7.85624e-20)
(0.00125462 0.0225742 6.63458e-20)
(0.201378 0.03208 -5.72889e-20)
(0.521944 0.069807 5.07837e-20)
(0.848012 0.120671 8.50902e-20)
(1.09357 0.163261 -7.16611e-20)
(1.23613 0.187037 -3.01999e-20)
(1.295 0.191854 2.40105e-20)
(1.30554 0.184898 -2.28085e-20)
(1.30041 0.17103 0)
(1.29537 0.159997 0)
(1.29045 0.143265 -4.66866e-20)
(1.28241 0.131834 6.11023e-20)
(1.26387 0.116219 -3.44334e-20)
(1.24512 0.0956022 0)
(-0.0344212 0.0129 3.98123e-20)
(0.0932655 0.0120127 3.351e-20)
(0.415315 0.053386 -1.20965e-19)
(0.789741 0.123156 1.6989e-21)
(1.07115 0.181289 -9.64763e-22)
(1.22681 0.212382 -1.2067e-21)
(1.28852 0.219938 2.91521e-20)
(1.30213 0.214538 2.46809e-20)
(1.2995 0.20339 1.80323e-20)
(1.29193 0.192199 -2.58539e-21)
(1.27972 0.177133 -4.11578e-20)
(1.26457 0.164029 0)
(1.2485 0.148931 1.9114e-20)
(1.23816 0.133542 -1.43682e-20)
(1.23265 0.121695 2.54289e-20)
(-0.00591859 0.004272 -8.65807e-20)
(0.237786 0.0167235 9.36458e-20)
(0.657483 0.104149 -3.25274e-20)
(1.00499 0.188541 2.45181e-20)
(1.20096 0.235476 -4.53751e-20)
(1.28145 0.250338 -3.40853e-20)
(1.30181 0.247831 1.00933e-21)
(1.29801 0.237764 0)
(1.28528 0.22538 3.63024e-20)
(1.26977 0.210407 -3.22831e-20)
(1.25626 0.196944 1.30133e-20)
(1.24571 0.182234 0)
(1.23741 0.169177 7.80852e-21)
(1.22695 0.155556 -1.41184e-20)
(1.21187 0.143659 0)
(0.044193 -0.000902996 -1.08286e-20)
(0.4253 0.0520997 1.08738e-21)
(0.869367 0.173838 1.55989e-20)
(1.14515 0.252462 2.69396e-20)
(1.2656 0.282737 -2.08321e-20)
(1.29892 0.285291 3.50144e-20)
(1.29524 0.275762 -7.93574e-21)
(1.28017 0.262115 0)
(1.2646 0.246789 -2.11946e-20)
(1.25166 0.232416 1.47701e-21)
(1.23945 0.217282 1.75072e-20)
(1.22647 0.203105 0)
(1.21251 0.188742 -1.12705e-20)
(1.20036 0.173707 0)
(1.19229 0.164372 6.71402e-21)
(0.118492 0.00569095 -1.21989e-20)
(0.616689 0.1197 0)
(1.0254 0.25081 1.69987e-20)
(1.22546 0.313644 0)
(1.28908 0.327586 0)
(1.29205 0.31943 0)
(1.27678 0.304352 -6.77682e-21)
(1.25956 0.287569 0)
(1.24351 0.270982 4.26902e-21)
(1.228 0.253934 0)
(1.21394 0.237904 -5.42641e-21)
(1.20239 0.222037 0)
(1.19363 0.207035 3.45765e-21)
(1.18565 0.193624 0)
(1.17504 0.183416 2.18308e-21)
(-0.00725208 0.0322635 -1.00001e-20)
(-0.0304201 0.104767 0)
(-0.0665482 0.153568 1.56468e-20)
(-0.104984 0.185486 0)
(-0.142322 0.215715 0)
(-0.177224 0.251187 0)
(-0.208333 0.291391 -9.89106e-21)
(-0.233893 0.333442 0)
(-0.251794 0.373741 8.19805e-21)
(-0.259853 0.408076 0)
(-0.256169 0.431668 -1.4074e-20)
(-0.239282 0.439769 0)
(-0.207774 0.428094 1.24679e-20)
(-0.161609 0.391986 0)
(-0.100242 0.327485 1.1158e-20)
(-0.00839261 0.0439986 4.94573e-20)
(-0.029892 0.131192 -3.47869e-20)
(-0.0580963 0.18976 1.47317e-20)
(-0.0872774 0.225562 5.39387e-20)
(-0.114051 0.254926 1.82335e-22)
(-0.136088 0.286488 -4.30576e-20)
(-0.151329 0.320442 2.90526e-20)
(-0.157834 0.353895 0)
(-0.153506 0.382967 2.4701e-20)
(-0.136446 0.403435 1.43381e-21)
(-0.105161 0.411753 -1.32589e-20)
(-0.0579406 0.404174 0)
(0.00343883 0.374017 -3.76462e-20)
(0.0745492 0.324851 0)
(0.17157 0.250198 -5.86631e-20)
(-0.00956338 0.0451193 7.7277e-20)
(-0.0293326 0.139746 1.68259e-20)
(-0.0476175 0.208302 -3.03052e-20)
(-0.0640459 0.249438 -7.93117e-20)
(-0.0760339 0.277673 4.64434e-20)
(-0.0809519 0.303559 4.162e-20)
(-0.0760183 0.329487 -7.30738e-20)
(-0.0592385 0.353163 0)
(-0.0295261 0.370953 -6.33572e-20)
(0.0152643 0.37988 5.63302e-20)
(0.0758107 0.374504 2.64928e-20)
(0.144033 0.355002 0)
(0.246073 0.316683 2.5163e-20)
(0.314464 0.25815 -4.6678e-20)
(0.453627 0.18069 0)
(-0.00958596 0.0371615 3.7525e-20)
(-0.0288881 0.129128 -1.00198e-19)
(-0.039044 0.20448 1.16444e-19)
(-0.0427371 0.251825 -1.01221e-19)
(-0.0388899 0.280221 -4.388e-20)
(-0.0255679 0.300389 3.86736e-20)
(-0.000705072 0.317044 3.61836e-20)
(0.0372774 0.329816 3.09694e-20)
(0.0902274 0.336034 -8.82169e-20)
(0.152363 0.332532 -2.80398e-21)
(0.243831 0.319894 2.34508e-20)
(0.309052 0.288565 0)
(0.451398 0.246234 4.50483e-20)
(0.499934 0.188954 1.39376e-19)
(0.678609 0.111283 -8.27413e-20)
(-0.00845999 0.0249485 -3.89643e-22)
(-0.0290167 0.104117 6.45353e-20)
(-0.0359319 0.178256 -5.60211e-20)
(-0.03076 0.228779 5.01095e-20)
(-0.0137187 0.257904 8.59895e-20)
(0.0154534 0.27372 -7.54358e-20)
(0.0573812 0.281822 -3.24186e-20)
(0.111655 0.283368 -9.16384e-20)
(0.181527 0.281072 8.21651e-20)
(0.255191 0.264432 0)
(0.364025 0.250718 0)
(0.43547 0.211681 9.35443e-20)
(0.609092 0.17499 -2.17755e-19)
(0.65988 0.117565 7.97068e-20)
(0.895293 0.0455046 0)
(-0.00784526 0.0142032 2.8386e-22)
(-0.031412 0.0744727 -6.38743e-20)
(-0.040457 0.136944 1.66686e-19)
(-0.032338 0.18254 -4.83061e-20)
(-0.00761868 0.208768 -4.21419e-20)
(0.0322595 0.220233 3.67912e-20)
(0.0863939 0.222101 3.24382e-20)
(0.154804 0.216776 5.65761e-20)
(0.238918 0.20862 -9.97636e-20)
(0.341912 0.189055 4.57416e-20)
(0.466691 0.173356 4.27912e-20)
(0.599562 0.132838 0)
(0.788973 0.105641 0)
(0.901092 0.0424499 1.5273e-19)
(1.15934 -0.00670903 -1.36299e-19)
(-0.0107315 0.00922662 -4.49083e-22)
(-0.0393468 0.0502033 0)
(-0.0536883 0.093222 0)
(-0.046446 0.125265 9.20162e-20)
(-0.0173067 0.143254 -4.15086e-20)
(0.0335607 0.149415 3.41761e-20)
(0.108557 0.147791 6.01087e-20)
(0.211078 0.142514 -5.32989e-20)
(0.343128 0.131265 4.95855e-20)
(0.504694 0.12217 -4.57918e-20)
(0.678047 0.10134 -2.35094e-21)
(0.878315 0.0814493 0)
(1.05437 0.0570168 3.42718e-20)
(1.2206 0.00885948 0)
(1.37886 -0.0137385 0)
(-0.0195201 0.0113974 -7.10589e-20)
(-0.0538191 0.037223 0)
(-0.0699536 0.0592287 -1.06385e-19)
(-0.0565164 0.0748437 1.84697e-19)
(-0.00779455 0.0834378 -1.98044e-19)
(0.0822246 0.0858742 -3.27725e-20)
(0.217244 0.0856776 5.97244e-20)
(0.390862 0.0865428 0)
(0.593652 0.0851048 0)
(0.800546 0.0898598 -8.73383e-20)
(1.00344 0.0781363 -4.25218e-20)
(1.18023 0.0822087 7.10185e-20)
(1.30584 0.0493087 -3.43308e-20)
(1.40891 0.0345266 0)
(1.41438 -0.000473013 -9.70602e-20)
(-0.0282554 0.23049 0)
(0.0679149 0.0590302 7.82726e-21)
(0.170039 -0.143375 -7.46608e-21)
(0.279749 -0.369737 0)
(0.387207 -0.576314 -1.6943e-22)
(0.477397 -0.706403 0)
(0.544586 -0.724463 1.69321e-22)
(0.546128 -0.723793 0)
(0.437393 -0.780404 -1.08727e-22)
(0.369166 -0.682033 2.39645e-21)
(0.468081 -0.288976 -2.28687e-21)
(0.614013 0.1589 -1.35313e-22)
(0.715089 0.442019 0)
(0.760475 0.565117 1.30974e-22)
(0.799985 0.586553 9.07785e-23)
(0.802602 0.569929 0)
(0.682696 0.570553 0)
(0.534568 0.535302 0)
(0.516359 0.330647 -1.38985e-22)
(0.606759 0.0119127 0)
(0.748791 -0.228218 0)
(0.857363 -0.34027 -9.70601e-23)
(0.829757 -0.441049 2.14313e-22)
(0.717273 -0.509847 9.46667e-23)
(0.68505 -0.411344 0)
(0.775044 -0.159105 0)
(0.844836 0.119782 0)
(0.848839 0.393189 0)
(0.818817 0.516217 -1.18767e-22)
(0.785198 0.397334 -9.67893e-23)
(0.737461 0.077273 1.05371e-22)
(0.705331 -0.238724 6.43278e-23)
(0.682649 -0.396282 -3.83841e-23)
(0.684398 -0.335807 0)
(0.702112 -0.0984901 -6.02176e-24)
(0.75998 0.0531574 5.76857e-24)
(0.757354 0.280489 -1.21498e-24)
(0.750104 0.200355 1.16188e-24)
(0.253516 0.142724 -2.0279e-21)
(0.348909 -0.0335731 3.49731e-20)
(0.440707 -0.237673 0)
(0.530792 -0.460307 4.57264e-22)
(0.608814 -0.659814 -1.91409e-22)
(0.646713 -0.788364 0)
(0.657787 -0.78039 -1.70557e-22)
(0.654834 -0.687297 7.11792e-21)
(0.54587 -0.684717 -6.90924e-21)
(0.385119 -0.664595 1.79128e-22)
(0.38607 -0.368568 0)
(0.502095 0.0574484 1.36251e-22)
(0.604756 0.367201 0)
(0.684954 0.522237 -2.37049e-22)
(0.771979 0.56614 -9.13698e-23)
(0.782256 0.589966 -1.55548e-22)
(0.664529 0.63016 3.48583e-21)
(0.562 0.57818 -3.32791e-21)
(0.585207 0.322866 -4.75447e-21)
(0.670578 -0.0315638 4.98494e-21)
(0.78332 -0.280771 2.18779e-22)
(0.873055 -0.362937 -1.11802e-21)
(0.851252 -0.423078 1.15958e-21)
(0.749664 -0.485584 8.04986e-22)
(0.70726 -0.421477 -1.32096e-21)
(0.773181 -0.188317 6.07035e-22)
(0.833001 0.101951 1.39829e-22)
(0.83699 0.392912 0)
(0.805799 0.526515 3.65792e-22)
(0.771953 0.411193 9.70701e-23)
(0.735808 0.0903435 -1.05636e-22)
(0.710374 -0.231637 -5.80424e-22)
(0.698744 -0.395485 4.62045e-22)
(0.706189 -0.339751 -1.79303e-23)
(0.717898 -0.106279 -2.88806e-23)
(0.766773 0.0486885 -5.38206e-23)
(0.750384 0.282149 -4.82519e-23)
(0.746695 0.200137 3.66303e-24)
(0.520593 0.0787578 7.30706e-20)
(0.607072 -0.0810281 -7.03431e-20)
(0.69445 -0.270937 0)
(0.775899 -0.48895 5.55551e-20)
(0.833261 -0.669814 -5.21912e-20)
(0.831795 -0.776899 5.13819e-22)
(0.762422 -0.78645 0)
(0.716002 -0.668728 2.42067e-22)
(0.632312 -0.590528 0)
(0.44412 -0.591452 -3.0696e-22)
(0.341364 -0.412399 -1.17638e-20)
(0.400607 -0.0385833 1.12231e-20)
(0.507211 0.275378 7.74678e-21)
(0.634565 0.451804 -1.2684e-20)
(0.750855 0.540376 5.08417e-21)
(0.770468 0.633013 1.57732e-22)
(0.694809 0.699887 0)
(0.635605 0.61764 -5.75921e-21)
(0.674272 0.32403 4.43481e-21)
(0.749433 -0.0539691 -3.15804e-22)
(0.83356 -0.315541 2.90974e-22)
(0.903288 -0.373256 2.15698e-21)
(0.877189 -0.396862 -2.05459e-21)
(0.781136 -0.459615 -1.35076e-21)
(0.740774 -0.430714 1.42569e-21)
(0.786089 -0.214574 0)
(0.830622 0.0919668 -1.41016e-22)
(0.829635 0.396391 -2.58975e-22)
(0.796363 0.532276 7.9131e-22)
(0.764708 0.421463 -4.38029e-22)
(0.741149 0.102739 -1.10964e-21)
(0.720639 -0.224834 3.3998e-22)
(0.715751 -0.396833 5.34502e-22)
(0.728484 -0.345094 -1.748e-22)
(0.735645 -0.113399 -4.44399e-23)
(0.774628 0.0460445 9.33091e-23)
(0.744263 0.284635 -1.42924e-23)
(0.744616 0.199682 5.57323e-24)
(0.738809 0.0168715 4.96158e-22)
(0.828035 -0.124478 6.81568e-20)
(0.917918 -0.291899 -1.28896e-19)
(0.996073 -0.498072 5.99397e-20)
(1.03061 -0.664184 6.78373e-22)
(1.01068 -0.720365 -5.27363e-22)
(0.896104 -0.720689 0)
(0.771958 -0.636938 0)
(0.70584 -0.517767 0)
(0.546492 -0.493926 -6.66755e-21)
(0.361479 -0.41453 6.32565e-21)
(0.339344 -0.131584 1.60376e-22)
(0.43291 0.161643 -3.41084e-22)
(0.578845 0.354692 1.48371e-22)
(0.735222 0.485196 2.16917e-22)
(0.795958 0.611334 0)
(0.729551 0.709375 8.68842e-21)
(0.684073 0.641601 -7.97555e-21)
(0.750406 0.33814 7.8636e-22)
(0.82973 -0.0522556 0)
(0.889334 -0.335393 -5.21809e-22)
(0.941927 -0.385551 0)
(0.912036 -0.375873 -2.2457e-22)
(0.810306 -0.434897 1.71184e-22)
(0.773756 -0.438478 -1.43302e-22)
(0.809821 -0.242467 0)
(0.840703 0.0685644 0)
(0.830694 0.390317 1.31619e-21)
(0.790388 0.545896 -1.89121e-21)
(0.762385 0.439832 -2.04759e-22)
(0.752728 0.118425 1.2465e-21)
(0.736631 -0.216093 1.05745e-21)
(0.734188 -0.398056 -1.69359e-21)
(0.750144 -0.35104 3.13342e-22)
(0.754254 -0.1199 7.02119e-23)
(0.783018 0.0451164 0)
(0.738844 0.288026 3.32047e-23)
(0.74392 0.199049 0)
(0.947169 -0.0402332 -5.15442e-22)
(1.03267 -0.165108 0)
(1.11985 -0.309415 9.97115e-22)
(1.19084 -0.476491 -8.82419e-22)
(1.18347 -0.62003 -1.32176e-21)
(1.10492 -0.655181 4.55477e-22)
(0.989603 -0.621163 1.70642e-20)
(0.824287 -0.576233 -2.76522e-20)
(0.737903 -0.474715 1.04458e-20)
(0.654238 -0.400433 0)
(0.466528 -0.361763 2.37119e-22)
(0.350147 -0.193821 -1.65714e-22)
(0.412823 0.0483918 -1.49985e-21)
(0.567287 0.230299 1.54664e-21)
(0.727523 0.394155 -8.68006e-23)
(0.785944 0.607899 5.17021e-21)
(0.756343 0.756159 3.18436e-21)
(0.764496 0.667392 -2.04208e-20)
(0.839755 0.351735 1.167e-20)
(0.914319 -0.0434943 -1.29372e-20)
(0.949339 -0.342834 2.8032e-21)
(0.983682 -0.392485 2.77597e-21)
(0.953828 -0.34924 4.7059e-21)
(0.840528 -0.405207 -7.09032e-22)
(0.797748 -0.447367 0)
(0.836533 -0.27186 0)
(0.856151 0.0551564 0)
(0.832342 0.395373 0)
(0.788158 0.551934 -1.53291e-21)
(0.766369 0.447534 1.20072e-21)
(0.769412 0.130909 2.35623e-21)
(0.757576 -0.206774 -1.45951e-21)
(0.754544 -0.39925 9.87537e-22)
(0.770443 -0.357671 -5.46962e-22)
(0.77268 -0.125861 1.3078e-23)
(0.791429 0.0459719 1.24096e-23)
(0.734217 0.292017 -4.98409e-24)
(0.744754 0.198082 0)
(1.18952 -0.087476 0)
(1.25189 -0.183762 1.11614e-19)
(1.3095 -0.303604 -1.05926e-19)
(1.33225 -0.425574 -8.80787e-20)
(1.28889 -0.514387 8.4536e-20)
(1.15891 -0.55461 -4.90138e-23)
(1.03253 -0.526949 3.24568e-22)
(0.894923 -0.494258 0)
(0.772986 -0.454067 -1.26217e-20)
(0.721129 -0.360017 1.21456e-20)
(0.607548 -0.288398 -8.05628e-23)
(0.447206 -0.208296 1.31701e-21)
(0.43155 -0.0695297 -6.54565e-22)
(0.570731 0.0959412 2.3807e-23)
(0.733781 0.298815 -5.80785e-22)
(0.800104 0.534804 1.04274e-22)
(0.794597 0.708602 2.31034e-22)
(0.788001 0.685785 0)
(0.87234 0.405272 0)
(0.981766 0.0135111 3.58571e-23)
(1.0113 -0.321613 -8.26981e-24)
(1.02434 -0.396671 -4.01987e-22)
(1.00213 -0.325809 2.39757e-22)
(0.881769 -0.368616 1.85608e-22)
(0.813983 -0.450035 -1.71468e-21)
(0.855346 -0.303489 1.63119e-21)
(0.87561 0.0231893 1.33576e-22)
(0.842629 0.380421 0)
(0.790696 0.563691 -2.81111e-22)
(0.773492 0.46915 0)
(0.789551 0.150388 -2.54238e-21)
(0.782968 -0.193852 2.0294e-21)
(0.777265 -0.399007 0)
(0.789323 -0.364565 -1.81998e-23)
(0.790183 -0.131742 -9.80429e-23)
(0.799523 0.0478912 -1.30571e-24)
(0.730118 0.296544 0)
(0.747092 0.196882 -3.0096e-24)
(1.37962 -0.0936637 -1.77268e-22)
(1.39891 -0.165091 0)
(1.41411 -0.24953 -9.09288e-20)
(1.38122 -0.34676 8.64671e-20)
(1.30438 -0.405824 6.43396e-20)
(1.1845 -0.434031 -6.1681e-20)
(1.05855 -0.443109 0)
(0.960116 -0.413256 -2.24004e-20)
(0.8513 -0.397679 2.13108e-20)
(0.767465 -0.355332 0)
(0.708339 -0.24479 2.0739e-23)
(0.594377 -0.149306 1.13423e-23)
(0.510546 -0.105498 1.42094e-23)
(0.562415 -0.0360603 2.68037e-21)
(0.730147 0.169699 -2.52466e-21)
(0.836202 0.485598 6.02553e-21)
(0.826058 0.725112 -5.68312e-21)
(0.842817 0.687185 -2.14403e-20)
(0.950495 0.390347 2.03666e-20)
(1.05848 0.0245627 1.26227e-21)
(1.07185 -0.304414 9.4433e-21)
(1.05818 -0.403338 -1.37533e-20)
(1.04369 -0.309072 5.26062e-21)
(0.930913 -0.325956 -2.38813e-21)
(0.833099 -0.44743 8.19741e-22)
(0.864564 -0.342626 1.66023e-21)
(0.892112 0.00354357 1.06294e-21)
(0.849728 0.383831 -1.22225e-21)
(0.795652 0.56786 2.87641e-22)
(0.786293 0.470799 -4.18395e-22)
(0.812358 0.161029 -2.3677e-21)
(0.81113 -0.181673 -4.76772e-22)
(0.801726 -0.398129 1.06702e-21)
(0.807301 -0.372446 6.69301e-23)
(0.80614 -0.13719 0)
(0.806538 0.0517313 8.96067e-24)
(0.726565 0.301436 -1.05858e-23)
(0.751153 0.195156 -2.31083e-24)
(1.40161 -0.0630727 9.1415e-20)
(1.39619 -0.110002 0)
(1.38146 -0.16756 8.01718e-20)
(1.33668 -0.233185 -1.48529e-19)
(1.26533 -0.298767 6.84147e-20)
(1.18949 -0.338568 0)
(1.10192 -0.374853 0)
(1.01879 -0.381098 0)
(0.943016 -0.358038 0)
(0.841979 -0.35217 0)
(0.762395 -0.284098 -2.21609e-23)
(0.707696 -0.151828 1.10224e-21)
(0.640179 -0.0933592 -1.05865e-21)
(0.601358 -0.105676 -2.64851e-23)
(0.692979 0.00647571 0)
(0.7989 0.332713 0)
(0.831749 0.644228 1.20855e-22)
(0.860917 0.715207 0)
(0.933452 0.48933 -2.33835e-20)
(1.08809 0.122215 2.17599e-20)
(1.13274 -0.233973 -8.65352e-21)
(1.09521 -0.391037 2.76663e-21)
(1.0812 -0.302587 5.19523e-21)
(0.980943 -0.284028 0)
(0.861217 -0.421363 -1.86472e-21)
(0.866208 -0.376416 2.74154e-21)
(0.90367 -0.0513156 -1.04679e-21)
(0.862395 0.354629 8.5638e-23)
(0.807298 0.574709 0)
(0.797037 0.497576 4.28446e-22)
(0.835947 0.187135 5.06089e-22)
(0.842201 -0.163377 1.93888e-21)
(0.82762 -0.39209 -1.14738e-21)
(0.825003 -0.377451 -6.76358e-23)
(0.821199 -0.143207 0)
(0.812926 0.0548971 -1.92549e-23)
(0.723695 0.305996 0)
(0.756898 0.193171 3.29343e-24)
(1.32942 -0.0278257 0)
(1.3346 -0.0670548 0)
(1.31623 -0.112996 0)
(1.28749 -0.154957 0)
(1.24177 -0.204679 0)
(1.18971 -0.241064 0)
(1.13541 -0.267393 0)
(1.06258 -0.288554 0)
(1.0016 -0.272602 0)
(0.939913 -0.25459 0)
(0.840378 -0.238443 0)
(0.792206 -0.14018 0)
(0.773282 -0.0513655 0)
(0.684133 -0.0936753 0)
(0.662619 -0.0688231 0)
(0.789525 0.233862 0)
(0.876246 0.582131 0)
(0.875011 0.668746 0)
(0.978222 0.424494 0)
(1.16156 0.103152 0)
(1.18977 -0.191126 0)
(1.12351 -0.356767 0)
(1.10668 -0.279178 0)
(1.02557 -0.232739 0)
(0.895601 -0.387225 0)
(0.866731 -0.389255 0)
(0.902999 -0.0719401 0)
(0.872045 0.350128 0)
(0.817686 0.573922 0)
(0.813908 0.488514 0)
(0.865949 0.189235 0)
(0.875804 -0.146538 0)
(0.854655 -0.37937 0)
(0.84179 -0.375831 0)
(0.834837 -0.14445 0)
(0.81706 0.0620349 0)
(0.720998 0.310808 0)
(0.76441 0.190163 0)
(1.28729 -0.0211182 0)
(1.29698 -0.066231 0)
(1.28224 -0.109549 0)
(1.25485 -0.151355 0)
(1.21558 -0.198227 0)
(1.16821 -0.228982 0)
(1.11503 -0.261497 0)
(1.05329 -0.272148 0)
(0.978626 -0.260208 0)
(0.923521 -0.247378 0)
(0.85829 -0.208557 0)
(0.801177 -0.122273 0)
(0.81762 -0.0371005 0)
(0.78843 -0.0528965 0)
(0.70296 -0.0540361 0)
(0.761559 0.196816 0)
(0.839496 0.554439 0)
(0.852176 0.63903 0)
(1.03257 0.369195 0)
(1.22106 0.0571134 0)
(1.2342 -0.206154 0)
(1.14858 -0.353831 0)
(1.10893 -0.265512 0)
(1.02761 -0.209241 0)
(0.911574 -0.368083 0)
(0.881907 -0.383188 0)
(0.910093 -0.0623967 0)
(0.878855 0.360785 0)
(0.828616 0.577215 0)
(0.835163 0.482255 0)
(0.899704 0.178709 0)
(0.914049 -0.153777 0)
(0.8844 -0.381577 0)
(0.858188 -0.374818 0)
(0.847077 -0.139603 0)
(0.8199 0.0728903 0)
(0.719065 0.316116 0)
(0.773645 0.186449 0)
(1.25125 -0.0161022 0)
(1.26165 -0.0505484 0)
(1.2488 -0.0890698 0)
(1.22723 -0.119015 0)
(1.19091 -0.154401 0)
(1.1531 -0.174859 0)
(1.1096 -0.193668 0)
(1.05654 -0.203547 0)
(1.00439 -0.189784 0)
(0.951741 -0.180979 0)
(0.898527 -0.155067 0)
(0.836177 -0.100492 0)
(0.836277 -0.0345931 0)
(0.840607 -0.0306667 0)
(0.771391 -0.0437636 0)
(0.738573 0.185376 0)
(0.761001 0.547197 0)
(0.866423 0.587185 0)
(1.11422 0.27515 0)
(1.27976 0.0180218 0)
(1.26753 -0.172887 0)
(1.16438 -0.317858 0)
(1.12402 -0.240114 0)
(1.0555 -0.165747 0)
(0.936609 -0.336562 0)
(0.894687 -0.387313 0)
(0.920437 -0.0701007 0)
(0.893718 0.368688 0)
(0.847641 0.582561 0)
(0.862038 0.471764 0)
(0.937248 0.171098 0)
(0.95607 -0.145018 0)
(0.917906 -0.369555 0)
(0.874601 -0.370632 0)
(0.858191 -0.135194 0)
(0.821109 0.0859428 0)
(0.717918 0.321568 0)
(0.785814 0.181341 0)
(1.21961 -0.00939755 0)
(1.22812 -0.0377304 0)
(1.21769 -0.0705762 0)
(1.19844 -0.0957138 0)
(1.16892 -0.126558 0)
(1.1335 -0.143961 0)
(1.09878 -0.162817 0)
(1.05165 -0.175822 0)
(1.01087 -0.163306 0)
(0.964662 -0.163073 0)
(0.92365 -0.134115 0)
(0.877939 -0.0806096 0)
(0.864604 -0.0362576 0)
(0.874214 -0.0146858 0)
(0.823395 -0.00282969 0)
(0.753624 0.195922 0)
(0.779705 0.505794 0)
(0.9829 0.481365 0)
(1.2159 0.182754 0)
(1.31775 -0.00996526 0)
(1.28066 -0.154039 0)
(1.16823 -0.291236 0)
(1.11491 -0.222423 0)
(1.05811 -0.136725 0)
(0.953925 -0.307322 0)
(0.912098 -0.381908 0)
(0.933464 -0.0670199 0)
(0.905256 0.38244 0)
(0.866591 0.589956 0)
(0.891357 0.459997 0)
(0.977827 0.157047 0)
(1.00173 -0.147109 0)
(0.954713 -0.362435 0)
(0.890808 -0.364037 0)
(0.867516 -0.127705 0)
(0.820768 0.101397 0)
(0.718547 0.32586 0)
(0.802032 0.174481 0)
(1.19068 -0.00362168 0)
(1.19723 -0.0263545 0)
(1.18988 -0.0536994 0)
(1.17269 -0.0743517 0)
(1.14982 -0.0985254 0)
(1.11837 -0.113843 0)
(1.09285 -0.12505 0)
(1.05383 -0.13588 0)
(1.02098 -0.122258 0)
(0.986678 -0.120752 0)
(0.945521 -0.0992936 0)
(0.914862 -0.0533077 0)
(0.89781 -0.0282943 0)
(0.899053 0.000512254 0)
(0.860519 0.0321237 0)
(0.8073 0.185868 0)
(0.892974 0.40935 0)
(1.11839 0.360199 0)
(1.27249 0.112273 0)
(1.31507 -0.0176636 0)
(1.2683 -0.114436 0)
(1.16457 -0.248296 0)
(1.11525 -0.195184 0)
(1.0754 -0.101432 0)
(0.978513 -0.275532 0)
(0.925443 -0.380895 0)
(0.952222 -0.0718587 0)
(0.928472 0.391162 0)
(0.895671 0.592306 0)
(0.927975 0.440861 0)
(1.02198 0.141199 0)
(1.04986 -0.139562 0)
(0.994205 -0.343462 0)
(0.906219 -0.351276 0)
(0.873485 -0.117325 0)
(0.817434 0.118798 0)
(0.721457 0.328167 0)
(0.823292 0.165477 0)
(1.16523 0.00222545 0)
(1.1705 -0.0157732 0)
(1.16615 -0.0373523 0)
(1.15136 -0.0542245 0)
(1.13365 -0.0730039 0)
(1.1079 -0.0855076 0)
(1.08637 -0.0937328 0)
(1.05714 -0.102928 0)
(1.0273 -0.0937784 0)
(1.00358 -0.0915043 0)
(0.966534 -0.0767706 0)
(0.944854 -0.0374994 0)
(0.93296 -0.0196235 0)
(0.924157 0.0134426 0)
(0.904908 0.056657 0)
(0.880485 0.155966 0)
(0.988032 0.296603 0)
(1.17606 0.258713 0)
(1.26054 0.0754247 0)
(1.27533 -0.0103915 0)
(1.24462 -0.0800632 0)
(1.15046 -0.213536 0)
(1.1017 -0.178532 0)
(1.07695 -0.0762434 0)
(0.996143 -0.244402 0)
(0.934339 -0.373991 0)
(0.962428 -0.0750584 0)
(0.951618 0.396132 0)
(0.926314 0.591356 0)
(0.973482 0.419788 0)
(1.0699 0.121213 0)
(1.09701 -0.137797 0)
(1.03536 -0.323264 0)
(0.919519 -0.333825 0)
(0.875639 -0.102864 0)
(0.80919 0.13839 0)
(0.727163 0.327001 0)
(0.850905 0.153409 0)
(1.14458 0.00794801 0)
(1.14904 -0.00606041 0)
(1.14565 -0.0231048 0)
(1.13404 -0.0365856 0)
(1.11947 -0.0512829 0)
(1.09984 -0.0611206 0)
(1.08136 -0.0678166 0)
(1.05993 -0.0742164 0)
(1.0352 -0.0684888 0)
(1.01725 -0.064734 0)
(0.990332 -0.0531157 0)
(0.97099 -0.0233846 0)
(0.965197 -0.00740873 0)
(0.952046 0.0225262 0)
(0.949151 0.0644704 0)
(0.950275 0.121785 0)
(1.02957 0.201276 0)
(1.16576 0.186001 0)
(1.21933 0.0573375 0)
(1.22058 -0.00807794 0)
(1.21662 -0.0545865 0)
(1.14108 -0.173222 0)
(1.0856 -0.157183 0)
(1.08459 -0.0506529 0)
(1.0214 -0.206763 0)
(0.940144 -0.365508 0)
(0.958438 -0.0809732 0)
(0.951954 0.405943 0)
(0.956701 0.589143 0)
(1.03987 0.392654 0)
(1.12649 0.100676 0)
(1.13935 -0.129379 0)
(1.07773 -0.289821 0)
(0.93043 -0.305479 0)
(0.873096 -0.0849313 0)
(0.801069 0.157579 0)
(0.742521 0.319889 0)
(0.887037 0.137871 0)
(1.12756 0.0133926 0)
(1.13116 0.00230071 0)
(1.1285 -0.011055 0)
(1.12007 -0.0213912 0)
(1.10847 -0.032774 0)
(1.09355 -0.0402307 0)
(1.07888 -0.0456224 0)
(1.06222 -0.0500293 0)
(1.04458 -0.046102 0)
(1.02891 -0.0428837 0)
(1.01121 -0.0331466 0)
(0.994896 -0.012855 0)
(0.991514 0.00134327 0)
(0.982475 0.0270692 0)
(0.985554 0.0579125 0)
(1.00034 0.0929855 0)
(1.04782 0.134413 0)
(1.13664 0.128714 0)
(1.18097 0.0447122 0)
(1.17588 -0.00597539 0)
(1.1849 -0.0375051 0)
(1.13256 -0.134874 0)
(1.06434 -0.141392 0)
(1.079 -0.0429946 0)
(1.0469 -0.169357 0)
(0.935583 -0.338199 0)
(0.934361 -0.0881579 0)
(0.95424 0.391846 0)
(1.01102 0.563336 0)
(1.12094 0.363219 0)
(1.18502 0.0891968 0)
(1.16989 -0.120665 0)
(1.11336 -0.254293 0)
(0.943997 -0.266411 0)
(0.857575 -0.0617584 0)
(0.78273 0.176436 0)
(0.765933 0.304922 0)
(0.931365 0.11828 0)
(1.11344 0.0181392 0)
(1.11679 0.00960568 0)
(1.11536 -0.000438707 0)
(1.1092 -0.00839845 0)
(1.10039 -0.0170228 0)
(1.08872 -0.0229088 0)
(1.07801 -0.027112 0)
(1.0649 -0.0302753 0)
(1.05284 -0.0278155 0)
(1.04023 -0.025335 0)
(1.02819 -0.0178842 0)
(1.01742 -0.00369775 0)
(1.0132 0.00732563 0)
(1.01019 0.0279656 0)
(1.01472 0.0475888 0)
(1.03012 0.0696015 0)
(1.0608 0.0895485 0)
(1.11343 0.0855752 0)
(1.14959 0.0342491 0)
(1.14342 -0.00601805 0)
(1.15224 -0.0316123 0)
(1.12445 -0.0992313 0)
(1.05626 -0.119627 0)
(1.06388 -0.0425672 0)
(1.06276 -0.133084 0)
(0.934435 -0.291342 0)
(0.87999 -0.0898374 0)
(0.920702 0.360429 0)
(1.02641 0.515426 0)
(1.15927 0.325216 0)
(1.2219 0.0841642 0)
(1.18763 -0.103071 0)
(1.13386 -0.211537 0)
(0.966575 -0.213266 0)
(0.843855 -0.0273382 0)
(0.760984 0.190389 0)
(0.806584 0.27497 0)
(0.986512 0.0932712 0)
(1.10293 0.02213 0)
(1.10614 0.0157185 0)
(1.10558 0.00817844 0)
(1.10098 0.001936 0)
(1.0945 -0.00455831 0)
(1.08576 -0.00911579 0)
(1.07805 -0.0124748 0)
(1.06841 -0.0146816 0)
(1.05997 -0.0135619 0)
(1.05109 -0.0115061 0)
(1.04242 -0.00651868 0)
(1.0362 0.00321216 0)
(1.03226 0.0108455 0)
(1.03209 0.0258817 0)
(1.03724 0.0373306 0)
(1.04826 0.0506736 0)
(1.07002 0.0596057 0)
(1.09952 0.05521 0)
(1.12501 0.023793 0)
(1.12311 -0.00455709 0)
(1.12553 -0.0269139 0)
(1.11118 -0.0706521 0)
(1.05609 -0.0943388 0)
(1.04751 -0.0463454 0)
(1.06041 -0.103336 0)
(0.940622 -0.221643 0)
(0.824091 -0.0676694 0)
(0.850511 0.315508 0)
(1.00031 0.438028 0)
(1.1621 0.271005 0)
(1.23886 0.0782295 0)
(1.19728 -0.0832305 0)
(1.13451 -0.170964 0)
(0.985955 -0.15634 0)
(0.862109 0.0145435 0)
(0.788111 0.191698 0)
(0.894151 0.228028 0)
(1.05526 0.0652926 0)
(1.09564 0.0255464 0)
(1.09838 0.0206341 0)
(1.09839 0.0149041 0)
(1.0953 0.0100963 0)
(1.09076 0.00518505 0)
(1.08452 0.00176365 0)
(1.07898 -0.00108172 0)
(1.07231 -0.00262424 0)
(1.06642 -0.00256003 0)
(1.06055 -0.00103947 0)
(1.05463 0.00183112 0)
(1.05109 0.00815252 0)
(1.04841 0.0129666 0)
(1.04896 0.0227792 0)
(1.0538 0.028889 0)
(1.06091 0.0367308 0)
(1.07546 0.0393285 0)
(1.09216 0.0355146 0)
(1.10755 0.0158192 0)
(1.10849 -0.00331 0)
(1.10689 -0.0226952 0)
(1.09717 -0.0495865 0)
(1.0597 -0.06918 0)
(1.04054 -0.0429566 0)
(1.04811 -0.0751105 0)
(0.95633 -0.14343 0)
(0.826251 -0.0272178 0)
(0.838838 0.251776 0)
(1.01193 0.336818 0)
(1.16527 0.204737 0)
(1.23462 0.068403 0)
(1.1975 -0.0565523 0)
(1.13372 -0.123197 0)
(1.00212 -0.102164 0)
(0.917957 0.0486861 0)
(0.885798 0.179658 0)
(1.01678 0.178135 0)
(1.12308 0.0429693 0)
(1.09081 0.0277363 0)
(1.0933 0.0239691 0)
(1.09387 0.0196127 0)
(1.09204 0.015963 0)
(1.08901 0.0121322 0)
(1.08473 0.00950226 0)
(1.08087 0.00701828 0)
(1.07646 0.00581282 0)
(1.0726 0.00517387 0)
(1.06886 0.00604509 0)
(1.06517 0.00729577 0)
(1.06303 0.0110785 0)
(1.06157 0.0135205 0)
(1.06217 0.0194856 0)
(1.06581 0.021952 0)
(1.07026 0.0263525 0)
(1.07949 0.0255511 0)
(1.08885 0.0226182 0)
(1.09727 0.00959888 0)
(1.0983 -0.00279692 0)
(1.09533 -0.0178828 0)
(1.08699 -0.0335313 0)
(1.06274 -0.0478919 0)
(1.04238 -0.0342766 0)
(1.04065 -0.0492264 0)
(0.978107 -0.0775746 0)
(0.882454 0.00861585 0)
(0.898537 0.18554 0)
(1.05257 0.240044 0)
(1.16338 0.14907 0)
(1.21329 0.0622482 0)
(1.18242 -0.0322643 0)
(1.13123 -0.0790507 0)
(1.0187 -0.0595493 0)
(0.98051 0.0609084 0)
(0.994275 0.153084 0)
(1.11188 0.135105 0)
(1.16457 0.0292844 0)
(1.0883 0.0294986 0)
(1.09067 0.0266875 0)
(1.09166 0.0233657 0)
(1.09077 0.0205922 0)
(1.08891 0.0175501 0)
(1.08615 0.0154889 0)
(1.08366 0.0132945 0)
(1.08086 0.0122622 0)
(1.07849 0.0111752 0)
(1.07618 0.0115097 0)
(1.07409 0.0115361 0)
(1.07278 0.0136597 0)
(1.07218 0.0142954 0)
(1.07254 0.0177535 0)
(1.07507 0.0179426 0)
(1.07758 0.0204418 0)
(1.08299 0.0181885 0)
(1.08767 0.0162072 0)
(1.09199 0.0073912 0)
(1.09249 6.02272e-06 0)
(1.08952 -0.0110978 0)
(1.08198 -0.0194779 0)
(1.06648 -0.0288272 0)
(1.04919 -0.0212175 0)
(1.04312 -0.0246179 0)
(1.00308 -0.0302357 0)
(0.950162 0.0293221 0)
(0.96837 0.131433 0)
(1.0785 0.169064 0)
(1.1472 0.11032 0)
(1.18505 0.0586908 0)
(1.16261 -0.0110144 0)
(1.12984 -0.0390525 0)
(1.04334 -0.026403 0)
(1.03221 0.0575039 0)
(1.06345 0.122842 0)
(1.15077 0.105062 0)
(1.17652 0.0238856 0)
(1.08841 0.029052 0)
(1.09063 0.0269065 0)
(1.09184 0.0242853 0)
(1.09158 0.0221066 0)
(1.09061 0.0195977 0)
(1.08893 0.017895 0)
(1.08747 0.0158633 0)
(1.08578 0.0148576 0)
(1.08452 0.0134206 0)
(1.08317 0.013321 0)
(1.0822 0.0124463 0)
(1.0814 0.0134576 0)
(1.08136 0.0127821 0)
(1.08149 0.0145829 0)
(1.08322 0.0133821 0)
(1.08449 0.0145928 0)
(1.08764 0.0117226 0)
(1.08977 0.0104339 0)
(1.09181 0.00414348 0)
(1.09102 2.83475e-05 0)
(1.08838 -0.00787805 0)
(1.08198 -0.0116549 0)
(1.0726 -0.0170084 0)
(1.05924 -0.0118486 0)
(1.05285 -0.00902736 0)
(1.02862 -0.00530861 0)
(1.0053 0.0351583 0)
(1.01851 0.0896204 0)
(1.08967 0.117986 0)
(1.13108 0.0805048 0)
(1.16264 0.0530025 0)
(1.14657 0.00139604 0)
(1.12994 -0.0132868 0)
(1.07049 -0.00570281 0)
(1.06974 0.0472811 0)
(1.09773 0.0951017 0)
(1.15824 0.0816767 0)
(1.17501 0.0186681 0)
(1.09016 0.0305848 0)
(1.09216 0.0289621 0)
(1.09349 0.0268996 0)
(1.09368 0.0252464 0)
(1.09336 0.0232015 0)
(1.09244 0.0218755 0)
(1.09174 0.0200658 0)
(1.0908 0.0192275 0)
(1.09032 0.017685 0)
(1.08959 0.0174541 0)
(1.08935 0.0161174 0)
(1.08885 0.0165918 0)
(1.08914 0.0152347 0)
(1.08904 0.0162044 0)
(1.09022 0.014389 0)
(1.09056 0.0150873 0)
(1.0923 0.0121891 0)
(1.09278 0.0116391 0)
(1.09376 0.00693012 0)
(1.0926 0.00517233 0)
(1.09113 -2.82397e-05 0)
(1.08598 -0.00103765 0)
(1.08069 -0.00357277 0)
(1.07116 3.60034e-05 0)
(1.06721 0.00543136 0)
(1.05339 0.0105911 0)
(1.04664 0.0383506 0)
(1.05363 0.0643945 0)
(1.09818 0.0873138 0)
(1.12155 0.061198 0)
(1.14788 0.0497564 0)
(1.13675 0.0117935 0)
(1.13145 0.00639387 0)