/*--------------------------------*- C++ -*----------------------------------*\
| =========                 |                                                 |
| \\      /  F ield         | OpenFOAM: The Open Source CFD Toolbox           |
|  \\    /   O peration     | Version:  2512                                  |
|   \\  /    A nd           | Website:  www.openfoam.com                      |
|    \\/     M anipulation  |                                                 |
\*---------------------------------------------------------------------------*/
FoamFile
{
    version     2.0;
    format      ascii;
    arch        "LSB;label=32;scalar=64";
    class       volScalarField;
    location    "94";
    object      p;
}
// * * * * * * * * * * * * * * * * * * * * * * * * * * * * * * * * * * * * * //

dimensions      [0 2 -2 0 0 0 0];

internalField   nonuniform List<scalar> 
9800
(
0.0479261
0.0477994
0.0475584
0.0472151
0.046781
0.0462666
0.0456814
0.045034
0.0443325
0.0435847
0.0427979
0.0419791
0.041135
0.0402718
0.0393958
0.0385127
0.0376282
0.0367471
0.0358741
0.0350133
0.0341685
0.0333428
0.0325391
0.0317595
0.0310061
0.0302802
0.0295829
0.028915
0.028277
0.0276689
0.0270907
0.026542
0.0260223
0.0255311
0.0250676
0.0246308
0.0242199
0.0238339
0.0234717
0.0231321
0.0480529
0.0479264
0.0476856
0.0473427
0.0469088
0.0463944
0.0458088
0.0451605
0.0444574
0.0437072
0.0429172
0.0420943
0.0412449
0.0403755
0.0394923
0.0386012
0.0377076
0.0368167
0.035933
0.035061
0.0342044
0.0333666
0.0325504
0.0317583
0.0309922
0.0302537
0.029544
0.028864
0.0282142
0.0275947
0.0270055
0.0264464
0.0259169
0.0254164
0.0249442
0.0244993
0.024081
0.023688
0.0233195
0.0229742
0.0482932
0.0481671
0.0479269
0.0475847
0.0471514
0.0466372
0.0460511
0.0454014
0.0446957
0.0439414
0.0431455
0.0423149
0.041456
0.0405752
0.0396786
0.0387722
0.0378616
0.036952
0.0360483
0.0351548
0.0342758
0.0334146
0.0325746
0.0317582
0.0309677
0.0302049
0.0294712
0.0287676
0.0280949
0.0274532
0.0268428
0.0262635
0.0257148
0.0251962
0.024707
0.0242463
0.0238133
0.0234068
0.0230259
0.0226693
0.0486344
0.048509
0.04827
0.0479291
0.0474971
0.0469837
0.0463976
0.0457466
0.0450378
0.0442783
0.043475
0.0426342
0.0417624
0.0408659
0.0399507
0.039023
0.0380884
0.0371523
0.0362198
0.0352957
0.0343843
0.0334895
0.0326148
0.0317631
0.030937
0.0301386
0.0293696
0.0286314
0.0279248
0.0272505
0.0266087
0.0259993
0.025422
0.0248765
0.024362
0.0238777
0.0234228
0.0229961
0.0225967
0.0222232
0.0490646
0.0489403
0.0487032
0.0483647
0.0479352
0.0474239
0.0468389
0.0461873
0.0454758
0.0447111
0.0438995
0.0430471
0.0421601
0.0412447
0.0403068
0.0393527
0.0383882
0.0374189
0.0364501
0.0354869
0.0345339
0.0335957
0.032676
0.0317783
0.0309056
0.0300605
0.0292451
0.028461
0.0277097
0.0269918
0.026308
0.0256585
0.0250431
0.0244614
0.0239129
0.0233969
0.0229125
0.0224586
0.0220342
0.0216379
0.0495727
0.0494501
0.0492159
0.0488812
0.0484558
0.0479484
0.0473662
0.0467157
0.0460029
0.0452338
0.0444141
0.0435498
0.0426465
0.0417102
0.0407469
0.0397626
0.0387633
0.037755
0.0367431
0.0357331
0.0347302
0.0337392
0.0327647
0.0318105
0.0308804
0.0299773
0.029104
0.0282626
0.027455
0.0266824
0.0259456
0.0252452
0.0245812
0.0239535
0.0233617
0.0228051
0.0222829
0.0217942
0.0213376
0.0209121
0.0501482
0.0500279
0.0497979
0.0494687
0.0490496
0.0485484
0.0479716
0.0473246
0.0466127
0.0458411
0.0450149
0.0441395
0.0432201
0.0422623
0.0412718
0.0402548
0.0392173
0.0381653
0.0371046
0.036041
0.0349803
0.0339279
0.0328889
0.031868
0.0308694
0.0298969
0.0289539
0.0280432
0.0271671
0.0263276
0.0255259
0.0247629
0.024039
0.0233544
0.0227089
0.0221019
0.0215328
0.0210005
0.020504
0.0200418
0.0507809
0.0506638
0.0504394
0.0501179
0.0497078
0.0492158
0.0486475
0.0480073
0.0472996
0.0465284
0.0456983
0.0448139
0.0438799
0.0429014
0.0418837
0.0408328
0.0397548
0.0386556
0.0375415
0.0364185
0.0352929
0.0341709
0.0330583
0.0319604
0.0308822
0.0298285
0.0288034
0.0278106
0.0268532
0.0259337
0.0250539
0.0242154
0.0234191
0.0226654
0.0219545
0.021286
0.0206594
0.0200738
0.0195281
0.019021
0.0514615
0.0513484
0.0511314
0.05082
0.0504217
0.0499425
0.0493865
0.0487573
0.0480578
0.0472911
0.0464609
0.0455711
0.0446255
0.0436284
0.0425848
0.0415005
0.0403812
0.039233
0.038062
0.0368748
0.0356783
0.0344792
0.0332841
0.0320991
0.0309302
0.0297831
0.028663
0.0275745
0.0265217
0.0255078
0.0245355
0.0236071
0.0227241
0.0218876
0.0210979
0.0203552
0.019659
0.0190087
0.0184032
0.0178413
0.0521809
0.0520728
0.0518651
0.0515664
0.0511834
0.0507206
0.0501815
0.049568
0.0488817
0.0481246
0.0472995
0.046409
0.0454561
0.0444442
0.0433779
0.0422623
0.0411027
0.0399048
0.038675
0.0374201
0.0361477
0.034865
0.0335791
0.0322973
0.0310264
0.0297735
0.0285449
0.0273463
0.0261827
0.0250586
0.0239778
0.0229434
0.0219577
0.0210225
0.0201388
0.019307
0.0185272
0.0177988
0.0171212
0.016493
0.0529307
0.0528287
0.0526321
0.052349
0.0519847
0.0515428
0.0510253
0.0504329
0.0497655
0.0490241
0.0482104
0.0473255
0.0463709
0.0453496
0.0442654
0.0431225
0.0419253
0.040679
0.0393901
0.0380658
0.0367139
0.035342
0.033958
0.0325699
0.0311861
0.0298147
0.0284634
0.0271393
0.0258485
0.024597
0.0233897
0.022231
0.0211244
0.0200725
0.0190771
0.0181391
0.0172591
0.0164371
0.0156725
0.0149643
0.0537029
0.0536079
0.0534247
0.0531599
0.052818
0.0524014
0.0519109
0.0513451
0.050703
0.0499845
0.0491896
0.0483175
0.0473686
0.046345
0.0452496
0.0440853
0.0428551
0.0415637
0.0402175
0.0388239
0.0373906
0.0359254
0.0344368
0.0329341
0.0314267
0.0299242
0.0284357
0.0269697
0.0255339
0.0241359
0.0227824
0.0214791
0.0202308
0.0190415
0.0179137
0.0168495
0.0158501
0.014916
0.0140471
0.0132426
0.0544901
0.0544032
0.0542352
0.0539917
0.0536758
0.0532894
0.052831
0.0522977
0.0516877
0.0510002
0.0502325
0.0493817
0.0484471
0.0474301
0.0463321
0.0451541
0.0438976
0.0425666
0.0411674
0.0397068
0.0381922
0.0366313
0.0350334
0.0334086
0.0317679
0.030122
0.0284815
0.0268565
0.0252567
0.0236916
0.0221699
0.020699
0.0192856
0.0179349
0.016651
0.0154372
0.0142957
0.0132276
0.0122336
0.0113134
0.0552852
0.0552075
0.0550568
0.0548372
0.0545512
0.0541997
0.0537785
0.0532835
0.0527133
0.0520651
0.0513335
0.0505134
0.0496033
0.0486037
0.0475136
0.0463315
0.0450575
0.0436951
0.0422497
0.0407271
0.0391336
0.0374769
0.0357669
0.0340145
0.0322319
0.0304309
0.0286237
0.0268221
0.0250382
0.0232838
0.0215696
0.0199056
0.0183003
0.0167609
0.0152934
0.0139027
0.0125923
0.0113645
0.0102207
0.00916135
0.0560819
0.0560145
0.0558828
0.0556896
0.0554376
0.0551254
0.054746
0.0542955
0.0537728
0.0531728
0.0524864
0.0517072
0.0508335
0.0498636
0.0487934
0.0476187
0.0463386
0.0449558
0.0434739
0.0418969
0.0402299
0.0384801
0.0366578
0.0347746
0.0328431
0.0308766
0.0288883
0.0268926
0.0249038
0.0229362
0.0210033
0.0191176
0.0172902
0.0155308
0.0138479
0.0122485
0.0107378
0.00931965
0.00799667
0.0067702
0.0568744
0.0568183
0.0567071
0.0565428
0.0563289
0.0560597
0.0557261
0.0553264
0.0548595
0.0543159
0.0536838
0.0529569
0.0521326
0.051206
0.0501691
0.0490155
0.0477434
0.0463538
0.0448481
0.0432276
0.0414957
0.0396591
0.0377276
0.0357131
0.0336284
0.0314874
0.0293052
0.0270981
0.024883
0.0226772
0.0204972
0.0183584
0.016275
0.0142601
0.0123252
0.0104799
0.00873192
0.0070872
0.00554991
0.00412282
0.0576576
0.0576137
0.0575239
0.0573915
0.0572193
0.0569956
0.0567116
0.0563697
0.0559661
0.0554867
0.0549183
0.0542556
0.0534944
0.0526254
0.0516368
0.0505202
0.0492726
0.047893
0.0463791
0.0447293
0.042945
0.0410318
0.0389983
0.0368556
0.0346163
0.0322948
0.0299075
0.027473
0.0250107
0.0225408
0.0200831
0.0176567
0.0152797
0.0129691
0.01074
0.0086057
0.00657717
0.00466295
0.00286952
0.0012016
0.0584268
0.0583956
0.0583283
0.0582311
0.0581034
0.0579264
0.0576961
0.0574186
0.057085
0.0566769
0.056182
0.0555958
0.0549113
0.0541146
0.0531903
0.0521287
0.0509251
0.0495747
0.0480713
0.0464102
0.0445904
0.0426153
0.0404915
0.0382282
0.0358371
0.0333327
0.0307323
0.0280564
0.0253267
0.0225666
0.0197993
0.0170481
0.0143359
0.0116841
0.00911272
0.0066395
0.00427949
0.002045
-5.43917e-05
-0.0020113
0.0591778
0.0591597
0.0591161
0.059058
0.0589756
0.0588454
0.0586737
0.0584665
0.0582083
0.0578784
0.0574669
0.0569692
0.0563745
0.0556646
0.0548219
0.0538352
0.0526969
0.0513977
0.049927
0.0482766
0.0464426
0.0444253
0.042228
0.0398571
0.0373223
0.0346374
0.0318201
0.0288918
0.0258766
0.0228006
0.0196909
0.0165755
0.0134824
0.0104388
0.00747037
0.00460043
0.00184943
-0.000765318
-0.00323005
-0.00553376
0.0599068
0.0599022
0.0598846
0.0598689
0.0598301
0.0597472
0.059639
0.0595066
0.059328
0.0590833
0.0587649
0.058367
0.0578743
0.0572656
0.0565221
0.0556312
0.0545813
0.0533577
0.051945
0.0503316
0.0485097
0.0464751
0.044227
0.0417676
0.0391036
0.0362469
0.0332142
0.0300273
0.0267117
0.0232959
0.0198111
0.0162902
0.012767
0.00927542
0.00584788
0.00251475
-0.00069667
-0.00376259
-0.0066634
-0.00938323
0.06061
0.0606203
0.060632
0.0606606
0.0606612
0.0606271
0.0605872
0.060532
0.0604372
0.0602842
0.0600677
0.0597792
0.0593998
0.0589066
0.0582802
0.0575062
0.0565686
0.0554469
0.0541211
0.052575
0.0507961
0.048775
0.046505
0.0439834
0.0412123
0.0381999
0.0349607
0.0315152
0.0278892
0.0241132
0.020222
0.0162534
0.0122478
0.00824635
0.00428985
0.000417214
-0.00333553
-0.0069362
-0.0103574
-0.0135765
0.0612838
0.0613124
0.0613576
0.0614293
0.0614635
0.0614819
0.061513
0.0615364
0.0615295
0.0614737
0.0613664
0.0611955
0.0609399
0.0605763
0.0600842
0.0594479
0.0586463
0.0576541
0.0564466
0.0550021
0.0533022
0.051331
0.0490752
0.0465255
0.0436779
0.0405351
0.0371071
0.0334112
0.0294721
0.0253209
0.020995
0.0165372
0.0119943
0.00741598
0.00285242
-0.00164691
-0.00603505
-0.010269
-0.0143111
-0.0181297
0.0619246
0.0619786
0.062061
0.0621707
0.0622329
0.062309
0.062411
0.062515
0.0625993
0.0626447
0.0626527
0.0626056
0.0624834
0.0622621
0.0619208
0.0614421
0.0607999
0.0599653
0.058909
0.0576034
0.0560229
0.0541439
0.0519457
0.0494107
0.0465269
0.0432895
0.0397013
0.035774
0.0315286
0.026995
0.0222119
0.0172258
0.01209
0.00686286
0.00160565
-0.00361962
-0.00875245
-0.013736
-0.0185192
-0.0230579
0.0625294
0.06262
0.0627408
0.0628803
0.062967
0.0631065
0.0632763
0.0634644
0.063641
0.0637903
0.0639178
0.0639991
0.0640192
0.0639515
0.0637759
0.0634732
0.0630127
0.0623635
0.0614916
0.060364
0.0589471
0.0572087
0.0551186
0.0526501
0.0497812
0.0464968
0.04279
0.0386635
0.0341314
0.0292195
0.023965
0.0184167
0.0126334
0.00668209
0.000636207
-0.00542749
-0.0114319
-0.0173025
-0.0229707
-0.0283755
0.063097
0.063238
0.0633938
0.0635545
0.0636644
0.0638725
0.0641052
0.0643826
0.0646481
0.0649049
0.0651534
0.0653666
0.0655367
0.0656311
0.0656347
0.0655243
0.0652664
0.0648298
0.0641745
0.0632644
0.0620572
0.0605126
0.0585887
0.0562477
0.0534559
0.0501856
0.0464166
0.0421391
0.0373563
0.0320851
0.0263578
0.0202223
0.0137407
0.00698821
5.06465e-05
-0.00697828
-0.0140013
-0.0209218
-0.0276479
-0.0340963
0.063629
0.0638334
0.0640145
0.0641906
0.064325
0.0646058
0.0648952
0.0652679
0.0656141
0.0659845
0.0663507
0.0667005
0.0670249
0.0672886
0.0674824
0.0675779
0.0675416
0.0673427
0.0669347
0.0662815
0.06533
0.0640354
0.0623412
0.0601985
0.0575576
0.0543766
0.0506185
0.0462571
0.0412794
0.0356878
0.0295042
0.0227704
0.0155484
0.00791889
-2.01136e-05
-0.0081564
-0.0163688
-0.0245328
-0.0325261
-0.0402353
0.0641296
0.0644042
0.0645967
0.0647882
0.0649492
0.0653057
0.0656448
0.0661181
0.0665331
0.0670264
0.0675005
0.0679956
0.0684723
0.0689128
0.0693036
0.0696165
0.0698179
0.0698792
0.0697463
0.0693885
0.0687367
0.0677501
0.0663509
0.0644865
0.0620813
0.0590811
0.0554247
0.0510681
0.0459747
0.0401265
0.0335271
0.0262048
0.0182148
0.00963893
0.000584893
-0.00881644
-0.0184165
-0.0280556
-0.0375721
-0.0468111
0.0646052
0.0649453
0.0651363
0.0653478
0.0655385
0.0659709
0.0663537
0.0669298
0.0674016
0.0680278
0.0685948
0.069248
0.0698661
0.0704954
0.0710814
0.0716244
0.0720734
0.0724158
0.0725809
0.0725554
0.0722433
0.0716243
0.0705832
0.0690841
0.067006
0.0642977
0.0608521
0.0566154
0.0515114
0.0455009
0.0385562
0.0306831
0.0219204
0.0123427
0.00206186
-0.00877552
-0.0199915
-0.0313842
-0.0427399
-0.0538471
0.065062
0.0654492
0.065633
0.0658701
0.0660952
0.0665995
0.067023
0.0676984
0.0682195
0.0689841
0.0696293
0.0704533
0.0711953
0.0720292
0.072798
0.0735884
0.0742839
0.07493
0.0754071
0.0757502
0.0758103
0.0756196
0.0749933
0.0739533
0.0722914
0.0700079
0.0668954
0.0629311
0.0579491
0.0519135
0.0447283
0.0363799
0.0268701
0.0162559
0.00464475
-0.00780909
-0.0209002
-0.0343789
-0.0479661
-0.0613716
0.0655053
0.0659085
0.0660894
0.0663553
0.0666226
0.0671881
0.067655
0.068418
0.0689906
0.0698878
0.0706056
0.0716032
0.0724554
0.073505
0.0744402
0.0754955
0.0764264
0.0774008
0.0781909
0.0789403
0.0793922
0.0796922
0.0795261
0.0790462
0.0778793
0.0761725
0.0735139
0.0700262
0.0653193
0.0594674
0.0521834
0.0435007
0.0333039
0.0216498
0.00861475
-0.00564747
-0.0209066
-0.0368687
-0.053175
-0.0694297
0.0659376
0.0663194
0.0665092
0.066803
0.0671242
0.0677329
0.0682532
0.0690824
0.06972
0.0707294
0.0715286
0.0726852
0.0736485
0.074908
0.0760037
0.0773281
0.0784864
0.0798039
0.0809043
0.0820905
0.082945
0.0837931
0.0841196
0.0843024
0.0836942
0.0827315
0.0806334
0.0778741
0.0735928
0.068242
0.0610266
0.0522909
0.0415064
0.028894
0.0143448
-0.00193813
-0.0197116
-0.0386495
-0.0582904
-0.0781125
0.0663588
0.0666826
0.0668962
0.0672135
0.0676015
0.0682319
0.0688198
0.0696884
0.070412
0.0715016
0.072404
0.0736868
0.0747796
0.0762205
0.0774905
0.0790618
0.0804594
0.0821066
0.083532
0.0851551
0.0864377
0.087859
0.0887234
0.0896407
0.0896637
0.0895974
0.0881629
0.0864005
0.0826795
0.0782502
0.0712482
0.0629771
0.0517158
0.0385103
0.0223511
0.00388848
-0.016856
-0.0394242
-0.0632057
-0.0875839
0.0667666
0.0670015
0.0672533
0.0675889
0.0680543
0.0686863
0.0693557
0.0702374
0.0710686
0.072203
0.0732347
0.0746019
0.0758526
0.0774298
0.0789032
0.0806755
0.0823441
0.0842747
0.0860657
0.0880811
0.0898515
0.0918097
0.0933046
0.0949463
0.0957399
0.0966227
0.0960428
0.0954555
0.0925096
0.0893816
0.0827635
0.0756402
0.0639251
0.0510393
0.0330646
0.0128209
-0.0116123
-0.0386105
-0.0676841
-0.0980896
0.0671562
0.0672823
0.0675829
0.0679326
0.0684802
0.0690995
0.0698582
0.0707343
0.0716871
0.0728384
0.0740187
0.0754338
0.0768657
0.0785361
0.080239
0.0821627
0.0841342
0.0862908
0.0884927
0.090832
0.0931639
0.0955776
0.0978297
0.100103
0.101881
0.103621
0.104238
0.10478
0.103106
0.101363
0.0956539
0.0900523
0.0781179
0.0665748
0.0464125
0.0260681
-0.00341626
-0.0349075
-0.0714187
-0.109992
0.067522
0.0675326
0.0678874
0.0682479
0.0688765
0.0694759
0.0703244
0.0711857
0.0722631
0.0734155
0.0747493
0.0761907
0.0778105
0.0795472
0.0814866
0.0835296
0.0858124
0.0881563
0.0907851
0.0933996
0.0963301
0.0991349
0.10223
0.105047
0.108001
0.110473
0.112669
0.114153
0.11446
0.113863
0.110229
0.105825
0.0949691
0.0846639
0.062564
0.0435236
0.00745724
-0.0255076
-0.0746066
-0.123378
0.0678598
0.067759
0.0681697
0.0685379
0.0692411
0.0698196
0.0707518
0.0715982
0.072792
0.0739424
0.0754199
0.0768816
0.0786785
0.0804716
0.0826354
0.0847832
0.0873637
0.0898758
0.0929176
0.0957832
0.0993053
0.102469
0.10643
0.109739
0.113969
0.117093
0.121151
0.12346
0.126375
0.126742
0.126459
0.122791
0.115573
0.10508
0.0838955
0.0641175
0.021575
-0.0103106
-0.0785391
-0.135257
0.0681681
0.0679673
0.068431
0.0688047
0.0695734
0.0701347
0.0711403
0.0719772
0.0732717
0.0744254
0.0760264
0.0775144
0.0794623
0.081318
0.0836729
0.0859327
0.0887669
0.0914589
0.0948531
0.097993
0.102023
0.105591
0.110308
0.114195
0.119582
0.123495
0.129375
0.132655
0.138466
0.139767
0.143983
0.140832
0.139873
0.128588
0.113855
0.0881093
0.0450783
0.00649455
-0.082297
-0.138932
0.0684471
0.068161
0.0686725
0.0690503
0.0698743
0.0704241
0.0714913
0.0723259
0.0737034
0.074868
0.0765704
0.0780923
0.0801633
0.0820895
0.0845993
0.0869806
0.0900195
0.0929058
0.0965825
0.100025
0.104458
0.108492
0.113801
0.118402
0.124683
0.129674
0.136943
0.141782
0.149864
0.153185
0.161443
0.1602
0.166728
0.154637
0.152993
0.119836
0.088609
0.0235418
-0.0745354
-0.141902
0.0686982
0.0683423
0.0688947
0.0692763
0.0701454
0.0706901
0.0718061
0.0726464
0.0740885
0.0752724
0.0770537
0.0786169
0.0807848
0.0827863
0.0854191
0.0879243
0.0911269
0.0942086
0.0981124
0.101859
0.106618
0.111129
0.116915
0.122271
0.129263
0.13547
0.143806
0.150625
0.160321
0.16685
0.17764
0.181216
0.192334
0.185872
0.195488
0.160706
0.15695
0.0509022
-0.0379571
-0.227691
0.068923
0.0685119
0.0690984
0.0694837
0.0703884
0.0709339
0.0720866
0.0729397
0.0744291
0.0756398
0.077479
0.0790893
0.08133
0.0834092
0.0861362
0.0887631
0.0920941
0.0953626
0.0994483
0.103482
0.108508
0.113463
0.119652
0.125713
0.133325
0.140675
0.149977
0.158709
0.169885
0.179763
0.192693
0.202471
0.216335
0.221604
0.23447
0.219272
0.229511
0.130709
0.0932468
-0.413544
0.0228223
0.0225348
0.0222562
0.0219868
0.0217267
0.021476
0.021235
0.0210038
0.0207824
0.0205712
0.0226593
0.0223672
0.0220844
0.0218111
0.0215475
0.0212937
0.0210499
0.0208163
0.0205929
0.0203801
0.0223444
0.0220434
0.0217524
0.0214714
0.0212009
0.0209409
0.0206917
0.0204534
0.0202262
0.0200102
0.0218834
0.0215691
0.0212657
0.0209734
0.0206925
0.0204233
0.020166
0.0199208
0.0196877
0.0194672
0.021278
0.0209456
0.0206255
0.0203178
0.0200231
0.0197414
0.0194732
0.0192185
0.0189778
0.018751
0.0205263
0.0201708
0.0198291
0.0195017
0.0191891
0.0188914
0.0186092
0.0183425
0.0180918
0.0178573
0.0196236
0.0192391
0.0188705
0.0185185
0.0181834
0.0178658
0.017566
0.0172845
0.0170214
0.0167773
0.0185629
0.0181427
0.0177409
0.0173584
0.0169957
0.0166535
0.0163322
0.0160323
0.0157542
0.0154984
0.0173347
0.0168708
0.0164285
0.0160088
0.0156124
0.0152402
0.0148926
0.0145704
0.014274
0.0140041
0.0159274
0.0154106
0.0149191
0.0144541
0.0140167
0.0136079
0.0132285
0.0128793
0.0125609
0.012274
0.0143276
0.0137467
0.0131955
0.0126756
0.0121886
0.0117355
0.0113174
0.0109355
0.0105905
0.0102833
0.0125199
0.0118616
0.0112381
0.0106518
0.0101044
0.00959763
0.00913275
0.00871122
0.00833412
0.00800259
0.0104871
0.00973524
0.00902437
0.00835756
0.00773711
0.00716515
0.00664349
0.00617398
0.00575808
0.00539725
0.00821032
0.00734541
0.00652879
0.0057644
0.00505529
0.00440422
0.0038136
0.00328584
0.0028229
0.00242669
0.00566879
0.00466734
0.0037227
0.00283998
0.00202318
0.00127594
0.000601424
2.83089e-06
-0.000517267
-0.000956357
0.0028402
0.00167376
0.000574046
-0.000452299
-0.00140001
-0.00226432
-0.00304103
-0.00372594
-0.00431565
-0.00480686
-0.00029936
-0.00166523
-0.00295291
-0.00415372
-0.00526073
-0.00626768
-0.00716905
-0.00795931
-0.00863396
-0.00918868
-0.00377539
-0.00538241
-0.00689802
-0.00831087
-0.00961186
-0.0107928
-0.0118463
-0.0127653
-0.0135437
-0.014176
-0.00761496
-0.00951365
-0.0113058
-0.0129765
-0.0145138
-0.015907
-0.0171464
-0.0182227
-0.0191279
-0.0198549
-0.0118467
-0.0140983
-0.016226
-0.0182104
-0.0200357
-0.021688
-0.0231544
-0.024423
-0.0254831
-0.0263257
-0.0165009
-0.0191797
-0.0217148
-0.0240809
-0.0262573
-0.0282256
-0.0299692
-0.0314725
-0.0327218
-0.0337053
-0.0216102
-0.0248063
-0.0278362
-0.0306668
-0.0332709
-0.0356246
-0.0377061
-0.0394953
-0.0409749
-0.0421301
-0.0272099
-0.0310328
-0.0346639
-0.0380599
-0.0411848
-0.0440074
-0.0464998
-0.0486362
-0.0503948
-0.0517573
-0.0333394
-0.0379232
-0.0422854
-0.0463693
-0.0501278
-0.05352
-0.0565098
-0.0590651
-0.0611586
-0.0627684
-0.0400442
-0.0455533
-0.0508061
-0.0557276
-0.0602557
-0.0643374
-0.0679269
-0.0709838
-0.0734753
-0.0753752
-0.0473793
-0.0540168
-0.0603565
-0.0662983
-0.0717602
-0.0766734
-0.0809801
-0.0846318
-0.0875912
-0.0898304
-0.0554153
-0.063434
-0.0711035
-0.078289
-0.0848813
-0.090791
-0.0959468
-0.100292
-0.103788
-0.10641
-0.0642463
-0.0739664
-0.0832696
-0.0919724
-0.0999277
-0.107021
-0.113164
-0.118299
-0.122391
-0.125424
-0.0739982
-0.0858333
-0.0971576
-0.107716
-0.117308
-0.125785
-0.13305
-0.139045
-0.14376
-0.147206
-0.0848479
-0.09934
-0.113186
-0.126021
-0.137567
-0.147634
-0.156117
-0.16299
-0.168289
-0.172089
-0.0970744
-0.114944
-0.131963
-0.147597
-0.161448
-0.173272
-0.182986
-0.190642
-0.196385
-0.200402
-0.111124
-0.133358
-0.154434
-0.173518
-0.19001
-0.203625
-0.214376
-0.222509
-0.228386
-0.232366
-0.127621
-0.155648
-0.182085
-0.20545
-0.224812
-0.239948
-0.251172
-0.259125
-0.264527
-0.268005
-0.147398
-0.183454
-0.217189
-0.245742
-0.267882
-0.283758
-0.294395
-0.301097
-0.305018
-0.307174
-0.17216
-0.220235
-0.26327
-0.297163
-0.321159
-0.33629
-0.344602
-0.348389
-0.349536
-0.349422
-0.208299
-0.275615
-0.327522
-0.364168
-0.387322
-0.39902
-0.402012
-0.399971
-0.39622
-0.392792
-0.271457
-0.36519
-0.424007
-0.458146
-0.47403
-0.475573
-0.467733
-0.455164
-0.441611
-0.430087
-0.362279
-0.482352
-0.55721
-0.586627
-0.582066
-0.563471
-0.539665
-0.513812
-0.48757
-0.464636
-0.478443
-0.565191
-0.702755
-0.740083
-0.689383
-0.627738
-0.575127
-0.531404
-0.495434
-0.466093
-1.05763
-0.678314
-0.756702
-0.760079
-0.724753
-0.663259
-0.60005
-0.544777
-0.501382
-0.471504
0.0203586
0.0201448
0.0199394
0.0197433
0.0195574
0.0193825
0.0192197
0.0190698
0.0189336
0.018812
0.0187058
0.0186157
0.0185423
0.0184863
0.0184478
0.0184275
0.0184253
0.0184413
0.0184752
0.0185269
0.0185955
0.0186806
0.0187807
0.018895
0.0190215
0.019159
0.0193046
0.0194567
0.0196122
0.0197692
0.0199234
0.0200725
0.0202115
0.0203379
0.020446
0.0205327
0.0205918
0.0206199
0.0206096
0.0205573
0.0204546
0.0202973
0.0200766
0.0197876
0.0194211
0.0189719
0.0184311
0.0177936
0.0170509
0.0161995
0.0152315
0.0141458
0.0129354
0.0116027
0.0101419
0.00855964
0.00685223
0.00503044
0.0030936
0.00105287
0.0201663
0.0199516
0.0197459
0.0195501
0.019365
0.0191917
0.0190309
0.0188839
0.0187512
0.0186339
0.0185327
0.0184485
0.0183816
0.0183328
0.0183023
0.0182907
0.0182977
0.0183237
0.0183681
0.0184308
0.0185107
0.0186075
0.0187196
0.0188461
0.0189848
0.0191343
0.019292
0.0194562
0.0196236
0.019792
0.0199573
0.0201171
0.0202665
0.0204028
0.0205204
0.0206163
0.0206837
0.0207198
0.0207171
0.0206719
0.0205757
0.0204242
0.0202086
0.0199238
0.0195607
0.0191138
0.018574
0.0179362
0.0171919
0.0163375
0.0153648
0.0142732
0.0130551
0.0117132
0.0102412
0.00864606
0.00692311
0.00508391
0.00312699
0.00106456
0.019794
0.0195778
0.0193715
0.0191762
0.0189928
0.0188225
0.018666
0.0185245
0.0183989
0.01829
0.0181987
0.0181258
0.0180717
0.0180372
0.0180224
0.0180277
0.018053
0.0180984
0.0181633
0.0182473
0.0183494
0.0184689
0.0186042
0.0187542
0.0189166
0.0190894
0.0192702
0.0194574
0.0196472
0.0198375
0.0200239
0.020204
0.0203729
0.0205281
0.0206635
0.0207764
0.02086
0.0209112
0.0209227
0.0208909
0.0208069
0.0206666
0.0204606
0.0201841
0.0198274
0.0193848
0.0188472
0.0182088
0.0174614
0.016601
0.0156197
0.0145166
0.0132841
0.0119248
0.0104317
0.00881208
0.00705986
0.00518745
0.0031921
0.00108729
0.0192473
0.0190288
0.0188218
0.0186275
0.0184467
0.0182809
0.0181309
0.017998
0.017883
0.017787
0.0177106
0.0176549
0.0176201
0.017607
0.0176157
0.0176465
0.017699
0.0177733
0.0178685
0.0179842
0.0181191
0.0182721
0.0184414
0.0186256
0.0188218
0.0190288
0.0192434
0.0194637
0.0196858
0.0199072
0.0201236
0.0203327
0.0205292
0.0207108
0.0208713
0.0210085
0.0211145
0.0211871
0.0212188
0.0212059
0.0211394
0.021015
0.0208231
0.0205585
0.0202111
0.0197748
0.0192403
0.0186009
0.0178492
0.0169803
0.0159865
0.0148673
0.0136143
0.0122304
0.0107076
0.00905323
0.00725919
0.00533894
0.00328764
0.00112071
0.0185264
0.018305
0.0180971
0.0179041
0.0177273
0.0175678
0.0174269
0.0173057
0.0172054
0.0171269
0.0170711
0.0170388
0.0170304
0.0170465
0.017087
0.0171522
0.0172415
0.0173547
0.0174907
0.0176486
0.0178269
0.0180244
0.0182387
0.0184677
0.0187084
0.0189594
0.0192176
0.0194802
0.0197432
0.0200042
0.0202584
0.0205039
0.0207349
0.0209497
0.0211415
0.0213085
0.0214426
0.0215423
0.0215991
0.0216101
0.0215659
0.0214618
0.0212879
0.0210387
0.0207035
0.0202754
0.0197451
0.0191046
0.0183471
0.0174671
0.0164573
0.0153179
0.0140392
0.0126247
0.011065
0.00936682
0.00751953
0.00553749
0.00341327
0.00116499
0.0176267
0.0174016
0.0171928
0.017002
0.0168303
0.0166794
0.0165505
0.016445
0.0163639
0.0163085
0.0162795
0.0162778
0.0163036
0.0163575
0.0164393
0.0165488
0.0166853
0.0168481
0.0170359
0.0172473
0.0174805
0.0177336
0.0180038
0.0182875
0.0185831
0.0188884
0.0191993
0.0195128
0.0198246
0.0201324
0.0204313
0.0207194
0.0209907
0.0212439
0.0214718
0.0216734
0.0218406
0.0219719
0.0220582
0.0220972
0.0220795
0.0219999
0.0218483
0.0216179
0.0212978
0.0208799
0.0203547
0.0197126
0.0189483
0.0180545
0.0170252
0.0158624
0.0145533
0.0131036
0.0115011
0.00975179
0.00784105
0.00578382
0.00357
0.00122075
0.0165394
0.0163099
0.0161004
0.0159125
0.0157478
0.015608
0.0154947
0.0154094
0.0153531
0.0153272
0.0153324
0.0153696
0.0154389
0.0155405
0.015674
0.015839
0.0160343
0.0162588
0.0165106
0.0167876
0.0170877
0.0174077
0.0177438
0.0180941
0.0184555
0.0188244
0.0191964
0.0195684
0.019936
0.020297
0.020646
0.0209816
0.0212976
0.0215934
0.021861
0.022101
0.0223044
0.0224709
0.0225905
0.0226614
0.0226742
0.0226229
0.0224978
0.0222899
0.0219883
0.0215827
0.0210637
0.0204192
0.0196467
0.0187363
0.0176843
0.0164954
0.0151519
0.0136643
0.0120146
0.0102085
0.00822522
0.00608025
0.00376043
0.00128921
0.0152517
0.0150172
0.0148071
0.0146233
0.0144678
0.0143425
0.0142491
0.0141894
0.0141645
0.0141759
0.0142241
0.0143099
0.0144334
0.0145943
0.014792
0.0150254
0.0152929
0.0155926
0.015922
0.0162783
0.0166583
0.0170576
0.0174719
0.0178996
0.0183363
0.0187774
0.019218
0.0196553
0.0200846
0.0205035
0.0209068
0.0212933
0.0216569
0.0219978
0.0223074
0.0225884
0.0228302
0.0230354
0.0231909
0.023297
0.0233436
0.0233246
0.0232304
0.0230487
0.0227699
0.0223791
0.0218678
0.0212197
0.0204374
0.0195061
0.0184283
0.0172114
0.0158306
0.0143045
0.0126052
0.0107387
0.00867451
0.00643075
0.00398889
0.00137215
0.013747
0.0135068
0.0132964
0.0131183
0.0129747
0.0128679
0.0127998
0.0127723
0.0127869
0.0128448
0.0129466
0.013093
0.0132834
0.0135174
0.0137938
0.0141106
0.0144658
0.0148562
0.0152786
0.015729
0.0162023
0.0166932
0.0171994
0.017716
0.0182375
0.0187586
0.0192747
0.019783
0.0202781
0.0207583
0.021218
0.0216573
0.0220697
0.0224566
0.0228093
0.0231323
0.0234134
0.0236591
0.0238536
0.0239971
0.0240802
0.0240982
0.02404
0.0238891
0.023638
0.023265
0.022763
0.0221101
0.021316
0.0203579
0.019251
0.0180044
0.0165844
0.0150221
0.0132738
0.0113464
0.00919293
0.00684172
0.00426087
0.00147161
0.0120045
0.0117578
0.0115477
0.0113773
0.011249
0.0111657
0.0111294
0.0111425
0.0112063
0.0113221
0.0114904
0.0117114
0.0119842
0.0123079
0.01268
0.0130981
0.013559
0.0140579
0.0145909
0.0151515
0.0157342
0.0163316
0.0169422
0.0175581
0.018173
0.0187812
0.0193786
0.0199617
0.0205251
0.0210678
0.0215842
0.022076
0.0225365
0.0229685
0.0233638
0.0237285
0.0240483
0.0243332
0.024561
0.0247521
0.0248758
0.0249365
0.0249197
0.0248055
0.0245888
0.0242371
0.023746
0.023086
0.0222769
0.0212843
0.0201454
0.0188674
0.0174081
0.0158149
0.0140222
0.012036
0.009787
0.00732373
0.00458247
0.00158959
0.00999921
0.00974511
0.00953606
0.00937569
0.00926703
0.00921342
0.00921717
0.00928091
0.00940588
0.00959356
0.00984395
0.0101568
0.0105308
0.0109636
0.0114522
0.0119928
0.0125803
0.0132085
0.0138718
0.0145601
0.015268
0.0159888
0.0167174
0.0174427
0.0181592
0.0188606
0.0195431
0.0202026
0.0208341
0.0214381
0.0220092
0.0225511
0.0230569
0.0235316
0.0239675
0.0243717
0.0247299
0.0250554
0.025324
0.025558
0.0257219
0.0258316
0.0258615
0.0257919
0.0256187
0.0252933
0.0248154
0.0241453
0.0233139
0.0222751
0.0211011
0.0197908
0.0182956
0.016681
0.0148533
0.0128122
0.0104664
0.00789277
0.00496035
0.00172867
0.00770115
0.00743867
0.00723164
0.00708446
0.00700079
0.00698452
0.00703834
0.00716514
0.0073661
0.00764271
0.00799422
0.00842003
0.00891756
0.00948338
0.0101131
0.010801
0.0115399
0.0123217
0.0131377
0.013975
0.0148279
0.0156878
0.0165465
0.0173904
0.0182153
0.0190139
0.0197826
0.0205171
0.0212138
0.0218751
0.0224957
0.0230829
0.0236287
0.0241422
0.0246151
0.0250552
0.0254501
0.0258141
0.0261213
0.0264011
0.026606
0.0267731
0.0268549
0.0268419
0.026724
0.0264317
0.025971
0.025287
0.0244209
0.0233187
0.0221037
0.0207604
0.0192371
0.0176167
0.0157698
0.0136803
0.0112467
0.0085693
0.00540119
0.00189405
0.00507512
0.00480307
0.00459928
0.00446917
0.00441708
0.00444764
0.00456392
0.00476909
0.00506425
0.00545062
0.00592662
0.00649096
0.00713931
0.00786676
0.00866711
0.00953156
0.0104509
0.0114137
0.0124086
0.0134227
0.0144388
0.0154533
0.016454
0.0174252
0.0183636
0.0192603
0.0201128
0.0209173
0.0216725
0.0223832
0.023045
0.0236698
0.024248
0.0247947
0.025299
0.0257708
0.0262
0.0265981
0.0269427
0.0272669
0.0275133
0.0277471
0.0278859
0.0279472
0.0279003
0.0276512
0.0272136
0.0265105
0.0255903
0.0244006
0.0231345
0.0217582
0.0202196
0.0186151
0.0167699
0.0146455
0.0121517
0.00937859
0.00591192
0.00209592
0.00207981
0.00179672
0.00159772
0.00148945
0.00147705
0.00156615
0.00176012
0.00206252
0.00247421
0.0029959
0.00362504
0.00435902
0.00519129
0.00611503
0.00712101
0.00819657
0.0093297
0.010504
0.0117041
0.0129129
0.0141241
0.015314
0.0164698
0.0175753
0.0186289
0.0196204
0.0205499
0.0214144
0.0222168
0.0229646
0.0236556
0.0243074
0.0249082
0.0254812
0.0260099
0.0265092
0.0269686
0.0273947
0.0277753
0.0281381
0.0284257
0.0287347
0.0289351
0.029096
0.0291401
0.0289501
0.0285467
0.0278172
0.0268105
0.0255
0.0241673
0.022762
0.0212289
0.0196646
0.0178453
0.015712
0.0132116
0.0103509
0.00650367
0.0023532
-0.001333
-0.00162896
-0.00182131
-0.00190193
-0.00186465
-0.00170265
-0.00141229
-0.000989475
-0.000433919
0.000254499
0.00107177
0.00201332
0.00306984
0.0042315
0.00548502
0.00681298
0.00819982
0.00962306
0.0110642
0.0124998
0.013929
0.0153113
0.0166314
0.0178739
0.0190392
0.0201167
0.0211102
0.0220188
0.0228512
0.0236185
0.0243226
0.0249877
0.0255996
0.0261915
0.026736
0.0272592
0.0277428
0.0281915
0.0286041
0.028994
0.0293226
0.0297105
0.0299762
0.0302701
0.0304307
0.0303241
0.0299758
0.0292107
0.0280644
0.0265857
0.0251641
0.0237463
0.0222491
0.020746
0.0189804
0.0168828
0.0144552
0.011518
0.00719634
0.00269727
-0.0052195
-0.00553062
-0.0057141