/*--------------------------------*- C++ -*----------------------------------*\
| =========                 |                                                 |
| \\      /  F ield         | OpenFOAM: The Open Source CFD Toolbox           |
|  \\    /   O peration     | Version:  2312                                  |
|   \\  /    A nd           | Website:  www.openfoam.com                      |
|    \\/     M anipulation  |                                                 |
\*---------------------------------------------------------------------------*/
FoamFile
{
    version     2.0;
    format      ascii;
    arch        "LSB;label=32;scalar=64";
    class       volVectorField;
    location    "55.45";
    object      U;
}
// * * * * * * * * * * * * * * * * * * * * * * * * * * * * * * * * * * * * * //

dimensions      [0 1 -1 0 0 0 0];

internalField   nonuniform List<vector> 
5478
(
(-0.0375042 0.0236224 -7.93458e-20)
(-0.0665805 0.0390771 0)
(-0.049663 0.0396147 1.18823e-19)
(0.0291218 0.0356582 -2.07101e-19)
(0.181686 0.0315385 1.33591e-19)
(0.397255 0.031476 -4.05522e-20)
(0.642917 0.0373056 -6.77626e-20)
(0.882411 0.0460365 0)
(1.08551 0.0549804 0)
(1.23691 0.0564585 8.97801e-20)
(1.32745 0.0518236 -3.98779e-20)
(1.36122 0.03845 -6.96936e-20)
(1.35611 0.00778143 -2.8036e-20)
(1.3174 0.00277103 0)
(1.28502 -0.0611398 7.94275e-20)
(-0.0463172 0.0276936 1.59391e-19)
(-0.0573667 0.0378211 0)
(0.0109892 0.0312835 0)
(0.175914 0.0255641 -1.04672e-19)
(0.4262 0.0299419 1.37434e-19)
(0.707224 0.044471 3.88854e-20)
(0.962097 0.0628733 -6.64729e-20)
(1.15517 0.0783073 5.89389e-20)
(1.2756 0.0845981 1.46971e-19)
(1.32846 0.0804934 -1.28847e-19)
(1.33342 0.0681033 2.69455e-21)
(1.31589 0.0466095 0)
(1.29442 0.0318775 2.79886e-20)
(1.28326 0.00898946 0)
(1.28578 -0.0103423 0)
(-0.048336 0.025839 -4.64213e-22)
(-0.0236229 0.0286581 -7.50764e-20)
(0.126682 0.0225766 5.41767e-22)
(0.400599 0.0310669 0)
(0.720153 0.0554223 -4.68709e-20)
(0.996036 0.0832272 3.96267e-20)
(1.18409 0.103625 3.33192e-20)
(1.28256 0.111234 0)
(1.31361 0.106828 -4.88472e-20)
(1.30995 0.095327 4.1599e-20)
(1.2983 0.0791587 3.53568e-20)
(1.29061 0.0672904 0)
(1.28581 0.0486118 0)
(1.27787 0.0396548 -7.74565e-20)
(1.25354 0.018641 6.89774e-20)
(-0.0408777 0.0189269 -8.79673e-20)
(0.0461028 0.0132648 7.40238e-20)
(0.311133 0.02278 -6.38556e-20)
(0.671735 0.0595024 5.64634e-20)
(0.984328 0.100434 9.43073e-20)
(1.18436 0.128045 -7.91188e-20)
(1.27904 0.137976 -3.32997e-20)
(1.30639 0.134445 2.63529e-20)
(1.30586 0.12467 -2.50258e-20)
(1.2994 0.11194 0)
(1.2918 0.101014 0)
(1.27955 0.0849558 -5.14093e-20)
(1.26262 0.0739065 6.72813e-20)
(1.24091 0.0578418 -3.80776e-20)
(1.22866 0.0411069 0)
(-0.0208514 0.009321 4.45968e-20)
(0.164891 0.0025657 3.74212e-20)
(0.548827 0.04785 -1.34949e-19)
(0.920514 0.108755 1.99244e-21)
(1.15891 0.149889 -1.24774e-21)
(1.27044 0.166091 -1.34315e-21)
(1.30539 0.165469 3.19816e-20)
(1.3078 0.157283 2.71074e-20)
(1.2987 0.145819 1.99133e-20)
(1.28434 0.133882 -2.7372e-21)
(1.26697 0.118996 -4.55523e-20)
(1.25105 0.106576 0)
(1.23793 0.0924258 2.123e-20)
(1.22959 0.0784632 -1.6185e-20)
(1.21787 0.0692717 2.87197e-20)
(0.0181657 -0.000510152 -9.70834e-20)
(0.336474 0.0132512 1.04737e-19)
(0.783504 0.0985838 -3.60835e-20)
(1.09796 0.165206 2.70683e-20)
(1.25192 0.195018 -5.00223e-20)
(1.30421 0.200078 -3.73576e-20)
(1.30938 0.193371 1.07539e-21)
(1.29669 0.181727 0)
(1.27928 0.168558 4.01312e-20)
(1.26304 0.154 -3.56878e-20)
(1.25019 0.141114 1.44569e-20)
(1.23828 0.126889 0)
(1.22539 0.114363 8.92186e-21)
(1.20879 0.100908 -1.60535e-20)
(1.19279 0.0893468 0)
(0.0814876 -0.00359202 -1.21534e-20)
(0.534196 0.0570158 1.18777e-21)
(0.969711 0.163623 1.74837e-20)
(1.20701 0.22197 2.96572e-20)
(1.29527 0.238666 -2.27424e-20)
(1.30932 0.234448 3.82422e-20)
(1.29631 0.222164 -8.67156e-21)
(1.27806 0.207658 0)
(1.26118 0.192467 -2.34934e-20)
(1.24563 0.177952 1.51353e-21)
(1.22964 0.162601 1.96316e-20)
(1.21398 0.148451 0)
(1.19984 0.134265 -1.29436e-20)
(1.1893 0.120014 0)
(1.18027 0.112156 8.09076e-21)
(0.167494 0.00766479 -1.35166e-20)
(0.715143 0.126818 0)
(1.10013 0.235457 1.86805e-20)
(1.26496 0.279034 0)
(1.30484 0.282121 0)
(1.29651 0.269461 0)
(1.2767 0.252775 -7.40484e-21)
(1.25638 0.235304 0)
(1.23733 0.218019 4.72401e-21)
(1.22023 0.200627 0)
(1.20614 0.184544 -6.12444e-21)
(1.19427 0.168774 0)
(1.18309 0.154115 4.01687e-21)
(1.17081 0.140608 0)
(1.1576 0.1297 2.64506e-21)
(-0.00608786 0.0410257 -1.0632e-20)
(-0.0252151 0.119504 0)
(-0.0559422 0.170099 1.6592e-20)
(-0.0892914 0.201452 0)
(-0.121374 0.229378 0)
(-0.150233 0.261249 0)
(-0.174262 0.296741 -1.0451e-20)
(-0.191668 0.332854 0)
(-0.200405 0.365872 8.66772e-21)
(-0.198421 0.39163 0)
(-0.183837 0.405697 -1.49386e-20)
(-0.155875 0.403196 0)
(-0.114239 0.380858 1.33025e-20)
(-0.058667 0.336265 0)
(0.010276 0.26496 1.19406e-20)
(-0.00748166 0.0485752 5.27039e-20)
(-0.0246547 0.139199 -3.71089e-20)
(-0.0462708 0.199348 1.58188e-20)
(-0.0686642 0.234565 5.74209e-20)
(-0.0882424 0.260928 1.70365e-22)
(-0.102107 0.287613 -4.57142e-20)
(-0.107962 0.315436 3.07897e-20)
(-0.103867 0.341581 0)
(-0.0879906 0.362443 2.62014e-20)
(-0.0586293 0.373954 1.50039e-21)
(-0.0157094 0.372346 -1.40132e-20)
(0.0427699 0.355986 0)
(0.114819 0.318716 -3.96301e-20)
(0.190183 0.259712 0)
(0.296488 0.187834 -6.20077e-20)
(-0.00870137 0.0458485 8.27678e-20)
(-0.0244508 0.140487 1.80172e-20)
(-0.0360427 0.209506 -3.23329e-20)
(-0.0449393 0.249871 -8.46733e-20)
(-0.0487086 0.27477 4.96149e-20)
(-0.0444578 0.294807 4.43783e-20)
(-0.0296575 0.31308 -7.79834e-20)
(-0.00234422 0.32808 0)
(0.0384018 0.336436 -6.70719e-20)
(0.0930743 0.335752 5.96322e-20)
(0.164576 0.322102 2.7782e-20)
(0.236919 0.291075 0)
(0.346658 0.251872 2.63138e-20)
(0.412975 0.180347 -4.76765e-20)
(0.557405 0.111065 0)
(-0.00882456 0.035519 4.03981e-20)
(-0.0249618 0.123825 -1.07586e-19)
(-0.0295912 0.196966 1.25066e-19)
(-0.0262486 0.242373 -1.08764e-19)
(-0.0143025 0.267225 -4.7123e-20)
(0.00787773 0.281322 4.14663e-20)
(0.0419585 0.289659 3.86501e-20)
(0.0887709 0.292748 3.30636e-20)
(0.150387 0.289757 -9.3451e-20)
(0.219063 0.274624 -2.57429e-21)
(0.315278 0.257411 2.46795e-20)
(0.386899 0.212571 0)
(0.529326 0.176255 4.64465e-20)
(0.588849 0.105988 1.41603e-19)
(0.777106 0.0329989 -8.351e-20)
(-0.00832586 0.0230328 -3.5433e-22)
(-0.0269448 0.0959503 6.97924e-20)
(-0.030273 0.164094 -6.05817e-20)
(-0.0197748 0.209705 5.38887e-20)
(0.00391975 0.233784 9.2596e-20)
(0.0404664 0.243202 -8.11282e-20)
(0.0897774 0.243487 -3.49431e-20)
(0.15139 0.236214 -9.78725e-20)
(0.226634 0.22595 8.76342e-20)
(0.31258 0.20012 0)
(0.421824 0.182707 0)
(0.523418 0.132078 9.73392e-20)
(0.692032 0.0977834 -2.25142e-19)
(0.77852 0.0286132 8.20312e-20)
(1.01739 -0.0420561 0)
(-0.00929153 0.0139844 2.63988e-22)
(-0.0324533 0.0674793 -6.91242e-20)
(-0.0396608 0.12079 1.80553e-19)
(-0.0280568 0.158009 -5.23676e-20)
(0.0015423 0.176836 -4.5508e-20)
(0.0478131 0.181214 3.96931e-20)
(0.110747 0.176105 3.49656e-20)
(0.192731 0.164367 6.12733e-20)
(0.294701 0.14844 -1.08478e-19)
(0.425214 0.123963 4.96343e-20)
(0.568044 0.100062 4.59504e-20)
(0.739251 0.0556683 0)
(0.92005 0.0262119 0)
(1.0659 -0.0425045 1.54326e-19)
(1.27906 -0.080754 -1.36976e-19)
(-0.0146339 0.0118867 -1.7173e-22)
(-0.0440082 0.0474085 0)
(-0.0564414 0.0804626 0)
(-0.0443263 0.102674 1.0067e-19)
(-0.00601808 0.112114 -4.50683e-20)
(0.0614052 0.110988 3.78469e-20)
(0.162623 0.102847 6.6338e-20)
(0.298626 0.0917157 -5.8819e-20)
(0.466893 0.0749513 5.413e-20)
(0.655494 0.0618164 -4.96829e-20)
(0.848825 0.0368741 -2.39295e-21)
(1.04619 0.0167229 0)
(1.19968 -0.0118988 3.55151e-20)
(1.34356 -0.0555474 0)
(1.4195 -0.0781229 0)
(-0.0252687 0.0164889 -7.76941e-20)
(-0.0588648 0.0392231 0)
(-0.0675261 0.0529861 -1.17228e-19)
(-0.0389797 0.0597503 2.03967e-19)
(0.036467 0.0598486 -2.19487e-19)
(0.16472 0.0551239 -3.65839e-20)
(0.342035 0.0494636 6.67155e-20)
(0.551645 0.0455029 0)
(0.773191 0.041618 0)
(0.979796 0.0403781 -9.48357e-20)
(1.16137 0.0272275 -4.42542e-20)
(1.29326 0.0241771 7.57354e-20)
(1.37398 -0.0112795 -3.55816e-20)
(1.41131 -0.0260321 0)
(1.37069 -0.0621046 -9.78669e-20)
(0.102594 0.131864 0)
(0.281307 -0.184424 5.40948e-21)
(0.445605 -0.527529 -4.98617e-21)
(0.537532 -0.737108 0)
(0.657582 -0.730527 0)
(0.480549 -0.777833 -8.84581e-23)
(0.344567 -0.642419 0)
(0.549023 -0.118963 0)
(0.678995 0.356102 7.23706e-23)
(0.759537 0.504874 0)
(0.813911 0.479978 0)
(0.749084 0.521429 -7.10819e-23)
(0.638668 0.525702 0)
(0.650971 0.280331 -4.69101e-23)
(0.791061 0.0177938 -4.01758e-23)
(0.929549 -0.0977665 0)
(0.896884 -0.250466 -3.1883e-22)
(0.817293 -0.459592 3.74673e-22)
(0.829242 -0.392624 0)
(0.908479 -0.0580082 6.88377e-23)
(0.906621 0.301352 -1.0148e-22)
(0.832662 0.456615 1.70197e-23)
(0.732684 0.373093 -1.45307e-22)
(0.672595 0.1373 1.38845e-22)
(0.656828 -0.125753 -1.79847e-22)
(0.637696 -0.217767 0)
(0.68151 -0.251017 -7.4186e-23)
(0.721196 -0.200969 7.09331e-23)
(0.76393 -0.13043 -2.25064e-23)
(0.805616 -0.105669 0)
(0.824231 -0.0695204 4.0132e-24)
(0.840478 -0.0433764 0)
(0.851556 -0.0397041 6.6935e-24)
(0.87827 -0.0155862 4.88216e-24)
(0.907979 0.00470088 -3.96029e-25)
(0.936564 0.015412 2.47809e-24)
(0.955119 0.0293439 0)
(0.973169 0.0414795 -3.84655e-25)
(0.388769 0.0348149 2.31427e-20)
(0.55068 -0.273494 -1.82763e-22)
(0.71197 -0.593308 -1.68702e-20)
(0.703217 -0.811588 1.60893e-20)
(0.741654 -0.756152 0)
(0.640044 -0.687067 8.91397e-23)
(0.380842 -0.621758 -1.27387e-22)
(0.447681 -0.198557 0)
(0.589775 0.278023 -7.29187e-23)
(0.709772 0.450747 0)
(0.763216 0.486045 0)
(0.686711 0.569043 7.15963e-23)
(0.577034 0.552229 0)
(0.623037 0.252707 1.69534e-21)
(0.778621 -0.0383234 -1.42862e-21)
(0.941386 -0.120633 1.44252e-21)
(0.93072 -0.231814 -1.37693e-21)
(0.845765 -0.44925 -7.06839e-23)
(0.848745 -0.41304 0)
(0.927795 -0.0749746 0)
(0.914873 0.302288 -2.16925e-23)
(0.840383 0.480356 4.85588e-22)
(0.751086 0.400019 -1.10181e-21)
(0.696745 0.152639 6.44058e-22)
(0.681056 -0.120798 5.78613e-22)
(0.665378 -0.221074 0)
(0.698217 -0.25935 2.03678e-22)
(0.737741 -0.212434 0)
(0.792662 -0.140069 2.25851e-23)
(0.851787 -0.112126 -1.10784e-23)
(0.876044 -0.072563 2.53786e-24)
(0.88416 -0.0440699 6.10016e-24)
(0.879394 -0.0411626 -1.1128e-23)
(0.887999 -0.0187929 -6.07679e-25)
(0.905655 0.00124538 -5.39639e-24)
(0.930308 0.012531 2.44153e-24)
(0.947503 0.0270794 1.35151e-25)
(0.968281 0.0403482 -1.88674e-25)
(0.641091 -0.0289376 4.75716e-20)
(0.78807 -0.320357 -8.94419e-20)
(0.954919 -0.594784 8.8981e-21)
(0.91733 -0.784064 3.20384e-20)
(0.809708 -0.741531 2.39582e-22)
(0.747146 -0.611348 -1.47116e-22)
(0.487462 -0.573241 1.29571e-22)
(0.409324 -0.269557 -1.54312e-22)
(0.51926 0.194299 0)
(0.678627 0.405554 5.39716e-21)
(0.758962 0.489638 -5.14812e-21)
(0.674678 0.598486 -1.64625e-22)
(0.56733 0.569016 0)
(0.642357 0.228889 -4.44171e-21)
(0.793015 -0.0953555 4.13181e-21)
(0.957464 -0.146522 -1.52535e-21)
(0.964613 -0.205237 1.45546e-21)
(0.87388 -0.42851 1.064e-21)
(0.863096 -0.439106 -8.66565e-22)
(0.943369 -0.0961667 0)
(0.923581 0.315398 0)
(0.85218 0.50229 1.01925e-21)
(0.773392 0.417372 -9.73053e-22)
(0.721843 0.166514 -1.74522e-21)
(0.705598 -0.114173 2.06209e-22)
(0.694462 -0.223094 1.42738e-21)
(0.720458 -0.265576 8.68006e-24)
(0.751849 -0.224089 -2.16771e-22)
(0.807906 -0.152201 2.22635e-22)
(0.878702 -0.121266 -1.54542e-22)
(0.917205 -0.0766696 -6.37291e-24)
(0.929007 -0.0437496 9.96993e-24)
(0.916271 -0.0403491 -1.28509e-23)
(0.907846 -0.0197129 1.22873e-23)
(0.909504 -0.000861484 3.66985e-24)
(0.926448 0.0101778 1.71088e-24)
(0.939388 0.0248212 -4.1036e-24)
(0.962254 0.0390683 -6.09297e-25)
(0.857861 -0.086871 0)
(1.01119 -0.367384 4.03839e-20)
(1.11895 -0.605527 -3.96986e-20)
(1.09308 -0.720038 0)
(0.884089 -0.693546 -2.46235e-22)
(0.802809 -0.540951 1.51156e-22)
(0.602944 -0.501007 0)
(0.472093 -0.318864 4.21371e-23)
(0.542601 0.0864324 -8.34129e-23)
(0.685688 0.328012 0)
(0.709251 0.485446 -5.56189e-21)
(0.597116 0.651991 5.47231e-21)
(0.553772 0.604999 -3.92321e-22)
(0.686661 0.2242 -5.691e-21)
(0.827324 -0.138622 5.42555e-21)
(0.978862 -0.177574 2.17875e-22)
(1.00373 -0.182538 0)
(0.909241 -0.399773 -1.59341e-22)
(0.874744 -0.458735 8.99973e-22)
(0.953017 -0.127732 -2.32336e-22)
(0.936804 0.30046 6.40981e-22)
(0.871853 0.516727 -9.76065e-22)
(0.798884 0.450295 -3.02586e-21)
(0.749356 0.192139 3.72744e-21)
(0.733542 -0.102782 -4.43621e-22)
(0.722892 -0.223717 0)
(0.745268 -0.270401 -2.17255e-22)
(0.768928 -0.234749 2.1962e-22)
(0.81769 -0.16482 -2.32046e-22)
(0.888679 -0.132357 1.62646e-22)
(0.939577 -0.0830191 3.59171e-24)
(0.962985 -0.0441763 0)
(0.952534 -0.0384186 1.30149e-23)
(0.933931 -0.0185236 -2.77283e-23)
(0.919907 -0.00124684 -1.17506e-23)
(0.926736 0.00876282 -9.79332e-24)
(0.932408 0.0228271 4.10649e-24)
(0.955831 0.0377044 -2.13567e-25)
(1.0806 -0.147808 5.75143e-22)
(1.23975 -0.370786 1.23103e-21)
(1.25067 -0.571982 0)
(1.16659 -0.631547 0)
(0.944239 -0.615119 0)
(0.817021 -0.495197 0)
(0.693301 -0.436323 4.72342e-21)
(0.552301 -0.354559 -7.39362e-21)
(0.608646 -0.0108493 2.84715e-21)
(0.716166 0.290483 0)
(0.706557 0.503681 -5.37474e-21)
(0.613867 0.663127 5.26948e-21)
(0.610069 0.596593 7.73382e-21)
(0.75676 0.215472 -6.49482e-21)
(0.878733 -0.170684 4.95382e-21)
(0.999088 -0.212688 -4.94469e-21)
(1.03535 -0.161859 -2.02633e-22)
(0.946435 -0.362013 -2.22314e-21)
(0.885626 -0.477933 2.11816e-21)
(0.959952 -0.16813 7.15722e-23)
(0.952465 0.297908 1.06602e-22)
(0.893083 0.532457 2.23898e-21)
(0.825169 0.464133 -2.31353e-21)
(0.778341 0.208526 -1.04277e-21)
(0.764305 -0.091736 -5.1614e-22)
(0.75203 -0.22324 -3.70255e-22)
(0.769888 -0.274055 0)
(0.787994 -0.244009 0)
(0.828048 -0.176356 0)
(0.891587 -0.14375 0)
(0.946532 -0.0913388 -1.64024e-23)
(0.981573 -0.0463877 1.21624e-23)
(0.980305 -0.0367318 -2.544e-23)
(0.960309 -0.0160671 9.11001e-23)
(0.935012 -2.94889e-05 -1.17188e-23)
(0.931828 0.00852631 -2.00053e-24)
(0.928297 0.0213703 6.64062e-24)
(0.950152 0.0363659 1.64527e-24)
(1.3018 -0.188069 -6.05357e-22)
(1.39414 -0.341519 6.55039e-20)
(1.33597 -0.477226 -6.29471e-20)
(1.1829 -0.524372 -3.72375e-20)
(1.00049 -0.52354 3.54638e-20)
(0.834446 -0.454782 1.57839e-20)
(0.764011 -0.38684 -1.4702e-20)
(0.628736 -0.375127 1.1719e-22)
(0.662245 -0.125317 -5.94269e-23)
(0.777928 0.198986 0)
(0.718853 0.45724 -1.61973e-22)
(0.571356 0.675097 1.33807e-20)
(0.598421 0.63545 -1.2737e-20)
(0.801041 0.249017 -5.06719e-22)
(0.934876 -0.169329 0)
(1.0228 -0.240688 -4.18177e-21)
(1.06317 -0.147014 7.11123e-21)
(0.987161 -0.317611 -2.85441e-21)
(0.899486 -0.482465 0)
(0.961129 -0.216752 7.18643e-22)
(0.968033 0.258882 5.21167e-22)
(0.918216 0.534944 -1.31911e-21)
(0.855312 0.505189 -4.40539e-21)
(0.810427 0.247608 4.35783e-21)
(0.797797 -0.0709195 -3.85045e-21)
(0.783558 -0.218896 9.86834e-22)
(0.79475 -0.275834 2.76082e-21)
(0.806968 -0.251775 -7.67222e-22)
(0.839759 -0.186456 7.29649e-22)
(0.894574 -0.154283 -4.6783e-23)
(0.946227 -0.100508 4.44834e-23)
(0.98772 -0.0503543 0)
(0.996967 -0.0361409 -2.40457e-23)
(0.982131 -0.0133388 -4.14021e-24)
(0.951763 0.00225821 0)
(0.940996 0.00942849 1.1325e-23)
(0.928242 0.0206397 -4.24093e-24)
(0.946432 0.0351793 9.00854e-25)
(1.40585 -0.170687 0)
(1.40641 -0.27839 0)
(1.3215 -0.372897 -1.95995e-22)
(1.17311 -0.421169 0)
(1.04358 -0.442544 0)
(0.893196 -0.411879 1.6091e-20)
(0.811968 -0.344516 -1.53076e-20)
(0.71497 -0.36772 6.35369e-21)
(0.670075 -0.228383 -6.06486e-21)
(0.76968 0.151882 0)
(0.68396 0.490476 -1.49202e-22)
(0.582865 0.67721 1.68977e-22)
(0.672223 0.59433 -1.69614e-20)
(0.865626 0.240503 -1.35702e-21)
(0.992389 -0.173231 1.64088e-20)
(1.04803 -0.272879 1.33688e-22)
(1.08072 -0.138867 -1.15227e-22)
(1.02094 -0.268037 5.24634e-21)
(0.919524 -0.484417 -5.1598e-21)
(0.959653 -0.272414 0)
(0.983683 0.234535 0)
(0.944098 0.541015 -1.13956e-22)
(0.884434 0.512708 0)
(0.840474 0.262198 5.23033e-21)
(0.830183 -0.0562286 -2.3854e-22)
(0.815444 -0.213594 -3.96419e-21)
(0.820137 -0.277027 -2.24245e-21)
(0.825702 -0.258983 1.46471e-21)
(0.851663 -0.196015 -6.56019e-23)
(0.899181 -0.164091 0)
(0.94465 -0.109839 1.11877e-24)
(0.987041 -0.0555848 -1.06073e-24)
(1.00421 -0.0369158 -8.50817e-24)
(0.997209 -0.0110846 -1.11324e-23)
(0.967295 0.00498224 1.34824e-23)
(0.952502 0.0111913 -3.76905e-24)
(0.932446 0.0206734 0)
(0.945554 0.0342493 -1.75129e-24)
(1.3517 -0.126855 6.00241e-20)
(1.3279 -0.195535 5.49216e-20)
(1.26727 -0.27689 -4.60534e-21)
(1.17641 -0.339056 -8.28387e-20)
(1.07883 -0.384903 3.58872e-20)
(0.972043 -0.384149 -1.66032e-22)
(0.859571 -0.328258 0)
(0.778008 -0.346496 -6.79991e-23)
(0.679252 -0.311898 -4.06811e-23)
(0.723388 -0.0119467 0)
(0.692236 0.374922 -1.06582e-20)
(0.591976 0.642706 1.00767e-20)
(0.617761 0.64507 2.30057e-22)
(0.85227 0.325821 1.76034e-20)
(1.03307 -0.121228 -1.67421e-20)
(1.07842 -0.285692 1.69296e-22)
(1.09864 -0.145628 1.22331e-22)
(1.04712 -0.222781 0)
(0.944076 -0.455472 3.90714e-21)
(0.957991 -0.334612 -3.70241e-21)
(0.995062 0.159629 -1.47776e-21)
(0.968614 0.527184 -1.33194e-21)
(0.915158 0.55826 2.6987e-21)
(0.873062 0.317804 -5.52634e-21)
(0.864924 -0.0238047 7.92165e-22)
(0.848467 -0.205646 7.76528e-21)
(0.845987 -0.277141 -2.63972e-21)
(0.844964 -0.265648 1.08323e-21)
(0.8635 -0.205195 -8.13115e-22)
(0.904561 -0.173092 0)
(0.944114 -0.118781 0)
(0.984114 -0.0614297 0)
(1.00536 -0.0388832 -1.09392e-23)
(1.0057 -0.00982703 6.76773e-24)
(0.979798 0.00753096 -1.56279e-23)
(0.964308 0.0134013 1.02076e-23)
(0.940118 0.0213576 4.28191e-24)
(0.947782 0.0336302 0)
(1.29185 -0.0819879 0)
(1.28807 -0.137293 0)
(1.24713 -0.195196 0)
(1.18944 -0.231282 0)
(1.1074 -0.268873 0)
(1.03514 -0.286517 0)
(0.951796 -0.224823 0)
(0.860878 -0.232465 0)
(0.723077 -0.276339 0)
(0.631451 -0.0499467 0)
(0.561873 0.391395 0)
(0.49617 0.630906 0)
(0.667701 0.54095 0)
(0.98702 0.256532 0)
(1.11943 -0.106894 0)
(1.1082 -0.282988 0)
(1.11854 -0.131509 0)
(1.08092 -0.155492 0)
(0.975482 -0.415523 0)
(0.95346 -0.363194 0)
(1.00386 0.108018 0)
(1.00291 0.506551 0)
(0.953429 0.551796 0)
(0.912081 0.326522 0)
(0.906088 0.000144227 0)
(0.888446 -0.183101 0)
(0.879568 -0.260814 0)
(0.870668 -0.260936 0)
(0.879158 -0.208028 0)
(0.91171 -0.179172 0)
(0.944926 -0.126857 0)
(0.980541 -0.0677175 0)
(1.00301 -0.0416837 0)
(1.00994 -0.00882279 0)
(0.99097 0.010287 0)
(0.977342 0.0162528 0)
(0.952238 0.0227868 0)
(0.953866 0.033243 0)
(1.23117 -0.0727074 0)
(1.234 -0.131964 0)
(1.19128 -0.180197 0)
(1.1371 -0.219562 0)
(1.0717 -0.260968 0)
(0.984742 -0.264789 0)
(0.913593 -0.214453 0)
(0.854288 -0.233585 0)
(0.791399 -0.198539 0)
(0.653114 0.0763399 0)
(0.51775 0.440874 0)
(0.594834 0.54388 0)
(0.879233 0.390361 0)
(1.14142 0.137987 0)
(1.20476 -0.16752 0)
(1.15045 -0.281972 0)
(1.10817 -0.124394 0)
(1.06127 -0.167596 0)
(0.988769 -0.414339 0)
(0.980139 -0.3483 0)
(1.01943 0.123418 0)
(1.02374 0.520932 0)
(0.986459 0.570087 0)
(0.962601 0.333612 0)
(0.967757 -0.0151496 0)
(0.945776 -0.199937 0)
(0.924395 -0.267789 0)
(0.905102 -0.264822 0)
(0.903405 -0.213014 0)
(0.925777 -0.185707 0)
(0.951586 -0.133471 0)
(0.980361 -0.0727395 0)
(0.998899 -0.0445933 0)
(1.00819 -0.00815469 0)
(0.996847 0.0131002 0)
(0.987621 0.0195771 0)
(0.966886 0.0251112 0)
(0.964218 0.0333625 0)
(1.18822 -0.0608216 0)
(1.18945 -0.0989099 0)
(1.16061 -0.131329 0)
(1.12008 -0.157866 0)
(1.07414 -0.16142 0)
(1.00164 -0.175628 0)
(0.955262 -0.127658 0)
(0.892692 -0.122153 0)
(0.798012 -0.133866 0)
(0.722116 0.127113 0)
(0.686086 0.451012 0)
(0.85348 0.416826 0)
(1.09951 0.219331 0)
(1.26022 0.0827122 0)
(1.23433 -0.120526 0)
(1.15066 -0.250029 0)
(1.12539 -0.0928692 0)
(1.09703 -0.101714 0)
(1.01015 -0.373135 0)
(0.989506 -0.372862 0)
(1.04132 0.0918512 0)
(1.06024 0.520041 0)
(1.0365 0.57876 0)
(1.02465 0.341803 0)
(1.03167 0.00275455 0)
(1.00358 -0.179143 0)
(0.969546 -0.248244 0)
(0.938443 -0.255691 0)
(0.925706 -0.213242 0)
(0.937656 -0.190544 0)
(0.957137 -0.140197 0)
(0.981147 -0.0780712 0)
(0.995465 -0.0477204 0)
(1.00394 -0.00853135 0)
(0.997664 0.0147176 0)
(0.992246 0.0219926 0)
(0.978212 0.0272425 0)
(0.974513 0.0337363 0)
(1.15183 -0.0456605 0)
(1.14863 -0.0777502 0)
(1.12988 -0.100253 0)
(1.09152 -0.124819 0)
(1.05311 -0.132697 0)
(1.0032 -0.141012 0)
(0.953254 -0.111106 0)
(0.932099 -0.0851771 0)
(0.856192 -0.0775061 0)
(0.792744 0.119998 0)
(0.870271 0.359203 0)
(1.05882 0.281615 0)
(1.19106 0.127221 0)
(1.25732 0.057104 0)
(1.22354 -0.101327 0)
(1.14149 -0.220006 0)
(1.10881 -0.0865443 0)
(1.08629 -0.108121 0)
(1.01949 -0.364141 0)
(0.997767 -0.368375 0)
(1.04841 0.0813251 0)
(1.07627 0.522625 0)
(1.06355 0.59025 0)
(1.07689 0.345407 0)
(1.09769 -0.00248072 0)
(1.06264 -0.182572 0)
(1.01257 -0.243441 0)
(0.97052 -0.250969 0)
(0.948994 -0.212705 0)
(0.95171 -0.193486 0)
(0.964071 -0.145448 0)
(0.983067 -0.0824156 0)
(0.993529 -0.0501737 0)
(1.00007 -0.00892293 0)
(0.996283 0.0157438 0)
(0.993053 0.0235415 0)
(0.984845 0.0287394 0)
(0.982116 0.0340666 0)
(1.11842 -0.0362786 0)
(1.11718 -0.0582901 0)
(1.10329 -0.0731363 0)
(1.07854 -0.0909423 0)
(1.04804 -0.0884637 0)
(1.01633 -0.0882988 0)
(0.977568 -0.0690806 0)
(0.960348 -0.0324136 0)
(0.91637 -0.0185646 0)
(0.870693 0.0912492 0)
(0.967119 0.245153 0)
(1.11236 0.187877 0)
(1.17282 0.0771236 0)
(1.21042 0.0533102 0)
(1.19517 -0.0589592 0)
(1.11139 -0.184533 0)
(1.09356 -0.0652537 0)
(1.10823 -0.0621756 0)
(1.03312 -0.325299 0)
(0.98468 -0.380983 0)
(1.0401 0.0561537 0)
(1.07048 0.517837 0)
(1.08215 0.581703 0)
(1.13311 0.334704 0)
(1.15922 0.00795709 0)
(1.11387 -0.155207 0)
(1.04978 -0.214384 0)
(0.997284 -0.233537 0)
(0.968175 -0.206918 0)
(0.963902 -0.194067 0)
(0.970442 -0.149351 0)
(0.984894 -0.0859542 0)
(0.992198 -0.0520801 0)
(0.997253 -0.00923011 0)
(0.994585 0.016595 0)
(0.992408 0.0246093 0)
(0.987828 0.0297649 0)
(0.986443 0.0343459 0)
(1.09382 -0.0270767 0)
(1.09397 -0.0415957 0)
(1.08438 -0.0509569 0)
(1.06674 -0.0626974 0)
(1.04297 -0.0603592 0)
(1.02174 -0.0587104 0)
(0.993868 -0.0453041 0)
(0.979356 -0.0155616 0)
(0.965543 0.00346666 0)
(0.942041 0.0636319 0)
(1.00285 0.154513 0)
(1.1022 0.125616 0)
(1.13183 0.0565624 0)
(1.15286 0.0384329 0)
(1.16408 -0.0357138 0)
(1.08965 -0.14203 0)
(1.05467 -0.0757417 0)
(1.09763 -0.0773264 0)
(1.04546 -0.290992 0)
(0.944961 -0.363675 0)
(0.990747 0.0245463 0)
(1.04724 0.48566 0)
(1.08694 0.558826 0)
(1.16826 0.323388 0)
(1.20392 0.0104886 0)
(1.1554 -0.143582 0)
(1.08199 -0.197543 0)
(1.02315 -0.220687 0)
(0.987852 -0.201401 0)
(0.976854 -0.193629 0)
(0.977299 -0.152267 0)
(0.9869 -0.0889848 0)
(0.991114 -0.0538014 0)
(0.995035 -0.00970919 0)
(0.992938 0.0170218 0)
(0.991495 0.0250864 0)
(0.988812 0.0301562 0)
(0.988399 0.0343535 0)
(1.07593 -0.0189851 0)
(1.07574 -0.029208 0)
(1.06948 -0.034675 0)
(1.0574 -0.0421431 0)
(1.04158 -0.0388947 0)
(1.0277 -0.0354105 0)
(1.01089 -0.0241244 0)
(1.00067 -0.00142431 0)
(0.995645 0.0166655 0)
(0.987777 0.0484097 0)
(1.01963 0.0973279 0)
(1.07977 0.0843259 0)
(1.09971 0.043867 0)
(1.1101 0.0255905 0)
(1.12385 -0.0226837 0)
(1.07896 -0.102737 0)
(1.04131 -0.0660229 0)
(1.07434 -0.0690289 0)
(1.03001 -0.236579 0)
(0.884585 -0.319801 0)
(0.861777 0.0136367 0)
(0.924146 0.460249 0)
(1.02707 0.512376 0)
(1.17215 0.284223 0)
(1.22711 0.0134634 0)
(1.18383 -0.109906 0)
(1.11089 -0.157506 0)
(1.04947 -0.1929 0)
(1.00959 -0.187756 0)
(0.991909 -0.188587 0)
(0.985962 -0.152265 0)
(0.990231 -0.0901471 0)
(0.990842 -0.0544498 0)
(0.993509 -0.00965994 0)
(0.991535 0.0178019 0)
(0.990654 0.0257554 0)
(0.988834 0.0306981 0)
(0.989023 0.0345054 0)
(1.06167 -0.0129591 0)
(1.06217 -0.0197385 0)
(1.05881 -0.0223458 0)
(1.05114 -0.0264747 0)
(1.04082 -0.0231881 0)
(1.03166 -0.0197711 0)
(1.02136 -0.0108346 0)
(1.01514 0.00393847 0)
(1.01397 0.0177307 0)
(1.01342 0.0361867 0)
(1.02972 0.0618008 0)
(1.06237 0.055309 0)
(1.07645 0.0347365 0)
(1.08303 0.0169331 0)
(1.09053 -0.0136443 0)
(1.0614 -0.0702627 0)
(1.02437 -0.0619175 0)
(1.0432 -0.0771944 0)
(1.01307 -0.176961 0)
(0.858873 -0.22982 0)
(0.75892 0.0227184 0)
(0.823523 0.387106 0)
(1.00375 0.406694 0)
(1.18493 0.222407 0)
(1.23387 0.00866397 0)
(1.1858 -0.0899196 0)
(1.11263 -0.135163 0)
(1.05479 -0.176669 0)
(1.01823 -0.178834 0)
(1.00006 -0.184658 0)
(0.991538 -0.151946 0)
(0.992542 -0.090854 0)
(0.990345 -0.0549784 0)
(0.992021 -0.00998009 0)
(0.990058 0.0179121 0)
(0.989719 0.0257281 0)
(0.988412 0.0305861 0)
(0.989113 0.0342454 0)
(1.05137 -0.00863955 0)
(1.05258 -0.0129407 0)
(1.05084 -0.0138074 0)
(1.04594 -0.0160596 0)
(1.03968 -0.0130126 0)
(1.03396 -0.0098962 0)
(1.02816 -0.00261876 0)
(1.02481 0.00714554 0)
(1.02449 0.0177315 0)
(1.0255 0.0282278 0)
(1.03428 0.041598 0)
(1.0508 0.0384696 0)
(1.05879 0.0283412 0)
(1.06246 0.0124508 0)
(1.06388 -0.00792088 0)
(1.04745 -0.0462415 0)
(1.02148 -0.0449492 0)
(1.01827 -0.0670626 0)
(0.989386 -0.119654 0)
(0.878442 -0.132544 0)
(0.779335 0.0401583 0)
(0.85104 0.280722 0)
(1.04205 0.276112 0)
(1.19318 0.155668 0)
(1.2196 0.0121229 0)
(1.17546 -0.0528868 0)
(1.11364 -0.0937337 0)
(1.06384 -0.146368 0)
(1.03021 -0.161397 0)
(1.01044 -0.175629 0)
(0.99845 -0.148401 0)
(0.99578 -0.089331 0)
(0.990475 -0.0540024 0)
(0.990987 -0.00937393 0)
(0.988697 0.018759 0)
(0.988733 0.026306 0)
(0.987666 0.0310251 0)
(0.988883 0.0344079 0)
(1.04406 -0.00581388 0)
(1.04518 -0.00869199 0)
(1.04446 -0.00845704 0)
(1.04169 -0.00954578 0)
(1.03818 -0.00642699 0)
(1.03464 -0.00383006 0)
(1.03146 0.00219481 0)
(1.02963 0.00867424 0)
(1.02937 0.0164468 0)
(1.03065 0.02304 0)
(1.03487 0.0307127 0)
(1.04251 0.0287858 0)
(1.04649 0.0245927 0)
(1.04816 0.0113789 0)
(1.04662 5.56329e-05 0)
(1.03415 -0.0281497 0)
(1.01623 -0.0307688 0)
(1.00795 -0.0516155 0)
(0.982223 -0.0731596 0)
(0.915295 -0.0648879 0)
(0.86166 0.0417618 0)
(0.931293 0.185531 0)
(1.07095 0.173901 0)
(1.16967 0.113192 0)
(1.17919 0.0198687 0)
(1.14663 -0.0282507 0)
(1.10172 -0.0717566 0)
(1.06416 -0.131824 0)
(1.03688 -0.152316 0)
(1.01779 -0.169529 0)
(1.00378 -0.145054 0)
(0.998431 -0.0873572 0)
(0.990493 -0.052896 0)
(0.9899 -0.00931292 0)
(0.987219 0.018682 0)
(0.98753 0.025902 0)
(0.986707 0.0304104 0)
(0.988543 0.0336622 0)
(1.03818 -0.00433336 0)
(1.03932 -0.00628383 0)
(1.03944 -0.00518949 0)
(1.03801 -0.00559917 0)
(1.03606 -0.0024452 0)
(1.03397 -0.00023437 0)
(1.03216 0.00494974 0)
(1.03118 0.00962293 0)
(1.03087 0.0157697 0)
(1.0316 0.0203483 0)
(1.03331 0.0254876 0)
(1.03651 0.0243541 0)
(1.03778 0.0234507 0)
(1.03763 0.0125494 0)
(1.0347 0.00669244 0)
(1.02651 -0.0148993 0)
(1.01443 -0.0167583 0)
(1.00507 -0.0346227 0)
(0.985897 -0.0413424 0)
(0.950965 -0.0284914 0)
(0.93082 0.0298607 0)
(0.983394 0.115723 0)
(1.06713 0.105457 0)
(1.12993 0.0841384 0)
(1.13718 0.0251591 0)
(1.11933 -0.00687783 0)
(1.08943 -0.0466951 0)
(1.06209 -0.110713 0)
(1.04039 -0.136966 0)
(1.02276 -0.158867 0)
(1.00773 -0.138677 0)
(1.00044 -0.0830205 0)
(0.990269 -0.0498514 0)
(0.988929 -0.0076828 0)
(0.985756 0.0200026 0)
(0.986326 0.0267102 0)
(0.985567 0.0309553 0)
(0.988072 0.0340066 0)
(1.03359 -0.00379291 0)
(1.03473 -0.00510422 0)
(1.03519 -0.00345153 0)
(1.0345 -0.00349596 0)
(1.03349 -0.000252346 0)
(1.03229 0.00178837 0)
(1.03122 0.00646999 0)
(1.03066 0.010334 0)
(1.03026 0.015556 0)
(1.03054 0.0192305 0)
(1.03087 0.0235626 0)
(1.03191 0.0229084 0)
(1.03167 0.0239054 0)
(1.03084 0.0150332 0)
(1.02773 0.0128716 0)
(1.02211 -0.00470653 0)
(1.01388 -0.00591671 0)
(1.00661 -0.0218192 0)
(0.994543 -0.0228235 0)
(0.979138 -0.0129303 0)
(0.973568 0.0158679 0)
(1.00782 0.0693309 0)
(1.05477 0.0605394 0)
(1.09588 0.0635602 0)
(1.10199 0.0266296 0)
(1.09413 0.00519788 0)
(1.07593 -0.0328435 0)
(1.05775 -0.099438 0)
(1.04197 -0.127725 0)
(1.02627 -0.1504 0)
(1.0106 -0.132216 0)
(1.00205 -0.0784225 0)
(0.990035 -0.0471176 0)
(0.987723 -0.00728905 0)
(0.984149 0.0194797 0)
(0.984916 0.0255776 0)
(0.984366 0.0293525 0)
(0.987551 0.03224 0)
(1.02984 -0.00387691 0)
(1.03081 -0.00480228 0)
(1.03139 -0.0027581 0)
(1.03115 -0.00250154 0)
(1.03068 0.000890213 0)
(1.02998 0.0029329 0)
(1.02932 0.00743282 0)
(1.02897 0.0110024 0)
(1.02852 0.0158619 0)
(1.02855 0.019253 0)
(1.0282 0.0234623 0)
(1.0284 0.0232276 0)
(1.02745 0.0254702 0)
(1.02652 0.0179317 0)
(1.02377 0.0179308 0)
(1.02029 0.0024364 0)
(1.01493 0.00210745 0)
(1.01044 -0.0129128 0)
(1.00343 -0.0131668 0)
(0.998315 -0.00780613 0)
(0.997955 0.00379353 0)
(1.01977 0.0399492 0)
(1.04487 0.0310863 0)
(1.07178 0.0480913 0)
(1.07613 0.0254949 0)
(1.07436 0.0122017 0)
(1.06415 -0.0220867 0)
(1.05314 -0.0888257 0)
(1.04166 -0.117304 0)
(1.02749 -0.140268 0)
(1.01129 -0.123893 0)
(1.00175 -0.071257 0)
(0.988426 -0.0416667 0)
(0.986158 -0.00414333 0)
(0.982325 0.0218439 0)
(0.983492 0.0271113 0)
(0.982925 0.0303999 0)
(0.986955 0.0331098 0)
(1.02665 -0.0043432 0)
(1.02744 -0.00497013 0)
(1.02807 -0.00268184 0)
(1.02803 -0.00215299 0)
(1.02785 0.00133936 0)
(1.02743 0.00350375 0)
(1.02701 0.00794247 0)
(1.02679 0.0114989 0)
(1.02636 0.016247 0)
(1.02635 0.0196661 0)
(1.02573 0.0239396 0)
(1.02572 0.0241182 0)
(1.02462 0.0270126 0)
(1.02397 0.02045 0)
(1.02186 0.0215103 0)
(1.01994 0.00728062 0)
(1.01656 0.00705463 0)
(1.01439 -0.00778518 0)
(1.01062 -0.00926614 0)
(1.0105 -0.00768169 0)
(1.01117 -0.00568065 0)
(1.02559 0.021102 0)
(1.03807 0.0123607 0)
(1.05588 0.0371547 0)
(1.05788 0.0238647 0)
(1.05894 0.0153898 0)
(1.05386 -0.0161941 0)
(1.04716 -0.0817499 0)
(1.03927 -0.108895 0)
(1.02689 -0.130211 0)
(1.01072 -0.115158 0)
(1.00119 -0.0649648 0)
(0.986995 -0.0381092 0)
(0.984124 -0.00404663 0)
(0.980344 0.020164 0)
(0.981878 0.0245352 0)
(0.981643 0.0270842 0)
(0.986366 0.0295994 0)
(1.02371 -0.00501182 0)
(1.02432 -0.00541784 0)
(1.02488 -0.00288165 0)
(1.02493 -0.00212803 0)
(1.02489 0.00154453 0)
(1.02466 0.00387622 0)
(1.02438 0.00841014 0)
(1.02433 0.0120773 0)
(1.02396 0.016906 0)
(1.02407 0.0204248 0)
(1.02345 0.0248992 0)
(1.02364 0.0252825 0)
(1.02266 0.028699 0)
(1.02262 0.0224822 0)
(1.02104 0.0242199 0)
(1.02052 0.010268 0)
(1.01835 0.010042 0)
(1.01805 -0.0052856 0)
(1.01586 -0.00828467 0)
(1.01782 -0.00932912 0)