/*--------------------------------*- C++ -*----------------------------------*\
| =========                 |                                                 |
| \\      /  F ield         | OpenFOAM: The Open Source CFD Toolbox           |
|  \\    /   O peration     | Version:  2512                                  |
|   \\  /    A nd           | Website:  www.openfoam.com                      |
|    \\/     M anipulation  |                                                 |
\*---------------------------------------------------------------------------*/
FoamFile
{
    version     2.0;
    format      ascii;
    arch        "LSB;label=32;scalar=64";
    class       surfaceScalarField;
    location    "50";
    object      phi;
}
// * * * * * * * * * * * * * * * * * * * * * * * * * * * * * * * * * * * * * //

dimensions      [0 3 -1 0 0 0 0];

oriented        oriented;

internalField   nonuniform List<scalar> 
26232
(
0.00016043
0.00133842
-0.00149885
0.000648322
0.00246404
-0.00295193
0.0016046
0.00221441
-0.00317068
0.00326699
0.000657053
-0.00231945
0.00595099
-0.00222379
-0.000460207
0.0100048
-0.00650584
0.00245202
0.0157581
-0.0122713
0.00651806
0.0234336
-0.0195092
0.0118337
0.0330513
-0.028036
0.0184184
0.044368
-0.0374769
0.0261601
0.0568851
-0.0473136
0.0347965
0.0699233
-0.0569763
0.0439382
0.08274
-0.0659417
0.053125
0.0946573
-0.0738134
0.0618961
0.105169
-0.080367
0.0698553
0.114009
-0.0855635
0.0767232
0.121173
-0.089521
0.082357
0.126877
-0.0924778
0.0867745
0.131517
-0.0947045
0.0900645
0.135514
-0.096518
0.0925206
0.139331
-0.0980446
0.0942281
0.14328
-0.0996646
0.0957152
0.147289
-0.100963
0.0969538
-0.102651
0.0984718
0.151468
0.000156521
0.0011819
0.000791238
0.00182932
0.00214067
0.000864979
0.00452842
-0.0017307
0.00833932
-0.00603469
0.0139564
-0.012123
0.0216376
-0.0199526
0.0313789
-0.0292505
0.0428367
-0.0394938
0.0553581
-0.0499984
0.0681092
-0.0600647
0.0802474
-0.0691145
0.0910851
-0.0767795
0.100204
-0.0829322
0.107501
-0.0876646
0.113165
-0.0912268
0.117588
-0.0939445
0.121254
-0.0961438
0.124627
-0.0980774
0.128049
-0.0999393
0.131775
-0.101771
0.135839
-0.103729
0.140434
-0.105557
-0.107847
0.145631
0.000164216
0.00101768
0.000992861
0.00100068
0.0028493
-0.000991459
0.0061569
-0.0050383
0.011352
-0.0112298
0.0187412
-0.0195121
0.0283129
-0.0295243
0.0396302
-0.0405677
0.0518876
-0.0517512
0.0641089
-0.0622196
0.0753858
-0.0713416
0.0850728
-0.0788016
0.0928897
-0.0845964
0.0989197
-0.0889621
0.10352
-0.0922644
0.107178
-0.0948857
0.110377
-0.0971427
0.113481
-0.0992482
0.116716
-0.101313
0.120173
-0.103396
0.123877
-0.105475
0.1278
-0.107652
0.131967
-0.109724
-0.112134
0.136254
0.000216069
0.000801613
0.00134911
-0.000132357
0.00389345
-0.0035358
0.00835194
-0.00949679
0.0151101
-0.0179879
0.0241961
-0.0285982
0.0351173
-0.0404455
0.0469345
-0.0523849
0.058542
-0.0633588
0.0689858
-0.0726634
0.0776833
-0.0800391
0.0844937
-0.0856119
0.0896495
-0.0897521
0.0936003
-0.092913
0.0968369
-0.095501
0.0997594
-0.0978082
0.102622
-0.100005
0.105546
-0.102173
0.108581
-0.104347
0.111734
-0.106549
0.115045
-0.108786
0.118524
-0.111131
0.122258
-0.113458
-0.11614
0.126264
0.000329591
0.000472022
0.00191018
-0.00171295
0.00533534
-0.00696095
0.0111054
-0.0152668
0.0193634
-0.026246
0.0296385
-0.0388732
0.0408946
-0.0517016
0.0518982
-0.0633885
0.0616363
-0.0730969
0.0695665
-0.0805936
0.0756464
-0.086119
0.0801965
-0.090162
0.0836931
-0.0932487
0.0865862
-0.0958061
0.0892011
-0.0981159
0.0917267
-0.100334
0.0942579
-0.102536
0.0968464
-0.104761
0.099532
-0.107033
0.102353
-0.10937
0.10535
-0.111783
0.108523
-0.114304
0.111918
-0.116853
-0.119687
0.115464
0.000506102
-3.40801e-05
0.00266776
-0.00387461
0.00711326
-0.0114064
0.014177
-0.0223306
0.0235313
-0.0356004
0.0341176
-0.0494595
0.0445721
-0.062156
0.0537783
-0.0725947
0.0611759
-0.0804945
0.0667605
-0.0861782
0.0708876
-0.0902461
0.0740313
-0.0933057
0.0766082
-0.0958256
0.0789063
-0.0981042
0.0810956
-0.100305
0.0832711
-0.102509
0.0854902
-0.104755
0.087791
-0.107062
0.0901986
-0.10944
0.0927251
-0.111896
0.0953775
-0.114436
0.0981401
-0.117067
0.101052
-0.119765
-0.12267
0.104035
0.000735256
-0.000769336
0.00357616
-0.00671551
0.00906664
-0.0168969
0.0171611
-0.030425
0.0269165
-0.0453557
0.0368591
-0.0594021
0.0457029
-0.0709999
0.0527835
-0.0796752
0.0580637
-0.0857748
0.061895
-0.0900095
0.0647458
-0.0930969
0.0670231
-0.0955829
0.0690087
-0.0978112
0.0708724
-0.0999678
0.0727083
-0.102141
0.0745674
-0.104368
0.0764757
-0.106664
0.0784469
-0.109033
0.0804891
-0.111483
0.0826117
-0.114019
0.0848245
-0.116649
0.0871335
-0.119376
0.0895614
-0.122193
-0.125164
0.0920555
0.00100571
-0.00177504
0.00456341
-0.0102732
0.0109695
-0.0233031
0.0196032
-0.0390587
0.0289789
-0.0547314
0.0375807
-0.0680039
0.0445297
-0.0779489
0.049672
-0.0848175
0.053318
-0.0894209
0.055934
-0.0926255
0.0579385
-0.0951013
0.059626
-0.0972705
0.0611729
-0.0993581
0.0626723
-0.101467
0.0641692
-0.103638
0.0656852
-0.105884
0.0672335
-0.108212
0.0688268
-0.110627
0.0704787
-0.113135
0.072201
-0.115741
0.074001
-0.118449
0.0758774
-0.121252
0.0778376
-0.124153
-0.127165
0.0798387
0.00129968
-0.00307472
0.00553562
-0.0145092
0.0125684
-0.0303358
0.0211401
-0.0476304
0.0295146
-0.0631059
0.036475
-0.0749643
0.0416378
-0.0831117
0.0452177
-0.0883975
0.0476707
-0.0918739
0.0494399
-0.0943946
0.0508462
-0.0965077
0.0520815
-0.0985057
0.0532441
-0.100521
0.0543803
-0.102603
0.0555128
-0.104771
0.0566565
-0.107028
0.0578238
-0.109379
0.0590255
-0.111828
0.0602696
-0.114379
0.0615611
-0.117033
0.0629013
-0.119789
0.0642933
-0.122644
0.0657411
-0.125601
-0.128649
0.0672242
0.00159437
-0.00466909
0.00638407
-0.0192989
0.0136417
-0.0375934
0.0216069
-0.0555956
0.0286374
-0.0701364
0.0339668
-0.0802937
0.0376167
-0.0867615
0.0399987
-0.0907794
0.0415825
-0.0934577
0.0427297
-0.0955419
0.0436613
-0.0974393
0.0444915
-0.0993359
0.0452735
-0.101303
0.0460328
-0.103363
0.0467838
-0.105522
0.0475367
-0.107781
0.0483
-0.110143
0.0490812
-0.11261
0.0498877
-0.115185
0.0507253
-0.11787
0.0515983
-0.120662
0.05251
-0.123556
0.0534597
-0.12655
-0.129631
0.054442
0.00186273
-0.00653182
0.0070037
-0.0244398
0.01406
-0.0446497
0.0210432
-0.0625789
0.0266356
-0.0757288
0.0305039
-0.084162
0.0329344
-0.0891921
0.0344052
-0.0922502
0.0353294
-0.0943819
0.0359744
-0.0961869
0.0364824
-0.0979473
0.0369195
-0.0997729
0.0373149
-0.101698
0.0376832
-0.103731
0.0380336
-0.105872
0.0383742
-0.108121
0.0387127
-0.110481
0.0390571
-0.112954
0.039414
-0.115542
0.0397879
-0.118244
0.0401807
-0.121055
0.0405927
-0.123968
0.0410203
-0.126978
-0.130075
0.041464
0.0020809
-0.00861272
0.00732313
-0.0296821
0.0138165
-0.051143
0.0196277
-0.0683901
0.0238443
-0.0799454
0.0264707
-0.0867884
0.0279317
-0.090653
0.0286888
-0.0930074
0.0290738
-0.0947668
0.0292728
-0.0963859
0.0293735
-0.098048
0.0294133
-0.0998127
0.0294088
-0.101694
0.0293696
-0.103692
0.029303
-0.105805
0.0292161
-0.108034
0.029115
-0.11038
0.0290056
-0.112845
0.0288931
-0.115429
0.0287819
-0.118133
0.0286765
-0.120949
0.0285799
-0.123871
0.0284897
-0.126888
0.0284118
-0.129997
-0.000298965
-0.00185569
0.00215465
-0.0010702
-0.00540667
0.00617791
-0.00226426
-0.00831021
0.00950426
-0.00382448
-0.0104119
0.0119721
-0.00568152
-0.0118955
0.0137526
-0.00776791
-0.0130822
0.0151686
-0.0100318
-0.0142599
0.0165238
-0.012441
-0.0156087
0.0180178
-0.0149767
-0.0172074
0.0197432
-0.0176244
-0.019072
0.0217197
-0.0203642
-0.0211888
0.0239286
-0.0231645
-0.0235287
0.0263291
-0.0259773
-0.0260485
0.0288613
-0.0287339
-0.0286858
0.0314423
-0.0313417
-0.0313541
0.033962
-0.0336835
-0.0339381
0.0362798
-0.0356174
-0.0362901
0.0382241
-0.0369822
-0.0382292
0.039594
-0.0376033
-0.0395424
0.0401634
-0.0373078
-0.0399966
0.0397011
-0.0359318
-0.0393559
0.0379799
-0.0333439
-0.0373796
0.0347917
-0.0295223
-0.0337841
0.0299626
-0.0283515
-0.0245107
0.0233398
-0.000440608
-0.00141508
-0.00150067
-0.00434661
-0.00304371
-0.00676717
-0.00496612
-0.00848951
-0.00718542
-0.00967623
-0.00964326
-0.0106244
-0.0123063
-0.0115969
-0.0151608
-0.0127542
-0.0182034
-0.0141648
-0.0214321
-0.0158433
-0.0248393
-0.0177815
-0.0284084
-0.0199596
-0.0321099
-0.022347
-0.0358988
-0.024897
-0.0397105
-0.0275423
-0.0434579
-0.0301907
-0.0470271
-0.0327209
-0.0502766
-0.0349797
-0.0530379
-0.0367811
-0.0551239
-0.0379106
-0.0563403
-0.0381395
-0.056494
-0.0372259
-0.0553944
-0.0348837
-0.0308321
-0.0529138
-0.000543069
-0.000872011
-0.0018069
-0.00308278
-0.00358476
-0.00498932
-0.00573558
-0.00633868
-0.00816724
-0.00724457
-0.0108283
-0.00796332
-0.0136973
-0.00872784
-0.0167703
-0.00968132
-0.0200486
-0.0108864
-0.0235315
-0.0123604
-0.0272116
-0.0141014
-0.0310728
-0.0160985
-0.0350893
-0.0183305
-0.039225
-0.0207613
-0.0434319
-0.0233354
-0.0476487
-0.0259739
-0.0517969
-0.0285726
-0.0557764
-0.0310003
-0.0594594
-0.033098
-0.0626944
-0.0346756
-0.0653168
-0.0355171
-0.067129
-0.0354137
-0.0678354
-0.0341773
-0.0315719
-0.0670956
-0.000595212
-0.000276799
-0.00196315
-0.00171484
-0.00385114
-0.00310132
-0.00609139
-0.00409843
-0.00858375
-0.00475221
-0.0112794
-0.00526771
-0.0141613
-0.00584588
-0.0172265
-0.00661616
-0.0204722
-0.00764067
-0.023889
-0.00894365
-0.0274571
-0.0105332
-0.0311467
-0.0124089
-0.0349179
-0.0145593
-0.0387222
-0.016957
-0.0425042
-0.0195534
-0.0462032
-0.0222749
-0.0497531
-0.0250227
-0.0530792
-0.0276742
-0.0560913
-0.0300859
-0.0586788
-0.0320881
-0.0607158
-0.0334801
-0.0620835
-0.0340461
-0.0625855
-0.0336752
-0.0323698
-0.0617876
-0.000592285
0.000315486
-0.00195886
-0.000348267
-0.0038291
-0.00123108
-0.00601876
-0.00190877
-0.00841974
-0.00235124
-0.0109792
-0.00270826
-0.0136768
-0.00314828
-0.0165024
-0.0037905
-0.0194424
-0.00470074
-0.0224703
-0.00591571
-0.0255461
-0.0074574
-0.0286161
-0.00933886
-0.0316151
-0.0115603
-0.0344697
-0.0141024
-0.0371027
-0.0169204
-0.0394376
-0.0199401
-0.0414024
-0.0230579
-0.0429295
-0.026147
-0.0439518
-0.0290637
-0.0443967
-0.0316432
-0.0441504
-0.0337264
-0.0430061
-0.0351904
-0.0411774
-0.0355039
-0.035907
-0.0376403
-0.000536236
0.000851722
-0.00179783
0.000913329
-0.0035241
0.00049519
-0.00552215
8.92726e-05
-0.00767663
-0.00019676
-0.00991906
-0.000465821
-0.012215
-0.000852321
-0.0145355
-0.00147
-0.0168481
-0.00238813
-0.019098
-0.00366579
-0.0212142
-0.00534129
-0.0231102
-0.00744281
-0.0246895
-0.00998101
-0.0258517
-0.0129402
-0.0264988
-0.0162733
-0.0265458
-0.0198931
-0.0259264
-0.0236773
-0.0245951
-0.0274783
-0.0225245
-0.0311344
-0.0196811
-0.0344865
-0.0161521
-0.0372555
-0.0116495
-0.039693
-0.00623476
-0.0409186
-0.0416289
-0.000512863
-0.000431502
0.00128322
-0.00149327
0.0019751
-0.0029592
0.00196112
-0.00463769
0.00176776
-0.00638695
0.00155251
-0.00812379
0.00127102
-0.00978583
0.000809718
-0.0112997
4.3821e-05
-0.0126229
-0.00106484
-0.0136464
-0.00264238
-0.0142599
-0.00472776
-0.0143394
-0.00736333
-0.013756
-0.0105644
-0.0123947
-0.0143015
-0.0101479
-0.0185201
-0.00694213
-0.0230988
-0.00273835
-0.0278811
0.0024686
-0.0326853
0.00863399
-0.0372997
0.0157204
-0.0415729
0.0236279
-0.045163
0.0324351
-0.0485002
0.0416456
-0.0501291
-0.0526164
0.0526332
-0.000295528
0.00157875
-0.00108523
0.0027648
-0.00219026
0.00306615
-0.00342253
0.00300003
-0.00462531
0.00275528
-0.00567953
0.00232524
-0.00648595
0.00161614
-0.00695117
0.000509036
-0.0069397
-0.00107631
-0.00633107
-0.00325101
-0.00497663
-0.0060822
-0.00272449
-0.00961547
0.000561413
-0.0138503
0.00500152
-0.0187416
0.010646
-0.0241646
0.0175084
-0.0299613
0.0255447
-0.0359174
0.0346614
-0.0418019
0.0447443
-0.0473826
0.0556508
-0.0524794
0.067261
-0.0567733
0.0795053
-0.0607444
0.0922087
-0.0628326
-0.0664378
0.10603
-0.000147925
0.00172668
-0.000624441
0.00324132
-0.00130256
0.00374427
-0.00200296
0.00370043
-0.00255027
0.00330259
-0.00278873
0.0025637
-0.00257559
0.001403
-0.00176781
-0.000298741
-0.00019436
-0.00264976
0.00231302
-0.0057584
0.00592532
-0.00969449
0.010785
-0.0144751
0.0169929
-0.0200582
0.0245783
-0.026327
0.033502
-0.0330883
0.043641
-0.0401003
0.0548009
-0.0470773
0.0667452
-0.0537463
0.0792399
-0.0598773
0.0919991
-0.0652386
0.10498
-0.0697539
0.11773
-0.0734945
0.130805
-0.0759078
-0.0788509
0.143218
-1.22289e-05
0.00173891
-0.000173401
0.00340249
-0.000400967
0.00397184
-0.000524043
0.0038235
-0.000349633
0.00312818
0.00031405
0.00190002
0.00166126
5.57869e-05
0.00388742
-0.0025249
0.00719662
-0.00595895
0.0117782
-0.01034
0.0177851
-0.0157014
0.025305
-0.021995
0.0343256
-0.0290788
0.0447209
-0.0367223
0.0562555
-0.0446229
0.0686104
-0.0524552
0.0814092
-0.0598761
0.0942957
-0.0666328
0.106914
-0.0724953
0.11902
-0.0773446
0.130515
-0.081249
0.141069
-0.0840483
0.15139
-0.0862291
-0.087756
0.160295
9.10823e-05
0.00164782
0.000207829
0.00328575
0.000412913
0.00376675
0.000875112
0.0033613
0.00180916
0.00219413
0.00344511
0.000264077
0.00603301
-0.00253212
0.0098127
-0.00630459
0.0150115
-0.0111577
0.0217975
-0.017126
0.0302365
-0.0241404
0.0402546
-0.032013
0.0516225
-0.0404468
0.0639711
-0.0490708
0.0768352
-0.0574871
0.0897112
-0.0653312
0.102128
-0.0722931
0.113709
-0.0782131
0.124171
-0.0829582
0.133484
-0.0866567
0.141582
-0.0893478
0.148761
-0.0912271
0.155223
-0.0926913
-0.0931173
0.160585
0.000148976
0.000482787
0.00107886
0.00212071
0.00385463
0.00657073
0.0105567
0.0160858
0.0233464
0.0323805
0.0430366
0.0549617
0.0676399
0.0804652
0.0928333
0.104225
0.114289
0.122851
0.129957
0.135821
0.140701
0.145189
0.149452
0.154806
-0.0142138
-0.0290925
0.0187957
-0.00293037
-0.0102333
-0.00105019
0.00953599
0.0115748
-0.0240411
0.0224594
0.0376914
-0.0506148
0.0359281
0.065685
-0.0791537
0.049732
0.0931034
-0.106907
0.0631552
0.116948
-0.130371
0.0752165
0.134637
-0.146698
0.0843767
0.145588
-0.154748
0.0884358
0.152217
-0.156276
0.0866675
0.159148
-0.15738
0.0825305
0.167717
-0.16358
0.082426
0.171017
-0.170913
0.0907654
0.157085
-0.165424
0.105573
0.119706
-0.134513
0.121849
0.0615534
-0.0778287
0.136781
-0.0113605
-0.0035716
0.149312
-0.087211
0.07468
0.158672
-0.148541
0.139181
0.164267
-0.183362
0.177767
0.165857
-0.196612
0.195022
0.165368
-0.200726
0.201215
0.165268
-0.198718
0.198818
0.165241
-0.19433
0.194356
0.163362
-0.204195
0.206075
0.159632
-0.23438
0.23811
0.156104
-0.256693
0.260221
0.153988
-0.228479
0.230595
0.153383
-0.136007
0.136611
0.153786
-0.00261806
0.00221507
0.153294
0.134052
-0.133559
0.152519
0.238474
-0.237699
0.152011
0.291646
-0.291139
0.148286
0.311049
-0.307324
0.138524
0.333445
-0.323683
0.125287
0.357282
-0.344044
0.112179
0.34322
-0.330112
0.101188
0.267825
-0.256834
0.0947517
0.141049
-0.134612
0.094112
-0.00537112
0.0060108
0.0978707
-0.135456
0.131697
0.104602
-0.224193
0.217462
0.111167
-0.264365
0.2578
0.11245
-0.27396
0.272677
0.107232
-0.27659
0.281808
0.101162
-0.267808
0.273878
0.100279
-0.221865
0.222748
0.105507
-0.137123
0.131896
0.114059
-0.0367587
0.0282059
0.122823
0.0506467
-0.05941
0.130447
0.113223
-0.120847
0.135877
0.149155
-0.154585
0.137768
0.162639
-0.16453
0.135355
0.171875
-0.169461
0.133247
0.149839
-0.14773
0.13606
0.121835
-0.124649
0.142838
0.0484654
-0.0552439
0.151334
0.00480078
-0.0132972
0.15829
-0.0457829
0.0388278
-0.0636626
0.0612027
-0.0435551
-0.0384512
-0.0315944
-0.022194
-0.0179133
-0.00210631
-0.00257133
0.0223494
0.0145659
0.0485478
0.0320069
0.0756624
0.0485665
0.100388
0.0631976
0.120006
0.0739615
0.134824
0.0796408
0.146538
0.0816566
0.157133
0.0844291
0.164945
0.0929218
0.162524
0.108093
0.141913
0.125432
0.102367
0.140681
0.0463045
0.15294
-0.02362
0.161833
-0.0961042
0.16684
-0.153548
0.168281
-0.184803
0.166523
-0.194854
0.163225
-0.197428
0.160798
-0.19629
0.158801
-0.192333
0.154594
-0.199988
0.14803
-0.227815
0.142527
-0.25119
0.140461
-0.226413
0.141501
-0.137047
0.144757
-0.00587407
0.147836
0.130972
0.150738
0.235572
0.153197
0.289187
0.15156
0.312686
0.143706
0.3413
0.131812
0.369176
0.118696
0.356336
0.106661
0.27986
0.0983791
0.149331
0.0959301
-0.0029221
0.0981273
-0.137653
0.103602
-0.229668
0.109838
-0.2706
0.111987
-0.27611
0.107883
-0.272485
0.102143
-0.262068
0.101165
-0.220887
0.1064
-0.142359
0.114921
-0.0452794
0.123666
0.0419013
0.131394
0.105496
0.136461
0.144088
0.137176
0.161925
0.134007
0.175043
0.132417
0.151429
0.136747
0.117506
0.144564
0.0406479
0.15312
-0.0037554
0.159944
-0.0526065
-0.0660132
-0.0610672
-0.0444795
-0.0513847
-0.0318765
-0.0389068
-0.0145842
-0.0233301
0.00677274
-0.00619477
0.0314125
0.0129177
0.05655
0.0312665
0.0820392
0.0479546
0.103318
0.0612028
0.121576
0.0709795
0.136761
0.0793431
0.148769
0.0900376
0.15425
0.10603
0.146532
0.12572
0.122223
0.143761
0.0843266
0.157113
0.0329526
0.166616
-0.0331237
0.172311
-0.101799
0.173451
-0.154687
0.171061
-0.182413
0.166375
-0.190168
0.160626
-0.191679
0.15604
-0.191704
0.152336
-0.188629
0.146267
-0.193919
0.137101
-0.218649
0.129291
-0.243379
0.127133
-0.224255
0.129919
-0.139834
0.135812
-0.011767
0.142539
0.124246
0.149239
0.228871
0.154739
0.283688
0.155513
0.311911
0.149949
0.346863
0.139815
0.37931
0.126937
0.369213
0.113626
0.293172
0.103156
0.1598
0.0984549
0.00177938
0.0989186
-0.138117
0.103043
-0.233792
0.108738
-0.276296
0.111582
-0.278953
0.10868
-0.269584
0.103429
-0.256817
0.102184
-0.219643
0.107152
-0.147326
0.11564
-0.0537674
0.124576
0.0329654
0.132426
0.0976449
0.136889
0.139625
0.136326
0.162488
0.132727
0.178643
0.13204
0.152116
0.13787
0.111676
0.146566
0.0319513
0.155034
-0.0122234
0.161521
-0.0590937
-0.0682046
-0.0600973
-0.0461698
-0.0548529
-0.0371209
-0.0463131
-0.0231241
-0.0337673
-0.00577303
-0.0184607
0.0161059
-0.00151627
0.0396056
0.0174461
0.0630769
0.0356091
0.0851548
0.0521608
0.105024
0.0671053
0.121817
0.0819462
0.133928
0.0992033
0.136993
0.120099
0.125636
0.141599
0.100723
0.158913
0.0670127
0.170723
0.0211423
0.178272
-0.0406724
0.181163
-0.10469
0.178689
-0.152213
0.172803
-0.176527
0.165567
-0.182932
0.157769
-0.183882
0.151231
-0.185166
0.14604
-0.183438
0.138607
-0.186486
0.127329
-0.207372
0.117051
-0.233101
0.114113
-0.221318
0.118703
-0.144424
0.127254
-0.0203175
0.137485
0.114015
0.14786
0.218497
0.156415
0.275132
0.159822
0.308504
0.156849
0.349837
0.14839
0.387769
0.135851
0.381752
0.121669
0.307354
0.109138
0.172332
0.101788
0.00912846
0.100286
-0.136615
0.102967
-0.236473
0.107914
-0.281243
0.111204
-0.282244
0.109464
-0.267843
0.104948
-0.252301
0.103523
-0.218217
0.108032
-0.151835
0.116448
-0.0621837
0.125645
0.0237686
0.133487
0.0898035
0.137091
0.136021
0.135285
0.164293
0.131622
0.182307
0.132135
0.151602
0.13935
0.104461
0.148724
0.0225769
0.15702
-0.0205191
0.163043
-0.0651171
-0.0701958
-0.0394819
-0.0443282
-0.0386286
-0.0379742
-0.0344863
-0.0272663
-0.0268363
-0.0134231
-0.0152824
0.0045521
-0.00142591
0.025749
0.0158058
0.0458452
0.0341819
0.0667787
0.0529714
0.0862347
0.0717177
0.10307
0.090938
0.114708
0.11189
0.116041
0.13437
0.103156
0.154938
0.0801544
0.170456
0.0514954
0.181027
0.010571
0.187208
-0.0468537
0.187648
-0.10513
0.182007
-0.146572
0.173139
-0.167659
0.163891
-0.173684
0.154605
-0.174597
0.146445
-0.177005
0.140082
-0.177075
0.131899
-0.178303
0.119068
-0.19454
0.106139
-0.220172
0.101488
-0.216666
0.106946
-0.149883
0.118156
-0.0315272
0.131985
0.100186
0.14617
0.204311
0.157986
0.263316
0.164411
0.302079
0.164541
0.349707
0.158363
0.393947
0.146541
0.393574
0.131346
0.322549
0.116472
0.187206
0.105999
0.0196012
0.102203
-0.132819
0.103313
-0.237582
0.107338
-0.285268
0.110867
-0.285773
0.110139
-0.267115
0.106501
-0.248663
0.10519
-0.216906
0.109287
-0.155933
0.117564
-0.0704609
0.12692
0.0144125
0.134494
0.0822302
0.137032
0.133483
0.134143
0.167182
0.130776
0.185673
0.132679
0.149699
0.141107
0.0960339
0.150938
0.0127454
0.159011
-0.0285919
0.164512
-0.070618
-0.0719649
-0.0048377
-0.0400034
-0.00761499
-0.0351969
-0.00719028
-0.027691
-0.00362164
-0.0169917
0.00437324
-0.00344278
0.016042
0.0140802
0.0300226
0.0318646
0.0468072
0.0499941
0.0655107
0.0675313
0.0853875
0.0831934
0.106033
0.0940627
0.127505
0.0945681
0.148476
0.0821858
0.166039
0.0625919
0.179248
0.0382863
0.188903
0.000915325
0.193712
-0.051662
0.191749
-0.103168
0.183443
-0.138266
0.1722
-0.156415
0.161456
-0.16294
0.151262
-0.164403
0.141862
-0.167605
0.134448
-0.169661
0.126088
-0.169943
0.112701
-0.181153
0.0974044
-0.204875
0.0900296
-0.209292
0.0952342
-0.155087
0.108543
-0.0448355
0.125771
0.0829573
0.143554
0.186528
0.158874
0.247997
0.168682
0.292271
0.171826
0.346563
0.167873
0.3979
0.157099
0.404349
0.141585
0.338062
0.124728
0.204063
0.111158
0.0331715
0.104668
-0.126329
0.104056
-0.23697
0.106985
-0.288196
0.110539
-0.289327
0.110663
-0.267239
0.107872
-0.245872
0.106983
-0.216017
0.110956
-0.159906
0.119087
-0.0785922
0.128372
0.00512793
0.135361
0.0752409
0.13671
0.132134
0.132992
0.1709
0.130247
0.188418
0.133629
0.146317
0.143077
0.0865855
0.153143
0.0026793
0.160953
-0.0364013
0.16592
-0.075585
-0.0735111
0.0448175
-0.0321877
0.0382595
-0.028639
0.0340726
-0.0235041
0.0333561
-0.0162752
0.0363687
-0.00645531
0.0435843
0.00686454
0.0540458
0.0214032
0.0678239
0.036216
0.0845165
0.0508386
0.1033
0.0644103
0.123105
0.0742574
0.142892
0.0747807
0.160695
0.0643833
0.174812
0.0484751
0.186078
0.0270203
0.195164
-0.0081706
0.198226
-0.0547243
0.193604
-0.0985456
0.182999
-0.127661
0.17003
-0.143446
0.158241
-0.151151
0.147659
-0.153821
0.137548
-0.157494
0.129266
-0.161379
0.121008
-0.161685
0.107964
-0.168109
0.0911546
-0.188066
0.080534
-0.198671
0.084126
-0.158679
0.0987269
-0.0594364
0.118875
0.0628088
0.139972
0.165431
0.158605
0.229364
0.172145
0.278731
0.17942
0.339288
0.178637
0.398683
0.169117
0.413868
0.153007
0.354172
0.134008
0.223062
0.11703
0.0501494
0.107605
-0.116904
0.105126
-0.234491
0.106836
-0.289906
0.110178
-0.292669
0.111038
-0.268099
0.108947
-0.24378
0.108588
-0.215658
0.11281
-0.164128
0.120905
-0.0866876
0.129887
-0.00385316
0.136012
0.0691159
0.136151
0.131995
0.131916
0.175134
0.130068
0.190266
0.134932
0.141454
0.145212
0.0763049
0.155306
-0.0074141
0.162807
-0.0439023
0.167256
-0.080034
-0.0748521
0.0980319
-0.0241895
0.0904386
-0.0210457
0.083771
-0.0168365
0.078877
-0.0113812
0.0766636
-0.00424196
0.0780194
0.00550875
0.0832205
0.0162021
0.092172
0.0272645
0.104811
0.0381993
0.120531
0.0486908
0.137989
0.0567993
0.155217
0.0575528
0.170046
0.0495538
0.18199
0.0365319
0.192277
0.0167326
0.199951
-0.0158441
0.200531
-0.0553049
0.193016
-0.0910302
0.180616
-0.115261
0.16673
-0.129559
0.154356
-0.138778
0.143779
-0.143244
0.133416
-0.147131
0.124488
-0.152452
0.116508
-0.153705
0.104647
-0.156248
0.0875562
-0.170975
0.0737913
-0.184906
0.0743326
-0.159221
0.0889653
-0.0740691
0.111259
0.0405148
0.135103
0.141588
0.156685
0.207782
0.173705
0.261712
0.184593
0.3284
0.187275
0.396
0.180147
0.420996
0.164353
0.369967
0.143665
0.243749
0.123752
0.0700626
0.111064
-0.104216
0.106472
-0.2299
0.106896
-0.290329
0.109756
-0.29553
0.111246
-0.269589
0.109724
-0.242258
0.109737
-0.21567
0.114437
-0.168828
0.122708
-0.0949588
0.131279
-0.0124248
0.136371
0.0640243
0.135387
0.132979
0.130975
0.179546
0.130246
0.190995
0.136536
0.135164
0.147454
0.0653871
0.157415
-0.0173748
0.164547
-0.0510349
0.168507
-0.0839941
-0.0760193
0.136806
-0.0177773
0.131098
-0.0153379
0.125996
-0.0117339
0.121642
-0.00702735
0.118723
-0.00132293
0.117431
0.00680009
0.118342
0.0152913
0.122352
0.0232548
0.129747
0.030804
0.140538
0.0378996
0.153878
0.0434595
0.167619
0.0438123
0.179636
0.0375366
0.189814
0.0263538
0.198316
0.00822996
0.203006
-0.0205334
0.200113
-0.0524125
0.189916
-0.0808331
0.176435
-0.101779
0.162437
-0.115561
0.149864
-0.126205
0.139509
-0.132889
0.129378
-0.137
0.119987
-0.143062
0.112259
-0.145977
0.102001
-0.145989
0.0860199
-0.154994
0.0701394
-0.169026
0.066677
-0.155758
0.0797961
-0.0871882
0.103225
0.0170862
0.129212
0.115601
0.15355
0.183444
0.17419
0.241072
0.189523
0.313067
0.196354
0.389169
0.191756
0.425594
0.175898
0.385825
0.153434
0.266213
0.130562
0.0929352
0.114777
-0.0884315
0.107968
-0.223091
0.107085
-0.289445
0.109241
-0.297685
0.111206
-0.271555
0.110247
-0.2413
0.110331
-0.215754
0.115426
-0.173923
0.124082
-0.103615
0.132305
-0.0206483
0.13638
0.0599497
0.134469
0.13489
0.130215
0.1838
0.130773
0.190437
0.138388
0.127549
0.149761
0.0540138
0.159445
-0.0270591
0.166157
-0.0577468
0.169664
-0.0875012
-0.0770548
0.15571
-0.0131924
0.152061
-0.011689
0.149224
-0.00889703
0.147279
-0.00508235
0.146337
-0.000380365
0.146555
0.00658147
0.148228
0.0136185
0.151263
0.0202201
0.155989
0.0260782
0.162857
0.0310313
0.171798
0.034519
0.181327
0.0342829
0.189783
0.0290804
0.197098
0.0190393
0.202358
0.00296985
0.20255
-0.0207259
0.19611
-0.0459728
0.184191
-0.0689136
0.170533
-0.0881211
0.157179
-0.102208
0.144805
-0.113831
0.134696
-0.12278
0.12516
-0.127464
0.115588
-0.133489
0.107991
-0.13838
0.0995169
-0.137515
0.0856269
-0.141104
0.0692852
-0.152684
0.061889
-0.148362
0.0717585
-0.0970577
0.0946609
-0.00581624
0.121849
0.088412
0.148048
0.157245
0.17135
0.21777
0.190213
0.294204
0.201143
0.378239
0.200802
0.425935
0.187559
0.399068
0.163814
0.289958
0.138243
0.118506
0.119098
-0.0692861
0.109521
-0.213514
0.107148
-0.287072
0.108524
-0.299061
0.110764
-0.273795
0.11048
-0.241016
0.110418
-0.215692
0.115533
-0.179038
0.12463
-0.112711
0.132701
-0.0287192
0.135951
0.0566998
0.1334
0.137441
0.129638
0.187562
0.131614
0.188461
0.14043
0.118734
0.152081
0.0423625
0.161373
-0.0363516
0.167622
-0.0639954
0.170717
-0.0905957
-0.0780078
0.157522
-0.0101298
0.155151
-0.00931802
0.153542
-0.0072879
0.153189
-0.00472978
0.154253
-0.00144377
0.156969
0.00386517
0.160605
0.0099823
0.164829
0.0159964
0.169905
0.0210019
0.175986
0.0249502
0.18295
0.0275558
0.189752
0.0274801
0.195267
0.0235656
0.199202
0.0151041
0.200024
0.00214847
0.196616
-0.0173186
0.188244
-0.0376007
0.176259
-0.0569283
0.1633
-0.0751625
0.151055
-0.0899617
0.139241
-0.102017
0.12931
-0.112849
0.120595
-0.118749
0.111231
-0.124125
0.103547
-0.130696
0.0966998
-0.130669
0.0855564
-0.129961
0.0704402
-0.137568
0.0604259
-0.138348
0.066156
-0.102788
0.0869245
-0.0265847
0.114494
0.0608425
0.142265
0.129474
0.168568
0.191467
0.19149
0.271283
0.206615
0.363115
0.208858
0.423691
0.19648
0.411446
0.172713
0.313726
0.144926
0.146292
0.123139
-0.0474996
0.111168
-0.201543
0.107354
-0.283258
0.107819
-0.299527
0.110018
-0.275995
0.110454
-0.241451
0.11021
-0.215448
0.114802
-0.18363
0.124081
-0.121991
0.132253
-0.0368909
0.135037
0.0539154
0.132248
0.14023
0.129287
0.190523
0.132745
0.185003
0.142617
0.108862
0.154367
0.0306127
0.163174
-0.0451592
0.168931
-0.0697525
0.171659
-0.0933231
-0.0789316
0.152765
-0.00808825
0.150622
-0.00717571
0.149153
-0.00581863
0.14864
-0.00421698
0.14909
-0.00189346
0.151279
0.00167607
0.15506
0.00620177
0.160114
0.0109426
0.165929
0.0151864
0.172106
0.0187737
0.1786
0.0210616
0.184627
0.0214525
0.189154
0.0190387
0.191692
0.0125661
0.191767
0.00207383
0.186787
-0.0123387
0.17857
-0.0293834
0.167881
-0.0462398
0.156114
-0.0633957
0.145038
-0.0788855
0.134062
-0.0910409
0.124215
-0.103002
0.116248
-0.110782
0.107513
-0.11539
0.0995891
-0.122772
0.0938917
-0.124971
0.085474
-0.121543
0.0724916
-0.124585
0.061822
-0.127678
0.0634242
-0.10439
0.0795154
-0.042676
0.104809
0.035549
0.132216
0.102066
0.159599
0.164085
0.185712
0.245169
0.206033
0.342794
0.214397
0.415326
0.206825
0.419019
0.18418
0.33637
0.154768
0.175705
0.129655
-0.0223864
0.114509
-0.186396
0.108624
-0.277373
0.107887
-0.29879
0.109545
-0.277653
0.110439
-0.242346
0.110052
-0.215061
0.11365
-0.187228
0.122587
-0.130928
0.130818
-0.0451216
0.133579
0.0511549
0.130947
0.142862
0.129032
0.192438
0.13408
0.179955
0.144918
0.098024
0.156583
0.0189472
0.164825
-0.0534008
0.170076
-0.0750034
0.172487
-0.0957346
-0.0798826
0.181539
-0.00491387
-0.184713
0.178986
-0.0046232
0.176879
-0.00371114
0.175075
-0.00241338
0.173589
-0.000407495
0.173058
0.00220741
0.173714
0.00554616
0.175506
0.00914991
0.178273
0.0124196
0.181953
0.0150935
0.186443
0.0165716
0.19169
0.0162061
0.19717
0.0135586
0.202185
0.00755045
0.205951
-0.00169157
0.207377
-0.0137644
0.20643
-0.028437
0.203361
-0.0431707
0.198196
-0.0582302
0.19202
-0.07271
0.184683
-0.0837037
0.176234
-0.0945532
0.1683
-0.102849
0.159521
-0.106611
0.149742
-0.112992
0.141253
-0.116482
0.131854
-0.112144
0.118028
-0.11076
0.101134
-0.110784
0.0876819
-0.0909376
0.0847529
-0.039747
0.0926593
0.0276426
0.1065
0.088225
0.12078
0.149805
0.132847
0.233102
0.142409
0.333232
0.149695
0.408041
0.15347
0.415243
0.153306
0.336534
0.151865
0.177146
0.150431
-0.0209521
0.148777
-0.184743
0.145793
-0.274389
0.141144
-0.294141
0.136091
-0.272599
0.131329
-0.237584
0.126177
-0.209909
0.123405
-0.184456
0.124677
-0.1322
0.125685
-0.0461294
0.122524
0.0543151
0.11714
0.148247
0.116529
0.193048
0.124868
0.171617
0.137594
0.0852976
0.148821
0.00771994
0.155221
-0.0598005
0.158126
-0.0779082
0.15829
-0.0958985
-0.0789728
0.191881
-0.00241025
-0.194385
0.189699
-0.00244107
0.18791
-0.00192185
0.186466
-0.000969246
0.185531
0.000527494
0.185179
0.00255934
0.185767
0.00495831
0.187348
0.00756845
0.189875
0.00989238
0.193309
0.0116603
0.19742
0.0124605
0.202011
0.0116151
0.206629
0.00894005
0.21066
0.00351995
0.213507
-0.00453896
0.214452
-0.0147091
0.213303
-0.027288
0.210348
-0.0402158
0.205333
-0.0532151
0.198983
-0.0663605
0.191684
-0.0764043
0.18323
-0.0860989
0.175088
-0.0947074
0.166567
-0.098089
0.156781
-0.103207
0.147773
-0.107474
0.138155
-0.102526
0.12499
-0.0975948
0.109941
-0.095735
0.0981556
-0.079152
0.0950694
-0.0366608
0.102563
0.020149
0.115856
0.0749323
0.13003
0.135631
0.142847
0.220285
0.154156
0.321923
0.16361
0.398587
0.169164
0.409689
0.169379
0.336318
0.168257
0.178268
0.167128
-0.0198226
0.164405
-0.18202
0.159723
-0.269706
0.153622
-0.28804
0.147241
-0.266218
0.141785
-0.232128
0.13634
-0.204464
0.13251
-0.180627
0.132471
-0.132161
0.132433
-0.0460912
0.128658
0.05809
0.123653
0.153252
0.125047
0.191653
0.135691
0.160973
0.149509
0.0714803
0.160695
-0.00346586
0.166442
-0.0655475
0.168661
-0.0801275
0.16825
-0.095488
-0.0777636
0.203096
-0.000397416
-0.205108
0.201294
-0.000639053
0.199756
-0.000384774
0.198495
0.000291799
0.197676
0.00134684
0.19747