/*--------------------------------*- C++ -*----------------------------------*\
| =========                 |                                                 |
| \\      /  F ield         | OpenFOAM: The Open Source CFD Toolbox           |
|  \\    /   O peration     | Version:  2512                                  |
|   \\  /    A nd           | Website:  www.openfoam.com                      |
|    \\/     M anipulation  |                                                 |
\*---------------------------------------------------------------------------*/
FoamFile
{
    version     2.0;
    format      ascii;
    arch        "LSB;label=32;scalar=64";
    class       volVectorField;
    location    "50";
    object      U;
}
// * * * * * * * * * * * * * * * * * * * * * * * * * * * * * * * * * * * * * //

dimensions      [0 1 -1 0 0 0 0];

internalField   nonuniform List<vector> 
13248
(
(-0.01759 0.0174444 5.94321e-20)
(-0.0306608 0.035038 0)
(-0.0239928 0.0410441 -1.03387e-19)
(0.00045749 0.0388167 9.57296e-20)
(0.0428264 0.0314998 8.88732e-20)
(0.104459 0.0213397 0)
(0.186831 0.00982175 0)
(0.290215 -0.00191978 2.13049e-19)
(0.412418 -0.0129535 -3.45045e-22)
(0.548148 -0.0225628 -1.82808e-19)
(0.689437 -0.0303295 1.66811e-19)
(0.826978 -0.0361877 -1.03514e-19)
(0.95181 -0.0403748 0)
(1.0568 -0.0432988 -1.63523e-19)
(1.13762 -0.0453736 2.97248e-19)
(1.19303 -0.0469301 -7.08794e-20)
(1.22478 -0.0480437 -1.11266e-19)
(1.23659 -0.0488595 1.03738e-19)
(1.23382 -0.0487778 0)
(1.22144 -0.0487387 0)
(1.2046 -0.0459864 0)
(1.18608 -0.0460706 0)
(1.16926 -0.0386543 2.2786e-20)
(1.15127 -0.0430282 7.16162e-20)
(-0.016763 0.0142249 -1.78715e-19)
(-0.025429 0.0271908 1.12672e-19)
(-0.0099463 0.0304113 -2.87429e-22)
(0.0287837 0.0267298 -1.44505e-19)
(0.0916302 0.0191319 -8.87491e-20)
(0.179958 0.0100336 -8.23724e-20)
(0.293807 0.00129965 -1.52273e-19)
(0.429974 -0.00571139 1.40855e-19)
(0.581052 -0.0102555 0)
(0.736259 -0.0122943 8.98724e-22)
(0.883645 -0.0124237 8.69539e-22)
(1.0126 -0.0116128 1.00653e-19)
(1.11574 -0.0108575 0)
(1.18981 -0.0108839 0)
(1.23558 -0.0119996 1.03551e-19)
(1.25713 -0.0140765 -1.92925e-19)
(1.26037 -0.0166863 1.06282e-19)
(1.25183 -0.0192745 -9.90949e-20)
(1.23713 -0.0212523 -4.08354e-20)
(1.22047 -0.022419 -6.92037e-20)
(1.20439 -0.0220304 -2.55245e-20)
(1.18958 -0.0215998 -4.634e-20)
(1.17699 -0.0173037 7.2403e-20)
(1.16315 -0.0191275 1.93019e-20)
(-0.0156436 0.0112745 0)
(-0.0170276 0.0189642 0)
(0.0117534 0.0188142 5.19347e-20)
(0.0707239 0.0137593 4.77542e-20)
(0.1611 0.00696761 -3.79083e-22)
(0.282769 0.00114791 -8.2728e-20)
(0.431455 -0.0017947 0)
(0.597213 -0.00107081 -7.02334e-20)
(0.765761 0.00286796 6.38196e-20)
(0.922007 0.00860672 -1.18075e-21)
(1.05371 0.0143542 -1.06518e-19)
(1.15373 0.0185656 -9.43227e-20)
(1.22064 0.0203609 3.535e-21)
(1.25785 0.0196397 -7.1159e-20)
(1.27192 0.0169422 1.73983e-19)
(1.27044 0.0131353 0)
(1.26036 0.00914055 -1.01862e-19)
(1.24672 0.00559114 4.98919e-20)
(1.23244 0.00309314 4.07933e-20)
(1.21879 0.00130776 0)
(1.20584 0.00130581 3.05679e-20)
(1.19362 0.000627642 -1.00437e-19)
(1.18141 0.00335121 9.37926e-20)
(1.16931 0.000608532 5.40536e-20)
(-0.0137323 0.00852249 -6.11317e-20)
(-0.00370399 0.0108771 -5.81004e-20)
(0.0445154 0.00779746 5.27158e-20)
(0.131209 0.00262942 0)
(0.256312 -0.00105992 0)
(0.414962 -0.000569231 -3.55378e-22)
(0.594683 0.00506798 0)
(0.777058 0.0148371 -2.06862e-19)
(0.943132 0.0263326 1.89212e-19)
(1.07876 0.0368369 -2.31059e-19)
(1.1773 0.044295 5.24875e-20)
(1.23951 0.0478169 0)
(1.27149 0.0476522 8.08723e-20)
(1.28186 0.0448042 -1.46953e-19)
(1.27907 0.040513 3.48835e-20)
(1.26966 0.0358614 8.33493e-20)
(1.25761 0.0315363 -6.02401e-21)
(1.2448 0.02792 -8.9562e-20)
(1.23189 0.0250415 0)
(1.21897 0.022876 0)
(1.20631 0.0216318 -2.895e-20)
(1.19385 0.01999 2.52074e-20)
(1.18243 0.0213248 8.52857e-20)
(1.17084 0.0170292 -7.96232e-20)
(-0.0101524 0.00573074 -6.28391e-20)
(0.0167928 0.00315339 -5.85424e-20)
(0.0917649 -0.00137099 1.62096e-19)
(0.213741 -0.00414574 -9.8185e-20)
(0.378007 -0.00147671 9.09504e-20)
(0.570345 0.00823331 1.65003e-19)
(0.767783 0.0235122 -1.14189e-19)
(0.946322 0.0407723 -1.35534e-19)
(1.08899 0.0561677 3.55752e-21)
(1.18928 0.067072 1.70814e-19)
(1.25 0.072628 0)
(1.27968 0.073472 4.41165e-20)
(1.28852 0.0710315 0)
(1.28537 0.0668122 -6.88688e-20)
(1.27628 0.0619646 9.59869e-20)
(1.26464 0.0571622 1.08001e-21)
(1.25198 0.052731 -2.37685e-20)
(1.23902 0.0487701 4.33602e-20)
(1.22613 0.0453451 3.66346e-20)
(1.21373 0.0424535 -3.20823e-20)
(1.20197 0.0401987 2.89364e-20)
(1.19123 0.0380684 -2.51954e-20)
(1.18109 0.03779 0)
(1.17159 0.0333855 -1.85715e-20)
(-0.00385341 0.00274743 6.28234e-20)
(0.0467874 -0.00389043 6.03177e-20)
(0.156111 -0.00739338 -5.41851e-20)
(0.318937 -0.00424859 9.94669e-20)
(0.520846 0.00814549 -9.21339e-20)
(0.73474 0.0283872 8.25214e-20)
(0.929992 0.0515841 -3.86855e-20)
(1.08488 0.072382 1.01798e-19)
(1.19181 0.0873198 -6.24079e-20)
(1.25507 0.0954666 1.07445e-19)
(1.2853 0.0978008 -2.43617e-19)
(1.29416 0.0961343 8.74803e-20)
(1.29104 0.0922151 -7.50348e-20)
(1.28202 0.087295 6.98521e-20)
(1.27044 0.0821027 5.8491e-20)
(1.25794 0.0770182 5.00026e-20)
(1.24535 0.0722309 -1.37736e-19)
(1.23306 0.0678625 8.4491e-20)
(1.22134 0.0639619 -3.66284e-20)
(1.21018 0.0605603 9.31991e-20)
(1.19964 0.0576348 -2.99476e-20)
(1.18954 0.0549443 -7.04018e-20)
(1.17986 0.0533893 6.43146e-20)
(1.17066 0.048953 1.85653e-20)
(0.00620736 -0.000349108 0)
(0.0882368 -0.00947026 3.37396e-22)
(0.238596 -0.00852695 1.11153e-19)
(0.443472 0.00447957 -1.02595e-19)
(0.673654 0.028704 -9.16697e-20)
(0.890638 0.0581339 1.67714e-19)
(1.06474 0.0853304 -7.67471e-20)
(1.1848 0.105415 1.00349e-19)
(1.25539 0.11707 -2.57788e-21)
(1.28902 0.121513 -5.48565e-20)
(1.29911 0.120958 1.17524e-19)
(1.29617 0.117487 -1.70389e-19)
(1.28695 0.112572 0)
(1.27518 0.107093 -3.22065e-20)
(1.26266 0.101529 -8.46819e-20)
(1.2502 0.0961318 2.64775e-20)
(1.2381 0.0910347 1.25322e-21)
(1.22644 0.0862896 -5.52544e-20)
(1.21519 0.0819143 4.22138e-21)
(1.2044 0.0779081 6.26993e-20)
(1.19407 0.0742208 -2.70996e-20)
(1.18433 0.0709047 -1.00049e-20)
(1.1751 0.0681277 3.14226e-20)
(1.1664 0.0637781 0)
(0.0209098 -0.00313283 0)
(0.142273 -0.0121273 3.04325e-20)
(0.337898 -0.00258309 -1.42878e-19)
(0.579757 0.0235485 5.13649e-20)
(0.822395 0.059243 -4.75773e-20)
(1.02409 0.0942468 -4.23192e-20)
(1.1657 0.121201 -7.38244e-20)
(1.24987 0.137753 3.6347e-20)
(1.29054 0.145157 3.14162e-20)
(1.3035 0.146107 0)
(1.30128 0.1432 6.84771e-20)
(1.29192 0.138304 -9.99219e-20)
(1.27984 0.132541 7.38716e-20)
(1.26709 0.126514 3.22204e-20)
(1.25447 0.12052 -2.5781e-20)
(1.24224 0.114699 -2.11624e-20)
(1.23044 0.109117 -1.94501e-20)
(1.21912 0.103819 5.83529e-20)
(1.20834 0.0988358 0)
(1.19815 0.0941874 2.82937e-20)
(1.18857 0.0898898 2.31764e-20)
(1.17953 0.0859885 -5.77105e-20)
(1.17085 0.082283 -3.83751e-20)
(1.16266 0.0782132 3.54352e-20)
(0.0408393 -0.00493504 -3.451e-20)
(0.208762 -0.00997766 -9.09154e-22)
(0.449825 0.0125091 2.89278e-20)
(0.717341 0.0531147 7.90277e-20)
(0.955 0.097436 2.22659e-20)
(1.12889 0.133719 -4.24447e-20)
(1.23529 0.157312 3.84705e-20)
(1.28842 0.169059 -3.33004e-20)
(1.30698 0.172196 5.81722e-20)
(1.30653 0.170092 2.45344e-20)
(1.29723 0.165238 -6.83836e-20)
(1.28465 0.159137 2.00616e-20)
(1.2713 0.15257 3.37232e-20)
(1.25813 0.145904 -1.64679e-20)
(1.24545 0.139313 0)
(1.23334 0.132893 2.40115e-20)
(1.22182 0.126712 4.0111e-20)
(1.21091 0.120816 6.65044e-21)
(1.2006 0.115235 -3.28303e-20)
(1.19086 0.10998 1.36088e-20)
(1.18161 0.105057 0)
(1.17278 0.100452 -1.04487e-20)
(1.16432 0.0959441 -9.59331e-21)
(1.15622 0.091898 0)
(0.0661888 -0.00491446 0)
(0.285978 -0.00103353 1.66613e-20)
(0.567628 0.0379824 3.03717e-20)
(0.845913 0.0919243 -7.98679e-20)
(1.0646 0.140739 2.52029e-20)
(1.20541 0.174671 0)
(1.27942 0.193086 3.62321e-20)
(1.30819 0.19967 -4.97732e-20)
(1.31149 0.198859 -2.88166e-20)
(1.30282 0.194111 1.29911e-20)
(1.28965 0.187548 -2.01897e-20)
(1.27542 0.180261 4.87201e-20)
(1.26144 0.172753 2.42713e-20)
(1.24811 0.165258 -1.67199e-20)
(1.23552 0.157898 -1.56213e-21)
(1.22364 0.150749 -4.50397e-20)
(1.21244 0.143861 2.03486e-20)
(1.20188 0.137265 -4.4948e-22)
(1.19195 0.130986 0)
(1.18261 0.125039 -1.36222e-20)
(1.17382 0.119442 0)
(1.16549 0.114143 3.02233e-20)
(1.15752 0.109034 -3.57494e-20)
(1.14987 0.104923 1.61454e-20)
(0.0966043 -0.00215659 -9.30226e-21)
(0.370524 0.0163567 -4.19027e-20)
(0.68338 0.0738266 4.6727e-20)
(0.957943 0.138011 2.68505e-20)
(1.14924 0.187192 -1.27613e-20)
(1.25707 0.216207 2.05361e-20)
(1.30391 0.228575 -9.93165e-21)
(1.31474 0.230099 1.61629e-20)
(1.30805 0.225716 0)
(1.29453 0.21858 3.57057e-20)
(1.27925 0.210344 -1.37596e-21)
(1.26419 0.201759 -2.8337e-20)
(1.24995 0.19315 1.20829e-20)
(1.23662 0.184666 -1.35605e-20)
(1.22415 0.176388 -5.15721e-21)
(1.21248 0.168371 5.86126e-21)
(1.20155 0.160656 -4.52773e-21)
(1.19136 0.153274 -2.42912e-20)
(1.18186 0.146252 1.48049e-20)
(1.173 0.139607 3.02882e-21)
(1.16464 0.133333 2.65025e-21)
(1.15667 0.127345 2.31935e-21)
(1.14901 0.121709 0)
(1.14156 0.117205 0)
(0.13121 0.00421908 9.31354e-21)
(0.457824 0.0431708 -8.64325e-21)
(0.789892 0.118997 -1.5562e-20)
(1.04938 0.189433 0)
(1.20987 0.23554 -6.26793e-21)
(1.28787 0.258011 -5.43439e-21)
(1.31327 0.264034 -9.13244e-21)
(1.31151 0.260749 0)
(1.29851 0.253049 0)
(1.28223 0.243593 0)
(1.26589 0.233595 0)
(1.25049 0.223546 0)
(1.23621 0.213647 -7.58803e-21)
(1.22299 0.203992 3.42778e-21)
(1.21074 0.194637 5.94277e-21)
(1.19939 0.185624 2.75381e-21)
(1.18887 0.176983 6.80508e-21)
(1.17912 0.168734 0)
(1.1701 0.160892 -1.62237e-21)
(1.1617 0.153468 -1.51995e-21)
(1.15384 0.146443 -2.65441e-21)
(1.1464 0.139751 -2.32299e-21)
(1.13932 0.133591 0)
(1.1325 0.12849 1.66156e-21)
(-0.000400879 -0.0352904 6.17619e-21)
(-0.00501978 -0.0987206 -5.88059e-21)
(-0.0166505 -0.147253 -1.0903e-20)
(-0.032651 -0.179624 0)
(-0.0512112 -0.199971 -1.40672e-20)
(-0.0709379 -0.214129 4.3365e-21)
(-0.0908098 -0.226877 -8.1399e-21)
(-0.110241 -0.240951 0)
(-0.128966 -0.257341 0)
(-0.146865 -0.276024 0)
(-0.163837 -0.296532 0)
(-0.179727 -0.31821 0)
(-0.194296 -0.340258 2.71487e-23)
(-0.207208 -0.361711 -5.16607e-21)
(-0.218032 -0.381401 9.83838e-21)
(-0.226242 -0.397957 1.40514e-20)
(-0.231241 -0.409823 4.3999e-21)
(-0.232397 -0.415304 0)
(-0.229117 -0.412643 4.14012e-21)
(-0.220924 -0.40021 -1.14121e-20)
(-0.207428 -0.37665 -7.17043e-21)
(-0.188268 -0.340886 -6.79847e-21)
(-0.16339 -0.291973 0)
(-0.134687 -0.229657 0)
(0.000455266 -0.0288148 -1.85713e-20)
(-0.00373191 -0.0835331 2.93917e-20)
(-0.0170856 -0.126103 -1.09566e-20)
(-0.0355593 -0.154562 -2.03194e-20)
(-0.0567308 -0.172662 2.82068e-20)
(-0.0789855 -0.185813 -1.75885e-20)
(-0.101261 -0.198332 2.4447e-20)
(-0.123034 -0.212578 1.53937e-20)
(-0.144133 -0.229329 0)
(-0.164528 -0.248501 -1.33774e-20)
(-0.184194 -0.269673 -2.22346e-22)
(-0.203059 -0.292296 1.15825e-20)
(-0.22099 -0.315715 1.663e-20)
(-0.237787 -0.339134 2.09163e-20)
(-0.253184 -0.361584 -9.61538e-21)
(-0.266836 -0.381896 -2.76406e-20)
(-0.278318 -0.398697 8.65738e-21)
(-0.287136 -0.410426 -3.23316e-20)
(-0.292808 -0.415387 0)
(-0.294886 -0.411862 7.54065e-21)
(-0.292693 -0.398224 7.16189e-21)
(-0.285079 -0.372866 6.79044e-21)
(-0.271743 -0.334145 0)
(-0.257532 -0.281631 0)
(0.000341542 -0.0202583 0)
(-0.00409878 -0.064391 5.96196e-20)
(-0.0187792 -0.100662 -2.20538e-20)
(-0.0388138 -0.125579 2.04376e-20)
(-0.061426 -0.141924 -5.73282e-20)
(-0.084883 -0.154371 0)
(-0.108103 -0.166701 -3.32814e-20)
(-0.130596 -0.18095 1.55156e-20)
(-0.152228 -0.197773 -2.92849e-20)
(-0.172989 -0.217092 1.39549e-20)
(-0.192864 -0.238556 7.67197e-20)
(-0.211793 -0.261707 -3.56362e-20)
(-0.229676 -0.285991 -5.58443e-20)
(-0.246386 -0.310725 -2.11841e-20)
(-0.261779 -0.335063 -9.18473e-23)
(-0.275696 -0.35798 7.27525e-20)
(-0.287948 -0.37827 -3.38975e-20)
(-0.298321 -0.394553 5.67093e-22)
(-0.306643 -0.405309 0)
(-0.31277 -0.408929 -2.57633e-20)
(-0.316102 -0.403758 0)
(-0.314993 -0.388137 -2.31269e-20)
(-0.308635 -0.36062 8.09733e-20)
(-0.304069 -0.321061 -8.31458e-22)
(-0.000886248 -0.0105091 0)
(-0.00628406 -0.0429707 3.53672e-22)
(-0.0217536 -0.0728207 2.25721e-20)
(-0.0423011 -0.094514 -2.10607e-20)
(-0.0651005 -0.109463 1.90141e-20)
(-0.0884001 -0.12141 1.08794e-19)
(-0.111105 -0.133561 -3.36396e-20)
(-0.132715 -0.147692 -3.19226e-20)
(-0.153076 -0.164398 5.91568e-20)
(-0.172133 -0.183647 -8.29391e-20)
(-0.189812 -0.20516 2.59739e-20)
(-0.205991 -0.228556 2.45256e-20)
(-0.220523 -0.253345 0)
(-0.233261 -0.278902 2.09823e-20)
(-0.244096 -0.304433 0)
(-0.252967 -0.328977 3.63242e-20)
(-0.259863 -0.351412 -6.59415e-20)
(-0.264817 -0.37049 1.69396e-20)
(-0.267938 -0.384862 5.59451e-20)
(-0.269432 -0.393076 2.57399e-20)
(-0.269217 -0.393557 0)
(-0.265902 -0.384809 -5.83155e-20)
(-0.258014 -0.365924 1.94366e-20)
(-0.251025 -0.33793 0)
(-0.00317458 -0.000546273 0)
(-0.0101612 -0.0210111 -7.33236e-20)
(-0.0257981 -0.0444134 -2.31037e-20)
(-0.0457398 -0.0630631 -4.24573e-20)
(-0.0674135 -0.0768068 3.93417e-20)
(-0.0891304 -0.0883457 -3.64823e-20)
(-0.109777 -0.1003 6.91986e-20)
(-0.128799 -0.114226 3.24655e-20)
(-0.145967 -0.13071 -9.00532e-20)
(-0.161125 -0.149812 5.68416e-20)
(-0.174086 -0.171345 -7.91437e-20)
(-0.184619 -0.194997 1.74464e-19)
(-0.192484 -0.220323 -9.23746e-20)
(-0.197484 -0.246703 4.34317e-20)
(-0.199508 -0.273323 1.18789e-19)
(-0.198572 -0.299184 -3.77217e-20)
(-0.194828 -0.32314 -3.50984e-20)
(-0.188548 -0.343973 -3.10093e-20)
(-0.180078 -0.360452 0)
(-0.169814 -0.371296 -4.49348e-20)
(-0.158335 -0.375135 -3.51084e-20)
(-0.144921 -0.370692 5.56116e-20)
(-0.130332 -0.356639 5.54072e-20)
(-0.103227 -0.333549 -4.98149e-20)
(-0.00626892 0.00864904 0)
(-0.0153214 -0.000203899 -1.00324e-19)
(-0.0304692 -0.0171809 -7.9642e-22)
(-0.0486444 -0.0328041 8.6084e-20)
(-0.0677769 -0.0454012 0)
(-0.0863222 -0.0565408 0)
(-0.103106 -0.0682416 0)
(-0.117446 -0.0818591 -3.29556e-20)
(-0.128987 -0.0979643 -5.95224e-22)
(-0.137391 -0.116761 5.78269e-20)
(-0.142295 -0.138144 -8.08534e-20)
(-0.143324 -0.161859 -2.60765e-22)
(-0.140149 -0.187473 0)
(-0.132567 -0.214331 -4.34128e-20)
(-0.120552 -0.241559 3.99221e-20)
(-0.10432 -0.268042 -1.1155e-19)
(-0.0843424 -0.292525 1.31437e-19)
(-0.061325 -0.313743 2.4554e-20)
(-0.0360707 -0.330499 -7.27994e-21)
(-0.00911479 -0.341563 -9.30858e-20)
(0.0174775 -0.346159 -3.68654e-20)
(0.0473697 -0.343487 1.04077e-19)
(0.0636513 -0.334636 -6.44775e-20)
(0.118669 -0.307311 0)
(-0.00970889 0.0162233 5.39021e-20)
(-0.0210111 0.0178897 5.03541e-20)
(-0.0350073 0.0071682 -4.77794e-20)
(-0.0503125 -0.00539136 -8.84696e-20)
(-0.0654512 -0.0167647 8.19759e-20)
(-0.0790228 -0.02744 -7.73302e-20)
(-0.089821 -0.0388338 1.08176e-19)
(-0.0969014 -0.05205 -3.30103e-20)
(-0.0996826 -0.067773 6.31277e-20)
(-0.0976768 -0.0861951 0)
(-0.0902433 -0.107261 5.68103e-20)
(-0.0768779 -0.130745 -1.05295e-19)
(-0.0572324 -0.156174 9.67626e-20)
(-0.0312711 -0.182781 -9.00693e-20)
(0.00077224 -0.209627 0)
(0.0382457 -0.235415 7.4495e-20)
(0.0801011 -0.25878 1.30231e-19)
(0.12498 -0.278402 -1.21306e-19)
(0.17127 -0.29307 -5.07277e-20)
(0.219131 -0.301233 -3.92042e-20)
(0.261597 -0.303569 1.13488e-19)
(0.314457 -0.296633 2.36176e-20)
(0.336435 -0.288845 -2.6195e-20)
(0.414717 -0.257278 1.671e-20)
(-0.0130176 0.0215659 -5.39151e-20)
(-0.0264798 0.0319963 1.56455e-19)
(-0.0386738 0.0271324 -4.85002e-20)
(-0.0499445 0.0176716 9.02734e-20)
(-0.0595335 0.00759637 -8.36461e-20)
(-0.0661969 -0.00265145 2.78362e-22)
(-0.0686155 -0.0138509 3.68268e-20)
(-0.0657073 -0.0269043 1.40357e-19)
(-0.0564684 -0.0424114 1.31717e-21)
(-0.0400881 -0.0605119 -5.98394e-20)
(-0.0159404 -0.081225 0)
(0.0164914 -0.10429 -5.36691e-20)
(0.0573998 -0.129087 9.89789e-20)
(0.106301 -0.154794 9.02764e-20)
(0.162251 -0.18025 -4.24571e-20)
(0.223896 -0.204048 2.07632e-23)
(0.289251 -0.224794 -3.34101e-20)
(0.356268 -0.241125 5.80783e-20)
(0.422038 -0.252233 5.07186e-20)
(0.488098 -0.256055 -4.29159e-20)
(0.541667 -0.255548 3.4741e-20)
(0.61088 -0.243323 -2.80372e-20)
(0.633324 -0.233384 0)
(0.726659 -0.201807 -1.66921e-20)
(-0.0157181 0.0244179 5.56264e-20)
(-0.0309438 0.0413676 -5.24266e-20)
(-0.0407808 0.0416521 4.9564e-20)
(-0.0470541 0.0351394 0)
(-0.0496375 0.026272 0)
(-0.0474534 0.0162766 8.15703e-20)
(-0.0391103 0.00496121 -7.45577e-20)
(-0.0232597 -0.0082678 7.15531e-20)
(0.00129022 -0.0237917 -3.29916e-19)
(0.0355657 -0.0418002 -3.10985e-22)
(0.0801453 -0.0622281 5.79274e-20)
(0.135189 -0.0846691 0)
(0.20023 -0.108364 -9.90572e-20)
(0.273954 -0.132333 1.82691e-19)
(0.354178 -0.155245 -1.25874e-19)
(0.438194 -0.175799 -1.83211e-19)
(0.522863 -0.192635 7.77295e-21)
(0.605094 -0.204674 1.18214e-19)
(0.681781 -0.211368 0)
(0.752682 -0.211272 0)
(0.809767 -0.20719 -3.47457e-20)
(0.870655 -0.19329 2.80416e-20)
(0.894531 -0.181869 -8.17813e-20)
(0.964657 -0.153508 7.629e-20)
(-0.0174887 0.024886 0)
(-0.0337968 0.0457545 0)
(-0.0407821 0.0500475 -1.49819e-19)
(-0.0412218 0.0460536 4.62553e-20)
(-0.0354652 0.038211 -6.21459e-22)
(-0.0225572 0.0282841 8.15883e-20)
(-0.00103522 0.0165719 0)
(0.0306151 0.00289354 -7.1206e-20)
(0.0737519 -0.0129149 6.62738e-20)
(0.129309 -0.0308747 -1.24888e-19)
(0.197517 -0.0507266 5.3069e-23)
(0.277651 -0.0718514 1.07363e-19)
(0.367867 -0.0933493 -1.32241e-21)
(0.465175 -0.114117 8.74856e-20)
(0.565653 -0.13293 -1.2628e-19)
(0.664993 -0.14872 0)
(0.758943 -0.160379 1.25152e-19)
(0.843557 -0.167581 -1.73622e-19)
(0.917035 -0.16962 4.74441e-20)
(0.975974 -0.16682 0)
(1.02251 -0.160071 3.36607e-20)
(1.05652 -0.147298 1.04639e-19)
(1.07294 -0.136201 -9.77109e-20)
(1.09983 -0.113058 -8.62109e-20)
(-0.0182552 0.0234146 1.72533e-19)
(-0.0347292 0.0455115 -2.18765e-19)
(-0.0383061 0.0522442 -2.65211e-22)
(-0.0320609 0.0499786 4.7195e-20)
(-0.0165375 0.0427927 -8.79722e-20)
(0.00915289 0.0327151 -8.14764e-20)
(0.046593 0.0205265 1.53343e-19)
(0.0974296 0.00646734 8.34035e-22)
(0.162902 -0.00932997 -1.33023e-19)
(0.243374 -0.0265667 2.48678e-19)
(0.337855 -0.0446982 1.6769e-22)
(0.44372 -0.0629376 -1.0724e-19)
(0.556769 -0.080352 0)
(0.671652 -0.0960037 0)
(0.782547 -0.109037 -4.06262e-20)
(0.884056 -0.118903 -6.99962e-20)
(0.971604 -0.125073 -1.21194e-19)
(1.04252 -0.127828 1.12983e-19)
(1.0954 -0.126676 -4.74856e-20)
(1.13044 -0.122893 7.55861e-20)
(1.15088 -0.116052 -4.08983e-20)
(1.15623 -0.106548 4.61825e-20)
(1.1544 -0.0982355 -1.21431e-19)
(1.14563 -0.0815994 1.85779e-20)
(-0.0181805 0.0206887 5.80767e-20)
(-0.0336895 0.0415364 0)
(-0.0329884 0.0488462 1.02616e-19)
(-0.0188286 0.0472115 -9.50178e-20)
(0.00841398 0.0401891 8.80829e-20)
(0.0498012 0.0299534 0)
(0.107004 0.0176468 0)
(0.181493 0.00390957 -7.15771e-20)
(0.273686 -0.0106718 -2.0466e-22)
(0.38214 -0.0254516 6.15351e-20)
(0.50312 -0.0397099 -5.61853e-20)
(0.630791 -0.052741 1.05742e-19)
(0.75799 -0.0639653 0)
(0.877327 -0.0730158 1.70102e-19)
(0.982321 -0.0797164 -3.09819e-19)
(1.06823 -0.084142 2.1114e-19)
(1.13258 -0.0863084 1.16445e-19)
(1.17532 -0.08674 -1.08562e-19)
(1.19811 -0.0849924 0)
(1.20483 -0.0826169 0)
(1.19912 -0.0776275 0)
(1.18556 -0.0730556 0)
(1.16918 -0.067283 2.31236e-20)
(1.15086 -0.0559827 -7.34295e-20)
(-0.102589 -0.146867 -4.58904e-21)
(-0.0444407 -0.0242737 4.58829e-21)
(0.0125614 0.109935 -1.2632e-22)
(0.0767528 0.255959 0)
(0.143581 0.40376 -3.46961e-21)
(0.213053 0.537896 6.31576e-21)
(0.281962 0.643255 -4.27914e-22)
(0.345664 0.707939 -2.36297e-21)
(0.400051 0.731089 0)
(0.436732 0.728451 0)
(0.442249 0.728703 -8.42625e-23)
(0.419658 0.745106 -8.2528e-23)
(0.398287 0.749563 -1.5694e-21)
(0.416236 0.685904 1.44021e-21)
(0.485919 0.522225 0)
(0.581361 0.275815 0)
(0.675284 -0.0167668 2.00916e-21)
(0.756065 -0.304751 -1.57314e-22)
(0.814073 -0.523524 -1.64014e-21)
(0.849308 -0.635711 -8.09857e-23)
(0.865773 -0.667191 0)
(0.86524 -0.663466 0)
(0.862276 -0.635874 0)
(0.866259 -0.602254 0)
(0.86454 -0.616127 0)
(0.846045 -0.688205 0)
(0.821432 -0.730392 4.03201e-22)
(0.807327 -0.629595 -6.37466e-22)
(0.805799 -0.362517 0)
(0.810574 -0.00523478 0)
(0.811415 0.335176 -5.81395e-22)
(0.800174 0.578309 5.64933e-22)
(0.791593 0.686309 1.99796e-22)
(0.788844 0.706226 0)
(0.754386 0.729273 0)
(0.686023 0.755599 2.69628e-22)
(0.614076 0.702368 -2.62061e-22)
(0.553442 0.529654 0)
(0.51224 0.269394 3.41542e-22)
(0.500627 -0.0121332 -5.09796e-22)
(0.514479 -0.248402 1.60054e-22)
(0.544125 -0.397269 0)
(0.584414 -0.454899 -1.86652e-22)
(0.614475 -0.461453 1.81491e-22)
(0.599681 -0.457261 0)
(0.560356 -0.43064 0)
(0.53704 -0.343059 -4.69647e-23)
(0.553367 -0.201467 1.25621e-22)
(0.59516 -0.0474758 0)
(0.647199 0.0769786 0)
(0.693356 0.159361 -2.32247e-23)
(0.734579 0.200573 1.64384e-24)
(0.757563 0.20932 -2.80577e-24)
(0.760165 0.211921 1.29665e-23)
(0.736323 0.179513 0)
(0.741196 0.144555 0)
(0.775427 0.0589387 0)
(0.822756 0.00971576 0)
(0.875886 -0.0455856 0)
(0.908941 -0.0651636 0)
(-0.246976 -0.209071 -3.62173e-22)
(-0.190218 -0.0968356 -1.5406e-20)
(-0.139387 0.0286768 6.25253e-22)
(-0.0705908 0.170504 1.38527e-20)
(0.00112954 0.312983 1.70765e-22)
(0.0782635 0.447929 0)
(0.157993 0.559633 -8.30245e-21)
(0.233694 0.63753 1.5255e-20)
(0.297713 0.684105 -6.95627e-21)
(0.339398 0.711977 5.52994e-21)
(0.354968 0.73688 -5.28557e-21)
(0.35948 0.756322 5.37236e-21)
(0.383922 0.737569 -5.2005e-21)
(0.454515 0.64047 -1.90326e-22)
(0.562236 0.458906 -7.71607e-21)
(0.673931 0.213111 7.493e-21)
(0.773759 -0.0728863 -8.18443e-21)
(0.855077 -0.351213 7.70648e-21)
(0.903647 -0.557273 -6.11564e-21)
(0.920508 -0.655021 1.06582e-20)
(0.917703 -0.671361 -4.60075e-21)
(0.900105 -0.658787 -2.06218e-22)
(0.881276 -0.631593 -2.82616e-21)
(0.872105 -0.598033 5.49547e-21)
(0.860367 -0.605389 -2.67156e-21)
(0.830631 -0.670658 1.79547e-22)
(0.792304 -0.713216 4.08417e-21)
(0.765779 -0.618264 1.06141e-21)
(0.755314 -0.360188 -9.9885e-21)
(0.756018 -0.0102856 1.04526e-20)
(0.757781 0.328616 -5.11321e-21)
(0.754978 0.572249 4.99674e-22)
(0.762533 0.682132 -2.00226e-22)
(0.772512 0.7127 3.26864e-22)
(0.74724 0.748661 0)
(0.688247 0.781595 0)
(0.623975 0.729987 -1.33855e-21)
(0.568193 0.553591 9.2939e-22)
(0.529199 0.283204 1.13854e-21)
(0.518363 -0.0106872 1.28283e-22)
(0.533151 -0.256575 -1.57178e-21)
(0.560141 -0.410929 2.89778e-22)
(0.59498 -0.46831 0)
(0.624952 -0.465987 0)
(0.615966 -0.450692 0)
(0.579026 -0.421999 0)
(0.55105 -0.342333 1.76472e-22)
(0.563173 -0.209931 -8.00237e-23)
(0.601084 -0.0603125 0)
(0.650221 0.0641021 0)
(0.695045 0.148222 0)
(0.737107 0.192818 -3.36476e-23)
(0.755273 0.20686 5.35273e-24)
(0.749986 0.21477 -2.88974e-23)
(0.727164 0.18121 0)
(0.738521 0.139743 0)
(0.784947 0.049984 1.22119e-23)
(0.833188 -0.000404728 2.82043e-23)
(0.886286 -0.0537003 0)
(0.917673 -0.0683395 0)
(-0.314293 -0.263495 -2.87656e-22)
(-0.277064 -0.167911 -2.49362e-20)
(-0.242985 -0.0528905 2.28947e-20)
(-0.184236 0.0783769 -2.14575e-20)
(-0.116794 0.215053 -1.72019e-22)
(-0.0392082 0.348934 0)
(0.0396048 0.469964 -1.37415e-20)
(0.11738 0.562251 1.3382e-20)
(0.186422 0.631284 9.19837e-23)
(0.238809 0.68164 1.32809e-22)
(0.278348 0.718025 1.29994e-22)
(0.322222 0.729216 1.55985e-22)
(0.396007 0.685496 -1.13526e-20)
(0.511001 0.567102 1.12149e-20)
(0.642402 0.386604 0)
(0.760819 0.156468 4.79453e-22)
(0.863856 -0.114853 -1.6157e-20)
(0.945799 -0.378965 1.59326e-20)
(0.985939 -0.569356 0)
(0.985854 -0.65492 0)
(0.965728 -0.662307 -7.73649e-21)
(0.933246 -0.64517 1.38932e-20)
(0.899763 -0.620772 -1.15577e-20)
(0.87801 -0.588684 2.18623e-22)
(0.857525 -0.588272 1.04878e-20)
(0.818519 -0.645632 -1.17027e-20)
(0.766492 -0.693435 1.31033e-20)
(0.726293 -0.612317 1.30814e-21)
(0.706836 -0.36495 -8.80977e-21)
(0.703385 -0.0222476 0)
(0.706296 0.314433 0)
(0.71312 0.558187 2.61849e-21)
(0.736389 0.671203 -3.49887e-21)
(0.759438 0.713001 -2.84667e-25)
(0.744619 0.76535 2.45552e-21)
(0.696782 0.809639 -2.38601e-21)
(0.641582 0.760187 0)
(0.589857 0.580341 3.73152e-22)
(0.55278 0.30127 3.86528e-21)
(0.541443 -0.00394311 -7.49652e-21)
(0.555804 -0.260225 3.14724e-21)
(0.580548 -0.420943 3.41538e-22)
(0.609761 -0.48017 -2.15884e-21)
(0.63783 -0.47159 1.62914e-21)
(0.633591 -0.446093 2.78156e-22)
(0.600499 -0.414119 2.13283e-22)
(0.568652 -0.341306 -1.7694e-22)
(0.574813 -0.218127 0)
(0.6078 -0.0730653 0)
(0.654826 0.0512009 -3.3335e-22)
(0.699351 0.136934 1.65077e-22)
(0.740922 0.185693 -1.39903e-22)
(0.752228 0.20599 1.9588e-22)
(0.739366 0.218336 2.21489e-22)
(0.720539 0.181973 -5.1164e-23)
(0.739869 0.133091 7.99299e-23)
(0.796681 0.0399438 -6.12372e-23)
(0.845653 -0.0104568 2.77579e-23)
(0.896909 -0.0614764 0)
(0.925695 -0.0713071 0)
(-0.275339 -0.294161 -3.88295e-20)
(-0.269345 -0.219257 2.54609e-21)
(-0.259392 -0.119541 3.40302e-20)
(-0.225628 -0.00461355 -2.85521e-22)
(-0.178427 0.122359 0)
(-0.112762 0.251066 0)
(-0.0431875 0.375172 -1.93072e-20)
(0.0277245 0.476973 1.60901e-21)
(0.102111 0.560925 2.42035e-20)
(0.170855 0.624173 -1.17613e-22)
(0.239517 0.663965 -7.44743e-21)
(0.322035 0.664407 -8.59275e-21)
(0.436824 0.602092 8.56252e-21)
(0.580816 0.477345 0)
(0.720673 0.313195 -1.43767e-20)
(0.838723 0.106901 1.30209e-20)
(0.945034 -0.147639 0)
(1.02914 -0.396916 0)
(1.06248 -0.570055 1.1575e-20)
(1.0466 -0.643586 -2.05721e-21)
(1.01013 -0.644909 -8.66375e-21)
(0.965163 -0.625003 -6.24861e-21)
(0.918957 -0.603669 6.20208e-21)
(0.885098 -0.574802 -5.18586e-21)
(0.856598 -0.567516 -8.51812e-23)
(0.810434 -0.614382 4.97681e-21)
(0.74603 -0.665099 7.52494e-22)
(0.691647 -0.602759 4.96668e-23)
(0.662056 -0.373576 0)
(0.653308 -0.0414243 9.51595e-21)
(0.657483 0.29142 -9.7856e-21)
(0.674547 0.535054 4.84453e-22)
(0.713379 0.653124 0)
(0.748836 0.708835 -3.30678e-22)
(0.745226 0.774816 5.13383e-21)
(0.708558 0.827569 -9.94737e-21)
(0.660227 0.787073 -1.7931e-21)
(0.614994 0.609769 -1.04697e-21)
(0.582678 0.323907 6.15603e-21)
(0.570549 0.00738066 9.04136e-22)
(0.582859 -0.26084 -6.0486e-21)
(0.605473 -0.428734 5.24143e-21)
(0.62887 -0.4909 -2.95948e-23)
(0.653409 -0.477896 1.32383e-21)
(0.652065 -0.4431 -1.5661e-21)
(0.623394 -0.406865 -1.37638e-21)
(0.589905 -0.339608 4.21815e-22)
(0.58957 -0.225574 4.17739e-22)
(0.616696 -0.0857078 -7.40254e-22)
(0.662063 0.0380472 4.89004e-22)
(0.706363 0.125613 -1.47214e-22)
(0.745298 0.179596 1.46073e-22)
(0.748246 0.2068 1.28572e-22)
(0.729091 0.222205 -3.37484e-22)
(0.71687 0.181422 7.37739e-24)
(0.74511 0.124737 -8.70563e-23)
(0.810004 0.0290526 0)
(0.85946 -0.0202762 -2.50191e-23)
(0.907822 -0.068699 3.43939e-23)
(0.933172 -0.0739804 0)
(-0.132595 -0.29511 2.83396e-20)
(-0.155007 -0.240308 -5.14914e-20)
(-0.166511 -0.158813 2.30733e-20)
(-0.162711 -0.0631501 1.70376e-20)
(-0.142186 0.0478157 -3.09527e-20)
(-0.0991047 0.166603 1.80178e-21)
(-0.0480566 0.278246 1.19441e-20)
(0.0113078 0.382964 9.63915e-21)
(0.0862123 0.472884 -9.45609e-21)
(0.16715 0.542251 0)
(0.257476 0.582843 -1.21277e-20)
(0.367202 0.575454 2.66495e-20)
(0.50697 0.503842 -1.44887e-20)
(0.660251 0.385288 0)
(0.794535 0.244291 0)
(0.910802 0.061234 4.59246e-22)
(1.02267 -0.175131 -2.91497e-20)
(1.10622 -0.403847 2.82972e-20)
(1.12987 -0.555285 0)
(1.09885 -0.617445 1.81356e-20)
(1.04815 -0.617114 -3.11033e-20)
(0.994148 -0.598143 2.52577e-20)
(0.938648 -0.581618 -2.16973e-20)
(0.893937 -0.557066 4.16443e-22)
(0.858367 -0.54334 1.87646e-20)
(0.80758 -0.578509 -9.39239e-21)
(0.732553 -0.631902 -3.60046e-22)
(0.662339 -0.591653 -7.12816e-21)
(0.621447 -0.385981 -1.35102e-21)
(0.606597 -0.0667846 8.45664e-21)
(0.612072 0.260517 5.48219e-22)
(0.640104 0.503667 -6.58031e-21)
(0.69297 0.628419 1.19952e-20)
(0.740673 0.697171 -6.07503e-21)
(0.750525 0.779106 0)
(0.725407 0.848542 -6.5732e-21)
(0.687091 0.815232 6.50577e-21)
(0.649307 0.638765 -7.01491e-21)
(0.620083 0.349863 8.73383e-21)
(0.60585 0.0232448 -1.07152e-21)
(0.614129 -0.256953 0)
(0.634371 -0.433143 -7.39669e-22)
(0.651886 -0.499653 1.61512e-21)
(0.671738 -0.484432 0)
(0.671763 -0.441699 2.55333e-21)
(0.646619 -0.400816 -1.10292e-21)
(0.61387 -0.337699 3.05556e-22)
(0.60844 -0.232178 1.94691e-22)
(0.629396 -0.0980684 0)
(0.672797 0.024706 0)
(0.715793 0.114584 -3.83588e-22)
(0.749576 0.174874 6.15214e-22)
(0.743413 0.209171 -3.62936e-22)
(0.71998 0.225926 1.23376e-22)
(0.716356 0.179285 2.14288e-22)
(0.753903 0.11489 8.71502e-23)
(0.824471 0.0176218 -1.41402e-22)
(0.873966 -0.0297566 0)
(0.918928 -0.0752364 -5.56042e-23)
(0.94023 -0.0762901 -1.12351e-23)
(0.0890826 -0.279944 2.13166e-20)
(0.0425928 -0.237481 -2.10027e-20)
(0.0140635 -0.175016 1.37442e-22)
(-0.00427886 -0.0967516 -5.22743e-23)
(-0.0063551 -0.00414977 8.58173e-23)
(0.00975941 0.0960052 -6.92053e-23)
(0.0412986 0.192773 1.4686e-23)
(0.0890034 0.290869 0)
(0.15607 0.377656 -2.15917e-23)
(0.238362 0.447482 4.55317e-23)
(0.336071 0.488194 8.56094e-23)
(0.456707 0.47755 -1.84263e-22)
(0.602294 0.406237 0)
(0.745968 0.302404 0)
(0.86539 0.18431 3.25691e-22)
(0.980691 0.0202763 0)
(1.09801 -0.196974 -3.97663e-22)
(1.17635 -0.401955 0)
(1.18753 -0.530733 -1.97922e-20)
(1.14317 -0.582769 3.57835e-20)
(1.08071 -0.583731 -2.89415e-20)
(1.02029 -0.566854 1.29452e-20)
(0.959089 -0.555259 9.50361e-21)
(0.905323 -0.536973 -9.2251e-21)
(0.862776 -0.518675 -8.74482e-21)
(0.80976 -0.539422 8.50375e-21)
(0.728484 -0.590493 0)
(0.641671 -0.573948 3.33448e-22)
(0.586355 -0.399283 0)
(0.564609 -0.0982279 0)
(0.571492 0.220952 1.35502e-20)
(0.609213 0.463521 -1.40289e-20)
(0.674118 0.595793 6.57347e-22)
(0.734333 0.678299 6.40359e-22)
(0.75629 0.774199 -6.10304e-22)
(0.742622 0.853916 -6.11507e-21)
(0.713178 0.836331 5.93656e-21)
(0.68323 0.673455 -9.45297e-21)
(0.660779 0.383176 8.24163e-21)
(0.646405 0.0463473 2.22593e-21)
(0.649802 -0.248144 -7.0965e-21)
(0.666894 -0.434467 6.16382e-22)
(0.678813 -0.506417 4.16859e-21)
(0.692466 -0.490871 0)
(0.692917 -0.441423 -1.14943e-21)
(0.669763 -0.395852 9.80818e-22)
(0.638835 -0.336009 -1.35155e-21)
(0.631088 -0.238163 -1.95993e-22)
(0.646802 -0.11004 0)
(0.687354 0.0114289 1.20809e-22)
(0.72705 0.104283 -2.11127e-22)
(0.753254 0.171784 -9.37314e-24)
(0.738005 0.212845 -1.10668e-22)
(0.712754 0.22908 2.24666e-22)