/*--------------------------------*- C++ -*----------------------------------*\
| =========                 |                                                 |
| \\      /  F ield         | OpenFOAM: The Open Source CFD Toolbox           |
|  \\    /   O peration     | Version:  2512                                  |
|   \\  /    A nd           | Website:  www.openfoam.com                      |
|    \\/     M anipulation  |                                                 |
\*---------------------------------------------------------------------------*/
FoamFile
{
    version     2.0;
    format      ascii;
    arch        "LSB;label=32;scalar=64";
    class       volScalarField;
    location    "31.5";
    object      p;
}
// * * * * * * * * * * * * * * * * * * * * * * * * * * * * * * * * * * * * * //

dimensions      [0 2 -2 0 0 0 0];

internalField   nonuniform List<scalar> 
9200
(
-0.585024
-0.582737
-0.57805
-0.572475
-0.567419
-0.563897
-0.56194
-0.560382
-0.557299
-0.550687
-0.539069
-0.521878
-0.499554
-0.473133
-0.443789
-0.41253
-0.379792
-0.346638
-0.31123
-0.274928
-0.595323
-0.5925
-0.58796
-0.582549
-0.576969
-0.571361
-0.565075
-0.556992
-0.546011
-0.531404
-0.513017
-0.49125
-0.46679
-0.440349
-0.412514
-0.383713
-0.354375
-0.324747
-0.294857
-0.266258
-0.609564
-0.605532
-0.600555
-0.594639
-0.587526
-0.578445
-0.566572
-0.551549
-0.533489
-0.512813
-0.490084
-0.465841
-0.440521
-0.414464
-0.38793
-0.361217
-0.334446
-0.307994
-0.281666
-0.255593
-0.62727
-0.621568
-0.615536
-0.608159
-0.598058
-0.583974
-0.565749
-0.544224
-0.520535
-0.495634
-0.470147
-0.444433
-0.418686
-0.393023
-0.36757
-0.34241
-0.317716
-0.293649
-0.270089
-0.247763
-0.648429
-0.640783
-0.633057
-0.622968
-0.608077
-0.587629
-0.56287
-0.535733
-0.507778
-0.47993
-0.452614
-0.425962
-0.399984
-0.374673
-0.350021
-0.326076
-0.302884
-0.280462
-0.258852
-0.238127
-0.673118
-0.663288
-0.653077
-0.638557
-0.616986
-0.5893
-0.55833
-0.526526
-0.495313
-0.4653
-0.436639
-0.409278
-0.383116
-0.358055
-0.334032
-0.310996
-0.288924
-0.267811
-0.247666
-0.228526
-0.70082
-0.688494
-0.674745
-0.653719
-0.623949
-0.588848
-0.552308
-0.516649
-0.482836
-0.451104
-0.421373
-0.393458
-0.36717
-0.342345
-0.318846
-0.29657
-0.275428
-0.255334
-0.236267
-0.217995
-0.73016
-0.71497
-0.696097
-0.666603
-0.627872
-0.585739
-0.544339
-0.505433
-0.469455
-0.436301
-0.405698
-0.37735
-0.350996
-0.326412
-0.303412
-0.281835
-0.261541
-0.242424
-0.224375
-0.207088
-0.758691
-0.740389
-0.714324
-0.674841
-0.627182
-0.578709
-0.533127
-0.491482
-0.453713
-0.419423
-0.388178
-0.359584
-0.333306
-0.309066
-0.286624
-0.265777
-0.246363
-0.228238
-0.211235
-0.195031
-0.783102
-0.761444
-0.726363
-0.67605
-0.62003
-0.566085
-0.517034
-0.473203
-0.434078
-0.399022
-0.367457
-0.338886
-0.312908
-0.289188
-0.267443
-0.24744
-0.228998
-0.211983
-0.196223
-0.181475
-0.514882
-0.515098
-0.51681
-0.522567
-0.532842
-0.54749
-0.566184
-0.588318
-0.612847
-0.638237
-0.662517
-0.683397
-0.698378
-0.704786
-0.700732
-0.684686
-0.655966
-0.615038
-0.565281
-0.507783
-0.54235
-0.541125
-0.543095
-0.549919
-0.561976
-0.578995
-0.600591
-0.626074
-0.654287
-0.683541
-0.711655
-0.737125
-0.755361
-0.76467
-0.762258
-0.745732
-0.713607
-0.665698
-0.606021
-0.535726
-0.56328
-0.560346
-0.561864
-0.568596
-0.580812
-0.59826
-0.620446
-0.646612
-0.675582
-0.705692
-0.734851
-0.760632
-0.779961
-0.790114
-0.787903
-0.770166
-0.734749
-0.680716
-0.613124
-0.533338
-0.576614
-0.572084
-0.572407
-0.577782
-0.588519
-0.60446
-0.625081
-0.64959
-0.676844
-0.705281
-0.733007
-0.757088
-0.77562
-0.785202
-0.782242
-0.762988
-0.724976
-0.667242
-0.595272
-0.51153
-0.582882
-0.577249
-0.575927
-0.578894
-0.586725
-0.599555
-0.616967
-0.638209
-0.662214
-0.687574
-0.711779
-0.733985
-0.750536
-0.757931
-0.75236
-0.729891
-0.688698
-0.628921
-0.556978
-0.476016
-0.583849
-0.577888
-0.574907
-0.574943
-0.579021
-0.587765
-0.601066
-0.618312
-0.638533
-0.659958
-0.681943
-0.701116
-0.714254
-0.717485
-0.707007
-0.679433
-0.634675
-0.574461
-0.505899
-0.43244
-0.581845
-0.576346
-0.57209
-0.569355
-0.569664
-0.574194
-0.583293
-0.596603
-0.613158
-0.632039
-0.650511
-0.665447
-0.673172
-0.669819
-0.65249
-0.619577
-0.573231
-0.516079
-0.454783
-0.390923
-0.579123
-0.574613
-0.569651
-0.564856
-0.56216
-0.563205
-0.568796
-0.578874
-0.592504
-0.607595
-0.621152
-0.629642
-0.629414
-0.617716
-0.593311
-0.557005
-0.512197
-0.461658
-0.410512
-0.3577
-0.577659
-0.57426
-0.569098
-0.563213
-0.558751
-0.557568
-0.560659
-0.567831
-0.577589
-0.587295
-0.593649
-0.593391
-0.584
-0.564519
-0.535445
-0.49911
-0.458244
-0.41531
-0.373613
-0.330394
-0.579189
-0.57668
-0.57163
-0.565593
-0.560547
-0.558142
-0.559059
-0.56263
-0.566877
-0.569046
-0.566359
-0.556757
-0.539416
-0.514878
-0.48455
-0.450485
-0.413897
-0.37666
-0.339731
-0.3031
-0.443687
-0.380762
-0.335157
-0.313978
-0.318679
-0.341384
-0.362727
-0.360184
-0.321265
-0.260258
-0.201234
-0.159083
-0.136543
-0.132645
-0.143298
-0.167356
-0.213473
-0.280351
-0.336057
-0.341906
-0.292108
-0.221768
-0.163972
-0.129862
-0.117457
-0.130231
-0.16203
-0.189709
-0.19388
-0.178092
-0.157085
-0.140751
-0.131559
-0.128237
-0.12383
-0.109484
-0.089255
-0.0694469
-0.0533121
-0.04017
-0.0289929
-0.019961
-0.0134656
-0.00890569
-0.00533091
-0.00254294
-0.000994715
-0.000480419
-0.00039442
-0.000221145
-0.456861
-0.377266
-0.312746
-0.269898
-0.25294
-0.259187
-0.275574
-0.277593
-0.250885
-0.206989
-0.1638
-0.13195
-0.115941
-0.117367
-0.132355
-0.15942
-0.205853
-0.270642
-0.324976
-0.333067
-0.286132
-0.215322
-0.154379
-0.115381
-0.0965
-0.100495
-0.123001
-0.144963
-0.151162
-0.144385
-0.136189
-0.1324
-0.135012
-0.141923
-0.143751
-0.128824
-0.104625
-0.0795165
-0.0591978
-0.0433142
-0.0304485
-0.0204666
-0.0135635
-0.00895075
-0.0054737
-0.00271619
-0.00105953
-0.000398421
-0.000247238
-0.000128525
-0.443058
-0.353868
-0.277062
-0.219331
-0.185814
-0.173944
-0.179589
-0.184934
-0.172239
-0.147308
-0.119642
-0.0976532
-0.0881326
-0.0949607
-0.11394
-0.142074
-0.185017
-0.244738
-0.29882
-0.311407
-0.270548
-0.20257
-0.141837
-0.100342
-0.0768058
-0.0736311
-0.087974
-0.104478
-0.112514
-0.113161
-0.116153
-0.124011
-0.138829
-0.156543
-0.165103
-0.149275
-0.121139
-0.0901388
-0.0652971
-0.0465693
-0.0320219
-0.021098
-0.0137776
-0.00908373
-0.00566813
-0.00291784
-0.00115426
-0.000348965
-0.000125633
-5.40716e-05
-0.417037
-0.327026
-0.247576
-0.179632
-0.131499
-0.105381
-0.0974452
-0.0995193
-0.0976186
-0.0861299
-0.0716088
-0.0588671
-0.0559817
-0.0676797
-0.0894399
-0.116858
-0.154028
-0.206515
-0.260034
-0.278857
-0.24644
-0.18455
-0.126948
-0.0854924
-0.0595319
-0.0507934
-0.058292
-0.069639
-0.0785234
-0.084235
-0.0964767
-0.115467
-0.142198
-0.171181
-0.187141
-0.169991
-0.138574
-0.101214
-0.0715579
-0.0499086
-0.0336986
-0.0218423
-0.0140883
-0.00928489
-0.00590148
-0.0031434
-0.0012777
-0.000331981
-3.43086e-05
-5.88031e-07
-0.385291
-0.301649
-0.229607
-0.163082
-0.106129
-0.0646663
-0.0418805
-0.0342936
-0.0333924
-0.0291782
-0.0252174
-0.0203672
-0.0232527
-0.0386689
-0.062451
-0.0886528
-0.119042
-0.162249
-0.213349
-0.239542
-0.21755
-0.163854
-0.110976
-0.0713821
-0.0446655
-0.0324918
-0.0346813
-0.0411691
-0.0452837
-0.0574421
-0.0766218
-0.105015
-0.143778
-0.185495
-0.209535
-0.190608
-0.156936
-0.112683
-0.0779539
-0.0533186
-0.0354669
-0.0226875
-0.0144797
-0.00953808
-0.00616281
-0.00338813
-0.00142705
-0.00034555
2.50685e-05
3.23262e-05
-0.35234
-0.28065
-0.218378
-0.158902
-0.105023
-0.0578823
-0.0199629
0.00216964
0.0102956
0.0112349
0.0124402
0.0108973
0.0039819
-0.0129606
-0.0375806
-0.0622357
-0.0849918
-0.117383
-0.164447
-0.196749
-0.185726
-0.14162
-0.0949497
-0.0585174
-0.0322873
-0.0180098
-0.0164911
-0.0194928
-0.0222392
-0.033674
-0.0567268
-0.0936269
-0.14341
-0.197188
-0.231303
-0.220191
-0.175961
-0.124361
-0.0844082
-0.0567537
-0.0372948
-0.0236118
-0.0149347
-0.00983001
-0.00644343
-0.00364725
-0.00159758
-0.000385755
5.3667e-05
4.75616e-05
-0.322385
-0.264001
-0.212389
-0.159545
-0.109725
-0.0653218
-0.025967
0.00768888
0.0310457
0.0405381
0.0402019
0.0345014
0.0254471
0.00988554
-0.0134982
-0.037088
-0.0543818
-0.0775759
-0.119696
-0.157971
-0.154901
-0.119954
-0.079758
-0.0471723
-0.0223252
-0.00700258
-0.00294888
-0.00369812
-0.00453015
-0.0134951
-0.0374188
-0.0798928
-0.139691
-0.207155
-0.251749
-0.254325
-0.195042
-0.136032
-0.0907865
-0.0601311
-0.039132
-0.024583
-0.0154304
-0.010145
-0.00673521
-0.00391783
-0.00178565
-0.00044796
5.52491e-05
5.01667e-05
-0.301668
-0.253846
-0.20996
-0.163507
-0.118132
-0.0761492
-0.0379895
-0.00476541
0.0230677
0.0454596
0.0560621
0.0519578
0.0416019
0.0286404
0.0100091
-0.0114795
-0.0263657
-0.0435265
-0.0805365
-0.11795
-0.121687
-0.0972426
-0.0648212
-0.0370145
-0.0143943
0.00112924
0.00683552
0.00724034
0.00808629
0.00257512
-0.0198794
-0.0655478
-0.134009
-0.211525
-0.267489
-0.271373
-0.211989
-0.14721
-0.0970248
-0.0634873
-0.0410251
-0.0256344
-0.0159788
-0.0104819
-0.00703529
-0.00420006
-0.00199255
-0.000532066
3.34936e-05
4.70663e-05
-0.28664
-0.248608
-0.209447
-0.166716
-0.125306
-0.0858409
-0.0480145
-0.0131845
0.0156891
0.039731
0.0597493
0.0649152
0.0580506
0.0465321
0.0331117
0.0159027
0.00049628
-0.0178159
-0.0520106
-0.0869992
-0.0967794
-0.0801402
-0.0536074
-0.0295463
-0.00921595
0.00634611
0.013666
0.0145606
0.0159412
0.0152969
-0.0031999
-0.0486421
-0.124001
-0.213754
-0.280851
-0.287107
-0.227777
-0.158526
-0.103705
-0.0671632
-0.0431444
-0.0268556
-0.0166319
-0.0108664
-0.00735217
-0.00449231
-0.00221359
-0.000636969
-1.04314e-05
4.50411e-05
-0.275086
-0.250935
-0.218993
-0.181739
-0.14464
-0.108226
-0.0727113
-0.0388537
-0.0080227
0.0184942
0.0388425
0.0553361
0.0589656
0.0539016
0.0480826
0.0387726
0.02488
0.00533767
-0.0246748
-0.0520206
-0.064662
-0.0577788
-0.0403047
-0.0211346
-0.00419249
0.0103669
0.0193625
0.0210466
0.0211678
0.0206237
0.00767352
-0.0328007
-0.110897
-0.209208
-0.285784
-0.296718
-0.241288
-0.169117
-0.109549
-0.0701394
-0.0447718
-0.0277934
-0.017154
-0.0111946
-0.00763688
-0.00476253
-0.00241696
-0.000740295
-6.20856e-05
5.26981e-05
-0.2444
-0.235077
-0.20553
-0.169228
-0.133662
-0.100044
-0.0676182
-0.0363153
-0.00763402
0.0174921
0.0386103
0.0551867
0.06035
0.0572647
0.0553342
0.0549156
0.0447175
0.0191969
-0.0136021
-0.0379298
-0.0467286
-0.0401623
-0.0262416
-0.01002
0.003976
0.0162758
0.0246364
0.0264734
0.0261458
0.0279812
0.0214783
-0.013547
-0.0920049
-0.201048
-0.289891
-0.308765
-0.24864
-0.171701
-0.109773
-0.0699043
-0.044626
-0.0277539
-0.0171492
-0.011244
-0.00777455
-0.00496217
-0.00257341
-0.000825562
-9.67334e-05
7.29506e-05
-0.214944
-0.209777
-0.184022
-0.150821
-0.118692
-0.0892262
-0.0614465
-0.034475
-0.0092106
0.0132771
0.0330247
0.0479816
0.0549317
0.0553453
0.0559632
0.0570223
0.0483613
0.0253704
-0.00242673
-0.0182035
-0.0264374
-0.0223568
-0.0126065
2.81421e-05
0.0109531
0.0209757
0.0285959
0.0303842
0.0291806
0.0304309
0.0272707
-0.00300865
-0.0798428
-0.195421
-0.291858
-0.313281
-0.250076
-0.171369
-0.10883
-0.0692412
-0.0443266
-0.0276966
-0.0172015
-0.0113426
-0.00791019
-0.00513029
-0.00271003
-0.000917736
-0.00013903
6.85523e-05
-0.190089
-0.18635
-0.165917
-0.137799
-0.109679
-0.0835773
-0.0589814
-0.0350772
-0.0122554
0.00846857
0.0267504
0.040822
0.0486181
0.0513685
0.0529856
0.0535489
0.0468254
0.0300212
0.00920043
-0.00889393
-0.0109715
-0.00876375
-0.00255658
0.00724351
0.0162339
0.0244867
0.0314031
0.0333938
0.031701
0.0347789
0.0318615
0.00237082
-0.0741492
-0.19226
-0.289241
-0.315457
-0.247539
-0.169057
-0.107008
-0.0681399
-0.0438186
-0.0275452
-0.0171996
-0.0114028
-0.00802079
-0.00528842
-0.00285155
-0.0010187
-0.000191904
5.62416e-05
-0.166714
-0.164537
-0.148604
-0.124967
-0.100333
-0.077154
-0.0554796
-0.0346404
-0.0146068
0.0038625
0.0201875
0.0332608
0.0416301
0.0459229
0.0483489
0.0491384
0.0450106
0.0336966
0.0182889
0.0050086
0.001337
0.00223985
0.00614476
0.0135629
0.0208337
0.0272271
0.0330521
0.0349821
0.0332608
0.0368087
0.0356309
0.00681245
-0.068976
-0.185374
-0.2795
-0.287911
-0.238833
-0.163377
-0.103553
-0.0662608
-0.0429334
-0.0272285
-0.0171334
-0.011433
-0.00811194
-0.00543318
-0.00299141
-0.00112528
-0.000254262
3.85217e-05
-0.145458
-0.144919
-0.132531
-0.112858
-0.0916965
-0.0715542
-0.05272
-0.0347055
-0.0173103
-0.000998595
0.0136004
0.0257801
0.0343656
0.0396369
0.0428914
0.0442231
0.0417717
0.0342551
0.0235726
0.0138052
0.0102281
0.0104854
0.0126307
0.017867
0.0238909
0.0290039
0.0338161
0.0351332
0.0335463
0.0373533
0.0378902
0.0105632
-0.0614119
-0.172277
-0.262446
-0.275002
-0.225102
-0.154528
-0.0986234
-0.0636675
-0.04168
-0.026729
-0.016981
-0.0114173
-0.00817227
-0.00555713
-0.00312533
-0.00123569
-0.000324516
1.58025e-05
-0.126989
-0.127344
-0.117718
-0.10154
-0.0836327
-0.066342
-0.050114
-0.0346231
-0.0195987
-0.00530424
0.00770086
0.0187871
0.0272013
0.03293
0.0367048
0.0385062
0.0373582
0.0328256
0.0259365
0.0188926
0.0159544
0.0160927
0.0174321
0.0212041
0.0261409
0.0300501
0.033725
0.0340383
0.0322739
0.0357444
0.0377481
0.0129006
-0.0518626
-0.152823
-0.236679
-0.251305
-0.205392
-0.1422
-0.0920068
-0.0602479
-0.0399975
-0.0260148
-0.016727
-0.011347
-0.00819563
-0.00565509
-0.00324902
-0.00134693
-0.000399894
-1.04609e-05
-0.110441
-0.11137
-0.104055
-0.0909321
-0.0759648
-0.0613067
-0.0474718
-0.0342405
-0.0213642
-0.0089909
0.00241727
0.0124063
0.0204186
0.0262806
0.0303746
0.0326828
0.0326819
0.0303176
0.0262171
0.0217488
0.0195699
0.0197686
0.0207303
0.0232358
0.0271331
0.0303724
0.0329908
0.0323461
0.0300271
0.0320593
0.0339983
0.0124732
-0.0417595
-0.127693
-0.202163
-0.218715
-0.180286
-0.126978
-0.0840036
-0.0561151
-0.0379086
-0.0250737
-0.0163545
-0.0112095
-0.00817305
-0.00572009
-0.00335702
-0.00145529
-0.000477401
-3.8798e-05
-0.0955103
-0.0969673
-0.0915416
-0.0810183
-0.0686642
-0.0563891
-0.0447055
-0.03349
-0.0225504
-0.0119477
-0.00201801
0.00686525
0.0143174
0.0201017
0.0243612
0.0270853
0.0280013
0.0272184
0.0251842
0.0226236
0.0213115
0.0216477
0.0225908
0.0244135
0.0274396
0.0301655
0.0318041
0.0304842
0.0275861
0.0276854
0.0242747
0.00841568
-0.0320977
-0.0975423
-0.159866
-0.178407
-0.151031
-0.109561
-0.0748377
-0.0513255
-0.03542
-0.0238953
-0.0158506
-0.0109946
-0.00809654
-0.00574547
-0.00344363
-0.00155658
-0.000553745
-6.77635e-05
-0.0823162
-0.0840927
-0.0801499
-0.0718012
-0.0617017
-0.0515111
-0.0417353
-0.0323199
-0.023107
-0.0141009
-0.00553709
0.00227598
0.00906166
0.0145941
0.0188805
0.0219066
0.0235509
0.0239258
0.0233454
0.022272
0.0217968
0.0223645
0.0233945
0.024789
0.0270624
0.0293714
0.0303517
0.0288414
0.0257405
0.0246753
0.018303
0.00329058
-0.0221618
-0.0641744
-0.113705
-0.134958
-0.120451
-0.0913701
-0.0651061
-0.046106
-0.032604
-0.0224891
-0.0152064
-0.0106921
-0.00795771
-0.00572416
-0.00350265
-0.00164616
-0.000625589
-9.62756e-05
-0.0706386
-0.0725258
-0.0697483
-0.0632052
-0.0550233
-0.0466451
-0.0385584
-0.0307364
-0.0230439
-0.0154588
-0.00814588
-0.00134786
0.00472954
0.00989665
0.0140991
0.0173055
0.0194602
0.0206491
0.0210976
0.0211226
0.0213229
0.022107
0.0232229
0.024453
0.0262182
0.0281621
0.0288622
0.0274317
0.0248696
0.0234989
0.01665
0.00464803
-0.00770055
-0.0322328
-0.0722271
-0.0959418
-0.0917686
-0.0736918
-0.0552445
-0.0406036
-0.0295151
-0.0208684
-0.014418
-0.0102947
-0.00774951
-0.00564971
-0.0035279
-0.00171934
-0.000689854
-0.000123513
-0.0601665
-0.0620939
-0.0602461
-0.0552098
-0.0486673
-0.0418488
-0.0352148
-0.0287701
-0.0224016
-0.0160706
-0.00988533
-0.00402948
0.0013407
0.00607088
0.0100865
0.0133432
0.0158128
0.0175466
0.0186855
0.019441
0.0201842
0.0211974
0.0224167
0.0236055
0.0250382
0.0266321
0.0272635
0.0262666
0.0247204
0.0241231
0.020179
0.0146955
0.00962582
-0.00725454
-0.0406282
-0.0639249
-0.0669943
-0.0576635
-0.0458152
-0.0350826
-0.0262667
-0.0190697
-0.0134888
-0.00979675
-0.0074653
-0.0055158
-0.00351319
-0.00177131
-0.000743815
-0.000148843
-0.0508611
-0.0527879
-0.0516511
-0.0478294
-0.0426445
-0.0371366
-0.031736
-0.0264739
-0.0212539
-0.0160229
-0.0108386
-0.00583978
-0.00115349
0.00309957
0.00684888
0.0100421
0.0126542
0.0147096
0.0162837
0.017544
0.0186713
0.0198645
0.0211558
0.0223437
0.0235868
0.0249317
0.0255796
0.025132
0.0244507
0.0247304
0.0245807
0.0233555
0.0216162
0.007414
-0.019612
-0.0406624
-0.0471351
-0.0438684
-0.0370941
-0.0296706
-0.0229284
-0.0171259
-0.0124287
-0.00919818
-0.00710171
-0.00531791
-0.00345321
-0.00179762
-0.000785235
-0.000171877
-0.0426762
-0.0445205
-0.0438891
-0.0410161
-0.0369404
-0.0325346
-0.0281859
-0.0239339
-0.0196944
-0.0154161
-0.0111024
-0.00687527
-0.00283614
0.00092462
0.00434875
0.00738276
0.00999577
0.0121959
0.0140086
0.0155248
0.0169344
0.0182666
0.0196082
0.0208177
0.021966
0.0231532
0.0238557
0.0238537
0.0238202
0.024601
0.0254719
0.0260755
0.0251428
0.0138243
-0.00687318
-0.0246581
-0.0320561
-0.0324605
-0.029319
-0.0245514
-0.0196127
-0.0150915
-0.0112555
-0.00850173
-0.00665704
-0.00505286
-0.00334373
-0.00179436
-0.000812317
-0.000192327
-0.0354975
-0.0371779
-0.036869
-0.0347497
-0.0315907
-0.0281079
-0.0246405
-0.0212461
-0.0178223
-0.0143286
-0.0107844
-0.00725177
-0.00381526
-0.000542139
0.0025202
0.00532423
0.0078362
0.0100467
0.0119582
0.01364
0.0151597
0.0165636
0.0179243
0.019141
0.0202405
0.0213307
0.0220754
0.0223708
0.0227289
0.0234356
0.0244457
0.0251052
0.0240654
0.0155283
0.000261637
-0.0140016
-0.0210225
-0.0233233
-0.0225697
-0.0198189
-0.0163904
-0.0130122
-0.00999002
-0.00771366
-0.00613184
-0.00471916
-0.00318203
-0.00175882
-0.00082405
-0.000210106
-0.0291772
-0.0307158
-0.0306799
-0.029102
-0.0266475
-0.0238947
-0.0211329
-0.0184074
-0.0156912
-0.0128928
-0.010013
-0.00709747
-0.00420961
-0.00140297
0.0012826
0.00380802
0.0061423
0.00826463
0.0101606
0.0118728
0.0134201
0.0148504
0.0161996
0.017403
0.018466
0.0194843
0.0202463
0.0207027
0.021177
0.0218128
0.0224246
0.0226521
0.0213477
0.0150382
0.00406259
-0.00673239
-0.0130298
-0.016142
-0.0168362
-0.0155452
-0.0133366
-0.0109448
-0.00866542
-0.0068492
-0.00553191
-0.00431777
-0.00296648
-0.00168884
-0.000820038
-0.000225641
-0.0235575
-0.0249608
-0.0251058
-0.0239924
-0.0221138
-0.0199589
-0.0177858
-0.0156432
-0.0134837
-0.0112483
-0.00892557
-0.00654117
-0.00414204
-0.00177023
0.000542175
0.00276571
0.00487311
0.00683882
0.00863955
0.0102962
0.0118145
0.0132086
0.0145136
0.0156795
0.0166997
0.0176494
0.018396
0.0189165
0.0194019
0.0198603
0.0200947
0.0198807
0.0184223
0.0137627
0.00599245
-0.00197937
-0.00732603
-0.0106068
-0.0120772
-0.0117731
-0.010501
-0.00892823
-0.00730665
-0.00592383
-0.00486772
-0.00385534
-0.00269961
-0.00158395
-0.000799795
-0.000239685
-0.0186993
-0.0199337
-0.0201664
-0.0193825
-0.0179636
-0.0163012
-0.014611
-0.0129395
-0.0112461
-0.00947918
-0.00762246
-0.00569143
-0.00372339
-0.00174957
0.000207483
0.00212554
0.00398037
0.00574644
0.00739662
0.00893861
0.0103678
0.011688
0.0129192
0.0140219
0.0149871
0.0158652
0.0165637
0.0170751
0.0175041
0.0177886
0.0177533
0.017256
0.0158066
0.0123414
0.00689555
0.00104411
-0.00330983
-0.00640227
-0.00819924
-0.00851517
-0.00793039
-0.00700789
-0.00594157
-0.00494957
-0.00414536
-0.00333736
-0.00238732
-0.00144919
-0.000766767
-0.000253569
-0.0144493
-0.0155056
-0.0157891
-0.0152611
-0.0142067
-0.0129382
-0.0116374
-0.0103487
-0.00903827
-0.00765768
-0.00619019
-0.00464631
-0.00305421
-0.00143546
0.000193071
0.0018145
0.00340933
0.00495411
0.00642211
0.00781248
0.00911392
0.0103258
0.0114555
0.0124742
0.0133673
0.014163
0.0148012
0.0152642
0.0156067
0.0157515
0.0155571
0.0149332
0.0136121
0.0110065
0.00703094
0.00289025
-0.000523826
-0.00324311
-0.00507953
-0.005744
-0.0056433
-0.00522529
-0.00461308
-0.00395566
-0.0033788
-0.00276676
-0.00202632
-0.00128255
-0.000727003
-0.000275966
-0.0107353
-0.011642
-0.0119494
-0.0116066
-0.0108319
-0.00987558
-0.00888836
-0.0079087
-0.00690893
-0.00584677
-0.00470446
-0.00348704
-0.00221637
-0.000909012
0.000421523
0.00176461
0.00310563
0.00442441
0.00569565
0.00691386
0.00806516
0.00914654
0.0101573
0.0110727
0.0118775
0.0125864
0.0131513
0.0135506
0.0138149
0.0138709
0.0136018
0.0129659
0.0118381
0.00988581
0.00703036
0.00402345
0.00139187
-0.000899016
-0.00260705
-0.00342052
-0.00362845
-0.00357959
-0.00333141
-0.002964
-0.00259644
-0.0021719
-0.00163512
-0.00108333
-0.000666415
-0.000323431
-0.0075312
-0.00829196
-0.00859218
-0.00838124
-0.00782405
-0.00711647
-0.00638054
-0.00564895
-0.00489955
-0.00409591
-0.00322065
-0.00227537
-0.00127818
-0.000241444
0.000824612
0.00191467
0.0030181
0.00411769
0.00519103
0.00623048
0.00722142
0.00816009
0.00904064
0.00984301
0.0105503
0.0111679
0.0116561
0.011999
0.0121996
0.0122014
0.0119371
0.011366
0.0104327
0.00895334
0.00689121
0.00471479
0.00271001
0.000831657
-0.000673895
-0.00151681
-0.00190552
-0.00210126
-0.00211041
-0.00196806
-0.00178501
-0.00154504
-0.00122495
-0.000881591
-0.000619309
-0.000410958
-0.0047615
-0.00538831
-0.00567
-0.00555626
-0.0051684
-0.0046576
-0.00412152
-0.00358732
-0.00303722
-0.00244066
-0.00178264
-0.00106319
-0.000296424
0.000509204
0.00134589
0.0022119
0.00309906
0.00399412
0.00487818
0.00574216
0.00657228
0.00736599
0.00811361
0.00879935
0.00940522
0.00993051
0.0103443
0.0106347
0.010796
0.0107869
0.010541
0.010061
0.0093213
0.00820571
0.00670798
0.0051355
0.00362051
0.00211735
0.000847341
4.93554e-05
-0.000438209
-0.000805424
-0.00100441
-0.00102989
-0.000988557
-0.00089938
-0.000768407
-0.000628471
-0.000527255
-0.000699544
-0.00238097
-0.00289325
-0.00314981
-0.00310417
-0.00284523
-0.00248824
-0.00210981
-0.00173158
-0.00133938
-0.00090814
-0.000425492
0.000109408
0.000685119
0.00129654
0.00193768
0.00260941
0.00330539
0.00401584
0.00472502
0.00542454
0.00610225
0.00675568
0.00737348
0.00794491
0.00845166
0.00888908
0.00923055
0.00947637
0.0096099
0.00960031
0.00939888
0.00901762
0.00844894
0.00761665
0.00652765
0.00539177
0.00425084
0.00306675
0.00202968
0.00132572
0.000820421
0.000370727
4.71236e-05
-0.000121243
-0.000223953
-0.000301446
-0.000361487
-0.000380541
-0.000309984
0.000275676
-0.000353176
-0.000764522
-0.000990642
-0.000991589
-0.000831083
-0.000594533
-0.000340231
-8.45906e-05
0.000183426
0.000483847
0.000826423
0.00121229
0.00163209
0.00208318
0.00256062
0.00306733
0.00359828
0.00414696
0.0047005
0.00525125
0.00578886
0.00631194
0.00680917
0.00727412
0.00768809
0.00804753
0.00833519
0.00853175
0.0086419
0.00863844
0.00848599
0.00819886
0.00777499
0.00716148
0.0063723
0.00555376
0.00469902
0.00378112
0.0029508
0.00234225
0.00184287
0.00136202
0.000991697
0.00076245
0.000578506
0.000368918
9.59352e-05
-0.000164549
-0.000273131
-0.000186275
0.00136495
0.00103885
0.000842386
0.000808938
0.000894348
0.00103745
0.00119515
0.00135557
0.00152703
0.00172509
0.00195699
0.00222395
0.00251822
0.00283889
0.00318183
0.0035516
0.00394374
0.00435435
0.00477293
0.00519361
0.00560754
0.0060142
0.00640236
0.00677004
0.00709865
0.00738649
0.00761937
0.00778035
0.00787436
0.00787913
0.00777224
0.00756603
0.00726079
0.00681829
0.00625534
0.00567181
0.00503351
0.00433454
0.00369046
0.00319309
0.00273335
0.00224606
0.00182917
0.00152242
0.00124225
0.000915978
0.000518139
0.000113095
-0.000174735
-0.000126296
0.0028034
0.00254685
0.00237773
0.00232244
0.00235149
0.00242301
0.00250643
0.00259381
0.00269113
0.00280999
0.00295543
0.0031286
0.00332331
0.00354002
0.00377502
0.00403367
0.00431165
0.00460748
0.00491251
0.0052225
0.00553044
0.00583683
0.00613051
0.00641264
0.00666554
0.00689034
0.00707506
0.00720585
0.00728799
0.00730163
0.0072341
0.0070931
0.00688007
0.00656505
0.00616836
0.00575713
0.00528967
0.00477217
0.00428056
0.00387742
0.00347019
0.00303724
0.00265646
0.00235348
0.00200795
0.0015074
0.000834597
0.000165698
-0.000236171
-0.000308902
0.00398682
0.00378603
0.00364096
0.00357139
0.00355857
0.00357606
0.00360318
0.00363543
0.00367661
0.00373512
0.00381411
0.00391468
0.00403215
0.00416773
0.00431805
0.00448866
0.00467532
0.00487844
0.00509091
0.00531025
0.00553043
0.00575283
0.00596658
0.00617692
0.0063648
0.00653685
0.00667943
0.00678528
0.00685641
0.00687686
0.00684192
0.00675284
0.00661375
0.0063986
0.00612927
0.0058414
0.00549999
0.00512215
0.00475606
0.00444554
0.00410051
0.00371429
0.00333594
0.00301883
0.00266392
0.0021489
0.00142748
0.000593131
-4.72778e-05
-0.000164449
0.0049345
0.00477676
0.00465153
0.00457277
0.00452951
0.00450711
0.0044926
0.00448418
0.00448395
0.00449751
0.00452679
0.0045725
0.00463169
0.0047057
0.00479176
0.00489495
0.0050111
0.00514186
0.00528179
0.005429
0.00557962
0.00573464
0.00588457
0.00603657
0.00617117
0.00629885
0.0064072
0.00649239
0.00655354
0.00657911
0.00656589
0.00651533
0.00642964
0.00628962
0.00611373
0.00592415
0.00569497
0.00543623
0.00517867
0.00494143
0.00466493
0.00436018
0.00404458
0.00376048
0.0033162
0.00256475
0.00154008
0.000507445
-0.000133028
-0.000269018
0.0056569
0.00553049
0.00542052
0.00533614
0.00527163
0.00522114
0.00517707
0.00514012
0.00511042
0.00509211
0.00508565
0.0050918
0.00510913
0.00513838
0.00517827
0.00523198
0.00529663
0.00537386
0.00545993
0.00555338
0.00565248
0.00575615
0.00585787
0.00596408
0.00605632
0.00614655
0.00623238
0.00630474
0.00635664
0.00638755
0.00638968
0.00636748
0.00632009
0.00623553
0.00612282
0.00599487
0.00584423
0.00566333
0.00549087
0.00533541
0.00515427
0.0049327
0.004671
0.00449939
0.00421777
0.0035882
0.00248621
0.00117139
0.000194087
-7.19289e-05
0.00615625
0.00605048
0.00595103
0.00586338
0.0057852
0.00571648
0.00565316
0.00559777
0.00554886
0.00550968
0.00547981
0.00545968
0.00544968
0.00544917
0.00545874
0.0054799
0.00551004
0.00555204
0.00560189
0.00565919
0.00572468
0.00579326
0.00586586
0.00594314
0.00601449
0.00609346
0.00614968
0.0062017
0.00624666
0.00627755
0.00628436
0.00628751
0.00626141
0.00621574
0.00614836
0.00607852
0.00598627
0.00586319
0.00577111
0.00565877
0.00552289
0.00536152
0.0051744
0.00510758
0.00480068
0.00394453
0.00262143
0.00129519
0.000344164
2.38193e-05
0.00642085
0.0063258
0.00623194
0.0061425
0.00605763
0.0059792
0.00590655
0.00584143
0.00578299
0.00573315
0.00569113
0.00565775
0.00563374
0.00561756
0.0056127
0.00561558
0.00562943
0.00565233
0.0056828
0.00572306
0.00576842
0.00581979
0.00587635
0.00593478
0.00599269
0.00605465
0.00610582
0.00615704
0.00619634
0.00622736
0.00623918
0.00625326
0.0062338
0.00621439
0.00617054
0.00612945
0.00606663
0.00598321
0.00596012
0.00590913
0.00583218
0.00575005
0.00578609
0.00604631
0.00609201
0.00532471
0.00366025
0.00195693
0.00080875
0.00023346
-0.166552
-0.178024
-0.188552
-0.197912
-0.207453
-0.214599
-0.222565
-0.22601
-0.233244
-0.235315
-0.151052
-0.160188
-0.168673
-0.175874
-0.18344
-0.187719
-0.192748
-0.194201
-0.197989
-0.202814
-0.136063
-0.143089
-0.149625
-0.154951
-0.160357
-0.163487
-0.16778
-0.170984
-0.174786
-0.181139
-0.122081
-0.12742
-0.132257
-0.136327
-0.140557
-0.14443
-0.14849
-0.152276
-0.154861
-0.159623
-0.108948
-0.113035
-0.116604
-0.120094
-0.123771
-0.127631
-0.130312
-0.132962
-0.134367
-0.13839
-0.0968558
-0.100017
-0.102679
-0.105698
-0.108484
-0.111307
-0.112768
-0.114869
-0.116526
-0.120495
-0.0856844
-0.0881195
-0.0900727
-0.092407
-0.0942284
-0.0962847
-0.0976624
-0.0998374
-0.101587
-0.104911
-0.075377
-0.0771916
-0.0785485
-0.0802105
-0.0815607
-0.0833926
-0.084792
-0.0865363
-0.0878199
-0.0905506
-0.0658704
-0.0671794
-0.0681155
-0.0693542
-0.0705089
-0.0720157
-0.0730453
-0.0742209
-0.0752951
-0.077817
-0.0571566
-0.0580929
-0.0587695
-0.0597108
-0.0606076
-0.061676
-0.0624025
-0.0633784
-0.0644806
-0.0667558
-0.0492294
-0.0498924
-0.0503764
-0.051048
-0.0516878
-0.0524669
-0.0531018
-0.0539892
-0.0549764
-0.0568751
-0.0420443
-0.042498
-0.0428236
-0.0432833
-0.0437503
-0.0443596
-0.0449035
-0.04561
-0.0464017
-0.047993
-0.0355468
-0.0358435
-0.03605
-0.036362
-0.0367101
-0.0371757
-0.0375947
-0.038126
-0.0387864
-0.0401774
-0.0296898
-0.0298774
-0.0300057
-0.0302192
-0.0304728
-0.0308041
-0.0311069
-0.0315235
-0.0321239
-0.0333602
-0.0244323
-0.024551
-0.024628
-0.0247644
-0.0249318
-0.0251649
-0.0254179
-0.0258
-0.0263486
-0.0273782
-0.0197235
-0.0197999
-0.0198432
-0.019931
-0.0200572
-0.0202524
-0.0204785
-0.0207877
-0.0212107
-0.0220309
-0.0155204
-0.0155798
-0.0156148
-0.0156837
-0.0157835
-0.0159264
-0.0160849
-0.0163105
-0.0166678
-0.0173894
-0.0117886
-0.0118443
-0.0118783
-0.0119303
-0.0120011
-0.0121055
-0.0122389
-0.0124459
-0.0127711
-0.0133741
-0.0084713
-0.00853577
-0.00857938
-0.00863231
-0.00870118
-0.00879912
-0.00892274
-0.00909776
-0.00936088
-0.00984789
-0.00555149
-0.00563094
-0.00569186
-0.00575558
-0.00582695
-0.00591463
-0.00601972
-0.00616625
-0.00639142
-0.00680026
-0.00299476
-0.00309087
-0.00316838
-0.00324284
-0.00331936
-0.00340611
-0.00350793
-0.003643
-0.00383883
-0.00417325
-0.000768152
-0.000881263
-0.000976637
-0.00106541
-0.00115302
-0.00124528
-0.00134579
-0.00146793
-0.00163539
-0.00190859
0.00115445
0.00102663
0.000914561
0.000811652
0.000713826
0.000616307
0.00051489
0.000398836
0.00024931
2.28344e-05
0.00279961
0.00266016
0.00253454
0.00241882
0.00230992
0.00220424
0.00209818
0.00198424
0.00184879
0.00166113
0.00418925
0.00404056
0.0039038
0.00377688
0.00365777
0.00354426
0.00343362
0.00332065
0.00319546
0.00303696
0.00534155
0.00518583
0.00504063
0.00490502
0.00477769
0.00465737
0.00454207
0.00442837
0.00430952
0.00417202
0.00627
0.00610912
0.00595774
0.00581557
0.00568178
0.00555579
0.00543625
0.00532117
0.00520626
0.00508351
0.00698166
0.00681713
0.00666146
0.00651472
0.00637632
0.0062462
0.00612331
0.00600677
0.00589385
0.00578052
0.00747427
0.00730785
0.00714984
0.00700053
0.00685951
0.00672698
0.00660194
0.00648414
0.00637188
0.0062637
0.00773182
0.00756528
0.00740677
0.00725675
0.00711495
0.00698182
0.0068562
0.00673816
0.00662614
0.00652022
0.018374
0.0212293
0.022962
0.0232907
0.0221584
0.0198473
0.0166004
0.0123551
0.00680457
-0.000463125
-0.0099241
-0.0221624
-0.037935
-0.0582362
-0.084371
-0.118067
-0.161562
-0.216508
-0.280324
-0.31797
-0.00193397
-0.000788342
-0.00267085
-0.00603297
-0.0101679
-0.0150545
-0.0209241
-0.0280976