/*--------------------------------*- C++ -*----------------------------------*\
| =========                 |                                                 |
| \\      /  F ield         | OpenFOAM: The Open Source CFD Toolbox           |
|  \\    /   O peration     | Version:  2312                                  |
|   \\  /    A nd           | Website:  www.openfoam.com                      |
|    \\/     M anipulation  |                                                 |
\*---------------------------------------------------------------------------*/
FoamFile
{
    version     2.0;
    format      ascii;
    arch        "LSB;label=32;scalar=64";
    class       volVectorField;
    location    "98.75";
    object      U;
}
// * * * * * * * * * * * * * * * * * * * * * * * * * * * * * * * * * * * * * //

dimensions      [0 1 -1 0 0 0 0];

internalField   nonuniform List<vector> 
5478
(
(-0.0273643 0.0158293 -7.72695e-20)
(-0.0474318 0.0174985 0)
(-0.0360968 0.00707796 1.18975e-19)
(0.0253073 -0.00421615 -2.08161e-19)
(0.148904 -0.0127592 1.34631e-19)
(0.328682 -0.0139771 -4.19461e-20)
(0.538828 -0.00656951 -6.62012e-20)
(0.749288 0.00777987 0)
(0.934843 0.0273742 0)
(1.08113 0.0454364 6.6066e-20)
(1.18742 0.0614456 -3.31965e-20)
(1.24087 0.0731795 -4.75716e-20)
(1.27214 0.0682186 -1.82814e-20)
(1.26262 0.0749201 0)
(1.23527 0.0433871 4.77658e-20)
(-0.0333317 0.0208235 1.55079e-19)
(-0.0376515 0.0255259 0)
(0.0194821 0.0160172 0)
(0.155214 0.00743443 -1.03725e-19)
(0.366488 0.00897861 1.36603e-19)
(0.614538 0.0218457 3.83113e-20)
(0.850391 0.0414894 -6.14708e-20)
(1.0399 0.0623927 5.45027e-20)
(1.16826 0.0787448 1.22914e-19)
(1.2392 0.0882514 -1.05824e-19)
(1.25869 0.0914262 5.10258e-22)
(1.25357 0.0847956 0)
(1.23277 0.0797465 1.82498e-20)
(1.21016 0.0685421 0)
(1.21511 0.0570049 0)
(-0.0332001 0.0183589 -3.43415e-22)
(-0.00814907 0.0192815 -7.16822e-20)
(0.116975 0.0134617 1.25776e-22)
(0.348255 0.0198389 0)
(0.634195 0.0424032 -4.48982e-20)
(0.898212 0.0714436 3.7519e-20)
(1.09269 0.0966172 3.08678e-20)
(1.2059 0.111708 0)
(1.25179 0.116107 -4.18244e-20)
(1.25282 0.113001 3.37297e-20)
(1.23916 0.104418 2.71787e-20)
(1.22423 0.0985395 0)
(1.21722 0.0889287 0)
(1.22053 0.0856625 -5.38005e-20)
(1.21618 0.0729043 4.78994e-20)
(-0.0258923 0.0119989 -8.32352e-20)
(0.0515095 0.00630541 7.09028e-20)
(0.274749 0.0147837 -6.13297e-20)
(0.595617 0.0494916 5.32792e-20)
(0.896533 0.0927157 8.9475e-20)
(1.1063 0.126135 -7.42671e-20)
(1.21635 0.14271 -3.08472e-20)
(1.25357 0.144755 2.29716e-20)
(1.25286 0.138906 -2.24138e-20)
(1.24338 0.129915 0)
(1.23445 0.123408 0)
(1.22752 0.114016 -3.95179e-20)
(1.22003 0.108107 5.07751e-20)
(1.20336 0.0974141 -2.83446e-20)
(1.1894 0.0869927 0)
(-0.00817931 0.00435748 4.2055e-20)
(0.154009 -0.0021153 3.53287e-20)
(0.489665 0.0389897 -1.26471e-19)
(0.841669 0.101273 1.46473e-21)
(1.08658 0.148773 -1.72663e-21)
(1.21105 0.171417 -1.1336e-21)
(1.25367 0.174955 2.89385e-20)
(1.25762 0.169109 2.4222e-20)
(1.24999 0.160155 1.68697e-20)
(1.23824 0.151621 -3.18539e-21)
(1.22433 0.141104 -3.78684e-20)
(1.20925 0.131977 0)
(1.19406 0.121887 1.62262e-20)
(1.18628 0.111531 -1.18029e-20)
(1.18277 0.103983 2.1355e-20)
(0.0258693 -0.00282821 -8.97917e-20)
(0.305752 0.00816355 9.70818e-20)
(0.716955 0.0900944 -3.31712e-20)
(1.0286 0.161689 2.50208e-20)
(1.19176 0.1979 -4.60606e-20)
(1.25199 0.2072 -3.38539e-20)
(1.26194 0.20302 1.01849e-21)
(1.25289 0.193594 0)
(1.23712 0.182699 3.44654e-20)
(1.22078 0.170541 -3.06491e-20)
(1.20681 0.159748 1.19191e-20)
(1.19617 0.14857 0)
(1.18886 0.138702 7.01707e-21)
(1.17877 0.127854 -1.21736e-20)
(1.16478 0.120194 0)
(0.0817939 -0.00459592 -1.11629e-20)
(0.489392 0.0488878 9.73024e-22)
(0.905654 0.15643 1.62403e-20)
(1.14584 0.220465 2.72124e-20)
(1.24201 0.242118 -2.05885e-20)
(1.26254 0.241121 3.44666e-20)
(1.2532 0.230941 -7.85086e-21)
(1.23592 0.217907 0)
(1.21958 0.204201 -2.01194e-20)
(1.20563 0.191508 1.56559e-21)
(1.19301 0.178633 1.6365e-20)
(1.18054 0.166672 0)
(1.16733 0.154922 -1.01724e-20)
(1.15711 0.142977 0)
(1.15086 0.135468 5.94899e-21)
(0.159496 0.00626745 -1.23256e-20)
(0.665571 0.116601 0)
(1.04024 0.228644 1.70035e-20)
(1.21015 0.277552 0)
(1.25678 0.284663 0)
(1.25254 0.274279 0)
(1.23481 0.259003 -6.5666e-21)
(1.21666 0.242943 0)
(1.19984 0.227355 4.06052e-21)
(1.1843 0.211799 0)
(1.1707 0.197277 -5.0491e-21)
(1.15998 0.183232 0)
(1.15246 0.170017 3.15158e-21)
(1.14431 0.15825 0)
(1.1332 0.149263 1.96295e-21)
(0.00387115 -0.192952 -1.26554e-20)
(-0.0175056 -0.310362 0)
(-0.0639199 -0.320317 1.98464e-20)
(-0.113014 -0.301001 0)
(-0.160165 -0.275219 0)
(-0.203423 -0.240614 0)
(-0.240866 -0.191715 -1.30675e-20)
(-0.270991 -0.125402 0)
(-0.293299 -0.0410117 1.06152e-20)
(-0.306581 0.0613391 0)
(-0.30952 0.177021 -1.64208e-20)
(-0.302621 0.300069 0)
(-0.283928 0.42226 1.18053e-20)
(-0.256659 0.530202 0)
(-0.210496 0.620398 7.91294e-21)
(0.0136548 -0.165474 6.11934e-20)
(-0.00738977 -0.258636 -4.23062e-20)
(-0.0598599 -0.259843 1.66808e-20)
(-0.116325 -0.238151 6.60736e-20)
(-0.171375 -0.214231 3.77285e-22)
(-0.223218 -0.185259 -5.38368e-20)
(-0.269626 -0.14534 3.70313e-20)
(-0.308543 -0.0910338 0)
(-0.33672 -0.02118 2.67966e-20)
(-0.353247 0.0630529 -7.70743e-22)
(-0.357251 0.157327 -1.25194e-20)
(-0.345008 0.255471 0)
(-0.317325 0.351036 -2.87612e-20)
(-0.274426 0.443993 0)
(-0.188313 0.514425 -3.37609e-20)
(0.0204647 -0.132696 8.99186e-20)
(0.0025373 -0.203512 1.95469e-20)
(-0.0484354 -0.198421 -3.64445e-20)
(-0.102586 -0.174513 -9.36474e-20)
(-0.153566 -0.151499 5.42521e-20)
(-0.199501 -0.127406 4.73874e-20)
(-0.238172 -0.0964117 -8.13287e-20)
(-0.267239 -0.0554033 0)
(-0.284489 -0.00313352 -6.00726e-20)
(-0.287308 0.0583337 5.34118e-20)
(-0.274711 0.127058 1.9256e-20)
(-0.245074 0.202087 0)
(-0.181497 0.266339 1.69518e-20)
(-0.127893 0.332075 -2.04468e-20)
(0.00355188 0.355005 0)
(0.0233654 -0.100792 4.09413e-20)
(0.00856763 -0.152805 -1.13193e-19)
(-0.0374374 -0.14441 1.30666e-19)
(-0.0838489 -0.119726 -1.12978e-19)
(-0.123459 -0.0975904 -4.83204e-20)
(-0.154401 -0.0780137 4.1653e-20)
(-0.175289 -0.0561092 3.93281e-20)
(-0.184144 -0.0284418 2.97693e-20)
(-0.179096 0.00626716 -7.44694e-20)
(-0.158417 0.0478829 4.07258e-21)
(-0.113308 0.0949326 1.66747e-20)
(-0.0726145 0.144916 0)
(0.0410482 0.180479 1.89103e-20)
(0.0865582 0.247645 5.39192e-20)
(0.276184 0.222028 -2.98582e-20)
(0.0214029 -0.0720915 -1.08947e-21)
(0.00669182 -0.109633 6.97009e-20)
(-0.0352121 -0.102608 -6.09966e-20)
(-0.0736826 -0.0816364 5.56058e-20)
(-0.101033 -0.0633373 9.42122e-20)
(-0.115658 -0.0496398 -8.08501e-20)
(-0.116374 -0.0366436 -3.30401e-20)
(-0.101929 -0.0206249 -8.3971e-20)
(-0.0705107 -0.000175133 7.26387e-20)
(-0.0241359 0.0231174 0)
(0.0550069 0.0564677 0)
(0.108139 0.0874106 4.23427e-20)
(0.286462 0.0958518 -9.03491e-20)
(0.301619 0.15847 3.00672e-20)
(0.563429 0.120647 0)
(0.0135169 -0.0458381 -2.56922e-22)
(-0.00547471 -0.072425 -6.98572e-20)
(-0.0455787 -0.0712492 1.8071e-19)
(-0.0777771 -0.0593402 -5.25038e-20)
(-0.0938087 -0.049266 -4.59242e-20)
(-0.0910083 -0.0433313 3.92251e-20)
(-0.0673124 -0.0389278 3.30574e-20)
(-0.0214052 -0.0330935 5.05283e-20)
(0.0485352 -0.0235102 -8.70746e-20)
(0.140096 -0.0113194 3.35062e-20)
(0.25791 0.00978055 2.63276e-20)
(0.361945 0.0292278 0)
(0.565972 0.0392096 0)
(0.614123 0.0716921 5.63031e-20)
(0.900246 0.0584537 -5.00525e-20)
(-3.1779e-05 -0.0208431 -2.73155e-23)
(-0.0251042 -0.0377997 0)
(-0.0608969 -0.0437714 0)
(-0.0812179 -0.0428502 1.01565e-19)
(-0.0756543 -0.0423989 -4.5244e-20)
(-0.0381426 -0.0446716 3.78569e-20)
(0.0339902 -0.0469613 6.09107e-20)
(0.138647 -0.0459324 -5.40081e-20)
(0.27097 -0.0406712 4.22466e-20)
(0.420331 -0.0262459 -3.35332e-20)
(0.574448 -0.011584 5.50775e-22)
(0.739411 0.0091938 0)
(0.897331 0.0279348 1.78744e-20)
(1.01396 0.0415757 0)
(1.20061 0.0504399 0)
(-0.0154629 0.00120121 -7.53602e-20)
(-0.0422395 -0.00580858 0)
(-0.0620824 -0.0160689 -1.17456e-19)
(-0.0521858 -0.0232021 2.05464e-19)
(0.000264535 -0.0304162 -2.22113e-19)
(0.100907 -0.0368077 -3.45317e-20)
(0.245202 -0.038507 6.55826e-20)
(0.417575 -0.0333523 0)
(0.60284 -0.0218859 0)
(0.777866 -0.0018269 -6.50441e-20)
(0.940284 0.0139776 -2.15017e-20)
(1.07945 0.040597 4.67383e-20)
(1.17423 0.0477528 -1.79032e-20)
(1.26635 0.0617906 0)
(1.29655 0.0579794 -5.19764e-20)
(-0.16283 0.74478 0)
(-0.0412292 0.789463 3.53672e-21)
(0.164716 0.512276 -3.27625e-21)
(0.508475 0.00859944 0)
(0.736554 -0.435592 0)
(0.787279 -0.648756 -1.15529e-22)
(0.814893 -0.624961 0)
(0.776746 -0.611759 0)
(0.615363 -0.634752 5.30513e-23)
(0.549145 -0.438822 0)
(0.705076 -0.031729 0)
(0.862428 0.239889 -9.51387e-23)
(0.905568 0.396713 0)
(0.900415 0.563932 -8.36995e-23)
(0.908661 0.546878 -6.23608e-23)
(0.9154 0.389338 0)
(0.965947 0.111304 -5.77809e-22)
(1.00199 -0.271196 6.97905e-22)
(1.04839 -0.489934 0)
(1.04035 -0.531512 4.10363e-22)
(1.03447 -0.316359 -5.1022e-22)
(1.06863 0.172773 8.85319e-23)
(1.08771 0.433875 -2.04225e-22)
(1.10027 0.524988 1.95142e-22)
(1.17865 0.277707 -2.12644e-22)
(1.1222 -0.423872 0)
(1.05639 -0.634899 -1.75614e-22)
(1.14295 0.127237 1.6792e-22)
(1.04228 0.478194 -1.15007e-22)
(0.950921 0.0468956 0)
(0.917433 -0.187979 -7.5266e-23)
(0.988162 -0.0111221 0)
(0.952564 0.111319 -1.52303e-23)
(0.875466 -0.0565087 -1.21247e-23)
(0.957768 -0.0194806 -4.77821e-25)
(0.984135 0.0664494 2.09346e-25)
(0.91862 -0.00536585 0)
(0.854272 -0.00726023 -1.01344e-24)
(-0.106002 0.644417 1.19148e-20)
(0.115357 0.640295 -1.0211e-22)
(0.394526 0.328653 -1.55238e-20)
(0.707832 -0.15336 1.4803e-20)
(0.890805 -0.520128 0)
(0.895141 -0.677204 1.16419e-22)
(0.865918 -0.62985 -1.56007e-22)
(0.819611 -0.575273 0)
(0.683165 -0.582643 -5.34454e-23)
(0.585284 -0.458899 0)
(0.691045 -0.108725 0)
(0.843578 0.186735 9.58211e-23)
(0.887719 0.368062 0)
(0.871396 0.546514 2.44677e-21)
(0.861761 0.538592 -2.07061e-21)
(0.881257 0.379668 1.96433e-21)
(0.976085 0.0991456 -1.87494e-21)
(1.02421 -0.279721 -1.47128e-22)
(1.06606 -0.498157 0)
(1.06611 -0.530171 0)
(1.03345 -0.321552 -1.04485e-22)
(1.06037 0.162475 1.08736e-21)
(1.06963 0.420135 -1.72034e-21)
(1.07888 0.511451 7.64703e-22)
(1.18625 0.277372 5.7169e-22)
(1.14399 -0.402171 0)
(1.03895 -0.640383 3.95129e-22)
(1.12788 0.12541 0)
(1.04358 0.488557 1.15415e-22)
(0.963606 0.0599295 -2.26194e-22)
(0.926917 -0.192363 3.70271e-22)
(0.995729 -0.0149899 -1.76345e-23)
(0.960125 0.120148 2.87506e-23)
(0.871317 -0.055621 1.07227e-23)
(0.956458 -0.0280668 4.4609e-24)
(0.98836 0.0689321 -1.1486e-24)
(0.926204 0.0023523 -3.24937e-25)
(0.864177 -0.00389978 5.72483e-25)
(0.112878 0.482307 2.1102e-20)
(0.358982 0.484996 -4.806e-20)
(0.636582 0.207517 -4.70924e-21)
(0.912806 -0.228857 3.03053e-20)
(1.05622 -0.536821 3.72215e-22)
(1.01966 -0.66015 -2.48124e-22)
(0.943325 -0.605417 1.58679e-22)
(0.87389 -0.531346 -2.3232e-22)
(0.75851 -0.537112 0)
(0.670004 -0.472289 4.7401e-21)
(0.718555 -0.18569 -4.52169e-21)
(0.832918 0.142293 -1.59023e-22)
(0.856609 0.377458 0)
(0.833623 0.561865 -4.63002e-21)
(0.818412 0.542358 4.29416e-21)
(0.851106 0.36763 -1.91031e-21)
(0.984026 0.0902082 1.82261e-21)
(1.04451 -0.275052 2.45516e-21)
(1.07576 -0.498868 -2.08485e-21)
(1.08322 -0.528112 0)
(1.02688 -0.329273 0)
(1.04739 0.150944 2.02808e-21)
(1.05 0.410553 -1.9363e-21)
(1.05165 0.4986 -1.34484e-21)
(1.18105 0.278455 -1.22953e-22)
(1.15879 -0.370376 1.28161e-21)
(1.01227 -0.639004 7.87843e-24)
(1.10598 0.117286 -8.30582e-22)
(1.04401 0.498837 1.27839e-21)
(0.973834 0.0771664 -1.01659e-21)
(0.934298 -0.194377 3.03367e-23)
(1.00057 -0.0193272 -1.04463e-22)
(0.966195 0.129652 3.06916e-23)
(0.866199 -0.0534986 -2.93448e-23)
(0.95193 -0.0372679 2.29426e-24)
(0.990637 0.0706845 -5.27321e-24)
(0.932141 0.009721 1.03367e-23)
(0.873131 -0.00067307 -1.90955e-25)
(0.374437 0.311105 0)
(0.575579 0.332174 2.50497e-20)
(0.839704 0.105634 -2.46286e-20)
(1.0944 -0.285457 0)
(1.1911 -0.536438 -3.82544e-22)
(1.11607 -0.623748 2.5493e-22)
(1.00453 -0.576313 0)
(0.927575 -0.488595 6.44624e-24)
(0.816015 -0.493617 -1.87486e-22)
(0.74651 -0.483697 0)
(0.777419 -0.245544 -4.53553e-21)
(0.865692 0.0900304 4.48807e-21)
(0.868683 0.338096 -3.57986e-22)
(0.802548 0.544371 -4.58682e-21)
(0.767343 0.540086 4.37375e-21)
(0.81982 0.354396 2.14179e-22)
(0.985175 0.0799502 0)
(1.06233 -0.268784 -2.76263e-22)
(1.08422 -0.497835 3.91241e-21)
(1.09406 -0.525307 2.79133e-22)
(1.01751 -0.337924 7.87938e-22)
(1.03332 0.1288 -3.78996e-21)
(1.0255 0.390719 -2.60562e-21)
(1.01487 0.480215 3.19575e-21)
(1.16102 0.278354 -3.01751e-22)
(1.16559 -0.337423 0)
(0.982865 -0.63404 -4.12356e-22)
(1.07702 0.0985964 8.4153e-22)
(1.03785 0.501298 -1.28835e-21)
(0.978891 0.0932869 1.0224e-21)
(0.939262 -0.195716 -1.65306e-22)
(1.0028 -0.025014 0)
(0.970572 0.139334 -3.33149e-23)
(0.860913 -0.0501823 8.54766e-23)
(0.944995 -0.0469978 1.16315e-23)
(0.991179 0.0715822 4.48881e-24)
(0.936498 0.016653 -1.0344e-23)
(0.881128 0.00237472 5.86643e-25)
(0.638789 0.178486 2.069e-22)
(0.763063 0.206508 5.7244e-22)
(1.03061 0.0169884 0)
(1.26182 -0.306867 0)
(1.28209 -0.493576 0)
(1.17442 -0.556424 0)
(1.03465 -0.537443 8.93604e-21)
(0.967189 -0.451054 -1.5606e-20)
(0.872951 -0.445676 7.07833e-21)
(0.783878 -0.493816 0)
(0.840658 -0.32611 -4.71063e-21)
(0.917948 0.037727 4.62214e-21)
(0.866183 0.351884 6.02362e-21)
(0.770017 0.570153 -5.06565e-21)
(0.737785 0.541536 3.83587e-21)
(0.807874 0.331688 -3.87533e-21)
(0.988924 0.0647289 -2.434e-22)
(1.07777 -0.254675 -4.14207e-21)
(1.08858 -0.488798 3.94617e-21)
(1.0967 -0.520882 4.45122e-22)
(1.00087 -0.349008 5.72074e-22)
(1.01114 0.110278 3.85439e-21)
(1.00098 0.383644 -4.26856e-21)
(0.980295 0.467488 -5.62276e-22)
(1.13364 0.279654 -2.04942e-22)
(1.16377 -0.298285 -1.6479e-22)
(0.952711 -0.625929 0)
(1.04277 0.0756872 0)
(1.03234 0.505128 0)
(0.981822 0.112858 0)
(0.942667 -0.194395 4.11905e-22)
(1.003 -0.0310654 -2.32933e-22)
(0.973471 0.149296 7.31368e-23)
(0.856308 -0.0455458 -2.18317e-22)
(0.936718 -0.057011 1.3163e-23)
(0.990368 0.071621 2.02289e-24)
(0.939416 0.0231163 -1.0636e-23)
(0.888202 0.0052151 -2.15567e-25)
(0.94037 0.0849516 -2.17677e-22)
(1.0119 0.102098 3.86239e-20)
(1.23665 -0.0492861 -3.70383e-20)
(1.38793 -0.28918 -4.41701e-20)
(1.33588 -0.420364 4.20589e-20)
(1.21874 -0.474001 2.59754e-20)
(1.0724 -0.492616 -2.41917e-20)
(0.986339 -0.426226 2.37624e-22)
(0.93794 -0.393744 -1.96453e-22)
(0.813551 -0.479693 0)
(0.833382 -0.395696 -1.456e-22)
(0.946839 -0.022167 1.20153e-20)
(0.876188 0.313615 -1.14418e-20)
(0.738539 0.560272 -3.35997e-22)
(0.694194 0.556447 0)
(0.793479 0.331251 -4.18621e-21)
(0.992459 0.0658062 8.12707e-21)
(1.09172 -0.235933 -3.66905e-21)
(1.09143 -0.474946 0)
(1.09216 -0.515298 3.83472e-21)
(0.981018 -0.359174 5.54138e-22)
(0.986276 0.0765075 -4.982e-21)
(0.971522 0.359457 -3.49745e-21)
(0.938994 0.450999 3.15562e-21)
(1.09825 0.282113 -1.32731e-21)
(1.15267 -0.258898 -8.75575e-22)
(0.930269 -0.614612 2.49633e-21)
(1.00449 0.0422382 -2.91737e-21)
(1.02015 0.498907 2.77498e-21)
(0.978782 0.131132 -4.1697e-22)
(0.944191 -0.192368 3.96417e-22)
(1.00139 -0.0387111 0)
(0.974652 0.158827 8.10957e-23)
(0.852978 -0.0398383 -7.96765e-24)
(0.928178 -0.0671549 0)
(0.988694 0.0707923 -6.70136e-24)
(0.941122 0.0290927 8.0608e-24)
(0.894413 0.00782688 2.57612e-25)
(1.20972 0.0450498 0)
(1.25776 0.0378104 0)
(1.38629 -0.0704775 -1.28759e-22)
(1.4269 -0.239207 0)
(1.33752 -0.342774 0)
(1.22731 -0.39719 2.5499e-20)
(1.11447 -0.438694 -2.42813e-20)
(0.997916 -0.413059 1.46071e-20)
(0.98186 -0.356154 -1.39189e-20)
(0.879176 -0.4294 0)
(0.789538 -0.472121 -1.7002e-22)
(0.950128 -0.11392 2.05743e-22)
(0.896757 0.318105 -1.30095e-20)
(0.722548 0.593327 1.96623e-21)
(0.703118 0.552743 9.69037e-21)
(0.81333 0.300925 1.23061e-22)
(1.00542 0.0474459 -1.26982e-22)
(1.10376 -0.219996 7.55979e-21)
(1.09369 -0.4548 -7.42513e-21)
(1.08341 -0.504167 0)
(0.957022 -0.372539 0)
(0.954389 0.0531956 -3.62417e-22)
(0.940088 0.354349 0)
(0.90729 0.443 1.87365e-21)
(1.06831 0.283163 -4.51784e-22)
(1.13843 -0.215842 -1.00728e-21)
(0.915265 -0.60253 -4.1089e-21)
(0.966785 0.0125473 2.75467e-21)
(1.00964 0.497206 -2.68998e-22)
(0.975286 0.149898 0)
(0.945371 -0.188864 -2.6305e-22)
(0.998872 -0.0460597 2.49417e-22)
(0.974583 0.168379 5.33812e-23)
(0.851564 -0.0331555 -2.06364e-24)
(0.920357 -0.0772604 -3.40502e-23)
(0.986681 0.0692562 6.0086e-24)
(0.941928 0.0346049 0)
(0.899846 0.010179 9.3247e-25)
(1.29551 0.0335801 3.18566e-20)
(1.32984 0.0200535 3.16341e-20)
(1.37562 -0.0368098 3.14895e-21)
(1.36582 -0.149098 -6.44243e-20)
(1.30597 -0.246432 3.13352e-20)
(1.22427 -0.322702 -2.26334e-22)
(1.14972 -0.381807 0)
(1.023 -0.394128 -1.32071e-22)
(0.997778 -0.347029 -1.07364e-22)
(0.948997 -0.368854 0)
(0.777363 -0.477915 -1.30732e-20)
(0.873883 -0.236936 1.23516e-20)
(0.863729 0.223445 2.37954e-22)
(0.719854 0.560004 1.10183e-20)
(0.677416 0.583048 -1.0456e-20)
(0.794394 0.335348 1.30596e-22)
(1.00894 0.0703563 1.34645e-22)
(1.11699 -0.184312 0)
(1.1003 -0.42845 6.8419e-21)
(1.07053 -0.489074 -6.48904e-21)
(0.940693 -0.381828 -5.75833e-21)
(0.914502 0.00452971 5.53965e-22)
(0.904048 0.319053 4.98731e-21)
(0.867176 0.425806 -1.85232e-21)
(1.0359 0.290123 7.8325e-22)
(1.12654 -0.171075 2.68622e-21)
(0.906213 -0.583441 -1.25434e-21)
(0.929176 -0.0339603 3.35256e-21)
(0.99313 0.480793 -2.47004e-21)
(0.966562 0.172586 0)
(0.945827 -0.182034 0)
(0.995857 -0.0558565 0)
(0.973349 0.176609 4.62109e-23)
(0.852156 -0.0250138 -5.56098e-23)
(0.913817 -0.0872437 3.83377e-24)
(0.984887 0.0669597 2.9216e-25)
(0.942229 0.0397233 -3.68646e-24)
(0.904607 0.0123001 0)
(1.25208 0.0273816 0)
(1.28025 0.00217589 0)
(1.29769 -0.0314329 0)
(1.29964 -0.10889 0)
(1.2736 -0.179937 0)
(1.21126 -0.235576 0)
(1.1757 -0.28336 0)
(1.06052 -0.322534 0)
(1.00505 -0.297393 0)
(1.01234 -0.298483 0)
(0.80719 -0.465462 0)
(0.773101 -0.321339 0)
(0.820672 0.184543 0)
(0.700402 0.581494 0)
(0.691752 0.57493 0)
(0.858459 0.277886 0)
(1.04906 0.0372729 0)
(1.13362 -0.155944 0)
(1.11058 -0.3896 0)
(1.05392 -0.488773 0)
(0.918426 -0.399768 0)
(0.878239 -0.0143037 0)
(0.860423 0.319132 0)
(0.821618 0.419281 0)
(1.04176 0.291568 0)
(1.13364 -0.142636 0)
(0.885886 -0.567035 0)
(0.892718 -0.0692808 0)
(0.97888 0.475731 0)
(0.955724 0.187591 0)
(0.946697 -0.177675 0)
(0.991278 -0.0630187 0)
(0.969445 0.187674 0)
(0.854777 -0.0162571 0)
(0.907562 -0.0977604 0)
(0.98232 0.0639119 0)
(0.942121 0.0453071 0)
(0.909764 0.0145928 0)
(1.22043 0.0186346 0)
(1.23591 -0.00995951 0)
(1.25243 -0.0522638 0)
(1.24007 -0.120433 0)
(1.22039 -0.161667 0)
(1.16196 -0.244073 0)
(1.11085 -0.282041 0)
(1.03363 -0.277147 0)
(0.939217 -0.314561 0)
(0.918511 -0.298286 0)
(0.798475 -0.365882 0)
(0.697628 -0.240447 0)
(0.691376 0.249291 0)
(0.611152 0.615591 0)
(0.737919 0.514899 0)
(0.943517 0.190055 0)
(1.1055 -0.0379695 0)
(1.15523 -0.209789 0)
(1.10283 -0.399113 0)
(0.999274 -0.430072 0)
(0.840235 -0.323374 0)
(0.814818 0.0297025 0)
(0.774841 0.342847 0)
(0.769988 0.387489 0)
(1.05314 0.218284 0)
(1.12505 -0.142711 0)
(0.83894 -0.517559 0)
(0.859215 -0.0576874 0)
(0.950712 0.475324 0)
(0.945193 0.181178 0)
(0.955301 -0.183229 0)
(0.988732 -0.0637824 0)
(0.961919 0.203902 0)
(0.862783 -0.00973116 0)
(0.907138 -0.111646 0)
(0.982844 0.0612485 0)
(0.943728 0.0516819 0)
(0.915831 0.0167117 0)
(1.19094 0.0142973 0)
(1.20088 -0.0208176 0)
(1.21594 -0.0422739 0)
(1.19458 -0.0977693 0)
(1.18069 -0.131625 0)
(1.15158 -0.161081 0)
(1.08823 -0.208475 0)
(1.05067 -0.200057 0)
(0.997997 -0.210714 0)
(0.926001 -0.206626 0)
(0.817839 -0.292529 0)
(0.662005 -0.209028 0)
(0.567377 0.271533 0)
(0.604382 0.575322 0)
(0.870067 0.406737 0)
(1.06466 0.0914539 0)
(1.1487 -0.0757402 0)
(1.16063 -0.16435 0)
(1.10457 -0.324138 0)
(0.9597 -0.378695 0)
(0.751485 -0.301093 0)
(0.71921 0.0314654 0)
(0.679728 0.335235 0)
(0.741684 0.322021 0)
(1.0578 0.173355 0)
(1.13954 -0.0993593 0)
(0.817831 -0.47531 0)
(0.819764 -0.0906824 0)
(0.920206 0.450257 0)
(0.943376 0.17923 0)
(0.965628 -0.183599 0)
(0.982775 -0.0672904 0)
(0.95091 0.216618 0)
(0.874718 -0.00257392 0)
(0.911633 -0.125366 0)
(0.986008 0.0581203 0)
(0.946922 0.0582288 0)
(0.922048 0.0187691 0)
(1.16233 0.00880036 0)
(1.16842 -0.0186138 0)
(1.17279 -0.0443 0)
(1.16334 -0.0841739 0)
(1.13754 -0.110214 0)
(1.11203 -0.145246 0)
(1.06981 -0.181873 0)
(1.01517 -0.177569 0)
(0.974971 -0.208922 0)
(0.918332 -0.185808 0)
(0.852131 -0.195861 0)
(0.712251 -0.0918125 0)
(0.602861 0.275969 0)
(0.752867 0.425337 0)
(1.02925 0.251784 0)
(1.16131 0.0399556 0)
(1.17263 -0.0812575 0)
(1.13331 -0.180962 0)
(1.0717 -0.300805 0)
(0.907303 -0.279805 0)
(0.674931 -0.209826 0)
(0.597262 0.06725 0)
(0.602275 0.324103 0)
(0.739665 0.236087 0)
(1.04627 0.0861054 0)
(1.13294 -0.0781112 0)
(0.810644 -0.395256 0)
(0.754267 -0.0914745 0)
(0.870489 0.425144 0)
(0.949368 0.16202 0)
(0.982108 -0.188687 0)
(0.977012 -0.064978 0)
(0.940162 0.231192 0)
(0.892172 0.00253395 0)
(0.921476 -0.140279 0)
(0.993921 0.0547396 0)
(0.9544 0.065513 0)
(0.929723 0.0207365 0)
(1.13254 0.00533186 0)
(1.13877 -0.019835 0)
(1.14067 -0.0376574 0)
(1.12997 -0.0690807 0)
(1.11131 -0.089361 0)
(1.0909 -0.10816 0)
(1.059 -0.135896 0)
(1.01981 -0.119716 0)
(0.989295 -0.142515 0)
(0.928911 -0.112138 0)
(0.870494 -0.114554 0)
(0.784989 -0.0404227 0)
(0.753761 0.21698 0)
(0.9323 0.283278 0)
(1.12017 0.156773 0)
(1.16966 0.00145137 0)
(1.15241 -0.0720501 0)
(1.11538 -0.118254 0)
(1.06872 -0.2187 0)
(0.907142 -0.18681 0)
(0.707069 -0.132846 0)
(0.583085 0.0750603 0)
(0.634415 0.262567 0)
(0.792423 0.134186 0)
(1.03055 0.0229352 0)
(1.13209 -0.0377923 0)
(0.85117 -0.320575 0)
(0.690108 -0.102309 0)
(0.828428 0.387744 0)
(0.978194 0.141939 0)
(1.00499 -0.186629 0)
(0.969125 -0.0617937 0)
(0.932656 0.241824 0)
(0.915441 0.00618883 0)
(0.934714 -0.154494 0)
(1.0059 0.0507719 0)
(0.965533 0.0735227 0)
(0.938777 0.0231547 0)
(1.10874 0.00298106 0)
(1.11277 -0.0159742 0)
(1.11306 -0.0311464 0)
(1.10535 -0.0533947 0)
(1.08798 -0.0692276 0)
(1.07379 -0.0822761 0)
(1.04356 -0.104955 0)
(1.01457 -0.0915013 0)
(0.988639 -0.115579 0)
(0.945446 -0.0806899 0)
(0.915391 -0.0675009 0)
(0.864758 -0.0143621 0)
(0.875486 0.154856 0)
(1.00295 0.162329 0)
(1.12018 0.0928597 0)
(1.14173 0.0170747 0)
(1.11552 -0.0481129 0)
(1.07252 -0.115716 0)
(1.02867 -0.191288 0)
(0.909494 -0.101158 0)
(0.791887 -0.0418538 0)
(0.693177 0.0922292 0)
(0.790574 0.217679 0)
(0.912881 0.0630513 0)
(1.02252 -0.0564157 0)
(1.1102 -0.0216609 0)
(0.919675 -0.213301 0)
(0.665438 -0.0854298 0)
(0.806773 0.327615 0)
(1.01879 0.101176 0)
(1.03024 -0.179548 0)
(0.944822 -0.0483355 0)
(0.91042 0.2497 0)
(0.944394 0.0048821 0)
(0.951087 -0.169131 0)
(1.01526 0.0477543 0)
(0.977116 0.0828055 0)
(0.949943 0.0257549 0)
(1.08794 0.00219571 0)
(1.09169 -0.0126357 0)
(1.0896 -0.0247577 0)
(1.08504 -0.0391199 0)
(1.06903 -0.0542076 0)
(1.06007 -0.0584889 0)
(1.03526 -0.0787924 0)
(1.01767 -0.0616952 0)
(0.997664 -0.0783668 0)
(0.965212 -0.0498125 0)
(0.953642 -0.0300789 0)
(0.917258 -0.00887172 0)
(0.945156 0.0953847 0)
(1.01907 0.0943092 0)
(1.07768 0.0626965 0)
(1.09879 0.00553497 0)
(1.09028 -0.0376216 0)
(1.06775 -0.0593451 0)
(1.00818 -0.128984 0)
(0.91589 -0.0457748 0)
(0.88567 0.00378546 0)
(0.83159 0.0693442 0)
(0.948123 0.153405 0)
(1.04455 0.0357189 0)
(1.03037 -0.0723856 0)
(1.06822 -0.00331569 0)
(0.999728 -0.123521 0)
(0.735906 -0.0588104 0)
(0.837447 0.249854 0)
(1.06077 0.0578331 0)
(1.05093 -0.159486 0)
(0.921816 -0.025718 0)
(0.908078 0.246512 0)
(0.996751 -0.00310998 0)
(0.96969 -0.182029 0)
(1.02585 0.0442962 0)
(0.996151 0.0925805 0)
(0.966783 0.0291464 0)
(1.07012 0.00160769 0)
(1.07467 -0.00822867 0)
(1.07044 -0.0187952 0)
(1.06973 -0.0264839 0)
(1.05517 -0.0399706 0)
(1.04998 -0.0396111 0)
(1.03151 -0.0552292 0)
(1.01749 -0.042268 0)
(1.00701 -0.0522107 0)
(0.979006 -0.0345834 0)
(0.981902 -0.0154605 0)
(0.957332 -0.00696241 0)
(0.978962 0.0578639 0)
(1.01973 0.0484112 0)
(1.05054 0.0370178 0)
(1.0741 0.0118544 0)
(1.05338 -0.0318414 0)
(1.04728 -0.042575 0)
(1.00638 -0.0932061 0)
(0.936486 -0.0252372 0)
(0.955316 0.0192814 0)
(0.931615 0.0477278 0)
(1.01351 0.100589 0)
(1.08356 0.0279294 0)
(1.03364 -0.0718845 0)
(1.02582 -0.0079753 0)
(1.02586 -0.0608451 0)
(0.843784 -0.0198288 0)
(0.919302 0.18738 0)
(1.0895 0.0206061 0)
(1.05082 -0.130594 0)
(0.912137 -0.0017814 0)
(0.950509 0.228944 0)
(1.07276 -0.00980269 0)
(0.989231 -0.184293 0)
(1.02432 0.0398459 0)
(1.00464 0.101162 0)
(0.981321 0.0330975 0)
(1.05611 0.0018618 0)
(1.06088 -0.00420892 0)
(1.05656 -0.0129194 0)
(1.05654 -0.0166886 0)
(1.04603 -0.027901 0)
(1.04111 -0.025871 0)
(1.03009 -0.0371884 0)
(1.01787 -0.0285428 0)
(1.01407 -0.0325367 0)
(0.9933 -0.023669 0)
(0.999366 -0.00653082 0)
(0.983327 -0.00566145 0)
(0.996848 0.0319596 0)
(1.022 0.0257426 0)
(1.02975 0.0196706 0)
(1.05371 0.00879224 0)
(1.03943 -0.0265194 0)
(1.03452 -0.0187488 0)
(1.0096 -0.0541149 0)
(0.959426 -0.0132364 0)
(0.985881 0.0192094 0)
(0.975255 0.0288608 0)
(1.02216 0.0584305 0)
(1.07642 0.0264484 0)
(1.03503 -0.0473294 0)
(1.00524 0.00336659 0)
(1.02228 -0.0273082 0)
(0.916688 -0.0127454 0)
(0.9889 0.136271 0)
(1.09582 0.00798145 0)
(1.04067 -0.0904816 0)
(0.920553 0.0105929 0)
(1.0047 0.189986 0)
(1.13317 -0.0115298 0)
(0.999298 -0.167511 0)
(0.990611 0.0419648 0)
(0.993919 0.106136 0)
(0.995451 0.0346789 0)
(1.04599 0.00265815 0)
(1.04956 -0.00107774 0)
(1.04632 -0.00779839 0)
(1.046 -0.00971553 0)
(1.03958 -0.0178972 0)
(1.03465 -0.0161469 0)
(1.02919 -0.0233905 0)
(1.01894 -0.0184043 0)
(1.01852 -0.0195574 0)
(1.00426 -0.0154137 0)
(1.0083 -0.00381822 0)
(1.00105 -0.00458759 0)
(1.00532 0.0164218 0)
(1.02267 0.0122818 0)
(1.02158 0.00838973 0)
(1.0393 0.0079921 0)
(1.02924 -0.0200321 0)
(1.02162 -0.0101362 0)
(1.01374 -0.0334707 0)
(0.97895 -0.00874251 0)
(0.999296 0.0124988 0)
(0.997199 0.019166 0)
(1.01703 0.034371 0)
(1.05407 0.0224991 0)
(1.02947 -0.032523 0)
(0.999994 0.00356789 0)
(1.02683 -0.00870753 0)
(0.956632 -0.00848024 0)
(1.00938 0.099121 0)
(1.0795 0.00173649 0)
(1.03176 -0.0556938 0)
(0.942309 0.010926 0)
(1.03423 0.141732 0)
(1.14828 -0.00528985 0)
(0.994865 -0.133754 0)
(0.949767 0.0460327 0)
(1.00004 0.100275 0)
(1.02316 0.0314171 0)
(1.03825 0.00371227 0)
(1.04055 0.00120938 0)
(1.03879 -0.00350015 0)
(1.03806 -0.00463802 0)
(1.03453 -0.0103113 0)
(1.03033 -0.00906861 0)
(1.02757 -0.0139213 0)
(1.02037 -0.0109034 0)
(1.02026 -0.0115942 0)
(1.01205 -0.00948594 0)
(1.01343 -0.00252055 0)
(1.01077 -0.00340776 0)
(1.01088 0.00757268 0)
(1.0218 0.00576454 0)
(1.0183 0.0026221 0)
(1.02828 0.00512086 0)
(1.02468 -0.0144047 0)
(1.01628 -0.0030728 0)
(1.01621 -0.0194635 0)
(0.993595 -0.00224098 0)
(1.00561 0.00798549 0)
(1.00648 0.0133228 0)
(1.01422 0.0194218 0)
(1.03805 0.0178914 0)
(1.02788 -0.0168069 0)
(0.999587 0.00818554 0)
(1.02644 0.00276386 0)
(0.979135 -0.00814267 0)
(1.01199 0.0703705 0)
(1.06161 -0.000463047 0)
(1.02522 -0.0250725 0)
(0.965474 0.00928846 0)
(1.03589 0.0964881 0)
(1.13054 0.00531463 0)
(0.990624 -0.0907153 0)
(0.938744 0.0422637 0)
(1.02774 0.0796551 0)
(1.05096 0.0257899 0)
(1.03228 0.00461345 0)
(1.0338 0.00294895 0)
(1.0329 -0.000280807 0)
(1.03226 -0.00106125 0)
(1.03017 -0.00492314 0)
(1.02726 -0.00418518 0)
(1.02563 -0.00750545 0)
(1.02111 -0.0056677 0)
(1.02089 -0.00651855 0)
(1.01628 -0.00518254 0)
(1.01642 -0.00181323 0)
(1.01546 -0.00223675 0)
(1.0144 0.00313624 0)
(1.02026 0.00235019 0)
(1.01769 6.0129e-05 0)
(1.02234 0.00351831 0)
(1.02118 -0.00949558 0)
(1.01415 0.000304422 0)
(1.01667 -0.0121991 0)
(1.00219 0.00132823 0)
(1.01042 0.00342419 0)
(1.01092 0.00977599 0)
(1.01442 0.0116535 0)
(1.02636 0.013551 0)
(1.02446 -0.00788478 0)
(1.00207 0.00756136 0)
(1.02607 0.00763539 0)
(0.994572 -0.00467598 0)
(1.01204 0.0508198 0)
(1.04615 -0.0044442 0)
(1.02173 -0.00539479 0)
(0.987418 0.00658013 0)
(1.03064 0.0616222 0)
(1.1015 0.0163993 0)
(0.992008 -0.0523844 0)
(0.956857 0.0301552 0)
(1.04657 0.0546973 0)
(1.05979 0.0213353 0)
(1.02762 0.00526372 0)
(1.02864 0.00412122 0)
(1.02821 0.00191596 0)
(1.02781 0.00133473 0)
(1.02656 -0.00129894 0)
(1.02475 -0.000865177 0)
(1.02367 -0.00328375 0)
(1.021 -0.00208134 0)
(1.02068 -0.00322234 0)
(1.01813 -0.00219462 0)
(1.01792 -0.0010902 0)
(1.0173 -0.0010188 0)
(1.01631 0.00110973 0)
(1.01911 0.00111779 0)
(1.0173 -0.000650929 0)
(1.01919 0.00229085 0)
(1.0188 -0.00609747 0)
(1.01412 0.00206105 0)
(1.01688 -0.00773013 0)
(1.00747 0.00397763 0)
(1.01368 0.000990646 0)
(1.01223 0.00825568 0)
(1.01529 0.0070775 0)
(1.02032 0.0103244 0)
(1.02242 -0.000484212 0)
(1.00574 0.00809743 0)
(1.0242 0.0105794 0)
(1.00316 -0.0014096 0)
(1.01448 0.0371615 0)
(1.0362 -0.00642187 0)
(1.01974 0.00834833 0)
(1.00261 0.00555487 0)
(1.0272 0.0367857 0)
(1.07526 0.0252765 0)
(0.998872 -0.0224953 0)
(0.982499 0.0172819 0)
(1.04831 0.0346901 0)
(1.05527 0.0192595 0)
(1.02385 0.00559827 0)
(1.02458 0.00481254 0)
(1.02442 0.00329624 0)
(1.02427 0.00285767 0)
(1.02353 0.0010267 0)
(1.02248 0.00126171 0)
(1.02171 -0.000575385 0)
(1.02024 0.000261014 0)
(1.01993 -0.00104619 0)
(1.01855 -0.000133398 0)
(1.01822 -0.000352269 0)
(1.01779 7.81073e-05 0)
(1.01702 0.000533592 0)
(1.01822 0.000844386 0)
(1.01702 -0.000455745 0)
(1.01763 0.00175591 0)
(1.01747 -0.00351609 0)
(1.01438 0.00290123 0)
(1.01678 -0.00510911 0)
(1.01037 0.00527879 0)
(1.01548 -0.000783986 0)
(1.01282 0.00764737 0)
(1.01612 0.0045232 0)
(1.01686 0.00811675 0)
(1.02022 0.00357715 0)
(1.00882 0.00690034 0)
(1.02287 0.0109 0)
(1.00846 0.00133518 0)
(1.01651 0.027711 0)
(1.02938 -0.00823889 0)
(1.01847 0.0150874 0)
(1.01272 0.00317851 0)
(1.02609 0.0204568 0)
(1.05466 0.0323217 0)
(1.00694 -0.00408744 0)
(1.00296 0.00528273 0)
(1.0436 0.0208188 0)
(1.04813 0.017641 0)
(1.02076 0.00565683 0)
(1.02134 0.00511297 0)
(1.02131 0.00405758 0)
(1.02134 0.00371843 0)
(1.02089 0.00240707 0)
(1.02038 0.00252633 0)
(1.01984 0.00108813 0)
(1.01911 0.00171055 0)
(1.01882 0.000380684 0)
(1.01815 0.0012121 0)
(1.01783 0.000355202 0)
(1.01757 0.000980811 0)
(1.01698 0.000614419 0)
(1.0175 0.00104226 0)
(1.01663 8.58452e-05 0)
(1.01679 0.00161558 0)