/*--------------------------------*- C++ -*----------------------------------*\
| =========                 |                                                 |
| \\      /  F ield         | OpenFOAM: The Open Source CFD Toolbox           |
|  \\    /   O peration     | Version:  2512                                  |
|   \\  /    A nd           | Website:  www.openfoam.com                      |
|    \\/     M anipulation  |                                                 |
\*---------------------------------------------------------------------------*/
FoamFile
{
    version     2.0;
    format      ascii;
    arch        "LSB;label=32;scalar=64";
    class       volScalarField;
    location    "42";
    object      p;
}
// * * * * * * * * * * * * * * * * * * * * * * * * * * * * * * * * * * * * * //

dimensions      [0 2 -2 0 0 0 0];

internalField   nonuniform List<scalar> 
9800
(
0.0514127
0.0512878
0.0510502
0.050712
0.0502844
0.0497779
0.0492017
0.0485643
0.0478737
0.0471377
0.0463635
0.0455578
0.0447272
0.043878
0.0430165
0.0421484
0.041279
0.0404132
0.0395556
0.0387101
0.0378805
0.0370698
0.0362807
0.0355154
0.0347758
0.0340634
0.0333791
0.0327238
0.0320978
0.0315013
0.0309341
0.030396
0.0298863
0.0294046
0.02895
0.0285217
0.0281188
0.0277403
0.0273851
0.0270521
0.0515376
0.0514129
0.0511756
0.0508376
0.0504103
0.0499037
0.0493271
0.0486887
0.0479966
0.0472582
0.0464806
0.0456707
0.0448349
0.0439796
0.0431109
0.0422347
0.0413563
0.0404808
0.0396126
0.0387561
0.0379149
0.0370922
0.0362908
0.0355131
0.0347611
0.0340363
0.0333399
0.0326727
0.0320351
0.0314275
0.0308496
0.0303013
0.0297821
0.0292913
0.0288283
0.0283921
0.0279819
0.0275966
0.0272353
0.0268967
0.0517743
0.05165
0.0514133
0.051076
0.0506492
0.0501428
0.0495656
0.0489258
0.0482309
0.0474883
0.0467048
0.0458872
0.0450419
0.0441751
0.0432931
0.0424017
0.0415064
0.0406123
0.0397242
0.0388465
0.0379831
0.0371374
0.0363125
0.035511
0.034735
0.0339863
0.0332663
0.032576
0.0319161
0.0312868
0.0306882
0.0301201
0.0295822
0.0290737
0.0285942
0.0281426
0.0277181
0.0273197
0.0269463
0.0265968
0.0521105
0.0519869
0.0517512
0.0514153
0.0509897
0.050484
0.0499067
0.0492654
0.0485674
0.0478195
0.0470284
0.0462006
0.0453423
0.0444598
0.0435592
0.0426465
0.0417274
0.040807
0.0398905
0.0389824
0.038087
0.0372081
0.036349
0.0355127
0.0347017
0.0339181
0.0331635
0.0324393
0.0317462
0.0310849
0.0304556
0.0298582
0.0292925
0.0287578
0.0282537
0.0277792
0.0273335
0.0269154
0.0265241
0.0261582
0.0525344
0.0524119
0.0521781
0.0518444
0.0514212
0.0509175
0.0503411
0.0496991
0.0489982
0.0482449
0.0474454
0.0466058
0.0457322
0.0448308
0.0439076
0.0429686
0.0420197
0.0410662
0.0401136
0.0391668
0.0382303
0.0373084
0.036405
0.0355235
0.0346666
0.0338371
0.0330369
0.0322678
0.0315309
0.0308271
0.0301568
0.0295203
0.0289173
0.0283475
0.0278103
0.027305
0.0268307
0.0263862
0.0259706
0.0255827
0.0530351
0.0529142
0.0526833
0.0523533
0.0519341
0.0514341
0.0508603
0.0502192
0.0495167
0.0487588
0.0479511
0.0470994
0.0462093
0.0452869
0.0443381
0.043369
0.0423854
0.0413932
0.0403977
0.0394045
0.0384185
0.0374445
0.036487
0.0355497
0.0346363
0.0337498
0.0328928
0.0320675
0.0312755
0.0305181
0.0297961
0.0291099
0.0284596
0.027845
0.0272658
0.0267211
0.0262102
0.025732
0.0252854
0.0248691
0.0536022
0.0534836
0.0532568
0.0529322
0.0525191
0.0520252
0.0514565
0.0508187
0.0501168
0.0493561
0.0485416
0.0476785
0.0467721
0.0458279
0.0448519
0.04385
0.0428283
0.0417925
0.0407484
0.0397019
0.0386586
0.0376239
0.0366026
0.0355995
0.0346186
0.0336637
0.0327382
0.0318449
0.0309859
0.030163
0.0293776
0.0286303
0.0279217
0.0272518
0.0266204
0.0260269
0.0254706
0.0249503
0.0244651
0.0240135
0.0542259
0.0541104
0.0538891
0.053572
0.0531676
0.0526826
0.0521223
0.051491
0.0507928
0.0500322
0.0492134
0.048341
0.0474197
0.0464546
0.0454511
0.0444152
0.0433529
0.04227
0.0411726
0.040067
0.0389592
0.0378555
0.0367613
0.035682
0.0346226
0.0335877
0.0325815
0.0316076
0.0306688
0.0297676
0.0289058
0.0280849
0.0273057
0.0265687
0.0258738
0.0252208
0.0246088
0.0240371
0.0235045
0.0230097
0.0548968
0.0547852
0.0545712
0.054264
0.0538713
0.0533986
0.0528503
0.0522296
0.0515393
0.0507827
0.0499634
0.0490852
0.0481518
0.0471677
0.0461381
0.0450685
0.0439647
0.0428326
0.0416783
0.0405086
0.0393303
0.03815
0.0369739
0.0358084
0.0346593
0.0335323
0.0324326
0.0313645
0.0303321
0.0293383
0.0283861
0.0274774
0.0266138
0.0257962
0.0250249
0.0242999
0.0236208
0.0229867
0.0223966
0.0218493
0.055606
0.0554994
0.0552945
0.0549998
0.054622
0.0541656
0.0536337
0.0530282
0.0523507
0.0516033
0.0507885
0.0499091
0.0489678
0.0479684
0.0469156
0.0458143
0.0446698
0.0434876
0.0422744
0.0410371
0.0397831
0.0385194
0.0372531
0.0359914
0.0347413
0.0335098
0.032303
0.0311265
0.0299852
0.0288834
0.0278248
0.0268125
0.0258488
0.0249352
0.0240726
0.0232614
0.0225014
0.0217922
0.0211328
0.020522
0.0563452
0.0562446
0.0560508
0.0557714
0.0554119
0.054976
0.0544654
0.0538804
0.0532213
0.0524892
0.0516853
0.0508106
0.049867
0.0488577
0.0477864
0.0466572
0.0454743
0.0442432
0.0429706
0.0416637
0.0403301
0.0389773
0.0376131
0.0362457
0.0348836
0.0335348
0.0322067
0.0309063
0.0296396
0.0284125
0.02723
0.0260962
0.0250144
0.0239871
0.0230159
0.0221018
0.0212451
0.0204458
0.019703
0.0190156
0.0571065
0.0570129
0.0568322
0.056571
0.0562336
0.0558227
0.0553384
0.0547794
0.0541452
0.0534355
0.0526497
0.0517869
0.0508482
0.049836
0.0487529
0.0476012
0.0463843
0.0451073
0.043777
0.0424004
0.040985
0.0395385
0.0380697
0.036588
0.0351031
0.0336242
0.0321601
0.0307192
0.0293094
0.0279381
0.0266119
0.0253364
0.0241161
0.0229547
0.0218548
0.0208182
0.0198461
0.0189388
0.0180959
0.0173165
0.0578826
0.0577971
0.0576315
0.0573912
0.0570797
0.0566985
0.0562456
0.0557185
0.0551162
0.0544369
0.0536772
0.0528346
0.0519095
0.0509033
0.0498166
0.0486499
0.0474055
0.0460881
0.044704
0.0432596
0.041762
0.0402192
0.0386407
0.0370371
0.0354192
0.0337975
0.0321823
0.0305837
0.0290116
0.0274754
0.0259836
0.0245435
0.0231613
0.0218421
0.0205901
0.0194083
0.0182986
0.0172621
0.0162991
0.0154091
0.0586665
0.0585902
0.0584416
0.058225
0.0579434
0.0575964
0.0571798
0.0566907
0.0561279
0.0554872
0.0547623
0.0539495
0.0530484
0.0520587
0.0509784
0.049806
0.0485429
0.0471931
0.0457617
0.044254
0.0426761
0.0410365
0.0393452
0.0376137
0.0358538
0.0340771
0.0322956
0.0305214
0.0287667
0.0270431
0.0253614
0.0237309
0.0221602
0.0206561
0.0192247
0.0178707
0.0165972
0.0154065
0.0142995
0.0132763
0.0594521
0.0593859
0.059256
0.0590659
0.0588182
0.0585095
0.0581338
0.0576893
0.0571739
0.0565799
0.0558987
0.0551263
0.0542611
0.0533
0.0522377
0.051071
0.0498006
0.0484291
0.0469597
0.0453957
0.0437426
0.0420084
0.0402038
0.0383406
0.0364311
0.0344883
0.0325257
0.0305578
0.0285992
0.026664
0.0247657
0.0229162
0.0211265
0.0194063
0.017764
0.0162062
0.0147379
0.0133629
0.0120831
0.0108997
0.0602335
0.0601784
0.0600687
0.0599079
0.0596979
0.0594308
0.0591005
0.0587074
0.0582471
0.0577077
0.0570796
0.0563591
0.0555429
0.0546235
0.0535925
0.0524452
0.0511813
0.0498016
0.0483063
0.0466965
0.0449764
0.0431535
0.0412382
0.0392421
0.0371779
0.0350594
0.0329021
0.0307226
0.0285382
0.0263658
0.0242217
0.0221212
0.0200785
0.0181064
0.0162164
0.0144178
0.0127181
0.0111229
0.00963591
0.0082596
0.0610057
0.0609622
0.060874
0.060746
0.0605767
0.0603534
0.0600732
0.0597385
0.0593401
0.0588629
0.0582978
0.0576414
0.0568873
0.0560237
0.0550388
0.0539269
0.0526862
0.0513145
0.0498084
0.0481666
0.0463917
0.04449
0.0424705
0.0403439
0.0381228
0.0358218
0.0334579
0.0310501
0.0286179
0.0261815
0.0237604
0.0213737
0.0190396
0.016775
0.0145948
0.0125122
0.0105377
0.00867957
0.00694399
0.00533526
0.061764
0.0617326
0.0616675
0.0615757
0.0614487
0.0612707
0.0610457
0.0607756
0.0604452
0.0600376
0.0595458
0.0589657
0.058287
0.0574933
0.0565709
0.0555128
0.0543145
0.0529695
0.051471
0.049815
0.0480019
0.0460355
0.0439228
0.0416725
0.0392965
0.0368097
0.0342304
0.0315791
0.0288781
0.0261502
0.0234191
0.0207081
0.0180401
0.0154366
0.0129176
0.0105004
0.0081998
0.00602797
0.00399412
0.00210519
0.062504
0.0624851
0.0624453
0.0623929
0.062308
0.0621768
0.0620124
0.0618118
0.0615543
0.061224
0.0608158
0.0603239
0.0597331
0.0590238
0.0581814
0.0571971
0.0560623
0.0547656
0.0532966
0.0516483
0.049818
0.0478062
0.0456163
0.0432546
0.0407311
0.0380601
0.0352603
0.0323535
0.0293641
0.026318
0.0232427
0.0201666
0.0171177
0.0141236
0.0112096
0.00839911
0.00571227
0.00316618
0.000774396
-0.00145247
0.0632218
0.0632162
0.063205
0.063194
0.0631488
0.0630668
0.0629678
0.06284
0.0626599
0.0624145
0.0620998
0.0617068
0.061216
0.0606058
0.0598613
0.0589716
0.057923
0.056699
0.0552849
0.0536704
0.0518487
0.0498159
0.047571
0.0451163
0.042459
0.0396116
0.0365919
0.033422
0.0301278
0.0267381
0.0232845
0.0198002
0.0163197
0.0128769
0.00950445
0.00623264
0.00308876
9.64536e-05
-0.0027248
-0.00535944
0.0639134
0.0639235
0.0639451
0.063975
0.063966
0.0639366
0.0639063
0.063853
0.0637553
0.0636019
0.0633893
0.0631045
0.062725
0.0622287
0.0616001
0.0608258
0.0598869
0.058762
0.0574319
0.0558816
0.0540993
0.0520756
0.0498041
0.0472821
0.0445124
0.0415039
0.0382721
0.0348378
0.0312274
0.027472
0.0236068
0.0196705
0.0157039
0.0117486
0.00784559
0.00403415
0.000350423
-0.00317341
-0.00650989
-0.00963677
0.0645751
0.0646058
0.0646646
0.0647316
0.0647552
0.0647829
0.0648218
0.0648452
0.0648345
0.0647788
0.0646755
0.0645068
0.0642494
0.0638811
0.063386
0.0627476
0.0619421
0.060944
0.0597295
0.0582776
0.0565704
0.0545922
0.0523297
0.0497741
0.0469219
0.0437769
0.0403496
0.0366579
0.0327272
0.0285892
0.0242824
0.0198503
0.0153405
0.010803
0.00628893
0.00184808
-0.00247215
-0.00662853
-0.0105831
-0.0143044
0.0652032
0.0652636
0.0653623
0.0654592
0.0655134
0.0656023
0.065709
0.0658122
0.0658918
0.0659383
0.0659496
0.0659032
0.065778
0.0655508
0.0652058
0.0647231
0.0640743
0.0632312
0.0621652
0.0608492
0.0592577
0.0573672
0.055157
0.0526101
0.0497154
0.0464687
0.0428736
0.0389425
0.034697
0.0301678
0.0253947
0.0204254
0.0153142
0.0101201
0.00490525
-0.000267413
-0.00533671
-0.0102452
-0.0149413
-0.0193806
0.0657951
0.0658981
0.066036
0.066154
0.0662386
0.0663918
0.0665632
0.0667509
0.0669212
0.0670735
0.0672029
0.0672838
0.0672999
0.067225
0.0670454
0.0667365
0.0662674
0.0656074
0.0647229
0.0635818
0.0621503
0.0603961
0.0582889
0.0558026
0.052916
0.0496148
0.0458927
0.0417534
0.0372116
0.0322937
0.0270386
0.0214961
0.0157262
0.00979704
0.00378327
-0.00223728
-0.00818637
-0.0139886
-0.0195742
-0.0248816
0.0663501
0.0665106
0.0666816
0.0668131
0.0669298
0.0671485
0.0673816
0.0676591
0.0679163
0.0681791
0.0684264
0.0686397
0.0688042
0.0688908
0.0688901
0.068771
0.0685033
0.0680535
0.0673833
0.0664565
0.0652313
0.0636668
0.0617209
0.0593564
0.0565401
0.053245
0.0494519
0.045152
0.0403489
0.0350604
0.0293203
0.0231778
0.0166962
0.00995214
0.00303315
-0.00396584
-0.0109461
-0.0178095
-0.0244626
-0.030821
0.06687
0.0671015
0.0672931
0.0674352
0.0675859
0.067871
0.0681627
0.0685342
0.0688711
0.0692509
0.0696111
0.0699638
0.0702795
0.0705361
0.0707249
0.0708093
0.0707629
0.070548
0.0701236
0.0694505
0.0684779
0.0671593
0.0654387
0.0632672
0.0605955
0.057382
0.0535908
0.0491969
0.0441875
0.0385665
0.032357
0.0256019
0.0183646
0.0107277
0.00279086
-0.00533222
-0.0135186
-0.0216415
-0.0295773
-0.0372103
0.0673594
0.0676682
0.0678644
0.0680206
0.0682061
0.0685588
0.0689054
0.0693733
0.0697807
0.0702853
0.0707482
0.0712509
0.0717135
0.0721506
0.0725336
0.0728346
0.0730254
0.0730679
0.0729185
0.072537
0.0718625
0.0708472
0.0694181
0.0675196
0.0650781
0.062038
0.0583402
0.053941
0.0488043
0.0429141
0.0362751
0.0289163
0.0208945
0.0122938
0.00322344
-0.00618418
-0.0157782
-0.0253969
-0.0348766
-0.04406
0.0678251
0.0682051
0.068392
0.0685704
0.0687909
0.0692117
0.0696088
0.070173
0.0706418
0.0712785
0.0718308
0.0724968
0.0730937
0.0737261
0.0742983
0.0748319
0.0752683
0.0755904
0.0757395
0.075686
0.0753516
0.0746981
0.0736258
0.072086
0.069968
0.0672122
0.0637184
0.0594292
0.0542711
0.0482063
0.0412081
0.0332833
0.0244723
0.0148515
0.0045344
-0.00633063
-0.0175632
-0.0289592
-0.0403034
-0.0513811
0.0682731
0.068704
0.0688762
0.0690851
0.0693419
0.0698291
0.070273
0.070929
0.0714545
0.0722254
0.0728555
0.0736957
0.07441
0.0752551
0.0760012
0.0767888
0.077466
0.0780939
0.0785538
0.078866
0.0789058
0.0786737
0.0780184
0.0769287
0.0752271
0.0728858
0.0697221
0.0656939
0.0606497
0.0545476
0.0472964
0.0388826
0.0293092
0.0186349
0.00696799
-0.0055354
-0.0186668
-0.032175
-0.0457793
-0.059186
0.0687085
0.0691573
0.06932
0.0695643
0.0698625
0.070408
0.0708999
0.0716365
0.0722216
0.0731185
0.0738243
0.0748384
0.0756589
0.0767268
0.0776302
0.0786919
0.0795953
0.0805584
0.0813261
0.0820458
0.0824779
0.0827308
0.0825408
0.0819998
0.0807996
0.0790191
0.0763137
0.0727447
0.0679748
0.06204
0.0546823
0.0459216
0.0356502
0.0239239
0.0108179
-0.00351191
-0.0188327
-0.0348504
-0.051204
-0.0674943
0.0691335
0.0695611
0.0697275
0.0700073
0.0703561
0.0709447
0.071492
0.0722904
0.0729476
0.0739491
0.074742
0.0759115
0.0768436
0.0781246
0.0791825
0.0805213
0.081643
0.0829588
0.0840281
0.0851911
0.0860219
0.0868222
0.0871289
0.0872399
0.08661
0.0855529
0.083424
0.0805543
0.0762238
0.0707596
0.0634756
0.0546395
0.0437783
0.0310866
0.0164618
0.000106888
-0.0177388
-0.0367498
-0.0564623
-0.0763539
0.0695483
0.0699165
0.070103
0.070414
0.0708245
0.0714373
0.0720515
0.0728874
0.0736361
0.0747106
0.0756139
0.0769027
0.0779695
0.0794295
0.0806613
0.0822507
0.0836059
0.0852599
0.0866455
0.0882554
0.0895063
0.0908864
0.091729
0.0925717
0.0925819
0.0924037
0.0909613
0.0890517
0.0853166
0.0807191
0.0736856
0.0652555
0.0539415
0.0406254
0.0244041
0.00588211
-0.0149236
-0.0375554
-0.0614105
-0.0858748
0.0699502
0.0702269
0.0704496
0.0707861
0.071268
0.0718863
0.0725793
0.0734289
0.0742882
0.0754019
0.076442
0.0778066
0.0790399
0.0806294
0.0820698
0.083858
0.0854842
0.087426
0.0891712
0.0911839
0.0929122
0.094843
0.0963055
0.0978842
0.0986605
0.0994325
0.0988567
0.0981006
0.0951807
0.0918252
0.0852464
0.077864
0.066182
0.0530705
0.0351051
0.0147633
-0.00968499
-0.0366965
-0.0658061
-0.0962645
0.0703344
0.070499
0.0707699
0.0711264
0.0716845
0.0722951
0.0730731
0.0739198
0.074901
0.076028
0.0772232
0.0786272
0.0800523
0.0817247
0.083405
0.0853374
0.087272
0.0894397
0.0915937
0.0939398
0.0962184
0.0986241
0.100824
0.103062
0.104799
0.106461
0.107061
0.107461
0.105813
0.103839
0.098221
0.09229
0.0805193
0.0685864
0.0486097
0.0279599
-0.0013758
-0.0328914
-0.0693313
-0.107848
0.0706954
0.0707405
0.0710662
0.0714383
0.0720717
0.0726673
0.07353
0.074366
0.0754704
0.0765966
0.0779506
0.079373
0.0809975
0.0827245
0.0846544
0.086696
0.0889515
0.0913033
0.0938855
0.0965146
0.0993815
0.102201
0.10522
0.108041
0.110912
0.113364
0.11549
0.11691
0.117179
0.116445
0.112852
0.108197
0.0975403
0.086818
0.0651358
0.045531
0.00992951
-0.0233608
-0.072075
-0.120655
0.0710288
0.0709585
0.0713408
0.0717244
0.0724278
0.073007
0.0739481
0.0747739
0.0759917
0.0771159
0.0786168
0.0800541
0.0818651
0.0836389
0.0858055
0.0879423
0.0905068
0.0930214
0.0960226
0.0989059
0.102361
0.105556
0.10942
0.112774
0.116874
0.120053
0.123957
0.126321
0.129079
0.129464
0.129083
0.125384
0.118179
0.107549
0.0867979
0.0665525
0.0248428
-0.007766
-0.0749982
-0.131675
0.0713331
0.0711588
0.0716031
0.0719873
0.0727522
0.0733176
0.0743277
0.0751486
0.0764637
0.0775924
0.0792184
0.0806788
0.0826472
0.0844776
0.0868442
0.0890868
0.091914
0.0946042
0.0979655
0.101122
0.10509
0.108695
0.113312
0.117264
0.122504
0.126514
0.132187
0.135611
0.141143
0.142652
0.146533
0.143663
0.142399
0.131383
0.116675
0.0911738
0.0489051
0.00997835
-0.0771741
-0.134253
0.0716083
0.0713446
0.0718387
0.0722283
0.0730457
0.0736023
0.0746705
0.075493
0.0768883
0.0780298
0.0797572
0.08125
0.0833464
0.0852435
0.0877715
0.0901316
0.0931706
0.0960521
0.0997035
0.103161
0.10754
0.11161
0.11683
0.121493
0.12764
0.132727
0.139803
0.144792
0.152588
0.156163
0.163986
0.163201
0.169077
0.15779
0.155356
0.12334
0.0919861
0.028196
-0.0683137
-0.135404
0.0718555
0.0715181
0.0720556
0.0724491
0.0733113
0.0738632
0.0749775
0.0758095
0.0772664
0.07843
0.0802357
0.0817699
0.0839656
0.0859365
0.0885919
0.0910738
0.0942821
0.0973567
0.101242
0.105001
0.109715
0.114257
0.119969
0.125378
0.132261
0.138541
0.146727
0.15365
0.163131
0.169829
0.180289
0.184207
0.194768
0.189039
0.197649
0.164493
0.15919
0.0564877
-0.0324138
-0.217498
0.0720764
0.0716802
0.072254
0.0726508
0.0735459
0.0741013
0.0752508
0.0760988
0.0776003
0.0787938
0.0806555
0.0822396
0.0845078
0.0865572
0.0893085
0.0919125
0.0952525
0.0985131
0.102587
0.10663
0.111621
0.116602
0.122732
0.128834
0.136361
0.143765
0.152953
0.16175
0.172777
0.182733
0.195466
0.205361
0.218957
0.224496
0.236995
0.222599
0.232116
0.136077
0.0978808
-0.397802
0.0267483
0.0264664
0.0261932
0.0259289
0.0256738
0.025428
0.0251916
0.0249648
0.0247477
0.0245404
0.0265879
0.0263016
0.0260243
0.0257563
0.0254977
0.0252488
0.0250097
0.0247806
0.0245615
0.0243527
0.0262784
0.0259834
0.025698
0.0254226
0.0251573
0.0249024
0.024658
0.0244243
0.0242014
0.0239895
0.0258252
0.0255173
0.02522
0.0249335
0.0246583
0.0243944
0.0241421
0.0239016
0.0236731
0.0234567
0.0252303
0.0249049
0.0245914
0.0242901
0.0240014
0.0237255
0.0234627
0.0232131
0.022977
0.0227546
0.0244917
0.024144
0.0238098
0.0234895
0.0231836
0.0228923
0.022616
0.0223549
0.0221093
0.0218793
0.023605
0.0232294
0.0228693
0.0225254
0.022198
0.0218876
0.0215946
0.0213193
0.0210619
0.0208228
0.0225629
0.0221531
0.0217613
0.0213883
0.0210347
0.020701
0.0203876
0.0200949
0.0198234
0.0195734
0.021356
0.0209045
0.0204741
0.0200658
0.0196803
0.0193182
0.0189802
0.0186668
0.0183784
0.0181154
0.0199724
0.0194705
0.0189934
0.0185424
0.0181183
0.0177221
0.0173545
0.0170161
0.0167076
0.0164295
0.0183982
0.0178355
0.017302
0.0167993
0.0163287
0.0158914
0.0154882
0.0151201
0.0147878
0.014492
0.0166173
0.0159812
0.0153796
0.0148146
0.014288
0.0138011
0.0133552
0.0129515
0.012591
0.0122744
0.0146113
0.0138866
0.0132028
0.0125626
0.0119683
0.0114217
0.0109244
0.0104781
0.010084
0.00974324
0.0123598
0.0115281
0.0107448
0.0100137
0.00933742
0.00871864
0.00815948
0.00766201
0.00722788
0.00685861
0.00983984
0.00887885
0.00797519
0.0071337
0.00635817
0.00565191
0.00501782
0.00445866
0.00397662
0.0035737
0.00702658
0.00590897
0.00485924
0.00388376
0.00298752
0.00217494
0.00144989
0.000816042
0.00027635
-0.000166568
0.00389284
0.00258527
0.00135799
0.000219342
-0.000824012
-0.00176622
-0.00260207
-0.00332671
-0.00393613
-0.0044269
0.000409293
-0.00112896
-0.00257245
-0.00391018
-0.00513329
-0.00623399
-0.0072053
-0.00804074
-0.00873493
-0.00928334
-0.00345545
-0.00527421
-0.00698139
-0.00856247
-0.0100057
-0.0113006
-0.012438
-0.0134092
-0.0142069
-0.0148252
-0.0077348
-0.00989505
-0.0119243
-0.0138033
-0.0155165
-0.01705
-0.0183914
-0.0195293
-0.0204539
-0.0211573
-0.012464
-0.0150404
-0.0174634
-0.0197078
-0.0217526
-0.0235795
-0.025172
-0.0265148
-0.0275953
-0.0284029
-0.0176803
-0.0207643
-0.0236693
-0.0263619
-0.0288144
-0.0310025
-0.0329041
-0.0344994
-0.0357714
-0.0367067
-0.0234233
-0.0271268
-0.0306221
-0.0338653
-0.0368193
-0.0394519
-0.041734
-0.0436397
-0.0451468
-0.0462382
-0.0297354
-0.034196
-0.0384152
-0.0423346
-0.0459051
-0.0490841
-0.0518335
-0.0541198
-0.0559147
-0.0571962
-0.0366634
-0.0420508
-0.0471585
-0.0519088
-0.0562367
-0.0600859
-0.0634072
-0.0661576
-0.0683018
-0.0698132
-0.0442601
-0.0507844
-0.0569842
-0.0627561
-0.0680131
-0.0726817
-0.0766985
-0.0800102
-0.0825742
-0.0843595
-0.052589
-0.0605119
-0.0680571
-0.0750848
-0.0814792
-0.0871442
-0.0919996
-0.0959813
-0.0990409
-0.101146
-0.0617315
-0.0713827
-0.0805896
-0.0891618
-0.0969438
-0.10381
-0.109662
-0.114428
-0.118058
-0.120524
-0.0717961
-0.0835979
-0.0948664
-0.105339
-0.114805
-0.123103
-0.130115
-0.135767
-0.140025
-0.142879
-0.0829348
-0.0974374
-0.11128
-0.124093
-0.135588
-0.145557
-0.153873
-0.160482
-0.165386
-0.168625
-0.0953814
-0.113313
-0.130395
-0.146093
-0.16
-0.171854
-0.181544
-0.189088
-0.194584
-0.198158
-0.109512
-0.131858
-0.153074
-0.172334
-0.189033
-0.20287
-0.213831
-0.22211
-0.228001
-0.231776
-0.125882
-0.154045
-0.180689
-0.204351
-0.224115
-0.239759
-0.251568
-0.260104
-0.265967
-0.269676
-0.145276
-0.181438
-0.215384
-0.244322
-0.267087
-0.283861
-0.295627
-0.303577
-0.308714
-0.3119
-0.169313
-0.217357
-0.260501
-0.294826
-0.319711
-0.336239
-0.346389
-0.352324
-0.355792
-0.357918
-0.204032
-0.270874
-0.322701
-0.359876
-0.384342
-0.398123
-0.403836
-0.405133
-0.405222
-0.405824
-0.264391
-0.356834
-0.415027
-0.449671
-0.46739
-0.472083
-0.46843
-0.460941
-0.453041
-0.44756
-0.351706
-0.46917
-0.542044
-0.571706
-0.569454
-0.555069
-0.537621
-0.519568
-0.50132
-0.486517
-0.46438
-0.549192
-0.679873
-0.717357
-0.67072
-0.614562
-0.569036
-0.534142
-0.508427
-0.489651
-1.03202
-0.66402
-0.734915
-0.739108
-0.706292
-0.650434
-0.595166
-0.549123
-0.516939
-0.495725
0.0243319
0.0241222
0.0239207
0.0237283
0.0235459
0.0233745
0.0232147
0.0230678
0.0229344
0.0228154
0.0227116
0.0226239
0.0225526
0.0224987
0.0224623
0.0224441
0.0224441
0.0224625
0.0224991
0.0225538
0.0226258
0.0227149
0.0228195
0.0229391
0.0230717
0.023216
0.0233693
0.0235302
0.0236952
0.0238622
0.0240269
0.0241865
0.0243359
0.0244719
0.0245883
0.0246814
0.024744
0.0247719
0.0247566
0.0246932
0.0245722
0.0243882
0.0241305
0.0237933
0.0233654
0.0228406
0.0222078
0.0214604
0.0205882
0.0195851
0.0184415
0.0171532
0.0157111
0.0141147
0.0123568
0.0104421
0.00836743
0.00614528
0.0037783
0.00128494
0.0241429
0.0239324
0.0237305
0.0235383
0.0233567
0.0231865
0.0230288
0.0228845
0.0227543
0.0226394
0.0225403
0.0224579
0.0223928
0.0223457
0.0223169
0.0223069
0.0223157
0.0223436
0.0223902
0.0224555
0.0225386
0.022639
0.0227555
0.0228871
0.0230319
0.0231885
0.0233543
0.0235277
0.0237053
0.0238847
0.0240616
0.0242332
0.0243944
0.024542
0.0246695
0.0247735
0.0248465
0.0248844
0.0248786
0.0248242
0.0247115
0.0245351
0.024284
0.0239527
0.0235296
0.0230085
0.022378
0.0216318
0.0207595
0.0197547
0.018608
0.0173147
0.0158656
0.0142599
0.0124895
0.0105592
0.00846479
0.00621934
0.00382483
0.00130125
0.0237773
0.0235651
0.0233626
0.0231708
0.0229907
0.0228232
0.0226694
0.0225302
0.0224066
0.0222995
0.0222096
0.0221379
0.0220848
0.0220511
0.0220371
0.0220431
0.0220692
0.0221156
0.0221817
0.0222675
0.022372
0.0224945
0.0226338
0.0227887
0.0229569
0.0231372
0.023327
0.0235244
0.0237258
0.0239288
0.0241289
0.0243234
0.024507
0.0246765
0.0248255
0.0249501
0.0250427
0.0250996
0.0251119
0.0250746
0.0249776
0.0248156
0.0245773
0.0242571
0.023843
0.0233288
0.022703
0.0219589
0.0210864
0.0200786
0.0189262
0.0176237
0.0161616
0.0145384
0.0127448
0.010785
0.0086532
0.00636312
0.00391563
0.00133307
0.0232409
0.0230264
0.022823
0.0226319
0.0224541
0.0222908
0.0221429
0.0220117
0.0218979
0.0218028
0.0217268
0.0216712
0.0216362
0.0216226
0.0216305
0.0216606
0.0217124
0.0217862
0.0218812
0.0219972
0.0221331
0.0222882
0.0224607
0.0226493
0.0228516
0.0230664
0.0232909
0.0235228
0.0237584
0.0239951
0.0242284
0.0244556
0.0246711
0.0248719
0.0250512
0.0252053
0.0253258
0.0254098
0.0254478
0.0254349
0.0253605
0.0252191
0.0249992
0.0246947
0.0242934
0.0237892
0.0231698
0.0224288
0.0215561
0.0205441
0.019384
0.0180693
0.0165895
0.0149421
0.0131161
0.0111146
0.00892942
0.00657471
0.00404974
0.00138023
0.0225341
0.0223166
0.0221123
0.0219223
0.021748
0.0215905
0.021451
0.0213307
0.0212306
0.0211518
0.021095
0.0210612
0.0210507
0.0210644
0.0211022
0.0211645
0.0212508
0.0213612
0.0214948
0.0216509
0.0218284
0.022026
0.0222422
0.0224746
0.0227215
0.0229811
0.0232502
0.0235263
0.0238055
0.0240852
0.0243607
0.0246293
0.0248851
0.0251253
0.0253425
0.0255332
0.0256899
0.0258086
0.0258792
0.0258974
0.0258518
0.0257367
0.0255403
0.0252558
0.0248709
0.024379
0.0237677
0.0230305
0.0221577
0.0211407
0.0199717
0.0186427
0.0171418
0.0154656
0.0135999
0.0115462
0.00929294
0.00685437
0.00422789
0.0014433
0.0216531
0.021432
0.0212267
0.0210386
0.020869
0.0207195
0.0205911
0.0204853
0.0204032
0.0203458
0.020314
0.0203086
0.02033
0.0203789
0.020455
0.0205586
0.020689
0.020846
0.0210282
0.021235
0.0214649
0.021716
0.021985
0.0222713
0.0225728
0.0228868
0.0232098
0.023539
0.0238706
0.0242015
0.0245272
0.0248448
0.0251485
0.0254352
0.0256974
0.0259327
0.0261315
0.026291
0.0264002
0.0264556
0.0264444
0.026361
0.026193
0.0259324
0.0255669
0.0250893
0.0244875
0.0237544
0.0228815
0.0218589
0.0206808
0.0193366
0.0178128
0.0161055
0.014195
0.0120807
0.00974595
0.00720476
0.00445265
0.00152357
0.0205897
0.0203644
0.0201584
0.0199731
0.0198101
0.019671
0.0195572
0.0194703
0.0194112
0.0193813
0.0193813
0.019412
0.0194737
0.0195668
0.0196909
0.0198459
0.0200309
0.0202451
0.0204869
0.0207553
0.021048
0.0213619
0.0216951
0.0220462
0.0224122
0.0227897
0.0231753
0.0235658
0.0239574
0.0243469
0.0247298
0.0251031
0.0254609
0.0258002
0.0261133
0.0263987
0.0266457
0.0268519
0.027005
0.0271037
0.0271323
0.0270858
0.0269506
0.0267175
0.0263745
0.0259124
0.0253207
0.0245916
0.0237187
0.0226898
0.0215033
0.0201447
0.0185979
0.0168599
0.0149017
0.0127211
0.0102929
0.00763114
0.00472878
0.001623
0.0193321
0.0191023
0.0188959
0.0187147
0.0185605
0.0184352
0.0183402
0.0182773
0.0182476
0.0182525
0.0182924
0.0183683
0.01848
0.0186279
0.018811
0.019029
0.0192803
0.0195636
0.0198773
0.0202192
0.0205854
0.0209734
0.0213819
0.0218079
0.0222476
0.0226969
0.023153
0.0236121
0.0240705
0.0245249
0.0249706
0.0254051
0.025822
0.0262188
0.0265877
0.0269277
0.0272262
0.0274858
0.0276884
0.0278362
0.0279093
0.0279053
0.0278072
0.0276051
0.0272875
0.0268418
0.0262601
0.0255335
0.0246601
0.0236241
0.0224315
0.0210605
0.0194935
0.0177287
0.0157225
0.0134725
0.0109403
0.0081415
0.00506308
0.00174431
0.0178647
0.0176301
0.017424
0.0172487
0.0171062
0.0169988
0.0169279
0.0168956
0.016903
0.0169513
0.0170411
0.017173
0.0173465
0.0175615
0.0178166
0.018111
0.0184421
0.0188082
0.0192071
0.0196343
0.0200861
0.0205604
0.0210554
0.0215657
0.0220875
0.0226166
0.0231502
0.0236841
0.0242148
0.0247388
0.0252519
0.0257516
0.0262315
0.0266897
0.0271184
0.0275174
0.0278736
0.0281891
0.0284453
0.0286476
0.0287699
0.0288145
0.0287575
0.0285905
0.0283004
0.0278708
0.0272985
0.0265721
0.0256968
0.0246518
0.0234573
0.022077
0.0204955
0.0187121
0.0166617
0.0143426
0.0116969
0.00874693
0.00546388
0.00189089
0.0161681
0.0159284
0.0157237
0.0155567
0.0154297
0.0153453
0.0153053
0.0153117
0.0153655
0.0154683
0.0156199
0.0158209
0.0160703
0.0163672
0.0167096
0.0170958
0.0175222
0.0179869
0.018485
0.0190107
0.0195617
0.0201351
0.0207269
0.0213302
0.0219422
0.0225578
0.0231749
0.0237881
0.0243951
0.0249922
0.0255755
0.0261432
0.0266883
0.0272107
0.0277019
0.0281626
0.0285793
0.0289547
0.0292696
0.0295317
0.029708
0.0298084
0.0297967
0.0296696
0.0294088
0.0289939
0.0284281
0.027698
0.0268177
0.025762
0.0245713
0.023186
0.0215999
0.0198105
0.0177251
0.0153408
0.012576
0.0094626
0.00594024
0.00206696
0.0142184
0.0139735
0.0137717
0.0136162
0.0135096
0.0134549
0.013454
0.0135092
0.0136214
0.0137919
0.0140202
0.0143065
0.0146485
0.0150452
0.0154932
0.0159893
0.0165294
0.0171097
0.0177223
0.0183619
0.0190267
0.0197111
0.0204095
0.0211139
0.0218232
0.0225306
0.0232353
0.0239307
0.0246163
0.0252879
0.0259427
0.0265793
0.0271906
0.0277788
0.0283338
0.0288575
0.0293371
0.029776
0.0301542
0.030481
0.0307172
0.0308817
0.0309198
0.0308401
0.0306096
0.0302071
0.0296425
0.0289006
0.0280088
0.0269404
0.0257613
0.0243776
0.0228018
0.0210244
0.0189185
0.0164773
0.0135968
0.0103088
0.00650256
0.00227863
0.0119871
0.0117372
0.0115403
0.0114004
0.0113204
0.0113039
0.0113527
0.0114694
0.0116547
0.0119095
0.0122327
0.0126237
0.0130791
0.0135971
0.0141722
0.0147999
0.0154751
0.0161899
0.0169342
0.0177047
0.018498
0.0193046
0.0201184
0.0209313
0.0217433
0.0225459
0.0233399
0.0241181
0.0248823
0.0256279
0.0263536
0.0270586
0.0277355
0.0283896
0.0290078
0.0295957
0.0301397
0.030644
0.0310898
0.0314857
0.0317897
0.0320282
0.0321223
0.0321006
0.0319003
0.0315069
0.0309355
0.0301689
0.0292536
0.0281693
0.0270114
0.0256382
0.0240936
0.0223536
0.020247
0.0177636
0.0147839
0.0113094
0.0071643
0.00253638
0.00944026
0.00918577
0.00899668
0.00887764
0.00883228
0.0088645
0.00897641
0.0091706
0.00944724
0.00980688
0.0102475
0.0107672
0.0113612
0.0120261
0.0127536
0.0135389
0.0143734
0.0152478
0.0161408
0.0170596
0.0179952
0.0189345
0.019872
0.0207991
0.0217165
0.0226146
0.0234971
0.0243557
0.0251961
0.0260126
0.0268066
0.0275776
0.0283184
0.0290373
0.0297167
0.0303688
0.0309765
0.0315468
0.0320646
0.0325328
0.032916
0.0332394
0.0333989
0.0334509
0.0332793
0.032891
0.0322994
0.0314888
0.0305326
0.0294276
0.0283011
0.0269512
0.0254648
0.0237927
0.0217102
0.0192126
0.0161676
0.0124881
0.0079428
0.00285762
0.00653792
0.00627945
0.00610179
0.0060105
0.00600988
0.00610434
0.00629607
0.00658774
0.0069786
0.00746882
0.0080546
0.00873255
0.00949584
0.0103383
0.0112486
0.012219
0.0132347
0.0142812
0.0153588
0.0164489
0.017542
0.0186241
0.0196916
0.0207355
0.0217576
0.022748
0.023714
0.0246475
0.0255585
0.0264403
0.0272982
0.0281311
0.0289326
0.0297139
0.0304511
0.0311669
0.0318349
0.0324709
0.0330624
0.0336056
0.034083
0.0345029
0.0347437
0.0348909
0.0347456
0.0343588
0.0337258
0.0328415
0.0318191
0.0306892
0.029606
0.0282986
0.0269031
0.0253324
0.0233024
0.0208373
0.0177771
0.0138665
0.00886213
0.00326809
0.00323283
0.00297136
0.00280984
0.00275502
0.00281197
0.00298564
0.00327832
0.00369244
0.00422619
0.00487892
0.0056442
0.00651704
0.00748723
0.00854515
0.00967605
0.0108677
0.0121002
0.013359
0.0146331
0.0159083
0.0171699
0.0184018
0.0196022
0.0207608
0.0218819
0.0229564
0.0239962
0.0249949
0.0259673
0.0269061
0.027822
0.0287112
0.0295699
0.0304099
0.0312007
0.0319779
0.0326991
0.0333994
0.0340606
0.0346827
0.0352724
0.0358004
0.0361484
0.0364188
0.0362983
0.0359085
0.0352053
0.0342028
0.0330757
0.0319177
0.0308967
0.0296631
0.028392
0.0269553
0.0250162
0.0226518
0.019636
0.0154558
0.00995702
0.00380202
-0.000530585
-0.000793756
-0.000933105
-0.000940416
-0.000809775
-0.00053552
-0.000115452
0.000452406
0.00116483
0.00201967
0.00300709
0.00411986
0.00534269