/*--------------------------------*- C++ -*----------------------------------*\
| =========                 |                                                 |
| \\      /  F ield         | OpenFOAM: The Open Source CFD Toolbox           |
|  \\    /   O peration     | Version:  2512                                  |
|   \\  /    A nd           | Website:  www.openfoam.com                      |
|    \\/     M anipulation  |                                                 |
\*---------------------------------------------------------------------------*/
FoamFile
{
    version     2.0;
    format      ascii;
    arch        "LSB;label=32;scalar=64";
    class       surfaceScalarField;
    location    "69.3";
    object      phi;
}
// * * * * * * * * * * * * * * * * * * * * * * * * * * * * * * * * * * * * * //

dimensions      [0 3 -1 0 0 0 0];

oriented        oriented;

internalField   nonuniform List<scalar> 
26232
(
6.33632e-06
0.0011998
-0.00120614
5.23572e-05
0.00198503
-0.00203105
0.00038627
0.00156961
-0.00190352
0.00134406
6.37425e-05
-0.00102154
0.00328728
-0.00258921
0.000645997
0.00656659
-0.00650464
0.00322532
0.0114908
-0.0117949
0.0068707
0.0182724
-0.0184615
0.0116798
0.0269536
-0.0263348
0.0176536
0.0373608
-0.0350641
0.0246569
0.0491056
-0.0441671
0.0324223
0.0616412
-0.0531181
0.0405824
0.0743546
-0.0614403
0.0487269
0.086665
-0.0687782
0.0564677
0.0981059
-0.0749327
0.0634919
0.108381
-0.0798693
0.0695942
0.117384
-0.0836893
0.0746867
0.12517
-0.0865946
0.0788086
0.131976
-0.0888323
0.0820255
0.138049
-0.0906886
0.0846162
0.143773
-0.0923167
0.0865926
0.149464
-0.0940971
0.0884064
0.155229
-0.0958445
0.0900795
-0.0980125
0.0917315
0.16151
0.000118828
0.00108097
0.000530888
0.00157297
0.00150011
0.000600391
0.00339267
-0.00182883
0.00660649
-0.00580303
0.0115236
-0.0114217
0.0184072
-0.0186785
0.0272973
-0.0273515
0.0379399
-0.0369774
0.0498022
-0.0469264
0.0621715
-0.0565364
0.0742991
-0.0652456
0.085541
-0.0726822
0.0954597
-0.0786969
0.103874
-0.0833472
0.110852
-0.0868471
0.116655
-0.0894922
0.121668
-0.0916074
0.126292
-0.0934569
0.130888
-0.0952842
0.135736
-0.0971647
0.140941
-0.0993022
0.146541
-0.101445
-0.10408
0.152608
0.000178366
0.000902606
0.000900118
0.000851217
0.00249833
-0.000997816
0.00539479
-0.00472529
0.0100264
-0.0104346
0.0167218
-0.0181172
0.025537
-0.0274937
0.0361473
-0.0379618
0.0478751
-0.0487053
0.0598482
-0.0588995
0.07121
-0.0678981
0.0813038
-0.0753394
0.0897817
-0.0811602
0.0966252
-0.0855403
0.102087
-0.0888095
0.106582
-0.0913421
0.110568
-0.093478
0.114429
-0.0954686
0.11844
-0.0974679
0.122726
-0.0995694
0.127318
-0.101757
0.132158
-0.104142
0.137221
-0.106508
-0.109273
0.142415
0.000230745
0.000671861
0.00127764
-0.000195675
0.00358339
-0.00330357
0.00762993
-0.00877183
0.0138217
-0.0166264
0.0222642
-0.0265596
0.0325937
-0.0378232
0.0440052
-0.0493733
0.0554797
-0.0601798
0.0660762
-0.0694959
0.0751579
-0.0769799
0.0824904
-0.0826719
0.0882101
-0.0868798
0.092702
-0.0900323
0.09644
-0.0925475
0.0998507
-0.0947528
0.103231
-0.0968581
0.106737
-0.0989743
0.110421
-0.101153
0.114268
-0.103415
0.118279
-0.105769
0.122419
-0.108283
0.126739
-0.110827
-0.113759
0.131224
0.000318427
0.000353435
0.00178272
-0.00165997
0.00493567
-0.00645652
0.0102741
-0.0141102
0.0180053
-0.0243576
0.027791
-0.0363453
0.0387355
-0.0487677
0.0496817
-0.0603195
0.0596037
-0.0701018
0.06788
-0.0777722
0.0743684
-0.0834683
0.0793128
-0.0876163
0.0831604
-0.0907274
0.0863763
-0.0932482
0.089323
-0.0954941
0.092221
-0.0976509
0.0951758
-0.099813
0.0982298
-0.102028
0.101401
-0.104324
0.104709
-0.106724
0.108182
-0.109242
0.111814
-0.111914
0.115645
-0.114659
-0.117733
0.119619
0.000466158
-0.000112724
0.00246739
-0.0036612
0.00660511
-0.0105942
0.0132487
-0.0207539
0.0221896
-0.0332985
0.0325157
-0.0466714
0.0429423
-0.0591944
0.0523307
-0.0697079
0.0600318
-0.0778029
0.065945
-0.0836854
0.0703662
-0.0878895
0.0737588
-0.0910089
0.0765618
-0.0935304
0.0790934
-0.0957798
0.0815428
-0.0979435
0.0840095
-0.100118
0.0865473
-0.102351
0.0891883
-0.104669
0.0919551
-0.10709
0.0948541
-0.109623
0.0978849
-0.112273
0.101019
-0.115048
0.104275
-0.117915
-0.121018
0.107561
0.000674536
-0.00078726
0.00332087
-0.00630752
0.00849118
-0.0157646
0.0162274
-0.02849
0.025735
-0.0428061
0.0356381
-0.0565744
0.0446366
-0.0681929
0.0519791
-0.0770504
0.0575366
-0.0833605
0.0616081
-0.0877569
0.0646546
-0.090936
0.0671015
-0.0934558
0.0692535
-0.0956824
0.0712962
-0.0978225
0.0733322
-0.0999795
0.0754161
-0.102201
0.0775742
-0.104509
0.079818
-0.106913
0.0821475
-0.10942
0.0845613
-0.112036
0.0870583
-0.11477
0.0896337
-0.117623
0.0923059
-0.120588
-0.123734
0.0950219
0.000931204
-0.00171846
0.00427749
-0.00965381
0.0103842
-0.0218713
0.0187638
-0.0368696
0.0280581
-0.0521004
0.0367661
-0.0652825
0.0439337
-0.0753605
0.0493177
-0.0824343
0.0531744
-0.0872171
0.0559572
-0.0905397
0.0580968
-0.0930757
0.0599074
-0.0952663
0.0615816
-0.0973567
0.0632239
-0.0994648
0.0648846
-0.10164
0.0665853
-0.103902
0.0683357
-0.106259
0.0701415
-0.108719
0.07201
-0.111288
0.073948
-0.113974
0.0759579
-0.11678
0.0780341
-0.119699
0.0801787
-0.122732
-0.125894
0.0823384
0.00121722
-0.00293569
0.00524212
-0.0136787
0.0120278
-0.0286569
0.0204637
-0.0453056
0.0288786
-0.0605153
0.0360069
-0.0724108
0.0413797
-0.0807334
0.0451511
-0.0862058
0.0477552
-0.0898212
0.0496406
-0.0924251
0.0511451
-0.0945802
0.0524769
-0.0965981
0.0537459
-0.0986257
0.0550031
-0.100722
0.0562713
-0.102908
0.0575632
-0.105194
0.0588881
-0.107584
0.0602539
-0.110085
0.0616656
-0.1127
0.0631239
-0.115433
0.0646249
-0.118281
0.0661654
-0.12124
0.0677441
-0.124311
-0.127488
0.0693374
0.00150875
-0.00444443
0.00610426
-0.0182742
0.0131867
-0.0357393
0.0211171
-0.0532361
0.0282534
-0.0676515
0.0337567
-0.0779141
0.0375813
-0.084558
0.0401057
-0.0887302
0.041797
-0.0915125
0.0430294
-0.0936575
0.0440392
-0.09559
0.0449513
-0.0975102
0.0458242
-0.0994986
0.0466847
-0.101582
0.0475468
-0.103771
0.0484195
-0.106067
0.0493091
-0.108474
0.0502202
-0.110996
0.0511563
-0.113636
0.0521194
-0.116396
0.0531098
-0.119271
0.0541267
-0.122257
0.0551672
-0.125351
-0.128542
0.0562214
0.00177854
-0.00622297
0.00675595
-0.0232516
0.0137111
-0.0426945
0.0207271
-0.0602521
0.0264472
-0.0733715
0.0304698
-0.0819367
0.0330363
-0.0871245
0.0346114
-0.0903052
0.0356149
-0.092516
0.0363274
-0.09437
0.0369015
-0.0961641
0.0374094
-0.0980181
0.0378829
-0.099972
0.0383368
-0.102036
0.0387796
-0.104213
0.0392175
-0.106505
0.0396561
-0.108912
0.040101
-0.111441
0.0405566
-0.114092
0.0410247
-0.116864
0.0415042
-0.119751
0.041992
-0.122745
0.0424817
-0.125841
-0.129031
0.0429714
0.00200221
-0.00822519
0.00711944
-0.0283688
0.0135729
-0.049148
0.0194528
-0.066132
0.0237943
-0.077713
0.026548
-0.0846904
0.0281124
-0.0886889
0.0289476
-0.0911405
0.0293947
-0.0929631
0.0296503
-0.0946256
0.029809
-0.0963227
0.0299112
-0.0981203
0.0299743
-0.100035
0.0300074
-0.10207
0.030017
-0.104223
0.0300086
-0.106496
0.0299873
-0.108891
0.0299572
-0.111411
0.0299214
-0.114056
0.0298818
-0.116824
0.0298398
-0.119709
0.0297954
-0.1227
0.029745
-0.125791
0.0296908
-0.128977
4.00922e-05
-0.00664007
0.00659998
-0.000335471
-0.0156107
0.0159862
-0.00133282
-0.0211346
0.022132
-0.00289315
-0.0241885
0.0257488
-0.00487202
-0.0258932
0.0278721
-0.00712039
-0.0271278
0.0293762
-0.00952176
-0.0283684
0.0307698
-0.0119865
-0.0297484
0.0322131
-0.01443
-0.0312006
0.0336442
-0.0167556
-0.0325707
0.0348963
-0.0188475
-0.0336728
0.0357647
-0.0205747
-0.0343082
0.0360354
-0.0218018
-0.0342757
0.0355028
-0.0224034
-0.0333842
0.0339858
-0.0222789
-0.0314675
0.0313429
-0.0213611
-0.0283986
0.0274808
-0.0196519
-0.0240912
0.0223821
-0.0171571
-0.0184912
0.0159964
-0.0139379
-0.011577
0.0083578
-0.010156
-0.00332824
-0.000453666
-0.00564589
0.00587932
-0.0103894
-0.000383674
0.0163039
-0.0215661
0.00573813
0.0278941
-0.0340159
0.0402943
0.0128815
-0.0474377
-0.000291978
-0.00634809
-0.0012974
-0.0146052
-0.00299561
-0.0194364
-0.00525872
-0.0219254
-0.00794357
-0.0232083
-0.010944
-0.0241274
-0.0141933
-0.0251191
-0.0176431
-0.0262986
-0.0212392
-0.0276045
-0.0249058
-0.0289041
-0.0285387
-0.03004
-0.0320057
-0.0308412
-0.0351531
-0.0311283
-0.0378167
-0.0307205
-0.0398367
-0.0294476
-0.0410742
-0.0271611
-0.0414234
-0.023742
-0.0408095
-0.0191051
-0.0391928
-0.0131937
-0.0365629
-0.00595808
-0.032987
0.00230344
-0.0281792
0.011496
-0.0220842
0.0217992
0.0330589
-0.0148488
-0.000581747
-0.00576635
-0.00209323
-0.0130938
-0.0043251
-0.0172045
-0.00708395
-0.0191665
-0.010235
-0.0200573
-0.0137085
-0.0206539
-0.0174767
-0.021351
-0.0215229
-0.0222523
-0.0258197
-0.0233077
-0.0303155
-0.0244084
-0.0349286
-0.0254269
-0.039545
-0.0262248
-0.0440196
-0.0266536
-0.0481824
-0.0265578
-0.0518481
-0.025782
-0.0548286
-0.0241805
-0.0569444
-0.0216262
-0.0580311
-0.0180184
-0.0579397
-0.0132852
-0.0565279
-0.00736983
-0.0540386
-0.000185874
-0.04992
0.00737737
-0.0442686
0.0161478
0.0259468
-0.0371565
-0.000808486
-0.00495786
-0.00268977
-0.0112125
-0.00528121
-0.0146131
-0.00833701
-0.0161107
-0.0117237
-0.0166706
-0.0153906
-0.0169869
-0.0193285
-0.0174131
-0.0235351
-0.0180458
-0.0279951
-0.0188477
-0.0326721
-0.0197313
-0.0375043
-0.0205947
-0.0424011
-0.021328
-0.0472418
-0.0218129
-0.051876
-0.0219235
-0.0561275
-0.0215305
-0.0598003
-0.0205077
-0.0626878
-0.0187387
-0.0645774
-0.0161288
-0.0652596
-0.012603
-0.064516
-0.00811344
-0.0621095
-0.00259235
-0.0582505
0.00351832
-0.0526568
0.0105541
0.0183271
-0.0450371
-0.000964505
-0.00399336
-0.00308347
-0.00909351
-0.00588085
-0.0118157
-0.00906922
-0.0129223
-0.0125081
-0.0132317
-0.0161495
-0.0133455
-0.0199842
-0.0135784
-0.0240047
-0.0140254
-0.0281878
-0.0146646
-0.0324897
-0.0154294
-0.0368451
-0.0162393
-0.0411668
-0.0170063
-0.0453449
-0.0176348
-0.0492465
-0.0180219
-0.0527173
-0.0180598
-0.0555822
-0.0176427
-0.057647
-0.0166738
-0.0587028
-0.0150731
-0.0585262
-0.0127796
-0.0568739
-0.00976582
-0.0534039
-0.00606228
-0.0481011
-0.00178455
-0.0410649
0.00351791
0.00830956
-0.0310474
-0.00104958
-0.00294377
-0.00328373
-0.00685936
-0.00615438
-0.00894507
-0.00934366
-0.00973305
-0.0126994
-0.00987596
-0.0161657
-0.00987924
-0.0197225
-0.0100216
-0.0233467
-0.0104012
-0.026995
-0.0110162
-0.0306008
-0.0118237
-0.0340753
-0.0127648
-0.0373104
-0.0137712
-0.0401812
-0.014764
-0.0425484
-0.0156548
-0.0442596
-0.0163486
-0.0451537
-0.0167486
-0.0450601
-0.0167674
-0.0438001
-0.0163331
-0.041174
-0.0154056
-0.0369846
-0.0139553
-0.0311609
-0.011886
-0.0230167
-0.00992872
-0.0130576
-0.00644116
-0.0045305
-0.00021759
-0.001063
-0.00188077
-0.00329268
-0.00462969
-0.00611021
-0.00612755
-0.00917882
-0.00666443
-0.0123318
-0.00672296
-0.0154981
-0.00671297
-0.0186391
-0.00688063
-0.0217093
-0.00733098
-0.0246392
-0.00808628
-0.0273324
-0.00913043
-0.0296691
-0.0104281
-0.031512
-0.0119283
-0.0327121
-0.0135639
-0.0331148
-0.015252
-0.0325643
-0.0168991
-0.0309098
-0.0184031
-0.0280027
-0.0196746
-0.0236907
-0.0206451
-0.0178423
-0.021254
-0.010221
-0.0215766
-0.000845137
-0.0212618
0.0107247
-0.0214986
0.0239291
-0.0196456
-0.0217836
0.0411822
-0.0010001
-0.000880667
-0.00309662
-0.00253317
-0.0057191
-0.00350506
-0.00852109
-0.00386244
-0.0113161
-0.00392795
-0.0140066
-0.00402251
-0.0165223
-0.00436485
-0.0187824
-0.00507089
-0.020679
-0.00618974
-0.0220759
-0.00773347
-0.0228167
-0.00968729
-0.022735
-0.01201
-0.0216673
-0.0146316
-0.0194637
-0.0174556
-0.0159738
-0.020389
-0.0110982
-0.0232786
-0.00474771
-0.0260251
0.00315533
-0.0285481
0.0126624
-0.030761
0.0239184
-0.0328326
0.0367298
-0.0340733
0.0518363
-0.0366051
0.0681623
-0.0359715
-0.0410038
0.0873826
-0.000858154
-2.25128e-05
-0.00268191
-0.000709423
-0.00494265
-0.00124432
-0.00728977
-0.00151532
-0.00950902
-0.00170871
-0.0114595
-0.00207201
-0.013021
-0.00280335
-0.01406
-0.00403192
-0.014418
-0.00583169
-0.0139151
-0.0082364
-0.0123656
-0.0112368
-0.00959555
-0.0147801
-0.00545803
-0.0187691
0.000155599
-0.0230693
0.00726319
-0.0274966
0.0159121
-0.0319275
0.0260699
-0.0361829
0.0376951
-0.0401733
0.0507338
-0.0437998
0.0650824
-0.0471812
0.0808306
-0.0498214
0.0976047
-0.0533792
0.115935
-0.0543015
-0.0598885
0.134819
-0.00065353
0.000631017
-0.00206882
0.000705865
-0.00379639
0.000483257
-0.00548158
0.000169866
-0.00688213
-0.000308161
-0.00779933
-0.00115482
-0.00805163
-0.00255105
-0.00744827
-0.00463527
-0.00579194
-0.00748802
-0.00287873
-0.0111496
0.00146325
-0.0155788
0.00735397
-0.0206708
0.0148426
-0.0262578
0.0238991
-0.0321258
0.0344419
-0.0380393
0.0463067
-0.0437924
0.0593041
-0.0491803
0.0732496
-0.0541188
0.0879538
-0.058504
0.103146
-0.0623732
0.119032
-0.0657077
0.134584
-0.0689309
0.15135
-0.0710675
-0.0751486
0.16661
-0.000404967
0.00103598
-0.00132337
0.00162427
-0.00238968
0.00154956
-0.0032682
0.00104839
-0.0036537
7.73343e-05
-0.00331169
-0.00149682
-0.0020027
-0.00386004
0.00050419
-0.00714216
0.00443462
-0.0114185
0.00994611
-0.0166611
0.017128
-0.0227607
0.0259636
-0.0295063
0.0363214
-0.0366157
0.0479706
-0.043775
0.0606132
-0.0506818
0.0739131
-0.0570923
0.0875428
-0.0628101
0.101218
-0.0677942
0.114669
-0.0719545
0.127753
-0.0754573
0.140385
-0.0783399
0.152182
-0.0807277
0.164027
-0.0829127
-0.0850044
0.173883
-0.000170153
-0.000576932
-0.000930889
-0.000904035
-0.000180704
0.0015478
0.00455845
0.00909612
0.0153313
0.0233271
0.0329887
0.0440647
0.056176
0.0688687
0.0816788
0.0941806
0.106057
0.117072
0.127143
0.136302
0.144554
0.152233
0.1594
0.166127
0.0232701
0.0750045
-0.0853932
0.0336523
0.098928
-0.10931
0.0443901
0.118684
-0.129422
0.0536792
0.134113
-0.143402
0.0598662
0.144964
-0.15115
0.0616008
0.15314
-0.154874
0.0601152
0.160192
-0.158707
0.0600311
0.163722
-0.163638
0.0665617
0.156871
-0.163402
0.0809819
0.133449
-0.14787
0.0991545
0.0944802
-0.112653
0.11628
0.0442464
-0.0613721
0.130955
-0.0156779
0.00100331
0.143222
-0.0801919
0.0679248
0.152344
-0.136501
0.127379
0.157744
-0.17288
0.16748
0.159341
-0.187713
0.186116
0.157851
-0.190057
0.191547
0.155391
-0.188389
0.190849
0.152864
-0.184736
0.187264
0.148296
-0.185802
0.190369
0.140316
-0.200419
0.208399
0.130889
-0.218814
0.22824
0.123724
-0.211176
0.218342
0.121252
-0.155387
0.157859
0.124353
-0.0587895
0.0556876
0.131065
0.0496597
-0.056371
0.139046
0.140302
-0.148283
0.146786
0.195749
-0.203488
0.15309
0.217912
-0.224216
0.155399
0.229103
-0.231412
0.151684
0.252106
-0.248391
0.142567
0.277197
-0.26808
0.131227
0.275404
-0.264064
0.122112
0.223538
-0.214423
0.118796
0.123467
-0.12015
0.121275
-0.00380106
0.00132139
0.127443
-0.121522
0.115354
0.135188
-0.202825
0.19508
0.138503
-0.236998
0.233683
0.13242
-0.249465
0.255548
0.120114
-0.261976
0.274282
0.109884
-0.247626
0.257856
0.107828
-0.183103
0.185159
0.116243
-0.0639426
0.0555281
0.130144
0.0313108
-0.0452123
0.13898
0.111837
-0.120674
0.138095
0.18593
-0.185045
0.133079
0.298342
-0.293326
0.132502
0.338132
-0.337555
0.135112
0.242991
-0.2456
0.137117
0.0297864
-0.0317921
0.135837
-0.218919
0.2202
0.131034
-0.3293
0.334104
0.125438
-0.342475
0.348071
0.117849
-0.139191
0.146779
0.112612
0.0353033
-0.0300659
0.107824
0.198496
-0.193708
0.100721
0.261199
-0.254096
0.0555878
-0.0521684
-0.00135425
0.06151
0.0129083
0.0846654
0.0266848
0.104908
0.0380201
0.122778
0.0464755
0.136508
0.0521151
0.1475
0.0574819
0.154826
0.0664516
0.154752
0.0816188
0.141704
0.101346
0.113722
0.12062
0.0752064
0.136085
0.0287812
0.148019
-0.0276111
0.157011
-0.0891843
0.162187
-0.141678
0.163285
-0.173977
0.161183
-0.185611
0.156812
-0.185686
0.151938
-0.183516
0.147544
-0.180341
0.141324
-0.179582
0.1313
-0.190395
0.119923
-0.207438
0.112033
-0.203286
0.110449
-0.153802
0.115313
-0.0636539
0.12478
0.0401932
0.13567
0.129411
0.146239
0.18518
0.155066
0.209085
0.159732
0.224437
0.158446
0.253391
0.151389
0.284255
0.14103
0.285763
0.13161
0.232958
0.12659
0.128487
0.126441
-0.00365286
0.129371
-0.124451
0.134691
-0.208145
0.137477
-0.239784
0.131452
-0.24344
0.118751
-0.249275
0.108779
-0.237654
0.108155
-0.18248
0.117818
-0.0736052
0.131357
0.0177721
0.139341
0.103853
0.138494
0.186777
0.134348
0.302488
0.134224
0.338255
0.136457
0.240758
0.137353
0.028891
0.134903
-0.216469
0.129494
-0.323891
0.124237
-0.337219
0.117276
-0.13223
0.112571
0.0400083
0.107805
0.203262
0.0994221
0.269583
0.0600733
-0.0222547
0.0466082
-0.00659174
0.0690025
0.00914088
0.089175
0.0236402
0.108278
0.0366158
0.123533
0.0487887
0.135327
0.0621292
0.141485
0.0788049
0.138076
0.0993885
0.121121
0.12112
0.0919898
0.139657
0.05667
0.153111
0.0153269
0.16259
-0.0370904
0.168724
-0.0953179
0.170412
-0.143365
0.167613
-0.171178
0.162282
-0.18028
0.155646
-0.17905
0.148757
-0.176627
0.142831
-0.174415
0.135737
-0.172488
0.124425
-0.179083
0.111087
-0.1941
0.101955
-0.194153
0.100911
-0.152759
0.107448
-0.0701913
0.11907
0.0285716
0.132458
0.116024
0.145732
0.171905
0.157107
0.19771
0.164357
0.217187
0.165926
0.251823
0.161412
0.288768
0.152322
0.294853
0.142444
0.242836
0.135449
0.135482
0.132551
-0.000754534
0.132206
-0.124106
0.134736
-0.210676
0.136938
-0.241986
0.131489
-0.237991
0.118646
-0.236432
0.108574
-0.227582
0.109022
-0.182928
0.119538
-0.0841219
0.132673
0.00463714
0.13994
0.0965857
0.139197
0.18752
0.135855
0.30583
0.136139
0.337972
0.138086
0.238811
0.137955
0.0290216
0.134375
-0.21289
0.128386
-0.317902
0.123503
-0.332336
0.11719
-0.125917
0.11296
0.0442391
0.108192
0.208029
0.0985652
0.27921
0.0658095
-0.031236
0.0328071
-0.0150591
0.0528256
0.00125334
0.0728626
0.0193124
0.0902192
0.0370463
0.105799
0.0552044
0.117169
0.0745054
0.122184
0.0956227
0.116959
0.118043
0.0987004
0.139009
0.0710235
0.155554
0.0401255
0.167379
0.00350155
0.17537
-0.0450816
0.178962
-0.0989089
0.17723
-0.141633
0.170945
-0.164894
0.162779
-0.172114
0.154373
-0.170645
0.145987
-0.168241
0.138584
-0.167012
0.130981
-0.164885
0.119467
-0.167569
0.104841
-0.179474
0.0939918
-0.183304
0.0924838
-0.151251
0.0999072
-0.0776147
0.113307
0.015172
0.129008
0.100322
0.144817
0.156097
0.158695
0.183832
0.168815
0.207067
0.17376
0.246878
0.172156
0.290372
0.164444
0.302565
0.154038
0.253242
0.145026
0.144494
0.139432
0.00483922
0.135984
-0.120658
0.135425
-0.210117
0.136679
-0.24324
0.132206
-0.233518
0.11966
-0.223886
0.109114
-0.217036
0.109959
-0.183773
0.12117
-0.0953323
0.134006
-0.00819875
0.140744
0.0898474
0.140153
0.188111
0.137555
0.308429
0.138225
0.337302
0.139946
0.23709
0.138928
0.0300397
0.134266
-0.208228
0.127701
-0.311337
0.123152
-0.327787
0.117491
-0.120256
0.113727
0.0480027
0.108988
0.212768
0.0981988
0.289999
0.0727634
-0.0199796
0.0217394
-0.00587388
0.0387198
0.0113351
0.0556536
0.0300691
0.0714851
0.0502876
0.0855801
0.0715639
0.0958929
0.0935313
0.100217
0.11576
0.0947305
0.137118
0.0773423
0.155289
0.0528523
0.168942
0.0264724
0.179194
-0.00675034
0.1858
-0.0516875
0.186921
-0.10003
0.181941
-0.136654
0.172693
-0.155646
0.162269
-0.161689
0.152598
-0.160974
0.143398
-0.159041
0.135017
-0.158631
0.127128
-0.156996
0.116151
-0.156591
0.10107
-0.164394
0.0883492
-0.170583
0.0854304
-0.148332
0.0929443
-0.0851287
0.10756
0.000556189
0.125129
0.0827536
0.143052
0.138173
0.159263
0.167621
0.172356
0.193975
0.180946
0.238288
0.18297
0.288348
0.177404
0.308131
0.16651
0.264136
0.155289
0.155715
0.146784
0.0133441
0.140494
-0.114368
0.136762
-0.206385
0.136599
-0.243077
0.133284
-0.230202
0.121581
-0.212184
0.110317
-0.205772
0.110795
-0.184251
0.122474
-0.107011
0.135259
-0.0209836
0.141748
0.0833579
0.141408
0.188451
0.139477
0.31036
0.140456
0.336323
0.142031
0.235515
0.140235
0.0318353
0.134576
-0.202569
0.127425
-0.304186
0.123103
-0.323465
0.118143
-0.115296
0.114822
0.051324
0.110179
0.217411
0.0983511
0.301827
0.0808398
0.00970525
0.0118166
0.0221192
0.0263059
0.0370983
0.0406745
0.0543851
0.0541984
0.0738963
0.0660689
0.0949396
0.0748496
0.116437
0.078719
0.137133
0.0740343
0.155429
0.0590466
0.169794
0.0384879
0.18055
0.0157164
0.189131
-0.0153315
0.194044
-0.0566013
0.192473
-0.0984584
0.184509
-0.128691
0.172958
-0.144094
0.160931
-0.149663
0.150379
-0.150421
0.140794
-0.149456
0.131763
-0.1496
0.123763
-0.148997
0.113987
-0.146815
0.0996348
-0.150041
0.0853716
-0.15632
0.0801415
-0.143102
0.0868065
-0.0917937
0.10179
-0.0144275
0.120651
0.0638925
0.140176
0.118648
0.158397
0.1494
0.17435
0.178021
0.18679
0.225848
0.192683
0.282455
0.189634
0.31118
0.178851
0.274919
0.165599
0.168968
0.154364
0.0245791
0.145499
-0.105503
0.138691
-0.199577
0.136585
-0.240971
0.134318
-0.227936
0.124066
-0.201931
0.11209
-0.193796
0.111423
-0.183584
0.123271
-0.118859
0.136346
-0.0340583
0.14291
0.0767945
0.142917
0.188443
0.141581
0.311696
0.142794
0.33511
0.144285
0.234024
0.141857
0.0342642
0.135288
-0.196001
0.12753
-0.296428
0.123328
-0.319263
0.119095
-0.111063
0.11619
0.0542287
0.111723
0.221878
0.0990338
0.314516
0.0899886
0.0478101
0.00518862
0.0568958
0.0172202
0.068718
0.0288523
0.0831801
0.0397363
0.100037
0.0492117
0.118601
0.0562861
0.137649
0.0596703
0.155497
0.0561865
0.170303
0.0442405
0.181464
0.0273276
0.19035
0.00683044
0.19757
-0.0225514
0.200219
-0.0592509
0.19557
-0.0938093
0.184851
-0.117972
0.171661
-0.130904
0.158764
-0.136766
0.147689
-0.139345
0.138098
-0.139865
0.128863
-0.140365
0.120606
-0.14074
0.112157
-0.138366
0.099701
-0.137585
0.0850188
-0.141637
0.0771221
-0.135205
0.0818037
-0.0964753
0.0961565
-0.0287802
0.115606
0.0444428
0.136094
0.0981599
0.155794
0.129701
0.174304
0.159511
0.190529
0.209623
0.200773
0.272211
0.201347
0.310606
0.191843
0.284423
0.176557
0.184254
0.162151
0.0389847
0.150784
-0.0941356
0.1411
-0.189894
0.136627
-0.236497
0.134998
-0.226307
0.126699
-0.193631
0.114319
-0.181416
0.111834
-0.181099
0.123414
-0.13044
0.137149
-0.047793
0.144215
0.0697283
0.144744
0.187914
0.14391
0.312529
0.145234
0.333786
0.146712
0.232546
0.143734
0.0372425
0.136374
-0.188641
0.127985
-0.288039
0.123782
-0.315059
0.120283
-0.107564
0.117769
0.0567431
0.113579
0.226067
0.100236
0.32786
0.100165
0.0889073
0.00366392
0.0932205
0.0129069
0.100914
0.0211584
0.111427
0.0292233
0.12433
0.0363092
0.139142
0.0414745
0.154844
0.0439683
0.169713
0.041317
0.1819
0.0320532
0.191229
0.0179988
0.199257
-0.00119742
0.204435
-0.0277299
0.203697
-0.0585124
0.195681
-0.085793
0.18281
-0.105101
0.168796
-0.11689
0.155786
-0.123757
0.144566
-0.128125
0.13507
-0.13037
0.12609
-0.131384
0.117686
-0.132336
0.11014
-0.13082
0.100252
-0.127697
0.0867748
-0.128161
0.0767355
-0.125166
0.078342
-0.0980818
0.0910377
-0.0414758
0.110053
0.0254278
0.130715
0.0774978
0.151391
0.109024
0.172067
0.138835
0.191631
0.190058
0.205902
0.257941
0.209894
0.306613
0.202126
0.292192
0.186513
0.199867
0.169815
0.0556822
0.155971
-0.0802919
0.143743
-0.177665
0.13671
-0.229465
0.135127
-0.224724
0.129054
-0.187559
0.116826
-0.169188
0.11207
-0.176342
0.122811
-0.141182
0.13752
-0.0625018
0.145558
0.0616899
0.14678
0.186692
0.146388
0.312922
0.147741
0.332433
0.149261
0.231027
0.145851
0.040652
0.137794
-0.180584
0.128755
-0.278999
0.124423
-0.310727
0.121644
-0.104785
0.119511
0.0588755
0.115749
0.22983
0.101945
0.341664
0.111329
0.132946
0.00553702
0.133827
0.0120262
0.13714
0.0178452
0.143199
0.0231642
0.151453
0.0280558
0.161601
0.0313257
0.173038
0.0325317
0.184353
0.030002
0.193872
0.0225338
0.201197
0.0106748
0.206863
-0.00686405
0.208367
-0.029234
0.203448
-0.0535927
0.192559
-0.0749043
0.178617
-0.0911596
0.164603
-0.102876
0.151991
-0.111144
0.140999
-0.117133
0.131653
-0.121024
0.123151
-0.122882
0.114918
-0.124103
0.10777
-0.123672
0.100183
-0.12011
0.0893012
-0.117279
0.0786599
-0.114525
0.076929
-0.0963509
0.0868571
-0.051404
0.104432
0.00785317
0.124467
0.0574623
0.145244
0.0882479
0.167215
0.116864
0.189916
0.167358
0.208786
0.23907
0.217211
0.298188
0.211887
0.297516
0.195963
0.215791
0.176775
0.0748698
0.160637
-0.0641536
0.146351
-0.163379
0.136812
-0.219925
0.13464
-0.222553
0.130787
-0.183705
0.119386
-0.157788
0.112208
-0.169164
0.121382
-0.150356
0.13724
-0.0783599
0.146836
0.0520936
0.149064
0.184464
0.149066
0.312919
0.150337
0.331163
0.151964
0.229399
0.148134
0.0444824
0.139494
-0.171944
0.129786
-0.269291
0.125204
-0.306145
0.123123
-0.102704
0.121368
0.0606298
0.118189
0.233009
0.104112
0.35574
0.12342
0.165125
0.00702241
0.165747
0.011404
0.168003
0.0155889
0.171783
0.0193844
0.177122
0.0227168
0.183665
0.0247825
0.191022
0.0251749
0.198268
0.0227561
0.20421
0.0165915
0.208391
0.00649375
0.209864
-0.00833655
0.206838
-0.0262083
0.198427
-0.0451814
0.186146
-0.0626241
0.172463
-0.0774759
0.159237
-0.0896502
0.147353
-0.0992596
0.136847
-0.106627
0.127705
-0.111882
0.119692
-0.114869
0.112013
-0.116424
0.105076
-0.116735
0.0989452
-0.113979
0.091051
-0.109385
0.0816774
-0.105151
0.0776181
-0.0922916
0.0841145
-0.0579004
0.0990338
-0.00706611
0.117522
0.0389743
0.13765
0.0681196
0.16024
0.094274
0.184792
0.142806
0.206849
0.217013
0.219526
0.285511
0.217591
0.299451
0.202458
0.230924
0.18244
0.0948884
0.164626
-0.0463396
0.14868
-0.147433
0.136802
-0.208047
0.133477
-0.219228
0.13163
-0.181858
0.121754
-0.147911
0.112331
-0.15974
0.11915
-0.157175
0.136055
-0.095265
0.147763
0.0403856
0.151369
0.180858
0.151821
0.312467
0.152993
0.329991
0.154771
0.227621
0.150599
0.0486543
0.141409
-0.162754
0.131013
-0.258894
0.126066
-0.301199
0.124661
-0.101299
0.123312
0.0619789
0.120904
0.235417
0.106725
0.369919
0.136385
0.17402
0.00688538
0.175784
0.00963989
0.178615
0.0127579
0.182179
0.01582
0.186786
0.0181097
0.192045
0.0195237
0.197392
0.019828
0.202135
0.0180131
0.205348
0.0133788
0.206263
0.00557869
0.204238
-0.00631163
0.19845
-0.0204199
0.18896
-0.0356914
0.177233
-0.0508971
0.164844
-0.065087
0.152846
-0.077652
0.141807
-0.0882206
0.131912
-0.0967327
0.123105
-0.103075
0.11544
-0.107204
0.108481
-0.109464
0.10197
-0.110225
0.0965337
-0.108543
0.0910101
-0.103861
0.0840303
-0.0981713
0.0794374
-0.0876987
0.083083
-0.061546
0.094962
-0.0189451
0.110999
0.0229374
0.129279
0.049839
0.151304
0.0722493
0.177643
0.116467
0.203947
0.190709
0.221123
0.268336
0.222139
0.298435
0.207889
0.245174
0.186694
0.116083
0.167188
-0.0268327
0.150309
-0.130555
0.136634
-0.194372
0.13172
-0.214315
0.131458
-0.181596
0.123751
-0.140204
0.11263
-0.14862
0.116218
-0.160762
0.133789
-0.112836
0.14823
0.0259449
0.153652
0.175435
0.154665
0.311455
0.155776
0.32888
0.15766
0.225737
0.153145
0.0531691
0.143499
-0.153108
0.132393
-0.247788
0.126973
-0.295778
0.126221
-0.100547
0.125299
0.0629003
0.123808
0.236908
0.109691
0.384036
0.150128
0.167186
0.00582658
0.168902
0.00792353
0.1715
0.01016
0.175009
0.0123111
0.179089
0.0140298
0.183487
0.0151252
0.187865
0.0154504
0.191574
0.0143043
0.193951
0.0110019
0.194538
0.00499102
0.191963
-0.00373584
0.186335
-0.0147925
0.178159
-0.0275153
0.168229
-0.0409665
0.157484
-0.0543423
0.14676
-0.0669285
0.136551
-0.0780112
0.127232
-0.0874141
0.11888
-0.0947225
0.111479
-0.099803
0.10505
-0.103036
0.0991564
-0.104331
0.0940398
-0.103426
0.0897988
-0.0996201
0.0851706
-0.0935431
0.0814918
-0.0840199
0.0833006
-0.0633549
0.0919055
-0.02755
0.105076
0.00976668
0.120708
0.0342071
0.140393
0.0525641
0.165574
0.091286
0.193341
0.162942
0.215669
0.246008
0.222997
0.291107
0.211838
0.256333
0.190691
0.137229
0.170155
-0.0062961
0.152167
-0.112568
0.13701
-0.179214
0.130116
-0.207421
0.130599
-0.182079
0.12538
-0.134984
0.113451
-0.136691
0.113416
-0.160728
0.130316
-0.129736
0.14758
0.00868127
0.155592
0.167423
0.157459
0.309587
0.158489
0.32785
0.160433
0.223793
0.155907
0.0576945
0.145768
-0.142969
0.133948
-0.235968
0.127978
-0.289808
0.127778
-0.100347
0.127326
0.0633526
0.12696
0.237274
0.113058
0.397938
0.16459
0.184333
0.00626614
-0.184773
0.184628
0.0076292
0.185701
0.00908629
0.187486
0.0105265
0.18988
0.0116362
0.192818
0.012187
0.196362
0.0119061
0.200333
0.0103338
0.204264
0.00707023
0.20752
0.00173491
0.209669
-0.00588438
0.210237
-0.0153606
0.209071
-0.0263493
0.206204
-0.0380998
0.201848
-0.0499859
0.196335
-0.0614156
0.189836
-0.0715124
0.182615
-0.0801931
0.174963
-0.0870705
0.166913
-0.0917533
0.15888
-0.0950021
0.150818
-0.0962693
0.142355
-0.0949638
0.134118
-0.0913826
0.125727
-0.085152
0.115985
-0.0742779
0.107121
-0.0544912
0.103509
-0.0239378
0.106497
0.00677836
0.115178
0.0255259
0.127142
0.0406006
0.139949
0.0784785
0.152937
0.149954
0.165628
0.233317
0.175594
0.28114
0.18185
0.250078
0.185305
0.133774
0.185025
-0.00601649
0.180055
-0.107597
0.169791
-0.16895
0.159333
-0.196963
0.153023
-0.17577
0.144832
-0.126793
0.132114
-0.123973
0.126568
-0.155182
0.133079
-0.136247
0.139055
0.00270501
0.137638
0.16884
0.135882
0.311344
0.140933
0.322799
0.150904
0.213822
0.154404
0.0541952
0.148496
-0.137062
0.136589
-0.224062
0.126394
-0.279612
0.121126
-0.0950793
0.117486
0.0669928
0.116292
0.238468
0.104715
0.409515
0.177609
0.195672
0.00651135
-0.195917
0.19602
0.00728141
0.196909
0.00819729
0.198405
0.00903071
0.200487
0.00955373
0.2031
0.0095741
0.206144
0.00886229
0.209411
0.00706617
0.212604
0.0038774
0.215284
-0.000944555
0.216954
-0.00755499
0.217288
-0.0156947
0.216098
-0.0251594
0.213366
-0.0353677
0.209144
-0.0457639
0.203645
-0.0559163
0.197105
-0.0649725
0.189777
-0.0728649
0.182134
-0.0794271
0.174267
-0.0838868
0.166297
-0.087032
0.158519
-0.0884916
0.150456
-0.0869003
0.142216
-0.0831431
0.134597
-0.0775322
0.126956
-0.0666372
0.119551
-0.047086
0.115325
-0.0197118
0.117022
0.00508082
0.124248
0.0183006
0.135222
0.0296266
0.147967
0.0657332
0.162008
0.135913
0.176615
0.21871
0.188711
0.269044
0.196334
0.242455
0.200414
0.129694
0.200034
-0.00563601
0.193963
-0.101526
0.182452
-0.15744
0.170522
-0.185033
0.16338
-0.168627
0.156043
-0.119457
0.143572
-0.111501
0.136104
-0.147714
0.141867
-0.14201
0.149258
-0.00468609
0.149221
0.168877
0.148323
0.312242
0.154164
0.316959
0.164683
0.203303
0.167993
0.0508853
0.160772
-0.129841
0.147074
-0.210364
0.135782
-0.26832
0.130377
-0.0896743
0.126677
0.0706924
0.126197
0.238948
0.114243
0.421469
0.191885
0.207621
0.00676279
-0.207873
0.207832
0.0070704
0.208562
0.00746741
0.209829
0.00776333
0.211584
0.00779915
0.213765
0.00739329
0.216277
0.00635039
0.218934
0.0044087
0.22147
0.00134192
0.223529
-0.00300399
0.224759
-0.00878527
0.224891