/*--------------------------------*- C++ -*----------------------------------*\
| =========                 |                                                 |
| \\      /  F ield         | OpenFOAM: The Open Source CFD Toolbox           |
|  \\    /   O peration     | Version:  2312                                  |
|   \\  /    A nd           | Website:  www.openfoam.com                      |
|    \\/     M anipulation  |                                                 |
\*---------------------------------------------------------------------------*/
FoamFile
{
    version     2.0;
    format      ascii;
    arch        "LSB;label=32;scalar=64";
    class       volScalarField;
    location    "16";
    object      p;
}
// * * * * * * * * * * * * * * * * * * * * * * * * * * * * * * * * * * * * * //

dimensions      [0 2 -2 0 0 0 0];

internalField   nonuniform List<scalar> 
5478
(
-0.29598
-0.292771
-0.287756
-0.282526
-0.279893
-0.281945
-0.289186
-0.300468
-0.313857
-0.32658
-0.337373
-0.34283
-0.343767
-0.335693
-0.320885
-0.296856
-0.294445
-0.289038
-0.283203
-0.279458
-0.27933
-0.28315
-0.289817
-0.297309
-0.303655
-0.30684
-0.305749
-0.300028
-0.289147
-0.276605
-0.302734
-0.299959
-0.294664
-0.288658
-0.283677
-0.280767
-0.280116
-0.280898
-0.281729
-0.281046
-0.278005
-0.272287
-0.264238
-0.254341
-0.243257
-0.313498
-0.309119
-0.303133
-0.29625
-0.289183
-0.28254
-0.276716
-0.271506
-0.26617
-0.260229
-0.253345
-0.245473
-0.236522
-0.226271
-0.215601
-0.328509
-0.321654
-0.313934
-0.305004
-0.294399
-0.283022
-0.271931
-0.261471
-0.251615
-0.242061
-0.232483
-0.222702
-0.212421
-0.201967
-0.191523
-0.348062
-0.337635
-0.327483
-0.31456
-0.298497
-0.281572
-0.265451
-0.250708
-0.237254
-0.224827
-0.213158
-0.20199
-0.191145
-0.180639
-0.170026
-0.372633
-0.356991
-0.342837
-0.323149
-0.299932
-0.277084
-0.256333
-0.237945
-0.22168
-0.207166
-0.194028
-0.181954
-0.170655
-0.160065
-0.149696
-0.399361
-0.378529
-0.356543
-0.327482
-0.296507
-0.268056
-0.243273
-0.221958
-0.203528
-0.187453
-0.173301
-0.160709
-0.14945
-0.139365
-0.129867
-0.236581
-0.246668
-0.258649
-0.275755
-0.296945
-0.320795
-0.346117
-0.371793
-0.396802
-0.420189
-0.441056
-0.45862
-0.472301
-0.481536
-0.48516
-0.241478
-0.250726
-0.262292
-0.279173
-0.300348
-0.324426
-0.350232
-0.376652
-0.40266
-0.427311
-0.449715
-0.468922
-0.484008
-0.494334
-0.499246
-0.25681
-0.263704
-0.274018
-0.289962
-0.310445
-0.334098
-0.359766
-0.386349
-0.412815
-0.438197
-0.461664
-0.482393
-0.498986
-0.51133
-0.517923
-0.27508
-0.278697
-0.287029
-0.301223
-0.320035
-0.342152
-0.366468
-0.391933
-0.41759
-0.442477
-0.464989
-0.487174
-0.501625
-0.517907
-0.52158
-0.289731
-0.289774
-0.295512
-0.306906
-0.322864
-0.342233
-0.363993
-0.387176
-0.410684
-0.434478
-0.454966
-0.477227
-0.490372
-0.506474
-0.511804
-0.297772
-0.294938
-0.297433
-0.304731
-0.316367
-0.331657
-0.34971
-0.36987
-0.390411
-0.412388
-0.430568
-0.451721
-0.465155
-0.47954
-0.484089
-0.299697
-0.295382
-0.294411
-0.296581
-0.302515
-0.312477
-0.325969
-0.342482
-0.36038
-0.380375
-0.398956
-0.417313
-0.430396
-0.441819
-0.445353
-0.298073
-0.293881
-0.290231
-0.287668
-0.288111
-0.292951
-0.302656
-0.316709
-0.333896
-0.351207
-0.367725
-0.380291
-0.388695
-0.392552
-0.390789
-0.480009
-0.439872
-0.372464
-0.276514
-0.157214
-0.0298045
0.0635203
0.110481
0.116883
0.104306
0.0865949
0.0702427
0.0570497
0.0466588
0.0384813
0.0321058
0.0270331
0.023015
0.0196253
0.0169517
0.01465
0.0128389
0.0113744
0.0100392
0.00919774
0.0081472
0.00752576
0.00696357
0.00611408
0.00588152
0.0054166
0.00453091
0.00419006
0.00402443
0.00323322
0.00201679
0.000549751
-0.000159256
-0.49789
-0.457283
-0.386766
-0.286902
-0.162467
-0.032067
0.0628883
0.110749
0.117757
0.105298
0.0876045
0.071248
0.0578537
0.0472736
0.0389718
0.0324892
0.0273538
0.0232385
0.0198318
0.0170697
0.0147667
0.0129195
0.0114203
0.0101268
0.00920127
0.00820284
0.00756393
0.0069476
0.00617565
0.00590427
0.00538829
0.00456307
0.00424544
0.00401585
0.00321062
0.00201462
0.000605355
-9.81808e-05
-0.526002
-0.483565
-0.415131
-0.317037
-0.192825
-0.0569388
0.04527
0.099432
0.11177
0.102669
0.0865182
0.0708017
0.0579978
0.0475712
0.0392583
0.0327366
0.027577
0.0234022
0.02001
0.0171701
0.0148855
0.0129991
0.0114726
0.0102171
0.00920972
0.00826273
0.00760376
0.00693746
0.00623806
0.00592826
0.00536509
0.00459673
0.00430067
0.00400857
0.00319156
0.00201587
0.000660378
-3.95629e-05
-0.531862
-0.502595
-0.438896
-0.346992
-0.228169
-0.0939206
0.0143291
0.0761721
0.096345
0.093656
0.0816011
0.0683323
0.056344
0.0467332
0.0388737
0.0325755
0.0275561
0.0234357
0.0201134
0.0172442
0.0149905
0.0130774
0.0115297
0.0103068
0.00922627
0.00832444
0.00764494
0.00693707
0.00629784
0.00595325
0.00535138
0.00463105
0.00435208
0.00400384
0.00317929
0.00202291
0.000712841
1.29369e-05
-0.518967
-0.503691
-0.451709
-0.370284
-0.263577
-0.134931
-0.0237868
0.0449805
0.0740551
0.0793116
0.0742354
0.0648263
0.0549262
0.0461005
0.038617
0.0324795
0.0275233
0.0234449
0.0201676
0.0172996
0.015071
0.0131479
0.0115853
0.010391
0.00924941
0.0083848
0.00768629
0.00694694
0.00635202
0.00597914
0.00534845
0.00466432
0.00439738
0.00400252
0.00317584
0.00203699
0.000760487
5.58472e-05
-0.481582
-0.483248
-0.445215
-0.373923
-0.280204
-0.169451
-0.0623081
0.0106387
0.0486998
0.0626126
0.0632463
0.0581791
0.0510569
0.0439885
0.0375836
0.0319816
0.0273322
0.0233982
0.0202063
0.0173732
0.0151534
0.0132388
0.0116496
0.010477
0.00928554
0.00844301
0.00772932
0.00696965
0.0063978
0.0060055
0.00535833
0.00469555
0.00443404
0.00400555
0.0031822
0.00205865
0.000801588
8.581e-05
-0.44034
-0.451291
-0.42986
-0.372063
-0.288882
-0.191065
-0.094267
-0.0185739
0.0272199
0.0484923
0.0556198
0.0546061
0.0495681
0.0428122
0.036964
0.0316392
0.027103
0.0232697
0.0201496
0.0173711
0.0151881
0.0132819
0.0117089
0.0105355
0.00932691
0.00849654
0.0077638
0.00700667
0.0064364
0.00602664
0.00538208
0.00472779
0.00446055
0.00400963
0.00320124
0.00209114
0.000833931
9.91316e-05
-0.387158
-0.396947
-0.384584
-0.34722
-0.286636
-0.210067
-0.12815
-0.0577361
-0.00486594
0.0265716
0.0414285
0.0457875
0.0442627
0.0406866
0.0355122
0.0309881
0.0269363
0.0232663
0.0202446
0.0174935
0.0153034
0.0134223
0.0117939
0.0106493
0.00937975
0.00855211
0.00782193
0.007051
0.00646474
0.00605906
0.0054152
0.00475217
0.00448206
0.00402091
0.00322711
0.00213068
0.000859149
9.38815e-05
-0.338465
-0.358646
-0.342258
-0.305716
-0.256077
-0.194589
-0.126684
-0.0637214
-0.014947
0.0158408
0.0327317
0.04004
0.0409345
0.0381569
0.0342658
0.0298549
0.0259658
0.0226853
0.0197823
0.0172763
0.0151412
0.013312
0.0118333
0.0105457
0.00949123
0.00855284
0.00778371
0.00719041
0.00645407
0.006025
0.00555033
0.0047951
0.00442985
0.00404597
0.00331257
0.00220801
0.000871111
5.95619e-05
-0.261947
-0.280788
-0.268645
-0.240675
-0.202611
-0.156936
-0.107526
-0.0613285
-0.0231437
0.00362048
0.0196589
0.0275464
0.0299933
0.029538
0.027617
0.0258056
0.0234332
0.0208464
0.0185642
0.0164018
0.0145746
0.0129204
0.0115714
0.0103635
0.00937956
0.00846915
0.00774538
0.00718068
0.00640568
0.00603413
0.00558731
0.00477501
0.00440575
0.00408639
0.00335394
0.00223955
0.000853829
2.59442e-05
-0.212249
-0.232268
-0.226747
-0.203807
-0.174406
-0.141255
-0.105216
-0.0683816
-0.0350572
-0.00945973
0.00735714
0.0174547
0.0229033
0.0250763
0.0251158
0.0233574
0.021261
0.0193415
0.0174339
0.015636
0.0139963
0.0125229
0.0113008
0.0101525
0.00925849
0.00838864
0.00767462
0.00715253
0.00638176
0.00601656
0.00559634
0.00477607
0.00439895
0.00410051
0.00336651
0.00225956
0.000846243
-2.83384e-06
-0.169727
-0.184074
-0.17979
-0.163812
-0.14201
-0.116639
-0.0888269
-0.0605532
-0.0347174
-0.0139101
0.000959181
0.0106845
0.0163528
0.0190661
0.0197223
0.0193908
0.018556
0.0173448
0.0160009
0.0146004
0.0132681
0.0119985
0.010952
0.0098814
0.0091057
0.00827722
0.00757995
0.00713162
0.00634207
0.00598695
0.00562321
0.00478466
0.00437823
0.00411523
0.00339768
0.0023
0.000846363
-3.07571e-05
-0.133958
-0.146566
-0.146256
-0.135438
-0.119302
-0.100765
-0.0808719
-0.0604016
-0.0404305
-0.0226794
-0.00860541
0.00159362
0.0084372
0.0127014
0.0150867
0.0160318
0.0158901
0.015317
0.0144828
0.0134862
0.012447
0.0113971
0.0105345
0.00956543
0.00890976
0.00812755
0.00747118
0.00708951
0.00628288
0.00596622
0.00564386
0.00477575
0.00436726
0.00414425
0.00343735
0.00234074
0.000849316
-5.43551e-05
-0.106251
-0.116525
-0.117025
-0.109421
-0.0977486
-0.0841123
-0.0691762
-0.0533883
-0.0375238
-0.0230405
-0.0110928
-0.00191445
0.00463418
0.00906445
0.0117193
0.012795
0.0131536
0.0131965
0.0128684
0.0122695
0.0115277
0.0107063
0.0100432
0.00919418
0.00866033
0.00794338
0.00733634
0.00702218
0.00621887
0.00593844
0.00564548
0.00476591
0.00437046
0.00417158
0.00346647
0.00237667
0.000859
-7.17384e-05
-0.0838263
-0.0919292
-0.0931391
-0.0883817
-0.0802975
-0.0704724
-0.0597049
-0.0484271
-0.0369277
-0.0259447
-0.0161758
-0.00791291
-0.00150975
0.00327643
0.00677566
0.00921621
0.0103709
0.010925
0.0111077
0.0109206
0.0105016
0.00992558
0.00947701
0.00876441
0.00836061
0.0077237
0.00717311
0.00693593
0.0061401
0.00589473
0.00564011
0.00475482
0.00437271
0.00419289
0.00349049
0.00241484
0.000878071
-8.22312e-05
-0.0656197
-0.0721596
-0.0737226
-0.0707826
-0.0652101
-0.0582539
-0.0504891
-0.0421718
-0.033372
-0.0246164
-0.0164575
-0.00922622
-0.00342257
0.00100557
0.00445919
0.0067457
0.00800756
0.00890329
0.00944258
0.00960085
0.00945237
0.00909971
0.00885405
0.00828527
0.00801472
0.00746787
0.00698082
0.0068239
0.00604104
0.0058399
0.00562792
0.00473334
0.00437245
0.00421593
0.00351454
0.00245484
0.000905089
-8.66867e-05
-0.0510706
-0.0562931
-0.0578977
-0.0561653
-0.0524375
-0.0476083
-0.0421134
-0.0362028
-0.0299041
-0.0235697
-0.0174284
-0.0116448
-0.00663798
-0.00241952
0.00121377
0.00394771
0.00559498
0.00679126
0.00770473
0.00819937
0.00833762
0.00821451
0.0081757
0.00776064
0.00762541
0.00717737
0.00675775
0.00668578
0.00592837
0.0057719
0.00560462
0.00470638
0.00437229
0.00424024
0.00353891
0.00249541
0.000937478
-8.52138e-05
-0.0394671
-0.0435878
-0.0451036
-0.0441682
-0.041722
-0.0384031
-0.0345717
-0.0304218
-0.0258507
-0.0210883
-0.016373
-0.0115872
-0.00738371
-0.00378637
-0.000481081
0.002181
0.00382528
0.00510465
0.00619128
0.006914
0.00726019
0.00731458
0.0074614
0.00719142
0.00718684
0.00684573
0.00649338
0.00651427
0.00579461
0.00567881
0.00556332
0.0046718
0.00436517
0.00425675
0.00355624
0.00253565
0.000973437
-8.79605e-05
-0.0299804
-0.0332233
-0.0345906
-0.0341696
-0.0326349
-0.0304292
-0.0278329
-0.0249995
-0.0217722
-0.018354
-0.0148879
-0.0112204
-0.0078674
-0.00491754
-0.0019766
0.000588559
0.00226102
0.00360459
0.00482528
0.00574393
0.00626941
0.00650424
0.00679436
0.00666241
0.00677953
0.00653266
0.00627264
0.00635593
0.00567819
0.00562126
0.00553652
0.00465193
0.00438732
0.00429592
0.00358185
0.00258306
0.00103493
-5.57146e-05
-0.0225618
-0.0250984
-0.0262797
-0.0261739
-0.0252632
-0.0238231
-0.0220813
-0.0201883
-0.0179781
-0.0156046
-0.0131325
-0.0103456
-0.00771877
-0.00535901
-0.00284066
-0.000506746
0.00104933
0.00231651
0.003554
0.00454272
0.00520367
0.00554446
0.00598448
0.00598152
0.00619778
0.0060755
0.00585478
0.00606423
0.00543856
0.00539457
0.00541455
0.00454768
0.0042838
0.00424786
0.00356875
0.00257735
0.00101324
-0.000100805
-0.0162632
-0.0182599
-0.0192566
-0.0193126
-0.0187816
-0.0178304
-0.0166664
-0.0154299
-0.0139267
-0.0122981
-0.0105875
-0.00853332
-0.00657666
-0.00480905
-0.00276774
-0.000750562
0.000603039
0.00175164
0.00292429
0.00395128
0.00464815
0.0050773
0.00556877
0.00564426
0.00596291
0.00589794
0.00579099
0.00600799
0.00544853
0.00547747
0.00548261
0.00465473
0.00444159
0.00440088
0.00368441
0.00273762
0.00120453
1.91204e-05
-0.0117224
-0.0132703
-0.0140904
-0.0142484
-0.0140141
-0.013456
-0.0127393
-0.0119905
-0.0110084
-0.00994496
-0.00882927
-0.00735809
-0.00594166
-0.00466816
-0.00303265
-0.00131889
-0.000169812
0.000804652
0.00188898
0.00285974
0.00359922
0.00406233
0.00464959
0.0048247
0.00518926
0.0052427
0.00515012
0.00550635
0.00499607
0.00502586
0.00516251
0.00435349
0.00413934
0.00416058
0.00350785
0.00254791
0.00101406
-0.000124053
-0.00710042
-0.00830049
-0.00896039
-0.0091561
-0.00909205
-0.00876168
-0.00831466
-0.00787596
-0.00724157
-0.00656554
-0.00586754
-0.00483256
-0.00386068
-0.00302474
-0.00179368
-0.00040948
0.000472559
0.00124407
0.00215777
0.00304933
0.00370592
0.00415014
0.00468811
0.0048717
0.0052849
0.00536343
0.00535193
0.00567537
0.00525398
0.00531685
0.00544748
0.0047002
0.00450169
0.00454109
0.00383068
0.00292879
0.0014313
0.000134452
-0.00461165
-0.00558817
-0.00613616
-0.0063332
-0.00635814
-0.00617676
-0.00592424
-0.00571908
-0.00535586
-0.0049807
-0.00459343
-0.00388551
-0.00325935
-0.00276415
-0.00182477
-0.000698687
-3.33867e-05
0.000528424
0.00130531
0.00207329
0.00269997
0.00312776
0.00370736
0.00395759
0.00435737
0.00453143
0.00452302
0.00495444
0.00458088
0.00463995
0.0048758
0.00416682
0.00398324
0.0040248
0.00339614
0.00253778
0.00109695
-9.88791e-05
-0.00093986
-0.00165692
-0.0020889
-0.00231014
-0.00245404
-0.00242254
-0.00232665
-0.00228161
-0.00206972
-0.00185936
-0.00167342
-0.00118694
-0.00080279
-0.000608231
3.00305e-05
0.000906373
0.00137421
0.00173226
0.00232969
0.00295286
0.00345007
0.00377021
0.00422875
0.00444529
0.00480714
0.00502245
0.00496963
0.00541062
0.00509355
0.00511081
0.0054457
0.00471155
0.00452971
0.0046853
0.00391684
0.00309147
0.00173532
0.000295926
0.00035384
-0.000273168
-0.000636258
-0.000837316
-0.000994807
-0.000995485
-0.000962781
-0.000995601
-0.000907259
-0.000882423
-0.000881112
-0.000608287
-0.000435615
-0.00037281
0.000130393
0.000761389
0.0010236
0.00122158
0.00171085
0.00216912
0.00260487
0.00289014
0.00335048
0.00361683
0.0038859
0.00420774
0.00411853
0.00460522
0.00437537
0.00432772
0.00472874
0.00412309
0.00393022
0.00397552
0.00331444
0.00275538
0.00156674
0.0001307
0.00309002
0.00262884
0.00231239
0.00208389
0.00186211
0.00175298
0.00167804
0.00156899
0.00160028
0.00159116
0.00155473
0.00171556
0.00175709
0.0016349
0.00196022
0.00242365
0.00264105
0.00268733
0.00305863
0.00331514
0.00366389
0.00377063
0.00415808
0.00432785
0.00455409
0.00493441
0.00464048
0.00532105
0.00492276
0.00489577
0.00546041
0.00463984
0.00450817
0.0046917
0.00392377
0.0033996
0.00223253
0.000500673
0.00391416
0.00357703
0.00331629
0.00312204
0.00294439
0.00276722
0.00260558
0.00241103
0.00225671
0.00216693
0.00208982
0.00208439
0.00218512
0.002129
0.00213624
0.00225845
0.00253789
0.00260226
0.00286787
0.0029632
0.00330709
0.00335825
0.00369956
0.00383751
0.00395311
0.00446716
0.00405044
0.00483632
0.00452316
0.00434927
0.00519398
0.00449948
0.00412893
0.0045214
0.00407875
0.00357065
0.00259527
0.000806163
0.0053702
0.00510159
0.00484849
0.00462828
0.00445255
0.00428038
0.00412737
0.00400501
0.00385234
0.00371375
0.00361347
0.00348941
0.00347209
0.00353505
0.00352712
0.00345622
0.00355144
0.00365238
0.00379207
0.00385112
0.00402865
0.00412943
0.0042689
0.00444568
0.00446948
0.00479334
0.00467672
0.00492651
0.00498038
0.00477818
0.00513192
0.00486592
0.00453257
0.00461483
0.00402396
0.00330175
0.00260104
0.00102712
0.00599159
0.00577885
0.00557113
0.00537193
0.00518117
0.00499039
0.00480022
0.00461728
0.0044509
0.00430467
0.00417909
0.00406577
0.00398027
0.00389029
0.00381447
0.00376384
0.0037879
0.00379572
0.00383897
0.00386517
0.0039505
0.0040306
0.00410502
0.00425661
0.0042751
0.00450486
0.00447971
0.00463813
0.00477321
0.00460337
0.00488044
0.00473835
0.00434719
0.00439494
0.00387825
0.00282602
0.00188068
0.000730212
0.00640517
0.00620221
0.00600107
0.00580459
0.00561741
0.00543575
0.00526148
0.00509448
0.00491916
0.00474705
0.0045956
0.00445105
0.0043409
0.00427815
0.00421272
0.004123
0.00407917
0.00408062
0.00410467
0.00412543
0.00416898
0.00423523
0.00429543
0.00439817
0.00445097
0.00457155
0.00463627
0.00469046
0.00481883
0.00475092
0.00479164
0.00474969
0.00440529
0.00418447
0.00376683
0.00285944
0.00185143
0.000714274
-0.118128
-0.135974
-0.155174
-0.176405
-0.20011
-0.226717
-0.256587
-0.292131
-0.105227
-0.11971
-0.134489
-0.150532
-0.167143
-0.184992
-0.202753
-0.224965
-0.0903818
-0.100664
-0.110852
-0.121994
-0.133676
-0.14626
-0.16075
-0.179849
-0.0775042
-0.0851084
-0.0928096
-0.10128
-0.110876
-0.12134
-0.133507
-0.147613
-0.0656554
-0.0714176
-0.0774213
-0.0839993
-0.0913557
-0.0988479
-0.107066
-0.117125
-0.0553169
-0.0595374
-0.0638758
-0.0684725
-0.0735277
-0.0787915
-0.0850015
-0.0931324
-0.0460166
-0.0489072
-0.0518883
-0.0551691
-0.0589495
-0.0630855
-0.067956
-0.0741399
-0.0378638
-0.0398362
-0.0419166
-0.044322
-0.0471318
-0.0501688
-0.0536705
-0.058274
-0.0307349
-0.0320676
-0.0334716
-0.0351338
-0.0370908
-0.0392442
-0.0418368
-0.0454172
-0.0245116
-0.0253822
-0.0262923
-0.027421
-0.0288082
-0.0304052
-0.0323869
-0.0351591
-0.0190831
-0.0196575
-0.0202467
-0.0210166
-0.0219976
-0.0231482
-0.0246032
-0.0267018
-0.0144605
-0.0148365
-0.0152306
-0.0157799
-0.0164937
-0.0173376
-0.0184281
-0.0200454
-0.0103833
-0.010651
-0.0109049
-0.0112728
-0.0117539
-0.0123212
-0.0130946
-0.0143193
-0.00718662
-0.0073172
-0.00746616
-0.00775055
-0.0081546
-0.00863259
-0.00926182
-0.0102256
-0.00390786
-0.00405471
-0.0041971
-0.00442741
-0.00470647
-0.00498097
-0.0053407
-0.00598887
-0.00176186
-0.00180186
-0.00186691
-0.0020532
-0.00232463
-0.00263015
-0.00303547
-0.00365966
0.000854344
0.000760081
0.000657531
0.000475322
0.000276265
0.000131691
-1.96761e-05
-0.000331488
0.00237552
0.00234172
0.00226984
0.00208223
0.00184015
0.00161575
0.00135757
0.000962936
0.00444329
0.00434523
0.00423096
0.004052
0.00387422
0.00375693
0.00365588
0.00346284
0.00562926
0.00546366
0.00530001
0.00510631
0.00489243
0.00467921
0.00446585
0.00422764
0.00661784
0.00645314
0.00630035
0.00616321
0.00603006
0.00589011
0.00574318
0.00558666
0.00714144
0.00699125
0.00684692
0.00670787
0.00657122
0.00643601
0.00630166
0.00616607
0.00750735
0.00737257
0.00723932
0.00710891
0.00697925
0.00684744
0.00671286
0.00657706
0.0596911
0.0630536
0.0658527
0.0674235
0.0672026
0.0651253
0.0610131
0.0542687
0.043901
0.0285341
0.00627833
-0.0253404
-0.0702839
-0.131973
-0.183665
0.03621
0.0371512
0.036422
0.0342707
0.0305836
0.0250369
0.017114
0.00602923
-0.00928419
-0.0302436
-0.0588399
-0.0976461
-0.149614
-0.220218
-0.270788
0.0127572
0.0112911
0.0071882
0.00177702
-0.00487551
-0.0134209
-0.0246197
-0.0393469
-0.0587282
-0.0841825
-0.117608
-0.162185
-0.219576
-0.292185
-0.34059
-0.0117003
-0.0156111
-0.0221077
-0.029676
-0.0385316
-0.0495125
-0.063364
-0.0808972
-0.103308
-0.132097
-0.168645
-0.216861
-0.276958
-0.347073
-0.391539
-0.0367033
-0.0431057
-0.0509502
-0.0596834
-0.070047
-0.0828253
-0.0986062
-0.118019
-0.142321
-0.172907
-0.211568
-0.260563
-0.319915
-0.384609
-0.423372
-0.0615373
-0.069791
-0.0782476
-0.0878186
-0.0992867
-0.113212
-0.130108
-0.150638
-0.175759
-0.20679
-0.245364
-0.292787
-0.34838
-0.404698
-0.437477
-0.0864441
-0.0945403
-0.103492
-0.113845
-0.12609
-0.140626
-0.157924
-0.178591
-0.203421
-0.233517
-0.270123
-0.313861
-0.362778
-0.408203
-0.436267
-0.109027
-0.11757
-0.127092
-0.138029
-0.15064
-0.16523
-0.182217
-0.202144
-0.225671
-0.253637
-0.286809
-0.324973
-0.364659
-0.397893
-0.422498
0.204281
0.219228
0.23581
0.254343
0.274806
0.297063
0.321007
0.346578
0.373674
0.402021
0.431034
0.459593
0.485782
0.505988
0.522607
0.199152
0.212929
0.228413
0.24595
0.26537
0.286392
0.308857
0.332695
0.357785
0.383799
0.41006
0.435341
0.457568
0.473234
0.485475
0.190047
0.201953
0.215811
0.231891
0.249747
0.268885
0.289049
0.310134
0.331976
0.354168
0.375914
0.395828
0.411576
0.419787
0.425201
0.176977
0.186541
0.198417
0.212604
0.228328
0.244923
0.262068
0.279598
0.297248
0.314465
0.33027
0.343073
0.35021
0.348272
0.345018
0.160025
0.167096
0.17697
0.189116
0.202275
0.215664
0.229006
0.242148
0.254736
0.26604
0.274848
0.279323
0.276458
0.262682
0.248684
0.139539
0.1438
0.151641
0.16171
0.17216
0.182098
0.191279
0.199547
0.206461
0.211136
0.212158
0.207438
0.193635
0.167078
0.141224
0.116124
0.118139
0.124083
0.131561
0.138691
0.14476
0.149572
0.15285
0.153948
0.15179
0.144778
0.130613
0.105658
0.0663299
0.0290687
0.0892173
0.0904235
0.0954632
0.100293
0.103695
0.105514
0.105715
0.103871
0.0991146
0.0901725
0.0752745
0.0519471
0.0163176
-0.0349463
-0.0815251
0.0266765
0.0267457
0.0271142
0.0286765
0.0288598
0.031462
0.0312322
0.036113
0.035655
0.0410254
0.0425475
0.0478366
0.0516566
0.0583872
0.0642234
0.0728129
0.0817428
0.0934154
0.106032
0.121658
0.138982
0.159798
0.183295
0.0266311
0.0267651
0.0271579
0.0286659
0.02879
0.0314296
0.0312585
0.0360659
0.0357105
0.040979
0.0426525
0.0478616
0.0518577
0.0584776
0.064383
0.0728931
0.0817554
0.0931339
0.105535
0.120819
0.137385
0.157557
0.179676
0.0265854
0.0267777
0.027199
0.0286469
0.0287309
0.0313686
0.0313003
0.0359782
0.0357885
0.0409011
0.0427572
0.0478518
0.0520412
0.058533
0.06451
0.0728465
0.081525
0.0921939
0.104375
0.119167
0.13454
0.153556
0.17326
0.026541
0.0267828
0.0272343
0.0286204
0.0286842
0.0312879
0.0313541
0.0358538
0.0358772
0.0407935
0.0428598
0.0478437
0.0522012
0.0585297
0.0646006
0.0729303
0.0812509
0.0924338
0.103155
0.117191
0.130753
0.147928
0.163936
0.0264994
0.0267795
0.0272602
0.0285886
0.028648
0.0311935
0.0314333
0.0357038
0.0359758
0.0406619
0.042947
0.047849
0.0523975
0.0585406
0.064547
0.07255
0.0797922
0.0908625
0.100797
0.113698
0.125163
0.139995
0.151352
0.0264617
0.0267669
0.0272748
0.028553
0.0286259
0.0310956
0.0314815
0.0355291
0.0360891
0.0405412
0.0430249
0.047847
0.0524859
0.0586439
0.0647887
0.0730118
0.0807428
0.0905736
0.098973
0.110555
0.119053
0.130665
0.136122
0.0264284
0.0267422
0.0272791
0.0285235
0.028595
0.0309901
0.0315949
0.0353615
0.0362151
0.0404723
0.0432128
0.0480104
0.0526052
0.0584463
0.0642254
0.0718893
0.0788623
0.0876822
0.0952051
0.104794
0.110876
0.118593
0.118022
0.0264026
0.0267064
0.0272536
0.0284926
0.0286082
0.0309136
0.0316108
0.0350971
0.0362709
0.0403224
0.0433297
0.0483533
0.0529746
0.0591812
0.0650186
0.072673
0.0792218
0.0874887
0.0929365
0.100599
0.102361
0.105303
0.0968923
0.0263693
0.0266642
0.027263
0.0284327
0.0285182
0.0307436
0.0317918
0.0350119
0.0365786
0.0399622
0.0430656
0.047604
0.0519194
0.0574268
0.0627339
0.0691772
0.0747391
0.0808289
0.0851299
0.0888016
0.0879898
0.0835648
0.070269
0.0263366
0.0266086
0.0271435
0.0283227
0.0284717
0.0305007
0.0317004
0.0343128
0.0361766
0.0389127
0.0423126
0.0463141
0.0505782
0.05512
0.060046
0.0648157
0.0691447
0.0726053
0.0748805
0.0743438
0.0710803
0.0630105
0.0518357
0.0262926
0.0265211
0.0270304
0.0282077
0.0283493
0.0301438
0.0316474
0.0336525
0.0359649
0.0379502
0.0415533
0.0449324
0.0488123
0.0523585
0.056499
0.0598145
0.062635
0.0638589
0.0639651
0.0610494
0.0559004
0.0475395
0.0372416
0.026236
0.0264143
0.0268925
0.0280633
0.0282374
0.0297729
0.031441
0.0329195
0.0355235
0.0368175
0.0404125
0.043347
0.0465711
0.0493693
0.0524981
0.0547138
0.0557844
0.0552725
0.0535955
0.0493229
0.0430701
0.0347573
0.025181
0.0261641
0.0262842
0.0267247
0.0278946
0.028009
0.0293225
0.031196
0.0321624
0.0348909
0.0356726
0.0389857
0.0415978
0.0439264
0.0460401
0.0480374
0.0487678
0.0486728
0.0469547
0.0440474
0.0390129
0.0323074
0.0242015
0.0153776
0.0260732
0.0261347
0.0265188
0.0276856
0.0278652
0.0288544
0.0307952
0.0313631
0.0340307
0.0344217
0.0372185
0.039594
0.0409777
0.0423258
0.0434073
0.0430973
0.0418025
0.0392454
0.0356402
0.0302763
0.0235787
0.015874
0.00758391
0.0259595
0.0259601
0.0262745
0.027433
0.0275565
0.0283346
0.0302403
0.0305145
0.0329573
0.0330519
0.0352082
0.0373323
0.0378396
0.0383241
0.0387187
0.0374939
0.0352938
0.0322813
0.0284301
0.0230536
0.0166159
0.00954471
0.00195029
0.0258171
0.0257595
0.0259894
0.0271249
0.0271782
0.0277694
0.029538
0.0296086
0.0316954
0.0315376
0.0329973
0.0347924
0.034584
0.0342145
0.0340795
0.0322745
0.029385
0.0261635
0.022399
0.017254
0.011198
0.00485905
-0.00187292
0.0256436
0.0255302
0.0256574
0.0267545
0.0267317
0.0271558
0.0286993
0.0286139
0.0302772
0.0298741
0.0306678
0.0320578
0.0312954
0.0301935
0.029622
0.0274799
0.0241781
0.0209258
0.0174672
0.0127478
0.00719578
0.0016532
-0.00409468
0.0254362
0.0252678
0.0252764
0.0263163
0.0262085
0.0264858
0.0277494
0.0275239
0.0287512
0.0280788
0.0282711
0.0292333
0.0280458
0.0263947
0.0254767
0.0231206
0.0197391
0.0166056
0.0135568
0.0093883
0.00444821
-0.000284777
-0.00505891
0.0251942
0.024968
0.0248424
0.025808
0.0256068
0.0257507
0.0267088
0.0263425
0.0271741
0.0262171
0.0258836
0.0264245
0.0249095
0.0229224
0.0218539
0.0197389
0.0162148
0.0132529
0.0106407
0.00706259
0.00278109
-0.00116944
-0.00502429
0.0249199
0.0246294
0.0243467
0.0252279
0.0249664
0.024964
0.0256075
0.0250747
0.0255449
0.0243286
0.0235904
0.0237797
0.022004
0.0197988
0.0185908
0.0164392
0.013199
0.0105895
0.00845201
0.00546417
0.00184236
-0.00137985
-0.00445782
0.0246149
0.024248
0.0237931
0.0245767
0.0242871
0.0241302
0.0244981
0.0238058
0.0239633
0.0224559
0.021371
0.0212849
0.0193754
0.017123
0.0158958
0.0138634
0.0109928
0.00880039
0.00713864
0.00469671
0.00169197
-0.000853951
-0.0031944
0.0242974
0.023815
0.0231595
0.0238939
0.0235155
0.0232261
0.0233037
0.0225595
0.0225342
0.0208498
0.0194911
0.0191302
0.0170822
0.0148147
0.0136681
0.0118597
0.0092321
0.00740086
0.00612551
0.00413386
0.0016388
-0.000377232
-0.00217893
0.023976
0.0233539
0.022443
0.0231801
0.0229478
0.0223682
0.0221808
0.0213177
0.0211044
0.0192842
0.0178101
0.0173675
0.015365
0.0132374
0.0121886
0.010548
0.0083526
0.00692533
0.00603496
0.00445037
0.0024249
0.000902075
-0.000405847
0.0236301
0.0227884
0.0217199
0.0225211
0.0221785
0.0214465
0.0211284
0.0203821
0.0200961
0.0180834
0.0164292
0.0157782
0.0137226
0.011702
0.0108139
0.00941138
0.0074222
0.00631577
0.00569347
0.0044057
0.00274791
0.00159996
0.00065421
0.0234521
0.0222393
0.0208689
0.021911
0.0216286
0.020525
0.0200014
0.0194919
0.019259
0.0173156
0.015721
0.0150839
0.0132029
0.0113813
0.0105428
0.00924388
0.0076902
0.00691484
0.00654302
0.00552501
0.00419881
0.00336642
0.00270329
0.0230113
0.0215876
0.0203201
0.0214231
0.021137
0.0198277
0.0193494
0.0189452
0.0186817
0.0167543
0.0151653
0.0143674
0.0124671
0.0108316
0.0101523
0.00899889
0.00765435
0.00711995
0.00687823
0.00600543
0.0049195
0.00433588
0.00389193
0.0229545
0.0210284
0.0197675
0.0210044
0.0203337
0.0190996
0.0187354
0.0187634
0.0184419
0.0167895
0.015579
0.0148173
0.0130999
0.0117104
0.0110684
0.0101216
0.0090183
0.00862077
0.00834303
0.00754548
0.00667316
0.00622693
0.0058365
0.0224743
0.0207107
0.0195577
0.0206274
0.020316
0.0189191
0.0188099
0.019045
0.0185502
0.0172538
0.0161637
0.0155577
0.0146674
0.0135576
0.0126611
0.0118458
0.0111047
0.0103321
0.00974029
0.00907971
0.00836965
0.00777047
0.0072313
0.0215184
0.0206511
0.0193896
0.0196037
0.019665
0.0186038
0.0178811
0.0177906
0.0174919
0.016555
0.015389
0.0145462
0.0139183
0.0131242
0.0122944
0.0115863
0.0108668
0.010338
0.00989099
0.00953529
0.00915529
0.00873364
0.00834559
0.0212616
0.020472
0.0191634
0.0192456
0.0193998
0.0184934
0.0176535
0.0175398
0.0173472
0.0164696
0.0153863
0.0145278
0.0138594
0.0132103
0.0125275
0.0118531
0.0112405
0.0107176
0.0102568
0.00982782
0.00941403
0.00902529
0.00866452
0.0206866
0.0203413
0.019475
0.0189139
0.0187754
0.0182768
0.0175613
0.0170568
0.0166514
0.0160428
0.015205
0.0143639
0.0136695
0.0130518
0.0124399
0.0118633
0.0113375
0.0108513
0.010417
0.0100452
0.00971785
0.00941159
0.00912638
0.0540841
0.0337269
0.00972913
-0.0133325
-0.0356445
-0.0578369
-0.0794229
-0.0995218
0.0403217
0.0206188
-0.0038481
-0.0252302
-0.0434084
-0.05994
-0.0755678
-0.0905647
0.0280235
0.0123733
-0.00879813
-0.0277194
-0.0419071
-0.0542274
-0.0666459
-0.0790818
0.0168511
0.00380351
-0.014324
-0.0307794
-0.0424756
-0.0516746
-0.0605424
-0.0692825
0.00798928
-0.00256027
-0.0172832
-0.0306307
-0.0396966
-0.0463743
-0.0528594
-0.0594186
0.000735825
-0.00766937
-0.0190185
-0.0291919
-0.0362005
-0.0413035
-0.0461025
-0.050801
-0.00472116
-0.0116645
-0.0195439
-0.0264906
-0.031701
-0.0357147
-0.039371
-0.0428187
-0.00802296
-0.0136501
-0.0188986
-0.0233919
-0.0271242
-0.0302769
-0.0331081
-0.0356301
-0.00948414
-0.0139496
-0.0173797
-0.0201662
-0.0227174
-0.0251068
-0.0272924
-0.0291645
-0.00963242
-0.0131317
-0.0153298
-0.0169629
-0.0186204
-0.0203645
-0.0220279
-0.023418
-0.00876666
-0.0114675
-0.0128665
-0.0137584
-0.014769
-0.0159913
-0.0172437
-0.0182983
-0.00752997
-0.00963322
-0.0104854
-0.0108791
-0.0114288
-0.0122426
-0.0131485
-0.0139149
-0.00559018
-0.00720315
-0.00776387
-0.00788016
-0.00810317
-0.00861094
-0.00929817
-0.009938
-0.00409389
-0.00535023
-0.00567499
-0.0056175
-0.00566409
-0.00597898
-0.00646798
-0.00691326
-0.00189379
-0.00289514
-0.00314644
-0.00297113
-0.00280606
-0.00289459
-0.00323137
-0.00362874
-0.000500537
-0.00127492
-0.00142342
-0.00122852
-0.00104553
-0.00108306
-0.00133117
-0.00160787
0.00178357
0.00113539
0.00100054
0.00122286
0.00147927
0.00153054
0.00133719
0.00105318
0.0031724
0.00263729
0.00250574
0.00267171
0.00287601
0.00290656
0.0027309
0.00250267
0.00522304
0.0047985
0.00471914
0.00488312
0.00506312
0.00507144
0.00487931
0.00462208
0.00674219
0.0064368
0.00631151
0.00629192
0.00628467
0.00620827
0.00604094
0.0058268
0.00803718
0.00778345
0.00753869
0.00732333
0.00715432
0.00702468
0.00690737
0.00677476
0.00838795
0.00819837
0.00803912
0.00789037
0.00774415
0.00759753
0.00744795
0.00729493
0.00889618
0.00870236
0.0084982
0.00829615
0.00810611
0.00793482
0.00778253
0.00764286
-0.312554
-0.319066
-0.330379
-0.345963
-0.366128
-0.391211
-0.417975
-0.440676
-0.309998
-0.316102
-0.325787
-0.338866
-0.35538
-0.375198
-0.396939
-0.415886
-0.30472
-0.31083
-0.319709
-0.330954
-0.344916
-0.360495
-0.374189
-0.381839
-0.299226
-0.304971
-0.312769
-0.321682
-0.331274
-0.339798
-0.344109
-0.341243
-0.295851
-0.300106
-0.305476
-0.310432
-0.314181
-0.315399
-0.312093
-0.302206
-0.295844
-0.297005
-0.298279
-0.298143
-0.296112
-0.291407
-0.282648
-0.26815
-0.29922
-0.295658
-0.291527
-0.285936
-0.278841
-0.269576
-0.25693
-0.23935