/*--------------------------------*- C++ -*----------------------------------*\
| =========                 |                                                 |
| \\      /  F ield         | OpenFOAM: The Open Source CFD Toolbox           |
|  \\    /   O peration     | Version:  2312                                  |
|   \\  /    A nd           | Website:  www.openfoam.com                      |
|    \\/     M anipulation  |                                                 |
\*---------------------------------------------------------------------------*/
FoamFile
{
    version     2.0;
    format      ascii;
    arch        "LSB;label=32;scalar=64";
    class       volVectorField;
    location    "16";
    object      U;
}
// * * * * * * * * * * * * * * * * * * * * * * * * * * * * * * * * * * * * * //

dimensions      [0 1 -1 0 0 0 0];

internalField   nonuniform List<vector> 
5478
(
(-0.0203286 0.0149104 -6.45048e-20)
(-0.0472484 0.0480941 0)
(-0.0440966 0.0774319 9.66792e-20)
(-0.00944877 0.096724 -1.69124e-19)
(0.0582192 0.107346 1.11257e-19)
(0.161195 0.114392 -3.16186e-20)
(0.299063 0.122695 -5.88524e-20)
(0.464143 0.134561 0)
(0.645634 0.148679 0)
(0.828279 0.164767 9.57441e-20)
(0.996516 0.173525 -3.92552e-20)
(1.14588 0.188158 -7.78127e-20)
(1.25268 0.170402 -3.28577e-20)
(1.32704 0.182236 0)
(1.36698 0.121303 1.00448e-19)
(-0.0280221 0.0133702 1.28872e-19)
(-0.0512583 0.0284367 0)
(-0.0337291 0.0393126 0)
(0.033494 0.0503222 -8.38504e-20)
(0.156624 0.0651954 1.10754e-19)
(0.33053 0.087893 3.26083e-20)
(0.535817 0.118625 -5.89101e-20)
(0.747097 0.152801 5.22282e-20)
(0.942274 0.186114 1.44157e-19)
(1.10261 0.209294 -1.28567e-19)
(1.22267 0.225619 3.80424e-21)
(1.29318 0.220611 0)
(1.32129 0.211276 3.27951e-20)
(1.31831 0.185087 0)
(1.2836 0.155039 0)
(-0.0360717 0.0150605 -2.89231e-22)
(-0.0427624 0.0213331 -5.92982e-20)
(0.0166016 0.0257002 2.50694e-22)
(0.153451 0.0410573 0)
(0.360115 0.0731872 -3.75943e-20)
(0.600208 0.118683 3.26706e-20)
(0.831539 0.167804 2.85886e-20)
(1.02414 0.21102 0)
(1.16177 0.239304 -4.68102e-20)
(1.24387 0.252515 4.20292e-20)
(1.27623 0.245502 3.74267e-20)
(1.2738 0.231433 0)
(1.25774 0.204368 0)
(1.23616 0.187576 -9.05098e-20)
(1.22771 0.161285 8.05391e-20)
(-0.038412 0.0144865 -6.87861e-20)
(-0.01126 0.0168958 5.84908e-20)
(0.119845 0.0280112 -5.04512e-20)
(0.350738 0.0647262 4.46812e-20)
(0.626187 0.122236 7.58136e-20)
(0.877987 0.182799 -6.54054e-20)
(1.06645 0.231488 -2.85628e-20)
(1.18139 0.2596 2.4689e-20)
(1.23394 0.268438 -2.25398e-20)
(1.24464 0.25952 0)
(1.23691 0.245987 0)
(1.23006 0.226464 -5.49948e-20)
(1.22817 0.214321 7.3342e-20)
(1.23072 0.199365 -4.20689e-20)
(1.23742 0.184134 0)
(-0.0309315 0.0103892 3.47992e-20)
(0.0539941 0.0123067 2.94059e-20)
(0.284555 0.0471622 -1.05906e-19)
(0.596868 0.117033 1.33911e-21)
(0.880209 0.191377 -3.7585e-22)
(1.07595 0.246856 -7.11648e-22)
(1.1806 0.275681 2.75654e-20)
(1.21995 0.282673 2.42475e-20)
(1.22606 0.27544 1.90015e-20)
(1.22364 0.264961 -1.37497e-21)
(1.22344 0.252027 -4.46407e-20)
(1.22304 0.240591 0)
(1.2183 0.226929 2.28383e-20)
(1.20997 0.210059 -1.84023e-20)
(1.18966 0.194978 3.18628e-20)
(-0.0105233 0.00464794 -7.49661e-20)
(0.163451 0.0158638 8.13103e-20)
(0.4987 0.0929297 -2.82912e-20)
(0.8318 0.188174 2.19105e-20)
(1.05726 0.257587 -4.0241e-20)
(1.17102 0.292126 -3.17463e-20)
(1.21206 0.301082 5.25791e-22)
(1.22027 0.296457 0)
(1.21896 0.287771 3.74122e-20)
(1.21485 0.276002 -3.32699e-20)
(1.20695 0.263483 1.42691e-20)
(1.1964 0.248107 0)
(1.18685 0.233911 9.21052e-21)
(1.17773 0.218248 -1.73946e-20)
(1.17923 0.208536 0)
(0.0276246 0.000649551 -9.34596e-21)
(0.318491 0.0423867 8.56125e-22)
(0.714981 0.162903 1.35473e-20)
(1.00358 0.260129 2.37265e-20)
(1.15149 0.309587 -1.89728e-20)
(1.20634 0.324776 3.22814e-20)
(1.21753 0.32251 -7.31129e-21)
(1.2128 0.313482 0)
(1.20277 0.300762 -2.16979e-20)
(1.19167 0.287091 9.97953e-22)
(1.18281 0.272542 1.87709e-20)
(1.17721 0.259254 0)
(1.17198 0.246244 -1.33053e-20)
(1.16856 0.231829 0)
(1.15623 0.22229 8.95171e-21)
(0.0873524 0.00491669 -1.04986e-20)
(0.496737 0.100898 0)
(0.88844 0.242608 1.48027e-20)
(1.10776 0.324423 0)
(1.19399 0.353286 0)
(1.21266 0.354372 0)
(1.20588 0.34423 -6.43629e-21)
(1.19312 0.33008 0)
(1.18169 0.315411 4.31533e-21)
(1.17302 0.300495 0)
(1.16518 0.286089 -5.90279e-21)
(1.15627 0.271038 0)
(1.14769 0.256006 4.08967e-21)
(1.13816 0.241145 0)
(1.13463 0.231108 2.84624e-21)
(-0.0246859 -0.00597107 -6.50276e-21)
(-0.0932401 -0.00876549 0)
(-0.183089 -0.00938974 1.10439e-20)
(-0.263046 -0.00853023 0)
(-0.335171 -0.00711213 0)
(-0.400932 -0.00561876 0)
(-0.460134 -0.0043185 -8.99344e-21)
(-0.512936 -0.00343756 0)
(-0.559312 -0.00313982 8.13341e-21)
(-0.599262 -0.00354748 0)
(-0.632689 -0.00475703 -1.43472e-20)
(-0.65955 -0.00684185 0)
(-0.680003 -0.0097954 1.22437e-20)
(-0.694203 -0.0135197 0)
(-0.701357 -0.0178305 1.01299e-20)
(-0.0289571 0.0536602 3.29614e-20)
(-0.0948071 0.0850367 -2.42142e-20)
(-0.177412 0.0873195 1.16725e-20)
(-0.249923 0.083981 4.2798e-20)
(-0.313961 0.0803071 1.48613e-21)
(-0.370696 0.0762995 -3.77651e-20)
(-0.419802 0.0716405 2.63402e-20)
(-0.461355 0.0661202 0)
(-0.495329 0.0596162 2.55505e-20)
(-0.52183 0.0520531 1.70217e-21)
(-0.540961 0.0433697 -1.38481e-20)
(-0.552619 0.0334667 0)
(-0.556646 0.0223664 -3.73305e-20)
(-0.553594 0.0105072 0)
(-0.543236 -0.00200642 -5.09929e-20)
(-0.0346878 0.0970968 5.60783e-20)
(-0.0909857 0.161819 1.34266e-20)
(-0.154095 0.171693 -2.26616e-20)
(-0.207234 0.166625 -6.58344e-20)
(-0.25098 0.159022 3.94096e-20)
(-0.285934 0.15059 4.02674e-20)
(-0.311673 0.141238 -7.30372e-20)
(-0.328221 0.130864 0)
(-0.335604 0.119419 -6.89164e-20)
(-0.333968 0.10681 6.1277e-20)
(-0.323755 0.0929852 2.97294e-20)
(-0.305587 0.0787786 0)
(-0.276742 0.0608004 2.50657e-20)
(-0.243438 0.0459292 -4.6861e-20)
(-0.193737 0.0217854 0)
(-0.0388659 0.114773 3.06159e-20)
(-0.0837712 0.208712 -8.03519e-20)
(-0.122278 0.233651 9.7363e-20)
(-0.150681 0.231775 -8.89521e-20)
(-0.169418 0.222304 -4.22097e-20)
(-0.178389 0.210636 3.97288e-20)
(-0.177159 0.197574 3.73336e-20)
(-0.165866 0.183193 3.55198e-20)
(-0.145029 0.16754 -1.031e-19)
(-0.115308 0.150921 -3.41897e-21)
(-0.0735657 0.132612 2.84098e-20)
(-0.0328829 0.114788 0)
(0.0335291 0.0920205 5.05244e-20)
(0.0735198 0.0709109 1.41317e-19)
(0.178027 0.0572665 -8.43982e-20)
(-0.0386505 0.106172 7.94104e-22)
(-0.0742732 0.218232 5.61512e-20)
(-0.0896865 0.264429 -5.00531e-20)
(-0.0928906 0.27318 4.52207e-20)
(-0.085881 0.265994 8.41458e-20)
(-0.0687638 0.25311 -7.88137e-20)
(-0.0413432 0.237905 -3.66718e-20)
(-0.00405335 0.221409 -1.08136e-19)
(0.0440618 0.203524 9.80144e-20)
(0.0937075 0.183982 0)
(0.170499 0.165422 0)
(0.212041 0.139767 1.10388e-19)
(0.333058 0.125722 -2.50381e-19)
(0.351009 0.0891857 9.05487e-20)
(0.523617 0.0845674 0)
(-0.0331227 0.0798159 2.95353e-22)
(-0.0630425 0.190779 -5.61296e-20)
(-0.0627157 0.255158 1.50928e-19)
(-0.0455084 0.279957 -4.47741e-20)
(-0.0156648 0.281434 -4.19666e-20)
(0.0249544 0.271477 3.91138e-20)
(0.0758622 0.256299 3.66815e-20)
(0.132998 0.237915 6.92361e-20)
(0.206049 0.219394 -1.22255e-19)
(0.263673 0.195713 5.70542e-20)
(0.37439 0.179429 5.314e-20)
(0.41203 0.150904 0)
(0.583812 0.138901 0)
(0.591943 0.101366 1.75174e-19)
(0.819184 0.0922578 -1.55828e-19)
(-0.0248827 0.0492787 -1.76461e-22)
(-0.0518333 0.139507 0)
(-0.04562 0.206753 0)
(-0.0175726 0.24173 8.92057e-20)
(0.0268472 0.25228 -3.99046e-20)
(0.0836328 0.247847 3.51789e-20)
(0.151046 0.235616 6.87248e-20)
(0.223906 0.219018 -6.09445e-20)
(0.313769 0.202172 6.08384e-20)
(0.396881 0.184913 -5.71143e-20)
(0.527686 0.168716 -4.03051e-21)
(0.607231 0.14923 0)
(0.799733 0.135607 4.17431e-20)
(0.848105 0.105088 0)
(1.09713 0.0993364 0)
(-0.0190377 0.0260917 -6.504e-20)
(-0.045156 0.0863707 0)
(-0.0406898 0.138772 -9.7941e-20)
(-0.0110226 0.17014 1.722e-19)
(0.0393924 0.182672 -1.91242e-19)
(0.107638 0.182965 -3.69203e-20)
(0.193761 0.177339 6.13717e-20)
(0.298258 0.171486 0)
(0.423039 0.163781 0)
(0.563517 0.162785 -1.03685e-19)
(0.718696 0.151599 -5.30018e-20)
(0.869482 0.155121 8.55726e-20)
(1.03691 0.137808 -4.18115e-20)
(1.14068 0.132448 0)
(1.31432 0.117089 -1.26259e-19)
(-0.699226 -0.024901 0)
(-0.681991 -0.0373036 3.74196e-21)
(-0.608261 -0.0326553 -3.45003e-21)
(-0.524153 -0.03469 0)
(-0.354284 -0.0024969 0)
(-0.171299 0.0313814 -1.42242e-23)
(0.0590559 0.0535482 0)
(0.263152 0.0643306 0)
(0.436455 0.0667528 -4.68228e-23)
(0.569591 0.0661691 0)
(0.668223 0.0644424 0)
(0.739988 0.0620665 4.90593e-23)
(0.792338 0.06032 0)
(0.832408 0.0580508 2.96661e-23)
(0.863814 0.0577616 2.3349e-23)
(0.890362 0.0544871 0)
(0.912009 0.0570302 1.10211e-22)
(0.931333 0.0490493 -1.29496e-22)
(0.945767 0.0578188 0)
(0.958692 0.0400978 -6.05833e-23)
(0.966832 0.0615198 6.95854e-23)
(0.974337 0.0320048 -1.27927e-23)
(0.978501 0.0635693 1.78879e-23)
(0.982942 0.036374 -1.70924e-23)
(0.984253 0.05015 1.40143e-23)
(0.988682 0.0602996 0)
(0.987605 0.0321224 1.00938e-23)
(0.9908 0.0649298 -9.65126e-24)
(0.993382 0.0608568 7.82162e-24)
(0.99015 0.0354095 0)
(0.99448 0.0678053 1.25861e-23)
(0.997539 0.0868461 0)
(0.99358 0.0446848 1.11928e-23)
(0.993732 0.0500707 6.11466e-24)
(0.999277 0.0953543 -6.45486e-25)
(1.00266 0.130536 4.3965e-24)
(1.00101 0.110606 0)
(0.996241 0.0289223 4.42312e-25)
(-0.519893 -0.0219303 1.87853e-20)
(-0.539457 -0.0727471 -1.25615e-22)
(-0.469106 -0.0839505 -1.15542e-20)
(-0.411887 -0.112879 1.10193e-20)
(-0.280969 -0.114742 0)
(-0.120356 -0.0981177 1.4335e-23)
(0.0793681 -0.0723993 4.77258e-23)
(0.262544 -0.03775 0)
(0.42154 -0.0101428 4.71747e-23)
(0.545182 0.0100887 0)
(0.638017 0.0244316 0)
(0.707305 0.0333448 -4.94106e-23)
(0.759921 0.0388751 0)
(0.802318 0.041531 -9.09498e-22)
(0.837383 0.0446854 7.68505e-22)
(0.868877 0.0438804 -5.55831e-22)
(0.895736 0.0486004 5.30565e-22)
(0.920278 0.0423941 2.44177e-23)
(0.938717 0.0530629 0)
(0.954838 0.0365508 0)
(0.964595 0.0593289 1.35188e-23)
(0.973511 0.0303925 -9.68921e-23)
(0.977906 0.0625176 1.54118e-22)
(0.982869 0.035854 -6.91321e-23)
(0.984449 0.0493727 -4.22585e-23)
(0.988483 0.0601804 0)
(0.988254 0.0318278 -2.12009e-23)
(0.990988 0.0643755 0)
(0.993458 0.0610538 -7.84911e-24)
(0.991093 0.0352506 2.76151e-23)
(0.994965 0.0671585 -5.15941e-23)
(0.997688 0.0870032 9.85132e-24)
(0.994505 0.0449943 -1.84447e-23)
(0.994882 0.049623 -8.13396e-25)
(1.00012 0.094718 -7.09661e-24)
(1.00326 0.130403 3.77912e-24)
(1.00187 0.111042 1.17568e-25)
(0.997474 0.0292369 -3.17995e-25)
(-0.148712 -0.0113599 3.86908e-20)
(-0.166569 -0.0735637 -6.97248e-20)
(-0.113869 -0.122187 6.23331e-21)
(-0.0599672 -0.160092 2.43675e-20)
(0.0311882 -0.193513 2.08338e-22)
(0.161054 -0.198742 -7.13527e-23)
(0.311458 -0.175396 -4.85422e-23)
(0.446596 -0.125824 1.50265e-22)
(0.561456 -0.0748998 0)
(0.649935 -0.0357557 -4.73069e-21)
(0.715243 -0.00861534 4.51229e-21)
(0.762652 0.00946125 9.86952e-23)
(0.798052 0.0218098 0)
(0.827443 0.0283945 1.79824e-21)
(0.85257 0.0337534 -1.66743e-21)
(0.87728 0.0343043 5.6838e-22)
(0.8995 0.0404126 -5.42343e-22)
(0.921773 0.0355273 -4.22579e-22)
(0.938758 0.0479665 3.55438e-22)
(0.954739 0.0326715 0)
(0.964059 0.0568843 0)
(0.973455 0.0286293 -1.74172e-22)
(0.977557 0.0613039 1.66281e-22)
(0.982891 0.0353128 1.26e-22)
(0.984669 0.0484722 -1.21368e-23)
(0.988244 0.0600391 -1.03348e-22)
(0.988926 0.0315154 -1.1443e-25)
(0.991148 0.0637113 3.73889e-23)
(0.99349 0.0612696 -9.4957e-23)
(0.992064 0.0350636 8.91208e-23)
(0.995434 0.0664125 -1.08217e-23)
(0.997768 0.0871497 2.24244e-23)
(0.995431 0.045314 -1.78628e-23)
(0.996076 0.0491122 1.70793e-23)
(1.00093 0.0940163 5.14099e-24)
(1.00376 0.130248 2.68557e-24)
(1.00265 0.111479 -4.93634e-24)
(0.998659 0.029554 -1.45035e-25)
(0.20138 -0.0156559 0)
(0.218336 -0.0831035 3.48031e-20)
(0.250904 -0.144606 -3.42157e-20)
(0.29917 -0.199118 0)
(0.380891 -0.246874 -2.14105e-22)
(0.481135 -0.266503 7.33041e-23)
(0.582077 -0.246159 0)
(0.665554 -0.188777 -4.8168e-23)
(0.73273 -0.122367 1.42631e-22)
(0.783391 -0.0668155 0)
(0.820833 -0.0294546 3.66747e-21)
(0.847789 -0.00616907 -3.59796e-21)
(0.866299 0.00960228 1.54286e-22)
(0.880531 0.0186349 1.81536e-21)
(0.89231 0.0254559 -1.73105e-21)
(0.905556 0.0267501 -7.82262e-23)
(0.918219 0.0337034 0)
(0.933362 0.0296209 5.12225e-23)
(0.945077 0.0434493 -6.24569e-22)
(0.958104 0.0290871 8.17723e-23)
(0.965264 0.0545531 6.33818e-23)
(0.974197 0.0269271 3.59629e-22)
(0.977516 0.060025 2.62126e-22)
(0.98303 0.0348078 -3.22228e-22)
(0.984921 0.0474713 2.89717e-23)
(0.987993 0.0598876 0)
(0.989597 0.031195 2.18152e-23)
(0.99129 0.0629358 -3.78815e-23)
(0.993495 0.061507 9.65486e-23)
(0.993032 0.0348499 -9.05168e-23)
(0.995885 0.0655651 2.53962e-23)
(0.997806 0.0872809 0)
(0.996342 0.045644 1.80914e-23)
(0.997287 0.0485402 -3.54664e-23)
(1.00171 0.0932465 -1.42032e-23)
(1.00419 0.130066 -1.52111e-23)
(1.00335 0.111912 4.93981e-24)
(0.999793 0.0298733 -3.27168e-25)
(0.521526 0.00902577 6.38246e-22)
(0.544741 -0.0763187 1.2153e-21)
(0.573265 -0.151353 0)
(0.61253 -0.220669 0)
(0.682074 -0.289648 0)
(0.754307 -0.318064 0)
(0.802206 -0.294741 -6.82072e-22)
(0.827328 -0.228541 3.91688e-21)
(0.845422 -0.154588 -3.54769e-21)
(0.861793 -0.0909688 0)
(0.877659 -0.0445661 3.41173e-21)
(0.893019 -0.014564 -3.35414e-21)
(0.905649 0.0053532 -2.48247e-21)
(0.915408 0.0166522 2.09036e-21)
(0.922331 0.0240269 -1.48415e-21)
(0.929789 0.0247787 1.49485e-21)
(0.936514 0.0311795 6.48378e-23)
(0.94592 0.0265515 7.87363e-22)
(0.952874 0.0407154 -7.50232e-22)
(0.962598 0.0264696 -7.09131e-23)
(0.967279 0.0526901 -5.89011e-23)
(0.975375 0.0254267 -3.19255e-22)
(0.977697 0.0587411 3.50392e-22)
(0.983265 0.0343558 7.00751e-23)
(0.985199 0.0463741 2.97736e-23)
(0.987754 0.0597311 2.57575e-23)
(0.990246 0.0308715 0)
(0.991419 0.0620555 0)
(0.993492 0.0617701 0)
(0.993969 0.0346146 0)
(0.996316 0.0646273 -7.39617e-23)
(0.997828 0.0874039 4.59606e-23)
(0.997225 0.0459827 -3.67215e-23)
(0.998485 0.0479118 1.16604e-22)
(1.00245 0.092423 -1.4271e-23)
(1.00457 0.12986 -2.67165e-24)
(1.004 0.112341 7.79533e-24)
(1.00087 0.0301934 5.9224e-25)
(0.804317 0.0218835 -6.71498e-22)
(0.831894 -0.0582951 7.57245e-20)
(0.85947 -0.138545 -7.27143e-20)
(0.888711 -0.216203 -4.8904e-20)
(0.941105 -0.294006 4.65668e-20)
(0.976882 -0.33342 1.60224e-20)
(0.964745 -0.310389 -1.49879e-20)
(0.929397 -0.245949 8.46746e-24)
(0.900518 -0.17149 1.113e-22)
(0.888959 -0.107509 0)
(0.890414 -0.0600829 1.1336e-22)
(0.899556 -0.0275613 -5.50712e-21)
(0.911269 -0.00595417 5.24264e-21)
(0.922127 0.00828044 1.28349e-22)
(0.930735 0.0183718 0)
(0.938847 0.020642 1.31012e-21)
(0.945187 0.0281223 -2.23576e-21)
(0.952981 0.0237399 8.96739e-22)
(0.957993 0.0386243 0)
(0.965959 0.0244295 -4.78795e-22)
(0.968987 0.051268 1.27749e-22)
(0.976514 0.024255 4.3645e-22)
(0.977946 0.0575388 3.65918e-22)
(0.983544 0.0340651 -3.44006e-22)
(0.985489 0.0452381 2.34683e-22)
(0.987552 0.0595863 -1.94264e-23)
(0.990854 0.0305883 -2.16726e-22)
(0.991542 0.0610772 1.52168e-22)
(0.9935 0.0620428 -1.44711e-22)
(0.994846 0.0343896 5.85103e-23)
(0.996724 0.0636032 -5.56337e-23)
(0.99786 0.0874957 0)
(0.998066 0.0463384 -3.73373e-23)
(0.99964 0.0472452 1.8566e-24)
(1.00314 0.0915339 0)
(1.00492 0.129626 1.57433e-23)
(1.00461 0.112767 -4.81556e-24)
(1.0019 0.0305153 -1.41228e-25)
(1.07843 0.0370865 0)
(1.09783 -0.0417816 0)
(1.11639 -0.12924 -2.64654e-22)
(1.12925 -0.215272 0)
(1.13982 -0.284201 0)
(1.12004 -0.319888 2.06828e-20)
(1.0546 -0.297509 -1.96557e-20)
(0.976322 -0.234238 -4.58521e-22)
(0.920794 -0.165028 4.54996e-22)
(0.893707 -0.106781 0)
(0.887839 -0.0630009 8.4361e-23)
(0.894531 -0.0319524 -8.31695e-23)
(0.907336 -0.00913 4.75411e-21)
(0.921298 0.00507204 -6.07053e-22)
(0.932627 0.0161997 -3.6527e-21)
(0.942593 0.0186237 -4.38612e-23)
(0.949751 0.0261395 3.48584e-23)
(0.957283 0.0214242 -1.64933e-21)
(0.961429 0.0366574 1.62152e-21)
(0.968524 0.0223565 0)
(0.970413 0.0497205 0)
(0.977625 0.0229144 2.66681e-23)
(0.978256 0.056193 0)
(0.983897 0.0336512 -3.05631e-22)
(0.985784 0.043972 1.21836e-23)
(0.987419 0.0594047 2.31806e-22)
(0.991418 0.030241 2.30043e-22)
(0.991656 0.0600333 -1.52328e-22)
(0.993549 0.0623317 1.78829e-23)
(0.995647 0.0341148 0)
(0.997096 0.0625372 5.04988e-23)
(0.997933 0.0875958 -4.78785e-23)
(0.998864 0.0466693 -2.00397e-23)
(1.00072 0.0465365 -1.36588e-23)
(1.00378 0.0906595 1.83948e-23)
(1.00528 0.129373 -5.6788e-24)
(1.0052 0.113163 0)
(1.00286 0.0308306 -6.30808e-25)
(1.2986 0.0608939 7.73745e-20)
(1.301 0.0031748 7.41799e-20)
(1.29929 -0.0743267 -4.14542e-21)
(1.28652 -0.160702 -1.17407e-19)
(1.25551 -0.235332 5.18448e-20)
(1.18818 -0.279279 -2.4354e-22)
(1.09532 -0.278471 0)
(1.00343 -0.24131 -4.25662e-23)
(0.938198 -0.192095 1.09866e-23)
(0.906818 -0.138882 0)
(0.898178 -0.0909615 5.13225e-21)
(0.902318 -0.0538439 -4.86894e-21)
(0.912458 -0.025068 -7.9051e-23)
(0.925069 -0.00674427 -3.91356e-21)
(0.936841 0.00800005 3.71365e-21)
(0.947242 0.0132596 -4.51575e-23)
(0.954467 0.0232664 -3.69706e-23)
(0.961604 0.0191393 0)
(0.964857 0.035584 -1.48886e-21)
(0.971249 0.0210268 1.41162e-21)
(0.972106 0.0490323 5.09067e-22)
(0.979041 0.0223473 -8.69434e-23)
(0.978864 0.0551095 -4.01173e-22)
(0.984486 0.0339535 3.21759e-22)
(0.986208 0.0426482 -4.66935e-23)
(0.98746 0.0594629 -4.91917e-22)
(0.991984 0.030169 1.84378e-22)
(0.991803 0.0587156 -1.84615e-22)
(0.993685 0.0627888 1.36125e-22)
(0.996374 0.0340068 0)
(0.997447 0.0611488 0)
(0.998067 0.087676 0)
(0.999613 0.0472245 -1.84263e-23)
(1.00171 0.0457336 1.93635e-23)
(1.00439 0.0895417 -2.18772e-23)
(1.00566 0.129102 1.48493e-23)
(1.00579 0.113674 5.46404e-24)
(1.00378 0.0311794 0)
(1.34284 0.0835785 0)
(1.35594 0.0306122 0)
(1.33847 -0.0303629 0)
(1.30366 -0.0894275 0)
(1.25232 -0.14041 0)
(1.1837 -0.167541 0)
(1.10647 -0.169897 0)
(1.03697 -0.156068 0)
(0.986091 -0.130303 0)
(0.955462 -0.10085 0)
(0.939375 -0.0725241 0)
(0.933805 -0.0481829 0)
(0.935873 -0.0275046 0)
(0.942837 -0.0111554 0)
(0.95095 0.00335443 0)
(0.959105 0.0085055 0)
(0.964044 0.0187475 0)
(0.968891 0.014923 0)
(0.970275 0.0317592 0)
(0.975049 0.0176082 0)
(0.974834 0.045974 0)
(0.980969 0.0199939 0)
(0.980095 0.0527815 0)
(0.98559 0.0325304 0)
(0.98677 0.0409885 0)
(0.988074 0.0584013 0)
(0.992641 0.0293999 0)
(0.992057 0.0575473 0)
(0.994282 0.0623312 0)
(0.997135 0.0335026 0)
(0.997809 0.0602025 0)
(0.998568 0.0872786 0)
(1.00058 0.0470737 0)
(1.00276 0.0450673 0)
(1.00507 0.0887347 0)
(1.00623 0.128634 0)
(1.00657 0.113782 0)
(1.00487 0.031454 0)
(1.26988 0.0781348 0)
(1.28486 0.0214299 0)
(1.27285 -0.0336312 0)
(1.2435 -0.0859814 0)
(1.20144 -0.131392 0)
(1.149 -0.164036 0)
(1.09356 -0.178075 0)
(1.04314 -0.171623 0)
(1.00264 -0.149244 0)
(0.975445 -0.120098 0)
(0.960265 -0.0891793 0)
(0.953942 -0.0601652 0)
(0.952839 -0.0345811 0)
(0.95514 -0.0157254 0)
(0.958397 -0.000213891 0)
(0.96268 0.00650727 0)
(0.966362 0.0180871 0)
(0.970746 0.0157717 0)
(0.972037 0.0324804 0)
(0.976461 0.0187607 0)
(0.976096 0.0462862 0)
(0.981905 0.0201406 0)
(0.980844 0.0528255 0)
(0.986323 0.0317616 0)
(0.987205 0.0409783 0)
(0.988767 0.0578015 0)
(0.99316 0.0287176 0)
(0.992509 0.0575818 0)
(0.995102 0.0618044 0)
(0.99779 0.0327987 0)
(0.998374 0.0601965 0)
(0.999471 0.0871613 0)
(1.00164 0.0464148 0)
(1.00378 0.0444544 0)
(1.00592 0.0883518 0)
(1.00715 0.128541 0)
(1.00763 0.113984 0)
(1.00626 0.0315751 0)
(1.22346 0.0727945 0)
(1.24029 0.0331112 0)
(1.23316 -0.00679607 0)
(1.20886 -0.0440095 0)
(1.17668 -0.0759065 0)
(1.13928 -0.0983373 0)
(1.09878 -0.107206 0)
(1.05754 -0.10402 0)
(1.01985 -0.0918936 0)
(0.99166 -0.0746906 0)
(0.973695 -0.0555032 0)
(0.963431 -0.0377673 0)
(0.958819 -0.0218364 0)
(0.958425 -0.0100678 0)
(0.960372 0.000989718 0)
(0.964673 0.00577477 0)
(0.967736 0.0163795 0)
(0.971686 0.0135891 0)
(0.972935 0.0302034 0)
(0.977393 0.0167619 0)
(0.977149 0.0444637 0)
(0.982748 0.018683 0)
(0.981692 0.0517269 0)
(0.987056 0.0305463 0)
(0.987698 0.0404989 0)
(0.989581 0.0568726 0)
(0.993615 0.0281077 0)
(0.993109 0.0574173 0)
(0.996032 0.0610416 0)
(0.998361 0.0323265 0)
(0.999109 0.0602121 0)
(1.00062 0.0867415 0)
(1.0027 0.0458011 0)
(1.00479 0.0441576 0)
(1.00698 0.0882023 0)
(1.00837 0.128407 0)
(1.00899 0.114097 0)
(1.00788 0.0317466 0)
(1.18409 0.069999 0)
(1.19581 0.0371063 0)
(1.1902 0.00207364 0)
(1.17279 -0.0298619 0)
(1.14875 -0.0576021 0)
(1.11982 -0.0790991 0)
(1.08767 -0.0927369 0)
(1.05519 -0.0974019 0)
(1.02564 -0.0924336 0)
(1.00253 -0.0804152 0)
(0.986364 -0.0648353 0)
(0.976293 -0.048946 0)
(0.970814 -0.0325788 0)
(0.969415 -0.0188205 0)
(0.969839 -0.00463643 0)
(0.971804 0.00195749 0)
(0.972961 0.0136351 0)
(0.975596 0.0121455 0)
(0.975723 0.0292026 0)
(0.979359 0.0162171 0)
(0.978716 0.0436928 0)
(0.983812 0.0179184 0)
(0.982762 0.0509368 0)
(0.987884 0.029524 0)
(0.988324 0.0398595 0)
(0.990572 0.0559776 0)
(0.994068 0.0274103 0)
(0.993869 0.0569409 0)
(0.997128 0.0603578 0)
(0.998882 0.0317848 0)
(0.999997 0.0598542 0)
(1.00204 0.0862844 0)
(1.0038 0.0452772 0)
(1.00577 0.0437041 0)
(1.00829 0.0877592 0)
(1.01003 0.128096 0)
(1.01077 0.114194 0)
(1.00977 0.0318958 0)
(1.14992 0.0651521 0)
(1.16034 0.0401887 0)
(1.15861 0.0146778 0)
(1.14622 -0.00916137 0)
(1.12802 -0.03023 0)
(1.10655 -0.0467015 0)
(1.08309 -0.0571164 0)
(1.05928 -0.0607023 0)
(1.03581 -0.0577026 0)
(1.01533 -0.0502094 0)
(0.999425 -0.0398168 0)
(0.987943 -0.0289968 0)
(0.980349 -0.0177169 0)
(0.976331 -0.00840051 0)
(0.973933 0.00107069 0)
(0.974177 0.00485549 0)
(0.974485 0.0150401 0)
(0.976794 0.012492 0)
(0.976892 0.0287336 0)
(0.980584 0.0153853 0)
(0.980116 0.042625 0)
(0.984972 0.0168344 0)
(0.98403 0.0499734 0)
(0.988877 0.0284252 0)
(0.989135 0.0390803 0)
(0.9917 0.0551042 0)
(0.994616 0.0265918 0)
(0.994793 0.0563876 0)
(0.998329 0.0596804 0)
(0.999439 0.0310857 0)
(1.00107 0.0593445 0)
(1.00366 0.0858303 0)
(1.00493 0.0446681 0)
(1.00681 0.0430194 0)
(1.0099 0.0871125 0)
(1.01211 0.127705 0)
(1.01293 0.114295 0)
(1.01195 0.0320662 0)
(1.12236 0.0618513 0)
(1.13085 0.0432945 0)
(1.13006 0.0231582 0)
(1.12096 0.00368884 0)
(1.10751 -0.0137042 0)
(1.09142 -0.0279591 0)
(1.07349 -0.0384079 0)
(1.05483 -0.044641 0)
(1.03576 -0.0462689 0)
(1.01879 -0.0437262 0)
(1.00509 -0.0376356 0)
(0.994741 -0.0301163 0)
(0.987586 -0.0210182 0)
(0.983425 -0.0128103 0)
(0.98086 -0.00296728 0)
(0.980836 0.00143687 0)
(0.980165 0.0122513 0)
(0.981313 0.0105077 0)
(0.980376 0.0272731 0)
(0.983225 0.0142707 0)
(0.982303 0.041605 0)
(0.986577 0.0158336 0)
(0.985528 0.049043 0)
(0.990058 0.0274065 0)
(0.990103 0.038218 0)
(0.992919 0.054243 0)
(0.995326 0.0257422 0)
(0.995814 0.0556954 0)
(0.999594 0.0589473 0)
(1.00015 0.0303713 0)
(1.00228 0.0586761 0)
(1.00538 0.085266 0)
(1.00619 0.044071 0)
(1.00802 0.0422702 0)
(1.01178 0.0863231 0)
(1.0145 0.127221 0)
(1.0154 0.114416 0)
(1.01438 0.0322616 0)
(1.09911 0.0593388 0)
(1.1058 0.0451189 0)
(1.10589 0.0296714 0)
(1.09975 0.0147235 0)
(1.09012 0.00114079 0)
(1.0783 -0.0103307 0)
(1.06504 -0.019109 0)
(1.05152 -0.0248024 0)
(1.03738 -0.0268453 0)
(1.02417 -0.0256746 0)
(1.0127 -0.0216927 0)
(1.00287 -0.0165644 0)
(0.995309 -0.0100335 0)
(0.990285 -0.00430266 0)
(0.985758 0.00346913 0)
(0.983827 0.00586562 0)
(0.982411 0.0149605 0)
(0.983298 0.0118737 0)
(0.982236 0.0277017 0)
(0.984975 0.0139819 0)
(0.984087 0.0409762 0)
(0.988105 0.0149385 0)
(0.987034 0.0481273 0)
(0.991349 0.0264538 0)
(0.991193 0.0372336 0)
(0.994203 0.0533963 0)
(0.996204 0.0248275 0)
(0.996908 0.054812 0)
(1.00094 0.0582308 0)
(1.00104 0.029616 0)
(1.00359 0.0577569 0)
(1.00716 0.0846352 0)
(1.0076 0.0435387 0)
(1.00943 0.0413949 0)
(1.01386 0.0852782 0)
(1.0171 0.126582 0)
(1.01809 0.11454 0)
(1.01708 0.0324816 0)
(1.07947 0.0571756 0)
(1.08483 0.0463668 0)
(1.08544 0.0346653 0)
(1.08125 0.0230785 0)
(1.0744 0.0122138 0)
(1.06585 0.00272598 0)
(1.05608 -0.00492948 0)
(1.04601 -0.0105952 0)
(1.03493 -0.0139046 0)
(1.02428 -0.0150532 0)
(1.01461 -0.013904 0)
(1.00595 -0.011583 0)
(0.999185 -0.00743662 0)
(0.994677 -0.00367726 0)
(0.990581 0.00260399 0)
(0.988854 0.00456794 0)
(0.987121 0.0137416 0)
(0.987367 0.0107312 0)
(0.985584 0.0267831 0)
(0.987658 0.0130421 0)
(0.986387 0.0401395 0)
(0.989961 0.0139805 0)
(0.988707 0.0471681 0)
(0.992792 0.0255448 0)
(0.992419 0.0361205 0)
(0.995555 0.0525487 0)
(0.997254 0.0238389 0)
(0.998094 0.0537689 0)
(1.00236 0.0575089 0)
(1.00211 0.0287547 0)
(1.005 0.0565978 0)
(1.00901 0.083932 0)
(1.00919 0.0429994 0)
(1.01104 0.0403139 0)
(1.01612 0.0839117 0)
(1.01986 0.125758 0)
(1.02102 0.114662 0)
(1.02006 0.0327245 0)
(1.06301 0.0554924 0)
(1.06728 0.0472844 0)
(1.06811 0.0383874 0)
(1.0653 0.0294217 0)
(1.06057 0.0208379 0)
(1.05451 0.0131211 0)
(1.04738 0.00661531 0)
(1.04015 0.00144338 0)
(1.03202 -0.00196665 0)
(1.02415 -0.00374396 0)
(1.01684 -0.00363909 0)
(1.0096 -0.00242306 0)
(1.00357 0.000511023 0)
(0.999195 0.00300594 0)
(0.994414 0.00816903 0)
(0.991904 0.00872399 0)
(0.989816 0.0165408 0)
(0.989898 0.0122513 0)
(0.987948 0.0275004 0)
(0.989806 0.0129851 0)
(0.988426 0.0398001 0)
(0.991764 0.0132717 0)
(0.99039 0.0463026 0)
(0.994318 0.0247476 0)
(0.993759 0.0349402 0)
(0.996977 0.051737 0)
(0.998473 0.0228104 0)
(0.999373 0.0525819 0)
(1.00387 0.0567674 0)
(1.00336 0.0277928 0)
(1.00653 0.0552255 0)
(1.01094 0.0831355 0)
(1.01098 0.0424146 0)
(1.01287 0.0390332 0)
(1.01856 0.0822515 0)
(1.02279 0.124723 0)
(1.02419 0.114755 0)
(1.02337 0.0330129 0)
(1.04918 0.0539461 0)
(1.05256 0.0476485 0)
(1.05347 0.0408414 0)
(1.05165 0.0338793 0)
(1.04845 0.0270771 0)
(1.04419 0.0208008 0)
(1.03906 0.0153258 0)
(1.03399 0.0107545 0)
(1.02797 0.00736697 0)
(1.02198 0.00500017 0)
(1.01635 0.00393581 0)
(1.01044 0.00360656 0)
(1.00537 0.00496175 0)
(1.00183 0.00577801 0)
(0.997551 0.00974589 0)
(0.995154 0.00954671 0)
(0.993067 0.0170183 0)
(0.992988 0.0122366 0)
(0.990733 0.0273532 0)
(0.992229 0.0124084 0)
(0.990622 0.039184 0)
(0.993698 0.0123617 0)
(0.992152 0.0452197 0)
(0.995939 0.0238305 0)
(0.995213 0.033486 0)
(0.998468 0.0507583 0)
(0.999843 0.0215652 0)
(1.00075 0.0510607 0)
(1.00546 0.0558533 0)
(1.00481 0.0265984 0)
(1.00818 0.0534794 0)
(1.01295 0.082104 0)
(1.01298 0.0416823 0)
(1.01493 0.0374307 0)
(1.02119 0.0801566 0)
(1.02591 0.123421 0)
(1.02768 0.11469 0)
(1.02704 0.0331703 0)
(1.0373 0.0529926 0)
(1.04 0.0481299 0)
(1.04094 0.042893 0)
(1.03983 0.037443 0)
(1.03778 0.0320329 0)
(1.0349 0.0269547 0)
(1.03134 0.0224109 0)
(1.02793 0.0184437 0)
(1.02358 0.015287 0)
(1.01926 0.0128352 0)
(1.0152 0.0114399 0)
(1.01059 0.0105363 0)
(1.00649 0.011197 0)
(1.00373 0.0111623 0)
(0.999868 0.0142147 0)
(0.99751 0.0130471 0)
(0.995416 0.0197364 0)
(0.995371 0.0139944 0)
(0.993058 0.0286265 0)
(0.994407 0.0129597 0)
(0.992686 0.0395621 0)
(0.995599 0.0123021 0)
(0.993966 0.044899 0)
(0.997614 0.0236308 0)
(0.9968 0.0326175 0)
(1.00004 0.0503639 0)
(1.00135 0.0208575 0)
(1.00227 0.0499084 0)
(1.00715 0.0553962 0)
(1.00643 0.0257798 0)
(1.00999 0.0518864 0)
(1.0151 0.0813252 0)
(1.01517 0.0412807 0)
(1.01721 0.0358942 0)
(1.02411 0.0779189 0)
(1.02927 0.122019 0)
(1.03139 0.11496 0)
(1.03115 0.033724 0)
(1.02721 0.0510099 0)
(1.02939 0.0472255 0)
(1.03032 0.043158 0)
(1.02971 0.0388566 0)
(1.02852 0.0345276 0)
(1.02664 0.0303891 0)
(1.0242 0.0265789 0)
(1.02203 0.0231122 0)
(1.019 0.0201994 0)
(1.01603 0.0177181 0)
(1.01326 0.0160279 0)
(1.00976 0.0145708 0)
(1.00656 0.0145639 0)
(1.00458 0.0136964 0)
(1.00131 0.0159411 0)
(0.999269 0.0139526 0)
(0.997408 0.0201185 0)
(0.997489 0.0136529 0)
(0.99522 0.0279388 0)
(0.996443 0.0116542 0)
(0.994643 0.0380581 0)
(0.997447 0.0104925 0)
(0.995667 0.042664 0)
(0.999311 0.0217431 0)
(0.998334 0.0298682 0)
(1.00163 0.0482258 0)
(1.00295 0.0184157 0)
(1.00375 0.0469661 0)
(1.00894 0.0532812 0)
(1.00818 0.0233303 0)
(1.01177 0.0486856 0)
(1.01734 0.0789645 0)
(1.01763 0.0394173 0)
(1.01958 0.0330275 0)
(1.02706 0.0742596 0)
(1.0329 0.119237 0)
(1.0358 0.113655 0)
(1.03572 0.0332736 0)
(1.01821 0.0512304 0)
(1.02005 0.0482569 0)
(1.02098 0.045068 0)
(1.02074 0.0416424 0)
(1.02016 0.0381589 0)
(1.01898 0.0347993 0)
(1.01738 0.0316631 0)
(1.01616 0.0287426 0)
(1.01412 0.0262084 0)
(1.01219 0.0238995 0)
(1.01046 0.0222028 0)
(1.00795 0.020554 0)
(1.00563 0.0202586 0)
(1.00447 0.0189411 0)
(1.00184 0.02075 0)
(1.00025 0.0181581 0)
(0.998672 0.0239918 0)
(0.999048 0.0168035 0)
(0.996915 0.0309313 0)
(0.998236 0.0138419 0)
(0.996459 0.0402973 0)
(0.99922 0.0120812 0)
(0.997542 0.0440807 0)
(1.001 0.0231952 0)
(1.00018 0.0304646 0)
(1.00334 0.0494383 0)
(1.00471 0.0191251 0)
(1.00568 0.0470486 0)
(1.0108 0.0543368 0)
(1.01021 0.0237376 0)
(1.01408 0.0480161 0)
(1.01971 0.0795081 0)
(1.02027 0.0403082 0)
(1.02249 0.0321402 0)
(1.03069 0.0725299 0)
(1.03678 0.118666 0)
(1.04019 0.115224 0)
(1.04107 0.0346947 0)
(1.01059 0.0468589 0)
(1.01217 0.0444309 0)
(1.01309 0.0418266 0)
(1.01315 0.0389935 0)
(1.01308 0.0361008 0)
(1.01251 0.0332988 0)
(1.0116 0.0306548 0)
(1.01112 0.0281325 0)
(1.00985 0.0258832 0)
(1.00874 0.023734 0)
(1.00788 0.0220685 0)
(1.00619 0.020301 0)
(1.00463 0.0197851 0)
(1.00415 0.0181086 0)
(1.00215 0.0195231 0)
(1.00098 0.0164118 0)
(0.999796 0.0218348 0)
(1.00039 0.0140706 0)
(0.998484 0.0278248 0)
(0.999797 0.0102676 0)
(0.998046 0.0363369 0)
(1.00083 0.00804229 0)
(0.998976 0.0392993 0)
(1.00266 0.0189454 0)
(1.00158 0.0251844 0)
(1.00493 0.0445604 0)
(1.00643 0.0142364 0)
(1.00704 0.0412012 0)
(1.0128 0.0492959 0)
(1.01213 0.0187177 0)
(1.01577 0.0416972 0)
(1.02219 0.073773 0)
(1.02317 0.0357126 0)
(1.02489 0.0264004 0)
(1.03376 0.0651021 0)
(1.04091 0.111944 0)
(1.04574 0.110329 0)
(1.04666 0.0325123 0)
(1.00293 0.0495179 0)
(1.00438 0.0475626 0)
(1.00532 0.0454734 0)
(1.00564 0.0431716 0)
(1.00599 0.040809 0)
(1.00586 0.0385064 0)
(1.00547 0.0363097 0)
(1.00557 0.0341723 0)
(1.00491 0.0322402 0)
(1.00446 0.0303219 0)
(1.00428 0.0288078 0)
(1.00329 0.0270709 0)
(1.00241 0.0265419 0)
(1.00265 0.0246741 0)
(1.00126 0.025948 0)
(1.00063 0.0224317 0)
(0.999809 0.0278763 0)
(1.00087 0.0195339 0)
(0.999246 0.0335557 0)
(1.00092 0.015047 0)
(0.999353 0.0415384 0)
(1.00226 0.0122388 0)