/*--------------------------------*- C++ -*----------------------------------*\
| =========                 |                                                 |
| \\      /  F ield         | OpenFOAM: The Open Source CFD Toolbox           |
|  \\    /   O peration     | Version:  2312                                  |
|   \\  /    A nd           | Website:  www.openfoam.com                      |
|    \\/     M anipulation  |                                                 |
\*---------------------------------------------------------------------------*/
FoamFile
{
    version     2.0;
    format      ascii;
    arch        "LSB;label=32;scalar=64";
    class       surfaceScalarField;
    location    "8.5";
    object      phi;
}
// * * * * * * * * * * * * * * * * * * * * * * * * * * * * * * * * * * * * * //

dimensions      [0 3 -1 0 0 0 0];

oriented        oriented;

internalField   nonuniform List<scalar> 
64047
(
-5.59365e-05
0.000407687
-0.00035175
-9.01602e-05
0.00107386
-0.00103964
-1.54766e-05
0.00156613
-0.00164082
0.000230145
0.00185031
-0.00209593
0.000695815
0.00189289
-0.00235856
0.00142369
0.00165858
-0.00238646
0.00245563
0.00111051
-0.00214244
0.00383788
0.000212263
-0.00159452
0.00562375
-0.00107067
-0.000715207
0.00787313
-0.00276886
0.000519491
0.0106491
-0.00490615
0.00213013
0.0140095
-0.00749609
0.00413573
0.0179967
-0.0105369
0.00654975
0.022626
-0.014007
0.00937769
0.0278749
-0.0178612
0.0126123
0.0336757
-0.0220297
0.0162289
0.0399144
-0.0264208
0.0201821
0.046435
-0.0309254
0.0244048
0.0530508
-0.0354259
0.02881
0.0595608
-0.0398056
0.0332956
0.0657687
-0.0439592
0.0377513
0.0715024
-0.0478018
0.0420681
0.076632
-0.0512767
0.0461471
0.0810817
-0.0543588
0.0499091
0.0848347
-0.0570548
0.0533018
0.0879297
-0.0593984
0.0563034
0.0904487
-0.0614424
0.0589234
0.0924994
-0.0632486
0.061198
0.0941953
-0.064878
0.0631821
0.0956402
-0.0663821
0.0649372
0.0969145
-0.0678024
0.0665281
0.0980808
-0.0691603
0.0679939
0.0991625
-0.0704876
0.069406
0.100194
-0.0717427
0.0707107
0.101111
-0.0730562
0.07214
0.101762
-0.074007
0.0733554
-0.0754469
0.0752075
0.102002
-7.13542e-05
0.000479041
-0.000139276
0.00114178
-0.000102662
0.00152952
0.000118034
0.00162961
0.000591466
0.00141946
0.00138263
0.000867414
0.00255717
-6.40284e-05
0.00418291
-0.00141348
0.00632937
-0.00321712
0.00906207
-0.00550156
0.0124342
-0.00827825
0.0164752
-0.0115371
0.0211795
-0.0152412
0.0264973
-0.0193249
0.0323306
-0.0236944
0.038535
-0.0282342
0.0449301
-0.0328158
0.0513142
-0.0373095
0.0574844
-0.0415961
0.0632572
-0.0455784
0.0684872
-0.0491892
0.073081
-0.0523956
0.0770037
-0.0551994
0.0802767
-0.0576318
0.0829673
-0.0597454
0.0851726
-0.0616037
0.0870007
-0.0632705
0.0885542
-0.0648021
0.0899187
-0.0662425
0.0911583
-0.0676217
0.0923157
-0.0689598
0.093419
-0.0702636
0.0944758
-0.0715444
0.0955134
-0.0727803
0.0964819
-0.0740248
0.0975827
-0.0751077
-0.0765203
0.0986561
-6.61544e-05
0.000545195
-0.000118924
0.00119455
-4.82101e-05
0.00145881
0.000239479
0.00134192
0.000830766
0.000828169
0.00180947
-0.000111295
0.00325804
-0.00151259
0.00525633
-0.00341177
0.00787473
-0.00583553
0.0111652
-0.00879202
0.0151493
-0.0122623
0.0198066
-0.0161944
0.0250669
-0.0205015
0.0308081
-0.0250661
0.0368628
-0.0297491
0.0430323
-0.0344037
0.0491061
-0.0388897
0.0548852
-0.0430885
0.060203
-0.0469139
0.0649424
-0.0503178
0.0690449
-0.0532918
0.0725111
-0.0558618
0.0753914
-0.0580797
0.077771
-0.0600114
0.0797514
-0.0617259
0.0814335
-0.0632858
0.0829046
-0.0647416
0.0842326
-0.0661301
0.0854654
-0.0674753
0.0866346
-0.0687909
0.0877601
-0.0700853
0.0888546
-0.0713581
0.0899288
-0.0726186
0.0909889
-0.0738403
0.0920505
-0.0750864
0.0931256
-0.0761829
-0.0775469
0.0941522
-4.48534e-05
0.000590049
-4.2536e-05
0.00119223
0.000121487
0.00129478
0.000551855
0.000911555
0.0013484
3.16221e-05
0.0026075
-0.00137039
0.00441999
-0.00332508
0.00686429
-0.00585607
0.009996
-0.00896724
0.0138351
-0.0126311
0.0183536
-0.0167808
0.0234678
-0.0213086
0.0290384
-0.0260721
0.0348803
-0.030908
0.0407813
-0.0356501
0.0465262
-0.0401485
0.051922
-0.0442855
0.0568198
-0.0479863
0.0611284
-0.0512225
0.0648186
-0.054008
0.0679169
-0.0563901
0.0704918
-0.0584367
0.0726355
-0.0602234
0.0744459
-0.0618218
0.0760123
-0.0632924
0.0774078
-0.0646812
0.0786863
-0.0660201
0.0798853
-0.0673291
0.0810298
-0.0686197
0.0821365
-0.0698977
0.0832167
-0.0711654
0.0842814
-0.0724229
0.0853347
-0.0736719
0.0863959
-0.0749014
0.0874569
-0.0761475
0.0885683
-0.0772943
-0.0786875
0.089709
-1.40423e-05
0.000604091
7.004e-05
0.00110815
0.000369051
0.000995772
0.000994992
0.000285614
0.00205623
-0.00102961
0.00365495
-0.00296911
0.00587991
-0.00555004
0.008795
-0.00877115
0.0124248
-0.012597
0.0167407
-0.016947
0.0216521
-0.0216922
0.0270078
-0.0266643
0.032609
-0.0316733
0.0382323
-0.0365313
0.0436585
-0.0410763
0.0487005
-0.0451905
0.0532247
-0.0488096
0.0571611
-0.0519228
0.0605031
-0.0545645
0.0632955
-0.0568004
0.0656174
-0.058712
0.0675629
-0.0603822
0.0692246
-0.061885
0.0706823
-0.0632795
0.0719988
-0.0646088
0.0732192
-0.0659016
0.0743745
-0.0671755
0.0754854
-0.06844
0.0765655
-0.0696998
0.0776244
-0.0709566
0.0786696
-0.0722106
0.0797073
-0.0734606
0.0807439
-0.0747085
0.0817887
-0.0759462
0.0828402
-0.077199
0.0839304
-0.0783845
-0.0797569
0.0849998
2.07228e-05
0.000583368
0.000201452
0.000927423
0.000660892
0.000536332
0.00151588
-0.000569373
0.00287863
-0.00239237
0.00484933
-0.00493981
0.00750352
-0.00820424
0.0108758
-0.0121434
0.0149433
-0.0166645
0.0196149
-0.0216186
0.0247323
-0.0268097
0.0300859
-0.0320179
0.0354422
-0.0370296
0.0405775
-0.0416666
0.0453083
-0.0458071
0.0495124
-0.0493946
0.0531364
-0.0524336
0.0561901
-0.0549765
0.058731
-0.0571054
0.0608445
-0.0589138
0.0626242
-0.0604917
0.0641576
-0.0619156
0.0655169
-0.0632444
0.066757
-0.0645196
0.0679164
-0.0657682
0.0690208
-0.067006
0.0700866
-0.0682413
0.0711247
-0.0694781
0.0721423
-0.0707175
0.0731453
-0.0719595
0.0741386
-0.0732039
0.075128
-0.07445
0.076118
-0.0756985
0.0771172
-0.0769453
0.0781246
-0.0782064
0.0791639
-0.0794238
-0.0807959
0.0802029
5.61573e-05
0.000527211
0.000341299
0.000642281
0.000976571
-9.89403e-05
0.00208156
-0.00167436
0.00376707
-0.00407788
0.00612209
-0.00729483
0.00919546
-0.0112776
0.0129761
-0.0159241
0.0173787
-0.0210672
0.0222435
-0.0264833
0.0273525
-0.0319187
0.0324627
-0.0371281
0.0373436
-0.0419105
0.0418117
-0.0461346
0.0457513
-0.0497468
0.0491199
-0.0527632
0.0519383
-0.0552521
0.0542725
-0.0573106
0.056211
-0.0590439
0.0578467
-0.0605495
0.0592625
-0.0619076
0.0605254
-0.0631784
0.0616844
-0.0644034
0.0627734
-0.0656086
0.0638143
-0.0668091
0.0648211
-0.0680127
0.0658025
-0.0692228
0.0667648
-0.0704404
0.0677129
-0.0716655
0.0686512
-0.0728978
0.0695843
-0.0741369
0.0705166
-0.0753824
0.0714524
-0.0766343
0.0723977
-0.0778906
0.0733511
-0.0791599
0.0743316
-0.0804043
-0.0817689
0.0753045
9.19586e-05
0.000435252
0.000486834
0.000247405
0.00130887
-0.000920976
0.00267752
-0.00304301
0.00469523
-0.00609559
0.00742796
-0.0100276
0.010882
-0.0147317
0.0149852
-0.0200272
0.0195819
-0.0256639
0.02445
-0.0313515
0.0293367
-0.0368054
0.0340019
-0.0417933
0.0382568
-0.0461654
0.0419863
-0.0498641
0.0451527
-0.0529131
0.0477831
-0.0553937
0.0499483
-0.0574173
0.0517393
-0.0591015
0.0532479
-0.0605526
0.0545548
-0.0618564
0.0557231
-0.0630759
0.0567986
-0.0642539
0.0578119
-0.0654167
0.0587825
-0.0665792
0.0597223
-0.067749
0.060639
-0.0689294
0.0615375
-0.0701213
0.0624219
-0.0713248
0.0632957
-0.0725393
0.0641624
-0.0737646
0.0650256
-0.0750001
0.0658889
-0.0762457
0.0667557
-0.0775011
0.0676302
-0.0787651
0.0685126
-0.0800422
0.0694169
-0.0813086
-0.0826681
0.0703161
0.000129316
0.000305936
0.000639844
-0.000263122
0.00165788
-0.00193901
0.00329801
-0.00468314
0.00564463
-0.00844221
0.00872632
-0.0131092
0.0124912
-0.0184966
0.0167963
-0.0243322
0.0214202
-0.0302878
0.0261011
-0.0360324
0.0305859
-0.0412903
0.0346745
-0.0458818
0.0382453
-0.0497362
0.041259
-0.0528779
0.0437444
-0.0553985
0.0457745
-0.0574237
0.0474417
-0.0590845
0.0488382
-0.0604981
0.0500437
-0.061758
0.0511196
-0.0629322
0.0521096
-0.0640659
0.0530425
-0.0651868
0.0539363
-0.0663104
0.0548016
-0.0674445
0.0556451
-0.0685924
0.0564709
-0.0697552
0.0572824
-0.0709328
0.0580826
-0.0721249
0.0588744
-0.0733311
0.0596609
-0.074551
0.0604451
-0.0757844
0.0612303
-0.0770309
0.0620193
-0.07829
0.0628152
-0.0795611
0.0636185
-0.0808456
0.0644395
-0.0821296
-0.0834842
0.0652556
0.000169717
0.000136219
0.00080281
-0.000896215
0.0020241
-0.00316031
0.00393585
-0.00659488
0.00659206
-0.0110984
0.00996889
-0.0164861
0.0139451
-0.0224728
0.0183081
-0.0286952
0.0227899
-0.0347696
0.0271215
-0.040364
0.0310849
-0.0452536
0.034544
-0.049341
0.0374512
-0.0526433
0.0398315
-0.0552582
0.0417577
-0.0573248
0.0433235
-0.0589895
0.0446222
-0.0603831
0.0457338
-0.0616097
0.0467198
-0.0627441
0.0476235
-0.0638359
0.048473
-0.0649154
0.0492855
-0.0659993
0.050071
-0.067096
0.0508355
-0.068209
0.0515828
-0.0693397
0.0523156
-0.0704881
0.0530366
-0.0716538
0.053748
-0.0728364
0.0544526
-0.0740357
0.0551529
-0.0752513
0.0558514
-0.0764829
0.0565508
-0.0777302
0.0572531
-0.0789924
0.0579608
-0.0802688
0.0586747
-0.0815594
0.0594022
-0.0828571
-0.0842078
0.0601259
0.000214026
-7.78072e-05
0.0009763
-0.00165849
0.00240396
-0.00458796
0.00457674
-0.00876767
0.00750457
-0.0140263
0.0110987
-0.0200802
0.0151659
-0.0265401
0.0194384
-0.0329678
0.0236309
-0.0389621
0.0275011
-0.0442342
0.03089
-0.0486425
0.0337331
-0.0521841
0.0360464
-0.0549566
0.0378994
-0.0571112
0.0393859
-0.0588113
0.0406011
-0.0602047
0.0416271
-0.0614092
0.0425271
-0.0625096
0.0433451
-0.0635621
0.0441098
-0.0646006
0.0448381
-0.0656438
0.0455402
-0.0667014
0.0462216
-0.0677774
0.0468858
-0.0688732
0.0475352
-0.0699892
0.048172
-0.0711249
0.0487983
-0.07228
0.0494161
-0.0734542
0.0500277
-0.0746473
0.0506354
-0.075859
0.0512414
-0.0770889
0.0518477
-0.0783365
0.0524562
-0.0796009
0.0530687
-0.0808813
0.0536862
-0.0821769
0.0543141
-0.083485
-0.0848331
0.0549394
0.000262174
-0.000339981
0.00115807
-0.00255438
0.0027885
-0.0062184
0.00519874
-0.0111779
0.00834162
-0.0171691
0.012057
-0.0237956
0.0160884
-0.0305714
0.0201375
-0.0370168
0.0239334
-0.042758
0.0272856
-0.0475863
0.0301034
-0.0514604
0.0323865
-0.0544672
0.0341967
-0.0567668
0.0356267
-0.0585412
0.036774
-0.0599586
0.037724
-0.0611547
0.038543
-0.0622281
0.0392773
-0.063244
0.039957
-0.0642417
0.0405998
-0.0652434
0.0412162
-0.0662602
0.0418117
-0.0672969
0.0423896
-0.0683553
0.0429523
-0.0694359
0.0435016
-0.0705384
0.0440392
-0.0716625
0.044567
-0.0728078
0.045087
-0.0739741
0.045601
-0.0751613
0.0461111
-0.0763691
0.0466192
-0.077597
0.0471267
-0.0788441
0.0476352
-0.0801094
0.0481461
-0.0813921
0.0486605
-0.0826914
0.0491824
-0.0840069
-0.0853533
0.0497026
0.000313317
-0.000653298
0.00134338
-0.00358445
0.00316446
-0.00803947
0.00577494
-0.0137884
0.00906111
-0.0204553
0.0127936
-0.0275281
0.016671
-0.0344488
0.0203936
-0.0407395
0.0237313
-0.0460957
0.0265572
-0.0504122
0.0288452
-0.0537484
0.0306439
-0.0562659
0.0320419
-0.0581648
0.0331386
-0.0596379
0.0340238
-0.0608438
0.0347682
-0.0618992
0.0354222
-0.0628821
0.036018
-0.0638398
0.0365752
-0.064799
0.0371049
-0.0657731
0.037613
-0.0667682
0.0381029
-0.0677868
0.0385768
-0.0688292
0.0390363
-0.0698955
0.039483
-0.0709852
0.0399186
-0.072098
0.0403446
-0.0732338
0.0407628
-0.0743924
0.041175
-0.0755735
0.0415828
-0.076777
0.0419878
-0.0780019
0.0423912
-0.0792475
0.0427943
-0.0805125
0.0431982
-0.081796
0.0436043
-0.0830975
0.0440154
-0.084418
-0.0857635
0.0444256
0.000366009
-0.00101931
0.0015258
-0.00474424
0.00351611
-0.0100298
0.00627749
-0.0165498
0.00962595
-0.0238038
0.0132739
-0.0311761
0.0168998
-0.0380747
0.0202291
-0.0440688
0.023088
-0.0489546
0.0254136
-0.0527378
0.0272327
-0.0555674
0.0286252
-0.0576584
0.029691
-0.0592306
0.0305246
-0.0604715
0.0312029
-0.061522
0.0317811
-0.0624774
0.0322955
-0.0633965
0.0327681
-0.0643123
0.033211
-0.065242
0.0336312
-0.0661932
0.0340321
-0.0671692
0.034416
-0.0681707
0.0347845
-0.0691977
0.035139
-0.07025
0.0354808
-0.071327
0.0358115
-0.0724287
0.0361325
-0.0735548
0.0364456
-0.0747054
0.0367521
-0.0758801
0.0370535
-0.0770784
0.0373512
-0.0782996
0.0376461
-0.0795424
0.0379392
-0.0808056
0.0382316
-0.0820884
0.0385247
-0.0833906
0.0388206
-0.0847138
-0.0860589
0.039116
0.000418456
-0.00143776
0.00169804
-0.00602382
0.00382733
-0.0121591
0.00668137
-0.0194038
0.0100092
-0.0271316
0.0134832
-0.0346501
0.0167869
-0.0413784
0.0196904
-0.0469723
0.0220811
-0.0513453
0.0239523
-0.0546091
0.0253684
-0.0569835
0.026426
-0.058716
0.027224
-0.0600287
0.0278464
-0.0610939
0.0283551
-0.0620308
0.0287917
-0.062914
0.0291814
-0.0637862
0.0295386
-0.0646695
0.029871
-0.0655744
0.0301829
-0.0665051
0.0304765
-0.0674628
0.0307535
-0.0684477
0.0310152
-0.0694594
0.0312628
-0.0704975
0.0314975
-0.0715618
0.0317209
-0.0726521
0.0319343
-0.0737682
0.0321391
-0.0749102
0.0323366
-0.0760776
0.0325281
-0.0772699
0.0327146
-0.0784861
0.032897
-0.0797248
0.0330762
-0.0809848
0.0332531
-0.0822653
0.0334292
-0.0835668
0.0336062
-0.0848908
-0.0862354
0.0337828
0.000468638
-0.0019064
0.0018526
-0.00740779
0.00408331
-0.0143898
0.0069672
-0.0222877
0.0101965
-0.0303609
0.0134254
-0.037879
0.016364
-0.0443171
0.018837
-0.0494453
0.0207901
-0.0532983
0.0222605
-0.0560795
0.023336
-0.058059
0.0241179
-0.0594979
0.0246973
-0.0606082
0.0251447
-0.0615413
0.0255082
-0.0623942
0.0258178
-0.0632236
0.0260908
-0.0640592
0.0263365
-0.0649152
0.0265598
-0.0657977
0.0267635
-0.0667087
0.0269491
-0.0676484
0.027118
-0.0686166
0.0272714
-0.0696127
0.0274103
-0.0706365
0.027536
-0.0716875
0.0276498
-0.0727659
0.0277529
-0.0738714
0.0278467
-0.0750039
0.0279323
-0.0761632
0.0280107
-0.0773484
0.0280829
-0.0785582
0.0281494
-0.0797913
0.0282111
-0.0810464
0.0282689
-0.0823231
0.0283243
-0.0836222
0.0283786
-0.0849451
-0.0862891
0.0284323
0.000514404
-0.0024208
0.00198247
-0.00887585
0.004272
-0.0166793
0.0071231
-0.0251388
0.0101865
-0.0334242
0.0131195
-0.040812
0.015674
-0.0468716
0.0177315
-0.0515028
0.0192876
-0.0548543
0.0204107
-0.0572026
0.0211999
-0.0588482
0.0217529
-0.0600509
0.0221495
-0.0610047
0.0224463
-0.0618381
0.0226796
-0.0626276
0.0228707
-0.0634147
0.0230311
-0.0642196
0.0231669
-0.065051
0.0232814
-0.0659122
0.0233763
-0.0668036
0.023453
-0.0677251
0.0235127
-0.0686762
0.0235563
-0.0696564
0.023585
-0.0706652
0.0235999
-0.0717024
0.0236021
-0.0727681
0.0235929
-0.0738621
0.0235734
-0.0749844
0.0235445
-0.0761344
0.0235073
-0.0773111
0.0234623
-0.0785132
0.0234103
-0.0797393
0.0233518
-0.0809879
0.0232876
-0.082259
0.0232191
-0.0835537
0.0231473
-0.0848733
-0.0862155
0.0230737
0.000553945
-0.00297475
0.00208225
-0.0104042
0.00438573
-0.0189828
0.00714538
-0.0278985
0.00998852
-0.0362674
0.0125942
-0.0434176
0.0147642
-0.0490416
0.0164333
-0.0531719
0.0176362
-0.0560573
0.0184609
-0.0580274
0.0190085
-0.0593958
0.0193682
-0.0604106
0.019607
-0.0612434
0.0197691
-0.0620002
0.0198814
-0.0627398
0.0199585
-0.0634918
0.0200082
-0.0642693
0.0200346
-0.0650774
0.0200398
-0.0659174
0.0200253
-0.0667891
0.0199923
-0.0676921
0.0199416
-0.0686256
0.0198743
-0.0695891
0.0197914
-0.0705823
0.0196939
-0.0716049
0.0195829
-0.0726571
0.0194594
-0.0737387
0.0193245
-0.0748495
0.0191791
-0.0759889
0.0190239
-0.0771559
0.0188596
-0.0783489
0.0186868
-0.0795665
0.018506
-0.0808071
0.0183179
-0.0820709
0.0181235
-0.0833592
0.0179233
-0.0846732
-0.0860114
0.0177192
0.000586841
-0.00356159
0.00214948
-0.0119668
0.00442186
-0.0212552
0.00703787
-0.0305145
0.00962055
-0.03885
0.0118843
-0.0456814
0.013683
-0.0508403
0.0149971
-0.0544861
0.0158897
-0.0569498
0.0164581
-0.0585957
0.0167993
-0.0597369
0.0169914
-0.0606028
0.0170892
-0.0613412
0.0171265
-0.0620376
0.0171227
-0.0627361
0.0170881
-0.0634572
0.0170278
-0.0642091
0.0169446
-0.0649942
0.0168402
-0.0658129
0.0167156
-0.0666646
0.0165719
-0.0675484
0.01641
-0.0684637
0.0162308
-0.0694099
0.0160352
-0.0703866
0.015824
-0.0713938
0.0155984
-0.0724315
0.0153592
-0.0734994
0.0151072
-0.0745976
0.0148434
-0.0757251
0.0145684
-0.0768809
0.0142828
-0.0780633
0.0139872
-0.0792709
0.0136822
-0.080502
0.0133684
-0.0817572
0.013047
-0.0830378
0.0127185
-0.0843447
0.012385
-0.0856779
-0.000731353
0.000894516
-0.000163163
-0.00236304
0.00194806
-0.000316372
-0.00453853
0.00254868
-0.000373191
-0.00703487
0.00287277
-0.000376421
-0.00972707
0.00304296
-0.000350756
-0.0125549
0.00313711
-0.000309302
-0.0154933
0.00319653
-0.000258098
-0.0185321
0.00323837
-0.000199574
-0.0216646
0.00326712
-0.000134638
-0.0248833
0.00328217
-6.34778e-05
-0.028178
0.00328154
1.31973e-05
-0.0315358
0.00326315
9.46834e-05
-0.034942
0.003225
0.000181174
-0.0383793
0.00316554
0.000271702
-0.0418284
0.00308363
0.000365476
-0.0452685
0.00297846
0.000461624
-0.0486773
0.00284961
0.000559195
-0.0520315
0.00269702
0.000657178
-0.055307
0.00252101
0.000754537
-0.0584794
0.00232219
0.000850231
-0.0615241
0.00210147
0.000943251
-0.0644167
0.00185997
0.00103264
-0.0671332
0.00159895
0.00111754
-0.0696501
0.00131967
0.00119716
-0.0719443
0.00102334
0.00127086
-0.0739936
0.000711072
0.00133827
-0.0757762
0.000383279
0.00139935
-0.0772656
3.582e-05
0.00145357
-0.0784498
-0.000313859
0.00149806
-0.0792997
-0.000685824
0.00153569
-0.0797951
-0.0010713
0.0015667
-0.0799127
-0.00147358
0.00159122
-0.0796278
-0.00189513
0.00161021
-0.0789146
-0.00233713
0.00162387
-0.077747
-0.00279965
0.00163207
-0.0760975
-0.00328165
0.00163219
-0.00379593
-0.0739196
0.00161803
-0.000670846
0.00156536
-0.00219278
0.00346999
-0.00424466
0.00460056
-0.00661685
0.00524497
-0.00918593
0.00561204
-0.0118885
0.00583971
-0.0146959
0.00600392
-0.017595
0.00613741
-0.020577
0.00624919
-0.023633
0.00633817
-0.0267516
0.00640014
-0.029919
0.00643046
-0.0331188
0.00642485
-0.0363329
0.00637959
-0.0395408
0.00629162
-0.042721
0.00615857
-0.0458501
0.00597873
-0.0489042
0.00575114
-0.0518587
0.00547551
-0.0546888
0.00515225
-0.0573696
0.00478235
-0.059877
0.00436734
-0.0621872
0.00390911
-0.0642772
0.0034097
-0.066125
0.00287117
-0.0677093
0.00229536
-0.0690095
0.00168342
-0.0700085
0.00103483
-0.070667
0.000344678
-0.0709852
-0.000367607
-0.0709447
-0.00111179
-0.0705155
-0.00190285
-0.0696731
-0.00273745
-0.0683952
-0.00361505
-0.0666589
-0.00453593
-0.0644454
-0.00549522
-0.0064678
-0.0617735
-0.00056816
0.00213352
-0.00190009
0.00480192
-0.00373532
0.00643579
-0.00588868
0.00739832
-0.00824067
0.00796403
-0.0107231
0.0083221
-0.0133006
0.00858146
-0.0159549
0.00879172
-0.0186737
0.00896802
-0.0214454
0.00910984
-0.0242565
0.00921123
-0.0270913
0.00926526
-0.0299318
0.0092654
-0.0327582
0.00920593
-0.0355486
0.00908205
-0.03828
0.00888998
-0.0409283
0.00862697
-0.0434685
0.00829137
-0.0458756
0.00788265
-0.0481247
0.00740131
-0.0501912
0.00684887
-0.0520516
0.00622774
-0.0536835
0.00554103
-0.0550661
0.00479227
-0.05618
0.00398507
-0.0570073
0.00312266
-0.0575313
0.00220744
-0.0577366
0.00124011
-0.0576009
0.000208929
-0.0571261
-0.000842372
-0.0562775
-0.00196043
-0.0550359
-0.00314445
-0.0533766
-0.00439669
-0.0512732
-0.00571848
-0.0487013
-0.00710787
-0.0456373
-0.00855913
-0.0100048
-0.0421004
-0.000433187
0.00256671
-0.00150834
0.00587707
-0.00304543
0.00797288
-0.00489475
0.00924764
-0.00694489
0.0100142
-0.00912259
0.0104998
-0.0113842
0.010843
-0.013704
0.0111116
-0.0160649
0.0113289
-0.0184517
0.0114967
-0.0208488
0.0116083
-0.0232385
0.011655
-0.0256014
0.0116283
-0.0279161
0.0115207
-0.03016
0.011326
-0.0323093
0.0110392
-0.0343394
0.010657
-0.0362254
0.0101774
-0.0379424
0.00959967
-0.0394661
0.008925
-0.040773
0.00815576
-0.041841
0.00729572
-0.0426497
0.00634976
-0.0431809
0.00532353
-0.043419
0.00422312
-0.043351
0.00305465
-0.0429664
0.0018229
-0.0422528
0.00052645
-0.0412293
-0.000814555
-0.0398571
-0.0022146
-0.0381351
-0.0036824
-0.0360531
-0.00522642
-0.0335905
-0.00685929
-0.0307155
-0.00859355
-0.0273911
-0.0104322
-0.0235852
-0.012365
-0.0144322
-0.0191578
-0.000278624
0.00284533
-0.0010486
0.00664704
-0.00222215
0.00914643
-0.0036953
0.0107208
-0.00537088
0.0116897
-0.00717271
0.0123016
-0.0090482
0.0127185
-0.0109631
0.0130265
-0.012894
0.0132598
-0.014822
0.0134247
-0.0167291
0.0135154
-0.0185963
0.0135222
-0.0204035
0.0134354
-0.022129
0.0132462
-0.0237503
0.0129473
-0.0252442
0.0125331
-0.0265871
0.0119999
-0.0277554
0.0113457
-0.0287259
0.0105702
-0.0294762
0.00967533
-0.0299852
0.00866469
-0.0302331
0.00754367
-0.0302026
0.00631921
-0.0298786
0.00499954
-0.0292492
0.00359369
-0.0283053
0.00211082
-0.0270386
0.000556216
-0.0254631
-0.00104909
-0.0235646
-0.00271306
-0.0213442
-0.00443501
-0.0188058
-0.00622081
-0.0159476
-0.00808464
-0.0127643
-0.0100426
-0.00923674
-0.0121211
-0.00531114
-0.0143578
-0.000924941
-0.0167512
-0.0192815
0.00392441
-0.000118668
0.002964
-0.000557344
0.00708572
-0.0013225
0.00991159
-0.00236406
0.0117624
-0.00360681
0.0129325
-0.00497637
0.0136712
-0.00641271
0.0141549
-0.00787245
0.0144862
-0.00932503
0.0147124
-0.0107472
0.0148469
-0.0121186
0.0148869
-0.0134197
0.0148233
-0.0146303
0.014646
-0.0157298
0.0143456
-0.016697
0.0139145
-0.0175107
0.0133468
-0.0181497
0.0126389
-0.0185932
0.0117892
-0.0188212
0.0107982
-0.0188147
0.00966887
-0.0185563
0.00840625
-0.0180302
0.0070176
-0.0172232
0.00551213
-0.0161244
0.00390083
-0.0147264
0.00219567
-0.0130207
0.000405084
-0.0110219
-0.0014426
-0.00871866
-0.00335229
-0.00611756
-0.00531416
-0.00322458
-0.00732799
-4.41335e-05
-0.00940125
0.00341964
-0.0115484
0.00717591
-0.0137988
0.0112337
-0.0161788
0.0156299
-0.018754
0.0203423
-0.0214636
-0.0245999
0.0256606
3.26216e-05
0.00293138
-7.25977e-05
0.00719094
-0.000409889
0.0102489
-0.000985141
0.0123376
-0.0017535
0.0137008
-0.00264973
0.0145674
-0.00361023
0.0151154
-0.00458354
0.0154595
-0.00553142
0.0156602
-0.00642541
0.0157409
-0.00724265
0.0157041
-0.00796286
0.0155435
-0.00856671
0.0152498
-0.00903519
0.0148141
-0.00934954
0.0142289
-0.00949139
0.0134887
-0.00944294
0.0125905
-0.00918721
0.0115334
-0.00870849
0.0103195
-0.00799221
0.0089526
-0.00702575
0.0074398
-0.00579861
0.00579046
-0.00430287
0.00401639
-0.00253366
0.00213162
-0.000484634
0.000146641
0.00182827
-0.00190782
0.00441535
-0.00402969
0.00726671
-0.00620365
0.0103757
-0.00842316
0.0137378
-0.0106901
0.0173525
-0.013016
0.0212282
-0.0154241
0.0253809
-0.0179515
0.0298259
-0.0206238
0.0346205
-0.0235487
0.0397222
-0.0265653
-0.0302549
0.0453773
0.000162629
0.00276875
0.00036575
0.00698782
0.000449512
0.0101651
0.000351079
0.012436
7.87909e-05
0.0139731
-0.000319228
0.0149655
-0.000782346
0.0155785
-0.00125423
0.0159314
-0.00168959
0.0160956
-0.00205415
0.0161054
-0.00232165
0.0159716
-0.00247072
0.0156926
-0.00248273
0.0152619
-0.00234058
0.014672
-0.00202831
0.0139166
-0.00153096
0.0129913
-0.000834739
0.0118942
7.27981e-05
0.0106259
0.00120279
0.00918949
0.00256396
0.00759143
0.00416313
0.00584063
0.00600444
0.00394915
0.00808909
0.00193174
0.0104153
-0.000194543
0.0129739
-0.00241205
0.0157657
-0.00469954
0.0187792
-0.00704317
0.0220078
-0.00943227
0.025449
-0.0118644
0.0291082
-0.0143492
0.0329993
-0.0169071
0.0371499
-0.0195747
0.0415972
-0.0223988
0.0463771
-0.0254037
0.0515627
-0.0287343
0.0570973
-0.0320999
-0.0363453
0.0631876
0.000262617
0.00250613
0.000728478
0.00652196
0.00119503
0.00969857
0.00155423
0.0120768
0.00177551
0.0137519
0.00188162
0.0148593
0.00192214
0.015538
0.00195263
0.0159009
0.00202272
0.0160255
0.00217209
0.0159561
0.00243106
0.0157126
0.00282294
0.0153007
0.00336631
0.0147185
0.00407658
0.0139617
0.00496692
0.0130263
0.00604854
0.0119097
0.00733082
0.010612
0.00882108
0.00913564
0.0105242
0.00748633
0.012443
0.00567269
0.0145768
0.00370675
0.0169222
0.00160378
0.0194715
-0.000617583
0.0222186
-0.00294164
0.0251502
-0.00534361
0.0282582
-0.00780751
0.0315363
-0.0103213
0.0349862
-0.0128822
0.0386205
-0.0154987
0.0424671
-0.0181958
0.0465657
-0.0210057
0.0509754
-0.0239844
0.0557491
-0.0271725
0.0609469
-0.0306015
0.0666103
-0.0343977
0.0726944
-0.038184
-0.0429297
0.0792788
0.000327641
0.00217849
0.000991683
0.00585792
0.00177559
0.00891465
0.00254136
0.0113111
0.00322359
0.0130696
0.00381558
0.0142674
0.00434792
0.0150056
0.00486778
0.015381
0.00542396
0.0154693
0.00605901
0.015321
0.00680677
0.0149649
0.00769294
0.0144145
0.00873672
0.0136747
0.0099524
0.012746
0.0113505
0.0116282
0.0129383
0.0103219
0.0147201
0.00883013
0.0166973
0.00715846
0.018868
0.0053156
0.0212271
0.00331358
0.0237656
0.00116831
0.0264736
-0.0011043
0.0293409
-0.00348481
0.0323497
-0.00595051
0.0354921
-0.008486
0.0387657
-0.0110811
0.0421798
-0.0137354
0.04576
-0.0164624
0.0495489
-0.0192876
0.0536093
-0.0222563
0.0580088
-0.0254052
0.0628296
-0.0288053
0.068111
-0.0324538
0.0739094
-0.0364
0.0801552
-0.0406434
0.0868231
-0.044852
-0.0498287
0.0937221
0.000357401
0.00182109
0.001145
0.00507032
0.00215799
0.00790166
0.00324772
0.0102214
0.00432419
0.0119931
0.00535254
0.013239
0.00633964
0.0140185
0.00731704
0.0144036
0.00832589
0.0144605
0.00940672
0.0142402
0.0105942
0.0137774
0.0119153
0.0130934
0.0133897
0.0122003
0.0150307
0.011105
0.0168462
0.00981263
0.0188395
0.00832862
0.0210095
0.00666017
0.0233507
0.0048173
0.0258531
0.00281314
0.0285035
0.000663161
0.0312954
-0.00162354
0.0342094
-0.0040183
0.0372308
-0.00650627
0.0403555
-0.00907519
0.0435897
-0.0117201
0.0469561
-0.0144475
0.0504977
-0.017277
0.0542778
-0.0202425
0.0583745
-0.0233844
0.0628742
-0.0267559
0.0678452
-0.0303761
0.0733441
-0.0343042
0.0793413
-0.0384511
0.0858265
-0.0428852
0.0925667
-0.0473836
0.0995515
-0.0518368
-0.0565441
0.106267
0.000355592
0.0014655
0.00119088
0.00423503
0.00233164
0.0067609
0.00363723
0.00891577
0.00500734
0.010623
0.00638618
0.0118602
0.0077573
0.0126474
0.00913241
0.0130285
0.0105388
0.0130541
0.0120089
0.0127701
0.0135735
0.0122129
0.0152576
0.0114092
0.0170798
0.0103781
0.0190514
0.00913345
0.0211773
0.00768677
0.0234565
0.00604935
0.0258833
0.00423343
0.0284475
0.00225309
0.0311214
0.000139243
0.0339222
-0.00213768
0.0368153
-0.00451663
0.0397981
-0.00700115
0.0428764
-0.00958456
0.0460717
-0.0122705
0.0494264
-0.0150748
0.0530042
-0.0180253
0.0568865
-0.0211593
0.0611627
-0.0245187
0.0659138
-0.0281354
0.0711953
-0.0320375
0.077013
-0.0361938
0.0833223
-0.0406135
0.089983
-0.0451118
0.0968617
-0.0497638
0.103613
-0.054135
0.110221
-0.0584451
-0.0623143
0.115992
0.000328498
0.001137
0.00114261
0.00342091
0.0023089
0.00559462
0.00370891
0.00751575
0.00524651
0.00908543
0.00685588
0.0102508
0.00850286
0.0110004
0.0101797
0.0113517
0.0118966
0.0113372
0.013673
0.0109936
0.0155306
0.0103553
0.0174886
0.00945132
0.0195608
0.00830594
0.0217549
0.00693933
0.0240723
0.00536936
0.0265087
0.00361289
0.0290552
0.00168696
0.0316968
-0.000388477
0.0344508
-0.00261474
0.0372815
-0.00496845
0.0402106
-0.00744574
0.0432602
-0.0100507
0.0464736
-0.012798
0.0499154
-0.0157123
0.0536672
-0.0188266
0.0578182
-0.0221763
0.0624503
-0.0257914
0.067619
-0.0296873
0.0733354
-0.0338519
0.0795499
-0.038252
0.0861493
-0.0427933
0.0929543
-0.0474184
0.0997369
-0.0518944
0.106263
-0.0562897
0.11222
-0.0600923
0.117582
-0.0638074
-0.066506
0.121774
0.00028323
0.000853772
0.00102008
0.00268406
0.00212034
0.00449436
0.00349559
0.0061405
0.00506493
0.00751609
0.00676373
0.00855201
0.0085486
0.00921553
0.010397
0.00950332
0.0123029
0.00943131
0.0142709
0.00902554
0.0163108
0.00831539
0.0184324
0.00732973
0.0206431
0.00609519
0.0229467
0.00463577
0.0253431
0.00297298
0.0278295
0.00112651
0.0304065
-0.000890085
0.0330858
-0.00306773
0.0358708
-0.00539972
0.0387921
-0.00788981
0.0418981
-0.0105518
0.0452552
-0.0134078
0.0489441
-0.0164868
0.0530506
-0.0198189
0.0576516
-0.0234276
0.0627967
-0.0273213
0.0684913
-0.031486
0.0746829
-0.0358789
0.0812576
-0.0404266
0.0880382
-0.0450325
0.0948096
-0.0495647
0.101317
-0.0539257
0.107336
-0.0579132
0.112642
-0.0615962
0.117098
-0.0645483
0.120708
-0.0674169
-0.0690498
0.123251
0.000226207
0.000627565
0.000844992
0.00206528
0.00180681
0.00353255
0.00305517
0.00489213
0.0045305
0.00604076
0.00617789
0.00690462
0.00795332
0.0074401
0.00982637
0.00763026
0.0117795
0.00747823
0.0138049
0.00700012
0.0159013
0.00621895
0.0180708
0.00516026
0.0203168
0.00384916
0.0226442
0.00230839
0.0250596
0.00055754
0.0275801
-0.00139399
0.0302278
-0.00353771
0.0330372
-0.00587722
0.0360614
-0.00842389
0.0393692
-0.0111976
0.0430401
-0.0142226
0.047155
-0.0175228
0.0517823
-0.0211141
0.0569613
-0.0249979
0.0626872
-0.0291534
0.0689001
-0.0335343
0.0754816
-0.0380674
0.082258
-0.0426553
0.0890164
-0.047185
0.0955188
-0.0515349
0.101542
-0.0555882
0.106876
-0.0592599
0.111408
-0.0624449
0.115041
-0.0652288
0.117852
-0.0673599
0.119917
-0.0694819
-0.0704837
0.121351
0.000162583
0.000464982
0.000638005
0.00158985
0.00141273
0.00275783
0.00246017
0.00384469
0.00374372
0.00475721
0.00522312
0.00542522
0.00686081
0.00580241
0.0086262
0.00586488
0.0104975
0.00560697
0.0124616
0.00503603
0.0145133
0.00416716
0.016655
0.0030186
0.0188964
0.00160781
0.0212549
-5.01877e-05
0.0237641
-0.00195159
0.026464
-0.00409396
0.0294133
-0.00648696
0.032682
-0.00914598
0.036348
-0.0120899
0.040486
-0.0153355
0.0451544
-0.0188911
0.0503812
-0.0227496
0.0561504
-0.0268834
0.0623937
-0.0312411
0.0689879
-0.0357477
0.075761
-0.0403073
0.0825047
-0.0448112
0.0889942
-0.0491448
0.0950129
-0.0532037
0.100374
-0.056896
0.104955
-0.0601688
0.108687
-0.0629919
0.11162
-0.0653783
0.113803
-0.0674119
0.115458
-0.0690152
0.116667
-0.0706908
-0.0714953
0.117679
9.69148e-05
0.000368068
0.000419091
0.00126768
0.000984203
0.00219272
0.00179194
0.00303696
0.00282774
0.00372141
0.0040685
0.00418445
0.00548874
0.00438217
0.00706579
0.00428783
0.00878355
0.00388921
0.010635
0.00318461
0.0126238
0.00217835
0.014766
0.000876344
0.0170915
-0.00071765
0.0196458
-0.00260454
0.0224859
-0.0047916
0.0256818
-0.0072899
0.0293075
-0.0101126
0.033431
-0.0132695
0.038102
-0.0167609
0.0433384
-0.0205719
0.049115
-0.0246677
0.0553568
-0.0289913
0.0619381
-0.0334646
0.0686886
-0.0379917
0.0754068
-0.0424658
0.0818775
-0.046778
0.0878945
-0.0508282
0.0932832
-0.0545336
0.0979215
-0.057842
0.101754
-0.0607287