/*--------------------------------*- C++ -*----------------------------------*\
| =========                 |                                                 |
| \\      /  F ield         | OpenFOAM: The Open Source CFD Toolbox           |
|  \\    /   O peration     | Version:  2512                                  |
|   \\  /    A nd           | Website:  www.openfoam.com                      |
|    \\/     M anipulation  |                                                 |
\*---------------------------------------------------------------------------*/
FoamFile
{
    version     2.0;
    format      ascii;
    arch        "LSB;label=32;scalar=64";
    class       volScalarField;
    location    "98.35";
    object      p;
}
// * * * * * * * * * * * * * * * * * * * * * * * * * * * * * * * * * * * * * //

dimensions      [0 2 -2 0 0 0 0];

internalField   nonuniform List<scalar> 
13248
(
-0.311131
-0.312849
-0.31331
-0.313016
-0.311865
-0.309421
-0.305187
-0.298822
-0.290071
-0.278874
-0.26544
-0.25026
-0.234032
-0.217549
-0.201551
-0.186627
-0.17314
-0.16127
-0.150956
-0.14216
-0.134568
-0.128084
-0.122272
-0.116668
-0.315724
-0.316425
-0.316301
-0.315601
-0.314139
-0.311445
-0.307059
-0.300562
-0.291677
-0.280379
-0.266946
-0.25193
-0.236044
-0.220015
-0.204461
-0.189827
-0.176373
-0.164203
-0.153299
-0.143573
-0.13481
-0.126862
-0.119323
-0.112193
-0.321164
-0.320744
-0.31976
-0.318293
-0.316146
-0.312897
-0.308038
-0.301097
-0.291783
-0.280115
-0.266449
-0.251392
-0.235651
-0.219884
-0.204615
-0.1902
-0.176826
-0.164561
-0.15334
-0.14309
-0.133618
-0.124841
-0.11657
-0.108817
-0.327321
-0.32576
-0.323732
-0.321278
-0.318234
-0.314179
-0.308538
-0.300775
-0.290625
-0.278211
-0.264012
-0.248701
-0.232972
-0.217413
-0.202443
-0.188307
-0.175112
-0.16286
-0.151506
-0.140984
-0.131164
-0.122061
-0.11342
-0.105448
-0.334576
-0.3319
-0.328737
-0.325224
-0.321141
-0.316003
-0.309144
-0.300035
-0.288555
-0.275033
-0.260094
-0.244448
-0.228726
-0.213386
-0.198709
-0.184838
-0.171818
-0.159646
-0.148284
-0.137673
-0.127748
-0.11847
-0.109697
-0.101617
-0.343443
-0.339408
-0.335307
-0.330741
-0.325424
-0.318769
-0.310092
-0.299045
-0.285806
-0.270947
-0.255189
-0.23919
-0.22344
-0.208245
-0.193775
-0.180099
-0.167236
-0.155168
-0.143856
-0.133256
-0.123312
-0.113999
-0.105206
-0.0971029
-0.354527
-0.349216
-0.343962
-0.338171
-0.331229
-0.322429
-0.311263
-0.297779
-0.282522
-0.266245
-0.249649
-0.233256
-0.217395
-0.202245
-0.187884
-0.174337
-0.161592
-0.149624
-0.138396
-0.127864
-0.117989
-0.108717
-0.0999961
-0.0919302
-0.367942
-0.3612
-0.354748
-0.347445
-0.338278
-0.32659
-0.312337
-0.296101
-0.278738
-0.261042
-0.243594
-0.226747
-0.21068
-0.195467
-0.181124
-0.167637
-0.154979
-0.14311
-0.131988
-0.121568
-0.111799
-0.102635
-0.0940535
-0.0860573
-0.383501
-0.375273
-0.367445
-0.358127
-0.345948
-0.330638
-0.312887
-0.293793
-0.274359
-0.255288
-0.236979
-0.219616
-0.203257
-0.1879
-0.173511
-0.160047
-0.147459
-0.135694
-0.124699
-0.11442
-0.104806
-0.0958089
-0.0874086
-0.0795294
-0.400675
-0.390957
-0.381437
-0.369367
-0.353301
-0.333798
-0.312381
-0.290489
-0.269091
-0.2487
-0.229524
-0.211603
-0.194901
-0.179354
-0.164888
-0.151432
-0.138915
-0.127271
-0.116434
-0.106339
-0.0969268
-0.0881488
-0.0799614
-0.0722414
-0.418525
-0.407345
-0.395645
-0.379893
-0.35913
-0.335101
-0.310046
-0.285511
-0.262278
-0.240638
-0.220621
-0.202146
-0.185102
-0.16937
-0.154843
-0.14142
-0.12901
-0.11753
-0.106901
-0.0970509
-0.0879139
-0.0794329
-0.0715293
-0.0640863
-0.435751
-0.423156
-0.408597
-0.388171
-0.362079
-0.333415
-0.304883
-0.277913
-0.253018
-0.230252
-0.209487
-0.190537
-0.173223
-0.157381
-0.142866
-0.129551
-0.117324
-0.106085
-0.0957432
-0.0862186
-0.0774456
-0.069363
-0.0618809
-0.0549149
-0.501406
-0.50179
-0.50169
-0.503714
-0.508681
-0.516659
-0.527486
-0.540889
-0.556438
-0.573494
-0.591188
-0.608458
-0.624115
-0.637032
-0.644413
-0.64662
-0.642397
-0.630967
-0.612034
-0.585906
-0.553574
-0.516656
-0.47811
-0.440054
-0.471567
-0.472696
-0.472337
-0.473164
-0.476192
-0.481497
-0.488902
-0.498124
-0.508746
-0.52018
-0.531654
-0.542224
-0.550736
-0.555827
-0.557579
-0.554334
-0.545594
-0.531099
-0.511002
-0.485995
-0.45733
-0.426656
-0.396199
-0.36899
-0.441636
-0.443263
-0.442584
-0.442255
-0.443339
-0.445904
-0.449744
-0.454544
-0.459882
-0.465213
-0.469876
-0.473084
-0.474004
-0.471435
-0.465747
-0.456066
-0.442135
-0.424099
-0.402516
-0.378396
-0.353241
-0.328814
-0.30664
-0.289139
-0.413254
-0.415185
-0.414295
-0.413091
-0.412576
-0.412778
-0.413455
-0.414261
-0.414761
-0.414442
-0.412723
-0.409016
-0.402649
-0.393612
-0.381456
-0.366118
-0.347831
-0.327165
-0.305046
-0.282714
-0.261665
-0.243805
-0.230409
-0.220311
-0.387526
-0.38966
-0.388763
-0.387088
-0.385493
-0.383945
-0.382169
-0.379804
-0.37642
-0.371544
-0.364702
-0.355714
-0.344084
-0.329742
-0.312762
-0.293469
-0.272468
-0.250654
-0.229181
-0.209455
-0.19285
-0.180577
-0.175235
-0.173575
-0.365037
-0.36736
-0.366671
-0.364925
-0.362787
-0.360133
-0.356665
-0.352035
-0.345858
-0.337742
-0.327574
-0.314762
-0.299424
-0.281659
-0.2618
-0.240437
-0.218415
-0.196837
-0.176914
-0.159916
-0.147544
-0.139645
-0.139904
-0.143625
-0.346022
-0.348576
-0.348247
-0.346713
-0.344439
-0.341202
-0.336679
-0.330561
-0.322553
-0.312416
-0.299794
-0.284664
-0.267137
-0.247513
-0.226321
-0.204333
-0.182466
-0.161987
-0.144122
-0.129665
-0.120835
-0.116086
-0.119539
-0.126125
-0.330609
-0.333432
-0.333502
-0.332291
-0.330101
-0.326614
-0.321487
-0.314436
-0.305227
-0.293673
-0.27962
-0.263136
-0.244459
-0.224034
-0.202557
-0.18093
-0.160199
-0.141482
-0.126111
-0.114401
-0.108676
-0.106603
-0.111887
-0.119664
-0.318983
-0.322044
-0.322452
-0.32154
-0.319508
-0.315979
-0.310588
-0.303062
-0.293208
-0.280912
-0.26617
-0.249149
-0.230217
-0.209858
-0.189067
-0.168708
-0.149863
-0.133553
-0.120879
-0.112069
-0.108506
-0.10858
-0.113945
-0.121406
-0.31138
-0.314536
-0.31517
-0.314504
-0.312677
-0.309289
-0.303975
-0.296462
-0.286579
-0.274265
-0.259588
-0.242796
-0.224355
-0.204953
-0.185492
-0.166935
-0.150274
-0.136388
-0.125903
-0.119184
-0.116297
-0.116827
-0.120233
-0.125225
-0.307864
-0.310858
-0.311595
-0.311169
-0.309629
-0.306572
-0.301681
-0.294611
-0.285182
-0.27333
-0.259163
-0.243017
-0.225451
-0.207234
-0.189271
-0.172469
-0.15763
-0.145373
-0.135964
-0.129552
-0.125788
-0.124551
-0.124836
-0.126273
-0.308153
-0.310672
-0.311407
-0.311122
-0.309861
-0.307223
-0.302748
-0.296143
-0.287175
-0.275775
-0.262096
-0.246548
-0.229778
-0.212594
-0.195845
-0.180296
-0.166503
-0.15482
-0.145271
-0.137803
-0.132088
-0.127904
-0.12493
-0.123272
-0.39881
-0.363451
-0.343294
-0.340806
-0.35543
-0.38301
-0.415195
-0.441553
-0.450582
-0.430859
-0.380626
-0.313666
-0.248816
-0.198876
-0.166959
-0.150984
-0.148133
-0.156201
-0.176545
-0.214768
-0.269466
-0.32086
-0.341639
-0.318186
-0.265782
-0.20759
-0.160607
-0.132153
-0.119863
-0.121625
-0.141476
-0.1813
-0.226275
-0.250087
-0.233609
-0.190469
-0.144265
-0.110318
-0.0922261
-0.0906376
-0.103203
-0.116605
-0.116254
-0.10188
-0.0865275
-0.0753391
-0.071378
-0.0744957
-0.0786449
-0.0765886
-0.0698816
-0.056717
-0.0478731
-0.0433004
-0.0378833
-0.030137
-0.0238597
-0.0204909
-0.0193388
-0.00764502
-0.343036
-0.32783
-0.326553
-0.340018
-0.366024
-0.398763
-0.431105
-0.455545
-0.463073
-0.442033
-0.390341
-0.32187
-0.255309
-0.203097
-0.167993
-0.147912
-0.140784
-0.144356
-0.158868
-0.188968
-0.234464
-0.279489
-0.299329
-0.281528
-0.238175
-0.188659
-0.148781
-0.125826
-0.118197
-0.124988
-0.151084
-0.197755
-0.248536
-0.275515
-0.257647
-0.209373
-0.156082
-0.114663
-0.089947
-0.0818522
-0.0879616
-0.0965041
-0.0949957
-0.0845911
-0.0743829
-0.0694235
-0.0719509
-0.0811117
-0.0899851
-0.0880272
-0.0799758
-0.0617143
-0.0467893
-0.0365307
-0.0257423
-0.0208285
-0.0172897
-0.0198558
-0.0257055
-0.0108619
-0.279943
-0.28595
-0.302411
-0.330302
-0.364882
-0.400171
-0.431646
-0.452892
-0.458349
-0.436923
-0.38585
-0.318307
-0.25285
-0.201105
-0.165017
-0.142252
-0.130842
-0.129634
-0.138194
-0.159856
-0.195559
-0.233635
-0.253246
-0.241765
-0.207654
-0.166684
-0.133684
-0.116124
-0.112942
-0.124507
-0.156283
-0.208646
-0.264269
-0.294699
-0.277047
-0.225018
-0.165709
-0.117562
-0.0869465
-0.0731829
-0.0736929
-0.0780629
-0.0752482
-0.0678927
-0.062
-0.0630939
-0.0722159
-0.08762
-0.101292
-0.0991872
-0.0895563
-0.0664216
-0.0455927
-0.0299322
-0.0136893
-0.0117905
-0.0107338
-0.0191274
-0.0317625
-0.0140397
-0.226982
-0.247558
-0.277377
-0.314614
-0.353774
-0.389664
-0.423017
-0.43745
-0.440008
-0.417342
-0.367878
-0.304208
-0.242965
-0.193808
-0.158369
-0.134534
-0.120179
-0.11419
-0.116795
-0.130388
-0.156694
-0.18751
-0.206541
-0.201158
-0.175675
-0.142607
-0.115931
-0.103247
-0.103929
-0.119282
-0.155175
-0.212061
-0.272213
-0.306367
-0.290464
-0.236579
-0.172709
-0.118965
-0.0832603
-0.0647868
-0.0606717
-0.0615682
-0.0572408
-0.0519904
-0.0494875
-0.0563075
-0.0719974
-0.0938154
-0.112444
-0.109982
-0.0984583
-0.0707296
-0.0442987
-0.0236714
-0.00191587
-0.00310971
-0.00425664
-0.0182112
-0.037406
-0.017145
-0.187332
-0.215733
-0.251705
-0.292261
-0.331769
-0.364018
-0.384887
-0.407952
-0.410438
-0.387569
-0.341119
-0.283464
-0.228401
-0.183245
-0.149283
-0.12521
-0.1092
-0.0999665
-0.097173
-0.103064
-0.120402
-0.14401
-0.161534
-0.161446
-0.143285
-0.117327
-0.0962733
-0.0876819
-0.0915104
-0.109479
-0.147744
-0.207545
-0.271445
-0.309336
-0.297031
-0.243698
-0.176977
-0.11908
-0.0791358
-0.056826
-0.0489812
-0.0471345
-0.0411443
-0.0370561
-0.0369357
-0.0488892
-0.0711003
-0.0995428
-0.123297
-0.120332
-0.106562
-0.0745762
-0.0429335
-0.0178975
0.00939069
0.00519588
0.00206003
-0.0170304
-0.042547
-0.0201449
-0.16008
-0.189502
-0.225518
-0.265056
-0.303156
-0.335165
-0.358771
-0.374745
-0.373952
-0.35088
-0.308864
-0.258907
-0.211245
-0.17104
-0.139263
-0.115291
-0.0981546
-0.0867213
-0.0804259
-0.0801341
-0.0890055
-0.105217
-0.119925
-0.123809
-0.111456
-0.091898
-0.0757363
-0.0704179
-0.0766392
-0.0961006
-0.134957
-0.195371
-0.262085
-0.30357
-0.296387
-0.245961
-0.178358
-0.118054
-0.0748054
-0.0494762
-0.0386706
-0.0347765
-0.0270791
-0.0232561
-0.0245363
-0.0409014
-0.0693618
-0.104516
-0.133647
-0.130134
-0.113727
-0.0778867
-0.0415195
-0.0127467
0.0200719
0.0130922
0.00813882
-0.0155232
-0.0471053
-0.0230025
-0.142901
-0.169431
-0.201553
-0.237266
-0.271794
-0.302221
-0.324831
-0.33626
-0.332519
-0.310637
-0.274813
-0.233519
-0.193583
-0.158524
-0.129374
-0.105951
-0.087951
-0.0748166
-0.0658421
-0.0613366
-0.0633326
-0.0722415
-0.0827625
-0.0886784
-0.0810924
-0.06748
-0.0554845
-0.0525656
-0.0604017
-0.080477
-0.118104
-0.17646
-0.243752
-0.289109
-0.287392
-0.242773
-0.176834
-0.116052
-0.0705299
-0.0428795
-0.0297065
-0.0244068
-0.0151206
-0.0108546
-0.0126126
-0.0322563
-0.0666199
-0.108621
-0.143298
-0.139311
-0.119862
-0.0805908
-0.04006
-0.00830701
0.0299745
0.0205343
0.013917
-0.0136653
-0.0510144
-0.0256779
-0.135121
-0.155991
-0.181568
-0.211778
-0.241849
-0.266729
-0.285359
-0.293392
-0.288312
-0.26967
-0.241386
-0.208931
-0.176486
-0.146489
-0.120123
-0.0976995
-0.0793152
-0.0649039
-0.0539348
-0.0462876
-0.043081
-0.0455576
-0.0513094
-0.0564807
-0.0535117
-0.0450795
-0.0364857
-0.0352476
-0.0439538
-0.063641
-0.0988912
-0.153376
-0.218491
-0.267289
-0.270463
-0.234621
-0.172539
-0.11309
-0.0664461
-0.0371047
-0.0220087
-0.0158399
-0.00531216
-3.53252e-05
-0.00143979
-0.0232429
-0.0628368
-0.111324
-0.151875
-0.147691
-0.12486
-0.0826024
-0.038535
-0.00458993
0.0389517
0.0274775
0.0193336
-0.0114406
-0.0542157
-0.028128
-0.133565
-0.146269
-0.163634
-0.186486
-0.210097
-0.22957
-0.24288
-0.248545
-0.244607
-0.231276
-0.210953
-0.18659
-0.160768
-0.135402
-0.111789
-0.0906177
-0.0722672
-0.0570273
-0.0446643
-0.0348879
-0.0281092
-0.0253937
-0.0264217
-0.0295587
-0.0294472
-0.0250077
-0.0193743
-0.0192806
-0.0281499
-0.0470344
-0.0788755
-0.127417
-0.189277
-0.240543
-0.262965
-0.22325
-0.165819
-0.10907
-0.0625197
-0.0320876
-0.0154601
-0.00878959
0.00242914
0.00899999
0.00867924
-0.0136756
-0.0577146
-0.112778
-0.159195
-0.155295
-0.128695
-0.0838569
-0.0369466
-0.00158551
0.0468475
0.0338992
0.0243402
-0.0088792
-0.0566776
-0.0303123
-0.131261
-0.135986
-0.147067
-0.162811
-0.177641
-0.191689
-0.201682
-0.206847
-0.205591
-0.197764
-0.184251
-0.166524
-0.146299
-0.125125
-0.10425
-0.084603
-0.0667459
-0.0511517
-0.0378931
-0.0267456
-0.0177451
-0.0114121
-0.0082505
-0.00845084
-0.0107486
-0.00783518
-0.0046806
-0.00544775
-0.0139756
-0.0315436
-0.0596681
-0.10226
-0.157815
-0.208184
-0.231632
-0.205153
-0.156115
-0.103972
-0.058965
-0.0279475
-0.0100661
-0.00307691
0.00823726
0.0160973
0.0173521
-0.00424101
-0.051485
-0.111987
-0.16456
-0.161466
-0.131141
-0.0843609
-0.0353987
0.000560991
0.0534968
0.039759
0.028877
-0.00600152
-0.0583612
-0.0321872
-0.126296
-0.127297
-0.134097
-0.142424
-0.151133
-0.16057
-0.169055
-0.174598
-0.175894
-0.172235
-0.163654
-0.150877
-0.135045
-0.117401
-0.0990515
-0.0809792
-0.063879
-0.0482798
-0.0344254
-0.0223107
-0.0118361
-0.00318196
0.00326707
0.00646073
0.00669549
0.00759247
0.00778023
0.0061705
-0.00176806
-0.0176407
-0.0416753
-0.0770651
-0.126475
-0.175549
-0.201783
-0.188426
-0.146653
-0.099148
-0.0565326
-0.0252172
-0.00596274
0.00148379
0.0121803
0.0212533
0.0248446
0.00553614
-0.0435721
-0.109708
-0.168322
-0.166946
-0.132534
-0.0842556
-0.0339165
0.00188427
0.0586406
0.0450843
0.0329361
-0.0028648
-0.0592762
-0.0337271
-0.121684
-0.123204
-0.126115
-0.128507
-0.132
-0.137275
-0.142687
-0.147008
-0.149022
-0.147771
-0.142835
-0.134324
-0.122717
-0.108759
-0.0932732
-0.0771444
-0.0611401
-0.0459535
-0.0319067
-0.0192108
-0.007966
0.00183713
0.0104338
0.0166229
0.0189022
0.0177722
0.0172843
0.015027
0.0080865
-0.00672857
-0.0273524
-0.0557647
-0.0975642
-0.141393
-0.165903
-0.160716
-0.13157
-0.0909427
-0.0522281
-0.0221593
-0.00217135
0.00595576
0.0156816
0.0245867
0.0297878
0.0140701
-0.0346235
-0.104249
-0.168613
-0.169481
-0.132464
-0.0826768
-0.031634
0.00380381
0.0624488
0.0497622
0.0364123
0.000498148
-0.0593569
-0.0348288
-0.117409
-0.122291
-0.12377
-0.123523
-0.124448
-0.126593
-0.129804
-0.13248
-0.13331
-0.131386
-0.126297
-0.118143
-0.107332
-0.0944967
-0.0803449
-0.0656144
-0.0508981
-0.0367681
-0.0235076
-0.0112389
-0.000209049
0.00958261
0.0187181
0.0263889
0.0307253
0.0309593
0.0263404
0.0223055
0.016423
0.00536125
-0.010862
-0.0345424
-0.0714473
-0.113679
-0.142408
-0.144294
-0.116
-0.0782756
-0.0430824
-0.0155991
0.00290484
0.0106861
0.0196593
0.0288677
0.036402
0.0238005
-0.0237272
-0.0965522
-0.167704
-0.173192
-0.129778
-0.0785544
-0.0278326
0.00685864
0.0659676
0.0539118
0.0394962
0.00407964
-0.0587674
-0.0355069
-0.110578
-0.11656
-0.117677
-0.116016
-0.114573
-0.114566
-0.115721
-0.116789
-0.116453
-0.113861
-0.108693
-0.101073
-0.0913521
-0.0800334
-0.0676019
-0.054587
-0.0414313
-0.0285779
-0.0162641
-0.00464203
0.00594767
0.0153999
0.0242008
0.0317677
0.0360478
0.0349083
0.0311555
0.0267667
0.0212716
0.0121286
-0.000973469
-0.0196759
-0.0509956
-0.090805
-0.119321
-0.12124
-0.0975355
-0.0644912
-0.0338048
-0.00978707
0.00716
0.0146752
0.0229953
0.0320034
0.0398792
0.0298777
-0.0155479
-0.0894518
-0.164738
-0.15829
-0.124343
-0.0732788
-0.0235984
0.00949971
0.0684136
0.0565766
0.0416841
0.00727775
-0.0576246
-0.0357256
-0.101046
-0.108123
-0.109677
-0.107635
-0.10494
-0.103296
-0.102899
-0.102792
-0.101748
-0.098948
-0.0940603
-0.0871697
-0.0785353
-0.0685228
-0.0574665
-0.0457503
-0.033736
-0.0218258
-0.0103016
0.000699622
0.0109278
0.0201113
0.0285372
0.0358935
0.0403967
0.0395586
0.034932
0.0298923
0.0247371
0.0169482
0.00542516
-0.0102697
-0.035749
-0.0681668
-0.0933873
-0.0980722
-0.0797114
-0.0517459
-0.0251749
-0.00432571
0.0110211
0.0180115
0.0258037
0.0346346
0.0424821
0.0336378
-0.0102504
-0.0831783
-0.159088
-0.156332
-0.117481
-0.0671114
-0.0191201
0.0117979
0.0698932
0.0583437
0.0430589
0.0100652
-0.0557077
-0.0354613
-0.0913502
-0.0987845
-0.100687
-0.0984552
-0.0951646
-0.0926418
-0.0912327
-0.0902478
-0.0886577
-0.0856893
-0.0809835
-0.0745731
-0.0666708
-0.0576044
-0.0476523
-0.037108
-0.02626
-0.0154085
-0.00477695
0.00542782
0.0149972
0.0236888
0.0315966
0.038411
0.0428162
0.0423599
0.0377124
0.0325756
0.028117
0.0216654
0.0111877
-0.00185194
-0.019775
-0.0440896
-0.0679025
-0.0754015
-0.0618334
-0.0387234
-0.0162787
0.000987127
0.014464
0.0207533
0.0281445
0.0365521
0.0442032
0.0363101
-0.00568225
-0.074927
-0.149637
-0.149807
-0.108679
-0.0598115
-0.0141988
0.0139974
0.0702597
0.0592916
0.04382
0.0127723
-0.0528305
-0.034653
-0.0813614
-0.0886275
-0.0906457
-0.0887698
-0.0854344
-0.0824777
-0.0803788
-0.078718
-0.0766827
-0.0735879
-0.069086
-0.0631874
-0.0560646
-0.0479751
-0.0391261
-0.029717
-0.0199422
-0.0100565
-0.000252015
0.00925388
0.0182202
0.0263917
0.033775
0.0399461
0.0440316
0.0440258
0.0398108
0.0350436
0.0314572
0.0260656
0.0167392
0.00756287
-0.00277328
-0.0213649
-0.0441357
-0.0535908
-0.0446045
-0.0265398
-0.00790674
0.00602122
0.0175859
0.0229766
0.0299852
0.0378213
0.0447058
0.0381798
-0.000333691
-0.0634893
-0.135691
-0.138513
-0.0977624
-0.0516589
-0.00907608
0.0160142
0.0694273
0.0593689
0.0441184
0.0156224
-0.048918
-0.0332351
-0.071031
-0.0782849
-0.0806098
-0.0789764
-0.0757458
-0.0726165
-0.0701342
-0.068063
-0.0657781
-0.0627016
-0.0585015
-0.0531325
-0.0467045
-0.0394217
-0.0314567
-0.0229723
-0.0141276
-0.00514849
0.0038052
0.0125236
0.0207624
0.0282742
0.0350922
0.040714
0.0444352
0.0448453
0.0414263
0.0373763
0.0347441
0.0307411
0.0237168
0.0185181
0.0129946
-0.00218134
-0.0235888
-0.0337935
-0.0285772
-0.0151054
5.88535e-05
0.010852
0.0204052
0.0247831
0.0313307
0.0385543
0.0463812
0.0394852
0.00578928
-0.0495062
-0.117282
-0.122197
-0.0847582
-0.042887
-0.00389993
0.0179089
0.0673726
0.0585264
0.0439815
0.018552
-0.0439654
-0.031159
-0.0611064
-0.0680869
-0.0704889
-0.06914
-0.0661538
-0.0630838
-0.0604926
-0.0582556
-0.0558883
-0.0529048
-0.0489944
-0.0440821
-0.0382514
-0.0316842
-0.0245422
-0.0169661
-0.00905803
-0.000987383
0.00711379
0.0150569
0.0226124
0.029495
0.035736
0.0408817
0.0443243
0.0451489
0.0427396
0.0396825
0.0381247
0.0364533
0.0329812
0.0306304
0.0264469
0.0126068
-0.0065465
-0.0161312
-0.0139469
-0.00480539
0.00717071
0.0153882
0.0229814
0.0263317
0.0322688
0.0387254
0.0446795
0.0397566
0.0116546
-0.034158
-0.0951518
-0.10071
-0.0698686
-0.0338408
0.0010343
0.0196897
0.0641393
0.0567144
0.0433754
0.0214279
-0.0380077
-0.0284071
-0.0516082
-0.0580695
-0.0604964
-0.059485
-0.0568401
-0.0539733
-0.0514421
-0.0491907
-0.0468397
-0.0439871
-0.0403659
-0.035904
-0.0306664
-0.024802
-0.018438
-0.0116827
-0.00461001
0.00263795
0.00994048
0.0171214
0.0239827
0.0302397
0.035904
0.0406225
0.0438509
0.0450635
0.0437505
0.0418661
0.0413784
0.0418805
0.0418269
0.0412821
0.0367036
0.0237217
0.00763292
-0.000856958
-0.00113035
0.00427012
0.0133916
0.0195985
0.0253568
0.0277748
0.0329243
0.0385564
0.0424317
0.0389549
0.0167457
-0.018593
-0.0708619
-0.0771455
-0.0536621
-0.0248416
0.00550106
0.0214156
0.0598172
0.0539262
0.0423589
0.0242057
-0.0311384
-0.0250166
-0.0424117
-0.0484354
-0.0509048
-0.0502142
-0.0479245
-0.0453199
-0.0429361
-0.0407646
-0.0385121
-0.0358504
-0.0325536
-0.0285507
-0.0238819
-0.018661
-0.012993
-0.00697884
-0.000686005
0.00577235
0.0122969
0.0187317
0.0249154
0.0305871
0.0357139
0.0400496
0.0431192
0.0446727
0.0443751
0.043608
0.0440426
0.0459194
0.0476579
0.0479093
0.0433158
0.0320334
0.0191024
0.0116661
0.00961685
0.0120261
0.0186226
0.0233397
0.027517
0.0292292
0.0334753
0.0382709
0.0400843
0.0374972
0.0211341
-0.00408347
-0.0466386
-0.0525484
-0.0368723
-0.0161662
0.00935279
0.0231829
0.0546018
0.0503324
0.0411298
0.0269001
-0.0235377
-0.0210667
-0.0338326
-0.0394053
-0.0418222
-0.0413805
-0.0394356
-0.0371231
-0.0349464
-0.0329324
-0.0308521
-0.0284309
-0.0254731
-0.02191
-0.0177677
-0.0131416
-0.00812562
-0.0028096
0.0027518
0.00847299
0.0142696
0.0200043
0.0255403
0.0306621
0.0352927
0.0392781
0.0422299
0.0440522
0.0445872
0.044735
0.045785
0.0480816
0.0501938
0.0506946
0.0468507
0.0378422
0.0276211
0.0211001
0.0181224
0.0184657
0.0229457
0.0265393
0.0294407
0.03066
0.0340227
0.0380885
0.0382801
0.0361111
0.0249838
0.00814133
-0.0247083
-0.0291173
-0.0205435
-0.00801821
0.012641
0.0251563
0.0490402
0.0463999
0.0399774
0.0295246
-0.0154702
-0.0166683
-0.0259678
-0.0309722
-0.0332501
-0.0330217
-0.0314161
-0.0294163
-0.0274877
-0.0256784
-0.0238074
-0.0216459
-0.0190262
-0.0158853
-0.0122434
-0.00818043
-0.00377623
0.000894588
0.00578415
0.010824
0.0159404
0.0210208
0.0259452
0.0305476
0.0347274
0.0383886
0.041244
0.0432491
0.0443907
0.0452029
0.0465606
0.0487595
0.0506655
0.0510953
0.048131
0.041302
0.0333157
0.0277053
0.0245349
0.0236717
0.0264633
0.0291359
0.0311223
0.0320081
0.034545
0.0380292
0.0375674
0.0352901
0.0281856
0.0173151
-0.0066559
-0.00909261
-0.00596048
-0.000582083
0.0155687
0.0273662
0.0441892
0.043032
0.039248
0.0320675
-0.00724378
-0.0119268
-0.0186457
-0.0231187
-0.0252736
-0.025236
-0.0239415
-0.0222452
-0.0205699
-0.0189768
-0.0173277
-0.0154336
-0.0131494
-0.0104159
-0.00724727
-0.00370841
0.000131835
0.00420967
0.00847984
0.0128897
0.0173765
0.0218509
0.0262083
0.0303217
0.0340889
0.0374427
0.0401934
0.0422958
0.0438155
0.0450455
0.0464996
0.0484093
0.0499511
0.0501929
0.0479588
0.0429411
0.0368053
0.0320791
0.0291573
0.0277415
0.0292894
0.0311592
0.0325403
0.0331848
0.0350464
0.0380096
0.0377506
0.0351683
0.0306257
0.02346
0.00677482
0.00585837
0.00577229
0.00601385
0.0183395
0.0295237
0.0411751
0.0412518
0.0392778
0.0343365
0.000708253
-0.00701778
-0.0119101
-0.0159209
-0.0179507
-0.0180594
-0.0170307
-0.0156078
-0.0141735
-0.0127987
-0.0113777
-0.00975077
-0.00779028
-0.00544105
-0.00271233
0.000343015
0.00366367
0.00719553
0.0108972
0.0147293
0.018639
0.0225554
0.0263909
0.0300456
0.0334303
0.036486
0.0391014
0.0412207
0.0429261
0.0443684
0.0458046
0.0473922
0.048582
0.0486713
0.0469998
0.0433778
0.038745
0.034814
0.0323655
0.030812
0.0315106
0.0326931
0.0336738
0.0341098
0.035501
0.0379668
0.0381955
0.0358613
0.0328474
0.02769
0.0161928
0.0155328
0.0143213
0.011803
0.021115
0.0314009
0.0404295
0.0418406
0.0401596
0.0358372
0.00770363
-0.00229974
-0.00583079
-0.00938243
-0.0112478
-0.0114537
-0.0106544
-0.00948412
-0.00828362
-0.00712579
-0.00592761
-0.00455494
-0.00289807
-0.000905861
0.00141693
0.00402733
0.00687169
0.00990425
0.0130887
0.0163942
0.0197777
0.0231828
0.0265387
0.0297651
0.03279
0.0355538
0.0379969
0.0400603
0.0418124
0.0433167
0.0446815
0.0459879
0.0468994
0.0469169
0.0456719
0.0430944
0.039663
0.0365942
0.0345226
0.0330299
0.0331921
0.0338319
0.0345285
0.0347946
0.0358725
0.0379069
0.0384581
0.0369248
0.0348471
0.0308117
0.0227772
0.0214051
0.019556
0.0168348
0.0236391
0.0327482
0.0412364
0.0438494
0.0412192
0.0359209
0.0129276
0.00165825
-0.000348053
-0.00344929
-0.00513368
-0.00541083
-0.00481649
-0.0038803
-0.00289792
-0.00194096
-0.000948432
0.000189031
0.00156594
0.00323079
0.00518319
0.00738843
0.00980067
0.0123807
0.0150975
0.0179256
0.0208315
0.0237701
0.0266865
0.0295135
0.0321955
0.0346744
0.0369161
0.0388629
0.0405708
0.0420406
0.0433111
0.0444001
0.0451111
0.0451266
0.0442118
0.0424069
0.0399159
0.0376018
0.0358814
0.0345423
0.0343978
0.0346486
0.0351244
0.0352777
0.0361304
0.0377829
0.0384078
0.0375915
0.03612
0.0328573
0.0270841
0.0250965
0.0237368
0.0211312
0.0257212
0.033483
0.0420355
0.0445978
0.0410809
0.0342197
0.0158316
0.00432252
0.0046251
0.00192213
0.000391184
5.08038e-05
0.000472809
0.00121093
0.00200475
0.00278254
0.00358771
0.00451094
0.00563478
0.0070046
0.00862358
0.010464
0.0124878
0.0146605
0.0169569
0.0193547
0.0218302
0.0243458
0.02686
0.0293152
0.0316703
0.0338709
0.0358916
0.0376765
0.0392894
0.0406731
0.0418365
0.042768
0.043344
0.0433996
0.0427468
0.041505
0.0397318
0.0380038
0.0366332
0.0354893
0.0351906
0.0351907
0.0354914
0.0355726
0.0362315
0.0375301
0.0380309
0.0375104
0.036525
0.0339266
0.0295753
0.0274441
0.0265272
0.0244817
0.0272974
0.0336764
0.0417388
0.0434822
0.039314
0.0314106
0.016633
0.00556047
0.00909167
0.00672891
0.00534191
0.00496838
0.00525628
0.0058279
0.00645525
0.00707084
0.00770706
0.00843941
0.00933884
0.0104466
0.0117693
0.0132847
0.0149624
0.0167712
0.0186921
0.0207048
0.0227943
0.0249275
0.0270757
0.0291884
0.0312365
0.0331673
0.0349556
0.0365147
0.0380434
0.0393179
0.0403647
0.041184
0.041673
0.0417826
0.0413425
0.0405074
0.039274
0.037999
0.0369395
0.0359972
0.0356369
0.0354938
0.035657
0.0356861
0.0361585
0.0371232
0.0374302
0.037016
0.0363015
0.0342841
0.0308674
0.028872
0.0282423
0.0267844
0.0283114
0.0333117
0.040104
0.0408733
0.0366172
0.0285094
0.0162708
0.00578317
0.0130494
0.0110068
0.00977449
0.00939579
0.00957215
0.0099952
0.0104737
0.0109463
0.0114351
0.012001
0.0127045
0.0135828
0.0146451
0.0158739
0.0172457
0.0187323
0.0203208
0.0219909
0.0237362
0.025526
0.0273434
0.0291429
0.030906
0.0325913
0.0341945
0.0357138
0.03694
0.0380513
0.0389717
0.0397038
0.0401371
0.0402971
0.0400324
0.0394878
0.0386535
0.0377256
0.0369251
0.0361715
0.0358021
0.0355893
0.0356461
0.0356277
0.0359194
0.0365252
0.0367051
0.0363219
0.0356959
0.0341503
0.0314479
0.0296438
0.029143
0.0281457
0.0288281
0.0325302
0.0376197
0.0377565
0.0336358
0.0258644
0.0153947
0.00551137
0.0165799
0.014832
0.0137445
0.0133572
0.0134356
0.0137313
0.014084
0.0144354
0.0147978
0.0152204
0.015755
0.0164348
0.0172709
0.0182497
0.0193541
0.0205582
0.0218543
0.0232222
0.0246621
0.0261453
0.0276642
0.0291779
0.0306735
0.0321156
0.0334902
0.0347711
0.0358907
0.0368864
0.0376968
0.0383569
0.0387551
0.0389529
0.0388285
0.038489
0.037945
0.0372804
0.036686
0.0360956
0.0357471
0.0355069
0.0354816
0.0354157
0.0355506
0.0358817
0.0359036
0.0355329
0.0349043
0.033695
0.0315917
0.0299537
0.0294395
0.0285898
0.0288794
0.0313933
0.0348286
0.0345362
0.0305982
0.0234281
0.0143048
0.0050802
0.0197274
0.0182248
0.0172572
0.0168707
0.016881
0.0170748
0.0173198
0.0175662
0.0178203
0.0181206
0.0185114
0.0190219
0.0196641
0.0204273
0.0213
0.0222587
0.0232992
0.0244024
0.0255729
0.0267852
0.0280364
0.0292919
0.0305404
0.0317543
0.0329122
0.0340024
0.0349756
0.0358551
0.036566
0.0371593
0.0375333
0.0377522
0.0377331
0.0375364
0.0371968
0.0367292
0.0362917
0.0358354
0.0355227
0.0352754
0.0351858
0.0350748
0.0350783
0.0351994
0.0350864
0.0347033
0.0340571
0.0330472
0.0314338
0.0299482
0.0293523
0.0287229
0.0286135
0.0300716
0.0320731
0.0314174
0.0276414
0.0211434
0.0131483
0.00463043
0.0224964
0.0212124
0.0203608
0.0199895
0.019948
0.0200563
0.0202077
0.0203627
0.020525
0.0207235
0.0209939
0.0213616
0.0218391
0.0224185
0.0230919
0.0238393
0.0246582
0.0255323
0.0264669
0.0274415
0.0284544
0.0294794
0.0305034
0.0315087
0.0324686
0.0333847
0.0342122
0.0349727
0.0355915
0.0361165
0.0364674
0.0366914
0.0367435
0.0366441
0.036442
0.036117
0.0357921
0.0354439
0.0351696
0.0349246
0.0347823
0.0346311
0.034526
0.0344917
0.0342645
0.0338565
0.0332107
0.032298
0.0310482
0.0297137
0.0289991
0.0284516
0.0280489
0.0286177
0.0294891
0.028506
0.0248792
0.0190172
0.0119929
0.00420436
0.0249305
0.0238409
0.0230937
0.0227316
0.0226405
0.0226884
0.0227691
0.0228503
0.022936
0.0230496
0.0232202
0.0234692
0.0238084
0.0242328
0.0247366
0.025304
0.0259325
0.0266097
0.0273391
0.0281072
0.0289106
0.0297318
0.030556
0.0313728
0.0321535
0.0328999
0.033599
0.034242
0.0347725
0.0352259
0.0355483
0.0357637
0.0358557
0.0358184
0.0357042
0.03548
0.0352417
0.0349663
0.0347221
0.0344829
0.0342955
0.0341106
0.0339151
0.0337657
0.0334512
0.0330038
0.0323765
0.0315051
0.030485
0.0293004
0.0284571
0.0278854
0.0272666
0.0271217
0.0271188
0.0258509
0.0223812
0.0170716
0.0108694
0.00380921
0.027071
0.0261461
0.0254905
0.0251437
0.0250177
0.0250039
0.0250286
0.0250535
0.0250775
0.025121
0.025209
0.0253599
0.0255842
0.0258791
0.0262399
0.0266551
0.0271213
0.0276305
0.0281837
0.0287735
0.0293951
0.0300379
0.0306871
0.0313385
0.0319691
0.0325893
0.0331395
0.0336591
0.0341008
0.0344797
0.0347642
0.0349589
0.0350647
0.0350628
0.0349992
0.034842
0.0346614
0.0344341
0.0342078
0.0339755
0.0337494
0.0335348
0.0332674
0.0330268
0.0326523
0.0321561
0.0315485
0.0306992
0.0297929
0.0287381
0.0277874
0.0271083
0.0263211
0.0256479
0.0249798
0.0234704
0.0201697
0.0153229
0.00979898
0.00344269
0.0289395
0.0281564
0.0275829
0.0272544
0.0271037
0.0270457
0.0270199
0.0269965
0.0269722
0.0269592
0.0269791
0.0270489
0.0271779
0.0273654
0.0276069
0.0278943
0.0282238
0.0285906
0.028994
0.0294307
0.0298954
0.0303821
0.0308778
0.0313795
0.0318679
0.0323475
0.0327884
0.0332011
0.0335585
0.0338639
0.034102
0.0342665
0.0343655
0.034377
0.034336
0.0342178
0.0340667
0.0338702
0.0336505
0.0334217
0.0331644
0.0329179
0.0325992
0.0322818
0.0318679
0.0313231
0.0307201
0.0298915
0.0290209
0.0280516
0.02703
0.0262004
0.0252632
0.0242345
0.0230721
0.0213548
0.0182319
0.0137787
0.00880303
0.00310237
0.0305641
0.0299025
0.029401
0.0290907
0.0289212
0.028827
0.0287597
0.0286958
0.0286314
0.0285763
0.0285444
0.0285499
0.0286014
0.0287001
0.0288427
0.0290235
0.0292388
0.0294857
0.0297629
0.0300692
0.0303999
0.0307514
0.0311133
0.0314831
0.0318461
0.032205
0.0325406
0.0328543
0.0331296
0.0333634
0.0335487
0.0336756
0.0337518
0.0337596
0.0337204
0.033619
0.0334765
0.033296
0.033074
0.0328417
0.0325585
0.0322765
0.0319235
0.0315405
0.0310952
0.0305106
0.0298921
0.0290826
0.0282073
0.0272719
0.0262086
0.0252303
0.0241486
0.0228939
0.0213842
0.0194851
0.0165388
0.0124369
0.00790117
0.00278866
0.0319703
0.0314109
0.0309716
0.0306792
0.0304966
0.030374
0.0302738
0.0301767
0.0300791
0.0299879
0.0299151
0.0298717
0.0298634
0.0298905
0.0299523
0.0300452
0.0301659
0.0303126
0.0304843
0.0306805
0.0308976
0.0311327
0.0313768
0.0316336
0.0318892
0.0321414
0.0323802
0.0326025
0.0327985
0.0329627
0.0330911
0.0331747
0.0332175
0.033208
0.0331548
0.0330529
0.0329059
0.0327257
0.0324956
0.0322494
0.0319467
0.031627
0.0312478
0.0308117
0.0303339
0.0297209
0.0290716
0.0282722
0.027378
0.0264358
0.0253431
0.024244
0.0230266
0.0216238
0.019898
0.0178489
0.0150599
0.0112842
0.00710847