/*--------------------------------*- C++ -*----------------------------------*\
| =========                 |                                                 |
| \\      /  F ield         | OpenFOAM: The Open Source CFD Toolbox           |
|  \\    /   O peration     | Version:  2512                                  |
|   \\  /    A nd           | Website:  www.openfoam.com                      |
|    \\/     M anipulation  |                                                 |
\*---------------------------------------------------------------------------*/
FoamFile
{
    version     2.0;
    format      ascii;
    arch        "LSB;label=32;scalar=64";
    class       volVectorField;
    location    "179.8";
    object      U;
}
// * * * * * * * * * * * * * * * * * * * * * * * * * * * * * * * * * * * * * //

dimensions      [0 1 -1 0 0 0 0];

internalField   nonuniform List<vector> 
13248
(
(-0.0136514 0.0107037 4.4466e-20)
(-0.0253051 0.0143614 0)
(-0.0280158 0.00830002 -7.80373e-20)
(-0.0189139 -0.000940662 7.22612e-20)
(0.00545208 -0.0108685 6.72867e-20)
(0.048197 -0.0206669 0)
(0.111537 -0.0297137 0)
(0.196093 -0.0372913 1.56197e-19)
(0.300142 -0.0425705 -2.53532e-21)
(0.419449 -0.0447622 -1.29898e-19)
(0.547595 -0.0433291 1.12095e-19)
(0.676985 -0.0381675 -6.89517e-20)
(0.800109 -0.0296533 0)
(0.910629 -0.0185712 -9.52364e-20)
(1.00413 -0.0059272 1.69246e-19)
(1.07823 0.00717542 -3.93212e-20)
(1.13294 0.0197767 -5.67225e-20)
(1.1694 0.0310373 5.28823e-20)
(1.1907 0.0405373 0)
(1.20071 0.0475404 0)
(1.201 0.0531943 0)
(1.20087 0.0548762 0)
(1.19319 0.0574503 1.08527e-20)
(1.19379 0.054506 3.45787e-20)
(-0.0155537 0.0121996 -1.33938e-19)
(-0.0252417 0.0193073 8.49873e-20)
(-0.0180595 0.0165045 8.53091e-24)
(0.007557 0.00923347 -1.0936e-19)
(0.0543566 0.000456863 -6.71887e-20)
(0.124855 -0.00807959 -6.22331e-20)
(0.22002 -0.0150219 -1.13565e-19)
(0.337949 -0.0192407 1.05197e-19)
(0.473055 -0.0199198 0)
(0.61657 -0.0167686 1.76444e-21)
(0.758194 -0.0101249 3.46515e-21)
(0.888164 -0.000867153 6.81821e-20)
(0.998933 0.00981947 0)
(1.08612 0.0207217 0)
(1.14861 0.030842 5.96918e-20)
(1.18829 0.0394705 -1.10826e-19)
(1.20895 0.0463921 5.78168e-20)
(1.21572 0.0514188 -5.39052e-20)
(1.21394 0.055083 -2.17903e-20)
(1.20774 0.057188 -3.48707e-20)
(1.20163 0.05872 -1.26477e-20)
(1.1965 0.0586362 -2.25221e-20)
(1.193 0.0590953 3.59379e-20)
(1.19381 0.0558439 9.57521e-21)
(-0.0155783 0.0112479 0)
(-0.0203161 0.0181832 0)
(-0.000485672 0.0165498 3.93435e-20)
(0.0451129 0.010721 3.62223e-20)
(0.118787 0.00396006 -3.81879e-22)
(0.221719 -0.0013209 -6.24184e-20)
(0.351733 -0.00332793 0)
(0.5017 -0.00106739 -5.20554e-20)
(0.659991 0.00543379 4.65639e-20)
(0.813062 0.0151741 -6.32846e-22)
(0.948705 0.0265472 -7.40562e-20)
(1.05848 0.037847 -6.28337e-20)
(1.13878 0.047704 4.09651e-21)
(1.19052 0.0553408 -4.28718e-20)
(1.21815 0.0605794 1.07999e-19)
(1.228 0.0637535 0)
(1.2268 0.0654134 -5.808e-20)
(1.2204 0.06611 2.83942e-20)
(1.21263 0.0665221 2.1768e-20)
(1.20627 0.0661973 0)
(1.20092 0.0666375 1.56466e-20)
(1.19764 0.0649606 -5.15332e-20)
(1.19362 0.0654064 4.81238e-20)
(1.19149 0.0614569 2.7303e-20)
(-0.0141307 0.00901645 -4.61197e-20)
(-0.0100998 0.0132365 -4.38516e-20)
(0.0267592 0.0113864 3.98348e-20)
(0.0976641 0.00717313 0)
(0.203878 0.00411145 0)
(0.343143 0.00496476 -5.06996e-23)
(0.506774 0.0111049 0)
(0.679801 0.0221558 -1.52402e-19)
(0.844777 0.0362461 1.38005e-19)
(0.986733 0.050831 -1.66324e-19)
(1.09655 0.0636113 3.66556e-20)
(1.17191 0.0731501 0)
(1.21623 0.0790615 5.31397e-20)
(1.23654 0.0818173 -9.52666e-20)
(1.24102 0.0823654 2.24234e-20)
(1.23699 0.0817058 5.00329e-20)
(1.22967 0.0805741 -5.17336e-21)
(1.22188 0.0794599 -5.35193e-20)
(1.21485 0.0782779 0)
(1.20829 0.077179 0)
(1.20222 0.0758998 -1.58932e-20)
(1.19645 0.0736864 1.35545e-20)
(1.19046 0.0728826 4.42234e-20)
(1.18605 0.0677025 -4.12834e-20)
(-0.0111501 0.00629992 -4.74754e-20)
(0.00670307 0.00667454 -4.41487e-20)
(0.0667662 0.00451932 1.22265e-19)
(0.169676 0.00330989 -7.39228e-20)
(0.313467 0.00673675 6.84777e-20)
(0.488489 0.0168869 1.23661e-19)
(0.676256 0.033137 -8.52691e-20)
(0.854547 0.0525546 -9.94398e-20)
(1.00487 0.0714021 3.89629e-21)
(1.1172 0.0866647 1.2327e-19)
(1.19064 0.0968685 0)
(1.23107 0.102098 3.04497e-20)
(1.24773 0.103477 0)
(1.2499 0.102471 -4.4683e-20)
(1.2448 0.100345 6.18339e-20)
(1.2369 0.097881 3.99293e-22)
(1.22828 0.0954615 -1.45808e-20)
(1.21979 0.0930559 2.54919e-20)
(1.21154 0.0907471 2.14341e-20)
(1.20386 0.08822 -1.83397e-20)
(1.19684 0.0858028 1.5886e-20)
(1.19086 0.0827466 -1.35483e-20)
(1.18532 0.0807885 0)
(1.18167 0.075425 -9.68319e-21)
(-0.00598859 0.00343792 4.74635e-20)
(0.0320635 8.10129e-05 4.55597e-20)
(0.122707 -0.000923001 -4.08513e-20)
(0.263871 0.00368168 7.47439e-20)
(0.44617 0.0168447 -6.9235e-20)
(0.648302 0.0381491 6.1561e-20)
(0.842349 0.0635276 -2.89088e-20)
(1.00482 0.0876802 7.4864e-20)
(1.12379 0.106585 -4.57715e-20)
(1.19933 0.118609 7.65092e-20)
(1.23946 0.124263 -1.71906e-19)
(1.25525 0.125251 6.12403e-20)
(1.25678 0.12347 -5.02732e-20)
(1.25123 0.120381 4.68005e-20)
(1.24275 0.116837 3.7442e-20)
(1.23336 0.113234 3.07824e-20)
(1.22401 0.109664 -8.49851e-20)
(1.21513 0.106216 5.16167e-20)
(1.20704 0.10278 -2.14307e-20)
(1.19977 0.0994788 5.31371e-20)
(1.19327 0.0961476 -1.72044e-20)
(1.18732 0.0926491 -3.83841e-20)
(1.18159 0.0897953 3.47728e-20)
(1.1765 0.0843965 9.68003e-21)
(0.0023441 0.000597189 0)
(0.0680472 -0.00526343 2.32852e-22)
(0.196463 -0.00225973 8.3717e-20)
(0.379001 0.0117778 -7.7276e-20)
(0.593565 0.0370347 -6.8647e-20)
(0.806273 0.0686335 1.253e-19)
(0.986289 0.0992531 -5.71993e-20)
(1.11764 0.123276 7.36715e-20)
(1.20013 0.138542 -2.44331e-21)
(1.24343 0.145814 -3.96725e-20)
(1.26035 0.147305 8.23804e-20)
(1.26202 0.145338 -1.18619e-19)
(1.25611 0.141645 0)
(1.24703 0.137249 -2.14355e-20)
(1.23704 0.132666 -5.47514e-20)
(1.22719 0.128112 1.7306e-20)
(1.21791 0.123698 1.03561e-21)
(1.20932 0.119396 -3.27712e-20)
(1.20135 0.115238 3.49465e-21)
(1.19392 0.111117 3.67953e-20)
(1.18696 0.107009 -1.52758e-20)
(1.18052 0.102929 -5.23763e-21)
(1.17442 0.0990169 1.71682e-20)
(1.1693 0.0936282 0)
(0.0148641 -0.00194382 0)
(0.116159 -0.00798992 2.29494e-20)
(0.287697 0.00287747 -1.08032e-19)
(0.509086 0.0297031 3.86485e-20)
(0.742225 0.0671328 -3.57987e-20)
(0.946314 0.105449 -3.16784e-20)
(1.09753 0.136453 -5.46098e-20)
(1.19306 0.156718 2.7268e-20)
(1.2435 0.166925 2.31439e-20)
(1.26356 0.169751 0)
(1.26616 0.168063 4.80369e-20)
(1.26014 0.164022 -6.89875e-20)
(1.25062 0.15895 5.07145e-20)
(1.24018 0.153541 2.14447e-20)
(1.22989 0.14811 -1.6457e-20)
(1.22013 0.142788 -1.27733e-20)
(1.21096 0.137582 -1.14851e-20)
(1.20236 0.13251 3.58116e-20)
(1.19436 0.127527 0)
(1.18699 0.122652 1.61851e-20)
(1.18027 0.117867 1.25059e-20)
(1.17406 0.113212 -3.20575e-20)
(1.16822 0.108538 -2.02281e-20)
(1.16277 0.103452 1.86278e-20)
(0.0323559 -0.00365665 -2.63468e-20)
(0.176773 -0.00640549 -8.04538e-22)
(0.393204 0.0165726 2.19013e-20)
(0.644324 0.0579441 5.97283e-20)
(0.878659 0.104943 1.66433e-20)
(1.05906 0.145247 -3.18044e-20)
(1.1758 0.17283 2.87154e-20)
(1.23875 0.187676 -2.45064e-20)
(1.26484 0.192851 4.225e-20)
(1.26958 0.191957 1.73061e-20)
(1.26386 0.187821 -4.83992e-20)
(1.25394 0.182208 1.38852e-20)
(1.2429 0.176048 2.26556e-20)
(1.23197 0.169763 -1.11955e-20)
(1.22155 0.163524 0)
(1.21175 0.157385 1.52936e-20)
(1.20261 0.151383 2.46364e-20)
(1.19414 0.145522 3.45466e-21)
(1.18634 0.139824 -1.96658e-20)
(1.17913 0.134277 7.7776e-21)
(1.17239 0.128871 0)
(1.16602 0.123605 -5.62101e-21)
(1.15992 0.118257 -5.08204e-21)
(1.15424 0.113192 0)
(0.0551851 -0.00378534 0)
(0.248698 0.00137527 1.27591e-20)
(0.506939 0.0401949 2.31898e-20)
(0.773866 0.0954052 -6.0527e-20)
(0.993859 0.147693 1.91765e-20)
(1.14286 0.185816 0)
(1.22639 0.207796 2.68024e-20)
(1.26311 0.216831 -3.6736e-20)
(1.27213 0.21747 -2.09124e-20)
(1.26741 0.213515 9.31516e-21)
(1.25714 0.207412 -1.38815e-20)
(1.24531 0.200455 3.38027e-20)
(1.23354 0.193236 1.61943e-20)
(1.22236 0.186002 -1.15005e-20)
(1.21193 0.178861 -1.38961e-21)
(1.20224 0.17187 -2.84743e-20)
(1.19327 0.165052 1.27052e-20)
(1.18496 0.158426 -3.36659e-22)
(1.17728 0.151987 0)
(1.17019 0.145742 -7.7853e-21)
(1.16361 0.13969 0)
(1.15745 0.133784 1.59865e-20)
(1.1516 0.127917 -1.84177e-20)
(1.14597 0.122869 8.16247e-21)
(0.0831729 -0.00144897 -7.2126e-21)
(0.329023 0.0170506 -3.21338e-20)
(0.621124 0.0739545 3.5901e-20)
(0.888966 0.140083 2.04398e-20)
(1.08431 0.193182 -9.72879e-21)
(1.20046 0.226198 1.53688e-20)
(1.25545 0.241601 -7.47666e-21)
(1.27257 0.245032 1.18733e-20)
(1.27031 0.241712 0)
(1.26 0.235156 2.52555e-20)
(1.24728 0.227285 -1.23973e-21)
(1.23449 0.218981 -1.95483e-20)
(1.2224 0.210614 8.10233e-21)
(1.21118 0.202341 -8.78647e-21)
(1.2008 0.194233 -3.07729e-21)
(1.19122 0.186324 3.77999e-21)
(1.18238 0.178638 -2.72092e-21)
(1.17426 0.17119 -1.42579e-20)
(1.16683 0.163998 8.62159e-21)
(1.16 0.157067 1.6545e-21)
(1.15362 0.150377 1.39627e-21)
(1.14756 0.143871 1.17543e-21)
(1.14172 0.137572 0)
(1.13608 0.13219 0)
(0.115603 0.00423937 7.22134e-21)
(0.413489 0.041742 -6.67122e-21)
(0.728165 0.116954 -1.19654e-20)
(0.984452 0.189924 0)
(1.15024 0.240062 -4.7793e-21)
(1.2359 0.266176 -4.11594e-21)
(1.26805 0.274743 -6.79032e-21)
(1.27129 0.272977 0)
(1.26189 0.266127 0)
(1.24839 0.257175 0)
(1.23442 0.247534 0)
(1.22121 0.237781 0)
(1.20903 0.228136 -5.0106e-21)
(1.19786 0.218696 2.24266e-21)
(1.18763 0.209504 3.77146e-21)
(1.17826 0.20059 1.73781e-21)
(1.16971 0.191975 4.09501e-21)
(1.1619 0.183675 0)
(1.15477 0.175695 -8.87533e-22)
(1.14824 0.168031 -8.29054e-22)
(1.14217 0.160659 -1.39847e-21)
(1.13646 0.153541 -1.17728e-21)
(1.13102 0.146793 0)
(1.12577 0.140938 7.31095e-22)
(0.00664224 -0.151115 7.45629e-21)
(0.0125643 -0.330582 -7.06928e-21)
(0.00500381 -0.421124 -1.30579e-20)
(-0.012242 -0.455898 0)
(-0.0345204 -0.463181 -1.71496e-20)
(-0.0582896 -0.460369 5.41397e-21)
(-0.0814127 -0.454429 -1.00552e-20)
(-0.102567 -0.445753 0)
(-0.120822 -0.432076 0)
(-0.135427 -0.410825 0)
(-0.145774 -0.380011 0)
(-0.151455 -0.338448 0)
(-0.152331 -0.285766 4.97438e-22)
(-0.148579 -0.222332 -7.71893e-21)
(-0.140708 -0.14912 1.42091e-20)
(-0.129553 -0.0675893 2.05874e-20)
(-0.115984 0.021042 5.94077e-21)
(-0.099971 0.115105 0)
(-0.0816617 0.213365 5.68488e-21)
(-0.0609295 0.314175 -1.50401e-20)
(-0.0374393 0.41517 -8.70673e-21)
(-0.0102844 0.512636 -7.67044e-21)
(0.0190677 0.602792 0)
(0.0553954 0.679437 0)
(0.0138695 -0.14911 -2.1985e-20)
(0.0231334 -0.317321 3.49632e-20)
(0.0108243 -0.397104 -1.24622e-20)
(-0.0136142 -0.424696 -2.36969e-20)
(-0.0434872 -0.428347 3.32557e-20)
(-0.0750987 -0.424635 -2.0852e-20)
(-0.106543 -0.419791 2.93888e-20)
(-0.136779 -0.413795 1.78884e-20)
(-0.165061 -0.404239 0)
(-0.190675 -0.388493 -1.80949e-20)
(-0.212903 -0.364457 -9.73798e-22)
(-0.231082 -0.330699 1.5834e-20)
(-0.244693 -0.286464 2.17755e-20)
(-0.253441 -0.231653 2.85389e-20)
(-0.257305 -0.16676 -1.38031e-20)
(-0.25652 -0.0927486 -3.85446e-20)
(-0.251655 -0.0109412 1.09035e-20)
(-0.242555 0.0773235 -4.18049e-20)
(-0.229328 0.170222 0)
(-0.212186 0.265704 9.72558e-21)
(-0.191075 0.361269 8.6966e-21)
(-0.165801 0.453886 7.66137e-21)
(-0.137467 0.540587 0)
(-0.106363 0.617911 0)
(0.0201405 -0.140501 0)
(0.032041 -0.293508 6.50417e-20)
(0.0161022 -0.363185 -2.41894e-20)
(-0.0135281 -0.385027 2.30572e-20)
(-0.048622 -0.385891 -6.17941e-20)
(-0.0853639 -0.381278 0)
(-0.122088 -0.376947 -3.68482e-20)
(-0.158054 -0.372835 1.63338e-20)
(-0.192747 -0.366638 -3.13401e-20)
(-0.225592 -0.355815 1.33903e-20)
(-0.255903 -0.338267 8.70343e-20)
(-0.282943 -0.312444 -4.03473e-20)
(-0.305996 -0.277346 -6.67936e-20)
(-0.324446 -0.232521 -2.33561e-20)
(-0.337832 -0.178037 -3.49359e-23)
(-0.345916 -0.114427 8.57098e-20)
(-0.348533 -0.0426598 -3.97755e-20)
(-0.345556 0.0360894 3.85614e-21)
(-0.337061 0.119884 0)
(-0.322926 0.206713 -2.50133e-20)
(-0.303123 0.294303 0)
(-0.27726 0.380005 -2.32316e-20)
(-0.245265 0.460842 7.44386e-20)
(-0.210743 0.53534 -3.06138e-21)
(0.0247664 -0.126883 0)
(0.0384654 -0.262408 -1.31864e-21)
(0.0201662 -0.322821 2.23127e-20)
(-0.0125652 -0.340224 -2.06153e-20)
(-0.0503813 -0.338975 2.01003e-20)
(-0.0892936 -0.333299 1.08904e-19)
(-0.127781 -0.328675 -3.40954e-20)
(-0.165356 -0.325262 -3.10002e-20)
(-0.20176 -0.32108 6.02602e-20)
(-0.236618 -0.31383 -8.60716e-20)
(-0.269384 -0.301544 2.47282e-20)
(-0.299374 -0.282682 2.32877e-20)
(-0.325831 -0.256125 0)
(-0.347976 -0.22119 2.29429e-20)
(-0.36504 -0.17763 0)
(-0.37639 -0.125621 3.19607e-20)
(-0.381491 -0.0657145 -6.18699e-20)
(-0.380124 0.000752692 1.9117e-20)
(-0.372036 0.072244 5.08956e-20)
(-0.356578 0.146944 2.49932e-20)
(-0.333535 0.222718 0)
(-0.302989 0.297491 -4.70664e-20)
(-0.262555 0.3692 1.66911e-20)
(-0.211962 0.435311 0)
(0.0272668 -0.109932 0)
(0.0416378 -0.226862 -7.10925e-20)
(0.0219533 -0.27905 -2.13076e-20)
(-0.0121312 -0.293462 -4.0191e-20)
(-0.0505295 -0.291184 3.7243e-20)
(-0.0890262 -0.284915 -3.56018e-20)
(-0.126102 -0.279858 6.44321e-20)
(-0.161405 -0.276504 3.10753e-20)
(-0.194862 -0.273306 -8.45608e-20)
(-0.226284 -0.2683 5.14672e-20)
(-0.255287 -0.259737 -7.24133e-20)
(-0.281314 -0.2462 1.49435e-19)
(-0.303683 -0.226604 -8.08334e-20)
(-0.321637 -0.200191 3.38239e-20)
(-0.334313 -0.166553 9.30762e-20)
(-0.340792 -0.125685 -3.53952e-20)
(-0.340588 -0.0780603 -2.61181e-20)
(-0.333344 -0.024611 -2.57879e-20)
(-0.318278 0.033476 0)
(-0.294703 0.0946928 -2.78139e-20)
(-0.261673 0.157192 -1.87535e-20)
(-0.219141 0.21834 3.40831e-20)
(-0.170549 0.277497 3.15011e-20)
(-0.0942937 0.33274 -2.55826e-20)
(0.0273484 -0.0911332 0)
(0.0409183 -0.189222 -8.87487e-20)
(0.0203651 -0.234291 1.0055e-21)
(-0.0138485 -0.247197 7.67982e-20)
(-0.0513237 -0.245293 0)
(-0.0876418 -0.239521 0)
(-0.121172 -0.23469 0)
(-0.151565 -0.231604 -2.86974e-20)
(-0.178828 -0.229183 4.70257e-22)
(-0.202878 -0.225833 4.81813e-20)
(-0.223445 -0.22005 -6.68892e-20)
(-0.240098 -0.21058 5.13073e-22)
(-0.252284 -0.196436 0)
(-0.259372 -0.176904 -3.38091e-20)
(-0.260687 -0.151564 2.28253e-20)
(-0.255496 -0.120354 -7.08895e-20)
(-0.243005 -0.0836167 7.76768e-20)
(-0.222881 -0.042004 7.08779e-21)
(-0.194574 0.00363091 -8.44736e-21)
(-0.157194 0.0519147 -4.48763e-20)
(-0.112159 0.10186 -1.29967e-20)
(-0.0518179 0.150086 3.74337e-20)
(0.00486617 0.199171 -2.0034e-20)
(0.106254 0.236637 0)
(0.0248803 -0.0716116 4.42989e-20)
(0.0359326 -0.151186 4.39357e-20)
(0.0146568 -0.190163 -3.93851e-20)
(-0.0188996 -0.202925 -7.39546e-20)
(-0.0545138 -0.20292 6.8529e-20)
(-0.0876913 -0.199164 -6.33328e-20)
(-0.116654 -0.195911 8.76659e-20)
(-0.140956 -0.19417 -2.81439e-20)
(-0.160585 -0.193292 4.9887e-20)
(-0.175491 -0.192048 0)
(-0.185464 -0.189172 3.7858e-20)
(-0.190166 -0.183551 -7.19759e-20)
(-0.189197 -0.174275 6.24022e-20)
(-0.182126 -0.160659 -5.80851e-20)
(-0.168533 -0.142281 0)
(-0.148033 -0.119006 4.06619e-20)
(-0.120319 -0.0910674 5.77094e-20)
(-0.0848654 -0.0589709 -5.6388e-20)
(-0.0416986 -0.0234497 -1.80914e-20)
(0.01215 0.0144422 -1.27835e-20)
(0.0673989 0.0548133 3.72142e-20)
(0.14948 0.0904288 3.17903e-21)
(0.203821 0.133631 -4.86795e-21)
(0.332646 0.152452 2.97805e-21)
(0.0199494 -0.0522183 -4.43098e-20)
(0.0268407 -0.113941 1.25273e-19)
(0.00498442 -0.147557 -3.81635e-20)
(-0.0271634 -0.16109 7.20223e-20)
(-0.0600646 -0.164144 -6.67382e-20)
(-0.0893278 -0.163754 -3.11763e-22)
(-0.113033 -0.163482 2.8244e-20)
(-0.130553 -0.164386 1.02685e-19)
(-0.141729 -0.166144 -1.96126e-21)
(-0.14643 -0.167839 -4.49757e-20)
(-0.14443 -0.168408 0)
(-0.135438 -0.166837 -3.1393e-20)
(-0.119174 -0.16224 6.22446e-20)
(-0.0954474 -0.153898 4.91717e-20)
(-0.0641396 -0.141342 -2.46681e-20)
(-0.0252583 -0.124337 -1.64454e-21)
(0.0210721 -0.102968 -1.52681e-20)
(0.074993 -0.0774624 2.11256e-20)
(0.135203 -0.0489903 1.8091e-20)
(0.208435 -0.0181502 -1.31742e-20)
(0.271912 0.0151082 8.1287e-21)
(0.379586 0.0421912 -5.57488e-21)
(0.427929 0.0797641 0)
(0.585251 0.0914561 -2.97658e-21)
(0.0129992 -0.0337748 4.2864e-20)
(0.0146226 -0.078543 -4.14875e-20)
(-0.00717834 -0.107032 3.81025e-20)
(-0.0365992 -0.121485 0)
(-0.0652046 -0.127907 0)
(-0.0888139 -0.131401 6.01203e-20)
(-0.10531 -0.134733 -5.63133e-20)
(-0.113722 -0.138844 5.017e-20)
(-0.113546 -0.143575 -2.34445e-19)
(-0.104397 -0.148207 8.61376e-22)
(-0.085944 -0.151796 3.77985e-20)
(-0.0579913 -0.153369 0)
(-0.0205186 -0.152031 -5.55426e-20)
(0.0260858 -0.146948 9.84956e-20)
(0.0812923 -0.137631 -6.47001e-20)
(0.144428 -0.123858 -7.92471e-20)
(0.214424 -0.105692 9.26834e-21)
(0.290726 -0.0835669 4.46863e-20)
(0.37088 -0.0586878 0)
(0.461637 -0.0313913 0)
(0.538741 -0.00289497 -8.12998e-21)
(0.656656 0.0220924 5.57579e-21)
(0.708747 0.0523863 -1.68576e-20)
(0.868763 0.0661556 1.57215e-20)
(0.00492332 -0.0172635 0)
(0.00111246 -0.0462856 0)
(-0.0191661 -0.0693609 -1.14274e-19)
(-0.0435185 -0.0840325 3.52174e-20)
(-0.0648525 -0.0931301 -1.07873e-23)
(-0.0791771 -0.0999567 6.07509e-20)
(-0.0840491 -0.10643 0)
(-0.0780092 -0.113227 -5.15425e-20)
(-0.0601362 -0.120185 4.69187e-20)
(-0.0298749 -0.126632 -8.28658e-20)
(0.0128986 -0.131652 1.4063e-21)
(0.0677018 -0.134292 6.40418e-20)
(0.133628 -0.133535 -4.65046e-21)
(0.209136 -0.128653 4.13645e-20)
(0.292083 -0.119306 -6.56815e-20)
(0.380588 -0.105517 0)
(0.472271 -0.0873789 4.89603e-20)
(0.565437 -0.0661489 -6.62588e-20)
(0.65871 -0.0420558 1.69883e-20)
(0.750319 -0.0172109 0)
(0.836421 0.00815145 1.06087e-20)
(0.929486 0.0305177 2.84836e-20)
(0.990049 0.0538108 -2.65951e-20)
(1.10062 0.0660222 -2.88706e-20)
(-0.0030494 -0.00378025 1.28763e-19)
(-0.0114458 -0.0188162 -1.63994e-19)
(-0.028087 -0.0359404 -3.11335e-22)
(-0.0442363 -0.0495725 3.54092e-20)
(-0.0541232 -0.0601119 -6.61574e-20)
(-0.0540688 -0.0691554 -6.08885e-20)
(-0.041318 -0.077738 1.1211e-19)
(-0.0140796 -0.0861486 -1.88817e-21)
(0.0286346 -0.0940896 -9.52042e-20)
(0.0869175 -0.10082 1.68427e-19)
(0.159852 -0.105405 -3.87502e-21)
(0.245446 -0.1069 -6.86215e-20)
(0.340736 -0.104471 0)
(0.442277 -0.0977446 0)
(0.546258 -0.086639 -2.04482e-20)
(0.649373 -0.071647 -3.44229e-20)
(0.748092 -0.053132 -5.16049e-20)
(0.840758 -0.0330635 4.81047e-20)
(0.92524 -0.0108994 -1.70004e-20)
(0.999051 0.00926084 2.69016e-20)
(1.06652 0.0300774 -1.37058e-20)
(1.11774 0.0453256 1.62495e-20)
(1.16485 0.0609167 -4.32469e-20)
(1.20274 0.065575 6.33578e-21)
(-0.00949446 0.00563332 4.31863e-20)
(-0.0206517 0.00181776 0)
(-0.0313558 -0.00931175 7.72596e-20)
(-0.0362962 -0.0209699 -7.15436e-20)
(-0.0308416 -0.0316876 6.62371e-20)
(-0.0114859 -0.0416282 0)
(0.0244073 -0.0510686 0)
(0.078423 -0.0598296 -5.14195e-20)
(0.150817 -0.0673397 2.36045e-21)
(0.240249 -0.0727517 4.43209e-20)
(0.343625 -0.075197 -3.61958e-20)
(0.456409 -0.0739676 6.90377e-20)
(0.573196 -0.0687021 0)
(0.688455 -0.0594905 9.4695e-20)
(0.797196 -0.0468413 -1.67642e-19)
(0.895513 -0.0316369 1.08484e-19)
(0.980438 -0.0148647 5.45767e-20)
(1.0514 0.0019968 -5.08782e-20)
(1.10626 0.018669 0)
(1.14893 0.0323204 0)
(1.1768 0.0454522 0)
(1.19448 0.0524446 0)
(1.20696 0.0597116 8.89701e-21)
(1.20361 0.0586138 -3.24318e-20)
(0.0915421 0.749628 -3.56211e-21)
(0.128313 0.808198 3.57249e-21)
(0.151563 0.845757 -8.34408e-23)
(0.160263 0.870488 0)
(0.165808 0.877361 -2.23371e-21)
(0.188518 0.845555 4.39356e-21)
(0.24691 0.750007 1.7828e-22)
(0.342841 0.58376 -2.27061e-21)
(0.455562 0.367178 0)
(0.560796 0.120988 0)
(0.650932 -0.145311 -1.69938e-22)
(0.727436 -0.403463 -1.55114e-22)
(0.783797 -0.604604 -1.99011e-21)
(0.814784 -0.715818 1.80657e-21)
(0.826946 -0.743691 0)
(0.824244 -0.726964 0)
(0.81097 -0.697748 7.5822e-22)
(0.798398 -0.664802 -3.01492e-23)
(0.785049 -0.648465 -6.44451e-22)
(0.755757 -0.674874 -4.29426e-23)
(0.706983 -0.718565 0)
(0.655627 -0.693569 0)
(0.626063 -0.529617 0)
(0.627572 -0.242396 0)
(0.654536 0.08192 0)
(0.694979 0.352443 0)
(0.734933 0.52144 2.84523e-22)
(0.77222 0.584946 -4.55607e-22)
(0.808283 0.587685 0)
(0.826108 0.59844 0)
(0.814358 0.638356 -2.09124e-22)
(0.7725 0.662448 2.03203e-22)
(0.716591 0.608682 1.38651e-22)
(0.669966 0.442568 0)
(0.651107 0.183101 0)
(0.657647 -0.0994871 3.09892e-22)
(0.685999 -0.322702 -3.01185e-22)
(0.726292 -0.444712 0)
(0.753089 -0.495957 1.33764e-22)
(0.727239 -0.524117 -1.88013e-22)
(0.66969 -0.521023 5.24321e-23)
(0.615458 -0.438413 0)
(0.598908 -0.255046 -1.261e-22)
(0.620435 -0.0342788 1.22614e-22)
(0.666641 0.167677 0)
(0.683266 0.323843 0)
(0.674924 0.432376 -3.61815e-23)
(0.652512 0.46385 1.05202e-22)
(0.647713 0.363355 0)
(0.649378 0.186548 0)
(0.664631 -0.0599235 -3.00499e-23)
(0.650713 -0.277365 -3.48456e-24)
(0.638676 -0.398835 -4.05464e-24)
(0.624613 -0.414016 1.3576e-23)
(0.629009 -0.194883 0)
(0.606486 0.0431864 0)
(0.591485 0.276175 0)
(0.572402 0.420481 0)
(0.562737 0.130965 0)
(0.516464 -0.0733529 0)
(-0.069948 0.693327 -2.96248e-22)
(-0.0192222 0.769194 -1.10075e-20)
(0.0215831 0.818496 1.053e-21)
(0.0645754 0.845855 9.30732e-21)
(0.118514 0.838615 1.2676e-22)
(0.197184 0.779457 0)
(0.307227 0.655903 -9.46376e-21)
(0.438398 0.478042 1.97289e-20)
(0.566373 0.271322 -1.02672e-20)
(0.675305 0.0426001 1.12475e-20)
(0.767296 -0.21093 -1.07512e-20)
(0.842399 -0.45828 9.21739e-21)
(0.889171 -0.643266 -8.97238e-21)
(0.901874 -0.735835 -2.04496e-22)
(0.891844 -0.747937 -4.50653e-21)
(0.869875 -0.719124 4.37668e-21)
(0.839959 -0.684198 -2.97603e-21)
(0.812623 -0.650639 2.80747e-21)
(0.788867 -0.629123 -2.68143e-21)
(0.751043 -0.644217 5.41621e-21)
(0.692361 -0.680629 -2.72857e-21)
(0.62928 -0.661879 -2.00171e-22)
(0.585728 -0.516607 -4.53571e-21)
(0.576231 -0.25216 9.1535e-21)
(0.600426 0.0538945 -4.61182e-21)
(0.643662 0.31876 2.34182e-22)
(0.691948 0.490736 2.91531e-21)
(0.742715 0.559794 -4.9298e-22)
(0.792304 0.571488 -3.87813e-21)
(0.822874 0.595386 3.37408e-21)
(0.82378 0.649528 -1.59784e-21)
(0.794223 0.684589 2.32796e-22)
(0.750223 0.634555 -1.38947e-22)
(0.713076 0.462474 3.76333e-22)
(0.6989 0.190615 0)
(0.70403 -0.104419 0)
(0.721918 -0.336843 -1.05958e-21)
(0.748791 -0.459365 8.02655e-22)
(0.769212 -0.497631 3.89385e-22)
(0.739316 -0.509809 -3.7316e-23)
(0.676007 -0.501538 -4.75925e-22)
(0.617814 -0.426469 9.32081e-23)
(0.601017 -0.256841 0)
(0.621434 -0.0466096 0)
(0.663679 0.156779 0)
(0.678399 0.321585 0)
(0.67219 0.436081 1.31429e-22)
(0.65322 0.468026 -7.00849e-23)
(0.650377 0.364963 0)
(0.654803 0.18494 0)
(0.673681 -0.0595285 0)
(0.659448 -0.274941 -4.91934e-23)
(0.642518 -0.395416 1.31413e-23)
(0.623705 -0.413248 -3.22898e-23)
(0.627317 -0.193042 0)
(0.606317 0.0458268 0)
(0.596945 0.278967 9.37496e-24)
(0.584119 0.422853 3.19819e-23)
(0.5684 0.138361 0)
(0.515456 -0.0695681 0)
(-0.172785 0.614321 -1.85481e-21)
(-0.100247 0.697119 -1.90449e-20)
(-0.0364675 0.746197 1.64486e-20)
(0.0440551 0.767912 -1.54036e-20)
(0.140707 0.747186 -1.2768e-22)
(0.259943 0.67108 0)
(0.399949 0.536706 -1.91089e-20)
(0.544927 0.365206 1.87156e-20)
(0.672919 0.181482 1.66325e-22)
(0.779621 -0.021907 3.37278e-22)
(0.874054 -0.257575 3.32871e-22)
(0.948661 -0.489388 3.13868e-22)
(0.985578 -0.65533 -1.51055e-20)
(0.981304 -0.730336 1.48743e-20)
(0.951288 -0.732806 0)
(0.91313 -0.699689 2.3446e-22)
(0.870842 -0.663929 -5.74183e-21)
(0.830596 -0.632048 5.65967e-21)
(0.797801 -0.60591 0)
(0.755505 -0.608546 0)
(0.689525 -0.638934 -5.66115e-21)
(0.615042 -0.630918 1.22874e-20)
(0.560056 -0.508193 -1.39995e-20)
(0.53972 -0.267508 -4.36597e-22)
(0.557654 0.0209345 1.51762e-20)
(0.600983 0.279184 -1.393e-20)
(0.655767 0.453026 1.08006e-20)
(0.717548 0.527974 -1.17644e-21)
(0.779179 0.548975 -3.77053e-21)
(0.822707 0.584656 0)
(0.837164 0.652968 0)
(0.821508 0.702417 1.7514e-21)
(0.79021 0.660377 -2.15881e-21)
(0.762525 0.485267 2.03883e-23)
(0.753137 0.204533 3.44779e-21)
(0.757307 -0.0998431 -3.34999e-21)
(0.765128 -0.341016 0)
(0.776848 -0.46804 2.28101e-22)
(0.790022 -0.497274 1.26291e-21)
(0.757788 -0.494592 -2.11342e-21)
(0.689177 -0.481967 7.95638e-22)
(0.625815 -0.416204 6.08759e-23)
(0.607993 -0.260663 -7.97411e-22)
(0.626592 -0.0595393 6.3163e-22)
(0.664944 0.145804 1.16598e-22)
(0.678386 0.319003 1.10266e-22)
(0.674224 0.438983 -1.31782e-22)
(0.657628 0.472163 0)
(0.655848 0.367082 0)
(0.662892 0.183699 -7.7109e-22)
(0.685945 -0.0580661 3.61162e-22)
(0.672247 -0.271198 -2.85698e-22)
(0.650363 -0.390655 2.77809e-22)
(0.626098 -0.412552 1.74635e-22)
(0.629168 -0.192396 -6.21596e-23)
(0.609908 0.0476712 1.55985e-23)
(0.606295 0.279831 -1.21334e-23)
(0.599262 0.425619 4.25321e-24)
(0.578664 0.147362 0)
(0.518815 -0.0652227 0)
(-0.167633 0.515951 -2.68596e-20)
(-0.0821484 0.59052 1.09995e-22)
(-0.000848559 0.638062 2.5157e-20)
(0.105672 0.655006 -2.20685e-22)
(0.22735 0.628385 0)
(0.365991 0.547884 0)
(0.515802 0.4161 -3.69099e-20)
(0.658533 0.260726 -4.73636e-21)
(0.776695 0.102822 6.03614e-20)
(0.87807 -0.0772883 5.62277e-22)
(0.975212 -0.295918 -2.11984e-20)
(1.04936 -0.509731 -1.72821e-20)
(1.07558 -0.654423 1.73387e-20)
(1.05486 -0.711636 0)
(1.00698 -0.706522 -8.65351e-21)
(0.954252 -0.67231 7.94115e-21)
(0.903225 -0.637546 0)
(0.85342 -0.609511 0)
(0.810929 -0.582177 4.22336e-21)
(0.765418 -0.571875 6.65132e-23)
(0.697508 -0.591248 -3.90308e-21)
(0.614286 -0.592763 -5.47029e-21)
(0.547728 -0.497591 5.46347e-21)
(0.516972 -0.285595 -6.9148e-21)
(0.526627 -0.0158707 3.50725e-22)
(0.566901 0.234496 6.18997e-21)
(0.625745 0.409181 5.87983e-22)
(0.696282 0.489588 4.0267e-23)
(0.768054 0.518899 0)
(0.823732 0.565595 2.97007e-21)
(0.853147 0.647887 -3.06591e-21)
(0.852535 0.711911 2.38531e-22)
(0.833498 0.680345 0)
(0.815453 0.50774 -4.01573e-22)
(0.811175 0.222502 7.31047e-21)
(0.815596 -0.0888538 -1.26333e-20)
(0.815259 -0.33747 6.30617e-22)
(0.810785 -0.471389 1.38856e-21)
(0.814478 -0.495866 2.9373e-21)
(0.781083 -0.479107 2.21838e-22)
(0.708565 -0.461191 -1.21287e-21)
(0.638635 -0.405886 1.02332e-21)
(0.618501 -0.265899 3.68152e-23)
(0.635129 -0.0735122 4.32639e-22)
(0.67034 0.133709 -5.37644e-22)
(0.682981 0.315038 -7.10493e-22)
(0.680481 0.441206 2.03709e-22)
(0.665369 0.476874 6.90952e-22)
(0.663987 0.37023 -1.48867e-21)
(0.673463 0.182895 1.19526e-21)
(0.701236 -0.0560794 -2.90092e-22)
(0.688946 -0.266501 4.75866e-22)
(0.662236 -0.3844 2.96984e-22)
(0.631773 -0.411569 -2.34607e-22)
(0.634452 -0.19294 2.37855e-23)
(0.617022 0.0486306 4.31382e-23)
(0.61911 0.278903 0)
(0.617586 0.428565 -2.05735e-24)
(0.593556 0.157827 1.81803e-22)
(0.526651 -0.060217 0)
(-0.0488592 0.406544 1.64765e-20)
(0.0332596 0.469435 -3.33448e-20)
(0.12484 0.514495 1.66485e-20)
(0.237393 0.528539 2.19955e-20)
(0.364423 0.503223 -4.76263e-20)
(0.503981 0.428187 -5.06412e-21)
(0.647954 0.308209 2.99766e-20)
(0.776071 0.173681 3.80453e-20)
(0.879322 0.0381922 -3.72459e-20)
(0.977075 -0.125052 0)
(1.07609 -0.326038 -3.83383e-20)
(1.1438 -0.513965 7.06821e-20)
(1.1539 -0.632957 -3.25376e-20)
(1.116 -0.674446 0)
(1.05441 -0.666576 0)
(0.990981 -0.636895 2.28026e-22)
(0.93406 -0.605878 -1.02512e-20)
(0.879361 -0.582581 9.95279e-21)
(0.829779 -0.557936 0)
(0.781345 -0.538158 7.16651e-21)
(0.714542 -0.544612 -1.39718e-20)
(0.626436 -0.551659 1.52212e-20)
(0.548372 -0.484453 -1.79109e-20)
(0.50633 -0.304357 -1.21005e-21)
(0.506154 -0.0558594 2.07627e-20)
(0.541081 0.185044 -1.02045e-20)
(0.60166 0.359773 -2.69716e-22)
(0.677899 0.445797 -2.60893e-21)
(0.757551 0.482543 2.04459e-22)
(0.825051 0.536794 2.45886e-21)
(0.869227 0.63091 1.83124e-22)
(0.883799 0.713052 -4.42438e-21)
(0.878995 0.699021 1.02372e-20)
(0.871096 0.534574 -6.58675e-21)
(0.87127 0.247158 0)
(0.876232 -0.0698908 -7.61064e-21)
(0.869949 -0.324953 7.24202e-21)
(0.849924 -0.467571 -2.94919e-21)
(0.842038 -0.492247 3.70835e-21)
(0.808086 -0.463539 -2.04475e-22)
(0.733529 -0.439446 0)
(0.655926 -0.394803 -1.0009e-22)
(0.631596 -0.27204 2.72731e-22)
(0.64616 -0.088904 0)
(0.679321 0.120115 6.60066e-22)
(0.692019 0.30997 -2.55605e-22)
(0.691439 0.442335 2.15519e-22)
(0.676951 0.481258 3.01893e-22)
(0.675003 0.37409 0)
(0.686509 0.182317 0)
(0.719366 -0.0537315 -1.19637e-21)
(0.709335 -0.260787 1.62505e-21)
(0.67806 -0.37654 -7.18759e-22)
(0.640647 -0.410125 1.79831e-22)
(0.642958 -0.194738 5.05089e-23)
(0.627339 0.0486037 -4.31847e-23)
(0.634948 0.276145 1.46942e-22)
(0.638782 0.431354 0)
(0.612962 0.16956 -2.35875e-22)
(0.539012 -0.054478 -9.56445e-23)
(0.147765 0.299883 9.43741e-21)
(0.219923 0.357394 -9.34603e-21)
(0.306099 0.394818 1.1755e-22)
(0.409836 0.405903 -1.10595e-22)
(0.526506 0.385452 1.72238e-22)
(0.653296 0.322269 -2.09451e-22)
(0.780286 0.220704 4.37085e-22)
(0.887944 0.108007 0)
(0.97968 -0.0106627 -5.33813e-22)
(1.07807 -0.163481 5.51843e-22)
(1.17441 -0.345871 5.36138e-22)
(1.22815 -0.504591 -5.43486e-22)
(1.21913 -0.598505 0)
(1.16556 -0.628244 0)
(1.09442 -0.620596 2.56599e-22)
(1.02426 -0.597765 0)
(0.963392 -0.571673 -1.56007e-22)
(0.906008 -0.551836 0)
(0.851307 -0.532282 -6.30264e-21)
(0.800999 -0.508098 1.18914e-20)
(0.738722 -0.500054 -1.10717e-20)
(0.650838 -0.506229 5.4463e-21)
(0.562103 -0.465169 7.07972e-21)
(0.506861 -0.320817 -6.87259e-21)
(0.495537 -0.0973434 -8.12756e-21)
(0.523246 0.132386 7.87166e-21)
(0.582753 0.306253 0)
(0.661841 0.397024 1.27321e-22)
(0.747376 0.439175 0)
(0.824583 0.499404 0)
(0.882999 0.60448 5.61117e-21)
(0.914255 0.702916 -5.71573e-21)
(0.922396 0.707975 5.79011e-22)
(0.923713 0.5583 8.28783e-22)
(0.929374 0.275147 -9.31688e-22)
(0.936193 -0.0454694 -6.87784e-21)
(0.92695 -0.305182 6.67655e-21)
(0.893488 -0.45674 -4.08042e-21)
(0.871966 -0.486567 3.44493e-21)
(0.837158 -0.448609 4.02713e-22)
(0.762896 -0.416645 -8.5972e-22)
(0.677425 -0.381857 1.53804e-22)
(0.646651 -0.278146 4.46943e-22)
(0.6589 -0.105442 0)
(0.691566 0.104148 -1.39189e-22)
(0.705117 0.301826 4.19077e-22)
(0.706173 0.442237 -5.22665e-22)
(0.691728 0.487092 -3.03923e-22)
(0.688833 0.379728 0)
(0.702078 0.18224 4.74233e-22)
(0.740213 -0.0512399 -9.72803e-22)
(0.733149 -0.254286 2.10488e-23)
(0.697691 -0.367005 -2.10448e-22)
(0.652611 -0.407956 -1.43024e-23)
(0.654399 -0.197692 -7.11946e-24)
(0.640499 0.0476102 0)
(0.653297 0.271631 -1.47029e-22)
(0.662455 0.433859 0)
(0.636635 0.182365 0)
(0.555854 -0.0479639 1.16092e-22)