/*--------------------------------*- C++ -*----------------------------------*\
| =========                 |                                                 |
| \\      /  F ield         | OpenFOAM: The Open Source CFD Toolbox           |
|  \\    /   O peration     | Version:  2312                                  |
|   \\  /    A nd           | Website:  www.openfoam.com                      |
|    \\/     M anipulation  |                                                 |
\*---------------------------------------------------------------------------*/
FoamFile
{
    version     2.0;
    format      ascii;
    arch        "LSB;label=32;scalar=64";
    class       volScalarField;
    location    "157.8";
    object      p;
}
// * * * * * * * * * * * * * * * * * * * * * * * * * * * * * * * * * * * * * //

dimensions      [0 2 -2 0 0 0 0];

internalField   nonuniform List<scalar> 
5478
(
-0.330976
-0.330907
-0.326862
-0.319482
-0.309783
-0.29881
-0.288144
-0.278991
-0.271777
-0.265842
-0.260119
-0.252414
-0.243205
-0.23068
-0.21579
-0.339373
-0.337809
-0.333644
-0.327033
-0.317877
-0.306328
-0.293374
-0.280255
-0.267613
-0.255495
-0.243429
-0.231377
-0.219087
-0.205352
-0.191042
-0.351575
-0.347588
-0.342118
-0.334861
-0.324486
-0.31043
-0.293888
-0.276551
-0.259644
-0.243677
-0.228775
-0.214429
-0.200031
-0.185402
-0.170782
-0.367576
-0.360653
-0.353008
-0.343553
-0.329569
-0.311201
-0.29062
-0.269923
-0.250267
-0.232049
-0.215008
-0.198946
-0.18371
-0.168987
-0.15509
-0.388792
-0.378065
-0.367816
-0.353602
-0.333387
-0.309559
-0.285069
-0.261618
-0.239903
-0.219993
-0.201805
-0.185055
-0.169241
-0.154453
-0.140272
-0.416334
-0.399978
-0.38562
-0.36351
-0.335209
-0.30559
-0.277386
-0.251548
-0.228205
-0.207203
-0.188187
-0.170837
-0.15499
-0.140356
-0.126468
-0.447696
-0.425579
-0.40257
-0.369912
-0.333229
-0.298176
-0.266606
-0.238655
-0.213974
-0.192112
-0.172708
-0.155407
-0.139799
-0.125692
-0.112371
-0.476017
-0.450021
-0.414202
-0.369619
-0.325246
-0.285521
-0.251134
-0.221535
-0.195956
-0.173746
-0.154358
-0.137373
-0.122515
-0.109355
-0.0973864
-0.430433
-0.43292
-0.434236
-0.436656
-0.440138
-0.444351
-0.448668
-0.452458
-0.455395
-0.457775
-0.460747
-0.466237
-0.475801
-0.49003
-0.506521
-0.404457
-0.40503
-0.403816
-0.402649
-0.401866
-0.401481
-0.401615
-0.402658
-0.405413
-0.411213
-0.421637
-0.437781
-0.46096
-0.490015
-0.518253
-0.384168
-0.383058
-0.38008
-0.376369
-0.372489
-0.368837
-0.366047
-0.365103
-0.3674
-0.374465
-0.387931
-0.408659
-0.435165
-0.468845
-0.498286
-0.36778
-0.365706
-0.361623
-0.35586
-0.349236
-0.34259
-0.336966
-0.333715
-0.334422
-0.3407
-0.353272
-0.373924
-0.398477
-0.430816
-0.457607
-0.353817
-0.351815
-0.347016
-0.339376
-0.329882
-0.320021
-0.31128
-0.305295
-0.303702
-0.308512
-0.319774
-0.340106
-0.363168
-0.391236
-0.413151
-0.341899
-0.34072
-0.335538
-0.326292
-0.31405
-0.301152
-0.289753
-0.282079
-0.280003
-0.285366
-0.296998
-0.315348
-0.334765
-0.353643
-0.364711
-0.332551
-0.332382
-0.327166
-0.31746
-0.303768
-0.290143
-0.278784
-0.271854
-0.270645
-0.275218
-0.284355
-0.296014
-0.306474
-0.313405
-0.311783
-0.328321
-0.328629
-0.323856
-0.315042
-0.302506
-0.290654
-0.280448
-0.273563
-0.270863
-0.271383
-0.274073
-0.275582
-0.274332
-0.269014
-0.260037
-0.553865
-0.593087
-0.501593
-0.350834
-0.235638
-0.187078
-0.179466
-0.20242
-0.197384
-0.162947
-0.149193
-0.140156
-0.116184
-0.107286
-0.120653
-0.146184
-0.143249
-0.126284
-0.108961
-0.124205
-0.137887
-0.141297
-0.119296
-0.137415
-0.140092
-0.166644
-0.158805
-0.163946
-0.113128
-0.0864871
-0.0336726
-0.0232504
-0.0178548
-0.012317
-0.00693807
-0.0043251
-0.00274996
-0.000960048
-0.573538
-0.611658
-0.522069
-0.365179
-0.238022
-0.17889
-0.154884
-0.159404
-0.143846
-0.138876
-0.143782
-0.138577
-0.116721
-0.109099
-0.12168
-0.144845
-0.140769
-0.128412
-0.11699
-0.134424
-0.149074
-0.143867
-0.106198
-0.12468
-0.125709
-0.166825
-0.18062
-0.173814
-0.103221
-0.0808497
-0.0362494
-0.0246423
-0.0172227
-0.0118601
-0.00703716
-0.0044014
-0.00272333
-0.000942749
-0.547431
-0.586693
-0.506427
-0.360015
-0.234695
-0.171803
-0.140806
-0.128691
-0.100639
-0.119065
-0.137555
-0.136361
-0.118999
-0.112326
-0.124009
-0.142585
-0.136897
-0.128414
-0.122954
-0.142904
-0.159442
-0.143927
-0.0913624
-0.111597
-0.111019
-0.162745
-0.197335
-0.179334
-0.0913211
-0.073648
-0.038268
-0.0257848
-0.0164808
-0.0113571
-0.00712171
-0.00447178
-0.002693
-0.000924253
-0.492085
-0.531724
-0.461775
-0.336375
-0.226226
-0.164738
-0.133893
-0.113531
-0.0803439
-0.104417
-0.133104
-0.137772
-0.12339
-0.11966
-0.128488
-0.139451
-0.131673
-0.125928
-0.126355
-0.149232
-0.168838
-0.143081
-0.076742
-0.098827
-0.0966171
-0.154374
-0.208681
-0.181948
-0.0789352
-0.0654092
-0.0395284
-0.0266366
-0.0156971
-0.0108314
-0.00718041
-0.00453172
-0.0026609
-0.000905503
-0.427121
-0.454697
-0.400972
-0.30514
-0.215986
-0.159118
-0.128506
-0.109271
-0.0812204
-0.105457
-0.131594
-0.13979
-0.128699
-0.129176
-0.133984
-0.136451
-0.125184
-0.120827
-0.126939
-0.152698
-0.17698
-0.140902
-0.0635777
-0.0864837
-0.082797
-0.142332
-0.215302
-0.181274
-0.0671014
-0.0564863
-0.0399284
-0.027124
-0.0149229
-0.0103082
-0.00720398
-0.00457643
-0.00262808
-0.000887183
-0.35832
-0.374023
-0.339041
-0.27341
-0.204789
-0.154761
-0.123722
-0.104586
-0.0889843
-0.0930049
-0.137621
-0.142983
-0.130733
-0.134013
-0.13511
-0.130927
-0.116836
-0.112752
-0.124925
-0.15288
-0.183321
-0.139312
-0.0533503
-0.074998
-0.0699442
-0.126971
-0.217514
-0.177878
-0.0569593
-0.0474989
-0.0395753
-0.0272682
-0.0142218
-0.00980492
-0.00718905
-0.00460433
-0.00259583
-0.000869961
-0.292992
-0.305133
-0.288957
-0.247799
-0.195628
-0.151045
-0.119866
-0.0987514
-0.0944361
-0.108339
-0.149387
-0.142252
-0.126671
-0.136655
-0.136991
-0.128767
-0.109702
-0.101946
-0.119806
-0.149919
-0.185533
-0.134783
-0.0462874
-0.0647856
-0.0587201
-0.107428
-0.216623
-0.170436
-0.049392
-0.0382771
-0.0384879
-0.0269879
-0.0135971
-0.00934901
-0.00713334
-0.00460889
-0.0025625
-0.000853661
-0.248366
-0.256317
-0.246801
-0.22239
-0.186249
-0.148335
-0.121224
-0.0955473
-0.0856199
-0.110564
-0.164317
-0.136747
-0.122872
-0.127487
-0.127269
-0.119745
-0.101543
-0.089166
-0.111772
-0.142227
-0.191409
-0.13201
-0.0415482
-0.054919
-0.0481946
-0.086218
-0.211745
-0.160773
-0.0440948
-0.0296494
-0.0365187
-0.0265129
-0.0131216
-0.00894023
-0.00704381
-0.00460506
-0.00253414
-0.000840042
-0.222804
-0.23204
-0.21655
-0.191194
-0.157012
-0.123159
-0.100177
-0.0789927
-0.059963
-0.0826291
-0.121787
-0.110854
-0.108225
-0.119923
-0.130522
-0.109361
-0.0895428
-0.0750434
-0.103138
-0.13037
-0.168373
-0.123151
-0.0382442
-0.0470227
-0.0413486
-0.0728727
-0.196496
-0.147082
-0.039729
-0.0231906
-0.0337033
-0.0249858
-0.012486
-0.00851556
-0.00684619
-0.00452602
-0.00247775
-0.000817543
-0.164871
-0.177025
-0.163704
-0.141161
-0.115045
-0.0896214
-0.0724716
-0.0541923
-0.0356026
-0.0480451
-0.0679861
-0.0642847
-0.0762895
-0.104226
-0.0891284
-0.0837093
-0.0646468
-0.0514627
-0.0835741
-0.119476
-0.159236
-0.110762
-0.0251877
-0.0361243
-0.0246209
-0.0512334
-0.172312
-0.135037
-0.0258538
-0.0172127
-0.0294296
-0.0230141
-0.0113854
-0.0077131
-0.00652767
-0.00437108
-0.00238718
-0.000784591
-0.128377
-0.141013
-0.133372
-0.116685
-0.0962224
-0.0742022
-0.0556593
-0.0347968
-0.00518726
0.0124496
0.0275235
0.0152109
-0.0305008
-0.074901
-0.0705333
-0.0593527
-0.0438052
-0.0298322
-0.0515564
-0.0867314
-0.119003
-0.0801469
-0.0100239
-0.0266211
-0.0156077
-0.0273341
-0.135808
-0.108661
-0.0117687
-0.0130579
-0.0244484
-0.0201045
-0.0102435
-0.00716798
-0.00615322
-0.00415203
-0.00227861
-0.00075042
-0.0989106
-0.107726
-0.102114
-0.0872365
-0.0679487
-0.049077
-0.0320786
-0.0136273
0.0124262
0.036316
0.0556703
0.0565952
0.00648961
-0.0370682
-0.0399889
-0.0308545
-0.0182774
-0.00584969
-0.0178071
-0.048475
-0.0704726
-0.0405719
-0.00140543
-0.0163434
-0.00496726
-0.00168855
-0.0885715
-0.069958
-0.00153589
-0.00850758
-0.0183369
-0.0167531
-0.00930188
-0.0067266
-0.00570792
-0.0038612
-0.00214783
-0.000712477
-0.0714812
-0.0791818
-0.076379
-0.0658301
-0.0518944
-0.03702
-0.0224944
-0.00595108
0.0181278
0.0416583
0.0572262
0.0592385
0.0266857
-0.00566821
-0.0168298
-0.0119895
-0.00464817
0.00733227
0.0131456
-0.00755532
-0.0227511
-0.00681503
-0.000453721
-0.0117035
0.0018827
0.0181936
-0.0338919
-0.0221569
0.00690188
-0.00239608
-0.0111902
-0.012669
-0.00838591
-0.00639888
-0.00520017
-0.00349574
-0.00199016
-0.000669018
-0.0512163
-0.0577899
-0.0562092
-0.048314
-0.0371792
-0.0247341
-0.0116443
0.00224769
0.0200464
0.0360851
0.0471046
0.0501493
0.0325928
0.0119828
1.33307e-05
0.00396881
0.0107855
0.0171926
0.021921
0.00428276
-0.00339264
0.00775054
0.000496393
-0.00401005
0.00992731
0.0291015
0.00683748
0.0161476
0.0126511
0.00406843
-0.00439674
-0.00862261
-0.00740699
-0.00590263
-0.00463231
-0.00308808
-0.00181036
-0.000622342
-0.0356383
-0.040202
-0.0393183
-0.0336637
-0.0253217
-0.0159714
-0.00596651
0.00433692
0.0167928
0.0284296
0.0365135
0.0390629
0.030772
0.0193337
0.0102967
0.011013
0.015301
0.0200999
0.024997
0.0160643
0.00881328
0.0133979
0.00570628
0.00536919
0.0155836
0.0314579
0.0288445
0.0334039
0.0148245
0.00801898
0.00025191
-0.00557335
-0.00625228
-0.00516632
-0.00402022
-0.00267704
-0.00161241
-0.000567804
-0.0224979
-0.0262549
-0.0261574
-0.0223115
-0.0162698
-0.00936663
-0.00181562
0.00588034
0.0145145
0.0224754
0.0282346
0.0303093
0.0267236
0.0213236
0.0159447
0.0163584
0.0199128
0.0223177
0.0238802
0.0194454
0.0136067
0.0151708
0.0114237
0.0133998
0.0191252
0.0281985
0.0305382
0.0316178
0.0157236
0.010143
0.002177
-0.00362718
-0.00480799
-0.00420803
-0.00338473
-0.00226948
-0.00139591
-0.000503193
-0.0127076
-0.0156923
-0.0158456
-0.0132598
-0.00898713
-0.00402527
0.00139629
0.00682759
0.0126165
0.0179434
0.0220519
0.024026
0.0229977
0.0209803
0.0180983
0.0176369
0.0195511
0.0212518
0.0219451
0.0201152
0.0164443
0.0162604
0.0145171
0.01601
0.0201306
0.0254835
0.0280923
0.0279698
0.0165309
0.0110867
0.00381442
-0.00179041
-0.00319118
-0.00312331
-0.00265746
-0.00183064
-0.00114864
-0.000418106
-0.00520692
-0.00741734
-0.00773096
-0.00610937
-0.00322862
0.000219285
0.00397078
0.0077245
0.0116431
0.0153178
0.018303
0.019985
0.0200841
0.0195903
0.0185171
0.0184106
0.0197916
0.0208219
0.0206928
0.0195793
0.0175285
0.016977
0.0162005
0.0177375
0.020693
0.023116
0.0239534
0.0238237
0.017042
0.0116439
0.00516334
3.07081e-05
-0.00168492
-0.00207087
-0.00191436
-0.00137166
-0.000886774
-0.000328076
0.000735693
-0.00100759
-0.00144399
-0.000512793
0.00136346
0.00371382
0.00623803
0.00876781
0.0113297
0.0137904
0.0158859
0.017359
0.017992
0.018271
0.0182485
0.018218
0.0188593
0.0195084
0.0192767
0.0187993
0.017711
0.0173216
0.0168381
0.0174545
0.0197483
0.0209095
0.0210258
0.0204754
0.0162782
0.0118273
0.00637176
0.00176566
-0.000289225
-0.00103228
-0.00113941
-0.000878346
-0.00059905
-0.000224109
0.00524293
0.00385848
0.00338952
0.00390393
0.00508718
0.00662743
0.00825988
0.00991848
0.0115762
0.0132185
0.0146914
0.0158606
0.0166286
0.0171249
0.0174598
0.0176872
0.0181341
0.0186404
0.0185912
0.018242
0.0176338
0.0173606
0.0172693
0.0176588
0.018921
0.0192113
0.0187895
0.0179353
0.0152327
0.0117996
0.0073115
0.00325886
0.000984769
-5.91816e-05
-0.000408192
-0.000391556
-0.00030954
-0.000124198
0.00864411
0.0075727
0.00713159
0.00735491
0.00804938
0.00902782
0.0100649
0.0111166
0.0121563
0.013219
0.0142341
0.0150967
0.0157793
0.0162897
0.0167723
0.0171182
0.0174201
0.0177614
0.0177727
0.0175951
0.0172746
0.0171019
0.0169687
0.0170374
0.0176217
0.0176178
0.0170368
0.0160051
0.0139297
0.0114056
0.00791192
0.00446738
0.00213841
0.000839849
0.000270789
7.88184e-05
-2.11757e-05
-2.40094e-05
0.0112729
0.0104282
0.0100019
0.0100381
0.0104207
0.011016
0.0116418
0.0122666
0.0128929
0.0135585
0.0142272
0.0148126
0.0153392
0.0157841
0.0162072
0.0165436
0.0167804
0.0170287
0.0171149
0.0170251
0.0168359
0.016702
0.0166037
0.0165406
0.0166655
0.0163439
0.0156504
0.0146407
0.0129678
0.01097
0.0082801
0.00541773
0.00319174
0.00170766
0.000917684
0.000528381
0.000262834
8.053e-05
0.013249
0.0125856
0.0122039
0.0121311
0.0123004
0.0126217
0.0129737
0.013319
0.0136656
0.0140478
0.0144541
0.014829
0.0151726
0.0154943
0.01581
0.016083
0.0162638
0.0164242
0.0165012
0.0164567
0.0163239
0.0161867
0.0160272
0.0157897
0.0156329
0.0152201
0.0144996
0.0135342
0.0121146
0.0104585
0.00838032
0.00606214
0.00404434
0.00249245
0.00150086
0.000921772
0.000504626
0.000166979
0.0147382
0.0142194
0.013881
0.0137436
0.0137761
0.013918
0.0140834
0.0142379
0.0143924
0.0145788
0.014794
0.0149994
0.0151884
0.0153781
0.015575
0.015749
0.0158548
0.015933
0.015974
0.0159263
0.0157928
0.0156297
0.0154247
0.0151281
0.014823
0.0143219
0.0135899
0.012687
0.0114804
0.0100622
0.00838503
0.00650228
0.00472076
0.0032015
0.00206432
0.00130066
0.000732478
0.000252053
0.015842
0.0154332
0.0151377
0.0149708
0.0149186
0.0149393
0.0149761
0.0150018
0.015029
0.0150805
0.0151559
0.0152299
0.0152907
0.0153614
0.0154451
0.0155188
0.0155451
0.0155485
0.0155288
0.0154438
0.0152897
0.0150925
0.0148426
0.0144949
0.0140899
0.0135571
0.0128517
0.0119992
0.0109387
0.00970478
0.0082969
0.00673795
0.00518773
0.00376487
0.00256808
0.00164963
0.000929449
0.000315558
0.0166452
0.0163226
0.0160665
0.0158874
0.0157817
0.0157224
0.0156741
0.0156155
0.015558
0.0155162
0.0154916
0.0154658
0.015433
0.0154098
0.0153953
0.0153753
0.0153238
0.0152538
0.015165
0.0150304
0.0148379
0.0146005
0.0143084
0.013931
0.0134876
0.0129389
0.0122579
0.0114571
0.0105093
0.0094209
0.00820122
0.00687398
0.00551232
0.00419677
0.00299961
0.0019755
0.00111964
0.000376365
0.0172186
0.0169598
0.0167359
0.0165544
0.0164171
0.0163063
0.0162023
0.0160878
0.0159751
0.0158694
0.0157759
0.0156782
0.0155763
0.0154789
0.0153867
0.0152901
0.0151675
0.0150327
0.0148782
0.0146912
0.0144548
0.0141797
0.0138533
0.0134533
0.0129887
0.0124355
0.011784
0.0110284
0.01016
0.00918225
0.00809747
0.00692944
0.00571024
0.00449404
0.00332944
0.0022552
0.00129519
0.000429835
0.0176116
0.0173986
0.0172001
0.0170216
0.0168662
0.0167235
0.0165835
0.0164343
0.0162857
0.0161383
0.0159971
0.0158496
0.0156976
0.0155456
0.0153939
0.0152369
0.0150586
0.0148701
0.0146609
0.0144264
0.014151
0.0138407
0.013485
0.0130665
0.0125917
0.0120404
0.0114105
0.0106937
0.00988525
0.00898969
0.00800192
0.00694532
0.00583271
0.00469579
0.00357001
0.00247896
0.0014481
0.000478803
0.0178687
0.0176866
0.0175065
0.0173326
0.0171673
0.0170061
0.0168434
0.0166738
0.0165018
0.0163285
0.016155
0.015975
0.0157889
0.0155988
0.015405
0.015203
0.0149845
0.0147529
0.0145031
0.0142296
0.0139229
0.0135838
0.013204
0.0127732
0.0122896
0.0117434
0.0111292
0.0104423
0.00967791
0.00883763
0.00792021
0.00693811
0.00589914
0.00482164
0.00372928
0.00263856
0.00156599
0.00051863
0.0180185
0.0178559
0.0176887
0.0175196
0.0173498
0.0171786
0.0170034
0.0168225
0.0166375
0.0164485
0.0162555
0.0160556
0.0158485
0.0156345
0.0154132
0.0151821
0.0149364
0.0146764
0.0143981
0.014098
0.0137686
0.0134092
0.0130126
0.012572
0.0120833
0.0115401
0.0109367
0.0102695
0.00953402
0.00873062
0.00785823
0.00692267
0.00593203
0.00489437
0.00382612
0.00274085
0.00164536
0.000547135
0.0180831
0.0179304
0.0177704
0.0176047
0.017434
0.0172588
0.0170785
0.016893
0.0167022
0.016506
0.0163037
0.0160943
0.0158771
0.0156514
0.0154164
0.0151704
0.0149109
0.014636
0.0143428
0.0140286
0.0136874
0.0133171
0.0129113
0.0124658
0.0119742
0.0114326
0.0108349
0.0101776
0.00945766
0.00867221
0.00782309
0.0069114
0.00594456
0.00492834
0.00387228
0.00279043
0.00168542
0.000562077
-0.0826968
-0.0948277
-0.107665
-0.120388
-0.135659
-0.150176
-0.169242
-0.190815
-0.0672707
-0.0762089
-0.0856818
-0.0954246
-0.10634
-0.116495
-0.127321
-0.140504
-0.0524728
-0.0585537
-0.0646835
-0.0713536
-0.0787324
-0.0856031
-0.0939044
-0.10595
-0.0404403
-0.0445477
-0.0486297
-0.0532112
-0.0588022
-0.0649278
-0.0735457
-0.0835866
-0.0298888
-0.0327657
-0.0357479
-0.0394913
-0.0444829
-0.0495038
-0.0547203
-0.0604839
-0.0211994
-0.0231754
-0.0254049
-0.0280613
-0.0311243
-0.0335874
-0.036693
-0.041732
-0.0137303
-0.0149113
-0.016157
-0.0175129
-0.0193049
-0.021387
-0.0247392
-0.0290725
-0.00720422
-0.00778632
-0.00846485
-0.0094872
-0.0111567
-0.0130781
-0.0152815
-0.0179248
-0.00186162
-0.00220669
-0.0026591
-0.00339099
-0.00443976
-0.00548882
-0.00684777
-0.00902582
0.0026026
0.00244744
0.00227105
0.00191299
0.00129369
0.00047128
-0.00074296
-0.00252983
0.0063482
0.00628427
0.00622025
0.00599182
0.00553071
0.00487612
0.00399539
0.00269622
0.00937614
0.00932504
0.00929257
0.00915328
0.00886111
0.00841824
0.00777864
0.00676043
0.0118293
0.0117711
0.0117486
0.0116647
0.0114667
0.0111269
0.0106095
0.00980298
0.0137766
0.0136938
0.0136483
0.0135723
0.0134182
0.0131567
0.0127603
0.0121493
0.0152837
0.0151766
0.0151042
0.0150253
0.0149005
0.0146989
0.0143912
0.0139208
0.0164287
0.016305
0.0162097
0.0161202
0.0160067
0.0158426
0.0156019
0.0152456
0.0172726
0.0171405
0.0170304
0.0169323
0.0168253
0.016688
0.0164978
0.0162273
0.0178821
0.0177481
0.0176306
0.0175266
0.017422
0.0173006
0.0171452
0.016938
0.01831
0.0181779
0.018058
0.0179512
0.0178476
0.0177369
0.0176062
0.0174449
0.0185986
0.0184709
0.0183522
0.0182445
0.0181415
0.0180369
0.0179221
0.0177914
0.0187791
0.0186577
0.0185429
0.0184362
0.0183342
0.0182334
0.0181289
0.0180176
0.018874
0.0187609
0.0186517
0.0185476
0.0184469
0.0183484
0.0182496
0.0181493
0.0189038
0.0187999
0.0186969
0.0185957
0.0184962
0.0183984
0.0183017
0.0182056
0.0694348
0.0730761
0.0764662
0.0790249
0.0799469
0.079038
0.0761629
0.0707905
0.0619259
0.0481324
0.027439
-0.0028839
-0.0472897
-0.109204
-0.164768
0.0478021
0.0493621
0.0492048
0.0475966
0.0444414
0.0394253
0.0320521
0.0215346
0.00674655
-0.013843
-0.0423222
-0.0813999
-0.135368
-0.208704
-0.268118
0.0261116
0.0253885
0.0216574
0.0162752
0.00952963
0.000863828
-0.010538
-0.0256224
-0.0455717
-0.0719735
-0.107047
-0.15358
-0.214824
-0.296639
-0.354183
0.00431958
0.000842723
-0.00595541
-0.0142165
-0.0238373
-0.0356289
-0.0505281
-0.0694958
-0.0937157
-0.124747
-0.164971
-0.217297
-0.284193
-0.366732
-0.421038
-0.0179672
-0.0241474
-0.0330501
-0.0432272
-0.0550379
-0.0694074
-0.087142
-0.109174
-0.136658
-0.171008
-0.214708
-0.270671
-0.33959
-0.418706
-0.467568
-0.0396311
-0.0483479
-0.0586982
-0.0702533
-0.0837839
-0.100167
-0.119996
-0.144171
-0.173764
-0.210258
-0.255734
-0.312335
-0.379938
-0.452414
-0.494105
-0.0606076
-0.0709028
-0.0821249
-0.0948191
-0.109811
-0.127694
-0.148989
-0.174422
-0.205007
-0.242094
-0.287326
-0.342042
-0.405161
-0.467805
-0.502528
-0.0802753
-0.091116
-0.103207
-0.117084
-0.133216
-0.15208
-0.174153
-0.200027
-0.230569
-0.266867
-0.310109
-0.360741
-0.416136
-0.466156
-0.495628
0.187603
0.20245
0.219005
0.237715
0.258661
0.28174
0.306851
0.33394
0.362932
0.39357
0.425265
0.456835
0.48627
0.509531
0.52864
0.186465
0.200611
0.216469
0.234572
0.254913
0.27726
0.301441
0.327399
0.355057
0.384134
0.413979
0.443326
0.470057
0.490188
0.506217
0.181196
0.193813
0.208352
0.22531
0.244456
0.26534
0.287676
0.311359
0.336273
0.362073
0.388013
0.412702
0.433812
0.447523
0.457454
0.171783
0.18228
0.195027
0.210294
0.227528
0.246106
0.265687
0.28611
0.307158
0.328338
0.34871
0.366684
0.379616
0.38378
0.385243
0.158279
0.166304
0.177138
0.190559
0.205444
0.220963
0.236805
0.252863
0.268873
0.284179
0.297598
0.307268
0.310167
0.302404
0.293304
0.14104
0.146143
0.154847
0.166225
0.178502
0.190644
0.20233
0.213435
0.223607
0.23204
0.237347
0.237416
0.22885
0.20757
0.185837
0.120309
0.123208
0.130062
0.138823
0.147632
0.1557
0.162782
0.168627
0.172645
0.173792
0.170458
0.160282
0.13954
0.104141
0.0692655
0.0961585
0.0979327
0.103789
0.109889
0.114821
0.118299
0.12031
0.120506
0.118058
0.111684
0.0995483
0.0790342
0.0460469
-0.00324164
-0.0500943
0.0270999
0.0314962
0.0278298
0.0317598
0.0293065
0.03361
0.031838
0.036246
0.0355772
0.0400713
0.0408802
0.0456659
0.0481802
0.0538412
0.0585055
0.0657967
0.0732697
0.0832278
0.0943697
0.108401
0.124453
0.14416
0.166875
0.0271714
0.0315336
0.0279202
0.0318089
0.0294303
0.0336732
0.0319857
0.0363563
0.0357477
0.0402307
0.0411509
0.0458897
0.04854
0.0542661
0.0589398
0.0663339
0.0738603
0.0838567
0.0949779
0.109034
0.124834
0.144387
0.166539
0.0272528
0.0315455
0.0280276
0.0318277
0.0295704
0.0337018
0.0321655
0.0364301
0.0360005
0.0403485
0.0414574
0.0460335
0.0488859
0.0545669
0.0592908
0.0666557
0.0741912
0.0841721
0.0950199
0.108877
0.124009
0.14289
0.16338
0.0273427
0.0315336
0.0281463
0.031819
0.0297285
0.0337021
0.0323689
0.0364699
0.0362523
0.0404645
0.0417789
0.0462751
0.0493078
0.0550092
0.0597423
0.0672612
0.0745213
0.084546
0.0948253
0.108283
0.122133
0.139629
0.157236
0.0274405
0.0315014
0.028287
0.0317866
0.0299031
0.0336793
0.0325906
0.0364793
0.0365146
0.0405376
0.0420948
0.0463247
0.0496309
0.055092
0.0599013
0.0672443
0.0743099
0.084
0.0937032
0.106358
0.118671
0.134244
0.147907
0.0275418
0.0314505
0.0284269
0.0317363
0.030087
0.0336447
0.0328238
0.0364813
0.0368141
0.0406488
0.042468
0.0466789
0.0501382
0.0557196
0.0604108
0.0680328
0.0745634
0.0843143
0.092921
0.104723
0.114533
0.127311
0.13578
0.0276493
0.031384
0.0285735
0.0316751
0.0302732
0.0335927
0.0330546
0.0364546
0.0370491
0.0406943
0.0427079
0.0465644
0.050352
0.0554667
0.060285
0.0674313
0.0737534
0.0826459
0.0905374
0.100655
0.108506
0.117784
0.120652
0.0277585
0.0313094
0.0287166
0.0316107
0.0304709
0.0335687
0.0332984
0.0365055
0.0374187
0.0408961
0.0432148
0.0472206
0.0510006
0.0564775
0.061052
0.0686419
0.0742587
0.0833535
0.089389
0.0983939
0.102025
0.106905
0.101936
0.0278868
0.031198
0.0289018
0.0314879
0.0306801
0.0334392
0.0335443
0.0363391
0.0375792
0.0408418
0.0432774
0.0468619
0.0508611
0.0555605
0.0602284
0.066605
0.0717774
0.0785649
0.0835988
0.0883723
0.0896359
0.0871249
0.0769965
0.0280539
0.0310287
0.0291357
0.0313039
0.0309213
0.0331951
0.0337555
0.0360177
0.0376156
0.0403223
0.0429811
0.046104
0.0499619
0.0538596
0.0581686
0.0630696
0.0673852
0.0716482
0.074899
0.0758734
0.0747472
0.0689579
0.0605126
0.028255
0.0307964
0.0294038
0.0310602
0.0311918
0.0328731
0.0339786
0.0356738
0.0375988
0.0398658
0.0426071
0.0452383
0.0488571
0.0520029
0.0558013
0.0593157
0.0625529
0.0647674
0.0660926
0.064953
0.0617579
0.0554985
0.0472994
0.0284911
0.0304927
0.029709
0.0307746
0.0314465
0.0326027
0.0340733
0.0353852
0.0374815
0.039294
0.0420163
0.0442486
0.0474109
0.0499332
0.0529682
0.0552904
0.0573317
0.0580173
0.0576806
0.0552931
0.0509317
0.0444492
0.03647
0.0287666
0.0301103
0.0300037
0.0305532
0.0316056
0.0323816
0.0340638
0.0351113
0.0372058
0.0387237
0.0411934
0.0431204
0.045637
0.047631
0.0498058
0.0510727
0.0520044
0.0515647
0.0500086
0.0469247
0.0421696
0.0358289
0.0282852
0.0290765
0.0297236
0.0302054
0.0303941
0.031689
0.0321921
0.0339327
0.0348153
0.0367701
0.0380579
0.0401632
0.0418197
0.0436331
0.0450876
0.0464596
0.0468017
0.0468096
0.045601
0.0433541
0.039912
0.0351946
0.029245
0.0222611
0.0293721
0.0293756
0.0303128
0.0302868
0.031677
0.0320277
0.0336727
0.0344812
0.0361725
0.0372802
0.0389768
0.0403189
0.0414749
0.0423756
0.0430524
0.0426824
0.0419738
0.0402914
0.0377447
0.0342084
0.0297421
0.0243461
0.0180832
0.0296312
0.0290846
0.0303296
0.0302148
0.0315587
0.0318685
0.0332907
0.0340767
0.0354492
0.0363703
0.0376583
0.0386386
0.0392287
0.0396247
0.0397194
0.038859
0.0376648
0.0357198
0.0331206
0.0297242
0.0256503
0.0209053
0.0154708
0.0298274
0.0288713
0.0302434
0.030164
0.03134
0.0316888
0.0328186
0.033571
0.0346237
0.0353249
0.0362345
0.0368403
0.0369657
0.0369437
0.0365928
0.0354288
0.0339482
0.0319172
0.0294318
0.0263392
0.0227494
0.0186827
0.0140889
0.0299422
0.0287453
0.0300549
0.0301123
0.0310376
0.0314464
0.0322894
0.0329496
0.0337116
0.0341734
0.0347416
0.0349988
0.0347637
0.0344241
0.0337662
0.0324447
0.0308485
0.0288729
0.0266016
0.023892
0.0208243
0.0174203
0.0136161
0.029962
0.0287035
0.0297833
0.0300245
0.0306912
0.031116
0.0317175
0.0322262
0.0327285
0.0329526
0.0332219
0.0331883
0.0326999
0.0321349
0.0312905
0.0299285
0.0283493
0.0265227
0.0245162
0.0222094
0.019655
0.0168655
0.0137717
0.0298824
0.0287265
0.0294603
0.029842
0.0303244
0.0306974
0.0311044
0.0314309
0.0316987
0.0317112
0.031729
0.0314769
0.0308267
0.0301177
0.0291893
0.0278719
0.0263958
0.0247695
0.0230442
0.0211229
0.0190351
0.0167847
0.0143013
0.0297096
0.0287823
0.0291458
0.0295346
0.0299238
0.0302096
0.0304513
0.0305976
0.0306579
0.0304984
0.030317
0.0299088
0.0291724
0.0283939
0.0274573
0.0262391
0.0249137
0.0235067
0.0220535
0.0204774
0.0187917
0.0169918
0.0150101
0.0294594
0.0288096
0.0288826
0.0291451
0.0294665
0.0296532
0.0297583
0.0297555
0.0296453
0.0293529
0.0290225
0.0285131
0.0277517
0.0269617
0.0260658
0.0249773
0.0238229
0.022631
0.0214248
0.0201453
0.018796
0.0173671
0.0157973
0.02916
0.028734
0.0286537
0.0287703
0.0289674
0.0290463
0.0290372
0.0289201
0.0286866
0.0283001
0.0278693
0.0273058
0.0265614
0.025801
0.0249758
0.0240271
0.0230429
0.0220479
0.0210572
0.0200261
0.0189532
0.0178259
0.0165904
0.0288361
0.0285606
0.0284262
0.0284054
0.0284527
0.0284225
0.0283136
0.028108
0.0277935
0.0273537
0.0268694
0.0262905
0.0255899
0.0248854
0.0241442
0.0233281
0.0224982
0.0216732
0.0208619
0.0200317
0.0191792
0.0182919
0.0173237
0.0285047
0.0283167
0.0281603
0.0280388
0.0279511
0.0278164
0.0276187
0.0273445
0.0269806
0.026521
0.0260232
0.0254609
0.0248212
0.0241856
0.0235306
0.0228312
0.0221304
0.0214425
0.0207727
0.0200987
0.0194179
0.0187184
0.0179644
0.0281744
0.0280277
0.0278546
0.0276665
0.0274783
0.0272539
0.0269814
0.0266533
0.0262599
0.0258012
0.0253162
0.024792
0.0242229
0.0236619
0.0230901
0.0224907
0.0218933
0.02131
0.0207462
0.0201897
0.019639
0.0190849
0.0185
0.0278509
0.0277194
0.0275301
0.0272981
0.0270419
0.0267511
0.0264224
0.026056
0.0256477
0.0252017
0.0247425
0.0242633
0.02376
0.0232628
0.0227598
0.0222423
0.02173
0.0212312
0.0207515
0.0202855
0.0198341
0.0193908
0.0189355
0.0275443
0.0274156
0.0272122
0.0269511
0.0266514
0.0263172
0.0259525
0.0255639
0.0251523
0.0247236
0.0242923
0.0238536
0.0234032
0.0229578
0.022512
0.022062
0.0216196
0.0211905
0.0207788
0.0203835
0.0200061
0.0196433
0.0192826
0.0272726
0.0271435
0.0269294
0.0266502
0.0263248
0.025965
0.0255801
0.0251798
0.0247688
0.0243536
0.0239432
0.0235342
0.0231238
0.0227207
0.0223234
0.0219306
0.0215489
0.0211809
0.0208278
0.0204879
0.0201636
0.0198561
0.0195614
0.0270572
0.0269255
0.0267058
0.0264185
0.0260811
0.0257096
0.0253169
0.0249147
0.0245087
0.0241047
0.0237082
0.0233196
0.0229374
0.0225645
0.0222004
0.0218452
0.0215023
0.021174
0.020861
0.0205626
0.0202798
0.0200145
0.0197667
0.0269421
0.0268109
0.026585
0.0262881
0.0259403
0.025559
0.0251591
0.0247521
0.0243454
0.023946
0.0235602
0.0231891
0.0228297
0.0224794
0.0221381
0.0218069
0.021489
0.0211871
0.0209026
0.0206355
0.0203866
0.0201576
0.0199502
0.0633953
0.0447891
0.0222012
0.00245904
-0.0163706
-0.0348937
-0.0529672
-0.0688673
0.0512645
0.034369
0.0122456
-0.00659084
-0.0211313
-0.0338873
-0.0465417
-0.0574052
0.0402973
0.0272014
0.00831421
-0.00791797
-0.0184784
-0.0271139
-0.0363067
-0.0450108
0.0302693
0.020283
0.00504217
-0.00840626
-0.0166508
-0.0228864
-0.0292563
-0.0352727
0.0221139
0.0143013
0.00325107
-0.006512
-0.012781
-0.0174018
-0.0218721
-0.0261524
0.0162931
0.00994296
0.00248243
-0.00412171
-0.00881268
-0.0124072
-0.0156657
-0.0186334
0.012586
0.00754235
0.00271426
-0.00149979
-0.00482704
-0.00757718
-0.00999805
-0.0120518
0.010625
0.00671367
0.00372267
0.00119444
-0.0010404
-0.00306434
-0.00482496
-0.00620538
0.00996421
0.00699343
0.00524459
0.0038544
0.0024409
0.00100389
-0.000272496
-0.00122996
0.0101999
0.00798117
0.00704477
0.0063894
0.00556103
0.00457875
0.00366606
0.00299466
0.011009
0.00937966
0.00895694
0.00875418
0.00832388
0.00768578
0.00705471
0.00659076
0.0121093
0.0109315
0.0108199
0.0108932
0.0107329
0.0103411
0.00990154
0.00955812
0.0132845
0.012435
0.0124937
0.0127329
0.0127694
0.0125625
0.0122581
0.0119889
0.0144521
0.0138444
0.0139879
0.0142949
0.0144363
0.0143529
0.0141474
0.0139311
0.0155478
0.0151119
0.0152797
0.0155859
0.0157626
0.0157505
0.0156134
0.0154366
0.0165239
0.0162115
0.0163682
0.0166358
0.0168051
0.0168231
0.0167269
0.0165783
0.017358
0.0171336
0.017261
0.0174717
0.0176086
0.0176278
0.0175498
0.0174181
0.0180442
0.0178813
0.0179724
0.0181214
0.0182148
0.0182187
0.0181444
0.0180222
0.0185924
0.0184693
0.0185227
0.0186133
0.0186614
0.0186427
0.0185634
0.0184451
0.0190186
0.0189165
0.0189321
0.01897
0.0189758
0.0189328
0.0188452
0.0187284
0.0193487
0.0192504
0.0192249
0.0192123
0.0191785
0.0191125
0.0190169
0.0189021
0.0195849
0.0194803
0.0194142
0.0193555
0.0192862
0.0192003
0.0190992
0.0189885
0.0197862
0.0196585
0.019538
0.0194255
0.0193188
0.0192149
0.0191116
0.0190079
-0.625997
-0.635075
-0.649171
-0.668604
-0.693366
-0.721392
-0.747058
-0.764397
-0.621
-0.62939
-0.642234
-0.65888
-0.678298
-0.699671
-0.719707
-0.732062
-0.617109
-0.623562
-0.633656
-0.64627
-0.659875
-0.671622
-0.677861
-0.67429
-0.615164
-0.617632
-0.622169
-0.626725
-0.629812
-0.629165
-0.622209
-0.606489
-0.614903
-0.610016
-0.605002
-0.598681
-0.590673
-0.579902
-0.564392
-0.541847
-0.612699
-0.597265
-0.581107
-0.564703
-0.548427
-0.531176
-0.510721
-0.484542
-0.603435
-0.576732
-0.550985
-0.527599
-0.506392
-0.485544
-0.462483
-0.434656
-0.583252
-0.547519
-0.515922
-0.489145
-0.465736
-0.443336
-0.419234
-0.39099
-0.550877
-0.510658
-0.477578
-0.450357
-0.426757
-0.404232
-0.380202
-0.352421
-0.508082
-0.468635
-0.43749
-0.411911
-0.389507
-0.367877
-0.344741
-0.318061
-0.458722
-0.423903
-0.396932
-0.37429
-0.354007
-0.33402
-0.312321
-0.287231
-0.40616
-0.37859
-0.356842
-0.337881
-0.320322
-0.302425
-0.282589
-0.259433
-0.353988
-0.333854
-0.317849
-0.303017
-0.288413
-0.272981
-0.25526
-0.234353
-0.301394
-0.290271
-0.280399
-0.269949
-0.258498
-0.245551
-0.230112
-0.211587
-0.250423
-0.249978
-0.244597
-0.239132
-0.230135
-0.219545
-0.206379
-0.190571
-0.462691
-0.499144
-0.53553
-0.56708
-0.590835
-0.606303
-0.615095
-0.62037