/*--------------------------------*- C++ -*----------------------------------*\
| =========                 |                                                 |
| \\      /  F ield         | OpenFOAM: The Open Source CFD Toolbox           |
|  \\    /   O peration     | Version:  2512                                  |
|   \\  /    A nd           | Website:  www.openfoam.com                      |
|    \\/     M anipulation  |                                                 |
\*---------------------------------------------------------------------------*/
FoamFile
{
    version     2.0;
    format      ascii;
    arch        "LSB;label=32;scalar=64";
    class       surfaceScalarField;
    location    "43";
    object      phi;
}
// * * * * * * * * * * * * * * * * * * * * * * * * * * * * * * * * * * * * * //

dimensions      [0 3 -1 0 0 0 0];

oriented        oriented;

internalField   nonuniform List<scalar> 
26232
(
-0.000106837
0.0014107
-0.00130386
6.76389e-05
0.0028674
-0.00304187
0.000846556
0.00308577
-0.00386468
0.00251571
0.00201407
-0.00368323
0.00538717
-0.0004587
-0.00241275
0.00981737
-0.00447189
4.16859e-05
0.0161748
-0.0101307
0.00377333
0.0247253
-0.017428
0.00887745
0.0355194
-0.026173
0.0153789
0.0483039
-0.0359811
0.0231966
0.0625175
-0.0463271
0.0321135
0.0773649
-0.0566348
0.0417874
0.0919429
-0.0663685
0.0517906
0.105385
-0.0751069
0.0616644
0.117004
-0.082591
0.070973
0.126391
-0.0887454
0.0793577
0.133494
-0.0936719
0.0865687
0.138569
-0.0976127
0.092538
0.142159
-0.100861
0.0972712
0.144792
-0.103764
0.101131
0.147082
-0.106358
0.104067
0.149073
-0.109143
0.107153
0.150466
-0.110861
0.109467
-0.113646
0.113403
0.150709
-0.000101032
0.00151173
0.000172706
0.00259366
0.00125604
0.00200243
0.00356876
-0.000298647
0.00755159
-0.00444153
0.0136251
-0.0105454
0.0220659
-0.0185716
0.0328524
-0.0282145
0.0455786
-0.0388992
0.0594906
-0.0498931
0.0736299
-0.0604664
0.0870237
-0.0700286
0.0988673
-0.0782122
0.108659
-0.084899
0.116266
-0.0901978
0.121904
-0.0943834
0.126036
-0.0978036
0.129212
-0.100789
0.131924
-0.103572
0.134437
-0.106277
0.13697
-0.108891
0.139307
-0.111481
0.142151
-0.113705
-0.116648
0.145153
-1.73311e-05
0.00152907
0.000542053
0.00203427
0.00221886
0.000325622
0.0055475
-0.00362729
0.0110326
-0.00992664
0.0190028
-0.0185156
0.0294137
-0.0289824
0.0417406
-0.0405414
0.05506
-0.0522186
0.0682778
-0.0631109
0.0803933
-0.0725819
0.0907076
-0.080343
0.098931
-0.0864355
0.105175
-0.0911427
0.109843
-0.0948659
0.11346
-0.0980007
0.116503
-0.100847
0.119294
-0.10358
0.121975
-0.106253
0.124597
-0.1089
0.127145
-0.111438
0.129685
-0.11402
0.132278
-0.116298
-0.118982
0.134612
0.000123213
0.00140585
0.00112757
0.00102992
0.00363958
-0.00218639
0.00826047
-0.00824818
0.0154242
-0.0170903
0.0251408
-0.0282322
0.0368307
-0.0406724
0.0494345
-0.0531452
0.0617407
-0.0645247
0.0727347
-0.0741049
0.0818253
-0.0816724
0.0889013
-0.087419
0.0942387
-0.0917729
0.098316
-0.09522
0.101619
-0.0981691
0.104508
-0.10089
0.107185
-0.103523
0.109724
-0.106119
0.112174
-0.108702
0.114547
-0.111273
0.116946
-0.113837
0.119378
-0.116453
0.122014
-0.118934
-0.121871
0.124903
0.00030171
0.00110414
0.00187162
-0.000539998
0.00539573
-0.00571049
0.0114436
-0.0142961
0.0201705
-0.0258172
0.031037
-0.0390988
0.0428924
-0.0525277
0.054405
-0.0646578
0.0645202
-0.07464
0.0727097
-0.0822945
0.0789742
-0.0879369
0.0836723
-0.0921172
0.0872915
-0.0953921
0.0902621
-0.0981906
0.0928735
-0.10078
0.0952851
-0.103301
0.0975775
-0.105815
0.0998092
-0.108351
0.102023
-0.110917
0.104267
-0.113517
0.106575
-0.116145
0.108932
-0.11881
0.111426
-0.121428
-0.124285
0.11384
0.000512682
0.00059146
0.00274162
-0.00276894
0.00737925
-0.0103481
0.0147971
-0.0217139
0.0246281
-0.0356482
0.035707
-0.0501777
0.046571
-0.0633917
0.0560655
-0.0741523
0.0636508
-0.0822253
0.0693669
-0.0880106
0.0736029
-0.0921728
0.0768398
-0.0953541
0.0794799
-0.0980322
0.0817905
-0.100501
0.0839263
-0.102916
0.085973
-0.105348
0.0879817
-0.107824
0.0899794
-0.110349
0.0919833
-0.112921
0.0940008
-0.115534
0.0960461
-0.11819
0.0981318
-0.120896
0.100322
-0.123618
-0.126535
0.102573
0.000758746
-0.000167287
0.00371515
-0.00572534
0.00946177
-0.0160947
0.0179472
-0.0301993
0.0281378
-0.0458388
0.0384514
-0.0604913
0.0475522
-0.0724925
0.0547906
-0.0813907
0.0601713
-0.087606
0.0640791
-0.0919184
0.0669946
-0.0950884
0.0693202
-0.0976797
0.0713264
-0.100038
0.0731706
-0.102345
0.0749348
-0.10468
0.0766583
-0.107071
0.0783577
-0.109523
0.0800445
-0.112036
0.0817318
-0.114608
0.0834395
-0.117242
0.0851917
-0.119942
0.0869987
-0.122703
0.0888955
-0.125515
-0.128447
0.0908067
0.00103869
-0.00120597
0.00474769
-0.00943435
0.011451
-0.022798
0.020472
-0.0392204
0.0302097
-0.0555764
0.0390734
-0.069355
0.0461816
-0.0796007
0.0514155
-0.0866245
0.0551208
-0.0913113
0.0577831
-0.0945807
0.0598243
-0.0971296
0.0615329
-0.0993883
0.0630746
-0.10158
0.0645314
-0.103802
0.0659397
-0.106089
0.0673166
-0.108448
0.0686757
-0.110882
0.0700313
-0.113391
0.0713984
-0.115975
0.0727907
-0.118634
0.0742161
-0.121368
0.0756831
-0.12417
0.0772124
-0.127044
-0.130004
0.0787697
0.00134304
-0.00254901
0.00575863
-0.0138499
0.0131055
-0.0301449
0.022028
-0.0481429
0.0306855
-0.064234
0.0378283
-0.0764979
0.0430941
-0.0848665
0.0467322
-0.0902626
0.0492237
-0.0938028
0.051022
-0.096379
0.0524467
-0.0985543
0.0536826
-0.100624
0.0548204
-0.102718
0.0559008
-0.104883
0.0569434
-0.107131
0.0579613
-0.109466
0.0589649
-0.111886
0.0599638
-0.11439
0.0609673
-0.116979
0.0619852
-0.119652
0.0630281
-0.12241
0.0641083
-0.12525
0.0652356
-0.128172
-0.13116
0.0663913
0.00164888
-0.00419789
0.00663922
-0.0188403
0.0142045
-0.0377102
0.0224685
-0.0564068
0.0297154
-0.0714809
0.0351749
-0.0819574
0.0388962
-0.0885878
0.0413194
-0.0926858
0.0429305
-0.0954139
0.0440952
-0.0975437
0.0450319
-0.099491
0.04585
-0.101442
0.0465988
-0.103467
0.0473004
-0.105584
0.0479667
-0.107798
0.0486062
-0.110106
0.0492272
-0.112507
0.0498392
-0.115002
0.0504526
-0.117592
0.0510776
-0.120277
0.0517227
-0.123056
0.0523958
-0.125923
0.053101
-0.128877
-0.131896
0.0538373
0.00192793
-0.00612582
0.00728119
-0.0241936
0.0146219
-0.0450509
0.021852
-0.0636369
0.0276109
-0.0772398
0.031576
-0.0859225
0.0340604
-0.0910721
0.0355631
-0.0941886
0.0365074
-0.0963582
0.0371623
-0.0981986
0.0376678
-0.0999965
0.038087
-0.101861
0.0384465
-0.103826
0.0387589
-0.105897
0.0390328
-0.108072
0.0392762
-0.110349
0.0394974
-0.112728
0.0397051
-0.11521
0.0399078
-0.117795
0.0401129
-0.120482
0.0403278
-0.12327
0.040558
-0.126153
0.0408034
-0.129122
-0.132161
0.0410684
0.00215548
-0.00828129
0.00761179
-0.0296499
0.0143584
-0.0517976
0.0203723
-0.0696508
0.0247199
-0.0815874
0.0274219
-0.0886245
0.0289262
-0.0925764
0.0297098
-0.0949722
0.0301105
-0.0967588
0.030315
-0.0984032
0.0304097
-0.100091
0.0304299
-0.101882
0.0303913
-0.103788
0.0303026
-0.105808
0.030171
-0.10794
0.0300033
-0.110181
0.029806
-0.112531
0.0295863
-0.11499
0.0293519
-0.11756
0.0291112
-0.120242
0.0288729
-0.123032
0.0286438
-0.125924
0.0284248
-0.128903
0.0282264
-0.131962
-8.39137e-05
0.00437132
-0.0042874
-0.000457155
0.00992632
-0.00955308
-0.0011424
0.0131885
-0.0125033
-0.00210713
0.0148475
-0.0138828
-0.00329977
0.0155577
-0.0143651
-0.00467367
0.0158239
-0.01445
-0.00619464
0.0159497
-0.0144287
-0.00784053
0.0160626
-0.0144167
-0.00959778
0.0161742
-0.014417
-0.0114571
0.0162377
-0.0143784
-0.0134091
0.0161826
-0.0142306
-0.0154403
0.0159281
-0.0138969
-0.01753
0.0153841
-0.0132945
-0.0196475
0.0144491
-0.0123316
-0.0217508
0.0130105
-0.0109072
-0.0237853
0.0109471
-0.00891264
-0.0256853
0.0081355
-0.00623543
-0.0273863
0.00445478
-0.00275379
-0.0287047
-0.000145969
0.00146432
-0.0296277
-0.00562462
0.00654767
-0.0300234
-0.0121549
0.0125506
-0.0297875
-0.0196409
0.019405
-0.0288663
-0.0279435
0.0270223
-0.0367813
-0.0273364
0.0352514
5.65267e-05
0.00431479
-3.55487e-05
0.0100184
-0.000386718
0.0135397
-0.000992828
0.0154536
-0.00180699
0.0163719
-0.00277116
0.0167881
-0.00383517
0.0170137
-0.00496327
0.0171907
-0.006132
0.017343
-0.0073247
0.0174304
-0.00852564
0.0173835
-0.00971564
0.0171181
-0.0108691
0.0165376
-0.0119523
0.0155323
-0.0129219
0.01398
-0.0137246
0.0117498
-0.0142966
0.00870745
-0.0145725
0.0047307
-0.0144545
-0.000263973
-0.0138708
-0.00620834
-0.0127236
-0.013302
-0.0109184
-0.0214461
-0.00842034
-0.0304415
-0.0401108
-0.0050909
0.000199645
0.00411514
0.000411369
0.00980667
0.000456033
0.013495
0.000289309
0.0156203
-5.01478e-05
0.0167114
-0.000494043
0.017232
-0.000975147
0.0174948
-0.00143962
0.0176551
-0.00184785
0.0177512
-0.00216908
0.0177517
-0.00237506
0.0175895
-0.0024354
0.0171785
-0.00231546
0.0164177
-0.00197604
0.0151929
-0.0013733
0.0133773
-0.000459675
0.0108362
0.000815718
0.00743206
0.0025299
0.00301653
0.00467773
-0.0024118
0.0074382
-0.00896881
0.0108214
-0.0166853
0.0148638
-0.0254885
0.0196792
-0.0352569
-0.045665
0.0252334
0.000329266
0.00378588
0.000845239
0.00929069
0.00130419
0.0130361
0.00162227
0.0153022
0.00182008
0.0165136
0.00196877
0.0170833
0.00215108
0.0173125
0.00244061
0.0173656
0.00289669
0.0172951
0.00356795
0.0170804
0.00449838
0.0166591
0.00573155
0.0159453
0.0073123
0.0148369
0.00928683
0.0132183
0.0117005
0.0109636
0.0145977
0.00793908
0.0180208
0.00400892
0.0219686
-0.000931259
0.0265465
-0.00698973
0.0317914
-0.0142137
0.0377618
-0.0226557
0.0444673
-0.032194
0.0518508
-0.0426404
-0.0539066
0.0600924
0.00042799
0.00335789
0.0012093
0.00850939
0.00206163
0.0121838
0.00286438
0.0144995
0.00361526
0.0157627
0.0043802
0.0163184
0.00525051
0.0164422
0.00631623
0.0162999
0.0076555
0.0159558
0.00933464
0.0154013
0.0114122
0.0145816
0.0139425
0.013415
0.0169773
0.0118021
0.0205647
0.00963095
0.0247482
0.00678013
0.0295633
0.00312392
0.0350537
-0.0014814
0.0412746
-0.00715222
0.0482893
-0.0140044
0.0560856
-0.02201
0.0647793
-0.0313493
0.0742398
-0.0416545
0.0843201
-0.0527207
-0.064727
0.0951405
0.000482856
0.00287503
0.00145602
0.00753623
0.00263244
0.0110073
0.00386732
0.0132646
0.00513375
0.0144962
0.00648364
0.0149685
0.00800705
0.0149188
0.00980243
0.0145045
0.0119612
0.0137971
0.0145634
0.012799
0.0176795
0.0114655
0.0213728
0.00972161
0.0257027
0.00747222
0.0307258
0.00460789
0.0364658
0.00104005
0.0430544
-0.00346467
0.0505321
-0.00895903
0.0589263
-0.0155465
0.0683664
-0.0234445
0.0787419
-0.0323855
0.0901756
-0.042783
0.102251
-0.0537299
0.114834
-0.0653033
-0.0773062
0.127413
0.000487444
0.00238759
0.00155345
0.00647022
0.0029418
0.00961898
0.00450318
0.0117032
0.00619104
0.0128084
0.0080382
0.0131213
0.0101239
0.0128331
0.0125452
0.0120832
0.0153995
0.0109428
0.0187773
0.00942125
0.0227619
0.00748088
0.0274328
0.00505079
0.0328631
0.00204183
0.0391573
-0.00168625
0.0464588
-0.00626148
0.0548056
-0.0118115
0.0643307
-0.0184841
0.075071
-0.0262868
0.0870816
-0.0354551
0.100103
-0.045407
0.114066
-0.0567456
0.128118
-0.0677826
0.142252
-0.0794371
-0.0900395
0.154985
0.000442023
0.00194557
0.00149003
0.00542222
0.00294956
0.00815945
0.00468976
0.00996303
0.00665637
0.0108418
0.00886519
0.0109125
0.0113811
0.0103172
0.0142956
0.00916863
0.0177117
0.00752664
0.0217372
0.00539578
0.0264876
0.00273049
0.0320802
-0.000541814
0.0386989
-0.00457691
0.0464743
-0.00946157
0.0555533
-0.0153405
0.0660606
-0.0223188
0.0780364
-0.0304599
0.0914168
-0.0396672
0.105925
-0.0499629
0.121113
-0.060595
0.136408
-0.072041
0.150785
-0.08216
0.164137
-0.0927888
-0.100432
0.174529
0.000352315
0.00159325
0.00127597
0.00449856
0.0026607
0.00677471
0.00441583
0.0082079
0.00649679
0.00876082
0.0089149
0.00849438
0.011731
0.00750108
0.0150447
0.00585493
0.0189866
0.00358475
0.0237033
0.000679081
0.0294085
-0.00297472
0.0363102
-0.00744351
0.0445914
-0.0128581
0.0544421
-0.0193123
0.0659524
-0.0268508
0.0790957
-0.0354621
0.0936282
-0.0449925
0.109185
-0.0552238
0.125025
-0.0658028
0.140558
-0.0761285
0.154688
-0.0861709
0.166817
-0.0942887
0.176459
-0.102431
-0.106492
0.18252
0.000229174
0.00136408
0.000945455
0.00378228
0.00213658
0.00558359
0.00377074
0.00657374
0.00583659
0.00669497
0.0083687
0.00596227
0.0114574
0.00441243
0.0152502
0.00206204
0.0199508
-0.00111584
0.0258224
-0.00519248
0.0331024
-0.0102547
0.0420354
-0.0163766
0.0527633
-0.0235859
0.0652886
-0.0318376
0.0794175
-0.0409797
0.0947447
-0.0507893
0.110641
-0.0608886
0.126373
-0.070956
0.140999
-0.080429
0.153933
-0.0890619
0.164165
-0.096403
0.17194
-0.102063
0.176566
-0.107057
-0.108732
0.178805
9.15273e-05
0.00127255
0.000564154
0.00330966
0.0015125
0.00463524
0.00298221
0.00510403
0.00502898
0.0046482
0.00775779
0.00323346
0.0113405
0.000829666
0.0160281
-0.00262547
0.0221115
-0.00719926
0.0298746
-0.0129556
0.0395227
-0.0199029
0.0511089
-0.0279627
0.0644738
-0.0369509
0.0792228
-0.0465865
0.0947485
-0.0565054
0.110274
-0.0663144
0.124962
-0.0755771
0.137998
-0.0839915
0.148731
-0.0911619
0.156874
-0.0972058
0.162245
-0.101774
0.165825
-0.105643
0.167331
-0.108563
-0.110047
0.168646
-3.13148e-05
0.000236468
0.00100703
0.00242783
0.00466328
0.00793843
0.0125414
0.0187934
0.0269731
0.0372141
0.0494247
0.0632494
0.0780891
0.0931669
0.107634
0.120678
0.131669
0.140216
0.146325
0.15025
0.152543
0.154053
0.154957
0.158313
-0.0244898
-0.0636565
0.0608099
-0.0212671
-0.0805653
0.0773427
-0.0179278
-0.0970688
0.0937295
-0.0146705
-0.113122
0.109865
-0.0113292
-0.12797
0.124629
-0.00728945
-0.140995
0.136955
-0.00137536
-0.151169
0.145255
0.00772552
-0.156254
0.147153
0.0204713
-0.153141
0.140396
0.0361779
-0.139151
0.123444
0.0535465
-0.113918
0.0965493
0.0710517
-0.0788917
0.0613865
0.0867989
-0.0366071
0.02086
0.098613
0.0113634
-0.0231775
0.106574
0.0664121
-0.0743732
0.112501
0.129261
-0.135188
0.117491
0.187434
-0.192424
0.120073
0.225764
-0.228347
0.119164
0.243754
-0.242845
0.117436
0.244632
-0.242903
0.114615
0.236021
-0.2332
0.107268
0.23833
-0.230983
0.0965431
0.259795
-0.249071
0.0891263
0.275805
-0.268388
0.0895188
0.251408
-0.251801
0.0946584
0.181198
-0.186337
0.100517
0.0824744
-0.0883331
0.106399
-0.0290457
0.023164
0.112156
-0.135979
0.130222
0.117812
-0.216882
0.211226
0.122338
-0.259033
0.254507
0.123062
-0.270623
0.269899
0.121507
-0.268088
0.269643
0.118432
-0.254172
0.257247
0.10917
-0.240065
0.249326
0.0951001
-0.23565
0.24972
0.0855993
-0.218655
0.228156
0.0867569
-0.160204
0.159047
0.0969517
-0.0700666
0.0598718
0.110845
0.0206354
-0.0345282
0.124001
0.0895082
-0.102665
0.133553
0.132957
-0.142509
0.139153
0.154873
-0.160472
0.142305
0.160671
-0.163824
0.142735
0.155873
-0.156302
0.138975
0.149791
-0.14603
0.133943
0.138379
-0.133348
0.133489
0.110115
-0.109661
0.139588
0.0624968
-0.068595
0.148808
0.0115363
-0.0207571
0.157328
-0.0287995
0.0202803
0.163364
-0.0530697
0.0470336
0.166513
-0.0627411
0.0595915
0.166949
-0.0646363
0.0642005
0.165344
-0.0605033
0.0621078
0.163313
-0.0554064
0.0574373
0.162437
-0.0427618
0.0436382
0.162962
-0.0271386
0.0266134
0.164818
-0.00996298
0.00810679
0.0119766
-0.0132922
-0.00258603
-0.0661613
-0.000669797
-0.0824815
0.000751013
-0.0984896
0.000801364
-0.113173
-0.000516002
-0.126653
-0.00250156
-0.139009
-0.00379706
-0.149874
-0.00238786
-0.157664
0.00371371
-0.159243
0.0152853
-0.150722
0.0305204
-0.129153
0.0475521
-0.0959235
0.0644162
-0.0534712
0.079109
-0.00332941
0.0906556
0.0548655
0.100807
0.119109
0.110196
0.178045
0.11641
0.219551
0.119072
0.241092
0.120472
0.243232
0.119378
0.237114
0.113579
0.244129
0.105643
0.267732
0.101673
0.279775
0.104064
0.249017
0.108853
0.17641
0.11256
0.0787669
0.11565
-0.0321353
0.118823
-0.139153
0.121746
-0.219805
0.124211
-0.261498
0.123905
-0.270317
0.121055
-0.265238
0.117765
-0.250882
0.109913
-0.232213
0.0964424
-0.222179
0.0860796
-0.208293
0.0863033
-0.160428
0.0960853
-0.0798486
0.110112
0.00660852
0.123334
0.0762865
0.132873
0.123418
0.138889
0.148858
0.142352
0.157208
0.141876
0.156348
0.136871
0.154796
0.132337
0.142913
0.134107
0.108346
0.142233
0.054371
0.152159
0.00160971
0.160327
-0.0369674
0.165622
-0.0583645
0.168268
-0.0653868
0.168634
-0.065003
0.167127
-0.0589959
0.164814
-0.0530936
0.163174
-0.0411216
0.162745
-0.0267096
0.163828
-0.011046
0.0108712
0.0262614
-0.0671894
0.0271195
-0.0833396
0.0269345
-0.0983046
0.0251671
-0.111405
0.0210511
-0.122537
0.0142046
-0.132163
0.0057038
-0.141373
-0.00153728
-0.150422
-0.00430729
-0.156473
-0.000789955
-0.15424
0.010096
-0.140039
0.0252068
-0.111034
0.041882
-0.0701465
0.0584239
-0.0198713
0.0742238
0.0390656
0.0893878
0.103945
0.10316
0.164272
0.113242
0.209469
0.119948
0.234386
0.124478
0.238703
0.125241
0.236351
0.12136
0.24801
0.116151
0.272941
0.115033
0.280893
0.118759
0.245291
0.122764
0.172404
0.124182
0.0773488
0.124404
-0.0323573
0.125107
-0.139856
0.125718
-0.220416
0.126078
-0.261858
0.124812
-0.269052
0.120876
-0.261302
0.117056
-0.247062
0.110832
-0.225989
0.0986407
-0.209988
0.0874033
-0.197055
0.0862041
-0.159229
0.0952919
-0.0889365
0.109189
-0.00728833
0.122306
0.0631694
0.132027
0.113697
0.138691
0.142193
0.142194
0.153705
0.140527
0.158015
0.134718
0.160604
0.131426
0.146206
0.13556
0.104212
0.145259
0.0446718
0.155411
-0.00854232
0.163013
-0.0445687
0.167484
-0.0628355
0.169528
-0.0674313
0.169749
-0.0652241
0.168452
-0.0576985
0.1662
-0.0508413
0.164186
-0.0391078
0.163052
-0.0255755
0.163378
-0.0113722
0.0100349
0.0597179
-0.0668148
0.0594706
-0.0830924
0.0581758
-0.0970098
0.0551642
-0.108394
0.0496616
-0.117034
0.0407182
-0.123219
0.0279629
-0.128618
0.0128467
-0.135306
-0.000315583
-0.143311
-0.00635528
-0.1482
-0.00412219
-0.142272
0.00640787
-0.121564
0.0217659
-0.0855045
0.0388586
-0.0369641
0.057214
0.0207103
0.0765681
0.0845912
0.0947227
0.146118
0.10938
0.194812
0.120721
0.223044
0.128519
0.230905
0.131152
0.233719
0.12908
0.250082
0.126385
0.275635
0.127752
0.279526
0.132527
0.240517
0.135635
0.169296
0.134848
0.0781356
0.132587
-0.0300959
0.131011
-0.13828
0.129657
-0.219063
0.127919
-0.260119
0.125635
-0.266768
0.121101
-0.256767
0.116457
-0.242419
0.111562
-0.221094
0.101392
-0.199817
0.0897224
-0.185386
0.0865906
-0.156097
0.0944414
-0.0967872
0.107798
-0.0206448
0.120892
0.0500755
0.131149
0.10344
0.138539
0.134803
0.141711
0.150534
0.138794
0.160931
0.132802
0.166597
0.131314
0.147694
0.137674
0.0978517
0.148404
0.0339419
0.158384
-0.0185223
0.165265
-0.05145
0.168929
-0.0664994
0.170373
-0.0688757
0.170387
-0.0652375
0.169305
-0.0566164
0.167321
-0.0488578
0.165282
-0.0370687
0.163762
-0.0240557
0.163478
-0.0110882
0.00946055
0.0937976
-0.0654719
0.0916473
-0.0809421
0.088324
-0.0936864
0.0836137
-0.103684
0.0772075
-0.110628
0.0682548
-0.114266
0.0553035
-0.115667
0.0376079
-0.11761
0.017193
-0.122896
-0.000341103
-0.130666
-0.00811193
-0.134501
-0.00562199
-0.124054
0.0057221
-0.0968486
0.022556
-0.053798
0.041894
0.00137232
0.0635579
0.0629272
0.0851463
0.124529
0.104424
0.175534
0.120421
0.207047
0.131487
0.219839
0.136376
0.228831
0.136499
0.249959
0.136169
0.275964
0.139301
0.276393
0.144387
0.235431
0.146635
0.167048
0.144275
0.080496
0.140042
-0.0258638
0.136453
-0.13469
0.133349
-0.215959
0.129717
-0.256487
0.126181
-0.263232
0.12139
-0.251977
0.115984
-0.237012
0.111825
-0.216934
0.104167
-0.192159
0.0929528
-0.174172
0.0876847
-0.150829
0.0934998
-0.102602
0.105986
-0.0331311
0.119246
0.0368152
0.130367
0.092319
0.138347
0.126823
0.14084
0.148041
0.136852
0.164919
0.131338
0.172111
0.131983
0.147048
0.140249
0.0895862
0.15149
0.0227007
0.160961
-0.0279937
0.167019
-0.0575081
0.169934
-0.0694146
0.170848
-0.0697896
0.17064
-0.0650293
0.169731
-0.0557073
0.168104
-0.0472309
0.166296
-0.0352603
0.164708
-0.022468
0.164053
-0.0104332
0.00907492
0.124831
-0.0628903
0.120733
-0.076844
0.115014
-0.0879675
0.107953
-0.0966226
0.0998577
-0.102532
0.0907847
-0.105194
0.0797549
-0.104637
0.0644833
-0.102339
0.0435632
-0.101976
0.0195965
-0.106699
-0.000534416
-0.11437
-0.00807597
-0.116513
-0.00415116
-0.100773
0.0100977
-0.0680468
0.029651
-0.018181
0.0525697
0.0400085
0.0765892
0.10051
0.0996574
0.152466
0.119424
0.18728
0.133206
0.206056
0.139994
0.222043
0.141895
0.248058
0.143589
0.27427
0.148295
0.271688
0.153674
0.230051
0.155322
0.1654
0.152347
0.0834708
0.146983
-0.0204993
0.14159
-0.129297
0.136655
-0.211024
0.131361
-0.251193
0.12647
-0.25834
0.121535
-0.247043
0.115685
-0.231162
0.111552
-0.212801
0.10637
-0.186977
0.0967277
-0.16453
0.0897641
-0.143865
0.0929762
-0.105814
0.10422
-0.0443744
0.117715
0.0233198
0.129747
0.0802866
0.137989
0.118581
0.139578
0.146452
0.134885
0.169612
0.130448
0.176548
0.133327
0.144169
0.143082
0.0798314
0.154374
0.0114093
0.163085
-0.036705
0.168255
-0.0626784
0.170492
-0.0716509
0.170977
-0.0702746
0.170582
-0.0646349
0.169803
-0.054928
0.168539
-0.0459667
0.16711
-0.0338316
0.165714
-0.0210722
0.16496
-0.00967922
0.00875774
0.150632
-0.0585372
0.144374
-0.0705855
0.136269
-0.0798626
0.126823
-0.0871767
0.116536
-0.0922456
0.106035
-0.0946929
0.0957954
-0.0943967
0.0845786
-0.091122
0.0690073
-0.0864045
0.0469118
-0.0846038
0.021328
-0.0887864
0.000441361
-0.095626
-0.00543629
-0.0948957
0.00155796
-0.0750411
0.0200363
-0.0366593
0.0438319
0.0162128
0.0700066
0.0743352
0.095841
0.126632
0.11806
0.165061
0.133772
0.190345
0.142439
0.213376
0.146538
0.243959
0.150264
0.270544
0.155826
0.266127
0.160815
0.225062
0.161754
0.164462
0.158362
0.0868625
0.152739
-0.0148763
0.146156
-0.122715
0.139397
-0.204265
0.132663
-0.244459
0.126464
-0.25214
0.121252
-0.241831
0.11545
-0.22536
0.110889
-0.20824
0.107553
-0.183641
0.100423
-0.157399
0.092811
-0.136253
0.093415
-0.106418
0.10311
-0.0540698
0.116647
0.00978354
0.129294
0.0676393
0.137375
0.1105
0.137999
0.145828
0.133061
0.174551
0.130161
0.179448
0.135186
0.139144
0.145988
0.0690295
0.15693
0.000467601
0.164716
-0.0444914
0.168979
-0.0669412
0.170611
-0.0732827
0.170774
-0.0704374
0.17026
-0.0641217
0.169591
-0.0542586
0.168657
-0.0450326
0.167667
-0.0328413
0.166634
-0.02004
0.166028
-0.00907303
0.00837147
0.168128
-0.0521362
0.159769
-0.0622259
0.149736
-0.0698295
0.138726
-0.0761665
0.127264
-0.0807845
0.115727
-0.0831559
0.104824
-0.0834934
0.0952223
-0.0815201
0.08541
-0.0765923
0.0711202
-0.0703139
0.0495033
-0.0671695
0.0244089
-0.0705316
0.00526502
-0.0757519
0.00100966
-0.0707857
0.0127595
-0.0484092
0.0351925
-0.00622018
0.062815
0.0467128
0.0907162
0.0987303
0.114771
0.141006
0.132155
0.17296
0.142409
0.203122
0.148129
0.238239
0.153448
0.265225
0.160005
0.25957
0.165326
0.219741
0.166386
0.163402
0.162997
0.0902521
0.157243
-0.00912251
0.149794
-0.115266
0.141498
-0.195969
0.133461
-0.236422
0.126195
-0.244874
0.120462
-0.236098
0.11504
-0.219938
0.110069
-0.20327
0.107571
-0.181143
0.103322
-0.15315
0.0963956
-0.129327
0.0948616
-0.104884
0.102815
-0.0620228
0.116095
-0.00349702
0.128868
0.054866
0.136383
0.102986
0.136144
0.146067
0.131473
0.179222
0.130431
0.18049
0.137384
0.132191
0.148791
0.057622
0.159066
-0.00980775
0.165829
-0.051254
0.169208
-0.0703204
0.170317
-0.0743913
0.170258
-0.0703782
0.169704
-0.0635684
0.169152
-0.0537061
0.16851
-0.0443908
0.167957
-0.0322883
0.167374
-0.0194568
0.167098
-0.00879755
0.00779024
0.174643
-0.0442592
0.16494
-0.0525228
0.153934
-0.0588243
0.142355
-0.0645868
0.130813
-0.0692427
0.119725
-0.0720684
0.109226
-0.0729941
0.0998186
-0.0721127
0.0922183
-0.0689919
0.0848177
-0.0629134
0.0727613
-0.0551131
0.052897
-0.0506673
0.0296149
-0.0524697
0.0134444
-0.0546152
0.0123825
-0.0473474
0.0276279
-0.0214656
0.0529888
0.0213519
0.0813464
0.0703727
0.107055
0.115298
0.126842
0.153173
0.140253
0.189712
0.149398
0.229093
0.157065
0.257558
0.164035
0.2526
0.168727
0.215049
0.169382
0.162746
0.166012
0.0936226
0.160147
-0.00325824
0.152229
-0.107348
0.142835
-0.186576
0.133626
-0.227212
0.125575
-0.236823
0.119206
-0.229729
0.114153
-0.214885
0.109207
-0.198324
0.106644
-0.17858
0.10484
-0.151346
0.0998518
-0.124339
0.096973
-0.102006
0.102932
-0.0679813
0.115625
-0.0161904
0.128183
0.042308
0.135033
0.0961352
0.134217
0.146883
0.130237
0.183203
0.13118
0.179547
0.139747
0.123624
0.151328
0.0460414
0.160735
-0.0192145
0.166409
-0.0569285
0.168965
-0.0728763
0.169641
-0.0750674
0.169451
-0.0701881
0.168934
-0.0630513
0.168525
-0.0532975
0.168151
-0.0440164
0.168006
-0.0321436
0.167892
-0.0193425
0.168054
-0.00895941
0.00691875
0.170978
-0.036432
0.16152
-0.043065
0.151108
-0.0484126
0.140317
-0.0537956
0.129555
-0.0584805
0.119346
-0.0618595
0.110019
-0.0636672
0.10157
-0.0636635
0.0943641
-0.0617862
0.0890609
-0.0576101
0.0840515
-0.0501038
0.0743362
-0.040952
0.0568876
-0.0350211
0.0366796
-0.0344072
0.0237256
-0.0343934
0.0261029
-0.0238428
0.0432912
0.00416365
0.0686079
0.0450559
0.094753
0.0891527
0.116967
0.130959
0.133562
0.173116
0.145718
0.216937
0.155692
0.247584
0.164091
0.244201
0.169771
0.20937
0.171306
0.161211
0.168425
0.0965043
0.162948
0.00221874
0.15411
-0.0985102
0.143469
-0.175934
0.13301
-0.216754
0.124281
-0.228094
0.117373
-0.222821
0.11244
-0.209952
0.108029
-0.193913
0.105098
-0.175648
0.10468
-0.150929
0.102374
-0.122032
0.09931
-0.098942
0.103077
-0.0717481
0.114544
-0.027658
0.126679
0.0301736
0.132955
0.089859
0.13199
0.147847
0.129225
0.185968
0.132257
0.176514
0.142113
0.113768
0.153505
0.0346491
0.161867
-0.0275762
0.166449
-0.0615107
0.16827
-0.0746971
0.168613
-0.0754106
0.168377
-0.0699517
0.167964
-0.0626389
0.167736
-0.0530693
0.167621
-0.0439013
0.167851
-0.0323735
0.168188
-0.0196798
0.168828
-0.00959908
0.00569791
0.162082
-0.0298686
0.153957
-0.0349393
0.145061
-0.0395167
0.135815
-0.0445498
0.126475
-0.0491403
0.117374
-0.0527585
0.108881
-0.0551746
0.101289
-0.0560715
0.0947181
-0.0552151
0.0896656
-0.0525576
0.0870316
-0.0474697
0.0852794
-0.0391998
0.0792152
-0.028957
0.0657336
-0.0209256
0.0488653
-0.0175251
0.0387341
-0.0137116
0.0426713
0.00022646
0.0589239
0.0288034
0.08175
0.0663266
0.105569
0.10714
0.126919
0.151766
0.144363
0.199494
0.157458
0.23449
0.166401
0.235257
0.171499
0.204272
0.172177
0.160532
0.169487
0.0991939
0.163105
0.00860144
0.15423
-0.0896355
0.142834
-0.164538
0.131471
-0.20539
0.12221
-0.218834
0.115043
-0.215654
0.109992
-0.204901
0.106279
-0.1902
0.103264
-0.172632
0.103076
-0.150741
0.10325
-0.122206
0.101286
-0.0969782
0.103053
-0.073515
0.112544
-0.0371493
0.124053
0.0186645
0.130289
0.0836237
0.129919
0.148217
0.128693
0.187194
0.133613
0.171594
0.144396
0.102985
0.155247
0.0237982
0.16243
-0.0347594
0.165954
-0.0650344
0.16715
-0.0758935
0.167266
-0.0755261
0.167061
-0.069747
0.166812
-0.0623896
0.166803
-0.05306
0.166953
-0.0440513
0.16753
-0.0329511
0.168288
-0.0204375
0.169401
-0.0107119
0.00409983
0.15304
-0.024595
0.146351
-0.0282504
0.139071
-0.0322366
0.13122
-0.0366988
0.123167
-0.0410879
0.115302
-0.0448927
0.107836
-0.0477087
0.101044
-0.0492799
0.0951852
-0.0493563
0.0903028
-0.0476752
0.0869289
-0.0440959
0.0857225
-0.0379933
0.0851931
-0.0284277
0.0809683
-0.0167008
0.0707536
-0.00731039
0.0590408
-0.00199876
0.053804
0.00546321
0.0592775
0.0233299
0.0735733
0.0520308
0.0932169
0.0874966
0.115094
0.129889
0.135816
0.178772
0.152336
0.21797
0.164086
0.223507
0.170683
0.197675
0.172366
0.158849
0.170906
0.100654
0.166239
0.0132678
0.15588
-0.0792761
0.143035
-0.151694
0.130736
-0.193091
0.120904
-0.209003
0.113541
-0.208291
0.10814
-0.1995
0.104704
-0.186765
0.101911
-0.169839
0.101167
-0.149998
0.102648
-0.123687
0.102508
-0.096838
0.10306
-0.0740671
0.109798
-0.0438871
0.120091
0.00837168
0.12659
0.0771248
0.127169
0.147638
0.127787
0.186577
0.134923
0.164458
0.146575
0.0913324
0.156634
0.0137388
0.162473
-0.0405979
0.164985
-0.067546
0.16567
-0.0765787
0.165652
-0.0755085
0.165542
-0.0696368
0.1655
-0.0623477
0.165742
-0.0533021
0.16617
-0.0444792
0.167078
-0.033859
0.168225
-0.0215842
0.169783
-0.0122702
0.00211871
0.193985
-0.0198932
-0.198686
0.190052
-0.0243182
0.1859
-0.0280842
0.181066
-0.0318649
0.175465
-0.0354872
0.169232
-0.0386596
0.162515
-0.0409909
0.155413
-0.042178
0.148018
-0.0419613
0.140376
-0.0400339
0.132515
-0.0362351
0.124804
-0.030282
0.117935
-0.0215581
0.110494
-0.00926033
0.0989576
0.00422613
0.0830002
0.0139586
0.0669176
0.0215457
0.0554768
0.0347706
0.0507206
0.056787
0.052273
0.0859442
0.0580417
0.12412
0.0672435
0.16957
0.0825965
0.202617
0.103991
0.202113
0.126011
0.175656
0.147892
0.136969
0.170906
0.0776399
0.189417
-0.00524355
0.199228
-0.0890875
0.198756
-0.151222
0.190752
-0.185086
0.179191
-0.197442
0.167214
-0.196313
0.155946
-0.188232
0.146426
-0.177245
0.137842
-0.161255
0.13009
-0.142246
0.125186
-0.118782
0.120944
-0.0925965
0.115899
-0.0690224
0.113455
-0.0414429
0.113397
0.00842956
0.111192
0.0793297
0.108015
0.150815
0.112299
0.182293
0.127355
0.149402
0.1452
0.0734875
0.157681
0.00125774
0.163506
-0.0464227
0.164652
-0.0686926
0.163517
-0.0754435
0.161609
-0.0736008
0.159702
-0.0677294
0.157969
-0.0606149
0.156606
-0.0519394
0.155505
-0.0433779
0.154939
-0.0332927
0.154725
-0.0213703
0.154999
-0.0125446
0.00142958
0.201831
-0.0161089
-0.205616
0.197779
-0.0202663
0.193582
-0.023887
0.188879
-0.0271615
0.183545
-0.0301532
0.177613
-0.0327282
0.171197
-0.0345742
0.164441
-0.0354223
0.157471
-0.0349913
0.15043
-0.0329931
0.14346
-0.0292649
0.13663
-0.0234524
0.130459
-0.0153871
0.125197
-0.00399786
0.118377
0.0110466
0.107074
0.0252608
0.0921709
0.0364492
0.0781784
0.0487632
0.0695703
0.0653951
0.0682071
0.0873074
0.0733652
0.118962
0.0847067
0.158229
0.103383
0.18394
0.126584
0.178911
0.149646
0.152594
0.172532
0.114083
0.195261
0.0549107
0.212734
-0.0227171
0.219478
-0.0958314
0.214996
-0.14674
0.203539
-0.173629
0.189933
-0.183836
0.177192
-0.183572
0.165757
-0.176797
0.156017
-0.167504
0.147744
-0.152983
0.139961
-0.134464
0.134639
-0.11346
0.131376
-0.0893329
0.126807
-0.0644539
0.121947
-0.0365834
0.118779
0.0115982
0.115401
0.0827075
0.114391
0.151826
0.123482
0.173202
0.142113
0.13077
0.160332
0.055269
0.171541
-0.00995166
0.175724
-0.050606
0.175651
-0.0686191
0.17376
-0.0735525
0.171428
-0.0712684
0.169286
-0.0655879
0.167414
-0.0587429
0.165959
-0.0504842
0.164785
-0.0422046
0.164176
-0.0326834
0.163958
-0.0211524
0.164273
-0.012859
0.000697679
0.209981
-0.0131245
-0.212966
0.206362
-0.0166473
0.202358
-0.019883
0.197923
-0.0227263
0.192956
-0.0251857
0.187452
-0.0272245
0.18149