/*--------------------------------*- C++ -*----------------------------------*\
| =========                 |                                                 |
| \\      /  F ield         | OpenFOAM: The Open Source CFD Toolbox           |
|  \\    /   O peration     | Version:  2312                                  |
|   \\  /    A nd           | Website:  www.openfoam.com                      |
|    \\/     M anipulation  |                                                 |
\*---------------------------------------------------------------------------*/
FoamFile
{
    version     2.0;
    format      ascii;
    arch        "LSB;label=32;scalar=64";
    class       surfaceScalarField;
    location    "93.9";
    object      phi;
}
// * * * * * * * * * * * * * * * * * * * * * * * * * * * * * * * * * * * * * //

dimensions      [0 3 -1 0 0 0 0];

oriented        oriented;

internalField   nonuniform List<scalar> 
10785
(
-0.000668124
0.00477827
-0.00411015
0.00151318
0.00524394
-0.00742525
0.00973063
-0.00322418
-0.00499327
0.027182
-0.0223037
0.00485233
0.0543308
-0.0500411
0.0228923
0.0875629
-0.0811115
0.0478794
0.121157
-0.110239
0.0766445
0.149688
-0.134
0.105469
0.169942
-0.151231
0.130977
0.181719
-0.162737
0.150959
0.187512
-0.170656
0.164863
0.191115
-0.177027
0.173423
0.194654
-0.183455
0.179916
0.198252
-0.18802
0.184422
-0.193661
0.19172
0.200193
-1.20358e-05
0.0047903
0.00438959
0.000842319
0.0180152
-0.0168498
0.0426071
-0.0468956
0.0737414
-0.0811753
0.104438
-0.111808
0.129216
-0.135016
0.14592
-0.150704
0.155677
-0.160988
0.161556
-0.168615
0.166257
-0.175357
0.171234
-0.182004
0.175912
-0.188133
0.181676
-0.193784
-0.200325
0.18834
0.00105188
0.00373842
0.0092515
-0.0073573
0.0292854
-0.0368837
0.0574757
-0.0750859
0.0854747
-0.109174
0.107424
-0.133757
0.121889
-0.149482
0.130736
-0.159551
0.136826
-0.167078
0.141964
-0.173754
0.146755
-0.180147
0.150996
-0.186245
0.155079
-0.192215
0.159514
-0.198219
-0.204078
0.163267
0.00238755
0.00135087
0.0154166
-0.0203864
0.0396827
-0.0611498
0.0656753
-0.101078
0.0862022
-0.129701
0.0997283
-0.147283
0.108165
-0.157919
0.11395
-0.165335
0.118459
-0.171587
0.122237
-0.177532
0.12556
-0.18347
0.128949
-0.189635
0.132764
-0.196031
0.137174
-0.202629
-0.209708
0.142804
0.00414416
-0.00279329
0.0215586
-0.0378008
0.0455725
-0.0851637
0.0658384
-0.121344
0.079322
-0.143185
0.0874631
-0.155424
0.092539
-0.162995
0.0960787
-0.168875
0.0989452
-0.174453
0.10163
-0.180217
0.104447
-0.186286
0.107394
-0.192582
0.110353
-0.19899
0.113445
-0.20572
-0.212377
0.116114
0.00635967
-0.00915296
0.0259044
-0.0573455
0.0461213
-0.105381
0.0603452
-0.135568
0.0686369
-0.151477
0.0731953
-0.159983
0.0759364
-0.165736
0.0779917
-0.17093
0.0798396
-0.176301
0.0815998
-0.181977
0.0832401
-0.187926
0.0848052
-0.194147
0.0865413
-0.200726
0.0884486
-0.207628
-0.214911
0.0909827
0.00850559
-0.0176585
0.0271065
-0.0759464
0.0425534
-0.120828
0.0516982
-0.144713
0.0561972
-0.155976
0.0583158
-0.162101
0.0594662
-0.166886
0.0602264
-0.17169
0.0607641
-0.176839
0.0611604
-0.182373
0.0615362
-0.188302
0.0620197
-0.19463
0.0625852
-0.201292
0.0632822
-0.208325
-0.215551
0.0639221
0.0098645
-0.0275231
0.0255725
-0.0916544
0.0363974
-0.131652
0.0415488
-0.149864
0.0433177
-0.157745
0.043577
-0.162361
0.0432384
-0.166548
0.0426193
-0.171071
0.0418412
-0.176061
0.0409707
-0.181503
0.040029
-0.18736
0.0390061
-0.193607
0.0380164
-0.200302
0.037132
-0.20744
0.0367276
-0.215146
-0.000107666
0.0188496
-0.0187419
-0.00231028
0.0354811
-0.0332784
-0.00608034
0.0412055
-0.0374354
-0.0104916
0.0425096
-0.0380984
-0.0148239
0.0420868
-0.0377545
-0.0186231
0.0400043
-0.036205
-0.0215825
0.0355627
-0.0326033
-0.0234673
0.0280647
-0.02618
-0.0241568
0.0170125
-0.0163229
-0.0239293
0.00210247
-0.00233001
-0.0217678
-0.0164235
0.0142619
-0.0173335
-0.0391293
0.0346951
-0.0107372
-0.0644502
0.0578539
-0.000767779
-0.0923868
0.0824174
-0.118081
0.0107105
0.106603
0.00183361
0.017016
0.00276879
0.0345459
0.00249631
0.041478
0.00202232
0.0429836
0.00226825
0.0418409
0.00372883
0.0385437
0.00663554
0.032656
0.0109948
0.0237055
0.0166344
0.0113729
0.0236224
-0.0048855
0.032295
-0.0250961
0.0437389
-0.0505733
0.0572701
-0.0779814
0.073746
-0.108863
-0.134965
0.0906299
0.00333888
0.0136771
0.00733946
0.0305453
0.0107776
0.0380398
0.0143378
0.0394235
0.0189667
0.037212
0.0252017
0.0323087
0.0331338
0.0247239
0.0426066
0.0142327
0.0531673
0.000812167
0.065806
-0.0175242
0.0801799
-0.03947
0.0976581
-0.0680515
0.116848
-0.0971711
0.137929
-0.129944
-0.15449
0.157454
0.00385914
0.00981798
0.0099294
0.024475
0.0163123
0.0316569
0.0231379
0.0325979
0.0310944
0.0292555
0.0406441
0.022759
0.0518766
0.0134914
0.0646685
0.00144073
0.0801567
-0.014676
0.0983008
-0.0356683
0.119726
-0.0608952
0.144434
-0.0927594
0.169541
-0.122279
0.19382
-0.154223
-0.17214
0.211471
0.00332349
0.0064945
0.00981297
0.0179856
0.0175975
0.0238723
0.0262751
0.0239203
0.036128
0.0194025
0.0475583
0.0113287
0.0609027
0.000147021
0.0777494
-0.015406
0.0986023
-0.0355289
0.123981
-0.0610474
0.153574
-0.0904876
0.183582
-0.122768
0.21136
-0.150057
0.232316
-0.175178
-0.185066
0.245242
0.0021007
0.0043938
0.00742583
0.0126604
0.0147972
0.016501
0.0236729
0.0150446
0.0342809
0.00879447
0.0476134
-0.00200378
0.0654442
-0.0176838
0.0886521
-0.0386138
0.117804
-0.064681
0.15067
-0.0939134
0.184234
-0.124052
0.212176
-0.15071
0.233051
-0.170932
0.24263
-0.184757
-0.187785
0.245349
0.000687637
0.00370616
0.00402864
0.00931942
0.00997472
0.0105549
0.0187106
0.00630875
0.0315155
-0.0040104
0.0502401
-0.0207284
0.0760097
-0.0434535
0.108017
-0.0706206
0.143105
-0.09977
0.176648
-0.127455
0.203744
-0.151148
0.221081
-0.168046
0.229376
-0.179227
0.229649
-0.18503
-0.187177
0.229041
-0.000403984
0.00149019
0.00705183
0.0182129
0.0370948
0.0642458
0.0974368
0.132285
0.163492
0.186996
0.200711
0.206088
0.206777
0.206169
0.210712
0.0113934
-0.287133
0.28645
-0.00179599
-0.335205
0.348394
0.0290875
-0.340621
0.309738
0.107048
-0.192067
0.114106
0.173712
0.0604747
-0.127139
0.216524
0.244668
-0.28748
0.233293
0.314874
-0.331643
0.213718
0.357735
-0.338161
0.178813
0.418109
-0.383203
0.181756
0.330207
-0.33315
0.223982
0.0369936
-0.0792191
0.261293
-0.161533
0.124221
0.265419
-0.239264
0.235138
0.261676
-0.366076
0.369819
0.266888
-0.429728
0.424516
0.271483
-0.367462
0.362866
0.278212
-0.162641
0.155912
0.286626
0.175485
-0.183898
0.299639
0.417078
-0.430092
0.304587
0.541017
-0.545965
0.302475
0.403847
-0.401735
0.301659
-0.0352134
0.0360294
0.305661
-0.44953
0.445528
0.309864
-0.660035
0.655832
0.320816
-0.381872
0.37092
0.314275
0.56906
-0.562519
0.30316
0.886406
-0.875291
0.273883
0.0462956
-0.0170185
0.272027
-0.665573
0.667428
0.281064
-0.138413
0.129377
0.266137
0.356441
-0.341514
0.250688
0.110441
-0.0949926
0.257722
-0.161728
0.154694
0.268073
-0.0512583
0.0409069
0.248121
0.241502
-0.221551
0.224609
-0.0266961
0.0502084
0.222631
-0.111332
0.11331
0.0679729
-0.0674377
0.0804835
-0.276987
0.0373608
-0.292082
0.00887675
-0.312137
0.0600655
-0.243255
0.138678
-0.0181379
0.202372
0.180974
0.231343
0.285903
0.217465
0.371613
0.192696
0.442878
0.198839
0.324063
0.229451
0.00638242
0.265019
-0.197101
0.268303
-0.242548
0.257157
-0.354931
0.262635
-0.435205
0.267722
-0.372549
0.274261
-0.16918
0.286072
0.163675
0.299982
0.403168
0.305819
0.535179
0.303632
0.406034
0.298246
-0.0298269
0.29806
-0.449344
0.298086
-0.660062
0.312709
-0.396495
0.318834
0.562935
0.312878
0.892363
0.275765
0.0834083
0.268576
-0.658385
0.280649
-0.150486
0.26751
0.36958
0.249847
0.128104
0.25641
-0.16829
0.26938
-0.0642289
0.250647
0.260235
0.227194
-0.00324262
0.225439
-0.109577
0.0684608
0.148173
-0.267705
0.114827
-0.258736
0.0492645
-0.246575
0.0442647
-0.238256
0.123376
-0.0972488
0.20135
0.103
0.237594
0.24966
0.231869
0.377338
0.218467
0.45628
0.223623
0.318907
0.237878
-0.00787269
0.264813
-0.224036
0.26585
-0.243586
0.245829
-0.334909
0.250203
-0.439579
0.259514
-0.38186
0.267894
-0.17756
0.283157
0.148412
0.298087
0.388238
0.304948
0.528318
0.302179
0.408803
0.291817
-0.019465
0.287064
-0.444591
0.282532
-0.65553
0.299876
-0.413839
0.320608
0.542203
0.319842
0.893129
0.275931
0.127319
0.262769
-0.645222
0.27832
-0.166038
0.267469
0.380432
0.24772
0.147853
0.253527
-0.174097
0.269309
-0.0800107
0.252484
0.27706
0.229282
0.0199587
0.227888
-0.108182
0.0685893
0.184663
-0.240898
0.168038
-0.242112
0.119021
-0.197558
0.0709741
-0.190208
0.119282
-0.145557
0.207408
0.0148738
0.247307
0.209761
0.246516
0.378129
0.244362
0.458435
0.24812
0.315149
0.247277
-0.00703009
0.261227
-0.237985
0.263016
-0.245374
0.236878
-0.308772
0.234918
-0.437619
0.248138
-0.39508
0.260249
-0.189671
0.277728
0.130933
0.291486
0.374481
0.299286
0.520518
0.296881
0.411208
0.282695
-0.00527849
0.273202
-0.435098
0.264694
-0.647022
0.283306
-0.432451
0.317439
0.508071
0.321955
0.888612
0.274423
0.174852
0.25509
-0.625889
0.274149
-0.185097
0.265904
0.388676
0.244448
0.16931
0.249289
-0.178938
0.267914
-0.0986359
0.253575
0.291399
0.230855
0.0426791
0.229987
-0.107314
0.0680657
0.204097
-0.199753
0.176636
-0.214651
0.160226
-0.181148
0.115115
-0.145097
0.11639
-0.146832
0.193597
-0.0623333
0.25109
0.152268
0.265678
0.363541
0.269601
0.454512
0.270781
0.313969
0.255806
0.00794494
0.254543
-0.236723
0.253992
-0.244823
0.225528
-0.280308
0.215283
-0.427375
0.230776
-0.410573
0.248275
-0.207171
0.26959
0.109618
0.284389
0.359682
0.293273
0.511635
0.290122
0.414358
0.27182
0.0130237
0.25712
-0.420397
0.244599
-0.634502
0.26328
-0.451131
0.311403
0.459948
0.321882
0.878132
0.270975
0.22576
0.246089
-0.601003
0.268412
-0.20742
0.263135
0.393952
0.240345
0.1921
0.24401
-0.182603
0.265333
-0.119959
0.253907
0.302825
0.231901
0.064685
0.231744
-0.107158
0.0666127
0.208036
-0.16244
0.16923
-0.175845
0.15573
-0.167648
0.142497
-0.131864
0.125202
-0.129537
0.163312
-0.100443
0.222922
0.0926577
0.25018
0.336283
0.267627
0.437065
0.277037
0.304559
0.262186
0.0227958
0.247786
-0.222323
0.243859
-0.240896
0.215672
-0.25212
0.196093
-0.407796
0.209595
-0.424075
0.232675
-0.23025
0.257572
0.0847209
0.272412
0.344842
0.282356
0.501691
0.280198
0.416516
0.25932
0.0339019
0.239795
-0.400873
0.223573
-0.61828
0.241293
-0.46885
0.299922
0.401319
0.315879
0.862175
0.264129
0.27751
0.236054
-0.572928
0.261041
-0.232407
0.259008
0.395985
0.235541
0.215567
0.237979
-0.185041
0.261734
-0.143714
0.253501
0.311058
0.23243
0.0857557
0.233167
-0.107894
0.0639685
0.195994
-0.129393
0.163473
-0.143325
0.141951
-0.146126
0.138193
-0.128105
0.13321
-0.124554
0.149468
-0.116701
0.202285
0.0398413
0.246142
0.292425
0.271071
0.412135
0.279306
0.296324
0.25803
0.0440719
0.234883
-0.199176
0.228003
-0.234015
0.201792
-0.22591
0.176414
-0.382417
0.184459
-0.43212
0.212289
-0.258081
0.243702
0.0533077
0.261217
0.327327
0.272566
0.490341
0.270653
0.418429
0.246191
0.0583644
0.222213
-0.376895
0.201921
-0.597989
0.218518
-0.485447
0.288042
0.331796
0.309757
0.84046
0.256628
0.330639
0.225733
-0.542033
0.252631
-0.259305
0.254089
0.394528
0.230382
0.239274
0.231535
-0.186195
0.257312
-0.169491
0.252421
0.315949
0.232471
0.105706
0.23425
-0.109674
0.0598916
0.185142
-0.103823
0.160016
-0.118199
0.139891
-0.126001
0.127702
-0.115917
0.119522
-0.116374
0.126399
-0.123578
0.164524
0.00171546
0.21215
0.2448
0.249893
0.374393
0.27281
0.273407
0.256833
0.0600492
0.226302
-0.168646
0.214508
-0.222221
0.188111
-0.199512
0.157255
-0.351562
0.158872
-0.433736
0.187746
-0.286955
0.222719
0.0183347
0.243991
0.306055
0.257569
0.476764
0.258248
0.41775
0.233984
0.0826281
0.204416
-0.347327
0.181541
-0.575114
0.195645
-0.499552
0.268862
0.258579
0.296752
0.81257
0.246908
0.380483
0.21467
-0.509795
0.242902
-0.287537
0.24792
0.38951
0.224937
0.262257
0.224908
-0.186165
0.252278
-0.196861
0.250793
0.317435
0.232068
0.12443
0.235008
-0.112614
0.0541819
0.439635
-0.0753153
-0.468143
0.411871
-0.0904353
0.383072
-0.0972019
0.349413
-0.0822582
0.310102
-0.0770623
0.26073
-0.0742059
0.219978
0.0424678
0.226094
0.238683
0.323391
0.277096
0.44358
0.153218
0.494109
0.00952026
0.484259
-0.158796
0.460279
-0.198242
0.435442
-0.174674
0.40792
-0.32404
0.377079
-0.402896
0.344632
-0.254507
0.318974
0.0439927
0.296858
0.32817
0.318205
0.455416
0.37847
0.357485
0.41369
0.0474089
0.412203
-0.34584
0.3711
-0.534011
0.321924
-0.450376
0.354697
0.225805
0.400505
0.766763
0.39647
0.384518
0.370868
-0.484194
0.376245
-0.292914
0.365728
0.400027
0.345843
0.282142
0.351769
-0.192091
0.380909
-0.226001
0.374348
0.323996
0.348537
0.150241
0.35057
-0.114648
0.0486625
0.465629
-0.0518437
-0.4891
0.438822
-0.0636284
0.411692
-0.0700718
0.387573
-0.0581396
0.362276
-0.0517656
0.328758
-0.040688
0.313884
0.0573422
0.367187
0.185381
0.4639
0.180383
0.533224
0.083894
0.548399
-0.00565516
0.517968
-0.128365
0.482769
-0.163042
0.455916
-0.147822
0.429553
-0.297677
0.392019
-0.365362
0.349774
-0.212262
0.314957
0.0788097
0.291702
0.351426
0.335709
0.411409
0.41889
0.274304
0.457043
0.00925596
0.43994
-0.328737
0.380848
-0.474919
0.32747
-0.396998
0.364395
0.188881
0.422384
0.708774
0.429838
0.377064
0.40451
-0.458867
0.406048
-0.294451
0.394636
0.411438
0.378004
0.298774
0.386032
-0.200119
0.415986
-0.255955
0.410789
0.329193
0.383815
0.177215
0.386455
-0.117287
0.0412803
0.502874
-0.0357011
-0.519016
0.481555
-0.0423096
0.459879
-0.0483954
0.441023
-0.0392842
0.418322
-0.0290648
0.394959
-0.0173243
0.406027
0.0462741
0.471865
0.119542
0.53965
0.112597
0.577425
0.0461193
0.578876
-0.00710612
0.54834
-0.097829
0.520861
-0.135564
0.505175
-0.132135
0.466252
-0.258754
0.399344
-0.298454
0.339577
-0.152495
0.299043
0.119344
0.291351
0.359117
0.365095
0.337665
0.464053
0.175346
0.504563
-0.0312543
0.476613
-0.300787
0.390798
-0.389104
0.320086
-0.326286
0.364344
0.144623
0.4507
0.622418
0.473408
0.354357
0.4422
-0.427659
0.43812
-0.290371
0.42621
0.423348
0.415412
0.309571
0.426365
-0.211072
0.455295
-0.284885
0.450717
0.333771
0.422782
0.205151
0.425617
-0.120122
0.0318115
0.541529
-0.0231145
-0.554116
0.525381
-0.0261609
0.507921
-0.0309354
0.493016
-0.0243794
0.480049
-0.0160974
0.4686
-0.00587538
0.482522
0.0323517
0.534791
0.0672736
0.579609
0.0677799
0.598906
0.0268224
0.601063
-0.009264
0.579363
-0.0761285
0.5459
-0.102101
0.520862
-0.107097
0.478662
-0.216554
0.396904
-0.216696
0.322214
-0.0778058
0.297356
0.144202
0.331889
0.324585
0.426703
0.242852
0.517891
0.0841586
0.550456
-0.0638198
0.511232
-0.261563
0.39926
-0.277132
0.305053
-0.232079
0.360488
0.0891885
0.484332
0.498574
0.524814
0.313874
0.484273
-0.387118
0.470683
-0.276781
0.461531
0.4325
0.460251
0.310852
0.474901
-0.225722
0.501259
-0.311243
0.496743
0.338287
0.467043
0.234851
0.468716
-0.121795
0.0202225
0.585662
-0.0140722
-0.594704
0.574137
-0.0146355
0.561965
-0.0187643
0.552236
-0.0146503
0.543723
-0.007584
0.539578
-0.00173004
0.551113
0.0208165
0.582864
0.0355223
0.612754
0.0378899
0.627877
0.0116998
0.627392
-0.00877948
0.613918
-0.0626547
0.593182
-0.0813647
0.565892
-0.0798071
0.516003
-0.166665
0.433679
-0.134371
0.368806
-0.0129326
0.370898
0.14211
0.437249
0.258234
0.5271
0.153001
0.586635
0.0246238
0.59895
-0.0761356
0.556931
-0.219544
0.438646
-0.158847
0.321199
-0.114632
0.370633
0.0397545
0.523896
0.345311
0.584577
0.253193
0.532457
-0.334998
0.49995
-0.244273
0.496938
0.435512
0.512751
0.295039
0.53169
-0.244662
0.552446
-0.331999
0.547558
0.343175
0.516553
0.265857
0.516136
-0.121378
0.00663334
0.635355
-0.00757101
-0.641856
0.627813
-0.00709329
0.619371
-0.0103231
0.612655
-0.00793339
0.608106
-0.00303511
0.607463
-0.00108695
0.615268
0.0130112
0.63518
0.0156107
0.652522
0.0205478
0.663189
0.00103256
0.665373
-0.0109638
0.647246
-0.0445278
0.627169
-0.0612874
0.606684
-0.059322
0.56611
-0.126091
0.504882
-0.0731439
0.464761
0.0271884
0.500116
0.106755
0.574755
0.183595
0.634017
0.0937385
0.657409
0.00123121
0.640348
-0.059074
0.59964
-0.178837
0.512212
-0.0714187
0.400541
-0.00296172
0.421933
0.0183631
0.57228
0.194964
0.644345
0.181128
0.582356
-0.273009
0.525546
-0.187464
0.537184
0.423874
0.578349
0.253874
0.597929
-0.264242
0.607745
-0.341814
0.602948
0.347971
0.573755
0.29505
0.57007
-0.117693
-0.00802653
0.690696
-0.00312189
-0.695145
0.685971
-0.00236875
0.680388
-0.00474039
0.676427
-0.0039721
0.673921
-0.000529354
0.67424
-0.001406
0.679301
0.00795076
0.690294
0.00461742
0.700885
0.00995737
0.706448
-0.00453036
0.70726
-0.0117764
0.694563
-0.0318303
0.682835
-0.0495596
0.661216
-0.0377028
0.619609
-0.0844851
0.586099
-0.0396333
0.577877
0.0354102
0.619371
0.0652605
0.680459
0.122508
0.713989
0.0602083
0.722951
-0.0077308
0.695009
-0.0311315
0.646693
-0.13052
0.606251
-0.0309769
0.548449
0.0548405
0.543305
0.0235063
0.648129
0.0901412
0.712091
0.117165
0.644698
-0.205616
0.578061
-0.120827
0.612171
0.389765
0.66861
0.197434
0.671541
-0.267173
0.666292
-0.336565
0.667428
0.346835
0.642126
0.320352
0.632473
-0.108041
-0.02196
0.751397
-0.000223396
-0.754296
0.748721
0.000307936
0.745256
-0.00127529
0.742878
-0.00159489
0.741581
0.000767834
0.741872
-0.00169644
0.745159
0.0046636
0.75043
-0.000653674
0.756877
0.00351062
0.758549
-0.00620263
0.759119
-0.0123461
0.747632
-0.0203433
0.735157
-0.0370853
0.722132
-0.0246775
0.691056
-0.0534089
0.674371
-0.0229484
0.679594
0.0301873
0.709623
0.035231
0.754197
0.0779341
0.769269
0.045136
0.770206
-0.00866768
0.750883
-0.011809
0.707597
-0.0872346
0.692946
-0.0163259
0.686475
0.0613117
0.681368
0.0286141
0.735076
0.0364326
0.773388
0.0788531
0.709785
-0.142012
0.658942
-0.069984
0.718258
0.330449
0.773901
0.141791
0.744123
-0.237394
0.71127
-0.303712
0.723604
0.3345
0.714657
0.3293
0.703327
-0.0967107
-0.0338386
0.817775
0.00158187
-0.81958
0.816418
0.00166468
0.814439
0.000703752
0.813022
-0.000177405
0.812504
0.00128586
0.812186
-0.00137876
0.814407
0.00244284
0.816096
-0.00234316
0.819566
4.05314e-05
0.819194
-0.00583054
0.817884
-0.0110356
0.810711
-0.0131705
0.80064
-0.0270144
0.791723
-0.0157608
0.769467
-0.0311524
0.760881
-0.0143628
0.769565
0.0215033
0.78522
0.0195767
0.815505
0.047649
0.828127
0.0325141
0.827933
-0.00847375
0.813887
0.00223676
0.778846
-0.052194
0.771629
-0.00910892
0.785692
0.0472495
0.788628
0.025678
0.812938
0.0121228
0.831419
0.0603714
0.778785
-0.0893778
0.750325
-0.0415239
0.821989
0.258784
0.868188
0.0955915
0.807527
-0.176733
0.743363
-0.239548
0.775215
0.302648
0.799475
0.30504
0.788826
-0.0860616
-0.0399243
0.890371
0.00251149
-0.8913
0.889672
0.00236284
0.88866
0.00171644
0.887717
0.000765798
0.887554
0.00144869
0.886916
-0.000741328
0.888138
0.00122093
0.88811
-0.00231475
0.889537
-0.00138693
0.888463
-0.00475679
0.886267
-0.00883947
0.881638
-0.00854089
0.872684
-0.0180612
0.866928
-0.0100047
0.853531
-0.0177548
0.847703
-0.00853467
0.855691
0.0135152
0.863955
0.0113128
0.883137
0.0284668
0.892149
0.0235021
0.889453
-0.00577836
0.883072
0.00861823
0.860819
-0.0299408
0.854265
-0.00255498
0.869397
0.0321178
0.872107
0.0229677
0.881334
0.00289593
0.896507
0.0451978
0.85915
-0.0520209
0.841398
-0.0237716
0.90783
0.192352
0.941934
0.0614885
0.868538
-0.103338
0.794764
-0.165774
0.855119
0.242293
0.909461
0.250698
0.890609
-0.067209
-0.0330462
0.969431
0.00289118
-0.96981
0.96914
0.00265309
0.968677
0.00217974
0.968059
0.00138413
0.967966
0.00154149
0.967268
-4.37629e-05
0.967731
0.000758153
0.967069
-0.00165297
0.967151
-0.00146858
0.965871
-0.00347662
0.963266
-0.00623446
0.960148
-0.00542276
0.953712
-0.0116255
0.949726
-0.00601871
0.942085
-0.0101134
0.937936
-0.0043861
0.943667
0.00778424
0.947815
0.00716475
0.959296
0.0169864
0.966662
0.0161356
0.963886
-0.00300174
0.960868
0.0116359
0.947115
-0.0161878
0.940024
0.00453582
0.952337
0.0198048
0.95602
0.0192852
0.958006
0.00090938
0.970617
0.0325867
0.945043
-0.0264464
0.931392
-0.0101211
0.984985
0.138759
1.00929
0.0371819
0.943046
-0.0370916
0.881237
-0.103965
0.958425
0.165105
1.022
0.187125
0.991157
-0.0363686
-0.0133987
1.05567
0.00295958
-1.05574
1.0556
0.00271919
1.05541
0.00237688
1.05504
0.00175322
1.05491
0.00167349
1.05431
0.000549422
1.0543
0.000771999
1.05344
-0.000797809
1.05293
-0.000949783
1.0516
-0.00215092
1.04934
-0.00397666
1.04715
-0.00323085
1.04257
-0.00704683
1.03979
-0.00323333
1.03543
-0.00575733
1.03268
-0.00163515
1.03625
0.00421597
1.0385
0.00491116
1.04513
0.0103563
1.04993
0.0113324
1.04713
-0.000198763
1.04665
0.0121154
1.03869
-0.00822658
1.03341
0.00981559
1.0421
0.0111138
1.0444
0.0169894
1.04356
0.00174816
1.05393
0.0222138
1.03862
-0.011136
1.02826
0.000238456
1.06693
0.100091
1.0819
0.0222098
1.03267
0.012141
0.989723
-0.0610202
1.06212
0.0927066
1.1157
0.133552
1.08214
-0.00281115
0.00807693
1.14979
0.00287655
-1.14971
1.14985
0.00266147
1.14981
0.00241789
1.14961
0.00195925
1.14949
0.00179047
1.14899
0.00104916
1.14878
0.000981275
1.14797
1.45393e-05
1.14728
-0.000267477
1.14612
-0.000985254
1.14431
-0.00216589
1.14267
-0.00158869
1.13958
-0.00396362
1.13768
-0.00133061
1.13514
-0.00321622
1.13342
8.72996e-05
1.13537
0.00226497
1.13642
0.00385557
1.14011
0.00666515
1.14326
0.00818862
1.14117
0.00188434
1.14178
0.0115143
1.13706
-0.00350825
1.13352
0.0133559
1.13916
0.00546955
1.14116
0.0149862
1.14001
0.00290525
1.14761
0.0146134
1.138
-0.00152481
1.13138
0.00685957
1.15882
0.0726433
1.16681
0.0142257
1.1338
0.0451444
1.10762
-0.0348373
1.16339
0.0369384
1.20168
0.0952592
1.1746
0.0242746
0.0231896
1.25265
0.00269484
-1.25247
1.25279
0.00252714
1.25284
0.00236204
1.25275
0.00205297
1.25267
0.00186538
1.25231
0.00141441
1.25206
0.00123243
1.25141
0.000664739
1.25078
0.000362223
1.24982
-2.92975e-05
1.24847
-0.000811673
1.24727
-0.000396042
1.24522
-0.00191324
1.24394
-4.64459e-05
1.24234
-0.0016145
1.2413
0.00112318
1.24219
0.00137576
1.24269
0.00335173
1.24466
0.00470102
1.2465
0.00634737
1.24512
0.00326187
1.246
0.010635
1.24325
-0.000759566
1.2417
0.0149082
1.24511
0.00205763
1.24597
0.01413
1.24568
0.00319166
1.25105
0.00924454
1.24563
0.00389852
1.24221
0.01028
1.26131
0.0535429
1.26362
0.0119095
1.24408
0.0646864
1.23127
-0.0220293
1.26978
-0.00156626
1.29437
0.0706688
1.27607
0.0425716
0.0310184
1.36514
0.00246251
-1.36491
1.36532
0.00234596
1.36545
0.00223612
1.36545
0.00205053
1.36544
0.00187427
1.36522
0.00164008
1.36503
0.0014257
1.36455
0.00114261
1.36405
0.000856927
1.36336
0.00066171
1.3624
0.000153339
1.36156
0.000441032
1.36018
-0.000538048
1.35937
0.000772505
1.35828
-0.000531036
1.35766
0.00174069
1.35797
0.00106876
1.35813
0.0031961
1.35916
0.00366698
1.36023
0.00527526
1.35943
0.00406119
1.36057
0.00949399
1.35874
0.00107961
1.35858
0.0150671
1.36048
0.000151315
1.36112
0.0134913
1.36146
0.0028496
1.36527
0.0054364
1.36202
0.00714666
1.36076
0.0115407
1.3744
0.039908
1.37359
0.0127198
1.36465
0.073623
1.36011
-0.0174928
1.38344
-0.0248871
1.39943
0.0546766
1.38965
0.0523532
0.0339389
1.48823
0.00218198
-1.48795
1.48847
0.00210664
1.48866
0.00204163
1.48876
0.00195338
1.48883
0.00180541
1.48873
0.00173236
1.48864
0.00152286
1.48833
0.00144775
1.48799
0.00119562
1.4875
0.00115223
1.48685
0.000806889
1.48627
0.001018
1.48535
0.00037956
1.48482
0.00130236
1.48407
0.000221196
1.48372
0.00209684
1.48376
0.00101958
1.48381
0.00314992
1.48441
0.00306662
1.48508
0.00460446
1.48467
0.00447445
1.48586
0.00830054
1.48462
0.002321
1.48538
0.0143057
1.4865
-0.000961644
1.48685
0.0131363
1.48766
0.00203727
1.49024
0.00286098
1.48872
0.00866312
1.4889
0.0113652
1.4987
0.0301072
1.49613
0.0152874
1.49513
0.0746211
1.49554
-0.0179006
1.5075
-0.0368447
1.51803
0.0441411
1.51491
0.0554797
0.0336881
1.62295
0.00184634
-1.62261
1.62325
0.00179978
1.62352
0.00177806
1.62371
0.00175948
1.62386
0.0016543
1.62389
0.00170273
1.62389
0.00152045
1.62372
0.00161826
1.62353
0.0013877
1.62318
0.00150674
1.62275
0.00123171
1.62232
0.0014485
1.6217
0.000999798
1.62137
0.00163864
1.6208
0.000783355
1.62069
0.00221187
1.62061
0.00109315
1.62075
0.00301755
1.6212
0.00261715
1.62168
0.0041226
1.62171
0.00444429
1.6229
0.00711352
1.62208
0.00313278
1.62361
0.0127778
1.62384
-0.00118854
1.62461
0.0123621
1.62538
0.00126918
1.62676
0.0014829
1.62616
0.0092619
1.62772
0.00980591
1.63462
0.0232075
1.63231
0.0175965
1.63856
0.0683732
1.63917
-0.0185151
1.64157
-0.0392445
1.65002
0.0356934
1.65243
0.0530712
0.0314571
1.77047
0.00142634
-1.77005
1.77088
0.0013964
1.77123
0.00142537
1.77154
0.00145193
1.77177
0.00142077
1.77192
0.0015578
1.77199
0.00144346
1.77192
0.00169465
1.77181
0.00148938
1.77151
0.00180856
1.77123
0.00151736
1.77082
0.00185604
1.77039
0.00142641
1.77013
0.00189707
1.76971
0.00121119
1.76981
0.00210982
1.76969
0.00120966
1.77007
0.0026425
1.77054
0.00214867
1.77101
0.00364657
1.77159
0.00386754
1.77265
0.00604979
1.77229
0.00349139
1.77449
0.0105776
1.77385
-0.00054921
1.77514
0.0110718
1.77576
0.000656185
1.77552
0.00171555
1.77581
0.00897209
1.77884
0.00677825
1.78307
0.0189819
1.78197
0.0186992
1.79486
0.0554814
1.79343
-0.0170879
1.78815
-0.0339656
1.7963
0.0275425
1.80294
0.046437
0.028058
1.93167
0.00102818
-1.93127
1.93205
0.00100876
1.93239
0.00108949
1.93273
0.00111457
1.93296
0.00118947
1.9332
0.00131882
1.93331
0.00133476
1.93338
0.00161826
1.93338
0.00149201
1.93325
0.00194296
1.93316
0.00160268
1.93286
0.00215381
1.9327
0.00158546
1.93247
0.00212697
1.93223
0.00145467
1.93238
0.00195894
1.93218
0.00140648
1.93279
0.00203318
1.93316
0.00177793
1.93389
0.00291738
1.9352
0.00255914
1.9362
0.00505176
1.93697
0.00271932
1.93985
0.00769954
1.93789
0.00140838
1.94041
0.00855427
1.93947
0.00160085
1.93675
0.00443505
1.93815
0.00756832
1.94163
0.00330265
1.94362
0.0169867
1.94911
0.013211
1.97075
0.0338428
1.96094
-0.00727798
1.94313
-0.0161579
1.95165
0.0190205
1.96565
0.0324372
0.0215831
2.10731
0.000849348
-2.10713
2.10747
0.000847277
2.10764
0.000917793
2.10783
0.000928306
2.10801
0.00101231
2.10825
0.00107536
2.10845
0.00113094
2.10877
0.00129999
2.10902
0.00124581
2.10939
0.00157222
2.10967
0.00132294
2.11002
0.00180199
2.11027
0.00133339
2.11053
0.0018701
2.11067
0.00130907
2.11086
0.00176847
2.11092
0.00134785
2.11123
0.00172261
2.11154
0.00147521
2.11217
0.00228222
2.11319
0.00154105
2.11441
0.00383036
2.11551
0.00162372
2.11795
0.00525255
2.1171
0.00225965
2.11969
0.0059671
2.11863
0.00266097
2.11742
0.00564912
2.11919
0.00579253
2.12003
0.00246685
2.12371
0.0133082
2.13129
0.00562518
2.14761
0.0175258
2.13937
0.000960145
2.12273
0.000482025
2.12754
0.0142101
2.14294
0.0170388
0.0129558
2.30009
0.000676394
-2.29992
2.30025
0.000688551
2.30045
0.000717319
2.30065
0.000734504
2.3009
0.000760375
2.30118
0.000798535
2.3015
0.000808761
2.30191
0.000886615
2.3023
0.000857179
2.30287
0.000997584
2.3033
0.00089785
2.30398
0.00112011
2.3044
0.000918287
2.30503
0.0012368
2.30541
0.000924199
2.30584
0.00134153
2.30623
0.000959485
2.30649
0.00145818
2.30689
0.00107567
2.30744
0.00173532
2.30777
0.001215
2.30915
0.00244857
2.30952
0.00124917
2.31129
0.00348403
2.31209
0.00145727
2.31399
0.00407409
2.31444
0.00220481
2.31642
0.00367474
2.31791
0.00429857
2.3177
0.00267663
2.32306
0.00794903
2.32567
0.00302072
2.33179
0.0113999
2.33191
0.000843738
2.32871
0.00367857
2.33186
0.0110615
2.3401
0.00880184
0.00703626
2.51173
0.000356118
-2.51141
2.51205
0.00036696
2.51239
0.00037937
2.51273
0.000392806
2.51309
0.000403701
2.51346
0.000427278
2.51384
0.000430601
2.51425
0.000474011
2.51465
0.00045727
2.51511
0.000533181
2.51553
0.000480336
2.51605
0.000599114
2.51647
0.000496155
2.51705
0.000662192
2.51746
0.000507759
2.51809
0.000718431
2.51852
0.000521615
2.51919
0.000792016
2.51972
0.00054979
2.5205
0.00095245
2.52112
0.000592157
2.5223
0.00126947
2.52287
0.000679437
2.52467
0.0016832
2.52522
0.000914166
2.52727
0.0020167
2.52814
0.00133815
2.5298
0.00201848
2.53174
0.00235144
2.53307
0.00135395
2.53701
0.00400077
2.53877
0.00125954
2.54533
0.00484163
2.54479
0.00138498
2.54504
0.00343221
2.55054
0.00555658
2.55583
0.00351649
0.00309063
2.74322
-2.74287
2.74359
2.74397
2.74436
2.74476
2.74519
2.74562
2.7461
2.74655
2.74709
2.74757
2.74817
2.74866
2.74933
2.74983
2.75055
2.75107
2.75186
2.75241
2.75337
2.75396
2.75523
2.75591
2.75759
2.75851
2.76052
2.76186
2.76388
2.76623
2.76758
2.77158
2.77284
2.77769
2.77907
2.7825
2.78806
2.79158
0.437491
0.0311763
-0.43194
0.444623
0.0567899
0.448925
0.0866815
0.455806
0.109233
0.458918
0.139691
0.464669
0.157516
0.46621
0.186799
0.19826
0.465418
0.0268644
-0.461106
0.470633
0.0515745
0.474404
0.082911
0.47847
0.105166
0.481427
0.136735
0.484343
0.1546
0.4877
0.183442
0.19686
0.49817
0.0235189
-0.494825
0.501236
0.0485088
0.504268
0.0798794
0.507018
0.102415
0.510774
0.132979
0.513259
0.152115
0.517449
0.179251
0.195293
0.534454
0.0207415
-0.531676
0.536545
0.0464176
0.539838
0.0765863
0.542247
0.100007
0.546238
0.128988
0.548312
0.150041
0.55214
0.175423
0.193317
0.575393
0.0185079
-0.573159
0.577122
0.0446879
0.580253
0.073456
0.582214
0.0980454
0.585795
0.125406
0.588008
0.147829
0.591931
0.1715
0.190544
0.621196
0.0167196
-0.619408
0.622662
0.043222
0.625423
0.0706949
0.627453
0.096015
0.631092
0.121767
0.633987
0.144934
0.638327
0.16716
0.187015
0.672113
0.0153269
-0.67072
0.673544
0.0417914
0.676188
0.0680508
0.678691
0.0935122
0.68251
0.117948
0.686172
0.141272
0.690831
0.162502
0.182701
0.728757
0.0141757
-0.727606
0.730344
0.0402044
0.732972
0.0654231
0.735973
0.0905106
0.739936
0.113985
0.744198
0.13701
0.749064
0.157636
0.177469
0.791458
0.0131875
-0.790469
0.7932
0.0384623
0.795804
0.0628192
0.799134
0.0871802
0.803183
0.109937
0.808018
0.132174
0.8135
0.152154
0.171389
0.860515
0.0123159
-0.859644
0.86236
0.0366176
0.865044
0.0601355
0.868718
0.0835058
0.873165
0.10549
0.878614
0.126726
0.884622
0.146146
0.16471
0.936455
0.011481
-0.93562
0.938407
0.0346661
0.941292
0.0572501
0.945277
0.0795212
0.950117
0.100649
0.955938
0.120904
0.962467
0.139617
0.157367
1.01972
0.0106608
-1.0189
1.02175
0.0326416
1.02483
0.0541679
1.02908
0.0752718
1.03431
0.0954147
1.04059
0.114628
1.04772
0.132484
0.14935
1.1109
0.00983918
-1.11008
1.11302
0.0305234
1.11633
0.0508536
1.12089
0.0707153
1.12655
0.0897574
1.1333
0.10787
1.14102
0.124766
0.140662
1.21066
0.00900929
-1.20983
1.21288
0.0283023
1.21643
0.0473106
1.2213
0.0658435