/*--------------------------------*- C++ -*----------------------------------*\
| =========                 |                                                 |
| \\      /  F ield         | OpenFOAM: The Open Source CFD Toolbox           |
|  \\    /   O peration     | Version:  2312                                  |
|   \\  /    A nd           | Website:  www.openfoam.com                      |
|    \\/     M anipulation  |                                                 |
\*---------------------------------------------------------------------------*/
FoamFile
{
    version     2.0;
    format      ascii;
    arch        "LSB;label=32;scalar=64";
    class       volScalarField;
    location    "13.5";
    object      p;
}
// * * * * * * * * * * * * * * * * * * * * * * * * * * * * * * * * * * * * * //

dimensions      [0 2 -2 0 0 0 0];

internalField   nonuniform List<scalar> 
9200
(
-0.447396
-0.464204
-0.484242
-0.454644
-0.393292
-0.349377
-0.335858
-0.358687
-0.413191
-0.490515
-0.576244
-0.632076
-0.641831
-0.618611
-0.584144
-0.551637
-0.521084
-0.492065
-0.459096
-0.422306
-0.384492
-0.398196
-0.392181
-0.345042
-0.285235
-0.233029
-0.218103
-0.234169
-0.288011
-0.366512
-0.433181
-0.46618
-0.474031
-0.469533
-0.45803
-0.4426
-0.422589
-0.399481
-0.372926
-0.351755
-0.349141
-0.354681
-0.3346
-0.27122
-0.190686
-0.133068
-0.117413
-0.146421
-0.207199
-0.273691
-0.31881
-0.342684
-0.360842
-0.373598
-0.373562
-0.365699
-0.356441
-0.343533
-0.32662
-0.3045
-0.357541
-0.3746
-0.353676
-0.278706
-0.178844
-0.122699
-0.116991
-0.149375
-0.195896
-0.236945
-0.266137
-0.286482
-0.300658
-0.309434
-0.31137
-0.30572
-0.296966
-0.289607
-0.280615
-0.270565
-0.410197
-0.447825
-0.421456
-0.336092
-0.246701
-0.196705
-0.185728
-0.196291
-0.215822
-0.235661
-0.25029
-0.259383
-0.264035
-0.266923
-0.267283
-0.263045
-0.255104
-0.244537
-0.234428
-0.225952
-0.474031
-0.511471
-0.495121
-0.391306
-0.311981
-0.261229
-0.235384
-0.228502
-0.230815
-0.2325
-0.233131
-0.235882
-0.239077
-0.239364
-0.238045
-0.235457
-0.230409
-0.223424
-0.21484
-0.204571
-0.553017
-0.495084
-0.503663
-0.415139
-0.343106
-0.293783
-0.263865
-0.247732
-0.240358
-0.236161
-0.230155
-0.224061
-0.219838
-0.215267
-0.209399
-0.203332
-0.197913
-0.192026
-0.186798
-0.181232
-0.570191
-0.554428
-0.490662
-0.417379
-0.355213
-0.310208
-0.278526
-0.256035
-0.241153
-0.231261
-0.222907
-0.213952
-0.206658
-0.200655
-0.193805
-0.185576
-0.17714
-0.168343
-0.159793
-0.152586
-0.495542
-0.573285
-0.472677
-0.394746
-0.342788
-0.304643
-0.276833
-0.254378
-0.235337
-0.22016
-0.208348
-0.198864
-0.189584
-0.181673
-0.176016
-0.170066
-0.163792
-0.157084
-0.150231
-0.142261
-0.359095
-0.418367
-0.413872
-0.366473
-0.326776
-0.294481
-0.268919
-0.248043
-0.230003
-0.213175
-0.19752
-0.183817
-0.172359
-0.161501
-0.151834
-0.144325
-0.137733
-0.131577
-0.126143
-0.121011
-0.628274
-0.602238
-0.638293
-0.69338
-0.76372
-0.842522
-0.924412
-1.00956
-1.09849
-1.19123
-1.28593
-1.38237
-1.4739
-1.55317
-1.61337
-1.65477
-1.6593
-1.6264
-1.56313
-1.43982
-0.710813
-0.662381
-0.697825
-0.748596
-0.819025
-0.899688
-0.984521
-1.07182
-1.16437
-1.26192
-1.36176
-1.45732
-1.54151
-1.6248
-1.6703
-1.69355
-1.69131
-1.63558
-1.54698
-1.42632
-0.72249
-0.682401
-0.72393
-0.77701
-0.851193
-0.930399
-1.01259
-1.10077
-1.19223
-1.28418
-1.37439
-1.46328
-1.53554
-1.5936
-1.63017
-1.64096
-1.62065
-1.5651
-1.47621
-1.35046
-0.667963
-0.655273
-0.70929
-0.773019
-0.846458
-0.926438
-1.01131
-1.09624
-1.18017
-1.26345
-1.34063
-1.41449
-1.47392
-1.51735
-1.54065
-1.5345
-1.50245
-1.43914
-1.35022
-1.23152
-0.551393
-0.579599
-0.656204
-0.731822
-0.812909
-0.896085
-0.978128
-1.0565
-1.13151
-1.20547
-1.27368
-1.333
-1.37822
-1.40318
-1.41279
-1.39477
-1.35237
-1.28156
-1.18555
-1.07098
-0.435135
-0.48433
-0.583618
-0.673488
-0.7582
-0.835636
-0.906961
-0.984501
-1.05826
-1.12275
-1.17973
-1.22621
-1.26286
-1.28005
-1.28122
-1.2595
-1.21001
-1.14047
-1.05194
-0.946065
-0.411123
-0.453853
-0.534728
-0.614557
-0.681335
-0.750116
-0.81864
-0.884313
-0.947459
-1.00665
-1.06006
-1.10568
-1.14125
-1.16131
-1.15883
-1.12931
-1.07892
-1.00614
-0.9219
-0.828847
-0.456252
-0.461766
-0.514242
-0.57012
-0.615848
-0.659445
-0.702225
-0.750354
-0.812166
-0.875063
-0.931615
-0.981546
-1.03146
-1.05492
-1.0425
-0.997535
-0.935087
-0.86581
-0.798536
-0.724445
-0.475747
-0.458112
-0.515917
-0.545552
-0.548974
-0.549361
-0.573514
-0.622205
-0.676702
-0.730568
-0.801894
-0.88384
-0.939636
-0.950037
-0.913381
-0.853528
-0.788711
-0.724347
-0.670167
-0.614623
-0.478916
-0.490294
-0.522721
-0.514156
-0.475992
-0.452366
-0.458319
-0.483135
-0.526449
-0.60325
-0.696169
-0.777271
-0.811828
-0.797934
-0.751998
-0.698242
-0.647168
-0.601322
-0.561494
-0.517976
-1.27104
-1.02563
-0.742333
-0.489727
-0.283813
-0.128107
-0.0215489
0.0495044
0.0872359
0.104545
0.110747
0.110072
0.105196
0.098499
0.0908123
0.0819142
0.0724484
0.0634385
0.0553548
0.0481067
0.0415822
0.0358319
0.0309048
0.0267203
0.0230069
0.0197458
0.0169852
0.0146258
0.0124441
0.0105304
0.00879175
0.00726246
0.0059667
0.00488407
0.00400023
0.00326913
0.00268365
0.00219951
0.00181361
0.00149735
0.00123767
0.001044
0.000855179
0.000736776
0.000596558
0.000495366
0.000398613
0.000280443
0.000179199
5.39377e-05
-1.24873
-1.01684
-0.766903
-0.534289
-0.337872
-0.180134
-0.0622488
0.0158364
0.060713
0.0814526
0.0900247
0.0926879
0.0911157
0.0870691
0.0816744
0.074904
0.0671356
0.0594606
0.0524766
0.0460922
0.0401601
0.0348058
0.0301719
0.0261789
0.0226177
0.0194913
0.0168574
0.0146266
0.0125003
0.010591
0.00882589
0.00726522
0.00594752
0.00485681
0.00396897
0.00324096
0.00265682
0.00217549
0.00179102
0.00147537
0.00122304
0.00102614
0.000847397
0.000724769
0.000591585
0.000491414
0.000395728
0.000280596
0.00017652
5.13249e-05
-1.17321
-0.970654
-0.765748
-0.569445
-0.396376
-0.251956
-0.135565
-0.0443537
0.0165012
0.0482021
0.0630074
0.0706309
0.073733
0.0733859
0.0710586
0.0670622
0.0614489
0.0551574
0.0492019
0.0437585
0.0385801
0.0336819
0.0293013
0.0254586
0.0220781
0.0191407
0.0166217
0.0144329
0.0124113
0.0105511
0.00881252
0.00725621
0.00593178
0.00483567
0.00394185
0.00321486
0.00263099
0.00215346
0.00177111
0.00145688
0.00121077
0.00101037
0.000841925
0.000714294
0.000589034
0.000488457
0.000394485
0.000282181
0.000176135
4.68555e-05
-1.06603
-0.899254
-0.729835
-0.56062
-0.418554
-0.297131
-0.190796
-0.105725
-0.0423295
0.000665101
0.0279733
0.0444993
0.0536624
0.0580294
0.0589466
0.0575922
0.0544779
0.0501403
0.0454725
0.0409962
0.0366252
0.0322495
0.028098
0.0244214
0.0212813
0.0186041
0.0162744
0.0141647
0.0121782
0.0103625
0.00867916
0.00716934
0.00587311
0.0047956
0.00391032
0.00319185
0.00260967
0.00213483
0.001754
0.00144096
0.00120102
0.000996597
0.000838263
0.000705574
0.000589465
0.000488155
0.000397841
0.000287316
0.000180263
4.79485e-05
-0.914127
-0.791547
-0.68053
-0.554314
-0.433497
-0.331038
-0.234619
-0.147191
-0.0815543
-0.036765
-0.00555282
0.0169821
0.0325588
0.0418781
0.0467282
0.048236
0.0473368
0.0447917
0.0414787
0.0380061
0.0344809
0.0308033
0.027111
0.0236623
0.0206361
0.0180996
0.0159169
0.0138881
0.0121689
0.01019
0.0085432
0.00707257
0.00579728
0.00473216
0.00385317
0.00314419
0.00256747
0.00210044
0.00172524
0.00141766
0.00118579
0.000981216
0.000833514
0.00069728
0.000589588
0.000487688
0.000400776
0.000292977
0.000184916
4.80876e-05
-0.817146
-0.712151
-0.623735
-0.529237
-0.4323
-0.345005
-0.26957
-0.193671
-0.124552
-0.0695439
-0.0315215
-0.00543911
0.0136168
0.0265623
0.0342171
0.0386104
0.0402674
0.0394988
0.0372905
0.0346261
0.0318249
0.0287976
0.0255186
0.0223029
0.0195172
0.0172378
0.0152992
0.0134505
0.0117528
0.00988679
0.00834444
0.00695065
0.00572367
0.00468812
0.00382234
0.00312296
0.00254738
0.00208269
0.00170843
0.00140165
0.00117396
0.000966565
0.000826979
0.000686856
0.000587013
0.000484392
0.000401214
0.000295609
0.000186484
4.46163e-05
-0.716495
-0.648014
-0.586653
-0.506971
-0.421155
-0.340197
-0.269385
-0.209391
-0.152946
-0.102042
-0.0599314
-0.0278187
-0.00390588
0.0124855
0.0223496
0.028551
0.032458
0.033883
0.0331762
0.0315547
0.029609
0.0273213
0.0245592
0.0216565
0.0189848
0.0167595
0.0149115
0.0131547
0.0113866
0.0096394
0.00812666
0.00677083
0.00558039
0.0045758
0.00373241
0.0030524
0.00248864
0.0020359
0.00167076
0.00137156
0.00115285
0.000947784
0.000818998
0.000677891
0.0005872
0.000484787
0.000406163
0.000302632
0.000193491
5.06056e-05
-0.633432
-0.58422
-0.539772
-0.482395
-0.417632
-0.349622
-0.285817
-0.227768
-0.174358
-0.127137
-0.0870899
-0.0551428
-0.0290048
-0.00739516
0.00798325
0.01791
0.0240027
0.027128
0.0276753
0.0270169
0.0259862
0.0245507
0.0224664
0.0199951
0.017628
0.0156628
0.0140657
0.0125574
0.0109315
0.00943322
0.00795223
0.00664371
0.00549405
0.00451707
0.00368735
0.00301816
0.00245721
0.00201025
0.00164728
0.00135226
0.00113641
0.000933325
0.000809337
0.000668194
0.00058277
0.000481045
0.000405508
0.000304817
0.000195723
4.79397e-05
-0.55593
-0.535543
-0.503486
-0.457438
-0.405527
-0.349161
-0.292048
-0.241169
-0.191714
-0.144008
-0.102666
-0.0701139
-0.044762
-0.0232881
-0.00581427
0.00659727
0.0154431
0.0209959
0.023422
0.0239367
0.0236457
0.0228424
0.0212621
0.0191885
0.017066
0.0151633
0.0135699
0.0121018
0.0105652
0.00928425
0.00769803
0.00642169
0.00532007
0.00438359
0.00358537
0.00293997
0.00239489
0.0019617
0.00160837
0.00132164
0.00111172
0.000914345
0.000796279
0.000658667
0.000579216
0.000479329
0.000407412
0.000309068
0.000200494
5.50118e-05
-0.488047
-0.48246
-0.461164
-0.432106
-0.397621
-0.356372
-0.310527
-0.265308
-0.221026
-0.177555
-0.136418
-0.0993054
-0.069009
-0.0440497
-0.0233318
-0.00806776
0.00279253
0.0106474
0.0155353
0.017839
0.0188416
0.0191159
0.0186758
0.0174358
0.0157815
0.014193
0.0128288
0.0115455
0.0101899
0.00884816
0.00748468
0.00627521
0.00520657
0.00429234
0.00351004
0.00287902
0.00234168
0.00191934
0.00157096
0.00129396
0.00108703
0.000898675
0.00078245
0.000651346
0.000573569
0.000478136
0.000406575
0.000312699
0.000204834
6.26535e-05
-0.43168
-0.453357
-0.430102
-0.394225
-0.358007
-0.319599
-0.279571
-0.241052
-0.204007
-0.16796
-0.133682
-0.101195
-0.0723307
-0.0472643
-0.0266841
-0.0119883
-0.00168111
0.00603947
0.0112719
0.0142079
0.0158361
0.0166373
0.0167211
0.0159404
0.0144645
0.0129179
0.0117203
0.0107257
0.00963013
0.00831103
0.0071731
0.00603276
0.00503634
0.00416957
0.00342238
0.00281276
0.00229165
0.00188049
0.00153851
0.0012709
0.00106326
0.000885892
0.000765616
0.000644964
0.000564921
0.000476208
0.000403436
0.000313946
0.000205954
6.95366e-05
-0.357526
-0.379808
-0.37013
-0.343484
-0.31384
-0.284145
-0.253171
-0.220835
-0.188721
-0.158485
-0.12959
-0.101308
-0.0758567
-0.0534339
-0.0341288
-0.019317
-0.00841323
-9.65733e-05
0.0058293
0.00934095
0.0113827
0.0127159
0.013441
0.0132886
0.0122834
0.0111137
0.0102592
0.00957252
0.00872324
0.00760058
0.00645677
0.00548245
0.00460948
0.00385051
0.00318622
0.0026342
0.00215794
0.00177768
0.00146102
0.00121181
0.00101758
0.000855103
0.000740773
0.000632513
0.000555642
0.000473504
0.000403962
0.000315833
0.000211315
8.12127e-05
-0.303455
-0.330452
-0.331543
-0.311388
-0.28475
-0.258303
-0.232073
-0.205762
-0.180139
-0.154446
-0.127502
-0.101007
-0.0775876
-0.0570636
-0.0394392
-0.0255127
-0.0143319
-0.0050866
0.00156442
0.0057266
0.00839057
0.0102017
0.0112287
0.0113727
0.0107575
0.00991177
0.00925107
0.00870296
0.00795777
0.00697913
0.00595763
0.00501271
0.00421773
0.00352433
0.00292013
0.00241747
0.001987
0.00164154
0.00135644
0.00113074
0.000956686
0.000810574
0.000707744
0.000610372
0.000540777
0.000464774
0.000400331
0.000314889
0.000213456
8.32818e-05
-0.262362
-0.285606
-0.288116
-0.273928
-0.254051
-0.233335
-0.211412
-0.187774
-0.164099
-0.141451
-0.119069
-0.0965426
-0.0758638
-0.0577218
-0.0415959
-0.0286439
-0.0183859
-0.00977951
-0.0031823
0.00148399
0.00464212
0.00669909
0.00815981
0.00894355
0.0087627
0.0081184
0.00765274
0.00735757
0.00684503
0.00603328
0.00515769
0.00440611
0.00373388
0.00314541
0.00262605
0.0021853
0.00180697
0.00149908
0.00124566
0.00104227
0.000886364
0.000756475
0.000663809
0.000579193
0.000515698
0.000448106
0.000386847
0.000306855
0.000205137
7.32422e-05
-0.224837
-0.245081
-0.250895
-0.242798
-0.226783
-0.208572
-0.189905
-0.171036
-0.152638
-0.134474
-0.116196
-0.0975968
-0.0799242
-0.0632947
-0.0474063
-0.0342564
-0.0237231
-0.0147096
-0.00787263
-0.00306772
0.000582649
0.00328681
0.00523679
0.00633917
0.00643953
0.00619623
0.00616171
0.0062477
0.00598312
0.00532354
0.00455608
0.00384344
0.00326502
0.00276424
0.00232064
0.00193926
0.00161237
0.00134231
0.00112139
0.000942337
0.000808207
0.000697333
0.00061747
0.000547333
0.000489893
0.00043225
0.000373412
0.000298976
0.000198312
7.0351e-05
-0.193175
-0.2117
-0.218161
-0.21276
-0.200439
-0.186245
-0.171567
-0.156296
-0.14082
-0.124975
-0.108972
-0.0921567
-0.0756486
-0.0609379
-0.0474086
-0.0357558
-0.0260702
-0.0175863
-0.0109045
-0.0058865
-0.00201395
0.000695774
0.00273074
0.0042952
0.00496755
0.0048575
0.0048333
0.00496049
0.0048026
0.00429307
0.00369571
0.00317657
0.00272732
0.00233168
0.00197367
0.00165876
0.00138908
0.00116484
0.000983847
0.000836647
0.00072786
0.000638306
0.000572705
0.000516543
0.000468093
0.000418714
0.000365367
0.000295165
0.000198614
7.64489e-05
-0.166738
-0.182619
-0.189137
-0.186189
-0.177058
-0.165799
-0.154136
-0.14186
-0.128756
-0.115139
-0.101821
-0.0884511
-0.0753832
-0.063116
-0.0508353
-0.0397355
-0.0304935
-0.0222303
-0.0156317
-0.0107033
-0.00655872
-0.00327052
-0.000727621
0.0012275
0.00214643
0.00245093
0.00290353
0.0034484
0.00361659
0.00335421
0.00292078
0.00251194
0.00216783
0.00186604
0.0015916
0.0013493
0.0011458
0.000975279
0.000837585
0.000723516
0.000639089
0.000572568
0.000521446
0.000482069
0.000444093
0.000402921
0.000358894
0.000291087
0.000200418
8.00558e-05
-0.144196
-0.157671
-0.163995
-0.162664
-0.155913
-0.147341
-0.138015
-0.127567
-0.116819
-0.106274
-0.0956932
-0.08429
-0.0724719
-0.0614647
-0.0507758
-0.0408733
-0.0322745
-0.0243506
-0.0178159
-0.0127668
-0.00850269
-0.00524406
-0.00272785
-0.000538833
0.000791846
0.00122527
0.00165228
0.00225085
0.00252431
0.00237168
0.00206485
0.00178945
0.0015627
0.00136076
0.0011799
0.00102145
0.000887885
0.000769313
0.000673141
0.000593039
0.000536379
0.000496341
0.000462504
0.000442914
0.000415051
0.000385166
0.000350076
0.000284968
0.000200943
7.92556e-05
-0.124561
-0.136153
-0.142164
-0.141968
-0.137087
-0.130242
-0.122625
-0.114621
-0.106436
-0.0976145
-0.0883704
-0.0788678
-0.0693588
-0.0602551
-0.0508818
-0.0418791
-0.0340328
-0.0268252
-0.0208037
-0.0161315
-0.0120444
-0.00867514
-0.00592771
-0.00345123
-0.00184267
-0.00109058
-0.00034448
0.000571401
0.00114138
0.00123499
0.00112946
0.00101726
0.000918086
0.000826394
0.000747456
0.000672161
0.000602723
0.000535971
0.000486913
0.000447881
0.000424172
0.000413022
0.000399154
0.000399339
0.000383655
0.000366115
0.000339038
0.000279367
0.000200477
7.81758e-05
-0.107586
-0.117601
-0.12325
-0.12378
-0.120135
-0.114889
-0.109162
-0.102823
-0.0959035
-0.0886179
-0.081464
-0.0739943
-0.0659399
-0.0579456
-0.0498444
-0.0421409
-0.0353124
-0.0287676
-0.0230206
-0.018317
-0.0141076
-0.0107144
-0.00799419
-0.00538713
-0.00347745
-0.00253733
-0.00170767
-0.000689732
3.82574e-06
0.000214177
0.000231042
0.000234981
0.000252895
0.000269856
0.000286102
0.000287967
0.000286274
0.00028142
0.000287127
0.00029325
0.000303764
0.000322919
0.000330753
0.000351572
0.000351151
0.000344961
0.000328353
0.000274889
0.000199411
7.83927e-05
-0.0930057
-0.10157
-0.10673
-0.107708
-0.105188
-0.101261
-0.0966444
-0.0914711
-0.0861294
-0.0805458
-0.0748073
-0.0685392
-0.0618167
-0.0552923
-0.0485881
-0.0419827
-0.0358752
-0.0298611
-0.0245242
-0.0201043
-0.0160944
-0.0128466
-0.0101931
-0.00752183
-0.00545423
-0.00436606
-0.00342287
-0.002255
-0.00135979
-0.000951999
-0.000767253
-0.00060228
-0.000450278
-0.000322041
-0.000212092
-0.000126026
-4.93351e-05
1.3467e-05
7.44529e-05
0.000126218
0.000172855
0.000224896
0.000256871
0.000300339
0.00031674
0.00032248
0.000318554
0.000270211
0.000198431
7.94022e-05
-0.0803541
-0.0876319
-0.0922665
-0.0935526
-0.0918535
-0.0888785
-0.085305
-0.0813503
-0.0772086
-0.0726919
-0.0680829
-0.0631134
-0.0577316
-0.0523978
-0.046703
-0.0410087
-0.0357414
-0.0304796
-0.0257037
-0.0215755
-0.0176881
-0.0145656
-0.0120674
-0.0094355
-0.00722028
-0.00594711
-0.00488015
-0.00360649
-0.00258485
-0.00204613
-0.00172995
-0.00144304
-0.00117322
-0.000940942
-0.000734318
-0.000557348
-0.000400507
-0.000271432
-0.000154845
-5.42736e-05
3.23695e-05
0.00011984
0.000178459
0.00024583
0.000280442
0.00029965
0.00030851
0.000265677
0.000198312
8.06128e-05
-0.0692253
-0.0754667
-0.0796726
-0.0811419
-0.0800818
-0.0779299
-0.0751839
-0.0720707
-0.0688102
-0.0652625
-0.0617152
-0.057804
-0.0534307
-0.0490777
-0.0443774
-0.0396513
-0.0352022
-0.030582
-0.0263072
-0.0225397
-0.0189044
-0.0159928
-0.013657
-0.0110625
-0.00875816
-0.00738969
-0.00628205
-0.0049613
-0.00383956
-0.0031712
-0.00272372
-0.00230813
-0.00192063
-0.00158012
-0.00127281
-0.0010057
-0.000770797
-0.000574046
-0.000398075
-0.00024512
-0.000115788
8.78219e-06
9.60935e-05
0.000188411
0.00024302
0.000276574
0.000298332
0.000262405
0.000199045
8.18692e-05
-0.0595942
-0.0649723
-0.0687591
-0.0702793
-0.0696775
-0.0681399
-0.0660368
-0.0636191
-0.0611088
-0.058353
-0.0556076
-0.0525415
-0.0490941
-0.0456611
-0.0418156
-0.0378726
-0.0341297
-0.0301699
-0.0264772
-0.0231191
-0.0197352
-0.0170308
-0.0148958
-0.0124278
-0.0101309
-0.00871138
-0.00756621
-0.00621297
-0.00502519
-0.0042587
-0.0037005
-0.00317375
-0.00267515
-0.00222892
-0.00182463
-0.00147025
-0.00115631
-0.000888717
-0.000650934
-0.000444158
-0.000270467
-0.000107226
1.06368e-05
0.000129161
0.00020512
0.000253722
0.000289015
0.000260686
0.000200563
8.34017e-05
-0.0512863
-0.0558535
-0.0592086
-0.0607196
-0.0604814
-0.0594497
-0.0578358
-0.0559542
-0.0540376
-0.0518976
-0.0498514
-0.0475611
-0.0448503
-0.0420891
-0.0389544
-0.0357653
-0.0327243
-0.0293882
-0.0262251
-0.0232579
-0.0201669
-0.0177333
-0.0158427
-0.0135299
-0.0112751
-0.0098431
-0.00869998
-0.00735636
-0.00614264
-0.0053083
-0.00465932
-0.00403101
-0.00342815
-0.00288199
-0.00238445
-0.00194343
-0.00154958
-0.00121055
-0.000910532
-0.00064917
-0.000429553
-0.000226237
-7.63408e-05
6.94341e-05
0.000167628
0.000232087
0.000281293
0.000260614
0.000203252
8.53484e-05
-0.0440322
-0.0479212
-0.0508958
-0.0523491
-0.0523598
-0.0516866
-0.0504701
-0.0490629
-0.047627
-0.0460066
-0.044532
-0.0427632
-0.0405938
-0.0384802
-0.0360359
-0.0334897
-0.0310223
-0.0282371
-0.0255867
-0.0230242
-0.0202509
-0.0181064
-0.0164697
-0.0143363
-0.0121764
-0.0107865
-0.00968235
-0.00837831
-0.00717253
-0.00629953
-0.00557958
-0.00486459
-0.00416839
-0.00352911
-0.00294174
-0.00241612
-0.00194416
-0.00153481
-0.00117263
-0.000856192
-0.000589802
-0.000345578
-0.000162816
1.098e-05
0.000131938
0.000212903
0.000276007
0.000262946
0.000207727
8.82573e-05
-0.0376926
-0.0410031
-0.0436299
-0.0450069
-0.0452154
-0.0448504
-0.0439584
-0.0428975
-0.0418157
-0.040574
-0.0394973
-0.0381897
-0.0365856
-0.0350138
-0.0330548
-0.0310224
-0.0290851
-0.0268191
-0.0246432
-0.0224548
-0.0199977
-0.018163
-0.0167984
-0.0148639
-0.0128335
-0.0115272
-0.0104967
-0.00926315
-0.00809759
-0.0072153
-0.00644648
-0.00566071
-0.00488237
-0.00415741
-0.00348542
-0.00287951
-0.00233245
-0.00185466
-0.00143104
-0.00106016
-0.000747156
-0.000462042
-0.000246324
-4.43229e-05
9.94705e-05
0.000196785
0.000273783
0.000267595
0.000213656
9.02234e-05
-0.0321743
-0.0350146
-0.0373486
-0.0386325
-0.0389639
-0.0388018
-0.0381284
-0.0373416
-0.0365487
-0.035623
-0.0349229
-0.0340021
-0.0327581
-0.0315427
-0.0300204
-0.0284922
-0.0270264
-0.0252087
-0.0234596
-0.021619
-0.0194711
-0.0179493
-0.016854
-0.0151194
-0.0132395
-0.0120513
-0.0111304
-0.0100021
-0.0089097
-0.00804447
-0.00724551
-0.00640362
-0.00555467
-0.0047528
-0.00400318
-0.0033224
-0.00270455
-0.00216126
-0.00167867
-0.00125469
-0.000896402
-0.000570582
-0.000322425
-9.19654e-05
7.44787e-05
0.000188204
0.000278856
0.000279532
0.000224666
0.000100162
-0.0274409
-0.0298429
-0.0318734
-0.0330268
-0.0334301
-0.0334257
-0.0329483
-0.0324046
-0.0318463
-0.0311734
-0.0307375
-0.0300592
-0.0291075
-0.0282443
-0.027105
-0.0259642
-0.0248639
-0.0234327
-0.0220679
-0.020543
-0.0186943
-0.0174916
-0.0166707
-0.0151445
-0.0134344
-0.0123857
-0.0115897
-0.0105836
-0.00958862
-0.00877081
-0.00796522
-0.00708039
-0.00617117
-0.00530181
-0.00448171
-0.00373255
-0.00304882
-0.00244571
-0.00190821
-0.00143618
-0.00103665
-0.000673955
-0.000397523
-0.000140967
4.45757e-05
0.000172943
0.000274773
0.000282853
0.000223587
8.00632e-05
-0.0232866
-0.0253149
-0.0270866
-0.0281269
-0.0285861
-0.0286976
-0.0283609
-0.0279947
-0.0276055
-0.0271272
-0.0269105
-0.0264573
-0.0257657
-0.025162
-0.0243003
-0.0234812
-0.0226972
-0.0215919
-0.0205421
-0.019275
-0.0176953
-0.0167925
-0.0162283
-0.0149114
-0.0133982
-0.0125343
-0.0119096
-0.0110551
-0.0101696
-0.00940234
-0.00858801
-0.00767983
-0.00671955
-0.00578857
-0.00490317
-0.00408855
-0.00334111
-0.00267735
-0.00208363
-0.0015604
-0.00111563
-0.000713407
-0.000403352
-0.000120176
8.99424e-05
0.00022876
0.000346062
0.000350988
0.000305841
0.000165888
-0.0196559
-0.0213923
-0.0229443
-0.023872
-0.0243552
-0.0245349
-0.0242992
-0.0240752
-0.0238127
-0.0234841
-0.023431
-0.0231294
-0.02262
-0.0222147
-0.0215943
-0.021066
-0.0205665
-0.0197631
-0.0190015
-0.0179611
-0.0166256
-0.0159867
-0.0156211
-0.0144611
-0.0131167
-0.0124221
-0.0119724
-0.0113155
-0.0105927
-0.00989919
-0.00916495
-0.00823011
-0.00724417
-0.00627072
-0.00533633
-0.00447504
-0.00368318
-0.00297976
-0.00235133
-0.00179529
-0.00132795
-0.000897545
-0.000574599
-0.000269672
-4.83088e-05
0.000103272
0.000226858
0.00022999
0.000156264
2.00975e-05
-0.0165353
-0.0180079
-0.0193423
-0.0201533
-0.020647
-0.020878
-0.0207321
-0.0206279
-0.0204594
-0.0202426
-0.0202991
-0.020093
-0.0197194
-0.0194647
-0.0190254
-0.0187093
-0.0184119
-0.017848
-0.0173356
-0.0165029
-0.0154197
-0.015076
-0.0149457
-0.0139784
-0.0128338
-0.0123225
-0.0120124
-0.011461
-0.0108498
-0.0102598
-0.00940102
-0.0084552
-0.00740797
-0.00638187
-0.00539664
-0.00448689
-0.00364408
-0.00289607
-0.00221996
-0.00162712
-0.0011199
-0.000661319
-0.000311231
1.49692e-05
0.00025046
0.00041309
0.000551682
0.000566696
0.000486042
0.000269036
-0.0138283
-0.0150692
-0.0162021
-0.0169074
-0.0174069
-0.0176727
-0.0176061
-0.0176067
-0.0175106
-0.0173856
-0.0175245
-0.0173911
-0.0171337
-0.0169907
-0.0166887
-0.0165438
-0.0163949
-0.0160002
-0.0156558
-0.0149608
-0.0140716
-0.0139418
-0.0139589
-0.013143
-0.0122102
-0.0119455
-0.011924
-0.0116768
-0.0112503
-0.010696
-0.0100636
-0.00908644
-0.00802131
-0.00695152
-0.00592118
-0.00497405
-0.00410319
-0.003331
-0.00264179
-0.00202932
-0.00152281
-0.00104376
-0.000699144
-0.000361377
-0.000118266
2.56878e-05
0.000172817
0.000149903
9.42513e-05
-1.2406e-05
-0.0114855
-0.0125316
-0.0134774
-0.0140784
-0.0145613
-0.0148275
-0.0148171
-0.0149092
-0.0148788
-0.0148401
-0.0150353
-0.0149318
-0.0147527
-0.0146991
-0.0145214
-0.0145367
-0.014539
-0.0143173
-0.01412
-0.01354
-0.0128424
-0.0129181
-0.0130504
-0.0123345
-0.0115478
-0.0113972
-0.0114107
-0.0112094
-0.0109509
-0.010601
-0.009683
-0.00865642
-0.0075316
-0.00644518
-0.00540329
-0.00445085
-0.00356064
-0.00278231
-0.00206632
-0.00145014
-0.00091905
-0.000432818
-8.29402e-05
0.000281812
0.00050594
0.000692552
0.000831253
0.000807816
0.000673951
0.000349989
-0.00951243
-0.010389
-0.0111639
-0.0116868
-0.0121543
-0.0124056
-0.0124255
-0.0125434
-0.0125206
-0.012539
-0.0127701
-0.0127028
-0.0125873
-0.0125595
-0.0124516
-0.0125747
-0.0126652
-0.0125727
-0.0124922
-0.012014
-0.0115341
-0.011835
-0.0120778
-0.011513
-0.0110084
-0.0112148
-0.0116183
-0.0117411
-0.0116009
-0.0113837
-0.0104668
-0.00935406
-0.00819315
-0.00705182
-0.00596914
-0.00499227
-0.00409349
-0.0033139
-0.00260775
-0.00199455
-0.00148583
-0.000998345
-0.000669443
-0.000320841
-9.16744e-05
3.24149e-05
0.000193681
0.000152533
0.000107408
7.97319e-06
-0.00784347
-0.00856385
-0.00918409
-0.00964414
-0.0101085
-0.0103503
-0.0104295
-0.0106009
-0.0105772
-0.0106317
-0.0108592
-0.0107994
-0.0107515
-0.0107454
-0.0106832
-0.0108723
-0.0109915
-0.0109593
-0.0109167
-0.0104573
-0.0100841
-0.0104569
-0.0106812
-0.0101385
-0.00971306
-0.00988839
-0.0101695
-0.0102494
-0.010112
-0.00934955
-0.00889721
-0.00800972
-0.0069494
-0.0058879
-0.00486576
-0.00394211
-0.0030705
-0.00233823
-0.00162846
-0.00106627
-0.000537808
-8.36661e-05
0.00023436
0.000623171
0.000771842
0.000988594
0.00107367
0.000965882
0.000828154
0.000397612
-0.00645329
-0.00700263
-0.00746997
-0.00786607
-0.00829817
-0.00854732
-0.00869606
-0.00890537
-0.00890769
-0.00897765
-0.00914533
-0.00907069
-0.00906449
-0.00909756
-0.00912499
-0.00939567
-0.00959086
-0.00964011
-0.00961568
-0.00926878
-0.00918004
-0.00971198
-0.00994367
-0.00959904
-0.00962222
-0.0103221
-0.011034
-0.0112843
-0.0110904
-0.0107118
-0.00972886
-0.00856093
-0.00737519
-0.00624401
-0.00521969
-0.00430975
-0.00348355
-0.00279225
-0.00213083
-0.0016143
-0.00111213
-0.000706884
-0.000383959
-7.09622e-05
9.36939e-05
0.000244783
0.000321873
0.000294801
0.000262648
7.34975e-05
-0.00545239
-0.00584862
-0.00619341
-0.00653717
-0.00691151
-0.00710866
-0.0072905
-0.00748482
-0.00747063
-0.00757413
-0.00769479
-0.00761721
-0.007609
-0.00756048
-0.0075907
-0.00783139
-0.0079305
-0.00798229
-0.00790463
-0.00746427
-0.00736615
-0.00785573
-0.00797041
-0.0075697
-0.00752074
-0.00801142
-0.00869046
-0.00924673
-0.00945387
-0.00891493
-0.00805333
-0.0069088
-0.00583431
-0.004755
-0.00387091
-0.00300968
-0.00229448
-0.00166697
-0.00102767
-0.000638535
-5.02576e-05
0.000172634
0.000611224
0.000840897
0.000967346
0.00121076
0.00107502
0.00103154
0.00085322
0.000348607
-0.00471031
-0.00501305
-0.00530993
-0.00565175
-0.00599935
-0.0061897
-0.00636985
-0.00652731
-0.00651384
-0.00660954
-0.00671767
-0.00668853
-0.00670168
-0.0066518
-0.00669485
-0.00694212
-0.00709497
-0.00717664
-0.00709932
-0.00678947
-0.00680736
-0.00719643
-0.00732628
-0.00739004
-0.00810261
-0.00916463
-0.00983343
-0.00983775
-0.00942822
-0.00857624
-0.00754236
-0.00639713
-0.00544257
-0.00445596
-0.00376404
-0.00295091
-0.00245669
-0.00180548
-0.00139391
-0.000939868
-0.000455153
-0.000263857
0.00028324
0.000254267
0.000588752
0.000651718
0.000516807
0.000632874
0.000419533
0.000108797
-0.0041888
-0.00445113
-0.00470478
-0.00494957
-0.00533192
-0.00556828
-0.00572516
-0.00585291
-0.00583027
-0.00586089
-0.00587854
-0.00581228
-0.00581123
-0.00579864
-0.00574348
-0.00576882
-0.005902
-0.00587037
-0.00543338
-0.00499885
-0.00503327
-0.00506347
-0.00462581
-0.00415185
-0.00441035
-0.00551782
-0.00697225
-0.00782317
-0.00780728
-0.0069922
-0.00610625
-0.00492612
-0.00425787
-0.00324179
-0.00289254
-0.00200432
-0.00177513
-0.00106082
-0.000721683
-0.000348712
0.000231692
0.000180329
0.000897011
0.000655701
0.00107487
0.00110003
0.000843287
0.00107224
0.000647926
0.000180225
-0.11569
-0.134249
-0.145789
-0.172344
-0.195598
-0.21607
-0.260462
-0.281793
-0.33319
-0.373858
-0.109596
-0.12604
-0.136481
-0.159035
-0.181657
-0.194793
-0.231074
-0.247442
-0.276913
-0.310642
-0.102575
-0.115923
-0.124754
-0.144263
-0.161163
-0.17081
-0.197449
-0.211374
-0.231756
-0.262785
-0.0959185
-0.107208
-0.114349
-0.130192
-0.142627
-0.152278
-0.172568
-0.186993
-0.205431
-0.229562
-0.08894
-0.0983037
-0.103694
-0.116165
-0.127114
-0.136979
-0.15312
-0.166911
-0.180571
-0.198338
-0.0823322
-0.0899098
-0.0944689
-0.104325
-0.113998
-0.123156
-0.135003
-0.145603
-0.156266
-0.170696
-0.0755854
-0.0816734
-0.0858073
-0.0932112
-0.101423
-0.109359
-0.117968
-0.126718
-0.136262
-0.14833
-0.0692169
-0.0739841
-0.0776987
-0.083297
-0.0900947
-0.096904
-0.103888
-0.111311
-0.119439
-0.129304
-0.0630972
-0.0667274
-0.0699743
-0.0743683
-0.0799679
-0.0858117
-0.0916348
-0.0976506
-0.104173
-0.112215
-0.0573091
-0.0600997
-0.0627771
-0.0663369
-0.0709215
-0.0757303
-0.0804588
-0.0852144
-0.0904236
-0.0971887
-0.0518556
-0.0539698
-0.056056
-0.0589366
-0.0626459
-0.0664826
-0.0703119
-0.0742008
-0.078576
-0.0843593
-0.0467343
-0.0483162
-0.0498442
-0.0521561
-0.0551512
-0.0582272
-0.0614318
-0.0647419
-0.0684302
-0.0732293
-0.0419497
-0.0431065
-0.0441781
-0.0460216
-0.0484522
-0.0509661
-0.0536669
-0.0564016
-0.0593556
-0.0632881
-0.0375054
-0.0383375
-0.0390566
-0.0405117
-0.0424591
-0.0444794
-0.0466859
-0.0488487
-0.0512458
-0.0545882
-0.033385
-0.0339585
-0.0344114
-0.0355392
-0.0370486
-0.0386516
-0.0404566
-0.0422191
-0.0442604
-0.047117
-0.0295742
-0.0299445
-0.0301982
-0.0310627
-0.0322192
-0.0335062
-0.0350096
-0.036464
-0.0381864
-0.0405797
-0.0260581
-0.026279
-0.0263866
-0.0270554
-0.0279357
-0.0289786
-0.0302319
-0.0314161
-0.0328475
-0.0348323
-0.0228317
-0.022944
-0.0229508
-0.0234743
-0.0241471
-0.0249924
-0.0260025
-0.0269238
-0.0281098
-0.0297812
-0.0198741
-0.0199198
-0.01987
-0.0202799
-0.0207717
-0.0214329
-0.022229
-0.0229728
-0.0240241
-0.0254603
-0.0171707
-0.0171744
-0.0170905
-0.0174058
-0.0177626
-0.0183039
-0.0189538
-0.0195755
-0.0204985
-0.021682
-0.0147114
-0.0146937
-0.014603
-0.0148561
-0.0151285
-0.0155802
-0.016078
-0.0165643
-0.0173633
-0.0183402
-0.0124899
-0.0124667
-0.0123884
-0.0125924
-0.0128006
-0.0131737
-0.0135335
-0.0139301
-0.0146562
-0.0154665
-0.010498
-0.0104701
-0.0104044
-0.010562
-0.0107325
-0.0110604
-0.0113226
-0.0116717
-0.0123339
-0.0129774
-0.00874468
-0.00872223
-0.00867496
-0.00879278
-0.00894526
-0.00922531
-0.00938803
-0.00969853
-0.0102932
-0.0107964
-0.00720231
-0.00719524
-0.00717347
-0.00725769
-0.00741182
-0.00765495
-0.00773928
-0.0080338
-0.00856183
-0.00894376
-0.00584486
-0.00585176
-0.00584995
-0.00591109
-0.00608846
-0.00630167
-0.00634386
-0.00664131
-0.00709386
-0.00737509
-0.00474812
-0.00476752
-0.00476642
-0.00480071
-0.00499613
-0.00518104
-0.00521347
-0.00551465
-0.00587363
-0.00607129
-0.00387775
-0.00392469
-0.00392082
-0.00395814