/*--------------------------------*- C++ -*----------------------------------*\
| =========                 |                                                 |
| \\      /  F ield         | OpenFOAM: The Open Source CFD Toolbox           |
|  \\    /   O peration     | Version:  2312                                  |
|   \\  /    A nd           | Website:  www.openfoam.com                      |
|    \\/     M anipulation  |                                                 |
\*---------------------------------------------------------------------------*/
FoamFile
{
    version     2.0;
    format      ascii;
    arch        "LSB;label=32;scalar=64";
    class       surfaceScalarField;
    location    "18.5";
    object      phi;
}
// * * * * * * * * * * * * * * * * * * * * * * * * * * * * * * * * * * * * * //

dimensions      [0 3 -1 0 0 0 0];

oriented        oriented;

internalField   nonuniform List<scalar> 
10785
(
-3.95381e-05
0.00240402
-0.00236448
0.00125439
0.00549222
-0.00678614
0.00456518
0.00598922
-0.00930002
0.0105646
0.00317973
-0.00917919
0.0204256
-0.00363258
-0.00622835
0.0354237
-0.0145619
-0.000436236
0.0564215
-0.0292267
0.00822892
0.0834869
-0.0466533
0.019588
0.115532
-0.0658216
0.0337767
0.151364
-0.0855255
0.0496933
0.18805
-0.105026
0.0683396
0.225144
-0.123347
0.0862526
0.256685
-0.140246
0.108705
0.28562
-0.153531
0.124596
-0.167076
0.152146
0.300549
-0.000614335
0.00301836
0.000177154
0.00470073
0.00409797
0.0020684
0.0131281
-0.0058504
0.0289447
-0.0194492
0.0520572
-0.0376744
0.0813162
-0.0584856
0.114498
-0.0798356
0.148739
-0.100062
0.181405
-0.118192
0.210055
-0.133675
0.233055
-0.146347
0.249413
-0.156604
0.260899
-0.165017
-0.173082
0.266906
-0.000404547
0.0034229
0.00155495
0.00274123
0.00876423
-0.00514088
0.023786
-0.0208721
0.0469974
-0.0426606
0.0761114
-0.0667885
0.107492
-0.0898658
0.13748
-0.109823
0.163318
-0.1259
0.183462
-0.138336
0.197724
-0.147938
0.207382
-0.156004
0.214781
-0.164002
0.221974
-0.172211
-0.182604
0.231496
0.00035873
0.00306417
0.00488327
-0.00178331
0.0173331
-0.0175907
0.0388195
-0.0423585
0.0661777
-0.0700189
0.0944628
-0.0950735
0.119503
-0.114906
0.139057
-0.129378
0.152937
-0.13978
0.162591
-0.147991
0.170282
-0.155629
0.178199
-0.163921
0.186942
-0.172746
0.197096
-0.182365
-0.192088
0.20658
0.00137182
0.00169236
0.00953752
-0.00994901
0.0276088
-0.035662
0.0524528
-0.0672024
0.077753
-0.0953191
0.0988313
-0.116152
0.114118
-0.130193
0.124576
-0.139836
0.1324
-0.147604
0.139544
-0.155134
0.146994
-0.163079
0.154405
-0.171332
0.161382
-0.179723
0.167467
-0.18845
-0.197192
0.172571
0.00268028
-0.000987926
0.0150602
-0.022329
0.0365579
-0.0571597
0.0595354
-0.0901799
0.0782041
-0.113988
0.0911405
-0.129088
0.0997999
-0.138852
0.106353
-0.146389
0.112185
-0.153435
0.117674
-0.160623
0.122656
-0.168061
0.127205
-0.175882
0.131678
-0.184196
0.136381
-0.193153
-0.202619
0.141809
0.00437785
-0.00536578
0.0202131
-0.0381642
0.041046
-0.0779927
0.0586416
-0.107775
0.0705812
-0.125928
0.0781454
-0.136652
0.083358
-0.144065
0.0874853
-0.150516
0.0910533
-0.157003
0.0943122
-0.163882
0.0975401
-0.171289
0.100886
-0.179228
0.104269
-0.187579
0.107503
-0.196387
-0.205232
0.110116
0.00633666
-0.0117024
0.0233385
-0.055166
0.0403717
-0.095026
0.052259
-0.119663
0.0592871
-0.132956
0.0633705
-0.140736
0.0660303
-0.146725
0.0680978
-0.152584
0.0699434
-0.158848
0.0716847
-0.165623
0.0732514
-0.172855
0.0745341
-0.180511
0.075624
-0.188669
0.0765346
-0.197297
0.0777029
-0.2064
-0.00501121
0.000648614
0.0043626
-0.0138863
0.00155717
0.00731796
-0.0243874
0.00236339
0.00813767
-0.0358282
0.00318749
0.00825327
-0.0480886
0.0041179
0.00814253
-0.0611345
0.00516532
0.00788057
-0.0749157
0.00630923
0.00747203
-0.0893681
0.00752374
0.00692867
-0.104413
0.00877613
0.00626901
-0.119958
0.0100264
0.00551872
-0.135884
0.011219
0.00470641
-0.152013
0.0122713
0.00385785
-0.168131
0.0131069
0.00301087
-0.18407
0.0136896
0.0022497
0.014102
-0.199839
0.00166697
-0.00445727
0.00510589
-0.0125355
0.00963535
-0.0221582
0.0119861
-0.0325823
0.0136116
-0.0436027
0.0151383
-0.0551215
0.0166841
-0.0670291
0.0182168
-0.0791982
0.0196929
-0.0914812
0.0210591
-0.103705
0.0222505
-0.115695
0.0232085
-0.127242
0.0238181
-0.138036
0.0239009
-0.147986
0.0236396
0.0222905
-0.156174
-0.00275971
0.0078656
-0.00841126
0.0152869
-0.0154475
0.0190223
-0.022999
0.0211631
-0.0306356
0.0227749
-0.0381159
0.0241644
-0.0452258
0.0253268
-0.0517371
0.0262041
-0.0574134
0.0267354
-0.0619841
0.0268211
-0.0650855
0.0263099
-0.066784
0.0255166
-0.0658775
0.0229944
-0.0635642
0.0213264
0.0163584
-0.0576321
-0.000632435
0.00849803
-0.00297346
0.0176279
-0.00646251
0.0225114
-0.0102505
0.0249511
-0.0136709
0.0261953
-0.0162947
0.0267882
-0.0178112
0.0268432
-0.0179322
0.0263251
-0.0163302
0.0251335
-0.0129369
0.0234277
-0.00690037
0.0202734
0.00119969
0.0174165
0.0126568
0.0115373
0.0268049
0.00717823
-0.00123617
0.0443995
0.00116303
0.00733501
0.00210175
0.0166892
0.00242721
0.0221859
0.00264965
0.0247287
0.00349487
0.0253501
0.00555277
0.0247303
0.00925654
0.0231394
0.0148611
0.0207206
0.0228658
0.0171287
0.0329622
0.0133313
0.0465976
0.00663806
0.0618305
0.00218361
0.0825766
-0.00920877
0.104502
-0.0147473
-0.0314672
0.134733
0.00204672
0.00528828
0.00527635
0.0134596
0.00876945
0.0186928
0.0125669
0.0209312
0.0171593
0.0207577
0.0230992
0.0187904
0.030847
0.0153916
0.0406634
0.0109042
0.0530386
0.00475353
0.0676492
-0.00127928
0.0865861
-0.0122988
0.10778
-0.0190098
0.135742
-0.0371713
0.164798
-0.0438032
-0.0698853
0.203216
0.00189776
0.00339052
0.00572426
0.0096331
0.0106714
0.0137457
0.0165078
0.0150948
0.023397
0.0138686
0.0317133
0.010474
0.0419028
0.00520213
0.0545165
-0.00170949
0.0704368
-0.0111668
0.0904556
-0.021298
0.114545
-0.0363879
0.143983
-0.0484485
0.17824
-0.0714282
0.217274
-0.0828367
-0.1131
0.260488
0.00102604
0.00387299
0.00831871
0.0142343
0.0218745
0.0319123
0.0453434
0.0632219
0.0858318
0.114227
0.146179
0.183983
0.221259
0.263019
0.302066
-0.205338
0.00327754
0.00222131
-0.199081
-0.00740996
0.00115292
-0.185751
-0.011664
-0.0016654
-0.160721
-0.0243131
-0.000717821
-0.125519
-0.0246469
-0.0105546
-0.0758747
-0.0240423
-0.025602
-0.0132339
-0.0173521
-0.0452887
0.048954
-0.00362222
-0.0585657
0.104225
0.0100159
-0.0652872
0.14797
0.0189743
-0.0627194
0.180664
0.025682
-0.0583758
0.204561
0.0295674
-0.0534645
0.222189
0.0342803
-0.0519084
0.235378
0.0351451
-0.048334
0.245131
0.0413988
-0.051152
0.252607
0.037845
-0.0453202
0.258328
0.0494155
-0.055137
0.263197
0.037993
-0.0428616
0.267105
0.059192
-0.0630999
0.270501
0.037143
-0.0405395
0.273139
0.065079
-0.0677169
0.274916
0.0428133
-0.0445901
0.27639
0.0576712
-0.0591451
0.276791
0.0651139
-0.0655153
0.277121
0.0421721
-0.0425018
0.277182
0.0824227
-0.082484
0.276361
0.0619327
-0.0611119
0.276176
0.0567917
-0.056606
0.275672
0.104931
-0.104427
0.274158
0.0810475
-0.0795336
0.27367
0.0594288
-0.0589408
0.273273
0.139194
-0.138797
0.271472
0.137739
-0.135937
0.269761
0.0856395
-0.0839284
0.269234
0.105046
-0.10452
0.269064
0.205694
-0.205524
0.267276
0.326837
-0.325049
0.172352
-0.169886
-0.164186
0.0112898
-0.162507
-0.00908986
-0.152404
-0.0217662
-0.13605
-0.0406672
-0.106937
-0.0537601
-0.0651626
-0.0658165
-0.0113685
-0.0711462
0.0444308
-0.0594216
0.0952408
-0.040794
0.13636
-0.022145
0.167464
-0.00542232
0.190842
0.0061902
0.208577
0.0165449
0.222357
0.0213654
0.233142
0.030613
0.241998
0.0289896
0.249372
0.0420417
0.256036
0.0313292
0.261744
0.0534839
0.266674
0.032213
0.270579
0.061174
0.273137
0.0402551
0.275212
0.0555958
0.275875
0.0644515
0.276405
0.0416419
0.276639
0.0821884
0.275817
0.0627548
0.27579
0.0568188
0.275386
0.105335
0.273847
0.0825866
0.273518
0.0597575
0.273268
0.139444
0.271447
0.13956
0.269789
0.0872977
0.269425
0.105409
0.269364
0.205756
0.267542
0.328659
0.174782
-0.0614648
0.0151226
-0.063187
-0.0073677
-0.0555689
-0.0293842
-0.0442869
-0.0519493
-0.0234678
-0.0745792
0.0083571
-0.0976414
0.0479531
-0.110742
0.0914384
-0.102907
0.130724
-0.0800792
0.162052
-0.0534736
0.185803
-0.029173
0.203246
-0.0112532
0.216207
0.00358382
0.226197
0.0113757
0.234046
0.0227643
0.240767
0.0222683
0.246722
0.0360866
0.252606
0.0254454
0.258072
0.0480174
0.263051
0.0272347
0.267247
0.0569778
0.270026
0.0374759
0.272432
0.0531901
0.273278
0.063605
0.274016
0.0409036
0.274494
0.0817109
0.273767
0.0634815
0.273991
0.0565948
0.273798
0.105528
0.272365
0.0840199
0.272304
0.0598179
0.27232
0.139429
0.27063
0.14125
0.269178
0.08875
0.269114
0.105473
0.269302
0.205568
0.267612
0.330348
0.176999
0.0396714
0.0198507
0.0364475
-0.00414384
0.0384331
-0.0313699
0.0458781
-0.0593942
0.0606379
-0.089339
0.083417
-0.120421
0.112603
-0.139928
0.143476
-0.13378
0.171264
-0.107867
0.193873
-0.0760822
0.211107
-0.0464071
0.223387
-0.0235335
0.231907
-0.00493595
0.237975
0.00530735
0.242329
0.0184107
0.245853
0.0187441
0.248973
0.0329667
0.252486
0.0219324
0.256158
0.0443453
0.25987
0.0235232
0.263383
0.0534649
0.265762
0.0350969
0.268168
0.0507842
0.269071
0.0627019
0.270001
0.0399735
0.270778
0.0809334
0.270232
0.064028
0.270797
0.0560297
0.270927
0.105399
0.269721
0.0852254
0.270037
0.0595022
0.27044
0.139025
0.269028
0.142662
0.267929
0.0898493
0.2683
0.105103
0.268879
0.204988
0.267489
0.331739
0.178829
0.12805
0.0265342
0.122338
0.00156737
0.11874
-0.0277712
0.119181
-0.0598358
0.126011
-0.0961683
0.140055
-0.134465
0.15767
-0.157544
0.175622
-0.151731
0.192184
-0.124429
0.206682
-0.0905806
0.21877
-0.0584944
0.228427
-0.0331912
0.235749
-0.0122573
0.241179
-0.000123313
0.244862
0.0147282
0.247445
0.0161609
0.249154
0.0312576
0.251077
0.0200099
0.253193
0.042229
0.255573
0.021143
0.258225
0.0508132
0.260023
0.0332985
0.262322
0.0484854
0.263247
0.061777
0.264386
0.038834
0.26553
0.0797894
0.265247
0.0643116
0.26624
0.0550363
0.266805
0.104834
0.26594
0.0860905
0.266736
0.0587059
0.267652
0.138109
0.266659
0.143655
0.266052
0.0904567
0.266988
0.104167
0.268105
0.203872
0.267178
0.332666
0.180103
0.196844
0.0329065
0.189427
0.0089846
0.18353
-0.0218741
0.180417
-0.0567231
0.179988
-0.0957396
0.182116
-0.136592
0.185777
-0.161205
0.18981
-0.155764
0.195153
-0.129773
0.202669
-0.0980962
0.210886
-0.0667119
0.218872
-0.0411777
0.22582
-0.0192051
0.23188
-0.00618256
0.236558
0.0100496
0.240218
0.0125011
0.2426
0.0288751
0.244706
0.0179039
0.24659
0.0403455
0.248552
0.0191811
0.25087
0.0484953
0.252393
0.0317748
0.254744
0.0461349
0.255786
0.0607352
0.257209
0.0374107
0.2588
0.0781982
0.258862
0.0642493
0.260368
0.0535311
0.261479
0.103723
0.261057
0.0865125
0.262434
0.0573287
0.263989
0.136554
0.263548
0.144096
0.263561
0.0904435
0.265191
0.102537
0.26699
0.202072
0.266689
0.332967
0.180662
0.253907
0.039487
0.244439
0.0184533
0.233922
-0.0113574
0.22414
-0.046941
0.215757
-0.0873562
0.204638
-0.125474
0.194373
-0.15094
0.188111
-0.149502
0.187083
-0.128745
0.190661
-0.101674
0.19687
-0.0729211
0.204152
-0.0484595
0.211269
-0.0263229
0.218033
-0.0129466
0.223628
0.00445473
0.22848
0.00764974
0.231787
0.0255679
0.234588
0.0151027
0.236816
0.0381179
0.23887
0.0171263
0.241313
0.0460526
0.242827
0.0302609
0.245454
0.043508
0.246731
0.0594585
0.248524
0.035617
0.250664
0.0760583
0.251145
0.0637685
0.253238
0.0514379
0.255013
0.101948
0.255124
0.0864014
0.257172
0.0552803
0.259495
0.134231
0.25973
0.143861
0.260479
0.0896945
0.262924
0.100092
0.265554
0.199442
0.266035
0.332486
0.180357
0.295285
0.0462684
0.283896
0.0298424
0.27034
0.00219804
0.25394
-0.0305412
0.235334
-0.0687496
0.214548
-0.104688
0.191907
-0.128299
0.176193
-0.133788
0.17017
-0.122722
0.172017
-0.10352
0.178735
-0.0796393
0.187071
-0.0567955
0.195083
-0.0343352
0.202393
-0.0202562
0.208541
-0.00169386
0.214151
0.00204002
0.218413
0.0213059
0.22203
0.0114857
0.224769
0.0353785
0.227165
0.0147309
0.229876
0.0433415
0.231615
0.0285222
0.234596
0.0405268
0.236251
0.0578034
0.238464
0.0334038
0.241215
0.0733072
0.242214
0.0627699
0.244938
0.0487136
0.247473
0.0994132
0.248221
0.0856536
0.25101
0.0524911
0.254213
0.131029
0.255248
0.142826
0.256841
0.0881023
0.26021
0.096722
0.263811
0.195842
0.265228
0.331068
0.179052
0.518645
0.0462036
-0.51858
0.520805
0.0276818
0.517062
0.00594074
0.509278
-0.0227569
0.493385
-0.052856
0.469762
-0.0810658
0.441022
-0.099559
0.413974
-0.10674
0.393078
-0.101826
0.378204
-0.0886457
0.368869
-0.0703048
0.364394
-0.0523206
0.36323
-0.0331706
0.363971
-0.0209977
0.366394
-0.00411708
0.369209
-0.000774755
0.371997
0.0185182
0.374408
0.00907485
0.376203
0.0335836
0.377477
0.0134565
0.378343
0.0424754
0.379452
0.0274137
0.380078
0.0399001
0.381245
0.0566364
0.382177
0.0324723
0.382834
0.0726498
0.384008
0.061596
0.384697
0.048025
0.385102
0.0990082
0.386097
0.0846586
0.386816
0.0517716
0.387084
0.130761
0.387582
0.142328
0.38843
0.0872545
0.389401
0.0957512
0.390358
0.194885
0.390502
0.330924
0.179387
0.544444
0.0434638
-0.541705
0.544767
0.0273592
0.542978
0.00772951
0.534112
-0.013891
0.518077
-0.0368201
0.495642
-0.0586311
0.471184
-0.0751013
0.448107
-0.0836625
0.429243
-0.0829626
0.415596
-0.0749983
0.407321
-0.0620298
0.403429
-0.0484282
0.402644
-0.0323864
0.403277
-0.0216298
0.404451
-0.00529128
0.406038
-0.00236192
0.408526
0.0160296
0.410255
0.00734647
0.412138
0.0317001
0.413261
0.0123339
0.414166
0.0415707
0.415196
0.026383
0.415759
0.0393372
0.416914
0.0554821
0.417833
0.0315525
0.418506
0.0719776
0.419772
0.0603297
0.420484
0.0473129
0.420964
0.0985278
0.422087
0.0835355
0.42285
0.051009
0.423157
0.130455
0.423816
0.141668
0.4248
0.0862708
0.425806
0.0947455
0.426825
0.193865
0.427025
0.330723
0.179704
0.573932
0.0390857
-0.569554
0.575713
0.025578
0.573039
0.010403
0.565518
-0.00636982
0.552957
-0.0242588
0.535627
-0.041301
0.515493
-0.0549678
0.495133
-0.0633024
0.477236
-0.0650658
0.463231
-0.060993
0.453118
-0.0519169
0.446804
-0.0421139
0.443575
-0.0291571
0.44253
-0.0205854
0.443476
-0.00623753
0.445141
-0.00402693
0.44696
0.0142109
0.448884
0.00542258
0.450503
0.0300814
0.451804
0.0110325
0.452765
0.0406103
0.453909
0.0252385
0.454584
0.0386625
0.45578
0.0542862
0.456744
0.0305878
0.457519
0.0712027
0.458829
0.0590201
0.45961
0.0465314
0.460229
0.0979096
0.461418
0.0823463
0.462257
0.0501695
0.462685
0.130027
0.463487
0.140867
0.464563
0.0851951
0.46564
0.0936682
0.466779
0.192726
0.467073
0.330429
0.17999
0.607948
0.0350802
-0.603942
0.608015
0.0255106
0.604941
0.0134768
0.598758
-0.000186686
0.588008
-0.0135087
0.573344
-0.0266365
0.556271
-0.0378955
0.53895
-0.0459809
0.523259
-0.0493753
0.510478
-0.0482121
0.501018
-0.0424564
0.494645
-0.0357405
0.490973
-0.0254858
0.489493
-0.019105
0.489259
-0.00600374
0.489751
-0.00451917
0.491192
0.0127701
0.492422
0.00419315
0.493714
0.0287886
0.494676
0.0100707
0.495482
0.0398043
0.496452
0.0242684
0.49717
0.0379448
0.498307
0.053149
0.499332
0.029563
0.500236
0.0702986
0.501522
0.0577346
0.502437
0.0456159
0.503233
0.0971136
0.504407
0.0811722
0.505374
0.049203
0.506031
0.12937
0.506929
0.139968
0.508043
0.0840809
0.509259
0.0924526
0.51063
0.191355
0.511063
0.329996
0.180254
0.644934
0.0322304
-0.642084
0.645509
0.0249355
0.643334
0.0156518
0.637776
0.00537122
0.629333
-0.00506565
0.618023
-0.0153257
0.604583
-0.0244558
0.590232
-0.0316297
0.576285
-0.0354288
0.564145
-0.0360718
0.55444
-0.0327516
0.547163
-0.0284635
0.542197
-0.0205202
0.539221
-0.0161289
0.537706
-0.00448827
0.537469
-0.00428251
0.537963
0.0122762
0.538793
0.00336299
0.539799
0.0277824
0.540776
0.00909386
0.541707
0.0388732
0.542777
0.0231982
0.543706
0.0370166
0.544849
0.0520057
0.545981
0.0284309
0.547009
0.0692702
0.548253
0.0564907
0.549336
0.0445331
0.550317
0.0961324
0.551437
0.0800529
0.552581
0.0480582
0.553548
0.128403
0.554497
0.13902
0.555612
0.082966
0.557062
0.091002
0.558812
0.189605
0.559426
0.329382
0.180519
0.686963
0.0297762
-0.684508
0.687454
0.0244437
0.685488
0.0176177
0.680977
0.00988228
0.674118
0.00179418
0.664826
-0.00603438
0.653573
-0.0132024
0.641254
-0.0193104
0.629004
-0.0231788
0.617974
-0.0250425
0.608799
-0.0235757
0.601679
-0.0213443
0.596557
-0.0153973
0.593257
-0.0128292
0.591663
-0.00289496
0.590901
-0.00352014
0.590955
0.0122219
0.591452
0.00286595
0.591982
0.0272532
0.592579
0.00849606
0.593224
0.0382286
0.594032
0.0223905
0.594933
0.0361148
0.595947
0.0509918
0.59711
0.0272684
0.598238
0.0681418
0.599431
0.0552979
0.600677
0.043287
0.601858
0.0949513
0.602924
0.0789869
0.604274
0.0467087
0.605603
0.127073
0.606593
0.13803
0.607705
0.0818545
0.609484
0.0892233
0.611742
0.187347
0.612578
0.328546
0.180804
0.733975
0.0278535
-0.732052
0.734313
0.0241061
0.732789
0.0191409
0.729278
0.0133942
0.723722
0.00734956
0.716441
0.00124715
0.707594
-0.00435592
0.697791
-0.00950748
0.687725
-0.0131128
0.67815
-0.0154669
0.669687
-0.0151135
0.662711
-0.0143676
0.657176
-0.00986284
0.653162
-0.00881473
0.650111
0.000155782
0.648408
-0.00181702
0.647641
0.0129888
0.647399
0.00310762
0.64767
0.0269827
0.648166
0.00800003
0.64891
0.0374844
0.649741
0.0215592
0.650819
0.0350375
0.651815
0.0499955
0.653056
0.0260271
0.654312
0.0668856
0.655459
0.0541509
0.656881
0.041865
0.658277
0.0935555
0.659305
0.077959
0.660879
0.0451351
0.662609
0.125343
0.663664
0.136974
0.664791
0.0807278
0.66697
0.087044
0.669841
0.184476
0.670954
0.327433
0.181099
0.786335
0.0263696
-0.784851
0.786636
0.023805
0.785488
0.0202894
0.782764
0.0161182
0.778469
0.011644
0.772679
0.00703774
0.765648
0.0026742
0.757562
-0.00142123
0.748948
-0.00449877
0.740435
-0.0069534
0.732616
-0.00729495
0.725916
-0.00766709
0.7205
-0.00444692
0.716318
-0.00463338
0.713547
0.00292743
0.711843
-0.000113062
0.710638
0.0141938
0.710268
0.00347766
0.710072
0.027178
0.710255
0.00781786
0.710682
0.0370569
0.711233
0.0210081
0.712253
0.034018
0.713107
0.0491412
0.714361
0.0247733
0.715714
0.065533
0.716816
0.0530484
0.718426
0.0402549
0.720035
0.0919466
0.721056
0.0769383
0.72288
0.0433109
0.725035
0.123189
0.726192
0.135817
0.727372
0.0795481
0.730011
0.0844051
0.733581
0.180906
0.735048
0.325966
0.181374
0.844502
0.0251741
-0.843307
0.84479
0.0235173
0.843958
0.0211212
0.841914
0.0181622
0.838636
0.0149223
0.834165
0.0115089
0.828621
0.00821804
0.822253
0.00494664
0.815407
0.00234674
0.808437
1.65019e-05
0.801759
-0.000616567
0.795809
-0.00171662
0.790569
0.000792743
0.786279
-0.000343054
0.78295
0.00625566
0.780378
0.00245892
0.778734
0.0158385
0.77773
0.00448149
0.777328
0.0275801
0.777315
0.00783081
0.777752
0.0366201
0.778229
0.0205303
0.779335
0.0329125
0.780142
0.0483337
0.781449
0.0234663
0.782926
0.0640565
0.784007
0.0519673
0.785814
0.0384473
0.787649
0.0901121
0.788701
0.075886
0.790798
0.0412143
0.793404
0.120583
0.794717
0.134504
0.795996
0.0782688
0.799159
0.0812423
0.803512
0.176552
0.805427
0.324052
0.181569
0.909028
0.0242036
-0.908057
0.909316
0.0232285
0.908768
0.0216696
0.907293
0.0196371
0.90486
0.0173552
0.901471
0.0148981
0.897199
0.0124903
0.892193
0.00995214
0.886622
0.00791768
0.88085
0.00578899
0.875092
0.0051409
0.869708
0.00366753
0.864905
0.00559546
0.860932
0.00362992
0.857576
0.00961172
0.855261
0.00477422
0.853371
0.0177281
0.852297
0.00555549
0.851586
0.028292
0.851334
0.00808197
0.851589
0.0363655
0.851825
0.0202947
0.852906
0.0318315
0.85361
0.0476298
0.854917
0.0221587
0.856527
0.062447
0.857588
0.0509062
0.859596
0.0364386
0.861688
0.0880208
0.86281
0.0747632
0.865197
0.0388278
0.868293
0.117487
0.869836
0.13296
0.871276
0.0768294
0.875
0.0775178
0.880253
0.171299
0.88278
0.321525
0.181645
0.980238
0.0233902
-0.979424
0.980555
0.0229114
0.980257
0.0219668
0.979266
0.0206281
0.977539
0.0190829
0.975069
0.0173678
0.971893
0.0156659
0.968083
0.013762
0.963777
0.012224
0.959194
0.0103722
0.9545
0.0098343
0.949994
0.0081744
0.945816
0.00977335
0.942143
0.00730297
0.938964
0.0127901
0.936513
0.00722544
0.934495
0.0197457
0.933199
0.00685152
0.932262
0.0292293
0.931932
0.00841178
0.932058
0.0362397
0.932269
0.0200835
0.933331
0.0307696
0.934009
0.0469521
0.935388
0.0207798
0.937092
0.060743
0.93821
0.0497877
0.940434
0.0342145
0.942774
0.0856815
0.944033
0.0735044
0.946761
0.0360992
0.95036
0.113888
0.952197
0.131123
0.953888
0.0751388
0.958306
0.0730997
0.964483
0.165123
0.967714
0.318294
0.181369
1.05881
0.0226762
-1.0581
1.05919
0.0225317
1.05912
0.0220415
1.05853
0.0212138
1.05739
0.0202222
1.05569
0.0190709
1.05343
0.0179225
1.05067
0.0165248
1.04746
0.0154314
1.04395
0.013885
1.04025
0.0135365
1.03657
0.0118508
1.03302
0.0133213
1.02983
0.0105005
1.02693
0.0156849
1.02466
0.00949606
1.02277
0.0216409
1.02146
0.00815972
1.02058
0.0301068
1.02004
0.00894747
1.02024
0.0360474
1.02021
0.0201119
1.02135
0.0296285
1.02199
0.046315
1.02333
0.0194377
1.02529
0.0587821
1.02639
0.0486911
1.02884
0.0317574
1.03157
0.0829553
1.03295
0.0721238
1.03599
0.0330604
1.04027
0.109602
1.0425
0.128896
1.04445
0.073195
1.04953
0.0680156
1.05702
0.157629
1.06138
0.313937
0.18091
1.14487
0.0219433
-1.14414
1.14534
0.0220627
1.1455
0.0218788
1.14529
0.0214285
1.14465
0.0208571
1.14358
0.0201379
1.14209
0.0194171
1.1402
0.018417
1.13794
0.0176912
1.1354
0.0164206
1.13265
0.0162873
1.12987
0.0146328
1.12708
0.0161091
1.12456
0.0130251
1.12213
0.0181113
1.12026
0.0113623
1.1185
0.0234041
1.11746
0.0092032
1.11649
0.0310745
1.11622
0.009218
1.11629
0.0359791
1.11647
0.019927
1.11759
0.0285063
1.11829
0.0456224
1.11983
0.0178911
1.12185
0.0567632
1.12316
0.0473829
1.12589
0.0290296
1.1289
0.0799409
1.13055
0.0704796
1.1341
0.0295079
1.13894
0.10476
1.14161
0.126225
1.14405
0.0707572
1.15018
0.0618817
1.15866
0.149156
1.16417
0.308423
0.179431
1.23957
0.0211987
-1.23882
1.2402
0.0214298
1.24062
0.0214615
1.24077
0.021273
1.24063
0.0210002
1.24018
0.0205915
1.23941
0.0201835
1.23834
0.0194886
1.23697
0.0190625
1.23535
0.0180406
1.23351
0.0181286
1.23157
0.01657
1.22957
0.0181118
1.22768
0.0149118
1.22584
0.0199474
1.22434
0.0128661
1.22303
0.0247148
1.22211
0.010123
1.22154
0.0316433
1.22111
0.00964766
1.22147
0.0356185
1.22144
0.0199633
1.22272
0.02722
1.2235
0.0448422
1.22494
0.0164486
1.2274
0.0543057
1.22876
0.0460243
1.23168
0.026105
1.23534
0.07629
1.23723
0.0685824
1.24094
0.0258036
1.24686
0.0988331
1.25022
0.122865
1.25292
0.0680647
1.25971
0.0550931
1.27021
0.138648
1.27778
0.300857
0.177701
1.34199
0.0202343
-1.34103
1.34282
0.0206011
1.34352
0.0207589
1.34406
0.0207393
1.34439
0.0206672
1.34451
0.0204725
1.34441
0.0202869
1.34408
0.0198159
1.34352
0.0196197
1.34276
0.0188023
1.34181
0.0190821
1.34076
0.0176126
1.3396
0.0192746
1.33853
0.0159805
1.3374
0.0210824
1.33662
0.0136451
1.33573
0.0255995
1.33542
0.0104335
1.335
0.0320649
1.33522
0.00942602
1.33565
0.0351898
1.33618
0.0194321
1.33757
0.0258312
1.33862
0.0437946
1.34044
0.0146282
1.34304
0.0517016
1.34479
0.0442798
1.34813
0.022765
1.35219
0.0722281
1.3545
0.0662729
1.359
0.0213014
1.36557
0.092267
1.36963
0.118805
1.37315
0.064544
1.38136
0.046885
1.39296
0.127046
1.40306
0.290756
0.173461
1.45524
0.0190739
-1.45408
1.45642
0.0194241
1.45753
0.0196494
1.45853
0.0197351
1.4594
0.0198008
1.46011
0.0197622
1.46066
0.019737
1.46104
0.0194401
1.46124
0.0194212
1.46128
0.0187571
1.46117
0.019197
1.46093
0.0178527
1.4606
0.0195969
1.46028
0.016299
1.4599
0.0214632
1.45962
0.0139289
1.45948
0.0257374
1.45958
0.0103362
1.46001
0.0316343
1.46025
0.00918226
1.46112
0.0343266
1.46142
0.0191337
1.46289
0.0243613
1.46422
0.0424568
1.46584
0.0130105
1.46914
0.0484018
1.47117
0.042251
1.4746
0.0193307
1.47966
0.0671695
1.4825
0.0634307
1.48684
0.0169696
1.49496
0.0841393
1.50019
0.11358
1.50401
0.0607179
1.51277
0.0381263
1.52706
0.112758
1.54053
0.277286
0.168565
1.57549
0.0172854
-1.5737
1.57722
0.0176895
1.57892
0.0179525
1.58055
0.0181061
1.58211
0.0182448
1.58356
0.0183089
1.58491
0.0183885
1.58613
0.0182149
1.58723
0.0183224
1.58815
0.0178361
1.58898
0.0183707
1.58967
0.0171612
1.59031
0.018962
1.59077
0.0158342
1.59138
0.0208578
1.59195
0.0133565
1.59274
0.0249471
1.59332
0.00975364
1.59442
0.0305372
1.59523
0.00837366
1.59684
0.032719
1.59781
0.0181596
1.59959
0.0225799
1.60163
0.0404126
1.60339
0.0112586
1.60737
0.0444187
1.60995
0.0396669
1.61373
0.0155536
1.61973
0.0611747
1.62347
0.059683
1.62817
0.0122698
1.63729
0.0750189
1.64456
0.106315
1.64919
0.056091
1.65806
0.0292556
1.67364
0.097173
1.69468
0.256247
0.157425
1.71084
0.0151387
-1.7087
1.71307
0.0154612
1.71532
0.0157011
1.71757
0.0158561
1.71974
0.0160833
1.72179
0.0162559
1.72381
0.0163716
1.72565
0.0163719
1.72743
0.0165418
1.72918
0.0160895
1.73079
0.0167578
1.73204
0.0159098
1.7336
0.0173977
1.73506
0.0143753
1.73653
0.0193952
1.73706
0.012823
1.73878
0.0232212
1.74053
0.00800858
1.74398
0.0270828
1.74518
0.00717957
1.74702
0.0308736
1.74709
0.0180908
1.74832
0.0213482
1.75094
0.0377947
1.75248
0.00971638
1.75768
0.0392186
1.76112
0.0362339
1.7649
0.0117682
1.77221
0.0538665
1.77709
0.0548027
1.78123
0.00812834
1.79206
0.0641922
1.80124
0.0971311
1.80666
0.0506762
1.81595
0.0199614
1.83382
0.0793024
1.8601
0.229974
0.143704
1.85109
0.0115086
-1.84746
1.85467
0.0118865
1.85822
0.0121491
1.86176
0.0123169
1.86514
0.0127008
1.86835
0.0130434
1.87152
0.0132035
1.87442
0.0134704
1.87721
0.0137497
1.88005
0.0132526
1.88276
0.0140524
1.88471
0.0139551
1.88745
0.014663
1.88983
0.011994
1.89286
0.0163628
1.89297
0.0127076
1.89693
0.0192628
1.89855
0.00639411
1.90634
0.019295
1.906
0.00751142
1.90991
0.0269641
1.90805
0.0199585
1.90815
0.0212467
1.91373
0.0322147
1.91296
0.0104794
1.92078
0.0314049
1.92798
0.0290339
1.92745
0.0122968
1.93849
0.0428261
1.9492
0.0440949
1.94578
0.0115444
1.95709
0.0528857
1.97791
0.0763038
1.98444
0.0441513
1.98017
0.0242294
1.99268
0.0667986
2.04472
0.177931
0.110028
2.03914
0.00714324
-2.03477
2.04348
0.00754669
2.04772
0.00790621
2.05185
0.00818981
2.05592
0.0086307
2.05992
0.00904278
2.0638
0.0093206
2.06759
0.00968497
2.07127
0.0100639
2.07467
0.00985714
2.07824
0.0104803
2.08144
0.0107543
2.085
0.0111056
2.08718
0.00981635
2.09143
0.0121119
2.09295
0.0111883
2.09864
0.013565
2.09708
0.00795507
2.10375
0.0126251
2.10128
0.00998739
2.10974
0.0185041
2.11164
0.0180516
2.11531
0.0175834
2.12495
0.0225663
2.12236
0.0130762
2.13155
0.0222167
2.13951
0.0210748
2.13553
0.0162734
2.14874
0.0296118
2.16248
0.0303543
2.15413
0.0199028
2.16657
0.0404383
2.1947
0.0481796
2.20175
0.0370989
2.18871
0.037271
2.20012
0.0553884
2.26714
0.11091
0.0688795
2.2438
0.00453478
-2.24119
2.24649
0.00485995
2.24922
0.0051707
2.25196
0.00545705
2.25482
0.00576852
2.25781
0.00605157
2.2608
0.00632993
2.26391
0.0065751
2.26709
0.00688383
2.26998
0.00696953
2.27313
0.00732214
2.27649
0.00739633
2.27979
0.00781097
2.28217
0.00743725
2.28584
0.00843523
2.28919
0.00784272
2.29359
0.00916603
2.29404
0.00750385
2.29697
0.00969416
2.29826
0.00869615
2.30541
0.0113564
2.31165
0.0118119
2.31802
0.0112164
2.32602
0.0145656
2.3284
0.0106889
2.33557
0.0150465
2.34148
0.0151685
2.34444
0.0133161
2.35436
0.0196923
2.364
0.0207115
2.36716
0.0167428
2.38
0.0275985
2.39741
0.0307649
2.40712
0.0273908
2.41324
0.0311492
2.43123
0.0374007
2.47309
0.0690488
0.0447865
2.4463
0.00187576
-2.44364
2.44911
0.00204977
2.45205
0.00222709
2.4551
0.00240177
2.4583
0.00257714
2.46161
0.00274174
2.46502
0.00291159
2.46853
0.00306485
2.47218
0.00323756
2.47578
0.00336656
2.47956
0.00354611
2.4833
0.0036515
2.48726
0.00385197
2.49085
0.00385532
2.49511
0.00416671
2.49883
0.00412211
2.5035
0.00450163
2.50673
0.00427733
2.51156
0.00485999
2.5153
0.00495566
2.52104
0.00562019
2.52662
0.00623121
2.53182
0.00600942
2.53913
0.00725467
2.54351
0.00630974
2.55102
0.00753545
2.55815
0.00803997
2.5639
0.00756533
2.57378
0.00981706
2.58381
0.0106811
2.59088
0.00967688
2.60446
0.0140114
2.62016
0.01507
2.63289
0.0146615
2.6461
0.0179324
2.6646
0.0189018
2.703
0.0306509
0.020349
2.68243
-2.68055
2.68448
2.6867
2.68911
2.69168
2.69443
2.69734
2.7004
2.70364
2.70701
2.71055
2.7142
2.71806
2.72191
2.72608
2.7302
2.7347
2.73898
2.74384
2.74879
2.75441
2.76065
2.76666
2.77391
2.78022
2.78775
2.79579
2.80336
2.81318
2.82386
2.83354
2.84755
2.86262
2.87728
2.89521
2.91411
2.94476
0.426939
0.0700084
-0.419244
0.436568
0.100487
0.445495
0.132882
0.455818
0.162247
0.469251
0.193148
0.478464
0.222283
0.498799
0.246571
0.280768
0.46234
0.0617178
-0.45405
0.470196
0.0926313
0.480588
0.122489
0.489438
0.153397
0.502376
0.18021
0.513285
0.211374
0.525571
0.234285
0.264634
0.500146
0.0545505
-0.492978
0.506996
0.085781
0.515558
0.113927
0.523925
0.145031
0.533451
0.170684
0.544454
0.200371
0.555365
0.223374
0.250445
0.539921
0.0486635
-0.534034
0.546335
0.0793672
0.553434
0.106828
0.561722
0.136742
0.570273
0.162133
0.580867
0.189777
0.591561
0.21268
0.238064
0.583513
0.0437546
-0.578604
0.589548
0.0733315
0.595964
0.100412
0.603761
0.128946
0.611781
0.154113
0.621168
0.180391
0.630908
0.20294
0.226887
0.630944
0.0394769
-0.626666
0.636271
0.0680047
0.642019
0.0946643
0.648964
0.122001
0.656298
0.146778
0.664843
0.171845
0.674013
0.193771
0.216392
0.682167
0.0358943
-0.678584
0.686811
0.06336
0.692022
0.0894533
0.698366
0.115658
0.705334
0.139809
0.713449
0.16373
0.722196
0.185024
0.206536
0.737867
0.0328302
-0.734803
0.741977
0.0592506
0.746825
0.084605
0.752754
0.109729
0.759404
0.133158
0.767075
0.15606
0.77543
0.176669
0.197114
0.798486
0.0302071
-0.795862
0.802156
0.0555805
0.806671
0.0800901
0.812227
0.104172
0.818587
0.126798
0.825964
0.148683
0.83412
0.168513
0.187927
0.864445
0.0279671
-0.862205
0.867751
0.0522751
0.872007
0.0758336
0.877334
0.0988459
0.883579
0.120553
0.890858
0.141404
0.898963
0.160409
0.178833
0.936199
0.0260618
-0.934294
0.939245
0.0492288
0.943355
0.0717232
0.94859
0.0936117
0.95482
0.114323
0.962096
0.134128
0.970255
0.15225
0.169664
1.0143
0.0243731
-1.01261
1.01722
0.0463155
1.02129
0.0676456
1.02655
0.0883581
1.03289
0.107981
1.04032
0.126694
1.04871
0.143865
0.160274
1.09912
0.0228786
-1.09763
1.10195
0.0434891
1.10605
0.0635455
1.11139
0.0830162
1.11791
0.101459
1.1256
0.119009
1.13433
0.135137
0.150465
1.19131
0.0214705
-1.18991
1.19419
0.0406108
1.19848
0.0592586
1.20414
0.0773537
1.21108
0.0945175
1.21924
0.110847
1.2285
0.125883
0.140139
1.29068
0.0199984
-1.28921
1.29371
0.0375883
1.29825
0.0547158
1.30423
0.071368
1.31157
0.0871851
1.32016