/*--------------------------------*- C++ -*----------------------------------*\
| =========                 |                                                 |
| \\      /  F ield         | OpenFOAM: The Open Source CFD Toolbox           |
|  \\    /   O peration     | Version:  2512                                  |
|   \\  /    A nd           | Website:  www.openfoam.com                      |
|    \\/     M anipulation  |                                                 |
\*---------------------------------------------------------------------------*/
FoamFile
{
    version     2.0;
    format      ascii;
    arch        "LSB;label=32;scalar=64";
    class       volVectorField;
    location    "99";
    object      U;
}
// * * * * * * * * * * * * * * * * * * * * * * * * * * * * * * * * * * * * * //

dimensions      [0 1 -1 0 0 0 0];

internalField   nonuniform List<vector> 
13248
(
(-0.0137112 0.0108049 4.49449e-20)
(-0.0253855 0.0146361 0)
(-0.0279928 0.00871093 -7.88666e-20)
(-0.0187471 -0.000442567 7.30291e-20)
(0.0057634 -0.0103442 6.7995e-20)
(0.0486167 -0.0201422 0)
(0.112033 -0.0292003 0)
(0.196637 -0.0368135 1.57964e-19)
(0.300708 -0.0421411 -2.50927e-21)
(0.420026 -0.0443984 -1.31469e-19)
(0.548177 -0.043049 1.1362e-19)
(0.677569 -0.0379872 -6.99051e-20)
(0.800684 -0.0295848 0)
(0.911183 -0.0186203 -9.69762e-20)
(1.00464 -0.00609205 1.72489e-19)
(1.07868 0.00690403 -4.00967e-20)
(1.1333 0.0194162 -5.81014e-20)
(1.16967 0.0306093 5.41678e-20)
(1.19086 0.0400718 0)
(1.20077 0.0470654 0)
(1.20097 0.0527367 0)
(1.20072 0.0544747 0)
(1.19299 0.0570947 1.12263e-20)
(1.19341 0.0542609 3.58743e-20)
(-0.0155738 0.0122369 -1.35371e-19)
(-0.0252656 0.0194241 8.58822e-20)
(-0.0180157 0.0166996 8.71195e-25)
(0.00769558 0.00948328 -1.10499e-19)
(0.0545807 0.000728502 -6.7896e-20)
(0.125141 -0.00779983 -6.28867e-20)
(0.220345 -0.0147458 -1.148e-19)
(0.338297 -0.0189796 1.06336e-19)
(0.473414 -0.019684 0)
(0.616937 -0.01657 1.754e-21)
(0.75857 -0.00997595 3.43205e-21)
(0.88855 -0.000779278 6.91063e-20)
(0.999325 0.00983756 0)
(1.08651 0.0206657 0)
(1.14899 0.0307125 6.08563e-20)
(1.18863 0.0392742 -1.12999e-19)
(1.20925 0.0461401 5.91282e-20)
(1.21596 0.0511262 -5.51278e-20)
(1.21411 0.0547683 -2.23342e-20)
(1.20783 0.056866 -3.58626e-20)
(1.20163 0.0584181 -1.30708e-20)
(1.19641 0.0583542 -2.33065e-20)
(1.19283 0.0588793 3.708e-20)
(1.19352 0.055671 9.91204e-21)
(-0.0155821 0.0112542 0)
(-0.0203068 0.0182135 0)
(-0.000429844 0.0166149 3.97526e-20)
(0.0452308 0.0108108 3.65999e-20)
(0.118959 0.00406502 -3.81244e-22)
(0.22193 -0.00120565 -6.30659e-20)
(0.351968 -0.00320658 0)
(0.501948 -0.000945139 -5.26288e-20)
(0.660247 0.00554995 4.70983e-20)
(0.813327 0.0152753 -6.41815e-22)
(0.948983 0.0266236 -7.50162e-20)
(1.05878 0.0378892 -6.37426e-20)
(1.13909 0.0477045 4.09003e-21)
(1.19083 0.0552952 -4.36691e-20)
(1.21846 0.0604874 1.09858e-19)
(1.22829 0.0636186 0)
(1.22705 0.0652424 -5.93384e-20)
(1.2206 0.0659135 2.8994e-20)
(1.21277 0.0663096 2.23113e-20)
(1.20635 0.0659866 0)
(1.20094 0.0664345 1.6097e-20)
(1.19759 0.0647902 -5.31375e-20)
(1.19354 0.0652694 4.96219e-20)
(1.19138 0.0613577 2.82945e-20)
(-0.0141308 0.00901477 -4.65882e-20)
(-0.010075 0.013232 -4.42941e-20)
(0.0268296 0.0113872 4.02439e-20)
(0.0977848 0.00718146 0)
(0.204041 0.00412948 0)
(0.343336 0.00499432 -4.93161e-23)
(0.506982 0.0111461 0)
(0.680015 0.022206 -1.54103e-19)
(0.844995 0.0363002 1.39595e-19)
(0.986958 0.0508819 -1.68314e-19)
(1.09679 0.0636509 3.71296e-20)
(1.17217 0.0731709 0)
(1.2165 0.0790572 5.39644e-20)
(1.23681 0.0817839 -9.68023e-20)
(1.24129 0.0823019 2.27863e-20)
(1.23723 0.0816142 5.10256e-20)
(1.22988 0.0804596 -5.18556e-21)
(1.22205 0.0793287 -5.46384e-20)
(1.21498 0.0781409 0)
(1.20838 0.0770416 0)
(1.20227 0.0757771 -1.63265e-20)
(1.19647 0.073579 1.39522e-20)
(1.19045 0.0728027 4.56756e-20)
(1.18599 0.067649 -4.26391e-20)
(-0.0111493 0.00629817 -4.79413e-20)
(0.00674053 0.00666005 -4.45888e-20)
(0.066856 0.00449762 1.2349e-19)
(0.169816 0.0032879 -7.46763e-20)
(0.313648 0.00672092 6.91757e-20)
(0.488692 0.0168816 1.24957e-19)
(0.676466 0.0331435 -8.61707e-20)
(0.854755 0.0525713 -1.00564e-19)
(1.00508 0.0714254 3.88864e-21)
(1.11742 0.0866896 1.24744e-19)
(1.19086 0.096889 0)
(1.2313 0.102109 3.08759e-20)
(1.24796 0.103472 0)
(1.25014 0.102448 -4.54296e-20)
(1.24503 0.100302 6.28815e-20)
(1.23711 0.0978214 4.07507e-22)
(1.22847 0.0953882 -1.48753e-20)
(1.21995 0.0929745 2.60489e-20)
(1.21167 0.0906617 2.19363e-20)
(1.20397 0.0881385 -1.88027e-20)
(1.19691 0.0857285 1.63191e-20)
(1.1909 0.0826861 -1.39458e-20)
(1.18533 0.0807505 0)
(1.18165 0.0754038 -1.00158e-20)
(-0.00598482 0.00343689 4.79293e-20)
(0.0321152 6.56844e-05 4.6e-20)
(0.122819 -0.000948387 -4.12588e-20)
(0.264037 0.0036537 7.54966e-20)
(0.446372 0.0168208 -6.99321e-20)
(0.648519 0.0381332 6.22073e-20)
(0.842566 0.0635208 -2.92077e-20)
(1.00503 0.0876821 7.57048e-20)
(1.124 0.106594 -4.62908e-20)
(1.19954 0.118621 7.74818e-20)
(1.23968 0.124274 -1.74167e-19)
(1.25547 0.125257 6.20765e-20)
(1.257 0.123467 -5.1059e-20)
(1.25144 0.120367 4.7532e-20)
(1.24295 0.116811 3.8119e-20)
(1.23355 0.113199 3.14085e-20)
(1.22418 0.109621 -8.67237e-20)
(1.21528 0.106168 5.26983e-20)
(1.20717 0.102732 -2.19328e-20)
(1.19987 0.0994329 5.45127e-20)
(1.19335 0.0961094 -1.76356e-20)
(1.18739 0.0926223 -3.95481e-20)
(1.18164 0.0897836 3.58554e-20)
(1.17654 0.0843992 1.00125e-20)
(0.00235338 0.000595802 0)
(0.0681148 -0.00527789 2.32318e-22)
(0.196597 -0.00228286 8.45294e-20)
(0.379191 0.0117527 -7.80285e-20)
(0.593786 0.0370126 -6.93424e-20)
(0.806502 0.0686169 1.26588e-19)
(0.986512 0.0992434 -5.77967e-20)
(1.11786 0.123273 7.4505e-20)
(1.20034 0.138545 -2.44253e-21)
(1.24364 0.145821 -4.01523e-20)
(1.26056 0.147313 8.3502e-20)
(1.26223 0.145344 -1.20283e-19)
(1.25632 0.141646 0)
(1.24724 0.137244 -2.17917e-20)
(1.23724 0.132655 -5.57464e-20)
(1.22737 0.128095 1.76134e-20)
(1.21807 0.123677 1.03814e-21)
(1.20947 0.119374 -3.35568e-20)
(1.20148 0.115216 3.50337e-21)
(1.19404 0.111099 3.77045e-20)
(1.18706 0.106997 -1.56965e-20)
(1.18061 0.102925 -5.42545e-21)
(1.17449 0.0990261 1.77049e-20)
(1.16935 0.0936489 0)
(0.0148806 -0.00194615 0)
(0.116243 -0.00800324 2.31691e-20)
(0.287853 0.00285853 -1.09047e-19)
(0.509295 0.0296841 3.90237e-20)
(0.742459 0.0671165 -3.61461e-20)
(0.946551 0.105437 -3.19989e-20)
(1.09776 0.136446 -5.52045e-20)
(1.19329 0.156717 2.75433e-20)
(1.24371 0.16693 2.3401e-20)
(1.26378 0.16976 0)
(1.26637 0.168072 4.87007e-20)
(1.26034 0.164031 -7.0009e-20)
(1.25082 0.158957 5.14775e-20)
(1.24037 0.153545 2.18011e-20)
(1.23008 0.148111 -1.67808e-20)
(1.22031 0.142785 -1.30721e-20)
(1.21113 0.137578 -1.17655e-20)
(1.20251 0.132506 3.65981e-20)
(1.1945 0.127524 0)
(1.18711 0.122652 1.66301e-20)
(1.18037 0.117872 1.29138e-20)
(1.17416 0.113225 -3.30182e-20)
(1.16831 0.10856 -2.09339e-20)
(1.16285 0.103482 1.9285e-20)
(0.0323803 -0.00365965 -2.65785e-20)
(0.176874 -0.00641666 -8.04189e-22)
(0.393379 0.0165597 2.21043e-20)
(0.644549 0.0579335 6.02899e-20)
(0.878904 0.104935 1.68153e-20)
(1.05931 0.145243 -3.21241e-20)
(1.17604 0.172831 2.9012e-20)
(1.23898 0.187681 -2.47816e-20)
(1.26506 0.192861 4.27586e-20)
(1.2698 0.19197 1.75424e-20)
(1.26407 0.187835 -4.9055e-20)
(1.25414 0.182222 1.40894e-20)
(1.24309 0.176062 2.30315e-20)
(1.23216 0.169776 -1.13718e-20)
(1.22173 0.163535 0)
(1.21192 0.157394 1.55958e-20)
(1.20277 0.151392 2.51912e-20)
(1.19429 0.145532 3.57943e-21)
(1.18648 0.139836 -2.0145e-20)
(1.17925 0.134291 7.99762e-21)
(1.17251 0.12889 0)
(1.16613 0.123629 -5.80982e-21)
(1.16002 0.118288 -5.25834e-21)
(1.15433 0.113232 0)
(0.0552177 -0.00378824 0)
(0.248816 0.0013681 1.2869e-20)
(0.507133 0.0401904 2.33926e-20)
(0.774104 0.0954051 -6.10879e-20)
(0.994112 0.147696 1.93495e-20)
(1.14311 0.185823 0)
(1.22663 0.207806 2.70968e-20)
(1.26334 0.216845 -3.71453e-20)
(1.27235 0.217488 -2.11659e-20)
(1.26762 0.213535 9.43366e-21)
(1.25735 0.207433 -1.40966e-20)
(1.24551 0.200477 3.43056e-20)
(1.23373 0.193257 1.64736e-20)
(1.22255 0.186023 -1.16758e-20)
(1.21211 0.178882 -1.39115e-21)
(1.20241 0.17189 -2.90683e-20)
(1.19343 0.165072 1.29813e-20)
(1.18511 0.158446 -3.38022e-22)
(1.17742 0.152009 0)
(1.17032 0.145767 -8.00554e-21)
(1.16373 0.139718 0)
(1.15756 0.133817 1.65505e-20)
(1.15171 0.127954 -1.91154e-20)
(1.14607 0.122912 8.48691e-21)
(0.0832137 -0.00145083 -7.27037e-21)
(0.329157 0.0170496 -3.24077e-20)
(0.621333 0.0739606 3.62045e-20)
(0.889215 0.140096 2.06261e-20)
(1.08457 0.193198 -9.81547e-21)
(1.20072 0.226217 1.55274e-20)
(1.25569 0.241622 -7.55061e-21)
(1.27281 0.245057 1.20094e-20)
(1.27054 0.241739 0)
(1.26022 0.235185 2.56042e-20)
(1.24749 0.227314 -1.24058e-21)
(1.23469 0.21901 -1.98483e-20)
(1.22259 0.210643 8.24117e-21)
(1.21136 0.20237 -8.95733e-21)
(1.20098 0.194263 -3.15549e-21)
(1.19139 0.186353 3.8543e-21)
(1.18254 0.178668 -2.7888e-21)
(1.17441 0.17122 -1.46372e-20)
(1.16697 0.164029 8.85677e-21)
(1.16013 0.1571 1.7086e-21)
(1.15375 0.150412 1.44645e-21)
(1.14769 0.14391 1.22197e-21)
(1.14184 0.137614 0)
(1.13619 0.132238 0)
(0.115653 0.00423957 7.27918e-21)
(0.413638 0.0417494 -6.72601e-21)
(0.728387 0.116973 -1.20666e-20)
(0.98471 0.189951 0)
(1.15051 0.240092 -4.82253e-21)
(1.23616 0.266209 -4.15563e-21)
(1.2683 0.274777 -6.86361e-21)
(1.27153 0.273013 0)
(1.26212 0.266164 0)
(1.24861 0.257213 0)
(1.23463 0.247573 0)
(1.22141 0.23782 0)
(1.20922 0.228175 -5.10238e-21)
(1.19805 0.218733 2.28524e-21)
(1.18781 0.209541 3.85056e-21)
(1.17843 0.200627 1.77474e-21)
(1.16987 0.192012 4.19691e-21)
(1.16205 0.183712 0)
(1.15492 0.175733 -9.16535e-22)
(1.14838 0.168071 -8.56188e-22)
(1.1423 0.1607 -1.44873e-21)
(1.13659 0.153585 -1.22389e-21)
(1.13114 0.146837 0)
(1.12589 0.140987 7.7097e-22)
(0.00652351 -0.149601 7.4756e-21)
(0.0122736 -0.327502 -7.08803e-21)
(0.00466519 -0.417485 -1.30933e-20)
(-0.0125462 -0.452226 0)
(-0.034761 -0.459677 -1.7188e-20)
(-0.0584951 -0.457118 5.42398e-21)
(-0.081644 -0.451554 -1.00722e-20)
(-0.102907 -0.443459 0)
(-0.121366 -0.430628 0)
(-0.136275 -0.410493 0)
(-0.147018 -0.381025 0)
(-0.153162 -0.340965 0)
(-0.154531 -0.289842 4.95663e-22)
(-0.151261 -0.227922 -7.71598e-21)
(-0.14381 -0.156086 1.4219e-20)
(-0.132978 -0.0757711 2.06212e-20)
(-0.119721 0.0118621 5.96296e-21)
(-0.10398 0.105101 0)
(-0.0858441 0.202719 5.7153e-21)
(-0.0652898 0.303085 -1.51322e-20)
(-0.0419764 0.403912 -8.77931e-21)
(-0.0152295 0.501614 -7.75136e-21)
(0.0137727 0.592496 0)
(0.0499876 0.670396 0)
(0.0136789 -0.147509 -2.20481e-20)
(0.0227672 -0.314219 3.5061e-20)
(0.0104987 -0.393543 -1.25053e-20)
(-0.0137939 -0.421151 -2.37672e-20)
(-0.0434938 -0.424961 3.33484e-20)
(-0.0749493 -0.42144 -2.09015e-20)
(-0.106283 -0.416865 2.94517e-20)
(-0.136477 -0.411306 1.79306e-20)
(-0.164808 -0.402424 0)
(-0.19058 -0.387613 -1.80908e-20)
(-0.213079 -0.364753 -9.65402e-22)
(-0.231636 -0.332359 1.58296e-20)
(-0.245713 -0.289599 2.17872e-20)
(-0.254979 -0.236286 2.85608e-20)
(-0.259365 -0.172832 -1.37941e-20)
(-0.259063 -0.100141 -3.86021e-20)
(-0.254692 -0.0194909 1.0953e-20)
(-0.246092 0.0678734 -4.19735e-20)
(-0.233274 0.160084 0)
(-0.216541 0.255114 9.78924e-21)
(-0.195851 0.350503 8.76912e-21)
(-0.171001 0.443253 7.74221e-21)
(-0.143054 0.530562 0)
(-0.112298 0.608859 0)
(0.019879 -0.138906 0)
(0.0316014 -0.290521 6.53105e-20)
(0.0157724 -0.359818 -2.42873e-20)
(-0.0136279 -0.381715 2.31366e-20)
(-0.0484594 -0.382737 -6.20547e-20)
(-0.0849408 -0.378272 0)
(-0.121426 -0.374117 -3.69682e-20)
(-0.157195 -0.370299 1.64031e-20)
(-0.191761 -0.364588 -3.14504e-20)
(-0.224572 -0.35448 1.34611e-20)
(-0.254963 -0.337879 8.72254e-20)
(-0.282203 -0.313205 -4.04351e-20)
(-0.305576 -0.279403 -6.69025e-20)
(-0.324447 -0.235952 -2.34418e-20)
(-0.338336 -0.182853 -5.85546e-23)
(-0.346968 -0.120574 8.59623e-20)
(-0.350082 -0.0500035 -3.99053e-20)
(-0.347627 0.027775 3.84222e-21)
(-0.339692 0.110796 0)
(-0.32611 0.197095 -2.5284e-20)
(-0.30685 0.284427 0)
(-0.281496 0.37016 -2.35748e-20)
(-0.249965 0.451359 7.57496e-20)
(-0.215927 0.526583 -3.04815e-21)
(0.0244416 -0.125367 0)
(0.0379536 -0.259627 -1.29679e-21)
(0.0198048 -0.319726 2.24422e-20)
(-0.0126465 -0.337222 -2.07365e-20)
(-0.0501466 -0.33615 2.01954e-20)
(-0.0887335 -0.330619 1.09485e-19)
(-0.126896 -0.326123 -3.42668e-20)
(-0.164158 -0.322899 -3.11716e-20)
(-0.200284 -0.319037 6.05261e-20)
(-0.234925 -0.312284 -8.64003e-20)
(-0.267561 -0.30069 2.48641e-20)
(-0.297529 -0.282708 2.34109e-20)
(-0.324084 -0.25719 0)
(-0.346456 -0.223404 2.30128e-20)
(-0.363867 -0.181044 0)
(-0.375634 -0.130225 3.22013e-20)
(-0.381154 -0.0714464 -6.23231e-20)
(-0.380266 -0.00599469 1.91365e-20)
(-0.37274 0.0646582 5.13687e-20)
(-0.357878 0.138744 2.52636e-20)
(-0.335466 0.214165 0)
(-0.305531 0.288882 -4.81234e-20)
(-0.265633 0.36082 1.7036e-20)
(-0.215864 0.427459 0)
(0.026891 -0.108542 0)
(0.0410595 -0.224337 -7.1529e-20)
(0.0215397 -0.276265 -2.14573e-20)
(-0.0122474 -0.290798 -4.04531e-20)
(-0.0503161 -0.288728 3.74859e-20)
(-0.0884743 -0.282633 -3.58083e-20)
(-0.125204 -0.277709 6.48474e-20)
(-0.160155 -0.274502 3.12444e-20)
(-0.193268 -0.271524 -8.50723e-20)
(-0.224373 -0.266855 5.17989e-20)
(-0.253107 -0.258773 -7.28609e-20)
(-0.278937 -0.245867 1.50542e-19)
(-0.301201 -0.22704 -8.13939e-20)
(-0.319155 -0.20151 3.41454e-20)
(-0.331958 -0.168828 9.39788e-20)
(-0.338721 -0.128944 -3.55887e-20)
(-0.338859 -0.0822901 -2.63834e-20)
(-0.331984 -0.0297568 -2.60311e-20)
(-0.317404 0.0275446 0)
(-0.294398 0.0881451 -2.8459e-20)
(-0.262037 0.150244 -1.94477e-20)
(-0.220304 0.211259 3.49918e-20)
(-0.1724 0.270593 3.27811e-20)
(-0.0969948 0.326392 -2.67277e-20)
(0.0269376 -0.0898924 0)
(0.0402889 -0.186974 -8.94414e-20)
(0.0198983 -0.231817 9.81705e-22)
(-0.0140231 -0.244855 7.73852e-20)
(-0.0511846 -0.243184 0)
(-0.087193 -0.237625 0)
(-0.120416 -0.232966 0)
(-0.150501 -0.230042 -2.89136e-20)
(-0.177455 -0.227817 4.62458e-22)
(-0.20121 -0.224731 4.85817e-20)
(-0.221509 -0.219305 -6.74385e-20)
(-0.237937 -0.210299 5.08989e-22)
(-0.249964 -0.196723 0)
(-0.25697 -0.177848 -3.41305e-20)
(-0.258287 -0.153233 2.32442e-20)
(-0.253222 -0.122786 -7.19566e-20)
(-0.240991 -0.0867892 7.90881e-20)
(-0.221203 -0.0458813 7.50884e-21)
(-0.193317 -0.000883613 -8.38634e-21)
(-0.156495 0.0469209 -4.61615e-20)
(-0.112048 0.0965286 -1.3614e-20)
(-0.0525053 0.14463 3.94341e-20)
(0.0034294 0.193722 -2.13089e-20)
(0.10377 0.231788 0)
(0.0244552 -0.0705318 4.47077e-20)
(0.0352828 -0.149217 4.42898e-20)
(0.0141652 -0.187981 -3.9745e-20)
(-0.0191111 -0.20086 -7.46059e-20)
(-0.054437 -0.201084 6.91326e-20)
(-0.0873487 -0.197559 -6.39049e-20)
(-0.116068 -0.194511 8.84739e-20)
(-0.140143 -0.192963 -2.83692e-20)
(-0.159555 -0.192292 5.03619e-20)
(-0.174258 -0.191296 0)
(-0.184049 -0.188728 3.83529e-20)
(-0.188603 -0.183487 -7.28736e-20)
(-0.187527 -0.17466 6.32766e-20)
(-0.18041 -0.161555 -5.8899e-20)
(-0.166841 -0.143735 0)
(-0.146435 -0.121039 4.14617e-20)
(-0.118893 -0.0936536 5.93424e-20)
(-0.0837466 -0.0621147 -5.78746e-20)
(-0.040927 -0.0270496 -1.88008e-20)
(0.0124208 0.0105001 -1.34467e-20)
(0.0671301 0.0505848 3.90652e-20)
(0.148445 0.0861856 3.66746e-21)
(0.202229 0.129321 -5.35281e-21)
(0.330137 0.148712 3.34745e-21)
(0.0195368 -0.0513077 -4.47187e-20)
(0.0262169 -0.112252 1.2649e-19)
(0.00452251 -0.145648 -3.8548e-20)
(-0.0273502 -0.159254 7.2721e-20)
(-0.059977 -0.162495 -6.73856e-20)
(-0.089001 -0.162315 -3.00954e-22)
(-0.112506 -0.162243 2.85368e-20)
(-0.129854 -0.163342 1.03827e-19)
(-0.140882 -0.165302 -1.92745e-21)
(-0.145454 -0.167229 -4.54454e-20)
(-0.143342 -0.168073 0)
(-0.13426 -0.166826 -3.19127e-20)
(-0.117933 -0.1626 6.31511e-20)
(-0.0941777 -0.154674 5.01061e-20)
(-0.0628847 -0.14256 -2.5085e-20)
(-0.0240535 -0.125995 -1.62615e-21)
(0.0221334 -0.105082 -1.56789e-20)
(0.0758371 -0.0799979 2.18779e-20)
(0.135802 -0.0518345 1.88004e-20)
(0.208633 -0.0212508 -1.38333e-20)
(0.271721 0.0118139 8.70248e-21)
(0.378759 0.0389878 -6.0747e-21)
(0.426599 0.0765153 0)
(0.583237 0.0887508 -3.34578e-21)
(0.0126304 -0.0330425 4.33146e-20)
(0.0140771 -0.0771406 -4.19006e-20)
(-0.00755007 -0.105394 3.85032e-20)
(-0.0366925 -0.119856 0)
(-0.0650194 -0.1264 0)
(-0.088387 -0.130046 6.07931e-20)
(-0.104683 -0.133534 -5.69134e-20)
(-0.112928 -0.137803 5.07782e-20)
(-0.112608 -0.142701 -2.37214e-19)
(-0.103331 -0.147524 8.48242e-22)
(-0.0847617 -0.151336 3.83213e-20)
(-0.056702 -0.153165 0)
(-0.0191487 -0.152113 -5.65428e-20)
(0.0275185 -0.147357 1.00396e-19)
(0.0827511 -0.138382 -6.60563e-20)
(0.145859 -0.124952 -8.14628e-20)
(0.215773 -0.107126 9.26819e-21)
(0.291907 -0.0852798 4.62346e-20)
(0.371808 -0.0606373 0)
(0.462246 -0.0335031 0)
(0.538913 -0.00511584 -8.70384e-21)
(0.656333 0.019961 6.07568e-21)
(0.707871 0.0502471 -1.84137e-20)
(0.867314 0.0644906 1.71729e-20)
(0.00462744 -0.0167157 0)
(0.000689249 -0.0451835 0)
(-0.0194071 -0.0680107 -1.15493e-19)
(-0.0434874 -0.082631 3.55975e-20)
(-0.0645371 -0.0917853 -1.64232e-23)
(-0.0786083 -0.0986964 6.14237e-20)
(-0.0832679 -0.105267 0)
(-0.0770513 -0.112169 -5.2139e-20)
(-0.0590279 -0.11925 4.74789e-20)
(-0.0286371 -0.125842 -8.39915e-20)
(0.0142495 -0.131036 1.39234e-21)
(0.0691641 -0.133868 6.50904e-20)
(0.135167 -0.133345 -4.61183e-21)
(0.210704 -0.128731 4.23683e-20)
(0.293657 -0.119656 -6.70419e-20)
(0.382108 -0.106136 0)
(0.473671 -0.0882526 5.05771e-20)
(0.566639 -0.0672403 -6.85234e-20)
(0.65962 -0.0433225 1.76499e-20)
(0.750907 -0.0185924 0)
(0.836531 0.0067207 1.11306e-20)
(0.929216 0.0291402 3.02615e-20)
(0.989218 0.0525016 -2.82551e-20)
(1.09944 0.065043 -3.04637e-20)
(-0.00324874 -0.00341987 1.30195e-19)
(-0.0117145 -0.018036 -1.65799e-19)
(-0.0281716 -0.0349291 -3.14052e-22)
(-0.0440748 -0.0484913 3.57994e-20)
(-0.0537254 -0.0590206 -6.68737e-20)
(-0.0534378 -0.068084 -6.15553e-20)
(-0.0404952 -0.0767142 1.13387e-19)
(-0.0131113 -0.0851878 -1.85926e-21)
(0.0297188 -0.093219 -9.6333e-20)
(0.0880917 -0.100062 1.7064e-19)
(0.161093 -0.104787 -3.83092e-21)
(0.246732 -0.106448 -6.96242e-20)
(0.342051 -0.104224 0)
(0.443579 -0.0977139 0)
(0.547509 -0.0868317 -2.09016e-20)
(0.650521 -0.0720581 -3.52408e-20)
(0.749086 -0.0537465 -5.31479e-20)
(0.841526 -0.0338445 4.95431e-20)
(0.92575 -0.0118146 -1.76625e-20)
(0.999245 0.00827681 2.80234e-20)
(1.06638 0.0290705 -1.42893e-20)
(1.11732 0.044374 1.70447e-20)
(1.16406 0.0600696 -4.52301e-20)
(1.20189 0.0649501 6.66748e-21)
(-0.00961227 0.00583589 4.36668e-20)
(-0.0208093 0.00230188 0)
(-0.031368 -0.00864323 7.80894e-20)
(-0.0360839 -0.0201984 -7.23119e-20)
(-0.0304279 -0.0308639 6.69543e-20)
(-0.0109148 -0.0408161 0)
(0.0251107 -0.0502785 0)
(0.079217 -0.0590854 -5.20293e-20)
(0.151664 -0.0666687 2.33293e-21)
(0.241134 -0.0721704 4.48436e-20)
(0.344531 -0.0747309 -3.67267e-20)
(0.457322 -0.0736413 7.00195e-20)
(0.574099 -0.0685357 0)
(0.689324 -0.0594957 9.65197e-20)
(0.798 -0.0470196 -1.71052e-19)
(0.896219 -0.0319792 1.10896e-19)
(0.981007 -0.015352 5.60352e-20)
(1.0518 0.00139614 -5.22378e-20)
(1.10648 0.017986 0)
(1.14894 0.0316128 0)
(1.17665 0.0447422 0)
(1.19415 0.0518156 0)
(1.20652 0.0591612 9.27909e-21)
(1.20314 0.0582297 -3.37047e-20)
(0.086343 0.742369 -3.61573e-21)
(0.123738 0.803306 3.62624e-21)
(0.147896 0.842415 -8.4407e-23)
(0.157453 0.868231 0)
(0.162973 0.876741 -2.24475e-21)
(0.184347 0.848192 4.4054e-21)
(0.240572 0.757196 1.70414e-22)
(0.334959 0.59527 -2.26404e-21)
(0.447707 0.381602 0)
(0.554023 0.137783 0)
(0.645053 -0.126996 -1.70561e-22)
(0.722556 -0.386867 -1.5669e-22)
(0.780465 -0.593217 -2.02736e-21)
(0.812997 -0.710794 1.84065e-21)
(0.826072 -0.743124 0)
(0.824323 -0.728117 0)
(0.811219 -0.69921 7.72435e-22)
(0.798536 -0.66616 -3.40942e-23)
(0.785582 -0.647614 -6.53504e-22)
(0.7575 -0.671679 -4.32233e-23)
(0.709362 -0.716283 0)
(0.657412 -0.697541 0)
(0.626769 -0.541211 0)
(0.627201 -0.258466 0)
(0.653806 0.0662812 0)
(0.694349 0.340912 0)
(0.734751 0.515007 2.8938e-22)
(0.771745 0.58363 -4.63314e-22)
(0.808179 0.586684 0)
(0.82728 0.596403 0)
(0.817486 0.635315 -2.11578e-22)
(0.776068 0.663283 2.05589e-22)
(0.721427 0.613505 1.38651e-22)
(0.672804 0.452773 0)
(0.654619 0.195882 0)
(0.659119 -0.0880772 3.14959e-22)
(0.687414 -0.313769 -3.06111e-22)
(0.727283 -0.441684 0)
(0.756299 -0.491129 1.38184e-22)
(0.732774 -0.522917 -1.94476e-22)
(0.675409 -0.520041 5.4091e-23)
(0.619181 -0.447152 0)
(0.601258 -0.268326 -1.31298e-22)
(0.621192 -0.0456495 1.27668e-22)
(0.668839 0.148431 0)
(0.690013 0.320136 0)
(0.682556 0.4139 -3.81927e-23)
(0.660204 0.47071 1.10794e-22)
(0.656563 0.374784 0)
(0.654563 0.203552 0)
(0.675203 -0.0149379 -3.28713e-23)
(0.668393 -0.27233 -4.3098e-24)
(0.653819 -0.36277 -3.72927e-24)
(0.641877 -0.457596 1.85619e-23)
(0.648666 -0.247356 0)
(0.618732 0.0452192 0)
(0.617094 0.163728 0)
(0.598223 0.428118 0)
(0.603704 0.258739 0)
(0.56177 -0.0391947 0)
(-0.0758088 0.685688 -3.01503e-22)
(-0.0246829 0.763053 -1.11297e-20)
(0.0162944 0.814278 1.09143e-21)
(0.0593341 0.843477 9.38555e-21)
(0.112516 0.838862 1.26976e-22)
(0.189677 0.783637 0)
(0.298121 0.664286 -9.42803e-21)
(0.428881 0.489385 1.96519e-20)
(0.557868 0.284632 -1.0226e-20)
(0.66811 0.0584886 1.12623e-20)
(0.760964 -0.193117 -1.0765e-20)
(0.837519 -0.44238 9.33841e-21)
(0.886564 -0.633002 -9.08929e-21)
(0.901382 -0.731922 -2.08907e-22)
(0.892325 -0.748282 -4.61449e-21)
(0.871106 -0.720863 4.48153e-21)
(0.841268 -0.685807 -3.03757e-21)
(0.813628 -0.652091 2.86556e-21)
(0.789967 -0.62882 -2.71103e-21)
(0.753481 -0.641677 5.45588e-21)
(0.695464 -0.678435 -2.73939e-21)
(0.631966 -0.665303 -1.99267e-22)
(0.587166 -0.527322 -4.51162e-21)
(0.576236 -0.267384 9.1214e-21)
(0.599656 0.0386155 -4.60337e-21)
(0.642778 0.307173 2.36277e-22)
(0.691112 0.484137 2.96413e-21)
(0.74144 0.558269 -4.96082e-22)
(0.791603 0.569927 -3.95174e-21)
(0.823297 0.592619 3.43243e-21)
(0.826385 0.645828 -1.62294e-21)
(0.797067 0.684945 2.33626e-22)
(0.754734 0.639308 -1.38946e-22)
(0.715551 0.472809 3.75685e-22)
(0.702402 0.203937 0)
(0.705892 -0.0924513 0)
(0.724034 -0.327653 -1.08375e-21)
(0.750295 -0.456655 8.19928e-22)
(0.772456 -0.493727 4.03838e-22)
(0.745494 -0.509076 -3.77656e-23)
(0.682138 -0.500315 -4.93813e-22)
(0.622261 -0.434621 9.72751e-23)
(0.60349 -0.269451 0)
(0.622789 -0.0579845 0)
(0.666417 0.136751 0)
(0.684791 0.317153 0)
(0.680067 0.417316 1.38201e-22)
(0.659225 0.474767 -7.37239e-23)
(0.658954 0.376826 0)
(0.658616 0.201165 0)
(0.683375 -0.0155674 0)
(0.678242 -0.270416 -5.52537e-23)
(0.65809 -0.359689 1.34668e-23)
(0.642463 -0.456548 -4.03444e-23)
(0.645099 -0.24585 0)
(0.620748 0.0479973 0)
(0.619769 0.165145 1.25216e-23)
(0.603704 0.42868 2.61929e-23)
(0.612189 0.263428 0)
(0.562858 -0.0348971 0)
(-0.178794 0.606406 -2.02676e-21)
(-0.106379 0.690771 -1.93321e-20)
(-0.042731 0.74177 1.6485e-20)
(0.0369851 0.765876 -1.54396e-20)
(0.132608 0.748303 -1.27898e-22)
(0.25053 0.676215 0)
(0.389622 0.545364 -1.90371e-20)
(0.535053 0.375585 1.86454e-20)
(0.664479 0.193123 1.65782e-22)
(0.772125 -0.00736508 3.37325e-22)
(0.867207 -0.240693 3.34402e-22)
(0.943845 -0.474623 3.17095e-22)
(0.983716 -0.646432 -1.53915e-20)
(0.981968 -0.727408 1.51565e-20)
(0.952924 -0.733627 0)
(0.915174 -0.701636 2.4035e-22)
(0.872916 -0.665496 -5.8741e-21)
(0.832349 -0.633504 5.78982e-21)
(0.799266 -0.606232 0)
(0.758326 -0.606718 0)
(0.69327 -0.636671 -5.66491e-21)
(0.618562 -0.633474 1.22625e-20)
(0.562057 -0.517775 -1.39445e-20)
(0.540157 -0.281794 -4.43369e-22)
(0.556925 0.00646682 1.51757e-20)
(0.599846 0.267658 -1.40306e-20)
(0.654279 0.446276 1.09577e-20)
(0.715537 0.526201 -1.18963e-21)
(0.777866 0.546865 -3.84498e-21)
(0.822297 0.58122 0)
(0.839113 0.6485 0)
(0.82349 0.702063 1.74873e-21)
(0.794208 0.66492 -2.15738e-21)
(0.764557 0.49561 1.9789e-23)
(0.756353 0.218055 3.46863e-21)
(0.759371 -0.0875097 -3.37024e-21)
(0.767843 -0.33149 0)
(0.778935 -0.465409 2.3435e-22)
(0.793185 -0.49428 1.31234e-21)
(0.764417 -0.494312 -2.20478e-21)
(0.695778 -0.480526 8.32363e-22)
(0.631035 -0.423486 6.61048e-23)
(0.610628 -0.272806 -8.45818e-22)
(0.628555 -0.0709197 6.70163e-22)
(0.668134 0.124955 1.25519e-22)
(0.684336 0.313915 1.18278e-22)
(0.682271 0.420149 -1.38572e-22)
(0.661965 0.478563 0)
(0.66391 0.379482 0)
(0.665327 0.198947 -7.8715e-22)
(0.694415 -0.0153025 3.72674e-22)
(0.691841 -0.267237 -3.14712e-22)
(0.666233 -0.355375 3.15258e-22)
(0.64614 -0.454694 2.47973e-22)
(0.644947 -0.246205 -8.71083e-23)
(0.626533 0.0504939 4.17531e-23)
(0.625971 0.165647 -2.82827e-23)
(0.612363 0.428578 -5.54606e-24)
(0.623939 0.269097 0)
(0.567772 -0.0298274 0)
(-0.172514 0.508661 -2.73735e-20)
(-0.0878528 0.584857 1.22379e-21)
(-0.00769862 0.633941 2.45573e-20)
(0.0978387 0.653417 -2.20358e-22)
(0.218428 0.630037 0)
(0.356002 0.553391 0)
(0.505425 0.424498 -3.68017e-20)
(0.649172 0.269881 -4.76324e-21)
(0.768747 0.112912 6.02804e-20)
(0.870375 -0.0639071 6.309e-22)
(0.967896 -0.280088 -2.12605e-20)
(1.04471 -0.496377 -1.75251e-20)
(1.07455 -0.647037 1.75811e-20)
(1.0566 -0.709665 0)
(1.00968 -0.70763 -8.86979e-21)
(0.956974 -0.674317 8.13933e-21)
(0.905792 -0.638996 0)
(0.855837 -0.610806 0)
(0.812811 -0.583002 4.30917e-21)
(0.768375 -0.570971 4.133e-23)
(0.701591 -0.589199 -3.95853e-21)
(0.618575 -0.594242 -5.46941e-21)
(0.550279 -0.505702 5.46282e-21)
(0.518019 -0.298787 -6.96285e-21)
(0.525976 -0.029946 3.1961e-22)
(0.565302 0.223027 6.26676e-21)
(0.623636 0.402276 5.98099e-22)
(0.693601 0.487557 4.0548e-23)
(0.766194 0.516342 0)
(0.822434 0.561536 3.01311e-21)
(0.854289 0.642676 -3.10971e-21)
(0.853597 0.710748 2.38903e-22)
(0.836766 0.68448 0)
(0.816913 0.517969 -4.00314e-22)
(0.813819 0.236015 7.3451e-21)
(0.817606 -0.0763288 -1.27407e-20)
(0.818374 -0.32763 5.89202e-22)
(0.81355 -0.468624 1.38633e-21)
(0.817522 -0.493698 3.02785e-21)
(0.787923 -0.479397 2.32723e-22)
(0.715617 -0.459597 -1.29073e-21)
(0.644665 -0.412111 1.08961e-21)
(0.621317 -0.277655 3.64374e-23)
(0.637627 -0.0847363 4.72414e-22)
(0.673882 0.112083 -5.85264e-22)
(0.688424 0.309333 -7.61296e-22)
(0.688644 0.422474 2.19397e-22)
(0.6681 0.482756 7.03477e-22)
(0.671301 0.383242 -1.50984e-21)
(0.674576 0.197054 1.20824e-21)
(0.708146 -0.0146777 -3.20625e-22)
(0.709013 -0.263208 4.94646e-22)
(0.678249 -0.349791 3.26891e-22)
(0.652966 -0.451688 -3.6002e-22)
(0.648098 -0.248271 3.85968e-23)
(0.635765 0.0524882 7.46283e-24)
(0.63551 0.165321 0)
(0.623959 0.427806 1.98521e-24)
(0.638824 0.275602 1.4242e-22)
(0.576518 -0.024011 0)
(-0.0525823 0.400718 1.69043e-20)
(0.028164 0.464471 -3.37529e-20)
(0.118248 0.511088 1.66459e-20)
(0.229637 0.52732 2.18822e-20)
(0.355614 0.504978 -4.73927e-20)
(0.494269 0.433556 -5.08737e-21)
(0.638256 0.315936 2.9882e-20)
(0.767755 0.181657 3.80463e-20)
(0.871909 0.0472863 -3.72467e-20)
(0.969069 -0.112514 0)
(1.06863 -0.311704 -3.86928e-20)
(1.13985 -0.50263 7.15268e-20)
(1.15401 -0.627227 -3.30235e-20)
(1.11874 -0.67325 0)
(1.05794 -0.667652 0)
(0.994267 -0.638688 2.33999e-22)
(0.936954 -0.60717 -1.05409e-20)
(0.882212 -0.583599 1.02341e-20)
(0.832063 -0.558984 0)
(0.784334 -0.538158 7.32534e-21)
(0.718708 -0.542979 -1.42177e-20)
(0.631336 -0.552138 1.5362e-20)
(0.55145 -0.490854 -1.79899e-20)
(0.507695 -0.316371 -1.25392e-21)
(0.505609 -0.0697715 2.09496e-20)
(0.539322 0.173684 -1.03131e-20)
(0.599065 0.352695 -2.74584e-22)
(0.674641 0.443474 -2.6749e-21)
(0.755218 0.479682 2.1471e-22)
(0.822857 0.53229 2.51573e-21)
(0.869524 0.62501 1.85145e-22)
(0.883837 0.710873 -4.41115e-21)
(0.881339 0.702474 1.01954e-20)
(0.8719 0.544535 -6.55448e-21)
(0.873147 0.260651 0)
(0.877984 -0.0572696 -7.6949e-21)
(0.873214 -0.314899 7.3298e-21)
(0.853379 -0.464481 -3.04758e-21)
(0.844995 -0.490754 3.83116e-21)
(0.814885 -0.464456 -2.17245e-22)
(0.74094 -0.437833 0)
(0.662781 -0.399834 -1.11396e-22)
(0.634661 -0.283343 3.01455e-22)
(0.649063 -0.0998423 0)
(0.68312 0.0977605 7.40669e-22)
(0.696848 0.303635 -2.88271e-22)
(0.699648 0.423987 2.26786e-22)
(0.678215 0.486426 3.03584e-22)
(0.681361 0.387782 0)
(0.686392 0.195354 0)
(0.72446 -0.0138555 -1.26398e-21)
(0.729552 -0.258252 1.76637e-21)
(0.694042 -0.342877 -8.05883e-22)
(0.662957 -0.447397 2.67605e-22)
(0.654298 -0.251999 1.17719e-22)
(0.64807 0.053652 -7.47087e-24)
(0.648205 0.164265 1.09404e-22)
(0.638234 0.426223 0)
(0.656689 0.282774 -1.83089e-22)
(0.589043 -0.017502 -1.12472e-22)
(0.144444 0.295344 9.84483e-21)
(0.215283 0.353614 -9.74547e-21)
(0.300057 0.392384 1.17587e-22)
(0.402647 0.405125 -1.10791e-22)
(0.518353 0.387099 1.71464e-22)
(0.644342 0.327085 -2.08716e-22)
(0.771688 0.227459 4.37814e-22)
(0.880683 0.115007 0)
(0.972363 -0.00215208 -5.35738e-22)
(1.06971 -0.151706 5.54609e-22)
(1.16741 -0.333353 5.41e-22)
(1.22539 -0.495467 -5.50538e-22)
(1.22049 -0.594273 0)
(1.16912 -0.627597 0)
(1.09848 -0.621513 2.63331e-22)
(1.02792 -0.599217 0)
(0.966488 -0.572848 -1.61027e-22)
(0.909139 -0.552607 0)
(0.853933 -0.533255 -6.51585e-21)
(0.803894 -0.508845 1.22847e-20)
(0.742702 -0.499175 -1.13862e-20)
(0.65612 -0.505961 5.58274e-21)
(0.565893 -0.46966 7.14852e-21)
(0.50863 -0.331144 -6.93936e-21)
(0.495189 -0.11027 -8.198e-21)
(0.521354 0.121281 7.93958e-21)
(0.579844 0.299039 0)
(0.658104 0.394407 1.3214e-22)
(0.744691 0.436157 0)
(0.821598 0.494585 0)
(0.882367 0.598001 5.6435e-21)
(0.913262 0.699757 -5.75162e-21)
(0.92378 0.710557 5.75965e-22)
(0.923817 0.567671 8.24578e-22)
(0.930464 0.288459 -9.31652e-22)
(0.937512 -0.0328819 -6.95313e-21)
(0.930079 -0.295104 6.74963e-21)
(0.897568 -0.453204 -4.21437e-21)
(0.874948 -0.485538 3.56044e-21)
(0.843669 -0.450215 4.29288e-22)
(0.77052 -0.415238 -9.52452e-22)
(0.685055 -0.385595 1.42193e-22)
(0.650079 -0.288897 5.1354e-22)
(0.662015 -0.115961 0)
(0.695552 0.0812607 -1.72593e-22)
(0.70924 0.294831 4.5355e-22)
(0.714435 0.424326 -5.70126e-22)
(0.691694 0.491373 -3.05625e-22)
(0.694057 0.39423 0)
(0.7009 0.194302 4.92407e-22)
(0.743308 -0.0129727 -9.90684e-22)
(0.75321 -0.252609 2.27714e-23)
(0.713447 -0.334636 -2.40953e-22)
(0.676116 -0.441615 6.66829e-23)
(0.663234 -0.257181 -7.89432e-23)
(0.663012 0.0538195 0)
(0.663829 0.162596 -1.09469e-22)
(0.654877 0.423926 0)
(0.677329 0.290489 0)