/*--------------------------------*- C++ -*----------------------------------*\
| =========                 |                                                 |
| \\      /  F ield         | OpenFOAM: The Open Source CFD Toolbox           |
|  \\    /   O peration     | Version:  2312                                  |
|   \\  /    A nd           | Website:  www.openfoam.com                      |
|    \\/     M anipulation  |                                                 |
\*---------------------------------------------------------------------------*/
FoamFile
{
    version     2.0;
    format      ascii;
    arch        "LSB;label=32;scalar=64";
    class       volScalarField;
    location    "12";
    object      p;
}
// * * * * * * * * * * * * * * * * * * * * * * * * * * * * * * * * * * * * * //

dimensions      [0 2 -2 0 0 0 0];

internalField   nonuniform List<scalar> 
5478
(
-0.346118
-0.342856
-0.336306
-0.330013
-0.327095
-0.329112
-0.335524
-0.343803
-0.350756
-0.353558
-0.350785
-0.341092
-0.326743
-0.305832
-0.282012
-0.352177
-0.348846
-0.342714
-0.335989
-0.330928
-0.328431
-0.328074
-0.328157
-0.326536
-0.321706
-0.312912
-0.300718
-0.285654
-0.267842
-0.249517
-0.363898
-0.359015
-0.35218
-0.344249
-0.335964
-0.327944
-0.320394
-0.31273
-0.30413
-0.294041
-0.282405
-0.269072
-0.254162
-0.237733
-0.220512
-0.380219
-0.372682
-0.363905
-0.353217
-0.340079
-0.325816
-0.311649
-0.297923
-0.284441
-0.270904
-0.256914
-0.242408
-0.227365
-0.21189
-0.197057
-0.401296
-0.389681
-0.378087
-0.362302
-0.342474
-0.32167
-0.301809
-0.283369
-0.266201
-0.249933
-0.234323
-0.219132
-0.20415
-0.189548
-0.175042
-0.427256
-0.409897
-0.393335
-0.369612
-0.341859
-0.314718
-0.28999
-0.267861
-0.247949
-0.229824
-0.213038
-0.197257
-0.182327
-0.168106
-0.154354
-0.454198
-0.431702
-0.405885
-0.371995
-0.336309
-0.303566
-0.274869
-0.249877
-0.227941
-0.208446
-0.19092
-0.175004
-0.160401
-0.146897
-0.133898
-0.475926
-0.449664
-0.411529
-0.366639
-0.323833
-0.286481
-0.254738
-0.227728
-0.204531
-0.184415
-0.166759
-0.151116
-0.137192
-0.124561
-0.11288
-0.259287
-0.272572
-0.290772
-0.316734
-0.347903
-0.381626
-0.415491
-0.447316
-0.475205
-0.497498
-0.512598
-0.519515
-0.517491
-0.506295
-0.485921
-0.285699
-0.296248
-0.313338
-0.338811
-0.369828
-0.403586
-0.437546
-0.469421
-0.497256
-0.519437
-0.534737
-0.542299
-0.541073
-0.531246
-0.510258
-0.315427
-0.321708
-0.336352
-0.359911
-0.38917
-0.421332
-0.453861
-0.484482
-0.511312
-0.53275
-0.547238
-0.556479
-0.552811
-0.547976
-0.526468
-0.338355
-0.339638
-0.350617
-0.370445
-0.396062
-0.42482
-0.454298
-0.482345
-0.507119
-0.527533
-0.540662
-0.549801
-0.547039
-0.541231
-0.522707
-0.350387
-0.347208
-0.353226
-0.367068
-0.386777
-0.410267
-0.435364
-0.46005
-0.482197
-0.501006
-0.51425
-0.523162
-0.522053
-0.515196
-0.496997
-0.352745
-0.346885
-0.347239
-0.35317
-0.364705
-0.38113
-0.400861
-0.421795
-0.442739
-0.46163
-0.475521
-0.483651
-0.482642
-0.474132
-0.453654
-0.349827
-0.343803
-0.339746
-0.338386
-0.341922
-0.351565
-0.366945
-0.386308
-0.406088
-0.422702
-0.433985
-0.438048
-0.433488
-0.42192
-0.399359
-0.346181
-0.341559
-0.335368
-0.329846
-0.328816
-0.334412
-0.3462
-0.361365
-0.376255
-0.387058
-0.392052
-0.388901
-0.378424
-0.361812
-0.339584
-0.452485
-0.396749
-0.324326
-0.237844
-0.144884
-0.052286
0.0274676
0.0838532
0.113038
0.119759
0.112119
0.098331
0.0835762
0.0702777
0.0590074
0.0496689
0.0420065
0.0357141
0.0305164
0.0261244
0.0224304
0.0193418
0.0167594
0.0146152
0.0127922
0.0112448
0.00994223
0.00881022
0.00784946
0.00696859
0.00620911
0.00546812
0.00477299
0.0040921
0.00332098
0.00256731
0.00163684
0.000599862
-0.48076
-0.425839
-0.352837
-0.266902
-0.172967
-0.0798851
0.00275964
0.0633218
0.0970829
0.107809
0.103941
0.0929029
0.0801058
0.0681669
0.0577979
0.0490489
0.0417727
0.0357342
0.0306843
0.0263941
0.0227538
0.0196829
0.0171022
0.0149634
0.0131136
0.0115421
0.0102139
0.00906125
0.0080721
0.00717196
0.00638384
0.00562096
0.00490505
0.00419187
0.00341191
0.00261833
0.00167711
0.000599924
-0.498983
-0.451731
-0.384244
-0.301457
-0.210905
-0.119
-0.0351476
0.0293214
0.068426
0.085323
0.087502
0.0819989
0.0731344
0.0638494
0.0552528
0.0476381
0.0410593
0.0354534
0.0306734
0.0265572
0.0230146
0.019988
0.0174177
0.0152511
0.0134276
0.0118311
0.0104813
0.00930984
0.00829334
0.00737442
0.00655809
0.00577405
0.00503758
0.00429293
0.00350419
0.00267153
0.00171964
0.000602086
-0.492697
-0.452308
-0.39625
-0.324514
-0.242358
-0.156788
-0.0753863
-0.00954252
0.0339143
0.057144
0.0665042
0.0677164
0.0639914
0.0580862
0.0516919
0.0455015
0.0398156
0.0347763
0.0303716
0.0265113
0.0231331
0.020202
0.0176785
0.015513
0.0137478
0.0121064
0.0107395
0.00955287
0.00851133
0.00757503
0.00673155
0.00592762
0.00517032
0.00439632
0.00359742
0.00272788
0.00176435
0.000607138
-0.464026
-0.432412
-0.390041
-0.327927
-0.255647
-0.182881
-0.110652
-0.0467526
-0.000170261
0.0289942
0.0451079
0.0523118
0.0539687
0.0518428
0.0478766
0.0432381
0.038531
0.0340986
0.0300743
0.0264602
0.0232354
0.0203914
0.0179103
0.015761
0.0139889
0.0123497
0.0109844
0.00978798
0.00872453
0.00777246
0.00690326
0.00608096
0.00530223
0.00450206
0.00369038
0.00278773
0.0018104
0.000615786
-0.417685
-0.393717
-0.36463
-0.315633
-0.255272
-0.192743
-0.134159
-0.0785428
-0.0316571
0.00227591
0.0243241
0.0373857
0.0432375
0.0446064
0.0431712
0.040183
0.0365634
0.0328946
0.029412
0.0261754
0.0231999
0.0205088
0.0181144
0.0160132
0.0141998
0.0125853
0.0112245
0.0100194
0.00893541
0.00796756
0.00707368
0.00623413
0.00543281
0.00461041
0.00378206
0.00285151
0.00185694
0.000629173
-0.364691
-0.349516
-0.33036
-0.293236
-0.246752
-0.195455
-0.145292
-0.098667
-0.0547731
-0.0185448
0.0072292
0.0237371
0.0335203
0.0379617
0.0388333
0.0376394
0.0350575
0.0319705
0.0288552
0.0258854
0.0231072
0.0205508
0.0182421
0.0161848
0.0143312
0.0127786
0.0114467
0.0102348
0.00913666
0.00815527
0.00724027
0.00638583
0.00556095
0.00472158
0.00387156
0.00291982
0.0019035
0.000649116
-0.318464
-0.312154
-0.298293
-0.272711
-0.241116
-0.203419
-0.162577
-0.121562
-0.0832676
-0.0470363
-0.0172415
0.00448417
0.0190476
0.0276688
0.0317334
0.0327383
0.0320378
0.0302427
0.0279275
0.0254494
0.0229762
0.0206094
0.0184138
0.0164147
0.0146026
0.0131421
0.0116751
0.0104593
0.00934392
0.00834838
0.00740827
0.00654037
0.00568725
0.00483711
0.00395753
0.00299342
0.00194906
0.000678267
-0.283231
-0.291049
-0.275442
-0.249651
-0.220017
-0.187673
-0.153059
-0.117401
-0.0825929
-0.0503188
-0.0229368
-0.00222165
0.0122102
0.0214698
0.0267099
0.0289866
0.0292528
0.0282335
0.0265438
0.0245531
0.0224395
0.020325
0.0183041
0.0164276
0.0147204
0.0132241
0.0118798
0.010625
0.00951803
0.00850418
0.00756098
0.00667713
0.00580371
0.00494806
0.00403585
0.00306558
0.00198939
0.000711229
-0.239373
-0.251039
-0.239978
-0.217087
-0.191163
-0.16422
-0.136138
-0.106971
-0.078206
-0.0510973
-0.0271303
-0.00801996
0.00595751
0.0155269
0.0214707
0.0245979
0.0257288
0.0255316
0.0245394
0.0230995
0.0214093
0.0196192
0.0178447
0.0161491
0.0145781
0.0131676
0.0118345
0.0106746
0.00959463
0.0085955
0.0076598
0.00677097
0.00589234
0.00502718
0.0040978
0.00311759
0.00201844
0.000730889
-0.201783
-0.215252
-0.209349
-0.191477
-0.170056
-0.147773
-0.124779
-0.100937
-0.0767151
-0.0531483
-0.0316189
-0.0136195
0.000140275
0.00995338
0.0164815
0.020428
0.0224076
0.0229657
0.0226127
0.0216936
0.0204122
0.0189384
0.0174091
0.0158999
0.014461
0.0131352
0.0118915
0.0107364
0.00967973
0.00868725
0.00775707
0.00686102
0.0059763
0.00509942
0.00415481
0.0031618
0.00204158
0.000742604
-0.170325
-0.18272
-0.180115
-0.166619
-0.149004
-0.130292
-0.111075
-0.0912756
-0.0711226
-0.0513672
-0.0329886
-0.0170082
-0.00420364
0.00531462
0.0120316
0.0165037
0.0191244
0.020317
0.0205515
0.0201456
0.0192844
0.0181455
0.0168805
0.0155747
0.0142865
0.0130506
0.0118605
0.0107786
0.00975482
0.00877553
0.00785405
0.00695407
0.00606228
0.00517594
0.00421407
0.00320831
0.0020672
0.000754084
-0.141477
-0.152911
-0.152668
-0.142928
-0.128962
-0.113823
-0.0982885
-0.0823726
-0.0661851
-0.0500465
-0.0345285
-0.020406
-0.00844165
0.000880081
0.00777124
0.0126834
0.01586
0.0176249
0.0184225
0.0185246
0.0180809
0.0172781
0.0162855
0.0151931
0.0140649
0.0129469
0.0118772
0.0108104
0.00982024
0.0088586
0.00794777
0.00704697
0.0061485
0.00525517
0.00427519
0.00325758
0.00209653
0.000766887
-0.116109
-0.126623
-0.127839
-0.121092
-0.110441
-0.0985314
-0.0861774
-0.0734956
-0.0605056
-0.0472006
-0.0340481
-0.0217807
-0.0109964
-0.00225227
0.00444965
0.00948158
0.0129694
0.0151261
0.0163663
0.0169112
0.0168497
0.016363
0.0156372
0.0147631
0.0138028
0.0128041
0.0118144
0.010819
0.00987119
0.00893269
0.00803522
0.00713738
0.00623355
0.00533495
0.00433727
0.00330795
0.00212821
0.000779195
-0.094426
-0.103666
-0.105675
-0.10122
-0.0933104
-0.0841323
-0.0744887
-0.0644855
-0.0540965
-0.0433194
-0.0325213
-0.0222267
-0.012807
-0.00481909
0.0015516
0.00658272
0.0102795
0.0127295
0.014333
0.0152807
0.0155849
0.0154032
0.0149368
0.0142791
0.0134905
0.0126222
0.0117321
0.0108091
0.00990747
0.00899637
0.0081153
0.00722431
0.00631623
0.00541379
0.00439915
0.00335801
0.00216093
0.000789846
-0.0754824
-0.0835063
-0.085974
-0.0832472
-0.0775257
-0.0706081
-0.0632232
-0.0554462
-0.0473084
-0.038807
-0.0301433
-0.0216651
-0.0135989
-0.00646147
-0.000551726
0.00432685
0.00807625
0.0106645
0.0124901
0.0137399
0.0143489
0.014437
0.0142148
0.0137704
0.0131524
0.012413
0.0116187
0.0107706
0.00992304
0.00904619
0.00818588
0.00730536
0.00639446
0.00548978
0.00445968
0.00340683
0.00219393
0.000799499
-0.0588684
-0.0658688
-0.0685641
-0.0670916
-0.0630803
-0.0579899
-0.0524543
-0.0465616
-0.0403659
-0.0338023
-0.0269534
-0.0200937
-0.0133593
-0.00719012
-0.00190638
0.0026574
0.00632084
0.00892289
0.0108556
0.0123232
0.0131818
0.0134926
0.013477
0.0132284
0.0127821
0.0121784
0.0114875
0.0107251
0.00992914
0.00908773
0.00824812
0.00737944
0.00646718
0.00556178
0.00451828
0.00345367
0.00222681
0.000809099
-0.0445288
-0.0505805
-0.0533086
-0.0527207
-0.0500099
-0.0463495
-0.0423031
-0.0379681
-0.0333836
-0.028423
-0.0231139
-0.0177002
-0.0122378
-0.00707556
-0.00251752
0.00160793
0.00507355
0.00758777
0.00951944
0.011108
0.0121513
0.0126403
0.0127909
0.0126978
0.0123852
0.0118988
0.0113181
0.0106038
0.0098823
0.00909701
0.00828813
0.00743897
0.00653037
0.00562716
0.00457304
0.00349719
0.00225891
0.000818484
-0.0320114
-0.0372014
-0.0398464
-0.0398755
-0.0381509
-0.0356186
-0.0327724
-0.0296926
-0.0264081
-0.0227787
-0.0187949
-0.0146553
-0.0103506
-0.00616366
-0.0023764
0.00121322
0.00437084
0.00669363
0.00851236
0.0101124
0.0112614
0.0118783
0.0121672
0.01223
0.0120722
0.011703
0.0111853
0.0106136
0.00992712
0.00914536
0.00835248
0.00750595
0.00659486
0.00569133
0.00462589
0.00353873
0.00229063
0.000828611
-0.0211797
-0.0256219
-0.0281167
-0.0285581
-0.0275674
-0.0258981
-0.0239678
-0.0218465
-0.0195883
-0.0170589
-0.0142007
-0.0111558
-0.00786987
-0.00458447
-0.00155858
0.0014508
0.00422422
0.00627607
0.00789216
0.00939982
0.0105582
0.0112201
0.0115634
0.0116899
0.0115998
0.0113204
0.0109364
0.010324
0.00971558
0.00903385
0.00827975
0.00749743
0.00660204
0.00572247
0.00465669
0.00356588
0.00231434
0.000831512
-0.0115129
-0.015329
-0.0176675
-0.0184071
-0.0179862
-0.0170015
-0.0158023
-0.0144442
-0.0129929
-0.011322
-0.00935764
-0.00722101
-0.00482096
-0.00235524
-6.21819e-05
0.00234452
0.00468182
0.00641511
0.00778298
0.00914307
0.0102601
0.0109373
0.0113269
0.0115333
0.0115423
0.0113256
0.0109329
0.0105283
0.00994902
0.00923008
0.00849476
0.00765858
0.00675612
0.00583167
0.00474855
0.00362514
0.00236491
0.000864424
-0.00322155
-0.00648168
-0.0086216
-0.00952028
-0.00948951
-0.00900542
-0.00836084
-0.00759635
-0.00678706
-0.00581372
-0.00458947
-0.00322429
-0.00160811
0.000102429
0.00169893
0.00350534
0.00537011
0.00672664
0.00777412
0.00889439
0.00986579
0.0104562
0.0107895
0.010965
0.0109699
0.0108064
0.0105377
0.00998541
0.00944908
0.00884793
0.00813383
0.00740808
0.00652625
0.00568689
0.00461951
0.00354193
0.00227547
0.000789149
0.00430726
0.00149118
-0.000469712
-0.00145811
-0.00169379
-0.00156364
-0.00131878
-0.000989374
-0.000654607
-0.000204657
0.000455676
0.0012345
0.00225027
0.0033554
0.00435994
0.0056325
0.0070571
0.00804625
0.00877124
0.00963793
0.0104425
0.0109308
0.011205
0.011362
0.0113743
0.0111892
0.0108551
0.0105419
0.0100453
0.00936901
0.00868768
0.00787161
0.00697953
0.00605208
0.0049534
0.0038182
0.00255058
0.000966187
0.0107557
0.00832356
0.0064949
0.00538121
0.00485599
0.00463468
0.00452417
0.00450296
0.00446684
0.00449583
0.0046718
0.00491228
0.00537232
0.00593465
0.00640187
0.00715944
0.00813659
0.00874004
0.00911106
0.00967407
0.0102465
0.0105583
0.0106926
0.0107451
0.010696
0.0105192
0.0102452
0.00969046
0.00915068
0.0085909
0.00788665
0.00719235
0.00631134
0.00549707
0.00442864
0.00334739
0.00213224
0.000696613
0.0169761
0.014936
0.0133683
0.0123326
0.0117131
0.0112776
0.0108818
0.0105492
0.0102006
0.00991437
0.00979419
0.0097409
0.00982435
0.00992351
0.00992639
0.0102664
0.01087
0.0111265
0.0111644
0.0114294
0.0117633
0.0118904
0.0118772
0.0118164
0.0116764
0.0113984
0.0110311
0.0107095
0.0102604
0.00957774
0.00893232
0.00812079
0.00723528
0.00631986
0.00519591
0.0040797
0.002737
0.00105656
0.0215462
0.0196274
0.0180106
0.0168209
0.016041
0.0154779
0.0149707
0.0144983
0.0139482
0.0133914
0.012924
0.0124741
0.0121949
0.0119895
0.0116617
0.011616
0.0118563
0.0117996
0.011537
0.0115165
0.0116065
0.011531
0.011345
0.0111467
0.0109114
0.0105923
0.0101901
0.00954849
0.00890385
0.00834767
0.00762816
0.00693392
0.00604107
0.00522046
0.00416114
0.00309033
0.00197058
0.00062602
0.0273394
0.0258529
0.024522
0.023407
0.0224991
0.021675
0.0208568
0.0201037
0.0193355
0.0185978
0.0179731
0.017365
0.0168555
0.0163169
0.0156078
0.0152142
0.0151705
0.0148489
0.0142893
0.0139699
0.0138056
0.0135211
0.0131438
0.0127776
0.0123885
0.0119371
0.0114393
0.0109843
0.0103779
0.00980246
0.00919249
0.00833178
0.00744041
0.00650218
0.00533616
0.0042388
0.00280155
0.00106963
0.0297246
0.0281891
0.026825
0.0256924
0.0247841
0.023975
0.0231703
0.0223904
0.0215415
0.0206542
0.0198095
0.0189634
0.0182319
0.0175115
0.0166602
0.0160767
0.0157704
0.0152031
0.0144473
0.0139358
0.013571
0.0131095
0.012579
0.0120922
0.0116027
0.011101
0.01055
0.00992176
0.00938792
0.00851523
0.00773795
0.00685232
0.00593753
0.00503059
0.00401824
0.00295081
0.00184548
0.000611196
0.0349502
0.0337382
0.0325319
0.0313653
0.0302661
0.0291905
0.0281119
0.0270992
0.0260887
0.0250927
0.0241651
0.0232095
0.0222859
0.0213298
0.0202274
0.019372
0.0188397
0.0181111
0.0171494
0.0163858
0.0157911
0.0151625
0.0144478
0.0138096
0.0131259
0.0125048
0.0117503
0.0111464
0.0103276
0.00970157
0.0088964
0.00812517
0.00740249
0.00628528
0.00529611
0.00408606
0.0025796
0.00102547
0.0357262
0.0345344
0.0333803
0.0322716
0.0312231
0.0301798
0.0291055
0.0280644
0.0270086
0.0259305
0.0248721
0.0238053
0.0228117
0.0217948
0.0206348
0.0196828
0.0189993
0.0181422
0.017093
0.0162321
0.0155135
0.0147835
0.013975
0.0132768
0.0125233
0.0119044
0.01113
0.0105039
0.00964988
0.00892915
0.00799158
0.00708267
0.00621893
0.0050887
0.00434208
0.00299262
0.00186273
0.000724991
0.0385559
0.0374018
0.0362302
0.0350467
0.0338717
0.0326871
0.0314895
0.0303405
0.0292082
0.0280787
0.0269724
0.0258485
0.0247425
0.023602
0.0223624
0.0213061
0.0204825
0.0195579
0.0184457
0.0174984
0.0166399
0.0158662
0.0149131
0.0142073
0.0132224
0.0126639
0.0115602
0.0111357
0.0100018
0.00953977
0.00857735
0.00776239
0.00715049
0.0057514
0.00518667
0.00358374
0.00221158
0.000971178
-0.102306
-0.120963
-0.140255
-0.159289
-0.18132
-0.202193
-0.227825
-0.254208
-0.0916248
-0.107115
-0.123219
-0.139118
-0.156863
-0.173936
-0.190954
-0.211886
-0.0801006
-0.0925986
-0.105173
-0.118147
-0.131242
-0.144897
-0.157975
-0.176093
-0.0695135
-0.0795622
-0.08938
-0.100011
-0.11056
-0.122292
-0.134406
-0.149663
-0.0589648
-0.0671723
-0.0751396
-0.0840441
-0.0931437
-0.103119
-0.113189
-0.124869
-0.0493222
-0.05593
-0.0623936
-0.0695914
-0.0769691
-0.0846791
-0.0924976
-0.102022
-0.0400861
-0.0452986
-0.0504388
-0.0560832
-0.0619565
-0.068092
-0.0746658
-0.0827886
-0.0314449
-0.0354858
-0.039534
-0.0440212
-0.0488455
-0.0539516
-0.0594444
-0.0660599
-0.0233437
-0.0264683
-0.0296551
-0.0332621
-0.0372038
-0.0413412
-0.0457401
-0.0511036
-0.0157698
-0.0181861
-0.0206693
-0.023531
-0.02669
-0.0300197
-0.0336169
-0.0380935
-0.00859662
-0.0104791
-0.0124082
-0.0146761
-0.0172329
-0.0199728
-0.0229718
-0.0267058
-0.00190353
-0.00340644
-0.00494056
-0.00677947
-0.00888811
-0.0111692
-0.0136727
-0.016787
0.00450012
0.00325316
0.00199218
0.000483196
-0.00125585
-0.00314442
-0.00522943
-0.00784297
0.0103603
0.00927932
0.00821852
0.0069533
0.00548353
0.00387681
0.00208845
-0.000146177
0.0161553
0.0151815
0.0142312
0.0131074
0.0118182
0.0104253
0.00887213
0.00693367
0.0212074
0.0202845
0.0193947
0.0183743
0.0172254
0.0159975
0.0146388
0.0129722
0.0265544
0.0256214
0.0247327
0.0237636
0.022697
0.0215747
0.0203462
0.018869
0.0306838
0.0297462
0.0288772
0.0279235
0.0268811
0.0258061
0.0246464
0.0232736
0.0358017
0.0347908
0.0338079
0.0327851
0.031743
0.0307484
0.0297584
0.028664
0.0387913
0.0377534
0.0368093
0.0358207
0.0347507
0.0336548
0.0324954
0.0311965
0.0435703
0.0424334
0.0413129
0.040182
0.0390631
0.0380265
0.0370487
0.0360496
0.0450409
0.0438055
0.0426903
0.0415736
0.0404129
0.0392573
0.038103
0.0369217
0.0480762
0.0468178
0.0455827
0.0443653
0.0431542
0.0419792
0.0408348
0.0396943
0.0819656
0.0869155
0.0912817
0.0949937
0.09747
0.0984958
0.0979245
0.0952741
0.0896492
0.0797552
0.0637943
0.039243
0.00200647
-0.0510357
-0.0995563
0.0599902
0.0626533
0.0629992
0.0622045
0.0604777
0.0573971
0.052375
0.0446451
0.0331684
0.0165461
-0.00714357
-0.0404649
-0.0875954
-0.152012
-0.206707
0.0363948
0.0365665
0.0332985
0.0287849
0.0234539
0.0166413
0.007494
-0.00488077
-0.0215888
-0.0441184
-0.0745416
-0.115491
-0.170399
-0.244506
-0.299332
0.0107407
0.0082412
0.00227992
-0.00483371
-0.0129373
-0.0228973
-0.0356281
-0.052005
-0.0731435
-0.100562
-0.136393
-0.183608
-0.244429
-0.322055
-0.37457
-0.0159736
-0.0209814
-0.0288527
-0.0377703
-0.0480187
-0.0605561
-0.0761955
-0.0957259
-0.120261
-0.151371
-0.190989
-0.242356
-0.306591
-0.382392
-0.430738
-0.0419364
-0.0494211
-0.0588085
-0.0691534
-0.0811622
-0.0957522
-0.113595
-0.135361
-0.162147
-0.195532
-0.237491
-0.290383
-0.354499
-0.425102
-0.467367
-0.066711
-0.0762225
-0.086754
-0.0983725
-0.111933
-0.128066
-0.147343
-0.170486
-0.198487
-0.232717
-0.27493
-0.326707
-0.38752
-0.44984
-0.485529
-0.0905694
-0.101112
-0.112624
-0.125502
-0.140298
-0.157478
-0.177537
-0.201148
-0.229198
-0.262833
-0.303437
-0.351834
-0.406217
-0.457405
-0.487567
0.198059
0.213541
0.23065
0.249558
0.270332
0.292973
0.31745
0.343722
0.371692
0.401101
0.431384
0.461435
0.489346
0.511411
0.52973
0.19799
0.212775
0.229194
0.247568
0.267921
0.290138
0.31412
0.339813
0.367124
0.395787
0.425208
0.454239
0.480914
0.501526
0.518408
0.193856
0.207032
0.222182
0.239592
0.259005
0.280084
0.302651
0.326638
0.351933
0.378214
0.404805
0.430465
0.453087
0.469081
0.481518
0.185275
0.19612
0.209664
0.225752
0.243652
0.262816
0.283044
0.304277
0.326357
0.348847
0.37091
0.391128
0.407132
0.415487
0.420957
0.172148
0.180548
0.192351
0.206845
0.222734
0.239278
0.256285
0.27373
0.29142
0.308792
0.324814
0.337838
0.345149
0.343232
0.339894
0.155046
0.160811
0.170703
0.183247
0.19664
0.210045
0.223279
0.236285
0.248758
0.259979
0.268723
0.273116
0.2701
0.255973
0.241563
0.134265
0.137828
0.146114
0.156304
0.166438
0.175939
0.18479
0.192853
0.199597
0.204069
0.204821
0.199737
0.185444
0.15814
0.131445
0.109364
0.111937
0.119216
0.126861
0.133361
0.13857
0.142644
0.145342
0.145923
0.143227
0.135597
0.12066
0.094686
0.0540311
0.0153451
0.0319011
0.032434
0.0328312
0.0342267
0.0349429
0.0375971
0.0388733
0.0425174
0.0454002
0.0497954
0.0543959
0.0600937
0.0661674
0.0734199
0.0813559
0.0903448
0.100208
0.111246
0.123229
0.136379
0.150512
0.165832
0.182112
0.0342854
0.0347263
0.0349742
0.0363354
0.0369408
0.0395437
0.0407029
0.0442882
0.0470256
0.0513685
0.0558555
0.0615286
0.0675321
0.0747751
0.0826372
0.0915862
0.101411
0.112393
0.124269
0.137307
0.151243
0.166437
0.182524
0.036648
0.0369911
0.0371054
0.0384069
0.0389299
0.0414317
0.0425005
0.0460064
0.0485785
0.0528663
0.0572889
0.0629158
0.0688302
0.0760442
0.0837648
0.0925572
0.102148
0.112859
0.124296
0.136991
0.150446
0.165038
0.179992
0.0389847
0.0392296
0.0392253
0.0404418
0.0409004
0.0432552
0.0442683
0.0476639
0.0500695
0.054205
0.0586177
0.0641814
0.0699706
0.0770949
0.0847415
0.0934903
0.102858
0.11328
0.123927
0.135689
0.147732
0.161517
0.17457
0.0412929
0.0414438
0.0413331
0.0424398
0.0428399
0.04501
0.0459891
0.0492369
0.0515369
0.0553692
0.0599271
0.0653929
0.0710589
0.0779776
0.0852939
0.0935895
0.102285
0.11209
0.122023
0.133374
0.144511
0.155385
0.164777
0.0435704
0.0436342
0.043429
0.0444034
0.0447345
0.0466852
0.047651
0.0507099
0.0529477
0.0562261
0.0611614
0.0664916
0.0721482
0.0790545
0.08633
0.094575
0.102689
0.111739
0.119996
0.129772
0.137691
0.145909
0.151519
0.0458152
0.0458033
0.0455122
0.0463275
0.046572
0.0482713
0.0492523
0.0521175
0.0545023
0.0592323
0.0624962
0.0674799
0.0728662
0.0792426
0.0859771
0.0933742
0.100498
0.108706
0.116204
0.123609
0.128714
0.133999
0.135046
0.0480253
0.0479435
0.0475732
0.0482199
0.0483657
0.0497784
0.0507004
0.0532513
0.0557399
0.060023
0.0636293
0.0686567
0.0743037
0.0807903
0.0872816
0.0945314
0.100921
0.107989
0.112417
0.117024
0.117653
0.119213
0.114117
0.0501559
0.0500326
0.0495772
0.0500215
0.0500651
0.051251
0.0522956
0.0546292
0.0572664
0.0630134
0.0648126
0.0691005
0.0743157
0.0798188
0.0854185
0.0912072
0.09639
0.100646
0.103463
0.104861
0.103352
0.0986494
0.0890138
0.0523299
0.0521797
0.0516402
0.0519215
0.0518599
0.0528006
0.0537605
0.0555996
0.0579095
0.0602368
0.0644593
0.0684494
0.0731318
0.0777193
0.0824187
0.0867846
0.0906512
0.0931322
0.0945111
0.0935826
0.0907008
0.0846022
0.076634
0.0547138
0.054534
0.0539071
0.054016
0.0537947
0.0543727
0.0551887
0.0565343
0.0587046
0.0612087
0.064547
0.067889
0.0719386
0.0756034
0.0792894
0.0824575
0.0852271
0.0859177
0.0855645
0.0832078
0.079102
0.0727731
0.0651473
0.0573314
0.0571168
0.0563884
0.0562752
0.0558461
0.0560255
0.0567409
0.0575883
0.0595833
0.0615044
0.0643462
0.0672045
0.0704792
0.0732648
0.0758171
0.0778032
0.0787682
0.0784964
0.0768514
0.0735721
0.0686923
0.0623061
0.0550475
0.0602095
0.0599442
0.0590821
0.0587099
0.0580667
0.0578457
0.0584176
0.0587073
0.0604079
0.0619897
0.0640818
0.0664035
0.0688433
0.0707165
0.0721609
0.0730924
0.0729609
0.0714674
0.0688226
0.0649326
0.0596987
0.0533231
0.0464137
0.0633757
0.0630361
0.0620172
0.061375
0.0604924
0.0598254
0.0601609
0.0599108
0.0612292
0.06244
0.0637146
0.0654587
0.0671116
0.068025
0.0684653
0.0684831
0.0673974
0.0649658
0.0616335
0.0573955
0.052044
0.045747
0.0391199
0.0668638
0.0664321
0.0652384
0.0642992
0.0631124
0.0619638
0.0619894
0.0612271
0.0620457
0.0628666
0.0633335
0.0644036
0.0653506
0.0653387
0.064867
0.0641047
0.0622862
0.0591365
0.055347
0.0509899
0.045734
0.0396134
0.0332132
0.0707195
0.0701795
0.0687766
0.0674971
0.0659427
0.0642956
0.0639256
0.0626627
0.0628974
0.063287
0.0629838
0.06332
0.0636277
0.0627961
0.0614963
0.0601025
0.0577721
0.054141
0.0500559
0.0456689
0.040714
0.0348975
0.0287754
0.0749982
0.074324
0.0726657
0.0710079
0.0690242
0.0668509
0.0659953
0.0642305
0.0638303
0.0637366
0.0627301
0.0623206
0.0620277
0.060509
0.0584943
0.0566075
0.0539596
0.0500993
0.0459308
0.0418029
0.0370032
0.0315052
0.0257106
0.0797653
0.078928
0.0769646
0.0748778
0.0723875
0.0696529
0.0682404
0.0659623
0.0649054
0.0642805
0.0626286
0.0615119
0.0606544
0.0585841
0.0560017
0.0537378
0.0508984
0.0469163
0.0427161
0.0387322
0.0343525
0.0292672
0.0238749
0.0851032
0.0840655
0.0817424
0.0791696
0.0760913
0.072741
0.0706971
0.0678784
0.0661723
0.0649972
0.0627582
0.0609885
0.0596201
0.0571221
0.0541153
0.0515845
0.0486681
0.0447109
0.0406063
0.036873
0.0329097
0.0283013
0.0233687
0.0911255
0.0898421
0.0870755
0.083928
0.0801795
0.076171
0.0734505
0.0700657
0.0677154
0.0659879
0.0631908
0.0608524
0.059034
0.0561955
0.0528847
0.050174
0.0472491
0.0433949
0.039447
0.0359849
0.0324216
0.0282834
0.0238317
0.097964
0.0963904
0.0931083
0.0892675
0.0847171
0.0799539
0.0765045
0.0725447
0.0695968
0.0673703
0.0640648
0.0612044
0.0590002
0.0559218
0.0524283
0.0496288
0.0467758
0.0431015
0.0393811
0.0362238
0.033068
0.0294054
0.0254541
0.105825
0.103845
0.0999047
0.0952914
0.0898839
0.0842667
0.0799547
0.0753393
0.0718366
0.0692806
0.0653265
0.061986
0.0594482
0.0562043
0.0526052
0.0497748
0.0470188
0.0435442
0.0400587
0.0371771
0.0343648
0.0310943
0.0275421
0.114972
0.112535
0.107719
0.102005
0.0955232
0.0890602
0.0839767
0.0787104
0.0746349
0.0724152
0.0672722
0.0634545
0.0606867
0.0573549
0.0537385
0.0509316
0.0482987
0.0450482
0.0418134
0.0392035
0.0367276
0.0338617
0.0307504
0.125726
0.122609
0.116813
0.109945
0.102099
0.094274
0.0879937
0.0817858
0.0764407
0.0711812
0.0680787
0.0646764
0.0619216
0.0586404
0.0550858
0.0523265
0.049821
0.0467856
0.0437694
0.0413675
0.039136
0.0365573
0.0337474
0.138776
0.134548
0.127132
0.118793
0.109877
0.10118
0.0939711
0.0869502
0.0810163
0.0766793
0.071921
0.0679077
0.0648887
0.0615387
0.0579888
0.0552457
0.0528297
0.0499752
0.0471539
0.0449394
0.0429382
0.0406503
0.0381617
0.154953
0.149103
0.139219
0.128339
0.117096
0.106536
0.0980655
0.0903671
0.084009
0.0787704
0.0739676
0.0698366
0.0667121
0.0634062
0.0599605
0.0572783
0.0549599
0.0522882
0.0496483
0.0475693
0.0457188
0.0436385
0.0413959
0.175418
0.167324
0.155087
0.142242
0.129409
0.117396
0.10738
0.0983573
0.0907524
0.0852999
0.0798645
0.0752733
0.0717927
0.0683446
0.0648305
0.0620424
0.0596908
0.0571002
0.0545415
0.0525067
0.0507393
0.0488082
0.0467323
0.201419
0.185555
0.16753
0.151051
0.135609
0.12166
0.11031
0.100572
0.0928496
0.0862879
0.0808405
0.0763534
0.0729907
0.0697246
0.0664193
0.0637723
0.0615427
0.0591295
0.0567501
0.054837
0.0531855
0.0514318
0.0495963
0.247157
0.220338
0.19454
0.173098
0.154272
0.137501
0.123361
0.111305
0.101741
0.0946657
0.0887113
0.0838351
0.080003
0.0764737
0.0730244
0.0701237
0.0676555
0.0651639
0.0627346
0.0606895
0.0589145
0.0571303
0.0553119
0.28164
0.234462
0.201765
0.179003
0.159036
0.140504
0.124423
0.110941
0.100062
0.093053
0.0877335
0.0834294
0.0800295
0.0769317
0.0738581
0.0711661
0.0688519
0.0665611
0.0642971
0.0623257
0.060624
0.0589948
0.0573909
0.439554
0.286636
0.23617
0.205883
0.179107
0.154971
0.134891
0.119505
0.108619
0.10096
0.0953384
0.0907959
0.0870311
0.0836234
0.0803072
0.0772844
0.0745871
0.0719882
0.0694612
0.0671866
0.0651749
0.0633037
0.0615268
0.0758137
0.054849
0.0311672
0.00776935
-0.0161742
-0.0395368
-0.0618922
-0.0825827
0.0668549
0.0463269
0.0222025
0.000441456
-0.0199925
-0.0395682
-0.0582528
-0.0752025
0.057045
0.0397942
0.0175277
-0.00282225
-0.0199889
-0.0359913
-0.051692
-0.0664334
0.0479511
0.0333952
0.0131344
-0.00594224
-0.0208937
-0.0339478
-0.0465591
-0.058577
0.0398223
0.0274708
0.00984694
-0.00717259
-0.0198808
-0.0303081
-0.0402307
-0.0500079
0.0328829
0.0224108
0.00746353
-0.00719294
-0.0179782
-0.02645
-0.0343316
-0.0421435
0.0271498
0.0181775
0.00584226
-0.00611387
-0.0150082
-0.0219029
-0.0282029
-0.0343888
0.0227963
0.0148291
0.00506834
-0.00414012
-0.0112767
-0.0169497
-0.0220783
-0.0269829
0.0199345
0.0129026
0.00534152
-0.00153438
-0.00710771
-0.0117452
-0.0159412
-0.0198514
0.0184332
0.0123314
0.00654692
0.00151171
-0.00273345
-0.00645511
-0.00987587
-0.0130177
0.0183305
0.0130597
0.00865048
0.0050152
0.00183859
-0.00110162
-0.00387443
-0.00641274
0.0192574
0.0147469
0.0113841
0.00878476
0.00644674
0.00416029
0.00193053
-0.000134781
0.0213867
0.0175252
0.0148773
0.0129681
0.0112378
0.00947034
0.00767824
0.00597469
0.0238797
0.0205564
0.0184681
0.0170773
0.0158136
0.0144662
0.0130394
0.011626
0.0275526
0.0246696
0.0228787
0.0217385
0.0207476
0.0196849
0.0185098
0.017283
0.0308751
0.0283654
0.026856
0.0259276
0.0251344
0.0242835
0.0233166
0.0222481
0.0356252
0.033358
0.0318856
0.0309295
0.0301611
0.0294023
0.0285469
0.0275628
0.0391435
0.0371665
0.0358492
0.0349485
0.0342034
0.0334755
0.0326593
0.0316975
0.0446396
0.0427276
0.0412963
0.0402064
0.0393097
0.038529
0.0377441
0.0368246
0.0477974
0.0461545
0.0448283
0.0437064
0.0427006
0.0417888
0.0408866
0.0398779
0.0535135
0.0518034
0.0503077
0.0489727
0.0477754
0.0467262
0.0457476
0.0447023
0.055839
0.0543281
0.0528862
0.0514688
0.0500787
0.0487742
0.0475486
0.0463127
0.0598161
0.058152
0.0565569
0.0549901
0.0534563
0.0520126
0.0506703
0.0493687
-0.327383
-0.32881
-0.336095
-0.348717
-0.3659
-0.387971
-0.41516
-0.443495
-0.323697
-0.326041
-0.332851
-0.343676
-0.358175
-0.376338
-0.398036
-0.421525
-0.317437
-0.319687
-0.326912
-0.337068
-0.349812
-0.365459
-0.382403
-0.396733
-0.311067
-0.313167
-0.320363
-0.32965
-0.340031
-0.350913
-0.360079
-0.364175
-0.308343
-0.309363
-0.315142
-0.321883
-0.327961
-0.332487
-0.333833
-0.3299
-0.31172
-0.309916
-0.312126
-0.314187
-0.314651
-0.313002
-0.308131
-0.298577
-0.321041
-0.314701
-0.31109
-0.306836
-0.301355
-0.294367
-0.284798
-0.271294
-0.334273
-0.321708
-0.310704
-0.299533
-0.288552
-0.277185
-0.26407
-0.247768
-0.348193
-0.328135
-0.309223
-0.291661
-0.276241
-0.26137
-0.245661
-0.22736
-0.359357
-0.331456
-0.305192
-0.282917
-0.264109
-0.246687
-0.229137
-0.209519
-0.365721
-0.329819
-0.298202
-0.273053
-0.251898
-0.232869
-0.214096
-0.193777
-0.364249
-0.322631
-0.28842
-0.261998
-0.239512
-0.219657
-0.200231
-0.179748
-0.356114
-0.310622
-0.276521
-0.249768
-0.226839
-0.206866
-0.187311
-0.167185
-0.338402
-0.294146
-0.262724
-0.236309
-0.214247
-0.19447
-0.175322
-0.155836
-0.314932
-0.277566
-0.247707
-0.223082
-0.201878
-0.182302
-0.163757
-0.145172
-0.247982
-0.256518
-0.278667
-0.30351
-0.322032
-0.331335
-0.332741
-0.330113
-0.261906
-0.268916
-0.287658
-0.307876
-0.321879
-0.327456
-0.327105
-0.324925
-0.280012