/*--------------------------------*- C++ -*----------------------------------*\
| =========                 |                                                 |
| \\      /  F ield         | OpenFOAM: The Open Source CFD Toolbox           |
|  \\    /   O peration     | Version:  2312                                  |
|   \\  /    A nd           | Website:  www.openfoam.com                      |
|    \\/     M anipulation  |                                                 |
\*---------------------------------------------------------------------------*/
FoamFile
{
    version     2.0;
    format      ascii;
    arch        "LSB;label=32;scalar=64";
    class       surfaceScalarField;
    location    "64";
    object      phi;
}
// * * * * * * * * * * * * * * * * * * * * * * * * * * * * * * * * * * * * * //

dimensions      [0 3 -1 0 0 0 0];

oriented        oriented;

internalField   nonuniform List<scalar> 
64047
(
9.09348e-05
0.000543659
-0.000634594
0.000344284
0.0012777
-0.00153104
0.000749836
0.00163464
-0.00204019
0.00130756
0.00160181
-0.00215953
0.00203025
0.00118537
-0.00190807
0.00294385
0.000395969
-0.00130956
0.00408619
-0.000759835
-0.000382503
0.00550451
-0.00228322
0.000864893
0.00725222
-0.00418337
0.00243567
0.00938476
-0.00647413
0.00434159
0.0119538
-0.0091681
0.00659907
0.0149996
-0.0122693
0.00922343
0.0185425
-0.0157653
0.0122225
0.0225735
-0.0196207
0.0155897
0.0270477
-0.0237729
0.0192986
0.0318813
-0.0281317
0.0232981
0.0369542
-0.0325843
0.0275114
0.0421188
-0.0370038
0.0318392
0.0472143
-0.0412612
0.0361658
0.0520836
-0.0452384
0.0403691
0.0565907
-0.0488394
0.0443323
0.0606346
-0.0519992
0.0479552
0.0641588
-0.0546873
0.0511632
0.067153
-0.056907
0.0539128
0.0696495
-0.0586897
0.0561932
0.0717136
-0.0600864
0.0580224
0.0734315
-0.0611593
0.0594414
0.074898
-0.0619721
0.0605056
0.0762058
-0.0625844
0.0612765
0.0774381
-0.0630469
0.0618146
0.0786638
-0.0634011
0.0621754
0.0799376
-0.0636769
0.062403
0.0813003
-0.0639011
0.0625385
0.0827718
-0.0640775
0.062606
0.084372
-0.0642362
0.062636
0.0859845
-0.0643128
0.0627003
-0.064356
0.0627708
0.0875696
7.268e-05
0.000470979
0.000302741
0.00104763
0.000700799
0.00123658
0.00128189
0.00102072
0.00207074
0.000396517
0.0031039
-0.000637194
0.00442898
-0.00208491
0.00610208
-0.00395633
0.008183
-0.00626429
0.010728
-0.00901909
0.0137803
-0.0122204
0.0173597
-0.0158487
0.021452
-0.0198576
0.0260016
-0.0241703
0.0309092
-0.0286805
0.0360371
-0.0332596
0.0412209
-0.0377681
0.0462869
-0.0420698
0.0510719
-0.0460462
0.0554414
-0.0496079
0.0593039
-0.0527018
0.0626174
-0.0553127
0.0653894
-0.0574594
0.0676692
-0.0591867
0.0695353
-0.0605558
0.0710823
-0.0616334
0.0724072
-0.0624842
0.0736001
-0.063165
0.0747376
-0.0637219
0.0758812
-0.0641905
0.0770772
-0.0645971
0.0783604
-0.06496
0.0797535
-0.0652943
0.0812806
-0.0656046
0.0829574
-0.0659129
0.0848403
-0.0661957
-0.0665578
0.0870421
5.66894e-05
0.00041429
0.000268483
0.000835841
0.000667493
0.000837574
0.00128603
0.000402182
0.00216375
-0.000481206
0.00335022
-0.00182366
0.00490397
-0.00363865
0.00688811
-0.00594047
0.00936242
-0.00873861
0.0123725
-0.0120291
0.0159369
-0.0157849
0.020036
-0.0199477
0.0246031
-0.0244247
0.0295242
-0.0290914
0.034645
-0.0338013
0.0397864
-0.038401
0.0447654
-0.0427471
0.0494167
-0.0467212
0.0536124
-0.0502419
0.057274
-0.0532695
0.060377
-0.0558048
0.0629464
-0.0578821
0.0650457
-0.0595587
0.0667626
-0.0609037
0.0681938
-0.061987
0.0694328
-0.0628724
0.0705619
-0.0636133
0.0716482
-0.0642512
0.0727431
-0.0648169
0.073885
-0.0653324
0.0751017
-0.0658138
0.0764135
-0.0662719
0.0778369
-0.0667177
0.0793861
-0.0671538
0.0810725
-0.0675992
0.0829109
-0.0680341
-0.068523
0.0848761
4.64075e-05
0.000367882
0.000253041
0.000629208
0.000672893
0.000417722
0.00135662
-0.00028154
0.00236009
-0.00148468
0.00374627
-0.00320984
0.00558227
-0.00547466
0.00793171
-0.00828991
0.0108429
-0.0116498
0.0143346
-0.0155208
0.0183828
-0.0198332
0.0229122
-0.0244771
0.0277955
-0.0293081
0.0328642
-0.0341601
0.0379268
-0.0388638
0.0427928
-0.0432671
0.0472975
-0.0472517
0.0513201
-0.0507439
0.0547955
-0.0537173
0.0577143
-0.0561882
0.0601151
-0.0582057
0.0620712
-0.0598381
0.0636737
-0.0611612
0.0650176
-0.0622475
0.0661902
-0.0631596
0.0672658
-0.0639481
0.068303
-0.0646505
0.069346
-0.0652942
0.0704273
-0.0658981
0.0715706
-0.0664756
0.0727934
-0.0670366
0.0741095
-0.067588
0.0755302
-0.0681383
0.0770653
-0.0686889
0.0787256
-0.0692595
0.0805175
-0.069826
-0.0704671
0.0824616
4.44284e-05
0.000323454
0.000265158
0.000408479
0.000734241
-5.1361e-05
0.00152024
-0.00106754
0.00269444
-0.00265889
0.00433045
-0.00484584
0.00649753
-0.00764174
0.00924879
-0.0110412
0.0126058
-0.0150067
0.0165434
-0.0194585
0.0209804
-0.0242702
0.0257795
-0.0292761
0.0307593
-0.0342879
0.0357171
-0.0391179
0.0404558
-0.0436026
0.0448105
-0.0476217
0.048667
-0.0511082
0.051971
-0.0540479
0.0547257
-0.0564719
0.0569801
-0.0584427
0.0588137
-0.0600393
0.0603193
-0.0613437
0.0615887
-0.0624307
0.0627039
-0.0633626
0.063732
-0.0641878
0.064725
-0.064941
0.0657212
-0.0656468
0.0667486
-0.0663216
0.067827
-0.0669766
0.0689713
-0.0676199
0.0701926
-0.0682579
0.0715003
-0.0688957
0.0729014
-0.0695394
0.0744037
-0.0701913
0.0760105
-0.0708663
0.0777271
-0.0715426
-0.0722913
0.0795513
5.19823e-05
0.000271472
0.000309232
0.000151229
0.00086013
-0.000602259
0.00178888
-0.00199629
0.00317897
-0.00404898
0.00510839
-0.00677526
0.00763837
-0.0101717
0.0107972
-0.0142
0.0145635
-0.018773
0.0188546
-0.0237496
0.0235266
-0.0289421
0.0283878
-0.0341373
0.0332248
-0.0391249
0.0378331
-0.0437262
0.0420458
-0.0478153
0.045753
-0.0513289
0.0489083
-0.0542636
0.0515241
-0.0566636
0.0536568
-0.0586047
0.05539
-0.0601759
0.0568163
-0.0614656
0.0580242
-0.0625517
0.0590906
-0.063497
0.0600764
-0.0643485
0.061028
-0.0651394
0.0619789
-0.0658919
0.0629529
-0.0666208
0.063967
-0.0673357
0.0650338
-0.0680434
0.0661628
-0.0687489
0.0673618
-0.0694569
0.0686374
-0.0701713
0.0699952
-0.0708973
0.0714409
-0.0716369
0.0729772
-0.0724026
0.07461
-0.0731754
-0.0740214
0.0763401
6.89059e-05
0.000202566
0.000385179
-0.000165044
0.00104995
-0.00126703
0.0021594
-0.00310574
0.00380328
-0.00569285
0.00605468
-0.00902667
0.00895363
-0.0130707
0.0124883
-0.0177347
0.0165809
-0.0228656
0.0210857
-0.0282544
0.0258036
-0.03366
0.0305107
-0.0388444
0.0349933
-0.0436075
0.0390796
-0.0478125
0.0426599
-0.0513956
0.0456919
-0.054361
0.0481935
-0.0567651
0.0502259
-0.058696
0.0518747
-0.0602535
0.0532319
-0.0615331
0.0543833
-0.062617
0.0554013
-0.0635697
0.0563425
-0.0644382
0.0572488
-0.0652548
0.0581502
-0.0660408
0.0590676
-0.0668093
0.0600159
-0.0675691
0.0610059
-0.0683257
0.062046
-0.0690834
0.063143
-0.0698459
0.0643028
-0.0706167
0.0655307
-0.0713992
0.066831
-0.0721976
0.0682082
-0.0730141
0.0696639
-0.0738583
0.0712031
-0.0747145
-0.0756409
0.0728226
9.4013e-05
0.000108553
0.000489426
-0.000560457
0.00129621
-0.00207381
0.00261718
-0.00442671
0.00454016
-0.00761584
0.00712157
-0.0116081
0.0103657
-0.0163148
0.014207
-0.021576
0.0185046
-0.0271632
0.0230557
-0.0328055
0.0276266
-0.0382309
0.0319922
-0.04321
0.0359714
-0.0475868
0.0394499
-0.051291
0.0423849
-0.0543306
0.0447962
-0.0567722
0.0467474
-0.0587163
0.0483251
-0.0602738
0.0496211
-0.0615494
0.0507191
-0.0626311
0.0516887
-0.0635866
0.0525833
-0.0644643
0.0534417
-0.0652966
0.0542913
-0.0661044
0.0551506
-0.0669001
0.0560329
-0.0676916
0.0569475
-0.0684837
0.0579018
-0.06928
0.0589018
-0.0700834
0.0599527
-0.0708968
0.0610592
-0.0717232
0.0622255
-0.0725655
0.0634552
-0.0734273
0.064752
-0.074311
0.0661169
-0.0752232
0.0675548
-0.0761524
-0.0771479
0.0690618
0.000125745
-1.71928e-05
0.000616838
-0.00105155
0.00158776
-0.00304473
0.0031412
-0.00598016
0.00535289
-0.00982753
0.00824916
-0.0145043
0.0117848
-0.0198504
0.0158319
-0.0256231
0.0201898
-0.0315211
0.0246169
-0.0372326
0.0288741
-0.0424882
0.0327666
-0.0471025
0.0361695
-0.0509897
0.0390345
-0.0541559
0.0413792
-0.0566754
0.0432675
-0.0586605
0.0447866
-0.0602353
0.046028
-0.0615153
0.0470749
-0.0625963
0.0479951
-0.0635513
0.0488402
-0.0644317
0.049647
-0.0652711
0.0504409
-0.0660905
0.0512388
-0.0669023
0.0520527
-0.0677139
0.0528908
-0.0685297
0.0537596
-0.0693526
0.0546646
-0.070185
0.0556105
-0.0710293
0.0566015
-0.0718878
0.0576415
-0.0727632
0.0587341
-0.0736582
0.0598824
-0.0745756
0.0610892
-0.0755178
0.0623553
-0.0764893
0.0636848
-0.0774819
-0.0785349
0.0650719
0.000162687
-0.00017988
0.000762188
-0.00165105
0.00191252
-0.00419507
0.00370809
-0.00777572
0.00620075
-0.0123202
0.00937312
-0.0176767
0.01312
-0.0235973
0.017251
-0.0297541
0.0215203
-0.0357904
0.025674
-0.0413862
0.0294982
-0.0463124
0.0328513
-0.0504556
0.0356733
-0.0538116
0.0379755
-0.0564582
0.0398194
-0.0585193
0.0412921
-0.0601332
0.0424856
-0.0614289
0.0434834
-0.062513
0.0443533
-0.0634661
0.045146
-0.0643441
0.0458975
-0.0651832
0.046632
-0.0660056
0.0473656
-0.066824
0.048109
-0.0676457
0.0488698
-0.0684748
0.049654
-0.0693138
0.0504662
-0.0701648
0.0513108
-0.0710295
0.0521915
-0.07191
0.0531119
-0.0728083
0.0540755
-0.0737267
0.0550851
-0.0746678
0.0561434
-0.0756339
0.0572525
-0.0766269
0.0584128
-0.0776496
0.0596278
-0.0786968
-0.0797982
0.0608911
0.000203811
-0.00038369
0.000920797
-0.00236804
0.00225861
-0.00553288
0.00429379
-0.0098109
0.00704175
-0.0150681
0.0104296
-0.0210646
0.0142881
-0.0274558
0.0183744
-0.0338403
0.0224207
-0.0398367
0.02619
-0.0451556
0.029517
-0.0496394
0.0323228
-0.0532614
0.0346072
-0.0560961
0.0364264
-0.0582773
0.0378661
-0.059959
0.0390194
-0.0612865
0.0399713
-0.0623807
0.0407907
-0.0633324
0.041529
-0.0642045
0.0422223
-0.0650374
0.0428944
-0.0658553
0.0435609
-0.066672
0.0442318
-0.067495
0.0449144
-0.0683283
0.0456137
-0.0691742
0.0463342
-0.0700343
0.0470796
-0.0709102
0.0478535
-0.0718034
0.0486589
-0.0727155
0.0494992
-0.0736485
0.050377
-0.0746046
0.051295
-0.0755858
0.0522552
-0.076594
0.0532591
-0.0776308
0.054307
-0.0786974
0.0554011
-0.079791
-0.0809323
0.0565352
0.000248298
-0.000631989
0.0010883
-0.00320804
0.00261411
-0.00705869
0.00487371
-0.0120705
0.00783405
-0.0180285
0.0113593
-0.0245898
0.0152208
-0.0313173
0.019142
-0.0377615
0.0228604
-0.0435552
0.02618
-0.0484752
0.0289952
-0.0524546
0.0312876
-0.0555537
0.0331034
-0.057912
0.0345257
-0.0596996
0.0356484
-0.0610817
0.036559
-0.0621971
0.037329
-0.0631508
0.0380119
-0.0640153
0.0386448
-0.0648374
0.0392519
-0.0656445
0.0398488
-0.0664522
0.0404455
-0.0672686
0.0410485
-0.068098
0.0416628
-0.0689425
0.0422922
-0.0698036
0.0429403
-0.0706824
0.04361
-0.07158
0.0443044
-0.0724978
0.0450264
-0.0734374
0.0457786
-0.0744007
0.0465634
-0.0753894
0.0473829
-0.0764054
0.0482388
-0.0774499
0.0491319
-0.0785239
0.0500622
-0.0796277
0.0510312
-0.08076
-0.0819337
0.0520325
0.000295339
-0.000927327
0.00126011
-0.00417281
0.00296643
-0.00876501
0.00542268
-0.0145268
0.00853767
-0.0211435
0.0121118
-0.028164
0.0158702
-0.0350757
0.0195269
-0.0414182
0.0228494
-0.0468776
0.0256963
-0.0513221
0.0280224
-0.0547807
0.0298586
-0.0573899
0.0312818
-0.0593351
0.0323861
-0.0608039
0.0332623
-0.0619579
0.0339859
-0.0629207
0.0346137
-0.0637785
0.0351849
-0.0645866
0.0357254
-0.0653778
0.036251
-0.0661701
0.0367719
-0.0669731
0.0372945
-0.0677913
0.0378236
-0.068627
0.0383625
-0.0694815
0.0389146
-0.0703556
0.0394825
-0.0712503
0.0400689
-0.0721664
0.0406766
-0.0731054
0.0413078
-0.0740687
0.041965
-0.0750579
0.0426503
-0.0760747
0.0433653
-0.0771204
0.0441112
-0.0781958
0.0448884
-0.0793012
0.0456969
-0.0804362
0.0465373
-0.0816004
-0.0828007
0.0474044
0.000343922
-0.00127125
0.00143103
-0.00525991
0.00330212
-0.0106361
0.00591573
-0.0171404
0.00911716
-0.0243449
0.0126498
-0.0316967
0.0162124
-0.0386383
0.0195336
-0.0447394
0.0224277
-0.0497717
0.0248122
-0.0537066
0.0266942
-0.0566627
0.0281397
-0.0588354
0.0292413
-0.0604366
0.0300928
-0.0616555
0.0307751
-0.0626402
0.0313496
-0.0634953
0.0318594
-0.0642883
0.0323322
-0.0650594
0.0327853
-0.0658309
0.0332294
-0.0666142
0.033671
-0.0674147
0.0341146
-0.0682349
0.0345635
-0.0690759
0.0350206
-0.0699386
0.0354884
-0.0708235
0.0359695
-0.0717313
0.0364661
-0.072663
0.0369804
-0.0736198
0.0375148
-0.074603
0.0380712
-0.0756143
0.0386514
-0.0766549
0.0392567
-0.0777257
0.039888
-0.0788271
0.0405455
-0.0799587
0.041229
-0.0811197
0.0419387
-0.0823102
-0.0835327
0.0426707
0.00039275
-0.001664
0.00159517
-0.00646234
0.00360732
-0.0126482
0.00632978
-0.0198628
0.00954474
-0.0275599
0.0129522
-0.0351041
0.0162465
-0.0419326
0.0191906
-0.0476835
0.0216535
-0.0522346
0.0236075
-0.0556606
0.0251
-0.0581553
0.0262181
-0.0599535
0.0270583
-0.0612768
0.0277071
-0.0623043
0.0282323
-0.0631654
0.0286819
-0.0639449
0.0290871
-0.0646935
0.0294674
-0.0654396
0.0298341
-0.0661977
0.0301943
-0.0669744
0.0305524
-0.0677728
0.0309118
-0.0685942
0.0312751
-0.0694392
0.0316445
-0.0703081
0.0320224
-0.0712014
0.0324109
-0.0721198
0.0328119
-0.0730641
0.0332276
-0.0740354
0.0336598
-0.0750352
0.0341102
-0.0760648
0.0345805
-0.0771251
0.0350717
-0.0782169
0.0355843
-0.0793397
0.0361184
-0.0804928
0.0366739
-0.0816752
0.0372509
-0.0828872
-0.0841284
0.0378466
0.000440231
-0.00210423
0.00174623
-0.00776834
0.00386865
-0.0147707
0.0066456
-0.0226398
0.0098025
-0.0307168
0.0130139
-0.0383155
0.0159905
-0.0449092
0.0185417
-0.0502348
0.0205916
-0.0542845
0.0221582
-0.0572272
0.0233163
-0.0593134
0.0241624
-0.0607996
0.0247889
-0.0619033
0.0252711
-0.0627866
0.0256637
-0.063558
0.0260026
-0.0642838
0.0263101
-0.065001
0.0265994
-0.0657289
0.0268782
-0.0664764
0.0271511
-0.0672473
0.0274215
-0.0680432
0.027692
-0.0688647
0.0279645
-0.0697118
0.0282413
-0.0705849
0.0285242
-0.0714843
0.028815
-0.0724106
0.0291156
-0.0733646
0.0294277
-0.0743476
0.0297531
-0.0753606
0.0300932
-0.0764049
0.0304494
-0.0774813
0.0308224
-0.0785899
0.0312126
-0.0797299
0.0316201
-0.0809003
0.0320449
-0.0821
0.0324871
-0.0833293
-0.0845864
0.0329451
0.000484537
-0.00258877
0.00187789
-0.00916168
0.00407441
-0.0169672
0.00684946
-0.0254148
0.00988323
-0.0337505
0.0128441
-0.0412764
0.0154752
-0.0475403
0.0176376
-0.0523972
0.0193052
-0.0559521
0.0205306
-0.0584525
0.0214046
-0.0601874
0.0220242
-0.0614192
0.0224729
-0.0623521
0.0228136
-0.0631273
0.0230887
-0.0638331
0.0233247
-0.0645197
0.023537
-0.0652134
0.0237347
-0.0659266
0.0239229
-0.0666647
0.0241052
-0.0674296
0.0242838
-0.0682219
0.024461
-0.0690418
0.0246386
-0.0698893
0.0248182
-0.0707645
0.0250017
-0.0716677
0.0251906
-0.0725995
0.0253866
-0.0735606
0.0255911
-0.0745521
0.0258057
-0.0755752
0.0260318
-0.0766309
0.0262702
-0.0777198
0.0265218
-0.0788415
0.0267867
-0.0799948
0.0270648
-0.0811784
0.0273563
-0.0823914
0.027661
-0.083634
-0.084904
0.0279786
0.000524074
-0.00311284
0.00198501
-0.0106226
0.00421619
-0.0191984
0.00693432
-0.0281329
0.00978959
-0.0366058
0.0124622
-0.043949
0.014738
-0.049816
0.0165293
-0.0541884
0.0178513
-0.0572741
0.0187802
-0.0593814
0.0194133
-0.0608205
0.0198421
-0.061848
0.0201389
-0.0626489
0.0203545
-0.0633428
0.020521
-0.0639996
0.0206576
-0.0646562
0.0207749
-0.0653307
0.0208792
-0.0660309
0.0209741
-0.0667596
0.0210622
-0.0675177
0.0211455
-0.0683052
0.0212257
-0.0691221
0.0213045
-0.0699681
0.0213834
-0.0708434
0.0214637
-0.0717481
0.0215471
-0.0726828
0.0216348
-0.0736483
0.0217283
-0.0746456
0.0218289
-0.0756758
0.0219376
-0.0767397
0.0220555
-0.0778376
0.0221829
-0.0789689
0.02232
-0.080132
0.0224669
-0.0813252
0.0226233
-0.0825478
0.0227889
-0.0837997
-0.085079
0.0229639
0.000558515
-0.00367136
0.00206494
-0.012129
0.00428977
-0.0214232
0.00689996
-0.0307431
0.00953288
-0.0392387
0.0118953
-0.0463114
0.0138205
-0.0517412
0.0152669
-0.0556349
0.0162815
-0.0582886
0.016954
-0.0600539
0.0173812
-0.0612478
0.0176458
-0.0621125
0.0178084
-0.0628115
0.017909
-0.0634434
0.0179716
-0.0640622
0.0180098
-0.0646944
0.018031
-0.065352
0.0180397
-0.0660396
0.0180385
-0.0667584
0.0180295
-0.0675086
0.0180142
-0.06829
0.0179943
-0.0691022
0.0179712
-0.0699449
0.0179461
-0.0708183
0.0179203
-0.0717223
0.017895
-0.0726576
0.0178716
-0.0736249
0.0178511
-0.0746251
0.0178348
-0.0756594
0.0178236
-0.0767285
0.0178183
-0.0778323
0.0178194
-0.07897
0.0178269
-0.0801396
0.017841
-0.0813393
0.0178616
-0.0825684
0.0178885
-0.0838266
0.0179228
-0.0851133
-0.000131406
7.75174e-05
5.38881e-05
-0.000446369
-0.00057609
0.000891053
-0.000909134
-0.00166597
0.00212873
-0.00150411
-0.00291866
0.00351364
-0.00222304
-0.00415996
0.00487889
-0.00305683
-0.00530991
0.0061437
-0.0039923
-0.00636242
0.00729789
-0.00501276
-0.00735699
0.00837745
-0.00610047
-0.00835062
0.00943833
-0.00723895
-0.00939694
0.0105354
-0.008414
-0.0105356
0.0117106
-0.00961325
-0.0117901
0.0129894
-0.0108249
-0.0131711
0.0143827
-0.0120359
-0.01468
0.015891
-0.013231
-0.0163124
0.0175074
-0.0143914
-0.0180593
0.0192197
-0.0154945
-0.0199077
0.0210108
-0.0165136
-0.0218396
0.0228587
-0.0174178
-0.0238319
0.024736
-0.018172
-0.0258553
0.0266095
-0.0187382
-0.0278741
0.0284403
-0.0190757
-0.0298461
0.0301836
-0.0191429
-0.031723
0.0317901
-0.0188985
-0.0334511
0.0332067
-0.0183038
-0.034973
0.0343783
-0.0173242
-0.0362294
0.0352499
-0.0159312
-0.037162
0.035769
-0.0141033
-0.0377155
0.0358876
-0.011828
-0.0378407
0.0355653
-0.00909975
-0.0374959
0.0347677
-0.00591991
-0.0366481
0.0334683
-0.00229821
-0.0352739
0.0316522
0.00173933
-0.0333541
0.0293166
0.00618003
-0.0308934
0.0264527
0.0109926
-0.0278894
0.0230767
0.0161403
-0.0243591
0.0192114
-0.0203279
0.0215902
0.014878
-0.000160565
0.000238082
-0.000547921
-0.000188734
-0.00111355
-0.00110034
-0.00183064
-0.00220157
-0.00268206
-0.00330853
-0.00365332
-0.00433865
-0.0047296
-0.00528614
-0.00589593
-0.00619066
-0.00713859
-0.00710796
-0.00844621
-0.00808932
-0.00980982
-0.00917196
-0.0112219
-0.0103781
-0.0126747
-0.0117183
-0.0141591
-0.0131956
-0.0156632
-0.0148083
-0.0171716
-0.0165509
-0.018665
-0.0184143
-0.0201196
-0.020385
-0.021507
-0.0224445
-0.0227942
-0.0245681
-0.0239436
-0.0267247
-0.0249136
-0.0288761
-0.0256596
-0.030977
-0.0261353
-0.0329754
-0.0262944
-0.0348138
-0.0260934
-0.0364305
-0.025493
-0.0377623
-0.0244613
-0.0387472
-0.0229748
-0.0393273
-0.021019
-0.0394516
-0.0185888
-0.0390783
-0.0156871
-0.0381757
-0.0123173
-0.0367239
-0.00849652
-0.0347142
-0.0042452
-0.0321407
0.000387255
-0.0289915
-0.0253056
0.00536499
-0.000182287
0.000420369
-0.000625027
0.000254006
-0.00126939
-0.000455978
-0.00207869
-0.00139227
-0.00302804
-0.00235919
-0.00409848
-0.00326821
-0.0052743
-0.00411032
-0.00654251
-0.00492245
-0.00789318
-0.00575729
-0.0093194
-0.00666311
-0.0108165
-0.00767484
-0.0123808
-0.00881373
-0.0140083
-0.0100908
-0.0156929
-0.0115109
-0.0174264
-0.0130748
-0.0191972
-0.0147801
-0.0209902
-0.0166214
-0.0227859
-0.0185893
-0.0245609
-0.0206695
-0.0262866
-0.0228424
-0.0279296
-0.0250817
-0.0294514
-0.0273543
-0.0308087
-0.0296197
-0.0319541
-0.03183
-0.0328376
-0.0339304
-0.0334083
-0.0358598
-0.0336171
-0.0375535
-0.0334197
-0.0389446
-0.0327789
-0.0399681
-0.0316671
-0.0405634
-0.0300677
-0.0406778
-0.0279744
-0.0402689
-0.0253907
-0.0393076
-0.0223285
-0.0377764
-0.0188087
-0.0356605
-0.0148676
-0.0329326
-0.0295856
-0.0105877
-0.000194211
0.000614581
-0.000670994
0.000730789
-0.00136508
0.000238104
-0.00223225
-0.000525096
-0.00324114
-0.0013503
-0.00436915
-0.0021402
-0.0056
-0.00287948
-0.00692248
-0.00359996
-0.00832977
-0.00435
-0.00981836
-0.00517452
-0.0113867
-0.00610646
-0.0130339
-0.00716655
-0.0147581
-0.00836663
-0.0165559
-0.00971312
-0.0184216
-0.0112091
-0.0203466
-0.012855
-0.0223197
-0.0146483
-0.0243261
-0.0165829
-0.0263476
-0.018648
-0.028362
-0.0208279
-0.0303429
-0.0231008
-0.0322588
-0.0254383
-0.0340734
-0.0278051
-0.0357449
-0.0301585
-0.0372266
-0.0324487
-0.0384677
-0.0346188
-0.039415
-0.0366061
-0.0400156
-0.038344
-0.0402199
-0.0397638
-0.039985
-0.0407983
-0.0392778
-0.0413849
-0.0380774
-0.0414694
-0.0363744
-0.0410105
-0.0341704
-0.0399805
-0.0314788
-0.038352
-0.0283338
-0.0360776
-0.0331429
-0.0247765
-0.000195034
0.000809615
-0.000681772
0.00121753
-0.0013939
0.00095023
-0.00228201
0.000363014
-0.00331015
-0.000322161
-0.00445267
-0.000997677
-0.00569264
-0.0016395
-0.00701997
-0.00227263
-0.00842998
-0.00294
-0.00992134
-0.00368315
-0.0114944
-0.00453339
-0.0131496
-0.00551133
-0.0148865
-0.0066298
-0.0167027
-0.00789689
-0.0185941
-0.00931773
-0.0205541
-0.010895
-0.0225741
-0.0126284
-0.0246429
-0.0145141
-0.0267468
-0.0165441
-0.0288697
-0.0187051
-0.0309925
-0.020978
-0.0330929
-0.0233379
-0.0351448
-0.0257532
-0.0371174
-0.0281859
-0.0389747
-0.0305913
-0.040675
-0.0329185
-0.0421709
-0.0351103
-0.0434103
-0.0371046
-0.0443385
-0.0388355
-0.0449018
-0.0402351
-0.0450503
-0.0412364
-0.0447427
-0.041777
-0.0439493
-0.0418039
-0.042653
-0.0412768
-0.0408457
-0.0401593
-0.0385237
-0.0383995
-0.0359705
-0.0356962
-0.000184407
0.000994021
-0.000656182
0.0016893
-0.00135343
0.00164747
-0.00222547
0.00123506
-0.00323245
0.000684819
-0.00434667
0.000116536
-0.00555029
-0.000435879
-0.00683304
-0.000989882
-0.00819169
-0.00158134
-0.00962559
-0.00224925
-0.0111357
-0.00302327
-0.0127228
-0.00392424
-0.0143864
-0.00496624
-0.0161242
-0.00615906
-0.0179322
-0.00750977
-0.0198042
-0.00902292
-0.0217324
-0.0107002
-0.0237072
-0.0125394
-0.0257173
-0.014534
-0.0277505
-0.0166719
-0.0297931
-0.0189354
-0.0318307
-0.0213004
-0.0338472
-0.0237367
-0.0358249
-0.0262082
-0.0377431
-0.0286731
-0.039577
-0.0310846
-0.0412958
-0.0333915
-0.0428618
-0.0355386
-0.04423
-0.0374673
-0.0453485
-0.0391166
-0.0461609
-0.0404239
-0.0466108
-0.0413271
-0.0466481
-0.0417666
-0.0462338
-0.0416911
-0.0453296
-0.0410636
-0.0438794
-0.0398497
-0.0379956
-0.0418542
-0.000162924
0.00115695
-0.000595665
0.00212204
-0.00124617
0.00229798
-0.00206556
0.00205445
-0.00301346
0.00163272
-0.00405918
0.00116226
-0.00518278
0.000687718
-0.00637284
0.000200179
-0.00762845
-0.000325735
-0.00894664
-0.000931057
-0.0103284
-0.00164154
-0.0117736
-0.00247899
-0.013281
-0.00345887
-0.0148472
-0.00459281
-0.0164673
-0.00588974
-0.0181341
-0.00735605
-0.0198392
-0.00899504
-0.0215726
-0.010806
-0.0233233
-0.0127833
-0.0250798
-0.0149154
-0.0268306
-0.0171846
-0.0285649
-0.019566
-0.0302731
-0.0220285
-0.0319467
-0.0245346
-0.0335786
-0.0270413
-0.0351613
-0.0295019
-0.0366859
-0.0318669
-0.0381392
-0.0340852
-0.039501
-0.0361056
-0.0407412
-0.0378764
-0.0418186
-0.0393466
-0.0426817
-0.040464
-0.0432751
-0.0411732
-0.0435476
-0.0414186
-0.0434447
-0.0411665
-0.0428722
-0.0404223
-0.0391395
-0.0417283
-0.000132105
0.00128905
-0.000504272
0.00249421
-0.00107915
0.00287286
-0.00181311
0.00278841
-0.00266554
0.00248514
-0.00360446
0.00210119
-0.00460837
0.00169163
-0.00566637
0.00125817
-0.0067695
0.000777399
-0.00791754
0.000216983
-0.00911043
-0.000448648
-0.0103459
-0.00124354
-0.0116208
-0.002184
-0.0129301
-0.0032835
-0.014267
-0.00455284
-0.0156229
-0.00600015
-0.0169876
-0.00763027
-0.0183499
-0.00944372
-0.0196975
-0.0114357
-0.021018
-0.0135949
-0.0222996
-0.015903
-0.0235317
-0.0183339
-0.0247062
-0.0208541
-0.0258182
-0.0234225
-0.026867
-0.0259925
-0.0278559
-0.0285129
-0.0287922
-0.0309306
-0.0296848
-0.0331926
-0.0305417
-0.0352487
-0.0313654
-0.0370527
-0.0321485
-0.0385635
-0.0328687
-0.0397438
-0.0334883
-0.0405536
-0.0339605
-0.0409464
-0.0342426
-0.0408844
-0.0342587
-0.0404061
-0.0395647
-0.0338335
-9.42384e-05
0.00138329
-0.000388322
0.00278829
-0.000863214
0.00334775
-0.00148331
0.0034085
-0.00220996
0.0032118
-0.00301009
0.00290131
-0.0038598
0.00254134
-0.00474437
0.00214274
-0.00565523
0.00168826
-0.0065887
0.00115045
-0.00754003
0.000502688
-0.00850702
-0.000276552
-0.00948388
-0.00120714
-0.0104633
-0.00230404
-0.0114364
-0.00357973
-0.0123927
-0.00504393
-0.0133201
-0.00670282
-0.0142058
-0.00855801
-0.0150362
-0.0106053
-0.0157976
-0.0128335
-0.0164769
-0.0152237
-0.0170628
-0.017748
-0.0175466
-0.0203702
-0.0179236
-0.0230456
-0.0181937
-0.0257224
-0.0183635
-0.0283432
-0.018446
-0.0308482
-0.0184607
-0.0331779
-0.0184321
-0.0352772
-0.0183873
-0.0370974
-0.0183511
-0.0385997
-0.0183402
-0.0397547
-0.0183536
-0.0405402
-0.0183661
-0.0409338
-0.018329
-0.0409215
-0.018373
-0.0403621
-0.0399995
-0.0179382
-5.2157e-05
0.00143545
-0.00025583
0.00299197
-0.000612207
0.00370413
-0.00109599
0.00389229
-0.00167219
0.00378799
-0.0023073
0.00353643
-0.00297498
0.00320902
-0.00365719
0.00282495
-0.00434246
0.00237354
-0.00502354
0.00183152
-0.00569438
0.00117353
-0.0063472
0.000376271
-0.00697573
-0.000578605
-0.00756991
-0.00170986
-0.00811873
-0.00303092
-0.00860979
-0.00455287
-0.00902963
-0.00628298
-0.00936399
-0.00822364
-0.00959823
-0.0103711
-0.00971784
-0.0127139
-0.00970928
-0.0152322
-0.0095609
-0.0178964
-0.00926411
-0.020667
-0.00881475
-0.023495
-0.00821262
-0.0263245
-0.00746587
-0.0290899
-0.0065879
-0.0317261
-0.0056003
-0.0341655
-0.00453115
-0.0363464
-0.00341277
-0.0382158
-0.00228319
-0.0397293
-0.00117977
-0.0408582
-0.000135096
-0.0415848
0.000833423
-0.0419024
0.00172354
-0.0418116
0.00280367
-0.0414423
-0.0401263
0.00293049
-9.01213e-06
0.00144446
-0.000115962
0.00309892
-0.000342301
0.00393047
-0.000674532
0.00422452
-0.00108277
0.00419623
-0.00153415
0.0039878
-0.00200023
0.0036751
-0.00245956
0.00328429
-0.002897
0.00281098
-0.00330155
0.00223607
-0.00366392
0.0015359
-0.0039746
0.000686953
-0.00422303
-0.000330177
-0.00439784
-0.00153505
-0.00448613
-0.00294262
-0.00447397
-0.00456502
-0.00434662
-0.00641033
-0.00408919
-0.00848107
-0.00368648
-0.0107738
-0.00312392
-0.0132765
-0.00238857
-0.0159676
-0.00146991
-0.0188151
-0.000361183
-0.0217757
0.000939677
-0.0247958
0.00242542
-0.0278103
0.00408662
-0.0307511
0.00590353
-0.033543
0.00785336
-0.0361154
0.00990886
-0.0384019
0.0120378
-0.0403447
0.0142111
-0.0419027
0.0163977
-0.0430448
0.0185717
-0.0437588
0.0207095
-0.0440402
0.022825
-0.0439271
0.0247367
-0.0433539
-0.0424088
0.0270192
3.22216e-05
0.00141224
2.21195e-05
0.00310902
-7.07062e-05
0.00402329
-0.000244293
0.00439811
-0.000475214
0.00442715
-0.00073242
0.00424501
-0.000986117
0.0039288
-0.00121175
0.00350992
-0.00139039
0.00298962
-0.00150721
0.00235289
-0.0015495
0.00157819
-0.00150533
0.000642786
-0.00136114
-0.000474366
-0.00110391
-0.00179229
-0.000718968
-0.00332756
-0.000191106
-0.00509289
0.000495185
-0.00709662
0.00135622
-0.00934211
0.00240683
-0.0118244
0.00366028
-0.0145299
0.00512737
-0.0174347
0.0068145
-0.0205022
0.00872245
-0.0236837
0.0108446
-0.026918
0.013168
-0.0301337
0.01567
-0.0332531
0.0183234
-0.0361964
0.0210954
-0.0388873
0.0239518
-0.0412583
0.0268625
-0.0432554
0.0298001
-0.0448403
0.0327481
-0.0459928
0.0357001
-0.0467109
0.038658
-0.0469981
0.0416361
-0.0469052
0.0446457
-0.0463635
-0.0457178
0.0479547
6.84268e-05
0.00134381
0.000148437
0.00302901
0.000185334
0.0039864
0.000169144
0.0044143
0.000116342
0.00447995
5.51303e-05
0.00430622
1.56592e-05
0.00396827
2.49454e-05
0.00350063
0.000105392
0.00290917
0.00027551
0.00218277
0.000551505
0.00130219
0.000948122
0.000246169
0.00148145
-0.00100769
0.00216728
-0.00247812
0.00302172
-0.00418201
0.00406163
-0.00613279
0.00530417
-0.00833917
0.00676515
-0.0108031
0.00845902
-0.0135183
0.0103969
-0.0164678
0.0125846
-0.0196224
0.0150207
-0.0229383
0.0176946
-0.0263577
0.0205861
-0.0298094
0.023665
-0.0332126
0.0268928
-0.0364809
0.0302257
-0.0395293
0.0336186
-0.0422802
0.0370291
-0.0446689
0.0404225
-0.0466488
0.0437747
-0.0481924
0.0470751
-0.0492932
0.0503271
-0.0499628
0.0535508
-0.0502219
0.0567825
-0.0501369
0.0600745
-0.0496555
-0.0491796
0.0635364
9.75655e-05
0.00124624
0.000256053
0.00287052
0.000410636
0.00383181
0.000542017
0.00428291
0.000659608
0.00436236
0.000787829
0.004178
0.000956147
0.00379995
0.00119317
0.00326361
0.00152426
0.00257808
0.00197148
0.00173556
0.00255442
0.000719248
0.00329221
-0.000491618
0.00420279
-0.00191827
0.00530495
-0.00358028
0.00661798
-0.00549503
0.00816106
-0.00767588
0.00995244
-0.0101305
0.0120082
-0.0128589
0.0143403
-0.0158503
0.0169535
-0.0190811
0.0198436
-0.0225124
0.0229942
-0.0260889
0.026376
-0.0297394
0.0299467
-0.0333802
0.0336534
-0.0369193
0.0374363
-0.0402638
0.0412341
-0.0433272
0.04499
-0.046036
0.0486569
-0.0483357
0.0522019
-0.0501938
0.0556091
-0.0515996
0.0588811
-0.0525653
0.0620354
-0.0531171
0.0651083
-0.0532949
0.0681361
-0.0531646
0.0711882
-0.0527076
-0.0522311
0.0742397
0.000118001
0.00112824
0.000338611
0.00264991
0.000592711
0.00357771
0.000854392
0.00402123
0.00112689
0.00408986
0.00143056
0.00387433
0.00179336
0.00343715
0.00224474
0.00281223
0.00281257
0.00201025
0.00352219
0.00102593
0.00439758
-0.000156139
0.00546207
-0.00155611
0.0067377
-0.0031939
0.00824748
-0.00509006
0.0100142
-0.00726177
0.0120596
-0.0097213
0.0144025
-0.0124734
0.0170559
-0.0155123
0.0200242
-0.0188185
0.023299
-0.022356
0.0268569
-0.0260703
0.0306573
-0.0298893
0.0346432
-0.0337253
0.0387443
-0.0374812
0.0428821
-0.0410571
0.0469772
-0.0443589
0.0509569
-0.0473068
0.0547618
-0.049841
0.0583518
-0.0519257
0.0617083
-0.0535503
0.0648348
-0.0547262
0.067756
-0.0554864
0.07051
-0.055871
0.0731544
-0.0559393
0.0757321
-0.0557423
0.0783383
-0.0553138
-0.054819
0.0809261
0.000128971
0.000999272
0.000392514
0.00238637
0.000723216
0.00324701
0.00109211
0.00365234
0.00149796
0.00368401
0.00195747
0.00341482
0.00249692
0.0028977
0.00314628
0.00216287
0.00393605
0.00122048
0.00489397
6.80091e-05
0.00605227
-0.00131444
0.0074367
-0.00294054
0.00907614
-0.00483335
0.0109985
-0.00701245
0.0132302
-0.00949342
0.0157934
-0.0122846
0.0187032
-0.0153831
0.0219626
-0.0187717
0.0255588
-0.0224147
0.0294592
-0.0262564
0.0336102
-0.0302213
0.037938
-0.034217
0.0423531
-0.0381404
0.0467576
-0.0418857
0.0510542
-0.0453536
0.0551556
-0.0484604
0.0589934
-0.0511446
0.0625233
-0.053371
0.0657291
-0.0551314
0.0686209
-0.0564421
0.071233
-0.0573383
0.0736176
-0.057871
0.0758371
-0.0580906
0.0779653
-0.0580675
0.0800575
-0.0578345
0.0822146
-0.057471
-0.0570064
0.084402
0.000130568
0.000868704
0.000416915
0.00210002
0.000799009
0.00286492
0.00124879
0.00320256
0.00176303
0.00316977
0.00235611
0.00282175
0.00305327
0.00220054
0.00388543
0.00133071
0.00488549
0.000220419
0.00609046
-0.00113696
0.00753173
-0.00275571
0.00924612