/*--------------------------------*- C++ -*----------------------------------*\
| =========                 |                                                 |
| \\      /  F ield         | OpenFOAM: The Open Source CFD Toolbox           |
|  \\    /   O peration     | Version:  2312                                  |
|   \\  /    A nd           | Website:  www.openfoam.com                      |
|    \\/     M anipulation  |                                                 |
\*---------------------------------------------------------------------------*/
FoamFile
{
    version     2.0;
    format      ascii;
    arch        "LSB;label=32;scalar=64";
    class       surfaceScalarField;
    location    "42.5";
    object      phi;
}
// * * * * * * * * * * * * * * * * * * * * * * * * * * * * * * * * * * * * * //

dimensions      [0 3 -1 0 0 0 0];

oriented        oriented;

internalField   nonuniform List<scalar> 
4490
(
-9.17577e-05
0.00904833
-0.00895658
0.00655309
0.00733607
-0.0139809
0.02907
-0.0140495
-0.00846748
0.0718806
-0.0509827
0.00817215
0.130074
-0.0943295
0.0361358
0.197727
-0.137192
0.0695396
0.268753
-0.176225
0.105199
0.330776
-0.208438
0.146414
0.390585
-0.233641
0.173832
-0.255434
0.219734
0.426285
0.000663205
0.00838513
0.0189466
-0.0109473
0.0627995
-0.0579024
0.122764
-0.110947
0.186106
-0.157672
0.243121
-0.194207
0.287536
-0.22064
0.31825
-0.239152
0.339013
-0.254404
-0.268424
0.352002
0.00562529
0.00275984
0.0420779
-0.0473999
0.0979616
-0.113786
0.152228
-0.165213
0.193334
-0.198778
0.218756
-0.219629
0.232881
-0.234765
0.242853
-0.249124
0.255319
-0.26687
-0.287754
0.274649
0.0159671
-0.0132072
0.0639149
-0.0953478
0.109128
-0.158999
0.138532
-0.194617
0.153991
-0.214238
0.163583
-0.22922
0.173719
-0.244901
0.187279
-0.262683
0.203235
-0.282826
-0.302238
0.217718
0.0268234
-0.0400306
0.0673097
-0.135834
0.0920699
-0.183759
0.103624
-0.206171
0.110639
-0.221254
0.117167
-0.235748
0.122934
-0.250668
0.127117
-0.266866
0.129843
-0.285552
0.131734
-0.304128
-0.00617505
0.00543526
0.000739785
-0.017078
0.00653834
0.00436465
-0.0301409
0.00492215
0.00814067
-0.0444356
0.00189237
0.0124024
-0.0597614
-0.00213433
0.0174601
-0.0756598
-0.00749836
0.0233967
-0.0923408
-0.0138015
0.0304824
-0.106358
-0.0242445
0.0382617
-0.121488
-0.0307904
0.0459208
-0.0444942
-0.130517
0.0535226
-0.00387056
0.00930582
-0.0114721
0.0141399
-0.0208931
0.0143432
-0.0313888
0.0123881
-0.0427668
0.00924371
-0.05356
0.00329485
-0.0653316
-0.00202992
-0.0716872
-0.0178889
-0.0798524
-0.0226252
-0.0429651
-0.0813816
-0.0010295
0.0103353
-0.00412989
0.0172402
-0.00817177
0.0183851
-0.0119342
0.0161505
-0.0140814
0.0113908
-0.013153
0.00236651
-0.00679845
-0.00838449
0.00654573
-0.0312331
0.0259233
-0.0420028
-0.0712763
0.0542345
0.000723756
0.00961156
0.00128115
0.0166829
0.00285268
0.0168135
0.00765936
0.0113438
0.0206596
-0.00160941
0.0428996
-0.0198734
0.0780383
-0.0435233
0.125167
-0.0783621
0.177691
-0.0945262
-0.140174
0.246589
0.000654983
0.00335692
0.011703
0.031219
0.0657454
0.115412
0.177087
0.245139
0.324445
0.404005
-0.132471
-0.0712936
0.0732474
-0.131751
-0.0648688
0.0641491
-0.126766
-0.0448957
0.0399105
-0.11706
0.000786408
-0.0104922
-0.102077
0.075136
-0.0901186
-0.0814304
0.178316
-0.198963
-0.053564
0.292733
-0.320599
-0.0147092
0.362993
-0.401848
0.077763
0.282948
-0.37542
0.194206
-0.0564815
-0.0599617
0.25686
-0.38414
0.321486
0.209984
-0.557526
0.604402
0.168398
-0.607828
0.649413
0.242573
-0.261639
0.187464
0.313753
0.217984
-0.289164
0.339488
0.429149
-0.454885
0.323915
0.493966
-0.478393
0.329585
0.368994
-0.374665
0.361248
0.1086
-0.140262
0.384224
-0.141363
0.118386
0.389892
-0.246163
0.240495
0.387778
-0.293973
0.296087
0.388858
-0.26205
0.26097
0.397102
-0.251676
0.243433
-0.187048
0.181582
-0.0925874
-0.0600877
-0.0982924
-0.0591638
-0.0993871
-0.043801
-0.088911
-0.00968968
-0.069905
0.05613
-0.0315812
0.139992
0.0276927
0.233459
0.103926
0.28676
0.182823
0.204051
0.224644
-0.0983031
0.253421
-0.412916
0.231436
-0.535542
0.173513
-0.549904
0.235369
-0.323495
0.316141
0.137212
0.334715
0.410575
0.319609
0.509072
0.336482
0.352121
0.371662
0.0734194
0.391338
-0.161039
0.395441
-0.250266
0.393773
-0.292305
0.392401
-0.260678
0.396928
-0.256202
-0.192042
0.0286108
-0.034464
0.0116449
-0.0421979
0.00190023
-0.0340563
0.00735101
-0.0151405
0.0319092
0.0315718
0.0769108
0.0949905
0.143247
0.167123
0.220302
0.209705
0.287498
0.136855
0.30263
-0.113434
0.278746
-0.389033
0.244669
-0.501465
0.179048
-0.484284
0.209042
-0.353489
0.291259
0.0549956
0.306952
0.394882
0.306551
0.509473
0.341996
0.316677
0.380046
0.0353689
0.39311
-0.174103
0.392026
-0.249182
0.3909
-0.291178
0.392775
-0.262553
0.398633
-0.262061
-0.197932
0.21398
-0.00185492
0.179989
-0.00820714
0.151812
-0.00587915
0.138187
-0.0015156
0.143646
0.0261132
0.175077
0.0635589
0.237016
0.105184
0.29328
0.15344
0.335415
0.0947208
0.350914
-0.128934
0.307102
-0.345221
0.258363
-0.452725
0.192937
-0.418858
0.17107
-0.331622
0.237604
-0.0115387
0.265584
0.366902
0.293389
0.481667
0.346602
0.263464
0.383596
-0.00162487
0.39116
-0.181667
0.386411
-0.244433
0.384279
-0.289047
0.38821
-0.266483
0.39765
-0.271501
-0.207261
0.377893
0.0242572
0.35029
0.0193961
0.321917
0.0224937
0.295113
0.025288
0.282622
0.0386041
0.281228
0.0649533
0.312834
0.073578
0.354697
0.111577
0.377671
0.0717472
0.370818
-0.122081
0.311357
-0.285761
0.249439
-0.390807
0.203625
-0.373044
0.150739
-0.278736
0.16555
-0.0263491
0.216818
0.315633
0.283329
0.415156
0.350784
0.19601
0.381581
-0.032422
0.383435
-0.183521
0.378276
-0.239274
0.377625
-0.288396
0.383246
-0.272104
0.395219
-0.283474
-0.220445
0.457019
0.0383939
-0.471156
0.444641
0.0317741
0.431408
0.0357269
0.416132
0.0405639
0.404095
0.0506411
0.395435
0.0736131
0.399859
0.0691534
0.428514
0.0829223
0.469994
0.0302674
0.481496
-0.133582
0.441757
-0.246023
0.38105
-0.330099
0.335367
-0.327361
0.243869
-0.187237
0.161915
0.055605
0.181914
0.295634
0.281216
0.315855
0.363961
0.113265
0.391692
-0.0601537
0.38688
-0.178709
0.37462
-0.227013
0.365731
-0.279507
0.361829
-0.268203
0.363057
-0.284701
-0.223564
0.51391
0.0432795
-0.518796
0.508698
0.0369866
0.505031
0.0393935
0.503056
0.042539
0.50505
0.048647
0.515737
0.0629269
0.528244
0.0566462
0.556422
0.0547442
0.577584
0.00910515
0.558284
-0.114282
0.510617
-0.198357
0.434085
-0.253567
0.373243
-0.266519
0.317285
-0.131279
0.26332
0.10957
0.30191
0.257043
0.398228
0.219537
0.457554
0.0539385
0.466077
-0.0686768
0.451293
-0.163925
0.434674
-0.210395
0.423894
-0.268727
0.419387
-0.263696
0.420311
-0.285625
-0.226549
0.579356
0.0440699
-0.580147
0.576637
0.0397061
0.576564
0.0394664
0.578112
0.0409903
0.584262
0.0424973
0.598203
0.0489857
0.611305
0.0435442
0.634785
0.0312641
0.647997
-0.0041066
0.620042
-0.0863266
0.575374
-0.153688
0.516498
-0.194692
0.45097
-0.200991
0.412924
-0.0932334
0.412006
0.110489
0.465401
0.203648
0.531739
0.153199
0.555991
0.0296864
0.546427
-0.0591127
0.5251
-0.142597
0.505077
-0.190372
0.491527
-0.255176
0.485397
-0.257566
0.485846
-0.286074
-0.229629
0.659152
0.0425563
-0.657638
0.659189
0.0396688
0.660121
0.0385343
0.663235
0.0378765
0.668789
0.0369438
0.679968
0.0378064
0.693137
0.0303752
0.70721
0.0171915
0.712579
-0.00947589
0.691426
-0.0651741
0.64603
-0.108292
0.593475
-0.142136
0.541106
-0.148622
0.517614
-0.0697407
0.547222
0.08088
0.604683
0.146187
0.644455
0.113427
0.648316
0.0258251
0.630842
-0.041639
0.606688
-0.118443
0.584668
-0.168352
0.569367
-0.239875
0.561728
-0.249928
0.561381
-0.285727
-0.23259
0.75224
0.0393625
-0.749046
0.754211
0.0376977
0.756836
0.0359093
0.760438
0.0342741
0.765628
0.0317536
0.774324
0.0291104
0.781791
0.0229086
0.790111
0.00887157
0.789951
-0.00931647
0.77112
-0.0463426
0.741886
-0.0790585
0.702263
-0.102512
0.655172
-0.101532
0.637084
-0.0516523
0.667614
0.0503501
0.714777
0.0990237
0.741837
0.0863671
0.741715
0.0259474
0.724515
-0.0244385
0.700937
-0.0948646
0.678663
-0.146079
0.662346
-0.223558
0.653135
-0.240717
0.650967
-0.283559
-0.234681
0.859477
0.035506
-0.855621
0.862924
0.0342506
0.866095
0.0327383
0.870001
0.0303684
0.874268
0.0274864
0.87988
0.023498
0.885589
0.0172001
0.888158
0.0063023
0.886365
-0.00752364
0.872487
-0.0324646
0.845457
-0.0520277
0.812045
-0.0691004
0.779277
-0.0687642
0.766236
-0.0386114
0.788984
0.0276026
0.824869
0.0631386
0.846699
0.0645372
0.846703
0.0259434
0.83158
-0.00931615
0.809367
-0.0726517
0.787054
-0.123765
0.769526
-0.20603
0.759028
-0.230219
0.755658
-0.280189
-0.235769
0.982792
0.0313223
-0.978608
0.986618
0.0304239
0.990102
0.0292543
0.993565
0.0269062
0.99668
0.0243708
1.00024
0.0199405
1.00246
0.0149737
1.00327
0.00549611
0.999864
-0.00411779
0.987889
-0.0204887
0.969788
-0.0339272
0.946926
-0.0462386
0.923153
-0.0449906
0.912447
-0.0279059
0.925859
0.0141906
0.950271
0.0387266
0.96676
0.0480482
0.967883
0.024821
0.956327
0.00223908
0.93665
-0.0529745
0.914153
-0.101268
0.894393
-0.18627
0.881383
-0.21721
0.87603
-0.274835
-0.23601
1.12505
0.0272831
-1.12101
1.12886
0.0266198
1.13231
0.0257992
1.13552
0.0236992
1.13833
0.0215578
1.14066
0.0176098
1.14207
0.0135629
1.14121
0.0063617
1.13736
-0.000271318
1.12898
-0.0121034
1.11529
-0.0202414
1.09823
-0.0291761
1.08152
-0.0282798
1.07367
-0.0200567
1.08132
0.00653402
1.09766
0.0223895
1.11064
0.0350651
1.11232
0.0231493
1.10208
0.0124778
1.08311
-0.0340099
1.0604
-0.0785513
1.0397
-0.165569
1.02506
-0.202572
1.0179
-0.267676
-0.234602
1.28816
0.0234932
-1.28437
1.29175
0.0230336
1.29497
0.0225823
1.29779
0.0208756
1.30003
0.0193169
1.30165
0.015993
1.30228
0.0129279
1.30147
0.00717768
1.29901
0.00218343
1.29287
-0.00595816
1.28381
-0.011185
1.27286
-0.0182242
1.26211
-0.0175273
1.25664
-0.014588
1.26082
0.00235509
1.27053
0.012673
1.27893
0.0266648
1.28011
0.0219748
1.27255
0.0200386
1.2562
-0.0176607
1.2345
-0.0568564
1.212
-0.143064
1.1947
-0.185276
1.18447
-0.257446
-0.231408
1.48205
0.0197356
-1.47829
1.48565
0.0194328
1.48902
0.0192133
1.49199
0.0179083
1.49449
0.0168208
1.49623
0.0142478
1.49708
0.0120776
1.49645
0.00780579
1.49407
0.0045628
1.48968
-0.0015688
1.48357
-0.00506871
1.47629
-0.0109446
1.46931
-0.0105527
1.46535
-0.0106199
1.46734
0.000365233
1.47353
0.00647656
1.48015
0.0200437
1.48202
0.0201103
1.47661
0.0254463
1.46105
-0.00210244
1.43823
-0.0340383
1.41315
-0.117978
1.39254
-0.164667
1.37928
-0.244192
-0.224838
1.70734
0.0162809
-1.70389
1.71064
0.0161415
1.71373
0.0161229
1.71645
0.0151852
1.71879
0.014478
1.72054
0.0125032
1.72166
0.0109551
1.7219
0.00756315
1.72127
0.00519628
1.71963
7.21609e-05
1.71668
-0.00212365
1.71272
-0.00698608
1.70926
-0.00709181
1.70725
-0.00860963
1.70942
-0.00179745
1.7137
0.00219105
1.71845
0.0152999
1.72008
0.0184734
1.71616
0.0293638
1.70316
0.0108997
1.68125
-0.0121237
1.65369
-0.090423
1.62942
-0.140391
1.61192
-0.226692
-0.215922
1.98243
0.0127009
-1.97885
1.98592
0.0126526
1.98931
0.012735
1.99237
0.0121205
1.99511
0.011738
1.99727
0.010349
1.99882
0.00940508
1.99945
0.006936
1.99919
0.00544782
1.99747
0.00179442
1.99522
0.000126593
1.99246
-0.00422882
1.99025
-0.00487468
1.98885
-0.00721553
1.98999
-0.00293444
1.99321
-0.00103316
1.99882
0.00969245
2.00328
0.0140127
2.00572
0.0269256
1.99841
0.0182125
1.97826
0.00802554
1.94636
-0.0585243
1.91384
-0.107875
1.88707
-0.199915
-0.19804
2.33141
0.00908814
-2.32779
2.33491
0.00915264
2.33833
0.0093088
2.34149
0.00896038
2.34442
0.00881142
2.34692
0.00785093
2.34897
0.00735507
2.3504
0.00550063
2.35128
0.00456763
2.35144
0.00163943
2.35142
0.000140054
2.35028
-0.00308965
2.3497
-0.00428734
2.34927
-0.00679133
2.35159
-0.0052467
2.3554
-0.00484372
2.36134
0.00375327
2.36768
0.00766586
2.37395
0.0206602
2.37028
0.0218785
2.35099
0.0273133
2.31309
-0.0206192
2.27199
-0.0667725
2.23515
-0.163083
-0.172532
2.73433
0.00473343
-2.72998
2.73866
0.00482973
2.743
0.00496566
2.74711
0.00484735
2.751
0.00492194
2.75444
0.00441142
2.75736
0.00443638
2.75949
0.00337156
2.76092
0.00313925
2.76089
0.00166229
2.76029
0.000741256
2.75823
-0.00102972
2.75638
-0.00243492
2.75432
-0.00473198
2.75342
-0.00434152
2.75461
-0.00603495
2.76094
-0.00258212
2.76812
0.000484787
2.77983
0.00895028
2.79233
0.00937956
2.79557
0.0240768
2.76616
0.00879123
2.71585
-0.0164646
2.65282
-0.100047
-0.120866
3.44705
-3.44231
3.45187
3.45684
3.46169
3.46661
3.47102
3.47546
3.47883
3.48197
3.48363
3.48437
3.48334
3.48091
3.47618
3.47183
3.4658
3.46322
3.4637
3.47265
3.48203
3.50611
3.5149
3.49843
3.39839
0.406446
0.119752
-0.394464
0.422401
0.201763
0.427383
0.269667
0.448479
0.330907
0.403609
0.461007
0.112052
-0.453307
0.476731
0.186039
0.486682
0.259716
0.497784
0.319806
0.382597
0.527154
0.104464
-0.519566
0.538712
0.174481
0.552531
0.245897
0.56334
0.308996
0.36579
0.603242
0.0957776
-0.594556
0.613606
0.164117
0.627555
0.231947
0.641852
0.2947
0.350004
0.691857
0.0873175
-0.683397
0.702759
0.153215
0.715938
0.218769
0.731941
0.278696
0.332899
0.795126
0.0790505
-0.786859
0.806276
0.142065
0.819899
0.205145
0.836691
0.261904
0.31397
0.913567
0.0709335
-0.90545
0.925004
0.130628
0.939814
0.190335
0.957783
0.243935
0.293145
1.05055
0.06255
-1.04217
1.06242
0.118755
1.07854
0.174216
1.09807
0.224401
0.270206
1.208
0.0546413
-1.20009
1.22036
0.106396
1.23768
0.1569
1.25903
0.203049
0.244862
1.39482
0.0465697
-1.38675
1.40811
0.0931016
1.42684
0.138172
1.45028
0.179615
0.216843
1.61324
0.0385529
-1.60522
1.62724
0.0791003
1.64726
0.118147
1.67301
0.153864
0.185966
1.87513
0.0303844
-1.86696
1.89091
0.063319
1.91409
0.0949673
1.94352
0.124428
0.150637
2.21114
0.0213545
-2.20211
2.22874
0.0457179
2.25451
0.0691949
2.28784
0.091099
0.110683
2.58878
0.0113824
-2.57881
2.60946
0.0250407
2.6404
0.0382571
2.68093
0.0505641
0.0616375
3.26681
-3.25543
3.29185
3.33011
3.38067
0.18171
0.256725
-0.229483
-0.208952
0.151372
0.241673
-0.211335
0.124026
0.225239
-0.197894
0.10043
0.212294
-0.188698
0.0786746
0.201719
-0.179963
0.0575361
0.192301
-0.171163
0.0373985
0.184191
-0.164053
0.0184422
0.179058
-0.160102
0.00325414
0.169819
-0.154631
0.115039
-0.111785
0.122429
0.279265
-0.144969
0.101909
0.262192
0.0818334
0.245315
0.0630781
0.231049
0.0455957
0.219201
0.0293963
0.208501
0.0147358
0.198851
0.00205253
0.191741
-0.0054036
0.177275
0.109635
0.0624605
0.29597
-0.0791659
0.0464164
0.278237
0.0321636
0.259568
0.0195139
0.243699
0.00843245
0.230282
-0.0014954
0.218428
-0.010888
0.208244
-0.0172142
0.198067
-0.0148063
0.174867
0.0948292
-0.00554439
0.306314
-0.00479923
-0.0132506
0.285943
-0.0201956
0.266513
-0.0263032
0.249806
-0.0318608
0.23584
-0.0367007
0.223268
-0.0395507
0.211094
-0.0374318
0.195948
-0.0243955
0.161831
0.0704337
-0.0747937
0.0769791
-0.0744034
-0.0747562
-0.075618
-0.0755262
-0.0735116
-0.068589
-0.0563995
-0.0304031
0.333929
0.0630844
-0.381698
-0.0153148
0.289116
0.0592716
-0.0144587
0.246792
0.0560221
-0.0136984
0.206609
0.0531973
-0.0130147
0.168333
0.050685
-0.0124083
0.131636
0.0486125
-0.0119154
0.0961711
0.0469813
-0.0115168
0.0614943
0.0459167
-0.01124
0.0268948
0.045792
-0.0111925
0.0357267
-0.00883192
0.320773
0.109348
-0.367037
0.277219
0.102826
0.236412
0.0968286
0.198082
0.0915277
0.16158
0.0871872
0.126394
0.0837981
0.0922448
0.0811306
0.0587154
0.0794461
0.0253646
0.0791428
0.0610913
0.297083
0.152347
-0.340082
0.255946
0.143963
0.216733
0.136042
0.180284
0.127977
0.146559
0.120912
0.11437
0.115987
0.0831253
0.112375
0.0525217
0.11005
0.0225895
0.109075
0.0836808
0.263028
0.191569
-0.30225
0.227324
0.179666
0.193007
0.170359
0.159044
0.16194
0.127198
0.152758
0.0979891
0.145196
0.070223
0.140141
0.0429912
0.137282
0.0174523
0.134614
0.101133
0.216532
-0.254446
0.184864
0.157329
0.130572
0.103367
0.0774002
0.0534885
0.0306685
0.0106518
0.42026
0.380735
-0.38318
0.431503
0.306713
-0.317956
0.429576
0.231632
-0.229705
0.437093
0.195436
-0.202953
0.432736
0.143237
-0.13888
0.437873
0.115985
-0.121122
0.433215
0.0885264
-0.0838692
0.435554
0.0696079
-0.0719462
0.430023
0.0584333
-0.0529029
0.428358
0.0471667
-0.0455011
0.420813
0.0437429
-0.0361981
0.41513
0.0370787
-0.0313959
0.404935
0.0366607
-0.0264656
0.395114
0.0329959
-0.0231753
0.0337145
-0.0202982
0.415979
0.382571
0.424125
0.298567
0.420894
0.234863
0.427735
0.188595
0.423194
0.147778
0.427575
0.111604
0.422646
0.0934554
0.423875
0.0683792
0.417871
0.0644374
0.415505
0.0495326
0.407825
0.0514234
0.401566
0.0433369
0.39101
0.0472168
0.380879
0.0431267
0.0475567
0.410683
0.389704
0.414124
0.295125
0.407851
0.241137
0.412507
0.183939
0.406974
0.153311
0.409331
0.109247
0.403499
0.0992874
0.402762
0.0691162
0.395504
0.0716955
0.39147
0.0535664
0.382714
0.0601796
0.375328
0.0507228
0.364186
0.0583592
0.353847
0.0534652
0.061322
0.404175
0.403344
0.40153
0.29777
0.39162
0.251047
0.391685
0.183874
0.38468
0.160316
0.383605
0.110321
0.376597
0.106296
0.37322
0.0724924
0.365421
0.0794952
0.359203
0.0597838
0.349504
0.0698794
0.340599
0.0596269
0.328132
0.0708269
0.317197
0.0643998
0.0762696
0.396221
0.424938
0.386515
0.307476
0.371867
0.265694
0.367184
0.188557
0.356199
0.171301
0.351648
0.114872
0.341514
0.11643
0.335155
0.0788522
0.324547
0.0901032
0.315277
0.0690533
0.303047
0.0821095
0.292248
0.0704264
0.279187
0.0838877
0.267785
0.0758011
0.0896089
0.369242
0.428433
0.371928
0.30479
0.368704
0.268919
0.373108
0.184153
0.369644
0.174765
0.370568
0.113948
0.366774
0.120224
0.364793
0.0808336
0.359868
0.0950285
0.357192
0.0717293
0.352458
0.086843
0.350743
0.0721412
0.348893
0.0857376
0.351253
0.0734413
0.0823576
0.358504
0.425583
0.431168
0.428052
0.30232
0.424324
0.272647
0.428771
0.179707
0.42663
0.176906
0.426513
0.114065
0.423297
0.123439
0.421059
0.0830722
0.416909
0.0991784
0.413839
0.0747993
0.411355
0.0893271
0.410085
0.073411
0.412268
0.0835547
0.413912
0.0717966
0.0760809
0.420189
0.488627
0.434728
0.493261
0.297686
0.489067
0.276841
0.492893
0.17588
0.491611
0.178188
0.492006
0.113671
0.48842
0.127025
0.486587
0.0849054
0.483159
0.102606
0.481175
0.0767836
0.480193
0.0903092
0.480192
0.0734115
0.483145
0.0806015
0.486318
0.0686234
0.0704713
0.491928
0.55992
0.440388
0.56626
0.291346
0.563717
0.279384
0.566702
0.172896
0.566267
0.178623
0.567157
0.11278
0.565851
0.128332
0.563717
0.0870395
0.562283
0.10404
0.560643
0.0784235
0.56165
0.089302
0.562371
0.0726909
0.566116
0.076856
0.570065
0.0646749
0.0646857
0.57585
0.644759
0.445547
0.649526
0.286578
0.649335
0.279575
0.651527
0.170703
0.653471
0.176679
0.653814
0.112437
0.655594
0.126553
0.653406
0.0892273
0.654767
0.102678
0.654033
0.0791574
0.657004
0.086331
0.658828
0.0708674
0.663458
0.0722262
0.667619
0.0605133
0.0591247
0.67318
0.744664
0.447714
0.747606
0.283636
0.749644
0.277538
0.7496
0.170747
0.753871
0.172408
0.753651
0.112657
0.757484
0.122719
0.756116
0.0905948
0.760081
0.0987135
0.760966
0.0782728
0.765739
0.0815577
0.769065
0.0675415
0.774423
0.066868
0.779065
0.0558715
0.0534416
0.784748
0.859139
0.446771
0.861142
0.281633
0.866689
0.271991
0.865733
0.171704
0.871079
0.167062
0.870097
0.11364
0.875074
0.117742
0.875135
0.0905343
0.880716
0.0931325
0.883391
0.0755977
0.889572
0.0753773
0.894409
0.0627044
0.900832
0.0604447
0.906019
0.0506844
0.04768
0.911781
0.990497
0.442442
0.991079
0.281052
1.00112
0.261946
1.00105
0.171774
1.00804
0.160079
1.00753
0.114145
1.01345
0.11182
1.01544
0.0885482
1.02215
0.0864238
1.02654
0.0712092
1.03357
0.0683413
1.03921
0.0570631
1.04608
0.0535754
1.05196
0.0448045
0.0412289
1.05841
1.14078
0.434885
1.14237
0.279457
1.15573
0.248586
1.15788
0.169625
1.16657
0.151393
1.16857
0.11214
1.1756
0.104789
1.18008
0.0840705
1.18765
0.0788551
1.19357
0.0652863
1.20108
0.060836
1.20729
0.0508561
1.21412
0.0467394
1.21974
0.0391815
0.0355312
1.22544
1.31382
0.423274
1.31882
0.274453
1.3363
0.231102
1.34236
0.163566
1.35384
0.139919
1.35923
0.106749
1.36854
0.0954723
1.37523
0.0773855
1.38404
0.0700488
1.39109
0.0582293
1.39919
0.0527415
1.40587
0.0441764
1.41293
0.0396734
1.41882
0.0332979
0.0296756
1.42467
1.5123
0.407356
1.52259
0.264164
1.54283
0.210865
1.55461
0.151787
1.56907
0.12546
1.57934
0.0964728
1.59131
0.0835066
1.60102
0.0676701
1.61124
0.0598334
1.61984
0.0496272
1.62838
0.0442022
1.63558
0.0369806
1.64242
0.0328333
1.64817
0.027545
0.0243368
1.65351
1.74758
0.379292
1.76844
0.243303
1.79468
0.184631
1.81204
0.134427
1.83089
0.106612
1.84488
0.082482
1.85964
0.0687432
1.87141
0.0558963
1.8831
0.0481444
1.89273
0.0399949
1.90203
0.0349092
1.90973
0.0292818
1.91694
0.0256198
1.92292
0.0215631
0.0188709
1.92839
2.02271
0.33251
2.06187
0.204148
2.09951
0.146988
2.12911
0.104824
2.15608
0.0796411
2.17751
0.0610532
2.1968
0.0494508
2.21269
0.0400145
2.22674
0.0340928
2.23856
0.0281761
2.249
0.0244689
2.25784
0.0204401
2.26559
0.0178673
2.27217
0.0149804
0.0131075
2.27794
2.35194
0.251141
2.40651
0.149584
2.45716
0.0963319
2.4962
0.0657928
2.52962
0.0462163
2.55571
0.0349641
2.57811
0.0270493
2.59639
0.0217358
2.61236
0.0181224
2.62565
0.0148844
2.63739
0.0127307
2.64724
0.0105855
2.65593
0.00917877
2.66323
0.00768868
0.00670737
2.66963
2.8603
3.00988
3.10621
3.172
3.21822
3.25318
3.28023
3.30197
3.32009
3.33498
3.34771
3.35829
3.36747
3.37516
3.38187
0.36034
-0.210787
0.367414
-0.152043
0.37466
-0.0864122
0.385177
-0.0153157
0.0676921
0.424644
-0.215242
0.430706
-0.158106
0.435328
-0.0910342
0.442109
-0.0220967
0.0564951
0.495691
-0.219006
0.49808
-0.160494
0.50358
-0.0965337
0.50915
-0.0276675
0.0460794
0.577838
-0.220993
0.578715
-0.161372
0.582837
-0.100655
0.586319
-0.0311498
0.0378423
0.671556
-0.219369
0.671204
-0.161019
0.673223
-0.102675
0.676589
-0.0345161
0.0310342
0.779891
-0.214511
0.778123
-0.159251
0.778283
-0.102835
0.781213
-0.0374454
0.0253882
0.903931
-0.206662
0.899775
-0.155095
0.898054
-0.101115
0.900369
-0.0397602
0.0203071
1.04744
-0.195692
1.04058
-0.148234
1.0369
-0.0974317
1.03776
-0.0406174
0.0158995
1.21147
-0.181718
1.20185
-0.138616
1.19631
-0.0918878
1.196
-0.0403171
0.0118122
1.40689
-0.163935
1.39398
-0.125709
1.38598
-0.0838866
1.38386
-0.0381946
0.00892318
1.63192
-0.142343
1.61589
-0.109677
1.60574
-0.0737418
1.60206
-0.0345098
0.00575946
1.90272
-0.116675
1.88322
-0.0901781
1.87067
-0.0611951
1.86533
-0.0291693
0.00413655
2.24675
-0.0854834
2.22288
-0.0663144
2.20686
-0.0451731
2.19976
-0.0220688
0.00178792
2.63321
-0.0490702
2.60524
-0.0383408
2.58643
-0.026365
2.57758
-0.0132159
0.000554692
3.3328
3.29446
3.26809
3.25488
0.00927462
-0.00165442
-0.0076202
0.0076514
0.00162323
-0.00206234
0.00971373
-0.0236664
0.0216041
0.0296265
-0.0532929
0.00192766
0.00729951
-0.0108816
-0.0234323
0.0269832
-0.0669935
0.0532749
-0.114031
0.0686412
0.0629278
-0.147332
-0.0287597
0.0376282
-0.00156902
-0.0799717
0.0781953
-0.13416
0.107463
-0.170559
0.10504
0.0801265
-0.187757
-0.071905
0.0892902
0.020243
-0.133589
0.139879
-0.178917
0.152792
-0.198735
0.124858
0.087553
-0.206162
-0.116438
0.15465
0.0510778
-0.175243
0.198684
-0.204841
0.182389
-0.215005
0.135022
0.0920836
-0.219536
-0.156555
0.22433
0.086875
-0.20465
0.246779
-0.220875
0.198614
-0.229585
0.143732
0.0954887
-0.232991
-0.191373
0.294917
0.120787
-0.225143
0.280549
-0.235413
0.208884
-0.246297
0.154616
0.0968824
-0.24769
-0.219626
0.353157
0.161386
-0.240752
0.301675
-0.252177
0.220309
-0.263694
0.166134
0.0963222
-0.263133
-0.243107
0.406547
0.189716
-0.256194
0.314762
-0.27133
0.235444
-0.281098
0.175902
0.0958078
-0.280584
-0.263091
0.237618
0.43202
-0.271552
0.323224
-0.29364
0.257532
-0.300054
0.182316
0.0970013
-0.301248
0.00579924
-0.00505945
0.00740744
-0.0016082
0.00649373
0.000913701
0.00603823
0.000455506
-0.00158197
0.0135301
-0.0142249
0.0170571
-0.00513522
0.0155481
0.00242265
0.0131323
0.00287137
0.000668702
0.0189335
-0.0250177
0.0227884
-0.00899008
0.0198243
0.00538675
0.0137854
0.00891023
0.0128851
0.0234666
-0.0360819
0.0256381
-0.0111616
0.0197173
0.0113075
0.00760358
0.0210239
0.0407317
0.0281867
-0.0468084
0.0278324
-0.0108073
0.0170501
0.0220899
-0.00587634
0.0439503
0.0859331
0.0324575
-0.0558692
0.0269562
-0.00530607
0.0080153
0.0410309
-0.0277308
0.0796964
0.145077
0.0391249
-0.0645117
0.0304912
0.00332766
0.00469443
0.0668276
-0.0459083
0.130299
0.219956
0.0413774
-0.0676273
0.0234776
0.0212274
-0.0185769
0.108882
-0.0861845
0.197907
0.295157
0.0480279
-0.0697344
0.0250729
0.0441824
-0.0230597
0.157015
-0.101005
0.275852
0.383869
0.0480989
-0.0643107
0.0121453
0.080136
-0.0616664
0.230826
-0.155549
0.369734
0.465938
0.0609329
-0.0519963
0.0443374
0.0967314
0.0294346
0.245729
0.021198
0.377971
0.464127
0.0230096
0.0505955
-0.0384427
0.0325162
0.114811
0.0173758
0.26087
0.0102793
0.385067
0.461859
0.0125467
0.0265321
-0.0250642
0.0102365
0.131106
-0.00468126
0.275787
-0.00799703
0.388383
0.456198
-0.00233565
-0.0231138
-0.0124426
-0.0382431
0.146236
-0.0489924
0.286537
-0.0497582
0.389149
0.441162
-0.0347223
-0.0998142
-0.00274701
-0.108634
0.155055
-0.110429
0.288333
-0.100671
0.37939
0.417355
-0.0768632
-0.201928
0.000218606
-0.200963
0.15409
-0.195989
0.283359
-0.168633
0.352034
0.377942
-0.12922
-0.305158
-0.0152226
-0.281413
0.130344
-0.273697
0.275643
-0.239467
0.317804
0.325308
-0.186833
-0.381035
-0.0360354
-0.312887
0.0621958
-0.260777
0.223533
-0.234425
0.291453
0.275531
-0.184648
-0.430264
0.0188082
-0.391339
0.0232708
-0.287158
0.119352
-0.233626
0.237921
0.242859
-0.200954
-0.198486
0.157333
-0.278374
0.103159
-0.247466
0.0884435
-0.193641
0.184096
0.225689
-0.176471
0.26384
0.214979
0.196697
0.170302
0.150881
0.134259
0.142882
0.192095
0.248337
0.120234
0.645557
0.173825
0.646758
0.169101
0.59289
0.188127
0.522728
0.262256
0.325822
0.445244
0.622999
0.200239
0.535937
0.256163
0.42267
0.301395
0.332932
0.351994
0.398432
0.260322
0.0936688
0.294034
0.00394953
0.345882
-0.0659606
0.371305
-0.106004
0.392037
0.399593
-0.107164
-0.342876
0.347746
-0.364169
0.367176
-0.363109
0.370244
-0.349684
0.378611
0.363572
-0.313663
-0.468934
0.361796
-0.466511
0.364752
-0.449224
0.352957
-0.416921
0.346309
0.325876
-0.379225
-0.452498
0.335901
-0.427994
0.340248
-0.412206
0.337169
-0.397331
0.331434
0.313005
-0.384459
-0.36301
0.324246
-0.33996
0.317199
-0.314286
0.311495
-0.292696
0.309845
0.304733
-0.284425
-0.162215
0.346199
-0.175371
0.330355
-0.178577
0.314701
-0.169295
0.300562
0.289588
-0.15415
0.0968946
0.36769
0.0731742
0.354076
0.0465942
0.341281
0.0281566
0.319
0.292063
0.025682
0.232087
0.376099
0.216893
0.36927
0.196896
0.361277
0.178802
0.337094
0.305418
0.165446
0.291898
0.380288
0.282081
0.379087
0.272751
0.370607
0.262795
0.347051
0.322415
0.245797
0.252656
0.388602
0.244421
0.387321
0.240851
0.374178
0.233916
0.353986
0.341153
0.215177
0.233283
0.398751
0.227555
0.39305
0.223563
0.37817
0.21268
0.364869
0.361626
0.192208
0.177691
0.175736
0.171122
0.160177
0.143864
0.0219738
0.488949
-0.487914
0.0187055
0.535144
-0.531876
0.0141407
0.593931
-0.589366
0.0104321
0.661915
-0.658207
0.00754836
0.738212
-0.735328
0.00502392
0.825493
-0.822969
0.00300818
0.925246
-0.92323
0.00127965
1.03803
-1.0363
6.46527e-05
1.16692
-1.16571
-0.00135902
1.30888
-1.30745
-0.00171733
1.46772
-1.46736
-0.00268553
1.63196
-1.63099
-0.00262387
1.79154
-1.7916
-0.00403395
1.96571
-1.9643
1.8226
-1.82663
0.00871466
0.492781
0.00598991
0.537869
0.00456321
0.595357
0.00365275
0.662826
0.00269569
0.739169
0.0018974
0.826291
0.0011265
0.926017
0.000207382
1.03895
-0.000402806
1.16753
-0.00144347
1.30992
-0.00164093
1.46791
-0.00265841
1.63298
-0.00277661
1.79166
-0.00460806
1.96754
1.81799
-0.00534571
0.495791
-0.0073015
0.539825
-0.00748867
0.595544
-0.00619986
0.661537
-0.00469564
0.737665
-0.00329603
0.824892
-0.00228379
0.925004
-0.00196582
1.03863
-0.00188226
1.16745
-0.00241857
1.31045
-0.00246326
1.46796
-0.00348257
1.63399
-0.003778
1.79196
-0.00613048
1.96989
1.81186
-0.0327483
0.493817
-0.0273055
0.534382
-0.0219038
0.590143
-0.0166179
0.656251
-0.011982
0.733029
-0.00818304
0.821093
-0.00541181
0.922233
-0.00379852
1.03702
-0.00289445
1.16654
-0.00287569
1.31043
-0.00261528
1.4677
-0.00359595
1.63498
-0.00409312
1.79245
-0.00672343
1.97252
1.80514
-0.0659839
0.482938
-0.0537783
0.522176
-0.0420069
0.578371
-0.031206
0.64545
-0.022283
0.724106
-0.0150583
0.813868
-0.00993587
0.917111
-0.00682515
1.03391
-0.00500268
1.16472
-0.00442861
1.30986
-0.00394694
1.46722
-0.00490148
1.63593
-0.00553108
1.79308
-0.00841704
1.97541
1.79672
-0.101121
0.454839
-0.0765234
0.497579
-0.058196
0.560044
-0.0422047
0.629459
-0.0296179
0.711519
-0.0200205
0.804271
-0.013102
0.910192
-0.00881929
1.02962
-0.00622582
1.16213
-0.00522553
1.30886
-0.00444411
1.46644
-0.0052492
1.63673
-0.00599806
1.79383
-0.00862785
1.97804
1.78809
-0.150106
0.418112
-0.112928
0.460401
-0.0823986
0.529514
-0.0571912
0.604251
-0.0389125
0.69324
-0.0257011
0.791059
-0.0172278
0.901719
-0.0119296
1.02433
-0.00882607
1.15902
-0.00737864
1.30741
-0.00641293
1.46547
-0.00708425
1.63741
-0.00778936
1.79454
-0.0097541
1.98
1.77834
-0.140412
0.373875
-0.107962
0.427951
-0.08136
0.502912
-0.0579923
0.580883
-0.0404435
0.675692
-0.0272327
0.777849
-0.0186731
0.893159
-0.013242
1.0189
-0.00996804
1.15575
-0.0084621
1.30591
-0.00747708
1.46448
-0.00791404
1.63784
-0.00849295
1.79512
-0.00884979
1.98036
1.76949
-0.153102
0.326023
-0.113164
0.388013
-0.0766205
0.466369
-0.0519807
0.556244
-0.034913
0.658624
-0.0249154
0.767851
-0.0191377
0.887382
-0.015393
1.01515
-0.0131178
1.15347
-0.011727
1.30452
-0.0106357
1.46339
-0.0104897
1.6377
-0.0103564
1.79498
-0.00854037
1.97854
1.76095
-0.125784
0.275336
-0.0861625
0.348392
-0.0533675
0.433574
-0.034327
0.537203
-0.0233048
0.647602
-0.0185131
0.763059
-0.0162576
0.885126
-0.0152346
1.01413
-0.0142913
1.15253
-0.0134949
1.30372
-0.0126232
1.46252
-0.011986
1.63706
-0.0111113
1.79411
-0.00606119
1.97349
1.75489
0.14697
0.2486
0.125087
0.370275
0.080794
0.477867
0.0411762
0.576821
0.0133666
0.675411
-0.00425613
0.780682
-0.01341
0.89428
-0.0178889
1.01861
-0.0191523
1.15379
-0.0190762
1.30364
-0.0180245
1.46147
-0.015992
1.63503
-0.0126455
1.79076
-0.00379183
1.96464
1.75109
0.361148
0.332695
0.257272
0.474151
0.160868
0.574271
0.0881412
0.649548
0.0393403
0.724212
0.00781627
0.812206
-0.0101119
0.912208
-0.0193643
1.02786
-0.0230947
1.15753
-0.0233235
1.30387
-0.0219073