/*--------------------------------*- C++ -*----------------------------------*\
| =========                 |                                                 |
| \\      /  F ield         | OpenFOAM: The Open Source CFD Toolbox           |
|  \\    /   O peration     | Version:  2312                                  |
|   \\  /    A nd           | Website:  www.openfoam.com                      |
|    \\/     M anipulation  |                                                 |
\*---------------------------------------------------------------------------*/
FoamFile
{
    version     2.0;
    format      ascii;
    arch        "LSB;label=32;scalar=64";
    class       surfaceScalarField;
    location    "35";
    object      phi;
}
// * * * * * * * * * * * * * * * * * * * * * * * * * * * * * * * * * * * * * //

dimensions      [0 3 -1 0 0 0 0];

oriented        oriented;

internalField   nonuniform List<scalar> 
64047
(
-6.17418e-06
0.000458005
-0.000451831
2.50676e-05
0.00124084
-0.00127208
0.000129331
0.00187244
-0.0019767
0.00033303
0.00232973
-0.00253343
0.00065714
0.0025984
-0.00292251
0.00112021
0.00266817
-0.00313123
0.00174109
0.00253118
-0.00315207
0.00254139
0.00218076
-0.00298106
0.00354736
0.0016102
-0.00261616
0.00479118
0.000811774
-0.0020556
0.00631151
-0.000223824
-0.00129651
0.00815304
-0.00150768
-0.000333847
0.0103647
-0.00305148
0.000839777
0.012997
-0.00486649
0.00223422
0.0160972
-0.00696113
0.00386096
0.0197049
-0.00933845
0.00573073
0.0238463
-0.0119937
0.00785231
0.0285285
-0.0149122
0.0102299
0.0337355
-0.0180682
0.0128612
0.0394251
-0.0214247
0.0157352
0.0455281
-0.0249344
0.0188314
0.0519502
-0.0285416
0.0221195
0.0585756
-0.0321852
0.0255598
0.0652729
-0.0358021
0.0291047
0.0719036
-0.0393311
0.0327005
0.07833
-0.0427169
0.0362904
0.0844255
-0.0459134
0.0398179
0.0900832
-0.0488865
0.0432287
0.0952227
-0.0516176
0.0464781
0.099799
-0.0541007
0.0495243
0.103796
-0.0563521
0.0523551
0.107245
-0.0583818
0.0549329
0.110176
-0.0602583
0.0573272
0.112681
-0.0619332
0.0594279
0.114761
-0.0636411
0.0615616
0.116344
-0.0648979
0.0633144
-0.0666864
0.0657387
0.117292
-2.00758e-05
0.00047808
-1.61281e-05
0.00123689
5.8195e-05
0.00179812
0.000239132
0.00214879
0.000557419
0.00228011
0.00104197
0.00218362
0.00172293
0.00185022
0.00263413
0.00126957
0.00381464
0.000429683
0.00530936
-0.000682939
0.00716809
-0.00208256
0.00944314
-0.00378272
0.0121855
-0.00579387
0.0154395
-0.0081205
0.0192366
-0.0107582
0.0235891
-0.0136909
0.0284849
-0.0168895
0.0338838
-0.0203111
0.0397165
-0.0239008
0.0458857
-0.027594
0.0522713
-0.0313201
0.0587371
-0.0350074
0.0651398
-0.0385878
0.0713389
-0.0420012
0.0772075
-0.0451997
0.0826413
-0.0481507
0.0875663
-0.0508383
0.0919435
-0.0532637
0.0957701
-0.0554442
0.0990773
-0.0574078
0.10192
-0.059195
0.104377
-0.0608387
0.106512
-0.0623931
0.108428
-0.0638494
0.110104
-0.0653174
0.111795
-0.0665886
-0.0682038
0.113313
-2.84024e-05
0.000506483
-3.75537e-05
0.00124604
2.91197e-05
0.00173144
0.000217852
0.00196006
0.000570282
0.00192768
0.00112715
0.00162675
0.00193136
0.00104601
0.00302991
0.000171019
0.00447444
-0.00101485
0.00632002
-0.00252852
0.00862209
-0.00438463
0.0114315
-0.00659213
0.0147881
-0.00915049
0.0187137
-0.0120461
0.0232053
-0.0152498
0.0282301
-0.0187157
0.0337231
-0.0223824
0.0395882
-0.0261763
0.0457031
-0.0300157
0.0519267
-0.0338176
0.0581099
-0.0375033
0.0641068
-0.0410043
0.0697863
-0.0442673
0.0750428
-0.0472577
0.0798035
-0.0499605
0.0840335
-0.0523806
0.0877351
-0.0545399
0.0909444
-0.056473
0.0937228
-0.0582227
0.0961474
-0.0598324
0.0982984
-0.0613461
0.10025
-0.0627905
0.102066
-0.0642084
0.103788
-0.0655721
0.105455
-0.0669846
0.107098
-0.0682306
-0.0697735
0.108667
-2.99538e-05
0.000536437
-3.49544e-05
0.00125104
5.09441e-05
0.00164554
0.000284223
0.00172678
0.000718045
0.00149386
0.00140571
0.000939082
0.00240304
4.86817e-05
0.00376907
-0.00119501
0.00556458
-0.00281036
0.00784842
-0.00481236
0.0106716
-0.00720779
0.0140697
-0.00999024
0.018055
-0.0131358
0.0226093
-0.0166005
0.0276797
-0.0203202
0.0331777
-0.0242137
0.0389832
-0.028188
0.0449527
-0.0321458
0.0509307
-0.0359936
0.0567625
-0.0396494
0.0623083
-0.0430491
0.0674548
-0.0461508
0.072124
-0.0489365
0.0762776
-0.0514113
0.0799171
-0.0536
0.0830783
-0.0555419
0.0858229
-0.0572845
0.088227
-0.0588771
0.0903694
-0.0603652
0.0923234
-0.0617863
0.0941469
-0.0631696
0.0958873
-0.0645309
0.0975678
-0.0658889
0.0992202
-0.0672245
0.100836
-0.0686002
0.102465
-0.0698601
-0.0713806
0.104072
-2.43465e-05
0.000560783
-6.57244e-06
0.00123327
0.00012713
0.00151184
0.000443983
0.00140993
0.00100865
0.000929192
0.00188657
6.11635e-05
0.00314487
-0.00120961
0.00485084
-0.00290098
0.00706774
-0.00502725
0.00984793
-0.00759255
0.0132243
-0.0105841
0.017201
-0.013967
0.0217465
-0.0176813
0.0267894
-0.0216433
0.0322199
-0.0257507
0.037897
-0.0298908
0.0436603
-0.0339512
0.0493445
-0.0378301
0.054796
-0.0414451
0.0598866
-0.04474
0.0645248
-0.0476873
0.0686615
-0.0502875
0.0722902
-0.0525652
0.0754417
-0.0545627
0.0781745
-0.0563328
0.0805631
-0.0579305
0.082686
-0.0594073
0.0846155
-0.0608066
0.0864118
-0.0621615
0.0881201
-0.0634946
0.0897716
-0.0648211
0.0913866
-0.066146
0.092977
-0.0674792
0.0945565
-0.0688041
0.0961227
-0.0701663
0.0977106
-0.071448
-0.0729412
0.0992711
-1.22116e-05
0.000572995
4.56431e-05
0.00117541
0.000255467
0.00130202
0.000693856
0.000971539
0.00143649
0.00018656
0.00255928
-0.00106163
0.004137
-0.00278734
0.00623875
-0.00500273
0.00892028
-0.00770878
0.0122141
-0.0108864
0.0161193
-0.0144893
0.0205934
-0.0184411
0.0255493
-0.0226371
0.0308586
-0.0269527
0.0363624
-0.0312545
0.0418866
-0.035415
0.0472605
-0.0393251
0.0523349
-0.0429045
0.0569963
-0.0461065
0.0611759
-0.0489196
0.0648513
-0.0513627
0.0680422
-0.0534784
0.0708005
-0.0553235
0.0731979
-0.0569601
0.0753126
-0.0584475
0.077219
-0.0598369
0.07898
-0.0611684
0.0806443
-0.0624709
0.0822462
-0.0637633
0.0838085
-0.0650569
0.0853452
-0.0663578
0.0868669
-0.0676676
0.0883779
-0.0689903
0.0898888
-0.0703149
0.0913953
-0.0716729
0.0929227
-0.0729754
-0.0744567
0.0944383
5.62302e-06
0.000567372
0.000119356
0.00106168
0.000430407
0.000990966
0.00102457
0.000377379
0.00198683
-0.000775698
0.00340027
-0.00247507
0.00534141
-0.00472847
0.00787179
-0.00753311
0.0110268
-0.0108638
0.014804
-0.0146636
0.0191537
-0.018839
0.0239765
-0.0232638
0.0291282
-0.0277889
0.0344344
-0.0322588
0.0397098
-0.0365299
0.0447806
-0.0404858
0.0495036
-0.0440481
0.05378
-0.0471809
0.0575617
-0.0498883
0.0608489
-0.0522068
0.0636808
-0.0541947
0.0661231
-0.0559207
0.0682533
-0.0574537
0.0701485
-0.0588553
0.0718766
-0.0601756
0.0734916
-0.0614519
0.0750331
-0.0627099
0.0765281
-0.0639658
0.0779939
-0.0652291
0.0794414
-0.0665044
0.0808775
-0.067794
0.0823076
-0.0690977
0.0837346
-0.0704173
0.0851654
-0.0717457
0.0865963
-0.0731038
0.0880491
-0.0744281
-0.075901
0.0894934
2.76871e-05
0.000539685
0.000210772
0.000878595
0.000645176
0.000556562
0.00142474
-0.000402189
0.00264121
-0.00199216
0.00437974
-0.00421361
0.00671011
-0.00705884
0.00967419
-0.0104972
0.0132722
-0.0144619
0.017452
-0.0188434
0.0221056
-0.0234926
0.0270763
-0.0282345
0.0321762
-0.0328888
0.0372101
-0.0372928
0.0420012
-0.041321
0.0464115
-0.0448961
0.0503553
-0.0479918
0.0538014
-0.050627
0.0567673
-0.0528541
0.0593061
-0.0547456
0.0614917
-0.0563802
0.0634034
-0.0578323
0.0651151
-0.0591654
0.0666885
-0.0604288
0.0681707
-0.0616578
0.0695949
-0.0628761
0.0709831
-0.064098
0.072349
-0.0653318
0.0737012
-0.0665813
0.0750451
-0.0678483
0.0763842
-0.0691331
0.0777216
-0.0704352
0.0790596
-0.0717553
0.0804034
-0.0730895
0.081751
-0.0744514
0.0831194
-0.0757966
-0.0772649
0.0844834
5.34184e-05
0.000486266
0.00031731
0.000614704
0.000894113
-2.02416e-05
0.00188389
-0.00139197
0.00338104
-0.00348931
0.00546549
-0.00629805
0.00818906
-0.00978241
0.0115596
-0.0138677
0.0155277
-0.01843
0.0199818
-0.0232975
0.024756
-0.0282668
0.0296506
-0.0331291
0.0344604
-0.0376986
0.0390042
-0.0418366
0.0431472
-0.0454639
0.0468126
-0.0485615
0.0499818
-0.0511611
0.0526848
-0.05333
0.0549841
-0.0551534
0.056958
-0.0567195
0.0586861
-0.0581083
0.060239
-0.0593852
0.0616735
-0.0605999
0.0630315
-0.0617867
0.0643417
-0.062968
0.0656227
-0.0641571
0.0668858
-0.0653611
0.0681377
-0.0665838
0.0693827
-0.0678263
0.0706234
-0.069089
0.0718622
-0.0703718
0.0731014
-0.0716744
0.0743432
-0.0729971
0.0755919
-0.0743382
0.0768464
-0.0757059
0.0781206
-0.0770708
-0.078537
0.0793927
8.25023e-05
0.000403764
0.000437588
0.000259618
0.00117332
-0.000755974
0.00239303
-0.00261168
0.00418782
-0.0052841
0.00662243
-0.00873267
0.00971728
-0.0128773
0.0134318
-0.0175823
0.0176567
-0.0226549
0.0222211
-0.0278618
0.026915
-0.0329607
0.0315227
-0.0377367
0.0358557
-0.0420317
0.0397781
-0.045759
0.0432177
-0.0489035
0.0461636
-0.0515074
0.0486539
-0.0536514
0.050757
-0.0554331
0.0525541
-0.0569506
0.0541245
-0.0582899
0.0555364
-0.0595201
0.056843
-0.0606919
0.0580828
-0.0618397
0.0592814
-0.0629853
0.0604549
-0.0641415
0.061613
-0.0653152
0.0627613
-0.0665094
0.0639031
-0.0677256
0.0650408
-0.0689639
0.0661761
-0.0702244
0.0673111
-0.0715067
0.0684477
-0.0728111
0.0695882
-0.0741376
0.070736
-0.075486
0.0718909
-0.0768608
0.0730637
-0.0782436
-0.0797085
0.0742352
0.000115108
0.000288656
0.000571149
-0.000196423
0.00147981
-0.00166463
0.00294315
-0.00407502
0.00504064
-0.00738159
0.00780966
-0.0115017
0.0112251
-0.0162927
0.015187
-0.0215442
0.0195248
-0.0269927
0.024021
-0.0323579
0.0284478
-0.0373876
0.0326061
-0.041895
0.0363534
-0.045779
0.0396165
-0.0490221
0.0423873
-0.0516743
0.0447082
-0.0538282
0.0466513
-0.0555945
0.0482998
-0.0570816
0.0497329
-0.0583837
0.0510176
-0.0595746
0.052205
-0.0607076
0.0533313
-0.0618182
0.0544203
-0.0629286
0.0554865
-0.0640515
0.0565386
-0.0651936
0.0575813
-0.0663579
0.0586175
-0.0675457
0.0596492
-0.0687573
0.0606778
-0.0699926
0.061705
-0.0712516
0.0627324
-0.0725342
0.0637621
-0.0738407
0.0647961
-0.0751716
0.0658372
-0.0765271
0.0668857
-0.0779093
0.0679495
-0.0793074
-0.0807714
0.0690124
0.000151526
0.00013713
0.000717567
-0.000762464
0.0018099
-0.00275697
0.0035227
-0.00578782
0.00591328
-0.00977218
0.0089783
-0.0145667
0.0126354
-0.0199498
0.0167217
-0.0256305
0.0210157
-0.0312868
0.0252776
-0.0366198
0.0292931
-0.041403
0.0329072
-0.0455091
0.0360393
-0.0489111
0.0386789
-0.0516617
0.0408689
-0.0538643
0.0426834
-0.0556427
0.044207
-0.0571182
0.04552
-0.0583946
0.046689
-0.0595527
0.0477646
-0.0606502
0.0487818
-0.0617248
0.0497633
-0.0627998
0.050723
-0.0638883
0.0516688
-0.0649973
0.052605
-0.0661298
0.0535343
-0.0672872
0.0544583
-0.0684697
0.0553783
-0.0696773
0.0562956
-0.0709099
0.0572116
-0.0721676
0.0581281
-0.0734506
0.0590468
-0.0747595
0.0599699
-0.0760946
0.0608993
-0.0774565
0.0618357
-0.0788457
0.0627845
-0.0802562
-0.0817192
0.0637323
0.000191862
-5.47322e-05
0.000875571
-0.00144617
0.00215765
-0.00403904
0.00411569
-0.00774586
0.00677281
-0.0124293
0.0100727
-0.0178666
0.0138698
-0.0237469
0.0179453
-0.0297059
0.022048
-0.0353895
0.025945
-0.0405169
0.0294624
-0.0449204
0.0325049
-0.0485517
0.0350537
-0.0514598
0.0371482
-0.0537562
0.0388626
-0.0555787
0.0402831
-0.0570632
0.0414913
-0.0583264
0.0425551
-0.0594584
0.0435255
-0.0605232
0.0444378
-0.0615624
0.0453144
-0.0626014
0.0461689
-0.0636543
0.047009
-0.0647284
0.0478389
-0.0658271
0.0486609
-0.0669518
0.0494766
-0.0681029
0.0502872
-0.0692802
0.0510937
-0.0704838
0.0518974
-0.0717136
0.0526996
-0.0729698
0.053502
-0.074253
0.0543063
-0.0755638
0.0551144
-0.0769027
0.0559277
-0.0782698
0.0567469
-0.0796648
0.0575752
-0.0810846
-0.0825463
0.0584023
0.000235816
-0.000290548
0.00104248
-0.00225283
0.00251406
-0.00551063
0.00470126
-0.00993305
0.00758097
-0.015309
0.0110356
-0.0213213
0.014859
-0.0275702
0.0187933
-0.0336403
0.022585
-0.0391812
0.0260345
-0.0439663
0.029024
-0.0479099
0.0315193
-0.0510469
0.0335519
-0.0534924
0.0351936
-0.055398
0.0365316
-0.0569167
0.0376499
-0.0581814
0.0386186
-0.0592951
0.0394906
-0.0603304
0.0403023
-0.0613349
0.0410769
-0.062337
0.0418281
-0.0633526
0.0425638
-0.0643899
0.0432881
-0.0654527
0.0440033
-0.0665424
0.0447111
-0.0676596
0.0454123
-0.0688041
0.0461079
-0.0699759
0.0467991
-0.0711749
0.0474869
-0.0724014
0.0481728
-0.0736557
0.0488583
-0.0749385
0.049545
-0.0762505
0.0502344
-0.077592
0.0509276
-0.078963
0.051625
-0.0803623
0.0523287
-0.0817882
-0.0832483
0.0530306
0.000282665
-0.000573213
0.00121407
-0.00318424
0.00286722
-0.00716378
0.00525486
-0.0123207
0.00829772
-0.0183519
0.0118151
-0.0248386
0.0155518
-0.0313069
0.019235
-0.0373235
0.0226344
-0.0425806
0.0256013
-0.0469332
0.0280777
-0.0503863
0.030081
-0.0530503
0.0316774
-0.0550888
0.0329539
-0.0566745
0.0339972
-0.0579601
0.0348813
-0.0590655
0.035662
-0.0600757
0.0363779
-0.0610463
0.0370537
-0.0620107
0.037704
-0.0629873
0.0383369
-0.0639856
0.0389571
-0.06501
0.0395667
-0.0660624
0.0401674
-0.0671431
0.04076
-0.0682522
0.0413455
-0.0693896
0.0419248
-0.0705552
0.0424989
-0.071749
0.0430689
-0.0729714
0.0436362
-0.074223
0.0442022
-0.0755045
0.0447683
-0.0768166
0.0453358
-0.0781595
0.0459054
-0.0795326
0.0464774
-0.0809343
0.0470526
-0.0823634
-0.0838215
0.0476258
0.000331195
-0.000904409
0.00138475
-0.00423779
0.00320308
-0.00898211
0.00575059
-0.0148682
0.00888601
-0.0214873
0.0123712
-0.0283239
0.0159214
-0.0348571
0.0192731
-0.0406753
0.0222386
-0.0455461
0.0247265
-0.0494211
0.0267323
-0.052392
0.0283113
-0.0546293
0.0295485
-0.056326
0.0305333
-0.0576593
0.031344
-0.0587708
0.032041
-0.0597624
0.0326663
-0.0607011
0.0332471
-0.0616271
0.0337992
-0.0625628
0.0343318
-0.0635198
0.0348496
-0.0645034
0.0353552
-0.0655157
0.0358503
-0.0665574
0.0363357
-0.0676285
0.0368123
-0.0687288
0.0372809
-0.0698582
0.0377424
-0.0710167
0.0381978
-0.0722044
0.0386481
-0.0734218
0.0390947
-0.0746696
0.0395389
-0.0759487
0.0399819
-0.0772596
0.0404246
-0.0786022
0.0408674
-0.0799754
0.0413106
-0.0813774
0.0417542
-0.0828071
-0.0842625
0.0421952
0.00037979
-0.0012842
0.001548
-0.005406
0.00350684
-0.010941
0.00616407
-0.0175254
0.00931631
-0.0246395
0.012681
-0.0316886
0.0159657
-0.0381418
0.0189374
-0.0436469
0.0214607
-0.0480694
0.0234989
-0.0514593
0.0250897
-0.0539827
0.0263118
-0.0558514
0.0272563
-0.0572705
0.0280065
-0.0584096
0.0286286
-0.0593929
0.0291693
-0.0603032
0.0296592
-0.061191
0.0301164
-0.0620843
0.0305511
-0.0629976
0.0309689
-0.0639376
0.0313726
-0.0649071
0.0317638
-0.065907
0.0321437
-0.0669373
0.0325131
-0.0679979
0.0328727
-0.0690884
0.0332233
-0.0702088
0.0335658
-0.0713591
0.033901
-0.0725396
0.0342301
-0.0737509
0.0345543
-0.0749938
0.0348747
-0.0762692
0.0351924
-0.0775773
0.035508
-0.0789178
0.0358216
-0.080289
0.0361333
-0.081689
0.0364427
-0.0831165
-0.0845681
0.0367483
0.000426797
-0.001711
0.00169749
-0.0066767
0.00376504
-0.0130085
0.00647567
-0.0202361
0.00956993
-0.0277338
0.0127387
-0.0348574
0.0157033
-0.0411063
0.0182746
-0.0462183
0.0203716
-0.0501664
0.0220036
-0.0530914
0.0232374
-0.0552164
0.0241626
-0.0567767
0.0248677
-0.0579756
0.0254253
-0.0589672
0.0258885
-0.0598561
0.0262925
-0.0607072
0.0266583
-0.0615568
0.0269981
-0.0624241
0.0273183
-0.0633177
0.0276223
-0.0642416
0.027912
-0.0651968
0.0281885
-0.0661835
0.0284527
-0.0672015
0.0287053
-0.0682505
0.0289471
-0.0693302
0.0291787
-0.0704404
0.029401
-0.0715814
0.0296148
-0.0727535
0.0298213
-0.0739574
0.0300215
-0.075194
0.0302164
-0.0764641
0.030407
-0.0777679
0.0305937
-0.0791045
0.0307765
-0.0804718
0.0309553
-0.0818678
0.0311292
-0.0832904
-0.0847364
0.0312975
0.000471508
-0.0021825
0.00182861
-0.0080338
0.00396734
-0.0151472
0.00667218
-0.0229409
0.00963967
-0.0307013
0.0125542
-0.0377719
0.0151676
-0.0437197
0.0173411
-0.0483918
0.0190429
-0.0518681
0.0203173
-0.0543658
0.0212479
-0.056147
0.0219261
-0.0574549
0.0224319
-0.0584814
0.0228261
-0.0593613
0.0231498
-0.0601798
0.0234283
-0.0609857
0.0236764
-0.0618049
0.0239017
-0.0626494
0.0241085
-0.0635246
0.024299
-0.064432
0.0244744
-0.0653722
0.0246357
-0.0663448
0.0247836
-0.0673494
0.0249188
-0.0683857
0.025042
-0.0694533
0.0251538
-0.0705522
0.025255
-0.0716826
0.0253465
-0.0728449
0.0254292
-0.07404
0.0255041
-0.0752689
0.0255721
-0.0765322
0.0256342
-0.0778299
0.0256905
-0.0791608
0.0257412
-0.0805225
0.0257862
-0.0819128
0.0258252
-0.0833294
0.0258588
-0.08477
-4.62047e-05
0.00168737
-0.00164116
-0.000188475
0.00420977
-0.0040675
-0.000427231
0.00606778
-0.00582902
-0.000757002
0.00736987
-0.0070401
-0.00116841
0.00822715
-0.00781574
-0.00165061
0.00874701
-0.0082648
-0.00219318
0.00902505
-0.00848248
-0.00278716
0.00913979
-0.00854581
-0.00342558
0.00915075
-0.00851232
-0.0041035
0.00909916
-0.00842125
-0.00481777
0.00901069
-0.00829642
-0.00556682
0.00889895
-0.0081499
-0.00635028
0.00876913
-0.00798566
-0.00716871
0.00862113
-0.0078027
-0.00802337
0.00845188
-0.00759723
-0.00891599
0.00825678
-0.00736416
-0.00984871
0.00803056
-0.00709784
-0.010824
0.00776765
-0.00679241
-0.0118444
0.00746227
-0.00644183
-0.0129129
0.00710851
-0.00603996
-0.0140327
0.00670024
-0.00558046
-0.0152071
0.00623119
-0.00505684
-0.0164396
0.00569489
-0.0044624
-0.0177339
0.00508469
-0.00379039
-0.019094
0.00439379
-0.00303365
-0.0205239
0.00361528
-0.00218541
-0.0220284
0.00274179
-0.00123729
-0.0236198
0.00176603
-0.000174623
-0.0252783
0.000681831
0.000976651
-0.0270318
-0.000505022
0.00225857
-0.0288796
-0.00181652
0.00366429
-0.0308272
-0.00325175
0.00519942
-0.0328805
-0.00481535
0.00686864
-0.0350454
-0.00651116
0.00867604
-0.0373291
-0.00834394
0.0106276
-0.0397418
-0.0103201
0.0127328
-0.0124352
-0.0422932
0.0149866
-2.44351e-05
0.0017118
-0.000117528
0.00430286
-0.000290996
0.00624124
-0.000547392
0.00762627
-0.000882323
0.00856208
-0.00128742
0.00915211
-0.0017529
0.00949053
-0.00226933
0.00965622
-0.0028287
0.00971012
-0.00342487
0.00969533
-0.00405364
0.00963945
-0.00471254
0.00955785
-0.00540059
0.00945717
-0.0061179
0.00933844
-0.00686544
0.00919942
-0.00764478
0.00903612
-0.00845797
0.00884375
-0.00930741
0.00861709
-0.0101958
0.00835069
-0.0111263
0.00803893
-0.012102
0.00767598
-0.0131266
0.00725582
-0.014204
0.00677224
-0.0153381
0.00621883
-0.0165334
0.00558906
-0.0177943
0.00487624
-0.0191261
0.00407358
-0.0205348
0.00317466
-0.0220254
0.00217245
-0.0235898
0.00105941
-0.0252481
-0.000158243
-0.0270047
-0.00149511
-0.0288641
-0.002956
-0.0308329
-0.00454237
-0.0329204
-0.00625635
-0.0351425
-0.00809804
-0.0100607
-0.0375171
-1.25572e-06
0.00171306
-4.0345e-05
0.00434195
-0.000140864
0.00634176
-0.000313428
0.00779883
-0.000559156
0.00880781
-0.000872625
0.00946558
-0.0012451
0.009863
-0.00166693
0.0100781
-0.00212915
0.0101723
-0.00262438
0.0101906
-0.00314716
0.0101622
-0.00369396
0.0101047
-0.00426289
0.0100261
-0.00485338
0.00992893
-0.00546585
0.00981189
-0.00610149
0.00967176
-0.006762
0.00950427
-0.00744956
0.00930464
-0.00816668
0.00906781
-0.00891623
0.00878848
-0.00970139
0.00846115
-0.0105257
0.00808009
-0.0113928
0.00763938
-0.0123068
0.00713285
-0.013272
0.00655419
-0.0142926
0.00589689
-0.0153734
0.0051544
-0.0165189
0.00432018
-0.0177343
0.00338776
-0.0190251
0.00235025
-0.0203866
0.00120324
-0.0218281
-5.35883e-05
-0.0233588
-0.0014253
-0.0249817
-0.00291946
-0.0267047
-0.00453334
-0.0285418
-0.006261
-0.00809156
-0.0305109
2.27319e-05
0.00169033
3.99003e-05
0.00432478
1.77671e-05
0.0063639
-6.30986e-05
0.0078797
-0.000209254
0.00895397
-0.000418805
0.00967513
-0.000684615
0.0101288
-0.000997177
0.0103906
-0.00134677
0.0105219
-0.00172482
0.0105686
-0.00212455
0.010562
-0.00254114
0.0105212
-0.00297164
0.0104566
-0.00341453
0.0103718
-0.00386949
0.0102669
-0.0043371
0.0101394
-0.00481855
0.00998572
-0.00531556
0.00980166
-0.00583029
0.00958254
-0.00636528
0.00932347
-0.00692344
0.0090193
-0.00750803
0.00866468
-0.00812264
0.00825399
-0.00877115
0.00778136
-0.00945766
0.00724069
-0.0101864
0.00662562
-0.0109616
0.00592958
-0.0117873
0.00514589
-0.0126673
0.00426778
-0.0136057
0.00328865
-0.0146044
0.00220197
-0.0156601
0.00100211
-0.0167782
-0.000307188
-0.0179624
-0.0017353
-0.0192149
-0.00328083
-0.0205429
-0.00493299
-0.00667084
-0.0219636
4.5705e-05
0.00164462
0.000119448
0.00425104
0.000177697
0.00630565
0.000193707
0.00786369
0.000154582
0.00899309
5.83208e-05
0.00977139
-8.99859e-05
0.0102771
-0.000281455
0.0105821
-0.000505961
0.0107464
-0.000753884
0.0108165
-0.00101714
0.0108252
-0.00128951
0.0107936
-0.001567
0.0107341
-0.00184676
0.0106516
-0.0021276
0.0105477
-0.00240931
0.0104211
-0.00269244
0.0102689
-0.00297815
0.0100874
-0.0032681
0.00987249
-0.0035644
0.00961977
-0.00386963
0.00932452
-0.00418673
0.00898179
-0.00451908
0.00858634
-0.00487036
0.00813265
-0.00524451
0.00761485
-0.00564559
0.00702669
-0.00607756
0.00636155
-0.00654407
0.0056124
-0.00704815
0.00477186
-0.00759191
0.00383241
-0.00817609
0.00278615
-0.00880042
0.00162645
-0.00945408
0.000346464
-0.0101428
-0.00104656
-0.0108598
-0.00256384
-0.0116025
-0.00419029
-0.00589418
-0.0123792
6.69843e-05
0.00157764
0.000194936
0.00412309
0.000332731
0.00616785
0.000446637
0.00774978
0.000518151
0.00892158
0.000541015
0.00974853
0.000517672
0.0103005
0.000455811
0.0106439
0.000365492
0.0108368
0.000257022
0.010925
0.000139668
0.0109426
2.08454e-05
0.0109124
-9.32672e-05
0.0108482
-0.000199508
0.0107578
-0.000295439
0.0106436
-0.000379872
0.0105055
-0.000452555
0.0103415
-0.000513958
0.0101488
-0.000565142
0.00992367
-0.000607703
0.00966234
-0.000643707
0.00936053
-0.000675679
0.00901376
-0.000706556
0.00861721
-0.000739617
0.00816571
-0.00077838
0.00765361
-0.000826437
0.00707475
-0.00088726
0.00642238
-0.000963838
0.00568897
-0.00105831
0.00486633
-0.00117139
0.00394549
-0.00130218
0.00291694
-0.00144624
0.00177051
-0.00159468
0.000494907
-0.00173738
-0.000903859
-0.00186005
-0.00244116
-0.0019478
-0.00410255
-0.0058669
-0.00197508
8.55399e-05
0.0014921
0.000262942
0.00394569
0.000475796
0.005955
0.0006849
0.00754068
0.000866586
0.00873989
0.00101033
0.00960479
0.00111551
0.0101953
0.00118808
0.0105714
0.00123751
0.0107873
0.0012744
0.0108881
0.00130888
0.0109081
0.00134971
0.0108716
0.00140353
0.0107944
0.00147572
0.0106856
0.00156973
0.0105496
0.00168774
0.0103875
0.00183091
0.0101984
0.00199959
0.00998009
0.00219346
0.0097298
0.00241168
0.00944411
0.00265291
0.0091193
0.00291539
0.00875128
0.00319703
0.00833557
0.00349548
0.00786725
0.00380828
0.00734081
0.004133
0.00675002
0.00446759
0.00608779
0.0048105
0.00534606
0.00516122
0.00451561
0.00552078
0.00358593
0.00589263
0.00254509
0.00628327
0.00137987
0.00670121
7.69673e-05
0.00716537
-0.00136802
0.00769799
-0.00297379
0.00832658
-0.00473113
-0.00661307
0.00907274
0.000100574
0.00139152
0.000320497
0.00372576
0.000600677
0.00567482
0.000898196
0.00724316
0.00118518
0.00845291
0.00144707
0.00934289
0.00168001
0.00996234
0.00188766
0.0103637
0.00207832
0.0105967
0.00226231
0.0107041
0.00245024
0.0107202
0.00265173
0.0106701
0.00287482
0.0105713
0.00312591
0.0104345
0.00340976
0.0102658
0.0037297
0.0100676
0.00408798
0.00984008
0.00448596
0.00958212
0.0049243
0.00929146
0.00540317
0.00896524
0.00592236
0.00860012
0.00648135
0.00819229
0.00707952
0.00773741
0.00771621
0.00723056
0.00839096
0.00666606
0.0091037
0.00603729
0.00985496
0.00533653
0.0106463
0.00455477
0.0114804
0.00368148
0.0123618
0.00270453
0.013297
0.00160991
0.0142956
0.000381224
0.015366
-0.000993463
0.016532
-0.00253398
0.0178157
-0.00425752
0.0192351
-0.00615047
-0.00825313
0.0208751
0.000111526
0.00128
0.000365259
0.00347203
0.000702083
0.00533799
0.00107736
0.00686788
0.00146028
0.00806999
0.00183289
0.00897028
0.00218807
0.00960716
0.00252692
0.0100249
0.00285601
0.0102676
0.00318485
0.0103753
0.00352397
0.010381
0.00388353
0.0103106
0.00427252
0.0101823
0.00469844
0.0100086
0.00516725
0.00979697
0.00568353
0.00955127
0.00625073
0.00927288
0.00687142
0.00896143
0.00754754
0.00861533
0.00828063
0.00823215
0.00907201
0.00780874
0.00992299
0.0073413
0.0108351
0.00682532
0.0118102
0.00625546
0.0128508
0.0056254
0.0139605
0.0049276
0.0151439
0.00415312
0.0164072
0.00329149
0.0177582
0.00233044
0.0192076
0.00125519
0.0207658
5.17213e-05
0.0224483
-0.00130134
0.0242743
-0.00281946
0.0262587
-0.0045183
0.0284354
-0.00643422
0.0307989
-0.008514
-0.0109459
0.0334916
0.000118082
0.00116192
0.000395624
0.00319449
0.000775994
0.00495762
0.00121491
0.00642897
0.00168014
0.00760475
0.00215126
0.00849917
0.00261826
0.00914016
0.00307958
0.00956354
0.00353968
0.0098075
0.00400671
0.00990823
0.00449062
0.00989714
0.0050016
0.00979958
0.00554921
0.0096347
0.00614185
0.00941598
0.00678656
0.00915225
0.00748918
0.00884865
0.00825448
0.00850759
0.00908645
0.00812946
0.0099886
0.00771319
0.0109642
0.00725654
0.0120167
0.0067563
0.0131496
0.00620831
0.0143675
0.00560743
0.0156756
0.00494735
0.0170806
0.00422048
0.0185904
0.00341775
0.0202152
0.00252837
0.0219675
0.00153912
0.0238601
0.000437927
0.0259131
-0.000797889
0.0281463
-0.00218147
0.0305782
-0.00373319
0.0332374
-0.00547867
0.036137
-0.00741793
0.0393317
-0.00962889
0.0427665
-0.0119488
-0.0148663
0.046687
0.000120164
0.00104175
0.000410758
0.00290389
0.000819836
0.00454855
0.00130545
0.00594336
0.00183563
0.00707457
0.00238859
0.00794621
0.00295213
0.00857661
0.00352221
0.00899346
0.00410102
0.00922869
0.00469499
0.00931426
0.00531296
0.00927917
0.00596469
0.00914785
0.00665988
0.00893951
0.00740749
0.00866837
0.00821553
0.00834421
0.00909103
0.00797315
0.0100402
0.00755843
0.0110687
0.00710099
0.0121819
0.00659999
0.0133853
0.00605307
0.0146851
0.00545654
0.016088
0.00480538
0.0176023
0.00409317
0.0192376
0.00331204
0.0210056
0.00245249
0.022921
0.00150236
0.0249983
0.000451006
0.0272603
-0.000722889
0.0297303
-0.00203203
0.0324298
-0.00349736
0.0353886
-0.00514029
0.0386326
-0.00697714
0.0421983
-0.00904437
0.0460894
-0.0113091
0.0503883
-0.0139278
0.0549647
-0.0165253
-0.0200633
0.0601617
0.000117887
0.000923865
0.000410545
0.00261124
0.000832513
0.00412658
0.00134595
0.00542992
0.00192075
0.00649978
0.0025351
0.00733186
0.0031755
0.00793621
0.00383591
0.00833306
0.00451635
0.00854824
0.00522137
0.00860924
0.00595836
0.00854218
0.00673627
0.00836994
0.00756452
0.00811126
0.00845241
0.00778049
0.00940872
0.0073879
0.0104417
0.00694017
0.0115592
0.00644094
0.0127689
0.0058913
0.0140787
0.00529016
0.0154973
0.00463451
0.0170343
0.00391954
0.018701
0.00313866
0.0205105
0.00228365
0.0224796
0.00134296
0.0246239
0.000308166
0.0269695
-0.000843244
0.0295414
-0.00212091
0.0323648
-0.00354629
0.035472
-0.0051392
0.0388946
-0.00691998
0.0426666
-0.00891225
0.046815
-0.0111255
0.0513779
-0.0136073
0.0563412
-0.0162725
0.0617977
-0.0193842
0.0675533
-0.0222809
-0.0264808
0.0739708
0.00011151
0.000812356
0.000395481
0.00232726
0.000814323
0.00370774
0.00133577
0.00490847
0.00193303
0.00590252
0.0025856
0.00667928
0.00327972
0.00724209
0.00400805
0.00760473
0.00476889
0.00778741
0.00556495
0.00781317
0.00640215
0.00770498
0.00728841
0.00748369
0.00823273
0.00716693
0.00924463
0.00676859
0.0103337
0.00629878
0.0115098
0.00576407
0.0127829
0.00516785
0.0141636
0.00451062
0.0156635
0.00379028
0.0172956
0.00300236
0.0190749
0.00214024
0.0210203
0.00119329
0.0231483
0.000155636
0.0254893
-0.000997984
0.02807
-0.00227261
0.0309178
-0.00369099
0.0340686
-0.00527172
0.0375575
-0.00703522
0.0414206
-0.0090023
0.0456917
-0.011191
0.0504001
-0.0136207
0.0555644
-0.0162898
0.0612021
-0.019245
0.0672811
-0.0223515
0.0738431
-0.0259462
0.0806965
-0.0291343
-0.0338351
0.0880509
0.000101374
0.000710982
0.000366551
0.00206209
0.000766827
0.00330746
0.00127664
0.00439866
0.00187372
0.00530544
0.00254011
0.0060129
0.00326286
0.00651934
0.00403426
0.00683332
0.00485151
0.00697016
0.00571597
0.00694871
0.00663235
0.0067886
0.00760776
0.00650828
0.00865105
0.00612364
0.00977232
0.00564732
0.0109827
0.0050884
0.0122944
0.00445241
0.0137208
0.00374142
0.0152771
0.0029543
0.0169805
0.00208688
0.0188519
0.00113096
0.02091
8.21688e-05
0.0231885
-0.00108525
0.0257177
-0.00237351
0.0285256
-0.00380592
0.0316527
-0.00539972
0.0351365
-0.00717473
0.0390153
-0.00915057
0.043325
-0.0113449
0.0480952
-0.0137725
0.0533468
-0.0164427
0.0590864
-0.0193603
0.0653073
-0.0225107
0.0719755
-0.0259132
0.0790476
-0.0294236
0.0864395
-0.0333381
0.0940598
-0.0367547
-0.0415856
0.10181
8.78813e-05
0.000623101
0.000325175
0.00182479
0.000692796
0.00293984
0.0011727
0.00391876
0.0017481
0.00473004
0.00240458
0.00535641
0.00313112
0.0057928
0.00392065
0.00604379
0.0047702
0.00612061
0.00568065
0.00603825
0.00665628
0.00581297
0.00770427
0.0054603
0.00883426
0.00499365
0.0100582
0.00442341
0.0113902
0.00375643
0.0128467
0.00299586
0.0144471
0.00214107
0.0162138
0.00118752
0.0181705
0.000130254
0.0203504
-0.00104895
0.0227891
-0.00235657
0.0255168
-0.00381296
0.0285775
-0.00543416
0.0320104
-0.00723888
0.0358559
-0.00924514
0.0401498
-0.0114687
0.0449213
-0.013922
0.0501884
-0.016612
0.0559553
-0.0195393
0.062208
-0.0226954
0.0689103
-0.0260626
0.0760101
-0.0296105
0.0834094
-0.0333125
0.091049
-0.0370631
0.0987109
-0.041
0.106448
-0.0444914
-0.0489139
0.113776
7.15215e-05
0.000551579
0.000273287
0.00162303
0.000596381
0.00261675
0.00103082
0.00348432
0.001566
0.00419486
0.00219195
0.00473046
0.0029006
0.00508415
0.00368671
0.00525769
0.00454842
0.0052589
0.0054875
0.00509917
0.00650935
0.00479112
0.00762292
0.00434673
0.00884066
0.00377591
0.0101786
0.00308545
0.0116566
0.00227846
0.0132984
0.00135404
0.0151315
0.000307949
0.017189
-0.000869969
0.0195093
-0.00219008
0.0221287
-0.00366827
0.025092
-0.00531988
0.0284408
-0.00716179
0.0322164
-0.00920979
0.0364545
-0.011477
0.0411819
-0.0139725
0.0464128
-0.0166996
0.0521455
-0.0196547
0.0583585
-0.022825
0.0650098
-0.0261906
0.0720325
-0.0297181
0.079341
-0.0333711
0.0868265
-0.037096
0.0943552
-0.0408412
0.101827
-0.0445353
0.108991
-0.0481633
0.115986
-0.0514871
-0.0551147
0.122187
5.29654e-05
0.000498614
0.000213587
0.0014624
0.000483538
0.00234679
0.000861271
0.00310659
0.0013429
0.00371323
0.0019237
0.00414965
0.00259968
0.00440817
0.00336886
0.00448851
0.00423226
0.0043955
0.00519461
0.00413682
0.00626483
0.0037209
0.00745639
0.00315517
0.0087876
0.0024447
0.0102818
0.00159122
0.0119678
0.000592454
0.0138795
-0.000557599