/*--------------------------------*- C++ -*----------------------------------*\
| =========                 |                                                 |
| \\      /  F ield         | OpenFOAM: The Open Source CFD Toolbox           |
|  \\    /   O peration     | Version:  2512                                  |
|   \\  /    A nd           | Website:  www.openfoam.com                      |
|    \\/     M anipulation  |                                                 |
\*---------------------------------------------------------------------------*/
FoamFile
{
    version     2.0;
    format      ascii;
    arch        "LSB;label=32;scalar=64";
    class       surfaceScalarField;
    location    "20.5";
    object      phi;
}
// * * * * * * * * * * * * * * * * * * * * * * * * * * * * * * * * * * * * * //

dimensions      [0 3 -1 0 0 0 0];

oriented        oriented;

internalField   nonuniform List<scalar> 
19380
(
0.874552
-4.9632e-05
0.874701
-0.000148556
0.874943
-0.000242051
0.875271
-0.000328036
0.875675
-0.000404249
0.876145
-0.000469587
0.876669
-0.000524399
0.877238
-0.000569344
0.877844
-0.000605325
0.878477
-0.000633506
0.879132
-0.000654997
0.879803
-0.000670599
0.880484
-0.000681114
0.881171
-0.000687441
0.881862
-0.000690269
0.882552
-0.000690028
0.883239
-0.000687091
0.883921
-0.000681792
0.884595
-0.000674337
0.88526
-0.000664864
0.885913
-0.000653534
0.886554
-0.000640534
0.88718
-0.000626029
0.88779
-0.000610164
0.888383
-0.000593082
0.888958
-0.000574925
0.889514
-0.000555845
0.89005
-0.000536012
0.890566
-0.000515614
0.89106
-0.000494839
0.891534
-0.000473828
0.891987
-0.000452715
0.892419
-0.000431672
0.892829
-0.00041085
0.89322
-0.000390375
0.89359
-0.000370347
0.893941
-0.000350852
0.894273
-0.000331959
0.894587
-0.000313726
-0.00029624
0.894883
0.844011
-9.7253e-05
0.844154
-0.000291503
0.844387
-0.000475119
0.844703
-0.00064382
0.845092
-0.000793491
0.845545
-0.000922368
0.846051
-0.00103087
0.846602
-0.00111977
0.847187
-0.00119078
0.8478
-0.00124637
0.848434
-0.00128894
0.849084
-0.00132032
0.849745
-0.00134197
0.850413
-0.00135531
0.851084
-0.00136153
0.851755
-0.00136161
0.852425
-0.0013564
0.853089
-0.00134654
0.853748
-0.0013324
0.854397
-0.00131424
0.855036
-0.00129238
0.855662
-0.00126716
0.856275
-0.00123886
0.856873
-0.00120777
0.857454
-0.00117419
0.858017
-0.00113843
0.858562
-0.00110082
0.859088
-0.00106168
0.859594
-0.00102137
0.860079
-0.00098029
0.860544
-0.000938699
0.860988
-0.000896873
0.861412
-0.00085514
0.861815
-0.000813796
0.862197
-0.000773109
0.86256
-0.000733291
0.862904
-0.000694525
0.863229
-0.000656951
0.863536
-0.000620689
-0.000585913
0.863826
0.814536
-0.000142713
0.814673
-0.000428369
0.814897
-0.000698567
0.8152
-0.000946988
0.815574
-0.00116798
0.816011
-0.0013588
0.8165
-0.00151978
0.817032
-0.00165186
0.817599
-0.00175768
0.818193
-0.00184079
0.818809
-0.00190465
0.819441
-0.00195222
0.820085
-0.0019858
0.820736
-0.00200727
0.821393
-0.00201821
0.822052
-0.00202003
0.822709
-0.00201387
0.823363
-0.0020006
0.824012
-0.00198085
0.824652
-0.00195511
0.825284
-0.00192385
0.825904
-0.00188746
0.826512
-0.00184632
0.827105
-0.00180082
0.827682
-0.00175143
0.828242
-0.00169864
0.828784
-0.00164292
0.829307
-0.00158479
0.829811
-0.00152482
0.830294
-0.00146357
0.830757
-0.0014015
0.831199
-0.001339
0.83162
-0.00127655
0.832021
-0.00121462
0.832402
-0.00115363
0.832762
-0.0010939
0.833104
-0.00103572
0.833426
-0.000979316
0.83373
-0.000924876
-0.000872661
0.834017
0.786091
-0.000185891
0.786221
-0.000558671
0.786434
-0.000911815
0.786725
-0.00123732
0.787084
-0.00152781
0.787505
-0.00177892
0.787976
-0.00199092
0.788489
-0.00216555
0.789038
-0.00230636
0.789615
-0.00241779
0.790214
-0.00250402
0.790831
-0.00256882
0.791461
-0.00261542
0.7921
-0.00264637
0.792745
-0.00266368
0.793394
-0.00266901
0.794044
-0.0026637
0.794692
-0.00264882
0.795337
-0.00262516
0.795975
-0.00259344
0.796605
-0.0025542
0.797226
-0.00250794
0.797834
-0.0024551
0.79843
-0.00239619
0.79901
-0.00233179
0.799574
-0.00226253
0.80012
-0.00218908
0.800648
-0.00211219
0.801155
-0.00203261
0.801643
-0.00195111
0.80211
-0.00186839
0.802556
-0.00178496
0.802981
-0.00170149
0.803385
-0.00161861
0.803768
-0.00153689
0.804131
-0.0014568
0.804474
-0.00137875
0.804798
-0.00130305
0.805103
-0.00122996
-0.00115983
0.80539
0.758638
-0.000226608
0.758762
-0.000682087
0.758964
-0.00111447
0.759241
-0.00151415
0.759585
-0.00187206
0.759989
-0.00218215
0.760442
-0.00244415
0.760937
-0.00266104
0.761468
-0.00283711
0.762028
-0.00297757
0.762611
-0.00308736
0.763213
-0.00317099
0.76383
-0.00323243
0.764459
-0.00327482
0.765096
-0.00330052
0.765738
-0.00331147
0.766384
-0.00330922
0.76703
-0.00329497
0.767674
-0.00326967
0.768315
-0.00323407
0.768949
-0.00318876
0.769576
-0.00313424
0.770192
-0.00307106
0.770795
-0.00299983
0.771385
-0.00292127
0.771958
-0.00283616
0.772515
-0.00274542
0.773053
-0.00264995
0.773571
-0.00255076
0.774068
-0.00244881
0.774545
-0.0023451
0.775
-0.00224034
0.775434
-0.00213532
0.775847
-0.00203086
0.776237
-0.00192772
0.776607
-0.00182652
0.776956
-0.00172781
0.777285
-0.00163199
0.777595
-0.00153944
-0.00145059
0.777885
0.732144
-0.000264696
0.73226
-0.000798203
0.732452
-0.00130602
0.732714
-0.00177674
0.733042
-0.00219963
0.733427
-0.00256749
0.733862
-0.00287888
0.734339
-0.0031379
0.734851
-0.00334959
0.735394
-0.00351988
0.735961
-0.00365446
0.736548
-0.00375866
0.737153
-0.00383711
0.737772
-0.00389338
0.738401
-0.00393009
0.739039
-0.00394941
0.739683
-0.003953
0.74033
-0.00394214
0.740978
-0.00391784
0.741625
-0.00388086
0.742268
-0.00383173
0.742905
-0.00377097
0.743533
-0.00369917
0.74415
-0.00361704
0.744754
-0.00352543
0.745343
-0.00342528
0.745916
-0.00331772
0.74647
-0.0032039
0.747004
-0.00308507
0.747517
-0.00296244
0.74801
-0.00283727
0.74848
-0.00271058
0.748928
-0.00258329
0.749353
-0.00245638
0.749757
-0.00233085
0.750137
-0.00220747
0.750497
-0.00208698
0.750835
-0.00196991
0.751152
-0.00185673
-0.00174802
0.751449
0.706575
-0.000300021
0.706683
-0.00090641
0.706863
-0.00148576
0.707111
-0.00202445
0.707421
-0.00250978
0.707787
-0.00293362
0.708202
-0.0032938
0.708659
-0.00359473
0.709152
-0.00384262
0.709676
-0.00404383
0.710226
-0.00420478
0.710799
-0.00433147
0.711391
-0.00442914
0.711999
-0.00450187
0.712622
-0.00455258
0.713256
-0.00458353
0.713899
-0.00459635
0.714549
-0.0045923
0.715204
-0.00457224
0.71586
-0.00453683
0.716515
-0.00448658
0.717166
-0.00442202
0.71781
-0.00434377
0.718446
-0.00425258
0.71907
-0.00414939
0.71968
-0.0040353
0.720274
-0.00391164
0.72085
-0.00377982
0.721406
-0.00364136
0.721941
-0.00349774
0.722454
-0.00335053
0.722945
-0.00320111
0.723412
-0.00305061
0.723856
-0.00290016
0.724276
-0.00275098
0.724673
-0.00260408
0.725046
-0.00246039
0.725397
-0.00232059
0.725725
-0.00218532
-0.00205529
0.726033
0.681898
-0.000332423
0.681998
-0.00100645
0.682166
-0.0016529
0.682397
-0.00225613
0.682689
-0.00280137
0.683034
-0.00327924
0.683428
-0.00368748
0.683863
-0.00403007
0.684335
-0.00431453
0.684839
-0.0045476
0.685371
-0.00473645
0.685927
-0.00488788
0.686506
-0.00500753
0.687104
-0.00509977
0.687719
-0.00516776
0.688349
-0.00521388
0.688992
-0.00523971
0.689646
-0.00524632
0.690308
-0.00523427
0.690976
-0.00520403
0.691645
-0.005156
0.692314
-0.00509066
0.692979
-0.00500862
0.693637
-0.00491065
0.694285
-0.00479777
0.694921
-0.00467119
0.695542
-0.00453246
0.696145
-0.00438322
0.696729
-0.00422531
0.697292
-0.0040605
0.697832
-0.0038907
0.698349
-0.00371762
0.698841
-0.00354284
0.699308
-0.00336755
0.69975
-0.00319326
0.700168
-0.00302123
0.70056
-0.00285263
0.700928
-0.00268833
0.701271
-0.00252916
-0.00237598
0.701592
0.658083
-0.00036173
0.658175
-0.001098
0.658329
-0.00180682
0.658543
-0.00247065
0.658815
-0.00307288
0.659139
-0.00360287
0.659509
-0.00405822
0.659922
-0.00444242
0.66037
-0.00476318
0.660852
-0.00502878
0.661362
-0.00524721
0.6619
-0.00542583
0.662463
-0.00557044
0.663049
-0.00568555
0.663656
-0.00577445
0.664281
-0.00583964
0.664924
-0.00588257
0.665582
-0.00590404
0.666252
-0.00590428
0.666931
-0.00588347
0.667617
-0.00584176
0.668306
-0.00577944
0.668994
-0.00569701
0.669679
-0.00559517
0.670356
-0.00547498
0.671023
-0.00533781
0.671676
-0.0051854
0.672312
-0.00501964
0.672929
-0.00484267
0.673526
-0.0046566
0.674099
-0.0044637
0.674647
-0.00426605
0.67517
-0.00406575
0.675667
-0.00386421
0.676136
-0.00366317
0.676579
-0.00346415
0.676995
-0.00326865
0.677385
-0.00307777
0.677748
-0.00289255
-0.00271406
0.678086
0.6351
-0.000387834
0.635182
-0.0011806
0.635322
-0.00194684
0.635519
-0.00266723
0.635769
-0.0033232
0.636069
-0.00390289
0.636415
-0.00440382
0.636802
-0.0048294
0.637225
-0.00518649
0.637682
-0.00548515
0.638169
-0.00573466
0.638686
-0.00594277
0.639231
-0.00611519
0.639802
-0.00625651
0.640398
-0.0063702
0.641017
-0.00645882
0.641658
-0.00652351
0.642318
-0.00656468
0.642996
-0.00658211
0.643688
-0.00657562
0.644391
-0.00654499
0.645102
-0.00649018
0.645817
-0.00641141
0.646531
-0.00630927
0.647241
-0.00618484
0.647942
-0.00603957
0.648632
-0.0058754
0.649307
-0.00569443
0.649964
-0.00549918
0.650599
-0.00529207
0.651211
-0.0050758
0.651798
-0.00485281
0.652358
-0.00462572
0.65289
-0.00439646
0.653394
-0.00416688
0.653869
-0.00393882
0.654314
-0.00371416
0.654731
-0.00349425
0.655118
-0.00328046
-0.00307409
0.655478
0.612919
-0.000410646
0.612992
-0.00125389
0.613118
-0.00207233
0.613295
-0.002845
0.613523
-0.00355114
0.613798
-0.00417781
0.614117
-0.00472247
0.614476
-0.00518835
0.614871
-0.00558207
0.6153
-0.00591415
0.615762
-0.00619588
0.616254
-0.00643538
0.616777
-0.00663829
0.61733
-0.00680934
0.617912
-0.00695203
0.618522
-0.00706883
0.619159
-0.00716033
0.619821
-0.00722648
0.620505
-0.00726657
0.621209
-0.00727994
0.62193
-0.00726584
0.622664
-0.00722372
0.623406
-0.00715346
0.624152
-0.00705539
0.624898
-0.00693057
0.625639
-0.00678045
0.62637
-0.00660716
0.627089
-0.00641299
0.62779
-0.00620078
0.628472
-0.0059733
0.62913
-0.00573371
0.629762
-0.00548485
0.630366
-0.00522984
0.630941
-0.00497125
0.631485
-0.00471127
0.631998
-0.00445191
0.632479
-0.00419555
0.632929
-0.00394387
0.633347
-0.00369861
-0.00346135
0.633734
0.591512
-0.000430123
0.591576
-0.00131756
0.591686
-0.00218286
0.591844
-0.00300322
0.592049
-0.0037555
0.592297
-0.00442623
0.592587
-0.00501263
0.592916
-0.00551705
0.593281
-0.0059468
0.59368
-0.00631295
0.594112
-0.00662781
0.594577
-0.00690033
0.595074
-0.00713612
0.595605
-0.00734023
0.596169
-0.00751614
0.596767
-0.007666
0.597396
-0.00778969
0.598056
-0.00788657
0.598745
-0.00795535
0.59946
-0.00799477
0.600197
-0.00800339
0.600953
-0.00798
0.601724
-0.00792398
0.602504
-0.0078353
0.603288
-0.0077149
0.604072
-0.00756414
0.60485
-0.00738527
0.605618
-0.00718067
0.60637
-0.00695354
0.607104
-0.00670693
0.607815
-0.00644452
0.6085
-0.00616958
0.609156
-0.00588578
0.609781
-0.00559622
0.610373
-0.00530392
0.610932
-0.00501091
0.611457
-0.0047201
0.611946
-0.00443357
0.612401
-0.00415356
-0.003882
0.612822
0.570853
-0.000446211
0.570907
-0.00137131
0.571002
-0.00227823
0.57114
-0.00314141
0.57132
-0.0039353
0.571541
-0.00464692
0.571801
-0.00527268
0.572097
-0.00581343
0.572428
-0.00627773
0.572793
-0.00667849
0.573193
-0.00702738
0.573627
-0.00733399
0.574095
-0.00760463
0.5746
-0.00784492
0.575142
-0.00805819
0.575722
-0.00824604
0.57634
-0.00840741
0.576994
-0.00854107
0.577684
-0.00864501
0.578406
-0.00871728
0.579159
-0.00875557
0.579936
-0.00875781
0.580735
-0.00872278
0.58155
-0.00864991
0.582375
-0.00853989
0.583204
-0.0083938
0.584033
-0.00821389
0.584855
-0.00800261
0.585665
-0.00776342
0.586458
-0.00749969
0.587229
-0.0072156
0.587974
-0.00691485
0.58869
-0.00660176
0.589374
-0.00627992
0.590023
-0.00595334
0.590636
-0.00562431
0.591213
-0.00529617
0.59175
-0.00497146
0.59225
-0.00465307
-0.00434331
0.592711
0.550915
-0.000458847
0.550958
-0.00141502
0.551039
-0.00235839
0.551156
-0.003259
0.551311
-0.0040898
0.551503
-0.0048392
0.551732
-0.0055013
0.551994
-0.00607548
0.552289
-0.00657264
0.552618
-0.00700742
0.552981
-0.00739112
0.55338
-0.0077325
0.553815
-0.00803962
0.554289
-0.008319
0.554804
-0.00857346
0.555362
-0.00880395
0.555963
-0.00900839
0.556607
-0.00918504
0.557293
-0.00933106
0.558019
-0.00944355
0.558783
-0.00951918
0.55958
-0.00955483
0.560406
-0.00954855
0.561255
-0.00949903
0.562121
-0.00940651
0.562999
-0.00927162
0.563882
-0.00909649
0.564763
-0.00888346
0.565635
-0.00863623
0.566494
-0.0083584
0.567333
-0.00805464
0.568148
-0.00772911
0.568933
-0.00738679
0.569684
-0.00703183
0.5704
-0.00666908
0.571078
-0.00630173
0.571715
-0.00593331
0.57231
-0.00556688
0.572863
-0.00520613
-0.00485382
0.573374
0.531673
-0.000467911
0.531707
-0.00144885
0.531772
-0.00242348
0.531868
-0.00335533
0.531997
-0.00421866
0.53216
-0.00500282
0.532357
-0.00569741
0.532583
-0.00630153
0.53284
-0.00682959
0.533129
-0.00729712
0.533453
-0.00771501
0.533813
-0.00809206
0.53421
-0.00843708
0.534649
-0.0087579
0.535132
-0.00905679
0.535663
-0.00933406
0.536241
-0.00958672
0.536868
-0.00981264
0.537545
-0.0100079
0.53827
-0.0101685
0.539041
-0.0102897
0.539853
-0.0103674
0.540703
-0.0103986
0.541586
-0.0103812
0.542494
-0.0103146
0.543421
-0.0101988
0.54436
-0.0100357
0.545304
-0.00982731
0.546245
-0.00957743
0.547177
-0.00928981
0.548092
-0.00896954
0.548984
-0.00862121
0.549847
-0.00825051
0.550678
-0.00786216
0.55147
-0.00746188
0.552223
-0.0070539
0.552932
-0.00664235
0.553595
-0.00623053
0.554212
-0.00582316
-0.00542356
0.554782
0.513102
-0.00047323
0.513127
-0.00147325
0.513177
-0.00247355
0.513251
-0.00342989
0.513355
-0.00432223
0.51349
-0.0051378
0.513653
-0.00585992
0.513841
-0.00649026
0.514059
-0.00704703
0.514307
-0.00754538
0.514588
-0.00799587
0.514904
-0.00840855
0.51526
-0.00879296
0.515659
-0.00915693
0.516105
-0.00950263
0.516601
-0.00983025
0.51715
-0.010136
0.517755
-0.0104173
0.518416
-0.010669
0.519134
-0.0108857
0.519905
-0.0110614
0.520728
-0.0111904
0.521599
-0.011269
0.522511
-0.0112935
0.523459
-0.0112627
0.524435
-0.0111754
0.525433
-0.0110331
0.526443
-0.0108374
0.527457
-0.0105918
0.528468
-0.0103003
0.529466
-0.00996814
0.530445
-0.0096003
0.531398
-0.00920316
0.532318
-0.00878204
0.5332
-0.00834359
0.534039
-0.0078929
0.534832
-0.00743557
0.535576
-0.00697472
0.536269
-0.00651629
-0.00606423
0.53691
0.49518
-0.000474596
0.495196
-0.00148894
0.495231
-0.00250833
0.495284
-0.00348269
0.495363
-0.00440172
0.495469
-0.00524399
0.495597
-0.00598784
0.495748
-0.00664099
0.495925
-0.00722392
0.49613
-0.00775038
0.496365
-0.00823132
0.496635
-0.0086785
0.496945
-0.0091027
0.497299
-0.0095113
0.497702
-0.0099055
0.498158
-0.0102863
0.498672
-0.0106493
0.499246
-0.0109918
0.499884
-0.0113069
0.500586
-0.0115877
0.501351
-0.0118268
0.502178
-0.0120171
0.503063
-0.0121537
0.504001
-0.0122313
0.504985
-0.0122474
0.50601
-0.0121998
0.507066
-0.0120889
0.508144
-0.0119157
0.509236
-0.0116835
0.510331
-0.0113958
0.511421
-0.0110581
0.512496
-0.0106757
0.513549
-0.0102555
0.51457
-0.00980337
0.515554
-0.00932706
0.516493
-0.00883232
0.517384
-0.0083267
0.518223
-0.00781336
0.519006
-0.00729932
-0.00678934
0.519731
0.477884
-0.000471806
0.477891
-0.00149677
0.47791
-0.00252716
0.477942
-0.00351472
0.477999
-0.00445876
0.478076
-0.00532086
0.478169
-0.0060807
0.478282
-0.00675359
0.478417
-0.00735948
0.478578
-0.00791072
0.478766
-0.00841946
0.478987
-0.00889943
0.479246
-0.00936236
0.479551
-0.00981581
0.479905
-0.01026
0.480315
-0.0106961
0.480786
-0.0111198
0.481322
-0.0115284
0.481928
-0.0119131
0.482606
-0.0122657
0.483357
-0.0125773
0.484179
-0.0128394
0.485071
-0.0130453
0.486027
-0.013188
0.487044
-0.0132638
0.488113
-0.0132685
0.489225
-0.0132017
0.490373
-0.013063
0.491544
-0.0128553
0.49273
-0.0125814
0.493919
-0.0122468
0.4951
-0.0118566
0.496263
-0.0114185
0.497398
-0.0109388
0.498497
-0.0104261
0.499552
-0.00988716
0.500556
-0.00933105
0.501505
-0.00876215
0.502394
-0.00818804
-0.00761442
0.503219
0.461191
-0.000464699
0.461191
-0.00149737
0.461193
-0.00252928
0.461207
-0.00352832
0.461243
-0.00449471
0.46129
-0.00536757
0.461348
-0.00613897
0.461423
-0.00682832
0.461516
-0.00745324
0.461631
-0.00802563
0.461771
-0.00855902
0.461941
-0.00906944
0.462148
-0.00956912
0.462398
-0.0100659
0.462698
-0.0105603
0.463055
-0.0110534
0.463476
-0.0115404
0.463967
-0.012019
0.464532
-0.0124784
0.465176
-0.01291
0.465902
-0.013303
0.46671
-0.0136472
0.467599
-0.0139343
0.468566
-0.0141552
0.469607
-0.0143045
0.470714
-0.014376
0.47188
-0.0143679
0.473095
-0.0142781
0.474349
-0.0141085
0.475628
-0.0138609
0.476922
-0.0135405
0.478217
-0.0131521
0.479502
-0.0127035
0.480765
-0.0122015
0.481994
-0.0116557
0.483181
-0.0110736
0.484316
-0.0104659
0.485392
-0.00983872
0.486405
-0.00920032
-0.00855726
0.487347
0.44508
-0.000453071
0.445074
-0.00149093
0.445059
-0.00251441
0.445058
-0.00352713
0.445073
-0.00450963
0.445089
-0.00538348
0.445114
-0.00616415
0.445151
-0.00686549
0.445203
-0.00750536
0.445273
-0.00809499
0.445363
-0.00864937
0.445481
-0.00918726
0.445632
-0.00972065
0.445825
-0.0102583
0.446066
-0.0108013
0.446364
-0.0113519
0.446728
-0.0119042
0.447164
-0.0124553
0.447679
-0.0129936
0.44828
-0.0135102
0.448969
-0.0139926
0.449751
-0.014429
0.450626
-0.0148093
0.451593
-0.0151221
0.452648
-0.0153599
0.453786
-0.0155142
0.455
-0.0155814
0.456279
-0.0155573
0.457613
-0.0154423
0.458989
-0.0152366
0.460393
-0.0149445
0.461811
-0.0145702
0.463229
-0.0141214
0.464632
-0.0136051
0.466008
-0.0130317
0.467344
-0.0124093
0.468628
-0.0117503
0.469852
-0.0110627
0.471009
-0.0103564
-0.00963816
0.472089
0.429532
-0.000436352
0.429519
-0.00147752
0.429487
-0.00248317
0.429476
-0.0035154
0.429468
-0.00450165
0.429453
-0.00536931
0.429447
-0.00615817
0.429447
-0.00686533
0.429459
-0.00751706
0.429483
-0.00811928
0.429525
-0.00869061
0.42959
-0.00925233
0.429684
-0.00981521
0.429816
-0.0103905
0.429995
-0.0109795
0.430228
-0.0115857
0.430528
-0.0122037
0.430902
-0.0128291
0.431357
-0.0134491
0.431902
-0.0140554
0.432544
-0.014634
0.433287
-0.015172
0.434134
-0.015657
0.435088
-0.0160756
0.436146
-0.0164176
0.437304
-0.0166723
0.438556
-0.0168335
0.439893
-0.0168945
0.441304
-0.0168534
0.442776
-0.0167083
0.444294
-0.0164624
0.445841
-0.016118
0.447403
-0.0156829
0.448961
-0.0151633
0.4505
-0.0145705
0.452004
-0.0139133
0.453459
-0.0132054
0.454853
-0.0124563
0.456175
-0.0116791
-0.0108802
0.457417
0.414525
-0.0004129
0.414506
-0.00145858
0.414459
-0.00243651
0.414441
-0.00349729
0.414406
-0.00446688
0.414365
-0.00532823
0.414329
-0.00612224
0.414293
-0.00682881
0.414266
-0.00749065
0.414246
-0.00809913
0.414239
-0.0086837
0.414251
-0.00926461
0.414288
-0.00985188
0.414359
-0.0104611
0.414471
-0.0110918
0.414636
-0.011751
0.414865
-0.0124321
0.415167
-0.0131315
0.415553
-0.0138353
0.416033
-0.0145346
0.416613
-0.0152146
0.417303
-0.0158621
0.418109
-0.0164625
0.419034
-0.0170003
0.420079
-0.0174627
0.421243
-0.0178364
0.422521
-0.018112
0.423907
-0.0182799
0.425388
-0.0183352
0.426954
-0.0182734
0.428586
-0.0180952
0.430269
-0.0178011
0.431984
-0.0173975
0.433711
-0.0168899
0.43543
-0.0162897
0.437122
-0.015606
0.438771
-0.0148538
0.440359
-0.0140443
0.441874
-0.0131941
-0.0123095
0.443303
0.400038
-0.000379154
0.400018
-0.00143898
0.399956
-0.00237407
0.399935
-0.00347672
0.399868
-0.00439947
0.399806
-0.00526699
0.399739
-0.00605526
0.39967
-0.00675923
0.399607
-0.00742828
0.399544
-0.00803555
0.399491
-0.00863058
0.399451
-0.00922455
0.39943
-0.0098308
0.399438
-0.0104696
0.399482
-0.011136
0.399576
-0.0118447
0.399728
-0.0125843
0.399952
-0.0133551
0.400259
-0.014142
0.40066
-0.0149365
0.401167
-0.0157215
0.40179
-0.0164845
0.402537
-0.0172095
0.403415
-0.017879
0.40443
-0.0184776
0.405583
-0.0189894
0.406872
-0.0194012
0.408293
-0.0197001
0.409835
-0.0198776
0.411487
-0.0199255
0.413233
-0.0198412
0.415055
-0.0196225
0.416931
-0.0192734
0.418839
-0.0187981
0.420756
-0.0182069
0.422659
-0.0175091
0.424526
-0.0167208
0.426336
-0.0158545
0.428072
-0.0149304
-0.013956
0.429719
0.386051
-0.000329553
0.38604
-0.00142869
0.385958
-0.00229167
0.38594
-0.00345863
0.385832
-0.00429137
0.385762
-0.00519721
0.385658
-0.0059517
0.385564
-0.00666471
0.385465
-0.00732919
0.385361
-0.00793168
0.385263
-0.00853313
0.385172
-0.00913339
0.385095
-0.00975316
0.385042
-0.0104164
0.385016
-0.0111109
0.385037
-0.0118652
0.385108
-0.0126556
0.385248
-0.0134947
0.385466
-0.01436
0.385779
-0.0152495
0.386199
-0.0161414
0.386738
-0.0170243
0.38741
-0.0178806
0.388223
-0.0186924
0.389187
-0.019442
0.390309
-0.0201107
0.391589
-0.0206813
0.393026
-0.0211375
0.394614
-0.0214657
0.396343
-0.021654
0.398197
-0.0216948
0.400156
-0.0215823
0.4022
-0.0213168
0.404302
-0.0208998
0.406435
-0.0203399
0.408571
-0.0196458
0.410684
-0.0188337
0.412747
-0.0179177
0.414738
-0.0169208
-0.0158536
0.416636
0.372545
-0.000257789
0.372558
-0.00144189
0.372446
-0.00217937
0.372439
-0.00345123
0.372279
-0.00413183
0.372218
-0.00513632
0.372066
-0.0057996
0.371963
-0.006561
0.371819
-0.00718555
0.371684
-0.00779692
0.371541
-0.00838972
0.371403
-0.00899551
0.371269
-0.00961968
0.371157
-0.0103038
0.371061
-0.0110154
0.371009
-0.011813
0.370995
-0.0126415
0.371048
-0.0135477
0.371169
-0.014481
0.371384
-0.0154648
0.371702
-0.0164594
0.372144
-0.0174666
0.372722
-0.0184579
0.37345
-0.0194204
0.374341
-0.0203335
0.375407
-0.0211765
0.376654
-0.0219286
0.378086
-0.0225691
0.3797
-0.0230796
0.381489
-0.0234429
0.383439
-0.0236455
0.385533
-0.0236764
0.387747
-0.0235306
0.390053
-0.0232057
0.39242
-0.0227067
0.394815
-0.0220406
0.397204
-0.0212227
0.399554
-0.0202685
0.401837
-0.019203
-0.0180419
0.404025
0.359506
-0.000159134
0.359557
-0.0014927
0.359401
-0.00202327
0.359416
-0.00346697
0.359193
-0.00390854
0.359163
-0.0051059
0.358944
-0.00558074
0.358855
-0.00647219
0.358649
-0.0069795
0.358504
-0.0076518
0.358304
-0.00818946
0.358132
-0.00882391
0.357938
-0.00942581
0.357773
-0.0101387
0.357604
-0.0108465
0.357483
-0.0116921
0.357378
-0.0125365
0.357346
-0.0135153
0.35736
-0.0144952
0.357474
-0.0155789
0.357675
-0.0166599
0.358006
-0.0177982
0.358469
-0.0189204
0.359092
-0.0200434
0.359886
-0.0211274
0.36087
-0.0221607
0.362056
-0.0231148
0.363454
-0.023967
0.365067
-0.024693
0.366894
-0.0252695
0.368925
-0.0256761
0.371143
-0.025895
0.373526
-0.0259135
0.376044
-0.0257235
0.378661
-0.0253242
0.38134
-0.0247191
0.384038
-0.0239213
0.386716
-0.0229463
0.389334
-0.0218207
-0.0205665
0.391858
0.346921
-3.32443e-05
0.347017
-0.00158871
0.346805
-0.00181169
0.346857
-0.00351844
0.346561
-0.00361258
0.34658
-0.00512541
0.346275
-0.00527577
0.346229
-0.00642631
0.345935
-0.00668562
0.345812
-0.00752802
0.345531
-0.007909
0.345353
-0.0086457
0.345082
-0.00915487
0.344884
-0.00994034
0.34463
-0.0105928
0.344453
-0.0115154
0.344247
-0.0123301
0.344139
-0.0134069
0.344031
-0.014388
0.344049
-0.0155969
0.344113
-0.0167232
0.34433
-0.0180154
0.344648
-0.019239
0.345152
-0.0205466
0.345817
-0.0217927
0.346694
-0.0230378
0.347786
-0.0242062
0.349117
-0.0252989
0.350697
-0.0262726
0.352531
-0.0271031
0.354616
-0.0277614
0.356941
-0.0282202
0.359485
-0.0284576
0.362218
-0.0284565
0.365102
-0.0282075
0.368091
-0.0277082
0.371136
-0.0269665
0.374186
-0.0259968
0.377191
-0.0248257
-0.023482
0.380107
0.33478
0.000113821
0.334917
-0.00172565
0.33465
-0.0015446
0.334741
-0.00360923
0.334374
-0.00324543
0.334451
-0.00520317
0.33405
-0.00487468
0.334068
-0.006444
0.333665
-0.00628229
0.333595
-0.00745805
0.333205
-0.00751912
0.333057
-0.00849795
0.33268
-0.00877765
0.332483
-0.00974339
0.332119
-0.0102291
0.331916
-0.0113124
0.331585
-0.0119988
0.331425
-0.013247
0.33117
-0.0141334
0.331113
-0.0155394
0.331006
-0.0166164
0.331124
-0.018133
0.331256
-0.019372
0.33164
-0.0209307
0.332127
-0.0222796
0.332884
-0.023794
0.333832
-0.0251549
0.335068
-0.026535
0.336569
-0.0277734
0.338374
-0.0289077
0.340479
-0.0298663
0.342883
-0.0306241
0.345571
-0.0311459
0.348515
-0.0314003
0.351675
-0.0313676
0.355001
-0.0310342
0.358434
-0.0303991
0.36191
-0.0294732
0.365365
-0.0282807
-0.0268558
0.368739
0.323074
0.000270501
0.323236
-0.0018874
0.322929
-0.00123729
0.323048
-0.00372847
0.322626
-0.00282312
0.322752
-0.00532941
0.322264
-0.00438717
0.322346
-0.00652526
0.321831
-0.00576769
0.32183
-0.00745663
0.321314
-0.00700357
0.321226
-0.00840956
0.320715
-0.00826709
0.320557
-0.00958502
0.320051
-0.00972353
0.319863
-0.0111244
0.319372
-0.0115079
0.319204
-0.0130788
0.31876
-0.0136893
0.318673
-0.0154518
0.318341
-0.016285
0.318403
-0.0181948
0.318282
-0.0192508
0.318583
-0.0212324
0.318805
-0.0225014
0.319461
-0.0244494
0.320177
-0.0258716
0.321313
-0.0276704
0.322657
-0.0291179
0.324405
-0.0306559
0.326474
-0.0319345
0.328922
-0.0330728
0.331726
-0.0339493
0.334865
-0.0345394
0.338306
-0.0348092
0.341993
-0.0347206
0.345857
-0.0342632
0.349821
-0.0334373
0.353801
-0.0322604
-0.0307722
0.357717
0.31179
0.000423578
0.311955
-0.00205214
0.311632
-0.000914521
0.311757
-0.00385382
0.31131
-0.00237556
0.311456
-0.00547589
0.310914
-0.00384471
0.311034
-0.0066449
0.310433
-0.00516761
0.310485
-0.00750792
0.309858
-0.00637647
0.309828
-0.00837957
0.309183
-0.0076229
0.309078
-0.00947924
0.308417
-0.00906337
0.308272
-0.0109787
0.307597
-0.010833
0.307459
-0.012941
0.306787
-0.0130174
0.306723
-0.0153877
0.306105
-0.0156668
0.306183
-0.0182734
0.305711
-0.0187786
0.306017
-0.0215387
0.305839
-0.022323
0.30648
-0.0250901
0.306791
-0.0261834
0.307894
-0.0287731
0.308913
-0.0301371
0.310632
-0.0323749
0.312537
-0.0338393
0.315022
-0.0355578
0.317878
-0.0368048
0.321192
-0.0378538
0.324911
-0.0385283
0.328973
-0.0387823
0.333318
-0.0386083
0.337842
-0.037961
0.342436
-0.036855
-0.0353386
0.347003
0.300909
0.000564396
0.301058
-0.00220148
0.300745
-0.000601007
0.300851
-0.0039601
0.300414
-0.00193898
0.300542
-0.00560394
0.299991
-0.0032934
0.300105
-0.00675888
0.299468
-0.00453057
0.299529
-0.00756858
0.298835
-0.00568291
0.298827
-0.00837191
0.298087
-0.00688237
0.298008
-0.00940045
0.297222
-0.008277
0.297104
-0.010861
0.296263
-0.00999144
0.296153
-0.0128314
0.295256
-0.0121208
0.295229
-0.0153604
0.294302
-0.0147397
0.294436
-0.0184077
0.293547
-0.0178897
0.293939
-0.0219307
0.293228
-0.0216114
0.293988
-0.0258501
0.293666
-0.0258617
0.294917
-0.0300242
0.295285
-0.0305054
0.297153
-0.0342426
0.298561
-0.0352475
0.301195
-0.0381912
0.303893
-0.0395035
0.307427
-0.0413871
0.311377
-0.0424787
0.315825
-0.0432303
0.320711
-0.0434938
0.325869
-0.0431193
0.331201
-0.0421872
-0.0407001
0.336563
0.290409
0.000692099
0.290533
-0.00232625
0.290246
-0.000313619
0.290315
-0.00402933
0.289921
-0.00154513
0.289994
-0.00567687
0.289482
-0.00278116
0.289541
-0.00681785
0.288925
-0.00391438
0.288939
-0.0075824
0.288242
-0.00498589
0.288198
-0.00832855
0.287426
-0.00610988
0.287318
-0.00929208
0.286471
-0.00743006
0.286325
-0.0107151
0.285384
-0.00905104
0.285245
-0.0126921
0.284194
-0.0110698
0.284142
-0.0153087
0.282972
-0.0135694
0.283104
-0.0185402
0.281842
-0.016627
0.282283
-0.0223718
0.281023
-0.0203515
0.281917
-0.0267444
0.280846
-0.0247904
0.282355
-0.0315331
0.281782
-0.0299329
0.284067
-0.036527
0.284455
-0.0356356
0.287608
-0.0413438
0.28953
-0.0414254
0.293596
-0.0454536
0.297452
-0.0463347
0.30243
-0.0482081
0.307887
-0.048951
0.313738
-0.04897
0.320009
-0.0484582
-0.0470374
0.326346
0.280271
0.000811496
0.28037
-0.0024252
0.280117
-6.02632e-05
0.280142
-0.00405493
0.279811
-0.00121432
0.279805
-0.0056701
0.27937
-0.00234603
0.279333
-0.00678112
0.27879
-0.00337164
0.278706
-0.007498
0.278068
-0.00434841
0.27793
-0.00819014
0.277196
-0.00537651
0.276994
-0.00908995
0.276166
-0.00660195
0.275918
-0.0104674
0.274973
-0.00810604
0.274714
-0.0124327
0.273626
-0.00998224
0.27343
-0.0151118
0.272166
-0.0123058
0.272136
-0.0185106
0.27068
-0.0151704
0.27097
-0.0226622
0.269349
-0.0187304
0.270159
-0.0275546
0.26848
-0.0231109
0.270064
-0.0331173
0.268564
-0.028433
0.271208
-0.0391716
0.270318
-0.0347457
0.274241
-0.0452669
0.274656
-0.0418403
0.279875
-0.0506726
0.282598
-0.0490575
0.288857
-0.0544663
0.294497
-0.054591
0.301265
-0.0557383
0.308775
-0.0559679
-0.0544697
0.316207
0.270484
0.000925775
0.270556
-0.00249701
0.270341
0.000154502
0.270325
-0.0040383
0.270065
-0.000954501
0.26997
-0.00557477
0.269634
-0.00200997
0.269478
-0.00662542
0.269047
-0.0029404
0.268829
-0.00728072
0.268302
-0.00382075
0.268023
-0.00791185
0.26739
-0.00474324
0.267043
-0.008743
0.266304
-0.00586266
0.265893
-0.0100566
0.265031
-0.00724439
0.26457
-0.0119708
0.263567
-0.00897946
0.263097
-0.0146422
0.26192
-0.0111281
0.261527
-0.0181177
0.260135
-0.0137787
0.259974
-0.0225009
0.258337
-0.0170936
0.258651
-0.0278684
0.256779
-0.0212394
0.257905
-0.034243
0.255918
-0.0264458
0.258347
-0.0416006
0.256499
-0.0328981
0.260776
-0.0495437
0.259623
-0.0406871
0.26607
-0.0571197
0.266727
-0.0497144
0.275216
-0.0629552
0.279464
-0.0588397
0.288735
-0.0650085
0.297278
-0.0645114
-0.0630839
0.305892
0.261045
0.00102993
0.261086
-0.00253826
0.260913
0.00032794
0.260858
-0.00398386
0.260661
-0.000757362
0.26049
-0.00540413
0.260246
-0.00176555
0.259982
-0.00636169
0.259665
-0.00262275
0.259318
-0.00693426
0.258912
-0.00341499
0.258489
-0.00748861
0.257979
-0.00423329
0.257477
-0.00824036
0.256857
-0.00524264
0.256267
-0.00946713
0.25553
-0.00650747
0.254842
-0.0112824
0.253988
-0.00812566
0.253193
-0.0138469
0.252223
-0.0101581
0.251335
-0.0172305
0.250248
-0.0126913
0.249337
-0.0215903
0.248109
-0.0158647
0.247371
-0.0271308
0.245946
-0.0198148
0.245833
-0.0341296
0.244149
-0.0247616
0.245369
-0.0428205
0.243465
-0.0309943
0.246906
-0.052985
0.245035
-0.0388156
0.251755
-0.0638397
0.250634
-0.0485942
0.26113
-0.0734514
0.262744
-0.0604532
0.276372
-0.078637
0.283981
-0.0721205
-0.0750251
0.295923
0.251952
0.00110722
0.25195
-0.00253626
0.251827
0.000450594
0.251727
-0.00388375
0.25159
-0.000620292
0.251357
-0.00517075
0.251189
-0.00159742
0.250844
-0.00601692
0.250614
-0.00239297
0.250177
-0.00649757
0.24986
-0.00309717
0.249339
-0.00696849
0.248913
-0.00380649
0.248312
-0.00763986
0.247762
-0.00469207
0.247067
-0.00877306
0.246388
-0.00582838
0.245576
-0.0104696
0.244774
-0.00732369