/*--------------------------------*- C++ -*----------------------------------*\
| =========                 |                                                 |
| \\      /  F ield         | OpenFOAM: The Open Source CFD Toolbox           |
|  \\    /   O peration     | Version:  2512                                  |
|   \\  /    A nd           | Website:  www.openfoam.com                      |
|    \\/     M anipulation  |                                                 |
\*---------------------------------------------------------------------------*/
FoamFile
{
    version     2.0;
    format      ascii;
    arch        "LSB;label=32;scalar=64";
    class       surfaceScalarField;
    location    "95.2";
    object      phi;
}
// * * * * * * * * * * * * * * * * * * * * * * * * * * * * * * * * * * * * * //

dimensions      [0 3 -1 0 0 0 0];

oriented        oriented;

internalField   nonuniform List<scalar> 
26232
(
-0.000403559
0.00215588
-0.00175232
-0.000796897
0.00431343
-0.00392009
-0.00056188
0.00479173
-0.00502674
0.000862353
0.00362
-0.00504423
0.00404663
0.000609312
-0.00379359
0.00952318
-0.00449126
-0.000985291
0.017745
-0.0118475
0.0036257
0.028853
-0.0213431
0.0102351
0.0425586
-0.0325014
0.0187958
0.0581061
-0.0445528
0.0290053
0.0743893
-0.0566079
0.0403247
0.0901695
-0.067847
0.0520668
0.104328
-0.0776673
0.0635091
0.116088
-0.0857688
0.0740083
0.125161
-0.0921698
0.0830969
0.13176
-0.0971553
0.090556
0.136473
-0.101157
0.0964446
0.139991
-0.1046
0.101083
0.142904
-0.107775
0.104861
0.145433
-0.110844
0.108315
0.147767
-0.113686
0.111352
0.149628
-0.116674
0.114813
0.150676
-0.118529
0.117481
-0.121604
0.121612
0.150668
-0.00020997
0.00236585
-0.000130408
0.00423387
0.000881461
0.00377986
0.00348391
0.00101756
0.00831803
-0.00422481
0.015908
-0.0120812
0.026434
-0.0223736
0.0395389
-0.0344479
0.0543145
-0.047277
0.0695044
-0.0597427
0.0838192
-0.0709227
0.0962408
-0.0802685
0.106227
-0.0876533
0.113767
-0.0933085
0.119278
-0.0976814
0.123384
-0.101261
0.126661
-0.104434
0.129488
-0.107427
0.132037
-0.110324
0.134343
-0.11315
0.136547
-0.11589
0.138488
-0.118615
0.140994
-0.121035
-0.124305
0.143694
1.10717e-06
0.00236474
0.000644009
0.00359097
0.0026236
0.00180026
0.00665366
-0.0030125
0.0133641
-0.0109352
0.0230375
-0.0217546
0.0353241
-0.0346602
0.0492107
-0.0483346
0.0633106
-0.0613769
0.0762935
-0.0727257
0.0872419
-0.081871
0.0958165
-0.0888431
0.102213
-0.0940497
0.106956
-0.0980513
0.110637
-0.101362
0.113715
-0.10434
0.116457
-0.107176
0.118986
-0.109956
0.121363
-0.112702
0.123662
-0.115449
0.125901
-0.118129
0.128162
-0.120877
0.130453
-0.123325
-0.12619
0.132339
0.000191471
0.00217327
0.00144484
0.0023376
0.00450825
-0.00126314
0.0101114
-0.00861568
0.0186936
-0.0195174
0.0300091
-0.0330701
0.0430027
-0.0476538
0.0561688
-0.0615007
0.0681174
-0.0733254
0.0779907
-0.082599
0.0855854
-0.0894658
0.0912132
-0.0944709
0.095426
-0.0982625
0.0987568
-0.101382
0.101581
-0.104186
0.104111
-0.10687
0.106459
-0.109524
0.108688
-0.112185
0.110853
-0.114867
0.112958
-0.117554
0.115075
-0.120245
0.11717
-0.122972
0.119406
-0.125561
-0.128659
0.121875
0.00038457
0.0017887
0.00229804
0.000424128
0.00654567
-0.00551077
0.0137496
-0.0158196
0.0238819
-0.0296497
0.0359479
-0.0451362
0.0483367
-0.0600426
0.0595455
-0.0727095
0.0686957
-0.0824757
0.0756321
-0.0895354
0.0807106
-0.0945442
0.0844818
-0.0982421
0.0874459
-0.101227
0.0899511
-0.103887
0.0922033
-0.106439
0.0943172
-0.108984
0.0963522
-0.111559
0.0983423
-0.114175
0.100297
-0.116821
0.102242
-0.1195
0.104202
-0.122204
0.106173
-0.124943
0.108264
-0.127652
-0.130592
0.110197
0.000608173
0.00118053
0.00325875
-0.00222645
0.00874512
-0.0109971
0.0173602
-0.0244347
0.0283403
-0.0406298
0.0400269
-0.0568227
0.0507395
-0.0707552
0.0594714
-0.0814414
0.0660219
-0.0890261
0.0707392
-0.0942527
0.0741709
-0.097976
0.0768153
-0.100887
0.0790238
-0.103435
0.0810057
-0.105869
0.08287
-0.108303
0.0846642
-0.110778
0.0864084
-0.113303
0.0881115
-0.115878
0.0897916
-0.118502
0.0914637
-0.121172
0.093147
-0.123888
0.0948611
-0.126657
0.0966513
-0.129443
-0.13243
0.0984896
0.000879023
0.000301507
0.00433218
-0.0056796
0.0109919
-0.0176569
0.0205437
-0.0339865
0.0314478
-0.0515339
0.0418104
-0.0671853
0.0503703
-0.079315
0.0567704
-0.0878416
0.0612968
-0.0935525
0.064489
-0.0974449
0.0668612
-0.100348
0.0687839
-0.102809
0.0704767
-0.105128
0.0720496
-0.107442
0.0735502
-0.109804
0.075
-0.112228
0.076413
-0.114716
0.0778046
-0.117269
0.0791872
-0.119884
0.0805742
-0.122559
0.0819821
-0.125296
0.0834125
-0.128087
0.0849019
-0.130932
-0.133889
0.0863605
0.00119139
-0.00088988
0.00545735
-0.00994556
0.0130458
-0.0252453
0.0228534
-0.0437941
0.0328533
-0.0615338
0.041407
-0.075739
0.0478624
-0.0857704
0.052365
-0.0923441
0.055426
-0.0966135
0.0575845
-0.0996034
0.0592448
-0.102009
0.0606508
-0.104215
0.0619257
-0.106403
0.0631244
-0.108641
0.0642717
-0.110951
0.0653811
-0.113337
0.0664622
-0.115797
0.0675228
-0.11833
0.0685726
-0.120934
0.0696236
-0.12361
0.0706848
-0.126357
0.0717727
-0.129175
0.0729059
-0.132065
-0.13504
0.0740564
0.0015269
-0.00241678
0.00652557
-0.0149442
0.0146289
-0.0333487
0.0240032
-0.0531684
0.032588
-0.0701186
0.0392655
-0.0824165
0.0439163
-0.0904213
0.0469718
-0.0953996
0.0489904
-0.0986322
0.0504241
-0.101037
0.0515562
-0.103141
0.0525342
-0.105193
0.0534247
-0.107293
0.0542561
-0.109472
0.0550416
-0.111736
0.0557897
-0.114085
0.0565089
-0.116517
0.0572092
-0.11903
0.0579014
-0.121626
0.0585952
-0.124304
0.0593014
-0.127063
0.0600272
-0.129901
0.0607776
-0.132815
-0.135793
0.0615309
0.00185568
-0.00427246
0.00740766
-0.0204962
0.0155318
-0.0414728
0.0239548
-0.0615914
0.0309373
-0.0771011
0.0359052
-0.0873844
0.0391032
-0.0936193
0.0410774
-0.0973738
0.0423344
-0.0998892
0.043215
-0.101918
0.043904
-0.10383
0.0444864
-0.105776
0.044998
-0.107805
0.0454542
-0.109928
0.0458647
-0.112147
0.0462377
-0.114458
0.0465816
-0.116861
0.0469049
-0.119354
0.0472158
-0.121937
0.0475234
-0.124611
0.0478356
-0.127375
0.0481621
-0.130227
0.0485088
-0.133162
-0.136161
0.0488767
0.002145
-0.00641746
0.00799098
-0.0263422
0.0156761
-0.0491579
0.022859
-0.0687744
0.0282709
-0.0825131
0.0317806
-0.090894
0.0338379
-0.0956766
0.0349919
-0.0985278
0.0356567
-0.100554
0.0360723
-0.102333
0.0363533
-0.104111
0.0365479
-0.10597
0.0366759
-0.107933
0.0367482
-0.110001
0.0367726
-0.112171
0.0367563
-0.114442
0.0367068
-0.116811
0.036632
-0.119279
0.0365406
-0.121846
0.0364417
-0.124512
0.0363438
-0.127277
0.0362523
-0.130136
0.0361653
-0.133075
-0.13608
0.0360848
0.00236954
-0.008787
0.00821637
-0.032189
0.0151212
-0.0560627
0.0209627
-0.0746158
0.0249457
-0.0864961
0.0272493
-0.0931976
0.0284066
-0.0968338
0.0289092
-0.0990304
0.0290742
-0.100719
0.0290631
-0.102322
0.0289449
-0.103992
0.0287474
-0.105773
0.028483
-0.107669
0.0281598
-0.109677
0.0277843
-0.111796
0.0273634
-0.114021
0.026904
-0.116352
0.0264132
-0.118788
0.0258977
-0.12133
0.025366
-0.123981
0.0248264
-0.126738
0.0242873
-0.129597
0.0237546
-0.132542
0.0232421
-0.135568
0.00022588
0.00517031
-0.00539618
0.000289702
0.0139589
-0.0140228
-0.00017227
0.0207655
-0.0203035
-0.00122357
0.0255209
-0.0244696
-0.00268927
0.0288061
-0.0273404
-0.00434457
0.0313833
-0.029728
-0.00599003
0.0337774
-0.032132
-0.0074705
0.0361794
-0.0346989
-0.00865494
0.0385314
-0.037347
-0.00941164
0.040647
-0.0398903
-0.00959803
0.0422919
-0.0421055
-0.00906591
0.0432253
-0.0437574
-0.00767422
0.043221
-0.0446127
-0.00530569
0.0420871
-0.0444556
-0.00187205
0.0396771
-0.0431107
0.00269187
0.0358988
-0.0404627
0.0083449
0.0307665
-0.0364195
0.0150231
0.0243157
-0.0309939
0.0226082
0.0166331
-0.0242182
0.0308609
0.00788507
-0.0161377
0.0396991
-0.00199002
-0.00684819
0.0489712
-0.012904
0.00363184
0.058542
-0.0250491
0.0154784
-0.0389038
0.0685814
0.0288643
0.000551599
0.00461871
0.00138559
0.0131249
0.00194338
0.0202077
0.00202534
0.0254389
0.00172216
0.0291092
0.00127732
0.0318282
0.000946209
0.0341085
0.000934953
0.0361906
0.00140118
0.0380652
0.00247519
0.039573
0.00427366
0.0404935
0.00690146
0.0405975
0.0104436
0.0396789
0.0149564
0.0375743
0.0204556
0.0341779
0.0269077
0.0294466
0.0342658
0.0234085
0.0424098
0.0161716
0.0512005
0.00784244
0.0604801
-0.00139454
0.0701724
-0.0116823
0.0800006
-0.0227321
0.0899808
-0.0350293
-0.0492932
0.10037
0.000781592
0.00383711
0.00227121
0.0116353
0.00381253
0.0186664
0.00505546
0.024196
0.00598402
0.0281807
0.00680364
0.0310085
0.00779118
0.033121
0.00919464
0.0347872
0.0111996
0.0360602
0.0139365
0.0368361
0.0174961
0.0369338
0.0219376
0.036156
0.027289
0.0343275
0.0335437
0.0313196
0.040661
0.0270606
0.048556
0.0215516
0.057128
0.0148364
0.0661754
0.00712421
0.0756813
-0.00166347
0.0853898
-0.011103
0.0952863
-0.0215788
0.105333
-0.0327785
0.11584
-0.0455363
-0.0606225
0.127169
0.000885002
0.00295211
0.00280921
0.00971111
0.00514374
0.0163319
0.00744523
0.0218945
0.00956702
0.0260589
0.0116216
0.028954
0.013854
0.0308886
0.0165233
0.0321178
0.0198371
0.0327464
0.0239337
0.0327396
0.0288894
0.0319781
0.0347297
0.0303157
0.0414361
0.0276211
0.0489488
0.0238069
0.0571737
0.0188357
0.0659649
0.0127604
0.0751733
0.00562805
0.0846612
-0.00236364
0.094409
-0.0114113
0.104164
-0.0208575
0.11442
-0.0318349
0.125251
-0.0436095
0.137318
-0.0576032
-0.0737175
0.150413
0.000860944
0.00209117
0.00293742
0.00763463
0.00574006
0.0135292
0.00882555
0.018809
0.0119477
0.0229367
0.0150982
0.0258035
0.0184356
0.0275512
0.0221811
0.0283723
0.0265367
0.0283908
0.0316441
0.0276321
0.0375751
0.0260472
0.0443358
0.023555
0.0518756
0.0200814
0.0600927
0.0155897
0.0688486
0.0100798
0.0779487
0.00366027
0.0874006
-0.0038238
0.097015
-0.011978
0.106974
-0.0213703
0.117449
-0.0313328
0.129246
-0.0436313
0.142222
-0.0565861
0.156892
-0.0722731
-0.0883659
0.17154
0.000732309
0.00135886
0.00267605
0.0056909
0.00554371
0.0106616
0.00898684
0.0153659
0.0127334
0.0191901
0.016677
0.02186
0.0208671
0.0233611
0.025443
0.0237964
0.03056
0.0232738
0.0363378
0.0218543
0.0428352
0.0195498
0.050044
0.0163461
0.0578985
0.0122268
0.0662882
0.00720005
0.0750546
0.00131339
0.084314
-0.00559912
0.0939822
-0.0134919
0.104327
-0.0223224
0.115808
-0.0328517
0.128801
-0.0443255
0.143641
-0.0584717
0.15945
-0.0723954
0.175827
-0.0886499
-0.102172
0.189634
0.000530217
0.000828643
0.00210501
0.0041161
0.00464597
0.00812061
0.00795579
0.0120561
0.0118136
0.0153324
0.016073
0.0176006
0.020696
0.018738
0.0257285
0.0187639
0.0312512
0.017751
0.0373348
0.0157707
0.044013
0.0128716
0.0512797
0.00907945
0.0591059
0.00440057
0.0675348
-0.00122887
0.0767329
-0.00788467
0.0868149
-0.0156811
0.098186
-0.0248631
0.111285
-0.0354217
0.126222
-0.047788
0.142849
-0.060953
0.160182
-0.0758042
0.176771
-0.0889843
0.191227
-0.103107
-0.111814
0.200869
0.000280807
0.000547836
0.00132546
0.00307145
0.00323958
0.00620648
0.00598419
0.00931148
0.0094341
0.0118824
0.0134619
0.0135728
0.0179902
0.0142098
0.0230003
0.0137538
0.0285159
0.0122354
0.034585
0.00970161
0.0412806
0.00617603
0.0487191
0.00164101
0.0571232
-0.0040036
0.0667662
-0.0108718
0.0779944
-0.0191129
0.0911447
-0.0288315
0.10631
-0.0400288
0.123338
-0.0524493
0.141351
-0.0658007
0.159368
-0.0789698
0.175501
-0.0919372
0.188601
-0.102085
0.197271
-0.111777
-0.115666
0.201124
5.05655e-06
0.000542779
0.000444359
0.00263215
0.0015725
0.00507834
0.00348786
0.00739612
0.00616962
0.00920069
0.00955463
0.0101878
0.0135929
0.0101715
0.0182866
0.00906009
0.0237137
0.00680837
0.0300324
0.00338289
0.0375112
-0.00130276
0.0464941
-0.00734192
0.0573336
-0.0148431
0.0703112
-0.0238494
0.0854796
-0.0342813
0.102577
-0.0459287
0.120885
-0.0583369
0.13939
-0.0709543
0.156599
-0.0830102
0.171349
-0.0937191
0.182149
-0.102738
0.18902
-0.108956
0.191787
-0.114543
-0.116093
0.192214
-0.000259142
0.000801921
-0.00039304
0.00276605
-2.03972e-05
0.0047057
0.00105668
0.00631905
0.00294427
0.0073131
0.00569663
0.00743542
0.00939414
0.00647402
0.0141958
0.00425841
0.0203901
0.000614104
0.028285
-0.00451205
0.0382548
-0.0112725
0.0505563
-0.0196435
0.0652085
-0.0294953
0.0819057
-0.0405466
0.0999737
-0.0523493
0.118402
-0.0643571
0.135947
-0.0758821
0.151364
-0.0863713
0.163545
-0.0951911
0.172102
-0.102276
0.176917
-0.107552
0.179363
-0.111402
0.17995
-0.11513
-0.116649
0.180506
-0.000450706
0.00125263
-0.000983518
0.00329886
-0.00111877
0.00484095
-0.000534256
0.00573454
0.00100887
0.00576997
0.00375567
0.00468862
0.00800094
0.00222875
0.014104
-0.00184462
0.0224041
-0.00768603
0.0332183
-0.0153263
0.0465734
-0.0246275
0.0621883
-0.0352584
0.0794168
-0.0467238
0.0972916
-0.0584214
0.114651
-0.069709
0.130295
-0.0800012
0.143241
-0.0888281
0.152895
-0.0960254
0.159271
-0.101567
0.163032
-0.106037
0.165025
-0.109545
0.166724
-0.113102
0.167928
-0.116333
-0.118478
0.169756
-0.000499695
-0.00112093
-0.00130672
-0.000616421
0.00135997
0.00506329
0.0109177
0.0193082
0.030418
0.044097
0.0597942
0.0766025
0.0933878
0.108975
0.122363
0.132917
0.140534
0.145591
0.148886
0.151164
0.152971
0.154682
0.155829
0.158964
0.0767241
-0.0700661
0.0619234
0.085055
-0.0995163
0.0911854
0.0928686
-0.127374
0.11956
0.0990765
-0.148232
0.142024
0.102571
-0.160001
0.156506
0.103761
-0.164348
0.163158
0.104123
-0.163111
0.162748
0.102608
-0.157676
0.159192
0.0970477
-0.154223
0.159783
0.0891507
-0.157949
0.165846
0.084686
-0.161997
0.166462
0.088118
-0.149777
0.146345
0.0983059
-0.110348
0.10016
0.11177
-0.0473861
0.0339217
0.125886
0.0271785
-0.0412942
0.138906
0.0977434
-0.110764
0.149397
0.149465
-0.159956
0.15602
0.178109
-0.184731
0.15889
0.190436
-0.193306
0.160011
0.193173
-0.194293
0.160453
0.190704
-0.191146
0.15891
0.193802
-0.192259
0.154172
0.213101
-0.208363
0.14709
0.237857
-0.230775
0.139983
0.238351
-0.231243
0.135074
0.188898
-0.183989
0.133903
0.0911642
-0.0899929
0.136363
-0.0284689
0.026009
0.14136
-0.133173
0.128176
0.147505
-0.199068
0.192923
0.152475
-0.226897
0.221927
0.153661
-0.238079
0.236893
0.149124
-0.249207
0.253744
0.139068
-0.260832
0.270887
0.126829
-0.258075
0.270315
0.116868
-0.214336
0.224297
0.113249
-0.123661
0.12728
0.117185
-0.000170656
-0.00376522
0.126638
0.111331
-0.120783
0.134834
0.191532
-0.199728
0.13551
0.24507
-0.245747
0.128794
0.286449
-0.279733
0.120308
0.298918
-0.290432
0.115419
0.246918
-0.242029
0.117265
0.141286
-0.143132
0.123037
-0.00265548
-0.00311698
0.126909
-0.117957
0.114086
0.125338
-0.228091
0.229662
0.122356
-0.302547
0.305529
0.120401
-0.291358
0.293313
0.12069
-0.231619
0.23133
0.120373
-0.0365914
0.0369084
0.118791
0.12655
-0.124967
0.116002
0.303523
-0.300734
0.114776
0.36724
-0.366014
0.112665
0.1722
-0.170089
0.111402
0.116623
-0.11536
0.106804
-0.165952
0.17055
0.10523
-0.380572
0.382146
-0.118433
0.121056
0.105483
-0.0751791
0.110384
-0.104417
0.114012
-0.131002
0.115649
-0.149869
0.114677
-0.159029
0.110849
-0.16052
0.106066
-0.158327
0.10146
-0.153071
0.094512
-0.147275
0.0841357
-0.147573
0.0746904
-0.152552
0.0725523
-0.147639
0.0798609
-0.117656
0.0936251
-0.0611503
0.110635
0.0101689
0.127869
0.0805095
0.142655
0.134679
0.153069
0.167695
0.159227
0.184278
0.163103
0.189297
0.165838
0.187968
0.166793
0.192847
0.165028
0.214865
0.160644
0.242241
0.15488
0.244115
0.149507
0.19427
0.146098
0.0945739
0.145275
-0.0276456
0.146674
-0.134573
0.149473
-0.201867
0.151593
-0.229017
0.150597
-0.237083
0.144489
-0.243099
0.133237
-0.24958
0.120366
-0.245205
0.110938
-0.204909
0.108907
-0.121631
0.115382
-0.00664531
0.126976
0.0997372
0.136376
0.182132
0.13792
0.243526
0.132063
0.292306
0.123541
0.30744
0.117638
0.252821
0.11831
0.140613
0.12364
-0.00798512
0.127506
-0.121823
0.125146
-0.225732
0.121534
-0.298936
0.119342
-0.289166
0.12014
-0.232417
0.120538
-0.0369892
0.119766
0.127322
0.11839
0.304899
0.116492
0.369138
0.11396
0.174732
0.112699
0.117884
0.10691
-0.160163
0.105341
-0.379003
-0.11687
0.130854
-0.0788639
0.133112
-0.106675
0.132503
-0.130393
0.128957
-0.146323
0.123442
-0.153515
0.116295
-0.153372
0.108255
-0.150287
0.101015
-0.145831
0.0932008
-0.13946
0.0817815
-0.136154
0.0687389
-0.139509
0.0610845
-0.139984
0.0640341
-0.120606
0.076749
-0.0738652
0.0956543
-0.00873647
0.116377
0.059787
0.135215
0.115841
0.149483
0.153427
0.159118
0.174643
0.165912
0.182503
0.171151
0.18273
0.174897
0.1891
0.176504
0.213258
0.175261
0.243484
0.171182
0.248194
0.1653
0.200152
0.159321
0.100553
0.154819
-0.0231441
0.15241
-0.132164
0.151761
-0.201217
0.151056
-0.228312
0.148131
-0.234158
0.140982
-0.23595
0.128996
-0.237593
0.115545
-0.231754
0.106421
-0.195785
0.105865
-0.121074
0.114406
-0.0151865
0.127755
0.0863882
0.138474
0.171412
0.141258
0.240743
0.13652
0.297044
0.128044
0.315916
0.120992
0.259874
0.120153
0.141451
0.124747
-0.0125788
0.128624
-0.1257
0.125548
-0.222656
0.121122
-0.294509
0.118592
-0.286636
0.119829
-0.233654
0.121192
-0.0383517
0.121254
0.12726
0.121187
0.304966
0.118787
0.371538
0.115805
0.177714
0.114565
0.119124
0.107728
-0.153326
0.106044
-0.377319
-0.116275
0.153214
-0.0816648
0.153191
-0.106653
0.149111
-0.126312
0.141123
-0.138335
0.131103
-0.143494
0.120805
-0.143075
0.110444
-0.139926
0.10122
-0.136607
0.0932056
-0.131446
0.0826607
-0.125609
0.0682715
-0.12512
0.0557986
-0.127512
0.053182
-0.117989
0.0628981
-0.0835813
0.0816853
-0.0275237
0.104757
0.0367154
0.126854
0.0937435
0.1447
0.135581
0.157814
0.161528
0.167584
0.172734
0.175455
0.174859
0.182222
0.182334
0.187486
0.207994
0.189753
0.241217
0.187885
0.250062
0.181786
0.206252
0.173117
0.109221
0.164863
-0.0148899
0.158604
-0.125905
0.154466
-0.197079
0.150952
-0.224798
0.146171
-0.229377
0.138312
-0.228091
0.126147
-0.225429
0.112373
-0.217981
0.103248
-0.18666
0.103635
-0.121461
0.113763
-0.0253145
0.128731
0.07142
0.141036
0.159108
0.145408
0.23637
0.141981
0.300471
0.13373
0.324167
0.125615
0.267989
0.122961
0.144105
0.126412
-0.0160297
0.130236
-0.129524
0.126547
-0.218967
0.121166
-0.289128
0.118139
-0.28361
0.119775
-0.23529
0.12221
-0.0407865
0.12318
0.12629
0.124353
0.303793
0.121602
0.374289
0.118175
0.181142
0.116981
0.120318
0.109229
-0.145574
0.107333
-0.375423
-0.116508
0.172438
-0.0825627
0.169037
-0.103252
0.161033
-0.118309
0.149704
-0.127006
0.13686
-0.130651
0.124577
-0.130792
0.113137
-0.128486
0.102368
-0.125839
0.0935569
-0.122634
0.0847666
-0.116819
0.0718612
-0.112215
0.0569671
-0.112618
0.0486645
-0.109686
0.0534202
-0.088337
0.0700276
-0.0441311
0.0936174
0.0131255
0.117754
0.0696071
0.1385
0.114835
0.154723
0.145305
0.167281
0.160176
0.177707
0.164432
0.187393
0.172648
0.196272
0.199115
0.202401
0.235088
0.203453
0.249011
0.198141
0.211563
0.187391
0.119971
0.175238
-0.00273738
0.164956
-0.115623
0.157324
-0.189446
0.151149
-0.218623
0.144668
-0.222897
0.136393
-0.219816
0.124549
-0.213585
0.110737
-0.204168
0.101327
-0.17725
0.102017
-0.122151
0.113194
-0.0364911
0.129577
0.0550371
0.14371
0.144974
0.150199
0.229881
0.148605
0.302065
0.140846
0.331926
0.131727
0.277109
0.126917
0.148914
0.128679
-0.0177913
0.132278
-0.133123
0.128102
-0.214791
0.121663
-0.282689
0.117952
-0.279898
0.119937
-0.237276
0.123529
-0.0443789
0.125458
0.124362
0.127838
0.301412
0.124872
0.377254
0.121032
0.184982
0.119921
0.121429
0.111386
-0.137039
0.109193
-0.373229
-0.117462
0.186827
-0.0797559
0.179231
-0.0956567
0.167379
-0.106456
0.153512
-0.113138
0.139481
-0.11662
0.126585
-0.117895
0.115345
-0.117246
0.104696
-0.115189
0.0950214
-0.11296
0.0870738
-0.108871
0.0773838
-0.102525
0.0634617
-0.0986954
0.051002
-0.0972268
0.0492905
-0.0866254
0.0612566
-0.0560973
0.0831811
-0.00879899
0.107986
0.0448019
0.130871
0.0919504
0.149811
0.126365
0.164879
0.145108
0.177464
0.151847
0.189599
0.160513
0.20187
0.186844
0.211793
0.225165
0.215686
0.245118
0.211435
0.215814
0.1999
0.131506
0.184978
0.0121847
0.170984
-0.101629
0.160132
-0.178594
0.151541
-0.210032
0.143447
-0.214803
0.134847
-0.211215
0.123823
-0.202561
0.110429
-0.190774
0.100516
-0.167337
0.10077
-0.122405
0.11236
-0.0480808
0.129968
0.0374291
0.146142
0.1288
0.155122
0.220902
0.155725
0.301462
0.14892
0.338731
0.139168
0.286861
0.132079
0.156003
0.131581
-0.0172926
0.134657
-0.136199
0.13014
-0.210274
0.122597
-0.275146
0.117996
-0.275297
0.120251
-0.239531
0.125064
-0.0491916
0.127982
0.121444
0.131559
0.297835
0.128528
0.380285
0.12433
0.189181
0.123342
0.122416
0.114162
-0.127858
0.111594
-0.370662
-0.119045
0.193627
-0.0725143
0.182488
-0.0845174
0.168605
-0.092573
0.153958
-0.098491
0.140103
-0.102766
0.12751
-0.105302
0.116545
-0.106281
0.106713
-0.105357
0.0971424
-0.10339
0.0890254
-0.100754
0.0819837
-0.095483
0.0719875
-0.0886992
0.0590862
-0.0843255
0.0513603
-0.0788995
0.0565105
-0.0612474
0.0737469
-0.0260355
0.0976761
0.0208728
0.12171
0.067916
0.14288
0.105196
0.160293
0.127695
0.174883
0.137256
0.188888
0.146509
0.203608
0.172124
0.216968
0.211805
0.224377
0.237708
0.222031
0.218161
0.210232
0.143305
0.192996
0.0294203
0.176196
-0.0848293
0.162575
-0.164972
0.151928
-0.199386
0.142431
-0.205306
0.133462
-0.202246
0.123528
-0.192627
0.11115
-0.178396
0.100716
-0.156903
0.0997535
-0.121443
0.111003
-0.0593307
0.129563
0.0188693
0.147919
0.110444
0.159849
0.208972
0.163346
0.297965
0.158158
0.34392
0.147956
0.297063
0.138454
0.165505
0.135125
-0.0139639
0.137269
-0.138343
0.132554
-0.20556
0.123934
-0.266526
0.118234
-0.269596
0.120637
-0.241934
0.126721
-0.0552756
0.130657
0.117508
0.135442
0.29305
0.132496
0.383232
0.128012
0.193664
0.127196
0.123232
0.117509
-0.118171
0.114499
-0.367653
-0.121166
0.191062
-0.0624529
0.178593
-0.072048
0.16508
-0.0790605
0.151726
-0.0851371
0.139259
-0.0902991
0.127796
-0.0938384
0.117317
-0.0958019
0.108104
-0.0961441
0.0994744
-0.0947597
0.0912549
-0.0925345
0.0848535
-0.0890816
0.0788376
-0.0826833
0.0695687
-0.0750566
0.0593863
-0.0687172
0.0569494
-0.0588105
0.0671703
-0.0362564
0.0876806
0.00036256
0.111397
0.0441996
0.133901
0.082692
0.153076
0.10852
0.16918
0.121152
0.184601
0.131087
0.201523
0.155203
0.217993
0.195335
0.228219
0.227483
0.227677
0.218703
0.216566
0.154415
0.198744
0.047243
0.180197
-0.0662823
0.164421
-0.149197
0.152102
-0.187067
0.141459
-0.194664
0.132035
-0.192822
0.12319
-0.183782
0.112448
-0.167654
0.101844
-0.146299
0.0990389
-0.118638
0.109033
-0.0693253
0.128163
-0.000260022
0.148668
0.0899387
0.163624
0.194016
0.170229
0.29136
0.167447
0.346701
0.157427
0.307083
0.145799
0.177133
0.139294
-0.00745825
0.140017
-0.139066
0.135209
-0.200753
0.125627
-0.256943
0.118643
-0.262612
0.121017
-0.244308
0.128404
-0.0626627
0.133366
0.112546
0.139367
0.287048
0.136675
0.385924
0.132015
0.198325
0.131427
0.123821
0.121371
-0.108116
0.117866
-0.364148
-0.123734
0.182384
-0.0526227
0.171252
-0.0609158
0.159644
-0.0674533
0.148201
-0.0736933
0.137139
-0.079237
0.1267
-0.0834002
0.116924
-0.0860257
0.108086
-0.0873058
0.100435
-0.0871084
0.0932664
-0.0853663
0.0868237
-0.0826388
0.0822933
-0.0781529
0.07772
-0.0704834
0.0703106
-0.0613079
0.0637212
-0.052221
0.0660004
-0.0385356
0.0800316
-0.0136687
0.101586
0.022645
0.124276
0.0600023
0.144516
0.0882797
0.161439
0.104229
0.177308
0.115219
0.195166
0.137344
0.214103
0.176398
0.228223
0.213364
0.23101
0.215916
0.221025
0.1644
0.202627
0.0656406
0.182819
-0.0464741
0.165459
-0.131837
0.151873
-0.17348
0.140404
-0.183195
0.130467
-0.182884
0.122422
-0.175737
0.113745
-0.158977
0.103732
-0.136286
0.0988745
-0.113781
0.106592
-0.0770427
0.125468
-0.0191361
0.148042
0.0673643
0.166442
0.175616
0.1767
0.281102
0.176863
0.346538
0.167485
0.316461
0.153894
0.190724
0.143915
0.00252095
0.142788
-0.137939
0.137937
-0.195902
0.1276
-0.246606
0.119188
-0.2542
0.121302
-0.246423
0.130032
-0.0713926
0.13604
0.106538
0.143266
0.279823
0.140977
0.388212
0.136261
0.203041
0.135967
0.124114
0.125691
-0.0978389
0.12165
-0.360107
-0.126654
0.172535
-0.0446516
0.16343
-0.051811
0.153714
-0.0577373
0.143826
-0.0638053
0.13394
-0.069351
0.124372
-0.0738322
0.115462
-0.0771164
0.107292
-0.0791356
0.100145
-0.0799609
0.0941156
-0.0793372
0.0885634
-0.0770866
0.0839697
-0.0735593
0.0813246
-0.0678382
0.0786037
-0.058587
0.0737975
-0.0474148
0.0709535
-0.0356916
0.0766618
-0.019377
0.0928631
0.0064437
0.114118
0.0387473
0.134868
0.0675293
0.152457
0.0866402
0.168213
0.0994632
0.185805
0.119752
0.20589
0.156312
0.222313
0.196941
0.227303
0.210927
0.219453
0.17225
0.20312
0.0819739
0.183935
-0.0272896
0.16564
-0.113541
0.151026
-0.158866
0.139004
-0.171174
0.128621
-0.172501
0.120948
-0.168064
0.114383
-0.152412
0.105908
-0.127811
0.0994368
-0.107309
0.104035
-0.0816409
0.121613
-0.0367138
0.145699
0.0432781
0.167102
0.154212
0.180973
0.267232
0.184644
0.342867
0.177327
0.323778
0.162307
0.205743
0.148994
0.015834
0.145493
-0.134438
0.140554
-0.190963
0.129753
-0.235805
0.119846
-0.244293
0.121406
-0.247982
0.13151
-0.0814972
0.13857
0.0994792
0.146977
0.271415
0.145261
0.389928
0.14066
0.207642
0.14075
0.124024
0.130402
-0.0874911
0.125805
-0.35551
-0.129834
0.163371
-0.0382662
0.155581
-0.0440214
0.147082
-0.0492383
0.138229
-0.0549517
0.129282
-0.0604044
0.120575
-0.0651252
0.11244
-0.068981
0.105091
-0.0717869
0.0985292
-0.0733989
0.0930089
-0.073817
0.0885493
-0.072627
0.084669
-0.0696789
0.0820711
-0.0652404
0.0815356
-0.0580514
0.0811504
-0.0470296
0.0795669
-0.034108
0.0805147
-0.0203248
0.0895958
-0.00263745
0.105504
0.0228396
0.124322
0.0487108
0.141751
0.0692111
0.157696
0.0835182
0.175533
0.101915
0.196506
0.135339
0.215258
0.178189
0.223666
0.202519
0.218004
0.177912
0.202351
0.0976273
0.183
-0.0079382
0.16434
-0.0948819
0.149192
-0.143718
0.137024
-0.159006
0.126453
-0.16193
0.118777
-0.160388
0.113943
-0.147577
0.107732
-0.121601
0.100651
-0.100227
0.101711
-0.0827009
0.116727
-0.0517307
0.141718
0.0182872
0.166666
0.129264
0.184496
0.249402
0.191347
0.336016
0.186114
0.329011
0.171006
0.220852
0.154024
0.0328152
0.147981
-0.128395
0.142929
-0.18591
0.132016
-0.224893
0.120678
-0.232956
0.121225
-0.248529
0.132785
-0.0930565
0.140943
0.0913208
0.150492
0.261866
0.149468
0.390953
0.145122
0.211988
0.14569
0.123456
0.135426
-0.0772265
0.130286
-0.35037
-0.133189
0.15363
-0.0329321
0.146886
-0.0372772
0.139635
-0.0419878
0.131904
-0.0472202
0.124043
-0.0525432
0.116439
-0.057522
0.109285
-0.0618269
0.102766
-0.0652676
0.0969556
-0.0675886
0.0918502
-0.0687115
0.0877126
-0.0684894
0.0844844
-0.0664508
0.0819297
-0.0626856
0.0809947
-0.0571165
0.0822206
-0.0482555
0.0839108
-0.0357982
0.0853742
-0.0217882
0.0893054
-0.00656865
0.0994314
0.0127136
0.113387
0.0347554
0.128113
0.0544847
0.142781
0.0688503
0.159366
0.0853303
0.179882
0.114823
0.201312
0.156759
0.213555
0.190275
0.210889
0.180578
0.198985
0.109531
0.18266
0.00838691
0.163883
-0.0761048
0.147821
-0.127656
0.13536
-0.146545
0.124659
-0.151228
0.116605
-0.152335
0.112745
-0.143717
0.108882
-0.117738
0.102169
-0.0935139
0.100201
-0.0807337
0.111515
-0.0630443
0.135469
-0.00566696
0.162443
0.10229
0.184211
0.227634
0.195503
0.324724
0.193545
0.330969
0.179113
0.235284
0.160062
0.0518657
0.150678
-0.119011
0.145266
-0.180498
0.134477
-0.214103
0.121881
-0.22036
0.121092
-0.24774
0.133751
-0.105716
0.143004
0.0820681
0.153606
0.251264
0.153417
0.391142
0.149571
0.215834
0.150726
0.122301
0.140718
-0.0672182
0.135057
-0.344709
-0.136607
0.201953
-0.028464
-0.206421
0.198328
-0.0336522
0.194561
-0.0382205
0.190238
-0.0428972
0.185266
-0.0475712
0.179746
-0.0520021
0.173803
-0.0558837
0.16751
-0.058975
0.160948
-0.0610271
0.154147
-0.0619099
0.147147
-0.0614894
0.140173
-0.0594765
0.133194
-0.0557068
0.126218
-0.0501407
0.119881
-0.0419186
0.11454
-0.0304577
0.109543
-0.0167907
0.105114
-0.00213935
0.10254
0.0152875
0.103643
0.0336523
0.108621
0.0495065
0.116676
0.0607957
0.126806
0.0751998
0.138469
0.10316
0.150043
0.145186
0.160521
0.179797
0.174777
0.166321
0.191708
0.0926001
0.200709
-0.000614212
0.199204
-0.0745999
0.190398
-0.11885
0.178734
-0.134881
0.166311
-0.138806
0.154312
-0.140335
0.144996
-0.134401
0.135938
-0.10868
0.124237
-0.0818131
0.115865
-0.0723615
0.117802
-0.0649816
0.129671
-0.0175356
0.14234
0.0896208
0.153358
0.216616
0.162165
0.315918
0.16832
0.324814
0.170133
0.23347
0.166418
0.0555808
0.164126
-0.116718
0.159627
-0.176
0.148856
-0.203332
0.133713
-0.205218
0.126676
-0.240703
0.130607
-0.109646
0.132286
0.0803887
0.138039
0.245511
0.139931
0.38925
0.140303
0.215463
0.143859
0.118745
0.136218
-0.0595768
0.128618
-0.33711
-0.1373
0.209955
-0.0249089
-0.21351
0.206117
-0.0298137
0.202188
-0.034292
0.197805
-0.0385146
0.192844
-0.0426094
0.187305
-0.0464639
0.181289
-0.049867
0.174913
-0.0525989
0.168287
-0.0544013
0.161557
-0.0551796
0.154813
-0.0547462
0.148206
-0.0528694
0.14196
-0.0494605
0.136126
-0.0443066
0.130846
-0.0366389
0.126683
-0.026295
0.123625
-0.0137325
0.12076
0.000725315
0.118168
0.0178796
0.116712
0.0351083
0.118017
0.0482015
0.123082
0.0557314
0.131755
0.066526
0.142519
0.092396
0.153343
0.134362
0.166524
0.166617
0.186507
0.146338
0.206521
0.0725867
0.215408
-0.00950118
0.211581
-0.0707735
0.200806
-0.108075
0.188164
-0.122239
0.175581
-0.126222
0.163408
-0.128163
0.154201
-0.125193
0.1465
-0.100979
0.135818
-0.0711303
0.126213
-0.062757
0.126337
-0.0651059
0.138186
-0.029384
0.15274
0.075066
0.166112
0.203244
0.177393
0.304637
0.18564
0.316567
0.188333
0.230778
0.183937
0.0599773
0.179287
-0.112068
0.173162
-0.169875
0.161372
-0.191542
0.144381
-0.188227
0.136385
-0.232707
0.141352
-0.114614
0.143488
0.0782528
0.149665
0.239334
0.152335
0.386579
0.153326
0.214471
0.157684
0.114387
0.149581
-0.0514746
0.140796
-0.328324
-0.137626
0.218026
-0.0221285
-0.220806
0.214602
-0.02639
0.210823
-0.0305131
0.206662
-0.0343534
0.202024
-0.0379716
0.196886
-0.0413255
0.191297
-0.0442782
0.185369
-0.0466712
0.179215
-0.048247
0.172927
-0.0488922
0.166604
-0.0484225
0.160343
-0.0466091
0.154266
-0.0433831
0.148558
-0.0385983
0.143457
-0.0315378
0.139454
-0.0222922
0.137036
-0.0113143
0.135889
0.00187249
0.135158
0.0186098
0.134451
0.0358159
0.134432
0.0482207
0.136087
0.054076
0.139931
0.0626817
0.14622
0.0861076
0.156877
0.123705
0.176221
0.147273
0.202592
0.119967
0.223358
0.05182
0.22994
-0.0160831
0.224098
-0.0649311
0.212579
-0.0965556
0.199956
-0.109617
0.187614
-0.11388
0.175129
-0.115677
0.165396
-0.11546
0.15851
-0.0940936
0.148881