/*--------------------------------*- C++ -*----------------------------------*\
| =========                 |                                                 |
| \\      /  F ield         | OpenFOAM: The Open Source CFD Toolbox           |
|  \\    /   O peration     | Version:  2512                                  |
|   \\  /    A nd           | Website:  www.openfoam.com                      |
|    \\/     M anipulation  |                                                 |
\*---------------------------------------------------------------------------*/
FoamFile
{
    version     2.0;
    format      ascii;
    arch        "LSB;label=32;scalar=64";
    class       volScalarField;
    location    "151";
    object      p;
}
// * * * * * * * * * * * * * * * * * * * * * * * * * * * * * * * * * * * * * //

dimensions      [0 2 -2 0 0 0 0];

internalField   nonuniform List<scalar> 
13248
(
-0.531561
-0.530225
-0.529949
-0.530567
-0.531931
-0.533689
-0.535132
-0.535191
-0.5325
-0.52561
-0.513326
-0.495027
-0.47085
-0.441648
-0.408762
-0.373711
-0.337904
-0.302502
-0.268292
-0.235846
-0.205384
-0.1771
-0.150796
-0.125808
-0.536498
-0.534547
-0.533154
-0.532279
-0.531882
-0.53162
-0.530718
-0.528003
-0.522109
-0.511819
-0.496395
-0.475777
-0.450575
-0.421871
-0.390936
-0.358978
-0.326991
-0.295702
-0.265601
-0.237025
-0.21012
-0.185105
-0.161687
-0.13982
-0.541658
-0.539149
-0.536766
-0.534539
-0.532438
-0.530065
-0.526522
-0.520594
-0.511107
-0.497291
-0.478982
-0.456628
-0.431106
-0.40347
-0.374727
-0.345708
-0.317031
-0.289139
-0.26234
-0.236855
-0.212822
-0.190342
-0.169241
-0.14915
-0.548023
-0.544853
-0.541562
-0.538063
-0.53421
-0.529451
-0.522797
-0.513179
-0.499862
-0.482665
-0.461962
-0.438502
-0.413172
-0.386811
-0.360101
-0.333554
-0.307545
-0.282347
-0.258157
-0.235137
-0.213358
-0.192939
-0.17366
-0.155358
-0.556215
-0.552189
-0.547934
-0.543101
-0.537255
-0.529653
-0.519375
-0.505761
-0.48869
-0.468554
-0.446063
-0.422012
-0.397119
-0.371949
-0.346917
-0.32232
-0.29838
-0.275261
-0.253098
-0.231984
-0.211992
-0.193174
-0.175368
-0.158503
-0.566486
-0.561348
-0.555993
-0.549591
-0.541302
-0.530286
-0.515948
-0.498269
-0.47776
-0.455206
-0.431408
-0.407031
-0.382565
-0.358343
-0.334592
-0.311473
-0.289108
-0.267595
-0.247012
-0.227419
-0.208854
-0.19134
-0.174778
-0.159153
-0.57882
-0.572353
-0.565676
-0.557292
-0.545933
-0.53089
-0.512206
-0.490601
-0.467076
-0.442568
-0.417782
-0.39318
-0.36904
-0.345524
-0.32273
-0.300731
-0.279582
-0.259324
-0.239993
-0.22161
-0.204191
-0.187725
-0.172172
-0.157517
-0.592978
-0.585039
-0.576739
-0.565783
-0.550591
-0.530961
-0.507831
-0.482586
-0.456476
-0.430372
-0.404785
-0.379966
-0.356026
-0.333006
-0.31092
-0.289774
-0.269571
-0.250311
-0.23199
-0.214604
-0.198136
-0.182565
-0.167873
-0.153978
-0.608469
-0.598983
-0.588664
-0.574371
-0.554547
-0.52995
-0.50249
-0.473987
-0.445683
-0.418249
-0.391968
-0.366917
-0.343081
-0.320415
-0.298869
-0.278399
-0.258966
-0.240534
-0.223068
-0.206534
-0.190896
-0.176122
-0.162188
-0.148956
-0.624461
-0.613396
-0.600542
-0.582032
-0.556898
-0.52722
-0.495724
-0.464369
-0.434198
-0.405624
-0.378726
-0.353437
-0.329649
-0.307251
-0.286143
-0.266239
-0.247464
-0.229753
-0.213044
-0.19728
-0.182408
-0.168389
-0.155168
-0.142583
-0.639768
-0.627099
-0.611046
-0.587432
-0.556532
-0.521883
-0.486724
-0.45289
-0.421122
-0.391575
-0.364145
-0.338655
-0.314919
-0.292771
-0.272069
-0.252691
-0.234531
-0.217499
-0.201511
-0.186493
-0.172382
-0.159127
-0.146636
-0.13477
-0.652913
-0.638614
-0.61858
-0.589052
-0.552171
-0.512811
-0.474391
-0.438436
-0.405345
-0.375019
-0.3472
-0.321612
-0.298005
-0.276164
-0.255908
-0.237083
-0.219557
-0.203218
-0.187965
-0.173712
-0.160393
-0.147952
-0.136278
-0.125285
-0.422286
-0.423176
-0.423217
-0.423811
-0.425793
-0.42947
-0.43499
-0.442499
-0.452157
-0.464095
-0.478358
-0.494865
-0.513371
-0.533446
-0.554486
-0.575739
-0.596348
-0.615374
-0.631929
-0.645182
-0.654197
-0.657864
-0.655962
-0.647066
-0.422927
-0.425184
-0.426048
-0.427295
-0.429823
-0.433852
-0.439424
-0.446548
-0.45522
-0.465387
-0.476926
-0.489622
-0.503158
-0.517128
-0.531044
-0.544363
-0.5565
-0.566854
-0.574831
-0.579821
-0.581147
-0.578049
-0.569756
-0.555735
-0.425479
-0.428903
-0.430634
-0.432667
-0.435894
-0.440439
-0.446217
-0.453078
-0.460814
-0.469146
-0.477722
-0.486125
-0.493896
-0.500574
-0.505738
-0.509027
-0.510151
-0.508887
-0.505057
-0.498492
-0.488933
-0.475918
-0.459044
-0.439048
-0.430945
-0.435227
-0.437802
-0.440716
-0.444793
-0.450058
-0.456306
-0.463222
-0.470382
-0.477262
-0.483242
-0.487639
-0.489775
-0.489045
-0.485001
-0.477395
-0.466191
-0.451549
-0.433798
-0.413371
-0.39057
-0.36526
-0.337455
-0.310477
-0.439753
-0.444527
-0.447849
-0.451653
-0.45665
-0.462773
-0.46971
-0.47699
-0.483989
-0.489936
-0.493936
-0.495028
-0.492277
-0.48489
-0.472331
-0.454395
-0.431234
-0.403332
-0.371472
-0.336657
-0.299812
-0.261322
-0.221717
-0.184713
-0.451654
-0.456505
-0.460398
-0.465
-0.470871
-0.477865
-0.485581
-0.493412
-0.500551
-0.505994
-0.508584
-0.507089
-0.500334
-0.487362
-0.467585
-0.440879
-0.407604
-0.368575
-0.324985
-0.278264
-0.229907
-0.180786
-0.132723
-0.0840821
-0.465768
-0.470282
-0.474471
-0.479655
-0.486225
-0.493924
-0.502292
-0.510611
-0.517909
-0.522978
-0.524423
-0.520774
-0.510675
-0.493087
-0.467482
-0.433927
-0.393087
-0.346182
-0.294882
-0.240993
-0.186727
-0.131018
-0.0818232
-0.0278103
-0.480737
-0.484532
-0.488733
-0.494223
-0.501106
-0.509114
-0.517743
-0.526156
-0.533255
-0.53767
-0.537855
-0.532124
-0.519078
-0.497735
-0.467714
-0.429284
-0.383775
-0.332741
-0.27828
-0.222303
-0.16733
-0.113831
-0.06648
-0.0199949
-0.495134
-0.497907
-0.501718
-0.507037
-0.513787
-0.521591
-0.529833
-0.53765
-0.543856
-0.546961
-0.545582
-0.537515
-0.52172
-0.497361
-0.464363
-0.423496
-0.376346
-0.324957
-0.271551
-0.218204
-0.167002
-0.118977
-0.0764536
-0.0380817
-0.507785
-0.509365
-0.512445
-0.517105
-0.523121
-0.530041
-0.537256
-0.543781
-0.548432
-0.549694
-0.545923
-0.535475
-0.517221
-0.490673
-0.456192
-0.414979
-0.368882
-0.320077
-0.270649
-0.222533
-0.177082
-0.135406
-0.0983328
-0.0662133
-0.517968
-0.518419
-0.520492
-0.524053
-0.528826
-0.534292
-0.539846
-0.544524
-0.547069
-0.545965
-0.539617
-0.526637
-0.506189
-0.47821
-0.443494
-0.403545
-0.360288
-0.31569
-0.271533
-0.229154
-0.18953
-0.153191
-0.120535
-0.0917486
-0.525706
-0.525155
-0.526052
-0.528184
-0.531267
-0.534966
-0.538543
-0.54102
-0.5411
-0.537278
-0.52809
-0.512465
-0.49001
-0.461143
-0.427016
-0.389255
-0.349612
-0.309691
-0.270758
-0.233674
-0.199027
-0.166993
-0.138102
-0.112204
-0.626969
-0.588714
-0.529093
-0.454272
-0.377218
-0.310789
-0.263173
-0.236461
-0.228132
-0.234237
-0.254587
-0.291957
-0.342915
-0.391535
-0.415721
-0.398842
-0.344957
-0.276272
-0.214463
-0.169689
-0.141856
-0.128656
-0.12737
-0.13824
-0.166253
-0.21189
-0.260045
-0.284788
-0.267517
-0.220518
-0.169554
-0.13213
-0.111379
-0.105875
-0.118152
-0.14956
-0.185597
-0.200909
-0.181198
-0.144042
-0.109476
-0.0873977
-0.0787511
-0.0818545
-0.0871083
-0.0863182
-0.0781178
-0.0683982
-0.0603478
-0.0594057
-0.0619212
-0.0625253
-0.0545368
-0.0460565
-0.0354766
-0.0332221
-0.0244159
-0.019699
-0.00881154
-0.00661999
-0.532095
-0.502219
-0.44825
-0.3864
-0.323555
-0.271311
-0.236374
-0.219847
-0.218734
-0.230147
-0.255383
-0.297049
-0.350742
-0.400351
-0.424838
-0.407642
-0.352662
-0.282073
-0.217918
-0.170653
-0.139908
-0.123411
-0.11859
-0.124811
-0.146291
-0.184048
-0.225787
-0.247735
-0.233518
-0.194072
-0.151699
-0.121696
-0.107109
-0.10777
-0.127241
-0.166249
-0.208781
-0.227225
-0.204896
-0.161118
-0.11853
-0.0894776
-0.0745887
-0.071902
-0.0725066
-0.070342
-0.0642558
-0.0586259
-0.0566977
-0.0619466
-0.0701088
-0.0733713
-0.0641735
-0.0520877
-0.0336819
-0.0254411
-0.0127232
-0.00873912
-0.00707782
-0.00835659
-0.412663
-0.39082
-0.346651
-0.303299
-0.256071
-0.21973
-0.19812
-0.191339
-0.196402
-0.211848
-0.240157
-0.284117
-0.339384
-0.390417
-0.416643
-0.401958
-0.34883
-0.278951
-0.215168
-0.167501
-0.135175
-0.115792
-0.107466
-0.109216
-0.124118
-0.153799
-0.188869
-0.208841
-0.198018
-0.166203
-0.132057
-0.108874
-0.100136
-0.106909
-0.133421
-0.179388
-0.227727
-0.249684
-0.226044
-0.176549
-0.126287
-0.0906443
-0.0702654
-0.062584
-0.0590121
-0.0552751
-0.0506795
-0.0487056
-0.0528231
-0.0642324
-0.0779486
-0.0838165
-0.0733314
-0.0578241
-0.0319499
-0.0177326
-0.00131674
0.00207333
-0.00540271
-0.0100573
-0.287655
-0.26913
-0.236588
-0.213186
-0.1805
-0.159899
-0.150079
-0.151197
-0.161205
-0.179965
-0.210936
-0.256929
-0.313354
-0.365774
-0.394123
-0.382549
-0.333393
-0.267417
-0.206614
-0.16037
-0.127987
-0.106911
-0.095348
-0.0927251
-0.101377
-0.123334
-0.151737
-0.169802
-0.162506
-0.138094
-0.111284
-0.094038
-0.0904185
-0.102482
-0.135031
-0.18726
-0.241099
-0.266857
-0.24338
-0.189707
-0.132583
-0.0908671
-0.0657933
-0.0540011
-0.0467882
-0.0412436
-0.0375459
-0.0386908
-0.0486492
-0.0661139
-0.0853146
-0.0937193
-0.0818531
-0.063147
-0.0303377
-0.0102446
0.00958741
0.0126324
-0.0036949
-0.0116536
-0.162669
-0.151302
-0.126461
-0.115003
-0.0979528
-0.0926894
-0.0927543
-0.100981
-0.116307
-0.139704
-0.17471
-0.223059
-0.279664
-0.332013
-0.361836
-0.353567
-0.309591
-0.249768
-0.193898
-0.150275
-0.118794
-0.0971405
-0.0835503
-0.0770679
-0.0797137
-0.0942457
-0.116164
-0.132137
-0.127808
-0.110568
-0.0901119
-0.0776663
-0.0780978
-0.0943134
-0.131559
-0.189049
-0.247688
-0.277497
-0.25596
-0.200146
-0.137465
-0.0903088
-0.0612565
-0.0461635
-0.0359286
-0.0283861
-0.0249977
-0.0285735
-0.0440594
-0.0674871
-0.0920922
-0.102951
-0.089617
-0.0679671
-0.0289085
-0.0031103
0.0197958
0.0228511
-0.00188575
-0.0130832
-0.0590404
-0.0437097
-0.0222538
-0.0198528
-0.0155382
-0.0208002
-0.0290887
-0.0445327
-0.0668255
-0.0971541
-0.137598
-0.188082
-0.243656
-0.294259
-0.323856
-0.318113
-0.279954
-0.227705
-0.178226
-0.138324
-0.108349
-0.0868112
-0.0720976
-0.0632235
-0.060884
-0.0684342
-0.0839164
-0.097347
-0.0948467
-0.0846763
-0.0694204
-0.0605778
-0.063871
-0.0828925
-0.123371
-0.184669
-0.247374
-0.281176
-0.263273
-0.207381
-0.140887
-0.0891102
-0.0567615
-0.0390808
-0.0264993
-0.0168372
-0.0132128
-0.0184708
-0.039025
-0.0682027
-0.0981503
-0.111415
-0.0965042
-0.0721886
-0.0277154
0.00354543
0.0291425
0.0326423
7.12935e-05
-0.0142902
0.00132823
0.0275814
0.0414889
0.0508533
0.05149
0.0434432
0.0301923
0.00948245
-0.0194149
-0.0568187
-0.102215
-0.15363
-0.207022
-0.254743
-0.282622
-0.278829
-0.247096
-0.203332
-0.160998
-0.125564
-0.0976474
-0.0765796
-0.0613114
-0.0508467
-0.0452752
-0.0469247
-0.0562111
-0.0668618
-0.0636043
-0.0613937
-0.0501081
-0.0437439
-0.0486951
-0.0692471
-0.110878
-0.173971
-0.240035
-0.277584
-0.264903
-0.210922
-0.142789
-0.087458
-0.0524132
-0.0327157
-0.0185057
-0.00672409
-0.00242611
-0.00847283
-0.0334649
-0.0682318
-0.103466
-0.119047
-0.102431
-0.0757278
-0.0267701
0.00961764
0.0374897
0.0419104
0.0022014
-0.015227
0.0137404
0.0505142
0.0782747
0.0903285
0.0915617
0.084985
0.0715696
0.0498989
0.0184205
-0.0224155
-0.0697808
-0.120238
-0.170408
-0.214671
-0.239561
-0.237506
-0.212747
-0.178
-0.143181
-0.112619
-0.0872563
-0.0670367
-0.0515464
-0.040076
-0.0322864
-0.0295404
-0.033524
-0.0423338
-0.0551126
-0.0420523
-0.0328822
-0.0281195
-0.0336261
-0.0541134
-0.0954002
-0.158183
-0.225493
-0.267281
-0.260065
-0.210186
-0.142964
-0.0854641
-0.0482974
-0.0270004
-0.0118708
0.00186704
0.00719153
0.00117354
-0.0274709
-0.0673988
-0.10789
-0.12575
-0.107308
-0.0785071
-0.0260374
0.0150407
0.044736
0.0505463
0.00451595
-0.0158544
-0.00754544
0.0316008
0.0711715
0.0917271
0.0998234
0.0991758
0.0904411
0.0724889
0.0436624
0.00456643
-0.0408615
-0.0880396
-0.133994
-0.173519
-0.19563
-0.195995
-0.178721
-0.152941
-0.125511
-0.0998902
-0.0773709
-0.0584033
-0.0430323
-0.0309583
-0.0218242
-0.0160414
-0.0155879
-0.0208291
-0.0293111
-0.0238495
-0.0179071
-0.0143157
-0.0194561
-0.0388225
-0.0778099
-0.138037
-0.205779
-0.250968
-0.252643
-0.205802
-0.141266
-0.0831277
-0.0444264
-0.0218643
-0.00642301
0.00891493
0.0154392
0.0104237
-0.020831
-0.0658268
-0.111543
-0.131502
-0.111129
-0.0804805
-0.0255123
0.0197752
0.050817
0.0584641
0.00700607
-0.0161493
-0.0410635
-0.0061071
0.0317285
0.0621193
0.0805998
0.0883852
0.0869096
0.0758434
0.0547884
0.022613
-0.0167603
-0.0582495
-0.0983423
-0.13197
-0.151524
-0.15547
-0.14594
-0.128735
-0.108389
-0.0876965
-0.0682413
-0.0508868
-0.0360501
-0.0237625
-0.0138777
-0.00628465
-0.00241459
-0.00374523
-0.00920388
-0.00827347
-0.00545082
-0.00274258
-0.00711766
-0.0244058
-0.0599992
-0.116693
-0.181359
-0.229062
-0.235691
-0.196157
-0.137431
-0.0806248
-0.0409622
-0.0174017
-0.00210638
0.0144274
0.0222186
0.0188615
-0.0138998
-0.0632193
-0.114003
-0.136133
-0.113748
-0.0816339
-0.0253053
0.0237137
0.0557049
0.0655583
0.00965764
-0.0160981
-0.0675961
-0.0358948
0.00165182
0.0301547
0.0525952
0.0663457
0.0728411
0.0707206
0.0584227
0.0368221
0.00591502
-0.0292999
-0.0637891
-0.0971994
-0.112307
-0.120683
-0.118267
-0.10834
-0.0939874
-0.0776573
-0.0611037
-0.045454
-0.0313531
-0.0190759
-0.00872335
-7.27845e-05
0.00615793
0.00828003
0.00563315
0.00630195
0.00496505
0.00657196
0.00316432
-0.0112238
-0.0421825
-0.0935851
-0.156103
-0.204951
-0.216089
-0.185874
-0.132909
-0.0788386
-0.0385098
-0.0138261
0.0011903
0.0181883
0.0288259
0.0268672
-0.00620003
-0.0598298
-0.115916
-0.139735
-0.115384
-0.0820262
-0.0252989
0.0267646
0.0593141
0.0718036
0.0124342
-0.015714
-0.0912768
-0.0694008
-0.0451448
-0.0115013
0.0157153
0.0354494
0.0479208
0.0528726
0.0505364
0.0400235
0.0221344
-0.00143159
-0.0269977
-0.0475881
-0.0717968
-0.0829415
-0.0869211
-0.0843644
-0.076537
-0.0653083
-0.0523247
-0.0389402
-0.0260791
-0.0142682
-0.00397193
0.00507
0.0127846
0.0173658
0.0162832
0.00972683
0.012232
0.0136236
0.010624
-0.00170019
-0.0272891
-0.0719426
-0.129498
-0.176082
-0.18895
-0.168907
-0.124053
-0.075004
-0.0355946
-0.0101942
0.00481566
0.0212271
0.0320432
0.0330282
0.00147126
-0.0551721
-0.115947
-0.141772
-0.115627
-0.0812008
-0.0242952
0.0295519
0.061801
0.0770222
0.0153128
-0.015004
-0.0885396
-0.0727404
-0.0494854
-0.0227834
0.00137923
0.0199875
0.0328164
0.0402429
0.041429
0.0351751
0.0218771
0.00346193
-0.0169099
-0.0354978
-0.0530929
-0.0637661
-0.0681313
-0.0666857
-0.06052
-0.0512002
-0.0401458
-0.0284813
-0.017039
-0.00620757
0.00343415
0.0119254
0.0196519
0.025445
0.0264837
0.0219037
0.019634
0.0195382
0.0181584
0.00975266
-0.0105397
-0.0503364
-0.104921
-0.151881
-0.169536
-0.154765
-0.111784
-0.0659487
-0.0289664
-0.00496274
0.00930082
0.0251229
0.0366911
0.0398735
0.0102664
-0.0491756
-0.11555
-0.14383
-0.114528
-0.0784346
-0.0218561
0.0325481
0.0638466
0.0812602
0.0182307
-0.0141084
-0.0892937
-0.0740206
-0.0513285
-0.028263
-0.0077495
0.00874251
0.0208964
0.0284227
0.0304969
0.0266617
0.0174559
0.0042394
-0.0107596
-0.0249944
-0.0381566
-0.0468509
-0.0505823
-0.0497772
-0.0451447
-0.0378133
-0.0288281
-0.0189871
-0.0090469
0.000634603
0.00953617
0.0175425
0.0247821
0.0303842
0.0315747
0.027441
0.0240277
0.0232206
0.0219298
0.0152469
-0.00101782
-0.0348691
-0.0848068
-0.130651
-0.148569
-0.135107
-0.0972589
-0.0562438
-0.0226991
-0.000169281
0.0132763
0.0282985
0.0394482
0.0440912
0.016552
-0.0444792
-0.114925
-0.144649
-0.111372
-0.0742001
-0.0192716
0.0350034
0.0651742
0.0840175
0.0208132
-0.0130533
-0.0867542
-0.0728474
-0.0537664
-0.0337098
-0.0157115
-0.000972452
0.010133
0.0172928
0.0201578
0.0185962
0.0129942
0.00425229
-0.00619613
-0.0167746
-0.0263958
-0.0332225
-0.0365512
-0.0363905
-0.0330407
-0.0272136
-0.0197201
-0.0112045
-0.00239965
0.00635205
0.0145686
0.0220075
0.0287487
0.034322
0.0359983
0.0325299
0.0278108
0.0258788
0.0242681
0.0178679
0.00364498
-0.0256278
-0.0688068
-0.107869
-0.124403
-0.114788
-0.08266
-0.046723
-0.0166919
0.00415357
0.0166768
0.0309218
0.0417722
0.0470207
0.020774
-0.0415026
-0.1137
-0.1436
-0.106808
-0.0688879
-0.0164709
0.0370416
0.0657879
0.0855248
0.0230397
-0.0117148
-0.0800196
-0.0707197
-0.0552864
-0.0378961
-0.022027
-0.00893743
0.00113382
0.00807726
0.0117238
0.0119764
0.00906388
0.00359946
-0.00334179
-0.0108733
-0.0177625
-0.0228811
-0.0254536
-0.025303
-0.0225284
-0.0176434
-0.011321
-0.00400935
0.00369132
0.0114485
0.018873
0.025695
0.0317609
0.0368494
0.0387374
0.0357713
0.0304025
0.02779
0.0262407
0.0202584
0.0072237
-0.017648
-0.0514285
-0.0829762
-0.0996158
-0.0936975
-0.0670428
-0.0365416
-0.0106784
0.00815065
0.0196284
0.0330379
0.0432236
0.0489891
0.0240374
-0.038237
-0.110538
-0.140396
-0.100705
-0.0623343
-0.0130944
0.0386952
0.0655966
0.0857462
0.0250494
-0.0100373
-0.074103
-0.0678177
-0.0553073
-0.0404114
-0.0265098
-0.0148928
-0.00575047
0.00091014
0.00500924
0.00648348
0.00549718
0.00249528
-0.00180359
-0.00665431
-0.0112417
-0.0146932
-0.0163622
-0.0160469
-0.0137328
-0.00968208
-0.00435688
0.001931
0.00869639
0.0156307
0.0223261
0.0285566
0.0340293
0.0384948
0.0403229
0.0381095
0.0323949
0.0292098
0.0277527
0.0222862
0.0109353
-0.00804219
-0.0323014
-0.0579154
-0.0745756
-0.0725261
-0.0514943
-0.026422
-0.00488854
0.0117496
0.022033
0.0346422
0.0437542
0.0498376
0.0270409
-0.0334685
-0.104671
-0.134247
-0.0928479
-0.0546762
-0.00920425
0.0399138
0.0645775
0.0846139
0.0269571
-0.00802908
-0.068033
-0.0636568
-0.0536742
-0.0412088
-0.0292234
-0.01899
-0.0107473
-0.00448112
-0.000198945
0.00208478
0.00250438
0.00137286
-0.000867724
-0.0036243
-0.00634181
-0.00840004
-0.00927747
-0.00871997
-0.00660648
-0.00304946
0.0015996
0.00710363
0.0130529
0.0191967
0.0251198
0.0306694
0.0355579
0.0394209
0.0409636
0.0383222
0.033849
0.030554
0.0291091
0.0242138
0.0148
0.00176176
-0.0140386
-0.0339361
-0.0504571
-0.0522122
-0.0364121
-0.0163851
0.000733795
0.0150041
0.0239398
0.0357294
0.0434599
0.0495078
0.029923
-0.0270973
-0.0955144
-0.124398
-0.0831927
-0.0461493
-0.00474869
0.0407091
0.0627715
0.082071
0.0286957
-0.00575255
-0.0610802
-0.0583685
-0.0507692
-0.0405921
-0.030394
-0.0214458
-0.0140695
-0.00826606
-0.00398628
-0.00120079
0.000194276
0.000406424
-0.000292656
-0.00147279
-0.00273215
-0.00362579
-0.00373234
-0.00281039
-0.000734997
0.00245656
0.00651936
0.0113153
0.0165142
0.0219511
0.0272198
0.0321346
0.0364746
0.0398572
0.0411827
0.0393188
0.0352312
0.0321407
0.0305726
0.0261951
0.0181849
0.0101843
0.00224106
-0.0122477
-0.0285765
-0.0335271
-0.0224359
-0.00693045
0.00605901
0.0179279
0.0254518
0.0363546
0.0426145
0.0479211
0.0322492
-0.019354
-0.0825855
-0.110189
-0.0717557
-0.0371426
0.000128249
0.0410862
0.0602604
0.078105
0.0300953
-0.0032924
-0.0535913
-0.0525554
-0.0470206
-0.0388037
-0.0301959
-0.0224463
-0.0159174
-0.0106179
-0.00647583
-0.00343799
-0.00141679
-0.000307973
0.000120017
0.000123532
5.96268e-07
5.91346e-05
0.000606629
0.00184436
0.00390619
0.00683346
0.0104636
0.014721
0.0193189
0.0241183
0.0287837
0.0330998
0.0369024
0.0398951
0.0410955
0.0398228
0.0365615
0.0338915
0.0328092
0.0290888
0.022894
0.0191561
0.0167705
0.00552002
-0.0104581
-0.0172898
-0.00998615
0.00171174
0.0110907
0.0205883
0.0267201
0.0365919
0.0415432
0.0453113
0.0337985
-0.0103412
-0.0658056
-0.0914242
-0.0587288
-0.0281262
0.0052108
0.0410934
0.0571573
0.0728042
0.0310244
-0.000734303
-0.0465467
-0.0466107
-0.0426076
-0.0360233
-0.0288446
-0.0222154
-0.0165016
-0.0117287
-0.00782646
-0.00473241
-0.00237701
-0.000657961
0.000544139
0.00140159
0.00211052
0.00287741
0.00393101
0.00545006
0.00755892
0.0103233
0.0136223
0.0174127
0.0214745
0.0256884
0.0298149
0.0336242
0.0369536
0.0396164
0.0407774
0.0400122
0.0377101
0.0356645
0.0352484
0.0334787
0.0302106
0.0295457
0.0289889
0.0185596
0.00372437
-0.00356426
0.000763067
0.00925182
0.015731
0.0230229
0.0279009
0.0365619
0.0405282
0.0423732
0.0347705
-0.00041669
-0.0460298
-0.0688494
-0.0445277
-0.0195357
0.0101846
0.0407927
0.0536182
0.0664366
0.0314455
0.00183856
-0.0399047
-0.0404943
-0.0376682
-0.0324964
-0.0265969
-0.0209881
-0.0160404
-0.0118014
-0.00820655
-0.00518791
-0.00267923
-0.000618528
0.00107341
0.00249652
0.00377824
0.00506031
0.00650886
0.00826132
0.0104124
0.0130338
0.0160523
0.0194479
0.0230658
0.0267845
0.0304364
0.0338118
0.036738
0.0391145
0.0402926
0.0399894
0.0386172
0.037312
0.0375286
0.0376767
0.0373657
0.0383577
0.0375507
0.0277356
0.0148391
0.00775348
0.00970466
0.0155535
0.0199068
0.0252149
0.0290961
0.0364483
0.0397041
0.0400562
0.0354366
0.00945241
-0.0253543
-0.0444888
-0.0298597
-0.0117304
0.0147553
0.0403159
0.0498913
0.0594871
0.0314304
0.0043346
-0.0332468
-0.0343373
-0.0325109
-0.0285117
-0.0236966
-0.0189857
-0.0147439
-0.0110299
-0.0077834
-0.00493072
-0.00242228
-0.00021024
0.001752
0.00352181
0.00517922
0.00681175
0.00852886
0.0104305
0.012596
0.0150949
0.017888
0.0209564
0.0241934
0.0274854
0.0307155
0.0337188
0.0363203
0.0384633
0.0396927
0.0398088
0.0392323
0.0386866
0.0394175
0.0407521
0.0419366
0.0431862
0.0421419
0.0339271
0.0232967
0.0166895
0.0168353
0.0205919
0.0235182
0.027119
0.0302775
0.0363706
0.0390934
0.0389682
0.0359294
0.0178551
-0.00655246
-0.0211895
-0.0156156
-0.0047613
0.0186743
0.0398496
0.0463609
0.052702
0.0312346
0.00665819
-0.0269614
-0.0284324
-0.0273307
-0.024245
-0.0203327
-0.0164083
-0.0128106
-0.00959797
-0.0067213
-0.0040985
-0.00169014
0.000536517
0.00260987
0.00455812
0.00642498
0.00825713
0.0101281
0.01211
0.0142667
0.0166508
0.0192443
0.0220282
0.0249332
0.0278639
0.0307308
0.033417
0.035759
0.0377188
0.0390105
0.0394884
0.0395137
0.0396032
0.0405998
0.0423009
0.0438958
0.0448476
0.0437976
0.0375893
0.0291409
0.0226251
0.0222621
0.0244894
0.0264711
0.028751
0.0313772
0.0363249
0.0386226
0.0388162
0.0360428
0.0236376
0.00810419
-0.00191549
-0.00286569
0.00151156
0.0217336
0.0394916
0.043504
0.0469872
0.0313372
0.00870747
-0.0212081
-0.0227879
-0.0221863
-0.0198353
-0.0166878
-0.013448
-0.0104232
-0.00767156
-0.00514676
-0.00279591
-0.000559681
0.00158309
0.0036477
0.00564161
0.00758633
0.00950252
0.0114383
0.0134382
0.0155504
0.0178117
0.0202187
0.0227546
0.0253708
0.0279949
0.0305519
0.0329648
0.0350959
0.0369134
0.0382525
0.0390195
0.0394588
0.0399976
0.0410767
0.042695
0.0442251
0.0447966
0.0437591
0.0392798
0.0328597
0.0274541
0.0263585
0.0274493
0.0287196
0.0301344
0.0322807
0.0362067
0.0381488
0.0388312
0.0356134
0.0266179
0.0177438
0.0115199
0.00730396
0.00720135
0.0239661
0.0391406
0.0415977
0.0431237
0.0321695
0.0103682
-0.0157911
-0.0174096
-0.0171909
-0.0154309
-0.0129167
-0.0102572
-0.00773232
-0.00540196
-0.00322657
-0.00114751
0.000880788
0.00287551
0.00484693
0.0067922
0.00872008
0.0106321
0.0125564
0.0145162
0.0165488
0.0186782
0.0209072
0.0232212
0.0255827
0.0279427
0.0302341
0.0324093
0.0343625
0.0360682
0.0374232
0.0383924
0.039091
0.0398944
0.0409565
0.0423196
0.0436005
0.0438866
0.0428993
0.0396973
0.0349863
0.0306684
0.0293051
0.0296396
0.0303317
0.031265
0.0329487
0.0359488
0.0375732
0.0385931
0.0353636
0.028491
0.0235688
0.0193577
0.0144911
0.0123099
0.0254905
0.0385553
0.0404816
0.0408229
0.0332047
0.0114571
-0.0107801
-0.0123867
-0.0124281
-0.0111206
-0.00911998
-0.00694972
-0.00486062
-0.00290901
-0.00105746
0.000749075
0.00254965
0.00435851
0.0061837
0.0080168
0.00985862
0.0116984
0.0135513
0.0154259
0.01735
0.0193372
0.0213911
0.0235009
0.0256346
0.0277614
0.0298227
0.0317918
0.033585
0.0351909
0.0365293
0.0376175
0.0384626
0.0393809
0.0403792
0.0414684
0.0424609
0.0425792
0.0416987
0.0393922
0.0360195
0.0326766
0.031301
0.0311887
0.0314385
0.0321129
0.0333754
0.0355729
0.0368573
0.0381508
0.0352385
0.0300664
0.0272155
0.0236926
0.0192888
0.0166365
0.0263847
0.037353
0.0393265
0.0385689
0.0329307
0.0117216
-0.00618696
-0.00770987
-0.00791873
-0.00696404
-0.00538549
-0.00362969
-0.00191663
-0.000297214
0.001261
0.00280663
0.00437585
0.00598094
0.00762853
0.00930808
0.0110166
0.0127373
0.0144761
0.016232
0.0180237
0.0198584
0.0217381
0.0236554
0.0255816
0.0274989
0.029356
0.0311427
0.0327868
0.034293
0.0355862
0.0367203
0.0376349
0.0385679
0.0394819
0.0403432
0.0410822
0.0411169
0.0403839
0.0387095
0.0363287
0.033814
0.032548
0.0322053
0.0321577
0.0326563
0.0335731
0.0350984
0.035947
0.0364409
0.034881
0.031052
0.0292199
0.0261545
0.0224207
0.0199492
0.0267629
0.0354979
0.0373905
0.0354994
0.0303637
0.011111
-0.00195964
-0.00338055
-0.00370159
-0.00302131
-0.00178588
-0.000375517
0.0010194
0.00235178
0.00364794
0.00495153
0.00629667
0.00769393
0.00914924
0.0106528
0.0121999
0.0137715
0.0153671
0.0169802
0.0186222
0.0202964
0.0220025
0.0237355
0.0254691
0.027195
0.0288664
0.0304854
0.0319874
0.0333907
0.034618
0.0357375
0.0366666
0.0375609
0.0383862
0.0390764
0.0396243
0.0396306
0.0390582
0.0378429
0.0361719
0.034324
0.0332197
0.0327816
0.0325711
0.0329082
0.0335412
0.0345544
0.0350556
0.0355569
0.0343079
0.031346
0.0299282
0.0274796
0.0244619
0.0221647
0.0264943
0.0331656
0.0346653
0.0319759
0.0265002
0.00995049
0.00188875
0.000586932
0.000204958
0.000677734
0.00163719
0.0027624
0.00388902
0.0049737
0.00603827
0.00712221
0.00825731
0.00945281
0.0107139
0.012033
0.0134047
0.0148106
0.0162458
0.0177015
0.0191833
0.0206922
0.0222258
0.0237813
0.0253337
0.0268809
0.0283802
0.0298411
0.0312057
0.0324992
0.0336494
0.0347123
0.0356187
0.0364484
0.0371886
0.0377592
0.0381776
0.0381879
0.0377667
0.0368938
0.0357215
0.0343848
0.0334592
0.0330038
0.0327239
0.0329043
0.0332939
0.0339382
0.0341598
0.0344864
0.0335347
0.0311626
0.0298429
0.0279899
0.0255485
0.0234391
0.0260764
0.0307232
0.0314908
0.0284685
0.022576
0.00861057
0.0053803
0.00421152
0.0038042
0.00411947
0.00485627
0.00574439
0.00664347
0.00751619
0.00838024
0.00926926
0.0102128
0.0112194
0.0122931
0.0134289
0.0146221
0.0158562
0.0171237
0.0184153
0.0197323
0.021075
0.0224388
0.0238223
0.0252028
0.0265807
0.0279187
0.0292285
0.0304597
0.0316363
0.0326996
0.0336848
0.0345426
0.0353003
0.0359617
0.0364514
0.0367887
0.0368201
0.0365293
0.0359136
0.0350902
0.034131
0.0333783
0.032946
0.0326458
0.0326888
0.0328719
0.0332481
0.0332568
0.0333424
0.0326105
0.0306892
0.0293604
0.0279143
0.0259137
0.0240136
0.02536
0.0283283
0.0284084
0.0251307
0.0190773
0.00731114
0.00854632
0.00750868
0.00709767
0.00729318
0.00784973
0.00854084
0.0092485
0.00994261
0.0106345
0.0113546
0.0121265
0.0129607
0.0138601
0.0148212
0.0158404
0.0169045
0.0180046
0.0191321
0.0202851
0.0214635
0.0226618
0.0238795
0.0250963
0.0263132
0.0274985
0.0286624
0.0297644
0.0308213
0.0317894
0.0326854
0.033478
0.0341656
0.0347563
0.0351907
0.0354801
0.0355381
0.0353534
0.0349298
0.0343521
0.0336631
0.0330534
0.0326716
0.0323712
0.032305
0.0323239
0.0324899
0.0323477
0.0322016
0.0315856
0.0300333
0.0286898
0.0274485
0.0257911
0.0240774
0.0244329
0.0260398
0.0255089
0.0220567
0.0161071
0.006151
0.0114029
0.0104904
0.0100908
0.0101962
0.010608
0.0111388
0.0116882
0.0122319
0.0127807
0.0133537
0.0139723
0.0146504
0.0153912
0.0161908
0.0170462
0.0179476
0.0188863
0.0198544
0.0208483
0.0218678
0.0229072
0.0239662
0.0250274
0.0260911
0.0271313
0.0281549
0.0291314
0.0300697
0.0309382
0.031741
0.0324592
0.0330799
0.0336072
0.0340001
0.0342609
0.0343438
0.0342417
0.033959
0.0335539
0.0330584
0.0325854
0.0322376
0.0319432
0.0317901
0.0316842
0.031676
0.0314365
0.0311063
0.0305104
0.0292486
0.0279245
0.0267488
0.0253304
0.0237584
0.0233681
0.0238969
0.0228564
0.0193091
0.0136395
0.005163
0.0139663
0.0131727
0.0127958
0.012836
0.0131325
0.0135319
0.0139496
0.0143649
0.01479
0.0152395
0.0157287
0.0162684
0.0168665
0.0175204
0.018226
0.018976
0.0197629
0.0205799
0.021423
0.0222916
0.0231805
0.024089
0.0250032
0.0259217
0.0268245
0.0277146
0.0285694
0.029392
0.0301596
0.0308678
0.0315096
0.0320656
0.0325353
0.0328925
0.0331334
0.0332353
0.0331931
0.0330112
0.0327267
0.0323671
0.0319931
0.031682
0.0313799
0.0311764
0.0309811
0.0308238
0.0305112
0.0300626
0.0294302
0.0283669
0.0271012
0.0259208
0.0246318
0.0231553
0.0222245
0.0219164
0.0204798
0.0169218
0.0116152
0.00434519
0.0162612
0.0155783
0.01523
0.0152222
0.015426
0.0157167
0.0160259
0.0163354
0.0166552
0.017001
0.0173808
0.0178017
0.018272
0.0187949
0.0193662
0.0199788
0.0206262
0.0213032
0.022006
0.0227337
0.0234818
0.0242495
0.0250257
0.0258081
0.0265811
0.0273448
0.0280829
0.028795
0.0294645
0.0300849
0.0306456
0.0311365
0.0315512
0.0318737
0.0320966
0.0322091
0.0322062
0.0320933
0.0318917
0.0316246
0.0313214
0.0310373
0.0307468
0.0304908
0.0302296
0.0299594
0.0295771
0.0290577
0.0283738
0.0274197
0.0262312
0.0250256
0.023773
0.0223515
0.0210537
0.020113
0.0183839
0.0148901
0.00996796
0.00367911
0.0183102
0.0177258
0.0174074
0.0173642
0.0174942
0.017697
0.0179168
0.0181394
0.0183715
0.0186262
0.0189137
0.0192366
0.0195984
0.0200044
0.0204552
0.020945
0.021467
0.0220168
0.022591
0.0231892
0.0238076
0.0244451
0.0250931
0.0257488
0.0264001
0.0270453
0.0276725
0.0282793
0.0288528
0.0293873
0.0298708
0.0302975
0.0306585
0.030945
0.0311475
0.0312611
0.0312806
0.031211
0.031063
0.0308547
0.0306003
0.0303332
0.0300466
0.0297539
0.0294402
0.0290907
0.0286451
0.0280781
0.0273523
0.0264402
0.0253189
0.0240965
0.0228211
0.0214181
0.0198929
0.0184892
0.0165494
0.0131801
0.00863645
0.00314194
0.0201284
0.0196315
0.0193439
0.019276
0.0193477
0.0194791
0.0196258
0.0197762
0.0199363
0.0201156
0.0203218
0.0205603
0.0208329
0.0211411
0.0214857
0.0218657
0.0222759
0.0227119
0.0231704
0.0236512
0.0241515
0.0246701
0.0252005
0.0257394
0.0262778
0.0268129
0.0273358
0.0278431
0.0283225
0.0287749
0.0291849
0.0295487
0.0298569
0.0301047
0.0302825
0.0303878
0.0304152
0.0303683
0.0302516
0.0300772
0.0298523
0.0295948
0.0293053
0.0289857
0.0286293
0.028223
0.0277247
0.0271178
0.0263644
0.0254569
0.0243747
0.0231527
0.0218309
0.0204134
0.0187631
0.0170412
0.0149543
0.011748
0.00756539
0.00271202
0.0217357
0.0213158
0.0210577
0.0209723
0.0209976
0.0210711
0.021158
0.0212493
0.0213497
0.0214666
0.0216059
0.0217711
0.0219657
0.0221918
0.0224492
0.0227343
0.0230456
0.0233803
0.0237358
0.0241117
0.0245059
0.0249173
0.0253408
0.0257736
0.0262082
0.0266422
0.0270683
0.0274838
0.0278795
0.0282491
0.0285868
0.028888
0.0291434
0.0293495
0.0294978
0.0295862
0.0296094
0.0295691
0.029466
0.0293076
0.0290965
0.028842
0.0285448
0.0282041
0.0278133