/*--------------------------------*- C++ -*----------------------------------*\
| =========                 |                                                 |
| \\      /  F ield         | OpenFOAM: The Open Source CFD Toolbox           |
|  \\    /   O peration     | Version:  2312                                  |
|   \\  /    A nd           | Website:  www.openfoam.com                      |
|    \\/     M anipulation  |                                                 |
\*---------------------------------------------------------------------------*/
FoamFile
{
    version     2.0;
    format      ascii;
    arch        "LSB;label=32;scalar=64";
    class       volScalarField;
    location    "137.55";
    object      p;
}
// * * * * * * * * * * * * * * * * * * * * * * * * * * * * * * * * * * * * * //

dimensions      [0 2 -2 0 0 0 0];

internalField   nonuniform List<scalar> 
5478
(
-0.33167
-0.331561
-0.327412
-0.319903
-0.310133
-0.299192
-0.288731
-0.279933
-0.273136
-0.26755
-0.262011
-0.254276
-0.244919
-0.232141
-0.21689
-0.340197
-0.338597
-0.334365
-0.327681
-0.318486
-0.306964
-0.294125
-0.281186
-0.268734
-0.256761
-0.244762
-0.232715
-0.220339
-0.20639
-0.191881
-0.352581
-0.348551
-0.343035
-0.335742
-0.325338
-0.311267
-0.294745
-0.277458
-0.260617
-0.244703
-0.229825
-0.215435
-0.20094
-0.186214
-0.171462
-0.368798
-0.361825
-0.354143
-0.34466
-0.330619
-0.312182
-0.291552
-0.270833
-0.251169
-0.232938
-0.215866
-0.199763
-0.184477
-0.169663
-0.155673
-0.390274
-0.379472
-0.369198
-0.354919
-0.334592
-0.310646
-0.28606
-0.262537
-0.240767
-0.220811
-0.202581
-0.185778
-0.169897
-0.155052
-0.140802
-0.418118
-0.401652
-0.387242
-0.364998
-0.336526
-0.306751
-0.27842
-0.252482
-0.229058
-0.207986
-0.188905
-0.171498
-0.1556
-0.140908
-0.12696
-0.449775
-0.427547
-0.404385
-0.371516
-0.33462
-0.299386
-0.267667
-0.239594
-0.214812
-0.192867
-0.173393
-0.156029
-0.140362
-0.126207
-0.11284
-0.478311
-0.452226
-0.416156
-0.371292
-0.326676
-0.286751
-0.252199
-0.222466
-0.196776
-0.174472
-0.155004
-0.137954
-0.123041
-0.109831
-0.0978249
-0.429533
-0.431999
-0.433313
-0.435637
-0.439137
-0.443436
-0.447983
-0.452233
-0.455973
-0.459627
-0.464413
-0.472251
-0.484668
-0.502183
-0.517576
-0.404235
-0.404696
-0.403454
-0.402307
-0.401664
-0.401601
-0.402324
-0.40431
-0.408435
-0.416023
-0.42863
-0.447204
-0.472727
-0.503547
-0.533022
-0.384474
-0.383215
-0.380202
-0.376545
-0.372864
-0.369633
-0.367573
-0.367706
-0.371534
-0.38044
-0.395934
-0.418699
-0.447041
-0.48171
-0.512807
-0.368413
-0.366162
-0.362017
-0.356272
-0.349796
-0.343521
-0.33857
-0.336333
-0.338374
-0.346244
-0.360474
-0.382517
-0.408237
-0.440522
-0.466034
-0.354593
-0.352423
-0.347517
-0.339794
-0.330317
-0.32067
-0.312422
-0.307248
-0.306773
-0.312913
-0.325626
-0.347123
-0.370993
-0.398841
-0.419297
-0.342688
-0.341381
-0.336046
-0.326619
-0.314271
-0.30142
-0.29035
-0.283352
-0.282281
-0.288872
-0.301714
-0.321012
-0.340779
-0.359318
-0.368928
-0.333262
-0.333017
-0.327637
-0.317662
-0.303904
-0.290229
-0.279138
-0.272828
-0.272511
-0.278087
-0.288071
-0.300281
-0.310704
-0.317091
-0.314303
-0.328981
-0.329234
-0.324314
-0.315267
-0.302673
-0.290803
-0.280854
-0.274481
-0.272467
-0.273651
-0.276819
-0.278476
-0.276983
-0.27118
-0.26156
-0.566894
-0.599563
-0.497153
-0.345733
-0.233932
-0.187458
-0.183435
-0.206191
-0.198531
-0.160554
-0.147819
-0.137858
-0.115953
-0.108051
-0.123216
-0.146931
-0.143009
-0.123486
-0.109459
-0.121718
-0.137446
-0.137441
-0.118171
-0.137938
-0.142293
-0.161845
-0.148684
-0.161927
-0.11962
-0.0893155
-0.0299974
-0.0210537
-0.0171849
-0.0109837
-0.00657292
-0.00444348
-0.00241561
-0.000699063
-0.588887
-0.617497
-0.516896
-0.359029
-0.234487
-0.177983
-0.156149
-0.161268
-0.144868
-0.137136
-0.142697
-0.13632
-0.117587
-0.110359
-0.124809
-0.146419
-0.140788
-0.126507
-0.117109
-0.131444
-0.147754
-0.139247
-0.105878
-0.125743
-0.129006
-0.163202
-0.169406
-0.172095
-0.110514
-0.0839998
-0.0321078
-0.0220914
-0.0166991
-0.0107591
-0.00663907
-0.00443826
-0.00240477
-0.000703078
-0.5658
-0.590568
-0.50074
-0.352813
-0.230239
-0.170361
-0.140378
-0.128411
-0.0995049
-0.117595
-0.136645
-0.134664
-0.120903
-0.114261
-0.12742
-0.144892
-0.137137
-0.127823
-0.122699
-0.139661
-0.157067
-0.13929
-0.0921095
-0.113456
-0.115404
-0.160243
-0.185331
-0.177582
-0.0992305
-0.0769275
-0.0338646
-0.0229935
-0.0161238
-0.0104956
-0.00669395
-0.00442989
-0.00239083
-0.000705524
-0.493489
-0.531499
-0.45581
-0.329708
-0.221702
-0.163186
-0.133046
-0.111842
-0.0773588
-0.102577
-0.132329
-0.136876
-0.126074
-0.122616
-0.131742
-0.142278
-0.132305
-0.126845
-0.125703
-0.146074
-0.165433
-0.139101
-0.0784607
-0.101621
-0.101963
-0.152986
-0.196438
-0.17983
-0.0870925
-0.06865
-0.0351042
-0.0237271
-0.0155023
-0.0102014
-0.00673145
-0.00441768
-0.00237383
-0.000706139
-0.42928
-0.453543
-0.395915
-0.299771
-0.211972
-0.157234
-0.127876
-0.107643
-0.0780881
-0.0992588
-0.130563
-0.139666
-0.132016
-0.13304
-0.137434
-0.139597
-0.126389
-0.123255
-0.125954
-0.15003
-0.172862
-0.137984
-0.0658717
-0.0902264
-0.0890061
-0.142087
-0.203504
-0.178778
-0.0750906
-0.0594862
-0.0356974
-0.0242376
-0.014865
-0.00988983
-0.006743
-0.00440014
-0.00235364
-0.000704796
-0.35966
-0.372925
-0.335373
-0.269653
-0.201496
-0.152737
-0.123229
-0.104024
-0.0885734
-0.100751
-0.137163
-0.143433
-0.134343
-0.138408
-0.137655
-0.134147
-0.118523
-0.116597
-0.123877
-0.151053
-0.178839
-0.137523
-0.0556537
-0.0794525
-0.0768738
-0.127853
-0.206739
-0.175016
-0.0644083
-0.0501895
-0.0357162
-0.0245283
-0.0142564
-0.00956559
-0.0067361
-0.00437971
-0.00233187
-0.000701834
-0.293771
-0.305015
-0.286946
-0.245398
-0.193072
-0.149039
-0.119435
-0.0983056
-0.0964983
-0.112976
-0.14847
-0.142797
-0.130863
-0.141292
-0.139695
-0.132076
-0.111564
-0.10687
-0.119152
-0.149269
-0.181243
-0.134175
-0.0484092
-0.0697311
-0.0663948
-0.109389
-0.207122
-0.167229
-0.0561115
-0.0405266
-0.035161
-0.0245102
-0.0136896
-0.00925425
-0.00668871
-0.00434951
-0.00230714
-0.000696978
-0.249378
-0.257103
-0.246103
-0.221355
-0.184597
-0.146757
-0.12106
-0.0944612
-0.0889568
-0.113926
-0.16237
-0.136669
-0.127143
-0.130652
-0.128507
-0.123171
-0.103616
-0.094336
-0.111985
-0.142791
-0.18676
-0.13217
-0.0429934
-0.0598119
-0.0565332
-0.0891407
-0.203455
-0.157162
-0.0500799
-0.0313043
-0.0338051
-0.0243233
-0.0132103
-0.0089495
-0.00662551
-0.00432478
-0.00228856
-0.000692353
-0.22332
-0.232552
-0.216078
-0.190258
-0.155692
-0.122218
-0.10018
-0.0788254
-0.0620388
-0.0852231
-0.124707
-0.111044
-0.112948
-0.123358
-0.130913
-0.112444
-0.0920254
-0.0796666
-0.10442
-0.131626
-0.16824
-0.12471
-0.03892
-0.0515585
-0.0499741
-0.0763701
-0.189571
-0.143033
-0.0446535
-0.0240378
-0.0316756
-0.0233354
-0.012596
-0.00857477
-0.00645461
-0.00424274
-0.00224907
-0.000678619
-0.16507
-0.177121
-0.163196
-0.140609
-0.11437
-0.0893185
-0.0728135
-0.0542328
-0.0366482
-0.0494422
-0.0683636
-0.0641939
-0.0818544
-0.109945
-0.093958
-0.0875058
-0.0672522
-0.0562618
-0.0859174
-0.122187
-0.159479
-0.114359
-0.0261517
-0.0408528
-0.0324267
-0.0560035
-0.167045
-0.132006
-0.0290604
-0.0166791
-0.0282496
-0.0221917
-0.0115148
-0.00789221
-0.00617621
-0.00412374
-0.00218781
-0.00065543
-0.128486
-0.14119
-0.133117
-0.11659
-0.0958934
-0.0739534
-0.0556846
-0.0345852
-0.00519947
0.0127298
0.0251972
0.0146974
-0.0357809
-0.0813319
-0.0747202
-0.0629452
-0.0469592
-0.0346831
-0.0544716
-0.0932009
-0.120552
-0.0866606
-0.0123995
-0.0313446
-0.022873
-0.033198
-0.133733
-0.108273
-0.0125929
-0.0110195
-0.0242453
-0.0201455
-0.0103111
-0.00729202
-0.00582132
-0.00397681
-0.00212909
-0.000629956
-0.0990121
-0.107887
-0.101985
-0.087285
-0.0677868
-0.0490288
-0.0323033
-0.0138092
0.0122388
0.0378749
0.054362
0.0562025
0.00283215
-0.0419194
-0.0437153
-0.0341304
-0.0213718
-0.0104773
-0.0201611
-0.0613565
-0.0726404
-0.0479318
-0.00624305
-0.0211283
-0.0111992
-0.00725807
-0.0892576
-0.0735114
-8.57101e-05
-0.00566464
-0.0190844
-0.0174318
-0.00927062
-0.00674412
-0.0053453
-0.00379953
-0.00207937
-0.00059925
-0.0715629
-0.0794334
-0.0764174
-0.0661136
-0.0519138
-0.0370836
-0.0227964
-0.00623301
0.0175859
0.040217
0.0552815
0.0583257
0.024104
-0.00898512
-0.0199168
-0.0143835
-0.00707242
0.00385121
0.0129776
-0.0114074
-0.0214871
-0.0114825
-0.00728193
-0.0154476
-0.00325726
0.0154712
-0.0354175
-0.0295252
0.00900743
0.00010467
-0.0126085
-0.0135135
-0.0083179
-0.00625266
-0.00469764
-0.00357994
-0.00204291
-0.000562502
-0.0514267
-0.058145
-0.0563925
-0.048715
-0.0373177
-0.0249164
-0.0120732
0.00180874
0.0192122
0.0347996
0.0451127
0.048827
0.0304024
0.0105794
-0.00140533
0.00228421
0.00919934
0.014919
0.023834
-0.00108591
-0.000766587
0.00867551
-0.00683489
-0.00670524
0.00527981
0.0307973
0.00649762
0.00668424
0.0140061
0.00579752
-0.00555886
-0.00874581
-0.00751532
-0.00571014
-0.00382277
-0.00331588
-0.00202481
-0.000519523
-0.0358709
-0.0405981
-0.0396227
-0.0341089
-0.0255617
-0.0162596
-0.00645631
0.00389579
0.0159901
0.0276465
0.034743
0.0377417
0.0285788
0.0168843
0.00713178
0.00971568
0.0141111
0.0181671
0.0274582
0.0110789
0.0109408
0.0166491
0.000399766
0.00346963
0.010811
0.0370687
0.029382
0.0235846
0.0147509
0.00886654
-0.000104346
-0.00457677
-0.00662741
-0.00491552
-0.00291469
-0.00302265
-0.00197759
-0.000461381
-0.0227978
-0.026707
-0.0265412
-0.022771
-0.0165894
-0.00972674
-0.00232358
0.00539729
0.013683
0.0217601
0.0268069
0.0292293
0.0250105
0.0197436
0.0143154
0.0155183
0.0196905
0.0206044
0.0261925
0.0171856
0.0144569
0.0181524
0.00882334
0.0120543
0.0144398
0.0332648
0.0275139
0.0226055
0.0142
0.0100231
0.00278189
-0.00177597
-0.00531414
-0.00385811
-0.00215226
-0.002699
-0.0018487
-0.000395278
-0.0130666
-0.0161575
-0.0162679
-0.0137209
-0.00936797
-0.00443345
0.000874601
0.00632995
0.0118673
0.0173969
0.0210409
0.0231654
0.021709
0.0198408
0.0172844
0.0169671
0.0193771
0.0201425
0.0235067
0.0193836
0.0180395
0.0182941
0.0125164
0.0152981
0.0159333
0.0286214
0.0260215
0.0206879
0.014331
0.00975012
0.00407894
0.000145931
-0.0035748
-0.00269973
-0.00151333
-0.0022774
-0.00159634
-0.000321626
-0.00557433
-0.00787952
-0.00816919
-0.00656572
-0.0036354
-0.000224627
0.00345758
0.00721838
0.0109594
0.0146972
0.0173533
0.0192402
0.0191316
0.0187728
0.017997
0.0179417
0.0199994
0.0201391
0.0213365
0.0188855
0.0156921
0.0176337
0.0150854
0.0176628
0.0175772
0.0241909
0.0232459
0.0186959
0.0147381
0.00982404
0.00469844
0.00147282
-0.00181795
-0.00158606
-0.000957461
-0.00175276
-0.00126023
-0.00025335
0.000352937
-0.00145727
-0.00188384
-0.000964246
0.000954662
0.00327176
0.00576089
0.00829029
0.0107703
0.0132906
0.0152292
0.0167774
0.0172959
0.0177204
0.017898
0.0178485
0.0189316
0.0191834
0.0196167
0.0183611
0.0171237
0.0176875
0.0160569
0.0175683
0.0174962
0.0209176
0.0209562
0.0173163
0.0145192
0.0100087
0.00551106
0.00263266
-0.000224925
-0.000544653
-0.000389725
-0.00115014
-0.00087735
-0.0001765
0.00485275
0.00342664
0.00297791
0.00347947
0.00469109
0.0062043
0.00782921
0.00948283
0.0111212
0.0128069
0.0141981
0.0154142
0.0161152
0.0167062
0.0172066
0.0174541
0.0182103
0.0184539
0.0187031
0.0179861
0.0174429
0.0175879
0.0167152
0.017824
0.0179106
0.0190194
0.0189056
0.0160634
0.0141259
0.0103855
0.0063497
0.00360981
0.00109618
0.000382995
0.000181088
-0.000548951
-0.000504346
-9.86606e-05
0.0082939
0.00719335
0.00675482
0.00696773
0.00768431
0.00863999
0.00967949
0.0107244
0.0117636
0.0128386
0.0138328
0.0147318
0.0154178
0.0160041
0.0165713
0.0169412
0.0173905
0.0176084
0.0177824
0.0174559
0.0172421
0.0172938
0.0166766
0.0171056
0.0170691
0.0173796
0.0170389
0.0148322
0.0131703
0.0104019
0.00702957
0.00445618
0.00215438
0.00118359
0.000724403
9.14949e-06
-0.000149373
-1.22773e-05
0.0109463
0.0100807
0.00965489
0.00968434
0.010081
0.0106648
0.0113001
0.0119165
0.0125462
0.0132188
0.0138893
0.01451
0.0150422
0.0155321
0.0159955
0.016376
0.0167026
0.0168991
0.017097
0.0169328
0.0168047
0.0167484
0.0163463
0.0164486
0.0162653
0.0160912
0.015516
0.0137986
0.0124457
0.0103251
0.00756656
0.0052225
0.00310043
0.00192662
0.00124368
0.000512612
0.000182202
8.23537e-05
0.0129454
0.0122689
0.0118859
0.0118096
0.0119867
0.0123034
0.0126605
0.013004
0.0133577
0.0137492
0.0141603
0.0145525
0.0149066
0.0152598
0.0156058
0.0159009
0.0161344
0.0162748
0.0164152
0.0163379
0.0162132
0.0161366
0.0158222
0.0156913
0.0153499
0.0149239
0.0142907
0.0129211
0.0116826
0.0100368
0.00784965
0.00581209
0.00389744
0.00258203
0.00170989
0.000931222
0.00046567
0.000169237
0.0144566
0.0139294
0.0135886
0.0134499
0.0134865
0.0136281
0.0137973
0.0139529
0.0141139
0.014307
0.0145293
0.0147479
0.0149421
0.0151528
0.0153701
0.0155581
0.0156962
0.0157676
0.0158377
0.0157801
0.0156475
0.0155088
0.0152171
0.0149614
0.014552
0.0140228
0.0133352
0.0122225
0.0111038
0.00973367
0.00799694
0.00625184
0.00454296
0.00319249
0.00217453
0.00131354
0.000717493
0.000255061
0.0155792
0.0151648
0.0148664
0.0146993
0.0146491
0.0146722
0.0147108
0.0147398
0.0147707
0.014829
0.0149106
0.0149923
0.0150653
0.0151433
0.0152424
0.0153197
0.0153676
0.0153684
0.0153666
0.0152786
0.015112
0.01493
0.0146274
0.0142921
0.0138446
0.0132757
0.0125865
0.0116389
0.0106169
0.00942688
0.00800313
0.00651501
0.00500895
0.00370161
0.00260314
0.00164864
0.000924158
0.000319446
0.0163984
0.0160718
0.0158127
0.0156339
0.0155288
0.015473
0.0154247
0.0153701
0.0153136
0.0152779
0.0152561
0.0152362
0.0152106
0.0151903
0.0151877
0.0151688
0.0151322
0.0150611
0.0149814
0.0148465
0.0146434
0.0144152
0.014094
0.0137233
0.0132515
0.0126794
0.012003
0.0111606
0.0102317
0.00916959
0.00796251
0.00667702
0.00534239
0.00410281
0.00298027
0.00195753
0.00111497
0.000380411
0.0169847
0.0167226
0.0164959
0.0163149
0.0161773
0.0160705
0.0159646
0.015855
0.0157402
0.0156412
0.015547
0.0154552
0.0153558
0.0152605
0.0151755
0.0150775
0.0149678
0.0148296
0.0146835
0.0144941
0.0142538
0.0139815
0.013639
0.013244
0.0127616
0.0122015
0.0115475
0.0107776
0.0099213
0.00895782
0.00789539
0.00675157
0.00556041
0.00439118
0.00327683
0.00222621
0.00128473
0.000430104
0.0173868
0.0171714
0.0169709
0.0167927
0.0166367
0.016497
0.016355
0.0162096
0.0160586
0.0159163
0.0157737
0.0156306
0.0154798
0.0153294
0.0151833
0.0150239
0.0148545
0.0146614
0.0144597
0.0142223
0.013946
0.0136376
0.0132721
0.0128596
0.0123724
0.0118238
0.0111933
0.0104736
0.00967839
0.00878706
0.00782339
0.00678621
0.0056969
0.00459453
0.00350436
0.00243995
0.00142772
0.00047556
0.0176494
0.017466
0.0172849
0.017111
0.0169454
0.0167853
0.0166219
0.0164539
0.0162815
0.0161102
0.0159366
0.0157588
0.0155735
0.0153848
0.0151933
0.0149912
0.0147762
0.0145439
0.0142976
0.0140234
0.0137172
0.0133787
0.0129962
0.0125676
0.0120803
0.011538
0.0109247
0.0102421
0.00948677
0.00865364
0.00775713
0.00678721
0.0057717
0.00472271
0.00365312
0.00259137
0.00154001
0.000511063
0.017804
0.0176405
0.0174727
0.0173033
0.0171334
0.0169624
0.0167867
0.0166067
0.0164213
0.0162336
0.0160403
0.0158419
0.015635
0.0154223
0.015202
0.0149715
0.0147276
0.0144676
0.0141917
0.0138917
0.0135636
0.0132048
0.012808
0.0123701
0.0118814
0.011342
0.0107421
0.0100791
0.00935389
0.0085583
0.00770187
0.00678064
0.0058083
0.00479747
0.00374896
0.00268819
0.00161714
0.000538124
0.0178712
0.0177177
0.0175573
0.0173913
0.0172204
0.017045
0.0168643
0.016679
0.0164881
0.0162927
0.0160903
0.0158819
0.0156647
0.0154402
0.0152056
0.0149606
0.0147019
0.0144278
0.0141362
0.0138227
0.0134831
0.0131132
0.0127092
0.0122654
0.0117763
0.0112382
0.0106448
0.00999289
0.0092817
0.00850633
0.007671
0.00677377
0.00582368
0.00483236
0.003795
0.00273587
0.00165701
0.000552883
-0.0831239
-0.0952332
-0.108069
-0.120802
-0.136083
-0.15066
-0.169683
-0.191401
-0.0676228
-0.0765303
-0.0859738
-0.0957296
-0.106569
-0.116797
-0.127472
-0.140758
-0.0527741
-0.0588284
-0.0649074
-0.0716076
-0.0788873
-0.0857989
-0.093969
-0.106135
-0.0407022
-0.0447827
-0.048799
-0.0533962
-0.0588966
-0.0650992
-0.0736846
-0.0838417
-0.0301235
-0.03298
-0.0359189
-0.0397079
-0.0446709
-0.0497566
-0.0548819
-0.0607007
-0.0214329
-0.0234012
-0.0256059
-0.0282972
-0.0313132
-0.0338131
-0.0368737
-0.0420221
-0.0139575
-0.0151367
-0.0163604
-0.0177422
-0.019517
-0.0216625
-0.024994
-0.029376
-0.0074432
-0.00802877
-0.00870082
-0.00975237
-0.0114127
-0.0133538
-0.0155277
-0.0182149
-0.00212143
-0.00246738
-0.00291466
-0.0036546
-0.00469806
-0.00576644
-0.00714003
-0.00935476
0.00233295
0.00217927
0.00200133
0.00163792
0.00100438
0.000168688
-0.00106208
-0.00285706
0.006067
0.0060031
0.00593076
0.00569982
0.00522385
0.00456708
0.00366976
0.00236241
0.00909012
0.00903951
0.00899873
0.00885876
0.0085521
0.00810393
0.00744382
0.00641257
0.0115445
0.0114869
0.0114576
0.0113725
0.0111634
0.0108199
0.0102912
0.00947832
0.013497
0.0134149
0.0133654
0.0132889
0.0131284
0.0128645
0.0124607
0.0118428
0.0150132
0.014907
0.0148328
0.014754
0.0146255
0.0144213
0.0141077
0.0136312
0.016169
0.0160461
0.0159502
0.015861
0.0157454
0.0155791
0.0153344
0.0149734
0.0170247
0.016893
0.016783
0.016685
0.0165768
0.0164378
0.0162447
0.0159704
0.0176455
0.0175116
0.0173943
0.01729
0.0171847
0.0170617
0.0169045
0.0166944
0.0180827
0.0179502
0.0178309
0.0177233
0.0176196
0.0175072
0.0173755
0.0172115
0.0183781
0.0182501
0.018132
0.0180238
0.0179208
0.017815
0.0176995
0.0175669
0.0185643
0.0184426
0.0183277
0.0182207
0.0181184
0.0180168
0.0179116
0.0177992
0.0186643
0.0185502
0.0184405
0.0183357
0.0182346
0.0181354
0.0180361
0.0179351
0.0186975
0.0185923
0.0184883
0.0183863
0.0182862
0.0181879
0.0180907
0.0179941
0.0690636
0.0727138
0.0761116
0.078659
0.0795503
0.0785961
0.0756635
0.0702198
0.061266
0.0473595
0.0265221
-0.00398583
-0.0486359
-0.110868
-0.166753
0.0474042
0.0489785
0.0488176
0.0471859
0.0439922
0.0389252
0.0314874
0.0208884
0.00599751
-0.0147219
-0.0433655
-0.0826515
-0.136891
-0.210591
-0.270338
0.0257269
0.025003
0.0212471
0.015827
0.00903482
0.00031242
-0.0111613
-0.0263368
-0.0464014
-0.072948
-0.108204
-0.154967
-0.216503
-0.298732
-0.356589
0.00396448
0.000467357
-0.00637078
-0.0146818
-0.0243599
-0.0362189
-0.0511994
-0.0702679
-0.0946144
-0.125805
-0.166225
-0.218804
-0.286015
-0.368978
-0.423574
-0.0183239
-0.0245172
-0.0334646
-0.0437001
-0.0555784
-0.0700255
-0.0878493
-0.109993
-0.137613
-0.172136
-0.21604
-0.272271
-0.341523
-0.421055
-0.470175
-0.039933
-0.0486881
-0.0591082
-0.0707334
-0.0843377
-0.100808
-0.120738
-0.145032
-0.174765
-0.211434
-0.257127
-0.314003
-0.381944
-0.454819
-0.496717
-0.0605806
-0.0711985
-0.0825332
-0.0953122
-0.110384
-0.128358
-0.149761
-0.175315
-0.206042
-0.243305
-0.288757
-0.343745
-0.407198
-0.470212
-0.505084
-0.0806478
-0.0915339
-0.103678
-0.11762
-0.133826
-0.152775
-0.174949
-0.200941
-0.231625
-0.268095
-0.311551
-0.362446
-0.418158
-0.468504
-0.498077
0.187612
0.20245
0.219012
0.23773
0.258683
0.28177
0.306888
0.333986
0.362988
0.393637
0.425344
0.456923
0.486366
0.509629
0.528735
0.186443
0.200578
0.216433
0.234537
0.254882
0.277232
0.301415
0.327373
0.355031
0.384107
0.413947
0.443284
0.469996
0.490095
0.506088
0.181137
0.193739
0.208269
0.225226
0.244373
0.265255
0.287588
0.311262
0.336164
0.361949
0.387865
0.412521
0.433583
0.447226
0.457088
0.171685
0.182163
0.194898
0.210157
0.227386
0.245958
0.265528
0.285935
0.306962
0.328112
0.348444
0.366361
0.379213
0.383266
0.384631
0.158139
0.166144
0.176965
0.190378
0.205254
0.220758
0.236579
0.25261
0.268585
0.283845
0.297205
0.306795
0.309585
0.301672
0.29242
0.140856
0.145927
0.154615
0.165988
0.178257
0.190382
0.202041
0.213107
0.223231
0.231602
0.236828
0.236789
0.228081
0.206609
0.184672
0.120078
0.12295
0.129789
0.138537
0.147329
0.155371
0.162418
0.168216
0.172174
0.173244
0.169807
0.159498
0.138579
0.102946
0.0678213
0.0958697
0.0976258
0.103481
0.109569
0.114476
0.117916
0.119878
0.120015
0.117492
0.111024
0.0987647
0.0780907
0.0448919
-0.00467298
-0.0518156
0.02704
0.0314543
0.0277833
0.0317064
0.0292467
0.0335607
0.0317976
0.0361992
0.035539
0.0400373
0.0408087
0.0455315
0.0481461
0.0538161
0.0584937
0.0658069
0.0732739
0.0832455
0.0943884
0.10846
0.124536
0.144203
0.166892
0.0271091
0.0314917
0.0278706
0.0317557
0.0294031
0.033623
0.0319439
0.0363059
0.0357088
0.0401923
0.0410951
0.0459675
0.0485159
0.054235
0.0589214
0.0663212
0.0738471
0.0838578
0.0949797
0.109062
0.12487
0.144403
0.166533
0.0271881
0.0315038
0.0279747
0.0317742
0.0295368
0.0336504
0.0321223
0.0363764
0.035965
0.0403047
0.0414096
0.0460826
0.0488612
0.0545274
0.0592666
0.0666358
0.0741685
0.0841609
0.0950086
0.108878
0.124009
0.142873
0.163342
0.0272755
0.0314921
0.0280914
0.0317648
0.0296903
0.0336493
0.0323242
0.0364131
0.036215
0.0404156
0.0417332
0.0463016
0.0492783
0.0549675
0.0597061
0.067222
0.0744824
0.0845135
0.0947894
0.10825
0.122094
0.139573
0.157165
0.0273712
0.0314597
0.0282277
0.0317318
0.0298608
0.033625
0.0325443
0.0364194
0.0364768
0.0404834
0.0420489
0.0463378
0.0495932
0.0550471
0.0598648
0.0672041
0.0742629
0.0839562
0.0936524
0.106305
0.118606
0.134158
0.147798
0.0274694
0.0314086
0.0283662
0.0316808
0.0300409
0.0335886
0.0327758
0.0364186
0.0367755
0.0405883
0.0424205
0.0466802
0.0500889
0.0556603
0.060356
0.0679651
0.0744958
0.0842426
0.0928395
0.104631
0.11443
0.127184
0.135644
0.027575
0.031342
0.0285102
0.0316185
0.0302238
0.0335349
0.0330045
0.036389
0.03701
0.040625
0.0426574
0.0465799
0.050297
0.0554123
0.0602247
0.0673587
0.07368
0.0825639
0.0904453
0.10055
0.108387
0.117628
0.120478
0.0276803
0.0312674
0.0286513
0.031553
0.0304178
0.0335091
0.0332469
0.0364374
0.0373774
0.0408174
0.0431572
0.0471627
0.0509232
0.056397
0.0609779
0.0685412
0.0741632
0.0832391
0.0892622
0.0982481
0.101857
0.106709
0.101706
0.0278059
0.0311558
0.0288338
0.0314287
0.0306239
0.033376
0.0334889
0.0362699
0.03754
0.0407762
0.0432129
0.0468168
0.0507679
0.055491
0.0601504
0.06649
0.0716764
0.0784338
0.0834663
0.0882133
0.0894487
0.0869014
0.076701
0.0279691
0.0309857
0.0290649
0.0312425
0.0308614
0.0331296
0.0336977
0.0359437
0.0375753
0.0402293
0.0429094
0.046057
0.0498587
0.053777
0.0580775
0.0629335
0.0672724
0.0714954
0.0747568
0.0756933
0.0745526
0.0687273
0.0602163
0.0281659
0.0307524
0.0293296
0.0309966
0.0311285
0.0328031
0.0339164
0.0355937
0.0375588
0.0397731
0.0425253
0.0451876
0.048738
0.0519071
0.0556978
0.0591596
0.0624268
0.0645999
0.0659375
0.0647726
0.0615572
0.0552549
0.0469806
0.0283975
0.0304474
0.0296308
0.0307064
0.031383
0.0325241
0.0340078
0.0352993
0.0374384
0.0392054
0.0419239
0.0441955
0.0472808
0.0498206
0.0528572
0.0551163
0.0571925
0.0578441
0.0575094
0.0551044
0.0507212
0.0441979
0.0361428
0.0286683
0.0300635
0.0299255
0.0304749
0.0315395
0.0322995
0.0339941
0.0350174
0.037155
0.0386308
0.0410891
0.0430657
0.0454976
0.0474965
0.0496912
0.0508856
0.0518447
0.0513873
0.0498217
0.0467192
0.0419434
0.0355701
0.0279679
0.0289739
0.0296708
0.0301277
0.0303092
0.0316197
0.0321055
0.0338585
0.0347131
0.0367087
0.037962
0.0400472
0.0417595
0.0434898
0.044929
0.0463388
0.0466162
0.0466284
0.045413
0.0431539
0.0396873
0.0349515
0.0289741
0.0219451
0.0292668
0.0293179
0.0302333
0.0301957
0.0316037
0.0319363
0.0335933
0.0343724
0.0360995
0.0371801
0.0388497
0.0402483
0.04133
0.0421967
0.04292
0.0425022
0.0417747
0.0400837
0.0375321
0.0339709
0.029485
0.0240663
0.0177717
0.0295238
0.0290217
0.030248
0.0301178
0.0314814
0.0317724
0.0332052
0.0339633
0.0353641
0.0362646
0.0375217
0.0385529
0.0390819
0.0394355
0.0395711
0.0386824
0.0374548
0.0354917
0.032896
0.0294825
0.0253864
0.02062
0.0151637
0.0297178
0.028803
0.0301592
0.0300614
0.0312587
0.0315872
0.0327252
0.0334552
0.0345267
0.0352131
0.0360905
0.0367372
0.0368176
0.0367497
0.0364267
0.0352495
0.0337352
0.0316775
0.0291958
0.0260965
0.0224858
0.0183971
0.0137853
0.0298303
0.0286711
0.0299678
0.0300042
0.0309517
0.0313412
0.032187
0.0328326
0.0336034
0.0340549
0.0345919
0.034878
0.0346129
0.0342287
0.0335845
0.0322594
0.0306373
0.0286317
0.0263572
0.0236469
0.0205648
0.0171396
0.0133182
0.0298481
0.0286224
0.0296928
0.0299107
0.0305995
0.0310084
0.0316057
0.0321069
0.0326106
0.0328271
0.0330677
0.0330506
0.0325453
0.0319405
0.031098
0.0297363
0.02814
0.0262859
0.0242688
0.0219616
0.0193998
0.0165928
0.0134823
0.0297664
0.0286383
0.0293665
0.0297232
0.0302251
0.0305895
0.0309845
0.0313067
0.0315724
0.031578
0.0315711
0.0313251
0.0306667
0.0299256
0.0289903
0.0276733
0.0261864
0.0245382
0.0227986
0.0208739
0.0187826
0.0165191
0.0140203
0.0295914
0.0286842
0.0290487
0.0294112
0.0298146
0.0301006
0.0303258
0.0304665
0.0305237
0.0303583
0.0301565
0.0297462
0.0290057
0.0282039
0.0272556
0.0260353
0.0247027
0.0232795
0.0218121
0.0202296
0.0185408
0.0167315
0.014737
0.0293415
0.0287054
0.0287804
0.0290202
0.0293469
0.0295395
0.0296294
0.0296181
0.0295038
0.0292068
0.0288604
0.0283438
0.0275784
0.0267726
0.0258646
0.0247711
0.0236106
0.0224067
0.0211883
0.0199008
0.0185474
0.0171113
0.0155315
0.0290403
0.0286183
0.0285446
0.0286458
0.028839
0.0289231
0.0289044
0.0287778
0.0285389
0.0281491
0.0277064
0.027133
0.0263827
0.0256117
0.0247763
0.0238205
0.0228297
0.0218254
0.0208247
0.0197854
0.0187073
0.017574
0.0163308
0.028714
0.0284385
0.0283093
0.0282804
0.0283182
0.0282899
0.0281757
0.0279613
0.0276406
0.0271986
0.0267064
0.0261175
0.0254093
0.0246963
0.0239467
0.0231219
0.0222836
0.0214501
0.0206309
0.0197939
0.0189366
0.0180445
0.0170705
0.0283793
0.0281883
0.0280351
0.0279113
0.0278126
0.027676
0.0274752
0.0271936
0.0268231
0.026362
0.0258603
0.0252898
0.0246414
0.0239978
0.0233343
0.022624
0.0219124
0.021216
0.0205407
0.0198633
0.0191801
0.0184778
0.0177195
0.0280447
0.0278947
0.0277223
0.0275348
0.0273374
0.0271082
0.0268328
0.026499
0.0260997
0.0256396
0.0251533
0.0246226
0.0240438
0.0234724
0.0228896
0.0222774
0.0216685
0.021078
0.0205124
0.0199569
0.0194076
0.0188533
0.0182657
0.0277166
0.0275821
0.0273921
0.0271615
0.0268989
0.0266025
0.0262705
0.0258993
0.0254857
0.0250374
0.0245772
0.024092
0.023578
0.0230694
0.0225556
0.0220268
0.0215045
0.0209997
0.0205195
0.0200566
0.0196087
0.0191671
0.0187108
0.027406
0.027275
0.0270697
0.0268098
0.026506
0.0261662
0.0257982
0.0254054
0.0249884
0.0245555
0.0241215
0.0236767
0.0232167
0.0227614
0.0223071
0.0218492
0.0213999
0.0209661
0.0205535
0.0201599
0.0197851
0.0194241
0.0190634
0.0271319
0.0270007
0.026784
0.0265047
0.0261765
0.0258117
0.025423
0.0250192
0.024603
0.0241811
0.0237646
0.0233501
0.0229331
0.022523
0.0221198
0.0217226
0.0213375
0.0209667
0.0206113
0.0202704
0.0199464
0.0196399
0.0193459
0.0269157
0.0267822
0.0265588
0.02627
0.0259303
0.0255534
0.0251553
0.0247497
0.02434
0.0239291
0.023526
0.023133
0.022747
0.0223691
0.0220001
0.0216409
0.0212949
0.0209632
0.0206465
0.0203451
0.020061
0.0197961
0.0195491
0.0267994
0.0266665
0.0264364
0.0261371
0.0257873
0.0254011
0.0249956
0.0245859
0.024177
0.0237721
0.0233792
0.0230027
0.0226392
0.0222848
0.0219391
0.0216043
0.0212836
0.0209788
0.0206907
0.0204198
0.0201676
0.0199359
0.0197262
0.0630153
0.0443563
0.0217768
0.00210511
-0.0167636
-0.0353866
-0.0537443
-0.0693678
0.0509039
0.0339864
0.011841
-0.00697001
-0.0214952
-0.0342798
-0.0469561
-0.0577946
0.0399255
0.0268061
0.00789982
-0.00829122
-0.0187996
-0.0274417
-0.0366473
-0.0453458
0.0298626
0.0198644
0.00464834
-0.00871559
-0.0169084
-0.023162
-0.0295458
-0.0355684
0.0217123
0.0138563
0.00287239
-0.00679646
-0.0130271
-0.0176623
-0.0221384
-0.0264219
0.0159134
0.00953364
0.0021273
-0.00439866
-0.00905665
-0.012655
-0.0159173
-0.0188934
0.01223
0.00716878
0.00237934
-0.00177666
-0.00507702
-0.00782718
-0.0102483
-0.0123016
0.0102877
0.00636663
0.00340263
0.000915274
-0.00129847
-0.00331883
-0.00507767
-0.00645808
0.00964052
0.00666532
0.00493454
0.00357177
0.00217245
0.000739102
-0.000537299
-0.00149645
0.00988662
0.00766686
0.00674223
0.00610573
0.00528452
0.00430683
0.00339242
0.0027226
0.0107054
0.00907609
0.00866142
0.0084727
0.00804414
0.00740971
0.00677415
0.0063123
0.0118135
0.010634
0.0105276
0.0106132
0.0104536
0.0100642
0.00961846
0.00927643
0.0129973
0.0121441
0.012206
0.0124553
0.0124926
0.0122869
0.0119766
0.0117079
0.0141742
0.0135619
0.0137071
0.0140214
0.0141639
0.0140812
0.0138709
0.0136542
0.0152789
0.0148386
0.0150073
0.0153185
0.0154967
0.0154852
0.0153451
0.0151677
0.0162639
0.015948
0.0161055
0.0163766
0.0165477
0.0165664
0.0164686
0.0163194
0.017108
0.0168811
0.0170092
0.0172225
0.0173612
0.017381
0.0173024
0.0171704
0.0178061
0.017641
0.0177325
0.0178831
0.017978
0.0179824
0.017908
0.0177855
0.0183655
0.0182407
0.0182942
0.0183853
0.0184342
0.0184154
0.0183363
0.0182175
0.0187988
0.0186964
0.0187124
0.0187504
0.0187564
0.0187129
0.0186249
0.0185076
0.0191337
0.0190361
0.0190114
0.0189993
0.0189656
0.018899
0.0188029
0.0186875
0.0193692
0.0192674
0.0192046
0.019148
0.0190795
0.0189934
0.0188915
0.0187797
0.0195627
0.0194394
0.0193258
0.019219
0.0191155
0.0190124
0.0189083
0.0188031
-0.626978
-0.635988
-0.649975
-0.669288
-0.693901
-0.721738
-0.747182
-0.764287
-0.622006
-0.630293
-0.64302
-0.659546
-0.678824
-0.700015
-0.719823
-0.731928
-0.618237
-0.624519
-0.634442
-0.646891
-0.660311
-0.671851
-0.677874
-0.674087
-0.616457
-0.618646
-0.62292
-0.627237
-0.6301
-0.629246
-0.622104
-0.606216
-0.61626
-0.610982
-0.605622
-0.599016
-0.590782
-0.579832
-0.564175
-0.541507
-0.613834
-0.597967
-0.581457
-0.564789
-0.548328
-0.530947
-0.510394
-0.484136
-0.603979
-0.576926
-0.550927
-0.527373
-0.506064
-0.485151
-0.462045
-0.434182
-0.582882
-0.547022
-0.515368
-0.488572
-0.465168
-0.442778
-0.418686
-0.39045
-0.549426
-0.509411
-0.476512
-0.449438
-0.425954
-0.403515
-0.379551
-0.351816
-0.505589
-0.466687
-0.435956
-0.410677
-0.388493
-0.367017
-0.343995
-0.317398
-0.455371
-0.421386
-0.395009
-0.372795
-0.352813
-0.33304
-0.311496
-0.286518
-0.402224
-0.375655
-0.354639
-0.336188
-0.31899
-0.301351
-0.281701
-0.258679
-0.3497
-0.330691
-0.315467
-0.301198
-0.286988
-0.271843
-0.254328
-0.23357
-0.297059
-0.287032
-0.277947
-0.268068
-0.257023
-0.244378
-0.229155
-0.210786
-0.246275
-0.246771
-0.242176
-0.237227
-0.228661
-0.218361
-0.20542
-0.189764
-0.461167
-0.497348
-0.533925
-0.56604