/*--------------------------------*- C++ -*----------------------------------*\
| =========                 |                                                 |
| \\      /  F ield         | OpenFOAM: The Open Source CFD Toolbox           |
|  \\    /   O peration     | Version:  2312                                  |
|   \\  /    A nd           | Website:  www.openfoam.com                      |
|    \\/     M anipulation  |                                                 |
\*---------------------------------------------------------------------------*/
FoamFile
{
    version     2.0;
    format      ascii;
    arch        "LSB;label=32;scalar=64";
    class       volScalarField;
    location    "21.15";
    object      p;
}
// * * * * * * * * * * * * * * * * * * * * * * * * * * * * * * * * * * * * * //

dimensions      [0 2 -2 0 0 0 0];

internalField   nonuniform List<scalar> 
5478
(
-0.253644
-0.251745
-0.248257
-0.244384
-0.241682
-0.241214
-0.243359
-0.247799
-0.253859
-0.260327
-0.267015
-0.271724
-0.275464
-0.274483
-0.269836
-0.256056
-0.254117
-0.250125
-0.245577
-0.241673
-0.239345
-0.238882
-0.240117
-0.242307
-0.244732
-0.24625
-0.246219
-0.244119
-0.239243
-0.233468
-0.262273
-0.259416
-0.254869
-0.249401
-0.243946
-0.239127
-0.235381
-0.232679
-0.230581
-0.228308
-0.225365
-0.221451
-0.216581
-0.210881
-0.204948
-0.272289
-0.267581
-0.261639
-0.254608
-0.246739
-0.238665
-0.231103
-0.224287
-0.217959
-0.211926
-0.205931
-0.199898
-0.193589
-0.186896
-0.180242
-0.286149
-0.278714
-0.270577
-0.260902
-0.249338
-0.237119
-0.225437
-0.214726
-0.205056
-0.19623
-0.188007
-0.180178
-0.172442
-0.164985
-0.157783
-0.304307
-0.292937
-0.281949
-0.267821
-0.2509
-0.233752
-0.217902
-0.203776
-0.191262
-0.180131
-0.170119
-0.16097
-0.152476
-0.144654
-0.136988
-0.326516
-0.309859
-0.294219
-0.273212
-0.249621
-0.227226
-0.207416
-0.190251
-0.175424
-0.162555
-0.151284
-0.141293
-0.132347
-0.124297
-0.116601
-0.349226
-0.327677
-0.303712
-0.273704
-0.243131
-0.215842
-0.192582
-0.172959
-0.156362
-0.142255
-0.13017
-0.119765
-0.110819
-0.103091
-0.0961326
-0.226591
-0.233472
-0.240569
-0.250885
-0.264191
-0.279716
-0.296836
-0.315154
-0.334086
-0.353115
-0.371719
-0.389444
-0.406067
-0.421559
-0.435528
-0.225784
-0.232222
-0.238989
-0.248768
-0.261347
-0.276023
-0.292264
-0.309425
-0.327166
-0.345126
-0.362918
-0.380089
-0.396313
-0.411779
-0.426941
-0.232116
-0.237024
-0.242958
-0.251856
-0.263429
-0.277005
-0.292074
-0.30817
-0.324934
-0.342077
-0.359364
-0.376582
-0.393124
-0.409198
-0.42437
-0.241199
-0.243931
-0.248624
-0.256273
-0.266484
-0.278623
-0.292215
-0.306877
-0.322326
-0.338323
-0.354368
-0.371892
-0.386342
-0.405644
-0.416859
-0.248992
-0.24943
-0.252482
-0.258289
-0.266514
-0.276643
-0.288269
-0.301066
-0.314696
-0.329566
-0.343479
-0.361103
-0.373452
-0.392874
-0.40438
-0.253474
-0.252122
-0.253202
-0.256497
-0.26196
-0.269406
-0.27856
-0.289256
-0.300769
-0.314368
-0.325736
-0.343119
-0.35458
-0.37237
-0.383689
-0.254684
-0.252417
-0.251481
-0.251818
-0.253922
-0.258119
-0.264388
-0.272548
-0.282079
-0.294542
-0.306019
-0.320489
-0.332371
-0.346998
-0.358623
-0.254015
-0.251719
-0.249185
-0.24685
-0.245874
-0.247149
-0.251117
-0.257885
-0.266554
-0.276258
-0.286637
-0.296318
-0.305599
-0.314324
-0.322956
-0.452067
-0.45282
-0.432742
-0.387253
-0.319229
-0.229299
-0.120624
-0.0109135
0.0664188
0.1041
0.108689
0.0973688
0.0813862
0.0662957
0.0538253
0.0440241
0.0359292
0.0298637
0.0245713
0.0209321
0.017614
0.0150898
0.0131434
0.0111903
0.00978735
0.00861909
0.00742033
0.00667611
0.00602354
0.00519893
0.00478811
0.00444668
0.00377922
0.00331128
0.00291951
0.0028504
0.00217355
0.000590973
-0.449444
-0.453084
-0.436741
-0.394077
-0.328846
-0.241877
-0.130525
-0.0147918
0.0665766
0.105742
0.110825
0.0992178
0.0831385
0.0677596
0.0550805
0.0448383
0.0367264
0.0302997
0.0250478
0.0212235
0.0178689
0.0153287
0.0132748
0.0113259
0.00991163
0.00866818
0.00749094
0.006753
0.00602945
0.00523545
0.00485272
0.00443794
0.00378072
0.00334474
0.00296173
0.00282023
0.00213098
0.000634723
-0.453105
-0.46109
-0.450256
-0.411908
-0.351372
-0.270502
-0.15938
-0.0344442
0.0542083
0.0991112
0.107968
0.0984905
0.0831965
0.0682671
0.0558064
0.0454885
0.0374143
0.0306225
0.0255301
0.0214092
0.0181259
0.0155406
0.0133721
0.011477
0.0100234
0.00872025
0.00756596
0.00682885
0.00603912
0.00527352
0.00491636
0.00443136
0.00378474
0.0033779
0.00300296
0.00278985
0.0020933
0.000677676
-0.449814
-0.463744
-0.458101
-0.426538
-0.371374
-0.296168
-0.189524
-0.064811
0.0308417
0.082703
0.0976353
0.0929476
0.0804611
0.0668251
0.0549919
0.0452479
0.0375364
0.0307338
0.0258156
0.021508
0.0183258
0.0157024
0.0134498
0.0116225
0.0101236
0.00877738
0.00764231
0.0069018
0.00605564
0.00531284
0.0049761
0.00442952
0.00379315
0.0034092
0.00304075
0.00276052
0.00206448
0.000717862
-0.431283
-0.455419
-0.458635
-0.435373
-0.388746
-0.321594
-0.22189
-0.0991588
0.000678308
0.0593472
0.0816967
0.083266
0.0757135
0.0646915
0.0543687
0.0454502
0.0375694
0.0309023
0.0259664
0.02162
0.0184559
0.0158176
0.0135195
0.011739
0.0102144
0.00883624
0.00771513
0.00697067
0.00607919
0.00535216
0.0050301
0.00443365
0.00380622
0.00343723
0.00307332
0.00273338
0.00204806
0.000752872
-0.400908
-0.432015
-0.443012
-0.428051
-0.388767
-0.328711
-0.243463
-0.131641
-0.032157
0.0316383
0.0624409
0.0705396
0.0678865
0.060124
0.051235
0.0438059
0.0369462
0.030816
0.0259746
0.0217677
0.0185655
0.015933
0.0136235
0.0118387
0.01031
0.00890554
0.00778539
0.00703569
0.00611227
0.00539206
0.00507583
0.0044447
0.00382517
0.00346111
0.00309853
0.00270928
0.00204711
0.000780168
-0.371085
-0.402494
-0.421693
-0.417794
-0.38815
-0.334053
-0.254426
-0.157133
-0.0607198
0.00768361
0.0445566
0.0595558
0.062205
0.057726
0.0512742
0.0431593
0.0365102
0.0306904
0.0259307
0.0218051
0.0185953
0.0159874
0.013677
0.0119115
0.010378
0.00896886
0.00785326
0.00708847
0.0061503
0.00543514
0.00511198
0.00445975
0.00385165
0.00348208
0.0031144
0.00268684
0.00206528
0.00079754
-0.336402
-0.359981
-0.376125
-0.377772
-0.361691
-0.322865
-0.260955
-0.179601
-0.0972336
-0.027711
0.018232
0.0422093
0.05129
0.0510651
0.0470428
0.041087
0.0358115
0.0305363
0.0259742
0.0220475
0.0187501
0.0161601
0.0138482
0.0120108
0.0105068
0.00905373
0.00792216
0.00716314
0.00619641
0.00547433
0.00514682
0.00448406
0.00388188
0.00349606
0.00312446
0.00266859
0.00210266
0.00080255
-0.296178
-0.323744
-0.336911
-0.338713
-0.323429
-0.28984
-0.237902
-0.170128
-0.0975916
-0.0353074
0.00780305
0.0321008
0.0439327
0.0467736
0.0449227
0.0398693
0.0348369
0.0297938
0.0254904
0.0216087
0.01859
0.0159699
0.0137535
0.012036
0.010416
0.0091365
0.00797863
0.00711169
0.00630644
0.00553586
0.00510071
0.0045413
0.0039565
0.00350156
0.00308347
0.00268138
0.00217562
0.000795253
-0.243252
-0.271719
-0.278578
-0.271907
-0.25607
-0.229725
-0.189926
-0.13869
-0.0856604
-0.0388048
-0.00314947
0.0190663
0.0305736
0.0347121
0.0347338
0.0327081
0.0298715
0.0265405
0.0234198
0.0203381
0.017652
0.0153852
0.013361
0.0117367
0.0102408
0.00903179
0.00790406
0.00706561
0.00631414
0.00551734
0.00507476
0.00457854
0.00396426
0.00348763
0.00305811
0.00271929
0.00220495
0.000770165
-0.199617
-0.225383
-0.232737
-0.227674
-0.214708
-0.193795
-0.164916
-0.128519
-0.0878666
-0.0484014
-0.0157539
0.00650481
0.0196551
0.0267511
0.0295771
0.029222
0.0274149
0.0246708
0.0218518
0.0192071
0.0168924
0.0148077
0.0129727
0.011451
0.0100359
0.00891515
0.00783296
0.00700313
0.00630011
0.00550922
0.00505463
0.00458681
0.00396427
0.00349136
0.00303886
0.00273647
0.00221094
0.000752086
-0.164132
-0.184843
-0.191602
-0.186639
-0.174607
-0.157659
-0.135437
-0.107367
-0.0757541
-0.0450885
-0.019019
7.79291e-05
0.0122682
0.0193388
0.0228355
0.0234525
0.0227385
0.0212066
0.0196176
0.0176316
0.0157746
0.0140247
0.0124211
0.0110765
0.00975727
0.00876023
0.00773051
0.00690839
0.00628326
0.00549767
0.00501514
0.00459609
0.00397945
0.00349091
0.00301051
0.0027514
0.00223454
0.000748185
-0.132775
-0.149614
-0.155759
-0.152482
-0.143646
-0.130813
-0.114324
-0.0943618
-0.0718625
-0.0487578
-0.0273739
-0.00978796
0.00255757
0.0106876
0.0155973
0.0181391
0.0189765
0.0185325
0.0174362
0.0160161
0.0146249
0.0131743
0.0118065
0.0106383
0.00943198
0.0085607
0.00758482
0.00680012
0.00624551
0.00546016
0.00497671
0.00460451
0.00398299
0.00348253
0.00298857
0.00277027
0.00227153
0.000748028
-0.107178
-0.120741
-0.126177
-0.124151
-0.117392
-0.107491
-0.0951464
-0.0802541
-0.0630299
-0.0447361
-0.0273048
-0.0124369
-0.00134185
0.00628117
0.0113096
0.0140474
0.0153138
0.0154328
0.0150582
0.0142157
0.0132988
0.0121822
0.0110723
0.0101161
0.00904554
0.00830217
0.00740342
0.00666719
0.00617404
0.0054102
0.00493693
0.00459429
0.00397645
0.0034798
0.0029705
0.00278133
0.00230655
0.000749531
-0.0861777
-0.0967893
-0.101393
-0.100246
-0.095364
-0.0881208
-0.078994
-0.0682004
-0.0558387
-0.0426312
-0.029605
-0.0176943
-0.00789933
-0.000381889
0.00497521
0.00874929
0.011153
0.0122192
0.0125726
0.0122893
0.0118451
0.011077
0.0102312
0.00950674
0.00858575
0.00798586
0.00717914
0.00649981
0.00607783
0.00534405
0.00488228
0.00457
0.00396751
0.00347472
0.00294627
0.00278065
0.00234062
0.000757157
-0.0688394
-0.0771626
-0.0810496
-0.0805852
-0.0772169
-0.0720155
-0.0654426
-0.0575405
-0.0485163
-0.0385802
-0.0282758
-0.0183653
-0.00974487
-0.00286648
0.0022419
0.00574804
0.00819972
0.00954971
0.0102281
0.0103812
0.0103761
0.00992977
0.00934849
0.0088433
0.00807839
0.00762357
0.00691149
0.00630293
0.00595395
0.00524953
0.00481582
0.00453645
0.00394515
0.00346033
0.00291966
0.00277048
0.0023738
0.000769117
-0.0547544
-0.0612219
-0.0644169
-0.0643488
-0.062051
-0.0583408
-0.0536399
-0.0480342
-0.0415447
-0.0343377
-0.0267693
-0.019313
-0.0125255
-0.00658252
-0.00180727
0.00190826
0.0048205
0.00666791
0.00783014
0.00839968
0.00878557
0.00867715
0.00834859
0.00808344
0.007496
0.00720073
0.00659657
0.00607037
0.00579918
0.00513255
0.0047391
0.00448972
0.00390947
0.00344145
0.00289516
0.00275193
0.00240078
0.000786545
-0.0434032
-0.0483789
-0.0509635
-0.0511339
-0.049627
-0.0470416
-0.0437365
-0.0397847
-0.0351687
-0.0300013
-0.0243787
-0.0185686
-0.0130316
-0.00792806
-0.00363475
-0.000227693
0.00258487
0.00454938
0.00583159
0.0066256
0.00732148
0.00748225
0.00737348
0.00730295
0.0068716
0.00672134
0.00623156
0.00578308
0.00559846
0.00498422
0.00462603
0.00441307
0.00385591
0.00340847
0.00284772
0.00271469
0.00241602
0.00078861
-0.0340841
-0.0378855
-0.0399443
-0.0402345
-0.0392838
-0.0375187
-0.0352347
-0.0325027
-0.029285
-0.0256251
-0.0215335
-0.0171811
-0.0129552
-0.00885506
-0.00523586
-0.00224512
0.000465844
0.00250579
0.00394246
0.00491542
0.00585513
0.00627523
0.00639395
0.00650962
0.00625426
0.00626145
0.00587507
0.00553182
0.00542367
0.00485001
0.0045572
0.00436756
0.00381316
0.00340311
0.00284262
0.00268574
0.00243374
0.000840889
-0.0267476
-0.0296451
-0.0312608
-0.0315807
-0.0309961
-0.0298003
-0.0282353
-0.0263682
-0.0241459
-0.0216113
-0.0187221
-0.0155511
-0.0123697
-0.00911363
-0.00608809
-0.00348588
-0.00100855
0.000986911
0.0024214
0.00343826
0.00449004
0.00508569
0.00533718
0.00562433
0.0054996
0.00562934
0.00537651
0.00510251
0.00509217
0.00458987
0.00432702
0.00419552
0.00367961
0.00327906
0.00271582
0.00253031
0.00236768
0.000774207
-0.0205174
-0.0227141
-0.0239664
-0.0242797
-0.0239452
-0.0231435
-0.0220727
-0.0207937
-0.0192542
-0.017505
-0.0154771
-0.0131842
-0.0108454
-0.00833931
-0.00594248
-0.00384086
-0.00173183
7.10869e-05
0.00141147
0.00240056
0.00352648
0.00422896
0.0046361
0.00500651
0.00501394
0.0052699
0.0050941
0.00492429
0.00498198
0.00452423
0.00432947
0.00422371
0.00370196
0.00335122
0.00278809
0.00264307
0.0024289
0.00090548
-0.0158925
-0.0175338
-0.0184816
-0.0187557
-0.0185795
-0.0180551
-0.0173485
-0.0165165
-0.0154991
-0.0143459
-0.0129694
-0.0113697
-0.00972137
-0.00785989
-0.00599916
-0.00433927
-0.00254738
-0.000935472
0.000286882
0.00122042
0.00231507
0.00309071
0.00354061
0.00403638
0.0041343
0.00446765
0.00442454
0.00431654
0.00445482
0.00408771
0.00392588
0.00387379
0.00341504
0.00306486
0.00249458
0.00211094
0.00218501
0.00073215
-0.0114371
-0.0126985
-0.0134186
-0.0136362
-0.0135431
-0.0131875
-0.0127121
-0.0121658
-0.0114821
-0.0107128
-0.00977438
-0.00865791
-0.00751344
-0.00614557
-0.00475408
-0.00351128
-0.00208908
-0.000752708
0.000259063
0.00104218
0.00207379
0.00281801
0.003312
0.00379285
0.00395626
0.00435521
0.00435391
0.00430919
0.00452001
0.0041806
0.00406122
0.00406751
0.00357463
0.00327596
0.0027324
0.00263316
0.00233804
0.000945859
-0.00854823
-0.00948871
-0.0100206
-0.0101991
-0.0101801
-0.00996457
-0.00966882
-0.00933931
-0.0089171
-0.00846142
-0.00787682
-0.00715516
-0.00641827
-0.0054629
-0.00446794
-0.00358986
-0.00245262
-0.00133434
-0.000512661
0.000148238
0.00106504
0.00179692
0.00225543
0.00279638
0.00300567
0.00341954
0.00353668
0.00353852
0.00377802
0.00355767
0.00347588
0.00349769
0.00311284
0.00280918
0.00216525
0.00112658
0.0018468
0.000696135
-0.00505924
-0.00577834
-0.00618427
-0.00633579
-0.00636624
-0.00624327
-0.00607074
-0.00589278
-0.0056321
-0.0053591
-0.00497457
-0.00448726
-0.0040153
-0.00335283
-0.00265326
-0.00208424
-0.00123836
-0.000359262
0.000248883
0.00073562
0.00150905
0.00215715
0.00254215
0.00303119
0.00321327
0.00364356
0.0037638
0.00374791
0.00411321
0.00383651
0.00377804
0.00391429
0.0034251
0.00324961
0.0028278
0.00269093
0.00222654
0.00096477
-0.00304428
-0.00362208
-0.00394072
-0.00408455
-0.00416333
-0.0041257
-0.00406253
-0.00400406
-0.00388836
-0.00379183
-0.00360999
-0.00338482
-0.00316567
-0.00276571
-0.00231784
-0.00195868
-0.00131722
-0.000683602
-0.000269658
0.000145644
0.000753126
0.00133474
0.00161526
0.00212321
0.00231382
0.00267785
0.00292452
0.00290573
0.00322975
0.00313188
0.00308152
0.0031818
0.00288244
0.00269466
0.00222583
0.00176599
0.00169446
0.0007527
-0.000221024
-0.000667187
-0.000936277
-0.0010986
-0.00122919
-0.00127812
-0.00130256
-0.00133958
-0.001311
-0.00130515
-0.00120105
-0.00108093
-0.000959503
-0.000743406
-0.000478188
-0.000314226
0.000164714
0.000606304
0.000880844
0.00115734
0.00162524
0.00213362
0.00227288
0.0027823
0.00277444
0.00321646
0.00339118
0.0032946
0.00382163
0.00355625
0.00350927
0.00373003
0.00331284
0.0031761
0.00265799
0.00199067
0.00195776
0.000929405
0.00158373
0.00118198
0.000873989
0.00064366
0.000451375
0.000275603
0.000132753
-3.96695e-05
-0.000165759
-0.000296213
-0.000359249
-0.000376405
-0.000319876
-0.000282911
-0.000116324
-5.49047e-05
0.000135578
0.000367653
0.000644039
0.00086055
0.00108427
0.00156461
0.00161783
0.0021845
0.00209528
0.00249274
0.00280511
0.00255106
0.00316672
0.00305242
0.00286161
0.00324016
0.00301644
0.00277238
0.00230072
0.00190154
0.00185177
0.000907861
0.00307101
0.00279205
0.0025295
0.00230103
0.00211782
0.00194395
0.00179673
0.00165725
0.00152825
0.00141686
0.00132817
0.00124514
0.00124011
0.00122149
0.00129069
0.00137845
0.00144267
0.00151641
0.00168328
0.00190517
0.00201309
0.00228658
0.00239527
0.00269118
0.00280129
0.00296278
0.00322532
0.00316415
0.0034465
0.00344529
0.00335396
0.00351521
0.00322985
0.00307254
0.00284687
0.00208692
0.00153109
0.000816154
0.00360932
0.00337639
0.00315529
0.002944
0.00274241
0.00254349
0.00235754
0.00217977
0.00201817
0.00186569
0.00173851
0.00162804
0.00155055
0.00147865
0.00144897
0.00143536
0.0014328
0.00148076
0.00155683
0.00168581
0.00174928
0.00193563
0.00203405
0.00223666
0.00237731
0.0024779
0.0027322
0.00270388
0.00292361
0.00301148
0.00287838
0.00309021
0.00291822
0.0025988
0.00244735
0.00183232
0.00110209
0.00049651
0.00415232
0.00394593
0.00374047
0.00354019
0.00335169
0.00316954
0.00299536
0.00282928
0.00267026
0.0025221
0.00238446
0.00225449
0.00215875
0.00208419
0.00203447
0.00202115
0.00200967
0.00200325
0.00203065
0.00212636
0.00219857
0.00230614
0.00240928
0.00253781
0.0026862
0.00276851
0.0029419
0.00300374
0.00309193
0.00321035
0.00312823
0.00315638
0.00306412
0.00272444
0.00247521
0.0019358
0.00114316
0.000477652
-0.0885609
-0.1074
-0.126988
-0.148216
-0.171229
-0.196904
-0.224686
-0.256841
-0.0811414
-0.0969648
-0.112757
-0.129884
-0.147108
-0.165932
-0.184403
-0.206943
-0.0705358
-0.0825849
-0.094246
-0.106749
-0.119596
-0.133438
-0.149094
-0.168344
-0.0621575
-0.071432
-0.0807245
-0.0905078
-0.101315
-0.112779
-0.125965
-0.140886
-0.0540506
-0.0613876
-0.0688955
-0.0766426
-0.0851356
-0.0937435
-0.103352
-0.114655
-0.0470756
-0.0526842
-0.0583559
-0.0640479
-0.0702204
-0.0765806
-0.0839635
-0.0929849
-0.0405198
-0.0446514
-0.0488233
-0.0530747
-0.0577724
-0.0627404
-0.0684805
-0.0754298
-0.0346795
-0.0377056
-0.0407682
-0.0439401
-0.0474438
-0.0511361
-0.0553746
-0.0606416
-0.0294911
-0.0316409
-0.0338011
-0.0360586
-0.0385658
-0.0412545
-0.0444215
-0.0484839
-0.0248219
-0.0263138
-0.0278017
-0.0293857
-0.031182
-0.0331625
-0.0355415
-0.0386488
-0.0206546
-0.0216698
-0.0226738
-0.0237603
-0.0250127
-0.026421
-0.0281542
-0.0304932
-0.0169145
-0.0176239
-0.018324
-0.0190806
-0.0199539
-0.0209573
-0.0222359
-0.0240191
-0.0135652
-0.0140512
-0.0145041
-0.0149843
-0.0155436
-0.016212
-0.0171188
-0.0184522
-0.0106939
-0.0109968
-0.0113135
-0.0116855
-0.0121273
-0.0126452
-0.0133339
-0.0143428
-0.00788036
-0.00811821
-0.00835248
-0.00859477
-0.00884489
-0.00912279
-0.00954162
-0.0102588
-0.00568195
-0.00579128
-0.00594018
-0.00613555
-0.00636511
-0.00663863
-0.00703165
-0.00763153
-0.00322093
-0.00333811
-0.00347557
-0.00362026
-0.00374562
-0.00385854
-0.00404081
-0.00440467
-0.00128279
-0.00132626
-0.00142718
-0.00156505
-0.00170913
-0.00186329
-0.00209532
-0.00246827
0.00115954
0.00105877
0.000914799
0.000762083
0.00063883
0.000541192
0.000412027
0.000180591
0.00345343
0.003251
0.00304593
0.00283796
0.0026357
0.00243019
0.00220934
0.00194266
0.0042796
0.00413085
0.00399249
0.00385458
0.00371656
0.00357847
0.00344085
0.00328788
0.0049488
0.00478229
0.00461937
0.0044565
0.00429291
0.0041299
0.00396935
0.00380903
0.00528227
0.00513502
0.00499394
0.00485787
0.00472434
0.00459106
0.00445759
0.00432319
0.0962717
0.101668
0.107118
0.111905
0.115195
0.116817
0.116672
0.114298
0.108818
0.0989789
0.0830545
0.0586603
0.0219797
-0.0299379
-0.0748996
0.0744097
0.0775506
0.0794701
0.0803138
0.079889
0.0778664
0.0737897
0.0669544
0.0563654
0.0406848
0.0180931
-0.0137851
-0.0585051
-0.11968
-0.167441
0.0514323
0.0524778
0.0511184
0.0485205
0.0448601
0.0395895
0.0319921
0.0212449
0.00630217
-0.0142555
-0.0423463
-0.0803143
-0.131033
-0.197894
-0.244236
0.0267284
0.0255633
0.0217492
0.016811
0.0107639
0.00286513
-0.00765898
-0.0216079
-0.0399824
-0.0642127
-0.0964059
-0.138765
-0.193485
-0.259897
-0.303323
0.00089119
-0.00240331
-0.00778921
-0.0141319
-0.0218179
-0.0316971
-0.0444207
-0.0606951
-0.081453
-0.108031
-0.14264
-0.18736
-0.242681
-0.305091
-0.343861
-0.0248783
-0.029982
-0.0363034
-0.043563
-0.0524554
-0.0636982
-0.0777999
-0.0954313
-0.117516
-0.145294
-0.180494
-0.224733
-0.277665
-0.333219
-0.366519
-0.0501363
-0.0561152
-0.0629179
-0.0709224
-0.0807399
-0.0927945
-0.107552
-0.125654
-0.147925
-0.175402
-0.209402
-0.250886
-0.298532
-0.34464
-0.373223
-0.0740926
-0.0804141
-0.0876751
-0.0962709
-0.106588
-0.118908
-0.133642
-0.151367
-0.172767
-0.198661
-0.229949
-0.2668
-0.30652
-0.341442
-0.366514
0.208966
0.224351
0.241241
0.25994
0.280511
0.302883
0.326956
0.35266
0.379904
0.408445
0.437733
0.466703
0.493509
0.514635
0.532278
0.209337
0.224227
0.240491
0.258624
0.278707
0.300556
0.323979
0.348884
0.375186
0.402621
0.430594
0.457979
0.482845
0.501712
0.517148
0.205671
0.219194
0.234164
0.251269
0.270388
0.291062
0.312986
0.336047
0.360129
0.384909
0.409704
0.433284
0.453549
0.467159
0.477611
0.197383
0.208914
0.222401
0.238228
0.255816
0.274537
0.294085
0.314342
0.335116
0.355955
0.376011
0.393873
0.407167
0.412688
0.415929
0.185
0.194081
0.205896
0.220187
0.235789
0.251894
0.268231
0.284721
0.301124
0.316851
0.33085
0.341477
0.346017
0.341153
0.335554
0.168332
0.174858
0.18486
0.197356
0.210637
0.22376
0.236453
0.248612
0.259914
0.269628
0.276521
0.278726
0.273205
0.25649
0.240176
0.147943
0.152503
0.160926
0.17116
0.181377
0.190864
0.19945
0.206936
0.212792
0.216079
0.215367
0.208574
0.192382
0.16329
0.135711
0.123271
0.126908
0.134691
0.14271
0.149552
0.155004
0.15912
0.161615
0.161756
0.158407
0.149949
0.134086
0.107222
0.0660609
0.0282938
0.0244285
0.0253591
0.0246786
0.0275474
0.026308
0.0309405
0.0294553
0.0345589
0.0350319
0.0401531
0.0422601
0.0481017
0.0519748
0.0589418
0.065257
0.0741488
0.0833049
0.0951261
0.1081
0.124039
0.141904
0.163265
0.18737
0.0244406
0.0253581
0.0246789
0.0275859
0.0263809
0.0308848
0.0295359
0.0345328
0.0350937
0.0401224
0.0423981
0.0480786
0.0520778
0.0590349
0.0655002
0.0744511
0.0837452
0.0956739
0.108702
0.1248
0.142645
0.164194
0.188131
0.0244515
0.0253476
0.0246878
0.0275977
0.0264825
0.0307949
0.0296512
0.0347993
0.0351833
0.0400706
0.0425218
0.0480454
0.0521962
0.0591102
0.0657106
0.0746763
0.0840444
0.0960448
0.108873
0.12486
0.141991
0.163129
0.186026
0.0244608
0.0253299
0.0247053
0.0275852
0.0266017
0.0306762
0.0297882
0.03465
0.0352847
0.0399837
0.0425983
0.0479801
0.0523021
0.0591553
0.065858
0.0748069
0.0841111
0.09616
0.108672
0.124648
0.140858
0.161093
0.180653
0.0244679
0.0253084
0.0247295
0.0275504
0.0267348
0.0305396
0.029939
0.0344486
0.035389
0.0399099
0.0427412
0.0479261
0.052437
0.0592298
0.0660223
0.0749539
0.0841292
0.0958772
0.107614
0.122666
0.137308
0.156489
0.173031
0.0244724
0.0252866
0.0247592
0.0274972
0.0268661
0.0303884
0.0301198
0.0342891
0.0355161
0.0397717
0.0427054
0.047836
0.0525275
0.0593299
0.0661227
0.0750898
0.0841855
0.0959506
0.107313
0.121876
0.134587
0.149988
0.161136
0.0244746
0.0252675
0.02479
0.0274277
0.0270152
0.0302493
0.0302417
0.0341272
0.0356226
0.0397167
0.0429336
0.0478334
0.0527238
0.0594215
0.0662174
0.0748968
0.0836464
0.0944489
0.104623
0.117386
0.127139
0.14123
0.145739
0.0244721
0.0252588
0.0248233
0.0273401
0.0271068
0.0301352
0.0304598
0.0343444
0.0358236
0.0395957
0.0426696
0.0477649
0.0529237
0.0598795
0.0667393
0.0758391
0.0844435
0.0954796
0.104984
0.116554
0.124038
0.131531
0.126806
0.0244511
0.0252276
0.0248443
0.0272414
0.0273718
0.0298755
0.0304976
0.0339041
0.0358338
0.0394798
0.0429187
0.0476769
0.0530269
0.0590189
0.0656986
0.0732813
0.0813698
0.0898322
0.0977304
0.104397
0.107522
0.10603
0.0988518
0.024411
0.0252003
0.0248756
0.0270456
0.0273044
0.029437
0.0306446
0.0334133
0.035611
0.0385758
0.0417259
0.0458825
0.0510468
0.0563366
0.0624754
0.0686938
0.0755261
0.081568
0.0871912
0.090023
0.0911527
0.0873811
0.0802416
0.0243697
0.0251375
0.0248804
0.0267941
0.0274378
0.0289548
0.0307191
0.0327704
0.0352377
0.0377981
0.0412344
0.0445721
0.0493862
0.053873
0.0591157
0.0640063
0.0692428
0.0731688
0.0761946
0.0766217
0.0749159
0.069788
0.0624765
0.0243185
0.0250478
0.0248678
0.0265175
0.0275003
0.0284169
0.030707
0.0321619
0.0347222
0.0368918
0.0398736
0.0428608
0.0470308
0.0508353
0.0549561
0.0586295
0.0621893
0.0643717
0.0652098
0.0637335
0.0602872
0.0546881
0.0476151
0.0242536
0.0249345
0.0248272
0.0262038
0.0275194
0.0278791
0.03056
0.0315269
0.0339526
0.0359469
0.0384868
0.0409704
0.0444542
0.0474917
0.0504633
0.052904
0.0549533
0.0555365
0.0547034
0.0519024
0.0476625
0.0417938
0.0350512
0.0241694
0.0247995
0.0247489
0.0258683
0.0274457
0.0273345
0.0302496
0.0308752
0.0329804
0.034868
0.0367441
0.0387047
0.0415608
0.0437712
0.0455902
0.0468682
0.0476737
0.0469963
0.0449916
0.0413812
0.0366287
0.0308467
0.0245202
0.0240606
0.0246435
0.0246216
0.0255101
0.0272666
0.0267929
0.0297461
0.0301665
0.0317922
0.0335837
0.0348565
0.0361315
0.0384249
0.0398556
0.040561
0.0408239
0.0406703
0.0391092
0.0362948
0.0322444
0.027346
0.021641
0.0156554
0.0239207
0.0244639
0.024437
0.0251329
0.026951
0.0262392
0.0290626
0.0293724
0.0304518
0.0320811
0.0328145
0.0333249
0.0350593
0.0358527
0.0355552
0.0349441
0.034115
0.0320186
0.0287046
0.0245087
0.0198142
0.0144565
0.00872818
0.0237437
0.0242592
0.0241905
0.0247259
0.0265036
0.0256563
0.0282486
0.0284497
0.0289843
0.0303497
0.0306415
0.0304365
0.0315737
0.0318642
0.0307791
0.0294517
0.0281681
0.0258201
0.0222762
0.0181167
0.0137984
0.00900644
0.0036691
0.0235254
0.0240242
0.0238778
0.0242812
0.0259252
0.0249991
0.0268417
0.0273471
0.0274256
0.0284577
0.0283719
0.0275631
0.0280994
0.0279732
0.0263483
0.0244946
0.0229233
0.0205267
0.016988
0.0129919
0.00909974
0.00492771
0.000159048
0.0232632
0.0237533
0.0234988
0.0237868
0.0252487
0.0243229
0.0258402
0.0261452
0.025813
0.0264801
0.0260534
0.0247832
0.0248022
0.0243398
0.0223726
0.0201715
0.0184358
0.0161172
0.0127605
0.00904885
0.00561622
0.00208294
-0.00202589
0.0229539
0.0234438
0.0230577
0.0232304
0.0244866
0.0235936
0.0247299
0.0248428
0.0241679
0.0244875
0.0237438
0.0221296
0.0217646
0.0210763
0.018939
0.0165805
0.014794
0.0126113
0.00951263
0.00614964
0.00317989
0.000230815
-0.00324012
0.0225987
0.0230846
0.0225572
0.0226134
0.0236647
0.0227823
0.0235512
0.0234579
0.0225435
0.0225917
0.0215833
0.0197183
0.0190618
0.0181984
0.0159847
0.0136085
0.0118833
0.00990745
0.00713972
0.00419508
0.00170727
-0.000683149
-0.00356259
0.0222063
0.0226872
0.0219855
0.0219155
0.0228118
0.0219435
0.0223415
0.0220261
0.0209503
0.020795
0.019592
0.0176188
0.0168381
0.0159182
0.0137179
0.011405
0.00977559
0.00797883
0.0054911
0.00291178
0.000835463
-0.00109475
-0.00345594
0.0217658
0.0222464
0.021381
0.0211798
0.0219434
0.0210624
0.0211319
0.0206337
0.0194804
0.0191954
0.0178193
0.0157703
0.0149395
0.014029
0.0119324
0.00980117
0.00836955
0.00681053
0.00464415
0.00245927
0.000789674
-0.000746945
-0.00270519
0.0213244
0.0217377
0.0206796
0.0204028
0.0211201
0.0201836
0.0199007
0.0192728
0.0182133
0.0178941
0.0164064
0.014384
0.0136073
0.0127497
0.0107565
0.00876093
0.00744254
0.00601254
0.00405947
0.00217354
0.000822166
-0.000388452
-0.00197536
0.0208515
0.0212492
0.0200003
0.0196483
0.0203646
0.0193909
0.0187531
0.0180234
0.0171297
0.0167743
0.0152125
0.0132864
0.0126475
0.0119549
0.0102187
0.00850889
0.0073971
0.00614854
0.00445226
0.0028783
0.00179506
0.000788748
-0.000585999
0.0204132
0.0206176
0.0193061
0.0189728
0.0196524
0.0185916
0.0177225
0.0170274
0.0163611
0.0159946
0.0143779
0.012652
0.0121739
0.0115575
0.00999884
0.00850571
0.00749271
0.00629298
0.00475381
0.00343277
0.00257767
0.00176166
0.000621207
0.0200281
0.0200709
0.018672
0.0184581
0.0190139
0.0179491
0.0168901
0.0162622
0.0158532
0.0153606
0.0137863
0.0124411
0.012206
0.0117634
0.010533
0.00935819
0.00848278
0.00739962
0.00610306
0.00505471
0.00434453
0.00359658
0.00259646
0.0196218
0.019544
0.0182817
0.017926
0.0185277
0.0176631
0.0163817
0.0158399
0.0155992
0.0149915
0.0138606
0.0127678
0.0123211
0.0120122
0.0112385
0.0102437
0.00940428
0.00868073
0.00790978
0.00714954
0.00647655
0.0058369
0.00511253
0.0190527
0.0190921
0.0182178
0.0173131
0.0174642
0.017103
0.0159072
0.0150952
0.0148044
0.0143269
0.0134119
0.0122758
0.0114546
0.0110237
0.0105405
0.00980514
0.00905462
0.00846555
0.00795709
0.00744875
0.00696081
0.00654354
0.00615193
0.0186899
0.0187416
0.0178812
0.0168928
0.0169653
0.0167739
0.0157229
0.0147694
0.0144385
0.0141718
0.0133729
0.0123473
0.0115572
0.0110709
0.010635
0.0100864
0.00946391
0.00887166
0.00834536
0.00787819
0.00744877
0.00704424
0.00664574
0.0184494
0.0184026
0.0178958
0.0169166
0.0164615
0.01621
0.0155696
0.0147082
0.0140971
0.0136348
0.0130543
0.0122637
0.0114483
0.0108024
0.0103072
0.00982981
0.00931232
0.00880869
0.00836072
0.00796741
0.00760797
0.00728144
0.00698831
0.0885976
0.0698476
0.0459329
0.0227467
-0.000456271
-0.0240084
-0.0469433
-0.0686189
0.0717823
0.0521787
0.0273183
0.00614658
-0.0125084
-0.0309451
-0.0488463
-0.0652933
0.0556202
0.0402323
0.0188464
-0.000189055
-0.0157246
-0.0299334
-0.0438861
-0.0576889
0.0415847
0.0289104
0.0100508
-0.00712276
-0.0206726
-0.0317877
-0.0422419
-0.0524231
0.0294652
0.019065
0.00332733
-0.0113905
-0.0224564
-0.0308231
-0.0386359
-0.0463944
0.0195435
0.0111397
-0.00175807
-0.0141118
-0.0231677
-0.0296081
-0.0354548
-0.0412609
0.0113073
0.00479713
-0.00534142
-0.0153443
-0.0226393
-0.0276107
-0.0319438
-0.0362223
0.00442843
-0.000634873
-0.00800498
-0.0153741
-0.0209725
-0.0249312
-0.0282948
-0.0315093
-0.000635861
-0.00481662
-0.00982347
-0.0147523
-0.0188451
-0.0220291
-0.0247304
-0.02718
-0.003911
-0.00735576
-0.0106702
-0.0138172
-0.016682
-0.0191559
-0.0212995
-0.0231557
-0.00567342
-0.00846221
-0.0106288
-0.0125687
-0.0145054
-0.0163662
-0.0180466
-0.0194764
-0.00639882
-0.00860587
-0.00998645
-0.011134
-0.0124052
-0.0137589
-0.0150274
-0.016072
-0.00625744
-0.00801574
-0.00887319
-0.00947724
-0.0102564
-0.0112123
-0.0121635
-0.012954
-0.00569109
-0.00704258
-0.00754306
-0.00783441
-0.0083205
-0.00900608
-0.00971876
-0.0102881
-0.00459482
-0.00569224
-0.00598555
-0.00603504
-0.00624913
-0.00668132
-0.00717799
-0.00758645
-0.00350881
-0.00432171
-0.00443916
-0.00439164
-0.00452177
-0.00485426
-0.00524052
-0.00552047
-0.00190751
-0.00258966
-0.00263118
-0.00247226
-0.00245101
-0.00262578
-0.00287782
-0.00308542
-0.0004492
-0.000949348
-0.000919764
-0.000761982
-0.000746151
-0.000900077
-0.00110454
-0.00123711
0.0017178
0.0013396
0.00140633
0.00157081
0.00160931
0.00150269
0.00135108
0.00124421
0.00446625
0.00412576
0.0040764
0.00413206
0.0041355
0.00403125
0.00385324
0.00365272
0.00577185
0.00545832
0.0052043
0.00502446
0.0048921
0.00476281
0.00461204
0.00444396
0.00632185
0.00609998
0.00592437
0.00577006
0.00561851
0.00545978
0.00529221
0.00511989
0.00675048
0.00654612
0.00633011
0.00612003
0.00592709
0.00575246
0.00559033
0.00543433
-0.298146
-0.303833
-0.313975
-0.328218
-0.346876
-0.370391
-0.397954
-0.424969
-0.295923
-0.301333
-0.310116
-0.322344
-0.33819
-0.357687
-0.380232
-0.403123
-0.291108
-0.296473
-0.304908
-0.315872
-0.329772
-0.346454
-0.363495
-0.376908
-0.285891
-0.291283
-0.299228
-0.308832
-0.319822
-0.33115
-0.340134
-0.34354
-0.282528
-0.287244
-0.293862
-0.300795
-0.307225
-0.312071
-0.313517
-0.309454
-0.282397
-0.285262
-0.289049
-0.291919
-0.293197
-0.292293
-0.288023
-0.278841
-0.285707
-0.28532
-0.284816