/*--------------------------------*- C++ -*----------------------------------*\
| =========                 |                                                 |
| \\      /  F ield         | OpenFOAM: The Open Source CFD Toolbox           |
|  \\    /   O peration     | Version:  2512                                  |
|   \\  /    A nd           | Website:  www.openfoam.com                      |
|    \\/     M anipulation  |                                                 |
\*---------------------------------------------------------------------------*/
FoamFile
{
    version     2.0;
    format      ascii;
    arch        "LSB;label=32;scalar=64";
    class       surfaceScalarField;
    location    "196";
    object      phi;
}
// * * * * * * * * * * * * * * * * * * * * * * * * * * * * * * * * * * * * * //

dimensions      [0 3 -1 0 0 0 0];

oriented        oriented;

internalField   nonuniform List<scalar> 
26232
(
-0.000385474
0.00219188
-0.00180641
-0.000714597
0.00431346
-0.00398434
-0.000355089
0.00466188
-0.00502139
0.00126378
0.00326775
-0.00488663
0.00473233
-7.14072e-05
-0.00339714
0.010563
-0.00561035
-0.000220307
0.0192178
-0.0134771
0.00482231
0.0307558
-0.0235004
0.0119624
0.0447924
-0.0351158
0.0210792
0.060464
-0.0474732
0.0318016
0.0765831
-0.0596346
0.0435155
0.0918872
-0.0707756
0.0554715
0.105305
-0.0803331
0.066915
0.116177
-0.0880792
0.0772079
0.124363
-0.0941164
0.0859301
0.130215
-0.0987966
0.092945
0.134384
-0.102577
0.0984068
0.137541
-0.10586
0.102704
0.140189
-0.108895
0.106247
0.142487
-0.111809
0.109512
0.144594
-0.114487
0.11238
0.146283
-0.117281
0.115592
0.147218
-0.118989
0.118054
-0.121815
0.121888
0.147145
-0.000190664
0.00238254
-4.03259e-05
0.00416312
0.00110504
0.00351651
0.0039233
0.000449489
0.00906154
-0.00520965
0.0170211
-0.0135699
0.0279229
-0.0243789
0.0413035
-0.036881
0.0561488
-0.0499611
0.071138
-0.0624624
0.0849871
-0.0734836
0.0967539
-0.0825424
0.106018
-0.0895976
0.112895
-0.0949557
0.117882
-0.0991032
0.121612
-0.102527
0.124617
-0.105582
0.127219
-0.108463
0.129568
-0.111243
0.131703
-0.113945
0.133776
-0.116559
0.135642
-0.119148
0.138095
-0.121441
-0.124546
0.140826
2.0154e-05
0.00236239
0.000739078
0.0034442
0.00286889
0.0013867
0.00713474
-0.00381636
0.0141566
-0.0122315
0.0241577
-0.023571
0.0366832
-0.0369044
0.050613
-0.0508107
0.0645071
-0.0638552
0.077062
-0.0750173
0.0874519
-0.0838735
0.0954545
-0.090545
0.101359
-0.0955024
0.105729
-0.0993256
0.109139
-0.102513
0.112008
-0.105395
0.114568
-0.108142
0.116936
-0.110831
0.119175
-0.113483
0.121359
-0.116129
0.123502
-0.118702
0.12568
-0.121327
0.127903
-0.123664
-0.126384
0.129741
0.000215288
0.0021471
0.00155511
0.00210438
0.0047857
-0.0018439
0.010637
-0.00966769
0.0195037
-0.0210982
0.0310374
-0.0351046
0.0440719
-0.0499389
0.0570524
-0.0637912
0.0686262
-0.0754291
0.0780324
-0.0844235
0.0851718
-0.0910128
0.0904229
-0.0957962
0.0943518
-0.0994312
0.0974683
-0.102442
0.100118
-0.105163
0.102497
-0.107773
0.104712
-0.110357
0.106823
-0.112942
0.108883
-0.115543
0.110897
-0.118142
0.112935
-0.120739
0.114977
-0.123369
0.11718
-0.125867
-0.128854
0.119649
0.000414197
0.00173291
0.00242832
9.02507e-05
0.00685791
-0.00627348
0.0143005
-0.0171103
0.024639
-0.0314367
0.0367624
-0.0472281
0.0490031
-0.0621795
0.0598951
-0.0746832
0.0686537
-0.0841878
0.075216
-0.0909858
0.0799887
-0.0957856
0.0835284
-0.0993359
0.0863165
-0.102219
0.0886805
-0.104806
0.0908135
-0.107296
0.0928225
-0.109782
0.0947619
-0.112296
0.0966629
-0.114843
0.0985366
-0.117417
0.100413
-0.120018
0.102316
-0.122643
0.104243
-0.125296
0.106298
-0.127921
-0.130763
0.108208
0.000644773
0.00108813
0.00340907
-0.00267405
0.00907992
-0.0119443
0.0178881
-0.0259185
0.0289536
-0.0425022
0.0405425
-0.058817
0.0509985
-0.0726356
0.0594014
-0.0830861
0.0656346
-0.090421
0.0700918
-0.095443
0.0733269
-0.0990206
0.075824
-0.101833
0.0779173
-0.104313
0.0798024
-0.106691
0.0815788
-0.109073
0.0832894
-0.111493
0.0849539
-0.11396
0.0865839
-0.116473
0.0881992
-0.119032
0.0898162
-0.121635
0.091454
-0.12428
0.0931345
-0.126977
0.0949053
-0.129692
-0.132603
0.0967444
0.000922034
0.0001661
0.0044952
-0.00624721
0.0113212
-0.0187703
0.0209864
-0.0355837
0.0318521
-0.0533679
0.0420218
-0.0689866
0.0503074
-0.0809212
0.0564322
-0.0892109
0.0607285
-0.0947173
0.0637464
-0.0984609
0.0659902
-0.101264
0.0678142
-0.103657
0.0694242
-0.105923
0.0709217
-0.108189
0.0723508
-0.110502
0.0737334
-0.112876
0.0750846
-0.115312
0.0764203
-0.117809
0.0777533
-0.120365
0.0790979
-0.122979
0.0804713
-0.125654
0.0818761
-0.128382
0.0833461
-0.131162
-0.134051
0.0847943
0.00123732
-0.00107121
0.00562082
-0.0106307
0.0133343
-0.0264838
0.0231639
-0.0454133
0.0330387
-0.0632428
0.0413714
-0.0773192
0.0475861
-0.0871359
0.0518795
-0.0935044
0.0547802
-0.097618
0.0568214
-0.100502
0.0583935
-0.102836
0.0597269
-0.10499
0.0609367
-0.107133
0.0620746
-0.109327
0.0631643
-0.111592
0.0642193
-0.113931
0.0652495
-0.116342
0.0662637
-0.118823
0.0672726
-0.121374
0.0682891
-0.123996
0.0693229
-0.126688
0.070391
-0.12945
0.0715124
-0.132284
-0.135201
0.0726627
0.00157459
-0.0026458
0.00667615
-0.0157323
0.0148477
-0.0346553
0.0241675
-0.0547332
0.0325881
-0.0716633
0.0390587
-0.0837898
0.043517
-0.0915943
0.0464203
-0.0964076
0.0483273
-0.099525
0.0496785
-0.101853
0.0507449
-0.103903
0.0516654
-0.105911
0.0525026
-0.10797
0.0532832
-0.110107
0.0540202
-0.112329
0.0547231
-0.114633
0.0554009
-0.11702
0.0560643
-0.119487
0.0567248
-0.122035
0.0573921
-0.124663
0.0580773
-0.127373
0.0587882
-0.130161
0.0595293
-0.133025
-0.135951
0.0602793
0.00190142
-0.00454723
0.00753151
-0.0213624
0.0156659
-0.0427897
0.0239876
-0.0630549
0.0308017
-0.0784774
0.0355939
-0.088582
0.0386448
-0.0946451
0.040509
-0.0982718
0.0416858
-0.100702
0.0425044
-0.102672
0.0431408
-0.104539
0.0436753
-0.106445
0.0441414
-0.108436
0.0445543
-0.11052
0.0449241
-0.112699
0.0452595
-0.114969
0.0455693
-0.117329
0.0458621
-0.119779
0.0461469
-0.122319
0.0464331
-0.12495
0.0467293
-0.127669
0.0470453
-0.130477
0.0473874
-0.133367
-0.136321
0.047758
0.00218544
-0.00673266
0.00807857
-0.0272555
0.0157276
-0.0504387
0.0227895
-0.0701168
0.0280474
-0.0837354
0.0314152
-0.0919498
0.0333615
-0.0965915
0.0344345
-0.0993448
0.0350386
-0.101306
0.0354045
-0.103038
0.0356412
-0.104776
0.0357943
-0.106599
0.0358831
-0.108525
0.0359183
-0.110555
0.035908
-0.112688
0.0358599
-0.114921
0.0357817
-0.117251
0.0356819
-0.11968
0.0355697
-0.122207
0.0354541
-0.124834
0.0353442
-0.127559
0.0352454
-0.130378
0.035156
-0.133277
-0.136243
0.0350779
0.00240223
-0.00913489
0.00826489
-0.0331182
0.0151042
-0.057278
0.0208228
-0.0758354
0.0246732
-0.0875858
0.0268645
-0.094141
0.0279373
-0.0976644
0.0283777
-0.0997852
0.0284939
-0.101422
0.0284406
-0.102985
0.0282837
-0.104619
0.0280497
-0.106365
0.0277509
-0.108226
0.0273952
-0.1102
0.0269898
-0.112283
0.0265418
-0.114473
0.0260582
-0.116768
0.0255464
-0.119168
0.0250134
-0.121674
0.0244679
-0.124288
0.0239187
-0.12701
0.0233749
-0.129834
0.022843
-0.132746
0.0223365
-0.135737
0.000359136
0.00588248
-0.00624161
0.000627626
0.0155094
-0.0157779
0.000366332
0.0227022
-0.022441
-0.000493565
0.0275287
-0.0266688
-0.00177756
0.0307178
-0.0294338
-0.00324303
0.033104
-0.0316385
-0.00467792
0.0352343
-0.0337994
-0.00591861
0.0372886
-0.0360479
-0.00682879
0.0391858
-0.0382756
-0.0072758
0.0407188
-0.0402717
-0.00712276
0.0416432
-0.0417962
-0.00623479
0.041722
-0.0426099
-0.00449374
0.0407502
-0.0424913
-0.00181194
0.0385722
-0.041254
0.001887
0.0350797
-0.0387786
0.00657828
0.030274
-0.0349652
0.0122128
0.0241862
-0.0298207
0.0186861
0.0169108
-0.0233841
0.0258355
0.00855864
-0.0157081
0.0334729
-0.000796049
-0.00684132
0.0416145
-0.0112787
0.00313713
0.0500745
-0.0227479
0.0142879
0.0589234
-0.0357784
0.0269295
-0.0505493
0.0684207
0.041052
0.000687447
0.00519503
0.00174837
0.0144485
0.0025395
0.0219111
0.00283682
0.0272314
0.00274462
0.03081
0.0025188
0.0333298
0.00242447
0.0353286
0.00267294
0.0370401
0.00342162
0.0384371
0.00479448
0.0393459
0.00689626
0.0395414
0.009813
0.0388052
0.0136056
0.0369576
0.0183015
0.0338763
0.0238775
0.0295037
0.0302956
0.0238559
0.0374731
0.0170087
0.0452623
0.00912159
0.0534964
0.000324511
0.0621754
-0.00947501
0.0711004
-0.0202037
0.0801855
-0.0318331
0.0896273
-0.0452201
-0.0605107
0.0995887
0.000909066
0.00428596
0.00262964
0.0127279
0.00441958
0.0201212
0.00589976
0.0257512
0.00705842
0.0296513
0.00811299
0.0322752
0.00934764
0.034094
0.0110108
0.0353769
0.0132824
0.0361655
0.0162817
0.0363465
0.020083
0.0357401
0.0247244
0.0341638
0.0302104
0.0314717
0.036511
0.0275757
0.0435635
0.0224511
0.0512654
0.016154
0.0594927
0.00878127
0.0679857
0.00062861
0.0770327
-0.00872245
0.0860269
-0.0184692
0.095334
-0.0295108
0.10493
-0.0414289
0.115248
-0.0555378
-0.0714939
0.126231
0.000995562
0.0032904
0.0031392
0.0105843
0.00572464
0.0175357
0.00827209
0.0232037
0.0106319
0.0272915
0.0129249
0.0299823
0.0154011
0.0316178
0.018317
0.032461
0.0218703
0.0326123
0.026184
0.0320328
0.0313154
0.0306086
0.0372685
0.0282107
0.0440028
0.0247374
0.0514378
0.0201407
0.0594613
0.0144277
0.0679099
0.00770545
0.076609
8.21469e-05
0.0856737
-0.0084361
0.0948164
-0.0178651
0.104137
-0.02779
0.114231
-0.0396047
0.125112
-0.0523096
0.13727
-0.0676958
-0.0840029
0.149779
0.000949605
0.0023408
0.00322044
0.00831347
0.00626131
0.0144949
0.00958921
0.0198758
0.0129466
0.0239341
0.016328
0.0266008
0.0198955
0.0280504
0.0238659
0.0284906
0.0284294
0.0280488
0.03371
0.0267522
0.0397583
0.0245603
0.0465579
0.0214111
0.0540358
0.0172595
0.0620728
0.0121036
0.0705128
0.00598773
0.0792262
-0.00100795
0.088276
-0.00896771
0.0974595
-0.0176196
0.107189
-0.0275944
0.117772
-0.0383731
0.12988
-0.0517126
0.143123
-0.0655527
0.157472
-0.0820447
-0.0972349
0.170704
0.000797773
0.00154302
0.00290183
0.00620941
0.00598191
0.0114148
0.00965197
0.0162058
0.0136215
0.0199646
0.0177805
0.0224419
0.0221786
0.0236523
0.0269504
0.0237187
0.0322397
0.0227595
0.038148
0.0208439
0.0447124
0.0179959
0.0519031
0.0142205
0.0596347
0.0095278
0.0677851
0.00395324
0.0763415
-0.00256859
0.0853105
-0.00997698
0.0948089
-0.0184661
0.105226
-0.0280367
0.117039
-0.0394073
0.130521
-0.0518552
0.145547
-0.0667388
0.16096
-0.0809653
0.175751
-0.0968364
-0.108515
0.187031
0.000574458
0.000968566
0.00227313
0.00451075
0.00499271
0.00869521
0.00850488
0.0126936
0.0125668
0.0159027
0.0170219
0.0179867
0.021828
0.0188462
0.0270253
0.0185214
0.0326843
0.0171005
0.0388614
0.0146668
0.045577
0.0112803
0.0528203
0.00697717
0.0605638
0.00178432
0.0689644
-0.00444732
0.0781184
-0.0117226
0.0883665
-0.0202251
0.100104
-0.0302032
0.1137
-0.0416332
0.129042
-0.0547494
0.145661
-0.0684743
0.162178
-0.0832555
0.177061
-0.0958486
0.188779
-0.108554
-0.115277
0.195541
0.000308101
0.000660465
0.00144469
0.00337416
0.00350334
0.00663655
0.00642259
0.00977435
0.0100562
0.012269
0.0142628
0.0137802
0.0189567
0.0141523
0.0241141
0.013364
0.0297546
0.01146
0.0359275
0.00849386
0.042715
0.00449284
0.0502761
-0.000583953
0.0588826
-0.00682224
0.0688159
-0.0143806
0.0804717
-0.0233783
0.094135
-0.0338884
0.10975
-0.0458182
0.126916
-0.0587991
0.14451
-0.0723434
0.161319
-0.0852836
0.175463
-0.0973996
0.185983
-0.106369
0.19193
-0.114501
-0.117126
0.193779
2.3146e-05
0.000637319
0.000530204
0.0028671
0.00177628
0.00539048
0.003843
0.00770762
0.00669525
0.00941677
0.0102561
0.0102194
0.0144703
0.00993805
0.0193435
0.00849083
0.0249641
0.0058394
0.0315239
0.00193401
0.0393137
-0.00329691
0.0486983
-0.0099686
0.0600398
-0.0181637
0.0735514
-0.0278922
0.0891783
-0.0390053
0.106485
-0.0511947
0.124566
-0.0638993
0.142232
-0.0764653
0.157957
-0.0880681
0.170638
-0.0979655
0.179144
-0.105906
0.183884
-0.111109
0.185181
-0.115798
-0.116884
0.18494
-0.000247379
0.000884698
-0.000324961
0.00294469
0.00014907
0.00491645
0.00136998
0.00648672
0.00343543
0.00735132
0.00639143
0.00726341
0.0103266
0.00600291
0.0154173
0.00340007
0.0219598
-0.00070309
0.0302934
-0.00639952
0.0407803
-0.0137838
0.0536215
-0.0228098
0.068745
-0.0332872
0.0857099
-0.0448571
0.103695
-0.0569906
0.121564
-0.0690634
0.138017
-0.0803519
0.151857
-0.090306
0.162181
-0.098392
0.168896
-0.10468
0.172265
-0.109274
0.173817
-0.112661
0.174073
-0.116054
-0.117338
0.174527
-0.00043779
0.00132249
-0.000915316
0.00342221
-0.000945989
0.00494712
-0.000208164
0.00574889
0.00153404
0.00560911
0.00454198
0.00425547
0.00911931
0.00142559
0.0156258
-0.00310642
0.0244182
-0.00949546
0.0357505
-0.0177318
0.0495856
-0.0276189
0.0655313
-0.0387555
0.0828192
-0.0505751
0.100377
-0.0624149
0.116986
-0.0736
0.131475
-0.0835518
0.142988
-0.0918648
0.151153
-0.0984719
0.156247
-0.103486
0.159111
-0.107544
0.160631
-0.110794
0.162089
-0.114119
0.163147
-0.117111
-0.118986
0.164795
-0.000483919
-0.00104604
-0.00112031
-0.000258044
0.00195393
0.00598909
0.012237
0.0210929
0.0326767
0.0467464
0.0626429
0.0793589
0.0956988
0.110492
0.122822
0.132215
0.138757
0.142989
0.14575
0.147718
0.149303
0.150776
0.151719
0.15462
0.0758477
-0.0865776
0.0791507
0.0835315
-0.114697
0.107013
0.0902747
-0.138267
0.131524
0.0949956
-0.153608
0.148887
0.0975857
-0.161109
0.158518
0.0990689
-0.162293
0.16081
0.098785
-0.158192
0.158476
0.0943429
-0.153672
0.158114
0.0865314
-0.155281
0.163092
0.0807542
-0.160104
0.165881
0.0824964
-0.153854
0.152112
0.0918897
-0.123351
0.113958
0.105302
-0.0683056
0.0548929
0.119847
0.00166167
-0.0162067
0.133646
0.0735511
-0.0873493
0.145318
0.132025
-0.143697
0.15354
0.168316
-0.176538
0.157709
0.185333
-0.189501
0.159149
0.191137
-0.192578
0.159761
0.190052
-0.190664
0.159254
0.188942
-0.188434
0.155995
0.200246
-0.196987
0.149787
0.224994
-0.218785
0.142452
0.240585
-0.23325
0.136419
0.216397
-0.210365
0.133613
0.140279
-0.137474
0.134851
0.0275789
-0.0288165
0.13889
-0.0865751
0.0825361
0.144684
-0.172304
0.16651
0.150527
-0.21624
0.210397
0.153987
-0.231652
0.228191
0.152727
-0.240737
0.241998
0.145685
-0.253416
0.260457
0.134287
-0.261721
0.273119
0.122506
-0.244213
0.255994
0.114664
-0.180966
0.188808
0.113925
-0.0732392
0.0739785
0.120242
0.0491869
-0.0555034
0.130022
0.149381
-0.159161
0.135937
0.215992
-0.221906
0.133558
0.263283
-0.260905
0.125465
0.296944
-0.288851
0.117465
0.28737
-0.27937
0.114542
0.214246
-0.211323
0.118052
0.0873803
-0.0908907
0.123746
-0.0489421
0.0432487
0.125409
-0.162926
0.161262
0.122741
-0.262631
0.265299
0.11974
-0.305074
0.308074
0.118346
-0.280387
0.281781
0.118156
-0.161668
0.161858
0.117491
0.0237483
-0.0230838
0.115266
0.190483
-0.188258
0.113439
0.340212
-0.338386
0.111824
0.3137
-0.312084
0.109183
0.165443
-0.162802
0.103313
-0.0273983
0.033268
0.0988221
-0.316567
0.321058
0.0966292
-0.254545
0.256738
-0.011772
0.0153112
0.103993
-0.0909818
0.108003
-0.118707
0.110552
-0.140816
0.110748
-0.153804
0.108036
-0.158397
0.10376
-0.158017
0.0995721
-0.154005
0.093622
-0.147722
0.0837977
-0.145457
0.0732507
-0.149557
0.0686248
-0.149228
0.0736569
-0.128383
0.0862938
-0.0809424
0.102931
-0.0149754
0.120599
0.0558832
0.136712
0.115912
0.14904
0.155988
0.156752
0.177621
0.161222
0.186668
0.164285
0.186989
0.166096
0.18713
0.16564
0.200703
0.162457
0.228176
0.157285
0.245757
0.151681
0.222001
0.147418
0.144542
0.145625
0.0293722
0.146091
-0.0870407
0.148337
-0.17455
0.151053
-0.218955
0.151952
-0.232552
0.14877
-0.237555
0.140269
-0.244914
0.127851
-0.249303
0.115903
-0.232265
0.109061
-0.174125
0.11033
-0.0745083
0.119278
0.0402392
0.130912
0.137746
0.137905
0.208999
0.136521
0.264667
0.129146
0.30432
0.120763
0.295752
0.116607
0.218402
0.118982
0.0850056
0.124403
-0.0543633
0.125736
-0.164259
0.122208
-0.259103
0.118683
-0.301548
0.117279
-0.278983
0.117877
-0.162266
0.117861
0.0237636
0.116735
0.19161
0.115779
0.341169
0.113811
0.315668
0.11086
0.168394
0.103557
-0.0200948
0.0978849
-0.310895
0.0975621
-0.254222
-0.00914218
0.12882
-0.0935709
0.129437
-0.119324
0.127205
-0.138584
0.122717
-0.149316
0.116337
-0.152017
0.108439
-0.150119
0.100902
-0.146468
0.0935272
-0.140347
0.0830833
-0.135013
0.0696367
-0.13611
0.0593899
-0.138981
0.0588874
-0.127881
0.0690883
-0.0911433
0.0864803
-0.0323674
0.107254
0.03511
0.127405
0.0957604
0.143811
0.139581
0.155253
0.166179
0.16296
0.178961
0.168678
0.18127
0.17307
0.182738
0.175771
0.198002
0.176043
0.227905
0.17345
0.248349
0.168431
0.22702
0.162498
0.150475
0.157198
0.0346726
0.15379
-0.0836333
0.152349
-0.173109
0.151872
-0.218478
0.150336
-0.231016
0.145625
-0.232844
0.136229
-0.235518
0.123094
-0.236168
0.110864
-0.220034
0.104844
-0.168105
0.107919
-0.0775836
0.118959
0.0291999
0.132246
0.124459
0.140558
0.200686
0.140556
0.264669
0.134082
0.310794
0.125353
0.304482
0.119768
0.223987
0.120639
0.0841345
0.125577
-0.059301
0.126674
-0.165356
0.12226
-0.254689
0.118017
-0.297305
0.1165
-0.277466
0.117925
-0.163692
0.118738
0.0229506
0.118728
0.19162
0.118588
0.341308
0.116331
0.317925
0.113167
0.171558
0.104628
-0.0115562
0.097742
-0.304008
0.0990227
-0.255503
-0.00747665
0.150749
-0.0945413
0.148283
-0.116858
0.141774
-0.132075
0.132504
-0.140047
0.122491
-0.142004
0.11215
-0.139777
0.102305
-0.136624
0.0941222
-0.132163
0.0846962
-0.125587
0.0710003
-0.122414
0.0566754
-0.124657
0.049999
-0.121204
0.0557034
-0.0968477
0.0718988
-0.0485627
0.0942679
0.0127408
0.11742
0.0726078
0.137387
0.119614
0.152467
0.151099
0.163453
0.167975
0.171932
0.172791
0.179101
0.17557
0.18522
0.191883
0.189239
0.223885
0.189683
0.247906
0.185819
0.230883
0.178167
0.158127
0.16928
0.0435595
0.161962
-0.0763146
0.156792
-0.167939
0.153097
-0.214783
0.149167
-0.227086
0.143108
-0.226784
0.133281
-0.225692
0.119915
-0.222802
0.107427
-0.207546
0.101772
-0.162451
0.106119
-0.0819303
0.118895
0.0164242
0.133823
0.109531
0.143813
0.190696
0.145485
0.262997
0.140091
0.316188
0.131207
0.313365
0.124187
0.231007
0.123159
0.0851629
0.127282
-0.0634242
0.128194
-0.166268
0.122916
-0.24941
0.11778
-0.292169
0.116009
-0.275696
0.11827
-0.165953
0.120063
0.0211578
0.121164
0.190519
0.121807
0.340665
0.119309
0.320423
0.11606
0.174808
0.106515
-0.00201144
0.0983983
-0.295892
0.101011
-0.258116
-0.00678977
0.168937
-0.092774
0.162798
-0.110719
0.152745
-0.122023
0.140238
-0.127539
0.127516
-0.129282
0.115713
-0.127974
0.104414
-0.125325
0.0947975
-0.122547
0.0865671
-0.117356
0.0752734
-0.11112
0.0600954
-0.109479
0.0482031
-0.109312
0.0478672
-0.0965118
0.0605944
-0.06129
0.0825235
-0.00918825
0.107173
0.0479587
0.129773
0.0970133
0.147993
0.13288
0.161989
0.153978
0.173092
0.161689
0.182923
0.165738
0.192318
0.182488
0.200216
0.215987
0.20423
0.243892
0.202273
0.232841
0.194008
0.166392
0.181822
0.0557454
0.170369
-0.0648618
0.161338
-0.158908
0.154526
-0.207971
0.148365
-0.220925
0.141169
-0.219589
0.131321
-0.215843
0.118176
-0.209657
0.105488
-0.194858
0.0997486
-0.156712
0.104731
-0.086913
0.118775
0.00238033
0.135287
0.0930185
0.147321
0.178663
0.151223
0.259095
0.147388
0.320024
0.138555
0.322197
0.130063
0.239499
0.12668
0.0885454
0.129512
-0.066256
0.130232
-0.166987
0.124153
-0.243331
0.117965
-0.285981
0.115775
-0.273506
0.118872
-0.169049
0.121758
0.0182716
0.123963
0.188313
0.125365
0.339264
0.12266
0.323129
0.119477
0.177991
0.109193
0.00827237
0.0998296
-0.286529
0.103495
-0.261781
-0.00708146
0.181269
-0.0870117
0.171096
-0.100546
0.158009
-0.108935
0.143976
-0.113507
0.130381
-0.115687
0.11836
-0.115953
0.107356
-0.114321
0.096966
-0.112157
0.0885639
-0.108954
0.0802021
-0.102759
0.0676895
-0.096966
0.0534452
-0.0950679
0.046688
-0.0897546
0.0536544
-0.0682564
0.0721405
-0.0276743
0.0967084
0.0233908
0.120938
0.0727839
0.141789
0.112029
0.15853
0.137237
0.171968
0.148251
0.183987
0.153719
0.196221
0.170255
0.207785
0.204423
0.215237
0.23644
0.21527
0.232808
0.207122
0.17454
0.193115
0.069752
0.178259
-0.0500055
0.165663
-0.146313
0.156022
-0.198329
0.147813
-0.212716
0.139541
-0.211317
0.129938
-0.206241
0.117572
-0.19729
0.104891
-0.182178
0.0985891
-0.15041
0.103475
-0.0917984
0.118254
-0.0123991
0.136305
0.0749672
0.150675
0.164293
0.157149
0.252621
0.155292
0.321881
0.146972
0.330517
0.137279
0.249192
0.131255
0.0945697
0.132237
-0.0672385
0.132674
-0.167425
0.125921
-0.236578
0.118556
-0.278617
0.115749
-0.270698
0.119656
-0.172957
0.123724
0.0142038
0.127023
0.185014
0.129176
0.33711
0.126295
0.326009
0.123336
0.18095
0.112607
0.0190022
0.102007
-0.27593
0.106425
-0.266199
-0.00834435
0.186
-0.0774705
0.17327
-0.0878157
0.158833
-0.0944989
0.144612
-0.0992851
0.131434
-0.102509
0.119691
-0.10421
0.109447
-0.104076
0.0996362
-0.102346
0.0907544
-0.100072
0.0838025
-0.0958067
0.0755891
-0.0887525
0.0633168
-0.0827956
0.0522671
-0.078705
0.051665
-0.0676542
0.0643209
-0.0403303
0.0864536
0.00125816
0.110916
0.0483217
0.133628
0.0893169
0.152793
0.118072
0.168468
0.132576
0.182374
0.139813
0.19666
0.155969
0.211146
0.189936
0.222216
0.22537
0.225052
0.229972
0.217595
0.181997
0.202295
0.0850518
0.184914
-0.0326242
0.169398
-0.130797
0.157316
-0.186248
0.147383
-0.202783
0.138123
-0.202057
0.128804
-0.196921
0.117681
-0.186167
0.105429
-0.169926
0.0982012
-0.143182
0.102188
-0.0957851
0.116997
-0.0272079
0.136494
0.0554698
0.153447
0.14734
0.163025
0.243044
0.163904
0.321002
0.156596
0.337825
0.145812
0.259977
0.136879
0.103503
0.135423
-0.0657829
0.135386
-0.167388
0.128133
-0.229324
0.119526
-0.27001
0.115874
-0.267046
0.120531
-0.177613
0.125863
0.00887132
0.130257
0.18062
0.133164
0.334204
0.130127
0.329046
0.127526
0.183551
0.116697
0.0298315
0.104899
-0.264132
0.109752
-0.271052
-0.0105592
0.182513
-0.0662039
0.169633
-0.0749366
0.156264
-0.0811297
0.143413
-0.0864341
0.131561
-0.0906568
0.120624
-0.0932739
0.110883
-0.0943353
0.102106
-0.0935694
0.0935504
-0.0915163
0.0863796
-0.0886359
0.0808966
-0.0832695
0.0734633
-0.0753623
0.0629467
-0.0681884
0.0561323
-0.0608398
0.0608508
-0.0450487
0.0773955
-0.0152866
0.100389
0.0253279
0.123815
0.0658912
0.14464
0.0972473
0.161967
0.115248
0.17723
0.12455
0.193202
0.139997
0.210379
0.172759
0.224476
0.211273
0.22963
0.224818
0.223445
0.188182
0.208324
0.100173
0.189804
-0.0141041
0.172258
-0.113251
0.158208
-0.172197
0.146882
-0.191457
0.136758
-0.191933
0.127605
-0.187769
0.117994
-0.176556
0.106801
-0.158732
0.0985969
-0.134978
0.100797
-0.0979856
0.114928
-0.0413382
0.135616
0.0347817
0.155156
0.127799
0.167901
0.230299
0.171833
0.317071
0.166453
0.343205
0.155074
0.271355
0.143413
0.115164
0.139027
-0.0613966
0.138226
-0.166587
0.130675
-0.221773
0.120841
-0.260177
0.1161
-0.262304
0.121406
-0.18292
0.128073
0.00220471
0.133547
0.175147
0.137227
0.330523
0.134069
0.332205
0.131927
0.185693
0.121383
0.0403746
0.108463
-0.251212
0.11343
-0.276018
-0.0136902
0.174677
-0.0559413
0.163499
-0.0637582
0.152109
-0.0697397
0.140964
-0.0752888
0.130323
-0.0800163
0.120311
-0.0832616
0.111032
-0.085056
0.102922
-0.0854598
0.0956298
-0.0842242
0.0887354
-0.0817415
0.0835073
-0.0780415
0.0797087
-0.0715636
0.0739324
-0.0624121
0.0662744
-0.0531818
0.0637512
-0.0425255
0.072311
-0.0238464
0.0911859
0.00645291
0.113826
0.0432514
0.135553
0.0755201
0.153955
0.0968458
0.16975
0.108756
0.186111
0.123636
0.204736
0.154135
0.222083
0.193926
0.231138
0.215763
0.227204
0.192116
0.21235
0.115027
0.192903
0.00534322
0.174013
-0.0943617
0.158491
-0.156675
0.146143
-0.17911
0.135347
-0.181136
0.126146
-0.178568
0.117984
-0.168394
0.108539
-0.149287
0.0998205
-0.12626
0.0995687
-0.0977338
0.112005
-0.0537741
0.133309
0.0134778
0.15553
0.105578
0.171938
0.21389
0.179433
0.309576
0.176556
0.346082
0.164933
0.282978
0.150597
0.1295
0.14294
-0.0537401
0.141041
-0.164687
0.133398
-0.214131
0.122449
-0.249227
0.116373
-0.256229
0.122182
-0.188728
0.130263
-0.00587647
0.136827
0.168583
0.1413
0.32605
0.138045
0.335461
0.136451
0.187286
0.126545
0.0502806
0.112641
-0.237307
0.117411
-0.280788
-0.0176832
0.166271
-0.0476857
0.157012
-0.0544985
0.147279
-0.0600074
0.1375
-0.0655092
0.127858
-0.0703743
0.118706
-0.0741104
0.110232
-0.0765818
0.102597
-0.0778244
0.0961353
-0.0777627
0.0904723
-0.0760785
0.0853856
-0.0729548
0.0820819
-0.0682599
0.0801542
-0.0604844
0.0766606
-0.0496882
0.072252
-0.0381169
0.0732158
-0.0248102
0.0844472
-0.00477848
0.103827
0.0238721
0.125324
0.054023
0.144591
0.0775784
0.16082
0.0925267
0.176901
0.107555
0.195773
0.135263
0.214734
0.174965
0.225863
0.204634
0.224136
0.193843
0.211582
0.127581
0.193793
0.0231327
0.174701
-0.0752699
0.15805
-0.140024
0.144907
-0.165966
0.133673
-0.169902
0.124275
-0.16917
0.117206
-0.161326
0.10998
-0.142061
0.101679
-0.117958
0.0988586
-0.0949138
0.108521
-0.0634362
0.129607
-0.00760855
0.153964
0.081221
0.173634
0.194219
0.184818
0.298393
0.185191
0.345709
0.174697
0.293471
0.158235
0.145962
0.147119
-0.0426243
0.143695
-0.161263
0.136118
-0.206554
0.124268
-0.237377
0.116643
-0.248604
0.12276
-0.194846
0.132326
-0.0154423
0.139966
0.160943
0.145255
0.32076
0.141985
0.33873
0.140996
0.188275
0.132092
0.0591843
0.117368
-0.222583
0.121657
-0.285077
-0.02246
0.158064
-0.0409552
0.150045
-0.0464792
0.141431
-0.0513933
0.13262
-0.056698
0.123859
-0.0616141
0.115476
-0.0657267
0.107787
-0.0688932
0.100867
-0.0709048
0.0948372
-0.0717325
0.0899793
-0.0712207
0.0859608
-0.0689362
0.082783
-0.0650822
0.0816161
-0.0593174
0.0819343
-0.0500064
0.0813114
-0.0374941
0.0806542
-0.024153
0.0850938
-0.0092181
0.0974286
0.0115374
0.115091
0.0363604
0.133363
0.0593066
0.149753
0.0761367
0.16618
0.0911272
0.185577
0.115866
0.206059
0.154483
0.220409
0.190284
0.221762
0.192489
0.21068
0.138663
0.192491
0.0413216
0.173484
-0.0562629
0.15635
-0.12289
0.142862
-0.152479
0.131566
-0.158606
0.122
-0.159604
0.115524
-0.154849
0.110525
-0.137062
0.103686
-0.11112
0.0989227
-0.0901502
0.10489
-0.069404
0.124467
-0.0271848
0.150835
0.0548531
0.174414
0.170641
0.189373
0.283433
0.192553
0.34253
0.183738
0.302286
0.165977
0.163724
0.151358
-0.0280057
0.146026
-0.155931
0.138679
-0.199207
0.126265
-0.224963
0.116978
-0.239316
0.123032
-0.2009
0.134226
-0.0266355
0.142953
0.152215
0.149069
0.314644
0.14584
0.341959
0.145505
0.18861
0.137881
0.0668079
0.122574
-0.207276
0.126137
-0.288639
-0.0279167
0.149029
-0.0353643
0.142109
-0.0395591
0.134765
-0.0440491
0.127053
-0.0489857
0.119352
-0.0539134
0.112006
-0.0583811
0.105211
-0.0620985
0.0991308
-0.0648241
0.0937525
-0.0663543
0.089206
-0.0666741
0.085696
-0.0654262
0.0829356
-0.0623218
0.0812305
-0.0576123
0.0817384
-0.0505143
0.0838735
-0.0396291
0.0857224
-0.0260019
0.0880224
-0.0115181
0.0947757
0.00478406
0.106538
0.0245984
0.120623
0.0452216
0.134889
0.0618707
0.150112
0.075904
0.168631
0.0973476
0.190396
0.132718
0.208261
0.172419
0.212595
0.188156
0.204657
0.146602
0.190971
0.0550075
0.173246
-0.0385388
0.155369
-0.105013
0.141188
-0.138298
0.129805
-0.147223
0.120022
-0.149821
0.11354
-0.148368
0.110218
-0.13374
0.105378
-0.10628
0.0996974
-0.0844693
0.102005
-0.0717111
0.118298
-0.0434786
0.144723
0.0284281
0.171048
0.144316
0.190305
0.264176
0.197733
0.335102
0.19158
0.308439
0.173941
0.181362
0.156277
-0.0103416
0.148383
-0.148036
0.141245
-0.192069
0.12854
-0.212258
0.117701
-0.228478
0.123176
-0.206375
0.135721
-0.0391805
0.145601
0.142336
0.152597
0.307648
0.149549
0.345007
0.149933
0.188227
0.143827
0.0729138
0.128215
-0.191664
0.130812
-0.291237
-0.0339342
0.199673
-0.0305523
-0.204485
0.19572
-0.0356067
0.19165
-0.039979
0.187044
-0.0443795
0.181818
-0.0486878
0.176087
-0.0526502
0.16997
-0.0559807
0.163563
-0.0584173
0.156936
-0.059727
0.150087
-0.0598253
0.143157
-0.0584963
0.136292
-0.055457
0.129365
-0.0506856
0.122727
-0.0438758
0.117093
-0.033995
0.11233
-0.0212388
0.107946
-0.00713468
0.104262
0.00846823
0.103078
0.0257828
0.10548
0.0428196
0.111465
0.055885
0.12038
0.0669895
0.13139
0.0863372
0.143117
0.120991
0.153604
0.161932
0.165882
0.175877
0.183607
0.128877
0.198265
0.0403497
0.202184
-0.0424578
0.196024
-0.0988526
0.185338
-0.127612
0.173139
-0.135025
0.160791
-0.137472
0.149689
-0.137266
0.140837
-0.124888
0.130788
-0.0962307
0.1195
-0.0731815
0.114374
-0.0665856
0.120415
-0.0495194
0.133722
0.0151211
0.146345
0.131693
0.15703
0.253491
0.165379
0.326752
0.170579
0.30324
0.170439
0.181502
0.166006
-0.00590916
0.163192
-0.145222
0.156382
-0.185259
0.143122
-0.198998
0.128455
-0.213811
0.125983
-0.203902
0.130033
-0.0432306
0.132875
0.139494
0.137248
0.303275
0.137183
0.345072
0.141392
0.184019
0.139575
0.0747306
0.125511
-0.1776
0.124251
-0.289978
-0.0377708
0.207665
-0.0267024
-0.211515
0.203541
-0.0314824
0.199315
-0.0357527
0.194646
-0.0397109
0.189427
-0.0434691
0.18368
-0.0469028
0.177513
-0.0498139
0.171049
-0.0519533
0.164422
-0.0530998
0.157759
-0.0531623
0.15115
-0.0518871
0.144814
-0.0491212
0.138905
-0.0447768
0.133451
-0.0384221
0.128827
-0.0293705
0.125499
-0.0179107
0.122917
-0.00455327
0.120536
0.0108496
0.118306
0.0280127
0.117678
0.0434479
0.120174
0.0533888
0.126425
0.0607388
0.135591
0.0771707
0.145707
0.110875
0.157345
0.150294
0.175488
0.157734
0.198192
0.106174
0.213785
0.0247566
0.215584
-0.0442566
0.207169
-0.0904374
0.194962
-0.115404
0.182289
-0.122352
0.169924
-0.125108
0.158653
-0.125995
0.150389
-0.116625
0.141905
-0.0877458
0.130947
-0.0622236
0.124056
-0.0596945
0.128599
-0.0540629
0.142774
0.000946071
0.157469
0.116998
0.170549
0.240411
0.181287
0.316014
0.18829
0.296237
0.188682
0.181109
0.182846
-7.28072e-05
0.177699
-0.140075
0.169597
-0.177156
0.155171
-0.184572
0.138604
-0.197244
0.135879
-0.201177
0.141072
-0.0484239
0.144387
0.136178
0.149234
0.298428
0.149473
0.344833
0.154426
0.179066
0.153825
0.0753311
0.138727
-0.162502
0.136141
-0.287391
-0.0416674
0.215866
-0.0236455
-0.218922
0.212146
-0.0277627
0.208088
-0.0316949
0.20367
-0.0352929
0.198808
-0.0386066
0.193483
-0.0415781
0.187758
-0.044089
0.181754
-0.0459491
0.175579
-0.0469255
0.169338
-0.0469205
0.163126
-0.0456756
0.15706
-0.0430554
0.15129
-0.0390069
0.146024
-0.0331554
0.1416
-0.0249473
0.138562
-0.0148717
0.137152
-0.00314416
0.13662
0.0113823
0.13616
0.0284724
0.135857
0.0437512
0.136456
0.0527897
0.138591
0.0586034
0.142638
0.0731243
0.150092
0.10342
0.165567
0.134819
0.190937
0.132364
0.216373
0.0807376
0.229604
0.0115257
0.228726
-0.043379
0.218979
-0.0806903
0.206563
-0.102989
0.194115
-0.109904
0.181887