/*--------------------------------*- C++ -*----------------------------------*\
| =========                 |                                                 |
| \\      /  F ield         | OpenFOAM: The Open Source CFD Toolbox           |
|  \\    /   O peration     | Version:  2312                                  |
|   \\  /    A nd           | Website:  www.openfoam.com                      |
|    \\/     M anipulation  |                                                 |
\*---------------------------------------------------------------------------*/
FoamFile
{
    version     2.0;
    format      ascii;
    arch        "LSB;label=32;scalar=64";
    class       volScalarField;
    location    "47.5";
    object      p;
}
// * * * * * * * * * * * * * * * * * * * * * * * * * * * * * * * * * * * * * //

dimensions      [0 2 -2 0 0 0 0];

internalField   nonuniform List<scalar> 
5478
(
-0.42906
-0.426223
-0.420544
-0.414533
-0.410323
-0.409003
-0.410369
-0.413005
-0.414843
-0.413469
-0.407164
-0.393593
-0.37472
-0.34756
-0.315762
-0.435552
-0.432402
-0.42672
-0.420567
-0.41517
-0.410781
-0.406756
-0.401958
-0.395024
-0.38485
-0.370702
-0.353058
-0.332368
-0.308448
-0.284478
-0.447074
-0.442662
-0.436596
-0.429471
-0.4214
-0.411956
-0.401025
-0.388497
-0.374228
-0.358164
-0.340623
-0.321584
-0.301199
-0.279403
-0.256707
-0.463301
-0.456923
-0.449177
-0.439597
-0.426713
-0.4107
-0.392798
-0.374019
-0.35486
-0.335553
-0.315925
-0.295985
-0.275731
-0.255084
-0.23532
-0.4845
-0.474941
-0.464557
-0.450177
-0.430264
-0.407086
-0.383153
-0.35972
-0.337193
-0.315492
-0.294522
-0.274132
-0.254075
-0.234571
-0.215411
-0.511213
-0.496561
-0.482156
-0.459967
-0.431349
-0.401138
-0.372067
-0.344989
-0.319911
-0.296617
-0.274761
-0.254039
-0.234288
-0.215412
-0.197094
-0.542066
-0.521289
-0.498956
-0.466119
-0.428368
-0.391752
-0.358364
-0.328374
-0.301384
-0.276882
-0.254445
-0.233732
-0.214444
-0.196424
-0.178942
-0.571189
-0.545656
-0.510754
-0.465543
-0.419301
-0.377245
-0.340346
-0.308106
-0.279742
-0.254577
-0.232015
-0.21161
-0.193119
-0.176209
-0.160289
-0.394855
-0.395562
-0.396157
-0.398405
-0.402553
-0.408592
-0.416565
-0.426478
-0.438171
-0.451182
-0.464597
-0.4769
-0.485863
-0.489183
-0.483862
-0.407684
-0.407508
-0.408232
-0.411356
-0.417107
-0.425667
-0.437311
-0.452292
-0.470657
-0.492012
-0.515242
-0.538374
-0.557517
-0.572557
-0.570633
-0.418162
-0.416863
-0.41749
-0.420853
-0.427354
-0.437278
-0.451023
-0.468972
-0.491234
-0.517415
-0.546124
-0.575484
-0.599665
-0.618611
-0.617792
-0.425143
-0.422706
-0.422655
-0.425342
-0.431326
-0.441001
-0.454765
-0.472987
-0.495743
-0.522706
-0.551846
-0.58248
-0.605588
-0.623346
-0.620054
-0.42845
-0.425103
-0.423829
-0.424847
-0.429007
-0.436869
-0.448806
-0.4651
-0.48562
-0.510234
-0.536409
-0.563861
-0.582861
-0.593318
-0.583213
-0.428832
-0.425048
-0.422267
-0.420901
-0.422285
-0.427287
-0.43639
-0.449849
-0.467454
-0.488742
-0.51075
-0.531296
-0.542324
-0.542652
-0.522989
-0.427752
-0.424071
-0.41987
-0.416057
-0.414569
-0.416729
-0.423273
-0.434348
-0.449188
-0.465257
-0.479836
-0.489535
-0.489185
-0.478879
-0.451547
-0.427104
-0.423847
-0.418614
-0.413087
-0.409658
-0.409961
-0.414563
-0.422542
-0.432214
-0.440371
-0.444784
-0.441393
-0.429276
-0.408876
-0.379526
-0.468839
-0.436942
-0.395723
-0.350302
-0.312461
-0.292385
-0.303136
-0.348717
-0.410051
-0.433219
-0.387472
-0.301006
-0.224678
-0.191047
-0.192577
-0.221878
-0.293201
-0.361409
-0.359654
-0.288333
-0.212898
-0.163911
-0.13751
-0.133668
-0.137462
-0.125056
-0.101484
-0.079305
-0.0636517
-0.0528794
-0.0471513
-0.0450222
-0.0418597
-0.0352207
-0.0262722
-0.0171208
-0.00940207
-0.00252259
-0.558202
-0.516855
-0.461496
-0.397096
-0.336752
-0.292615
-0.275851
-0.297962
-0.345361
-0.375117
-0.34748
-0.277301
-0.214292
-0.195491
-0.206831
-0.245336
-0.321839
-0.392611
-0.39057
-0.312294
-0.223521
-0.161093
-0.124952
-0.11273
-0.112697
-0.10426
-0.087724
-0.0725452
-0.0617883
-0.0540206
-0.0501207
-0.0485257
-0.0445821
-0.0368678
-0.027174
-0.0176097
-0.00967983
-0.00265794
-0.602315
-0.55838
-0.491824
-0.413138
-0.33457
-0.270724
-0.232867
-0.228944
-0.258603
-0.291232
-0.284068
-0.234432
-0.192577
-0.191012
-0.210541
-0.254848
-0.336273
-0.410233
-0.411727
-0.328846
-0.230391
-0.157024
-0.113037
-0.093291
-0.0882579
-0.0831391
-0.0737495
-0.0657887
-0.0599255
-0.0553005
-0.0531602
-0.0519545
-0.0473041
-0.0383184
-0.0279437
-0.0180373
-0.00993408
-0.00278855
-0.595663
-0.552722
-0.485598
-0.400003
-0.312358
-0.236077
-0.18229
-0.159847
-0.167552
-0.194141
-0.200215
-0.174869
-0.159112
-0.174904
-0.202367
-0.250861
-0.335939
-0.414685
-0.419835
-0.337993
-0.233717
-0.152508
-0.1027
-0.0761547
-0.0655094
-0.0620809
-0.0598006
-0.0591425
-0.0580047
-0.0565704
-0.0561682
-0.0552181
-0.0496615
-0.0395402
-0.0285694
-0.0183956
-0.0101592
-0.00290982
-0.546998
-0.510818
-0.45383
-0.374594
-0.290358
-0.211264
-0.145277
-0.105245
-0.0962524
-0.107894
-0.118353
-0.112785
-0.1202
-0.152715
-0.186645
-0.233066
-0.319252
-0.40595
-0.420849
-0.343501
-0.234447
-0.147724
-0.0942265
-0.0624122
-0.0462947
-0.041842
-0.046377
-0.0524825
-0.0558895
-0.0578504
-0.0591278
-0.0582526
-0.0517095
-0.0405216
-0.0290472
-0.0186811
-0.010354
-0.00301903
-0.478474
-0.450303
-0.407901
-0.342797
-0.271749
-0.2038
-0.138573
-0.0836918
-0.0550854
-0.0473115
-0.0499004
-0.0589009
-0.0853307
-0.128635
-0.164423
-0.20467
-0.2849
-0.376236
-0.398813
-0.334925
-0.23056
-0.142691
-0.0871625
-0.0522328
-0.031749
-0.0250406
-0.0342647
-0.0461087
-0.0537425
-0.0589822
-0.0618595
-0.0609257
-0.0533548
-0.0412355
-0.029376
-0.0188968
-0.0105254
-0.00311793
-0.40694
-0.387839
-0.358078
-0.309267
-0.251899
-0.19406
-0.137751
-0.0834617
-0.0375629
-0.00835141
-6.7006e-05
-0.0078487
-0.0471655
-0.0971003
-0.132324
-0.166707
-0.245904
-0.34399
-0.382709
-0.328871
-0.228648
-0.140665
-0.0831814
-0.0463853
-0.0227874
-0.013026
-0.0232805
-0.0393593
-0.0510189
-0.0599832
-0.0644807
-0.0632851
-0.0546865
-0.0417236
-0.0295905
-0.0190605
-0.0106801
-0.00320831
-0.352448
-0.342068
-0.319426
-0.284962
-0.243903
-0.197628
-0.150962
-0.101244
-0.0540149
-0.0154741
0.0119882
0.0245849
-0.00657909
-0.0553199
-0.0902176
-0.122969
-0.199128
-0.293281
-0.333705
-0.304859
-0.220956
-0.138792
-0.0806416
-0.0421547
-0.0166928
-0.00523209
-0.0154927
-0.0333702
-0.0482068
-0.0606157
-0.066596
-0.0649432
-0.055517
-0.0419575
-0.0296297
-0.01911
-0.0107638
-0.00326854
-0.310872
-0.314921
-0.289678
-0.253707
-0.214766
-0.172826
-0.13011
-0.0855214
-0.0409379
-0.00428089
0.0301172
0.053255
0.0442897
0.00629764
-0.0250139
-0.0622014
-0.155008
-0.26336
-0.323863
-0.27749
-0.195254
-0.12007
-0.0673019
-0.0325992
-0.00894546
0.00185519
-0.00646295
-0.0262619
-0.0442775
-0.0606352
-0.0689344
-0.0668713
-0.0557989
-0.0415168
-0.0292038
-0.0188975
-0.0107038
-0.00327603
-0.257331
-0.26515
-0.245027
-0.212386
-0.177896
-0.142241
-0.106043
-0.0683068
-0.0293224
0.00468453
0.0389013
0.0644558
0.0624989
0.0398239
0.0203717
-0.0193273
-0.123962
-0.236647
-0.282937
-0.239097
-0.165821
-0.100761
-0.0547443
-0.0237056
-0.00258649
0.00655142
-0.00409764
-0.0217198
-0.0413549
-0.0607916
-0.0709932
-0.0676831
-0.0552056
-0.0406066
-0.0285483
-0.0185794
-0.0105869
-0.00327093
-0.215961
-0.225393
-0.210811
-0.183684
-0.154181
-0.123275
-0.0919987
-0.059114
-0.0230658
0.00816958
0.0374358
0.0671778
0.0715315
0.0561055
0.0427669
-0.000416255
-0.104888
-0.204347
-0.236306
-0.197512
-0.137131
-0.0823885
-0.0429849
-0.0154184
0.0038897
0.0112966
-0.000263702
-0.0179576
-0.0392864
-0.0609204
-0.072468
-0.0676972
-0.0539727
-0.0393607
-0.0277157
-0.0181722
-0.0104281
-0.0032614
-0.18189
-0.188853
-0.178213
-0.155834
-0.130132
-0.103119
-0.0756977
-0.0479301
-0.0172825
0.0106464
0.0355682
0.0615312
0.0683119
0.0574476
0.0472074
0.00811566
-0.0804607
-0.161053
-0.182911
-0.152246
-0.106007
-0.0631122
-0.0309507
-0.0070621
0.0108489
0.0161371
0.00231996
-0.0148905
-0.0371915
-0.0604509
-0.0731205
-0.0663888
-0.0519058
-0.0376742
-0.0266387
-0.0176384
-0.0102062
-0.00323636
-0.148878
-0.155486
-0.148447
-0.130746
-0.109398
-0.087
-0.0641676
-0.0410947
-0.0153841
0.00838305
0.0298328
0.0516696
0.0603117
0.053103
0.0433176
0.0142053
-0.0497524
-0.110114
-0.128883
-0.110326
-0.0794651
-0.047034
-0.0201832
0.000917199
0.0191368
0.0245403
0.0110099
-0.00861481
-0.033428
-0.0592517
-0.0721905
-0.0636131
-0.0489704
-0.0355743
-0.0253421
-0.0169865
-0.00992441
-0.00319647
-0.120453
-0.127271
-0.122497
-0.108594
-0.0912227
-0.0729076
-0.0539707
-0.0347498
-0.0139195
0.006353
0.0241846
0.0414395
0.0506644
0.0468335
0.0380492
0.0184114
-0.0234972
-0.066202
-0.0851731
-0.0763569
-0.0549502
-0.0306493
-0.00916413
0.00866888
0.0265784
0.0359977
0.0291873
0.00416103
-0.0271624
-0.0571325
-0.0688199
-0.0590439
-0.0451612
-0.0330783
-0.023829
-0.0162088
-0.00957562
-0.00313556
-0.0975079
-0.103159
-0.0996353
-0.0889475
-0.0751197
-0.0604066
-0.0451623
-0.0295486
-0.0131349
0.00344025
0.0181688
0.0315233
0.0399844
0.0389261
0.0323063
0.0192282
-0.00715383
-0.0361597
-0.0515161
-0.0486903
-0.0353083
-0.0183549
-0.000731341
0.0156657
0.0335235
0.0480566
0.0464272
0.0185988
-0.0199599
-0.0524255
-0.0620083
-0.0526182
-0.040615
-0.0302631
-0.022138
-0.0153167
-0.00916365
-0.00305397
-0.0768682
-0.0816558
-0.0798125
-0.07216
-0.0615333
-0.0498403
-0.0376155
-0.0251648
-0.0122983
0.000759165
0.0125691
0.0228185
0.0299213
0.0307061
0.0264525
0.0175871
0.00143716
-0.016904
-0.0289237
-0.0291559
-0.0200197
-0.00708858
0.00722243
0.0217541
0.0382642
0.0553893
0.0547697
0.0277805
-0.0120039
-0.0426495
-0.0508327
-0.0447406
-0.0356053
-0.0272301
-0.0203062
-0.014317
-0.00868763
-0.0029502
-0.0584339
-0.0631257
-0.062549
-0.0570811
-0.0489726
-0.0399595
-0.0306121
-0.0210148
-0.011161
-0.00118971
0.00803642
0.0159106
0.0215959
0.0232902
0.0210102
0.0153954
0.00584933
-0.00539453
-0.0133064
-0.0139465
-0.0078755
0.00148869
0.0125824
0.0251322
0.0396026
0.0518828
0.0540036
0.0317758
-0.00263788
-0.0294963
-0.0387051
-0.0365869
-0.0305236
-0.0241152
-0.0183894
-0.0132278
-0.00814874
-0.00281913
-0.0430675
-0.0474213
-0.0475505
-0.0437651
-0.0378074
-0.0310604
-0.0240477
-0.0168461
-0.00948135
-0.0020544
0.00491843
0.0108874
0.015328
0.0173262
0.0165786
0.0134238
0.00799969
0.00163931
-0.00311257
-0.00369375
0.000469262
0.00769397
0.0165483
0.0267986
0.0385467
0.0481133
0.0490022
0.0323063
0.00487408
-0.0179296
-0.0280574
-0.0290378
-0.0256218
-0.0209864
-0.0164067
-0.0120605
-0.00755733
-0.00267039
-0.0299855
-0.0337242
-0.0343356
-0.0319427
-0.0277631
-0.022873
-0.0177547
-0.0125137
-0.00716406
-0.00178538
0.00331961
0.0077703
0.0112079
0.0131564
0.0133633
0.0119559
0.00921335
0.00590938
0.00343651
0.00341975
0.0065408
0.0120045
0.0187857
0.0266512
0.0354553
0.0422045
0.0421378
0.0298126
0.00908361
-0.00942327
-0.0194478
-0.022361
-0.0209651
-0.0178685
-0.0143851
-0.0108369
-0.00692457
-0.00249985
-0.0183916
-0.0217804
-0.0228403
-0.0215361
-0.0187405
-0.0153255
-0.011734
-0.00806129
-0.00431142
-0.000532717
0.00310368
0.00634063
0.00895617
0.0106975
0.0113961
0.011074
0.00992062
0.00845182
0.00739579
0.00792707
0.010358
0.0144199
0.0194736
0.0252359
0.0313792
0.0357037
0.0349919
0.0259409
0.0107232
-0.00377023
-0.0129579
-0.016675
-0.0167263
-0.0149405
-0.0124175
-0.00959605
-0.00626035
-0.00231964
-0.00826519
-0.0113853
-0.0127297
-0.0122233
-0.010506
-0.00825816
-0.00584859
-0.00338164
-0.000863867
0.00168053
0.00415589
0.00640683
0.00830492
0.00972208
0.0105787
0.0109088
0.0107788
0.0104111
0.0102846
0.0110463
0.0128936
0.0158753
0.0195957
0.0235861
0.0273946
0.0298271
0.0286985
0.022131
0.0112455
0.000205207
-0.00769363
-0.0117969
-0.0127899
-0.0119737
-0.0103532
-0.00827434
-0.00554446
-0.00211714
0.000279841
-0.00250228
-0.00396712
-0.00401876
-0.00310354
-0.00174197
-0.000245721
0.00128033
0.00283421
0.00441323
0.00597556
0.00744148
0.00873205
0.00978617
0.0105578
0.0110295
0.011239
0.0113683
0.0117164
0.0124652
0.0139294
0.016031
0.0185252
0.0211352
0.0235216
0.0247045
0.0233745
0.0185138
0.0106842
0.00239161
-0.00410532
-0.00791459
-0.00945116
-0.00941954
-0.00856878
-0.00711342
-0.00490808
-0.00194802
0.00814458
0.00563189
0.00408304
0.00361584
0.00392365
0.00460959
0.00541379
0.00623842
0.007078
0.00794162
0.00881853
0.00966974
0.0104625
0.0111719
0.0117858
0.0122976
0.0127173
0.0131004
0.0135274
0.0141337
0.0151461
0.0165299
0.0181289
0.0196344
0.0207396
0.0209026
0.0194705
0.0158463
0.0103053
0.00415018
-0.000994009
-0.00451253
-0.00629778
-0.00677285
-0.0064744
-0.00567305
-0.00406211
-0.0016811
0.0144861
0.0122092
0.010633
0.00987493
0.00972526
0.0098857
0.0101463
0.0104188
0.0106933
0.0109832
0.0112932
0.0116103
0.0119248
0.0122268
0.0125174
0.0127877
0.013032
0.013282
0.0136068
0.0140792
0.0147734
0.0156321
0.0165345
0.0173119
0.0177545
0.0174951
0.0160973
0.013289
0.00932168
0.00480044
0.000790759
-0.00207646
-0.0038344
-0.00476436
-0.00506523
-0.00485289
-0.00368523
-0.00165688
0.021147
0.0191238
0.0175751
0.0166244
0.0161429
0.015915
0.0157763
0.0156478
0.0155202
0.0154052
0.0153159
0.0152542
0.0152203
0.0152221
0.0152639
0.015338
0.0154387
0.0155472
0.0156831
0.0158575
0.0160882
0.0163569
0.0166426
0.0167615
0.0165578
0.0158274
0.0143929
0.0121308
0.00918668
0.00597811
0.0028269
0.000291788
-0.00147083
-0.00232448
-0.00303418
-0.00317521
-0.00253499
-0.00123444
0.0252646
0.023389
0.0218595
0.0207742
0.0200432
0.0195093
0.0190452
0.0185863
0.0181202
0.0176572
0.0172133
0.0167944
0.0164112
0.0160705
0.0157821
0.015549
0.01536
0.0152095
0.0151076
0.0150425
0.0150349
0.0150363
0.0149774
0.0147616
0.01432
0.0135129
0.0122291
0.0103792
0.00790945
0.00548685
0.00324227
0.00146227
8.90021e-05
-0.00104489
-0.0018882
-0.0022846
-0.00240707
-0.00133443
0.0314553
0.0298741
0.02842
0.0272193
0.0262587
0.0254536
0.0247194
0.0240021
0.0232871
0.0225784
0.0218864
0.0212181
0.0205817
0.0199877
0.0194491
0.0189617
0.0185236
0.0181098
0.0177199
0.0173347
0.0169562
0.0165283
0.0160541
0.0154366
0.0146287
0.0135333
0.0121218
0.0104087
0.00864222
0.00671414
0.00486649
0.00332501
0.00204553
0.00137479
0.000277886
-0.000483412
-0.000899528
-0.000816525
0.0331872
0.0316202
0.0302322
0.0290636
0.0280638
0.027152
0.0262645
0.0253679
0.0244589
0.0235467
0.0226456
0.0217627
0.0209082
0.0200892
0.0193195
0.0186041
0.0179459
0.0173259
0.0167486
0.0161846
0.0156484
0.0150915
0.0144827
0.0137693
0.0129209
0.0118701
0.0106264
0.00914413
0.00742559
0.00583614
0.00445474
0.00335454
0.00233314
0.00166256
0.000768961
7.94541e-05
-0.000221519
-0.000727232
0.0386435
0.0373759
0.0360639
0.034792
0.0335903
0.0324496
0.0313473
0.0302604
0.02918
0.0281041
0.0270385
0.0259857
0.0249511
0.0239385
0.0229625
0.0220248
0.0211377
0.0202757
0.0194495
0.0186252
0.0178255
0.0170015
0.0161406
0.0151744
0.0141292
0.0129175
0.0115981
0.0101248
0.00865719
0.00713392
0.00583026
0.00491813
0.0039977
0.00340327
0.0025885
0.00186554
0.000918489
-0.000216206
0.0386886
0.0374235
0.0362046
0.0350328
0.0338904
0.0327586
0.0316233
0.0304769
0.0293222
0.0281581
0.0270002
0.0258467
0.0247142
0.0236019
0.0225129
0.0214584
0.0204354
0.019447
0.0185129
0.0175702
0.0166871
0.0157802
0.014868
0.0139552
0.0129299
0.0118057
0.0106895
0.00933351
0.00803043
0.00682099
0.00537566
0.00436523
0.00344259
0.00304886
0.00221858
0.00184462
0.00207646
0.000587078
0.0415297
0.0403737
0.0391678
0.037934
0.0366896
0.0354422
0.0341976
0.0329548
0.0317171
0.0304801
0.0292493
0.0280203
0.0268038
0.0255985
0.0244186
0.0232603
0.0221398
0.021041
0.0199894
0.0189488
0.017948
0.016938
0.0159401
0.0148991
0.0138303
0.012638
0.0114349
0.0100501
0.00873365
0.00735139
0.00605658
0.00523307
0.00435186
0.00396259
0.00334901
0.00312451
0.0027592
0.000692921
-0.144834
-0.160852
-0.177823
-0.194274
-0.214292
-0.232027
-0.25609
-0.279315
-0.129023
-0.141831
-0.155834
-0.169067
-0.185189
-0.198766
-0.213541
-0.230313
-0.112868
-0.122608
-0.133101
-0.143391
-0.154719
-0.164729
-0.17462
-0.190331
-0.0974661
-0.104851
-0.112502
-0.120566
-0.128721
-0.13727
-0.147804
-0.162995
-0.0827803
-0.0884083
-0.0941143
-0.100931
-0.108099
-0.117041
-0.126126
-0.135392
-0.0691761
-0.0735465
-0.0780081
-0.0839142
-0.0899475
-0.0963742
-0.101299
-0.107943
-0.0564452
-0.0597535
-0.0630748
-0.0674146
-0.0714234
-0.0754701
-0.0795909
-0.0869636
-0.0444889
-0.046799
-0.0490395
-0.0520247
-0.0550453
-0.0588249
-0.0635745
-0.0693717
-0.0332892
-0.0348713
-0.0364894
-0.0389494
-0.0418586
-0.0453204
-0.048509
-0.0522453
-0.0229497
-0.0241289
-0.0254547
-0.0274728
-0.0296687
-0.0319239
-0.0340955
-0.0375219
-0.0134415
-0.0143237
-0.0152803
-0.0166873
-0.0182673
-0.0201505
-0.0223622
-0.0255106
-0.00461019
-0.00527456
-0.00599857
-0.00715217
-0.00860973
-0.0103857
-0.0122769
-0.0147418
0.0035316
0.00292403
0.0022578
0.00124737
1.03277e-05
-0.00141712
-0.00295113
-0.00507715
0.0109417
0.0103342
0.00968898
0.00880129
0.00772164
0.00643253
0.004975
0.00302957
0.0179094
0.0172429
0.0165973
0.015783
0.0147882
0.0135982
0.0122611
0.0105365
0.0238742
0.0231932
0.0224741
0.0216001
0.0205917
0.0194441
0.0181777
0.0166019
0.0301976
0.0292969
0.0284395
0.0275532
0.0266086
0.0255546
0.0243925
0.0229823
0.0345962
0.0337543
0.0328722
0.0318887
0.0308144
0.0296515
0.028413
0.0269976
0.0403177
0.0391631
0.0380469
0.0369716
0.0359398
0.0349227
0.03391
0.0328047
0.0431556
0.0421147
0.041038
0.0399033
0.0387157
0.0374611
0.0361435
0.034728
0.0477845
0.0464718
0.0451901
0.0439651
0.0428202
0.0417468
0.0407399
0.0397395
0.0490595
0.0477941
0.0465237
0.0452346
0.0439338
0.0426182
0.0413018
0.0399854
0.0511797
0.0498332
0.0485335
0.0472772
0.0460658
0.0448927
0.043757
0.0426416
0.0309635
0.033141
0.0339576
0.0328475
0.0295848
0.024264
0.0167321
0.00632548
-0.00807322
-0.0279985
-0.0555217
-0.0934718
-0.146424
-0.217796
-0.279615
0.00662624
0.00591857
0.00224962
-0.00329325
-0.0104838
-0.0196928
-0.0315612
-0.0469767
-0.0671261
-0.0936064
-0.128606
-0.174939
-0.236725
-0.318773
-0.381657
-0.01685
-0.0211724
-0.0291002
-0.0384806
-0.0491309
-0.0618727
-0.0776434
-0.0974313
-0.122465
-0.154412
-0.195577
-0.248813
-0.317364
-0.405102
-0.465514
-0.0418265
-0.0494947
-0.060317
-0.0722892
-0.0856383
-0.101425
-0.120581
-0.144031
-0.172962
-0.209115
-0.254942
-0.313114
-0.386222
-0.473285
-0.529367
-0.0679056
-0.0782492
-0.0907921
-0.104407
-0.119799
-0.138039
-0.159857
-0.186102
-0.21784
-0.256851
-0.305606
-0.366637
-0.440518
-0.522983
-0.572509
-0.0933589
-0.105888
-0.119563
-0.134476
-0.15148
-0.171591
-0.195264
-0.223319
-0.256893
-0.297507
-0.347283
-0.408146
-0.479618
-0.55409
-0.59584
-0.117737
-0.13133
-0.145931
-0.162135
-0.18066
-0.202045
-0.226832
-0.255808
-0.289996
-0.33069
-0.379545
-0.437739
-0.503594
-0.56689
-0.601582
-0.140087
-0.154541
-0.170216
-0.18765
-0.207292
-0.229508
-0.25479
-0.283832
-0.317518
-0.356908
-0.403151
-0.45647
-0.513457
-0.563049
-0.592499
0.190379
0.20469
0.220792
0.238816
0.258734
0.280488
0.304044
0.329373
0.356373
0.384758
0.413924
0.442709
0.46913
0.489405
0.505966
0.183998
0.196742
0.211481
0.228354
0.247097
0.267463
0.289358
0.312749
0.337513
0.363298
0.389393
0.414508
0.436477
0.451612
0.463212
0.173547
0.184002
0.196869
0.212125
0.229141
0.24742
0.266773
0.287136
0.308344
0.329957
0.351122
0.37037
0.38524
0.392146
0.396223
0.159024
0.166743
0.177367
0.190515
0.205174
0.220659
0.236709
0.253196
0.269846
0.28606
0.300783
0.312313
0.317821
0.313613
0.308079
0.140641
0.145518
0.153903
0.164755
0.176544
0.188481
0.200352
0.212035
0.223161
0.232937
0.240052
0.242524
0.237144
0.219997
0.202422
0.118637
0.120319
0.126398
0.13492
0.143707
0.151844
0.159147
0.16549
0.170402
0.172916
0.171495
0.163882
0.146478
0.115223
0.0842983
0.0939454
0.0928669
0.0966754
0.10222
0.107277
0.111111
0.113594
0.11445
0.112966
0.10795
0.0976503
0.0795575
0.0497327
0.00419014
-0.0397574
0.064671
0.0630185
0.065987
0.0685395
0.0693551
0.0683949
0.0657108
0.0608441
0.0528173
0.0402179
0.0210903
-0.00732055
-0.0492927
-0.108491
-0.163473
0.0470202
0.0489839
0.0482187
0.0494996
0.0495485
0.0514862
0.0524716
0.0549585
0.0570102
0.0602987
0.063675
0.0681074
0.073022
0.0789676
0.085595
0.093314
0.101836
0.111525
0.122134
0.133983
0.146798
0.160831
0.175775
0.0492154
0.0512749
0.0502851
0.0515728
0.0514193
0.0533396
0.0541226
0.0565309
0.0583968
0.0615558
0.0647401
0.0690094
0.0737201
0.0794531
0.0858289
0.0932496
0.101366
0.110618
0.120622
0.131852
0.143859
0.157081
0.170913
0.0514139
0.0535259
0.0523547
0.0535983
0.0532767
0.0551413
0.0557423
0.0580579
0.0597292
0.0627656
0.0657329
0.069843
0.0743279
0.079834
0.0859087
0.0929723
0.100522
0.109165
0.118291
0.12859
0.139325
0.151166
0.163018
0.0536155
0.0557337
0.0544268
0.0555721
0.0551136
0.0568827
0.0573251
0.0595236
0.0610103
0.0639055
0.0666474
0.0705711
0.0748192
0.0800855
0.0857791
0.092419
0.0992171
0.107093
0.115044
0.124068
0.132972
0.142798
0.151827
0.0558175
0.0578998
0.0564927
0.0574917
0.0569239
0.0585542
0.0588619
0.060915
0.0622226
0.0649572
0.0674758
0.0711859
0.0751945
0.0801393
0.0853146
0.0913445
0.0972279
0.1041
0.11063
0.11809
0.124724
0.132015
0.137339
0.0580147
0.0600287
0.0585393
0.0593614
0.0587048
0.0601502
0.0603359
0.0622192
0.0633514
0.0659111
0.0682074
0.0717012
0.0754969
0.0801585
0.0847122
0.0901432
0.0949674
0.100768
0.105454
0.110955
0.114577
0.118797
0.119777
0.0602014
0.0621239
0.0605583
0.0611862
0.0604494
0.0616735
0.061736
0.0634232
0.0644007
0.0667639
0.0688388
0.0720636
0.0755206
0.0796549
0.083501
0.0880195
0.0917563
0.0961121
0.0990799
0.102291
0.102927
0.10328
0.0993877
0.0623716
0.0641886
0.0625405
0.0629554
0.062129
0.0631094
0.0630518
0.0645102
0.0653489
0.067542
0.0694551
0.0725163
0.0756841
0.0794294
0.0825345
0.0863087
0.0886733
0.0916059
0.0918979
0.0924353
0.0888489
0.0858777
0.0755173
0.0644704
0.0661998
0.064488
0.0646915
0.0637738
0.0644846
0.06432
0.0655137
0.0662184
0.0681098
0.0697798
0.0724238
0.0749166
0.0778978
0.0801083
0.0826264
0.083779
0.0847494
0.0835168
0.0812823
0.0752552
0.0660597
0.0497081
0.0666104
0.0682755
0.066492
0.0665117
0.0654689
0.0659287
0.0656294
0.0665402
0.0670369
0.0685438
0.0698583
0.0718954
0.0736776
0.0757602
0.07711
0.0783017
0.0783361
0.0774442
0.0748025
0.0700183
0.0625655
0.0516791
0.0384785
0.0689614
0.0705498
0.0686946
0.0685093
0.0673258
0.0674985
0.0670402
0.0675948
0.0678378
0.0688553
0.0697678
0.0710734
0.0721974
0.0732645
0.0737869
0.0736336
0.0726005
0.0700947
0.0661879
0.0599526
0.0519733
0.0416313
0.0296718
0.0715572
0.073029
0.0711231
0.0706825
0.0693688
0.0691853
0.0685691
0.0686839
0.0686638
0.0691272
0.0696043
0.0701679
0.0706041
0.0706903
0.0703409
0.0690087
0.0668997
0.0632004
0.0582907
0.0515154
0.0433677
0.0335327
0.0223008
0.0744336
0.0757251
0.0738026
0.0730403
0.0716124
0.0709952
0.0702176
0.0698441
0.0695196
0.0694211
0.0693876
0.0692405
0.0689418
0.0681263
0.066877
0.0645679
0.0614786
0.0569859
0.0514176
0.0444635
0.0363472
0.0269993
0.0164636
0.0776302
0.0786573
0.0767602
0.0756085
0.0740639
0.0729691
0.0719808
0.0711196
0.0704091
0.0697619
0.0691516
0.068316
0.0672705
0.0656326
0.0635267
0.0604251
0.056549
0.0515544
0.0456292
0.0386801
0.0307921
0.021984
0.0121732
0.0811929
0.081853
0.0800198
0.0784353
0.0767267
0.0751589
0.0738658
0.0725315
0.0713573
0.0701671
0.0689465
0.0674311
0.0656711
0.0632957
0.0604409
0.05672
0.0522972
0.0470145
0.0409736
0.0341857
0.0266871
0.0184907
0.00945244
0.0851724
0.085359
0.0835962
0.0815802
0.0796184
0.0775936
0.075904
0.0740998
0.072402
0.0706629
0.0688329
0.0666608
0.0642417
0.0612367
0.0577732
0.05361
0.0488629
0.0434695
0.0375064
0.0310112
0.0240158
0.0164969
0.00828163
0.089621
0.0892561
0.0875067
0.0850854
0.0827801
0.0802999
0.0781381
0.0758484
0.0735913
0.0712939
0.0688815
0.0661069
0.0630946
0.0595818
0.0556737
0.0512299
0.0463408
0.0409867
0.0352458
0.0291479
0.0227285
0.0159322
0.00856811
0.094592
0.0936465
0.0917788
0.0889965
0.0862665
0.0833091
0.0806158
0.0778131
0.0749827
0.0721276
0.0691709
0.0658716
0.0623497
0.0584563
0.0542602
0.0496757
0.044787
0.0395928
0.0341742
0.0285473
0.0227397
0.0166775
0.0101577
0.100148
0.0986292
0.0965003
0.0933654
0.0901396
0.0866613
0.0833887
0.0800454
0.076646
0.0732487
0.0697871
0.0660476
0.0621238
0.0579644
0.0536121
0.0490068
0.0442251
0.0392779
0.0342409
0.0291207
0.023928
0.0185774
0.0128597
0.106372
0.104325
0.101789
0.0982551
0.0944674
0.0904081
0.0865138
0.0826098
0.0786607
0.0747505
0.0708252
0.0667265
0.0625071
0.0581795
0.0537751
0.0492455
0.0446454
0.039995
0.0353596
0.0307428
0.0261371
0.0214509
0.0164737
0.113386
0.110874
0.107788
0.103744
0.0993221
0.094611
0.0900575
0.0855744
0.0811025
0.0767206
0.0723843
0.0679908
0.0635631
0.0591441
0.0547628
0.0503733
0.0460014
0.0416656
0.0374215
0.0332713
0.0291942
0.0250959
0.0207821
0.121371
0.118446
0.114666
0.109941
0.104778
0.0993423
0.094093
0.0890129
0.084042
0.0792406
0.0745534
0.0699169
0.0653378
0.0608756
0.0565519
0.0523243
0.0481871
0.0441522
0.0402654
0.0365333
0.0329208
0.029322
0.0255263
0.130591
0.127239
0.122626
0.116993
0.110929
0.104683
0.0986983
0.0929949
0.0875368
0.0823634
0.0773963
0.072578
0.0679104
0.0634541
0.059224
0.0551729
0.0512672
0.047505
0.0439273
0.0405524
0.0373514
0.034227
0.0309875
0.141434
0.137513
0.13186
0.125058
0.117938
0.110777
0.103981
0.0975733
0.0915438
0.0859329
0.0806447
0.0756066
0.0708142
0.0663281
0.062156
0.0582369
0.0545054
0.0509367
0.0475603
0.0444029
0.0414406
0.0385826
0.0356514
0.15451
0.149656
0.142487
0.134245
0.125996
0.118006
0.11051
0.103496
0.0969592
0.0909578
0.0853896
0.0801531
0.0752302
0.0706909
0.0665523
0.062748
0.0591836
0.0558094
0.0526403
0.0497109
0.0470101
0.0444605
0.0418921
0.170798
0.164356
0.154661
0.144013
0.133914
0.124561
0.116032
0.108233
0.101105
0.0946711
0.0888205
0.0834002
0.078349
0.0737252
0.0695643
0.0658065
0.0623398
0.0590863
0.0560398
0.0532328
0.0506682
0.0482894
0.0459583
0.191374
0.182802
0.170763
0.158129
0.146343
0.135609
0.125935
0.11719
0.109271
0.10219
0.0958507
0.0900791
0.0847676
0.0799423
0.0756433
0.0718241
0.068367
0.0651707
0.0621998
0.0594698
0.0569813
0.0546914
0.0524833
0.217586
0.201031
0.182999
0.166957
0.153053
0.140921
0.130311
0.120923
0.112518
0.105031
0.0983876
0.0924156
0.086984
0.0820789
0.0777293
0.0739039
0.0704967
0.0674004
0.0645577
0.0619641
0.0596164
0.0574861
0.0554906
0.263474
0.236054
0.210178
0.188913
0.171471
0.156633
0.143784
0.132611
0.122814
0.114199
0.106651
0.100013
0.094126
0.0889049
0.084317
0.0803099
0.076778
0.0736079
0.0707151
0.0680641
0.0656398
0.0634263
0.0613748
0.29825
0.250093
0.216694
0.194123
0.175894
0.160069
0.146292
0.134404
0.124147
0.115208
0.107414
0.100666
0.0948167
0.0896973
0.0851861
0.0812149
0.0777213
0.0746272
0.0718467
0.0693172
0.0670052
0.0649015
0.0629926
0.45629
0.302657
0.251593
0.220783
0.195232
0.174013
0.156462
0.142046
0.130284
0.120544
0.112307
0.105252
0.0991724
0.0938862
0.0892322
0.085096
0.0814084
0.0781225
0.0751867
0.0725458
0.0701511
0.0679729
0.0659943
0.0285068
0.00389669
-0.0185738
-0.0403727
-0.063542
-0.0861341
-0.107656
-0.127145
0.0228272
-0.000406426
-0.0244341
-0.0440861
-0.0631973
-0.0817172
-0.0993546
-0.114633
0.0163251
-0.00377961
-0.0260742
-0.0432645
-0.0583101
-0.0730913
-0.0878939
-0.101241
0.0101661
-0.00728989
-0.0267962
-0.0421721
-0.0545493
-0.0665903
-0.0784191
-0.0886594
0.00512607
-0.0101857
-0.0261746
-0.0389869
-0.0488717
-0.0583878
-0.0675503
-0.0758865
0.00152598
-0.0118417
-0.0244999
-0.0347021
-0.0426519
-0.050341
-0.0574476
-0.0639147
-0.000455969
-0.0120072
-0.0217701
-0.0295315
-0.0357941
-0.0419265
-0.0474306
-0.0524427
-0.000814145
-0.0106898
-0.0180729
-0.0237443
-0.0285812
-0.0334387
-0.0377446
-0.0415599
0.000343364
-0.0080359
-0.013541
-0.0175266
-0.0211608
-0.0249529
-0.0283131
-0.0311887
0.00282236
-0.00426003
-0.00833977
-0.011032
-0.0136756
-0.0165943
-0.0192211
-0.0214039
0.00638735
0.000395884
-0.00264742
-0.00439649
-0.00625648
-0.00848289
-0.0105588
-0.0122607
0.010812
0.00571742
0.00338428
0.00227624
0.00100749
-0.000678204
-0.00233138
-0.00368667
0.0158876
0.011542
0.00965633
0.00893443
0.00808697
0.00681878
0.00548056
0.00434084
0.0211758
0.0173703
0.0157947
0.0153172
0.0147462
0.01377
0.0126655
0.0116865
0.027301
0.023967
0.0224192
0.0219149
0.0214593
0.0206662
0.0196792
0.0187124
0.032356
0.0294178
0.0280214
0.0275452
0.0271265
0.0264092
0.0255077
0.0246275
0.0390218
0.0363125
0.0347433
0.0340171
0.0335199
0.0328824
0.0320634
0.0311352
0.0434317
0.0410447
0.039531
0.0386781
0.0379982
0.0372195
0.0363405
0.0354477
0.0501351
0.0478251
0.0461209
0.0449968
0.0441805
0.0433874
0.0424853
0.0414466
0.0534516
0.051415
0.0497272
0.0483999
0.0472853
0.0462393
0.0452062
0.0441768
0.0593331
0.0572899
0.0554808
0.0539623
0.0526714
0.0514839
0.0503046
0.0490729
0.0611721
0.0593556
0.0576157
0.0559822
0.0544562
0.0530174
0.0516497
0.0503344
0.0641063
0.0622278
0.0604162
0.0586898
0.0570528
0.0554949
0.0540052
0.0525691
-0.369658
-0.37788
-0.387832
-0.401129
-0.418841
-0.440804
-0.463677
-0.481773
-0.369353
-0.375572
-0.383175
-0.393811
-0.407723
-0.42438
-0.44208
-0.456094
-0.368511
-0.372765
-0.378008
-0.38562
-0.395878
-0.407143
-0.415944
-0.418358
-0.366866
-0.368925
-0.371168
-0.374553
-0.378742
-0.381872
-0.380938
-0.373088
-0.363096
-0.362422
-0.360707
-0.358642
-0.355966
-0.351568
-0.343417
-0.329265
-0.355496
-0.351529
-0.345548
-0.338393
-0.330369
-0.320882
-0.308269
-0.290497
-0.342835
-0.335668
-0.326197
-0.315547
-0.30433
-0.291947
-0.27681
-0.257106
-0.325061
-0.315615
-0.304116
-0.291775
-0.279125
-0.265331
-0.248939
-0.228364
-0.30327
-0.292945
-0.280886
-0.268311
-0.255324
-0.24105
-0.224209
-0.203468
-0.279237
-0.269272
-0.257851
-0.245872
-0.233159
-0.218971
-0.202212
-0.181805
-0.254733
-0.24595
-0.235829
-0.224795
-0.212685
-0.198923
-0.182606
-0.162877
-0.230962
-0.223828
-0.215235
-0.205219
-0.193859
-0.18072
-0.165109
-0.146299
-0.209078
-0.203472
-0.196173
-0.18712
-0.176552
-0.16421
-0.149489
-0.131808
-0.188893
-0.184612
-0.178547
-0.170464
-0.160814
-0.149283
-0.135552
-0.119105
-0.170452
-0.167735
-0.162524
-0.155465
-0.146456
-0.135545
-0.122828
-0.107776
-0.3815
-0.369349
-0.359743
-0.353417
-0.350702
-0.351623
-0.355836
-0.36222