/*--------------------------------*- C++ -*----------------------------------*\
| =========                 |                                                 |
| \\      /  F ield         | OpenFOAM: The Open Source CFD Toolbox           |
|  \\    /   O peration     | Version:  2312                                  |
|   \\  /    A nd           | Website:  www.openfoam.com                      |
|    \\/     M anipulation  |                                                 |
\*---------------------------------------------------------------------------*/
FoamFile
{
    version     2.0;
    format      ascii;
    arch        "LSB;label=32;scalar=64";
    class       volScalarField;
    location    "118.7";
    object      p;
}
// * * * * * * * * * * * * * * * * * * * * * * * * * * * * * * * * * * * * * //

dimensions      [0 2 -2 0 0 0 0];

internalField   nonuniform List<scalar> 
5478
(
-0.339726
-0.341025
-0.339672
-0.335838
-0.327865
-0.315137
-0.297875
-0.277598
-0.256439
-0.236338
-0.218619
-0.203129
-0.189984
-0.177587
-0.166155
-0.347088
-0.346449
-0.34409
-0.339371
-0.330735
-0.317034
-0.298626
-0.277379
-0.255442
-0.234432
-0.215123
-0.197809
-0.182437
-0.168393
-0.155609
-0.356568
-0.353312
-0.348843
-0.342267
-0.331556
-0.315555
-0.295189
-0.27261
-0.249844
-0.228256
-0.20853
-0.190785
-0.174741
-0.159765
-0.145823
-0.368851
-0.362642
-0.355492
-0.345943
-0.331415
-0.311743
-0.288819
-0.264909
-0.241689
-0.220057
-0.200226
-0.182129
-0.165477
-0.150222
-0.136504
-0.385582
-0.375829
-0.365564
-0.351169
-0.33082
-0.306464
-0.280793
-0.255649
-0.231998
-0.210188
-0.190282
-0.172189
-0.155678
-0.140639
-0.126623
-0.407935
-0.392906
-0.378453
-0.356737
-0.329038
-0.299668
-0.271221
-0.24473
-0.220498
-0.198543
-0.17871
-0.160746
-0.144415
-0.129623
-0.115883
-0.433713
-0.412983
-0.390843
-0.359543
-0.324201
-0.290066
-0.258958
-0.23111
-0.206292
-0.184175
-0.164456
-0.146889
-0.13123
-0.117186
-0.104108
-0.4572
-0.432177
-0.398494
-0.356328
-0.313966
-0.275736
-0.242365
-0.213402
-0.188191
-0.166175
-0.146895
-0.129979
-0.115166
-0.102123
-0.0904135
-0.483324
-0.485371
-0.48855
-0.496244
-0.508058
-0.52263
-0.537933
-0.551415
-0.558044
-0.557923
-0.547834
-0.52683
-0.49669
-0.461178
-0.423589
-0.444291
-0.445786
-0.446016
-0.448224
-0.452088
-0.456153
-0.458557
-0.457021
-0.451385
-0.439625
-0.42154
-0.398059
-0.372825
-0.351655
-0.324769
-0.410652
-0.411589
-0.409732
-0.407791
-0.405446
-0.401383
-0.394457
-0.383377
-0.367767
-0.347826
-0.325247
-0.302283
-0.278362
-0.276785
-0.260742
-0.383612
-0.384403
-0.381648
-0.377325
-0.371116
-0.362189
-0.3493
-0.332164
-0.31116
-0.28733
-0.262461
-0.245349
-0.222848
-0.225884
-0.225337
-0.36276
-0.363917
-0.361194
-0.355858
-0.347506
-0.335296
-0.31889
-0.298415
-0.274813
-0.250299
-0.225668
-0.211032
-0.194995
-0.197309
-0.206257
-0.347544
-0.349331
-0.346944
-0.341193
-0.331513
-0.317541
-0.299354
-0.277616
-0.253809
-0.230433
-0.209347
-0.196252
-0.187341
-0.188352
-0.199207
-0.33826
-0.340538
-0.338543
-0.332974
-0.32328
-0.309293
-0.291288
-0.27036
-0.248138
-0.226908
-0.209407
-0.197262
-0.190946
-0.189895
-0.1943
-0.335823
-0.338056
-0.336557
-0.331872
-0.323457
-0.310488
-0.293337
-0.2733
-0.252289
-0.232402
-0.215919
-0.202868
-0.193956
-0.187606
-0.182785
-0.391734
-0.413162
-0.459362
-0.443701
-0.327399
-0.222036
-0.168995
-0.152262
-0.157113
-0.162623
-0.15047
-0.149144
-0.147216
-0.130991
-0.102308
-0.110324
-0.133539
-0.150612
-0.124974
-0.110531
-0.123266
-0.157739
-0.122425
-0.121523
-0.152713
-0.175546
-0.138272
-0.154679
-0.0963148
-0.0671097
-0.0401534
-0.0147613
-0.0124988
-0.0110343
-0.00646057
-0.00355697
-0.00199607
-0.000442326
-0.345305
-0.430937
-0.498094
-0.47389
-0.353239
-0.236389
-0.168986
-0.14371
-0.131272
-0.12331
-0.120289
-0.136939
-0.142843
-0.126887
-0.0987155
-0.106416
-0.128653
-0.144307
-0.126359
-0.117267
-0.13851
-0.171942
-0.12002
-0.112407
-0.134401
-0.150968
-0.153691
-0.175249
-0.0956346
-0.0661746
-0.0397205
-0.0161244
-0.0127629
-0.0105591
-0.00631139
-0.00365221
-0.00205684
-0.000455406
-0.286525
-0.413078
-0.49552
-0.474364
-0.359059
-0.239667
-0.166683
-0.138122
-0.117806
-0.0992037
-0.0968063
-0.125678
-0.137452
-0.12274
-0.0966626
-0.103201
-0.123791
-0.136247
-0.126076
-0.121915
-0.152594
-0.183025
-0.116644
-0.102199
-0.116673
-0.125466
-0.165183
-0.190099
-0.0934205
-0.0606745
-0.0386685
-0.0173064
-0.0128931
-0.010057
-0.00612012
-0.00374252
-0.00211877
-0.000465816
-0.246483
-0.362871
-0.452964
-0.434516
-0.336264
-0.232964
-0.163179
-0.133171
-0.113621
-0.0912592
-0.0859248
-0.117289
-0.132494
-0.118449
-0.0958276
-0.10097
-0.117155
-0.12738
-0.123956
-0.123835
-0.164513
-0.191386
-0.114158
-0.091615
-0.100725
-0.100635
-0.172173
-0.198415
-0.0908204
-0.0544711
-0.0370988
-0.0182334
-0.0128966
-0.00956713
-0.00589863
-0.00381943
-0.00217356
-0.000473099
-0.224787
-0.311572
-0.394331
-0.381883
-0.304955
-0.222244
-0.160811
-0.129339
-0.11139
-0.0943554
-0.0899655
-0.118001
-0.129758
-0.116173
-0.0977866
-0.101615
-0.114241
-0.118797
-0.119787
-0.122448
-0.173439
-0.19664
-0.112569
-0.0809189
-0.0873977
-0.0784018
-0.174612
-0.199722
-0.0884181
-0.047908
-0.0350957
-0.0188286
-0.0127786
-0.00911474
-0.00566658
-0.00387779
-0.00221249
-0.000476855
-0.21301
-0.26707
-0.327167
-0.320266
-0.267487
-0.205945
-0.155759
-0.125062
-0.107724
-0.0974837
-0.101083
-0.123254
-0.13063
-0.116001
-0.100926
-0.102529
-0.108916
-0.110165
-0.113262
-0.117709
-0.177984
-0.199348
-0.112982
-0.0707291
-0.07713
-0.0599579
-0.172685
-0.194594
-0.0866879
-0.0412557
-0.032835
-0.0190925
-0.0125728
-0.00871971
-0.00544605
-0.00391718
-0.0022284
-0.000476642
-0.197827
-0.215264
-0.258882
-0.26364
-0.236277
-0.193112
-0.151978
-0.122265
-0.105186
-0.0937124
-0.115239
-0.125419
-0.1331
-0.113267
-0.103393
-0.104021
-0.108518
-0.103212
-0.104806
-0.10835
-0.178166
-0.197899
-0.111994
-0.0618652
-0.0706541
-0.0448549
-0.167245
-0.184759
-0.0847925
-0.0353844
-0.0305353
-0.0190333
-0.0122682
-0.00837119
-0.00525417
-0.00394143
-0.00221553
-0.000471613
-0.178494
-0.183551
-0.204481
-0.210948
-0.201606
-0.176847
-0.145589
-0.120332
-0.105381
-0.0843549
-0.12037
-0.167037
-0.142976
-0.114754
-0.106786
-0.100928
-0.101738
-0.0945165
-0.0946898
-0.0958797
-0.172814
-0.197822
-0.113325
-0.0538004
-0.0669416
-0.0319467
-0.158003
-0.173417
-0.0845414
-0.029417
-0.027725
-0.018623
-0.0120013
-0.00809594
-0.00541326
-0.00395729
-0.00217476
-0.000461592
-0.167999
-0.179189
-0.182286
-0.180061
-0.170601
-0.149185
-0.121884
-0.101301
-0.0897196
-0.0743125
-0.10216
-0.138764
-0.131395
-0.108706
-0.105776
-0.104521
-0.104711
-0.0858949
-0.0815635
-0.0895203
-0.158952
-0.185552
-0.110165
-0.0461018
-0.062192
-0.0275083
-0.142649
-0.154303
-0.0829681
-0.0260284
-0.0247069
-0.0175334
-0.0113188
-0.00770444
-0.00525398
-0.00394798
-0.00206391
-0.000435393
-0.135803
-0.146753
-0.14724
-0.138847
-0.127066
-0.11106
-0.0915791
-0.0786296
-0.0684132
-0.0570997
-0.0791614
-0.113952
-0.113337
-0.0921544
-0.0952659
-0.100359
-0.0862857
-0.0674119
-0.0597324
-0.0709947
-0.141296
-0.180158
-0.101965
-0.0340268
-0.0465083
-0.0165417
-0.119941
-0.147474
-0.0756941
-0.0204655
-0.0209649
-0.0160321
-0.0104666
-0.00706875
-0.00510402
-0.00393638
-0.00186587
-0.000378696
-0.111403
-0.122938
-0.12227
-0.114372
-0.104604
-0.092257
-0.0771003
-0.0643952
-0.050811
-0.0323722
-0.0274261
-0.0371943
-0.0445752
-0.0519187
-0.0735698
-0.0851049
-0.0700762
-0.0505529
-0.0383679
-0.0444878
-0.10701
-0.141896
-0.0815887
-0.0226562
-0.0331768
-0.00965289
-0.0936373
-0.114232
-0.0616423
-0.0161748
-0.0174497
-0.0143
-0.00947347
-0.00631307
-0.00513164
-0.00398186
-0.0015981
-0.000292529
-0.0880639
-0.0976964
-0.0975132
-0.0898065
-0.0793958
-0.0661977
-0.0528682
-0.0414445
-0.0280321
-0.0111304
0.00223184
0.0197822
0.016991
-0.0105293
-0.0445456
-0.0532178
-0.0439097
-0.0278187
-0.0140353
-0.0182275
-0.0656812
-0.0857417
-0.0544952
-0.0194072
-0.0216421
-0.00259166
-0.0602082
-0.0790869
-0.046436
-0.0147849
-0.0141452
-0.0127123
-0.00855649
-0.00543338
-0.00527044
-0.00408552
-0.00126349
-0.000174472
-0.0662801
-0.0748007
-0.075608
-0.0697295
-0.0612542
-0.0516621
-0.0410805
-0.0308895
-0.0177567
0.00146255
0.0218679
0.0466104
0.0458785
0.0139941
-0.0166047
-0.0272737
-0.0228935
-0.0166332
-0.000455621
0.00400355
-0.0193727
-0.0250273
-0.0264847
-0.0235975
-0.0136883
-0.000274335
-0.0213325
-0.0332022
-0.0278313
-0.0159484
-0.0109052
-0.0116674
-0.00774278
-0.00432807
-0.005479
-0.0042807
-0.000875335
-2.77318e-05
-0.0487278
-0.0562197
-0.057413
-0.0531229
-0.0461978
-0.0376281
-0.0278733
-0.0177075
-0.00597876
0.00978731
0.0250685
0.0403405
0.0463117
0.0249365
0.00228785
-0.00863026
-0.00581427
-0.00127669
0.0100464
0.0116091
0.00108308
0.00410242
-0.00780032
-0.0258427
-0.00725776
0.0053471
0.0135668
0.00508294
-0.00747085
-0.0151935
-0.00715606
-0.0112927
-0.00769377
-0.0030545
-0.00570728
-0.00455789
-0.000506212
0.000129379
-0.0350378
-0.0406672
-0.0417744
-0.0386967
-0.0331613
-0.0263549
-0.0188654
-0.0108549
-0.0019555
0.00999786
0.0221196
0.0326372
0.0378313
0.0265504
0.0115762
0.00210502
0.00336025
0.00437843
0.0132616
0.0168287
0.0118141
0.0142461
0.00447345
-0.0129925
-0.000152141
0.0113117
0.0355947
0.0286235
0.00734828
-0.0131243
-0.00408998
-0.0113474
-0.00858839
-0.00189145
-0.00586521
-0.00485362
-0.000179759
0.000268259
-0.0232732
-0.0277216
-0.0290274
-0.0270621
-0.0229493
-0.0177279
-0.0119656
-0.00555406
0.00147709
0.0101619
0.0185553
0.0253528
0.0289273
0.0237388
0.0154558
0.0084573
0.00991957
0.0112058
0.0158107
0.0184284
0.01164
0.0140169
0.011857
0.00074842
0.00771459
0.0166321
0.039372
0.0321531
0.0125782
-0.00814457
-0.00318335
-0.0112886
-0.00953668
-0.00126449
-0.005834
-0.00499863
7.90784e-05
0.00035712
-0.0140396
-0.0176848
-0.0188567
-0.0175499
-0.0145613
-0.0106875
-0.0064001
-0.00163274
0.00340215
0.0092323
0.0149066
0.0196235
0.0220173
0.0201262
0.0163925
0.0117882
0.0122841
0.0127031
0.0151403
0.0177442
0.0146562
0.0148868
0.0147065
0.00802683
0.0128308
0.0184728
0.0350043
0.0324818
0.0148418
-0.00123598
-0.000976537
-0.00949572
-0.00876352
-0.000887667
-0.00525427
-0.00461394
0.000274277
0.000403466
-0.00708641
-0.0097184
-0.0106507
-0.00989591
-0.00787067
-0.00513797
-0.00210887
0.00124633
0.00473324
0.00867167
0.0124265
0.0155827
0.0174578
0.0170821
0.0158428
0.0134104
0.0137203
0.0144973
0.0154574
0.017
0.0151652
0.0151361
0.0153781
0.0127897
0.0163904
0.0196925
0.0291151
0.0302281
0.0162251
0.00505866
0.00192822
-0.00596522
-0.00590804
-0.000556192
-0.00402648
-0.00353865
0.000377031
0.00039612
-0.00132552
-0.00335628
-0.00421214
-0.00386151
-0.00255938
-0.000693979
0.00138095
0.00366626
0.00599381
0.00856988
0.0110284
0.0131802
0.0146673
0.0149485
0.0149619
0.0139716
0.0140325
0.0144901
0.01498
0.0156556
0.0151921
0.0153521
0.0155991
0.0144165
0.0173523
0.0195335
0.0244904
0.0267187
0.0168444
0.00911617
0.00480117
-0.0021485
-0.00256013
0.000175802
-0.00244918
-0.00214226
0.000501253
0.000379104
0.00313247
0.00154654
0.000802456
0.0009262
0.00171827
0.00292802
0.00428589
0.00576765
0.00727009
0.0089262
0.010564
0.0120096
0.0131713
0.0136781
0.0140613
0.0138716
0.0140427
0.0145194
0.0149287
0.0154209
0.0151933
0.0153879
0.0156496
0.0156135
0.0175699
0.0190181
0.0210005
0.0226407
0.0165568
0.0112512
0.00710276
0.00102977
0.000119007
0.00100846
-0.00104077
-0.000959252
0.000577085
0.000351756
0.00655021
0.00535325
0.00473376
0.00469461
0.00511986
0.00585604
0.00671129
0.00763368
0.00856585
0.00958762
0.0106425
0.0116168
0.0124583
0.0129889
0.0134682
0.0137029
0.0139681
0.0142961
0.0146475
0.0149315
0.0149062
0.0151837
0.0154002
0.0152814
0.0167612
0.0177578
0.0183395
0.0190675
0.0154877
0.0117151
0.00827821
0.00333912
0.00186267
0.00171338
3.79496e-05
-0.000181686
0.000637135
0.000324102
0.00923156
0.00831295
0.00777586
0.00763031
0.00782531
0.00824218
0.00875225
0.00928578
0.00981988
0.0104157
0.0110673
0.0117046
0.0122786
0.0127344
0.013162
0.0134926
0.0137714
0.0140423
0.014355
0.0146144
0.0146696
0.0148921
0.0150898
0.0151837
0.015949
0.0164733
0.016388
0.0164375
0.0141926
0.011448
0.00881815
0.00495654
0.00307532
0.00232251
0.000880563
0.000449569
0.000721239
0.000321911
0.0112978
0.0105861
0.0101304
0.00993397
0.0099698
0.0101658
0.0104349
0.0107136
0.010985
0.0113001
0.0116691
0.0120608
0.0124206
0.0127456
0.0130714
0.0133684
0.0136274
0.0138443
0.01408
0.0142939
0.0143617
0.0145146
0.0146656
0.0146975
0.0149764
0.0151264
0.0147972
0.0144818
0.0129176
0.0108198
0.00884438
0.00590518
0.00395787
0.00287018
0.00153695
0.000915445
0.000795888
0.000321265
0.0128797
0.0123304
0.0119444
0.0117227
0.0116575
0.0117072
0.0118147
0.0119247
0.0120234
0.0121535
0.0123285
0.0125381
0.0127318
0.0129266
0.0131343
0.0133479
0.0135323
0.0136811
0.0138326
0.0139876
0.0140364
0.0141028
0.0141527
0.0141275
0.0141355
0.0140536
0.0136032
0.0130773
0.0118967
0.0102635
0.00869175
0.00647261
0.00466471
0.00339902
0.00211345
0.00133548
0.000911315
0.000339046
0.0140843
0.0136553
0.0133259
0.0130997
0.0129773
0.0129346
0.0129318
0.0129278
0.012914
0.0129219
0.0129649
0.0130393
0.0131074
0.013187
0.0132831
0.0134002
0.0134935
0.0135719
0.0136447
0.0137138
0.0137079
0.0136935
0.0136538
0.0135378
0.0133732
0.0131039
0.0126387
0.0120192
0.0110617
0.00975089
0.00841452
0.00672454
0.00513747
0.00383758
0.0025967
0.00170205
0.00103964
0.000356246
0.0149845
0.0146472
0.0143665
0.0141465
0.0139919
0.0138897
0.0138147
0.0137368
0.0136509
0.0135788
0.0135324
0.0135086
0.0134829
0.0134703
0.0134701
0.0134947
0.0134972
0.0134989
0.0134839
0.0134729
0.0134046
0.0133128
0.0131908
0.0129959
0.0127521
0.0124094
0.011907
0.0112497
0.0104164
0.00934643
0.00818099
0.00682572
0.0054581
0.00419506
0.00299397
0.00203018
0.00120003
0.000392575
0.0156482
0.0153783
0.0151361
0.0149267
0.0147557
0.0146177
0.0144962
0.0143708
0.0142388
0.0141145
0.0140079
0.0139148
0.0138206
0.013736
0.0136581
0.0136026
0.0135252
0.0134547
0.0133605
0.0132741
0.0131395
0.0129797
0.0127931
0.0125323
0.0122345
0.0118257
0.0113278
0.0106994
0.00992304
0.00901631
0.00798054
0.00683359
0.00564953
0.0044606
0.00330302
0.00231135
0.00137138
0.000437392
0.0161186
0.0158966
0.0156849
0.015488
0.0153106
0.0151517
0.0150005
0.014846
0.0146852
0.0145289
0.014381
0.0142409
0.0140974
0.0139599
0.0138246
0.0137025
0.0135634
0.0134274
0.0132734
0.0131186
0.0129299
0.0127114
0.0124697
0.0121611
0.0118197
0.0113881
0.0108813
0.0102749
0.00955547
0.00874666
0.00782972
0.00680788
0.005746
0.0046515
0.00353153
0.00251888
0.00152903
0.000497621
0.016439
0.0162495
0.0160605
0.0158745
0.0156959
0.0155249
0.015356
0.0151844
0.0150063
0.0148305
0.0146551
0.0144842
0.0143071
0.014133
0.0139564
0.0137842
0.0136011
0.0134126
0.0132132
0.0130031
0.0127691
0.0125074
0.0122183
0.0118809
0.0115038
0.0110591
0.0105493
0.00996013
0.0092832
0.00853078
0.00768255
0.00675385
0.00577025
0.00473823
0.00367225
0.00264091
0.0016095
0.000532513
0.0166377
0.0164686
0.0162945
0.0161171
0.0159396
0.0157626
0.0155842
0.0154026
0.0152157
0.0150277
0.0148364
0.0146457
0.0144481
0.0142508
0.0140467
0.0138433
0.0136281
0.0134075
0.0131734
0.0129274
0.0126618
0.0123682
0.012051
0.0116887
0.0112916
0.0108379
0.0103252
0.00974913
0.00909497
0.0083764
0.00757497
0.00670247
0.00576815
0.00478275
0.00375349
0.00270964
0.00165587
0.000556468
0.016729
0.0165701
0.0164043
0.0162326
0.0160569
0.015878
0.0156955
0.0155099
0.0153193
0.0151262
0.0149276
0.0147272
0.01452
0.014311
0.0140941
0.0138739
0.0136431
0.0134047
0.0131532
0.012888
0.0126049
0.0122961
0.0119616
0.0115886
0.0111795
0.0107216
0.0102092
0.00963691
0.00899622
0.00829412
0.00751547
0.00667121
0.00576189
0.00479929
0.00379115
0.00274374
0.00167634
0.000566885
-0.0763548
-0.0872208
-0.0977154
-0.107745
-0.118122
-0.127593
-0.138159
-0.151743
-0.0615665
-0.0696574
-0.0776379
-0.0856783
-0.0939386
-0.102197
-0.109777
-0.120331
-0.0475762
-0.0533297
-0.0588853
-0.0646635
-0.070812
-0.0771019
-0.083977
-0.0942878
-0.0365827
-0.0406966
-0.0447126
-0.0489507
-0.0540205
-0.0596484
-0.0664718
-0.0751894
-0.0270216
-0.0301002
-0.0331574
-0.0365681
-0.0407994
-0.0452764
-0.0500828
-0.0561677
-0.0192496
-0.0214628
-0.0236899
-0.0261349
-0.0290033
-0.0318928
-0.0352652
-0.0402913
-0.0126123
-0.0140884
-0.0155099
-0.0170596
-0.018982
-0.0212117
-0.0242722
-0.0285654
-0.00692011
-0.0078304
-0.00870701
-0.00981111
-0.0114336
-0.0134381
-0.0157757
-0.0187041
-0.00210514
-0.00272103
-0.00337078
-0.0042542
-0.00543259
-0.00666816
-0.00811873
-0.0103492
0.00186521
0.00144441
0.0010442
0.000539716
-0.000146675
-0.00103064
-0.00231532
-0.00424959
0.00527922
0.00501035
0.00477413
0.00442701
0.00386536
0.00309115
0.00209361
0.000702486
0.00809075
0.00786939
0.00767647
0.00740772
0.0070069
0.00647698
0.00577349
0.00470852
0.0103944
0.0101964
0.0100401
0.00985043
0.00957159
0.00916977
0.00860127
0.00775359
0.0122666
0.012076
0.0119249
0.01176
0.0115334
0.0112136
0.0107727
0.0101328
0.0137411
0.0135508
0.0133942
0.0132404
0.0130552
0.0128085
0.0124709
0.0119834
0.0148858
0.0147005
0.0145417
0.0143936
0.0142323
0.0140317
0.0137668
0.0133964
0.0157529
0.0155755
0.0154178
0.0152738
0.0151289
0.0149624
0.0147541
0.0144739
0.0163989
0.0162322
0.0160802
0.0159419
0.0158087
0.015665
0.0154958
0.0152806
0.0168685
0.0167132
0.016569
0.0164368
0.0163121
0.0161845
0.0160436
0.0158758
0.017196
0.0170528
0.016918
0.0167928
0.0166752
0.0165584
0.0164362
0.0163
0.0174131
0.0172814
0.017156
0.0170378
0.016926
0.0168166
0.0167065
0.0165904
0.01754
0.0174184
0.0173019
0.0171903
0.0170834
0.016979
0.0168759
0.0167712
0.0175897
0.0174775
0.0173682
0.0172616
0.0171577
0.0170555
0.0169551
0.0168549
0.0743703
0.0780938
0.0815514
0.0844242
0.0859417
0.085841
0.083953
0.0797824
0.0724141
0.060511
0.0422223
0.0149691
-0.0254422
-0.0822446
-0.133111
0.053249
0.0547392
0.0546594
0.0534072
0.0508542
0.0466356
0.0402651
0.0310091
0.0178158
-0.000752063
-0.0266606
-0.0624691
-0.112225
-0.18002
-0.234985
0.0314545
0.0307446
0.0273286
0.0224422
0.0163078
0.00839054
-0.00204414
-0.0158624
-0.0341753
-0.0584853
-0.0908892
-0.134012
-0.1909
-0.267012
-0.32044
0.00896313
0.00583396
-0.000390107
-0.00802497
-0.0169867
-0.0280128
-0.0419398
-0.059649
-0.0822371
-0.111168
-0.148701
-0.197556
-0.26003
-0.336949
-0.387636
-0.013356
-0.0191329
-0.0274978
-0.037101
-0.0482826
-0.0618848
-0.0786603
-0.0994503
-0.125337
-0.157639
-0.198689
-0.25119
-0.315768
-0.389613
-0.435497
-0.0348377
-0.0430731
-0.0529531
-0.0640597
-0.0770618
-0.0927544
-0.111712
-0.134727
-0.162822
-0.19737
-0.24031
-0.293596
-0.357095
-0.424818
-0.464313
-0.0551789
-0.065061
-0.0759915
-0.0884272
-0.103033
-0.120346
-0.140887
-0.165334
-0.194618
-0.229964
-0.272881
-0.324585
-0.38397
-0.442515
-0.475818
-0.0741725
-0.0847103
-0.0966345
-0.110305
-0.126192
-0.144703
-0.166243
-0.191381
-0.220898
-0.255767
-0.297046
-0.345098
-0.397291
-0.44405
-0.472603
0.187503
0.202452
0.219065
0.237801
0.258756
0.28185
0.306988
0.334115
0.363153
0.39385
0.425624
0.457298
0.486872
0.510317
0.529616
0.186963
0.20133
0.217359
0.235557
0.255972
0.278432
0.302786
0.328965
0.356893
0.386302
0.41657
0.446464
0.473904
0.494913
0.511824
0.182292
0.19524
0.210034
0.227146
0.246427
0.267516
0.290164
0.314256
0.339672
0.366091
0.392805
0.418479
0.440865
0.456158
0.467597
0.173508
0.184407
0.197486
0.212993
0.230453
0.249332
0.269332
0.290303
0.312041
0.334087
0.35556
0.374942
0.389703
0.396207
0.399732
0.160616
0.169077
0.180243
0.193925
0.209122
0.22508
0.241506
0.258291
0.275191
0.291598
0.306413
0.317871
0.323085
0.318319
0.3121
0.143971
0.149625
0.158683
0.170293
0.182887
0.195529
0.20791
0.219897
0.231159
0.240944
0.247953
0.250187
0.244416
0.226744
0.208648
0.123868
0.127302
0.13449
0.143546
0.152756
0.161397
0.169246
0.176067
0.181314
0.184015
0.182655
0.175002
0.157515
0.126281
0.0956149
0.100244
0.10242
0.108518
0.114966
0.120427
0.12462
0.127521
0.128809
0.127724
0.123077
0.113145
0.0954556
0.0661329
0.0215094
-0.0207503
0.0259932
0.0304045
0.0267476
0.0306723
0.0282475
0.0325508
0.0308029
0.035226
0.0345964
0.0391055
0.0399178
0.0447535
0.0473053
0.0530122
0.0577375
0.065053
0.072568
0.0826089
0.0937592
0.107824
0.12398
0.143753
0.166603
0.0260677
0.0304461
0.0268391
0.0307258
0.0283642
0.0326191
0.0309597
0.0353439
0.0348117
0.0392768
0.0402237
0.0450316
0.0476804
0.0534649
0.0582523
0.0656442
0.0733178
0.0832961
0.0946065
0.108791
0.124741
0.144431
0.166783
0.0261519
0.0304621
0.0269489
0.0307496
0.0285057
0.0326527
0.0311485
0.0354283
0.0350443
0.0394076
0.0405585
0.0452595
0.0480507
0.0538012
0.0586236
0.0658488
0.0736679
0.0836716
0.0946814
0.108672
0.124041
0.143174
0.164033
0.0262446
0.0304544
0.0270725
0.0307471
0.0286586
0.0326567
0.03136
0.0354853
0.0353092
0.0395202
0.040912
0.045508
0.0484799
0.0543013
0.0591845
0.0666377
0.0741802
0.0842296
0.09476
0.108423
0.122564
0.140404
0.158411
0.0263449
0.0304264
0.0272079
0.0307219
0.0288561
0.0326377
0.0315891
0.0355125
0.0355884
0.0395998
0.0412547
0.0456353
0.0488095
0.054408
0.0593557
0.0665376
0.0740052
0.0836855
0.0936803
0.106573
0.11924
0.135315
0.14955
0.0264498
0.0303803
0.0273549
0.0306783
0.0290451
0.0326083
0.0318289
0.0355312
0.03593
0.0397293
0.0416683
0.045939
0.0493443
0.0551275
0.0599652
0.0674651
0.0744919
0.084239
0.0932954
0.105367
0.115625
0.128912
0.137912
0.0265594
0.0303191
0.0275049
0.0306233
0.029238
0.0325624
0.0320646
0.0355209
0.0361739
0.0397757
0.041933
0.0459727
0.0495376
0.0548921
0.0598662
0.0669045
0.073737
0.0825744
0.0909789
0.101347
0.109689
0.119717
0.123122
0.0266728
0.0302498
0.027652
0.0305647
0.0294457
0.0325491
0.0323157
0.0355826
0.0365848
0.0400254
0.0424705
0.0464813
0.0502914
0.0560532
0.0606717
0.068245
0.074497
0.0835215
0.0903637
0.0994883
0.103905
0.109233
0.10523
0.0268035
0.0301449
0.0278422
0.0304495
0.029664
0.0324214
0.0325645
0.0354506
0.0367712
0.0399334
0.0425588
0.0463648
0.0501969
0.0552375
0.0598873
0.0664296
0.072188
0.0789061
0.0847556
0.0895691
0.0917136
0.0897695
0.080789
0.026974
0.0299832
0.0280831
0.0302716
0.0299134
0.0322024
0.0327919
0.0351093
0.0368318
0.0395009
0.0422935
0.0455222
0.0493075
0.0535533
0.0578771
0.0629363
0.0677599
0.0720905
0.0759411
0.0772307
0.0768723
0.0717314
0.0641851
0.0271789
0.029759
0.0283583
0.0300354
0.0301949
0.0318981
0.0330252
0.0347715
0.0368442
0.0390672
0.0419183
0.0446993
0.0482814
0.0517157
0.0555788
0.0592945
0.0629535
0.0653904
0.0670895
0.0663899
0.0637808
0.0582362
0.0509941
0.0274189
0.0294637
0.0286709
0.0297556
0.0304619
0.03164
0.0331454
0.0344929
0.0367314
0.0385742
0.0413413
0.0437404
0.0469325
0.0496277
0.0528483
0.0553654
0.0577069
0.058735
0.0586167
0.0566171
0.0527736
0.0469924
0.0401528
0.0276984
0.0290913
0.0289773
0.0295351
0.0306281
0.0314329
0.0331583
0.0342322
0.0364577
0.0380482
0.0405215
0.0426381
0.0452501
0.0472923
0.0497446
0.0512411
0.0523299
0.0522738
0.0508974
0.0481164
0.0438298
0.0380817
0.0315148
0.0280134
0.0287082
0.0291924
0.029383
0.03072
0.0312554
0.0330494
0.0339472
0.0360217
0.0374219
0.0394911
0.0413532
0.0433185
0.0447102
0.0464165
0.0470477
0.0471055
0.0462248
0.0441737
0.0410064
0.0366904
0.0312591
0.0251109
0.0283174
0.0283648
0.0293083
0.0292846
0.0307172
0.0311007
0.0328056
0.0336257
0.0354306
0.0366736
0.0383035
0.0398615
0.0412046
0.0419735
0.0429911
0.0429442
0.0422422
0.0407894
0.0384531
0.0352011
0.0310554
0.026092
0.0204869
0.0285864
0.0280783
0.0293341
0.0292219
0.030608
0.0309512
0.032437
0.0332334
0.0347156
0.0357797
0.0369841
0.0381785
0.0389723
0.0392138
0.0396139
0.0390655
0.0378889
0.0360858
0.0336697
0.0305492
0.0267261
0.0222953
0.0173334
0.0287921
0.0278696
0.029257
0.029179
0.0303984
0.030782
0.0319721
0.0327374
0.033897
0.0347364
0.0355587
0.0363668
0.0366961
0.0365232
0.0364147
0.035529
0.0340963
0.0321414
0.0297774
0.0269202
0.0235296
0.0196729
0.0153923
0.0289163
0.0277486
0.0290769
0.0291345
0.0301037
0.0305492
0.0314456
0.0321257
0.0329872
0.0335735
0.0340624
0.034501
0.0344546
0.0339804
0.0335008
0.0324116
0.0308796
0.0289368
0.026724
0.0241889
0.0212746
0.0180033
0.0143909
0.0289456
0.0277111
0.028812
0.0290533
0.0297631
0.0302265
0.0308718
0.0314066
0.0319995
0.0323296
0.032534
0.0326555
0.0323263
0.0316528
0.0309304
0.0297468
0.0282294
0.0264102
0.0244154
0.0222187
0.0197714
0.0170637
0.0140797
0.0288745
0.0277393
0.0284946
0.0288769
0.0293991
0.0298144
0.030255
0.0306077
0.0309575
0.0310545
0.0310239
0.0308943
0.0303728
0.0295805
0.0287266
0.0275355
0.0261068
0.0244725
0.0227299
0.0208654
0.0188429
0.0166416
0.0142236
0.0287089
0.0277981
0.0281833
0.0285747
0.0289976
0.0293295
0.0295972
0.0297653
0.0298964
0.0298007
0.0295838
0.0292679
0.0286272
0.0277848
0.0268881
0.0257506
0.0244524
0.023027
0.0215422
0.0199854
0.0183302
0.0165559
0.0146157
0.0284667
0.0278244
0.0279211
0.028187
0.0285342
0.028769
0.0288977
0.0289102
0.0288563
0.0286098
0.0282536
0.0278076
0.0271096
0.0262709
0.0253917
0.0243457
0.0231982
0.0219811
0.0207378
0.0194529
0.0181059
0.0166806
0.0151327
0.0281719
0.027749
0.0276911
0.0278144
0.0280279
0.0281476
0.0281638
0.0280576
0.0278655
0.0275102
0.0270585
0.026534
0.0258249
0.0250242
0.0241995
0.0232647
0.0222709
0.0212467
0.0202185
0.0191684
0.0180791
0.0169393
0.0157117
0.0278509
0.0275789
0.027462
0.0274502
0.0275048
0.0275049
0.0274197
0.0272222
0.0269363
0.026517
0.026015
0.0254565
0.0247685
0.0240251
0.0232716
0.0224488
0.0215968
0.020741
0.019896
0.0190425
0.0181649
0.0172557
0.0162852
0.0275202
0.0273337
0.0271922
0.0270816
0.0269957
0.0268799
0.0267011
0.0264312
0.0260852
0.0256376
0.0251247
0.0245701
0.0239269
0.0232497
0.0225694
0.0218474
0.0211165
0.0203994
0.0197037
0.0190106
0.0183054
0.0175818
0.0168177
0.027189
0.0270434
0.0268803
0.0267036
0.0265152
0.0262995
0.0260385
0.025712
0.0253283
0.0248742
0.0243742
0.0238476
0.023263
0.0226555
0.0220462
0.0214135
0.0207842
0.0201773
0.0195978
0.0190309
0.0184633
0.0178885
0.0172901
0.026863
0.0267315
0.026549
0.026327
0.0260703
0.0257807
0.025456
0.0250877
0.0246815
0.0242326
0.0237566
0.0232657
0.0227396
0.0221983
0.0216558
0.021103
0.0205598
0.0200406
0.0195498
0.019078
0.0186155
0.018157
0.0176896
0.0265537
0.0264246
0.0262233
0.0259691
0.0256698
0.0253318
0.0249652
0.0245715
0.0241537
0.0237138
0.0232627
0.0228062
0.0223315
0.0218501
0.021371
0.0208904
0.020421
0.0199726
0.0195489
0.0191456
0.018758
0.0183831
0.0180123
0.0262807
0.0261507
0.025935
0.0256572
0.0253316
0.0249655
0.0245736
0.0241654
0.0237419
0.023308
0.0228753
0.0224464
0.0220132
0.021582
0.0211589
0.0207434
0.020342
0.0199583
0.0195915
0.019239
0.0189014
0.0185815
0.0182777
0.0260647
0.0259319
0.0257075
0.0254162
0.0250766
0.0246969
0.0242922
0.0238789
0.0234578
0.0230336
0.0226169
0.0222104
0.0218086
0.0214124
0.0210248
0.020649
0.0202894
0.0199473
0.0196205
0.0193064
0.0190064
0.0187251
0.0184649
0.0259486
0.0258156
0.0255835
0.025279
0.0249273
0.0245381
0.0241253
0.0237067
0.0232865
0.0228682
0.0224617
0.0220716
0.0216924
0.0213196
0.0209549
0.0206043
0.0202726
0.0199605
0.0196645
0.0193811
0.0191105
0.0188575
0.0186281
0.0681479
0.0501924
0.0279797
0.00710733
-0.0119828
-0.030126
-0.0475937
-0.0631824
0.0556289
0.0389329
0.0170835
-0.00191005
-0.0169732
-0.0297656
-0.0417361
-0.0522414
0.0445609
0.0317746
0.0132378
-0.00329564
-0.0146722
-0.0234458
-0.0320459
-0.0403718
0.0348136
0.0248914
0.00946834
-0.00473907
-0.0138521
-0.0200247
-0.0258409
-0.0314758
0.0267434
0.0193931
0.00756333
-0.00362965
-0.0106404
-0.0150359
-0.0190936
-0.0231895
0.0203417
0.0145997
0.00619156
-0.00177641
-0.00713637
-0.010604
-0.0136349
-0.0165424
0.015899
0.0112687
0.00567215
0.000396485
-0.00352566
-0.00629197
-0.00862415
-0.0107263
0.0131581
0.00950592
0.0059012
0.00256323
-0.000177945
-0.0023227
-0.00413032
-0.00565234
0.0117512
0.00894017
0.00670336
0.00469021
0.00285674
0.0012596
-0.000119928
-0.0012343
0.0113078
0.00918299
0.00786292
0.00672363
0.00554319
0.0043847
0.00333489
0.00249329
0.0115333
0.00994988
0.00922599
0.00864417
0.00791895
0.00710737
0.00633576
0.00571836
0.0121743
0.0110173
0.0106715
0.0104352
0.0100165
0.00946227
0.00889843
0.00843034
0.0129917
0.0121551
0.0120366
0.0120226
0.0118309
0.0114735
0.0110577
0.0106828
0.0138604
0.0132612
0.0132717
0.0133841
0.0133431
0.0131284
0.0128247
0.0125208
0.0147211
0.0142929
0.0143659
0.0145277
0.0145628
0.0144402
0.0142192
0.0139707
0.0155204
0.0152151
0.0153078
0.0154715
0.0155335
0.0154626
0.0152979
0.0150925
0.0162314
0.0160122
0.0160988
0.016238
0.0162969
0.0162473
0.0161155
0.01594
0.0168427
0.0166814
0.0167462
0.0168476
0.0168863
0.0168393
0.0167243
0.0165691
0.0173488
0.0172245
0.0172601
0.0173186
0.0173293
0.0172744
0.0171662
0.0170243
0.0177481
0.0176449
0.0176494
0.0176663
0.0176471
0.0175793
0.017472
0.0173392
0.0180641
0.0179664
0.0179366
0.0179129
0.0178638
0.0177813
0.0176719
0.0175456
0.0182815
0.0181828
0.018124
0.0180671
0.0179929
0.0178972
0.0177851
0.0176636
0.0184568
0.0183382
0.0182363
0.0181388
0.018038
0.0179308
0.0178186
0.0177038
-0.61549
-0.62866
-0.6477
-0.67224
-0.702721
-0.736744
-0.767683
-0.789606
-0.61035
-0.623117
-0.64077
-0.661941
-0.686341
-0.713555
-0.739267
-0.756274
-0.603257
-0.615828
-0.631376
-0.649063
-0.667761
-0.684279
-0.694776
-0.694612
-0.596969
-0.607379
-0.618451
-0.628493
-0.636324
-0.639613
-0.635934
-0.622862
-0.593003
-0.597187
-0.599395
-0.598743
-0.595232
-0.588014
-0.575331
-0.55498
-0.589819
-0.583368
-0.574383
-0.563583
-0.551561
-0.537547
-0.519542
-0.495189
-0.583567
-0.564504
-0.54503
-0.526595
-0.509026
-0.490908
-0.469843
-0.443475
-0.570437
-0.539827
-0.512774
-0.489532
-0.468738
-0.448351
-0.425691
-0.3985
-0.54799
-0.509621
-0.478609
-0.453004
-0.430779
-0.409393
-0.386218
-0.359064
-0.516313
-0.475077
-0.443185
-0.417244
-0.394888
-0.373536
-0.350631
-0.324201
-0.477577
-0.437497
-0.407138
-0.382277
-0.360889
-0.340304
-0.3183
-0.293101
-0.434124
-0.398326
-0.370855
-0.348327
-0.328581
-0.309374
-0.288769
-0.265193
-0.388874
-0.358202
-0.334929
-0.315464
-0.297875
-0.280546
-0.261698
-0.240096
-0.340333
-0.317814
-0.299647
-0.283911
-0.268936
-0.253583
-0.236786
-0.21728
-0.291426
-0.279847
-0.26512
-0.254318
-0.241077
-0.227948