/*--------------------------------*- C++ -*----------------------------------*\
| =========                 |                                                 |
| \\      /  F ield         | OpenFOAM: The Open Source CFD Toolbox           |
|  \\    /   O peration     | Version:  2512                                  |
|   \\  /    A nd           | Website:  www.openfoam.com                      |
|    \\/     M anipulation  |                                                 |
\*---------------------------------------------------------------------------*/
FoamFile
{
    version     2.0;
    format      ascii;
    arch        "LSB;label=32;scalar=64";
    class       volVectorField;
    location    "47.85";
    object      U;
}
// * * * * * * * * * * * * * * * * * * * * * * * * * * * * * * * * * * * * * //

dimensions      [0 1 -1 0 0 0 0];

internalField   nonuniform List<vector> 
13248
(
(-0.0149687 0.0118514 4.34366e-20)
(-0.0311957 0.0211692 0)
(-0.0373408 0.0213665 -7.58211e-20)
(-0.0311986 0.0175154 7.02086e-20)
(-0.0103517 0.0120786 6.5024e-20)
(0.0276965 0.00629 0)
(0.0852564 0.000999266 0)
(0.163587 -0.00294334 1.50805e-19)
(0.262131 -0.00488207 -1.65469e-21)
(0.377966 -0.00426835 -1.26923e-19)
(0.505835 -0.000813008 1.12855e-19)
(0.638816 0.00538495 -6.96221e-20)
(0.769397 0.0138226 0)
(0.890557 0.0236687 -1.06698e-19)
(0.996677 0.033939 1.93872e-19)
(1.08391 0.0436211 -4.54326e-20)
(1.15077 0.0519054 -7.37642e-20)
(1.19731 0.0580909 6.87698e-20)
(1.22577 0.0622163 0)
(1.23981 0.0631488 0)
(1.24173 0.06394 0)
(1.23993 0.0583013 0)
(1.2308 0.0592601 1.80406e-20)
(1.22617 0.0448972 6.32975e-20)
(-0.0175622 0.0131701 -1.3072e-19)
(-0.0325774 0.0238485 8.27504e-20)
(-0.0305552 0.0249516 -1.80893e-22)
(-0.0100818 0.0213867 -1.06206e-19)
(0.0310969 0.0160943 -6.49311e-20)
(0.0953351 0.0109671 -6.01948e-20)
(0.18402 0.00744755 -1.09725e-19)
(0.29626 0.00661338 1.0195e-19)
(0.427792 0.00913064 0)
(0.571073 0.0151121 1.07247e-21)
(0.716503 0.0240398 2.20446e-21)
(0.854241 0.034867 6.92414e-20)
(0.975897 0.0462611 0)
(1.0757 0.056891 0)
(1.15092 0.0657028 6.96079e-20)
(1.20197 0.0719986 -1.29495e-19)
(1.2316 0.0756718 7.27478e-20)
(1.24445 0.0767513 -6.78261e-20)
(1.24594 0.0759401 -2.88196e-20)
(1.24085 0.0734725 -5.01039e-20)
(1.23401 0.0702918 -2.00525e-20)
(1.22749 0.0658388 -3.70398e-20)
(1.2218 0.06284 5.52101e-20)
(1.22023 0.0550897 1.5554e-20)
(-0.0187432 0.0127672 0)
(-0.0296245 0.0225706 0)
(-0.0159025 0.0235828 3.81952e-20)
(0.023471 0.0203849 3.50413e-20)
(0.0905716 0.0163332 -4.54836e-22)
(0.186819 0.0138909 -6.08608e-20)
(0.310904 0.0148287 0)
(0.457048 0.020074 -5.05556e-20)
(0.614937 0.0295157 4.59577e-20)
(0.771738 0.042034 -2.68305e-22)
(0.915047 0.055847 -7.49479e-20)
(1.03538 0.0690227 -6.57571e-20)
(1.12752 0.0799555 2.73428e-21)
(1.19074 0.0876848 -4.91444e-20)
(1.22812 0.0919604 1.20116e-19)
(1.24524 0.093169 0)
(1.24875 0.092078 -7.129e-20)
(1.24492 0.0894128 3.45573e-20)
(1.23829 0.0862996 2.87904e-20)
(1.23204 0.0821552 0)
(1.2265 0.0793474 2.24737e-20)
(1.22235 0.0739082 -7.64827e-20)
(1.21746 0.0724103 7.14231e-20)
(1.21399 0.0647124 4.40686e-20)
(-0.0184564 0.0111559 -4.50417e-20)
(-0.0214049 0.0182857 -4.28888e-20)
(0.00876639 0.0185628 3.88399e-20)
(0.0728803 0.0163581 0)
(0.172203 0.0154162 0)
(0.305195 0.0185191 -4.07463e-22)
(0.464572 0.0270684 0)
(0.636822 0.0407271 -1.50409e-19)
(0.805234 0.0575945 1.37144e-19)
(0.954475 0.0749601 -1.66404e-19)
(1.07414 0.0902304 3.72431e-20)
(1.16016 0.101628 0)
(1.21433 0.108489 5.71856e-20)
(1.24261 0.111163 -1.03806e-19)
(1.25281 0.110647 2.44803e-20)
(1.25252 0.108146 5.88576e-20)
(1.24754 0.104619 -3.93116e-21)
(1.24125 0.100845 -6.39926e-20)
(1.23516 0.0968408 0)
(1.22919 0.0929802 0)
(1.22319 0.0890184 -2.13064e-20)
(1.21703 0.0841563 1.87967e-20)
(1.21032 0.0815118 6.55758e-20)
(1.20481 0.073508 -6.12151e-20)
(-0.0164341 0.00878856 -4.65449e-20)
(-0.00646537 0.0122358 -4.32812e-20)
(0.046324 0.0120497 1.19782e-19)
(0.142029 0.0124961 -7.23835e-20)
(0.279099 0.0175355 6.70521e-20)
(0.449272 0.0294372 1.21247e-19)
(0.635716 0.0477814 -8.39595e-20)
(0.817022 0.0697247 -9.94013e-20)
(0.974166 0.0913834 2.92894e-21)
(1.09558 0.109386 1.24103e-19)
(1.1785 0.121832 0)
(1.22731 0.128474 3.19298e-20)
(1.25049 0.130303 0)
(1.25729 0.128855 -4.92548e-20)
(1.25539 0.125596 6.84789e-20)
(1.24977 0.121524 5.69148e-22)
(1.24288 0.117221 -1.70812e-20)
(1.23566 0.112755 3.10413e-20)
(1.22828 0.108327 2.65289e-20)
(1.22099 0.103628 -2.33767e-20)
(1.21394 0.0991444 2.12968e-20)
(1.20761 0.0939951 -1.87881e-20)
(1.20151 0.0905106 0)
(1.19713 0.0831365 -1.40848e-20)
(-0.0120803 0.00597255 4.65333e-20)
(0.0170621 0.00572126 4.48061e-20)
(0.0997289 0.00657034 -4.0061e-20)
(0.2335 0.0125022 7.34984e-20)
(0.410101 0.0269231 -6.80814e-20)
(0.610065 0.0498356 6.09024e-20)
(0.80649 0.0774283 -2.86279e-20)
(0.975239 0.104296 7.47169e-20)
(1.10261 0.126007 -4.59345e-20)
(1.18665 0.140437 7.85992e-20)
(1.23405 0.147741 -1.77987e-19)
(1.25534 0.149509 6.40021e-20)
(1.2608 0.147726 -5.4292e-20)
(1.25806 0.144045 5.05417e-20)
(1.25171 0.139498 4.21648e-20)
(1.244 0.134621 3.59957e-20)
(1.23594 0.129577 -9.94639e-20)
(1.228 0.124531 6.09889e-20)
(1.22052 0.119411 -2.65248e-20)
(1.2136 0.114418 6.8036e-20)
(1.20723 0.109429 -2.18677e-20)
(1.20121 0.104324 -5.20588e-20)
(1.19525 0.100185 4.76711e-20)
(1.18989 0.0932157 1.40801e-20)
(-0.00451615 0.00299694 0)
(0.0511797 3.46979e-05 3.03402e-22)
(0.170999 0.00463213 8.26132e-20)
(0.34658 0.0197364 -7.61824e-20)
(0.557616 0.0462312 -6.80117e-20)
(0.771623 0.0797485 1.24443e-19)
(0.957194 0.11296 -5.69506e-20)
(1.09633 0.139799 7.42826e-20)
(1.18667 0.157554 -2.01866e-21)
(1.23656 0.16662 -4.05341e-20)
(1.25838 0.169113 8.60852e-20)
(1.26355 0.167458 -1.24829e-19)
(1.26016 0.163561 0)
(1.25301 0.158594 -2.34563e-20)
(1.24454 0.153178 -6.14098e-20)
(1.23591 0.147594 1.92475e-20)
(1.22763 0.14201 8.76631e-22)
(1.21983 0.136442 -4.00439e-20)
(1.21246 0.13097 2.96132e-21)
(1.20542 0.125523 4.55155e-20)
(1.19863 0.120104 -1.9818e-20)
(1.19217 0.114758 -7.38818e-21)
(1.18591 0.109749 2.29408e-20)
(1.18044 0.103167 0)
(0.00722534 0.000178348 0)
(0.0974858 -0.00338334 2.26482e-20)
(0.260205 0.00876079 -1.0676e-19)
(0.47602 0.0365852 3.83404e-20)
(0.708646 0.0756252 -3.55131e-20)
(0.917135 0.116396 -3.17336e-20)
(1.0755 0.150242 -5.51176e-20)
(1.17851 0.173107 2.72814e-20)
(1.23522 0.185266 2.33859e-20)
(1.25994 0.189294 0)
(1.26579 0.18816 5.04687e-20)
(1.26206 0.184192 -7.35399e-20)
(1.25426 0.178851 5.42246e-20)
(1.24518 0.172932 2.34665e-20)
(1.23605 0.166811 -1.87357e-20)
(1.22729 0.160666 -1.52707e-20)
(1.21897 0.15454 -1.40334e-20)
(1.21105 0.148476 4.22349e-20)
(1.20354 0.142453 0)
(1.19648 0.136517 2.04886e-20)
(1.18992 0.130672 1.68457e-20)
(1.18378 0.125009 -4.19114e-20)
(1.17792 0.119396 -2.80988e-20)
(1.17247 0.11338 2.58617e-20)
(0.0239358 -0.00188763 -2.61092e-20)
(0.156515 -0.00269506 -8.83239e-22)
(0.364587 0.0212628 2.16936e-20)
(0.612411 0.0638578 5.95443e-20)
(0.84921 0.11307 1.68515e-20)
(1.03585 0.156246 -3.20553e-20)
(1.15978 0.186615 2.89478e-20)
(1.22899 0.203646 -2.49204e-20)
(1.25974 0.210257 4.35069e-20)
(1.26768 0.210139 1.81608e-20)
(1.26413 0.20629 -5.08019e-20)
(1.25578 0.200631 1.47773e-20)
(1.24598 0.194201 2.4707e-20)
(1.23613 0.187486 -1.20929e-20)
(1.22667 0.180695 0)
(1.2177 0.173904 1.74171e-20)
(1.20925 0.16717 2.89636e-20)
(1.20134 0.160515 4.71891e-21)
(1.19396 0.153983 -2.36532e-20)
(1.18707 0.147582 9.73831e-21)
(1.18056 0.141329 0)
(1.17432 0.135247 -7.45706e-21)
(1.16828 0.129105 -6.9432e-21)
(1.16251 0.12334 0)
(0.04601 -0.00244609 0)
(0.227286 0.0040296 1.26582e-20)
(0.478424 0.0436952 2.30885e-20)
(0.744697 0.100629 -6.05447e-20)
(0.96929 0.155698 1.92149e-20)
(1.12504 0.196835 0)
(1.21494 0.221336 2.73968e-20)
(1.25654 0.232124 -3.76423e-20)
(1.26889 0.233797 -2.16032e-20)
(1.26636 0.230339 9.66722e-21)
(1.2576 0.224378 -1.49398e-20)
(1.24693 0.217342 3.60885e-20)
(1.23614 0.209894 1.77739e-20)
(1.22584 0.202316 -1.23347e-20)
(1.21619 0.194734 -1.23113e-21)
(1.20718 0.187223 -3.25845e-20)
(1.1988 0.179819 1.46855e-20)
(1.19098 0.172558 -3.66196e-22)
(1.18368 0.165451 0)
(1.17686 0.158517 -9.74797e-21)
(1.17049 0.151776 0)
(1.16447 0.1452 2.14628e-20)
(1.15871 0.138662 -2.53035e-20)
(1.15315 0.133062 1.14183e-20)
(0.0733625 -0.000616891 -7.21724e-21)
(0.307111 0.0185653 -3.20838e-20)
(0.593983 0.0764301 3.59393e-20)
(0.863507 0.144895 2.05887e-20)
(1.06453 0.20114 -9.7449e-21)
(1.18708 0.237085 1.56834e-20)
(1.24731 0.254671 -7.57927e-21)
(1.26809 0.259481 1.22284e-20)
(1.26817 0.256909 0)
(1.25939 0.25069 2.66791e-20)
(1.24778 0.242904 -1.13127e-21)
(1.2359 0.23453 -2.09889e-20)
(1.2246 0.225983 8.86489e-21)
(1.21411 0.217439 -9.85201e-21)
(1.2044 0.208984 -3.66096e-21)
(1.19539 0.200663 4.25915e-21)
(1.18705 0.19251 -3.22048e-21)
(1.17934 0.18455 -1.7265e-20)
(1.17223 0.176814 1.0497e-20)
(1.16566 0.169324 2.11333e-21)
(1.15951 0.162076 1.83861e-21)
(1.15364 0.155017 1.60037e-21)
(1.14794 0.148162 0)
(1.14231 0.14236 0)
(0.10536 0.00450389 7.22598e-21)
(0.391864 0.042138 -6.67943e-21)
(0.70343 0.118656 -1.20063e-20)
(0.963051 0.194513 0)
(1.13476 0.247941 -4.81421e-21)
(1.22603 0.276773 -4.19648e-21)
(1.2623 0.287188 -6.97973e-21)
(1.26821 0.28651 0)
(1.26047 0.280226 0)
(1.24808 0.27153 0)
(1.23496 0.261964 0)
(1.22248 0.252169 0)
(1.21097 0.242396 -5.54181e-21)
(1.20041 0.232751 2.49582e-21)
(1.19073 0.223288 4.28775e-21)
(1.18185 0.214048 1.98701e-21)
(1.1737 0.205057 4.83821e-21)
(1.16624 0.196342 0)
(1.15941 0.187921 -1.12639e-21)
(1.15311 0.179805 -1.06576e-21)
(1.14725 0.171977 -1.84151e-21)
(1.14173 0.1644 -1.60289e-21)
(1.13642 0.15719 0)
(1.13126 0.150989 1.11678e-21)
(0.00115806 -0.0773822 6.39827e-21)
(-0.00249759 -0.160868 -6.08531e-21)
(-0.0143795 -0.198263 -1.12679e-20)
(-0.0304682 -0.20842 0)
(-0.048599 -0.205475 -1.46298e-20)
(-0.067743 -0.198143 4.58167e-21)
(-0.0873516 -0.190447 -8.39324e-21)
(-0.10714 -0.183307 0)
(-0.12696 -0.176139 0)
(-0.146714 -0.167914 0)
(-0.166294 -0.157598 0)
(-0.185541 -0.144231 0)
(-0.204225 -0.12689 2.60458e-22)
(-0.222033 -0.104691 -5.50278e-21)
(-0.238558 -0.0768243 9.93607e-21)
(-0.253315 -0.0426483 1.42269e-20)
(-0.265375 -0.00162297 4.07673e-21)
(-0.274539 0.0462872 0)
(-0.280754 0.100515 4.00463e-21)
(-0.283281 0.160236 -1.06008e-20)
(-0.281724 0.224107 -6.27963e-21)
(-0.275806 0.290366 -5.70562e-21)
(-0.265644 0.357112 0)
(-0.251732 0.422341 0)
(0.00494555 -0.0713606 -1.89701e-20)
(0.00399304 -0.146372 3.01572e-20)
(-0.00831119 -0.178384 -1.08671e-20)
(-0.0259776 -0.185268 -2.04972e-20)
(-0.0459848 -0.180324 2.86689e-20)
(-0.0669672 -0.171705 -1.76728e-20)
(-0.0882704 -0.163124 2.47778e-20)
(-0.109608 -0.155359 1.49624e-20)
(-0.130861 -0.147771 0)
(-0.151957 -0.13933 -1.37214e-20)
(-0.172809 -0.129059 -1.07029e-22)
(-0.193281 -0.116103 1.19493e-20)
(-0.213161 -0.0996845 1.60691e-20)
(-0.232135 -0.0790611 2.02266e-20)
(-0.249793 -0.0535589 -9.94287e-21)
(-0.265408 -0.0225766 -2.68131e-20)
(-0.278459 0.0141556 7.47084e-21)
(-0.288561 0.0563701 -2.89864e-20)
(-0.295022 0.103966 0)
(-0.297221 0.156246 6.85503e-21)
(-0.294598 0.212093 6.27063e-21)
(-0.28641 0.269985 5.69735e-21)
(-0.2721 0.328172 0)
(-0.25399 0.3853 0)
(0.00794456 -0.0637022 0)
(0.00919469 -0.129427 5.75678e-20)
(-0.00311895 -0.156369 -2.13714e-20)
(-0.0215433 -0.160584 2.00811e-20)
(-0.0423645 -0.154164 -5.46636e-20)
(-0.063903 -0.144609 0)
(-0.0853832 -0.135379 -3.1495e-20)
(-0.106491 -0.127202 1.42884e-20)
(-0.127104 -0.119449 -2.6531e-20)
(-0.147141 -0.111108 1.16145e-20)
(-0.166501 -0.101239 6.93074e-20)
(-0.185026 -0.0890677 -3.21419e-20)
(-0.202481 -0.0739412 -5.02523e-20)
(-0.218531 -0.0552612 -1.73402e-20)
(-0.23268 -0.0325281 4.74079e-22)
(-0.244494 -0.00536418 6.22395e-20)
(-0.253439 0.0262638 -2.87381e-20)
(-0.258796 0.0623842 1.83275e-21)
(-0.259853 0.10271 0)
(-0.255899 0.146625 -1.93959e-20)
(-0.246351 0.19322 0)
(-0.230622 0.241375 -1.74335e-20)
(-0.207124 0.289696 5.96377e-20)
(-0.175899 0.335981 -1.03989e-21)
(0.00998474 -0.0551313 0)
(0.0127712 -0.111318 -6.73565e-22)
(0.00067703 -0.133636 2.04025e-20)
(-0.0178862 -0.135818 -1.87948e-20)
(-0.038684 -0.128506 1.80704e-20)
(-0.0597514 -0.118475 9.77728e-20)
(-0.0801794 -0.108956 -3.03524e-20)
(-0.0996102 -0.100702 -2.75364e-20)
(-0.117907 -0.0931613 5.19114e-20)
(-0.134967 -0.0853683 -7.21588e-20)
(-0.150654 -0.076412 2.15904e-20)
(-0.164775 -0.0655651 1.97036e-20)
(-0.177047 -0.0522582 0)
(-0.18714 -0.0360667 1.77029e-20)
(-0.194655 -0.0166385 0)
(-0.199084 0.00620737 2.66924e-20)
(-0.199881 0.0325952 -4.93443e-20)
(-0.196414 0.0624288 1.40299e-20)
(-0.188009 0.0953836 4.10877e-20)
(-0.173955 0.13088 1.93756e-20)
(-0.15354 0.168121 0)
(-0.12646 0.206066 -4.20732e-20)
(-0.0937426 0.243502 1.38029e-20)
(-0.0450432 0.280237 0)
(0.0109742 -0.0462073 0)
(0.0144527 -0.0929958 -6.5465e-20)
(0.00253877 -0.111241 -1.99081e-20)
(-0.0158346 -0.112097 -3.71236e-20)
(-0.0360844 -0.104603 3.43986e-20)
(-0.0560072 -0.0947316 -3.22412e-20)
(-0.0745635 -0.0854727 5.84207e-20)
(-0.0913478 -0.0776372 2.71156e-20)
(-0.106215 -0.0708099 -7.53723e-20)
(-0.119057 -0.0641253 4.54099e-20)
(-0.129714 -0.0567217 -6.3226e-20)
(-0.137958 -0.0479084 1.3208e-19)
(-0.143529 -0.0371808 -7.04688e-20)
(-0.146059 -0.0241759 3.06124e-20)
(-0.145131 -0.00862218 8.31819e-20)
(-0.140324 0.00960826 -2.88438e-20)
(-0.131145 0.0305298 -2.39298e-20)
(-0.117071 0.0540032 -2.20213e-20)
(-0.0975863 0.0797262 0)
(-0.0721117 0.107168 -2.98232e-20)
(-0.040319 0.135749 -2.421e-20)
(-0.000671516 0.163933 3.752e-20)
(0.0417727 0.192239 4.15779e-20)
(0.106834 0.216938 -3.74467e-20)
(0.010853 -0.0372748 0)
(0.0140056 -0.0750315 -8.42845e-20)
(0.00196842 -0.0898173 5.42583e-22)
(-0.016164 -0.0901091 7.25614e-20)
(-0.0356396 -0.0832568 0)
(-0.0540927 -0.0743475 0)
(-0.070375 -0.0660744 0)
(-0.0840372 -0.0592967 -2.62252e-20)
(-0.0949352 -0.0537695 6.33584e-22)
(-0.102981 -0.0487846 4.43878e-20)
(-0.108034 -0.0435718 -6.04467e-20)
(-0.109874 -0.0374826 6.65114e-22)
(-0.108204 -0.030027 0)
(-0.102694 -0.020842 -3.06004e-20)
(-0.0929765 -0.00971815 2.43734e-20)
(-0.0786872 0.00346255 -7.11642e-20)
(-0.0594374 0.0186796 8.21364e-20)
(-0.0348399 0.0358813 1.3773e-20)
(-0.00458581 0.0547573 -4.43469e-21)
(0.0323171 0.0746927 -5.71617e-20)
(0.0732498 0.0959575 -2.3018e-20)
(0.127121 0.114961 7.14546e-20)
(0.173227 0.137606 -4.57237e-20)
(0.256729 0.148 0)
(0.0095619 -0.0284825 4.31931e-20)
(0.0112439 -0.0576581 4.19229e-20)
(-0.0013797 -0.0695969 -3.8136e-20)
(-0.0193732 -0.0700773 -7.0942e-20)
(-0.038011 -0.0647178 6.5734e-20)
(-0.0548681 -0.0576531 -6.02941e-20)
(-0.0687243 -0.0512005 8.35649e-20)
(-0.0790868 -0.0462126 -2.59943e-20)
(-0.0858058 -0.0426052 4.72016e-20)
(-0.0888 -0.0398417 0)
(-0.087927 -0.0372674 3.72217e-20)
(-0.0829598 -0.0342858 -7.02863e-20)
(-0.0735971 -0.03042 6.21332e-20)
(-0.0594929 -0.0253127 -5.78351e-20)
(-0.040278 -0.0187131 0)
(-0.015646 -0.010461 4.46866e-20)
(0.0148205 -0.00047108 7.43929e-20)
(0.0514415 0.0112217 -7.03066e-20)
(0.0936246 0.02429 -2.88686e-20)
(0.14539 0.0381713 -2.42343e-20)
(0.194863 0.0539126 6.89507e-20)
(0.270954 0.065865 1.75996e-20)
(0.31625 0.084772 -1.73757e-20)
(0.430622 0.0868292 1.51942e-20)
(0.00705515 -0.019874 -4.32038e-20)
(0.00611444 -0.0409125 1.2243e-19)
(-0.00750829 -0.0505242 -3.75248e-20)
(-0.0253717 -0.0518098 6.98943e-20)
(-0.04298 -0.0486586 -6.47632e-20)
(-0.0579546 -0.044208 -4.49501e-23)
(-0.0690231 -0.0403207 2.74258e-20)
(-0.0756044 -0.0377608 9.91483e-20)
(-0.0774477 -0.0365352 -1.6003e-21)
(-0.0743667 -0.0362384 -4.30033e-20)
(-0.066088 -0.036339 0)
(-0.0522393 -0.0362975 -3.26726e-20)
(-0.032377 -0.0356315 6.27372e-20)
(-0.00605013 -0.0339383 5.35976e-20)
(0.0271841 -0.0308767 -2.5783e-20)
(0.0676355 -0.026227 -5.76568e-22)
(0.1154 -0.019844 -1.90971e-20)
(0.170881 -0.0116852 3.23948e-20)
(0.231603 -0.00225891 2.88701e-20)
(0.306187 0.00872099 -2.49956e-20)
(0.369065 0.0208358 2.15566e-20)
(0.475286 0.0308228 -1.89702e-20)
(0.520941 0.0461236 0)
(0.671909 0.0488367 -1.51877e-20)
(0.00337432 -0.0115277 4.244e-20)
(-0.00113731 -0.0248528 -4.06796e-20)
(-0.0158293 -0.0324603 3.74138e-20)
(-0.0331249 -0.0348732 0)
(-0.0489311 -0.0343042 0)
(-0.0609663 -0.0328788 5.84024e-20)
(-0.0678498 -0.031941 -5.45522e-20)
(-0.0687589 -0.0320659 4.87694e-20)
(-0.0631335 -0.0332307 -2.27381e-19)
(-0.0504116 -0.0351808 6.76013e-22)
(-0.0300082 -0.0374348 3.75129e-20)
(-0.00126798 -0.039452 0)
(0.0363695 -0.0407116 -5.94395e-20)
(0.0832464 -0.0407464 1.08111e-19)
(0.139365 -0.0391572 -7.32857e-20)
(0.204444 -0.0357188 -1.03051e-19)
(0.277598 -0.0302291 4.7105e-21)
(0.358352 -0.0226758 6.66492e-20)
(0.443039 -0.0137741 0)
(0.538706 -0.00262154 0)
(0.620486 0.00816252 -2.15606e-20)
(0.738776 0.0200024 1.89736e-20)
(0.793603 0.0317426 -6.86066e-20)
(0.947006 0.0390595 6.39757e-20)
(-0.0012423 -0.00368888 0)
(-0.009796 -0.0097856 0)
(-0.0249876 -0.015461 -1.12121e-19)
(-0.0404653 -0.0189276 3.47092e-20)
(-0.0526274 -0.0208374 2.68934e-22)
(-0.0592281 -0.0223263 5.89661e-20)
(-0.058628 -0.024165 0)
(-0.0495205 -0.0266282 -4.97473e-20)
(-0.0308415 -0.0297813 4.54888e-20)
(-0.00165294 -0.0332973 -8.17375e-20)
(0.0389261 -0.0366207 8.56435e-22)
(0.0913594 -0.0391987 6.641e-20)
(0.155574 -0.0404848 -2.42139e-21)
(0.230841 -0.0400014 5.02666e-20)
(0.315708 -0.0373776 -7.42246e-20)
(0.408344 -0.0325677 0)
(0.506191 -0.0252834 7.2077e-20)
(0.606728 -0.0164181 -9.95791e-20)
(0.707871 -0.00563299 2.88865e-20)
(0.806615 0.0058059 0)
(0.898781 0.0170747 2.26786e-20)
(0.99369 0.0286456 7.88645e-20)
(1.05616 0.0373184 -7.36369e-20)
(1.15996 0.0447616 -8.29186e-20)
(-0.00629196 0.00317586 1.27198e-19)
(-0.0186539 0.00358217 -1.61391e-19)
(-0.0329993 -5.87691e-05 -1.13159e-23)
(-0.0444299 -0.00415049 3.46628e-20)
(-0.0498232 -0.0079956 -6.41289e-20)
(-0.0468379 -0.0117964 -5.89745e-20)
(-0.0334387 -0.01573 1.08054e-19)
(-0.00790682 -0.0199623 -1.50129e-21)
(0.0312256 -0.0242804 -9.1925e-20)
(0.0849617 -0.0281243 1.65246e-19)
(0.153471 -0.0309858 -2.25476e-21)
(0.235942 -0.0323025 -6.90347e-20)
(0.33046 -0.0315893 0)
(0.434141 -0.0285405 0)
(0.543317 -0.0230277 -2.40411e-20)
(0.654284 -0.0154388 -4.27757e-20)
(0.762741 -0.00565804 -7.31632e-20)
(0.865705 0.00446293 6.82008e-20)
(0.960148 0.0163538 -2.89082e-20)
(1.04224 0.025823 5.05672e-20)
(1.11519 0.0363813 -2.472e-20)
(1.16949 0.0427797 3.91468e-20)
(1.21556 0.0478427 -9.45827e-20)
(1.24967 0.0494091 1.67906e-20)
(-0.0110827 0.00849507 4.25663e-20)
(-0.0262373 0.0142288 0)
(-0.0377265 0.0126689 7.5257e-20)
(-0.042121 0.0085139 -6.96879e-20)
(-0.0366986 0.00351779 6.42096e-20)
(-0.0189512 -0.00170058 0)
(0.0134236 -0.00693057 0)
(0.0623335 -0.0118552 -4.96134e-20)
(0.128917 -0.0158673 1.5787e-21)
(0.213014 -0.0184599 4.2803e-20)
(0.312839 -0.0190942 -3.68926e-20)
(0.424967 -0.0173538 6.94699e-20)
(0.544653 -0.0130682 0)
(0.666431 -0.00638533 1.06859e-19)
(0.784758 0.00227164 -1.94205e-19)
(0.894738 0.0121376 1.31039e-19)
(0.992057 0.0226167 7.39113e-20)
(1.07472 0.0322002 -6.89021e-20)
(1.13969 0.0415942 0)
(1.18931 0.0470571 0)
(1.2217 0.0535076 0)
(1.24033 0.0524649 0)
(1.2513 0.0541954 1.8686e-20)
(1.24587 0.048631 -6.66775e-20)
(-0.233734 0.492584 -3.23848e-21)
(-0.207993 0.569513 3.23822e-21)
(-0.172876 0.63106 -8.27963e-23)
(-0.129885 0.673698 0)
(-0.073656 0.688133 -2.46145e-21)
(-0.00162733 0.666792 4.83774e-21)
(0.087685 0.60211 1.39522e-22)
(0.192305 0.492379 -2.44328e-21)
(0.305774 0.344588 0)
(0.416318 0.169916 0)
(0.514106 -0.0276204 -1.78305e-22)
(0.60037 -0.249869 -1.71673e-22)
(0.675774 -0.472669 -2.40921e-21)
(0.730366 -0.644524 2.19007e-21)
(0.76202 -0.728396 0)
(0.774643 -0.739876 0)
(0.770252 -0.719437 1.0231e-21)
(0.762546 -0.682097 -4.24825e-23)
(0.761523 -0.641475 -8.66479e-22)
(0.757083 -0.639897 -5.85796e-23)
(0.738085 -0.69504 0)
(0.714232 -0.742254 0)
(0.71204 -0.675296 0)
(0.737544 -0.454029 0)
(0.765543 -0.126458 0)
(0.784848 0.222525 0)
(0.800929 0.505374 5.08186e-22)
(0.804521 0.6832 -8.28843e-22)
(0.791673 0.758303 0)
(0.783494 0.752295 0)
(0.763994 0.740573 -3.45853e-22)
(0.708936 0.774359 3.36063e-22)
(0.635839 0.789831 1.84828e-22)
(0.570068 0.690824 0)
(0.526546 0.457891 0)
(0.507953 0.149612 4.74376e-22)
(0.517342 -0.148218 -4.6105e-22)
(0.549535 -0.365981 0)
(0.581112 -0.489347 2.81409e-22)
(0.608536 -0.528159 -3.9903e-22)
(0.633941 -0.512461 9.82993e-23)
(0.623331 -0.490583 0)
(0.570073 -0.46873 -1.28864e-22)
(0.526234 -0.398523 1.25302e-22)
(0.523885 -0.260318 0)
(0.562777 -0.093754 0)
(0.619014 0.0509862 -3.48232e-23)
(0.675498 0.151183 9.25585e-23)
(0.717634 0.206927 0)
(0.752162 0.224701 0)
(0.768425 0.22342 -1.70781e-23)
(0.758905 0.210982 2.02642e-25)
(0.734603 0.183031 -2.16781e-24)
(0.741521 0.12899 9.83949e-24)
(0.775859 0.053791 0)
(0.833746 -0.001974 0)
(0.875286 -0.0552264 0)
(0.911683 -0.0590367 0)
(0.925158 -0.0822539 0)
(0.921086 -0.0623941 0)
(-0.233698 0.448744 -2.58085e-22)
(-0.192742 0.517828 -1.03277e-20)
(-0.140025 0.571096 3.26936e-22)
(-0.0749574 0.603415 9.36139e-21)
(0.00469198 0.606347 1.41243e-22)
(0.0995569 0.573597 0)
(0.207918 0.500485 -1.02678e-20)
(0.325361 0.387468 2.11336e-20)
(0.443896 0.244231 -1.08676e-20)
(0.551508 0.0830681 1.17631e-20)
(0.642969 -0.099645 -1.12435e-20)
(0.724929 -0.312059 1.05966e-20)
(0.795216 -0.52473 -1.03073e-20)
(0.836403 -0.681076 -2.61336e-22)
(0.845724 -0.747702 -6.05023e-21)
(0.836064 -0.742184 5.87583e-21)
(0.812832 -0.710627 -4.16764e-21)
(0.787784 -0.673044 3.92806e-21)
(0.773468 -0.633823 -3.80441e-21)
(0.76001 -0.626244 7.6006e-21)
(0.731536 -0.674053 -3.79059e-21)
(0.693264 -0.724566 -2.7284e-22)
(0.670641 -0.671615 -5.95002e-21)
(0.677859 -0.46214 1.25058e-20)
(0.698359 -0.14138 -6.53374e-21)
(0.72009 0.203375 4.13108e-22)
(0.743267 0.488245 5.68923e-21)
(0.755425 0.67518 -7.28059e-22)
(0.757578 0.756679 -7.97519e-21)
(0.765017 0.757148 6.68281e-21)
(0.756034 0.757531 -3.05762e-21)
(0.710764 0.801278 3.71153e-22)
(0.646292 0.820289 -1.85226e-22)
(0.590563 0.718794 4.68624e-22)
(0.556173 0.476954 0)
(0.540871 0.156007 0)
(0.547702 -0.15517 -1.88264e-21)
(0.576804 -0.380328 1.38635e-21)
(0.607266 -0.502992 8.58004e-22)
(0.627215 -0.53972 -1.18589e-22)
(0.647254 -0.517279 -1.00074e-21)
(0.641496 -0.482023 1.56815e-22)
(0.592049 -0.453768 0)
(0.543553 -0.391311 0)
(0.534822 -0.266301 0)
(0.56952 -0.10839 0)
(0.621098 0.0345769 1.19325e-22)
(0.674121 0.137312 -5.87499e-23)
(0.716151 0.196377 0)
(0.752219 0.218127 0)
(0.762894 0.223188 0)
(0.746621 0.215408 -2.66295e-23)
(0.724016 0.184582 2.85718e-24)
(0.742739 0.123379 -2.09785e-23)
(0.786792 0.0430978 0)
(0.846874 -0.012653 0)
(0.888433 -0.0629929 6.90666e-24)
(0.919719 -0.0640435 1.3923e-23)
(0.935899 -0.0830995 0)
(0.929189 -0.0620219 0)
(-0.148132 0.391252 -4.54639e-22)
(-0.0976039 0.449525 -1.76557e-20)
(-0.0353188 0.492464 1.76406e-20)
(0.0409761 0.514776 -1.64907e-20)
(0.132299 0.509606 -1.42254e-22)
(0.236062 0.471695 0)
(0.348672 0.397236 -2.11222e-20)
(0.46564 0.287155 2.06855e-20)
(0.57796 0.154654 1.75425e-22)
(0.674758 0.0131017 3.57137e-22)
(0.758096 -0.151156 3.58963e-22)
(0.83795 -0.352512 3.51389e-22)
(0.904262 -0.552363 -1.87608e-20)
(0.932938 -0.690857 1.84806e-20)
(0.921723 -0.742712 0)
(0.891876 -0.72826 3.29347e-22)
(0.853522 -0.692399 -8.33752e-21)
(0.813758 -0.657546 8.21744e-21)
(0.786578 -0.621595 0)
(0.765186 -0.607215 0)
(0.728853 -0.645332 -8.35526e-21)
(0.676648 -0.700089 1.78455e-20)
(0.63387 -0.667619 -2.03406e-20)
(0.621391 -0.477199 -1.52165e-21)
(0.633166 -0.166151 2.52504e-20)
(0.657327 0.173944 -2.57519e-20)
(0.686775 0.462156 2.21087e-20)
(0.708409 0.658481 -2.19854e-21)
(0.726014 0.747409 -8.54485e-21)
(0.74877 0.755913 0)
(0.751753 0.76916 0)
(0.716892 0.826815 2.50335e-21)
(0.664156 0.852248 -3.17385e-21)
(0.619888 0.748199 3.59271e-23)
(0.593228 0.499427 4.66311e-21)
(0.5809 0.169547 -4.53083e-21)
(0.584692 -0.153834 0)
(0.608191 -0.388824 4.45237e-22)
(0.636766 -0.512732 2.92237e-21)
(0.650691 -0.548194 -4.99333e-21)
(0.663376 -0.522235 1.88112e-21)
(0.660782 -0.475973 1.53917e-22)
(0.616986 -0.440065 -1.13458e-21)
(0.564964 -0.38364 8.70353e-22)
(0.548009 -0.271801 1.50135e-22)
(0.576803 -0.122674 1.20917e-22)
(0.623471 0.0186225 -1.19643e-22)
(0.674337 0.123433 0)
(0.717437 0.185543 0)
(0.753253 0.212333 -3.02962e-22)
(0.756126 0.224636 1.46669e-22)
(0.734427 0.220329 -1.23573e-22)
(0.716955 0.184508 1.62495e-22)
(0.748152 0.115594 1.78696e-22)
(0.800589 0.0314742 -3.83675e-23)
(0.861252 -0.0232982 5.42122e-23)
(0.90177 -0.0700821 -3.66866e-23)
(0.927444 -0.0686528 1.49004e-23)
(0.944524 -0.0839743 0)
(0.936588 -0.0614702 0)
(-0.00954027 0.325378 -3.0789e-20)
(0.0433219 0.371029 -3.35925e-22)
(0.10969 0.404085 2.93347e-20)
(0.189587 0.419149 -2.56844e-22)
(0.282271 0.409668 0)
(0.384402 0.371698 0)
(0.491803 0.30171 -4.14477e-20)
(0.600447 0.199974 -4.12398e-21)
(0.700278 0.0815533 6.55513e-20)
(0.783264 -0.0413609 6.81139e-22)
(0.861002 -0.191816 -2.28151e-20)
(0.942978 -0.383678 -2.04139e-20)
(1.00607 -0.568806 2.04654e-20)
(1.02223 -0.686706 0)
(0.992196 -0.723684 -1.20284e-20)
(0.943252 -0.703799 1.10246e-20)
(0.892649 -0.666797 0)
(0.841821 -0.63563 0)
(0.801916 -0.604656 6.91359e-21)
(0.772259 -0.584901 2.59626e-22)
(0.730431 -0.609961 -6.54312e-21)
(0.667538 -0.663512 -8.8588e-21)
(0.606783 -0.652299 8.89348e-21)
(0.575283 -0.490597 -1.21252e-20)
(0.575335 -0.197929 -5.83055e-22)
(0.598484 0.134214 1.20512e-20)
(0.632761 0.425928 1.37203e-21)
(0.663336 0.632021 3.16491e-23)
(0.696171 0.729337 0)
(0.73448 0.747805 6.51724e-21)
(0.749818 0.774115 -6.71864e-21)
(0.726798 0.841495 3.93473e-22)
(0.684277 0.873627 0)
(0.649694 0.774335 -5.10699e-22)
(0.632748 0.524703 1.00505e-20)
(0.625233 0.188838 -1.84505e-20)
(0.627754 -0.146083 -4.1308e-22)
(0.644664 -0.39313 1.44546e-21)
(0.669337 -0.520702 6.19455e-21)
(0.678696 -0.554915 5.60973e-22)
(0.682857 -0.526911 -2.96724e-21)
(0.68053 -0.471868 2.57033e-21)
(0.643212 -0.427417 1.03015e-23)
(0.59027 -0.374828 6.50979e-22)
(0.564414 -0.275922 -7.83542e-22)
(0.585228 -0.136382 -7.35756e-22)
(0.626921 0.00290099 2.33147e-22)
(0.67706 0.109157 3.2316e-22)
(0.721403 0.174588 -6.20929e-22)
(0.754428 0.207793 4.50891e-22)
(0.748207 0.227724 -1.29952e-22)
(0.723293 0.225156 1.41695e-22)
(0.713947 0.182496 1.23434e-22)
(0.757277 0.105884 -2.84386e-22)
(0.816351 0.0192999 1.09674e-23)
(0.876323 -0.0336687 -5.79042e-23)
(0.914928 -0.0764019 0)
(0.935195 -0.072681 -1.30369e-23)
(0.951459 -0.0848034 1.48253e-23)
(0.943118 -0.0608415 0)
(0.144655 0.253825 2.69795e-20)
(0.19971 0.291248 -5.3587e-20)
(0.265654 0.317516 2.63291e-20)
(0.342817 0.327305 3.0582e-20)
(0.430362 0.316138 -6.32563e-20)
(0.524548 0.281656 -3.89922e-21)
(0.621722 0.220017 3.57499e-20)
(0.71857 0.130206 4.2313e-20)
(0.805394 0.0260964 -4.14179e-20)
(0.879562 -0.0841915 0)
(0.959805 -0.227787 -4.35642e-20)
(1.04573 -0.407196 8.25438e-20)
(1.09958 -0.569299 -3.91212e-20)
(1.09768 -0.662515 0)
(1.05028 -0.686512 0)
(0.986338 -0.667245 3.27187e-22)
(0.927158 -0.634174 -1.60229e-20)
(0.870586 -0.608892 1.55565e-20)
(0.820582 -0.584305 0)
(0.782408 -0.560508 1.3217e-20)
(0.736708 -0.571354 -2.59762e-20)
(0.666467 -0.620659 2.84078e-20)
(0.589646 -0.630248 -3.35563e-20)
(0.54016 -0.502582 -3.50135e-21)
(0.527717 -0.235247 4.38538e-20)
(0.545887 0.0866329 -2.26926e-20)
(0.581514 0.381266 -6.71408e-22)
(0.620782 0.596313 -7.57714e-21)
(0.668757 0.703041 9.15114e-22)
(0.721111 0.732583 6.78832e-21)
(0.750312 0.770794 3.92881e-22)
(0.739813 0.852955 -7.09774e-21)
(0.709177 0.897299 1.5149e-20)
(0.687893 0.800601 -9.13187e-21)
(0.678132 0.552043 0)
(0.672769 0.213705 -1.19722e-20)
(0.674808 -0.130721 1.15862e-20)
(0.685786 -0.390962 -6.58462e-21)
(0.704395 -0.525154 8.26235e-21)
(0.710136 -0.559093 -6.12953e-22)
(0.705798 -0.530572 0)
(0.701054 -0.469688 -3.10151e-22)
(0.669515 -0.416835 6.78391e-22)
(0.618395 -0.365596 0)
(0.585206 -0.278283 1.10731e-21)
(0.596717 -0.149087 -4.78816e-22)
(0.633156 -0.0129909 1.67893e-22)
(0.683096 0.0943674 1.25997e-22)
(0.727596 0.163869 0)
(0.755086 0.204838 0)
(0.739554 0.232167 -4.00041e-22)
(0.714112 0.229306 6.31351e-22)
(0.715182 0.178398 -3.59827e-22)
(0.76963 0.0945922 1.24533e-22)
(0.833413 0.00687726 1.82561e-22)
(0.891664 -0.0435763 5.79664e-23)
(0.927561 -0.0819306 -7.91875e-23)
(0.943069 -0.0760301 0)
(0.957167 -0.085485 -2.48374e-23)
(0.948765 -0.0601871 -4.14512e-24)
(0.29378 0.180627 2.4884e-20)
(0.346076 0.213371 -2.45934e-20)
(0.407382 0.23541 2.08942e-22)
(0.478486 0.242836 -2.07856e-22)
(0.558239 0.232736 2.41256e-22)
(0.642739 0.203825 -2.64663e-22)
(0.729934 0.151806 5.41155e-22)
(0.817298 0.0742402 0)
(0.898426 -0.016619 -6.1237e-22)
(0.974871 -0.121272 6.27245e-22)
(1.0617 -0.260217 6.21184e-22)
(1.14505 -0.421553 -6.41815e-22)
(1.18161 -0.555449 0)
(1.15857 -0.625628 0)
(1.09683 -0.640327 3.6503e-22)
(1.02308 -0.625271 0)
(0.957838 -0.598235 -2.49414e-22)
(0.898972 -0.577543 0)
(0.842352 -0.561119 -1.18849e-20)
(0.795747 -0.536675 2.32556e-20)
(0.747632 -0.531442 -2.304e-20)
(0.675034 -0.569435 1.16352e-20)
(0.585443 -0.596212 1.56755e-20)
(0.516775 -0.508143 -1.52166e-20)
(0.489978 -0.27425 -2.08777e-20)
(0.500201 0.0327375 2.03073e-20)
(0.534766 0.327214 0)
(0.581355 0.549962 4.80033e-22)
(0.641688 0.667177 0)
(0.708318 0.708149 0)
(0.751379 0.758666 1.21681e-20)
(0.752157 0.851394 -1.25398e-20)
(0.733605 0.904764 9.41e-22)
(0.720783 0.823774 1.12912e-21)
(0.718877 0.585493 -1.32937e-21)
(0.719437 0.245957 -1.12172e-20)
(0.723621 -0.107992 1.08885e-20)
(0.731008 -0.382756 -9.26338e-21)
(0.741948 -0.526594 7.91482e-21)
(0.744274 -0.561469 1.26066e-21)
(0.732069 -0.53293 -3.07076e-21)
(0.722561 -0.468661 5.0532e-22)
(0.695264 -0.408242 1.65238e-21)
(0.647515 -0.356506 0)
(0.610291 -0.279071 -4.39609e-22)
(0.613087 -0.160535 3.83927e-22)
(0.643995 -0.0290795 -5.37284e-22)
(0.692969 0.0792367 -1.26841e-22)
(0.735314 0.153856 0)
(0.754812 0.203661 1.39545e-22)
(0.730739 0.237561 -2.57995e-22)
(0.707592 0.232285 1.79645e-24)
(0.720598 0.172241 -1.29326e-22)
(0.78479 0.0821038 2.0724e-22)
(0.851366 -0.00562604 -1.91742e-22)