/*--------------------------------*- C++ -*----------------------------------*\
| =========                 |                                                 |
| \\      /  F ield         | OpenFOAM: The Open Source CFD Toolbox           |
|  \\    /   O peration     | Version:  2312                                  |
|   \\  /    A nd           | Website:  www.openfoam.com                      |
|    \\/     M anipulation  |                                                 |
\*---------------------------------------------------------------------------*/
FoamFile
{
    version     2.0;
    format      ascii;
    arch        "LSB;label=32;scalar=64";
    class       surfaceScalarField;
    location    "41.5";
    object      phi;
}
// * * * * * * * * * * * * * * * * * * * * * * * * * * * * * * * * * * * * * //

dimensions      [0 3 -1 0 0 0 0];

oriented        oriented;

internalField   nonuniform List<scalar> 
10785
(
-0.000916986
0.0026822
-0.00176521
-0.00190376
0.00402644
-0.00303966
-0.00141067
0.00251007
-0.00300317
0.0021847
-0.00226683
-0.00132854
0.0105238
-0.0109593
0.00262022
0.0248109
-0.0236217
0.00933457
0.0452644
-0.0393461
0.0188926
0.0711074
-0.0566325
0.0307895
0.101005
-0.0740966
0.0441994
0.133174
-0.0904652
0.0582958
0.165953
-0.105272
0.072493
0.198658
-0.118178
0.0854742
0.228363
-0.129354
0.0996488
0.257958
-0.138812
0.109217
-0.148268
0.126276
0.279949
-0.000367213
0.00304941
0.000198162
0.00346106
0.00367377
-0.000965533
0.0122699
-0.010863
0.0275743
-0.0262637
0.0495615
-0.0456089
0.0765909
-0.0663755
0.106253
-0.0862943
0.135969
-0.103813
0.163818
-0.118314
0.188456
-0.129911
0.2092
-0.138922
0.226302
-0.146456
0.240423
-0.152934
-0.159683
0.251839
0.000178382
0.00287103
0.00268274
0.0009567
0.0101759
-0.00845871
0.0249446
-0.0256316
0.0469432
-0.0482623
0.0735873
-0.0722531
0.101328
-0.094116
0.127021
-0.111987
0.148728
-0.125519
0.165861
-0.135448
0.178865
-0.142914
0.189289
-0.149345
0.198662
-0.15583
0.208659
-0.16293
-0.171343
0.220318
0.000758134
0.0021129
0.00578248
-0.00406764
0.018313
-0.0209892
0.0389507
-0.0462694
0.0642766
-0.0735882
0.0895617
-0.0975382
0.111247
-0.115801
0.127859
-0.128599
0.139849
-0.137509
0.148844
-0.144444
0.156881
-0.150951
0.165504
-0.157969
0.175367
-0.165693
0.186417
-0.17398
-0.183218
0.198291
0.00157733
0.000535565
0.00993512
-0.0124254
0.0275491
-0.0386032
0.0509221
-0.0696424
0.0739872
-0.0966533
0.0926623
-0.116213
0.105965
-0.129104
0.115172
-0.137806
0.122393
-0.14473
0.129348
-0.151399
0.136793
-0.158395
0.144648
-0.165824
0.152429
-0.173475
0.160215
-0.181765
-0.190305
0.167302
0.00277983
-0.00224426
0.0149689
-0.0246145
0.035432
-0.0590663
0.0567459
-0.0909562
0.0736861
-0.113594
0.0852442
-0.127771
0.092987
-0.136847
0.0989587
-0.143778
0.104444
-0.150215
0.109819
-0.156775
0.115081
-0.163657
0.120203
-0.170946
0.125574
-0.178845
0.131258
-0.187449
-0.196643
0.137595
0.00438679
-0.00663105
0.0195958
-0.0398236
0.0391457
-0.0786161
0.055412
-0.107223
0.0663203
-0.124502
0.0731845
-0.134636
0.077926
-0.141588
0.081766
-0.147618
0.0852354
-0.153684
0.0886135
-0.160153
0.0920999
-0.167143
0.0958737
-0.17472
0.0998484
-0.18282
0.103891
-0.191492
-0.200484
0.107732
0.00618547
-0.0128165
0.022276
-0.0559141
0.0382068
-0.0945469
0.0492338
-0.11825
0.0556943
-0.130962
0.0594193
-0.138361
0.061873
-0.144042
0.0638573
-0.149603
0.0657398
-0.155566
0.0676279
-0.162041
0.0695027
-0.169018
0.0712649
-0.176483
0.0729643
-0.184519
0.0746199
-0.193147
0.0763085
-0.202172
-0.000911342
-0.00821091
0.00912226
-0.00319587
-0.0152165
0.017501
-0.00647614
-0.0174027
0.020683
-0.0104494
-0.0175969
0.0215701
-0.0149432
-0.0173133
0.0218071
-0.0198826
-0.0169618
0.0219012
-0.0252444
-0.0164105
0.0217723
-0.0310144
-0.0153853
0.0211553
-0.0371593
-0.0135821
0.019727
-0.0436083
-0.0106674
0.0171164
-0.0502489
-0.00627625
0.0129169
-0.0569026
-5.43264e-05
0.00670806
-0.0630103
0.00775973
-0.00165204
-0.0686889
0.0176981
-0.0120196
0.0297618
-0.073401
-0.0250497
-0.00132267
-0.00688824
-0.00415148
-0.0123877
-0.00791336
-0.0136408
-0.0123197
-0.0131905
-0.0172347
-0.0123983
-0.0225795
-0.011617
-0.0282883
-0.0107017
-0.0342847
-0.00938885
-0.0404564
-0.00741041
-0.0466368
-0.00448705
-0.0525993
-0.000313742
-0.0578162
0.00516252
-0.0623042
0.0122478
-0.0657619
0.0211558
0.0310468
-0.0670468
-0.00148731
-0.00540094
-0.00443683
-0.00943816
-0.00815579
-0.00992188
-0.0123454
-0.00900087
-0.0168637
-0.00788002
-0.0215856
-0.00689513
-0.0263631
-0.00592416
-0.0310186
-0.0047333
-0.0353396
-0.00308944
-0.0390273
-0.000799323
-0.0416557
0.00231463
-0.0431605
0.00666735
-0.0423367
0.011424
-0.0402499
0.0190689
0.0248574
-0.0340605
-0.00148689
-0.00391404
-0.00430008
-0.00662497
-0.00766321
-0.00655875
-0.0112357
-0.00542838
-0.0148407
-0.00427501
-0.0182964
-0.0034394
-0.0213656
-0.00285495
-0.0237557
-0.00234327
-0.0251429
-0.00170217
-0.0252003
-0.000741918
-0.0230968
0.000211052
-0.0194906
0.00306118
-0.011942
0.00387537
-0.00176705
0.00889395
0.0102312
0.0128592
-0.00144736
-0.00246668
-0.00408349
-0.00398885
-0.00705432
-0.00358792
-0.00994936
-0.00253335
-0.0125368
-0.00168761
-0.0145807
-0.00139544
-0.0157669
-0.00166878
-0.0157013
-0.00240888
-0.0139084
-0.00349506
-0.0101141
-0.00453618
-0.00322135
-0.00668172
0.00617854
-0.00633872
0.0207797
-0.0107258
0.0371485
-0.00747486
-0.0151144
0.062494
-0.00145213
-0.00101455
-0.00400165
-0.00143933
-0.00671109
-0.000878479
-0.00907419
-0.000170246
-0.0107514
-1.045e-05
-0.0113857
-0.000761094
-0.0104992
-0.00255527
-0.00752163
-0.00538646
-0.00186534
-0.00915136
0.0072807
-0.0136822
0.0203634
-0.0197644
0.0369902
-0.0229655
0.0601099
-0.0338455
0.0850956
-0.0324606
-0.0496566
0.119638
-0.00146265
0.0004481
-0.00392026
0.00101828
-0.00632084
0.00152211
-0.00796851
0.00147742
-0.00823058
0.000251618
-0.00641611
-0.00257556
-0.00169475
-0.00727664
0.00674912
-0.0138303
0.0195483
-0.0219505
0.0370692
-0.0312031
0.0592858
-0.0419811
0.0866319
-0.0503117
0.1182
-0.0654133
0.154378
-0.0686387
-0.0896143
0.194336
-0.00131711
-0.0033385
-0.00481955
-0.00467067
-0.00179883
0.00496018
0.0165762
0.0335353
0.0557843
0.082877
0.113389
0.148551
0.182787
0.223365
0.260027
-0.0730649
0.0534318
-0.0537678
-0.0716616
0.0814515
-0.0828549
-0.0692507
0.11175
-0.114161
-0.065233
0.143538
-0.147555
-0.0583786
0.172685
-0.179539
-0.0466878
0.194724
-0.206414
-0.0275535
0.202371
-0.221506
0.000780902
0.187055
-0.215389
0.037246
0.141825
-0.17829
0.0715378
0.0735714
-0.107863
0.0954656
-0.0144165
-0.00951126
0.116913
-0.135669
0.114221
0.133039
-0.264991
0.248865
0.141918
-0.35773
0.348852
0.150362
-0.377909
0.369464
0.127863
-0.349521
0.37202
0.0881968
-0.376895
0.416561
0.0945431
-0.337233
0.330887
0.134281
-0.124201
0.0844631
0.17577
0.104014
-0.145503
0.201875
0.246056
-0.27216
0.209187
0.31721
-0.324521
0.212161
0.322491
-0.325465
0.207429
0.299513
-0.294782
0.192064
0.284423
-0.269058
0.186754
0.247311
-0.242002
0.200954
0.136676
-0.150876
0.221166
0.0114441
-0.0316562
0.235435
-0.0908449
0.0765763
0.241947
-0.144525
0.138013
0.243266
-0.179859
0.178539
0.242746
-0.185862
0.186382
0.242364
-0.191105
0.191487
0.243026
-0.173271
0.172609
0.244856
-0.165041
0.16321
0.247252
-0.140328
0.137933
0.250229
-0.132009
0.129031
-0.107423
0.10593
-0.0640526
0.0504375
-0.0581021
0.075501
-0.0495112
0.103159
-0.0376927
0.131719
-0.0218038
0.156796
-0.000695528
0.173615
0.0263299
0.175346
0.0589795
0.154406
0.0933612
0.107443
0.119564
0.0473682
0.134025
-0.0288772
0.149322
-0.150966
0.160631
-0.2763
0.154768
-0.351868
0.150451
-0.373592
0.134111
-0.33318
0.0903606
-0.333145
0.0816958
-0.328569
0.122822
-0.165328
0.167492
0.0593451
0.193961
0.219587
0.204874
0.306296
0.210738
0.316628
0.203615
0.306636
0.188789
0.299249
0.189005
0.247095
0.206787
0.118894
0.226714
-0.00848243
0.239169
-0.1033
0.243966
-0.149322
0.244179
-0.180072
0.243163
-0.184846
0.242765
-0.190707
0.243567
-0.174073
0.245535
-0.167009
0.247804
-0.142597
0.250774
-0.134979
-0.109168
-0.0285606
0.0449376
-0.0195939
0.0665343
-0.00713657
0.0907017
0.0100997
0.114483
0.0315912
0.135304
0.0572087
0.147998
0.0860054
0.146549
0.116088
0.124323
0.144024
0.0795068
0.161653
0.0297386
0.169485
-0.0367088
0.174516
-0.155997
0.178581
-0.280365
0.166467
-0.339754
0.149839
-0.356964
0.137929
-0.32127
0.0986403
-0.293856
0.0753522
-0.30528
0.111037
-0.201012
0.15808
0.0123012
0.187019
0.190648
0.203581
0.289734
0.210785
0.309423
0.200611
0.31681
0.187199
0.312662
0.192375
0.24192
0.212298
0.0989713
0.231154
-0.0273394
0.241614
-0.11376
0.244821
-0.152529
0.244157
-0.179407
0.24278
-0.18347
0.242368
-0.190295
0.243335
-0.17504
0.245598
-0.169272
0.248043
-0.145042
0.25118
-0.138115
-0.111252
0.0218848
0.035912
0.0335032
0.0549159
0.048585
0.0756199
0.0671006
0.0959673
0.0889665
0.113438
0.113831
0.123133
0.139478
0.120903
0.163634
0.100167
0.18334
0.0598003
0.194672
0.0184065
0.200647
-0.0426837
0.198652
-0.154001
0.189831
-0.271543
0.173074
-0.322997
0.149227
-0.333117
0.138699
-0.310742
0.110984
-0.266141
0.0752246
-0.269521
0.094246
-0.220034
0.141226
-0.0346791
0.176392
0.155483
0.19937
0.266755
0.206944
0.30185
0.195906
0.327848
0.186227
0.322341
0.19608
0.232066
0.217107
0.0779442
0.234413
-0.0446454
0.24282
-0.122167
0.244537
-0.154245
0.243153
-0.178023
0.241588
-0.181905
0.241273
-0.189979
0.242456
-0.176223
0.245069
-0.171885
0.247888
-0.147861
0.251404
-0.141632
-0.113829
0.0709505
0.0274555
0.0831547
0.0427117
0.0989745
0.0598001
0.117964
0.0769782
0.139172
0.0922303
0.161599
0.100706
0.182541
0.0999598
0.200096
0.0826127
0.211731
0.0481655
0.215972
0.0141656
0.221037
-0.0477488
0.219049
-0.152013
0.20125
-0.253745
0.179112
-0.300858
0.151378
-0.305384
0.136389
-0.295753
0.12265
-0.252402
0.0850278
-0.231899
0.082128
-0.217134
0.124106
-0.0766575
0.166499
0.11309
0.19725
0.236005
0.206003
0.293097
0.19397
0.339881
0.186876
0.329435
0.199878
0.219064
0.22095
0.0568724
0.23634
-0.0600356
0.242717
-0.128544
0.243095
-0.154623
0.241138
-0.176067
0.239523
-0.180289
0.239449
-0.189905
0.240983
-0.177757
0.244035
-0.174937
0.247362
-0.151188
0.251423
-0.145693
-0.117058
0.119972
0.0271211
0.125367
0.0373166
0.136326
0.0488418
0.15197
0.0613334
0.170641
0.0735595
0.190507
0.0808405
0.208228
0.0822389
0.221575
0.0692657
0.229682
0.0400583
0.234296
0.00955108
0.237064
-0.0505166
0.232245
-0.147194
0.210211
-0.231711
0.18392
-0.274567
0.157431
-0.278895
0.135635
-0.273956
0.12862
-0.245388
0.10095
-0.204229
0.0818268
-0.19801
0.115005
-0.109835
0.162917
0.0651769
0.194814
0.204108
0.200274
0.287637
0.188795
0.35136
0.186801
0.331429
0.203039
0.202826
0.223623
0.0362883
0.236838
-0.0732505
0.241256
-0.132962
0.240505
-0.153872
0.238155
-0.173717
0.236613
-0.178747
0.236889
-0.190182
0.238917
-0.179784
0.242539
-0.178559
0.24652
-0.155169
0.251266
-0.150439
-0.121083
0.185633
0.035824
0.180856
0.0420932
0.181124
0.048574
0.186746
0.0557115
0.196935
0.0633703
0.209934
0.0678414
0.22325
0.0689234
0.233601
0.0589145
0.239281
0.034378
0.244582
0.00425017
0.247305
-0.0532393
0.235529
-0.135418
0.208847
-0.205028
0.179035
-0.244756
0.156535
-0.256394
0.134346
-0.251767
0.127153
-0.238194
0.11542
-0.192496
0.0900092
-0.1726
0.108558
-0.128384
0.160346
0.0133881
0.194287
0.170168
0.198984
0.282939
0.188508
0.361836
0.188571
0.331366
0.20575
0.185647
0.224842
0.0171966
0.235723
-0.0841313
0.238361
-0.135601
0.236774
-0.152285
0.234263
-0.171206
0.232944
-0.177427
0.233668
-0.190906
0.236297
-0.182413
0.240607
-0.18287
0.245389
-0.159951
0.250961
-0.15601
-0.126044
0.251703
0.0441484
0.245487
0.0483089
0.241512
0.052549
0.240014
0.0572095
0.24173
0.0616547
0.246233
0.0633382
0.252666
0.0624904
0.2588
0.0527807
0.261261
0.0319173
0.264365
0.00114541
0.260216
-0.0490898
0.239874
-0.115076
0.208838
-0.173992
0.175848
-0.211766
0.152312
-0.232859
0.132568
-0.232023
0.121065
-0.226692
0.119826
-0.191258
0.100602
-0.153376
0.10085
-0.128632
0.146067
-0.0318292
0.187019
0.129216
0.194393
0.275566
0.18406
0.372169
0.187577
0.327849
0.207459
0.165765
0.225179
-0.000523381
0.233328
-0.0922802
0.234301
-0.136574
0.232105
-0.150089
0.229621
-0.168721
0.228648
-0.176455
0.229906
-0.192164
0.233215
-0.185722
0.238299
-0.187954
0.243997
-0.165649
0.250522
-0.162535
-0.132078
0.294124
0.0481516
-0.298127
0.291054
0.0513791
0.288326
0.0552769
0.286552
0.0589835
0.286893
0.0613139
0.290133
0.0600976
0.297168
0.0554554
0.307682
0.0422671
0.319374
0.0202254
0.331931
-0.011412
0.339394
-0.0565529
0.332293
-0.107974
0.314368
-0.156068
0.289054
-0.186451
0.261982
-0.205787
0.235827
-0.205868
0.207322
-0.198187
0.191522
-0.175457
0.16809
-0.129943
0.136919
-0.0974603
0.13741
-0.0323208
0.146262
0.120364
0.137231
0.284596
0.137861
0.37154
0.174279
0.291431
0.220304
0.11974
0.248133
-0.0283523
0.257237
-0.101384
0.255305
-0.134642
0.249457
-0.144241
0.243364
-0.162629
0.238695
-0.171786
0.235913
-0.189382
0.23492
-0.184729
0.235564
-0.188598
0.236939
-0.167024
0.239222
-0.164818
-0.134087
0.325556
0.0466915
-0.324096
0.327816
0.0491185
0.331321
0.0517718
0.33604
0.0542652
0.341969
0.0553846
0.349007
0.0530592
0.35749
0.0469728
0.366038
0.0337193
0.373393
0.0128702
0.377874
-0.0158934
0.374843
-0.0535213
0.360379
-0.0935109
0.337041
-0.13273
0.309276
-0.158686
0.279016
-0.175527
0.25332
-0.180172
0.225529
-0.170397
0.206166
-0.156094
0.19402
-0.117797
0.165223
-0.0686642
0.142373
-0.00947047
0.137719
0.125019
0.134021
0.288294
0.157884
0.347676
0.213077
0.236238
0.261789
0.071028
0.285129
-0.0516922
0.288957
-0.105212
0.283291
-0.128976
0.275302
-0.136251
0.268037
-0.155364
0.262665
-0.166414
0.259423
-0.18614
0.258124
-0.18343
0.258584
-0.189058
0.259876
-0.168316
0.26215
-0.167092
-0.136146
0.353998
0.0444167
-0.351724
0.35764
0.0454766
0.36268
0.0467318
0.369177
0.0477683
0.376957
0.0476047
0.385286
0.0447303
0.393777
0.0384814
0.400981
0.0265157
0.405878
0.00797331
0.40582
-0.0158355
0.398956
-0.046657
0.384119
-0.0786739
0.362566
-0.111177
0.33829
-0.134409
0.311908
-0.149146
0.289034
-0.157297
0.265204
-0.146568
0.238969
-0.129859
0.225418
-0.104245
0.20409
-0.0473371
0.167931
0.0266892
0.143396
0.149554
0.151036
0.280653
0.201947
0.296766
0.268319
0.169866
0.311527
0.0278193
0.325909
-0.0660735
0.323022
-0.102326
0.313672
-0.119626
0.303789
-0.126369
0.295412
-0.146987
0.289248
-0.16025
0.285421
-0.182312
0.283716
-0.181725
0.283929
-0.189271
0.285105
-0.169492
0.287347
-0.169334
-0.138238
0.385789
0.0413101
-0.382683
0.389518
0.0417474
0.394273
0.0419774
0.400217
0.0418239
0.407211
0.0406109
0.414594
0.037347
0.422016
0.0310601
0.427987
0.0205448
0.430882
0.00507745
0.429586
-0.0145395
0.422257
-0.0393274
0.408493
-0.0649102
0.388408
-0.0910924
0.365704
-0.111706
0.340804
-0.124245
0.315899
-0.132392
0.294452
-0.125121
0.270535
-0.105942
0.255794
-0.0895042
0.246437
-0.0379803
0.219105
0.0540217
0.194198
0.174461
0.214567
0.260284
0.278185
0.233148
0.337837
0.110214
0.366162
-0.000505682
0.368415
-0.0683269
0.358686
-0.092597
0.346136
-0.107075
0.334711
-0.114944
0.325385
-0.137661
0.318483
-0.153349
0.314069
-0.177898
0.311929
-0.179586
0.311855
-0.189197
0.312878
-0.170515
0.315053
-0.171509
-0.140342
0.419945
0.0379652
-0.4166
0.42365
0.0380419
0.428021
0.0376072
0.433156
0.0366881
0.438996
0.0347714
0.445146
0.0311971
0.450933
0.0252727
0.455189
0.0162884
0.456877
0.00339013
0.454775
-0.0124378
0.447618
-0.0321706
0.435402
-0.0526938
0.418124
-0.0738143
0.397849
-0.0914309
0.376071
-0.102467
0.352506
-0.108828
0.331935
-0.104549
0.311286
-0.0852935
0.292651
-0.0708694
0.28609
-0.0314193
0.279611
0.0605009
0.279472
0.1746
0.314525
0.225232
0.371275
0.176398
0.409229
0.0722599
0.418392
-0.00966841
0.409646
-0.0595806
0.395203
-0.078154
0.380867
-0.0927399
0.368523
-0.102599
0.358416
-0.127554
0.350761
-0.145693
0.345694
-0.172831
0.343051
-0.176943
0.342631
-0.188776
0.343457
-0.171341
0.345528
-0.17358
-0.14243
0.45599
0.034616
-0.452641
0.459694
0.0343385
0.463788
0.0335128
0.46829
0.0321861
0.473157
0.0299046
0.477984
0.0263698
0.482258
0.0209985
0.485189
0.0133584
0.485815
0.00276404
0.483301
-0.00992429
0.476685
-0.0255544
0.465838
-0.0418466
0.450724
-0.0587002
0.432115
-0.0728222
0.411985
-0.0823373
0.390455
-0.0872978
0.370808
-0.084902
0.354204
-0.0686897
0.337084
-0.0537495
0.328191
-0.0225263
0.335308
0.0533843
0.361669
0.148238
0.407182
0.179719
0.449383
0.134197
0.466833
0.0548097
0.463013
-0.00584813
0.449017
-0.0455847
0.43304
-0.0621774
0.418207
-0.0779067
0.405369
-0.0897608
0.394634
-0.116819
0.386293
-0.137352
0.380585
-0.167122
0.377408
-0.173766
0.376588
-0.187956
0.377162
-0.171915
0.379076
-0.175495
-0.144466
0.49458
0.0311761
-0.49114
0.498169
0.0307495
0.501925
0.0297563
0.505844
0.0282675
0.509803
0.0259457
0.51352
0.0226525
0.516619
0.0179
0.518455
0.0115219
0.518297
0.00292226
0.515506
-0.00713312
0.509356
-0.0194049
0.499626
-0.0321169
0.486264
-0.0453379
0.469972
-0.0565302
0.452309
-0.0646737
0.433431
-0.0684207
0.415368
-0.0668382
0.400931
-0.0542534
0.386997
-0.0398152
0.378088
-0.0136173
0.389229
0.0422436
0.4255
0.111967
0.470778
0.134441
0.501601
0.103375
0.509681
0.0467288
0.502436
0.00139775
0.488445
-0.031594
0.473169
-0.0469011
0.458705
-0.0634429
0.445756
-0.076812
0.434564
-0.105627
0.425567
-0.128355
0.419161
-0.160716
0.41537
-0.169975
0.414074
-0.18666
0.414335
-0.172176
0.416037
-0.177197
-0.146408
0.536208
0.0278558
-0.532888
0.539549
0.0274085
0.542904
0.0264009
0.546235
0.0249367
0.549427
0.0227536
0.552252
0.0198274
0.554405
0.0157477
0.555385
0.0105415
0.55466
0.00364781
0.551759
-0.00423217
0.546104
-0.01375
0.537505
-0.0235182
0.525979
-0.0338122
0.511933
-0.0424844
0.496413
-0.0491529
0.480051
-0.0520589
0.464251
-0.051038
0.451591
-0.0415936
0.440979
-0.0292032
0.434874
-0.00751207
0.445798
0.0313191
0.478557
0.0792077
0.51661
0.0963888
0.541114
0.0788699
0.547667
0.0401757
0.541901
0.00716435
0.530112
-0.0198056
0.516392
-0.0331809
0.50271
-0.049761
0.489894
-0.0639958
0.478362
-0.0940945
0.468743
-0.118737
0.461628
-0.153602
0.457196
-0.165543
0.455388
-0.184853
0.4553
-0.172088
0.456752
-0.178649
-0.148218
0.581253
0.0248137
-0.578211
0.584284
0.0243779
0.587239
0.0234458
0.590048
0.0221272
0.592609
0.0201926
0.594723
0.0177138
0.596155
0.0143153
0.596527
0.0101693
0.595447
0.00472858
0.59258
-0.00136584
0.587477
-0.00864713
0.580007
-0.0160474
0.570119
-0.0239247
0.558173
-0.0305383
0.544939
-0.0359187
0.531058
-0.0381777
0.517745
-0.0377255
0.507018
-0.0308667
0.499029
-0.0212143
0.495742
-0.00422516
0.505249
0.021812
0.530667
0.05379
0.560344
0.0667122
0.580724
0.0584901
0.587742
0.0331568
0.584425
0.0104818
0.575204
-0.0105842
0.563384
-0.0213616
0.550807
-0.0371839
0.538354
-0.0515427
0.526608
-0.0823483
0.516419
-0.108548
0.508583
-0.145765
0.50345
-0.16041
0.501051
-0.182454
0.500534
-0.17157
0.501663
-0.179778
-0.149844
0.630278
0.0220431
-0.627507
0.632984
0.0216719
0.635561
0.020869
0.637924
0.0197636
0.639982
0.0181346
0.641564
0.016132
0.642487
0.0133927
0.642474
0.0101826
0.641218
0.00598447
0.638506
0.00134636
0.634016
-0.00415732
0.627615
-0.00964618
0.619305
-0.0156149
0.609341
-0.0205744
0.598295
-0.0248728
0.586802
-0.026685
0.575896
-0.0268194
0.567112
-0.0220822
0.561163
-0.0152652
0.559686
-0.00274867
0.567484
0.0140144
0.586241
0.0350326
0.608677
0.0442767
0.625501
0.0416661
0.632722
0.0259356
0.631458
0.0117456
0.624656
-0.00378254
0.614776
-0.0114815
0.603385
-0.0257927
0.591399
-0.0395568
0.579557
-0.0705064
0.568877
-0.0978673
0.560339
-0.137227
0.554476
-0.154547
0.55144
-0.179418
0.550448
-0.170579
0.551206
-0.180536
-0.151233
0.683892
0.0195548
-0.681403
0.686283
0.01928
0.688516
0.0186362
0.690509
0.0177707
0.692174
0.0164693
0.693379
0.0149278
0.69397
0.0128008
0.69376
0.010393
0.692518
0.00722611
0.690037
0.00382781
0.686232
-0.000352579
0.680895
-0.00430859
0.674067
-0.00878717
0.665953
-0.0124606
0.656998
-0.0159179
0.647721
-0.0174073
0.638933
-0.0180321
0.631887
-0.0150359
0.62742
-0.0107982
0.627003
-0.0023312
0.633099
0.00791764
0.646663
0.0214689
0.663267
0.0276731
0.676773
0.0281596
0.68367
0.0190391
0.683923
0.0114921
0.679159
0.000981321
0.671108
-0.00343023
0.661004
-0.0156889
0.649716
-0.0282686
0.637948
-0.0587387
0.626851
-0.0867695
0.617566
-0.127943
0.610906
-0.147887
0.607133
-0.175645
0.605585
-0.169031
0.605911
-0.180861
-0.152323
0.742798
0.017343
-0.740587
0.74491
0.0171685
0.746859
0.0166875
0.748573
0.0160568
0.749971
0.0150711
0.750952
0.0139466
0.751393
0.0123598
0.751158
0.0106284
0.750078
0.00830568
0.748008
0.00589782
0.744803
0.00285295
0.740475
1.87523e-05
0.735029
-0.00334084
0.728582
-0.00601392
0.721476
-0.00881149
0.714169
-0.0101008
0.707313
-0.0111756
0.701881
-0.00960454
0.698603
-0.00751957
0.698435
-0.00216386
0.702892
0.00346067
0.712491
0.0118703
0.724554
0.0156102
0.735165
0.0175483
0.741404
0.0128001
0.742649
0.0102475
0.739448
0.00418197
0.733072
0.00294551
0.724346
-0.00696245
0.713852
-0.0177747
0.702245
-0.0471318
0.690751
-0.0752754
0.68074
-0.117932
0.673234
-0.140381
0.668698
-0.171109
0.666522
-0.166855
0.666353
-0.180692
-0.153061
0.807751
0.0153704
-0.805778
0.809629
0.01529
0.811354
0.0149629
0.812863
0.0145478
0.814087
0.0138472
0.814947
0.0130868
0.815346
0.0119605
0.81518
0.010794
0.814335
0.00915088
0.812705
0.00752755
0.81021
0.00534806
0.806861
0.00336775
0.802671
0.000849156
0.797711
-0.00105408
0.79221
-0.00331004
0.786594
-0.00448514
0.781311
-0.00589261
0.777102
-0.00539474
0.774574
-0.00499172
0.774604
-0.00219391
0.777869
0.000195624
0.784547
0.00519242
0.793125
0.00703181
0.801155
0.00951809
0.80649
0.0074651
0.808233
0.00850439
0.806465
0.0059501
0.801744
0.00766651
0.794473
0.000308746
0.784863
-0.00816502
0.773453
-0.0357214
0.761586
-0.0634086
0.750738
-0.107084
0.74228
-0.131923
0.736805
-0.165634
0.733938
-0.163989
0.733194
-0.179948
-0.153368
0.879884
0.0135924
-0.878106
0.88158
0.0135941
0.883144
0.0133989
0.88453
0.0131616
0.885682
0.0126955
0.886541
0.0122275
0.887035
0.0114671
0.887093
0.0107363
0.886625
0.0096181
0.885565
0.00858787
0.883832
0.00708122
0.881407
0.00579241
0.878266
0.00398997
0.874571
0.00264163
0.870472
0.000788577
0.866263
-0.000275577
0.862317
-0.00194678
0.859119
-0.00219692
0.857172
-0.00304483
0.856963
-0.00198449
0.858952
-0.00179394
0.863375
0.000769165
0.869277
0.00112995
0.875286
0.00350971
0.879722
0.00302916
0.88187
0.00635556
0.881198
0.00662207
0.87795
0.0109149
0.8718
0.0064583
0.863042
0.000593083
0.852054
-0.0247334
0.839923
-0.0512776
0.828271
-0.0954314
0.818754
-0.122406
0.812271
-0.159151
0.808542
-0.16026
0.807209
-0.178615
-0.153134
0.959937
0.0119588
-0.958304
0.961504
0.0120278
0.962963
0.0119392
0.964274
0.0118507
0.965391
0.0115791
0.966266
0.0113523
0.966844
0.0108891
0.967069
0.0105111
0.966879
0.00980828
0.966226
0.00924066
0.965063
0.00824428
0.963388
0.00746742
0.961214
0.00616353
0.958631
0.00522539
0.955772
0.00364671
0.952817
0.00268012
0.949955
0.000914716
0.94767
8.81666e-05
0.946123
-0.00149794
0.945873
-0.00173439
0.947095
-0.00301531
0.950032
-0.00216854
0.954061
-0.00289887
0.958485
-0.00091451
0.962226
-0.000711202
0.964476
0.0041051
0.964697
0.00640163
0.962702
0.0129099
0.958138
0.0110217
0.9509
0.00783119
0.940324
-0.0141576
0.927777
-0.0387302
0.914931
-0.0825859
0.904001
-0.111476
0.896149
-0.151299
0.891391
-0.155503
0.8892
-0.176423
-0.152399
1.04992
0.010428
-1.04839
1.05142
0.0105293
1.05285
0.0105101
1.05418
0.0105181
1.05538
0.0103811
1.05642
0.0103169
1.05724
0.0100628
1.05783
0.00992461
1.05812
0.00951937
1.05809
0.00927375
1.05767
0.00866206
1.05687
0.0082626
1.05566
0.00738076
1.05409
0.00678973
1.05219
0.00555101
1.05013
0.00474234
1.04798
0.003062
1.04604
0.00202742
1.04452
2.1812e-05
1.04388
-0.00109241
1.04428
-0.00341832
1.04584
-0.00373118
1.04833
-0.00538983
1.05136
-0.00394234
1.05424
-0.00359423
1.05668
0.00166721
1.0579
0.00518366
1.05762
0.0131882
1.05461
0.0140302
1.04827
0.0141735
1.03805
-0.00393568
1.02512
-0.0258009
1.01116
-0.0686295
0.998729
-0.0990409
0.989366
-0.141936
0.983401
-0.149538
0.98048
-0.173503
-0.150654
1.14993
0.0089316
-1.14844
1.1514
0.00906388
1.15282
0.00909363
1.15417
0.00916813
1.15542
0.00912576
1.15656
0.00917816
1.15754
0.0090781
1.15835
0.00911819
1.15893
0.00893756
1.15927
0.00893696
1.15931
0.0086178
1.15906
0.00851398
1.15849
0.007955
1.15763
0.00764926
1.1565
0.00667983
1.15522
0.00602628
1.15385
0.00442847
1.1526
0.00327499
1.15172
0.000902157
1.15124
-0.000607741
1.15118
-0.00336416
1.15197
-0.00452209
1.15341
-0.0068274
1.15565
-0.00618107
1.1582
-0.00614771
1.16105
-0.00117471
1.16308
0.00314495
1.16386
0.0124106
1.16237
0.0155224
1.15781
0.0187375
1.1491
0.0047744
1.13629
-0.0129915
1.12089
-0.0532297
1.10616
-0.0843106
1.09433
-0.130105
1.08636
-0.141576
1.08198
-0.169118
-0.148401
1.26491
0.00746564
-1.26345
1.2664
0.00757937
1.26787
0.00761887
1.26933
0.00771303
1.27074
0.00771619
1.2721
0.00781754
1.27338
0.0078001
1.27457
0.00792413
1.27563
0.00787956
1.27655
0.00801108
1.27728
0.00789639
1.2778
0.00798429
1.27806
0.00769766
1.27807
0.00763822
1.27776
0.00699292
1.27719
0.00659232
1.27629
0.00533015
1.27521
0.0043599
1.27388
0.00223302
1.2726
0.000669037
1.27168
-0.00244815
1.27137
-0.00420897
1.27166
-0.00711499
1.27277
-0.00728805
1.27457
-0.00795332
1.27715
-0.00375194
1.27995
0.000345852
1.28291
0.00944316
1.28419
0.0142463
1.28245
0.0204813
1.27502
0.0122039
1.26202
2.73043e-06
1.24484
-0.036047
1.2272
-0.0666734
1.21227
-0.115176
1.20191
-0.131213
1.19597
-0.163175
-0.144027
1.39435
0.00593903
-1.39283
1.39589
0.00604285
1.39743
0.00607798
1.39898
0.00616396
1.40052
0.00617593
1.40205
0.00628512
1.40355
0.00630684
1.405
0.00646836
1.40637
0.00651038
1.40766
0.00672453
1.40879
0.00676281
1.40978
0.00699711
1.41053
0.00694248
1.41107
0.00710074
1.41131
0.0067586
1.41127
0.00662455
1.41092
0.00568802
1.41033
0.00494736
1.40954
0.00302399
1.40875
0.00145457
1.40777
-0.00146467
1.40702
-0.00346185
1.40656
-0.00665589
1.407
-0.00772583
1.4083
-0.00925506
1.41118
-0.0066307
1.41509
-0.00356716
1.41933
0.0052011
1.4223
0.011283
1.42259
0.0201877
1.41764
0.0171523
1.40655
0.0110916
1.38852
-0.0180097
1.3679
-0.0460554
1.34859
-0.0958652
1.33414
-0.116766
1.32527
-0.154301
-0.138672
1.54532
0.00449942
-1.54388
1.54682
0.00454948
1.54834
0.00455314
1.54991
0.00459843
1.55149
0.00459147
1.55312
0.0046563
1.55476
0.00466298
1.55646
0.0047771
1.55815
0.00481686
1.55987
0.00500101
1.56156
0.00507298
1.56324
0.00532364
1.56479
0.00538818
1.56624
0.00564763
1.56742
0.00557898
1.56835
0.00569859
1.56882
0.0052204
1.56882
0.00494443
1.56815
0.00369248
1.56694
0.00266223
1.56506
0.00041587
1.56308
-0.00148356
1.56114
-0.0047133
1.5598
-0.00637944
1.55918
-0.00863468
1.56048
-0.00793765
1.56364
-0.00672378
1.56875
8.56454e-05
1.5746
0.00543281
1.58039
0.0144058
1.58215
0.0153854
1.5767
0.0165442
1.56008
-0.00139307
1.5358
-0.0217688
1.50924
-0.0693092
1.48775
-0.095271
1.47298
-0.139531
-0.127854
1.73581
0.00303358
-1.73435
1.73732
0.00304823
1.73884
0.00302372
1.74043
0.00301379
1.74205
0.00297004
1.74375
0.0029607
1.74548
0.00292595
1.74731
0.00295177
1.74917
0.00295152
1.75113
0.00304828
1.7531
0.00309895
1.75513
0.00329491
1.75712
0.00339828
1.75907
0.00369357
1.76086
0.00379441
1.76243
0.00412279
1.76362
0.0040383
1.76437
0.00419115
1.76441
0.00364683
1.76383
0.00324684
1.76243
0.00181521
1.76034
0.000609193
1.75754
-0.00191253
1.75492
-0.00375814
1.75263
-0.00635017
1.75228
-0.00758777
1.75419
-0.00863649
1.75934
-0.00506124
1.76623
-0.0014549
1.77485
0.0057891
1.78152
0.00870838
1.78118
0.0168884
1.76658
0.013203
1.74013
0.00467948
1.7072
-0.0363781
1.67784
-0.0659062
1.65476
-0.116456
-0.111683
1.9452
0.00151967
-1.94368
1.94674
0.00150877
1.94827
0.00148675
1.94983
0.00145447
1.95138
0.00142019
1.95297
0.00137344
1.95457
0.00132766
1.95623
0.00129038
1.95795
0.00123152
1.95976
0.00123809
1.96168
0.00117629
1.96374
0.00124091
1.96591
0.00122492
1.96828
0.00132641
1.97067
0.00140324
1.97324
0.00155335
1.97566
0.00161099
1.97797
0.00188344
1.97991
0.00170954
1.98126
0.00189183
1.98155
0.00152646
1.98111
0.00105401
1.979
0.000196009
1.97583
-0.000592927
1.97217
-0.00268613
1.96807
-0.00349167
1.96415
-0.00471568
1.96476
-0.00567045
1.96906
-0.00574809
1.97559
-0.000740894
1.98396
0.000329755
1.99668
0.00417002
2.00299
0.0068923
1.99394
0.0137334
1.96199
-0.00442363
1.92046
-0.0243806
1.87548
-0.0714761
-0.0764664
2.32252
-2.321
2.32403
2.32552
2.32697
2.32839
2.32977
2.33109
2.33238
2.33362
2.33485
2.33603
2.33727
2.3385
2.33982
2.34123
2.34278
2.34439
2.34627
2.34798
2.34987
2.3514
2.35246
2.35265
2.35206
2.34937
2.34588
2.34116
2.33549
2.32975
2.32901
2.32934
2.33351
2.3404
2.35413
2.34971
2.32533
2.25385
0.263226
0.072225
-0.259142
0.268463
0.102494
0.271818
0.13424
0.277346
0.161775
0.281496
0.194142
0.283001
0.218814
0.29119
0.24365
0.273012
0.286559
0.068073
-0.282407
0.29152
0.0975338
0.296505
0.129255
0.300862
0.157418
0.30809
0.186914
0.311132
0.215772
0.316576
0.238205
0.265493
0.312975
0.0635053
-0.308407
0.316959
0.0935492
0.323037
0.123177
0.327106
0.153349
0.334165
0.179854
0.339901
0.210036
0.344937
0.233169
0.258707
0.341318
0.0588134
-0.336626
0.345111
0.0897557
0.350955
0.117333
0.355912
0.148391
0.361978
0.173788
0.368987
0.203027
0.375497
0.22666
0.251521
0.372188
0.0545242
-0.367899
0.376398
0.0855459
0.38167
0.112061
0.387465
0.142597
0.393585
0.167669
0.400945
0.195666
0.408625
0.21898
0.243546
0.406047
0.050625
-0.402148
0.410632
0.0809608
0.415762
0.106931
0.421927
0.136432
0.428457
0.161138
0.43587
0.188253
0.443948
0.210902
0.234853
0.44324
0.046956
-0.439571
0.447946
0.0762542
0.453068
0.101809
0.459274
0.130226
0.465968
0.154445
0.473591
0.180631
0.481918
0.202574
0.225632
0.48386
0.0434379
-0.480342
0.488532
0.0715824
0.49366
0.0966811
0.499952
0.123934
0.506813
0.147584
0.51476
0.172683
0.523331
0.194004
0.216075
0.528229
0.0400294
-0.52482
0.532851
0.0669599
0.538038
0.0914944
0.544452
0.117519
0.551471
0.140565
0.559619
0.164535
0.56839
0.185232
0.206254
0.576757
0.03672
-0.573448
0.581304
0.0624135
0.586531
0.0862667
0.592996
0.111055
0.600138
0.133423
0.608441
0.156232
0.617441
0.176233
0.196187
0.629872
0.0335426