/*--------------------------------*- C++ -*----------------------------------*\
| =========                 |                                                 |
| \\      /  F ield         | OpenFOAM: The Open Source CFD Toolbox           |
|  \\    /   O peration     | Version:  2512                                  |
|   \\  /    A nd           | Website:  www.openfoam.com                      |
|    \\/     M anipulation  |                                                 |
\*---------------------------------------------------------------------------*/
FoamFile
{
    version     2.0;
    format      ascii;
    arch        "LSB;label=32;scalar=64";
    class       volScalarField;
    location    "39.6";
    object      p;
}
// * * * * * * * * * * * * * * * * * * * * * * * * * * * * * * * * * * * * * //

dimensions      [0 2 -2 0 0 0 0];

internalField   nonuniform List<scalar> 
13248
(
-0.394523
-0.393973
-0.393755
-0.39389
-0.394383
-0.39514
-0.395951
-0.396475
-0.396245
-0.394694
-0.391219
-0.385281
-0.37651
-0.364787
-0.350261
-0.333328
-0.31454
-0.294538
-0.273902
-0.25322
-0.232773
-0.212987
-0.193457
-0.173983
-0.399256
-0.398201
-0.397291
-0.396573
-0.396103
-0.395828
-0.395504
-0.394727
-0.392959
-0.389607
-0.384128
-0.376147
-0.365532
-0.35241
-0.337132
-0.320196
-0.302147
-0.283516
-0.264737
-0.246178
-0.228021
-0.210527
-0.193438
-0.177042
-0.404177
-0.402604
-0.400975
-0.399363
-0.397886
-0.396479
-0.394847
-0.392504
-0.38887
-0.383404
-0.375734
-0.365728
-0.353507
-0.339397
-0.323845
-0.307333
-0.290306
-0.273132
-0.256083
-0.239381
-0.223141
-0.207522
-0.192385
-0.177629
-0.409903
-0.407726
-0.405349
-0.402855
-0.400327
-0.397652
-0.394448
-0.390173
-0.384295
-0.376454
-0.366538
-0.354681
-0.341203
-0.326519
-0.311053
-0.295176
-0.27918
-0.263286
-0.247653
-0.232426
-0.217672
-0.203544
-0.189884
-0.176728
-0.41698
-0.414041
-0.410882
-0.407466
-0.403777
-0.399589
-0.394436
-0.387811
-0.379379
-0.369068
-0.357052
-0.343667
-0.329314
-0.314373
-0.299155
-0.283893
-0.268757
-0.25387
-0.239335
-0.225233
-0.211618
-0.198586
-0.186
-0.173998
-0.42578
-0.42188
-0.417847
-0.413407
-0.408328
-0.40224
-0.394672
-0.385317
-0.374165
-0.361466
-0.347613
-0.33302
-0.318048
-0.302967
-0.287966
-0.273174
-0.258678
-0.244546
-0.230834
-0.217585
-0.204838
-0.19263
-0.18089
-0.169751
-0.436477
-0.431418
-0.426387
-0.420717
-0.413861
-0.40535
-0.394882
-0.382522
-0.368644
-0.353755
-0.338336
-0.322764
-0.307292
-0.292077
-0.277209
-0.262741
-0.248709
-0.235139
-0.222053
-0.209471
-0.197408
-0.185866
-0.174811
-0.164345
-0.449063
-0.442689
-0.436495
-0.429254
-0.420066
-0.408517
-0.394719
-0.379224
-0.36274
-0.345893
-0.329129
-0.312714
-0.296785
-0.281399
-0.266572
-0.252309
-0.238604
-0.225456
-0.21286
-0.20081
-0.189301
-0.178316
-0.167855
-0.157951
-0.463305
-0.455531
-0.447945
-0.438632
-0.426406
-0.411209
-0.393795
-0.375197
-0.356308
-0.337728
-0.319784
-0.302609
-0.286234
-0.27064
-0.255792
-0.241655
-0.228194
-0.215379
-0.203183
-0.19158
-0.180545
-0.170056
-0.160122
-0.150683
-0.478692
-0.469491
-0.460185
-0.448121
-0.432089
-0.412764
-0.391646
-0.370105
-0.349044
-0.328926
-0.309921
-0.292042
-0.275232
-0.259415
-0.244515
-0.230463
-0.217199
-0.20467
-0.192827
-0.181626
-0.171025
-0.160999
-0.151529
-0.142503
-0.494374
-0.483749
-0.472263
-0.45662
-0.436062
-0.412329
-0.387584
-0.363324
-0.340312
-0.31882
-0.298863
-0.280345
-0.26314
-0.247123
-0.232182
-0.21822
-0.205152
-0.192904
-0.181412
-0.170614
-0.160457
-0.150904
-0.141896
-0.13331
-0.509183
-0.49716
-0.482881
-0.46277
-0.43711
-0.408874
-0.380684
-0.353959
-0.329225
-0.30654
-0.285771
-0.266726
-0.249218
-0.233077
-0.21816
-0.204341
-0.191514
-0.179587
-0.168481
-0.158124
-0.148458
-0.139438
-0.130978
-0.122989
-0.339105
-0.339972
-0.340296
-0.340541
-0.34101
-0.341829
-0.343031
-0.344615
-0.346572
-0.348904
-0.35163
-0.35478
-0.358404
-0.362565
-0.367344
-0.372835
-0.379147
-0.386396
-0.394714
-0.404233
-0.415042
-0.427093
-0.440333
-0.455324
-0.339576
-0.340974
-0.341618
-0.342126
-0.342837
-0.343851
-0.345182
-0.346803
-0.348677
-0.35077
-0.353057
-0.355517
-0.358141
-0.36093
-0.363896
-0.367067
-0.370487
-0.374216
-0.378351
-0.38301
-0.388231
-0.39387
-0.400015
-0.408236
-0.340734
-0.342581
-0.343531
-0.344314
-0.345287
-0.346525
-0.348014
-0.349704
-0.351525
-0.353402
-0.355255
-0.357006
-0.358575
-0.359887
-0.360876
-0.361487
-0.361684
-0.361457
-0.360849
-0.359946
-0.358733
-0.356973
-0.354808
-0.354753
-0.342914
-0.345095
-0.346317
-0.347379
-0.348632
-0.350124
-0.351818
-0.353637
-0.355474
-0.357209
-0.358707
-0.359823
-0.360399
-0.360278
-0.359303
-0.357333
-0.35425
-0.349971
-0.344483
-0.337837
-0.330032
-0.320839
-0.310306
-0.301264
-0.34632
-0.348698
-0.350146
-0.351478
-0.353021
-0.354799
-0.356749
-0.358769
-0.360716
-0.362425
-0.363699
-0.364321
-0.364052
-0.362641
-0.35984
-0.35542
-0.349185
-0.340996
-0.330793
-0.318616
-0.304548
-0.288547
-0.270639
-0.252559
-0.350992
-0.353415
-0.355031
-0.356609
-0.358441
-0.360526
-0.36278
-0.365076
-0.367241
-0.36906
-0.370278
-0.370599
-0.369695
-0.36722
-0.362828
-0.356202
-0.347083
-0.335298
-0.320783
-0.303599
-0.283939
-0.261901
-0.238174
-0.21106
-0.356792
-0.359103
-0.360803
-0.362582
-0.364681
-0.367075
-0.369657
-0.372276
-0.374735
-0.376774
-0.378073
-0.378256
-0.376904
-0.37357
-0.367813
-0.35924
-0.347552
-0.332581
-0.314325
-0.292941
-0.268862
-0.241137
-0.214355
-0.17847
-0.363408
-0.365446
-0.367143
-0.369061
-0.371372
-0.374013
-0.376872
-0.379781
-0.38252
-0.384769
-0.386145
-0.386191
-0.384396
-0.380223
-0.37316
-0.362782
-0.348785
-0.331078
-0.309825
-0.285136
-0.258054
-0.227859
-0.19866
-0.162683
-0.370401
-0.372032
-0.373605
-0.375535
-0.377925
-0.380694
-0.383703
-0.386758
-0.389588
-0.391833
-0.393042
-0.392683
-0.390181
-0.384918
-0.376385
-0.36419
-0.348143
-0.328288
-0.305062
-0.278658
-0.250635
-0.220202
-0.191475
-0.159564
-0.377304
-0.378427
-0.379745
-0.381524
-0.383797
-0.386464
-0.389363
-0.392271
-0.394866
-0.396734
-0.397367
-0.396177
-0.392543
-0.385875
-0.375715
-0.361805
-0.344149
-0.323024
-0.299035
-0.272735
-0.245391
-0.217036
-0.190095
-0.162484
-0.383721
-0.384284
-0.385202
-0.386626
-0.388537
-0.390824
-0.393296
-0.395693
-0.397659
-0.398731
-0.398351
-0.395904
-0.390786
-0.382492
-0.370709
-0.355391
-0.336762
-0.315343
-0.291791
-0.26692
-0.241586
-0.216301
-0.192207
-0.168452
-0.389448
-0.389434
-0.38983
-0.390685
-0.391978
-0.393595
-0.395338
-0.396909
-0.397906
-0.397814
-0.396043
-0.391987
-0.38512
-0.375094
-0.361815
-0.345472
-0.326499
-0.30553
-0.283247
-0.260392
-0.237548
-0.215272
-0.19432
-0.174521
-0.475669
-0.502268
-0.528775
-0.554927
-0.577499
-0.593973
-0.60074
-0.595049
-0.574927
-0.540321
-0.496305
-0.448589
-0.404606
-0.370759
-0.348784
-0.3476
-0.365205
-0.398634
-0.437026
-0.471848
-0.495288
-0.496015
-0.462083
-0.39325
-0.310971
-0.237318
-0.183176
-0.14732
-0.125957
-0.114839
-0.113315
-0.11998
-0.124341
-0.116333
-0.09715
-0.0745385
-0.0547869
-0.0402082
-0.0301587
-0.0233264
-0.0185034
-0.0153543
-0.0139672
-0.0132517
-0.0116309
-0.00875593
-0.00509707
-0.00180073
0.000595815
0.00217841
0.00303959
0.00324256
0.00280215
0.00206856
0.00134218
0.000807594
0.00068581
0.000593489
0.000432653
0.000215689
-0.421497
-0.44166
-0.462103
-0.483685
-0.50286
-0.518671
-0.526659
-0.52504
-0.512009
-0.487995
-0.456165
-0.421518
-0.389908
-0.366954
-0.356724
-0.364721
-0.38949
-0.425099
-0.461396
-0.491993
-0.512232
-0.512377
-0.477659
-0.406436
-0.32015
-0.241359
-0.182123
-0.141746
-0.115469
-0.0996072
-0.0922944
-0.093671
-0.0961641
-0.0909644
-0.0769253
-0.0602199
-0.0454257
-0.0345682
-0.0272784
-0.0225003
-0.0191671
-0.0173769
-0.0171423
-0.0167705
-0.0146082
-0.0108165
-0.00640689
-0.0026048
0.000100605
0.00187056
0.00286483
0.00321401
0.00293207
0.00231881
0.00162043
0.00101247
0.000846652
0.000687535
0.000477521
0.000231126
-0.359861
-0.371459
-0.384174
-0.399382
-0.413856
-0.427175
-0.435823
-0.438136
-0.432147
-0.418223
-0.398707
-0.377576
-0.360045
-0.35126
-0.354022
-0.372882
-0.405153
-0.442914
-0.476801
-0.503197
-0.520752
-0.52044
-0.485776
-0.413521
-0.325004
-0.242938
-0.179897
-0.136033
-0.106003
-0.0861673
-0.0741848
-0.0706374
-0.0708819
-0.067509
-0.057957
-0.0464605
-0.036113
-0.0288271
-0.0243816
-0.0217711
-0.0200373
-0.0197798
-0.0206396
-0.0203827
-0.0173995
-0.0126685
-0.00756551
-0.00334208
-0.000380494
0.00155167
0.00266129
0.00313579
0.00300134
0.00251907
0.00188258
0.00150183
0.00102503
0.000793874
0.00052839
0.000245418
-0.298334
-0.300161
-0.304117
-0.311246
-0.319233
-0.328035
-0.336151
-0.34128
-0.341505
-0.336962
-0.330065
-0.322817
-0.320757
-0.327645
-0.344342
-0.374026
-0.41316
-0.453147
-0.485388
-0.50795
-0.52267
-0.52126
-0.487003
-0.415247
-0.326044
-0.242548
-0.177207
-0.130633
-0.0978507
-0.0747573
-0.0591891
-0.0512604
-0.0490026
-0.0464544
-0.0405295
-0.0332953
-0.0268157
-0.0229939
-0.0214788
-0.0210876
-0.0210684
-0.0224612
-0.0242993
-0.0239408
-0.0199099
-0.0143053
-0.00858797
-0.00401859
-0.000847113
0.00122409
0.00243502
0.00301609
0.00301162
0.00265767
0.00209719
0.00169086
0.00119622
0.000903752
0.000582054
0.000258439
-0.241799
-0.233746
-0.22927
-0.228246
-0.229522
-0.233378
-0.239376
-0.245538
-0.250709
-0.254114
-0.259102
-0.264176
-0.278769
-0.29958
-0.32979
-0.369112
-0.413959
-0.456311
-0.48791
-0.507768
-0.519614
-0.516867
-0.482374
-0.412288
-0.323953
-0.240791
-0.174599
-0.126025
-0.0912041
-0.0656043
-0.0472108
-0.0356326
-0.0306854
-0.0280824
-0.0253992
-0.0205131
-0.0174291
-0.0170603
-0.0185249
-0.0203486
-0.0221799
-0.0252695
-0.0279398
-0.0272779
-0.0225122
-0.0157396
-0.00948705
-0.00463961
-0.00129836
0.000891625
0.00219293
0.0028652
0.00297141
0.00273372
0.00225461
0.00184901
0.00134719
0.00100698
0.00063406
0.000270001
-0.195511
-0.178725
-0.16716
-0.158191
-0.153394
-0.15197
-0.155187
-0.160669
-0.169798
-0.179187
-0.192137
-0.210319
-0.23663
-0.270296
-0.311128
-0.357682
-0.407077
-0.451849
-0.483543
-0.502446
-0.511863
-0.507541
-0.472851
-0.404504
-0.319087
-0.238014
-0.172325
-0.122571
-0.0861365
-0.058828
-0.0381666
-0.0237371
-0.0159585
-0.0124393
-0.0104506
-0.00808319
-0.0080734
-0.0110368
-0.0154143
-0.0194012
-0.0232217
-0.0280045
-0.0313702
-0.0302125
-0.0245055
-0.0169403
-0.0102674
-0.00520833
-0.00173279
0.000558099
0.00194101
0.00269269
0.00289223
0.00275467
0.00235435
0.00196756
0.00146892
0.001095
0.000680107
0.0002799
-0.160837
-0.136227
-0.121242
-0.105713
-0.0958585
-0.0903434
-0.0899594
-0.0914329
-0.104189
-0.118249
-0.137633
-0.163917
-0.198758
-0.24141
-0.289793
-0.341262
-0.393653
-0.440503
-0.473008
-0.490327
-0.499846
-0.494364
-0.45965
-0.393743
-0.31245
-0.234733
-0.17051
-0.120487
-0.0827308
-0.0541782
-0.0318382
-0.0152414
-0.00479674
0.000247355
0.00243189
0.00334479
0.000979303
-0.00498433
-0.0120507
-0.018136
-0.0240562
-0.0304855
-0.0344224
-0.0325953
-0.0260355
-0.0178928
-0.010931
-0.0057256
-0.00214819
0.000227196
0.00168398
0.00250608
0.00278497
0.00273148
0.00240275
0.00204568
0.00155805
0.00116286
0.000717267
0.000287979
-0.139446
-0.111888
-0.0896594
-0.0718666
-0.0590828
-0.0511064
-0.046384
-0.0480403
-0.057498
-0.0729418
-0.0958752
-0.12667
-0.165863
-0.213183
-0.265739
-0.319682
-0.373154
-0.421231
-0.455168
-0.473896
-0.483005
-0.476866
-0.442899
-0.380548
-0.304539
-0.231237
-0.169211
-0.119699
-0.0810758
-0.0514256
-0.0279753
-0.00968199
0.00295531
0.00991259
0.0128991
0.0133333
0.00938115
0.00100445
-0.0083547
-0.0164018
-0.024464
-0.0325173
-0.0369378
-0.0342789
-0.0270907
-0.0186
-0.0114799
-0.00619022
-0.00254121
-9.68514e-05
0.00142608
0.0023112
0.00265859
0.00267545
0.00240988
0.00208669
0.00161553
0.00120951
0.000744388
0.000294141
-0.134534
-0.104356
-0.0765548
-0.0540755
-0.0372922
-0.0269989
-0.0211717
-0.0217368
-0.0290296
-0.0432358
-0.0658519
-0.0972968
-0.137581
-0.186465
-0.240936
-0.296188
-0.3502
-0.398753
-0.434001
-0.454589
-0.463954
-0.457247
-0.424231
-0.366012
-0.295842
-0.227474
-0.168201
-0.119702
-0.0808031
-0.0502094
-0.0259815
-0.00651033
0.0077725
0.01664
0.0209289
0.021933
0.0172257
0.00721206
-0.00407696
-0.0141386
-0.0244028
-0.0340091
-0.0387714
-0.0353895
-0.0277368
-0.0190784
-0.0119145
-0.0065988
-0.00290757
-0.000409784
0.00117103
0.00211263
0.0025203
0.0025966
0.00238588
0.00209383
0.00164548
0.00123676
0.000761768
0.00029831
-0.139118
-0.112418
-0.0827742
-0.0566503
-0.0347702
-0.0201807
-0.0111451
-0.00961386
-0.0148054
-0.0270127
-0.0472578
-0.0762298
-0.113857
-0.160091
-0.21266
-0.266727
-0.319384
-0.367412
-0.404514
-0.427503
-0.43818
-0.432136
-0.401739
-0.349253
-0.285989
-0.223187
-0.167266
-0.120228
-0.0816389
-0.05044
-0.0254629
-0.00521721
0.0103527
0.0207934
0.0266714
0.028753
0.0245852
0.0139445
0.00108609
-0.0110507
-0.0235443
-0.0347373
-0.0397471
-0.0359752
-0.0279812
-0.0193356
-0.0122391
-0.00695501
-0.00325015
-0.000713444
0.000917694
0.00191095
0.00237344
0.00250185
0.00233969
0.00207456
0.00165322
0.00124784
0.000770647
0.000300476
-0.146452
-0.122596
-0.0980349
-0.0703757
-0.0456735
-0.0269587
-0.0140017
-0.00784013
-0.00829479
-0.0168673
-0.0341635
-0.0605993
-0.0956629
-0.139069
-0.189317
-0.241951
-0.293696
-0.341401
-0.379083
-0.405684
-0.415149
-0.409348
-0.381648
-0.335152
-0.278854
-0.221545
-0.168884
-0.12322
-0.0849041
-0.0532131
-0.0272969
-0.0061904
0.010622
0.0226412
0.0303026
0.0340291
0.031925
0.0218333
0.00765247
-0.00713986
-0.0222699
-0.0348765
-0.0398291
-0.0361891
-0.0279338
-0.0194456
-0.0125029
-0.00728871
-0.00358602
-0.00101684
0.000661485
0.00170418
0.0022177
0.00239345
0.00227572
0.00203557
0.00164384
0.00124613
0.000772621
0.000300843
-0.157634
-0.138753
-0.11943
-0.0961553
-0.0721526
-0.0510059
-0.0340162
-0.0221872
-0.017585
-0.0197716
-0.0302365
-0.0496923
-0.0782893
-0.115438
-0.15983
-0.207974
-0.25634
-0.301746
-0.33975
-0.363356
-0.378422
-0.375478
-0.353918
-0.316196
-0.268495
-0.217654
-0.168948
-0.125276
-0.0876465
-0.0559749
-0.0296231
-0.00794905
0.00944497
0.0223813
0.0313126
0.0370905
0.0374003
0.0294393
0.0150357
-0.00211013
-0.0196863
-0.0337362
-0.0386238
-0.0350433
-0.0273295
-0.0192824
-0.0126042
-0.00751764
-0.00385173
-0.00127452
0.000433518
0.00151277
0.0020673
0.00228195
0.00220179
0.00198403
0.00161967
0.00123309
0.000768117
0.000299153
-0.149247
-0.139813
-0.121996
-0.100327
-0.0790175
-0.0601419
-0.0445482
-0.03291
-0.026082
-0.0252939
-0.0322205
-0.0481741
-0.0731513
-0.106678
-0.147758
-0.19308
-0.239091
-0.282443
-0.318065
-0.342231
-0.352258
-0.346147
-0.323014
-0.28651
-0.242662
-0.197067
-0.153509
-0.114097
-0.0796407
-0.050246
-0.0254475
-0.00474108
0.0120017
0.0247003
0.0338322
0.0404634
0.0436639
0.0383613
0.0240752
0.00349747
-0.017859
-0.0334186
-0.0380177
-0.0339433
-0.0261914
-0.0185294
-0.012224
-0.00739986
-0.00388467
-0.0013836
0.00029783
0.00137909
0.00195375
0.00219519
0.00214251
0.0019414
0.00159624
0.00121465
0.00075834
0.000294478
-0.143719
-0.135966
-0.119354
-0.100087
-0.0819144
-0.0660081
-0.0526324
-0.0422428
-0.0362134
-0.0359953
-0.0426576
-0.057122
-0.079518
-0.109446
-0.145922
-0.186145
-0.22681
-0.264598
-0.295009
-0.313102
-0.318351
-0.309701
-0.287401
-0.254941
-0.217054
-0.177737
-0.139684
-0.104525
-0.0731248
-0.0458404
-0.0225089
-0.00277544
0.0132746
0.0255594
0.034836
0.0421775
0.0463991
0.0433362
0.0294337
0.00687303
-0.0164009
-0.0319199
-0.0356021
-0.0313651
-0.0242965
-0.0173917
-0.0116586
-0.00719478
-0.00387845
-0.00147973
0.000161204
0.00123265
0.00182038
0.00208147
0.00205502
0.00187551
0.00155139
0.00118487
0.000740905
0.000286628
-0.13769
-0.130745
-0.116594
-0.100068
-0.0845774
-0.0711729
-0.0601071
-0.0518688
-0.0474219
-0.0478006
-0.0538842
-0.0664742
-0.0858043
-0.111432
-0.142348
-0.176164
-0.209724
-0.240266
-0.266006
-0.278625
-0.281645
-0.273251
-0.254492
-0.227581
-0.195601
-0.161546
-0.127833
-0.0961301
-0.0673944
-0.0420505
-0.0201158
-0.00136542
0.0141068
0.0260945
0.0353096
0.0429281
0.0479673
0.045942
0.0320045
0.00870284
-0.0145699
-0.0288893
-0.0321384
-0.0283342
-0.0222184
-0.0161798
-0.0110478
-0.00695584
-0.00384919
-0.0015632
2.7897e-05
0.00108264
0.00167904
0.00195715
0.00195663
0.00180067
0.0014998
0.00114841
0.000718883
0.000277459
-0.129382
-0.124851
-0.113706
-0.0998935
-0.0868374
-0.0757803
-0.0669406
-0.0605181
-0.0570972
-0.0575217
-0.0625866
-0.072915
-0.0886542
-0.10939
-0.13424
-0.16132
-0.188192
-0.212558
-0.230626
-0.243894
-0.246508
-0.239813
-0.224478
-0.201938
-0.174709
-0.145395
-0.116002
-0.0878923
-0.0619393
-0.0386357
-0.0181527
-0.00045844
0.014337
0.0260155
0.0351232
0.0426788
0.0479189
0.046437
0.033003
0.0105553
-0.0113734
-0.0244977
-0.0276842
-0.0249026
-0.0199747
-0.0148747
-0.0103718
-0.00667163
-0.00379159
-0.00163093
-9.8815e-05
0.000933615
0.00153501
0.00182853
0.00185333
0.00171999
0.00144186
0.00110723
0.000694183
0.000267583
-0.120974
-0.118914
-0.11047
-0.0992118
-0.0884128
-0.0793581
-0.0722198
-0.0670652
-0.0643118
-0.064641
-0.0686809
-0.0768512
-0.0892557
-0.105586
-0.125126
-0.146544
-0.168043
-0.187574
-0.202562
-0.21257
-0.21496
-0.209626
-0.197084
-0.17863
-0.15606
-0.131191
-0.105609
-0.0805836
-0.057057
-0.0356248
-0.0165499
8.17035e-05
0.0141247
0.0253982
0.0343018
0.0416098
0.0466261
0.0453326
0.0331817
0.0129
-0.00700255
-0.0191824
-0.0228566
-0.0213523
-0.0176773
-0.0135219
-0.00965015
-0.00634973
-0.00370745
-0.00168237
-0.000217812
0.000786355
0.00138839
0.00169476
0.00174298
0.00163171
0.00137736
0.00106155
0.00066678
0.000256679
-0.113477
-0.112834
-0.106635
-0.0977213
-0.08893
-0.0815204
-0.0757422
-0.0716536
-0.0695248
-0.0698251
-0.0730039
-0.0793732
-0.0890274
-0.10174
-0.116972
-0.133731
-0.15054
-0.165756
-0.177731
-0.185429
-0.187354
-0.183141
-0.173146
-0.158119
-0.139216
-0.117873
-0.0955527
-0.0734361
-0.0523599
-0.0328867
-0.0153188
0.000181155
0.013415
0.0242175
0.0328524
0.0398053
0.0443855
0.0432172
0.0327264
0.0151421
-0.0024481
-0.0138391
-0.018181
-0.0179188
-0.0154198
-0.0121566
-0.00889642
-0.0059947
-0.00359774
-0.00171719
-0.000328421
0.000641341
0.00123922
0.00155557
0.00162562
0.00153669
0.00130685
0.00101138
0.000636531
0.000244655
-0.105988
-0.106354
-0.102149
-0.0953552
-0.0883628
-0.0824106
-0.0778302
-0.0746766
-0.0730968
-0.0733896
-0.0758872
-0.0808358
-0.0882994
-0.0980942
-0.109771
-0.122542
-0.13535
-0.147045
-0.156383
-0.162232
-0.163687
-0.160333
-0.15219
-0.139709
-0.123821
-0.105709
-0.0864919
-0.0670972
-0.0482693
-0.0305951
-0.0144502
-6.5007e-05
0.0123271
0.0225659
0.0308145
0.0373334
0.0413888
0.0403378
0.0315273
0.0166803
0.00143849
-0.0091283
-0.0139763
-0.0147481
-0.0132651
-0.0108077
-0.00812442
-0.0056129
-0.00346479
-0.00173569
-0.000430075
0.000499462
0.00108854
0.00141215
0.00150228
0.00143549
0.00123048
0.000956797
0.000603531
0.000231621
-0.0982531
-0.0997981
-0.0973019
-0.0923017
-0.0868815
-0.082214
-0.0786601
-0.0762758
-0.0751386
-0.07544
-0.0774112
-0.0812171
-0.086893
-0.0942811
-0.103028
-0.112606
-0.122277
-0.131107
-0.138163
-0.142509
-0.14347
-0.140585
-0.13379
-0.123433
-0.110174
-0.0948178
-0.0782168
-0.0611879
-0.0444359
-0.0285245
-0.013835
-0.000616405
0.0108852
0.0204908
0.0282567
0.0342674
0.037792
0.0368639
0.0295859
0.0172793
0.00429527
-0.00531135
-0.0103776
-0.0119063
-0.0112533
-0.00950022
-0.00734853
-0.00521172
-0.00331164
-0.00173858
-0.000522251
0.000361753
0.000937474
0.00126542
0.00137356
0.0013285
0.00114857
0.000897972
0.000567941
0.000217676
-0.0911453
-0.093455
-0.0922158
-0.088671
-0.0845863
-0.0810139
-0.0783136
-0.0765511
-0.075771
-0.076085
-0.0776315
-0.080512
-0.084746
-0.0902239
-0.096712
-0.103827
-0.110973
-0.117408
-0.122597
-0.125693
-0.126137
-0.123541
-0.117832
-0.109196
-0.0980396
-0.0849606
-0.070661
-0.0558271
-0.0410488
-0.0268225
-0.0135317
-0.00145444
0.00914815
0.0180738
0.0252904
0.0307526
0.0338017
0.0330167
0.0270901
0.0170395
0.00615379
-0.00238199
-0.00739928
-0.00941929
-0.00941178
-0.00825613
-0.00658319
-0.00479936
-0.00314215
-0.00172709
-0.00060479
0.000228965
0.000786973
0.00111628
0.00124028
0.00121635
0.0010616
0.000835142
0.000529899
0.000202885
-0.0845472
-0.08719
-0.0868964
-0.084548
-0.0815793
-0.0789191
-0.0769225
-0.0756658
-0.0751713
-0.075492
-0.0767026
-0.0788652
-0.0819963
-0.0860248
-0.0907707
-0.0959326
-0.101051
-0.105481
-0.109262
-0.111319
-0.1113
-0.1089
-0.10401
-0.0967082
-0.0872746
-0.0761607
-0.0638958
-0.0510159
-0.0380216
-0.0253646
-0.0134208
-0.00247706
0.00720807
0.0154167
0.0220447
0.0269638
0.0296188
0.0290075
0.0242654
0.016179
0.00718875
-0.000238174
-0.00500484
-0.00729125
-0.00775948
-0.00709487
-0.00584282
-0.00438477
-0.00296099
-0.00170314
-0.000677953
0.000101657
0.000637999
0.000965782
0.00110341
0.00109976
0.000970101
0.000768602
0.000489564
0.000187327
-0.0780672
-0.0810154
-0.0814789
-0.0800777
-0.0780035
-0.0760832
-0.0746587
-0.0738089
-0.0735407
-0.0738706
-0.0748331
-0.0764611
-0.0787593
-0.0816669
-0.0850509
-0.088712
-0.0923532
-0.0956553
-0.0978898
-0.0990178
-0.0985867
-0.0962985
-0.0920272
-0.0858029
-0.0778105
-0.0683612
-0.0578455
-0.0466928
-0.0353284
-0.0241464
-0.0134926
-0.00365095
0.00512526
0.0126093
0.0186439
0.0230589
0.0254083
0.0250047
0.0212939
0.0148882
0.00757226
0.00123902
-0.00313817
-0.00551411
-0.00630873
-0.00603306
-0.0051413
-0.00397738
-0.00277352
-0.00166917
-0.000742349
-1.98029e-05
0.000491427
0.000814953
0.000963943
0.000979512
0.000874712
0.00069861
0.000447156
0.000171097
-0.0719241
-0.0750667
-0.0760585
-0.0753668
-0.0739914
-0.0726607
-0.0716932
-0.0711665
-0.0710788
-0.0714234
-0.0722044
-0.0734284
-0.0750859
-0.0771312
-0.0794805
-0.0819943
-0.0844478
-0.0865642
-0.0879401
-0.0883984
-0.0876408
-0.0854332
-0.0816598
-0.0763171
-0.0695137
-0.0614637
-0.05246
-0.0428402
-0.0329523
-0.0231321
-0.013692
-0.0049047
0.00298469
0.00975179
0.0152107
0.0191753
0.0213022
0.0211239
0.0183037
0.013316
0.00745449
0.00216481
-0.00174113
-0.00407298
-0.00506635
-0.0050843
-0.00449148
-0.00358669
-0.00258566
-0.00162822
-0.000799013
-0.000135267
0.000348003
0.000664719
0.000822912
0.000856494
0.000776112
0.000626013
0.000402986
0.000154311
-0.0661653
-0.069324
-0.0706604
-0.0705009
-0.0696691
-0.0688005
-0.0681905
-0.0679158
-0.0679688
-0.0683256
-0.0689683
-0.0698859
-0.0710645
-0.0724729
-0.0740526
-0.0756998
-0.0772519
-0.0785075
-0.0792087
-0.0791718
-0.078179
-0.0760522
-0.0726902
-0.0680696
-0.0622532
-0.0553888
-0.0476917
-0.0394202
-0.0308555
-0.0222814
-0.0139729
-0.00618318
0.000856174
0.00693039
0.0118466
0.0154188
0.0173864
0.0174371
0.0153805
0.0115786
0.00696523
0.00263255
-0.000758792
-0.00294781
-0.0040334
-0.0042585
-0.00390459
-0.00322182
-0.00240351
-0.00158385
-0.000849539
-0.000244944
0.000208343
0.000516009
0.000681303
0.000731623
0.00067507
0.000551162
0.000357349
0.000137087
-0.0606748
-0.0637835
-0.0653458
-0.0655757
-0.0651543
-0.0646385
-0.0643011
-0.0642167
-0.0643738
-0.0647378
-0.0652778
-0.0659728
-0.0668051
-0.0677487
-0.0687623
-0.0697723
-0.0706629
-0.0712986
-0.0714986
-0.0711087
-0.0699635
-0.0679275
-0.0649155
-0.0608984
-0.055911
-0.050053
-0.0434797
-0.0363878
-0.0290019
-0.0215577
-0.0142923
-0.00743334
-0.00119491
0.00422337
0.0086359
0.0118683
0.0137199
0.0139892
0.0125787
0.00976432
0.00621651
0.00271855
-0.00013914
-0.00211397
-0.00320531
-0.00356168
-0.00338982
-0.00289128
-0.00223328
-0.00153978
-0.00089581
-0.000349535
7.26685e-05
0.000369632
0.000540145
0.000605855
0.000572427
0.000474575
0.00031049
0.000119535
-0.0554825
-0.0584868
-0.0601686
-0.0606657
-0.0605446
-0.0602918
-0.0601571
-0.060212
-0.0604438
-0.0608124
-0.0612792
-0.0618153
-0.0623998
-0.0630108
-0.0636185
-0.0641719
-0.064591
-0.0647964
-0.0646465
-0.0640199
-0.0627925
-0.060862
-0.0581599
-0.0546571
-0.0503714
-0.0453689
-0.0397615
-0.0336979
-0.027355
-0.0209255
-0.0146103
-0.00860878
-0.00311378
0.00169385
0.00564361
0.00858006
0.0103466
0.0108124
0.00993665
0.0079347
0.00527289
0.00252924
0.000176807
-0.00154124
-0.00257289
-0.00299616
-0.00295395
-0.00260236
-0.00208103
-0.00150005
-0.000939821
-0.000449741
-5.90669e-05
0.000225954
0.00040028
0.000480162
0.000468983
0.000396843
0.000262723
0.000101774
-0.0505928
-0.0534386
-0.055158
-0.0558297
-0.0559231
-0.0558624
-0.0558748
-0.0560291
-0.0563126
-0.0566827
-0.0570963
-0.0575205
-0.0579322
-0.0583137
-0.0586444
-0.0588836
-0.0589648
-0.0588956
-0.0585189
-0.0577497
-0.0564982
-0.0546892
-0.0522692
-0.0492117
-0.0455248
-0.0412526
-0.0364755
-0.0313049
-0.0258788
-0.0203525
-0.0148936
-0.00967256
-0.00485867
-0.000612116
0.00291586
0.00559118
0.00728985
0.00792538
0.00748725
0.00613741
0.00421195
0.00212392
0.000246081
-0.00119592
-0.00212227
-0.00256018
-0.00260126
-0.00236098
-0.00195204
-0.00146886
-0.000984292
-0.000546539
-0.000186591
8.55328e-05
0.000262229
0.000355141
0.000365431
0.000318615
0.000214479
8.39547e-05
-0.0459854
-0.0486455
-0.0503462
-0.0511219
-0.0513628
-0.0514381
-0.0515542
-0.0517762
-0.0520926
-0.0524605
-0.0528357
-0.0531832
-0.0534801
-0.053712
-0.0538647
-0.0539146
-0.0538328
-0.0535429
-0.0530148
-0.0521705
-0.0509404
-0.0492672
-0.0471087
-0.0444424
-0.0412715
-0.0376253
-0.033562
-0.0291646
-0.0245396
-0.0198109
-0.015116
-0.0105975
-0.00640072
-0.00266423
0.000480902
0.00292141
0.00455863
0.00533314
0.00524675
0.00442046
0.00309043
0.00156249
0.000118759
-0.00104498
-0.00183634
-0.00224823
-0.00233306
-0.00217161
-0.00185105
-0.0014497
-0.00103183
-0.000641974
-0.000310615
-5.08877e-05
0.000127127
0.000231522
0.000262282
0.000240502
0.000166203
6.61579e-05
-0.0416666
-0.0441215
-0.0457599
-0.0465855
-0.0469221
-0.0470906
-0.0472768
-0.0475422
-0.0478766
-0.048239
-0.0485857
-0.0488819
-0.049105
-0.0492421
-0.0492828
-0.0492116
-0.0490083
-0.0486251
-0.0480307
-0.0471726
-0.0460018
-0.0444759
-0.0425629
-0.0402447
-0.037522
-0.0344149
-0.0309655
-0.0272357
-0.0233074
-0.0192779
-0.0152583
-0.0113661
-0.00772322
-0.00444694
-0.00164862
0.000577165
0.00215161
0.00303121
0.00322026
0.00280771
0.00196064
0.000901061
-0.000158921
-0.00105521
-0.00169548
-0.00205188
-0.00214787
-0.00203629
-0.00178176
-0.00144621
-0.00108441
-0.00073701
-0.000432506
-0.000184567
-4.81835e-06
0.000110765
0.000160762
0.000162814
0.000117949
4.86417e-05
-0.0376287
-0.0398681
-0.0414154
-0.042252
-0.0426462
-0.0428758
-0.0431072
-0.0433978
-0.0437392
-0.0440932
-0.0444185
-0.0446811
-0.0448593
-0.0449418
-0.04492
-0.0447837
-0.0445202
-0.0441008
-0.0434966
-0.0426697
-0.041586
-0.0402153
-0.0385341
-0.0365281
-0.0341976
-0.0315563
-0.0286355
-0.0254811
-0.0221559
-0.0187355
-0.0153084
-0.0119699
-0.00882024
-0.00595668
-0.00347231
-0.00144551
6.00113e-05
0.0010108
0.00140926
0.00131863
0.000856112
0.000182013
-0.000545953
-0.00119463
-0.0016788
-0.00196
-0.00204196
-0.00195541
-0.00174597
-0.00146106
-0.00114503
-0.000832817
-0.000551395
-0.000315008
-0.000134722
-8.39599e-06
6.11588e-05
8.73529e-05
7.11058e-05
3.10561e-05
-0.0338648
-0.0358883
-0.0373268
-0.0381471
-0.0385711
-0.0388381
-0.0390964
-0.0393991
-0.0397395
-0.0400831
-0.0403915
-0.0406328
-0.0407865
-0.0408424
-0.0407936
-0.0406323
-0.0403524
-0.0399364
-0.03936
-0.0385945
-0.0376163
-0.036404
-0.034941
-0.0332164
-0.0312305
-0.0289932
-0.0265277
-0.0238687
-0.0210637
-0.018171
-0.0152604
-0.0124079
-0.00969442
-0.00719935
-0.00499942
-0.00315905
-0.00173031
-0.000740159
-0.000189435
-3.50634e-05
-0.000196655
-0.000559166
-0.00100627
-0.00143284
-0.00176473
-0.00195979
-0.00200908
-0.00192766
-0.00174509
-0.00149564
-0.0012151
-0.000932147
-0.000669228
-0.000440824
-0.000259338
-0.000124243
-3.73747e-05
1.15193e-05
2.3674e-05
1.50213e-05
-0.030373
-0.0321841
-0.0335034
-0.0342886
-0.0347223
-0.03501
-0.0352823
-0.0355877
-0.0359217
-0.0362534
-0.0365479
-0.0367763
-0.0369191
-0.0369673
-0.0369152
-0.0367569
-0.0364896
-0.0361039
-0.0355794
-0.034894
-0.034031
-0.0329759
-0.0317168
-0.030246
-0.0285638
-0.0266774
-0.0246046
-0.0223713
-0.0200138
-0.0175766
-0.0151138
-0.0126852
-0.0103556
-0.00818848
-0.00624633
-0.00458162
-0.00323732
-0.00223631
-0.00158232
-0.00124762
-0.00117853
-0.00129384
-0.00150882
-0.00174199
-0.00193151
-0.00203672
-0.00204152
-0.00194935
-0.00177851
-0.00155187
-0.00129595
-0.00103474
-0.00078766
-0.00056615
-0.000380759
-0.000234327
-0.000130525
-6.08271e-05
-2.1868e-05
-4.3829e-06
-0.0271456
-0.0287524
-0.0299487
-0.0306871
-0.0311172
-0.0314137
-0.0316911
-0.0319933
-0.0323173
-0.0326363
-0.0329191
-0.0331398
-0.0332807
-0.0333333
-0.0332934
-0.0331561
-0.0329203
-0.032581
-0.032122
-0.0315261
-0.0307814
-0.029878
-0.0288078
-0.0275653
-0.0261507
-0.0245696
-0.0228353
-0.0209676
-0.0189942
-0.0169485
-0.0148725
-0.0128122
-0.0108189
-0.00894285
-0.00723418
-0.00573538
-0.00448212
-0.00349431
-0.00277816
-0.00231702
-0.00207615
-0.00200003
-0.00202755
-0.00209698
-0.00215865
-0.00217569
-0.00212918
-0.00201583
-0.00184409
-0.00162854
-0.00138902
-0.00114272
-0.00090483
-0.000688061
-0.000501835
-0.000346481
-0.000222788
-0.000128263
-6.41449e-05
-1.40043e-05
-0.0241751
-0.0255894
-0.0266638
-0.0273488
-0.0277663
-0.0280639
-0.0283406
-0.0286357
-0.0289477
-0.0292537
-0.0295262
-0.0297424
-0.0298866
-0.0299511
-0.0299327
-0.0298279
-0.0296374
-0.0293491
-0.0289606
-0.0284568
-0.0278284
-0.0270683
-0.0261713
-0.0251329
-0.0239538
-0.022638
-0.0211955
-0.0196414
-0.0179968
-0.016287
-0.0145438
-0.0128025
-0.011103
-0.00948466
-0.00798743
-0.00664528
-0.00548785
-0.00453276
-0.00378783
-0.00324443
-0.00288136
-0.0026611
-0.00254155
-0.00247639
-0.00242667
-0.00236179
-0.00226195
-0.00211951
-0.00193822
-0.00172478
-0.00149212
-0.00125456
-0.00102394
-0.000807411
-0.000613578
-0.000447767
-0.000314465
-0.000205253
-0.000113816
-4.50974e-05
-0.0214547
-0.0226897
-0.0236463
-0.0242752
-0.0246747
-0.0249682
-0.0252405
-0.0255265
-0.0258255
-0.0261183
-0.0263813
-0.0265947
-0.0267448
-0.0268241
-0.0268306
-0.0267607
-0.0266135
-0.0263838
-0.0260696
-0.0256578
-0.0251408
-0.0245138
-0.0237735
-0.0229167
-0.021944
-0.0208582
-0.019667
-0.0183816
-0.0170183
-0.0155958
-0.0141383
-0.0126723
-0.0112287
-0.00983808
-0.00853191
-0.00733712
-0.00627832
-0.00537093
-0.00462389
-0.00403384
-0.0035889
-0.00326518
-0.00303413
-0.00286223
-0.00272006
-0.00258222