/*--------------------------------*- C++ -*----------------------------------*\
| =========                 |                                                 |
| \\      /  F ield         | OpenFOAM: The Open Source CFD Toolbox           |
|  \\    /   O peration     | Version:  2312                                  |
|   \\  /    A nd           | Website:  www.openfoam.com                      |
|    \\/     M anipulation  |                                                 |
\*---------------------------------------------------------------------------*/
FoamFile
{
    version     2.0;
    format      ascii;
    arch        "LSB;label=32;scalar=64";
    class       volVectorField;
    location    "15.5";
    object      U;
}
// * * * * * * * * * * * * * * * * * * * * * * * * * * * * * * * * * * * * * //

dimensions      [0 1 -1 0 0 0 0];

internalField   nonuniform List<vector> 
32230
(
(-0.00790587 0.00660428 4.02182e-20)
(-0.0199602 0.0161776 -8.12066e-20)
(-0.0278431 0.0227567 0)
(-0.0304604 0.0274166 -1.10375e-19)
(-0.0271273 0.0307695 3.51007e-20)
(-0.0173286 0.0331546 -3.33424e-20)
(-0.000581374 0.0347993 6.28618e-20)
(0.0235839 0.0358901 -4.42628e-22)
(0.0556152 0.0366109 2.81178e-20)
(0.0959211 0.0371698 -1.08328e-19)
(0.144807 0.0377999 -5.15352e-20)
(0.202399 0.0387298 0)
(0.268551 0.0401659 9.39506e-20)
(0.342758 0.0422627 -1.80089e-19)
(0.424081 0.0450964 1.29945e-19)
(0.511128 0.0486477 -1.67016e-19)
(0.60208 0.0527951 -4.11082e-20)
(0.694781 0.0573208 7.76318e-20)
(0.786867 0.0619286 7.61884e-20)
(0.87593 0.0662722 -7.29023e-20)
(0.959693 0.0699888 0)
(1.03618 0.0727359 -6.92617e-20)
(1.10383 0.0742251 3.34701e-20)
(1.16165 0.0742487 0)
(1.20921 0.0726964 0)
(1.24668 0.0695605 -2.92021e-20)
(1.27476 0.0649246 -1.1447e-19)
(1.29454 0.0589529 1.0962e-19)
(1.30743 0.0518432 5.10662e-20)
(1.31491 0.0438471 4.86493e-20)
(1.31839 0.0351058 0)
(1.31912 0.0260167 0)
(1.31798 0.0160714 8.52315e-20)
(1.31568 0.00708665 -1.21004e-19)
(1.31237 -0.00570061 7.5976e-20)
(1.30787 -0.0111623 -1.44113e-19)
(1.30266 -0.0353903 6.85302e-20)
(-0.00935293 0.00729228 1.81594e-22)
(-0.0218923 0.0164402 4.06334e-20)
(-0.0284929 0.0215079 -3.85567e-20)
(-0.0283381 0.0240998 9.47238e-23)
(-0.0208235 0.0252077 7.03208e-20)
(-0.00539503 0.025457 1.33449e-19)
(0.0185279 0.0252966 -1.58677e-19)
(0.0515189 0.0250756 6.04059e-20)
(0.0940744 0.0250919 1.96885e-22)
(0.146521 0.0256191 5.41061e-20)
(0.20891 0.0268989 -3.14057e-22)
(0.280888 0.0291252 4.93552e-20)
(0.361609 0.0324195 -1.41183e-19)
(0.449671 0.0368039 4.48633e-20)
(0.543134 0.0421836 1.72696e-19)
(0.639604 0.0483427 0)
(0.736387 0.0549562 4.01727e-20)
(0.830692 0.0616185 0)
(0.919855 0.0678831 0)
(1.00155 0.073309 0)
(1.07396 0.077506 -3.54062e-20)
(1.1359 0.0801736 1.34087e-19)
(1.1869 0.0811262 -1.28138e-19)
(1.22713 0.0803034 -2.17321e-22)
(1.25739 0.0777631 2.08041e-19)
(1.27891 0.0736614 -1.12992e-19)
(1.2932 0.0682185 -1.09094e-19)
(1.30185 0.0616924 2.08541e-19)
(1.30635 0.0543244 -1.99218e-19)
(1.30797 0.0463637 9.17305e-20)
(1.30769 0.0379434 -9.02489e-20)
(1.30615 0.0292855 -4.14646e-20)
(1.30376 0.020312 0)
(1.3006 0.011373 1.14836e-19)
(1.29685 0.00183998 -1.43391e-19)
(1.29215 -0.00600212 1.00757e-19)
(1.28774 -0.0176544 -3.07295e-20)
(-0.0106725 0.00784898 -8.15902e-20)
(-0.0231243 0.0166801 0)
(-0.0273879 0.0206996 -1.17167e-19)
(-0.0229917 0.0218621 1.11847e-19)
(-0.00944318 0.0214487 1.41561e-19)
(0.0138025 0.0203284 -6.724e-20)
(0.0473384 0.019141 -2.81611e-22)
(0.0916965 0.018377 2.99416e-20)
(0.147204 0.0184278 -1.56088e-22)
(0.213823 0.019606 -5.48173e-20)
(0.291002 0.0221375 -8.11989e-23)
(0.377555 0.0261406 4.96689e-20)
(0.471613 0.0316006 -4.7509e-20)
(0.570678 0.0383532 4.52487e-20)
(0.671773 0.0460849 -1.72782e-19)
(0.771683 0.0543559 0)
(0.867233 0.0626429 1.1953e-19)
(0.955577 0.0703965 -7.63628e-20)
(1.03444 0.0771023 -3.72236e-20)
(1.1023 0.0823362 3.55279e-20)
(1.15844 0.0858051 -7.4119e-22)
(1.20298 0.087367 0)
(1.23672 0.0870286 9.44696e-22)
(1.26099 0.0849232 5.99346e-20)
(1.27744 0.0812744 -1.14766e-19)
(1.2878 0.0763536 1.1109e-21)
(1.29369 0.0704401 0)
(1.29648 0.0637908 0)
(1.29722 0.0566123 4.84896e-20)
(1.29662 0.0490894 -4.60904e-20)
(1.29511 0.041273 -8.46456e-20)
(1.29295 0.0334312 1.22521e-19)
(1.29019 0.025157 0)
(1.28692 0.0176309 3.49319e-20)
(1.28312 0.00851716 3.3995e-20)
(1.27869 0.00310334 -3.17112e-21)
(1.2746 -0.0083406 -5.8471e-20)
(-0.0116374 0.00808681 4.09855e-20)
(-0.0231507 0.0164233 4.17748e-20)
(-0.0238824 0.0196267 0)
(-0.0137167 0.0198131 -7.50487e-20)
(0.00769306 0.0184636 3.61488e-20)
(0.0408145 0.0166431 3.52223e-22)
(0.086121 0.0151453 3.20738e-20)
(0.143899 0.0145728 3.04306e-20)
(0.214025 0.0153796 5.81088e-20)
(0.295761 0.0178793 -5.52836e-20)
(0.387595 0.0222288 -5.25791e-20)
(0.487194 0.0284038 0)
(0.591488 0.0361837 -2.85356e-22)
(0.696903 0.0451598 4.53446e-20)
(0.799692 0.054773 4.3204e-20)
(0.896316 0.064378 8.27216e-20)
(0.9838 0.073322 -1.18814e-19)
(1.06 0.0810242 -3.77109e-20)
(1.12374 0.0870392 -3.65358e-20)
(1.17483 0.0910967 3.50539e-20)
(1.21398 0.0931098 -3.36132e-20)
(1.24253 0.0931559 -3.13754e-20)
(1.26226 0.0914366 3.08239e-20)
(1.27505 0.0882267 5.78209e-20)
(1.28272 0.0838249 -2.722e-20)
(1.2868 0.0785134 1.05879e-19)
(1.28847 0.0725328 -1.24912e-19)
(1.28858 0.0660714 -9.46205e-20)
(1.28768 0.0592709 4.50028e-20)
(1.28606 0.0522275 1.27688e-19)
(1.28391 0.045022 0)
(1.28131 0.0377162 3.7281e-20)
(1.27828 0.0303158 0)
(1.27488 0.0231534 -3.491e-20)
(1.27112 0.0153941 3.2839e-20)
(1.26694 0.00995812 -6.00126e-20)
(1.26327 -4.79362e-05 -5.4263e-20)
(-0.0120785 0.00791269 4.17544e-20)
(-0.0215688 0.0153869 -8.38307e-20)
(-0.0174569 0.0178092 7.98384e-20)
(3.61874e-05 0.0173098 -7.63154e-20)
(0.0310755 0.0154973 0)
(0.0759516 0.0135818 -3.41302e-20)
(0.134839 0.0124727 0)
(0.207512 0.0128456 3.10628e-20)
(0.293057 0.0151655 -5.8601e-20)
(0.389658 0.0196769 2.79406e-20)
(0.494517 0.0263785 5.25435e-20)
(0.603969 0.0350101 0)
(0.7138 0.0450704 9.53817e-20)
(0.819694 0.0558754 -4.53132e-20)
(0.917731 0.0666501 0)
(1.00481 0.0766356 4.11601e-20)
(1.07894 0.0851876 0)
(1.13932 0.0918484 1.12566e-19)
(1.1863 0.0963797 -1.07146e-19)
(1.22111 0.0987554 3.378e-20)
(1.24558 0.0991223 0)
(1.2618 0.0977414 1.23645e-19)
(1.27181 0.0949263 -5.90916e-20)
(1.27743 0.0909902 -8.34281e-20)
(1.28009 0.0862102 7.96481e-20)
(1.28083 0.0808101 2.57905e-20)
(1.28036 0.0749587 2.45011e-20)
(1.27912 0.0687801 6.82094e-20)
(1.27735 0.0623603 -2.16391e-19)
(1.27519 0.0557767 1.21254e-19)
(1.2727 0.0490613 -3.87314e-20)
(1.26993 0.0423293 -1.10485e-19)
(1.26688 0.0354739 0)
(1.26355 0.0289493 3.14295e-20)
(1.25998 0.0218367 0)
(1.25609 0.0167104 2.91798e-20)
(1.25266 0.00781651 5.34199e-20)
(-0.011882 0.00732281 4.24064e-20)
(-0.0180608 0.0134878 -8.52867e-20)
(-0.00766611 0.0150582 -2.30105e-22)
(0.018764 0.0140871 7.6857e-20)
(0.0611572 0.0122475 -3.65944e-20)
(0.119482 0.0108501 0)
(0.193368 0.010873 0)
(0.281734 0.0129987 -3.10465e-20)
(0.382481 0.0176124 2.9441e-20)
(0.492352 0.0247737 2.96877e-22)
(0.607065 0.0342028 5.30376e-20)
(0.721705 0.0453098 -5.07136e-20)
(0.831315 0.0572785 -9.55754e-20)
(0.931529 0.0691941 -9.06018e-20)
(1.01908 0.0801845 1.72944e-19)
(1.09212 0.0895419 -1.23567e-19)
(1.15021 0.0968012 -3.88536e-20)
(1.19418 0.101762 0)
(1.22576 0.104462 1.40593e-19)
(1.24719 0.105115 -1.34046e-19)
(1.2608 0.104037 0)
(1.26875 0.101572 2.94903e-20)
(1.27283 0.0980431 -5.20648e-22)
(1.2744 0.0937219 -5.3653e-20)
(1.27441 0.0888181 -2.61698e-20)
(1.27347 0.0834852 0)
(1.27194 0.0778335 0)
(1.27002 0.071942 2.22764e-20)
(1.26782 0.065873 -1.02069e-19)
(1.26539 0.0596726 7.8427e-20)
(1.26273 0.0533899 1.46371e-19)
(1.25986 0.0470666 -6.97946e-20)
(1.25677 0.04071 0)
(1.25347 0.0345317 -3.14166e-20)
(1.24996 0.0279895 0)
(1.2462 0.0229931 2.63322e-20)
(1.24289 0.0148004 -2.59967e-20)
(-0.0109688 0.00636806 -4.32619e-20)
(-0.0123507 0.0108095 0)
(0.00591704 0.0114672 -7.02359e-22)
(0.0429739 0.0102585 3.94691e-20)
(0.0984068 0.00887458 -3.32686e-22)
(0.171644 0.00867738 -5.86528e-22)
(0.261434 0.0106386 -1.33436e-19)
(0.365422 0.0153401 3.16742e-20)
(0.479924 0.0229466 0)
(0.600018 0.0331863 5.67671e-20)
(0.720021 0.0453879 -5.18622e-22)
(0.834228 0.0585953 -2.55994e-20)
(0.937714 0.0717384 -4.79184e-20)
(1.02696 0.0838173 2.32088e-20)
(1.10015 0.0940522 4.33879e-20)
(1.15718 0.101967 0)
(1.19932 0.107398 3.88403e-20)
(1.22872 0.110447 0)
(1.24798 0.111392 -5.6575e-22)
(1.25968 0.110601 3.31173e-20)
(1.26605 0.108447 -6.17267e-20)
(1.26892 0.105266 5.90827e-20)
(1.26957 0.101326 0)
(1.2689 0.0968299 8.2593e-22)
(1.26747 0.0919202 0)
(1.26559 0.0866984 0)
(1.26343 0.0812364 0)
(1.26107 0.0755889 0)
(1.25855 0.069799 -5.82099e-20)
(1.25588 0.0639078 7.50809e-20)
(1.25306 0.0579467 3.36506e-20)
(1.25009 0.051963 -6.662e-20)
(1.24697 0.0459559 0)
(1.24369 0.0400837 0)
(1.24026 0.0339759 0)
(1.23665 0.0290422 -7.71329e-20)
(1.23339 0.0215242 4.86584e-20)
(-0.00925972 0.00512676 5.03093e-22)
(-0.00416632 0.00754775 -4.40543e-20)
(0.0237252 0.00733624 4.18951e-20)
(0.0731672 0.00623029 1.03837e-21)
(0.143224 0.00589252 1.9028e-22)
(0.232468 0.00766243 7.17871e-20)
(0.338336 0.0123897 0)
(0.456766 0.0203972 6.40912e-20)
(0.582214 0.0314581 0)
(0.708159 0.0448353 -2.85094e-20)
(0.828013 0.059424 0)
(0.936118 0.0739749 -2.55094e-20)
(1.02853 0.087333 0)
(1.10336 0.0986228 2.27971e-20)
(1.16072 0.107342 0)
(1.20222 0.113356 4.04304e-20)
(1.23046 0.116825 -3.80713e-20)
(1.24836 0.118094 -3.58532e-20)
(1.25871 0.117583 -3.43564e-20)
(1.26391 0.115703 -6.38319e-20)
(1.26578 0.112807 6.10925e-20)
(1.26565 0.109169 -2.82402e-20)
(1.26437 0.104992 5.35997e-20)
(1.26245 0.100414 -1.01071e-19)
(1.2602 0.0955305 7.20227e-20)
(1.25776 0.0904084 0)
(1.2552 0.085097 2.09481e-20)
(1.25254 0.0796356 0)
(1.2498 0.0740593 0)
(1.24697 0.0683995 0)
(1.24405 0.0626886 6.64355e-20)
(1.24103 0.0569556 -6.36407e-20)
(1.23789 0.0512222 0)
(1.23463 0.0455718 0)
(1.23123 0.0397899 2.54355e-20)
(1.2277 0.0348827 4.83244e-20)
(1.22443 0.0279046 -2.39516e-20)
(-0.00665751 0.00368392 -9.01879e-20)
(0.00677942 0.00395594 -3.47505e-22)
(0.0461751 0.00308757 8.58818e-20)
(0.109753 0.00258302 -1.21258e-19)
(0.195774 0.00400577 -2.03326e-22)
(0.30153 0.00856006 -3.6687e-20)
(0.422681 0.0168079 -3.4686e-20)
(0.553119 0.0286214 -3.95832e-22)
(0.685454 0.0432245 -1.22827e-19)
(0.812058 0.0593587 1.45068e-19)
(0.92631 0.0755634 -5.50456e-20)
(1.0236 0.0904834 0)
(1.10176 0.103106 -7.22812e-20)
(1.16096 0.11287 9.11314e-20)
(1.20313 0.119654 -6.45686e-20)
(1.23121 0.12367 -4.04264e-20)
(1.24848 0.12533 3.80681e-20)
(1.258 0.125117 7.11629e-20)
(1.26234 0.123489 0)
(1.26342 0.120828 3.11448e-20)
(1.26258 0.117427 2.92612e-20)
(1.2607 0.113492 7.41341e-22)
(1.25829 0.109164 -5.20066e-20)
(1.25562 0.104535 2.59214e-20)
(1.25284 0.0996702 2.32336e-20)
(1.25 0.0946141 6.47696e-20)
(1.24713 0.0894032 -6.24202e-20)
(1.24423 0.084069 1.93517e-20)
(1.2413 0.0786405 -3.6676e-20)
(1.23832 0.0731457 0)
(1.23529 0.0676109 -4.78094e-20)
(1.23219 0.0620626 6.08168e-20)
(1.22901 0.0565222 -1.37909e-20)
(1.22574 0.0510364 0)
(1.22236 0.0455004 -2.54333e-20)
(1.21888 0.0405859 0)
(1.21558 0.0340608 -6.53408e-20)
(-0.00304269 0.00212464 4.57095e-20)
(0.0207753 0.000314282 -3.15393e-22)
(0.0736123 -0.000799503 6.81395e-22)
(0.152937 -3.47695e-05 0)
(0.255817 0.00396019 7.77338e-20)
(0.377779 0.0120905 -5.51923e-22)
(0.512295 0.0244246 -6.35507e-22)
(0.651135 0.0401988 9.83575e-20)
(0.785496 0.058006 -6.27056e-20)
(0.90752 0.0761366 -2.91419e-20)
(1.0116 0.0929722 -2.76361e-20)
(1.09501 0.107296 7.71091e-20)
(1.15777 0.118438 -7.27573e-20)
(1.202 0.126256 4.59212e-20)
(1.23099 0.131004 4.25638e-20)
(1.24838 0.133166 0)
(1.25756 0.133296 0)
(1.26134 0.131917 -5.26841e-20)
(1.26178 0.129455 6.50542e-20)
(1.26032 0.12623 -9.34035e-20)
(1.25786 0.122466 -8.65205e-20)
(1.25493 0.118308 8.23039e-20)
(1.25182 0.113854 2.50851e-20)
(1.24865 0.109165 0)
(1.24548 0.104285 -2.20595e-20)
(1.24234 0.0992481 4.09619e-20)
(1.23923 0.0940842 -7.8996e-22)
(1.23613 0.0888198 -1.85669e-20)
(1.23304 0.0834801 0)
(1.22994 0.0780893 0)
(1.22683 0.0726708 4.49826e-20)
(1.22368 0.0672462 -4.40708e-20)
(1.22048 0.0618367 1.37913e-20)
(1.2172 0.0564663 0)
(1.21383 0.051102 0)
(1.21039 0.0461521 0)
(1.20705 0.0400143 0)
(0.0017159 0.00053843 -4.72589e-20)
(0.0380777 -0.00307777 4.99625e-22)
(0.106244 -0.00382436 8.95944e-20)
(0.202619 -0.000976551 -4.25905e-20)
(0.322607 0.00643844 -8.02881e-20)
(0.459498 0.0188133 3.80299e-20)
(0.604377 0.0355086 -3.60682e-20)
(0.747201 0.0550031 6.76779e-20)
(0.878592 0.0753042 0)
(0.991541 0.0944498 0)
(1.08236 0.110925 2.76371e-20)
(1.15065 0.123872 2.5389e-20)
(1.19853 0.133076 -1.1436e-21)
(1.22962 0.138813 -2.32546e-20)
(1.24796 0.141637 4.15871e-20)
(1.25733 0.142194 -2.03455e-20)
(1.26085 0.141085 1.81508e-20)
(1.26082 0.138801 -3.44882e-20)
(1.25879 0.135706 4.85284e-20)
(1.25577 0.13205 7.44755e-20)
(1.25231 0.127993 -7.09439e-20)
(1.2487 0.123637 0)
(1.2451 0.119048 -2.50889e-20)
(1.24156 0.114271 -2.30347e-20)
(1.23809 0.109337 6.59051e-20)
(1.2347 0.104275 -4.35112e-22)
(1.23137 0.0991089 -8.3341e-22)
(1.2281 0.0938633 -5.3512e-20)
(1.22488 0.0885601 3.30324e-20)
(1.22168 0.0832205 -3.16378e-20)
(1.21849 0.0778646 0)
(1.21528 0.0725113 -4.11506e-20)
(1.21204 0.0671778 1.34491e-20)
(1.20874 0.0618788 -4.74599e-20)
(1.20537 0.0566219 4.54732e-20)
(1.20194 0.0516189 0)
(1.19857 0.0458006 -9.55505e-21)
(0.00774304 -0.000972283 0)
(0.058869 -0.00589734 0)
(0.144078 -0.00548018 2.32925e-20)
(0.25833 0.000361745 -2.19924e-20)
(0.394879 0.0119983 8.12022e-20)
(0.54444 0.0290673 -5.8431e-20)
(0.695843 0.0500481 1.83199e-20)
(0.837965 0.0726597 3.43885e-20)
(0.961936 0.094506 -1.38903e-22)
(1.06259 0.113649 0)
(1.13868 0.128926 0)
(1.19213 0.13997 2.5973e-20)
(1.22674 0.14704 0)
(1.247 0.150757 -6.69732e-20)
(1.25718 0.151869 2.14369e-20)
(1.26079 0.151082 -3.89695e-20)
(1.26046 0.148975 1.82953e-20)
(1.25795 0.145975 1.63285e-20)
(1.25437 0.142371 -4.79012e-20)
(1.25035 0.138347 1.41721e-20)
(1.24622 0.134019 1.32281e-20)
(1.24215 0.129457 -1.33398e-20)
(1.23818 0.124707 4.73359e-20)
(1.23434 0.119804 -6.80799e-20)
(1.23062 0.114773 1.0266e-20)
(1.22702 0.10964 1.99352e-20)
(1.22352 0.104425 -5.4057e-20)
(1.22011 0.09915 5.2078e-20)
(1.21677 0.0938348 -1.5634e-20)
(1.21348 0.0884981 0)
(1.21023 0.083157 -1.36473e-20)
(1.20698 0.0778274 0)
(1.20371 0.0725231 4.85694e-20)
(1.20039 0.0672563 -2.31225e-20)
(1.19703 0.0620503 1.03865e-20)
(1.19362 0.0569804 0)
(1.19027 0.0514271 9.5587e-21)
(0.015138 -0.00228689 2.49934e-20)
(0.0832169 -0.00779597 -5.05583e-20)
(0.186877 -0.0052647 2.36302e-20)
(0.319223 0.00451404 -1.18042e-21)
(0.470926 0.0210384 -4.22988e-20)
(0.630057 0.0429599 1.9535e-20)
(0.783729 0.0678013 -3.70705e-20)
(0.920772 0.0926622 0)
(1.03391 0.115025 -3.21786e-20)
(1.12048 0.133257 -1.51096e-20)
(1.18178 0.146719 0)
(1.22169 0.155579 -2.5981e-20)
(1.24511 0.160507 0)
(1.25688 0.162365 6.62253e-20)
(1.26103 0.161994 -4.20909e-20)
(1.26063 0.160087 1.9361e-20)
(1.25772 0.157159 3.51864e-20)
(1.2536 0.153558 -9.66525e-22)
(1.24901 0.149505 -1.60656e-20)
(1.24432 0.145134 0)
(1.23972 0.140526 -1.31534e-20)
(1.23528 0.135732 -1.26306e-20)
(1.23101 0.130788 0)
(1.22692 0.12572 0)
(1.223 0.120551 -1.02697e-20)
(1.21922 0.115304 -2.79225e-20)
(1.21557 0.109997 5.34727e-20)
(1.21204 0.104651 0)
(1.20862 0.0992809 3.05697e-20)
(1.20526 0.0939046 0)
(1.20195 0.0885362 1.36522e-20)
(1.19866 0.0831887 0)
(1.19536 0.0778732 1.10072e-20)
(1.19203 0.0726025 -3.2504e-20)
(1.18867 0.0673983 -1.03902e-20)
(1.1853 0.0622555 0)
(1.18197 0.0569112 0)
(0.0239591 -0.00326606 2.63231e-20)
(0.111044 -0.0084055 2.53831e-20)
(0.234141 -0.0026975 0)
(0.384097 0.0119176 2.25886e-20)
(0.54875 0.0337815 -2.08766e-20)
(0.713798 0.0603922 4.07917e-20)
(0.865536 0.0883791 -1.86047e-20)
(0.993887 0.114487 5.26845e-20)
(1.094 0.136391 -9.80408e-22)
(1.166 0.152987 -1.56929e-20)
(1.21346 0.164242 1.40154e-20)
(1.24165 0.170821 0)
(1.25605 0.173706 2.35426e-20)
(1.26136 0.173899 -5.55166e-20)
(1.26119 0.172247 2.0813e-20)
(1.25802 0.169385 3.72331e-20)
(1.2534 0.165746 -1.82981e-20)
(1.24821 0.161603 3.19542e-20)
(1.24293 0.157119 -6.06526e-20)
(1.23776 0.152392 -2.75061e-20)
(1.2328 0.14748 7.77828e-20)
(1.22807 0.14242 -1.26193e-20)
(1.22356 0.137243 0)
(1.21926 0.13197 0)
(1.21516 0.126623 1.91131e-20)
(1.21123 0.121222 -9.71731e-21)
(1.20747 0.115783 -8.83132e-21)
(1.20386 0.110324 -7.63967e-21)
(1.20036 0.10486 -1.4937e-20)
(1.19695 0.0994047 -2.01954e-20)
(1.1936 0.0939703 1.952e-20)
(1.19028 0.0885669 0)
(1.18697 0.0832043 -5.35076e-21)
(1.18364 0.0778954 5.8018e-22)
(1.18031 0.0726512 0)
(1.17699 0.0674339 0)
(1.17371 0.0622426 8.05688e-21)
(0.0342119 -0.00375603 -1.31678e-20)
(0.142111 -0.00735387 2.63288e-20)
(0.285109 0.00265359 -2.51642e-20)
(0.451485 0.0228866 0)
(0.626245 0.0502733 -2.181e-20)
(0.793366 0.0811068 2.039e-20)
(0.939435 0.11133 1.84196e-20)
(1.05649 0.137667 -1.85094e-20)
(1.14258 0.158273 0)
(1.20049 0.172711 0)
(1.23563 0.181549 -1.40225e-20)
(1.2541 0.18587 0)
(1.26143 0.18686 0)
(1.26197 0.185567 -2.18503e-20)
(1.25875 0.18279 -9.98134e-21)
(1.2537 0.17908 2.74442e-20)
(1.24792 0.174787 -4.32694e-20)
(1.242 0.170118 0)
(1.23622 0.165194 3.64476e-20)
(1.23069 0.160084 -9.0329e-22)
(1.22544 0.154832 -3.82847e-20)
(1.22047 0.14947 2.24762e-20)
(1.21576 0.14402 -6.78632e-22)
(1.21129 0.138505 -3.01363e-20)
(1.20705 0.132941 -1.83125e-20)
(1.20301 0.127348 5.1956e-22)
(1.19917 0.121741 1.59066e-20)
(1.19548 0.116134 -7.06109e-21)
(1.19194 0.11054 4.05627e-22)
(1.18849 0.104971 -1.25301e-20)
(1.18512 0.0994363 4.20421e-20)
(1.18179 0.0939439 -6.44668e-22)
(1.17847 0.0885026 -1.57619e-20)
(1.17516 0.0831236 -9.12421e-21)
(1.17187 0.0778054 1.82993e-20)
(1.16862 0.072514 0)
(1.16541 0.0674162 -8.06374e-21)
(0.0458407 -0.00359676 2.7335e-20)
(0.176013 -0.00428883 0)
(0.338802 0.0111416 0)
(0.519757 0.037592 0)
(0.701388 0.0703986 0)
(0.866901 0.104743 0)
(1.00431 0.136202 0)
(1.1085 0.161826 0)
(1.18055 0.180463 0)
(1.22552 0.192399 -1.52159e-20)
(1.2501 0.198746 -1.39224e-20)
(1.26074 0.200896 0)
(1.2627 0.200142 0)
(1.25978 0.197508 1.08574e-20)
(1.25442 0.193712 2.93992e-20)
(1.24808 0.189212 -3.66318e-20)
(1.2415 0.184282 2.55555e-20)
(1.23506 0.179077 0)
(1.22892 0.173685 7.21818e-21)
(1.2231 0.168157 0)
(1.21762 0.162529 1.19138e-20)
(1.21246 0.156824 -2.83101e-20)
(1.20758 0.151065 -1.5319e-20)
(1.20298 0.14527 2.93224e-20)
(1.19864 0.139454 1.31563e-20)
(1.19452 0.133634 -2.07647e-20)
(1.19062 0.127824 -7.83343e-21)
(1.18689 0.122036 0)
(1.18332 0.11628 1.29607e-20)
(1.17987 0.110566 -2.59909e-23)
(1.17649 0.1049 -1.15294e-20)
(1.17316 0.0992889 0)
(1.16986 0.0937405 0)
(1.16658 0.0882616 0)
(1.16335 0.0828422 -4.09632e-21)
(1.16018 0.0774764 1.15658e-20)
(1.15706 0.0724085 -7.43853e-21)
(0.0587215 -0.00263224 0)
(0.212181 0.00109751 0)
(0.394058 0.0230166 0)
(0.587232 0.0560581 -1.22375e-20)
(0.772378 0.093911 3.06411e-22)
(0.933054 0.130886 -1.01941e-20)
(1.05968 0.162578 4.94983e-20)
(1.15038 0.186671 -9.86067e-21)
(1.20906 0.202838 -2.53303e-20)
(1.2426 0.212073 1.52265e-20)
(1.25842 0.215943 1.39324e-20)
(1.2629 0.216037 0)
(1.26085 0.213674 1.13308e-20)
(1.25545 0.209805 -1.08384e-20)
(1.24861 0.205051 0)
(1.24137 0.199781 -2.90714e-22)
(1.23424 0.194205 -1.2338e-20)
(1.22742 0.188437 0)
(1.22099 0.182541 1.34994e-20)
(1.21495 0.176558 -1.29191e-20)
(1.20929 0.170514 1.14518e-20)
(1.20398 0.16443 5.09127e-21)
(1.19899 0.158325 -2.00258e-20)
(1.19429 0.152215 0)
(1.18987 0.146114 4.34022e-21)
(1.18571 0.140036 4.01847e-21)
(1.18177 0.133992 0)
(1.17804 0.127993 -6.60122e-21)
(1.17447 0.122046 6.32205e-21)
(1.17102 0.116159 5.93737e-21)
(1.16765 0.110336 0)
(1.16435 0.104582 9.75497e-21)
(1.16108 0.0989028 1.92672e-21)
(1.15786 0.0932996 -8.67245e-21)
(1.1547 0.0877611 -1.79096e-21)
(1.15162 0.0823196 -1.80415e-21)
(1.1486 0.0772155 8.588e-21)
(0.072661 -0.000717124 3.73993e-21)
(0.249906 0.00905665 1.44025e-20)
(0.449604 0.038418 6.56635e-21)
(0.652293 0.0781729 -1.89009e-20)
(0.837734 0.120464 1.19418e-20)
(0.990967 0.159096 -1.06658e-20)
(1.10553 0.190081 5.25403e-21)
(1.18285 0.211972 9.1106e-21)
(1.22929 0.225327 1.24621e-20)
(1.25302 0.231778 0)
(1.26173 0.233236 6.7073e-21)
(1.26148 0.231395 -6.41476e-21)
(1.25648 0.22753 0)
(1.24932 0.222496 2.55736e-21)
(1.24145 0.216811 0)
(1.23359 0.210765 0)
(1.22606 0.204517 -3.71876e-21)
(1.21897 0.198151 5.62727e-21)
(1.21233 0.191713 -6.49557e-21)
(1.20613 0.185235 6.21637e-21)
(1.20033 0.178737 0)
(1.19491 0.172239 0)
(1.18984 0.165754 1.17862e-20)
(1.18509 0.159298 -2.32625e-21)
(1.18064 0.152881 -1.94771e-21)
(1.17646 0.146516 0)
(1.17253 0.14021 -3.35993e-21)
(1.16881 0.133974 6.32246e-21)
(1.16526 0.12781 -1.56347e-21)
(1.16184 0.121725 0)
(1.15852 0.115721 0)
(1.15526 0.109802 1.114e-21)
(1.15206 0.10397 -1.19107e-21)
(1.14891 0.0982244 0)
(1.14584 0.092559 -1.02763e-21)
(1.14286 0.0870399 -9.5471e-22)
(1.13996 0.0818377 -1.64644e-21)
(0.087441 0.00228526 -3.67944e-21)
(0.288442 0.0197833 0)
(0.504225 0.0573705 0)
(0.713562 0.103699 -6.39479e-21)
(0.896392 0.149641 -2.93256e-21)
(1.04023 0.188946 2.80319e-21)
(1.14215 0.218398 -5.00724e-21)
(1.2067 0.237577 0)
(1.24224 0.247909 -4.1459e-21)
(1.25773 0.251571 0)
(1.26078 0.250707 1.64878e-21)
(1.25695 0.247033 -3.07107e-21)
(1.24981 0.241742 2.78477e-21)
(1.24142 0.235577 -2.62508e-21)
(1.23284 0.228959 -1.17807e-21)
(1.22456 0.222115 0)
(1.21676 0.215159 0)
(1.20947 0.208155 1.77401e-21)
(1.2027 0.201135 0)
(1.19639 0.194123 7.10762e-22)
(1.19052 0.187137 -2.90653e-23)
(1.18504 0.180191 -2.60575e-23)
(1.17994 0.173296 -2.32555e-21)
(1.17518 0.166464 -2.6426e-21)
(1.17074 0.159704 1.94967e-21)
(1.16658 0.153026 0)
(1.16269 0.146434 0)
(1.15902 0.139937 0)
(1.15553 0.133533 -1.41153e-21)
(1.15217 0.127228 0)
(1.14892 0.121023 0)
(1.14574 0.114917 -5.88371e-22)
(1.14262 0.108913 -1.53654e-21)
(1.13957 0.103008 -4.50551e-22)
(1.13662 0.0972102 -4.53015e-22)
(1.13378 0.0916049 -8.19422e-22)
(1.13104 0.0862611 0)
(-0.00339092 0.0302096 -2.08311e-21)
(-0.0159947 0.0697469 0)
(-0.0381981 0.0946308 0)
(-0.0649365 0.109402 -3.96528e-21)
(-0.0935987 0.117651 1.91223e-21)
(-0.122949 0.122055 -1.82825e-21)
(-0.152251 0.124396 -3.62605e-21)
(-0.181114 0.125702 0)
(-0.209372 0.126474 -3.4692e-21)
(-0.236964 0.126898 0)
(-0.263868 0.127006 -1.68464e-21)
(-0.290064 0.12677 1.61124e-21)
(-0.315528 0.126147 -1.64103e-21)
(-0.340228 0.125096 -3.2751e-21)
(-0.364122 0.123584 1.55174e-21)
(-0.387163 0.121584 0)
(-0.409302 0.119079 0)
(-0.430485 0.116062 3.08617e-21)
(-0.450657 0.112531 0)
(-0.469763 0.10849 -1.51546e-21)
(-0.487751 0.103951 -4.47514e-23)
(-0.50457 0.0989314 -4.22781e-23)
(-0.520172 0.0934545 -5.82355e-21)
(-0.534514 0.0875483 -4.30027e-21)
(-0.547555 0.081245 5.58528e-21)
(-0.559261 0.0745812 0)
(-0.569602 0.0675962 0)
(-0.578556 0.0603318 0)
(-0.586104 0.052832 -5.09502e-21)
(-0.592236 0.0451453 0)
(-0.596949 0.0373155 0)
(-0.600245 0.0293885 -6.96168e-21)
(-0.602136 0.0214036 -2.27802e-21)
(-0.602644 0.0133885 2.14458e-21)
(-0.601803 0.00535993 -6.21307e-21)
(-0.599688 -0.00265494 -3.98708e-21)
(-0.596321 -0.0106428 0)
(-0.00457208 0.0382062 6.32653e-21)
(-0.0175371 0.0888297 -8.60306e-21)
(-0.0381963 0.121017 -4.20813e-21)
(-0.0626689 0.140277 1.99945e-20)
(-0.0888564 0.151014 -7.70324e-21)
(-0.115691 0.15659 7.58627e-21)
(-0.142479 0.15932 -1.10325e-20)
(-0.168814 0.160592 7.22682e-21)
(-0.19449 0.161117 1.05421e-20)
(-0.219411 0.161186 6.97121e-21)
(-0.243525 0.160868 -1.3532e-20)
(-0.266792 0.160142 6.56585e-21)
(-0.289173 0.158958 0)
(-0.310624 0.157266 9.83058e-21)
(-0.331096 0.155021 -6.32412e-21)
(-0.350537 0.152193 0)
(-0.368891 0.148759 1.91602e-20)
(-0.386105 0.144706 -1.53328e-20)
(-0.402123 0.140032 0)
(-0.416895 0.134741 0)
(-0.430371 0.128846 0)
(-0.442506 0.122369 0)
(-0.453257 0.115336 5.73595e-21)
(-0.46259 0.107779 1.70121e-20)
(-0.470472 0.0997373 -5.57927e-21)
(-0.476876 0.0912537 0)
(-0.481782 0.0823751 1.09181e-20)
(-0.485174 0.0731522 -2.11036e-20)
(-0.487043 0.0636385 1.5287e-20)
(-0.487384 0.0538905 0)
(-0.486201 0.0439665 0)
(-0.483511 0.0339256 4.64585e-21)
(-0.479335 0.0238225 -4.66376e-21)
(-0.473688 0.0137071 0)
(-0.466592 0.00364138 -4.31402e-21)
(-0.458171 -0.0062896 -4.13396e-21)
(-0.448734 -0.0160557 -7.81839e-21)
(-0.00612147 0.0443602 0)
(-0.019741 0.104303 0)
(-0.0386257 0.143259 0)
(-0.0603255 0.167096 8.24767e-21)
(-0.0833967 0.180643 9.85627e-23)
(-0.107016 0.187731 7.87464e-21)
(-0.130574 0.191105 -2.25406e-20)
(-0.153664 0.192496 -7.54259e-21)
(-0.176046 0.192844 7.05244e-21)
(-0.197581 0.192568 1.41678e-20)
(-0.218185 0.191802 1.39314e-20)
(-0.237794 0.190543 0)
(-0.256356 0.188745 0)
(-0.273815 0.186351 0)
(-0.290118 0.183314 0)
(-0.305211 0.179598 -2.62668e-20)
(-0.319041 0.175178 6.2626e-21)
(-0.331557 0.170041 0)
(-0.342713 0.164184 -2.55083e-20)
(-0.352464 0.157614 2.44114e-20)
(-0.360773 0.150348 -2.48621e-20)
(-0.367607 0.142411 1.14717e-20)
(-0.372937 0.133834 -3.20186e-22)
(-0.376742 0.124656 0)
(-0.379004 0.114921 1.15787e-20)
(-0.379711 0.10468 1.13472e-20)
(-0.378856 0.0939853 0)
(-0.376435 0.0828966 2.16873e-20)
(-0.372449 0.0714756 -2.07692e-20)
(-0.366902 0.0597877 2.0516e-20)
(-0.359804 0.0479022 0)
(-0.351175 0.0358935 -3.83678e-20)
(-0.34105 0.0238409 8.90058e-21)
(-0.329433 0.0118267 3.54409e-20)
(-0.316256 -6.05157e-05 5.97863e-20)
(-0.301575 -0.0116998 -8.38278e-21)
(-0.286247 -0.0229561 -2.36918e-20)
(-0.0078393 0.0483944 1.34778e-22)
(-0.02231 0.115493 0)
(-0.039305 0.160465 0)
(-0.0578958 0.188897 0)
(-0.0773763 0.20561 0)
(-0.0972306 0.21463 0)
(-0.116982 0.219002 0)
(-0.13625 0.220752 0)
(-0.154769 0.221058 0)
(-0.172361 0.220501 -1.41574e-20)
(-0.188905 0.219303 -1.3921e-20)
(-0.204317 0.217505 2.81179e-20)
(-0.218526 0.215075 -2.68937e-20)
(-0.231473 0.211964 1.35899e-20)
(-0.243104 0.208123 -1.36801e-20)
(-0.253367 0.203515 5.25403e-20)
(-0.262217 0.198117 -1.25222e-20)
(-0.269615 0.191916 0)
(-0.275525 0.184915 1.28335e-20)
(-0.279921 0.177123 0)
(-0.282781 0.168561 -2.52489e-20)
(-0.284089 0.159258 -1.26705e-20)
(-0.283838 0.149253 6.09434e-20)
(-0.282023 0.138587 -2.29893e-20)
(-0.278648 0.127309 -5.87431e-20)
(-0.273717 0.115475 -1.2351e-20)
(-0.267243 0.10314 2.17609e-20)
(-0.259237 0.0903664 0)
(-0.249718 0.0772197 -4.28009e-20)
(-0.238701 0.0637673 -3.08779e-22)
(-0.226207 0.0500804 3.97956e-20)
(-0.212255 0.0362377 -3.88838e-20)
(-0.196883 0.0223339 3.72486e-20)
(-0.180115 0.0084877 0)
(-0.161828 -0.00516445 -1.71702e-20)
(-0.141726 -0.0184901 -1.66423e-20)
(-0.120611 -0.0312627 3.18261e-20)
(-0.00951198 0.0502117 -2.77859e-20)
(-0.0249081 0.122024 -1.86808e-20)
(-0.0400144 0.172013 1.78569e-20)
(-0.0553516 0.204917 0)
(-0.0709606 0.225115 -1.67508e-20)
(-0.086677 0.236537 -1.61759e-20)
(-0.102202 0.242346 -1.60039e-20)
(-0.117217 0.24479 4.5401e-20)
(-0.131451 0.245277 0)
(-0.144695 0.244569 0)
(-0.156795 0.243012 -1.43829e-20)
(-0.167643 0.240717 0)
(-0.177154 0.237689 0)
(-0.185265 0.233892 -2.73329e-20)
(-0.191924 0.229287 -1.34194e-20)
(-0.197087 0.223841 -1.38896e-20)
(-0.200722 0.217534 -1.36585e-20)
(-0.202802 0.210359 0)
(-0.20331 0.202321 -3.93575e-20)
(-0.202237 0.193436 -1.58212e-21)
(-0.19958 0.18373 2.43105e-20)
(-0.195343 0.173238 -2.02104e-22)
(-0.189539 0.162 -4.94522e-20)
(-0.182184 0.150065 2.34787e-20)
(-0.173298 0.137485 0)
(-0.162906 0.124316 0)
(-0.151039 0.110619 -1.48019e-22)
(-0.137725 0.0964522 6.64168e-20)
(-0.122999 0.0818896 6.68343e-22)
(-0.106901 0.0669928 -8.29182e-20)
(-0.0894669 0.0518291 -6.09284e-20)
(-0.0707289 0.0364692 -6.67234e-22)
(-0.0507259 0.0209938 9.39556e-20)
(-0.0295314 0.00549129 1.08961e-19)
(-0.00721594 -0.00991567 -6.95995e-20)
(0.0165496 -0.0249688 0)
(0.0434982 -0.0391638 -3.1974e-20)
(-0.0109411 0.0498905 -2.50004e-22)
(-0.0271991 0.123833 1.92819e-20)
(-0.0405212 0.177588 0)
(-0.0526555 0.21462 1.77046e-20)
(-0.0643223 0.238503 5.07401e-20)
(-0.0757215 0.252774 -3.25014e-20)
(-0.0867701 0.26051 4.79411e-20)
(-0.0972535 0.264067 -7.7061e-20)
(-0.106924 0.265042 -6.67401e-22)
(-0.115558 0.26439 4.39582e-20)
(-0.122976 0.262607 1.43747e-20)
(-0.129046 0.259906 0)
(-0.133672 0.256351 -2.84467e-20)
(-0.136785 0.251939 4.13217e-20)
(-0.138337 0.246647 -2.68449e-20)
(-0.138294 0.240455 0)
(-0.136636 0.233349 2.65034e-20)
(-0.133354 0.225329 -5.3406e-20)
(-0.128447 0.216407 -7.33756e-22)
(-0.121924 0.206603 5.20201e-20)
(-0.113801 0.195949 -5.06034e-20)
(-0.104102 0.184483 7.39116e-20)
(-0.0928559 0.172251 0)
(-0.080097 0.159303 0)
(-0.0658634 0.145696 -4.7765e-20)
(-0.0501977 0.131488 -2.40857e-20)
(-0.0331536 0.11674 6.73174e-20)
(-0.0147681 0.10152 -2.20227e-20)
(0.00490549 0.0858959 -4.28461e-20)
(0.0257945 0.0699344 1.04773e-19)
(0.0478437 0.0537072 -1.00593e-19)
(0.0709991 0.0372863 0)
(0.0951842 0.0207218 -1.88488e-20)
(0.120273 0.00408019 -6.0861e-23)
(0.146297 -0.0126043 0)
(0.172862 -0.0289789 0)
(0.205058 -0.0442756 3.19055e-20)
(-0.0119685 0.0476695 -1.93467e-20)
(-0.0288887 0.121181 2.18639e-22)
(-0.0406061 0.177219 -5.60391e-20)
(-0.0497715 0.217753 1.03232e-22)
(-0.0576429 0.245305 3.42312e-20)
(-0.0647538 0.262763 1.6659e-20)
(-0.0712596 0.272903 -3.20764e-20)
(-0.0770885 0.278043 0)
(-0.082055 0.279894 -3.052e-20)
(-0.0859458 0.279585 -1.4808e-20)
(-0.0885707 0.277776 2.95464e-20)
(-0.0897797 0.27481 -1.14988e-19)
(-0.0894642 0.270836 5.55461e-20)
(-0.0875506 0.265905 -2.86518e-20)
(-0.0839933 0.260028 5.38863e-20)
(-0.078768 0.253202 2.69381e-20)
(-0.0718669 0.245426 0)
(-0.063296 0.236709 -5.34012e-20)
(-0.0530728 0.22707 7.70459e-20)
(-0.0412234 0.216534 0)
(-0.0277825 0.205137 -2.52406e-20)
(-0.0127914 0.192923 -2.47194e-20)
(0.00370223 0.179939 0)
(0.0216457 0.166239 0)
(0.0409814 0.15188 -2.3392e-20)
(0.0616465 0.136924 1.16109e-19)
(0.0835725 0.121434 -4.43489e-20)
(0.106686 0.105484 0)
(0.130913 0.0891343 8.52723e-20)
(0.156164 0.0724625 0)
(0.182356 0.0555421 3.99534e-20)
(0.20937 0.0384479 0)
(0.237193 0.0212269 -1.12467e-19)
(0.265504 0.00398149 3.58367e-20)
(0.295101 -0.0133002 -3.4439e-20)