/*--------------------------------*- C++ -*----------------------------------*\
| =========                 |                                                 |
| \\      /  F ield         | OpenFOAM: The Open Source CFD Toolbox           |
|  \\    /   O peration     | Version:  2512                                  |
|   \\  /    A nd           | Website:  www.openfoam.com                      |
|    \\/     M anipulation  |                                                 |
\*---------------------------------------------------------------------------*/
FoamFile
{
    version     2.0;
    format      ascii;
    arch        "LSB;label=32;scalar=64";
    class       volVectorField;
    location    "1.3";
    object      U;
}
// * * * * * * * * * * * * * * * * * * * * * * * * * * * * * * * * * * * * * //

dimensions      [0 1 -1 0 0 0 0];

internalField   nonuniform List<vector> 
13248
(
(-0.0155954 0.0167952 6.28511e-20)
(-0.0224923 0.0308979 0)
(-0.0086377 0.0323432 -1.09675e-19)
(0.023293 0.0250357 1.01551e-19)
(0.0735482 0.0123472 9.4483e-20)
(0.143607 -0.00358025 0)
(0.23459 -0.0213019 0)
(0.345809 -0.0395503 2.26353e-19)
(0.473525 -0.0570389 -1.46925e-21)
(0.610694 -0.0725481 -1.92128e-19)
(0.747967 -0.0851435 1.7079e-19)
(0.875563 -0.0943073 -1.05768e-19)
(0.985202 -0.0999324 0)
(1.07148 -0.102233 -1.53285e-19)
(1.13243 -0.101589 2.73695e-19)
(1.16921 -0.0984953 -6.48944e-20)
(1.18553 -0.0932812 -9.24829e-20)
(1.18608 -0.0865261 8.62264e-20)
(1.17651 -0.0781065 0)
(1.16121 -0.0689812 0)
(1.14394 -0.058298 0)
(1.12798 -0.0474114 0)
(1.11367 -0.0366281 1.4732e-20)
(1.1017 -0.0237996 3.98847e-20)
(-0.0132277 0.012354 -1.88973e-19)
(-0.0146518 0.0218279 1.19169e-19)
(0.00880908 0.0215167 -1.72112e-22)
(0.0558878 0.0138883 -1.52984e-19)
(0.12746 0.00189406 -9.43504e-20)
(0.224676 -0.0120315 -8.73022e-20)
(0.346751 -0.0259287 -1.61438e-19)
(0.488972 -0.0382481 1.48809e-19)
(0.642135 -0.0479661 0)
(0.794055 -0.0547232 1.871e-21)
(0.932393 -0.0587777 2.41365e-21)
(1.04738 -0.0607484 1.0205e-19)
(1.13351 -0.0613154 0)
(1.1899 -0.0609805 0)
(1.21956 -0.0599951 9.3704e-20)
(1.22814 -0.0583273 -1.74315e-19)
(1.22214 -0.0558426 9.03309e-20)
(1.20789 -0.0523492 -8.42218e-20)
(1.19027 -0.0475886 -3.32243e-20)
(1.17248 -0.0419502 -5.22824e-20)
(1.15684 -0.0344185 -1.7353e-20)
(1.14315 -0.0276488 -3.02507e-20)
(1.13291 -0.0175416 5.10718e-20)
(1.12182 -0.0125661 1.28073e-20)
(-0.0106813 0.00843263 0)
(-0.00369649 0.0121509 0)
(0.0336144 0.00882653 5.49493e-20)
(0.101439 0.000497236 5.06118e-20)
(0.200891 -0.00989787 -3.73488e-22)
(0.331143 -0.0196099 -8.70325e-20)
(0.486384 -0.0266533 0)
(0.654754 -0.0301426 -7.40677e-20)
(0.820549 -0.0303902 6.62699e-20)
(0.968465 -0.0285856 -1.72726e-21)
(1.08738 -0.0261827 -1.08203e-19)
(1.17225 -0.0243295 -9.30905e-20)
(1.22397 -0.0235582 5.32502e-21)
(1.2479 -0.0237823 -6.51856e-20)
(1.25165 -0.0244817 1.63337e-19)
(1.24294 -0.0249989 0)
(1.22813 -0.024758 -8.8211e-20)
(1.21153 -0.0233854 4.34941e-20)
(1.19537 -0.0207915 3.31894e-20)
(1.18086 -0.017038 0)
(1.16762 -0.0122876 2.30685e-20)
(1.15627 -0.00720457 -7.34275e-20)
(1.14536 -0.00128625 6.8569e-20)
(1.13561 0.00206229 3.63623e-20)
(-0.00761059 0.00513678 -6.4381e-20)
(0.0119808 0.00309337 -6.10952e-20)
(0.0694084 -0.00310876 5.55858e-20)
(0.165411 -0.011168 0)
(0.299512 -0.0177885 0)
(0.465349 -0.0203561 7.512e-23)
(0.648347 -0.0179984 0)
(0.828576 -0.0117729 -2.14879e-19)
(0.987052 -0.00396041 1.95265e-19)
(1.11108 0.0030546 -2.36996e-19)
(1.1963 0.00767616 5.31125e-20)
(1.24571 0.00943684 0)
(1.26694 0.00882799 7.79826e-20)
(1.26916 0.00685676 -1.40269e-19)
(1.26054 0.00457811 3.32253e-20)
(1.24694 0.00278344 7.47588e-20)
(1.23179 0.00192261 -7.61627e-21)
(1.21661 0.00208391 -7.9372e-20)
(1.2021 0.003289 0)
(1.18822 0.00513509 0)
(1.17544 0.00802553 -2.33765e-20)
(1.16349 0.0103706 1.97881e-20)
(1.15307 0.0147144 6.28719e-20)
(1.14288 0.01509 -5.86988e-20)
(-0.00304961 0.00220995 -6.59087e-20)
(0.0347391 -0.00494513 -6.14082e-20)
(0.119779 -0.0125635 1.70157e-19)
(0.251396 -0.0178652 -1.03039e-19)
(0.423729 -0.0175655 9.54466e-20)
(0.620329 -0.0103912 1.72707e-19)
(0.816469 0.00193276 -1.19033e-19)
(0.988198 0.0158357 -1.39225e-19)
(1.12031 0.0278072 4.8978e-21)
(1.20878 0.0357292 1.74279e-19)
(1.25854 0.039201 0)
(1.27931 0.0390991 4.35024e-20)
(1.28146 0.0368388 0)
(1.27337 0.0337444 -6.51829e-20)
(1.26051 0.0307272 9.04921e-20)
(1.24587 0.0282737 8.31623e-22)
(1.23082 0.0265379 -2.14599e-20)
(1.21609 0.0255686 3.78658e-20)
(1.20199 0.0252453 3.16915e-20)
(1.18896 0.0256167 -2.71284e-20)
(1.17703 0.026486 2.33654e-20)
(1.16656 0.027546 -1.97786e-20)
(1.15701 0.0297965 0)
(1.1484 0.0287559 -1.41805e-20)
(0.0041794 -0.000666656 6.58922e-20)
(0.0670286 -0.0117488 6.30777e-20)
(0.187244 -0.0181203 -5.68241e-20)
(0.359447 -0.0171298 1.03986e-19)
(0.567162 -0.00680396 -9.63203e-20)
(0.781143 0.0109322 8.56791e-20)
(0.970647 0.0310472 -4.0149e-20)
(1.11595 0.0485164 1.04741e-19)
(1.21218 0.0604322 -6.39089e-20)
(1.26576 0.0663363 1.07812e-19)
(1.28828 0.0674243 -2.42887e-19)
(1.29139 0.0654722 8.65852e-20)
(1.28399 0.062054 -7.22906e-20)
(1.27164 0.0582288 6.72973e-20)
(1.25736 0.0545838 5.4525e-20)
(1.24266 0.0513908 4.52754e-20)
(1.2283 0.0487801 -1.24693e-19)
(1.21463 0.0467681 7.58943e-20)
(1.20191 0.0453777 -3.16858e-20)
(1.19012 0.0445033 7.87e-20)
(1.17932 0.0441266 -2.5375e-20)
(1.16932 0.0439227 -5.71077e-20)
(1.16007 0.044518 5.17691e-20)
(1.15144 0.0426143 1.41757e-20)
(0.0151851 -0.0034964 0)
(0.110725 -0.0166535 2.47453e-22)
(0.272424 -0.0182004 1.15834e-19)
(0.485364 -0.00707347 -1.07024e-19)
(0.71787 0.0149922 -9.51109e-20)
(0.930749 0.0415628 1.73584e-19)
(1.09635 0.0654816 -7.92334e-20)
(1.20652 0.082483 1.0239e-19)
(1.26816 0.0917552 -3.15835e-21)
(1.29472 0.0947243 -5.53419e-20)
(1.29959 0.093556 1.16357e-19)
(1.29282 0.090161 -1.67795e-19)
(1.28065 0.0858434 0)
(1.26649 0.0813593 -3.07876e-20)
(1.25195 0.0771009 -7.93949e-20)
(1.23778 0.0732595 2.50072e-20)
(1.22422 0.069901 1.44699e-21)
(1.21139 0.0670397 -4.86408e-20)
(1.19928 0.0646251 4.85831e-21)
(1.18795 0.0626384 5.46758e-20)
(1.17739 0.0609571 -2.27623e-20)
(1.1677 0.0596008 -8.02156e-21)
(1.15872 0.0586304 2.60921e-20)
(1.15045 0.0560967 0)
(0.0308503 -0.00591622 0)
(0.166797 -0.0183437 3.17148e-20)
(0.373484 -0.0108459 -1.48663e-19)
(0.620942 0.0134366 5.32365e-20)
(0.862086 0.0465422 -4.93113e-20)
(1.05679 0.0782931 -4.34535e-20)
(1.18925 0.102018 -7.52985e-20)
(1.2648 0.115966 3.73587e-20)
(1.29864 0.121638 3.19983e-20)
(1.30662 0.121687 0)
(1.30084 0.118537 6.75847e-20)
(1.28882 0.113882 -9.75659e-20)
(1.2746 0.108716 7.19355e-20)
(1.26002 0.103555 3.08006e-20)
(1.24579 0.0986403 -2.39898e-20)
(1.23213 0.094071 -1.90238e-20)
(1.21914 0.0898851 -1.71575e-20)
(1.20685 0.0860879 5.28442e-20)
(1.19535 0.0826863 0)
(1.18468 0.0796482 2.44277e-20)
(1.17484 0.0769647 1.92118e-20)
(1.16572 0.0746299 -4.87399e-20)
(1.15717 0.0723916 -3.11364e-20)
(1.14926 0.0696696 2.88334e-20)
(0.0517187 -0.00726075 -3.5774e-20)
(0.234878 -0.0149912 -8.0956e-22)
(0.4858 0.00580718 3.00247e-20)
(0.755758 0.0442767 8.14922e-20)
(0.988864 0.0854825 2.26316e-20)
(1.1546 0.118345 -4.33431e-20)
(1.25259 0.139 3.92815e-20)
(1.29884 0.148668 -3.37536e-20)
(1.31239 0.150589 5.83781e-20)
(1.30845 0.147957 2.42549e-20)
(1.29665 0.143065 -6.7626e-20)
(1.2821 0.137261 1.96184e-20)
(1.26707 0.131231 3.24095e-20)
(1.25241 0.125289 -1.59225e-20)
(1.23839 0.119579 0)
(1.22509 0.114175 2.23421e-20)
(1.21257 0.10912 3.65732e-20)
(1.20084 0.104434 5.52268e-21)
(1.1899 0.100116 -2.94821e-20)
(1.17971 0.0961484 1.19404e-20)
(1.17018 0.0925121 0)
(1.16124 0.0891624 -8.85287e-21)
(1.15282 0.0858587 -7.91989e-21)
(1.14491 0.0828474 0)
(0.0778879 -0.0066841 0)
(0.312979 -0.00467614 1.72514e-20)
(0.602457 0.0327892 3.13382e-20)
(0.88014 0.0840941 -8.20778e-20)
(1.0925 0.129407 2.58508e-20)
(1.2253 0.159999 0)
(1.29221 0.175871 3.65748e-20)
(1.31572 0.180837 -5.01503e-20)
(1.31542 0.179176 -2.88516e-20)
(1.30426 0.174122 1.29523e-20)
(1.28923 0.167601 -1.96274e-20)
(1.27344 0.160588 4.76227e-20)
(1.25809 0.153529 2.32559e-20)
(1.24352 0.146625 -1.62718e-20)
(1.2298 0.13998 -1.7632e-21)
(1.21692 0.13365 -4.19618e-20)
(1.20487 0.127667 1.8833e-20)
(1.1936 0.122044 -4.01825e-22)
(1.18312 0.11678 0)
(1.17337 0.111871 -1.19521e-20)
(1.1643 0.107317 0)
(1.1558 0.103031 2.54996e-20)
(1.14782 0.098897 -2.98185e-20)
(1.14028 0.0955955 1.33345e-20)
(0.10891 -0.00328228 -9.53707e-21)
(0.397526 0.0141479 -4.30991e-20)
(0.715726 0.0699396 4.79306e-20)
(0.987376 0.130965 2.74044e-20)
(1.17174 0.17648 -1.30876e-20)
(1.27238 0.202393 2.07493e-20)
(1.31354 0.212617 -1.00858e-20)
(1.32045 0.212885 1.62218e-20)
(1.31114 0.207889 0)
(1.29577 0.200553 3.51878e-20)
(1.27903 0.192369 -1.52056e-21)
(1.2627 0.184007 -2.761e-20)
(1.24731 0.175756 1.16232e-20)
(1.23292 0.167745 -1.28389e-20)
(1.21949 0.160039 -4.71258e-21)
(1.20696 0.152679 5.52391e-21)
(1.1953 0.145692 -4.15153e-21)
(1.1845 0.139095 -2.19078e-20)
(1.17452 0.132892 1.33195e-20)
(1.16526 0.127087 2.65859e-21)
(1.15661 0.121654 2.28822e-21)
(1.14846 0.116484 1.96771e-21)
(1.14073 0.111643 0)
(1.13328 0.107796 0)
(0.143831 0.00379701 9.54865e-21)
(0.483888 0.0423355 -8.86087e-21)
(0.818849 0.116156 -1.59259e-20)
(1.07401 0.183026 0)
(1.22775 0.225497 -6.39527e-21)
(1.29965 0.245174 -5.49024e-21)
(1.32064 0.249405 -9.17625e-21)
(1.31597 0.245125 0)
(1.30105 0.236948 0)
(1.28334 0.227328 0)
(1.26581 0.217356 0)
(1.24934 0.207465 0)
(1.23407 0.197837 -7.25963e-21)
(1.21995 0.188547 3.26813e-21)
(1.20688 0.179642 5.58442e-21)
(1.1948 0.171153 2.57445e-21)
(1.18365 0.163096 6.25025e-21)
(1.17338 0.155477 0)
(1.16392 0.148299 -1.43348e-21)
(1.15518 0.141563 -1.32535e-21)
(1.14704 0.135227 -2.2918e-21)
(1.13942 0.129214 -1.97079e-21)
(1.1322 0.123725 0)
(1.12528 0.119167 1.33939e-21)
(0.0027477 -0.0921898 6.62163e-21)
(0.00310139 -0.230604 -6.29526e-21)
(-0.0079438 -0.321524 -1.16534e-20)
(-0.0278558 -0.374348 0)
(-0.0524665 -0.405658 -1.51368e-20)
(-0.0783298 -0.429474 4.69628e-21)
(-0.103271 -0.453153 -8.87123e-21)
(-0.126125 -0.478256 0)
(-0.146168 -0.503271 0)
(-0.162705 -0.52567 0)
(-0.174946 -0.542806 0)
(-0.182043 -0.552176 0)
(-0.183194 -0.551556 2.5923e-22)
(-0.177757 -0.539148 -6.52946e-21)
(-0.165372 -0.513755 1.25689e-20)
(-0.146063 -0.474928 1.84589e-20)
(-0.120263 -0.422742 5.67957e-21)
(-0.088793 -0.35822 0)
(-0.0528815 -0.282699 5.57701e-21)
(-0.0140975 -0.197651 -1.51415e-20)
(0.026973 -0.104353 -9.29934e-21)
(0.0687853 -0.00361457 -8.6316e-21)
(0.107929 0.104364 0)
(0.149197 0.218939 0)
(0.00593783 -0.086242 -1.98091e-20)
(0.00685145 -0.21283 3.13735e-20)
(-0.00949491 -0.293573 -1.15828e-20)
(-0.0360179 -0.339606 -2.1626e-20)
(-0.0670076 -0.367678 3.00998e-20)
(-0.0989408 -0.391009 -1.8943e-20)
(-0.130016 -0.41594 2.64354e-20)
(-0.159476 -0.44345 1.6705e-20)
(-0.186888 -0.47196 0)
(-0.211729 -0.499148 -1.55846e-20)
(-0.233289 -0.522593 -8.18988e-22)
(-0.250725 -0.539919 1.35944e-20)
(-0.263154 -0.548876 1.97504e-20)
(-0.269757 -0.547465 2.58173e-20)
(-0.269895 -0.534086 -1.18694e-20)
(-0.263203 -0.507662 -3.5122e-20)
(-0.249655 -0.467719 1.08839e-20)
(-0.229633 -0.414417 -4.08902e-20)
(-0.203903 -0.348445 0)
(-0.173499 -0.270854 9.92857e-21)
(-0.139447 -0.182807 9.28953e-21)
(-0.102665 -0.0858653 8.62231e-21)
(-0.0658096 0.0194165 0)
(-0.028046 0.131789 0)
(0.00767804 -0.0742485 0)
(0.00825917 -0.184687 6.25228e-20)
(-0.0122638 -0.25536 -2.31472e-20)
(-0.0433368 -0.295973 2.16267e-20)
(-0.0782948 -0.321831 -6.02309e-20)
(-0.113719 -0.344805 0)
(-0.148153 -0.370375 -3.565e-20)
(-0.18118 -0.399299 1.6404e-20)
(-0.212638 -0.430211 -3.15771e-20)
(-0.242221 -0.461147 1.48268e-20)
(-0.269409 -0.49001 8.53892e-20)
(-0.293506 -0.514639 -3.95788e-20)
(-0.313716 -0.532855 -6.43543e-20)
(-0.329215 -0.54256 -2.42755e-20)
(-0.339241 -0.541879 -5.3688e-22)
(-0.343175 -0.529289 8.5555e-20)
(-0.34061 -0.50374 -4.00164e-20)
(-0.331411 -0.464703 2.46776e-21)
(-0.315763 -0.41218 0)
(-0.294153 -0.346677 -2.89138e-20)
(-0.267161 -0.26916 0)
(-0.235312 -0.180878 -2.84809e-20)
(-0.199574 -0.0828109 9.42279e-20)
(-0.164469 0.0242225 -2.45091e-21)
(0.00743393 -0.0578769 0)
(0.00683753 -0.14951 1.4042e-22)
(-0.0163015 -0.210581 2.33806e-20)
(-0.0495777 -0.246935 -2.18784e-20)
(-0.0859493 -0.271251 1.97795e-20)
(-0.122126 -0.29377 1.14018e-19)
(-0.156837 -0.319245 -3.5382e-20)
(-0.189841 -0.348382 -3.37742e-20)
(-0.221139 -0.380106 6.33525e-20)
(-0.25062 -0.412846 -8.97499e-20)
(-0.278003 -0.444898 2.75509e-20)
(-0.302882 -0.474446 2.6258e-20)
(-0.324764 -0.499571 0)
(-0.343108 -0.518316 2.35256e-20)
(-0.357354 -0.528787 0)
(-0.366957 -0.529272 3.76479e-20)
(-0.371404 -0.518354 -7.04855e-20)
(-0.370252 -0.494987 1.95383e-20)
(-0.363225 -0.458552 5.93206e-20)
(-0.3503 -0.408891 2.88941e-20)
(-0.331488 -0.346275 0)
(-0.306288 -0.271191 -6.14453e-20)
(-0.274841 -0.183923 2.17014e-20)
(-0.244518 -0.0858222 0)
(0.0050728 -0.039175 0)
(0.00257505 -0.1107 -7.57202e-20)
(-0.0214605 -0.162588 -2.39386e-20)
(-0.0545633 -0.195482 -4.40231e-20)
(-0.0898595 -0.218753 4.07946e-20)
(-0.124182 -0.240872 -3.81653e-20)
(-0.156291 -0.265974 7.27586e-20)
(-0.18593 -0.294808 3.46429e-20)
(-0.213098 -0.326571 -9.53325e-20)
(-0.237719 -0.359978 6.025e-20)
(-0.259631 -0.393578 -8.39395e-20)
(-0.278649 -0.425789 1.82916e-19)
(-0.294615 -0.454907 -9.70852e-20)
(-0.307418 -0.479169 4.4026e-20)
(-0.316997 -0.496846 1.18738e-19)
(-0.323299 -0.506343 -4.07554e-20)
(-0.326215 -0.50628 -3.4366e-20)
(-0.325529 -0.495549 -3.15261e-20)
(-0.320971 -0.473352 0)
(-0.312338 -0.439212 -3.87892e-20)
(-0.29939 -0.392763 -2.77761e-20)
(-0.280784 -0.333408 4.81859e-20)
(-0.254767 -0.260336 4.58192e-20)
(-0.222413 -0.175743 -3.77954e-20)
(0.000898687 -0.020303 0)
(-0.00400965 -0.0716384 -1.03302e-19)
(-0.0272149 -0.114582 -1.00417e-21)
(-0.0578257 -0.144351 8.89234e-20)
(-0.0896226 -0.166758 0)
(-0.119573 -0.188433 0)
(-0.146352 -0.212956 0)
(-0.169558 -0.241174 -3.46753e-20)
(-0.18906 -0.272549 -6.34884e-22)
(-0.204705 -0.306022 6.09217e-20)
(-0.216326 -0.34028 -8.43323e-20)
(-0.22383 -0.373811 6.38838e-23)
(-0.227271 -0.404939 0)
(-0.226885 -0.431914 -4.4006e-20)
(-0.223086 -0.45304 3.60646e-20)
(-0.216395 -0.466818 -1.0409e-19)
(-0.207333 -0.472031 1.15367e-19)
(-0.196278 -0.467781 1.47243e-20)
(-0.183496 -0.453505 -1.13573e-20)
(-0.16903 -0.429133 -7.0637e-20)
(-0.152937 -0.394645 -2.21506e-20)
(-0.132716 -0.349267 5.85764e-20)
(-0.114657 -0.290689 -3.07931e-20)
(-0.0657257 -0.221019 0)
(-0.00442082 -0.00321767 5.54285e-20)
(-0.0119213 -0.0354024 5.18405e-20)
(-0.0326264 -0.0694655 -4.95456e-20)
(-0.0584961 -0.096011 -9.2019e-20)
(-0.0843364 -0.117443 8.52683e-20)
(-0.107259 -0.138523 -8.1216e-20)
(-0.125766 -0.162263 1.13824e-19)
(-0.139212 -0.189597 -3.46242e-20)
(-0.147271 -0.220237 6.66834e-20)
(-0.149684 -0.253306 0)
(-0.146287 -0.287571 5.82408e-20)
(-0.137127 -0.321501 -1.08684e-19)
(-0.122541 -0.353339 9.55704e-20)
(-0.103173 -0.381223 -8.896e-20)
(-0.0799548 -0.403343 0)
(-0.0539638 -0.418171 6.6327e-20)
(-0.026269 -0.424587 1.03082e-19)
(0.00237131 -0.421805 -9.72864e-20)
(0.0311119 -0.409391 -3.45278e-20)
(0.0598141 -0.387728 -2.21359e-20)
(0.0857929 -0.357729 6.68035e-20)
(0.123875 -0.317217 4.62065e-21)
(0.135398 -0.273839 -8.83684e-21)
(0.205361 -0.214094 1.00986e-21)
(-0.00993079 0.0103511 -5.54418e-20)
(-0.0198782 -0.00469241 1.62457e-19)
(-0.0365779 -0.0297993 -5.03819e-20)
(-0.0555456 -0.0527431 9.44903e-20)
(-0.0729049 -0.0729045 -8.75564e-20)
(-0.0859249 -0.0931647 4.19776e-22)
(-0.0928723 -0.115897 3.89582e-20)
(-0.0927924 -0.142036 1.494e-19)
(-0.0851509 -0.171457 1.04464e-21)
(-0.0696138 -0.203432 -6.33717e-20)
(-0.0461281 -0.236748 0)
(-0.0150684 -0.26981 -5.35445e-20)
(0.0226972 -0.300781 1.00129e-19)
(0.0658628 -0.327686 8.48405e-20)
(0.112714 -0.3486 -4.0965e-20)
(0.161375 -0.36201 -4.98099e-22)
(0.210037 -0.366867 -2.73006e-20)
(0.25764 -0.362419 4.25225e-20)
(0.30298 -0.34889 3.45197e-20)
(0.347671 -0.326285 -2.57197e-20)
(0.382307 -0.297037 1.66688e-20)
(0.435093 -0.2577 -1.03667e-20)
(0.445712 -0.219815 0)
(0.536109 -0.165888 -1.00857e-21)
(-0.0144463 0.0193878 5.77766e-20)
(-0.0261398 0.018436 -5.44923e-20)
(-0.0378218 0.00193147 5.20395e-20)
(-0.0483097 -0.0169862 0)
(-0.0549492 -0.0354669 0)
(-0.0553391 -0.0548002 8.73359e-20)
(-0.0476419 -0.0765491 -7.93518e-20)
(-0.0305933 -0.101457 7.66234e-20)
(-0.00357837 -0.12941 -3.51893e-19)
(0.0337121 -0.159843 1.60307e-22)
(0.0809854 -0.191449 6.07007e-20)
(0.137204 -0.222541 0)
(0.200559 -0.251209 -9.68652e-20)
(0.268696 -0.275403 1.74829e-19)
(0.338892 -0.293272 -1.1688e-19)
(0.408377 -0.30343 -1.52965e-19)
(0.474723 -0.304961 1.46245e-20)
(0.536165 -0.297569 9.05365e-20)
(0.591411 -0.281935 0)
(0.642933 -0.258164 0)
(0.681154 -0.229007 -1.66697e-20)
(0.73414 -0.19269 1.03674e-20)
(0.745298 -0.156109 -1.65484e-20)
(0.824354 -0.110849 1.5441e-20)
(-0.0173422 0.0236711 0)
(-0.0298047 0.0327938 0)
(-0.0356433 0.023991 -1.57832e-19)
(-0.0364585 0.00928631 4.8559e-20)
(-0.0308774 -0.00738707 -1.09986e-21)
(-0.0167094 -0.0258846 8.72501e-20)
(0.0079661 -0.0468416 0)
(0.0445622 -0.0706578 -7.6438e-20)
(0.093581 -0.0972983 7.08446e-20)
(0.15486 -0.126022 -1.31882e-19)
(0.227516 -0.155345 1.01634e-21)
(0.309332 -0.183547 1.08566e-19)
(0.397046 -0.208703 -4.71492e-21)
(0.486686 -0.228899 7.79697e-20)
(0.57416 -0.242575 -1.19002e-19)
(0.655863 -0.248703 0)
(0.728961 -0.246797 9.67586e-20)
(0.791731 -0.237216 -1.32035e-19)
(0.844393 -0.22046 3.27781e-20)
(0.885959 -0.197859 0)
(0.919305 -0.17055 1.88404e-20)
(0.948124 -0.139994 4.27526e-20)
(0.961259 -0.107414 -3.99209e-20)
(0.99983 -0.0733406 -2.18776e-20)
(-0.0182922 0.0238077 1.81571e-19)
(-0.0303716 0.0386329 -2.30708e-19)
(-0.0301419 0.0358373 -6.361e-22)
(-0.0207224 0.024849 4.99851e-20)
(-0.00172193 0.00985914 -9.38138e-20)
(0.0286211 -0.00784314 -8.71032e-20)
(0.0722498 -0.0281589 1.64627e-19)
(0.130425 -0.0510797 7.50253e-22)
(0.203531 -0.0762367 -1.42614e-19)
(0.2905 -0.102516 2.62897e-19)
(0.388781 -0.128443 -1.78882e-21)
(0.494148 -0.152286 -1.1098e-19)
(0.601198 -0.172314 0)
(0.704185 -0.187057 0)
(0.797926 -0.195517 -3.70733e-20)
(0.878591 -0.197288 -6.09615e-20)
(0.943842 -0.192527 -9.58563e-20)
(0.993445 -0.181885 8.93628e-20)
(1.02825 -0.166304 -3.2806e-20)
(1.04975 -0.146903 4.70702e-20)
(1.06285 -0.124985 -2.71973e-20)
(1.06541 -0.101358 1.91837e-20)
(1.06701 -0.0771198 -6.06012e-20)
(1.0661 -0.0537931 6.16877e-21)
(-0.0175098 0.021025 6.12289e-20)
(-0.0278245 0.0372928 0)
(-0.0212851 0.0380445 1.08893e-19)
(-0.00131213 0.0296662 -1.0083e-19)
(0.0321854 0.0160882 9.39286e-20)
(0.0806858 -0.00082706 0)
(0.145901 -0.0203419 0)
(0.228732 -0.0417962 -7.62339e-20)
(0.328397 -0.0642834 7.49859e-22)
(0.441801 -0.0865122 6.54769e-20)
(0.563494 -0.107004 -5.70374e-20)
(0.686312 -0.124351 1.08842e-19)
(0.8026 -0.137434 0)
(0.905579 -0.145581 1.59316e-19)
(0.990417 -0.148592 -2.84189e-19)
(1.0547 -0.146735 1.87573e-19)
(1.09844 -0.140537 9.44776e-20)
(1.12386 -0.130791 -8.80823e-20)
(1.13367 -0.118319 0)
(1.13303 -0.10369 0)
(1.12413 -0.0884193 0)
(1.11182 -0.0708721 0)
(1.09958 -0.0562027 1.16801e-20)
(1.08611 -0.0359137 -3.49729e-20)
(0.19458 0.357462 -4.89554e-21)
(0.251111 0.525959 4.90787e-21)
(0.308949 0.676081 -1.1573e-22)
(0.363966 0.785789 0)
(0.41019 0.846408 -2.43655e-21)
(0.447688 0.860198 4.38363e-21)
(0.480777 0.835531 -1.96606e-22)
(0.501568 0.80027 -1.71167e-21)
(0.495241 0.789387 0)
(0.468707 0.799173 0)
(0.455079 0.773029 -1.1105e-22)
(0.485316 0.649444 -1.25861e-22)
(0.554848 0.423196 -2.48203e-21)
(0.636468 0.130326 2.27306e-21)
(0.715297 -0.181862 0)
(0.781219 -0.45135 0)
(0.824012 -0.625156 1.44994e-21)
(0.846394 -0.694318 -3.05229e-22)
(0.852067 -0.698818 -1.0123e-21)
(0.843596 -0.678708 -4.63786e-23)
(0.835135 -0.646663 0)
(0.825697 -0.627037 0)
(0.798649 -0.652149 0)
(0.750478 -0.698603 0)
(0.696861 -0.682718 0)
(0.656139 -0.534908 0)
(0.641627 -0.2644 4.29638e-22)
(0.65106 0.0538833 -6.71539e-22)
(0.678658 0.322607 0)
(0.717716 0.481261 0)
(0.763802 0.545151 -2.42145e-22)
(0.798495 0.571429 2.35284e-22)
(0.804604 0.600955 8.85806e-23)
(0.772073 0.629282 0)
(0.71568 0.611389 0)
(0.660892 0.495619 2.78006e-22)
(0.633488 0.273009 -2.70201e-22)
(0.632791 -0.00398042 0)
(0.662806 -0.243684 2.14591e-22)
(0.708413 -0.387068 -3.0413e-22)
(0.736212 -0.455169 6.89864e-23)
(0.70796 -0.498249 0)
(0.657708 -0.496077 -1.00772e-22)
(0.618355 -0.407239 9.79866e-23)
(0.618043 -0.227269 0)
(0.642158 -0.00846742 0)
(0.673776 0.18707 -3.93577e-23)
(0.672636 0.357971 1.04816e-22)
(0.66149 0.440805 0)
(0.645849 0.423761 0)
(0.651462 0.278304 -3.1134e-23)
(0.651276 0.0340449 -7.45978e-24)
(0.650711 -0.185734 -4.26847e-24)
(0.622108 -0.393915 2.03331e-23)
(0.619381 -0.399871 0)
(0.607552 -0.2354 0)
(0.601291 -0.0215088 0)
(0.556024 0.317342 0)
(0.562765 0.29811 0)
(0.522318 0.0398511 0)
(0.0153938 0.263569 -3.99325e-22)
(0.0858309 0.436944 -1.50414e-20)
(0.155394 0.585599 2.08581e-21)
(0.228561 0.70289 1.21123e-20)
(0.299438 0.775932 1.2995e-22)
(0.365181 0.804069 0)
(0.420242 0.800149 -6.49254e-21)
(0.451098 0.793353 1.27346e-20)
(0.453673 0.804217 -6.24464e-21)
(0.449325 0.811404 6.93499e-21)
(0.474171 0.757927 -6.62306e-21)
(0.544681 0.606333 8.67183e-21)
(0.639285 0.369707 -8.39977e-21)
(0.733135 0.0763855 -3.0094e-22)
(0.817673 -0.232856 -9.01082e-21)
(0.880658 -0.493073 8.75056e-21)
(0.910008 -0.652287 -5.92463e-21)
(0.912502 -0.706169 5.59763e-21)
(0.900077 -0.697167 -3.49587e-21)
(0.875725 -0.670489 6.14161e-21)
(0.851997 -0.637427 -2.67797e-21)
(0.83151 -0.612089 -1.32897e-22)
(0.796014 -0.625648 -2.27924e-21)
(0.737879 -0.664046 4.80678e-21)
(0.674056 -0.650874 -2.51865e-21)
(0.622874 -0.515939 1.94783e-22)
(0.598748 -0.262727 4.03584e-21)
(0.604254 0.0381624 -4.30278e-23)
(0.634742 0.295725 -6.50066e-21)
(0.683525 0.451397 5.18496e-21)
(0.742217 0.520805 -2.22392e-21)
(0.789443 0.559705 1.86689e-22)
(0.807082 0.605013 -8.87702e-23)
(0.785151 0.646977 1.84297e-22)
(0.739362 0.635226 0)
(0.694936 0.516577 0)
(0.67438 0.283556 -1.34301e-21)
(0.673082 -0.00623232 9.58103e-22)
(0.693416 -0.257433 6.75607e-22)
(0.72821 -0.401946 -1.43064e-22)
(0.75285 -0.456883 -7.46968e-22)
(0.721563 -0.485631 1.0558e-22)
(0.66595 -0.481533 0)
(0.623932 -0.400965 0)
(0.622329 -0.231531 0)
(0.643005 -0.0175189 0)
(0.670334 0.181629 1.23889e-22)
(0.669354 0.358668 -6.6605e-23)
(0.661543 0.443783 0)
(0.648816 0.42548 0)
(0.656881 0.278835 0)
(0.659289 0.0347421 -6.60697e-23)
(0.659451 -0.182352 2.36782e-24)
(0.625427 -0.389703 -4.27327e-23)
(0.618584 -0.398952 0)
(0.605393 -0.233067 0)
(0.600641 -0.0180487 7.92841e-24)
(0.564763 0.320769 3.94124e-24)
(0.571679 0.301845 0)
(0.521546 0.0447345 0)
(-0.127955 0.151235 -1.99764e-21)
(-0.0382628 0.323688 -2.61309e-20)
(0.0349458 0.470371 2.0275e-20)
(0.123828 0.595976 -1.90135e-20)
(0.210071 0.681783 -1.30905e-22)
(0.290325 0.731176 0)
(0.353121 0.756319 -1.16853e-20)
(0.389798 0.777475 1.14091e-20)
(0.408135 0.799679 9.33276e-23)
(0.435768 0.793048 1.77748e-22)
(0.502818 0.711976 2.03451e-22)
(0.60755 0.545488 2.52238e-22)
(0.719564 0.314631 -1.88385e-20)
(0.822896 0.0333398 1.85948e-20)
(0.913146 -0.265382 0)
(0.973535 -0.512055 5.02349e-22)
(0.990861 -0.656075 -1.17717e-20)
(0.975224 -0.69932 1.15893e-20)
(0.946232 -0.683398 0)
(0.908843 -0.654127 0)
(0.871439 -0.622807 -4.62432e-21)
(0.840638 -0.593025 8.65789e-21)
(0.80003 -0.594142 -7.94677e-21)
(0.734876 -0.625939 -4.17267e-22)
(0.660661 -0.620302 9.44897e-21)
(0.599872 -0.502085 -1.15341e-20)
(0.56668 -0.26674 1.23033e-20)
(0.567057 0.0171152 -6.19252e-22)
(0.599402 0.26276 -6.02666e-21)
(0.655937 0.415499 0)
(0.725136 0.490628 0)
(0.784274 0.541726 1.05477e-21)
(0.813831 0.60274 -1.37011e-21)
(0.804056 0.660379 -6.09441e-25)
(0.770346 0.65822 2.21291e-21)
(0.736437 0.539162 -2.15022e-21)
(0.72301 0.298606 0)
(0.721926 -4.77622e-05 3.48632e-22)
(0.732269 -0.262519 2.4073e-21)
(0.753606 -0.412088 -4.01324e-21)
(0.774066 -0.45702 1.45795e-21)
(0.741027 -0.471873 1.02886e-22)
(0.679761 -0.46694 -7.89921e-22)
(0.633359 -0.396103 6.15426e-22)
(0.629835 -0.23728 1.20545e-22)
(0.647238 -0.0270733 1.05773e-22)
(0.671004 0.175693 -1.24221e-22)
(0.670507 0.358293 0)
(0.665489 0.4462 0)
(0.65478 0.427118 -5.87074e-22)
(0.664919 0.279955 2.95511e-22)
(0.670291 0.0362636 -3.46744e-22)
(0.672108 -0.177592 4.09993e-22)
(0.632739 -0.383843 3.53371e-22)
(0.621478 -0.398328 -8.94518e-23)
(0.606723 -0.231126 4.74683e-23)
(0.60395 -0.016394 -8.07725e-24)
(0.577321 0.322748 -3.49643e-23)
(0.584524 0.307068 0)
(0.525062 0.050738 0)
(-0.229796 0.0340326 -3.75588e-20)
(-0.130942 0.195521 3.74873e-21)
(-0.059189 0.341911 3.16744e-20)
(0.031747 0.476581 -2.43524e-22)
(0.120675 0.57712 0)
(0.205241 0.650585 0)
(0.272725 0.702482 -1.8623e-20)
(0.322226 0.742934 -1.18896e-21)
(0.366902 0.766109 2.88756e-20)
(0.433184 0.741344 1.56937e-21)
(0.54003 0.640338 -1.16116e-20)
(0.669938 0.47357 -1.56455e-20)
(0.79249 0.26011 1.56121e-20)
(0.903914 -0.00308646 0)
(1.00157 -0.288394 -1.71452e-20)
(1.06087 -0.52006 1.56625e-20)
(1.06738 -0.64781 0)
(1.03483 -0.681538 0)
(0.989797 -0.661799 6.52899e-21)
(0.941587 -0.631129 -1.2421e-21)
(0.893333 -0.603082 -4.80645e-21)
(0.852406 -0.57272 -3.75594e-21)
(0.807954 -0.561796 3.72459e-21)
(0.740083 -0.583048 -3.77922e-21)
(0.657925 -0.584029 -5.92188e-22)
(0.587363 -0.486779 4.15968e-21)
(0.545546 -0.273869 6.68929e-22)
(0.540088 -0.0076945 7.17085e-23)
(0.572476 0.225556 0)
(0.634341 0.374472 3.4008e-21)
(0.711752 0.454391 -3.47045e-21)
(0.781449 0.517363 1.69174e-22)
(0.823972 0.594177 0)
(0.82781 0.666688 -1.8599e-22)
(0.805811 0.674972 4.63182e-21)
(0.782187 0.559315 -9.65957e-21)
(0.776446 0.315949 -1.53435e-21)
(0.777148 0.0118772 3.30247e-22)
(0.778845 -0.260213 5.04208e-21)
(0.784833 -0.41811 4.56934e-22)
(0.798965 -0.456835 -2.11201e-21)
(0.765144 -0.4575 1.84229e-21)
(0.698648 -0.450977 1.50408e-23)
(0.646013 -0.391087 4.64642e-22)
(0.639905 -0.244035 -5.72713e-22)
(0.654629 -0.0375226 -6.02034e-22)
(0.675681 0.168592 2.02556e-22)
(0.675739 0.356724 3.94938e-22)
(0.672922 0.448646 -9.00373e-22)
(0.663521 0.429239 7.86209e-22)
(0.675296 0.281808 -3.61707e-22)
(0.683997 0.0381254 3.8625e-22)
(0.688535 -0.171953 3.73239e-22)
(0.644063 -0.376406 -5.74095e-22)
(0.628087 -0.397664 5.39061e-23)
(0.611445 -0.229527 -4.95659e-24)
(0.610888 -0.0164824 0)
(0.593263 0.323362 1.70846e-23)
(0.60122 0.313587 4.5324e-23)
(0.53299 0.0578046 0)
(-0.234529 -0.069999 2.10058e-20)
(-0.167893 0.0724046 -3.82391e-20)
(-0.111249 0.218037 1.71449e-20)
(-0.0325233 0.353635 1.37328e-20)
(0.0449235 0.466292 -2.56313e-20)
(0.128217 0.558405 2.26842e-23)
(0.203336 0.629444 1.16893e-20)
(0.272723 0.681405 1.39611e-20)
(0.348573 0.701594 -1.36867e-20)
(0.452103 0.662413 0)
(0.589465 0.553231 -2.46161e-20)
(0.733039 0.397878 5.31859e-20)
(0.860894 0.206049 -2.84839e-20)
(0.981274 -0.037434 0)
(1.08598 -0.302914 0)
(1.14083 -0.512617 4.83331e-22)
(1.1349 -0.622318 -2.15079e-20)
(1.08787 -0.649258 2.08815e-20)
(1.02969 -0.630942 0)
(0.973234 -0.602213 9.88105e-21)
(0.917605 -0.578222 -1.6941e-20)
(0.868457 -0.550549 1.38705e-20)
(0.82108 -0.530722 -1.22619e-20)
(0.753261 -0.540499 -2.15974e-22)
(0.666013 -0.5462 1.25072e-20)
(0.585691 -0.470967 -6.6553e-21)
(0.535106 -0.283443 -2.99447e-22)
(0.523285 -0.0365701 -3.85242e-21)
(0.553732 0.184229 5.39718e-22)
(0.618007 0.329301 3.40028e-21)
(0.700797 0.413213 1.69206e-22)
(0.780108 0.485146 -2.23697e-21)
(0.835519 0.575638 4.73864e-21)
(0.853291 0.665632 -2.8255e-21)
(0.845165 0.689502 0)
(0.832138 0.581718 -6.67367e-21)
(0.832904 0.337931 6.63621e-21)
(0.836109 0.0303321 -5.35355e-21)
(0.831283 -0.249275 6.68913e-21)
(0.821378 -0.417945 -5.07816e-22)
(0.826885 -0.455231 0)
(0.792894 -0.44269 -2.0082e-22)
(0.722241 -0.433663 4.02e-22)
(0.661603 -0.385424 0)
(0.652004 -0.251664 6.86587e-22)
(0.66473 -0.0491026 -2.9948e-22)
(0.684097 0.160422 1.35329e-22)
(0.685111 0.353898 1.1163e-22)
(0.684026 0.450369 0)
(0.675005 0.431317 0)
(0.687806 0.284057 -1.18288e-21)
(0.700167 0.0401885 1.95144e-21)
(0.708499 -0.165491 -1.0638e-21)
(0.659339 -0.367288 3.73294e-22)
(0.638341 -0.396806 2.9938e-22)
(0.619411 -0.228302 4.96191e-24)
(0.621053 -0.0182393 1.92344e-22)
(0.612129 0.322495 0)
(0.621612 0.321143 -4.97196e-23)
(0.545369 0.065854 -8.49801e-23)
(-0.0979422 -0.131762 6.44738e-21)
(-0.085723 -0.0160394 -6.35816e-21)
(-0.0614147 0.113809 7.20126e-23)
(-0.0167695 0.234955 1.37721e-23)
(0.0406468 0.351165 5.89392e-23)
(0.113596 0.452187 -5.86005e-23)
(0.192272 0.53461 1.87991e-23)
(0.277128 0.59374 0)
(0.377181 0.612077 -1.18054e-22)
(0.506874 0.565982 1.87069e-22)
(0.659503 0.459902 2.63747e-22)
(0.803695 0.323393 -3.96818e-22)
(0.931529 0.154024 0)
(1.05885 -0.0688761 0)
(1.16635 -0.310182 4.48405e-22)
(1.21263 -0.494926 0)
(1.19329 -0.587409 -3.26597e-22)
(1.13446 -0.609418 0)
(1.06618 -0.594999 -1.11936e-20)
(1.00351 -0.569694 1.97809e-20)
(0.943151 -0.549227 -1.53164e-20)
(0.886864 -0.526674 6.7355e-21)
(0.837111 -0.502207 4.8341e-21)
(0.772789 -0.498964 -4.69242e-21)
(0.684558 -0.504956 -5.10435e-21)
(0.595438 -0.451829 4.98903e-21)
(0.535078 -0.293065 0)
(0.516026 -0.0679671 1.7416e-22)
(0.542521 0.140348 0)
(0.606087 0.280989 0)
(0.691528 0.366419 3.49883e-21)
(0.778493 0.445229 -3.59619e-21)
(0.846566 0.54904 2.14722e-22)
(0.87997 0.654705 3.3771e-22)
(0.88465 0.69417 -4.50232e-22)
(0.880233 0.599269 -6.04135e-21)
(0.887929 0.360893 5.86453e-21)
(0.89547 0.0535743 -7.23012e-21)
(0.887292 -0.230931 6.19708e-21)
(0.862546 -0.41151 1.03902e-21)
(0.85713 -0.452344 -2.14982e-21)
(0.82296 -0.427925 5.88192e-22)
(0.749875 -0.414609 1.01137e-21)
(0.679886 -0.378176 0)
(0.66562 -0.259706 -2.16154e-22)
(0.677134 -0.0621423 1.49797e-22)
(0.696 0.150019 -2.34837e-22)
(0.698107 0.34904 -1.1238e-22)
(0.698193 0.452447 0)
(0.688888 0.434605 4.29195e-22)
(0.702272 0.287128 -7.26164e-22)
(0.718588 0.0423691 3.20901e-23)
(0.731723 -0.158509 -3.8748e-22)
(0.678438 -0.356485 3.33144e-22)
(0.652097 -0.395508 -3.02631e-22)
(0.630428 -0.227396 0)
(0.634001 -0.0216021 -1.92458e-22)
(0.633382 0.320145 0)