/*--------------------------------*- C++ -*----------------------------------*\
| =========                 |                                                 |
| \\      /  F ield         | OpenFOAM: The Open Source CFD Toolbox           |
|  \\    /   O peration     | Version:  2312                                  |
|   \\  /    A nd           | Website:  www.openfoam.com                      |
|    \\/     M anipulation  |                                                 |
\*---------------------------------------------------------------------------*/
FoamFile
{
    version     2.0;
    format      ascii;
    arch        "LSB;label=32;scalar=64";
    class       volScalarField;
    location    "13";
    object      p;
}
// * * * * * * * * * * * * * * * * * * * * * * * * * * * * * * * * * * * * * //

dimensions      [0 2 -2 0 0 0 0];

internalField   nonuniform List<scalar> 
9200
(
-0.608003
-0.639218
-0.641048
-0.616604
-0.577506
-0.59573
-0.64668
-0.698979
-0.724626
-0.711064
-0.681875
-0.654026
-0.628016
-0.601034
-0.57618
-0.550977
-0.523195
-0.494255
-0.456818
-0.41137
-0.489965
-0.489497
-0.487534
-0.483304
-0.486419
-0.537857
-0.617306
-0.670679
-0.668351
-0.630168
-0.588215
-0.559041
-0.536659
-0.516101
-0.495317
-0.472929
-0.449731
-0.426274
-0.400929
-0.377429
-0.404049
-0.39183
-0.363841
-0.346958
-0.359883
-0.421382
-0.504151
-0.550198
-0.540033
-0.509102
-0.486929
-0.473166
-0.458994
-0.442605
-0.425461
-0.408562
-0.387362
-0.36498
-0.342654
-0.322213
-0.348895
-0.332224
-0.29408
-0.228259
-0.225688
-0.290934
-0.37267
-0.423555
-0.429223
-0.416402
-0.408519
-0.405975
-0.399613
-0.387061
-0.373104
-0.359793
-0.346889
-0.331514
-0.311451
-0.292934
-0.318827
-0.293053
-0.238812
-0.192418
-0.188821
-0.244797
-0.311566
-0.354637
-0.367407
-0.362145
-0.352919
-0.347719
-0.343181
-0.335423
-0.323675
-0.311025
-0.299364
-0.288388
-0.277298
-0.26424
-0.3472
-0.3544
-0.294416
-0.227382
-0.22828
-0.260393
-0.294824
-0.317356
-0.324763
-0.323398
-0.317172
-0.309242
-0.302546
-0.295245
-0.285768
-0.2741
-0.261156
-0.248075
-0.235556
-0.224631
-0.427487
-0.368034
-0.349302
-0.296397
-0.273844
-0.275375
-0.285235
-0.292072
-0.291437
-0.287437
-0.28371
-0.278171
-0.269893
-0.262596
-0.255372
-0.247252
-0.238645
-0.229208
-0.218964
-0.207055
-0.483489
-0.47037
-0.380005
-0.320865
-0.291929
-0.279844
-0.277577
-0.277739
-0.27319
-0.263406
-0.253475
-0.246432
-0.23879
-0.229276
-0.219674
-0.211271
-0.202873
-0.195021
-0.187952
-0.180214
-0.427189
-0.511247
-0.3986
-0.326661
-0.294773
-0.276231
-0.264813
-0.257713
-0.251841
-0.244422
-0.234183
-0.223518
-0.214896
-0.206688
-0.197459
-0.18738
-0.177929
-0.16865
-0.159934
-0.152239
-0.302295
-0.361512
-0.360301
-0.316875
-0.288918
-0.269109
-0.253953
-0.240244
-0.228258
-0.2174
-0.207715
-0.198496
-0.188861
-0.181037
-0.174277
-0.168024
-0.161166
-0.153198
-0.145755
-0.137742
-0.747328
-0.710106
-0.738389
-0.789285
-0.857752
-0.935521
-1.01448
-1.09204
-1.16989
-1.24868
-1.32848
-1.4083
-1.48389
-1.54926
-1.59397
-1.61706
-1.60066
-1.55398
-1.47714
-1.35697
-0.856781
-0.792223
-0.81992
-0.864718
-0.928027
-1.00022
-1.07567
-1.15404
-1.23279
-1.31361
-1.39699
-1.47772
-1.54816
-1.6217
-1.65723
-1.67647
-1.6676
-1.60289
-1.51513
-1.39504
-0.896063
-0.840952
-0.868015
-0.906961
-0.962397
-1.0288
-1.10053
-1.17334
-1.24812
-1.32261
-1.39488
-1.46988
-1.53018
-1.57804
-1.61042
-1.61376
-1.59157
-1.53124
-1.43078
-1.30701
-0.870634
-0.835884
-0.865782
-0.906328
-0.959182
-1.01966
-1.08481
-1.14986
-1.21218
-1.27935
-1.34078
-1.39684
-1.44768
-1.48432
-1.49928
-1.49295
-1.46384
-1.40075
-1.30251
-1.18184
-0.787707
-0.789643
-0.832848
-0.875736
-0.923129
-0.972997
-1.02694
-1.08525
-1.13369
-1.18503
-1.23643
-1.27316
-1.30218
-1.32604
-1.32975
-1.30984
-1.26902
-1.20709
-1.12109
-1.00976
-0.692896
-0.711312
-0.772461
-0.815996
-0.855427
-0.896864
-0.935747
-0.974164
-1.01115
-1.04466
-1.08156
-1.11056
-1.13087
-1.14414
-1.1458
-1.12323
-1.08534
-1.02674
-0.951974
-0.858223
-0.656031
-0.693768
-0.737049
-0.764794
-0.781314
-0.794585
-0.810376
-0.831963
-0.867339
-0.897277
-0.921793
-0.948889
-0.972765
-0.984334
-0.985234
-0.96685
-0.934122
-0.883757
-0.821076
-0.749894
-0.693432
-0.712834
-0.732669
-0.728278
-0.710742
-0.704195
-0.709076
-0.714917
-0.723895
-0.744826
-0.784376
-0.82423
-0.85
-0.860931
-0.857367
-0.839081
-0.810005
-0.770464
-0.722201
-0.661863
-0.703817
-0.707016
-0.720443
-0.693649
-0.663936
-0.637404
-0.610631
-0.613636
-0.646685
-0.698839
-0.737609
-0.763536
-0.772743
-0.768922
-0.752396
-0.727882
-0.695436
-0.659729
-0.625823
-0.583861
-0.688522
-0.717106
-0.717062
-0.674445
-0.621273
-0.594716
-0.609039
-0.651167
-0.698468
-0.721301
-0.730016
-0.72446
-0.708794
-0.686167
-0.658736
-0.629699
-0.597161
-0.563114
-0.528587
-0.49494
-1.18365
-0.930233
-0.652179
-0.40074
-0.200805
-0.0598447
0.0246597
0.0755837
0.10185
0.114338
0.118082
0.115845
0.110156
0.102212
0.0922194
0.0812458
0.0707335
0.0613626
0.0530522
0.0456703
0.0392276
0.0336666
0.0289747
0.0248711
0.0212845
0.0182163
0.0155399
0.0130228
0.0111532
0.00945662
0.00793026
0.00659896
0.00547014
0.00452349
0.00374608
0.00309888
0.00257944
0.00214592
0.00180164
0.00151379
0.00128091
0.00110016
0.000924658
0.000811665
0.000668919
0.000568874
0.000459648
0.000329428
0.000214053
6.58288e-05
-1.20593
-0.958526
-0.704229
-0.45881
-0.248683
-0.0945063
0.00297037
0.0586928
0.0853927
0.0971507
0.102138
0.102102
0.0982523
0.0922171
0.0844431
0.0754072
0.0664035
0.058245
0.0508859
0.0441484
0.0381155
0.0328957
0.0284223
0.0244843
0.0210379
0.0180938
0.015507
0.0129083
0.0111689
0.00948411
0.00793434
0.006582
0.00544069
0.00449032
0.00371077
0.00306687
0.00254825
0.00211749
0.00177388
0.00148799
0.00126145
0.00107849
0.000913179
0.00079555
0.000661731
0.000561694
0.00045489
0.000328067
0.000210165
6.27364e-05
-1.12584
-0.904809
-0.698431
-0.497454
-0.304499
-0.149418
-0.0397994
0.0267232
0.0591154
0.0736425
0.0810089
0.083955
0.0834848
0.0805477
0.0756536
0.0689895
0.0615949
0.0546187
0.0483046
0.0424075
0.0368963
0.0319738
0.0276797
0.0239372
0.0206948
0.017878
0.0153022
0.0125284
0.0110915
0.0094696
0.00793443
0.00657697
0.00542539
0.00446816
0.00368247
0.0030395
0.00252068
0.00209353
0.00175049
0.00146666
0.00124473
0.00105939
0.000904114
0.000781161
0.000656927
0.000555453
0.000451839
0.000328216
0.0002086
5.76185e-05
-1.01403
-0.821717
-0.666886
-0.514952
-0.362324
-0.223067
-0.113101
-0.0346574
0.0133252
0.0398543
0.0545414
0.0624726
0.0661554
0.0666638
0.0648047
0.0610154
0.0558717
0.0503761
0.045175
0.0402185
0.0353337
0.0306979
0.0265912
0.0231076
0.0201469
0.0175597
0.0151143
0.0117182
0.0108887
0.00933038
0.00784627
0.00651786
0.00538203
0.00443497
0.00365292
0.00301515
0.00249586
0.00207112
0.00172884
0.00144743
0.00123048
0.00104248
0.000897364
0.000769407
0.000655962
0.000552865
0.000454202
0.000332543
0.000212123
5.8591e-05
-0.871507
-0.747729
-0.624856
-0.496179
-0.377868
-0.264241
-0.159731
-0.0832725
-0.0339691
-0.00150127
0.0220633
0.0380403
0.0473068
0.0521823
0.0537423
0.0525672
0.0495583
0.0456878
0.0416914
0.0377358
0.033672
0.0295702
0.0257503
0.0224194
0.0196278
0.0172516
0.0151593
0.0143988
0.010873
0.00922419
0.00777319
0.00645694
0.00532508
0.00438069
0.00360059
0.00297013
0.00245468
0.00203698
0.00169866
0.00142311
0.00121252
0.00102521
0.000889891
0.000758118
0.000654187
0.000549681
0.000455713
0.00033708
0.000215815
5.80449e-05
-0.732804
-0.655315
-0.581641
-0.484907
-0.38978
-0.305517
-0.216076
-0.13044
-0.0696263
-0.0317264
-0.00507002
0.0150123
0.0287711
0.0371619
0.041985
0.0439818
0.0432987
0.0408622
0.0378171
0.0346846
0.0313838
0.0278027
0.0242687
0.0212075
0.0187076
0.016625
0.0147732
0.0133678
0.0104476
0.00903621
0.00766495
0.00639122
0.00528378
0.00435244
0.0035766
0.00295055
0.00243323
0.00201693
0.00167819
0.00140408
0.00119654
0.00100755
0.000880304
0.000744892
0.000650055
0.000544241
0.000455203
0.00033882
0.000216707
5.44398e-05
-0.661131
-0.599022
-0.542866
-0.467372
-0.385839
-0.312347
-0.247119
-0.178068
-0.114795
-0.064993
-0.0295865
-0.0044864
0.0129056
0.0236591
0.0303053
0.0345304
0.036401
0.0359188
0.0342053
0.0320799
0.0296273
0.0266648
0.0235172
0.020632
0.0182188
0.0162492
0.0144861
0.0127507
0.00996688
0.00887093
0.0075181
0.00626034
0.0051718
0.00425783
0.00349664
0.00288523
0.00237703
0.00197133
0.00164018
0.00137378
0.00117392
0.00098801
0.000870815
0.000734412
0.000649268
0.000543121
0.000459511
0.000345388
0.000223452
6.04375e-05
-0.583936
-0.543137
-0.505898
-0.446488
-0.380805
-0.318282
-0.258506
-0.202648
-0.148734
-0.101618
-0.0630713
-0.0321592
-0.00793993
0.00859602
0.0188818
0.0251435
0.0286768
0.0295364
0.0288939
0.0278571
0.0264164
0.0242533
0.0216114
0.0190715
0.0169642
0.015288
0.0138122
0.0122094
0.0091523
0.00877796
0.00743119
0.00619676
0.00512367
0.00421975
0.00346269
0.0028563
0.00234787
0.00194627
0.00161562
0.00135314
0.00115484
0.000971324
0.000858207
0.000722222
0.000642704
0.000537256
0.00045757
0.000346533
0.000224891
5.73234e-05
-0.532968
-0.503281
-0.471098
-0.423714
-0.369612
-0.314843
-0.2633
-0.214849
-0.166436
-0.122437
-0.0845255
-0.0539276
-0.028688
-0.00844342
0.00579573
0.0157215
0.0219667
0.0248137
0.0254056
0.0251254
0.0244248
0.0228877
0.0207091
0.0184789
0.0164745
0.0148035
0.0133806
0.0120636
0.0119584
0.00877452
0.0072527
0.00603009
0.00498356
0.00410705
0.00337303
0.00278452
0.00228872
0.00189864
0.00157643
0.00132154
0.00112894
0.000951422
0.000844212
0.000712178
0.000638697
0.00053513
0.000459566
0.000350848
0.000229985
6.51269e-05
-0.482605
-0.473111
-0.44967
-0.416101
-0.376844
-0.33281
-0.287331
-0.242489
-0.197437
-0.155846
-0.116375
-0.0819438
-0.0537147
-0.0302379
-0.0123692
0.000358432
0.00950138
0.0154196
0.0182755
0.0194876
0.0199501
0.0196955
0.0185633
0.0169397
0.0153235
0.0139386
0.0127431
0.0116457
0.0108648
0.0086726
0.00715965
0.0059423
0.00490215
0.00403716
0.00331175
0.0027319
0.00224062
0.00185912
0.00154063
0.00129457
0.00110412
0.000935376
0.000828978
0.000703892
0.000631477
0.000532839
0.000457829
0.000354005
0.000233983
7.27961e-05
-0.433622
-0.438645
-0.413272
-0.379994
-0.342502
-0.303117
-0.264302
-0.226943
-0.189283
-0.151477
-0.11485
-0.0825927
-0.0558583
-0.0337097
-0.0169514
-0.00500229
0.00401747
0.0103457
0.013998
0.0160437
0.0171837
0.017462
0.0168338
0.0154895
0.0139523
0.0127084
0.0117876
0.010947
0.0099947
0.00839607
0.00691068
0.00575791
0.00476668
0.00393587
0.00323668
0.00267256
0.00219419
0.00182113
0.00150868
0.00126989
0.00107947
0.000920824
0.000810519
0.000696797
0.000621333
0.000530451
0.00045417
0.000354873
0.000234846
8.01361e-05
-0.3615
-0.38028
-0.369405
-0.341442
-0.308655
-0.274765
-0.240419
-0.207633
-0.176475
-0.145403
-0.114444
-0.0863089
-0.0619975
-0.0407321
-0.0239131
-0.0118966
-0.00267147
0.00423707
0.00850789
0.0110647
0.0127507
0.0136718
0.0137393
0.0129882
0.0118941
0.0110216
0.0104346
0.00984362
0.00900157
0.00749418
0.00629238
0.00527304
0.00439964
0.00365873
0.00302701
0.00251046
0.00207048
0.00172404
0.00143487
0.00121217
0.00103535
0.000890108
0.000786056
0.000684325
0.000611477
0.000527681
0.000454462
0.000356572
0.000240491
9.25738e-05
-0.312545
-0.334342
-0.328746
-0.305377
-0.27836
-0.251564
-0.224583
-0.197754
-0.170501
-0.142583
-0.115152
-0.0898342
-0.0673853
-0.0475376
-0.0312787
-0.0186767
-0.00832437
-0.000511848
0.0043528
0.00751688
0.00979671
0.0111197
0.0114953
0.0111645
0.0104733
0.00985082
0.00942072
0.00892782
0.00813477
0.0069844
0.00577131
0.00483365
0.00403415
0.00335501
0.00277948
0.00230844
0.00191028
0.0015956
0.00133581
0.00113428
0.000976418
0.000845793
0.000752457
0.00066118
0.000595166
0.000517778
0.000449763
0.000354843
0.000242103
9.43132e-05
-0.271804
-0.290106
-0.289911
-0.27455
-0.252872
-0.229392
-0.204671
-0.179899
-0.155894
-0.132451
-0.108904
-0.0864298
-0.0671014
-0.0498333
-0.0348648
-0.0231117
-0.0134076
-0.00571864
-0.000402286
0.00333603
0.00600696
0.00771571
0.00871838
0.00898288
0.00854017
0.00808726
0.00786645
0.00759867
0.00696852
0.00593747
0.00506958
0.00427982
0.00359954
0.00301452
0.00251188
0.0020944
0.00174229
0.00146063
0.00122941
0.00104732
0.00090683
0.000791068
0.000707695
0.000629121
0.000568519
0.000500097
0.00043499
0.000345787
0.000232798
8.36895e-05
-0.23518
-0.252495
-0.255558
-0.24426
-0.226129
-0.206477
-0.186333
-0.166393
-0.146855
-0.127818
-0.108934
-0.0903074
-0.0727782
-0.0558437
-0.040734
-0.028921
-0.0190455
-0.0111141
-0.00567362
-0.00147068
0.00200013
0.00433448
0.00571843
0.0062668
0.0063174
0.00630992
0.00650854
0.00653444
0.00607167
0.00532833
0.0044253
0.00374027
0.00316124
0.00266132
0.0022281
0.00186397
0.00155795
0.00131014
0.00110926
0.000949807
0.000830822
0.000732647
0.000661805
0.000596974
0.000541922
0.000483699
0.000420586
0.000337312
0.000225424
8.08478e-05
-0.203553
-0.219509
-0.22365
-0.215966
-0.201923
-0.18608
-0.169553
-0.153131
-0.136794
-0.120147
-0.103142
-0.0858492
-0.0700342
-0.0556879
-0.0425108
-0.0315926
-0.0221612
-0.0142443
-0.00857066
-0.00420819
-0.000733107
0.00163702
0.00335582
0.00454783
0.00486838
0.00484983
0.00506718
0.00517599
0.00485861
0.00423281
0.00364263
0.00311707
0.00266194
0.0022602
0.00190418
0.0015999
0.00134662
0.00114169
0.00097869
0.000848613
0.000753331
0.000674692
0.000617191
0.000565953
0.000519413
0.000469494
0.000411983
0.000332996
0.000225456
8.70666e-05
-0.176528
-0.190605
-0.195368
-0.190257
-0.179446
-0.167089
-0.154016
-0.140131
-0.125768
-0.111693
-0.0980508
-0.0842622
-0.0710323
-0.0583227
-0.0461952
-0.0360365
-0.0271273
-0.0193697
-0.0137774
-0.00927381
-0.00521317
-0.0022403
-9.73035e-05
0.00139165
0.00213877
0.00263684
0.00327985
0.00374358
0.00371192
0.00335452
0.00286482
0.00246734
0.00212594
0.00181874
0.00154335
0.00130864
0.00111821
0.000962804
0.000839418
0.000739018
0.000666693
0.000609685
0.00056603
0.000531565
0.000494455
0.000453309
0.000404914
0.000328111
0.000227133
9.05796e-05
-0.153107
-0.165306
-0.170253
-0.16715
-0.159261
-0.149561
-0.138488
-0.12695
-0.115738
-0.104564
-0.0929889
-0.0807735
-0.0691266
-0.05824
-0.0475997
-0.0381474
-0.0295838
-0.0218827
-0.0160827
-0.011416
-0.0073738
-0.0044379
-0.00215454
-0.000251963
0.000748867
0.00124997
0.00191022
0.00247516
0.00256544
0.00238579
0.00201545
0.00176281
0.00154269
0.00133724
0.00115509
0.00100059
0.0008743
0.000765619
0.000680869
0.000612326
0.000567037
0.000535009
0.000507959
0.000492651
0.000464697
0.000435441
0.000395173
0.0003214
0.000227669
8.96179e-05
-0.132444
-0.143228
-0.148207
-0.146561
-0.140603
-0.132848
-0.124239
-0.115379
-0.106127
-0.0964254
-0.0867325
-0.0769083
-0.0673332
-0.057842
-0.0482424
-0.0396346
-0.0318666
-0.0248192
-0.0194459
-0.0150317
-0.0109605
-0.00782454
-0.00530334
-0.00313442
-0.00178596
-0.000950155
5.73726e-07
0.00086507
0.00121321
0.00110096
0.00108919
0.00101
0.000920255
0.000827295
0.000745001
0.000667856
0.00060097
0.000541653
0.000502542
0.000472829
0.00045879
0.00045377
0.000445612
0.000449408
0.000432978
0.000416112
0.000383485
0.00031552
0.00022708
8.84307e-05
-0.114507
-0.12408
-0.128936
-0.128187
-0.123826
-0.118019
-0.111252
-0.103904
-0.0962431
-0.0885793
-0.0809749
-0.0727859
-0.0644546
-0.0562608
-0.0480632
-0.040643
-0.0337289
-0.0271687
-0.0218722
-0.0173388
-0.0132083
-0.0100957
-0.00752353
-0.00508888
-0.00346131
-0.00248673
-0.00144679
-0.000461495
2.89959e-05
0.000135673
0.000180247
0.00023394
0.000270397
0.000289805
0.000301205
0.000298925
0.000298527
0.000299047
0.000311857
0.000323986
0.000342209
0.000365864
0.000378324
0.000402376
0.000400242
0.000394765
0.00037258
0.000310572
0.000225861
8.86663e-05
-0.0991735
-0.10745
-0.11195
-0.111909
-0.108851
-0.104347
-0.0988887
-0.0931426
-0.0872109
-0.0810833
-0.0748138
-0.0679891
-0.0611346
-0.0543925
-0.0474403
-0.0409276
-0.0346732
-0.0286467
-0.0237111
-0.0193913
-0.015386
-0.0123378
-0.00975844
-0.00721662
-0.00542255
-0.00431927
-0.0031627
-0.00200183
-0.001301
-0.00101237
-0.000784943
-0.000582245
-0.000413862
-0.000284092
-0.000179066
-9.7344e-05
-2.15379e-05
4.27428e-05
0.000107557
0.000162649
0.000215532
0.000270547
0.000305993
0.000352156
0.000365713
0.000372382
0.000362572
0.000305326
0.000224946
8.97496e-05
-0.0857602
-0.0928459
-0.0969554
-0.0974124
-0.0953283
-0.0919578
-0.0877617
-0.0833007
-0.0785548
-0.0736241
-0.0686616
-0.0631798
-0.0575954
-0.0519737
-0.0460171
-0.0404245
-0.0350146
-0.0296786
-0.0251507
-0.0210023
-0.0171157
-0.014227
-0.0117638
-0.00916493
-0.00717934
-0.00591725
-0.00466237
-0.00339024
-0.00254475
-0.00209672
-0.00174553
-0.00141264
-0.00112361
-0.000886929
-0.000682964
-0.000511333
-0.00035865
-0.000231345
-0.000112988
-1.12393e-05
7.99376e-05
0.000168648
0.000229409
0.000298812
0.00032957
0.000349729
0.000352341
0.000300443
0.00022499
9.10149e-05
-0.0738804
-0.0800665
-0.0838634
-0.0846704
-0.0833561
-0.0808673
-0.0775991
-0.0741157
-0.0703824
-0.0665271
-0.0626546
-0.0582258
-0.0536827
-0.0491035
-0.0441601
-0.0394705
-0.0348036
-0.0300729
-0.0260012
-0.0221651
-0.0185097
-0.0158085
-0.0134472
-0.0108244
-0.00874039
-0.00741044
-0.00611918
-0.00477291
-0.00380047
-0.00320648
-0.00272158
-0.00226244
-0.00185526
-0.00150869
-0.00120388
-0.000943904
-0.000715273
-0.000522362
-0.000346595
-0.000194958
-6.30883e-05
6.10021e-05
0.00014908
0.000242788
0.000292519
0.000326858
0.000342194
0.000296955
0.000225837
9.23529e-05
-0.0636069
-0.0689862
-0.0724236
-0.0734323
-0.0726829
-0.0708863
-0.0683782
-0.0656865
-0.0627705
-0.0597586
-0.0567499
-0.0532627
-0.0496978
-0.0460198
-0.0418958
-0.0379695
-0.0340277
-0.0299653
-0.026408
-0.0228996
-0.0194798
-0.0169965
-0.0148068
-0.0122533
-0.0101428
-0.00877009
-0.00745446
-0.00606517
-0.00500296
-0.00429192
-0.00369042
-0.00311539
-0.00259455
-0.00214121
-0.00173944
-0.00139284
-0.00108646
-0.000824949
-0.000589732
-0.00038676
-0.000212422
-5.13135e-05
6.59094e-05
0.000185125
0.000255134
0.000304319
0.000333067
0.000295036
0.00022748
9.40217e-05
-0.0547052
-0.0593174
-0.0623992
-0.0635317
-0.0632193
-0.0619417
-0.0599983
-0.0579453
-0.0556895
-0.0533855
-0.0511707
-0.0484715
-0.0456148
-0.0426434
-0.0392898
-0.0361244
-0.0328693
-0.0294141
-0.0263379
-0.0231806
-0.0200599
-0.0178495
-0.0158628
-0.0134095
-0.0113184
-0.00995019
-0.00865184
-0.00725968
-0.00614454
-0.00534571
-0.00464161
-0.00395937
-0.00333208
-0.00277803
-0.00228269
-0.00185
-0.00146535
-0.00113483
-0.000839621
-0.000584324
-0.000365909
-0.000166415
-1.86167e-05
0.000127093
0.000218275
0.000283084
0.000325595
0.000294824
0.000230353
9.61508e-05
-0.0469542
-0.050899
-0.0536277
-0.0547885
-0.0547703
-0.0539013
-0.0524668
-0.050951
-0.0492258
-0.0475133
-0.0458687
-0.0437071
-0.0414895
-0.0392307
-0.0365576
-0.0340072
-0.0313381
-0.0284529
-0.0258587
-0.0230699
-0.0202717
-0.0183532
-0.0165884
-0.0142753
-0.0122623
-0.0109479
-0.00970089
-0.00833891
-0.00720508
-0.00634411
-0.0055557
-0.00477987
-0.00405625
-0.00340802
-0.00282287
-0.00230669
-0.00184572
-0.00144716
-0.0010919
-0.000783769
-0.000520462
-0.000281771
-0.000102576
7.03773e-05
0.000183269
0.000264302
0.000320588
0.000297061
0.000235043
9.91999e-05
-0.0401209
-0.0435037
-0.0459354
-0.0471193
-0.0473479
-0.0468077
-0.045744
-0.0446133
-0.0432864
-0.0420016
-0.0408146
-0.0392035
-0.0375745
-0.035825
-0.0336534
-0.0316528
-0.0295382
-0.0271805
-0.0250303
-0.0225947
-0.0201336
-0.0185306
-0.0170055
-0.0148581
-0.0129642
-0.0117462
-0.0105852
-0.00928553
-0.00816557
-0.00727041
-0.00641655
-0.0055616
-0.0047525
-0.00401794
-0.00334888
-0.00275388
-0.00221973
-0.00175502
-0.00134055
-0.000980271
-0.000672205
-0.000394328
-0.000183622
1.67896e-05
0.000151442
0.000248613
0.000318687
0.000301728
0.000241318
0.000101593
-0.0341927
-0.0371236
-0.0392877
-0.0404332
-0.0407988
-0.040469
-0.0396868
-0.0388774
-0.03788
-0.0369776
-0.0361963
-0.0349701
-0.0337142
-0.0323744
-0.0306966
-0.029207
-0.0275668
-0.0256724
-0.0239287
-0.021828
-0.019701
-0.0184144
-0.0171284
-0.0151592
-0.0134166
-0.0123332
-0.0112948
-0.0100908
-0.00901386
-0.00810621
-0.00720654
-0.00628742
-0.0054047
-0.00459331
-0.00384807
-0.00318024
-0.00257753
-0.00204987
-0.00157868
-0.00116762
-0.00081607
-0.000499172
-0.000257522
-2.93549e-05
0.00012678
0.00024017
0.000323742
0.000313283
0.000252435
0.000110828
-0.0290938
-0.0315815
-0.0334553
-0.0345234
-0.0349842
-0.0348334
-0.034299
-0.0337534
-0.0330159
-0.0324025
-0.031891
-0.030948
-0.0300424
-0.0290773
-0.0277923
-0.0266952
-0.0254481
-0.0239674
-0.022591
-0.0208023
-0.0190084
-0.0180428
-0.0169996
-0.0152217
-0.0136521
-0.0127221
-0.0118223
-0.0107374
-0.00973366
-0.00884023
-0.00791187
-0.00694235
-0.0059981
-0.00512013
-0.00430678
-0.00357338
-0.00290776
-0.00232309
-0.00179942
-0.00134257
-0.000951297
-0.000599072
-0.00033019
-7.63746e-05
9.8069e-05
0.000226185
0.000321165
0.000317355
0.000253845
9.44051e-05
-0.0246013
-0.0267211
-0.0283528
-0.0293537
-0.0298796
-0.029851
-0.0294959
-0.0291445
-0.0286071
-0.0282326
-0.0279578
-0.0272694
-0.0266383
-0.0259368
-0.0249618
-0.0242043
-0.0232893
-0.0221514
-0.0210769
-0.0195563
-0.0180733
-0.0174121
-0.0166027
-0.0150306
-0.013672
-0.0129407
-0.0122119
-0.0112596
-0.0103337
-0.00944903
-0.00852058
-0.00751461
-0.00651879
-0.00558264
-0.00470814
-0.00391344
-0.00318762
-0.00254568
-0.00196849
-0.00146313
-0.00102862
-0.000638849
-0.000338072
-5.86479e-05
0.000138807
0.000277355
0.000387349
0.000379181
0.00032918
0.000174264
-0.0206906
-0.0225137
-0.0239302
-0.0248525
-0.0254024
-0.0254483
-0.0252316
-0.0250293
-0.024641
-0.0244492
-0.0243416
-0.0238335
-0.0234119
-0.0229274
-0.0222289
-0.0217759
-0.0211614
-0.0203381
-0.0195313
-0.0182453
-0.0170388
-0.0166275
-0.0159917
-0.0145882
-0.0134249
-0.0128915
-0.0123644
-0.0115947
-0.0107839
-0.0100211
-0.0090565
-0.00803335
-0.00700789
-0.00603285
-0.00511681
-0.00428211
-0.00351738
-0.00284021
-0.00223129
-0.00169583
-0.00123993
-0.000823081
-0.000510428
-0.000208074
-6.68608e-07
0.000152853
0.000270144
0.000262212
0.00018373
3.21411e-05
-0.0173248
-0.0188668
-0.0200722
-0.0209126
-0.0214717
-0.0215787
-0.0214817
-0.0213959
-0.0211201
-0.021061
-0.0210581
-0.0206751
-0.0204107
-0.0200853
-0.0195962
-0.0193667
-0.0189788
-0.0184221
-0.0178573
-0.0168047
-0.0158995
-0.0157727
-0.0153409
-0.0141331
-0.0131801
-0.0128158
-0.0124062
-0.0117513
-0.0110448
-0.0101631
-0.00924987
-0.00819627
-0.0071307
-0.0061159
-0.00515493
-0.00427579
-0.00346314
-0.00274351
-0.00208847
-0.00151793
-0.00102264
-0.00057988
-0.000240063
8.1308e-05
0.000302101
0.000465786
0.000597146
0.000599138
0.000518565
0.000284182
-0.0144036
-0.0156924
-0.0167089
-0.0174764
-0.0180328
-0.0181863
-0.0181956
-0.0182053
-0.0180224
-0.0180729
-0.0181465
-0.0178672
-0.0177257
-0.01751
-0.0171881
-0.0171329
-0.0169004
-0.016528
-0.016124
-0.0152372
-0.0145632
-0.0146347
-0.014346
-0.0133341
-0.0126448
-0.0125762
-0.0124678
-0.0120218
-0.0113957
-0.010792
-0.00984198
-0.00878742
-0.00770129
-0.00665423
-0.00566441
-0.00476045
-0.0039285
-0.00319121
-0.00252658
-0.00193969
-0.00144586
-0.000982912
-0.000650457
-0.000312967
-8.80446e-05
6.27685e-05
0.000203713
0.000167085
0.000115225
-4.82924e-06
-0.0118803
-0.0129439
-0.0137889
-0.0144756
-0.0149996
-0.0151693
-0.0152658
-0.015359
-0.0152619
-0.0154054
-0.0155175
-0.0153021
-0.015257
-0.015136
-0.0149704
-0.0150857
-0.0150153
-0.0148184
-0.0145467
-0.0138086
-0.0133567
-0.013602
-0.0134065
-0.0125159
-0.0119739
-0.0119718
-0.0118864
-0.0115583
-0.0111038
-0.0102637
-0.00934403
-0.00826752
-0.00717359
-0.00612752
-0.00512941
-0.0042193
-0.00336773
-0.00262265
-0.0019301
-0.00133952
-0.000817984
-0.000352004
-9.21712e-06
0.000349496
0.000557263
0.000752618
0.000879564
0.000849076
0.000716393
0.00036883
-0.00975251
-0.0106116
-0.0113161
-0.0119399
-0.0124214
-0.0125892
-0.0127198
-0.0128228
-0.012769
-0.0129769
-0.0131206
-0.0129743
-0.0129779
-0.0128869
-0.0128328
-0.0130578
-0.0130919
-0.0130438
-0.0128896
-0.0123145
-0.0121217
-0.0125471
-0.012473
-0.0118303
-0.0116667
-0.0120705
-0.0123121
-0.0120762
-0.011502
-0.0109883
-0.0100567
-0.00896835
-0.00783199
-0.00674121
-0.00571747
-0.00479373
-0.00394169
-0.0031998
-0.00251971
-0.00193357
-0.00143395
-0.000965276
-0.000645435
-0.000295684
-8.68998e-05
5.08825e-05
0.000206169
0.000152382
0.000121584
1.24843e-05
-0.00794884
-0.00862568
-0.0092105
-0.00978946
-0.0102415
-0.0104279
-0.0106335
-0.0107519
-0.010719
-0.0109573
-0.0110844
-0.0109902
-0.0110437
-0.0109652
-0.0109883
-0.0112648
-0.0113312
-0.0113544
-0.0112215
-0.0106961
-0.0106248
-0.0111009
-0.0110141
-0.0104375
-0.010331
-0.0106808
-0.0109148
-0.0108486
-0.0103341
-0.00976161
-0.00885667
-0.00776094
-0.00665947
-0.00560994
-0.00462566
-0.00373931
-0.00290851
-0.00220413
-0.00151807
-0.000978124
-0.000451977
-2.39978e-05
0.000300564
0.000675739
0.000814109
0.00105009
0.0011098
0.00101118
0.000873995
0.000411745
-0.00641009
-0.00690757
-0.00738069
-0.0078886
-0.00830521
-0.0085335
-0.00880152
-0.00895724
-0.00897163
-0.00918896
-0.009266
-0.00920061
-0.00928238
-0.00926516
-0.00940805
-0.00976933
-0.00992169
-0.0100175
-0.0099433
-0.0096342
-0.00982261
-0.010375
-0.0104086
-0.0102381
-0.0107163
-0.0115786
-0.0120948
-0.0120952
-0.0119382
-0.0108307
-0.00958319
-0.00830766
-0.00711313
-0.00601975
-0.0050489
-0.00418166
-0.00340083
-0.00273325
-0.00209875
-0.00159816
-0.00110236
-0.000715734
-0.000386489
-8.18027e-05
8.1205e-05
0.000241954
0.000312352
0.000290945
0.000262035
6.97811e-05
-0.00527506
-0.0056327
-0.0060157
-0.00644787
-0.00678212
-0.00700001
-0.00728419
-0.00739677
-0.00743823
-0.00765674
-0.00768596
-0.00764892
-0.00767534
-0.00759796
-0.00775803
-0.00803088
-0.00812729
-0.00822518
-0.00804927
-0.00767045
-0.00789178
-0.00837341
-0.00827405
-0.00803614
-0.00837451
-0.00913914
-0.0098518
-0.0101439
-0.00970059
-0.00887132
-0.00779539
-0.00661296
-0.00556739
-0.00453887
-0.00371234
-0.00288374
-0.00222012
-0.00159136
-0.000993718
-0.000590578
-1.61441e-05
0.000189919
0.000655391
0.000838401
0.00100978
0.00123957
0.00108995
0.00107818
0.000861106
0.000345839
-0.00443166
-0.00472552
-0.00509323
-0.00550206
-0.00581487
-0.00604017
-0.00629867
-0.0063918
-0.00643677
-0.00662922
-0.00668593
-0.0066972
-0.00671995
-0.00666979
-0.00684626
-0.00711964
-0.00727806
-0.00742185
-0.00729772
-0.0070377
-0.00725603
-0.00770214
-0.00794062
-0.00844725
-0.00944805
-0.0102903
-0.010478
-0.0100993
-0.00935273
-0.00830526
-0.00723501
-0.00614577
-0.0052618
-0.0043526
-0.00370728
-0.00293116
-0.00246501
-0.0018102
-0.00143905
-0.000953799
-0.000521841
-0.000286869
0.000252073
0.000213163
0.000607599
0.000601284
0.000516924
0.000640718
0.000372585
9.45478e-05
-0.00388843
-0.00416739
-0.00438409
-0.00476528
-0.00514175
-0.00534291
-0.00557646
-0.00566209
-0.00567397
-0.00576293
-0.00573669
-0.00571367
-0.00574662
-0.00569614
-0.0056766
-0.00580052
-0.00594912
-0.00579496
-0.00532647
-0.00509979
-0.00520798
-0.00505272
-0.00462533
-0.00467016
-0.00568221
-0.0071486
-0.00822336
-0.00827163
-0.00772323
-0.00667544
-0.00576628
-0.00470069
-0.00411488
-0.0031874
-0.00288885
-0.00200965
-0.00184315
-0.00106497
-0.000818172
-0.000340669
0.000162801
0.000176845
0.000903639
0.000612859
0.00113793
0.00104703
0.000868311
0.00110379
0.000581137
0.000166059
-0.129966
-0.145187
-0.170471
-0.194319
-0.214073
-0.248896
-0.276351
-0.303608
-0.348434
-0.375548
-0.12279
-0.136279
-0.157344
-0.17753
-0.194154
-0.223512
-0.245725
-0.264926
-0.294232
-0.320912
-0.114517
-0.125287
-0.142349
-0.159707
-0.172413
-0.197164
-0.210889
-0.226217
-0.250172
-0.274834
-0.106929
-0.115936
-0.129376
-0.144706
-0.154638
-0.174094
-0.185259
-0.200517
-0.221073
-0.243102
-0.0989529
-0.10634
-0.116472
-0.13001
-0.138699
-0.154101
-0.165737
-0.17901
-0.194819
-0.21193
-0.0912382
-0.0976944
-0.10546
-0.1168
-0.124841
-0.136894
-0.146938
-0.15721
-0.168541
-0.182549
-0.0834668
-0.0891886
-0.095056
-0.104102
-0.111444
-0.120445
-0.128645
-0.136978
-0.146188
-0.158813
-0.0761282
-0.0810154
-0.085629
-0.0926381
-0.099054
-0.106021
-0.112962
-0.120233
-0.128565
-0.138967
-0.0690938
-0.0731407
-0.0768195
-0.0822755
-0.0878016
-0.0936188
-0.0996281
-0.105874
-0.112581
-0.120634
-0.0625826
-0.0657839
-0.0687654
-0.073123
-0.077773
-0.0826627
-0.087577
-0.0923881
-0.0975633
-0.104342
-0.0564701
-0.0589347
-0.0613396
-0.0648179
-0.0685639
-0.0724906
-0.0763875
-0.0801993
-0.0846583
-0.0906308
-0.0507758
-0.0526021
-0.0544771
-0.0572106
-0.0601354
-0.0633416
-0.0666267
-0.0699119
-0.0738186
-0.0787573
-0.0454708
-0.0467785
-0.0481942
-0.050324
-0.0526571
-0.0553827
-0.058193
-0.0609142
-0.06404
-0.068003
-0.0405362
-0.0414538
-0.0425102
-0.044174
-0.0460423
-0.0483076
-0.0505641
-0.0526919
-0.0552389
-0.058591
-0.0359588
-0.0365713
-0.0373593
-0.0386387
-0.040094
-0.0419186
-0.0436996
-0.0454501
-0.0476505
-0.0505018
-0.0317328
-0.0321106
-0.0326892
-0.033656
-0.0347653
-0.0362335
-0.0376799
-0.0391873
-0.0410913
-0.0434572
-0.027832
-0.028034
-0.028457
-0.0291838
-0.0300324
-0.0312497
-0.0324531
-0.033732
-0.0352992
-0.0372049
-0.024243
-0.0243223
-0.0246438
-0.0251975
-0.0258647
-0.0268609
-0.0277946
-0.0288197
-0.030116
-0.0317099
-0.020964
-0.0209683
-0.0212273
-0.021642
-0.0221376
-0.0229124
-0.0236277
-0.0245228
-0.0256756
-0.027017
-0.0179696
-0.017925
-0.0181373
-0.0184409
-0.0188196
-0.0194468
-0.0200276
-0.0208344
-0.0218143
-0.0228776
-0.0152517
-0.0151862
-0.0153764
-0.0156128
-0.0159215
-0.0164156
-0.0168515
-0.0175506
-0.0183676
-0.0192242
-0.0128001
-0.0127353
-0.0129142
-0.0131032
-0.0133602
-0.0137285
-0.0140493
-0.0146872
-0.0153864
-0.0160813
-0.0105995
-0.0105379
-0.0106998
-0.0108546
-0.0110892
-0.0113708
-0.011629
-0.0122314
-0.0128114
-0.0133558
-0.00866838
-0.00862012
-0.00876421
-0.00889824
-0.00911702
-0.00930822
-0.0095133
-0.0100744
-0.0105439
-0.0109862
-0.00697575
-0.00695737
-0.00708424
-0.00721106
-0.00742817
-0.00754475
-0.0077208
-0.00824194
-0.00861081
-0.00898652
-0.00548285
-0.00549293
-0.00560162
-0.00573989
-0.0059641
-0.00603417
-0.00621933
-0.00669904
-0.0069823
-0.00730897
-0.00427917
-0.00430183
-0.00437248
-0.00451825
-0.00474259
-0.00479193
-0.00499971
-0.00541759
-0.00562159
-0.00590815
-0.00332959
-0.00337727
-0.00343464
-0.00359501