/*--------------------------------*- C++ -*----------------------------------*\
| =========                 |                                                 |
| \\      /  F ield         | OpenFOAM: The Open Source CFD Toolbox           |
|  \\    /   O peration     | Version:  2312                                  |
|   \\  /    A nd           | Website:  www.openfoam.com                      |
|    \\/     M anipulation  |                                                 |
\*---------------------------------------------------------------------------*/
FoamFile
{
    version     2.0;
    format      ascii;
    arch        "LSB;label=32;scalar=64";
    class       surfaceScalarField;
    location    "96.9";
    object      phi;
}
// * * * * * * * * * * * * * * * * * * * * * * * * * * * * * * * * * * * * * //

dimensions      [0 3 -1 0 0 0 0];

oriented        oriented;

internalField   nonuniform List<scalar> 
10785
(
-0.00161776
0.00471871
-0.00310094
-0.00251707
0.00773451
-0.00683521
0.000354389
0.00522117
-0.00809263
0.010145
-0.00433326
-0.00545735
0.0292437
-0.0218136
0.00271497
0.0576508
-0.0453482
0.0169411
0.0926124
-0.0714016
0.03644
0.130046
-0.0966957
0.0592619
0.165515
-0.118907
0.0834385
0.195495
-0.136909
0.10693
0.217162
-0.150452
0.128784
0.231306
-0.160379
0.146235
0.238466
-0.168936
0.161776
0.243701
-0.1758
0.170565
-0.187528
0.182298
0.248932
-0.000656513
0.00537522
0.000902027
0.00617597
0.00857435
-0.00245115
0.0259548
-0.0217138
0.0530319
-0.0488907
0.0858544
-0.0781707
0.119054
-0.104601
0.147976
-0.125617
0.169936
-0.140868
0.184622
-0.151595
0.194036
-0.159866
0.201505
-0.167848
0.208991
-0.176422
0.218656
-0.185465
-0.195431
0.226558
0.000365973
0.00500925
0.00515232
0.00138963
0.0191673
-0.0164661
0.0436492
-0.0461957
0.0737586
-0.0790002
0.102905
-0.107317
0.126456
-0.128152
0.142976
-0.142137
0.153855
-0.151747
0.161874
-0.159614
0.169466
-0.167458
0.177198
-0.17558
0.184574
-0.183799
0.190854
-0.191745
-0.200231
0.195655
0.00137853
0.00363072
0.0102661
-0.00749791
0.0306563
-0.0368564
0.0580148
-0.0735541
0.0842613
-0.105247
0.104477
-0.127533
0.118055
-0.141731
0.127132
-0.151213
0.134238
-0.158854
0.140771
-0.166147
0.146743
-0.17343
0.152074
-0.18091
0.156941
-0.188666
0.162157
-0.19696
-0.206098
0.168024
0.00267918
0.000951533
0.0163463
-0.021165
0.040236
-0.0607461
0.0646215
-0.0979396
0.0832689
-0.123894
0.0954674
-0.139732
0.10337
-0.149633
0.109182
-0.157025
0.114039
-0.163711
0.118301
-0.170409
0.122355
-0.177484
0.126463
-0.185019
0.130706
-0.192909
0.134965
-0.201219
-0.209526
0.138393
0.00451642
-0.00356489
0.0220595
-0.0387081
0.0447211
-0.0834077
0.0630604
-0.116279
0.074938
-0.135772
0.0820956
-0.14689
0.0867149
-0.154252
0.0901726
-0.160482
0.0931713
-0.166709
0.0960851
-0.173323
0.0989409
-0.18034
0.101628
-0.187706
0.104159
-0.19544
0.106486
-0.203546
-0.21214
0.109099
0.00672508
-0.01029
0.0255354
-0.0575185
0.0438585
-0.101731
0.0562385
-0.128659
0.0632298
-0.142763
0.0670303
-0.15069
0.0693692
-0.156591
0.0711591
-0.162272
0.0727256
-0.168276
0.0740854
-0.174682
0.075261
-0.181516
0.076354
-0.188798
0.0774163
-0.196502
0.0785541
-0.204684
-0.212981
0.0793951
0.00861123
-0.0189012
0.0257136
-0.0746209
0.0391899
-0.115207
0.0467248
-0.136194
0.0501675
-0.146206
0.0516036
-0.152126
0.0522243
-0.157212
0.0524684
-0.162516
0.0524497
-0.168257
0.0522418
-0.174474
0.0519022
-0.181176
0.0514389
-0.188335
0.0509006
-0.195964
0.0501971
-0.20398
0.0496622
-0.212446
-0.00229843
-0.000900167
0.0031986
-0.0068743
0.00526039
-0.000684531
-0.0130416
0.0123882
-0.00622097
-0.0202603
0.0189236
-0.0117048
-0.0279919
0.0258549
-0.0181233
-0.0357207
0.0339374
-0.0262087
-0.0427999
0.043141
-0.0360617
-0.0483665
0.053062
-0.0474954
-0.0513673
0.063022
-0.0600211
-0.0506371
0.0720149
-0.0727452
-0.0451143
0.0788098
-0.0843326
-0.0338871
0.081866
-0.0930932
-0.0162754
0.079634
-0.0972457
0.00835787
0.0704095
-0.0950428
0.0557586
0.0385078
-0.0859085
-0.00128646
0.000386289
-0.00389117
0.00786511
-0.00771294
0.01621
-0.0122236
0.0234343
-0.016583
0.0302143
-0.0199672
0.0373217
-0.0215666
0.0447404
-0.0204926
0.0519879
-0.0157331
0.0582625
-0.00633157
0.0626134
0.00863357
0.0638447
0.0297637
0.0607359
0.0560849
0.0533128
0.0889095
0.0375849
0.0191191
0.125549
-0.000178977
0.000565266
-0.000468716
0.00815485
-0.00123127
0.0169725
-0.00223253
0.0244356
-0.00254352
0.0305252
-0.00111426
0.0358924
0.00296569
0.0406604
0.010588
0.0443657
0.0224512
0.0463993
0.0393904
0.0456742
0.0609924
0.0422426
0.0883506
0.0333777
0.119812
0.021851
0.154162
0.00323476
-0.0211021
0.194384
0.000467508
9.77588e-05
0.00188226
0.00674009
0.00381839
0.0150364
0.00620033
0.0220536
0.00967371
0.0270519
0.0152529
0.0303132
0.023885
0.0320284
0.0363509
0.0318997
0.0527595
0.0299907
0.0740733
0.0243604
0.0989583
0.0173577
0.128405
0.00393117
0.162396
-0.0121397
0.199134
-0.0335035
-0.0639838
0.242016
0.000421107
-0.000323349
0.00224228
0.00491892
0.00544922
0.0118295
0.00991803
0.0175848
0.0159394
0.0210305
0.0241674
0.0220852
0.0352856
0.0209102
0.0498889
0.0172964
0.0683956
0.011484
0.091267
0.001489
0.119038
-0.0104136
0.152641
-0.0296714
0.190957
-0.0504558
0.235658
-0.0782045
-0.11162
0.283294
-0.000263998
-5.93507e-05
0.000577489
0.00407743
0.00314129
0.00926568
0.00752427
0.0132018
0.0139041
0.0146506
0.022801
0.0131884
0.0351077
0.00860351
0.0518915
0.00051258
0.07472
-0.0113444
0.103415
-0.0272065
0.139964
-0.0469619
0.181838
-0.071546
0.228234
-0.0968516
0.277253
-0.127223
-0.153106
0.318738
-0.00124312
0.00118377
-0.00214034
0.00497465
-0.00131704
0.00844238
0.00189837
0.00998643
0.00840099
0.00814797
0.019677
0.00191239
0.0372931
-0.00901258
0.0622666
-0.024461
0.0950306
-0.0441084
0.133953
-0.0661292
0.178139
-0.0911477
0.22184
-0.115247
0.264631
-0.139642
0.298384
-0.160976
-0.174116
0.319394
-0.00191717
-0.00377773
-0.00342798
0.0011011
0.011964
0.0308176
0.058245
0.0930459
0.132376
0.173176
0.210813
0.241801
0.263934
0.273523
0.281705
0.0991387
0.0585208
-0.119152
0.15249
-0.104914
0.0515623
0.181071
-0.255894
0.227313
0.194887
-0.356578
0.342761
0.194152
-0.346218
0.346954
0.156596
-0.327527
0.365083
0.136255
-0.341227
0.361568
0.168915
-0.185632
0.152972
0.220759
0.071134
-0.122978
0.258366
0.218706
-0.256313
0.260302
0.3045
-0.306435
0.243374
0.388922
-0.371995
0.237849
0.406132
-0.400607
0.253057
0.270226
-0.285435
0.269861
0.0450839
-0.0618878
0.279083
-0.164951
0.155729
0.285152
-0.405311
0.399242
0.289082
-0.504746
0.500816
0.287317
-0.384477
0.386242
0.296264
-0.107474
0.0985272
0.30717
0.333256
-0.344161
0.311329
0.593298
-0.597458
0.314465
0.47103
-0.474165
0.317774
0.163647
-0.166956
0.305934
-0.50889
0.52073
0.312589
-0.863717
0.857061
0.313738
0.0204905
-0.0216389
0.294154
0.861705
-0.842122
0.265805
0.342737
-0.314387
0.26208
-0.429562
0.433287
0.2717
-0.177686
0.168066
0.261783
0.204311
-0.194394
0.246074
0.117561
-0.101852
0.25808
-0.194686
0.18268
0.264361
0.0789579
-0.0852394
0.244469
0.138835
-0.118943
0.227787
-0.0688496
0.0855315
-0.00422293
0.00944778
0.168719
0.0153503
0.206365
-0.14256
0.221416
-0.270945
0.209881
-0.345043
0.196163
-0.3325
0.16051
-0.291874
0.127199
-0.307917
0.152213
-0.210646
0.211563
0.0117844
0.254988
0.175281
0.256324
0.303164
0.23541
0.409836
0.230018
0.411525
0.251407
0.248837
0.270839
0.0256525
0.277356
-0.171468
0.277368
-0.405323
0.280654
-0.508031
0.280901
-0.384724
0.292413
-0.118987
0.309144
0.316525
0.31453
0.587912
0.315921
0.469639
0.31783
0.161738
0.29859
-0.489651
0.299353
-0.86448
0.312471
0.00737267
0.300935
0.873242
0.269463
0.374208
0.261373
-0.421472
0.272174
-0.188487
0.262996
0.21349
0.24501
0.135547
0.256968
-0.206643
0.265506
0.0704197
0.246557
0.157784
0.230335
-0.0526278
0.000772276
0.226097
-0.0163633
0.241488
-0.15795
0.240591
-0.270047
0.21545
-0.319902
0.193566
-0.310617
0.166107
-0.264415
0.132124
-0.273934
0.145999
-0.224521
0.204083
-0.0462994
0.252298
0.127066
0.262745
0.292718
0.242776
0.429805
0.23098
0.423321
0.249896
0.229921
0.269784
0.00576441
0.27373
-0.175414
0.266706
-0.398299
0.268314
-0.50964
0.271597
-0.388007
0.284937
-0.132328
0.307313
0.29415
0.314471
0.580754
0.313467
0.470642
0.313559
0.161647
0.28802
-0.464111
0.282133
-0.858593
0.30811
-0.018604
0.305834
0.875518
0.271699
0.408343
0.258809
-0.408582
0.270836
-0.200515
0.262921
0.221405
0.242835
0.155633
0.254402
-0.21821
0.265567
0.0592551
0.248013
0.175338
0.232458
-0.0370726
0.00529673
0.271853
-0.0462006
0.276033
-0.16213
0.254621
-0.248635
0.216454
-0.281735
0.188139
-0.282302
0.167502
-0.243777
0.13994
-0.246372
0.150549
-0.23513
0.205546
-0.101296
0.255654
0.0769577
0.265322
0.283049
0.240917
0.454211
0.228267
0.43597
0.245721
0.212467
0.265522
-0.0140368
0.266907
-0.176798
0.253509
-0.384902
0.252694
-0.508824
0.259866
-0.395179
0.274825
-0.147286
0.300695
0.26828
0.309271
0.572178
0.306331
0.473582
0.304891
0.163087
0.274466
-0.433686
0.262825
-0.846952
0.299504
-0.0552826
0.306688
0.868334
0.271737
0.443294
0.254451
-0.391295
0.267759
-0.213823
0.261589
0.227575
0.239739
0.177482
0.250616
-0.229087
0.264607
0.0452642
0.248828
0.191116
0.234152
-0.0223964
0.00911013
0.304923
-0.067829
0.295933
-0.15314
0.260814
-0.213516
0.217594
-0.238515
0.185376
-0.250084
0.167953
-0.226355
0.14248
-0.220899
0.149692
-0.242342
0.204648
-0.156253
0.254146
0.0274602
0.270774
0.266421
0.255626
0.469359
0.240863
0.450733
0.247013
0.206317
0.259739
-0.0267632
0.258045
-0.175104
0.239246
-0.366103
0.234305
-0.503883
0.244347
-0.405222
0.26088
-0.163819
0.291108
0.238051
0.303022
0.560264
0.297708
0.478896
0.293255
0.16754
0.258751
-0.399182
0.242008
-0.83021
0.288218
-0.101493
0.306141
0.850411
0.270481
0.478953
0.248735
-0.369549
0.26324
-0.228327
0.259185
0.23163
0.235983
0.200684
0.24592
-0.239024
0.262752
0.0284318
0.249019
0.204849
0.235423
-0.00880039
0.0119761
0.320298
-0.0693887
0.293514
-0.126356
0.25105
-0.171052
0.210948
-0.198414
0.181351
-0.220486
0.166415
-0.211419
0.142761
-0.197245
0.135709
-0.235289
0.186984
-0.207529
0.245458
-0.0310135
0.275554
0.236324
0.267803
0.47711
0.24712
0.471415
0.245352
0.208086
0.251904
-0.0333155
0.246388
-0.169587
0.223703
-0.343418
0.214283
-0.494464
0.2261
-0.417038
0.24427
-0.181988
0.276516
0.205805
0.291268
0.545512
0.285908
0.484256
0.279092
0.174357
0.242056
-0.362146
0.221317
-0.809471
0.272886
-0.153061
0.300714
0.822582
0.265918
0.513749
0.241587
-0.345218
0.2573
-0.24404
0.255698
0.233233
0.231745
0.224636
0.240619
-0.247897
0.260162
0.00888834
0.248636
0.216376
0.236291
0.00354444
0.0136712
0.304226
-0.0542207
0.271493
-0.0936227
0.233408
-0.132968
0.198028
-0.163034
0.171466
-0.193924
0.158366
-0.198319
0.14107
-0.179949
0.118746
-0.212965
0.149536
-0.238318
0.224093
-0.105571
0.273824
0.186593
0.278198
0.472737
0.26059
0.489023
0.245364
0.223312
0.241083
-0.0290348
0.231476
-0.159981
0.205816
-0.317757
0.19245
-0.481098
0.204044
-0.428633
0.224722
-0.202666
0.261633
0.168894
0.28113
0.526015
0.275454
0.489931
0.264744
0.185066
0.225397
-0.322799
0.200535
-0.78461
0.257016
-0.209541
0.295465
0.784133
0.260539
0.548676
0.233942
-0.318621
0.250349
-0.260447
0.251421
0.23216
0.227276
0.248781
0.23503
-0.255651
0.257004
-0.0130854
0.247754
0.225626
0.236783
0.0145148
0.0139976
0.266729
-0.0392451
0.242503
-0.0693958
0.215759
-0.106224
0.186055
-0.13333
0.159765
-0.167634
0.146279
-0.184834
0.134728
-0.168397
0.110893
-0.18913
0.111457
-0.238882
0.170921
-0.165035
0.244903
0.112611
0.278814
0.438826
0.26477
0.503067
0.24341
0.244672
0.233009
-0.0186335
0.218632
-0.145604
0.188648
-0.287773
0.169852
-0.462301
0.180194
-0.438975
0.201872
-0.224345
0.239827
0.13094
0.264629
0.501213
0.262644
0.491916
0.250297
0.197413
0.209532
-0.282034
0.180136
-0.755214
0.237663
-0.267068
0.284747
0.737049
0.252613
0.58081
0.225463
-0.291471
0.242379
-0.277363
0.246245
0.228294
0.222661
0.272365
0.229432
-0.262422
0.25344
-0.037093
0.246482
0.232584
0.236953
0.0240434
0.012797
0.501382
-0.0315101
-0.509117
0.492163
-0.0601771
0.475324
-0.0893846
0.451939
-0.109945
0.424289
-0.139985
0.394076
-0.154621
0.370592
-0.144914
0.341735
-0.160273
0.288132
-0.185279
0.259193
-0.136095
0.26506
0.106743
0.269746
0.43414
0.316796
0.456017
0.395338
0.166131
0.436109
-0.0594048
0.446736
-0.156232
0.434342
-0.275379
0.403442
-0.431401
0.373545
-0.409077
0.335744
-0.186544
0.31961
0.147074
0.328011
0.492812
0.366872
0.453055
0.41751
0.146775
0.408297
-0.272821
0.339385
-0.686302
0.345136
-0.272819
0.381777
0.700408
0.383929
0.578659
0.373987
-0.28153
0.379265
-0.28264
0.368461
0.239098
0.3415
0.299326
0.352591
-0.273513
0.379029
-0.0635311
0.366696
0.244917
0.351894
0.0388453
0.013531
0.524672
-0.0247824
-0.5314
0.512633
-0.0481378
0.493971
-0.0707227
0.472317
-0.0882905
0.444066
-0.111734
0.409512
-0.120066
0.378495
-0.113897
0.359082
-0.140859
0.311817
-0.138014
0.248763
-0.0730419
0.240624
0.114883
0.287596
0.387168
0.390981
0.352632
0.473382
0.0837295
0.495199
-0.0812214
0.490288
-0.151321
0.462308
-0.247399
0.419699
-0.388793
0.380419
-0.369797
0.334958
-0.141084
0.318117
0.163915
0.337246
0.473683
0.398231
0.39207
0.458395
0.0866116
0.429978
-0.244405
0.350802
-0.607126
0.361207
-0.283224
0.406164
0.65545
0.416001
0.568821
0.409824
-0.275353
0.412423
-0.285239
0.399756
0.251765
0.374366
0.324717
0.386149
-0.285296
0.41431
-0.091693
0.402044
0.257183
0.386749
0.0541401
0.0132828
0.552146
-0.0202672
-0.556661
0.542687
-0.0386795
0.528939
-0.0569746
0.511247
-0.0705984
0.485462
-0.0859485
0.462526
-0.0971302
0.433658
-0.0850295
0.393805
-0.101006
0.348392
-0.0926007
0.294382
-0.019032
0.29148
0.117785
0.379911
0.298736
0.501588
0.230956
0.554412
0.0309051
0.548957
-0.0757663
0.535889
-0.138252
0.502989
-0.214499
0.442285
-0.328089
0.377688
-0.3052
0.317016
-0.0804118
0.304269
0.176663
0.350069
0.427883
0.436946
0.305193
0.5039
0.0196576
0.463742
-0.204246
0.362709
-0.506093
0.36922
-0.289735
0.428913
0.595757
0.453252
0.544482
0.449522
-0.271623
0.447464
-0.283181
0.432917
0.266311
0.412195
0.345439
0.425149
-0.29825
0.453961
-0.120505
0.44132
0.269824
0.42511
0.07035
0.012129
0.584343
-0.0162669
-0.588343
0.575848
-0.0301852
0.560889
-0.0420156
0.544392
-0.0541013
0.522384
-0.0639401
0.497761
-0.0725071
0.476581
-0.0638501
0.446956
-0.0713808
0.411979
-0.0576236
0.381165
0.0117812
0.406331
0.0926187
0.502051
0.203017
0.589555
0.143451
0.613499
0.00696156
0.591284
-0.0535519
0.564169
-0.111138
0.523822
-0.174151
0.453513
-0.25778
0.366512
-0.218199
0.292897
-0.00679708
0.297006
0.172554
0.376634
0.348254
0.479325
0.202502
0.546434
-0.0474512
0.497829
-0.155641
0.373046
-0.38131
0.364866
-0.281556
0.449534
0.51109
0.498661
0.495355
0.496124
-0.269087
0.485539
-0.272595
0.469952
0.281898
0.456902
0.358489
0.471181
-0.31253
0.499937
-0.149261
0.486488
0.283273
0.468273
0.0885653
0.0106424
0.619899
-0.011883
-0.624283
0.612141
-0.0224274
0.600879
-0.0307538
0.587443
-0.0406651
0.569816
-0.0463127
0.55027
-0.0529607
0.531298
-0.0448782
0.506681
-0.0467642
0.481958
-0.0329004
0.473952
0.0197875
0.510464
0.0561058
0.586683
0.126798
0.640221
0.0899128
0.645389
0.0017939
0.62679
-0.0349531
0.608135
-0.0924826
0.569082
-0.135098
0.495553
-0.18425
0.403302
-0.125948
0.338017
0.0584879
0.357576
0.152996
0.449735
0.256095
0.53913
0.113108
0.592931
-0.101253
0.549713
-0.112423
0.405757
-0.237354
0.369776
-0.245575
0.48027
0.400597
0.557746
0.417879
0.550528
-0.261869
0.525094
-0.247161
0.510025
0.296967
0.508957
0.359557
0.524503
-0.328076
0.552097
-0.176854
0.537759
0.297611
0.516663
0.109661
0.00937509
0.661221
-0.00830236
-0.664802
0.655466
-0.0166716
0.646029
-0.0213176
0.634767
-0.0294027
0.620234
-0.0317795
0.603771
-0.0364975
0.589955
-0.0310627
0.572018
-0.0288274
0.559088
-0.0199697
0.561315
0.01756
0.587475
0.0299458
0.637488
0.0767854
0.675442
0.051959
0.679143
-0.00190713
0.658861
-0.0146712
0.639539
-0.0731611
0.605514
-0.101072
0.545931
-0.124667
0.482359
-0.0623769
0.448399
0.0924477
0.486742
0.114653
0.571186
0.17165
0.619345
0.064949
0.638047
-0.119955
0.608554
-0.0829293
0.473896
-0.102696
0.405994
-0.177673
0.522908
0.283682
0.622972
0.317816
0.60787
-0.246768
0.55864
-0.197931
0.548491
0.307117
0.569614
0.338434
0.585629
-0.344091
0.608397
-0.199622
0.594213
0.311794
0.571681
0.132194
0.00866051
0.709405
-0.00523434
-0.712473
0.704354
-0.0116207
0.696972
-0.0139359
0.687839
-0.0202698
0.677184
-0.0211238
0.664785
-0.024099
0.655103
-0.0213803
0.642674
-0.0163989
0.636177
-0.0134725
0.640274
0.0134628
0.655951
0.0142694
0.689504
0.0432318
0.71052
0.0309435
0.71484
-0.00622755
0.708593
-0.00842374
0.690651
-0.05522
0.655735
-0.0661556
0.605631
-0.0745632
0.578165
-0.0349108
0.581685
0.0889275
0.61992
0.0764186
0.687674
0.103896
0.707817
0.044806
0.686677
-0.0988154
0.669824
-0.0660761
0.585818
-0.0186907
0.507125
-0.0989794
0.598633
0.192174
0.697964
0.218485
0.670262
-0.219066
0.603759
-0.131428
0.609615
0.301261
0.652366
0.295684
0.655729
-0.347454
0.670728
-0.214622
0.660808
0.321715
0.637019
0.155982
0.0100526
0.764108
-0.00274046
-0.766602
0.75994
-0.00745285
0.754604
-0.00859987
0.747382
-0.0130476
0.739971
-0.013713
0.730671
-0.0147987
0.723871
-0.0145808
0.716148
-0.00867518
0.712175
-0.00949954
0.717201
0.00843661
0.724888
0.00658176
0.745989
0.0221315
0.760185
0.0167472
0.761644
-0.00768609
0.75652
-0.00330034
0.740385
-0.039085
0.718963
-0.0447332
0.683269
-0.0388691
0.672466
-0.0241085
0.695953
0.0654409
0.721883
0.0504882
0.761897
0.0638834
0.772671
0.0340311
0.739323
-0.0654673
0.726347
-0.0530995
0.691362
0.0162939
0.639572
-0.0471889
0.703975
0.12777
0.772706
0.149754
0.730641
-0.177002
0.668824
-0.0696105
0.704476
0.265609
0.758835
0.241325
0.731781
-0.3204
0.726994
-0.209835
0.725366
0.323343
0.707052
0.174296
0.0112845
0.825852
-0.000990696
-0.827602
0.822562
-0.00416264
0.81884
-0.00487742
0.813489
-0.00769707
0.808221
-0.00844532
0.801946
-0.00852291
0.796933
-0.00956877
0.792739
-0.00448034
0.789859
-0.00662033
0.793671
0.0046253
0.797693
0.00255912
0.809989
0.00983573
0.817799
0.00893691
0.817811
-0.0076977
0.817368
-0.00285703
0.803826
-0.0255438
0.788194
-0.0291011
0.766515
-0.0171901
0.760245
-0.0178382
0.781917
0.0437685
0.799784
0.0326219
0.825105
0.0385616
0.834018
0.0251184
0.803663
-0.0351122
0.787535
-0.0369712
0.777368
0.0264611
0.754776
-0.0245971
0.802698
0.0798482
0.841837
0.110615
0.794103
-0.129267
0.749848
-0.0253559
0.809598
0.205859
0.864032
0.186891
0.801842
-0.258211
0.767282
-0.175274
0.782709
0.307916
0.785175
0.17183
0.0089227
0.894998
0.000261078
-0.89625
0.892589
-0.00175355
0.889996
-0.00228501
0.886286
-0.00398726
0.882588
-0.00474705
0.878595
-0.00453019
0.874854
-0.00582687
0.87262
-0.00224673
0.870375
-0.00437508
0.872813
0.00218713
0.874897
0.000475076
0.881022
0.00371076
0.886114
0.00384491
0.884668
-0.00625165
0.884271
-0.00246013
0.874098
-0.0153708
0.863609
-0.0186119
0.852836
-0.00641766
0.847355
-0.012357
0.862704
0.0284196
0.87574
0.0195863
0.888462
0.0258394
0.895986
0.0175944
0.876164
-0.01529
0.862649
-0.0234566
0.862609
0.0265011
0.84867
-0.0106577
0.880371
0.0481465
0.907541
0.0834459
0.867909
-0.0896361
0.838861
0.00369249
0.902855
0.141865
0.948072
0.141674
0.865247
-0.175386
0.814806
-0.124833
0.859673
0.263048
0.886165
0.145338
0.00790721
0.971806
0.00114258
-0.972687
0.970174
-0.000122137
0.968409
-0.00052012
0.96599
-0.00156733
0.963437
-0.00219442
0.960935
-0.00202859
0.958265
-0.00315625
0.956946
-0.000928542
0.955307
-0.00273532
0.95642
0.00107366
0.957424
-0.000528676
0.960003
0.00113123
0.962672
0.00117611
0.960849
-0.00442876
0.960672
-0.00228272
0.954202
-0.00890124
0.946829
-0.0112386
0.941844
-0.00143276
0.937494
-0.00800667
0.946513
0.0194008
0.955852
0.0102474
0.963137
0.0185541
0.968994
0.0117371
0.956846
-0.00314188
0.944908
-0.0115183
0.947771
0.023638
0.938877
-0.00176372
0.958547
0.0284765
0.979913
0.0620801
0.949813
-0.0595366
0.930025
0.0234812
0.98433
0.0875601
1.01943
0.106578
0.938649
-0.0946099
0.89277
-0.0789542
0.961746
0.194073
0.997018
0.110066
0.0140902
1.05668
0.00169235
-1.05723
1.05562
0.000942089
1.05447
0.000630632
1.05294
-3.93434e-05
1.05127
-0.000526705
1.04969
-0.000453151
1.04788
-0.00134307
1.047
-4.96683e-05
1.04575
-0.00148211
1.04611
0.000718137
1.04631
-0.000737046
1.04708
0.00036299
1.04835
-9.10904e-05
1.04665
-0.00273401
1.04616
-0.00179253
1.04199
-0.00472963
1.03706
-0.0063014
1.03498
0.000641453
1.03193
-0.00495168
1.03761
0.013717
1.04332
0.00453951
1.04676
0.0151165
1.05096
0.00753545
1.04387
0.00394702
1.03568
-0.00333366
1.03993
0.0193954
1.03351
0.00464789
1.04349
0.0184964
1.06081
0.0447695
1.04055
-0.0392864
1.02856
0.0354757
1.06763
0.0484928
1.0921
0.0821039
1.0273
-0.0298105
0.996172
-0.0478243
1.06744
0.122808
1.09635
0.0811546
0.024814
1.15008
0.00199264
-1.15038
1.14946
0.00156161
1.14877
0.00132025
1.14781
0.000915113
1.14676
0.000527079
1.14577
0.000532548
1.14458
-0.000143881
1.14395
0.000574528
1.143
-0.000529701
1.14292
0.000792967
1.1427
-0.000517176
1.14266
0.000404976
1.143
-0.000425193
1.14152
-0.00125715
1.14095
-0.0012183
1.1384
-0.00218167
1.1353
-0.00320349
1.13451
0.00143419
1.13232
-0.00276615
1.13584
0.0102016
1.13892
0.00146123
1.14087
0.0131638
1.14402
0.00437998
1.13983
0.00814103
1.13419
0.00230887
1.13817
0.0154112
1.13412
0.00870368
1.13962
0.0129897
1.15257
0.0318251
1.13881
-0.0255278
1.13313
0.0411526
1.15939
0.0222321
1.17547
0.0660303
1.12942
0.0162354
1.11168
-0.0300824
1.16939
0.0650942
1.1887
0.0618416
0.0342205
1.25255
0.00211171
-1.25267
1.25224
0.001879
1.25187
0.00169043
1.25133
0.00145037
1.25071
0.0011504
1.25011
0.00113014
1.24934
0.000625806
1.24889
0.00102413
1.24818
0.000178429
1.24795
0.00102499
1.24754
-0.000110685
1.2472
0.000746905
1.24706
-0.000280765
1.24594
-0.000137183
1.24532
-0.000598209
1.24374
-0.000605401
1.24179
-0.0012514
1.2415
0.00172312
1.24001
-0.00127315
1.24228
0.0079339
1.24375
-1.53616e-05
1.24473
0.0121834
1.24683
0.00228263
1.24446
0.0105119
1.24151
0.00526064
1.24462
0.0123022
1.24228
0.0110441
1.24523
0.0100396
1.25455
0.0225034
1.24546
-0.0164419
1.24509
0.041527
1.26185
0.0054677
1.27066
0.0572222
1.24127
0.0456278
1.23369
-0.0225007
1.27452
0.0242628
1.28637
0.049987
0.040081
1.36483
0.00209179
-1.36481
1.36473
0.00198266
1.36459
0.00183507
1.36433
0.00170211
1.36401
0.00147464
1.36369
0.00144889
1.36323
0.00108473
1.36294
0.00131362
1.36244
0.000677171
1.36221
0.00125824
1.36179
0.000310103
1.36142
0.00111494
1.36108
6.41653e-05
1.36027
0.000672946
1.35969
-2.54701e-05
1.35869
0.000399443
1.35749
-5.0739e-05
1.35738
0.00182879
1.35631
-0.000197174
1.35782
0.0064191
1.35825
-0.000446975
1.35914
0.0112973
1.36039
0.00103352
1.35931
0.0115863
1.35802
0.00655251
1.36019
0.0101324
1.35906
0.0121804
1.36128
0.00781566
1.36791
0.0158709
1.36137
-0.0099022
1.36449
0.0384124
1.37449
-0.00453353
1.37902
0.0526899
1.36353
0.0611161
1.36101
-0.0199735
1.38712
-0.00185623
1.39514
0.0419713
0.0423313
1.48772
0.00196808
-1.4876
1.48777
0.00193335
1.4878
0.00180748
1.48776
0.00174504
1.48767
0.00156639
1.48756
0.00155149
1.48736
0.00129255
1.48724
0.00143404
1.48693
0.000980641
1.48679
0.0014033
1.48645
0.000651127
1.48616
0.00140313
1.4858
0.000423247
1.48522
0.00125592
1.48474
0.000451357
1.48405
0.00108574
1.48329
0.000711424
1.48324
0.00188317
1.48244
0.00060188
1.48358
0.00527985
1.48348
-0.000350389
1.48441
0.0103715
1.48518
0.000255498
1.48479
0.0119797
1.48476
0.00657813
1.48626
0.00864053
1.48593
0.0125056
1.4877
0.00604511
1.49241
0.011158
1.48767
-0.00515481
1.49306
0.0330192
1.4983
-0.00977723
1.50028
0.0507143
1.4954
0.0659971
1.49542
-0.0199903
1.51041
-0.0168497
1.51643
0.0359475
0.0416766
1.62218
0.00175505
-1.62197
1.62235
0.00176248
1.62252
0.00163443
1.62264
0.00162503
1.62275
0.00145921
1.62283
0.00147452
1.62285
0.0012729
1.62289
0.00138784
1.62279
0.00107986
1.62278
0.00141317
1.62255
0.000882666
1.62241
0.00154435
1.62207
0.00076804
1.62168
0.00163962
1.62126
0.00087265
1.62074
0.00160276
1.62025
0.00120713
1.62016
0.00197629
1.61961
0.00115185
1.62054
0.00434406
1.62017
1.68163e-05
1.62146
0.00908736
1.62175
-3.57672e-05
1.62217
0.0115576
1.62278
0.00596771
1.62389
0.00753702
1.62422
0.0121745
1.6259
0.00436231
1.62875
0.0083037
1.62531
-0.00171156
1.63195
0.0263824
1.63294
-0.0107684
1.63584
0.0478136
1.63942
0.0624124
1.63858
-0.019148
1.64473
-0.022997
1.65033
0.0303425
0.0385291
1.7692
0.00145251
-1.7689
1.76949
0.00146957
1.76982
0.00131291
1.7701
0.00133954
1.77042
0.0011427
1.77068
0.00121215
1.77095
0.0010065
1.77117
0.0011661
1.7713
0.000946283
1.77145
0.00126859
1.77135
0.000978149
1.77135
0.00154363
1.77101
0.00110839
1.77077
0.00187761
1.77032
0.00132956
1.76987
0.00204717
1.76952
0.00155967
1.7693
0.00219189
1.76906
0.0014005
1.76983
0.00356479
1.76945
0.000397406
1.77123
0.00730679
1.77109
0.000107053
1.77236
0.0102942
1.77345
0.00487298
1.7741
0.00688605
1.77531
0.010969
1.7768
0.00287105
1.77746
0.00763976
1.77548
0.000273004
1.78286
0.0190028
1.77982
-0.00773055
1.78535
0.0422811
1.79582
0.0519476
1.79265
-0.0159796
1.79209
-0.0224385
1.798
0.0244297
0.0334319
1.93061
0.00112518
-1.93028
1.93096
0.00112236
1.93131
0.000965027
1.93164
0.00100626
1.932
0.000787201
1.93229
0.000921362
1.93262
0.000672584
1.93285
0.000937145
1.93309
0.000705276
1.93325
0.00110594
1.93329
0.000940124
1.93339
0.00144446
1.93316
0.00134349
1.93316
0.00186974
1.93276
0.00173011
1.93259
0.00222423
1.93236
0.00178633
1.93206
0.00248851
1.93215
0.00131433
1.9325
0.0032097
1.93227
0.00063013
1.93454
0.00503403
1.93373
0.000915768
1.93679
0.00723743
1.93804
0.00362965
1.93853
0.00639146
1.94127
0.00822599
1.94157
0.00257738
1.93944
0.00976887
1.93914
0.00056673
1.94494
0.0132038
1.93753
-0.000322894
1.95172
0.0280961
1.97119
0.0324767
1.96105
-0.00584263
1.94925
-0.0106398
1.9555
0.0181835
0.0245963
2.10797
0.00089526
-2.10774
2.1082
0.000896539
2.10835
0.000810839
2.10851
0.000852376
2.10858
0.000711223
2.10867
0.000836228
2.10869
0.000647001
2.10874
0.00088709
2.10877
0.000677018
2.10885
0.00102595
2.10894
0.000849963
2.10913
0.00125479
2.10932
0.00116055
2.10965
0.00153962
2.10991
0.00146822
2.11027
0.00185771
2.11056
0.00150132
2.11079
0.00225455
2.11099
0.0011125
2.11137
0.00283115
2.11124
0.000766943
2.1128
0.00346778
2.11238
0.00134111
2.11523
0.00438209
2.11621
0.00265497
2.11755
0.00504532
2.12039
0.00539443
2.12002
0.00294195
2.12027
0.00951939
2.12004
0.000794016
2.12274
0.0105051
2.11906
0.00336219
2.13232
0.0148282
2.14906
0.0157377
2.14125
0.00197285
2.12767
0.0029381
2.13226
0.013592
0.0148165
2.30102
0.000665172
-2.30079
2.30123
0.000683124
2.30139
0.00065872
2.30155
0.000690994
2.30162
0.000642475
2.30174
0.000707381
2.30176
0.000631221
2.3019
0.000748464
2.30194
0.000638802
2.30214
0.000824058
2.30231
0.000678975
2.30262
0.000939925
2.30302
0.000763312
2.30348
0.00108582
2.30407
0.000876777
2.30466
0.00125985
2.3052
0.000963223
2.30595
0.0015069
2.30614
0.000923885
2.30704
0.00193222
2.307
0.000802056
2.30797
0.00250309
2.30831
0.00100211
2.30969
0.00299866
2.31041
0.00193878
2.31234
0.0031145
2.314
0.00372692
2.3146
0.00234862
2.31824
0.00587483
2.31764
0.00139919
2.32036
0.00777781
2.32183
0.00189399
2.32707
0.00958744
2.33396
0.00884827
2.33409
0.00184401
2.33124
0.00579179
2.33503
0.00979754
0.00863712
2.51176
0.000348841
-2.51144
2.51208
0.000361565
2.51239
0.000351115
2.51271
0.000371412
2.513
0.00034838
2.51332
0.000385106
2.51361
0.000347276
2.51395
0.000409787
2.51423
0.000354624
2.51461
0.000449731
2.51491
0.000376801
2.51534
0.000509205
2.51568
0.000417269
2.51618
0.000589675
2.51659
0.000465873
2.51716
0.000693211
2.51762
0.000498108
2.5183
0.000829339
2.51873
0.000493938
2.51965
0.00100975
2.51996
0.000495642
2.52124
0.00121905
2.52161
0.000634553
2.52317
0.00143826
2.52406
0.00104931
2.52561
0.0015611
2.52742
0.00192363
2.5285
0.00126199
2.5312
0.00317794
2.53168
0.000920563
2.53556
0.00389796
2.53599
0.00146824
2.54143
0.00414071
2.54671
0.00357384
2.5467
0.00185359
2.54814
0.0043479
2.55298
0.00495904
0.00386597
2.74315
-2.7428
2.74351
2.74386
2.74424
2.74458
2.74497
2.74532
2.74573
2.74608
2.74653
2.74691
2.74742
2.74783
2.74842
2.74889
2.74958
2.75008
2.75091
2.7514
2.75241
2.75291
2.75413
2.75476
2.7562
2.75725
2.75881
2.76074
2.762
2.76518
2.7661
2.76999
2.77146
2.7756
2.77918
2.78103
2.78538
2.79034
0.435857
0.0424234
-0.428618
0.445035
0.070217
0.452704
0.10143
0.462952
0.128145
0.471921
0.159054
0.48394
0.183636
0.497716
0.212782
0.237531
0.467416
0.0359592
-0.460952
0.475075
0.0625579
0.48264
0.0938655
0.491172
0.119613
0.500565
0.149661
0.509719
0.174483
0.520806
0.201695
0.226936
0.502567
0.0304355
-0.497044
0.508392
0.0567332
0.514914
0.0873431
0.521618
0.11291
0.52913
0.142149
0.536441
0.167172
0.54556
0.192576
0.215836
0.540486
0.025686
-0.535737
0.544977
0.0522429
0.550339
0.0819815
0.555655
0.107593
0.562269
0.135535
0.569947
0.159494
0.578912
0.183612
0.206405
0.582096
0.0219906
-0.578401
0.585777
0.048562
0.590621
0.0771375
0.595949
0.102265
0.602419
0.129065
0.609228
0.152685
0.616222
0.176618
0.198343
0.628153
0.0189217
-0.625084
0.631503
0.0452121
0.635859
0.0727812
0.640402
0.0977221
0.645429
0.124038
0.650788
0.147326
0.657141
0.170265
0.190682
0.67881
0.0165233
-0.676411
0.68152
0.042502
0.68496
0.0693409
0.688733
0.0939492
0.693397
0.119373
0.699141
0.141583
0.705523
0.163883
0.183733
0.734513
0.0147531
-0.732743
0.736829
0.0401858
0.740055
0.0661154
0.74397
0.0900342
0.748824
0.114519
0.754208
0.136199
0.760071
0.158019
0.177202
0.796302
0.0133439
-0.794893
0.79846
0.0380283
0.801576
0.0629988
0.805299
0.0863111
0.809858
0.10996
0.814935
0.131122
0.820998
0.151956
0.170598
0.864409
0.0122156
-0.86328
0.866365
0.0360719
0.869338
0.060026
0.872979
0.0826695
0.877698
0.105242
0.883104
0.125716
0.889445
0.145614
0.163794
0.939389
0.0112672
-0.938441
0.941288
0.0341729
0.944315
0.0569993
0.948166
0.0788181
0.953158
0.100251
0.958836
0.120038
0.965441
0.139009
0.156547
1.02187
0.0104123
-1.02102
1.02381
0.0322339
1.02694
0.0538709
1.03103
0.074729
1.03625
0.0950274
1.04231
0.113981
1.04938
0.131945
0.148692
1.11239
0.00961408
-1.11159
1.1144
0.0302243
1.11767
0.0505985
1.12206
0.0703408
1.12765