/*--------------------------------*- C++ -*----------------------------------*\
| =========                 |                                                 |
| \\      /  F ield         | OpenFOAM: The Open Source CFD Toolbox           |
|  \\    /   O peration     | Version:  2312                                  |
|   \\  /    A nd           | Website:  www.openfoam.com                      |
|    \\/     M anipulation  |                                                 |
\*---------------------------------------------------------------------------*/
FoamFile
{
    version     2.0;
    format      ascii;
    arch        "LSB;label=32;scalar=64";
    class       volScalarField;
    location    "13";
    object      p;
}
// * * * * * * * * * * * * * * * * * * * * * * * * * * * * * * * * * * * * * //

dimensions      [0 2 -2 0 0 0 0];

internalField   nonuniform List<scalar> 
32230
(
-0.329105
-0.329072
-0.32829
-0.326889
-0.325
-0.322746
-0.320296
-0.317856
-0.315653
-0.313908
-0.312821
-0.312553
-0.313205
-0.314815
-0.317354
-0.320723
-0.324765
-0.329269
-0.333993
-0.338675
-0.343057
-0.346903
-0.350015
-0.352246
-0.353505
-0.353754
-0.353002
-0.351292
-0.348691
-0.345266
-0.341095
-0.336216
-0.330723
-0.32446
-0.317663
-0.309228
-0.299759
-0.33052
-0.330556
-0.329802
-0.328417
-0.326549
-0.324317
-0.321878
-0.319419
-0.317145
-0.315261
-0.313947
-0.313344
-0.313539
-0.314555
-0.316347
-0.318805
-0.321762
-0.325009
-0.328314
-0.331445
-0.334186
-0.336359
-0.337831
-0.338519
-0.338386
-0.337434
-0.335692
-0.333198
-0.330001
-0.326137
-0.321641
-0.316526
-0.310793
-0.304381
-0.297289
-0.289208
-0.280977
-0.33301
-0.332953
-0.332138
-0.330723
-0.328858
-0.32665
-0.324238
-0.321785
-0.31947
-0.317468
-0.315935
-0.314988
-0.314694
-0.315057
-0.316018
-0.31746
-0.31922
-0.321105
-0.322919
-0.324476
-0.325621
-0.326238
-0.326254
-0.325634
-0.324369
-0.322473
-0.319967
-0.316877
-0.313226
-0.30903
-0.304308
-0.299048
-0.293278
-0.286916
-0.280071
-0.272553
-0.264992
-0.336533
-0.33624
-0.335269
-0.333765
-0.331849
-0.329625
-0.327209
-0.324738
-0.322358
-0.320213
-0.318428
-0.317093
-0.316249
-0.315881
-0.315922
-0.316257
-0.316743
-0.317225
-0.317554
-0.317605
-0.317283
-0.316526
-0.3153
-0.313592
-0.311403
-0.30874
-0.305616
-0.302039
-0.29802
-0.293567
-0.288686
-0.283376
-0.277653
-0.271485
-0.264991
-0.258021
-0.251316
-0.340996
-0.340356
-0.339144
-0.337468
-0.335429
-0.33312
-0.33064
-0.328097
-0.325602
-0.323265
-0.321173
-0.319383
-0.31791
-0.316727
-0.315767
-0.314935
-0.314125
-0.31323
-0.31216
-0.310846
-0.309239
-0.307312
-0.305049
-0.302443
-0.299492
-0.296197
-0.292559
-0.288578
-0.284257
-0.279598
-0.274606
-0.269283
-0.263646
-0.257687
-0.2515
-0.244997
-0.238754
-0.346317
-0.345246
-0.343716
-0.341789
-0.339548
-0.337082
-0.334469
-0.331789
-0.329113
-0.326509
-0.324023
-0.32168
-0.319475
-0.317379
-0.315346
-0.313316
-0.311231
-0.309039
-0.306701
-0.304186
-0.301477
-0.29856
-0.295425
-0.292063
-0.288468
-0.284633
-0.280552
-0.276221
-0.271639
-0.266805
-0.261724
-0.256399
-0.250847
-0.245065
-0.239135
-0.232975
-0.227093
-0.352448
-0.350892
-0.34898
-0.346738
-0.344228
-0.341537
-0.338723
-0.335828
-0.33288
-0.329897
-0.326889
-0.323856
-0.320792
-0.317688
-0.314532
-0.311311
-0.308017
-0.304643
-0.301183
-0.297632
-0.293982
-0.290225
-0.286349
-0.282342
-0.278193
-0.27389
-0.269424
-0.264789
-0.25998
-0.254996
-0.24984
-0.244515
-0.239033
-0.233396
-0.227663
-0.221771
-0.216143
-0.359394
-0.357312
-0.354974
-0.35237
-0.349541
-0.346564
-0.343473
-0.340261
-0.336909
-0.33339
-0.32969
-0.325808
-0.321757
-0.317566
-0.313268
-0.308898
-0.304486
-0.300052
-0.29561
-0.291162
-0.286703
-0.282222
-0.277706
-0.273137
-0.268503
-0.263788
-0.258982
-0.254077
-0.249067
-0.243949
-0.238723
-0.233393
-0.227964
-0.222441
-0.216863
-0.211184
-0.205748
-0.367194
-0.364549
-0.361757
-0.358761
-0.355571
-0.352247
-0.348779
-0.345113
-0.341179
-0.336926
-0.33234
-0.327444
-0.322295
-0.31697
-0.311545
-0.30609
-0.300657
-0.29528
-0.289975
-0.284744
-0.27958
-0.274467
-0.269388
-0.264325
-0.259262
-0.254183
-0.249077
-0.243934
-0.238746
-0.233508
-0.228219
-0.22288
-0.217492
-0.212061
-0.206608
-0.201104
-0.195822
-0.37589
-0.372649
-0.369384
-0.365977
-0.362385
-0.358631
-0.354655
-0.350349
-0.345617
-0.340408
-0.334739
-0.328687
-0.322363
-0.315889
-0.309374
-0.302908
-0.296547
-0.290326
-0.284254
-0.27833
-0.27254
-0.266865
-0.261287
-0.255785
-0.250341
-0.24494
-0.239567
-0.234212
-0.228865
-0.223521
-0.218175
-0.212824
-0.20747
-0.202113
-0.196766
-0.191411
-0.186254
-0.3855
-0.381634
-0.377886
-0.374048
-0.369998
-0.365701
-0.361042
-0.355874
-0.350099
-0.343709
-0.336785
-0.32947
-0.32193
-0.31432
-0.306768
-0.299362
-0.292155
-0.285169
-0.278408
-0.271861
-0.265509
-0.259331
-0.253305
-0.247411
-0.241629
-0.235941
-0.230333
-0.224792
-0.219307
-0.21387
-0.208474
-0.203115
-0.19779
-0.192499
-0.187244
-0.182021
-0.176972
-0.395999
-0.391487
-0.387248
-0.382952
-0.378361
-0.37337
-0.367809
-0.361524
-0.35446
-0.346687
-0.338373
-0.32973
-0.320966
-0.312256
-0.303723
-0.295444
-0.287457
-0.279772
-0.272382
-0.265268
-0.258408
-0.251777
-0.24535
-0.239106
-0.233023
-0.227082
-0.221268
-0.215564
-0.20996
-0.204444
-0.199008
-0.193644
-0.188349
-0.183118
-0.177949
-0.172847
-0.167892
-0.407304
-0.402141
-0.397404
-0.392603
-0.387355
-0.381471
-0.374756
-0.367089
-0.358506
-0.349188
-0.339395
-0.3294
-0.319434
-0.309668
-0.30021
-0.291116
-0.282407
-0.274078
-0.26611
-0.258479
-0.251157
-0.244117
-0.237331
-0.230775
-0.224427
-0.218266
-0.212273
-0.206432
-0.200728
-0.195149
-0.189684
-0.184324
-0.179062
-0.173892
-0.168809
-0.16382
-0.158954
-0.419268
-0.413463
-0.40822
-0.402845
-0.396781
-0.389768
-0.381624
-0.372321
-0.362027
-0.351052
-0.339742
-0.328405
-0.317276
-0.306507
-0.296178
-0.286324
-0.276943
-0.268018
-0.259519
-0.251416
-0.243677
-0.236269
-0.229164
-0.222335
-0.215756
-0.209405
-0.203262
-0.197307
-0.191524
-0.1859
-0.18042
-0.175074
-0.169853
-0.164748
-0.159755
-0.154877
-0.1501
-0.431676
-0.425259
-0.419493
-0.413444
-0.406367
-0.39796
-0.388116
-0.376957
-0.364818
-0.35213
-0.339307
-0.326669
-0.314431
-0.302715
-0.291572
-0.281008
-0.271005
-0.26153
-0.252546
-0.244016
-0.235901
-0.228168
-0.220784
-0.213718
-0.206944
-0.200435
-0.19417
-0.188127
-0.182288
-0.176636
-0.171157
-0.165838
-0.160667
-0.155636
-0.150738
-0.145973
-0.141294
-0.444245
-0.437261
-0.430946
-0.42409
-0.415771
-0.405701
-0.393916
-0.380741
-0.366687
-0.35229
-0.337999
-0.324124
-0.310845
-0.298245
-0.286344
-0.275123
-0.264547
-0.25457
-0.245148
-0.236235
-0.227789
-0.219772
-0.212148
-0.204883
-0.197948
-0.191313
-0.184955
-0.178851
-0.172978
-0.16732
-0.161859
-0.15658
-0.151471
-0.146521
-0.141725
-0.13707
-0.132497
-0.456624
-0.44913
-0.442219
-0.434393
-0.424588
-0.412604
-0.398697
-0.383422
-0.367453
-0.351402
-0.335722
-0.32069
-0.306444
-0.293027
-0.280427
-0.268605
-0.257507
-0.247077
-0.237264
-0.228014
-0.219282
-0.211023
-0.203199
-0.195773
-0.188711
-0.181983
-0.175562
-0.169422
-0.16354
-0.157896
-0.152472
-0.14725
-0.142216
-0.137357
-0.132667
-0.12812
-0.123661
-0.468414
-0.460464
-0.452888
-0.443903
-0.43237
-0.418262
-0.402111
-0.384711
-0.366872
-0.349248
-0.332268
-0.316165
-0.301029
-0.286863
-0.273628
-0.261262
-0.249698
-0.238871
-0.228717
-0.219181
-0.21021
-0.201755
-0.193774
-0.186226
-0.179075
-0.172288
-0.165834
-0.159688
-0.153823
-0.148217
-0.142851
-0.137706
-0.132765
-0.128016
-0.123444
-0.119014
-0.114688
-0.479193
-0.470857
-0.462546
-0.452213
-0.438718
-0.422294
-0.403796
-0.384253
-0.364589
-0.345465
-0.327271
-0.310181
-0.294235
-0.279397
-0.265599
-0.252759
-0.240797
-0.229636
-0.219205
-0.209443
-0.200289
-0.191693
-0.183605
-0.175983
-0.168787
-0.161983
-0.155536
-0.149418
-0.143603
-0.138065
-0.132785
-0.127743
-0.122921
-0.118307
-0.113883
-0.109606
-0.10547
-0.254389
-0.259382
-0.262859
-0.266378
-0.27089
-0.276599
-0.283526
-0.291632
-0.300843
-0.311072
-0.322223
-0.334195
-0.346877
-0.360146
-0.373874
-0.387956
-0.402227
-0.416533
-0.430722
-0.444635
-0.458116
-0.47101
-0.483164
-0.494432
-0.50468
-0.513789
-0.521644
-0.528131
-0.533137
-0.536616
-0.538519
-0.538801
-0.537435
-0.534458
-0.529834
-0.52362
-0.515908
-0.262254
-0.266661
-0.269853
-0.273225
-0.277646
-0.283313
-0.290245
-0.298398
-0.307696
-0.318048
-0.329355
-0.341511
-0.354403
-0.367905
-0.381888
-0.396213
-0.410729
-0.425278
-0.4397
-0.453832
-0.467509
-0.480572
-0.492861
-0.504229
-0.514535
-0.523654
-0.531475
-0.537891
-0.542809
-0.546163
-0.547915
-0.548038
-0.546503
-0.543242
-0.538341
-0.531916
-0.524178
-0.271922
-0.27554
-0.278335
-0.281487
-0.28575
-0.291311
-0.298186
-0.306328
-0.315656
-0.326076
-0.337486
-0.349777
-0.362829
-0.376516
-0.390699
-0.405233
-0.419961
-0.434722
-0.449349
-0.463674
-0.477528
-0.490745
-0.503164
-0.514631
-0.525002
-0.534146
-0.541948
-0.548305
-0.553132
-0.556363
-0.557954
-0.557888
-0.556165
-0.552769
-0.547684
-0.541033
-0.533351
-0.282636
-0.285311
-0.287619
-0.290484
-0.294524
-0.299912
-0.30666
-0.314718
-0.323999
-0.334407
-0.345837
-0.358176
-0.371301
-0.38508
-0.399371
-0.414023
-0.428876
-0.443764
-0.458515
-0.472957
-0.486917
-0.500225
-0.512717
-0.524236
-0.534636
-0.543783
-0.55156
-0.557864
-0.562614
-0.565742
-0.567204
-0.566982
-0.565095
-0.56157
-0.556338
-0.549426
-0.54151
-0.2936
-0.295243
-0.296996
-0.299514
-0.303269
-0.308416
-0.314963
-0.322854
-0.331999
-0.342297
-0.353641
-0.365913
-0.378991
-0.392739
-0.407012
-0.421655
-0.436507
-0.451398
-0.466155
-0.480602
-0.494565
-0.507871
-0.520354
-0.531857
-0.542232
-0.551345
-0.559077
-0.565327
-0.570013
-0.573071
-0.574463
-0.574179
-0.572221
-0.568603
-0.563357
-0.556349
-0.547547
-0.304071
-0.304657
-0.305812
-0.307931
-0.311339
-0.316171
-0.322435
-0.330067
-0.338972
-0.349046
-0.360177
-0.372249
-0.385137
-0.398705
-0.412807
-0.427289
-0.441988
-0.456735
-0.471355
-0.485673
-0.499514
-0.512705
-0.525081
-0.536483
-0.546764
-0.55579
-0.563443
-0.569622
-0.574245
-0.577246
-0.578635
-0.57834
-0.576376
-0.572773
-0.567544
-0.560678
-0.551975
-0.31343
-0.313003
-0.31355
-0.315221
-0.318213
-0.322649
-0.328535
-0.335801
-0.344348
-0.354067
-0.364847
-0.376568
-0.389108
-0.402331
-0.416095
-0.430247
-0.444626
-0.459064
-0.47339
-0.48743
-0.50101
-0.513961
-0.526115
-0.537317
-0.547421
-0.556293
-0.563819
-0.569899
-0.574462
-0.577453
-0.578794
-0.578523
-0.576624
-0.573135
-0.567993
-0.561478
-0.552706
-0.321247
-0.319918
-0.319865
-0.321049
-0.323555
-0.327501
-0.332895
-0.33967
-0.347724
-0.356945
-0.367219
-0.37843
-0.390454
-0.403161
-0.416412
-0.430058
-0.443944
-0.457906
-0.471776
-0.485384
-0.49856
-0.511136
-0.52295
-0.533847
-0.543684
-0.552332
-0.559679
-0.565622
-0.570094
-0.573041
-0.57442
-0.574236
-0.572448
-0.569164
-0.564137
-0.558054
-0.549275
-0.327293
-0.325228
-0.324618
-0.325285
-0.327235
-0.330586
-0.335361
-0.341499
-0.348904
-0.357466
-0.36707
-0.3776
-0.388938
-0.400956
-0.413522
-0.426494
-0.43972
-0.453045
-0.466307
-0.479339
-0.491978
-0.50406
-0.515428
-0.525932
-0.535434
-0.543802
-0.550932
-0.556741
-0.561147
-0.564102
-0.565557
-0.565529
-0.563908
-0.560918
-0.556034
-0.550367
-0.541584
-0.331537
-0.328942
-0.32785
-0.327993
-0.329327
-0.331979
-0.335996
-0.341337
-0.34792
-0.355644
-0.364401
-0.374077
-0.384557
-0.395722
-0.407443
-0.419586
-0.432008
-0.444559
-0.457086
-0.46943
-0.481433
-0.492938
-0.503792
-0.513857
-0.522987
-0.531083
-0.538032
-0.543743
-0.548141
-0.551179
-0.552784
-0.55299
-0.551592
-0.548936
-0.544191
-0.538846
-0.529908
-0.33411
-0.331212
-0.329741
-0.329385
-0.330071
-0.331941
-0.33507
-0.339451
-0.345031
-0.351731
-0.359456
-0.368102
-0.377561
-0.387719
-0.398457
-0.409646
-0.421153
-0.432837
-0.444551
-0.456146
-0.467475
-0.478395
-0.488711
-0.498345
-0.507176
-0.515061
-0.521896
-0.527594
-0.53207
-0.535268
-0.53708
-0.537543
-0.536356
-0.533953
-0.529251
-0.524006
-0.514685
-0.335257
-0.332281
-0.330559
-0.329764
-0.329813
-0.330856
-0.333002
-0.336288
-0.340704
-0.346205
-0.352723
-0.360174
-0.368463
-0.377486
-0.387132
-0.397283
-0.407814
-0.418591
-0.429477
-0.440327
-0.450988
-0.461327
-0.471263
-0.480593
-0.489197
-0.496962
-0.503779
-0.509541
-0.51414
-0.517491
-0.519453
-0.520034
-0.518892
-0.516453
-0.511587
-0.506044
-0.496156
-0.335282
-0.332433
-0.330597
-0.329455
-0.328923
-0.329154
-0.330285
-0.332402
-0.335545
-0.339721
-0.344899
-0.351028
-0.358034
-0.365833
-0.374326
-0.383406
-0.392957
-0.402854
-0.412969
-0.423132
-0.433261
-0.443203
-0.452803
-0.461912
-0.470394
-0.478117
-0.484943
-0.490732
-0.495344
-0.498654
-0.5005
-0.500842
-0.499389
-0.496457
-0.491156
-0.48487
-0.474349
-0.334501
-0.331951
-0.330131
-0.328752
-0.327735
-0.327229
-0.327391
-0.32835
-0.330204
-0.333012
-0.336799
-0.341552
-0.347234
-0.353785
-0.361125
-0.369162
-0.377788
-0.386868
-0.396291
-0.405953
-0.415666
-0.425281
-0.434642
-0.443588
-0.45195
-0.459555
-0.466225
-0.471788
-0.476073
-0.478932
-0.480209
-0.479846
-0.477661
-0.473858
-0.467916
-0.460688
-0.449655
-0.33322
-0.331095
-0.329398
-0.327889
-0.326504
-0.325381
-0.32469
-0.324596
-0.325247
-0.326758
-0.329208
-0.332636
-0.337046
-0.342409
-0.348671
-0.355749
-0.363541
-0.371951
-0.38083
-0.390026
-0.399368
-0.408678
-0.417766
-0.426428
-0.434455
-0.441633
-0.447758
-0.452638
-0.456103
-0.458024
-0.458289
-0.456887
-0.453734
-0.449025
-0.442491
-0.43459
-0.423447
-0.331722
-0.330096
-0.328595
-0.327044
-0.325406
-0.323809
-0.322428
-0.321456
-0.321079
-0.321464
-0.32274
-0.324997
-0.328281
-0.332596
-0.337909
-0.344157
-0.351247
-0.359047
-0.367401
-0.376129
-0.38503
-0.393884
-0.402456
-0.410503
-0.417785
-0.424072
-0.429158
-0.43287
-0.435078
-0.435713
-0.434747
-0.432261
-0.428267
-0.423026
-0.41632
-0.408458
-0.397809
-0.330287
-0.329175
-0.327899
-0.326364
-0.324569
-0.322638
-0.320749
-0.319109
-0.317935
-0.317431
-0.317769
-0.319077
-0.321438
-0.324885
-0.329404
-0.334932
-0.341361
-0.348545
-0.356299
-0.364407
-0.372629
-0.380707
-0.388376
-0.395375
-0.401461
-0.406416
-0.410071
-0.412301
-0.413053
-0.41233
-0.410212
-0.406842
-0.40236
-0.397068
-0.390787
-0.383821
-0.374268
-0.329195
-0.328555
-0.327494
-0.326001
-0.324123
-0.321983
-0.319758
-0.317664
-0.315935
-0.314796
-0.314446
-0.315041
-0.316685
-0.319426
-0.323252
-0.328095
-0.333832
-0.34029
-0.347255
-0.354481
-0.361701
-0.368637
-0.37502
-0.380599
-0.385157
-0.388526
-0.390595
-0.391312
-0.390698
-0.388813
-0.3858
-0.381789
-0.37702
-0.371713
-0.365971
-0.360215
-0.352428
-0.328722
-0.328458
-0.327569
-0.326124
-0.324218
-0.321973
-0.319565
-0.31721
-0.315145
-0.313602
-0.312789
-0.312872
-0.313961
-0.316104
-0.319285
-0.323421
-0.328372
-0.333943
-0.339898
-0.345975
-0.351897
-0.357393
-0.362216
-0.366155
-0.369049
-0.370796
-0.371354
-0.370735
-0.369
-0.366232
-0.362561
-0.358059
-0.352934
-0.347165
-0.341143
-0.335086
-0.328866
-0.505084
-0.489456
-0.470826
-0.448975
-0.424028
-0.395921
-0.364713
-0.330433
-0.29322
-0.253316
-0.21125
-0.167657
-0.123395
-0.0795197
-0.0373276
0.00193151
0.0370783
0.0671077
0.0913826
0.109717
0.122341
0.129815
0.132919
0.132517
0.12948
0.124599
0.118541
0.111834
0.104868
0.0979111
0.0911422
0.0846786
0.0785891
0.0729053
0.0676292
0.0627492
0.05825
0.0541091
0.050302
0.0468011
0.0435812
0.0406178
0.0378882
0.0353724
0.0330518
0.0309091
0.0289284
0.0270955
0.0253977
0.0238236
0.0223632
0.0210075
0.0197482
0.0185778
0.0174897
0.0164778
0.0155366
0.0146613
0.0138475
0.0130919
0.012385
0.0117209
0.0111062
0.0105337
0.0099967
0.00949371
0.00901887
0.00857372
0.00815092
0.00775448
0.00737488
0.00701824
0.00667392
0.00634817
0.00603219
0.00572867
0.00543427
0.00514536
0.00486468
0.00458408
0.00430825
0.00402916
0.00375035
0.0034631
0.00317444
0.00286834
0.00256001
0.00222515
0.0018851
0.00150846
0.00112414
0.000691148
0.000248843
-0.513604
-0.497656
-0.478953
-0.456993
-0.432025
-0.403949
-0.372813
-0.338638
-0.301552
-0.261775
-0.219754
-0.176113
-0.131726
-0.0875603
-0.045039
-0.00528387
0.0302658
0.0606965
0.0853902
0.104153
0.117213
0.125138
0.128708
0.128781
0.126204
0.121765
0.116123
0.109797
0.10317
0.0965146
0.0900113
0.083777
0.0778811
0.0723586
0.0672174
0.06245
0.0580429
0.0539771
0.0502305
0.0467787
0.0435984
0.0406668
0.037963
0.0354678
0.0331636
0.0310339
0.0290635
0.0272384
0.0255461
0.0239756
0.0225172
0.0211622
0.0199025
0.0187309
0.0176408
0.0166266
0.0156827
0.0148043
0.0139869
0.0132272
0.0125196
0.0118477
0.0112304
0.0106545
0.0101138
0.00960659
0.00912763
0.00867799
0.0082511
0.00785013
0.00746655
0.00710542
0.00675713
0.00642708
0.00610695
0.00579945
0.00550066
0.00520805
0.00492289
0.00463864
0.00435844
0.00407568
0.00379246
0.00350179
0.00320838
0.00289922
0.00258589
0.00224812
0.00190282
0.00152353
0.00113351
0.000698046
0.000249613
-0.523554
-0.507447
-0.488827
-0.467021
-0.442287
-0.414545
-0.383802
-0.350058
-0.313457
-0.274153
-0.232461
-0.188995
-0.14467
-0.0998991
-0.0571284
-0.0169982
0.0190809
0.0501162
0.0754674
0.0949281
0.108722
0.117414
0.121779
0.122664
0.12088
0.117187
0.112238
0.106538
0.100466
0.0942919
0.0882028
0.0823198
0.0767177
0.0714382
0.0664978
0.0618963
0.0576253
0.0536706
0.0500142
0.0466358
0.0435149
0.0406316
0.0379668
0.0355031
0.0332243
0.0311152
0.0291613
0.0273494
0.0256675
0.0241049
0.0226522
0.021301
0.0200436
0.0188731
0.017783
0.0167679
0.0158224
0.014942
0.0141219
0.0133586
0.012648
0.0119702
0.0113517
0.0107732
0.010229
0.00971775
0.00923482
0.00878083
0.00834999
0.0079446
0.00755718
0.00719166
0.00683949
0.00650523
0.00618103
0.00586964
0.00556651
0.00527027
0.00498069
0.00469284
0.00440832
0.00412194
0.00383433
0.00354033
0.00324218
0.00293001
0.0026117
0.00227106
0.00192053
0.00153862
0.0011429
0.000704977
0.00025037
-0.532877
-0.516925
-0.498571
-0.477163
-0.452898
-0.425742
-0.395666
-0.362632
-0.326837
-0.287793
-0.246745
-0.203692
-0.159523
-0.115184
-0.0722121
-0.0318029
0.0047097
0.036303
0.0623323
0.0825865
0.0972799
0.10696
0.112382
0.114365
0.113675
0.11101
0.107002
0.102151
0.0968274
0.0913007
0.0857629
0.0803445
0.0751299
0.0701708
0.0654941
0.0611093
0.0570157
0.0532056
0.0496669
0.0463842
0.0433411
0.0405209
0.0379074
0.0354854
0.0332403
0.0311586
0.029227
0.0274332
0.0257657
0.0242146
0.0227708
0.0214263
0.0201737
0.0190063
0.0179179
0.0169032
0.0159573
0.0150756
0.0142534
0.0134865
0.0127708
0.0120895
0.0114713
0.0108907
0.0103432
0.00982799
0.0093412
0.00888293
0.00844824
0.00803852
0.00764732
0.00727749
0.0069215
0.00658308
0.00625485
0.00593962
0.00563219
0.00533238
0.0050384
0.004747
0.00445818
0.00416823
0.00387625
0.00357894
0.00327608
0.00296091
0.00263765
0.00229414
0.00193839
0.00155385
0.00115244
0.000712006
0.000251165
-0.541363
-0.524526
-0.506894
-0.486104
-0.462528
-0.43613
-0.406873
-0.374718
-0.339667
-0.301736
-0.261413
-0.219078
-0.175463
-0.131583
-0.0888032
-0.0484288
-0.0117413
0.020227
0.0468319
0.0678641
0.0835252
0.0943303
0.100989
0.104277
0.104916
0.103511
0.100648
0.0968221
0.0924009
0.0876542
0.0827801
0.0779199
0.0731709
0.0685969
0.0642372
0.0601127
0.056232
0.0525959
0.0491989
0.0460317
0.0430827
0.0403393
0.0377884
0.0354173
0.0332137
0.0311658
0.0292618
0.0274905
0.0258414
0.0243051
0.0228732
0.0215379
0.0202923
0.0191299
0.0180448
0.0170319
0.0160866
0.0152045
0.0143809
0.013611
0.0128903
0.0122061
0.0115891
0.0110067
0.0104561
0.00993717
0.00944663
0.0089842
0.00854578
0.00813183
0.00773695
0.00736288
0.00700314
0.00666064
0.00632843
0.00600942
0.00569773
0.00539438
0.00509606
0.00480113
0.00450806
0.00421456
0.00391825
0.00361766
0.00331011
0.00299196
0.00266378
0.0023174
0.00195645
0.00156924
0.00116215
0.000719138
0.000252014
-0.544942
-0.530459
-0.51298
-0.493036
-0.470385
-0.444914
-0.416614
-0.385457
-0.351418
-0.314541
-0.275185
-0.233787
-0.191045
-0.147951
-0.105754
-0.0657655
-0.0292323
0.00284534
0.0298463
0.0515695
0.0681952
0.0801894
0.0881882
0.0929014
0.095003
0.0950285
0.0934639
0.0907864
0.087373
0.0834989
0.0793687
0.0751352
0.0709095
0.0667696
0.0627681
0.0589381
0.0552992
0.0518608
0.0486255
0.0455905
0.0427496
0.0400945
0.0376159
0.0353039
0.0331486
0.0311401
0.0292684
0.0275235
0.0258962
0.0243776
0.0229601
0.0216364
0.0203997
0.019244
0.0181637
0.017154
0.0162103
0.0153287
0.0145046
0.0137325
0.0130079
0.0123204
0.0117053
0.0111211
0.0105678
0.0100451
0.00955096
0.00908451
0.00864248
0.00822441
0.00782597
0.00744775
0.00708434
0.00673783
0.0064017
0.00607896
0.00576308
0.00545623
0.00515362
0.00485519
0.00455792
0.00426091
0.0039603
0.00365644
0.00334427
0.00302313
0.00269007
0.00234079
0.0019747
0.00158477
0.00117204
0.000726359
0.000252924
-0.545643
-0.532419
-0.515961
-0.497081
-0.475545
-0.451167
-0.423952
-0.393908
-0.361015
-0.325345
-0.287169
-0.24695
-0.205374
-0.163384
-0.12215
-0.0829251
-0.0468914
-0.0149897
0.0122
0.0344878
0.0520232
0.0652044
0.0745766
0.0807532
0.0843452
0.0858714
0.0857061
0.0842601
0.0819171
0.0789694
0.0756326
0.0720704
0.0684075
0.0647364
0.0611233
0.0576141
0.0542392
0.0510179
0.0479606
0.0450716
0.0423504
0.0397936
0.0373957
0.0351499
0.0330488
0.0310847
0.0292495
0.0275346
0.025932
0.0244337
0.0230328
0.0217225
0.0204965
0.0193491
0.018275
0.0172695
0.0163285
0.0154482
0.0146244
0.0138512
0.0131245
0.0124333
0.01182
0.0112339
0.010678
0.0101518
0.00965414
0.00918378
0.00873828
0.00831623
0.00791432
0.00753206
0.00716506
0.00681461
0.00647464
0.00614823
0.00582821
0.00551791
0.00521107
0.00490917
0.00460776
0.00430725
0.00400241
0.00369529
0.00337854
0.00305439
0.00271654
0.00236431
0.00199315
0.00160043
0.00118211
0.000733659
0.000253908
-0.542021
-0.529801
-0.514975
-0.497687
-0.477463
-0.454241
-0.428171
-0.39931
-0.367661
-0.333304
-0.296515
-0.257767
-0.217711
-0.177216
-0.137343
-0.0992508
-0.0640384
-0.032579
-0.00540577
0.0173005
0.0356491
0.0499557
0.060664
0.0682799
0.0733298
0.0763016
0.0775609
0.0773982
0.0761634
0.074169
0.0716508
0.0687858
0.0657111
0.0625327
0.0593301
0.0561616
0.0530685
0.0500797
0.0472141
0.0444829
0.0418916
0.0394418
0.0371319
0.0349585
0.032917
0.0310019
0.029207
0.0275254
0.0259502
0.0244746
0.0230922
0.021797
0.0205833
0.0194455
0.0183787
0.0173786
0.0164412
0.0155631
0.0147403
0.0139675
0.0132417
0.012548
0.011933
0.0113451
0.0107868
0.0102572
0.00975608
0.00928197
0.00883314
0.00840724
0.00800198
0.00761578
0.00724528
0.00689097
0.00654723
0.0062172
0.00589313
0.00557939
0.00526841
0.00496306
0.00465758
0.00435358
0.00404456
0.00373419
0.00341295
0.00308575
0.0027432
0.00238796
0.00201181
0.0016162
0.00119239
0.000741032
0.000254985
-0.533887
-0.522445
-0.509583
-0.494291
-0.475612
-0.453668
-0.428853
-0.401276
-0.370908
-0.337888
-0.302591
-0.265575
-0.227439
-0.188909
-0.150859
-0.114285
-0.0801943
-0.0494098
-0.0224402
0.000529359
0.0195604
0.0348804
0.0468272
0.0558026
0.0622375
0.0665635
0.0691603
0.0702853
0.0701862
0.0691626
0.0674749
0.0653203
0.0628494
0.0601804
0.0574051
0.0545931
0.0517965
0.0490537
0.0463917
0.0438289
0.0413768
0.0390419
0.0368268
0.0347318
0.032755
0.0308932
0.0291422
0.0274969
0.0259517
0.0245009
0.0231389
0.0218605
0.0206604
0.0195334
0.0184751
0.0174813
0.0165484
0.0156732
0.0148523
0.0140813
0.0133614
0.0127533
0.0120439
0.0114544
0.0108943
0.0103611
0.00985672
0.00937901
0.008927
0.00849742
0.00808892
0.0076989
0.00732498
0.0069669
0.00661945
0.00628586
0.00595781
0.00564068
0.00532563
0.00501685
0.00470737
0.0043999
0.00408678
0.00377312
0.00344749
0.00311719
0.00277004
0.00241172
0.0020307
0.00163209
0.00120289
0.000748472
0.000256177
-0.521506
-0.510458
-0.499645
-0.486605
-0.469617
-0.449035
-0.425602
-0.399476
-0.370592
-0.339115
-0.305474
-0.27027
-0.234232
-0.198072
-0.162333
-0.127705
-0.0950428
-0.0651481
-0.0385541
-0.0154809
0.0040764
0.0202603
0.0333065
0.0435186
0.0512395
0.0568298
0.0606405
0.0629714
0.0640103
0.063977
0.0631314
0.0616953
0.059838
0.0576908
0.0553562
0.0529144
0.0504274
0.0479427
0.0454956
0.0431112
0.040807
0.0385947
0.0364813
0.0344704
0.0325632
0.030759
0.0290556
0.0274496
0.0259369
0.0245131
0.0231734
0.0219133
0.020728
0.0196131
0.0185643
0.0175777
0.0166502
0.0157787
0.0149603
0.0141915
0.0134734
0.012828
0.0121446
0.0115621
0.0110003
0.0104636
0.00995597
0.00947485
0.00901982
0.00858672
0.00817509
0.00778137
0.00740412
0.00704236
0.00669129
0.00635419
0.00602226
0.00570174
0.00538272
0.00507051
0.00475713
0.00444618
0.00412906
0.00381209
0.00348218
0.0031487
0.0027971
0.00243558
0.00204984
0.00164807
0.00121364
0.000755967
0.000257509
-0.505195
-0.493998
-0.485162
-0.474481
-0.459243
-0.440124
-0.418261
-0.393815
-0.366664
-0.337031
-0.305397
-0.272341
-0.238544
-0.204788
-0.171631
-0.139318
-0.108393
-0.0796053
-0.0535558
-0.0305423
-0.0106289
0.00624747
0.0202313
0.031535
0.040422
0.0471838
0.0521233
0.0555304
0.0576445
0.0586093
0.0586242
0.0579179
0.0566828
0.0550672
0.0531849
0.0511257
0.0489608
0.0467461
0.0445247
0.0423287
0.0401815
0.0380997
0.0360947
0.0341739
0.0323414
0.030599
0.0289469
0.0273834
0.0259059
0.0245112
0.0231956
0.0219553
0.0207863
0.0196846
0.0186462
0.0176679
0.0167465
0.0158795
0.0150642
0.0142979
0.0135791
0.0129091
0.0122404
0.011669
0.0111048
0.0105645
0.0100538
0.00956941
0.00911156
0.0086751
0.00826047
0.00786318
0.00748268
0.00711733
0.00676274
0.00642217
0.00608645
0.00576257
0.00543969
0.00512405
0.00480685
0.00449242
0.00417141
0.00385107
0.00351702
0.00318027
0.00282437
0.00245953
0.00206923
0.00166414
0.00122466
0.000763503
0.000259013
-0.485067
-0.47319
-0.466277
-0.457971
-0.444493
-0.427007
-0.407008
-0.384561
-0.359485
-0.33207
-0.302819
-0.272254
-0.240972
-0.209669
-0.179001
-0.149126
-0.120169
-0.0926988
-0.0673663
-0.044578
-0.024483
-0.00709165
0.00766066
0.0199042
0.0298276
0.0376604
0.0436522
0.0480603
0.0511297
0.0530511
0.0539403
0.0539829
0.0533826
0.0523088
0.0508898
0.0492251
0.0473941
0.0454611
0.0434766
0.0414791
0.039498
0.0375548
0.0356655
0.0338409
0.0320884
0.0304125
0.0288155
0.0272978
0.0258583
0.0244951
0.0232055
0.0219866
0.0208352
0.0197478
0.018721
0.0177518
0.0168374
0.0159755
0.0151639
0.0144001
0.0136811
0.0130037
0.0123328
0.0117755
0.0112076
0.0106636
0.01015
0.00966265
0.00920214
0.00876254
0.00834501
0.00794429
0.00756064
0.00719178
0.00683376
0.00648977
0.00615038
0.00582314
0.00549651
0.00517743
0.00485654
0.0045386
0.00421382
0.00389005
0.00355202
0.00321189
0.00285186
0.00248355
0.0020889
0.00168026
0.00123597
0.000771063
0.000260732
-0.461223
-0.44854
-0.443648
-0.437622
-0.425905
-0.410329
-0.392573
-0.372476
-0.34983
-0.324994
-0.298447
-0.270629
-0.24204
-0.213267
-0.184915
-0.157334
-0.130409
-0.104417
-0.0799705
-0.0575723
-0.0374666
-0.0197343
-0.00438048
0.0086518
0.0194811
0.0282774
0.0352419
0.0405905
0.0445469
0.047322
0.0490633
0.049873
0.0499275
0.0494101
0.0484669
0.0472091
0.0457246
0.0440853
0.0423487
0.0405601
0.0387543
0.0369582
0.0351918
0.0334699
0.031803
0.0301985
0.0286607
0.0271922
0.0257936
0.0244642
0.0232027
0.022007
0.0208746
0.0198027
0.0187885
0.0178293
0.0169227
0.0160667
0.0152593
0.0144984
0.0137812
0.0131094
0.0125528
0.0118838
0.0113086
0.0107609
0.0102445
0.00975448
0.00929154
0.00884899
0.00842868
0.00802468
0.00763795
0.0072657
0.00690433
0.00655697
0.00621402
0.00588343
0.00555318
0.00523065
0.00490618
0.00458469
0.00425628
0.003929
0.00358718
0.00324353
0.00287958
0.00250762
0.00210885
0.00169644
0.00124761
0.000778628
0.00026272
-0.434504
-0.421575
-0.418819
-0.414767
-0.404792
-0.391438
-0.376238
-0.358743
-0.338778
-0.316748
-0.293066
-0.268079
-0.242204
-0.215933
-0.189792
-0.164235
-0.139243
-0.114808
-0.0913926
-0.0695434
-0.0495912
-0.0316849
-0.0158906
-0.0022171
0.009389
0.0190407
0.0268926
0.033122
0.0379197
0.0414845
0.0439977
0.0455682
0.0462982
0.0463577
0.0459062
0.0450695
0.0439456
0.0426135
0.0411375
0.039569
0.0379486
0.0363082
0.0346724
0.0330599
0.0314844
0.029956
0.0284818
0.027066
0.0257113
0.0244183
0.023187
0.0220162
0.0209044
0.0198493
0.0188487
0.0179005
0.0170025
0.016153
0.0153504
0.0145929
0.0138784
0.013209
0.0126074
0.0119884
0.0114076
0.0108559
0.0103371
0.00984485
0.00937969
0.00893442
0.00851143
0.00810432
0.00771459
0.00733905
0.00697443
0.00662374
0.00627736
0.0059434
0.00560967
0.00528368
0.00495576
0.00463069
0.0042988
0.00396792
0.0036225
0.00327517
0.00290754
0.00253173
0.00212911
0.00171263
0.00125959
0.000786176
0.000265046
-0.407061
-0.394873
-0.394021
-0.39136
-0.383036
-0.372064
-0.359489
-0.344621
-0.32738
-0.30817
-0.287308
-0.26507
-0.241803
-0.217927
-0.193884
-0.170128
-0.146875
-0.123981
-0.101698
-0.0805392
-0.0608935
-0.0429694
-0.0268866
-0.0127113
-0.000451433
0.00995186
0.0186079
0.0256567
0.0312568
0.0355809
0.0388061
0.0410846
0.0424932
0.0431492
0.043206
0.0428031
0.0420513
0.0410388
0.0398361
0.0384999
0.0370761
0.0356014
0.0341047
0.0326088
0.031131
0.0296841
0.0282778
0.0269186
0.0256109
0.0243571
0.0231582
0.0220142
0.0209244
0.0198874
0.0189016
0.0179652
0.0170767
0.0162345
0.0154373
0.0146836
0.0139719
0.0133022
0.0126763
0.0120853
0.0115025
0.010948
0.0104278
0.00993369
0.00946654
0.00901877
0.0085932
0.00818316
0.00779049
0.0074118
0.00704401
0.00669005
0.00634037
0.00600304
0.00566597
0.00533649
0.00500526
0.00467658
0.00434137
0.00400676
0.00365799
0.0033068
0.00293574
0.00255585
0.00214968
0.00172881
0.00127196
0.000793684
0.0002678
-0.381546
-0.370923
-0.371282
-0.369239
-0.362332
-0.353607
-0.343423
-0.330976
-0.316291
-0.299716
-0.281476
-0.261794
-0.240962
-0.219327
-0.197268
-0.175192
-0.153439
-0.131978
-0.110861
-0.0905007
-0.0712964
-0.0534996
-0.037273
-0.0227317
-0.00994069
0.00110681
0.0104771
0.0182728
0.024622
0.0296694
0.0335736
0.0364941
0.038551
0.0398135
0.0403975
0.0404409
0.0400672
0.0393783
0.0384538
0.0373567
0.0361372
0.0348361
0.0334863
0.0321141
0.0307401
0.0293803
0.0280467
0.0267482
0.0254909
0.0242791
0.023115
0.0219999
0.0209339
0.0199164
0.0189465
0.018023
0.0171449
0.0163108
0.0155197
0.0147703
0.0140614
0.0133919
0.0127609
0.0121584
0.011596
0.0110371
0.0105164
0.0100209
0.00955199
0.009102
0.00867394
0.00826117
0.00786563
0.00748392
0.00711306
0.00675589
0.00640305
0.00606235
0.0057221
0.0053891
0.00505469
0.00472235
0.00438401
0.00404554
0.00369366
0.0033384
0.00296421
0.00257998
0.00217059
0.00174498