/*--------------------------------*- C++ -*----------------------------------*\
| =========                 |                                                 |
| \\      /  F ield         | OpenFOAM: The Open Source CFD Toolbox           |
|  \\    /   O peration     | Version:  2512                                  |
|   \\  /    A nd           | Website:  www.openfoam.com                      |
|    \\/     M anipulation  |                                                 |
\*---------------------------------------------------------------------------*/
FoamFile
{
    version     2.0;
    format      ascii;
    arch        "LSB;label=32;scalar=64";
    class       surfaceScalarField;
    location    "146";
    object      phi;
}
// * * * * * * * * * * * * * * * * * * * * * * * * * * * * * * * * * * * * * //

dimensions      [0 3 -1 0 0 0 0];

oriented        oriented;

internalField   nonuniform List<scalar> 
26232
(
-0.000429372
0.0021267
-0.00169733
-0.00090852
0.00433379
-0.00385464
-0.000826961
0.00495295
-0.00503451
0.000370405
0.0040154
-0.00521277
0.00324134
0.00134756
-0.00421849
0.0083311
-0.00330632
-0.00178344
0.016097
-0.010135
0.00236907
0.0267467
-0.0190807
0.00843103
0.0400852
-0.0297503
0.0164117
0.055463
-0.0414544
0.0260766
0.0718613
-0.0533566
0.0369583
0.0880799
-0.0646491
0.0484306
0.102969
-0.0746989
0.0598099
0.115652
-0.0831413
0.0704579
0.125693
-0.0899133
0.0798728
0.133154
-0.0952264
0.0877646
0.138529
-0.0994747
0.0940997
0.142502
-0.103092
0.0991192
0.14574
-0.106409
0.10317
0.14854
-0.109633
0.106834
0.151146
-0.112646
0.11004
0.153239
-0.115847
0.113753
0.154474
-0.117874
0.11664
-0.121226
0.121085
0.154615
-0.000229576
0.00235627
-0.00022933
0.00433355
0.000633533
0.00409009
0.00300147
0.00164746
0.00751226
-0.00316323
0.0147056
-0.0104996
0.0248223
-0.0202517
0.0376079
-0.0318662
0.0522644
-0.0444068
0.0676099
-0.0568
0.082364
-0.0681107
0.0954451
-0.0777302
0.106194
-0.0854478
0.114469
-0.0914158
0.120588
-0.0960326
0.125144
-0.099782
0.128745
-0.103077
0.131832
-0.106179
0.134618
-0.109195
0.137137
-0.112152
0.139519
-0.115028
0.141573
-0.117902
0.144159
-0.12046
-0.123908
0.146841
-1.99973e-05
0.00237627
0.000546319
0.00376723
0.00236901
0.0022674
0.00615008
-0.0021336
0.0125287
-0.0095418
0.0218428
-0.0198138
0.0338487
-0.0322577
0.047647
-0.0456645
0.0619158
-0.0586757
0.0753119
-0.070196
0.0868328
-0.0796316
0.0960203
-0.0869177
0.102964
-0.0923915
0.108134
-0.096586
0.112129
-0.100027
0.115448
-0.103101
0.118397
-0.106026
0.121116
-0.108898
0.123664
-0.111742
0.126108
-0.114596
0.128468
-0.117388
0.130835
-0.120268
0.133216
-0.122841
-0.125866
0.135175
0.000169364
0.00220691
0.00133314
0.00260345
0.00422193
-0.000621392
0.00956253
-0.0074742
0.0178354
-0.0178146
0.0288976
-0.030876
0.0418126
-0.0451726
0.0551369
-0.0589888
0.0674541
-0.0709929
0.0778125
-0.0805544
0.0858976
-0.0877168
0.0919421
-0.0929621
0.0964732
-0.0969227
0.100044
-0.100156
0.103062
-0.103046
0.105764
-0.105803
0.108268
-0.10853
0.110636
-0.111267
0.112927
-0.114033
0.115145
-0.116813
0.11736
-0.119604
0.119529
-0.122437
0.121814
-0.125126
-0.128346
0.124293
0.000354244
0.00185266
0.00216235
0.000795346
0.00621837
-0.00467741
0.0131654
-0.0144213
0.0230638
-0.027713
0.0350421
-0.0428543
0.0475589
-0.0576894
0.0590835
-0.0705135
0.0686434
-0.0805527
0.0759827
-0.0878937
0.081396
-0.0931301
0.0854221
-0.0969883
0.0885801
-0.100081
0.0912416
-0.102818
0.0936281
-0.105432
0.0958619
-0.108036
0.0980069
-0.110675
0.100101
-0.11336
0.102151
-0.116084
0.104183
-0.118844
0.106214
-0.121635
0.108242
-0.124465
0.110382
-0.127267
-0.130315
0.112351
0.000569331
0.00128333
0.00309936
-0.00173468
0.00838816
-0.00996621
0.016789
-0.0228222
0.0276591
-0.0385831
0.0394269
-0.0546221
0.0503967
-0.0686591
0.0594741
-0.0795908
0.0663655
-0.0874442
0.0713657
-0.0928939
0.0750121
-0.0967764
0.0778173
-0.0997934
0.0801518
-0.102415
0.0822403
-0.104906
0.0842016
-0.107393
0.0860889
-0.109924
0.0879235
-0.112509
0.0897117
-0.115148
0.0914689
-0.117841
0.0932081
-0.120584
0.0949482
-0.123375
0.0967066
-0.126223
0.0985268
-0.129087
-0.132161
0.100373
0.000833026
0.000450307
0.00415716
-0.00505881
0.0106351
-0.0164441
0.0200527
-0.0322398
0.0309798
-0.0495102
0.0415348
-0.065177
0.0503822
-0.0775066
0.0570776
-0.0862862
0.0618531
-0.0922198
0.0652346
-0.0962754
0.0677462
-0.099288
0.0697755
-0.101823
0.0715575
-0.104197
0.0732122
-0.106561
0.0747912
-0.108972
0.0763163
-0.111449
0.0777997
-0.113993
0.0792559
-0.116605
0.0806966
-0.119282
0.0821347
-0.122022
0.0835855
-0.124826
0.0850493
-0.127687
0.0865654
-0.130603
-0.133637
0.088041
0.00114126
-0.000690952
0.00527954
-0.00919709
0.0127267
-0.0238913
0.0224969
-0.04201
0.0326177
-0.0596311
0.0414017
-0.073961
0.0481141
-0.084219
0.0528425
-0.0910146
0.0560773
-0.0954547
0.0583625
-0.0985606
0.0601176
-0.101043
0.0616009
-0.103306
0.0629454
-0.105542
0.0642099
-0.107826
0.0654203
-0.110183
0.0665898
-0.112618
0.0677278
-0.115131
0.0688413
-0.117718
0.0699386
-0.120379
0.0710305
-0.123114
0.0721251
-0.125921
0.0732385
-0.1288
0.074388
-0.131752
-0.134791
0.0755422
0.00147474
-0.0021657
0.00635956
-0.0140819
0.0143803
-0.0319119
0.0238009
-0.0514307
0.0325541
-0.0683842
0.0394509
-0.0808578
0.0443087
-0.0890768
0.0475288
-0.0942346
0.0496678
-0.0975937
0.0511897
-0.100082
0.0523916
-0.102245
0.0534305
-0.104345
0.0543778
-0.106489
0.0552637
-0.108712
0.0561016
-0.111021
0.0568996
-0.113416
0.0576651
-0.115896
0.058407
-0.11846
0.0591357
-0.121108
0.0598604
-0.123838
0.0605915
-0.126652
0.0613359
-0.129545
0.0620987
-0.132515
-0.13555
0.0628575
0.00180531
-0.00397101
0.00726829
-0.0195449
0.0153714
-0.040015
0.0238943
-0.0599536
0.0310533
-0.0755432
0.0362088
-0.0860134
0.0395653
-0.0924333
0.041658
-0.0963273
0.0430009
-0.0989366
0.0439472
-0.101029
0.0446914
-0.102989
0.0453245
-0.104978
0.0458842
-0.107049
0.0463867
-0.109214
0.0468411
-0.111475
0.0472551
-0.11383
0.0476367
-0.116278
0.0479938
-0.118817
0.0483341
-0.121448
0.0486661
-0.12417
0.0489972
-0.126983
0.0493363
-0.129884
0.0496889
-0.132868
-0.135915
0.0500545
0.0020999
-0.00607091
0.00788902
-0.025334
0.015604
-0.04773
0.0229107
-0.0672603
0.0284854
-0.0811178
0.032147
-0.089675
0.0343235
-0.0946098
0.0355642
-0.0975681
0.0362936
-0.0996659
0.0367614
-0.101497
0.0370888
-0.103317
0.0373269
-0.105216
0.0374965
-0.107218
0.0376083
-0.109326
0.0376698
-0.111537
0.0376879
-0.113848
0.0376695
-0.11626
0.0376221
-0.11877
0.037554
-0.12138
0.0374737
-0.12409
0.0373896
-0.126899
0.0373063
-0.129801
0.037222
-0.132783
-0.135832
0.037139
0.00233233
-0.00840324
0.00815559
-0.0311573
0.0151235
-0.054698
0.0210926
-0.0732294
0.0252163
-0.0852415
0.02764
-0.0920986
0.0288875
-0.0958573
0.0294561
-0.0981368
0.0296726
-0.0998824
0.0297055
-0.101529
0.0296278
-0.103239
0.0294685
-0.105057
0.0292405
-0.10699
0.0289515
-0.109037
0.0286079
-0.111193
0.0282161
-0.113457
0.0277827
-0.115826
0.0273145
-0.118301
0.0268182
-0.120883
0.0263014
-0.123573
0.0257721
-0.126369
0.0252379
-0.129266
0.024704
-0.13225
0.0241845
-0.135313
2.43109e-05
0.00415955
-0.00418386
-0.00023933
0.0117989
-0.0115353
-0.00105359
0.0180924
-0.0172781
-0.00243277
0.0227531
-0.0213739
-0.00421964
0.0261975
-0.0244106
-0.0062011
0.0290746
-0.0270932
-0.0081878
0.0318638
-0.0298771
-0.0100325
0.0347494
-0.0329048
-0.0116078
0.0376854
-0.0361101
-0.0127794
0.0405023
-0.0393307
-0.0133965
0.0429812
-0.0423641
-0.0132952
0.0448855
-0.0449869
-0.0123105
0.0459793
-0.046964
-0.0102915
0.046042
-0.0480609
-0.00711464
0.0448852
-0.0480621
-0.00269125
0.0423668
-0.0467902
0.00302845
0.0384021
-0.0441218
0.00999726
0.0329981
-0.0399669
0.0181356
0.026186
-0.0343243
0.0272812
0.0180765
-0.0272221
0.0372281
0.00881482
-0.0187618
0.0477402
-0.00159151
-0.00892062
0.0586315
-0.013114
0.00222269
-0.0261255
0.0698795
0.0148776
0.000357155
0.00380239
0.000854524
0.0113016
0.00105534
0.0178916
0.000786841
0.0230216
0.000144207
0.0268402
-0.000638525
0.0298574
-0.00131648
0.0325418
-0.00169016
0.0351231
-0.00160206
0.0375973
-0.000916166
0.0398164
0.000498234
0.0415668
0.00276636
0.0426174
0.00600059
0.042745
0.0102892
0.0417534
0.0156854
0.0394889
0.0221991
0.0358532
0.0297917
0.0308095
0.0383861
0.0244038
0.0478709
0.0167011
0.0580052
0.0079422
0.0687332
-0.00191314
0.0798161
-0.0126745
0.0908816
-0.0241794
-0.0374547
0.102211
0.000607682
0.00319471
0.00177788
0.0101314
0.00296534
0.0167041
0.00386068
0.0221262
0.00445126
0.0262496
0.00493607
0.0293726
0.00558788
0.03189
0.0066539
0.0340571
0.0083224
0.0359288
0.0107326
0.0374062
0.0139909
0.0383085
0.0181791
0.0384292
0.0233528
0.0375714
0.0295356
0.0355706
0.0367155
0.032309
0.0448358
0.0277329
0.0538155
0.0218299
0.0634846
0.0147346
0.0737186
0.00646715
0.0843324
-0.00267165
0.0952167
-0.0127974
0.10618
-0.0236379
0.117269
-0.0352682
-0.0493168
0.129131
0.000739325
0.00245538
0.00237667
0.00849401
0.00438078
0.0147
0.00635335
0.0201537
0.00815593
0.024447
0.00989686
0.0276316
0.0118196
0.0299672
0.0141872
0.0316895
0.0172157
0.0329004
0.0210563
0.0335656
0.0258031
0.0335617
0.0315038
0.0327286
0.0381654
0.0309097
0.0457553
0.0279807
0.0542047
0.0238596
0.0633881
0.0185494
0.073182
0.012036
0.0833125
0.00460417
0.09386
-0.00408042
0.10443
-0.0132417
0.115241
-0.0236085
0.126345
-0.034742
0.138333
-0.0472561
-0.0626884
0.151705
0.000746089
0.00170929
0.00257775
0.00666236
0.00508437
0.0121934
0.00787019
0.0173678
0.0107032
0.0216139
0.0135735
0.0247614
0.0166385
0.0269022
0.0201251
0.0282028
0.0242476
0.0287779
0.0291648
0.0286484
0.0349686
0.0277578
0.0416882
0.026009
0.0492975
0.0233004
0.0577177
0.0195605
0.0668355
0.0147418
0.076471
0.00891399
0.086438
0.00206891
0.0967265
-0.00568434
0.107247
-0.0146011
0.117957
-0.0239516
0.129639
-0.0352903
0.142283
-0.0473864
0.156834
-0.0618065
-0.0782173
0.172363
0.000646718
0.00106258
0.00239021
0.00491886
0.00500058
0.00958301
0.00817579
0.0141926
0.0116653
0.0181245
0.0153658
0.0210609
0.0193266
0.0229414
0.0236917
0.0238378
0.0286288
0.0238408
0.0342759
0.0230013
0.0407137
0.02132
0.0479569
0.0187658
0.0559573
0.0152999
0.0646131
0.0109047
0.0737899
0.00556498
0.0833858
-0.000681819
0.093489
-0.00803433
0.104008
-0.0162037
0.115379
-0.0259717
0.12793
-0.0365028
0.142395
-0.0497552
0.158155
-0.063146
0.175529
-0.0791808
-0.0942475
0.191559
0.000469099
0.000593478
0.00188415
0.00350381
0.00420452
0.00726264
0.00727398
0.0111232
0.0108987
0.0144997
0.0149432
0.0170164
0.0193721
0.0185124
0.0242358
0.0189741
0.0296247
0.0184519
0.0356246
0.0170014
0.0422859
0.0146586
0.0496141
0.0114377
0.0575806
0.00733344
0.0661469
0.00233843
0.0754207
-0.00370885
0.085528
-0.0107891
0.0966889
-0.0191952
0.109361
-0.0288763
0.123822
-0.0404319
0.140194
-0.0528753
0.157969
-0.0675296
0.175829
-0.0810061
0.192816
-0.0961684
-0.106929
0.205498
0.00023682
0.000356658
0.00115228
0.00258835
0.00287462
0.0055403
0.00539759
0.00860022
0.0086249
0.0112724
0.012446
0.0131953
0.0167907
0.0141677
0.0216439
0.0141209
0.0270325
0.0130633
0.0330055
0.0110284
0.0396285
0.00803566
0.0469908
0.00407538
0.0552567
-0.000932514
0.0646891
-0.00709398
0.0755494
-0.0145691
0.0882313
-0.023471
0.102916
-0.0338798
0.119672
-0.0456322
0.137874
-0.0586337
0.156819
-0.0718206
0.174733
-0.0854436
0.190352
-0.0966253
0.202075
-0.107891
-0.113305
0.208451
-3.04662e-05
0.000387124
0.000296831
0.00226105
0.00125088
0.00458625
0.00295098
0.00690012
0.0054047
0.00881869
0.00856598
0.010034
0.0123914
0.0103423
0.0168802
0.00963208
0.0220962
0.00784732
0.0281781
0.00494652
0.0353741
0.000839701
0.0439804
-0.00453094
0.0543585
-0.0113106
0.0668271
-0.0195626
0.0815226
-0.0292646
0.0983443
-0.0402928
0.116757
-0.0522928
0.135946
-0.0648211
0.1545
-0.0771877
0.17127
-0.0885904
0.184491
-0.0986642
0.193842
-0.105977
0.198593
-0.112642
-0.11483
0.200118
-0.000293323
0.000680447
-0.000533891
0.00250162
-0.000333608
0.00438597
0.00053004
0.00603647
0.00216875
0.00717998
0.00465568
0.00754712
0.00806778
0.00693017
0.0125556
0.00514424
0.0183698
0.00203318
0.0258378
-0.00252152
0.0353027
-0.00862525
0.0470804
-0.0163086
0.0612621
-0.0254924
0.077664
-0.0359645
0.0957534
-0.0473541
0.114657
-0.0591959
0.133214
-0.0708502
0.150178
-0.0817852
0.164285
-0.0912949
0.174901
-0.0992066
0.181498
-0.10526
0.185211
-0.10969
0.186403
-0.113834
-0.115618
0.187191
-0.000485253
0.0011657
-0.001121
0.00313737
-0.00142295
0.00468792
-0.00106382
0.00567733
0.00021081
0.00590535
0.00263493
0.005123
0.00650324
0.00306186
0.0121765
-0.000529055
0.0199966
-0.00578687
0.0302855
-0.0128104
0.0431549
-0.0214947
0.0584208
-0.0315745
0.0755525
-0.0426241
0.093692
-0.0541039
0.11175
-0.0654122
0.128527
-0.075973
0.142947
-0.0852697
0.154221
-0.0930591
0.1621
-0.0991745
0.167022
-0.104128
0.169712
-0.10795
0.171784
-0.111762
0.173184
-0.115234
-0.117664
0.17523
-0.000531627
-0.0012489
-0.00159549
-0.00113093
0.000555933
0.0038955
0.00932642
0.0172284
0.0278533
0.0411195
0.0565831
0.0734392
0.090625
0.106979
0.12144
0.133231
0.142061
0.148121
0.152117
0.154823
0.156912
0.158903
0.160309
0.16373
0.0794367
-0.0513267
0.0417694
0.0886666
-0.0805333
0.0713034
0.0974072
-0.11162
0.10288
0.104967
-0.138603
0.131044
0.1103
-0.156686
0.151353
0.112401
-0.164718
0.162617
0.112004
-0.166133
0.16653
0.111003
-0.163341
0.164342
0.108575
-0.157739
0.160166
0.102749
-0.155608
0.161435
0.0950975
-0.160939
0.16859
0.0909322
-0.164634
0.1688
0.0942084
-0.14881
0.145533
0.103737
-0.103496
0.0939682
0.116604
-0.0344165
0.0215491
0.130083
0.0438942
-0.0573727
0.142464
0.113296
-0.125678
0.152068
0.160197
-0.169801
0.157628
0.184458
-0.190018
0.159977
0.194299
-0.196648
0.161176
0.19495
-0.196149
0.161293
0.192863
-0.19298
0.158713
0.201609
-0.199029
0.152939
0.225865
-0.22009
0.145463
0.24593
-0.238454
0.138494
0.23025
-0.223281
0.133999
0.161441
-0.156946
0.133358
0.0501177
-0.0494762
0.136367
-0.069436
0.0664263
0.142106
-0.162434
0.156695
0.148295
-0.21336
0.207172
0.152042
-0.234438
0.230691
0.150842
-0.245468
0.246668
0.143479
-0.257446
0.26481
0.131833
-0.263995
0.27564
0.120242
-0.243256
0.254848
0.113148
-0.174326
0.18142
0.113665
-0.0615153
0.0609986
0.121199
0.0607846
-0.0683184
0.130739
0.158428
-0.167969
0.13473
0.222672
-0.226663
0.130548
0.273411
-0.269229
0.122576
0.299588
-0.291617
0.116502
0.275461
-0.269387
0.115948
0.185353
-0.184799
0.120503
0.0482101
-0.0527653
0.124583
-0.0805062
0.076426
0.123926
-0.204576
0.205234
0.121094
-0.28552
0.288352
0.118665
-0.310064
0.312493
0.11804
-0.246286
0.246911
0.117624
-0.0769805
0.0773969
0.115958
0.0934205
-0.0917554
0.113422
0.288482
-0.285946
0.11206
0.346848
-0.345485
0.110032
0.242902
-0.240873
0.105209
0.0950467
-0.0902238
0.0988077
-0.226324
0.232725
0.097356
-0.300462
0.301913
-0.0623398
0.0655876
0.108444
-0.0575599
0.114434
-0.0865231
0.119286
-0.116472
0.121962
-0.141279
0.122286
-0.15701
0.120075
-0.162507
0.115436
-0.161493
0.110295
-0.158201
0.105341
-0.152785
0.0980296
-0.148296
0.0878189
-0.150728
0.0791774
-0.155993
0.0779797
-0.147612
0.0857036
-0.11122
0.099557
-0.0482699
0.116385
0.0270662
0.133052
0.0966295
0.146698
0.146551
0.155779
0.175377
0.161217
0.188861
0.164958
0.19121
0.16737
0.19045
0.167483
0.201496
0.164666
0.228682
0.159381
0.251214
0.153054
0.236577
0.147542
0.166953
0.144215
0.0534452
0.143782
-0.0690029
0.145949
-0.164601
0.148972
-0.216383
0.150163
-0.23563
0.147167
-0.242472
0.138485
-0.248764
0.125914
-0.251424
0.114289
-0.231631
0.108353
-0.16839
0.111001
-0.064163
0.120907
0.050878
0.131856
0.147479
0.136688
0.217841
0.133436
0.276663
0.125784
0.307241
0.119063
0.282182
0.11732
0.187096
0.121255
0.0442751
0.125212
-0.0844636
0.123913
-0.203278
0.120327
-0.281934
0.117434
-0.307171
0.117369
-0.246221
0.11754
-0.0771512
0.116811
0.0941495
0.115549
0.289744
0.114104
0.348292
0.112051
0.244955
0.106145
0.100953
0.09821
-0.218389
0.097857
-0.300109
-0.0603386
0.133958
-0.0623868
0.137937
-0.0905023
0.13954
-0.118076
0.137778
-0.139518
0.13286
-0.152091
0.126203
-0.15585
0.118427
-0.153718
0.110414
-0.150187
0.103342
-0.145713
0.0952498
-0.140205
0.0835992
-0.139078
0.0712967
-0.14369
0.0652799
-0.141595
0.0698546
-0.115795
0.083579
-0.0619943
0.102869
0.00777583
0.123173
0.0763254
0.140702
0.129022
0.153392
0.162687
0.162049
0.180204
0.168462
0.184797
0.173407
0.185506
0.176563
0.198339
0.177127
0.228118
0.174475
0.253866
0.169025
0.242027
0.162304
0.173674
0.156018
0.0597309
0.151818
-0.0648025
0.150246
-0.163029
0.150021
-0.216158
0.148749
-0.234357
0.14433
-0.238053
0.134865
-0.239299
0.121625
-0.238184
0.109806
-0.219813
0.104891
-0.163474
0.109349
-0.068621
0.121135
0.0390913
0.133445
0.13517
0.139433
0.211852
0.137419
0.278677
0.130159
0.314502
0.122681
0.28966
0.119519
0.190258
0.122524
0.0412699
0.126372
-0.0883115
0.124521
-0.201427
0.120078
-0.277491
0.11656
-0.303654
0.116963
-0.246623
0.117922
-0.0781109
0.118196
0.0938758
0.118156
0.289785
0.116674
0.349773
0.114651
0.246977
0.107863
0.107742
0.0984801
-0.209006
0.0989365
-0.300565
-0.0595294
0.156034
-0.0667159
0.158485
-0.0929538
0.157169
-0.11676
0.151577
-0.133925
0.142487
-0.143001
0.132017
-0.14538
0.121611
-0.143311
0.111433
-0.14001
0.102611
-0.136891
0.0943906
-0.131984
0.0831672
-0.127854
0.0688965
-0.12942
0.0581641
-0.130863
0.0581172
-0.115748
0.0698696
-0.0737467
0.0900384
-0.012393
0.112925
0.0534389
0.133751
0.108196
0.149913
0.146524
0.161803
0.168314
0.170921
0.175679
0.178503
0.177924
0.184962
0.191881
0.18927
0.22381
0.189738
0.253399
0.18566
0.246105
0.177784
0.18155
0.168407
0.0691079
0.160409
-0.0568043
0.155063
-0.157683
0.151558
-0.212653
0.147813
-0.230613
0.142111
-0.23235
0.132335
-0.229524
0.118869
-0.224717
0.106793
-0.207737
0.102384
-0.159065
0.108193
-0.07443
0.121576
0.0257082
0.135372
0.121374
0.142878
0.204346
0.142315
0.279239
0.135588
0.32123
0.127428
0.29782
0.122688
0.194998
0.124403
0.039555
0.128044
-0.0919524
0.125746
-0.199129
0.120372
-0.272118
0.116058
-0.29934
0.116834
-0.247399
0.118711
-0.0799886
0.120039
0.0925485
0.121178
0.288645
0.119696
0.351256
0.117774
0.248899
0.110349
0.115167
0.099583
-0.19824
0.100589
-0.301571
-0.0598518
0.175666
-0.0700195
0.175487
-0.0927744
0.170168
-0.11144
0.160422
-0.12418
0.148178
-0.130757
0.135491
-0.132693
0.123921
-0.131742
0.113057
-0.129145
0.102919
-0.126753
0.0943809
-0.123446
0.084741
-0.118214
0.0710473
-0.115726
0.0572055
-0.117021
0.0518728
-0.110415
0.0598852
-0.0817591
0.0785971
-0.0311049
0.102649
0.0293867
0.125808
0.0850368
0.144938
0.127394
0.159776
0.153477
0.171493
0.163962
0.181695
0.167721
0.191358
0.182218
0.199459
0.215709
0.203586
0.249271
0.201802
0.247888
0.193781
0.189571
0.181334
0.0815555
0.169357
-0.0448273
0.160094
-0.148421
0.153369
-0.205928
0.14728
-0.224524
0.14044
-0.22551
0.13077
-0.219854
0.117515
-0.211463
0.105153
-0.195374
0.100729
-0.154642
0.107275
-0.0809752
0.121922
0.011061
0.137304
0.105992
0.146772
0.194878
0.148181
0.277829
0.14231
0.327102
0.133553
0.306576
0.127031
0.201521
0.126974
0.0396118
0.130185
-0.0951633
0.127541
-0.196485
0.121201
-0.265778
0.115909
-0.294048
0.116958
-0.248448
0.11984
-0.0828698
0.122255
0.0901326
0.124548
0.286352
0.123088
0.352716
0.121348
0.25064
0.113557
0.122958
0.101493
-0.186176
0.102787
-0.302865
-0.0612387
0.191831
-0.070291
0.187494
-0.0884377
0.178021
-0.101967
0.164933
-0.111092
0.150707
-0.116531
0.137043
-0.119029
0.12502
-0.119719
0.114486
-0.118611
0.104301
-0.116569
0.0952024
-0.114347
0.0870297
-0.110042
0.0760566
-0.104753
0.0618271
-0.102791
0.0517341
-0.100322
0.0540122
-0.0840372
0.0692087
-0.0463013
0.0924989
0.00609648
0.116901
0.0606342
0.138398
0.105898
0.155823
0.136052
0.169797
0.149988
0.182155
0.155363
0.194709
0.169664
0.206698
0.203721
0.214551
0.241418
0.215023
0.247416
0.207389
0.197205
0.193501
0.095443
0.178067
-0.0293926
0.164999
-0.135353
0.155298
-0.196227
0.147033
-0.21626
0.139049
-0.217526
0.129756
-0.210561
0.117286
-0.198992
0.104744
-0.182833
0.0997203
-0.149618
0.106298
-0.0875531
0.12185
-0.00449071
0.138923
0.0889187
0.150702
0.183099
0.154419
0.274113
0.149832
0.331688
0.140869
0.31554
0.132601
0.209788
0.130288
0.0419256
0.132727
-0.097603
0.129827
-0.193585
0.122537
-0.258488
0.11609
-0.287601
0.117276
-0.249633
0.121224
-0.0868187
0.124745
0.0866123
0.128176
0.282921
0.126761
0.354131
0.125274
0.252127
0.117431
0.130801
0.104183
-0.172929
0.105501
-0.304184
-0.0636091
0.201098
-0.0658914
0.192203
-0.0795429
0.179584
-0.0893476
0.16513
-0.0966391
0.150774
-0.102174
0.137539
-0.105794
0.125652
-0.107832
0.11533
-0.108289
0.105766
-0.107005
0.0965391
-0.10512
0.0888022
-0.102305
0.0809788
-0.0969294
0.0695969
-0.0914096
0.0573398
-0.0880653
0.053173
-0.0798705
0.0625052
-0.0556335
0.0827501
-0.0141484
0.107118
0.0362662
0.130251
0.0827646
0.149927
0.116376
0.165998
0.133918
0.180179
0.141182
0.194808
0.155035
0.209768
0.18876
0.221408
0.229778
0.225128
0.243697
0.218647
0.203686
0.203671
0.110419
0.185635
-0.0113564
0.16938
-0.119098
0.157065
-0.183912
0.146944
-0.206139
0.137839
-0.20842
0.128942
-0.201664
0.117784
-0.187835
0.105406
-0.170455
0.0992791
-0.143491
0.105122
-0.0933959
0.120999
-0.020368
0.139849
0.0700691
0.154295
0.168653
0.160942
0.267465
0.158391
0.334239
0.149496
0.324436
0.139441
0.219842
0.134377
0.0469898
0.135593
-0.0988192
0.132487
-0.190478
0.124329
-0.25033
0.116567
-0.279839
0.117716
-0.250783
0.122771
-0.0918737
0.127418
0.0819652
0.131986
0.278353
0.130629
0.355488
0.129453
0.253303
0.121875
0.138379
0.107609
-0.158662
0.108694
-0.305268
-0.0668651
0.200157
-0.0575976
0.188702
-0.0680878
0.175346
-0.0759916
0.161666
-0.0829596
0.148614
-0.0891221
0.136631
-0.0938109
0.12559
-0.0967908
0.115589
-0.098288
0.106743
-0.0981582
0.0982418
-0.0966189
0.0904415
-0.0945045
0.0842223
-0.0907102
0.0770176
-0.0842049
0.0666034
-0.0776511
0.0580874
-0.0713545
0.0600303
-0.0575763
0.0743923
-0.0285104
0.0968304
0.0138281
0.120488
0.0591066
0.14181
0.0950549
0.159612
0.116115
0.175188
0.125606
0.191362
0.138861
0.208995
0.171127
0.224045
0.214729
0.230448
0.237293
0.225388
0.208746
0.210559
0.125248
0.191353
0.0078496
0.172857
-0.100602
0.158422
-0.169478
0.146811
-0.194528
0.136664
-0.198273
0.127988
-0.192988
0.118509
-0.178356
0.106916
-0.158862
0.0994568
-0.136031
0.10365
-0.0975895
0.119285
-0.0360029
0.139788
0.0495669
0.156978
0.151463
0.166715
0.257729
0.166801
0.334153
0.158751
0.332485
0.147236
0.231357
0.139239
0.0549867
0.138705
-0.0982852
0.135381
-0.187154
0.126507
-0.241456
0.117313
-0.270645
0.118207
-0.251677
0.124385
-0.0980517
0.130167
0.0761833
0.135866
0.272654
0.134601
0.356753
0.133774
0.254131
0.126786
0.145367
0.111715
-0.143592
0.112331
-0.305884
-0.0708909
0.191006
-0.0484855
0.180181
-0.0572627
0.16853
-0.0643411
0.15686
-0.0712892
0.145447
-0.0777087
0.134522
-0.0828858
0.124299
-0.0865682
0.114808
-0.0887974
0.10642
-0.0897702
0.0990606
-0.0892591
0.0920019
-0.0874458
0.0859927
-0.0847011
0.0814206
-0.0796327
0.0754444
-0.071675
0.0672627
-0.0631728
0.0631277
-0.0534414
0.0699111
-0.0352938
0.0879711
-0.00423188
0.110504
0.0365738
0.132474
0.0730848
0.15131
0.0972788
0.167586
0.10933
0.184482
0.121965
0.203842
0.151766
0.22213
0.196441
0.232567
0.226857
0.23025
0.211063
0.216051
0.139447
0.195205
0.0286952
0.175243
-0.0806398
0.159172
-0.153407
0.146457
-0.181812
0.135453
-0.187269
0.126689
-0.184223
0.118918
-0.170586
0.10889
-0.148834
0.100371
-0.127512
0.102085
-0.0993035
0.11658
-0.0504983
0.138379
0.0277676
0.158583
0.131259
0.171956
0.244355
0.175268
0.330842
0.168694
0.339059
0.155849
0.244202
0.144671
0.0661642
0.141958
-0.0955718
0.13834
-0.183535
0.128972
-0.232088
0.118281
-0.259954
0.118667
-0.252063
0.125972
-0.105356
0.132913
0.069242
0.139761
0.265806
0.13861
0.357903
0.138137
0.254604
0.132045
0.15146
0.11643
-0.127977
0.116374
-0.305828
-0.0755555
0.17964
-0.0409339
0.170783
-0.0484062
0.161189
-0.0547473
0.151282
-0.0613821
0.141243
-0.067669
0.131325
-0.0729686
0.121929
-0.0771714
0.113291
-0.0801599
0.105468
-0.0819467
0.0987711
-0.0825627
0.0929272
-0.0816018
0.0874234
-0.0791973
0.0832466
-0.075456
0.0804214
-0.0688498
0.0762738
-0.0590252
0.0710925
-0.0482601
0.0712232
-0.0354245
0.0815489
-0.0145576
0.100838
0.0172847
0.12242
0.051503
0.141902
0.0777971
0.158454
0.0927777
0.174913
0.105506
0.194443
0.132236
0.214896
0.175988
0.228294
0.213459
0.228343
0.211014
0.215984
0.151806
0.196762
0.0479176
0.176464
-0.0603417
0.159168
-0.136111
0.145606
-0.168251
0.134011
-0.175674
0.124895
-0.175107
0.118512
-0.164202
0.110712
-0.141035
0.101939
-0.118738
0.100785
-0.0981499
0.113075
-0.0627879
0.1355
0.00534258
0.158251
0.108508
0.175064
0.227542
0.182018
0.323887
0.178127
0.34295
0.164694
0.257635
0.15068
0.0801781
0.145273
-0.0901647
0.141189
-0.179451
0.131593
-0.222492
0.11942
-0.247781
0.119017
-0.25166
0.127438
-0.113777
0.135545
0.0611346
0.143531
0.25782
0.14256
0.358874
0.142455
0.254709
0.137547
0.156367
0.121678
-0.112108
0.120784
-0.304933
-0.0807173
0.169298
-0.0350025
0.16185
-0.0409582
0.15357
-0.0464673
0.144781
-0.0525931
0.135718
-0.0586058
0.126759
-0.0640093
0.118207
-0.06862
0.110375
-0.0723273
0.10334
-0.0749125
0.097124
-0.0763464
0.0919879
-0.0764657
0.0876034
-0.0748128
0.0837622
-0.0716147
0.0815685
-0.0666561
0.0807805
-0.0582372
0.0791164
-0.0465959
0.0775992
-0.0339074
0.0816341
-0.0185925
0.0946833
0.00423556
0.112949
0.0332376
0.131733
0.0590126
0.148275
0.0762355
0.164501
0.0892807
0.184342
0.112395
0.206491
0.153839
0.222854
0.197095
0.226101
0.207767
0.215614
0.162294
0.196414
0.0671171
0.175777
-0.0397045
0.157878
-0.118213
0.143936
-0.154309
0.132186
-0.163923
0.122655
-0.165577
0.117096
-0.158643
0.111777
-0.135716
0.103811
-0.110773
0.100025
-0.0943637
0.108987
-0.0717497
0.131102
-0.0167721
0.156607
0.0830024
0.177408
0.206742
0.187918
0.313377
0.186494
0.344375
0.173692
0.270437
0.156771
0.0970988
0.148492
-0.0818854
0.143766
-0.174726
0.134259
-0.212986
0.120809
-0.23433
0.119187
-0.250038
0.12871
-0.1233
0.138031
0.0518141
0.147172
0.248679
0.146427
0.359619
0.146658
0.254478
0.143168
0.159858
0.127367
-0.0963073
0.125525
-0.303091
-0.0862303
0.158744
-0.030017
0.152278
-0.0344921
0.145219
-0.039408
0.137562
-0.0449362
0.129616
-0.05066
0.12179
-0.0561827
0.114315
-0.0611455
0.107347
-0.0653596
0.101051
-0.0686156
0.095412
-0.0707079
0.0905359
-0.0715896
0.08665
-0.0709268
0.0834387
-0.0684035
0.081082
-0.0642994
0.0806797
-0.0578349
0.0817213
-0.0476375
0.08248
-0.0346661
0.0843734
-0.020486
0.0912918
-0.0026828
0.104439
0.0200909
0.119864
0.0435876
0.134906
0.0611936
0.150031
0.0741555
0.168063
0.0943632
0.190031
0.131871
0.21008
0.177047
0.217621
0.200226
0.21036
0.169555
0.194986
0.0824912
0.175919
-0.0206374
0.1573
-0.0995946
0.142622
-0.13963
0.130739
-0.152041
0.120704
-0.155541
0.115221
-0.153159
0.112034
-0.132529
0.105599
-0.104338
0.0999729
-0.0887376
0.105252
-0.0770288
0.125089
-0.036609
0.151689
0.0564021
0.175872
0.182559
0.190941
0.298309
0.193381
0.341934
0.182192
0.281627
0.163769
0.115521
0.152068
-0.0701839
0.146329
-0.168988
0.137056
-0.203712
0.122644
-0.219918
0.119462
-0.246856
0.129735
-0.133574
0.140202
0.0413471
0.150493
0.238388
0.150103
0.36001
0.150714
0.253867
0.148805
0.161766
0.133431
-0.0809331
0.130565
-0.300224
-0.0919332
0.204322
-0.0259778
-0.208362
0.201102
-0.031272
0.19772
-0.0360252
0.19376
-0.0409764
0.189128
-0.0460282
0.183902
-0.0509569
0.178208
-0.0554511
0.172115
-0.0592668
0.165672
-0.0621723
0.158958
-0.0639944
0.151977
-0.0646086
0.144871
-0.0638206
0.137815
-0.061348
0.130693
-0.0571768
0.123725
-0.0508666
0.117568
-0.0414808
0.111973
-0.0290707
0.106498
-0.0150111
0.102579
0.00123613
0.102069
0.0206003
0.106015
0.0396417
0.113511
0.0536979
0.122934
0.0647324
0.133461
0.0838361
0.145427
0.119905
0.157162
0.165312
0.168138
0.18925
0.182139
0.155554
0.195377
0.0692531
0.200048
-0.0253087
0.195307
-0.0948537
0.185142
-0.129465
0.173077
-0.139977
0.160162
-0.142626
0.149559
-0.142557
0.140953
-0.123923
0.129759
-0.0931434
0.118565
-0.0775436
0.115647
-0.0741108
0.124427
-0.0453887
0.137069
0.0437597
0.148826
0.170801
0.158156
0.288979
0.165146
0.334944
0.167947
0.278826
0.165823
0.117645
0.163414
-0.0677745
0.16008
-0.165654
0.151279
-0.194911
0.134991
-0.20363
0.126004
-0.237869
0.128182
-0.135752
0.130617
0.0389121
0.136046
0.232959
0.13653
0.359525
0.140104
0.250293
0.142337
0.159533
0.130126
-0.0687224
0.124598
-0.294696
-0.0949676
0.212361
-0.0227848
-0.215554
0.208881
-0.0277916
0.205321
-0.0324652
0.201298
-0.0369538
0.196671
-0.0414008
0.191425
-0.0457107
0.185635
-0.0496613
0.179419
-0.0530509
0.172869
-0.0556225
0.16611
-0.0572353
0.159274
-0.0577726
0.152453
-0.0569997
0.145833
-0.0547278
0.139586
-0.0509304
0.133707
-0.0449871
0.12856
-0.0363337
0.124576
-0.0250869
0.121242
-0.0116766
0.11808
0.00439748
0.115988
0.0226928
0.116387
0.0392425
0.120358
0.0497262
0.128029
0.057062
0.138916
0.0729493
0.151304
0.107516
0.162632
0.153984
0.175798
0.176083
0.194076
0.137277
0.209839
0.0534897
0.213782
-0.0292513
0.207123
-0.0881945
0.195305
-0.117647
0.182619
-0.12729
0.169508
-0.129515
0.158623
-0.131672
0.150875
-0.116175
0.141136
-0.0834043
0.129561
-0.0659689
0.124656
-0.0692052
0.132725
-0.0534579
0.146707
0.0297774
0.160743
0.156765
0.172633
0.277089
0.182052
0.325525
0.186285
0.274593
0.183838
0.120093
0.179324
-0.0632611
0.174102
-0.160431
0.164267
-0.185076
0.146155
-0.185518
0.135824
-0.227538
0.13878
-0.138708
0.141849
0.0358428
0.147899
0.226909
0.148615
0.358809
0.152585
0.246324
0.156349
0.155769
0.143906
-0.0562793
0.136945
-0.287735
-0.0977102
0.220315
-0.0203342
-0.222766
0.217241
-0.0247171
0.213806
-0.0290299
0.209971
-0.0331197
0.205631
-0.0370605
0.200749
-0.0408289
0.195368
-0.0442796
0.189581
-0.0472639
0.183502
-0.0495443
0.177221
-0.0509543
0.170821
-0.0513725
0.164405
-0.0505834
0.158048
-0.0483705
0.151895
-0.0447771
0.146139
-0.0392317
0.141098
-0.0312924
0.137328
-0.0213167
0.135214
-0.00956316
0.133935
0.00567636
0.132897
0.0237307
0.132346
0.0397942
0.13343
0.0486417
0.137193
0.0532996
0.144069
0.0660728
0.15342
0.0981652
0.165557
0.141847
0.18474
0.156901
0.208711
0.113305
0.225233
0.0369683
0.227601
-0.0316193
0.219532
-0.0801255
0.207227
-0.105343