/*--------------------------------*- C++ -*----------------------------------*\
| =========                 |                                                 |
| \\      /  F ield         | OpenFOAM: The Open Source CFD Toolbox           |
|  \\    /   O peration     | Version:  2312                                  |
|   \\  /    A nd           | Website:  www.openfoam.com                      |
|    \\/     M anipulation  |                                                 |
\*---------------------------------------------------------------------------*/
FoamFile
{
    version     2.0;
    format      ascii;
    arch        "LSB;label=32;scalar=64";
    class       surfaceScalarField;
    location    "180.85";
    object      phi;
}
// * * * * * * * * * * * * * * * * * * * * * * * * * * * * * * * * * * * * * //

dimensions      [0 3 -1 0 0 0 0];

oriented        oriented;

internalField   nonuniform List<scalar> 
10785
(
-4.55349e-05
0.0031808
-0.00313527
0.000795997
0.00321423
-0.00405576
0.00464068
-0.00205703
-0.00178766
0.0139844
-0.0135714
0.0042277
0.0304285
-0.0315381
0.0150939
0.0536374
-0.0539905
0.0307816
0.0813945
-0.077655
0.0498979
0.110702
-0.0995535
0.0702461
0.138674
-0.117704
0.0897321
0.163742
-0.131658
0.106591
0.184493
-0.141636
0.120884
0.201303
-0.148351
0.131541
0.215266
-0.154014
0.140052
0.226116
-0.157817
0.146967
-0.163123
0.151565
0.237674
0.000496773
0.00268403
0.00337255
0.00033845
0.0114598
-0.0101443
0.0272644
-0.0293759
0.0505529
-0.0548266
0.0781094
-0.0815469
0.105757
-0.105302
0.130075
-0.123872
0.149424
-0.137053
0.163663
-0.145898
0.173953
-0.151925
0.18269
-0.157088
0.190901
-0.162225
0.201003
-0.167918
-0.175903
0.213783
0.000901147
0.00178288
0.00625785
-0.00501825
0.0195895
-0.023476
0.0415459
-0.0513323
0.068025
-0.0813057
0.0935996
-0.107121
0.11446
-0.126163
0.129442
-0.138853
0.139543
-0.147154
0.146913
-0.153268
0.153968
-0.15898
0.161881
-0.165001
0.171245
-0.171589
0.182072
-0.178745
-0.186143
0.192311
0.00160271
0.000180177
0.0103527
-0.0137683
0.0291115
-0.0422347
0.0538145
-0.0760353
0.077556
-0.105047
0.0959847
-0.12555
0.108401
-0.13858
0.116547
-0.146999
0.122829
-0.153437
0.129059
-0.159498
0.135722
-0.165644
0.14277
-0.172048
0.149857
-0.178677
0.156735
-0.185623
-0.193331
0.163923
0.00278851
-0.00260834
0.0156545
-0.0266342
0.0374461
-0.0640264
0.0597384
-0.0983276
0.0769129
-0.122222
0.088147
-0.136784
0.0953421
-0.145775
0.100719
-0.152375
0.105596
-0.158313
0.110286
-0.164188
0.114932
-0.17029
0.119672
-0.176788
0.12478
-0.183785
0.130703
-0.191546
-0.19964
0.137012
0.00449155
-0.00709988
0.0206925
-0.0428351
0.0414242
-0.0847582
0.0583119
-0.115215
0.0693036
-0.133213
0.0759554
-0.143436
0.0803442
-0.150164
0.0837756
-0.155807
0.0868316
-0.16137
0.0899056
-0.167262
0.0932319
-0.173616
0.0968991
-0.180455
0.100889
-0.187775
0.104806
-0.195463
-0.203409
0.108575
0.00647269
-0.0135726
0.0237039
-0.0600663
0.0405488
-0.101603
0.0519846
-0.126651
0.0584875
-0.139716
0.0620694
-0.147018
0.0643192
-0.152414
0.066108
-0.157596
0.0678555
-0.163117
0.0696555
-0.169062
0.0714821
-0.175443
0.0733307
-0.182303
0.0752042
-0.189649
0.0772213
-0.19748
-0.205615
0.0794277
0.00810131
-0.0216739
0.0237654
-0.0757304
0.0361591
-0.113997
0.0431061
-0.133598
0.0462792
-0.142889
0.0476049
-0.148344
0.0482344
-0.153043
0.0486258
-0.157987
0.0488705
-0.163362
0.0490145
-0.169206
0.0491372
-0.175565
0.0492995
-0.182466
0.0495513
-0.189901
0.0498247
-0.197753
0.0501407
-0.205931
-0.00123665
-0.0151046
0.0163412
-0.00500685
-0.0291252
0.0328954
-0.0106915
-0.0345123
0.0401969
-0.0175517
-0.037148
0.0440083
-0.0250177
-0.0398665
0.0473325
-0.0325859
-0.0428662
0.0504343
-0.039684
-0.0453592
0.0524574
-0.0456435
-0.046488
0.0524474
-0.0497535
-0.0454292
0.0495392
-0.0513473
-0.041398
0.0429919
-0.0498979
-0.0337376
0.0322881
-0.0449043
-0.0218948
0.0169013
-0.0367342
-0.00510089
-0.00306927
-0.0235139
0.0149499
-0.0281701
0.0390225
-0.00466526
-0.0578711
-0.00252282
-0.0125818
-0.0079863
-0.0236618
-0.0152381
-0.0272605
-0.0237894
-0.0285967
-0.0333955
-0.0302605
-0.0437751
-0.0324866
-0.0544865
-0.0346478
-0.0649094
-0.0360651
-0.0742704
-0.0360682
-0.0817006
-0.0339678
-0.0862649
-0.0291733
-0.0867519
-0.0214078
-0.0815367
-0.010316
-0.0718408
0.00525393
0.0217149
-0.0545332
-0.00320414
-0.00937763
-0.00934406
-0.0175218
-0.0169514
-0.0196531
-0.0255816
-0.0199665
-0.0351003
-0.0207418
-0.0452879
-0.022299
-0.0557542
-0.0241815
-0.0659608
-0.0258585
-0.075204
-0.0268249
-0.0826159
-0.026556
-0.0874301
-0.0243591
-0.088564
-0.0202739
-0.0827267
-0.0161534
-0.0733488
-0.00412397
0.00136466
-0.0529986
-0.00340694
-0.00597069
-0.00956785
-0.0113609
-0.0168001
-0.0124208
-0.0245747
-0.0121919
-0.0327069
-0.0126096
-0.0408861
-0.0141198
-0.0485818
-0.0164858
-0.0551082
-0.0193321
-0.0597361
-0.022197
-0.0617115
-0.0245806
-0.0600684
-0.0260021
-0.0551255
-0.0252168
-0.0425732
-0.0287057
-0.0278683
-0.0188289
-0.0233335
-0.00317018
-0.00329032
-0.00268037
-0.00907666
-0.00557458
-0.0155425
-0.00595504
-0.0219889
-0.00574553
-0.0280516
-0.00654687
-0.0331981
-0.00897328
-0.0366577
-0.0130262
-0.0375284
-0.0184614
-0.0348832
-0.0248422
-0.0281021
-0.0313618
-0.0168568
-0.0372474
0.000119009
-0.0421926
0.0216156
-0.0502023
0.0491414
-0.0463547
-0.0583997
0.0842076
-0.00284799
0.000167616
-0.0077941
-0.000628467
-0.0129308
-0.000818321
-0.0172517
-0.00142466
-0.0200072
-0.0037914
-0.0202592
-0.00872125
-0.0169907
-0.0162947
-0.00931511
-0.026137
0.00334681
-0.0375041
0.0210987
-0.0491137
0.0438097
-0.0599584
0.0715543
-0.0699372
0.102494
-0.0811417
0.140863
-0.0847235
-0.0980405
0.180503
-0.00202625
0.00219387
-0.00541021
0.00275549
-0.00825784
0.00202932
-0.00910236
-0.000580145
-0.0067171
-0.00617665
0.000192539
-0.0156309
0.0125661
-0.0286683
0.0305562
-0.044127
0.0537335
-0.0606814
0.0810617
-0.0764419
0.112018
-0.0909146
0.14574
-0.103659
0.178782
-0.114184
0.217163
-0.123105
-0.131765
0.250888
-0.0009414
-0.00224167
-0.00200001
0.00164754
0.0105648
0.0257155
0.0469451
0.0730641
0.102115
0.132263
0.162233
0.190115
0.215983
0.239845
0.259645
0.0435455
0.168168
-0.216378
0.0630864
0.28035
-0.299891
0.0541711
0.374027
-0.365112
0.0785613
0.346033
-0.370423
0.152558
0.152792
-0.226788
0.208794
-0.10158
0.0453434
0.23817
-0.277991
0.248615
0.251062
-0.311385
0.298492
0.236069
-0.331965
0.346959
0.203158
-0.327208
0.360119
0.200314
-0.368174
0.371019
0.233298
-0.179581
0.146596
0.260624
0.0384309
-0.0657566
0.273199
0.185839
-0.198414
0.278178
0.435365
-0.440344
0.282351
0.409578
-0.41375
0.288185
0.398308
-0.404143
0.291298
0.149774
-0.152887
0.2952
-0.281984
0.278082
0.303947
-0.411452
0.402705
0.306787
-0.635983
0.633143
0.30687
-0.28153
0.281447
0.304676
0.318
-0.315806
0.318268
0.451511
-0.465103
0.332268
0.694911
-0.708912
0.320776
0.144884
-0.133392
0.302717
-0.965928
0.983988
0.306653
-0.509531
0.505595
0.293447
0.612214
-0.599008
0.282116
0.424972
-0.413642
0.274122
-0.198483
0.206477
0.271493
-0.15993
0.162559
0.268158
0.0532308
-0.0498962
0.264642
0.0481073
-0.0445908
0.262194
-0.000660532
0.00310881
0.260163
-0.00118998
0.0032206
0.25812
0.00588727
-0.00384431
0.00776844
-0.00577296
-0.00137585
0.11501
0.037442
0.241533
0.0667606
0.344708
0.124536
0.288257
0.195596
0.0817323
0.235468
-0.141451
0.250145
-0.292669
0.253878
-0.315117
0.235521
-0.313609
0.207793
-0.29948
0.202511
-0.362892
0.232915
-0.209984
0.257915
0.013431
0.273082
0.170672
0.281514
0.426932
0.28182
0.409273
0.290308
0.38982
0.291652
0.148431
0.29007
-0.280402
0.297265
-0.418647
0.296104
-0.634823
0.301914
-0.28734
0.304732
0.315182
0.318224
0.438019
0.33642
0.676715
0.320716
0.160588
0.292101
-0.937313
0.299631
-0.517061
0.295287
0.616557
0.285177
0.435083
0.274059
-0.187364
0.270771
-0.156642
0.268242
0.0557597
0.265128
0.0512222
0.262791
0.00167652
0.260879
0.00072179
0.258983
0.00778339
0.00956007
-0.0032515
0.0652632
0.0570537
0.181227
0.115868
0.285893
0.179598
0.224528
0.235934
0.0253966
0.259327
-0.164845
0.256599
-0.28994
0.25051
-0.309029
0.230553
-0.293652
0.206211
-0.275137
0.201937
-0.358619
0.232572
-0.240619
0.25362
-0.00761722
0.269515
0.154777
0.281502
0.414945
0.278931
0.411844
0.289234
0.379517
0.289101
0.148563
0.282118
-0.273419
0.285611
-0.42214
0.28048
-0.629691
0.293089
-0.299949
0.301924
0.306347
0.314979
0.424965
0.335777
0.655917
0.315156
0.181209
0.279005
-0.901162
0.289979
-0.528035
0.294782
0.611754
0.285942
0.443923
0.272073
-0.173495
0.268285
-0.152854
0.266706
0.0573387
0.264179
0.0537486
0.262129
0.00372696
0.260509
0.00234211
0.258931
0.00936103
0.0109721
0.0396263
0.0224667
0.106988
0.113866
0.177527
0.215354
0.233486
0.168569
0.270799
-0.0119155
0.2773
-0.171347
0.256331
-0.268971
0.240882
-0.293579
0.224237
-0.277007
0.198919
-0.24982
0.191583
-0.351282
0.230218
-0.279255
0.253089
-0.0304883
0.265301
0.142565
0.275003
0.405243
0.270277
0.41657
0.282806
0.366988
0.282787
0.148583
0.271547
-0.262179
0.269968
-0.420561
0.261669
-0.621392
0.280641
-0.318921
0.294819
0.292169
0.307406
0.412377
0.329762
0.633561
0.305951
0.20502
0.264339
-0.859549
0.27746
-0.541156
0.290871
0.598343
0.283709
0.451085
0.268125
-0.157911
0.264136
-0.148865
0.263626
0.0578483
0.261852
0.0555226
0.26026
0.00531891
0.259095
0.00350684
0.258
0.0104563
0.0118379
0.104573
0.00210169
0.156069
0.062369
0.222647
0.148776
0.27301
0.118206
0.295359
-0.0342645
0.28781
-0.163798
0.256282
-0.237443
0.230282
-0.267579
0.218626
-0.265351
0.193125
-0.224319
0.17353
-0.331687
0.218182
-0.323907
0.249787
-0.0620923
0.262399
0.129953
0.271536
0.396106
0.264423
0.423683
0.275342
0.356069
0.273947
0.149978
0.258549
-0.246781
0.25079
-0.412803
0.239385
-0.609987
0.263918
-0.343454
0.285363
0.270725
0.298598
0.399142
0.32075
0.611409
0.294541
0.231228
0.24807
-0.813078
0.26307
-0.556156
0.285341
0.576073
0.279535
0.45689
0.262712
-0.141088
0.258623
-0.144776
0.259193
0.0572783
0.258281
0.0564346
0.257297
0.00630298
0.256732
0.00407159
0.256267
0.0109211
0.0120062
0.181508
0.00109728
0.208538
0.035339
0.258429
0.0988846
0.3008
0.0758357
0.307842
-0.0413069
0.286152
-0.142108
0.25057
-0.201862
0.21685
-0.233859
0.207194
-0.255695
0.189636
-0.206761
0.154567
-0.296618
0.191258
-0.360598
0.237894
-0.108729
0.253703
0.114144
0.260072
0.389737
0.252941
0.430814
0.264389
0.344621
0.263163
0.151204
0.244306
-0.227925
0.230209
-0.398705
0.215857
-0.595634
0.24335
-0.370948
0.271045
0.24303
0.285847
0.38434
0.30784
0.589416
0.280949
0.258119
0.230829
-0.762958
0.246559
-0.571886
0.276466
0.546165
0.272587
0.46077
0.2558
-0.124301
0.251915
-0.140892
0.253559
0.0556352
0.253612
0.0563816
0.253378
0.00653668
0.253544
0.00390511
0.253843
0.0106223
0.0113437
0.245654
0.00633112
0.256977
0.0240154
0.292123
0.063739
0.318504
0.0494548
0.308353
-0.0311563
0.273521
-0.107276
0.237051
-0.165391
0.201414
-0.198222
0.188429
-0.24271
0.181743
-0.200075
0.140747
-0.255621
0.157066
-0.376917
0.218683
-0.170346
0.246656
0.0861716
0.254797
0.381595
0.24678
0.438831
0.255013
0.336388
0.250788
0.155429
0.229842
-0.20698
0.209481
-0.378344
0.19108
-0.577233
0.220488
-0.400356
0.255973
0.207545
0.27359
0.366723
0.296052
0.566954
0.266942
0.287229
0.213087
-0.709103
0.229711
-0.58851
0.267309
0.508568
0.264613
0.463466
0.248088
-0.107776
0.244433
-0.137237
0.247022
0.0530461
0.248065
0.0553384
0.248688
0.00591397
0.249692
0.00290121
0.250867
0.00944711
0.00973846
0.257316
0.00866024
0.263791
0.0175405
0.288212
0.0393175
0.302818
0.0348494
0.28794
-0.0162792
0.254122
-0.0734571
0.222432
-0.133701
0.188848
-0.164638
0.170571
-0.224433
0.167342
-0.196847
0.129763
-0.218042
0.12535
-0.372504
0.183344
-0.22834
0.225193
0.0443234
0.241819
0.364969
0.236435
0.444215
0.243381
0.329442
0.238794
0.160016
0.215354
-0.18354
0.188667
-0.351657
0.166482
-0.555049
0.194872
-0.428746
0.235162
0.167255
0.25589
0.345995
0.280498
0.542346
0.252444
0.315283
0.196503
-0.653162
0.212389
-0.604396
0.25469
0.466266
0.254282
0.463874
0.239223
-0.0927173
0.236274
-0.134288
0.239743
0.0495772
0.241832
0.0532486
0.243411
0.0043355
0.245346
0.000965959
0.247493
0.0073006
0.00709936
0.449689
0.0114083
-0.452437
0.454994
0.012235
0.475712
0.0185997
0.497945
0.0126164
0.50538
-0.0237144
0.491299
-0.059376
0.475709
-0.118111
0.452006
-0.140935
0.415987
-0.188414
0.403021
-0.183881
0.375122
-0.190143
0.328551
-0.325933
0.322664
-0.222454
0.300028
0.0669594
0.267688
0.397309
0.280876
0.431027
0.34876
0.261558
0.410827
0.09795
0.430377
-0.203091
0.41567
-0.33695
0.366833
-0.506211
0.331898
-0.393811
0.322454
0.1767
0.335186
0.333263
0.394035
0.483497
0.428852
0.280466
0.379559
-0.603869
0.33526
-0.560097
0.352622
0.448904
0.379331
0.437166
0.375196
-0.0885823
0.36345
-0.122543
0.361152
0.0518753
0.362422
0.0519789
0.362425
0.00433268
0.361771
0.0016193
0.361259
0.00781319
0.0070189
0.491949
0.0126235
-0.493164
0.495679
0.00850449
0.507498
0.00678115
0.519727
0.000387148
0.525369
-0.0293563
0.516123
-0.0501305
0.495376
-0.0973639
0.472941
-0.1185
0.437681
-0.153154
0.408826
-0.155026
0.384275
-0.165592
0.345299
-0.286958
0.311843
-0.188997
0.284805
0.093997
0.2736
0.408515
0.319042
0.385585
0.401825
0.178775
0.464684
0.035091
0.47255
-0.210957
0.434814
-0.299213
0.369838
-0.441236
0.332708
-0.356681
0.316922
0.192486
0.339485
0.3107
0.422866
0.400116
0.465824
0.237508
0.402993
-0.541038
0.350668
-0.507772
0.370989
0.428582
0.4055
0.402655
0.403065
-0.0861469
0.389545
-0.109023
0.386987
0.0544336
0.389131
0.0498344
0.389495
0.00396874
0.388803
0.00231133
0.388301
0.00831546
0.00691519
0.534043
0.0115798
-0.532999
0.535911
0.00663628
0.54385
-0.00115848
0.550332
-0.00609491
0.551681
-0.0307049
0.547512
-0.0459614
0.531014
-0.0808654
0.509638
-0.0971247
0.486481
-0.129996
0.463191
-0.131736
0.430226
-0.132627
0.365227
-0.221959
0.298153
-0.121923
0.270062
0.122088
0.306805
0.371772
0.39405
0.29834
0.474251
0.0985744
0.519245
-0.00990301
0.517205
-0.208917
0.465629
-0.247638
0.380752
-0.356359
0.324946
-0.300876
0.305815
0.211618
0.345059
0.271456
0.455807
0.289368
0.510883
0.182432
0.432783
-0.462938
0.363103
-0.438091
0.38997
0.401715
0.435166
0.357459
0.433479
-0.0844598
0.417558
-0.0931018
0.415061
0.0569309
0.418114
0.046781
0.418544
0.00353859
0.417732
0.00312367
0.417264
0.0087832
0.00682495
0.576319
0.00941363
-0.574153
0.578504
0.00445159
0.581085
-0.00373959
0.585195
-0.0102054
0.583334
-0.0288441
0.575439
-0.0380665
0.562359
-0.0677846
0.541273
-0.0760389
0.512995
-0.101718
0.488662
-0.107403
0.461957
-0.105922
0.400703
-0.160705
0.326542
-0.0477619
0.315789
0.132841
0.39914
0.288421
0.502632
0.194848
0.557421
0.0437859
0.574368
-0.0268506
0.552503
-0.187051
0.493909
-0.189044
0.395187
-0.257636
0.309923
-0.215612
0.300884
0.220657
0.36394
0.2084
0.486769
0.166539
0.552376
0.116825
0.458823
-0.369385
0.364753
-0.344021
0.40611
0.360358
0.470676
0.292892
0.467613
-0.0813965
0.44659
-0.0720787
0.44512
0.0584004
0.450086
0.0418152
0.450702
0.00292285
0.449836
0.00398906
0.449581
0.00903815
0.00669257
0.620012
0.00763536
-0.618234
0.621697
0.00276649
0.62283
-0.00487248
0.623453
-0.0108282
0.620438
-0.0258291
0.614415
-0.0320433
0.602217
-0.0555866
0.585608
-0.0594294
0.564353
-0.0804635
0.538403
-0.0814531
0.503927
-0.0714463
0.449933
-0.106711
0.41105
-0.00887896
0.432846
0.111045
0.524933
0.196334
0.602417
0.117363
0.62482
0.0213826
0.625177
-0.0272067
0.597001
-0.158876
0.546225
-0.138268
0.449683
-0.161095
0.349104
-0.115032
0.353909
0.215852
0.41761
0.144698
0.528751
0.0553985
0.599366
0.0462092
0.495865
-0.265884
0.379184
-0.22734
0.440315
0.299227
0.522073
0.211134
0.5109
-0.0702234
0.48238
-0.0435586
0.483387
0.0573938
0.490978
0.0342242
0.491074
0.00282696
0.489755
0.00530778
0.48964
0.00915288
0.00661758
0.6669
0.00586424
-0.665129
0.668045
0.00162162
0.668017
-0.00484394
0.667354
-0.0101655
0.663281
-0.0217561
0.657051
-0.0258133
0.644826
-0.0433615
0.629649
-0.044253
0.60876
-0.0595737
0.587752
-0.0604452
0.566092
-0.0497863
0.526225
-0.0668444
0.511102
0.0062445
0.547358
0.0747883
0.622258
0.121434
0.671166
0.068456
0.672961
0.0195872
0.663819
-0.0180651
0.626888
-0.121945
0.587292
-0.098672
0.520539
-0.094341
0.4446
-0.0390939
0.478893
0.181559
0.525966
0.0976248
0.586816
-0.00545166
0.645463
-0.0124376
0.546246
-0.166667
0.425816
-0.10691
0.502428
0.222615
0.586132
0.127429
0.56536
-0.0494508
0.532956
-0.0111548
0.538247
0.0521025
0.547425
0.025047
0.546078
0.00417396
0.543993
0.0073921
0.543831
0.0093151
0.00683761
0.717591
0.00454549
-0.716272
0.718303
0.000908845
0.71768
-0.0042202
0.715989
-0.00847439
0.711419
-0.0171862
0.705546
-0.0199403
0.694928
-0.0327439
0.683318
-0.0326433
0.667067
-0.043322
0.649094
-0.0424722
0.632915
-0.033608
0.604453
-0.0383826
0.604692
0.0060061
0.637387
0.0420935
0.683844
0.0749765
0.712979
0.0393206
0.718486
0.0140805
0.715278
-0.0148566
0.675589
-0.0822562
0.638695
-0.0617776
0.601722
-0.0573689
0.564725
-0.00209637
0.62039
0.125894
0.656651
0.0613635
0.663323
-0.0121237
0.69145
-0.0405645
0.622208
-0.0974238
0.526336
-0.0110386
0.594913
0.154039
0.662248
0.0600939
0.637257
-0.0244598
0.607687
0.0184148
0.615547
0.0442433
0.623448
0.0171455
0.620286
0.00733644
0.617379
0.0102989
0.616697
0.00999707
0.00774616
0.773384
0.00361323
-0.772452
0.773611
0.000682001
0.77253
-0.0031389
0.770556
-0.00650111
0.766159
-0.012789
0.761097
-0.0148783
0.752034
-0.0236802
0.742427
-0.0230363
0.729551
-0.0304461
0.715074
-0.0279959
0.705012
-0.0235454
0.688818
-0.0221885
0.69097
0.00385387
0.711971
0.0210927
0.74293
0.0440168
0.761175
0.0210759
0.763025
0.0122303
0.760384
-0.0122155
0.731708
-0.0535802
0.707419
-0.0374884
0.688547
-0.0384965
0.675132
0.0113188
0.724203
0.0768227
0.746733
0.0388332
0.734537
7.24216e-05
0.738648
-0.0446758
0.697684
-0.0564601
0.647825
0.0388204
0.700396
0.101468
0.737869
0.0226217
0.714372
-0.000963006
0.696612
0.0361746
0.705416
0.0354391
0.709776
0.012786
0.705916
0.0111966
0.703295
0.0129192
0.702346
0.0109465
0.00913467
0.834906
0.00306242
-0.834355
0.834749
0.000838715
0.833607
-0.00199693
0.83158
-0.00447433
0.827731
-0.00893963
0.823245
-0.0103931
0.815907
-0.0163418
0.808569
-0.0156981
0.79885
-0.0207269
0.789123
-0.0182689
0.781754
-0.0161765
0.772642
-0.0130768
0.774878
0.00161775
0.787092
0.00887911
0.805943
0.0251656
0.816813
0.0102063
0.821659
0.0073835
0.819034
-0.00958985
0.797883
-0.032429
0.781409
-0.0210147
0.768296
-0.0253837
0.767187
0.0124281
0.801099
0.0429101
0.816545
0.0233874
0.807623
0.00899468
0.795041
-0.0320941
0.76881
-0.0302292
0.761477
0.0461535
0.79905
0.063895
0.808714
0.012958
0.791479
0.0162721
0.78837
0.0392827
0.796352
0.0274577
0.796711
0.0124267
0.793451
0.0144572
0.792035
0.0143349
0.79123
0.011751
0.0105126
0.902951
0.00272379
-0.902612
0.902648
0.00114117
0.901567
-0.00091535
0.899752
-0.00265937
0.896541
-0.00572906
0.892951
-0.00680272
0.887297
-0.0106878
0.88189
-0.0102914
0.87475
-0.0135872
0.868135
-0.0116538
0.862717
-0.0107582
0.85792
-0.00828017
0.859421
0.000117143
0.865536
0.00276379
0.877725
0.0129765
0.883754
0.0041772
0.886863
0.00427523
0.884127
-0.00685383
0.870619
-0.0189217
0.861325
-0.0117201
0.852013
-0.0160716
0.854484
0.00995716
0.873461
0.0239325
0.881942
0.014907
0.879751
0.0111853
0.867131
-0.0194738
0.850724
-0.0138228
0.858533
0.038345
0.880249
0.0421793
0.87922
0.0139865
0.872531
0.0229615
0.877165
0.0346481
0.881626
0.0229968
0.880013
0.0140397
0.878613
0.0158579
0.878394
0.0145539
0.877796
0.0123488
0.0115636
0.978391
0.00255198
-0.978219
0.978044
0.00148856
0.977122
6.00622e-06
0.975634
-0.00117064
0.973137
-0.00323293
0.970383
-0.00404806
0.966182
-0.00648652
0.962318
-0.00642793
0.957113
-0.00838207
0.95283
-0.00737036
0.948967
-0.00689603
0.946098
-0.00541064
0.947038
-0.000823372
0.949693
0.000109538
0.95671
0.00595909
0.959684
0.00120336
0.962201
0.00175762
0.960038
-0.00469085
0.951706
-0.0105892
0.946157
-0.00617165
0.939103
-0.00901768
0.94204
0.00702065
0.952563
0.01341
0.957901
0.00956827
0.959005
0.0100817
0.947775
-0.00824417
0.93694
-0.00298726
0.947565
0.0277197
0.960505
0.0292388
0.95801
0.0164822
0.957164
0.0238075
0.962841
0.0289708
0.965164
0.0206735
0.963939
0.0152652
0.96392
0.0158769
0.964153
0.0143206
0.963755
0.0127475
0.012164
1.06177
0.00246573
-1.06168
1.0615
0.00175784
1.06074
0.000767904
1.05964
-7.91426e-05
1.0578
-0.00139229
1.0558
-0.00204491
1.05283
-0.00351636
1.05009
-0.00368806
1.04655
-0.00483767
1.0436
-0.00441988
1.04093
-0.00422924
1.03899
-0.00347056
1.03932
-0.00114981
1.04023
-0.00080429
1.04398
0.0022096
1.0453
-0.000117992
1.04654
0.000516004
1.04477
-0.00292303
1.03976
-0.00557478
1.03658
-0.0029917
1.03213
-0.00456807
1.03442
0.00473391
1.03971
0.00811672
1.04227
0.00700531
1.04401
0.00834003
1.03717
-0.00139671
1.03154
0.00263963
1.03884
0.0204178
1.04607
0.0220118
1.04557
0.016979
1.04759
0.0217937
1.05215
0.0244103
1.05351
0.0193086
1.05314
0.0156316
1.05373
0.0152928
1.05409
0.0139582
1.05391
0.0129305
0.0124522
1.15378
0.00238937
-1.1537
1.15361
0.00191941
1.15309
0.00128903
1.15232
0.000691791
1.15106
-0.000133355
1.14967
-0.000648388
1.14767
-0.00151739
1.14576
-0.00178539
1.14339
-0.00246154
1.14135
-0.00237958
1.13951
-0.00239271
1.13807
-0.0020255
1.13795
-0.0010302
1.13797
-0.00082727
1.1396
0.000581618
1.13992
-0.00044174
1.14047
-3.56281e-05
1.13918
-0.00163183
1.13635
-0.00273847
1.13452
-0.00116306
1.13163
-0.00168184
1.13299
0.00337195
1.13573
0.00537797
1.13729
0.00544743
1.13879
0.00684355
1.13456
0.00282593
1.13151
0.0056897
1.13638
0.0155542
1.14136
0.0170295
1.14226
0.0160784
1.14462
0.0194312
1.14821
0.0208236
1.1496
0.0179204
1.14987
0.0153577
1.15059
0.0145732
1.15106
0.0134909
1.15113
0.0128606
0.0124891
1.25515
0.00229865
-1.25506
1.25509
0.00197922
1.25477
0.00160462
1.25429
0.00117885
1.25346
0.000692323
1.25253
0.000280508
1.25125
-0.000230904
1.24995
-0.000493963
1.24841
-0.000918583
1.247
-0.000965347
1.24571
-0.00110763
1.24462
-0.000930787
1.24421
-0.000624424
1.24385
-0.000464127
1.24435
7.55016e-05
1.24421
-0.000296512
1.24424
-6.72504e-05
1.24328
-0.000675247
1.24158
-0.00103298
1.2405
-8.06784e-05
1.23884
-2.61661e-05
1.23959
0.0026246
1.24087
0.00410082
1.24165
0.00466193
1.24259
0.00590128
1.24072
0.00469963
1.23973
0.00667923
1.24274
0.0125401
1.24578
0.0139978
1.24749
0.014366
1.25013
0.016789
1.25317
0.0177876
1.25458
0.0165105
1.2552
0.0147335
1.25601
0.0137593
1.25661
0.0128902
1.25695
0.0125231
0.012267
1.36658
0.00216862
-1.36645
1.36661
0.00194819
1.36647
0.00174689
1.36621
0.00144054
1.36572
0.00117579
1.36514
0.000858302
1.36434
0.000571272
1.36352
0.000333399
1.36253
6.82214e-05
1.36158
-1.96497e-05
1.36068
-0.000200442
1.35985
-0.000109533
1.35936
-0.000132039
1.35887
2.91029e-05
1.35884
0.000108418
1.35844
9.74736e-05
1.35824
0.000133204
1.35753
3.21501e-05
1.35652
-1.96806e-05
1.35591
0.000531533
1.35492
0.000964546
1.35528
0.0022634
1.3559
0.00348401
1.35645
0.00410917
1.35719
0.00516038
1.35644
0.00544619
1.35626
0.00686432
1.3584
0.0104005
1.36073
0.0116698
1.3626
0.0124885
1.36502
0.0143731
1.36761
0.0151915
1.36927
0.0148579
1.37018
0.0138164
1.37103
0.0129181
1.37175
0.0121639
1.37237
0.0119033
0.0118094
1.48889
0.00199552
-1.48872
1.489
0.00184284
1.48899
0.00175655
1.48889
0.00153369
1.48866
0.00141281
1.48835
0.0011688
1.48789
0.00102873
1.48739
0.000831673
1.48678
0.000677492
1.48617
0.000587341
1.48556
0.000415191
1.48497
0.000476999
1.48452
0.000317516
1.48406
0.000495932
1.48381
0.000350855
1.4834
0.000515494
1.48311
0.000420731
1.4826
0.000542305
1.48197
0.000609467
1.48159
0.000913939
1.48107
0.00148352
1.48125
0.00207818
1.48161
0.00312962
1.48198
0.00373309
1.48254
0.00460418
1.48252
0.005467
1.48295
0.00643465
1.48455
0.00879706
1.48632
0.00990451
1.48811
0.0106913
1.49043
0.012061
1.49273
0.0128849
1.49455
0.0130408
1.4957
0.0126643
1.49659
0.0120271
1.49746
0.0113013
1.49834
0.011021
0.0110682
1.623
0.00178541
-1.62279
1.62316
0.00167935
1.62326
0.00166472
1.62329
0.00150184
1.62323
0.00147245
1.62311
0.00128595
1.6229
0.0012419
1.62264
0.00108461
1.62231
0.00100978
1.62196
0.000938677
1.62158
0.00079663
1.62119
0.000862306
1.62086
0.000655011
1.62049
0.000861127
1.62023
0.000611185
1.61988
0.000863177
1.61961
0.000690561
1.61927
0.000886444
1.61889
0.000987275
1.61868
0.00112537
1.61844
0.00172138
1.61857
0.0019513
1.61885
0.00284719
1.6192
0.00338336
1.61976
0.00404268
1.62009
0.00513802
1.62072
0.00580731
1.62209
0.00742637
1.62361
0.00838358
1.62535
0.00895108
1.62741
0.0099987
1.62946
0.0108403
1.63138
0.0111177
1.63278
0.0112673
1.63375
0.0110594
1.63478
0.0102632
1.63591
0.00989221
0.0101156
1.76993
0.00154496
-1.76969
1.77014
0.00147483
1.7703
0.00149886
1.77042
0.00138415
1.77049
0.00140466
1.77051
0.00126778
1.77047
0.00127794
1.7704
0.00116093
1.77027
0.00113624
1.77012
0.00109011
1.76993
0.000985586
1.76973
0.00105891
1.76953
0.000855939
1.76932
0.00106737
1.76914
0.0008001
1.76893
0.00106682
1.76874
0.000882749
1.76856
0.00106914
1.76836
0.00118518
1.76828
0.00120894
1.76823
0.0017674
1.76837
0.00181113
1.76868
0.00253421
1.76903
0.00303296
1.76961
0.0034674
1.77014
0.00460304
1.77094
0.005015
1.77221
0.00615041
1.77351
0.00708526
1.77519
0.00727385
1.77706
0.00812406
1.77889
0.00901581
1.78093
0.00907502
1.78249
0.00970522
1.78353
0.0100222
1.78479
0.00900451
1.78617
0.00850946
0.00894069
1.93083
0.00128308
-1.93057
1.93106
0.0012486
1.93128
0.00127865
1.93145
0.00121388
1.93161
0.0012419
1.93172
0.00116065
1.93181
0.00117988
1.93186
0.00111036
1.9319
0.00110122
1.93191
0.00107928
1.93189
0.00100737
1.93188
0.00107024
1.93181
0.000920123
1.9318
0.0010792
1.93171
0.0008862
1.9317
0.00108195
1.93161
0.000969929
1.93159
0.00108869
1.93155
0.00122664
1.93156
0.00119858
1.93168
0.0016524
1.93182
0.00166904
1.93219
0.0021644
1.93257
0.00265319
1.93319
0.00285029
1.93391
0.00387936
1.93479
0.00413478
1.93607
0.00487441
1.93732
0.00583147
1.93887
0.00572316
1.94056
0.00642952
1.94224
0.00733687
1.94426
0.00705407
1.94597
0.00800221
1.94728
0.00871401
1.94878
0.00749891
1.95028
0.00701494
0.00760297
2.10695
0.000998739
-2.10667
2.10721
0.000993267
2.10747
0.00101292
2.10769
0.000990978
2.10793
0.00100598
2.10812
0.000974089
2.10832
0.000981255
2.10847
0.000953505
2.10863
0.000944536
2.10877
0.000937773
2.10888
0.000897042
2.10902
0.000929475
2.10909
0.000854971
2.10923
0.000932151
2.10927
0.00084575
2.10941
0.00094188
2.10947
0.000916096
2.10958
0.000978672
2.10971
0.00109916
2.1098
0.00110393
2.11006
0.00139048
2.11026
0.00146692
2.11068
0.00174917
2.11118
0.00214768
2.11178
0.00225545
2.11269
0.00297119
2.11364
0.00317843
2.11486
0.00365743
2.11627
0.00441946
2.11763
0.00436379
2.11917
0.00489244
2.12091
0.00559453
2.12262
0.00534633
2.12449
0.00612969
2.12646
0.00674606
2.12807
0.00589406
2.12944
0.00563873
0.00608327
2.29975
0.000688598
-2.29944
2.30005
0.000694731
2.30036
0.000706837
2.30065
0.000704889
2.30094
0.000712938
2.30121
0.000705396
2.30148
0.000708635
2.30173
0.000701304
2.30198
0.000697669
2.30222
0.000696537
2.30244
0.000680569
2.30267
0.000692883
2.30286
0.000666441
2.3031
0.000696883
2.30327
0.000668941
2.3035
0.00071071
2.30371
0.000714611
2.30393
0.00075696
2.3042
0.00082626
2.30444
0.000866533
2.30482
0.00101277
2.30518
0.0011055
2.30566
0.00126399
2.3063
0.00150722
2.30694
0.00161706
2.3079
0.00200751
2.3089
0.00218544
2.31006
0.00250017
2.31155
0.00292554
2.31288
0.00302904
2.31442
0.00335991
2.31625
0.00376201
2.31784
0.00375465
2.3198
0.00416651
2.32208
0.00446899
2.32381
0.00416097
2.32534
0.00411599
0.00432294
2.51089
0.000355859
-2.51056
2.51122
0.000362099
2.51156
0.000368036
2.51189
0.000371124
2.51223
0.000374802
2.51256
0.000375482
2.51289
0.000376995
2.51322
0.000377167
2.51354
0.000376569
2.51386
0.000377704
2.51416
0.000373712
2.51448
0.000377911
2.51477
0.000372352
2.51509
0.000381862
2.51538
0.000378349
2.5157
0.000391814
2.51601
0.000400986
2.51635
0.000420598
2.51672
0.000453212
2.51711
0.000482126
2.51758
0.000542735
2.51808
0.00060223
2.51867
0.000671957
2.51938
0.000793587
2.52014
0.0008587
2.52111
0.00103556
2.52216
0.00113714
2.52337
0.00129158
2.52481
0.00148442
2.52627
0.00157055
2.5279
0.00173493
2.52973
0.00192368
2.53152
0.00196581
2.53354
0.00214643
2.53574
0.00227177
2.53772
0.00218573
2.53963
0.00220085
0.00228684
2.74222
-2.74186
2.74258
2.74295
2.74332
2.7437
2.74407
2.74445
2.74483
2.7452
2.74558
2.74595
2.74633
2.7467
2.74709
2.74746
2.74786
2.74826
2.74868
2.74913
2.74961
2.75016
2.75076
2.75143
2.75222
2.75308
2.75412
2.75526
2.75655
2.75803
2.7596
2.76134
2.76326
2.76523
2.76737
2.76964
2.77183
2.77403
0.421881
0.0436795
-0.41542
0.428008
0.0733005
0.434348
0.102235
0.439658
0.131702
0.444716
0.158865
0.449789
0.187239
0.450303
0.21327
0.235539
0.453996
0.0379051
-0.448222
0.459303
0.0679935
0.46519
0.0963477
0.470647
0.126246
0.475963
0.153549
0.481954
0.181248
0.487981
0.207242
0.230357
0.490417
0.0331406
-0.485652
0.495215
0.0631951
0.500635
0.0909277
0.506206
0.120674
0.512403
0.147352
0.519127
0.174524
0.526722
0.199647
0.22408
0.530148
0.029068
-0.526075
0.534735
0.0586082
0.539799
0.085863
0.545505
0.114968
0.551917
0.14094
0.558569
0.167872
0.566485
0.191732
0.216412
0.574266
0.0256623
-0.57086
0.578567
0.0543071
0.583287
0.0811437
0.588867
0.109388
0.59516
0.134647
0.602034
0.160997
0.609838
0.183928
0.208016
0.622587
0.0225996
-0.619524
0.626587
0.0503074
0.630997
0.0767334
0.636391
0.103994
0.642315
0.128724
0.649108
0.154204
0.656617
0.176419
0.199504
0.675456
0.0199125
-0.672769
0.67906
0.0467034
0.683083
0.0727107
0.68818
0.0988962
0.693746
0.123158
0.700507
0.147443
0.707839
0.169087
0.191071
0.7331
0.0176129
-0.730801
0.736296
0.0435073
0.740029
0.0689782
0.744923
0.0940017
0.750443
0.117638
0.757073
0.140814
0.76423
0.161929
0.18285
0.796019
0.01566
-0.794066
0.79893
0.0405964
0.802642
0.0652666
0.807417
0.0892263
0.812826
0.112229
0.819215
0.134426
0.826269
0.154875
0.174764
0.864947
0.0139486
-0.863236
0.867645
0.0378986
0.87123
0.0616813
0.875726
0.0847303
0.881024
0.10693
0.887365
0.128085
0.89451
0.14773
0.166661
0.940272
0.0125123
-0.938836
0.942714
0.0354573
0.946188
0.0582067
0.950674
0.0802449
0.956182
0.101422
0.962679
0.121588
0.969988
0.140421