/*--------------------------------*- C++ -*----------------------------------*\
| =========                 |                                                 |
| \\      /  F ield         | OpenFOAM: The Open Source CFD Toolbox           |
|  \\    /   O peration     | Version:  2312                                  |
|   \\  /    A nd           | Website:  www.openfoam.com                      |
|    \\/     M anipulation  |                                                 |
\*---------------------------------------------------------------------------*/
FoamFile
{
    version     2.0;
    format      ascii;
    arch        "LSB;label=32;scalar=64";
    class       surfaceScalarField;
    location    "65";
    object      phi;
}
// * * * * * * * * * * * * * * * * * * * * * * * * * * * * * * * * * * * * * //

dimensions      [0 3 -1 0 0 0 0];

oriented        oriented;

internalField   nonuniform List<scalar> 
10785
(
-0.00124612
0.00473688
-0.00349075
-0.00112393
0.00747547
-0.00759767
0.00316847
0.00413968
-0.00843208
0.0146572
-0.00684332
-0.00464538
0.0354727
-0.0260313
0.00521585
0.0651826
-0.0510816
0.0213716
0.100662
-0.0782476
0.042768
0.13748
-0.104178
0.0673604
0.171051
-0.126524
0.0929529
0.197933
-0.144207
0.117325
0.215974
-0.157163
0.139123
0.226554
-0.166461
0.155881
0.231249
-0.174597
0.169902
0.234662
-0.180929
0.177516
-0.191662
0.188318
0.238006
-0.000588346
0.00532522
0.00153427
0.00535286
0.0103689
-0.004695
0.0293103
-0.0257847
0.0577084
-0.0544295
0.0910467
-0.0844199
0.1237
-0.110901
0.151094
-0.131571
0.170913
-0.146344
0.18341
-0.156704
0.191038
-0.164791
0.197276
-0.172699
0.20365
-0.180971
0.212205
-0.189484
-0.198783
0.219327
0.000407537
0.00491768
0.0057314
2.89977e-05
0.0209354
-0.019899
0.0465872
-0.0514365
0.0770912
-0.0849335
0.105693
-0.113021
0.12804
-0.133248
0.14316
-0.146692
0.152856
-0.156039
0.160005
-0.163854
0.166871
-0.171657
0.173763
-0.179591
0.180243
-0.18745
0.18573
-0.194972
-0.202626
0.189572
0.00152396
0.00339373
0.0111319
-0.00957893
0.0325273
-0.0412944
0.0602019
-0.0791112
0.0859246
-0.110656
0.105195
-0.132291
0.117876
-0.145929
0.126315
-0.155131
0.132945
-0.16267
0.138969
-0.169877
0.144319
-0.177007
0.148987
-0.184259
0.153238
-0.191701
0.157858
-0.199592
-0.208296
0.163529
0.0029352
0.000458529
0.017397
-0.0240407
0.0417118
-0.0656092
0.0657176
-0.103117
0.0836274
-0.128566
0.0951837
-0.143848
0.102653
-0.153398
0.108118
-0.160597
0.112597
-0.167149
0.116438
-0.173718
0.120073
-0.180642
0.123797
-0.187983
0.127704
-0.195609
0.131715
-0.203603
-0.211434
0.134853
0.00484498
-0.00438645
0.0230035
-0.0421992
0.0455482
-0.088154
0.0633377
-0.120906
0.0746787
-0.139907
0.0814456
-0.150615
0.0857656
-0.157718
0.088956
-0.163787
0.0917015
-0.169894
0.0943723
-0.176389
0.0969837
-0.183253
0.0994077
-0.190407
0.10167
-0.197871
0.103734
-0.205668
-0.213934
0.106234
0.00710694
-0.0114934
0.0261794
-0.0612717
0.0441771
-0.106152
0.0560902
-0.13282
0.0626977
-0.146514
0.0662264
-0.154143
0.0683663
-0.159858
0.0699849
-0.165406
0.0713719
-0.171281
0.0725257
-0.177542
0.0734771
-0.184205
0.0743642
-0.191294
0.0752686
-0.198775
0.076297
-0.206696
-0.214744
0.0771071
0.00894054
-0.0204339
0.0260151
-0.0783462
0.0391762
-0.119313
0.0463612
-0.140005
0.0495414
-0.149695
0.0507909
-0.155393
0.051256
-0.160323
0.0513424
-0.165492
0.0511615
-0.1711
0.0508028
-0.177184
0.0503283
-0.18373
0.0497316
-0.190697
0.0490655
-0.198109
0.0483039
-0.205935
0.0477717
-0.214211
-0.000618887
0.00957705
-0.00895817
-0.00293448
0.0228648
-0.0205492
-0.00678256
0.0308958
-0.0270477
-0.0115153
0.0359825
-0.0312498
-0.0165278
0.0404868
-0.0354744
-0.0213216
0.045254
-0.0404602
-0.0254046
0.0500253
-0.0459423
-0.0281971
0.0541284
-0.0513358
-0.0290548
0.0567656
-0.0559079
-0.0273351
0.0570714
-0.0587911
-0.022471
0.0541834
-0.0590476
-0.0141655
0.0474001
-0.0557055
-0.002359
0.0359655
-0.047772
0.0132531
0.0188933
-0.0345054
-0.0028041
0.031082
-0.0150248
0.00071718
0.00885988
0.000788313
0.0227937
-0.000290081
0.0319741
-0.00192702
0.0376195
-0.00320299
0.0417628
-0.0033542
0.0454052
-0.00176114
0.0484322
0.00215365
0.0502136
0.00894014
0.0499791
0.0189871
0.0470244
0.03246
0.0407105
0.0494962
0.0303639
0.0690258
0.0164358
0.091232
-0.00331287
-0.0268063
0.115234
0.00176806
0.00709181
0.00421067
0.0203511
0.00621142
0.0299734
0.00806304
0.0357679
0.0107146
0.0391112
0.0151231
0.0409967
0.0220084
0.041547
0.0318636
0.0403584
0.044899
0.0369436
0.0614478
0.0304757
0.0806799
0.0214784
0.103152
0.00789149
0.128028
-0.00843969
0.15601
-0.0312947
-0.0577958
0.186999
0.00216922
0.00492259
0.00621992
0.0163004
0.0108026
0.0253907
0.0157771
0.0307933
0.0218167
0.0330717
0.0297995
0.0330138
0.0403903
0.0309562
0.0540042
0.0267445
0.0705052
0.0204426
0.0903205
0.0106604
0.112392
-0.000593581
0.138938
-0.0186542
0.168193
-0.0376943
0.202345
-0.0654473
-0.0963871
0.240937
0.00182295
0.00309964
0.00611141
0.0120119
0.0118859
0.0196162
0.0187416
0.0239376
0.0269275
0.0248858
0.036994
0.0229472
0.0494359
0.0185144
0.06461
0.0115703
0.0828917
0.00216089
0.10506
-0.0115081
0.13183
-0.0273636
0.16406
-0.0508842
0.200819
-0.0744531
0.243002
-0.10763
-0.138397
0.285012
0.000925661
0.00217398
0.00410011
0.00883747
0.00929749
0.0144188
0.0161735
0.0170617
0.0247515
0.0163078
0.0354802
0.0122186
0.0491966
0.00479796
0.066932
-0.00616504
0.0903471
-0.0212542
0.119228
-0.0403895
0.155451
-0.0635857
0.195521
-0.090955
0.238981
-0.117913
0.280572
-0.149222
-0.170313
0.312488
-0.000207939
0.00238192
0.00112172
0.00750781
0.00458337
0.0109572
0.0103974
0.0112476
0.0191796
0.00752555
0.0323231
-0.000924869
0.0513377
-0.0142166
0.0773408
-0.0321682
0.110426
-0.054339
0.148822
-0.0787861
0.190759
-0.105522
0.230214
-0.130411
0.266439
-0.154137
0.290521
-0.173304
-0.18322
0.303428
-0.00110883
-0.00119869
0.00132643
0.00792866
0.0206701
0.0411168
0.0696682
0.10486
0.143474
0.182013
0.215614
0.241085
0.256849
0.261062
0.266159
0.0685772
-0.0847576
0.0472623
0.106347
-0.217703
0.179933
0.138729
-0.310308
0.277926
0.127198
-0.326487
0.338017
0.0818725
-0.348082
0.393408
0.0988865
-0.326317
0.309303
0.163317
-0.0978155
0.0333846
0.218124
0.151788
-0.206594
0.245805
0.274473
-0.302154
0.236963
0.33303
-0.324188
0.210018
0.416579
-0.389635
0.209201
0.382615
-0.381798
0.240525
0.146581
-0.177905
0.262457
-0.0911139
0.0691815
0.261772
-0.259039
0.259725
0.260384
-0.392908
0.394295
0.265446
-0.437587
0.432525
0.268744
-0.305325
0.302027
0.271928
-0.0560877
0.0529035
0.27997
0.297419
-0.305461
0.294537
0.550667
-0.565233
0.296266
0.55511
-0.556838
0.270831
0.292507
-0.267072
0.242183
-0.186101
0.21475
0.242341
-0.491179
0.49102
0.255668
-0.32378
0.310453
0.256633
0.0909282
-0.0918931
0.239677
0.375855
-0.358899
0.214945
0.351968
-0.327235
0.196611
0.130399
-0.112066
0.189421
-0.139725
0.146915
0.194172
-0.317423
0.312671
0.210813
-0.342729
0.326088
0.228409
-0.282505
0.264909
0.237508
-0.217552
0.208453
0.237974
-0.132325
0.131859
0.23927
-0.107733
0.106438
-0.0218396
0.0183682
0.137167
-0.10669
0.152493
-0.233029
0.168042
-0.325858
0.166374
-0.324818
0.11146
-0.293168
0.0842294
-0.299086
0.139089
-0.152676
0.206468
0.0844089
0.243943
0.236998
0.236453
0.34052
0.211978
0.441054
0.214241
0.380352
0.24492
0.115902
0.264716
-0.11091
0.258167
-0.25249
0.253929
-0.38867
0.260836
-0.444493
0.262465
-0.306954
0.26486
-0.0584829
0.279422
0.282857
0.301863
0.528226
0.306035
0.550937
0.277938
0.320605
0.243317
-0.15148
0.240675
-0.488537
0.257061
-0.340166
0.260352
0.0876374
0.24349
0.392716
0.218389
0.377068
0.200003
0.148785
0.19274
-0.132461
0.195908
-0.320591
0.210766
-0.357587
0.230195
-0.301934
0.242838
-0.230196
0.244459
-0.133946
0.2432
-0.106475
-0.023137
0.202396
-0.122087
0.200754
-0.231388
0.184297
-0.3094
0.178751
-0.319273
0.145171
-0.259588
0.0993992
-0.253314
0.131041
-0.184317
0.2008
0.0146498
0.244671
0.193127
0.24467
0.340521
0.223958
0.461765
0.223822
0.380488
0.248432
0.0912919
0.266504
-0.128982
0.254205
-0.240191
0.243143
-0.377608
0.250907
-0.452257
0.252748
-0.308795
0.254544
-0.0602787
0.274481
0.26292
0.30407
0.498637
0.31165
0.543357
0.282538
0.349717
0.24282
-0.111762
0.236665
-0.482383
0.255841
-0.359342
0.262698
0.0807811
0.247121
0.408293
0.221918
0.402271
0.202888
0.167815
0.195413
-0.124986
0.197721
-0.3229
0.21039
-0.370255
0.229728
-0.321272
0.245466
-0.245934
0.249901
-0.138381
0.247547
-0.10412
-0.0225857
0.250355
-0.131505
0.243328
-0.224361
0.207722
-0.273794
0.177914
-0.289464
0.160385
-0.24206
0.120855
-0.213784
0.136126
-0.199588
0.20584
-0.0550649
0.245691
0.153277
0.243242
0.34297
0.229572
0.475436
0.231279
0.378781
0.248099
0.0744724
0.265116
-0.146
0.251733
-0.226808
0.231509
-0.357383
0.237779
-0.458528
0.242274
-0.31329
0.244002
-0.0620066
0.266397
0.240524
0.300725
0.464309
0.312108
0.531974
0.283958
0.377866
0.240899
-0.0687029
0.230885
-0.472369
0.25225
-0.380707
0.26368
0.0693512
0.250595
0.421378
0.225543
0.427323
0.205551
0.187807
0.197338
-0.116772
0.199077
-0.324639
0.210012
-0.38119
0.228068
-0.339327
0.245642
-0.263508
0.253587
-0.146326
0.251675
-0.102209
-0.0208538
0.281278
-0.127771
0.255859
-0.198942
0.21695
-0.234886
0.173839
-0.246354
0.156522
-0.224742
0.135455
-0.192717
0.134924
-0.199056
0.200242
-0.120384
0.251551
0.101968
0.263426
0.331096
0.257374
0.481487
0.248538
0.387617
0.248438
0.0745721
0.259439
-0.157
0.246584
-0.213952
0.21792
-0.328719
0.220228
-0.460836
0.230399
-0.323462
0.233469
-0.0650761
0.255826
0.218167
0.293361
0.426775
0.308961
0.516374
0.282544
0.404283
0.237351
-0.0235094
0.223443
-0.458461
0.246507
-0.403771
0.26329
0.052568
0.253362
0.431306
0.228819
0.451865
0.208011
0.208615
0.198671
-0.107432
0.199693
-0.325661
0.209479
-0.390976
0.225962
-0.355811
0.244074
-0.281621
0.255324
-0.157575
0.25508
-0.101965
-0.0187683
0.295175
-0.110458
0.253599
-0.157366
0.209288
-0.190574
0.169447
-0.206513
0.14592
-0.201215
0.137166
-0.183963
0.129202
-0.191093
0.175616
-0.166798
0.238224
0.0393606
0.258018
0.311301
0.259757
0.479748
0.256327
0.391047
0.248131
0.0827678
0.251458
-0.160327
0.240582
-0.203076
0.206245
-0.294382
0.200776
-0.455367
0.217591
-0.340276
0.224445
-0.0719304
0.244455
0.198156
0.280521
0.39071
0.299599
0.497296
0.277306
0.426575
0.232207
0.0215899
0.214686
-0.44094
0.238625
-0.42771
0.261317
0.0298764
0.255643
0.436981
0.232048
0.47546
0.210327
0.230336
0.199551
-0.0966556
0.199559
-0.32567
0.208526
-0.399942
0.223702
-0.370987
0.241492
-0.29941
0.255319
-0.171402
0.257477
-0.104124
-0.0171383
0.277509
-0.0845383
0.238748
-0.118605
0.197173
-0.148999
0.165574
-0.174914
0.141732
-0.177373
0.130109
-0.17234
0.119294
-0.180277
0.140111
-0.187614
0.212966
-0.0334944
0.263076
0.261191
0.280565
0.462259
0.270721
0.400891
0.246511
0.106978
0.238497
-0.152314
0.228976
-0.193555
0.193236
-0.258642
0.179998
-0.442129
0.201676
-0.361954
0.214601
-0.0848559
0.231567
0.181191
0.265898
0.356378
0.289412
0.473782
0.271128
0.444859
0.225594
0.0671242
0.204615
-0.419961
0.228594
-0.45169
0.257669
0.000802287
0.256294
0.438355
0.233887
0.497867
0.211784
0.252438
0.199806
-0.0846778
0.198723
-0.324586
0.206991
-0.40821
0.221287
-0.385283
0.238423
-0.316547
0.253975
-0.186954
0.258793
-0.108942
-0.0166386
0.244617
-0.0629961
0.217916
-0.0919041
0.186401
-0.117485
0.159292
-0.147805
0.139327
-0.157408
0.121724
-0.154737
0.104784
-0.163337
0.103132
-0.185963
0.154444
-0.0848065
0.224343
0.191292
0.259408
0.427194
0.260751
0.399549
0.241588
0.12614
0.227859
-0.138584
0.217714
-0.18341
0.180956
-0.221884
0.160602
-0.421776
0.183299
-0.384651
0.203267
-0.104824
0.216503
0.167956
0.244613
0.328268
0.27165
0.446745
0.259658
0.456852
0.217779
0.109003
0.194108
-0.39629
0.217083
-0.474665
0.251644
-0.0337585
0.256602
0.433397
0.23607
0.518399
0.213087
0.275422
0.199557
-0.0711474
0.197403
-0.322432
0.205057
-0.415864
0.21871
-0.398936
0.235192
-0.333029
0.251737
-0.203499
0.259111
-0.116316
-0.0177672
0.489715
-0.0475698
-0.505142
0.472857
-0.075046
0.448065
-0.092692
0.420417
-0.120157
0.389669
-0.12666
0.355054
-0.120122
0.313058
-0.121341
0.249921
-0.122826
0.195936
-0.0308212
0.181518
0.20571
0.250512
0.358199
0.373478
0.276582
0.445166
0.0544531
0.460054
-0.153472
0.453133
-0.176489
0.421742
-0.190494
0.391774
-0.391808
0.375342
-0.368219
0.336039
-0.0655203
0.293681
0.210313
0.301298
0.320651
0.345826
0.402217
0.376656
0.426022
0.384249
0.10141
0.38501
-0.397051
0.389026
-0.478682
0.389375
-0.0341067
0.372359
0.450413
0.351488
0.53927
0.34016
0.286749
0.335672
-0.0666591
0.335042
-0.321802
0.339135
-0.419957
0.34901
-0.408812
0.362109
-0.346127
0.378037
-0.219428
0.384904
-0.123183
-0.0161226
0.510892
-0.0339601
-0.524501
0.492391
-0.0565452
0.469175
-0.0694766
0.441703
-0.0926848
0.408306
-0.0932638
0.37889
-0.0907059
0.351998
-0.0944493
0.306178
-0.0770063
0.257301
0.0180561
0.268449
0.194563
0.367702
0.258946
0.481382
0.162903
0.521678
0.014157
0.504712
-0.136506
0.482815
-0.154592
0.448158
-0.155837
0.419996
-0.363646
0.404055
-0.352278
0.351225
-0.0126899
0.292378
0.26916
0.297981
0.315048
0.36237
0.337828
0.414033
0.374359
0.430796
0.0846469
0.432212
-0.398466
0.437244
-0.483714
0.434774
-0.0316369
0.41849
0.466697
0.398707
0.559053
0.389219
0.296238
0.384175
-0.0616149
0.380442
-0.318069
0.380896
-0.420411
0.388017
-0.415932
0.398619
-0.356729
0.412761
-0.23357
0.420796
-0.131218
-0.0157942
0.539467
-0.0241864
-0.54924
0.526328
-0.0434061
0.507995
-0.0511436
0.484185
-0.0688751
0.458057
-0.067136
0.431683
-0.0643316
0.399936
-0.0627028
0.361877
-0.0389472
0.352495
0.027438
0.400336
0.146722
0.488768
0.170514
0.561607
0.090063
0.570453
0.0053113
0.540362
-0.106415
0.526319
-0.140549
0.499701
-0.12922
0.454966
-0.318911
0.429297
-0.326609
0.373836
0.0427718
0.300338
0.342658
0.308607
0.306779
0.39655
0.249884
0.468936
0.301973
0.485792
0.0677912
0.482075
-0.394749
0.486238
-0.487877
0.485546
-0.0309453
0.470005
0.482239
0.453326
0.575731
0.446413
0.30315
0.440381
-0.055583
0.432569
-0.310257
0.427922
-0.415765
0.431033
-0.419043
0.439118
-0.364814
0.450969
-0.245421
0.459039
-0.139288
-0.0166215
0.573147
-0.016401
-0.580932
0.560028
-0.0302871
0.543191
-0.0343062
0.523124
-0.0488085
0.50182
-0.0458317
0.480552
-0.0430643
0.460217
-0.0423672
0.436221
-0.0149518
0.441724
0.0219353
0.497554
0.0908919
0.558209
0.109859
0.597384
0.0508886
0.603278
-0.000582815
0.573133
-0.0762697
0.5515
-0.118916
0.52708
-0.1048
0.478074
-0.269904
0.435137
-0.283672
0.375915
0.101994
0.31741
0.401163
0.345351
0.278838
0.450208
0.145028
0.532421
0.21976
0.549286
0.050926
0.539204
-0.384668
0.540511
-0.489184
0.54011
-0.0305452
0.527073
0.495276
0.516674
0.58613
0.51411
0.305715
0.506519
-0.0479923
0.493221
-0.296958
0.482164
-0.404709
0.479832
-0.416711
0.484511
-0.369493
0.493535
-0.254445
0.500596
-0.146349
-0.0180786
0.609902
-0.00951838
-0.616785
0.599691
-0.0200762
0.587599
-0.0222142
0.571303
-0.0325125
0.556055
-0.030584
0.539475
-0.0264839
0.524221
-0.027113
0.512293
-0.00302389
0.518766
0.0154618
0.560069
0.0495896
0.602162
0.0677654
0.62474
0.0283108
0.63012
-0.00596285
0.610629
-0.0567787
0.594191
-0.102478
0.573081
-0.0836899
0.509409
-0.206232
0.443889
-0.218153
0.391491
0.154392
0.375799
0.416855
0.427831
0.226806
0.531363
0.0414956
0.611369
0.139754
0.619604
0.042691
0.596741
-0.361805
0.591977
-0.484419
0.596721
-0.0352893
0.591972
0.500025
0.589891
0.588211
0.5914
0.304206
0.580926
-0.0375183
0.560497
-0.27653
0.542045
-0.386256
0.533714
-0.408379
0.534521
-0.370301
0.540607
-0.260531
0.546172
-0.151914
-0.0196791
0.653693
-0.00469289
-0.658519
0.645519
-0.0119025
0.636537
-0.0132319
0.623688
-0.0196639
0.611885
-0.0187803
0.600524
-0.0151227
0.589415
-0.0160042
0.586044
0.000347318
0.591583
0.009922
0.61564
0.0255325
0.644528
0.0388775
0.660506
0.0123333
0.666036
-0.0114934
0.645953
-0.0366956
0.625782
-0.0823075
0.61285
-0.0707573
0.549823
-0.143205
0.473717
-0.142047
0.45942
0.168689
0.505999
0.370276
0.564372
0.168433
0.632531
-0.0266633
0.692148
0.0801361
0.694629
0.0402101
0.657377
-0.324552
0.638494
-0.465536
0.64295
-0.0397452
0.650074
0.492901
0.665121
0.573164
0.675906
0.293422
0.662828
-0.0244405
0.63408
-0.247782
0.607683
-0.359859
0.593203
-0.393899
0.589719
-0.366817
0.592637
-0.263449
0.596375
-0.155652
-0.0210044
0.703867
-0.000989513
-0.70757
0.69757
-0.00560556
0.690876
-0.00653816
0.681664
-0.0104516
0.673171
-0.0102872
0.666018
-0.00796916
0.658466
-0.00845235
0.657442
0.00137113
0.661484
0.00588007
0.674544
0.0124718
0.694105
0.0193167
0.702344
0.00409434
0.705766
-0.014915
0.696458
-0.0273873
0.678152
-0.0640015
0.661008
-0.0536134
0.603457
-0.0856545
0.540233
-0.0788227
0.571238
0.137684
0.662899
0.278615
0.70657
0.124762
0.724868
-0.0449613
0.760801
0.0442031
0.763616
0.0373942
0.712512
-0.273448
0.673692
-0.426716
0.682328
-0.0483816
0.712653
0.462575
0.749874
0.535944
0.766374
0.276922
0.747098
-0.00516469
0.709393
-0.210078
0.67611
-0.326576
0.656718
-0.374507
0.649555
-0.359654
0.649611
-0.263504
0.651523
-0.157564
-0.0218661
0.760532
0.00175393
-0.763276
0.75607
-0.00114274
0.751219
-0.00168766
0.745031
-0.00426339
0.738871
-0.00412706
0.734128
-0.00322678
0.729077
-0.00340086
0.7288
0.00164846
0.73181
0.0028695
0.738232
0.00604986
0.750318
0.00723062
0.755442
-0.00102978
0.75581
-0.0152823
0.748341
-0.0199188
0.73108
-0.04674
0.716977
-0.0395108
0.680111
-0.0487889
0.637722
-0.0364337
0.683218
0.0921885
0.778917
0.182916
0.808638
0.095042
0.791724
-0.0280481
0.808306
0.0276214
0.821042
0.0246585
0.763757
-0.216163
0.697024
-0.359983
0.7028
-0.0541578
0.761339
0.404037
0.821764
0.475518
0.846648
0.252038
0.827895
0.013589
0.787184
-0.169368
0.750043
-0.289434
0.726385
-0.35085
0.715165
-0.348435
0.711991
-0.26033
0.711871
-0.157445
-0.0220841
0.823894
0.00367266
-0.825812
0.820897
0.00185419
0.817572
0.00163666
0.813478
-0.000168785
0.809399
-4.82379e-05
0.806184
-1.14722e-05
0.803068
-0.00028526
0.802682
0.00203413
0.804206
0.00134593
0.807323
0.00293303
0.813735
0.000817983
0.815795
-0.00308905
0.81473
-0.0142172
0.810465
-0.0156543
0.79828
-0.0345552
0.78547
-0.0267005
0.764185
-0.0275037
0.742812
-0.0150606
0.77756
0.0574402
0.849149
0.111327
0.872597
0.0715935
0.85165
-0.00710075
0.858428
0.0208429
0.87274
0.010347
0.812148
-0.155572
0.712228
-0.260062
0.697267
-0.0391963
0.777295
0.324008
0.871894
0.38092
0.918607
0.205325
0.908289
0.0239068
0.869298
-0.130377
0.830454
-0.25059
0.803368
-0.323763
0.787988
-0.333054
0.781052
-0.253394
0.778273
-0.154666
-0.0214014
0.894475
0.00490964
-0.895712
0.892571
0.00375812
0.890395
0.00381215
0.887682
0.00254392
0.885026
0.00260827
0.882793
0.00222179
0.880797
0.00171041
0.880244
0.0025872
0.880707
0.000882402
0.881986
0.0016545
0.884931
-0.00212748
0.885409
-0.00356645
0.884129
-0.0129372
0.880284
-0.011809
0.871233
-0.0255042
0.86255
-0.0180179
0.852057
-0.0170112
0.843557
-0.00655966
0.865599
0.0353982
0.91165
0.0652757
0.930863
0.052381
0.916129
0.00763251
0.914725
0.0222477
0.923451
0.00162038
0.871109
-0.103229
0.76533
-0.154284
0.738098
-0.0119642
0.826555
0.235552
0.939496
0.267979
0.994295
0.150525
0.985427
0.0327748
0.946937
-0.0918871
0.909096
-0.212749
0.881933
-0.2966
0.86485
-0.315971
0.855507
-0.244051
0.850529
-0.149688
-0.0197335
0.972415
0.00566651
-0.973172
0.97125
0.00492262
0.969889
0.00517358
0.968193
0.00424004
0.966495
0.00430629
0.964973
0.00374386
0.963603
0.00308
0.962954
0.003236
0.962796
0.00104044
0.962964
0.00148707
0.964001
-0.0031644
0.963408
-0.00297329
0.961949
-0.0114787
0.959289
-0.00914926
0.953484
-0.0196993
0.948547
-0.0130803
0.943604
-0.0120687
0.940793
-0.00374845
0.954728
0.0214636
0.982441
0.0375626
0.995279
0.0395433
0.987936
0.0149751
0.985136
0.0250472
0.983219
0.00353783
0.941254
-0.0612643
0.863675
-0.0767049
0.845795
0.00591589
0.929462
0.151885
1.02867
0.168766
1.07277
0.106433
1.06148
0.044057
1.02765
-0.0580519
0.994298
-0.179398
0.968153
-0.270454
0.949147
-0.296965
0.9369
-0.231805
0.929352
-0.14214
-0.0172067
1.05806
0.00603791
-1.05844
1.05744
0.00555082
1.05665
0.00596141
1.05563
0.00525607
1.05457
0.00536642
1.05353
0.00478273
1.05258
0.00403678
1.05191
0.00389906
1.05149
0.00146282
1.05114
0.00183485
1.05114
-0.00315817
1.05032
-0.00215729
1.04908
-0.0102371
1.04723
-0.0073028
1.04354
-0.01601
1.04087
-0.0104057
1.039
-0.0101995
1.03902
-0.00376826
1.04753
0.012952
1.06379
0.0213074
1.07166
0.0316737
1.06779
0.0188361
1.06498
0.0278663
1.05791
0.010601
1.02633
-0.0296845
0.98004
-0.0304119
0.978861
0.00709484
1.0451
0.0856493
1.11582
0.0980452
1.14454
0.0777053
1.13493
0.053675
1.10995
-0.0330757
1.08379
-0.153233
1.0601
-0.246764
1.04004
-0.276907
1.02544
-0.217205
1.01539
-0.132093
-0.013363
1.15205
0.0061515
-1.15216
1.15177
0.00583111
1.15137
0.00636019
1.15081
0.00581464
1.1502
0.00597967
1.14953
0.00545392
1.14888
0.00468938
1.14829
0.00448105
1.14782
0.00193743
1.1473
0.00235156
1.14694
-0.00279436
1.14617
-0.00139117
1.1451
-0.00916892
1.1439
-0.00609423
1.14184
-0.0139512
1.14058
-0.00915262
1.14012
-0.00973562
1.14107
-0.00471851
1.14608
0.00793817
1.15499
0.0123979
1.15966
0.0270116
1.1576
0.0208906
1.15491
0.0305526
1.14744
0.0180742
1.12628
-0.0085251
1.10115
-0.00527634
1.10699
0.0012548
1.15338
0.039254
1.20032
0.0511114
1.21997
0.0580471
1.21482
0.0588283
1.19897
-0.017221
1.17961
-0.133876
1.15818
-0.225334
1.13702
-0.255745
1.12015
-0.200335
1.10805
-0.119994
-0.00916592
1.25498
0.0060903
-1.25492
1.25493
0.00587305
1.25481
0.00648707
1.25456
0.00605952
1.25426
0.00628335
1.25387
0.00583957
1.25348
0.00508348
1.25305
0.00490894
1.25267
0.00231524
1.25221
0.00281183
1.2518
-0.0023799
1.25119
-0.000785902
1.25045
-0.00842914
1.24973
-0.00536646
1.24866
-0.0128876
1.24813
-0.008622
1.24815
-0.00975336
1.24926
-0.00582648
1.25205
0.0051485
1.25674
0.00771038
1.25931
0.0244401
1.25806
0.0221345
1.25574
0.0328767
1.24985
0.0239631
1.23695
0.00436962
1.2247
0.00698184
1.23224
-0.00628629
1.26294
0.00855124
1.29267
0.0213827
1.30586
0.0448602
1.30468
0.0600026
1.29634
-0.00887816
1.28281
-0.120347
1.26359
-0.206118
1.24184
-0.233987
1.22324
-0.181743
1.20915
-0.105898
-0.00377074
1.36767
0.00587827
-1.36745
1.36781
0.00573303
1.36789
0.00640008
1.36788
0.0060667
1.36784
0.00633068
1.3677
0.00597356
1.36755
0.00523265
1.36732
0.00514079
1.3671
0.00254102
1.36679
0.00312163
1.36646
-0.00205222
1.36607
-0.000393371
1.36553
-0.00789208
1.36511
-0.0049468
1.36448
-0.012262
1.36429
-0.0084304
1.36434
-0.00980534
1.36518
-0.0066585
1.36659
0.00373907
1.36896
0.00534107
1.37036
0.0230381
1.3697
0.0227928
1.36843
0.034144
1.36478
0.027611
1.35777
0.0113862
1.35285
0.0118979
1.36009
-0.0135214
1.37944
-0.0108051
1.39681
0.0040137
1.40561
0.0360661
1.40787
0.0577361
1.40521
-0.006219
1.39511
-0.110244
1.37577
-0.186774
1.35193
-0.210153
1.33137
-0.161178
1.31646
-0.0909886
0.000716588
1.49094
0.00554896
-1.49061
1.49122
0.00545068
1.49148
0.00614038
1.49167
0.0058779
1.49184
0.00616456
1.49192
0.00588989
1.49199
0.00516661
1.49197
0.00516367
1.49193
0.00257879
1.4918
0.0032453
1.49163
-0.00187585
1.49142
-0.000189514
1.49107
-0.00753708
1.49086
-0.0047336
1.49043
-0.011839
1.49034
-0.00834207
1.49024
-0.00970455
1.49069
-0.00710353
1.49124
0.00318774
1.49246
0.00411883
1.49335
0.0221512
1.49312
0.0230176
1.49304
0.0342237
1.49139
0.0292616
1.48829
0.0144929
1.48749
0.0126916
1.49357
-0.0195966
1.50515
-0.0223854
1.51398
-0.00481804
1.51949
0.0305609
1.52392
0.0532975
1.52445
-0.00674049
1.51582
-0.101613
1.49587
-0.166829
1.47078
-0.185064
1.44923
-0.139628
1.43375
-0.0755077
0.00539127
1.62583
0.00501578
-1.6253
1.62633
0.00494578
1.62686
0.00561589
1.62732
0.00541572
1.62778
0.00570293
1.62816
0.0055109
1.6285
0.00482478
1.62875
0.00491864
1.62889
0.00243878
1.62893
0.00320159
1.62877
-0.00171133
1.62859
-7.41295e-06
1.62803
-0.00698168
1.62767
-0.00437542
1.62681
-0.0109809
1.62641
-0.00793748
1.62575
-0.00904806
1.62565
-0.00699647
1.62579
0.00303934
1.62656
0.0033565
1.62776
0.0209453
1.62875
0.0220327
1.63077
0.0322021
1.6313
0.0287289
1.63116
0.0146338
1.63291
0.0109429
1.63635
-0.0230381
1.64047
-0.0265055
1.64291
-0.00726145
1.6482
0.0252734
1.65631
0.0451853
1.65802
-0.00844459
1.6461
-0.0896927
1.62082
-0.14155
1.59174
-0.155985
1.56912
-0.117007
1.55568
-0.0620687
0.00693504
1.77334
0.00425361
-1.77257
1.77408
0.00420524
1.77489
0.00480485
1.77564
0.00466584
1.77641
0.00492987
1.7771
0.0048177
1.77771
0.00421735
1.77825
0.00438337
1.77854
0.00214749
1.77877
0.00296439
1.77859
-0.00153131
1.7784
0.000185294
1.77762
-0.00620275
1.77701
-0.00376301
1.77567
-0.00964069
1.77481
-0.00707936
1.77353
-0.00776524
1.77279
-0.00626087
1.7726
0.00322819
1.77314
0.00282436
1.77478
0.0193068
1.77692
0.0198851
1.78108
0.0280484
1.78344
0.0263654
1.78567
0.0124028
1.78936
0.00725609
1.78929
-0.0229712
1.78641
-0.0236232
1.78451
-0.0053635
1.79122
0.0185633
1.80331
0.0330962
1.80517
-0.0103019
1.78866
-0.0731882
1.75772
-0.110605
1.7262
-0.124469
1.70427
-0.095072
1.69283
-0.050637
0.00689542
1.93473
0.00282641
-1.9333
1.93617
0.00276398
1.93781
0.003164
1.9394
0.00307159
1.94107
0.00326089
1.94267
0.00321684
1.94403
0.00286535
1.94536
0.00305207
1.94589
0.00161608
1.94646
0.00239551
1.94566
-0.000734592
1.9448
0.00104267
1.9423
-0.00370012
1.9397
-0.00115775
1.93561
-0.00555401
1.93203
-0.00349704
1.92815
-0.0038906
1.92508
-0.00319355
1.92515
0.00316363
1.9256
0.00237358
1.93053
0.0143725
1.93777
0.0126484
1.94841
0.0174124
1.95749
0.0172848
1.96388
0.00600899
1.96787
0.00326583
1.95665
-0.0117517
1.94052
-0.00749498
1.93536
-0.000196912
1.94743
0.00649032
1.96665
0.013877
1.96694
-0.0105938
1.93996
-0.0462032
1.89815
-0.0688019
1.86148
-0.0877927
1.83927
-0.0728654
1.83207
-0.0434358
0.00148391
2.11144
0.00155503
-2.11017
2.1127
0.00149689
2.11419
0.00167867
2.11564
0.00162042
2.11719
0.00171151
2.1187
0.00170534
2.11999
0.00157396
2.12132
0.00172864
2.12181
0.00112229
2.12252
0.00168815
2.12155
0.000235381
2.12102
0.00156644
2.11816
-0.000836973
2.11587
0.00113674
2.11158
-0.00126597
2.10786
0.000225055
2.10424
-0.000272514
2.10095
9.99873e-05
2.1017
0.00240791
2.10219
0.00188874
2.10917
0.00738682
2.11691
0.00490853
2.1274
0.0069278
2.13798
0.00669772
2.14238
0.00161231
2.14339
0.00226036
2.13207
-0.000440998
2.12
0.00458138
2.11651
0.00329395
2.12168
0.00131512
2.1334
0.00215985
2.13294
-0.0101325
2.11496
-0.0282248
2.08767
-0.0415136
2.05807
-0.0581903
2.03565
-0.0504454
2.02673
-0.0345139
-0.0025885
2.3044
0.00101184
-2.30385
2.30491
0.000980613
2.30552
0.00106918
2.30611
0.00103737
2.30674
0.00107304
2.30737
0.00108076
2.30796
0.000986346
2.30858
0.00110826
2.30893
0.000766224
2.3095
0.00111679
2.30934
0.00040129
2.30981
0.00109745
2.30899
-1.71693e-05
2.30912
0.00100938
2.30805
-0.000202681
2.30745
0.000827905
2.30688
0.00029493
2.30621
0.000770465
2.30694
0.00168333
2.30753
0.00129211
2.31148
0.00344395
2.31407
0.00231374
2.31751
0.00349233
2.32146
0.00274142
2.3216
0.00147193
2.32142
0.00244378
2.32064
0.000339307
2.32248
0.00273538
2.32279
0.00299134
2.32059
0.00350979
2.32093
0.00182566
2.31933
-0.00853917
2.31263
-0.0215236
2.30053
-0.029411
2.27963
-0.0372956
2.25968
-0.0304937
2.24721
-0.0220443
-0.00238011
2.51578
0.000452487
-2.51522
2.51632
0.000440014
2.51692
0.000471137
2.51749
0.000464081
2.51809
0.000475085
2.51868
0.000493623
2.5192
0.000458405
2.51978
0.000534783
2.52013
0.000412439
2.52065
0.000593557
2.52072
0.000337025
2.52115
0.000668571
2.52087
0.000263433
2.52115
0.000727409
2.52067
0.000277605
2.52078
0.000716952
2.52061
0.000468831
2.52072
0.000652644
2.52158
0.000825059
2.52228
0.000598733
2.52452
0.00119621
2.52624
0.000593282
2.52877
0.000970043
2.53075
0.000759655
2.53175
0.000470509
2.53305
0.00114658
2.53239
0.00099943
2.53264
0.00248495
2.53344
0.00218591
2.53538
0.00157388
2.53732
-0.00011821
2.53282
-0.00403735
2.52061
-0.00931038
2.50382
-0.0126201
2.48358
-0.0170586
2.46764
-0.0145582
2.45765
-0.0120544
-0.00238487
2.74735
-2.7469
2.74779
2.74826
2.74873
2.7492
2.7497
2.75015
2.75069
2.7511
2.7517
2.75203
2.7527
2.75296
2.75369
2.75397
2.75469
2.75515
2.75581
2.75663
2.75723
2.75843
2.75902
2.75999
2.76075
2.76122
2.76237
2.76337
2.76585
2.76804
2.76961
2.76949
2.76546
2.75615
2.74353
2.72647
2.71191
2.69985
0.438726
0.0408097
-0.431764
0.447776
0.0680577
0.454729
0.0992811
0.464731
0.12485
0.472637
0.155623
0.483696
0.178514
0.496048
0.206975
0.228912
0.469088
0.034942
-0.463221
0.476498
0.0606483
0.48323
0.0925492
0.490966
0.117114
0.499515
0.147074
0.506976
0.171052
0.516189
0.197762
0.220599
0.503436
0.0298818
-0.498376
0.508603
0.0554816
0.514641
0.0865103
0.519878
0.111878
0.526249
0.140703
0.531935
0.165366
0.539587
0.190109
0.210946
0.540598
0.0255312
-0.536247
0.544155
0.0519247
0.548999
0.0816657
0.553239
0.107638
0.559146
0.134795
0.565796
0.158717
0.573407
0.182499
0.20342
0.581632
0.0221601
-0.578261
0.584555
0.0490018
0.588954
0.0772668
0.593637
0.102956
0.599153
0.129279
0.604849
0.15302
0.610387
0.176961
0.197023
0.627396
0.0194545
-0.62469
0.63021
0.0461874
0.633998
0.0734785
0.637901
0.0990534
0.641969
0.125211
0.646598
0.148391
0.652256
0.171304
0.19076
0.677994
0.0174266
-0.675966
0.680335
0.0438467
0.68325
0.0705633
0.686617
0.0956858
0.69087
0.120958
0.69601
0.143252
0.70185
0.165463
0.185039
0.733871
0.0159287
-0.732373
0.735949
0.0417679
0.738855
0.0676575
0.742469
0.0920723
0.747076
0.11635
0.751965
0.138363
0.75745
0.159978
0.179213
0.795973
0.014669
-0.794713
0.798017
0.0397236
0.800971
0.0647038
0.804572
0.0884706
0.808932
0.111991
0.813721
0.133574
0.819519
0.154181
0.17292
0.864456
0.0136033
-0.863391
0.866396
0.037784
0.869259
0.0618414
0.872861
0.0848679
0.877422
0.10743
0.882815
0.128181
0.889014
0.147982
0.166222
0.939805
0.0126671
-0.938869
0.941746
0.0358428
0.944734
0.0588538
0.948662
0.08094
0.953634
0.102458
0.959396
0.122419
0.965934
0.141444
0.158984
1.02269
0.0117765
-1.0218
1.02472
0.0338203
1.02787
0.0556948
1.03207
0.0767408
1.03732
0.0972114
1.04346
0.116282
1.05053
0.134372
0.151077
1.11359
0.0109146
-1.11273
1.1157
0.0317156
1.11904
0.0523563
1.12354
0.072241
1.12919
0.0915575
1.13588
0.109593
1.14357
0.126688
0.142479
1.21319
0.010052
-1.21233
1.21542