/*--------------------------------*- C++ -*----------------------------------*\
| =========                 |                                                 |
| \\      /  F ield         | OpenFOAM: The Open Source CFD Toolbox           |
|  \\    /   O peration     | Version:  2312                                  |
|   \\  /    A nd           | Website:  www.openfoam.com                      |
|    \\/     M anipulation  |                                                 |
\*---------------------------------------------------------------------------*/
FoamFile
{
    version     2.0;
    format      ascii;
    arch        "LSB;label=32;scalar=64";
    class       volScalarField;
    location    "164.3";
    object      p;
}
// * * * * * * * * * * * * * * * * * * * * * * * * * * * * * * * * * * * * * //

dimensions      [0 2 -2 0 0 0 0];

internalField   nonuniform List<scalar> 
5478
(
-0.603724
-0.598734
-0.591547
-0.585057
-0.580929
-0.578007
-0.572757
-0.561435
-0.541436
-0.512433
-0.476253
-0.43503
-0.391668
-0.344425
-0.296426
-0.616839
-0.611395
-0.604186
-0.595836
-0.58599
-0.572947
-0.555346
-0.53235
-0.504057
-0.471468
-0.435729
-0.398199
-0.359431
-0.320123
-0.282948
-0.635814
-0.629016
-0.619809
-0.607335
-0.589084
-0.56516
-0.537103
-0.50628
-0.473617
-0.439679
-0.405035
-0.370006
-0.335167
-0.300765
-0.266923
-0.660298
-0.650176
-0.637653
-0.617903
-0.589271
-0.555314
-0.519548
-0.483713
-0.448396
-0.413802
-0.379921
-0.346959
-0.314959
-0.284137
-0.255163
-0.690711
-0.674656
-0.656712
-0.626392
-0.586547
-0.544064
-0.502641
-0.463407
-0.426456
-0.391515
-0.3584
-0.326886
-0.296876
-0.268543
-0.24119
-0.725058
-0.702126
-0.673845
-0.63046
-0.580087
-0.530718
-0.485072
-0.443432
-0.405324
-0.370256
-0.337747
-0.307478
-0.279238
-0.252783
-0.227586
-0.756633
-0.728483
-0.685159
-0.627618
-0.568151
-0.513345
-0.464518
-0.421158
-0.382409
-0.347483
-0.315763
-0.286781
-0.260198
-0.235728
-0.212421
-0.779409
-0.746462
-0.686006
-0.615436
-0.548556
-0.48962
-0.438656
-0.394365
-0.355544
-0.321236
-0.290645
-0.2632
-0.23851
-0.216069
-0.195384
-0.520633
-0.52218
-0.527818
-0.540541
-0.55958
-0.583904
-0.611764
-0.640592
-0.667705
-0.682412
-0.684654
-0.670492
-0.637369
-0.588812
-0.526631
-0.554485
-0.554475
-0.561101
-0.577064
-0.599751
-0.62891
-0.662443
-0.696712
-0.733389
-0.753999
-0.760455
-0.746527
-0.706915
-0.646429
-0.565091
-0.578967
-0.576707
-0.582733
-0.597645
-0.620431
-0.64989
-0.683974
-0.719482
-0.751988
-0.776212
-0.783373
-0.766791
-0.720358
-0.649542
-0.555844
-0.592831
-0.588039
-0.591273
-0.602662
-0.62184
-0.647688
-0.678284
-0.710719
-0.740561
-0.761937
-0.766217
-0.745302
-0.693577
-0.617327
-0.520646
-0.597806
-0.591084
-0.590474
-0.596435
-0.609677
-0.629756
-0.655022
-0.682531
-0.708161
-0.72411
-0.721505
-0.694214
-0.6379
-0.563587
-0.47396
-0.597562
-0.590209
-0.586036
-0.586353
-0.593293
-0.607448
-0.627535
-0.650028
-0.668282
-0.674428
-0.661056
-0.625116
-0.566707
-0.497825
-0.421795
-0.596144
-0.589324
-0.582781
-0.578907
-0.581112
-0.590658
-0.605298
-0.619523
-0.626455
-0.619248
-0.594432
-0.552189
-0.496639
-0.437345
-0.374114
-0.597349
-0.591331
-0.583982
-0.578161
-0.57733
-0.581884
-0.588239
-0.590625
-0.583463
-0.563211
-0.52999
-0.485863
-0.436241
-0.384741
-0.332388
-0.43543
-0.361539
-0.361598
-0.359306
-0.274033
-0.203619
-0.166073
-0.161486
-0.180904
-0.201478
-0.181675
-0.166421
-0.155352
-0.139453
-0.110009
-0.111692
-0.131974
-0.15104
-0.126761
-0.109057
-0.121205
-0.152047
-0.124201
-0.117133
-0.141922
-0.18148
-0.18353
-0.178969
-0.0980926
-0.0527354
-0.0395412
-0.0263507
-0.0151562
-0.00773981
-0.00599859
-0.0042381
-0.00225001
-0.000735658
-0.441182
-0.314651
-0.265311
-0.236526
-0.185098
-0.162317
-0.157358
-0.169777
-0.208851
-0.245788
-0.213811
-0.177284
-0.156813
-0.14131
-0.117265
-0.118444
-0.137436
-0.155103
-0.123677
-0.101102
-0.106691
-0.133733
-0.122943
-0.122948
-0.159377
-0.198918
-0.168589
-0.15185
-0.099031
-0.0591636
-0.0398649
-0.0243021
-0.014947
-0.00814972
-0.0060591
-0.00415384
-0.00224624
-0.000742852
-0.411258
-0.263408
-0.176524
-0.117618
-0.0879462
-0.112323
-0.143158
-0.171251
-0.22526
-0.274872
-0.241716
-0.185718
-0.155945
-0.140255
-0.124793
-0.124639
-0.142222
-0.157524
-0.119992
-0.0922759
-0.0931627
-0.11498
-0.119113
-0.125748
-0.174721
-0.210543
-0.151107
-0.121889
-0.0969219
-0.0642467
-0.039601
-0.0220542
-0.0146259
-0.00854451
-0.00610847
-0.00406164
-0.00224015
-0.000750091
-0.378048
-0.232671
-0.130046
-0.0613377
-0.0339809
-0.0734584
-0.128198
-0.158786
-0.217508
-0.278744
-0.255284
-0.1911
-0.153709
-0.135372
-0.129928
-0.128237
-0.146198
-0.159557
-0.117279
-0.0832314
-0.0815038
-0.0972616
-0.112769
-0.124996
-0.186561
-0.215781
-0.133796
-0.0918298
-0.0917234
-0.0678144
-0.0389306
-0.0197559
-0.0142089
-0.00910587
-0.00615084
-0.0039679
-0.00223131
-0.000756886
-0.346878
-0.225591
-0.125206
-0.0543158
-0.0182727
-0.0437569
-0.117396
-0.138445
-0.188937
-0.262694
-0.256047
-0.191752
-0.150038
-0.128284
-0.131665
-0.128538
-0.149804
-0.161061
-0.114377
-0.0743353
-0.0720475
-0.0814215
-0.104702
-0.120446
-0.19433
-0.216375
-0.119234
-0.0631364
-0.0842221
-0.0687171
-0.0378792
-0.0175351
-0.0137123
-0.00944307
-0.00618162
-0.0038768
-0.00221917
-0.000762599
-0.316494
-0.22471
-0.136119
-0.0678689
-0.0166046
-0.00868597
-0.0917154
-0.108123
-0.151078
-0.23142
-0.234521
-0.183099
-0.143481
-0.119658
-0.128594
-0.125558
-0.152263
-0.163507
-0.11383
-0.0664401
-0.0645111
-0.0677527
-0.0948212
-0.112591
-0.197324
-0.213476
-0.109102
-0.0387916
-0.0754263
-0.0674675
-0.0366133
-0.015529
-0.0131602
-0.0106255
-0.00620516
-0.00379405
-0.00220491
-0.000766732
-0.293881
-0.219709
-0.14014
-0.0740158
-0.0188728
0.010267
-0.0372115
-0.0693836
-0.119848
-0.201834
-0.219149
-0.17669
-0.13942
-0.111636
-0.11985
-0.120257
-0.153896
-0.163347
-0.110935
-0.0602367
-0.0591364
-0.0569943
-0.0828588
-0.101051
-0.195898
-0.206939
-0.100785
-0.0265816
-0.0655223
-0.063624
-0.0349877
-0.013845
-0.0125828
-0.0105539
-0.00619607
-0.00371786
-0.00218559
-0.000768097
-0.28304
-0.226577
-0.158896
-0.0947982
-0.0413105
0.00464358
0.0112594
-0.0280327
-0.0818425
-0.160415
-0.180155
-0.154371
-0.131382
-0.10321
-0.105706
-0.111921
-0.151942
-0.166312
-0.11169
-0.0552756
-0.0549934
-0.0464744
-0.0701993
-0.0859598
-0.190374
-0.199606
-0.0975293
-0.00984535
-0.0546556
-0.0587518
-0.0335642
-0.0124118
-0.0119242
-0.0103894
-0.00618929
-0.00366225
-0.00216962
-0.000767314
-0.248613
-0.210205
-0.141971
-0.0771438
-0.0202772
0.0437972
0.0917273
0.0396903
-0.047317
-0.129668
-0.14812
-0.12432
-0.108494
-0.088066
-0.0874523
-0.104849
-0.137916
-0.15437
-0.106829
-0.0504238
-0.0500728
-0.0442271
-0.0593665
-0.0773144
-0.174964
-0.182653
-0.0946472
-0.00554317
-0.0446883
-0.0512839
-0.0308861
-0.0114177
-0.0111737
-0.0100111
-0.00607731
-0.00358007
-0.00213171
-0.000756729
-0.188805
-0.160903
-0.106216
-0.052534
-0.00352152
0.0553412
0.0858824
0.0529448
-0.016198
-0.0766175
-0.0893338
-0.082178
-0.079181
-0.0630804
-0.0616633
-0.0906344
-0.127299
-0.14376
-0.0964508
-0.0406906
-0.0362886
-0.0315209
-0.0416659
-0.0603366
-0.150887
-0.16519
-0.0759359
0.00730122
-0.0328215
-0.0447866
-0.0271448
-0.00975816
-0.0101909
-0.0094431
-0.0058611
-0.003454
-0.00206436
-0.000736512
-0.148214
-0.132385
-0.0930632
-0.0488178
-0.00699224
0.0413383
0.0685651
0.0523379
0.00654332
-0.0353871
-0.0520723
-0.0534112
-0.0557421
-0.0437289
-0.0349691
-0.0547
-0.0901646
-0.101684
-0.0723058
-0.0328858
-0.0263557
-0.0234062
-0.0245272
-0.0378266
-0.115659
-0.12504
-0.044688
0.0122666
-0.0206268
-0.031621
-0.0223826
-0.00854032
-0.00931656
-0.00867056
-0.0055707
-0.00334988
-0.00200575
-0.000708834
-0.115391
-0.105515
-0.0765169
-0.0414881
-0.00887071
0.0226232
0.0445543
0.0399523
0.0125644
-0.0146185
-0.0258884
-0.0285758
-0.0298471
-0.0198538
-0.00807579
-0.0193371
-0.0471072
-0.0500378
-0.0438
-0.0323917
-0.0217243
-0.0130983
-0.00544235
-0.0167913
-0.0746887
-0.0738451
-0.0107025
0.0229487
-0.00686985
-0.0415697
-0.0182964
-0.0080592
-0.00846696
-0.00774565
-0.00521862
-0.00326948
-0.00194008
-0.000671298
-0.0896262
-0.0838542
-0.0644999
-0.0394403
-0.016048
0.00645177
0.0231737
0.0245081
0.0116729
-0.0032468
-0.0115868
-0.0144193
-0.0156153
-0.00881315
0.00807845
0.014641
0.00479309
-0.00596121
-0.0176793
-0.0274796
-0.0168206
-0.00836366
0.00636982
0.000496944
-0.0342193
-0.0244449
0.0191622
0.0250665
0.00795162
-0.0194354
-0.0126477
-0.00784072
-0.00754466
-0.00656402
-0.00478848
-0.00320011
-0.00187338
-0.000624991
-0.0699917
-0.066852
-0.0541096
-0.0362977
-0.0187469
-0.00332637
0.00841882
0.0123615
0.00785808
9.178e-05
-0.00336527
-0.00397898
-0.00184794
0.00401914
0.017621
0.0250792
0.0158799
0.00984094
-0.00111198
-0.0148169
-0.00652737
-0.000952717
0.0129602
0.00543137
-0.00940766
0.00358216
0.0348677
0.0282067
0.0198458
-0.0046317
-0.00722352
-0.0073096
-0.0063776
-0.00538143
-0.00432047
-0.00310832
-0.00179074
-0.000575065
-0.0540384
-0.0526751
-0.0448649
-0.0329903
-0.0208426
-0.0097665
-0.000922978
0.00377135
0.004042
0.00163642
0.000517709
0.000988142
0.00274721
0.00741806
0.0192019
0.0266067
0.0206
0.0149436
0.00805744
-0.00194078
-0.000358418
0.00236734
0.0155692
0.013631
0.00300141
0.0126465
0.0342639
0.0258509
0.0250878
0.00429725
-0.00353967
-0.0061959
-0.00515362
-0.00439637
-0.00384384
-0.0029212
-0.00166578
-0.000522177
-0.0413019
-0.0412672
-0.036649
-0.0288603
-0.0203149
-0.0123811
-0.00585263
-0.00133387
0.000893282
0.00111921
0.00170277
0.00339535
0.00666749
0.0109407
0.0184551
0.0236213
0.0200528
0.0154961
0.0112542
0.00538086
0.00675035
0.00697033
0.015703
0.0141191
0.00661128
0.014158
0.0276399
0.0242134
0.023494
0.00689298
-0.00144051
-0.00449299
-0.00399914
-0.00365301
-0.00334069
-0.00260612
-0.00149421
-0.000470329
-0.0316471
-0.0321177
-0.0292944
-0.0242092
-0.0184303
-0.0127754
-0.0078571
-0.00381853
-0.00106206
0.000647847
0.00232404
0.00435051
0.00700227
0.0100932
0.0149435
0.0190112
0.0175235
0.0145945
0.0119982
0.00872634
0.00831443
0.00840682
0.0140708
0.0149059
0.0101762
0.0142128
0.0218476
0.0215563
0.0202312
0.0085154
0.000524661
-0.00263198
-0.00293757
-0.002932
-0.00276016
-0.00219069
-0.00127928
-0.000406571
-0.0236634
-0.024444
-0.0229451
-0.0196715
-0.0156701
-0.0116248
-0.00791483
-0.00465298
-0.00196701
0.000149949
0.00205886
0.00407595
0.00658769
0.00945266
0.0125469
0.015355
0.0150608
0.0133153
0.0118717
0.0102382
0.0110015
0.0105468
0.013058
0.0141838
0.0116317
0.0136428
0.0177406
0.0188536
0.0172415
0.00904153
0.00226742
-0.00103472
-0.00199053
-0.002225
-0.0021633
-0.00176178
-0.00106298
-0.000345044
-0.0172405
-0.0181408
-0.017369
-0.0152811
-0.0125556
-0.00973042
-0.00699631
-0.00443157
-0.00208792
-6.18561e-05
0.00183846
0.00380666
0.00592275
0.00818584
0.0102166
0.0121866
0.0126566
0.0118979
0.0111827
0.0102647
0.00993822
0.0103207
0.0118832
0.0131392
0.0120743
0.0129974
0.0148597
0.0157278
0.0147131
0.009179
0.00367747
0.000397853
-0.0010141
-0.00149607
-0.00156223
-0.00131595
-0.000818557
-0.000267576
-0.012087
-0.0129277
-0.0125765
-0.0112755
-0.00944856
-0.00747795
-0.00547337
-0.00352563
-0.00164618
0.000103372
0.00175618
0.00344092
0.00514044
0.00696703
0.00854499
0.00996423
0.0107269
0.0106185
0.0103878
0.0100873
0.0102235
0.0105379
0.0113288
0.0121519
0.01173
0.0121681
0.0130311
0.0134206
0.0125649
0.00888245
0.00463544
0.00162143
-8.02376e-05
-0.000807214
-0.00100795
-0.000900954
-0.000583703
-0.00019498
-0.00787033
-0.00863307
-0.00854116
-0.00773432
-0.00650714
-0.00514882
-0.00373117
-0.00230582
-0.000874254
0.000519638
0.00185163
0.00322711
0.00460272
0.00604164
0.00729497
0.00836683
0.00916904
0.00947587
0.00958465
0.00960485
0.00981609
0.0100051
0.0104972
0.0111286
0.0110379
0.0112132
0.0114512
0.011413
0.0106968
0.00831009
0.00517738
0.0025678
0.000786403
-0.000156831
-0.000506249
-0.000521104
-0.000355562
-0.000120537
-0.00447627
-0.0051173
-0.00514375
-0.00465142
-0.00385025
-0.00294338
-0.00197425
-0.000953529
0.000108092
0.00116327
0.00218206
0.00323949
0.00432126
0.00542828
0.00643332
0.00730324
0.008052
0.00852847
0.0088173
0.00903017
0.00934436
0.0095945
0.00989782
0.0102473
0.0102288
0.0102606
0.0102731
0.0100338
0.00932361
0.00767528
0.00542934
0.00328036
0.00158058
0.000484641
-2.79611e-05
-0.000171589
-0.000137327
-4.15719e-05
-0.00170272
-0.00222118
-0.00231654
-0.00204047
-0.00153578
-0.000940918
-0.00029309
0.000408022
0.00115613
0.0019192
0.00266907
0.00344903
0.00426837
0.00510759
0.00589841
0.00659885
0.00723533
0.00774791
0.00812483
0.00841249
0.00871963
0.0089483
0.0091477
0.00938277
0.00938465
0.00933329
0.00918359
0.00883161
0.0082054
0.00700955
0.00538342
0.00369623
0.00219898
0.00107176
0.000405052
0.000120251
3.62627e-05
1.93832e-05
0.000547738
0.000131607
7.34755e-06
0.000147532
0.000450253
0.000820844
0.00123209
0.0016916
0.00219943
0.00272979
0.00325748
0.00380556
0.00439939
0.00502115
0.00561765
0.0061711
0.00669586
0.00715668
0.00752714
0.00781977
0.00810663
0.00832508
0.00847388
0.00860942
0.00858948
0.00849326
0.00830897
0.00794213
0.00737182
0.00645257
0.00525237
0.00394045
0.00266612
0.00159491
0.00082973
0.000402482
0.000197798
7.95358e-05
0.00235421
0.00203181
0.00190325
0.00195377
0.00211458
0.00232512
0.00256758
0.00285156
0.00317627
0.00352203
0.00387274
0.00424404
0.00465796
0.0050985
0.00553243
0.0059401
0.00634238
0.00671998
0.00703896
0.00730107
0.00754362
0.00772836
0.00783476
0.00790733
0.00787708
0.00775352
0.00753801
0.00718029
0.00668049
0.00595955
0.00503309
0.00399859
0.00294657
0.00198838
0.00120563
0.000662202
0.000333085
0.0001196
0.00379772
0.00354971
0.00342478
0.00341682
0.00348154
0.0035814
0.00370487
0.00386163
0.00404993
0.00425781
0.00447257
0.00470703
0.00497558
0.00526944
0.00556513
0.00585158
0.00614125
0.00642142
0.00666758
0.00687278
0.00705743
0.00719617
0.00727004
0.00730053
0.00725015
0.00711633
0.00690432
0.00658008
0.00613683
0.00554696
0.00481308
0.00398703
0.00311649
0.00227187
0.00151865
0.000908879
0.00047026
0.000159664
0.00493264
0.00474162
0.00462475
0.00458013
0.00458049
0.00460468
0.00464542
0.00471247
0.00480216
0.00490947
0.00502231
0.00515346
0.00530988
0.0054887
0.0056726
0.00585539
0.00604589
0.00623319
0.0064022
0.00654249
0.00666794
0.00675615
0.0067948
0.00679068
0.00672454
0.00658978
0.00638018
0.00608501
0.00569383
0.00519935
0.00459907
0.00391625
0.00318379
0.00244374
0.00174271
0.00111658
0.000599665
0.000195212
0.00580211
0.00565272
0.00554418
0.00547678
0.00543528
0.00540933
0.00539482
0.00539981
0.00542043
0.00545548
0.00549547
0.00555074
0.00562387
0.00571489
0.00581187
0.00591148
0.00601995
0.00612744
0.00622614
0.00630532
0.00637391
0.00641388
0.00641709
0.00638463
0.00630103
0.00616304
0.00596066
0.0056915
0.0053436
0.0049155
0.00440753
0.00382851
0.00320007
0.00254543
0.00189555
0.00127646
0.000714582
0.000230598
0.0064401
0.00631939
0.00621791
0.00613686
0.00606935
0.00601123
0.00596153
0.00592481
0.00589946
0.00588432
0.00587492
0.00587649
0.00589087
0.00591781
0.00595082
0.00598815
0.00603212
0.00607758
0.00611772
0.00614658
0.0061659
0.00616516
0.00613654
0.00607839
0.00598025
0.00583753
0.00564198
0.00539023
0.00507506
0.00469446
0.00424838
0.00374085
0.00318455
0.00259315
0.00198612
0.00138348
0.00080205
0.000260239
0.00686484
0.00676217
0.00666598
0.0065777
0.00649555
0.00641908
0.00634865
0.00628669
0.00623252
0.00618602
0.00614522
0.00611267
0.00608873
0.0060736
0.00606404
0.00605922
0.0060589
0.00606047
0.00605928
0.00605102
0.00603436
0.00600286
0.00594966
0.00587198
0.00576164
0.00561393
0.00542197
0.00518162
0.0048881
0.00453754
0.00413113
0.00366932
0.00315901
0.00261124
0.00203497
0.00144673
0.00085873
0.000281723
0.00708061
0.00698699
0.00689401
0.00680309
0.00671478
0.00663034
0.00655057
0.00647668
0.00640858
0.0063467
0.00629051
0.00624097
0.00619771
0.00616114
0.0061296
0.00610287
0.0060791
0.00605723
0.00603368
0.00600527
0.00596872
0.00592008
0.00585322
0.00576403
0.00564675
0.0054954
0.00530519
0.00507032
0.00478756
0.00445296
0.00406583
0.00362733
0.00314029
0.00261468
0.00205538
0.00147537
0.000885735
0.000292732
-0.169355
-0.180871
-0.192714
-0.202342
-0.213547
-0.218415
-0.227363
-0.231953
-0.140246
-0.146679
-0.153243
-0.158507
-0.163048
-0.1661
-0.169482
-0.17779
-0.113608
-0.117088
-0.119841
-0.123297
-0.126613
-0.131243
-0.134144
-0.140611
-0.0925435
-0.0941361
-0.0954476
-0.0984741
-0.100732
-0.103752
-0.104956
-0.109219
-0.0741709
-0.0749706
-0.0755
-0.0772593
-0.0781115
-0.0796517
-0.0806522
-0.0844371
-0.0592425
-0.0592982
-0.0591814
-0.0599627
-0.0603911
-0.0615928
-0.0626997
-0.0658782
-0.0466934
-0.0463634
-0.0460141
-0.0463935
-0.0467472
-0.0476473
-0.0485169
-0.0508744
-0.0364619
-0.0359801
-0.035541
-0.0356509
-0.0358307
-0.0363457
-0.0368898
-0.0386138
-0.0280195
-0.0274854
-0.0269851
-0.0268507
-0.0268377
-0.027117
-0.0276644
-0.029256
-0.0210105
-0.020497
-0.0200105
-0.0197966
-0.0197793
-0.0200434
-0.0205767
-0.0218019
-0.0152562
-0.0148359
-0.0144365
-0.014226
-0.0141887
-0.0143462
-0.0147317
-0.0156865
-0.0105159
-0.0101938
-0.00987029
-0.00966312
-0.00960099
-0.00970763
-0.0100384
-0.010824
-0.00660655
-0.00638094
-0.0061439
-0.00598229
-0.00593366
-0.00601117
-0.00626383
-0.00687077
-0.00338424
-0.00324724
-0.0030914
-0.00297607
-0.00293683
-0.00299484
-0.00320144
-0.00368582
-0.000736688
-0.000676855
-0.000594319
-0.000530706
-0.000518095
-0.000576415
-0.000742074
-0.0011064
0.00140735
0.00140819
0.00143277
0.00145396
0.00144751
0.00139662
0.00126999
0.000998347
0.00313896
0.00310102
0.00308526
0.00307431
0.00304963
0.00299649
0.00289132
0.00268766
0.00452081
0.0044574
0.0044129
0.00437666
0.0043357
0.00427901
0.00419077
0.0040403
0.00560803
0.00552952
0.00546692
0.00541344
0.00536074
0.00530062
0.00522344
0.00510961
0.00644248
0.00635626
0.00628279
0.00621805
0.00615696
0.00609392
0.00602343
0.00593403
0.00705199
0.00696392
0.00688535
0.00681456
0.00674843
0.00668373
0.00661722
0.00654319
0.00745072
0.00736576
0.00728709
0.00721434
0.00714598
0.00708046
0.00701611
0.00695066
0.00764578
0.00756771
0.00749228
0.00742001
0.00735083
0.00728462
0.00722074
0.00715858
0.00552141
0.00750232
0.00839431
0.00754987
0.00447741
-0.000835368
-0.00851442
-0.0191855
-0.033982
-0.0545193
-0.0830309
-0.122658
-0.178448
-0.25391
-0.32489
-0.0218281
-0.0227284
-0.0265171
-0.0323823
-0.0401269
-0.0500893
-0.0629066
-0.0795174
-0.101203
-0.129682
-0.167313
-0.217255
-0.284742
-0.373798
-0.451268
-0.0477365
-0.0522076
-0.0607095
-0.0712307
-0.0833466
-0.0977529
-0.115456
-0.137568
-0.165462
-0.200969
-0.24664
-0.305688
-0.382446
-0.483791
-0.559653
-0.0744923
-0.0825387
-0.0947104
-0.10874
-0.124481
-0.142893
-0.165055
-0.192078
-0.225375
-0.266855
-0.319174
-0.385921
-0.470036
-0.57599
-0.64816
-0.102007
-0.113341
-0.128142
-0.144656
-0.163262
-0.185068
-0.211059
-0.242217
-0.279882
-0.326123
-0.383425
-0.455607
-0.544421
-0.648703
-0.715163
-0.128301
-0.142757
-0.159698
-0.17829
-0.199399
-0.224073
-0.253128
-0.287496
-0.328358
-0.377963
-0.438735
-0.513687
-0.603219
-0.702
-0.760091
-0.152811
-0.169899
-0.18858
-0.20908
-0.2325
-0.259553
-0.290945
-0.327616
-0.370808
-0.422303
-0.484391
-0.559164
-0.64599
-0.73556
-0.784047
-0.17527
-0.194027
-0.214469
-0.23715
-0.262711
-0.291724
-0.324848
-0.362979
-0.407276
-0.459194
-0.520605
-0.592706
-0.673358
-0.749988
-0.789645
0.183425
0.197904
0.214219
0.232752
0.253504
0.27634
0.301164
0.327934
0.356568
0.386799
0.418023
0.449035
0.477803
0.500255
0.518569
0.175403
0.188499
0.20365
0.221233
0.241025
0.262711
0.286148
0.311296
0.338066
0.366135
0.394809
0.42277
0.447816
0.465906
0.479922
0.163174
0.174154
0.187561
0.203644
0.221842
0.241604
0.262693
0.28504
0.308507
0.332685
0.356745
0.379201
0.397576
0.407939
0.414696
0.146739
0.155069
0.166275
0.180288
0.196174
0.213188
0.231023
0.249559
0.268554
0.287434
0.305156
0.319989
0.329079
0.328417
0.325496
0.126252
0.131707
0.140628
0.152345
0.165378
0.17882
0.192393
0.205998
0.219316
0.231593
0.241519
0.247059
0.244944
0.230898
0.21544
0.101959
0.103954
0.110405
0.119716
0.129683
0.139225
0.148068
0.156093
0.162878
0.167489
0.16838
0.163222
0.148308
0.119099
0.0889477
0.0746476
0.0737731
0.0778554
0.0840108
0.0899479
0.0948243
0.0984579
0.10057
0.100453
0.0969111
0.0881405
0.0715136
0.0429347
-0.00217425
-0.047589
0.0425583
0.0407441
0.0440068
0.0470865
0.0484698
0.0480421
0.0458848
0.0415812
0.0341457
0.0221073
0.00340131
-0.0249207
-0.0674154
-0.128343
-0.188065
0.0254352
0.0298535
0.0261779
0.0301037
0.0276806
0.0319574
0.0302073
0.0345877
0.0339372
0.0384395
0.0391575
0.0439597
0.0464752
0.0520396
0.0567495
0.0639999
0.0713024
0.0811903
0.0920646
0.105915
0.121667
0.141071
0.163288
0.0253759
0.029755
0.0261171
0.0299833
0.0276019
0.0318073
0.030102
0.0343744
0.0337708
0.0381919
0.0388669
0.0436119
0.0460602
0.0515562
0.056083
0.0631906
0.0701147
0.0797889
0.0900342
0.103425
0.118095
0.136585
0.157138
0.0253266
0.029631
0.0260743
0.0298339
0.0275491
0.0316254
0.0300226
0.0341252
0.0336387
0.0378981
0.0386082
0.0431963
0.0456289
0.0508258
0.0553371
0.0622437
0.0687429
0.0781538
0.0875226
0.100254
0.113397
0.130396
0.148089
0.0252864
0.0294837
0.0260465
0.0296594
0.0275179
0.031417
0.0299796
0.0338507
0.0335307
0.0375833
0.0383731
0.0428151
0.045264
0.0503763
0.0546831
0.0614017
0.0673289
0.0764232
0.0846155
0.0964414
0.10742
0.122278
0.135959
0.0252556
0.0293168
0.0260354
0.0294644
0.0275054
0.0311847
0.0299464
0.0335563
0.0334425
0.0372351
0.0381503
0.04234
0.0447771
0.0494731
0.053856
0.060157
0.0655483
0.0740127
0.0810383
0.0916201
0.100174
0.112155
0.120563
0.0252264
0.0291328
0.0260295
0.0292546
0.0275045
0.0309378
0.0299454
0.0332763
0.03337
0.0369117
0.0379848
0.0420332
0.04455
0.0491976
0.0532206
0.0592538
0.0639845
0.0718878
0.0772892
0.0863765
0.0915332
0.10026
0.102439
0.0252078
0.0289344
0.0260313
0.0290373
0.0275127
0.0306816
0.0299261
0.032968
0.0332966
0.0365311
0.037759
0.0414935
0.0440097
0.0481515
0.0521836
0.0574704
0.0618029
0.0685146
0.0727774
0.0797717
0.0821106
0.0858672
0.0814714
0.0251851
0.0287294
0.0260343
0.028822
0.0275236
0.030446
0.0299665
0.0327505
0.0332519
0.0363064
0.0377107
0.0414024
0.0438804
0.0480916
0.0517228
0.0567266
0.0602573
0.0661927
0.0681918
0.0730066
0.0703648
0.070506
0.0568402
0.0251594
0.0284579
0.0260461
0.028515
0.0275282
0.0300551
0.0298997
0.0322709
0.033082
0.0356776
0.0372758
0.040472
0.042824
0.0462252
0.0496506
0.053124
0.0562442
0.0594166
0.0602779
0.0607091
0.0552399
0.0461133
0.0252091
0.0251349
0.028088
0.026065
0.0280995
0.027503
0.0294934
0.0297611
0.0315452
0.0326914
0.0346223
0.0363478
0.0388071
0.0410493
0.0435436
0.0463651
0.0482682
0.0502641
0.0508357
0.0500556
0.0461674
0.0392858
0.027116
0.0107411
0.025128
0.027639
0.0260993
0.0276024
0.0274942
0.0288448
0.0295889
0.0307784
0.0321904
0.0335707
0.0353175
0.0371334
0.0390679
0.0406834
0.0426644
0.0433013
0.0439237
0.042606
0.0400298
0.0342162
0.0262604
0.0142138
-0.00113022
0.0251391
0.0271008
0.0261517
0.0270395
0.0274462
0.0282226
0.029295
0.0300298
0.0315312
0.0324642
0.0340962
0.0352904
0.0368028
0.0376666
0.0386098
0.0382742
0.0374887
0.0348046
0.0308493
0.0241809
0.0157309
0.00436048
-0.00959047
0.0251716
0.0264655
0.0261759
0.0265186
0.0272813
0.0276443
0.0288735
0.0292601
0.0306899
0.0313139
0.0326376
0.0333313
0.0342592
0.0345113
0.0343929
0.0332339
0.0313188
0.0276701
0.0229085
0.0160648
0.0078244
-0.00253912
-0.0149775
0.0252195
0.0258071
0.0260886
0.0260413
0.0270213
0.0270736
0.0283128
0.0284723
0.0296738
0.0300789
0.0309803
0.0312291
0.0315572
0.031237
0.0302116
0.0283376
0.0256632
0.0215101
0.0164425
0.00986243
0.00222121
-0.00699489
-0.0178142
0.0252342
0.0251701
0.0258887
0.0255971
0.0266459
0.0265059
0.0276097
0.027648
0.028503
0.0287358
0.0291752
0.028998
0.028788
0.0279237
0.0262187
0.0238365
0.0207438
0.0164646
0.0114284
0.00536789
-0.00143435
-0.00936621
-0.0184856
0.0251933
0.0245712
0.0255796
0.0251715
0.0261473
0.0259267
0.0267787
0.0267597
0.0272245
0.0272762
0.0272763
0.0266913
0.0260331
0.0247155
0.0225602
0.0198974
0.0166512
0.0125176
0.00777768
0.00239056
-0.00343747
-0.0100404
-0.0175354
0.0250707
0.0240313
0.0251503
0.0247507
0.0255336
0.0253199
0.025853
0.025782
0.0258792
0.0257181
0.025335
0.0243899
0.0233795
0.021741
0.0193545
0.0166041
0.0134117
0.00960749
0.00535262
0.000717023
-0.00413669
-0.00949571
-0.0155375
0.0248487
0.0235607
0.0246032
0.0243156
0.024828
0.0246485
0.0248698
0.0247073
0.024494
0.0241011
0.0234068
0.0221852
0.0209188
0.019104
0.0166641
0.0139829
0.0110001
0.00762822
0.0039499
7.02587e-05
-0.00388797
-0.00815668
-0.0129517
0.0245159
0.0231578
0.0239597
0.0238399
0.0240735
0.0238926
0.0238529
0.0235542
0.0230912
0.0224737
0.0215491
0.0201533
0.0187299
0.0168636
0.0145059
0.0120101
0.00933358
0.00643342
0.00334527
0.000171336
-0.00300169
-0.00635898
-0.0101255
0.0240699
0.0228068
0.0232564
0.0232569
0.0232966
0.023064
0.0228166
0.0223611
0.0217021
0.0208995
0.0198209
0.0183502
0.0168629
0.0150468
0.0128619
0.0106202
0.00829544
0.00586134
0.00332649
0.00077465
-0.00173603
-0.00435413
-0.00729226
0.0235199
0.022477
0.0225568
0.0225505
0.0224907
0.0221856
0.021773
0.0211693
0.0203674
0.0194355
0.0182731
0.0168055
0.0153344
0.0136384
0.0116814
0.00972564
0.00775724
0.00575264
0.00370509
0.00167724
-0.000292503
-0.00232339
-0.00460365
0.0228892
0.0221153
0.0219066
0.0217729
0.021641
0.0212632
0.0207325
0.0200193
0.0191263
0.0181222
0.0169366
0.01553
0.0141332
0.0125995
0.0108976
0.00923097
0.00759406
0.00596507
0.00432918
0.00273027
0.0011916
-0.000381472
-0.00214656
0.0222059
0.0216453
0.0212956
0.0210228
0.0207702
0.0203178
0.0197113
0.0189344
0.0180042
0.0169807
0.0158207
0.0145139
0.0132311
0.0118795
0.0104331
0.00903793
0.00769345
0.00638108
0.0050837
0.00382953
0.00263049
0.0014137
5.227e-05
0.0215032
0.0210905
0.0206967
0.0203043
0.0199145
0.0193904
0.0187352
0.0179328
0.0170087
0.0160122
0.0149194
0.0137384
0.0125921
0.011423
0.0102117
0.00905802
0.00796137
0.00690647
0.00587805
0.00489367
0.00395815
0.003016
0.00196888
0.0208052
0.0204798
0.0200767
0.0196092
0.019108
0.0185205
0.0178339
0.0170347
0.0161476
0.015212
0.0142162
0.0131753
0.0121744
0.0111779
0.010172
0.00922265
0.00832704
0.00747308
0.0066503
0.00587118
0.00513687
0.00440511
0.00360399
0.0201283
0.0198491
0.019444
0.0189388
0.0183707
0.0177377
0.0170357
0.0162566
0.0154222
0.0145634
0.0136774
0.0127789
0.0119229
0.011086
0.010256
0.00947414
0.00873634
0.0080346
0.00736444
0.00673668
0.00615155
0.00557954
0.00496856
0.0194874
0.0192317
0.0188272
0.0183084
0.0177117
0.0170587
0.0163576
0.0156104
0.0148365
0.0140596
0.0132819
0.0125137
0.0117855
0.0110807
0.0103909
0.00974032
0.00912652
0.00854479
0.0079935
0.00748079
0.00700788
0.00655519
0.00608731
0.0189027
0.0186598
0.0182591
0.0177409
0.0171406
0.0164892
0.0158046
0.0150976
0.0143858
0.0136871
0.0130046
0.0123433
0.0117179
0.0111175
0.0105368
0.00998939
0.00947403
0.00898798
0.00853016
0.00810597
0.00771665
0.00735095
0.00698707
0.0184018
0.0181683
0.0177747
0.0172653
0.0166757
0.0160391
0.0153787
0.0147111
0.0140527
0.0134172
0.0128075
0.0122253
0.0116775
0.0111577
0.0106625
0.0101981
0.00976365
0.00935656
0.00897446
0.00861852
0.00829018
0.00798559
0.00769523
0.0180194
0.0177914
0.0174066
0.0169098
0.0163366
0.0157202
0.015086
0.0144537
0.0138381
0.013249
0.0126892
0.0121602
0.0116652
0.011201
0.0107641
0.0103554
0.0099738
0.00961818
0.00928722
0.00898083
0.00869909
0.0084407
0.00820198
0.0178106
0.0175885
0.0172067
0.0167125
0.0161448
0.0155367
0.0149143
0.0142974
0.0137015
0.0131363
0.0126065
0.0121127
0.0116537
0.0112259
0.0108249
0.0104494
0.0100998
0.00977639
0.00947939
0.00920866
0.00896393
0.00874453
0.00854962
0.00184386
-0.0236528
-0.0487829
-0.0715921
-0.0944682
-0.116493
-0.137159
-0.154667
-0.00727371
-0.0303628
-0.0560816
-0.0758632
-0.0917892
-0.106717
-0.120409
-0.131553
-0.0163285
-0.0348119
-0.0555687
-0.0705179
-0.0807355
-0.0906875
-0.09998
-0.107916
-0.0231586
-0.037945
-0.0529834
-0.064211
-0.0716321
-0.0785663
-0.0845663
-0.0896026
-0.0271443
-0.0387634
-0.0487447
-0.0562196
-0.0613373
-0.0658884
-0.0694901
-0.0725395
-0.0283848
-0.037223
-0.0434149
-0.0479918
-0.0515
-0.0546133
-0.0568993
-0.0586307
-0.0273856
-0.0339741
-0.0375441
-0.0400611
-0.0423263
-0.044408
-0.0458154
-0.0466698
-0.0248524
-0.0297184
-0.0315764
-0.0327103
-0.0340477
-0.0354179
-0.0363053
-0.0366898
-0.0214361
-0.0250151
-0.0258197
-0.0260824
-0.0267564
-0.0276278
-0.0282012
-0.0283442
-0.0176354
-0.0202651
-0.020463
-0.0202158
-0.0204364
-0.0209514
-0.0213198
-0.0213459
-0.0138015
-0.0157335
-0.0156108
-0.0151019
-0.0150331
-0.0152996
-0.0155384
-0.0155313
-0.0101509
-0.01157
-0.0113027
-0.0106965
-0.0104644
-0.010566
-0.0107195
-0.010715
-0.00680665
-0.00784803
-0.00753994
-0.0069325
-0.00662315
-0.00662381
-0.0067225
-0.00673284
-0.00383108
-0.00459215
-0.00429622
-0.00373921
-0.00340629
-0.00334896
-0.00341468
-0.00344518
-0.00122691
-0.00178155
-0.00152374
-0.00104812
-0.00073415
-0.000649551
-0.000693363
-0.0007415
0.00100961
0.000610192
0.00081885
0.00119879
0.00146385
0.00154652
0.00150951
0.00144539
0.00289368
0.00260882
0.00276625
0.00305094
0.00325425
0.0033175
0.00327842
0.00320381
0.00444895
0.00424742
0.00435787
0.00455702
0.00469747
0.00473266
0.00468522
0.00460244
0.00570884
0.00556452
0.00563309
0.00575921
0.00584194
0.00584685
0.00578825
0.00569915
0.00670728
0.00659666
0.00662547
0.00668947
0.00672201
0.00669921
0.00663025
0.00653764
0.00748
0.00738177
0.007368
0.00737532
0.00736299
0.00731591
0.00723905
0.00714648
0.00802588
0.00792641
0.00787081
0.00782768
0.0077767
0.00770979
0.00762863
0.00753993
0.0083961
0.00827653
0.00816567
0.00806599
0.00797535
0.0078901
0.00780731
0.00772587
-0.347364
-0.354829
-0.364221
-0.376379
-0.392983
-0.415088
-0.440469
-0.463389
-0.34867
-0.354142
-0.3609
-0.370128
-0.383169
-0.400007
-0.419687
-0.438295
-0.347563
-0.351897
-0.356453
-0.362918
-0.372761
-0.385286
-0.397168
-0.404212
-0.344248
-0.347417
-0.349916
-0.353224
-0.358053
-0.363145
-0.365402
-0.361602
-0.336733
-0.338992
-0.33917
-0.338449
-0.337307
-0.334993
-0.329623
-0.318855
-0.324334