/*--------------------------------*- C++ -*----------------------------------*\
| =========                 |                                                 |
| \\      /  F ield         | OpenFOAM: The Open Source CFD Toolbox           |
|  \\    /   O peration     | Version:  2312                                  |
|   \\  /    A nd           | Website:  www.openfoam.com                      |
|    \\/     M anipulation  |                                                 |
\*---------------------------------------------------------------------------*/
FoamFile
{
    version     2.0;
    format      ascii;
    arch        "LSB;label=32;scalar=64";
    class       volVectorField;
    location    "159.95";
    object      U;
}
// * * * * * * * * * * * * * * * * * * * * * * * * * * * * * * * * * * * * * //

dimensions      [0 1 -1 0 0 0 0];

internalField   nonuniform List<vector> 
5478
(
(-0.0269305 0.0183399 -8.58321e-20)
(-0.040554 0.0200789 0)
(-0.020583 0.00782629 1.32758e-19)
(0.0495526 -0.00677518 -2.32961e-19)
(0.180335 -0.0193705 1.51891e-19)
(0.364132 -0.0252937 -4.6832e-20)
(0.573507 -0.022711 -7.5488e-20)
(0.777856 -0.0128084 0)
(0.952998 0.00298972 0)
(1.08552 0.0189976 7.39393e-20)
(1.17851 0.0345889 -3.81484e-20)
(1.22045 0.0479275 -5.20173e-20)
(1.24215 0.0488164 -1.92649e-20)
(1.23243 0.0589949 0)
(1.20376 0.0398996 4.59691e-20)
(-0.0302355 0.020312 1.72221e-19)
(-0.0274044 0.0237936 0)
(0.0378145 0.0130186 0)
(0.180836 0.00235257 -1.15896e-19)
(0.396352 0.00102554 1.52926e-19)
(0.643721 0.0105429 4.33478e-20)
(0.87403 0.0265838 -6.95229e-20)
(1.05457 0.0440241 6.16434e-20)
(1.17226 0.0578234 1.38047e-19)
(1.23371 0.0661862 -1.18604e-19)
(1.24581 0.0698014 6.06782e-22)
(1.23554 0.0662051 0)
(1.21337 0.0637613 1.92313e-20)
(1.18827 0.0579409 0)
(1.18796 0.0491996 0)
(-0.0283473 0.0161784 -3.75503e-22)
(0.00476435 0.0145846 -7.91892e-20)
(0.137913 0.00747736 8.62546e-23)
(0.374474 0.0124979 0)
(0.659999 0.03311 -4.98713e-20)
(0.918565 0.0596478 4.17785e-20)
(1.10502 0.0821629 3.44429e-20)
(1.20991 0.0950845 0)
(1.24931 0.0983471 -4.69598e-20)
(1.24572 0.0952359 3.7621e-20)
(1.22883 0.0881677 3.00037e-20)
(1.21157 0.0835628 0)
(1.20109 0.0772391 0)
(1.20143 0.0757879 -5.69926e-20)
(1.19834 0.0675122 5.07452e-20)
(-0.0197989 0.00945136 -9.16834e-20)
(0.0671669 0.000853556 7.83765e-20)
(0.298157 0.00836843 -6.78751e-20)
(0.620067 0.0419032 5.8809e-20)
(0.915705 0.0831036 9.91356e-20)
(1.11787 0.114261 -8.24649e-20)
(1.22106 0.129021 -3.44202e-20)
(1.25359 0.1301 2.56019e-20)
(1.24966 0.124101 -2.49705e-20)
(1.23765 0.115784 0)
(1.22632 0.110028 0)
(1.21684 0.102605 -4.33015e-20)
(1.20809 0.0982576 5.53863e-20)
(1.19195 0.0900822 -3.08492e-20)
(1.17622 0.0815197 0)
(-0.000812961 0.00194702 4.62713e-20)
(0.172443 -0.00676546 3.89979e-20)
(0.513156 0.0335863 -1.39191e-19)
(0.861269 0.0938631 1.46377e-21)
(1.09896 0.138974 -1.98894e-21)
(1.21716 0.159877 -1.10778e-21)
(1.25573 0.162601 3.19709e-20)
(1.25695 0.156634 2.69005e-20)
(1.24722 0.148057 1.86788e-20)
(1.23357 0.14008 -3.55343e-21)
(1.21797 0.130729 -4.19841e-20)
(1.20181 0.122602 0)
(1.18532 0.113937 1.77955e-20)
(1.17522 0.105061 -1.28306e-20)
(1.17097 0.0992741 2.34027e-20)
(0.0346447 -0.00475809 -9.80488e-20)
(0.325739 0.00519949 1.06181e-19)
(0.737265 0.085434 -3.61944e-20)
(1.0428 0.154295 2.75306e-20)
(1.19987 0.188474 -5.04925e-20)
(1.25598 0.196837 -3.72849e-20)
(1.26325 0.192448 1.02206e-21)
(1.25236 0.183212 0)
(1.23505 0.172686 3.8229e-20)
(1.21727 0.161183 -3.3996e-20)
(1.20194 0.151021 1.32226e-20)
(1.1897 0.140874 0)
(1.18135 0.132214 7.83833e-21)
(1.17171 0.12251 -1.34436e-20)
(1.15772 0.116176 0)
(0.0918216 -0.00577702 -1.2181e-20)
(0.508541 0.0473755 9.53898e-22)
(0.921824 0.152103 1.78343e-20)
(1.15629 0.213517 2.97279e-20)
(1.248 0.233752 -2.25364e-20)
(1.26565 0.23224 3.7796e-20)
(1.25449 0.222041 -8.61056e-21)
(1.23575 0.209226 0)
(1.21809 0.195934 -2.23621e-20)
(1.20293 0.183729 1.69307e-21)
(1.18922 0.171623 1.82799e-20)
(1.17621 0.160438 0)
(1.16246 0.149424 -1.14034e-20)
(1.15072 0.13863 0)
(1.14344 0.131906 6.70429e-21)
(0.170285 0.00601315 -1.33083e-20)
(0.682098 0.115871 0)
(1.05296 0.224799 1.84395e-20)
(1.21819 0.271489 0)
(1.26158 0.277566 0)
(1.25533 0.26688 0)
(1.23616 0.251648 -7.23157e-21)
(1.21684 0.235824 0)
(1.199 0.220568 4.51379e-21)
(1.1825 0.20549 0)
(1.16799 0.191438 -5.66139e-21)
(1.15613 0.178021 0)
(1.14779 0.165625 3.5609e-21)
(1.13993 0.15438 0)
(1.12891 0.146343 2.23491e-21)
(0.00638144 -0.196528 -1.28101e-20)
(-0.00953445 -0.337274 0)
(-0.0525388 -0.365844 2.00747e-20)
(-0.0991629 -0.361144 0)
(-0.14403 -0.350917 0)
(-0.184691 -0.334493 0)
(-0.218795 -0.305403 -1.34189e-20)
(-0.244593 -0.259205 0)
(-0.261096 -0.193684 1.11726e-20)
(-0.267983 -0.108462 0)
(-0.265313 -0.0049656 -1.79019e-20)
(-0.252448 0.114305 0)
(-0.22765 0.242587 1.33781e-20)
(-0.196646 0.370021 0)
(-0.148025 0.492932 9.12814e-21)
(0.0158245 -0.172156 6.22987e-20)
(-0.000811521 -0.287699 -4.32866e-20)
(-0.0517814 -0.306334 1.74952e-20)
(-0.107479 -0.29867 6.79354e-20)
(-0.162088 -0.28988 5.41264e-22)
(-0.214142 -0.27884 -5.56543e-20)
(-0.261681 -0.258887 3.82887e-20)
(-0.302577 -0.225304 0)
(-0.334671 -0.175417 2.94794e-20)
(-0.356177 -0.108297 -4.64498e-22)
(-0.364824 -0.0247041 -1.38765e-20)
(-0.359646 0.0712599 0)
(-0.342089 0.176589 -3.23868e-20)
(-0.307876 0.288046 0)
(-0.248549 0.391568 -3.74914e-20)
(0.0219367 -0.139544 9.29237e-20)
(0.00675065 -0.230621 2.03709e-20)
(-0.0450592 -0.242464 -3.74872e-20)
(-0.100489 -0.232602 -9.74628e-20)
(-0.152921 -0.224032 5.67122e-20)
(-0.201281 -0.216471 5.04042e-20)
(-0.244109 -0.203771 -8.71997e-20)
(-0.279544 -0.18137 0)
(-0.305251 -0.146635 -6.63585e-20)
(-0.31885 -0.0985371 5.90023e-20)
(-0.320367 -0.0374633 2.15064e-20)
(-0.30677 0.0335168 0)
(-0.266648 0.10198 1.90043e-20)
(-0.235222 0.18912 -2.0442e-20)
(-0.133883 0.249546 0)
(0.0233847 -0.105026 4.31525e-20)
(0.00946279 -0.174169 -1.18644e-19)
(-0.0393702 -0.182289 1.37757e-19)
(-0.089051 -0.172096 -1.20103e-19)
(-0.132069 -0.164046 -5.21586e-20)
(-0.16733 -0.159348 4.54704e-20)
(-0.19377 -0.152873 4.25259e-20)
(-0.210153 -0.140348 3.32433e-20)
(-0.215047 -0.119235 -8.35132e-20)
(-0.20534 -0.0885271 4.51733e-21)
(-0.177824 -0.0485922 1.87445e-20)
(-0.156553 0.00241581 0)
(-0.0594432 0.0466078 1.93998e-20)
(-0.0329554 0.125135 4.94543e-20)
(0.122811 0.132881 -2.59202e-20)
(0.0192169 -0.0719851 -8.42468e-22)
(0.0039665 -0.122488 7.47704e-20)
(-0.0414348 -0.130616 -6.57669e-20)
(-0.0840047 -0.123897 5.94568e-20)
(-0.11566 -0.119126 1.02618e-19)
(-0.134923 -0.118666 -8.91573e-20)
(-0.140697 -0.11864 -3.72794e-20)
(-0.131649 -0.115168 -9.45908e-20)
(-0.107239 -0.106057 8.2073e-20)
(-0.0688006 -0.0903523 0)
(0.00144862 -0.0591106 0)
(0.0437156 -0.0280608 4.46644e-20)
(0.202448 -0.00951539 -9.06027e-20)
(0.20399 0.0629924 2.80095e-20)
(0.442989 0.0597288 0)
(0.00925907 -0.0413898 -3.74019e-22)
(-0.0101732 -0.0760549 -7.52158e-20)
(-0.0518867 -0.0869993 1.95954e-19)
(-0.085982 -0.0872569 -5.72964e-20)
(-0.103549 -0.0888707 -5.04926e-20)
(-0.101225 -0.0944594 4.37155e-20)
(-0.076701 -0.101198 3.72969e-20)
(-0.0290188 -0.105617 5.84537e-20)
(0.0416523 -0.104959 -1.01119e-19)
(0.130036 -0.097685 3.87406e-20)
(0.241934 -0.0761884 2.96484e-20)
(0.331516 -0.0551737 0)
(0.526544 -0.0352581 0)
(0.549974 0.00779718 4.45875e-20)
(0.810513 0.0236561 -3.96654e-20)
(-0.00478908 -0.0139581 4.35091e-22)
(-0.0280199 -0.0342524 0)
(-0.0606024 -0.0480229 0)
(-0.0769635 -0.0556696 1.13644e-19)
(-0.06618 -0.0643137 -5.01461e-20)
(-0.0223953 -0.0755949 4.32816e-20)
(0.0561711 -0.0864464 7.0845e-20)
(0.165176 -0.0930573 -6.28168e-20)
(0.297755 -0.0932177 4.92553e-20)
(0.441092 -0.0822575 -3.87684e-20)
(0.584779 -0.0661103 5.06769e-22)
(0.729989 -0.0429514 0)
(0.874726 -0.0160592 1.79619e-20)
(0.96488 0.00738603 0)
(1.13333 0.0339595 0)
(-0.0182447 0.00705448 -8.29862e-20)
(-0.0401837 -0.00022263 0)
(-0.0523323 -0.0142595 -1.31306e-19)
(-0.0342855 -0.0270473 2.30711e-19)
(0.0265641 -0.0406356 -2.51576e-19)
(0.134796 -0.053347 -4.03733e-20)
(0.283583 -0.0613794 7.54806e-20)
(0.455689 -0.0618838 0)
(0.634452 -0.0544464 0)
(0.798632 -0.037358 -7.36882e-20)
(0.943778 -0.0206989 -2.21599e-20)
(1.06732 0.00662466 5.12584e-20)
(1.14493 0.0207438 -1.79905e-20)
(1.22169 0.041277 0)
(1.24966 0.0491438 -4.56176e-20)
(-0.0753687 0.66753 0)
(0.00502601 0.849194 3.20847e-21)
(0.0147706 0.824171 -2.9742e-21)
(0.334085 0.370231 0)
(0.61852 -0.138834 0)
(0.800083 -0.526501 -1.36948e-22)
(0.812065 -0.622435 0)
(0.84671 -0.568174 0)
(0.760012 -0.641986 5.32086e-23)
(0.608343 -0.547019 0)
(0.6332 -0.323255 0)
(0.836178 0.0784889 -9.09563e-23)
(0.895568 0.283401 0)
(0.92131 0.453284 -9.36564e-23)
(0.949839 0.632273 -7.41725e-23)
(0.933777 0.429159 0)
(0.959477 0.301113 -5.57627e-22)
(1.02329 -0.11122 6.73208e-22)
(1.03652 -0.473825 0)
(1.07392 -0.465272 4.45676e-22)
(1.04623 -0.513603 -5.49523e-22)
(1.09317 0.0206827 9.27575e-23)
(1.07534 0.448513 -2.1461e-22)
(1.07598 0.420661 2.05064e-22)
(1.14981 0.433665 -2.17304e-22)
(1.17247 -0.193219 0)
(1.07444 -0.757226 -2.16673e-22)
(1.14314 -0.0829717 2.07179e-22)
(1.07891 0.501557 -1.50442e-22)
(1.03872 0.158214 0)
(1.0155 -0.187151 -1.11932e-22)
(1.00043 -0.0696645 0)
(0.995526 0.0551065 -3.80414e-23)
(0.987312 0.0244262 -1.63512e-23)
(0.987074 -0.00758188 1.42572e-24)
(0.978333 -0.00101954 -9.20379e-24)
(0.98103 0.00516257 0)
(0.970794 0.0027822 2.97516e-24)
(-0.180167 0.574299 1.30622e-20)
(-0.0197442 0.761837 -9.07356e-23)
(0.157718 0.671311 -1.33168e-20)
(0.534913 0.190839 1.26982e-20)
(0.797576 -0.270764 0)
(0.93395 -0.578592 1.38003e-22)
(0.901365 -0.645568 -1.87566e-22)
(0.902138 -0.561837 0)
(0.815694 -0.595682 -5.36038e-23)
(0.676145 -0.518742 0)
(0.66714 -0.376179 0)
(0.820391 0.0199356 9.16064e-23)
(0.88624 0.248451 0)
(0.889516 0.422959 2.81258e-21)
(0.918555 0.616923 -2.37715e-21)
(0.892853 0.427809 1.88902e-21)
(0.946786 0.286212 -1.8031e-21)
(1.04961 -0.115669 -1.41671e-22)
(1.03951 -0.480486 0)
(1.10578 -0.469177 0)
(1.04881 -0.51722 -1.10112e-22)
(1.07698 0.0158495 1.18909e-21)
(1.07219 0.439717 -1.87415e-21)
(1.04622 0.407426 8.24686e-22)
(1.1467 0.42229 6.0377e-22)
(1.19492 -0.178617 0)
(1.06726 -0.752271 4.74025e-22)
(1.12275 -0.087039 0)
(1.07172 0.502917 1.50976e-22)
(1.05121 0.163786 -2.77197e-22)
(1.02647 -0.184254 4.83711e-22)
(1.00182 -0.0691772 -4.09057e-23)
(0.998926 0.0558672 7.0371e-23)
(0.993664 0.0249712 4.15215e-24)
(0.993669 -0.00709191 1.80126e-23)
(0.984864 -0.000677594 -8.09928e-24)
(0.988699 0.00555505 -7.41233e-25)
(0.978798 0.00336913 6.74194e-25)
(-0.0633007 0.431624 1.52147e-20)
(0.13938 0.605202 -3.4364e-20)
(0.391837 0.513366 -7.32313e-21)
(0.743749 0.0768178 2.53465e-20)
(0.985195 -0.335889 3.97056e-22)
(1.07247 -0.581053 -2.9173e-22)
(0.996892 -0.633735 1.90777e-22)
(0.962352 -0.532008 -2.60177e-22)
(0.863451 -0.544764 0)
(0.747603 -0.494971 5.28795e-21)
(0.742151 -0.420802 -5.044e-21)
(0.824418 -0.0411573 -1.4683e-22)
(0.874468 0.240658 0)
(0.846439 0.428158 -5.32402e-21)
(0.881353 0.61701 4.93509e-21)
(0.853878 0.430454 -1.78552e-21)
(0.934832 0.269325 1.70363e-21)
(1.06991 -0.108919 2.44458e-21)
(1.04241 -0.475249 -2.09653e-21)
(1.1269 -0.471245 0)
(1.04362 -0.519063 0)
(1.05388 0.00495699 2.25103e-21)
(1.06606 0.435442 -2.14926e-21)
(1.01783 0.400622 -1.4477e-21)
(1.13596 0.41161 -1.51721e-22)
(1.207 -0.156126 1.41818e-21)
(1.05263 -0.737168 -2.60845e-23)
(1.09447 -0.0958602 -8.89453e-22)
(1.06102 0.502717 1.57624e-21)
(1.05895 0.172933 -1.17159e-21)
(1.03315 -0.177251 5.20417e-23)
(0.999637 -0.0680793 -1.52036e-22)
(0.998679 0.0560366 5.62417e-23)
(0.996507 0.0255135 -5.37744e-23)
(0.996694 -0.0064648 -1.12295e-23)
(0.988153 -0.000412906 -5.69332e-24)
(0.993061 0.00584421 1.75224e-23)
(0.983951 0.00392438 2.868e-24)
(0.180983 0.267105 0)
(0.368856 0.423449 1.60773e-20)
(0.612434 0.370426 -1.5816e-20)
(0.937755 -0.0102075 0)
(1.14479 -0.381095 -4.08075e-22)
(1.17934 -0.562667 2.99731e-22)
(1.05867 -0.609939 0)
(1.00135 -0.505651 7.18153e-24)
(0.906988 -0.492672 -2.07654e-22)
(0.794061 -0.480598 0)
(0.813313 -0.458581 -4.91473e-21)
(0.860189 -0.0918357 4.83727e-21)
(0.903428 0.20671 -3.6989e-22)
(0.824914 0.395916 -5.24788e-21)
(0.830904 0.60348 5.00464e-21)
(0.809211 0.432228 2.0027e-22)
(0.918685 0.251649 0)
(1.08126 -0.103028 -2.5286e-22)
(1.0508 -0.467874 4.06905e-21)
(1.13953 -0.473597 1.71835e-22)
(1.03347 -0.517387 1.20942e-21)
(1.02948 -0.0165332 -4.12556e-21)
(1.05196 0.416605 -2.94499e-21)
(0.985336 0.386316 3.62366e-21)
(1.1156 0.397871 -3.46105e-22)
(1.2072 -0.132659 0)
(1.03684 -0.719487 -4.58645e-22)
(1.05973 -0.111627 9.01159e-22)
(1.04269 0.493178 -1.56073e-21)
(1.05932 0.178721 1.15135e-21)
(1.03524 -0.169359 -1.83953e-22)
(0.994156 -0.0674845 0)
(0.995034 0.0552105 -5.664e-23)
(0.995899 0.0258355 1.00848e-22)
(0.996183 -0.00582538 3.37756e-23)
(0.98825 -0.000258398 3.24797e-23)
(0.994084 0.00600073 -1.75347e-23)
(0.986182 0.0044214 -6.60923e-26)
(0.487136 0.141467 1.18882e-22)
(0.588976 0.271641 2.97547e-22)
(0.801287 0.241727 0)
(1.12552 -0.071971 0)
(1.27572 -0.376257 0)
(1.25706 -0.501197 0)
(1.11157 -0.556007 1.02839e-20)
(1.01948 -0.479887 -1.7717e-20)
(0.960333 -0.441389 7.89022e-21)
(0.836948 -0.457239 0)
(0.845038 -0.507732 -5.18701e-21)
(0.910581 -0.162617 5.10653e-21)
(0.933586 0.197909 6.57596e-21)
(0.805991 0.412049 -5.53413e-21)
(0.795569 0.60308 3.91431e-21)
(0.784916 0.428126 -3.93582e-21)
(0.910827 0.227098 -2.05472e-22)
(1.08775 -0.0933543 -4.01266e-21)
(1.06043 -0.452397 3.82257e-21)
(1.1392 -0.470857 4.29228e-22)
(1.01652 -0.515806 5.5172e-22)
(0.995515 -0.0410072 4.53267e-21)
(1.03305 0.410239 -5.01329e-21)
(0.958677 0.381452 -6.18103e-22)
(1.09379 0.386604 -2.7304e-22)
(1.19876 -0.102398 -2.07872e-22)
(1.02184 -0.697588 0)
(1.01941 -0.129848 0)
(1.02403 0.485476 0)
(1.05587 0.188086 0)
(1.03393 -0.158048 4.85334e-22)
(0.986199 -0.0662322 -2.84899e-22)
(0.988637 0.0539819 1.13777e-22)
(0.992193 0.0261579 -3.04851e-22)
(0.992426 -0.00510734 3.2704e-23)
(0.985404 -0.000184994 6.50714e-24)
(0.991929 0.00603268 -2.24742e-23)
(0.985566 0.0048443 -7.15187e-24)
(0.843345 0.0623788 -1.25048e-22)
(0.859124 0.156097 2.37817e-20)
(1.02593 0.128211 -2.27815e-20)
(1.29839 -0.111513 -4.21121e-20)
(1.36838 -0.341526 4.00939e-20)
(1.29949 -0.428365 2.90028e-20)
(1.16985 -0.487699 -2.70047e-20)
(1.03438 -0.456774 2.62047e-22)
(1.00132 -0.402879 -2.18605e-22)
(0.907883 -0.411125 0)
(0.824573 -0.533422 -1.78972e-22)
(0.918155 -0.234258 1.28354e-20)
(0.953361 0.159405 -1.22232e-20)
(0.793517 0.385943 -3.84065e-22)
(0.736406 0.597083 0)
(0.745219 0.439419 -3.63462e-21)
(0.901591 0.220896 7.03449e-21)
(1.08992 -0.0781119 -3.16958e-21)
(1.07302 -0.433725 0)
(1.1285 -0.46571 3.62946e-21)
(0.998082 -0.510744 1.06154e-21)
(0.958944 -0.0769924 -5.24352e-21)
(1.00439 0.379305 -4.087e-21)
(0.925402 0.368037 3.65949e-21)
(1.0659 0.377215 -1.82569e-21)
(1.18312 -0.0720639 -4.91091e-22)
(1.0111 -0.67308 2.5301e-21)
(0.976945 -0.153732 -3.27059e-21)
(0.997277 0.464916 3.11123e-21)
(1.04447 0.19381 -3.61744e-22)
(1.0287 -0.147207 3.4391e-22)
(0.976273 -0.0656203 0)
(0.979892 0.0518126 1.14146e-22)
(0.985709 0.0262593 -2.83978e-23)
(0.985831 -0.00442068 0)
(0.98 -0.00023919 -3.33538e-23)
(0.986912 0.00592277 1.47875e-23)
(0.982319 0.00517141 -2.74808e-24)
(1.14846 0.0407018 0)
(1.13886 0.086728 0)
(1.25131 0.0556766 -9.05228e-23)
(1.40604 -0.108198 0)
(1.39803 -0.278252 0)
(1.29374 -0.355715 2.74175e-20)
(1.19848 -0.417213 -2.61188e-20)
(1.0573 -0.427422 1.61163e-20)
(1.01085 -0.388593 -1.536e-20)
(0.979375 -0.354864 0)
(0.826861 -0.529529 -1.65298e-22)
(0.881766 -0.344248 2.0482e-22)
(0.972123 0.128059 -1.47026e-20)
(0.784671 0.412437 2.40054e-21)
(0.713222 0.607665 1.07812e-20)
(0.749577 0.4234 1.09022e-22)
(0.911073 0.191418 -1.05389e-22)
(1.09406 -0.0696067 7.2361e-21)
(1.08604 -0.411759 -7.0903e-21)
(1.1126 -0.449699 0)
(0.98113 -0.508121 0)
(0.915467 -0.108748 -4.00268e-22)
(0.972333 0.369944 0)
(0.89879 0.362372 2.32066e-21)
(1.0434 0.368553 -2.73223e-22)
(1.16933 -0.0401613 -1.52167e-21)
(1.00039 -0.644776 -3.92823e-21)
(0.934006 -0.176195 2.65201e-21)
(0.973989 0.45223 -3.06836e-22)
(1.03226 0.201745 0)
(1.02174 -0.134018 -2.69475e-22)
(0.965786 -0.0642972 2.55502e-22)
(0.969777 0.049763 7.28285e-23)
(0.977157 0.0264593 2.76609e-23)
(0.97706 -0.00370174 -4.02668e-23)
(0.972573 -0.000326179 1.30182e-23)
(0.979508 0.0057213 0)
(0.976786 0.0054033 5.588e-24)
(1.25326 0.0382307 2.7955e-20)
(1.25855 0.0495271 2.38243e-20)
(1.32028 0.0332828 3.50961e-21)
(1.37578 -0.0571748 -5.35298e-20)
(1.35283 -0.180783 2.73376e-20)
(1.2721 -0.269469 -2.31214e-22)
(1.21177 -0.348872 0)
(1.09488 -0.384174 -1.42799e-22)
(1.01298 -0.384607 -1.17548e-22)
(1.01737 -0.320637 0)
(0.86929 -0.473239 -1.24625e-20)
(0.814744 -0.42715 1.17823e-20)
(0.922207 0.0188028 2.73454e-22)
(0.776462 0.356337 1.25045e-20)
(0.690109 0.594875 -1.18518e-20)
(0.713602 0.455744 1.16709e-22)
(0.900994 0.209599 1.11656e-22)
(1.09681 -0.0363865 0)
(1.0994 -0.377771 6.58898e-21)
(1.09806 -0.431658 -6.24881e-21)
(0.967055 -0.494482 -5.59809e-21)
(0.871752 -0.156742 -1.78823e-22)
(0.926379 0.322275 5.57196e-21)
(0.865069 0.34793 -2.28217e-21)
(1.00843 0.361476 7.7172e-22)
(1.15941 0.000371412 2.93668e-21)
(0.988949 -0.609435 -1.12123e-21)
(0.895178 -0.204862 3.65718e-21)
(0.942496 0.420717 -2.68326e-21)
(1.01192 0.209808 0)
(1.01182 -0.119948 0)
(0.955128 -0.0631514 0)
(0.958535 0.0465503 4.05258e-23)
(0.966976 0.0263677 -7.0032e-23)
(0.966757 -0.00310283 4.30787e-23)
(0.963683 -0.000591083 -2.73974e-23)
(0.970259 0.00535013 -1.25017e-23)
(0.969403 0.00549784 0)
(1.21358 0.0344929 0)
(1.24335 0.0261664 0)
(1.27074 0.00871421 0)
(1.29364 -0.0472401 0)
(1.29926 -0.133342 0)
(1.24151 -0.198928 0)
(1.20986 -0.259758 0)
(1.13757 -0.296154 0)
(1.01945 -0.336969 0)
(1.04501 -0.262163 0)
(0.926996 -0.417175 0)
(0.763933 -0.482553 0)
(0.844743 -0.0462952 0)
(0.755229 0.371515 0)
(0.671299 0.61946 0)
(0.747755 0.415379 0)
(0.948468 0.154109 0)
(1.11802 -0.0334306 0)
(1.112 -0.335282 0)
(1.09366 -0.41989 0)
(0.932146 -0.50281 0)
(0.836436 -0.180322 0)
(0.878571 0.313424 0)
(0.815294 0.337888 0)
(0.999655 0.35434 0)
(1.17822 0.023689 0)
(0.971195 -0.581682 0)
(0.860189 -0.222547 0)
(0.911492 0.405719 0)
(0.993444 0.213245 0)
(0.999461 -0.109753 0)
(0.942785 -0.0603157 0)
(0.945108 0.0449091 0)
(0.953823 0.026787 0)
(0.952966 -0.00222273 0)
(0.95145 -0.000757284 0)
(0.957166 0.00499968 0)
(0.958603 0.00556679 0)
(1.19814 0.0291919 0)
(1.2122 0.0115271 0)
(1.23402 -0.0141708 0)
(1.23787 -0.0737669 0)
(1.23754 -0.125751 0)
(1.19975 -0.191458 0)
(1.14321 -0.274456 0)
(1.09126 -0.265621 0)
(0.992889 -0.317127 0)
(0.940792 -0.289091 0)
(0.879815 -0.360068 0)
(0.739671 -0.379921 0)
(0.726746 0.0290799 0)
(0.631459 0.429763 0)
(0.646598 0.609894 0)
(0.817884 0.339616 0)
(1.01605 0.0727101 0)
(1.14755 -0.108292 0)
(1.11527 -0.358353 0)
(1.0553 -0.379325 0)
(0.838506 -0.417958 0)
(0.773121 -0.127062 0)
(0.793405 0.335935 0)
(0.739802 0.316451 0)
(0.986772 0.284812 0)
(1.17546 -0.0101524 0)
(0.937993 -0.530942 0)
(0.8199 -0.184541 0)
(0.869468 0.398828 0)
(0.968039 0.191501 0)
(0.982572 -0.104118 0)
(0.923944 -0.0514151 0)
(0.924502 0.0442602 0)
(0.935056 0.0254608 0)
(0.934166 -0.00229744 0)
(0.934329 -0.00131262 0)
(0.938682 0.00422836 0)
(0.942977 0.00529808 0)
(1.1755 0.0246027 0)
(1.18618 -0.00241712 0)
(1.20363 -0.023187 0)
(1.19949 -0.0589209 0)
(1.18758 -0.114642 0)
(1.17485 -0.134751 0)
(1.12689 -0.194392 0)
(1.0734 -0.200877 0)
(1.04285 -0.225919 0)
(0.965415 -0.190711 0)
(0.905129 -0.276393 0)
(0.730989 -0.338212 0)
(0.605608 0.0532292 0)
(0.553253 0.436559 0)
(0.706786 0.531366 0)
(0.960112 0.230096 0)
(1.08588 -0.00589016 0)
(1.16202 -0.0996873 0)
(1.12311 -0.285895 0)
(1.02879 -0.317784 0)
(0.773308 -0.377935 0)
(0.684296 -0.129832 0)
(0.690245 0.32979 0)
(0.695657 0.26059 0)
(0.968233 0.219064 0)
(1.18374 0.0126505 0)
(0.934218 -0.470711 0)
(0.765856 -0.183977 0)
(0.818528 0.365577 0)
(0.949112 0.172989 0)
(0.967439 -0.0947737 0)
(0.904238 -0.0451456 0)
(0.903634 0.0409277 0)
(0.916503 0.0243779 0)
(0.914562 -0.0017944 0)
(0.915677 -0.00169255 0)
(0.918301 0.00335035 0)
(0.925137 0.00478904 0)
(1.15007 0.0170902 0)
(1.16467 -0.00327264 0)
(1.16512 -0.0288081 0)
(1.16746 -0.0589719 0)
(1.15186 -0.0959853 0)
(1.12518 -0.121954 0)
(1.10369 -0.174916 0)
(1.04037 -0.173463 0)
(1.00963 -0.216897 0)
(0.935902 -0.194924 0)
(0.911848 -0.216368 0)
(0.771624 -0.200268 0)
(0.610961 0.132929 0)
(0.640528 0.359675 0)
(0.860405 0.364699 0)
(1.10425 0.13462 0)
(1.14191 -0.025675 0)
(1.158 -0.126437 0)
(1.09507 -0.280839 0)
(0.973945 -0.23639 0)
(0.749229 -0.270832 0)
(0.57901 -0.0764535 0)
(0.5951 0.327138 0)
(0.702158 0.192369 0)
(0.944691 0.124893 0)
(1.1673 -0.0131125 0)
(0.93517 -0.384883 0)
(0.686509 -0.138159 0)
(0.748768 0.333348 0)
(0.944134 0.139452 0)
(0.957222 -0.0868841 0)
(0.880943 -0.0345898 0)
(0.879541 0.0391074 0)
(0.898288 0.0227563 0)
(0.896326 -0.00169542 0)
(0.897916 -0.00215727 0)
(0.898595 0.00233447 0)
(0.907201 0.00397301 0)
(1.12502 0.0125897 0)
(1.13836 -0.00779891 0)
(1.13831 -0.0274843 0)
(1.13489 -0.0518402 0)
(1.12292 -0.0807693 0)
(1.1005 -0.0953502 0)
(1.08594 -0.133469 0)
(1.03354 -0.122905 0)
(1.02349 -0.151977 0)
(0.94508 -0.120624 0)
(0.91531 -0.134242 0)
(0.807172 -0.124885 0)
(0.724404 0.131638 0)
(0.829972 0.259112 0)
(1.00502 0.236339 0)
(1.16515 0.0615702 0)
(1.1337 -0.0410681 0)
(1.14443 -0.0856959 0)
(1.08985 -0.202484 0)
(0.963696 -0.154603 0)
(0.821255 -0.181202 0)
(0.582219 -0.0393369 0)
(0.618385 0.271398 0)
(0.787365 0.106839 0)
(0.93105 0.0470084 0)
(1.15299 -0.00819518 0)
(0.958606 -0.300059 0)
(0.62986 -0.100129 0)
(0.721032 0.282569 0)
(0.970475 0.103673 0)
(0.958384 -0.0706458 0)
(0.86334 -0.0215452 0)
(0.865128 0.0353397 0)
(0.89187 0.0199252 0)
(0.889355 -0.0013988 0)
(0.889078 -0.00230325 0)
(0.887362 0.00137678 0)
(0.895473 0.00297043 0)
(1.10402 0.00883573 0)
(1.11519 -0.00792152 0)
(1.11302 -0.0233617 0)
(1.1102 -0.0436395 0)
(1.09856 -0.0630376 0)
(1.08043 -0.0757044 0)
(1.06706 -0.103478 0)
(1.02153 -0.095265 0)
(1.01605 -0.124298 0)
(0.948219 -0.0948467 0)
(0.946532 -0.0925968 0)
(0.868135 -0.0667868 0)
(0.838403 0.10611 0)
(0.945085 0.160531 0)
(1.05007 0.135455 0)
(1.15746 0.0454182 0)
(1.10322 -0.0122643 0)
(1.10525 -0.0872375 0)
(1.04925 -0.181805 0)
(0.936097 -0.101403 0)
(0.895531 -0.0817235 0)
(0.693916 0.0214432 0)
(0.759194 0.219382 0)
(0.937233 0.0570851 0)
(0.9462 -0.0259675 0)
(1.11678 -0.0345602 0)
(0.985928 -0.190909 0)
(0.633224 -0.03721 0)
(0.754533 0.205566 0)
(1.00707 0.0578091 0)
(0.966277 -0.049935 0)
(0.867571 -0.0046271 0)
(0.877724 0.0297331 0)
(0.90731 0.0157238 0)
(0.903287 -0.000760789 0)
(0.898903 -0.00175585 0)
(0.895188 0.000887681 0)
(0.899582 0.00208097 0)
(1.08565 0.00731306 0)
(1.09439 -0.00825411 0)
(1.09168 -0.0183776 0)
(1.08862 -0.0351998 0)
(1.07886 -0.0486682 0)
(1.06366 -0.0577183 0)
(1.05345 -0.0777343 0)
(1.02024 -0.0679617 0)
(1.01821 -0.0865897 0)
(0.965875 -0.0604289 0)
(0.969936 -0.0528251 0)
(0.915499 -0.0317529 0)
(0.91287 0.0602449 0)
(0.992552 0.0963125 0)
(1.03688 0.0874418 0)
(1.10877 0.0211636 0)
(1.07832 -0.0105055 0)
(1.09069 -0.0510081 0)
(1.03595 -0.111419 0)
(0.927972 -0.0580658 0)
(0.943257 -0.035733 0)
(0.830183 0.0317755 0)
(0.906495 0.14417 0)
(1.06165 0.0291599 0)
(0.989368 -0.0326081 0)
(1.06807 -0.0352388 0)
(1.01721 -0.106327 0)
(0.734104 0.00645604 0)
(0.84243 0.125811 0)
(1.0398 0.02493 0)
(0.986172 -0.0227615 0)
(0.90633 0.00924274 0)
(0.92205 0.0217752 0)
(0.944909 0.0118558 0)
(0.940092 0.00110973 0)
(0.931285 -0.000175764 0)
(0.927071 0.00133943 0)
(0.925568 0.0018928 0)
(1.07009 0.0064903 0)
(1.07673 -0.00719437 0)
(1.07342 -0.0129243 0)
(1.07217 -0.0269631 0)
(1.06277 -0.0349004 0)
(1.05284 -0.0423837 0)
(1.04324 -0.0546712 0)
(1.02048 -0.0473887 0)
(1.01798 -0.0615001 0)
(0.981348 -0.038962 0)
(0.986042 -0.0387342 0)
(0.955995 -0.0127655 0)
(0.959165 0.030864 0)
(1.00227 0.0532346 0)
(1.02887 0.0507311 0)
(1.07544 0.0142266 0)
(1.05085 -0.00173676 0)
(1.05902 -0.0461431 0)
(1.02399 -0.0768567 0)
(0.952295 -0.0400552 0)
(0.973245 -0.0181498 0)
(0.924532 0.036316 0)
(0.983871 0.0881164 0)
(1.07664 0.0187984 0)
(1.01189 -0.0253943 0)
(1.03446 -0.046969 0)
(1.01017 -0.0508856 0)
(0.854775 0.0481769 0)
(0.940371 0.0748 0)
(1.04951 0.000973329 0)
(0.999088 -0.000483666 0)
(0.955297 0.0204249 0)
(0.972895 0.0159928 0)
(0.984133 0.00937239 0)
(0.980188 0.00341085 0)
(0.970434 0.00202445 0)
(0.967973 0.00263223 0)
(0.96288 0.00253276 0)
(1.05718 0.00635377 0)
(1.06256 -0.00521084 0)
(1.05909 -0.00784532 0)
(1.05915 -0.0192295 0)
(1.05023 -0.0238987 0)
(1.04505 -0.0295553 0)
(1.03501 -0.0377865 0)
(1.02278 -0.0318721 0)
(1.01718 -0.0423006 0)
(0.996898 -0.0236742 0)
(0.998999 -0.0269024 0)
(0.980727 -0.00336506 0)
(0.988043 0.012008 0)
(1.0067 0.0293844 0)
(1.02359 0.029051 0)
(1.04735 0.00507121 0)
(1.04028 -0.00174287 0)
(1.04338 -0.0295069 0)
(1.01601 -0.0400689 0)
(0.977516 -0.0234184 0)
(0.984919 -0.00947101 0)
(0.966329 0.0263748 0)
(1.00815 0.0476335 0)
(1.05689 0.0131416 0)
(1.02382 -0.00721747 0)
(1.02165 -0.0306412 0)
(0.990457 -0.024046 0)
(0.936765 0.0465444 0)
(1.0062 0.0402628 0)
(1.04057 -0.000122583 0)
(1.00351 0.0162594 0)
(0.994813 0.0215861 0)
(1.01011 0.0105054 0)
(1.0115 0.00888631 0)
(1.00902 0.00569019 0)
(1.00146 0.00375411 0)
(1.00104 0.00379189 0)
(0.995786 0.00350439 0)
(1.04706 0.00642614 0)
(1.05139 -0.00289896 0)
(1.04762 -0.00380924 0)
(1.04913 -0.0127586 0)
(1.04075 -0.0151738 0)
(1.03953 -0.0195858 0)
(1.02955 -0.0247899 0)
(1.02461 -0.0203502 0)
(1.01759 -0.0283687 0)
(1.00769 -0.0135734 0)
(1.00698 -0.0199633 0)
(0.996966 -0.000392604 0)
(1.00394 0.00221781 0)
(1.00854 0.014791 0)
(1.02309 0.014032 0)
(1.03124 0.00162147 0)
(1.03116 -0.000341139 0)
(1.02886 -0.0222952 0)
(1.01246 -0.0226834 0)
(0.994829 -0.0168578 0)
(0.99406 -0.00606413 0)
(0.988926 0.0186044 0)
(1.01318 0.0268896 0)
(1.03447 0.00950731 0)
(1.02105 -0.00175754 0)
(1.01916 -0.0231006 0)
(0.991822 -0.010843 0)
(0.980185 0.0396417 0)
(1.02388 0.0243628 0)
(1.02446 0.00211309 0)
(1.00978 0.0207875 0)
(1.01823 0.0187671 0)
(1.02515 0.00846003 0)
(1.02299 0.00934671 0)
(1.02297 0.00680336 0)
(1.01833 0.00467787 0)
(1.0187 0.00450493 0)
(1.0152 0.00424556 0)
(1.03892 0.00640207 0)
(1.04232 -0.00054858 0)
(1.03908 -0.000815302 0)
(1.04125 -0.00728996 0)
(1.03399 -0.00871396 0)
(1.03507 -0.0119019 0)
(1.02589 -0.0153851 0)
(1.02551 -0.0124289 0)
(1.01788 -0.01819 0)
(1.0146 -0.00813923 0)
(1.01219 -0.0139081 0)
(1.00678 -2.29701e-05 0)
(1.01207 -0.00220553 0)
(1.01083 0.00721292 0)
(1.02206 0.00550736 0)
(1.02097 -0.000639815 0)
(1.02619 -0.00102821 0)
(1.02122 -0.0142498 0)
(1.01262 -0.0106147 0)
(1.0048 -0.0101331 0)
(1.00023 -0.00170901 0)
(1.00054 0.0115655 0)
(1.0132 0.014772 0)
(1.02432 0.00722864 0)
(1.01961 0.00240688 0)
(1.01707 -0.00968013 0)
(0.995753 -0.00240154 0)
(0.998283 0.0268116 0)
(1.02532 0.016398 0)
(1.01667 0.00749216 0)
(1.01419 0.0208489 0)
(1.02553 0.0154896 0)
(1.02713 0.00800806 0)
(1.02606 0.00968292 0)
(1.02726 0.00743688 0)
(1.02448 0.00536922 0)
(1.0249 0.00498094 0)
(1.02317 0.00480738 0)
(1.0326 0.00623078 0)
(1.03517 0.00151312 0)
(1.03272 0.00126413 0)
(1.03474 -0.003149 0)
(1.02915 -0.00416442 0)
(1.03092 -0.00645185 0)
(1.02357 -0.00874355 0)
(1.02499 -0.00711666 0)
(1.01836 -0.010987 0)
(1.01821 -0.00478877 0)
(1.01501 -0.00919169 0)
(1.01271 -0.000445415 0)
(1.01553 -0.00327785 0)
(1.01272 0.00280911 0)
(1.0209 0.00104051 0)
(1.01655 -0.00125068 0)
(1.02249 -0.0009535 0)
(1.01651 -0.00893833 0)
(1.01326 -0.00514806 0)
(1.00894 -0.00622623 0)
(1.00527 -0.000468019 0)
(1.00779 0.00692042 0)
(1.01226 0.00876464 0)
(1.01881 0.00548271 0)
(1.01595 0.00258543 0)
(1.01554 -0.00415541 0)
(1.0035 0.00120677 0)
(1.00689 0.0188101 0)
(1.02164 0.0126967 0)
(1.01414 0.00859597 0)
(1.01717 0.0168826 0)
(1.02644 0.0129951 0)
(1.02581 0.00803155 0)
(1.02622 0.00893437 0)
(1.02776 0.00709384 0)
(1.02613 0.00548582 0)
(1.02638 0.004934 0)
(1.02565 0.0048567 0)
(1.02769 0.00598854 0)
(1.02946 0.00303151 0)
(1.02788 0.00255286 0)
(1.02941 -0.000215274 0)
(1.02558 -0.00113031 0)
(1.02717 -0.00265129 0)
(1.02193 -0.00423895 0)
(1.02357 -0.00355067 0)
(1.01855 -0.00596034 0)
(1.01943 -0.00272677 0)
(1.01652 -0.00546862 0)
(1.01564 -0.00072869 0)
(1.01675 -0.00283281 0)
(1.0143 0.000616502 0)
(1.01931 -0.000513925 0)
(1.01488 -0.00150309 0)
(1.01958 -0.000992872 0)
(1.01457 -0.00518578 0)
(1.01404 -0.00233365 0)
(1.01128 -0.00297418 0)
(1.0089 0.000633422 0)
(1.01103 0.00456665 0)
(1.01199 0.00544174 0)
(1.01679 0.00466867 0)
(1.01467 0.00364785 0)
(1.01493 0.000826076 0)
(1.00792 0.00413693 0)
(1.01048 0.0130423 0)
(1.01965 0.0104269 0)
(1.01487 0.00987633 0)
(1.01814 0.0143062 0)
(1.0247 0.011697 0)
(1.02434 0.00834336 0)
(1.02572 0.00850124 0)
(1.02699 0.00716966 0)
(1.02612 0.00586513 0)
(1.0263 0.00516168 0)
(1.02609 0.00510538 0)
(1.02378 0.00570576 0)
(1.02496 0.00400225 0)
(1.02409 0.00333042 0)
(1.02511 0.0017287 0)
(1.02277 0.000817675 0)
(1.02381 -0.000123529 0)
(1.02043 -0.001331 0)
(1.02165 -0.00114262 0)
(1.01832 -0.00265968 0)
(1.01923 -0.00122374 0)
(1.01698 -0.00277632 0)
(1.01672 -0.000670965 0)
(1.01684 -0.00172223 0)
(1.01521 -0.000342595 0)
(1.01781 -0.000613364 0)
(1.01461 -0.00135835 0)
(1.01753 -0.00055205 0)
(1.01399 -0.00267551 0)
(1.0143 -0.000939733 0)
(1.01227 -0.000846211 0)
(1.01118 0.000681958 0)
(1.0126 0.00354671 0)
(1.01223 0.00365263 0)
(1.0154 0.00404513 0)
(1.01357 0.00363415 0)
(1.01453 0.00213591 0)
(1.0113 0.00489287 0)
(1.01283 0.00957021 0)
(1.01789 0.00876838 0)
(1.01553 0.00908662 0)
(1.01847 0.0110945 0)
(1.02303 0.010199 0)
(1.02311 0.00802746 0)
(1.02485 0.00750804 0)
(1.02587 0.00662057 0)
(1.02567 0.00565469 0)
(1.0258 0.00491828 0)
(1.0259 0.00493919 0)
(1.02062 0.00534827 0)
(1.02141 0.00450137 0)
(1.02102 0.00368937 0)
(1.02165 0.00290676 0)
(1.02033 0.00194629 0)
(1.02096 0.001475 0)
(1.01895 0.000453281 0)
(1.0197 0.000453488 0)
(1.01766 -0.000532855 0)