/*--------------------------------*- C++ -*----------------------------------*\
| =========                 |                                                 |
| \\      /  F ield         | OpenFOAM: The Open Source CFD Toolbox           |
|  \\    /   O peration     | Version:  2512                                  |
|   \\  /    A nd           | Website:  www.openfoam.com                      |
|    \\/     M anipulation  |                                                 |
\*---------------------------------------------------------------------------*/
FoamFile
{
    version     2.0;
    format      ascii;
    arch        "LSB;label=32;scalar=64";
    class       volVectorField;
    location    "0.9";
    object      U;
}
// * * * * * * * * * * * * * * * * * * * * * * * * * * * * * * * * * * * * * //

dimensions      [0 1 -1 0 0 0 0];

internalField   nonuniform List<vector> 
13248
(
(-0.0162475 0.0206515 7.2555e-20)
(0.183236 -0.128456 0)
(0.490141 -0.325389 -1.11981e-19)
(0.770726 -0.484255 1.0367e-19)
(0.962913 -0.575542 8.94358e-20)
(1.06863 -0.605092 0)
(1.11402 -0.59293 0)
(1.12522 -0.558584 1.24683e-19)
(1.12022 -0.515679 -1.10687e-20)
(1.10912 -0.471664 -8.66229e-20)
(1.09681 -0.429797 6.1926e-20)
(1.08522 -0.391186 -3.613e-20)
(1.07494 -0.356014 0)
(1.06601 -0.324109 -3.92688e-20)
(1.05829 -0.295196 6.79742e-20)
(1.05163 -0.268976 -1.37783e-20)
(1.04584 -0.245219 -2.01363e-20)
(1.04087 -0.223579 1.87736e-20)
(1.03643 -0.20401 0)
(1.03262 -0.186151 0)
(1.02994 -0.169379 0)
(1.02507 -0.155556 0)
(1.02775 -0.139201 3.4896e-21)
(1.01908 -0.127547 8.67465e-21)
(0.00123336 0.0050019 -2.26461e-19)
(0.245799 -0.15392 1.42547e-19)
(0.589523 -0.342366 -5.50764e-21)
(0.885105 -0.485335 -1.76738e-19)
(1.07472 -0.561657 -8.93169e-20)
(1.16961 -0.580918 -8.13913e-20)
(1.2026 -0.56368 -1.15018e-19)
(1.20297 -0.528297 1.13309e-19)
(1.18934 -0.486785 0)
(1.17144 -0.445264 4.05234e-21)
(1.15352 -0.406171 1.15939e-20)
(1.13712 -0.370218 4.37947e-20)
(1.12255 -0.337436 0)
(1.10974 -0.307628 0)
(1.09849 -0.280534 2.84294e-20)
(1.0886 -0.255908 -5.296e-20)
(1.07988 -0.233501 2.66042e-20)
(1.07215 -0.213123 -2.48037e-20)
(1.06533 -0.194557 -1.05555e-20)
(1.05923 -0.177727 -1.43518e-20)
(1.0537 -0.162079 -5.36152e-21)
(1.04859 -0.149378 -8.10014e-21)
(1.04565 -0.134151 1.42624e-20)
(1.03726 -0.128226 3.84774e-21)
(0.0235084 -0.0104333 0)
(0.316729 -0.174932 0)
(0.693329 -0.349646 6.4439e-20)
(0.997129 -0.473811 4.94388e-20)
(1.17912 -0.53483 -1.1946e-20)
(1.26104 -0.545144 -9.98923e-20)
(1.28172 -0.524731 0)
(1.27235 -0.490022 -5.2364e-20)
(1.2514 -0.451169 4.7217e-20)
(1.2278 -0.413012 4.51365e-21)
(1.20516 -0.37731 -5.82792e-20)
(1.18462 -0.344495 -4.45615e-20)
(1.16631 -0.31452 5.14626e-21)
(1.15007 -0.287183 -2.55218e-20)
(1.13565 -0.262256 6.70612e-20)
(1.12283 -0.239517 0)
(1.1114 -0.218754 -3.26553e-20)
(1.10118 -0.199831 1.49603e-20)
(1.09208 -0.1824 1.05444e-20)
(1.08374 -0.166883 0)
(1.07664 -0.151581 7.06652e-21)
(1.06938 -0.139998 -2.45231e-20)
(1.06423 -0.12534 2.28999e-20)
(1.05508 -0.117599 1.22e-20)
(0.0506329 -0.0249147 -9.43831e-20)
(0.395423 -0.190176 -9.21098e-20)
(0.800724 -0.347045 7.57041e-20)
(1.10695 -0.451082 0)
(1.27741 -0.497302 0)
(1.34475 -0.499891 -7.5364e-21)
(1.35304 -0.477505 0)
(1.33456 -0.444387 -1.78906e-19)
(1.30707 -0.408825 1.529e-19)
(1.27854 -0.374467 -1.67229e-19)
(1.25185 -0.342492 3.10567e-20)
(1.22776 -0.313112 0)
(1.20622 -0.28623 4.15479e-20)
(1.18701 -0.26166 -7.28166e-20)
(1.16985 -0.239206 1.60032e-20)
(1.1545 -0.218678 3.3293e-20)
(1.14073 -0.199919 -4.94714e-21)
(1.12837 -0.182723 -3.80054e-20)
(1.11718 -0.167093 0)
(1.10719 -0.152557 0)
(1.09807 -0.139637 -1.01161e-20)
(1.08944 -0.127616 8.37025e-21)
(1.08337 -0.115303 2.42261e-20)
(1.07352 -0.109624 -2.26237e-20)
(0.082404 -0.0375059 -1.06423e-19)
(0.480074 -0.197663 -9.63936e-20)
(0.908301 -0.332942 2.62884e-19)
(1.21063 -0.416349 -1.4017e-19)
(1.36597 -0.449108 1.29857e-19)
(1.41785 -0.445927 1.91543e-19)
(1.41448 -0.423315 -1.29916e-19)
(1.38814 -0.393032 -1.29902e-19)
(1.35531 -0.361545 1.41634e-20)
(1.32279 -0.331474 1.3701e-19)
(1.29278 -0.30356 0)
(1.26571 -0.277878 3.10005e-20)
(1.24144 -0.254313 0)
(1.21967 -0.232702 -3.81568e-20)
(1.20013 -0.212881 5.13169e-20)
(1.18255 -0.194703 -1.43302e-21)
(1.16672 -0.178019 -1.1994e-20)
(1.15241 -0.162728 1.78249e-20)
(1.13949 -0.148654 1.65181e-20)
(1.12774 -0.135823 -1.37083e-20)
(1.11702 -0.123855 1.01111e-20)
(1.10754 -0.113457 -8.36615e-21)
(1.0983 -0.10236 0)
(1.08842 -0.09661 -6.42533e-21)
(0.118472 -0.0473301 1.06396e-19)
(0.56875 -0.196063 1.06067e-19)
(1.01366 -0.307173 -8.85145e-20)
(1.30673 -0.370694 1.48912e-19)
(1.44465 -0.391959 -1.37958e-19)
(1.48105 -0.384938 1.00502e-19)
(1.46697 -0.363447 -5.10087e-20)
(1.43387 -0.336779 9.91698e-20)
(1.39664 -0.309779 -6.21212e-20)
(1.36087 -0.284237 8.98393e-20)
(1.32815 -0.260569 -1.97779e-19)
(1.29866 -0.238772 7.10317e-20)
(1.27214 -0.218732 -5.034e-20)
(1.24828 -0.200312 4.68601e-20)
(1.22679 -0.183377 3.45235e-20)
(1.20739 -0.167802 2.66257e-20)
(1.18985 -0.153476 -7.52892e-20)
(1.17397 -0.140286 4.43373e-20)
(1.15954 -0.128159 -1.65149e-20)
(1.14644 -0.116953 4.09423e-20)
(1.13454 -0.106736 -1.29924e-20)
(1.12348 -0.0970858 -2.90224e-20)
(1.11389 -0.08817 2.60076e-20)
(1.1038 -0.0824362 6.42353e-21)
(0.158221 -0.0534981 0)
(0.658968 -0.184286 8.6888e-22)
(1.11384 -0.269618 1.85854e-19)
(1.39289 -0.31473 -1.72097e-19)
(1.51182 -0.326855 -1.29049e-19)
(1.53328 -0.318075 2.2522e-19)
(1.5098 -0.299112 -9.7942e-20)
(1.47124 -0.27686 1.07101e-19)
(1.4306 -0.254769 -7.63337e-21)
(1.39234 -0.233976 -5.38388e-20)
(1.35751 -0.214691 9.76971e-20)
(1.32607 -0.196874 -1.41607e-19)
(1.29773 -0.180433 0)
(1.27216 -0.165266 -2.4173e-20)
(1.24906 -0.151273 -5.71111e-20)
(1.22815 -0.138363 1.88147e-20)
(1.2092 -0.126448 1.33093e-21)
(1.19199 -0.115453 -3.02573e-20)
(1.17635 -0.105296 4.30804e-21)
(1.16209 -0.0959302 3.30114e-20)
(1.14906 -0.0872831 -1.24272e-20)
(1.13726 -0.079247 -4.39761e-21)
(1.12616 -0.0718903 1.4889e-20)
(1.11587 -0.0666899 0)
(0.200851 -0.0552347 0)
(0.748194 -0.161886 5.35734e-20)
(1.20647 -0.220977 -2.54125e-19)
(1.46791 -0.249858 8.13352e-20)
(1.56739 -0.255399 -7.53553e-20)
(1.57504 -0.24675 -5.90161e-20)
(1.54361 -0.231388 -8.97874e-20)
(1.50078 -0.214068 4.93039e-20)
(1.45763 -0.197115 3.58339e-20)
(1.41756 -0.181205 0)
(1.38118 -0.166417 6.25181e-20)
(1.34832 -0.152704 -8.97234e-20)
(1.31864 -0.139998 6.35027e-20)
(1.29179 -0.128223 2.41822e-20)
(1.26748 -0.117311 -1.898e-20)
(1.24542 -0.107195 -1.35868e-20)
(1.22538 -0.0978155 -1.06499e-20)
(1.20715 -0.0891139 3.67755e-20)
(1.19052 -0.0810407 0)
(1.17535 -0.0735545 1.55569e-20)
(1.16148 -0.0665897 1.12911e-20)
(1.14872 -0.0600596 -2.95982e-20)
(1.13711 -0.0544334 -1.73964e-20)
(1.12636 -0.0493348 1.64467e-20)
(0.245318 -0.051904 -6.44047e-20)
(0.833793 -0.128883 -2.03454e-21)
(1.28923 -0.162226 5.14801e-20)
(1.53044 -0.177435 1.28374e-19)
(1.61076 -0.178946 2.81505e-20)
(1.60611 -0.172158 -6.12433e-20)
(1.56826 -0.161326 5.23394e-20)
(1.52231 -0.149361 -3.96216e-20)
(1.47747 -0.13771 6.59447e-20)
(1.43622 -0.12674 2.40475e-20)
(1.39883 -0.116475 -7.07143e-20)
(1.36503 -0.106885 1.83516e-20)
(1.33444 -0.0979316 2.93509e-20)
(1.30674 -0.0895753 -1.43123e-20)
(1.28161 -0.0817778 0)
(1.25878 -0.0745014 1.74934e-20)
(1.23801 -0.067709 2.81568e-20)
(1.21909 -0.0613656 3.45455e-21)
(1.20181 -0.0554403 -2.18675e-20)
(1.18601 -0.0499019 8.67278e-21)
(1.17152 -0.0446935 0)
(1.15823 -0.039862 -5.96646e-21)
(1.14602 -0.0356252 -4.77321e-21)
(1.1349 -0.0311858 0)
(0.290359 -0.0430995 0)
(0.91326 -0.0858501 3.19222e-20)
(1.36028 -0.0948103 5.53595e-20)
(1.57977 -0.0991279 -1.30033e-19)
(1.64196 -0.098978 4.22194e-20)
(1.6268 -0.0954486 0)
(1.58406 -0.0897828 4.70795e-20)
(1.53605 -0.0834125 -6.4233e-20)
(1.49025 -0.0771483 -3.34068e-20)
(1.44837 -0.0711639 1.36099e-20)
(1.41045 -0.0654651 -2.07881e-20)
(1.37614 -0.0600448 5.00863e-20)
(1.34506 -0.0548943 2.20737e-20)
(1.31688 -0.0500032 -1.60006e-20)
(1.2913 -0.045361 -2.46585e-21)
(1.26805 -0.040957 -3.66618e-20)
(1.24689 -0.0367796 1.61292e-20)
(1.22759 -0.0328159 8.31715e-23)
(1.20997 -0.0290551 0)
(1.19386 -0.0254753 -8.68113e-21)
(1.17908 -0.0220472 0)
(1.16551 -0.0188893 1.73713e-20)
(1.15309 -0.015976 -2.00123e-20)
(1.14164 -0.012323 8.75082e-21)
(0.334521 -0.0286689 -1.70868e-20)
(0.984222 -0.033735 -7.62178e-20)
(1.418 -0.0202865 8.35789e-20)
(1.61505 -0.0164839 4.30482e-20)
(1.66058 -0.0167785 -2.12133e-20)
(1.63674 -0.0176278 2.88997e-20)
(1.59054 -0.0175723 -1.4312e-20)
(1.54146 -0.016918 2.05577e-20)
(1.49539 -0.016034 0)
(1.45344 -0.0149999 4.04574e-20)
(1.41546 -0.0138352 -2.70272e-21)
(1.38108 -0.0125639 -2.99644e-20)
(1.34991 -0.0112099 1.19022e-20)
(1.32162 -0.0097946 -1.25523e-20)
(1.29592 -0.00833194 -4.22469e-21)
(1.27253 -0.00683222 5.18114e-21)
(1.25123 -0.00530478 -3.78869e-21)
(1.23181 -0.00375748 -1.84202e-20)
(1.21409 -0.00219418 1.12518e-20)
(1.19788 -0.000597862 2.18078e-21)
(1.18305 0.00102183 1.80936e-21)
(1.1695 0.00254317 1.49775e-21)
(1.15711 0.00427254 0)
(1.14568 0.00686152 0)
(0.376381 -0.00868412 1.71077e-20)
(1.04471 0.0263309 -1.57821e-20)
(1.46121 0.0597961 -2.72955e-20)
(1.63582 0.069029 0)
(1.66646 0.066439 -9.91802e-21)
(1.63576 0.0603184 -8.14219e-21)
(1.5874 0.0544411 -1.25166e-20)
(1.53811 0.0493003 0)
(1.49244 0.0448253 0)
(1.45099 0.0409629 0)
(1.41348 0.0376456 0)
(1.37951 0.0348157 0)
(1.34872 0.0324226 -7.69175e-21)
(1.32078 0.0304118 3.47137e-21)
(1.29536 0.0287308 5.47655e-21)
(1.27222 0.027346 2.41577e-21)
(1.25113 0.0262255 5.79098e-21)
(1.23188 0.0253399 0)
(1.2143 0.0246761 -1.23108e-21)
(1.19822 0.0242412 -1.03562e-21)
(1.18353 0.0239714 -1.81217e-21)
(1.17018 0.023787 -1.50008e-21)
(1.15799 0.0242097 0)
(1.14683 0.0254445 9.3968e-22)
(-0.00999463 0.000472601 -9.61326e-22)
(-0.024064 -0.0031615 9.36083e-22)
(-0.0208691 -0.00749192 2.0179e-21)
(0.00981224 -0.0104289 0)
(0.0630985 -0.0115113 4.13805e-21)
(0.129692 -0.0110132 -1.37742e-21)
(0.202873 -0.00939108 3.04609e-21)
(0.27675 -0.00712059 0)
(0.347261 -0.00457617 0)
(0.412248 -0.00200296 0)
(0.470911 0.000462809 0)
(0.523264 0.00275975 0)
(0.569736 0.00487305 2.54268e-23)
(0.610937 0.00680815 1.89194e-21)
(0.647493 0.00859038 -3.23202e-21)
(0.680028 0.0102275 -4.23769e-21)
(0.709012 0.0117619 -1.19774e-21)
(0.735014 0.0131951 0)
(0.758209 0.0145207 -9.33351e-22)
(0.779286 0.0158872 2.54266e-21)
(0.798008 0.0170466 1.46109e-21)
(0.815256 0.0182153 1.27666e-21)
(0.830636 0.0198612 0)
(0.844606 0.0201146 0)
(-0.0116033 0.0181285 2.79e-21)
(-0.0241239 0.00532979 -5.00875e-21)
(-0.0170743 -0.0278667 1.51948e-21)
(0.0176767 -0.0621886 4.9835e-21)
(0.0741173 -0.0882544 -7.26529e-21)
(0.142634 -0.103077 6.0382e-21)
(0.216562 -0.10774 -8.64226e-21)
(0.2903 -0.105025 -5.70482e-21)
(0.360112 -0.0978093 0)
(0.42411 -0.0883728 5.58338e-21)
(0.481689 -0.0782538 -1.74186e-22)
(0.53298 -0.0683589 -4.79602e-21)
(0.578472 -0.0591421 -6.00787e-21)
(0.618804 -0.0507755 -7.05559e-21)
(0.654588 -0.0432673 3.57307e-21)
(0.68649 -0.0365634 8.63949e-21)
(0.714852 -0.0305646 -2.30682e-21)
(0.740475 -0.0251767 8.71308e-21)
(0.763071 -0.0203631 0)
(0.784081 -0.0159056 -1.66953e-21)
(0.802131 -0.0119406 -1.45902e-21)
(0.819546 -0.00848509 -1.27484e-21)
(0.834416 -0.00433963 0)
(0.848277 -0.00279089 0)
(-0.015029 0.0346146 0)
(-0.0239081 0.0123604 -5.70468e-21)
(-0.0078432 -0.048998 2.48692e-21)
(0.0363175 -0.113638 -5.34583e-21)
(0.0999236 -0.163572 1.1093e-20)
(0.172787 -0.192693 0)
(0.248246 -0.202901 1.11298e-20)
(0.321426 -0.199327 -4.62991e-21)
(0.389386 -0.187326 9.88679e-21)
(0.450889 -0.171142 -4.2247e-21)
(0.505789 -0.15363 -2.7333e-20)
(0.554494 -0.136466 1.28163e-20)
(0.597622 -0.12049 1.89723e-20)
(0.635872 -0.106015 5.91339e-21)
(0.669828 -0.0930723 -6.21504e-22)
(0.700186 -0.081545 -2.14341e-20)
(0.727137 -0.0713042 9.71075e-21)
(0.7517 -0.0621173 -2.47517e-22)
(0.773088 -0.0540016 0)
(0.793518 -0.0465236 6.14397e-21)
(0.810388 -0.0399395 0)
(0.827556 -0.0341998 4.74199e-21)
(0.84144 -0.0277117 -1.71501e-20)
(0.854752 -0.0248801 4.71315e-22)
(-0.0198778 0.0489495 0)
(-0.022849 0.0167235 2.01552e-21)
(0.00715954 -0.0714202 -9.13647e-23)
(0.0657916 -0.1646 2.34312e-21)
(0.140241 -0.236317 -1.43195e-21)
(0.219429 -0.277947 -2.04817e-20)
(0.29684 -0.292458 7.68373e-21)
(0.368819 -0.287383 7.92302e-21)
(0.433693 -0.270478 -1.80376e-20)
(0.491226 -0.247813 2.72112e-20)
(0.541954 -0.223407 -7.68794e-21)
(0.58668 -0.199574 -7.05213e-21)
(0.626204 -0.177449 0)
(0.661283 -0.157435 -6.5288e-21)
(0.692474 -0.139568 0)
(0.720469 -0.123656 -9.2534e-21)
(0.745309 -0.109567 1.69173e-20)
(0.768183 -0.0968895 -4.86005e-21)
(0.787829 -0.0857938 -1.38914e-20)
(0.807196 -0.0754809 -6.1388e-21)
(0.822448 -0.0665688 0)
(0.839037 -0.0586168 1.36086e-20)
(0.851572 -0.0499898 -4.44978e-21)
(0.864277 -0.045895 0)
(-0.0255803 0.0602884 0)
(-0.0201056 0.0174106 -3.18319e-21)
(0.028373 -0.09574 -1.98657e-21)
(0.106034 -0.214737 1.13744e-21)
(0.194551 -0.305288 -1.0537e-21)
(0.281387 -0.356996 5.82174e-21)
(0.360695 -0.374178 -1.30442e-20)
(0.430572 -0.366813 -1.02742e-20)
(0.491072 -0.344929 2.15818e-20)
(0.543257 -0.316211 -1.45965e-20)
(0.588504 -0.285622 2.13625e-20)
(0.628074 -0.255941 -4.30461e-20)
(0.662965 -0.228484 2.3918e-20)
(0.693975 -0.203683 -9.77648e-21)
(0.721625 -0.181558 -2.78557e-20)
(0.746567 -0.16183 1.00183e-20)
(0.768715 -0.144389 7.84763e-21)
(0.789353 -0.128623 7.70088e-21)
(0.806824 -0.114939 0)
(0.824695 -0.102037 1.03806e-20)
(0.837987 -0.0911506 8.62588e-21)
(0.85369 -0.0810715 -1.32108e-20)
(0.864568 -0.0706192 -1.46796e-20)
(0.876506 -0.0653086 1.32941e-20)
(-0.0313855 0.0679877 0)
(-0.0147287 0.0135464 -2.04191e-20)
(0.0564271 -0.122403 -2.23895e-22)
(0.156995 -0.26349 1.15825e-20)
(0.2619 -0.369198 0)
(0.356967 -0.42805 0)
(0.437607 -0.446046 0)
(0.504249 -0.4356 6.73337e-21)
(0.559096 -0.408797 1.90468e-21)
(0.604729 -0.374641 -9.61026e-21)
(0.643443 -0.338776 1.88189e-20)
(0.676959 -0.304248 1.83828e-22)
(0.70645 -0.272433 0)
(0.732724 -0.243735 9.77385e-21)
(0.756253 -0.218129 -6.90995e-21)
(0.777604 -0.195262 2.10701e-20)
(0.796613 -0.175047 -2.55941e-20)
(0.814553 -0.156687 -4.52919e-21)
(0.829518 -0.140849 9.6664e-22)
(0.845512 -0.125722 1.88483e-20)
(0.856574 -0.113207 7.44674e-21)
(0.871177 -0.101261 -2.46651e-20)
(0.880119 -0.0892847 1.56949e-20)
(0.89129 -0.0828848 0)
(-0.0365776 0.0716523 2.02879e-20)
(-0.00566654 0.00459087 1.20884e-20)
(0.0920636 -0.151349 -1.65194e-20)
(0.218521 -0.310153 -1.82102e-20)
(0.341037 -0.426767 1.68693e-20)
(0.444062 -0.489522 -5.34779e-21)
(0.52496 -0.506439 8.24101e-21)
(0.587062 -0.492255 7.29108e-21)
(0.635056 -0.460782 -2.76536e-21)
(0.673165 -0.421985 0)
(0.70459 -0.381888 -5.36913e-21)
(0.73146 -0.343613 9.44902e-21)
(0.755061 -0.308483 -1.36311e-20)
(0.776171 -0.276831 1.26882e-20)
(0.795203 -0.248571 0)
(0.812592 -0.223294 -1.10262e-20)
(0.828172 -0.20092 -1.85588e-20)
(0.84304 -0.180528 1.86923e-20)
(0.855292 -0.162976 7.18019e-21)
(0.869046 -0.146091 8.17219e-21)
(0.877674 -0.132201 -2.11565e-20)
(0.890956 -0.118878 -5.1699e-21)
(0.897819 -0.105557 5.0919e-21)
(0.908103 -0.0983302 -4.27789e-21)
(-0.0404615 0.0712483 -2.02928e-20)
(0.00816816 -0.00943969 7.02464e-20)
(0.135927 -0.182141 -2.41346e-20)
(0.290204 -0.353838 3.01691e-20)
(0.430431 -0.47677 -2.79475e-20)
(0.540305 -0.540129 7.8835e-21)
(0.619959 -0.554235 1.01591e-20)
(0.676147 -0.535912 1.45426e-20)
(0.716258 -0.500263 -5.86186e-21)
(0.746153 -0.457794 1.00568e-21)
(0.769845 -0.414607 0)
(0.789763 -0.373715 2.13103e-21)
(0.807237 -0.336309 -6.64301e-21)
(0.822966 -0.302627 -7.96622e-21)
(0.837301 -0.272512 4.76198e-21)
(0.850502 -0.245551 1.93097e-21)
(0.862511 -0.221601 4.29383e-21)
(0.874002 -0.199802 -5.09529e-21)
(0.883566 -0.180899 -7.18252e-21)
(0.89463 -0.16291 6.52015e-21)
(0.900879 -0.147679 -4.17617e-21)
(0.912462 -0.133799 3.84048e-21)
(0.917136 -0.119012 0)
(0.926209 -0.111312 4.28174e-21)
(-0.042315 0.0668399 3.22547e-20)
(0.0278045 -0.0281238 -2.63168e-20)
(0.188576 -0.214029 3.06679e-20)
(0.371463 -0.393484 0)
(0.528344 -0.518065 0)
(0.643186 -0.578906 3.42894e-20)
(0.719787 -0.588781 -2.2396e-20)
(0.768741 -0.566238 1.24006e-20)
(0.800185 -0.527154 -4.42696e-20)
(0.821496 -0.482132 2.80691e-21)
(0.837327 -0.437063 4.60739e-21)
(0.850269 -0.3947 0)
(0.861615 -0.356042 1.53106e-21)
(0.871947 -0.321227 -4.06874e-21)
(0.881538 -0.290026 5.11978e-21)
(0.890467 -0.262083 9.96685e-21)
(0.898844 -0.237088 7.4115e-22)
(0.906724 -0.214565 -4.00842e-21)
(0.913793 -0.194514 0)
(0.921567 -0.176364 0)
(0.926093 -0.1595 4.17876e-21)
(0.935289 -0.14641 -3.84288e-21)
(0.93803 -0.129757 1.14317e-20)
(0.945213 -0.122149 -1.06644e-20)
(-0.0412856 0.0589041 0)
(0.0543612 -0.0505992 0)
(0.250321 -0.245915 -9.72748e-20)
(0.461442 -0.427832 3.87517e-20)
(0.632808 -0.549561 7.19831e-21)
(0.7501 -0.605148 5.1756e-20)
(0.821686 -0.60979 0)
(0.862239 -0.583257 -2.41863e-20)
(0.884513 -0.541644 1.126e-20)
(0.897163 -0.495231 -2.32639e-20)
(0.905261 -0.449457 2.49306e-21)
(0.911417 -0.406708 7.96463e-21)
(0.916811 -0.36776 -2.37447e-21)
(0.921894 -0.332653 1.20372e-21)
(0.926828 -0.301105 -3.21815e-21)
(0.93157 -0.272832 0)
(0.936287 -0.24733 -6.00843e-22)
(0.940539 -0.224689 2.66849e-21)
(0.945127 -0.20369 3.75534e-22)
(0.949024 -0.18627 0)
(0.952705 -0.16753 -3.97089e-22)
(0.958104 -0.156297 -5.97181e-21)
(0.960235 -0.138081 5.57655e-21)
(0.964951 -0.130267 6.16817e-21)
(-0.0369117 0.0481253 1.44166e-19)
(0.0886476 -0.0757536 -1.85948e-19)
(0.32127 -0.27629 3.54416e-21)
(0.558953 -0.45542 4.24425e-20)
(0.741583 -0.570211 -6.65095e-20)
(0.858335 -0.618365 -4.28948e-20)
(0.922967 -0.617253 6.73383e-20)
(0.954237 -0.587253 -1.92025e-20)
(0.967173 -0.544119 -4.71643e-20)
(0.971363 -0.497444 5.9858e-20)
(0.972056 -0.452031 -9.94343e-21)
(0.971749 -0.409844 -1.97337e-20)
(0.971454 -0.371438 0)
(0.97149 -0.336757 0)
(0.971901 -0.305506 -2.27111e-21)
(0.972608 -0.277408 -7.25348e-21)
(0.973636 -0.251951 -6.44308e-21)
(0.974556 -0.229427 6.00701e-21)
(0.976275 -0.208042 -3.75982e-22)
(0.976524 -0.191209 1.70169e-21)
(0.97925 -0.171345 -3.98297e-22)
(0.978961 -0.161013 -4.69925e-22)
(0.981963 -0.142905 -8.90119e-22)
(0.982441 -0.132319 -8.23884e-22)
(-0.0287397 0.0351633 5.43479e-20)
(0.131353 -0.10219 0)
(0.401282 -0.303378 9.69476e-20)
(0.662523 -0.474688 -8.97526e-20)
(0.852275 -0.579049 6.65959e-20)
(0.965173 -0.618248 0)
(1.02101 -0.611351 0)
(1.04242 -0.578663 -3.33552e-20)
(1.0462 -0.535086 1.01149e-20)
(1.04243 -0.48924 2.82924e-20)
(1.03629 -0.445174 -1.6114e-20)
(1.03003 -0.404413 2.81019e-20)
(1.02447 -0.367305 0)
(1.01979 -0.333718 2.84553e-20)
(1.01592 -0.303367 -4.86634e-20)
(1.01278 -0.275936 2.79129e-20)
(1.01021 -0.251092 1.33922e-20)
(1.00812 -0.228756 -1.24858e-20)
(1.00661 -0.207967 0)
(1.00453 -0.190586 0)
(1.00508 -0.171596 0)
(1.00029 -0.159733 0)
(1.00393 -0.142763 6.39261e-22)
(0.997865 -0.129533 -3.08922e-21)
(0.859819 0.0228039 5.95298e-22)
(0.874289 0.0245597 -6.00206e-22)
(0.886731 0.0238286 1.60984e-23)
(0.898389 0.0237963 0)
(0.9087 0.0248512 3.96514e-22)
(0.917494 0.0257777 -7.43792e-22)
(0.925282 0.026445 2.24189e-23)
(0.932311 0.0271086 3.16537e-22)
(0.938598 0.0277735 0)
(0.944214 0.0284016 0)
(0.94926 0.0290145 1.47514e-23)
(0.953808 0.0296314 1.36279e-23)
(0.957915 0.0302545 2.10458e-22)
(0.961633 0.0308843 -1.92121e-22)
(0.965003 0.0315243 0)
(0.968062 0.0321797 0)
(0.970842 0.0328557 -1.51846e-22)
(0.973372 0.0335554 4.30926e-24)
(0.975678 0.0342805 1.3048e-22)
(0.977781 0.0350339 8.11713e-24)
(0.979699 0.0358184 0)
(0.98145 0.036637 0)
(0.983051 0.0374943 0)
(0.984517 0.0383946 0)
(0.985859 0.0393416 0)
(0.98709 0.0403385 0)
(0.988219 0.0413884 -3.46849e-23)
(0.989257 0.042495 5.62325e-23)
(0.990212 0.0436641 0)
(0.991089 0.0449015 0)
(0.991896 0.0462141 3.93951e-23)
(0.992639 0.0476075 -3.82794e-23)
(0.993323 0.0490873 -1.82948e-23)
(0.993954 0.0506596 0)
(0.994536 0.0523308 0)
(0.995074 0.0541082 -3.21878e-23)
(0.995572 0.056 3.1284e-23)
(0.996035 0.0580156 0)
(0.996468 0.0601656 -2.82736e-23)
(0.996873 0.0624621 4.10984e-23)
(0.997251 0.0649171 -1.2994e-23)
(0.997605 0.0675429 0)
(0.997937 0.0703522 2.33346e-23)
(0.998246 0.0733579 -2.26894e-23)
(0.998537 0.0765741 0)
(0.99881 0.0800162 0)
(0.999068 0.0837 9.27754e-24)
(0.999312 0.0876425 -2.66759e-23)
(0.999543 0.0918613 0)
(0.999764 0.0963747 0)
(0.999974 0.101201 6.81325e-24)
(1.00018 0.10636 -4.7211e-26)
(1.00037 0.111871 5.04416e-25)
(1.00055 0.117751 -4.75771e-24)
(1.00072 0.124018 0)
(1.00089 0.13069 0)
(1.00104 0.137754 0)
(1.00118 0.145389 0)
(1.0013 0.152417 0)
(1.00136 0.164401 0)
(0.863586 0.00291139 5.93039e-23)
(0.87591 0.0073877 2.21892e-21)
(0.887205 0.00945148 -1.84047e-22)
(0.899419 0.0120507 -1.90093e-21)
(0.909834 0.0149506 -2.54399e-23)
(0.918269 0.0171628 0)
(0.92591 0.0189831 1.28739e-21)
(0.932926 0.0206717 -2.46286e-21)
(0.939172 0.0221878 1.17527e-21)
(0.944745 0.0235192 -1.00258e-21)
(0.949772 0.0247179 9.58827e-22)
(0.954312 0.0258238 -8.42047e-22)
(0.958409 0.0268698 8.18304e-22)
(0.962115 0.0278806 2.35601e-23)
(0.965478 0.028866 6.92044e-22)
(0.968535 0.0298281 -6.72095e-22)
(0.971318 0.0307717 6.10198e-22)
(0.973853 0.0317046 -5.74404e-22)
(0.976165 0.0326353 5.52556e-22)
(0.978274 0.0335722 -1.05195e-21)
(0.9802 0.0345209 5.00685e-22)
(0.981961 0.035487 2.94096e-23)
(0.983574 0.0364782 4.44264e-22)
(0.985052 0.0375011 -8.5579e-22)
(0.986407 0.038561 4.12111e-22)
(0.98765 0.039663 -2.44569e-23)
(0.988792 0.0408117 -3.84074e-22)
(0.989843 0.0420102 -6.68147e-24)
(0.990812 0.0432604 6.89911e-22)
(0.991707 0.0445657 -6.62371e-22)
(0.992533 0.0459345 3.19896e-22)
(0.993295 0.0473748 -3.82186e-23)
(0.993999 0.0488959 1.83334e-23)
(0.994651 0.0505058 -3.52594e-23)
(0.995254 0.0522113 0)
(0.995814 0.0540192 0)
(0.996336 0.0559381 1.23599e-22)
(0.996825 0.057977 -9.03101e-23)
(0.997284 0.0601477 -8.45983e-23)
(0.997718 0.0624627 -1.16867e-23)
(0.998126 0.0649342 1.18005e-22)
(0.998512 0.0675747 -2.47534e-23)
(0.998876 0.070397 0)
(0.99922 0.0734141 0)
(0.999545 0.07664 0)
(0.999855 0.0800901 0)
(1.00015 0.0837803 -3.75285e-23)
(1.00043 0.0877277 1.76706e-23)
(1.0007 0.0919499 0)
(1.00096 0.096465 0)
(1.00122 0.101292 0)
(1.00146 0.106449 1.16536e-23)
(1.00169 0.111956 -1.07922e-24)
(1.00192 0.117831 1.01085e-23)
(1.00213 0.124091 0)
(1.00233 0.130753 0)
(1.00252 0.137806 -4.97952e-24)
(1.00269 0.145428 -1.15217e-23)
(1.00284 0.152441 0)
(1.0029 0.16441 0)
(0.869599 -0.0162089 3.45344e-22)
(0.880055 -0.00906411 4.71866e-21)
(0.890394 -0.00438845 -4.00529e-21)
(0.902482 0.000366811 3.74308e-21)
(0.912185 0.00475357 2.56241e-23)
(0.919838 0.00839423 0)
(0.927165 0.0115493 2.63466e-21)
(0.934027 0.0142812 -2.57587e-21)
(0.940103 0.0166163 -1.75842e-23)
(0.945522 0.0186617 -3.20036e-23)
(0.950435 0.0205158 -2.95145e-23)
(0.954906 0.0221925 -2.74834e-23)
(0.958977 0.0236978 1.59561e-21)
(0.962678 0.0250625 -1.57318e-21)
(0.966034 0.0263366 0)
(0.969078 0.027558 -4.13642e-23)
(0.971847 0.0287414 1.22737e-21)
(0.974374 0.0298892 -1.21029e-21)
(0.976683 0.0310072 0)
(0.978794 0.0321086 0)
(0.980724 0.0332016 1.01684e-21)
(0.982491 0.0342949 -1.95474e-21)
(0.984113 0.0353994 1.80575e-21)
(0.985603 0.0365238 -4.14981e-23)
(0.986971 0.0376757 -1.62087e-21)
(0.988228 0.0388627 1.60017e-21)
(0.989385 0.0400927 -1.4622e-21)
(0.990449 0.0413717 5.42665e-23)
(0.991429 0.0427025 6.98573e-22)
(0.992333 0.0440904 0)
(0.993172 0.0455348 0)
(0.993951 0.0470377 -2.28946e-22)
(0.994674 0.0486074 2.97127e-22)
(0.995346 0.0502549 -6.41524e-26)
(0.995971 0.0519927 -2.70533e-22)
(0.996553 0.0538305 2.62871e-22)
(0.997099 0.0557774 0)
(0.997612 0.0578415 -2.99447e-23)
(0.998098 0.0600349 -2.55782e-22)
(0.99856 0.0623709 4.92214e-22)
(0.998999 0.0648618 -2.10651e-22)
(0.999416 0.0675206 -2.48165e-23)
(0.999812 0.07036 2.33696e-22)
(1.00019 0.073393 -1.81304e-22)
(1.00055 0.0766338 -4.23304e-23)
(1.0009 0.0800976 -3.99224e-23)
(1.00123 0.0838006 3.76287e-23)
(1.00155 0.0877596 0)
(1.00186 0.0919922 0)
(1.00216 0.0965165 1.19216e-22)
(1.00245 0.101351 -5.72105e-23)
(1.00274 0.106514 5.02725e-23)
(1.00301 0.112026 -6.77343e-23)
(1.00328 0.117902 -7.71731e-23)
(1.00353 0.124161 1.83194e-23)
(1.00378 0.130819 -2.83656e-23)
(1.004 0.137864 2.23642e-23)
(1.0042 0.145474 -9.298e-24)
(1.00437 0.152474 0)
(1.00443 0.164423 0)
(0.878545 -0.0341698 9.25978e-21)
(0.886577 -0.024478 -5.81293e-22)
(0.894935 -0.0175781 -8.20343e-21)
(0.906242 -0.0109496 5.68069e-23)
(0.915486 -0.0053397 0)
(0.922635 -0.000669399 0)
(0.929343 0.00369944 5.2375e-21)
(0.935695 0.00765954 -2.54631e-22)
(0.941466 0.0109153 -6.82997e-21)
(0.946728 0.0136822 1.41017e-22)
(0.951525 0.0161024 1.98055e-21)
(0.955846 0.0182607 1.66714e-21)
(0.959753 0.0202542 -1.67181e-21)
(0.963334 0.0220952 0)
(0.966635 0.0237628 1.39992e-21)
(0.969665 0.0252768 -1.27594e-21)
(0.972425 0.0266937 0)
(0.974936 0.028051 0)
(0.977231 0.0293614 -1.10393e-21)
(0.979334 0.0306343 2.52706e-23)
(0.98126 0.0318743 9.84994e-22)
(0.983028 0.033093 9.76582e-22)
(0.984654 0.0343058 -9.76212e-22)
(0.986152 0.0355234 8.89244e-22)
(0.98753 0.036755 -3.87319e-23)
(0.988801 0.0380105 -8.00653e-22)
(0.989973 0.0392992 -9.51448e-23)
(0.991055 0.040631 1.73857e-27)
(0.992054 0.0420158 0)
(0.992976 0.0434629 -6.69011e-22)
(0.993826 0.0449733 6.90198e-22)
(0.994614 0.0465519 -3.87776e-23)
(0.995349 0.0481979 0)
(0.996037 0.0499082 3.57629e-23)
(0.996682 0.0516906 -5.46251e-22)
(0.997287 0.0535592 9.88268e-22)
(0.997855 0.0555317 5.58766e-23)
(0.998392 0.0576199 -7.65289e-24)
(0.998905 0.0598361 -4.07981e-22)
(0.999395 0.0621932 -5.50638e-23)
(0.999864 0.0647036 4.15664e-22)
(1.00031 0.0673809 -3.5397e-22)
(1.00074 0.070238 2.76551e-26)
(1.00115 0.073288 -1.77458e-22)
(1.00155 0.076545 2.15002e-22)
(1.00193 0.0800245 2.77892e-22)
(1.0023 0.0837427 -7.79438e-23)
(1.00266 0.0877165 -1.3775e-22)
(1.00301 0.0919635 2.61603e-22)
(1.00335 0.0965017 -1.84728e-22)
(1.00369 0.101349 5.18003e-23)
(1.00401 0.106525 -5.80093e-23)
(1.00433 0.112047 -4.87717e-23)
(1.00464 0.117933 1.16454e-22)
(1.00493 0.124199 -2.13126e-24)
(1.00521 0.13086 2.80984e-23)
(1.00547 0.137905 0)
(1.0057 0.14551 9.62051e-24)
(1.0059 0.152503 -1.28224e-23)
(1.00596 0.164436 0)
(0.889929 -0.0507396 -8.6377e-21)
(0.895611 -0.0390307 1.64705e-20)
(0.901806 -0.0300858 -7.75204e-21)
(0.911545 -0.0216114 -6.6981e-21)
(0.91934 -0.0148627 1.26623e-20)
(0.925772 -0.00924257 -3.65999e-22)
(0.932319 -0.00392386 -5.48991e-21)
(0.938197 0.000848451 -4.71837e-21)
(0.943314 0.00508814 4.61601e-21)
(0.948114 0.0086894 0)
(0.95262 0.0117936 3.72356e-21)
(0.956841 0.0144838 -7.06889e-21)
(0.960739 0.016831 3.35385e-21)
(0.964248 0.0189624 0)
(0.967411 0.0209872 0)
(0.970325 0.0228823 -4.2178e-23)
(0.973033 0.0246089 2.49709e-21)
(0.975526 0.0261886 -2.42431e-21)
(0.977809 0.0276793 0)
(0.979897 0.0291223 -2.18344e-21)
(0.981809 0.0305175 4.06695e-21)
(0.98357 0.0318709 -3.86891e-21)
(0.985196 0.0331991 3.74426e-21)
(0.986696 0.0345148 -2.89961e-23)
(0.988081 0.0358297 -3.41491e-21)
(0.989361 0.0371555 1.67023e-21)
(0.990546 0.0385025 4.8152e-23)
(0.991643 0.0398817 6.88112e-22)
(0.99266 0.0413039 -8.20654e-24)
(0.993603 0.0427793 -6.84364e-22)
(0.994477 0.0443204 -4.08442e-23)
(0.995288 0.0459402 6.24612e-22)
(0.996038 0.047641 -1.20664e-21)
(0.996735 0.0494241 6.55202e-22)
(0.997389 0.0512863 0)
(0.99801 0.0532171 5.96731e-22)
(0.998601 0.0552275 -5.78657e-22)
(0.999163 0.0573394 4.23807e-22)
(0.999702 0.0595771 -5.29409e-22)
(1.00022 0.0619556 5.57631e-23)
(1.00072 0.0644859 0)
(1.0012 0.0671817 5.04824e-23)
(1.00166 0.0700566 -1.43648e-22)
(1.00211 0.0731236 0)
(1.00254 0.0763972 -4.23186e-22)
(1.00296 0.0798929 1.6643e-22)
(1.00336 0.0836273 -7.5701e-23)
(1.00376 0.0876172 -7.07659e-23)
(1.00415 0.0918803 0)
(1.00454 0.0964348 0)
(1.00491 0.101299 1.62839e-22)
(1.00528 0.106491 -2.51082e-22)
(1.00564 0.112029 1.38758e-22)
(1.00599 0.117929 -4.40743e-23)
(1.00632 0.124208 -7.22578e-23)
(1.00664 0.130879 -2.81287e-23)
(1.00694 0.137929 4.39989e-23)
(1.0072 0.145536 0)
(1.00742 0.152528 2.07249e-23)
(1.00748 0.164448 4.51949e-24)
(0.903544 -0.0656799 -7.81241e-21)
(0.906704 -0.0523555 7.72956e-21)
(0.910343 -0.0418785 -5.83636e-23)
(0.917999 -0.0321699 4.92778e-23)
(0.924341 -0.0244354 -4.87304e-23)
(0.929783 -0.0176166 4.4992e-23)
(0.935484 -0.0113054 -7.92495e-23)
(0.941015 -0.00585743 0)
(0.94588 -0.00107382 6.81106e-23)
(0.950199 0.00335632 -6.33413e-23)
(0.954287 0.00724364 -5.89712e-23)
(0.958069 0.0105857 5.58378e-23)
(0.961639 0.013512 0)
(0.965081 0.0160458 0)
(0.968289 0.0182673 -4.48965e-23)
(0.971157 0.0203464 0)
(0.973745 0.0223679 3.97557e-23)
(0.976146 0.0242581 0)
(0.978396 0.0259793 2.19025e-21)
(0.980475 0.0275872 -4.27343e-21)
(0.982373 0.0291226 4.05969e-21)
(0.984119 0.0306093 -1.9808e-21)
(0.985737 0.0320601 -1.85374e-21)
(0.987235 0.0334829 1.79936e-21)
(0.988622 0.0348896 1.74657e-21)
(0.989908 0.0362929 -1.69461e-21)
(0.991102 0.0377052 0)
(0.992212 0.039138 -4.67975e-23)
(0.993244 0.0406024 0)
(0.994205 0.0421096 0)
(0.995101 0.0436726 -1.23588e-21)
(0.995937 0.0453025 1.2801e-21)
(0.996715 0.0470136 -7.64312e-23)
(0.99744 0.0488234 -7.34167e-23)
(0.998111 0.0507342 7.05077e-23)
(0.998738 0.0527447 5.37882e-22)
(0.999338 0.0548365 -5.22184e-22)
(0.99992 0.0569993 5.54168e-22)
(1.00049 0.059263 -4.77879e-22)
(1.00103 0.0616619 -1.12918e-22)
(1.00156 0.0642124 4.25273e-22)
(1.00207 0.0669275 4.21502e-23)
(1.00257 0.0698207 -2.95294e-22)
(1.00305 0.0729052 0)
(1.00352 0.076196 1.73164e-22)
(1.00397 0.0797087 -2.38945e-22)
(1.00442 0.08346 3.11049e-22)
(1.00485 0.0874673 7.12406e-23)
(1.00529 0.0917482 0)
(1.00571 0.096321 -5.74023e-23)
(1.00613 0.101204 1.15079e-22)
(1.00654 0.106415 -5.05587e-26)
(1.00694 0.111972 4.51191e-23)
(1.00733 0.117892 -7.44155e-23)
(1.00771 0.124189 7.22758e-23)
(1.00807 0.130876 0)
(1.0084 0.137938 -4.4025e-23)
(1.00869 0.145552 0)
(1.00894 0.152549 0)
(1.00901 0.16446 -6.05035e-24)
(0.919131 -0.0789412 6.77966e-21)
(0.919909 -0.0642274 -6.6598e-21)
(0.92067 -0.0526033 4.68039e-23)
(0.925649 -0.0421619 -5.05237e-23)