/*--------------------------------*- C++ -*----------------------------------*\
| =========                 |                                                 |
| \\      /  F ield         | OpenFOAM: The Open Source CFD Toolbox           |
|  \\    /   O peration     | Version:  2312                                  |
|   \\  /    A nd           | Website:  www.openfoam.com                      |
|    \\/     M anipulation  |                                                 |
\*---------------------------------------------------------------------------*/
FoamFile
{
    version     2.0;
    format      ascii;
    arch        "LSB;label=32;scalar=64";
    class       volVectorField;
    location    "60";
    object      U;
}
// * * * * * * * * * * * * * * * * * * * * * * * * * * * * * * * * * * * * * //

dimensions      [0 1 -1 0 0 0 0];

internalField   nonuniform List<vector> 
13248
(
(-0.0145171 0.00927369 3.46736e-20)
(-0.0373568 0.0192864 0)
(-0.0543462 0.0225584 -6.03739e-20)
(-0.0608858 0.0236359 5.59058e-20)
(-0.0538842 0.024278 5.12302e-20)
(-0.0305498 0.0251768 0)
(0.0118641 0.0268132 0)
(0.0755895 0.0296072 1.14325e-19)
(0.161673 0.0340818 -1.78465e-21)
(0.269281 0.0407907 -9.53414e-20)
(0.395132 0.0498968 8.50531e-20)
(0.533767 0.0611403 -5.23598e-20)
(0.678157 0.0738093 0)
(0.820631 0.0867978 -8.62062e-20)
(0.953795 0.0987638 1.59782e-19)
(1.0713 0.108365 -3.746e-20)
(1.16851 0.11439 -6.81157e-20)
(1.24257 0.115978 6.3502e-20)
(1.29329 0.113343 0)
(1.32244 0.104573 0)
(1.33306 0.0966056 0)
(1.33374 0.0751707 0)
(1.32304 0.072165 1.96589e-20)
(1.31617 0.0316735 7.29312e-20)
(-0.0203078 0.0133479 -1.04251e-19)
(-0.0448568 0.0257869 6.60501e-20)
(-0.0558223 0.0287803 -3.22733e-22)
(-0.0500892 0.0281951 -8.45283e-20)
(-0.0247278 0.0269322 -5.11579e-20)
(0.0232854 0.0265726 -4.73141e-20)
(0.0965399 0.0282161 -8.46996e-20)
(0.195965 0.0327064 7.92538e-20)
(0.319552 0.0406446 0)
(0.46193 0.0520691 7.40305e-22)
(0.614774 0.0663675 1.92782e-21)
(0.768202 0.0823143 5.3242e-20)
(0.912445 0.0982705 0)
(1.03926 0.112458 0)
(1.1429 0.12336 5.8953e-20)
(1.22063 0.129791 -1.09841e-19)
(1.27269 0.131447 6.56269e-20)
(1.30227 0.128326 -6.11864e-20)
(1.31436 0.121256 -2.68632e-20)
(1.31524 0.111566 -4.96458e-20)
(1.31073 0.0992287 -2.06926e-20)
(1.30524 0.0867069 -3.91685e-20)
(1.29894 0.0743251 5.61847e-20)
(1.29792 0.056704 1.59161e-20)
(-0.0245399 0.0154384 0)
(-0.0477365 0.0290224 0)
(-0.0484598 0.0323226 3.03874e-20)
(-0.0248558 0.031601 2.76833e-20)
(0.0257177 0.0305466 -6.22244e-22)
(0.105827 0.0315279 -4.86608e-20)
(0.216266 0.0361818 0)
(0.354035 0.0454247 -3.91661e-20)
(0.511347 0.0592426 3.61142e-20)
(0.676606 0.0765742 4.65787e-22)
(0.836825 0.0955161 -5.86138e-20)
(0.980311 0.11377 -5.23075e-20)
(1.09864 0.129161 1.42622e-21)
(1.18764 0.140105 -4.13611e-20)
(1.2475 0.14583 9.91563e-20)
(1.28201 0.146443 0)
(1.2975 0.142859 -6.29448e-20)
(1.30099 0.13585 3.0471e-20)
(1.29882 0.127661 2.68366e-20)
(1.29524 0.116709 0)
(1.29167 0.108322 2.19981e-20)
(1.2884 0.0945296 -7.43683e-20)
(1.28333 0.0885208 6.94495e-20)
(1.27828 0.0721779 4.32993e-20)
(-0.0267291 0.0154257 -3.61967e-20)
(-0.0447335 0.0282212 -3.46135e-20)
(-0.0305988 0.0317289 3.11482e-20)
(0.016643 0.0320298 0)
(0.0990053 0.033393 0)
(0.217085 0.0387688 -7.98726e-22)
(0.366978 0.0498247 0)
(0.538379 0.0666229 -1.19609e-19)
(0.7159 0.0875472 1.09176e-19)
(0.883002 0.109815 -1.32095e-19)
(1.02611 0.130352 2.94355e-20)
(1.13718 0.146633 0)
(1.21437 0.157233 4.67193e-20)
(1.26118 0.161953 -8.53476e-20)
(1.28464 0.161591 2.01364e-20)
(1.29302 0.157559 5.03967e-20)
(1.29355 0.151068 -2.39372e-21)
(1.29116 0.143547 -5.48926e-20)
(1.28799 0.134858 0)
(1.28435 0.126324 0)
(1.27966 0.116981 -1.90885e-20)
(1.27399 0.1068 1.69721e-20)
(1.26663 0.099807 6.09903e-20)
(1.26095 0.0849504 -5.6931e-20)
(-0.0267218 0.0137291 -3.78162e-20)
(-0.0347865 0.0239496 -3.51077e-20)
(-0.000198349 0.0276121 9.70111e-20)
(0.0771651 0.030443 -5.84084e-20)
(0.197498 0.0371055 5.41073e-20)
(0.35631 0.0505146 9.73918e-20)
(0.540864 0.0710866 -6.77186e-20)
(0.731426 0.0965751 -8.063e-20)
(0.907152 0.123058 2.23137e-21)
(1.05226 0.146506 9.98961e-20)
(1.15922 0.164062 0)
(1.22874 0.174613 2.61217e-20)
(1.26747 0.178658 0)
(1.28478 0.177684 -4.08311e-20)
(1.28964 0.173463 5.68637e-20)
(1.28857 0.167343 5.93615e-22)
(1.28517 0.160341 -1.44205e-20)
(1.28071 0.152548 2.68827e-20)
(1.27549 0.144614 2.27332e-20)
(1.26964 0.135852 -2.01597e-20)
(1.2635 0.127474 1.90801e-20)
(1.25754 0.11794 -1.69645e-20)
(1.25143 0.110772 0)
(1.24689 0.0986951 -1.22706e-20)
(-0.0242736 0.010989 3.78068e-20)
(-0.016475 0.0177094 3.66698e-20)
(0.0454009 0.0223415 -3.25064e-20)
(0.159785 0.0302178 5.97518e-20)
(0.322033 0.0458268 -5.53486e-20)
(0.517733 0.0705049 4.9563e-20)
(0.722477 0.101473 -2.34146e-20)
(0.909941 0.133357 6.0585e-20)
(1.06112 0.160846 -3.74997e-20)
(1.16855 0.18063 6.43862e-20)
(1.23513 0.191936 -1.46061e-19)
(1.27013 0.19597 5.27257e-20)
(1.28452 0.194844 -4.48193e-20)
(1.28752 0.190606 4.17233e-20)
(1.28511 0.184665 3.51104e-20)
(1.2804 0.177858 3.02202e-20)
(1.27472 0.170421 -8.3376e-20)
(1.26871 0.162716 5.13126e-20)
(1.26275 0.154557 -2.27299e-20)
(1.25701 0.146432 5.82139e-20)
(1.25141 0.138116 -1.88287e-20)
(1.24573 0.129541 -4.42432e-20)
(1.2396 0.122467 4.04891e-20)
(1.23386 0.111602 1.22663e-20)
(-0.0188323 0.00776586 0)
(0.0120147 0.0112956 3.673e-22)
(0.108766 0.0190614 6.78976e-20)
(0.265704 0.035586 -6.24828e-20)
(0.468176 0.0636257 -5.58562e-20)
(0.687711 0.100476 1.02311e-19)
(0.891007 0.13906 -4.68726e-20)
(1.05382 0.17221 6.12314e-20)
(1.1673 0.195752 -1.63929e-21)
(1.23577 0.209071 -3.35116e-20)
(1.27057 0.213998 7.10082e-20)
(1.28404 0.213217 -1.03188e-19)
(1.28588 0.209093 0)
(1.28223 0.203182 -1.94073e-20)
(1.27634 0.196355 -5.08619e-20)
(1.26977 0.188986 1.58902e-20)
(1.26324 0.18136 7.25525e-22)
(1.25695 0.173478 -3.32502e-20)
(1.25081 0.16556 2.45351e-21)
(1.24467 0.157493 3.78663e-20)
(1.23841 0.149385 -1.66918e-20)
(1.2322 0.141326 -5.92557e-21)
(1.22599 0.133737 1.86612e-20)
(1.22071 0.124185 0)
(-0.00955613 0.00454315 0)
(0.0524627 0.00652252 1.86465e-20)
(0.191103 0.0209232 -8.83959e-20)
(0.391966 0.0500931 3.17825e-20)
(0.624734 0.0921678 -2.94384e-20)
(0.848133 0.138564 -2.65729e-20)
(1.02942 0.179398 -4.59956e-20)
(1.15569 0.208777 2.2865e-20)
(1.23124 0.225768 1.94448e-20)
(1.26909 0.232658 0)
(1.28325 0.232746 4.19328e-20)
(1.28461 0.228874 -6.11464e-20)
(1.28003 0.222927 4.49959e-20)
(1.27324 0.215963 1.94159e-20)
(1.26595 0.208496 -1.54165e-20)
(1.2588 0.200791 -1.24891e-20)
(1.2519 0.19291 -1.15519e-20)
(1.24519 0.184956 3.47665e-20)
(1.23863 0.17689 0)
(1.23229 0.16882 1.66567e-20)
(1.22624 0.160771 1.35244e-20)
(1.22042 0.152868 -3.39492e-20)
(1.21472 0.145115 -2.2519e-20)
(1.20927 0.136807 2.05564e-20)
(0.00444633 0.00185603 -2.19452e-20)
(0.105983 0.00527152 -9.8548e-22)
(0.291072 0.0307119 1.80731e-20)
(0.530637 0.0755211 5.00819e-20)
(0.776775 0.130082 1.43493e-20)
(0.984284 0.180853 -2.71641e-20)
(1.13159 0.218743 2.44124e-20)
(1.22053 0.241581 -2.092e-20)
(1.26527 0.251821 3.66495e-20)
(1.28205 0.253474 1.51503e-20)
(1.28375 0.250113 -4.26174e-20)
(1.2786 0.244164 1.22977e-20)
(1.27098 0.237004 2.04754e-20)
(1.26284 0.229295 -1.00454e-20)
(1.25487 0.221329 0)
(1.24722 0.213208 1.43147e-20)
(1.23994 0.205013 2.35488e-20)
(1.23301 0.196765 3.66647e-21)
(1.22642 0.188547 -1.91154e-20)
(1.22011 0.18038 7.71248e-21)
(1.214 0.172313 0)
(1.20806 0.164434 -5.77009e-21)
(1.20227 0.156497 -5.46293e-21)
(1.19683 0.148917 0)
(0.0238295 0.000419604 0)
(0.172388 0.00956636 1.07089e-20)
(0.404152 0.0504879 1.96077e-20)
(0.670428 0.111505 -5.13999e-20)
(0.911371 0.174245 1.64429e-20)
(1.08987 0.224006 0)
(1.20066 0.255675 2.33824e-20)
(1.25769 0.271256 -3.21683e-20)
(1.27993 0.275532 -1.8279e-20)
(1.2832 0.273115 8.09691e-21)
(1.27783 0.267255 -1.25382e-20)
(1.26935 0.259812 3.02795e-20)
(1.26021 0.251683 1.47185e-20)
(1.2513 0.243253 -1.03136e-20)
(1.24288 0.234681 -1.11995e-21)
(1.23499 0.226061 -2.65452e-20)
(1.22757 0.217438 1.19159e-20)
(1.22056 0.20887 -3.56033e-22)
(1.21389 0.200373 0)
(1.20757 0.191992 -7.72015e-21)
(1.20162 0.183784 0)
(1.196 0.175735 1.63705e-20)
(1.19063 0.167723 -1.89826e-20)
(1.18533 0.160778 8.48349e-21)
(0.0487651 0.0011006 -6.28375e-21)
(0.24975 0.0213623 -2.75236e-20)
(0.523031 0.0811175 3.1053e-20)
(0.80025 0.156057 1.77934e-20)
(1.02136 0.221664 -8.35011e-21)
(1.16562 0.266392 1.35671e-20)
(1.24314 0.290373 -6.52651e-21)
(1.27539 0.299003 1.04787e-20)
(1.28226 0.298277 0)
(1.27732 0.292684 2.26453e-20)
(1.26803 0.284867 -1.05322e-21)
(1.25776 0.276124 -1.76547e-20)
(1.24779 0.26702 7.37704e-21)
(1.23846 0.257785 -8.09308e-21)
(1.2298 0.248528 -2.91151e-21)
(1.22174 0.239306 3.49336e-21)
(1.21421 0.230165 -2.56131e-21)
(1.20716 0.221135 -1.362e-20)
(1.20059 0.212263 8.24259e-21)
(1.19446 0.203597 1.60346e-21)
(1.1887 0.195161 1.36808e-21)
(1.18324 0.186912 1.16487e-21)
(1.17796 0.178893 0)
(1.17271 0.17206 0)
(0.0789045 0.00483469 6.29135e-21)
(0.334506 0.0421958 -5.8016e-21)
(0.639344 0.122107 -1.04304e-20)
(0.912298 0.206728 0)
(1.10501 0.270423 -4.16938e-21)
(1.21542 0.30765 -3.68443e-21)
(1.26529 0.32358 -6.06762e-21)
(1.27944 0.325922 0)
(1.2763 0.321 0)
(1.2665 0.31275 0)
(1.25505 0.303164 0)
(1.24385 0.293109 0)
(1.23343 0.28293 -4.60135e-21)
(1.22387 0.272767 2.06657e-21)
(1.21507 0.262685 3.49533e-21)
(1.20698 0.252736 1.6166e-21)
(1.19951 0.242956 3.84981e-21)
(1.19259 0.233383 0)
(1.18619 0.224048 -8.52344e-22)
(1.18028 0.214986 -8.10764e-22)
(1.17483 0.206208 -1.37023e-21)
(1.16978 0.197673 -1.1667e-21)
(1.16497 0.189575 0)
(1.16015 0.18261 7.36691e-22)
(-0.00161195 -0.0467602 5.86305e-21)
(-0.0126446 -0.0685619 -5.58953e-21)
(-0.0331662 -0.0572354 -1.03683e-20)
(-0.0574877 -0.0346187 0)
(-0.0835193 -0.0107549 -1.35385e-20)
(-0.110402 0.012289 4.26766e-21)
(-0.13764 0.0360423 -7.74651e-21)
(-0.164894 0.0624549 0)
(-0.191911 0.0927258 0)
(-0.218485 0.127482 0)
(-0.244278 0.166858 0)
(-0.268845 0.210728 0)
(-0.291617 0.258685 2.70436e-22)
(-0.311911 0.30997 -5.07268e-21)
(-0.328943 0.363414 9.07139e-21)
(-0.341838 0.417408 1.29533e-20)
(-0.349642 0.469906 3.78988e-21)
(-0.351369 0.518484 0)
(-0.346089 0.560455 3.63537e-21)
(-0.333001 0.593067 -1.00004e-20)
(-0.311346 0.613698 -6.26292e-21)
(-0.280259 0.619897 -5.96432e-21)
(-0.239279 0.609514 0)
(-0.190447 0.581641 0)
(0.000555973 -0.037096 -1.73162e-20)
(-0.00923834 -0.0484142 2.76032e-20)
(-0.0291394 -0.0310653 -9.82486e-21)
(-0.0530056 -0.00456111 -1.8721e-20)
(-0.0785852 0.02191 2.62711e-20)
(-0.104966 0.0465363 -1.61315e-20)
(-0.131522 0.0710019 2.27015e-20)
(-0.157781 0.0975267 1.35036e-20)
(-0.18336 0.127463 0)
(-0.207883 0.161325 -1.25908e-20)
(-0.230877 0.199101 -7.48276e-23)
(-0.251742 0.240469 1.09416e-20)
(-0.269739 0.284824 1.45819e-20)
(-0.284008 0.331228 1.84191e-20)
(-0.293589 0.378366 -8.97658e-21)
(-0.297463 0.424531 -2.4531e-20)
(-0.294597 0.467657 7.25594e-21)
(-0.284007 0.5054 -2.78736e-20)
(-0.264841 0.535258 0)
(-0.236471 0.554779 6.5977e-21)
(-0.198652 0.561782 6.25207e-21)
(-0.151433 0.554651 5.95385e-21)
(-0.0949521 0.532048 0)
(-0.0296997 0.493965 0)
(0.00198945 -0.0284128 0)
(-0.00660287 -0.0309201 5.18164e-20)
(-0.0249011 -0.0084511 -1.92482e-20)
(-0.0468996 0.0216991 1.81531e-20)
(-0.0703366 0.0508672 -4.90138e-20)
(-0.0942594 0.0771395 0)
(-0.117963 0.102157 -2.81498e-20)
(-0.140832 0.128253 1.26417e-20)
(-0.162308 0.156977 -2.34267e-20)
(-0.18184 0.1889 1.00122e-20)
(-0.198818 0.223926 6.15864e-20)
(-0.21253 0.261578 -2.85486e-20)
(-0.222152 0.301091 -4.52971e-20)
(-0.226768 0.341413 -1.61102e-20)
(-0.225404 0.381166 -1.74677e-22)
(-0.217083 0.418662 5.87317e-20)
(-0.200895 0.451967 -2.75065e-20)
(-0.176076 0.479002 9.87244e-22)
(-0.142107 0.497573 0)
(-0.0988238 0.505701 -2.37026e-20)
(-0.0461474 0.501643 0)
(0.0148496 0.48419 -2.47699e-20)
(0.0825177 0.453265 9.10513e-20)
(0.162879 0.406838 2.32881e-21)
(0.00290376 -0.0215187 0)
(-0.00455289 -0.0175465 -7.99138e-22)
(-0.0207121 0.00875795 1.80605e-20)
(-0.0399596 0.0420495 -1.65198e-20)
(-0.0600653 0.0739113 1.62155e-20)
(-0.0800678 0.101951 8.60377e-20)
(-0.0992521 0.12741 -2.67281e-20)
(-0.11692 0.152597 -2.39248e-20)
(-0.132367 0.179285 4.54175e-20)
(-0.144887 0.208249 -6.32734e-20)
(-0.153764 0.239459 1.86773e-20)
(-0.158233 0.272384 1.7206e-20)
(-0.157477 0.306188 0)
(-0.150661 0.339803 1.60188e-20)
(-0.136952 0.371854 0)
(-0.115545 0.400785 2.59572e-20)
(-0.0857181 0.424894 -5.17886e-20)
(-0.0471323 0.442371 1.11834e-20)
(0.000423862 0.451446 4.64242e-20)
(0.0566476 0.450497 2.36738e-20)
(0.120479 0.438632 0)
(0.194034 0.414105 -6.86673e-20)
(0.264831 0.379375 2.13876e-20)
(0.358807 0.328216 0)
(0.00355316 -0.0166845 0)
(-0.00288372 -0.00885343 -5.7848e-20)
(-0.0169031 0.0195818 -1.73845e-20)
(-0.0332005 0.055005 -3.24899e-20)
(-0.0494989 0.0891599 3.0104e-20)
(-0.0648117 0.118952 -2.82289e-20)
(-0.0784789 0.144874 5.04128e-20)
(-0.0898459 0.168944 2.33925e-20)
(-0.098177 0.193042 -6.49736e-20)
(-0.102699 0.218236 3.90002e-20)
(-0.102644 0.244739 -5.46179e-20)
(-0.0972397 0.272154 1.14352e-19)
(-0.0856937 0.299709 -6.14747e-20)
(-0.0673591 0.326334 2.7413e-20)
(-0.0416618 0.350769 7.88112e-20)
(-0.00805771 0.371656 -2.51991e-20)
(0.0338021 0.387532 -2.16804e-20)
(0.0839895 0.396824 -2.28793e-20)
(0.141788 0.398418 0)
(0.208503 0.390572 -4.43944e-20)
(0.277314 0.373874 -4.6251e-20)
(0.360494 0.345049 6.1504e-20)
(0.428706 0.309669 8.72286e-20)
(0.528718 0.257715 -8.00692e-20)
(0.00409612 -0.013665 0)
(-0.00153398 -0.00442524 -7.34469e-20)
(-0.0139088 0.0241297 8.92465e-22)
(-0.0277449 0.0600438 6.3045e-20)
(-0.0405437 0.095399 0)
(-0.0512135 0.126451 0)
(-0.0591542 0.152785 0)
(-0.0638599 0.17578 -2.2303e-20)
(-0.0647472 0.19718 6.43444e-22)
(-0.061108 0.218262 3.73723e-20)
(-0.0522211 0.239559 -5.18244e-20)
(-0.0373924 0.260958 3.27861e-22)
(-0.0160037 0.281869 0)
(0.01244 0.301372 -2.73993e-20)
(0.0482811 0.31843 2.38992e-20)
(0.0917346 0.331871 -6.84039e-20)
(0.142505 0.34054 8.86559e-20)
(0.201286 0.343134 2.2651e-20)
(0.264214 0.339216 3.66273e-21)
(0.338261 0.326577 -7.83687e-20)
(0.405633 0.307937 -3.8244e-20)
(0.494593 0.277154 1.38898e-19)
(0.555084 0.244816 -9.27513e-20)
(0.658723 0.195151 0)
(0.00450923 -0.0118266 3.73747e-20)
(-0.000733224 -0.00301959 3.64727e-20)
(-0.0123501 0.0236117 -3.26354e-20)
(-0.0247325 0.0578747 -6.05282e-20)
(-0.0350043 0.0925365 5.60813e-20)
(-0.0418428 0.123546 -5.06357e-20)
(-0.044676 0.149671 6.98673e-20)
(-0.0431743 0.171499 -2.21005e-20)
(-0.0369953 0.190367 3.90639e-20)
(-0.0256853 0.207512 0)
(-0.00873287 0.223675 3.05781e-20)
(0.014357 0.239036 -5.74349e-20)
(0.0439922 0.253311 5.33921e-20)
(0.0804395 0.2659 -4.96966e-20)
(0.123751 0.27601 0)
(0.173991 0.282833 4.32129e-20)
(0.230047 0.285348 8.15461e-20)
(0.293933 0.283003 -7.73338e-20)
(0.358132 0.275063 -3.69079e-20)
(0.437337 0.260411 -4.05915e-20)
(0.500317 0.241611 1.09824e-19)
(0.600013 0.212033 3.72035e-20)
(0.652769 0.184289 -3.25324e-20)
(0.776075 0.137082 3.41098e-20)
(0.00453584 -0.0103521 -3.73839e-20)
(-0.00106995 -0.00294711 1.04238e-19)
(-0.0130493 0.0200396 -3.18739e-20)
(-0.0252182 0.0503783 5.88212e-20)
(-0.0342895 0.0819091 -5.44995e-20)
(-0.0386606 0.110733 -2.07507e-22)
(-0.0376943 0.135131 2.25459e-20)
(-0.0312006 0.155021 7.93447e-20)
(-0.0191034 0.171194 -1.78906e-21)
(-0.00127941 0.184635 -3.51338e-20)
(0.0224604 0.196106 0)
(0.0523239 0.205995 -2.64359e-20)
(0.0884784 0.214325 5.11123e-20)
(0.131022 0.220847 4.64219e-20)
(0.17993 0.22509 -2.22076e-20)
(0.23533 0.226734 -1.17923e-21)
(0.296438 0.224685 -1.98032e-20)
(0.365487 0.219759 3.58944e-20)
(0.436226 0.209292 3.69149e-20)
(0.524847 0.196066 -3.61292e-20)
(0.596604 0.176507 3.36658e-20)
(0.717828 0.151709 -3.31205e-20)
(0.77649 0.124718 0)
(0.938205 0.0831782 -3.41172e-20)
(0.00369928 -0.00843738 3.59583e-20)
(-0.00342366 -0.00248255 -3.45328e-20)
(-0.0169149 0.0157269 3.11435e-20)
(-0.0299866 0.0402107 0)
(-0.0390664 0.0662032 0)
(-0.0423406 0.0903632 4.64656e-20)
(-0.0390664 0.110914 -4.4198e-20)
(-0.029107 0.127376 3.78451e-20)
(-0.0125544 0.140092 -1.78239e-19)
(0.0104954 0.149756 7.77079e-22)
(0.0400469 0.157065 2.86966e-20)
(0.0762448 0.162527 0)
(0.119371 0.16642 -4.78476e-20)
(0.169846 0.168798 8.86438e-20)
(0.228202 0.169534 -6.21012e-20)
(0.295101 0.168495 -9.72273e-20)
(0.371129 0.164965 -1.79269e-21)
(0.4568 0.159739 6.76284e-20)
(0.550865 0.149441 0)
(0.658205 0.139333 0)
(0.76061 0.119851 -3.36786e-20)
(0.896642 0.103123 3.31323e-20)
(0.979072 0.0752684 -1.28278e-19)
(1.1492 0.046567 1.19558e-19)
(0.0014536 -0.00547094 0)
(-0.00862914 -0.00024304 0)
(-0.0244729 0.0128035 -9.26483e-20)
(-0.0389778 0.0302898 2.8752e-20)
(-0.0485265 0.0490549 8.28327e-22)
(-0.0512263 0.066623 4.67415e-20)
(-0.0461539 0.0815155 0)
(-0.0330181 0.0931999 -3.8266e-20)
(-0.0117337 0.101833 3.52653e-20)
(0.0179042 0.10794 -6.09662e-20)
(0.0563278 0.112179 6.19367e-22)
(0.104259 0.115126 5.0623e-20)
(0.162595 0.117189 -8.04945e-22)
(0.232224 0.118562 4.23833e-20)
(0.313665 0.119309 -5.98084e-20)
(0.407064 0.118968 0)
(0.511573 0.117742 7.19463e-20)
(0.625266 0.114324 -1.01616e-19)
(0.74716 0.108725 3.24504e-20)
(0.870119 0.101501 0)
(0.994678 0.0874298 3.02718e-20)
(1.11461 0.0769159 1.23088e-19)
(1.20937 0.0510981 -1.14929e-19)
(1.32469 0.0346038 -1.36247e-19)
(-0.00256408 -0.00118397 1.04345e-19)
(-0.0168756 0.00451105 -1.31848e-19)
(-0.0350715 0.0128433 3.39363e-22)
(-0.0502825 0.0233213 2.80097e-20)
(-0.0590557 0.0345039 -5.09642e-20)
(-0.0594233 0.0449415 -4.68565e-20)
(-0.0500341 0.0537279 8.30851e-20)
(-0.0298985 0.0605973 -1.85642e-21)
(0.00182491 0.0657708 -6.95479e-20)
(0.0462183 0.0697191 1.22756e-19)
(0.1044 0.07306 -1.35769e-21)
(0.177221 0.0763311 -5.11429e-20)
(0.264915 0.0798941 0)
(0.366795 0.0838149 0)
(0.480911 0.0880675 -1.97924e-20)
(0.604611 0.0916922 -3.69791e-20)
(0.733291 0.0953499 -7.08291e-20)
(0.863434 0.0955987 6.60231e-20)
(0.988856 0.0961482 -3.24766e-20)
(1.10434 0.0897871 6.2111e-20)
(1.20836 0.0830871 -2.89105e-20)
(1.28728 0.070695 5.75012e-20)
(1.35339 0.050407 -1.3048e-19)
(1.38759 0.0369273 2.62922e-20)
(-0.00818835 0.00404414 3.45976e-20)
(-0.027184 0.0114696 0)
(-0.04627 0.0163921 6.0318e-20)
(-0.0594864 0.0211198 -5.58545e-20)
(-0.0635925 0.0259125 5.10325e-20)
(-0.0562885 0.0304175 0)
(-0.0354684 0.0344568 0)
(0.000900907 0.0381738 -3.68439e-20)
(0.0544685 0.0418427 1.94902e-21)
(0.126347 0.0459565 3.18551e-20)
(0.21674 0.0510765 -2.74006e-20)
(0.324394 0.0575392 5.14443e-20)
(0.446402 0.0653466 0)
(0.578418 0.0741109 8.5347e-20)
(0.714982 0.0832124 -1.58846e-19)
(0.850237 0.0914355 1.10958e-19)
(0.977928 0.0983829 6.98074e-20)
(1.09319 0.101251 -6.50739e-20)
(1.18996 0.102892 0)
(1.26744 0.0952821 0)
(1.32028 0.0909076 0)
(1.35228 0.0712132 0)
(1.36674 0.0596795 2.50923e-20)
(1.35745 0.0387275 -8.6701e-20)
(-0.129594 0.532375 -3.89903e-21)
(-0.0409421 0.441674 3.9088e-21)
(0.0470207 0.327651 -1.3021e-22)
(0.140497 0.191032 0)
(0.227714 0.0400997 -3.91415e-21)
(0.307115 -0.124759 7.49341e-21)
(0.379366 -0.304609 -2.49017e-22)
(0.446746 -0.49082 -3.24013e-21)
(0.507615 -0.651602 0)
(0.557442 -0.751286 0)
(0.58925 -0.786723 -9.93119e-23)
(0.602221 -0.776134 -7.75479e-23)
(0.611297 -0.733202 -1.06651e-21)
(0.616726 -0.689867 9.72883e-22)
(0.601571 -0.686829 0)
(0.567141 -0.712322 0)
(0.543372 -0.685479 1.38196e-21)
(0.562099 -0.529184 2.49689e-22)
(0.618603 -0.24967 -1.44715e-21)
(0.687546 0.0803048 -9.92552e-23)
(0.748297 0.368259 0)
(0.793306 0.548839 0)
(0.822458 0.622975 0)
(0.831221 0.635826 0)
(0.827692 0.61538 0)
(0.824382 0.580345 0)
(0.808733 0.571572 1.46979e-22)
(0.765391 0.605561 -2.41172e-22)
(0.7046 0.624238 0)
(0.652741 0.545603 0)
(0.626088 0.344073 -3.50816e-22)
(0.627651 0.0724693 3.40877e-22)
(0.654917 -0.178687 1.6601e-22)
(0.702635 -0.337854 0)
(0.768095 -0.409612 0)
(0.830905 -0.451933 1.24953e-22)
(0.857096 -0.513127 -1.21444e-22)
(0.826551 -0.580448 0)
(0.76669 -0.580594 1.82927e-22)
(0.737861 -0.429878 -2.75484e-22)
(0.755348 -0.150857 1.06946e-22)
(0.800193 0.134728 0)
(0.839985 0.335707 -1.27251e-22)
(0.84495 0.472761 1.23733e-22)
(0.803625 0.558964 0)
(0.74622 0.555696 0)
(0.687289 0.413168 -5.69962e-23)
(0.635288 0.172054 1.87089e-22)
(0.596102 -0.0970197 0)
(0.567433 -0.29746 0)
(0.538088 -0.405024 -4.47329e-23)
(0.507982 -0.410771 1.53286e-24)
(0.486826 -0.341917 -5.76852e-24)
(0.48637 -0.232995 1.89927e-23)
(0.501998 -0.0736806 0)
(0.561771 0.0222332 0)
(0.606142 0.167639 0)
(0.68403 0.167292 0)
(0.682852 0.272112 0)
(0.698786 0.20582 0)
(0.0472082 0.438728 -3.90457e-22)
(0.138821 0.344722 -1.74832e-20)
(0.230225 0.23034 -4.86495e-22)
(0.321012 0.0994349 1.68088e-20)
(0.403405 -0.041701 2.69264e-22)
(0.474865 -0.194858 0)
(0.538076 -0.366135 -1.42234e-20)
(0.596079 -0.547078 2.64418e-20)
(0.641943 -0.70249 -1.22146e-20)
(0.668817 -0.791522 7.75997e-21)
(0.677982 -0.808534 -7.43611e-21)
(0.667822 -0.782599 4.66559e-21)
(0.650148 -0.732574 -4.54831e-21)
(0.636249 -0.679045 -1.16412e-22)
(0.611298 -0.660628 -3.90696e-21)
(0.565561 -0.680245 3.79439e-21)
(0.519046 -0.670593 -5.02396e-21)
(0.50647 -0.544747 4.72392e-21)
(0.539588 -0.288486 -6.25569e-21)
(0.599925 0.0302918 1.18988e-20)
(0.664405 0.319016 -5.65256e-21)
(0.72304 0.510498 -2.53924e-22)
(0.768378 0.601849 -2.84908e-21)
(0.792251 0.629007 4.94969e-21)
(0.804439 0.614778 -2.11979e-21)
(0.81445 0.585142 1.02115e-22)
(0.807534 0.586972 1.72671e-21)
(0.771044 0.631489 3.28352e-22)
(0.719669 0.653094 -4.19698e-21)
(0.678074 0.568947 5.14072e-21)
(0.659568 0.355637 -2.78195e-21)
(0.667155 0.0695798 4.22201e-22)
(0.695831 -0.195141 -1.66355e-22)
(0.736697 -0.363796 2.8568e-22)
(0.789148 -0.436262 0)
(0.838527 -0.467918 0)
(0.854818 -0.510439 -4.77736e-22)
(0.815159 -0.561234 3.51222e-22)
(0.742559 -0.560008 5.30535e-22)
(0.70104 -0.424288 2.39435e-22)
(0.716078 -0.163386 -8.73591e-22)
(0.768541 0.115159 1.67403e-22)
(0.819268 0.32402 0)
(0.833778 0.475564 0)
(0.801362 0.572381 0)
(0.750574 0.573436 0)
(0.696023 0.431231 2.53487e-22)
(0.644962 0.18658 -1.3179e-22)
(0.606748 -0.0875186 0)
(0.579137 -0.29109 0)
(0.551546 -0.398478 0)
(0.51909 -0.405316 -6.19231e-23)
(0.496757 -0.339566 2.14242e-23)
(0.496599 -0.235245 -4.84161e-23)
(0.513532 -0.0826086 0)
(0.574252 0.0110296 0)
(0.615463 0.155097 2.87133e-24)
(0.691318 0.160252 -4.13525e-24)
(0.679905 0.271596 0)
(0.696112 0.203808 0)
(0.238156 0.348283 2.48024e-21)
(0.325118 0.255425 -3.42395e-20)
(0.410978 0.146 3.69402e-20)
(0.492958 0.0254227 -3.44973e-20)
(0.564856 -0.101322 -2.71175e-22)
(0.625719 -0.239803 0)
(0.68194 -0.400945 -3.02444e-20)
(0.735962 -0.574599 2.95642e-20)
(0.77356 -0.721062 1.77337e-22)
(0.780547 -0.800731 2.82358e-22)
(0.764925 -0.806167 2.14682e-22)
(0.73411 -0.770985 1.63598e-22)
(0.694453 -0.720935 -8.05851e-21)
(0.66155 -0.663405 7.94285e-21)
(0.627578 -0.630174 0)
(0.573428 -0.640687 2.05965e-22)
(0.508312 -0.64569 -8.68281e-21)
(0.46705 -0.554568 8.58882e-21)
(0.473131 -0.329799 0)
(0.520092 -0.0277221 0)
(0.5871 0.258131 -9.08748e-21)
(0.657734 0.460548 1.59788e-20)
(0.716641 0.570521 -1.20367e-20)
(0.754725 0.613429 1.14685e-21)
(0.783162 0.607267 7.39745e-21)
(0.806887 0.584369 -6.80965e-21)
(0.809201 0.597305 6.52242e-21)
(0.781721 0.65328 4.78954e-22)
(0.741378 0.68023 -3.99762e-21)
(0.709289 0.593154 0)
(0.698807 0.370775 0)
(0.712068 0.0734603 2.5141e-21)
(0.741334 -0.203207 -3.30312e-21)
(0.775074 -0.381373 2.78044e-23)
(0.81395 -0.456453 1.51189e-21)
(0.849382 -0.479307 -1.46905e-21)
(0.856898 -0.50392 0)
(0.811123 -0.538983 1.13576e-22)
(0.727973 -0.538565 1.31715e-21)
(0.673062 -0.420524 -2.83914e-21)
(0.683939 -0.180274 1.34877e-21)
(0.742165 0.0903515 1.25787e-22)
(0.80234 0.307529 -1.12933e-21)
(0.82608 0.475139 8.7166e-22)
(0.803366 0.584194 1.78469e-22)
(0.759671 0.590872 2.15738e-22)
(0.709568 0.450218 -2.54168e-22)
(0.65967 0.203123 0)
(0.621872 -0.0761116 0)
(0.594594 -0.283973 -1.09434e-21)
(0.568946 -0.391866 4.91898e-22)
(0.534549 -0.399861 -3.09996e-22)
(0.51019 -0.337574 3.27226e-22)
(0.509253 -0.238115 2.40197e-22)
(0.527277 -0.0919959 -7.34144e-23)
(0.588681 -8.64946e-06 2.71662e-23)
(0.626359 0.143098 1.27712e-24)
(0.699122 0.154483 -1.99685e-23)
(0.677409 0.272021 0)
(0.694196 0.201818 0)
(0.423711 0.269325 -6.96032e-20)
(0.500572 0.180925 -3.28423e-21)
(0.576488 0.0801746 6.8927e-20)
(0.646638 -0.0284027 -5.61646e-22)
(0.706311 -0.142426 0)
(0.759065 -0.26959 0)
(0.814508 -0.424096 -6.05145e-20)
(0.86868 -0.592177 6.10752e-21)
(0.899622 -0.726258 7.15978e-20)
(0.890492 -0.791362 -4.40872e-21)
(0.851727 -0.786303 -1.60164e-20)
(0.801161 -0.743169 -9.30261e-21)
(0.744165 -0.695431 9.34883e-21)
(0.693455 -0.643214 0)
(0.650631 -0.598556 -6.3299e-21)
(0.593709 -0.592242 5.76091e-21)
(0.516975 -0.603267 0)
(0.450582 -0.548314 0)
(0.428939 -0.366168 8.94428e-21)
(0.457752 -0.0902119 4.69049e-23)
(0.521673 0.188036 -8.20047e-21)
(0.59912 0.400228 -6.3523e-21)
(0.667998 0.528996 6.25119e-21)
(0.71947 0.587919 -3.90855e-21)
(0.763119 0.591268 4.91356e-22)
(0.799599 0.577196 3.18815e-21)
(0.81353 0.600978 4.01377e-22)
(0.797507 0.666735 7.5911e-25)
(0.766984 0.700185 0)
(0.743832 0.614926 6.79043e-21)
(0.742424 0.388483 -7.06075e-21)
(0.761515 0.0818539 4.65273e-22)
(0.791234 -0.205293 0)
(0.81822 -0.392207 -3.17226e-22)
(0.843586 -0.470779 3.26111e-21)
(0.864605 -0.487651 -5.19766e-21)
(0.86335 -0.49633 1.82757e-22)
(0.813715 -0.514674 4.99703e-23)
(0.723497 -0.513583 1.50647e-21)
(0.655398 -0.415858 3.04855e-22)
(0.659671 -0.19997 -2.35468e-21)
(0.721188 0.0614625 1.99271e-21)
(0.789407 0.287036 3.06335e-23)
(0.821996 0.469826 7.31203e-22)
(0.808658 0.5918 -8.89988e-22)
(0.772008 0.607217 -1.73581e-21)
(0.727429 0.47021 4.08504e-22)
(0.67965 0.221394 1.46222e-21)
(0.641904 -0.0631296 -2.77868e-21)
(0.613861 -0.276325 1.90993e-21)
(0.589776 -0.385199 -3.09507e-22)
(0.554059 -0.394145 5.48059e-22)
(0.527286 -0.335519 2.92889e-22)
(0.524583 -0.241394 -3.11034e-22)
(0.543282 -0.101807 1.85678e-23)
(0.604844 -0.0109294 2.17469e-23)
(0.638554 0.131787 0)
(0.707313 0.150052 6.87093e-24)
(0.675438 0.273358 -2.84845e-23)
(0.693074 0.199841 0)
(0.583102 0.202925 6.68737e-20)
(0.649402 0.123708 -1.3432e-19)
(0.716051 0.0339728 6.66173e-20)
(0.776665 -0.0631186 6.98879e-20)
(0.829675 -0.169251 -1.36365e-19)
(0.882778 -0.29104 2.14133e-21)
(0.943132 -0.439112 6.2976e-20)
(0.995501 -0.595135 5.04105e-20)
(1.01276 -0.710667 -4.9299e-20)
(0.984646 -0.758415 0)
(0.925482 -0.747659 -2.43635e-20)
(0.859721 -0.703708 4.24364e-20)
(0.793479 -0.657931 -1.82478e-20)
(0.730909 -0.615748 0)
(0.679527 -0.571053 0)
(0.622838 -0.548001 1.80009e-22)
(0.543029 -0.553867 -1.13463e-20)
(0.458353 -0.527931 1.10161e-20)
(0.410192 -0.393979 0)
(0.417697 -0.154224 1.4328e-20)
(0.47203 0.110783 -2.60174e-20)
(0.549278 0.330583 2.24564e-20)
(0.623811 0.477472 -1.85069e-20)
(0.686337 0.553372 1.34e-21)
(0.743589 0.568017 1.24538e-20)
(0.793291 0.561945 -5.88904e-21)
(0.819382 0.59445 -1.99236e-22)
(0.814821 0.672223 -4.07087e-21)
(0.796363 0.71761 -1.44364e-21)
(0.783942 0.638986 5.46034e-21)
(0.79076 0.411354 4.70828e-22)
(0.814652 0.0974279 -7.85091e-21)
(0.844229 -0.199374 1.42141e-20)
(0.864615 -0.395082 -7.12513e-21)
(0.876991 -0.477999 0)
(0.883672 -0.491534 -2.78855e-21)
(0.874119 -0.487591 2.62757e-21)
(0.822753 -0.490219 -1.404e-21)
(0.728892 -0.487211 1.76012e-21)
(0.648574 -0.40985 -2.14262e-22)
(0.643695 -0.220843 0)
(0.705475 0.0289261 -2.09627e-22)
(0.779974 0.261542 5.48451e-22)
(0.821114 0.460778 0)
(0.818041 0.59764 2.01105e-21)
(0.789342 0.621865 -6.83702e-22)
(0.750618 0.489918 6.26198e-22)
(0.705251 0.241125 8.19905e-22)
(0.667134 -0.0480686 0)
(0.637163 -0.267608 0)
(0.613747 -0.378414 -1.27183e-21)
(0.577168 -0.388257 1.59009e-21)
(0.547992 -0.333249 -6.66229e-22)
(0.542698 -0.244835 1.52577e-22)
(0.561459 -0.111934 1.01388e-22)
(0.622492 -0.0216956 -2.17703e-23)
(0.651817 0.121272 1.28243e-22)
(0.715792 0.146975 0)
(0.674096 0.275552 4.21625e-23)
(0.692772 0.197871 1.3017e-23)
(0.706347 0.147899 6.3181e-20)
(0.764939 0.0795183 -6.25354e-20)
(0.828946 0.000858786 5.32212e-22)
(0.889721 -0.0882199 -4.98682e-22)
(0.945877 -0.190368 5.27904e-22)
(1.00584 -0.310122 -5.07325e-22)
(1.07006 -0.449834 8.73275e-22)
(1.11487 -0.585723 0)
(1.11298 -0.677836 -6.44554e-22)
(1.06504 -0.709428 5.1502e-22)
(0.990004 -0.696282 4.00238e-22)
(0.912118 -0.658385 -3.2333e-22)
(0.841132 -0.616167 0)
(0.772626 -0.580959 0)
(0.71368 -0.54248 1.51971e-22)
(0.659121 -0.50842 0)
(0.584076 -0.501291 -1.17051e-22)
(0.489671 -0.492801 0)
(0.417006 -0.407224 -1.01177e-20)
(0.400098 -0.21273 2.00841e-20)
(0.438821 0.0325933 -1.94139e-20)
(0.509052 0.254452 9.31096e-21)
(0.584231 0.416852 6.60487e-21)
(0.655266 0.508589 -6.41109e-21)
(0.725033 0.534601 -5.15974e-21)
(0.786506 0.5381 5.01056e-21)
(0.824648 0.580084 0)
(0.83394 0.667124 2.07826e-22)
(0.826129 0.72415 0)
(0.82213 0.657868 0)
(0.838636 0.435582 1.55483e-20)
(0.8686 0.118842 -1.603e-20)
(0.898444 -0.186448 9.63937e-22)
(0.913333 -0.390881 7.34654e-22)
(0.914061 -0.478604 -5.37169e-22)
(0.906622 -0.491315 -2.49905e-21)
(0.888374 -0.478758 2.42615e-21)
(0.836931 -0.466634 -1.62944e-21)
(0.743276 -0.459205 1.39457e-21)
(0.652375 -0.401196 3.91285e-22)
(0.635653 -0.241864 -1.62538e-21)
(0.69451 -0.00618035 4.4346e-23)
(0.773804 0.231848 1.01981e-21)
(0.823025 0.445523 0)
(0.829677 0.596708 -6.67107e-22)
(0.808839 0.634642 1.91504e-21)
(0.777347 0.511107 -2.32592e-21)
(0.735843 0.263199 -8.25409e-22)
(0.697392 -0.0306003 0)
(0.664578 -0.257562 5.00875e-22)
(0.640605 -0.371348 -1.20334e-21)
(0.603247 -0.382155 -2.66672e-25)
(0.571965 -0.330626 -1.51565e-22)
(0.563517 -0.248197 1.26359e-23)
(0.581636 -0.122187 -5.33306e-23)
(0.641367 -0.0321069 0)
(0.665919 0.111631 -1.28319e-22)
(0.7245 0.145233 0)
(0.673508 0.27855 0)
(0.693304 0.195924 -1.67701e-23)
(0.819708 0.0971591 -5.9451e-20)
(0.876599 0.0373708 5.83946e-20)
(0.943925 -0.0318718 -4.59434e-22)
(1.01027 -0.11561 5.11232e-22)
(1.07337 -0.213476 0)
(1.13748 -0.326628 0)
(1.19434 -0.450283 -8.94758e-22)
(1.21861 -0.559168 0)