/*--------------------------------*- C++ -*----------------------------------*\
| =========                 |                                                 |
| \\      /  F ield         | OpenFOAM: The Open Source CFD Toolbox           |
|  \\    /   O peration     | Version:  2312                                  |
|   \\  /    A nd           | Website:  www.openfoam.com                      |
|    \\/     M anipulation  |                                                 |
\*---------------------------------------------------------------------------*/
FoamFile
{
    version     2.0;
    format      ascii;
    arch        "LSB;label=32;scalar=64";
    class       volScalarField;
    location    "38.5";
    object      p;
}
// * * * * * * * * * * * * * * * * * * * * * * * * * * * * * * * * * * * * * //

dimensions      [0 2 -2 0 0 0 0];

internalField   nonuniform List<scalar> 
9200
(
-0.616368
-0.634353
-0.6643
-0.691974
-0.713278
-0.723309
-0.707002
-0.649211
-0.552932
-0.444029
-0.339408
-0.248362
-0.17296
-0.115599
-0.078821
-0.0437448
-0.0151431
0.00578054
0.0200617
0.0276569
-0.587896
-0.5967
-0.613733
-0.633152
-0.648516
-0.657688
-0.642262
-0.588281
-0.505481
-0.414852
-0.332046
-0.259369
-0.199895
-0.151464
-0.10671
-0.0723676
-0.0444946
-0.0219868
-0.00588712
0.00987876
-0.553529
-0.555096
-0.561003
-0.569277
-0.579187
-0.583632
-0.565035
-0.517269
-0.450394
-0.381254
-0.31695
-0.260263
-0.210125
-0.163709
-0.127743
-0.0973668
-0.072289
-0.051323
-0.0333026
-0.0184604
-0.534101
-0.528953
-0.524078
-0.522985
-0.525794
-0.519992
-0.498033
-0.457419
-0.40571
-0.351933
-0.300678
-0.253579
-0.211565
-0.176017
-0.143589
-0.115347
-0.0916835
-0.0712354
-0.0536818
-0.0376593
-0.525688
-0.51777
-0.505281
-0.497311
-0.488892
-0.474042
-0.449305
-0.414539
-0.374245
-0.332176
-0.290855
-0.252552
-0.217235
-0.183785
-0.153935
-0.128087
-0.105782
-0.0856991
-0.0677745
-0.051589
-0.527845
-0.514408
-0.503244
-0.48305
-0.463713
-0.441694
-0.414619
-0.382972
-0.347481
-0.310918
-0.275536
-0.241725
-0.210616
-0.182453
-0.156782
-0.133322
-0.1129
-0.0949973
-0.0789066
-0.0641584
-0.570845
-0.528017
-0.499248
-0.469617
-0.441538
-0.41338
-0.384315
-0.35397
-0.322962
-0.291824
-0.260825
-0.231617
-0.204131
-0.178444
-0.154988
-0.133803
-0.114921
-0.0984403
-0.0836323
-0.069769
-0.552965
-0.562625
-0.494796
-0.446228
-0.413051
-0.384463
-0.356532
-0.328418
-0.300271
-0.2727
-0.246434
-0.220813
-0.196651
-0.173875
-0.153134
-0.133592
-0.115357
-0.0991513
-0.085044
-0.0721645
-0.481553
-0.501586
-0.467361
-0.423013
-0.389048
-0.359978
-0.333058
-0.306152
-0.279188
-0.253026
-0.227719
-0.203895
-0.181893
-0.161124
-0.142336
-0.125169
-0.109438
-0.0949111
-0.0821472
-0.0708027
-0.455664
-0.443428
-0.434602
-0.403089
-0.370185
-0.338254
-0.309496
-0.282434
-0.256762
-0.232131
-0.209044
-0.18686
-0.166608
-0.147971
-0.131088
-0.115544
-0.101179
-0.0882658
-0.0756693
-0.0647942
-0.640733
-0.615344
-0.668939
-0.732457
-0.835261
-0.964744
-1.12807
-1.32504
-1.54347
-1.75317
-1.93974
-2.07606
-2.16369
-2.1987
-2.1438
-2.01506
-1.84685
-1.62608
-1.3565
-1.07072
-0.646338
-0.618176
-0.657201
-0.71408
-0.793429
-0.903258
-1.04574
-1.21135
-1.38696
-1.55815
-1.7095
-1.82151
-1.89034
-1.90915
-1.8426
-1.72035
-1.54638
-1.33873
-1.1186
-0.896578
-0.610872
-0.586733
-0.614067
-0.672195
-0.74586
-0.830496
-0.931385
-1.04821
-1.16756
-1.27963
-1.36969
-1.4295
-1.44864
-1.41139
-1.3424
-1.23127
-1.08634
-0.923067
-0.765217
-0.628009
-0.54489
-0.545636
-0.57003
-0.614702
-0.681402
-0.753271
-0.824057
-0.894664
-0.955195
-1.00069
-1.02375
-1.0268
-1.00067
-0.937485
-0.844156
-0.736092
-0.621846
-0.510732
-0.420807
-0.350121
-0.465637
-0.498654
-0.541674
-0.588865
-0.642281
-0.695423
-0.740101
-0.774342
-0.789534
-0.779876
-0.746641
-0.699621
-0.638631
-0.56039
-0.456712
-0.344708
-0.271584
-0.196849
-0.155511
-0.117084
-0.478014
-0.488004
-0.52791
-0.582017
-0.63262
-0.672144
-0.693009
-0.69369
-0.671054
-0.619869
-0.548354
-0.465315
-0.380419
-0.308242
-0.221302
-0.0865611
-0.0470186
0.0119672
0.0185573
0.0453152
-0.486043
-0.508008
-0.555154
-0.60781
-0.653705
-0.680222
-0.681978
-0.656956
-0.605092
-0.526851
-0.432262
-0.326787
-0.217834
-0.149863
-0.122383
0.0245523
0.0699299
0.0896326
0.116764
0.122503
-0.52895
-0.559504
-0.608805
-0.658459
-0.700085
-0.720442
-0.709031
-0.66274
-0.583357
-0.480177
-0.362652
-0.24526
-0.1241
-0.043745
-0.0776691
0.0674006
0.117111
0.0817371
0.158988
0.139056
-0.582179
-0.617988
-0.668278
-0.718099
-0.750113
-0.761046
-0.741056
-0.680923
-0.583662
-0.466045
-0.33615
-0.216272
-0.111653
-0.0424926
-0.0325794
0.0742856
0.148914
0.0874416
0.13987
0.137815
-0.617429
-0.64562
-0.689142
-0.728743
-0.752355
-0.761411
-0.742354
-0.682114
-0.582664
-0.461795
-0.342494
-0.235967
-0.146902
-0.0779565
-0.0305027
0.0149572
0.0506868
0.0592956
0.0685441
0.0768621
-0.780872
-0.557643
-0.424622
-0.347573
-0.299687
-0.271892
-0.255489
-0.230692
-0.196796
-0.156114
-0.110208
-0.079236
-0.0715035
-0.0725208
-0.0821491
-0.0999298
-0.1301
-0.201168
-0.373858
-0.724982
-1.19052
-1.39913
-1.1668
-0.748048
-0.366796
-0.105731
-0.0249431
-0.0384172
-0.0110514
0.0472587
0.0359585
-0.0929872
-0.331139
-0.533294
-0.544027
-0.363854
-0.179041
-0.0634558
-0.021943
-0.020554
-0.0300366
-0.0376024
-0.0403877
-0.0394135
-0.0326556
-0.0228845
-0.0140256
-0.00775348
-0.00349541
-0.000689419
-0.679694
-0.532187
-0.447205
-0.406713
-0.397476
-0.407072
-0.428702
-0.420899
-0.36486
-0.284297
-0.20779
-0.143266
-0.115933
-0.104006
-0.103611
-0.111546
-0.141259
-0.202093
-0.353993
-0.697172
-1.13002
-1.31625
-1.10743
-0.738756
-0.38839
-0.153995
-0.0872456
-0.0947533
-0.0500015
0.0040239
-0.00348912
-0.115403
-0.332581
-0.538571
-0.557117
-0.383349
-0.200308
-0.0852837
-0.0428693
-0.0390858
-0.0441122
-0.0471132
-0.0461367
-0.0425093
-0.0339422
-0.0232345
-0.0137676
-0.0073033
-0.00328138
-0.000723764
-0.510648
-0.467542
-0.443652
-0.454922
-0.496857
-0.562591
-0.638771
-0.662782
-0.584396
-0.456564
-0.330412
-0.218223
-0.167883
-0.136748
-0.122027
-0.123507
-0.139724
-0.194517
-0.312005
-0.571899
-0.949307
-1.1313
-0.978488
-0.690464
-0.404948
-0.226424
-0.171428
-0.176169
-0.12156
-0.0572804
-0.0515135
-0.136619
-0.323093
-0.520329
-0.546548
-0.389895
-0.216538
-0.108121
-0.0666095
-0.0605307
-0.0598126
-0.0576126
-0.0524251
-0.0459665
-0.035545
-0.0238573
-0.0137126
-0.0069868
-0.00310987
-0.000753492
-0.317392
-0.372315
-0.406536
-0.475969
-0.580936
-0.722663
-0.858173
-0.925583
-0.837048
-0.661006
-0.474403
-0.302791
-0.219568
-0.171784
-0.140298
-0.131352
-0.137522
-0.171106
-0.262703
-0.44611
-0.718674
-0.896852
-0.811208
-0.616851
-0.410126
-0.289191
-0.253712
-0.267362
-0.193242
-0.124607
-0.10178
-0.153672
-0.30065
-0.482174
-0.513521
-0.384695
-0.229499
-0.131884
-0.0931856
-0.0850128
-0.0776921
-0.069575
-0.0594194
-0.0497162
-0.0373346
-0.0246395
-0.0138479
-0.00683202
-0.0030072
-0.000781075
-0.127444
-0.230455
-0.308632
-0.425392
-0.588701
-0.804125
-1.01488
-1.12816
-1.08368
-0.877468
-0.624668
-0.400058
-0.272871
-0.203787
-0.158631
-0.139261
-0.130204
-0.147
-0.19557
-0.307125
-0.500904
-0.643736
-0.629338
-0.521286
-0.396404
-0.333278
-0.347204
-0.366529
-0.282825
-0.18801
-0.141359
-0.161978
-0.269562
-0.427321
-0.462836
-0.362957
-0.234325
-0.155075
-0.122471
-0.113423
-0.098984
-0.0837626
-0.0674345
-0.053886
-0.0394086
-0.0255812
-0.0141343
-0.00678308
-0.00295267
-0.000808141
0.0342715
-0.0642175
-0.161602
-0.30078
-0.484112
-0.741524
-1.0055
-1.1754
-1.19752
-1.01675
-0.737073
-0.487485
-0.326321
-0.233575
-0.172711
-0.14486
-0.1289
-0.1267
-0.149285
-0.202871
-0.316754
-0.423947
-0.450121
-0.413274
-0.368347
-0.372948
-0.413658
-0.437931
-0.341815
-0.236155
-0.173334
-0.161429
-0.232387
-0.362333
-0.402111
-0.332076
-0.235604
-0.176948
-0.154652
-0.146838
-0.125189
-0.100907
-0.0766814
-0.0584221
-0.0417146
-0.0266663
-0.0145584
-0.00681524
-0.00293732
-0.00083656
0.119127
0.0631818
-0.0155279
-0.137928
-0.300619
-0.538746
-0.82894
-1.06527
-1.18099
-1.07321
-0.825191
-0.561959
-0.374031
-0.261706
-0.186616
-0.143275
-0.122491
-0.110394
-0.11906
-0.149033
-0.206404
-0.263773
-0.300662
-0.31044
-0.328817
-0.371935
-0.460763
-0.50538
-0.411103
-0.280383
-0.197215
-0.159883
-0.195414
-0.296785
-0.33612
-0.293875
-0.229113
-0.197354
-0.190486
-0.185741
-0.156803
-0.121275
-0.0873165
-0.0634011
-0.0442599
-0.0278207
-0.0150621
-0.00688976
-0.00295178
-0.000876749
0.139397
0.123361
0.0801692
-0.0129646
-0.13429
-0.31705
-0.569287
-0.811936
-0.985273
-0.963795
-0.780506
-0.553758
-0.378697
-0.261877
-0.186709
-0.139454
-0.107514
-0.0853
-0.0911491
-0.109084
-0.130611
-0.151335
-0.185855
-0.213051
-0.26009
-0.360134
-0.496554
-0.545682
-0.446464
-0.310269
-0.216659
-0.161637
-0.163478
-0.234783
-0.270021
-0.251907
-0.219883
-0.216934
-0.228734
-0.229492
-0.193323
-0.144509
-0.0993689
-0.0688554
-0.0470884
-0.0290501
-0.0156488
-0.00698866
-0.00298501
-0.00092423
0.13075
0.131773
0.131837
0.0854377
0.000126449
-0.12931
-0.313507
-0.533324
-0.724857
-0.823143
-0.750331
-0.583409
-0.411759
-0.281174
-0.189182
-0.140762
-0.10547
-0.0692695
-0.0665703
-0.0780049
-0.0832763
-0.0853446
-0.105459
-0.120241
-0.184166
-0.322925
-0.486281
-0.590616
-0.510869
-0.352392
-0.239945
-0.166509
-0.14203
-0.182879
-0.207769
-0.206911
-0.207449
-0.231857
-0.268662
-0.277017
-0.232603
-0.170487
-0.113403
-0.0752428
-0.0504004
-0.0304972
-0.0164173
-0.00715417
-0.00305773
-0.000985437
0.0883293
0.0974409
0.121907
0.123592
0.0803088
0.00632371
-0.112153
-0.26665
-0.430105
-0.544646
-0.557065
-0.484574
-0.373897
-0.275712
-0.192577
-0.14096
-0.107063
-0.0725648
-0.0547443
-0.0530333
-0.0491444
-0.0460641
-0.066935
-0.0575516
-0.108632
-0.257089
-0.49189
-0.622005
-0.558693
-0.404088
-0.264574
-0.168005
-0.121702
-0.139651
-0.15659
-0.162584
-0.188943
-0.243076
-0.306539
-0.326367
-0.276008
-0.198832
-0.128283
-0.0818788
-0.0534464
-0.0318087
-0.0171188
-0.00730726
-0.00317229
-0.00107071
0.0693068
0.0820093
0.095905
0.105448
0.0905492
0.0491022
-0.0300011
-0.14888
-0.291466
-0.397611
-0.415675
-0.363198
-0.291523
-0.221519
-0.160918
-0.118632
-0.0847953
-0.0528248
-0.0394455
-0.0320139
-0.0193584
-0.0137902
-0.00927654
-0.0008097
-0.0302639
-0.166242
-0.431983
-0.612478
-0.584999
-0.414525
-0.257315
-0.149641
-0.0972523
-0.104507
-0.112545
-0.120625
-0.163933
-0.244285
-0.340997
-0.376163
-0.315821
-0.222147
-0.139307
-0.086409
-0.0553278
-0.0324796
-0.0174429
-0.00732198
-0.00323414
-0.00113636
0.0491971
0.0665605
0.0801308
0.0869807
0.0745867
0.0413786
-0.0146517
-0.104325
-0.208329
-0.283978
-0.29811
-0.265646
-0.217179
-0.16942
-0.127735
-0.0967724
-0.0708361
-0.0386468
-0.0231843
-0.0129667
0.00434664
0.00820467
0.0103375
0.0320475
0.0175651
-0.0987668
-0.378968
-0.605668
-0.582605
-0.405867
-0.240865
-0.132885
-0.0730383
-0.0718367
-0.0753976
-0.0824997
-0.137769
-0.244586
-0.37802
-0.428169
-0.356
-0.245637
-0.150322
-0.0909819
-0.0572654
-0.0332525
-0.0178378
-0.00740387
-0.00331055
-0.00119453
0.0336376
0.0531132
0.0646308
0.0670891
0.0553647
0.0286605
-0.0101032
-0.064976
-0.122902
-0.174625
-0.19431
-0.184809
-0.163971
-0.134507
-0.101584
-0.073782
-0.0498772
-0.0249263
-0.0110304
0.00240917
0.0223218
0.0278605
0.0309228
0.0543178
0.0486298
-0.0650734
-0.346783
-0.568084
-0.558248
-0.384412
-0.216731
-0.112571
-0.0537157
-0.0450419
-0.0428214
-0.0495767
-0.113837
-0.249615
-0.420489
-0.485659
-0.400029
-0.271099
-0.161959
-0.095626
-0.0591556
-0.0340401
-0.0182447
-0.00752076
-0.00339764
-0.00125695
0.0244632
0.0389363
0.0474825
0.0488823
0.040452
0.0233015
0.00152654
-0.0283477
-0.0685516
-0.107308
-0.131982
-0.131083
-0.117262
-0.0957022
-0.0711959
-0.0507709
-0.0286332
-0.0117753
-0.00248102
0.0139839
0.0336935
0.0400175
0.0440354
0.0724753
0.0722216
-0.0383928
-0.289608
-0.494659
-0.501771
-0.335718
-0.182995
-0.0901853
-0.0354829
-0.0255142
-0.0180119
-0.0199379
-0.0934601
-0.259548
-0.46672
-0.546864
-0.445424
-0.297291
-0.173687
-0.100028
-0.0609342
-0.0348098
-0.0186353
-0.00764937
-0.00348179
-0.00131321
0.0174678
0.027027
0.0340798
0.0361676
0.0316855
0.0210256
0.00649395
-0.0122922
-0.0396851
-0.0646224
-0.0803369
-0.0859221
-0.0809869
-0.0694516
-0.0556854
-0.041805
-0.0232676
-0.00482357
0.0108739
0.026074
0.0427878
0.047829
0.0501209
0.0816404
0.0899464
-0.00289907
-0.212363
-0.383015
-0.391196
-0.263518
-0.139313
-0.0723909
-0.0227694
-0.0062089
0.00781191
0.00606697
-0.0748359
-0.268542
-0.512939
-0.608265
-0.490088
-0.322863
-0.184904
-0.103786
-0.0624497
-0.0354935
-0.0190242
-0.00783369
-0.00357724
-0.00136954
0.0146765
0.0207312
0.0257158
0.0270498
0.02393
0.0164294
0.00736528
-0.00336155
-0.0202424
-0.0365076
-0.0501798
-0.0570191
-0.0542414
-0.046283
-0.033932
-0.0194031
-0.00780024
0.00518585
0.0158843
0.0253853
0.0422201
0.0457693
0.0442996
0.0655652
0.0794868
0.016089
-0.12804
-0.256778
-0.280709
-0.180178
-0.0845341
-0.0335242
0.00159909
0.00811366
0.0213082
0.0280809
-0.0568838
-0.276649
-0.55506
-0.664217
-0.528769
-0.344271
-0.193868
-0.106341
-0.0634787
-0.0360107
-0.0193683
-0.00802321
-0.00367029
-0.00142607
0.0140349
0.0171217
0.0197755
0.0200821
0.0178626
0.0133724
0.00810301
0.00172567
-0.00824672
-0.0197369
-0.0280816
-0.0329517
-0.0328475
-0.0277695
-0.021556
-0.0135732
-0.00326416
0.00891284
0.0193538
0.0298989
0.0428534
0.0446893
0.0412912
0.0525778
0.0614137
0.0304221
-0.049498
-0.13625
-0.173713
-0.125829
-0.0580547
-0.040446
-0.0162949
0.0130363
0.0484073
0.0471766
-0.0375914
-0.279128
-0.588434
-0.70924
-0.559238
-0.359104
-0.198469
-0.106806
-0.0635507
-0.0361821
-0.0196613
-0.0082793
-0.0037963
-0.00145462
0.0130492
0.0149473
0.0161327
0.0160977
0.0142837
0.0116951
0.00853632
0.00453775
-0.000970112
-0.0081602
-0.0138793
-0.0177642
-0.0183473
-0.0155447
-0.0105567
-0.00152537
0.00662188
0.0150524
0.0231568
0.0295884
0.0389622
0.044132
0.0416646
0.0461887
0.0553056
0.0433478
0.000215155
-0.0583393
-0.0985137
-0.0721091
-0.00243185
-0.00589
-0.00693257
-0.00535137
0.00163154
0.0467114
-0.0235022
-0.278437
-0.607792
-0.735342
-0.576504
-0.365834
-0.198731
-0.105197
-0.062313
-0.0356481
-0.0196203
-0.00839583
-0.00388964
-0.00154033
0.0132175
0.0142663
0.0145684
0.0140625
0.0126768
0.0109384
0.00932667
0.00678405
0.00394773
-0.000329526
-0.00467947
-0.00647094
-0.00729202
-0.00511386
-0.000561869
0.00434477
0.0101441
0.0176738
0.0235308
0.0298363
0.0392891
0.0435304
0.0435415
0.0478576
0.0525881
0.048966
0.0127655
-0.0324824
-0.0685496
-0.0581557
-0.0508151
0.00535392
0.0651773
0.035698
0.0341796
0.0660332
-0.00843955
-0.269535
-0.60313
-0.733408
-0.57208
-0.359818
-0.194769
-0.103269
-0.0609276
-0.0350157
-0.0195753
-0.00853641
-0.0039291
-0.00149322
0.0141707
0.0142716
0.0140688
0.0132917
0.0123274
0.0110262
0.0104735
0.00908618
0.00759734
0.00532006
0.00266056
0.00157508
0.00102723
0.00231968
0.00526151
0.00894182
0.014037
0.0205157
0.0245758
0.0293036
0.0374206
0.0401641
0.0397031
0.041742
0.0444934
0.0395296
0.0155289
-0.00807812
-0.0351281
-0.0353473
-0.0116379
-0.0127531
-0.0342104
-0.0116675
-0.00793855
0.0465012
-0.00674238
-0.252216
-0.56845
-0.690008
-0.537565
-0.336225
-0.182917
-0.0993076
-0.0590031
-0.0344243
-0.0195661
-0.00877532
-0.00408077
-0.00161422
0.0151053
0.0147206
0.0144144
0.0135545
0.0127506
0.0118459
0.0116836
0.0112454
0.010418
0.00959758
0.00792547
0.00734216
0.00702048
0.00758094
0.0102348
0.0130163
0.0166225
0.0220002
0.0245564
0.0277706
0.0344469
0.0359945
0.034804
0.0360581
0.0369382
0.0305072
0.0168073
0.00160478
-0.0202861
-0.0367847
-0.0398774
-0.021583
0.0128347
-0.0119064
-0.0235931
0.0411996
-0.012746
-0.226576
-0.490499
-0.599116
-0.471869
-0.297284
-0.165571
-0.0923103
-0.0552626
-0.032785
-0.0186447
-0.00861769
-0.00413306
-0.00155012
0.0162982
0.015711
0.0152877
0.01443
0.0136552
0.0131071
0.0129391
0.0130536
0.0127716
0.0125896
0.0118073
0.0114247
0.0113844
0.0117584
0.0138228
0.0157511
0.0185099
0.0226774
0.0243542
0.0268247
0.0315372
0.0325083
0.0314121
0.0317729
0.0317649
0.0248578
0.0154771
0.0070639
-0.0139892
-0.0278901
-0.0152619
-0.0188634
-0.022644
-0.0624002
-0.0753841
-0.022722
-0.0412215
-0.193083
-0.382466
-0.470677
-0.375192
-0.243118
-0.14491
-0.087839
-0.0549557
-0.0333274
-0.0187622
-0.00867215
-0.00403791
-0.00157901
0.0173951
0.0168075
0.0163665
0.0156917
0.0149599
0.0144944
0.0142899
0.0146318
0.0146674
0.0148068
0.0146034
0.0143312
0.0145096
0.0146719
0.0161286
0.01775
0.019861
0.0227298
0.0240431
0.0258141
0.028724
0.0296181
0.0291428
0.0290065
0.0277894
0.023171
0.0176774
0.0105081
-0.00283713
-0.015123
-0.0192431
-0.0205894
-0.0269885
-0.0584791
-0.0637445
-0.0589524
-0.0798467
-0.152735
-0.253393
-0.321351
-0.273703
-0.18569
-0.115375
-0.0739595
-0.0481337
-0.0302138
-0.0180173
-0.00899521
-0.00423179
-0.00155011
0.0183203
0.0179545
0.01762
0.0171244
0.0163879
0.0159345
0.0157412
0.0160219
0.0162551
0.0164867
0.0165773
0.0164201
0.0164462
0.0166578
0.0177389
0.0190328
0.0205809
0.0226525
0.0234763
0.02454
0.0264503
0.0272658
0.0271063
0.0265009
0.0253704
0.0220586
0.0179069
0.0124558
0.00379019
-0.00433063
-0.00271194
-0.00201578
-0.00772111
-0.0311325
-0.0404599
-0.0601647
-0.082092
-0.0949765
-0.131667
-0.188643
-0.183779
-0.140521
-0.0956377
-0.0634044
-0.0408863
-0.0260142
-0.0162037
-0.00829688
-0.00411384
-0.00154174
0.0192945
0.0190944
0.0188994
0.0185413
0.0178898
0.0173757
0.0170971
0.0172948
0.0176131
0.0178796
0.0180795
0.0179483
0.0179699
0.0181036
0.0187693
0.0197729
0.0209789
0.0223039
0.022759
0.0233973
0.0244593
0.0250512
0.0250898
0.0242023
0.0229204
0.0205366
0.017268
0.0134834
0.00840189
0.00262446
0.00154798
0.00483101
-0.000621011
-0.0122735
-0.0140937
-0.0284787
-0.0420681
-0.0326072
-0.0503573
-0.102031
-0.118067
-0.100267
-0.0751434
-0.0564876
-0.0405768
-0.026681
-0.0156304
-0.00763818
-0.00359734
-0.00136929
0.0202138
0.0201384
0.0201101
0.0199042
0.019326
0.0187029
0.0183546
0.0184571
0.0187557
0.019033
0.0191956
0.0190545
0.0190107
0.0190462
0.0194561
0.0202422
0.0210665
0.0219336
0.0221046
0.0222062
0.0228284
0.0232519
0.0231628
0.0221413
0.020856
0.0193189
0.0165998
0.0134514
0.0102068
0.00613134
0.00488297
0.00728153
0.00340646
-0.00360223
-0.00990219
-0.00665662
-0.0106787
0.00247183
-0.0159059
-0.0529602
-0.0736585
-0.06989
-0.0545897
-0.0399501
-0.0284238
-0.0198305
-0.0132165
-0.00735724
-0.00374843
-0.00136318
0.0210698
0.0210718
0.021171
0.0210714
0.02056
0.0199127
0.0195058
0.0195026
0.0197225
0.0199441
0.0200432
0.0198941
0.0197328
0.0196601
0.0199174
0.0204557
0.0210337
0.0215427
0.0214141
0.021265
0.0215475
0.0216803
0.0215379
0.020625
0.0193502
0.0180795
0.0159247
0.0136481
0.0115676
0.00828648
0.00649536
0.00748604
0.0053467
0.000704817
-0.0011993
0.00328921
0.00306869
0.0120952
-0.00148196
-0.0282517
-0.0452357
-0.047638
-0.0427758
-0.0368341
-0.0288535
-0.0203507
-0.0126449
-0.00666147
-0.00329705
-0.00126746
0.0217935
0.0218398
0.0220292
0.0220397
0.0216451
0.0210281
0.0205383
0.0203918
0.0205097
0.0206869
0.0207149
0.0204893
0.0202536
0.0201311
0.0202291
0.0205399
0.0209154
0.0211633
0.0208826
0.0205011
0.0205013
0.0205698
0.0203121
0.0193746
0.0181961
0.0171959
0.0157341
0.0138869
0.0119603
0.00954486
0.00804446
0.00812604
0.00665016
0.00366951
0.00275832
0.00512417
0.00716702
0.0124918
0.00352631
-0.0146522
-0.029354
-0.0325822
-0.0296185
-0.0243357
-0.0184055
-0.013543
-0.00929903
-0.00535453
-0.00276794
-0.00100973
0.0224615
0.0225415
0.0227703
0.0228276
0.0224878
0.0219093
0.0213994
0.0211732
0.0212016
0.021291
0.0212189
0.0209426
0.0206701
0.0204529
0.0204194
0.0205771
0.0207956
0.0208763
0.0204422
0.0199119
0.0197816
0.0197201
0.0193233
0.0184974
0.0175517
0.0166811
0.0154853
0.0139064
0.0123584
0.0106717
0.00927892
0.00875095
0.00770153
0.00582166
0.00512364
0.00634648
0.00801607
0.010352
0.00456192
-0.0073254
-0.0163984
-0.0203928
-0.0213121
-0.0205858
-0.0174951
-0.0134156
-0.00901895
-0.00518787
-0.00270838
-0.00101803
0.0230676
0.0231334
0.0233591
0.0234454
0.023166
0.0226366
0.0221221
0.0218274
0.0217634
0.0217692
0.0216145
0.0212747
0.020952
0.0207013
0.0206042
0.0206136
0.0206821
0.0206394
0.0201232
0.0195085
0.0192405
0.0191005
0.0186925
0.0179251
0.0170763
0.01626
0.0152848
0.0140815
0.0127949
0.011386
0.0101706
0.00950673
0.00859961
0.00728019
0.00671069
0.00700439
0.00764331
0.00841946
0.00477698
-0.00289302
-0.010188
-0.0134808
-0.01455
-0.0136831
-0.0111251
-0.00851682
-0.00595744
-0.00350115
-0.00191017
-0.000718142
0.0235858
0.0236343
0.0238441
0.0239254
0.0236611
0.0231632
0.0226784
0.022373
0.0222485
0.0221576
0.0219103
0.0215319
0.0212138
0.0209475
0.0207555
0.0206302
0.0205859
0.0204695
0.01991
0.0192226
0.0188861
0.0187182
0.0182618
0.0175073
0.0167608
0.0160484
0.0152419
0.0142475
0.0130991
0.0119175
0.0109257
0.0101906
0.00930806
0.00833119
0.00770961
0.00733995
0.0073241
0.00737864
0.00469526
-0.000478815
-0.00474982
-0.00729765
-0.00897137
-0.0095743
-0.00863031
-0.00712439
-0.00510366
-0.00307696
-0.00163921
-0.000598186
0.0240015
0.0240211
0.0242035
0.0242877
0.0240688
0.0236208
0.0231438
0.0227975
0.0226117
0.0224603
0.0221652
0.02176
0.0214232
0.0211273
0.0208754
0.0206548
0.0205222
0.0203617
0.0197888
0.019071
0.0186877
0.0184713
0.0179828
0.0172727
0.0166067
0.0159617
0.0152358
0.0143676
0.0133841
0.0123687
0.0114848
0.0107621
0.00990782
0.00902299
0.00835807
0.00770519
0.00723494
0.00681142
0.00479032
0.00140454
-0.00168095
-0.00380873
-0.00546281
-0.00619118
-0.00549574
-0.00442976
-0.00314928
-0.00191983
-0.00110983
-0.000417853
0.0243928
0.0243788
0.0245236
0.0245855
0.0243676
0.0239291
0.0234572
0.0231075
0.022904
0.0227146
0.0223687
0.0219259
0.0215804
0.0212911
0.0210143
0.0207179
0.0205037
0.020304
0.019742
0.019014
0.0185829
0.0183306
0.0178362
0.0171622
0.0165398
0.0159353
0.0152707
0.0145037
0.0136415
0.0127242
0.011921
0.0112333
0.0103689
0.00952922
0.00886552
0.00802767
0.00730746
0.00671126
0.00507388
0.00258593
0.000583259
-0.000987852
-0.00247026
-0.00325457
-0.00305086
-0.00263172
-0.001929
-0.00113702
-0.000586094
-0.000212484
0.0247346
0.0246651
0.0247474
0.0247703
0.024557
0.0241527
0.0237125
0.0233705
0.0231438
0.022909
0.022526
0.0220777
0.0217451
0.0214588
0.0211425
0.0207755
0.0205077
0.020284
0.0197355
0.0190156
0.0185656
0.0182835
0.017777
0.0171351
0.0165426
0.0159655
0.0153437
0.01464
0.0138636
0.0130264
0.0122682
0.0115941
0.0107489
0.00994072
0.00925177
0.00834756
0.00756011
0.00685268
0.00540816
0.00366112
0.00230805
0.00104041
-0.000308306
-0.00107791
-0.00110682
-0.00101137
-0.000699073
-0.000424669
-0.000272503
-6.59818e-05
0.0250178
0.0249037
0.0249344
0.0249229
0.024709
0.0243201
0.0238886
0.0235448
0.0233113
0.0230589
0.0226561
0.0222021
0.0218696
0.0215908
0.021263
0.0208432
0.0205295
0.0202922
0.0197654
0.0190681
0.0186078
0.0182905
0.0177737
0.0171594
0.016588
0.0160287
0.0154299
0.0147722
0.0140621
0.0132768
0.0125512
0.0118905
0.011056
0.0102795
0.00957899
0.00866404
0.0078752
0.00713441
0.00585478
0.00450699
0.00351658
0.00247801
0.00132986
0.000633403
0.000436228
0.000288125
0.000308385
0.0003143
0.000274824
8.70479e-05
0.0252898
0.0251124
0.025066
0.0250083
0.0247964
0.0244343
0.0240152
0.0236643
0.0234193
0.0231694
0.0227802
0.0223294
0.0219795
0.021694
0.0213747
0.0209376
0.0205702
0.0202979
0.0198174
0.0191605
0.0186799
0.0183239
0.0178183
0.0172302
0.0166645
0.0161135
0.0155316
0.0149036
0.0142394
0.013495
0.0127862
0.0121272
0.0113124
0.0105722
0.00986831
0.00897986
0.00821977
0.007455
0.00631477
0.0052686
0.00449858
0.00357482
0.00256853
0.00192773
0.00164182
0.00135034
0.00115988
0.000817917
0.000535792
0.000278081
0.0255356
0.0252904
0.0251483
0.0250396
0.0248479
0.0245314
0.0241239
0.0237474
0.0234752
0.0232278
0.0228779
0.0224461
0.0220626
0.0217568
0.0214449
0.0210303
0.0206313
0.0202889
0.0198493
0.0192722
0.0187661
0.0183628
0.0178735
0.0173085
0.0167512
0.0162027
0.0156297
0.0150203
0.0143851
0.0136689
0.0129817
0.012308
0.0115169
0.0108211
0.0101036
0.00925798
0.00853156
0.00776616
0.00673554
0.00586653
0.00520922
0.00438446
0.00354517
0.00297934
0.00259152
0.00218522
0.00181733
0.00130618
0.000899223
0.000315658
0.0257252
0.0254204
0.0252047
0.0250653
0.0248953
0.0246135
0.0242038
0.0238006
0.0235193
0.0232943
0.0229757
0.0225483
0.0221311
0.0218208
0.0215253
0.021114
0.0206773
0.0202943
0.0198975
0.0193768
0.018852
0.018418
0.0179562
0.0174159
0.016918
0.0163164
0.0157254
0.0151199
0.0145086
0.0138135
0.0131383
0.0124587
0.0116926
0.0110309
0.0103104
0.00950965
0.00879663
0.00803268
0.00710698
0.00635117
0.00575486
0.00498373
0.00423243
0.00367477
0.0032785
0.00287582
0.00245447
0.0017094
0.00120583
0.000600812
0.0258074
0.0254635
0.0252403
0.0251238
0.0249745
0.0246651
0.0242086
0.0237964
0.0235498
0.0233722
0.0230555
0.0225737
0.0221341
0.0218627
0.021617
0.0211866
0.020639
0.0202637
0.0199618
0.0194205
0.0188354
0.0184102
0.0179057
0.0172892
0.0166749
0.0162146
0.0157018
0.0151285
0.0145529
0.0138883
0.0132285
0.0125375
0.0118143
0.0111636
0.0104346
0.0096867
0.00898367
0.00823285
0.00737229
0.00668509
0.00612255
0.00538537
0.0046912
0.0041854
0.00375992
0.0032445
0.00267048
0.00187742
0.00133703
0.000589043
0.0258277
0.0254432
0.0252583
0.0252117
0.0251006
0.0247449
0.0242007
0.0237872
0.0236022
0.023485
0.0231468
0.0225719
0.0221179
0.0219033
0.0217113
0.0212581
0.0205991
0.0202655
0.020081
0.0195042
0.0188568
0.0184856
0.0180036
0.0173653
0.0168174
0.0163221
0.0157749
0.0151875
0.0146066
0.0139465
0.0132989
0.0126088
0.0119088
0.0112522
0.0105334
0.009795
0.00908981
0.00837787
0.00754983
0.00687085
0.00632815
0.00564372
0.00494437
0.00448819
0.00413639
0.00358437
0.00293503
0.00220391
0.00183082
0.000964189
-0.0553581
-0.0586817
-0.0592716
-0.0546788
-0.0484528
-0.0356919
-0.0207612
-0.00362181
0.0218834
0.0434797
-0.0449386
-0.0461671
-0.0455415
-0.0399461
-0.0332594
-0.0236337
-0.0111163
0.000981357
0.0142036
0.028223
-0.0341502
-0.0353875
-0.0331731
-0.0286754
-0.02232
-0.0169649
-0.0100164
-0.00266164
0.00504646
0.0152981
-0.0250058
-0.0262128
-0.023326
-0.0202815
-0.01568
-0.0125571
-0.00765615
-0.0018757
0.00534276
0.0133901
-0.0172472
-0.0178991
-0.0153648
-0.0134279
-0.0100742
-0.00678601
-0.00116823
0.00391702
0.00909915
0.0121385
-0.0108895
-0.0108929
-0.00882781
-0.00732208
-0.00378249
-9.44378e-05
0.00417109
0.0059996
0.00842053
0.0103816
-0.00485458
-0.00457645
-0.00265682
-0.00144485
0.00145753
0.00377654
0.00571193
0.00722567
0.00999556
0.0118129
0.000467308
0.000636127
0.00246334
0.0031434
0.00484141
0.00693179
0.00867335
0.0104872
0.01223
0.0122144
0.0052819
0.00517183
0.00658336
0.00714876
0.0081618
0.0101782
0.0112523
0.0117109
0.0126413
0.0127582
0.00947712
0.00916231
0.00983608
0.010421
0.0108394
0.0121554
0.0128883
0.0132173
0.0142412
0.014536
0.0130471
0.012631
0.012566
0.0129119
0.0131914
0.0142767
0.0151342
0.0153275
0.0156291
0.015608
0.01595
0.0156192
0.0150473
0.0150714
0.0153994
0.0162479
0.0167878
0.0166521
0.0166221
0.0166136
0.0182589
0.0180487
0.0172643
0.0169515
0.0171416
0.0177759
0.018165
0.018018
0.0178947
0.0177167
0.0201713
0.0199782
0.01918
0.0186509
0.0186859
0.019144
0.0194455
0.0191767
0.0188691
0.0185708
0.0218591
0.0215701
0.0207834
0.0201345
0.0199945
0.0202073
0.0203527
0.0200532
0.0197275
0.0194745
0.0233415
0.0229268
0.0220905
0.0213482
0.0210734
0.0211022
0.0211579
0.0209243
0.0206097
0.0203712
0.0245484
0.0240841
0.0231913
0.0223675
0.0219925
0.0219279
0.0219263
0.0217381
0.0214581
0.0212193
0.0254826
0.025035
0.0241296
0.0232523
0.0228012
0.0227002
0.0226806
0.0225163
0.0222313
0.0219538
0.0262052
0.0258018
0.0249421
0.0240524
0.0235366
0.0233809
0.0233309
0.0231634
0.0228796
0.0226049
0.0267612
0.0263909
0.0255908
0.0247144
0.0241533
0.0239594
0.0239086
0.0237764
0.0235201
0.0232328
0.0271648
0.026813
0.026095
0.0252777
0.0247203
0.0245173
0.0244768
0.0243668
0.024105
0.023782
0.027464
0.0271303
0.0265038
0.0257707
0.0252396
0.0250243
0.0249684
0.0248503
0.0245742
0.0242253
0.0276829
0.0273582
0.0268101
0.0261617
0.025667
0.0254377
0.0253581
0.0252407
0.0249796
0.0246342
0.0278358
0.0275114
0.0270289
0.0264672
0.0260281
0.0258046
0.0257136
0.0256017
0.0253556
0.0250077
0.0279477
0.027625
0.0271974
0.0267141
0.0263295
0.0261113
0.0260079
0.0258968
0.0256617
0.0253143
0.0280121
0.0277136
0.0273518
0.0269362
0.0265841
0.0263528
0.0262298
0.0261288
0.0259285
0.025606
0.0279746
0.0277208
0.0274678
0.0271495
0.0268136
0.0265303
0.0263606
0.0262652
0.0261215
0.0258531
0.0279214
0.0277158
0.0275712
0.0273453
0.0270168
0.0266687
0.0264474
0.0263604
0.0262751
0.0260527
0.0278862
0.0277833
0.0276964
0.0274614
0.0270748
0.0266846
0.0264771
0.0264445
0.0263982
0.0261696
0.0279197
0.0279748
0.0279189
0.0276025
0.0271005
0.026684
0.0265367
0.0265878
0.0265622
0.026269
0.0726831
0.0748459
0.0771663
0.0796366
0.0819073
0.0838585
0.0849395
0.085255
0.0847004
0.0838218
0.0823432
0.0802891
0.0764776
0.0700288
0.0603224
0.0463821
0.0267693
-0.00112834
-0.0357052
-0.111729
0.058452
0.0601088
0.0599906
0.0589513
0.0580378
0.0572272
0.0561135
0.054451
0.0520395
0.0481953
0.0430522
0.0366904
0.0283098
0.0172057
0.0023496
-0.017528
-0.0436224
-0.0776342
-0.114728
-0.207794
0.044213
0.0447689
0.0426091
0.0391348
0.0355426
0.0318244
0.0280673
0.0239505
0.0186516
0.0121427
0.00408119
-0.00620966
-0.0185758
-0.0335085
-0.0520541
-0.076113
-0.107551
-0.151468
-0.191217
-0.299669
0.0274029
0.0259739
0.0220376
0.0174968
0.0127886
0.00741067
0.00138109
-0.0054929
-0.0132899
-0.0218518
-0.0322153
-0.0451028
-0.0611394
-0.0806088
-0.103981
-0.132114
-0.166914
-0.219422
-0.258439
-0.377417
0.0105924
0.00696982
0.000865156
-0.00563932
-0.0116686
-0.0181515
-0.025541
-0.0345668
-0.0448456
-0.056615
-0.0699308
-0.0849259
-0.10261
-0.124412
-0.151079
-0.182316
-0.21754
-0.278238
-0.3175
-0.442181
-0.00548095
-0.0100053
-0.0167366
-0.0248024
-0.0331164
-0.0418057
-0.0507037
-0.0614056
-0.0730415
-0.0869797
-0.102441
-0.119954
-0.13988
-0.163601
-0.192757
-0.228159
-0.26462
-0.326778
-0.369535
-0.483254
-0.0219091
-0.0285936
-0.0363434
-0.0439596
-0.0526857
-0.0629701
-0.0738332
-0.0860089
-0.0995565
-0.115188
-0.132809
-0.152863
-0.17508
-0.200191
-0.22935
-0.26649
-0.301227