/*--------------------------------*- C++ -*----------------------------------*\
| =========                 |                                                 |
| \\      /  F ield         | OpenFOAM: The Open Source CFD Toolbox           |
|  \\    /   O peration     | Version:  2312                                  |
|   \\  /    A nd           | Website:  www.openfoam.com                      |
|    \\/     M anipulation  |                                                 |
\*---------------------------------------------------------------------------*/
FoamFile
{
    version     2.0;
    format      ascii;
    arch        "LSB;label=32;scalar=64";
    class       volVectorField;
    location    "115.15";
    object      U;
}
// * * * * * * * * * * * * * * * * * * * * * * * * * * * * * * * * * * * * * //

dimensions      [0 1 -1 0 0 0 0];

internalField   nonuniform List<vector> 
5478
(
(-0.0467105 0.0304421 -1.08864e-19)
(-0.0723613 0.0474589 0)
(-0.0264826 0.0447315 1.62256e-19)
(0.112743 0.0309675 -2.83382e-19)
(0.349415 0.0121382 1.83991e-19)
(0.643117 -0.00387757 -5.50154e-20)
(0.932846 -0.0160169 -9.47306e-20)
(1.16886 -0.0277042 0)
(1.3249 -0.041273 0)
(1.39507 -0.0619446 1.21685e-19)
(1.40077 -0.0839976 -5.63249e-20)
(1.37054 -0.107378 -9.13784e-20)
(1.33542 -0.136508 -3.46839e-20)
(1.31182 -0.137982 0)
(1.27168 -0.192434 8.6322e-20)
(-0.0545709 0.033493 2.18788e-19)
(-0.0507243 0.0397116 0)
(0.068256 0.0238466 0)
(0.320343 0.00680701 -1.43873e-19)
(0.651452 -0.000149628 1.88964e-19)
(0.96679 0.000584173 5.38801e-20)
(1.20248 0.00161611 -9.1693e-20)
(1.33911 -0.00249887 8.13119e-20)
(1.38939 -0.0151768 1.98802e-19)
(1.38797 -0.0322933 -1.73497e-19)
(1.36758 -0.05187 4.11055e-21)
(1.34666 -0.0718792 0)
(1.32674 -0.0854054 3.46227e-20)
(1.2957 -0.100655 0)
(1.26005 -0.116392 0)
(-0.0535841 0.0296809 -6.27193e-22)
(0.00224472 0.0234216 -1.03242e-19)
(0.233149 0.0069491 8.57609e-22)
(0.598541 0.00799824 0)
(0.953729 0.0208555 -6.42312e-20)
(1.2048 0.0319572 5.40435e-20)
(1.33729 0.0340628 4.52054e-20)
(1.38178 0.02635 0)
(1.38241 0.0133326 -6.60846e-20)
(1.36932 -0.00178699 5.54749e-20)
(1.35187 -0.0171053 4.62592e-20)
(1.32973 -0.0297714 0)
(1.29942 -0.0455098 0)
(1.27123 -0.0533037 -9.29782e-20)
(1.24364 -0.0712638 8.28436e-20)
(-0.0406917 0.0198611 -1.20876e-19)
(0.100881 0.0019455 1.01829e-19)
(0.468559 0.00739142 -8.79175e-20)
(0.881901 0.0362688 7.74674e-20)
(1.17655 0.0606472 1.28908e-19)
(1.32887 0.07019 -1.07554e-19)
(1.38267 0.066979 -4.51836e-20)
(1.38892 0.0571501 3.51833e-20)
(1.37699 0.0447951 -3.36283e-20)
(1.35645 0.0312588 0)
(1.33169 0.0183191 0)
(1.30511 0.00327818 -6.54108e-20)
(1.28296 -0.00732171 8.47286e-20)
(1.26066 -0.0192996 -4.75765e-20)
(1.23707 -0.032517 0)
(-0.0119696 0.0068442 6.12543e-20)
(0.257851 -0.0087274 5.15894e-20)
(0.729075 0.0366866 -1.85384e-19)
(1.10423 0.0833058 2.76287e-21)
(1.30634 0.106108 -2.07827e-21)
(1.38331 0.109355 -1.83949e-21)
(1.39614 0.102328 4.29175e-20)
(1.38202 0.0910764 3.63095e-20)
(1.35827 0.0778724 2.62301e-20)
(1.33379 0.0645846 -4.00482e-21)
(1.31104 0.0506065 -5.97859e-20)
(1.29069 0.0391114 0)
(1.26787 0.027348 2.69124e-20)
(1.24424 0.015195 -1.98561e-20)
(1.22117 0.00753718 3.58429e-20)
(0.0400448 -0.00522197 -1.32644e-19)
(0.462857 0.00984427 1.43293e-19)
(0.95475 0.0891441 -4.90366e-20)
(1.25119 0.138324 3.67354e-20)
(1.37444 0.153784 -6.7743e-20)
(1.40189 0.150572 -5.01557e-20)
(1.38927 0.13961 1.4648e-21)
(1.36537 0.125973 0)
(1.34147 0.111989 5.32755e-20)
(1.3186 0.0977534 -4.73767e-20)
(1.29597 0.084764 1.89512e-20)
(1.27214 0.0711837 0)
(1.25014 0.0590029 1.16399e-20)
(1.22999 0.047558 -2.03606e-20)
(1.21105 0.0388689 0)
(0.119183 -0.00714104 -1.66315e-20)
(0.672435 0.0627093 1.40053e-21)
(1.12396 0.155921 2.40315e-20)
(1.33889 0.198157 4.00823e-20)
(1.40151 0.203827 -3.05081e-20)
(1.39749 0.193644 5.12827e-20)
(1.37372 0.178782 -1.16123e-20)
(1.34711 0.16313 0)
(1.32085 0.147157 -3.1419e-20)
(1.29606 0.131832 2.07552e-21)
(1.27312 0.116622 2.62031e-20)
(1.25295 0.103075 0)
(1.23358 0.0903185 -1.69914e-20)
(1.21453 0.0777989 0)
(1.19607 0.0712185 1.03671e-20)
(0.220253 0.00833726 -1.81263e-20)
(0.849156 0.138015 0)
(1.23735 0.231373 2.51178e-20)
(1.3806 0.261044 0)
(1.40134 0.255555 0)
(1.38023 0.23871 0)
(1.35048 0.219793 -9.93745e-21)
(1.32166 0.200729 0)
(1.29613 0.18231 6.34516e-21)
(1.27342 0.164633 0)
(1.25249 0.148468 -8.20679e-21)
(1.23198 0.132836 0)
(1.21287 0.118302 5.34559e-21)
(1.19581 0.105937 0)
(1.18041 0.0971609 3.47691e-21)
(-0.00247291 0.184032 -1.35178e-20)
(-0.0105429 0.362106 0)
(-0.0340865 0.425248 2.10369e-20)
(-0.0602491 0.442654 0)
(-0.0827507 0.448932 0)
(-0.0971992 0.448251 0)
(-0.100638 0.434342 -1.47961e-20)
(-0.0914498 0.401684 0)
(-0.0692646 0.347295 1.31838e-20)
(-0.0343907 0.270409 0)
(0.00921161 0.172259 -2.32556e-20)
(0.0576291 0.0537612 0)
(0.115123 -0.0795192 1.94415e-20)
(0.165112 -0.234815 0)
(0.249305 -0.395506 1.45406e-20)
(-0.0112738 0.167606 6.81035e-20)
(-0.0162596 0.360218 -4.83012e-20)
(-0.0205684 0.440628 2.15299e-20)
(-0.0244719 0.463061 7.65983e-20)
(-0.0222638 0.464262 1.28637e-21)
(-0.00925231 0.453523 -6.40811e-20)
(0.0172074 0.427678 4.38313e-20)
(0.057613 0.382647 0)
(0.110509 0.316725 4.18585e-20)
(0.173449 0.230417 2.79852e-21)
(0.241023 0.126778 -2.2829e-20)
(0.307707 0.00153778 0)
(0.393642 -0.125723 -5.84669e-20)
(0.445576 -0.291012 0)
(0.56662 -0.447955 -7.07291e-20)
(-0.0169203 0.133555 1.10255e-19)
(-0.022583 0.32562 2.36896e-20)
(-0.010006 0.423512 -4.24616e-20)
(0.00835845 0.455213 -1.14768e-19)
(0.0352855 0.454108 6.7797e-20)
(0.0743637 0.434794 6.47607e-20)
(0.127265 0.399023 -1.14786e-19)
(0.193513 0.345313 0)
(0.269839 0.273988 -1.07343e-19)
(0.351747 0.182531 9.54383e-20)
(0.437538 0.0872952 4.44874e-20)
(0.520066 -0.038613 0)
(0.632282 -0.154333 3.90058e-20)
(0.706536 -0.325609 -6.49834e-20)
(0.859457 -0.462848 0)
(-0.0184757 0.0917345 5.47655e-20)
(-0.0296296 0.262988 -1.4413e-19)
(-0.00838756 0.370865 1.68398e-19)
(0.0268377 0.413664 -1.47133e-19)
(0.07441 0.414975 -6.50501e-20)
(0.135109 0.391146 5.88861e-20)
(0.208525 0.348875 5.7389e-20)
(0.293 0.289694 5.04051e-20)
(0.383145 0.2183 -1.47993e-19)
(0.479531 0.128816 -4.67087e-21)
(0.583206 0.042334 3.9443e-20)
(0.699709 -0.0842937 0)
(0.841722 -0.197056 6.77311e-20)
(0.962364 -0.359322 1.8482e-19)
(1.11662 -0.475175 -1.06461e-19)
(-0.0173731 0.0545219 -3.37111e-22)
(-0.0367048 0.188638 9.43164e-20)
(-0.0174694 0.290317 -8.16007e-20)
(0.0247327 0.337767 7.30429e-20)
(0.0848968 0.342677 1.27312e-19)
(0.160083 0.318955 -1.1457e-19)
(0.247337 0.275907 -5.07655e-20)
(0.344825 0.217888 -1.50023e-19)
(0.454583 0.150428 1.35702e-19)
(0.582776 0.067425 0)
(0.731523 -0.0241556 0)
(0.900869 -0.143211 1.44273e-19)
(1.07557 -0.246861 -3.22033e-19)
(1.20729 -0.384322 1.1217e-19)
(1.31134 -0.443427 0)
(-0.0173341 0.030325 6.74661e-22)
(-0.0450197 0.122782 -9.29236e-20)
(-0.0350663 0.201385 2.43498e-19)
(0.00506087 0.241001 -7.05954e-20)
(0.0696291 0.244783 -6.23121e-20)
(0.155114 0.222667 5.57292e-20)
(0.262658 0.182832 5.08011e-20)
(0.397193 0.130009 9.32935e-20)
(0.563522 0.0635699 -1.65502e-19)
(0.756216 -0.0137647 7.61465e-20)
(0.964954 -0.099496 6.8958e-20)
(1.15572 -0.193577 0)
(1.31009 -0.266025 0)
(1.37977 -0.359133 1.78743e-19)
(1.38507 -0.369634 -1.58805e-19)
(-0.0226142 0.0212697 -1.151e-22)
(-0.057661 0.0781675 0)
(-0.0564584 0.125365 0)
(-0.0169684 0.147482 1.36605e-19)
(0.0610951 0.14412 -6.06926e-20)
(0.18333 0.120718 5.28133e-20)
(0.354648 0.0828523 9.69457e-20)
(0.568889 0.0355731 -8.59503e-20)
(0.805934 -0.0203136 8.27513e-20)
(1.03984 -0.0758881 -7.62201e-20)
(1.23549 -0.138705 -6.87449e-21)
(1.36992 -0.188957 0)
(1.42366 -0.242168 4.48397e-20)
(1.40021 -0.282905 0)
(1.34034 -0.28784 0)
(-0.0340913 0.0237815 -1.06108e-19)
(-0.0711656 0.0558721 0)
(-0.0631514 0.0738119 -1.59088e-19)
(0.00282382 0.0763466 2.77434e-19)
(0.139172 0.0621726 -3.0108e-19)
(0.347066 0.0370696 -5.32239e-20)
(0.60486 0.00752497 9.41309e-20)
(0.873742 -0.0232134 0)
(1.11441 -0.0547715 0)
(1.29543 -0.0857788 -1.33911e-19)
(1.39597 -0.122178 -5.80111e-20)
(1.42262 -0.149498 1.0245e-19)
(1.38578 -0.188598 -4.49364e-20)
(1.33438 -0.204312 0)
(1.29225 -0.222775 -1.04329e-19)
(0.349352 -0.629431 0)
(0.444853 -0.743191 3.3961e-21)
(0.412572 -0.789889 -3.12453e-21)
(0.197055 -0.815647 0)
(0.266103 -0.502503 0)
(0.547733 0.0708446 -9.65862e-23)
(0.686928 0.437997 0)
(0.80621 0.552554 0)
(0.836661 0.58126 5.44987e-23)
(0.712199 0.638244 0)
(0.606501 0.578254 0)
(0.727421 0.179991 -1.09096e-22)
(0.867942 -0.100529 0)
(0.970075 -0.286225 -9.55787e-23)
(0.947616 -0.528188 -8.75359e-23)
(0.985508 -0.516141 0)
(0.973018 -0.483119 -4.82428e-22)
(0.997251 -0.143292 5.88189e-22)
(1.00821 0.275912 0)
(1.05435 0.428304 4.68561e-22)
(1.08389 0.62557 -5.6175e-22)
(1.08407 0.257043 1.09138e-22)
(1.05971 -0.2315 -2.15e-22)
(1.10625 -0.382364 2.05437e-22)
(1.08113 -0.549074 -2.03281e-22)
(1.16517 -0.0706867 0)
(1.15229 0.727056 -2.46032e-22)
(1.09836 0.374466 2.35245e-22)
(1.00115 -0.377475 -1.6068e-22)
(1.02499 -0.227647 0)
(1.00932 0.0741912 -6.60199e-23)
(0.957399 0.095456 0)
(1.00798 0.0150573 -4.10858e-23)
(0.946255 -0.040506 -1.37386e-23)
(0.958719 -0.0074516 1.00734e-24)
(0.968059 0.0174159 -7.7695e-24)
(0.921743 0.00824243 0)
(0.912896 0.00610877 1.37962e-24)
(0.620505 -0.69845 2.59904e-20)
(0.649747 -0.80456 -1.21284e-22)
(0.658197 -0.726931 -8.36981e-21)
(0.419802 -0.718751 7.98354e-21)
(0.24091 -0.571479 0)
(0.41633 -0.0599311 9.73449e-23)
(0.591166 0.336192 -1.0593e-22)
(0.768509 0.498162 0)
(0.802387 0.60442 -5.49131e-23)
(0.657772 0.699121 0)
(0.591003 0.577669 0)
(0.744575 0.124553 1.09877e-22)
(0.893406 -0.156924 0)
(1.01967 -0.30206 3.13835e-21)
(0.96953 -0.534202 -2.63776e-21)
(1.01006 -0.530069 2.10132e-21)
(1.00041 -0.486733 -2.00582e-21)
(0.984806 -0.151529 -1.28346e-22)
(1.00449 0.259974 0)
(1.01483 0.407106 0)
(1.06228 0.616274 -1.04858e-22)
(1.08488 0.26708 9.22704e-22)
(1.05508 -0.229749 -1.59986e-21)
(1.13152 -0.387487 7.77776e-22)
(1.08118 -0.551781 6.30237e-22)
(1.13325 -0.0838624 0)
(1.15486 0.726533 5.96184e-22)
(1.11812 0.388483 0)
(1.01906 -0.369546 1.61239e-22)
(1.03031 -0.232046 -1.98332e-22)
(1.00379 0.0785958 3.25807e-22)
(0.960165 0.094633 -3.7827e-23)
(1.01753 0.0163221 7.02378e-23)
(0.950589 -0.0368673 5.40204e-24)
(0.957059 -0.00906484 1.45287e-23)
(0.972881 0.0194561 -7.01475e-24)
(0.930061 0.0115093 -4.88371e-25)
(0.918028 0.00669934 4.9189e-25)
(0.895763 -0.685913 3.88435e-20)
(0.824851 -0.815056 -6.23972e-20)
(0.788851 -0.699244 8.97963e-21)
(0.660528 -0.594961 1.46572e-20)
(0.366216 -0.564759 1.22071e-22)
(0.381915 -0.191566 -6.86826e-23)
(0.554341 0.214907 1.07759e-22)
(0.736043 0.441285 -1.76011e-22)
(0.791436 0.628479 0)
(0.661186 0.748144 8.51713e-21)
(0.626694 0.580951 -8.12368e-21)
(0.797025 0.0862235 -3.10754e-22)
(0.930182 -0.208179 0)
(1.05968 -0.301052 -6.20131e-21)
(0.992285 -0.515164 5.73609e-21)
(1.02319 -0.538161 -2.20993e-21)
(1.02023 -0.488267 2.10874e-21)
(0.969321 -0.16236 2.73757e-21)
(0.998495 0.250472 -2.33224e-21)
(0.975026 0.394574 0)
(1.03716 0.604595 0)
(1.08276 0.281441 1.4642e-21)
(1.04953 -0.219013 -1.39767e-21)
(1.14702 -0.387585 -1.60728e-21)
(1.07063 -0.547863 -4.95429e-22)
(1.088 -0.105267 1.94343e-21)
(1.15163 0.722652 2.0491e-23)
(1.13314 0.410724 -6.74935e-22)
(1.03155 -0.351214 1.39274e-21)
(1.03287 -0.23392 -1.08151e-21)
(0.995631 0.0825732 4.40666e-23)
(0.95956 0.0932303 -1.09356e-22)
(1.02414 0.0179158 5.23465e-23)
(0.952947 -0.0322038 -5.00502e-23)
(0.952515 -0.0106741 -8.58301e-24)
(0.97512 0.0207699 -5.95876e-24)
(0.936817 0.0147171 1.19192e-23)
(0.921699 0.00748269 1.4361e-24)
(1.11675 -0.642374 0)
(1.02017 -0.731096 2.3562e-20)
(0.845901 -0.674464 -2.31582e-20)
(0.787303 -0.495364 0)
(0.561295 -0.478795 -1.25463e-22)
(0.448112 -0.295353 7.05673e-23)
(0.609487 0.0731355 0)
(0.753977 0.356705 2.94235e-23)
(0.748747 0.62731 -2.11684e-22)
(0.614589 0.797283 0)
(0.66066 0.597679 -1.06433e-20)
(0.866861 0.0706004 1.04635e-20)
(0.977019 -0.249468 -5.38401e-22)
(1.09624 -0.304078 -6.25815e-21)
(1.03041 -0.493832 5.96701e-21)
(1.03946 -0.548134 2.91508e-22)
(1.03675 -0.492124 0)
(0.960049 -0.179546 -3.00409e-22)
(0.995347 0.224958 4.77186e-21)
(0.932859 0.369683 -9.13525e-22)
(0.999755 0.584821 -8.26814e-22)
(1.07094 0.296052 -2.26717e-21)
(1.0447 -0.206298 -2.49058e-21)
(1.15165 -0.387161 3.01292e-21)
(1.05316 -0.539638 -4.42079e-22)
(1.03558 -0.131771 0)
(1.13552 0.696355 -6.31064e-22)
(1.13665 0.424225 6.83853e-22)
(1.03825 -0.331826 -1.34278e-21)
(1.03327 -0.236168 1.02958e-21)
(0.985259 0.0846511 -1.52156e-22)
(0.955643 0.0905116 0)
(1.02756 0.0192376 -4.99907e-23)
(0.95336 -0.0267851 9.17314e-23)
(0.945541 -0.0122959 2.83479e-23)
(0.974924 0.0212709 2.80812e-23)
(0.941937 0.0177853 -1.19276e-23)
(0.924041 0.00844603 1.9706e-26)
(1.22482 -0.583648 5.19094e-22)
(1.12983 -0.609367 8.35616e-22)
(0.9122 -0.608406 0)
(0.801558 -0.464271 0)
(0.717523 -0.387337 0)
(0.560067 -0.3494 0)
(0.664323 -0.0691611 3.30565e-21)
(0.788939 0.287845 -8.97104e-21)
(0.768142 0.627291 6.06332e-21)
(0.683466 0.804081 0)
(0.751288 0.59719 -1.08496e-20)
(0.947691 0.0684741 1.06276e-20)
(1.03547 -0.275235 8.66214e-21)
(1.12069 -0.304356 -7.31131e-21)
(1.06127 -0.461373 5.34181e-21)
(1.04567 -0.547809 -5.39037e-21)
(1.04123 -0.495668 -2.80477e-22)
(0.945663 -0.20016 -5.48429e-21)
(0.983183 0.214483 5.22696e-21)
(0.894066 0.362389 5.2509e-22)
(0.967105 0.565738 3.44612e-22)
(1.05763 0.311214 2.02818e-21)
(1.04347 -0.188429 -2.22758e-21)
(1.1459 -0.380698 -6.21877e-22)
(1.0328 -0.527294 -4.17257e-22)
(0.972717 -0.164456 -6.78058e-22)
(1.11566 0.67561 0)
(1.13701 0.448849 0)
(1.0405 -0.305407 0)
(1.03176 -0.236245 0)
(0.973689 0.0866802 3.90637e-22)
(0.949262 0.0874007 -2.25345e-22)
(1.02804 0.0205356 9.55518e-23)
(0.952069 -0.0205641 -2.65542e-22)
(0.936811 -0.0137965 2.792e-23)
(0.97262 0.0209671 5.08666e-24)
(0.945448 0.0206538 -1.51463e-23)
(0.925251 0.00956718 -3.7193e-24)
(1.2574 -0.476664 -5.46747e-22)
(1.13928 -0.499767 4.31813e-20)
(0.98247 -0.505329 -4.15219e-20)
(0.806354 -0.443932 -1.96231e-20)
(0.782278 -0.351132 1.86888e-20)
(0.69051 -0.351411 7.66203e-21)
(0.689373 -0.195469 -7.15162e-21)
(0.794029 0.171202 1.32818e-22)
(0.747671 0.560189 -2.20199e-22)
(0.635069 0.801401 0)
(0.732888 0.637495 -3.22623e-22)
(0.983302 0.114039 2.12205e-20)
(1.0908 -0.266972 -2.01941e-20)
(1.14666 -0.294078 -4.29456e-22)
(1.09451 -0.425549 0)
(1.05494 -0.539339 -5.10146e-21)
(1.03723 -0.499264 1.01481e-20)
(0.931809 -0.22599 -4.66428e-21)
(0.969808 0.178745 0)
(0.859052 0.334837 3.09984e-21)
(0.922397 0.540191 -1.5167e-21)
(1.0324 0.328928 -2.19534e-21)
(1.04359 -0.167147 -2.63687e-21)
(1.13364 -0.370831 2.52388e-21)
(1.0147 -0.511364 -4.55368e-21)
(0.912308 -0.199533 -1.21383e-21)
(1.08332 0.629531 5.93527e-21)
(1.12199 0.463472 -1.81707e-21)
(1.03724 -0.281218 1.7274e-21)
(1.02889 -0.237084 -4.40599e-22)
(0.961035 0.0869003 4.18991e-22)
(0.940655 0.083335 0)
(1.02566 0.021451 9.16055e-23)
(0.949256 -0.0138035 -1.54573e-23)
(0.927056 -0.0152149 0)
(0.96865 0.0198461 -2.79761e-23)
(0.947455 0.0232545 9.44021e-24)
(0.925564 0.0108091 -1.19627e-24)
(1.24397 -0.37039 0)
(1.13525 -0.408119 0)
(1.03207 -0.424124 -1.39635e-22)
(0.877874 -0.39864 0)
(0.805736 -0.330236 0)
(0.780004 -0.340009 9.33836e-21)
(0.706712 -0.277152 -8.87941e-21)
(0.729825 0.0869065 1.08317e-20)
(0.711342 0.536657 -1.02585e-20)
(0.690456 0.776497 0)
(0.825303 0.603986 -2.44427e-22)
(1.04268 0.115516 3.0483e-22)
(1.13984 -0.269619 -1.73885e-20)
(1.16725 -0.290534 3.39589e-21)
(1.11268 -0.393396 1.223e-20)
(1.061 -0.518681 1.63315e-22)
(1.02634 -0.500947 -1.36646e-22)
(0.909256 -0.256346 1.18059e-20)
(0.948786 0.165355 -1.1577e-20)
(0.822199 0.332444 0)
(0.892858 0.521203 0)
(1.01432 0.338707 -9.81691e-23)
(1.04696 -0.145201 0)
(1.12022 -0.352649 2.73232e-21)
(1.00134 -0.490917 2.34397e-21)
(0.849417 -0.235562 -4.36963e-21)
(1.05612 0.596218 -4.90904e-21)
(1.1094 0.486637 3.20592e-21)
(1.03382 -0.248716 -1.2553e-22)
(1.02621 -0.235576 0)
(0.948832 0.0880267 -2.37587e-22)
(0.931137 0.0791704 2.25255e-22)
(1.02104 0.0220588 5.07102e-23)
(0.945358 -0.00661225 2.38731e-23)
(0.917101 -0.0164448 -3.60176e-23)
(0.963549 0.018038 1.06698e-23)
(0.948139 0.0255741 0)
(0.925229 0.0121355 2.88236e-24)
(1.23649 -0.294292 6.40049e-20)
(1.16433 -0.332534 4.60123e-20)
(1.06945 -0.369775 -9.80721e-21)
(0.966863 -0.367659 -5.55236e-20)
(0.858893 -0.323116 2.2231e-20)
(0.802927 -0.33526 -9.25548e-23)
(0.72858 -0.328175 0)
(0.656765 -0.0897398 -9.29532e-23)
(0.627025 0.349859 -1.08973e-22)
(0.600239 0.712979 0)
(0.694931 0.674806 -1.69277e-20)
(1.00772 0.223309 1.60316e-20)
(1.17009 -0.209048 3.02415e-22)
(1.19506 -0.265268 1.2867e-20)
(1.13334 -0.351623 -1.22156e-20)
(1.07311 -0.492207 1.47057e-22)
(1.01536 -0.490721 1.45402e-22)
(0.889665 -0.292989 0)
(0.914489 0.113429 1.11224e-20)
(0.791752 0.296156 -1.05342e-20)
(0.845406 0.489074 -2.22288e-21)
(0.975668 0.360975 5.37907e-22)
(1.04876 -0.113318 1.5883e-21)
(1.11197 -0.332224 -2.42209e-21)
(0.985297 -0.460871 -2.18785e-21)
(0.804205 -0.279821 1.08173e-20)
(1.01315 0.533571 -4.77444e-21)
(1.08055 0.502025 1.69344e-21)
(1.02676 -0.218354 -1.24304e-21)
(1.02308 -0.233372 0)
(0.936281 0.086739 0)
(0.920735 0.0744696 0)
(1.01448 0.0223618 3.45698e-23)
(0.940827 0.000768069 -4.73249e-23)
(0.907745 -0.0176365 3.71042e-23)
(0.95778 0.0154796 -2.53437e-23)
(0.947676 0.0275215 -9.11677e-24)
(0.924485 0.0134761 0)
(1.22716 -0.200636 0)
(1.18463 -0.228757 0)
(1.10414 -0.252465 0)
(1.02221 -0.270361 0)
(0.947 -0.214189 0)
(0.863219 -0.213546 0)
(0.741293 -0.260971 0)
(0.576146 -0.0722416 0)
(0.483261 0.357647 0)
(0.520862 0.64374 0)
(0.804837 0.532102 0)
(1.16868 0.143495 0)
(1.23093 -0.209976 0)
(1.21618 -0.232527 0)
(1.14922 -0.278133 0)
(1.09004 -0.449065 0)
(1.00195 -0.499381 0)
(0.871924 -0.318707 0)
(0.877595 0.101396 0)
(0.750863 0.304228 0)
(0.808518 0.469596 0)
(0.973476 0.35511 0)
(1.0637 -0.101638 0)
(1.11524 -0.31991 0)
(0.953211 -0.452619 0)
(0.778718 -0.305357 0)
(0.982264 0.484055 0)
(1.04901 0.527387 0)
(1.02388 -0.201102 0)
(1.01972 -0.22884 0)
(0.923725 0.0910422 0)
(0.909805 0.0692947 0)
(1.00514 0.022092 0)
(0.935188 0.0101477 0)
(0.897764 -0.0183835 0)
(0.95015 0.0121688 0)
(0.945952 0.0297305 0)
(0.923439 0.0151834 0)
(1.16842 -0.159579 0)
(1.13362 -0.200335 0)
(1.06936 -0.233934 0)
(0.985279 -0.242859 0)
(0.913017 -0.196259 0)
(0.871868 -0.209937 0)
(0.80541 -0.180733 0)
(0.654611 0.057061 0)
(0.58285 0.35833 0)
(0.732039 0.49367 0)
(1.05355 0.343094 0)
(1.2863 0.0255728 0)
(1.25824 -0.213076 0)
(1.1933 -0.216334 0)
(1.11064 -0.299346 0)
(1.05218 -0.439257 0)
(0.937127 -0.414965 0)
(0.804368 -0.240962 0)
(0.801566 0.156315 0)
(0.644458 0.332165 0)
(0.769617 0.435309 0)
(0.977549 0.281878 0)
(1.08397 -0.145564 0)
(1.10122 -0.303637 0)
(0.882905 -0.377686 0)
(0.707469 -0.279115 0)
(0.924426 0.469562 0)
(0.995057 0.501554 0)
(1.02751 -0.209219 0)
(1.01687 -0.207927 0)
(0.902798 0.110506 0)
(0.893983 0.0590492 0)
(0.993628 0.0182016 0)
(0.929379 0.0204991 0)
(0.889052 -0.019676 0)
(0.942004 0.00728351 0)
(0.943352 0.0317196 0)
(0.922837 0.0170662 0)
(1.1329 -0.115708 0)
(1.11222 -0.145311 0)
(1.06739 -0.150765 0)
(1.00395 -0.163966 0)
(0.948984 -0.122829 0)
(0.911146 -0.113392 0)
(0.832806 -0.105544 0)
(0.747532 0.0888632 0)
(0.790859 0.296315 0)
(0.968638 0.315506 0)
(1.18836 0.189292 0)
(1.2987 0.0143707 0)
(1.23044 -0.1704 0)
(1.16314 -0.16873 0)
(1.12621 -0.212218 0)
(1.05579 -0.355644 0)
(0.880864 -0.366319 0)
(0.719711 -0.219402 0)
(0.683257 0.192251 0)
(0.552286 0.31709 0)
(0.743574 0.333732 0)
(0.987181 0.219067 0)
(1.10602 -0.136206 0)
(1.09096 -0.263681 0)
(0.83306 -0.322361 0)
(0.616585 -0.286867 0)
(0.826476 0.418144 0)
(0.961838 0.473217 0)
(1.04255 -0.202117 0)
(1.0107 -0.192376 0)
(0.88347 0.12258 0)
(0.884539 0.0461707 0)
(0.985011 0.013972 0)
(0.925102 0.0322611 0)
(0.884535 -0.0206903 0)
(0.936627 0.00132829 0)
(0.941384 0.0332131 0)
(0.923503 0.018941 0)
(1.10295 -0.0807236 0)
(1.08621 -0.104732 0)
(1.05387 -0.11301 0)
(1.00856 -0.12278 0)
(0.960603 -0.0949422 0)
(0.94049 -0.0826014 0)
(0.892878 -0.0542836 0)
(0.843593 0.0754889 0)
(0.922314 0.18656 0)
(1.06557 0.20033 0)
(1.18069 0.1125 0)
(1.22443 -0.00756422 0)
(1.19441 -0.11577 0)
(1.12293 -0.136544 0)
(1.0677 -0.234971 0)
(0.992259 -0.311521 0)
(0.821366 -0.247062 0)
(0.648787 -0.131137 0)
(0.572383 0.237402 0)
(0.578433 0.288858 0)
(0.776372 0.233012 0)
(1.00375 0.124302 0)
(1.11156 -0.173262 0)
(1.06114 -0.210588 0)
(0.804502 -0.215998 0)
(0.539739 -0.254481 0)
(0.72932 0.357736 0)
(0.96532 0.415749 0)
(1.06696 -0.210685 0)
(1.00013 -0.163969 0)
(0.863836 0.142263 0)
(0.879671 0.0316123 0)
(0.97908 0.00854328 0)
(0.922791 0.0447371 0)
(0.885425 -0.0218974 0)
(0.935393 -0.00525084 0)
(0.940231 0.0344757 0)
(0.925539 0.0206548 0)
(1.07912 -0.0555394 0)
(1.06941 -0.0749071 0)
(1.04738 -0.0744498 0)
(1.01602 -0.0837498 0)
(0.984827 -0.0600511 0)
(0.967617 -0.0436832 0)
(0.941184 -0.0244335 0)
(0.923501 0.0584573 0)
(0.977268 0.108896 0)
(1.06374 0.114548 0)
(1.14053 0.0749599 0)
(1.15639 -0.00242361 0)
(1.14143 -0.106459 0)
(1.10193 -0.0924298 0)
(1.07227 -0.144671 0)
(0.985294 -0.221868 0)
(0.833738 -0.157212 0)
(0.700129 -0.0730526 0)
(0.610883 0.234849 0)
(0.745088 0.217721 0)
(0.884316 0.123881 0)
(1.04532 0.0624476 0)
(1.1081 -0.159919 0)
(1.03863 -0.150551 0)
(0.845663 -0.125697 0)
(0.552451 -0.233356 0)
(0.663549 0.266728 0)
(0.992864 0.346932 0)
(1.09713 -0.202698 0)
(0.977945 -0.129952 0)
(0.837192 0.159305 0)
(0.881912 0.0118932 0)
(0.979147 0.00178409 0)
(0.925072 0.0574761 0)
(0.892845 -0.0238355 0)
(0.939735 -0.0121388 0)
(0.942529 0.0358508 0)
(0.930727 0.0221778 0)
(1.06427 -0.0349815 0)
(1.05641 -0.0496933 0)
(1.04294 -0.0470307 0)
(1.0229 -0.0551058 0)
(0.999459 -0.0378634 0)
(0.990488 -0.0266755 0)
(0.975337 -0.0124529 0)
(0.971324 0.0372977 0)
(1.00738 0.0561099 0)
(1.04912 0.0686853 0)
(1.09694 0.0371616 0)
(1.11779 -0.00911039 0)
(1.1008 -0.0665497 0)
(1.05646 -0.0724618 0)
(1.0444 -0.143789 0)
(0.972361 -0.176043 0)
(0.869314 -0.0655896 0)
(0.800988 -0.015931 0)
(0.754065 0.19746 0)
(0.936751 0.156853 0)
(0.99944 0.0736943 0)
(1.08468 0.0190776 0)
(1.08821 -0.165008 0)
(0.993882 -0.108221 0)
(0.912116 -0.020617 0)
(0.682086 -0.16261 0)
(0.650408 0.169508 0)
(1.01382 0.243434 0)
(1.11435 -0.198671 0)
(0.936726 -0.0755014 0)
(0.815787 0.177022 0)
(0.904302 -0.0157545 0)
(0.985777 -0.00641353 0)
(0.930632 0.0711703 0)
(0.90771 -0.0261349 0)
(0.950868 -0.0191914 0)
(0.949612 0.0374753 0)
(0.939382 0.0236267 0)
(1.05289 -0.0201105 0)
(1.04775 -0.0313465 0)
(1.03968 -0.0285264 0)
(1.0276 -0.034303 0)
(1.01151 -0.0240551 0)
(1.00814 -0.014553 0)
(0.99758 -0.00739008 0)
(1.00105 0.0223803 0)
(1.01839 0.0269423 0)
(1.04081 0.0368547 0)
(1.07095 0.0154411 0)
(1.07774 -0.00843452 0)
(1.07162 -0.0566601 0)
(1.04845 -0.0505804 0)
(1.04212 -0.0835239 0)
(0.959299 -0.113426 0)
(0.900688 -0.0208214 0)
(0.89298 -0.00281311 0)
(0.880131 0.143204 0)
(1.03496 0.0924882 0)
(1.04901 0.0331921 0)
(1.09811 0.0155626 0)
(1.08457 -0.113059 0)
(0.956177 -0.072114 0)
(0.959529 0.0234199 0)
(0.873274 -0.0984584 0)
(0.745574 0.101799 0)
(1.03857 0.156278 0)
(1.11539 -0.176987 0)
(0.904568 -0.0195087 0)
(0.840436 0.176795 0)
(0.952776 -0.0479289 0)
(0.994017 -0.0111044 0)
(0.94044 0.0848724 0)
(0.935158 -0.0301023 0)
(0.967244 -0.0257637 0)
(0.957043 0.0399088 0)
(0.950753 0.0250437 0)
(1.04447 -0.0101843 0)
(1.0424 -0.0175505 0)
(1.03696 -0.0161688 0)
(1.03119 -0.0197302 0)
(1.01917 -0.0146124 0)
(1.01907 -0.00821739 0)
(1.01113 -0.00588813 0)
(1.0162 0.011975 0)
(1.02384 0.0090383 0)
(1.03573 0.0187387 0)
(1.05202 0.00148538 0)
(1.05569 -0.0099149 0)
(1.05431 -0.0365921 0)
(1.0248 -0.0399988 0)
(1.03181 -0.0613487 0)
(0.969285 -0.0785269 0)
(0.941575 -0.0028464 0)
(0.947487 -0.0037081 0)
(0.948332 0.0915111 0)
(1.05385 0.0583783 0)
(1.04318 0.0269238 0)
(1.07191 0.00376215 0)
(1.06371 -0.0869538 0)
(0.958021 -0.0508557 0)
(0.978819 0.0289634 0)
(0.977668 -0.0502123 0)
(0.869566 0.077023 0)
(1.05639 0.0918683 0)
(1.08342 -0.150445 0)
(0.891972 0.0322074 0)
(0.911137 0.164368 0)
(1.00775 -0.071557 0)
(0.993057 -0.00869574 0)
(0.956569 0.0953512 0)
(0.976257 -0.0348939 0)
(0.981343 -0.0284214 0)
(0.963686 0.0435205 0)
(0.968458 0.025433 0)
(1.03839 -0.00361533 0)
(1.03835 -0.00810135 0)
(1.03483 -0.00840987 0)
(1.03216 -0.0100979 0)
(1.02397 -0.009098 0)
(1.02489 -0.0043069 0)
(1.01905 -0.00526564 0)
(1.0231 0.0055005 0)
(1.02613 0.000608898 0)
(1.03088 0.00735751 0)
(1.04145 -0.00454385 0)
(1.03752 -0.0100884 0)
(1.0418 -0.0262856 0)
(1.0187 -0.0307732 0)
(1.02705 -0.0327212 0)
(0.980608 -0.0490973 0)
(0.97122 0.00534327 0)
(0.975844 -0.00501632 0)
(0.976952 0.0578362 0)
(1.04088 0.0341902 0)
(1.03393 0.0153024 0)
(1.05743 0.00729554 0)
(1.04434 -0.0500581 0)
(0.971668 -0.0302923 0)
(0.987711 0.0239552 0)
(1.00721 -0.0332671 0)
(0.941127 0.0513342 0)
(1.06527 0.0659998 0)
(1.04451 -0.111255 0)
(0.903291 0.0570192 0)
(0.994672 0.137414 0)
(1.04895 -0.0782972 0)
(0.985533 0.00203257 0)
(0.987101 0.0974526 0)
(1.02301 -0.0380108 0)
(0.988825 -0.0244776 0)
(0.979114 0.0462453 0)
(0.995908 0.0239482 0)
(1.03366 0.000481035 0)
(1.03475 -0.00213568 0)
(1.03255 -0.00341797 0)
(1.03159 -0.0042231 0)
(1.02643 -0.00510776 0)
(1.02674 -0.00212505 0)
(1.02347 -0.00435861 0)
(1.02477 0.00186541 0)
(1.02708 -0.00290596 0)
(1.02671 0.00132335 0)
(1.03447 -0.00621479 0)
(1.02739 -0.00979378 0)
(1.03446 -0.0159096 0)
(1.01394 -0.0232368 0)
(1.02132 -0.0182371 0)
(0.992819 -0.0334585 0)
(0.988678 0.00667683 0)
(0.993044 -0.0064874 0)
(0.991803 0.0347122 0)
(1.03181 0.0202328 0)
(1.02378 0.0101145 0)
(1.03839 0.00419578 0)
(1.03309 -0.0326284 0)
(0.987375 -0.0211215 0)
(0.997126 0.0167142 0)
(1.01713 -0.0175402 0)
(0.964027 0.0331439 0)
(1.05857 0.0479064 0)
(1.02379 -0.0782798 0)
(0.927673 0.0559773 0)
(1.04835 0.106244 0)
(1.06067 -0.0686077 0)
(0.974518 0.0115728 0)
(1.02394 0.086362 0)
(1.05349 -0.0354388 0)
(0.987978 -0.0155914 0)
(1.00057 0.0434048 0)
(1.02262 0.0203781 0)
(1.02985 0.00287224 0)
(1.03126 0.00126996 0)
(1.03028 -0.000244472 0)
(1.02972 -0.000778298 0)
(1.0269 -0.00236768 0)
(1.02638 -0.000753476 0)
(1.02509 -0.00311686 0)
(1.0243 0.000121504 0)
(1.02662 -0.00346337 0)
(1.02345 -0.00150164 0)
(1.02975 -0.00556513 0)
(1.02175 -0.00853219 0)
(1.02799 -0.00967855 0)
(1.01354 -0.0177368 0)
(1.01817 -0.00787501 0)
(1.00261 -0.0223787 0)
(0.999025 0.00724157 0)
(1.0039 -0.00594618 0)
(0.999875 0.0214408 0)
(1.02495 0.0108389 0)
(1.01911 0.00553009 0)
(1.02849 0.00495116 0)
(1.0257 -0.0170504 0)
(0.998373 -0.0109826 0)
(0.999718 0.0120792 0)
(1.01966 -0.0075985 0)
(0.978446 0.0177661 0)
(1.04654 0.0382816 0)
(1.01868 -0.0456452 0)
(0.946326 0.0425738 0)
(1.06203 0.0770701 0)
(1.0551 -0.0471956 0)
(0.970973 0.0156688 0)
(1.04825 0.067266 0)
(1.05836 -0.0247296 0)
(0.98783 -0.00548498 0)
(1.01804 0.0350938 0)
(1.03722 0.0164079 0)
(1.02672 0.00414677 0)
(1.02797 0.00307087 0)
(1.02777 0.00168971 0)
(1.02729 0.00111132 0)
(1.02598 -0.000359776 0)
(1.02494 0.000179229 0)
(1.0248 -0.00169108 0)
(1.02296 -0.000373616 0)
(1.02516 -0.00269691 0)
(1.02127 -0.00223891 0)
(1.0259 -0.00394976 0)
(1.019 -0.00694197 0)
(1.02382 -0.00511093 0)
(1.01415 -0.0126358 0)
(1.01634 -0.00249747 0)
(1.00883 -0.015173 0)
(1.00492 0.00654074 0)
(1.01013 -0.00599521 0)
(1.00489 0.0137166 0)
(1.02133 0.00476368 0)
(1.01567 0.00406667 0)
(1.02141 0.00352494 0)
(1.01981 -0.0102039 0)
(1.00603 -0.00472717 0)
(1.00247 0.00642233 0)
(1.02092 0.000250883 0)
(0.988835 0.0105136 0)
(1.0318 0.0268156 0)
(1.02128 -0.0233868 0)
(0.964758 0.0293485 0)
(1.05479 0.0536602 0)
(1.04471 -0.0255686 0)
(0.978638 0.0134859 0)
(1.05387 0.0476131 0)
(1.04935 -0.0109485 0)
(0.994423 0.000771034 0)
(1.02743 0.0241926 0)
(1.04032 0.0129787 0)
(1.02395 0.00472662 0)
(1.02485 0.00396569 0)
(1.02517 0.00281917 0)
(1.02469 0.0022113 0)
(1.02424 0.00105252 0)
(1.02304 0.000917397 0)
(1.02337 -0.00031934 0)
(1.02141 -0.000205973 0)
(1.02319 -0.00136567 0)
(1.01966 -0.00196821 0)
(1.02292 -0.00215208 0)
(1.01764 -0.00509276 0)
(1.02091 -0.00216831 0)
(1.01466 -0.00880772 0)
(1.01572 0.00026964 0)
(1.0121 -0.0103817 0)
(1.009 0.00584247 0)
(1.01321 -0.00553463 0)
(1.0081 0.00964948 0)
(1.01884 0.00119583 0)
(1.01383 0.0033084 0)
(1.01825 0.00336587 0)
(1.01638 -0.00544774 0)
(1.01047 0.00137703 0)
(1.00501 0.00294308 0)
(1.01964 0.00474355 0)
(0.997667 0.00738078 0)
(1.02396 0.0183073 0)
(1.02116 -0.00588035 0)
(0.98141 0.0199877 0)
(1.04337 0.0354915 0)
(1.03566 -0.00745192 0)
(0.991479 0.010488 0)
(1.0488 0.0328463 0)
(1.03922 0.00213196 0)
(1.00432 0.00432279 0)
(1.03069 0.0153984 0)
(1.03824 0.0111823 0)
(1.02142 0.00483363 0)
(1.02203 0.00433152 0)
(1.02259 0.00340913 0)
(1.0221 0.00281738 0)
(1.0221 0.00201296 0)
(1.02098 0.00148153 0)
(1.02149 0.000872708 0)
(1.01978 0.000239942 0)
(1.02112 -1.52485e-05 0)
(1.01832 -0.00127682 0)
(1.02053 -0.000548976 0)
(1.01673 -0.00340576 0)
(1.01896 -0.000324133 0)
(1.01487 -0.00578482 0)
(1.01553 0.00156083 0)
(1.01365 -0.00701601 0)
(1.01143 0.00517915 0)
(1.01447 -0.00500735 0)
(1.01019 0.00748633 0)
(1.01729 -0.000813227 0)
(1.01297 0.00340278 0)
(1.01624 0.00297413 0)
(1.01442 -0.00332841 0)
(1.01229 0.00497642 0)
(1.00798 -9.06203e-05 0)
(1.01805 0.00748389 0)
(1.00374 0.00613001 0)
(1.01959 0.011132 0)
(1.01916 0.00410052 0)
(0.996088 0.0124607 0)
(1.0339 0.0231791 0)
(1.02865 0.00437699 0)
(1.00323 0.00641313 0)
(1.04152 0.022511 0)
(1.03207 0.0112812 0)
(1.01293 0.00498322 0)
(1.03105 0.00839686 0)
(1.03528 0.00975777 0)
(1.01916 0.00469739 0)
(1.0195 0.00439889 0)
(1.02017 0.00366395 0)
(1.01968 0.00314653 0)
(1.01995 0.00264396 0)
(1.01895 0.00193557 0)
(1.01953 0.00179776 0)
(1.01811 0.000769545 0)
(1.01918 0.00111504 0)
(1.01703 -0.000475063 0)
(1.01863 0.000689811 0)
(1.01591 -0.00193202 0)
(1.01755 0.000822729 0)
(1.01475 -0.00351084 0)
(1.01537 0.00209976 0)
(1.01419 -0.00461532 0)
(1.01277 0.00455995 0)
(1.01487 -0.00416697 0)
(1.0114 0.0063022 0)