/*--------------------------------*- C++ -*----------------------------------*\
| =========                 |                                                 |
| \\      /  F ield         | OpenFOAM: The Open Source CFD Toolbox           |
|  \\    /   O peration     | Version:  2312                                  |
|   \\  /    A nd           | Website:  www.openfoam.com                      |
|    \\/     M anipulation  |                                                 |
\*---------------------------------------------------------------------------*/
FoamFile
{
    version     2.0;
    format      ascii;
    arch        "LSB;label=32;scalar=64";
    class       volScalarField;
    location    "54";
    object      p;
}
// * * * * * * * * * * * * * * * * * * * * * * * * * * * * * * * * * * * * * //

dimensions      [0 2 -2 0 0 0 0];

internalField   nonuniform List<scalar> 
940
(
-0.334412
-0.307592
-0.285066
-0.255316
-0.215991
-0.179746
-0.342471
-0.318468
-0.268499
-0.223957
-0.18765
-0.153045
-0.330254
-0.283174
-0.234234
-0.180443
-0.146692
-0.113068
-0.254246
-0.268761
-0.290554
-0.28938
-0.292483
-0.262089
-0.288156
-0.287607
-0.309449
-0.27069
-0.261534
-0.189452
-0.302299
-0.287104
-0.308965
-0.275138
-0.241309
-0.203125
-0.237747
-0.235106
-0.230652
-0.232207
-0.261012
-0.316336
-0.220956
-0.0214203
-0.162517
-0.14432
-0.13717
-0.01805
-0.017824
-0.00163404
0.0049821
-0.00239563
-0.141171
-0.169666
-0.197417
-0.19735
-0.279589
-0.424223
-0.170759
0.106946
-0.107833
-0.184768
-0.129657
-0.0052134
0.00542217
0.00158014
0.00247329
-0.00428852
-0.168403
-0.139143
-0.168657
-0.185157
-0.217796
-0.364484
-0.210913
0.0749919
-0.033858
-0.167259
-0.122614
-0.00514481
0.0277272
0.0100444
-0.000496841
-0.00531975
-0.168562
-0.15442
-0.155773
-0.165486
-0.189758
-0.273543
-0.135191
0.0835615
-0.00893727
-0.175565
-0.10886
0.00011797
0.0260761
0.0135848
-0.0029622
-0.00561825
-0.134057
-0.136448
-0.135513
-0.143162
-0.139709
-0.167726
-0.0764184
0.0589244
-0.00442188
-0.124294
-0.080848
0.00444484
0.0257318
0.0134807
-0.00329912
-0.00504832
-0.100898
-0.113817
-0.112142
-0.113803
-0.108499
-0.114834
-0.0624851
0.0275859
0.00347731
-0.0916854
-0.0637299
-0.00489462
0.0155739
0.0114908
-0.00248277
-0.00406888
-0.0696756
-0.0828769
-0.0850356
-0.0845156
-0.076124
-0.0696821
-0.0372467
0.0109225
-0.000262941
-0.0568643
-0.0383523
0.000676668
0.0164545
0.010163
-0.000630221
-0.00285337
-0.0411509
-0.0535723
-0.0598663
-0.06153
-0.0583933
-0.0513004
-0.0394336
-0.0123749
-0.00823024
-0.0381962
-0.0321495
-0.008103
0.00502555
0.00622579
-0.000792354
-0.00253884
-0.0160006
-0.0254143
-0.0313361
-0.0330872
-0.0309344
-0.0261098
-0.0198523
-0.00793375
-0.00697769
-0.0200306
-0.016113
-0.000984809
0.00691733
0.00646106
0.00113364
-0.00100314
-0.00109648
-0.00886364
-0.0151351
-0.0189771
-0.0208491
-0.0206773
-0.019802
-0.0161672
-0.012343
-0.0159433
-0.0153196
-0.00732846
-0.000408502
0.0018232
-1.92147e-05
-0.0017492
0.0196034
0.0140331
0.00873902
0.00455052
0.00169704
0.000190029
-0.000716219
-0.000999609
-0.00124083
-0.00315728
-0.00352172
0.000426479
0.00382828
0.00494452
0.00237404
1.37097e-05
0.0237132
0.0190521
0.0142856
0.00989164
0.00606717
0.00288306
0.000316415
-0.00177004
-0.00306368
-0.00428482
-0.0047509
-0.00310082
-0.00138983
0.000936587
0.00172534
-0.000345694
0.0361901
0.032171
0.0277795
0.0233397
0.0190854
0.0151475
0.0116427
0.00849907
0.00601827
0.0039162
0.00239175
0.00219484
0.0023182
0.00359082
0.00353732
0.000465956
-0.0902161
-0.120362
-0.147444
-0.0702854
-0.087563
-0.108733
-0.0473072
-0.0597392
-0.0754175
-0.0292715
-0.0390408
-0.050919
-0.0126166
-0.0185078
-0.0278801
0.0036528
-0.000151389
-0.00654057
0.0152114
0.0118981
0.00642785
0.0301308
0.0273589
0.0241757
0.0357658
0.0319585
0.0280546
0.047158
0.0433998
0.0398608
0.0625985
0.0596183
0.0540519
0.0231
0.00112115
-0.176899
0.00101864
-0.0203499
-0.0368002
-0.103087
-0.136602
-0.345769
-0.0636054
-0.0935815
-0.121613
-0.184871
-0.232309
-0.364486
0.213922
0.253167
0.302113
0.360397
0.413712
0.445629
0.18492
0.21046
0.242915
0.28327
0.323849
0.326977
0.130441
0.139748
0.150733
0.156707
0.156987
0.0609143
0.0629447
0.0452727
0.0706884
0.0590398
0.0818409
0.0841332
0.107813
0.125903
0.153025
0.181512
0.0698063
0.0506884
0.0753951
0.0629423
0.0836578
0.0851511
0.104912
0.120722
0.145013
0.16401
0.0758931
0.0565739
0.0792782
0.0675377
0.0861431
0.0888292
0.108083
0.117447
0.133806
0.129809
0.0812472
0.0616562
0.0820647
0.0710678
0.0853867
0.0882975
0.0983705
0.101044
0.100333
0.0851779
0.0866118
0.0667628
0.0841837
0.0743189
0.0824132
0.0857286
0.0878588
0.0855948
0.077493
0.06399
0.0932746
0.0731252
0.0865397
0.0774248
0.079696
0.081275
0.0797781
0.0712656
0.0616353
0.0488599
0.101467
0.0817856
0.0890262
0.0818176
0.0778255
0.0765201
0.0722285
0.0612719
0.0500647
0.0395407
0.11157
0.093635
0.0913583
0.0865101
0.0776277
0.0721783
0.0652323
0.0550737
0.0433277
0.0342508
0.125089
0.109279
0.0980913
0.092589
0.081004
0.0722252
0.0639637
0.0551863
0.0453906
0.0373763
0.142653
0.125067
0.103706
0.0963221
0.0836473
0.0728084
0.063326
0.0550072
0.0467892
0.0396128
0.179449
0.151574
0.12375
0.109621
0.0961095
0.08386
0.0735122
0.0649718
0.0576216
0.0514105
0.205658
0.166119
0.132038
0.114217
0.0997089
0.0873566
0.0770638
0.0685772
0.0615943
0.05584
0.354955
0.212518
0.168048
0.142844
0.122322
0.105679
0.0926572
0.082582
0.0746984
0.0684949
0.0578645
0.0018636
-0.0504538
0.041951
-0.0060585
-0.0412796
0.031044
0.000603926
-0.0277208
0.0254465
0.00484014
-0.0164462
0.022849
0.00858641
-0.00484207
0.0286328
0.0187269
0.00976334
0.0322403
0.0248984
0.0192465
0.0451261
0.0387611
0.0338743
0.0502778
0.0446477
0.0398484
0.0626386
0.056695
0.0515318
-0.338128
-0.328463
-0.338418
-0.29877
-0.304948
-0.27247
-0.273505
-0.263266
-0.230059
-0.267392
-0.229568
-0.180871
-0.253816
-0.203685
-0.154384
-0.23645
-0.178545
-0.127201
-0.282912
-0.315719
-0.299785
-0.289924
-0.294527
-0.269845
-0.31927
-0.339761
-0.291652
-0.321498
-0.329171
-0.302003
-0.371054
-0.389195
-0.31097
-0.345366
-0.402653
-0.326113
-0.347025
-0.352256
-0.303608
-0.317587
-0.337844
-0.303536
-0.272946
-0.266417
-0.249844
-0.262243
-0.238064
-0.229806
-0.184511
-0.0697894
-0.129388
-0.119763
0.150918
0.0857156
-0.209999
-0.107856
-0.0117994
-0.145626
-0.213566
-0.184613
-0.115902
-0.0836145
-0.0898481
-0.0366106
0.0237572
0.0115272
-0.0709503
-0.0178451
-0.013411
-0.0162309
-0.0338921
-0.035952
-0.0147462
-0.0234967
-0.0224183
-3.51794e-05
-0.00145265
-0.000911422
0.00429459
0.00198419
0.00283967
-0.00144375
-0.0016592
-0.000199232
-0.247968
-0.171578
-0.134416
-0.0961657
-0.0698602
-0.0556227
-0.043698
-0.0433668
-0.037841
-0.0417757
-0.254957
-0.184723
-0.145803
-0.103619
-0.0764012
-0.0591958
-0.045328
-0.0435468
-0.0375367
-0.0405426
-0.211379
-0.163131
-0.136032
-0.100585
-0.0777556
-0.0601583
-0.0464767
-0.0432766
-0.0371524
-0.0392006
-0.166945
-0.12849
-0.107732
-0.0845341
-0.0706764
-0.0573746
-0.0463273
-0.0423394
-0.0364977
-0.0377822
-0.106098
-0.0811678
-0.0763336
-0.0640135
-0.0600188
-0.0517604
-0.0445742
-0.0407499
-0.0354806
-0.0363
0.0446746
0.00369744
-0.0255365
-0.0369921
-0.0464157
-0.0445535
-0.0416132
-0.0386448
-0.0341297
-0.0347237
-0.000935496
-0.00552718
-0.0113461
-0.0246021
-0.0342337
-0.0372826
-0.0376127
-0.0359908
-0.0324671
-0.0329217
-0.166251
-0.107432
-0.0772377
-0.0519393
-0.0430848
-0.0362947
-0.0346555
-0.033173
-0.0306462
-0.0309376
-0.0744914
-0.0552333
-0.0508454
-0.0379677
-0.0394006
-0.0320959
-0.0321318
-0.03017
-0.0288787
-0.0288526
0.00737798
-0.00660988
-0.0126278
-0.0186903
-0.023988
-0.0239809
-0.027204
-0.026562
-0.0273667
-0.0268656
-0.00336958
-0.014146
-0.0100198
-0.0181514
-0.0173148
-0.020327
-0.022364
-0.0230595
-0.0257723
-0.0248706
-0.0306602
-0.0267859
-0.0213838
-0.0206713
-0.0177129
-0.0184184
-0.0191818
-0.0197663
-0.0236495
-0.0228814
-0.0188906
-0.0166939
-0.0135902
-0.0138132
-0.0126943
-0.0135482
-0.015468
-0.0162944
-0.0207223
-0.0208056
-0.000638058
-0.000981351
-0.0016502
-0.004699
-0.00578136
-0.00872
-0.0112531
-0.0131052
-0.0164172
-0.0167598
0.00288992
0.00252164
0.00137963
-0.00144641
-0.0031857
-0.00649238
-0.0075743
-0.00950403
-0.0109193
-0.010923
0.000746557
0.000961615
0.000728436
-0.000490469
-0.0012
-0.0024415
-0.00314251
-0.00360131
-0.00364117
-0.00331957
-0.111206
-0.0942784
-0.0743145
-0.0629049
-0.0512331
-0.0448102
-0.0399273
-0.0414758
-0.0390496
-0.0446287
-0.152292
-0.114101
-0.0873369
-0.0721871
-0.0571127
-0.0485961
-0.0419136
-0.0424975
-0.0387804
-0.0438236
-0.19824
-0.140542
-0.105995
-0.0818006
-0.061364
-0.0511216
-0.0426537
-0.0430215
-0.0382898
-0.0428938
0.0601391
-0.000697972
-0.0680722
0.0634849
-0.0122731
-0.0919044
0.0628596
-0.027761
-0.115309
0.0403958
-0.0866555
-0.180421
0.0232889
-0.116628
-0.22473
-0.147138
-0.340228
-0.386645
0.213738
0.187377
0.124526
0.253219
0.217674
0.14489
0.302471
0.256343
0.168437
0.362291
0.299294
0.182888
0.42505
0.341691
0.188463
0.474336
0.354713
0.114676
0.0561505
0.0489426
0.0415379
0.0400162
0.0361427
0.0321969
0.0646614
0.0577602
0.0518662
0.0551165
0.0522028
0.0494311
0.0779136
0.0693996
0.0673779
0.0807702
0.076398
0.0744651
0.106248
0.0961385
0.097649
0.123362
0.112536
0.105631
0.15119
0.14025
0.125548
0.180309
0.163353
0.121596
0.0342992
0.0270278
0.0180634
0.00677601
-0.00729256
-0.0249119
-0.0460894
-0.0839837
-0.105087
-0.241968
0.0284181
0.0246106
0.0196738
0.0132422
0.0041158
-0.00906438
-0.0228834
-0.0516503
-0.0624227
-0.107566
0.0447107
0.0368425
0.0278793
0.0173722
0.00534618
-0.00999387
-0.0216171
-0.0468116
-0.0550838
-0.0946149
0.0456054
0.0415598
0.034956
0.0261474
0.0151052
-0.00196814
-0.0157851
-0.0412786
-0.0499703
-0.0784792
0.058617
0.0483517
0.0374238
0.0256645
0.0132514
-0.00337429
-0.0149837
-0.0379548
-0.0461057
-0.0660686
0.0675855
0.0578014
0.0468301
0.0310915
0.0162076
-0.00336929
-0.0153326
-0.0355082
-0.0428066
-0.058587
0.0792501
0.0626285
0.0470221
0.0284735
0.0129478
-0.00601708
-0.0170238
-0.0344654
-0.0408314
-0.0545127
0.0847052
0.0671118
0.0451544
0.023126
0.00688794
-0.0103006
-0.019697
-0.0344166
-0.0398988
-0.0519563
0.084927
0.0605644
0.0375268
0.01601
0.000643956
-0.0145476
-0.0225668
-0.0349901
-0.0396383
-0.0501781
0.0778721
0.0518683
0.0268612
0.0070295
-0.0060759
-0.0186557
-0.0252066
-0.0356748
-0.0395859
-0.0488691
0.0545792
0.0319306
0.0135712
-0.00355694
-0.0138418
-0.0232303
-0.0279372
-0.0363631
-0.0395323
-0.0476392
-0.00443886
-0.0211395
-0.0204046
-0.026067
-0.0273298
-0.0307254
-0.0318616
-0.0377699
-0.0393299
-0.0464129
-0.0625354
-0.0650936
-0.0519337
-0.0472959
-0.0409622
-0.0388593
-0.0364562
-0.0398451
-0.0392189
-0.0454641
)
;

boundaryField
{
    outlet
    {
        type            fixedValue;
        value           uniform 0;
    }
    upperWall
    {
        type            symmetryPlane;
    }
    lowerWall
    {
        type            symmetryPlane;
    }
    inlet
    {
        type            zeroGradient;
    }
    cylinder
    {
        type            zeroGradient;
    }
    frontAndBack
    {
        type            empty;
    }
}


// ************************************************************************* //
