/*--------------------------------*- C++ -*----------------------------------*\
| =========                 |                                                 |
| \\      /  F ield         | OpenFOAM: The Open Source CFD Toolbox           |
|  \\    /   O peration     | Version:  2312                                  |
|   \\  /    A nd           | Website:  www.openfoam.com                      |
|    \\/     M anipulation  |                                                 |
\*---------------------------------------------------------------------------*/
FoamFile
{
    version     2.0;
    format      ascii;
    arch        "LSB;label=32;scalar=64";
    class       surfaceScalarField;
    location    "54";
    object      phi;
}
// * * * * * * * * * * * * * * * * * * * * * * * * * * * * * * * * * * * * * //

dimensions      [0 3 -1 0 0 0 0];

oriented        oriented;

internalField   nonuniform List<scalar> 
1810
(
0.00940774
0.0227649
-0.0321726
0.106823
-0.0965824
-0.00083265
0.242996
-0.199582
0.0634085
0.382881
-0.29204
0.152154
0.548949
-0.367684
0.201616
-0.440691
0.30832
0.68132
0.0588229
-0.036058
0.193587
-0.231346
0.307335
-0.31333
0.390081
-0.374786
0.451538
-0.429141
-0.479733
0.49058
0.108476
-0.144534
0.177425
-0.300295
0.205141
-0.341046
0.214162
-0.383807
0.227265
-0.442244
0.252291
-0.504759
-0.0402613
0.0119685
0.0282928
-0.0872111
0.00654565
0.0404041
-0.137451
0.00111926
0.0491212
-0.163181
-0.0213411
0.0470705
-0.189573
-0.0213663
0.0477585
-0.0333909
-0.17058
0.0143978
-0.0145795
0.026548
-0.0335263
0.0254925
-0.0430156
0.0106086
-0.0205617
-0.043795
0.0216831
-0.0636111
-0.125007
0.1133
-0.00562464
0.0190352
0.0930523
0.201412
0.339417
0.52273
-0.132223
0.00583003
-0.0441874
-0.108936
0.081894
-0.105181
-0.0763229
0.12388
-0.156492
-0.00259095
0.178618
-0.252349
0.134451
0.292678
-0.42972
0.208618
-0.125345
0.0511781
0.189039
-0.796955
0.816534
0.214711
-0.291433
0.265761
0.20654
0.697528
-0.689357
0.255865
0.362091
-0.411415
0.284697
-0.523225
0.494393
0.456171
-0.553432
0.381958
0.611908
0.105427
-0.261164
0.610986
0.556406
-0.555485
0.609979
0.300704
-0.299697
-0.169836
0.15205
0.106604
0.0125257
0.132422
0.0560763
0.170107
0.0861948
0.236433
0.112291
0.35258
0.17653
0.426761
-0.199526
0.331716
-0.70191
0.269399
-0.229115
0.365145
0.601782
0.512151
0.215084
0.450777
-0.461851
0.366822
-0.469476
0.452207
0.0200415
0.544711
0.463903
0.618815
0.2266
-0.202363
0.478344
0.0569116
0.455455
0.0789651
0.443013
0.0986366
0.489689
0.065615
0.531911
0.134308
0.520227
-0.187842
0.41393
-0.595613
0.337001
-0.152186
0.419205
0.519578
0.546005
0.0882834
0.539876
-0.455722
0.425102
-0.354703
0.420748
0.0243954
0.542822
0.341829
0.651607
0.117815
-0.243365
0.652977
0.0869354
-0.683001
0.647303
0.0846392
0.626532
0.119408
0.636295
0.0558514
0.700958
0.069646
0.653347
-0.140231
0.505396
-0.447661
0.405348
-0.0521375
0.48014
0.444785
0.570382
-0.00195825
0.537869
-0.423209
0.45802
-0.274854
0.432279
0.0501363
0.508302
0.265806
0.562251
0.0638664
-0.245477
0.818499
0.0924039
-0.823968
0.831537
0.0716011
0.84478
0.106165
0.845118
0.0555132
0.87903
0.0357342
0.815676
-0.0768771
0.667131
-0.299117
0.615625
-0.000630797
0.742567
0.317843
0.80449
-0.0638814
0.741854
-0.360573
0.666142
-0.199142
0.658521
0.0577577
0.717771
0.206556
0.733734
0.0479038
-0.227541
0.996819
0.0831216
-0.987536
1.00297
0.065445
1.02608
0.0830567
1.03099
0.0506107
1.0397
0.0270185
0.988592
-0.0257681
0.862361
-0.172886
0.855904
0.0058259
0.99427
0.179477
1.00295
-0.0725648
0.916036
-0.273656
0.863284
-0.14639
0.883337
0.0377049
0.931602
0.158291
0.927453
0.0520527
-0.203441
1.21969
0.0719598
-1.20853
1.22346
0.0616755
1.23916
0.0673578
1.23814
0.0516274
1.23985
0.0253118
1.20871
0.00537272
1.12361
-0.0877849
1.13215
-0.00271661
1.23325
0.0783814
1.21814
-0.0574555
1.13656
-0.192075
1.10168
-0.11151
1.13124
0.00814661
1.17215
0.117378
1.158
0.0662028
-0.172831
1.51198
0.0586418
-1.49866
1.51829
0.0553652
1.53214
0.0535014
1.53724
0.0465324
1.53643
0.0261202
1.52272
0.0190779
1.47015
-0.0352152
1.46533
0.0021073
1.51433
0.0293859
1.5013
-0.0444303
1.44175
-0.132521
1.40507
-0.0748302
1.42254
-0.00932087
1.46387
0.076041
1.45043
0.0796474
-0.137722
1.86847
0.0459913
-1.85582
1.87687
0.0469629
1.88658
0.0437932
1.89059
0.0425229
1.88925
0.0274652
1.88324
0.0250872
1.85288
-0.00485627
1.85078
0.0042037
1.87314
0.00702985
1.85088
-0.0221777
1.7966
-0.078235
1.77328
-0.0515105
1.79242
-0.0284635
1.8263
0.0421587
1.8157
0.0902465
-0.104473
2.31516
0.0332252
-2.3024
2.32683
0.0352957
2.3377
0.0329244
2.34682
0.0333977
2.34964
0.0246538
2.35028
0.0244454
2.33627
0.00914667
2.33052
0.00995738
2.33456
0.00299321
2.32155
-0.00917264
2.28999
-0.0466722
2.26426
-0.0257811
2.26363
-0.0278363
2.29569
0.010105
2.29377
0.092165
-0.0636785
2.90123
0.0223115
-2.89032
2.91201
0.0245171
2.92189
0.0230482
2.93056
0.0247309
2.93604
0.019174
2.9406
0.0198822
2.93899
0.0107578
2.93825
0.010699
2.94031
0.000931548
2.93159
-0.00045926
2.9098
-0.0248794
2.89348
-0.0094626
2.89198
-0.0263288
2.9209
-0.0188169
2.92227
0.0907967
-0.0269852
3.65105
0.0110405
-3.63978
3.66315
0.0124153
3.67457
0.0116332
3.68643
0.0128672
3.69516
0.0104485
3.70425
0.0107907
3.70822
0.00678739
3.71114
0.00777262
3.7113
0.00077884
3.70639
0.00444441
3.6964
-0.014888
3.68958
-0.00263968
3.67179
-0.00853828
3.68785
-0.0348808
3.71829
0.0603602
0.00936191
4.96852
-4.95748
4.98094
4.99257
5.00544
5.01589
5.02668
5.03346
5.04124
5.04202
5.04646
5.03157
5.02893
5.02039
4.98551
5.04587
0.599012
0.240935
-0.587656
0.646226
0.443367
0.644544
0.741479
0.232335
-0.732879
0.773214
0.411632
0.59379
0.918572
0.211852
-0.898089
0.941831
0.388374
0.548085
1.13988
0.18467
-1.1127
1.16774
0.360516
0.507293
1.41281
0.157344
-1.38548
1.45261
0.320712
0.461246
1.74919
0.130226
-1.72207
1.79606
0.273843
0.401484
2.17666
0.102024
-2.14846
2.23005
0.220449
0.32914
2.74932
0.072971
-2.72027
2.80707
0.162697
0.245894
3.46317
0.0401276
-3.43033
3.53407
0.0918043
0.14018
4.7255
-4.68537
4.8173
0.273144
0.454744
-0.391578
-0.33631
0.189894
0.409328
-0.326079
0.121293
0.346956
-0.278354
0.069208
0.319739
-0.267654
0.0236784
0.299604
-0.254074
0.236156
-0.212477
0.0898695
0.502245
-0.137371
0.0517845
0.447413
0.0133151
0.385425
-0.00701852
0.340072
-0.0231695
0.315755
0.212986
-0.089726
0.0872126
-0.0845575
-0.082939
-0.0839123
-0.0684521
0.492367
0.146352
-0.62303
-0.0156888
0.37474
0.131288
-0.013661
0.26122
0.123669
-0.0101488
0.161441
0.10862
-0.00884119
0.0715227
0.0994106
-0.00949213
0.0819179
-0.0103952
0.452056
0.269479
-0.575184
0.358425
0.224919
0.267666
0.214428
0.170214
0.206072
0.0803529
0.189272
0.162271
0.341677
-0.463775
0.240518
0.176591
0.115009
0.0502064
0.724305
0.573214
-0.60116
0.702907
0.368617
-0.347219
0.715469
0.243015
-0.255577
0.700681
0.194636
-0.179849
0.713677
0.131685
-0.144681
0.695883
0.106098
-0.0883038
0.694006
0.0656056
-0.0637287
0.671846
0.0662573
-0.0440972
0.653698
0.0474114
-0.0292635
0.0525478
-0.0218793
0.712163
0.557409
0.686155
0.394625
0.693975
0.235194
0.676035
0.212577
0.676779
0.13094
0.66097
0.121907
0.655775
0.0708012
0.631056
0.0909755
0.609908
0.0685594
0.0872724
0.671119
0.582649
0.640956
0.424789
0.625696
0.250454
0.614602
0.223672
0.603891
0.141651
0.575746
0.150052
0.558633
0.0879146
0.525177
0.124432
0.498187
0.0955495
0.121684
0.55661
0.578698
0.545275
0.436123
0.551282
0.244447
0.549497
0.225457
0.556819
0.134329
0.548941
0.15793
0.543758
0.0930976
0.537331
0.130858
0.538257
0.0946234
0.114532
0.545409
0.701968
0.562783
0.675788
0.462304
0.691163
0.229072
0.669063
0.247557
0.673401
0.12999
0.683302
0.148029
0.678189
0.0982111
0.68426
0.124788
0.686908
0.0919749
0.104551
0.696889
0.874516
0.539909
0.86067
0.47615
0.876254
0.213488
0.854172
0.269639
0.853349
0.130814
0.862339
0.139039
0.859135
0.101414
0.863428
0.120495
0.870431
0.0849716
0.0962298
0.878752
1.07056
0.526547
1.07756
0.469156
1.08778
0.20326
1.08898
0.268447
1.08987
0.129922
1.09144
0.137465
1.09231
0.100546
1.09723
0.115578
1.10367
0.0785295
0.0854971
1.1144
1.32406
0.514861
1.33458
0.458631
1.33762
0.200224
1.35874
0.247323
1.3578
0.130859
1.36162
0.133645
1.36798
0.094187
1.38093
0.102633
1.38809
0.0713694
0.0705933
1.40299
1.6479
0.496097
1.66512
0.441405
1.66281
0.20254
1.69004
0.220088
1.69346
0.127438
1.7022
0.124906
1.71165
0.0847377
1.72922
0.0850614
1.73937
0.0612254
0.0563638
1.7536
2.04922
0.46923
2.08785
0.402772
2.09074
0.199647
2.12188
0.188948
2.13149
0.117828
2.14948
0.106916
2.16087
0.0733533
2.17905
0.0668756
2.19121
0.0490667
0.0428828
2.20469
2.56299
0.416715
2.6264
0.339364
2.65087
0.175173
2.69067
0.149157
2.71462
0.093876
2.74035
0.0811823
2.75818
0.0555281
2.77696
0.048093
2.79096
0.0350637
0.0299153
2.80393
3.20458
0.328558
3.30431
0.239626
3.34933
0.130161
3.40249
0.0959926
3.43649
0.0598723
3.47063
0.0470503
3.49399
0.0321604
3.51569
0.0263911
3.53178
0.0189774
0.0158562
3.54584
4.19718
4.4368
4.56696
4.66296
4.72283
4.76988
4.80204
4.82843
4.84741
4.86326
0.546487
-0.337388
0.561901
-0.152785
0.0614573
0.704885
-0.345383
0.705775
-0.153675
0.034353
0.879559
-0.346191
0.877552
-0.151668
0.0138166
1.10475
-0.336534
1.10561
-0.152535
0.00672971
1.37976
-0.313306
1.37972
-0.152491
0.0009693
1.72136
-0.281067
1.7146
-0.145737
-0.0064986
2.16247
-0.238843
2.14502
-0.128282
-0.00993993
2.74667
-0.18158
2.71833
-0.0999422
-0.0118822
3.47239
-0.108125
3.43327
-0.0608312
-0.00893671
4.75514
4.69431
0.0174019
0.0193663
-0.0367682
-0.0639994
0.0814013
0.107837
-0.171836
-0.134705
0.142979
0.0110928
-0.261659
0.208355
0.155432
-0.309255
-0.234431
0.293555
0.083855
-0.332889
0.306813
0.168765
-0.346221
-0.331965
0.44051
0.18501
-0.395926
0.370774
0.173489
-0.40065
-0.417341
0.593517
0.264334
-0.440469
0.393902
0.180077
-0.447057
-0.474255
0.407575
0.660197
-0.486268
0.405915
0.197818
-0.504009
0.0495878
-0.021295
0.0394131
0.0101747
0.0026449
0.0611061
-0.041997
0.044378
0.0269028
0.0581158
0.0704812
-0.063357
0.0281639
0.0692201
0.170135
0.0476517
-0.0639383
-0.0361182
0.15299
0.319027
0.0431128
-0.0592926
-0.067253
0.263356
0.516107
-0.0294955
-0.0153993
-0.213529
0.44739
0.710153
-0.0515247
-0.00806206
-0.0258149
0.42168
0.692892
-0.00855321
-0.106899
-0.00634403
-0.0885895
0.403371
0.662805
-0.0585028
-0.160185
-0.00265099
-0.129434
0.37262
0.638421
-0.105051
-0.249709
-0.00529194
-0.161697
0.284608
0.592572
-0.115848
-0.442272
0.00726068
-0.33779
0.180126
0.510715
-0.255933
-0.00877548
0.0672143
-0.0269573
0.198308
0.476734
0.00702359
0.661354
0.222395
0.476502
0.383159
0.564801
0.388435
0.0992306
0.388925
-0.048421
0.530811
0.576238
-0.0598571
-0.522489
0.222056
-0.440912
0.449234
0.492506
-0.35718
-0.290281
0.100922
-0.167509
0.326462
0.486762
-0.161766
0.335901
0.259414
0.214403
0.447961
0.614581
0.0865842
0.0770146
0.564357
-0.0940621
0.619037
0.685686
-0.165167
-0.405044
0.708237
-0.452051
0.666045
0.667604
-0.433969
-0.517306
0.670058
-0.487001
0.635739
0.616787
-0.436184
-0.257168
0.627529
-0.220355
0.598926
0.564926
-0.168494
0.14716
0.142821
0.142153
0.00544285
0.71308
-0.727076
0.0071648
0.828069
-0.829791
0.00413553
0.976275
-0.973246
0.0045047
1.15779
-1.15816
0.00233079
1.39404
-1.39186
0.00151123
1.68004
-1.67922
-0.00122823
2.01308
-2.01034
-0.00191286
2.39679
-2.3961
-0.00124811
2.84889
-2.84955
2.92031
-2.92156
-0.0385555
0.693133
-0.0196712
0.809185
-0.00774782
0.964352
-0.00311718
1.15316
-0.00208078
1.393
-0.00167984
1.67964
-0.00311386
2.01452
-0.00307412
2.39675
-0.00194641
2.84776
2.91836
-0.0796359
0.667718
-0.0567011
0.78625
-0.03562
0.943271
-0.0186724
1.13621
-0.00846401
1.38279
-0.00333643
1.67452
-0.00366023
2.01484
-0.00317946
2.39627
-0.00194229
2.84652
2.91642
-0.0758259
0.627696
-0.0397833
0.750208
-0.0277856
0.931273
-0.0167666
1.12519
-0.0111157
1.37714
-0.00792271
1.67132
-0.00715866
2.01408
-0.00587367
2.39498
-0.00383062
2.84448
2.91259
-0.183024
0.554787
-0.112462
0.679645
-0.0546615
0.873472
-0.0267661
1.09729
-0.0141626
1.36454
-0.00866416
1.66582
-0.00841671
2.01383
-0.00702159
2.39359
-0.00526138
2.84272
2.90733
0.0423779
0.519433
0.022157
0.699866
0.00458494
0.891044
-0.0117229
1.1136
-0.0155039
1.36832
-0.0163601
1.66668
-0.0152234
2.01269
-0.0125887
2.39095
-0.00972756
2.83986
2.8976
0.295627
0.612241
0.182046
0.813447
0.0933727
0.979718
0.0387901
1.16819
0.00452619
1.40258
-0.0112013
1.68241
-0.0169731
2.01846
-0.0156224
2.3896
-0.0133653
2.8376
2.88424
-0.0916538
0.644038
-0.0717156
0.793509
-0.0542673
0.962269
-0.0360575
1.14998
-0.0350126
1.40154
-0.029081
1.67648
-0.0303349
2.01972
-0.0260014
2.38527
-0.0230858
2.83469
2.86115
-0.287633
0.574491
-0.215089
0.720965
-0.151646
0.898826
-0.109593
1.10792
-0.075121
1.36707
-0.0564383
1.65779
-0.0435702
2.00685
-0.0344435
2.37614
-0.031655
2.8319
2.8295
-0.138848
0.551573
-0.132258
0.714375
-0.113825
0.880393
-0.106555
1.10065
-0.0876287
1.34814
-0.0776594
1.64782
-0.064426
1.99362
-0.052256
2.36397
-0.0455013
2.82514
2.78399
0.035607
0.60255
-0.00202895
0.752011
-0.0374576
0.915822
-0.056281
1.11948
-0.064168
1.35603
-0.0613528
1.64501
-0.0549495
1.98721
-0.0472224
2.35625
-0.0387036
2.81662
2.74529
-0.167787
0.60517
-0.156635
0.740859
-0.157632
0.916819
-0.141161
1.10301
-0.131491
1.34636
-0.112535
1.62605
-0.0956158
1.97029
-0.0732638
2.33389
-0.0417665
2.78513
2.70352
-0.396247
0.567448
-0.351345
0.695957
-0.302711
0.868185
-0.245505
1.0458
-0.199397
1.30025
-0.154965
1.58162
-0.111775
1.9271
-0.0623443
2.28446
-0.00211125
2.72489
2.70141
-0.384681
0.515944
-0.336594
0.64787
-0.287932
0.819523
-0.248853
1.00672
-0.205877
1.25727
-0.162736
1.53848
-0.110697
1.87506
-0.0427198
2.21649
0.0337611
2.64841
2.73517
-0.114452
0.461902
-0.0717792
0.605198
-0.047285
0.795029
-0.0403975
0.999833
-0.0242582
1.24113
0.00190091
1.51232
0.0401741
1.83679
0.0854597
2.1712
0.126504
2.60737
2.86168
0.153468
0.162988
0.166477
0.16347
0.165834
0.171225
0.1788
0.173875
0.15253
0.173304
0.619502
-0.594988
0.142097
0.743678
-0.712472
0.120249
0.884714
-0.862866
0.102152
1.07237
-1.05428
0.0836415
1.30447
-1.28596
0.0648271
1.58049
-1.56167
0.0469628
1.90322
-1.88535
0.030578
2.27089
-2.2545
0.0140932
2.71045
-2.69397
2.78101
-2.76692
0.368509
0.656908
0.339906
0.772281
0.305897
0.918724
0.269792
1.10848
0.234642
1.33962
0.195707
1.61942
0.153852
1.94507
0.106028
2.31871
0.053266
2.76322
2.83428
0.59003
0.53252
0.477997
0.42832
0.376081
0.316276
0.251008
0.173614
0.0872771
0.405166
0.267152
-0.337694
-0.334624
0.480444
0.139886
-0.215164
-0.0415007
0.0179359
0.380835
0.213657
-0.32734
0.432788
0.0879331
-0.0557696
0.351569
0.146294
-0.284206
0.393233
0.04627
-0.0631874
0.314555
0.0807644
-0.249026
0.346163
0.0146627
-0.0632461
0.291166
0.0306334
-0.241035
0.320016
-0.0141874
-0.0524856
0.238509
-0.207876
0.224322
0.114346
0.498804
-0.628839
0.24379
0.461627
-0.591071
0.401589
-0.495494
0.10253
0.382613
0.218977
0.34518
0.293226
0.0955677
0.276896
0.186301
0.254446
0.195322
0.0915799
0.176475
0.177797
0.168229
0.124093
0.0863775
0.0806057
0.175209
0.0793981
0.0582669
0.0702105
0.149609
-0.611848
0.707047
-0.606914
0.691425
0.684949
-0.595505
-0.344538
0.704366
-0.361788
0.708675
0.697468
-0.374307
-0.281154
0.729943
-0.292867
0.720388
0.673992
-0.269391
-0.164984
0.715078
-0.146227
0.701631
0.659592
-0.131827
-0.154254
0.724651
-0.155097
0.702473
0.634459
-0.129964
-0.0655243
0.701871
-0.0448633
0.681812
0.602994
-0.0133985
-0.062077
0.700219
-0.051385
0.67112
0.578846
-0.0272367
-0.0199896
0.676112
0.00478415
0.646347
0.54726
0.0363697
-0.0128944
0.659743
0.0103488
0.623103
0.524296
0.0333131
0.00902424
0.041057
0.0698592
-0.612471
0.569625
-0.623759
0.697341
-0.622391
0.850275
-0.615541
1.05035
-0.601946
1.29878
-0.580326
1.60751
-0.543313
1.98534
-0.482752
2.44992
-0.383393
3.01706
3.48522
-0.363488
0.558807
-0.344055
0.677907
-0.329264
0.835484
-0.32329
1.04438
-0.319955
1.29544
-0.319428
1.60699
-0.310527
1.97644
-0.286341
2.42573
-0.229581
2.9603
3.25564
-0.267531
0.556947
-0.272121
0.682497
-0.272308
0.835672
-0.261899
1.03397
-0.245
1.27854
-0.222956
1.58494
-0.198136
1.95162
-0.16474
2.39233
-0.122684
2.91825
3.13296
-0.114429
0.539548
-0.0904445
0.658513
-0.0823597
0.827587
-0.0881571
1.03976
-0.100285
1.29067
-0.110642
1.5953
-0.114596
1.95557
-0.104133
2.38187
-0.0771752
2.89129
3.05578
-0.129554
0.539139
-0.134381
0.66334
-0.125167
0.818373
-0.10663
1.02123
-0.0887964
1.27284
-0.0777394
1.58424
-0.0707672
1.9486
-0.0596585
2.37076
-0.0430876
2.87472
3.0127
0.00702863
0.518712
0.00823337
0.662135
-0.00521582
0.831822
-0.0199028
1.03591
-0.0293589
1.28229
-0.0360606
1.59094
-0.0401335
1.95267
-0.0389577
2.36959
-0.0306606
2.86642
2.98204
-0.0236263
0.515101
-0.0143754
0.652884
-0.0123864
0.829833
-0.0139926
1.03752
-0.0181122
1.28641
-0.0211497
1.59398
-0.0242404
1.95576
-0.0229228
2.36827
-0.0178939
2.86139
2.96414
0.0385474
0.512924
0.0254403
0.665991
0.0171201
0.838154
0.0130036
1.04164
0.0047267
1.29469
-0.00516748
1.60388
-0.0128767
1.96347
-0.0152672
2.37066
-0.0128528
2.85898
2.95129
0.0291179
0.517119
0.0300164
0.665093
0.0247431
0.843427
0.013916
1.05246
0.00406933
1.30453
-0.00284829
1.61079
-0.00816954
1.96879
-0.00925779
2.37175
-0.00759051
2.85731
2.9437
0.0593322
0.527646
0.0421826
0.682242
0.0302964
0.855313
0.0205673
1.06219
0.0105306
1.31457
0.00211757
1.61921
-0.00421948
1.97513
-0.00631315
2.37384
-0.00564567
2.85664
2.93805
-0.359636
0.552658
-0.376706
0.699312
-0.375794
0.854401
-0.364016
1.05042
-0.339647
1.2902
-0.302395
1.58195
-0.249096
1.92183
-0.182269
2.30701
-0.0928008
2.76717
2.84525
-0.238951
0.576445
-0.235621
0.695982
-0.226341
0.845121
-0.217667
1.04174
-0.205505
1.27804
-0.185225
1.56167
-0.154845
1.89145
-0.114231
2.2664
-0.0587273
2.71167
2.78652
-0.000607265
-0.0170971
-0.0348424
-0.0473784
-0.0553018
-0.0552987
-0.0492011
-0.0373036
-0.019603
)
;

boundaryField
{
    outlet
    {
        type            calculated;
        value           nonuniform List<scalar> 
26
(
0.627765
0.651342
0.692608
0.564364
0.715797
0.903353
1.12739
1.41532
1.78246
2.25297
2.88557
3.68194
5.05524
0.632419
0.603266
0.565594
0.450587
0.595678
0.79154
1.00284
1.23877
1.50693
1.82922
2.17613
2.62871
3.01421
)
;
    }
    upperWall
    {
        type            symmetryPlane;
        value           uniform 0;
    }
    lowerWall
    {
        type            symmetryPlane;
        value           uniform 0;
    }
    inlet
    {
        type            calculated;
        value           nonuniform List<scalar> 
26
(
-0.696359
-0.696359
-0.696359
-0.55266
-0.686053
-0.851642
-1.0572
-1.31237
-1.62913
-2.02235
-2.51048
-3.11642
-3.86862
-0.696359
-0.696359
-0.696359
-0.55266
-0.686053
-0.851642
-1.0572
-1.31237
-1.62913
-2.02235
-2.51048
-3.11642
-3.86862
)
;
    }
    cylinder
    {
        type            calculated;
        value           uniform 0;
    }
    frontAndBack
    {
        type            empty;
        value           nonuniform List<scalar> 0();
    }
}


// ************************************************************************* //
