/*--------------------------------*- C++ -*----------------------------------*\
| =========                 |                                                 |
| \\      /  F ield         | OpenFOAM: The Open Source CFD Toolbox           |
|  \\    /   O peration     | Version:  2312                                  |
|   \\  /    A nd           | Website:  www.openfoam.com                      |
|    \\/     M anipulation  |                                                 |
\*---------------------------------------------------------------------------*/
FoamFile
{
    version     2.0;
    format      ascii;
    arch        "LSB;label=32;scalar=64";
    class       volScalarField;
    location    "22.5";
    object      p;
}
// * * * * * * * * * * * * * * * * * * * * * * * * * * * * * * * * * * * * * //

dimensions      [0 2 -2 0 0 0 0];

internalField   nonuniform List<scalar> 
5478
(
-0.280136
-0.27845
-0.27443
-0.269994
-0.266511
-0.264868
-0.26535
-0.267646
-0.271009
-0.274464
-0.277431
-0.27847
-0.278163
-0.274209
-0.268383
-0.286637
-0.284285
-0.280063
-0.275465
-0.271395
-0.268388
-0.266456
-0.265291
-0.264371
-0.263066
-0.260797
-0.257314
-0.252714
-0.246674
-0.240989
-0.296925
-0.293032
-0.288148
-0.282887
-0.277593
-0.272234
-0.266878
-0.261562
-0.256168
-0.250527
-0.244659
-0.238465
-0.232003
-0.224915
-0.217802
-0.310973
-0.304992
-0.298733
-0.292026
-0.284175
-0.275184
-0.265683
-0.256215
-0.247063
-0.23837
-0.229991
-0.221806
-0.21364
-0.2053
-0.197688
-0.329293
-0.320549
-0.312365
-0.302732
-0.290471
-0.276689
-0.262825
-0.24967
-0.237506
-0.226277
-0.215856
-0.206078
-0.196719
-0.187871
-0.179517
-0.352324
-0.339702
-0.328721
-0.313837
-0.295328
-0.276123
-0.258014
-0.241576
-0.226821
-0.213592
-0.201631
-0.190678
-0.180515
-0.171042
-0.162003
-0.37897
-0.361675
-0.345295
-0.322629
-0.296906
-0.272288
-0.250276
-0.230984
-0.214111
-0.199262
-0.186086
-0.174296
-0.163649
-0.154009
-0.144845
-0.404808
-0.383639
-0.358195
-0.325952
-0.293107
-0.26363
-0.238273
-0.216631
-0.19809
-0.182107
-0.168209
-0.156038
-0.145355
-0.135865
-0.127071
-0.241223
-0.246877
-0.252438
-0.26051
-0.271045
-0.283496
-0.297435
-0.312479
-0.328323
-0.344742
-0.361473
-0.378183
-0.394604
-0.410671
-0.426386
-0.247099
-0.251344
-0.256
-0.26313
-0.272656
-0.284087
-0.297067
-0.311295
-0.326516
-0.342531
-0.359206
-0.3763
-0.393374
-0.410495
-0.427221
-0.25618
-0.258449
-0.261876
-0.267751
-0.275943
-0.286021
-0.297687
-0.310714
-0.324925
-0.340127
-0.356149
-0.373523
-0.389162
-0.408926
-0.423489
-0.264916
-0.265135
-0.267084
-0.271287
-0.277687
-0.285913
-0.295769
-0.307074
-0.319689
-0.333688
-0.347985
-0.365061
-0.37948
-0.398992
-0.412986
-0.271165
-0.269781
-0.270087
-0.272145
-0.276105
-0.281935
-0.289531
-0.298798
-0.30941
-0.322179
-0.334416
-0.350871
-0.363797
-0.381466
-0.395074
-0.274553
-0.27235
-0.270993
-0.270547
-0.271623
-0.274615
-0.279654
-0.286848
-0.295709
-0.307213
-0.319012
-0.334017
-0.347039
-0.361933
-0.373597
-0.275941
-0.273727
-0.271017
-0.268285
-0.266703
-0.267191
-0.270276
-0.276129
-0.284386
-0.294398
-0.305417
-0.317007
-0.328006
-0.33895
-0.347011
-0.277054
-0.275236
-0.271642
-0.267551
-0.26445
-0.263596
-0.265549
-0.270113
-0.276736
-0.284085
-0.292099
-0.298775
-0.304702
-0.309048
-0.311403
-0.44382
-0.459451
-0.470622
-0.474768
-0.470232
-0.454156
-0.426589
-0.385092
-0.329042
-0.259583
-0.176475
-0.0891005
-0.0138568
0.0387726
0.0661505
0.0748931
0.0727641
0.0654759
0.0566111
0.0479378
0.0400647
0.0332324
0.0274809
0.0227815
0.018826
0.0156212
0.0129266
0.0108312
0.00906345
0.00764907
0.00638398
0.00530772
0.00433913
0.00350117
0.00271789
0.00197525
0.00121086
0.000433926
-0.449355
-0.467952
-0.483075
-0.491292
-0.490202
-0.476638
-0.451329
-0.410387
-0.355014
-0.285028
-0.20087
-0.112802
-0.0373582
0.0154641
0.0449152
0.0573322
0.059504
0.0561663
0.0503231
0.043791
0.0374139
0.0315629
0.0264632
0.0221482
0.0184832
0.0154323
0.0128706
0.0108207
0.00910593
0.00770828
0.0064639
0.00539106
0.00442078
0.00356951
0.00277719
0.00201319
0.00123943
0.000434166
-0.448584
-0.469615
-0.486612
-0.496912
-0.498077
-0.487901
-0.464496
-0.425598
-0.371526
-0.303
-0.221079
-0.135551
-0.0623704
-0.00999961
0.0219828
0.0388574
0.0458558
0.0466386
0.0438585
0.0394984
0.0346134
0.0297657
0.0253277
0.0214219
0.018059
0.0151833
0.0127672
0.0107705
0.00911525
0.00773395
0.00651961
0.00545343
0.00449058
0.00362875
0.00283025
0.00204857
0.0012673
0.000435069
-0.433547
-0.456924
-0.476112
-0.488365
-0.491803
-0.483967
-0.462828
-0.426321
-0.374426
-0.308495
-0.233111
-0.154622
-0.0856965
-0.0340252
0.000523758
0.0215789
0.0329815
0.0376641
0.037819
0.0354375
0.0319061
0.0280025
0.0241824
0.0206925
0.0176093
0.0149201
0.0126334
0.0107026
0.00910145
0.00774096
0.00655682
0.00550021
0.00454925
0.00367984
0.0028775
0.00208192
0.00129408
0.000437042
-0.40934
-0.432448
-0.45465
-0.468214
-0.472973
-0.467459
-0.449099
-0.415946
-0.36774
-0.305955
-0.236758
-0.168893
-0.106497
-0.0555735
-0.0185826
0.00607952
0.0210613
0.0288512
0.031779
0.0313319
0.0291127
0.0261515
0.0229686
0.0199233
0.0171279
0.0146387
0.0124754
0.0106218
0.00907038
0.00773719
0.00658025
0.00553645
0.00459794
0.00372442
0.00291895
0.00211362
0.00131939
0.000440681
-0.381802
-0.400032
-0.422642
-0.436954
-0.441479
-0.437376
-0.421579
-0.392332
-0.349969
-0.296139
-0.236405
-0.177373
-0.123227
-0.0746228
-0.0362349
-0.00876053
0.00920574
0.0199443
0.0252824
0.0269053
0.0261007
0.0240939
0.0215737
0.0190069
0.0165432
0.0142854
0.0122705
0.0105119
0.00901774
0.0077201
0.00659046
0.00556383
0.00463778
0.00376406
0.00295444
0.00214411
0.00134294
0.00044679
-0.35045
-0.36549
-0.385578
-0.396737
-0.403239
-0.40238
-0.390917
-0.36762
-0.332426
-0.287234
-0.235904
-0.1842
-0.136193
-0.0906215
-0.0518107
-0.0223892
-0.00214341
0.0108575
0.018248
0.02186
0.022756
0.0219384
0.0201511
0.018064
0.0159247
0.0138942
0.0120333
0.0103762
0.00894525
0.00768885
0.0065877
0.00558199
0.0046679
0.00379843
0.00298455
0.00217458
0.00136463
0.000456646
-0.313173
-0.323979
-0.337744
-0.34814
-0.352888
-0.354522
-0.349644
-0.336036
-0.312849
-0.28064
-0.240663
-0.196489
-0.152235
-0.110244
-0.0719918
-0.0402611
-0.0166404
-0.000281174
0.0100936
0.0160148
0.0185635
0.0191011
0.0183091
0.0168982
0.0151856
0.0134472
0.0117629
0.0102301
0.00886433
0.00765837
0.00658065
0.00560095
0.0046935
0.00383436
0.00300954
0.0022077
0.00138473
0.00047215
-0.288161
-0.308019
-0.317611
-0.320919
-0.323034
-0.32331
-0.318884
-0.307432
-0.287684
-0.259719
-0.224983
-0.186198
-0.146464
-0.108309
-0.0736622
-0.0443297
-0.0217605
-0.00564214
0.00512318
0.0117701
0.0152347
0.0165736
0.0164365
0.0155473
0.014231
0.0127981
0.0113159
0.00994122
0.00867503
0.00755025
0.00652187
0.0055837
0.00469475
0.00385646
0.00302655
0.00223506
0.00139575
0.000488037
-0.259562
-0.280892
-0.290175
-0.292792
-0.292913
-0.291195
-0.28625
-0.276103
-0.259269
-0.235608
-0.206274
-0.173188
-0.13881
-0.105522
-0.0748758
-0.0481293
-0.026731
-0.0108838
0.000219413
0.00750745
0.0117229
0.0137631
0.0142832
0.0139346
0.0130563
0.011951
0.0107214
0.00952989
0.00839806
0.00736446
0.00640416
0.00550985
0.00465579
0.00383801
0.00302615
0.00223481
0.00139613
0.00049426
-0.23231
-0.253797
-0.263665
-0.26555
-0.264286
-0.261472
-0.256647
-0.248178
-0.23457
-0.215279
-0.190907
-0.162924
-0.133307
-0.103895
-0.0762421
-0.0516098
-0.031273
-0.015716
-0.00442369
0.00333479
0.00820424
0.01092
0.0120736
0.0122585
0.0118158
0.011048
0.0100775
0.00907888
0.008089
0.0071551
0.00626837
0.00542443
0.00460777
0.00381459
0.00301955
0.00223379
0.0013952
0.000497373
-0.207987
-0.227428
-0.23687
-0.238611
-0.236978
-0.233956
-0.229414
-0.222192
-0.21105
-0.195216
-0.174804
-0.151039
-0.125561
-0.099972
-0.0756632
-0.0536638
-0.0349244
-0.0200648
-0.00886333
-0.000793929
0.00462597
0.00795661
0.00971347
0.0104335
0.0104435
0.0100359
0.009346
0.00856134
0.00773045
0.00691085
0.00610733
0.00532184
0.00454763
0.00378382
0.00300499
0.00222751
0.00139215
0.00049911
-0.183956
-0.201212
-0.210487
-0.212605
-0.211243
-0.2084
-0.204218
-0.198012
-0.188831
-0.175954
-0.159296
-0.139659
-0.118307
-0.0964977
-0.0753027
-0.0556314
-0.0383284
-0.0241073
-0.0130177
-0.00472329
0.0011535
0.00503126
0.00734113
0.00856723
0.00901483
0.00896549
0.00855944
0.00799599
0.00733149
0.00663406
0.00592058
0.00519991
0.00447211
0.00374029
0.00298111
0.00221578
0.0013868
0.000499146
-0.161535
-0.177106
-0.185729
-0.188079
-0.187073
-0.184559
-0.180887
-0.17566
-0.168175
-0.157846
-0.144451
-0.128413
-0.110581
-0.0919255
-0.0734253
-0.0559864
-0.0403487
-0.0271197
-0.0164758
-0.00823521
-0.00211227
0.00218324
0.00496343
0.00664836
0.00751009
0.00781376
0.00769689
0.00736678
0.00688128
0.00631679
0.00570173
0.00505334
0.00437868
0.00368448
0.00294856
0.00219701
0.0013772
0.000496527
-0.141103
-0.154711
-0.162546
-0.165022
-0.164411
-0.162359
-0.159313
-0.155045
-0.149041
-0.14083
-0.130157
-0.117175
-0.102431
-0.086736
-0.0709267
-0.0557647
-0.041869
-0.029737
-0.019624
-0.011524
-0.00524853
-0.000611362
0.00258544
0.0046927
0.00595142
0.00660256
0.00677607
0.00668497
0.00638736
0.00596512
0.00545584
0.00488436
0.00426596
0.00361141
0.00290339
0.00217064
0.0013637
0.000492
-0.122506
-0.13415
-0.141174
-0.143674
-0.143425
-0.141856
-0.13944
-0.136055
-0.131323
-0.12487
-0.116444
-0.106067
-0.0940833
-0.0811091
-0.0677954
-0.0547395
-0.0424677
-0.0314402
-0.0219643
-0.0141644
-0.00792531
-0.00311368
0.000373783
0.00281886
0.00441909
0.00538349
0.00582716
0.00596565
0.00585268
0.00557441
0.00517754
0.00469128
0.00413661
0.00352637
0.0028479
0.00213076
0.00134102
0.000483072
-0.105244
-0.115343
-0.121631
-0.124097
-0.124152
-0.123026
-0.121187
-0.118587
-0.114944
-0.109955
-0.103392
-0.0952219
-0.08564
-0.0750603
-0.0639776
-0.0528717
-0.0422001
-0.0323718
-0.0236809
-0.0163222
-0.0102539
-0.00539461
-0.00171869
0.000994009
0.00289236
0.00414272
0.00484271
0.00520877
0.00528445
0.00515077
0.00486577
0.00446549
0.00397958
0.00341919
0.00277653
0.00209522
0.00133061
0.000477739
-0.0897258
-0.0983546
-0.103907
-0.106287
-0.106587
-0.105845
-0.104509
-0.102582
-0.0998544
-0.0960804
-0.0910572
-0.0847238
-0.0771716
-0.0686601
-0.0595635
-0.0502621
-0.0411357
-0.0325324
-0.024703
-0.0178831
-0.0121003
-0.00731311
-0.00355937
-0.00067026
0.00146046
0.00294918
0.00387075
0.00444328
0.00470021
0.00471293
0.00454479
0.00423094
0.00380828
0.00329256
0.00268837
0.00198724
0.00123219
0.000452063
-0.0756854
-0.0830215
-0.0879011
-0.0901688
-0.0906596
-0.0902416
-0.0893295
-0.087966
-0.0859944
-0.0832165
-0.0794538
-0.0746289
-0.0687683
-0.0620246
-0.0546757
-0.0470098
-0.0393314
-0.0319315
-0.0250075
-0.0188074
-0.0134127
-0.00880924
-0.00508868
-0.0021212
0.000167306
0.00183437
0.00292784
0.00367392
0.00409405
0.00423848
0.00418316
0.00396365
0.00363017
0.00317318
0.00260243
0.00205997
0.0013459
0.000466037
-0.0631301
-0.0693437
-0.0736045
-0.0757318
-0.0763575
-0.076197
-0.0756267
-0.0747154
-0.0733483
-0.0713657
-0.0686117
-0.0650018
-0.0605317
-0.0552839
-0.0494476
-0.0432304
-0.0368734
-0.0306217
-0.0246208
-0.0191041
-0.0141815
-0.00985557
-0.00626661
-0.00331613
-0.000944471
0.000850487
0.00207403
0.00295634
0.00351596
0.00378056
0.00381692
0.0036706
0.00337877
0.00297145
0.00244171
0.0016038
0.000968733
0.000388513
-0.0517995
-0.0570473
-0.0607633
-0.0627517
-0.0634803
-0.0635303
-0.0632377
-0.0626886
-0.0618022
-0.0604526
-0.0585049
-0.055876
-0.0525422
-0.048532
-0.0439723
-0.0390103
-0.0338315
-0.0286407
-0.0235448
-0.018749
-0.0143694
-0.0104086
-0.00705015
-0.00422046
-0.0018512
1.1383e-05
0.00131715
0.00230121
0.00298403
0.00335706
0.0035022
0.00344535
0.00326011
0.00290252
0.0024301
0.002322
0.00154828
0.000466599
-0.0418695
-0.0462752
-0.0494917
-0.0513248
-0.0521114
-0.0523148
-0.0522283
-0.0519475
-0.0514186
-0.0505439
-0.0492084
-0.0473354
-0.0448925
-0.041884
-0.0383975
-0.0345227
-0.0303847
-0.0261535
-0.021902
-0.0178105
-0.0139955
-0.0104496
-0.0073854
-0.00475737
-0.00248343
-0.00063415
0.000678382
0.00168845
0.0024255
0.00286153
0.00305054
0.00303822
0.00287305
0.0025674
0.00202491
0.000538994
0.000237971
0.000274631
-0.0327764
-0.0364856
-0.0392839
-0.0409831
-0.0418202
-0.0421563
-0.0422417
-0.042177
-0.041931
-0.0414303
-0.0405769
-0.0392993
-0.0375616
-0.0353497
-0.032727
-0.0297506
-0.0265084
-0.0231373
-0.0196784
-0.0162798
-0.0130534
-0.00996605
-0.0072421
-0.00486725
-0.00274056
-0.000944139
0.000357902
0.00138045
0.00217345
0.00267469
0.00294483
0.00299937
0.00292567
0.0026884
0.00240833
0.00246575
0.00161243
0.000504939
-0.0251938
-0.0282782
-0.0306787
-0.0322257
-0.0330728
-0.0334891
-0.0336807
-0.03375
-0.0336847
-0.0334312
-0.0329091
-0.0320555
-0.0308371
-0.0292322
-0.0272864
-0.0250362
-0.0225384
-0.0199021
-0.017142
-0.0143798
-0.0117202
-0.00911309
-0.00678524
-0.00474112
-0.00287001
-0.00123292
-5.07494e-05
0.000883155
0.00162545
0.00210864
0.00236512
0.00242417
0.00236054
0.00214584
0.00178694
0.00150562
0.00104976
0.00030574
-0.0177286
-0.020341
-0.0224615
-0.0239176
-0.0247998
-0.0253054
-0.0256012
-0.0257873
-0.0258676
-0.0258048
-0.0255353
-0.0250068
-0.024191
-0.023061
-0.0216556
-0.0199945
-0.018114
-0.0161037
-0.0139617
-0.0117803
-0.00965676
-0.00751541
-0.00557433
-0.00385927
-0.00224056
-0.00077348
0.00030183
0.0011569
0.0018634
0.00234918
0.00262631
0.00270252
0.00267523
0.00251234
0.00229805
0.00185931
0.0012124
0.000479912
-0.0126508
-0.0148009
-0.0165758
-0.0178549
-0.0186929
-0.0192186
-0.0195489
-0.0197701
-0.0198967
-0.0199094
-0.0197623
-0.0194121
-0.0188368
-0.0180071
-0.0169628
-0.0157193
-0.0142936
-0.0127659
-0.0111244
-0.00943905
-0.00780329
-0.00611809
-0.00458986
-0.00325499
-0.00197651
-0.000769688
8.90021e-05
0.000762451
0.00133072
0.00171308
0.00192231
0.00196576
0.00191899
0.00170586
0.00137077
0.00110078
0.000723525
0.00021591
-0.00595638
-0.00774898
-0.00936523
-0.0106449
-0.011569
-0.0121972
-0.0126146
-0.0129072
-0.0131078
-0.0132105
-0.0131831
-0.0129895
-0.0126153
-0.0120328
-0.0112883
-0.0103917
-0.00936057
-0.00826558
-0.00708327
-0.00585916
-0.00468199
-0.00343249
-0.00229852
-0.00134244
-0.000390962
0.000546159
0.00120747
0.00171227
0.00214387
0.00246133
0.0025971
0.00259544
0.00252778
0.00234357
0.0021088
0.00156555
0.000951987
0.000399922
-0.00372725
-0.00534767
-0.00669666
-0.00774005
-0.00850973
-0.00904879
-0.00940718
-0.00964684
-0.00979475
-0.00983479
-0.00973914
-0.00948599
-0.00908983
-0.0085361
-0.00787385
-0.00711146
-0.00627052
-0.00541053
-0.00451756
-0.00361576
-0.00279087
-0.0019235
-0.00115804
-0.000548155
7.67219e-05
0.000710257
0.00112294
0.00140408
0.00165832
0.0018219
0.00186362
0.00182018
0.00168591
0.00143727
0.00114665
0.000923282
0.000639699
0.000190197
0.00258527
0.00123742
-4.73955e-05
-0.00113615
-0.00199026
-0.00261466
-0.00303813
-0.00329867
-0.00343963
-0.00346065
-0.00336214
-0.00312266
-0.00278108
-0.0023194
-0.00180708
-0.00125794
-0.000705734
-0.000193224
0.000294174
0.00077003
0.00115997
0.00156576
0.00191137
0.00208711
0.00233115
0.00259823
0.00276864
0.00279533
0.00285835
0.00287921
0.00276387
0.0026426
0.00242345
0.00219407
0.00190701
0.00134493
0.00082735
0.000340257
0.00307771
0.00172454
0.00056192
-0.000431194
-0.00127558
-0.00195281
-0.00243732
-0.00269891
-0.00276541
-0.00264408
-0.0023422
-0.00182967
-0.00117513
-0.000398664
0.000362074
0.00106841
0.00166169
0.00210502
0.00241815
0.00265314
0.00275463
0.00284024
0.00289198
0.00278632
0.00277145
0.00276591
0.00275235
0.00258134
0.00251418
0.00239145
0.00222178
0.00205546
0.00177133
0.00151801
0.00119171
0.000884341
0.000626451
0.000202579
0.00699702
0.00588046
0.00479306
0.00387493
0.00317352
0.00273274
0.00252009
0.00256418
0.00280047
0.00325628
0.00387256
0.004669
0.00548281
0.00628151
0.00691142
0.00734815
0.00753255
0.00746401
0.00721607
0.00683304
0.00639148
0.0058814
0.00547108
0.00489462
0.00453355
0.00416018
0.00392658
0.00353743
0.00330242
0.00305674
0.00278271
0.00258051
0.00220788
0.00196293
0.00158768
0.00112164
0.000762752
0.000273248
-0.119092
-0.135835
-0.152807
-0.170609
-0.190035
-0.210735
-0.23438
-0.26024
-0.111529
-0.126433
-0.141625
-0.157744
-0.175137
-0.193405
-0.211733
-0.232894
-0.103094
-0.11571
-0.128345
-0.141987
-0.155952
-0.170946
-0.18636
-0.205789
-0.0947
-0.105419
-0.116076
-0.127707
-0.139856
-0.153287
-0.168022
-0.185305
-0.0862329
-0.0954848
-0.104794
-0.114997
-0.125998
-0.137846
-0.150533
-0.164748
-0.0782734
-0.0862069
-0.0942763
-0.102943
-0.112253
-0.12197
-0.132473
-0.144709
-0.070448
-0.0770909
-0.0838935
-0.0911036
-0.0989011
-0.107135
-0.116233
-0.126859
-0.0628315
-0.0683235
-0.074008
-0.0800898
-0.0867417
-0.0938003
-0.1015
-0.110432
-0.0554392
-0.059963
-0.0646772
-0.0697818
-0.075356
-0.0812374
-0.0876078
-0.0950887
-0.0482611
-0.0519745
-0.0558316
-0.0600505
-0.0646714
-0.069582
-0.0749176
-0.0812214
-0.0412618
-0.0443183
-0.0474706
-0.050954
-0.0547954
-0.0589064
-0.0633544
-0.0686102
-0.0344796
-0.0370392
-0.0396474
-0.0425357
-0.0457247
-0.0491509
-0.0528484
-0.0572364
-0.0278551
-0.0300404
-0.0322322
-0.034638
-0.0372867
-0.0401459
-0.0432325
-0.0469011
-0.0216466
-0.0235598
-0.0254568
-0.0275042
-0.0297286
-0.0321335
-0.0347295
-0.0378055
-0.0154258
-0.0171834
-0.0188683
-0.0206332
-0.0225305
-0.0245809
-0.0267857
-0.0293851
-0.0100738
-0.011681
-0.0132496
-0.0148561
-0.0165217
-0.0182941
-0.0201861
-0.0223832
-0.00417949
-0.00582066
-0.00734603
-0.00882206
-0.0103041
-0.0118565
-0.0134948
-0.0153759
9.20214e-06
-0.00148553
-0.00295127
-0.00442077
-0.00589405
-0.00740758
-0.00895657
-0.0106458
0.00580254
0.0040908
0.00246066
0.000932867
-0.000469066
-0.0017889
-0.00305833
-0.00439507
0.00869612
0.00712869
0.00557894
0.0040423
0.00253427
0.00102807
-0.000479626
-0.00205277
0.0140322
0.012255
0.0105431
0.00892746
0.00746528
0.00614349
0.00494314
0.00379148
0.0164403
0.014618
0.0128226
0.011056
0.00933774
0.00767737
0.0060838
0.0045468
0.018981
0.0171375
0.0153909
0.0137306
0.0121574
0.0106999
0.00936666
0.00815227
0.0519266
0.055629
0.058375
0.0600148
0.0602221
0.0589418
0.0559988
0.0508461
0.0425802
0.0299584
0.0112895
-0.0157333
-0.0548068
-0.108696
-0.154275
0.0302691
0.031372
0.0303361
0.028171
0.0249679
0.0203013
0.0136036
0.00414588
-0.00904559
-0.0272773
-0.0523514
-0.0865894
-0.133246
-0.196071
-0.243306
0.00815071
0.00654274
0.00219457
-0.0030423
-0.00911614
-0.0167806
-0.0267972
-0.0399583
-0.0572758
-0.080138
-0.110441
-0.150594
-0.203042
-0.270556
-0.316563
-0.0156509
-0.0197408
-0.0261618
-0.0332986
-0.0414768
-0.0515884
-0.0643645
-0.0805236
-0.101
-0.127389
-0.161536
-0.205872
-0.262081
-0.329128
-0.372313
-0.0401617
-0.0462943
-0.0538662
-0.0620819
-0.0717693
-0.0837199
-0.0985231
-0.116905
-0.1394
-0.168146
-0.204655
-0.251116
-0.307939
-0.371208
-0.409826
-0.0642154
-0.071803
-0.0799728
-0.0887867
-0.099678
-0.112887
-0.12893
-0.14851
-0.172502
-0.202193
-0.239282
-0.285353
-0.339954
-0.396581
-0.429728
-0.0873336
-0.0950649
-0.103614
-0.113419
-0.12506
-0.138951
-0.155564
-0.175549
-0.199723
-0.229109
-0.265083
-0.308596
-0.358183
-0.405634
-0.433807
-0.108186
-0.11628
-0.125287
-0.135678
-0.147788
-0.161926
-0.178507
-0.198102
-0.221422
-0.249312
-0.282699
-0.321748
-0.363691
-0.400222
-0.424582
0.190692
0.2057
0.222369
0.240783
0.260921
0.28274
0.306205
0.331277
0.357865
0.385712
0.41427
0.442486
0.468531
0.488944
0.506
0.185841
0.199557
0.215106
0.232583
0.251788
0.27254
0.294765
0.318428
0.343426
0.369472
0.395961
0.421772
0.444986
0.462208
0.476171
0.177106
0.188818
0.202748
0.218849
0.236605
0.255633
0.275794
0.297043
0.319249
0.34205
0.364739
0.386073
0.403947
0.415136
0.423453
0.164433
0.173725
0.185744
0.200101
0.215888
0.232545
0.249895
0.267872
0.286277
0.304628
0.322059
0.337149
0.347512
0.350035
0.350782
0.148053
0.154801
0.164857
0.177239
0.190597
0.204264
0.218085
0.231992
0.245713
0.25862
0.269652
0.277174
0.27848
0.270356
0.26195
0.128219
0.132382
0.140504
0.150783
0.161436
0.17176
0.181633
0.190969
0.199388
0.206113
0.209899
0.208895
0.200096
0.180179
0.161075
0.105706
0.107665
0.114019
0.121802
0.129215
0.13576
0.141413
0.145972
0.148852
0.14909
0.145265
0.135325
0.116008
0.0840235
0.0540867
0.0799313
0.0812791
0.0865509
0.0916377
0.0954192
0.0978891
0.0991171
0.0987391
0.0959649
0.0896519
0.0782172
0.0594159
0.029744
-0.0138449
-0.0532101
0.0258092
0.0283346
0.0273247
0.0291582
0.0298963
0.0323613
0.0339599
0.0372767
0.0402827
0.0445012
0.0489375
0.0545039
0.0605342
0.0676663
0.0755218
0.084519
0.0943469
0.105324
0.117197
0.13026
0.144239
0.15934
0.175258
0.0281527
0.0306747
0.0295117
0.0313643
0.0318974
0.0343518
0.0357719
0.0390638
0.041885
0.0460335
0.0503106
0.0557569
0.0616363
0.0685972
0.0762692
0.0850048
0.0945098
0.105098
0.116457
0.128983
0.14226
0.156674
0.171654
0.0304972
0.0329616
0.0316957
0.0335142
0.0338826
0.0362872
0.0375479
0.0408048
0.043429
0.0475287
0.0516251
0.0569577
0.0626548
0.0694239
0.0768677
0.0852925
0.0943251
0.104366
0.114933
0.126611
0.13874
0.151939
0.165168
0.0328414
0.0351935
0.0338749
0.0356029
0.0358451
0.0381575
0.0392897
0.0424767
0.0449181
0.0489528
0.0528568
0.058058
0.0635602
0.0701296
0.0773167
0.0853921
0.0937575
0.1031
0.112594
0.123112
0.133551
0.144902
0.155507
0.035181
0.0373744
0.0360426
0.0376278
0.0377787
0.0399529
0.0409874
0.0440629
0.0463433
0.0502871
0.0539891
0.0590255
0.0643067
0.0705693
0.0773553
0.0848776
0.0923832
0.10077
0.108932
0.117987
0.126355
0.135439
0.142699
0.0375082
0.0395128
0.0381926
0.0395951
0.0396725
0.0416654
0.0426241
0.0455433
0.0476861
0.051526
0.0550612
0.0599539
0.0651166
0.0712075
0.0774753
0.084462
0.090975
0.0983812
0.104828
0.112085
0.117559
0.123685
0.126729
0.0398152
0.0416159
0.0403209
0.0415074
0.0415175
0.0432828
0.0441971
0.0469216
0.04896
0.0526209
0.0559513
0.0605867
0.0654161
0.0710222
0.0766108
0.0827242
0.0881651
0.0941976
0.0989743
0.104143
0.106932
0.109853
0.108273
0.0420949
0.0436902
0.0424135
0.0433644
0.0433036
0.0447999
0.0456601
0.0481766
0.0501695
0.053746
0.0570434
0.0616228
0.0663362
0.0716927
0.0765786
0.0819817
0.0861563
0.0908302
0.0931843
0.0958234
0.0943407
0.0933293
0.0861559
0.0442959
0.0457131
0.0444622
0.0451625
0.0450279
0.0462596
0.0471039
0.0493247
0.0512338
0.0544411
0.0575218
0.0616327
0.0656587
0.0702434
0.0742172
0.0783983
0.0813697
0.0840948
0.0848603
0.0846054
0.0811489
0.0751814
0.0631483
0.0465395
0.0477982
0.0465699
0.0470391
0.0468134
0.0477846
0.0485346
0.0503887
0.0521114
0.0548617
0.0576363
0.0611075
0.0644357
0.0681226
0.0711535
0.0740052
0.0757048
0.076564
0.0757574
0.0730515
0.068021
0.0600144
0.0501257
0.0490022
0.0500777
0.0488792
0.0490861
0.0487489
0.0493976
0.050004
0.0514192
0.052917
0.0551517
0.0575421
0.06027
0.0628901
0.0655208
0.0675927
0.0690267
0.0694722
0.068639
0.0663955
0.0621229
0.0561812
0.0483506
0.0396324
0.0517159
0.0525577
0.051414
0.0513053
0.0508433
0.0511153
0.0515539
0.052507
0.0537216
0.055414
0.0573279
0.0592797
0.0611388
0.0627137
0.0637834
0.0639216
0.0631389
0.0609606
0.057538
0.0524585
0.0461327
0.0386142
0.0304169
0.0547114
0.0552529
0.0541921
0.0537166
0.0531006
0.0529819
0.0531951
0.0536761
0.0545151
0.0556494
0.0569974
0.0581757
0.0592156
0.059805
0.0598579
0.0588775
0.0569701
0.0537953
0.0495244
0.0440018
0.037497
0.030158
0.022347
0.0580185
0.0581934
0.0572287
0.056361
0.0555257
0.0550235
0.0549198
0.0549177
0.0552993
0.0558692
0.0565851
0.0570027
0.0571999
0.0568752
0.0559353
0.0539863
0.0511144
0.0471865
0.0423371
0.0365458
0.0300066
0.0228864
0.0154653
0.0616701
0.0614273
0.0605381
0.0592765
0.0581287
0.0572508
0.0567443
0.0562373
0.0561136
0.056108
0.0561343
0.0557886
0.0551459
0.0539532
0.0521009
0.0493157
0.0456891
0.041233
0.036056
0.0301756
0.0237497
0.0169243
0.00988231
0.0657034
0.0650126
0.0641376
0.0625001
0.0609342
0.0596773
0.0587172
0.0576565
0.0569835
0.0563824
0.0556757
0.0545576
0.0531155
0.0511395
0.0485068
0.0450513
0.0409048
0.0361325
0.0308247
0.0249943
0.0187666
0.0122511
0.00554626
0.0701625
0.06901
0.0680618
0.0660735
0.0639929
0.0623226
0.0608756
0.0591872
0.0579114
0.0567178
0.055285
0.0534082
0.051241
0.0486077
0.0453567
0.0413922
0.0368841
0.0319382
0.0266269
0.0209413
0.0149631
0.00876502
0.00237206
0.0751013
0.073498
0.0723648
0.0700358
0.067357
0.0651986
0.0632456
0.0608852
0.0589503
0.0571796
0.0550681
0.0524602
0.0496333
0.0464697
0.0427583
0.0384229
0.0336732
0.0286702
0.0234627
0.0179976
0.0123053
0.006446
0.000410989
0.0805914
0.0785689
0.0771233
0.0744323
0.0710861
0.068331
0.0658467
0.0628159
0.0601789
0.0578451
0.0551355
0.0518572
0.0484222
0.0448213
0.0407845
0.0362049
0.0313182
0.026345
0.0213177
0.0161304
0.0107643
0.00527411
-0.000354501
0.0867326
0.0843262
0.0824218
0.0793081
0.0752623
0.0718183
0.0687504
0.0650416
0.0616498
0.0587324
0.0555044
0.0516734
0.0477318
0.0438032
0.039571
0.0348621
0.0299145
0.0250187
0.0202072
0.015335
0.0103313
0.00523963
3.99343e-05
0.0936626
0.0909058
0.0883933
0.0847314
0.0799204
0.0756999
0.0720133
0.067675
0.0635439
0.0600214
0.0563106
0.0519963
0.0476053
0.0434097
0.0390754
0.0343448
0.0294276
0.0246593
0.0200974
0.0155638
0.0109384
0.00625589
0.00153458
0.101565
0.0984546
0.095204
0.0908468
0.0851806
0.0800624
0.075637
0.0706746
0.0658803
0.0618091
0.0576907
0.0530038
0.0482501
0.0438228
0.0394187
0.034712
0.0298605
0.0252278
0.0208998
0.0166856
0.01241
0.00806315
0.00364334
0.110713
0.107191
0.103022
0.0977455
0.0911296
0.0850532
0.079804
0.0741675
0.0687111
0.064102
0.0596304
0.0546709
0.0496509
0.0450551
0.0406356
0.0360204
0.0313001
0.0268332
0.0227406
0.0188421
0.0149445
0.011031
0.00712666
0.121477
0.11738
0.112075
0.105614
0.0979088
0.0907598
0.0845619
0.0781741
0.0720326
0.06685
0.0619924
0.056769
0.0515193
0.0467609
0.0423095
0.0377695
0.0331645
0.0288234
0.0248848
0.0211772
0.0174814
0.0137447
0.00999206
0.134455
0.129389
0.122508
0.114553
0.105728
0.0976052
0.0905583
0.0835159
0.0767728
0.0710438
0.0657983
0.0603292
0.0548827
0.0499836
0.0455099
0.0410634
0.0365981
0.0324066
0.0286517
0.0251999
0.0218356
0.0184869
0.0151685
0.15061
0.14395
0.134504
0.124078
0.113378
0.103743
0.0955004
0.0876192
0.0802377
0.0739969
0.0684236
0.062771
0.057188
0.0521885
0.0477187
0.0433816
0.0390505
0.034951
0.0312578
0.0278723
0.0245929
0.021331
0.018109
0.17104
0.162247
0.1504
0.137913
0.125536
0.114427
0.104888
0.0959927
0.0877417
0.0807156
0.0745577
0.0685528
0.0627239
0.0575229
0.0529457
0.0486187
0.0443573
0.0403283
0.0367163
0.0334714
0.0304085
0.027409
0.024464
0.197093
0.180323
0.162478
0.146566
0.132055
0.119434
0.108774
0.0991182
0.0902979
0.0827771
0.0763
0.0701861
0.0643615
0.0592156
0.0547616
0.0506273
0.0465522
0.0426162
0.0390181
0.0357726
0.0327491
0.0298288
0.0269957
0.242787
0.215204
0.189451
0.168321
0.150283
0.134903
0.12183
0.110324
0.100032
0.0912156
0.0837712
0.0771509
0.0710904
0.0657165
0.061024
0.056729
0.0526007
0.0486488
0.0450369
0.0418182
0.0389029
0.0361512
0.0334943
0.277402
0.229206
0.195778
0.173481
0.154768
0.138274
0.124036
0.111696
0.100782
0.0914187
0.0836905
0.0771152
0.0712753
0.0660594
0.0614942
0.0573889
0.0535181
0.0497937
0.0463224
0.0432
0.0404142
0.0378628
0.0354599
0.435317
0.281741
0.230402
0.200024
0.174131
0.152087
0.133865
0.11908
0.106857
0.09673
0.0885349
0.0817783
0.0758932
0.0704733
0.0655004
0.0610025
0.0569351
0.0531793
0.0497054
0.0465518
0.0437419
0.0412206
0.0388946
0.047003
0.0263337
0.0045465
-0.0171073
-0.0394517
-0.0616799
-0.0825605
-0.10159
0.0390891
0.018984
-0.00366571
-0.0240574
-0.0434311
-0.0623272
-0.0799077
-0.096095
0.0306323
0.0134166
-0.00782407
-0.0270763
-0.0436939
-0.0594708
-0.0748307
-0.0895475
0.0223151
0.00741077
-0.0121758
-0.0303722
-0.0451459
-0.0583469
-0.0710074
-0.0832843
0.0147671
0.00192418
-0.0153568
-0.0318574
-0.0447523
-0.055572
-0.0657748
-0.0764235
0.00826459
-0.00290737
-0.0178531
-0.0324402
-0.0438509
-0.0530772
-0.0617929
-0.0700921
0.00294914
-0.00692402
-0.0196245
-0.0320221
-0.041819
-0.0495498
-0.0566622
-0.0636135
-0.0011965
-0.0100638
-0.020654
-0.0307311
-0.0389045
-0.0454658
-0.0514476
-0.0571975
-0.00420814
-0.0122524
-0.0207977
-0.0286417
-0.0352704
-0.0408572
-0.0459564
-0.0507786
-0.00589208
-0.0130996
-0.0199186
-0.0259118
-0.0311894
-0.0359151
-0.040295
-0.0443838
-0.00627521
-0.0126564
-0.0180871
-0.022645
-0.0268095
-0.0307647
-0.0345196
-0.0380134
-0.00547148
-0.0111319
-0.0155054
-0.0189862
-0.0222619
-0.0255462
-0.0287462
-0.0317294
-0.00342297
-0.00837129
-0.0119914
-0.0147524
-0.0173801
-0.0201204
-0.0228712
-0.0254765
-0.00104274
-0.00550774
-0.00852153
-0.0106908
-0.0127891
-0.0150596
-0.0173791
-0.0195885
0.00304412
-0.000894978
-0.00361842
-0.00555494
-0.00737182
-0.00935719
-0.0114503
-0.0135158
0.00608702
0.00248324
9.2483e-05
-0.00156438
-0.00312384
-0.00483332
-0.00662903
-0.00838615
0.0117281
0.00842016
0.00602734
0.00429532
0.0027437
0.0010987
-0.000651433
-0.00244994
0.0148311
0.0117795
0.0095477
0.00787316
0.00633152
0.0047231
0.00309888
0.00153948
0.0214516
0.0185121
0.0161512
0.014281
0.012635
0.0110068
0.00931642
0.00754613
0.0241646
0.0214332
0.0191224
0.0171476
0.0153217
0.0135489
0.0118532
0.0102643
0.0307977
0.0280805
0.0256328
0.0234877
0.0215364
0.0196443
0.0177499
0.0158615
0.0330714
0.0306442
0.0283227
0.0261453
0.0240866
0.022098
0.0201725
0.0182846
0.0365765
0.0341568
0.0317463
0.0294149
0.0271865
0.0250369
0.0229478
0.0209234
-0.290724
-0.292349
-0.297947
-0.30756
-0.321055
-0.338783
-0.360707
-0.383673
-0.288345
-0.29023
-0.295151
-0.303076
-0.313971
-0.327888
-0.344512
-0.362328
-0.284719
-0.286041
-0.290523
-0.297202
-0.305964
-0.317065
-0.329257
-0.339029
-0.281011
-0.281507
-0.285079
-0.29025
-0.296456
-0.303276
-0.308768
-0.309601
-0.279046
-0.278131
-0.280038
-0.282736
-0.285276
-0.286834
-0.285676
-0.279415
-0.280002
-0.276953
-0.276125
-0.275374
-0.273666
-0.270232
-0.263727
-0.252425
-0.284135
-0.278143
-0.273661
-0.268778
-0.26272
-0.254935
-0.244327
-0.229437
-0.29076
-0.281188
-0.272356
-0.262998
-0.252727
-0.241335
-0.227538
-0.210087
-0.298783
-0.284981
-0.27149
-0.257532
-0.243661
-0.229272
-0.21305
-0.193757
-0.306563
-0.288463
-0.270022
-0.252055
-0.235257
-0.218497
-0.200471
-0.179905
-0.313742
-0.290381
-0.267385
-0.246242
-0.227287