/*--------------------------------*- C++ -*----------------------------------*\
| =========                 |                                                 |
| \\      /  F ield         | OpenFOAM: The Open Source CFD Toolbox           |
|  \\    /   O peration     | Version:  2512                                  |
|   \\  /    A nd           | Website:  www.openfoam.com                      |
|    \\/     M anipulation  |                                                 |
\*---------------------------------------------------------------------------*/
FoamFile
{
    version     2.0;
    format      ascii;
    arch        "LSB;label=32;scalar=64";
    class       volVectorField;
    location    "81.95";
    object      U;
}
// * * * * * * * * * * * * * * * * * * * * * * * * * * * * * * * * * * * * * //

dimensions      [0 1 -1 0 0 0 0];

internalField   nonuniform List<vector> 
13248
(
(-0.0152523 0.0133296 7.81669e-20)
(-0.0231836 0.0267802 0)
(-0.00513628 0.0309055 -1.35e-19)
(0.0394274 0.0260935 1.24996e-19)
(0.111869 0.0138906 1.154e-19)
(0.213707 -0.00375507 0)
(0.344801 -0.0248187 0)
(0.500873 -0.0473986 2.74021e-19)
(0.67216 -0.0699255 -5.48696e-22)
(0.844587 -0.0913362 -2.34644e-19)
(1.00294 -0.111111 2.13271e-19)
(1.13444 -0.129138 -1.32478e-19)
(1.23128 -0.14545 0)
(1.29173 -0.16 -2.05602e-19)
(1.31954 -0.172594 3.7228e-19)
(1.32206 -0.182944 -8.92509e-20)
(1.30781 -0.190796 -1.36274e-19)
(1.28434 -0.195967 1.27062e-19)
(1.25692 -0.198294 0)
(1.22856 -0.198375 0)
(1.20114 -0.19435 0)
(1.17255 -0.192421 0)
(1.14917 -0.179363 2.55596e-20)
(1.11539 -0.184272 7.65176e-20)
(-0.0155946 0.0114744 -2.34954e-19)
(-0.0158595 0.0173017 1.47812e-19)
(0.0163065 0.0136876 -7.62535e-22)
(0.0823219 0.00303113 -1.89061e-19)
(0.184376 -0.0122587 -1.15239e-19)
(0.322509 -0.0297417 -1.07045e-19)
(0.491149 -0.0471718 -1.96385e-19)
(0.677385 -0.062942 1.81767e-19)
(0.863139 -0.0764256 0)
(1.03009 -0.0879225 1.61937e-21)
(1.16443 -0.0982418 1.37114e-21)
(1.25946 -0.108158 1.27462e-19)
(1.31583 -0.118024 0)
(1.33984 -0.127701 0)
(1.34052 -0.136707 1.27471e-19)
(1.32687 -0.144481 -2.37719e-19)
(1.30585 -0.150527 1.28744e-19)
(1.28177 -0.154563 -1.2004e-19)
(1.25678 -0.156473 -4.85933e-20)
(1.23188 -0.156213 -8.10227e-20)
(1.20711 -0.15393 -2.84624e-20)
(1.18324 -0.15016 -5.12602e-20)
(1.16075 -0.141846 8.21473e-20)
(1.13514 -0.1407 2.11567e-20)
(-0.0149801 0.00980889 0)
(-0.00318156 0.00925092 0)
(0.0505115 -0.000186295 6.79974e-20)
(0.14728 -0.0145356 6.21852e-20)
(0.287686 -0.0302858 -8.77805e-22)
(0.465855 -0.0444292 -1.08512e-19)
(0.666083 -0.0551195 0)
(0.865642 -0.0621544 -9.04973e-20)
(1.04221 -0.0667176 8.17001e-20)
(1.18049 -0.0705465 -1.76775e-21)
(1.27492 -0.075061 -1.34555e-19)
(1.32872 -0.080873 -1.17767e-19)
(1.35062 -0.0877916 5.15185e-21)
(1.35109 -0.0951442 -8.69749e-20)
(1.33915 -0.102164 2.14275e-19)
(1.32103 -0.108237 0)
(1.30015 -0.11298 -1.22665e-19)
(1.27812 -0.116259 6.03943e-20)
(1.25574 -0.117854 4.85424e-20)
(1.23327 -0.118181 0)
(1.21155 -0.116226 3.54478e-20)
(1.19013 -0.114277 -1.13523e-19)
(1.17027 -0.108205 1.06012e-19)
(1.14932 -0.108369 5.83053e-20)
(-0.0121626 0.00748961 -8.07175e-20)
(0.0175071 0.001098 -7.68159e-20)
(0.100632 -0.0120732 6.94269e-20)
(0.236399 -0.0271181 0)
(0.419587 -0.0396333 0)
(0.632954 -0.0468821 -8.26141e-22)
(0.848709 -0.0488255 0)
(1.039 -0.0475724 -2.66183e-19)
(1.18575 -0.0458701 2.42079e-19)
(1.28386 -0.0457784 -2.93779e-19)
(1.3387 -0.0481046 6.61436e-20)
(1.36114 -0.0525676 0)
(1.36267 -0.058324 9.99557e-20)
(1.35239 -0.0644744 -1.81055e-19)
(1.33608 -0.0703358 4.29794e-20)
(1.31686 -0.0754798 1.00807e-19)
(1.29631 -0.0796806 -8.23992e-21)
(1.27532 -0.0827449 -1.0753e-19)
(1.25438 -0.0846745 0)
(1.23403 -0.0852804 0)
(1.2144 -0.084544 -3.35665e-20)
(1.19557 -0.0833529 2.8855e-20)
(1.17834 -0.0786483 9.51951e-20)
(1.15984 -0.0802809 -8.88889e-20)
(-0.00609653 0.00423369 -8.3295e-20)
(0.0484879 -0.00762629 -7.76164e-20)
(0.168862 -0.0220792 2.14684e-19)
(0.349214 -0.033972 -1.29675e-19)
(0.572722 -0.0390718 1.20113e-19)
(0.807106 -0.0368138 2.15909e-19)
(1.01684 -0.0301933 -1.49016e-19)
(1.17845 -0.0231886 -1.73953e-19)
(1.28561 -0.018644 6.02437e-21)
(1.34513 -0.0175941 2.17064e-19)
(1.36981 -0.0196584 0)
(1.3725 -0.0238127 5.50299e-20)
(1.36294 -0.0290166 0)
(1.34724 -0.034494 -8.45179e-20)
(1.32878 -0.0397441 1.17676e-19)
(1.3093 -0.0444591 1.30104e-21)
(1.28969 -0.0484187 -2.86791e-20)
(1.27037 -0.0515171 5.18552e-20)
(1.25157 -0.0536325 4.3483e-20)
(1.23335 -0.0547838 -3.77251e-20)
(1.21579 -0.0549558 3.35502e-20)
(1.19899 -0.0544462 -2.88408e-20)
(1.18283 -0.0521822 0)
(1.16652 -0.0540417 -2.08334e-20)
(0.00408421 0.00027656 8.3274e-20)
(0.0915907 -0.0161565 8.00856e-20)
(0.256126 -0.028664 -7.18183e-20)
(0.481998 -0.0329473 1.3161e-19)
(0.735072 -0.0273058 -1.21903e-19)
(0.970485 -0.0153089 1.07824e-19)
(1.15525 -0.00258188 -5.0753e-20)
(1.27875 0.00683018 1.30863e-19)
(1.34792 0.0114794 -8.005e-20)
(1.37751 0.0118319 1.35493e-19)
(1.38236 0.00916457 -3.06137e-19)
(1.3737 0.00476072 1.09577e-19)
(1.35856 -0.000420953 -9.27463e-20)
(1.34078 -0.00575774 8.63408e-20)
(1.3222 -0.0108665 7.13785e-20)
(1.30359 -0.0155066 6.03814e-20)
(1.28521 -0.0195439 -1.66195e-19)
(1.26717 -0.0228818 1.01654e-19)
(1.24953 -0.0254881 -4.34751e-20)
(1.23242 -0.0273411 1.09396e-19)
(1.21599 -0.0284089 -3.51885e-20)
(1.20024 -0.0289116 -8.11032e-20)
(1.18539 -0.0279991 7.38316e-20)
(1.1708 -0.0301447 2.08266e-20)
(0.0191253 -0.00379633 0)
(0.147962 -0.0227631 4.99507e-22)
(0.361234 -0.0291493 1.4755e-19)
(0.627014 -0.0216963 -1.36188e-19)
(0.892448 -0.00428735 -1.20569e-19)
(1.10995 0.0152125 2.1969e-19)
(1.25925 0.0306862 -1.00113e-19)
(1.34486 0.0397978 1.28757e-19)
(1.3832 0.0430018 -3.91905e-21)
(1.39186 0.0419418 -6.96994e-20)
(1.38448 0.0383149 1.47333e-19)
(1.36962 0.0333936 -2.13183e-19)
(1.35189 0.0279819 0)
(1.33337 0.0225417 -3.97942e-20)
(1.31487 0.0173325 -1.03716e-19)
(1.29665 0.0125022 3.25247e-20)
(1.27886 0.00815399 1.70347e-21)
(1.2616 0.00435579 -6.59723e-20)
(1.24497 0.00115961 5.67985e-21)
(1.22908 -0.00139334 7.45337e-20)
(1.2139 -0.00335125 -3.17096e-20)
(1.1995 -0.00462153 -1.14447e-20)
(1.1857 -0.00533751 3.6594e-20)
(1.17229 -0.00763311 0)
(0.0396012 -0.00722723 0)
(0.217618 -0.0252403 4.04566e-20)
(0.480116 -0.0207532 -1.89755e-19)
(0.773624 0.000903541 6.78544e-20)
(1.03299 0.0284853 -6.28517e-20)
(1.2201 0.052047 -5.51706e-20)
(1.33187 0.0672983 -9.51939e-20)
(1.38499 0.0743531 4.73167e-20)
(1.40049 0.075309 4.03498e-20)
(1.39551 0.0725056 0)
(1.38108 0.0677259 8.5983e-20)
(1.36311 0.0620729 -1.24955e-19)
(1.34427 0.0561459 9.21656e-20)
(1.32557 0.0502589 3.98111e-20)
(1.30735 0.0445912 -3.15765e-20)
(1.28973 0.0392651 -2.55763e-20)
(1.27275 0.0343688 -2.32576e-20)
(1.25642 0.0299639 7.05715e-20)
(1.24077 0.0260907 0)
(1.22576 0.0227462 3.35671e-20)
(1.21141 0.0199712 2.70351e-20)
(1.19766 0.017705 -6.7819e-20)
(1.18449 0.0157762 -4.42958e-20)
(1.17192 0.0135486 4.10056e-20)
(0.0657916 -0.00913543 -4.57152e-20)
(0.299058 -0.0212766 -1.10561e-21)
(0.606007 -0.00152784 3.83869e-20)
(0.91137 0.0343471 1.04071e-19)
(1.15009 0.0688411 2.86641e-20)
(1.30169 0.0930815 -5.51551e-20)
(1.37909 0.105933 4.98668e-20)
(1.40663 0.109903 -4.27133e-20)
(1.40627 0.108255 7.40792e-20)
(1.39285 0.103594 3.09016e-20)
(1.3745 0.0975413 -8.63165e-20)
(1.35493 0.090956 2.51188e-20)
(1.33559 0.0842637 4.19532e-20)
(1.3169 0.0776865 -2.05047e-20)
(1.29897 0.0713592 0)
(1.28178 0.0653716 2.94208e-20)
(1.2653 0.059788 4.88427e-20)
(1.24955 0.0546521 7.84291e-21)
(1.23452 0.0499885 -3.97395e-20)
(1.22022 0.0458306 1.63745e-20)
(1.20661 0.042175 0)
(1.19365 0.0389808 -1.24059e-20)
(1.18128 0.0360537 -1.11983e-20)
(1.16941 0.0336589 0)
(0.097483 -0.00856112 0)
(0.389078 -0.00885705 2.20682e-20)
(0.730821 0.02912 4.01384e-20)
(1.03266 0.0770698 -1.0484e-19)
(1.242 0.114745 3.30583e-20)
(1.3583 0.136887 0)
(1.40678 0.145897 4.6492e-20)
(1.41535 0.14626 -6.37886e-20)
(1.40449 0.141876 -3.6686e-20)
(1.38602 0.135266 1.64449e-20)
(1.36554 0.127765 -2.53765e-20)
(1.34523 0.120009 6.13141e-20)
(1.32574 0.112291 3.0251e-20)
(1.30721 0.104765 -2.09464e-20)
(1.2896 0.0975293 -2.08223e-21)
(1.27287 0.0906537 -5.55715e-20)
(1.25699 0.0841955 2.5045e-20)
(1.24193 0.078192 -4.80825e-22)
(1.22767 0.0726756 0)
(1.21414 0.0676612 -1.63904e-20)
(1.20128 0.0631485 0)
(1.18898 0.0590397 3.59182e-20)
(1.1772 0.0553281 -4.23567e-20)
(1.1659 0.0526677 1.90617e-20)
(0.133873 -0.00455095 -1.21815e-20)
(0.483059 0.0133745 -5.51959e-20)
(0.847043 0.0705315 6.13563e-20)
(1.13332 0.127171 3.49729e-20)
(1.30969 0.164588 -1.6725e-20)
(1.39397 0.182579 2.64182e-20)
(1.41948 0.186895 -1.2826e-20)
(1.41457 0.183423 2.06597e-20)
(1.397 0.176236 0)
(1.37563 0.167556 4.52101e-20)
(1.35406 0.158416 -1.83094e-21)
(1.33343 0.14926 -3.57034e-20)
(1.31397 0.140286 1.51503e-20)
(1.29566 0.131603 -1.69197e-20)
(1.27841 0.123287 -6.38301e-21)
(1.26214 0.115391 7.27875e-21)
(1.24679 0.107957 -5.61193e-21)
(1.23231 0.101006 -2.97941e-20)
(1.21866 0.0945566 1.81672e-20)
(1.20576 0.0886297 3.7061e-21)
(1.19354 0.0831933 3.22704e-21)
(1.18192 0.0781825 2.80933e-21)
(1.17085 0.0737598 0)
(1.16023 0.0704948 0)
(0.173673 0.00373352 1.21963e-20)
(0.575769 0.0459231 -1.13408e-20)
(0.949065 0.121327 -2.03761e-20)
(1.2118 0.182881 0)
(1.35524 0.217197 -8.1511e-21)
(1.41214 0.229617 -6.9961e-21)
(1.42016 0.228757 -1.16993e-20)
(1.40605 0.221331 0)
(1.38438 0.211239 0)
(1.36145 0.200311 0)
(1.33942 0.1893 0)
(1.31879 0.178504 0)
(1.29957 0.168052 -9.5398e-21)
(1.28163 0.158014 4.3109e-21)
(1.26485 0.14844 7.4199e-21)
(1.24913 0.139366 3.42108e-21)
(1.23441 0.130814 8.44983e-21)
(1.22062 0.122796 0)
(1.20772 0.115335 -1.99921e-21)
(1.1956 0.108436 -1.84669e-21)
(1.18417 0.102054 -3.23208e-21)
(1.17336 0.0961583 -2.81372e-21)
(1.16306 0.0910216 0)
(1.15326 0.0869779 1.99627e-21)
(-0.00650551 0.0929966 7.39217e-21)
(-0.0227785 0.156274 -7.04856e-21)
(-0.048336 0.15841 -1.31137e-20)
(-0.0772317 0.135523 0)
(-0.107333 0.104989 -1.70528e-20)
(-0.137842 0.0717119 5.16831e-21)
(-0.168147 0.0350385 -1.02121e-20)
(-0.197531 -0.00670898 0)
(-0.22562 -0.0544678 0)
(-0.252262 -0.108432 0)
(-0.276936 -0.168583 0)
(-0.299102 -0.234448 0)
(-0.318231 -0.305035 -4.00141e-22)
(-0.333787 -0.378853 -6.47668e-21)
(-0.345223 -0.453906 1.28065e-20)
(-0.351976 -0.527723 1.73257e-20)
(-0.353447 -0.59742 5.65179e-21)
(-0.348983 -0.659803 0)
(-0.337915 -0.711534 4.1494e-21)
(-0.319601 -0.74935 -1.17529e-20)
(-0.293334 -0.770292 -7.04046e-21)
(-0.257923 -0.771891 -6.29336e-21)
(-0.212185 -0.752219 0)
(-0.158057 -0.710835 0)
(-0.0119169 0.102452 -2.26573e-20)
(-0.0299179 0.179257 3.57004e-20)
(-0.0522339 0.189688 -1.38563e-20)
(-0.0761812 0.171463 -2.54325e-20)
(-0.100598 0.143339 3.50298e-20)
(-0.124911 0.111224 -2.26169e-20)
(-0.148558 0.0750863 3.11803e-20)
(-0.171099 0.0335689 2.08883e-20)
(-0.191929 -0.0144814 0)
(-0.210834 -0.0695254 -1.78981e-20)
(-0.227824 -0.131326 -7.22615e-22)
(-0.242533 -0.199503 1.5389e-20)
(-0.254679 -0.273082 2.35848e-20)
(-0.264102 -0.350595 2.90876e-20)
(-0.270711 -0.430094 -1.29487e-20)
(-0.274507 -0.509189 -3.68765e-20)
(-0.27557 -0.585163 1.16173e-20)
(-0.274025 -0.655098 -4.2215e-20)
(-0.269972 -0.715996 0)
(-0.263294 -0.764879 7.87083e-21)
(-0.253317 -0.798767 7.03077e-21)
(-0.238089 -0.814879 6.28494e-21)
(-0.216167 -0.811064 0)
(-0.189282 -0.786621 0)
(-0.0173963 0.107015 0)
(-0.0368756 0.195149 7.7228e-20)
(-0.0543485 0.214288 -2.85115e-20)
(-0.0711811 0.201437 2.65189e-20)
(-0.0874923 0.176195 -7.58594e-20)
(-0.102961 0.145635 0)
(-0.117047 0.110521 -4.59246e-20)
(-0.129343 0.0697957 2.17662e-20)
(-0.139625 0.0224747 -4.24657e-20)
(-0.147403 -0.0320692 2.16419e-20)
(-0.152545 -0.0938075 1.14895e-19)
(-0.155266 -0.162209 -5.36288e-20)
(-0.155381 -0.236318 -8.42427e-20)
(-0.15293 -0.314672 -3.30342e-20)
(-0.148064 -0.395283 4.06547e-22)
(-0.14117 -0.475675 1.08497e-19)
(-0.132953 -0.553111 -5.00685e-20)
(-0.124399 -0.624765 -1.28383e-21)
(-0.116707 -0.687989 0)
(-0.110907 -0.740559 -3.41721e-20)
(-0.107633 -0.780519 0)
(-0.105428 -0.806185 -2.29518e-20)
(-0.104035 -0.81664 8.40101e-20)
(-0.0983132 -0.810903 -3.08632e-21)
(-0.0221742 0.105743 0)
(-0.042965 0.201557 1.40899e-21)
(-0.0548191 0.229409 3.05809e-20)
(-0.0632454 0.222624 -2.92349e-20)
(-0.069961 0.200807 2.48133e-20)
(-0.0749835 0.172134 1.51523e-19)
(-0.0778587 0.138322 -4.71223e-20)
(-0.0781749 0.0987532 -4.64303e-20)
(-0.075697 0.052582 8.68377e-20)
(-0.0703947 -0.000635329 -1.25182e-19)
(-0.0619932 -0.0612176 3.9916e-20)
(-0.0504641 -0.128502 3.86467e-20)
(-0.0359936 -0.20167 0)
(-0.0186459 -0.279263 3.27507e-20)
(0.0014406 -0.359201 0)
(0.023754 -0.438709 5.82425e-20)
(0.0472774 -0.514587 -1.01389e-19)
(0.0705917 -0.583367 2.78477e-20)
(0.0916511 -0.641973 8.32255e-20)
(0.108412 -0.688323 3.41301e-20)
(0.118086 -0.721828 0)
(0.121429 -0.742418 -6.8784e-20)
(0.11204 -0.75347 2.31044e-20)
(0.112674 -0.750458 0)
(-0.0255872 0.0987387 0)
(-0.0474206 0.197528 -9.99983e-20)
(-0.0537615 0.23324 -3.15981e-20)
(-0.0536744 0.232999 -5.87856e-20)
(-0.0503049 0.215262 5.44682e-20)
(-0.0443068 0.188958 -5.10764e-20)
(-0.03543 0.156805 1.00365e-19)
(-0.0233204 0.118801 4.91138e-20)
(-0.00771902 0.0743179 -1.33418e-19)
(0.0112617 0.0228033 8.763e-20)
(0.0337355 -0.035778 -1.23372e-19)
(0.059833 -0.101181 2.76602e-19)
(0.089289 -0.172768 -1.47403e-19)
(0.122019 -0.249244 6.99888e-20)
(0.157851 -0.328523 1.9264e-19)
(0.196154 -0.407702 -6.14654e-20)
(0.235558 -0.483053 -5.77877e-20)
(0.274304 -0.550198 -4.96551e-20)
(0.309942 -0.605122 0)
(0.340408 -0.644346 -6.39544e-20)
(0.361598 -0.667224 -4.4461e-20)
(0.37636 -0.672263 7.53961e-20)
(0.369575 -0.668481 6.54666e-20)
(0.379749 -0.641221 -5.97743e-20)
(-0.0271266 0.0871104 0)
(-0.0497022 0.183603 -1.38722e-19)
(-0.0513749 0.225229 -1.58701e-21)
(-0.0435293 0.2315 1.19116e-19)
(-0.0305683 0.218375 0)
(-0.013859 0.194943 0)
(0.00649058 0.164801 0)
(0.0307089 0.128677 -4.93716e-20)
(0.0589615 0.0862631 -2.55146e-21)
(0.0913523 0.0370643 8.66659e-20)
(0.127918 -0.0188383 -1.27233e-19)
(0.168748 -0.081491 -9.85601e-22)
(0.213857 -0.150403 0)
(0.263227 -0.224437 -6.99473e-20)
(0.316398 -0.301527 6.36929e-20)
(0.37207 -0.378687 -1.78189e-19)
(0.427948 -0.451927 2.07493e-19)
(0.480979 -0.516635 3.5354e-20)
(0.527739 -0.568828 -1.55409e-20)
(0.566463 -0.604484 -1.39731e-19)
(0.59249 -0.623615 -5.22918e-20)
(0.612947 -0.621694 1.40568e-19)
(0.609764 -0.610319 -8.71416e-20)
(0.628471 -0.566952 0)
(-0.026708 0.0726139 7.50455e-20)
(-0.0494542 0.161677 6.96529e-20)
(-0.0477715 0.206336 -6.55841e-20)
(-0.0336723 0.218138 -1.22404e-19)
(-0.012402 0.209659 1.13408e-19)
(0.0139826 0.189382 -1.08759e-19)
(0.0449138 0.16144 1.51832e-19)
(0.0804333 0.127206 -4.97644e-20)
(0.120638 0.0867397 9.1117e-20)
(0.16586 0.0400302 0)
(0.21647 -0.0131084 8.50576e-20)
(0.272743 -0.072819 -1.5605e-19)
(0.33497 -0.138668 1.49272e-19)
(0.402992 -0.209439 -1.38944e-19)
(0.475599 -0.282845 0)
(0.550063 -0.355473 1.15492e-19)
(0.622303 -0.423029 1.97673e-19)
(0.687615 -0.480875 -1.8587e-19)
(0.741475 -0.525551 -7.41505e-20)
(0.781858 -0.553617 -5.65474e-20)
(0.80462 -0.566893 1.62322e-19)
(0.818912 -0.56108 3.21022e-20)
(0.807782 -0.548123 -3.67709e-20)
(0.818158 -0.510262 2.26133e-20)
(-0.0246608 0.0572804 -7.5064e-20)
(-0.0467867 0.134782 2.14164e-19)
(-0.0431047 0.178874 -6.63343e-20)
(-0.0246222 0.194195 1.23288e-19)
(0.00319429 0.189609 -1.14224e-19)
(0.0377698 0.172338 -1.14618e-21)
(0.0780799 0.146538 4.99707e-20)
(0.123978 0.114009 1.94148e-19)
(0.175932 0.0754661 3.97662e-21)
(0.234566 0.0309874 -8.58107e-20)
(0.300512 -0.0198105 0)
(0.374562 -0.0768552 -7.77118e-20)
(0.456836 -0.1395 1.45351e-19)
(0.546047 -0.20615 1.34442e-19)
(0.638946 -0.274021 -6.44528e-20)
(0.730312 -0.339352 -2.42907e-21)
(0.813888 -0.397882 -5.046e-20)
(0.883664 -0.445516 8.2799e-20)
(0.935431 -0.479693 7.41495e-20)
(0.96767 -0.497948 -6.13744e-20)
(0.97989 -0.503074 4.69309e-20)
(0.979144 -0.490903 -3.73387e-20)
(0.958074 -0.47614 0)
(0.947766 -0.436504 -2.26149e-20)
(-0.0216608 0.0429706 7.6248e-20)
(-0.0423392 0.1064 -7.16123e-20)
(-0.0376762 0.146227 6.65175e-20)
(-0.0164924 0.162235 0)
(0.01619 0.159929 0)
(0.0576509 0.144904 1.07648e-19)
(0.1067 0.120896 -1.00377e-19)
(0.163379 0.090013 9.64937e-20)
(0.228548 0.0531571 -4.49978e-19)
(0.303399 0.0103321 -1.44981e-21)
(0.389006 -0.0383575 7.95084e-20)
(0.485597 -0.0924358 0)
(0.5915 -0.150693 -1.40887e-19)
(0.702503 -0.2109 2.60268e-19)
(0.812005 -0.269876 -1.80998e-19)
(0.912073 -0.324039 -2.61084e-19)
(0.995236 -0.369843 1.29554e-20)
(1.05607 -0.404582 1.62063e-19)
(1.09248 -0.426997 0)
(1.10569 -0.436136 0)
(1.09883 -0.435541 -4.69505e-20)
(1.07969 -0.42119 3.73555e-20)
(1.04652 -0.40735 -1.05069e-19)
(1.02076 -0.372032 9.80465e-20)
(-0.0185799 0.0310499 0)
(-0.0371493 0.0797302 0)
(-0.0318597 0.112198 -1.99892e-19)
(-0.0088011 0.125799 6.16122e-20)
(0.0280369 0.123545 -4.80794e-22)
(0.0763791 0.10943 1.05887e-19)
(0.135502 0.0866049 0)
(0.206051 0.056999 -9.34434e-20)
(0.289449 0.0214832 8.94199e-20)
(0.386974 -0.0194236 -1.66053e-19)
(0.498528 -0.065052 -8.77278e-22)
(0.621454 -0.114256 1.46605e-19)
(0.749985 -0.165166 -1.26676e-21)
(0.875745 -0.215263 1.20035e-19)
(0.989254 -0.26169 -1.74247e-19)
(1.08191 -0.301841 0)
(1.148 -0.333446 1.67683e-19)
(1.18557 -0.355514 -2.33906e-19)
(1.19681 -0.367532 6.10421e-20)
(1.18674 -0.370297 0)
(1.16129 -0.366039 4.20315e-20)
(1.12889 -0.35254 1.30192e-19)
(1.08868 -0.341827 -1.21583e-19)
(1.05796 -0.311647 -1.02505e-19)
(-0.0162591 0.022233 2.30375e-19)
(-0.0322382 0.0570865 -2.90577e-19)
(-0.0256407 0.0802479 4.60241e-22)
(0.000131851 0.0888087 6.19904e-20)
(0.0426363 0.084377 -1.14431e-19)
(0.100795 0.0697508 -1.0668e-19)
(0.174954 0.0473473 1.99338e-19)
(0.26642 0.018805 2.84783e-21)
(0.376195 -0.014689 -1.73393e-19)
(0.503264 -0.0520369 3.2732e-19)
(0.643247 -0.091954 2.5349e-21)
(0.788165 -0.132821 -1.4191e-19)
(0.927559 -0.172743 0)
(1.05055 -0.209774 0)
(1.14815 -0.242148 -5.46812e-20)
(1.21508 -0.268564 -9.02858e-20)
(1.25077 -0.288058 -1.56092e-19)
(1.25863 -0.300782 1.45535e-19)
(1.24553 -0.306458 -6.11097e-20)
(1.21816 -0.30692 9.34007e-20)
(1.18433 -0.30197 -5.21841e-20)
(1.14868 -0.292108 5.40869e-20)
(1.11165 -0.284167 -1.44631e-19)
(1.08553 -0.258817 2.19761e-20)
(-0.0151979 0.016539 7.71942e-20)
(-0.0279221 0.0395356 0)
(-0.0177771 0.0528412 1.34242e-19)
(0.0141205 0.0548409 -1.24296e-19)
(0.0672879 0.0467504 1.14584e-19)
(0.142279 0.0306127 0)
(0.240296 0.00837125 0)
(0.361708 -0.018259 -9.20499e-20)
(0.503978 -0.0477225 -6.85548e-22)
(0.660283 -0.0785519 7.89355e-20)
(0.819841 -0.10936 -7.23291e-20)
(0.9699 -0.138904 1.3731e-19)
(1.09848 -0.166146 0)
(1.1969 -0.190254 2.1869e-19)
(1.26134 -0.210599 -3.96773e-19)
(1.29315 -0.226743 2.7033e-19)
(1.29784 -0.238462 1.45496e-19)
(1.28312 -0.245968 -1.3566e-19)
(1.25699 -0.249004 0)
(1.22515 -0.249282 0)
(1.19327 -0.244377 0)
(1.16056 -0.239392 0)
(1.13199 -0.23038 2.69672e-20)
(1.10845 -0.212399 -8.10212e-20)
(-0.0976541 -0.641437 -3.75894e-21)
(0.0103555 -0.51379 3.75912e-21)
(0.109735 -0.361891 -1.10971e-22)
(0.215957 -0.181948 0)
(0.311736 0.0100411 -3.7211e-21)
(0.396689 0.217026 7.05937e-21)
(0.471944 0.429664 -3.30565e-22)
(0.537752 0.618072 -2.92846e-21)
(0.590024 0.744618 0)
(0.629878 0.797212 0)
(0.655296 0.799111 -8.03643e-23)
(0.66673 0.776193 -6.9007e-23)
(0.674516 0.739117 -1.13253e-21)
(0.677835 0.71181 1.03744e-21)
(0.66489 0.724427 0)
(0.636231 0.758812 0)
(0.614951 0.735731 1.61082e-21)
(0.626447 0.581403 2.89435e-22)
(0.666077 0.297862 -1.67776e-21)
(0.717353 -0.045815 -1.23639e-22)
(0.766794 -0.351351 0)
(0.809015 -0.547843 0)
(0.836304 -0.635478 0)
(0.845555 -0.655728 0)
(0.846607 -0.63333 0)
(0.847155 -0.606006 0)
(0.82896 -0.619572 1.94522e-22)
(0.786162 -0.667411 -3.07391e-22)
(0.729404 -0.662848 0)
(0.675349 -0.534696 0)
(0.639812 -0.288905 -4.28806e-22)
(0.635527 0.0033637 4.16665e-22)
(0.659507 0.254893 1.70928e-22)
(0.703057 0.420786 0)
(0.750412 0.500391 0)
(0.779216 0.544476 1.62902e-22)
(0.759538 0.574836 -1.58328e-22)
(0.703405 0.5854 0)
(0.645659 0.499975 2.08355e-22)
(0.611008 0.315797 -3.20723e-22)
(0.619172 0.0504227 1.18675e-22)
(0.657609 -0.170755 0)
(0.709187 -0.319988 -1.32733e-22)
(0.722058 -0.413872 1.29062e-22)
(0.686811 -0.469599 0)
(0.660545 -0.456887 0)
(0.642542 -0.321764 -4.32949e-23)
(0.65517 -0.150367 1.19503e-22)
(0.670524 0.0855088 0)
(0.667577 0.26204 0)
(0.668594 0.385828 -3.01466e-23)
(0.65815 0.386778 -3.17548e-25)
(0.673022 0.28841 4.3729e-25)
(0.670382 0.190041 3.23079e-23)
(0.710419 -0.0772176 0)
(0.689886 -0.299889 0)
(0.699328 -0.471225 0)
(0.692157 -0.441663 0)
(0.659553 0.022255 0)
(0.626952 0.172901 0)
(-0.170081 -0.73374 -3.10321e-22)
(-0.0988859 -0.625108 -1.33706e-20)
(-0.0244166 -0.476781 -1.96266e-22)
(0.0675071 -0.299321 1.27247e-20)
(0.153648 -0.0981797 1.77932e-22)
(0.241129 0.119251 0)
(0.325071 0.339407 -1.02429e-20)
(0.405669 0.536325 1.8693e-20)
(0.47994 0.676707 -8.45371e-21)
(0.544344 0.749922 5.49487e-21)
(0.592215 0.773251 -5.25534e-21)
(0.625658 0.763295 4.12956e-21)
(0.653159 0.732996 -3.99774e-21)
(0.670893 0.715095 -1.23156e-22)
(0.669818 0.738398 -4.81192e-21)
(0.657206 0.774665 4.67322e-21)
(0.65899 0.741035 -6.69018e-21)
(0.69192 0.572696 6.27514e-21)
(0.745159 0.278301 -8.28859e-21)
(0.803641 -0.0722003 1.57977e-20)
(0.851148 -0.380676 -7.52065e-21)
(0.881334 -0.573083 -3.6141e-22)
(0.893241 -0.649128 -3.83906e-21)
(0.886841 -0.658717 6.62547e-21)
(0.870453 -0.631625 -2.81353e-21)
(0.85737 -0.598039 1.24751e-22)
(0.829545 -0.600045 1.93108e-21)
(0.777097 -0.637948 2.4251e-22)
(0.709032 -0.631171 -4.30105e-21)
(0.645534 -0.509695 5.07645e-21)
(0.60218 -0.27892 -2.7063e-21)
(0.596149 -0.00605591 3.39549e-22)
(0.624905 0.231729 -1.71292e-22)
(0.679216 0.394401 2.31978e-22)
(0.738423 0.481538 0)
(0.775435 0.541641 0)
(0.764321 0.588272 -6.58975e-22)
(0.716475 0.607151 4.6373e-22)
(0.669127 0.519959 7.21561e-22)
(0.638152 0.324594 2.27218e-22)
(0.645533 0.0453678 -1.11785e-21)
(0.675365 -0.187052 2.25132e-22)
(0.725435 -0.331933 0)
(0.737449 -0.411907 0)
(0.698734 -0.460025 0)
(0.668468 -0.450809 0)
(0.648395 -0.321269 1.3955e-22)
(0.65871 -0.154455 -7.74733e-23)
(0.667747 0.0830817 0)
(0.666382 0.261507 0)
(0.668384 0.386538 0)
(0.657644 0.387374 -6.40095e-23)
(0.673704 0.286253 -9.01665e-24)
(0.673713 0.186474 -6.0082e-23)
(0.719702 -0.0788583 0)
(0.697566 -0.299146 0)
(0.700142 -0.470694 2.51589e-23)
(0.688689 -0.438811 3.22053e-23)
(0.660021 0.0288942 0)
(0.630079 0.175234 0)
(-0.126596 -0.782723 -1.56224e-21)
(-0.12148 -0.704617 -2.21635e-20)
(-0.0926001 -0.575253 2.10748e-20)
(-0.0324884 -0.412821 -1.97463e-20)
(0.0364208 -0.215424 -1.79234e-22)
(0.112401 0.00586319 0)
(0.196036 0.228389 -1.66589e-20)
(0.286837 0.431303 1.62227e-20)
(0.378886 0.585841 1.06843e-22)
(0.463127 0.682112 1.30944e-22)
(0.531487 0.728797 1.10242e-22)
(0.586623 0.733963 1.23569e-22)
(0.633348 0.714168 -7.51263e-21)
(0.665236 0.707461 7.4192e-21)
(0.676267 0.739505 0)
(0.6798 0.775497 2.94054e-22)
(0.702593 0.734358 -1.32224e-20)
(0.753894 0.561104 1.30636e-20)
(0.819154 0.266617 0)
(0.88501 -0.08335 0)
(0.932795 -0.390611 -1.37632e-20)
(0.952748 -0.579671 2.40259e-20)
(0.949669 -0.648375 -1.77976e-20)
(0.92919 -0.651523 1.9408e-21)
(0.897201 -0.623387 9.9129e-21)
(0.870802 -0.585661 -8.17146e-21)
(0.8354 -0.575975 6.77397e-21)
(0.776345 -0.604506 -3.00121e-24)
(0.697743 -0.599467 -3.36397e-21)
(0.62552 -0.48864 0)
(0.574924 -0.273925 0)
(0.566336 -0.0202274 1.74528e-21)
(0.598682 0.203298 -2.30332e-21)
(0.662236 0.36269 -3.60405e-23)
(0.731395 0.457642 1.30038e-21)
(0.776325 0.534407 -1.26354e-21)
(0.775327 0.598989 0)
(0.737548 0.62839 1.77502e-22)
(0.701301 0.541014 2.31902e-21)
(0.675409 0.337119 -4.92422e-21)
(0.681786 0.0467701 2.23808e-21)
(0.700725 -0.197919 2.73003e-22)
(0.746152 -0.341576 -1.62426e-21)
(0.757423 -0.408624 1.21693e-21)
(0.715309 -0.449347 1.92844e-22)
(0.679396 -0.445098 1.45696e-22)
(0.656634 -0.321643 -1.39919e-22)
(0.664878 -0.159096 0)
(0.668822 0.0801243 0)
(0.669236 0.260393 -3.91933e-22)
(0.671564 0.386972 2.03257e-22)
(0.659605 0.388579 -2.47644e-22)
(0.676372 0.283954 4.0615e-22)
(0.678654 0.182605 5.83127e-22)
(0.730756 -0.0800912 -1.085e-22)
(0.707719 -0.297211 2.08171e-22)
(0.703604 -0.468572 -1.33774e-22)
(0.687652 -0.436748 3.00573e-23)
(0.663585 0.0343299 0)
(0.635638 0.177833 0)
(0.0453437 -0.750252 -3.63946e-20)
(-0.0223093 -0.716928 3.7331e-21)
(-0.0560898 -0.632853 3.0634e-20)
(-0.0540381 -0.501501 -2.70316e-22)
(-0.0177859 -0.324252 0)
(0.0377719 -0.115843 0)
(0.107303 0.103589 -2.3174e-20)
(0.195652 0.309001 2.65846e-21)
(0.292026 0.476937 2.70448e-20)
(0.386538 0.59538 -1.22541e-21)
(0.471445 0.663696 -6.59939e-21)
(0.546906 0.685143 -5.77051e-21)
(0.611573 0.679331 5.7462e-21)
(0.656146 0.685392 0)
(0.678195 0.72458 -8.47722e-21)
(0.697722 0.758933 7.6717e-21)
(0.740782 0.71481 0)
(0.80714 0.547629 0)
(0.881752 0.262454 1.57961e-20)
(0.957629 -0.0840374 -5.60535e-23)
(1.01077 -0.389874 -1.43839e-20)
(1.02374 -0.57582 -1.0613e-20)
(1.0059 -0.639063 1.04808e-20)
(0.971836 -0.636764 -5.83063e-21)
(0.926551 -0.609026 1.3353e-21)
(0.88743 -0.570813 4.15954e-21)
(0.844762 -0.550825 3.84972e-22)
(0.78211 -0.567763 2.90566e-23)
(0.69594 -0.563822 0)
(0.615932 -0.466863 3.80721e-21)
(0.558447 -0.271794 -3.92173e-21)
(0.546516 -0.0384957 2.86437e-22)
(0.580638 0.169916 0)
(0.650885 0.325628 -1.98561e-22)
(0.728169 0.429124 2.28935e-21)
(0.781712 0.522448 -4.26652e-21)
(0.791995 0.603362 -7.78933e-22)
(0.76396 0.643782 -9.21811e-22)
(0.739478 0.559854 2.95609e-21)
(0.720529 0.352049 5.89647e-22)
(0.726831 0.0537775 -4.67988e-21)
(0.734173 -0.203604 4.04555e-21)
(0.771315 -0.349721 -2.55769e-23)
(0.781357 -0.404926 9.38759e-22)
(0.736119 -0.437111 -1.10613e-21)
(0.693125 -0.438583 -9.24972e-22)
(0.666933 -0.322517 2.92249e-22)
(0.673519 -0.164588 3.41157e-22)
(0.673666 0.0760433 -6.57726e-22)
(0.675791 0.258569 5.0054e-22)
(0.677969 0.387528 -2.67205e-22)
(0.663958 0.390737 1.38732e-22)
(0.680878 0.281862 2.54128e-22)
(0.685012 0.178462 -9.3977e-22)
(0.743391 -0.081217 1.36635e-23)
(0.720286 -0.294396 -2.36489e-22)
(0.709841 -0.464945 0)
(0.688992 -0.435302 -3.22092e-23)
(0.670036 0.0387119 -3.06441e-23)
(0.643468 0.180719 0)
(0.303066 -0.643947 2.78695e-20)
(0.19771 -0.641803 -4.89609e-20)
(0.0997203 -0.612347 2.1051e-20)
(0.0303628 -0.535187 1.58768e-20)
(0.00597315 -0.400604 -3.00473e-20)
(0.0250698 -0.226083 1.91235e-22)
(0.071212 -0.0218706 1.37525e-20)
(0.143989 0.177503 1.09919e-20)
(0.235255 0.354008 -1.07785e-20)
(0.332197 0.490145 0)
(0.427675 0.578128 -7.64552e-21)
(0.517643 0.618376 1.57294e-20)
(0.593972 0.63085 -8.12481e-21)
(0.645441 0.652022 0)
(0.67478 0.697408 0)
(0.708731 0.729301 2.66218e-22)
(0.769416 0.686371 -2.22351e-20)
(0.84813 0.531623 2.15852e-20)
(0.933408 0.260819 0)
(1.02166 -0.0769131 2.99226e-20)
(1.08192 -0.376313 -5.34303e-20)
(1.09032 -0.55725 4.43343e-20)
(1.05927 -0.617986 -3.45178e-20)
(1.01282 -0.613677 3.4767e-21)
(0.956835 -0.587907 1.88913e-20)
(0.907269 -0.552396 -8.07772e-21)
(0.858743 -0.52554 -1.83963e-22)
(0.794821 -0.531219 -2.23737e-21)
(0.703999 -0.527935 -2.2698e-22)
(0.617106 -0.445891 2.48401e-21)
(0.552921 -0.272015 2.26083e-22)
(0.536493 -0.0599249 -3.13263e-21)
(0.569745 0.132657 5.6924e-21)
(0.643839 0.284128 -2.83115e-21)
(0.727994 0.394326 0)
(0.789927 0.503013 -2.3382e-21)
(0.812069 0.602417 2.31024e-21)
(0.795845 0.656673 -3.28924e-21)
(0.783914 0.578904 4.07053e-21)
(0.772037 0.37032 -6.57626e-22)
(0.778797 0.0674523 0)
(0.774967 -0.202414 -5.81388e-22)
(0.800535 -0.354807 1.2522e-21)
(0.808564 -0.400371 0)
(0.760809 -0.423205 1.6856e-21)
(0.70953 -0.430923 -7.46375e-22)
(0.678929 -0.323773 2.02889e-22)
(0.684346 -0.171033 1.13734e-22)
(0.68206 0.0706424 0)
(0.685846 0.255835 0)
(0.687618 0.387707 -6.22294e-22)
(0.670702 0.393606 1.26215e-21)
(0.687115 0.27999 -8.80044e-22)
(0.692765 0.173967 3.49994e-22)
(0.757488 -0.0822875 6.65647e-22)
(0.73518 -0.290704 2.36742e-22)
(0.718932 -0.459805 -3.05134e-22)
(0.692619 -0.43447 0)
(0.679101 0.0420704 2.67668e-23)
(0.653426 0.183816 2.07498e-23)
(0.558582 -0.540222 2.30846e-20)
(0.465976 -0.515496 -2.27607e-20)
(0.349716 -0.501767 1.22426e-22)
(0.230506 -0.47728 -3.63722e-23)
(0.134479 -0.410617 7.55873e-23)
(0.0887132 -0.292516 -6.89648e-23)
(0.0872521 -0.132051 -1.81943e-24)
(0.129371 0.0497498 0)
(0.206853 0.224607 3.78136e-24)
(0.30069 0.370643 -2.08205e-24)
(0.40062 0.475452 7.18909e-24)
(0.497385 0.536847 -8.95858e-23)
(0.577922 0.571691 0)
(0.630785 0.609747 0)
(0.664609 0.659684 1.30861e-22)
(0.710792 0.688089 0)
(0.784987 0.649922 -2.2874e-22)
(0.873665 0.512845 0)
(0.972221 0.259632 -2.60131e-20)
(1.07665 -0.0662855 5.19469e-20)
(1.14585 -0.355887 -4.90592e-20)
(1.15169 -0.530061 2.30224e-20)
(1.10955 -0.589404 1.40231e-20)
(1.05217 -0.585179 -1.36122e-20)
(0.98785 -0.561718 -7.85783e-21)
(0.929153 -0.530722 7.56775e-21)
(0.875426 -0.501022 0)
(0.812853 -0.495884 1.13904e-22)
(0.721277 -0.491006 0)
(0.62881 -0.423934 0)
(0.557971 -0.272214 4.69586e-21)
(0.53542 -0.0821174 -4.79919e-21)
(0.56492 0.0931847 2.40091e-22)
(0.639829 0.238212 2.60888e-22)
(0.729421 0.354111 -1.62778e-22)
(0.799864 0.477327 -1.81798e-21)
(0.834753 0.59212 1.76496e-21)
(0.829345 0.660619 -4.0278e-21)
(0.828466 0.594235 3.54595e-21)
(0.825264 0.390031 1.33629e-21)
(0.834571 0.0869578 -5.32582e-21)
(0.821768 -0.194192 3.11193e-22)
(0.833373 -0.356541 3.24278e-21)
(0.838197 -0.395385 0)
(0.788898 -0.407609 -7.55503e-22)
(0.728597 -0.421385 5.51787e-22)
(0.692229 -0.325041 -7.81537e-22)
(0.697017 -0.178485 -1.14495e-22)
(0.693677 0.0633785 0)
(0.699015 0.251841 1.76315e-22)
(0.700277 0.388208 -2.44281e-22)
(0.679754 0.397992 4.38914e-24)
(0.695131 0.278755 -3.61628e-22)
(0.702112 0.169209 7.89279e-22)
(0.77303 -0.0834559 -7.17759e-22)
(0.752302 -0.286339 0)
(0.730943 -0.453167 3.05313e-22)
(0.698445 -0.43408 0)
(0.690444 0.0443924 0)
(0.665369 0.187072 -2.45747e-23)
(0.754861 -0.486848 -2.20551e-20)
(0.682479 -0.438782 2.16044e-20)