/*--------------------------------*- C++ -*----------------------------------*\
| =========                 |                                                 |
| \\      /  F ield         | OpenFOAM: The Open Source CFD Toolbox           |
|  \\    /   O peration     | Version:  2312                                  |
|   \\  /    A nd           | Website:  www.openfoam.com                      |
|    \\/     M anipulation  |                                                 |
\*---------------------------------------------------------------------------*/
FoamFile
{
    version     2.0;
    format      ascii;
    arch        "LSB;label=32;scalar=64";
    class       volVectorField;
    location    "83";
    object      U;
}
// * * * * * * * * * * * * * * * * * * * * * * * * * * * * * * * * * * * * * //

dimensions      [0 1 -1 0 0 0 0];

internalField   nonuniform List<vector> 
5478
(
(-0.0348636 0.0248255 -1.30403e-19)
(-0.0385947 0.0395271 0)
(0.0328632 0.0323245 1.96158e-19)
(0.191345 0.00896828 -3.44208e-19)
(0.434956 -0.018835 2.2625e-19)
(0.720833 -0.0439538 -6.68089e-20)
(0.990233 -0.0647649 -1.17121e-19)
(1.1977 -0.0838601 0)
(1.32217 -0.103103 0)
(1.36704 -0.124814 1.39407e-19)
(1.35442 -0.144867 -6.74205e-20)
(1.31455 -0.160692 -1.01266e-19)
(1.266 -0.179948 -3.6694e-20)
(1.22906 -0.170774 0)
(1.17864 -0.205271 8.17873e-20)
(-0.0379172 0.0224068 2.61631e-19)
(-0.0104433 0.0193115 0)
(0.132039 -0.00161033 0)
(0.395521 -0.022916 -1.72905e-19)
(0.719593 -0.0344091 2.27986e-19)
(1.01494 -0.0385455 6.58631e-20)
(1.22594 -0.0422898 -1.10055e-19)
(1.33929 -0.0506173 9.75989e-20)
(1.37298 -0.0651455 2.3219e-19)
(1.35914 -0.0821839 -2.0155e-19)
(1.32871 -0.0978978 4.5409e-21)
(1.29601 -0.112522 0)
(1.2671 -0.118001 3.66277e-20)
(1.23406 -0.122893 0)
(1.20037 -0.129594 0)
(-0.0336091 0.0178995 -7.06452e-22)
(0.0505409 -0.000459495 -1.21869e-19)
(0.302855 -0.0209871 6.22157e-22)
(0.665894 -0.0225623 0)
(1.00052 -0.0130941 -7.56835e-20)
(1.22726 -0.00537151 6.36251e-20)
(1.33994 -0.00600119 5.31084e-20)
(1.3717 -0.0150275 0)
(1.36289 -0.0280692 -7.73785e-20)
(1.34183 -0.0412228 6.38793e-20)
(1.31727 -0.0533841 5.22173e-20)
(1.29083 -0.0613415 0)
(1.25877 -0.0705782 0)
(1.2279 -0.0727382 -9.80278e-20)
(1.19362 -0.08213 8.73602e-20)
(-0.0178308 0.0092788 -1.41692e-19)
(0.1574 -0.0193852 1.20267e-19)
(0.537317 -0.0170203 -1.03856e-19)
(0.933425 0.00756435 9.03577e-20)
(1.20306 0.0277429 1.50955e-19)
(1.33572 0.0347343 -1.25831e-19)
(1.37753 0.0307545 -5.3083e-20)
(1.376 0.0213554 4.08237e-20)
(1.35867 0.0104135 -3.91859e-20)
(1.33413 -0.000915099 0)
(1.30579 -0.0108566 0)
(1.27506 -0.0216076 -7.26374e-20)
(1.24718 -0.0280045 9.33255e-20)
(1.2206 -0.0341554 -5.20723e-20)
(1.19566 -0.0418973 0)
(0.0151616 -0.00264497 7.16301e-20)
(0.319312 -0.025007 6.04357e-20)
(0.786895 0.015619 -2.15684e-19)
(1.13882 0.0560141 2.85502e-21)
(1.32005 0.0749867 -2.87437e-21)
(1.38387 0.0771247 -1.80917e-21)
(1.38905 0.0705997 4.93723e-20)
(1.37047 0.0605713 4.20288e-20)
(1.34322 0.0490743 2.98521e-20)
(1.31462 0.037775 -4.92053e-21)
(1.28756 0.0266393 -6.79694e-20)
(1.26364 0.0178445 0)
(1.24023 0.0103437 2.97975e-20)
(1.21713 0.00212597 -2.15021e-20)
(1.195 -0.00121784 3.92469e-20)
(0.0716464 -0.0122719 -1.52431e-19)
(0.521334 -0.000624866 1.65114e-19)
(0.99858 0.0704519 -5.59566e-20)
(1.27379 0.113157 4.23163e-20)
(1.38181 0.125834 -7.75865e-20)
(1.40045 0.122235 -5.74551e-20)
(1.38286 0.112032 1.46946e-21)
(1.35522 0.0996749 0)
(1.32785 0.0872077 6.08313e-20)
(1.30244 0.0751237 -5.40956e-20)
(1.27821 0.0642713 2.14969e-20)
(1.25353 0.0539835 0)
(1.22939 0.0445768 1.30949e-20)
(1.2067 0.0363142 -2.25296e-20)
(1.18364 0.0306973 0)
(0.15324 -0.0112798 -1.90262e-20)
(0.721502 0.0552986 1.29187e-21)
(1.15625 0.139201 2.77918e-20)
(1.35402 0.175691 4.56619e-20)
(1.40577 0.179303 -3.46338e-20)
(1.39573 0.169041 5.82706e-20)
(1.36815 0.155041 -1.32228e-20)
(1.33886 0.140588 0)
(1.31068 0.126236 -3.58089e-20)
(1.28373 0.112528 2.39657e-21)
(1.25826 0.0994927 2.98276e-20)
(1.23536 0.0876697 0)
(1.21476 0.0775182 -1.91556e-20)
(1.19535 0.0674386 0)
(1.17849 0.0634956 1.15159e-20)
(0.254361 0.00724506 -2.03762e-20)
(0.887914 0.132099 0)
(1.26061 0.216616 2.82935e-20)
(1.39088 0.241644 0)
(1.40404 0.234598 0)
(1.37875 0.217759 0)
(1.34629 0.199539 -1.12876e-20)
(1.31511 0.181459 0)
(1.2871 0.164129 7.23005e-21)
(1.26235 0.147974 0)
(1.24025 0.133259 -9.34341e-21)
(1.21962 0.119862 0)
(1.19992 0.107195 6.05423e-21)
(1.1817 0.0966935 0)
(1.16354 0.0900046 3.90353e-21)
(-0.0110729 0.179766 -1.37889e-20)
(-0.0357278 0.27762 0)
(-0.0727707 0.275536 2.18318e-20)
(-0.109542 0.246279 0)
(-0.14342 0.20819 0)
(-0.173454 0.159147 0)
(-0.198669 0.0952969 -1.54169e-20)
(-0.218459 0.0148754 0)
(-0.231554 -0.0830497 1.31029e-20)
(-0.236557 -0.195068 0)
(-0.233638 -0.315947 -2.10332e-20)
(-0.224194 -0.438346 0)
(-0.205898 -0.552259 1.51698e-20)
(-0.190625 -0.645675 0)
(-0.149167 -0.716635 9.74091e-21)
(-0.0213699 0.18446 7.08429e-20)
(-0.0408316 0.302059 -5.12851e-20)
(-0.0594305 0.311192 2.45016e-20)
(-0.074569 0.284941 8.3517e-20)
(-0.0847913 0.245889 1.5728e-21)
(-0.0890655 0.194677 -6.94099e-20)
(-0.0868258 0.128348 4.68476e-20)
(-0.0783843 0.0451747 0)
(-0.0636433 -0.0549885 4.29189e-20)
(-0.0405874 -0.169339 5.54123e-22)
(-0.00997592 -0.292661 -2.38283e-20)
(0.0218699 -0.418456 0)
(0.0655412 -0.530953 -4.7928e-20)
(0.0811417 -0.629819 0)
(0.133287 -0.688893 -4.7017e-20)
(-0.0293024 0.169908 1.20167e-19)
(-0.0441377 0.300649 2.67124e-20)
(-0.0427959 0.323403 -4.62217e-20)
(-0.0338147 0.302598 -1.29126e-19)
(-0.0178317 0.264338 7.7051e-20)
(0.00580223 0.213114 7.45862e-20)
(0.0373791 0.147332 -1.34106e-19)
(0.0757366 0.0647976 0)
(0.121461 -0.0339058 -1.17936e-19)
(0.177207 -0.147223 1.04862e-19)
(0.243458 -0.268846 4.70138e-20)
(0.310693 -0.396009 0)
(0.391229 -0.496811 3.2733e-20)
(0.430446 -0.591573 -5.17404e-20)
(0.506799 -0.620971 0)
(-0.0330992 0.13983 6.26095e-20)
(-0.0462954 0.272056 -1.63864e-19)
(-0.0287763 0.30808 1.94732e-19)
(0.00176054 0.295096 -1.73806e-19)
(0.0416252 0.259578 -7.94521e-20)
(0.0902672 0.209743 7.30053e-20)
(0.147297 0.14561 6.79896e-20)
(0.213703 0.0660191 6.24736e-20)
(0.291305 -0.0296329 -1.75353e-19)
(0.384246 -0.142082 -7.51789e-22)
(0.488517 -0.261335 4.70274e-20)
(0.5943 -0.387489 0)
(0.696681 -0.481733 6.2831e-20)
(0.753415 -0.567571 1.44408e-19)
(0.827811 -0.589526 -8.25477e-20)
(-0.0325394 0.102674 5.14658e-22)
(-0.0470912 0.222071 1.11037e-19)
(-0.0203758 0.265982 -9.75744e-20)
(0.0256389 0.260668 8.73737e-20)
(0.0844354 0.229131 1.57676e-19)
(0.154073 0.181433 -1.44307e-19)
(0.23553 0.12013 -6.55038e-20)
(0.333527 0.0448683 -1.87564e-19)
(0.451226 -0.0473475 1.6851e-19)
(0.591668 -0.153611 0)
(0.736578 -0.262758 0)
(0.874474 -0.371557 1.43511e-19)
(0.97759 -0.442491 -3.0425e-19)
(1.02845 -0.513926 1.01281e-19)
(1.06707 -0.504888 0)
(-0.0295677 0.0681604 6.52516e-22)
(-0.0466669 0.162856 -1.10308e-19)
(-0.0175788 0.204843 2.93041e-19)
(0.0372981 0.203006 -8.60928e-20)
(0.110953 0.174501 -7.82836e-20)
(0.20328 0.129468 7.13556e-20)
(0.319984 0.0709017 6.55366e-20)
(0.46649 -0.00192606 1.19204e-19)
(0.640219 -0.0886058 -2.09557e-19)
(0.826445 -0.180738 9.14417e-20)
(0.995634 -0.268093 7.81896e-20)
(1.12711 -0.348137 0)
(1.19761 -0.389352 0)
(1.21291 -0.439309 1.54872e-19)
(1.1933 -0.405272 -1.37763e-19)
(-0.0277535 0.0432377 1.6791e-22)
(-0.0465562 0.108184 0)
(-0.0174473 0.138112 0)
(0.0461057 0.13303 1.71432e-19)
(0.14301 0.104768 -7.5715e-20)
(0.279358 0.0612546 6.77467e-20)
(0.458656 0.00534205 1.2539e-19)
(0.670406 -0.0593799 -1.11174e-19)
(0.890484 -0.128368 1.03816e-19)
(1.08467 -0.192018 -9.15309e-20)
(1.22588 -0.252514 -8.06959e-21)
(1.29831 -0.293093 0)
(1.30403 -0.324453 4.53048e-20)
(1.26399 -0.341868 0)
(1.20094 -0.323456 0)
(-0.029886 0.0298054 -1.27643e-19)
(-0.0465054 0.0669553 0)
(-0.00880536 0.0787259 -1.94306e-19)
(0.0822038 0.0646559 3.41746e-19)
(0.23504 0.0337838 -3.77598e-19)
(0.448803 -0.00623753 -6.92528e-20)
(0.699005 -0.0498833 1.19654e-19)
(0.946593 -0.0929306 0)
(1.15203 -0.133443 0)
(1.28946 -0.169577 -1.54429e-19)
(1.3493 -0.203057 -5.96206e-20)
(1.34495 -0.223961 1.12985e-19)
(1.29796 -0.246007 -4.53992e-20)
(1.23716 -0.250091 0)
(1.18453 -0.241356 -9.39692e-20)
(-0.149926 -0.788683 0)
(-0.0684223 -0.727916 3.44377e-21)
(0.128422 -0.355324 -3.1973e-21)
(0.431879 0.161116 0)
(0.590039 0.560585 0)
(0.687787 0.670822 -7.469e-23)
(0.737489 0.664373 0)
(0.602594 0.718932 0)
(0.505163 0.59805 8.12996e-23)
(0.622162 0.148314 0)
(0.805392 -0.239506 0)
(0.917943 -0.364731 -1.00572e-22)
(0.889117 -0.454848 0)
(0.889201 -0.532684 -7.03744e-23)
(0.897517 -0.508121 -5.2783e-23)
(0.912709 -0.282395 0)
(0.95108 0.0720784 -5.0942e-22)
(0.995317 0.378157 6.14871e-22)
(1.03206 0.565552 0)
(1.041 0.51902 4.18296e-22)
(1.05292 0.164294 -5.28118e-22)
(1.07238 -0.267912 1.09922e-22)
(1.0526 -0.532601 -1.79425e-22)
(1.04538 -0.466327 1.71445e-22)
(1.11785 0.0545633 -1.98829e-22)
(1.11214 0.552761 0)
(1.07435 0.408385 -1.13061e-22)
(0.99262 -0.136693 1.08104e-22)
(0.973447 -0.34618 -3.69604e-23)
(1.02538 -0.0218846 0)
(0.989686 0.215513 -3.35927e-24)
(0.865989 0.146966 0)
(0.789813 -0.0746811 -3.29525e-23)
(0.813975 -0.078404 2.22012e-23)
(0.866715 0.0239288 -5.95027e-24)
(0.908012 0.147781 4.98777e-23)
(0.804885 0.12629 0)
(0.763726 -0.0285611 2.32359e-23)
(0.0882189 -0.777973 1.71921e-20)
(-0.0293692 -0.778306 -9.20306e-23)
(-0.0254733 -0.509782 -8.92834e-21)
(0.228073 0.00317299 8.51534e-21)
(0.427377 0.44616 0)
(0.618082 0.604605 7.52825e-23)
(0.683493 0.678899 -1.28162e-22)
(0.562548 0.771314 0)
(0.55024 0.596906 -8.19151e-23)
(0.707928 0.0914758 0)
(0.85965 -0.312151 0)
(0.97496 -0.388206 1.01284e-22)
(0.943107 -0.447387 0)
(0.928682 -0.540407 2.14163e-21)
(0.945293 -0.517281 -1.8114e-21)
(0.933245 -0.292836 1.88699e-21)
(0.943659 0.0546277 -1.80133e-21)
(0.973656 0.355278 -1.29274e-22)
(1.00203 0.550801 0)
(1.02575 0.51538 0)
(1.05375 0.168232 -1.02997e-22)
(1.07888 -0.264124 9.09019e-22)
(1.0651 -0.529918 -1.50745e-21)
(1.03302 -0.473063 7.12245e-22)
(1.09322 0.0422445 6.47139e-22)
(1.10199 0.547347 0)
(1.08498 0.418092 2.1139e-22)
(1.00486 -0.122446 0)
(0.98002 -0.352733 3.70891e-23)
(1.03252 -0.0253826 -1.83582e-23)
(1.00158 0.227574 3.26073e-23)
(0.879401 0.164115 -3.28516e-23)
(0.807138 -0.0701115 6.33693e-23)
(0.828154 -0.0847957 1.42356e-23)
(0.878226 0.0175772 -3.39218e-23)
(0.918722 0.151104 4.31924e-23)
(0.822092 0.135609 -8.79202e-25)
(0.777966 -0.0255389 4.65941e-24)
(0.447261 -0.67725 2.16368e-20)
(0.25696 -0.701062 -3.5155e-20)
(0.0435546 -0.605356 3.53243e-21)
(0.146791 -0.213372 9.95675e-21)
(0.393248 0.261133 4.89535e-23)
(0.629476 0.522753 -8.79761e-23)
(0.674355 0.702592 1.30385e-22)
(0.561329 0.813994 -2.91424e-22)
(0.620687 0.593369 0)
(0.816738 0.0645133 1.27777e-20)
(0.934587 -0.356449 -1.21858e-20)
(1.02665 -0.404577 -2.26612e-22)
(0.98697 -0.423547 0)
(0.945685 -0.538078 -4.36451e-21)
(0.972177 -0.527951 4.05058e-21)
(0.95069 -0.302353 -2.00008e-21)
(0.936781 0.0413766 1.90867e-21)
(0.951349 0.341235 2.21064e-21)
(0.970892 0.538294 -1.85529e-21)
(1.00956 0.510335 0)
(1.05182 0.176708 0)
(1.07974 -0.250339 1.48227e-21)
(1.0729 -0.518993 -1.41502e-21)
(1.01394 -0.477577 -1.78863e-21)
(1.05846 0.0240637 -5.10296e-24)
(1.08653 0.540685 1.67133e-21)
(1.09192 0.432441 -1.96832e-23)
(1.01332 -0.100498 -2.73495e-22)
(0.981293 -0.356621 3.91729e-22)
(1.03523 -0.0314073 -2.67271e-22)
(1.01166 0.237918 3.96977e-23)
(0.89322 0.181388 -4.91767e-23)
(0.82373 -0.0647034 1.85537e-23)
(0.842131 -0.0907827 -1.77398e-23)
(0.888944 0.0110637 4.71235e-23)
(0.929435 0.153728 4.06437e-23)
(0.840699 0.144667 -9.04551e-24)
(0.793372 -0.0222624 3.37906e-23)
(0.760084 -0.592054 0)
(0.632859 -0.535919 1.05351e-20)
(0.347284 -0.539174 -1.04002e-20)
(0.204798 -0.380795 0)
(0.39752 0.0387646 -5.03163e-23)
(0.641014 0.40299 9.04031e-23)
(0.650115 0.684554 0)
(0.546952 0.822898 3.38963e-23)
(0.675192 0.583358 -3.7278e-22)
(0.922047 0.0609943 0)
(1.01832 -0.37728 -9.90883e-21)
(1.07331 -0.422965 9.67969e-21)
(1.04373 -0.396624 -3.54551e-22)
(0.974388 -0.524488 -4.52913e-21)
(0.986404 -0.541447 4.31876e-21)
(0.968644 -0.31683 2.47961e-22)
(0.939638 0.0185591 0)
(0.931964 0.30975 -2.72477e-22)
(0.930084 0.514269 2.78929e-21)
(0.980718 0.50353 -4.07469e-22)
(1.04208 0.188741 4.04153e-22)
(1.07635 -0.234321 -2.11361e-21)
(1.0788 -0.50664 -2.72058e-21)
(0.993325 -0.479715 3.30255e-21)
(1.01804 -0.00174123 -4.96573e-22)
(1.06231 0.518222 0)
(1.08948 0.44008 -1.96412e-22)
(1.01684 -0.0772342 2.77096e-22)
(0.978093 -0.359401 -4.28636e-22)
(1.0336 -0.0412683 3.0091e-22)
(1.01956 0.24543 -5.49311e-23)
(0.906764 0.198689 0)
(0.839199 -0.0584864 -2.37996e-23)
(0.855748 -0.0963944 2.69146e-23)
(0.899488 0.00436088 -6.34393e-23)
(0.93991 0.155604 -1.73671e-22)
(0.859573 0.153439 9.05187e-24)
(0.809439 -0.01873 5.88274e-24)
(0.955302 -0.561206 3.69473e-22)
(0.871107 -0.448425 4.26692e-22)
(0.694912 -0.365693 0)
(0.432536 -0.374228 0)
(0.39222 -0.152451 0)
(0.567152 0.28666 0)
(0.580691 0.679443 7.30038e-21)
(0.526209 0.811665 -1.69718e-20)
(0.71333 0.547271 1.03744e-20)
(1.00458 0.0582402 0)
(1.10365 -0.370283 -9.96999e-21)
(1.10883 -0.432178 9.85019e-21)
(1.07704 -0.36929 5.81061e-21)
(1.00046 -0.496469 -4.89465e-21)
(0.984803 -0.550982 4.28205e-21)
(0.975557 -0.339032 -4.33645e-21)
(0.938216 0.00202642 -3.01308e-22)
(0.90717 0.301956 -3.97091e-21)
(0.892086 0.502053 3.78405e-21)
(0.955458 0.493504 2.27653e-22)
(1.03246 0.200187 2.17741e-22)
(1.07112 -0.213285 2.14602e-21)
(1.08123 -0.489045 -2.39239e-21)
(0.972062 -0.479629 -8.37749e-22)
(0.969659 -0.029446 -5.38383e-22)
(1.03458 0.500847 -4.10067e-22)
(1.08453 0.454231 0)
(1.0175 -0.0474671 0)
(0.971499 -0.359014 0)
(1.0279 -0.0534832 0)
(1.02515 0.250411 2.05329e-22)
(0.919716 0.215467 -1.42624e-22)
(0.853456 -0.0515406 5.83708e-23)
(0.868722 -0.101644 1.22799e-22)
(0.91032 -0.00235095 -6.03425e-23)
(0.949915 0.156639 -2.1636e-23)
(0.877965 0.161742 1.89098e-23)
(0.825875 -0.0150063 -7.09352e-23)
(1.07354 -0.457272 -3.89014e-22)
(0.942036 -0.427714 2.24576e-20)
(0.849094 -0.290849 -2.16057e-20)
(0.718975 -0.260791 8.30896e-22)
(0.509931 -0.224793 -7.91331e-22)
(0.488449 0.114675 3.32126e-21)
(0.469653 0.598082 -3.047e-21)
(0.454295 0.782422 1.57445e-22)
(0.715781 0.524427 -3.49478e-22)
(1.06195 0.0836071 0)
(1.18354 -0.328356 -3.84998e-22)
(1.15294 -0.421786 1.40453e-20)
(1.10579 -0.342307 -1.33719e-20)
(1.03312 -0.458055 -3.04885e-22)
(0.983138 -0.552468 0)
(0.970681 -0.364848 -5.14273e-21)
(0.939681 -0.0311756 9.98027e-21)
(0.890284 0.264299 -4.49597e-21)
(0.8489 0.472343 0)
(0.913722 0.485585 1.51093e-21)
(1.01494 0.219004 6.40672e-23)
(1.06539 -0.188243 -1.85598e-21)
(1.08155 -0.468692 -3.09237e-21)
(0.954755 -0.475714 3.09326e-21)
(0.921737 -0.0644264 -3.98971e-21)
(0.99842 0.461902 1.38795e-21)
(1.06731 0.458888 2.46827e-21)
(1.0124 -0.0168985 -6.54428e-22)
(0.962635 -0.357102 6.22266e-22)
(1.01875 -0.0701307 -1.88782e-22)
(1.02877 0.251672 1.79521e-22)
(0.931717 0.232526 0)
(0.866504 -0.0433223 6.87321e-23)
(0.88074 -0.106422 -1.1821e-22)
(0.92156 -0.00946706 0)
(0.959275 0.157091 1.70661e-22)
(0.895552 0.169803 -4.39278e-24)
(0.842566 -0.0111022 -6.56474e-23)
(1.09902 -0.369481 0)
(0.985151 -0.355376 0)
(0.847356 -0.276143 -7.44638e-23)
(0.825865 -0.204804 0)
(0.725381 -0.176003 0)
(0.539474 0.0625755 -7.24366e-21)
(0.452374 0.543261 6.88514e-21)
(0.490778 0.712668 1.32981e-20)
(0.790817 0.438377 -1.26465e-20)
(1.13325 0.0519243 0)
(1.24159 -0.308227 -3.33029e-22)
(1.18909 -0.413977 2.42344e-22)
(1.12166 -0.324163 -1.09454e-20)
(1.05786 -0.417444 1.23617e-21)
(0.988815 -0.540267 8.55355e-21)
(0.954255 -0.399314 1.48718e-22)
(0.93507 -0.0558774 -1.68236e-22)
(0.867959 0.264329 8.13074e-21)
(0.80841 0.466834 -8.02145e-21)
(0.887316 0.469931 0)
(1.00423 0.226048 0)
(1.06328 -0.163143 -1.09444e-22)
(1.07896 -0.441871 0)
(0.942704 -0.469638 4.11153e-21)
(0.870716 -0.094191 6.06744e-22)
(0.964736 0.435949 -3.82725e-21)
(1.05324 0.470521 -1.50658e-21)
(1.00623 0.0139984 1.00188e-21)
(0.95348 -0.3519 -9.128e-23)
(1.00749 -0.0869325 0)
(1.03014 0.250809 -1.90322e-22)
(0.942104 0.247604 1.80444e-22)
(0.878452 -0.0352561 9.70156e-23)
(0.891461 -0.111113 -9.64085e-23)
(0.933013 -0.0160845 1.50065e-23)
(0.967851 0.156829 -8.6097e-23)
(0.912242 0.177001 0)
(0.859481 -0.00719361 7.56672e-23)
(1.10541 -0.297192 5.76321e-20)
(1.02745 -0.302543 3.08908e-20)
(0.901102 -0.268799 -1.23616e-20)
(0.845266 -0.234254 -2.14316e-20)
(0.823014 -0.212418 5.08299e-21)
(0.665908 -0.0536084 7.73573e-23)
(0.468909 0.4053 0)
(0.45742 0.677147 -4.29142e-23)
(0.799941 0.463322 -1.26207e-22)
(1.17262 0.118956 0)
(1.28656 -0.220966 -1.82961e-20)
(1.2258 -0.371385 1.74662e-20)
(1.14143 -0.299774 1.91169e-22)
(1.08051 -0.375377 8.60418e-21)
(1.00129 -0.5134 -8.17242e-21)
(0.936478 -0.422409 1.50337e-22)
(0.917025 -0.113666 1.78588e-22)
(0.847757 0.213043 0)
(0.772639 0.430083 5.2052e-21)
(0.833583 0.462514 -4.93447e-21)
(0.978864 0.254208 -1.53821e-21)
(1.0655 -0.128152 -8.80477e-23)
(1.07639 -0.41339 1.578e-21)
(0.936783 -0.455045 -4.00451e-21)
(0.825778 -0.135669 -1.74446e-22)
(0.917663 0.381164 6.73115e-21)
(1.02231 0.469745 -2.15034e-21)
(0.99317 0.0520549 8.5881e-22)
(0.945605 -0.341164 -6.20598e-22)
(0.994586 -0.110486 0)
(1.02976 0.244924 0)
(0.952067 0.264635 0)
(0.889502 -0.0241199 -8.67803e-24)
(0.901067 -0.115554 -9.97881e-23)
(0.94431 -0.0242651 -1.77067e-22)
(0.9757 0.156035 1.28692e-22)
(0.928339 0.184357 3.61073e-23)
(0.87669 -0.00305892 0)
(1.12926 -0.189297 0)
(1.07305 -0.198616 0)
(0.980479 -0.163213 0)
(0.894175 -0.132185 0)
(0.829339 -0.111642 0)
(0.720643 -0.00695108 0)
(0.621078 0.348804 0)
(0.759973 0.517803 0)
(1.10189 0.262667 0)
(1.31768 0.0418342 0)
(1.32901 -0.171965 0)
(1.24224 -0.315076 0)
(1.15275 -0.244863 0)
(1.10785 -0.302661 0)
(1.02108 -0.484266 0)
(0.917554 -0.455696 0)
(0.888925 -0.139482 0)
(0.822145 0.224161 0)
(0.720517 0.438464 0)
(0.802954 0.435651 0)
(0.992623 0.239294 0)
(1.08276 -0.107289 0)
(1.0796 -0.393756 0)
(0.923524 -0.452712 0)
(0.793755 -0.15472 0)
(0.884412 0.347551 0)
(0.994372 0.479643 0)
(0.981811 0.0772914 0)
(0.936952 -0.335187 0)
(0.977739 -0.129686 0)
(1.02803 0.237979 0)
(0.959437 0.278463 0)
(0.901146 -0.013821 0)
(0.911457 -0.117859 0)
(0.957759 -0.0308427 0)
(0.984137 0.154484 0)
(0.947412 0.190788 0)
(0.898272 0.00149407 0)
(1.1028 -0.133351 0)
(1.05525 -0.159809 0)
(0.985735 -0.127801 0)
(0.932141 -0.109697 0)
(0.89411 -0.0777155 0)
(0.824035 0.048179 0)
(0.822127 0.301072 0)
(1.03021 0.350565 0)
(1.25093 0.15395 0)
(1.32171 0.0124304 0)
(1.28953 -0.176759 0)
(1.20048 -0.266506 0)
(1.0966 -0.225117 0)
(1.06474 -0.330617 0)
(0.982089 -0.443219 0)
(0.866793 -0.372384 0)
(0.827246 -0.0779145 0)
(0.734711 0.282698 0)
(0.631948 0.453882 0)
(0.786666 0.37542 0)
(1.00705 0.167448 0)
(1.09635 -0.151807 0)
(1.06134 -0.372243 0)
(0.874388 -0.373925 0)
(0.729906 -0.118285 0)
(0.816589 0.333732 0)
(0.944305 0.456152 0)
(0.972366 0.066859 0)
(0.934884 -0.33642 0)
(0.967622 -0.133422 0)
(1.02175 0.243809 0)
(0.962802 0.293804 0)
(0.916483 -0.0117982 0)
(0.926487 -0.126697 0)
(0.975526 -0.0379871 0)
(0.994128 0.153911 0)
(0.971441 0.198452 0)
(0.925885 0.00649357 0)
(1.08573 -0.0826855 0)
(1.05633 -0.0976535 0)
(1.01069 -0.0773601 0)
(0.974646 -0.0570724 0)
(0.94372 -0.0157963 0)
(0.901755 0.0437979 0)
(0.943675 0.194367 0)
(1.10434 0.221828 0)
(1.21949 0.0713365 0)
(1.26059 0.00942245 0)
(1.24051 -0.118636 0)
(1.15943 -0.210716 0)
(1.09337 -0.167998 0)
(1.09417 -0.2445 0)
(0.979374 -0.366968 0)
(0.796746 -0.344431 0)
(0.727088 -0.0542351 0)
(0.61994 0.33081 0)
(0.586154 0.412427 0)
(0.805111 0.259712 0)
(1.02016 0.112552 0)
(1.11421 -0.129353 0)
(1.06865 -0.328079 0)
(0.829988 -0.327116 0)
(0.647931 -0.112241 0)
(0.726751 0.287494 0)
(0.905827 0.417989 0)
(0.985602 0.074156 0)
(0.936268 -0.331301 0)
(0.958974 -0.151872 0)
(1.0197 0.238926 0)
(0.968507 0.306246 0)
(0.932179 -0.00488374 0)
(0.939977 -0.133583 0)
(0.992458 -0.044727 0)
(1.00375 0.15393 0)
(0.997791 0.205806 0)
(0.956705 0.0120542 0)
(1.07058 -0.0467125 0)
(1.05549 -0.0602645 0)
(1.02628 -0.0439551 0)
(0.996076 -0.0371068 0)
(0.985095 -0.000369254 0)
(0.967362 0.0340667 0)
(0.999095 0.110869 0)
(1.09992 0.129131 0)
(1.16786 0.0440995 0)
(1.18894 0.00413179 0)
(1.17961 -0.108734 0)
(1.1279 -0.153151 0)
(1.05249 -0.161609 0)
(1.02576 -0.271609 0)
(0.931511 -0.286268 0)
(0.743683 -0.225572 0)
(0.629778 0.0156849 0)
(0.561732 0.357153 0)
(0.666188 0.354268 0)
(0.891888 0.163479 0)
(1.04503 0.037686 0)
(1.109 -0.161739 0)
(1.05852 -0.269418 0)
(0.78506 -0.216782 0)
(0.564153 -0.0676614 0)
(0.65823 0.238542 0)
(0.902773 0.363416 0)
(1.02049 0.0608641 0)
(0.954848 -0.322435 0)
(0.950551 -0.160472 0)
(1.00693 0.236268 0)
(0.966477 0.318078 0)
(0.949098 -0.00204917 0)
(0.954182 -0.1435 0)
(1.00863 -0.0535916 0)
(1.01527 0.151256 0)
(1.02783 0.210828 0)
(0.990716 0.0172187 0)
(1.06274 -0.0222088 0)
(1.05272 -0.0338804 0)
(1.03852 -0.0200151 0)
(1.01875 -0.0209726 0)
(1.01238 0.0119358 0)
(1.00858 0.0235909 0)
(1.02727 0.0617172 0)
(1.08281 0.0783246 0)
(1.11901 0.00847308 0)
(1.143 0.00676173 0)
(1.13165 -0.0878327 0)
(1.09592 -0.129833 0)
(1.06331 -0.0948282 0)
(1.0197 -0.183875 0)
(0.919839 -0.194789 0)
(0.772165 -0.142166 0)
(0.662302 0.0458054 0)
(0.66125 0.322892 0)
(0.842548 0.250219 0)
(1.01034 0.0642857 0)
(1.08241 0.00924843 0)
(1.09981 -0.136181 0)
(1.06136 -0.2057 0)
(0.813634 -0.118871 0)
(0.57054 -0.0414867 0)
(0.651151 0.151213 0)
(0.939759 0.289119 0)
(1.07708 0.0598394 0)
(0.980122 -0.305789 0)
(0.944513 -0.167854 0)
(0.989856 0.232182 0)
(0.967056 0.324717 0)
(0.972034 -0.000185613 0)
(0.968631 -0.151756 0)
(1.01981 -0.0602113 0)
(1.0231 0.147898 0)
(1.05738 0.213792 0)
(1.02612 0.0227163 0)
(1.05749 -0.00541543 0)
(1.05027 -0.01643 0)
(1.04553 -0.0048406 0)
(1.03247 -0.0108116 0)
(1.02785 0.0114865 0)
(1.03383 0.0153438 0)
(1.035 0.029085 0)
(1.07632 0.0438986 0)
(1.08659 -0.00735695 0)
(1.10222 0.000978164 0)
(1.10685 -0.0693136 0)
(1.05543 -0.096089 0)
(1.03454 -0.0781754 0)
(1.00435 -0.173979 0)
(0.93013 -0.130857 0)
(0.835827 -0.0494059 0)
(0.768946 0.0542615 0)
(0.834223 0.241951 0)
(0.998778 0.170461 0)
(1.08647 0.0279604 0)
(1.10385 -0.00538742 0)
(1.06869 -0.140552 0)
(1.02153 -0.158146 0)
(0.871906 -0.00523055 0)
(0.691693 0.0162925 0)
(0.708777 0.0673605 0)
(0.973713 0.19237 0)
(1.12952 0.0501438 0)
(1.01262 -0.272233 0)
(0.933282 -0.168483 0)
(0.97793 0.223906 0)
(0.97523 0.328035 0)
(1.00182 0.00109493 0)
(0.984439 -0.160324 0)
(1.02691 -0.0693384 0)
(1.0304 0.13988 0)
(1.08902 0.213065 0)
(1.06263 0.0276334 0)
(1.05178 0.00438264 0)
(1.04851 -0.00538075 0)
(1.04674 0.00267668 0)
(1.04182 -0.00348785 0)
(1.03525 0.00798308 0)
(1.04485 0.0115825 0)
(1.03895 0.00891922 0)
(1.06557 0.0253354 0)
(1.06709 -0.0161892 0)
(1.07207 -0.00615681 0)
(1.08144 -0.0497026 0)
(1.03728 -0.0786663 0)
(1.03787 -0.0448392 0)
(1.00413 -0.112331 0)
(0.930547 -0.0752609 0)
(0.894857 -0.00580945 0)
(0.870757 0.0332712 0)
(0.946072 0.167537 0)
(1.05735 0.108563 0)
(1.09059 -0.00591636 0)
(1.10917 0.0160312 0)
(1.06733 -0.0860527 0)
(0.98579 -0.119259 0)
(0.927384 0.04501 0)
(0.876633 0.0514821 0)
(0.845618 0.0133776 0)
(1.00091 0.106605 0)
(1.14798 0.0443126 0)
(1.04744 -0.222887 0)
(0.907217 -0.152626 0)
(0.926852 0.215214 0)
(0.967472 0.318589 0)
(1.03833 -0.00149577 0)
(1.0033 -0.162775 0)
(1.02522 -0.0744576 0)
(1.02998 0.128681 0)
(1.11392 0.208081 0)
(1.09426 0.0325012 0)
(1.04613 0.00884708 0)
(1.04695 0.00190808 0)
(1.04486 0.00575451 0)
(1.04544 0.00150264 0)
(1.03755 0.00477204 0)
(1.04738 0.00821431 0)
(1.04003 0.000358681 0)
(1.05406 0.0120494 0)
(1.0566 -0.015944 0)
(1.05052 -0.00970918 0)
(1.06469 -0.0334526 0)
(1.02634 -0.0573854 0)
(1.02275 -0.0315641 0)
(1.00746 -0.0808075 0)
(0.947817 -0.0499256 0)
(0.94619 0.0120458 0)
(0.93382 0.0114511 0)
(0.982528 0.102365 0)
(1.06859 0.0798456 0)
(1.06035 -0.00909567 0)
(1.07348 0.012772 0)
(1.06731 -0.0585958 0)
(0.976793 -0.0953541 0)
(0.958015 0.054789 0)
(0.995479 0.0703417 0)
(0.966083 0.00013869 0)
(1.01454 0.0537293 0)
(1.12003 0.0303103 0)
(1.05599 -0.172882 0)
(0.882522 -0.11467 0)
(0.866708 0.203508 0)
(0.981471 0.289073 0)
(1.09311 -0.00968316 0)
(1.02854 -0.159011 0)
(1.0168 -0.0777108 0)
(1.02049 0.112196 0)
(1.13112 0.197188 0)
(1.11936 0.0357296 0)
(1.04137 0.0105381 0)
(1.04405 0.00604241 0)
(1.04213 0.00673092 0)
(1.04419 0.00424123 0)
(1.03828 0.00330852 0)
(1.04423 0.00592403 0)
(1.03957 -0.00235104 0)
(1.04472 0.00477583 0)
(1.04742 -0.0125784 0)
(1.03866 -0.0110434 0)
(1.04818 -0.0220292 0)
(1.02342 -0.0406715 0)
(1.01803 -0.0215081 0)
(1.01302 -0.0458482 0)
(0.966863 -0.0298582 0)
(0.976067 0.0137996 0)
(0.972425 0.00655892 0)
(0.989364 0.059429 0)
(1.05493 0.0533748 0)
(1.04487 -0.0104871 0)
(1.04955 0.0135446 0)
(1.0626 -0.0241679 0)
(0.983839 -0.0637461 0)
(0.967789 0.0418342 0)
(1.02997 0.0590364 0)
(1.01777 -0.00400096 0)
(1.01729 0.0299122 0)
(1.08357 0.0263196 0)
(1.04371 -0.120561 0)
(0.885886 -0.0684453 0)
(0.874423 0.173002 0)
(1.04664 0.234346 0)
(1.15101 -0.0150257 0)
(1.04947 -0.137229 0)
(1.00074 -0.0715719 0)
(1.00778 0.0893991 0)
(1.13803 0.179306 0)
(1.13039 0.0386415 0)
(1.03706 0.0108292 0)
(1.03997 0.00797835 0)
(1.03903 0.00712061 0)
(1.04066 0.00554716 0)
(1.03706 0.00318102 0)
(1.03963 0.00451549 0)
(1.03723 -0.00195273 0)
(1.03785 0.00162233 0)
(1.03973 -0.00891041 0)
(1.03249 -0.00870447 0)
(1.03667 -0.0145189 0)
(1.0234 -0.0250768 0)
(1.01515 -0.0146188 0)
(1.01422 -0.027006 0)
(0.9859 -0.0179591 0)
(0.992116 0.00863161 0)
(0.993972 0.00429192 0)
(0.9971 0.0321271 0)
(1.04127 0.0335585 0)
(1.03462 -0.00562969 0)
(1.02881 0.00798983 0)
(1.05002 -0.0118465 0)
(1.00011 -0.0408804 0)
(0.978501 0.028169 0)
(1.03192 0.0451818 0)
(1.02964 0.00161242 0)
(1.01039 0.0180093 0)
(1.05415 0.0201571 0)
(1.03188 -0.0794522 0)
(0.914164 -0.036504 0)
(0.927117 0.12394 0)
(1.09745 0.172771 0)
(1.17323 -0.00974523 0)
(1.05586 -0.101671 0)
(0.979536 -0.0609442 0)
(0.981664 0.0617145 0)
(1.11268 0.156168 0)
(1.11924 0.0391309 0)
(1.03321 0.0104327 0)
(1.03569 0.00864577 0)
(1.03552 0.00721575 0)
(1.03641 0.00619739 0)
(1.03439 0.00351301 0)
(1.03526 0.00429796 0)
(1.03372 -0.000748879 0)
(1.03315 0.00129611 0)
(1.03337 -0.00546982 0)
(1.02888 -0.00546091 0)
(1.02948 -0.00880603 0)
(1.02233 -0.014706 0)
(1.01593 -0.00916891 0)
(1.01521 -0.014734 0)
(0.99983 -0.00907944 0)
(1.00272 0.00475175 0)
(1.00506 0.00346729 0)
(1.00489 0.0179798 0)
(1.02991 0.0187601 0)
(1.02889 -0.0031777 0)
(1.02246 0.00723744 0)
(1.03784 -0.00348473 0)
(1.01058 -0.0202577 0)
(0.990447 0.0227663 0)
(1.02499 0.0312721 0)
(1.02977 0.00656679 0)
(1.01072 0.0150276 0)
(1.03585 0.0165016 0)
(1.02614 -0.0476824 0)
(0.947578 -0.0134816 0)
(0.966612 0.0779584 0)
(1.09459 0.118241 0)
(1.15335 0.000907177 0)
(1.04969 -0.0560273 0)
(0.971444 -0.0396639 0)
(0.9606 0.0369036 0)
(1.07732 0.127991 0)
(1.10282 0.0356031 0)
(1.02968 0.00978246 0)
(1.03162 0.00870668 0)
(1.03175 0.00716401 0)
(1.03233 0.00657538 0)
(1.03106 0.0041351 0)
(1.03132 0.00463077 0)
(1.03009 0.000841539 0)
(1.02936 0.00210013 0)
(1.02879 -0.00241192 0)
(1.02608 -0.00216455 0)
(1.02536 -0.00455532 0)
(1.0216 -0.0073664 0)
(1.01709 -0.0046292 0)
(1.01631 -0.00753671 0)
(1.00815 -0.00389552 0)
(1.00955 0.00233838 0)
(1.01076 0.00226674 0)
(1.01054 0.00938365 0)
(1.02397 0.0103334 0)
(1.02386 -0.00175153 0)
(1.01935 0.0055058 0)
(1.02887 -0.000608554 0)
(1.01474 -0.00945405 0)
(1.00251 0.0184642 0)
(1.02182 0.0218477 0)
(1.02542 0.0105282 0)
(1.01254 0.0141562 0)
(1.02644 0.0121872 0)
(1.02238 -0.0295342 0)
(0.974751 -0.00197746 0)
(0.992295 0.0438891 0)
(1.07355 0.0795087 0)
(1.11552 0.00969184 0)
(1.03832 -0.0180011 0)
(0.985221 -0.0209086 0)
(0.972406 0.0155707 0)
(1.06573 0.0991852 0)
(1.09261 0.0284795 0)
(1.02638 0.00907024 0)
(1.0279 0.00847495 0)
(1.02816 0.00705256 0)
(1.02855 0.00683462 0)
(1.02772 0.00470655 0)
(1.02777 0.00523416 0)
(1.02678 0.00227118 0)
(1.02632 0.00334574 0)
(1.02538 7.89421e-05 0)
(1.02395 0.000606444 0)
(1.0228 -0.00127711 0)
(1.02089 -0.00256804 0)
(1.01787 -0.00138345 0)
(1.01732 -0.00324559 0)
(1.0129 -0.000788677 0)
(1.01369 0.00110115 0)
(1.01409 0.00181407 0)
(1.01386 0.00457367 0)
(1.02059 0.00547643 0)
(1.02108 -0.000890074 0)
(1.01841 0.00430062 0)
(1.02404 0.00196154 0)
(1.01649 -0.00159366 0)
(1.00996 0.0163643 0)
(1.02002 0.016319 0)
(1.02206 0.0138218 0)
(1.01496 0.0143002 0)
(1.02354 0.0100758 0)
(1.02066 -0.016329 0)
(0.9929 0.00496759 0)
(1.00851 0.0199258 0)
(1.05709 0.0524279 0)
(1.085 0.0175179 0)
(1.03072 0.0107557 0)
(1.00542 -0.00689603 0)
(0.997111 -0.00080494 0)
(1.06408 0.0750114 0)
(1.08276 0.0234302 0)
(1.02343 0.00835154 0)
(1.02462 0.00808913 0)
(1.02486 0.00686447 0)
(1.02519 0.00693026 0)
(1.02461 0.00514111 0)
(1.02469 0.00579058 0)
(1.02393 0.00342192 0)
(1.02371 0.00449909 0)
(1.02278 0.00192974 0)
(1.02214 0.00271347 0)
(1.02098 0.00104662 0)
(1.02023 0.000513913 0)
(1.01811 0.000939 0)
(1.01792 -0.00069531 0)
(1.01539 0.00111936 0)
(1.01588 0.000560889 0)
(1.01581 0.00157972 0)
(1.01574 0.00194457 0)
(1.01889 0.00270649 0)
(1.01932 -0.000260441 0)
(1.01784 0.00304595 0)
(1.0209 0.0028155 0)
(1.01694 0.0023206 0)
(1.01452 0.0143237 0)
(1.01921 0.0131406 0)
(1.02007 0.0158172 0)
(1.01638 0.0138659 0)
(1.02208 0.00787059 0)
(1.02005 -0.0092858 0)
(1.00515 0.00577271 0)
(1.01928 0.00285111 0)
(1.04536 0.0354242 0)
(1.06267 0.0234652 0)
(1.0265 0.0265334 0)
(1.02113 -0.00274617 0)
(1.01499 -0.0133047 0)
(1.05735 0.0577752 0)
(1.06982 0.0188956 0)
(1.0208 0.00763326 0)
(1.02173 0.00761673 0)
(1.02194 0.00657447 0)
(1.02227 0.00689593 0)
(1.02188 0.00536894 0)
(1.02205 0.00620014 0)
(1.02145 0.00419649 0)
(1.0215 0.00538622 0)
(1.02068 0.00322592 0)
(1.02057 0.00417449 0)
(1.01956 0.00268536 0)
(1.01948 0.00244058 0)
(1.01795 0.00255845 0)
(1.01812 0.000827106 0)
(1.01646 0.00233442 0)
(1.01695 0.000408045 0)
(1.01658 0.00155961 0)
(1.01665 0.000721856 0)
(1.01791 0.00114075 0)
(1.01832 0.000142587 0)
(1.0174 0.00229821 0)