/*--------------------------------*- C++ -*----------------------------------*\
| =========                 |                                                 |
| \\      /  F ield         | OpenFOAM: The Open Source CFD Toolbox           |
|  \\    /   O peration     | Version:  2512                                  |
|   \\  /    A nd           | Website:  www.openfoam.com                      |
|    \\/     M anipulation  |                                                 |
\*---------------------------------------------------------------------------*/
FoamFile
{
    version     2.0;
    format      ascii;
    arch        "LSB;label=32;scalar=64";
    class       volScalarField;
    location    "119.15";
    object      p;
}
// * * * * * * * * * * * * * * * * * * * * * * * * * * * * * * * * * * * * * //

dimensions      [0 2 -2 0 0 0 0];

internalField   nonuniform List<scalar> 
13248
(
-0.355264
-0.356755
-0.357699
-0.358411
-0.358668
-0.357924
-0.355536
-0.350844
-0.343213
-0.3322
-0.317681
-0.29994
-0.279644
-0.257735
-0.235248
-0.213145
-0.192182
-0.172888
-0.155521
-0.140184
-0.126827
-0.11525
-0.105446
-0.0967162
-0.360911
-0.361275
-0.361385
-0.361325
-0.360794
-0.359257
-0.356055
-0.350499
-0.34199
-0.330182
-0.315121
-0.297267
-0.277404
-0.256464
-0.23535
-0.214814
-0.195391
-0.177411
-0.161014
-0.146251
-0.132994
-0.121182
-0.11051
-0.100587
-0.366588
-0.365825
-0.364906
-0.36377
-0.362158
-0.359553
-0.355272
-0.348597
-0.338976
-0.326208
-0.310531
-0.292566
-0.273142
-0.253118
-0.233235
-0.214052
-0.195927
-0.179054
-0.163493
-0.149247
-0.136223
-0.124363
-0.113465
-0.103284
-0.37257
-0.370722
-0.368673
-0.366358
-0.363519
-0.359643
-0.353994
-0.34585
-0.334776
-0.320796
-0.304371
-0.286243
-0.267227
-0.248054
-0.229282
-0.211277
-0.19425
-0.1783
-0.163453
-0.149707
-0.136984
-0.125298
-0.114416
-0.104295
-0.379517
-0.376572
-0.373416
-0.369889
-0.365706
-0.360287
-0.352851
-0.342775
-0.329884
-0.314499
-0.297283
-0.279016
-0.260407
-0.242002
-0.224164
-0.20711
-0.190956
-0.175754
-0.16152
-0.148235
-0.135866
-0.12439
-0.113647
-0.103684
-0.388089
-0.383973
-0.379706
-0.374928
-0.369184
-0.361788
-0.352022
-0.339551
-0.324582
-0.30773
-0.289756
-0.271357
-0.25307
-0.235249
-0.218109
-0.201769
-0.186287
-0.171687
-0.157965
-0.145105
-0.133074
-0.121848
-0.111313
-0.101546
-0.398705
-0.393288
-0.387866
-0.381681
-0.373976
-0.364017
-0.351363
-0.336156
-0.319014
-0.300731
-0.282032
-0.263455
-0.24535
-0.227918
-0.211267
-0.195447
-0.180477
-0.166358
-0.153075
-0.140602
-0.128912
-0.11796
-0.107687
-0.0981436
-0.411467
-0.40463
-0.397929
-0.390007
-0.379747
-0.366558
-0.350554
-0.332448
-0.313164
-0.293523
-0.274108
-0.255274
-0.237204
-0.219985
-0.203648
-0.188196
-0.173618
-0.159893
-0.146991
-0.134881
-0.123521
-0.112869
-0.102898
-0.0935881
-0.426148
-0.417824
-0.409622
-0.399435
-0.385866
-0.36882
-0.349189
-0.328194
-0.306885
-0.285969
-0.265836
-0.246664
-0.228509
-0.211372
-0.195228
-0.180044
-0.16578
-0.152394
-0.139841
-0.128077
-0.117055
-0.106732
-0.0970855
-0.088029
-0.442167
-0.432341
-0.422294
-0.409104
-0.391422
-0.370061
-0.346746
-0.323005
-0.299826
-0.277711
-0.256856
-0.23729
-0.218972
-0.201837
-0.185816
-0.170841
-0.156848
-0.143775
-0.131562
-0.120152
-0.109486
-0.0995213
-0.0902136
-0.0814371
-0.458558
-0.447247
-0.43485
-0.41776
-0.395246
-0.369343
-0.342452
-0.316168
-0.291275
-0.268045
-0.246493
-0.226526
-0.208027
-0.190876
-0.174963
-0.160191
-0.146472
-0.133724
-0.121874
-0.110851
-0.100593
-0.0910458
-0.0821326
-0.0737356
-0.474014
-0.461253
-0.445824
-0.423904
-0.396022
-0.365547
-0.335292
-0.306705
-0.280285
-0.256068
-0.233908
-0.213611
-0.194989
-0.177875
-0.162123
-0.147605
-0.134212
-0.121843
-0.110412
-0.0998382
-0.0900587
-0.0810158
-0.0726217
-0.0647908
-0.497639
-0.496997
-0.496031
-0.497286
-0.501624
-0.50927
-0.520196
-0.534293
-0.551335
-0.570882
-0.592222
-0.614362
-0.636069
-0.655959
-0.672649
-0.684973
-0.691303
-0.69036
-0.681449
-0.66393
-0.637564
-0.602763
-0.561759
-0.516084
-0.473644
-0.474058
-0.473177
-0.473733
-0.476806
-0.482572
-0.490956
-0.501808
-0.514879
-0.529744
-0.545761
-0.562061
-0.577578
-0.591123
-0.601475
-0.60748
-0.608162
-0.602248
-0.589447
-0.569597
-0.542975
-0.510481
-0.473985
-0.435765
-0.448399
-0.449702
-0.448891
-0.448786
-0.450538
-0.454266
-0.459818
-0.46697
-0.475412
-0.484705
-0.494254
-0.503309
-0.510984
-0.516307
-0.518292
-0.51602
-0.508802
-0.496263
-0.478184
-0.454781
-0.426708
-0.394972
-0.361182
-0.3286
-0.4237
-0.425731
-0.42509
-0.424561
-0.425245
-0.427176
-0.430114
-0.433742
-0.43767
-0.441419
-0.444409
-0.445976
-0.445397
-0.441925
-0.434845
-0.42356
-0.407666
-0.387849
-0.364032
-0.336705
-0.306878
-0.275885
-0.244702
-0.215835
-0.401041
-0.403678
-0.40336
-0.402724
-0.402737
-0.403329
-0.404178
-0.40489
-0.405007
-0.404011
-0.401329
-0.396366
-0.388542
-0.377334
-0.362313
-0.343263
-0.320349
-0.294476
-0.266042
-0.235907
-0.205211
-0.175665
-0.14872
-0.123092
-0.381501
-0.384652
-0.384788
-0.384329
-0.384068
-0.383824
-0.383204
-0.381762
-0.379004
-0.374394
-0.367381
-0.357444
-0.344141
-0.327173
-0.306421
-0.281995
-0.254164
-0.224725
-0.1939
-0.162947
-0.133474
-0.106364
-0.0863514
-0.0664727
-0.365793
-0.369366
-0.370005
-0.369887
-0.369629
-0.368948
-0.367395
-0.364493
-0.359732
-0.352583
-0.342537
-0.329157
-0.312146
-0.291421
-0.267178
-0.23993
-0.210612
-0.179395
-0.148303
-0.117594
-0.0914163
-0.0677926
-0.052844
-0.0398886
-0.354365
-0.358234
-0.359326
-0.359581
-0.359466
-0.358618
-0.356546
-0.352748
-0.346705
-0.337901
-0.325869
-0.31026
-0.290914
-0.267933
-0.241724
-0.213
-0.182755
-0.152051
-0.122509
-0.094932
-0.0724426
-0.0528629
-0.0421106
-0.0343193
-0.347431
-0.351405
-0.352839
-0.353428
-0.353517
-0.352699
-0.350455
-0.346259
-0.339576
-0.329895
-0.316786
-0.29998
-0.279442
-0.255462
-0.228636
-0.199883
-0.170418
-0.141523
-0.114692
-0.0906804
-0.0717952
-0.0566239
-0.0484815
-0.0443806
-0.344862
-0.348678
-0.350315
-0.351181
-0.351523
-0.350897
-0.34877
-0.344585
-0.337776
-0.327818
-0.314313
-0.297079
-0.276123
-0.252087
-0.225705
-0.19808
-0.170508
-0.144296
-0.120604
-0.100344
-0.0842983
-0.0724874
-0.0653291
-0.062432
-0.346057
-0.349377
-0.351028
-0.352055
-0.352674
-0.352305
-0.35039
-0.346336
-0.339534
-0.329456
-0.315742
-0.298323
-0.277483
-0.253921
-0.228628
-0.202781
-0.177608
-0.154227
-0.13343
-0.115897
-0.101662
-0.0910904
-0.0834336
-0.0794484
-0.350002
-0.35253
-0.354004
-0.355107
-0.35564
-0.355236
-0.35326
-0.349082
-0.342022
-0.331603
-0.31756
-0.299987
-0.279379
-0.256588
-0.232689
-0.208807
-0.185964
-0.164951
-0.146281
-0.130198
-0.116712
-0.105746
-0.0969169
-0.0906211
-0.459862
-0.400964
-0.351987
-0.317111
-0.298938
-0.299195
-0.31849
-0.352717
-0.391739
-0.42119
-0.426162
-0.396878
-0.339397
-0.272465
-0.213899
-0.172513
-0.148069
-0.137849
-0.139177
-0.151375
-0.178718
-0.225156
-0.279843
-0.317455
-0.314679
-0.275102
-0.218518
-0.166934
-0.132916
-0.116109
-0.113585
-0.128472
-0.163398
-0.206865
-0.233274
-0.221201
-0.181867
-0.137236
-0.104113
-0.0862627
-0.084522
-0.0950779
-0.103971
-0.0996614
-0.0886071
-0.0756882
-0.0669648
-0.0650178
-0.0681904
-0.0710312
-0.0676214
-0.0563998
-0.0457529
-0.0396405
-0.0349735
-0.0278015
-0.0201856
-0.0167391
-0.0160469
-0.00636171
-0.389834
-0.348417
-0.313088
-0.29139
-0.285457
-0.297163
-0.325081
-0.363363
-0.40269
-0.431198
-0.43533
-0.405144
-0.346471
-0.278185
-0.217954
-0.174215
-0.146523
-0.132569
-0.130039
-0.137563
-0.158261
-0.195991
-0.242666
-0.27625
-0.275615
-0.24383
-0.19604
-0.15249
-0.124733
-0.113029
-0.11575
-0.137053
-0.179183
-0.228842
-0.259045
-0.246007
-0.201644
-0.149616
-0.108794
-0.084254
-0.0760438
-0.0805433
-0.0849247
-0.0811443
-0.0727928
-0.0651695
-0.0624879
-0.0669912
-0.0762656
-0.081944
-0.0790629
-0.0642448
-0.0481006
-0.0357327
-0.0245758
-0.0170464
-0.0108947
-0.0140942
-0.0212942
-0.00945731
-0.293674
-0.274095
-0.25419
-0.248959
-0.258299
-0.282671
-0.318237
-0.358659
-0.397009
-0.42437
-0.428158
-0.398845
-0.341353
-0.27419
-0.215062
-0.1713
-0.142043
-0.124852
-0.118255
-0.1211
-0.135072
-0.163878
-0.202084
-0.232148
-0.234352
-0.210414
-0.171182
-0.135291
-0.113487
-0.106651
-0.11442
-0.141778
-0.190183
-0.245096
-0.27914
-0.266675
-0.218463
-0.160044
-0.112104
-0.0815725
-0.0677478
-0.0670866
-0.0674556
-0.0636888
-0.0573285
-0.0544715
-0.0576186
-0.0687033
-0.0841905
-0.0926573
-0.0901193
-0.0716987
-0.0502393
-0.0319268
-0.0142791
-0.00649839
-0.0016792
-0.0114612
-0.0262145
-0.0125385
-0.192632
-0.195229
-0.190553
-0.20242
-0.226978
-0.26267
-0.30383
-0.344546
-0.380759
-0.405788
-0.408152
-0.379292
-0.324714
-0.261779
-0.206213
-0.164186
-0.13493
-0.115984
-0.105709
-0.103739
-0.111287
-0.131672
-0.16168
-0.188037
-0.192551
-0.176409
-0.14495
-0.115998
-0.0994999
-0.096903
-0.108831
-0.140869
-0.194433
-0.254254
-0.292286
-0.281808
-0.231419
-0.168088
-0.113992
-0.0782453
-0.0597298
-0.0549027
-0.0517534
-0.047543
-0.0423936
-0.0436432
-0.0522946
-0.0699461
-0.0918105
-0.10307
-0.10061
-0.078632
-0.0521104
-0.0283127
-0.00426408
0.00367441
0.00734408
-0.00871628
-0.0306971
-0.0155705
-0.116716
-0.124254
-0.136441
-0.160927
-0.196293
-0.239309
-0.283215
-0.322808
-0.356834
-0.378365
-0.378728
-0.350666
-0.300493
-0.243858
-0.193573
-0.154344
-0.125835
-0.106165
-0.0937164
-0.0876813
-0.0890955
-0.101402
-0.12364
-0.146315
-0.15821
-0.142928
-0.118198
-0.0953616
-0.0832991
-0.0840986
-0.0990612
-0.134151
-0.191429
-0.255333
-0.297334
-0.290491
-0.240021
-0.173576
-0.114657
-0.0744996
-0.052115
-0.0440203
-0.0379187
-0.0328903
-0.028154
-0.0326536
-0.0463617
-0.0705683
-0.0990045
-0.113064
-0.110406
-0.0849645
-0.053681
-0.0249788
0.00530006
0.0133442
0.0160706
-0.00575636
-0.0346506
-0.0185091
-0.0651594
-0.0782849
-0.0985712
-0.128309
-0.167444
-0.212336
-0.256136
-0.293746
-0.323398
-0.343602
-0.342277
-0.315799
-0.271523
-0.22261
-0.17867
-0.143105
-0.115813
-0.0958513
-0.0820352
-0.0734862
-0.0703135
-0.075254
-0.0897302
-0.107178
-0.117968
-0.1099
-0.0918841
-0.0743135
-0.0658084
-0.0691473
-0.0859898
-0.122418
-0.181327
-0.248367
-0.294158
-0.292721
-0.243867
-0.176229
-0.114234
-0.0705457
-0.0450466
-0.0344406
-0.0260028
-0.0198726
-0.0148088
-0.0216073
-0.0398421
-0.0703836
-0.105552
-0.122522
-0.11937
-0.0906065
-0.0549113
-0.0220115
0.014257
0.0223987
0.0243884
-0.00250977
-0.037995
-0.0212985
-0.0415146
-0.0554334
-0.0763362
-0.105125
-0.142267
-0.184398
-0.225613
-0.261642
-0.289368
-0.304872
-0.301619
-0.277924
-0.240886
-0.200419
-0.163114
-0.131557
-0.105955
-0.085989
-0.0711825
-0.0607797
-0.0545394
-0.0539669
-0.0610989
-0.0726841
-0.0820994
-0.0791544
-0.0670169
-0.0538696
-0.0480847
-0.0530872
-0.0708668
-0.106807
-0.164724
-0.232899
-0.282619
-0.287887
-0.242233
-0.175854
-0.112865
-0.0666147
-0.038633
-0.0260967
-0.015987
-0.00860781
-0.00267401
-0.0106553
-0.0326215
-0.0693021
-0.111377
-0.131357
-0.127429
-0.0954832
-0.0557575
-0.0194526
0.0224616
0.0307483
0.0321815
0.00105278
-0.0406713
-0.0238746
-0.0382014
-0.0502884
-0.0664699
-0.090233
-0.122325
-0.158665
-0.194646
-0.227441
-0.251418
-0.26289
-0.258824
-0.239494
-0.210573
-0.17863
-0.147887
-0.120389
-0.0967876
-0.0772463
-0.0617749
-0.0500124
-0.0415115
-0.0369221
-0.0379764
-0.0439428
-0.0510816
-0.0520323
-0.0444451
-0.0349088
-0.0311476
-0.0370575
-0.0546847
-0.0887731
-0.143888
-0.210371
-0.263332
-0.276582
-0.23494
-0.172481
-0.110555
-0.0628381
-0.0329336
-0.0188792
-0.00776232
0.000818494
0.00803342
-4.32589e-05
-0.02495
-0.0670907
-0.116118
-0.139384
-0.134399
-0.0995022
-0.0561671
-0.01728
0.0297885
0.0383174
0.0393259
0.00493774
-0.0426321
-0.0261641
-0.0499679
-0.0574585
-0.0657807
-0.0819171
-0.106583
-0.135151
-0.164346
-0.189932
-0.209967
-0.219263
-0.216672
-0.203206
-0.182488
-0.158362
-0.133594
-0.109976
-0.0885039
-0.0697225
-0.0539722
-0.0412533
-0.0311915
-0.0239195
-0.0204013
-0.0213272
-0.0254257
-0.0291495
-0.0241886
-0.0179339
-0.0157375
-0.0218414
-0.0387553
-0.0699039
-0.11986
-0.183467
-0.237807
-0.25533
-0.223421
-0.166473
-0.107203
-0.0591983
-0.027909
-0.0126623
-0.00108734
0.00841265
0.0170295
0.0100645
-0.0165628
-0.0636682
-0.119931
-0.146483
-0.14036
-0.102593
-0.0561076
-0.0154936
0.0361369
0.0450617
0.0457314
0.00910801
-0.0438609
-0.0280989
-0.0664822
-0.0682514
-0.0694802
-0.0779593
-0.093218
-0.112808
-0.134703
-0.154391
-0.169681
-0.178039
-0.178293
-0.170788
-0.157243
-0.139764
-0.120266
-0.100323
-0.081116
-0.0634543
-0.0478582
-0.0346066
-0.0235247
-0.0145666
-0.0080353
-0.004833
-0.0050856
-0.00768325
-0.00672951
-0.00345916
-0.0024844
-0.00833755
-0.0240323
-0.0516554
-0.0961989
-0.15415
-0.20706
-0.228604
-0.206142
-0.157384
-0.10277
-0.0559201
-0.0236755
-0.00746444
0.00419338
0.0142566
0.0241597
0.0192198
-0.00809951
-0.0588871
-0.121926
-0.152259
-0.144837
-0.104665
-0.0556277
-0.0142401
0.0413494
0.0509543
0.0512934
0.0135012
-0.0443457
-0.0296107
-0.0787664
-0.0760934
-0.0742311
-0.0766633
-0.0831457
-0.0943801
-0.109175
-0.124306
-0.136384
-0.144984
-0.148171
-0.145458
-0.137346
-0.124983
-0.109759
-0.0930407
-0.0759986
-0.0595945
-0.0444319
-0.0309245
-0.0191236
-0.00900693
-0.000558465
0.00569828
0.00905695
0.0091357
0.0083328
0.00894305
0.00857484
0.00314022
-0.0108985
-0.0345336
-0.0722159
-0.124289
-0.176131
-0.202099
-0.19059
-0.148295
-0.0984578
-0.0538042
-0.0207307
-0.00341529
0.00827288
0.0182803
0.0311458
0.0277869
0.000989494
-0.0525242
-0.123056
-0.156726
-0.14842
-0.105906
-0.0548268
-0.0134172
0.0452093
0.0559798
0.056007
0.0180621
-0.0441493
-0.032524
-0.085721
-0.0823334
-0.080234
-0.0786326
-0.0790601
-0.083676
-0.0921746
-0.10134
-0.109728
-0.116469
-0.120491
-0.120664
-0.11669
-0.108877
-0.097894
-0.0846678
-0.0701539
-0.0553519
-0.041008
-0.0276567
-0.0155025
-0.0048111
0.00459119
0.0127883
0.0189735
0.0210471
0.0159299
0.0183673
0.0169872
0.012225
-0.000802348
-0.0210998
-0.051634
-0.0964622
-0.143512
-0.168776
-0.164052
-0.133777
-0.0906581
-0.050053
-0.0175798
0.000434535
0.0123665
0.0215597
0.0342521
0.0341517
0.00935886
-0.0446471
-0.121243
-0.15879
-0.149762
-0.105639
-0.0529997
-0.0116923
0.0483241
0.0600481
0.0597024
0.0226775
-0.0431723
-0.0330325
-0.0873994
-0.0860515
-0.0831102
-0.0799711
-0.0789312
-0.0810814
-0.0860246
-0.0919399
-0.0980764
-0.10303
-0.105557
-0.104905
-0.100825
-0.0935105
-0.0834808
-0.0714961
-0.0583723
-0.0448993
-0.0317066
-0.0192349
-0.00761724
0.00280818
0.0120796
0.0206665
0.0282035
0.0332331
0.0429267
0.0282211
0.0240499
0.0199333
0.0103989
-0.00541345
-0.0308197
-0.0707967
-0.116423
-0.145878
-0.1487
-0.118757
-0.0783584
-0.0413082
-0.0112555
0.00556341
0.0167519
0.0255625
0.0386912
0.0415616
0.0189176
-0.0347211
-0.118126
-0.160395
-0.150685
-0.102841
-0.0491439
-0.00864358
0.0516627
0.0639475
0.0627612
0.0272908
-0.0416105
-0.0332001
-0.0873572
-0.0868699
-0.0836126
-0.0796133
-0.0769311
-0.076698
-0.0785767
-0.0826004
-0.0865851
-0.0894245
-0.090279
-0.0886745
-0.0844545
-0.0777589
-0.068952
-0.0585369
-0.0470884
-0.0352021
-0.0233511
-0.0119062
-0.00101218
0.00895303
0.0179176
0.0261799
0.0334581
0.0374414
0.0315671
0.03219
0.0283799
0.0243607
0.0162794
0.00352128
-0.0167028
-0.0506993
-0.0939878
-0.123395
-0.125219
-0.100463
-0.0647967
-0.0324537
-0.00564262
0.00995056
0.0205497
0.0288706
0.0417062
0.045733
0.0253115
-0.0267805
-0.114723
-0.160469
-0.147723
-0.098291
-0.0443893
-0.00566549
0.0541772
0.0660932
0.0646314
0.0312284
-0.0396874
-0.0329748
-0.0830279
-0.0839438
-0.0813642
-0.077147
-0.0735467
-0.0718251
-0.072202
-0.0740754
-0.0761497
-0.0774333
-0.0772343
-0.0751768
-0.0711283
-0.0651467
-0.0574303
-0.0482904
-0.0381042
-0.0273628
-0.0164789
-0.00584544
0.00438934
0.0139358
0.0226097
0.0304902
0.0375077
0.0416893
0.040276
0.0360801
0.0314028
0.0273978
0.0202163
0.00886232
-0.00823776
-0.0362092
-0.0720673
-0.0977121
-0.101885
-0.0826006
-0.0520381
-0.0241036
-0.000343072
0.0138215
0.0237748
0.0316362
0.0441777
0.048653
0.0292914
-0.0212222
-0.110873
-0.157707
-0.142757
-0.0923848
-0.0390558
-0.00268308
0.0558639
0.067584
0.0655187
0.0344637
-0.0372375
-0.0322615
-0.0763446
-0.0789818
-0.0773715
-0.0733639
-0.0693759
-0.0667401
-0.0657878
-0.0661442
-0.0668563
-0.0670297
-0.0660418
-0.0635719
-0.0595095
-0.0538804
-0.0468316
-0.0386075
-0.0294714
-0.019828
-0.00997867
-0.000231453
0.00921632
0.0180966
0.0262852
0.0336337
0.0400593
0.0442001
0.0431383
0.0388082
0.0337956
0.0301088
0.0241125
0.0139262
-0.000637828
-0.0211775
-0.0482535
-0.0717611
-0.0787341
-0.0644924
-0.0388171
-0.0154274
0.00478914
0.0172313
0.0264942
0.0338981
0.0457485
0.050718
0.0321061
-0.0157443
-0.104329
-0.151431
-0.135207
-0.0848735
-0.0329601
0.00061126
0.05667
0.068307
0.0655547
0.0372376
-0.0340652
-0.0310099
-0.0690982
-0.0727525
-0.0719598
-0.0683524
-0.0642911
-0.0611594
-0.0593937
-0.0587085
-0.05838
-0.0576693
-0.0560401
-0.053228
-0.0491683
-0.0439101
-0.0375479
-0.0302427
-0.02213
-0.0134899
-0.00456945
0.00436842
0.0131355
0.0214097
0.0290934
0.0359386
0.0416979
0.0455592
0.0450788
0.0409026
0.0359704
0.0327381
0.0277348
0.0187524
0.00780505
-0.00480172
-0.0249648
-0.0467682
-0.0561288
-0.0468955
-0.0262853
-0.00710539
0.00963896
0.0202538
0.0286795
0.0356463
0.0463753
0.0517109
0.0343616
-0.00881166
-0.0941044
-0.140777
-0.12447
-0.0758041
-0.0263765
0.00407811
0.0565274
0.0681943
0.0648268
0.0397576
-0.0301213
-0.0291902
-0.0612639
-0.0654842
-0.0654274
-0.0623616
-0.0584641
-0.0551898
-0.0529438
-0.0515556
-0.0504902
-0.0491637
-0.0471325
-0.044173
-0.040222
-0.0353135
-0.0294992
-0.0228913
-0.0155697
-0.00775574
0.000336538
0.00847574
0.0165003
0.024062
0.0310952
0.0373965
0.042584
0.0461123
0.0460425
0.0424704
0.0380184
0.0353895
0.0313352
0.0238522
0.0166493
0.0104996
-0.00421061
-0.0244089
-0.0354418
-0.0304936
-0.0144505
0.000960093
0.014254
0.02295
0.0303813
0.0368761
0.0461109
0.0516761
0.0362901
-0.000577838
-0.0802653
-0.125245
-0.110299
-0.065336
-0.0195331
0.00771892
0.0554373
0.0672287
0.0633817
0.0419392
-0.0254689
-0.0268037
-0.0530556
-0.0576688
-0.0582341
-0.055741
-0.0521745
-0.048918
-0.046443
-0.0446587
-0.0431518
-0.0414544
-0.0391974
-0.0361809
-0.0323383
-0.0277098
-0.0223475
-0.0163573
-0.00979445
-0.00280585
0.00446083
0.0118055
0.019106
0.0260199
0.0324317
0.0381977
0.042886
0.0461382
0.0464489
0.0437139
0.0400867
0.038229
0.0356008
0.0305001
0.0266551
0.0242906
0.0126938
-0.00596074
-0.0171571
-0.0155273
-0.00376281
0.00833662
0.0185677
0.025401
0.0317136
0.0376697
0.0451931
0.0506655
0.0374428
0.00789062
-0.0634193
-0.104931
-0.0926982
-0.0537466
-0.0127817
0.0113766
0.0534718
0.0654227
0.0612392
0.0435665
-0.0201869
-0.0238757
-0.0449783
-0.0496618
-0.0506478
-0.0486984
-0.0455524
-0.0424808
-0.0399832
-0.0380275
-0.0362872
-0.0343825
-0.0320086
-0.0290028
-0.0253166
-0.0210003
-0.0161013
-0.0106977
-0.00481135
0.00145779
0.00799687
0.014621
0.0212192
0.0274887
0.0332766
0.0385115
0.0427485
0.0457807
0.0464919
0.0446789
0.0420911
0.041075
0.040362
0.0387149
0.0375299
0.0359776
0.0253752
0.00880404
-0.00140354
-0.00231751
0.00565035
0.0149097
0.0225833
0.027684
0.0328067
0.0381277
0.0439307
0.0489127
0.0376491
0.0158377
-0.0446234
-0.0808466
-0.072225
-0.0414355
-0.00640917
0.0149044
0.0507978
0.0627838
0.0584581
0.0445465
-0.0143375
-0.0204552
-0.0370652
-0.0416512
-0.0429503
-0.041504
-0.038805
-0.0360098
-0.0336163
-0.0316336
-0.029805
-0.0278243
-0.0254462
-0.0225452
-0.0190827
-0.0151008
-0.0106332
-0.00574261
-0.00045183
0.00515765
0.0110036
0.0169299
0.0228391
0.0284927
0.0337029
0.0384423
0.0422868
0.0451234
0.0462274
0.0453155
0.0438508
0.0437701
0.0446656
0.0457566
0.046175
0.0440585
0.0343241
0.0205704
0.0118046
0.00896808
0.0136716
0.0204874
0.0261909
0.0298193
0.0337945
0.0383932
0.0426355
0.0451188
0.0372887
0.0227689
-0.0256065
-0.0551443
-0.0501104
-0.0288893
-0.000610248
0.0181449
0.0476953
0.0593917
0.0552225
0.0449448
-0.00799672
-0.0166134
-0.0294421
-0.0338867
-0.0353963
-0.0343601
-0.0320725
-0.0295901
-0.0273789
-0.0254713
-0.0236704
-0.0217291
-0.0194451
-0.0167151
-0.0135054
-0.00985325
-0.00579437
-0.00138982
0.00333819
0.00833073
0.0135325
0.0188162
0.0240851
0.0291596
0.0338382
0.0381145
0.0416228
0.04425
0.0454037
0.0455841
0.0451506
0.0458364
0.0475688
0.0497436
0.0507709
0.048453
0.0402897
0.0294776
0.0221038
0.0181094
0.0202928
0.0250753
0.0293166
0.0317653
0.0347058
0.0386089
0.04187
0.043214
0.0371318
0.0282562
-0.00835714
-0.0305494
-0.0281387
-0.016679
0.00459811
0.0210339
0.0446791
0.0545704
0.0518566
0.0449338
-0.0012964
-0.0124388
-0.0223354
-0.0264905
-0.0280723
-0.0273628
-0.0254708
-0.0233188
-0.0213353
-0.0195739
-0.0178824
-0.0160564
-0.0139258
-0.0114052
-0.00846982
-0.0051579
-0.00150679
0.00243088
0.00663756
0.0110674
0.0156778
0.0203665
0.0250407
0.0295686
0.0337655
0.0376168
0.0408457
0.0433535
0.0448834
0.0455951
0.0459068
0.0470554
0.0489962
0.0511826
0.0522947
0.05026
0.0438204
0.0355036
0.029415
0.0251346
0.0256131
0.0287401
0.031887
0.0334794
0.0355168
0.0388061
0.0417269
0.0418894
0.0374488
0.0319102
0.00559618
-0.00951608
-0.00887831
-0.0054223
0.00932443
0.0235547
0.0425538
0.0514151
0.0489125
0.0447759
0.00555965
-0.00802576
-0.0156682
-0.0194695
-0.0210676
-0.0206455
-0.0191207
-0.0172905
-0.0155526
-0.0139738
-0.0124347
-0.0107667
-0.00882836
-0.00654819
-0.00390793
-0.000942683
0.00231235
0.00581113
0.00953522
0.0134457
0.0175097
0.0216476
0.0257787
0.0297998
0.0335572
0.0370212
0.0400068
0.042427
0.0441672
0.045293
0.0461042
0.0474504
0.0492841
0.0511223
0.0520366
0.0504009
0.0454892
0.0391145
0.0337913
0.0302483
0.0297691
0.0316104
0.0338914
0.0349042
0.0362453
0.0390214
0.0418612
0.0412287
0.0379582
0.0336663
0.0155952
0.00638345
0.00606415
0.00431035
0.0136523
0.0257203
0.0417592
0.0491059
0.0468788
0.0446901
0.0121939
-0.00352906
-0.0094399
-0.0129188
-0.0145044
-0.014309
-0.013093
-0.0115583
-0.0100648
-0.0086823
-0.0073195
-0.00583754
-0.00411673
-0.00209438
0.000244363
0.00286845
0.00574375
0.00882722
0.0121003
0.0155303
0.0190941
0.022727
0.0263633
0.0299169
0.0332718
0.0363843
0.0391379
0.0414654
0.0433221
0.0446823
0.0457915
0.0471655
0.0487744
0.0502127
0.0508389
0.049578
0.0459364
0.0411361
0.0370737
0.0339044
0.0329216
0.0338122
0.0353877
0.0359986
0.036889
0.0392519
0.0417765
0.0409748
0.0385988
0.0347691
0.0224875
0.0168639
0.0161662
0.0122022
0.0175997
0.0276925
0.0421372
0.0479404
0.0460505
0.044532
0.0179251
0.00073848
-0.00375226
-0.00689233
-0.008407
-0.0083656
-0.00741265
-0.00615045
-0.00489417
-0.00371328
-0.00253882
-0.0012548
0.000240684
0.0020026
0.00404343
0.00633603
0.00884801
0.0115395
0.014394
0.0173823
0.0204892
0.0236601
0.0268459
0.0299718
0.0329547
0.0357434
0.0382629
0.0404644
0.0423166
0.0438034
0.0450649
0.0463835
0.0477459
0.0488497
0.0492309
0.0482826
0.0456475
0.0420916
0.0390241
0.0363641
0.0352059
0.0354481
0.0364632
0.0367979
0.0374275
0.0394163
0.0413668
0.0408628
0.0392553
0.0360334
0.0275349
0.0234001
0.0225085
0.0183308
0.0210691
0.0294981
0.0429279
0.0475112
0.0458699
0.043591
0.0218587
0.00425097
0.00142706
-0.00135505
-0.00276359
-0.00283359
-0.00211578
-0.00110446
-7.22831e-05
0.000913291
0.00190345
0.00299321
0.00426759
0.00577529
0.00752853
0.00950451
0.0116739
0.014
0.0164686
0.0190523
0.0217425
0.0244923
0.027268
0.0300029
0.03264
0.0351273
0.0374088
0.0394445
0.0411767
0.0427334
0.0440454
0.0452778
0.0464165
0.0472777
0.0475006
0.0468034
0.0449358
0.0423426
0.0400279
0.0378907
0.0367592
0.0366042
0.0371942
0.037358
0.0378277
0.0394215
0.0407906
0.0406397
0.0396236
0.0371007
0.0309782
0.0274506
0.0264765
0.0229418
0.0239628
0.0309577
0.0430265
0.0468778
0.0449272
0.0410236
0.0233858
0.0065105
0.00614559
0.00369827
0.00240997
0.00228655
0.00276427
0.00354863
0.00438238
0.00519173
0.00601091
0.00691678
0.0079813
0.00924872
0.0107316
0.0124114
0.0142624
0.0162514
0.0183658
0.0205807
0.0228919
0.0252597
0.0276614
0.0300395
0.0323544
0.0345571
0.0366066
0.0384715
0.0401082
0.0415911
0.0428613
0.0439952
0.0449496
0.0456439
0.0457909
0.0452963
0.0439972
0.0421311
0.0404008
0.0387267
0.0377178
0.0373565
0.0376414
0.0377034
0.0380405
0.0392352
0.0401497
0.0401649
0.0394903
0.0375644
0.0329193
0.029855
0.0289337
0.0262018
0.0262346
0.0318383
0.0419559
0.0453579
0.0425547
0.0371776
0.0227608
0.00739135
0.0103892
0.00821157
0.0069788
0.0066901
0.00712414
0.00777952
0.00846392
0.0091241
0.00978976
0.0105271
0.0113989
0.0124453
0.0136792
0.0150864
0.0166453
0.018326
0.0201176
0.021998
0.0239658
0.0259882
0.0280501
0.0301028
0.0321169
0.0340503
0.0358724
0.0375585
0.0390701
0.0404387
0.041617
0.0426478
0.0434585
0.0440407
0.0441702
0.0438377
0.0429541
0.0416292
0.0403518
0.0390669
0.0382088
0.0377713
0.0378448
0.037841
0.0380503
0.0388676
0.039463
0.0394686
0.0389156
0.0374415
0.0338212
0.0311707
0.0303124
0.0282374
0.0278812
0.0320803
0.0396937
0.0406474
0.0392014
0.033206
0.0210772
0.00729603
0.0142173
0.012323
0.0112255
0.0109527
0.0112147
0.0116949
0.0122182
0.0127323
0.0132554
0.0138395
0.0145369
0.0153831
0.0163916
0.0175515
0.0188454
0.0202472
0.021747
0.0233263
0.0249847
0.0266963
0.0284496
0.0302054
0.0319407
0.033621
0.0352195
0.0367183
0.0380791
0.0393215
0.0403886
0.0413152
0.0420186
0.0425237
0.0426668
0.0424623
0.0418802
0.0409552
0.0400235
0.0390553
0.0383431
0.0379047
0.0378387
0.0377796
0.0378663
0.0383566
0.0387213
0.0386392
0.0380653
0.0369038
0.0341029
0.0317879
0.0309214
0.029428
0.0288875
0.0317407
0.0370438
0.0377705
0.0357091
0.0295816
0.0190888
0.00674006
0.0176486
0.0160186
0.0150425
0.014752
0.0149065
0.0152458
0.0156321
0.0160195
0.0164177
0.0168661
0.0174085
0.0180767
0.0188841
0.0198232
0.0208797
0.0220319
0.0232707
0.0245809
0.0259619
0.0273943
0.0288688
0.0303552
0.0318336
0.0332765
0.0346603
0.0359717
0.0371731
0.038279
0.0392294
0.0400537
0.0406746
0.0411225
0.04129
0.041187
0.0408193
0.0401858
0.0395123
0.0387939
0.0382115
0.0378066
0.0376535
0.0375393
0.0375179
0.037748
0.0378946
0.0376993
0.0370913
0.0361174
0.0339854
0.0319584
0.0310295
0.0299369
0.0293453
0.0309863
0.0343753
0.0347716
0.0322902
0.0263194
0.0170987
0.00605754
0.0207216
0.0193176
0.0184422
0.018132
0.0181972
0.0184389
0.0187178
0.0189974
0.0192875
0.0196183
0.0200261
0.0205387
0.0211695
0.021914
0.0227607
0.0236921
0.0246993
0.0257704
0.0269043
0.0280876
0.029312
0.0305545
0.031798
0.0330216
0.0342032
0.0353323
0.0363759
0.0373405
0.0381748
0.0388993
0.039451
0.0398529
0.040041
0.0400152
0.0397954
0.0393716
0.0388845
0.0383352
0.0378851
0.037524
0.0373188
0.0371535
0.0370415
0.0370772
0.0370449
0.0367579
0.0361046
0.0352134
0.0335849
0.0318274
0.0308179
0.0299342
0.029291
0.0299643
0.0318376
0.0318197
0.029072
0.0233719
0.0152202
0.00539058
0.0234471
0.0222418
0.0214666
0.0211569
0.0211632
0.021314
0.0215014
0.0216856
0.0218796
0.0221088
0.0224013
0.0227803
0.0232583
0.0238335
0.0244969
0.0252345
0.0260381
0.0268987
0.0278147
0.028777
0.0297783
0.030802
0.0318328
0.0328543
0.0338474
0.0348041
0.0356971
0.0365215
0.0372422
0.0378703
0.0383585
0.0387193
0.0389161
0.0389446
0.0388242
0.0385485
0.038201
0.0378028
0.0374302
0.0371033
0.0368644
0.0366559
0.0364675
0.0363546
0.0361759
0.0358097
0.035142
0.0342748
0.0329816
0.0314737
0.030387
0.0295629
0.0288515
0.0287902
0.0294813
0.0290063
0.0261218
0.0207352
0.0134984
0.00478069
0.025852
0.0248264
0.0241452
0.0238416
0.0237976
0.0238816
0.0240073
0.0241025
0.0242102
0.0243503
0.0245444
0.0248103
0.0251585
0.0255887
0.026094
0.0266636
0.0272902
0.0279669
0.028692
0.0294596
0.0302637
0.0310919
0.0319313
0.032769
0.0335891
0.0343842
0.0351322
0.0358248
0.036437
0.0369723
0.0373978
0.0377178
0.0379104
0.0379719
0.0379143
0.0377373
0.0374873
0.0371889
0.0368794
0.0365813
0.0363178
0.0360745
0.0358248
0.0355994
0.0353072
0.0348668
0.0342017
0.0333433
0.0322404
0.0309401
0.0298017
0.0289329
0.0281247
0.0275353
0.0273228
0.0263967
0.0234716
0.0184139
0.0119491
0.00423407
0.0279729
0.0270999
0.0264971
0.026196
0.0261027
0.0261086
0.0261417
0.0262084
0.0262709
0.026348
0.0264643
0.0266377
0.0268779
0.0271859
0.0275567
0.0279822
0.0284562
0.0289738
0.0295331
0.0301305
0.0307614
0.0314165
0.0320852
0.0327571
0.0334196
0.0340655
0.0346775
0.0352474
0.0357562
0.0362028
0.036564
0.0368405
0.0370174
0.0370921
0.0370687
0.0369522
0.0367646
0.0365278
0.0362563
0.0359759
0.0357043
0.035427
0.0351251
0.0348188
0.0344454
0.033941
0.0332755
0.0324287
0.0314152
0.0302603
0.0291017
0.0281289
0.0271963
0.0262423
0.0253635
0.0240311
0.0211225
0.0163969
0.0105788
0.00374839
0.0298359
0.0290951
0.0285658
0.0282771
0.0281569
0.0281207
0.0281138
0.0281154
0.0281211
0.0281406
0.028188
0.0282808
0.0284286
0.028633
0.0288898
0.0291926
0.0295362
0.0299171
0.0303336
0.0307834
0.0312632
0.0317664
0.0322843
0.0328083
0.0333285
0.033838
0.0343246
0.0347809
0.0351917
0.0355535
0.0358494
0.0360782
0.0362283
0.0362994
0.0362886
0.0362036
0.0360512
0.0358498
0.0356067
0.0353384
0.0350503
0.034745
0.0344037
0.0340284
0.033593
0.0330387
0.0323598
0.0315252
0.0305473
0.0294696
0.0283094
0.0272195
0.0261448
0.0249433
0.0235957
0.0219209
0.0190568
0.0146611
0.00938698
0.00332029
0.0314634
0.0308372
0.0303736
0.0300983
0.0299565
0.0298829
0.029834
0.0297912
0.0297525
0.0297246
0.0297197
0.0297487
0.0298199
0.0299371
0.0300978
0.0302969
0.0305299
0.0307942
0.0310887
0.0314118
0.0317611
0.0321318
0.0325173
0.0329105
0.0333034
0.0336891
0.0340627
0.0344146
0.0347329
0.0350133
0.0352428
0.0354203
0.0355351
0.0355883
0.0355734
0.0354976
0.0353598
0.0351739
0.0349422
0.0346751
0.0343743
0.0340405
0.033665
0.0332383
0.0327516
0.0321592
0.0314575
0.0306273
0.029661
0.0286061
0.0274453
0.0262552
0.0250344
0.02366
0.0220044
0.0200609
0.0172519
0.0131767
0.00836578
0.00294748
0.0328791
0.0323494
0.0319423
0.0316802
0.0315222
0.0314183
0.0313349
0.0312569
0.0311821
0.0311158
0.0310671
0.0310455
0.0310574
0.0311041
0.0311849
0.0312971
0.0314373
0.0316031
0.0317938
0.0320087
0.0322462
0.0325027
0.0327732
0.0330521
0.0333324
0.0336122
0.0338812
0.0341365
0.0343673
0.0345696
0.034733
0.0348561
0.0349293
0.034954
0.0349218
0.0348382
0.0346992
0.034513
0.0342799
0.0340052
0.0336889
0.0333295
0.0329223
0.0324564
0.0319254
0.0313014
0.0305743
0.0297355
0.0287702
0.0277063