/*--------------------------------*- C++ -*----------------------------------*\
| =========                 |                                                 |
| \\      /  F ield         | OpenFOAM: The Open Source CFD Toolbox           |
|  \\    /   O peration     | Version:  2312                                  |
|   \\  /    A nd           | Website:  www.openfoam.com                      |
|    \\/     M anipulation  |                                                 |
\*---------------------------------------------------------------------------*/
FoamFile
{
    version     2.0;
    format      ascii;
    arch        "LSB;label=32;scalar=64";
    class       surfaceScalarField;
    location    "52.5";
    object      phi;
}
// * * * * * * * * * * * * * * * * * * * * * * * * * * * * * * * * * * * * * //

dimensions      [0 3 -1 0 0 0 0];

oriented        oriented;

internalField   nonuniform List<scalar> 
26232
(
-8.82372e-05
0.0012527
-0.00116446
-0.000237045
0.00234399
-0.00219518
-0.000211855
0.00242947
-0.00245466
0.000271586
0.00163531
-0.00211875
0.0015202
-5.57431e-05
-0.00119287
0.00385007
-0.0027527
0.000422829
0.00757556
-0.00657887
0.00285338
0.0129726
-0.0116311
0.00623411
0.0202282
-0.0179038
0.0106482
0.0293812
-0.0252553
0.0161023
0.0402851
-0.0334065
0.0225026
0.0526072
-0.0419764
0.0296543
0.0658675
-0.0505414
0.0372811
0.0795048
-0.0587001
0.0450628
0.0929543
-0.066125
0.0526755
0.105715
-0.0725995
0.0598386
0.117422
-0.0780271
0.0663206
0.127837
-0.0824384
0.0720233
0.136943
-0.0859296
0.0768232
0.144808
-0.0887551
0.0808907
0.15167
-0.0909879
0.0841258
0.157879
-0.0931277
0.0869184
0.16353
-0.0949198
0.0892693
-0.0970513
0.0915546
0.169026
1.49046e-05
0.0012378
0.000178443
0.00218045
0.000739907
0.001868
0.00201797
0.000357249
0.00437378
-0.00241155
0.0081721
-0.00655102
0.0137434
-0.0121502
0.0212935
-0.0191812
0.0308242
-0.0274345
0.0420858
-0.0365169
0.0545932
-0.045914
0.0677017
-0.0550849
0.0807157
-0.0635554
0.0930007
-0.0709851
0.104076
-0.0771998
0.113671
-0.0821948
0.121744
-0.0861004
0.12846
-0.0891541
0.134145
-0.0916144
0.139171
-0.0937812
0.143984
-0.0958007
0.148854
-0.0979981
0.154066
-0.100132
-0.102818
0.159833
8.58863e-05
0.00115191
0.000536729
0.0017296
0.00165454
0.000750197
0.00381789
-0.00180611
0.00744163
-0.00603529
0.0129106
-0.01202
0.0204655
-0.0197051
0.0300794
-0.0287951
0.0413963
-0.0387514
0.0537732
-0.0488939
0.0664087
-0.0585494
0.0785067
-0.0671829
0.0894256
-0.0744743
0.0987781
-0.0803376
0.10647
-0.0848915
0.112671
-0.0883959
0.117746
-0.091175
0.122138
-0.0935467
0.126279
-0.0957552
0.130492
-0.0979945
0.134983
-0.100292
0.139797
-0.102812
0.144936
-0.10527
-0.108189
0.150306
0.000144279
0.00100763
0.000892919
0.000980965
0.00263737
-0.000994251
0.00582888
-0.00499763
0.0109113
-0.0111177
0.0181786
-0.0192873
0.0275988
-0.0291252
0.038724
-0.0399202
0.0507607
-0.0507881
0.0627679
-0.0609011
0.0738865
-0.069668
0.0835189
-0.0768153
0.0914177
-0.0823731
0.0976761
-0.086596
0.102638
-0.0898537
0.106766
-0.0925232
0.110503
-0.0949129
0.114183
-0.0972258
0.117999
-0.099572
0.122001
-0.101996
0.1262
-0.10449
0.130514
-0.107126
0.134982
-0.109739
-0.112748
0.139541
0.000220443
0.000787188
0.00133111
-0.000129703
0.00383014
-0.00349328
0.00822257
-0.00939005
0.0148831
-0.0177783
0.0238209
-0.0282251
0.034533
-0.0398374
0.0460934
-0.0514807
0.0574334
-0.0621281
0.0676481
-0.0711158
0.0762016
-0.0782215
0.082983
-0.0835967
0.0882324
-0.0876225
0.0923867
-0.0907503
0.095911
-0.093378
0.0991766
-0.0957888
0.10241
-0.0981459
0.105713
-0.100529
0.10911
-0.102969
0.112603
-0.105489
0.11621
-0.108098
0.119934
-0.11085
0.12385
-0.113655
-0.116809
0.12791
0.000339828
0.00044736
0.00192102
-0.00171089
0.00532381
-0.00689607
0.011033
-0.0150992
0.0191685
-0.0259137
0.0292448
-0.0383015
0.0402378
-0.0508304
0.0509521
-0.062195
0.0604256
-0.0716015
0.0681616
-0.0788519
0.074146
-0.0842058
0.0787052
-0.0881559
0.0823036
-0.0912209
0.08537
-0.0938167
0.0882072
-0.0962152
0.0909851
-0.0985667
0.0937847
-0.100946
0.096644
-0.103388
0.0995928
-0.105918
0.102654
-0.108551
0.105854
-0.111298
0.109179
-0.114175
0.112657
-0.117133
-0.120359
0.116207
0.000514556
-6.71957e-05
0.00267855
-0.00387489
0.0070969
-0.0113144
0.0140738
-0.0220761
0.023257
-0.035097
0.0335929
-0.0486373
0.0437555
-0.0609931
0.0526815
-0.0711209
0.0598568
-0.0787768
0.0653037
-0.0842987
0.069382
-0.0882841
0.0725542
-0.0913281
0.0752186
-0.0938853
0.0776453
-0.0962434
0.0799899
-0.0985598
0.0823358
-0.100913
0.0847293
-0.103339
0.0871981
-0.105857
0.0897545
-0.108475
0.0924009
-0.111197
0.0951345
-0.114031
0.0979411
-0.116981
0.100852
-0.120044
-0.123303
0.103796
0.000740729
-0.000807924
0.00357477
-0.00670894
0.00901296
-0.0167526
0.0169726
-0.0300358
0.0265017
-0.044626
0.0361601
-0.0582958
0.0447171
-0.0695501
0.0515569
-0.0779607
0.0566692
-0.0838891
0.0604095
-0.088039
0.0632358
-0.0911104
0.0655392
-0.0936315
0.0675866
-0.0959327
0.0695354
-0.0981922
0.0714701
-0.100495
0.0734326
-0.102875
0.0754412
-0.105348
0.0775016
-0.107917
0.0796168
-0.11059
0.0817922
-0.113372
0.0840357
-0.116275
0.0863546
-0.1193
0.0887624
-0.122452
-0.125753
0.0912126
0.00100712
-0.00181505
0.00454006
-0.0102419
0.0108522
-0.0230648
0.0192937
-0.0384772
0.0284003
-0.0537326
0.0367128
-0.0666082
0.043406
-0.0762433
0.0483561
-0.0829108
0.0518797
-0.0874127
0.0544334
-0.0905928
0.0564211
-0.0930981
0.0581229
-0.0953333
0.0597037
-0.0975135
0.0612477
-0.0997362
0.062793
-0.10204
0.0643557
-0.104438
0.0659442
-0.106936
0.0675667
-0.10954
0.0692319
-0.112255
0.0709478
-0.115088
0.0727178
-0.118045
0.0745405
-0.121123
0.0764165
-0.124328
-0.127645
0.0783083
0.0012944
-0.00310944
0.00547762
-0.0144251
0.0123643
-0.0299514
0.0206929
-0.0468058
0.0287797
-0.0618194
0.0354699
-0.0732984
0.0404179
-0.0811913
0.0438488
-0.0863417
0.0462104
-0.0897744
0.0479309
-0.0923133
0.0493164
-0.0944835
0.050547
-0.096564
0.0517135
-0.0986799
0.0528565
-0.100879
0.0539951
-0.103178
0.0551403
-0.105583
0.0563005
-0.108096
0.0574822
-0.110721
0.0586901
-0.113463
0.059928
-0.116326
0.0611977
-0.119314
0.0625027
-0.122428
0.0638404
-0.125665
-0.129001
0.0651963
0.00157865
-0.00468809
0.0062791
-0.0191255
0.013338
-0.0370104
0.0210274
-0.0544952
0.027775
-0.068567
0.0328665
-0.0783899
0.0363421
-0.0846669
0.0386081
-0.0886077
0.0401188
-0.0912851
0.0412196
-0.0934141
0.0421196
-0.0953835
0.0429252
-0.0973696
0.0436849
-0.0994396
0.0444208
-0.101615
0.0451441
-0.103902
0.045862
-0.106301
0.0465797
-0.108814
0.0473023
-0.111444
0.0480358
-0.114196
0.0487858
-0.117076
0.0495563
-0.120085
0.0503471
-0.123219
0.0511497
-0.126468
-0.129808
0.0519568
0.00183586
-0.00652395
0.00684823
-0.0241379
0.0136634
-0.0438255
0.0203596
-0.0611915
0.0256908
-0.0738982
0.0293579
-0.082057
0.0316481
-0.086957
0.033024
-0.0899836
0.0338813
-0.0921424
0.0344743
-0.0940071
0.0349366
-0.0958458
0.0353294
-0.0977624
0.0356788
-0.099789
0.0359969
-0.101933
0.0362906
-0.104195
0.0365654
-0.106576
0.0368269
-0.109075
0.0370806
-0.111698
0.037332
-0.114448
0.0375855
-0.11733
0.0378436
-0.120343
0.0381064
-0.123482
0.038368
-0.12673
0.038633
-0.130073
-5.26345e-05
-0.00435699
0.00440963
-0.000414426
-0.0104166
0.0107784
-0.00117524
-0.0143532
0.015114
-0.00231264
-0.0166825
0.0178199
-0.0037542
-0.0180379
0.0194795
-0.00541967
-0.0189728
0.0206383
-0.00724552
-0.0198488
0.0216746
-0.00918848
-0.0208333
0.0227762
-0.0112177
-0.0219578
0.023987
-0.0133034
-0.0231809
0.0252667
-0.015408
-0.0244269
0.0265315
-0.0174798
-0.0255999
0.0276716
-0.0194504
-0.0265848
0.0285555
-0.0212362
-0.0272466
0.0290323
-0.0227406
-0.027432
0.0289365
-0.0238605
-0.0269757
0.0280956
-0.0244932
-0.0257085
0.0263411
-0.0245442
-0.0234664
0.0235174
-0.0239315
-0.0201024
0.0194897
-0.0226159
-0.0154967
0.0141811
-0.020524
-0.00954873
0.00745685
-0.0177187
-0.00217154
-0.000633774
-0.013979
0.00625663
-0.00999628
0.0161046
-0.0093572
-0.0207264
-0.00024728
-0.00410971
-0.000994103
-0.00966979
-0.00221036
-0.013137
-0.00382247
-0.0150703
-0.00574941
-0.016111
-0.00792847
-0.0167938
-0.0103224
-0.0174548
-0.012914
-0.0182417
-0.0156955
-0.0191764
-0.0186581
-0.0202183
-0.0217843
-0.0213008
-0.0250413
-0.0223428
-0.0283776
-0.0232485
-0.0317194
-0.0239048
-0.0349707
-0.0241808
-0.0380147
-0.0239318
-0.0407183
-0.0230048
-0.0429387
-0.021246
-0.0445331
-0.018508
-0.0453701
-0.0146597
-0.0453218
-0.009597
-0.0442972
-0.00319616
-0.0422183
0.00417771
0.0129391
-0.0390528
-0.000414485
-0.00369523
-0.00147171
-0.00861256
-0.00303576
-0.0115729
-0.00498745
-0.0131186
-0.00723982
-0.0138586
-0.0097433
-0.0142903
-0.0124783
-0.0147198
-0.0154425
-0.0152774
-0.0186399
-0.015979
-0.0220719
-0.0167863
-0.0257322
-0.0176405
-0.0296016
-0.0184734
-0.0336435
-0.0192067
-0.0377995
-0.0197488
-0.0419864
-0.0199938
-0.0460955
-0.0198227
-0.0499929
-0.0191074
-0.0535226
-0.0177163
-0.0565125
-0.0155181
-0.0587875
-0.0123847
-0.0601806
-0.00820391
-0.0605102
-0.00286654
-0.05965
0.00331749
0.0107583
-0.0574692
-0.000542768
-0.00315246
-0.00182542
-0.00732991
-0.00362464
-0.00977371
-0.00578386
-0.0109594
-0.00820888
-0.0114336
-0.0108555
-0.0116436
-0.0137106
-0.0118647
-0.0167745
-0.0122135
-0.0200493
-0.0127043
-0.0235328
-0.0133027
-0.0272155
-0.0139578
-0.0310771
-0.0146118
-0.0350832
-0.0152005
-0.0391818
-0.0156502
-0.0432988
-0.0158768
-0.0473356
-0.0157859
-0.0511675
-0.0152755
-0.0546441
-0.0142397
-0.0575866
-0.0125756
-0.0597968
-0.0101745
-0.0610695
-0.00693123
-0.0611865
-0.00274947
-0.0600758
0.00220678
0.00802359
-0.0573411
-0.000629066
-0.0025234
-0.00205458
-0.00590439
-0.00398789
-0.0078404
-0.00624271
-0.00870462
-0.00871566
-0.00896061
-0.0113611
-0.00899823
-0.0141638
-0.009062
-0.017118
-0.00925936
-0.0202145
-0.00960771
-0.0234362
-0.0100811
-0.0267558
-0.0106382
-0.0301352
-0.0112324
-0.0335235
-0.0118122
-0.0368548
-0.0123189
-0.0400468
-0.0126848
-0.0429973
-0.0128353
-0.0455843
-0.0126886
-0.0476611
-0.0121629
-0.0490583
-0.0111784
-0.0495748
-0.00965803
-0.0489597
-0.00754634
-0.0469312
-0.004778
-0.0435374
-0.00118696
0.00257405
-0.0380879
-0.000675508
-0.00184789
-0.00217015
-0.00440975
-0.00415235
-0.00585821
-0.00641361
-0.00644335
-0.00884024
-0.00653398
-0.0113805
-0.00645795
-0.0140127
-0.00642987
-0.0167207
-0.00655133
-0.019481
-0.00684736
-0.0222573
-0.00730484
-0.024999
-0.00789647
-0.0276417
-0.00858968
-0.0301069
-0.009347
-0.0323021
-0.0101237
-0.0341206
-0.0108664
-0.0354426
-0.0115133
-0.0361346
-0.0119966
-0.0360501
-0.0122474
-0.0350226
-0.0122059
-0.0328739
-0.0118067
-0.0294471
-0.0109732
-0.0242109
-0.0100142
-0.0175092
-0.0078887
-0.00661079
-0.00832432
-0.000685126
-0.00116276
-0.00218259
-0.00291229
-0.00413916
-0.00390164
-0.00633124
-0.00425128
-0.008634
-0.00423121
-0.0109858
-0.0041061
-0.0133541
-0.0040616
-0.0157094
-0.00419601
-0.0180109
-0.00454587
-0.0202003
-0.00511549
-0.0222006
-0.00589613
-0.0239176
-0.00687271
-0.0252412
-0.00802336
-0.0260484
-0.00931646
-0.0262062
-0.0107086
-0.0255746
-0.0121449
-0.0240093
-0.0135619
-0.0213627
-0.014894
-0.0174957
-0.0160729
-0.01219
-0.0171124
-0.00545404
-0.0177091
0.00318353
-0.0186517
0.0134187
-0.0181239
-0.0200664
0.0268743
-0.000658581
-0.000504181
-0.0020933
-0.00147757
-0.00394848
-0.00204646
-0.00599092
-0.00220883
-0.00808211
-0.00214002
-0.0101437
-0.00204447
-0.0121235
-0.00208187
-0.0139684
-0.00235109
-0.0156093
-0.00290495
-0.0169543
-0.00377051
-0.0178884
-0.00496205
-0.0182773
-0.00648376
-0.0179736
-0.00832706
-0.016824
-0.0104661
-0.014677
-0.0128555
-0.0113882
-0.0154337
-0.00682998
-0.0181201
-0.00088142
-0.0208426
0.00653567
-0.02349
0.0155945
-0.0261712
0.0261226
-0.0282372
0.0388397
-0.0313689
0.0525558
-0.03184
-0.0369789
0.0694683
-0.000594412
9.02311e-05
-0.00189495
-0.000177029
-0.00356006
-0.000381351
-0.00534985
-0.000419043
-0.00710593
-0.000383946
-0.00872109
-0.000429311
-0.0101073
-0.000695697
-0.0111709
-0.00128747
-0.0117952
-0.00228065
-0.0118373
-0.00372837
-0.0111325
-0.0056669
-0.0095045
-0.00811174
-0.00677907
-0.0110525
-0.00279825
-0.0144469
0.00256715
-0.0182209
0.0094098
-0.0222764
0.0177793
-0.0264896
0.0277018
-0.0307651
0.0391492
-0.0349374
0.0521137
-0.0391357
0.0665041
-0.0426276
0.082351
-0.0472157
0.0994174
-0.0489064
-0.0554133
0.117852
-0.0004946
0.000584831
-0.0015829
0.000911271
-0.00295351
0.000989255
-0.00436049
0.000987939
-0.00561782
0.000873391
-0.00657527
0.000528139
-0.0070886
-0.00018237
-0.00701511
-0.00136095
-0.00617508
-0.00312068
-0.00437576
-0.00552769
-0.00141721
-0.00862545
0.00288377
-0.0124127
0.00867228
-0.016841
0.0160386
-0.0218133
0.0250054
-0.0271877
0.0355334
-0.0328044
0.0475149
-0.0384711
0.0608045
-0.0440547
0.0752442
-0.0493771
0.0905428
-0.0544343
0.106812
-0.0588964
0.123166
-0.0635704
0.140719
-0.0664595
-0.0720751
0.157381
-0.000362226
0.000947057
-0.00116828
0.00171732
-0.00214066
0.00196164
-0.00302615
0.00187343
-0.00360416
0.0014514
-0.00367321
0.000597185
-0.00303874
-0.000816838
-0.00148047
-0.00291923
0.00122002
-0.00582117
0.00528083
-0.0095885
0.0108795
-0.0142242
0.0181321
-0.0196653
0.0270658
-0.0257747
0.0376068
-0.0323543
0.049585
-0.0391658
0.0627541
-0.0459736
0.0768088
-0.0525258
0.0914413
-0.0586872
0.10632
-0.0642558
0.121133
-0.0692472
0.135821
-0.0735847
0.149635
-0.0773844
0.163676
-0.0805009
-0.0838317
0.175433
-0.000217407
-0.000695261
-0.00118828
-0.00143361
-0.00117507
-0.000155057
0.00188149
0.00519637
0.0100234
0.0165371
0.0248156
0.0348046
0.0463111
0.0590196
0.0725292
0.0863943
0.100189
0.113525
0.126093
0.137736
0.148277
0.157811
0.16658
0.174303
-0.000870072
0.0374129
-0.0459001
0.00804385
0.0600494
-0.0689633
0.0176208
0.082368
-0.091945
0.0268421
0.103594
-0.112815
0.0346016
0.121898
-0.129658
0.0393389
0.136478
-0.141215
0.040103
0.147465
-0.148229
0.0376033
0.155929
-0.15343
0.0353138
0.160609
-0.158319
0.0379077
0.156801
-0.159395
0.0477027
0.139183
-0.148978
0.0628408
0.10593
-0.121068
0.0796982
0.0592581
-0.0761156
0.0961031
0.00193773
-0.0183426
0.111755
-0.0596448
0.0439925
0.125854
-0.114809
0.10071
0.137197
-0.151388
0.140045
0.144418
-0.167851
0.16063
0.148212
-0.17264
0.168846
0.151036
-0.171418
0.168593
0.153634
-0.166713
0.164116
0.154341
-0.168878
0.168171
0.152085
-0.189065
0.191321
0.148722
-0.216592
0.219956
0.147926
-0.215144
0.215939
0.151748
-0.153547
0.149726
0.159209
-0.0410765
0.0336149
0.166688
0.0816526
-0.0891315
0.171001
0.179435
-0.183748
0.172309
0.238055
-0.239363
0.172601
0.255776
-0.256068
0.170813
0.257964
-0.256176
0.165017
0.280874
-0.275078
0.15622
0.319488
-0.310691
0.146353
0.324983
-0.315116
0.136082
0.262443
-0.252172
0.126597
0.135897
-0.126412
0.119941
-0.0221974
0.028854
0.11784
-0.168173
0.170274
0.118795
-0.265214
0.264259
0.116907
-0.315507
0.317395
0.109627
-0.34084
0.348121
0.0998291
-0.343447
0.353244
0.0913748
-0.300433
0.308887
0.0875367
-0.209251
0.213089
0.0905732
-0.086721
0.0836844
0.0995507
0.0307292
-0.0397066
0.110239
0.123065
-0.133753
0.119351
0.180628
-0.18974
0.126376
0.213617
-0.220642
0.130727
0.220873
-0.225225
0.130094
0.227085
-0.226451
0.126309
0.220368
-0.216583
0.124809
0.204011
-0.20251
0.128858
0.142144
-0.146193
0.137147
0.0758312
-0.08412
0.145236
0.000392065
-0.00848178
0.151464
-0.0503152
0.0440873
0.154524
-0.0857974
0.0827373
-0.120384
0.12002
-0.0296349
0.027995
-0.0192125
0.049627
-0.00808572
0.0712412
0.00270792
0.0928005
0.012676
0.11193
0.0200375
0.129116
0.0252803
0.142222
0.0301019
0.151108
0.0375286
0.153182
0.0498322
0.144497
0.0667183
0.122297
0.0850785
0.0875698
0.101734
0.0426027
0.115696
-0.0120247
0.12766
-0.0716089
0.137197
-0.124345
0.143978
-0.158169
0.147496
-0.171369
0.148189
-0.173333
0.148386
-0.171614
0.148939
-0.167267
0.147622
-0.167561
0.14274
-0.184184
0.136513
-0.210365
0.13388
-0.212511
0.137807
-0.157474
0.147591
-0.0508608
0.158658
0.0705857
0.166677
0.171416
0.171544
0.233188
0.174803
0.252517
0.17559
0.257177
0.172681
0.283783
0.166516
0.325653
0.1578
0.333699
0.147002
0.273241
0.135495
0.147403
0.125748
-0.0124502
0.120172
-0.162596
0.118849
-0.263892
0.116217
-0.312875
0.108669
-0.333292
0.0990372
-0.333815
0.0914514
-0.292847
0.0887455
-0.206545
0.0924828
-0.0904583
0.101461
0.0217509
0.111591
0.112935
0.120488
0.171731
0.127558
0.206548
0.131305
0.217126
0.12962
0.228769
0.125378
0.22461
0.124422
0.204966
0.12937
0.137197
0.13833
0.0668705
0.146681
-0.00795887
0.152917
-0.0565509
0.155838
-0.0887184
-0.120616
-0.048865
0.0193909
-0.038243
0.0390049
-0.0264668
0.0594651
-0.0139688
0.0803025
-0.00180719
0.0997688
0.0102155
0.117094
0.0221515
0.130286
0.035094
0.138165
0.0505815
0.137694
0.0692727
0.125806
0.0896827
0.101887
0.108357
0.0688954
0.122854
0.0281058
0.13363
-0.0228009
0.1419
-0.079879
0.147329
-0.129774
0.149886
-0.160726
0.149937
-0.17142
0.147859
-0.171255
0.145559
-0.169314
0.144211
-0.165919
0.141347
-0.164696
0.134368
-0.177204
0.125438
-0.201435
0.12087
-0.207943
0.124922
-0.161525
0.136289
-0.0622282
0.150389
0.0564853
0.162047
0.159759
0.170442
0.224794
0.176677
0.246282
0.180228
0.253626
0.18042
0.283591
0.177111
0.328962
0.16979
0.341021
0.158518
0.284512
0.145017
0.160905
0.132298
0.000269341
0.123305
-0.153604
0.119479
-0.260065
0.116063
-0.309459
0.108367
-0.325596
0.0987667
-0.324215
0.0918453
-0.285926
0.0900884
-0.204788
0.0943257
-0.0946956
0.103134
0.0129426
0.112816
0.103253
0.121694
0.162853
0.128765
0.199477
0.131764
0.214128
0.129063
0.23147
0.124512
0.229161
0.124177
0.205301
0.129976
0.131397
0.13953
0.0573168
0.148096
-0.0165247
0.154334
-0.0627889
0.157137
-0.0915217
-0.120745
-0.0505178
0.0125676
-0.0409526
0.0294397
-0.0294438
0.0479562
-0.015827
0.0666857
-0.00157387
0.0855156
0.0147624
0.100757
0.0318629
0.113186
0.0503271
0.119701
0.0703758
0.117646
0.091712
0.10447
0.112522
0.0810766
0.129646
0.0517714
0.141427
0.0163248
0.149316
-0.0306896
0.154632
-0.0851954
0.156663
-0.131804
0.155318
-0.159382
0.152013
-0.168115
0.147488
-0.166731
0.142868
-0.164694
0.139608
-0.162659
0.135548
-0.160637
0.127229
-0.168886
0.116127
-0.190333
0.109303
-0.201119
0.112748
-0.16497
0.125369
-0.0748489
0.141832
0.0400218
0.156702
0.144888
0.168547
0.212949
0.177801
0.237027
0.184249
0.247178
0.187757
0.280083
0.187417
0.329301
0.181568
0.34687
0.169989
0.296091
0.154811
0.176083
0.139402
0.0156787
0.127199
-0.141401
0.120655
-0.253521
0.116336
-0.30514
0.10866
-0.31792
0.0989834
-0.314539
0.092422
-0.279364
0.0914113
-0.203777
0.0959718
-0.0992562
0.10452
0.00439444
0.113935
0.0938387
0.12296
0.153827
0.129955
0.192482
0.13211
0.211974
0.128468
0.235111
0.123747
0.233882
0.12407
0.204978
0.130651
0.124816
0.14071
0.0472576
0.149451
-0.025265
0.155695
-0.0690329
0.15841
-0.0942366
-0.120805
-0.0330351
0.00751481
-0.0251704
0.021575
-0.0148615
0.0376473
-0.00197007
0.0537943
0.0145495
0.068996
0.0323231
0.0829837
0.0516788
0.0938302
0.0721039
0.0992758
0.0930492
0.0967005
0.11378
0.0837388
0.13257
0.0622866
0.14716
0.0371811
0.156983
0.00650177
0.163172
-0.0368784
0.165912
-0.0879356
0.164483
-0.130375
0.159382
-0.154281
0.153019
-0.161752
0.146545
-0.160256
0.140152
-0.158301
0.135161
-0.157667
0.130304
-0.155781
0.121373
-0.159955
0.108574
-0.177533
0.0992739
-0.191819
0.101184
-0.16688
0.11412
-0.0877848
0.132478
0.0216644
0.150361
0.127005
0.165533
0.197777
0.177695
0.224865
0.187111
0.237762
0.19409
0.273104
0.197103
0.326288
0.193433
0.35054
0.181987
0.307537
0.165055
0.193015
0.146947
0.0337871
0.131768
-0.126222
0.122394
-0.244147
0.11692
-0.299667
0.109397
-0.310397
0.0996443
-0.304786
0.0930542
-0.272774
0.0924773
-0.2032
0.0972353
-0.104014
0.105582
-0.00395199
0.114967
0.0844532
0.124257
0.144538
0.13109
0.185648
0.132359
0.210705
0.127881
0.239589
0.123108
0.238655
0.124093
0.203993
0.131363
0.117546
0.141838
0.0367832
0.15072
-0.0341477
0.156983
-0.0752953
0.159645
-0.0968989
-0.120832
-0.00362066
0.00281116
0.0033789
0.0145754
0.0133941
0.0276322
0.0262579
0.0409305
0.0412299
0.054024
0.0583328
0.0658808
0.077175
0.0749879
0.0968155
0.0796353
0.116155
0.0773609
0.134136
0.0657584
0.149304
0.0471178
0.160638
0.0258473
0.168956
-0.0018157
0.174077
-0.0419997
0.174754
-0.0886123
0.170269
-0.12589
0.162062
-0.146074
0.153129
-0.152819
0.14515
-0.152276
0.137567
-0.150719
0.131025
-0.151125
0.125497
-0.150252
0.116855
-0.151313
0.10325
-0.163929
0.0913147
-0.179884
0.0906314
-0.166197
0.102863
-0.100016
0.122466
0.00206135
0.142961
0.106509
0.161097
0.179641
0.176008
0.209954
0.188358
0.225413
0.19876
0.262701
0.205137
0.319912
0.203738
0.351939
0.193085
0.31819
0.175127
0.210972
0.15468
0.0542342
0.136811
-0.108353
0.124617
-0.231952
0.11772
-0.29277
0.110422
-0.303099
0.100729
-0.295092
0.093741
-0.265786
0.0931608
-0.20262
0.0980345
-0.108888
0.106297
-0.0122146
0.115928
0.0748225
0.125553
0.134912
0.132147
0.179055
0.132537
0.210315
0.127343
0.244783
0.122615
0.243383
0.124232
0.202376
0.132082
0.109695
0.142885
0.0259806
0.151887
-0.0431497
0.158187
-0.0815957
0.160837
-0.0995488
-0.120863
0.030922
-0.00123653
0.0368311
0.00866635
0.0451948
0.0192684
0.0562618
0.0298635
0.0695687
0.0407172
0.0848725
0.0505769
0.101801
0.0580596
0.119298
0.0621378
0.136006
0.060653
0.150675
0.0510901
0.162335
0.0354571
0.171206
0.0169768
0.178403
-0.00901275
0.182565
-0.0461621
0.181051
-0.087098
0.173738
-0.118577
0.163118
-0.135454
0.152255
-0.141956
0.14312
-0.143141
0.134939
-0.142539
0.127336
-0.143522
0.121055
-0.143971
0.113102
-0.14336
0.0998264
-0.150653
0.0857121
-0.165769
0.0815494
-0.162034
0.0919523
-0.110419
0.111927
-0.0179131
0.134552
0.0838839
0.155343
0.15885
0.172742
0.192554
0.187724
0.210431
0.201548
0.248877
0.211715
0.309746
0.213408
0.350245
0.204226
0.327372
0.185855
0.229344
0.162882
0.0772076
0.142283
-0.087754
0.127275
-0.216945
0.118671
-0.284167
0.111525
-0.295953
0.102151
-0.285718
0.0945946
-0.25823
0.0935288
-0.201554
0.0983546
-0.113713
0.106732
-0.0205925
0.116807
0.0647482
0.126794
0.124925
0.1331
0.172748
0.132668
0.210747
0.126887
0.250565
0.122277
0.247993
0.124467
0.200186
0.132784
0.101379
0.143833
0.0149315
0.15294
-0.0522576
0.159303
-0.087958
0.161982
-0.102228
-0.120937
0.0692346
-0.00100277
0.0713357
0.00656529
0.0762006
0.0144034
0.0839924
0.0220718
0.0943834
0.0303261
0.106966
0.0379948
0.121221
0.0438046
0.136164
0.0471948
0.150426
0.0463906
0.16264
0.0388764
0.17226
0.0258364
0.180045
0.00919243
0.186458
-0.0154259
0.188985
-0.0486891
0.184793
-0.0829065
0.174797
-0.108581
0.162441
-0.123098
0.150458
-0.129973
0.140511
-0.133194
0.132098
-0.134126
0.123953
-0.135377
0.117048
-0.137066
0.109941
-0.136252
0.098042
-0.138755
0.0827679
-0.150495
0.0746698
-0.153936
0.081942
-0.117691
0.101108
-0.0370791
0.125215
0.0597773
0.14808
0.135985
0.16755
0.173085
0.184965
0.193017
0.201791
0.23205
0.215266
0.29627
0.219983
0.345529
0.212701
0.334654
0.194711
0.247333
0.170791
0.101128
0.147837
-0.0647997
0.13018
-0.199288
0.119732
-0.273718
0.112564
-0.288785
0.10377
-0.276924
0.0957349
-0.250195
0.0937889
-0.199608
0.0983122
-0.118237
0.10693
-0.0292105
0.117573
0.0541052
0.127938
0.11456
0.133958
0.166729
0.132794
0.211911
0.126547
0.256812
0.122099
0.252441
0.124781
0.197504
0.133452
0.0927076
0.144671
0.00371275
0.15388
-0.0614662
0.16033
-0.0944077
0.163079
-0.104978
-0.121092
0.113601
0.00324832
0.111892
0.0082738
0.112645
0.0136509
0.115887
0.0188291
0.121842
0.024372
0.130211
0.0296255
0.140521
0.0334942
0.152031
0.0356853
0.163619
0.0348023
0.173811
0.0286844
0.181983
0.0176645
0.18868
0.00249575
0.193337
-0.0200828
0.192871
-0.0482237
0.185599
-0.0756338
0.173426
-0.0964083
0.16008
-0.109752
0.147734
-0.117627
0.137337
-0.122797
0.128896
-0.125684
0.120739
-0.12722
0.11322
-0.129547
0.106795
-0.129827
0.0970663
-0.129026
0.0822178
-0.135647
0.0706285
-0.142347
0.0734043
-0.120467
0.0906832
-0.054358
0.115362
0.0350982
0.139807
0.11154
0.161001
0.151891
0.180264
0.173754
0.19985
0.212464
0.217341
0.278779
0.225903
0.336967
0.220951
0.339607
0.203357
0.264927
0.178136
0.126348
0.153105
-0.0397687
0.133157
-0.179339
0.120827
-0.261389
0.113403
-0.281362
0.105363
-0.268884
0.0971756
-0.242007
0.0941907
-0.196624
0.0981167
-0.122163
0.106955
-0.0380492
0.118208
0.0428526
0.128926
0.103842
0.134674
0.16098
0.132907
0.213678
0.126329
0.263389
0.12207
0.2567
0.125156
0.194418
0.134082
0.0837811
0.145403
-0.00760837
0.154711
-0.0707744
0.161272
-0.100969
0.16413
-0.107835
-0.121363
0.153089
0.00754011
0.150695
0.0106681
0.149961
0.014385
0.150619
0.0181708
0.153264
0.0217269
0.157869
0.0250212
0.163999
0.0273636
0.171349
0.028336
0.179246
0.0269051
0.186396
0.0215342
0.192065
0.0119952
0.196448
-0.00188736
0.197428
-0.021062
0.193012
-0.0438079
0.182984
-0.0656057
0.169663
-0.0830877
0.156176
-0.0962649
0.144125
-0.105576
0.133633
-0.112305
0.125137
-0.117189
0.117404
-0.119487
0.109602
-0.121745
0.103306
-0.123531
0.0959819
-0.121702
0.0832183
-0.122883
0.0696813
-0.12881
0.067418
-0.118204
0.0811511
-0.0680912
0.104945
0.0113047
0.130184
0.0863003
0.152543
0.129532
0.173126
0.153172
0.1946
0.19099
0.214749
0.25863
0.227029
0.324686
0.225757
0.340878
0.209893
0.280792
0.184428
0.151813
0.158074
-0.0134147
0.136025
-0.157291
0.121797
-0.24716
0.113887
-0.273452
0.106662
-0.261659
0.0987582
-0.234104
0.0948857
-0.192751
0.0979973
-0.125274
0.10688
-0.0469313
0.118664
0.031068
0.129724
0.0927821
0.13532
0.155385
0.133107
0.215892
0.12628
0.270216
0.122189
0.26079
0.125582
0.191026
0.13466
0.0747029
0.146057
-0.0190056
0.155447
-0.0801643
0.162139
-0.10766
0.165137
-0.110833
-0.121783
0.173041
0.00993209
0.171958
0.011751
0.171951
0.014392
0.172884
0.0172377
0.174855
0.0197564
0.178149
0.0217264
0.182248
0.0232651
0.186905
0.0236787
0.191691
0.022119
0.195665
0.01756
0.198012
0.0096489
0.198386
-0.00226152
0.195627
-0.0183034
0.188062
-0.0362421
0.1767
-0.0542438
0.163601
-0.0699887
0.150738
-0.0834023
0.139393
-0.094231
0.129224
-0.102135
0.120623
-0.108588
0.113459
-0.112323
0.105933
-0.114219
0.0993931
-0.116991
0.0939126
-0.116222
0.0844372
-0.113408
0.0712728
-0.115645
0.0647551
-0.111686
0.0736617
-0.0769977
0.0955659
-0.0105995
0.120879
0.0609873
0.143877
0.106534
0.165283
0.131766
0.188431
0.167842
0.212026
0.235035
0.228287
0.308425
0.229573
0.339593
0.214773
0.295592
0.189511
0.177075
0.161707
0.0143896
0.138469
-0.134053
0.122621
-0.231312
0.114062
-0.264892
0.107585
-0.255182
0.100322
-0.226841
0.0959046
-0.188334
0.0981312
-0.127501
0.106828
-0.055628
0.118985
0.0189104
0.130324
0.0814436
0.135762
0.149946
0.133218
0.218435
0.126312
0.277122
0.122429
0.264674
0.126052
0.187403
0.135211
0.0655436
0.146641
-0.0304358
0.156104
-0.0896269
0.162939
-0.114495
0.166106
-0.114
-0.122382
0.173876
0.0103588
0.173649
0.0119775
0.174237
0.0138047
0.17577
0.0157047
0.178074
0.0174523
0.180998
0.0188018
0.184444
0.0198195
0.188089
0.0200343
0.191411
0.0187966
0.193787
0.0151837
0.194688
0.0087485
0.193282
-0.000855987
0.188448
-0.0134694
0.180155
-0.0279488
0.169333
-0.0434218
0.157493
-0.0581487
0.145607
-0.0715167
0.134921
-0.0835446
0.125288
-0.0925029
0.116561
-0.0998607
0.109713
-0.105474
0.10293
-0.107436
0.0960412
-0.110102
0.0913379
-0.111518
0.0851958
-0.107266
0.0743767
-0.104826
0.0658327
-0.103142
0.069595
-0.08076
0.0861627
-0.0271672
0.109697
0.0374531
0.132538
0.0836929
0.153805
0.110499
0.17689
0.144757
0.2021
0.209824
0.222789
0.287737
0.2303
0.332081
0.219746
0.306147
0.194963
0.201857
0.166547
0.0428054
0.141586
-0.109092
0.124061
-0.213787
0.114607
-0.255438
0.108574
-0.24915
0.101979
-0.220246
0.0972847
-0.18364
0.0986908
-0.128907
0.106913
-0.06385
0.119126
0.00669735
0.13064
0.0699298
0.136204
0.144383
0.133659
0.22098
0.126635
0.284146
0.122786
0.268523
0.126583
0.183606
0.135779
0.0563477
0.147189
-0.0418464
0.156708
-0.0991454
0.163687
-0.121475
0.167042
-0.117355
-0.123189
0.187451
0.0113111
-0.188403
0.18723
0.0121986
0.187564
0.013471
0.188448
0.0148208
0.189896
0.0160039
0.191817
0.0168804
0.194374
0.0172631
0.197643
0.0167652
0.201496
0.0149435
0.205542
0.0111378
0.209152
0.00513819
0.211696
-0.00340006
0.212537
-0.0143102
0.211175
-0.0265863
0.207667
-0.0399144
0.202635
-0.0531169
0.196209
-0.06509
0.188974
-0.0763101
0.181337
-0.0848656
0.172842
-0.0913657
0.164704
-0.0973365
0.156729
-0.0994618
0.147447
-0.10082
0.139042
-0.103114
0.131114
-0.0993377
0.118808
-0.0925198
0.102851
-0.0871848
0.0910377
-0.0689471
0.0898627
-0.0259922
0.0987302
0.0285856
0.113118
0.0693051
0.127941
0.0956756
0.141418
0.13128
0.154438
0.196804
0.167152
0.275022
0.177058
0.322176
0.181162
0.302043
0.180209
0.20281
0.176096
0.046918
0.169711
-0.102706
0.159859
-0.203935
0.149487
-0.245065
0.138824
-0.238487
0.126548
-0.207969
0.114761
-0.171853
0.108252
-0.122398
0.109286
-0.0648842
0.115571
0.000412396
0.12162
0.0638807
0.122285
0.143718
0.116662
0.226603
0.110087
0.290721
0.109841
0.268768
0.117643
0.175804
0.128806
0.0451847
0.139859
-0.052899
0.147645
-0.106931
0.152374
-0.126204
0.153648
-0.118629
-0.122171
0.198561
0.0118688
-0.199119
0.198452
0.012308
0.19887
0.0130529
0.199824
0.0138663
0.201311
0.0145174
0.203333
0.0148588
0.205906
0.0146901
0.208974
0.013697
0.212294
0.0116231
0.215503
0.00792938
0.218269
0.00237164
0.219902
-0.00503271
0.220036
-0.0144448
0.218451
-0.0250006
0.215016
-0.0364801
0.210102
-0.048202
0.203819
-0.0588072
0.196404
-0.068895
0.188651
-0.0771133
0.180317
-0.0830314
0.171939
-0.0889587
0.164154
-0.0916763
0.155318
-0.0919837
0.146233
-0.0940286
0.138084
-0.0911889
0.127348
-0.0817842
0.113267
-0.0731037
0.102171
-0.0578504
0.100415
-0.0242367
0.108908
0.0200922
0.122627
0.0555863
0.136731
0.0815722
0.14985
0.11816
0.163471
0.183184
0.177927
0.260566
0.189878
0.310224
0.194786
0.297135
0.193954
0.203642
0.191002
0.0498698
0.184175
-0.0958795
0.173011
-0.192771
0.161232
-0.233286
0.149775
-0.22703
0.137158
-0.195353
0.125214
-0.159909
0.118524
-0.115707
0.119527
-0.0658875
0.125789
-0.00584941
0.131401
0.058269
0.131021
0.144097
0.124342
0.233282
0.117581
0.297482
0.117992
0.268358
0.126675
0.167121
0.138552
0.0333078
0.150002
-0.0643485
0.157845
-0.114775
0.162494
-0.130853
0.163596
-0.119731
-0.120944
0.210376
0.0123099
-0.210818
0.21026
0.0124245
0.210618
0.0126945
0.211483
0.0130012
0.212833
0.0131683