/*--------------------------------*- C++ -*----------------------------------*\
| =========                 |                                                 |
| \\      /  F ield         | OpenFOAM: The Open Source CFD Toolbox           |
|  \\    /   O peration     | Version:  2312                                  |
|   \\  /    A nd           | Website:  www.openfoam.com                      |
|    \\/     M anipulation  |                                                 |
\*---------------------------------------------------------------------------*/
FoamFile
{
    version     2.0;
    format      ascii;
    arch        "LSB;label=32;scalar=64";
    class       volScalarField;
    location    "1";
    object      p;
}
// * * * * * * * * * * * * * * * * * * * * * * * * * * * * * * * * * * * * * //

dimensions      [0 2 -2 0 0 0 0];

internalField   nonuniform List<scalar> 
2300
(
-0.586982
-0.520617
-0.390275
-0.272504
-0.187883
-0.131705
-0.0921822
-0.0650844
-0.0429356
-0.0255074
-0.715798
-0.629939
-0.480469
-0.349085
-0.253384
-0.185358
-0.136444
-0.0993933
-0.0716399
-0.0520665
-0.83372
-0.71431
-0.54967
-0.407775
-0.303394
-0.226706
-0.169546
-0.125746
-0.0916228
-0.0642542
-0.929134
-0.766784
-0.59009
-0.440556
-0.331249
-0.249447
-0.187945
-0.140383
-0.103172
-0.0725421
-0.984317
-0.780274
-0.592775
-0.440012
-0.331274
-0.249183
-0.186843
-0.139337
-0.102199
-0.07106
-0.0013984
0.0361354
0.0794149
0.122889
0.134693
0.126963
0.11286
0.0982525
0.0843854
0.0719295
-0.0576595
-0.016606
0.0333633
0.0847327
0.105458
0.104722
0.0955969
0.0854955
0.0749992
0.0650445
-0.166716
-0.118569
-0.0557777
0.00901491
0.0454964
0.057795
0.058508
0.0567446
0.0524452
0.0472372
-0.301511
-0.250463
-0.168886
-0.0866681
-0.0325056
-0.00479922
0.00884663
0.0165239
0.0199529
0.020536
-0.448777
-0.391035
-0.284273
-0.183706
-0.113088
-0.0704517
-0.0426973
-0.0254035
-0.0123487
-0.00736396
0.0597408
0.0498776
0.0416349
0.0358871
0.0317719
0.0287053
0.0265009
0.0249033
0.0237388
0.0228891
0.0222455
0.0217385
0.021317
0.0209385
0.0205593
0.0201361
0.0196261
0.018984
0.0181467
0.0170269
0.0155087
0.0134926
0.010839
0.00735696
0.00269893
0.0561144
0.0481512
0.041075
0.0365805
0.0328218
0.0297419
0.0275391
0.0259204
0.0247014
0.0237744
0.0230524
0.022467
0.0219648
0.021503
0.0210414
0.0205383
0.0199501
0.0192275
0.0183008
0.0170757
0.0154507
0.0133546
0.01067
0.00719234
0.00260229
0.0426725
0.0394397
0.0363577
0.0339788
0.0307946
0.0286992
0.0269553
0.0256591
0.0248536
0.0241978
0.0235715
0.022999
0.0224837
0.0219949
0.021495
0.0209441
0.0202994
0.019511
0.0185055
0.0171667
0.015434
0.0132817
0.0105688
0.00708519
0.00254028
0.0232016
0.0292307
0.0332498
0.034558
0.0333396
0.0307249
0.0292432
0.0277061
0.0263039
0.0252427
0.024464
0.0238236
0.0232286
0.0226449
0.0220414
0.0213836
0.020633
0.019745
0.0186524
0.017264
0.0154674
0.013293
0.0105602
0.00706124
0.00252641
-0.00516071
0.00598644
0.0179891
0.0251073
0.0271593
0.0277229
0.0274811
0.0269412
0.0263706
0.0256579
0.0249639
0.0243225
0.0237018
0.0230775
0.0224217
0.0217059
0.0208998
0.0199666
0.0188509
0.0174453
0.0157563
0.0136181
0.0108563
0.00728908
0.00262897
-0.0102185
-0.0041361
0.0107798
0.0217308
0.0258905
0.0272752
0.0274648
0.0273938
0.026882
0.0262537
0.0256259
0.0250057
0.0243674
0.0237026
0.0229959
0.0222243
0.0213607
0.0203686
0.0192002
0.0178563
0.0162017
0.0140412
0.0112215
0.00757332
0.00277405
-0.010957
-0.00794791
0.00767088
0.0192301
0.0232971
0.0249686
0.0262176
0.0270388
0.0271005
0.0267992
0.0263136
0.0257327
0.0250922
0.0243932
0.0236299
0.0227922
0.0218609
0.0208088
0.0196071
0.0182278
0.0165242
0.014324
0.0114632
0.0077643
0.00286195
-0.00635361
-0.0073849
0.00671617
0.0180797
0.0223168
0.024303
0.0260369
0.0269993
0.0273572
0.0273066
0.0269882
0.0264941
0.0258766
0.0251604
0.0243569
0.0234652
0.0224731
0.0213597
0.0200975
0.0186406
0.0168607
0.0146002
0.0116835
0.007925
0.00293078
0.00200834
-0.00290444
0.00835308
0.0185939
0.0226201
0.0244884
0.0262254
0.0274825
0.0280084
0.0280818
0.0278487
0.0273975
0.0267854
0.0260456
0.0251965
0.0242443
0.023184
0.0219999
0.0206639
0.0191232
0.0172641
0.0149352
0.0119513
0.00811904
0.00301521
0.0112587
0.00376954
0.0121843
0.0208786
0.0241915
0.0256067
0.0270596
0.0282646
0.0288846
0.0290509
0.0288829
0.028458
0.0278368
0.0270596
0.0261521
0.0251275
0.0239876
0.022722
0.0213034
0.0196763
0.0177346
0.0153306
0.0122706
0.00835135
0.00311587
0.0209792
0.0119646
0.0178136
0.0248134
0.0271923
0.0279456
0.0290196
0.029879
0.0303256
0.0304106
0.0301996
0.0297384
0.0290697
0.028229
0.027243
0.0261294
0.0248958
0.0235365
0.0220259
0.0203076
0.0182789
0.0157925
0.0126463
0.0086254
0.00323479
0.0305393
0.0206473
0.0243961
0.0298413
0.0312569
0.0312562
0.0316719
0.0321239
0.0323005
0.0322033
0.0318617
0.031295
0.0305273
0.0295842
0.0284896
0.0272632
0.025917
0.0244497
0.0228381
0.0210245
0.0189059
0.0163315
0.0130885
0.00894937
0.00337758
0.0394635
0.0291775
0.0313315
0.0355062
0.0360887
0.0353835
0.0351567
0.0350952
0.0348831
0.034494
0.0339286
0.0331794
0.0322498
0.0311528
0.0299078
0.0285354
0.0270519
0.0254608
0.0237403
0.0218307
0.0196234
0.0169583
0.0136083
0.00933127
0.00355149
0.0482384
0.0381118
0.0392607
0.0425919
0.0426209
0.0413448
0.040469
0.0397645
0.0389557
0.0380249
0.0369763
0.035804
0.0345094
0.0331012
0.031593
0.0299995
0.0283325
0.0265905
0.0247483
0.022741
0.0204483
0.0176911
0.0142213
0.00977821
0.00376764
0.0525204
0.0417851
0.0415082
0.0436598
0.042924
0.0410164
0.0395688
0.0384146
0.0373038
0.036217
0.0351539
0.0340989
0.0330347
0.0319439
0.0308059
0.0295963
0.0282874
0.0268467
0.0252324
0.0233778
0.0211663
0.0184127
0.0148606
0.0102334
0.00401846
0.0704684
0.0612285
0.0604401
0.0621994
0.0614222
0.0594041
0.0576445
0.0560454
0.0543962
0.0526863
0.0509222
0.0490938
0.0471864
0.0451814
0.043053
0.0407652
0.0382729
0.0355251
0.032473
0.0290796
0.0253217
0.0211695
0.0165479
0.0111625
0.00456415
0.0535059
0.0439192
0.043076
0.044593
0.0436901
0.041587
0.0396956
0.0379533
0.0361762
0.0343604
0.0325197
0.0306538
0.0287605
0.0268379
0.0248837
0.0228937
0.0208598
0.0187684
0.0166019
0.0143464
0.0120113
0.0096327
0.00735055
0.00489954
0.00306395
0.0963572
0.0873886
0.0837343
0.0829666
0.0809412
0.0779985
0.0751958
0.0725708
0.0699973
0.0674676
0.064991
0.0625646
0.0601798
0.0578224
0.0554716
0.0530977
0.0506607
0.0481063
0.0453604
0.0423129
0.0388135
0.0345401
0.0293942
0.021239
0.0120895
0.0569702
0.0503563
0.0488278
0.0493704
0.0484744
0.0466269
0.0447658
0.0428997
0.0409125
0.0387995
0.0365733
0.0342397
0.0318034
0.0292692
0.0266412
0.0239209
0.0211062
0.0181903
0.0151648
0.0120203
0.00880195
0.00548577
0.00303194
-0.000212578
0.00304143
0.0891433
0.0828807
0.0797398
0.0783425
0.0763183
0.0737248
0.0710931
0.0684762
0.0658283
0.063154
0.0604678
0.05778
0.0550975
0.0524232
0.0497543
0.0470788
0.0443719
0.0415861
0.0386419
0.0353534
0.0316333
0.0260059
0.0227214
0.00411875
0.0277657
-0.0447494
-0.0429668
-0.0388129
-0.0332321
-0.0132973
-0.0209402
-0.0174082
-0.0173834
-0.016525
-0.00817407
-0.000862819
0.002888
-0.000697966
-0.00436843
-3.33569e-05
0.01463
0.0182805
0.0131373
0.00808113
0.0114372
0.0282106
0.031745
0.0264055
0.02036
0.0221775
0.0398576
0.0431746
0.0378639
0.0312685
0.0321599
0.0499842
0.0530656
0.0480279
0.0413827
0.041603
0.0588494
0.0617239
0.0570121
0.0505608
0.0502329
0.0666478
0.0693607
0.0650563
0.0589911
0.0583798
0.0729254
0.0753226
0.0710891
0.0651106
0.0634199
0.0839622
0.0858434
0.0826981
0.0783246
0.0782278
0.0740842
0.0766215
0.0730829
0.0674971
0.0641669
0.108201
0.109257
0.10737
0.104658
0.103677
0.073053
0.0736005
0.0710996
0.0669941
0.0638393
0.101741
0.101709
0.100219
0.0978741
0.0951492
0.0643188
0.0633824
0.0564693
0.0457231
0.0285791
0.00417508
-0.0368735
-0.099278
-0.191035
-0.375548
0.0240129
0.0152586
-0.00146766
-0.023659
-0.0547112
-0.0964156
-0.159989
-0.251822
-0.37098
-0.60976
-0.0107987
-0.0278684
-0.0531506
-0.0851116
-0.128459
-0.185023
-0.266746
-0.386274
-0.530169
-0.798423
-0.0394358
-0.0634696
-0.0950624
-0.134251
-0.187258
-0.256445
-0.349536
-0.491381
-0.661741
-0.922934
-0.0589665
-0.0884341
-0.123845
-0.167651
-0.227538
-0.305207
-0.408186
-0.558343
-0.747593
-0.984569
0.207673
0.233891
0.263117
0.297476
0.336531
0.380998
0.430946
0.481177
0.529003
0.565567
0.198888
0.222469
0.247613
0.276653
0.309875
0.347751
0.389279
0.429039
0.46287
0.482245
0.180001
0.19723
0.2158
0.237247
0.261268
0.287766
0.314337
0.335397
0.343389
0.331334
0.151839
0.160034
0.170432
0.182374
0.194271
0.205439
0.212228
0.208693
0.18434
0.123052
0.11262
0.113785
0.116168
0.117223
0.1149
0.108233
0.0918592
0.0595028
0.000313894
-0.121869
0.0610817
0.0616517
0.0632579
0.0655788
0.0683867
0.0721011
0.0768534
0.0828757
0.0902598
0.0997838
0.110956
0.125146
0.141353
0.161114
0.183096
0.064546
0.0645475
0.0662746
0.0684656
0.0711568
0.0747221
0.0792353
0.0849145
0.0919246
0.100503
0.111209
0.123725
0.139414
0.157721
0.176972
0.067998
0.0675513
0.069367
0.0715044
0.0741838
0.0775828
0.0819696
0.0874579
0.0942135
0.102147
0.111885
0.12229
0.135284
0.150368
0.164445
0.071503
0.070727
0.072488
0.0744687
0.0770371
0.0800931
0.0839658
0.0887315
0.0944286
0.100957
0.108634
0.116942
0.126802
0.138986
0.14613
0.075116
0.0740735
0.0755793
0.0773139
0.0796264
0.0826231
0.0864523
0.091088
0.0963679
0.102119
0.10778
0.113549
0.119017
0.124515
0.116889
0.0786343
0.0776095
0.0785633
0.0799035
0.0817747
0.0842703
0.0874486
0.0912135
0.0952628
0.0994357
0.102601
0.105919
0.10517
0.100481
0.0859429
0.0821105
0.0811313
0.0816338
0.0825589
0.0839474
0.0858704
0.088307
0.0910914
0.0938085
0.0963189
0.0971167
0.0975559
0.092939
0.0838715
0.0741122
0.0861328
0.0851243
0.0851329
0.0855542
0.0863731
0.0876262
0.0892164
0.0909141
0.0922117
0.0930405
0.0915524
0.0900047
0.0830029
0.0740243
0.0653327
0.0907904
0.0896659
0.0891335
0.0889504
0.0890928
0.0895592
0.0901875
0.0907048
0.0905641
0.0898087
0.0865321
0.0837002
0.075756
0.0671561
0.0601783
0.0961977
0.094854
0.0937105
0.0928058
0.0921455
0.0917047
0.0912788
0.0905858
0.0891046
0.0870342
0.0825533
0.0791447
0.0711301
0.0635236
0.0584613
0.102507
0.100813
0.0989606
0.0972026
0.0956055
0.0941549
0.0926341
0.0907867
0.0881699
0.0851399
0.0800386
0.0765795
0.0689971
0.0625107
0.059076
0.109912
0.10769
0.105175
0.102322
0.0996186
0.0970676
0.0944549
0.0915718
0.088076
0.084464
0.0792058
0.0759687
0.0690402
0.0635982
0.0614323
0.118772
0.114618
0.109376
0.105927
0.102952
0.0999078
0.0966252
0.0930574
0.089026
0.0851292
0.0799742
0.0770579
0.0708531
0.0663061
0.0650557
0.129614
0.128621
0.125571
0.120214
0.114446
0.108875
0.103547
0.0984687
0.0934662
0.0890242
0.0837521
0.0808397
0.0750734
0.0709891
0.0701368
0.139666
0.129853
0.119049
0.112987
0.10782
0.102915
0.0982361
0.0938268
0.0895853
0.0859979
0.0818155
0.0799126
0.0755037
0.0727025
0.0727684
0.1649
0.162195
0.153624
0.147071
0.13824
0.129901
0.122409
0.115732
0.109647
0.104444
0.0989399
0.0955207
0.0900594
0.0859079
0.0846219
0.170537
0.155804
0.145047
0.128361
0.117845
0.109678
0.102917
0.0972292
0.0923309
0.0884181
0.0844317
0.0823757
0.078547
0.0758583
0.0752335
0.225574
0.20875
0.188715
0.174761
0.163286
0.151955
0.142421
0.134499
0.127838
0.122431
0.117441
0.114146
0.109972
0.106834
0.105491
0.233658
0.203033
0.178235
0.158059
0.140557
0.128089
0.118395
0.110561
0.104071
0.0987683
0.0939467
0.090434
0.0863774
0.082804
0.0807216
0.37918
0.274183
0.223071
0.193491
0.173099
0.157983
0.146259
0.137045
0.129671
0.123775
0.118794
0.115023
0.111274
0.108203
0.105849
0.0587971
0.0229795
-0.00416626
-0.0255748
-0.0388211
0.0503498
0.019251
0.000706564
-0.0130081
-0.0190591
0.0450271
0.0213836
0.0102214
0.0017254
-0.000265889
0.0424267
0.0245897
0.0186602
0.013697
0.0142827
0.0432614
0.030664
0.0283366
0.0255757
0.027364
0.0460037
0.0369325
0.0377269
0.0363441
0.0385214
0.0500918
0.0433141
0.0462264
0.0460515
0.048349
0.0551561
0.0499271
0.0539371
0.0546909
0.0570332
0.0612541
0.0568346
0.0611762
0.0624397
0.0647521
0.0654282
0.0623788
0.0672821
0.0690186
0.0710435
0.0772681
0.0738152
0.0786077
0.080791
0.0826619
0.0680868
0.0640892
0.0673257
0.0691903
0.0715726
0.100433
0.0992467
0.103814
0.106272
0.107475
0.0753795
0.070788
0.0711368
0.0718132
0.0724269
0.101444
0.0987059
0.0998884
0.101123
0.101633
-0.626959
-0.758969
-0.877592
-0.968136
-1.01288
-0.554871
-0.662179
-0.743892
-0.79156
-0.796858
-0.423723
-0.511727
-0.57712
-0.612097
-0.60826
-0.305378
-0.379599
-0.434262
-0.46227
-0.456318
-0.220246
-0.283786
-0.330158
-0.353611
-0.349029
-0.162664
-0.215983
-0.254329
-0.273331
-0.269431
-0.121955
-0.166375
-0.198241
-0.213469
-0.209428
-0.092156
-0.129682
-0.156203
-0.168662
-0.164809
-0.0694993
-0.101137
-0.124666
-0.135012
-0.130995
-0.050588
-0.0796916
-0.101089
-0.109679
-0.104473
-0.011517
-0.0844008
-0.202215
-0.341629
-0.486441
0.0262652
-0.0428743
-0.154296
-0.288796
-0.427549
0.0699136
0.00844774
-0.0887957
-0.204131
-0.318987
0.114008
0.0611295
-0.0225337
-0.120414
-0.217481
0.127537
0.0859138
0.0181241
-0.0633049
-0.145462
0.120698
0.0876911
0.0337932
-0.0320844
-0.0999691
0.10757
0.0812809
0.0383575
-0.0146696
-0.0702097
0.0935329
0.0722128
0.037794
-0.00455574
-0.0494857
0.0802663
0.0629339
0.0353737
0.00169014
-0.0346519
0.0688732
0.0543383
0.0314605
0.00478181
-0.0228661
0.0559121
0.0427124
0.0240643
0.00367649
-0.0150657
0.0451729
0.0360696
0.0246096
0.0116043
-0.00486803
0.0391378
0.0338262
0.0262602
0.0167331
0.00293187
0.0343177
0.0304311
0.0247735
0.0182076
0.00765521
0.0302865
0.0272228
0.0231312
0.019055
0.011211
0.0273565
0.0249702
0.0218696
0.0194222
0.0136317
0.025249
0.0233118
0.0207723
0.0192787
0.015018
0.0237177
0.0220955
0.0199544
0.0188982
0.0158056
0.0226264
0.0212338
0.0194257
0.0185214
0.0162892
0.0218577
0.0206328
0.0191058
0.0182857
0.0166135
0.0213021
0.0202156
0.0189329
0.0181952
0.0168765
0.0208865
0.0199284
0.0188526
0.0181927
0.0171369
0.0205568
0.0197294
0.0188196
0.0182445
0.0173869
0.020271
0.0195658
0.0187912
0.0183089
0.0176092
0.0199858
0.0193915
0.0187351
0.0183483
0.0177791
0.0196572
0.019165
0.0186201
0.0183271
0.0178636
0.019243
0.0188481
0.0184097
0.0182019
0.0178192
0.0186993
0.0184028
0.0180704
0.0179243
0.0175876
0.0179672
0.0177781
0.0175652
0.0174123
0.0171138
0.0169611
0.0168803
0.0167739
0.0166245
0.0163046
0.015549
0.0155621
0.0155318
0.0154248
0.0150961
0.0136148
0.0137028
0.0137284
0.0136555
0.0133482
0.0109959
0.0111161
0.0111688
0.0111114
0.0108415
0.0075162
0.00763954
0.00769503
0.00763833
0.00741558
0.00279796
0.00287505
0.00290724
0.00287157
0.00276281
-0.0216282
-0.027441
-0.0268517
-0.0242808
-0.020978
-0.0176051
-0.0148082
-0.0128905
-0.0120381
-0.010748
-0.0207121
0.000483217
-0.0384247
0.00244317
-0.0280147
-0.00867726
-0.0118392
-0.0124172
-0.0117483
-0.00982192
-0.007454
-0.0053424
-0.00387949
-0.00334258
-0.00208018
-0.0129495
0.0082317
-0.0308936
0.00773647
-0.0229439
-0.00122542
-0.00457529
-0.00655143
-0.00755409
-0.00737166
-0.00646291
-0.00532707
-0.00438466
-0.00398656
-0.00243514
-0.0128364
0.00781858
-0.0284649
0.00826618
-0.0208651
0.00313512
-0.000790675
-0.00381532
-0.0059143
-0.00697581
-0.00721561
-0.00694677
-0.0065428
-0.0063665
-0.00465583
-0.0148296
0.00563662
-0.0285155
0.00712076
-0.0203145
0.00723595
0.00368479
0.000437805
-0.00207998
-0.00381699
-0.00483585
-0.00529877
-0.00547489
-0.0056846
-0.00406951
-0.0144138
0.00580531
-0.0273283
0.00731652
-0.0191731
0.010423
0.00758612
0.0045613
0.00204609
2.20787e-05
-0.00146318
-0.0024674
-0.00314375
-0.00373532
-0.00227213
-0.0128497
0.00707915
-0.0253243
0.00831158
-0.0175447
0.0124078
0.0101453
0.00742567
0.00506994
0.00297545
0.00124844
-0.0001037
-0.0011508
-0.00204387
-0.000704267
-0.01145
0.00825028
-0.0234342
0.00932524
-0.0158858
0.0136798
0.0118609
0.00946831
0.00733425
0.00530096
0.00349109
0.00194682
0.000651837
-0.000470401
0.000752037
-0.0101173
0.00939835
-0.0216657
0.0103796
-0.014227
0.0145666
0.0131027
0.0110477
0.00916103
0.0072701
0.00548833
0.00387193
0.00243835
0.00115903
0.00226234
-0.00868356
0.0106692
-0.0199054
0.0115751
-0.0125235
0.0152195
0.0140274
0.0122882
0.010644
0.00893421
0.00725101
0.00565082
0.0041698
0.00280785
0.00379384
-0.00715749
0.0120507
-0.0181459
0.0129182
-0.0107736
0.0157369
0.0147498
0.0132832
0.0118578
0.0103376
0.00879094
0.00726695
0.00580861
0.00443143
0.00530159
-0.00556281
0.0135141
-0.0163948
0.0144016
-0.00898375
0.0161818
0.0153505
0.0141085
0.0128729
0.0115336
0.0101386
0.0087274
0.00734217
0.00600547
0.00675783
-0.0039113
0.0150384
-0.0146525
0.0160211
-0.00715764
0.0165735
0.0158653
0.0148076
0.0137351
0.0125617
0.0113202
0.0100412
0.00876281
0.00751047
0.00813952
-0.00221301
0.0166012
-0.0129192
0.0177698
-0.00529806
0.0169107
0.0163034
0.0153986
0.0144676
0.0134442
0.0123514
0.011213
0.0100622
0.00892662
0.0094258
-0.000477216
0.0181773
-0.0111956
0.0196375
-0.00340724
0.0171773
0.016656
0.0158807
0.0150743
0.0141871
0.0132357
0.0122395
0.0112279
0.0102311
0.0105969
0.0012881
0.0197382
-0.0094838
0.0216105
-0.00148611
0.0173465
0.0169007
0.0162372
0.0155427
0.0147801
0.0139626
0.013107
0.0122398
0.0113945
0.0116314
0.00307485
0.0212511
-0.00778752
0.0236706
0.000466988
0.0173808
0.0170008
0.0164353
0.0158437
0.015197
0.014507
0.0137887
0.0130669
0.0123782
0.0125026
0.00487073
0.0226741
-0.00611347
0.0257929
0.00245814
0.017225
0.016898
0.0164245
0.0159308
0.0153949
0.0148278
0.0142434
0.0136651
0.0131316
0.013173
0.00665038
0.0239486
-0.00447414
0.0279401
0.00450193
0.0167828
0.0165195
0.0161397
0.0157437
0.0153164
0.0148685
0.014414
0.0139755
0.0135914
0.0135898
0.00835926
0.0249828
-0.00289319
0.030048
0.00662429
0.0160058
0.0158095
0.0155172
0.0152142
0.0148899
0.0145555
0.014225
0.0139204
0.0136786
0.0136798
0.00988804
0.025622
-0.00141375
0.032001
0.00889409
0.0148437
0.0146976
0.0144765
0.0142533
0.0140202
0.0137886
0.0135729
0.013395
0.0132897
0.0133426
0.0110363
0.0255927
-0.000131845
0.0335395
0.0112705
0.0131448
0.013039
0.0128769
0.0127211
0.012566
0.0124239
0.0123105
0.0122492
0.0122762
0.012432
0.0114848
0.0244461
0.000842961
0.0342779
0.0144825
0.0106925
0.0106241
0.0105141
0.0104158
0.0103254
0.0102563
0.0102254
0.010259
0.0103982
0.010681
0.0107232
0.0213455
0.000874144
0.0324948
0.0142513
0.0073108
0.0072695
0.00719876
0.0071421
0.00709638
0.00707392
0.00709089
0.00717463
0.00737338
0.00775987
0.00836047
0.0158006
0.00115094
0.0290581
0.0258015
0.00270516
0.0026875
0.00265258
0.00262627
0.00260367
0.00258912
0.00258647
0.00260164
0.00264309
0.00271878
0.00279855
0.00450758
-0.00427094
0.00945127
-0.021184
-0.0841555
-0.0673023
-0.0509298
-0.0415102
-0.032723
-0.0275494
-0.0239268
-0.0221225
-0.021946
-0.0214036
-0.0288946
-0.0132071
-0.0459215
-0.00847837
-0.0360138
-0.0888302
-0.0706601
-0.0559825
-0.0464132
-0.038263
-0.0328685
-0.029114
-0.0269783
-0.0262714
-0.0256235
-0.0315091
-0.0170402
-0.0478275
-0.0099415
-0.0369235
-0.0795331
-0.0638911
-0.0530769
-0.0442519
-0.0363144
-0.0307406
-0.0268573
-0.0245648
-0.0237419
-0.0230723
-0.029176
-0.014855
-0.046654
-0.00843315
-0.0363082
-0.0600613
-0.0514574
-0.0447285
-0.0367344
-0.0300942
-0.0254146
-0.0220912
-0.0201533
-0.0195777
-0.0191539
-0.0261293
-0.0108396
-0.0449401
-0.0055038
-0.0349131
-0.036355
-0.0411673
-0.0388798
-0.0336625
-0.0293097
-0.0256024
-0.0226916
-0.0207898
-0.0200142
-0.0190963
-0.0269272
-0.0086923
-0.0447047
-0.00330179
-0.0330332
0.0481679
0.0135109
-0.0239559
-0.0584755
-0.086545
0.0515251
0.00677356
-0.0404709
-0.0815825
-0.11268
0.0505095
-0.00854909
-0.0647403
-0.11105
-0.145094
0.0434323
-0.0288308
-0.0941978
-0.147617
-0.186502
0.0293845
-0.0566202
-0.13418
-0.197914
-0.243805
0.00943851
-0.0939388
-0.18665
-0.262987
-0.316932
-0.0254743
-0.152071
-0.26475
-0.353534
-0.418083
-0.0810021
-0.237304
-0.377651
-0.490891
-0.566455
-0.165562
-0.350032
-0.51504
-0.655501
-0.752789
-0.337412
-0.57983
-0.783067
-0.922469
-0.999285
0.206573
0.192621
0.16886
0.13624
0.0943554
0.230532
0.212709
0.182956
0.143757
0.0957026
0.260141
0.239635
0.205271
0.15933
0.105613
0.296364
0.273617
0.233679
0.178514
0.114283
0.336831
0.310591
0.262698
0.195394
0.116307
0.382201
0.35091
0.29262
0.210571
0.113944
0.433085
0.395261
0.323581
0.222952
0.103734
0.484409
0.438268
0.349687
0.225741
0.0782373
0.533641
0.47634
0.364367
0.209507
0.026997
0.571958
0.500803
0.360872
0.160283
-0.081665
0.057554
0.0539804
0.0503239
0.0465341
0.042579
0.0587009
0.0557071
0.0525393
0.0491667
0.0455491
0.0601742
0.0571255
0.0539453
0.0506215
0.0474551
0.0624926
0.059446
0.0563884
0.0531342
0.050325
0.0654528
0.0625099
0.059697
0.0565563
0.0540798
0.0692342
0.0663237
0.0636969
0.0603321
0.0578123
0.0740699
0.0712199
0.0689381
0.0652835
0.06389
0.0802785
0.077404
0.0755853
0.0711446
0.0703367
0.087735
0.0843868
0.083071
0.0781435
0.0769141
0.0978509
0.0943975
0.0927847
0.0876352
0.0847261
0.108835
0.104057
0.101249
0.0941664
0.0914631
0.124424
0.120165
0.116802
0.106589
0.100216
0.140053
0.133571
0.126479
0.113141
0.102225
0.161017
0.152983
0.143409
0.125516
0.111592
0.183994
0.174509
0.159046
0.135265
0.103409
0.0387691
0.0350119
0.0306111
0.0254561
0.0194047
0.0122408
0.0037649
-0.00625512
-0.01981
-0.0297683
-0.0576578
-0.0667023
-0.119672
-0.133495
-0.276248
0.0416261
0.0376982
0.0331906
0.0279695
0.0218914
0.0155528
0.00532046
-0.000720942
-0.0178318
-0.0234622
-0.0516947
-0.0555848
-0.101297
-0.105958
-0.171699
0.0440599
0.0401412
0.0359092
0.0310144
0.025014
0.0188488
0.00983857
0.00286307
-0.011614
-0.0181524
-0.0416197
-0.0460559
-0.0814514
-0.0841621
-0.122675
0.0474657
0.04312
0.0390889
0.0343741
0.0285594
0.0225787
0.0140233
0.0069984
-0.00601661
-0.0128952
-0.0328872
-0.0376328
-0.0661561
-0.0679658
-0.0951452
0.0519294
0.0465224
0.0427771
0.0380655
0.0323068
0.0262333
0.0177957
0.0108174
-0.00158483
-0.0082111
-0.0262903
-0.0305265
-0.0550439
-0.0556627
-0.076922
0.0559181
0.0516651
0.0473851
0.0421065
0.0360099
0.0295736
0.0208392
0.0139428
0.00161136
-0.00451355
-0.0215286
-0.024867
-0.0470848
-0.046187
-0.0644125
0.060365
0.0561488
0.0514366
0.0456678
0.0390984
0.0321538
0.0229399
0.0161145
0.00363625
-0.00185764
-0.0182663
-0.0204695
-0.0415014
-0.038708
-0.0557365
0.0658715
0.0609493
0.0553092
0.0486901
0.0413366
0.0336138
0.0239837
0.0171559
0.00461223
-0.000206343
-0.016178
-0.0170466
-0.0377774
-0.0325164
-0.0497936
0.0714681
0.0655686
0.0587581
0.0509644
0.0426578
0.0340254
0.0241166
0.0172531
0.00487696
0.000707721
-0.014842
-0.0136717
-0.0359411
-0.0276512
-0.0453341
0.0769106
0.0690794
0.0604502
0.0512024
0.0418739
0.0325808
0.0226955
0.0159343
0.00410709
0.000658118
-0.0144966
-0.0115666
-0.0348039
-0.0237838
-0.0420434
0.0825284
0.0726874
0.0625215
0.0517876
0.041418
0.0315749
0.0217994
0.0151072
0.0039766
0.00128881
-0.0140766
-0.00935386
-0.0337884
-0.020176
-0.0393898
0.0835742
0.0702407
0.0578603
0.046084
0.035533
0.0260676
0.0171266
0.0110753
0.00129146
-0.000864187
-0.0152533
-0.00881819
-0.0339425
-0.0177126
-0.037622
0.0862321
0.0720422
0.0584351
0.0454976
0.034424
0.0249788
0.0164817
0.0106955
0.00190528
-0.000229208
-0.0136764
-0.0066252
-0.0327667
-0.0146885
-0.0356469
0.0799733
0.0621563
0.0494162
0.0373303
0.0277494
0.0197878
0.0127105
0.00778982
0.000519335
-0.0013054
-0.0132024
-0.00566864
-0.0323961
-0.0121178
-0.0341661
0.0574128
0.0490064
0.0352598
0.0243924
0.016798
0.010706
0.00545681
0.0017849
-0.0034444
-0.00512238
-0.0150319
-0.00654118
-0.0331839
-0.0108539
-0.0330972
0.0435806
0.0389335
0.0296752
0.0227911
0.0169172
0.0122897
0.00816208
0.00503805
0.000661044
-0.00116055
-0.0110567
-0.000802413
-0.0302561
-0.00638797
-0.0300204
0.0139717
0.0102911
0.00982384
0.00878155
0.00791999
0.00664386
0.00485511
0.00308217
-0.00050548
-0.00119318
-0.0117268
0.0015667
-0.0316075
-0.00285213
-0.0288317
-0.0196369
-0.018694
-0.0131268
-0.0112347
-0.00773009
-0.00641366
-0.00588027
-0.00622964
-0.00845622
-0.00859992
-0.0189067
-0.00286258
-0.0378034
-0.00403103
-0.0312041
-0.0470967
-0.0385149
-0.0271837
-0.0225428
-0.0161803
-0.0134698
-0.011639
-0.0112783
-0.0126624
-0.0128241
-0.0229074
-0.00585825
-0.0415688
-0.0054931
-0.0334136
-0.0692143
-0.05544
-0.0404436
-0.0330755
-0.0249965
-0.0210252
-0.0181658
-0.017038
-0.0175338
-0.0173165
-0.0263344
-0.00937312
-0.044073
-0.00694169
-0.0349036
)
;

boundaryField
{
    outlet
    {
        type            fixedValue;
        value           uniform 0;
    }
    upperWall
    {
        type            symmetryPlane;
    }
    lowerWall
    {
        type            symmetryPlane;
    }
    inlet
    {
        type            zeroGradient;
    }
    cylinder
    {
        type            zeroGradient;
    }
    frontAndBack
    {
        type            empty;
    }
}


// ************************************************************************* //
