/*--------------------------------*- C++ -*----------------------------------*\
| =========                 |                                                 |
| \\      /  F ield         | OpenFOAM: The Open Source CFD Toolbox           |
|  \\    /   O peration     | Version:  2312                                  |
|   \\  /    A nd           | Website:  www.openfoam.com                      |
|    \\/     M anipulation  |                                                 |
\*---------------------------------------------------------------------------*/
FoamFile
{
    version     2.0;
    format      ascii;
    arch        "LSB;label=32;scalar=64";
    class       volScalarField;
    location    "155";
    object      p;
}
// * * * * * * * * * * * * * * * * * * * * * * * * * * * * * * * * * * * * * //

dimensions      [0 2 -2 0 0 0 0];

internalField   nonuniform List<scalar> 
5478
(
-0.54559
-0.541779
-0.533951
-0.526004
-0.519876
-0.515965
-0.512191
-0.505431
-0.492714
-0.472726
-0.445994
-0.413969
-0.37906
-0.339093
-0.29668
-0.559324
-0.554718
-0.547593
-0.539013
-0.529175
-0.517158
-0.502248
-0.483767
-0.461485
-0.435719
-0.407043
-0.376291
-0.343632
-0.309608
-0.276874
-0.578738
-0.572331
-0.563766
-0.552462
-0.536045
-0.514596
-0.489814
-0.463133
-0.435308
-0.406619
-0.377284
-0.347377
-0.317334
-0.287204
-0.257038
-0.603567
-0.59384
-0.582484
-0.565214
-0.539681
-0.508966
-0.476628
-0.444512
-0.41319
-0.382746
-0.353016
-0.324048
-0.295745
-0.268273
-0.242396
-0.634467
-0.61913
-0.603265
-0.576388
-0.540218
-0.501192
-0.463101
-0.427198
-0.393631
-0.362097
-0.332334
-0.304028
-0.277014
-0.251421
-0.226504
-0.670637
-0.648271
-0.623071
-0.583608
-0.536944
-0.490914
-0.448368
-0.409704
-0.3745
-0.342271
-0.31251
-0.284874
-0.259123
-0.234984
-0.211951
-0.70497
-0.677574
-0.637733
-0.584157
-0.528172
-0.476432
-0.430395
-0.389655
-0.353412
-0.320894
-0.291496
-0.264725
-0.240222
-0.217687
-0.196176
-0.731183
-0.699438
-0.642551
-0.57556
-0.511783
-0.455563
-0.407048
-0.365042
-0.328369
-0.296105
-0.267464
-0.241888
-0.218979
-0.198195
-0.179083
-0.513082
-0.512598
-0.51615
-0.527103
-0.545413
-0.570669
-0.601869
-0.636895
-0.672458
-0.704366
-0.728432
-0.73862
-0.729301
-0.699203
-0.644578
-0.535047
-0.532545
-0.536334
-0.548227
-0.56827
-0.595972
-0.630242
-0.668874
-0.708492
-0.744741
-0.772573
-0.786386
-0.778037
-0.744275
-0.677595
-0.547938
-0.542982
-0.545116
-0.555146
-0.5733
-0.599127
-0.631473
-0.668148
-0.706072
-0.741212
-0.768486
-0.781776
-0.771753
-0.73395
-0.659909
-0.551789
-0.544661
-0.543534
-0.548993
-0.562013
-0.582589
-0.609693
-0.641358
-0.67488
-0.70636
-0.730654
-0.740473
-0.725582
-0.682835
-0.60741
-0.549084
-0.541013
-0.53616
-0.535598
-0.541773
-0.555721
-0.576892
-0.603545
-0.632865
-0.660335
-0.677807
-0.67889
-0.654509
-0.605079
-0.531336
-0.543628
-0.536173
-0.528455
-0.522535
-0.522501
-0.530642
-0.547217
-0.570058
-0.594096
-0.61305
-0.619125
-0.607861
-0.57356
-0.523203
-0.457012
-0.539087
-0.533183
-0.524069
-0.515155
-0.511514
-0.516125
-0.528692
-0.545176
-0.559644
-0.565307
-0.55736
-0.533385
-0.494347
-0.44815
-0.394726
-0.538845
-0.534537
-0.525442
-0.516314
-0.511643
-0.513091
-0.519191
-0.52536
-0.526323
-0.517384
-0.497247
-0.465898
-0.427795
-0.385681
-0.341443
-0.532746
-0.388724
-0.304408
-0.290196
-0.28915
-0.242175
-0.177827
-0.154126
-0.144465
-0.151448
-0.162613
-0.162737
-0.157043
-0.152515
-0.13408
-0.106591
-0.111953
-0.137081
-0.145339
-0.117809
-0.115187
-0.135375
-0.14115
-0.11431
-0.136215
-0.164923
-0.191544
-0.170857
-0.125668
-0.0498993
-0.0398263
-0.0275715
-0.0186401
-0.00959763
-0.00626389
-0.0047544
-0.00280417
-0.00087383
-0.546726
-0.376542
-0.251973
-0.201188
-0.192472
-0.170655
-0.147838
-0.150035
-0.155153
-0.176913
-0.198087
-0.18879
-0.164434
-0.152198
-0.139635
-0.112566
-0.11874
-0.144376
-0.147045
-0.114838
-0.104998
-0.116887
-0.133559
-0.114514
-0.149793
-0.187252
-0.191905
-0.148822
-0.117947
-0.0550416
-0.0418599
-0.0259245
-0.0178243
-0.00989557
-0.00643116
-0.00469217
-0.0027585
-0.000869898
-0.523805
-0.351876
-0.213991
-0.144114
-0.112258
-0.0876487
-0.115262
-0.142954
-0.163375
-0.198977
-0.231615
-0.213193
-0.170796
-0.15054
-0.142431
-0.1164
-0.124391
-0.151263
-0.147636
-0.110375
-0.0946724
-0.0990836
-0.123789
-0.112228
-0.160129
-0.205089
-0.187033
-0.123973
-0.106946
-0.0587972
-0.0432486
-0.02404
-0.016885
-0.0101644
-0.00658649
-0.00461846
-0.00270825
-0.000864885
-0.474268
-0.329866
-0.201572
-0.125261
-0.0809833
-0.0325524
-0.0862145
-0.127766
-0.159163
-0.207648
-0.249339
-0.229295
-0.17554
-0.147268
-0.140415
-0.117676
-0.128658
-0.157771
-0.148474
-0.105427
-0.0850098
-0.0828855
-0.112304
-0.107314
-0.166051
-0.217453
-0.179187
-0.0986927
-0.0935366
-0.0609163
-0.0439613
-0.0220854
-0.0158716
-0.0103762
-0.00672101
-0.00453869
-0.00265613
-0.000858876
-0.410985
-0.30417
-0.197604
-0.123697
-0.0772834
-0.0289021
-0.0736987
-0.121214
-0.146601
-0.193179
-0.244837
-0.234758
-0.177628
-0.142749
-0.134504
-0.117331
-0.131737
-0.163788
-0.148237
-0.10021
-0.0764891
-0.0693959
-0.0998467
-0.100122
-0.167101
-0.225311
-0.170744
-0.0750325
-0.078645
-0.0614303
-0.0439435
-0.0201829
-0.014824
-0.0105074
-0.00682447
-0.00445673
-0.00260371
-0.00085176
-0.357154
-0.278491
-0.195987
-0.127328
-0.0810104
-0.0416178
-0.0668038
-0.116526
-0.12847
-0.160133
-0.222022
-0.220677
-0.172762
-0.135747
-0.125315
-0.114584
-0.132256
-0.168266
-0.149237
-0.0962796
-0.0695768
-0.0587141
-0.0868761
-0.0908632
-0.163403
-0.22933
-0.163456
-0.0552794
-0.0634934
-0.060529
-0.0433141
-0.0184733
-0.0137815
-0.0105453
-0.00689426
-0.00437725
-0.00255309
-0.000843678
-0.322484
-0.262297
-0.188989
-0.124882
-0.0808318
-0.0480713
-0.0367202
-0.100468
-0.101068
-0.127293
-0.1936
-0.207739
-0.169279
-0.130119
-0.115159
-0.107868
-0.12969
-0.170702
-0.147169
-0.091954
-0.063835
-0.0511281
-0.0740533
-0.0788157
-0.154955
-0.228399
-0.154457
-0.0406538
-0.0483921
-0.0584244
-0.0418902
-0.017006
-0.0128063
-0.0104946
-0.00691874
-0.0042983
-0.00250293
-0.000834188
-0.298555
-0.257425
-0.196101
-0.135669
-0.0902356
-0.0526005
-0.035234
-0.0698518
-0.0688551
-0.0936567
-0.157431
-0.173316
-0.153471
-0.123894
-0.101997
-0.0980685
-0.120946
-0.169773
-0.147241
-0.0905308
-0.0602312
-0.0456597
-0.0611302
-0.0656292
-0.141712
-0.228954
-0.145971
-0.0299921
-0.0342886
-0.0550527
-0.0401635
-0.0158455
-0.0118384
-0.0103391
-0.00692724
-0.00423348
-0.00246033
-0.000824977
-0.262405
-0.23534
-0.176092
-0.116544
-0.0675722
-0.023239
0.0205744
0.0295428
0.00185619
-0.060157
-0.134971
-0.152664
-0.129236
-0.105255
-0.0828366
-0.0879053
-0.110851
-0.154738
-0.137561
-0.0845219
-0.0552126
-0.0421419
-0.0514024
-0.0578013
-0.12912
-0.20962
-0.135763
-0.0226507
-0.0248281
-0.0501036
-0.0368221
-0.0146637
-0.010881
-0.00999576
-0.00679391
-0.00412141
-0.00239152
-0.000805482
-0.196572
-0.178233
-0.131414
-0.0827549
-0.042073
0.000560476
0.0513811
0.0678602
0.0423125
-0.0240008
-0.0877906
-0.0978341
-0.0892688
-0.0748411
-0.0577664
-0.0657763
-0.0991924
-0.146732
-0.128089
-0.0698337
-0.0400469
-0.0279659
-0.0386239
-0.0418955
-0.108101
-0.189913
-0.121065
-0.00552391
-0.016812
-0.0427871
-0.0331838
-0.0125191
-0.00957356
-0.0094217
-0.00653314
-0.00394501
-0.00229338
-0.000776131
-0.153661
-0.144732
-0.112295
-0.0715251
-0.0341668
0.00502977
0.0519903
0.0711401
0.0529061
0.00404829
-0.0408147
-0.0560506
-0.0578555
-0.0536633
-0.0371299
-0.0369953
-0.0663953
-0.107701
-0.0995768
-0.0502071
-0.025314
-0.0182842
-0.0255767
-0.0250773
-0.0782697
-0.148002
-0.0877484
0.00885128
-0.00885116
-0.0336293
-0.0278318
-0.0104446
-0.00854134
-0.00870986
-0.00615733
-0.0037461
-0.00219452
-0.000744942
-0.118142
-0.112749
-0.0882023
-0.055074
-0.0240625
0.00663427
0.0376637
0.0558938
0.0475585
0.0165415
-0.01301
-0.0253951
-0.0297506
-0.0272121
-0.0126173
-0.00834755
-0.0309471
-0.0569831
-0.0599951
-0.0365821
-0.0192812
-0.0118722
-0.0110266
-0.00847669
-0.0456193
-0.0980407
-0.0430418
0.0199311
0.00212459
-0.0224181
-0.0218008
-0.00904523
-0.00774867
-0.00784637
-0.00567471
-0.00352388
-0.00209202
-0.000710066
-0.0900112
-0.0871515
-0.070763
-0.0465285
-0.0231157
-4.22559e-05
0.0222228
0.0369812
0.0350825
0.0181041
0.00170159
-0.00882343
-0.013158
-0.0147784
-0.00127023
0.0125309
0.00660594
0.0010129
-0.0183103
-0.0256091
-0.0163403
-0.0130143
-0.00300113
0.00432213
-0.0151925
-0.046242
0.00428115
0.0287733
0.0139599
-0.00935285
-0.0144409
-0.00802219
-0.00703745
-0.00685336
-0.00508718
-0.00326349
-0.00198277
-0.000671026
-0.0688372
-0.067473
-0.0566031
-0.0392458
-0.0217187
-0.00478258
0.0106958
0.0215881
0.0234793
0.0155701
0.00753255
0.00124777
-0.000823873
0.000798135
0.0106294
0.0216161
0.0201348
0.0157049
0.00456143
-0.0136702
-0.0105807
-0.00430438
0.00496551
0.0107047
0.000678495
-0.00974318
0.0351652
0.0321484
0.0233978
0.0023582
-0.00710861
-0.00699208
-0.00611565
-0.00579234
-0.0044575
-0.00296655
-0.00186547
-0.00063073
-0.0519293
-0.0515654
-0.0447113
-0.0329052
-0.0204356
-0.00833592
0.00250992
0.010636
0.0141101
0.0118848
0.00791418
0.00536911
0.00504738
0.00544058
0.0132589
0.0232021
0.0243202
0.0207625
0.0136945
-0.00063014
-0.00167528
-7.65588e-05
0.00900322
0.0146587
0.00960192
0.00957019
0.0403551
0.0305582
0.0271438
0.00945879
-0.00206391
-0.00568474
-0.00494325
-0.00483543
-0.00384428
-0.00263415
-0.001721
-0.000583729
-0.0386064
-0.0390826
-0.0350073
-0.0271728
-0.0184712
-0.00982454
-0.00212236
0.00390624
0.00754221
0.00763699
0.00705832
0.00672879
0.00818253
0.0101876
0.0156683
0.0220795
0.0228887
0.0198122
0.0151315
0.00683002
0.00465375
0.00561123
0.012139
0.0159291
0.0108851
0.0120797
0.0326428
0.0280956
0.0262728
0.0109058
0.000263437
-0.00390657
-0.00372698
-0.00399742
-0.00324246
-0.00226677
-0.00153814
-0.000527718
-0.0283798
-0.0291849
-0.026793
-0.0217261
-0.0158602
-0.00975162
-0.004216
0.000382148
0.00375915
0.00534788
0.00647611
0.0072296
0.00900325
0.0105307
0.0139611
0.0185453
0.0197804
0.0178778
0.0146871
0.0102335
0.00859479
0.00798566
0.0119742
0.0159427
0.0138238
0.0141405
0.025926
0.0243013
0.0232408
0.0117267
0.0021592
-0.0018556
-0.00252327
-0.00309336
-0.00259218
-0.00186547
-0.00130272
-0.000450263
-0.0202825
-0.0212476
-0.0198955
-0.0166439
-0.0125721
-0.00840752
-0.00449183
-0.00102845
0.00187929
0.00386747
0.00550233
0.00671756
0.00856519
0.0104718
0.0129929
0.0159436
0.0169816
0.0158819
0.013838
0.0115921
0.0104881
0.0105918
0.012559
0.0153394
0.0143897
0.014478
0.0208783
0.0213982
0.0200879
0.0118073
0.00382046
-9.12523e-05
-0.00141874
-0.00218026
-0.0019268
-0.00145399
-0.00104766
-0.000367821
-0.0137693
-0.0147965
-0.0141746
-0.0121236
-0.00940642
-0.0065126
-0.00373378
-0.00114059
0.00123054
0.00314026
0.00482677
0.00630211
0.00803406
0.00974637
0.0114885
0.0133981
0.0144466
0.0140475
0.0129559
0.0118865
0.0112541
0.0111974
0.0121838
0.0142222
0.0143867
0.01435
0.0174398
0.0180156
0.0171233
0.0116486
0.00521782
0.00141716
-0.000340946
-0.00125199
-0.00125397
-0.00102135
-0.000767444
-0.000271832
-0.00865168
-0.00959578
-0.00935492
-0.00810782
-0.00630867
-0.00432588
-0.00235916
-0.000442695
0.00137201
0.00301669
0.00451359
0.00590904
0.00734313
0.00882153
0.0102529
0.0115792
0.0125377
0.0126005
0.012128
0.0117323
0.011444
0.0117248
0.0123007
0.0133979
0.0137585
0.0137662
0.0151847
0.015484
0.0146309
0.0110944
0.00612843
0.00265781
0.000667195
-0.000407031
-0.000630576
-0.000597954
-0.000493669
-0.00018081
-0.00451732
-0.0053518
-0.00535062
-0.00460986
-0.00342396
-0.00207789
-0.000723514
0.000640657
0.00198076
0.003284
0.00449359
0.00567624
0.00687232
0.00809032
0.00924703
0.0102274
0.0110348
0.0113927
0.011346
0.0112995
0.0112529
0.0114136
0.0117626
0.012476
0.0128932
0.0128935
0.0134179
0.0132764
0.0125183
0.0102769
0.00662742
0.00361632
0.00156737
0.000349495
-6.6212e-05
-0.000195851
-0.000228206
-9.09639e-05
-0.00121936
-0.00192561
-0.00203125
-0.00159986
-0.000841055
4.04209e-05
0.00094491
0.00189234
0.00285527
0.00383537
0.00476247
0.00568462
0.00663035
0.00758977
0.00850637
0.00927406
0.00996687
0.0104385
0.0106234
0.0107593
0.0108907
0.0111264
0.0114009
0.0117851
0.0120039
0.0119344
0.0120798
0.0118005
0.0109991
0.0094268
0.00682449
0.00433906
0.00239303
0.00106336
0.000458525
0.000180521
2.57157e-05
1.74974e-06
0.00143512
0.000864821
0.000707249
0.00092904
0.00139194
0.00195453
0.00254242
0.00317242
0.0038362
0.00452958
0.00520523
0.00588398
0.0065983
0.00733103
0.00804201
0.00866338
0.0092156
0.00968399
0.00997501
0.0102015
0.0103926
0.0106011
0.0107606
0.010961
0.0110981
0.0109918
0.0108923
0.0105089
0.00975316
0.00858061
0.00672897
0.00476204
0.00303172
0.00168798
0.000916629
0.0004971
0.000231589
7.51871e-05
0.00357335
0.00311445
0.00293802
0.00303003
0.00329575
0.00363402
0.00399422
0.00438986
0.00482684
0.0052962
0.00576104
0.00623238
0.00673889
0.0072748
0.00780251
0.00828024
0.00871819
0.00912487
0.00942555
0.00965824
0.00985769
0.0100366
0.0101532
0.0102458
0.0102762
0.0101253
0.00992759
0.00953775
0.00885484
0.00789063
0.00652913
0.00499731
0.00351609
0.00224206
0.00135358
0.000795653
0.000419607
0.000146581
0.00527239
0.00491377
0.00474264
0.00475295
0.00488155
0.00506101
0.00525984
0.00548767
0.00575337
0.00604565
0.00634356
0.00664846
0.00698845
0.00736065
0.00773138
0.00807612
0.00840087
0.00871984
0.00897524
0.00917836
0.00935008
0.00948537
0.0095554
0.00957292
0.0095352
0.00936537
0.00910874
0.00870832
0.00810496
0.00730101
0.00624971
0.00504331
0.00380799
0.0026621
0.00173703
0.00106379
0.000573458
0.000195549
0.0066184
0.00634072
0.00618083
0.00613931
0.0061755
0.00624674
0.00633326
0.00644239
0.00658274
0.0067439
0.00691433
0.00709211
0.00730032
0.00753357
0.00777283
0.00800097
0.00822181
0.00844481
0.00863082
0.00877908
0.00889793
0.00898333
0.00900949
0.00898205
0.00889619
0.00870764
0.0084354
0.00805073
0.00751649
0.00683047
0.00598063
0.00500871
0.00397561
0.00296285
0.00205709
0.0013102
0.000719815
0.000242002
0.00766781
0.00745253
0.00730633
0.00723399
0.00720869
0.00720676
0.00721574
0.00724214
0.00729255
0.00735771
0.00743292
0.00751324
0.00761982
0.00774395
0.00787875
0.00800719
0.00813713
0.00827004
0.0083804
0.00846602
0.00852631
0.00856114
0.008543
0.00847879
0.00835922
0.00816013
0.00788603
0.00751504
0.0070374
0.00644232
0.00572832
0.00491759
0.00403609
0.00314376
0.00228893
0.00151687
0.000852932
0.000281419
0.00846538
0.00829565
0.00816252
0.00807162
0.00800689
0.00795686
0.00791441
0.00788468
0.00787197
0.00786941
0.00787587
0.00788602
0.00791657
0.0079584
0.0080109
0.00806001
0.00811339
0.00816939
0.00821075
0.00823719
0.00824161
0.00822646
0.00816817
0.00807197
0.00792772
0.00771794
0.00744623
0.00709346
0.00665845
0.00613072
0.00550889
0.00481125
0.00404283
0.00324489
0.00244666
0.00167675
0.000966304
0.000317216
0.00904675
0.0089078
0.0087855
0.00868363
0.00859494
0.00851439
0.00843912
0.00837269
0.00831701
0.00826911
0.00822723
0.00818995
0.00816475
0.00814834
0.0081388
0.00812915
0.0081226
0.00811722
0.00810371
0.00807819
0.00803739
0.0079781
0.00788707
0.00776317
0.00759794
0.00738184
0.00711013
0.0067743
0.00636836
0.00588812
0.00533144
0.00470715
0.00401892
0.00328915
0.00253831
0.00178485
0.00105094
0.000345813
0.00943088
0.00931179
0.00919727
0.00909001
0.00898774
0.0088898
0.00879545
0.00870697
0.00862481
0.00854818
0.00847606
0.00840817
0.00834735
0.00829218
0.00824163
0.00819213
0.00814435
0.00809638
0.00804298
0.00798053
0.00790516
0.00781411
0.0076974
0.00755282
0.00737258
0.00714979
0.00687869
0.00655311
0.00616709
0.00571751
0.00520143
0.00462357
0.00398758
0.00330288
0.00258637
0.0018497
0.00110548
0.000365915
0.00962419
0.00951517
0.00940523
0.00929626
0.00918837
0.00908291
0.0089801
0.00888139
0.00878649
0.00869584
0.00860882
0.00852584
0.00844703
0.00837217
0.00830039
0.00823022
0.00816068
0.00808981
0.00801501
0.00793237
0.00783824
0.00772945
0.00759857
0.00744247
0.00725342
0.00702705
0.00675548
0.00643519
0.00605945
0.0056247
0.00513018
0.00457513
0.00396545
0.0033046
0.00260504
0.00187895
0.001132
0.000376067
-0.15516
-0.167088
-0.180105
-0.190944
-0.205141
-0.213381
-0.22734
-0.236867
-0.128556
-0.135725
-0.143627
-0.150667
-0.157751
-0.162098
-0.168432
-0.178578
-0.103927
-0.108183
-0.111949
-0.116218
-0.120508
-0.126092
-0.131689
-0.140497
-0.0841806
-0.0863038
-0.0882552
-0.0919282
-0.0955581
-0.0998247
-0.103135
-0.108803
-0.0670111
-0.068238
-0.0694066
-0.0718566
-0.0737713
-0.0759851
-0.0780755
-0.0826208
-0.0529999
-0.0533901
-0.053713
-0.054919
-0.0559817
-0.0576411
-0.059529
-0.0632851
-0.0411175
-0.0410143
-0.0409495
-0.0416373
-0.042453
-0.0437077
-0.045077
-0.0478442
-0.0313596
-0.0310425
-0.0307977
-0.0311229
-0.0316116
-0.0324003
-0.0333382
-0.035387
-0.023293
-0.0228748
-0.02251
-0.0225472
-0.0227659
-0.0232573
-0.0240161
-0.0257473
-0.0165952
-0.0161676
-0.0157732
-0.0156815
-0.0158065
-0.0162156
-0.0168954
-0.0182671
-0.011098
-0.010741
-0.0104005
-0.0102807
-0.0103432
-0.0106235
-0.0111066
-0.0121543
-0.00658518
-0.00631245
-0.00602833
-0.00588554
-0.00588318
-0.00607215
-0.00646648
-0.00733628
-0.00287441
-0.0026857
-0.00247312
-0.00235376
-0.00234695
-0.00249591
-0.00281117
-0.00348697
0.000159539
0.000266653
0.000402734
0.000485525
0.000490865
0.000380759
0.000131479
-0.00040006
0.002632
0.00266893
0.00273601
0.0027779
0.0027675
0.00267258
0.00247011
0.00206375
0.00461922
0.00460181
0.00461277
0.00461744
0.00459227
0.00451295
0.00435624
0.00405252
0.00620944
0.00615656
0.00612861
0.00610476
0.00606546
0.00599177
0.00586301
0.00563348
0.00746871
0.0073928
0.00733717
0.00729027
0.00723725
0.00716487
0.00705736
0.00688605
0.00845157
0.00836221
0.00828906
0.00822639
0.00816307
0.00809083
0.00799776
0.00786765
0.00919994
0.00910404
0.00902063
0.00894728
0.00887634
0.00880306
0.00871934
0.00861686
0.00974221
0.00964525
0.00955753
0.00947809
0.0094027
0.00932845
0.00925084
0.00916558
0.010094
0.0100007
0.00991335
0.00983191
0.00975448
0.00967974
0.00960552
0.00953009
0.0102639
0.0101775
0.0100936
0.0100127
0.0099345
0.00985917
0.00978594
0.00971436
0.0159124
0.0183093
0.0196744
0.0193002
0.0166679
0.0117665
0.00447377
-0.00583852
-0.0203112
-0.0405712
-0.0688588
-0.108307
-0.164006
-0.239539
-0.31007
-0.010432
-0.0108226
-0.0140177
-0.0192875
-0.0264753
-0.0359168
-0.0482377
-0.0643697
-0.0855959
-0.113646
-0.150888
-0.200434
-0.267481
-0.356525
-0.432919
-0.0352735
-0.0391972
-0.0470438
-0.0568775
-0.0683069
-0.0820374
-0.0990764
-0.120543
-0.147807
-0.182693
-0.227763
-0.286218
-0.362035
-0.463081
-0.53736
-0.060928
-0.0683441
-0.0797832
-0.0930419
-0.107991
-0.125588
-0.146921
-0.17311
-0.205577
-0.246205
-0.297624
-0.363591
-0.446479
-0.551044
-0.621609
-0.0875564
-0.0980891
-0.112023
-0.127638
-0.145311
-0.166145
-0.191115
-0.221217
-0.257846
-0.302991
-0.358997
-0.430034
-0.517321
-0.619498
-0.684125
-0.113117
-0.126622
-0.142517
-0.160036
-0.180023
-0.203528
-0.231366
-0.264397
-0.304005
-0.352195
-0.411413
-0.484663
-0.572211
-0.668419
-0.724477
-0.137063
-0.153035
-0.170478
-0.189713
-0.211784
-0.237439
-0.267378
-0.302509
-0.34407
-0.393819
-0.453993
-0.52659
-0.610905
-0.697465
-0.743947
-0.159204
-0.176603
-0.195604
-0.216763
-0.240731
-0.268092
-0.299495
-0.3358
-0.378137
-0.427955
-0.487051
-0.556513
-0.634111
-0.707364
-0.745311
0.185666
0.200159
0.216469
0.234994
0.255741
0.278573
0.303386
0.330137
0.358744
0.388937
0.420111
0.45106
0.479745
0.502106
0.520334
0.178579
0.191762
0.206949
0.224557
0.244379
0.266093
0.289538
0.314673
0.341409
0.369424
0.398015
0.425857
0.450741
0.46864
0.482476
0.167314
0.178443
0.191927
0.208072
0.226345
0.246174
0.267299
0.289643
0.313071
0.337173
0.361117
0.383406
0.401548
0.411623
0.418128
0.151857
0.160395
0.171717
0.185821
0.201811
0.218928
0.23684
0.255409
0.274389
0.293202
0.310797
0.325433
0.334237
0.333203
0.329972
0.132346
0.138069
0.147168
0.159045
0.172234
0.185811
0.199482
0.213141
0.226471
0.238707
0.248523
0.25387
0.251458
0.237008
0.221194
0.109056
0.111356
0.118042
0.127595
0.137803
0.147548
0.15654
0.164659
0.171486
0.176084
0.176895
0.17157
0.15638
0.126786
0.0963084
0.0827
0.0822355
0.0866199
0.0930742
0.0993159
0.104475
0.108342
0.110631
0.110632
0.107144
0.0983531
0.0816177
0.0528199
0.00739442
-0.0382199
0.0516902
0.0503511
0.0539939
0.0574497
0.0592045
0.059121
0.0572665
0.0532223
0.0459987
0.0341158
0.0154959
-0.0128202
-0.0554191
-0.116542
-0.176226
0.0271902
0.0315831
0.0279282
0.0318581
0.0294206
0.0337247
0.0319612
0.0363772
0.0357157
0.0402381
0.0409881
0.0457877
0.0483205
0.0539373
0.0586182
0.0658919
0.0732251
0.0831362
0.0940862
0.107981
0.123768
0.14322
0.165488
0.0271469
0.0315015
0.0278882
0.0317573
0.0293684
0.033604
0.0318878
0.0362062
0.0355924
0.0400276
0.0407646
0.0454608
0.0480132
0.0535225
0.0580952
0.0652956
0.0722835
0.0820377
0.092425
0.10593
0.12075
0.139374
0.16013
0.0271133
0.0313944
0.0278658
0.0316273
0.0293422
0.0334505
0.0318698
0.0359989
0.0355054
0.0398112
0.0405819
0.0451492
0.0477045
0.0529834
0.0575113
0.0645621
0.0711667
0.0807066
0.0902986
0.103204
0.116639
0.133874
0.151928
0.0270886
0.0312639
0.027858
0.031472
0.0293368
0.0332696
0.0318404
0.0357639
0.0354414
0.0395645
0.0404198
0.04484
0.0474632
0.052649
0.0570012
0.063935
0.0699739
0.0792668
0.0877524
0.0998246
0.111221
0.126409
0.140644
0.0270729
0.0311135
0.0278678
0.0312958
0.0293495
0.0330646
0.0318431
0.0355073
0.0353968
0.0392803
0.040268
0.0444281
0.0471006
0.0518755
0.0563298
0.0628964
0.0684201
0.0771521
0.0845493
0.0954438
0.104567
0.116968
0.126097
0.0270606
0.0309458
0.0278809
0.0311043
0.0293732
0.0328454
0.0318719
0.035263
0.0353691
0.039027
0.0401703
0.0442119
0.0470022
0.0517513
0.0558359
0.0622116
0.0670684
0.0753626
0.0811548
0.0906824
0.0964997
0.105748
0.108884
0.0270593
0.0307635
0.027902
0.0309049
0.0294047
0.0326159
0.0318867
0.0349857
0.035333
0.038704
0.0400087
0.0437416
0.0465851
0.0507965
0.0549416
0.0606088
0.0650857
0.072265
0.0769618
0.0844839
0.0876276
0.0919911
0.0887147
0.0270535
0.030574
0.0279234
0.0307073
0.0294397
0.0324068
0.0319543
0.0348067
0.0353408
0.0385483
0.0400244
0.0437439
0.0465639
0.0508583
0.0546653
0.0601239
0.0637855
0.0703823
0.072776
0.0783611
0.0765128
0.0773551
0.0650407
0.0270464
0.0303214
0.0279579
0.0304212
0.0294688
0.0320515
0.0319291
0.034351
0.0352029
0.0379953
0.0396692
0.0429931
0.0456252
0.0490855
0.0527807
0.0566878
0.0599731
0.0638497
0.065131
0.0664409
0.0617619
0.0537406
0.0342334
0.0270453
0.0299751
0.0280045
0.0300341
0.0294776
0.0315257
0.031836
0.033715
0.0348662
0.0369827
0.0388087
0.0413101
0.0439505
0.0465304
0.0496677
0.0520221
0.0542565
0.0554759
0.0551825
0.0520921
0.045898
0.0346824
0.0192397
0.0270635
0.0295515
0.028069
0.0295679
0.0295026
0.0309155
0.031715
0.0329937
0.0344204
0.035994
0.0378709
0.0398389
0.0420689
0.0438119
0.0461395
0.0471896
0.0481304
0.047364
0.0453453
0.0402137
0.0328689
0.0215915
0.0070659
0.0271016
0.029041
0.0281537
0.02904
0.0294899
0.0303383
0.0314626
0.0323056
0.0338371
0.0349423
0.0367376
0.0380731
0.0398729
0.0409341
0.0422225
0.0422586
0.041861
0.0396596
0.0362645
0.0301936
0.0222682
0.0115217
-0.00183568
0.027163
0.0284356
0.0282109
0.0285582
0.0293637
0.0298041
0.031085
0.0315954
0.0330743
0.0338487
0.0353631
0.0362071
0.0373936
0.0379061
0.0381201
0.037283
0.0357941
0.0325807
0.0283159
0.0219755
0.0141471
0.00426323
-0.00773701
0.0272419
0.0278087
0.0281586
0.0281207
0.0291435
0.02928
0.0305684
0.0308698
0.0321378
0.0326653
0.0337892
0.0341949
0.0347461
0.0347362
0.0340253
0.0324224
0.0301646
0.0264138
0.0217553
0.0155665
0.00825869
-0.000588248
-0.0110552
0.0272904
0.0272039
0.0279947
0.0277184
0.0288093
0.0287615
0.0299128
0.0301042
0.0310405
0.0313769
0.0320638
0.0320447
0.0320241
0.0314983
0.0300825
0.0279269
0.0252075
0.021294
0.0165902
0.0108134
0.004279
-0.0033786
-0.0122422
0.0272857
0.026639
0.0277231
0.0273358
0.0283529
0.0282329
0.0291313
0.0292686
0.0298294
0.0299713
0.0302339
0.0298069
0.0293074
0.0283309
0.0264365
0.0239654
0.0210298
0.0172105
0.0127481
0.00755796
0.00192012
-0.00449297
-0.0118153
0.0272013
0.0261355
0.0273326
0.02696
0.0277825
0.0276782
0.0282581
0.0283382
0.0285438
0.0284643
0.0283462
0.0275585
0.0266794
0.0253639
0.0232106
0.020619
0.0176705
0.0141248
0.0101004
0.00559834
0.00086284
-0.0043762
-0.0103087
0.0270192
0.0257041
0.0268252
0.0265704
0.0271199
0.0270538
0.0273293
0.0273047
0.0272104
0.0268955
0.0264543
0.0253853
0.0242276
0.0227045
0.0204684
0.017915
0.0151169
0.0119491
0.00845555
0.00466568
0.000773382
-0.00343018
-0.00816117
0.0267274
0.0253432
0.0262224
0.0261439
0.0264087
0.0263428
0.0263671
0.0261879
0.0258497
0.0253119
0.0246165
0.0233629
0.0220311
0.0204156
0.0182323
0.0158369
0.0132964
0.0105505
0.00760469
0.00449013
0.00134929
-0.00197917
-0.00571245
0.0263231
0.0250356
0.0255584
0.0256099
0.0256759
0.0255524
0.025382
0.0250286
0.0244906
0.0237728
0.022893
0.0215512
0.0201392
0.0185287
0.0164922
0.0143273
0.0120993
0.00977698
0.0073478
0.00483421
0.00233512
-0.000276735
-0.00320307
0.025815
0.0247586
0.0248964
0.0249527
0.0249162
0.0247063
0.0243826
0.0238701
0.0231757
0.0223305
0.0213365
0.0199814
0.018572
0.0170381
0.0152039
0.013306
0.0114039
0.00947709
0.00750502
0.00550089
0.00353038
0.00149211
-0.000792421
0.0252235
0.024435
0.0242819
0.0242153
0.0241134
0.0238128
0.0233755
0.0227493
0.0219468
0.0210246
0.0199781
0.0186675
0.0173226
0.0159107
0.0143053
0.012683
0.0110911
0.00951416
0.00792958
0.0063444
0.00479982
0.00321461
0.00143778
0.0245802
0.0240181
0.023707
0.0235015
0.0232874
0.0228967
0.0223773
0.021685
0.0208306
0.0198785
0.0188304
0.0176035
0.0163648
0.0151014
0.0137264
0.0123647
0.0110509
0.00977223
0.00850734
0.00725965
0.00605283
0.00482276
0.00344647
0.0239166
0.0235095
0.0231456
0.0228138
0.0224705
0.0219973
0.0214166
0.0206929
0.0198336
0.018897
0.0178912
0.0167742
0.015665
0.0145587
0.0133968
0.0122664
0.01119
0.010156
0.0091466
0.00816334
0.00721942
0.00626467
0.00520228
0.0232559
0.0229415
0.0225627
0.0221462
0.021695
0.0211515
0.0205258
0.019795
0.0189632
0.018077
0.0171466
0.0161549
0.0151842
0.014232
0.0132579
0.0123221
0.0114382
0.0105961
0.00978303
0.00900163
0.00825905
0.00751617
0.00670106
0.0226138
0.0223483
0.0219653
0.0215013
0.0209814
0.0203881
0.0197345
0.0190111
0.0182227
0.0174046
0.0165664
0.0157038
0.0148705
0.0140627
0.0132512
0.0124748
0.0117414
0.0110448
0.0103787
0.00974762
0.00915551
0.00857446
0.00795153
0.0220046
0.0217631
0.0213794
0.0208938
0.0203394
0.0197223
0.0190601
0.0183561
0.0176186
0.0168741
0.0161301
0.0153863
0.0146731
0.0139852
0.0133047
0.0126552
0.0120415
0.0114599
0.0109084
0.0103915
0.00991271
0.00945289
0.00897517
0.0214475
0.0212179
0.0208368
0.0203459
0.0197806
0.0191607
0.0185075
0.017833
0.0171484
0.0164736
0.015814
0.0151682
0.0145512
0.0139592
0.0133823
0.0128337
0.012316
0.011827
0.0113654
0.0109354
0.0105397
0.0101674
0.00979521
0.0209695
0.0207478
0.0203722
0.0198855
0.0193238
0.018714
0.0180794
0.017436
0.0167967
0.0161774
0.0155823
0.0150096
0.0144659
0.013949
0.0134538
0.0129868
0.012549
0.0121378
0.01175
0.0113863
0.0110497
0.0107372
0.0104389
0.0206041
0.0203865
0.0200179
0.0195404
0.0189897
0.0183954
0.0177823
0.0171688
0.0165667
0.0159882
0.0154379
0.0149156
0.014423
0.0139577
0.0135171
0.0131034
0.0127173
0.0123566
0.0120188
0.0117033
0.0114117
0.0111443
0.0108977
0.0204044
0.0201916
0.0198248
0.0193485
0.0188
0.0182113
0.0176079
0.0170073
0.0164223
0.0158647
0.0153415
0.0148528
0.0143948
0.0139634
0.0135566
0.0131752
0.0128206
0.0124921
0.012188
0.0119076
0.0116519
0.011422
0.0112179
0.0117278
-0.0128357
-0.0368203
-0.0586667
-0.080941
-0.102544
-0.122933
-0.140268
0.00234302
-0.0196563
-0.0446056
-0.0638597
-0.079504
-0.0942807
-0.108062
-0.119337
-0.00704433
-0.0246289
-0.0450219
-0.0598402
-0.0699693
-0.0798581
-0.0894072
-0.0977007
-0.0145854
-0.0286446
-0.043333
-0.0545119
-0.0619775
-0.0690168
-0.0753277
-0.0807134
-0.0192281
-0.0302962
-0.0400586
-0.0475987
-0.0528469
-0.0576197
-0.0615473
-0.0649362
-0.0211238
-0.0296226
-0.0357125
-0.0403841
-0.0440187
-0.0473657
-0.0499358
-0.0519942
-0.0207886
-0.0271812
-0.0307262
-0.0333411
-0.035718
-0.0380122
-0.039661
-0.0407915
-0.0188909
-0.0236474
-0.0255213
-0.0267426
-0.0281693
-0.0297045
-0.0307806
-0.031376
-0.016049
-0.0195641
-0.0203947
-0.0207265
-0.0214696
-0.0224595
-0.0231719
-0.0234714
-0.0127421
-0.0153312
-0.0155504
-0.0153544
-0.015624
-0.0162203
-0.0166861
-0.0168271
-0.00932267
-0.0112272
-0.0111168
-0.0106416
-0.0106041
-0.0109228
-0.0112253
-0.0113014
-0.00602116
-0.00742125
-0.0071581
-0.00656818
-0.00635052
-0.0064831
-0.00667683
-0.00673266
-0.00297624
-0.00400697
-0.00369739
-0.0030882
-0.00277283
-0.00278577
-0.00290909
-0.00296307
-0.000242187
-0.00099849
-0.000697256
-0.000132467
0.00021302
0.000271066
0.000192574
0.000129745
0.00216388
0.00160927
0.00187109
0.00235379
0.00267929
0.00276978
0.00272085
0.00265106
0.00423476
0.00383172
0.00404164
0.00442641
0.00470083
0.00479124
0.00475364
0.00467566
0.00598063
0.00569002
0.00584595
0.0061326
0.00634215
0.00641197
0.00637334
0.00628907
0.00742152
0.00721302
0.00731948
0.00751759
0.00766085
0.00770028
0.00765281
0.0075626
0.00858704
0.00843544
0.0084983
0.00862091
0.0087032
0.00870949
0.00864927
0.00855355
0.00950722
0.00938999
0.00941252
0.00947138
0.00950077
0.00947638
0.00940396
0.00930482
0.0102169
0.0101132
0.0100937
0.0100953
0.010078
0.0100267
0.00994471
0.00984533
0.0107163
0.0106133
0.0105536
0.0105052
0.0104483
0.0103752
0.0102874
0.0101913
0.0110587
0.0109364
0.0108233
0.0107199
0.0106238
0.0105318
0.0104414
0.0103521
-0.398023
-0.406098
-0.414993
-0.426506
-0.442406
-0.463238
-0.486497
-0.506439
-0.399477
-0.405153
-0.411286
-0.419988
-0.43222
-0.447702
-0.465224
-0.480673
-0.399943
-0.403551
-0.406945
-0.412363
-0.420839
-0.431239
-0.440236
-0.44383
-0.399069
-0.400316
-0.400514
-0.401643
-0.404052
-0.406275
-0.4053
-0.398061
-0.394392
-0.392975
-0.389303
-0.385059
-0.380557
-0.374985
-0.366408
-0.352438
-0.383638
-0.379195
-0.371566
-0.362473
-0.352719
-0.342068
-0.328954
-0.311238
-0.365284
-0.358214
-0.347761
-0.335748
-0.323279
-0.310106
-0.294677
-0.275095
-0.33972
-0.331418
-0.319996
-0.307198