/*--------------------------------*- C++ -*----------------------------------*\
| =========                 |                                                 |
| \\      /  F ield         | OpenFOAM: The Open Source CFD Toolbox           |
|  \\    /   O peration     | Version:  2512                                  |
|   \\  /    A nd           | Website:  www.openfoam.com                      |
|    \\/     M anipulation  |                                                 |
\*---------------------------------------------------------------------------*/
FoamFile
{
    version     2.0;
    format      ascii;
    arch        "LSB;label=32;scalar=64";
    class       surfaceScalarField;
    location    "97";
    object      phi;
}
// * * * * * * * * * * * * * * * * * * * * * * * * * * * * * * * * * * * * * //

dimensions      [0 3 -1 0 0 0 0];

oriented        oriented;

internalField   nonuniform List<scalar> 
26232
(
-0.000511403
0.00151571
-0.0010043
-0.00130733
0.00327849
-0.00248255
-0.00184657
0.00405113
-0.0035119
-0.0016519
0.00381217
-0.00400683
-0.000256651
0.00241392
-0.00380917
0.00281287
-0.0003647
-0.00270482
0.00798355
-0.0047235
-0.000447185
0.0156416
-0.0107799
0.00312189
0.0259304
-0.0184572
0.00816836
0.0387239
-0.0274608
0.0146674
0.0535768
-0.0373179
0.022465
0.0697725
-0.0474664
0.0312707
0.0864201
-0.0573497
0.0407021
0.102581
-0.0664981
0.0503374
0.117403
-0.0745831
0.0597612
0.130237
-0.0814477
0.0686135
0.14076
-0.0871154
0.0765919
0.148969
-0.0917763
0.0835672
0.155304
-0.0957192
0.0893849
0.160234
-0.0993662
0.0944354
0.16461
-0.102783
0.0984081
0.168492
-0.106705
0.102823
0.17192
-0.109635
0.106207
-0.114216
0.111776
0.17436
-0.000304631
0.00182034
-0.000623445
0.0035973
-0.000413705
0.00384139
0.000858982
0.00253948
0.00373974
-0.000466835
0.00873919
-0.00536415
0.0162583
-0.0122426
0.0264327
-0.0209544
0.0390256
-0.0310501
0.0534158
-0.041851
0.0686982
-0.0526003
0.0838535
-0.0626217
0.0979358
-0.0714319
0.110235
-0.0787972
0.120386
-0.084734
0.128408
-0.0894701
0.134652
-0.0933589
0.139665
-0.0967895
0.144012
-0.100067
0.148032
-0.103386
0.15199
-0.10674
0.155523
-0.110239
0.159267
-0.11338
-0.117444
0.162495
-9.79355e-05
0.00191827
0.000119996
0.00337937
0.00120822
0.00275317
0.00374815
-4.47806e-07
0.00833992
-0.00505861
0.0154386
-0.0124628
0.0252049
-0.0220089
0.0373314
-0.0330809
0.0510435
-0.0447622
0.065271
-0.0560785
0.078908
-0.0662374
0.0910592
-0.0747729
0.101208
-0.0815806
0.109272
-0.0868615
0.115548
-0.0910099
0.120551
-0.0944729
0.124821
-0.0976286
0.128755
-0.100724
0.132536
-0.103847
0.136206
-0.107056
0.139703
-0.110237
0.143068
-0.113604
0.146371
-0.116683
-0.120443
0.14937
7.26041e-05
0.00184567
0.000821276
0.0026307
0.00284966
0.000724782
0.00680489
-0.00395568
0.0132232
-0.0114769
0.0223446
-0.0215842
0.0338411
-0.0335054
0.0468146
-0.0460543
0.0600491
-0.0579967
0.0723753
-0.0684047
0.0829721
-0.0768341
0.0915123
-0.0833132
0.0981377
-0.0882059
0.103298
-0.0920223
0.107533
-0.0952443
0.11128
-0.0982196
0.114796
-0.101145
0.118167
-0.104095
0.121428
-0.107109
0.124554
-0.110182
0.12764
-0.113324
0.130626
-0.116589
0.133666
-0.119723
-0.12345
0.136673
0.000225125
0.00162054
0.00152671
0.00132911
0.00458582
-0.00233432
0.010046
-0.00941582
0.0182592
-0.0196901
0.0289571
-0.0322822
0.0411672
-0.0457155
0.0535381
-0.0584252
0.0648288
-0.0692874
0.0742686
-0.0778445
0.0816674
-0.0842329
0.0873021
-0.0889479
0.09168
-0.0925838
0.0953029
-0.0956451
0.098527
-0.0984684
0.101546
-0.101239
0.104443
-0.104042
0.107267
-0.106919
0.110038
-0.10988
0.112788
-0.112933
0.115525
-0.11606
0.118209
-0.119273
0.120954
-0.122468
-0.12601
0.123515
0.000398727
0.00122182
0.00232343
-0.000595596
0.00651116
-0.00652205
0.0134846
-0.0163893
0.0231403
-0.0293458
0.0345196
-0.0436615
0.0461505
-0.0573463
0.0566819
-0.0689566
0.0653302
-0.0779357
0.0719655
-0.0844798
0.0769246
-0.089192
0.0807257
-0.0927491
0.0838398
-0.0956979
0.086589
-0.0983944
0.0891562
-0.101036
0.0916334
-0.103716
0.0940683
-0.106477
0.0964749
-0.109325
0.0988581
-0.112263
0.101207
-0.115281
0.103523
-0.118376
0.10581
-0.121561
0.10812
-0.124777
-0.128252
0.110362
0.000620101
0.000601716
0.00325823
-0.00323372
0.0086198
-0.0118836
0.0168857
-0.0246552
0.0272666
-0.0397267
0.0382177
-0.0546126
0.0482219
-0.0673505
0.0563877
-0.0771224
0.062556
-0.0841041
0.0670653
-0.0889891
0.0704309
-0.0925575
0.0731154
-0.0954336
0.0754393
-0.0980217
0.077589
-0.100544
0.079658
-0.103105
0.0816855
-0.105744
0.0836801
-0.108471
0.0856436
-0.111289
0.0875769
-0.114196
0.0894896
-0.117194
0.0913965
-0.120283
0.0932905
-0.123455
0.0952094
-0.126696
-0.130098
0.0970547
0.000892851
-0.000291135
0.00430492
-0.00664579
0.0107479
-0.0183266
0.0198111
-0.0337184
0.0300161
-0.0499317
0.0396398
-0.0642364
0.0475668
-0.0752775
0.0535067
-0.0830623
0.0577465
-0.0883439
0.0607939
-0.0920365
0.0631232
-0.0948868
0.065071
-0.0973814
0.0668343
-0.099785
0.0685094
-0.102219
0.0701351
-0.10473
0.0717237
-0.107332
0.073282
-0.110029
0.0748152
-0.112822
0.0763291
-0.11571
0.0778276
-0.118692
0.0793083
-0.121764
0.0807761
-0.124923
0.0822461
-0.128166
-0.131517
0.0836654
0.00120135
-0.00149249
0.00537721
-0.0108216
0.0126292
-0.0255785
0.0218201
-0.0429093
0.0310728
-0.0591844
0.0389297
-0.0720933
0.0448426
-0.0811904
0.0489786
-0.0871983
0.0518224
-0.0911877
0.0538701
-0.0940842
0.0554876
-0.0965043
0.0568918
-0.0987856
0.0581896
-0.101083
0.0594261
-0.103456
0.0606187
-0.105923
0.0617757
-0.108489
0.0629012
-0.111155
0.0639983
-0.113919
0.0650703
-0.116782
0.066121
-0.119743
0.0671583
-0.122801
0.068187
-0.125951
0.0692107
-0.12919
-0.132509
0.0702027
0.00152324
-0.00301573
0.00635671
-0.0156551
0.0139943
-0.0332161
0.0226642
-0.0515793
0.0305066
-0.0670268
0.0365578
-0.0781445
0.0407554
-0.0853879
0.043518
-0.089961
0.0453617
-0.0930313
0.0466944
-0.0954168
0.047767
-0.0975769
0.048707
-0.0997256
0.0495702
-0.101946
0.0503789
-0.104264
0.0511424
-0.106686
0.0518652
-0.109212
0.0525514
-0.111841
0.0532058
-0.114574
0.053834
-0.11741
0.054441
-0.12035
0.0550283
-0.123389
0.0555986
-0.126522
0.0561534
-0.129745
-0.13304
0.0566841
0.00182708
-0.00484281
0.0071194
-0.0209474
0.0146641
-0.0407608
0.0223447
-0.0592599
0.0286276
-0.0733097
0.0330497
-0.0825666
0.0358718
-0.08821
0.0376045
-0.0916937
0.0387065
-0.0941334
0.0394795
-0.0961898
0.0400835
-0.0981809
0.0405903
-0.100232
0.0410287
-0.102384
0.0414102
-0.104646
0.0417407
-0.107017
0.0420251
-0.109496
0.0422681
-0.112084
0.0424746
-0.11478
0.0426491
-0.117585
0.0427954
-0.120496
0.0429182
-0.123511
0.0430198
-0.126623
0.0430966
-0.129822
-0.133093
0.0431504
0.00208492
-0.00692773
0.00757204
-0.0264346
0.0145984
-0.0477871
0.0210429
-0.0657044
0.0258186
-0.0780854
0.0288597
-0.0856077
0.0306001
-0.0899505
0.0315418
-0.0926353
0.0320532
-0.0946447
0.0323432
-0.0964799
0.0325091
-0.0983469
0.0325903
-0.100314
0.0326022
-0.102396
0.0325524
-0.104596
0.0324457
-0.10691
0.0322866
-0.109337
0.0320791
-0.111877
0.0318278
-0.114529
0.0315378
-0.117295
0.0312141
-0.120173
0.0308605
-0.123158
0.0304788
-0.126242
0.0300692
-0.129412
0.0296413
-0.132665
-0.000813621
-0.00387668
0.0046903
-0.00256552
-0.00586569
0.00761758
-0.00494322
-0.00496846
0.00734617
-0.00780044
-0.00287345
0.00573067
-0.0110576
-0.000398804
0.00365594
-0.014613
0.00224987
0.00130554
-0.0184421
0.0051983
-0.00136919
-0.0224659
0.00859311
-0.00456926
-0.0266151
0.0125206
-0.00837146
-0.0307986
0.0170124
-0.0128289
-0.0348989
0.022062
-0.0179617
-0.0387705
0.0276254
-0.0237539
-0.0422387
0.0336135
-0.0301453
-0.0450997
0.0398839
-0.0370229
-0.047121
0.0462359
-0.0442146
-0.0480458
0.0524097
-0.0514849
-0.0476014
0.0580907
-0.0585351
-0.045511
0.0629185
-0.0650089
-0.0415164
0.0665107
-0.0705053
-0.0354097
0.0684937
-0.0746004
-0.0270387
0.0685168
-0.0768878
-0.0163276
0.0663202
-0.0770312
-0.00331186
0.0617448
-0.0747606
0.0546068
0.012024
-0.0699426
-0.000775301
-0.00310138
-0.00236672
-0.00427427
-0.00448646
-0.00284872
-0.00703345
-0.00032646
-0.00993697
0.00250472
-0.0131226
0.00543552
-0.0164877
0.00856334
-0.0199277
0.0120331
-0.0233337
0.0159266
-0.0265784
0.0202571
-0.0295074
0.0249909
-0.0319372
0.0300553
-0.033658
0.0353343
-0.0344376
0.0406635
-0.0340296
0.0458279
-0.0321837
0.0505638
-0.0286596
0.0545666
-0.0232519
0.0575109
-0.0157979
0.0590567
-0.00620964
0.0589054
0.00549928
0.0568078
0.0193076
0.0525119
0.0347838
0.0462686
0.0372386
0.0521519
-0.000644029
-0.00245735
-0.00190517
-0.00301312
-0.00354413
-0.00120977
-0.00550718
0.00163659
-0.00776006
0.0047576
-0.0102181
0.00789356
-0.0127467
0.0110919
-0.015197
0.0144834
-0.0174201
0.0181498
-0.0192599
0.0220969
-0.0205415
0.0262725
-0.0210681
0.0305819
-0.0206242
0.0348905
-0.0189841
0.0390235
-0.0159231
0.0427668
-0.0112396
0.0458802
-0.00475904
0.048086
0.0036453
0.0491065
0.0140113
0.0486906
0.0263677
0.046549
0.0404689
0.0427067
0.0563477
0.0366331
0.0733481
0.0292681
0.0189738
0.0916129
-0.000470727
-0.00198662
-0.0013269
-0.00215694
-0.00237461
-0.00016206
-0.00359549
0.00285747
-0.00499038
0.00615249
-0.00649147
0.00939465
-0.00795206
0.0125525
-0.00918749
0.0157188
-0.0100106
0.0189729
-0.01024
0.0223263
-0.00969126
0.0257238
-0.00817741
0.029068
-0.00550441
0.0322175
-0.00148317
0.0350022
0.00405778
0.0372259
0.0112726
0.0386654
0.0202494
0.0391092
0.0310425
0.0383135
0.0435469
0.0361863
0.057776
0.0323199
0.0732642
0.0272185
0.09012
0.0197773
0.107449
0.0119387
0.00102432
0.125399
-0.000307572
-0.00167905
-0.00078854
-0.00167597
-0.00127164
0.000321041
-0.00174056
0.00332639
-0.00222249
0.00663442
-0.00268214
0.0098543
-0.00299424
0.0128646
-0.00296889
0.0156935
-0.00239698
0.018401
-0.00107811
0.0210074
0.00117023
0.0234754
0.00452731
0.025711
0.00915396
0.0275908
0.0151924
0.0289638
0.0227561
0.0296623
0.0319083
0.0295132
0.0426614
0.028356
0.0549708
0.0260041
0.0686505
0.0225066
0.0836397
0.0173306
0.0993302
0.011528
0.115901
0.00320665
0.132427
-0.00458787
-0.0164177
0.149869
-0.000196388
-0.00148266
-0.00042239
-0.00144997
-0.000495076
0.000393726
-0.000369943
0.00320125
-6.63684e-05
0.00633084
0.00042148
0.00936645
0.00117733
0.0121088
0.00235648
0.0145143
0.00415374
0.0166037
0.00676825
0.0183929
0.0103834
0.0198603
0.0151521
0.0209422
0.0211994
0.0215435
0.0286135
0.0215497
0.0374433
0.0208325
0.0476681
0.0192884
0.0592538
0.0167703
0.0720151
0.0132429
0.0858617
0.00865993
0.100488
0.00270383
0.11582
-0.00380307
0.132085
-0.013059
0.148369
-0.0208716
-0.0343816
0.166333
-0.00016176
-0.0013209
-0.000308452
-0.00130328
-0.000218519
0.000303794
0.000207889
0.00277485
0.000990793
0.00554794
0.00213631
0.00822093
0.00368926
0.0105558
0.00575301
0.0124506
0.00847415
0.0138826
0.0120147
0.0148524
0.0165263
0.0153487
0.0221326
0.015336
0.0289201
0.014756
0.0369325
0.0135373
0.0461769
0.011588
0.0566076
0.00885772
0.0682088
0.00516909
0.0808163
0.000635427
0.0946998
-0.00522361
0.109491
-0.0120877
0.12585
-0.0201621
0.143319
-0.0305276
0.162501
-0.0400536
-0.0554023
0.183522
-0.000213088
-0.00110782
-0.000469638
-0.00104673
-0.000491264
0.000325419
-0.000111495
0.00239508
0.000742187
0.00469426
0.00210053
0.00686258
0.00399369
0.00866269
0.0064827
0.00996156
0.00965867
0.0107066
0.0136318
0.0108793
0.0185136
0.0104668
0.0244049
0.00944472
0.0313942
0.0077666
0.0395615
0.00537
0.0489895
0.00216008
0.0598031
-0.00195583
0.072125
-0.00715286
0.0861126
-0.0133521
0.101994
-0.0211048
0.119539
-0.0296327
0.139483
-0.0401061
0.160206
-0.0512507
0.183178
-0.0630257
-0.0773454
0.205121
-0.000341102
-0.000766713
-0.000863813
-0.00052402
-0.00121955
0.000681154
-0.00118464
0.00236017
-0.000631487
0.00414111
0.000500658
0.00573044
0.00225804
0.0069053
0.00470062
0.00751899
0.00790152
0.00750571
0.0119754
0.00680537
0.0170718
0.00537044
0.0233691
0.00314739
0.0310921
4.36221e-05
0.0404606
-0.00399846
0.0517063
-0.00908568
0.0650454
-0.0152949
0.0805261
-0.0226336
0.0982568
-0.0310828
0.117833
-0.0406806
0.139025
-0.0508248
0.161136
-0.0622177
0.18259
-0.0727049
0.203871
-0.0843058
-0.0939955
0.220521
-0.00050602
-0.000260693
-0.00135469
0.000324652
-0.00213108
0.00145754
-0.00255945
0.00278854
-0.00245987
0.00404152
-0.00170573
0.0049763
-0.000191348
0.00539092
0.00220252
0.00512511
0.00566409
0.00404415
0.0104227
0.00204677
0.0167693
-0.000976214
0.024984
-0.00506724
0.0353257
-0.0102981
0.0479887
-0.0166615
0.0629945
-0.0240915
0.0802156
-0.032516
0.0992583
-0.0416762
0.119675
-0.0514993
0.140457
-0.0614632
0.161111
-0.0714787
0.179929
-0.0810357
0.196579
-0.089355
0.209812
-0.0975389
-0.102325
0.218142
-0.000629388
0.000368695
-0.00171276
0.00140803
-0.00277284
0.00251762
-0.00347775
0.00349345
-0.00357168
0.00413546
-0.00282601
0.00423063
-0.000995969
0.00356088
0.00218985
0.00193929
0.00706373
-0.000829733
0.01393
-0.00481946
0.0230662
-0.0101125
0.0346497
-0.0166507
0.0486555
-0.0243038
0.0648564
-0.0328624
0.0828083
-0.0420434
0.101853
-0.0515611
0.121198
-0.0610204
0.13992
-0.0702213
0.157054
-0.0785977
0.17193
-0.0863549
0.183553
-0.092658
0.192653
-0.0984553
0.198211
-0.103097
-0.106468
0.202353
-0.000635608
-0.00171013
-0.00270442
-0.0032178
-0.00289152
-0.0013657
0.00174799
0.00680917
0.0141478
0.0239957
0.0363482
0.0509682
0.0673665
0.0848415
0.102559
0.119612
0.135183
0.148529
0.159316
0.167397
0.173147
0.177515
0.180625
0.185933
0.0335161
0.0619745
-0.0834667
0.0542302
0.0412473
-0.0619614
0.0738931
0.0172428
-0.0369056
0.0906537
-0.00959258
-0.00716805
0.104385
-0.0405574
0.0268256
0.116251
-0.0777506
0.0658856
0.126463
-0.116918
0.106705
0.133936
-0.148962
0.141489
0.138086
-0.167656
0.163506
0.139003
-0.173435
0.172518
0.137396
-0.172388
0.173995
0.13491
-0.169448
0.171934
0.132181
-0.165504
0.168233
0.127689
-0.164561
0.169053
0.120546
-0.172436
0.179579
0.113116
-0.183835
0.191265
0.109691
-0.178405
0.18183
0.112195
-0.136806
0.134302
0.119876
-0.0598681
0.0521864
0.13053
0.0319643
-0.0426184
0.142028
0.11259
-0.124088
0.151351
0.166708
-0.176031
0.15709
0.196438
-0.202178
0.160709
0.206963
-0.210581
0.16286
0.206047
-0.208199
0.162133
0.210401
-0.209674
0.157668
0.233142
-0.228677
0.150275
0.259878
-0.252485
0.141464
0.256243
-0.247432
0.133469
0.198289
-0.190293
0.129536
0.090125
-0.0861917
0.131156
-0.0354206
0.0338002
0.136564
-0.141807
0.136398
0.143069
-0.208854
0.20235
0.147015
-0.242121
0.238175
0.144598
-0.255823
0.25824
0.135257
-0.268296
0.277637
0.123019
-0.267801
0.280039
0.11348
-0.227605
0.237144
0.111129
-0.134882
0.137232
0.117314
-0.0083332
0.00214835
0.126823
0.103209
-0.112718
0.131653
0.193015
-0.197845
0.129161
0.25553
-0.253038
0.123364
0.301788
-0.295991
0.119073
0.285181
-0.28089
0.119376
0.19871
-0.199012
0.122468
0.0770353
-0.0801281
0.124391
-0.0877307
0.0858082
0.123094
-0.200612
0.20191
0.120355
-0.315568
0.318307
0.11911
-0.312278
0.313523
0.118917
-0.203508
0.203701
0.116905
-0.0532987
0.0553111
0.113434
0.244253
-0.240783
0.111968
0.283322
-0.281856
0.11108
0.300834
-0.299945
0.10806
0.249295
-0.246274
0.102466
-0.152506
0.158099
-0.188691
0.190719
0.0711179
0.0430086
0.0889825
0.0233827
0.104907
0.00131837
0.117726
-0.0224122
0.128053
-0.0508838
0.13673
-0.0864276
0.143209
-0.123397
0.14614
-0.151892
0.145446
-0.166963
0.142238
-0.170227
0.137327
-0.167478
0.131959
-0.164079
0.126933
-0.160477
0.120559
-0.158187
0.11121
-0.163088
0.100922
-0.173547
0.094827
-0.17231
0.0965466
-0.138525
0.105559
-0.0688806
0.119705
0.0178185
0.134954
0.0973408
0.14756
0.154102
0.156382
0.187616
0.162761
0.200585
0.167238
0.20157
0.169008
0.208631
0.167471
0.23468
0.162587
0.264762
0.154877
0.263953
0.146324
0.206842
0.140099
0.0963501
0.138479
-0.0338001
0.140342
-0.14367
0.143623
-0.212134
0.145358
-0.243856
0.141729
-0.252194
0.131403
-0.25797
0.118697
-0.255095
0.109888
-0.218796
0.109246
-0.13424
0.117188
-0.0162752
0.127617
0.0927803
0.132955
0.187677
0.131067
0.257418
0.125695
0.307159
0.120797
0.290079
0.120389
0.199118
0.123302
0.0741217
0.124985
-0.0894132
0.123086
-0.198713
0.119336
-0.311818
0.118259
-0.311201
0.118066
-0.203315
0.117452
-0.0526853
0.115156
0.246549
0.113267
0.285211
0.113026
0.301074
0.109302
0.253019
0.102806
-0.14601
-0.186985
0.106734
0.0278877
0.120301
0.00981579
0.131941
-0.0103224
0.141201
-0.0316719
0.148867
-0.0585493
0.154849
-0.09241
0.157752
-0.1263
0.156284
-0.150424
0.151073
-0.161751
0.144297
-0.163451
0.136985
-0.160166
0.12948
-0.156575
0.122687
-0.153684
0.115314
-0.150813
0.104681
-0.152455
0.0919401
-0.160806
0.0829177
-0.163287
0.0830902
-0.138698
0.0929132
-0.0787036
0.109535
0.00119632
0.127768
0.0791082
0.14346
0.138411
0.155337
0.175738
0.164501
0.19142
0.171525
0.194546
0.17609
0.204066
0.177715
0.233054
0.175595
0.266882
0.169281
0.270267
0.160271
0.215851
0.151658
0.104964
0.146562
-0.0287042
0.14479
-0.141898
0.144731
-0.212075
0.14425
-0.243376
0.139805
-0.247749
0.128931
-0.247096
0.11575
-0.241914
0.107329
-0.210374
0.108202
-0.135113
0.117475
-0.0255489
0.128819
0.0814368
0.134944
0.181552
0.133851
0.258511
0.12882
0.31219
0.12316
0.295739
0.121833
0.200446
0.124496
0.0714585
0.126081
-0.0909984
0.123651
-0.196283
0.118767
-0.306933
0.117719
-0.310154
0.117641
-0.203237
0.118428
-0.0534719
0.117384
0.247592
0.115142
0.287453
0.115412
0.300805
0.111189
0.257242
0.103879
-0.1387
-0.185418
0.136698
0.016589
0.146184
0.000329456
0.15413
-0.0182685
0.16094
-0.0384815
0.167122
-0.0647319
0.171035
-0.0963226
0.170304
-0.125569
0.164613
-0.144733
0.155635
-0.152774
0.14588
-0.153695
0.13669
-0.150975
0.127742
-0.147628
0.119404
-0.145346
0.111435
-0.142845
0.100933
-0.141952
0.0870808
-0.146954
0.0752431
-0.15145
0.072786
-0.136241
0.0820116
-0.0879292
0.0998002
-0.0165923
0.120286
0.0586223
0.138664
0.120033
0.153413
0.160989
0.165231
0.179602
0.174798
0.184979
0.182421
0.196443
0.187653
0.227823
0.188742
0.265793
0.184213
0.274795
0.174828
0.225237
0.16386
0.115932
0.155289
-0.0201334
0.149945
-0.136554
0.14651
-0.20864
0.143604
-0.240471
0.138529
-0.242674
0.127635
-0.236201
0.114111
-0.22839
0.105686
-0.201949
0.107507
-0.136934
0.117931
-0.0359729
0.13032
0.0690479
0.137545
0.174326
0.137388
0.258669
0.132662
0.316917
0.126198
0.302203
0.123772
0.202872
0.126051
0.0691797
0.12765
-0.0925981
0.124783
-0.193416
0.118676
-0.300826
0.117475
-0.308953
0.117609
-0.203372
0.119835
-0.0556981
0.120078
0.24735
0.11754
0.28999
0.118235
0.30011
0.113688
0.261789
0.10566
-0.130673
-0.183885
0.15834
0.00811878
0.1659
-0.00723091
0.172004
-0.0243726
0.177838
-0.0443155
0.182728
-0.0696215
0.183931
-0.0975263
0.17926
-0.120898
0.16973
-0.135203
0.158038
-0.141082
0.146403
-0.142061
0.136033
-0.140605
0.126458
-0.138052
0.117311
-0.136199
0.108892
-0.134426
0.0991197
-0.13218
0.0856365
-0.133471
0.0718437
-0.137657
0.0660885
-0.130485
0.0733134
-0.0951541
0.090723
-0.0340018
0.112532
0.0368135
0.133042
0.0995232
0.150269
0.143761
0.164416
0.165456
0.176422
0.172973
0.187137
0.185728
0.196025
0.218935
0.200696
0.261122
0.198814
0.276677
0.189922
0.234129
0.176568
0.129286
0.164441
-0.00800637
0.155511
-0.127624
0.148794
-0.201923
0.143378
-0.235055
0.137745
-0.237041
0.127343
-0.225798
0.11369
-0.214738
0.10483
-0.193089
0.106971
-0.139076
0.118314
-0.0473159
0.131876
0.0554868
0.140614
0.165588
0.141764
0.257519
0.137442
0.321238
0.13011
0.309535
0.126347
0.206634
0.127991
0.0675357
0.129645
-0.0942516
0.126453
-0.190224
0.11906
-0.293433
0.117551
-0.307444
0.117921
-0.203742
0.121603
-0.0593804
0.123183
0.245771
0.120409
0.292764
0.121475
0.299044
0.116764
0.2665
0.108118
-0.122027
-0.18231
0.174415
3.70899e-05
0.181542
-0.0143584
0.187786
-0.0306163
0.193042
-0.0495719
0.19566
-0.0722396
0.192977
-0.0948434
0.184238
-0.112158
0.17164
-0.122605
0.158257
-0.127699
0.145751
-0.129555
0.13478
-0.129634
0.125076
-0.128349
0.115776
-0.126899
0.107228
-0.125878
0.0986769
-0.123629
0.0869194
-0.121714
0.0725419
-0.123279
0.0632666
-0.12121
0.0668118
-0.0986993
0.082408
-0.049598
0.104441
0.0147809
0.126422
0.0775414
0.145662
0.124521
0.161802
0.149316
0.175918
0.158856
0.189429
0.172217
0.201984
0.20638
0.210409
0.252696
0.211341
0.275745
0.203785
0.241685
0.189428
0.143644
0.17382
0.00760115
0.161207
-0.115011
0.151426
-0.192142
0.143457
-0.227086
0.137125
-0.230708
0.127674
-0.216347
0.114309
-0.201373
0.104651
-0.183432
0.106398
-0.140822
0.118352
-0.0592703
0.133257
0.0405819
0.143866
0.15498
0.146604
0.254781
0.142932
0.32491
0.134897
0.31757
0.129682
0.211849
0.130361
0.0668569
0.132005
-0.0958959
0.128613
-0.186832
0.119905
-0.284724
0.117928
-0.305467
0.118528
-0.204342
0.123623
-0.0644749
0.126611
0.242782
0.123682
0.295693
0.125089
0.297638
0.120374
0.271215
0.111215
-0.112868
-0.180638
0.191421
-0.00786184
0.198282
-0.0212194
0.203472
-0.0358068
0.206159
-0.0522587
0.204523
-0.0706037
0.197074
-0.0873946
0.184844
-0.099928
0.170563
-0.108324
0.156677
-0.113813
0.144151
-0.117028
0.1331
-0.118584
0.123554
-0.118803
0.11467
-0.118014
0.106104
-0.117312
0.098336
-0.115861
0.0891924
-0.11257
0.0763682
-0.110455
0.0645497
-0.109392
0.0630756
-0.0972253
0.0750619
-0.0615843
0.0961237
-0.00628085
0.1189
0.0547653
0.139654
0.103767
0.15728
0.131689
0.172997
0.14314
0.188915
0.156299
0.204877
0.190418
0.21723
0.240343
0.221686
0.271289
0.215985
0.247386
0.201257
0.158372
0.182575
0.0262835
0.1666
-0.0990371
0.15412
-0.179662
0.143772
-0.216738
0.136476
-0.223412
0.128216
-0.208087
0.115709
-0.188866
0.105107
-0.17283
0.105696
-0.141411
0.117828
-0.0714025
0.134163
0.0242466
0.147038
0.142105
0.151952
0.249868
0.149391
0.32747
0.140767
0.326194
0.133945
0.218671
0.133202
0.0675995
0.134666
-0.0973591
0.131191
-0.183358
0.121181
-0.274714
0.118567
-0.302853
0.119357
-0.205132
0.125804
-0.0709225
0.130284
0.238303
0.127301
0.298676
0.129028
0.295911
0.124461
0.275782
0.114908
-0.103315
-0.178829
0.210553
-0.0132939
0.214335
-0.0250011
0.215477
-0.0369493
0.213159
-0.0499404
0.20626
-0.0637053
0.194864
-0.0759986
0.180997
-0.0860608
0.166881
-0.0942084
0.153705
-0.100637
0.141832
-0.105155
0.131157
-0.107909
0.121826
-0.109472
0.113603
-0.109791
0.105579
-0.109288
0.0981169
-0.108399
0.0910279
-0.105481
0.0813604
-0.100788
0.0694284
-0.0974596
0.063139
-0.0909359
0.0698356
-0.0682809
0.0876539
-0.0240991
0.110448
0.031971
0.132231
0.0819843
0.151018
0.112902
0.167849
0.126309
0.185355
0.138793
0.204038
0.171735
0.220048
0.224333
0.227784
0.263553
0.224132
0.251037
0.209958
0.172546
0.189766
0.0464752
0.171205
-0.0804757
0.156537
-0.164994
0.144178
-0.204379
0.135641
-0.214875
0.128537
-0.200983
0.117536
-0.177865
0.106188
-0.161482
0.104938
-0.140161
0.116617
-0.0830815
0.134335
0.00652909
0.149673
0.126767
0.157066
0.242474
0.156171
0.328366
0.147483
0.334882
0.139143
0.22701
0.136577
0.0701652
0.137563
-0.0983453
0.134101
-0.179895
0.122844
-0.263457
0.119426
-0.299434
0.12035
-0.206056
0.128037
-0.0786094
0.134079
0.232261
0.131175
0.30158
0.133227
0.293859
0.128964
0.280045
0.119146
-0.0934981
-0.176858
0.221725
-0.0144987
0.220684
-0.0239591
0.21681
-0.0330757
0.209867
-0.0429975
0.199742
-0.0535807
0.18741
-0.0636665
0.174402
-0.0730523
0.161712
-0.0815188
0.149674
-0.0885987
0.138591
-0.0940726
0.128607
-0.097924
0.119694
-0.100559
0.111982
-0.102079
0.10484
-0.102146
0.0977934
-0.101352
0.0916668
-0.0993545
0.0852316
-0.0943524
0.0759317
-0.0881597
0.0672143
-0.0822186
0.0677294
-0.0687959
0.0806666
-0.0370363
0.101755
0.0108821
0.123766
0.0599738
0.143284
0.0933836
0.160644
0.10895
0.178901
0.120536
0.199758
0.150877
0.2195
0.204592
0.231481
0.251572
0.231029
0.251489
0.217687
0.185889
0.195848
0.0683139
0.174901
-0.0595292
0.158446
-0.148538
0.144558
-0.190492
0.134587
-0.204903
0.128299
-0.194695
0.11933
-0.168896
0.107795
-0.149947
0.104273
-0.13664
0.114657
-0.0934653
0.133464
-0.0122778
0.151585
0.108646
0.162069
0.23199
0.163458
0.326977
0.15505
0.34329
0.145262
0.236798
0.140435
0.074992
0.140607
-0.0985168
0.137233
-0.176522
0.124829
-0.251053
0.120449
-0.295054
0.121434
-0.207041
0.130236
-0.0874118
0.137928
0.224569
0.135245
0.304263
0.137628
0.291475
0.133814
0.28386
0.123868
-0.0835518
-0.174719
0.216348
-0.0127049
0.21227
-0.0198803
0.206019
-0.0268254
0.197912
-0.0348901
0.188201
-0.0438695
0.177578
-0.0530434
0.166594
-0.0620687
0.155552
-0.0704772
0.144725
-0.0777713
0.134506
-0.0838542
0.125288
-0.0887059
0.117021
-0.0922919
0.109692
-0.0947493
0.103283
-0.0957375
0.097069
-0.0951382
0.0913008
-0.0935862
0.0866819
-0.0897335
0.081135
-0.0826128
0.0736136
-0.0746971
0.0697799
-0.0649622
0.0765339
-0.0437903
0.0936936
-0.00627753
0.114667
0.0390008
0.134209
0.0738412
0.15159
0.0915686
0.16995
0.102177
0.191595
0.129232
0.21359
0.182597
0.229096
0.236066
0.231802
0.248782
0.220345
0.197347
0.199355
0.0893036
0.177425
-0.0375993
0.159598
-0.130711
0.144649
-0.175543
0.133213
-0.193468
0.127231
-0.188713
0.120579
-0.162244
0.109629
-0.138996
0.103821
-0.130832
0.112101
-0.101745
0.13138
-0.0315569
0.152019
0.0880064
0.165718
0.218292
0.170126
0.322569
0.163068
0.350348
0.15212
0.247746
0.144845
0.0822669
0.143716
-0.0973879
0.140471
-0.173277
0.127063
-0.237645
0.121575
-0.289567
0.122565
-0.20803
0.132295
-0.0971417
0.141672
0.215192
0.139384
0.306551
0.142154
0.288705
0.138944
0.28707
0.129012
-0.0736196
-0.172422
0.20018
-0.0105312
0.196169
-0.0158695
0.190721
-0.0213773
0.184081
-0.0282506
0.176311
-0.036099
0.167648
-0.0443806
0.158288
-0.0527088
0.148514
-0.0607034
0.138783
-0.0680404
0.129496
-0.0745668
0.120963
-0.0801726
0.113289
-0.0846177
0.106342
-0.0878032
0.100277
-0.0896724
0.0949183
-0.0897791
0.0898034
-0.0884713
0.0857374
-0.0856675
0.0827799
-0.0796552
0.078727
-0.0706443
0.0745097
-0.0607449
0.0764602
-0.0457408
0.088348
-0.0181654
0.106764
0.0205846
0.125448
0.0551576
0.142095
0.0749212
0.159322
0.0849503
0.181257
0.107297
0.206263
0.157591
0.225744
0.216585
0.231857
0.24267
0.222486
0.206717
0.201549
0.11024
0.178155
-0.0142049
0.159452
-0.112008
0.144149
-0.16024
0.13154
-0.180859
0.125307
-0.18248
0.120944
-0.15788
0.111353
-0.129406
0.103606
-0.123085
0.10898
-0.10712
0.128008
-0.0505845
0.151368
0.0646461
0.16882
0.20084
0.176428
0.314961
0.171126
0.355651
0.159345
0.259526
0.149499
0.0921135
0.146755
-0.0946443
0.143658
-0.17018
0.12952
-0.223507
0.122801
-0.282848
0.123676
-0.208905
0.134185
-0.10765
0.145314
0.204063
0.14355
0.308315
0.146735
0.28552
0.144276
0.289529
0.134516
-0.0638594
-0.169987
0.184166
-0.00876399
0.180959
-0.0126626
0.176878
-0.0172961
0.171681
-0.0230541
0.16531
-0.0297275
0.157958
-0.0370291
0.149863
-0.0446138
0.141354
-0.0521941
0.132812
-0.0594989
0.124556
-0.0663103
0.116771
-0.0723882
0.109622
-0.077468
0.103124
-0.0813055
0.0973052
-0.0838538
0.0923311
-0.084805
0.0879323
-0.0840725
0.0841371
-0.0818724
0.0818325
-0.0773506
0.0803419
-0.0691537
0.0783311
-0.0587341
0.0784212
-0.0458309
0.0851187
-0.0248629
0.0992553
0.00644807
0.115895
0.0385177
0.131328
0.0594882
0.146871
0.0694073
0.166537
0.0876311
0.190906
0.133222
0.213925
0.193565
0.225799
0.230796
0.220412
0.212105
0.201899
0.128753
0.179439
0.00825575
0.159735
-0.0923041
0.144005
-0.14451
0.130367
-0.167221
0.123214
-0.175327
0.120648
-0.155314
0.112896
-0.121654
0.103745
-0.113933
0.106025
-0.1094
0.123305
-0.0678644
0.148026
0.0399249
0.169061
0.179805
0.181149
0.302873
0.179195
0.357605
0.16741
0.271311
0.155026
0.104498
0.150077
-0.0896956
0.14687
-0.166973
0.132303
-0.20894
0.124204
-0.274749
0.124901
-0.209603
0.135775
-0.118524
0.148608
0.191229
0.147577
0.309347
0.151281
0.281816
0.149732
0.291078
0.140339
-0.0544663
-0.167404
0.210942
-0.00766228
-0.212043
0.210428
-0.0121488
0.209798
-0.0166669
0.208602
-0.0218578
0.206636
-0.027761
0.203849
-0.0342427
0.200281
-0.0410457
0.19601
-0.0479228
0.191083
-0.0545722
0.185558
-0.0607852
0.179477
-0.0663069
0.172895
-0.0708866
0.16594
-0.0743504
0.15869
-0.0766038
0.151244
-0.0773589
0.143813
-0.0766413
0.136225
-0.0742841
0.128623
-0.0697494
0.121531
-0.0620613
0.114212
-0.0514147
0.106322
-0.0379409
0.10078
-0.0193217
0.100825
0.0064037
0.106709
0.032633
0.116423
0.0497742
0.127212
0.0586191
0.137708
0.0771346
0.14902
0.121911
0.162103
0.180483
0.174443
0.218456
0.185029
0.201519
0.193362
0.12042
0.194972
0.00664601
0.191319
-0.0886513
0.182137
-0.135328
0.168914
-0.153997
0.157097
-0.163511
0.149079
-0.147296
0.137389
-0.109965
0.123979
-0.100524
0.118819
-0.104239
0.124743
-0.0737882
0.135996
0.0286715
0.145359
0.170442
0.152592
0.29564
0.155689
0.354507
0.156928
0.270072
0.156846
0.10458
0.158535
-0.0913851
0.157459
-0.165897
0.143338
-0.194819
0.131982
-0.263392
0.12702
-0.204642
0.129321
-0.120825
0.136243
0.184308
0.135401
0.310189
0.139839
0.277378
0.141403
0.289513
0.133731
-0.0467943
-0.163209
0.219542
-0.00681127
-0.220393
0.218565
-0.0111721
0.2176
-0.0157014
0.21623
-0.0204884
0.214226
-0.0257569
0.211468
-0.0314841
0.207924
-0.0375023
0.203618
-0.0436167
0.198588
-0.0495421
0.192881
-0.0550781
0.186595
-0.0600206
0.179858
-0.0641496
0.17281
-0.0673023
0.165659
-0.0694526
0.158443
-0.0701435
0.151283
-0.0694808
0.144281
-0.0672828
0.137328
-0.0627962
0.13085
-0.0555832
0.125245
-0.0458093
0.119823
-0.0325195
0.114705
-0.0142032
0.112953
0.0081557
0.116144
0.0294417
0.123547
0.042371
0.133239
0.0489275
0.144098
0.0662751
0.156623
0.109386
0.170785
0.166321
0.183936
0.205305
0.196034
0.189421
0.206129
0.110325
0.209105
0.00366972
0.203954
-0.0834999
0.193501
-0.124875
0.179453
-0.139949
0.166692
-0.15075
0.158977
-0.139581
0.148492
-0.0994802
0.134828
-0.0868592
0.127983
-0.097394
0.133172
-0.0789775
0.145718
0.0161257
0.157476
0.158684
0.167529
0.285587
0.173091
0.348945
0.175201
0.267963
0.174103
0.105677
0.173793
-0.0910748
0.171777
-0.163882
0.155739
-0.178781
0.142666
-0.250319
0.137328
-0.199303
0.139979
-0.123476
0.14797
0.176316
0.147488
0.310672
0.152534
0.272331
0.155065
0.286982
0.147145
-0.0388744
-0.158436
0.227779
-0.00632883
-0.228262
0.226926
-0.0103188
0.225829
-0.0146042
0.224379
-0.0190389
0.222391
-0.0237689
0.21974
-0.0288324
0.216379
-0.034142
0.212314
-0.0395515
0.207592
-0.0448199
0.202283
-0.0497694
0.196462
-0.0541989
0.190263
-0.0579512
0.183754
-0.0607933
0.177048
-0.0627467
0.170226
-0.0633208
0.163285
-0.0625401
0.156359
-0.060357
0.149522
-0.0559591
0.142909
-0.0489701
0.137289