/*--------------------------------*- C++ -*----------------------------------*\
| =========                 |                                                 |
| \\      /  F ield         | OpenFOAM: The Open Source CFD Toolbox           |
|  \\    /   O peration     | Version:  2312                                  |
|   \\  /    A nd           | Website:  www.openfoam.com                      |
|    \\/     M anipulation  |                                                 |
\*---------------------------------------------------------------------------*/
FoamFile
{
    version     2.0;
    format      ascii;
    arch        "LSB;label=32;scalar=64";
    class       volVectorField;
    location    "49.5";
    object      U;
}
// * * * * * * * * * * * * * * * * * * * * * * * * * * * * * * * * * * * * * //

dimensions      [0 1 -1 0 0 0 0];

internalField   nonuniform List<vector> 
940
(
(-0.142331 0.0338196 1.0948e-19)
(0.0977708 0.0501514 0)
(0.50142 0.115671 6.13839e-20)
(0.826184 0.133585 -4.46227e-20)
(1.02851 0.19627 -6.08135e-20)
(1.27122 0.183511 4.48118e-20)
(-0.0984746 0.0163659 -1.49768e-19)
(0.686388 0.132208 6.35065e-21)
(1.03957 0.23747 -3.79875e-20)
(1.1992 0.275625 4.15333e-20)
(1.27587 0.272872 0)
(1.21108 0.255846 -3.17059e-20)
(0.337268 0.215852 -1.72844e-20)
(1.0655 0.30788 -8.76016e-21)
(1.16615 0.383116 4.19676e-20)
(1.13211 0.293155 -2.34469e-20)
(1.06047 0.267613 1.06098e-20)
(1.06129 0.227481 0)
(-0.0850494 0.0644522 1.57882e-20)
(-0.173791 0.061773 -1.12913e-20)
(-0.256512 0.0689346 4.78134e-22)
(-0.266162 0.060475 4.08915e-20)
(-0.301813 0.107033 -2.02005e-20)
(-0.228816 0.0615357 0)
(-0.0782438 0.12965 3.37918e-20)
(-0.0454835 0.162864 1.57396e-21)
(-0.130612 0.171323 1.78946e-20)
(0.0407133 0.164815 1.11297e-21)
(-0.00709596 0.154713 -3.94906e-20)
(0.315741 0.123644 5.97402e-20)
(-0.109591 0.0838085 -3.29868e-20)
(-0.0632417 0.147798 0)
(0.00728175 0.106406 -6.71305e-20)
(0.418047 0.12025 4.88012e-20)
(0.40558 0.10908 7.47423e-20)
(0.887537 0.140227 -5.50293e-20)
(-0.197747 0.109094 0)
(-0.16307 0.107371 1.89457e-20)
(-0.148524 -0.019757 1.05449e-22)
(-0.151386 -0.0694504 -2.96627e-20)
(-0.0274312 -0.330635 1.77372e-20)
(-0.0756094 -0.404411 -4.45289e-21)
(0.0738057 0.210121 0)
(0.0419253 0.476752 -2.71402e-21)
(0.282486 -0.0323778 2.42064e-21)
(0.181189 -0.403901 3.42263e-22)
(0.424032 -0.191916 4.38106e-23)
(0.748983 0.161004 0)
(0.712707 0.224514 0)
(0.785933 0.0987882 0)
(0.865509 -0.0743569 0)
(0.93139 -0.105986 2.54914e-23)
(0.25908 0.103682 -4.52002e-20)
(0.277447 0.0831608 4.94322e-20)
(0.38086 -0.00012546 -4.39136e-20)
(0.297034 -0.0906281 3.70679e-20)
(0.448048 -0.304496 -3.24294e-20)
(0.289993 -0.432221 0)
(0.147067 0.0922683 0)
(0.21614 0.389702 3.13136e-22)
(0.682319 -0.000580409 0)
(0.625973 -0.289653 2.13189e-21)
(0.321816 -0.222019 -2.25718e-21)
(0.438031 0.114207 9.5717e-23)
(0.596114 0.188813 0)
(0.841527 0.0730792 1.52419e-23)
(0.929085 -0.075428 0)
(0.934075 -0.104855 -2.54366e-23)
(0.907067 0.10967 -3.94018e-22)
(0.812252 0.0943679 0)
(0.961991 -0.0115606 9.19127e-20)
(0.898311 -0.0336583 -8.08893e-20)
(0.988869 -0.220175 -4.8971e-20)
(1.05477 -0.383087 4.27336e-20)
(0.465776 0.042292 0)
(0.467427 0.282862 -3.47591e-22)
(0.930947 -0.127526 -1.12479e-20)
(1.05338 -0.290028 9.89556e-21)
(0.67845 -0.176124 0)
(0.483031 0.0541581 -1.01825e-22)
(0.704545 0.114475 6.716e-23)
(0.936891 0.02741 -7.45548e-23)
(1.01194 -0.0893519 0)
(0.984675 -0.108152 0)
(1.28164 0.135292 0)
(1.24902 0.114573 0)
(1.27009 0.00659053 0)
(1.26581 -0.0253249 0)
(1.17353 -0.166415 0)
(1.16032 -0.213581 0)
(0.838458 0.132407 0)
(0.978877 0.20826 0)
(1.16752 -0.11707 0)
(1.02818 -0.208981 0)
(0.87687 -0.0843094 0)
(0.74892 0.0671358 0)
(0.915471 0.0708987 0)
(1.04216 0.00626483 0)
(1.03032 -0.083655 0)
(0.990848 -0.101843 0)
(1.21447 0.106193 0)
(1.23064 0.113017 0)
(1.23742 -0.00171849 0)
(1.21668 -0.0148234 0)
(1.17273 -0.0898701 0)
(1.07209 -0.182165 0)
(0.950369 0.105672 0)
(1.16004 0.145244 0)
(1.27052 -0.114711 0)
(1.10132 -0.184733 0)
(0.9605 -0.0823756 0)
(0.94406 0.053144 0)
(1.04315 0.0469015 0)
(1.09013 0.00232297 0)
(1.04199 -0.0781929 0)
(0.987695 -0.101193 0)
(1.16617 0.0969163 0)
(1.18 0.0854016 0)
(1.20219 0.0213449 0)
(1.16143 -0.00883986 0)
(1.16333 -0.0450063 0)
(1.09672 -0.0920899 0)
(1.023 0.0678046 0)
(1.17374 0.0730273 0)
(1.22178 -0.0956062 0)
(1.10537 -0.116711 0)
(1.00152 -0.0380916 0)
(1.01506 0.0478632 0)
(1.07678 0.0354612 0)
(1.08871 0.0045138 0)
(1.05823 -0.0623266 0)
(1.00999 -0.0908526 0)
(1.14684 0.0913846 0)
(1.15607 0.0767259 0)
(1.16901 0.0341872 0)
(1.14658 0.0034068 0)
(1.13935 -0.00922517 0)
(1.10415 -0.0532526 0)
(1.06467 0.0164067 0)
(1.14817 0.0315758 0)
(1.17265 -0.0577973 0)
(1.08701 -0.0801222 0)
(1.02822 -0.0424812 0)
(1.04545 0.0282408 0)
(1.08741 0.0259778 0)
(1.09053 0.00870027 0)
(1.05997 -0.0564514 0)
(1.01879 -0.0909156 0)
(1.14116 0.0712068 0)
(1.15093 0.0563006 0)
(1.16101 0.0322309 0)
(1.15282 0.0118934 0)
(1.14352 0.0022148 0)
(1.12961 -0.0186464 0)
(1.1025 0.00116596 0)
(1.12315 0.00603017 0)
(1.13962 -0.049121 0)
(1.10132 -0.0522744 0)
(1.06199 -0.0236977 0)
(1.06542 0.0199563 0)
(1.09456 0.016638 0)
(1.09764 0.0122424 0)
(1.07568 -0.0398544 0)
(1.03018 -0.0790198 0)
(1.13008 0.0699824 0)
(1.13782 0.0595171 0)
(1.1423 0.0456921 0)
(1.13986 0.0310234 0)
(1.13396 0.0212784 0)
(1.12786 0.00948906 0)
(1.11701 0.00393497 0)
(1.12026 0.00780148 0)
(1.12555 -0.0202027 0)
(1.0979 -0.0222851 0)
(1.07686 -0.0192717 0)
(1.082 0.0122321 0)
(1.10157 0.013864 0)
(1.10079 0.0201775 0)
(1.0883 -0.0262975 0)
(1.05037 -0.0722259 0)
(1.1275 0.0417546 0)
(1.13425 0.0359301 0)
(1.13932 0.0267706 0)
(1.14104 0.0191912 0)
(1.14016 0.00992094 0)
(1.13804 0.00491943 0)
(1.13466 -0.00449704 0)
(1.13004 -0.00369081 0)
(1.13143 -0.0213889 0)
(1.11953 -0.0203535 0)
(1.11053 -0.0197513 0)
(1.10256 9.64816e-05 0)
(1.11813 0.0021063 0)
(1.11671 0.0169946 0)
(1.11518 -0.0168651 0)
(1.07025 -0.064066 0)
(1.13634 0.0518156 0)
(1.14117 0.0483958 0)
(1.14567 0.0422398 0)
(1.14836 0.0381533 0)
(1.15024 0.030072 0)
(1.14978 0.0266657 0)
(1.15068 0.0166828 0)
(1.14816 0.016537 0)
(1.14968 0.0046059 0)
(1.14246 0.00635736 0)
(1.1404 -0.00159669 0)
(1.1331 0.00875583 0)
(1.14625 0.0057136 0)
(1.14255 0.0255966 0)
(1.1463 0.00666375 0)
(1.10719 -0.0412386 0)
(1.15255 0.00518133 0)
(1.15596 0.00376632 0)
(1.16049 0.000936428 0)
(1.16291 -3.15951e-05 0)
(1.16677 -0.00450448 0)
(1.16702 -0.00486273 0)
(1.17025 -0.0110461 0)
(1.16788 -0.00874162 0)
(1.17194 -0.0163689 0)
(1.16504 -0.013244 0)
(1.17199 -0.0161994 0)
(1.15912 -0.00984311 0)
(1.17177 -0.0127711 0)
(1.16261 0.0136723 0)
(1.18676 0.00711356 0)
(1.14167 -0.0403878 0)
(1.26322 0.031279 0)
(1.2655 0.0311666 0)
(1.26938 0.0284437 0)
(1.271 0.0289352 0)
(1.27595 0.0252058 0)
(1.27528 0.0258277 0)
(1.28166 0.0208461 0)
(1.27641 0.0198601 0)
(1.28502 0.017179 0)
(1.27372 0.0145756 0)
(1.28626 0.00994867 0)
(1.26658 0.0159014 0)
(1.29074 0.00345007 0)
(1.25414 0.0116789 0)
(1.314 0.0293531 0)
(1.27943 0.00777209 0)
(1.10429 0.199258 -7.65082e-21)
(1.14508 0.207537 4.86061e-20)
(1.2334 0.196106 0)
(1.11931 0.193941 6.18547e-21)
(1.11889 0.164503 -4.45416e-21)
(1.16615 0.180794 -4.04083e-20)
(1.1068 0.160267 0)
(1.11083 0.122995 -1.05691e-20)
(1.12914 0.148781 9.56409e-21)
(1.10755 0.145743 1.38651e-22)
(1.12171 0.105937 -1.46062e-22)
(1.11989 0.12703 1.82294e-20)
(1.11232 0.112737 3.31108e-22)
(1.1278 0.0839632 0)
(1.12213 0.092167 0)
(1.11176 0.0950647 -3.12353e-22)
(1.12143 0.0789889 5.93112e-22)
(1.12024 0.0812854 0)
(1.11322 0.0579575 1.85046e-24)
(1.12031 0.0482887 -3.01101e-22)
(1.11998 0.0487918 0)
(1.12977 0.0624974 8.14643e-23)
(1.13423 0.0564091 -5.44692e-22)
(1.13237 0.0564685 0)
(1.14507 0.00956218 1.73779e-22)
(1.15045 0.00610371 2.46665e-22)
(1.14841 0.00733713 -5.00857e-22)
(1.25688 0.0358943 0)
(1.2613 0.0345755 0)
(1.2602 0.0332947 2.77744e-22)
(0.987038 0.286793 -1.26728e-20)
(1.00008 0.317678 1.72274e-20)
(0.894004 0.335953 5.95335e-21)
(0.855628 0.439197 -9.92238e-21)
(0.945048 0.520164 0)
(0.758628 0.657497 -7.72659e-20)
(0.9451 0.248803 -8.1003e-22)
(0.967863 0.316291 0)
(1.0059 0.348496 1.36517e-20)
(1.01309 0.474051 6.28507e-21)
(1.06047 0.459509 2.22178e-20)
(0.817236 0.523424 -2.80148e-20)
(1.12001 0.283747 0)
(1.13206 0.310895 6.94088e-21)
(1.06965 0.301931 -1.61961e-20)
(1.06662 0.379906 1.31269e-20)
(1.16152 0.366251 -4.85754e-21)
(0.814014 0.393619 -1.7275e-20)
(0.776211 0.0965158 0)
(0.728939 0.112417 1.96371e-20)
(0.648081 0.129201 -4.28122e-20)
(0.525882 0.151686 4.30133e-20)
(0.376605 0.195889 1.94838e-20)
(0.15396 0.219487 -2.72332e-20)
(0.81059 0.165148 3.61041e-20)
(0.759764 0.19202 3.18272e-20)
(0.757649 0.256587 2.54099e-20)
(0.675392 0.302254 -5.06324e-20)
(0.549752 0.382196 2.25263e-21)
(0.329268 0.47521 -6.24898e-20)
(0.886469 0.224444 2.7838e-20)
(0.775751 0.240134 -3.7845e-20)
(0.728351 0.308359 -4.83478e-20)
(0.764601 0.433462 4.05673e-20)
(0.726872 0.515525 0)
(0.507249 0.631092 1.06626e-20)
(1.01967 0.164813 3.87661e-22)
(0.974986 0.122381 -2.09765e-22)
(0.951154 0.113874 -7.18681e-23)
(0.975164 0.0901288 0)
(0.947537 0.074478 -1.1258e-21)
(0.946528 0.0651626 1.5572e-21)
(0.914599 0.0629615 0)
(0.896186 0.0742954 2.00006e-22)
(0.85645 0.0727445 0)
(0.825669 0.0918979 0)
(0.984703 0.156211 -3.86474e-22)
(1.0205 0.138547 0)
(0.980249 0.106453 -8.85168e-22)
(1.00574 0.104972 1.50183e-21)
(0.96024 0.064433 3.01822e-22)
(0.96532 0.0877658 -1.8665e-22)
(0.925919 0.0653946 0)
(0.905972 0.0987547 -2.1141e-22)
(0.871856 0.0985831 -2.1503e-20)
(0.843519 0.140893 -3.37342e-21)
(0.969195 0.152145 7.5029e-22)
(1.00129 0.134917 -9.52137e-22)
(1.00171 0.10329 0)
(1.01458 0.110424 0)
(1.00462 0.0780735 -3.29442e-22)
(0.944878 0.102392 0)
(0.966657 0.094466 -2.25061e-20)
(0.896997 0.137558 5.9413e-20)
(0.910029 0.144252 -7.91329e-20)
(0.875025 0.212374 5.01716e-20)
(1.00079 0.153272 0)
(0.962164 0.134274 0)
(0.98784 0.0932894 0)
(0.994144 0.111115 0)
(1.00251 0.0790823 0)
(0.982209 0.115185 0)
(0.957939 0.0924828 0)
(0.954887 0.154855 0)
(0.930122 0.146556 0)
(0.950608 0.22198 0)
(1.02028 0.152407 0)
(0.984528 0.141812 0)
(0.975142 0.0863252 0)
(0.984238 0.11396 0)
(0.976286 0.0691318 0)
(1.00587 0.128303 0)
(0.943319 0.104538 0)
(0.985859 0.155274 0)
(0.943363 0.157525 0)
(0.987437 0.192261 0)
(0.990272 0.145389 0)
(1.0252 0.148609 0)
(0.997405 0.0869927 0)
(1.00055 0.120452 0)
(0.994216 0.0626119 0)
(0.986791 0.139788 0)
(0.974437 0.109444 0)
(0.98673 0.148361 0)
(0.975979 0.151715 0)
(0.997216 0.172488 0)
(0.974412 0.138234 0)
(1.01343 0.148899 0)
(1.01427 0.0836274 0)
(1.00468 0.128325 0)
(1.02103 0.0721162 0)
(0.9864 0.142455 0)
(1.01575 0.113687 0)
(1.00197 0.146144 0)
(1.01768 0.144056 0)
(1.01822 0.162447 0)
(0.990274 0.135518 0)
(0.990087 0.145418 0)
(1.01478 0.0783325 0)
(0.997286 0.121205 0)
(1.02374 0.0759592 0)
(1.00265 0.126616 0)
(1.03447 0.10678 0)
(1.02726 0.129035 0)
(1.0487 0.123912 0)
(1.04831 0.136677 0)
(1.0021 0.132679 0)
(0.98304 0.146386 0)
(1.01665 0.0826931 0)
(1.00064 0.119707 0)
(1.02609 0.085488 0)
(1.0194 0.116251 0)
(1.04417 0.104511 0)
(1.04539 0.120884 0)
(1.06339 0.111812 0)
(1.06636 0.122277 0)
(1.00671 0.123513 0)
(0.984731 0.130018 0)
(1.03 0.0704879 0)
(1.01334 0.0930598 0)
(1.04114 0.0668167 0)
(1.03725 0.0827241 0)
(1.05854 0.0721446 0)
(1.0608 0.0813602 0)
(1.07713 0.0729669 0)
(1.07927 0.0791732 0)
(1.00267 0.128011 0)
(0.999861 0.131754 0)
(1.04433 0.0872066 0)
(1.04095 0.0978144 0)
(1.06551 0.080543 0)
(1.06707 0.0868834 0)
(1.08499 0.0783587 0)
(1.08782 0.0821359 0)
(1.10086 0.0755865 0)
(1.10262 0.0781 0)
(1.00174 0.0818144 0)
(1.01379 0.0781474 0)
(1.06132 0.0355848 0)
(1.06182 0.039793 0)
(1.08627 0.023437 0)
(1.08865 0.0277518 0)
(1.10576 0.0200385 0)
(1.10785 0.022916 0)
(1.11987 0.0175166 0)
(1.1207 0.019516 0)
(0.986399 0.102778 0)
(1.11537 0.0848828 0)
(1.16186 0.066399 0)
(1.17399 0.055785 0)
(1.19763 0.0497732 0)
(1.20503 0.0454802 0)
(1.22046 0.0438104 0)
(1.22461 0.0416509 0)
(1.23464 0.0409601 0)
(1.23666 0.0393203 0)
(0.948378 0.223054 -2.02101e-20)
(1.00267 0.206792 3.47548e-22)
(1.08437 0.231699 4.05199e-21)
(0.968705 0.206564 4.87533e-21)
(1.05584 0.202916 -6.75742e-22)
(1.06355 0.203609 -3.27584e-21)
(0.998727 0.180347 2.91647e-21)
(1.05832 0.172659 7.64063e-22)
(1.06385 0.1611 0)
(1.03856 0.157788 8.33689e-21)
(1.07009 0.155633 -4.19227e-23)
(1.08906 0.138524 3.98157e-23)
(1.07065 0.127053 -2.72714e-21)
(1.08804 0.125241 0)
(1.10734 0.107379 -1.76671e-22)
(1.08288 0.11068 0)
(1.09474 0.108628 -9.5922e-24)
(1.10864 0.0935139 1.52667e-22)
(1.09366 0.0704249 0)
(1.10169 0.0683304 -5.45359e-22)
(1.11271 0.0584115 6.05545e-23)
(1.11375 0.0721098 -1.53107e-21)
(1.12023 0.0700266 8.6651e-22)
(1.12887 0.0636213 1.20842e-22)
(1.13054 0.0149882 1.64594e-21)
(1.13581 0.0137577 -4.40326e-22)
(1.1441 0.00945154 2.4554e-22)
(1.24445 0.0392306 -5.80565e-22)
(1.24906 0.0380236 0)
(1.25536 0.0374338 0)
(-0.12468 -0.0325144 -1.37964e-19)
(0.0563964 -0.0861553 1.31678e-19)
(0.672128 -0.251357 2.0955e-20)
(0.375182 -0.0130171 0)
(0.939796 -0.115145 -5.77182e-21)
(1.19881 -0.205164 -1.49729e-20)
(0.812032 -0.0602999 -7.8022e-20)
(1.18761 -0.181343 4.70796e-20)
(1.18347 -0.249014 -3.20788e-20)
(1.06108 -0.0543568 8.20583e-20)
(1.28287 -0.165944 -3.24622e-20)
(1.13768 -0.161427 2.77809e-20)
(1.25791 -0.0817043 6.64815e-20)
(1.24531 -0.142499 -3.20126e-20)
(1.08155 -0.149494 -1.25538e-20)
(1.30392 -0.057852 -4.89915e-20)
(1.09235 -0.101027 3.38447e-20)
(1.08743 -0.123656 0)
(-0.0833439 -0.123628 -1.75275e-20)
(-0.0884007 -0.162145 -8.07817e-20)
(-0.135054 -0.126402 4.22343e-20)
(-0.154415 -0.0684418 -1.4224e-20)
(-0.0380798 -0.157119 -2.68938e-21)
(-0.0262709 -0.13945 0)
(-0.230618 -0.0184837 1.74009e-20)
(-0.0728664 -0.0942875 -2.51375e-20)
(0.239887 -0.0513567 8.61044e-20)
(-0.195471 0.0745253 -4.3904e-20)
(0.182061 -0.0184646 3.49625e-20)
(0.63182 -0.0288369 -3.14983e-20)
(-0.243312 0.092191 2.14509e-20)
(0.120995 0.0661741 0)
(0.740592 0.0250171 -8.00922e-20)
(-0.114545 0.165474 0)
(0.531368 0.0862027 -5.06413e-20)
(1.10081 0.00558661 5.8978e-20)
(-0.136795 0.193663 0)
(0.352689 0.118212 3.86025e-20)
(1.01741 0.0260491 0)
(-0.134716 0.109319 -1.36958e-20)
(0.366453 0.0875656 -2.15974e-20)
(1.02067 0.0470983 0)
(-0.1745 0.00322202 1.13121e-21)
(0.225543 0.0439894 1.93275e-20)
(0.868049 -0.00598022 -1.67553e-22)
(-0.0809623 -0.0260588 1.90796e-20)
(0.36265 0.0198441 -1.35718e-20)
(0.926039 0.0677743 0)
(-0.117944 -0.24383 -1.3267e-20)
(0.246866 -0.170795 1.1883e-20)
(0.765533 -0.115474 3.54591e-20)
(0.106001 -0.336949 4.48692e-21)
(0.438007 -0.109788 0)
(0.864954 -0.10121 -3.11248e-20)
(0.382427 0.187351 0)
(0.816591 0.286833 0)
(1.10587 0.273435 0)
(0.229546 0.45187 8.85463e-22)
(0.756958 0.322372 0)
(1.01943 0.334226 0)
(0.0359143 0.0379497 -7.89905e-22)
(0.334805 -0.0397325 0)
(0.679697 0.0238214 8.0509e-22)
(0.155787 -0.270809 -1.99592e-22)
(0.600271 -0.142528 -3.07872e-21)
(0.967942 -0.0588961 -7.08399e-22)
(0.664219 -0.00653149 -1.95969e-22)
(0.91084 0.145663 3.12372e-21)
(1.17563 0.0981731 0)
(1.04551 0.201401 0)
(1.00485 0.286048 2.11812e-22)
(1.04437 0.230136 -2.25302e-22)
(0.961938 0.197266 0)
(0.990289 0.173615 0)
(0.949789 0.163095 5.2016e-23)
(0.809296 0.10802 0)
(0.839791 0.0716535 5.76792e-25)
(0.852207 0.059133 -4.61559e-23)
(0.853788 -0.0445291 0)
(0.793447 -0.0451849 0)
(0.731536 -0.0422627 0)
(0.934101 -0.0894295 -2.08039e-23)
(0.858521 -0.0861695 2.07616e-23)
(0.798502 -0.0753428 0)
(1.19998 -0.0345524 0)
(1.13455 -0.0398407 0)
(1.10414 -0.0510722 0)
(1.07107 -0.0405866 0)
(1.04017 -0.0305169 0)
(1.01528 -0.0103386 0)
(0.982199 -0.0119688 0)
(0.943894 0.0139224 0)
(0.90345 -0.0100636 0)
(0.749083 0.0227474 0)
(1.21248 0.00294518 0)
(1.13898 -0.00388782 0)
(1.10722 -0.0222435 0)
(1.08079 -0.0274745 0)
(1.0504 -0.0208443 0)
(1.02054 -0.00526466 0)
(0.984633 -0.00770342 0)
(0.943267 0.0168838 0)
(0.901583 -0.00770747 0)
(0.744675 0.0263749 0)
(1.12942 -0.0539229 0)
(1.11314 -0.0282426 0)
(1.10618 -0.0326265 0)
(1.08291 -0.0175912 0)
(1.05844 -0.0151374 0)
(1.02645 0.000837725 0)
(0.989442 -0.00519232 0)
(0.946047 0.0175922 0)
(0.904291 -0.00715237 0)
(0.746323 0.0261044 0)
(1.18642 -0.00978961 0)
(1.13715 0.00671931 0)
(1.10309 -0.0115194 0)
(1.08941 -0.00767812 0)
(1.06197 -0.00564429 0)
(1.02904 0.00705311 0)
(0.9912 0.00124728 0)
(0.944636 0.0221457 0)
(0.902184 -0.00380524 0)
(0.740722 0.0307574 0)
(1.07458 -0.0875529 0)
(1.12482 -0.0505451 0)
(1.109 -0.0185588 0)
(1.08622 0.00380873 0)
(1.06807 0.00275366 0)
(1.03184 0.0143657 0)
(0.99553 0.00489034 0)
(0.94705 0.0243176 0)
(0.904733 -0.0019788 0)
(0.741553 0.0313878 0)
(1.21764 -0.0415027 0)
(1.20887 -0.00993111 0)
(1.14337 0.00183289 0)
(1.0985 0.0201074 0)
(1.06733 0.0164688 0)
(1.03142 0.028435 0)
(0.994663 0.0147093 0)
(0.944571 0.0313429 0)
(0.902188 0.00287841 0)
(0.734213 0.0365177 0)
(1.26622 0.186627 0)
(1.20675 0.152754 0)
(1.15129 0.0952179 0)
(1.10084 0.0725788 0)
(1.07071 0.0451177 0)
(1.02947 0.0397496 0)
(0.994653 0.020236 0)
(0.944991 0.0336481 0)
(0.903732 0.00588284 0)
(0.731836 0.0377684 0)
(1.05422 0.198319 0)
(1.03661 0.195604 0)
(1.07104 0.110946 0)
(1.04907 0.114932 0)
(1.04692 0.0620921 0)
(1.01574 0.0615512 0)
(0.988841 0.0317663 0)
(0.940277 0.041643 0)
(0.901092 0.0115705 0)
(0.721493 0.0397742 0)
(0.92744 0.0180767 0)
(0.997036 0.0521513 0)
(1.00792 0.0375825 0)
(1.02087 0.0632564 0)
(1.01436 0.0423236 0)
(1.00179 0.054866 0)
(0.979454 0.0314378 0)
(0.936215 0.0407357 0)
(0.899995 0.0128511 0)
(0.714659 0.034022 0)
(1.09409 0.0180492 0)
(1.09763 0.0128392 0)
(1.05719 0.0441305 0)
(1.04998 0.0475911 0)
(1.02207 0.0489314 0)
(0.999815 0.0541631 0)
(0.973855 0.0370067 0)
(0.92986 0.043028 0)
(0.89576 0.0166739 0)
(0.703188 0.023759 0)
(1.14944 0.130144 0)
(1.09721 0.0910457 0)
(1.09397 0.0984149 0)
(1.05313 0.0845399 0)
(1.02756 0.0676795 0)
(0.99508 0.0648346 0)
(0.968407 0.0412258 0)
(0.923119 0.0408432 0)
(0.887258 0.0121876 0)
(0.696448 0.00676679 0)
(1.04103 0.205864 0)
(1.01557 0.179817 0)
(1.0353 0.150336 0)
(0.999001 0.132494 0)
(0.995228 0.0962846 0)
(0.969954 0.0880771 0)
(0.951392 0.0559377 0)
(0.907323 0.0478842 0)
(0.872871 0.0070181 0)
(0.693589 -0.00425998 0)
(0.926777 0.136087 0)
(0.924002 0.125666 0)
(0.941232 0.0982336 0)
(0.932816 0.0925561 0)
(0.943681 0.0619929 0)
(0.933653 0.0602115 0)
(0.920704 0.0265636 0)
(0.878654 0.0232235 0)
(0.84749 -0.0220487 0)
(0.694628 -0.0204565 0)
(0.865719 0.0315139 0)
(0.893799 0.0250207 0)
(0.918871 0.010777 0)
(0.92249 0.0213313 0)
(0.926981 0.00840223 0)
(0.917823 0.0173524 0)
(0.902213 -0.00892945 0)
(0.862274 -0.00152057 0)
(0.834489 -0.0410789 0)
(0.722918 -0.0226909 0)
(0.758333 -0.0545045 0)
(0.846404 -0.0520103 0)
(0.921216 -0.0603611 0)
(0.939723 -0.0456917 0)
(0.931896 -0.0580027 0)
(0.911581 -0.0422612 0)
(0.890353 -0.0647971 0)
(0.847258 -0.0447275 0)
(0.821872 -0.0677521 0)
(0.740726 -0.0281588 0)
(0.820852 -0.0719507 0)
(0.88599 -0.0629924 0)
(0.935307 -0.066461 0)
(0.943319 -0.056766 0)
(0.931419 -0.0684566 0)
(0.913504 -0.0530861 0)
(0.89529 -0.0705783 0)
(0.866027 -0.0449042 0)
(0.848224 -0.0595475 0)
(0.808164 -0.0134754 0)
(1.17985 -0.111148 8.58829e-21)
(1.13053 -0.0946476 -6.9433e-21)
(1.06434 -0.0548353 0)
(1.03152 -0.0411342 -2.00894e-22)
(1.01509 -0.0314847 -1.00959e-21)
(0.995687 -0.0120215 1.02272e-21)
(0.968682 -0.0118495 2.96722e-22)
(0.933193 0.0138203 2.49076e-22)
(0.896835 -0.0111276 3.78623e-22)
(0.74365 0.0235993 0)
(1.04427 -0.0935525 -5.20108e-20)
(1.06495 -0.0873747 4.20201e-21)
(1.06412 -0.0633004 1.181e-20)
(1.04173 -0.0454861 2.1162e-22)
(1.01735 -0.028316 0)
(0.997764 -0.00988571 -2.11492e-22)
(0.969312 -0.0114309 9.60966e-22)
(0.934167 0.0135194 -1.7531e-21)
(0.896653 -0.0126267 8.03953e-22)
(0.745611 0.0221366 0)
(1.20002 -0.0493459 6.1955e-20)
(1.11929 -0.0565735 -1.11366e-20)
(1.08614 -0.0492945 -5.84254e-21)
(1.0576 -0.044229 -3.62754e-20)
(1.03158 -0.0317658 1.30033e-20)
(1.00847 -0.0122906 0)
(0.978853 -0.0120247 0)
(0.940787 0.0141692 1.56373e-21)
(0.901227 -0.00984463 -2.87263e-21)
(0.746745 0.0237373 6.39303e-22)
(0.907004 -0.165722 1.24155e-20)
(0.955479 -0.146097 -1.77571e-21)
(1.06597 -0.17067 0)
(1.01777 -0.228418 -1.68798e-20)
(0.957225 -0.199592 -3.80271e-21)
(1.14582 -0.222848 -8.01372e-21)
(0.987614 -0.279115 -1.03852e-20)
(1.01414 -0.242107 -7.07053e-21)
(1.15598 -0.232883 1.86735e-20)
(0.875292 -0.347388 1.42778e-20)
(1.02681 -0.367989 -6.1068e-21)
(1.10727 -0.304222 -1.39295e-21)
(0.898097 -0.426534 0)
(1.09875 -0.390761 -2.48067e-20)
(1.17525 -0.259827 -1.49284e-20)
(0.758177 -0.606918 6.43672e-20)
(0.905291 -0.524908 -1.23856e-20)
(0.919836 -0.349361 2.08849e-20)
(0.788895 0.00421233 0)
(0.833623 -0.0580688 -3.64037e-20)
(0.919442 -0.130151 -2.86042e-20)
(0.731759 -0.00265677 -2.0011e-20)
(0.772485 -0.0792958 0)
(0.880172 -0.161388 3.88924e-20)
(0.659884 -0.0199 4.3699e-20)
(0.714765 -0.127228 -5.48168e-20)
(0.741844 -0.193469 3.45689e-20)
(0.552961 -0.0327309 -7.13745e-20)
(0.674719 -0.194079 5.35664e-20)
(0.704768 -0.291036 -4.75276e-20)
(0.392062 -0.06273 1.58759e-20)
(0.549721 -0.266742 -6.56096e-21)
(0.717167 -0.431737 0)
(0.166497 -0.0564322 2.93004e-20)
(0.319348 -0.337144 1.27472e-19)
(0.51643 -0.561401 1.60174e-21)
(0.993072 0.161645 -2.9626e-22)
(0.964933 0.16294 2.9535e-22)
(0.912411 0.153122 -3.74605e-22)
(0.949686 0.117455 -5.44418e-23)
(0.955805 0.105489 2.44088e-22)
(1.02333 0.116079 4.75408e-22)
(0.965307 0.119058 4.12778e-23)
(0.984758 0.126331 1.78523e-22)
(0.994783 0.111559 5.10576e-22)
(0.953371 0.0878619 0)
(0.931714 0.0659444 -1.15614e-21)
(0.944066 0.0684207 0)
(0.945306 0.0698431 1.0666e-21)
(0.964106 0.0839294 -2.31302e-22)
(0.984402 0.0671248 2.52458e-22)
(0.93775 0.0465373 -1.46864e-21)
(0.931477 0.0306996 -1.54341e-22)
(0.905699 0.0189954 3.58778e-22)
(0.918533 0.0464166 0)
(0.934316 0.054892 0)
(0.960182 0.0310467 1.976e-20)
(0.898343 0.0257405 -1.88741e-22)
(0.914941 0.00732471 1.99503e-22)
(0.891392 -0.0282711 -5.34235e-20)
(0.865412 0.0233632 0)
(0.889987 0.0147252 2.11047e-20)
(0.93038 -0.0369585 3.55067e-20)
(0.833068 0.0115545 0)
(0.861056 -0.0360506 4.08964e-21)
(0.887879 -0.103938 0)
(0.908796 0.159935 0)
(0.961918 0.164064 0)
(0.966739 0.165253 0)
(0.964123 0.162761 0)
(0.964071 0.160348 0)
(0.966802 0.154945 0)
(0.969209 0.144392 0)
(0.97541 0.142641 0)
(0.979436 0.0964398 0)
(0.98442 0.11205 0)
(1.09988 0.114441 0)
(1.03374 0.107379 0)
(0.99193 0.100856 0)
(0.990476 0.0999348 0)
(0.986594 0.100077 0)
(0.98228 0.102646 0)
(0.973268 0.0961172 0)
(0.959568 0.106697 0)
(0.944426 0.0674923 0)
(0.830755 0.0850523 0)
(0.919593 0.110256 0)
(0.933164 0.106187 0)
(0.950655 0.107458 0)
(0.956482 0.103573 0)
(0.95625 0.098732 0)
(0.954616 0.0942621 0)
(0.946294 0.0763473 0)
(0.935683 0.0847937 0)
(0.919093 0.0391077 0)
(0.811344 0.0664834 0)
(1.0194 0.055639 0)
(0.99035 0.0527159 0)
(0.974908 0.0515326 0)
(0.975862 0.0535569 0)
(0.974085 0.0510951 0)
(0.970469 0.0593399 0)
(0.961436 0.0497052 0)
(0.943689 0.0663918 0)
(0.923857 0.0274421 0)
(0.788883 0.0503747 0)
(0.913015 0.0652948 0)
(0.939953 0.0649289 0)
(0.957984 0.064756 0)
(0.951871 0.0631085 0)
(0.948774 0.0520204 0)
(0.949809 0.0530156 0)
(0.941521 0.0343242 0)
(0.927918 0.0504955 0)
(0.907902 0.011743 0)
(0.771527 0.0421687 0)
(0.973127 0.0153759 0)
(0.985103 0.0136956 0)
(0.975534 0.00692103 0)
(0.970918 0.00717959 0)
(0.966197 0.00717791 0)
(0.965943 0.0251091 0)
(0.954723 0.0174231 0)
(0.934114 0.0394345 0)
(0.910356 0.0086813 0)
(0.761571 0.0360643 0)
(0.914779 0.033995 0)
(0.925053 0.0318261 0)
(0.937068 0.0237092 0)
(0.94763 0.0189457 0)
(0.954632 0.0103336 0)
(0.957582 0.0198986 0)
(0.945081 0.00958705 0)
(0.925289 0.0305357 0)
(0.901287 -0.000500921 0)
(0.75643 0.0307025 0)
(0.972035 -0.0444668 0)
(0.981556 -0.0459734 0)
(0.962808 -0.0423356 0)
(0.965141 -0.0296498 0)
(0.969313 -0.0191057 0)
(0.971034 0.0033212 0)
(0.957325 0.000540408 0)
(0.931837 0.0246838 0)
(0.905368 -0.00144087 0)
(0.754268 0.0283176 0)
(0.899404 -0.0247673 0)
(0.918196 -0.0262624 0)
(0.946356 -0.0281567 0)
(0.962569 -0.0231859 0)
(0.968562 -0.0181064 0)
(0.966908 0.000449709 0)
(0.951635 -0.00339089 0)
(0.926904 0.020418 0)
(0.900185 -0.0063072 0)
(0.751856 0.0258593 0)
(0.982801 -0.127179 0)
(0.980957 -0.0925592 0)
(0.966389 -0.0760103 0)
(0.974572 -0.047493 0)
(0.981442 -0.0311278 0)
(0.978569 -0.00740639 0)
(0.961375 -0.00786763 0)
(0.932572 0.0177902 0)
(0.904315 -0.00592458 0)
(0.751709 0.0247923 0)
(0.911193 -0.106937 0)
(0.942045 -0.0896012 5.6108e-21)
(0.968878 -0.0682899 -4.42628e-21)
(0.982892 -0.0421937 -5.18541e-23)
(0.982095 -0.0280957 0)
(0.974448 -0.00773414 0)
(0.956446 -0.00939558 0)
(0.92841 0.0158923 -4.74168e-22)
(0.89999 -0.00964682 4.55401e-22)
(0.749479 0.0233498 -6.66434e-22)
(1.07083 -0.118679 4.54124e-21)
(1.05762 -0.109789 1.20504e-21)
(1.0138 -0.073853 -2.94964e-21)
(0.997804 -0.0448427 1.19932e-22)
(0.991171 -0.0328906 0)
(0.981194 -0.0109469 -1.59237e-22)
(0.960382 -0.0111441 -1.30518e-21)
(0.929183 0.0154999 1.99252e-21)
(0.897783 -0.00967496 -7.52149e-22)
(0.744884 0.0242557 0)
(1.01682 -0.118443 -5.56819e-21)
(0.998232 -0.0943007 4.50152e-21)
(1.01659 -0.0584913 0)
(1.01863 -0.0441157 -1.13903e-22)
(1.00113 -0.0280318 8.42839e-22)
(0.984135 -0.00887928 -5.31511e-22)
(0.960096 -0.0109374 2.50256e-22)
(0.928553 0.013791 2.29604e-22)
(0.895215 -0.0129593 3.78728e-22)
(0.744965 0.0225355 0)
)
;

boundaryField
{
    outlet
    {
        type            zeroGradient;
    }
    upperWall
    {
        type            symmetryPlane;
    }
    lowerWall
    {
        type            symmetryPlane;
    }
    inlet
    {
        type            fixedValue;
        value           uniform (0.9848 0.1736 0);
    }
    cylinder
    {
        type            fixedValue;
        value           uniform (0 0 0);
    }
    frontAndBack
    {
        type            empty;
    }
}


// ************************************************************************* //
