/*--------------------------------*- C++ -*----------------------------------*\
| =========                 |                                                 |
| \\      /  F ield         | OpenFOAM: The Open Source CFD Toolbox           |
|  \\    /   O peration     | Version:  2312                                  |
|   \\  /    A nd           | Website:  www.openfoam.com                      |
|    \\/     M anipulation  |                                                 |
\*---------------------------------------------------------------------------*/
FoamFile
{
    version     2.0;
    format      ascii;
    arch        "LSB;label=32;scalar=64";
    class       volVectorField;
    location    "40";
    object      U;
}
// * * * * * * * * * * * * * * * * * * * * * * * * * * * * * * * * * * * * * //

dimensions      [0 1 -1 0 0 0 0];

internalField   nonuniform List<vector> 
9200
(
(0.0275897 -0.0639989 2.1641e-19)
(0.0569388 -0.154843 -3.82387e-19)
(0.373529 -0.285887 1.72865e-19)
(0.889445 -0.414167 2.9204e-19)
(1.20779 -0.473147 -2.64908e-19)
(1.33402 -0.500553 0)
(1.3258 -0.511433 0)
(1.2434 -0.514722 2.82975e-19)
(1.15494 -0.50662 -2.94301e-20)
(1.09223 -0.494532 -2.08848e-19)
(1.03278 -0.452815 -7.6494e-20)
(0.999159 -0.436249 1.12076e-19)
(0.981167 -0.406447 -1.61271e-20)
(0.938731 -0.347087 -7.92203e-20)
(0.898118 -0.319391 0)
(0.887949 -0.301904 9.50111e-20)
(0.846075 -0.234047 -1.20902e-19)
(0.824166 -0.197069 3.52098e-20)
(0.814866 -0.158764 1.73447e-20)
(0.760664 -0.0928321 1.16207e-20)
(-0.0363669 -0.030312 9.05156e-21)
(0.0965202 -0.209331 1.97252e-19)
(0.790902 -0.315951 3.47171e-19)
(1.20377 -0.407374 0)
(1.34298 -0.440435 0)
(1.32797 -0.442764 0)
(1.25565 -0.435362 0)
(1.20339 -0.421636 -2.00232e-19)
(1.17682 -0.412503 2.46832e-19)
(1.16077 -0.389363 8.36071e-20)
(1.13893 -0.385668 -8.52938e-20)
(1.11135 -0.35337 6.03238e-20)
(1.06826 -0.324807 -4.80235e-20)
(1.00839 -0.31849 -3.14549e-20)
(0.989771 -0.264279 2.01222e-19)
(0.939125 -0.224133 -1.20357e-19)
(0.910233 -0.216357 -1.78501e-20)
(0.905029 -0.169329 -3.63145e-21)
(0.878306 -0.15101 -2.63619e-20)
(0.884769 -0.103286 -1.15948e-20)
(-0.132675 -0.0300607 -2.24087e-19)
(0.364875 -0.241523 -2.04324e-19)
(1.12548 -0.325364 1.63556e-19)
(1.34688 -0.395528 -3.06066e-19)
(1.36673 -0.401204 0)
(1.32865 -0.398868 0)
(1.31721 -0.384326 0)
(1.30902 -0.372491 -7.02857e-20)
(1.28369 -0.354833 0)
(1.24274 -0.34209 9.31588e-20)
(1.1633 -0.315623 -7.40338e-20)
(1.11179 -0.310313 -2.32803e-19)
(1.05642 -0.298949 1.99105e-19)
(1.03235 -0.247368 3.37471e-20)
(0.993049 -0.261749 -6.49538e-20)
(0.964844 -0.221606 -1.12265e-19)
(0.932115 -0.188079 3.04276e-20)
(0.899397 -0.15481 1.42383e-19)
(0.8788 -0.133263 -7.12528e-20)
(0.872847 -0.0986605 0)
(-0.197701 -0.0885259 2.4043e-19)
(0.909117 -0.185951 4.17999e-19)
(1.25329 -0.317073 3.39933e-19)
(1.39629 -0.348286 -4.28198e-19)
(1.42257 -0.331991 2.17174e-20)
(1.42022 -0.310999 3.98584e-19)
(1.38857 -0.298262 -1.72617e-19)
(1.32618 -0.289281 6.59514e-20)
(1.25869 -0.280812 0)
(1.18934 -0.272693 -4.43028e-20)
(1.13544 -0.26687 2.12287e-19)
(1.092 -0.24572 -2.37346e-19)
(1.07928 -0.219927 -8.28912e-20)
(1.03834 -0.23653 8.17938e-20)
(1.0225 -0.175934 -8.76877e-20)
(0.983751 -0.168809 7.65892e-20)
(0.974601 -0.13946 0)
(0.958862 -0.120775 0)
(0.964564 -0.0968875 1.02525e-20)
(0.944423 -0.075451 0)
(-0.0989813 -0.132453 2.36307e-19)
(1.19986 -0.166282 -3.26847e-19)
(1.4283 -0.241188 -3.58652e-19)
(1.49254 -0.269672 0)
(1.46939 -0.249158 -1.12023e-19)
(1.40995 -0.248068 -8.82812e-20)
(1.33494 -0.249141 2.37298e-19)
(1.27162 -0.247129 -2.0211e-19)
(1.23391 -0.2454 1.0097e-19)
(1.20504 -0.229234 -4.78988e-20)
(1.17106 -0.212655 0)
(1.18458 -0.199557 8.83508e-20)
(1.15368 -0.193823 4.78152e-20)
(1.11286 -0.134065 7.40855e-20)
(1.07912 -0.155863 -6.79216e-20)
(1.0679 -0.117583 -4.85145e-20)
(1.02976 -0.112709 4.45362e-20)
(1.02314 -0.087827 -1.70949e-20)
(0.996419 -0.0782228 1.28583e-20)
(0.981088 -0.0540483 4.0514e-20)
(0.162019 -0.00708819 4.29733e-19)
(1.25785 -0.131177 2.60958e-21)
(1.48917 -0.105694 0)
(1.48971 -0.171194 1.92344e-19)
(1.4196 -0.17969 -5.73105e-20)
(1.36562 -0.186817 -9.28505e-20)
(1.33872 -0.177711 6.9524e-21)
(1.32277 -0.168866 6.97883e-20)
(1.30394 -0.15317 5.15294e-20)
(1.26796 -0.145752 -4.2634e-20)
(1.23464 -0.142964 -6.76248e-20)
(1.17907 -0.13627 -7.85181e-20)
(1.14886 -0.119841 1.25469e-19)
(1.09697 -0.154551 9.42381e-20)
(1.10273 -0.11535 -9.74568e-20)
(1.0559 -0.11556 5.6079e-20)
(1.03371 -0.0874591 0)
(1.00762 -0.0785643 1.86621e-21)
(0.987369 -0.0690135 -3.73249e-20)
(0.967218 -0.0561984 4.88188e-20)
(0.525449 0.151409 -9.99174e-20)
(1.39816 -0.0747738 -6.53853e-21)
(1.51003 -0.0525995 -7.62881e-20)
(1.48979 -0.133907 -1.88802e-19)
(1.44765 -0.124055 1.66125e-19)
(1.43249 -0.12585 8.51062e-20)
(1.39876 -0.122118 -1.52232e-19)
(1.34911 -0.121172 -5.5313e-20)
(1.3035 -0.126374 1.05552e-19)
(1.24443 -0.126004 1.23166e-19)
(1.18685 -0.12447 -1.7431e-19)
(1.17994 -0.116072 6.07248e-20)
(1.14468 -0.120751 -6.87565e-20)
(1.10815 -0.0703282 2.16097e-20)
(1.08874 -0.0813953 -3.21595e-20)
(1.07855 -0.0562469 4.98693e-20)
(1.05334 -0.0527198 -4.71217e-21)
(1.0467 -0.0412014 -5.536e-20)
(1.03639 -0.0252092 1.43982e-20)
(1.01725 -0.0110982 0)
(0.968174 0.0580368 1.00025e-19)
(1.51281 -0.138905 -2.16429e-19)
(1.51733 -0.035953 1.53459e-19)
(1.51822 -0.0805693 2.92352e-20)
(1.46527 -0.0549109 -1.5393e-19)
(1.40623 -0.0715385 9.0358e-20)
(1.3415 -0.0731981 0)
(1.29969 -0.0757065 0)
(1.26677 -0.0709034 -5.00145e-20)
(1.23933 -0.0619237 0)
(1.23046 -0.0574441 9.90842e-20)
(1.20509 -0.0499582 -1.12916e-19)
(1.19095 -0.0374036 9.37096e-20)
(1.14998 -0.0615269 -4.07875e-20)
(1.16615 -0.0423435 0)
(1.12853 -0.0416453 0)
(1.08256 -0.0276886 0)
(1.07033 -0.0197654 -3.44334e-20)
(1.04285 -0.0170025 3.90898e-20)
(1.02401 -0.00353948 0)
(1.01382 0.0648659 5.05704e-20)
(1.53314 -0.0667949 -2.25332e-21)
(1.52012 0.0555559 0)
(1.4965 -0.0105023 -1.22743e-20)
(1.42417 0.00503491 2.79914e-20)
(1.39109 -0.0172793 3.97783e-20)
(1.36589 -0.0113105 -3.61995e-20)
(1.34126 -0.0117618 -1.33716e-20)
(1.32351 -0.0111185 1.33638e-20)
(1.27803 -0.0174342 0)
(1.22485 -0.0197877 3.13107e-20)
(1.20991 -0.0208737 -3.52795e-20)
(1.16903 -0.0296801 -2.15999e-20)
(1.13257 -0.00719334 2.43705e-20)
(1.11219 -0.0113653 7.23126e-21)
(1.09229 -0.00845706 -1.36275e-20)
(1.07002 0.00135557 0)
(1.06114 0.00180806 0)
(1.0522 0.0164851 -2.16001e-20)
(1.02315 0.0243801 1.30016e-20)
(1.18297 0.17023 0)
(1.61899 0.00148654 0)
(1.52454 0.0965818 0)
(1.50957 0.0262928 -8.49593e-22)
(1.45711 0.0686714 3.08801e-22)
(1.42674 0.0495445 9.9347e-22)
(1.37133 0.0472872 8.73542e-21)
(1.32643 0.0386329 -1.40253e-20)
(1.27615 0.0277167 2.24557e-20)
(1.23254 0.0259085 -9.89069e-21)
(1.2085 0.0183913 0)
(1.1883 0.0195932 6.65202e-21)
(1.16739 0.021059 0)
(1.14001 0.00475315 -4.5908e-21)
(1.14801 0.0131795 7.63731e-21)
(1.14324 0.0151959 0)
(1.09427 0.0244752 0)
(1.095 0.0299879 0)
(1.08014 0.0294036 0)
(1.05627 0.046502 -2.88726e-21)
(-0.0283206 0.124056 -1.27395e-20)
(-0.116725 0.0568059 0)
(-0.139037 -0.0599518 0)
(-0.173798 -0.226491 -4.10694e-20)
(-0.206528 -0.377536 7.5733e-20)
(-0.227622 -0.57106 5.41668e-23)
(-0.235028 -0.763887 -1.54337e-20)
(-0.216937 -0.935646 -2.88891e-20)
(-0.19864 -1.11348 1.42647e-21)
(-0.165167 -1.26834 2.19721e-20)
(-0.15239 -1.39281 0)
(-0.122399 -1.48434 1.73115e-20)
(-0.0734022 -1.52843 0)
(-0.0515934 -1.50968 -1.48731e-20)
(0.00836522 -1.3956 2.9246e-20)
(0.0469745 -1.21038 0)
(0.123199 -0.994881 0)
(0.190469 -0.768425 0)
(0.269505 -0.392671 0)
(0.369292 -0.00947398 3.0748e-20)
(-0.0434736 0.298296 -5.49054e-20)
(-0.0840867 0.182165 1.00932e-19)
(-0.119512 0.000364036 0)
(-0.157481 -0.214936 1.53599e-19)
(-0.155815 -0.458721 -1.18641e-19)
(-0.136047 -0.652944 -7.43197e-20)
(-0.111785 -0.82501 8.40924e-22)
(-0.0886896 -1.00244 1.48817e-19)
(-0.0528451 -1.16078 -7.93804e-20)
(-0.0237322 -1.29013 0)
(-0.00506728 -1.40081 0)
(0.00446989 -1.49232 -1.72833e-20)
(-0.0140155 -1.53535 6.21322e-20)
(-0.0521467 -1.51973 -4.20681e-20)
(-0.0339105 -1.4248 -8.68777e-20)
(-0.0894736 -1.25348 5.2904e-20)
(-0.102002 -1.08142 0)
(-0.0758166 -0.858863 0)
(-0.0674202 -0.497659 6.6356e-20)
(-0.0525213 -0.133114 -1.05835e-19)
(-0.0523552 0.218174 1.1559e-19)
(-0.052786 0.180932 -5.06017e-20)
(-0.03108 0.0747774 2.04159e-21)
(-0.00495107 -0.106454 -1.37522e-19)
(0.0311896 -0.295404 2.55326e-19)
(0.0700278 -0.519727 -1.55444e-19)
(0.0986413 -0.729951 0)
(0.130672 -0.913534 0)
(0.148866 -1.09921 -1.08586e-19)
(0.180092 -1.25715 0)
(0.183603 -1.34378 -7.39591e-20)
(0.168066 -1.39516 2.6329e-19)
(0.149441 -1.42982 -2.23316e-19)
(0.0434138 -1.41832 9.88371e-20)
(-0.00837994 -1.33583 0)
(-0.117601 -1.1673 0)
(-0.232875 -1.06404 0)
(-0.19303 -0.914521 1.72166e-19)
(-0.314902 -0.555353 -1.09537e-19)
(-0.30811 -0.258118 0)
(-0.0696338 0.312712 -1.15491e-19)
(-0.0673814 0.210058 -1.07279e-21)
(-0.0192439 0.0546718 -9.82599e-20)
(0.0615329 -0.0972162 9.36523e-20)
(0.138725 -0.307998 -8.35578e-20)
(0.222869 -0.520517 0)
(0.28723 -0.707675 -1.38306e-19)
(0.338068 -0.883655 1.21774e-19)
(0.374237 -1.06002 3.63281e-21)
(0.405978 -1.20563 -8.44291e-20)
(0.40277 -1.29171 2.20513e-19)
(0.388961 -1.32027 -1.27655e-19)
(0.351825 -1.30417 4.61751e-20)
(0.231752 -1.25949 -1.16153e-19)
(0.144868 -1.24149 -5.85504e-20)
(0.0504715 -1.04623 -1.18741e-19)
(-0.18275 -0.966667 -4.0109e-21)
(-0.118147 -0.909169 6.32754e-20)
(-0.397313 -0.563805 3.66226e-20)
(-0.31367 -0.355131 0)
(-0.0527858 0.237555 -4.68163e-19)
(-0.0343448 0.193338 4.24871e-19)
(0.0573634 0.0199761 0)
(0.157203 -0.192942 -9.29462e-20)
(0.275931 -0.367689 2.4762e-19)
(0.383488 -0.52356 -1.48499e-19)
(0.471079 -0.655981 5.36332e-19)
(0.53189 -0.784171 -5.95045e-19)
(0.594199 -0.929089 3.15049e-19)
(0.640158 -1.07049 -8.71647e-20)
(0.630062 -1.16795 1.23469e-19)
(0.589709 -1.19654 2.87557e-20)
(0.526122 -1.16044 -1.30681e-19)
(0.429222 -1.03175 -8.06761e-20)
(0.278641 -1.07739 2.5534e-19)
(0.250374 -0.86973 -8.38873e-20)
(-0.0876153 -0.725706 0)
(0.0932764 -0.778107 1.1882e-19)
(-0.34069 -0.513943 8.85173e-21)
(-0.123027 -0.411973 -8.91973e-20)
(-0.0637628 0.202442 -2.30107e-19)
(0.0161071 0.186967 -1.02335e-19)
(0.141885 0.0704202 -1.87733e-19)
(0.253428 -0.0628512 0)
(0.384244 -0.258818 -1.64642e-19)
(0.502197 -0.455555 4.32876e-19)
(0.589889 -0.618851 -6.39364e-19)
(0.670008 -0.750935 1.20058e-19)
(0.766079 -0.871737 -1.77009e-19)
(0.839847 -0.956538 2.33925e-19)
(0.823723 -1.0045 0)
(0.782312 -1.02641 1.32321e-19)
(0.679541 -1.02791 6.1528e-20)
(0.56136 -0.845634 -8.74028e-20)
(0.427478 -0.853548 8.01414e-20)
(0.406235 -0.721581 4.85518e-20)
(0.0530401 -0.527658 -4.45755e-20)
(0.311187 -0.593191 -2.23382e-20)
(-0.171426 -0.43324 7.8241e-21)
(0.145588 -0.301686 -2.61613e-20)
(-0.0242199 0.139639 -2.20946e-19)
(0.0811799 0.094406 4.01937e-19)
(0.21757 -0.0393799 3.89463e-21)
(0.347492 -0.211194 5.01536e-19)
(0.482883 -0.368729 -1.63494e-21)
(0.60273 -0.507193 -5.43229e-19)
(0.721325 -0.634518 1.10781e-20)
(0.832001 -0.755455 3.19241e-19)
(0.951155 -0.847773 0)
(0.997887 -0.909371 -7.23302e-20)
(0.973981 -0.919423 -9.26126e-20)
(0.900675 -0.882977 3.10188e-19)
(0.782516 -0.822361 -1.4455e-19)
(0.650238 -0.777162 -9.39009e-20)
(0.555137 -0.698709 2.08751e-20)
(0.495129 -0.51256 -2.77795e-20)
(0.207916 -0.423723 0)
(0.486182 -0.3211 0)
(0.0953385 -0.34688 1.78272e-20)
(0.428378 -0.222893 -1.60958e-20)
(0.0567322 0.0345897 -2.12604e-19)
(0.124469 0.0388961 -1.97211e-19)
(0.225675 -0.0229174 -5.23814e-19)
(0.341825 -0.147793 3.18176e-19)
(0.511211 -0.309548 0)
(0.705413 -0.460005 2.51284e-19)
(0.882923 -0.58329 -2.28622e-19)
(1.03838 -0.677361 -9.05039e-20)
(1.1288 -0.740856 0)
(1.12473 -0.769598 1.1745e-19)
(1.06042 -0.769468 -1.00487e-19)
(0.953488 -0.763743 -1.48095e-20)
(0.836993 -0.669421 -1.21348e-20)
(0.723779 -0.621752 -1.06681e-19)
(0.683698 -0.623042 -2.83652e-20)
(0.577889 -0.452293 1.28434e-19)
(0.453564 -0.365518 -2.87031e-21)
(0.605875 -0.287812 -4.38938e-20)
(0.418344 -0.165233 1.29689e-20)
(0.552964 -0.124864 0)
(0.0843115 -0.0667916 1.15507e-21)
(0.114535 -0.0515532 -1.9043e-19)
(0.210761 -0.13203 3.42462e-19)
(0.387479 -0.275265 0)
(0.659775 -0.411999 0)
(0.916019 -0.526694 0)
(1.114 -0.615204 0)
(1.23138 -0.660989 4.18229e-19)
(1.23176 -0.675324 -2.98841e-19)
(1.17092 -0.663102 -1.17595e-19)
(1.06703 -0.647248 8.41259e-20)
(0.95113 -0.597934 6.92829e-20)
(0.855409 -0.598248 -5.16872e-20)
(0.786223 -0.536881 1.05124e-19)
(0.750692 -0.429804 -1.29586e-19)
(0.636581 -0.437314 6.82257e-20)
(0.751069 -0.343513 3.273e-20)
(0.633762 -0.307787 -1.04712e-19)
(0.698768 -0.213777 3.80967e-20)
(0.657758 -0.143511 -6.24314e-21)
(0.0626213 -0.0851603 8.68072e-22)
(0.08072 -0.10725 5.6756e-19)
(0.201587 -0.198273 -5.10899e-19)
(0.536141 -0.339048 -2.97144e-19)
(0.900634 -0.45496 2.69535e-19)
(1.15564 -0.522129 0)
(1.2852 -0.54775 0)
(1.28635 -0.557952 -3.02219e-19)
(1.20965 -0.561304 3.28299e-20)
(1.11236 -0.562751 2.21799e-19)
(1.01131 -0.553644 -8.42834e-20)
(0.935314 -0.530215 -1.16274e-19)
(0.880539 -0.493364 1.83442e-20)
(0.861343 -0.470735 8.07183e-20)
(0.796253 -0.440828 0)
(0.783053 -0.321173 -4.91905e-20)
(0.737586 -0.32099 1.10078e-19)
(0.686371 -0.219241 6.37218e-21)
(0.720647 -0.211232 -4.08395e-20)
(0.677723 -0.155922 6.25753e-21)
(0.440132 0.39807 -2.09984e-20)
(0.529111 0.869519 5.49742e-22)
(0.608497 1.19862 -4.23498e-22)
(0.607332 1.35005 2.94882e-22)
(0.585209 1.31105 0)
(0.550951 1.20635 -3.48775e-21)
(0.469286 1.05337 3.36578e-21)
(0.436389 0.922315 -1.86195e-21)
(0.321752 0.779722 1.86825e-21)
(0.264902 0.659047 -1.23036e-22)
(0.181741 0.488145 0)
(0.186663 0.16937 1.23054e-21)
(0.235578 0.0338644 -2.21706e-21)
(0.372117 -0.169972 1.86783e-21)
(0.48078 -0.349232 -1.41457e-21)
(0.533087 -0.33545 6.22162e-22)
(0.654551 -0.371842 0)
(0.765919 -0.462829 -6.43896e-22)
(0.793032 -0.438898 5.84411e-22)
(0.854242 -0.435123 9.26989e-22)
(0.898731 -0.65032 -8.95044e-22)
(0.913169 -0.864151 2.538e-21)
(0.86134 -0.900011 -2.23485e-21)
(0.910761 -0.570252 0)
(1.02688 0.120746 0)
(0.918444 0.762109 0)
(0.682134 0.975386 0)
(0.751044 0.700916 2.25486e-22)
(0.571236 0.464835 -1.42458e-22)
(0.467463 0.344995 0)
(0.503638 0.195108 -1.20884e-23)
(0.646821 -0.0845944 0)
(0.865601 -0.434519 -8.09977e-23)
(0.928995 -0.717229 1.65458e-22)
(0.902203 -0.684075 7.47391e-22)
(0.96501 -0.195979 -1.14998e-21)
(0.954405 0.30485 -5.81498e-22)
(0.899892 0.506605 1.34243e-22)
(0.787939 0.496444 -1.29437e-22)
(0.633754 0.400693 -9.31532e-24)
(0.556229 0.215892 5.96923e-24)
(0.575835 0.0468268 5.21614e-23)
(0.622533 -0.0973696 0)
(0.660062 -0.133851 0)
(0.67982 -0.212354 0)
(0.696803 -0.194565 -4.5179e-23)
(0.710971 -0.196616 2.59991e-24)
(0.761988 -0.137069 -2.27462e-23)
(0.759369 -0.060222 -1.14755e-23)
(0.830352 -0.0416002 -2.30806e-25)
(-0.0354717 0.267305 7.16185e-20)
(0.0641721 0.728193 -7.02485e-20)
(0.157947 1.06372 4.57737e-20)
(0.247205 1.2386 -1.19867e-20)
(0.306571 1.25379 -5.0649e-20)
(0.343693 1.20699 1.98859e-20)
(0.388724 1.05004 0)
(0.356246 0.996529 -7.42137e-23)
(0.248208 0.868719 0)
(0.178349 0.751418 -2.43915e-22)
(0.121843 0.536894 -9.61402e-21)
(0.0888991 0.163609 8.89585e-21)
(0.17837 -0.0728126 0)
(0.33883 -0.272137 -3.32195e-22)
(0.423783 -0.38745 -1.81565e-22)
(0.531007 -0.404599 0)
(0.678043 -0.468713 2.81384e-21)
(0.71991 -0.475902 -5.75757e-21)
(0.778702 -0.459278 2.8716e-21)
(0.863431 -0.48529 0)
(0.842176 -0.63227 0)
(0.807636 -0.853968 2.31967e-22)
(0.708468 -0.881688 -1.93258e-20)
(0.649405 -0.490056 -6.05748e-21)
(0.698747 0.168998 2.27056e-20)
(0.651939 0.74676 0)
(0.511088 0.981049 3.23827e-21)
(0.535873 0.813648 -2.8823e-21)
(0.4244 0.56558 -7.56238e-23)
(0.420525 0.387383 1.86457e-22)
(0.443291 0.204381 -7.31599e-23)
(0.651233 -0.121976 4.74942e-24)
(0.834076 -0.479591 -4.55228e-22)
(0.87495 -0.706661 1.00741e-22)
(0.803064 -0.64024 0)
(0.848269 -0.199222 4.52015e-21)
(0.868517 0.295186 -1.47896e-21)
(0.838164 0.530912 -1.89802e-21)
(0.727815 0.54884 -2.38877e-22)
(0.57679 0.44149 1.19376e-22)
(0.528427 0.225625 0)
(0.556307 0.0392168 -1.39527e-22)
(0.605209 -0.109595 9.72786e-23)
(0.653818 -0.142419 -1.01811e-22)
(0.682796 -0.219316 -7.84114e-25)
(0.703681 -0.199872 3.73836e-23)
(0.716907 -0.204471 5.20671e-23)
(0.767783 -0.142365 -2.65857e-23)
(0.766632 -0.0664729 1.2594e-23)
(0.835339 -0.048348 -8.50662e-25)
(-0.384718 0.130777 0)
(-0.270892 0.578495 -9.28708e-20)
(-0.186851 0.870955 8.938e-20)
(-0.022705 1.12727 -5.3536e-20)
(0.0841218 1.1905 5.1538e-20)
(0.20073 1.15125 2.59611e-22)
(0.269482 1.08451 0)
(0.219728 1.08513 -2.66601e-20)
(0.181295 0.936894 2.53076e-20)
(0.125108 0.807344 8.83245e-22)
(0.0794772 0.590889 0)
(0.0783771 0.176944 9.63444e-22)
(0.166757 -0.138377 2.40377e-20)
(0.312408 -0.349944 -2.24554e-20)
(0.415103 -0.499238 1.20039e-20)
(0.568396 -0.508578 -2.08418e-20)
(0.695745 -0.505557 1.6707e-20)
(0.696133 -0.524602 -7.60396e-21)
(0.785189 -0.498782 0)
(0.847236 -0.469542 2.34132e-22)
(0.779362 -0.601626 -2.74523e-22)
(0.691816 -0.779303 4.04066e-22)
(0.555187 -0.851793 8.20229e-22)
(0.454138 -0.565637 0)
(0.507068 0.11596 -2.01204e-20)
(0.386553 0.798268 1.94307e-20)
(0.405661 0.972224 0)
(0.456084 0.70988 3.45799e-22)
(0.369917 0.512697 -3.76988e-22)
(0.314491 0.346486 -4.82144e-22)
(0.417232 0.114343 8.58426e-23)
(0.672283 -0.214332 -3.83175e-22)
(0.80873 -0.499199 -7.85765e-22)
(0.803639 -0.709388 1.36541e-21)
(0.705084 -0.660618 1.13129e-21)
(0.734766 -0.212994 -8.44566e-22)
(0.780648 0.291635 -2.68383e-21)
(0.756955 0.528795 3.80735e-21)
(0.646172 0.564917 -4.90075e-23)
(0.518642 0.459363 -1.88135e-22)
(0.50114 0.227797 -1.79382e-22)
(0.526021 0.0318522 1.65275e-22)
(0.573593 -0.121062 5.59598e-22)
(0.637023 -0.151264 -1.92927e-23)
(0.676905 -0.224794 -1.25621e-22)
(0.707691 -0.203608 0)
(0.722592 -0.21124 -1.59882e-22)
(0.77526 -0.147951 4.45991e-23)
(0.777167 -0.073115 9.24006e-24)
(0.84216 -0.0546885 4.66231e-24)
(-0.505656 -0.000421471 -3.51914e-22)
(-0.384276 0.420934 3.88013e-22)
(-0.31276 0.653699 -5.1218e-22)
(-0.128913 0.918172 -4.21641e-22)
(-0.00243206 1.02288 0)
(0.145107 1.08453 4.15477e-22)
(0.265288 1.09084 0)
(0.249992 1.14376 4.39079e-22)
(0.248208 1.02769 -3.62618e-20)
(0.149085 0.910821 7.55512e-20)
(0.113675 0.673568 -3.88849e-20)
(0.162024 0.196183 9.95877e-22)
(0.190907 -0.188851 -5.06955e-22)
(0.311582 -0.416253 -1.10593e-21)
(0.452582 -0.579376 1.80905e-20)
(0.597686 -0.617903 -5.40165e-21)
(0.678026 -0.55517 -1.19674e-20)
(0.693739 -0.547081 -7.94446e-21)
(0.767663 -0.553537 7.89911e-21)
(0.750808 -0.464495 -2.37393e-22)
(0.683635 -0.545696 2.78272e-22)
(0.621899 -0.727617 -4.09463e-22)
(0.454854 -0.760734 -1.10574e-21)
(0.258507 -0.518679 -3.46658e-20)
(0.231016 0.134697 3.52005e-20)
(0.175135 0.738891 2.50541e-20)
(0.35168 0.907609 -2.41853e-20)
(0.268031 0.869939 7.84087e-23)
(0.246737 0.663904 -6.12501e-21)
(0.238702 0.405528 1.16306e-20)
(0.469559 0.097317 -4.46659e-21)
(0.690955 -0.244105 -1.83361e-21)
(0.779893 -0.519856 1.77038e-21)
(0.756602 -0.666963 0)
(0.630361 -0.620939 4.26818e-21)
(0.614705 -0.235011 -5.22454e-21)
(0.671879 0.265666 -2.88601e-21)
(0.673979 0.549787 9.32991e-22)
(0.574971 0.610742 4.81369e-22)
(0.478454 0.488069 0)
(0.471535 0.234663 1.0015e-21)
(0.481503 0.0275715 -9.59452e-22)
(0.532305 -0.135228 -3.00165e-22)
(0.613811 -0.165317 0)
(0.668321 -0.235565 2.05787e-22)
(0.70974 -0.210324 -1.9891e-22)
(0.725926 -0.21927 6.61618e-23)
(0.780952 -0.15459 4.03409e-23)
(0.788087 -0.0796037 0)
(0.848897 -0.0606617 -4.65509e-24)
(-0.432639 -0.102198 6.24455e-20)
(-0.265596 0.266702 -6.02194e-20)
(-0.267236 0.462399 -2.48582e-22)
(-0.106592 0.746443 0)
(-0.00423528 0.899566 0)
(0.157312 0.966495 -4.2516e-22)
(0.273269 1.04345 0)
(0.254606 1.18767 6.86229e-20)
(0.284442 1.12382 -6.6615e-20)
(0.179116 1.03858 0)
(0.207939 0.757727 -7.69899e-22)
(0.277793 0.28869 1.09154e-19)
(0.29529 -0.145853 -1.08738e-19)
(0.397449 -0.488237 -3.41794e-22)
(0.539569 -0.690979 2.37962e-20)
(0.632897 -0.690122 -3.83646e-20)
(0.677594 -0.60168 1.53568e-20)
(0.697701 -0.599534 0)
(0.708026 -0.557115 -8.35457e-21)
(0.644375 -0.439379 7.56509e-21)
(0.637059 -0.504355 0)
(0.628807 -0.649855 -1.31772e-20)
(0.468043 -0.69382 1.29957e-20)
(0.202702 -0.514432 -4.92878e-22)
(0.0916488 0.0821656 0)
(0.140876 0.688552 0)
(0.242901 0.925217 1.57693e-20)
(0.269719 0.769998 -1.49006e-20)
(0.202073 0.546712 0)
(0.245074 0.292904 -4.31534e-22)
(0.502318 -0.0193677 0)
(0.683804 -0.286783 0)
(0.746757 -0.507724 3.24884e-21)
(0.701672 -0.666135 -3.61835e-21)
(0.572013 -0.624641 0)
(0.51278 -0.243654 1.26758e-20)
(0.569322 0.247698 -9.54241e-21)
(0.589003 0.539724 -9.24637e-22)
(0.491684 0.617551 -1.82893e-21)
(0.443898 0.497978 1.76542e-21)
(0.428663 0.240973 0)
(0.42586 0.0252951 0)
(0.487985 -0.151164 0)
(0.587286 -0.182085 2.40204e-22)
(0.657824 -0.247403 -8.65486e-22)
(0.711264 -0.217408 1.91754e-22)
(0.730949 -0.227013 3.10924e-23)
(0.785846 -0.161693 1.02651e-22)
(0.796491 -0.0863277 -1.84572e-23)
(0.854427 -0.0661478 0)
(-0.21336 -0.206049 5.5165e-21)
(-0.0321864 0.121669 3.03861e-20)
(-0.140598 0.325683 -1.54333e-20)
(-0.00186359 0.51889 -2.1861e-20)
(0.0903496 0.684448 2.10045e-20)
(0.227282 0.817766 0)
(0.310305 0.96757 4.68671e-20)
(0.353833 1.16949 -4.47359e-20)
(0.418762 1.17319 -9.00018e-20)
(0.369911 1.10596 8.62673e-20)
(0.409765 0.819541 0)
(0.455038 0.354106 2.04119e-21)
(0.50763 -0.0998992 0)
(0.588451 -0.475557 9.41411e-20)
(0.692592 -0.720819 -1.50627e-19)
(0.724066 -0.756074 5.91297e-20)
(0.729328 -0.623442 0)
(0.75001 -0.603787 3.80083e-22)
(0.6931 -0.559299 0)
(0.626628 -0.435929 2.50516e-23)
(0.721619 -0.529764 0)
(0.693789 -0.636246 0)
(0.510253 -0.602191 -2.92792e-20)
(0.225996 -0.468784 4.88639e-20)
(0.0638735 0.00136763 -4.18301e-20)
(0.119274 0.593496 2.12234e-20)
(0.212554 0.844407 -1.06138e-21)
(0.21489 0.912504 1.39238e-20)
(0.117641 0.751987 -1.25988e-20)
(0.297761 0.358086 -9.05453e-21)
(0.506431 -0.018399 2.77298e-21)
(0.644199 -0.311137 5.74255e-21)
(0.717969 -0.510676 -3.63372e-21)
(0.678815 -0.610162 3.99446e-21)
(0.540134 -0.587498 0)
(0.438226 -0.268643 8.767e-21)
(0.477443 0.210417 -2.09639e-21)
(0.503306 0.549226 -8.44296e-21)
(0.434502 0.652748 0)
(0.424707 0.51913 -9.2627e-22)
(0.380378 0.255551 1.45404e-21)
(0.376723 0.0240488 -1.40212e-21)
(0.454654 -0.170684 0)
(0.564526 -0.203738 3.74608e-22)
(0.64695 -0.263755 7.72843e-22)
(0.70949 -0.227316 -5.09906e-22)
(0.735101 -0.235706 -2.74536e-22)
(0.790663 -0.169349 0)
(0.803519 -0.0930828 0)
(0.858883 -0.0714498 -8.64016e-24)
(0.0863153 -0.177498 2.3832e-21)
(0.164171 -0.0574884 -2.29824e-21)
(0.0974696 0.203124 0)
(0.212219 0.349851 1.27045e-22)
(0.212306 0.538276 2.53275e-23)
(0.271759 0.661184 0)
(0.417297 0.801479 0)
(0.454325 1.07214 2.07797e-22)
(0.499332 1.19211 1.52477e-22)
(0.528354 1.21906 1.15099e-19)
(0.578578 0.99884 -1.09055e-19)
(0.703035 0.550635 0)
(0.770448 0.014697 0)
(0.826852 -0.464281 2.03668e-21)
(0.888271 -0.743627 -1.49679e-21)
(0.894589 -0.799838 0)
(0.842864 -0.677286 3.22936e-20)
(0.871067 -0.600313 -3.15139e-20)
(0.8368 -0.548702 -1.70257e-20)
(0.738705 -0.449803 1.7196e-20)
(0.782393 -0.496716 0)
(0.670233 -0.540825 -1.56512e-20)
(0.45357 -0.492327 1.48964e-20)
(0.222232 -0.386369 -2.79894e-20)
(0.0850086 -0.0312919 -5.02345e-21)
(0.156532 0.529191 3.15208e-20)
(0.220709 0.879661 2.99542e-20)
(0.207326 0.897242 -2.97384e-20)
(0.223994 0.582016 0)
(0.353312 0.21997 0)
(0.466315 -0.0870768 0)
(0.62169 -0.330297 8.83329e-22)
(0.704573 -0.512621 0)
(0.666036 -0.613824 -4.9367e-21)
(0.536224 -0.574163 1.12669e-20)
(0.405164 -0.273798 -7.8421e-21)
(0.41972 0.186924 2.17198e-21)
(0.446566 0.532111 8.97572e-22)
(0.391533 0.644513 5.26276e-21)
(0.397044 0.530371 -3.51985e-21)
(0.334397 0.274247 0)
(0.346405 0.0230912 9.66466e-22)
(0.440482 -0.190397 7.34165e-22)
(0.553213 -0.225798 0)
(0.643697 -0.280199 0)
(0.709819 -0.237903 0)
(0.739692 -0.244561 9.4497e-23)
(0.795121 -0.177042 -1.10665e-22)
(0.809466 -0.0998073 -3.82892e-23)
(0.863146 -0.0764588 8.61379e-24)
(0.446769 -0.0478873 -7.54704e-21)
(0.353776 -0.106327 7.27775e-21)
(0.260448 0.0178322 -1.22907e-20)
(0.274107 0.188937 1.18564e-20)
(0.264495 0.425496 -2.64844e-23)
(0.392041 0.484848 0)
(0.514608 0.589666 1.67192e-23)
(0.518854 0.916482 -2.88621e-22)
(0.688771 1.07715 -5.71256e-20)
(0.677012 1.15091 5.56516e-20)
(0.785265 1.02408 -1.34299e-19)
(0.826156 0.657106 -2.61113e-20)
(0.890188 0.190281 1.48149e-19)
(1.03005 -0.289191 -2.11953e-21)
(1.06697 -0.650828 1.5566e-21)
(1.0457 -0.774971 5.67095e-20)
(0.980082 -0.677905 -9.09518e-20)
(0.963638 -0.632911 9.76074e-21)
(0.925357 -0.556054 2.43235e-20)
(0.888874 -0.445677 -1.48138e-20)
(0.903378 -0.493519 1.45037e-20)
(0.751476 -0.501856 0)
(0.511033 -0.439307 1.50717e-20)
(0.35481 -0.393349 -3.47398e-20)
(0.255162 -0.139529 1.9661e-20)
(0.244739 0.408755 -2.56139e-20)
(0.240451 0.83676 2.38402e-20)
(0.238716 0.948741 -3.274e-20)
(0.255479 0.805667 3.04093e-20)
(0.355415 0.372775 2.98461e-20)
(0.442496 -0.0503993 -2.78353e-20)
(0.626058 -0.359674 5.31409e-21)
(0.731659 -0.518791 -5.82062e-21)
(0.686177 -0.57011 0)
(0.550138 -0.542987 6.75466e-22)
(0.411607 -0.29378 9.50331e-22)
(0.389131 0.150042 -7.9858e-21)
(0.388077 0.532363 7.45518e-21)
(0.373093 0.672978 4.48654e-21)
(0.380859 0.560346 -5.58354e-21)
(0.304206 0.294349 0)
(0.335668 0.0177706 -4.83494e-21)
(0.440972 -0.211347 4.35557e-21)
(0.552281 -0.248976 -3.986e-22)
(0.646828 -0.298465 -8.99457e-22)
(0.713383 -0.249742 0)
(0.745043 -0.254017 9.9535e-23)
(0.799877 -0.185177 -9.81055e-23)
(0.816498 -0.106467 -2.00209e-23)
(0.868322 -0.0812657 0)
(0.646766 -0.0287889 -2.34958e-21)
(0.625783 0.0560209 2.27468e-21)
(0.502414 0.110098 2.14197e-20)
(0.397966 0.14336 -4.18524e-20)
(0.329352 0.289096 3.67781e-20)
(0.39484 0.36637 -1.58989e-20)
(0.462543 0.429239 -1.76112e-23)
(0.603494 0.655111 7.54084e-23)
(0.725231 0.921087 -2.37633e-22)
(0.786765 1.13902 1.25628e-22)
(1.00657 1.10676 7.95445e-22)
(1.05423 0.845421 -1.08626e-21)
(1.28296 0.292338 1.47996e-19)
(1.28821 -0.254328 -1.42306e-19)
(1.22698 -0.617099 0)
(1.13727 -0.81033 -5.68059e-22)
(1.01104 -0.713005 3.45228e-22)
(0.961897 -0.612254 0)
(0.880868 -0.59474 -2.05208e-20)
(0.853994 -0.485032 1.94852e-20)
(0.822926 -0.432464 2.00785e-22)
(0.672432 -0.405974 1.0775e-20)
(0.533205 -0.373763 -1.03647e-20)
(0.465008 -0.371273 -3.19885e-22)
(0.35781 -0.162308 -1.50745e-20)
(0.27589 0.359454 1.43181e-20)
(0.310247 0.806408 0)
(0.279276 0.956743 0)
(0.367001 0.678574 -3.77883e-20)
(0.401183 0.273669 3.80461e-20)
(0.470771 -0.0794498 1.77706e-22)
(0.659059 -0.370945 5.81242e-22)
(0.75844 -0.537761 9.75176e-21)
(0.713365 -0.588709 -1.07517e-20)
(0.592997 -0.538321 -5.01202e-21)
(0.452511 -0.297314 4.81534e-21)
(0.397235 0.125859 0)
(0.373271 0.517315 4.87091e-21)
(0.382305 0.663287 -5.40868e-21)
(0.35388 0.577107 -8.38822e-23)
(0.287116 0.31721 5.66615e-21)
(0.337001 0.0171943 -4.71786e-21)
(0.447709 -0.230705 0)
(0.559007 -0.272311 0)
(0.656808 -0.317122 -6.75637e-22)
(0.721388 -0.262312 6.48102e-22)
(0.752824 -0.263768 1.05652e-22)
(0.804953 -0.194014 -3.93488e-23)
(0.823304 -0.113531 9.75414e-24)
(0.87294 -0.0859201 0)
(0.692656 -0.127146 -1.15485e-23)
(0.707235 -0.0738613 0)
(0.669082 0.064614 -1.12409e-20)
(0.672735 0.13624 2.80687e-20)
(0.57304 0.233241 -1.65494e-20)
(0.528249 0.275206 6.24878e-23)
(0.60124 0.243529 0)
(0.611129 0.396975 0)
(0.663655 0.640097 0)
(0.853134 0.834639 -1.33014e-22)
(0.902953 0.997488 -6.5191e-20)
(1.10475 0.94292 6.26917e-20)
(1.25191 0.64335 1.1703e-19)
(1.21341 0.225511 -1.12639e-19)
(1.34772 -0.271771 0)
(1.31463 -0.593755 -6.38146e-22)
(1.09277 -0.664513 -4.64064e-20)
(1.01454 -0.611463 7.68759e-20)
(0.900223 -0.559234 -9.01161e-21)
(0.803866 -0.485658 -3.63155e-20)
(0.796302 -0.440543 1.47284e-20)
(0.662957 -0.387885 8.88005e-21)
(0.569471 -0.350924 -8.53086e-21)
(0.523576 -0.360834 -1.82531e-22)
(0.401037 -0.235417 1.9999e-22)
(0.342714 0.19623 -1.21497e-20)
(0.383109 0.73155 1.16648e-20)
(0.336285 0.980991 0)
(0.444599 0.860569 -4.38271e-20)
(0.437493 0.463926 8.42879e-20)
(0.529172 -0.0427888 -4.22843e-20)
(0.697907 -0.412157 0)
(0.810217 -0.533859 4.39163e-22)
(0.745153 -0.54593 2.84079e-22)
(0.624219 -0.516277 8.43421e-21)
(0.496347 -0.314211 -8.08787e-21)
(0.407454 0.104569 0)
(0.358867 0.512004 -5.2415e-21)
(0.388879 0.681408 5.02378e-21)
(0.346492 0.615782 7.55161e-21)
(0.290754 0.336617 -6.50793e-21)
(0.338513 0.00917583 -7.30204e-22)
(0.447029 -0.252204 0)
(0.565395 -0.29712 0)
(0.668998 -0.334772 -7.43522e-22)
(0.732337 -0.273626 7.11586e-22)
(0.763529 -0.271358 0)
(0.811106 -0.201711 0)
(0.829295 -0.120135 1.66971e-23)
(0.877072 -0.0903749 -6.17711e-24)
(0.755969 -0.0579252 0)
(0.699955 -0.0520868 0)
(0.659621 0.0199129 0)
(0.705905 0.114979 0)
(0.708704 0.245625 0)
(0.731829 0.29487 0)
(0.743924 0.263153 0)
(0.676065 0.304474 0)
(0.77955 0.438108 0)
(0.872885 0.672069 0)
(1.0047 0.780033 0)
(1.21711 0.725839 0)
(1.32415 0.523556 0)
(1.43591 0.128756 0)
(1.50221 -0.257349 0)
(1.4538 -0.445228 0)
(1.21643 -0.479159 0)
(1.14116 -0.499676 0)
(1.04107 -0.4923 0)
(0.896557 -0.439572 0)
(0.886719 -0.373939 0)
(0.78651 -0.329082 0)
(0.69186 -0.326779 0)
(0.611021 -0.327499 0)
(0.474794 -0.214172 0)
(0.421518 0.142435 0)
(0.433754 0.631078 0)
(0.438807 0.935861 0)
(0.521221 0.809837 0)
(0.544298 0.424157 0)
(0.622741 -0.00746864 0)
(0.733744 -0.369695 0)
(0.843524 -0.516327 0)
(0.789238 -0.524532 0)
(0.668232 -0.493465 0)
(0.545734 -0.307327 0)
(0.443471 0.0817625 0)
(0.396128 0.483601 0)
(0.419554 0.670241 0)
(0.344077 0.628792 0)
(0.293006 0.35574 0)
(0.334737 0.0166365 0)
(0.441061 -0.258474 0)
(0.567266 -0.310948 0)
(0.679872 -0.345838 0)
(0.745108 -0.280662 0)
(0.77492 -0.276189 0)
(0.818078 -0.207497 0)
(0.836359 -0.125351 0)
(0.881646 -0.0939814 0)
(0.833675 -0.0174862 0)
(0.792026 0.00606297 0)
(0.724667 0.0619699 0)
(0.748982 0.101822 0)
(0.727123 0.209801 0)
(0.807577 0.268067 0)
(0.842731 0.272764 0)
(0.809569 0.307172 0)
(0.833328 0.412962 0)
(0.892883 0.567652 0)