/*--------------------------------*- C++ -*----------------------------------*\
| =========                 |                                                 |
| \\      /  F ield         | OpenFOAM: The Open Source CFD Toolbox           |
|  \\    /   O peration     | Version:  2312                                  |
|   \\  /    A nd           | Website:  www.openfoam.com                      |
|    \\/     M anipulation  |                                                 |
\*---------------------------------------------------------------------------*/
FoamFile
{
    version     2.0;
    format      ascii;
    arch        "LSB;label=32;scalar=64";
    class       volScalarField;
    location    "129";
    object      p;
}
// * * * * * * * * * * * * * * * * * * * * * * * * * * * * * * * * * * * * * //

dimensions      [0 2 -2 0 0 0 0];

internalField   nonuniform List<scalar> 
5478
(
-0.350169
-0.351577
-0.350616
-0.347466
-0.339966
-0.327371
-0.309554
-0.287877
-0.264575
-0.241879
-0.221413
-0.203467
-0.188327
-0.1746
-0.162469
-0.357629
-0.357008
-0.354865
-0.35047
-0.342006
-0.328128
-0.309002
-0.286464
-0.262815
-0.239892
-0.218713
-0.19972
-0.182955
-0.167849
-0.154362
-0.36692
-0.363639
-0.359247
-0.352725
-0.341894
-0.325487
-0.304362
-0.280701
-0.256636
-0.233676
-0.212599
-0.193619
-0.176532
-0.16077
-0.146222
-0.378915
-0.372696
-0.365501
-0.355771
-0.340884
-0.320669
-0.297016
-0.272217
-0.248009
-0.225354
-0.204538
-0.185549
-0.168119
-0.152188
-0.137896
-0.395328
-0.385544
-0.375116
-0.360341
-0.339483
-0.314539
-0.288208
-0.262342
-0.23793
-0.215355
-0.194707
-0.17591
-0.158767
-0.143196
-0.128722
-0.417202
-0.402163
-0.387401
-0.365191
-0.336945
-0.307017
-0.277998
-0.250918
-0.226085
-0.203528
-0.183112
-0.16461
-0.147784
-0.132535
-0.118388
-0.442354
-0.421599
-0.399051
-0.367235
-0.331386
-0.296764
-0.265174
-0.236844
-0.211544
-0.188954
-0.168776
-0.150766
-0.134699
-0.12029
-0.10689
-0.465062
-0.43997
-0.405881
-0.363247
-0.320456
-0.281821
-0.248058
-0.218706
-0.193109
-0.170712
-0.151062
-0.133795
-0.118643
-0.105282
-0.0932882
-0.488631
-0.49038
-0.493482
-0.501562
-0.514276
-0.530327
-0.547784
-0.563886
-0.57551
-0.577894
-0.570802
-0.551826
-0.521384
-0.482823
-0.439668
-0.450553
-0.452021
-0.452427
-0.455256
-0.46022
-0.465897
-0.470417
-0.471657
-0.467161
-0.456292
-0.438378
-0.413593
-0.385006
-0.357064
-0.325332
-0.417276
-0.418416
-0.416919
-0.415721
-0.414476
-0.411741
-0.405949
-0.396004
-0.380753
-0.36014
-0.33547
-0.308514
-0.279073
-0.264188
-0.237555
-0.390389
-0.391547
-0.38927
-0.385713
-0.380453
-0.372279
-0.360315
-0.34337
-0.321676
-0.295942
-0.267335
-0.244206
-0.211593
-0.207375
-0.196667
-0.369814
-0.371406
-0.369205
-0.364638
-0.357151
-0.345872
-0.329903
-0.309061
-0.283998
-0.256709
-0.226723
-0.206974
-0.182145
-0.177415
-0.17912
-0.355218
-0.357416
-0.35558
-0.350663
-0.341957
-0.328829
-0.310916
-0.288549
-0.262654
-0.235925
-0.209865
-0.191414
-0.175768
-0.170372
-0.176399
-0.346936
-0.349539
-0.348136
-0.343458
-0.334731
-0.321627
-0.303772
-0.281819
-0.25729
-0.232548
-0.210553
-0.193543
-0.182363
-0.176887
-0.178555
-0.345624
-0.348089
-0.347138
-0.343307
-0.335904
-0.323377
-0.305961
-0.284623
-0.261236
-0.238113
-0.217917
-0.201162
-0.189014
-0.180209
-0.174007
-0.387965
-0.384306
-0.431495
-0.43632
-0.335786
-0.234586
-0.171461
-0.153
-0.15036
-0.156567
-0.149296
-0.153409
-0.1524
-0.139445
-0.108881
-0.109522
-0.131792
-0.150009
-0.129874
-0.1119
-0.116827
-0.16151
-0.125952
-0.118511
-0.160507
-0.182431
-0.151665
-0.145488
-0.1128
-0.0835928
-0.0460568
-0.0176065
-0.0143279
-0.0111575
-0.00651
-0.0034831
-0.00211019
-0.00084247
-0.316259
-0.386562
-0.466677
-0.473991
-0.365722
-0.251036
-0.173556
-0.147228
-0.129792
-0.122138
-0.119317
-0.140061
-0.14753
-0.135408
-0.104686
-0.104659
-0.126254
-0.142571
-0.131304
-0.117142
-0.131164
-0.176234
-0.124248
-0.11049
-0.142054
-0.157873
-0.162574
-0.162458
-0.112894
-0.0774049
-0.0456052
-0.0189702
-0.0146329
-0.0108206
-0.00650118
-0.0035817
-0.00209513
-0.000822826
-0.249407
-0.361143
-0.46523
-0.476431
-0.373607
-0.254873
-0.172538
-0.142106
-0.12
-0.102298
-0.0982575
-0.128234
-0.141902
-0.130847
-0.101661
-0.100488
-0.12091
-0.133907
-0.13109
-0.120303
-0.144587
-0.187494
-0.121288
-0.101621
-0.124446
-0.132621
-0.169043
-0.174546
-0.111056
-0.0699596
-0.0442912
-0.0201577
-0.0148613
-0.0104213
-0.00647471
-0.00367428
-0.00207519
-0.00080357
-0.20645
-0.31295
-0.423261
-0.435907
-0.349298
-0.246123
-0.169859
-0.136561
-0.116785
-0.0965729
-0.0898718
-0.119964
-0.136875
-0.125738
-0.0992867
-0.0973854
-0.115751
-0.125105
-0.12885
-0.120791
-0.156085
-0.195492
-0.119158
-0.0923929
-0.108947
-0.108392
-0.17102
-0.181212
-0.108375
-0.0618805
-0.0421734
-0.0211084
-0.0150169
-0.00999266
-0.00642835
-0.00375311
-0.00205183
-0.000785285
-0.188689
-0.266604
-0.364645
-0.381044
-0.314486
-0.232186
-0.167253
-0.132154
-0.114005
-0.0987315
-0.095304
-0.123442
-0.134917
-0.121992
-0.0992497
-0.0970932
-0.112941
-0.116958
-0.124499
-0.118173
-0.16474
-0.200083
-0.117814
-0.082971
-0.0963099
-0.0870677
-0.168992
-0.182227
-0.105086
-0.0535588
-0.0393734
-0.0217435
-0.0150846
-0.00956406
-0.00636433
-0.00381248
-0.0020266
-0.000768307
-0.185073
-0.227036
-0.302885
-0.3169
-0.272391
-0.212442
-0.160878
-0.127003
-0.110082
-0.0986991
-0.106514
-0.133228
-0.136871
-0.120626
-0.100793
-0.0975914
-0.107638
-0.108874
-0.117933
-0.112496
-0.169018
-0.201804
-0.118473
-0.0736887
-0.0866294
-0.069368
-0.163362
-0.178384
-0.101738
-0.0455603
-0.0361506
-0.0220612
-0.0150718
-0.00917096
-0.00628722
-0.00384883
-0.00200085
-0.000752949
-0.180816
-0.19772
-0.242316
-0.257742
-0.236854
-0.197002
-0.155803
-0.123958
-0.107556
-0.0931895
-0.116067
-0.137651
-0.140519
-0.11682
-0.101594
-0.098779
-0.107503
-0.102282
-0.109787
-0.102604
-0.169045
-0.199394
-0.117511
-0.0652715
-0.0802555
-0.054825
-0.154239
-0.170841
-0.0972035
-0.0386402
-0.032681
-0.0220885
-0.01494
-0.0088275
-0.00620702
-0.00385549
-0.00197315
-0.000738969
-0.168499
-0.171118
-0.194385
-0.203225
-0.198006
-0.177365
-0.1476
-0.120879
-0.107538
-0.0847664
-0.112032
-0.144418
-0.147917
-0.117788
-0.104736
-0.0961292
-0.100491
-0.0942722
-0.0990689
-0.0904238
-0.163418
-0.198935
-0.119107
-0.057281
-0.0767397
-0.0425836
-0.141374
-0.168431
-0.0935374
-0.0321607
-0.0287095
-0.0217648
-0.0147736
-0.00855829
-0.00612985
-0.00385726
-0.00194969
-0.00072811
-0.163321
-0.174964
-0.174405
-0.173867
-0.167391
-0.149366
-0.123503
-0.101565
-0.0907742
-0.0752521
-0.0920049
-0.127751
-0.13374
-0.110193
-0.103244
-0.0991884
-0.103103
-0.087218
-0.085181
-0.0837535
-0.150861
-0.186152
-0.115882
-0.0488165
-0.070981
-0.0375351
-0.124559
-0.130629
-0.0869634
-0.0275628
-0.0245821
-0.0208016
-0.0142022
-0.0082832
-0.00600862
-0.00376388
-0.00189823
-0.00071115
-0.133729
-0.141696
-0.142488
-0.13564
-0.12527
-0.110955
-0.0923345
-0.0782947
-0.0694893
-0.056235
-0.069668
-0.107407
-0.116339
-0.0933621
-0.0910292
-0.0946555
-0.0846657
-0.0681351
-0.0634409
-0.0655266
-0.13319
-0.185378
-0.108548
-0.0369507
-0.052631
-0.0239787
-0.102433
-0.183578
-0.0766422
-0.0192001
-0.0197164
-0.0192629
-0.0134006
-0.00781957
-0.00579977
-0.00359489
-0.00182218
-0.000690078
-0.108865
-0.119804
-0.119038
-0.111854
-0.102834
-0.0917085
-0.0775451
-0.0646735
-0.0521693
-0.0333538
-0.0251676
-0.0370041
-0.0440462
-0.0503704
-0.067332
-0.0792672
-0.0709089
-0.0530668
-0.0421362
-0.0419505
-0.101929
-0.142296
-0.0899861
-0.0265673
-0.0353706
-0.0128647
-0.0728153
-0.0929176
-0.0567604
-0.0115549
-0.0151926
-0.0171283
-0.0121798
-0.00737789
-0.0056175
-0.00336488
-0.0017297
-0.000675725
-0.0870289
-0.0959797
-0.0956921
-0.0884823
-0.0786233
-0.0663215
-0.0532576
-0.0417928
-0.0290757
-0.012182
0.000584571
0.0162018
0.0179198
-0.00681151
-0.0390836
-0.0548163
-0.0464372
-0.0315007
-0.0178809
-0.018631
-0.0642843
-0.0854423
-0.0648954
-0.0252768
-0.0208552
-0.00093468
-0.038362
-0.0676406
-0.0370856
-0.00661315
-0.0108284
-0.0144856
-0.0106816
-0.00700049
-0.00544233
-0.00304212
-0.00161502
-0.00066844
-0.065684
-0.0739749
-0.074643
-0.0690647
-0.0607163
-0.0515886
-0.0413785
-0.0313093
-0.019021
-0.000126755
0.019263
0.0439779
0.0472204
0.0177553
-0.0127014
-0.028172
-0.0243597
-0.0198649
-0.0042548
-0.00014771
-0.0207215
-0.0211151
-0.0359937
-0.03037
-0.0103113
0.00592741
-0.00209351
-0.0289186
-0.0163024
-0.00370141
-0.00671069
-0.0113658
-0.00871172
-0.00659599
-0.00528235
-0.00262226
-0.00147211
-0.000671952
-0.0487131
-0.0559206
-0.0569728
-0.052812
-0.0459517
-0.0377786
-0.0282264
-0.018113
-0.00671378
0.00893781
0.024333
0.042649
0.0482231
0.02783
0.00506884
-0.00890344
-0.00684327
-0.00338696
0.00795417
0.00768312
0.000610975
0.00948891
-0.0140865
-0.0293729
-0.00295622
0.0125664
0.0279592
0.000202472
0.000396669
-0.00141819
-0.00287123
-0.00810244
-0.00635449
-0.00613876
-0.00510687
-0.00209869
-0.00129285
-0.000687959
-0.0351799
-0.0406735
-0.0416627
-0.038658
-0.0331255
-0.0265165
-0.0191116
-0.011119
-0.00239633
0.00957977
0.0223251
0.0354376
0.0399247
0.0286414
0.0133922
0.00158848
0.00323928
0.00279966
0.0122842
0.014152
0.0109937
0.0196238
0.0017029
-0.0153025
0.00298503
0.015403
0.0448506
0.0170522
0.00701334
-0.000598106
-0.000769743
-0.00545684
-0.00410058
-0.00552829
-0.00481478
-0.0015151
-0.00109075
-0.000700505
-0.023553
-0.0279054
-0.0291049
-0.0271649
-0.0230322
-0.0179113
-0.0121738
-0.00577925
0.00118469
0.0099
0.0183731
0.0249205
0.0298091
0.0249143
0.0165814
0.00832817
0.00983454
0.0105237
0.015717
0.0171299
0.0121569
0.0183971
0.0113247
-0.000832437
0.00855762
0.0167546
0.0444307
0.019484
0.00513847
0.00141845
-0.000697123
-0.00417681
-0.00244828
-0.00473288
-0.00432425
-0.00108191
-0.000904637
-0.000698558
-0.0144226
-0.017965
-0.0190582
-0.0177422
-0.0147227
-0.0108794
-0.00658508
-0.00181042
0.00319959
0.00903962
0.0147062
0.019465
0.0223831
0.0207192
0.0170411
0.011854
0.0123822
0.0123712
0.0152436
0.0176796
0.0141455
0.0177798
0.0150154
0.00746924
0.0115027
0.0165813
0.0379401
0.0214575
0.00481903
0.00377118
-0.000213909
-0.00325849
-0.00134904
-0.0037413
-0.00359346
-0.000684685
-0.000726814
-0.000638645
-0.00739795
-0.0100059
-0.0108913
-0.010121
-0.00807338
-0.0053442
-0.00229031
0.00107783
0.00457166
0.00853185
0.0123189
0.0155649
0.017627
0.0173632
0.0161975
0.0135234
0.0138169
0.0146419
0.0157287
0.0175969
0.0152412
0.0167987
0.0157521
0.012443
0.0147447
0.0170064
0.0300733
0.0221881
0.00886306
0.00594057
0.00106927
-0.00206807
-0.000565985
-0.00259858
-0.00266386
-0.000432621
-0.000554737
-0.000523263
-0.00169208
-0.00369091
-0.00450172
-0.00412227
-0.00279531
-0.000918226
0.00118874
0.00349474
0.00584594
0.00845192
0.0109664
0.0131617
0.0147019
0.0149285
0.0151096
0.0141163
0.0141608
0.0146714
0.015375
0.0165567
0.0154349
0.0162268
0.0158146
0.0144186
0.0160534
0.0168005
0.0240327
0.0213516
0.0110909
0.00751145
0.00295673
-0.000224054
0.000259857
-0.00138363
-0.00163039
-0.000163423
-0.000342539
-0.000368224
0.0027437
0.00119478
0.000491753
0.000634599
0.0014494
0.00267981
0.0040708
0.00557398
0.00710855
0.00879153
0.0104645
0.0119785
0.0132289
0.0139099
0.0141952
0.0139799
0.01418
0.0147947
0.0152168
0.0158909
0.015372
0.0157594
0.0156287
0.0152863
0.016576
0.0166345
0.0199046
0.0192089
0.0123782
0.00886565
0.00471143
0.00144852
0.00106118
-0.000299329
-0.000687272
0.000117514
-0.000121937
-0.000223021
0.00613886
0.00496484
0.00437236
0.00436512
0.00482314
0.00557744
0.00646166
0.00740933
0.00837388
0.00941959
0.0105102
0.011544
0.0124459
0.0130433
0.0135216
0.0137886
0.0140473
0.0144477
0.0148006
0.0152009
0.0149843
0.0152997
0.0153259
0.0151626
0.0159482
0.0156609
0.0169882
0.0165923
0.0119532
0.00920391
0.00589609
0.00285127
0.0018462
0.000583027
8.73887e-05
0.000416098
9.78056e-05
-9.83026e-05
0.00880851
0.00791218
0.00740305
0.00728434
0.00749532
0.00793011
0.00846871
0.00902834
0.00958596
0.0101985
0.0108809
0.0115543
0.0121684
0.0126642
0.0131061
0.0134703
0.013768
0.0140824
0.0143742
0.0146599
0.0146088
0.0147949
0.014844
0.0147316
0.0151211
0.0147731
0.0149716
0.0144137
0.0115742
0.00942482
0.00669725
0.00401006
0.00264196
0.00135162
0.000727726
0.00071175
0.000315657
1.67863e-05
0.0108599
0.0101662
0.00973168
0.00955673
0.00960859
0.00982191
0.0101144
0.0104138
0.0107143
0.0110562
0.0114457
0.0118634
0.0122409
0.0125877
0.0129265
0.0132478
0.0135155
0.0137487
0.0139599
0.0141645
0.0141584
0.0142489
0.0142585
0.0140817
0.0141614
0.013768
0.013489
0.0128043
0.0108958
0.00919867
0.00708419
0.00483902
0.00336109
0.0020355
0.0012553
0.00097826
0.000508729
0.000112358
0.0124266
0.0118932
0.0115251
0.0113219
0.0112695
0.0113326
0.0114571
0.0115865
0.0117072
0.0118518
0.0120437
0.0122696
0.0124829
0.01269
0.0129084
0.0131299
0.0133145
0.0134615
0.013593
0.0137195
0.0137094
0.0136993
0.0136416
0.0134239
0.0133096
0.01289
0.0124023
0.0116662
0.0102827
0.00892811
0.00725938
0.00542884
0.00398235
0.00266629
0.00175214
0.00125249
0.000693388
0.000199257
0.013615
0.0132
0.0128848
0.0126735
0.0125604
0.0125278
0.0125376
0.0125473
0.0125499
0.0125675
0.0126246
0.0127078
0.0127899
0.0128715
0.0129719
0.0130866
0.0131772
0.0132412
0.0132898
0.0133286
0.0132794
0.0131896
0.0130722
0.0128111
0.0125557
0.0121174
0.0115562
0.0108363
0.00974828
0.00861481
0.00726056
0.00576421
0.00444048
0.00319434
0.00219663
0.00150871
0.000851934
0.000264942
0.0144986
0.0141733
0.0139035
0.0136956
0.0135472
0.0134526
0.0133859
0.0133179
0.0132438
0.0131777
0.0131414
0.0131194
0.0131036
0.0130863
0.0130886
0.0131002
0.0131005
0.0130808
0.0130485
0.0130041
0.0129001
0.0127482
0.0125627
0.0122746
0.0119477
0.0114987
0.010923
0.0102211
0.00932471
0.00834574
0.00721091
0.00597058
0.0047822
0.00360941
0.00258752
0.00176332
0.00101033
0.000326553
0.015145
0.0148853
0.0146509
0.0144512
0.0142837
0.0141512
0.0140343
0.0139157
0.0137917
0.0136707
0.0135709
0.013476
0.013389
0.0132953
0.013221
0.0131482
0.0130677
0.0129682
0.0128671
0.012753
0.0125883
0.0123886
0.012148
0.0118351
0.0114641
0.011009
0.0104602
0.00982002
0.00900928
0.00812591
0.00713445
0.00607135
0.00497305
0.00389992
0.00290202
0.00198898
0.00115502
0.000382468
0.0156001
0.0153857
0.01518
0.0149898
0.0148152
0.0146595
0.0145115
0.014361
0.0142055
0.0140507
0.0139073
0.0137646
0.013625
0.0134793
0.013346
0.0132125
0.0130734
0.0129239
0.0127509
0.0125708
0.0123522
0.012108
0.0118249
0.011487
0.0110974
0.0106308
0.0100951
0.009476
0.00874946
0.00795237
0.00705906
0.00611508
0.00512164
0.00410575
0.00313264
0.00218272
0.00128498
0.000431282
0.015908
0.0157234
0.0155386
0.0153569
0.0151809
0.0150118
0.0148452
0.0146751
0.0145004
0.0143247
0.0141519
0.0139786
0.0138025
0.0136225
0.0134442
0.0132639
0.0130757
0.0128754
0.0126623
0.0124349
0.012179
0.0118979
0.0115814
0.0112232
0.0108144
0.0103481
0.00982214
0.00922431
0.00855158
0.00780759
0.00698698
0.00611872
0.00519211
0.00423148
0.00328185
0.00231871
0.00137647
0.000461969
0.0160963
0.0159308
0.0157593
0.0155852
0.0154095
0.0152341
0.0150569
0.0148759
0.0146907
0.0145022
0.0143129
0.0141194
0.0139224
0.0137189
0.0135133
0.0133018
0.0130824
0.0128516
0.0126067
0.0123484
0.0120645
0.0117585
0.0114193
0.0110448
0.010626
0.0101577
0.00963725
0.00905659
0.00841186
0.00770455
0.00693143
0.00610473
0.00522729
0.00430468
0.00336924
0.0024125
0.00144337
0.000482854
0.0161821
0.0160259
0.015862
0.0156926
0.0155185
0.015341
0.0151597
0.0149742
0.0147845
0.0145906
0.0143931
0.0141904
0.0139829
0.0137687
0.0135492
0.013322
0.0130866
0.01284
0.012579
0.0123035
0.0120055
0.0116857
0.0113348
0.0109521
0.0105274
0.0100586
0.00954059
0.00896833
0.00833871
0.00764791
0.00689864
0.00609486
0.00524056
0.00433829
0.00341079
0.00245814
0.00147842
0.000493906
-0.0788627
-0.0895659
-0.0997141
-0.10924
-0.118832
-0.127256
-0.136371
-0.148253
-0.0636287
-0.0715245
-0.079192
-0.0868204
-0.0945433
-0.102289
-0.109471
-0.119555
-0.0492907
-0.0549057
-0.0602676
-0.0658206
-0.0716573
-0.0776889
-0.0840526
-0.0935993
-0.0380367
-0.042055
-0.04593
-0.0499938
-0.0547668
-0.0601046
-0.0664427
-0.0747369
-0.0282487
-0.0312484
-0.0341938
-0.0374372
-0.0414173
-0.0456412
-0.0501829
-0.0560083
-0.0203031
-0.0224501
-0.0245821
-0.0268828
-0.0296059
-0.0323645
-0.035647
-0.0405109
-0.0135257
-0.0149469
-0.0163109
-0.0177758
-0.0196355
-0.0217694
-0.0247085
-0.0288372
-0.0077499
-0.00862418
-0.00946055
-0.0104889
-0.012025
-0.0139147
-0.0161723
-0.0190354
-0.00285629
-0.00343675
-0.00404173
-0.00486086
-0.00598088
-0.00716438
-0.00858347
-0.0107621
0.00117771
0.000786021
0.000418063
-4.05968e-05
-0.000679609
-0.00150366
-0.00273362
-0.00460473
0.00463732
0.00439402
0.00418624
0.0038803
0.00335888
0.00263157
0.0016672
0.000317663
0.0074893
0.00729016
0.00711899
0.00688027
0.00650612
0.00601114
0.00533468
0.00430527
0.0098203
0.00963984
0.00949986
0.00933374
0.00907703
0.008704
0.0081571
0.00733498
0.0117133
0.0115374
0.0113996
0.0112529
0.0110431
0.0107448
0.0103211
0.0097019
0.0132018
0.0130234
0.0128771
0.012737
0.0125645
0.0123344
0.0120106
0.0115394
0.0143542
0.0141784
0.0140276
0.01389
0.0137383
0.0135502
0.0132959
0.0129384
0.0152243
0.0150544
0.0149027
0.0147666
0.0146284
0.0144713
0.0142708
0.014001
0.015868
0.0157075
0.0155602
0.0154281
0.0152995
0.0151629
0.0149994
0.0147926
0.0163329
0.0161828
0.0160423
0.0159149
0.0157935
0.0156711
0.0155338
0.0153722
0.016655
0.0165152
0.0163828
0.016261
0.0161457
0.0160325
0.0159127
0.0157808
0.0168652
0.0167355
0.0166117
0.0164959
0.0163861
0.0162795
0.0161714
0.0160584
0.0169859
0.0168664
0.0167509
0.0166409
0.0165354
0.0164332
0.0163317
0.0162296
0.0170322
0.0169221
0.0168134
0.0167076
0.0166045
0.0165042
0.0164053
0.0163074
0.0723855
0.0760436
0.0794182
0.0822139
0.0836743
0.0835352
0.081624
0.0774471
0.0700953
0.0582392
0.0400356
0.0129131
-0.0273116
-0.0838581
-0.134569
0.0511343
0.052523
0.0523271
0.0509741
0.048345
0.0440687
0.0376549
0.0283721
0.0151744
-0.00336886
-0.0292168
-0.0649192
-0.114523
-0.182102
-0.237021
0.0292015
0.028356
0.0248054
0.0198012
0.0135647
0.0055575
-0.00495266
-0.0188277
-0.0371755
-0.0614935
-0.0938724
-0.136931
-0.193694
-0.269735
-0.323135
0.00648239
0.00321906
-0.0031322
-0.0108916
-0.0199776
-0.0311247
-0.0451619
-0.0629643
-0.0856271
-0.114614
-0.152165
-0.201023
-0.263447
-0.340356
-0.391092
-0.0160481
-0.0219603
-0.0304633
-0.0402127
-0.0515462
-0.0652985
-0.0822156
-0.103138
-0.129143
-0.161565
-0.202682
-0.25525
-0.319878
-0.393792
-0.439804
-0.0376455
-0.0460502
-0.0561106
-0.067399
-0.0805901
-0.0964751
-0.115611
-0.138807
-0.167072
-0.201784
-0.244875
-0.298308
-0.361955
-0.429852
-0.469523
-0.058038
-0.0681455
-0.0792936
-0.0919608
-0.1068
-0.12435
-0.14513
-0.169814
-0.199331
-0.234906
-0.278055
-0.329996
-0.389635
-0.448457
-0.48194
-0.0770826
-0.0878616
-0.100043
-0.113991
-0.130172
-0.14898
-0.170822
-0.196266
-0.226089
-0.261265
-0.302861
-0.351249
-0.403809
-0.450928
-0.479615
0.186629
0.201578
0.21819
0.236924
0.257875
0.280966
0.306104
0.333233
0.362274
0.392977
0.424758
0.456443
0.48603
0.509489
0.528802
0.185966
0.200326
0.216356
0.234552
0.254961
0.277419
0.301779
0.32797
0.355916
0.385352
0.415655
0.445595
0.473097
0.494179
0.511162
0.181168
0.194105
0.208897
0.226004
0.245275
0.266362
0.289018
0.313131
0.338581
0.365046
0.391821
0.417576
0.44007
0.455492
0.467053
0.17226
0.183139
0.196211
0.211711
0.229161
0.248036
0.268044
0.289039
0.310817
0.332921
0.354476
0.373969
0.388877
0.395567
0.399253
0.159238
0.16767
0.178819
0.192482
0.207663
0.223617
0.240055
0.256869
0.273814
0.290289
0.305199
0.316788
0.322178
0.317639
0.311628
0.142458
0.148077
0.157105
0.16868
0.181246
0.193877
0.206267
0.218282
0.229594
0.239453
0.246567
0.248947
0.243373
0.225956
0.208102
0.122227
0.125607
0.132753
0.141764
0.150935
0.159554
0.167399
0.17424
0.17953
0.182304
0.181051
0.17355
0.156271
0.125307
0.0948895
0.0984468
0.100553
0.106592
0.112983
0.118397
0.122559
0.125448
0.126744
0.125691
0.121106
0.111274
0.0937323
0.0646149
0.0202607
-0.021776
0.0252901
0.0296982
0.0260363
0.0299647
0.0275266
0.0318346
0.0300745
0.0344973
0.0338601
0.0383562
0.0391661
0.0439948
0.0465324
0.0522326
0.0569463
0.0642469
0.0717531
0.0817734
0.0929075
0.106954
0.123114
0.142882
0.165732
0.0253642
0.0297396
0.0261272
0.0300175
0.0276425
0.0319018
0.0302298
0.0346137
0.0340696
0.0385229
0.0394682
0.0442667
0.046896
0.0526723
0.0574478
0.0648106
0.0724684
0.0824456
0.0937366
0.107909
0.123822
0.143488
0.16581
0.0254481
0.0297552
0.0262364
0.0300404
0.0277846
0.0319348
0.0304167
0.0346964
0.0343088
0.038651
0.0397977
0.0444897
0.0472539
0.0529945
0.0578073
0.0650136
0.0727949
0.0827759
0.0937499
0.107704
0.12303
0.14213
0.162943
0.0255407
0.0297472
0.0263597
0.0300373
0.0279351
0.031938
0.0306262
0.0347514
0.0345654
0.0387601
0.0401467
0.04473
0.047671
0.0534822
0.0583464
0.0657431
0.0732818
0.0832929
0.093788
0.107416
0.121497
0.139289
0.157217
0.0256408
0.029719
0.0264946
0.0300118
0.0281404
0.0319179
0.030853
0.0347793
0.0348544
0.0388356
0.040485
0.0448548
0.0479882
0.0535803
0.0585046
0.0656353
0.0730812
0.0827143
0.0926569
0.105499
0.118088
0.134106
0.148237
0.0257455
0.0296728
0.0266415
0.0299677
0.0283265
0.0318873
0.0310907
0.0347984
0.0351867
0.0389593
0.0408932
0.0451441
0.0485123
0.0542815
0.0590959
0.0665262
0.0735475
0.0832293
0.0922402
0.104245
0.114415
0.127624
0.136486
0.025855
0.0296115
0.0267909
0.0299121
0.0285194
0.0318407
0.0313241
0.034788
0.0354266
0.0390021
0.0411554
0.0451817
0.0486981
0.0540522
0.0589842
0.0659568
0.0727732
0.081532
0.0898839
0.10017
0.108409
0.11835
0.121584
0.0259683
0.029542
0.0269376
0.029853
0.0287269
0.0318262
0.0315731
0.0348486
0.0358372
0.0392488
0.0416828
0.0456585
0.049444
0.055182
0.0597693
0.0672596
0.0735056
0.0824219
0.0892337
0.0982267
0.10256
0.107754
0.103584
0.026099
0.029437
0.0271277
0.0297374
0.0289449
0.0316973
0.0318195
0.034717
0.0360206
0.0391504
0.0417749
0.0455733
0.0493371
0.0543778
0.0589743
0.0654431
0.0711862
0.0777912
0.0836018
0.0882733
0.0903329
0.0882289
0.0790664
0.0262695
0.0292751
0.0273683
0.029559
0.0291938
0.031478
0.0320454
0.0343702
0.0360775
0.0387236
0.0415066
0.0446877
0.0484449
0.0526853
0.056952
0.0619392
0.0667262
0.0709583
0.0747534
0.0759245
0.0755007
0.0702374
0.0625445
0.0264744
0.0290509
0.0276434
0.0293224
0.0294748
0.0311731
0.0322779
0.0340284
0.036088
0.0382862
0.0411271
0.0438732
0.0474217
0.0508448
0.0546462
0.0583004
0.0619054
0.0642687
0.0658988
0.0651068
0.0624395
0.0568129
0.0494636
0.0267146
0.0287555
0.0279564
0.0290429
0.0297402
0.0309146
0.0323996
0.0337464
0.0359711
0.0377886
0.0405475
0.0429073
0.0460759
0.048754
0.0519167
0.0543779
0.0566536
0.057627
0.0574371
0.0553555
0.0514693
0.0456491
0.0387746
0.0269946
0.0283826
0.0282624
0.0288232
0.029906
0.0307071
0.0324145
0.0334841
0.0356933
0.0372582
0.0397263
0.0418028
0.0443989
0.0464178
0.0488158
0.0502633
0.0512833
0.0511836
0.0497463
0.046896
0.0425802
0.0368217
0.0302699
0.0273101
0.0280009
0.028476
0.028671
0.0299977
0.0305304
0.0323074
0.0331991
0.0352557
0.036635
0.0386947
0.0405184
0.0424733
0.0438382
0.0454973
0.0460844
0.0460793
0.0451638
0.0430644
0.0398442
0.0355145
0.0300844
0.0239612
0.0276134
0.0276589
0.0285928
0.0285719
0.0299952
0.030377
0.0320643
0.0328778
0.0346655
0.0358894
0.0375073
0.0390313
0.0403667
0.0411081
0.0420885
0.0420005
0.0412465
0.0397669
0.0373934
0.034106
0.0299588
0.0250108
0.0194385
0.0278815
0.0273741
0.0286193
0.0285088
0.0298868
0.0302285
0.0316965
0.0324842
0.033953
0.0349996
0.0361903
0.0373558
0.0381438
0.0383592
0.0387338
0.0381474
0.0369297
0.0351092
0.0326672
0.0295241
0.0257058
0.0212992
0.016369
0.0280868
0.0271673
0.0285429
0.0284662
0.0296781
0.0300596
0.0312327
0.0319898
0.0331392
0.0339615
0.0347696
0.0355553
0.0358797
0.0356838
0.0355598
0.0346431
0.033179
0.0312145
0.0288365
0.0259663
0.0225814
0.0187525
0.0145024
0.028211
0.0270478
0.0283642
0.0284226
0.0293844
0.0298279
0.0307085
0.0313799
0.0322358
0.0328061
0.0332806
0.0337036
0.033653
0.0331595
0.0326732
0.0315628
0.0300073
0.0280598
0.025844
0.0233057
0.0203963
0.0171511
0.0135679
0.0282404
0.0270119
0.0281012
0.0283426
0.0290462
0.0295076
0.0301388
0.0306632
0.031255
0.0315723
0.031762
0.0318737
0.031542
0.0308535
0.0301305
0.0289359
0.027402
0.0255816
0.0235918
0.0214011
0.0189596
0.0162732
0.0133151
0.02817
0.0270417
0.0277868
0.028168
0.0286854
0.0290978
0.029527
0.0298689
0.0302204
0.0303091
0.0302644
0.0301296
0.0296075
0.0288049
0.0279546
0.0267614
0.0253226
0.0236894
0.021956
0.0201041
0.0180905
0.0159065
0.0135107
0.0280056
0.0271011
0.0274789
0.0278669
0.0282874
0.0286154
0.0288744
0.0290337
0.0291672
0.0290673
0.0288389
0.0285214
0.0278822
0.0270334
0.0261438
0.0250111
0.0237086
0.022285
0.0208107
0.01927
0.0176277
0.0158695
0.0139487
0.0277652
0.0271275
0.0272196
0.0274836
0.0278292
0.0280577
0.0281801
0.0281873
0.0281356
0.0278878
0.0275245
0.0270803
0.0263853
0.0255432
0.0246737
0.0236379
0.0224906
0.021275
0.020041
0.0187731
0.0174423
0.0160333
0.014502
0.0274731
0.0270527
0.0269928
0.0271151
0.0273281
0.0274416
0.0274519
0.0273442
0.0271538
0.0267985
0.0263449
0.0258253
0.0251207
0.0243194
0.023506
0.0225852
0.0215951
0.0205716
0.0195499
0.0185154
0.0174443
0.016322
0.0151091
0.0271553
0.0268846
0.0267663
0.0267545
0.0268108
0.0268059
0.026715
0.0265188
0.0262349
0.0258153
0.0253151
0.0247647
0.024083
0.0233419
0.0226014
0.0217949
0.020949
0.0200923
0.0192501
0.0184092
0.0175501
0.0166593
0.0157035
0.0268284
0.0266429
0.0264995
0.026389
0.0263071
0.0261887
0.0260045
0.0257378
0.0253948
0.0249464
0.0244372
0.0238925
0.0232572
0.0225863
0.0219214
0.0212172
0.020493
0.019773
0.0190757
0.0183911
0.0177027
0.0169979
0.0162486
0.0265008
0.0263557
0.0261921
0.026015
0.025831
0.0256155
0.0253504
0.0250272
0.0246478
0.0241941
0.0236994
0.0231834
0.0226082
0.0220108
0.0214192
0.0208043
0.0201812
0.0195696
0.0189852
0.0184224
0.0178681
0.0173098
0.016725
0.0261784
0.026048
0.0258652
0.0256418
0.0253893
0.0251035
0.0247766
0.0244111
0.0240107
0.023565
0.0230949
0.022614
0.0220971
0.0215667
0.0210411
0.0205044
0.0199679
0.0194453
0.0189499
0.0184803
0.0180277
0.0175818
0.0171253
0.0258717
0.0257437
0.0255445
0.0252888
0.0249915
0.0246603
0.0242942
0.0239016
0.0234912
0.0230588
0.0226145
0.0221658
0.0216991
0.0212278
0.0207625
0.0202947
0.0198317
0.0193826
0.0189577
0.0185578
0.0181785
0.0178131
0.0174499
0.025601
0.0254718
0.0252596
0.0249821
0.0246565
0.024298
0.0239108
0.0235028
0.0230859
0.0226633
0.0222385
0.0218147
0.021388
0.0209665
0.0205555
0.0201496
0.0197522
0.0193681
0.019002
0.0186547
0.0183262
0.0180153
0.0177175
0.0253863
0.0252538
0.0250344
0.0247462
0.0244046
0.0240315
0.0236361
0.0232241
0.0228071
0.0223946
0.0219871
0.0215844
0.0211868
0.0207992
0.0204236
0.020057
0.0197002
0.0193564
0.0190298
0.0187222
0.0184341
0.0181649
0.0179126
0.0252716
0.0251386
0.0249115
0.0246122
0.0242584
0.023874
0.0234719
0.0230562
0.022638
0.0222295
0.0218337
0.0214486
0.0210725
0.0207077
0.0203556
0.0200149
0.0196856
0.01937
0.0190723
0.0187949
0.0185381
0.0183014
0.0180847
0.0662541
0.048173
0.0258784
0.00481902
-0.0144875
-0.0327213
-0.0502111
-0.0657534
0.0538043
0.0369623
0.0150375
-0.0040178
-0.0192017
-0.0320595
-0.044002
-0.0544066
0.04285
0.0299628
0.0114031
-0.00514339
-0.0166094
-0.0254288
-0.0339978
-0.0421931
0.0332825
0.0232474
0.00779838
-0.00641298
-0.0156019
-0.0217814
-0.0275407
-0.0330358
0.0254493
0.018015
0.00612366
-0.00514151
-0.0122173
-0.0165618
-0.0205335
-0.0245073
0.0192094
0.0134515
0.00495341
-0.0031167
-0.00852213
-0.0119198
-0.014866
-0.017671
0.0148719
0.0102426
0.00458412
-0.000759874
-0.00471503
-0.00742431
-0.00968536
-0.0117014
0.0122171
0.00857408
0.00493264
0.00155315
-0.00120895
-0.00331341
-0.00506709
-0.0065267
0.0108855
0.00808699
0.00583073
0.00379322
0.00195038
0.000381979
-0.00095536
-0.00202233
0.0105078
0.00839654
0.0070685
0.00591643
0.00473409
0.00359728
0.00258072
0.00177576
0.0107891
0.00921908
0.00849378
0.0079068
0.00718332
0.00638847
0.00564185
0.00505258
0.0114792
0.010335
0.00999123
0.00975309
0.00933627
0.00879525
0.00825157
0.00780802
0.0123409
0.0115172
0.0114032
0.0113875
0.0111942
0.010846
0.0104462
0.0100917
0.0132426
0.0126545
0.0126706
0.0127838
0.0127418
0.0125333
0.0122412
0.0119534
0.0141283
0.0137084
0.0137869
0.0139516
0.0139874
0.0138693
0.0136565
0.0134202
0.014946
0.014646
0.0147427
0.0149097
0.0149736
0.0149069
0.0147483
0.0145522
0.0156687
0.015453
0.0155417
0.0156836
0.0157446
0.0156992
0.0155725
0.0154046
0.0162838
0.0161252
0.0161913
0.0162945
0.0163351
0.0162918
0.0161813
0.0160325
0.0167895
0.0166677
0.0167047
0.016765
0.0167774
0.0167257
0.0166209
0.0164842
0.0171888
0.017087
0.0170927
0.0171118
0.0170949
0.01703
0.0169251
0.0167956
0.0175047
0.0174058
0.0173749
0.0173522
0.0173054
0.0172262
0.0171195
0.0169959
0.0177288
0.0176245
0.0175585
0.0174977
0.0174238
0.0173317
0.017224
0.0171068
0.0179147
0.0177882
0.0176736
0.0175668
0.0174629
0.0173584
0.0172516
0.0171426
-0.605629
-0.619147
-0.638493
-0.663339
-0.69415
-0.728826
-0.760567
-0.783402
-0.600792
-0.613746
-0.631663
-0.653107
-0.677902
-0.705708
-0.732271
-0.75028
-0.593471
-0.606463
-0.622369
-0.640479
-0.659767
-0.677037
-0.688401
-0.689185
-0.586753
-0.597928
-0.609676
-0.620414
-0.629003
-0.633094
-0.63023
-0.617979
-0.582319
-0.587724
-0.590995
-0.591276
-0.5886
-0.582155
-0.570206
-0.550563
-0.579015
-0.574182
-0.566521
-0.55677
-0.545587
-0.532289
-0.514931
-0.491187
-0.573315
-0.556031
-0.537928
-0.520508
-0.503711
-0.486224
-0.465713
-0.439861
-0.561497
-0.532529
-0.506654
-0.484262
-0.464103
-0.444236
-0.422027
-0.395264
-0.541016
-0.503836
-0.473641
-0.448621
-0.426852
-0.405844
-0.383011
-0.356192
-0.51163
-0.470965
-0.439443
-0.413779
-0.391674
-0.370548
-0.347869
-0.321683
-0.475219
-0.435041
-0.40461
-0.379715
-0.358374
-0.337857
-0.315972
-0.290926
-0.433909
-0.397398
-0.369458
-0.346619
-0.326719
-0.307445
-0.286852
-0.263349
-0.390549
-0.35858
-0.334544
-0.314532
-0.296607
-0.279098
-0.260167
-0.238564
-0.343384
-0.319288
-0.300112
-0.283664
-0.2682
-0.252567
-0.235612
-0.216035
-0.295533
-0.282182
-0.266271
-0.254675
-0.240798
-0.227317
-0.212235