/*--------------------------------*- C++ -*----------------------------------*\
| =========                 |                                                 |
| \\      /  F ield         | OpenFOAM: The Open Source CFD Toolbox           |
|  \\    /   O peration     | Version:  2312                                  |
|   \\  /    A nd           | Website:  www.openfoam.com                      |
|    \\/     M anipulation  |                                                 |
\*---------------------------------------------------------------------------*/
FoamFile
{
    version     2.0;
    format      ascii;
    arch        "LSB;label=32;scalar=64";
    class       volVectorField;
    location    "129";
    object      U;
}
// * * * * * * * * * * * * * * * * * * * * * * * * * * * * * * * * * * * * * //

dimensions      [0 1 -1 0 0 0 0];

internalField   nonuniform List<vector> 
5478
(
(-0.0279575 0.0157033 -7.70154e-20)
(-0.0501172 0.0180856 0)
(-0.0408288 0.00848026 1.18343e-19)
(0.0193612 -0.00173456 -2.06909e-19)
(0.142925 -0.00902397 1.33652e-19)
(0.324112 -0.00939092 -4.16812e-20)
(0.537 -0.00129876 -6.57194e-20)
(0.751015 0.0134676 0)
(0.940047 0.0330507 0)
(1.08989 0.050546 6.69395e-20)
(1.19751 0.0654635 -3.32022e-20)
(1.25177 0.075355 -4.86929e-20)
(1.28281 0.0678944 -1.89508e-20)
(1.26878 0.0729086 0)
(1.24232 0.0380356 5.09469e-20)
(-0.0346131 0.021313 1.54558e-19)
(-0.0411302 0.0267658 0)
(0.014382 0.0177751 0)
(0.149678 0.00984147 -1.03203e-19)
(0.362328 0.0119767 1.35869e-19)
(0.612945 0.0253901 3.80697e-20)
(0.85177 0.0454635 -6.13142e-20)
(1.04382 0.0665373 5.43637e-20)
(1.17418 0.0826449 1.23579e-19)
(1.24562 0.091546 -1.06579e-19)
(1.26521 0.0935615 5.64747e-22)
(1.26008 0.0856603 0)
(1.23821 0.079402 1.89182e-20)
(1.2179 0.067055 0)
(1.22439 0.0542863 0)
(-0.0349481 0.0191898 -3.41906e-22)
(-0.0120915 0.0209724 -7.14895e-20)
(0.111992 0.0155225 1.42821e-22)
(0.344135 0.0222456 0)
(0.632495 0.0451979 -4.47923e-20)
(0.89917 0.0745606 3.74638e-20)
(1.09562 0.0998644 3.08696e-20)
(1.21 0.114803 0)
(1.25611 0.118832 -4.19987e-20)
(1.25742 0.115095 3.4049e-20)
(1.24434 0.10592 2.76094e-20)
(1.22987 0.0994037 0)
(1.22449 0.0889305 0)
(1.22733 0.0847118 -5.58999e-20)
(1.22081 0.0705554 4.97689e-20)
(-0.027952 0.0128633 -8.30442e-20)
(0.0472724 0.0079741 7.07054e-20)
(0.270352 0.0167345 -6.11529e-20)
(0.593306 0.0517813 5.32015e-20)
(0.896814 0.0953368 8.93414e-20)
(1.10842 0.128897 -7.42311e-20)
(1.21943 0.145386 -3.0849e-20)
(1.25701 0.147213 2.30965e-20)
(1.25682 0.141042 -2.2478e-20)
(1.24791 0.131752 0)
(1.23925 0.124739 0)
(1.23261 0.114684 -4.04063e-20)
(1.22395 0.107907 5.20645e-20)
(1.20645 0.0966831 -2.91511e-20)
(1.19333 0.0854804 0)
(-0.0105212 0.00513114 4.1966e-20)
(0.149709 -0.000785055 3.52566e-20)
(0.486454 0.0406782 -1.26293e-19)
(0.841007 0.103447 1.47877e-21)
(1.08793 0.151235 -1.66519e-21)
(1.21351 0.173903 -1.14416e-21)
(1.2567 0.177322 2.90492e-20)
(1.26111 0.171274 2.43253e-20)
(1.25368 0.162074 1.70667e-20)
(1.24182 0.153123 -3.11236e-21)
(1.22785 0.142162 -3.83801e-20)
(1.2124 0.132562 0)
(1.19779 0.122173 1.66328e-20)
(1.19078 0.111168 -1.22276e-20)
(1.18664 0.103121 2.20578e-20)
(0.0233167 -0.00228303 -8.97226e-20)
(0.30193 0.00903965 9.69996e-20)
(0.715185 0.0916445 -3.31877e-20)
(1.02909 0.163792 2.50439e-20)
(1.19367 0.200221 -4.61156e-20)
(1.25463 0.209508 -3.39823e-20)
(1.26492 0.205185 1.02133e-21)
(1.25589 0.195546 0)
(1.24009 0.184356 3.48244e-20)
(1.22387 0.171944 -3.09684e-20)
(1.21002 0.160861 1.21003e-20)
(1.19976 0.149364 0)
(1.19201 0.138975 7.19272e-21)
(1.18089 0.127914 -1.25379e-20)
(1.16695 0.119751 0)
(0.0791942 -0.00430143 -1.11597e-20)
(0.486575 0.0495647 9.85731e-22)
(0.905102 0.157969 1.62233e-20)
(1.14708 0.222521 2.72518e-20)
(1.24421 0.244329 -2.06693e-20)
(1.26511 0.243273 3.46254e-20)
(1.25585 0.232941 -7.88161e-21)
(1.23866 0.219716 0)
(1.22242 0.205831 -2.03582e-20)
(1.20843 0.192891 1.54422e-21)
(1.19569 0.179735 1.66273e-20)
(1.18276 0.167481 0)
(1.16958 0.155573 -1.04339e-20)
(1.16006 0.143189 0)
(1.1537 0.135558 6.19053e-21)
(0.157029 0.00633318 -1.23399e-20)
(0.663879 0.117289 0)
(1.04061 0.230213 1.70372e-20)
(1.21183 0.279564 0)
(1.25903 0.286764 0)
(1.25499 0.276313 0)
(1.23735 0.260912 -6.61335e-21)
(1.21915 0.244698 0)
(1.20222 0.228908 4.10764e-21)
(1.18663 0.213162 0)
(1.17303 0.198454 -5.14067e-21)
(1.16257 0.184221 0)
(1.15487 0.170751 3.23728e-21)
(1.146 0.15893 0)
(1.13494 0.149656 2.03976e-21)
(0.00279894 -0.189992 -1.27745e-20)
(-0.0208634 -0.298913 0)
(-0.069108 -0.302913 2.00467e-20)
(-0.119712 -0.279428 0)
(-0.168218 -0.249353 0)
(-0.212773 -0.209747 0)
(-0.251521 -0.155477 -1.31432e-20)
(-0.283284 -0.0839289 0)
(-0.3056 0.00558232 1.06015e-20)
(-0.318382 0.111388 0)
(-0.322078 0.22834 -1.6244e-20)
(-0.314911 0.350079 0)
(-0.29517 0.468206 1.15962e-20)
(-0.265769 0.568449 0)
(-0.213762 0.646698 7.8275e-21)
(0.0124559 -0.161098 6.1727e-20)
(-0.0106296 -0.245792 -4.26581e-20)
(-0.064244 -0.241302 1.67705e-20)
(-0.121559 -0.215608 6.65838e-20)
(-0.177229 -0.187622 3.49324e-22)
(-0.229339 -0.153898 -5.41764e-20)
(-0.27554 -0.108785 3.72413e-20)
(-0.313007 -0.049379 0)
(-0.339894 0.0249169 2.69187e-20)
(-0.354773 0.110985 -1.0297e-21)
(-0.355385 0.205628 -1.25513e-20)
(-0.338635 0.301494 0)
(-0.304673 0.390578 -2.85294e-20)
(-0.256519 0.474477 0)
(-0.15928 0.53204 -3.41025e-20)
(0.019253 -0.127987 9.05945e-20)
(-0.000188952 -0.190799 1.96826e-20)
(-0.0513464 -0.180011 -3.67331e-20)
(-0.105399 -0.152023 -9.42366e-20)
(-0.156047 -0.125197 5.45623e-20)
(-0.201099 -0.0968608 4.7528e-20)
(-0.238273 -0.0617172 -8.15254e-20)
(-0.265283 -0.0168274 0)
(-0.279397 0.0379865 -6.01188e-20)
(-0.277881 0.101208 5.34524e-20)
(-0.259376 0.169355 1.93361e-20)
(-0.223188 0.241765 0)
(-0.150685 0.301984 1.69287e-20)
(-0.0888587 0.35899 -2.14605e-20)
(0.0540768 0.36477 0)
(0.0223851 -0.0968298 4.12091e-20)
(0.00667134 -0.141755 -1.13912e-19)
(-0.0386578 -0.127648 1.31403e-19)
(-0.0840334 -0.0986136 -1.13491e-19)
(-0.122331 -0.0727537 -4.84362e-20)
(-0.151776 -0.0497829 4.16968e-20)
(-0.170456 -0.0245866 3.93996e-20)
(-0.176059 0.00608922 2.975e-20)
(-0.167016 0.042927 -7.46173e-20)
(-0.141747 0.0853558 3.90555e-21)
(-0.0903742 0.132112 1.6848e-20)
(-0.0417826 0.178514 0)
(0.0800214 0.209169 2.00506e-20)
(0.128124 0.269938 5.82044e-20)
(0.332174 0.226394 -3.27612e-20)
(0.02095 -0.0696148 -1.1153e-21)
(0.00579908 -0.101436 7.00067e-20)
(-0.0350428 -0.0890399 -6.12039e-20)
(-0.0720026 -0.0636356 5.582e-20)
(-0.0976885 -0.0417337 9.43339e-20)
(-0.110123 -0.0249238 -8.08583e-20)
(-0.108147 -0.00899768 -3.29424e-20)
(-0.0906926 0.0091736 -8.38991e-20)
(-0.0558885 0.0313188 7.2607e-20)
(-0.00497949 0.0547403 0)
(0.0783444 0.0869045 0)
(0.137978 0.113819 4.45221e-20)
(0.321042 0.117308 -9.63731e-20)
(0.341233 0.173906 3.2692e-20)
(0.615684 0.120644 0)
(0.0136937 -0.0450162 -2.29029e-22)
(-0.00563686 -0.0675334 -7.01009e-20)
(-0.0450251 -0.0618991 1.81187e-19)
(-0.0761039 -0.0460014 -5.25855e-20)
(-0.0908266 -0.0325702 -4.59307e-20)
(-0.0866648 -0.0238158 3.91902e-20)
(-0.0615483 -0.0171522 3.29599e-20)
(-0.0137001 -0.00949867 5.03669e-20)
(0.0584555 0.00106127 -8.68345e-20)
(0.153481 0.0128736 3.3732e-20)
(0.274087 0.0316263 2.69419e-20)
(0.388582 0.0475812 0)
(0.590443 0.0533037 0)
(0.653278 0.0799605 6.3005e-20)
(0.943511 0.0553856 -5.59966e-20)
(0.000456666 -0.0212261 -1.4256e-22)
(-0.025475 -0.0357448 0)
(-0.0617292 -0.0385551 0)
(-0.0823072 -0.0346567 1.01143e-19)
(-0.0770297 -0.0317675 -4.51516e-20)
(-0.0396486 -0.0318229 3.75093e-20)
(0.0329652 -0.0322762 6.03878e-20)
(0.13909 -0.0300327 -5.35442e-20)
(0.274385 -0.0248391 4.21508e-20)
(0.427906 -0.0107646 -3.37599e-20)
(0.587058 0.00139189 5.1675e-22)
(0.760426 0.0199984 0)
(0.917711 0.034324 1.89249e-20)
(1.04811 0.0434392 0)
(1.22788 0.0454291 0)
(-0.0153095 0.00055943 -7.5359e-20)
(-0.0437214 -0.00522286 0)
(-0.0652585 -0.0136995 -1.17069e-19)
(-0.056776 -0.019167 2.04594e-19)
(-0.00524964 -0.0245888 -2.20681e-19)
(0.0955149 -0.0293222 -3.4102e-20)
(0.241179 -0.0299146 6.49733e-20)
(0.416411 -0.0241414 0)
(0.6058 -0.0126736 0)
(0.785205 0.00677017 -6.59208e-20)
(0.953421 0.0210285 -2.27557e-20)
(1.09459 0.0458675 4.80317e-20)
(1.19278 0.0493197 -1.89557e-20)
(1.28572 0.060409 0)
(1.30682 0.0518009 -5.57514e-20)
(-0.16565 0.752983 0)
(-0.0122937 0.753286 3.72621e-21)
(0.247268 0.408802 -3.45143e-21)
(0.578032 -0.119291 0)
(0.754977 -0.498747 0)
(0.80681 -0.682956 -1.11588e-22)
(0.803305 -0.605952 0)
(0.758967 -0.624887 0)
(0.587136 -0.646346 5.58814e-23)
(0.563955 -0.328078 0)
(0.73173 0.00759679 0)
(0.895373 0.307338 -1.01732e-22)
(0.894232 0.415139 0)
(0.90405 0.560582 -8.67989e-23)
(0.928639 0.584304 -6.43769e-23)
(0.901018 0.284714 0)
(0.98092 0.101712 -6.18402e-22)
(1.02225 -0.349949 7.43914e-22)
(1.04433 -0.537796 0)
(1.04932 -0.44489 4.37488e-22)
(1.03926 -0.35692 -5.57928e-22)
(1.08607 0.290899 9.46237e-23)
(1.08258 0.494928 -2.04058e-22)
(1.05609 0.408086 1.94981e-22)
(1.19262 0.282899 -2.30417e-22)
(1.08784 -0.446345 0)
(1.07233 -0.672214 -2.0691e-22)
(1.14763 0.157273 1.97845e-22)
(1.0559 0.515712 -1.43639e-22)
(1.03282 0.0415052 0)
(0.966079 -0.219046 -1.06771e-22)
(0.985672 -0.0292205 0)
(0.984136 0.0655927 -3.77189e-23)
(0.95218 0.00583849 -1.59238e-23)
(0.964002 -0.0158071 1.23068e-24)
(0.948626 0.0042449 -7.80001e-24)
(0.957836 0.00394613 0)
(0.955849 0.000362238 2.86148e-24)
(-0.0654235 0.643747 1.2115e-20)
(0.174074 0.58456 -1.0789e-22)
(0.477776 0.220813 -1.60656e-20)
(0.771068 -0.265805 1.53197e-20)
(0.902632 -0.573884 0)
(0.90087 -0.701447 1.12448e-22)
(0.844365 -0.606557 -1.5287e-22)
(0.817142 -0.581148 0)
(0.649171 -0.599793 -5.62964e-23)
(0.585839 -0.362802 0)
(0.71422 -0.0745673 0)
(0.872502 0.261212 1.02463e-22)
(0.886259 0.390197 0)
(0.854975 0.541236 2.53816e-21)
(0.888584 0.577769 -2.14892e-21)
(0.870441 0.278935 2.13563e-21)
(0.994149 0.0805014 -2.03847e-21)
(1.05053 -0.35257 -1.54426e-22)
(1.04636 -0.546358 0)
(1.08668 -0.442841 0)
(1.02384 -0.366341 -1.13976e-22)
(1.07833 0.283096 1.20766e-21)
(1.07161 0.487164 -1.80033e-21)
(1.02943 0.393643 7.5313e-22)
(1.20245 0.279309 6.39235e-22)
(1.10982 -0.424975 0)
(1.05953 -0.681222 4.63513e-22)
(1.13008 0.154945 0)
(1.05696 0.518298 1.44149e-22)
(1.05237 0.0516248 -3.02317e-22)
(0.977156 -0.216545 5.01205e-22)
(0.987168 -0.0313161 -3.7663e-23)
(0.992199 0.0678629 6.70006e-23)
(0.958809 0.00748677 4.66053e-24)
(0.967961 -0.0157321 1.70653e-23)
(0.956009 0.004553 -6.98446e-24)
(0.963851 0.00362642 -6.61903e-25)
(0.959909 0.000543466 5.66071e-25)
(0.173415 0.474921 2.32335e-20)
(0.424807 0.430075 -5.22286e-20)
(0.712968 0.105839 -3.60473e-21)
(0.970004 -0.323984 3.12123e-20)
(1.06334 -0.580829 3.56921e-22)
(1.01314 -0.674542 -2.35945e-22)
(0.914416 -0.583996 1.55489e-22)
(0.873218 -0.532881 -2.38759e-22)
(0.723495 -0.558547 0)
(0.6618 -0.391387 5.00646e-21)
(0.736493 -0.156578 -4.77564e-21)
(0.849956 0.225674 -1.76031e-22)
(0.864025 0.410986 0)
(0.80192 0.552576 -4.81944e-21)
(0.849227 0.577699 4.47097e-21)
(0.847407 0.273304 -2.07766e-21)
(1.00503 0.0630356 1.98233e-21)
(1.07539 -0.338905 2.54658e-21)
(1.04201 -0.548775 -2.16573e-21)
(1.11611 -0.441541 0)
(1.00231 -0.376762 0)
(1.06525 0.271275 2.20577e-21)
(1.05921 0.487697 -2.10592e-21)
(1.00311 0.384021 -1.461e-21)
(1.20145 0.2776 -2.45175e-22)
(1.12426 -0.393539 1.51722e-21)
(1.03866 -0.683944 1.18866e-23)
(1.10677 0.147005 -9.58825e-22)
(1.05467 0.520423 1.50207e-21)
(1.06775 0.0662743 -1.21956e-21)
(0.986029 -0.210251 4.71893e-23)
(0.985849 -0.0335477 -1.46094e-22)
(0.997516 0.0696195 5.45318e-23)
(0.962999 0.00972257 -5.21394e-23)
(0.969119 -0.0155902 -1.00312e-23)
(0.961001 0.00469617 -4.68058e-24)
(0.967418 0.0035056 1.48348e-23)
(0.961631 0.000842038 2.66285e-24)
(0.432234 0.306523 0)
(0.635691 0.285262 2.71887e-20)
(0.914523 0.0118303 -2.67316e-20)
(1.14294 -0.367792 0)
(1.19227 -0.569397 -3.66828e-22)
(1.1002 -0.63161 2.42418e-22)
(0.976675 -0.557921 0)
(0.92324 -0.482504 8.76331e-24)
(0.779267 -0.519549 -1.93573e-22)
(0.742462 -0.419239 0)
(0.794458 -0.217845 -5.10362e-21)
(0.874344 0.171902 5.04739e-21)
(0.880588 0.38077 -3.7697e-22)
(0.755854 0.534392 -4.77605e-21)
(0.79779 0.571332 4.55426e-21)
(0.82728 0.266466 2.33879e-22)
(1.00847 0.0438865 0)
(1.09658 -0.323921 -2.83094e-22)
(1.04192 -0.549868 4.16801e-21)
(1.13714 -0.442053 4.16821e-22)
(0.979635 -0.384691 1.13232e-21)
(1.05014 0.242719 -4.3615e-21)
(1.03754 0.475882 -2.52232e-21)
(0.972623 0.36882 3.08512e-21)
(1.18825 0.27427 -3.66575e-22)
(1.13002 -0.361225 0)
(1.01488 -0.682746 -4.86399e-22)
(1.07722 0.128397 9.71467e-22)
(1.0443 0.514164 -1.46488e-21)
(1.07652 0.0788282 1.18001e-21)
(0.992488 -0.202723 -1.93492e-22)
(0.981975 -0.0366893 0)
(0.999948 0.070496 -5.43539e-23)
(0.964721 0.0123287 9.85731e-23)
(0.96768 -0.0154583 3.25479e-23)
(0.963697 0.00462959 2.79738e-23)
(0.968615 0.00356883 -1.48453e-23)
(0.961127 0.0012489 -1.20929e-25)
(0.685503 0.176565 2.38474e-22)
(0.828074 0.165042 6.53247e-22)
(1.10988 -0.0651307 0)
(1.29385 -0.371762 0)
(1.26978 -0.516196 0)
(1.15035 -0.562271 0)
(1.00793 -0.525757 8.8876e-21)
(0.965831 -0.436711 -1.57254e-20)
(0.834481 -0.475254 7.25771e-21)
(0.784533 -0.452152 0)
(0.868344 -0.297957 -5.35041e-21)
(0.914293 0.124087 5.25153e-21)
(0.877104 0.412156 6.29335e-21)
(0.719134 0.55766 -5.29415e-21)
(0.766552 0.562702 4.09282e-21)
(0.82582 0.251241 -4.14016e-21)
(1.01362 0.0235456 -2.60603e-22)
(1.11212 -0.300563 -4.34699e-21)
(1.04306 -0.544519 4.14139e-21)
(1.14531 -0.440561 4.71393e-22)
(0.951638 -0.39436 6.50372e-22)
(1.02545 0.217405 4.01745e-21)
(1.01699 0.479466 -4.52977e-21)
(0.948704 0.360752 -5.59352e-22)
(1.17064 0.273615 -2.93645e-22)
(1.12826 -0.321975 -2.39003e-22)
(0.988736 -0.679158 0)
(1.04293 0.107536 0)
(1.03198 0.509618 0)
(1.08112 0.0943916 0)
(0.997406 -0.191691 4.91972e-22)
(0.976234 -0.0395273 -2.82021e-22)
(0.999727 0.0709541 1.08217e-22)
(0.964224 0.0154007 -2.95733e-22)
(0.964122 -0.0152778 3.17317e-23)
(0.964392 0.00437538 5.55633e-24)
(0.967684 0.00382313 -1.85239e-23)
(0.958636 0.00175868 -6.5295e-24)
(0.977994 0.0813547 -2.50909e-22)
(1.07913 0.0633495 4.30678e-20)
(1.30172 -0.116556 -4.13072e-20)
(1.39761 -0.334967 -4.39688e-20)
(1.31097 -0.436395 4.1869e-20)
(1.19396 -0.481728 2.55126e-20)
(1.04102 -0.491291 -2.37594e-20)
(0.987913 -0.406453 2.40052e-22)
(0.908334 -0.419461 -2.0408e-22)
(0.801854 -0.464073 0)
(0.872654 -0.366975 -1.66897e-22)
(0.938541 0.0622364 1.35919e-20)
(0.88307 0.381158 -1.2943e-20)
(0.687614 0.554476 -3.45973e-22)
(0.721082 0.571146 0)
(0.820435 0.256414 -4.4902e-21)
(1.01973 0.0211043 8.55967e-21)
(1.12309 -0.273921 -3.80411e-21)
(1.04791 -0.534936 0)
(1.13825 -0.439701 4.25837e-21)
(0.924624 -0.399544 7.76517e-22)
(0.995052 0.170212 -5.67934e-21)
(0.98721 0.462257 -3.25413e-21)
(0.919739 0.348401 2.95696e-21)
(1.14736 0.275672 -2.04086e-21)
(1.12102 -0.281419 -8.79477e-22)
(0.968145 -0.672127 3.22826e-21)
(1.00468 0.075914 -3.20683e-21)
(1.01046 0.495263 3.05024e-21)
(1.07827 0.1072 -4.21323e-22)
(1.00053 -0.18012 4.00563e-22)
(0.969059 -0.0430357 0)
(0.996852 0.0704641 1.0776e-22)
(0.961787 0.0186761 -2.37515e-23)
(0.959073 -0.0151151 0)
(0.963507 0.00392191 -2.92272e-23)
(0.964993 0.00425225 1.20084e-23)
(0.954517 0.00235551 -2.7202e-24)
(1.23593 0.0362037 0)
(1.3049 0.00598467 0)
(1.41369 -0.117477 -1.41567e-22)
(1.41402 -0.270226 0)
(1.307 -0.357498 0)
(1.20823 -0.405276 2.53835e-20)
(1.08288 -0.44702 -2.41674e-20)
(0.994071 -0.394709 1.494e-20)
(0.968986 -0.369921 -1.42316e-20)
(0.852388 -0.435996 0)
(0.821382 -0.456296 -1.99119e-22)
(0.945291 -0.0224775 2.34604e-22)
(0.896926 0.403562 -1.32775e-20)
(0.681692 0.584758 1.88275e-21)
(0.732977 0.556901 1.00062e-20)
(0.842115 0.231502 1.3442e-22)
(1.03349 0.00136839 -1.34035e-22)
(1.1306 -0.247475 8.05208e-21)
(1.05499 -0.519923 -7.89436e-21)
(1.12062 -0.431629 0)
(0.896455 -0.410767 0)
(0.958927 0.136068 -3.97768e-22)
(0.956966 0.465649 0)
(0.89847 0.3381 2.2017e-21)
(1.12833 0.275319 2.18186e-23)
(1.11481 -0.235988 -1.71778e-21)
(0.953882 -0.66469 -4.94075e-21)
(0.965712 0.0470781 3.29932e-21)
(0.990924 0.486205 -2.64367e-22)
(1.07298 0.120233 0)
(1.00331 -0.166899 -2.74423e-22)
(0.96171 -0.0457559 2.60199e-22)
(0.992088 0.0699215 6.65815e-23)
(0.958099 0.0221999 2.72191e-23)
(0.953323 -0.0149638 -4.04006e-23)
(0.961543 0.0033547 1.00766e-23)
(0.961018 0.00488579 0)
(0.949237 0.00303711 5.08918e-24)
(1.30843 0.0229402 3.41727e-20)
(1.34715 0.00203249 3.46284e-20)
(1.37532 -0.065109 3.08255e-21)
(1.35147 -0.174822 -6.85546e-20)
(1.28358 -0.267837 3.27584e-20)
(1.21106 -0.335069 -2.26476e-22)
(1.12347 -0.395976 0)
(1.0103 -0.384003 -1.33988e-22)
(0.995359 -0.350393 -1.11853e-22)
(0.921173 -0.379821 0)
(0.781142 -0.479071 -1.51487e-20)
(0.869388 -0.161404 1.43122e-20)
(0.863512 0.316862 2.43262e-22)
(0.688786 0.566258 1.13904e-20)
(0.702328 0.58692 -1.08095e-20)
(0.825034 0.270706 1.40346e-22)
(1.04181 0.0206442 1.42166e-22)
(1.14073 -0.206007 0)
(1.06577 -0.496942 7.49034e-21)
(1.09572 -0.417786 -7.0991e-21)
(0.884653 -0.415521 -6.41036e-21)
(0.909736 0.0704382 1.11166e-21)
(0.919488 0.436169 5.07397e-21)
(0.869407 0.331455 -2.12116e-21)
(1.10466 0.283108 3.29435e-22)
(1.11235 -0.188894 4.23617e-21)
(0.946126 -0.648381 -1.8507e-21)
(0.927384 0.00473073 3.69963e-21)
(0.961933 0.462703 -2.73684e-21)
(1.05989 0.135284 0)
(1.00482 -0.151541 0)
(0.954836 -0.04882 0)
(0.98537 0.068066 3.935e-23)
(0.953545 0.0256922 -6.36951e-23)
(0.947492 -0.014866 4.08206e-23)
(0.958898 0.00257721 -2.72906e-23)
(0.956246 0.0056339 -1.05904e-23)
(0.943323 0.0037602 0)
(1.26223 0.0182523 0)
(1.28611 -0.00705409 0)
(1.29843 -0.0508602 0)
(1.29708 -0.126802 0)
(1.25885 -0.197419 0)
(1.20388 -0.243223 0)
(1.15729 -0.298052 0)
(1.04105 -0.320909 0)
(1.0076 -0.294755 0)
(0.992043 -0.316062 0)
(0.780885 -0.482255 0)
(0.770125 -0.253512 0)
(0.8224 0.290091 0)
(0.66963 0.586949 0)
(0.735867 0.572616 0)
(0.886007 0.214998 0)
(1.07731 -0.00579929 0)
(1.15547 -0.167217 0)
(1.07634 -0.45776 0)
(1.07191 -0.42877 0)
(0.862661 -0.425624 0)
(0.8663 0.0399546 0)
(0.872071 0.441425 0)
(0.829585 0.309082 0)
(1.11849 0.285881 0)
(1.12683 -0.154613 0)
(0.934891 -0.631695 0)
(0.888379 -0.0207425 0)
(0.930546 0.45271 0)
(1.05008 0.140616 0)
(1.00596 -0.136688 0)
(0.948001 -0.0492214 0)
(0.977358 0.0677039 0)
(0.948487 0.0300722 0)
(0.940783 -0.0145605 0)
(0.954993 0.00188977 0)
(0.949852 0.00697241 0)
(0.935924 0.0047886 0)
(1.225 0.00873369 0)
(1.2397 -0.0176282 0)
(1.25292 -0.0740909 0)
(1.23484 -0.130805 0)
(1.20959 -0.180732 0)
(1.14816 -0.257266 0)
(1.09736 -0.285538 0)
(1.01554 -0.280766 0)
(0.927248 -0.320022 0)
(0.909982 -0.300139 0)
(0.771874 -0.369115 0)
(0.68021 -0.177534 0)
(0.684308 0.359143 0)
(0.59463 0.59995 0)
(0.798695 0.496786 0)
(0.973106 0.133953 0)
(1.13267 -0.0793115 0)
(1.16261 -0.219096 0)
(1.06485 -0.452456 0)
(1.01649 -0.362053 0)
(0.763995 -0.348272 0)
(0.809607 0.0755752 0)
(0.777374 0.457088 0)
(0.785644 0.261473 0)
(1.11728 0.220828 0)
(1.12227 -0.157142 0)
(0.909328 -0.5846 0)
(0.853249 0.00891574 0)
(0.884401 0.434946 0)
(1.03502 0.119987 0)
(1.00326 -0.125042 0)
(0.935373 -0.0430733 0)
(0.963241 0.0681112 0)
(0.941536 0.0330873 0)
(0.933271 -0.0155031 0)
(0.949154 0.000801761 0)
(0.941538 0.0087915 0)
(0.927446 0.00604397 0)
(1.19209 0.00424817 0)
(1.20373 -0.0252688 0)
(1.21495 -0.0569471 0)
(1.18847 -0.107267 0)
(1.17731 -0.14243 0)
(1.13768 -0.169523 0)
(1.07765 -0.216462 0)
(1.04253 -0.198386 0)
(0.984249 -0.212755 0)
(0.909069 -0.214349 0)
(0.790284 -0.29601 0)
(0.632055 -0.156561 0)
(0.564833 0.378618 0)
(0.63316 0.533474 0)
(0.927262 0.374742 0)
(1.09495 0.0466021 0)
(1.15743 -0.105906 0)
(1.1669 -0.159505 0)
(1.07492 -0.378258 0)
(0.963763 -0.312721 0)
(0.674835 -0.319252 0)
(0.724557 0.065183 0)
(0.681649 0.444521 0)
(0.775924 0.184681 0)
(1.09738 0.180504 0)
(1.14559 -0.116476 0)
(0.89782 -0.540188 0)
(0.810896 -0.000824509 0)
(0.833976 0.396785 0)
(1.02415 0.103987 0)
(0.999875 -0.108262 0)
(0.921227 -0.0387794 0)
(0.948562 0.0650833 0)
(0.936078 0.0363214 0)
(0.927372 -0.0158032 0)
(0.942836 -0.000107011 0)
(0.93343 0.0110087 0)
(0.920402 0.00740227 0)
(1.16223 0.000456876 0)
(1.16908 -0.0220386 0)
(1.17222 -0.0575862 0)
(1.1585 -0.0889565 0)
(1.13245 -0.122199 0)
(1.10289 -0.152286 0)
(1.06009 -0.187426 0)
(1.00381 -0.180166 0)
(0.96805 -0.20951 0)
(0.90545 -0.184438 0)
(0.834975 -0.185741 0)
(0.685599 -0.0499525 0)
(0.61558 0.353877 0)
(0.811038 0.369794 0)
(1.06237 0.228424 0)
(1.18582 0.0110709 0)
(1.16355 -0.105851 0)
(1.13291 -0.178793 0)
(1.0511 -0.341658 0)
(0.8875 -0.203368 0)
(0.637539 -0.232711 0)
(0.607105 0.0837477 0)
(0.622555 0.42224 0)
(0.80383 0.0953252 0)
(1.06065 0.104446 0)
(1.14439 -0.108634 0)
(0.895167 -0.456067 0)
(0.730962 0.0297544 0)
(0.771948 0.355197 0)
(1.02134 0.0689504 0)
(0.994118 -0.0932997 0)
(0.902992 -0.0301027 0)
(0.931032 0.0625526 0)
(0.930572 0.038431 0)
(0.923355 -0.0165562 0)
(0.936951 -0.000895477 0)
(0.92681 0.0134498 0)
(0.916293 0.00869524 0)
(1.13112 -0.00256267 0)
(1.14021 -0.0218173 0)
(1.13885 -0.0480197 0)
(1.12624 -0.0729824 0)
(1.10837 -0.0977674 0)
(1.08227 -0.113849 0)
(1.05359 -0.139039 0)
(1.00931 -0.121722 0)
(0.984335 -0.141705 0)
(0.914271 -0.110894 0)
(0.861561 -0.104945 0)
(0.773313 -0.0156466 0)
(0.776563 0.268183 0)
(0.98621 0.238596 0)
(1.12263 0.140832 0)
(1.18918 -0.0203127 0)
(1.13408 -0.0848487 0)
(1.11872 -0.110205 0)
(1.05935 -0.26038 0)
(0.870281 -0.111922 0)
(0.731156 -0.161769 0)
(0.573287 0.07639 0)
(0.675456 0.346212 0)
(0.883692 0.00623121 0)
(1.01951 0.0523124 0)
(1.14936 -0.0815197 0)
(0.916584 -0.377471 0)
(0.653444 0.0583853 0)
(0.751872 0.296243 0)
(1.03793 0.0335335 0)
(0.983758 -0.0697278 0)
(0.879824 -0.0198319 0)
(0.913805 0.0568456 0)
(0.928109 0.0386703 0)
(0.923091 -0.0171782 0)
(0.932518 -0.00135863 0)
(0.922824 0.0157306 0)
(0.916582 0.00968228 0)
(1.10663 -0.00333862 0)
(1.11412 -0.017542 0)
(1.11157 -0.0394669 0)
(1.10223 -0.0559328 0)
(1.0865 -0.0758689 0)
(1.06594 -0.0870195 0)
(1.04072 -0.1064 0)
(1.00482 -0.0952238 0)
(0.986859 -0.112677 0)
(0.93422 -0.0782847 0)
(0.913146 -0.0590873 0)
(0.861122 0.000917862 0)
(0.890324 0.18227 0)
(1.04283 0.129183 0)
(1.10843 0.0894244 0)
(1.16071 0.000246054 0)
(1.09154 -0.0619798 0)
(1.07513 -0.113395 0)
(1.02862 -0.218324 0)
(0.863675 -0.0353113 0)
(0.849671 -0.0754434 0)
(0.671775 0.0901985 0)
(0.825627 0.270742 0)
(1.00692 -0.045799 0)
(0.990088 -0.00741381 0)
(1.12607 -0.0806627 0)
(0.938566 -0.263007 0)
(0.615094 0.103677 0)
(0.79488 0.207881 0)
(1.05916 -0.00949371 0)
(0.964023 -0.0394665 0)
(0.865431 -0.00776957 0)
(0.909713 0.0472371 0)
(0.933974 0.0364686 0)
(0.93002 -0.0178182 0)
(0.932499 -0.00123279 0)
(0.924328 0.0175898 0)
(0.923341 0.0100967 0)
(1.0861 -0.00271734 0)
(1.09269 -0.0142243 0)
(1.0887 -0.0302903 0)
(1.08195 -0.0421218 0)
(1.06905 -0.0578209 0)
(1.05271 -0.0633522 0)
(1.03518 -0.0784605 0)
(1.00909 -0.0652985 0)
(0.996892 -0.0759118 0)
(0.958275 -0.047443 0)
(0.951495 -0.0262292 0)
(0.919766 -0.000921029 0)
(0.950673 0.108865 0)
(1.04622 0.0744361 0)
(1.0624 0.061297 0)
(1.11796 -0.0114956 0)
(1.0734 -0.0403581 0)
(1.06496 -0.0597339 0)
(1.00917 -0.15003 0)
(0.879235 0.00509582 0)
(0.935464 -0.0394123 0)
(0.817839 0.0741916 0)
(0.962286 0.182259 0)
(1.09964 -0.0605994 0)
(0.988508 -0.00347478 0)
(1.082 -0.0677302 0)
(0.972786 -0.173168 0)
(0.678593 0.12709 0)
(0.886836 0.114821 0)
(1.07264 -0.0326814 0)
(0.954213 -0.000159789 0)
(0.887495 -0.00107049 0)
(0.930916 0.0331824 0)
(0.953186 0.0339003 0)
(0.949598 -0.0172771 0)
(0.943166 -0.000188679 0)
(0.937666 0.0187006 0)
(0.939704 0.00985856 0)
(1.06928 -0.00154808 0)
(1.0746 -0.0101737 0)
(1.07055 -0.0219912 0)
(1.06668 -0.0297727 0)
(1.05574 -0.0415993 0)
(1.04442 -0.04411 0)
(1.03138 -0.0544472 0)
(1.01224 -0.0453844 0)
(1.00525 -0.0510034 0)
(0.976533 -0.0320412 0)
(0.979458 -0.0153382 0)
(0.961529 -0.000708355 0)
(0.979828 0.0624166 0)
(1.036 0.0348627 0)
(1.04166 0.0407655 0)
(1.08467 -0.00594445 0)
(1.04053 -0.0310599 0)
(1.0483 -0.0456975 0)
(1.00153 -0.108892 0)
(0.922325 0.0166561 0)
(0.980904 -0.026119 0)
(0.917477 0.0588426 0)
(1.02401 0.120953 0)
(1.0923 -0.0594953 0)
(0.993744 0.00355418 0)
(1.04758 -0.0691697 0)
(0.975943 -0.100717 0)
(0.798717 0.150808 0)
(0.979545 0.0464633 0)
(1.06058 -0.0429747 0)
(0.954557 0.034159 0)
(0.936195 0.00066855 0)
(0.962132 0.021859 0)
(0.9779 0.0323951 0)
(0.975967 -0.0157309 0)
(0.961649 0.00181549 0)
(0.961203 0.0192658 0)
(0.963822 0.00936598 0)
(1.05592 -9.73468e-05 0)
(1.06037 -0.00617452 0)
(1.05684 -0.0146831 0)
(1.05438 -0.0197526 0)
(1.04607 -0.0286543 0)
(1.03798 -0.029481 0)
(1.02894 -0.0369022 0)
(1.01589 -0.0306029 0)
(1.01122 -0.0327777 0)
(0.993703 -0.021691 0)
(0.996652 -0.00781927 0)
(0.986519 -0.00285585 0)
(0.998002 0.0338322 0)
(1.02905 0.0157751 0)
(1.02557 0.0239643 0)
(1.06093 -0.00636903 0)
(1.02842 -0.0243843 0)
(1.03955 -0.0188386 0)
(0.99911 -0.0711495 0)
(0.9581 0.0199544 0)
(0.998809 -0.0180392 0)
(0.955292 0.0344904 0)
(1.04025 0.0788257 0)
(1.06488 -0.0487733 0)
(1.00341 0.0242363 0)
(1.03689 -0.0495903 0)
(0.962997 -0.0644173 0)
(0.902234 0.136739 0)
(1.04175 0.00582478 0)
(1.03336 -0.0305195 0)
(0.970498 0.0573584 0)
(0.989215 -0.00452158 0)
(0.989011 0.0147901 0)
(1.00397 0.031914 0)
(1.00259 -0.0129974 0)
(0.983357 0.00426446 0)
(0.98949 0.0190495 0)
(0.991389 0.00897109 0)
(1.04592 0.00138362 0)
(1.04898 -0.00279876 0)
(1.04634 -0.00894208 0)
(1.04479 -0.0121206 0)
(1.03905 -0.0185474 0)
(1.03332 -0.0187647 0)
(1.02754 -0.0236969 0)
(1.01862 -0.0199164 0)
(1.01592 -0.0204766 0)
(1.0051 -0.0145892 0)
(1.00652 -0.00542407 0)
(1.00278 -0.00394479 0)
(1.00601 0.0170068 0)
(1.02624 0.00475159 0)
(1.01817 0.0120909 0)
(1.04561 -0.00316499 0)
(1.01778 -0.0196084 0)
(1.0294 -0.00897996 0)
(1.00384 -0.0483833 0)
(0.977849 0.01449 0)
(1.01233 -0.0125287 0)
(0.972405 0.0192158 0)
(1.03929 0.0541562 0)
(1.03822 -0.039787 0)
(1.00136 0.0259888 0)
(1.04216 -0.0373186 0)
(0.961902 -0.0416401 0)
(0.963828 0.113484 0)
(1.06029 -0.0102605 0)
(1.00283 -0.0171875 0)
(0.998362 0.0601586 0)
(1.02444 -0.00821693 0)
(1.00071 0.0133847 0)
(1.02417 0.0300983 0)
(1.02052 -0.00967097 0)
(1.00033 0.00615556 0)
(1.01261 0.0174433 0)
(1.01384 0.0085324 0)
(1.03794 0.00264646 0)
(1.04015 -0.000171434 0)
(1.03851 -0.00449729 0)
(1.03747 -0.00643772 0)
(1.03378 -0.011088 0)
(1.02981 -0.0110103 0)
(1.02611 -0.014585 0)
(1.02049 -0.0122825 0)
(1.01832 -0.0126658 0)
(1.01273 -0.00976861 0)
(1.01205 -0.00395938 0)
(1.01181 -0.00412046 0)
(1.01053 0.00724363 0)
(1.02422 0.00076529 0)
(1.01446 0.00400497 0)
(1.03385 -0.00177019 0)
(1.01507 -0.0152401 0)
(1.02233 -0.00204981 0)
(1.00982 -0.0297181 0)
(0.989156 0.00999332 0)
(1.0189 -0.00547184 0)
(0.982198 0.00776911 0)
(1.03367 0.0360958 0)
(1.02697 -0.0281278 0)
(0.999438 0.0242592 0)
(1.04372 -0.0186332 0)
(0.964293 -0.0265626 0)
(0.993226 0.081373 0)
(1.05828 -0.0102557 0)
(0.986954 -0.00342842 0)
(1.01981 0.051335 0)
(1.03512 -0.00675704 0)
(1.00359 0.0135132 0)
(1.03574 0.0258817 0)
(1.02786 -0.00477873 0)
(1.01001 0.00747179 0)
(1.02526 0.0148229 0)
(1.02609 0.00833075 0)
(1.03182 0.00367514 0)
(1.03345 0.00174221 0)
(1.03244 -0.00124508 0)
(1.03186 -0.00250568 0)
(1.02947 -0.00584214 0)
(1.02698 -0.00572022 0)
(1.02447 -0.00843863 0)
(1.02127 -0.0069348 0)
(1.01938 -0.00776836 0)
(1.01686 -0.00590682 0)
(1.01494 -0.00342178 0)
(1.01646 -0.00316855 0)
(1.01292 0.00196703 0)
(1.0222 -0.000777151 0)
(1.01405 4.41981e-05 0)
(1.02588 -0.000925466 0)
(1.01474 -0.0102632 0)
(1.01667 -0.000582521 0)
(1.01412 -0.0172973 0)
(0.995768 0.00533813 0)
(1.02126 -0.00233464 0)
(0.992098 0.00284552 0)
(1.02589 0.0232953 0)
(1.02186 -0.0177037 0)
(0.997217 0.0169729 0)
(1.04001 -0.00848635 0)
(0.976312 -0.015205 0)
(1.00611 0.0542592 0)
(1.04652 -0.00441449 0)
(0.986626 0.00259417 0)
(1.02898 0.037395 0)
(1.03319 -0.00153675 0)
(1.00692 0.0120161 0)
(1.03866 0.0200498 0)
(1.0284 0.000327732 0)
(1.01557 0.00736077 0)
(1.02974 0.0113785 0)
(1.03007 0.00794586 0)
(1.02707 0.0043815 0)
(1.02831 0.00297943 0)
(1.02767 0.000942482 0)
(1.02749 9.80025e-05 0)
(1.02587 -0.00234368 0)
(1.02454 -0.00212818 0)
(1.02268 -0.00444176 0)
(1.0211 -0.00317867 0)
(1.01937 -0.00466039 0)
(1.01857 -0.00299391 0)
(1.01636 -0.00282774 0)
(1.01804 -0.00189958 0)
(1.01448 -0.000462847 0)
(1.02028 -0.00090949 0)
(1.01431 -0.00130643 0)
(1.02082 -0.00102166 0)
(1.01475 -0.00614155 0)
(1.01433 -0.000669045 0)
(1.01569 -0.00874434 0)
(1.00172 0.0025204 0)
(1.02027 -9.04707e-05 0)
(0.999618 0.00136367 0)
(1.02019 0.013611 0)
(1.01925 -0.0082278 0)
(1.00001 0.0111566 0)
(1.0331 -0.00038282 0)
(0.988105 -0.00572883 0)
(1.01133 0.0331011 0)
(1.03557 0.00211095 0)
(0.99432 0.00639762 0)
(1.02894 0.026569 0)
(1.02819 0.00457434 0)
(1.01153 0.009964 0)
(1.03625 0.0155354 0)
(1.02664 0.00531937 0)
(1.01923 0.00698022 0)
(1.02999 0.00874186 0)
(1.03004 0.00803246 0)
(1.02327 0.00477081 0)
(1.02425 0.00367857 0)
(1.02386 0.00233067 0)
(1.02394 0.00172458 0)
(1.02287 -0.000102527 0)
(1.02221 0.000206892 0)
(1.02087 -0.00191845 0)
(1.02013 -0.000594101 0)
(1.01882 -0.00269414 0)
(1.01864 -0.000721132 0)
(1.0168 -0.0022786 0)
(1.01805 -0.000507886 0)
(1.01523 -0.00124444 0)
(1.01865 -0.000551653 0)
(1.01454 -0.00120777 0)
(1.01811 -0.00117739 0)
(1.01454 -0.00265833 0)
(1.01383 -0.00129462 0)
(1.01547 -0.00327732 0)
(1.00637 0.000702768 0)
(1.01813 0.000813712 0)
(1.00531 0.00156065 0)
(1.01675 0.00722541 0)
(1.01681 -0.00139406 0)
(1.00397 0.00626487 0)
(1.02606 0.00313741 0)
(0.998398 3.30682e-05 0)
(1.01408 0.0191896 0)
(1.02673 0.00671276 0)
(1.00245 0.00645432 0)
(1.02626 0.0180313 0)
(1.0243 0.00887102 0)
(1.01547 0.00729876 0)
(1.03236 0.0120018 0)
(1.02504 0.00846094 0)
(1.02185 0.00574999 0)
(1.02898 0.00646066 0)
(1.02906 0.0078351 0)
(1.0202 0.0048739 0)
(1.02101 0.00397589 0)
(1.02075 0.00312204 0)
(1.021 0.00265207 0)
(1.02027 0.00126752 0)
(1.02002 0.00163272 0)
(1.01909 -0.000316853 0)
(1.01876 0.00108822 0)
(1.01789 -0.00134755 0)
(1.01782 0.000882771 0)
(1.01664 -0.00162962 0)