/*--------------------------------*- C++ -*----------------------------------*\
| =========                 |                                                 |
| \\      /  F ield         | OpenFOAM: The Open Source CFD Toolbox           |
|  \\    /   O peration     | Version:  2512                                  |
|   \\  /    A nd           | Website:  www.openfoam.com                      |
|    \\/     M anipulation  |                                                 |
\*---------------------------------------------------------------------------*/
FoamFile
{
    version     2.0;
    format      ascii;
    arch        "LSB;label=32;scalar=64";
    class       volVectorField;
    location    "130.85";
    object      U;
}
// * * * * * * * * * * * * * * * * * * * * * * * * * * * * * * * * * * * * * //

dimensions      [0 1 -1 0 0 0 0];

internalField   nonuniform List<vector> 
13248
(
(-0.0151294 0.0165586 6.6619e-20)
(-0.0214134 0.0319635 0)
(-0.00519184 0.0350394 -1.16057e-19)
(0.0305911 0.0285506 1.0746e-19)
(0.0858053 0.0157541 9.98376e-20)
(0.161676 -0.00102388 0)
(0.25911 -0.0201101 0)
(0.377081 -0.0400693 2.39592e-19)
(0.511227 -0.0595226 -1.26676e-21)
(0.653633 -0.0772122 -2.03865e-19)
(0.794067 -0.0921895 1.82028e-19)
(0.92213 -0.103923 -1.1283e-19)
(1.02938 -0.112263 0)
(1.11076 -0.117331 -1.65252e-19)
(1.16502 -0.119392 2.95621e-19)
(1.19428 -0.118786 -7.02904e-20)
(1.20315 -0.11574 -1.00929e-19)
(1.19711 -0.110719 9.41026e-20)
(1.18214 -0.103523 0)
(1.16258 -0.0952153 0)
(1.14245 -0.0845658 0)
(1.12352 -0.073915 0)
(1.10771 -0.0617386 1.62715e-20)
(1.09253 -0.0492865 4.42781e-20)
(-0.012562 0.0116812 -2.0021e-19)
(-0.0127699 0.0209123 1.26117e-19)
(0.0132166 0.0208067 -2.6763e-22)
(0.064255 0.0130978 -1.61767e-19)
(0.141131 0.000585084 -9.96986e-20)
(0.244775 -0.0142016 -9.22261e-20)
(0.373869 -0.0291748 -1.70611e-19)
(0.522768 -0.042714 1.57228e-19)
(0.681101 -0.0538026 0)
(0.835672 -0.062136 1.87735e-21)
(0.973645 -0.0680203 2.17516e-21)
(1.0854 -0.0720643 1.08564e-19)
(1.16612 -0.0748576 0)
(1.21595 -0.076755 0)
(1.239 -0.0778388 1.00961e-19)
(1.24174 -0.0779376 -1.87898e-19)
(1.23114 -0.0768355 9.7847e-20)
(1.21355 -0.0742796 -9.12301e-20)
(1.19349 -0.070099 -3.60454e-20)
(1.17389 -0.0645889 -5.71235e-20)
(1.15643 -0.0569721 -1.89975e-20)
(1.14087 -0.0497666 -3.32448e-20)
(1.12879 -0.0387334 5.58951e-20)
(1.11483 -0.0334537 1.40148e-20)
(-0.0100255 0.00776274 0)
(-0.00111443 0.0104422 0)
(0.0394778 0.00638548 5.80907e-20)
(0.112138 -0.00266823 5.34569e-20)
(0.217907 -0.0138315 -4.27509e-22)
(0.355373 -0.0243283 -9.2021e-20)
(0.517524 -0.0321716 0)
(0.691001 -0.036556 -7.83036e-20)
(0.858946 -0.0379161 7.01022e-20)
(1.00571 -0.0375227 -1.8869e-21)
(1.12067 -0.0368122 -1.14806e-19)
(1.19986 -0.0368109 -9.90421e-20)
(1.24547 -0.0378713 5.46683e-21)
(1.26391 -0.0397334 -6.98896e-20)
(1.26338 -0.0417609 1.74733e-19)
(1.25167 -0.0432629 0)
(1.23485 -0.043677 -9.5042e-20)
(1.21669 -0.0427048 4.68881e-20)
(1.1991 -0.0402764 3.60073e-20)
(1.18291 -0.03653 0)
(1.16791 -0.0315757 2.514e-20)
(1.15456 -0.0261667 -7.98787e-20)
(1.14187 -0.0195922 7.45933e-20)
(1.13 -0.0158537 3.96092e-20)
(-0.00691221 0.00459324 -6.81438e-20)
(0.0155036 0.00117873 -6.46712e-20)
(0.0774289 -0.00621216 5.88128e-20)
(0.179608 -0.0152781 0)
(0.321078 -0.0227295 0)
(0.494156 -0.0259951 2.43542e-23)
(0.682439 -0.0243582 0)
(0.864627 -0.0190697 -2.27221e-19)
(1.0215 -0.0125124 2.06545e-19)
(1.14121 -0.00702229 -2.50827e-19)
(1.22081 -0.00402721 5.63159e-20)
(1.26469 -0.00379204 0)
(1.28142 -0.00567293 8.30027e-20)
(1.28044 -0.00860315 -1.4945e-19)
(1.26969 -0.0115573 3.54284e-20)
(1.25456 -0.0138091 8.01371e-20)
(1.23804 -0.0149838 -7.96587e-21)
(1.22145 -0.015016 -8.50641e-20)
(1.20539 -0.0139021 0)
(1.18995 -0.0120095 0)
(1.17565 -0.00891205 -2.52134e-20)
(1.16226 -0.00624656 2.13726e-20)
(1.15064 -0.00123126 6.81472e-20)
(1.13895 -0.000536906 -6.36257e-20)
(-0.00211695 0.00172492 -6.97671e-20)
(0.0396015 -0.0068965 -6.50132e-20)
(0.130553 -0.015803 1.80136e-19)
(0.269632 -0.0221306 -1.09055e-19)
(0.449693 -0.0226065 1.01018e-19)
(0.652178 -0.0161455 1.82667e-19)
(0.85062 -0.0047379 -1.25901e-19)
(1.02079 0.00791979 -1.47236e-19)
(1.14859 0.0184053 5.13206e-21)
(1.23167 0.0248195 1.84397e-19)
(1.27641 0.0269771 0)
(1.29329 0.0258708 4.61326e-20)
(1.29276 0.0229131 0)
(1.28285 0.0193498 -6.94208e-20)
(1.26859 0.0160058 9.64328e-20)
(1.25269 0.0133081 9.32452e-22)
(1.23641 0.011403 -2.29437e-20)
(1.22047 0.010346 4.06379e-20)
(1.2052 0.0100431 3.39935e-20)
(1.19105 0.0105605 -2.91439e-20)
(1.17802 0.0116765 2.52013e-20)
(1.16643 0.0131336 -2.13622e-20)
(1.15578 0.0158863 0)
(1.14587 0.0151869 -1.53221e-20)
(0.00557509 -0.00118268 6.97496e-20)
(0.0736036 -0.0137394 6.67779e-20)
(0.201091 -0.0213063 -6.01611e-20)
(0.381513 -0.0211904 1.10089e-19)
(0.596142 -0.0115835 -1.01972e-19)
(0.813438 0.00524854 9.06407e-20)
(1.00204 0.0240944 -4.24854e-20)
(1.14343 0.0400496 1.10763e-19)
(1.2346 0.0504809 -6.75855e-20)
(1.28349 0.0551629 1.14127e-19)
(1.30243 0.0553803 -2.5724e-19)
(1.30306 0.0528646 9.17401e-20)
(1.29393 0.0490866 -7.68071e-20)
(1.28028 0.0450166 7.1502e-20)
(1.2649 0.0411948 5.81109e-20)
(1.2492 0.0378855 4.83862e-20)
(1.23387 0.0352234 -1.33218e-19)
(1.21924 0.0332325 8.11425e-20)
(1.20551 0.0319399 -3.39874e-20)
(1.19267 0.0312299 8.45344e-20)
(1.18079 0.0311026 -2.72446e-20)
(1.16971 0.0312133 -6.14906e-20)
(1.15945 0.0322245 5.57696e-20)
(1.14974 0.0306309 1.5317e-20)
(0.017234 -0.00408695 0)
(0.119283 -0.0186689 2.64702e-22)
(0.289328 -0.0211937 1.22641e-19)
(0.510372 -0.0107357 -1.13316e-19)
(0.747852 0.0105456 -1.00652e-19)
(0.961176 0.0358971 1.83658e-19)
(1.12367 0.0582721 -8.38136e-20)
(1.22922 0.0737432 1.08276e-19)
(1.28638 0.0817744 -3.31765e-21)
(1.30944 0.0838857 -5.85457e-20)
(1.31184 0.0821873 1.2328e-19)
(1.30335 0.0784796 -1.77855e-19)
(1.28995 0.0739739 0)
(1.27478 0.0693732 -3.2728e-20)
(1.25935 0.0650473 -8.45552e-20)
(1.24429 0.0611794 2.66115e-20)
(1.22982 0.0578341 1.52236e-21)
(1.21605 0.0550301 -5.20919e-20)
(1.20298 0.0527219 5.10485e-21)
(1.19071 0.0509001 5.85911e-20)
(1.17925 0.0494521 -2.44573e-20)
(1.16868 0.0484018 -8.64717e-21)
(1.15888 0.0477716 2.80725e-20)
(1.14975 0.04556 0)
(0.0336802 -0.00656172 0)
(0.177445 -0.0202677 3.35798e-20)
(0.393061 -0.0134501 -1.57348e-19)
(0.647545 0.0102892 5.63375e-20)
(0.891216 0.0423921 -5.21838e-20)
(1.08417 0.0726438 -4.59437e-20)
(1.21265 0.0947664 -7.96124e-20)
(1.28392 0.107369 3.9486e-20)
(1.31423 0.112096 3.38307e-20)
(1.31966 0.111566 0)
(1.31213 0.108093 7.1612e-20)
(1.29888 0.103267 -1.03488e-19)
(1.28369 0.0980089 7.63238e-20)
(1.26823 0.0927974 3.27418e-20)
(1.25315 0.0878585 -2.55747e-20)
(1.23865 0.0832902 -2.03569e-20)
(1.22481 0.079139 -1.83812e-20)
(1.21169 0.075418 5.64731e-20)
(1.19937 0.0721417 0)
(1.18789 0.06928 2.62179e-20)
(1.17724 0.0668278 2.06892e-20)
(1.1673 0.0647524 -5.23999e-20)
(1.15795 0.0628087 -3.35679e-20)
(1.14921 0.0604142 3.10917e-20)
(0.0553991 -0.00789669 -3.7819e-20)
(0.247531 -0.0166281 -8.30676e-22)
(0.507325 0.00379827 3.17708e-20)
(0.78255 0.041684 8.6173e-20)
(1.01601 0.0816154 2.39009e-20)
(1.17883 0.112849 -4.58073e-20)
(1.27286 0.132012 4.15194e-20)
(1.31553 0.140576 -3.56853e-20)
(1.3264 0.1418 6.17485e-20)
(1.32061 0.138779 2.5695e-20)
(1.30751 0.133687 -7.16347e-20)
(1.29196 0.127781 2.08068e-20)
(1.27605 0.121694 3.44428e-20)
(1.26057 0.115721 -1.69052e-20)
(1.24575 0.110005 0)
(1.23167 0.104624 2.38235e-20)
(1.21837 0.0996231 3.90968e-20)
(1.20587 0.0950275 5.97021e-21)
(1.19415 0.0908335 -3.15669e-20)
(1.18319 0.0870306 1.28266e-20)
(1.17291 0.0835951 0)
(1.16322 0.080468 -9.54333e-21)
(1.15409 0.0774356 -8.53833e-21)
(1.14544 0.0747536 0)
(0.0824283 -0.00722313 0)
(0.327359 -0.0058113 1.82321e-20)
(0.62501 0.0315153 3.31189e-20)
(0.906053 0.0820583 -8.67413e-20)
(1.11729 0.125887 2.7307e-20)
(1.24678 0.154864 0)
(1.31017 0.169424 3.86513e-20)
(1.33083 0.173508 -5.30021e-20)
(1.32851 0.171334 -3.05187e-20)
(1.31595 0.166005 1.37079e-20)
(1.29985 0.15934 -2.08363e-20)
(1.28318 0.152244 5.05209e-20)
(1.26702 0.145135 2.47337e-20)
(1.25167 0.138207 -1.72681e-20)
(1.2372 0.131561 -1.83925e-21)
(1.22358 0.125255 -4.47955e-20)
(1.21079 0.119324 2.01217e-20)
(1.1988 0.11378 -4.17286e-22)
(1.18761 0.108632 0)
(1.17718 0.103876 -1.28391e-20)
(1.16743 0.0995069 0)
(1.15826 0.0954335 2.75216e-20)
(1.14958 0.0915712 -3.22307e-20)
(1.14134 0.0885779 1.44268e-20)
(0.114258 -0.00363036 -1.00551e-20)
(0.41319 0.013696 -4.55135e-20)
(0.738414 0.0694566 5.059e-20)
(1.0118 0.129499 2.89265e-20)
(1.19422 0.173426 -1.3821e-20)
(1.29165 0.197822 2.19095e-20)
(1.32984 0.206922 -1.0648e-20)
(1.33452 0.206488 1.71472e-20)
(1.32365 0.201097 0)
(1.30714 0.193542 3.72875e-20)
(1.28949 0.18523 -1.58328e-21)
(1.27235 0.176784 -2.93087e-20)
(1.25619 0.168477 1.23635e-20)
(1.24105 0.160433 -1.3691e-20)
(1.2269 0.152717 -5.05695e-21)
(1.21367 0.145373 5.89027e-21)
(1.20133 0.13843 -4.45269e-21)
(1.18986 0.131906 -2.35201e-20)
(1.17922 0.125808 1.43095e-20)
(1.16932 0.120137 2.87014e-21)
(1.16003 0.114861 2.47613e-21)
(1.15124 0.10988 2.13447e-21)
(1.14289 0.10529 0)
(1.13488 0.101715 0)
(0.14988 0.00372829 1.00673e-20)
(0.500303 0.0426881 -9.34782e-21)
(0.840979 0.116472 -1.68034e-20)
(1.0967 0.182169 0)
(1.24817 0.22304 -6.74836e-21)
(1.31718 0.241332 -5.79122e-21)
(1.33573 0.244607 -9.69119e-21)
(1.32931 0.239751 0)
(1.31313 0.231243 0)
(1.29446 0.221424 0)
(1.2761 0.211315 0)
(1.25886 0.201326 0)
(1.24285 0.191623 -7.73443e-21)
(1.22803 0.182285 3.4848e-21)
(1.21428 0.173357 5.9661e-21)
(1.20154 0.164871 2.75044e-21)
(1.18974 0.156842 6.70404e-21)
(1.17884 0.149279 0)
(1.16877 0.142185 -1.54839e-21)
(1.15942 0.135552 -1.43003e-21)
(1.1507 0.12934 -2.48001e-21)
(1.14249 0.123484 -2.13781e-21)
(1.13473 0.118206 0)
(1.12737 0.113886 1.46666e-21)
(0.000860944 -0.0707642 6.50182e-21)
(-0.00271971 -0.188123 -6.19136e-21)
(-0.017525 -0.271435 -1.14744e-20)
(-0.0402792 -0.324171 0)
(-0.0671165 -0.358775 -1.48714e-20)
(-0.0949285 -0.387299 4.58972e-21)
(-0.121746 -0.416436 -8.71826e-21)
(-0.146515 -0.447743 0)
(-0.168561 -0.479958 0)
(-0.187206 -0.510843 0)
(-0.201651 -0.537946 0)
(-0.211013 -0.558812 0)
(-0.214406 -0.571083 1.73233e-22)
(-0.211055 -0.572635 -6.21336e-21)
(-0.200402 -0.56175 1.20154e-20)
(-0.182218 -0.537296 1.75686e-20)
(-0.156682 -0.498844 5.45159e-21)
(-0.124378 -0.446507 0)
(-0.0863153 -0.381268 5.32726e-21)
(-0.0440043 -0.304461 -1.45165e-20)
(0.00167151 -0.217528 -8.99411e-21)
(0.0496372 -0.121728 -8.41143e-21)
(0.0958341 -0.0179204 0)
(0.142186 0.0936975 0)
(0.00260944 -0.0621792 -1.95455e-20)
(-0.00118763 -0.16666 3.0929e-20)
(-0.0208115 -0.240272 -1.15413e-20)
(-0.0492746 -0.286769 -2.1455e-20)
(-0.0815211 -0.318465 2.97911e-20)
(-0.114468 -0.346577 -1.87788e-20)
(-0.146505 -0.376864 2.61302e-20)
(-0.176947 -0.410374 1.66903e-20)
(-0.205384 -0.445822 0)
(-0.231306 -0.481195 -1.51079e-20)
(-0.254014 -0.514297 -6.93666e-22)
(-0.272673 -0.542842 1.31572e-20)
(-0.28638 -0.564514 1.92994e-20)
(-0.294263 -0.577076 2.4946e-20)
(-0.295574 -0.578521 -1.14199e-20)
(-0.289788 -0.567226 -3.37147e-20)
(-0.276685 -0.542085 1.0516e-20)
(-0.256426 -0.502587 -3.94102e-20)
(-0.2296 -0.44885 0)
(-0.19716 -0.381531 9.53709e-21)
(-0.160286 -0.301648 8.9847e-21)
(-0.120226 -0.210771 8.40252e-21)
(-0.0783953 -0.109867 0)
(-0.0370059 -6.22194e-05 0)
(0.00284481 -0.0484581 0)
(-0.00182975 -0.13626 6.29393e-20)
(-0.0248207 -0.200134 -2.32727e-20)
(-0.0566795 -0.24151 2.16349e-20)
(-0.0917378 -0.271065 -6.08952e-20)
(-0.12707 -0.2987 0)
(-0.161376 -0.329388 -3.59784e-20)
(-0.194256 -0.363997 1.67238e-20)
(-0.225531 -0.401464 -3.21902e-20)
(-0.254887 -0.440132 1.54615e-20)
(-0.281824 -0.478135 8.60615e-20)
(-0.305693 -0.513438 -3.98949e-20)
(-0.325746 -0.543853 -6.39473e-20)
(-0.3412 -0.567136 -2.42854e-20)
(-0.351304 -0.581109 -3.31353e-22)
(-0.355402 -0.58381 8.42878e-20)
(-0.352997 -0.573619 -3.93409e-20)
(-0.34383 -0.549371 1.96993e-21)
(-0.327971 -0.510426 0)
(-0.305846 -0.456711 -2.8558e-20)
(-0.27811 -0.388714 0)
(-0.245445 -0.307267 -2.80344e-20)
(-0.209065 -0.213117 9.34154e-20)
(-0.17327 -0.107543 -1.89806e-21)
(0.00123786 -0.0315368 0)
(-0.00486448 -0.100491 5.32506e-22)
(-0.0293921 -0.154886 2.40723e-20)
(-0.0620953 -0.191996 -2.2608e-20)
(-0.0972407 -0.219839 2.00472e-20)
(-0.132063 -0.246744 1.17404e-19)
(-0.165407 -0.277015 -3.63606e-20)
(-0.196987 -0.311487 -3.50935e-20)
(-0.226733 -0.349364 6.52619e-20)
(-0.254485 -0.389336 -9.2166e-20)
(-0.279965 -0.429889 2.87789e-20)
(-0.302818 -0.469313 2.7401e-20)
(-0.322653 -0.5057 0)
(-0.339068 -0.537007 2.37448e-20)
(-0.351657 -0.561149 0)
(-0.360009 -0.576112 3.90033e-20)
(-0.363698 -0.580059 -7.12559e-20)
(-0.362317 -0.571418 1.97094e-20)
(-0.355583 -0.548966 5.97042e-20)
(-0.343438 -0.511869 2.85379e-20)
(-0.325842 -0.459685 0)
(-0.302194 -0.392211 -6.13584e-20)
(-0.272296 -0.309305 2.15668e-20)
(-0.242666 -0.212689 0)
(-0.00211335 -0.0136273 0)
(-0.0100295 -0.0629621 -7.82669e-20)
(-0.0341737 -0.108055 -2.49859e-20)
(-0.0651898 -0.141347 -4.57829e-20)
(-0.0977708 -0.167684 4.24251e-20)
(-0.129297 -0.193693 -3.95081e-20)
(-0.158607 -0.223107 7.61805e-20)
(-0.185364 -0.256817 3.61786e-20)
(-0.209454 -0.294275 -9.97807e-20)
(-0.230725 -0.334409 6.35278e-20)
(-0.248991 -0.375899 -8.83072e-20)
(-0.264103 -0.417197 1.94292e-19)
(-0.276013 -0.456548 -1.02675e-19)
(-0.284799 -0.492071 4.71784e-20)
(-0.290653 -0.521869 1.26072e-19)
(-0.293809 -0.544136 -4.24435e-20)
(-0.294449 -0.55722 -3.69455e-20)
(-0.292623 -0.559694 -3.26527e-20)
(-0.288237 -0.550381 0)
(-0.281164 -0.528277 -4.0333e-20)
(-0.271073 -0.492338 -2.86887e-20)
(-0.256104 -0.441359 4.96729e-20)
(-0.234725 -0.374302 4.70405e-20)
(-0.20691 -0.294198 -3.92351e-20)
(-0.00671784 0.00308806 0)
(-0.0166322 -0.0271134 -1.0861e-19)
(-0.0385574 -0.0629635 -1.4609e-21)
(-0.0654902 -0.0924751 9.3419e-20)
(-0.0929612 -0.117234 0)
(-0.118485 -0.142108 0)
(-0.140792 -0.170281 0)
(-0.159377 -0.202737 -3.68275e-20)
(-0.17399 -0.239175 -9.29947e-22)
(-0.184403 -0.278715 6.51035e-20)
(-0.190435 -0.320132 -9.02464e-20)
(-0.192045 -0.361891 8.28005e-23)
(-0.189417 -0.40219 0)
(-0.183006 -0.439068 -4.71545e-20)
(-0.173527 -0.470596 3.99158e-20)
(-0.161831 -0.495049 -1.13747e-19)
(-0.148849 -0.510918 1.25702e-19)
(-0.135413 -0.517123 1.67703e-20)
(-0.122101 -0.513071 -1.23076e-20)
(-0.109169 -0.49846 -7.73021e-20)
(-0.0970585 -0.472907 -2.51344e-20)
(-0.0819428 -0.435453 6.48072e-20)
(-0.0710359 -0.384181 -3.49413e-20)
(-0.0299572 -0.318716 0)
(-0.0117283 0.0167065 5.89165e-20)
(-0.0236022 0.0039893 5.46179e-20)
(-0.0417857 -0.022555 -5.25916e-20)
(-0.0624728 -0.0479798 -9.76451e-20)
(-0.0823788 -0.0709603 9.04803e-20)
(-0.099215 -0.094493 -8.6615e-20)
(-0.111509 -0.121157 1.21516e-19)
(-0.118508 -0.152008 -3.70002e-20)
(-0.119781 -0.186965 7.1612e-20)
(-0.115023 -0.225301 0)
(-0.104111 -0.265841 6.38552e-20)
(-0.0871765 -0.307029 -1.18711e-19)
(-0.0647365 -0.346926 1.05033e-19)
(-0.0377291 -0.383395 -9.77675e-20)
(-0.0074715 -0.414382 0)
(0.0246974 -0.4381 7.35729e-20)
(0.0572463 -0.452803 1.1632e-19)
(0.0888038 -0.457595 -1.09226e-19)
(0.118303 -0.452249 -3.96333e-20)
(0.145706 -0.436919 -2.57129e-20)
(0.166948 -0.413089 7.71357e-20)
(0.197319 -0.377624 6.74182e-21)
(0.201457 -0.339304 -1.12773e-20)
(0.260202 -0.280617 2.67871e-21)
(-0.0161141 0.0259576 -5.89305e-20)
(-0.0294625 0.0279433 1.7291e-19)
(-0.0427877 0.010497 -5.37324e-20)
(-0.0556735 -0.0104842 1.00729e-19)
(-0.0659594 -0.0313431 -9.33356e-20)
(-0.0715678 -0.0533753 3.15216e-22)
(-0.0709814 -0.0784513 4.16912e-20)
(-0.0631811 -0.107538 1.60882e-19)
(-0.0475333 -0.140679 1.72342e-21)
(-0.0237016 -0.177247 -6.84475e-20)
(0.00821401 -0.216045 0)
(0.04778 -0.255563 -5.89926e-20)
(0.0939208 -0.293676 1.09858e-19)
(0.144923 -0.328145 9.41955e-20)
(0.198459 -0.356871 -4.53875e-20)
(0.252553 -0.377741 -4.37554e-22)
(0.305245 -0.389206 -3.07281e-20)
(0.354531 -0.390667 4.86511e-20)
(0.398933 -0.382227 3.96234e-20)
(0.440179 -0.363741 -3.00182e-20)
(0.469898 -0.337893 2.03796e-20)
(0.512428 -0.300202 -1.33742e-20)
(0.516622 -0.264418 0)
(0.590857 -0.209249 -2.67518e-21)
(-0.0191207 0.0303858 6.17179e-20)
(-0.0332508 0.043288 -5.80325e-20)
(-0.0410053 0.0341864 5.54204e-20)
(-0.0448964 0.0178659 0)
(-0.0440762 -0.000707618 0)
(-0.0366993 -0.0213578 9.32225e-20)
(-0.0211073 -0.0450607 -8.48321e-20)
(0.00385919 -0.0725808 8.23809e-20)
(0.0389099 -0.103969 -3.78566e-19)
(0.0843638 -0.138567 -2.34078e-23)
(0.139648 -0.175282 6.5696e-20)
(0.203549 -0.21238 0)
(0.274189 -0.247618 -1.06574e-19)
(0.348667 -0.278763 1.92965e-19)
(0.423711 -0.303638 -1.29642e-19)
(0.496055 -0.320311 -1.71992e-19)
(0.562992 -0.327736 1.52997e-20)
(0.622519 -0.325516 1.02753e-19)
(0.673487 -0.314014 0)
(0.717511 -0.293519 0)
(0.748697 -0.266489 -2.03815e-20)
(0.787699 -0.231638 1.33757e-20)
(0.793078 -0.1957 -2.56457e-20)
(0.851641 -0.149714 2.39299e-20)
(-0.0202879 0.0304032 0)
(-0.0342981 0.0499024 0)
(-0.0363683 0.0476853 -1.68025e-19)
(-0.0308897 0.0357132 5.16198e-20)
(-0.0180468 0.0193178 -1.21835e-21)
(0.00363973 -0.000154142 9.2619e-20)
(0.0357843 -0.022897 0)
(0.0796242 -0.0492655 -8.14901e-20)
(0.135874 -0.0791183 7.60655e-20)
(0.204433 -0.111725 -1.4169e-19)
(0.284159 -0.14583 8.16353e-22)
(0.372517 -0.179461 1.18063e-19)
(0.465865 -0.210509 -4.52528e-21)
(0.559662 -0.236823 8.6447e-20)
(0.649206 -0.256518 -1.30999e-19)
(0.730425 -0.268277 0)
(0.800339 -0.271441 1.09169e-19)
(0.857243 -0.266202 -1.49449e-19)
(0.901773 -0.253047 3.73734e-20)
(0.933142 -0.23325 0)
(0.95599 -0.208026 2.21476e-20)
(0.971362 -0.17863 5.36635e-20)
(0.975703 -0.14694 -5.01101e-20)
(0.997426 -0.112165 -3.04112e-20)
(-0.0196453 0.0271255 1.93414e-19)
(-0.032437 0.0488149 -2.45417e-19)
(-0.0289239 0.0511975 -5.87532e-22)
(-0.0140814 0.042661 5.30534e-20)
(0.0112978 0.0280746 -9.94381e-20)
(0.0483282 0.00951094 -9.26228e-20)
(0.0986607 -0.0125193 1.75002e-19)
(0.163498 -0.0378258 1.41472e-21)
(0.24322 -0.0659133 -1.51877e-19)
(0.336783 -0.0957624 2.81456e-19)
(0.441303 -0.125844 -1.06549e-21)
(0.552024 -0.154274 -1.19397e-19)
(0.66288 -0.179139 0)
(0.767468 -0.198762 0)
(0.860142 -0.211939 -4.0798e-20)
(0.936917 -0.218087 -6.69579e-20)
(0.995695 -0.217244 -1.06919e-19)
(1.03677 -0.209957 9.96784e-20)
(1.06156 -0.197204 -3.74069e-20)
(1.0728 -0.179898 5.4106e-20)
(1.07508 -0.159716 -3.11969e-20)
(1.06844 -0.136637 2.3374e-20)
(1.06098 -0.11341 -7.15914e-20)
(1.05236 -0.0881271 7.94678e-21)
(-0.0176908 0.022034 6.51577e-20)
(-0.0280127 0.0420115 0)
(-0.0187621 0.0461527 1.15406e-19)
(0.0056812 0.039519 -1.0686e-19)
(0.044617 0.0261995 9.95617e-20)
(0.0990695 0.00847964 0)
(0.170519 -0.0125948 0)
(0.25981 -0.0361668 -8.08367e-20)
(0.366014 -0.0612177 4.44374e-22)
(0.485658 -0.0864096 6.94047e-20)
(0.612631 -0.110191 -6.10452e-20)
(0.738987 -0.131057 1.16541e-19)
(0.856402 -0.147783 0)
(0.957722 -0.159584 1.72839e-19)
(1.03816 -0.166129 -3.09049e-19)
(1.09573 -0.167575 2.05008e-19)
(1.13125 -0.164316 1.0414e-19)
(1.14767 -0.157111 -9.70923e-20)
(1.14885 -0.146598 0)
(1.14008 -0.133525 0)
(1.12454 -0.118998 0)
(1.10677 -0.101864 0)
(1.08982 -0.087084 1.36345e-20)
(1.07419 -0.0650653 -3.99192e-20)
(0.192062 0.227871 -5.01515e-21)
(0.253405 0.402653 5.02601e-21)
(0.314555 0.573458 -1.23658e-22)
(0.374402 0.716829 0)
(0.427094 0.811527 -2.64837e-21)
(0.467393 0.855046 4.70907e-21)
(0.497046 0.855003 -2.83396e-22)
(0.523131 0.821361 -1.7403e-21)
(0.538812 0.783473 0)
(0.529385 0.775701 0)
(0.502329 0.78793 -9.86205e-23)
(0.490555 0.755269 -1.10023e-22)
(0.522489 0.616583 -2.26754e-21)
(0.589263 0.371892 2.07972e-21)
(0.666061 0.06312 0)
(0.739356 -0.25123 0)
(0.796988 -0.502629 1.70105e-21)
(0.832627 -0.646301 -3.39176e-22)
(0.850972 -0.692079 -1.20495e-21)
(0.85204 -0.688259 -5.34638e-23)
(0.843658 -0.663859 0)
(0.837551 -0.631811 0)
(0.823973 -0.626872 0)
(0.78841 -0.667624 0)
(0.73657 -0.700762 0)
(0.68508 -0.638042 0)
(0.651921 -0.437028 4.16524e-22)
(0.64349 -0.136606 -6.47764e-22)
(0.658049 0.1701 0)
(0.68939 0.393928 0)
(0.734293 0.507409 -2.768e-22)
(0.778092 0.55331 2.68957e-22)
(0.801695 0.580236 9.30259e-23)
(0.788014 0.612146 0)
(0.741341 0.622606 0)
(0.681279 0.559126 2.5135e-22)
(0.640349 0.386103 -2.44294e-22)
(0.626058 0.123667 0)
(0.64375 -0.139942 2.33278e-22)
(0.686177 -0.329212 -3.33726e-22)
(0.728171 -0.421549 7.79202e-23)
(0.721726 -0.477918 0)
(0.67738 -0.500539 -1.0139e-22)
(0.631559 -0.448983 9.85876e-23)
(0.619169 -0.305388 0)
(0.634197 -0.0881715 0)
(0.666761 0.111961 -4.18617e-23)
(0.674924 0.304848 1.11365e-22)
(0.667001 0.419239 0)
(0.649878 0.439554 0)
(0.652696 0.341309 -3.16517e-23)
(0.652712 0.104479 -7.40567e-24)
(0.655821 -0.11136 -3.76708e-24)
(0.630166 -0.35045 2.31823e-23)
(0.622942 -0.421215 0)
(0.611604 -0.283067 0)
(0.611782 -0.113596 0)
(0.566417 0.249656 0)
(0.568059 0.335143 0)
(0.534269 0.0778826 0)
(0.00677103 0.13074 -4.06063e-22)
(0.0797486 0.312889 -1.58768e-20)
(0.147573 0.481288 1.92655e-21)
(0.22174 0.630011 1.30495e-20)
(0.294306 0.737026 1.39485e-22)
(0.361192 0.796946 0)
(0.422327 0.811091 -6.4355e-21)
(0.473904 0.794546 1.23841e-20)
(0.502261 0.780597 -5.95187e-21)
(0.502543 0.791315 6.21396e-21)
(0.496095 0.799918 -5.9355e-21)
(0.519429 0.741902 7.65161e-21)
(0.586517 0.578764 -7.40787e-21)
(0.674479 0.324341 -2.82048e-22)
(0.761854 0.0139281 -9.42162e-21)
(0.839052 -0.297233 9.14939e-21)
(0.891362 -0.53882 -6.97343e-21)
(0.911463 -0.668922 6.58471e-21)
(0.910548 -0.700322 -4.12179e-21)
(0.894723 -0.684707 7.11647e-21)
(0.86988 -0.656048 -3.03809e-21)
(0.8496 -0.621946 -1.40122e-22)
(0.826515 -0.608356 -2.17173e-21)
(0.781995 -0.637815 4.42543e-21)
(0.719807 -0.666595 -2.24965e-21)
(0.658387 -0.610234 1.68679e-22)
(0.614654 -0.423194 3.85006e-21)
(0.598767 -0.140328 2.55635e-22)
(0.612454 0.149993 -6.93959e-21)
(0.650337 0.365387 5.81409e-21)
(0.706974 0.479685 -2.53941e-21)
(0.763233 0.534933 2.04294e-22)
(0.798559 0.576738 -9.3225e-23)
(0.795079 0.624029 1.73962e-22)
(0.759008 0.644542 0)
(0.709701 0.582367 0)
(0.677595 0.401754 -1.28736e-21)
(0.66626 0.127242 9.06304e-22)
(0.677593 -0.149908 7.45089e-22)
(0.708787 -0.345849 -1.27225e-22)
(0.745317 -0.430045 -8.45051e-22)
(0.737323 -0.470251 1.20216e-22)
(0.687677 -0.48619 0)
(0.638055 -0.439624 0)
(0.624128 -0.306413 0)
(0.636423 -0.0960416 0)
(0.664676 0.105081 1.31334e-22)
(0.670953 0.304 -7.07229e-23)
(0.666282 0.421754 0)
(0.65217 0.441703 0)
(0.657658 0.342054 0)
(0.660195 0.104886 -6.95387e-23)
(0.664601 -0.109193 -3.06864e-25)
(0.635477 -0.345756 -4.72121e-23)
(0.622716 -0.42023 0)
(0.609496 -0.281062 0)
(0.609829 -0.110699 1.04237e-23)
(0.571689 0.253556 2.97416e-24)
(0.577834 0.338066 0)
(0.534613 0.0826433 0)
(-0.141331 0.020999 -1.44378e-21)
(-0.0507344 0.200857 -2.69099e-20)
(0.0195161 0.364607 2.16534e-20)
(0.106829 0.520008 -2.03063e-20)
(0.193834 0.635557 -1.4051e-22)
(0.281306 0.710363 0)
(0.361788 0.74444 -1.12693e-20)
(0.424143 0.754578 1.09952e-20)
(0.458346 0.767408 8.68641e-23)
(0.471219 0.789776 1.57776e-22)
(0.492121 0.785816 1.75119e-22)
(0.552741 0.703239 2.18858e-22)
(0.649608 0.528221 -1.71744e-20)
(0.75344 0.279234 1.696e-20)
(0.850302 -0.0219853 0)
(0.932121 -0.323731 5.47074e-22)
(0.980114 -0.552277 -1.3888e-20)
(0.986329 -0.669651 1.36757e-20)
(0.967235 -0.692348 0)
(0.936614 -0.670884 0)
(0.898084 -0.641463 -5.07632e-21)
(0.864044 -0.607374 9.24872e-21)
(0.832984 -0.585352 -7.99427e-21)
(0.783337 -0.603112 -1.21446e-22)
(0.712205 -0.630525 8.41006e-21)
(0.640764 -0.585261 -1.01758e-20)
(0.588022 -0.414814 1.13448e-20)
(0.564479 -0.149378 -1.07138e-22)
(0.576234 0.124579 -6.20974e-21)
(0.619388 0.331125 0)
(0.685386 0.446199 0)
(0.752657 0.510604 1.09231e-21)
(0.799597 0.566925 -1.43589e-21)
(0.807243 0.630811 -5.35101e-24)
(0.783486 0.664504 1.93206e-21)
(0.745575 0.606035 -1.87734e-21)
(0.722538 0.420106 0)
(0.71504 0.137304 3.46336e-22)
(0.720271 -0.15099 2.63659e-21)
(0.738114 -0.355962 -4.49937e-21)
(0.766974 -0.436193 1.6713e-21)
(0.758139 -0.461366 1.23767e-22)
(0.703805 -0.471185 -8.63194e-22)
(0.648743 -0.431038 6.67101e-22)
(0.6323 -0.308786 1.28673e-22)
(0.641865 -0.10442 1.13992e-22)
(0.666483 0.0980664 -1.31685e-22)
(0.67137 0.302253 0)
(0.669696 0.423698 0)
(0.657656 0.443516 -5.61191e-22)
(0.665222 0.343176 2.851e-22)
(0.670472 0.106005 -3.51367e-22)
(0.677008 -0.105902 4.3532e-22)
(0.644755 -0.339182 4.10672e-22)
(0.626346 -0.419149 -9.84949e-23)
(0.610822 -0.279189 6.86437e-23)
(0.611634 -0.109136 -2.20472e-23)
(0.580884 0.255636 -3.51365e-23)
(0.591327 0.342103 0)
(0.539039 0.0885135 0)
(-0.236261 -0.094618 -3.88053e-20)
(-0.142583 0.0731241 3.4757e-21)
(-0.0705273 0.231948 3.31057e-20)
(0.021028 0.392048 -2.60382e-22)
(0.111492 0.514673 0)
(0.208565 0.607592 0)
(0.294841 0.66649 -1.75086e-20)
(0.360452 0.705366 -6.46403e-22)
(0.402818 0.739852 2.61642e-20)
(0.436087 0.764626 1.06073e-21)
(0.490988 0.743114 -1.00002e-20)
(0.588125 0.642244 -1.34633e-20)
(0.708142 0.468859 1.34223e-20)
(0.82284 0.236416 0)
(0.929638 -0.050134 -1.78876e-20)
(1.01884 -0.340623 1.62959e-20)
(1.06421 -0.554819 0)
(1.05801 -0.658668 0)
(1.02143 -0.674493 7.7907e-21)
(0.97669 -0.649502 -1.63935e-21)
(0.927705 -0.620596 -5.59146e-21)
(0.881697 -0.589576 -3.99982e-21)
(0.842318 -0.561861 3.96201e-21)
(0.790101 -0.566028 -3.51989e-21)
(0.714144 -0.588796 -3.51223e-22)
(0.633331 -0.556463 3.67148e-21)
(0.571497 -0.407738 6.04406e-22)
(0.540957 -0.162778 7.45206e-23)
(0.549811 0.0947753 0)
(0.59591 0.291916 3.83353e-21)
(0.668715 0.406766 -3.91117e-21)
(0.744976 0.479723 1.81752e-22)
(0.803578 0.55087 0)
(0.824213 0.630851 -1.70747e-22)
(0.812767 0.677402 3.99835e-21)
(0.785775 0.625061 -8.50653e-21)
(0.77219 0.438634 -1.74208e-21)
(0.769775 0.15163 -1.28145e-22)
(0.770797 -0.144915 5.12336e-21)
(0.774547 -0.360304 5.20975e-22)
(0.792814 -0.44099 -2.50037e-21)
(0.782937 -0.452145 2.18389e-21)
(0.725148 -0.454811 1.04386e-23)
(0.663199 -0.421717 5.11141e-22)
(0.64305 -0.311907 -6.26071e-22)
(0.650157 -0.113737 -6.57356e-22)
(0.67205 0.0900792 2.19934e-22)
(0.6759 0.299094 3.83966e-22)
(0.676783 0.42537 -8.5886e-22)
(0.66608 0.4455 7.40996e-22)
(0.675115 0.344991 -3.68497e-22)
(0.683241 0.107564 3.56301e-22)
(0.692851 -0.101946 3.78263e-22)
(0.657962 -0.330949 -6.74955e-22)
(0.633875 -0.417633 5.80186e-23)
(0.61553 -0.277405 -3.28232e-23)
(0.616975 -0.108919 0)
(0.593582 0.256005 1.49726e-23)
(0.608329 0.347034 1.57842e-23)
(0.547631 0.0954257 0)
(-0.227429 -0.194474 2.25878e-20)
(-0.173458 -0.0488261 -4.16604e-20)
(-0.118663 0.104541 1.89656e-20)
(-0.0389389 0.259488 1.41169e-20)
(0.0388814 0.38891 -2.59523e-20)
(0.132493 0.498503 5.70668e-22)
(0.21703 0.579995 1.10985e-20)
(0.288221 0.64266 1.2211e-20)
(0.346648 0.691525 -1.19727e-20)
(0.408183 0.713268 0)
(0.499652 0.675915 -1.99723e-20)
(0.627458 0.566839 4.39063e-20)
(0.762424 0.40508 -2.38547e-20)
(0.886321 0.192645 0)
(1.00537 -0.0757822 0)
(1.10087 -0.347433 5.25674e-22)
(1.14045 -0.541528 -2.53473e-20)
(1.12174 -0.631273 2.46083e-20)
(1.07054 -0.643958 0)
(1.01389 -0.620185 1.16045e-20)
(0.95742 -0.593501 -1.96172e-20)
(0.902903 -0.567654 1.55019e-20)
(0.856374 -0.538245 -1.30696e-20)
(0.802824 -0.530058 2.19879e-22)
(0.725222 -0.546363 1.15855e-20)
(0.636864 -0.526272 -5.9624e-21)
(0.565604 -0.401546 -2.6958e-22)
(0.527937 -0.179458 -3.91502e-21)
(0.532988 0.0609541 2.67964e-22)
(0.579382 0.248538 3.71502e-21)
(0.655691 0.362766 1.89815e-22)
(0.739096 0.442283 -2.23114e-21)
(0.809332 0.525511 4.50793e-21)
(0.842961 0.622018 -2.56226e-21)
(0.845148 0.685868 0)
(0.830676 0.644368 -5.90848e-21)
(0.825553 0.460609 5.91194e-21)
(0.82806 0.171576 -5.52163e-21)
(0.826836 -0.130642 6.88909e-21)
(0.817163 -0.356959 -5.85265e-22)
(0.822441 -0.44286 0)
(0.810735 -0.442475 -2.4718e-22)
(0.751073 -0.437201 4.84715e-22)
(0.681166 -0.411211 0)
(0.655919 -0.315427 8.06583e-22)
(0.660782 -0.124337 -3.49981e-22)
(0.680988 0.0809286 1.46312e-22)
(0.684441 0.294507 1.03451e-22)
(0.687638 0.42607 0)
(0.677489 0.447104 0)
(0.687135 0.347159 -1.1466e-21)
(0.698261 0.109387 1.96238e-21)
(0.711903 -0.0974712 -1.11029e-21)
(0.675 -0.321003 4.13898e-22)
(0.645235 -0.415498 3.77091e-22)
(0.623497 -0.275734 3.28584e-23)
(0.62555 -0.109915 1.47481e-22)
(0.60934 0.254555 0)
(0.628612 0.352624 -1.22308e-23)
(0.560389 0.103268 -7.6832e-23)
(-0.0747473 -0.238914 7.82635e-21)
(-0.087937 -0.131257 -7.71881e-21)
(-0.0728599 0.00662441 8.46031e-23)
(-0.0301883 0.137618 1.60651e-23)
(0.0187926 0.268071 5.87697e-23)
(0.0929032 0.384838 -5.55155e-23)
(0.169474 0.481693 -3.70239e-24)
(0.245676 0.560607 0)
(0.321292 0.618416 -6.8863e-23)
(0.410536 0.63644 1.21369e-22)
(0.53278 0.589568 1.85666e-22)
(0.679804 0.482945 -3.17435e-22)
(0.820182 0.339599 0)
(0.95017 0.148801 0)
(1.07946 -0.0988015 4.44483e-22)
(1.1775 -0.346759 0)
(1.20838 -0.518645 -3.77078e-22)
(1.17744 -0.595046 0)
(1.11457 -0.606368 -1.34121e-20)
(1.04828 -0.586437 2.3576e-20)
(0.986468 -0.562191 -1.79569e-20)
(0.925791 -0.541565 7.80375e-21)
(0.872947 -0.515019 5.20394e-21)
(0.819684 -0.49691 -5.05144e-21)
(0.744459 -0.503265 -4.70772e-21)
(0.651593 -0.492542 4.5908e-21)
(0.570779 -0.393787 0)
(0.52508 -0.197553 1.67183e-22)
(0.52496 0.0250703 0)
(0.568771 0.202705 0)
(0.645533 0.31451 3.7451e-21)
(0.733833 0.397956 -3.85902e-21)
(0.814589 0.492622 1.95023e-22)
(0.862709 0.604417 2.92408e-22)
(0.878945 0.684016 -3.68999e-22)
(0.874556 0.656737 -5.33597e-21)
(0.877315 0.481118 5.1799e-21)
(0.886124 0.194493 -7.38019e-21)
(0.885568 -0.109887 6.35616e-21)
(0.864689 -0.34624 1.19878e-21)
(0.855415 -0.441679 -2.64051e-21)
(0.84037 -0.432877 6.85534e-22)
(0.780659 -0.418379 1.26792e-21)
(0.702366 -0.398723 0)
(0.670487 -0.318716 -2.79327e-22)
(0.673257 -0.136229 1.92675e-22)
(0.693031 0.0698256 -2.96097e-22)
(0.696596 0.287476 -1.04145e-22)
(0.701637 0.426402 0)
(0.69148 0.449689 4.05571e-22)
(0.701044 0.350219 -6.64456e-22)
(0.715333 0.111475 3.17538e-23)
(0.733911 -0.0927823 -4.13761e-22)
(0.695691 -0.309473 4.34341e-22)
(0.660272 -0.412516 -3.91961e-22)
(0.63458 -0.274102 0)
(0.637017 -0.112023 -1.47568e-22)
(0.627617 0.251283 0)