/*--------------------------------*- C++ -*----------------------------------*\
| =========                 |                                                 |
| \\      /  F ield         | OpenFOAM: The Open Source CFD Toolbox           |
|  \\    /   O peration     | Version:  2312                                  |
|   \\  /    A nd           | Website:  www.openfoam.com                      |
|    \\/     M anipulation  |                                                 |
\*---------------------------------------------------------------------------*/
FoamFile
{
    version     2.0;
    format      ascii;
    arch        "LSB;label=32;scalar=64";
    class       surfaceScalarField;
    location    "53.5";
    object      phi;
}
// * * * * * * * * * * * * * * * * * * * * * * * * * * * * * * * * * * * * * //

dimensions      [0 3 -1 0 0 0 0];

oriented        oriented;

internalField   nonuniform List<scalar> 
4490
(
0.000199177
0.00923992
-0.0094391
0.00812805
0.00420173
-0.0121306
0.0341497
-0.0230697
-0.00295195
0.0808319
-0.0659534
0.0192713
0.140523
-0.112643
0.0529521
0.206561
-0.155494
0.0894551
0.272404
-0.191752
0.12591
0.327884
-0.218965
0.163485
0.381084
-0.240497
0.187297
-0.257477
0.225212
0.413349
0.00169923
0.00754069
0.0234645
-0.0175635
0.0710182
-0.0706234
0.131263
-0.126199
0.190603
-0.171983
0.240548
-0.205439
0.276446
-0.22765
0.300777
-0.243296
0.317486
-0.257206
-0.270428
0.330438
0.00751356
2.71333e-05
0.0474325
-0.0574825
0.103043
-0.126234
0.152741
-0.175897
0.187206
-0.206447
0.20654
-0.224773
0.217802
-0.238912
0.228284
-0.253779
0.242913
-0.271835
-0.292664
0.265149
0.0182092
-0.0181821
0.0665531
-0.105826
0.108049
-0.16773
0.132713
-0.200561
0.145115
-0.218849
0.153987
-0.233645
0.164564
-0.249489
0.178121
-0.267337
0.192824
-0.286538
-0.304804
0.204964
0.0282896
-0.0464717
0.0662481
-0.143785
0.0877285
-0.18921
0.0973969
-0.210229
0.103522
-0.224974
0.108944
-0.239067
0.113235
-0.25378
0.116106
-0.270208
0.118127
-0.288559
0.120728
-0.307404
-0.00651326
-0.0043377
0.010851
-0.0181422
-0.00961708
0.021246
-0.0322686
-0.0128726
0.0269989
-0.0478871
-0.0168429
0.0324614
-0.0642305
-0.0222652
0.0386087
-0.0805204
-0.0282109
0.0445008
-0.0961118
-0.0332488
0.0488402
-0.106945
-0.0393985
0.0502317
-0.118021
-0.0348998
0.0459758
-0.0352647
-0.117912
0.0351556
-0.00615008
0.00181239
-0.0168609
0.00109371
-0.0296973
-3.60986e-05
-0.044022
-0.00251822
-0.0591843
-0.00710297
-0.0730476
-0.0143475
-0.0866166
-0.0196798
-0.0909314
-0.0350836
-0.0942313
-0.0315999
-0.0452999
-0.0841961
-0.00440086
0.00621324
-0.0122178
0.00891061
-0.0211014
0.00884758
-0.0293324
0.00571278
-0.0345805
-0.00185491
-0.0350212
-0.0139069
-0.0292298
-0.0254712
-0.0134087
-0.0509047
0.00961153
-0.0546201
-0.0817866
0.0460983
-0.00245805
0.00867129
-0.00648315
0.0129357
-0.00892301
0.0112874
-0.0060362
0.00282597
0.00739322
-0.0152843
0.0308222
-0.0373359
0.0689936
-0.0636426
0.116205
-0.0981166
0.171132
-0.109547
-0.151114
0.240459
-0.000767803
3.72998e-05
0.00837279
0.03047
0.0681378
0.120257
0.182525
0.247893
0.325643
0.399742
-0.101182
-0.0374508
0.0207212
-0.081597
0.00500147
-0.0245867
-0.0587324
0.0654022
-0.0882668
-0.0338473
0.139277
-0.164162
-0.00877606
0.220986
-0.246057
0.0161292
0.270786
-0.295691
0.0564385
0.285432
-0.325741
0.144296
0.186738
-0.274596
0.285935
-0.135578
-0.00606128
0.394339
-0.370469
0.262065
0.393429
-0.40666
0.40757
0.364416
-0.518081
0.547094
0.410374
-0.47048
0.424522
0.455994
0.0348439
-0.0804639
0.46359
0.67493
-0.682525
0.451315
0.802687
-0.790412
0.406838
0.326474
-0.281997
0.351313
-0.358541
0.414066
0.331028
-0.668167
0.688452
0.345539
-0.37958
0.36507
0.350301
0.166213
-0.170975
0.341965
0.471152
-0.462816
0.343827
0.470748
-0.47261
0.357302
0.160938
-0.174413
-0.158423
0.150424
-0.0780005
-0.0436465
-0.059841
-0.013158
-0.0314285
0.0369897
0.00710057
0.100748
0.0568763
0.17121
0.111531
0.21613
0.18213
0.214833
0.268035
0.100834
0.322654
-0.190197
0.358138
-0.405952
0.349178
-0.397701
0.331348
-0.500251
0.373897
-0.513028
0.429081
-0.0203402
0.465342
0.638668
0.461406
0.806623
0.410147
0.377734
0.345553
-0.293947
0.319597
-0.642211
0.335491
-0.395474
0.341627
0.160076
0.336987
0.475791
0.345846
0.461889
0.36326
0.143524
-0.167225
0.0343348
-0.0318831
0.0399011
-0.0187243
0.0612546
0.0156362
0.103737
0.0582654
0.164506
0.110441
0.218266
0.16237
0.282345
0.150754
0.364126
0.019054
0.386046
-0.212118
0.364058
-0.383965
0.322578
-0.35622
0.287866
-0.465539
0.329593
-0.554754
0.398467
-0.089215
0.448276
0.58886
0.45028
0.804619
0.41273
0.415284
0.34818
-0.229398
0.308071
-0.602102
0.318229
-0.405632
0.325778
0.152527
0.328594
0.472976
0.347453
0.44303
0.370268
0.120709
-0.177588
0.214314
-0.00573843
0.196808
-0.00121786
0.193692
0.0187523
0.208467
0.0434905
0.255403
0.0635051
0.311798
0.105975
0.353739
0.108813
0.39423
-0.0214372
0.392716
-0.210603
0.359441
-0.35069
0.324708
-0.321487
0.263928
-0.40476
0.275174
-0.566
0.356069
-0.17011
0.418897
0.526032
0.430043
0.793473
0.399511
0.445815
0.337229
-0.167115
0.288714
-0.553587
0.296337
-0.413255
0.309523
0.139341
0.321236
0.461263
0.350044
0.414222
0.377888
0.0928647
-0.189748
0.376046
0.0179574
0.353652
0.0211764
0.341719
0.0306849
0.33903
0.0461796
0.348461
0.0540743
0.383283
0.0711531
0.419658
0.0724369
0.425024
-0.0268033
0.385512
-0.17109
0.327135
-0.292314
0.298302
-0.292654
0.244993
-0.351451
0.223393
-0.5444
0.302902
-0.24962
0.379162
0.449772
0.396595
0.77604
0.381626
0.460784
0.338806
-0.124296
0.279604
-0.494385
0.273408
-0.40706
0.291348
0.121402
0.312373
0.440238
0.351895
0.3747
0.384867
0.0598931
-0.204188
0.449539
0.030423
-0.462004
0.44275
0.0279645
0.434014
0.0394211
0.436171
0.0440224
0.43714
0.0531057
0.451124
0.0571687
0.489787
0.033774
0.505245
-0.0422608
0.491028
-0.156874
0.440046
-0.241332
0.401687
-0.254295
0.375736
-0.325499
0.318627
-0.48729
0.290685
-0.221678
0.27061
0.469847
0.283655
0.762995
0.34544
0.399
0.371147
-0.150003
0.317001
-0.440239
0.263324
-0.353382
0.251728
0.132997
0.277599
0.414368
0.328222
0.324077
0.359795
0.0283198
-0.209074
0.508163
0.0364615
-0.514202
0.507631
0.028497
0.508271
0.0387811
0.516825
0.0354687
0.528719
0.041211
0.546056
0.0398318
0.570336
0.00949379
0.563295
-0.0352196
0.537813
-0.131392
0.488598
-0.192116
0.437097
-0.202795
0.403851
-0.292253
0.341264
-0.424703
0.295524
-0.175939
0.270573
0.494799
0.308378
0.72519
0.402656
0.304721
0.438786
-0.186133
0.374406
-0.37586
0.293436
-0.272412
0.278956
0.147477
0.325229
0.368096
0.393446
0.255859
0.427471
-0.00570532
-0.210786
0.58001
0.0376196
-0.581168
0.57916
0.0293475
0.582235
0.035706
0.588737
0.0289666
0.59975
0.0301976
0.613343
0.0262393
0.628516
-0.00567904
0.621669
-0.0283733
0.596442
-0.106164
0.561636
-0.157311
0.519591
-0.160749
0.475526
-0.248189
0.366572
-0.315749
0.265156
-0.0745225
0.261825
0.49813
0.377311
0.609704
0.489403
0.192629
0.522399
-0.219128
0.458734
-0.312195
0.353866
-0.167544
0.331091
0.170251
0.399541
0.299646
0.481289
0.174112
0.510887
-0.0353036
-0.206152
0.663006
0.0355946
-0.660981
0.663474
0.0288787
0.667117
0.0320634
0.671765
0.0243184
0.679608
0.0223549
0.689419
0.0164284
0.693964
-0.0102239
0.689083
-0.0234925
0.663804
-0.0808855
0.624126
-0.117632
0.57876
-0.115384
0.528947
-0.198375
0.418883
-0.205685
0.29918
0.0451804
0.354047
0.443263
0.533997
0.429754
0.626349
0.100276
0.609605
-0.202384
0.53903
-0.241621
0.451665
-0.0801784
0.445017
0.176899
0.523987
0.220676
0.598158
0.0999407
0.61094
-0.0480859
-0.191597
0.756223
0.0320301
-0.752658
0.757606
0.0274958
0.762068
0.0276014
0.764864
0.0215221
0.770039
0.0171795
0.775495
0.0109723
0.774143
-0.00887195
0.770572
-0.0199207
0.746537
-0.0568504
0.716417
-0.0875123
0.680258
-0.0792253
0.613359
-0.131476
0.520269
-0.112595
0.462066
0.103383
0.562729
0.3426
0.720274
0.272209
0.768986
0.0515644
0.72283
-0.156227
0.652899
-0.17169
0.603837
-0.0311165
0.623843
0.156893
0.689957
0.154563
0.734455
0.0554419
0.723758
-0.0373888
-0.166851
0.860616
0.0280747
-0.85666
0.863298
0.0248133
0.866906
0.0239932
0.869734
0.0186946
0.872401
0.0145125
0.874824
0.00854901
0.87109
-0.00513802
0.864557
-0.0133879
0.843443
-0.0357363
0.810797
-0.0548664
0.780169
-0.0485968
0.725687
-0.0769941
0.662746
-0.0496535
0.669166
0.0969629
0.782224
0.229542
0.880265
0.174168
0.889068
0.0427618
0.833207
-0.100367
0.773249
-0.111732
0.755128
-0.0129954
0.797613
0.114408
0.846634
0.105542
0.866769
0.0353069
0.842613
-0.0132326
-0.136647
0.97876
0.0240137
-0.974699
0.981572
0.0220013
0.984774
0.020791
0.986303
0.0171659
0.987345
0.0134706
0.987264
0.00862906
0.982305
-0.000178284
0.975887
-0.00696972
0.958621
-0.0184703
0.935208
-0.0314542
0.912503
-0.0258915
0.871109
-0.0355996
0.832882
-0.0114266
0.858969
0.0708754
0.943205
0.145306
1.00455
0.11282
1.00696
0.0403514
0.960376
-0.0537793
0.912268
-0.0636237
0.909562
-0.0102894
0.950538
0.0734327
0.985983
0.0700966
0.99782
0.0234701
0.973004
0.0115839
-0.105892
1.11558
0.0206356
-1.1122
1.11821
0.019365
1.12055
0.0184477
1.12187
0.015853
1.12201
0.0133289
1.12094
0.00969931
1.11593
0.0048268
1.10902
-6.03023e-05
1.09622
-0.00566612
1.078
-0.0132371
1.06038
-0.00827163
1.03616
-0.0113737
1.01809
0.00664169
1.04083
0.0481379
1.09659
0.0895399
1.13556
0.073854
1.13714
0.0387698
1.10765
-0.0242935
1.07554
-0.0315053
1.07146
-0.00621023
1.10351
0.0413818
1.1311
0.0425048
1.14194
0.0126294
1.12084
0.0326891
-0.0762874
1.27531
0.0179616
-1.27264
1.27741
0.0172698
1.2791
0.0167551
1.27988
0.0150761
1.27957
0.0136328
1.27827
0.0110014
1.27448
0.00861938
1.26961
0.00480427
1.26095
0.00299741
1.24939
-0.00168091
1.23886
0.00226187
1.22552
0.00196734
1.21773
0.0144349
1.23261
0.0332503
1.26427
0.0578884
1.29023
0.0478944
1.29517
0.0338213
1.27722
-0.00633664
1.2565
-0.010788
1.25553
-0.00524339
1.27768
0.0192315
1.29751
0.0226809
1.30962
0.000513032
1.29471
0.0475986
-0.049282
1.46769
0.0155368
-1.46527
1.46979
0.0151671
1.47149
0.0150629
1.47256
0.0140028
1.47275
0.0134412
1.47203
0.0117262
1.46975
0.0108981
1.46604
0.00851307
1.46067
0.00836871
1.45334
0.00564493
1.44685
0.00875365
1.44055
0.00826669
1.43828
0.0167041
1.44828
0.0232479
1.46802
0.0381466
1.48454
0.0313804
1.4893
0.0290645
1.48003
0.00293375
1.46843
0.000804284
1.4658
-0.00260701
1.48012
0.00490441
1.49344
0.00936351
1.50644
-0.0124856
1.49912
0.0549138
-0.0235681
1.69251
0.0131066
-1.69008
1.6947
0.0129774
1.6966
0.0131621
1.6981
0.0125088
1.69904
0.0124943
1.69944
0.0113339
1.69896
0.0113791
1.69777
0.00969822
1.69573
0.0104109
1.69291
0.00846832
1.69044
0.0112215
1.68853
0.0101751
1.68877
0.0164591
1.69483
0.0171901
1.70545
0.0275323
1.71565
0.02118
1.72026
0.0244547
1.71667
0.00652495
1.71137
0.00610106
1.71042
-0.00165645
1.7197
-0.00437643
1.72811
0.000955536
1.74243
-0.0268053
1.7412
0.0561383
-0.0022127
1.96563
0.0104793
-1.963
1.96816
0.010449
1.97057
0.0107541
1.97269
0.0103848
1.97454
0.0106419
1.97595
0.00992913
1.97697
0.0103544
1.97739
0.00927908
1.97753
0.0102718
1.97717
0.00883093
1.97721
0.011183
1.97779
0.0095979
1.97993
0.0143184
1.9847
0.0124116
1.99242
0.0198158
1.99939
0.0142115
2.00436
0.0194811
2.00298
0.00791278
2.00103
0.00804248
1.99822
0.00115909
2.00274
-0.00890231
2.00254
0.00116226
2.01339
-0.0376554
2.02707
0.0424553
0.0128955
2.31442
0.00740481
-2.31135
2.31747
0.0074007
2.32049
0.00773453
2.32341
0.00746105
2.32625
0.00780307
2.32893
0.00725299
2.33151
0.00776679
2.33384
0.00695389
2.33618
0.00792879
2.33828
0.00673811
2.34065
0.008806
2.34329
0.00695945
2.34646
0.0111463
2.35094
0.00793026
2.35632
0.0144421
2.36136
0.00916614
2.36632
0.0145242
2.36688
0.0073505
2.36647
0.00845252
2.36504
0.00258992
2.36687
-0.0107298
2.36136
0.00666895
2.3709
-0.0471928
2.39406
0.0192909
0.0208898
2.71334
0.00383346
-2.70977
2.7169
0.00384128
2.7206
0.00402857
2.7242
0.00386655
2.72787
0.00413018
2.73142
0.00370734
2.73496
0.00421965
2.73848
0.00343856
2.74201
0.00439827
2.74555
0.00320004
2.74962
0.00473487
2.75339
0.00319219
2.75906
0.00546792
2.76341
0.00358806
2.77087
0.0069786
2.77629
0.00374331
2.78247
0.0083493
2.78611
0.00370707
2.78965
0.0049149
2.78491
0.00732625
2.78599
-0.0118043
2.78076
0.0119001
2.76281
-0.0292495
2.79002
-0.00791241
0.0104358
3.42654
-3.4227
3.43038
3.4344
3.43827
3.4424
3.44611
3.45033
3.45377
3.45817
3.46137
3.4661
3.46929
3.47476
3.47835
3.48533
3.48907
3.49742
3.50113
3.50604
3.51337
3.50156
3.51346
3.48421
3.4763
0.409811
0.111466
-0.400549
0.425685
0.18909
0.427077
0.263756
0.441415
0.3161
0.39276
0.466102
0.105324
-0.45996
0.4804
0.174791
0.489658
0.254498
0.494935
0.310823
0.373493
0.532463
0.0981917
-0.525331
0.543091
0.164163
0.557537
0.240053
0.565809
0.302551
0.358133
0.607526
0.0892906
-0.598625
0.617541
0.154148
0.632308
0.225286
0.645941
0.288918
0.343094
0.693828
0.080001
-0.684539
0.704423
0.143554
0.71884
0.210869
0.735442
0.272316
0.325878
0.793313
0.070867
-0.784179
0.80427
0.132597
0.818866
0.196272
0.837065
0.254118
0.306282
0.908784
0.0626985
-0.900615
0.919517
0.121864
0.93446
0.181328
0.95312
0.235458
0.284704
1.04439
0.055114
-1.03681
1.05508
0.111176
1.07036
0.166051
1.08942
0.216392
0.26193
1.20159
0.0483219
-1.1948
1.21247
0.100296
1.22842
0.150103
1.2485
0.196316
0.237787
1.3869
0.0415933
-1.38017
1.3991
0.0880986
1.41647
0.13273
1.43861
0.174183
0.211127
1.60407
0.0346075
-1.59709
1.61712
0.0750479
1.63603
0.113821
1.66053
0.149691
0.18157
1.86345
0.0274969
-1.85634
1.87818
0.0603186
1.90022
0.0917828
1.92873
0.121172
0.1473
2.19802
0.0192973
-2.18982
2.21479
0.0435468
2.23972
0.0668542
2.27221
0.0886795
0.108164
2.57319
0.0103745
-2.56427
2.59277
0.023972
2.62255
0.0370658
2.66191
0.0493264
0.0603042
3.25203
-3.24166
3.27601
3.31307
3.3624
0.189505
0.257003
-0.231132
-0.215376
0.159519
0.243589
-0.213602
0.13077
0.227339
-0.198591
0.105764
0.213173
-0.188168
0.0833232
0.202147
-0.179705
0.0616906
0.192697
-0.171065
0.0408328
0.184301
-0.163443
0.0209625
0.178999
-0.159129
0.00471513
0.170346
-0.154099
0.117148
-0.112433
0.128921
0.280732
-0.152651
0.108638
0.263872
0.0884334
0.247544
0.0691412
0.232466
0.0510481
0.22024
0.0340544
0.209691
0.0185086
0.199847
0.00479071
0.192717
-0.00413188
0.179269
0.113016
0.0706631
0.297975
-0.0879055
0.054091
0.280445
0.0393512
0.262283
0.0259286
0.245888
0.0140598
0.232109
0.00345694
0.220294
-0.00670501
0.210009
-0.0141946
0.200207
-0.0133424
0.178417
0.0996734
0.00320321
0.308776
-0.0140042
-0.00496437
0.288612
-0.0125925
0.269912
-0.0193411
0.252637
-0.0254757
0.238243
-0.0310159
0.225834
-0.0348813
0.213874
-0.0342043
0.19953
-0.0230487
0.167261
0.0766247
-0.0662443
0.0676155
-0.0661908
-0.0664873
-0.0676303
-0.0684544
-0.0675941
-0.0639491
-0.0536293
-0.030153
0.337123
0.0625757
-0.38534
-0.0143588
0.291925
0.0581684
-0.0129705
0.249257
0.0543819
-0.0117137
0.208772
0.0510789
-0.0105936
0.170187
0.0481922
-0.00960697
0.133142
0.0458109
-0.00876591
0.0972774
0.0439128
-0.00804863
0.0621914
0.0425351
-0.00744914
0.0272244
0.0420403
-0.00707325
0.0327467
-0.0055223
0.325371
0.109469
-0.372264
0.281226
0.102314
0.239824
0.095784
0.201019
0.0898842
0.164231
0.0849802
0.128787
0.0812549
0.0942523
0.0784472
0.0601526
0.0766348
0.0260584
0.0761345
0.0588051
0.302852
0.153054
-0.346438
0.261252
0.143913
0.221372
0.135665
0.18386
0.127396
0.149215
0.119625
0.116564
0.113906
0.0850149
0.109996
0.053993
0.107657
0.0233706
0.106757
0.0821757
0.269144
0.193146
-0.309235
0.232829
0.180228
0.198682
0.169812
0.164558
0.16152
0.131592
0.152591
0.101165
0.144333
0.0726431
0.138518
0.0448141
0.135486
0.0184367
0.133134
0.100612
0.224001
-0.261986
0.190626
0.161847
0.1352
0.108085
0.0813536
0.0564284
0.0327849
0.0118201
0.420159
0.378562
-0.380906
0.429975
0.314908
-0.324723
0.427918
0.226951
-0.224895
0.436622
0.183819
-0.192523
0.43496
0.13668
-0.135019
0.4421
0.113503
-0.120643
0.438695
0.0896084
-0.0862037
0.441406
0.0739007
-0.0766119
0.435748
0.0636475
-0.0579895
0.433612
0.052545
-0.0504091
0.425641
0.0482487
-0.0402777
0.419506
0.0404785
-0.0343435
0.408984
0.0386921
-0.0281697
0.398912
0.0338148
-0.0237428
0.0334491
-0.0198777
0.415833
0.380544
0.423647
0.307094
0.42011
0.230489
0.427263
0.176666
0.424504
0.139439
0.430233
0.107775
0.42633
0.0935114
0.428124
0.0721068
0.42245
0.0693211
0.420168
0.0548271
0.412633
0.0557832
0.406483
0.0466285
0.396048
0.0491277
0.385994
0.0438692
0.0471782
0.410151
0.388209
0.414049
0.303195
0.408206
0.236331
0.412157
0.172715
0.407516
0.14408
0.41048
0.104811
0.405241
0.0987498
0.405251
0.072097
0.398412
0.0761598
0.39517
0.0580698
0.386951
0.0640014
0.380285
0.0532949
0.369665
0.0597477
0.359821
0.0537131
0.0605615
0.403841
0.402183
0.401421
0.305615
0.392475
0.245278
0.392046
0.173144
0.384619
0.151507
0.383809
0.105621
0.376789
0.105769
0.374076
0.0748103
0.366853
0.0833826
0.36166
0.0632634
0.353
0.0726605
0.345005
0.0612908
0.333581
0.0711716
0.323281
0.064013
0.0746069
0.396254
0.423745
0.38705
0.314818
0.372753
0.259575
0.367471
0.178427
0.3564
0.162578
0.35082
0.111201
0.341272
0.115317
0.3349
0.081183
0.32551
0.0927721
0.317228
0.0715453
0.306444
0.0834449
0.296861
0.0708732
0.28488
0.0831533
0.274726
0.0741662
0.0873468
0.368779
0.427702
0.372864
0.310733
0.36947
0.262969
0.372034
0.175863
0.368824
0.165788
0.369244
0.110781
0.365789
0.118772
0.36479
0.0821819
0.360535
0.0970274
0.359334
0.0727461
0.355379
0.0873995
0.354851
0.0714013
0.353258
0.0847466
0.356599
0.0708254
0.0802618
0.363684
0.424546
0.431474
0.428346
0.306932
0.425903
0.265412
0.428419
0.173347
0.424371
0.169837
0.425279
0.109873
0.421329
0.122722
0.420059
0.0834515
0.417109
0.0999774
0.415539
0.0743167
0.414544
0.0883943
0.414022
0.0719236
0.41737
0.0813985
0.419231
0.0689638
0.0733041
0.426189
0.488943
0.434717
0.49316
0.302715
0.489945
0.268627
0.495012
0.168279
0.489568
0.175281
0.490375
0.109066
0.487462
0.125635
0.484525
0.0863881
0.48388
0.100623
0.482431
0.0757653
0.484008
0.0868171
0.484205
0.0717271
0.488698
0.0769049
0.491907
0.0657552
0.0667735
0.498438
0.561678
0.438619
0.56801
0.296383
0.562905
0.273733
0.568994
0.162191
0.566322
0.177953
0.565001
0.110388
0.564979
0.125657
0.56072
0.090647
0.561836
0.0995072
0.560757
0.0768443
0.563838
0.0837362
0.565682
0.0698831
0.570841
0.0717459
0.575453
0.0611426
0.0601277
0.582099
0.64615
0.442387
0.653026
0.289507
0.648719
0.27804
0.651511
0.159399
0.653893
0.175571
0.651189
0.113092
0.653107
0.123739
0.650289
0.0934651
0.652265
0.0975305
0.652397
0.0767121
0.656355
0.0797785
0.659496
0.0667419
0.665069
0.0661734
0.670094
0.0561175
0.0539128
0.676309
0.745096
0.444122
0.750892
0.283711
0.750374
0.278558
0.748785
0.160988
0.753535
0.17082
0.751516
0.115111
0.754769
0.120487
0.75469
0.093544
0.757876
0.0943447
0.759174
0.0754145
0.763642
0.0753104
0.76744
0.0629437
0.773097
0.0605166
0.778304
0.0509104
0.0478437
0.784373
0.858373
0.443945
0.863432
0.278652
0.869029
0.27296
0.865816
0.164201
0.870933
0.165703
0.869822
0.116222
0.874544
0.115765
0.876593
0.0914943
0.88122
0.0897183
0.883708
0.0729263
0.888877
0.0701412
0.893271
0.0585493
0.899077
0.0547107
0.90411
0.0458773
0.0423078
0.909646
0.988931
0.441182
0.990689
0.276895
1.00221
0.261438
1.00076
0.165656
1.00789
0.158564
1.00858
0.115539
1.01471
0.109633
1.01844
0.0877611
1.02465
0.0835098
1.02888
0.0686978
1.03505
0.0639764
1.04015
0.0534402
1.04611
0.0487578
1.0514
0.0405885
0.0366003
1.0571
1.13958
0.434828
1.14066
0.275807
1.15532
0.246781
1.15643
0.164552
1.16573
0.149259
1.16943
0.111838
1.17674
0.10232
1.18233
0.0821791
1.18985
0.075989
1.19585
0.0626943
1.20278
0.0570486
1.20872
0.0474991
1.21481
0.0426659
1.21992
0.0354781
0.0315986
1.22492
1.31328
0.42375
1.31715
0.271941
1.33511
0.228818
1.34019
0.159472
1.35207
0.137382
1.35903
0.10488
1.36843
0.0929165
1.37571
0.0748991
1.38452
0.0671794
1.39178
0.0554325
1.39951
0.0493155
1.40603
0.0409812
1.4125
0.0361921
1.41789
0.0300947
0.0264535
1.42303
1.5127
0.407439
1.52149
0.263143
1.54154
0.208768
1.55282
0.148195
1.56696
0.123239
1.57803
0.0938151
1.5897
0.0812481
1.59958
0.0650146
1.60955
0.0572142
1.61813
0.0468502
1.62626
0.0411872
1.63319
0.0340463
1.63953
0.0298524
1.64487
0.0247578
0.0216431
1.64968
1.74863
0.37833
1.76779
0.243984
1.79315
0.183406
1.81045
0.130899
1.82867
0.105012
1.84274
0.0797471
1.857
0.0669874
1.86858
0.0534398
1.87985
0.0459443
1.88912
0.037581
1.89779
0.0325125
1.90495
0.0268922
1.91149
0.0233105
1.91686
0.0193828
0.0168233
1.92168
2.02424
0.330021
2.06212
0.206107
2.09805
0.147477
2.12734
0.101607
2.1534
0.0789487
2.17453
0.0586179
2.19308
0.0484344
2.20836
0.0381658
2.22176
0.0325429
2.23292
0.0264161
2.24264
0.0227932
2.2508
0.0187321
2.25789
0.016226
2.26386
0.0134113
0.011629
2.26905
2.35248
0.248111
2.40801
0.150576
2.45711
0.098383
2.49474
0.0639768
2.5273
0.0463907
2.55249
0.0334255
2.57439
0.0265309
2.59178
0.0207765
2.60699
0.0173298
2.61941
0.0140023
2.63024
0.0119567
2.63916
0.0098215
2.64695
0.00842785
2.65338
0.00698612
0.00601382
2.65899
2.85727
3.00784
3.10622
3.1702
3.21659
3.25002
3.27655
3.29733
3.31465
3.32866
3.34061
3.35044
3.35886
3.36585
3.37186
0.364953
-0.216645
0.373463
-0.161161
0.380637
-0.0950797
0.390557
-0.0239233
0.0576228
0.431193
-0.221649
0.437177
-0.167146
0.442102
-0.100004
0.448021
-0.0298424
0.0456839
0.502653
-0.225864
0.504408
-0.168901
0.509911
-0.105507
0.514688
-0.0346186
0.0350408
0.583463
-0.227228
0.583751
-0.169189
0.587199
-0.108956
0.59065
-0.0380692
0.0270661
0.673781
-0.224701
0.673053
-0.168461
0.674472
-0.110375
0.678291
-0.0418887
0.0208184
0.778954
-0.219282
0.776538
-0.166044
0.77613
-0.109967
0.77936
-0.0451186
0.0159992
0.901658
-0.211294
0.896924
-0.161311
0.894596
-0.107638
0.896621
-0.0471443
0.0120053
1.04588
-0.200067
1.03824
-0.153674
1.03377
-0.103164
1.03379
-0.0471692
0.00898958
1.21037
-0.185513
1.19982
-0.143121
1.19332
-0.0966659
1.1919
-0.0457509
0.00609074
1.40451
-0.166989
1.39063
-0.129245
1.38172
-0.0877567
1.37854
-0.0425679
0.00445762
1.6274
-0.144708
1.61052
-0.11237
1.59946
-0.0766987
1.59475
-0.0378522
0.0021178
1.89543
-0.118453
1.87523
-0.0921751
1.86194
-0.0634092
1.85574
-0.0316527
0.00152322
2.2373
-0.086703
2.21282
-0.0676895
2.19606
-0.0466526
2.18817
-0.0237578
-0.000127101
2.62201
-0.0497173
2.59337
-0.039052
2.57379
-0.0270683
2.56408
-0.0140498
-0.000317118
3.32215
3.28309
3.25603
3.24198
0.0106958
-0.00190294
-0.00879287
0.00845157
0.00224425
-0.00351558
0.0119671
-0.0282802
0.0247646
0.0315432
-0.0598234
0.000481094
0.0102265
-0.0126105
-0.0303236
0.0330489
-0.0787128
0.0603564
-0.126088
0.0721396
0.0627584
-0.157303
-0.0379033
0.0479526
0.00017708
-0.094901
0.0900467
-0.148739
0.114194
-0.181706
0.105106
0.0778908
-0.196838
-0.0882006
0.107604
0.028549
-0.151555
0.153401
-0.191995
0.154634
-0.208331
0.121442
0.0841062
-0.214547
-0.137473
0.178622
0.0664547
-0.192601
0.20853
-0.215497
0.17753
-0.224503
0.130448
0.0870331
-0.227429
-0.18038
0.24957
0.109432
-0.219002
0.247152
-0.231156
0.189684
-0.239576
0.138868
0.0880613
-0.240604
-0.214404
0.311698
0.152276
-0.237368
0.270116
-0.246817
0.199132
-0.255929
0.14798
0.0873115
-0.255179
-0.241815
0.359048
0.194466
-0.251909
0.28021
-0.264978
0.212202
-0.27223
0.155232
0.0857437
-0.270662
-0.258807
0.385087
0.232767
-0.268291
0.289694
-0.285361
0.229273
-0.289158
0.159029
0.0856577
-0.289072
-0.274745
0.268461
0.39137
-0.290865
0.305814
-0.305086
0.243493
-0.30942
0.163363
0.0861763
-0.309938
0.0142094
-0.00335846
0.012867
0.00134246
0.00917507
0.00369188
0.00727056
0.00190451
-0.00152231
0.0285543
-0.0106667
0.0282287
0.00166799
0.0223684
0.00955226
0.0167957
0.00747721
0.00266284
0.0359598
-0.0196276
0.0355995
0.00202834
0.0275353
0.0176164
0.0171866
0.0178259
0.0200265
0.0411637
-0.0283298
0.0381705
0.00502149
0.0263518
0.0294351
0.00775931
0.0364184
0.0563349
0.045936
-0.0356571
0.0386312
0.0123262
0.0202577
0.0478087
-0.0113899
0.068066
0.1114
0.0492476
-0.0404039
0.0361374
0.0254364
0.00888457
0.0750616
-0.0386218
0.115572
0.18221
0.05189
-0.0434537
0.0330258
0.0443006
-0.00651231
0.1146
-0.072351
0.181411
0.262135
0.0475144
-0.0407363
0.0189484
0.0728665
-0.0372405
0.170789
-0.115356
0.259526
0.341245
0.0405627
-0.0353232
0.00509938
0.10833
-0.0630042
0.238892
-0.156332
0.352854
0.41768
0.0217392
-0.0219069
-0.0298182
0.159887
-0.118267
0.327341
-0.210308
0.444895
0.475834
0.00257926
-0.00376497
-0.014297
0.176764
-0.032127
0.345171
-0.0373101
0.450078
0.465717
-0.027193
-0.0477609
0.0194092
-0.065927
0.19493
-0.074222
0.353466
-0.067147
0.443003
0.44579
-0.0472204
-0.110309
0.0414512
-0.12848
0.213101
-0.133688
0.358674
-0.115516
0.424831
0.411617
-0.0813425
-0.179239
0.0565276
-0.187834
0.221697
-0.182643
0.353483
-0.155352
0.39754
0.372076
-0.115812
-0.244799
0.0552699
-0.242286
0.219184
-0.233621
0.344818
-0.191204
0.355123
0.32109
-0.140218
-0.281115
0.0406945
-0.247771
0.18584
-0.238432
0.335479
-0.220784
0.337475
0.273694
-0.173388
-0.317061
0.0320142
-0.250643
0.119422
-0.184574
0.269409
-0.172055
0.324957
0.255152
-0.153514
-0.332403
0.0898214
-0.308409
0.0954284
-0.213483
0.174483
-0.163064
0.274537
0.249105
-0.157017
-0.161072
0.244833
-0.246813
0.181169
-0.227159
0.154829
-0.174068
0.221447
0.23779
-0.162753
0.163921
0.342977
0.106802
0.238288
0.0822697
0.179361
0.0811727
0.222544
0.255743
0.0632196
0.428606
0.32194
0.447195
0.219699
0.430996
0.19556
0.39459
0.258949
0.31433
0.336004
0.542069
0.326966
0.471832
0.289936
0.371907
0.295485
0.28988
0.340976
0.376001
0.228209
0.334559
0.416928
0.203302
0.421193
0.0809243
0.417863
0.00350923
0.418392
0.411913
-0.0324026
-0.122599
0.459064
-0.158029
0.456623
-0.188137
0.447971
-0.182644
0.412899
0.391267
-0.161998
-0.678332
0.454871
-0.645371
0.423661
-0.596617
0.399217
-0.523042
0.339323
0.313716
-0.445491
-0.779191
0.44365
-0.761596
0.406067
-0.738146
0.375767
-0.713356
0.314534
0.270261
-0.669901
-0.233847
0.3955
-0.204807
0.377026
-0.186947
0.357908
-0.196072
0.323658
0.284009
-0.20982
0.466098
0.343469
0.504714
0.338409
0.538969
0.323653
0.549263
0.313364
0.290423
0.542848
0.702358
0.329562
0.712879
0.327889
0.718829
0.317703
0.718841
0.313352
0.302764
0.7065
0.344872
0.34976
0.32369
0.349071
0.297567
0.343827
0.273328
0.337591
0.330724
0.245367
-0.181375
0.36016
-0.195431
0.363127
-0.215025
0.36342
-0.236521
0.359087
0.351522
-0.257319
-0.452465
0.349809
-0.442293
0.352955
-0.433329
0.354456
-0.42766
0.353419
0.351485
-0.427624
-0.465477
0.342677
-0.451866
0.339345
-0.433915
0.336505
-0.414738
0.334242
0.332787
-0.39604
-0.182187
0.350451
-0.184786
0.341943
-0.184243
0.335961
-0.182472
0.332472
0.327025
-0.17671
0.142628
0.134524
0.125965
0.116376
0.106091
-0.0197854
0.479359
-0.486767
-0.0147557
0.529582
-0.534612
-0.0120027
0.587822
-0.590575
-0.0101295
0.652313
-0.654186
-0.00863606
0.725199
-0.726693
-0.00766392
0.810291
-0.811263
-0.00693229
0.908493
-0.909225
-0.00656138
1.02078
-1.02115
-0.00619646
1.14919
-1.14955
-0.00601144
1.29189
-1.29207
-0.00545565
1.45129
-1.45184
-0.00502208
1.61599
-1.61642
-0.00399049
1.77937
-1.7804
-0.00179318
1.94875
-1.95095
1.79488
-1.79668
-0.0403767
0.472515
-0.033382
0.522587
-0.0272898
0.581729
-0.021356
0.646379
-0.016358
0.720201
-0.0126777
0.806611
-0.0100459
0.905861
-0.00840818
1.01914
-0.0072944
1.14807
-0.00661593
1.29121
-0.005846
1.45052
-0.00522093
1.61536
-0.00408653
1.77823
-0.00160886
1.94627
1.79327
-0.0647344
0.455907
-0.051434
0.509287
-0.0401252
0.570421
-0.0304428
0.636697
-0.023102
0.71286
-0.0174925
0.801001
-0.0135209
0.90189
-0.0108033
1.01643
-0.00902019
1.14629
-0.00778764
1.28998
-0.00670256
1.44943
-0.00574578
1.61441
-0.00435392
1.77684
-0.00145474
1.94337
1.79182
-0.0934837
0.433579
-0.0760446
0.491848
-0.0601255
0.554501
-0.0452722
0.621844
-0.0329731
0.700561
-0.0240676
0.792096
-0.017501
0.895323
-0.0132918
1.01222
-0.0104503
1.14345
-0.00860446
1.28813
-0.00715097
1.44798
-0.00593212
1.61319
-0.00435908
1.77527
-0.00115608
1.94017
1.79066
-0.110908
0.404269
-0.0871317
0.468072
-0.0680247
0.535394
-0.0509812
0.6048
-0.0388138
0.688394
-0.0284808
0.781763
-0.0212151
0.888057
-0.0160054
1.00701
-0.0125224
1.13996
-0.0101152
1.28572
-0.00825896
1.44612
-0.00663129
1.61156
-0.00465731
1.7733
-0.000935064
1.93645
1.78973
-0.141529
0.37241
-0.112737
0.439279
-0.0844124
0.50707
-0.0620359
0.582424
-0.0444993
0.670857
-0.0322552
0.769519
-0.0234387
0.879241
-0.0175393
1.00111
-0.0134679
1.13589
-0.0107019
1.28296
-0.00852599
1.44395
-0.00664024
1.60967
-0.00446869
1.77112
-0.000558562
1.93254
1.78917
-0.123495
0.342391
-0.101343
0.417127
-0.0813231
0.48705
-0.0636019
0.564703
-0.0486296
0.655885
-0.0356956
0.756585
-0.0266685
0.870214
-0.0199956
0.994435
-0.0154573
1.13135
-0.0122596
1.27976
-0.00971854
1.44141
-0.00747386
1.60743
-0.00483299
1.76848
-0.000435548
1.92814
1.78873
-0.128884
0.314259
-0.0954706
0.383714
-0.0663933
0.457973
-0.0470126
0.545322
-0.0353149
0.644187
-0.0279641
0.749234
-0.0228663
0.865116
-0.0184129
0.989982
-0.014978
1.12792
-0.0120897
1.27687
-0.00955015
1.43887
-0.00714439
1.60502
-0.00430651
1.76565
-0.000114032
1.92395
1.78862
-0.127903
0.279409
-0.0948365
0.350647
-0.0695488
0.432685
-0.0530626
0.528836
-0.0392709
0.630395
-0.0308263
0.740789
-0.0243114
0.858601
-0.0200419
0.985712
-0.0163385
1.12422
-0.0133646
1.2739
-0.0105785
1.43608
-0.00800283
1.60245
-0.00481243
1.76245
-0.000600322
1.91973
1.78802
0.0873976
0.255231
0.0756488
0.362396
0.0479521
0.460382
0.0217184
0.555069
0.000859133
0.651255
-0.00969249
0.751341
-0.0151589
0.864068
-0.0155054
0.986059
-0.0143645
1.12308
-0.0121907
1.27172
-0.00969893
1.43359
-0.00719726
1.59995
-0.00385916
1.75912
-0.000693243
1.91657
1.78733
0.271283
0.319951
0.188003
0.445676
0.112241
0.536144
0.0592789
0.608031
0.0245191
0.686014
0.00117662
0.774683
-0.00950257
0.874747
-0.0141771
0.990733
-0.0143441
1.12324
-0.0127686
1.27015
-0.0103421
1.43116
-0.00796982
1.59757
-0.00464388
1.75579
-0.00288117
1.91481
1.78445
0.136536
0.411624
0.0737824
0.50843
0.0306159
0.57931
0.000652636
0.637995
-0.0132756
0.699943
-0.0186089
0.780017
-0.0182894
0.874427
-0.0167749
0.989219
-0.0138808
1.12035
-0.0111854
1.26745
-0.00831683
1.42829
-0.00640153
1.59566
-0.00353352
1.75292
-0.0047336
1.91601
1.77971
-0.0663117
0.445533