/*--------------------------------*- C++ -*----------------------------------*\
| =========                 |                                                 |
| \\      /  F ield         | OpenFOAM: The Open Source CFD Toolbox           |
|  \\    /   O peration     | Version:  2312                                  |
|   \\  /    A nd           | Website:  www.openfoam.com                      |
|    \\/     M anipulation  |                                                 |
\*---------------------------------------------------------------------------*/
FoamFile
{
    version     2.0;
    format      ascii;
    arch        "LSB;label=32;scalar=64";
    class       volVectorField;
    location    "53.5";
    object      U;
}
// * * * * * * * * * * * * * * * * * * * * * * * * * * * * * * * * * * * * * //

dimensions      [0 1 -1 0 0 0 0];

internalField   nonuniform List<vector> 
2300
(
(-0.0560769 0.0436417 0)
(-0.0493497 0.051166 1.71526e-19)
(0.0728174 0.0384889 -9.36468e-20)
(0.310638 0.0312301 -3.79975e-20)
(0.595682 0.0382913 0)
(0.836073 0.0463272 -4.65482e-20)
(1.04768 0.0685632 1.8466e-19)
(1.15945 0.0724645 -3.26343e-20)
(1.23454 0.0928355 7.45598e-20)
(1.26502 0.0813626 -9.02557e-20)
(-0.0603108 0.0289075 7.22019e-20)
(0.0283114 0.0184014 -5.75111e-20)
(0.334851 0.0360329 9.24994e-20)
(0.69862 0.0750013 3.47342e-20)
(0.986148 0.111181 5.30398e-20)
(1.17934 0.141379 -1.41653e-19)
(1.25949 0.146329 -3.09192e-21)
(1.26694 0.144131 -2.49847e-21)
(1.23616 0.130897 0)
(1.17504 0.107154 1.48362e-20)
(-0.0424626 0.00699867 7.46188e-20)
(0.24968 0.0133528 -2.5369e-21)
(0.719985 0.0988787 -1.40108e-19)
(1.05271 0.166891 7.58073e-20)
(1.22167 0.202072 -5.30867e-20)
(1.25758 0.20198 1.23313e-19)
(1.22601 0.184073 -9.85981e-20)
(1.18158 0.162651 -6.66651e-20)
(1.14983 0.140973 3.58036e-20)
(1.13557 0.134824 6.83148e-20)
(0.0411503 -0.0122403 2.01346e-20)
(0.606736 0.0945361 -6.03531e-20)
(1.03244 0.207628 4.96206e-20)
(1.20767 0.252157 0)
(1.22996 0.247505 1.2328e-20)
(1.20522 0.227515 3.57867e-20)
(1.18866 0.208059 -2.98728e-20)
(1.1863 0.196924 3.80195e-20)
(1.18814 0.187223 -4.36219e-21)
(1.18887 0.181917 -5.41976e-20)
(0.222363 0.0296938 2.08195e-20)
(0.893222 0.228126 0)
(1.16269 0.303574 0)
(1.21616 0.303928 0)
(1.21317 0.287032 -1.23643e-20)
(1.20422 0.269919 0)
(1.18708 0.252364 0)
(1.16334 0.232266 -8.09052e-21)
(1.13853 0.209116 6.78581e-21)
(1.10221 0.195269 -4.15056e-21)
(-0.0125912 -0.0577325 1.50847e-20)
(-0.0535292 -0.1092 0)
(-0.110425 -0.134001 0)
(-0.158841 -0.15631 0)
(-0.199464 -0.17974 -1.47884e-20)
(-0.231635 -0.198677 0)
(-0.256179 -0.207224 0)
(-0.261907 -0.206433 1.79561e-20)
(-0.271046 -0.173826 -1.5058e-20)
(-0.249714 -0.138478 1.24102e-20)
(-0.0145179 -0.0108683 -4.53555e-20)
(-0.0504541 -0.0380562 5.07504e-20)
(-0.099469 -0.0611292 -4.17564e-20)
(-0.140253 -0.0870767 0)
(-0.172644 -0.117665 1.47505e-20)
(-0.192978 -0.148399 -4.89795e-20)
(-0.217423 -0.169933 4.08787e-20)
(-0.19238 -0.197981 -6.28632e-20)
(-0.213495 -0.172061 5.27156e-20)
(-0.141094 -0.173611 1.9103e-20)
(-0.0227971 0.0247489 -6.29875e-20)
(-0.0531784 0.0187472 -6.36728e-22)
(-0.086995 -0.000387284 1.30481e-19)
(-0.10789 -0.0258363 -7.21813e-20)
(-0.113584 -0.0567781 6.02024e-20)
(-0.0790126 -0.0912494 -1.48938e-19)
(-0.0870051 -0.123886 4.12442e-20)
(0.0445306 -0.157023 2.80894e-20)
(0.00164029 -0.162993 -4.89803e-20)
(0.193445 -0.148791 -2.3847e-20)
(-0.0346055 0.0444119 -6.51896e-20)
(-0.0610506 0.0538952 -5.49109e-20)
(-0.0727353 0.0388914 -9.03714e-20)
(-0.0514938 0.0157591 3.70801e-20)
(-0.00137891 -0.0265832 -6.14126e-20)
(0.119829 -0.045495 5.24841e-20)
(0.183367 -0.0949508 6.23654e-22)
(0.432584 -0.0932534 2.55996e-22)
(0.386265 -0.11921 8.18865e-20)
(0.696563 -0.0750423 -5.32043e-20)
(-0.046373 0.049902 0)
(-0.0649529 0.0658409 5.50424e-20)
(-0.0354088 0.0524354 9.26995e-20)
(0.0625312 0.0299196 -1.14635e-19)
(0.235607 -0.00519908 0)
(0.436719 -0.0139871 1.49752e-19)
(0.616688 -0.0321369 -1.17583e-19)
(0.838263 -0.0174515 9.35031e-20)
(0.905215 -0.015331 -8.14114e-20)
(1.12378 0.0269717 3.71795e-20)
(-0.241999 -0.0743395 -8.7698e-21)
(-0.198956 0.0380935 0)
(-0.168978 0.185785 1.73963e-22)
(-0.119609 0.334227 0)
(-0.0729375 0.47478 1.2857e-22)
(-0.0196154 0.529842 0)
(0.0239329 0.516941 3.91335e-21)
(0.173722 0.343324 -3.64013e-21)
(0.466889 -0.131907 0)
(0.810106 -0.43752 -1.72917e-22)
(0.95531 -0.491384 0)
(0.831575 -0.609984 1.39684e-21)
(0.80749 -0.486237 4.09508e-22)
(0.980127 0.0426881 -1.30849e-21)
(1.023 0.598694 -4.14467e-22)
(0.986088 0.675027 2.40268e-22)
(0.951187 0.244282 0)
(0.863033 -0.284019 0)
(0.746228 -0.464525 0)
(0.753489 -0.236378 0)
(0.814957 0.0977658 0)
(0.7833 0.253915 -3.54569e-23)
(0.77503 0.239005 3.31558e-23)
(0.809972 0.0785565 -7.80323e-23)
(0.862762 -0.0679284 0)
(-0.173485 -0.116226 -2.53951e-20)
(-0.155179 -0.00866614 1.98616e-20)
(-0.144762 0.12076 -1.86358e-20)
(-0.084968 0.263194 1.54148e-20)
(-0.0300996 0.393429 5.69252e-22)
(0.0985091 0.446262 -3.01915e-20)
(0.195562 0.425658 1.50537e-20)
(0.472195 0.217726 0)
(0.757843 -0.279628 5.66311e-22)
(0.862493 -0.575013 1.7601e-22)
(0.922137 -0.529013 0)
(0.839605 -0.58979 -1.78274e-22)
(0.825446 -0.518678 -1.44602e-22)
(0.894656 0.0275228 7.45288e-21)
(0.949888 0.626024 -9.28336e-21)
(0.959807 0.687125 2.33092e-21)
(0.951324 0.266087 -1.97785e-21)
(0.890676 -0.251472 2.84319e-22)
(0.765166 -0.453601 4.03005e-22)
(0.751057 -0.248209 1.11428e-21)
(0.794398 0.0922634 -2.66268e-22)
(0.757274 0.254651 0)
(0.767676 0.233622 0)
(0.826256 0.0693351 -7.23676e-24)
(0.878729 -0.0730802 -8.59599e-23)
(0.111534 -0.118641 7.59231e-20)
(0.103251 -0.0586407 -4.2704e-21)
(0.0757757 0.0388015 -2.55661e-20)
(0.11218 0.159785 0)
(0.177594 0.283724 -2.40031e-20)
(0.323119 0.349546 2.23194e-20)
(0.412655 0.313715 0)
(0.710302 0.104729 0)
(1.05843 -0.279815 -5.89236e-22)
(1.02006 -0.53002 0)
(0.972673 -0.473945 -5.10384e-22)
(0.843991 -0.56538 0)
(0.828544 -0.562659 -7.11082e-21)
(0.852602 -0.0703954 -1.20089e-21)
(0.898243 0.524833 1.76731e-21)
(0.884536 0.669578 5.53242e-21)
(0.931947 0.323493 3.84689e-22)
(0.941283 -0.185523 3.00776e-22)
(0.80092 -0.424522 0)
(0.743073 -0.254669 1.25222e-22)
(0.759538 0.0874225 -3.93948e-23)
(0.725014 0.254021 0)
(0.762071 0.225565 7.60661e-25)
(0.848031 0.059253 1.75717e-22)
(0.898916 -0.0775606 8.57074e-23)
(0.597267 -0.0652346 2.97791e-22)
(0.521871 -0.0381111 0)
(0.447499 0.029807 0)
(0.428557 0.0886658 -1.62304e-20)
(0.454055 0.157014 1.52885e-20)
(0.562745 0.250836 0)
(0.699096 0.204443 2.19807e-22)
(0.919155 -0.0460476 -5.72895e-22)
(1.21105 -0.350578 0)
(1.15103 -0.520573 2.23499e-20)
(1.05691 -0.424455 -2.01694e-20)
(0.95574 -0.504388 0)
(0.817803 -0.594834 -3.38829e-22)
(0.802779 -0.10582 0)
(0.798836 0.516114 1.10363e-20)
(0.812294 0.664364 -1.0454e-20)
(0.906754 0.316675 -2.86381e-21)
(0.965584 -0.160925 3.95807e-21)
(0.821157 -0.401686 -1.76394e-21)
(0.727551 -0.25907 0)
(0.724194 0.082947 4.02918e-22)
(0.701076 0.248107 -4.12899e-22)
(0.765421 0.211269 -4.32426e-22)
(0.875563 0.0466032 8.84654e-23)
(0.921072 -0.0819325 0)
(1.06543 0.0185674 4.38542e-20)
(1.02342 0.021584 -4.06075e-20)
(0.933822 0.037345 0)
(0.879907 0.0776107 -1.4021e-22)
(0.873319 0.0923621 -1.3575e-22)
(0.854167 0.145656 -2.4081e-20)
(0.97786 0.171752 2.20165e-20)
(1.15169 -0.0153428 -3.59599e-20)
(1.32007 -0.272777 6.53407e-20)
(1.22721 -0.438685 -2.91295e-20)
(1.05443 -0.390003 -1.57082e-20)
(1.05386 -0.426144 1.4494e-20)
(0.837665 -0.574255 1.41512e-20)
(0.779815 -0.219351 -2.79203e-20)
(0.72427 0.409871 1.40172e-20)
(0.734599 0.638577 -2.28821e-22)
(0.832893 0.36745 -4.52177e-21)
(1.00555 -0.0911155 2.77556e-21)
(0.882286 -0.351443 1.54821e-21)
(0.719848 -0.259238 -5.15805e-22)
(0.689751 0.0717877 5.61281e-22)
(0.678248 0.238942 2.22891e-22)
(0.772971 0.195541 -9.80617e-23)
(0.905255 0.034282 -8.98088e-23)
(0.942824 -0.085251 0)
(1.19038 0.0695186 0)
(1.20025 0.0720095 0)
(1.16026 0.0891572 0)
(1.13091 0.102478 0)
(1.17473 0.111711 0)
(1.12703 0.109898 0)
(1.23999 0.0715103 0)
(1.33399 -0.064786 0)
(1.35444 -0.21381 0)
(1.26205 -0.32864 0)
(1.04804 -0.314404 0)
(1.09359 -0.357087 0)
(0.869042 -0.536374 0)
(0.786935 -0.24671 0)
(0.76182 0.384 0)
(0.682315 0.627051 0)
(0.806557 0.333299 0)
(1.03126 -0.0909266 0)
(0.940941 -0.305407 0)
(0.718185 -0.238669 0)
(0.662795 0.0688292 0)
(0.671561 0.226272 0)
(0.797243 0.172038 0)
(0.941058 0.0203984 0)
(0.964951 -0.0870271 0)
(1.16775 0.0900462 0)
(1.17762 0.0647707 0)
(1.17494 0.0883207 0)
(1.16763 0.0778342 0)
(1.21081 0.0893817 0)
(1.21227 0.0837287 0)
(1.2878 0.0324006 0)
(1.32588 -0.057108 0)
(1.2755 -0.214141 0)
(1.21354 -0.282334 0)
(1.01791 -0.287224 0)
(1.0101 -0.369835 0)
(0.832259 -0.479394 0)
(0.702902 -0.19082 0)
(0.66977 0.42974 0)
(0.589286 0.627647 0)
(0.820444 0.271445 0)
(1.04704 -0.12357 0)
(0.98477 -0.267587 0)
(0.718171 -0.189037 0)
(0.618089 0.0832285 0)
(0.667769 0.210501 0)
(0.833066 0.143163 0)
(0.981951 0.0042633 0)
(0.988042 -0.0892673 0)
(1.15781 0.0951578 0)
(1.1633 0.0702654 0)
(1.16798 0.0808497 0)
(1.17115 0.0657822 0)
(1.18713 0.0638049 0)
(1.20956 0.0549789 0)
(1.23693 -0.00349329 0)
(1.27121 -0.0514328 0)
(1.22117 -0.156529 0)
(1.17743 -0.220922 0)
(1.05722 -0.202101 0)
(1.03563 -0.269756 0)
(0.865675 -0.372722 0)
(0.572836 -0.12872 0)
(0.472574 0.471828 0)
(0.59533 0.564847 0)
(0.909956 0.18297 0)
(1.06862 -0.147455 0)
(1.03677 -0.226849 0)
(0.782184 -0.137032 0)
(0.616698 0.0888796 0)
(0.708742 0.176415 0)
(0.899567 0.103949 0)
(1.03354 -0.0104182 0)
(1.01401 -0.088274 0)
(1.14667 0.0939637 0)
(1.15861 0.0686082 0)
(1.16112 0.0764352 0)
(1.17197 0.0517705 0)
(1.17075 0.0491523 0)
(1.19584 0.034473 0)
(1.19897 -0.01717 0)
(1.21219 -0.0356004 0)
(1.19202 -0.134036 0)
(1.12708 -0.174496 0)
(1.03639 -0.171882 0)
(0.983808 -0.274934 0)
(0.870981 -0.268343 0)
(0.568287 -0.00167444 0)
(0.456278 0.430221 0)
(0.781778 0.433231 0)
(1.08733 0.106339 0)
(1.11372 -0.160265 0)
(1.01945 -0.182954 0)
(0.844497 -0.0655579 0)
(0.712759 0.102476 0)
(0.834394 0.134504 0)
(1.00045 0.0624883 0)
(1.08951 -0.0222377 0)
(1.03937 -0.0851325 0)
(1.13715 0.0854072 0)
(1.14975 0.0679481 0)
(1.15237 0.0641611 0)
(1.16573 0.0476685 0)
(1.15687 0.0350957 0)
(1.17733 0.0223431 0)
(1.17095 -0.01621 0)
(1.17094 -0.0357372 0)
(1.16578 -0.0920699 0)
(1.10066 -0.132151 0)
(1.06263 -0.107382 0)
(1.00221 -0.166059 0)
(0.871499 -0.150572 0)
(0.69148 0.0918839 0)
(0.695052 0.351348 0)
(1.00557 0.271349 0)
(1.18924 0.0469167 0)
(1.15838 -0.123501 0)
(1.04012 -0.132849 0)
(0.930469 -0.0291409 0)
(0.886487 0.0963805 0)
(1.00099 0.0957455 0)
(1.09817 0.0342056 0)
(1.13311 -0.0203797 0)
(1.0601 -0.0751015 0)
(1.12576 0.0750056 0)
(1.13843 0.0601763 0)
(1.1422 0.0555824 0)
(1.15118 0.0389374 0)
(1.14733 0.0284981 0)
(1.15498 0.0149699 0)
(1.15221 -0.0131122 0)
(1.1418 -0.0250219 0)
(1.1396 -0.0645798 0)
(1.08863 -0.0887697 0)
(1.04768 -0.0766678 0)
(1.01517 -0.119894 0)
(0.909844 -0.0812594 0)
(0.828867 0.0983238 0)
(0.926964 0.239028 0)
(1.12783 0.171583 0)
(1.20382 0.0327981 0)
(1.1533 -0.0946979 0)
(1.04872 -0.093215 0)
(0.982765 -0.00909866 0)
(1.00253 0.0776028 0)
(1.09701 0.0653368 0)
(1.1412 0.0196187 0)
(1.14902 -0.0130664 0)
(1.07229 -0.065042 0)
(1.11516 0.0655137 0)
(1.12549 0.0554497 0)
(1.1296 0.0486528 0)
(1.1359 0.0371491 0)
(1.13258 0.026597 0)
(1.1354 0.0154208 0)
(1.13115 -0.00250411 0)
(1.12186 -0.0146093 0)
(1.11824 -0.0340212 0)
(1.08526 -0.0524529 0)
(1.06018 -0.0402478 0)
(1.03948 -0.0509607 0)
(0.967662 -0.0200284 0)
(0.939067 0.081749 0)
(1.02454 0.158566 0)
(1.13379 0.110521 0)
(1.17721 0.0319952 0)
(1.14348 -0.0469749 0)
(1.06444 -0.0513662 0)
(1.02525 -0.0063099 0)
(1.05633 0.0520816 0)
(1.12268 0.0457831 0)
(1.14349 0.0152038 0)
(1.15021 0.00244285 0)
(1.08221 -0.0486759 0)
(1.10742 0.0537599 0)
(1.11527 0.0459497 0)
(1.11928 0.0402445 0)
(1.12286 0.0308869 0)
(1.1218 0.022752 0)
(1.12126 0.0136937 0)
(1.11834 0.00206976 0)
(1.11062 -0.00663325 0)
(1.10474 -0.01744 0)
(1.08701 -0.0283774 0)
(1.06717 -0.0204061 0)
(1.05453 -0.0259448 0)
(1.02005 -0.00234042 0)
(1.01046 0.0503652 0)
(1.06145 0.0922947 0)
(1.12454 0.0700043 0)
(1.14768 0.0283048 0)
(1.12979 -0.0289863 0)
(1.08418 -0.0319767 0)
(1.05976 -0.00670902 0)
(1.07717 0.0283048 0)
(1.12433 0.0255954 0)
(1.13669 0.00655 0)
(1.14722 0.00824425 0)
(1.09065 -0.0404607 0)
(1.10303 0.0511792 0)
(1.10879 0.0457419 0)
(1.11193 0.0411102 0)
(1.11434 0.0344281 0)
(1.11353 0.0286557 0)
(1.11265 0.0214976 0)
(1.11002 0.01506 0)
(1.10544 0.00751599 0)
(1.1012 0.00356469 0)
(1.09195 -0.00366048 0)
(1.08091 0.00206907 0)
(1.07438 0.00219148 0)
(1.05846 0.0175176 0)
(1.05701 0.0416169 0)
(1.08065 0.0656637 0)
(1.11405 0.050481 0)
(1.13021 0.0306802 0)
(1.12465 -0.00433083 0)
(1.09669 -0.00738706 0)
(1.08503 -7.0598e-05 0)
(1.09376 0.0190499 0)
(1.12555 0.0195828 0)
(1.13088 0.0062467 0)
(1.14744 0.0227777 0)
(1.10255 -0.0222809 0)
(1.10564 0.0371469 0)
(1.11015 0.0328929 0)
(1.11296 0.02956 0)
(1.115 0.0244002 0)
(1.11492 0.0205877 0)
(1.11461 0.015162 0)
(1.11276 0.0114846 0)
(1.11064 0.00601102 0)
(1.10701 0.00426717 0)
(1.10312 -0.000836946 0)
(1.09628 0.00301362 0)
(1.09343 0.00186535 0)
(1.08701 0.0115856 0)
(1.08875 0.0201895 0)
(1.09928 0.0341046 0)
(1.11923 0.0254767 0)
(1.12735 0.0191618 0)
(1.12691 -0.00523436 0)
(1.11169 -0.00728937 0)
(1.10753 -0.0071908 0)
(1.10758 0.00088036 0)
(1.12959 0.00249624 0)
(1.12969 -0.00677541 0)
(1.15098 0.0197243 0)
(1.11532 -0.019465 0)
(1.11031 0.0432736 0)
(1.11382 0.0402076 0)
(1.11627 0.0380309 0)
(1.11831 0.0342089 0)
(1.11881 0.0319009 0)
(1.1193 0.0277131 0)
(1.11851 0.0258344 0)
(1.11825 0.0215523 0)
(1.11651 0.0210756 0)
(1.11597 0.0173642 0)
(1.11279 0.0199445 0)
(1.11313 0.0183912 0)
(1.11013 0.0248052 0)
(1.11346 0.0258303 0)
(1.11669 0.0349476 0)
(1.12757 0.027367 0)
(1.13078 0.0266749 0)
(1.13441 0.0107188 0)
(1.12497 0.00965469 0)
(1.12648 0.00514896 0)
(1.12329 0.00536963 0)
(1.13921 0.00815213 0)
(1.1357 -0.00495611 0)
(1.15889 0.0313504 0)
(1.13263 0.00129665 0)
(1.12296 0.0197687 0)
(1.1261 0.0175356 0)
(1.12809 0.0162272 0)
(1.13028 0.0134577 0)
(1.13083 0.012213 0)
(1.13223 0.00918621 0)
(1.13182 0.0085034 0)
(1.1331 0.00531428 0)
(1.13195 0.00577152 0)
(1.13353 0.00258976 0)
(1.13146 0.00498403 0)
(1.13403 0.00233947 0)
(1.13191 0.00709277 0)
(1.13678 0.00489268 0)
(1.13681 0.0114655 0)
(1.1454 0.00520347 0)
(1.14492 0.0086017 0)
(1.15137 -0.0028052 0)
(1.14287 -0.00286273 0)
(1.14817 -0.00833355 0)
(1.13992 -0.0118529 0)
(1.15304 -0.00837785 0)
(1.14057 -0.0230286 0)
(1.16694 0.0182478 0)
(1.15331 -0.003607 0)
(1.15115 0.0357018 0)
(1.15368 0.0339913 0)
(1.15545 0.0330992 0)
(1.15788 0.0309639 0)
(1.15886 0.0301316 0)
(1.16098 0.027758 0)
(1.16116 0.0273216 0)
(1.1635 0.0248347 0)
(1.163 0.0251351 0)
(1.16607 0.022465 0)
(1.16475 0.024071 0)
(1.16894 0.02113 0)
(1.16693 0.0246137 0)
(1.17276 0.0208099 0)
(1.17075 0.025695 0)
(1.17869 0.0199762 0)
(1.17527 0.0229869 0)
(1.18415 0.0157783 0)
(1.17513 0.0151571 0)
(1.18346 0.0112494 0)
(1.17366 0.0032232 0)
(1.18501 0.0110281 0)
(1.16856 -0.012543 0)
(1.19565 0.0209471 0)
(1.18995 0.0159284 0)
(1.1751 -0.00198743 0)
(1.17762 -0.00291142 0)
(1.17888 -0.00298803 0)
(1.18152 -0.00424592 0)
(1.18209 -0.00420093 0)
(1.18491 -0.00570139 0)
(1.18476 -0.00534905 0)
(1.18813 -0.00696003 0)
(1.18734 -0.0060104 0)
(1.19157 -0.00784755 0)
(1.19005 -0.00575552 0)
(1.19559 -0.00829102 0)
(1.19298 -0.0042936 0)
(1.20098 -0.0081599 0)
(1.19633 -0.00264397 0)
(1.20806 -0.0072234 0)
(1.20026 -0.00314007 0)
(1.21402 -0.00731818 0)
(1.20306 -0.00584501 0)
(1.21648 -0.00969979 0)
(1.19947 -0.01724 0)
(1.21684 -0.00534858 0)
(1.19412 -0.0359982 0)
(1.20428 -0.00568733 0)
(1.21486 0.000633321 0)
(1.29183 0.0237657 0)
(1.29422 0.0233514 0)
(1.29477 0.0229128 0)
(1.29773 0.0222546 0)
(1.29771 0.0220405 0)
(1.30131 0.0209254 0)
(1.30024 0.0213047 0)
(1.3049 0.0195161 0)
(1.30227 0.0205317 0)
(1.30879 0.0182873 0)
(1.30392 0.0192572 0)
(1.31332 0.0175093 0)
(1.30531 0.0174947 0)
(1.31867 0.0170937 0)
(1.30666 0.016801 0)
(1.32545 0.0152195 0)
(1.30806 0.0177273 0)
(1.33337 0.0143 0)
(1.30914 0.0139313 0)
(1.33829 0.0210429 0)
(1.31389 0.00575596 0)
(1.32884 0.0198907 0)
(1.3239 0.0111313 0)
(1.30659 -0.000990993 0)
(1.31638 0.00870863 0)
(1.10689 0.168709 5.46673e-22)
(1.14765 0.167139 2.66899e-20)
(1.17019 0.136693 -6.27e-20)
(1.11824 0.114469 -2.79752e-22)
(1.20452 0.0861144 0)
(1.13228 0.165068 2.17932e-21)
(1.10237 0.151301 -1.05408e-20)
(1.1733 0.136676 2.4659e-20)
(1.11495 0.118003 2.30054e-20)
(1.15858 0.0940482 -2.79456e-20)
(1.12894 0.147218 0)
(1.09784 0.128444 2.03003e-22)
(1.14381 0.124589 1.27471e-20)
(1.13005 0.112054 -2.03968e-20)
(1.13793 0.0968223 4.98424e-21)
(1.10818 0.136078 5.6935e-23)
(1.10503 0.115115 3.45558e-21)
(1.11758 0.115957 -1.12196e-20)
(1.12997 0.105807 9.96219e-21)
(1.12877 0.0944015 1.67797e-20)
(1.09476 0.118915 0)
(1.10588 0.100964 -2.9508e-21)
(1.10399 0.102921 1.95428e-22)
(1.12192 0.0949954 -1.48533e-20)
(1.12061 0.088652 0)
(1.08949 0.102347 -2.27451e-22)
(1.10032 0.0880684 1.2457e-22)
(1.09823 0.0893335 1.85137e-23)
(1.11129 0.0823617 5.228e-21)
(1.11369 0.0788115 -1.53235e-22)
(1.08843 0.0874251 1.93948e-22)
(1.09536 0.0773863 0)
(1.09451 0.0773582 3.68239e-22)
(1.10273 0.0714777 0)
(1.10549 0.0699617 -1.92093e-21)
(1.09017 0.0727124 6.56855e-23)
(1.09429 0.0659741 -2.89615e-22)
(1.09396 0.0642945 -3.20899e-22)
(1.09892 0.0596367 0)
(1.10041 0.0575885 1.65551e-21)
(1.09241 0.065808 -7.8169e-23)
(1.09557 0.0610773 3.07466e-22)
(1.09453 0.0594169 5.14498e-22)
(1.09804 0.0557392 -3.02867e-23)
(1.09795 0.0544459 7.85309e-22)
(1.09805 0.0493269 0)
(1.10086 0.046041 0)
(1.09957 0.0440438 -1.30715e-21)
(1.10266 0.0413651 0)
(1.10173 0.0396243 -2.0676e-21)
(1.10535 0.0518451 0)
(1.10796 0.0494131 2.15541e-22)
(1.10666 0.0479724 -6.61775e-22)
(1.10894 0.0460184 -6.97806e-22)
(1.1075 0.0449784 1.21848e-21)
(1.11852 0.0256895 0)
(1.12094 0.0239404 2.26274e-22)
(1.11948 0.0228873 -1.2733e-22)
(1.1219 0.0215527 8.05177e-22)
(1.12043 0.0208313 -7.33041e-22)
(1.14808 0.0404822 -2.50219e-22)
(1.15045 0.0393229 5.05818e-22)
(1.14943 0.0382513 1.4057e-21)
(1.15119 0.0373858 1.54892e-24)
(1.14955 0.0364517 8.10491e-22)
(1.1705 -0.00103632 2.34358e-22)
(1.17305 -0.00171775 -6.27707e-24)
(1.17261 -0.00176266 -1.08879e-21)
(1.17457 -0.00209831 4.37656e-22)
(1.17355 -0.00188907 -4.21207e-22)
(1.28755 0.0261288 0)
(1.28943 0.0259667 0)
(1.28997 0.0252694 -2.03299e-22)
(1.29113 0.0249681 0)
(1.29113 0.0241779 0)
(0.972567 0.249051 1.56419e-20)
(0.963077 0.267886 -1.86189e-20)
(0.933558 0.29021 1.0392e-20)
(0.915028 0.32408 -2.09237e-20)
(0.912008 0.371237 1.37359e-20)
(0.910274 0.423669 0)
(0.896923 0.487241 0)
(0.890177 0.567811 -1.7685e-20)
(0.871888 0.653206 -2.98317e-21)
(0.615059 0.56806 0)
(0.97359 0.239206 1.54943e-22)
(0.988943 0.269799 0)
(0.995171 0.299741 -2.41225e-21)
(0.993212 0.333389 -7.08046e-21)
(0.990293 0.373595 -1.31533e-20)
(0.990574 0.420949 2.00276e-21)
(0.995204 0.480668 -9.65188e-21)
(1.01093 0.558541 3.0403e-20)
(1.00186 0.615034 2.44079e-20)
(0.688916 0.492972 -6.24186e-20)
(1.04741 0.244854 -8.6761e-21)
(1.03791 0.265812 7.02763e-21)
(1.03331 0.288718 -5.9701e-21)
(1.03529 0.320007 -1.47727e-20)
(1.05079 0.361373 3.93869e-20)
(1.0715 0.405749 -1.9158e-20)
(1.08677 0.453707 4.26568e-20)
(1.10567 0.514972 -8.66652e-20)
(1.08242 0.541428 -1.39989e-20)
(0.695224 0.383355 6.8857e-20)
(1.05006 0.229082 -1.66175e-21)
(1.07959 0.252658 -3.08538e-21)
(1.09462 0.27911 1.74337e-20)
(1.10387 0.306143 -1.61405e-20)
(1.11246 0.335384 1.93374e-20)
(1.12677 0.370049 -9.07144e-21)
(1.15266 0.410691 0)
(1.17705 0.456664 4.31718e-20)
(1.10723 0.447581 -5.24778e-20)
(0.622519 0.259958 -2.09893e-20)
(1.12481 0.225443 5.94053e-21)
(1.11702 0.23493 5.3393e-21)
(1.11787 0.252505 -6.36615e-21)
(1.12659 0.275176 0)
(1.15198 0.305079 0)
(1.18525 0.334565 9.09022e-21)
(1.2082 0.361391 0)
(1.19675 0.380369 0)
(1.0441 0.34098 0)
(0.453562 0.136972 -2.12621e-20)
(0.808335 0.0761851 -1.11004e-22)
(0.779017 0.0781668 1.00375e-20)
(0.742212 0.0812588 -1.19694e-20)
(0.699118 0.0853571 0)
(0.643977 0.0908739 0)
(0.579795 0.098295 -1.44818e-20)
(0.495461 0.108606 0)
(0.39829 0.121885 0)
(0.257386 0.142866 0)
(0.094146 0.130577 2.13989e-20)
(0.821142 0.119579 2.01865e-20)
(0.794742 0.128006 -3.71805e-20)
(0.760417 0.139883 4.43366e-20)
(0.720377 0.154915 -3.27158e-20)
(0.670909 0.174089 3.9199e-20)
(0.613912 0.197774 1.44444e-20)
(0.538536 0.229375 0)
(0.451057 0.268171 5.00081e-20)
(0.320785 0.325562 -6.07643e-20)
(0.147968 0.30208 -6.06414e-20)
(0.843944 0.163504 -2.28802e-20)
(0.823574 0.176981 3.20656e-20)
(0.792745 0.194689 -5.60333e-20)
(0.752814 0.216584 -7.86352e-20)
(0.706221 0.245873 1.02653e-19)
(0.659346 0.283112 -4.36773e-20)
(0.598434 0.332425 6.11799e-20)
(0.531879 0.393131 -1.12406e-19)
(0.425713 0.481471 4.33108e-22)
(0.240731 0.448139 5.61762e-20)
(0.872842 0.195952 2.93001e-20)
(0.861003 0.216867 -4.77863e-20)
(0.84484 0.243943 1.78089e-20)
(0.818193 0.272865 6.44757e-21)
(0.774603 0.306526 -7.53342e-20)
(0.731601 0.350347 3.10513e-20)
(0.685109 0.411194 -4.97407e-22)
(0.639695 0.485022 5.00355e-20)
(0.564029 0.590106 -1.67157e-20)
(0.36408 0.548697 -2.51487e-20)
(0.91188 0.21959 -2.82618e-20)
(0.889061 0.236271 3.36361e-20)
(0.869835 0.267973 -2.19935e-20)
(0.865592 0.308761 7.03227e-20)
(0.851017 0.352094 -1.11737e-20)
(0.82124 0.398852 0)
(0.785749 0.463494 1.89772e-20)
(0.763205 0.545837 -2.29622e-20)
(0.720121 0.648514 1.67539e-20)
(0.497252 0.58993 0)
(0.981794 0.15424 4.78587e-22)
(0.980514 0.149176 2.65963e-22)
(0.980521 0.120833 1.55732e-22)
(0.973667 0.115578 -1.76397e-22)
(0.976885 0.0955859 2.08825e-22)
(0.972034 0.0947146 0)
(0.972602 0.0815099 0)
(0.963937 0.0802174 -1.98978e-22)
(0.956628 0.0743306 1.04373e-21)
(0.943269 0.0725052 -2.53199e-21)
(0.928641 0.0715808 -2.05317e-22)
(0.909512 0.0698273 4.23291e-21)
(0.888899 0.0717891 -2.40271e-21)
(0.863838 0.0712574 2.17286e-22)
(0.837223 0.075339 -5.01503e-21)
(0.980722 0.156213 -9.24336e-22)
(0.977583 0.146275 -3.00149e-22)
(0.981319 0.124554 1.28475e-21)
(0.973376 0.112419 -3.41002e-22)
(0.97734 0.0997612 7.09002e-22)
(0.971931 0.0914739 -7.6646e-22)
(0.972335 0.0877163 -3.25078e-22)
(0.964141 0.0800132 2.0194e-22)
(0.957283 0.083898 -2.52835e-22)
(0.944942 0.0774238 -5.76543e-21)
(0.931283 0.0859058 6.21413e-21)
(0.913342 0.082246 8.723e-21)
(0.894343 0.0946418 -2.1994e-20)
(0.870806 0.0960252 -1.83069e-21)
(0.846491 0.113846 -1.49069e-21)
(0.982094 0.158262 4.74451e-22)
(0.97363 0.143688 0)
(0.982948 0.127076 -6.32301e-22)
(0.973552 0.109682 -4.13565e-22)
(0.977384 0.102345 0)
(0.972051 0.0890985 -2.8744e-22)
(0.970737 0.0919895 3.34491e-22)
(0.963849 0.0807415 0)
(0.955921 0.0923353 -9.20569e-21)
(0.945148 0.08409 1.08937e-20)
(0.931351 0.100924 0)
(0.916072 0.0975987 2.73169e-22)
(0.899334 0.120082 0)
(0.880698 0.123523 -2.87147e-20)
(0.861276 0.153784 6.7922e-20)
(0.982854 0.160385 0)
(0.974015 0.140841 6.27036e-23)
(0.980606 0.1294 7.40286e-22)
(0.978202 0.10657 0)
(0.975247 0.105483 2.06868e-21)
(0.97476 0.0862772 -2.06703e-21)
(0.968663 0.0965624 0)
(0.964815 0.0791982 -4.57378e-22)
(0.955358 0.0989305 8.36065e-22)
(0.94725 0.0848108 1.13628e-20)
(0.934051 0.109966 -1.34495e-20)
(0.922764 0.104499 -1.82242e-20)
(0.908281 0.137001 -1.54045e-21)
(0.895068 0.141377 2.57443e-20)
(0.882698 0.184339 2.16531e-22)
(0.982354 0.162229 0)
(0.975834 0.138743 -7.09574e-22)
(0.98086 0.129415 0)
(0.9787 0.104081 0)
(0.977679 0.106429 0)
(0.974462 0.0857208 -3.30534e-22)
(0.968835 0.0998175 0)
(0.964581 0.0826414 4.9036e-22)
(0.954133 0.105926 9.89774e-21)
(0.947204 0.0952888 -1.17836e-20)
(0.935938 0.124009 -1.5523e-20)
(0.928029 0.122171 1.78963e-20)
(0.920013 0.160163 2.18096e-20)
(0.91328 0.16372 -4.95446e-20)
(0.914206 0.215296 2.78585e-20)
(0.982764 0.163295 0)
(0.975602 0.137216 0)
(0.982524 0.131401 0)
(0.980349 0.101626 0)
(0.97654 0.108511 0)
(0.979508 0.0835112 0)
(0.966349 0.101205 0)
(0.97043 0.0803026 0)
(0.954873 0.107076 0)
(0.955343 0.0924468 0)
(0.942024 0.127579 0)
(0.943719 0.118856 0)
(0.935095 0.166406 0)
(0.942838 0.16031 0)
(0.946666 0.220182 0)
(0.983176 0.164747 0)
(0.978437 0.135491 0)
(0.979802 0.133003 0)
(0.988019 0.100611 0)
(0.974593 0.110414 0)
(0.982324 0.083111 0)
(0.970201 0.104376 0)
(0.968746 0.0811464 0)
(0.965742 0.111999 0)
(0.954161 0.0948846 0)
(0.96168 0.130814 0)
(0.947336 0.122567 0)
(0.963423 0.162381 0)
(0.95386 0.159244 0)
(0.979427 0.197411 0)
(0.979034 0.166134 0)
(0.986034 0.133994 0)
(0.977014 0.134208 0)
(0.991744 0.0987228 0)
(0.982733 0.114149 0)
(0.980545 0.0820203 0)
(0.981419 0.107696 0)
(0.967525 0.083463 0)
(0.976158 0.114074 0)
(0.959585 0.0977808 0)
(0.976067 0.130635 0)
(0.960959 0.123685 0)
(0.981743 0.155449 0)
(0.973788 0.152135 0)
(0.996419 0.17948 0)
(0.975091 0.167383 0)
(0.988532 0.131618 0)
(0.979803 0.136395 0)
(0.987745 0.0945132 0)
(0.98867 0.117566 0)
(0.985225 0.0825021 0)
(0.986267 0.108784 0)
(0.97834 0.0880391 0)
(0.979669 0.113301 0)
(0.97634 0.0996515 0)
(0.981714 0.127266 0)
(0.983041 0.121752 0)
(0.991701 0.145734 0)
(0.997446 0.142689 0)
(1.0079 0.162491 0)
(0.976265 0.16918 0)
(0.988816 0.128156 0)
(0.981647 0.139425 0)
(0.989421 0.0913228 0)
(0.983832 0.116966 0)
(0.993718 0.084649 0)
(0.985136 0.107923 0)
(0.99109 0.0919331 0)
(0.984601 0.111675 0)
(0.99268 0.100146 0)
(0.989395 0.122086 0)
(1.00046 0.117075 0)
(1.00271 0.135073 0)
(1.01382 0.131562 0)
(1.01979 0.146058 0)
(0.977528 0.170085 0)
(0.9929 0.125475 0)
(0.981095 0.140942 0)
(0.998703 0.0920641 0)
(0.981846 0.11378 0)
(0.99959 0.0865426 0)
(0.987794 0.10554 0)
(1.0004 0.0931023 0)
(0.993725 0.109048 0)
(1.00561 0.0993488 0)
(1.00094 0.115658 0)
(1.01348 0.111012 0)
(1.01447 0.123641 0)
(1.02602 0.119711 0)
(1.03033 0.129898 0)
(0.976422 0.170728 0)
(0.996512 0.122773 0)
(0.981867 0.139495 0)
(1.0063 0.093886 0)
(0.987979 0.110999 0)
(1.00502 0.0873105 0)
(0.995967 0.102359 0)
(1.00951 0.0918192 0)
(1.00507 0.105121 0)
(1.01773 0.0971263 0)
(1.01435 0.109038 0)
(1.0262 0.104275 0)
(1.02701 0.113175 0)
(1.03802 0.108442 0)
(1.04074 0.115534 0)
(0.975488 0.169853 0)
(0.997559 0.12195 0)
(0.984596 0.134283 0)
(1.00947 0.0956569 0)
(0.996118 0.106649 0)
(1.01185 0.0876895 0)
(1.00607 0.0966899 0)
(1.01956 0.0883951 0)
(1.01697 0.0973856 0)
(1.02963 0.0916199 0)
(1.02831 0.0986517 0)
(1.03964 0.0946429 0)
(1.04051 0.0995391 0)
(1.05104 0.0951484 0)
(1.05283 0.0987759 0)
(0.975973 0.168176 0)
(0.998887 0.120923 0)
(0.989004 0.128094 0)
(1.0118 0.0961252 0)
(1.00354 0.103104 0)
(1.01919 0.0879294 0)
(1.01569 0.0940081 0)
(1.02926 0.0865401 0)
(1.02795 0.0931316 0)
(1.04021 0.0880441 0)
(1.04031 0.0928457 0)
(1.05101 0.0886108 0)
(1.05193 0.0918906 0)
(1.0615 0.0874521 0)
(1.06257 0.089763 0)
(0.97662 0.164917 0)
(1.002 0.120262 0)
(0.995635 0.117868 0)
(1.01751 0.0915741 0)
(1.01325 0.0912669 0)
(1.02959 0.0787235 0)
(1.02784 0.0804402 0)
(1.04154 0.0738725 0)
(1.04125 0.0765669 0)
(1.053 0.072254 0)
(1.05373 0.0740811 0)
(1.06385 0.0704409 0)
(1.06481 0.0715335 0)
(1.07358 0.0680025 0)
(1.07441 0.0686238 0)
(0.977997 0.159861 0)
(1.00441 0.120772 0)
(1.00236 0.114355 0)
(1.02278 0.0946522 0)
(1.02243 0.0923275 0)
(1.03885 0.0820261 0)
(1.03949 0.082512 0)
(1.05277 0.0766821 0)
(1.05384 0.077922 0)
(1.06466 0.0737876 0)
(1.066 0.0746171 0)
(1.07511 0.0711297 0)
(1.07624 0.0715992 0)
(1.08381 0.0683836 0)
(1.08451 0.0685964 0)
(0.97827 0.148988 0)
(1.01299 0.106148 0)
(1.01534 0.0908446 0)
(1.03743 0.0715533 0)
(1.03797 0.0657238 0)
(1.05533 0.0554587 0)
(1.05642 0.0537529 0)
(1.07001 0.0480189 0)
(1.07089 0.0477421 0)
(1.08161 0.0439314 0)
(1.0825 0.0438788 0)
(1.09143 0.0409177 0)
(1.09202 0.0408781 0)
(1.09923 0.0383265 0)
(1.09922 0.0382614 0)
(0.978817 0.145702 0)
(1.02393 0.113063 0)
(1.03434 0.0979769 0)
(1.05882 0.0832991 0)
(1.06358 0.0764752 0)
(1.08168 0.0684992 0)
(1.08553 0.0653433 0)
(1.09906 0.060935 0)
(1.10167 0.0593687 0)
(1.11192 0.0564972 0)
(1.11376 0.0555059 0)
(1.12192 0.0533152 0)
(1.12307 0.0525814 0)
(1.12941 0.0507528 0)
(1.12977 0.0501622 0)
(0.98054 0.0959965 0)
(1.03986 0.0595076 0)
(1.05478 0.042584 0)
(1.08004 0.0266884 0)
(1.08588 0.0211914 0)
(1.10407 0.0140673 0)
(1.10878 0.0128192 0)
(1.1221 0.00933207 0)
(1.12509 0.00933924 0)
(1.13501 0.00718945 0)
(1.13699 0.00751543 0)
(1.14466 0.00583271 0)
(1.14574 0.00616646 0)
(1.15158 0.00469971 0)
(1.15182 0.0050009 0)
(0.98222 0.104971 0)
(1.13134 0.0788836 0)
(1.15849 0.061335 0)
(1.18911 0.0514186 0)
(1.20258 0.0436487 0)
(1.22197 0.0398391 0)
(1.23024 0.0360459 0)
(1.24264 0.0347443 0)
(1.24738 0.032626 0)
(1.25584 0.0318287 0)
(1.25869 0.0305326 0)
(1.26477 0.0301419 0)
(1.26637 0.0291064 0)
(1.27079 0.0289567 0)
(1.2716 0.0280814 0)
(0.9668 0.214207 0)
(0.993492 0.200985 5.11233e-25)
(1.05707 0.206248 9.05984e-21)
(1.05506 0.190672 -6.00911e-21)
(1.12185 0.19844 -3.63681e-22)
(0.975804 0.19283 -8.65221e-21)
(1.03075 0.194582 2.03438e-21)
(1.04766 0.191975 -3.95931e-21)
(1.08674 0.186235 4.1267e-21)
(1.09031 0.180647 -1.72105e-21)
(0.996836 0.173984 1.4929e-21)
(1.04459 0.177281 -1.74778e-21)
(1.04695 0.162909 -2.77971e-21)
(1.09756 0.165078 -3.52777e-21)
(1.07971 0.147202 0)
(1.01876 0.15667 5.16169e-21)
(1.04661 0.159368 1.14471e-21)
(1.05763 0.145666 2.31349e-21)
(1.08853 0.15118 -1.82794e-21)
(1.08562 0.129188 3.90455e-23)
(1.03285 0.139892 0)
(1.05081 0.140646 -2.05644e-21)
(1.06483 0.128607 8.13386e-25)
(1.08064 0.132027 1.60355e-21)
(1.08948 0.111856 0)
(1.04325 0.123797 5.90357e-23)
(1.05728 0.122845 8.79939e-22)
(1.06927 0.112561 -3.27505e-23)
(1.07866 0.114036 4.19316e-23)
(1.08837 0.0980107 1.18817e-22)
(1.05272 0.109518 -2.56183e-21)
(1.06416 0.107113 0)
(1.07358 0.0987423 4.24695e-22)
(1.08001 0.0978917 -2.00694e-22)
(1.08746 0.0865735 -1.17155e-22)
(1.06409 0.093678 2.20727e-21)
(1.07298 0.0905713 -1.86066e-21)
(1.08037 0.0842448 -3.70091e-22)
(1.08426 0.0818723 7.3437e-22)
(1.08944 0.0743596 -1.15641e-22)
(1.07231 0.0849667 1.44131e-22)
(1.07901 0.0814039 1.47812e-21)
(1.08548 0.0762565 -9.99698e-22)