/*--------------------------------*- C++ -*----------------------------------*\
| =========                 |                                                 |
| \\      /  F ield         | OpenFOAM: The Open Source CFD Toolbox           |
|  \\    /   O peration     | Version:  2512                                  |
|   \\  /    A nd           | Website:  www.openfoam.com                      |
|    \\/     M anipulation  |                                                 |
\*---------------------------------------------------------------------------*/
FoamFile
{
    version     2.0;
    format      ascii;
    arch        "LSB;label=32;scalar=64";
    class       volVectorField;
    location    "88.25";
    object      U;
}
// * * * * * * * * * * * * * * * * * * * * * * * * * * * * * * * * * * * * * //

dimensions      [0 1 -1 0 0 0 0];

internalField   nonuniform List<vector> 
13248
(
(-0.0128882 0.00822145 3.89185e-20)
(-0.0285813 0.0111767 0)
(-0.0383823 0.00602272 -6.82438e-20)
(-0.0372446 -0.00111812 6.31933e-20)
(-0.0209312 -0.00810895 5.85227e-20)
(0.0140231 -0.0143241 0)
(0.0702658 -0.0192344 0)
(0.149055 -0.022135 1.32759e-19)
(0.249416 -0.0224049 -2.69963e-21)
(0.367841 -0.0195017 -1.09474e-19)
(0.49848 -0.0131592 9.3934e-20)
(0.633973 -0.00355922 -5.76358e-20)
(0.766589 0.00863934 0)
(0.889321 0.0223924 -8.15041e-20)
(0.996682 0.036459 1.46303e-19)
(1.08507 0.0495847 -3.38028e-20)
(1.15312 0.0606771 -5.28313e-20)
(1.20096 0.0689253 4.9254e-20)
(1.23105 0.0740901 0)
(1.24671 0.0751973 0)
(1.25054 0.075272 0)
(1.25199 0.0679213 0)
(1.24416 0.067343 1.26715e-20)
(1.24633 0.0499151 4.47822e-20)
(-0.0168811 0.0119066 -1.17181e-19)
(-0.0319487 0.0196056 7.44046e-20)
(-0.0321294 0.0176872 -9.06644e-23)
(-0.0143117 0.0120385 -9.56031e-20)
(0.0249227 0.00553954 -5.84371e-20)
(0.0885542 -0.00016397 -5.40383e-20)
(0.178112 -0.00373039 -9.76236e-20)
(0.292402 -0.00417761 9.07654e-20)
(0.426586 -0.000860275 0)
(0.572435 0.00633341 1.54418e-21)
(0.719777 0.0168609 3.38924e-21)
(0.858463 0.0296071 5.78731e-20)
(0.980103 0.0431324 0)
(1.07916 0.0559676 0)
(1.15333 0.0669169 5.28647e-20)
(1.20339 0.0751249 -9.81939e-20)
(1.23249 0.0803797 5.36582e-20)
(1.24562 0.0825943 -5.00279e-20)
(1.24819 0.0824163 -2.1028e-20)
(1.24524 0.0801791 -3.57366e-20)
(1.24135 0.0764048 -1.41178e-20)
(1.23809 0.0714379 -2.59193e-20)
(1.23556 0.0662358 3.892e-20)
(1.2377 0.0573127 1.0838e-20)
(-0.0186228 0.0125551 0)
(-0.0298798 0.0214659 0)
(-0.0173769 0.0212112 3.43848e-20)
(0.0209505 0.0169507 3.15373e-20)
(0.0878932 0.0120927 -4.95418e-22)
(0.185151 0.00907631 -5.46229e-20)
(0.311336 0.00964937 0)
(0.460162 0.0147467 -4.47911e-20)
(0.620568 0.0242769 4.02812e-20)
(0.779022 0.0371284 -1.39132e-22)
(0.922719 0.0515095 -6.36317e-20)
(1.04218 0.0654631 -5.43059e-20)
(1.13255 0.0773458 3.20701e-21)
(1.19366 0.0861491 -3.81554e-20)
(1.2292 0.0915559 9.49951e-20)
(1.24525 0.0938776 0)
(1.24876 0.0937936 -5.36855e-20)
(1.24594 0.091913 2.60567e-20)
(1.2412 0.0893381 2.10068e-20)
(1.23728 0.0851974 0)
(1.23386 0.0821931 1.60602e-20)
(1.23175 0.0757285 -5.40951e-20)
(1.2279 0.0731753 5.05165e-20)
(1.22553 0.0643136 3.04479e-20)
(-0.0184216 0.0112055 -4.05175e-20)
(-0.0219439 0.0184099 -3.85951e-20)
(0.00750825 0.018426 3.49435e-20)
(0.071499 0.0158113 0)
(0.171742 0.0143745 0)
(0.306754 0.0169586 -2.73952e-22)
(0.468851 0.0250257 0)
(0.643736 0.0382746 -1.32717e-19)
(0.813863 0.0548138 1.20161e-19)
(0.963404 0.0719446 -1.44475e-19)
(1.08196 0.0871065 3.16952e-20)
(1.16593 0.0985704 0)
(1.21779 0.105715 4.67327e-20)
(1.24415 0.108893 -8.41082e-20)
(1.25329 0.109054 1.97531e-20)
(1.25291 0.10731 4.54838e-20)
(1.24862 0.104477 -3.9148e-21)
(1.24351 0.101255 -4.91288e-20)
(1.23869 0.0974538 0)
(1.2339 0.0936275 0)
(1.22898 0.0891684 -1.54714e-20)
(1.22397 0.0838343 1.34428e-20)
(1.21816 0.0802081 4.58556e-20)
(1.21462 0.0713031 -4.2806e-20)
(-0.0163438 0.00879894 -4.19389e-20)
(-0.00704889 0.0125807 -3.89336e-20)
(0.0452861 0.0125458 1.07754e-19)
(0.14148 0.0129172 -6.49735e-20)
(0.280243 0.0177017 6.01878e-20)
(0.453043 0.0292522 1.08371e-19)
(0.642235 0.0471801 -7.48522e-20)
(0.825443 0.0686234 -8.74364e-20)
(0.983043 0.0896998 3.39716e-21)
(1.10348 0.107107 1.07881e-19)
(1.18448 0.119065 0)
(1.23118 0.125448 2.68893e-20)
(1.25266 0.127302 0)
(1.25849 0.126138 -3.98334e-20)
(1.25634 0.123324 5.51517e-20)
(1.25096 0.119724 3.45443e-22)
(1.24459 0.115829 -1.32866e-20)
(1.23801 0.111586 2.36029e-20)
(1.2314 0.107259 1.9972e-20)
(1.22505 0.102391 -1.73101e-20)
(1.21912 0.0976336 1.54645e-20)
(1.21394 0.0920049 -1.34367e-20)
(1.20888 0.0877108 0)
(1.20555 0.0798039 -9.71935e-21)
(-0.0119808 0.00590925 4.19284e-20)
(0.0165165 0.0059701 4.03737e-20)
(0.0990581 0.00707389 -3.60272e-20)
(0.233908 0.0130897 6.59378e-20)
(0.41278 0.0274721 -6.10779e-20)
(0.615456 0.0502164 5.42838e-20)
(0.81394 0.0774345 -2.55616e-20)
(0.983371 0.103683 6.58294e-20)
(1.11002 0.124608 -4.03838e-20)
(1.19247 0.13826 6.76115e-20)
(1.23809 0.144972 -1.52113e-19)
(1.25794 0.146429 5.43615e-20)
(1.26251 0.144608 -4.47668e-20)
(1.2594 0.141078 4.16745e-20)
(1.25301 0.136762 3.36973e-20)
(1.2455 0.132119 2.80127e-20)
(1.23785 0.127244 -7.74303e-20)
(1.23052 0.122303 4.71849e-20)
(1.2238 0.117142 -1.99689e-20)
(1.21768 0.112019 5.01469e-20)
(1.212 0.106715 -1.623e-20)
(1.20657 0.101187 -3.69945e-20)
(1.20099 0.096459 3.36569e-20)
(1.19607 0.0889317 9.71623e-21)
(-0.00445071 0.00292165 0)
(0.0507764 0.000177364 2.74508e-22)
(0.170956 0.00502583 7.43179e-20)
(0.348198 0.0203359 -6.85266e-20)
(0.561703 0.0469436 -6.08538e-20)
(0.777836 0.0803319 1.11101e-19)
(0.964302 0.11306 -5.07299e-20)
(1.103 0.139119 6.53351e-20)
(1.19206 0.155999 -2.14985e-21)
(1.24047 0.164304 -3.52413e-20)
(1.26109 0.166273 7.31803e-20)
(1.26545 0.164344 -1.05577e-19)
(1.26164 0.160362 0)
(1.25436 0.155421 -1.92033e-20)
(1.24599 0.150084 -4.92736e-20)
(1.23765 0.144578 1.55445e-20)
(1.22976 0.139046 8.62785e-22)
(1.22242 0.133451 -3.01735e-20)
(1.2155 0.127885 2.91239e-21)
(1.2089 0.122225 3.40383e-20)
(1.20259 0.116516 -1.44203e-20)
(1.19665 0.1108 -5.02794e-21)
(1.19093 0.105252 1.61894e-20)
(1.18619 0.0982399 0)
(0.00727262 0.000115159 0)
(0.0973955 -0.00329713 2.04e-20)
(0.261033 0.00911674 -9.63384e-20)
(0.478876 0.0372322 3.44554e-20)
(0.713609 0.0763881 -3.19145e-20)
(0.923192 0.116885 -2.83537e-20)
(1.08138 0.150066 -4.87541e-20)
(1.18336 0.172072 2.4398e-20)
(1.23882 0.183406 2.06189e-20)
(1.26248 0.186788 0)
(1.26762 0.185224 4.28884e-20)
(1.26351 0.181008 -6.1757e-20)
(1.25557 0.175545 4.53621e-20)
(1.24655 0.169578 1.92117e-20)
(1.2376 0.163438 -1.48503e-20)
(1.22908 0.157271 -1.16177e-20)
(1.22103 0.151088 -1.05291e-20)
(1.21344 0.14493 3.25655e-20)
(1.20632 0.138751 0)
(1.19972 0.132611 1.49639e-20)
(1.1936 0.126504 1.17569e-20)
(1.18783 0.120489 -2.99288e-20)
(1.18222 0.11448 -1.92552e-20)
(1.17685 0.108074 1.76665e-20)
(0.024023 -0.00193431 -2.37192e-20)
(0.156892 -0.00261965 -8.68173e-22)
(0.366373 0.021653 1.95961e-20)
(0.616184 0.0645445 5.36656e-20)
(0.85429 0.113714 1.50081e-20)
(1.041 0.156392 -2.86458e-20)
(1.16411 0.185973 2.57862e-20)
(1.2322 0.20217 -2.19421e-20)
(1.26197 0.208071 3.79088e-20)
(1.26926 0.20743 1.54876e-20)
(1.26536 0.20323 -4.34216e-20)
(1.25691 0.197349 1.24305e-20)
(1.24715 0.190778 2.03281e-20)
(1.23742 0.183961 -1.00399e-20)
(1.22812 0.177081 0)
(1.21936 0.170196 1.37865e-20)
(1.21118 0.163355 2.22864e-20)
(1.20358 0.156563 3.19157e-21)
(1.19651 0.149864 -1.78546e-20)
(1.18989 0.14325 7.08163e-21)
(1.18362 0.136735 0)
(1.17762 0.130336 -5.16793e-21)
(1.17182 0.123846 -4.76506e-21)
(1.16642 0.117688 0)
(0.0462056 -0.0024768 0)
(0.22823 0.00413325 1.15225e-20)
(0.481037 0.0441515 2.0972e-20)
(0.748839 0.101267 -5.46399e-20)
(0.973838 0.156045 1.73877e-20)
(1.12896 0.196496 0)
(1.21781 0.220174 2.41993e-20)
(1.25844 0.23021 -3.31869e-20)
(1.27013 0.231298 -1.88077e-20)
(1.26726 0.227423 8.34389e-21)
(1.25841 0.221176 -1.24941e-20)
(1.24778 0.213935 3.03879e-20)
(1.23711 0.206326 1.45414e-20)
(1.22696 0.198613 -1.03244e-20)
(1.21749 0.190906 -1.24026e-21)
(1.2087 0.183268 -2.55994e-20)
(1.20054 0.175724 1.14286e-20)
(1.19295 0.168306 -3.28065e-22)
(1.18589 0.161014 0)
(1.17933 0.153871 -7.08866e-21)
(1.17322 0.146892 0)
(1.16742 0.140035 1.46623e-20)
(1.16183 0.133226 -1.69121e-20)
(1.15631 0.127274 7.51576e-21)
(0.0737231 -0.000626098 -6.6121e-21)
(0.308623 0.0187345 -2.92136e-20)
(0.597112 0.0769307 3.27456e-20)
(0.867475 0.145357 1.86076e-20)
(1.06817 0.201065 -8.83029e-21)
(1.18973 0.236211 1.39678e-20)
(1.24894 0.253001 -6.78489e-21)
(1.26898 0.257165 1.0739e-20)
(1.2687 0.254121 0)
(1.25981 0.247567 2.27809e-20)
(1.24825 0.239537 -1.14127e-21)
(1.23649 0.23097 -1.75962e-20)
(1.22535 0.222258 7.27813e-21)
(1.21503 0.213564 -7.8826e-21)
(1.2055 0.204964 -2.75021e-21)
(1.19668 0.196495 3.39551e-21)
(1.18855 0.188189 -2.4322e-21)
(1.18106 0.180065 -1.28017e-20)
(1.17417 0.172152 7.73411e-21)
(1.16778 0.164466 1.47943e-21)
(1.16178 0.156991 1.24981e-21)
(1.15603 0.149681 1.05373e-21)
(1.15045 0.142581 0)
(1.14503 0.136423 0)
(0.105914 0.00452907 6.62012e-21)
(0.393835 0.0423978 -6.1036e-21)
(0.706684 0.119134 -1.09384e-20)
(0.966448 0.194686 0)
(1.13734 0.247378 -4.35448e-21)
(1.22752 0.275366 -3.76807e-21)
(1.26293 0.28505 -6.18148e-21)
(1.26836 0.28383 0)
(1.26046 0.277165 0)
(1.24811 0.268193 0)
(1.23513 0.258412 0)
(1.22282 0.248436 0)
(1.21148 0.238498 -4.49787e-21)
(1.20111 0.228698 2.01176e-21)
(1.19161 0.219086 3.37727e-21)
(1.18292 0.209697 1.55832e-21)
(1.17497 0.200554 3.65781e-21)
(1.1677 0.19168 0)
(1.16104 0.183088 -7.89332e-22)
(1.15491 0.174784 -7.45329e-22)
(1.14922 0.166748 -1.25177e-21)
(1.14382 0.158959 -1.05539e-21)
(1.1386 0.151542 0)
(1.1335 0.14502 6.52486e-22)
(0.00466268 -0.149253 7.46885e-21)
(0.00410605 -0.305651 -7.09503e-21)
(-0.0108808 -0.371352 -1.31262e-20)
(-0.0337158 -0.38646 0)
(-0.0599551 -0.378794 -1.73052e-20)
(-0.0871445 -0.363042 5.49016e-21)
(-0.113817 -0.343929 -1.00958e-20)
(-0.138996 -0.321046 0)
(-0.161979 -0.292444 0)
(-0.182211 -0.256331 0)
(-0.199259 -0.211527 0)
(-0.212835 -0.157506 0)
(-0.222795 -0.094366 5.64469e-22)
(-0.229316 -0.0227374 -7.51165e-21)
(-0.232343 0.0569871 1.33254e-20)
(-0.231788 0.142881 1.90834e-20)
(-0.228013 0.233263 5.24093e-21)
(-0.220966 0.32614 0)
(-0.21065 0.419127 5.04484e-21)
(-0.197239 0.509437 -1.31277e-20)
(-0.181183 0.594036 -7.42423e-21)
(-0.16283 0.670051 -6.47829e-21)
(-0.144321 0.735389 0)
(-0.123031 0.788978 0)
(0.0115918 -0.142576 -2.19448e-20)
(0.0141963 -0.285619 3.49892e-20)
(-0.00430998 -0.341885 -1.23385e-20)
(-0.0327531 -0.351311 -2.36665e-20)
(-0.0652189 -0.340771 3.33007e-20)
(-0.0990843 -0.324124 -2.07648e-20)
(-0.132993 -0.30564 2.93482e-20)
(-0.166098 -0.284673 1.75543e-20)
(-0.197749 -0.259163 0)
(-0.227341 -0.227232 -1.77194e-20)
(-0.25429 -0.187571 -6.35032e-22)
(-0.278084 -0.139468 1.55156e-20)
(-0.298356 -0.0827458 2.05698e-20)
(-0.314108 -0.0175164 2.64115e-20)
(-0.325366 0.0553741 -1.3295e-20)
(-0.332585 0.134418 -3.5326e-20)
(-0.33509 0.218043 9.30503e-21)
(-0.332663 0.304253 -3.65154e-20)
(-0.325061 0.390698 0)
(-0.312113 0.474734 8.41075e-21)
(-0.293661 0.553554 7.4147e-21)
(-0.269131 0.624293 6.46977e-21)
(-0.238181 0.684127 0)
(-0.201465 0.731609 0)
(0.0174742 -0.13084 0)
(0.0230487 -0.258322 6.40878e-20)
(0.00272044 -0.305924 -2.38545e-20)
(-0.0289399 -0.310754 2.2818e-20)
(-0.0648961 -0.297775 -6.07082e-20)
(-0.102323 -0.280037 0)
(-0.13993 -0.261674 -3.58963e-20)
(-0.176985 -0.242093 1.57848e-20)
(-0.212898 -0.219269 -2.99376e-20)
(-0.247062 -0.191316 1.23289e-20)
(-0.278822 -0.156877 8.16945e-20)
(-0.307456 -0.115097 -3.78216e-20)
(-0.331966 -0.0655209 -6.12969e-20)
(-0.351798 -0.00826512 -2.01905e-20)
(-0.366666 0.0554445 6.43773e-22)
(-0.375964 0.124819 7.51176e-20)
(-0.378959 0.198323 -3.45675e-20)
(-0.375023 0.27402 3.63749e-21)
(-0.363499 0.349604 0)
(-0.343728 0.422463 -2.07586e-20)
(-0.31523 0.489815 0)
(-0.277468 0.548953 -1.91437e-20)
(-0.228619 0.597324 6.30735e-20)
(-0.167072 0.633424 -1.21579e-21)
(0.0218944 -0.116004 0)
(0.0301214 -0.227105 -1.53013e-21)
(0.00953784 -0.266955 2.16489e-20)
(-0.0231218 -0.268141 -1.98714e-20)
(-0.0599614 -0.253109 1.97931e-20)
(-0.0978639 -0.234085 1.04951e-19)
(-0.135518 -0.215303 -3.28447e-20)
(-0.172265 -0.19647 -2.93133e-20)
(-0.207577 -0.175735 5.70291e-20)
(-0.240871 -0.151272 -8.05361e-20)
(-0.271432 -0.121724 2.28492e-20)
(-0.298387 -0.086214 2.1045e-20)
(-0.320907 -0.0443504 0)
(-0.338252 0.00355959 2.05516e-20)
(-0.349588 0.0570386 0)
(-0.353998 0.115236 2.73356e-20)
(-0.350583 0.176782 -5.21513e-20)
(-0.338453 0.239897 1.65142e-20)
(-0.31677 0.302432 4.25298e-20)
(-0.284711 0.361961 2.07374e-20)
(-0.241331 0.415838 0)
(-0.186724 0.461548 -4.17611e-20)
(-0.121033 0.496705 1.39052e-20)
(-0.0340363 0.518415 0)
(0.0246479 -0.0998242 0)
(0.0348572 -0.194718 -6.8788e-20)
(0.0149851 -0.227903 -2.04256e-20)
(-0.0170945 -0.226625 -3.85845e-20)
(-0.0528369 -0.210383 3.57536e-20)
(-0.0887574 -0.190425 -3.41524e-20)
(-0.123431 -0.171147 6.06441e-20)
(-0.156232 -0.152727 2.88615e-20)
(-0.186697 -0.133637 -7.89764e-20)
(-0.214284 -0.112193 4.69237e-20)
(-0.238347 -0.0871 -6.57789e-20)
(-0.258109 -0.0576229 1.32834e-19)
(-0.272712 -0.0234162 -7.17922e-20)
(-0.281256 0.0155 2.92651e-20)
(-0.282806 0.0587762 7.96886e-20)
(-0.276404 0.105641 -3.05903e-20)
(-0.261116 0.154929 -2.23273e-20)
(-0.236053 0.205096 -2.16167e-20)
(-0.200358 0.254288 0)
(-0.153539 0.30039 -2.54833e-20)
(-0.0952581 0.341321 -2.04241e-20)
(-0.0227576 0.373759 3.23811e-20)
(0.0516221 0.399324 3.824e-20)
(0.163223 0.404462 -3.35661e-20)
(0.0256309 -0.0835277 0)
(0.0366612 -0.163006 -8.46021e-20)
(0.0176656 -0.190761 1.38038e-21)
(-0.0131001 -0.188468 7.31529e-20)
(-0.0466702 -0.172422 0)
(-0.079185 -0.152624 0)
(-0.109038 -0.133495 0)
(-0.135603 -0.115745 -2.63722e-20)
(-0.158517 -0.0983169 9.76007e-22)
(-0.177333 -0.0797595 4.36584e-20)
(-0.191522 -0.0589857 -5.9565e-20)
(-0.200414 -0.0351803 8.43296e-22)
(-0.203189 -0.00795046 0)
(-0.199092 0.0227052 -2.92504e-20)
(-0.187316 0.0564787 1.93836e-20)
(-0.167063 0.0927421 -6.05421e-20)
(-0.137603 0.130533 6.72071e-20)
(-0.0983435 0.16858 8.11798e-21)
(-0.0490935 0.205449 -4.90997e-21)
(0.0121602 0.23877 -4.29296e-20)
(0.0789356 0.268968 -1.6052e-20)
(0.167762 0.287966 5.42574e-20)
(0.240938 0.308261 -3.43975e-20)
(0.366892 0.299345 0)
(0.0247163 -0.0676877 4.17051e-20)
(0.0348997 -0.132792 4.17852e-20)
(0.0162169 -0.156413 -3.6872e-20)
(-0.0132685 -0.154747 -6.92064e-20)
(-0.0444656 -0.140776 6.41272e-20)
(-0.0732449 -0.122979 -5.83335e-20)
(-0.0978081 -0.105529 8.04013e-20)
(-0.1175 -0.0895529 -2.58612e-20)
(-0.132038 -0.07452 4.49725e-20)
(-0.141225 -0.0594069 0)
(-0.144607 -0.0431534 3.23703e-20)
(-0.14162 -0.0249405 -6.20234e-20)
(-0.131773 -0.00443816 5.32371e-20)
(-0.114504 0.0184308 -4.9553e-20)
(-0.0892711 0.0434711 0)
(-0.0556058 0.0702283 3.48107e-20)
(-0.0131308 0.0979008 5.20101e-20)
(0.0386966 0.125533 -5.05315e-20)
(0.097756 0.152091 -1.86121e-20)
(0.171895 0.174728 -1.6517e-20)
(0.24034 0.19721 4.61367e-20)
(0.344666 0.205551 1.2102e-20)
(0.410233 0.222736 -1.11299e-20)
(0.550838 0.206045 1.19431e-20)
(0.0217195 -0.0523579 -4.17153e-20)
(0.029064 -0.104067 1.16382e-19)
(0.00977951 -0.124711 -3.53216e-20)
(-0.018825 -0.125185 6.64225e-20)
(-0.0479142 -0.115204 -6.15474e-20)
(-0.0732972 -0.101547 -4.63314e-22)
(-0.0930409 -0.0878458 2.55261e-20)
(-0.106434 -0.0754022 9.0081e-20)
(-0.11328 -0.0641265 -2.8024e-21)
(-0.113377 -0.0532783 -3.9949e-20)
(-0.106458 -0.0419347 0)
(-0.0921906 -0.0294788 -2.6108e-20)
(-0.0701992 -0.0154661 5.25786e-20)
(-0.0400999 0.000307072 4.13214e-20)
(-0.00152194 0.0178315 -2.0784e-20)
(0.045787 0.0367785 -1.43979e-21)
(0.101894 0.056512 -1.34758e-20)
(0.167524 0.0765977 2.03332e-20)
(0.239069 0.0955857 1.86133e-20)
(0.328531 0.112251 -1.57304e-20)
(0.403885 0.128722 1.31209e-20)
(0.52938 0.133548 -1.21192e-20)
(0.591371 0.147495 0)
(0.759564 0.131545 -1.19419e-20)
(0.016537 -0.0374254 3.94216e-20)
(0.0191548 -0.0764794 -3.83807e-20)
(-0.00135612 -0.0948573 3.45849e-20)
(-0.0291331 -0.0983826 0)
(-0.0560029 -0.0936498 0)
(-0.0779171 -0.0856949 5.26468e-20)
(-0.0928365 -0.0773797 -5.01781e-20)
(-0.0998696 -0.0698846 4.28546e-20)
(-0.098607 -0.063302 -2.01929e-19)
(-0.0887332 -0.0571096 1.19721e-21)
(-0.0698566 -0.0506367 3.14668e-20)
(-0.0415397 -0.0432364 0)
(-0.00340487 -0.0343585 -4.58162e-20)
(0.0448478 -0.023677 8.14123e-20)
(0.103277 -0.0110958 -5.37975e-20)
(0.17178 0.00315484 -6.88492e-20)
(0.249858 0.0187007 5.38973e-21)
(0.337038 0.0351548 4.1601e-20)
(0.431098 0.0507679 0)
(0.537236 0.0661911 0)
(0.63366 0.0788982 -1.31243e-20)
(0.767171 0.0868664 1.21223e-20)
(0.840442 0.0960718 -4.92432e-20)
(1.01043 0.088028 4.59065e-20)
(0.00943004 -0.0230389 0)
(0.00615012 -0.0499585 0)
(-0.0151971 -0.0660616 -1.03005e-19)
(-0.040981 -0.072515 3.17189e-20)
(-0.0639842 -0.0730316 4.74079e-22)
(-0.080333 -0.070927 5.29856e-20)
(-0.0877113 -0.0681751 0)
(-0.0847549 -0.0656701 -4.40403e-20)
(-0.0705448 -0.0634896 4.01172e-20)
(-0.044316 -0.0611876 -6.83723e-20)
(-0.00548672 -0.0581107 1.3974e-21)
(0.0462688 -0.0535538 5.22551e-20)
(0.110798 -0.0469526 -3.83005e-21)
(0.18737 -0.0379858 3.43477e-20)
(0.27471 -0.0265525 -5.37996e-20)
(0.371322 -0.0130342 0)
(0.474884 0.00247661 4.55344e-20)
(0.583141 0.0183932 -6.24434e-20)
(0.694888 0.034679 1.80985e-20)
(0.804637 0.0495994 0)
(0.913113 0.0617353 1.45783e-20)
(1.01976 0.0712695 5.32475e-20)
(1.10123 0.0760478 -4.97172e-20)
(1.21346 0.0731239 -6.21817e-20)
(0.00122643 -0.0098535 1.14839e-19)
(-0.0078959 -0.025218 -1.45905e-19)
(-0.0282725 -0.0383423 -3.62596e-23)
(-0.049133 -0.0465626 3.1233e-20)
(-0.064306 -0.0510509 -5.78383e-20)
(-0.0699925 -0.053537 -5.33008e-20)
(-0.063477 -0.0551614 9.58542e-20)
(-0.0427903 -0.0564077 -2.38736e-21)
(-0.00656662 -0.0571105 -8.03885e-20)
(0.0459243 -0.056733 1.39449e-19)
(0.114595 -0.0546 -3.69802e-21)
(0.19834 -0.050072 -5.61274e-20)
(0.295078 -0.0427427 0)
(0.401867 -0.0324883 0)
(0.515104 -0.0194769 -1.70025e-20)
(0.631341 -0.00455706 -2.98589e-20)
(0.74615 0.0120969 -4.80513e-20)
(0.857284 0.0277968 4.47912e-20)
(0.960362 0.0441958 -1.8112e-20)
(1.05267 0.0557856 3.29397e-20)
(1.13582 0.0668832 -1.52033e-20)
(1.19783 0.0710695 2.78675e-20)
(1.25469 0.0720906 -6.53648e-20)
(1.28723 0.0663942 1.22927e-20)
(-0.00664707 0.00091068 3.82396e-20)
(-0.0202215 -0.00414809 0)
(-0.0368447 -0.0134316 6.78261e-20)
(-0.0487541 -0.0217565 -6.28086e-20)
(-0.0507763 -0.0283087 5.791e-20)
(-0.0391887 -0.0334942 0)
(-0.0110322 -0.0376957 0)
(0.0357466 -0.0407964 -4.30776e-20)
(0.102101 -0.0423225 2.75423e-21)
(0.187455 -0.0416747 3.72247e-20)
(0.289543 -0.0382729 -2.98757e-20)
(0.404512 -0.0317348 5.68935e-20)
(0.527339 -0.022027 0)
(0.652461 -0.00953759 7.95544e-20)
(0.774394 0.00498592 -1.42427e-19)
(0.888318 0.0204088 9.35594e-20)
(0.990065 0.0357748 5.08761e-20)
(1.07755 0.0491371 -4.74275e-20)
(1.14729 0.0611658 0)
(1.20224 0.0672968 0)
(1.2378 0.0735271 0)
(1.26086 0.0696083 0)
(1.27317 0.0685459 1.31033e-20)
(1.26741 0.0575846 -4.80667e-20)
(-0.102321 0.834047 -3.15732e-21)
(-0.068887 0.861214 3.16232e-21)
(-0.0211144 0.852238 -8.3957e-23)
(0.0499431 0.797499 0)
(0.146405 0.686324 -2.76943e-21)
(0.265073 0.523923 5.58966e-21)
(0.389512 0.328266 2.06122e-22)
(0.501071 0.115844 -2.93499e-21)
(0.594362 -0.115052 0)
(0.674333 -0.357592 0)
(0.738592 -0.570924 -1.53994e-22)
(0.77856 -0.710929 -1.23969e-22)
(0.796331 -0.765206 -1.45931e-21)
(0.799509 -0.759251 1.32421e-21)
(0.789573 -0.730936 0)
(0.775323 -0.696617 0)
(0.763156 -0.666294 8.13743e-22)
(0.742967 -0.668057 6.92248e-23)
(0.702925 -0.708179 -7.82299e-22)
(0.651394 -0.725457 -6.11291e-23)
(0.614137 -0.629331 0)
(0.610638 -0.388173 0)
(0.635138 -0.063378 0)
(0.678726 0.244959 0)
(0.725799 0.463086 0)
(0.765595 0.581382 0)
(0.796269 0.610318 2.17785e-22)
(0.825 0.597366 -3.50693e-22)
(0.835142 0.606324 0)
(0.816561 0.655333 0)
(0.773396 0.677794 -2.85163e-22)
(0.71946 0.604868 2.77091e-22)
(0.678332 0.411132 1.97779e-22)
(0.663111 0.134576 0)
(0.674075 -0.145445 0)
(0.702714 -0.358921 2.5996e-22)
(0.739273 -0.466937 -2.52657e-22)
(0.767372 -0.512001 0)
(0.742091 -0.529889 1.30411e-22)
(0.681853 -0.5352 -1.8656e-22)
(0.620815 -0.454719 6.37915e-23)
(0.592801 -0.286875 0)
(0.613989 -0.055795 -1.37611e-22)
(0.660072 0.146162 1.33805e-22)
(0.700003 0.295756 0)
(0.691385 0.419969 0)
(0.674845 0.462701 -4.15909e-23)
(0.65209 0.424961 1.263e-22)
(0.663831 0.246946 0)
(0.666817 0.0375786 0)
(0.683287 -0.193558 -3.25384e-23)
(0.662492 -0.387074 -1.40189e-24)
(0.653916 -0.38644 -2.87146e-24)
(0.642686 -0.340118 1.76443e-23)
(0.644787 -0.115105 0)
(0.64712 0.0933864 0)
(0.658527 0.22783 0)
(0.634953 0.521577 0)
(0.651351 0.267269 0)
(0.608442 -0.0816361 0)
(-0.156039 0.771355 -2.65482e-22)
(-0.0788952 0.785743 -1.08434e-20)
(0.0113488 0.758273 -8.15094e-23)
(0.123448 0.683955 1.02216e-20)
(0.252733 0.559837 1.71991e-22)
(0.390352 0.39658 0)
(0.519325 0.216285 -1.23578e-20)
(0.627786 0.0267824 2.48467e-20)
(0.719252 -0.187304 -1.24885e-20)
(0.798253 -0.419147 1.09574e-20)
(0.855571 -0.618252 -1.04859e-20)
(0.880153 -0.738779 7.12122e-21)
(0.876182 -0.775225 -6.94207e-21)
(0.857795 -0.755499 -1.497e-22)
(0.829648 -0.718112 -3.63034e-21)
(0.798363 -0.681366 3.52575e-21)
(0.772588 -0.648958 -3.06628e-21)
(0.74304 -0.641557 2.88865e-21)
(0.693809 -0.670942 -3.54202e-21)
(0.630432 -0.688643 7.55868e-21)
(0.577213 -0.60903 -3.99041e-21)
(0.557422 -0.392064 -2.94444e-22)
(0.574655 -0.0897493 -5.2173e-21)
(0.619745 0.206196 9.62858e-21)
(0.673339 0.426385 -4.43017e-21)
(0.723569 0.553198 1.85072e-22)
(0.769392 0.589388 2.30526e-21)
(0.811614 0.585342 -1.81814e-22)
(0.834704 0.606795 -3.71164e-21)
(0.828633 0.66875 3.81854e-21)
(0.799116 0.700887 -1.96556e-21)
(0.75727 0.630844 3.48907e-22)
(0.725149 0.430125 -1.98198e-22)
(0.713613 0.140215 4.62712e-22)
(0.722518 -0.15206 0)
(0.741034 -0.37322 0)
(0.7627 -0.481209 -8.22239e-22)
(0.783277 -0.513806 6.27565e-22)
(0.753468 -0.514699 3.66049e-22)
(0.688154 -0.513209 5.06988e-23)
(0.621437 -0.439149 -5.21113e-22)
(0.593634 -0.286507 1.13824e-22)
(0.613981 -0.0687643 0)
(0.658647 0.13094 0)
(0.69497 0.28983 0)
(0.686993 0.423299 0)
(0.674356 0.467932 1.64e-22)
(0.652325 0.42787 -8.59384e-23)
(0.667627 0.246079 0)
(0.673976 0.0350141 0)
(0.693133 -0.192398 0)
(0.668616 -0.384205 -5.04393e-23)
(0.65493 -0.384092 1.54826e-23)
(0.644482 -0.33959 -4.00836e-23)
(0.645401 -0.115459 0)
(0.646397 0.091679 0)
(0.658649 0.227614 1.83309e-23)
(0.641204 0.521742 5.35478e-23)
(0.661371 0.271394 0)
(0.612103 -0.0776895 0)
(-0.0996003 0.666148 -1.12331e-24)
(0.0026046 0.669569 -1.89067e-20)
(0.117995 0.633282 2.07196e-20)
(0.248736 0.553198 -1.93529e-20)
(0.388019 0.429248 -1.7322e-22)
(0.525356 0.276119 0)
(0.645128 0.118283 -2.53846e-20)
(0.743569 -0.0450246 2.48468e-20)
(0.832951 -0.239866 1.94556e-22)
(0.9129 -0.457092 3.52992e-22)
(0.963203 -0.638343 3.04338e-22)
(0.972471 -0.739018 2.52162e-22)
(0.948602 -0.761905 -1.11712e-20)
(0.910934 -0.736011 1.09991e-20)
(0.868869 -0.695922 0)
(0.824421 -0.660195 1.94533e-22)
(0.786294 -0.627516 -5.65873e-21)
(0.750283 -0.610651 5.58548e-21)
(0.695969 -0.628736 0)
(0.622291 -0.649245 0)
(0.555358 -0.590364 -8.36898e-21)
(0.52151 -0.401052 1.74868e-20)
(0.528957 -0.122586 -1.77235e-20)
(0.571225 0.161123 9.99734e-22)
(0.628299 0.382656 1.39761e-20)
(0.686927 0.517105 -1.15157e-20)
(0.745781 0.561474 8.73211e-21)
(0.80046 0.56678 -5.56416e-22)
(0.836993 0.599008 -3.52017e-21)
(0.844453 0.673685 0)
(0.829682 0.719492 0)
(0.800415 0.657075 2.5429e-21)
(0.77744 0.45302 -3.16364e-21)
(0.76988 0.153391 2.46197e-23)
(0.776613 -0.148621 3.20605e-21)
(0.786001 -0.377233 -3.11513e-21)
(0.79158 -0.489006 0)
(0.803761 -0.513535 1.72299e-22)
(0.771298 -0.498788 1.05645e-21)
(0.701836 -0.491043 -1.92042e-21)
(0.628821 -0.425222 7.99804e-22)
(0.600529 -0.288406 6.99221e-23)
(0.619058 -0.0832192 -8.98858e-22)
(0.661553 0.115911 7.09887e-22)
(0.694651 0.283725 1.35637e-22)
(0.687541 0.426075 1.41282e-22)
(0.67797 0.473048 -1.64441e-22)
(0.655683 0.431146 0)
(0.67403 0.24577 0)
(0.684162 0.0328135 -8.33055e-22)
(0.70674 -0.189631 3.84379e-22)
(0.678806 -0.380038 -2.75736e-22)
(0.659366 -0.381699 2.70235e-22)
(0.649353 -0.339597 2.1611e-22)
(0.649321 -0.116702 -7.64086e-23)
(0.648486 0.090372 6.03748e-23)
(0.661718 0.226087 -5.16381e-23)
(0.650231 0.520821 1.34917e-23)
(0.674063 0.276297 0)
(0.618902 -0.0730602 0)
(0.0418024 0.542704 -3.30288e-20)
(0.151773 0.540311 -3.06719e-21)
(0.273666 0.503111 3.40893e-20)
(0.404537 0.426994 -3.19339e-22)
(0.538336 0.312091 0)
(0.663849 0.174926 0)
(0.767444 0.039079 -4.97663e-20)
(0.854185 -0.103475 -1.82471e-21)
(0.942272 -0.28401 7.18948e-20)
(1.02277 -0.485654 -2.14926e-21)
(1.06433 -0.645577 -2.07886e-20)
(1.05672 -0.724781 -1.35276e-20)
(1.01415 -0.735046 1.35901e-20)
(0.95892 -0.706364 0)
(0.905502 -0.666407 -6.8738e-21)
(0.853082 -0.633364 6.29324e-21)
(0.804712 -0.604001 0)
(0.762148 -0.580027 0)
(0.707081 -0.582974 5.08608e-21)
(0.62859 -0.601247 7.63899e-22)
(0.549512 -0.564973 -5.32634e-21)
(0.501996 -0.409858 -7.63374e-21)
(0.498362 -0.159075 7.59491e-21)
(0.533816 0.111239 -6.98721e-21)
(0.590556 0.33283 1.19549e-21)
(0.655128 0.473818 5.3988e-21)
(0.725126 0.526187 4.76424e-22)
(0.790699 0.540188 2.7917e-23)
(0.840105 0.58248 0)
(0.862295 0.669466 4.07395e-21)
(0.862572 0.729339 -4.22968e-21)
(0.845639 0.677886 3.65683e-22)
(0.832296 0.476964 0)
(0.829436 0.171559 -4.9327e-22)
(0.834795 -0.138618 6.77244e-21)
(0.837189 -0.373679 -1.0974e-20)
(0.826286 -0.490928 8.74468e-22)
(0.827765 -0.51194 1.05311e-21)
(0.793744 -0.483056 2.1271e-21)
(0.722066 -0.46787 1.96186e-22)
(0.642088 -0.411132 -1.34377e-21)
(0.611771 -0.291695 1.12062e-21)
(0.628006 -0.0990528 4.23569e-23)
(0.66842 0.100193 5.12267e-22)
(0.699004 0.276158 -6.34164e-22)
(0.692474 0.427779 -9.95481e-22)
(0.685225 0.47867 2.61824e-22)
(0.662077 0.435411 9.02941e-22)
(0.682867 0.246233 -1.83002e-21)
(0.697159 0.0306538 1.36499e-21)
(0.723984 -0.185896 -2.78264e-22)
(0.693053 -0.374554 4.84655e-22)
(0.66716 -0.37886 2.75826e-22)
(0.657028 -0.339919 -2.78185e-22)
(0.656457 -0.118744 1.13622e-23)
(0.653328 0.089468 -1.56365e-23)
(0.667546 0.223296 0)
(0.661746 0.518826 -1.54885e-23)
(0.689258 0.281898 2.06887e-22)
(0.628778 -0.0677708 0)
(0.23524 0.422768 2.85495e-20)
(0.338526 0.417065 -5.99014e-20)
(0.452144 0.382274 3.09134e-20)
(0.570863 0.315675 4.02854e-20)
(0.689351 0.215707 -8.31367e-20)
(0.795847 0.0978262 -3.3257e-21)
(0.882421 -0.0182633 4.51234e-20)
(0.962944 -0.14945 4.71596e-20)
(1.05248 -0.320002 -4.61504e-20)
(1.12829 -0.49946 0)
(1.1538 -0.630546 -3.331e-20)
(1.12654 -0.688463 5.88994e-20)
(1.06857 -0.690749 -2.58223e-20)
(1.00149 -0.665405 0)
(0.93976 -0.630888 0)
(0.883194 -0.601723 1.87533e-22)
(0.829163 -0.577759 -9.39817e-21)
(0.780817 -0.551991 9.12458e-21)
(0.726035 -0.541082 0)
(0.647358 -0.552171 9.28693e-21)
(0.558866 -0.534652 -1.9152e-20)
(0.497125 -0.416373 2.17059e-20)
(0.480945 -0.196946 -2.37472e-20)
(0.506792 0.0577395 5.91018e-22)
(0.560352 0.277599 2.02854e-20)
(0.628052 0.423996 -9.20745e-21)
(0.706062 0.484746 -2.21969e-22)
(0.7808 0.506789 -2.71519e-21)
(0.842999 0.5557 -3.18976e-22)
(0.879596 0.653044 3.05238e-21)
(0.894691 0.730956 2.75706e-22)
(0.892077 0.697874 -6.71823e-21)
(0.888813 0.505997 1.44413e-20)
(0.890577 0.19733 -8.70363e-21)
(0.894595 -0.120272 0)
(0.892004 -0.361353 -6.09913e-21)
(0.866061 -0.485338 5.72717e-21)
(0.854847 -0.507718 -2.05698e-21)
(0.819673 -0.467616 2.58738e-21)
(0.748041 -0.444105 -1.55638e-22)
(0.660839 -0.39633 0)
(0.626172 -0.295525 -1.12928e-22)
(0.639669 -0.116497 3.09346e-22)
(0.678434 0.0830387 0)
(0.70771 0.26746 1.00364e-21)
(0.702193 0.428459 -3.58373e-22)
(0.696929 0.483848 3.26816e-22)
(0.672038 0.440128 4.48695e-22)
(0.694319 0.247382 0)
(0.712806 0.0284072 0)
(0.744536 -0.181236 -1.16434e-21)
(0.711289 -0.367542 1.5115e-21)
(0.678185 -0.375407 -6.34787e-22)
(0.667212 -0.34051 1.49882e-22)
(0.66663 -0.121555 8.51763e-23)
(0.660819 0.0888017 1.56533e-23)
(0.675935 0.21923 5.42561e-23)
(0.675437 0.51567 0)
(0.706727 0.28808 -2.74868e-22)
(0.641622 -0.0618584 -1.2953e-22)
(0.431826 0.314686 2.53475e-20)
(0.521068 0.309159 -2.50901e-20)
(0.619019 0.27951 2.53807e-22)
(0.720454 0.224945 -2.59674e-22)
(0.821302 0.142242 3.17899e-22)
(0.911738 0.0426627 -3.4096e-22)
(0.98916 -0.0604102 6.4933e-22)
(1.07192 -0.187556 0)
(1.16234 -0.346506 -6.31771e-22)
(1.22426 -0.498849 5.75968e-22)
(1.228 -0.600393 4.95072e-22)
(1.1819 -0.641444 -4.47571e-22)
(1.11268 -0.640219 0)
(1.03916 -0.619987 0)
(0.972477 -0.592739 2.04289e-22)
(0.913551 -0.567263 0)
(0.856367 -0.547887 -1.33818e-22)
(0.80364 -0.524874 0)
(0.750715 -0.50354 -6.72951e-21)
(0.676841 -0.502417 1.35215e-20)
(0.583477 -0.496839 -1.44308e-20)
(0.506466 -0.415768 7.56651e-21)
(0.475326 -0.232576 9.2708e-21)
(0.489469 0.00393278 -8.99962e-21)
(0.537382 0.21857 -7.65842e-21)
(0.605076 0.368953 7.38563e-21)
(0.688383 0.437161 0)
(0.770664 0.465625 1.28138e-22)
(0.843481 0.520278 0)
(0.894107 0.626957 0)
(0.924759 0.72091 9.24727e-21)
(0.934829 0.707903 -9.43201e-21)
(0.941118 0.532475 8.75329e-22)
(0.949208 0.227623 1.02883e-21)
(0.953327 -0.0956864 -9.49668e-22)
(0.948289 -0.341925 -5.45731e-21)
(0.910129 -0.47262 5.29785e-21)
(0.884337 -0.500974 -2.75183e-21)
(0.847326 -0.453188 2.31855e-21)
(0.778236 -0.419885 2.95902e-22)
(0.68464 -0.379693 -8.5396e-22)
(0.643 -0.298747 7.40072e-23)
(0.652993 -0.134982 4.96066e-22)
(0.690992 0.063981 0)
(0.720623 0.255592 -2.54502e-22)
(0.71582 0.426779 8.27958e-22)
(0.712117 0.489947 -1.01409e-21)
(0.685417 0.446835 -4.51712e-22)
(0.708502 0.249878 0)
(0.731016 0.025982 4.6227e-22)
(0.768113 -0.176018 -9.97998e-22)
(0.733378 -0.358974 1.18355e-23)
(0.692305 -0.371033 -1.59915e-22)
(0.679585 -0.34121 -6.6653e-25)
(0.6796 -0.125062 -3.34823e-23)
(0.670853 0.0882909 0)
(0.68666 0.214047 -5.42883e-23)
(0.690919 0.51153 0)
(0.726194 0.294751 0)
(0.657286 -0.0553815 1.54243e-22)
(0.606197 0.221115 -2.33103e-20)