/*--------------------------------*- C++ -*----------------------------------*\
| =========                 |                                                 |
| \\      /  F ield         | OpenFOAM: The Open Source CFD Toolbox           |
|  \\    /   O peration     | Version:  2312                                  |
|   \\  /    A nd           | Website:  www.openfoam.com                      |
|    \\/     M anipulation  |                                                 |
\*---------------------------------------------------------------------------*/
FoamFile
{
    version     2.0;
    format      ascii;
    arch        "LSB;label=32;scalar=64";
    class       surfaceScalarField;
    location    "22.5";
    object      phi;
}
// * * * * * * * * * * * * * * * * * * * * * * * * * * * * * * * * * * * * * //

dimensions      [0 3 -1 0 0 0 0];

oriented        oriented;

internalField   nonuniform List<scalar> 
10785
(
-0.00027456
0.0021765
-0.00190194
0.000515509
0.00370488
-0.00449495
0.00342349
0.00220239
-0.00511037
0.00974537
-0.00301387
-0.00330802
0.020966
-0.0124355
0.0012148
0.0382096
-0.0258633
0.00861979
0.0616607
-0.042306
0.0188548
0.0905171
-0.0604078
0.0315514
0.123254
-0.0789573
0.0462202
0.158183
-0.0969515
0.0620226
0.192858
-0.11374
0.0790643
0.226856
-0.129117
0.0951201
0.255608
-0.142702
0.11395
0.282268
-0.153959
0.127298
-0.165068
0.150249
0.297087
-0.000390696
0.00256719
0.00089037
0.00242381
0.00592098
-0.00282822
0.0169134
-0.0140063
0.0352181
-0.0307401
0.060363
-0.0510082
0.0903167
-0.0722597
0.122404
-0.0924955
0.153901
-0.110454
0.182627
-0.125677
0.207118
-0.138231
0.226427
-0.148427
0.240719
-0.156993
0.251511
-0.164751
-0.17244
0.258883
6.98221e-05
0.00249737
0.00318446
-0.000690828
0.0124818
-0.0121256
0.0300383
-0.0315629
0.0549332
-0.055635
0.0838389
-0.079914
0.112906
-0.101327
0.138993
-0.118582
0.160287
-0.131749
0.176363
-0.141753
0.187897
-0.149765
0.196607
-0.157137
0.204576
-0.164962
0.213124
-0.173299
-0.183498
0.224182
0.000877827
0.00161954
0.00701725
-0.00683025
0.0219112
-0.0270195
0.0450297
-0.0546814
0.0717984
-0.0824036
0.0972323
-0.105348
0.118117
-0.122211
0.133509
-0.133974
0.144327
-0.142567
0.152483
-0.149909
0.160033
-0.157315
0.168423
-0.165527
0.17767
-0.17421
0.187972
-0.183601
-0.193092
0.197566
0.00199619
-0.00037665
0.012095
-0.0169291
0.031944
-0.0468685
0.0562794
-0.0790167
0.0787287
-0.104853
0.0959278
-0.122547
0.107751
-0.134035
0.115996
-0.142219
0.122814
-0.149385
0.129592
-0.156687
0.13671
-0.164433
0.143642
-0.172459
0.15015
-0.180718
0.155981
-0.189431
-0.198224
0.161113
0.00349496
-0.00387161
0.0176525
-0.0310866
0.0391447
-0.0683607
0.0596528
-0.0995248
0.074868
-0.120068
0.084845
-0.132524
0.0916041
-0.140794
0.0970428
-0.147657
0.102041
-0.154383
0.106716
-0.161362
0.110965
-0.168681
0.114989
-0.176482
0.119137
-0.184866
0.123529
-0.193823
-0.20328
0.128585
0.00539251
-0.00926412
0.0220202
-0.0477144
0.0410666
-0.087407
0.0556171
-0.114075
0.064797
-0.129248
0.0704226
-0.13815
0.0742981
-0.144669
0.0773722
-0.150731
0.0800389
-0.15705
0.082534
-0.163857
0.0850812
-0.171229
0.087742
-0.179143
0.0903501
-0.187474
0.092742
-0.196215
-0.205034
0.0944954
0.00726544
-0.0165296
0.0236555
-0.0641045
0.0381727
-0.101924
0.0473428
-0.123245
0.0522576
-0.134163
0.0548308
-0.140723
0.0563556
-0.146194
0.0574711
-0.151847
0.058415
-0.157994
0.0592106
-0.164652
0.0597675
-0.171786
0.0600107
-0.179386
0.0600387
-0.187502
0.0598538
-0.19603
0.0598917
-0.205072
-0.0039372
-0.000515145
0.00445234
-0.0111716
-0.00119666
0.00843105
-0.0199554
-0.00154329
0.0103271
-0.0296869
-0.0018372
0.0115686
-0.0402411
-0.00212491
0.0126791
-0.051601
-0.00233802
0.0136979
-0.0637481
-0.00242101
0.0145681
-0.0766576
-0.00233475
0.0152442
-0.090301
-0.002049
0.0156924
-0.104648
-0.00154446
0.0158914
-0.119651
-0.000823618
0.0158268
-0.135237
0.000104324
0.0154819
-0.151309
0.00122795
0.0148441
-0.167669
0.00240689
0.0139532
0.00385687
-0.184506
0.0129796
-0.00333169
0.00281654
-0.00962375
0.00509541
-0.0173521
0.00618509
-0.0259123
0.00672299
-0.0351202
0.00708298
-0.044916
0.0074578
-0.0552521
0.00791504
-0.0660725
0.00848565
-0.0773096
0.00918819
-0.088881
0.0100269
-0.100705
0.0110001
-0.112689
0.0120884
-0.124536
0.0130747
-0.136316
0.0141876
0.0146465
-0.147106
-0.0019766
0.00479314
-0.00617252
0.00929133
-0.0115662
0.0115788
-0.017532
0.0126888
-0.0237188
0.0132697
-0.0299224
0.0136614
-0.0359872
0.0139799
-0.041758
0.0142565
-0.0470701
0.0145003
-0.0517446
0.0147014
-0.0554648
0.0147203
-0.0583544
0.014978
-0.0594058
0.0141261
-0.0597601
0.0145419
0.012212
-0.0573256
-0.000437798
0.00523093
-0.002049
0.0109025
-0.00448351
0.0140133
-0.00721738
0.0154227
-0.00977482
0.0158272
-0.0117923
0.0156788
-0.0129937
0.0151813
-0.0131332
0.014396
-0.0119266
0.0132937
-0.00930917
0.012084
-0.00451336
0.00992447
0.00198463
0.00848002
0.0115579
0.00455284
0.0233213
0.00277851
-0.00291844
0.0384517
0.000740914
0.00449002
0.00144082
0.0102026
0.00189999
0.0135542
0.00239745
0.0149252
0.00338566
0.0148389
0.00530626
0.0137582
0.00853324
0.0119544
0.013355
0.00957422
0.0202351
0.00641357
0.0290085
0.00331058
0.0411199
-0.00218699
0.0548351
-0.00523512
0.0741241
-0.0147362
0.0945815
-0.0176789
-0.031763
0.123426
0.00122951
0.00326051
0.00330222
0.00812991
0.00580696
0.0110494
0.00880197
0.0119302
0.0125882
0.0110527
0.0175677
0.00877868
0.0241584
0.0053637
0.0326933
0.00103932
0.0439137
-0.00480687
0.057894
-0.0106697
0.0762751
-0.020568
0.0973395
-0.0262995
0.125212
-0.0426083
0.154242
-0.0467092
-0.0701364
0.192615
0.00100731
0.0022532
0.00320759
0.00592963
0.00636236
0.00789465
0.0104916
0.00780097
0.0158463
0.00569805
0.022887
0.00173791
0.0323462
-0.00409547
0.0450809
-0.0116953
0.0615571
-0.0212831
0.0827014
-0.031814
0.1082
-0.0460669
0.139085
-0.0571844
0.17417
-0.077693
0.213881
-0.0864205
-0.113003
0.256747
0.000351267
0.00178595
0.00457022
0.00906317
0.015976
0.0263337
0.0410931
0.0609491
0.0858862
0.116095
0.149092
0.187028
0.223285
0.264163
0.301409
-0.195895
-0.011232
0.0226213
-0.197579
-0.0142728
0.0159565
-0.194732
-0.0105878
0.00774114
-0.182053
-0.010994
-0.00168512
-0.16221
-0.00466932
-0.015174
-0.131816
-0.00883159
-0.0215619
-0.0885366
-0.0121001
-0.0311797
-0.033255
-0.0137858
-0.0414957
0.0273453
-0.00863124
-0.051969
0.0831657
-0.00157568
-0.0542448
0.1296
0.0123389
-0.0587727
0.166083
0.0152905
-0.0517744
0.193187
0.0290908
-0.0561941
0.21351
0.0241989
-0.0445226
0.228743
0.0399897
-0.0552222
0.240365
0.029086
-0.040708
0.249273
0.0484099
-0.0573183
0.255768
0.0360773
-0.0425721
0.260702
0.0510958
-0.0560295
0.264105
0.049416
-0.0528195
0.266981
0.0464516
-0.049327
0.269275
0.0667065
-0.069001
0.271178
0.0449657
-0.0468687
0.273108
0.0674331
-0.0693628
0.274008
0.0646682
-0.0655687
0.274878
0.0484104
-0.0492803
0.275395
0.0818077
-0.0823243
0.274735
0.0680251
-0.0673647
0.274682
0.0510424
-0.0509902
0.274332
0.10728
-0.106929
0.272818
0.0832757
-0.0817624
0.272062
0.060408
-0.0596516
0.27172
0.120256
-0.119915
0.270306
0.144233
-0.142819
0.268009
0.121843
-0.119547
0.267272
0.039454
-0.0387166
0.267055
0.237043
-0.236826
0.250061
-0.248464
-0.161663
0.00332473
-0.167612
-0.00832298
-0.167512
-0.0106883
-0.159954
-0.0185521
-0.143313
-0.0213103
-0.119356
-0.0327888
-0.0825414
-0.0489143
-0.0333007
-0.0630265
0.0212271
-0.063159
0.0722134
-0.052562
0.115507
-0.0309549
0.150039
-0.0192411
0.176225
0.00290448
0.196503
0.00392122
0.212316
0.0241768
0.224842
0.01656
0.23512
0.0381319
0.242996
0.0282016
0.249712
0.0443791
0.254814
0.0443142
0.259668
0.0415982
0.263797
0.0625776
0.267263
0.0414996
0.270548
0.0641478
0.272258
0.0629581
0.273729
0.0469395
0.274632
0.0809043
0.274088
0.068569
0.274234
0.0508969
0.274018
0.107496
0.272499
0.0847949
0.27187
0.0610366
0.271679
0.120448
0.270304
0.145608
0.268028
0.124119
0.267424
0.040058
0.267279
0.237188
0.251632
-0.068289
0.0142881
-0.0767589
0.000146926
-0.0776358
-0.00981139
-0.073343
-0.0228449
-0.0607716
-0.0338817
-0.0421206
-0.0514398
-0.0132565
-0.0777784
0.0250276
-0.101311
0.0680156
-0.106147
0.10895
-0.0934965
0.142465
-0.0644696
0.168551
-0.0453273
0.18836
-0.0169043
0.203549
-0.0112682
0.215114
0.0126121
0.224473
0.00720106
0.232265
0.0303397
0.238444
0.0220224
0.244216
0.0386076
0.248882
0.0396484
0.254014
0.0364654
0.25867
0.0579219
0.262861
0.0373087
0.266936
0.0600731
0.269176
0.0607173
0.271138
0.0449777
0.272422
0.0796201
0.272068
0.068923
0.272494
0.0504711
0.272522
0.107468
0.271132
0.0861848
0.270754
0.0614143
0.270833
0.120369
0.269646
0.146795
0.267557
0.126208
0.26724
0.0403752
0.267323
0.237105
0.253009
0.0306428
0.022097
0.0219332
0.00885653
0.0180338
-0.00591194
0.019751
-0.0245621
0.02754
-0.0416708
0.0412198
-0.0651196
0.0621626
-0.0987212
0.0903507
-0.129499
0.122216
-0.138012
0.151954
-0.123235
0.177185
-0.0897005
0.196691
-0.0648332
0.211221
-0.0314347
0.221668
-0.0217148
0.228982
0.00529731
0.234527
0.00165628
0.238913
0.0259543
0.242177
0.0187578
0.245418
0.0353665
0.248013
0.0370533
0.251683
0.0327962
0.255321
0.054284
0.258976
0.033653
0.262921
0.0561281
0.265139
0.0584994
0.267301
0.0428156
0.268867
0.0780544
0.268723
0.0690665
0.269492
0.0497029
0.269864
0.107096
0.268729
0.0873197
0.268722
0.0614215
0.269192
0.119898
0.268342
0.147645
0.2666
0.12795
0.266719
0.040256
0.267185
0.236639
0.254025
0.116276
0.0292476
0.108925
0.0162073
0.102567
0.000445557
0.0990409
-0.0210357
0.101435
-0.0440651
0.108145
-0.071829
0.12156
-0.112136
0.140066
-0.148004
0.159763
-0.15771
0.17839
-0.141861
0.195212
-0.106522
0.209185
-0.0788067
0.220645
-0.0428947
0.229128
-0.0301981
0.235284
-0.000858371
0.239835
-0.00289467
0.24314
0.0226499
0.245237
0.0166607
0.247103
0.0334998
0.248104
0.0360523
0.250178
0.030723
0.252405
0.0520566
0.254927
0.0311313
0.258236
0.0528191
0.260074
0.0566615
0.262219
0.04067
0.264001
0.0762722
0.264088
0.0689793
0.265258
0.0485337
0.266076
0.106278
0.265313
0.0880822
0.265791
0.0609442
0.266775
0.118914
0.266407
0.148014
0.265164
0.129193
0.265864
0.0395564
0.26687
0.235633
0.254517
0.185323
0.0365398
0.177529
0.0240017
0.16994
0.00803454
0.164679
-0.0157746
0.163259
-0.0426453
0.165338
-0.0739087
0.169003
-0.115801
0.175608
-0.154609
0.18205
-0.164152
0.189112
-0.148923
0.197733
-0.115143
0.207108
-0.0881816
0.215886
-0.0516731
0.22336
-0.0376719
0.22926
-0.00675852
0.233933
-0.00756803
0.237967
0.0186169
0.24071
0.0139173
0.243171
0.031039
0.244234
0.0349887
0.245933
0.0290246
0.247542
0.0504473
0.249305
0.0293679
0.252138
0.0499867
0.253647
0.0551519
0.25578
0.0385369
0.257819
0.0742334
0.258192
0.0686064
0.259832
0.0468934
0.261201
0.104909
0.26092
0.0883633
0.26199
0.0598742
0.263609
0.117295
0.263864
0.14776
0.263262
0.129794
0.264679
0.0381394
0.266381
0.233931
0.254328
0.248105
0.0451821
0.237362
0.0347451
0.226664
0.0187323
0.217125
-0.00623616
0.210101
-0.0356213
0.205973
-0.0697802
0.199815
-0.109643
0.193015
-0.147809
0.188275
-0.159412
0.187536
-0.148184
0.191179
-0.118787
0.197408
-0.0944106
0.204648
-0.0589124
0.211712
-0.0447366
0.217878
-0.0129245
0.222797
-0.0124868
0.227322
0.0140922
0.230713
0.0105257
0.234183
0.0275694
0.235944
0.033228
0.238124
0.0268441
0.239876
0.0486954
0.241446
0.0277978
0.24423
0.0472029
0.245657
0.0537255
0.247917
0.0362762
0.250339
0.0718115
0.251078
0.0678681
0.253265
0.0447062
0.255297
0.102877
0.255597
0.0880629
0.257356
0.0581149
0.259731
0.11492
0.260745
0.146745
0.260912
0.129628
0.263174
0.035877
0.265726
0.231379
0.253309
0.29533
0.0512605
0.28575
0.0443254
0.273886
0.0305963
0.260854
0.00679629
0.247553
-0.0223204
0.234044
-0.0562712
0.218464
-0.0940633
0.199285
-0.12863
0.182708
-0.142835
0.175111
-0.140586
0.175405
-0.119081
0.181194
-0.1002
0.188918
-0.0666367
0.196788
-0.0526065
0.203526
-0.0196629
0.209007
-0.0179677
0.213988
0.00911172
0.217889
0.00662495
0.222142
0.0233156
0.224753
0.0306171
0.227609
0.0239884
0.22984
0.0464646
0.231602
0.0260359
0.234585
0.0442195
0.236201
0.0521099
0.238713
0.0337636
0.24163
0.0688943
0.242846
0.0666525
0.245635
0.0419167
0.248426
0.100086
0.249413
0.0870755
0.251945
0.055583
0.255181
0.111684
0.257086
0.14484
0.25814
0.128574
0.261363
0.0326545
0.264915
0.227827
0.251318
0.510071
0.0506694
-0.50948
0.513347
0.0410492
0.516081
0.0278627
0.513642
0.00923519
0.508061
-0.0167389
0.498486
-0.0466963
0.481473
-0.0770512
0.456411
-0.103568
0.429292
-0.115716
0.406224
-0.117518
0.388794
-0.101651
0.376352
-0.0877573
0.369777
-0.0600623
0.366463
-0.0492919
0.366575
-0.0197748
0.366964
-0.0183571
0.368439
0.00763695
0.370277
0.00478666
0.372253
0.0213398
0.37448
0.0283903
0.376288
0.0221799
0.377759
0.044994
0.378963
0.0248314
0.379618
0.0435648
0.380618
0.0511102
0.381514
0.0328675
0.382118
0.0682902
0.383284
0.0654865
0.384148
0.0410523
0.384608
0.0996265
0.385471
0.0862132
0.386357
0.0546964
0.386856
0.111185
0.387224
0.144472
0.387721
0.128076
0.388784
0.0315924
0.3902
0.22641
0.250849
0.54206
0.0454675
-0.536858
0.546952
0.0361578
0.54998
0.0248339
0.550148
0.0090678
0.544161
-0.0107518
0.53136
-0.0338952
0.511523
-0.0572148
0.486742
-0.0787864
0.461183
-0.090157
0.438468
-0.0948036
0.421149
-0.0843325
0.40941
-0.076018
0.40344
-0.0540921
0.401075
-0.0469272
0.401076
-0.0197754
0.402488
-0.0197699
0.404507
0.00561827
0.406416
0.00287806
0.408625
0.01913
0.410986
0.0260299
0.412753
0.0204131
0.414326
0.0434205
0.415415
0.0237425
0.415902
0.0430779
0.416763
0.0502496
0.417448
0.0321818
0.41794
0.0677982
0.419099
0.0643279
0.419926
0.0402252
0.420401
0.0991513
0.421391
0.0852236
0.422339
0.0537482
0.422838
0.110686
0.423352
0.143958
0.423987
0.127442
0.425174
0.0304048
0.426669
0.224915
0.25037
0.574167
0.0392735
-0.567973
0.578525
0.0317993
0.581373
0.0219865
0.581076
0.00936452
0.575839
-0.00551535
0.565345
-0.0234009
0.549326
-0.0411956
0.529151
-0.0586113
0.507219
-0.0682253
0.486808
-0.0743926
0.470292
-0.0678168
0.457852
-0.0635774
0.449564
-0.0458046
0.444659
-0.042022
0.442884
-0.0180004
0.442579
-0.0194647
0.443736
0.0044609
0.445641
0.000972967
0.447515
0.0172563
0.449787
0.0237581
0.451512
0.0186885
0.453059
0.0418728
0.454214
0.0225874
0.454783
0.0425089
0.455689
0.0493442
0.456385
0.0314862
0.456941
0.0672417
0.458125
0.0631442
0.458985
0.0393648
0.459554
0.0985821
0.46065
0.0841279
0.46166
0.0527377
0.462233
0.110114
0.462908
0.143283
0.463649
0.1267
0.464969
0.0290855
0.466569
0.223314
0.249843
0.610634
0.0334556
-0.604816
0.614336
0.0280973
0.615872
0.0204511
0.614501
0.0107348
0.609657
-0.000671004
0.600227
-0.0139709
0.586065
-0.0270334
0.568359
-0.0409057
0.549431
-0.0492967
0.531542
-0.0565036
0.516588
-0.0528632
0.50499
-0.0519791
0.497018
-0.0378328
0.491871
-0.036875
0.489587
-0.0157168
0.488592
-0.0184691
0.488842
0.00421029
0.489522
0.000293511
0.49103
0.0157476
0.4928
0.0219886
0.494332
0.0171567
0.495722
0.0404824
0.496763
0.0215469
0.49734
0.0419315
0.498177
0.0485066
0.498905
0.0307591
0.49957
0.0665759
0.500731
0.0619836
0.501689
0.0384071
0.502421
0.09785
0.503558
0.0829909
0.504644
0.0516512
0.505395
0.109363
0.506241
0.142437
0.507033
0.125908
0.508492
0.0276269
0.510277
0.22153
0.24922
0.649876
0.0286818
-0.645102
0.653026
0.0249471
0.654044
0.019433
0.652691
0.0120874
0.648255
0.003765
0.6405
-0.00621565
0.629309
-0.0158423
0.615402
-0.0269988
0.599945
-0.0338393
0.584412
-0.0409708
0.570362
-0.0388135
0.558889
-0.0405061
0.549859
-0.0288027
0.543527
-0.0305428
0.539526
-0.0117161
0.537482
-0.0164249
0.53676
0.00493213
0.537111
-5.68329e-05
0.537931
0.0149276
0.53927
0.0206492
0.540534
0.015893
0.541733
0.0392835
0.54278
0.0204992
0.543537
0.0411746
0.544454
0.0475899
0.545343
0.0298706
0.546194
0.0657245
0.547325
0.060852
0.548432
0.0373009
0.549364
0.096918
0.550481
0.081874
0.551674
0.0504576
0.552705
0.108333
0.553715
0.141427
0.554487
0.125135
0.556123
0.0259912
0.558228
0.219424
0.248442
0.693195
0.024587
-0.6891
0.695825
0.0223167
0.696585
0.0186729
0.695195
0.0134782
0.691277
0.00768304
0.684886
0.000174869
0.675613
-0.00656925
0.66372
-0.015106
0.650173
-0.0202923
0.63637
-0.0271678
0.623638
-0.0260812
0.612839
-0.0297073
0.604369
-0.0203328
0.597857
-0.0240306
0.593924
-0.00778263
0.591288
-0.0137895
0.590112
0.00610838
0.589843
0.000211934
0.59033
0.014441
0.591223
0.0197557
0.592226
0.0148898
0.593154
0.0383556
0.593984
0.01967
0.594693
0.040465
0.595465
0.0468176
0.596356
0.0289795
0.597326
0.0647546
0.598365
0.0598131
0.59961
0.0360558
0.600764
0.095764
0.601829
0.0808094
0.603155
0.0491321
0.604541
0.106947
0.605716
0.140252
0.606422
0.124429
0.608302
0.0241117
0.610882
0.216844
0.247447
0.740994
0.0212583
-0.737665
0.743071
0.0202399
0.743573
0.0181704
0.742302
0.0147492
0.739046
0.0109396
0.733613
0.00560778
0.726155
0.000888954
0.716663
-0.00561422
0.705804
-0.00943357
0.694541
-0.0159052
0.68351
-0.0150502
0.673788
-0.0199844
0.665412
-0.0119576
0.658868
-0.0174859
0.65359
-0.00250521
0.650253
-0.0104519
0.64822
0.00814116
0.646935
0.00149652
0.646833
0.0145433
0.647075
0.0195136
0.647748
0.0142171
0.648462
0.0376411
0.649243
0.0188889
0.650159
0.0395491
0.65099
0.0459874
0.652036
0.0279327
0.65322
0.0635706
0.654204
0.0588291
0.655615
0.0346449
0.657023
0.0943562
0.658034
0.0797981
0.65951
0.0476563
0.661312
0.105145
0.662672
0.138892
0.663299
0.123802
0.665486
0.0219249
0.668686
0.213643
0.246167
0.793704
0.0186394
-0.791085
0.795343
0.0186005
0.795718
0.0177958
0.794656
0.0158111
0.792004
0.0135914
0.787664
0.00994801
0.781553
0.0069999
0.773972
0.00196722
0.764936
-0.000397571
0.755221
-0.00619103
0.745415
-0.0052439
0.736343
-0.0109119
0.728573
-0.0041876
0.721994
-0.010907
0.717211
0.00227754
0.713494
-0.00673499
0.711074
0.0105615
0.709729
0.00284082
0.709239
0.0150333
0.709185
0.0195677
0.709628
0.0137744
0.710074
0.0371951
0.710637
0.0183261
0.711482
0.0387037
0.712147
0.045323
0.713185
0.0268948
0.714469
0.0622859
0.715371
0.0579279
0.716933
0.0330826
0.718592
0.0926967
0.719571
0.0788195
0.721219
0.0460077
0.723474
0.10289
0.725052
0.137313
0.72562
0.123234
0.728162
0.0193825
0.732111
0.209695
0.244525
0.851857
0.0165902
-0.849808
0.853129
0.0173287
0.853399
0.0175257
0.852522
0.0166882
0.850377
0.0157357
0.846912
0.0134129
0.842063
0.0118495
0.835966
0.00806422
0.828735
0.00683336
0.820904
0.00163989
0.812826
0.00283448
0.805191
-0.00327729
0.798066
0.00293773
0.792093
-0.00493389
0.786977
0.00739278
0.782932
-0.00269005
0.780187
0.0133072
0.777957
0.00507004
0.777006
0.0159843
0.776329
0.0202456
0.776437
0.0136657
0.776685
0.0369475
0.777135
0.0178756
0.77811
0.0377286
0.77879
0.0446434
0.779948
0.0257368
0.781411
0.0608233
0.7823
0.0570385
0.784037
0.0313453
0.785966
0.0907675
0.786957
0.0778294
0.788799
0.0441652
0.79154
0.10015
0.793374
0.135479
0.793936
0.122673
0.796879
0.0164393
0.801678
0.204896
0.242421
0.916062
0.015043
-0.914515
0.917018
0.0163729
0.917202
0.0173415
0.916506
0.0173836
0.914824
0.0174185
0.91212
0.0161162
0.908321
0.015649
0.903518
0.0128671
0.897808
0.0125437
0.891476
0.00797202
0.884715
0.00959556
0.878041
0.00339668
0.871704
0.00927446
0.86613
0.00064026
0.861235
0.0122877
0.857441
0.00110354
0.854446
0.0163022
0.852272
0.00724459
0.851079
0.0171764
0.850196
0.021129
0.850171
0.0136911
0.850219
0.0368988
0.850495
0.0175994
0.851443
0.0367808
0.851989
0.0440975
0.853148
0.0245776
0.854736
0.0592357
0.855587
0.0561871
0.857482
0.0294504
0.859715
0.0885343
0.860747
0.076798
0.862799
0.042113
0.866061
0.096888
0.86824
0.133299
0.868834
0.122079
0.872209
0.0130641
0.878013
0.199092
0.23978
0.986658
0.0139269
-0.985542
0.987342
0.0156885
0.987459
0.0172242
0.986923
0.0179197
0.985646
0.0186955
0.983597
0.0181659
0.980707
0.0185385
0.977056
0.0165185
0.972603
0.016996
0.967629
0.0129464
0.962187
0.0150379
0.95679
0.0087936
0.951393
0.0146707
0.946538
0.00549581
0.942226
0.0165996
0.938471
0.00485836
0.935642
0.0191316
0.933213
0.00967353
0.93181
0.018579
0.930608
0.0223318
0.930332
0.0139669
0.930224
0.0370062
0.930405
0.0174184
0.931376
0.0358107
0.931932
0.0435408
0.93319
0.0233198
0.934921
0.0575044
0.935828
0.0552804
0.937927
0.0273514
0.940435
0.0860268
0.941599
0.0756334
0.943901
0.0398117
0.947722
0.0930667
0.950249
0.130772
0.951014
0.121314
0.954898
0.00918004
0.961715
0.192275
0.236336
1.06441
0.0131684
-1.06365
1.06487
0.0152222
1.06493
0.0171687
1.06452
0.0183278
1.06358
0.0196372
1.06207
0.0196729
1.05994
0.0206696
1.05724
0.0192168
1.05393
0.0203056
1.05019
0.0166881
1.04599
0.0192403
1.0417
0.0130821
1.0373
0.019076
1.03318
0.00960717
1.02934
0.0204392
1.02596
0.00824394
1.02328
0.0218138
1.02091
0.0120432
1.01959
0.0198986
1.0183
0.0236239
1.01802
0.0142449
1.01791
0.0371118
1.01794
0.0173893
1.01901
0.0347446
1.01948
0.0430717
1.02073
0.0220643
1.02268
0.0555593
1.02359
0.0543664
1.02584
0.0251059
1.02879
0.083071
1.03007
0.0743601
1.0326
0.0372783
1.03705
0.0886158
1.04018
0.127645
1.04113
0.120356
1.04534
0.00497139
1.05364
0.183976
0.232166
1.14923
0.012677
-1.14873
1.14953
0.0149173
1.14959
0.0171081
1.14934
0.0185753
1.14872
0.0202642
1.14769
0.0207003
1.14621
0.0221517
1.14432
0.0210996
1.14196
0.0226659
1.13928
0.0193725
1.13615
0.0223668
1.13297
0.0162681
1.12953
0.0225172
1.12636
0.0127749
1.1232
0.0235935
1.12051
0.0109365
1.11817
0.0241515
1.11619
0.0140318
1.11496
0.0211277
1.11375
0.0248343
1.11349
0.0144964
1.11335
0.0372586
1.11352
0.01722
1.11461
0.0336496
1.11519
0.0424944
1.11663
0.0206241
1.11873
0.0534625
1.11977
0.0533222
1.12235
0.0225247
1.12557
0.0798495
1.12711
0.0728243
1.13006
0.0343233
1.13519
0.0834866
1.13866
0.124174
1.13999
0.119031
1.14519
-0.000227567
1.15454
0.174628
0.226502
1.2424
0.0124418
-1.24217
1.2426
0.0147233
1.24266
0.0170452
1.24256
0.0186772
1.24223
0.0205855
1.24168
0.0212594
1.24083
0.0229987
1.23973
0.0221997
1.23829
0.0241005
1.23662
0.0210501
1.23458
0.0244006
1.23243
0.0184201
1.23006
0.0248918
1.22772
0.0151114
1.22544
0.0258733
1.22326
0.0131208
1.22153
0.025873
1.21978
0.0157876
1.21892
0.0219842
1.21789
0.0258648
1.21777
0.0146198
1.2179
0.037124
1.21796
0.0171651
1.21927
0.0323383
1.21986
0.0419003
1.22121
0.019278
1.22367
0.0510045
1.22482
0.0521647
1.22742
0.0199253
1.23141
0.0758664
1.23315
0.0710834
1.23625
0.031216
1.24222
0.0775244
1.24676
0.119634
1.24864
0.117144
1.25345
-0.00503743
1.26512
0.162962
0.21984
1.3424
0.0122325
-1.34219
1.34259
0.0145328
1.34277
0.0168668
1.3429
0.0185456
1.34294
0.0205477
1.34287
0.0213343
1.34263
0.0232311
1.34227
0.0225609
1.34168
0.0246903
1.34095
0.0217862
1.33991
0.0254403
1.33882
0.0195037
1.33744
0.0262773
1.33619
0.0163608
1.33476
0.0273072
1.33358
0.0142977
1.33247
0.0269852
1.33153
0.0167199
1.33112
0.0223932
1.33061
0.0263834
1.33084
0.0143887
1.33119
0.036772
1.33168
0.0166753
1.33322
0.0307949
1.33414
0.0409839
1.33587
0.0175497
1.33859
0.0482829
1.33998
0.0507771
1.34314
0.0167622
1.34743
0.0715734
1.34963
0.068882
1.35339
0.0274612
1.36019
0.0707256
1.36513
0.114693
1.36778
0.11449
1.37388
-0.0111397
1.38681
0.150036
0.210273
1.45279
0.0120981
-1.45266
1.45309
0.0142374
1.45348
0.0164732
1.45395
0.01808
1.45444
0.0200547
1.45493
0.0208449
1.45539
0.0227754
1.45579
0.0221568
1.45608
0.0244053
1.45626
0.0215971
1.45625
0.0254573
1.45613
0.0196171
1.45585
0.0265564
1.4555
0.0167184
1.45508
0.0277268
1.45458
0.0147992
1.45439
0.027174
1.45396
0.0171491
1.45409
0.0222605
1.45408
0.0263943
1.45469
0.0137753
1.45584
0.0356245
1.45639
0.0161259
1.45822
0.0289617
1.45926
0.0399454
1.46066
0.0161503
1.46389
0.0450543
1.46563
0.0490369
1.4686
0.0137956
1.47407
0.0660954
1.47673
0.0662282
1.48047
0.0237193
1.48833
0.0628687
1.49491
0.10811
1.49853
0.110868
1.5038
-0.0164109
1.51954
0.134298
0.19923
1.56632
0.0113909
-1.56561
1.5672
0.0133539
1.56829
0.0153829
1.56953
0.0168414
1.57092
0.0186704
1.57237
0.0193902
1.57391
0.0212404
1.57542
0.0206424
1.57694
0.0228867
1.57828
0.0202568
1.57959
0.0241473
1.58067
0.0185387
1.58168
0.0255443
1.58244
0.0159595
1.58333
0.0268326
1.58388
0.014251
1.58472
0.0263329
1.58531
0.0165642
1.58635
0.0212125
1.5873
0.0254446
1.58838
0.0126953
1.59026
0.0337458
1.5913
0.0150878
1.59381
0.0264509
1.59554
0.0382175
1.59732
0.014373
1.60105
0.0413229
1.60336
0.0467207
1.60667
0.01049
1.61289
0.0598709
1.61671
0.0624157
1.6207
0.0197251
1.6294
0.0541716
1.63755
0.0999623
1.64315
0.105263
1.6473
-0.0205574
1.66474
0.116859
0.182101
1.69674
0.0102928
-1.69564
1.69817
0.0119195
1.69991
0.0136431
1.70189
0.0148601
1.70406
0.0165057
1.70627
0.0171799
1.70865
0.0188542
1.71094
0.0183559
1.71339
0.0204345
1.71568
0.0179655
1.71802
0.0218137
1.71984
0.0167203
1.72216
0.0232231
1.72374
0.0143722
1.72556
0.025014
1.72675
0.0130624
1.72912
0.0239664
1.73032
0.0153645
1.73146
0.0200664
1.73301
0.0238997
1.73514
0.0105673
1.73926
0.0296187
1.7409
0.0134522
1.74347
0.0238816
1.74496
0.0367278
1.74582
0.0135132
1.75009
0.0370466
1.75336
0.0434555
1.75636
0.00748742
1.76418
0.0520499
1.76907
0.057529
1.77289
0.0159083
1.78274
0.0443139
1.79284
0.0898622
1.8006
0.0975051
1.80352
-0.0234751
1.82362
0.0967597
0.162168
1.81696
0.00656022
-1.81323
1.82108
0.00780634
1.82555
0.0091661
1.8303
0.0101101
1.83524
0.0115643
1.84004
0.0123862
1.84505
0.0138367
1.84955
0.0138561
1.85441
0.0155839
1.85856
0.0138092
1.86327
0.0171056
1.86611
0.0138847
1.87102
0.0183062
1.87315
0.0122487
1.8774
0.0207562
1.87852
0.0119495
1.88378
0.0186985
1.88544
0.0137082
1.88724
0.0182646
1.89038
0.0207641
1.89273
0.00821589
1.90081
0.0215394
1.90271
0.0115551
1.9043
0.0222914
1.90789
0.0331365
1.90525
0.0161457
1.91053
0.0317693
1.91851
0.0354822
1.9171
0.00889163
1.92767
0.041483
1.93931
0.0458874
1.93868
0.016537
1.94486
0.0381319
1.96366
0.0710675
1.98151
0.0796518
1.96909
-0.0110591
1.98359
0.0822617
0.129062
1.9988
0.00229916
-1.99454
2.00348
0.00312811
2.00855
0.00409372
2.01383
0.00483034
2.01948
0.00591774
2.02513
0.0067308
2.03115
0.007823
2.03669
0.00831766
2.04274
0.00952943
2.0475
0.00904809
2.05367
0.0109374
2.05746
0.0100963
2.06378
0.0119884
2.06606
0.0099684
2.073
0.0138092
2.07424
0.0107126
2.08031
0.0126303
2.08223
0.0117854
2.0867
0.0137993
2.09195
0.0155137
2.09135
0.00881452
2.0982
0.0146877
2.09829
0.0114682
2.10224
0.0183377
2.11178
0.0235991
2.11065
0.0172772
2.11869
0.0237222
2.12975
0.0244268
2.12417
0.01447
2.13597
0.0296844
2.15135
0.0305078
2.14703
0.0208591
2.15037
0.0347841
2.17633
0.0451085
2.20033
0.055651
2.17618
0.0130985
2.18941
0.0690294
0.0879687
2.22754
0.00122661
-2.22646
2.2289
0.00176262
2.23062
0.00237676
2.23254
0.00290613
2.23488
0.00357824
2.23751
0.00409867
2.24053
0.00480642
2.24365
0.00520208
2.24718
0.00600022
2.25015
0.00607172
2.25404
0.00705464
2.25728
0.00685497
2.26134
0.0079212
2.26398
0.0073305
2.26903
0.00876442
2.27178
0.00796247
2.27558
0.00882961
2.27851
0.00885245
2.28336
0.008951
2.28841
0.0104595
2.28928
0.00794771
2.29282
0.0111504
2.29467
0.00961106
2.30084
0.0121766
2.30985
0.0145803
2.31495
0.0121779
2.32305
0.0156249
2.33101
0.0164681
2.33292
0.0125625
2.34238
0.0202202
2.35272
0.0201685
2.35634
0.0172355
2.36546
0.0256661
2.38277
0.0277954
2.40024
0.0381815
2.39702
0.0163274
2.41868
0.0473601
0.0564133
2.43098
0.000192596
-2.42995
2.43233
0.000415841
2.43403
0.000673236
2.43601
0.000924952
2.43837
0.00121875
2.44099
0.00148342
2.44399
0.00180463
2.44714
0.0020511
2.45073
0.00240886
2.45421
0.00259516
2.45827
0.00298916
2.46202
0.00310962
2.46643
0.00351121
2.4702
0.00355567
2.47499
0.00397967
2.47895
0.00400185
2.48354
0.00424176
2.48787
0.00451932
2.49235
0.00447086
2.49765
0.00515813
2.50111
0.00449434
2.5067
0.00555305
2.51091
0.00540845
2.51687
0.00620806
2.5241
0.0073583
2.52952
0.00675693
2.53718
0.00796603
2.5451
0.00854273
2.55035
0.00730972
2.56033
0.0102456
2.57024
0.0102527
2.57768
0.00979884
2.58961
0.0137381
2.60404
0.0133663
2.62299
0.0192337
2.62778
0.0115312
2.65109
0.0240512
0.0265113
2.67563
-2.67543
2.67604
2.67672
2.67764
2.67886
2.68034
2.68215
2.6842
2.68661
2.6892
2.69219
2.6953
2.69881
2.70237
2.70635
2.71035
2.71459
2.71911
2.72358
2.72874
2.73323
2.73879
2.7442
2.7504
2.75776
2.76452
2.77249
2.78103
2.78834
2.79858
2.80884
2.81864
2.83237
2.84574
2.86497
2.8765
2.90056
0.423772
0.052278
-0.416158
0.433425
0.0848428
0.442354
0.119656
0.451914
0.151553
0.46515
0.18433
0.472613
0.216719
0.490253
0.241243
0.27786
0.460015
0.0437935
-0.45153
0.467612
0.0772456
0.478166
0.109102
0.486676
0.143042
0.499499
0.171507
0.51036
0.205858
0.521501
0.230102
0.262502
0.498405
0.0363334
-0.490945
0.505328
0.0703229
0.514169
0.10026
0.522678
0.134534
0.532245
0.16194
0.543527
0.194576
0.554284
0.219346
0.248814
0.539257
0.030111
-0.533035
0.545959
0.063621
0.553281
0.0929386
0.56192
0.125894
0.570613
0.153247
0.581459
0.183729
0.592309
0.208496
0.236307
0.58365
0.0249089
-0.578448
0.590083
0.0571877
0.596788
0.0862338
0.605004
0.117679
0.613374
0.144876
0.623209
0.173894
0.633435
0.19827
0.22464
0.632054
0.0203603
-0.627505
0.637808
0.0514341
0.643911
0.08013
0.651344
0.110246
0.659155
0.137065
0.668277
0.164772
0.677998
0.188549
0.213538
0.684229
0.0164901
-0.680359
0.689278
0.0463852
0.694856
0.0745522
0.701694
0.103408
0.709123
0.129637
0.717807
0.156087
0.727112
0.179243
0.202985
0.740815
0.0131821
-0.737507
0.745266
0.0419335
0.750425
0.069394
0.756783
0.0970495
0.763843
0.122577
0.772062
0.147868
0.780974
0.170332
0.192874
0.802225
0.0104093
-0.799452
0.80613
0.0380287
0.81087
0.064654
0.816773
0.091146
0.823488
0.115862
0.831349
0.140007
0.839997
0.161684
0.183064
0.868914
0.00815448
-0.866659
0.872325
0.0346177
0.876701
0.0602775
0.882258
0.0855895
0.888749
0.10937
0.89639
0.132366
0.904888
0.153186
0.173437
0.941315
0.0064009
-0.939561
0.944308
0.0316246
0.948392
0.0561938
0.953696
0.0802852
0.960032
0.103034
0.967534
0.124864
0.975969
0.144751
0.163864
1.02004
0.00504824
-1.01869
1.02267
0.0289906
1.02652
0.0523457
1.03166
0.0751475
1.03795
0.0967441
1.04546
0.117358
1.05398
0.136224
0.154199
1.10519
0.00410292
-1.10425
1.10752
0.0266637
1.11119
0.0486724
1.11623
0.0701051
1.12254
0.0904396
1.13012
0.109776
1.13883
0.127518
0.14429
1.19763
0.00356651
-1.19709
1.19974
0.0245518
1.20335
0.045069
1.20845
0.0650055
1.21494
0.0839464
1.2228
0.101913
1.23188
0.118445
0.134
1.29622
0.00321572
-1.29587
1.2982
0.022573