/*--------------------------------*- C++ -*----------------------------------*\
| =========                 |                                                 |
| \\      /  F ield         | OpenFOAM: The Open Source CFD Toolbox           |
|  \\    /   O peration     | Version:  2512                                  |
|   \\  /    A nd           | Website:  www.openfoam.com                      |
|    \\/     M anipulation  |                                                 |
\*---------------------------------------------------------------------------*/
FoamFile
{
    version     2.0;
    format      ascii;
    arch        "LSB;label=32;scalar=64";
    class       surfaceScalarField;
    location    "73.8";
    object      phi;
}
// * * * * * * * * * * * * * * * * * * * * * * * * * * * * * * * * * * * * * //

dimensions      [0 3 -1 0 0 0 0];

oriented        oriented;

internalField   nonuniform List<scalar> 
26232
(
-0.000269136
0.00195096
-0.00168182
-0.000277126
0.00358727
-0.00357928
0.000556264
0.00338427
-0.00421766
0.00276012
0.00131551
-0.00351937
0.0068571
-0.0028295
-0.00126749
0.0133496
-0.00927311
0.00278056
0.0225636
-0.018053
0.00883906
0.0344536
-0.0288522
0.0169622
0.0484807
-0.040974
0.0269469
0.0636593
-0.0534849
0.0383063
0.0787612
-0.0654368
0.0503349
0.0925917
-0.0760665
0.062236
0.10425
-0.0849241
0.0732661
0.113305
-0.0919127
0.0828578
0.119839
-0.097246
0.090711
0.124345
-0.101332
0.0968267
0.127492
-0.104618
0.10147
0.129881
-0.107455
0.105066
0.131918
-0.11004
0.108003
0.133733
-0.112468
0.110653
0.135453
-0.114643
0.112923
0.136919
-0.116851
0.115384
0.137729
-0.118069
0.117259
-0.120068
0.120176
0.137621
-0.000128581
0.00207954
0.000235972
0.00322272
0.00174831
0.00187194
0.00505521
-0.00199139
0.0107643
-0.00853863
0.0192866
-0.0177953
0.0305846
-0.0293511
0.0440214
-0.0422891
0.0584581
-0.0554106
0.0725576
-0.0675844
0.0851401
-0.0780193
0.0954542
-0.0863806
0.103292
-0.0927618
0.108931
-0.0975517
0.112937
-0.101252
0.115918
-0.104313
0.118335
-0.107035
0.120455
-0.109575
0.122404
-0.111989
0.124231
-0.114294
0.126078
-0.11649
0.127859
-0.118633
0.130303
-0.120512
-0.123105
0.13334
6.23903e-05
0.00201715
0.000954579
0.00233053
0.00340028
-0.000573762
0.00811092
-0.00670203
0.0156319
-0.0160596
0.0260278
-0.0281912
0.0386458
-0.0419691
0.0522319
-0.0558751
0.0653474
-0.0685262
0.0768196
-0.0790566
0.0860213
-0.087221
0.0929162
-0.0932754
0.0979037
-0.0977493
0.101563
-0.101211
0.104423
-0.104112
0.106841
-0.106731
0.109016
-0.10921
0.111051
-0.11161
0.113015
-0.113953
0.114985
-0.116264
0.11699
-0.118495
0.119107
-0.120749
0.121349
-0.122754
-0.125046
0.123289
0.000265182
0.00175197
0.00178006
0.000815651
0.00532103
-0.00411474
0.0115782
-0.0129592
0.0208092
-0.0252906
0.0324585
-0.0398405
0.0452104
-0.0547211
0.0575153
-0.06818
0.0681642
-0.0791751
0.0765916
-0.0874841
0.0828552
-0.0934846
0.087403
-0.0978233
0.09079
-0.101136
0.0934772
-0.103899
0.0957661
-0.106401
0.0978292
-0.108794
0.0997685
-0.111149
0.101648
-0.11349
0.103524
-0.115829
0.105413
-0.118153
0.107382
-0.120464
0.10943
-0.122797
0.111692
-0.125016
-0.127651
0.114297
0.000481829
0.00127014
0.00269139
-0.00139391
0.0074278
-0.00885115
0.0151947
-0.020726
0.0256776
-0.0357735
0.0375919
-0.0517548
0.0492593
-0.0663885
0.0593564
-0.0782771
0.0672872
-0.0871059
0.0731259
-0.0933227
0.0773288
-0.0976874
0.0804344
-0.100929
0.0828821
-0.103584
0.0849638
-0.10598
0.0868531
-0.10829
0.0886486
-0.11059
0.0904038
-0.112904
0.0921513
-0.115238
0.0939084
-0.117586
0.0957061
-0.11995
0.097575
-0.122333
0.0995168
-0.124739
0.101619
-0.127119
-0.129691
0.103659
0.000728021
0.00054212
0.00370061
-0.0043665
0.00964667
-0.0147972
0.0186351
-0.0297145
0.0295872
-0.0467256
0.040717
-0.0628845
0.0504927
-0.0761643
0.0581766
-0.085961
0.0637834
-0.0927126
0.0677531
-0.0972924
0.0706246
-0.100559
0.0728452
-0.10315
0.0747151
-0.105454
0.0764079
-0.107673
0.0780121
-0.109894
0.0795684
-0.112146
0.0810988
-0.114434
0.0826206
-0.116759
0.0841578
-0.119123
0.0857331
-0.121526
0.0873692
-0.123969
0.0890901
-0.12646
0.0909476
-0.128976
-0.131669
0.0929253
0.00101336
-0.000471238
0.00478961
-0.00814275
0.0118162
-0.0218238
0.0214777
-0.039376
0.0320176
-0.0572655
0.0416213
-0.0724883
0.0492739
-0.0838169
0.0548347
-0.0915218
0.0586914
-0.0965692
0.0613875
-0.0999886
0.0633947
-0.102566
0.0650337
-0.104788
0.0664867
-0.106907
0.0678437
-0.10903
0.0691461
-0.111197
0.070418
-0.113418
0.0716781
-0.115695
0.0729457
-0.118027
0.0742371
-0.120414
0.0755679
-0.122857
0.076955
-0.125356
0.0784032
-0.127908
0.0799407
-0.130514
-0.133221
0.0814928
0.00133088
-0.00180212
0.00588783
-0.0126997
0.0136905
-0.0296265
0.0233431
-0.0490286
0.0327788
-0.0667012
0.0405598
-0.0802693
0.0462557
-0.0895128
0.0501356
-0.0954017
0.0527351
-0.0991688
0.0545612
-0.101815
0.0559714
-0.103976
0.0571719
-0.105989
0.0582648
-0.108
0.0592977
-0.110063
0.0602947
-0.112194
0.0612712
-0.114394
0.0622394
-0.116663
0.0632108
-0.118998
0.0641979
-0.121401
0.0652153
-0.123874
0.066275
-0.126416
0.0673944
-0.129028
0.0685936
-0.131713
-0.134481
0.0698537
0.00166128
-0.0034634
0.00688578
-0.0179242
0.0150234
-0.0377641
0.0240485
-0.0580536
0.0320091
-0.0746618
0.0380033
-0.0862634
0.042063
-0.0935725
0.0446715
-0.0980102
0.046371
-0.100868
0.0475718
-0.103015
0.0485198
-0.104924
0.0493394
-0.106808
0.0500869
-0.108747
0.0507879
-0.110764
0.0514566
-0.112862
0.0521039
-0.115042
0.0527414
-0.1173
0.0533814
-0.119638
0.0540368
-0.122057
0.0547186
-0.124556
0.0554376
-0.127135
0.0562018
-0.129792
0.0570152
-0.132526
-0.135324
0.0578587
0.00197456
-0.00543797
0.00766218
-0.0236118
0.015656
-0.045758
0.023631
-0.0660286
0.0300211
-0.0810519
0.0344275
-0.0906699
0.0371813
-0.0963263
0.0388352
-0.0996641
0.0398638
-0.101897
0.0405709
-0.103723
0.0411156
-0.105469
0.0415702
-0.107263
0.0419656
-0.109143
0.0423174
-0.111116
0.0426368
-0.113182
0.0429339
-0.115339
0.043219
-0.117585
0.043502
-0.119921
0.0437926
-0.122347
0.0441004
-0.124864
0.0444351
-0.127469
0.0448069
-0.130164
0.0452231
-0.132942
-0.13579
0.0456886
0.00223984
-0.00767781
0.00812115
-0.0294931
0.0155582
-0.0531951
0.0222709
-0.0727413
0.0271645
-0.0859455
0.0302303
-0.0937357
0.0319565
-0.0980525
0.032876
-0.100584
0.0333688
-0.10239
0.0336471
-0.104001
0.0338096
-0.105632
0.0338977
-0.107351
0.0339302
-0.109175
0.0339183
-0.111104
0.0338711
-0.113135
0.0337973
-0.115265
0.0337054
-0.117494
0.0336048
-0.119821
0.0335053
-0.122248
0.0334165
-0.124775
0.033348
-0.127401
0.0333058
-0.130121
0.0332886
-0.132925
-0.1358
0.0332988
0.00243465
-0.0101125
0.00822423
-0.0352827
0.0148179
-0.0597887
0.0202131
-0.0781365
0.0237622
-0.0894946
0.0257201
-0.0956936
0.0266277
-0.0989601
0.0269514
-0.100907
0.0269796
-0.102418
0.0268541
-0.103875
0.0266351
-0.105413
0.0263473
-0.107063
0.0260029
-0.108831
0.0256106
-0.110712
0.025178
-0.112702
0.024713
-0.1148
0.0242233
-0.117004
0.0237166
-0.119314
0.0232009
-0.121732
0.0226848
-0.124259
0.0221778
-0.126894
0.0216899
-0.129633
0.0212279
-0.132463
0.0208047
-0.135377
0.000374122
0.00746548
-0.0078396
0.000578097
0.0178536
-0.0180575
0.00024866
0.0244429
-0.0241135
-0.000619681
0.0281136
-0.0272453
-0.00185282
0.030007
-0.0287739
-0.00325563
0.0310415
-0.0296387
-0.00466105
0.0317027
-0.0302973
-0.00593598
0.0321046
-0.0308297
-0.00696889
0.0321454
-0.0311125
-0.00765976
0.0316409
-0.03095
-0.0079188
0.0303981
-0.0301391
-0.00767377
0.0282508
-0.0284958
-0.00687892
0.0250743
-0.0258691
-0.00552228
0.0207938
-0.0221504
-0.00362887
0.0153839
-0.0172773
-0.00126185
0.00886046
-0.0112275
0.0014867
0.00125878
-0.00400733
0.00469333
-0.00738631
0.00417967
0.00831067
-0.0170883
0.013471
0.0123674
-0.0278704
0.0238137
0.0170532
-0.0397929
0.0351072
0.0225081
-0.0525499
0.047095
0.0290019
-0.0660099
0.0595161
-0.0789263
0.0364572
0.071471
0.000703537
0.00676195
0.00164134
0.0169157
0.00224143
0.0238428
0.0023874
0.0279677
0.00221726
0.0301772
0.00195603
0.0313027
0.0018131
0.0318457
0.00194883
0.0319689
0.00247813
0.0316161
0.0034833
0.0306357
0.00501884
0.0288626
0.00711113
0.0261585
0.00975496
0.0224304
0.0129128
0.0176359
0.016516
0.0117807
0.0204654
0.00491106
0.0246969
-0.00297271
0.0291289
-0.0118183
0.0337614
-0.0217209
0.0386309
-0.0327399
0.0439675
-0.0451295
0.0497927
-0.0583751
0.0563471
-0.0725643
-0.0859948
0.0634156
0.000952191
0.00580975
0.00255366
0.0153143
0.00408507
0.0223114
0.00529407
0.0267587
0.00625231
0.0292189
0.00717647
0.0303786
0.00829671
0.0307254
0.00979365
0.030472
0.0117861
0.0296237
0.0143401
0.0280817
0.0174801
0.0257226
0.0211952
0.0224434
0.0254424
0.0181833
0.0301473
0.012931
0.0352002
0.00672772
0.0405059
-0.000394574
0.0460518
-0.00851866
0.0517493
-0.0175158
0.0576933
-0.0276648
0.0639289
-0.0389755
0.0707446
-0.0519451
0.0779606
-0.0655911
0.085662
-0.0802657
-0.0935306
0.0931977
0.00108115
0.00472861
0.00317169
0.0132237
0.00550746
0.0199756
0.00771729
0.0245488
0.00976947
0.0271667
0.0118282
0.0283199
0.0141125
0.0284411
0.0168096
0.0277748
0.0200422
0.0263911
0.0238684
0.0242555
0.0282927
0.0212983
0.0332764
0.0174597
0.0387463
0.0127134
0.0446
0.00707738
0.0506804
0.000647248
0.057118
-0.00683212
0.0637203
-0.015121
0.0705929
-0.0243884
0.0779637
-0.0350357
0.0858993
-0.0469111
0.0946326
-0.0606784
0.103685
-0.0746438
0.112912
-0.0894925
-0.101827
0.121208
0.00107878
0.00364982
0.00340866
0.0108939
0.00629782
0.0170865
0.00931039
0.0215363
0.012306
0.0241711
0.0153602
0.0252658
0.0186426
0.0251586
0.0223221
0.0240954
0.0265162
0.022197
0.0312776
0.0194941
0.0365995
0.0159764
0.0424282
0.011631
0.0486747
0.00646692
0.0551914
0.000560649
0.0621738
-0.00633513
0.0693702
-0.0140285
0.0770159
-0.0227667
0.0853144
-0.0326869
0.0945378
-0.044259
0.104637
-0.0570103
0.115452
-0.0714938
0.126049
-0.0852402
0.135907
-0.0993503
-0.109442
0.143522
0.000961086
0.00268873
0.00325592
0.00859904
0.00635849
0.0139839
0.00984724
0.0180475
0.0135058
0.0205126
0.0173117
0.0214598
0.0213569
0.0211135
0.0257622
0.01969
0.0306216
0.0173377
0.0359771
0.0141386
0.0418195
0.0101341
0.0481003
0.00535013
0.0547511
-0.000183851
0.0619386
-0.00662681
0.0695568
-0.0139534
0.0778794
-0.0223512
0.0871989
-0.0320861
0.097749
-0.0432371
0.109516
-0.0560264
0.122055
-0.0695492
0.134516
-0.0839548
0.145655
-0.0963788
0.154668
-0.108363
-0.115037
0.160262
0.000760826
0.00192791
0.00277664
0.00658322
0.00573255
0.011028
0.00929396
0.0144861
0.0132252
0.0165813
0.01743
0.017255
0.021918
0.0166254
0.0267467
0.0148614
0.031973
0.0121113
0.0376322
0.00847937
0.0437399
0.00402639
0.0503488
-0.0012588
0.0576203
-0.00745527
0.0656623
-0.0146688
0.074794
-0.0230851
0.0853258
-0.032883
0.0973997
-0.04416
0.110857
-0.056694
0.125001
-0.0701704
0.138844
-0.0833928
0.150988
-0.0960982
0.160409
-0.1058
0.166461
-0.114415
-0.117448
0.168872
0.000513137
0.00141477
0.00207487
0.00502149
0.00458077
0.00852208
0.00782469
0.0112422
0.0116073
0.0127987
0.0158033
0.0130591
0.0203678
0.0120609
0.0253143
0.0099149
0.030693
0.00673264
0.0365864
0.00258597
0.0431673
-0.00255456
0.0506621
-0.00875361
0.0593609
-0.016154
0.069596
-0.024904
0.0815886
-0.0350777
0.0952994
-0.0465937
0.110261
-0.0591212
0.125624
-0.0720573
0.140099
-0.0846452
0.152509
-0.0958032
0.161621
-0.10521
0.167224
-0.111404
0.169344
-0.116535
-0.117095
0.168991
0.00024734
0.00116743
0.00126482
0.00400401
0.00313228
0.00665462
0.00578063
0.00859383
0.00908763
0.00949166
0.0129565
0.00919016
0.0173561
0.00766131
0.0223383
0.00493276
0.0280469
0.00102403
0.0347439
-0.00411102
0.0427471
-0.0105578
0.0524134
-0.01842
0.0640004
-0.027741
0.0775303
-0.0384338
0.0926635
-0.0502109
0.108665
-0.0625955
0.124436
-0.0748916
0.138748
-0.08637
0.150381
-0.0962778
0.158683
-0.104105
0.16332
-0.109846
0.165148
-0.113231
0.164789
-0.116177
-0.116123
0.163817
-6.83514e-06
0.00117427
0.000470953
0.00352622
0.00166897
0.0054566
0.00365026
0.00661254
0.00640817
0.00673375
0.00995359
0.00564473
0.0143778
0.00323713
0.0198894
-0.000578923
0.0268044
-0.00589089
0.0354844
-0.012791
0.0462238
-0.0212971
0.0591016
-0.0312978
0.0738622
-0.0425017
0.0898641
-0.0544357
0.106128
-0.0664746
0.121467
-0.0779348
0.134713
-0.0881378
0.144981
-0.0966383
0.151855
-0.103151
0.155673
-0.107923
0.157064
-0.111237
0.157386
-0.113554
0.157045
-0.115835
-0.116242
0.157164
-0.000207069
0.00138134
-0.000144086
0.00346324
0.000547215
0.0047653
0.0020771
0.00508266
0.00460257
0.00420828
0.00832236
0.00192494
0.0135243
-0.00196481
0.0205628
-0.00761742
0.0297773
-0.0151054
0.0413271
-0.0243409
0.0550591
-0.0350291
0.0704323
-0.0466709
0.0865502
-0.0586196
0.102285
-0.0701708
0.116479
-0.0806686
0.128166
-0.0896217
0.136808
-0.0967797
0.142401
-0.102231
0.145488
-0.106239
0.146967
-0.109401
0.147624
-0.111894
0.148423
-0.114353
0.149106
-0.116519
-0.117571
0.150435
-0.000300489
-0.000416529
0.000131109
0.0016944
0.00463519
0.00934069
0.0162149
0.0255597
0.0374013
0.0513667
0.0666725
0.0822376
0.0968841
0.109571
0.119613
0.126818
0.131509
0.134344
0.136108
0.13736
0.138389
0.13942
0.140161
0.142766
0.0427397
-0.119267
0.112984
0.0482821
-0.133961
0.128418
0.0512416
-0.142914
0.139954
0.0503215
-0.147617
0.148537
0.0458801
-0.151105
0.155547
0.0413004
-0.155347
0.159927
0.0417929
-0.157216
0.156723
0.0505982
-0.14874
0.139934
0.0662504
-0.12332
0.107668
0.0841164
-0.0809665
0.0631005
0.101178
-0.0265205
0.00945938
0.11668
0.0348786
-0.050381
0.130241
0.0946143
-0.108175
0.141068
0.141518
-0.152344
0.148296
0.169427
-0.176655
0.151672
0.181683
-0.185059
0.152561
0.185015
-0.185904
0.152719
0.18294
-0.183098
0.151787
0.181938
-0.181005
0.148194
0.193281
-0.189689
0.142172
0.216188
-0.210165
0.136381
0.227104
-0.221314
0.133318
0.196273
-0.193209
0.134047
0.115505
-0.116233
0.13856
0.00471128
-0.00922472
0.144835
-0.100385
0.0941104
0.1506
-0.176545
0.17078
0.154912
-0.216176
0.211863
0.157698
-0.226514
0.223728
0.157047
-0.22792
0.228571
0.151025
-0.240807
0.246829
0.140247
-0.257759
0.268538
0.128065
-0.251951
0.264133
0.118839
-0.203234
0.212459
0.115841
-0.108483
0.111481
0.119383
0.0104112
-0.0139526
0.127635
0.121462
-0.129714
0.136349
0.193456
-0.20217
0.138887
0.240432
-0.242971
0.132829
0.274931
-0.268873
0.122259
0.298118
-0.287548
0.112608
0.265008
-0.255357
0.109155
0.173042
-0.169589
0.114826
0.0355818
-0.0412526
0.124653
-0.0806121
0.070785
0.129302
-0.161272
0.156623
0.126485
-0.223338
0.226154
0.121939
-0.249326
0.253873
0.121342
-0.26538
0.265977
0.126363
-0.209078
0.204057
0.133486
-0.144857
0.137734
0.134995
0.0259424
-0.0274513
0.131351
0.220225
-0.216582
0.12841
0.374232
-0.371291
0.128294
0.352985
-0.352869
0.128237
0.0933367
-0.0932797
0.12473
-0.115476
0.118982
0.121069
-0.316887
0.320548
0.114732
-0.229009
0.235346
-0.0104781
0.0162953
0.0656405
-0.121492
0.0679866
-0.136307
0.0693016
-0.144229
0.0676019
-0.145918
0.060969
-0.144472
0.0502748
-0.144653
0.0406949
-0.147636
0.0386249
-0.14667
0.0465899
-0.131285
0.0618908
-0.0962674
0.080129
-0.0447587
0.098955
0.0160526
0.116897
0.0766721
0.132431
0.125984
0.14403
0.157828
0.151196
0.174517
0.155312
0.1809
0.158065
0.180186
0.159482
0.180521
0.158683
0.19408
0.155878
0.218993
0.15254
0.230442
0.14998
0.198833
0.148789
0.116696
0.149715
0.00378511
0.152144
-0.102814
0.154498
-0.178899
0.155687
-0.217364
0.155785
-0.226612
0.153051
-0.225187
0.145191
-0.232947
0.132921
-0.245489
0.120108
-0.239137
0.111487
-0.194613
0.110067
-0.107063
0.116418
0.00406031
0.127451
0.110429
0.137912
0.182994
0.141509
0.236835
0.136616
0.279825
0.126845
0.307889
0.116805
0.275047
0.111573
0.178275
0.11507
0.0320848
0.124505
-0.0900474
0.129743
-0.16651
0.127181
-0.220775
0.12277
-0.244916
0.122586
-0.265195
0.127266
-0.213759
0.133742
-0.151333
0.135145
0.0245397
0.132222
0.223148
0.130089
0.376365
0.129381
0.353693
0.128465
0.0942525
0.124094
-0.111105
0.120367
-0.31316
0.115122
-0.223764
-0.00494732
0.0915766
-0.119871
0.0889189
-0.133649
0.0854981
-0.140808
0.0816045
-0.142024
0.0752273
-0.138095
0.0634351
-0.132861
0.0479671
-0.132168
0.0358663
-0.134569
0.0339224
-0.129341
0.0432291
-0.105574
0.0601148
-0.0616444
0.0810383
-0.0048709
0.102724
0.054986
0.1227
0.106009
0.138631
0.141897
0.149767
0.16338
0.157352
0.173315
0.162982
0.174556
0.167134
0.176369
0.169544
0.191669
0.170227
0.21831
0.169548
0.231121
0.167426
0.200955
0.164089
0.120033
0.161057
0.00681733
0.159504
-0.10126
0.15842
-0.177816
0.156559
-0.215503
0.154095
-0.224148
0.149662
-0.220754
0.140658
-0.223942
0.127383
-0.232215
0.113904
-0.225658
0.105551
-0.18626
0.105656
-0.107169
0.114394
-0.00467703
0.127788
0.0970353
0.139931
0.170851
0.144922
0.231844
0.14163
0.283116
0.132995
0.316524
0.122887
0.285155
0.115848
0.185315
0.116474
0.0314578
0.124788
-0.0983614
0.130596
-0.172318
0.128286
-0.218466
0.123738
-0.240368
0.123644
-0.265102
0.127991
-0.218105
0.133993
-0.157335
0.135538
0.0229939
0.1334
0.225287
0.132059
0.377706
0.130847
0.354905
0.129107
0.0959928
0.123908
-0.105906
0.120063
-0.309314
0.115896
-0.219597
0.000346308
0.117023
-0.115685
0.110737
-0.127363
0.102534
-0.132605
0.0940127
-0.133503
0.0864782
-0.130561
0.0770489
-0.123431
0.0617059
-0.116825
0.0435523
-0.116415
0.0315152
-0.117304
0.0320292
-0.106088
0.0446208
-0.074236
0.0649661
-0.0252162
0.0889956
0.0309565
0.112392
0.0826128
0.132098
0.122191
0.147012
0.148465
0.158013
0.162314
0.16651
0.16606
0.173393
0.169486
0.178996
0.186067
0.183244
0.214062
0.18553
0.228835
0.184373
0.202112
0.179077
0.125329
0.172348
0.0135457
0.166922
-0.0958339
0.162385
-0.173279
0.157617
-0.210735
0.152728
-0.219259
0.146779
-0.214805
0.137122
-0.214285
0.123495
-0.218588
0.109596
-0.211759
0.101125
-0.177788
0.102188
-0.108232
0.112771
-0.0152603
0.128325
0.0814812
0.142277
0.1569
0.14905
0.22507
0.147579
0.284588
0.140357
0.323746
0.13059
0.294922
0.121996
0.193909
0.119295
0.0341588
0.125606
-0.104672
0.131783
-0.178495
0.129764
-0.216447
0.124823
-0.235426
0.12448
-0.264759
0.128532
-0.222158
0.134233
-0.163035
0.136115
0.0211118
0.134828
0.226573
0.134277
0.378258
0.132654
0.356527
0.130166
0.0984805
0.124181
-0.099921
0.120155
-0.305288
0.116976
-0.216418
0.00538616
0.136185
-0.108348
0.126982
-0.118161
0.116369
-0.121992
0.104702
-0.121835
0.0939409
-0.119799
0.0853939
-0.114884
0.0748722
-0.106303
0.0581041
-0.0996473
0.0399577
-0.0991579
0.0306996
-0.0968299
0.0357008
-0.0792372
0.0526059
-0.0421213
0.0764914
0.00707099
0.101693
0.057411
0.124359
0.0995252
0.142717
0.130107
0.15699
0.148041
0.168247
0.154803
0.177655
0.160078
0.186178
0.177544
0.193827
0.206413
0.198965
0.223697
0.198924
0.202153
0.192847
0.131406
0.1832
0.0231929
0.174
-0.0866345
0.166053
-0.165332
0.158623
-0.203305
0.151576
-0.212212
0.144388
-0.207617
0.134563
-0.20446
0.121139
-0.205165
0.107128
-0.197748
0.0982628
-0.168923
0.0996015
-0.109571
0.111347
-0.027006
0.128698
0.0641304
0.144537
0.141061
0.153543
0.216065
0.154427
0.283704
0.148984
0.329189
0.139779
0.304126
0.12988
0.203809
0.123604
0.0404341
0.127026
-0.108093
0.133203
-0.184672
0.131563
-0.214807
0.126021
-0.229884
0.125114
-0.263853
0.128884
-0.225927
0.134434
-0.168586
0.136844
0.0187014
0.13647
0.226948
0.136711
0.378017
0.134755
0.358483
0.131639
0.101597
0.124915
-0.0931968
0.120623
-0.300995
0.118342
-0.214138
0.0101626
0.149755
-0.0978408
0.137393
-0.105798
0.124799
-0.109398
0.112644
-0.10968
0.10062
-0.107776
0.0905016
-0.104766
0.0828649
-0.0986663
0.0724678
-0.0892503
0.0559676
-0.0826576
0.0400867
-0.0809491
0.0353265
-0.074477
0.0452147
-0.0520096
0.0658246
-0.0135389
0.0907191
0.0325165
0.114977
0.0752677
0.13609
0.108994
0.15334
0.130791
0.167169
0.140974
0.178834
0.148413
0.189904
0.166474
0.20055
0.195766
0.208301
0.215946
0.209534
0.20092
0.203217
0.137723
0.191996
0.0344138
0.180058
-0.0746957
0.169205
-0.154479
0.159476
-0.193576
0.150577
-0.203313
0.142242
-0.199282
0.132548
-0.194765
0.119925
-0.192542
0.106272
-0.184095
0.09688
-0.159531
0.0976895
-0.11038
0.109803
-0.0391192
0.128543
0.0453901
0.146354
0.12325
0.157881
0.204538
0.161332
0.280253
0.157925
0.332596
0.149648
0.312403
0.138953
0.214503
0.129292
0.0500951
0.129098
-0.1079
0.134726
-0.1903
0.133585
-0.213665
0.127337
-0.223636
0.125561
-0.262077
0.129034
-0.2294
0.134557
-0.174108
0.13766
0.0155988
0.138244
0.226364
0.13929
0.37697
0.137108
0.360665
0.133491
0.105213
0.126112
-0.0858179
0.121444
-0.296326
0.119965
-0.21266
0.0146649
0.156524
-0.0854931
0.142855
-0.0921295
0.128958
-0.0955005
0.116422
-0.0971446
0.105245
-0.0965986
0.0947764
-0.0942973
0.0867988
-0.0906887
0.0810586
-0.08351
0.0719052
-0.0735043
0.0572092
-0.0662531
0.0449204
-0.0621882
0.0448436
-0.0519327
0.0584422
-0.0271375
0.0807636
0.0101951
0.105119
0.0509118
0.127959
0.0861544
0.147518
0.111232
0.163403
0.125089
0.176741
0.135075
0.189712
0.153503
0.202937
0.182542
0.213342
0.205541
0.216275
0.197986
0.210347
0.143651
0.198301
0.04646
0.184691
-0.061085
0.171598
-0.141387
0.159945
-0.181922
0.149613
-0.192982
0.140308
-0.189976
0.130789
-0.185247
0.119371
-0.181125
0.106659
-0.171382
0.0968308
-0.149703
0.096343
-0.109893
0.107874
-0.0506505
0.127473
0.0257912
0.147284
0.103439
0.161696
0.190125
0.168239
0.273711
0.167271
0.333565
0.160011
0.319663
0.148773
0.225741
0.136074
0.0627943
0.13184
-0.103666
0.136241
-0.194702
0.1357
-0.213125
0.128773
-0.216708
0.125847
-0.259151
0.128966
-0.232519
0.134561
-0.179703
0.138504
0.0116558
0.140111
0.224756
0.141982
0.375099
0.13966
0.362987
0.135688
0.109185
0.127763
-0.0778926
0.122599
-0.291163
0.121816
-0.211877
0.0188782
0.156386
-0.0728888
0.14345
-0.079193
0.130719
-0.0827699
0.118732
-0.0851572
0.108316
-0.0861824
0.0990369
-0.0850185
0.0905592
-0.0822111
0.0847894
-0.0777402
0.0810568
-0.0697717
0.0739998
-0.0591961
0.0622713
-0.0504597
0.0537228
-0.0433842
0.0569519
-0.0303666
0.0729084
-0.00576137
0.0955692
0.028251
0.119371
0.0623524
0.140725
0.0898777
0.158049
0.107765
0.172258
0.120866
0.186195
0.139566
0.201085
0.167651
0.213591
0.193035
0.218386
0.193191
0.213598
0.148439
0.202036
0.0580225
0.18779
-0.0468398
0.173155
-0.126752
0.159911
-0.168678
0.14849
-0.181561
0.138418
-0.179905
0.129013
-0.175841
0.118947
-0.171059
0.107762
-0.160196
0.0979275
-0.139869
0.09562
-0.107585
0.10548
-0.0605104
0.125301
0.00597057
0.147044
0.0816956
0.164347
0.172822
0.173957
0.264101
0.175567
0.331954
0.169879
0.325351
0.158523
0.237098
0.143583
0.0777343
0.135218
-0.0953012
0.137676
-0.19716
0.137755
-0.213204
0.130303
-0.209256
0.126002
-0.254851
0.128671
-0.235188
0.134405
-0.185437
0.139294
0.00676671
0.141945
0.222106
0.144678
0.372366
0.142334
0.365331
0.13818
0.113339
0.129843
-0.0695564
0.124066
-0.285385
0.123865
-0.211676
0.0227833
0.152719
-0.0617913
0.141284
-0.0677571
0.130225
-0.0717116
0.1198
-0.0747318
0.110167
-0.0765494
0.101825
-0.0766768
0.0944305
-0.0748164
0.0880627
-0.0713725
0.0843258
-0.0660348
0.0825857
-0.0574559
0.0784081
-0.0462821
0.0704923
-0.0354683
0.0654623
-0.0253366
0.0708881
-0.0111872
0.087413
0.0117261
0.10977
0.0399959
0.132291
0.0673559
0.151122
0.088935
0.16612
0.105868
0.180462
0.125224
0.196402
0.151711
0.210805
0.178632
0.217484
0.186512
0.213991
0.151932
0.203123
0.0688905
0.188959
-0.0326757
0.173572
-0.111365
0.159184
-0.15429
0.147035
-0.169411
0.136478
-0.169348
0.127055
-0.166418
0.118183
-0.162188
0.108911
-0.150925
0.0998234
-0.130781
0.0957339
-0.103496
0.10287
-0.0676462
0.121795
-0.0129545
0.14516
0.0583302
0.165809
0.152173
0.179072
0.250838
0.183359
0.327668
0.179237
0.329473
0.167998
0.248336
0.151265
0.094468
0.139075
-0.0831111
0.138988
-0.197073
0.139592
-0.213808
0.13186
-0.201523
0.126049
-0.249039
0.128131
-0.23727
0.134035
-0.191342
0.139973
0.000828739
0.143737
0.218342
0.147372
0.368731
0.145088
0.367616
0.140921
0.117506
0.132315
-0.0609504
0.125819
-0.27889
0.126087
-0.211944
0.0263567
0.148172
-0.0527994
0.138601
-0.0581859
0.128941
-0.0620521
0.119738
-0.0655279
0.111123
-0.0679346
0.103294
-0.0688478
0.0966278
-0.0681505
0.0910262
-0.0657709
0.086654
-0.0616626
0.0848051
-0.055607
0.085098
-0.0465751
0.0839187
-0.034289
0.07977
-0.0211879
0.0774692
-0.00888635
0.0839669
0.00522839
0.0996139
0.0243489
0.119744
0.0472257
0.138897
0.0697817
0.155228
0.0895378
0.170954
0.109498
0.187886
0.134779
0.203087
0.163431
0.211226
0.178372
0.210111
0.153047
0.201664
0.0773375
0.188838
-0.0198495
0.173191
-0.0957176
0.157794
-0.138894
0.145022
-0.156639
0.134254
-0.15858
0.124763
-0.156926
0.116739
-0.154164
0.109425
-0.143611
0.101901
-0.123256
0.096736
-0.0983306
0.100563
-0.071473
0.117194
-0.0295853
0.141506
0.0340176
0.164981
0.128699
0.181698
0.23412
0.189014
0.320352
0.186963
0.331524
0.176703
0.258596
0.158958
0.112214
0.143315
-0.0674687
0.140135
-0.193893
0.141044
-0.214717
0.13334
-0.193819
0.126005
-0.241704
0.127342
-0.238607
0.133424
-0.197424
0.140463
-0.00620994
0.145316
0.213489
0.149881
0.364166
0.147817
0.36968
0.143851
0.121472
0.135127
-0.0522268
0.127826
-0.271589
0.128452
-0.21257
0.0295684
0.142985
-0.0453493
0.134635
-0.0498354
0.126062
-0.0534797
0.117666
-0.0571323
0.109743
-0.0600114
0.102533
-0.0616376
0.096307
-0.0619244
0.0913981
-0.0608621
0.0877477
-0.0580121
0.0854091
-0.0532684
0.0854295
-0.0465955
0.087929
-0.0367885
0.0903316
-0.0235906
0.090732
-0.0092868
0.0916728
0.00428759
0.0975799
0.0184419
0.109815
0.0349907
0.124823
0.0547737
0.140112
0.0742482
0.156721
0.0928894
0.17574
0.11576
0.193809
0.145362
0.204561
0.16762
0.205167
0.152441
0.198126
0.0843794
0.186229
-0.00795315
0.170945
-0.0804334
0.155193
-0.123142
0.142153
-0.143599
0.131544
-0.147971
0.122101
-0.147483
0.114561
-0.146624
0.108893
-0.137944
0.103423
-0.117786
0.0983359
-0.0932439
0.0989618
-0.0720989
0.111972
-0.0425953
0.136008
0.00998166
0.162827
0.101879
0.183808
0.21314
0.193844
0.310316
0.192946
0.332422
0.183769
0.267773
0.166098
0.129884
0.14771
-0.0490802
0.141142
-0.187326
0.142009
-0.215584
0.134703
-0.186513
0.126009
-0.233011
0.126369
-0.238967
0.132467
-0.203521
0.140785
-0.0145283
0.146771
0.207503
0.152306
0.358631
0.15056
0.371425
0.146935
0.125098
0.138229
-0.0435207
0.130057
-0.263418
0.130935
-0.213448
0.0323842
0.136711
-0.0392946
0.12955
-0.042674
0.122206
-0.0461354
0.114824
-0.0497512
0.107784
-0.0529711
0.101486
-0.0553394
0.0960624
-0.0565008
0.0915437
-0.0563434
0.0881718
-0.0546402
0.0859203
-0.0510168
0.084977
-0.0456522
0.0865211
-0.0383326
0.0905945
-0.027664
0.0947996
-0.0134919
0.0978924
0.00119482
0.101531
0.0148032
0.10739
0.0291317
0.115919
0.0462448
0.1267
0.0634668
0.140722
0.0788674
0.15848
0.0980031
0.176353
0.127488
0.188818
0.155156
0.194404
0.146855
0.193294
0.0854896
0.184702
0.000638666
0.169728
-0.0654592
0.153254
-0.106667
0.139617
-0.129962
0.129126
-0.13748
0.119759
-0.138116
0.112284
-0.13915
0.107665
-0.133325
0.104116
-0.114237
0.0999197
-0.0890473
0.0983848
-0.0705639
0.107174
-0.0513846
0.128613
-0.0114571
0.156623
0.0738686
0.181554
0.188209
0.195923
0.295947
0.197697
0.330648
0.189855
0.275615
0.173318
0.146421
0.152811
-0.0285724
0.142562
-0.177077
0.142782
-0.215804
0.136047
-0.179778
0.126209
-0.223172
0.125454
-0.238213
0.131472
-0.209539
0.140661
-0.0237176
0.147826
0.200339
0.154375
0.352082
0.15314
0.37266
0.150155
0.128083
0.141563
-0.0349287
0.132505
-0.25436
0.133498
-0.214441
0.0347536
0.191115
-0.0335442
-0.196865
0.186282
-0.0378413
0.181368
-0.0412209
0.17596
-0.0443431
0.170028
-0.0470399
0.163744
-0.0490553
0.157277
-0.0500333
0.150694
-0.0497602
0.144115
-0.0480615
0.137672
-0.0445741
0.131366
-0.0393464
0.125443
-0.0324094
0.120636
-0.0228566
0.117541
-0.0103969
0.114956
0.00377956
0.111746
0.0180134
0.107948
0.0329299
0.105388
0.0488048
0.10632
0.0625346
0.111244
0.0739436
0.11827
0.0909769
0.127028
0.11873
0.14311
0.139074
0.169346
0.120618
0.194466
0.06037
0.206569
-0.0114652
0.206091
-0.0649811
0.197287
-0.0978633
0.185787
-0.118462
0.174273
-0.125966
0.16259
-0.126433
0.151766
-0.128326
0.142417
-0.123976
0.133258
-0.105078
0.123221
-0.0790098
0.115269
-0.0626118
0.11529
-0.0514055
0.125111
-0.0212787
0.138886
0.0600943
0.151045
0.176049
0.159152
0.28784
0.164691
0.32511
0.170101
0.270205
0.171846
0.144675
0.166526
-0.0232517
0.161299
-0.171851
0.159169
-0.213674
0.150407
-0.171016
0.139425
-0.21219
0.134705
-0.233493
0.132587
-0.207421
0.131724
-0.0228548
0.131464
0.200599
0.136572
0.346974
0.140148
0.369084
0.142448
0.125783
0.136513
-0.0289942
0.126432
-0.244278
0.124379
-0.212388
0.0380112
0.199295
-0.0288909
-0.203948
0.194414
-0.0329603
0.189413
-0.0362196
0.184042
-0.0389721
0.178255
-0.0412529
0.172125
-0.0429257
0.16582
-0.0437281
0.159502
-0.0434425
0.153328
-0.0418871
0.147512
-0.0387584
0.142207
-0.034041
0.137467
-0.0276697
0.133598
-0.0189874
0.131066
-0.00786519
0.130041
0.00480452
0.129263
0.0187913
0.127704
0.0344887
0.126155
0.0503541
0.126226
0.062464
0.12839
0.0717792
0.132852
0.0865152
0.143168
0.108414
0.164728
0.117514
0.193202
0.0921446
0.214764
0.0388079
0.221792
-0.0184934
0.217518
-0.0607074
0.206766
-0.0871107
0.194355
-0.106052
0.182761
-0.114372
0.171319
-0.11499
0.160457
-0.117464
0.151429
-0.114947
0.14345
-0.0970993
0.134551
-0.0701112
0.126216
-0.0542773
0.124482
-0.0496714
0.133234
-0.0300302
0.148494
0.0448343
0.1632
0.161343
0.173415
0.277625
0.180172
0.318353
0.186318
0.264058
0.18891
0.142083
0.183073
-0.0174144
0.175496
-0.164274
0.171873
-0.210051
0.162282
-0.161425
0.149933
-0.199841
0.144226
-0.227786
0.142049
-0.205243
0.141196
-0.0220023
0.14113
0.200665
0.147235
0.340869
0.151791
0.364528
0.154785
0.122789
0.148449
-0.0226578
0.13657
-0.232399
0.134161
-0.209979
0.041308
0.208032
-0.0251031
-0.211819
0.203535
-0.0284637
0.198791
-0.0314754
0.193777
-0.0339584
0.188437
-0.0359127
0.182795
-0.0372841
0.176969
-0.037902
0.171097
-0.0375704
0.165332
-0.036122
0.159857
-0.0332832
0.154833
-0.0290168
0.150412
-0.0232488
0.146914
-0.0154895
0.144859
-0.00581068
0.144386
0.00527776
0.145185
0.0179927
0.146662
0.0330109
0.148657
0.0483595
0.151049
0.060072
0.153715
0.0691128
0.158702
0.0815288
0.171348
0.0957681
0.194056
0.0948056
0.21859
0.0676108
0.233191
0.0242066
0.234784
-0.0200862
0.228124
-0.0540478
0.217263
-0.0762498
0.205238
-0.0940266
0.194092
-0.103226
0.183011
-0.103908
0.171924
-0.106378
0.162647